/*--------------------------------*- C++ -*----------------------------------*\
| =========                 |                                                 |
| \\      /  F ield         | OpenFOAM: The Open Source CFD Toolbox           |
|  \\    /   O peration     | Version:  v2012                                 |
|   \\  /    A nd           | Website:  www.openfoam.com                      |
|    \\/     M anipulation  |                                                 |
\*---------------------------------------------------------------------------*/
FoamFile
{
    version     2.0;
    format      ascii;
    class       volScalarField;
    location    "0.3";
    object      p_rgh;
}
// * * * * * * * * * * * * * * * * * * * * * * * * * * * * * * * * * * * * * //

dimensions      [1 -1 -2 0 0 0 0];


internalField   nonuniform List<scalar> 
3352
(
3.49808e+06
3.49949e+06
3.49896e+06
3.49886e+06
3.49809e+06
3.49809e+06
3.49907e+06
3.49884e+06
3.49803e+06
3.49579e+06
3.4958e+06
3.49671e+06
3.49802e+06
3.49882e+06
3.4994e+06
3.49998e+06
3.50048e+06
3.50085e+06
3.50111e+06
3.50126e+06
3.50134e+06
3.50137e+06
3.50135e+06
3.50131e+06
3.50126e+06
3.50119e+06
3.50111e+06
3.50102e+06
3.50093e+06
3.50084e+06
3.50074e+06
3.50064e+06
3.50053e+06
3.50042e+06
3.50031e+06
3.50019e+06
3.50006e+06
3.49992e+06
3.49975e+06
3.50076e+06
3.50121e+06
3.50079e+06
3.50195e+06
3.50232e+06
3.50275e+06
3.50305e+06
3.50268e+06
3.50306e+06
3.50192e+06
3.50206e+06
3.50202e+06
3.50263e+06
3.50216e+06
3.5014e+06
3.50083e+06
3.50049e+06
3.50028e+06
3.50017e+06
3.50011e+06
3.5001e+06
3.50011e+06
3.50013e+06
3.50015e+06
3.50017e+06
3.50019e+06
3.5002e+06
3.50021e+06
3.5002e+06
3.50019e+06
3.50016e+06
3.50013e+06
3.50008e+06
3.50003e+06
3.49996e+06
3.49987e+06
3.49978e+06
3.49966e+06
3.4995e+06
3.5003e+06
3.49957e+06
3.50038e+06
3.50017e+06
3.50109e+06
3.5007e+06
3.502e+06
3.50097e+06
3.50136e+06
3.49951e+06
3.49981e+06
3.49986e+06
3.5009e+06
3.50092e+06
3.50081e+06
3.50066e+06
3.50062e+06
3.50056e+06
3.50051e+06
3.50046e+06
3.50041e+06
3.50036e+06
3.5003e+06
3.50025e+06
3.5002e+06
3.50015e+06
3.50011e+06
3.50006e+06
3.50001e+06
3.49996e+06
3.49991e+06
3.49986e+06
3.4998e+06
3.49974e+06
3.49967e+06
3.49959e+06
3.4995e+06
3.49941e+06
3.49928e+06
3.50252e+06
3.49933e+06
3.50205e+06
3.5005e+06
3.50247e+06
3.50141e+06
3.50309e+06
3.50195e+06
3.50276e+06
3.5013e+06
3.50196e+06
3.50173e+06
3.50249e+06
3.50208e+06
3.5016e+06
3.5011e+06
3.50077e+06
3.5005e+06
3.50031e+06
3.50018e+06
3.50008e+06
3.50001e+06
3.49996e+06
3.49991e+06
3.49988e+06
3.49984e+06
3.49981e+06
3.49977e+06
3.49973e+06
3.49969e+06
3.49964e+06
3.49959e+06
3.49953e+06
3.49947e+06
3.4994e+06
3.49933e+06
3.49925e+06
3.49916e+06
3.49906e+06
3.50311e+06
3.49751e+06
3.50277e+06
3.49934e+06
3.50251e+06
3.50062e+06
3.50271e+06
3.50114e+06
3.50189e+06
3.50014e+06
3.50102e+06
3.50079e+06
3.50166e+06
3.5014e+06
3.50119e+06
3.50086e+06
3.50065e+06
3.50044e+06
3.50027e+06
3.50012e+06
3.5e+06
3.4999e+06
3.49982e+06
3.49974e+06
3.49968e+06
3.49962e+06
3.49957e+06
3.49952e+06
3.49947e+06
3.49942e+06
3.49937e+06
3.49932e+06
3.49926e+06
3.49921e+06
3.49914e+06
3.49907e+06
3.499e+06
3.49892e+06
3.49883e+06
3.50505e+06
3.4962e+06
3.50418e+06
3.49889e+06
3.50314e+06
3.50057e+06
3.5028e+06
3.50128e+06
3.50206e+06
3.50052e+06
3.50162e+06
3.5013e+06
3.50204e+06
3.50164e+06
3.50135e+06
3.50092e+06
3.50063e+06
3.50035e+06
3.50013e+06
3.49995e+06
3.4998e+06
3.49968e+06
3.49959e+06
3.49951e+06
3.49944e+06
3.49937e+06
3.49932e+06
3.49926e+06
3.49921e+06
3.49916e+06
3.49911e+06
3.49905e+06
3.499e+06
3.49894e+06
3.49888e+06
3.49882e+06
3.49875e+06
3.49869e+06
3.49861e+06
3.50608e+06
3.49503e+06
3.50501e+06
3.49822e+06
3.50319e+06
3.5002e+06
3.50225e+06
3.50086e+06
3.50135e+06
3.49981e+06
3.50098e+06
3.50071e+06
3.50146e+06
3.50114e+06
3.50097e+06
3.50063e+06
3.50041e+06
3.50016e+06
3.49996e+06
3.49977e+06
3.49962e+06
3.49949e+06
3.49938e+06
3.49929e+06
3.49921e+06
3.49913e+06
3.49907e+06
3.49901e+06
3.49895e+06
3.4989e+06
3.49884e+06
3.49879e+06
3.49874e+06
3.49868e+06
3.49863e+06
3.49857e+06
3.49851e+06
3.49845e+06
3.49838e+06
3.50673e+06
3.49455e+06
3.50534e+06
3.49802e+06
3.50304e+06
3.50007e+06
3.50154e+06
3.50067e+06
3.50077e+06
3.49956e+06
3.50077e+06
3.50059e+06
3.50127e+06
3.50095e+06
3.50079e+06
3.50046e+06
3.50023e+06
3.49997e+06
3.49976e+06
3.49957e+06
3.49941e+06
3.49927e+06
3.49915e+06
3.49905e+06
3.49896e+06
3.49889e+06
3.49882e+06
3.49875e+06
3.49869e+06
3.49864e+06
3.49858e+06
3.49853e+06
3.49848e+06
3.49842e+06
3.49837e+06
3.49832e+06
3.49826e+06
3.49821e+06
3.49816e+06
3.50564e+06
3.49499e+06
3.50467e+06
3.49801e+06
3.50224e+06
3.49983e+06
3.50035e+06
3.50015e+06
3.49965e+06
3.49881e+06
3.49998e+06
3.49999e+06
3.50066e+06
3.50045e+06
3.50037e+06
3.50011e+06
3.49993e+06
3.49971e+06
3.49952e+06
3.49934e+06
3.49918e+06
3.49904e+06
3.49892e+06
3.49881e+06
3.49872e+06
3.49864e+06
3.49856e+06
3.4985e+06
3.49843e+06
3.49838e+06
3.49832e+06
3.49827e+06
3.49821e+06
3.49816e+06
3.49812e+06
3.49807e+06
3.49802e+06
3.49797e+06
3.49793e+06
3.50348e+06
3.49616e+06
3.5029e+06
3.49831e+06
3.50088e+06
3.49956e+06
3.49887e+06
3.4995e+06
3.49837e+06
3.49809e+06
3.49924e+06
3.49951e+06
3.50015e+06
3.50004e+06
3.5e+06
3.4998e+06
3.49964e+06
3.49944e+06
3.49927e+06
3.49909e+06
3.49894e+06
3.4988e+06
3.49868e+06
3.49857e+06
3.49847e+06
3.49839e+06
3.49831e+06
3.49824e+06
3.49817e+06
3.49811e+06
3.49806e+06
3.49801e+06
3.49795e+06
3.49791e+06
3.49786e+06
3.49782e+06
3.49777e+06
3.49774e+06
3.4977e+06
3.49994e+06
3.49817e+06
3.50016e+06
3.49873e+06
3.49895e+06
3.49908e+06
3.49714e+06
3.49853e+06
3.4968e+06
3.4971e+06
3.49823e+06
3.49881e+06
3.49946e+06
3.4995e+06
3.49953e+06
3.49941e+06
3.4993e+06
3.49914e+06
3.49898e+06
3.49883e+06
3.49868e+06
3.49855e+06
3.49843e+06
3.49832e+06
3.49822e+06
3.49813e+06
3.49805e+06
3.49798e+06
3.49791e+06
3.49785e+06
3.4978e+06
3.49774e+06
3.49769e+06
3.49765e+06
3.49761e+06
3.49757e+06
3.49753e+06
3.4975e+06
3.49747e+06
3.49582e+06
3.50038e+06
3.49688e+06
3.49911e+06
3.49677e+06
3.49838e+06
3.4954e+06
3.49734e+06
3.49518e+06
3.49605e+06
3.49723e+06
3.49813e+06
3.49881e+06
3.49899e+06
3.49908e+06
3.49904e+06
3.49896e+06
3.49883e+06
3.4987e+06
3.49856e+06
3.49842e+06
3.49829e+06
3.49817e+06
3.49806e+06
3.49796e+06
3.49787e+06
3.49779e+06
3.49772e+06
3.49765e+06
3.49759e+06
3.49753e+06
3.49748e+06
3.49743e+06
3.49739e+06
3.49735e+06
3.49732e+06
3.49728e+06
3.49726e+06
3.49723e+06
3.49158e+06
3.50237e+06
3.49363e+06
3.49929e+06
3.49466e+06
3.49745e+06
3.49385e+06
3.49598e+06
3.49362e+06
3.49493e+06
3.4962e+06
3.49739e+06
3.49812e+06
3.49845e+06
3.49861e+06
3.49864e+06
3.49861e+06
3.49852e+06
3.4984e+06
3.49828e+06
3.49815e+06
3.49803e+06
3.49791e+06
3.4978e+06
3.4977e+06
3.49761e+06
3.49753e+06
3.49745e+06
3.49739e+06
3.49732e+06
3.49727e+06
3.49722e+06
3.49717e+06
3.49713e+06
3.4971e+06
3.49707e+06
3.49704e+06
3.49702e+06
3.497e+06
3.48838e+06
3.50343e+06
3.49103e+06
3.49914e+06
3.49302e+06
3.49642e+06
3.49274e+06
3.49466e+06
3.49235e+06
3.49387e+06
3.4953e+06
3.49671e+06
3.49751e+06
3.49796e+06
3.49818e+06
3.49827e+06
3.49827e+06
3.49821e+06
3.49811e+06
3.498e+06
3.49788e+06
3.49776e+06
3.49765e+06
3.49754e+06
3.49744e+06
3.49735e+06
3.49727e+06
3.49719e+06
3.49712e+06
3.49706e+06
3.497e+06
3.49695e+06
3.49691e+06
3.49687e+06
3.49684e+06
3.49681e+06
3.49679e+06
3.49677e+06
3.49676e+06
3.48696e+06
3.50318e+06
3.48975e+06
3.49852e+06
3.49215e+06
3.49545e+06
3.49222e+06
3.49358e+06
3.49156e+06
3.49301e+06
3.49459e+06
3.49612e+06
3.49698e+06
3.49751e+06
3.49778e+06
3.49792e+06
3.49795e+06
3.49791e+06
3.49783e+06
3.49773e+06
3.49761e+06
3.4975e+06
3.49738e+06
3.49728e+06
3.49718e+06
3.49708e+06
3.497e+06
3.49692e+06
3.49685e+06
3.49679e+06
3.49674e+06
3.49669e+06
3.49665e+06
3.49661e+06
3.49659e+06
3.49656e+06
3.49654e+06
3.49653e+06
3.49652e+06
3.48757e+06
3.50203e+06
3.49e+06
3.49778e+06
3.49222e+06
3.49486e+06
3.49242e+06
3.49305e+06
3.49143e+06
3.49251e+06
3.49415e+06
3.49569e+06
3.49659e+06
3.49716e+06
3.49746e+06
3.49763e+06
3.49767e+06
3.49764e+06
3.49757e+06
3.49747e+06
3.49735e+06
3.49724e+06
3.49712e+06
3.49701e+06
3.49691e+06
3.49682e+06
3.49673e+06
3.49665e+06
3.49658e+06
3.49652e+06
3.49647e+06
3.49642e+06
3.49639e+06
3.49635e+06
3.49633e+06
3.49631e+06
3.49629e+06
3.49629e+06
3.49628e+06
3.48967e+06
3.50076e+06
3.49162e+06
3.49743e+06
3.49334e+06
3.49491e+06
3.49343e+06
3.49327e+06
3.49202e+06
3.4924e+06
3.49405e+06
3.49546e+06
3.49636e+06
3.49691e+06
3.49722e+06
3.49738e+06
3.49742e+06
3.4974e+06
3.49732e+06
3.49722e+06
3.4971e+06
3.49698e+06
3.49686e+06
3.49675e+06
3.49664e+06
3.49655e+06
3.49646e+06
3.49638e+06
3.49631e+06
3.49625e+06
3.4962e+06
3.49616e+06
3.49612e+06
3.49609e+06
3.49607e+06
3.49605e+06
3.49604e+06
3.49604e+06
3.49604e+06
3.49316e+06
3.50005e+06
3.49443e+06
3.49781e+06
3.49548e+06
3.49579e+06
3.49523e+06
3.49441e+06
3.49337e+06
3.4928e+06
3.49434e+06
3.49548e+06
3.49632e+06
3.49679e+06
3.49707e+06
3.49721e+06
3.49723e+06
3.49719e+06
3.4971e+06
3.49698e+06
3.49686e+06
3.49673e+06
3.49661e+06
3.49649e+06
3.49638e+06
3.49628e+06
3.49619e+06
3.49611e+06
3.49604e+06
3.49598e+06
3.49593e+06
3.49589e+06
3.49585e+06
3.49583e+06
3.49581e+06
3.4958e+06
3.49579e+06
3.4958e+06
3.4958e+06
3.49747e+06
3.50036e+06
3.49819e+06
3.49913e+06
3.49852e+06
3.49755e+06
3.49773e+06
3.49641e+06
3.49548e+06
3.49375e+06
3.49491e+06
3.49574e+06
3.49646e+06
3.49681e+06
3.49703e+06
3.49711e+06
3.49709e+06
3.49702e+06
3.4969e+06
3.49677e+06
3.49663e+06
3.49649e+06
3.49635e+06
3.49622e+06
3.49611e+06
3.496e+06
3.49591e+06
3.49583e+06
3.49576e+06
3.4957e+06
3.49565e+06
3.49561e+06
3.49558e+06
3.49556e+06
3.49555e+06
3.49554e+06
3.49554e+06
3.49555e+06
3.49556e+06
3.50234e+06
3.50183e+06
3.5025e+06
3.50143e+06
3.5022e+06
3.50013e+06
3.50079e+06
3.49916e+06
3.49823e+06
3.49523e+06
3.49581e+06
3.49628e+06
3.49678e+06
3.49697e+06
3.49709e+06
3.49708e+06
3.49701e+06
3.49688e+06
3.49673e+06
3.49657e+06
3.4964e+06
3.49625e+06
3.4961e+06
3.49596e+06
3.49584e+06
3.49573e+06
3.49563e+06
3.49555e+06
3.49548e+06
3.49542e+06
3.49537e+06
3.49534e+06
3.49531e+06
3.49529e+06
3.49529e+06
3.49528e+06
3.49529e+06
3.4953e+06
3.49532e+06
3.50658e+06
3.50448e+06
3.50694e+06
3.50458e+06
3.50617e+06
3.50333e+06
3.50423e+06
3.50245e+06
3.50141e+06
3.49717e+06
3.49706e+06
3.49706e+06
3.49728e+06
3.49726e+06
3.49724e+06
3.49712e+06
3.49697e+06
3.49678e+06
3.49658e+06
3.49638e+06
3.49619e+06
3.49601e+06
3.49584e+06
3.4957e+06
3.49556e+06
3.49545e+06
3.49535e+06
3.49526e+06
3.49519e+06
3.49514e+06
3.49509e+06
3.49506e+06
3.49504e+06
3.49503e+06
3.49502e+06
3.49502e+06
3.49503e+06
3.49505e+06
3.49507e+06
3.51075e+06
3.50785e+06
3.51096e+06
3.50827e+06
3.51005e+06
3.5069e+06
3.50786e+06
3.50601e+06
3.50489e+06
3.49949e+06
3.49857e+06
3.49806e+06
3.49795e+06
3.49767e+06
3.49748e+06
3.49722e+06
3.49697e+06
3.4967e+06
3.49645e+06
3.4962e+06
3.49598e+06
3.49577e+06
3.49559e+06
3.49543e+06
3.49528e+06
3.49516e+06
3.49506e+06
3.49498e+06
3.49491e+06
3.49485e+06
3.49481e+06
3.49478e+06
3.49476e+06
3.49475e+06
3.49476e+06
3.49476e+06
3.49478e+06
3.4948e+06
3.49483e+06
3.51396e+06
3.51199e+06
3.51432e+06
3.5121e+06
3.51353e+06
3.51057e+06
3.51154e+06
3.50964e+06
3.5085e+06
3.50209e+06
3.50026e+06
3.49925e+06
3.49872e+06
3.49817e+06
3.49777e+06
3.49736e+06
3.497e+06
3.49664e+06
3.49632e+06
3.49603e+06
3.49576e+06
3.49553e+06
3.49533e+06
3.49515e+06
3.495e+06
3.49487e+06
3.49477e+06
3.49468e+06
3.49461e+06
3.49456e+06
3.49452e+06
3.4945e+06
3.49448e+06
3.49448e+06
3.49449e+06
3.4945e+06
3.49452e+06
3.49455e+06
3.49458e+06
3.51647e+06
3.51587e+06
3.51683e+06
3.51557e+06
3.51646e+06
3.51413e+06
3.51522e+06
3.51326e+06
3.51218e+06
3.50495e+06
3.50213e+06
3.50056e+06
3.49958e+06
3.49873e+06
3.49811e+06
3.49753e+06
3.49704e+06
3.49659e+06
3.4962e+06
3.49585e+06
3.49554e+06
3.49528e+06
3.49506e+06
3.49487e+06
3.49471e+06
3.49457e+06
3.49447e+06
3.49438e+06
3.49431e+06
3.49426e+06
3.49423e+06
3.49421e+06
3.4942e+06
3.49421e+06
3.49422e+06
3.49424e+06
3.49426e+06
3.4943e+06
3.49433e+06
3.51824e+06
3.51904e+06
3.51874e+06
3.51831e+06
3.51882e+06
3.51752e+06
3.51884e+06
3.51689e+06
3.5159e+06
3.50796e+06
3.50408e+06
3.50193e+06
3.50047e+06
3.4993e+06
3.49844e+06
3.49768e+06
3.49706e+06
3.49652e+06
3.49605e+06
3.49565e+06
3.49531e+06
3.49502e+06
3.49477e+06
3.49457e+06
3.4944e+06
3.49426e+06
3.49416e+06
3.49407e+06
3.49401e+06
3.49396e+06
3.49393e+06
3.49392e+06
3.49392e+06
3.49393e+06
3.49395e+06
3.49397e+06
3.49401e+06
3.49404e+06
3.49409e+06
3.51981e+06
3.52083e+06
3.52013e+06
3.52002e+06
3.52067e+06
3.52063e+06
3.52248e+06
3.52061e+06
3.51969e+06
3.51099e+06
3.50606e+06
3.50327e+06
3.50132e+06
3.49983e+06
3.49873e+06
3.4978e+06
3.49705e+06
3.49641e+06
3.49588e+06
3.49542e+06
3.49505e+06
3.49473e+06
3.49447e+06
3.49426e+06
3.49408e+06
3.49394e+06
3.49384e+06
3.49375e+06
3.4937e+06
3.49366e+06
3.49363e+06
3.49363e+06
3.49363e+06
3.49365e+06
3.49367e+06
3.49371e+06
3.49375e+06
3.49379e+06
3.49384e+06
3.5211e+06
3.52132e+06
3.52108e+06
3.52073e+06
3.52208e+06
3.52341e+06
3.52596e+06
3.5243e+06
3.52335e+06
3.51377e+06
3.50785e+06
3.50443e+06
3.50203e+06
3.50024e+06
3.49892e+06
3.49783e+06
3.49697e+06
3.49625e+06
3.49566e+06
3.49516e+06
3.49475e+06
3.49442e+06
3.49414e+06
3.49392e+06
3.49375e+06
3.49361e+06
3.4935e+06
3.49343e+06
3.49338e+06
3.49334e+06
3.49333e+06
3.49333e+06
3.49334e+06
3.49337e+06
3.4934e+06
3.49344e+06
3.49349e+06
3.49354e+06
3.49359e+06
3.522e+06
3.52103e+06
3.52155e+06
3.52078e+06
3.52308e+06
3.52567e+06
3.52894e+06
3.52765e+06
3.52647e+06
3.51597e+06
3.50923e+06
3.50525e+06
3.50248e+06
3.50044e+06
3.49895e+06
3.49774e+06
3.4968e+06
3.49601e+06
3.49537e+06
3.49484e+06
3.49442e+06
3.49407e+06
3.49379e+06
3.49357e+06
3.49339e+06
3.49326e+06
3.49316e+06
3.49309e+06
3.49305e+06
3.49302e+06
3.49302e+06
3.49303e+06
3.49305e+06
3.49308e+06
3.49312e+06
3.49317e+06
3.49323e+06
3.49328e+06
3.49335e+06
3.52193e+06
3.52058e+06
3.52139e+06
3.52056e+06
3.52348e+06
3.52723e+06
3.53094e+06
3.5301e+06
3.52856e+06
3.51718e+06
3.50987e+06
3.50552e+06
3.50254e+06
3.50035e+06
3.49876e+06
3.49748e+06
3.49649e+06
3.49566e+06
3.495e+06
3.49446e+06
3.49403e+06
3.49368e+06
3.4934e+06
3.49318e+06
3.49302e+06
3.49289e+06
3.4928e+06
3.49274e+06
3.49271e+06
3.4927e+06
3.4927e+06
3.49272e+06
3.49276e+06
3.4928e+06
3.49285e+06
3.4929e+06
3.49297e+06
3.49303e+06
3.4931e+06
3.52124e+06
3.51999e+06
3.52062e+06
3.5203e+06
3.52298e+06
3.52763e+06
3.5315e+06
3.53106e+06
3.52907e+06
3.51705e+06
3.50957e+06
3.5051e+06
3.5021e+06
3.49989e+06
3.4983e+06
3.49701e+06
3.49602e+06
3.4952e+06
3.49454e+06
3.49401e+06
3.49358e+06
3.49324e+06
3.49297e+06
3.49277e+06
3.49262e+06
3.49251e+06
3.49243e+06
3.49239e+06
3.49237e+06
3.49237e+06
3.49238e+06
3.49242e+06
3.49246e+06
3.49251e+06
3.49257e+06
3.49263e+06
3.4927e+06
3.49278e+06
3.49285e+06
3.51944e+06
3.51814e+06
3.51885e+06
3.51876e+06
3.52141e+06
3.52628e+06
3.5301e+06
3.52999e+06
3.52752e+06
3.5153e+06
3.50804e+06
3.50384e+06
3.50107e+06
3.499e+06
3.49752e+06
3.49631e+06
3.49537e+06
3.49459e+06
3.49397e+06
3.49347e+06
3.49307e+06
3.49275e+06
3.49251e+06
3.49232e+06
3.49219e+06
3.4921e+06
3.49205e+06
3.49202e+06
3.49201e+06
3.49203e+06
3.49206e+06
3.4921e+06
3.49216e+06
3.49222e+06
3.49229e+06
3.49237e+06
3.49244e+06
3.49252e+06
3.49261e+06
3.51594e+06
3.51395e+06
3.51521e+06
3.51488e+06
3.51807e+06
3.52289e+06
3.52638e+06
3.52664e+06
3.52362e+06
3.51172e+06
3.50518e+06
3.50169e+06
3.4994e+06
3.49765e+06
3.4964e+06
3.49535e+06
3.49453e+06
3.49384e+06
3.49329e+06
3.49284e+06
3.49248e+06
3.49221e+06
3.492e+06
3.49185e+06
3.49174e+06
3.49168e+06
3.49164e+06
3.49164e+06
3.49165e+06
3.49168e+06
3.49173e+06
3.49179e+06
3.49186e+06
3.49193e+06
3.49201e+06
3.4921e+06
3.49218e+06
3.49227e+06
3.49236e+06
3.51019e+06
3.50819e+06
3.5095e+06
3.50947e+06
3.51258e+06
3.51754e+06
3.52026e+06
3.52098e+06
3.51736e+06
3.50654e+06
3.50133e+06
3.49874e+06
3.49716e+06
3.49587e+06
3.49496e+06
3.49413e+06
3.49349e+06
3.49293e+06
3.49248e+06
3.49212e+06
3.49183e+06
3.49161e+06
3.49145e+06
3.49134e+06
3.49127e+06
3.49124e+06
3.49123e+06
3.49125e+06
3.49128e+06
3.49134e+06
3.4914e+06
3.49147e+06
3.49155e+06
3.49164e+06
3.49173e+06
3.49183e+06
3.49192e+06
3.49202e+06
3.49211e+06
3.50296e+06
3.50177e+06
3.502e+06
3.50368e+06
3.50543e+06
3.51051e+06
3.5121e+06
3.51325e+06
3.50917e+06
3.49999e+06
3.49642e+06
3.49507e+06
3.49439e+06
3.49368e+06
3.4932e+06
3.49268e+06
3.49226e+06
3.49188e+06
3.49157e+06
3.49131e+06
3.49111e+06
3.49096e+06
3.49086e+06
3.4908e+06
3.49078e+06
3.49078e+06
3.49081e+06
3.49085e+06
3.49091e+06
3.49098e+06
3.49106e+06
3.49115e+06
3.49125e+06
3.49135e+06
3.49145e+06
3.49156e+06
3.49166e+06
3.49177e+06
3.49187e+06
3.49466e+06
3.49578e+06
3.49352e+06
3.49812e+06
3.49735e+06
3.50212e+06
3.50262e+06
3.5039e+06
3.49963e+06
3.49233e+06
3.49075e+06
3.49083e+06
3.49117e+06
3.49114e+06
3.49116e+06
3.491e+06
3.49087e+06
3.49069e+06
3.49055e+06
3.49042e+06
3.49033e+06
3.49027e+06
3.49024e+06
3.49024e+06
3.49026e+06
3.49031e+06
3.49037e+06
3.49045e+06
3.49053e+06
3.49063e+06
3.49073e+06
3.49084e+06
3.49095e+06
3.49106e+06
3.49117e+06
3.49129e+06
3.4914e+06
3.49152e+06
3.49163e+06
3.4864e+06
3.49016e+06
3.48516e+06
3.49276e+06
3.48925e+06
3.49283e+06
3.49277e+06
3.49369e+06
3.48957e+06
3.48413e+06
3.48479e+06
3.48624e+06
3.48768e+06
3.48835e+06
3.48891e+06
3.48915e+06
3.48932e+06
3.48939e+06
3.48944e+06
3.48946e+06
3.48949e+06
3.48954e+06
3.48959e+06
3.48966e+06
3.48974e+06
3.48983e+06
3.48993e+06
3.49004e+06
3.49015e+06
3.49027e+06
3.49039e+06
3.49052e+06
3.49064e+06
3.49077e+06
3.4909e+06
3.49102e+06
3.49115e+06
3.49127e+06
3.49139e+06
3.47916e+06
3.4844e+06
3.47821e+06
3.48691e+06
3.48189e+06
3.48333e+06
3.48349e+06
3.48348e+06
3.47988e+06
3.47584e+06
3.47872e+06
3.48145e+06
3.484e+06
3.48538e+06
3.4865e+06
3.48716e+06
3.48767e+06
3.488e+06
3.48825e+06
3.48845e+06
3.48862e+06
3.48877e+06
3.48892e+06
3.48906e+06
3.4892e+06
3.48934e+06
3.48948e+06
3.48963e+06
3.48977e+06
3.48991e+06
3.49006e+06
3.4902e+06
3.49034e+06
3.49048e+06
3.49062e+06
3.49076e+06
3.49089e+06
3.49102e+06
3.49115e+06
3.47446e+06
3.47737e+06
3.47379e+06
3.47962e+06
3.4756e+06
3.47431e+06
3.47529e+06
3.47395e+06
3.47093e+06
3.46767e+06
3.47275e+06
3.4766e+06
3.48023e+06
3.48229e+06
3.48398e+06
3.48508e+06
3.48593e+06
3.48655e+06
3.48703e+06
3.48741e+06
3.48772e+06
3.48799e+06
3.48823e+06
3.48845e+06
3.48866e+06
3.48885e+06
3.48904e+06
3.48922e+06
3.48939e+06
3.48956e+06
3.48972e+06
3.48989e+06
3.49004e+06
3.4902e+06
3.49035e+06
3.49049e+06
3.49064e+06
3.49078e+06
3.49091e+06
3.47252e+06
3.46902e+06
3.472e+06
3.47123e+06
3.47048e+06
3.46633e+06
3.46829e+06
3.46549e+06
3.46291e+06
3.45975e+06
3.46681e+06
3.47173e+06
3.47641e+06
3.47915e+06
3.48142e+06
3.48296e+06
3.48417e+06
3.48507e+06
3.48579e+06
3.48635e+06
3.48682e+06
3.48721e+06
3.48755e+06
3.48785e+06
3.48812e+06
3.48837e+06
3.4886e+06
3.48881e+06
3.48901e+06
3.48921e+06
3.48939e+06
3.48957e+06
3.48975e+06
3.48991e+06
3.49008e+06
3.49023e+06
3.49039e+06
3.49053e+06
3.49067e+06
3.47271e+06
3.46089e+06
3.47199e+06
3.46309e+06
3.46654e+06
3.45976e+06
3.46254e+06
3.45849e+06
3.45599e+06
3.45234e+06
3.46107e+06
3.46697e+06
3.47265e+06
3.47604e+06
3.47888e+06
3.48086e+06
3.48243e+06
3.48362e+06
3.48456e+06
3.48532e+06
3.48593e+06
3.48645e+06
3.48688e+06
3.48726e+06
3.4876e+06
3.48789e+06
3.48817e+06
3.48841e+06
3.48865e+06
3.48887e+06
3.48907e+06
3.48927e+06
3.48946e+06
3.48964e+06
3.48981e+06
3.48998e+06
3.49014e+06
3.49029e+06
3.49044e+06
3.47352e+06
3.45433e+06
3.47288e+06
3.45671e+06
3.4638e+06
3.45496e+06
3.45816e+06
3.45341e+06
3.45038e+06
3.44557e+06
3.45566e+06
3.46245e+06
3.46903e+06
3.47307e+06
3.47645e+06
3.47885e+06
3.48077e+06
3.48223e+06
3.4834e+06
3.48433e+06
3.48509e+06
3.48572e+06
3.48625e+06
3.4867e+06
3.48709e+06
3.48744e+06
3.48775e+06
3.48803e+06
3.48829e+06
3.48853e+06
3.48876e+06
3.48897e+06
3.48917e+06
3.48936e+06
3.48955e+06
3.48972e+06
3.48989e+06
3.49006e+06
3.49021e+06
3.47468e+06
3.45045e+06
3.47353e+06
3.45307e+06
3.46209e+06
3.45224e+06
3.45532e+06
3.45058e+06
3.44655e+06
3.43967e+06
3.45027e+06
3.45825e+06
3.46564e+06
3.47034e+06
3.47421e+06
3.47702e+06
3.47925e+06
3.48097e+06
3.48233e+06
3.48343e+06
3.48431e+06
3.48504e+06
3.48565e+06
3.48617e+06
3.48662e+06
3.48701e+06
3.48735e+06
3.48766e+06
3.48795e+06
3.48821e+06
3.48845e+06
3.48868e+06
3.48889e+06
3.48909e+06
3.48929e+06
3.48947e+06
3.48965e+06
3.48982e+06
3.48998e+06
3.47482e+06
3.45057e+06
3.47325e+06
3.45265e+06
3.46109e+06
3.45171e+06
3.45405e+06
3.44987e+06
3.44463e+06
3.43525e+06
3.44553e+06
3.4547e+06
3.46268e+06
3.468e+06
3.47229e+06
3.47545e+06
3.47794e+06
3.47987e+06
3.48141e+06
3.47382e+06
3.45417e+06
3.47152e+06
3.45553e+06
3.46061e+06
3.45324e+06
3.45428e+06
3.45082e+06
3.44439e+06
3.43239e+06
3.44182e+06
3.45208e+06
3.4604e+06
3.46625e+06
3.47081e+06
3.47424e+06
3.47692e+06
3.43927e+06
3.4506e+06
3.49808e+06
3.49949e+06
3.49896e+06
3.49886e+06
3.49809e+06
3.49809e+06
3.49907e+06
3.49884e+06
3.49803e+06
3.49579e+06
3.4958e+06
3.49671e+06
3.49802e+06
3.49882e+06
3.4994e+06
3.49998e+06
3.50048e+06
3.50085e+06
3.50111e+06
3.50126e+06
3.50134e+06
3.50137e+06
3.50135e+06
3.50131e+06
3.50126e+06
3.50119e+06
3.50111e+06
3.50102e+06
3.50093e+06
3.50084e+06
3.50074e+06
3.50064e+06
3.50053e+06
3.50042e+06
3.50031e+06
3.50019e+06
3.50006e+06
3.49992e+06
3.49975e+06
3.50076e+06
3.50121e+06
3.50079e+06
3.50195e+06
3.50232e+06
3.50275e+06
3.50305e+06
3.50268e+06
3.50306e+06
3.50192e+06
3.50206e+06
3.50202e+06
3.50263e+06
3.50216e+06
3.5014e+06
3.50083e+06
3.50049e+06
3.50028e+06
3.50017e+06
3.50011e+06
3.5001e+06
3.50011e+06
3.50013e+06
3.50015e+06
3.50017e+06
3.50019e+06
3.5002e+06
3.50021e+06
3.5002e+06
3.50019e+06
3.50016e+06
3.50013e+06
3.50008e+06
3.50003e+06
3.49996e+06
3.49987e+06
3.49978e+06
3.49966e+06
3.4995e+06
3.5003e+06
3.49957e+06
3.50038e+06
3.50017e+06
3.50109e+06
3.5007e+06
3.502e+06
3.50097e+06
3.50136e+06
3.49951e+06
3.49981e+06
3.49986e+06
3.5009e+06
3.50092e+06
3.50081e+06
3.50066e+06
3.50062e+06
3.50056e+06
3.50051e+06
3.50046e+06
3.50041e+06
3.50036e+06
3.5003e+06
3.50025e+06
3.5002e+06
3.50015e+06
3.50011e+06
3.50006e+06
3.50001e+06
3.49996e+06
3.49991e+06
3.49986e+06
3.4998e+06
3.49974e+06
3.49967e+06
3.49959e+06
3.4995e+06
3.49941e+06
3.49928e+06
3.50252e+06
3.49933e+06
3.50205e+06
3.5005e+06
3.50247e+06
3.50141e+06
3.50309e+06
3.50195e+06
3.50276e+06
3.5013e+06
3.50196e+06
3.50173e+06
3.50249e+06
3.50208e+06
3.5016e+06
3.5011e+06
3.50077e+06
3.5005e+06
3.50031e+06
3.50018e+06
3.50008e+06
3.50001e+06
3.49996e+06
3.49991e+06
3.49988e+06
3.49984e+06
3.49981e+06
3.49977e+06
3.49973e+06
3.49969e+06
3.49964e+06
3.49959e+06
3.49953e+06
3.49947e+06
3.4994e+06
3.49933e+06
3.49925e+06
3.49916e+06
3.49906e+06
3.50311e+06
3.49751e+06
3.50277e+06
3.49934e+06
3.50251e+06
3.50062e+06
3.50271e+06
3.50114e+06
3.50189e+06
3.50014e+06
3.50102e+06
3.50079e+06
3.50166e+06
3.5014e+06
3.50119e+06
3.50086e+06
3.50065e+06
3.50044e+06
3.50027e+06
3.50012e+06
3.5e+06
3.4999e+06
3.49982e+06
3.49974e+06
3.49968e+06
3.49962e+06
3.49957e+06
3.49952e+06
3.49947e+06
3.49942e+06
3.49937e+06
3.49932e+06
3.49926e+06
3.49921e+06
3.49914e+06
3.49907e+06
3.499e+06
3.49892e+06
3.49883e+06
3.50505e+06
3.4962e+06
3.50418e+06
3.49889e+06
3.50314e+06
3.50057e+06
3.5028e+06
3.50128e+06
3.50206e+06
3.50052e+06
3.50162e+06
3.5013e+06
3.50204e+06
3.50164e+06
3.50135e+06
3.50092e+06
3.50063e+06
3.50035e+06
3.50013e+06
3.49995e+06
3.4998e+06
3.49968e+06
3.49959e+06
3.49951e+06
3.49944e+06
3.49937e+06
3.49932e+06
3.49926e+06
3.49921e+06
3.49916e+06
3.49911e+06
3.49905e+06
3.499e+06
3.49894e+06
3.49888e+06
3.49882e+06
3.49875e+06
3.49869e+06
3.49861e+06
3.50608e+06
3.49503e+06
3.50501e+06
3.49822e+06
3.50319e+06
3.5002e+06
3.50225e+06
3.50086e+06
3.50135e+06
3.49981e+06
3.50098e+06
3.50071e+06
3.50146e+06
3.50114e+06
3.50097e+06
3.50063e+06
3.50041e+06
3.50016e+06
3.49996e+06
3.49977e+06
3.49962e+06
3.49949e+06
3.49938e+06
3.49929e+06
3.49921e+06
3.49913e+06
3.49907e+06
3.49901e+06
3.49895e+06
3.4989e+06
3.49884e+06
3.49879e+06
3.49874e+06
3.49868e+06
3.49863e+06
3.49857e+06
3.49851e+06
3.49845e+06
3.49838e+06
3.50673e+06
3.49455e+06
3.50534e+06
3.49802e+06
3.50304e+06
3.50007e+06
3.50154e+06
3.50067e+06
3.50077e+06
3.49956e+06
3.50077e+06
3.50059e+06
3.50127e+06
3.50095e+06
3.50079e+06
3.50046e+06
3.50023e+06
3.49997e+06
3.49976e+06
3.49957e+06
3.49941e+06
3.49927e+06
3.49915e+06
3.49905e+06
3.49896e+06
3.49889e+06
3.49882e+06
3.49875e+06
3.49869e+06
3.49864e+06
3.49858e+06
3.49853e+06
3.49848e+06
3.49842e+06
3.49837e+06
3.49832e+06
3.49826e+06
3.49821e+06
3.49816e+06
3.50564e+06
3.49499e+06
3.50467e+06
3.49801e+06
3.50224e+06
3.49983e+06
3.50035e+06
3.50015e+06
3.49965e+06
3.49881e+06
3.49998e+06
3.49999e+06
3.50066e+06
3.50045e+06
3.50037e+06
3.50011e+06
3.49993e+06
3.49971e+06
3.49952e+06
3.49934e+06
3.49918e+06
3.49904e+06
3.49892e+06
3.49881e+06
3.49872e+06
3.49864e+06
3.49856e+06
3.4985e+06
3.49843e+06
3.49838e+06
3.49832e+06
3.49827e+06
3.49821e+06
3.49816e+06
3.49812e+06
3.49807e+06
3.49802e+06
3.49797e+06
3.49793e+06
3.50348e+06
3.49616e+06
3.5029e+06
3.49831e+06
3.50088e+06
3.49956e+06
3.49887e+06
3.4995e+06
3.49837e+06
3.49809e+06
3.49924e+06
3.49951e+06
3.50015e+06
3.50004e+06
3.5e+06
3.4998e+06
3.49964e+06
3.49944e+06
3.49927e+06
3.49909e+06
3.49894e+06
3.4988e+06
3.49868e+06
3.49857e+06
3.49847e+06
3.49839e+06
3.49831e+06
3.49824e+06
3.49817e+06
3.49811e+06
3.49806e+06
3.49801e+06
3.49795e+06
3.49791e+06
3.49786e+06
3.49782e+06
3.49777e+06
3.49774e+06
3.4977e+06
3.49994e+06
3.49817e+06
3.50016e+06
3.49873e+06
3.49895e+06
3.49908e+06
3.49714e+06
3.49853e+06
3.4968e+06
3.4971e+06
3.49823e+06
3.49881e+06
3.49946e+06
3.4995e+06
3.49953e+06
3.49941e+06
3.4993e+06
3.49914e+06
3.49898e+06
3.49883e+06
3.49868e+06
3.49855e+06
3.49843e+06
3.49832e+06
3.49822e+06
3.49813e+06
3.49805e+06
3.49798e+06
3.49791e+06
3.49785e+06
3.4978e+06
3.49774e+06
3.49769e+06
3.49765e+06
3.49761e+06
3.49757e+06
3.49753e+06
3.4975e+06
3.49747e+06
3.49582e+06
3.50038e+06
3.49688e+06
3.49911e+06
3.49677e+06
3.49838e+06
3.4954e+06
3.49734e+06
3.49518e+06
3.49605e+06
3.49723e+06
3.49813e+06
3.49881e+06
3.49899e+06
3.49908e+06
3.49904e+06
3.49896e+06
3.49883e+06
3.4987e+06
3.49856e+06
3.49842e+06
3.49829e+06
3.49817e+06
3.49806e+06
3.49796e+06
3.49787e+06
3.49779e+06
3.49772e+06
3.49765e+06
3.49759e+06
3.49753e+06
3.49748e+06
3.49743e+06
3.49739e+06
3.49735e+06
3.49732e+06
3.49728e+06
3.49726e+06
3.49723e+06
3.49158e+06
3.50237e+06
3.49363e+06
3.49929e+06
3.49466e+06
3.49745e+06
3.49385e+06
3.49598e+06
3.49362e+06
3.49493e+06
3.4962e+06
3.49739e+06
3.49812e+06
3.49845e+06
3.49861e+06
3.49864e+06
3.49861e+06
3.49852e+06
3.4984e+06
3.49828e+06
3.49815e+06
3.49803e+06
3.49791e+06
3.4978e+06
3.4977e+06
3.49761e+06
3.49753e+06
3.49745e+06
3.49739e+06
3.49732e+06
3.49727e+06
3.49722e+06
3.49717e+06
3.49713e+06
3.4971e+06
3.49707e+06
3.49704e+06
3.49702e+06
3.497e+06
3.48838e+06
3.50343e+06
3.49103e+06
3.49914e+06
3.49302e+06
3.49642e+06
3.49274e+06
3.49466e+06
3.49235e+06
3.49387e+06
3.4953e+06
3.49671e+06
3.49751e+06
3.49796e+06
3.49818e+06
3.49827e+06
3.49827e+06
3.49821e+06
3.49811e+06
3.498e+06
3.49788e+06
3.49776e+06
3.49765e+06
3.49754e+06
3.49744e+06
3.49735e+06
3.49727e+06
3.49719e+06
3.49712e+06
3.49706e+06
3.497e+06
3.49695e+06
3.49691e+06
3.49687e+06
3.49684e+06
3.49681e+06
3.49679e+06
3.49677e+06
3.49676e+06
3.48696e+06
3.50318e+06
3.48975e+06
3.49852e+06
3.49215e+06
3.49545e+06
3.49222e+06
3.49358e+06
3.49156e+06
3.49301e+06
3.49459e+06
3.49612e+06
3.49698e+06
3.49751e+06
3.49778e+06
3.49792e+06
3.49795e+06
3.49791e+06
3.49783e+06
3.49773e+06
3.49761e+06
3.4975e+06
3.49738e+06
3.49728e+06
3.49718e+06
3.49708e+06
3.497e+06
3.49692e+06
3.49685e+06
3.49679e+06
3.49674e+06
3.49669e+06
3.49665e+06
3.49661e+06
3.49659e+06
3.49656e+06
3.49654e+06
3.49653e+06
3.49652e+06
3.48757e+06
3.50203e+06
3.49e+06
3.49778e+06
3.49222e+06
3.49486e+06
3.49242e+06
3.49305e+06
3.49143e+06
3.49251e+06
3.49415e+06
3.49569e+06
3.49659e+06
3.49716e+06
3.49746e+06
3.49763e+06
3.49767e+06
3.49764e+06
3.49757e+06
3.49747e+06
3.49735e+06
3.49724e+06
3.49712e+06
3.49701e+06
3.49691e+06
3.49682e+06
3.49673e+06
3.49665e+06
3.49658e+06
3.49652e+06
3.49647e+06
3.49642e+06
3.49639e+06
3.49635e+06
3.49633e+06
3.49631e+06
3.49629e+06
3.49629e+06
3.49628e+06
3.48967e+06
3.50076e+06
3.49162e+06
3.49743e+06
3.49334e+06
3.49491e+06
3.49343e+06
3.49327e+06
3.49202e+06
3.4924e+06
3.49405e+06
3.49546e+06
3.49636e+06
3.49691e+06
3.49722e+06
3.49738e+06
3.49742e+06
3.4974e+06
3.49732e+06
3.49722e+06
3.4971e+06
3.49698e+06
3.49686e+06
3.49675e+06
3.49664e+06
3.49655e+06
3.49646e+06
3.49638e+06
3.49631e+06
3.49625e+06
3.4962e+06
3.49616e+06
3.49612e+06
3.49609e+06
3.49607e+06
3.49605e+06
3.49604e+06
3.49604e+06
3.49604e+06
3.49316e+06
3.50005e+06
3.49443e+06
3.49781e+06
3.49548e+06
3.49579e+06
3.49523e+06
3.49441e+06
3.49337e+06
3.4928e+06
3.49434e+06
3.49548e+06
3.49632e+06
3.49679e+06
3.49707e+06
3.49721e+06
3.49723e+06
3.49719e+06
3.4971e+06
3.49698e+06
3.49686e+06
3.49673e+06
3.49661e+06
3.49649e+06
3.49638e+06
3.49628e+06
3.49619e+06
3.49611e+06
3.49604e+06
3.49598e+06
3.49593e+06
3.49589e+06
3.49585e+06
3.49583e+06
3.49581e+06
3.4958e+06
3.49579e+06
3.4958e+06
3.4958e+06
3.49747e+06
3.50036e+06
3.49819e+06
3.49913e+06
3.49852e+06
3.49755e+06
3.49773e+06
3.49641e+06
3.49548e+06
3.49375e+06
3.49491e+06
3.49574e+06
3.49646e+06
3.49681e+06
3.49703e+06
3.49711e+06
3.49709e+06
3.49702e+06
3.4969e+06
3.49677e+06
3.49663e+06
3.49649e+06
3.49635e+06
3.49622e+06
3.49611e+06
3.496e+06
3.49591e+06
3.49583e+06
3.49576e+06
3.4957e+06
3.49565e+06
3.49561e+06
3.49558e+06
3.49556e+06
3.49555e+06
3.49554e+06
3.49554e+06
3.49555e+06
3.49556e+06
3.50234e+06
3.50183e+06
3.5025e+06
3.50143e+06
3.5022e+06
3.50013e+06
3.50079e+06
3.49916e+06
3.49823e+06
3.49523e+06
3.49581e+06
3.49628e+06
3.49678e+06
3.49697e+06
3.49709e+06
3.49708e+06
3.49701e+06
3.49688e+06
3.49673e+06
3.49657e+06
3.4964e+06
3.49625e+06
3.4961e+06
3.49596e+06
3.49584e+06
3.49573e+06
3.49563e+06
3.49555e+06
3.49548e+06
3.49542e+06
3.49537e+06
3.49534e+06
3.49531e+06
3.49529e+06