/*--------------------------------*- C++ -*----------------------------------*\
| =========                 |                                                 |
| \\      /  F ield         | OpenFOAM: The Open Source CFD Toolbox           |
|  \\    /   O peration     | Version:  v2012                                 |
|   \\  /    A nd           | Website:  www.openfoam.com                      |
|    \\/     M anipulation  |                                                 |
\*---------------------------------------------------------------------------*/
FoamFile
{
    version     2.0;
    format      ascii;
    class       surfaceScalarField;
    location    "0.3";
    object      phi;
}
// * * * * * * * * * * * * * * * * * * * * * * * * * * * * * * * * * * * * * //

dimensions      [0 3 -1 0 0 0 0];
oriented        oriented;


internalField   nonuniform List<scalar> 
8212
(
4.7253e-12
-6.89621e-09
9.34449e-16
-5.51732e-13
-2.11143e-08
8.00885e-16
-5.82297e-11
-3.47582e-08
-8.03931e-15
1.79356e-11
-4.91774e-08
-7.45067e-15
3.05551e-10
-6.38131e-08
-1.73328e-14
1.00371e-09
-7.9769e-08
-9.69032e-15
1.38482e-09
-7.49269e-08
-1.06529e-14
1.51361e-09
-7.57838e-08
-1.21602e-15
1.62771e-09
-8.66319e-08
7.62804e-16
1.74053e-09
-9.59573e-08
1.0626e-15
1.8353e-09
-1.01837e-07
7.57774e-16
1.91128e-09
-1.04278e-07
3.87313e-16
1.97626e-09
-1.05288e-07
-1.39028e-16
2.02306e-09
-1.07175e-07
-2.60223e-16
2.04169e-09
-1.1075e-07
-5.67409e-16
2.03109e-09
-1.15655e-07
-7.34376e-16
1.99434e-09
-1.21311e-07
-8.99662e-16
1.93303e-09
-1.272e-07
-1.00415e-15
1.84791e-09
-1.32932e-07
-1.13911e-15
1.73935e-09
-1.38234e-07
-1.17946e-15
1.6077e-09
-1.4294e-07
-1.16729e-15
1.45324e-09
-1.46954e-07
-1.17479e-15
1.27635e-09
-1.50188e-07
-1.17944e-15
1.07748e-09
-1.52612e-07
-1.19494e-15
8.57297e-10
-1.54159e-07
-1.17835e-15
6.16778e-10
-1.54788e-07
-1.17117e-15
3.57333e-10
-1.54441e-07
-1.16342e-15
8.09967e-11
-1.53037e-07
-1.15218e-15
-2.09499e-10
-1.50531e-07
-1.13917e-15
-5.10436e-10
-1.46818e-07
-1.20301e-15
-8.17005e-10
-1.41833e-07
-1.07302e-15
-1.12306e-09
-1.35494e-07
-9.76427e-16
-1.42084e-09
-1.27716e-07
-9.30141e-16
-1.70061e-09
-1.18423e-07
-8.79186e-16
-1.95011e-09
-1.07545e-07
-8.23165e-16
-2.15381e-09
-9.5022e-08
-7.61698e-16
-2.29121e-09
-8.08016e-08
-6.93828e-16
-2.33491e-09
-6.48563e-08
-6.18007e-16
-4.71768e-08
-5.3231e-16
8.42275e-12
-6.90462e-09
1.13074e-15
-3.07889e-12
-2.11028e-08
-2.5256e-15
-6.27825e-11
-3.46985e-08
-1.0131e-14
3.51667e-11
-4.92753e-08
-6.53324e-15
3.54361e-10
-6.41323e-08
-1.56188e-14
1.24006e-09
-8.06547e-08
-6.26832e-15
1.53918e-09
-7.52261e-08
-8.39579e-15
1.65966e-09
-7.59043e-08
-5.96125e-16
1.83105e-09
-8.68033e-08
6.146e-16
1.97675e-09
-9.6103e-08
8.3168e-16
2.06718e-09
-1.01927e-07
6.17872e-16
2.12825e-09
-1.04339e-07
3.7902e-16
2.19042e-09
-1.05351e-07
-9.22935e-17
2.23827e-09
-1.07222e-07
-4.63933e-16
2.24687e-09
-1.10759e-07
-6.71282e-16
2.21433e-09
-1.15623e-07
-9.53338e-16
2.14907e-09
-1.21246e-07
-9.69238e-16
2.05778e-09
-1.27109e-07
-1.26663e-15
1.94439e-09
-1.32818e-07
-1.20788e-15
1.81095e-09
-1.38101e-07
-9.79275e-16
1.65829e-09
-1.42787e-07
-9.7064e-16
1.48653e-09
-1.46783e-07
-1.05983e-15
1.29551e-09
-1.49997e-07
-1.12266e-15
1.08506e-09
-1.52401e-07
-1.16871e-15
8.55263e-10
-1.53929e-07
-1.16863e-15
6.06561e-10
-1.5454e-07
-1.18256e-15
3.39965e-10
-1.54175e-07
-1.17854e-15
5.72057e-11
-1.52754e-07
-1.1697e-15
-2.39211e-10
-1.50235e-07
-1.15425e-15
-5.45739e-10
-1.46511e-07
-1.12279e-15
-8.57712e-10
-1.41521e-07
-9.89276e-16
-1.16913e-09
-1.35183e-07
-9.87114e-16
-1.47239e-09
-1.27412e-07
-9.42951e-16
-1.75804e-09
-1.18137e-07
-8.90397e-16
-2.01426e-09
-1.07288e-07
-8.33101e-16
-2.22636e-09
-9.48099e-08
-7.69815e-16
-2.37563e-09
-8.06523e-08
-7.00003e-16
-2.43864e-09
-6.47933e-08
-6.21783e-16
-4.72321e-08
-5.33758e-16
7.80828e-12
-6.91242e-09
1.53368e-15
2.36494e-14
-2.1095e-08
-1.01829e-15
3.97203e-11
-3.47382e-08
-1.60089e-14
1.60843e-10
-4.93964e-08
-2.50773e-15
4.46034e-10
-6.44175e-08
-1.30655e-14
1.2868e-09
-8.14955e-08
-3.01114e-15
1.62206e-09
-7.55613e-08
-4.20279e-15
1.82668e-09
-7.61089e-08
1.24299e-16
2.02352e-09
-8.70001e-08
5.65166e-16
2.14883e-09
-9.62283e-08
5.83272e-16
2.19544e-09
-1.01974e-07
4.29404e-16
2.22522e-09
-1.04369e-07
1.12395e-16
2.28662e-09
-1.05412e-07
-2.56649e-16
2.35359e-09
-1.07289e-07
-4.04484e-16
2.38211e-09
-1.10787e-07
-6.16375e-16
2.36018e-09
-1.15601e-07
-8.23406e-16
2.29395e-09
-1.2118e-07
-8.13273e-16
2.19267e-09
-1.27008e-07
-1.13432e-15
2.06379e-09
-1.32689e-07
-1.02436e-15
1.91233e-09
-1.37949e-07
-1.05984e-15
1.74107e-09
-1.42616e-07
-1.10775e-15
1.55126e-09
-1.46593e-07
-1.17802e-15
1.34328e-09
-1.49789e-07
-1.20488e-15
1.11708e-09
-1.52175e-07
-1.22907e-15
8.72654e-10
-1.53684e-07
-1.20756e-15
6.10267e-10
-1.54277e-07
-1.20507e-15
3.30715e-10
-1.53895e-07
-1.19272e-15
3.55246e-11
-1.52459e-07
-1.18029e-15
-2.72983e-10
-1.49926e-07
-1.16432e-15
-5.91427e-10
-1.46193e-07
-1.16421e-15
-9.15306e-10
-1.41197e-07
-1.02492e-15
-1.23881e-09
-1.34859e-07
-9.93239e-16
-1.55462e-09
-1.27097e-07
-9.47722e-16
-1.8537e-09
-1.17838e-07
-8.94676e-16
-2.12502e-09
-1.07017e-07
-8.37361e-16
-2.35526e-09
-9.45796e-08
-7.73923e-16
-2.52852e-09
-8.0479e-08
-7.04484e-16
-2.62707e-09
-6.46948e-08
-6.26918e-16
-4.72271e-08
-5.41082e-16
8.94016e-12
-6.92136e-09
1.11316e-15
1.78743e-12
-2.10879e-08
-4.61817e-16
1.17891e-10
-3.48544e-08
-8.03382e-15
2.28551e-10
-4.9507e-08
-7.06882e-15
5.22073e-10
-6.4711e-08
-1.33825e-14
1.40073e-09
-8.23742e-08
-1.75604e-15
1.6724e-09
-7.5833e-08
-4.58929e-15
1.88313e-09
-7.63197e-08
-4.99537e-16
2.10675e-09
-8.72237e-08
3.08853e-16
2.24472e-09
-9.63663e-08
5.75752e-16
2.29375e-09
-1.02023e-07
3.7394e-16
2.32661e-09
-1.04402e-07
5.64288e-17
2.4006e-09
-1.05486e-07
-2.95273e-16
2.48725e-09
-1.07376e-07
-4.42186e-16
2.53422e-09
-1.10834e-07
-6.63517e-16
2.52219e-09
-1.15589e-07
-8.16279e-16
2.4548e-09
-1.21112e-07
-8.17325e-16
2.34283e-09
-1.26896e-07
-1.09959e-15
2.19688e-09
-1.32544e-07
-1.01491e-15
2.02502e-09
-1.37777e-07
-1.08355e-15
1.83233e-09
-1.42423e-07
-1.13028e-15
1.62142e-09
-1.46382e-07
-1.1967e-15
1.39335e-09
-1.49561e-07
-1.22003e-15
1.14825e-09
-1.5193e-07
-1.24503e-15
8.8604e-10
-1.53422e-07
-1.22291e-15
6.06765e-10
-1.53998e-07
-1.22348e-15
3.10965e-10
-1.53599e-07
-1.21015e-15
-7.9034e-14
-1.52148e-07
-1.19763e-15
-3.24269e-10
-1.49602e-07
-1.18056e-15
-6.58424e-10
-1.45859e-07
-1.17995e-15
-9.98245e-10
-1.40858e-07
-1.03403e-15
-1.33817e-09
-1.34519e-07
-1.00326e-15
-1.6712e-09
-1.26763e-07
-9.56522e-16
-1.98885e-09
-1.17521e-07
-9.0235e-16
-2.281e-09
-1.06725e-07
-8.44378e-16
-2.53594e-09
-9.43247e-08
-7.80425e-16
-2.74069e-09
-8.02743e-08
-7.11054e-16
-2.88268e-09
-6.45528e-08
-6.34164e-16
-4.7157e-08
-5.50689e-16
1.01758e-11
-6.93152e-09
1.94092e-15
4.8029e-12
-2.10825e-08
-1.8932e-15
2.2494e-10
-3.50745e-08
-7.07158e-15
3.03955e-10
-4.9586e-08
-9.4967e-15
6.04332e-10
-6.50114e-08
-1.36068e-14
1.49443e-09
-8.32643e-08
5.45483e-16
1.74244e-09
-7.6081e-08
-4.50425e-15
1.94951e-09
-7.65267e-08
-2.91847e-16
2.17226e-09
-8.74465e-08
2.03436e-16
2.31141e-09
-9.65054e-08
4.39795e-16
2.36251e-09
-1.02074e-07
2.6158e-16
2.39935e-09
-1.04439e-07
-7.54812e-17
2.47949e-09
-1.05566e-07
-3.93069e-16
2.5766e-09
-1.07473e-07
-6.34229e-16
2.63766e-09
-1.10895e-07
-8.32843e-16
2.6383e-09
-1.15589e-07
-9.67334e-16
2.57764e-09
-1.21052e-07
-9.55739e-16
2.46489e-09
-1.26783e-07
-1.17681e-15
2.31127e-09
-1.3239e-07
-1.1452e-15
2.1265e-09
-1.37593e-07
-1.17185e-15
1.91745e-09
-1.42214e-07
-1.19431e-15
1.68822e-09
-1.46153e-07
-1.25078e-15
1.44094e-09
-1.49314e-07
-1.26657e-15
1.17636e-09
-1.51665e-07
-1.28506e-15
8.947e-10
-1.53141e-07
-1.25483e-15
5.9612e-10
-1.53699e-07
-1.24964e-15
2.81123e-10
-1.53284e-07
-1.23168e-15
-4.91062e-11
-1.51818e-07
-1.21656e-15
-3.92598e-10
-1.49259e-07
-1.19808e-15
-7.46315e-10
-1.45505e-07
-1.19715e-15
-1.10613e-09
-1.40498e-07
-1.04603e-15
-1.4667e-09
-1.34159e-07
-1.01441e-15
-1.8214e-09
-1.26409e-07
-9.66749e-16
-2.16228e-09
-1.1718e-07
-9.11489e-16
-2.48015e-09
-1.06407e-07
-8.5293e-16
-2.76485e-09
-9.404e-08
-7.88482e-16
-3.00593e-09
-8.00332e-08
-7.19246e-16
-3.19472e-09
-6.4364e-08
-6.43119e-16
-4.70239e-08
-5.61943e-16
1.08242e-11
-6.94234e-09
1.66683e-15
1.00433e-11
-2.10818e-08
-5.48888e-16
3.30287e-10
-3.53948e-08
-2.42697e-15
3.47358e-10
-4.96031e-08
-1.0901e-14
6.72862e-10
-6.53369e-08
-1.30671e-14
1.5667e-09
-8.41581e-08
-1.3e-15
1.77638e-09
-7.62907e-08
-1.69103e-15
1.97255e-09
-7.67229e-08
-7.55753e-16
2.20115e-09
-8.76751e-08
1.72645e-17
2.35261e-09
-9.66569e-08
1.1944e-16
2.41989e-09
-1.02142e-07
1.06717e-17
2.47091e-09
-1.0449e-07
-3.07328e-16
2.55922e-09
-1.05654e-07
-5.23605e-16
2.6619e-09
-1.07576e-07
-8.14721e-16
2.7291e-09
-1.10962e-07
-9.40688e-16
2.7354e-09
-1.15596e-07
-1.09057e-15
2.67737e-09
-1.20994e-07
-1.05757e-15
2.56268e-09
-1.26668e-07
-1.21414e-15
2.40233e-09
-1.3223e-07
-1.19973e-15
2.20668e-09
-1.37397e-07
-1.3029e-15
1.98357e-09
-1.41991e-07
-1.31103e-15
1.73806e-09
-1.45907e-07
-1.33298e-15
1.473e-09
-1.49049e-07
-1.3239e-15
1.18968e-09
-1.51382e-07
-1.32727e-15
8.886e-10
-1.5284e-07
-1.28709e-15
5.70043e-10
-1.53381e-07
-1.27759e-15
2.34556e-10
-1.52949e-07
-1.25584e-15
-1.16695e-10
-1.51466e-07
-1.23892e-15
-4.81793e-10
-1.48893e-07
-1.21866e-15
-8.57773e-10
-1.45129e-07
-1.21632e-15
-1.24062e-09
-1.40115e-07
-1.05962e-15
-1.62517e-09
-1.33774e-07
-1.02719e-15
-2.00508e-09
-1.26029e-07
-9.78254e-16
-2.37289e-09
-1.16812e-07
-9.2184e-16
-2.72024e-09
-1.0606e-07
-8.6256e-16
-3.03823e-09
-9.3722e-08
-7.97671e-16
-3.31838e-09
-7.9753e-08
-7.28617e-16
-3.5545e-09
-6.41279e-08
-6.53394e-16
-4.68328e-08
-5.74482e-16
1.14554e-11
-6.95379e-09
1.37564e-15
1.86907e-11
-2.1089e-08
-1.64825e-15
4.21729e-10
-3.57978e-08
-9.89884e-16
3.50057e-10
-4.95314e-08
-1.33739e-14
7.21186e-10
-6.5708e-08
-1.00427e-14
1.61785e-09
-8.50548e-08
1.33431e-15
1.82836e-09
-7.65012e-08
-1.63118e-15
2.00811e-09
-7.69027e-08
-8.691e-16
2.23006e-09
-8.7897e-08
-4.24273e-16
2.38482e-09
-9.68117e-08
-3.71575e-16
2.46196e-09
-1.02219e-07
-4.18939e-16
2.5226e-09
-1.0455e-07
-6.4809e-16
2.61453e-09
-1.05746e-07
-7.94858e-16
2.71734e-09
-1.07679e-07
-1.0701e-15
2.78548e-09
-1.1103e-07
-1.14092e-15
2.79408e-09
-1.15604e-07
-1.31459e-15
2.73796e-09
-1.20937e-07
-1.24435e-15
2.62302e-09
-1.26553e-07
-1.37037e-15
2.45919e-09
-1.32066e-07
-1.348e-15
2.25652e-09
-1.37194e-07
-1.3756e-15
2.02308e-09
-1.41757e-07
-1.36506e-15
1.76442e-09
-1.45648e-07
-1.38252e-15
1.48392e-09
-1.48768e-07
-1.37083e-15
1.1833e-09
-1.51081e-07
-1.36957e-15
8.63405e-10
-1.5252e-07
-1.3236e-15
5.24744e-10
-1.53042e-07
-1.30911e-15
1.67995e-10
-1.52592e-07
-1.28296e-15
-2.05598e-10
-1.51093e-07
-1.26295e-15
-5.9408e-10
-1.48505e-07
-1.24065e-15
-9.94481e-10
-1.44729e-07
-1.23653e-15
-1.40282e-09
-1.39707e-07
-1.07414e-15
-1.81403e-09
-1.33363e-07
-1.0407e-15
-2.222e-09
-1.25621e-07
-9.90615e-16
-2.61963e-09
-1.16414e-07
-9.33034e-16
-2.99918e-09
-1.0568e-07
-8.7308e-16
-3.35272e-09
-9.33685e-08
-8.07754e-16
-3.67305e-09
-7.94327e-08
-7.38925e-16
-3.95531e-09
-6.38456e-08
-6.64614e-16
-4.6589e-08
-5.87833e-16
1.17918e-11
-6.96558e-09
1.8948e-15
3.11065e-11
-2.11083e-08
-1.27576e-15
4.80266e-10
-3.6247e-08
-1.58086e-15
3.03202e-10
-4.93543e-08
-1.40196e-14
7.38034e-10
-6.61428e-08
-5.05195e-15
1.6323e-09
-8.5949e-08
2.79347e-16
1.86503e-09
-7.67339e-08
-3.11589e-15
2.03164e-09
-7.70693e-08
-2.1599e-15
2.249e-09
-8.81144e-08
-1.2201e-15
2.4067e-09
-9.69694e-08
-1.07121e-15
2.49247e-09
-1.02304e-07
-1.10561e-15
2.56084e-09
-1.04619e-07
-1.22757e-15
2.65396e-09
-1.0584e-07
-1.22827e-15
2.75335e-09
-1.07778e-07
-1.39578e-15
2.81794e-09
-1.11095e-07
-1.37979e-15
2.82438e-09
-1.15611e-07
-1.52533e-15
2.76685e-09
-1.2088e-07
-1.41617e-15
2.64999e-09
-1.26436e-07
-1.51433e-15
2.48264e-09
-1.31898e-07
-1.46151e-15
2.27417e-09
-1.36986e-07
-1.46618e-15
2.03235e-09
-1.41516e-07
-1.43954e-15
1.7627e-09
-1.45379e-07
-1.44358e-15
1.46874e-09
-1.48475e-07
-1.42169e-15
1.1524e-09
-1.50765e-07
-1.4125e-15
8.14704e-10
-1.52182e-07
-1.35955e-15
4.56343e-10
-1.52684e-07
-1.34083e-15
7.81426e-11
-1.52214e-07
-1.31079e-15
-3.18523e-10
-1.50696e-07
-1.28847e-15
-7.31594e-10
-1.48092e-07
-1.26417e-15
-1.15801e-09
-1.44302e-07
-1.25869e-15
-1.59373e-09
-1.39271e-07
-1.08972e-15
-2.03372e-09
-1.32923e-07
-1.05506e-15
-2.47193e-09
-1.25183e-07
-1.00364e-15
-2.90152e-09
-1.15985e-07
-9.44948e-16
-3.31514e-09
-1.05267e-07
-8.8427e-16
-3.70547e-09
-9.29781e-08
-8.18561e-16
-4.06601e-09
-7.90721e-08
-7.49943e-16
-4.39228e-09
-6.35193e-08
-6.76523e-16
-4.62981e-08
-6.01656e-16
1.20408e-11
-6.97762e-09
1.20459e-15
4.57029e-11
-2.1142e-08
-2.05269e-15
4.90179e-10
-3.66915e-08
-1.5089e-15
2.08459e-10
-4.90726e-08
-1.71191e-14
7.16776e-10
-6.66511e-08
-2.93631e-15
1.61172e-09
-8.6844e-08
-1.99941e-15
1.90272e-09
-7.70249e-08
2.77875e-17
2.05972e-09
-7.72263e-08
-2.53874e-15
2.26844e-09
-8.83231e-08
-2.14577e-15
2.42264e-09
-9.71236e-08
-2.04841e-15
2.50988e-09
-1.02392e-07
-1.93937e-15
2.57924e-09
-1.04688e-07
-1.95701e-15
2.66827e-09
-1.05929e-07
-1.78915e-15
2.76014e-09
-1.0787e-07
-1.7843e-15
2.81788e-09
-1.11153e-07
-1.67024e-15
2.81973e-09
-1.15612e-07
-1.75929e-15
2.75944e-09
-1.2082e-07
-1.58501e-15
2.6405e-09
-1.26317e-07
-1.65874e-15
2.47049e-09
-1.31728e-07
-1.56496e-15
2.25781e-09
-1.36773e-07
-1.56317e-15
2.00957e-09
-1.41267e-07
-1.53079e-15
1.73096e-09
-1.451e-07
-1.52249e-15
1.42538e-09
-1.48169e-07
-1.48751e-15
1.09477e-09
-1.50434e-07
-1.46687e-15
7.40256e-10
-1.51827e-07
-1.40428e-15
3.62668e-10
-1.52306e-07
-1.37803e-15
-3.70164e-11
-1.51814e-07
-1.34226e-15
-4.57256e-10
-1.50276e-07
-1.31588e-15
-8.95825e-10
-1.47653e-07
-1.28907e-15
-1.3495e-09
-1.43849e-07
-1.28205e-15
-1.8141e-09
-1.38806e-07
-1.10604e-15
-2.2845e-09
-1.32453e-07
-1.06974e-15
-2.75462e-09
-1.24713e-07
-1.01706e-15
-3.21769e-09
-1.15522e-07
-9.57267e-16
-3.66657e-09
-1.04818e-07
-8.95941e-16
-4.09417e-09
-9.25505e-08
-8.29887e-16
-4.49421e-09
-7.86721e-08
-7.61496e-16
-4.86202e-09
-6.31515e-08
-6.88898e-16
-4.5965e-08
-6.15706e-16
1.22463e-11
-6.98986e-09
1.77759e-15
6.0914e-11
-2.11906e-08
-1.38871e-15
4.47001e-10
-3.70776e-08
-3.31658e-15
8.2297e-11
-4.87079e-08
-1.74201e-14
6.57444e-10
-6.72262e-08
1.40986e-15
1.55394e-09
-8.77404e-08
3.59342e-15
1.92258e-09
-7.73935e-08
-9.95971e-15
2.07707e-09
-7.73808e-08
-3.90113e-15
2.27861e-09
-8.85246e-08
-3.20133e-15
2.42683e-09
-9.72718e-08
-3.23578e-15
2.51147e-09
-1.02476e-07
-3.08339e-15
2.57739e-09
-1.04754e-07
-2.84357e-15
2.65878e-09
-1.0601e-07
-2.49003e-15
2.74034e-09
-1.07951e-07
-2.24515e-15
2.78889e-09
-1.11201e-07
-2.02468e-15
2.78415e-09
-1.15608e-07
-2.01053e-15
2.71967e-09
-1.20755e-07
-1.76721e-15
2.59789e-09
-1.26196e-07
-1.81138e-15
2.42523e-09
-1.31556e-07
-1.68847e-15
2.20899e-09
-1.36557e-07
-1.63604e-15
1.95543e-09
-1.41014e-07
-1.585e-15
1.66917e-09
-1.44814e-07
-1.5705e-15
1.35325e-09
-1.47853e-07
-1.5309e-15
1.00946e-09
-1.50091e-07
-1.5063e-15
6.38903e-10
-1.51457e-07
-1.43915e-15
2.42463e-10
-1.5191e-07
-1.40968e-15
-1.78734e-10
-1.51393e-07
-1.37064e-15
-6.22963e-10
-1.49832e-07
-1.34212e-15
-1.08778e-09
-1.47188e-07
-1.31363e-15
-1.56973e-09
-1.43367e-07
-1.30608e-15
-2.06442e-09
-1.38312e-07
-1.12274e-15
-2.56651e-09
-1.3195e-07
-1.08468e-15
-3.06978e-09
-1.24209e-07
-1.0306e-15
-3.56739e-09
-1.15024e-07
-9.69841e-16
-4.05216e-09
-1.04333e-07
-9.07898e-16
-4.51697e-09
-9.20857e-08
-8.41595e-16
-4.9554e-09
-7.82336e-08
-7.73418e-16
-5.36218e-09
-6.27448e-08
-7.01581e-16
-4.55938e-08
-6.29816e-16
1.24887e-11
-7.00235e-09
1.23113e-15
7.37773e-11
-2.12519e-08
-1.31645e-15
3.53736e-10
-3.73575e-08
-6.59373e-15
-5.60817e-11
-4.8298e-08
-1.68404e-14
5.65235e-10
-6.78475e-08
2.50531e-15
1.46625e-09
-8.86414e-08
7.60392e-16
1.92366e-09
-7.7851e-08
-1.00066e-14
2.08286e-09
-7.754e-08
-4.87956e-15
2.27653e-09
-8.87183e-08
-4.54841e-15
2.41482e-09
-9.74101e-08
-4.606e-15
2.49192e-09
-1.02553e-07
-4.30246e-15
2.54972e-09
-1.04812e-07
-3.81245e-15
2.6202e-09
-1.0608e-07
-3.23795e-15
2.6895e-09
-1.08021e-07
-2.76303e-15
2.72777e-09
-1.1124e-07
-2.40676e-15
2.71588e-09
-1.15596e-07
-2.27991e-15
2.64708e-09
-1.20686e-07
-1.95846e-15
2.52275e-09
-1.26071e-07
-1.95275e-15
2.34806e-09
-1.31381e-07
-1.79215e-15
2.12913e-09
-1.36338e-07
-1.74493e-15
1.87128e-09
-1.40756e-07
-1.68259e-15
1.57839e-09
-1.44521e-07
-1.65262e-15
1.25306e-09
-1.47528e-07
-1.59859e-15
8.96795e-10
-1.49734e-07
-1.56183e-15
5.10613e-10
-1.51071e-07
-1.48526e-15
9.5438e-11
-1.51495e-07
-1.44771e-15
-3.47475e-10
-1.5095e-07
-1.40272e-15
-8.16189e-10
-1.49363e-07
-1.36986e-15
-1.308e-09
-1.46697e-07
-1.33857e-15
-1.81916e-09
-1.42855e-07
-1.3293e-15
-2.34496e-09
-1.37786e-07
-1.1393e-15
-2.87978e-09
-1.31416e-07
-1.09944e-15
-3.41715e-09
-1.23672e-07
-1.04411e-15
-3.94997e-09
-1.14491e-07
-9.82446e-16
-4.47087e-09
-1.03812e-07
-9.2001e-16
-4.97248e-09
-9.15841e-08
-8.53535e-16
-5.44795e-09
-7.77581e-08
-7.85599e-16
-5.8912e-09
-6.23015e-08
-7.14451e-16
-4.51882e-08
-6.4389e-16
1.28129e-11
-7.01516e-09
1.12443e-15
8.1778e-11
-2.13209e-08
-5.86161e-16
2.22707e-10
-3.74985e-08
-5.68148e-15
-1.87462e-10
-4.78878e-08
-1.90175e-14
4.51281e-10
-6.84863e-08
3.48589e-15
1.35536e-09
-8.95455e-08
-2.83819e-15
1.8944e-09
-7.839e-08
-1.87809e-15
2.06578e-09
-7.77114e-08
-5.12568e-15
2.25224e-09
-8.89047e-08
-6.92726e-15
2.37847e-09
-9.75363e-08
-6.1071e-15
2.44518e-09
-1.0262e-07
-5.50736e-15
2.49253e-09
-1.04859e-07
-4.86726e-15
2.55093e-09
-1.06139e-07
-3.97935e-15
2.6078e-09
-1.08078e-07
-3.33601e-15
2.63608e-09
-1.11268e-07
-2.81244e-15
2.61748e-09
-1.15577e-07
-2.56202e-15
2.54486e-09
-1.20614e-07
-2.17942e-15
2.4185e-09
-1.25945e-07
-2.11617e-15
2.24236e-09
-1.31205e-07
-1.92557e-15
2.02135e-09
-1.36117e-07
-1.83095e-15
1.75979e-09
-1.40494e-07
-1.74619e-15
1.46082e-09
-1.44222e-07
-1.70671e-15
1.12647e-09
-1.47193e-07
-1.64498e-15
7.57958e-10
-1.49366e-07
-1.60126e-15
3.56149e-10
-1.50669e-07
-1.51946e-15
-7.80113e-11
-1.51061e-07
-1.47772e-15
-5.43122e-10
-1.50485e-07
-1.42931e-15
-1.03701e-09
-1.48869e-07
-1.39405e-15
-1.55666e-09
-1.46177e-07
-1.36083e-15
-2.09796e-09
-1.42314e-07
-1.35048e-15
-2.65583e-09
-1.37228e-07
-1.1546e-15
-3.22428e-09
-1.30847e-07
-1.11351e-15
-3.79645e-09
-1.231e-07
-1.0572e-15
-4.3649e-09
-1.13923e-07
-9.94901e-16
-4.92189e-09
-1.03255e-07
-9.32109e-16
-5.45964e-09
-9.10464e-08
-8.65598e-16
-5.97069e-09
-7.72471e-08
-7.97932e-16
-6.44806e-09
-6.18241e-08
-7.27441e-16
-4.47514e-08
-6.57878e-16
1.32479e-11
-7.02841e-09
1.33943e-15
8.20708e-11
-2.13897e-08
2.2882e-16
6.99157e-11
-3.74863e-08
-9.21155e-15
-2.97002e-10
-4.75209e-08
-1.89145e-14
3.29087e-10
-6.91123e-08
4.76571e-15
1.2305e-09
-9.04469e-08
-3.14731e-15
1.83374e-09
-7.89932e-08
-6.10309e-15
2.02129e-09
-7.78989e-08
-6.89722e-15
2.19985e-09
-8.90833e-08
-8.40768e-15
2.31179e-09
-9.76483e-08
-7.55247e-15
2.36589e-09
-1.02674e-07
-6.8373e-15
2.40167e-09
-1.04895e-07
-5.84715e-15
2.44826e-09
-1.06185e-07
-4.73617e-15
2.49396e-09
-1.08123e-07
-3.90837e-15
2.51391e-09
-1.11288e-07
-3.23716e-15
2.49024e-09
-1.15554e-07
-2.85908e-15
2.41525e-09
-1.20539e-07
-2.41189e-15
2.28805e-09
-1.25818e-07
-2.26944e-15
2.11137e-09
-1.31028e-07
-2.03914e-15
1.88894e-09
-1.35895e-07
-1.93308e-15
1.6241e-09
-1.40229e-07
-1.82608e-15
1.31922e-09
-1.43917e-07
-1.77162e-15
9.75818e-10
-1.4685e-07
-1.69954e-15
5.94774e-10
-1.48985e-07
-1.64675e-15
1.76849e-10
-1.50251e-07
-1.5588e-15
-2.76976e-10
-1.50607e-07
-1.51074e-15
-7.65126e-10
-1.49997e-07
-1.45759e-15
-1.28514e-09
-1.48349e-07
-1.41846e-15
-1.83365e-09
-1.45629e-07
-1.38278e-15
-2.40612e-09
-1.41742e-07
-1.37134e-15
-2.99703e-09
-1.36637e-07
-1.16902e-15
-3.5999e-09
-1.30244e-07
-1.12672e-15
-4.20745e-09
-1.22492e-07
-1.06976e-15
-4.81176e-09
-1.13318e-07
-1.00706e-15
-5.40462e-09
-1.02662e-07
-9.44098e-16
-5.97769e-09
-9.04733e-08
-8.77675e-16
-6.52283e-09
-7.67019e-08
-8.10347e-16
-7.03212e-09
-6.13149e-08
-7.40477e-16
-4.42861e-08
-6.71744e-16
1.37632e-11
-7.04218e-09
6.47295e-16
7.44711e-11
-2.14504e-08
2.77979e-16
-8.06265e-11
-3.73312e-08
-1.01686e-14
-3.72461e-10
-4.72291e-08
-1.86259e-14
2.14815e-10
-6.96996e-08
6.17354e-15
1.10133e-09
-9.13334e-08
-3.32265e-16
1.74084e-09
-7.96327e-08
-6.74763e-15
1.94399e-09
-7.81021e-08
-8.3008e-15
2.11333e-09
-8.92526e-08
-9.06462e-15
2.2097e-09
-9.77446e-08
-8.71399e-15
2.25057e-09
-1.02715e-07
-8.12216e-15
2.27563e-09
-1.0492e-07
-6.78162e-15
2.31251e-09
-1.06222e-07
-5.42712e-15
2.34991e-09
-1.08161e-07
-4.43783e-15
2.3644e-09
-1.11302e-07
-3.60269e-15
2.33815e-09
-1.15527e-07
-3.08777e-15
2.26273e-09
-1.20463e-07
-2.64585e-15
2.13607e-09
-1.25691e-07
-2.41694e-15
1.95971e-09
-1.30852e-07
-2.16882e-15
1.73626e-09
-1.35671e-07
-2.0274e-15
1.46814e-09
-1.39961e-07
-1.89583e-15
1.15701e-09
-1.43606e-07
-1.82863e-15
8.03936e-10
-1.46497e-07
-1.74629e-15
4.09517e-10
-1.4859e-07
-1.68405e-15
-2.5558e-11
-1.49816e-07
-1.59009e-15
-5.0022e-10
-1.50132e-07
-1.53686e-15
-1.01267e-09
-1.49484e-07
-1.48018e-15
-1.5601e-09
-1.47802e-07
-1.43852e-15
-2.13872e-09
-1.4505e-07
-1.40123e-15
-2.74353e-09
-1.41137e-07
-1.38908e-15
-3.36847e-09
-1.36012e-07
-1.18128e-15
-4.00656e-09
-1.29606e-07
-1.13861e-15
-4.64997e-09
-1.21849e-07
-1.08153e-15
-5.29024e-09
-1.12678e-07
-1.01878e-15
-5.91861e-09
-1.02034e-07
-9.55842e-16
-6.52611e-09
-8.98658e-08
-8.89679e-16
-7.10384e-09
-7.61241e-08
-8.22746e-16
-7.64298e-09
-6.07757e-08
-7.53503e-16
-4.37948e-08
-6.85461e-16
1.42684e-11
-7.05644e-09
1.08994e-15
6.27074e-11
-2.14989e-08
1.40792e-15
-1.99103e-10
-3.70694e-08
-1.41884e-14
-4.10528e-10
-4.70177e-08
-1.63538e-14
1.23464e-10
-7.02336e-08
5.73226e-15
9.77043e-10
-9.2187e-08
4.03149e-16
1.62026e-09
-8.02759e-08
-6.45865e-15
1.83347e-09
-7.83153e-08
-9.14591e-15
1.99104e-09
-8.94102e-08
-1.01861e-14
2.0708e-09
-9.78244e-08
-9.87359e-15
2.09872e-09
-1.02743e-07
-9.20882e-15
2.11522e-09
-1.04936e-07
-7.747e-15
2.14579e-09
-1.06253e-07
-6.20458e-15
2.17886e-09
-1.08194e-07
-5.10007e-15
2.19161e-09
-1.11315e-07
-4.10562e-15
2.16589e-09
-1.15502e-07
-3.39648e-15
2.09234e-09
-1.2039e-07
-2.9712e-15
1.96771e-09
-1.25567e-07
-2.58649e-15
1.7924e-09
-1.30677e-07
-2.28847e-15
1.56802e-09
-1.35447e-07
-2.11227e-15
1.29616e-09
-1.39689e-07
-1.94303e-15
9.77915e-10
-1.43288e-07
-1.86008e-15
6.13945e-10
-1.46133e-07
-1.77343e-15
2.0469e-10
-1.48181e-07
-1.70884e-15
-2.49155e-10
-1.49362e-07
-1.61522e-15
-7.46354e-10
-1.49635e-07
-1.55987e-15
-1.2848e-09
-1.48946e-07
-1.50119e-15
-1.8613e-09
-1.47225e-07
-1.4571e-15
-2.47156e-09
-1.4444e-07
-1.41793e-15
-3.11004e-09
-1.40498e-07
-1.40392e-15
-3.77011e-09
-1.35352e-07
-1.19214e-15
-4.44421e-09
-1.28932e-07
-1.14954e-15
-5.12391e-09
-1.21169e-07
-1.09261e-15
-5.80016e-09
-1.12002e-07
-1.03002e-15
-6.46358e-09
-1.0137e-07
-9.67298e-16
-7.10454e-09
-8.92248e-08
-9.01529e-16
-7.71338e-09
-7.55153e-08
-8.35069e-16
-8.2804e-09
-6.02087e-08
-7.66459e-16
-4.32798e-08
-6.99e-16
1.45965e-11
-7.07104e-09
5.03435e-16
5.19685e-11
-2.15362e-08
1.05199e-15
-2.68856e-10
-3.67486e-08
-1.49752e-14
-4.15195e-10
-4.68713e-08
-1.4229e-14
6.38134e-11
-7.07126e-08
4.00794e-15
8.62516e-10
-9.29857e-08
3.55184e-15
1.47896e-09
-8.08924e-08
-5.51671e-15
1.69193e-09
-7.85283e-08
-9.78956e-15
1.83448e-09
-8.95527e-08
-1.10587e-14
1.89709e-09
-9.7887e-08
-1.08143e-14
1.9135e-09
-1.02759e-07
-9.66541e-15
1.92485e-09
-1.04948e-07
-8.07774e-15
1.95356e-09
-1.06282e-07
-6.27159e-15
1.98702e-09
-1.08227e-07
-4.94512e-15
2.00221e-09
-1.1133e-07
-3.9386e-15
1.98026e-09
-1.1548e-07
-2.97281e-15
1.91077e-09
-1.2032e-07
-3.0788e-15
1.78935e-09
-1.25445e-07
-2.59423e-15
1.61537e-09
-1.30503e-07
-2.35986e-15
1.38955e-09
-1.35221e-07
-2.18911e-15
1.11285e-09
-1.39413e-07
-1.99979e-15
7.85883e-10
-1.42961e-07
-1.90542e-15
4.09092e-10
-1.45756e-07
-1.81105e-15
-1.71417e-11
-1.47755e-07
-1.73841e-15
-4.92005e-10
-1.48887e-07
-1.63963e-15
-1.014e-09
-1.49113e-07
-1.5794e-15
-1.58062e-09
-1.48379e-07
-1.51774e-15
-2.1882e-09
-1.46618e-07
-1.47144e-15
-2.8319e-09
-1.43796e-07
-1.431e-15
-3.50557e-09
-1.39825e-07
-1.41741e-15
-4.20196e-09
-1.34655e-07
-1.20164e-15
-4.91287e-09
-1.28221e-07
-1.15943e-15
-5.62925e-09
-1.20453e-07
-1.10285e-15
-6.34143e-09
-1.1129e-07
-1.04069e-15
-7.03938e-09
-1.00673e-07
-9.78388e-16
-7.71278e-09
-8.85514e-08
-9.13166e-16
-8.35125e-09
-7.48768e-08
-8.47252e-16
-8.94428e-09
-5.96157e-08
-7.79293e-16
-4.27432e-08
-7.12327e-16
1.4693e-11
-7.08573e-09
8.1271e-16
4.53366e-11
-2.15669e-08
-2.39318e-16
-2.94005e-10
-3.64092e-08
-1.83992e-14
-3.9995e-10
-4.67654e-08
-9.73349e-15
2.97604e-11
-7.11423e-08
3.18087e-15
7.57725e-10
-9.37137e-08
2.38376e-15
1.32787e-09
-8.14625e-08
-5.04722e-15
1.52677e-09
-7.87272e-08
-9.66079e-15
1.64942e-09
-8.96754e-08
-1.1523e-14
1.6947e-09
-9.79323e-08
-1.13835e-14
1.70183e-09
-1.02767e-07
-1.02062e-14
1.7121e-09
-1.04958e-07
-8.61397e-15
1.74388e-09
-1.06313e-07
-6.72691e-15
1.78262e-09
-1.08266e-07
-5.36577e-15
1.80433e-09
-1.11352e-07
-4.26936e-15
1.78914e-09
-1.15464e-07
-3.17304e-15
1.72546e-09
-1.20257e-07
-3.30847e-15
1.60787e-09
-1.25327e-07
-2.70163e-15
1.43481e-09
-1.3033e-07
-2.43586e-15
1.20631e-09
-1.34992e-07
-2.23571e-15
9.22865e-10
-1.39129e-07
-2.01731e-15
5.84814e-10
-1.42623e-07
-1.91344e-15
1.92511e-10
-1.45364e-07
-1.82022e-15
-2.53561e-10
-1.47309e-07
-1.74894e-15
-7.52336e-10
-1.48388e-07
-1.65261e-15
-1.30194e-09
-1.48563e-07
-1.59216e-15
-1.89938e-09
-1.47782e-07
-1.53033e-15
-2.54042e-09
-1.45977e-07
-1.48302e-15
-3.21961e-09
-1.43117e-07
-1.44198e-15
-3.93015e-09
-1.39114e-07
-1.42891e-15
-4.66412e-09
-1.33921e-07
-1.20971e-15
-5.41267e-09
-1.27473e-07
-1.16829e-15
-6.1661e-09
-1.19699e-07
-1.11233e-15
-6.91409e-09
-1.10542e-07
-1.05081e-15
-7.64596e-09
-9.99407e-08
-9.89088e-16
-8.35074e-09
-8.78466e-08
-9.24544e-16
-9.01733e-09
-7.42101e-08
-8.59248e-16
-9.63453e-09
-5.89985e-08
-7.91961e-16
-4.21872e-08
-7.25415e-16
1.45385e-11
-7.10027e-09
6.0815e-16
4.39303e-11
-2.15963e-08
6.11809e-16
-2.86697e-10
-3.60786e-08
-1.9998e-14
-3.8358e-10
-4.66685e-08
-5.56794e-15
7.95745e-12
-7.15339e-08
3.01593e-15
6.61355e-10
-9.43671e-08
-4.35139e-16
1.18019e-09
-8.19814e-08
-4.20652e-15
1.34883e-09
-7.88958e-08
-9.70592e-15
1.44541e-09
-8.9772e-08
-1.157e-14
1.47354e-09
-9.79605e-08
-1.15797e-14
1.47421e-09
-1.02767e-07
-1.0409e-14
1.48785e-09
-1.04972e-07
-8.80635e-15
1.52755e-09
-1.06353e-07
-6.81872e-15
1.57611e-09
-1.08315e-07
-5.46832e-15
1.60785e-09
-1.11384e-07
-4.30393e-15
1.60165e-09
-1.15458e-07
-3.1743e-15
1.54469e-09
-1.202e-07
-3.31513e-15
1.43061e-09
-1.25213e-07
-2.66846e-15
1.25712e-09
-1.30156e-07
-2.44284e-15
1.02377e-09
-1.34759e-07
-2.26119e-15
7.30749e-10
-1.38836e-07
-2.03768e-15
3.78347e-10
-1.4227e-07
-1.9305e-15
-3.29805e-11
-1.44952e-07
-1.83627e-15
-5.02489e-10
-1.46839e-07
-1.76162e-15
-1.02872e-09
-1.47862e-07
-1.66359e-15
-1.60928e-09
-1.47983e-07
-1.60094e-15
-2.24061e-09
-1.4715e-07
-1.53831e-15
-2.91782e-09
-1.45299e-07
-1.49035e-15
-3.63479e-09
-1.424e-07
-1.4493e-15
-4.38401e-09
-1.38365e-07
-1.43405e-15
-5.15688e-09
-1.33149e-07
-1.21523e-15
-5.94389e-09
-1.26686e-07
-1.17557e-15
-6.73467e-09
-1.18909e-07
-1.12089e-15
-7.51827e-09
-1.09758e-07
-1.06033e-15
-8.28338e-09
-9.91756e-08
-9.99374e-16
-9.0184e-09
-8.71116e-08
-9.35637e-16
-9.71159e-09
-7.35169e-08
-8.71024e-16
-1.03511e-08
-5.8359e-08
-8.04423e-16
-4.16137e-08
-7.3823e-16
1.41616e-11
-7.11442e-09
4.94638e-16
4.77512e-11
-2.16299e-08
-2.25423e-15
-2.66033e-10
-3.57648e-08
-2.02949e-14
-3.8976e-10
-4.65448e-08
-1.67696e-15
-2.2029e-11
-7.19016e-08
3.69554e-15
5.67312e-10
-9.49564e-08
-2.88072e-15
1.04684e-09
-8.24609e-08
-4.31075e-15
1.16895e-09
-7.90179e-08
-9.45699e-15
1.23502e-09
-8.9838e-08
-1.13743e-14
1.24656e-09
-9.7972e-08
-1.14687e-14
1.24389e-09
-1.02765e-07
-1.02897e-14
1.26517e-09
-1.04993e-07
-8.67266e-15
1.3171e-09
-1.06405e-07
-6.70587e-15
1.37914e-09
-1.08377e-07
-5.41443e-15
1.42335e-09
-1.11428e-07
-4.26471e-15
1.42723e-09
-1.15462e-07
-3.1611e-15
1.37675e-09
-1.20149e-07
-3.30251e-15
1.26474e-09
-1.25101e-07
-2.65632e-15
1.08836e-09
-1.2998e-07
-2.43081e-15
8.46894e-10
-1.34518e-07
-2.22542e-15
5.40484e-10
-1.3853e-07
-1.99191e-15
1.69551e-10
-1.419e-07
-1.89074e-15
-2.65139e-10
-1.44518e-07
-1.81052e-15
-7.62404e-10
-1.46342e-07
-1.74634e-15
-1.32023e-09
-1.47304e-07
-1.65713e-15
-1.93561e-09
-1.47367e-07
-1.59942e-15
-2.60428e-09
-1.46482e-07
-1.5404e-15
-3.32063e-09
-1.44583e-07
-1.49426e-15
-4.07782e-09
-1.41643e-07
-1.4548e-15
-4.86762e-09
-1.37575e-07
-1.44082e-15
-5.68073e-09
-1.32335e-07
-1.22112e-15
-6.50695e-09
-1.25859e-07
-1.1823e-15
-7.33529e-09
-1.1808e-07
-1.12879e-15
-8.15419e-09
-1.08939e-07
-1.06935e-15
-8.95175e-09
-9.83781e-08
-1.00927e-15
-9.71579e-09
-8.63475e-08
-9.46432e-16
-1.0434e-08
-7.27986e-08
-8.82547e-16
-1.1094e-08
-5.7699e-08
-8.16648e-16
-4.10247e-08
-7.50743e-16
1.35687e-11
-7.12799e-09
7.00994e-16
5.62807e-11
-2.16726e-08
-1.71678e-16
-2.53844e-10
-3.54547e-08
-1.82201e-14
-4.4232e-10
-4.63563e-08
2.67221e-15
-8.16219e-11
-7.22623e-08
3.9132e-15
4.65968e-10
-9.5504e-08
-5.10702e-15
9.32932e-10
-8.29279e-08
-3.97718e-15
9.9866e-10
-7.90837e-08
-8.6905e-15
1.0324e-09
-8.98718e-08
-1.08466e-14
1.0287e-09
-9.79683e-08
-1.09794e-14
1.02581e-09
-1.02762e-07
-9.90873e-15
1.05837e-09
-1.05025e-07
-8.33717e-15
1.12594e-09
-1.06473e-07
-6.4498e-15
1.20381e-09
-1.08454e-07
-5.24822e-15
1.26158e-09
-1.11486e-07
-4.12575e-15
1.2752e-09
-1.15476e-07
-3.07056e-15
1.22956e-09
-1.20103e-07
-3.21882e-15
1.11685e-09
-1.24989e-07
-2.59804e-15
9.33876e-10
-1.29797e-07
-2.38276e-15
6.79893e-10
-1.34264e-07
-2.19134e-15
3.55228e-10
-1.38205e-07
-1.96901e-15
-3.93361e-11
-1.41505e-07
-1.87482e-15
-5.02525e-10
-1.44055e-07
-1.8004e-15
-1.03253e-09
-1.45812e-07
-1.73852e-15
-1.62665e-09
-1.4671e-07
-1.65168e-15
-2.28109e-09
-1.46713e-07
-1.59564e-15
-2.99085e-09
-1.45772e-07
-1.53895e-15
-3.7495e-09
-1.43824e-07
-1.49462e-15
-4.54946e-09
-1.40843e-07
-1.45751e-15
-5.38173e-09
-1.36743e-07
-1.44587e-15
-6.23634e-09
-1.31481e-07
-1.22345e-15
-7.10244e-09
-1.24993e-07
-1.18779e-15
-7.96843e-09
-1.17214e-07
-1.13597e-15
-8.82217e-09