/*--------------------------------*- C++ -*----------------------------------*\
| =========                 |                                                 |
| \\      /  F ield         | OpenFOAM: The Open Source CFD Toolbox           |
|  \\    /   O peration     | Version:  v2006                                 |
|   \\  /    A nd           | Website:  www.openfoam.com                      |
|    \\/     M anipulation  |                                                 |
\*---------------------------------------------------------------------------*/
FoamFile
{
    version     2.0;
    format      ascii;
    class       volScalarField;
    location    "0.03";
    object      p_rgh;
}
// * * * * * * * * * * * * * * * * * * * * * * * * * * * * * * * * * * * * * //

dimensions      [1 -1 -2 0 0 0 0];


internalField   nonuniform List<scalar> 
3585
(
99996
103154
102793
103601
102875
103233
97341.1
103212
103209
103207
84103.8
103207
103208
103208
103014
103007
103012
102990
102915
103296
101208
101251
101790
102197
101147
102754
101098
103840
102379
100385
100392
103559
105569
105549
103463
104368
104402
102337
103579
102166
103571
84061.3
103268
101487
102814
103501
102782
106101
103544
102913
102389
97007.7
97509.6
102800
85119.5
95202.3
103210
103322
103204
102255
103207
102754
102680
102757
103292
103171
103182
103181
102695
100236
102823
100128
100474
102085
103111
100322
103117
103096
102518
102503
103111
100243
101079
100726
102181
103750
102770
102899
102649
99648.7
102694
100564
100868
103203
102140
103220
102010
103173
102784
102550
104178
103232
102847
102981
103216
103126
102665
102630
100443
103239
103197
102742
102709
100009
103244
102902
102744
100569
103214
102394
101608
103207
103156
103200
103159
103145
103114
103215
103151
103146
103159
103207
102430
102417
102310
103205
99904.3
99021.8
102022
99962.2
103212
101040
103779
103490
102980
100253
100303
103237
102668
103142
100273
103692
103702
100979
103768
100731
102959
102376
101144
103228
103207
103714
103290
103176
103212
103079
103067
102784
99773.3
100506
102097
102831
103211
103245
100533
103216
103161
103214
102902
103217
103206
82370.1
103259
103026
103164
103203
103190
103187
102340
103209
102985
102990
101268
103210
102937
103211
102868
102603
102959
103208
100758
101152
101350
101075
101152
101030
103208
102701
103142
102662
102819
99393.9
99105.5
103064
98797.3
98597.9
98780.2
99027.1
105335
104151
102583
84835.4
102603
103235
103633
104349
101096
101272
102372
101332
103459
103211
101272
103288
102904
102859
103203
103217
101288
103184
101151
103126
103159
103180
103065
101121
102920
102576
103233
102558
102691
100657
100506
103002
103258
103567
100359
103212
103198
103200
103231
103083
102591
102732
101562
101335
102939
100635
103193
103290
103520
103089
103270
103303
103248
102912
103203
103096
103090
103095
103142
102009
101957
101904
103034
103836
103218
103925
103960
102434
102537
103668
103084
103212
103162
103218
103215
103215
103114
103253
102805
100981
100123
103220
100196
103216
103226
103217
100231
100392
103202
100424
103063
103084
103186
102734
103689
100315
102821
102810
103273
99627.4
102785
103383
99578.3
99689.6
98808.1
101195
103328
102792
103272
103104
103220
103123
103209
102479
102198
103075
103076
103067
103071
100438
103844
102850
103148
103207
102861
102703
102581
102726
102243
103351
103368
103424
103407
103231
103228
103022
103260
103953
103383
103132
103303
101873
102276
103311
103147
102817
102886
102912
103237
103240
102988
96803.7
103202
103234
96933.4
95880.2
103590
103215
103218
103201
99630.1
103215
102413
100902
103202
102976
100441
104559
103790
103215
102773
103204
95389.1
103261
103259
103289
103025
103207
103193
103191
103196
103196
103192
103256
103492
103017
103203
103174
103127
103247
103041
103049
102889
102430
102931
102639
102838
103135
102925
102963
102735
103196
103010
103567
103487
103219
103480
102747
103272
101243
103109
102676
103133
103214
103130
103137
103407
103135
102598
102670
103102
102762
103045
103672
103174
103803
101960
103213
103200
103039
102079
102511
103213
103260
106364
102669
103547
103065
103052
103045
101454
101866
101355
114343
103459
103205
109336
104619
103129
102738
103257
103041
103211
103148
102742
103511
103198
103215
102729
102714
102885
102205
100013
99227.2
103250
103229
102713
102976
102838
103024
103032
102935
103334
102479
103214
103213
103215
102494
102709
103247
103210
103215
102895
102974
102960
102490
99324.6
102960
102762
102893
103213
101980
102941
101964
101143
101741
102409
102356
102011
103828
101996
101243
100595
103731
103108
103163
103713
102960
85927.5
102426
102482
102976
102636
101697
102500
103099
103381
102823
103152
101640
103213
101748
97088.5
91880.8
103607
100093
97441.6
96954
103280
103252
103291
103223
105994
103312
103224
103495
103477
102869
103231
103199
103174
102862
102892
102848
102926
102916
103221
100682
103224
103483
103221
103241
103201
103438
104054
104696
104563
104443
104437
104318
103069
103182
103215
103214
102143
102871
100805
102905
102898
100801
99921.7
103131
102813
102782
102582
102786
102629
102694
103092
103213
99819.7
101161
102790
103630
103002
103220
103230
103228
103241
103223
103243
103219
102930
102888
103193
100919
102838
102880
102867
103186
102785
100779
102880
101689
102423
103231
103227
102465
101642
103216
103215
103214
101979
103173
103162
102931
102537
102900
102981
102961
102843
102091
102835
103198
102966
102873
102980
102888
102714
102901
104366
105298
103382
100532
100925
100628
99538.1
101579
101691
103217
103206
103291
102975
103266
103246
103243
102975
103026
103248
101331
100077
103206
102650
103260
102886
101842
102968
103166
103169
103265
103237
102770
103276
101059
102434
103221
102952
103068
104217
103210
105002
103245
104382
103216
103424
103628
103481
103237
103161
103156
103199
103183
103123
103233
103128
100157
100119
99756.2
103340
103488
102540
102660
102742
94869.7
100986
101293
99965.3
102519
102614
103222
103125
102902
102580
103232
100852
102701
103316
102582
100757
100692
100767
100778
103361
103372
103272
102499
102539
102562
102508
101023
103209
103208
103205
102986
103228
102994
102463
102691
102576
103226
103227
103227
103239
103231
101023
103310
103284
101299
103173
103283
103196
103167
103189
103225
103261
102266
102834
102908
102829
103230
102351
101981
102118
103205
103217
103201
103222
103229
103189
102247
103996
103712
103446
103679
103144
101687
103213
103201
103294
103173
100042
103258
103274
103144
103153
103025
100108
102274
103037
102173
101699
100043
102899
102207
102230
102182
103596
103371
101407
101690
101026
101831
102952
102855
101310
100957
103217
103512
103203
103219
103156
102909
102916
103212
102860
101820
102913
98315.8
99015
99745.7
101714
103258
102420
99496.3
98389.9
103152
103165
103275
103364
103339
102578
102460
101761
103376
103226
106642
103267
103081
103315
103266
103242
102569
103198
99910.9
99996.9
103358
103018
103622
103078
103164
102960
103325
103201
103187
103220
103251
103234
103259
101864
102107
102564
103050
103101
103204
103056
103204
103191
103260
103255
103254
102579
103262
103075
103071
103274
103071
103078
103060
102634
103179
103141
103046
103175
103171
103155
102698
103037
103179
103160
100225
103069
103030
102735
103169
102198
103113
103225
101400
101410
103253
103155
102772
102744
102830
103632
102861
100929
103217
103211
103215
103212
102580
102863
102802
102951
102853
102886
100280
100140
100972
103249
101663
103314
103040
103941
102981
103214
102532
103213
103215
103215
102491
104433
103214
102743
101719
102402
102922
102703
102731
102912
103350
104320
103430
100422
102908
100779
100714
103205
100830
103368
102288
100868
100835
100028
101842
103261
103029
99195.1
102952
100537
103086
103090
103127
103122
102004
101927
102047
102994
101999
102454
101776
101209
104169
104181
101033
101252
103215
103215
103216
103215
100543
103218
103203
103049
100262
98989.1
103179
102927
103010
102936
102954
102995
102937
102844
102475
103124
102323
102409
100156
102355
100920
101791
102411
100721
102871
99826.7
103330
99521.9
100862
100700
103929
103592
103503
102947
103930
103892
103920
102363
100032
99826.2
101343
103456
103399
103429
103587
103533
103323
100672
102522
102489
102582
102566
103778
103562
102933
103151
100440
103095
103380
103218
103483
103477
103446
103383
103432
103391
103364
103185
103176
103209
99337.9
98956
103212
99341.2
101829
103138
103157
101713
101151
102515
102661
103420
103407
103423
103413
103432
103075
103225
100692
100151
100172
99899.5
100130
102848
100017
103345
103337
103229
103228
103212
103193
103188
103075
101456
103018
103043
103565
101637
103081
101636
101454
103220
103210
103213
103235
103207
103208
103072
103129
102961
101295
101897
102640
103979
102502
102830
100795
103358
99319
103555
103242
103074
102949
103194
103222
103205
103279
102992
103113
102837
101620
99814.1
101584
102833
101583
100663
100769
102433
103254
103249
103246
103183
103218
103214
103216
103215
102103
103136
102874
102860
101113
100336
103322
103312
103322
103296
105912
103210
103217
103043
103047
103216
103013
103331
103186
103180
102735
95408.7
102719
99541.6
102693
101103
103355
103355
100952
100914
101060
103241
103213
103235
103056
103242
102553
103164
102753
102538
102658
102431
102228
104944
103844
102041
102740
102556
102039
102397
99627.2
103290
103139
103291
103026
102808
103272
102919
101840
103215
103247
102949
102969
102965
101648
101074
101803
100174
102946
102945
103220
103281
103578
103220
103193
104165
103136
103282
102720
102731
102566
100005
102867
100114
102711
102951
103571
103225
103224
103201
103201
103229
101982
103258
103267
102368
103210
102320
103126
102437
103220
102876
103030
103170
103240
103337
102532
103210
103852
103700
103458
103045
103056
102755
102084
103267
102593
103266
102626
103263
100693
100833
101403
103263
102737
102734
102574
102829
102724
103568
103208
103265
103170
103247
103267
102694
103178
101902
103054
103086
103013
102862
102882
102706
101830
103782
103580
101717
102589
103269
103630
104386
102993
103255
103302
103269
103270
102559
103216
103279
101421
103383
103212
103199
102886
103061
99942.8
102126
102969
101207
103790
96409.3
103369
102015
102997
103306
103097
105028
100859
103239
103220
103212
103247
103244
103239
103071
103012
103000
103937
100367
102896
102755
103582
101416
101760
103300
103206
103214
102927
103009
103270
103209
100241
100078
100207
99952.1
103328
103328
100412
103349
103347
103477
99605.7
103088
103104
103205
103198
103188
103125
103036
101423
103212
103212
103077
102808
103158
102857
101325
103187
91980.3
103177
103150
103171
102787
102507
102074
99413.8
103237
103290
103274
103066
102781
103059
102912
102977
103205
103215
102774
103169
102258
96034.3
103200
103300
103176
103111
103115
103077
103710
102564
103213
102695
101420
101740
100237
100051
100098
103118
103129
100146
101972
101958
102738
102037
102267
101948
102648
103778
102821
102827
102452
108159
103653
102636
103539
103390
104464
102512
103203
101894
103209
99628.8
99824.9
102702
102719
103255
101006
99779.1
100449
101878
101780
114358
102999
101265
99574.3
103221
103216
103217
103251
103139
103212
103202
103214
102898
103127
103012
102811
102995
103057
103304
102136
102138
101820
103236
103305
102901
103270
103256
103196
103199
103417
101606
103082
103108
102987
103025
102599
102989
102146
101792
101841
100767
100593
102067
99508.2
100287
103006
103391
102340
103677
103843
103019
104142
102190
100859
100790
100836
100844
100798
103158
103308
103248
103193
102976
103211
103304
103031
103232
103406
103415
103141
103247
103915
103390
103852
102468
103007
102586
101437
101388
101937
103206
103688
103182
103178
103171
103206
103068
102116
103248
103715
103205
101246
103215
101289
103310
103311
103207
103020
103029
103019
103526
101083
100917
101241
101343
101357
101259
103215
103161
103931
95428.5
99165.7
100638
98040.7
97230.2
101278
102910
102360
103514
103517
103545
103349
103368
103373
103571
107575
103215
102634
102507
103169
103175
102947
102946
102307
100494
102333
102402
102376
100760
100741
103872
102446
99276.2
102465
102976
100755
99933
103206
103214
103121
104154
103124
102976
102851
103009
102758
101873
101745
101622
101856
103314
102988
102976
102981
102965
103130
100884
103136
103136
102165
102115
101764
102232
102222
102426
101829
97373.6
103253
100846
103197
103293
103395
103392
103673
100311
103421
97664.3
104495
99681.9
103078
102850
100977
103188
103249
103422
103085
103463
103222
103236
103228
103221
103261
103219
103108
102177
103086
103120
103172
102826
102796
102837
101944
100736
101118
100651
103292
103384
102228
103417
103390
103359
103218
103412
102599
102722
102370
103215
103217
103216
102160
102206
102928
102917
102917
100637
100794
103102
100591
100605
104525
104202
104528
105332
103864
104080
103214
101483
103217
103172
103169
103089
101986
101956
102656
102941
102998
102888
101159
100460
102561
103493
100649
100934
102006
101320
99889.5
103218
99901.8
102177
101233
103223
103081
103131
102869
102825
101641
102314
102253
103802
103796
102379
103314
103364
103648
103245
103206
103211
103210
103142
103198
103212
102086
102872
102709
102760
101870
100028
102339
102441
102558
103211
101583
101387
101519
100626
104031
103240
104063
103696
103554
103382
103218
103218
103002
103141
99843.3
100393
103237
103214
103216
103169
103172
103170
101757
103166
102410
103193
102904
103159
103157
102892
103069
102597
102278
102071
102477
101683
99510.5
102481
103396
102517
103114
99705.6
103246
99532.9
103366
103329
99505
103352
103346
103210
99063.9
98984.3
103190
103143
103205
103204
101584
103209
103208
103251
103204
100148
100392
100040
103606
103250
101524
102706
101219
102179
103211
103099
103086
103093
103234
103252
103235
103131
103234
102972
103002
103220
103186
102999
102909
102913
102983
102979
102653
102179
102315
103329
103299
102979
103226
103219
103219
103222
103473
103175
104451
103293
103288
102882
102922
102971
99923.3
102903
103006
103276
100643
103365
103308
102719
102842
103654
103189
103196
103105
103292
103281
103226
103283
103215
103302
102707
102949
102510
102397
100088
101210
103248
103760
103183
103191
102424
103189
102423
100006
100408
100110
103471
103495
103209
103202
103189
103192
103111
103206
103026
102898
102773
100761
103207
102905
103045
103072
103207
102697
103132
103130
103160
103217
101972
102114
102082
102096
102098
102675
101560
101438
105675
100466
103185
99299.6
101949
104414
101477
101623
101227
103432
103483
103525
103414
103200
103240
103171
103034
103199
103196
102810
103197
103197
102781
102640
102552
102531
101370
102663
102552
102645
102911
98550.5
98352.6
99026.9
103832
103520
103473
103177
103189
99879.9
102798
103602
103695
103082
103057
103098
103034
101712
101783
102893
102326
103200
103186
102887
104236
101925
101806
101687
102035
102108
101565
102335
101650
103445
102405
103356
103616
103619
103619
103520
103365
103383
103164
103181
103200
103205
103186
103288
101148
101084
102161
101185
101313
100874
99186.7
101651
104140
102917
102907
103077
103203
98792.7
103209
103009
103245
100076
102887
100241
102768
102854
104602
101799
103946
103758
103324
98725.7
99489.6
103215
103215
103443
103217
102988
103322
103465
103286
103296
100719
103169
103244
103206
103214
103086
103148
103118
102681
102648
102836
102788
101457
102758
101427
103320
102897
103174
104454
103130
100857
103439
103131
103257
103275
103109
103232
103228
103291
100819
98882.7
102351
102761
103025
102816
99882.3
99893.3
100126
100603
100335
100136
103219
103224
103225
100718
102769
101036
103219
100974
102995
103036
103113
103022
103148
102741
101002
100940
101500
101867
101498
103047
103027
103039
102685
103030
102998
102943
103008
102863
103240
102896
102930
103383
102892
100300
102880
101399
101703
102948
102778
102959
102970
102924
103132
102918
102896
103335
103212
103299
102681
103096
102954
103557
101512
101986
103566
103298
102281
102812
103092
103083
102796
103099
100248
102571
102416
103091
102636
103312
103467
103182
102066
102763
103262
102784
103255
103252
103239
103220
103205
102909
102928
102652
102598
103219
102456
102374
103120
102509
102426
102460
103183
103332
100977
103226
103203
103253
103035
102658
103033
103197
103143
103167
103179
102463
102219
100639
102939
103879
103732
102726
103193
103149
102631
102532
102557
102709
102848
102863
102577
103271
103136
103130
103133
102315
102752
102376
101441
102605
102966
103247
103262
103280
101860
101571
103216
103214
103247
103190
103256
103204
103284
103191
102576
102690
103213
103212
102931
99315.5
99871.5
101130
100736
102962
103791
102939
102937
103362
102942
103030
100419
102957
100789
101205
101080
103198
103185
103221
103214
103223
103182
103215
101151
103215
103214
100918
101510
102999
103246
102910
102892
100575
100608
100552
103287
103300
103081
103204
103217
103087
103199
103221
103208
103042
103060
102864
103069
103033
103057
103063
103061
103051
101485
101507
101611
101664
103684
103570
103384
102759
99805.7
101432
101528
102463
102975
102940
102916
102896
103205
103224
103208
103206
102823
102867
103217
103216
100132
104085
100351
99822.9
102347
101799
102514
102302
102217
103033
103203
103355
103201
103280
104122
103204
103204
102622
103202
102695
102715
102727
102679
102663
103182
103110
103193
102032
102428
102439
102098
102161
103217
103212
103214
103215
103212
102449
103213
100504
103240
98356.1
103162
103159
103249
103245
103145
103242
103528
103148
102878
104187
101020
102024
103222
103220
102873
102862
100034
102738
103223
103222
103225
103225
102889
102897
103037
100393
103066
103056
102875
102949
102855
102790
102964
103218
103276
103021
104205
102814
103748
102956
103832
102591
100350
100988
102650
102453
102370
102710
102879
103040
103073
103151
100989
102880
102906
103274
102203
102766
102738
102877
102867
102682
100014
103215
103242
103245
103176
103494
103337
103345
103733
102732
102656
101656
99816.4
95697.6
103221
100553
103211
103817
104954
102579
102891
103005
102793
102827
102850
102005
100212
103177
101926
101916
100949
101985
103056
101193
100048
100278
102810
102804
100230
102939
102965
102953
102927
102937
102956
100403
102965
101855
99960.9
101637
100334
99680.8
100051
103202
100097
103228
103238
103222
103038
100962
103154
103313
103323
103326
93521.6
100199
100257
103223
101405
103228
101462
101308
103233
102321
102955
100468
103213
103213
103175
103098
100397
102986
102935
102948
103079
102457
103112
102490
100151
102463
103088
102812
99713
100868
102810
103010
103482
106256
102713
103662
102607
103374
103317
103291
103280
103098
103387
103088
103322
103368
103409
103289
103295
103440
103401
103376
103196
103154
103215
103006
103010
103096
103028
103002
103307
102049
103225
100515
103210
103185
100767
103183
102859
103556
101553
103022
103265
103280
102024
103288
101874
103291
103281
103217
102975
107585
103045
103188
100364
105589
102914
102838
102921
104945
102907
103173
103134
99581.6
103326
103264
103257
102822
102897
102806
102749
102819
102852
103520
103201
102830
103200
103527
103199
102817
103236
103346
103050
102946
103009
102784
102576
100288
99964.9
102555
102204
103672
102784
103174
103240
103212
103213
103211
103212
103101
102351
103113
103119
103107
102791
102782
101987
101951
103183
103213
103244
103214
103200
103217
102876
103364
103369
102862
101626
101823
102870
102890
102878
102863
103228
103559
102953
103179
102938
102940
103048
102908
103820
103701
104185
103221
99953.7
101979
104205
104351
104537
102278
100042
99772.2
102303
102333
102313
100323
100334
104553
102551
103207
103363
102545
103356
102991
102860
103242
103237
103094
103108
103309
102142
102928
103247
98661.8
102896
102897
103254
102174
103288
102538
103213
101871
101974
102750
102739
103241
103043
103272
103258
103089
102999
103025
99949
99948.7
103213
103243
103214
103215
103230
103163
103097
103231
103081
103223
103191
103207
103126
102588
102416
102245
102960
102970
102381
102527
102245
102445
103197
101502
102727
103192
102633
103235
103238
103216
103213
103230
103228
103222
103247
103361
103203
103349
103533
103507
103504
103204
103533
103197
103444
103533
103211
103211
103013
103115
102936
102954
101336
102617
102451
103268
100386
103267
103216
103214
103146
102842
102820
102058
103258
98423.2
100561
100676
100518
98601.3
103446
99455.8
99816.6
100022
103243
102648
102643
102610
102721
103055
102688
103160
103215
103119
102870
102836
101757
101745
100226
102425
100779
102796
101111
102961
113870
103783
102426
103751
102375
103012
103176
103237
102075
103177
102197
102988
103233
100457
103221
100588
100960
103220
103226
102943
102930
102949
102606
102442
102541
103215
103221
103153
102565
102863
102461
102145
102571
102080
103212
103211
103212
103213
103214
103168
103137
103181
102906
102947
102982
102129
102406
100671
100942
101124
100856
100818
100926
99934.5
101925
100801
98392.7
100466
104542
103424
103523
103492
102895
102550
103064
102956
103023
103271
103071
103055
103221
91097
101618
93781.9
103141
103365
102747
103146
103230
103206
103207
103199
103214
102925
103048
99720.6
103040
102637
102600
101696
103138
103142
101732
101563
98826.8
98790.1
98847.5
102915
103319
105392
103540
99774.5
99934.9
99595.2
99563
105348
108239
103215
103216
103105
106291
103225
103103
103221
103217
102807
102773
103073
103198
103151
102797
102822
102951
102867
102884
101927
103049
101898
99448.8
106217
104401
107428
106077
102846
102637
102499
103312
103320
103374
103576
102715
104216
99905.6
100326
103116
103109
103216
103216
103222
103243
103175
103200
102874
102952
103255
99887
101669
99946.6
103993
105611
103201
103232
103216
103180
103185
103262
103258
102968
103264
102909
102748
100841
99641
102648
102605
100678
100997
103192
103200
103199
103182
103223
103313
103227
103646
103407
103184
103215
103419
103453
102578
102277
102227
103274
103147
103271
103275
102858
103275
103528
103360
99539.1
103214
99289.9
99247.5
103211
98768
98504.3
103278
103273
103273
103213
103109
103099
103156
102856
102845
103284
103288
102835
102054
101988
103246
103666
104061
103237
103219
103236
103269
103214
103234
103160
102922
102881
103165
102342
102313
103234
103200
102751
99874.7
103179
103163
102913
102911
102929
102930
102844
102890
102520
103017
102885
102490
103354
103247
103240
103168
102431
103242
103489
103458
103761
102639
103464
103260
103239
103511
103927
102957
102563
102889
102913
103263
103744
102746
104243
103243
102459
103318
103299
103201
103197
99882
100623
101412
101106
103197
102967
103199
102948
104421
103261
103250
106542
106078
105568
102943
103043
103240
103866
103717
103644
102936
103056
103064
103435
102911
102993
103218
102872
100567
100088
100367
101690
102884
102644
102940
101554
103229
101607
103195
102924
101024
102915
102972
102962
102936
101548
102401
102995
101493
114648
109864
119592
101888
100535
103033
103631
99890.7
99876.1
103030
103250
102930
102474
103590
103608
103994
109917
103554
103829
103197
103205
103207
100499
100046
103199
103429
103246
103404
103237
103217
100027
100285
103542
103226
103214
103217
103217
103218
102906
102918
102927
100152
100489
103566
103210
103236
102542
103235
103286
103211
103215
103554
102983
102768
102239
103214
103209
103207
102969
103161
103030
102804
103016
103270
103021
103209
103277
103026
102614
103151
102475
102312
103796
101379
103268
102622
102298
102243
102789
102340
102141
103775
102071
103880
102873
102938
100823
100524
102926
103277
103218
103244
103239
103231
103224
102950
102968
100599
102979
102927
102917
102163
102974
102725
102659
101709
99224.5
102549
102798
102698
102691
102980
102947
100920
100626
100078
101100
102737
100356
103282
103201
103204
99895.2
100947
103268
103240
103187
103184
103273
102711
102699
101940
102820
103076
102955
100805
103255
103927
103475
103500
101315
104017
104086
101755
102252
102215
102323
102301
102233
102516
102991
102991
103218
103227
103233
103018
103111
103024
103232
103224
103209
103036
103054
99543.8
102414
101632
101123
101019
106089
103259
103253
103223
103247
106872
103254
103231
103231
103221
103225
103002
101418
103115
103135
103113
103120
103127
103344
103053
103099
102193
101900
102164
103125
103065
102706
103254
102725
104015
103255
103240
103249
103216
100272
100762
103244
103253
103211
103208
103210
103209
103210
102660
102998
103239
102956
102452
102060
102411
103248
102401
102478
102436
102485
103263
103116
102709
103654
102796
103211
103382
103237
103284
103282
103207
103197
103199
103048
103207
103083
102134
101453
101727
101398
103201
103218
102937
102902
102893
103174
102905
103134
103146
103165
102371
102323
102398
102224
101076
100614
100587
100548
100643
101297
101177
103673
99986.2
100001
100006
99997.9
100005
103195
103189
103185
103235
103232
102638
102584
103227
101892
100481
102623
103223
103109
103247
102832
102797
103226
102088
102122
102442
103536
103452
103245
102900
102186
100872
103258
102998
102998
103703
103017
103514
103000
103652
103612
103980
103001
103697
102072
102194
103388
102928
103501
103218
102733
103175
102728
102937
101184
101143
102922
103213
103215
103232
103219
103217
102300
101738
101965
102237
102586
102355
103165
103068
103444
102768
103217
102623
102615
102529
102711
100076
101569
99112.9
101079
103216
103224
103224
103230
103224
103207
103184
103200
103199
103682
103729
103823
103661
103715
102911
102605
102762
102734
103336
103016
103163
103216
103209
103195
103184
103226
103216
103420
103211
103223
103141
103212
103210
102984
103000
102015
103564
103223
103090
103689
103537
103157
102980
102829
102988
103018
100504
102931
102989
105033
100900
104892
100093
101268
103152
99931.2
101070
103066
103165
98422.3
102242
105066
103428
98691.9
98763.2
104353
104242
104252
101766
103531
103563
104400
104307
103721
102824
102859
103211
103090
100363
102617
103961
103822
103355
102674
103509
103371
103474
103390
101185
99690.6
99584.6
99683.1
99555.2
101985
102337
101592
103169
103139
99600
103241
103279
102588
103235
103264
103134
103228
103271
102691
102875
103252
103262
103217
103267
103255
103608
103437
103199
103933
102927
100763
103662
102136
104066
104747
103435
103447
103273
103587
103541
)
;

boundaryField
{
    Inlet
    {
        type            prghTotalPressure;
        p0              nonuniform List<scalar> 0();
        value           nonuniform List<scalar> 0();
    }
    Outlet
    {
        type            fixedValue;
        value           uniform 100000;
    }
    Symmetric
    {
        type            symmetry;
    }
    Wall
    {
        type            fixedFluxPressure;
        gradient        uniform 0;
        value           nonuniform List<scalar> 
217
(
103201
103209
103213
103214
103211
103204
103191
103173
103149
103118
103081
103038
102988
102935
102870
102796
102702
102588
102439
102255
102024
101757
101462
101151
100833
100567
100132
100032
100097
100027
103202
103210
103215
103214
103211
103203
103192
103172
103148
103115
103082
103040
102986
102939
102871
102793
102709
102576
102451
102245
102041
101780
101457
101143
100830
100518
100212
103199
103199
103208
103205
103207
103214
103212
103212
103216
103214
103216
103214
103213
103213
103208
103208
103206
103197
103198
103193
103179
103183
103176
103157
103162
103153
103129
103134
103127
103092
103099
103086
103052
103060
103045
103006
103013
103002
102955
102962
102942
102895
102904
102880
102821
102835
102802
102732
102752
102719
102630
102648
102631
102490
102518
102463
102321
102351
102315
102103
102145
102047
101841
101894
101792
101565
101611
101485
101243
101308
101177
100917
100997
100868
100532
100671
100561
100241
100351
100225
103204
103197
103212
103207
103213
103212
103215
103215
103210
103213
103200
103207
103185
103199
103165
103183
103138
103161
103108
103133
103071
103098
103028
103057
102976
103010
102910
102960
102842
102906
102782
102835
102656
102742
102558
102648
102410
102512
102203
102337
101972
102134
101626
101866
101336
101622
101020
101297
100714
100989
100393
100676
100078
100359
103205
103212
103215
103215
103211
103202
103189
103169
103143
103111
103075
103031
102981
102927
102860
102781
102685
102564
102416
102219
101988
101712
101405
101083
100755
100367
)
;
    }
    procBoundary2to3
    {
        type            processor;
        value           nonuniform List<scalar> 
34
(
103199
103203
103606
103241
103245
103196
103261
103619
103184
103231
103194
103214
103211
103257
103222
103476
103206
103239
103197
103231
103231
103195
103248
103335
103235
103217
103729
103255
103242
103359
103456
103195
103281
103195
)
;
    }
}


// ************************************************************************* //
