/*--------------------------------*- C++ -*----------------------------------*\
| =========                 |                                                 |
| \\      /  F ield         | OpenFOAM: The Open Source CFD Toolbox           |
|  \\    /   O peration     | Version:  v2012                                 |
|   \\  /    A nd           | Website:  www.openfoam.com                      |
|    \\/     M anipulation  |                                                 |
\*---------------------------------------------------------------------------*/
FoamFile
{
    version     2.0;
    format      ascii;
    class       volScalarField;
    location    "0.55";
    object      alpha.water;
}
// * * * * * * * * * * * * * * * * * * * * * * * * * * * * * * * * * * * * * //

dimensions      [0 0 0 0 0 0 0];


internalField   nonuniform List<scalar> 
20000
(
-1.01433e-173
-2.64958e-165
-7.49968e-158
-3.67705e-150
-1.27437e-143
-4.75264e-134
-5.65523e-125
-2.99697e-117
-3.24977e-108
-3.48155e-104
-7.63624e-101
-3.81033e-97
-2.18428e-93
-2.05614e-90
-4.77369e-87
-9.48006e-85
-1.77033e-80
-2.58132e-77
-7.88427e-75
-1.16056e-73
-5.28512e-73
-1.25047e-72
-1.84366e-72
-1.84592e-72
-1.3885e-72
-3.19787e-72
-2.33913e-70
-2.50111e-69
-9.16291e-69
-1.77164e-68
-1.00977e-67
-1.69062e-66
-4.10379e-66
-4.46831e-66
-2.80071e-66
-1.12644e-66
-3.0884e-67
-5.99623e-68
-8.45638e-69
-8.29583e-70
-6.60027e-71
-3.94537e-72
-1.77339e-73
-6.0064e-75
-1.53326e-76
-2.94102e-78
-4.21984e-80
-4.49662e-82
-3.52738e-84
-2.01534e-86
-8.27966e-89
-2.41091e-91
-4.89083e-94
-6.76869e-97
-6.22336e-100
-3.66744e-103
-1.3143e-106
-2.63497e-110
-2.54302e-114
-8.18669e-119
-2.29026e-171
-1.95374e-163
-2.52431e-156
-2.24041e-148
-4.29967e-142
-2.79e-132
-1.32494e-123
-6.42938e-116
-1.0092e-106
-9.42822e-103
-1.88703e-99
-8.38572e-96
-4.32643e-92
-3.63343e-89
-7.67517e-86
-1.40712e-83
-2.23579e-79
-3.08807e-76
-9.00084e-74
-1.27094e-72
-5.593e-72
-1.28421e-71
-1.84375e-71
-1.80306e-71
-1.31575e-71
-2.52982e-71
-1.75244e-69
-1.85203e-68
-6.70539e-68
-1.28348e-67
-7.61346e-67
-1.30579e-65
-3.17924e-65
-3.47287e-65
-2.18705e-65
-8.85366e-66
-2.44779e-66
-4.80106e-67
-6.85252e-68
-6.82208e-69
-5.51189e-70
-3.35151e-71
-1.53512e-72
-5.30766e-74
-1.38541e-75
-2.72149e-77
-4.00448e-79
-4.38096e-81
-3.53124e-83
-2.07393e-85
-8.75755e-88
-2.61911e-90
-5.44896e-93
-7.716e-96
-7.23578e-99
-4.33118e-102
-1.56845e-105
-3.15609e-109
-3.02421e-113
-9.47933e-118
-4.37349e-169
-1.41866e-161
-7.59109e-155
-1.30257e-146
-1.37301e-140
-1.48493e-130
-2.83776e-122
-1.33385e-114
-3.0933e-105
-2.52027e-101
-4.6011e-98
-1.82025e-94
-8.45243e-91
-6.33626e-88
-1.21746e-84
-2.06003e-82
-2.78374e-78
-3.64174e-75
-1.01286e-72
-1.37198e-71
-5.83553e-71
-1.30056e-70
-1.81864e-70
-1.73747e-70
-1.23248e-70
-1.99124e-70
-1.29272e-68
-1.35046e-67
-4.83318e-67
-9.16086e-67
-5.66018e-66
-9.95073e-65
-2.43091e-64
-2.66486e-64
-1.68661e-64
-6.87423e-65
-1.91698e-65
-3.79943e-66
-5.4898e-67
-5.548e-68
-4.55327e-69
-2.81712e-70
-1.31533e-71
-4.64406e-73
-1.24001e-74
-2.49574e-76
-3.76805e-78
-4.235e-80
-3.5102e-82
-2.12109e-84
-9.21553e-87
-2.83397e-89
-6.05408e-92
-8.78213e-95
-8.40775e-98
-5.11385e-101
-1.86985e-104
-3.7649e-108
-3.55229e-112
-1.0538e-116
-6.84469e-167
-9.55665e-160
-2.02351e-153
-6.82964e-145
-4.02456e-139
-7.05703e-129
-5.50713e-121
-2.6846e-113
-9.35698e-104
-6.64894e-100
-1.10668e-96
-3.89604e-93
-1.62834e-89
-1.09003e-86
-1.90458e-83
-2.97361e-81
-3.4161e-77
-4.23242e-74
-1.12315e-71
-1.45954e-70
-6.00137e-70
-1.29854e-69
-1.76893e-69
-1.65135e-69
-1.1406e-69
-1.56119e-69
-9.38679e-68
-9.69426e-67
-3.43037e-66
-6.44023e-66
-4.14806e-65
-7.47989e-64
-1.83412e-63
-2.01841e-63
-1.28424e-63
-5.27133e-64
-1.48311e-64
-2.97117e-65
-4.34717e-66
-4.46085e-67
-3.71981e-68
-2.34241e-69
-1.11517e-70
-4.02205e-72
-1.09896e-73
-2.26717e-75
-3.51388e-77
-4.05962e-79
-3.46245e-81
-2.15439e-83
-9.63999e-86
-3.05168e-88
-6.7022e-91
-9.97235e-94
-9.75833e-97
-6.03608e-100
-2.22866e-103
-4.48412e-107
-4.15109e-111
-1.16298e-115
-1.82676e-164
-5.32924e-158
-4.70824e-152
-3.06193e-143
-1.05208e-137
-2.93511e-127
-9.59076e-120
-5.2734e-112
-2.79277e-102
-1.73084e-98
-2.62517e-95
-8.22074e-92
-3.09254e-88
-1.84928e-85
-2.93755e-82
-4.23089e-80
-4.13095e-76
-4.84657e-73
-1.22704e-70
-1.5298e-69
-6.08213e-69
-1.27792e-68
-1.69626e-68
-1.54766e-68
-1.04236e-68
-1.22054e-68
-6.70766e-67
-6.84889e-66
-2.39676e-65
-4.45824e-65
-2.99571e-64
-5.54484e-63
-1.3652e-62
-1.50867e-62
-9.65287e-63
-3.99132e-63
-1.13331e-63
-2.29545e-64
-3.40172e-65
-3.5453e-66
-3.00457e-67
-1.92616e-68
-9.35268e-70
-3.44675e-71
-9.64021e-73
-2.03927e-74
-3.24603e-76
-3.85687e-78
-3.38703e-80
-2.17168e-82
-1.00168e-84
-3.26765e-87
-7.38695e-90
-1.12887e-92
-1.13057e-95
-7.12013e-99
-2.6565e-102
-5.3402e-106
-4.84554e-110
-1.28334e-114
-4.98644e-163
-2.92822e-156
-9.2899e-151
-1.10537e-141
-2.38336e-136
-1.04031e-125
-1.48941e-118
-1.02364e-110
-8.22402e-101
-4.44528e-97
-6.1399e-94
-1.70955e-90
-5.78856e-87
-3.09288e-84
-4.46537e-81
-5.93139e-79
-4.92112e-75
-5.46667e-72
-1.32034e-69
-1.57936e-68
-6.07264e-68
-1.23928e-67
-1.60319e-67
-1.42992e-67
-9.40227e-68
-9.52302e-68
-4.71567e-66
-4.76065e-65
-1.64799e-64
-3.03804e-64
-2.13137e-63
-4.05252e-62
-1.00224e-61
-1.11257e-61
-7.16049e-62
-2.98341e-62
-8.55141e-63
-1.7516e-63
-2.62983e-64
-2.78441e-65
-2.39878e-66
-1.56593e-67
-7.75687e-69
-2.92172e-70
-8.36729e-72
-1.81552e-73
-2.96904e-75
-3.62978e-77
-3.2839e-79
-2.17119e-81
-1.03317e-83
-3.47663e-86
-8.09938e-89
-1.27296e-91
-1.30669e-94
-8.39077e-98
-3.16734e-101
-6.36661e-105
-5.66546e-109
-1.41896e-113
-6.10472e-161
-7.95756e-155
-1.47197e-149
-2.94846e-140
-4.52556e-135
-3.02485e-124
-2.08952e-117
-2.01425e-109
-2.38893e-99
-1.12615e-95
-1.4156e-92
-3.50294e-89
-1.0676e-85
-5.09782e-83
-6.68776e-80
-8.19075e-78
-5.77391e-74
-6.07217e-71
-1.39895e-68
-1.60561e-67
-5.97173e-67
-1.18394e-66
-1.49302e-66
-1.30207e-66
-8.36714e-67
-7.41943e-67
-3.26068e-65
-3.25472e-64
-1.11478e-63
-2.03731e-63
-1.49343e-62
-2.91933e-61
-7.25504e-61
-8.09278e-61
-5.24081e-61
-2.2009e-61
-6.36996e-62
-1.31985e-62
-2.00809e-63
-2.16046e-64
-1.89248e-65
-1.25828e-66
-6.36004e-68
-2.44902e-69
-7.18322e-71
-1.59914e-72
-2.68774e-74
-3.38227e-76
-3.15398e-78
-2.15162e-80
-1.05708e-82
-3.67271e-85
-8.82762e-88
-1.42884e-90
-1.50563e-93
-9.87454e-97
-3.77768e-100
-7.60559e-104
-6.64996e-108
-1.57826e-112
-9.58333e-161
-1.99167e-154
-1.71897e-148
-4.99953e-139
-6.92194e-134
-6.82616e-123
-2.90904e-116
-4.21183e-108
-6.84444e-98
-2.81371e-94
-3.2165e-91
-7.07047e-88
-1.93954e-84
-8.27775e-82
-9.86496e-79
-1.11371e-76
-6.67022e-73
-6.63998e-70
-1.45907e-67
-1.60687e-66
-5.78222e-66
-1.11393e-65
-1.36966e-65
-1.16821e-65
-7.34285e-66
-5.77319e-66
-2.21687e-64
-2.18782e-63
-7.41627e-63
-1.34403e-62
-1.03021e-61
-2.07225e-60
-5.177e-60
-5.80481e-60
-3.78363e-60
-1.60202e-60
-4.68309e-61
-9.818e-62
-1.5141e-62
-1.65568e-63
-1.47496e-64
-9.99042e-66
-5.15375e-67
-2.02921e-68
-6.09723e-70
-1.39304e-71
-2.407e-73
-3.11895e-75
-2.99911e-77
-2.1122e-79
-1.07214e-81
-3.84951e-84
-9.55665e-87
-1.59518e-89
-1.72832e-92
-1.15985e-95
-4.50648e-99
-9.1089e-103
-7.84864e-107
-1.77297e-111
-3.44147e-159
-1.5682e-153
-1.33495e-147
-3.75208e-138
-8.25156e-133
-1.10577e-121
-5.2957e-115
-9.97789e-107
-1.93371e-96
-6.93197e-93
-7.20084e-90
-1.40545e-86
-3.46999e-83
-1.32375e-80
-1.4327e-77
-1.49058e-75
-7.585e-72
-7.14604e-69
-1.49754e-66
-1.5826e-65
-5.51099e-65
-1.03187e-64
-1.23735e-64
-1.03238e-64
-6.35199e-65
-4.48541e-65
-1.48152e-63
-1.44547e-62
-4.85052e-62
-8.7196e-62
-6.99399e-61
-1.44899e-59
-3.6405e-59
-4.10466e-59
-2.69373e-59
-1.15026e-59
-3.39711e-60
-7.20797e-61
-1.12699e-61
-1.25287e-62
-1.13532e-63
-7.83542e-65
-4.1261e-66
-1.6615e-67
-5.11531e-69
-1.19967e-70
-2.13158e-72
-2.84498e-74
-2.82204e-76
-2.05285e-78
-1.07727e-80
-4.00044e-83
-1.02685e-85
-1.7699e-88
-1.97495e-91
-1.35886e-94
-5.37499e-98
-1.09392e-101
-9.32427e-106
-2.01623e-110
-5.44739e-159
-6.23548e-153
-6.55819e-147
-5.39288e-140
-8.99989e-132
-1.2736e-120
-1.55002e-113
-2.7938e-105
-5.38676e-95
-1.68367e-91
-1.5879e-88
-2.75044e-85
-6.11166e-82
-2.08402e-79
-2.04786e-76
-1.96296e-74
-8.48749e-71
-7.56658e-68
-1.51204e-65
-1.53346e-64
-5.16847e-64
-9.40779e-64
-1.10045e-63
-8.98365e-64
-5.41415e-64
-3.47728e-64
-9.72941e-63
-9.38292e-62
-3.11771e-61
-5.56113e-61
-4.67113e-60
-9.97738e-59
-2.52206e-58
-2.86045e-58
-1.89064e-58
-8.14452e-59
-2.43079e-59
-5.22124e-60
-8.27868e-61
-9.35845e-62
-8.6281e-63
-6.06849e-64
-3.26267e-65
-1.34389e-66
-4.24015e-68
-1.02098e-69
-1.86586e-71
-2.56579e-73
-2.62634e-75
-1.97418e-77
-1.07165e-79
-4.11901e-82
-1.09425e-84
-1.95008e-87
-2.24472e-90
-1.58679e-93
-6.40633e-97
-1.31713e-100
-1.11555e-104
-2.32437e-109
-4.97221e-174
-1.84973e-167
-2.57863e-156
-1.5876e-138
-2.24855e-130
-2.25162e-119
-5.88416e-112
-9.05888e-104
-1.47923e-93
-4.03069e-90
-3.44815e-87
-5.29776e-84
-1.05942e-80
-3.22889e-78
-2.87985e-75
-2.5426e-73
-9.34277e-70
-7.88e-67
-1.50137e-64
-1.46128e-63
-4.76811e-63
-8.4392e-63
-9.63155e-63
-7.69507e-63
-4.54511e-63
-2.68704e-63
-6.27698e-62
-5.98175e-61
-1.9686e-60
-3.48529e-60
-3.06794e-59
-6.76315e-58
-1.72077e-57
-1.96393e-57
-1.3078e-57
-5.68518e-58
-1.7152e-58
-3.7306e-59
-5.99996e-60
-6.89839e-61
-6.47204e-62
-4.63985e-63
-2.54731e-64
-1.07343e-65
-3.4714e-67
-8.58344e-69
-1.61372e-70
-2.28685e-72
-2.41626e-74
-1.87753e-76
-1.05481e-78
-4.1992e-81
-1.15562e-83
-2.13192e-86
-2.53558e-89
-1.84535e-92
-7.62479e-96
-1.58929e-99
-1.34405e-103
-2.71829e-108
-1.62379e-172
-2.48085e-165
-3.55608e-154
-1.25779e-136
-1.2972e-128
-9.93353e-118
-2.35539e-110
-3.20207e-102
-4.0041e-92
-9.50809e-89
-7.3716e-86
-1.00401e-82
-1.80678e-79
-4.92144e-77
-3.98282e-74
-3.23804e-72
-1.01133e-68
-8.06845e-66
-1.46552e-63
-1.36898e-62
-4.32538e-62
-7.44575e-62
-8.29305e-62
-6.48584e-62
-3.75636e-62
-2.0669e-62
-3.97725e-61
-3.7437e-60
-1.2206e-59
-2.1456e-59
-1.9807e-58
-4.51138e-57
-1.15588e-56
-1.32803e-56
-8.91277e-57
-3.91108e-57
-1.19311e-57
-2.62842e-58
-4.28896e-59
-5.01652e-60
-4.79028e-61
-3.50102e-62
-1.96302e-63
-8.46409e-65
-2.806e-66
-7.12573e-68
-1.3784e-69
-2.01343e-71
-2.19648e-73
-1.76492e-75
-1.02667e-77
-4.23587e-80
-1.2086e-82
-2.31077e-85
-2.84399e-88
-2.13534e-91
-9.05453e-95
-1.92043e-98
-1.63007e-102
-3.22504e-107
-4.63148e-170
-3.40235e-163
-4.84634e-152
-1.07663e-134
-8.25627e-127
-4.35063e-116
-9.39761e-109
-1.17055e-100
-1.06791e-90
-2.20953e-87
-1.55087e-84
-1.87153e-81
-3.03056e-78
-7.37654e-76
-5.41489e-73
-4.05274e-71
-1.07617e-67
-8.11953e-65
-1.40576e-62
-1.26038e-61
-3.85684e-61
-6.4587e-61
-7.022e-61
-5.3771e-61
-3.05502e-61
-1.58016e-61
-2.47444e-60
-2.29914e-59
-7.42837e-59
-1.2969e-58
-1.25647e-57
-2.96031e-56
-7.64144e-56
-8.84163e-56
-5.98245e-56
-2.65084e-56
-8.17913e-57
-1.82552e-57
-3.02296e-58
-3.59776e-59
-3.49732e-60
-2.60621e-61
-1.49264e-62
-6.58616e-64
-2.23858e-65
-5.83923e-67
-1.16237e-68
-1.75037e-70
-1.97197e-72
-1.63898e-74
-9.87567e-77
-4.22513e-79
-1.25084e-81
-2.48118e-84
-3.1647e-87
-2.45626e-90
-1.07178e-93
-2.32175e-97
-1.98844e-101
-3.87956e-106
-4.34876e-168
-4.33793e-161
-6.52662e-150
-9.16209e-133
-5.21431e-125
-1.89391e-114
-3.70896e-107
-4.29598e-99
-2.80541e-89
-5.05681e-86
-3.2098e-83
-3.43011e-80
-4.99747e-77
-1.08681e-74
-7.23398e-72
-4.98296e-70
-1.1253e-66
-8.0274e-64
-1.32455e-61
-1.13991e-60
-3.37904e-60
-5.50601e-60
-5.84471e-60
-4.38316e-60
-2.44394e-60
-1.19867e-60
-1.51127e-59
-1.38492e-58
-4.4353e-58
-7.69335e-58
-7.82806e-57
-1.91013e-55
-4.96987e-55
-5.79353e-55
-3.95357e-55
-1.76951e-55
-5.52392e-56
-1.24942e-56
-2.10015e-57
-2.54386e-58
-2.5178e-59
-1.9134e-60
-1.11951e-61
-5.05565e-63
-1.76198e-64
-4.72143e-66
-9.67289e-68
-1.50186e-69
-1.74765e-71
-1.50283e-73
-9.38299e-76
-4.16472e-78
-1.28018e-80
-2.63714e-83
-3.49062e-86
-2.80593e-89
-1.26323e-92
-2.80526e-96
-2.43693e-100
-4.72675e-105
-7.6272e-166
-5.10136e-159
-8.68342e-148
-7.69706e-131
-3.25834e-123
-8.20272e-113
-1.44715e-105
-1.56147e-97
-7.25734e-88
-1.13941e-84
-6.53306e-82
-6.17891e-79
-8.09888e-76
-1.57331e-73
-9.49213e-71
-6.01597e-69
-1.15579e-65
-7.79365e-63
-1.22541e-60
-1.01233e-59
-2.90755e-59
-4.61105e-59
-4.7801e-59
-3.51155e-59
-1.9222e-59
-9.00715e-60
-9.05979e-59
-8.17849e-58
-2.5969e-57
-4.47686e-57
-4.78763e-56
-1.21146e-54
-3.17874e-54
-3.73489e-54
-2.57149e-54
-1.16294e-54
-3.6741e-55
-8.42386e-56
-1.43766e-56
-1.77272e-57
-1.78678e-58
-1.38494e-59
-8.2791e-61
-3.827e-62
-1.36776e-63
-3.76544e-65
-7.94029e-67
-1.27129e-68
-1.52824e-70
-1.35994e-72
-8.80062e-75
-4.05427e-77
-1.29476e-79
-2.7723e-82
-3.8129e-85
-3.18006e-88
-1.48086e-91
-3.38319e-95
-2.99634e-99
-5.82384e-104
-1.43602e-163
-5.48038e-157
-1.14118e-145
-6.38377e-129
-2.01318e-121
-3.53845e-111
-5.58303e-104
-5.59103e-96
-1.84822e-86
-2.52675e-83
-1.30711e-80
-1.0935e-77
-1.28932e-74
-2.23686e-72
-1.22276e-69
-7.12846e-68
-1.16555e-64
-7.42738e-62
-1.11264e-59
-8.82381e-59
-2.45604e-58
-3.79175e-58
-3.83962e-58
-2.7637e-58
-1.48571e-58
-6.69345e-59
-5.33057e-58
-4.73255e-57
-1.49028e-56
-2.55427e-56
-2.87303e-55
-7.54905e-54
-1.99861e-53
-2.3679e-53
-1.6455e-53
-7.52189e-54
-2.40579e-54
-5.59293e-55
-9.69378e-56
-1.21707e-56
-1.24948e-57
-9.87938e-59
-6.0349e-60
-2.85574e-61
-1.04674e-62
-2.96083e-64
-6.427e-66
-1.06119e-67
-1.31799e-69
-1.21391e-71
-8.14418e-74
-3.89547e-76
-1.29318e-78
-2.88035e-81
-4.12102e-84
-3.572e-87
-1.72459e-90
-4.06711e-94
-3.69038e-98
-7.24266e-103
-1.25491e-161
-5.31283e-155
-1.48096e-143
-5.2263e-127
-1.22936e-119
-1.52174e-109
-2.12982e-102
-1.9682e-94
-4.63204e-85
-5.51258e-82
-2.56974e-79
-1.90041e-76
-2.01543e-73
-3.12195e-71
-1.5456e-68
-8.286e-67
-1.1535e-63
-6.94472e-61
-9.91007e-59
-7.54519e-58
-2.0357e-57
-3.06021e-57
-3.0277e-57
-2.13579e-57
-1.12793e-57
-4.91148e-58
-3.07843e-57
-2.68205e-56
-8.37797e-56
-1.42813e-55
-1.69079e-54
-4.61974e-53
-1.23474e-52
-1.47578e-52
-1.03551e-52
-4.78627e-53
-1.55025e-53
-3.65536e-54
-6.4358e-55
-8.22937e-56
-8.6068e-57
-6.94298e-58
-4.33438e-59
-2.09987e-60
-7.89436e-62
-2.29454e-63
-5.12737e-65
-8.73154e-67
-1.12053e-68
-1.0683e-70
-7.4321e-73
-3.69206e-75
-1.27466e-77
-2.95541e-80
-4.40324e-83
-3.97248e-86
-1.99287e-89
-4.86666e-93
-4.54494e-97
-9.07165e-102
-1.13352e-159
-4.57502e-153
-1.89742e-141
-4.22363e-125
-7.41711e-118
-6.53021e-108
-8.03472e-101
-6.80755e-93
-1.14201e-83
-1.18272e-80
-4.96192e-78
-3.24185e-75
-3.09204e-72
-4.27527e-70
-1.91606e-67
-9.44333e-66
-1.11979e-62
-6.36767e-60
-8.65429e-58
-6.32625e-57
-1.6548e-56
-2.4228e-56
-2.34258e-56
-1.61989e-56
-8.40658e-57
-3.55339e-57
-1.74529e-56
-1.48783e-55
-4.61132e-55
-7.82064e-55
-9.75306e-54
-2.77511e-52
-7.49213e-52
-9.03788e-52
-6.40585e-52
-2.99494e-52
-9.82678e-53
-2.35077e-53
-4.20546e-54
-5.47801e-55
-5.83768e-56
-4.80523e-57
-3.06612e-58
-1.52094e-59
-5.86515e-61
-1.75182e-62
-4.03011e-64
-7.07859e-66
-9.38686e-68
-9.26483e-70
-6.68464e-72
-3.44977e-74
-1.23913e-76
-2.99254e-79
-4.64715e-82
-4.36966e-85
-2.28229e-88
-5.78799e-92
-5.58696e-96
-1.1417e-100
-9.01298e-158
-3.42709e-151
-2.39923e-139
-3.36927e-123
-4.41958e-116
-2.79796e-106
-2.99762e-99
-2.31298e-91
-2.76869e-82
-2.49432e-79
-9.40555e-77
-5.42548e-74
-4.65342e-71
-5.74151e-69
-2.32831e-66
-1.05463e-64
-1.06575e-61
-5.72248e-59
-7.40605e-57
-5.19821e-56
-1.31856e-55
-1.88066e-55
-1.77748e-55
-1.20515e-55
-6.14767e-56
-2.53139e-56
-9.71747e-56
-8.07449e-55
-2.48357e-54
-4.1922e-54
-5.51125e-53
-1.63556e-51
-4.46284e-51
-5.43622e-51
-3.89375e-51
-1.84211e-51
-6.12494e-52
-1.48698e-52
-2.70366e-53
-3.5885e-54
-3.89723e-55
-3.2739e-56
-2.13543e-57
-1.0847e-58
-4.29092e-60
-1.31709e-61
-3.11955e-63
-5.65163e-65
-7.74482e-67
-7.91416e-69
-5.92273e-71
-3.17596e-73
-1.18725e-75
-2.9881e-78
-4.84042e-81
-4.74941e-84
-2.58727e-87
-6.83182e-91
-6.84233e-95
-1.44022e-99
-7.06097e-156
-2.17003e-149
-2.99321e-137
-2.65314e-121
-2.59991e-114
-1.19738e-104
-1.10609e-97
-7.71949e-90
-6.59779e-81
-5.16842e-78
-1.74932e-75
-8.90335e-73
-6.86627e-70
-7.55756e-68
-2.77169e-65
-1.15351e-63
-9.93901e-61
-5.03757e-58
-6.20721e-56
-4.18361e-55
-1.02929e-54
-1.4305e-54
-1.32191e-54
-8.79004e-55
-4.4087e-55
-1.77345e-55
-5.31685e-55
-4.28452e-54
-1.30807e-53
-2.1984e-53
-3.04905e-52
-9.4526e-51
-2.60844e-50
-3.21002e-50
-2.32451e-50
-1.11322e-50
-3.75218e-51
-9.24744e-52
-1.70935e-52
-2.31236e-53
-2.55983e-54
-2.19494e-55
-1.46367e-56
-7.61396e-58
-3.08997e-59
-9.74758e-61
-2.37704e-62
-4.44205e-64
-6.29068e-66
-6.65561e-68
-5.16676e-70
-2.87927e-72
-1.12049e-74
-2.94021e-77
-4.97172e-80
-5.09583e-83
-2.89989e-86
-7.99145e-90
-8.33314e-94
-1.8165e-98
-8.64035e-154
-1.11415e-147
-3.68299e-135
-2.06233e-119
-1.50939e-112
-5.11771e-103
-4.03666e-96
-2.53048e-88
-1.54469e-79
-1.05168e-76
-3.19058e-74
-1.43185e-71
-9.92768e-69
-9.745e-67
-3.23043e-64
-1.23489e-62
-9.07705e-60
-4.34146e-57
-5.09217e-55
-3.29596e-54
-7.86685e-54
-1.0656e-53
-9.63019e-54
-6.28169e-54
-3.09858e-54
-1.22046e-54
-2.86128e-54
-2.22156e-53
-6.73301e-53
-1.1271e-52
-1.65051e-51
-5.35426e-50
-1.49515e-49
-1.85987e-49
-1.36224e-49
-6.60668e-50
-2.25817e-50
-5.65156e-51
-1.06233e-51
-1.4651e-52
-1.65357e-53
-1.44746e-54
-9.86911e-56
-5.25812e-57
-2.18932e-58
-7.09823e-60
-1.78224e-61
-3.43545e-63
-5.02782e-65
-5.5078e-67
-4.43555e-69
-2.56903e-71
-1.04098e-73
-2.84898e-76
-5.03165e-79
-5.3922e-82
-3.20992e-85
-9.25076e-89
-1.00739e-92
-2.28509e-97
-1.00709e-152
-4.34401e-146
-4.46777e-133
-1.58258e-117
-8.64447e-111
-2.18366e-101
-1.45704e-94
-8.14647e-87
-3.55135e-78
-2.10036e-75
-5.70339e-73
-2.25533e-70
-1.4057e-67
-1.23018e-65
-3.68396e-63
-1.29314e-61
-8.11323e-59
-3.66063e-56
-4.08633e-54
-2.54027e-53
-5.88334e-53
-7.76905e-53
-6.86807e-53
-4.39575e-53
-2.13302e-53
-8.24147e-54
-1.51635e-53
-1.12492e-52
-3.38473e-52
-5.64576e-52
-8.73646e-51
-2.97072e-49
-8.40023e-49
-1.0568e-48
-7.83278e-49
-3.84863e-49
-1.33448e-49
-3.39265e-50
-6.48688e-51
-9.12321e-52
-1.05002e-52
-9.3848e-54
-6.54345e-55
-3.57097e-56
-1.52556e-57
-5.08378e-59
-1.31428e-60
-2.61324e-62
-3.95238e-64
-4.48298e-66
-3.7453e-68
-2.25476e-70
-9.51457e-73
-2.71665e-75
-5.01369e-78
-5.62205e-81
-3.50508e-84
-1.05826e-87
-1.2067e-91
-2.8602e-96
-6.17e-151
-1.14184e-144
-5.34134e-131
-1.199e-115
-4.88188e-109
-9.29343e-100
-5.20121e-93
-2.57517e-85
-8.01356e-77
-4.11478e-74
-9.98605e-72
-3.4771e-69
-1.94799e-66
-1.51939e-64
-4.10791e-62
-1.32369e-60
-7.09265e-58
-3.01783e-55
-3.20552e-53
-1.91407e-52
-4.30253e-52
-5.54017e-52
-4.79205e-52
-3.0101e-52
-1.43723e-52
-5.45532e-53
-7.92572e-53
-5.55944e-52
-1.66063e-51
-2.76112e-51
-4.5188e-50
-1.61354e-48
-4.62327e-48
-5.88573e-48
-4.4166e-48
-2.19952e-48
-7.73983e-49
-1.99949e-49
-3.89001e-50
-5.58081e-51
-6.55149e-52
-5.9798e-53
-4.26418e-54
-2.38388e-55
-1.04501e-56
-3.57944e-58
-9.52819e-60
-1.95423e-61
-3.05444e-63
-3.58711e-65
-3.10896e-67
-1.94553e-69
-8.55046e-72
-2.54758e-74
-4.91498e-77
-5.77055e-80
-3.77165e-83
-1.19481e-86
-1.42983e-90
-3.55407e-95
-2.38884e-149
-1.51528e-143
-6.29107e-129
-8.97061e-114
-2.7177e-107
-3.94037e-98
-1.83599e-91
-7.99129e-84
-1.77381e-75
-7.90282e-73
-1.71148e-70
-5.24361e-68
-2.6402e-65
-1.83483e-63
-4.47587e-61
-1.32357e-59
-6.06027e-57
-2.43082e-54
-2.45639e-52
-1.40904e-51
-3.07472e-51
-3.86159e-51
-3.2689e-51
-2.01569e-51
-9.47238e-52
-3.53627e-52
-4.09329e-52
-2.67991e-51
-7.94572e-51
-1.31744e-50
-2.28231e-49
-8.57386e-48
-2.49115e-47
-3.21112e-47
-2.44079e-47
-1.23257e-47
-4.4034e-48
-1.15635e-48
-2.28974e-49
-3.352e-50
-4.0146e-51
-3.74272e-52
-2.73001e-53
-1.56361e-54
-7.03383e-56
-2.4765e-57
-6.78787e-59
-1.43605e-60
-2.3195e-62
-2.82033e-64
-2.53578e-66
-1.64948e-68
-7.55073e-71
-2.34794e-73
-4.73679e-76
-5.82589e-79
-3.9953e-82
-1.32968e-85
-1.67321e-89
-4.37478e-94
-5.50186e-157
-5.02095e-148
-7.29651e-127
-6.62915e-112
-1.49055e-105
-1.66184e-96
-6.40692e-90
-2.43367e-82
-3.84929e-74
-1.48705e-71
-2.86923e-69
-7.72932e-67
-3.49734e-64
-2.16494e-62
-4.76175e-60
-1.29185e-58
-5.05741e-56
-1.91166e-53
-1.83743e-51
-1.01266e-50
-2.14565e-50
-2.62898e-50
-2.17854e-50
-1.31902e-50
-6.1021e-51
-2.24268e-51
-2.09301e-51
-1.25932e-50
-3.70485e-50
-6.12812e-50
-1.12478e-48
-4.45419e-47
-1.31333e-46
-1.71515e-46
-1.32126e-46
-6.76893e-47
-2.4561e-47
-6.55872e-48
-1.32226e-48
-1.97583e-49
-2.41485e-50
-2.29994e-51
-1.71628e-52
-1.0072e-53
-4.64982e-55
-1.68288e-56
-4.74957e-58
-1.03647e-59
-1.72996e-61
-2.17779e-63
-2.03121e-65
-1.37339e-67
-6.54842e-70
-2.12539e-72
-4.4847e-75
-5.78059e-78
-4.16223e-81
-1.45685e-84
-1.93081e-88
-5.3237e-93
-1.79032e-155
-6.9389e-146
-8.33006e-125
-4.84061e-110
-8.05114e-104
-6.95937e-95
-2.20957e-88
-7.27079e-81
-8.18447e-73
-2.73964e-70
-4.70179e-68
-1.11282e-65
-4.52447e-63
-2.49403e-61
-4.94256e-59
-1.22983e-57
-4.11896e-55
-1.46668e-52
-1.34062e-50
-7.09986e-50
-1.46102e-49
-1.74687e-49
-1.41738e-49
-8.42827e-50
-3.83936e-50
-1.3902e-50
-1.06169e-50
-5.76544e-50
-1.68203e-49
-2.77663e-49
-5.40466e-48
-2.26076e-46
-6.76994e-46
-8.96319e-46
-7.00173e-46
-3.64078e-46
-1.34233e-46
-3.64641e-47
-7.48693e-48
-1.14236e-48
-1.42515e-49
-1.38693e-50
-1.05898e-51
-6.36841e-53
-3.01748e-54
-1.12267e-55
-3.26261e-57
-7.34388e-59
-1.26662e-60
-1.65074e-62
-1.59706e-64
-1.12239e-66
-5.57417e-69
-1.88846e-71
-4.16837e-74
-5.63247e-77
-4.26041e-80
-1.56967e-83
-2.19398e-87
-6.3927e-92
-1.75214e-153
-9.32613e-144
-9.35725e-123
-3.49384e-108
-4.28113e-102
-2.88876e-93
-7.52698e-87
-2.1301e-79
-1.70401e-71
-4.93846e-69
-7.52555e-67
-1.56365e-64
-5.71196e-62
-2.80304e-60
-5.00128e-58
-1.14103e-56
-3.2713e-54
-1.09692e-51
-9.53297e-50
-4.85219e-49
-9.69962e-49
-1.13199e-48
-8.99541e-49
-5.25461e-49
-2.35749e-49
-8.41522e-50
-5.35157e-50
-2.57036e-49
-7.42941e-49
-1.22442e-48
-2.52998e-47
-1.12027e-45
-3.40988e-45
-4.57992e-45
-3.63e-45
-1.91679e-45
-7.18404e-46
-1.986e-46
-4.1544e-47
-6.47493e-48
-8.24747e-49
-8.20309e-50
-6.40983e-51
-3.95055e-52
-1.92133e-53
-7.34887e-55
-2.19913e-56
-5.10581e-58
-9.09925e-60
-1.22763e-61
-1.23191e-63
-8.99826e-66
-4.65449e-68
-1.64599e-70
-3.8009e-73
-5.38526e-76
-4.28091e-79
-1.66134e-82
-2.4516e-86
-7.56166e-91
-1.97985e-151
-1.21707e-141
-1.03381e-120
-2.4941e-106
-2.24022e-100
-1.18635e-91
-2.53095e-85
-6.11563e-78
-3.47165e-70
-8.70351e-68
-1.17556e-65
-2.14252e-63
-7.03128e-61
-3.07096e-59
-4.92926e-57
-1.03085e-55
-2.53139e-53
-7.99022e-51
-6.60099e-49
-3.22971e-48
-6.27325e-48
-7.14779e-48
-5.56429e-48
-3.19371e-48
-1.41152e-48
-4.96953e-49
-2.68341e-49
-1.11544e-48
-3.18966e-48
-5.2501e-48
-1.15277e-46
-5.4155e-45
-1.67697e-44
-2.28662e-44
-1.83996e-44
-9.87154e-45
-3.76282e-45
-1.05902e-45
-2.25774e-46
-3.5958e-47
-4.67769e-48
-4.75604e-49
-3.80389e-50
-2.40308e-51
-1.19973e-52
-4.71777e-54
-1.45376e-55
-3.48138e-57
-6.41054e-59
-8.95269e-61
-9.31759e-63
-7.07297e-65
-3.81031e-67
-1.40646e-69
-3.39782e-72
-5.04857e-75
-4.21893e-78
-1.7255e-81
-2.69058e-85
-8.79666e-90
-1.9746e-149
-1.5411e-139
-1.12288e-118
-1.76177e-104
-1.15319e-98
-4.81102e-90
-8.39487e-84
-1.72006e-76
-6.91649e-69
-1.49858e-66
-1.7907e-64
-2.8602e-62
-8.43216e-60
-3.27695e-58
-4.72782e-56
-9.06042e-55
-1.90684e-52
-5.66365e-50
-4.44692e-48
-2.09193e-47
-3.94902e-47
-4.3941e-47
-3.35175e-47
-1.89069e-47
-8.23348e-48
-2.86024e-48
-1.33873e-48
-4.71054e-48
-1.32984e-47
-2.18684e-47
-5.10804e-46
-2.55189e-44
-8.04681e-44
-1.11471e-43
-9.11205e-44
-4.96984e-44
-1.92759e-44
-5.52548e-45
-1.20099e-45
-1.95539e-46
-2.59863e-47
-2.70156e-48
-2.21204e-49
-1.43261e-50
-7.3427e-52
-2.96873e-53
-9.42021e-55
-2.3268e-56
-4.42675e-58
-6.39898e-60
-6.9065e-62
-5.44794e-64
-3.05629e-66
-1.17745e-68
-2.97592e-71
-4.63728e-74
-4.07462e-77
-1.75695e-80
-2.89674e-84
-1.00495e-88
-1.63891e-147
-1.89252e-137
-1.19852e-116
-1.23218e-102
-5.83832e-97
-1.92322e-88
-2.7442e-82
-4.73591e-75
-1.34646e-67
-2.51884e-65
-2.65762e-63
-3.71669e-61
-9.84256e-59
-3.40274e-57
-4.40865e-55
-7.74009e-54
-1.39693e-51
-3.9028e-49
-2.91184e-47
-1.31731e-46
-2.41739e-46
-2.62746e-46
-1.96429e-46
-1.08921e-46
-4.67448e-47
-1.60282e-47
-6.63901e-48
-1.93571e-47
-5.37903e-47
-8.8397e-47
-2.19908e-45
-1.17121e-43
-3.76441e-43
-5.30202e-43
-4.4058e-43
-2.44428e-43
-9.65139e-44
-2.81904e-44
-6.24938e-45
-1.04061e-45
-1.41318e-46
-1.50255e-47
-1.25978e-48
-8.36544e-50
-4.40231e-51
-1.83015e-52
-5.98028e-54
-1.52354e-55
-2.99463e-57
-4.48026e-59
-5.01424e-61
-4.10966e-63
-2.40062e-65
-9.65179e-68
-2.5519e-70
-4.17042e-73
-3.85336e-76
-1.7522e-79
-3.05604e-83
-1.12591e-87
-1.09396e-145
-2.25393e-135
-1.25655e-114
-8.53733e-101
-2.90651e-95
-7.56602e-87
-8.83219e-81
-1.27569e-73
-2.55926e-66
-4.12948e-64
-3.83943e-62
-4.69664e-60
-1.11721e-57
-3.43519e-56
-3.99286e-54
-6.4203e-53
-9.94287e-51
-2.61195e-48
-1.85142e-46
-8.05684e-46
-1.43762e-45
-1.5267e-45
-1.11891e-45
-6.10022e-46
-2.58053e-46
-8.73597e-47
-3.26645e-47
-7.74197e-47
-2.10873e-46
-3.4639e-46
-9.18901e-45
-5.23088e-43
-1.71552e-42
-2.4587e-42
-2.07835e-42
-1.17357e-42
-4.72004e-43
-1.40545e-43
-3.179e-44
-5.41613e-45
-7.51833e-46
-8.17755e-47
-7.02211e-48
-4.78189e-49
-2.58409e-50
-1.10468e-51
-3.71733e-53
-9.76777e-55
-1.98347e-56
-3.07106e-58
-3.56368e-60
-3.03441e-62
-1.84538e-64
-7.742e-67
-2.14112e-69
-3.66953e-72
-3.56547e-75
-1.71001e-78
-3.15603e-82
-1.23552e-86
-6.11161e-144
-2.60512e-133
-1.29338e-112
-5.8624e-99
-1.42274e-93
-2.92475e-85
-2.79592e-79
-3.35949e-72
-4.74535e-65
-6.59731e-63
-5.39421e-61
-5.76571e-59
-1.23193e-56
-3.36835e-55
-3.50869e-53
-5.16564e-52
-6.86857e-50
-1.69594e-47
-1.14187e-45
-4.78123e-45
-8.29745e-45
-8.61154e-45
-6.18863e-45
-3.31804e-45
-1.38376e-45
-4.62604e-46
-1.58994e-46
-3.0155e-46
-8.00398e-46
-1.31434e-45
-3.72294e-44
-2.27141e-42
-7.60958e-42
-1.11074e-41
-9.55812e-42
-5.49678e-42
-2.25312e-42
-6.84261e-43
-1.57987e-43
-2.75524e-44
-3.91056e-45
-4.35233e-46
-3.82865e-47
-2.67421e-48
-1.48415e-49
-6.5248e-51
-2.26119e-52
-6.12819e-54
-1.28555e-55
-2.05976e-57
-2.47794e-59
-2.1917e-61
-1.38748e-63
-6.07309e-66
-1.75659e-68
-3.1568e-71
-3.22542e-74
-1.63166e-77
-3.18731e-81
-1.32637e-85
-2.94236e-142
-2.92787e-131
-1.30629e-110
-3.99029e-97
-6.84789e-92
-1.10936e-83
-8.69595e-78
-8.6436e-71
-8.57519e-64
-1.02611e-61
-7.36288e-60
-6.86905e-58
-1.31832e-55
-3.20477e-54
-2.98825e-52
-4.02697e-51
-4.60001e-49
-1.06716e-46
-6.82386e-45
-2.75013e-44
-4.64293e-44
-4.71046e-44
-3.32008e-44
-1.75088e-44
-7.19977e-45
-2.37733e-45
-7.63015e-46
-1.14505e-45
-2.93839e-45
-4.8234e-45
-1.46089e-43
-9.58053e-42
-3.28259e-41
-4.88439e-41
-4.28211e-41
-2.50975e-41
-1.04907e-41
-3.25115e-42
-7.66571e-43
-1.36905e-43
-1.98729e-44
-2.2638e-45
-2.04055e-46
-1.46218e-47
-8.33535e-49
-3.76889e-50
-1.34518e-51
-3.76016e-53
-8.14837e-55
-1.35093e-56
-1.6847e-58
-1.54764e-60
-1.01971e-62
-4.65591e-65
-1.40821e-67
-2.65332e-70
-2.85047e-73
-1.52094e-76
-3.14482e-80
-1.39145e-84
-7.14992e-141
-3.21236e-129
-1.29377e-108
-2.69186e-95
-3.24122e-90
-4.12331e-82
-2.65438e-76
-2.17129e-69
-1.50864e-62
-1.55208e-60
-9.75352e-59
-7.93296e-57
-1.36761e-54
-2.95553e-53
-2.46382e-51
-3.03825e-50
-2.98322e-48
-6.5003e-46
-3.94686e-44
-1.53154e-43
-2.51599e-43
-2.49587e-43
-1.72575e-43
-8.95324e-44
-3.6307e-44
-1.18424e-44
-3.59688e-45
-4.24559e-45
-1.04227e-44
-1.70983e-44
-5.54583e-43
-3.92136e-41
-1.37589e-40
-2.08905e-40
-1.86741e-40
-1.11625e-40
-4.76111e-41
-1.50651e-41
-3.62917e-42
-6.64012e-43
-9.86018e-44
-1.14993e-44
-1.06238e-45
-7.81146e-47
-4.57471e-48
-2.12765e-49
-7.82147e-51
-2.25501e-52
-5.04786e-54
-8.65909e-56
-1.11925e-57
-1.06775e-59
-7.32097e-62
-3.48624e-64
-1.1024e-66
-2.17737e-69
-2.45915e-72
-1.38386e-75
-3.02872e-79
-1.42496e-83
-3.21695e-144
-3.46457e-127
-1.25568e-106
-1.79878e-93
-1.50884e-88
-1.49989e-80
-7.94255e-75
-5.32181e-68
-2.58114e-61
-2.28047e-59
-1.25249e-57
-8.87065e-56
-1.37373e-53
-2.63908e-52
-1.96427e-50
-2.21585e-49
-1.8712e-47
-3.82819e-45
-2.2068e-43
-8.24822e-43
-1.31884e-42
-1.27953e-42
-8.68096e-43
-4.43139e-43
-1.77235e-43
-5.71103e-44
-1.65931e-44
-1.54042e-44
-3.56853e-44
-5.84705e-44
-2.03429e-42
-1.55598e-40
-5.59851e-40
-8.68281e-40
-7.92091e-40
-4.83258e-40
-2.10467e-40
-6.80344e-41
-1.67534e-41
-3.14151e-42
-4.77311e-43
-5.70056e-44
-5.3994e-45
-4.07467e-46
-2.45192e-47
-1.17312e-48
-4.44201e-50
-1.32094e-51
-3.05437e-53
-5.42074e-55
-7.26162e-57
-7.19293e-59
-5.1312e-61
-2.54792e-63
-8.42165e-66
-1.74329e-68
-2.0695e-71
-1.22806e-74
-2.84466e-78
-1.42312e-82
-4.33893e-142
-3.71306e-125
-1.19341e-104
-1.18953e-91
-6.90915e-87
-5.33298e-79
-2.32692e-73
-1.27184e-66
-4.28952e-60
-3.25077e-58
-1.55719e-56
-9.59181e-55
-1.33439e-52
-2.27895e-51
-1.51234e-49
-1.5602e-48
-1.13372e-46
-2.17702e-44
-1.19129e-42
-4.2905e-42
-6.67882e-42
-6.33876e-42
-4.22056e-42
-2.12018e-42
-8.36415e-43
-2.6627e-43
-7.4637e-44
-5.48343e-44
-1.17822e-43
-1.92621e-43
-7.20138e-42
-5.97908e-40
-2.20938e-39
-3.50403e-39
-3.26518e-39
-2.03488e-39
-9.05543e-40
-2.99226e-40
-7.53598e-41
-1.44876e-41
-2.25261e-42
-2.75582e-43
-2.67685e-44
-2.07384e-45
-1.28248e-46
-6.31305e-48
-2.4624e-49
-7.55292e-51
-1.80396e-52
-3.31212e-54
-4.59783e-56
-4.72816e-58
-3.50867e-60
-1.81634e-62
-6.27393e-65
-1.36079e-67
-1.69759e-70
-1.06205e-73
-2.60335e-77
-1.38472e-81
-5.25248e-140
-4.01312e-123
-1.10984e-102
-7.77446e-90
-3.11244e-85
-1.85105e-77
-6.66596e-72
-2.9617e-65
-6.91593e-59
-4.48996e-57
-1.87193e-55
-1.00155e-53
-1.25171e-51
-1.90076e-50
-1.12295e-48
-1.05914e-47
-6.62611e-46
-1.19384e-43
-6.2007e-42
-2.15269e-41
-3.26318e-41
-3.03031e-41
-1.98053e-41
-9.79189e-42
-3.81048e-42
-1.19842e-42
-3.26204e-43
-1.92021e-43
-3.7483e-43
-6.10402e-43
-2.45695e-41
-2.22252e-39
-8.44769e-39
-1.37169e-38
-1.30691e-38
-8.32668e-39
-3.78898e-39
-1.28066e-39
-3.30049e-40
-6.50771e-41
-1.03562e-41
-1.29818e-42
-1.29357e-43
-1.0291e-44
-6.54158e-46
-3.31347e-47
-1.33144e-48
-4.21255e-50
-1.03925e-51
-1.97386e-53
-2.83916e-55
-3.03063e-57
-2.33906e-59
-1.26209e-61
-4.55472e-64
-1.03486e-66
-1.35631e-69
-8.94393e-73
-2.3195e-76
-1.31149e-80
-6.03868e-138
-4.44637e-121
-1.00916e-100
-5.01384e-88
-1.37944e-83
-6.26359e-76
-1.86464e-70
-6.71522e-64
-1.08045e-57
-6.00096e-56
-2.17264e-54
-1.00837e-52
-1.13218e-50
-1.52906e-49
-8.02959e-48
-6.92191e-47
-3.73035e-45