/*--------------------------------*- C++ -*----------------------------------*\
| =========                 |                                                 |
| \\      /  F ield         | OpenFOAM: The Open Source CFD Toolbox           |
|  \\    /   O peration     | Version:  v2012                                 |
|   \\  /    A nd           | Website:  www.openfoam.com                      |
|    \\/     M anipulation  |                                                 |
\*---------------------------------------------------------------------------*/
FoamFile
{
    version     2.0;
    format      ascii;
    class       volScalarField;
    location    "0.05";
    object      p_rgh;
}
// * * * * * * * * * * * * * * * * * * * * * * * * * * * * * * * * * * * * * //

dimensions      [1 -1 -2 0 0 0 0];


internalField   nonuniform List<scalar> 
3352
(
3.47643e+06
3.47591e+06
3.47522e+06
3.47507e+06
3.47475e+06
3.4747e+06
3.47469e+06
3.47483e+06
3.47511e+06
3.47556e+06
3.4762e+06
3.4771e+06
3.47826e+06
3.47977e+06
3.48119e+06
3.4838e+06
3.48767e+06
3.49487e+06
3.49773e+06
3.49589e+06
3.49826e+06
3.50004e+06
3.49887e+06
3.49476e+06
3.49112e+06
3.49055e+06
3.49188e+06
3.49402e+06
3.49717e+06
3.50056e+06
3.50269e+06
3.50267e+06
3.50356e+06
3.50031e+06
3.49377e+06
3.49873e+06
3.49924e+06
3.49953e+06
3.49965e+06
3.51089e+06
3.51159e+06
3.51093e+06
3.51083e+06
3.51045e+06
3.5101e+06
3.50961e+06
3.50898e+06
3.5082e+06
3.50724e+06
3.5061e+06
3.5047e+06
3.50296e+06
3.50058e+06
3.49718e+06
3.49656e+06
3.49814e+06
3.50652e+06
3.50557e+06
3.50349e+06
3.50289e+06
3.50296e+06
3.50063e+06
3.49737e+06
3.49535e+06
3.49487e+06
3.49497e+06
3.49563e+06
3.49726e+06
3.49973e+06
3.50152e+06
3.5013e+06
3.50366e+06
3.49873e+06
3.49273e+06
3.49733e+06
3.49829e+06
3.49883e+06
3.49911e+06
3.47989e+06
3.48004e+06
3.47987e+06
3.48024e+06
3.48053e+06
3.48103e+06
3.48167e+06
3.48245e+06
3.48338e+06
3.48447e+06
3.48571e+06
3.48709e+06
3.48866e+06
3.4901e+06
3.49338e+06
3.49946e+06
3.50083e+06
3.50888e+06
3.50492e+06
3.50269e+06
3.5023e+06
3.50224e+06
3.49866e+06
3.4947e+06
3.49272e+06
3.49263e+06
3.49311e+06
3.49425e+06
3.49656e+06
3.49915e+06
3.50046e+06
3.50085e+06
3.50309e+06
3.49933e+06
3.49453e+06
3.49645e+06
3.49766e+06
3.4983e+06
3.49871e+06
3.5016e+06
3.50209e+06
3.50191e+06
3.5019e+06
3.50161e+06
3.50136e+06
3.50101e+06
3.50061e+06
3.50014e+06
3.49965e+06
3.49912e+06
3.49857e+06
3.49799e+06
3.49714e+06
3.50001e+06
3.5023e+06
3.5063e+06
3.50629e+06
3.50511e+06
3.50339e+06
3.50326e+06
3.50227e+06
3.49795e+06
3.49421e+06
3.49253e+06
3.4923e+06
3.49258e+06
3.49372e+06
3.49621e+06
3.49837e+06
3.49907e+06
3.49966e+06
3.50153e+06
3.49892e+06
3.49542e+06
3.49579e+06
3.49716e+06
3.49785e+06
3.49834e+06
3.48401e+06
3.48296e+06
3.48307e+06
3.48344e+06
3.48386e+06
3.48447e+06
3.48521e+06
3.48609e+06
3.48708e+06
3.48825e+06
3.4895e+06
3.49097e+06
3.4923e+06
3.49462e+06
3.49948e+06
3.49882e+06
3.5082e+06
3.50465e+06
3.50341e+06
3.50209e+06
3.50236e+06
3.50023e+06
3.49569e+06
3.49246e+06
3.49133e+06
3.49125e+06
3.49163e+06
3.49304e+06
3.49569e+06
3.49726e+06
3.49757e+06
3.49823e+06
3.49975e+06
3.49804e+06
3.49583e+06
3.49552e+06
3.49676e+06
3.49748e+06
3.49801e+06
3.49579e+06
3.49559e+06
3.495e+06
3.49499e+06
3.49493e+06
3.49486e+06
3.49476e+06
3.49469e+06
3.49462e+06
3.49464e+06
3.49464e+06
3.49495e+06
3.4948e+06
3.49769e+06
3.50018e+06
3.50095e+06
3.50517e+06
3.50357e+06
3.5014e+06
3.50046e+06
3.50094e+06
3.49768e+06
3.49345e+06
3.49098e+06
3.49035e+06
3.49035e+06
3.49083e+06
3.49253e+06
3.49514e+06
3.49594e+06
3.49618e+06
3.49676e+06
3.49809e+06
3.49696e+06
3.49579e+06
3.49548e+06
3.49644e+06
3.49716e+06
3.49772e+06
3.48437e+06
3.48375e+06
3.48346e+06
3.48371e+06
3.48415e+06
3.48468e+06
3.48534e+06
3.48614e+06
3.48707e+06
3.48813e+06
3.48929e+06
3.49069e+06
3.49192e+06
3.49716e+06
3.49693e+06
3.50415e+06
3.50123e+06
3.50057e+06
3.49835e+06
3.49816e+06
3.4981e+06
3.49417e+06
3.49072e+06
3.48924e+06
3.48916e+06
3.48937e+06
3.49009e+06
3.49217e+06
3.49457e+06
3.49454e+06
3.49499e+06
3.49546e+06
3.49671e+06
3.49591e+06
3.49545e+06
3.49547e+06
3.49619e+06
3.4969e+06
3.49746e+06
3.48923e+06
3.48921e+06
3.48885e+06
3.4887e+06
3.48866e+06
3.48869e+06
3.48877e+06
3.48886e+06
3.48906e+06
3.48922e+06
3.48959e+06
3.48973e+06
3.49089e+06
3.49438e+06
3.49173e+06
3.50228e+06
3.49856e+06
3.49651e+06
3.49443e+06
3.49536e+06
3.49423e+06
3.49036e+06
3.488e+06
3.48759e+06
3.48799e+06
3.48847e+06
3.48951e+06
3.49202e+06
3.49395e+06
3.49325e+06
3.49401e+06
3.49438e+06
3.49559e+06
3.49504e+06
3.49502e+06
3.4954e+06
3.496e+06
3.49667e+06
3.49724e+06
3.48171e+06
3.4812e+06
3.48112e+06
3.48116e+06
3.48142e+06
3.4818e+06
3.48236e+06
3.48295e+06
3.48375e+06
3.48446e+06
3.48559e+06
3.48615e+06
3.48994e+06
3.4925e+06
3.493e+06
3.49649e+06
3.49543e+06
3.49199e+06
3.49009e+06
3.49175e+06
3.48951e+06
3.48639e+06
3.48536e+06
3.48597e+06
3.48683e+06
3.48766e+06
3.48914e+06
3.49202e+06
3.49316e+06
3.49223e+06
3.49319e+06
3.49358e+06
3.49467e+06
3.4943e+06
3.49458e+06
3.49524e+06
3.49584e+06
3.49646e+06
3.49704e+06
3.48235e+06
3.48231e+06
3.48199e+06
3.48194e+06
3.48195e+06
3.48199e+06
3.48211e+06
3.48223e+06
3.48249e+06
3.48259e+06
3.48304e+06
3.48286e+06
3.48742e+06
3.48647e+06
3.49382e+06
3.49041e+06
3.49002e+06
3.48649e+06
3.48563e+06
3.4872e+06
3.48438e+06
3.48257e+06
3.48296e+06
3.48447e+06
3.48577e+06
3.48703e+06
3.48905e+06
3.49209e+06
3.49211e+06
3.49153e+06
3.49252e+06
3.49299e+06
3.49394e+06
3.49374e+06
3.49416e+06
3.49495e+06
3.49563e+06
3.49627e+06
3.49687e+06
3.47626e+06
3.47611e+06
3.47598e+06
3.47608e+06
3.47627e+06
3.47651e+06
3.47683e+06
3.47722e+06
3.47766e+06
3.47807e+06
3.47849e+06
3.47919e+06
3.48278e+06
3.47859e+06
3.48973e+06
3.48553e+06
3.48378e+06
3.48043e+06
3.48121e+06
3.48193e+06
3.47931e+06
3.47908e+06
3.48087e+06
3.48309e+06
3.48487e+06
3.48661e+06
3.48928e+06
3.49214e+06
3.49092e+06
3.49109e+06
3.49201e+06
3.49257e+06
3.49341e+06
3.49339e+06
3.49382e+06
3.49455e+06
3.49535e+06
3.49609e+06
3.49672e+06
3.47457e+06
3.47466e+06
3.47457e+06
3.4746e+06
3.47459e+06
3.47466e+06
3.47471e+06
3.47486e+06
3.47488e+06
3.47503e+06
3.47484e+06
3.47653e+06
3.47879e+06
3.47672e+06
3.48245e+06
3.48114e+06
3.47774e+06
3.47447e+06
3.47669e+06
3.47627e+06
3.47464e+06
3.47606e+06
3.47907e+06
3.48187e+06
3.48415e+06
3.48642e+06
3.48975e+06
3.49204e+06
3.48986e+06
3.49077e+06
3.49162e+06
3.49229e+06
3.49303e+06
3.49322e+06
3.49361e+06
3.49422e+06
3.49504e+06
3.49588e+06
3.49657e+06
3.46965e+06
3.46944e+06
3.46948e+06
3.46958e+06
3.46968e+06
3.46985e+06
3.46997e+06
3.47021e+06
3.47021e+06
3.47041e+06
3.47006e+06
3.47308e+06
3.47342e+06
3.47621e+06
3.47521e+06
3.47552e+06
3.47156e+06
3.46902e+06
3.47187e+06
3.47062e+06
3.47054e+06
3.47355e+06
3.47752e+06
3.48083e+06
3.48363e+06
3.48644e+06
3.49029e+06
3.49156e+06
3.48912e+06
3.49048e+06
3.49134e+06
3.49209e+06
3.49277e+06
3.49309e+06
3.49347e+06
3.494e+06
3.49481e+06
3.4957e+06
3.49643e+06
3.46689e+06
3.46697e+06
3.46686e+06
3.46694e+06
3.46697e+06
3.46706e+06
3.46702e+06
3.46712e+06
3.46685e+06
3.46695e+06
3.46622e+06
3.46924e+06
3.46532e+06
3.4737e+06
3.46885e+06
3.46911e+06
3.46528e+06
3.46429e+06
3.46681e+06
3.46536e+06
3.4671e+06
3.47153e+06
3.47619e+06
3.47996e+06
3.48329e+06
3.48666e+06
3.49072e+06
3.49058e+06
3.48873e+06
3.49017e+06
3.49114e+06
3.49193e+06
3.49256e+06
3.49297e+06
3.49334e+06
3.49388e+06
3.49468e+06
3.49557e+06
3.49631e+06
3.46254e+06
3.46258e+06
3.46254e+06
3.46269e+06
3.46281e+06
3.46296e+06
3.463e+06
3.46317e+06
3.46294e+06
3.46319e+06
3.46256e+06
3.46432e+06
3.45881e+06
3.46814e+06
3.46409e+06
3.46308e+06
3.45933e+06
3.46025e+06
3.46169e+06
3.46077e+06
3.46433e+06
3.46989e+06
3.47508e+06
3.47928e+06
3.48314e+06
3.48711e+06
3.49099e+06
3.48927e+06
3.48856e+06
3.48984e+06
3.49096e+06
3.49179e+06
3.49239e+06
3.49283e+06
3.49323e+06
3.4938e+06
3.49461e+06
3.49548e+06
3.4962e+06
3.45946e+06
3.45962e+06
3.45968e+06
3.45977e+06
3.45984e+06
3.4599e+06
3.45993e+06
3.45993e+06
3.45974e+06
3.45975e+06
3.45955e+06
3.45992e+06
3.45678e+06
3.46171e+06
3.4603e+06
3.45785e+06
3.45411e+06
3.45663e+06
3.45672e+06
3.45699e+06
3.46216e+06
3.46855e+06
3.47413e+06
3.47874e+06
3.48314e+06
3.48774e+06
3.49111e+06
3.48797e+06
3.48845e+06
3.48953e+06
3.49078e+06
3.49166e+06
3.49223e+06
3.4927e+06
3.49315e+06
3.49377e+06
3.49458e+06
3.49541e+06
3.4961e+06
3.4557e+06
3.45583e+06
3.45598e+06
3.45607e+06
3.45624e+06
3.45625e+06
3.45645e+06
3.45627e+06
3.45644e+06
3.45594e+06
3.45723e+06
3.45586e+06
3.45683e+06
3.45646e+06
3.45654e+06
3.45307e+06
3.4498e+06
3.45309e+06
3.45205e+06
3.45397e+06
3.46047e+06
3.46744e+06
3.47332e+06
3.4783e+06
3.48322e+06
3.48838e+06
3.49105e+06
3.48697e+06
3.48829e+06
3.48924e+06
3.49058e+06
3.49152e+06
3.49208e+06
3.49261e+06
3.49314e+06
3.49381e+06
3.49459e+06
3.49537e+06
3.49602e+06
3.45263e+06
3.4528e+06
3.45298e+06
3.45305e+06
3.45328e+06
3.45318e+06
3.45352e+06
3.45304e+06
3.45371e+06
3.45236e+06
3.45535e+06
3.45068e+06
3.45671e+06
3.45177e+06
3.45238e+06
3.44843e+06
3.44641e+06
3.44943e+06
3.44786e+06
3.45164e+06
3.45915e+06
3.46648e+06
3.4726e+06
3.47791e+06
3.48331e+06
3.48881e+06
3.49064e+06
3.48639e+06
3.48805e+06
3.48894e+06
3.49034e+06
3.49137e+06
3.49196e+06
3.49257e+06
3.49318e+06
3.49388e+06
3.49464e+06
3.49535e+06
3.49595e+06
3.44935e+06
3.44955e+06
3.44977e+06
3.44984e+06
3.45014e+06
3.45e+06
3.45046e+06
3.44979e+06
3.45081e+06
3.44858e+06
3.45154e+06
3.44368e+06
3.45498e+06
3.44779e+06
3.44791e+06
3.44391e+06
3.44383e+06
3.44567e+06
3.4443e+06
3.44987e+06
3.45808e+06
3.46565e+06
3.47194e+06
3.47754e+06
3.4834e+06
3.48896e+06
3.48984e+06
3.48614e+06
3.4877e+06
3.48865e+06
3.49012e+06
3.4912e+06
3.49188e+06
3.49255e+06
3.49323e+06
3.49396e+06
3.49468e+06
3.49535e+06
3.4959e+06
3.44641e+06
3.44658e+06
3.44683e+06
3.44698e+06
3.44719e+06
3.44718e+06
3.44747e+06
3.44703e+06
3.44771e+06
3.4456e+06
3.44632e+06
3.4393e+06
3.45041e+06
3.44541e+06
3.44398e+06
3.43977e+06
3.44182e+06
3.44192e+06
3.44146e+06
3.44854e+06
3.45719e+06
3.46491e+06
3.47131e+06
3.4772e+06
3.48356e+06
3.48895e+06
3.48884e+06
3.48617e+06
3.48739e+06
3.48835e+06
3.48993e+06
3.49105e+06
3.4918e+06
3.49254e+06
3.49327e+06
3.49401e+06
3.49471e+06
3.49534e+06
3.49587e+06
3.44273e+06
3.44378e+06
3.44405e+06
3.44431e+06
3.44442e+06
3.44469e+06
3.44473e+06
3.44495e+06
3.44496e+06
3.44459e+06
3.44385e+06
3.44169e+06
3.44554e+06
3.44393e+06
3.44074e+06
3.43624e+06
3.43987e+06
3.43823e+06
3.43928e+06
3.44752e+06
3.45644e+06
3.46424e+06
3.47071e+06
3.47689e+06
3.48379e+06
3.4889e+06
3.48786e+06
3.48633e+06
3.48716e+06
3.4881e+06
3.48975e+06
3.4909e+06
3.49172e+06
3.49253e+06
3.4933e+06
3.49405e+06
3.49473e+06
3.49533e+06
3.49583e+06
3.4398e+06
3.44047e+06
3.44099e+06
3.44148e+06
3.44143e+06
3.442e+06
3.44159e+06
3.44253e+06
3.44137e+06
3.44398e+06
3.44154e+06
3.44565e+06
3.44199e+06
3.44179e+06
3.43745e+06
3.43337e+06
3.43753e+06
3.43466e+06
3.43766e+06
3.44672e+06
3.45577e+06
3.4636e+06
3.47008e+06
3.47657e+06
3.48404e+06
3.48886e+06
3.48703e+06
3.48657e+06
3.48706e+06
3.48797e+06
3.48958e+06
3.49074e+06
3.49164e+06
3.49251e+06
3.49331e+06
3.49407e+06
3.49475e+06
3.49533e+06
3.49581e+06
3.43694e+06
3.43777e+06
3.43819e+06
3.43875e+06
3.43857e+06
3.43941e+06
3.43856e+06
3.44021e+06
3.43779e+06
3.44291e+06
3.4362e+06
3.447e+06
3.43836e+06
3.43853e+06
3.43374e+06
3.43121e+06
3.4347e+06
3.4314e+06
3.43648e+06
3.44607e+06
3.45517e+06
3.46295e+06
3.46942e+06
3.47621e+06
3.48423e+06
3.48882e+06
3.48658e+06
3.48681e+06
3.48702e+06
3.48795e+06
3.48944e+06
3.49061e+06
3.49157e+06
3.49249e+06
3.49333e+06
3.49409e+06
3.49476e+06
3.49532e+06
3.49578e+06
3.43427e+06
3.43465e+06
3.43518e+06
3.43584e+06
3.4357e+06
3.43658e+06
3.43558e+06
3.43736e+06
3.4342e+06
3.43891e+06
3.42928e+06
3.44435e+06
3.43525e+06
3.43476e+06
3.42979e+06
3.42975e+06
3.43156e+06
3.42869e+06
3.43565e+06
3.44552e+06
3.45461e+06
3.46229e+06
3.46869e+06
3.47578e+06
3.48432e+06
3.48869e+06
3.48655e+06
3.48702e+06
3.48701e+06
3.488e+06
3.48935e+06
3.49051e+06
3.49153e+06
3.49248e+06
3.49334e+06
3.49411e+06
3.49477e+06
3.49532e+06
3.49577e+06
3.43152e+06
3.43205e+06
3.43268e+06
3.4331e+06
3.43327e+06
3.43387e+06
3.43336e+06
3.43446e+06
3.43202e+06
3.43428e+06
3.42761e+06
3.43879e+06
3.43357e+06
3.43154e+06
3.42601e+06
3.42875e+06
3.42833e+06
3.42667e+06
3.4351e+06
3.44509e+06
3.45407e+06
3.46161e+06
3.46791e+06
3.47529e+06
3.48429e+06
3.48848e+06
3.48679e+06
3.48723e+06
3.4871e+06
3.4881e+06
3.48932e+06
3.49046e+06
3.49151e+06
3.49248e+06
3.49336e+06
3.49413e+06
3.49478e+06
3.49532e+06
3.49576e+06
3.42938e+06
3.42951e+06
3.43041e+06
3.43064e+06
3.43116e+06
3.4314e+06
3.43164e+06
3.43177e+06
3.43143e+06
3.43253e+06
3.43166e+06
3.43411e+06
3.43223e+06
3.42884e+06
3.4227e+06
3.42767e+06
3.42511e+06
3.42534e+06
3.43476e+06
3.44476e+06
3.45356e+06
3.46091e+06
3.46708e+06
3.47473e+06
3.48418e+06
3.48826e+06
3.48721e+06
3.48744e+06
3.4873e+06
3.48825e+06
3.48935e+06
3.49047e+06
3.49152e+06
3.4925e+06
3.49339e+06
3.49416e+06
3.4948e+06
3.49533e+06
3.49576e+06
3.42716e+06
3.42719e+06
3.4282e+06
3.42805e+06
3.42898e+06
3.42853e+06
3.42969e+06
3.42825e+06
3.43141e+06
3.42992e+06
3.43491e+06
3.43075e+06
3.43015e+06
3.42597e+06
3.42005e+06
3.42608e+06
3.422e+06
3.42459e+06
3.43457e+06
3.44451e+06
3.45306e+06
3.4602e+06
3.46622e+06
3.47412e+06
3.48402e+06
3.48807e+06
3.4877e+06
3.48766e+06
3.48759e+06
3.48844e+06
3.48944e+06
3.49052e+06
3.49156e+06
3.49255e+06
3.49344e+06
3.4942e+06
3.49483e+06
3.49535e+06
3.49576e+06
3.42522e+06
3.42504e+06
3.42605e+06
3.42569e+06
3.42694e+06
3.42594e+06
3.42784e+06
3.42529e+06
3.43104e+06
3.42524e+06
3.43477e+06
3.42686e+06
3.42714e+06
3.42269e+06
3.41831e+06
3.42391e+06
3.41924e+06
3.42428e+06
3.43451e+06
3.44433e+06
3.45259e+06
3.45949e+06
3.46534e+06
3.47345e+06
3.48382e+06
3.48789e+06
3.48816e+06
3.48794e+06
3.48795e+06
3.48868e+06
3.48959e+06
3.49062e+06
3.49164e+06
3.49262e+06
3.4935e+06
3.49425e+06
3.49487e+06
3.49537e+06
3.49577e+06
3.42286e+06
3.42315e+06
3.42411e+06
3.42354e+06
3.42488e+06
3.42343e+06
3.42575e+06
3.42232e+06
3.42855e+06
3.41906e+06
3.43237e+06
3.42302e+06
3.42364e+06
3.41921e+06
3.41766e+06
3.42147e+06
3.41713e+06
3.42431e+06
3.43458e+06
3.44422e+06
3.45214e+06
3.45879e+06
3.46446e+06
3.47269e+06
3.48352e+06
3.48767e+06
3.48865e+06
3.4883e+06
3.48831e+06
3.48896e+06
3.48978e+06
3.49076e+06
3.49175e+06
3.49271e+06
3.49357e+06
3.49431e+06
3.49492e+06
3.49541e+06
3.4958e+06
3.42099e+06
3.42097e+06
3.42205e+06
3.42149e+06
3.4227e+06
3.42121e+06
3.42333e+06
3.4195e+06
3.42398e+06
3.41471e+06
3.4279e+06
3.42067e+06
3.42068e+06
3.41583e+06
3.41801e+06
3.4191e+06
3.4159e+06
3.42461e+06
3.43481e+06
3.44417e+06
3.45174e+06
3.45811e+06
3.46359e+06
3.47193e+06
3.48323e+06
3.48762e+06
3.48917e+06
3.48862e+06
3.48861e+06
3.48925e+06
3.48998e+06
3.49093e+06
3.49189e+06
3.49282e+06
3.49366e+06
3.49439e+06
3.49498e+06
3.49545e+06
3.49583e+06
3.41978e+06
3.42005e+06
3.42081e+06
3.42056e+06
3.42141e+06
3.42055e+06
3.42196e+06
3.41914e+06
3.42179e+06
3.41701e+06
3.42389e+06
3.42004e+06
3.41881e+06
3.4128e+06
3.41882e+06
3.4169e+06
3.41558e+06
3.42515e+06
3.43522e+06
3.44419e+06
3.45141e+06
3.45746e+06
3.46272e+06
3.47104e+06
3.48291e+06
3.48781e+06
3.48959e+06
3.48892e+06
3.48894e+06
3.48957e+06
3.49023e+06
3.49112e+06
3.49204e+06
3.49295e+06
3.49377e+06
3.49447e+06
3.49505e+06
3.4955e+06
3.49586e+06
3.41894e+06
3.41912e+06
3.41954e+06
3.41969e+06
3.42022e+06
3.42015e+06
3.4206e+06
3.42017e+06
3.42153e+06
3.42163e+06
3.42212e+06
3.41965e+06
3.41724e+06
3.41022e+06
3.41928e+06
3.41485e+06
3.41606e+06
3.4259e+06
3.43581e+06
3.44429e+06
3.45115e+06
3.45686e+06
3.46184e+06
3.47006e+06
3.4824e+06
3.48795e+06
3.48991e+06
3.48934e+06
3.48937e+06
3.48993e+06
3.49052e+06
3.49135e+06
3.49222e+06
3.4931e+06
3.4939e+06
3.49458e+06
3.49513e+06
3.49557e+06
3.49591e+06
3.41794e+06
3.41851e+06
3.41844e+06
3.41909e+06
3.41881e+06
3.41976e+06
3.41869e+06
3.42165e+06
3.41989e+06
3.42405e+06
3.42063e+06
3.41868e+06
3.41529e+06
3.40843e+06
3.41891e+06
3.41314e+06
3.41716e+06
3.42688e+06
3.43658e+06
3.44449e+06
3.45098e+06
3.45635e+06
3.46099e+06
3.46905e+06
3.48177e+06
3.48806e+06
3.49015e+06
3.48986e+06
3.4898e+06
3.49027e+06
3.49084e+06
3.4916e+06
3.49244e+06
3.49328e+06
3.49404e+06
3.4947e+06
3.49523e+06
3.49565e+06
3.49597e+06
3.41724e+06
3.41791e+06
3.41744e+06
3.41856e+06
3.41743e+06
3.41936e+06
3.41696e+06
3.42247e+06
3.41713e+06
3.42447e+06
3.41817e+06
3.41706e+06
3.41294e+06
3.40799e+06
3.4179e+06
3.41222e+06
3.41873e+06
3.42814e+06
3.43749e+06
3.44482e+06
3.45092e+06
3.45592e+06
3.4602e+06
3.46789e+06
3.48089e+06
3.48812e+06
3.4904e+06
3.49047e+06
3.49019e+06
3.49059e+06
3.49115e+06
3.49187e+06
3.49267e+06
3.49347e+06
3.4942e+06
3.49483e+06
3.49534e+06
3.49573e+06
3.49603e+06
3.41624e+06
3.41728e+06
3.41623e+06
3.41779e+06
3.41564e+06
3.4184e+06
3.41435e+06
3.42133e+06
3.41269e+06
3.42367e+06
3.41508e+06
3.41506e+06
3.41056e+06
3.40934e+06
3.41698e+06
3.41257e+06
3.42069e+06
3.42971e+06
3.43856e+06
3.44529e+06
3.45097e+06
3.45558e+06
3.45946e+06
3.46662e+06
3.47982e+06
3.48806e+06
3.49066e+06
3.49115e+06
3.49052e+06
3.49088e+06
3.49148e+06
3.49215e+06
3.49291e+06
3.49367e+06
3.49438e+06
3.49498e+06
3.49546e+06
3.49583e+06
3.49611e+06
3.41559e+06
3.4169e+06
3.41536e+06
3.41709e+06
3.41435e+06
3.41736e+06
3.412e+06
3.41852e+06
3.40819e+06
3.42134e+06
3.41275e+06
3.41351e+06
3.40868e+06
3.41252e+06
3.41688e+06
3.4144e+06
3.42297e+06
3.43161e+06
3.43975e+06
3.44592e+06
3.45113e+06
3.45535e+06
3.45881e+06
3.46527e+06
3.47846e+06
3.48781e+06
3.49091e+06
3.49183e+06
3.49089e+06
3.49124e+06
3.49183e+06
3.49245e+06
3.49317e+06
3.4939e+06
3.49456e+06
3.49514e+06
3.49559e+06
3.49594e+06
3.49619e+06
3.41601e+06
3.41745e+06
3.41585e+06
3.41749e+06
3.41481e+06
3.41739e+06
3.41194e+06
3.4165e+06
3.40742e+06
3.41881e+06
3.41266e+06
3.41338e+06
3.40774e+06
3.41703e+06
3.41785e+06
3.41744e+06
3.42552e+06
3.43379e+06
3.44107e+06
3.4467e+06
3.45142e+06
3.45524e+06
3.45829e+06
3.46389e+06
3.4768e+06
3.48731e+06
3.4911e+06
3.49235e+06
3.49136e+06
3.49175e+06
3.49222e+06
3.49278e+06
3.49345e+06
3.49413e+06
3.49477e+06
3.49531e+06
3.49574e+06
3.49605e+06
3.49628e+06
3.41796e+06
3.41935e+06
3.41796e+06
3.41937e+06
3.41735e+06
3.41926e+06
3.41492e+06
3.41803e+06
3.41249e+06
3.41869e+06
3.41509e+06
3.41481e+06
3.40805e+06
3.42191e+06
3.41966e+06
3.42117e+06
3.42827e+06
3.43614e+06
3.4425e+06
3.44762e+06
3.45183e+06
3.45526e+06
3.45792e+06
3.46257e+06
3.47484e+06
3.48646e+06
3.49112e+06
3.49274e+06
3.49192e+06
3.49233e+06
3.49261e+06
3.49314e+06
3.49374e+06
3.49439e+06
3.49499e+06
3.4955e+06
3.49589e+06
3.49618e+06
3.49639e+06
3.42071e+06
3.4221e+06
3.42088e+06
3.42206e+06
3.42078e+06
3.42194e+06
3.41983e+06
3.42169e+06
3.42052e+06
3.42126e+06
3.41881e+06
3.4169e+06
3.40976e+06
3.42621e+06
3.42193e+06
3.42505e+06
3.43117e+06
3.43856e+06
3.44404e+06
3.44867e+06
3.45237e+06
3.45541e+06
3.45771e+06
3.46137e+06
3.4726e+06
3.48519e+06
3.49086e+06
3.49308e+06
3.49258e+06
3.49274e+06
3.49294e+06
3.49349e+06
3.49404e+06
3.49466e+06
3.49522e+06
3.4957e+06
3.49606e+06
3.49632e+06
3.4965e+06
3.42364e+06
3.42476e+06
3.42398e+06
3.42443e+06
3.4242e+06
3.42387e+06
3.42547e+06
3.42415e+06
3.42781e+06
3.42398e+06
3.42246e+06
3.41872e+06
3.41306e+06
3.42955e+06
3.42455e+06
3.42879e+06
3.43421e+06
3.44099e+06
3.44568e+06
3.44982e+06
3.45305e+06
3.4557e+06
3.45768e+06
3.4604e+06
3.47022e+06
3.48351e+06
3.49048e+06
3.49332e+06
3.49317e+06
3.49308e+06
3.49326e+06
3.49386e+06
3.49436e+06
3.49494e+06
3.49547e+06
3.49591e+06
3.49625e+06
3.49648e+06
3.49661e+06
3.42687e+06
3.42732e+06
3.42739e+06
3.42667e+06
3.4278e+06
3.42546e+06
3.43047e+06
3.42484e+06
3.4333e+06
3.42557e+06
3.4255e+06
3.42017e+06
3.41804e+06
3.43223e+06
3.42768e+06
3.43233e+06
3.43736e+06
3.44338e+06
3.44743e+06
3.45108e+06
3.45386e+06
3.45615e+06
3.45785e+06
3.45974e+06
3.46786e+06
3.48137e+06
3.48989e+06
3.49341e+06
3.49361e+06
3.49349e+06
3.49371e+06
3.49424e+06
3.49469e+06
3.49523e+06
3.49573e+06
3.49614e+06
3.49645e+06
3.49664e+06
3.49674e+06
3.43019e+06
3.42967e+06
3.43093e+06
3.42868e+06
3.43141e+06
3.42674e+06
3.43392e+06
3.42442e+06
3.43711e+06
3.42697e+06
3.42828e+06
3.4218e+06
3.42446e+06
3.43486e+06
3.43141e+06
3.43576e+06
3.4406e+06
3.44577e+06
3.44928e+06
3.45244e+06
3.45482e+06
3.45675e+06
3.4582e+06
3.45944e+06
3.46568e+06
3.47869e+06
3.4887e+06
3.49322e+06
3.49399e+06
3.49389e+06
3.49417e+06
3.49457e+06
3.49503e+06
3.49552e+06
3.496e+06
3.49638e+06
3.49665e+06
3.49681e+06
3.49687e+06
3.43401e+06
3.43238e+06
3.43492e+06
3.43114e+06
3.43553e+06
3.42851e+06
3.43739e+06
3.42618e+06
3.43978e+06
3.42959e+06
3.43168e+06
3.42437e+06
3.43171e+06
3.43785e+06
3.4356e+06
3.43919e+06
3.4439e+06
3.44817e+06
3.45123e+06
3.43896e+06
3.43592e+06
3.43998e+06
3.43475e+06
3.44067e+06
3.43144e+06
3.44186e+06
3.43013e+06
3.4427e+06
3.43349e+06
3.43597e+06
3.42847e+06
3.43903e+06
3.44127e+06
3.43994e+06
3.44271e+06
3.4472e+06
3.44089e+06
3.43453e+06
3.47643e+06
3.47591e+06
3.47522e+06
3.47507e+06
3.47475e+06
3.4747e+06
3.47469e+06
3.47483e+06
3.47511e+06
3.47556e+06
3.4762e+06
3.4771e+06
3.47826e+06
3.47977e+06
3.48119e+06
3.4838e+06
3.48767e+06
3.49487e+06
3.49773e+06
3.49589e+06
3.49826e+06
3.50004e+06
3.49887e+06
3.49476e+06
3.49112e+06
3.49055e+06
3.49188e+06
3.49402e+06
3.49717e+06
3.50056e+06
3.50269e+06
3.50267e+06
3.50356e+06
3.50031e+06
3.49377e+06
3.49873e+06
3.49924e+06
3.49953e+06
3.49965e+06
3.51089e+06
3.51159e+06
3.51093e+06
3.51083e+06
3.51045e+06
3.5101e+06
3.50961e+06
3.50898e+06
3.5082e+06
3.50724e+06
3.5061e+06
3.5047e+06
3.50296e+06
3.50058e+06
3.49718e+06
3.49656e+06
3.49814e+06
3.50652e+06
3.50557e+06
3.50349e+06
3.50289e+06
3.50296e+06
3.50063e+06
3.49737e+06
3.49535e+06
3.49487e+06
3.49497e+06
3.49563e+06
3.49726e+06
3.49973e+06
3.50152e+06
3.5013e+06
3.50366e+06
3.49873e+06
3.49273e+06
3.49733e+06
3.49829e+06
3.49883e+06
3.49911e+06
3.47989e+06
3.48004e+06
3.47987e+06
3.48024e+06
3.48053e+06
3.48103e+06
3.48167e+06
3.48245e+06
3.48338e+06
3.48447e+06
3.48571e+06
3.48709e+06
3.48866e+06
3.4901e+06
3.49338e+06
3.49946e+06
3.50083e+06
3.50888e+06
3.50492e+06
3.50269e+06
3.5023e+06
3.50224e+06
3.49866e+06
3.4947e+06
3.49272e+06
3.49263e+06
3.49311e+06
3.49425e+06
3.49656e+06
3.49915e+06
3.50046e+06
3.50085e+06
3.50309e+06
3.49933e+06
3.49453e+06
3.49645e+06
3.49766e+06
3.4983e+06
3.49871e+06
3.5016e+06
3.50209e+06
3.50191e+06
3.5019e+06
3.50161e+06
3.50136e+06
3.50101e+06
3.50061e+06
3.50014e+06
3.49965e+06
3.49912e+06
3.49857e+06
3.49799e+06
3.49714e+06
3.50001e+06
3.5023e+06
3.5063e+06
3.50629e+06
3.50511e+06
3.50339e+06
3.50326e+06
3.50227e+06
3.49795e+06
3.49421e+06
3.49253e+06
3.4923e+06
3.49258e+06
3.49372e+06
3.49621e+06
3.49837e+06
3.49907e+06
3.49966e+06
3.50153e+06
3.49892e+06
3.49542e+06
3.49579e+06
3.49716e+06
3.49785e+06
3.49834e+06
3.48401e+06
3.48296e+06
3.48307e+06
3.48344e+06
3.48386e+06
3.48447e+06
3.48521e+06
3.48609e+06
3.48708e+06
3.48825e+06
3.4895e+06
3.49097e+06
3.4923e+06
3.49462e+06
3.49948e+06
3.49882e+06
3.5082e+06
3.50465e+06
3.50341e+06
3.50209e+06
3.50236e+06
3.50023e+06
3.49569e+06
3.49246e+06
3.49133e+06
3.49125e+06
3.49163e+06
3.49304e+06
3.49569e+06
3.49726e+06
3.49757e+06
3.49823e+06
3.49975e+06
3.49804e+06
3.49583e+06
3.49552e+06
3.49676e+06
3.49748e+06
3.49801e+06
3.49579e+06
3.49559e+06
3.495e+06
3.49499e+06
3.49493e+06
3.49486e+06
3.49476e+06
3.49469e+06
3.49462e+06
3.49464e+06
3.49464e+06
3.49495e+06
3.4948e+06
3.49769e+06
3.50018e+06
3.50095e+06
3.50517e+06
3.50357e+06
3.5014e+06
3.50046e+06
3.50094e+06
3.49768e+06
3.49345e+06
3.49098e+06
3.49035e+06
3.49035e+06
3.49083e+06
3.49253e+06
3.49514e+06
3.49594e+06
3.49618e+06
3.49676e+06
3.49809e+06
3.49696e+06
3.49579e+06
3.49548e+06
3.49644e+06
3.49716e+06
3.49772e+06
3.48437e+06
3.48375e+06
3.48346e+06
3.48371e+06
3.48415e+06
3.48468e+06
3.48534e+06
3.48614e+06
3.48707e+06
3.48813e+06
3.48929e+06
3.49069e+06
3.49192e+06
3.49716e+06
3.49693e+06
3.50415e+06
3.50123e+06
3.50057e+06
3.49835e+06
3.49816e+06
3.4981e+06
3.49417e+06
3.49072e+06
3.48924e+06
3.48916e+06
3.48937e+06
3.49009e+06
3.49217e+06
3.49457e+06
3.49454e+06
3.49499e+06
3.49546e+06
3.49671e+06
3.49591e+06
3.49545e+06
3.49547e+06
3.49619e+06
3.4969e+06
3.49746e+06
3.48923e+06
3.48921e+06
3.48885e+06
3.4887e+06
3.48866e+06
3.48869e+06
3.48877e+06
3.48886e+06
3.48906e+06
3.48922e+06
3.48959e+06
3.48973e+06
3.49089e+06
3.49438e+06
3.49173e+06
3.50228e+06
3.49856e+06
3.49651e+06
3.49443e+06
3.49536e+06
3.49423e+06
3.49036e+06
3.488e+06
3.48759e+06
3.48799e+06
3.48847e+06
3.48951e+06
3.49202e+06
3.49395e+06
3.49325e+06
3.49401e+06
3.49438e+06
3.49559e+06
3.49504e+06
3.49502e+06
3.4954e+06
3.496e+06
3.49667e+06
3.49724e+06
3.48171e+06
3.4812e+06
3.48112e+06
3.48116e+06
3.48142e+06
3.4818e+06
3.48236e+06
3.48295e+06
3.48375e+06
3.48446e+06
3.48559e+06
3.48615e+06
3.48994e+06
3.4925e+06
3.493e+06
3.49649e+06
3.49543e+06
3.49199e+06
3.49009e+06
3.49175e+06
3.48951e+06
3.48639e+06
3.48536e+06
3.48597e+06
3.48683e+06
3.48766e+06
3.48914e+06
3.49202e+06
3.49316e+06
3.49223e+06
3.49319e+06
3.49358e+06
3.49467e+06
3.4943e+06
3.49458e+06
3.49524e+06
3.49584e+06
3.49646e+06
3.49704e+06
3.48235e+06
3.48231e+06
3.48199e+06
3.48194e+06
3.48195e+06
3.48199e+06
3.48211e+06
3.48223e+06
3.48249e+06
3.48259e+06
3.48304e+06
3.48286e+06
3.48742e+06
3.48647e+06
3.49382e+06
3.49041e+06
3.49002e+06
3.48649e+06
3.48563e+06
3.4872e+06
3.48438e+06
3.48257e+06
3.48296e+06
3.48447e+06
3.48577e+06
3.48703e+06
3.48905e+06
3.49209e+06
3.49211e+06
3.49153e+06
3.49252e+06
3.49299e+06
3.49394e+06
3.49374e+06
3.49416e+06
3.49495e+06
3.49563e+06
3.49627e+06
3.49687e+06
3.47626e+06
3.47611e+06
3.47598e+06
3.47608e+06
3.47627e+06
3.47651e+06
3.47683e+06
3.47722e+06
3.47766e+06
3.47807e+06
3.47849e+06
3.47919e+06
3.48278e+06
3.47859e+06
3.48973e+06
3.48553e+06
3.48378e+06
3.48043e+06
3.48121e+06
3.48193e+06
3.47931e+06
3.47908e+06
3.48087e+06
3.48309e+06
3.48487e+06
3.48661e+06
3.48928e+06
3.49214e+06
3.49092e+06
3.49109e+06
3.49201e+06
3.49257e+06
3.49341e+06
3.49339e+06
3.49382e+06
3.49455e+06
3.49535e+06
3.49609e+06
3.49672e+06
3.47457e+06
3.47466e+06
3.47457e+06
3.4746e+06
3.47459e+06
3.47466e+06
3.47471e+06
3.47486e+06
3.47488e+06
3.47503e+06
3.47484e+06
3.47653e+06
3.47879e+06
3.47672e+06
3.48245e+06
3.48114e+06
3.47774e+06
3.47447e+06
3.47669e+06
3.47627e+06
3.47464e+06
3.47606e+06
3.47907e+06
3.48187e+06
3.48415e+06
3.48642e+06
3.48975e+06
3.49204e+06
3.48986e+06
3.49077e+06
3.49162e+06
3.49229e+06
3.49303e+06
3.49322e+06
3.49361e+06
3.49422e+06
3.49504e+06
3.49588e+06
3.49657e+06
3.46965e+06
3.46944e+06
3.46948e+06
3.46958e+06
3.46968e+06
3.46985e+06
3.46997e+06
3.47021e+06
3.47021e+06
3.47041e+06
3.47006e+06
3.47308e+06
3.47342e+06
3.47621e+06
3.47521e+06
3.47552e+06
3.47156e+06
3.46902e+06
3.47187e+06
3.47062e+06
3.47054e+06
3.47355e+06
3.47752e+06
3.48083e+06
3.48363e+06
3.48644e+06
3.49029e+06
3.49156e+06
3.48912e+06
3.49048e+06
3.49134e+06
3.49209e+06
3.49277e+06
3.49309e+06
3.49347e+06
3.494e+06
3.49481e+06
3.4957e+06
3.49643e+06
3.46689e+06
3.46697e+06
3.46686e+06
3.46694e+06
3.46697e+06
3.46706e+06
3.46702e+06
3.46712e+06
3.46685e+06
3.46695e+06
3.46622e+06
3.46924e+06
3.46532e+06
3.4737e+06
3.46885e+06
3.46911e+06
3.46528e+06
3.46429e+06
3.46681e+06
3.46536e+06
3.4671e+06
3.47153e+06
3.47619e+06
3.47996e+06
3.48329e+06
3.48666e+06
3.49072e+06
3.49058e+06
3.48873e+06
3.49017e+06
3.49114e+06
3.49193e+06
3.49256e+06
3.49297e+06
3.49334e+06
3.49388e+06
3.49468e+06
3.49557e+06
3.49631e+06
3.46254e+06
3.46258e+06
3.46254e+06
3.46269e+06
3.46281e+06
3.46296e+06
3.463e+06
3.46317e+06
3.46294e+06
3.46319e+06
3.46256e+06
3.46432e+06
3.45881e+06
3.46814e+06
3.46409e+06
3.46308e+06
3.45933e+06
3.46025e+06
3.46169e+06
3.46077e+06
3.46433e+06
3.46989e+06
3.47508e+06
3.47928e+06
3.48314e+06
3.48711e+06
3.49099e+06
3.48927e+06
3.48856e+06
3.48984e+06
3.49096e+06
3.49179e+06
3.49239e+06
3.49283e+06
3.49323e+06
3.4938e+06
3.49461e+06
3.49548e+06
3.4962e+06
3.45946e+06
3.45962e+06
3.45968e+06
3.45977e+06
3.45984e+06
3.4599e+06
3.45993e+06
3.45993e+06
3.45974e+06
3.45975e+06
3.45955e+06
3.45992e+06
3.45678e+06
3.46171e+06
3.4603e+06
3.45785e+06
3.45411e+06
3.45663e+06
3.45672e+06
3.45699e+06
3.46216e+06
3.46855e+06
3.47413e+06
3.47874e+06
3.48314e+06
3.48774e+06
3.49111e+06
3.48797e+06
3.48845e+06
3.48953e+06
3.49078e+06
3.49166e+06
3.49223e+06
3.4927e+06
3.49315e+06
3.49377e+06
3.49458e+06
3.49541e+06
3.4961e+06
3.4557e+06
3.45583e+06
3.45598e+06
3.45607e+06
3.45624e+06
3.45625e+06
3.45645e+06
3.45627e+06
3.45644e+06
3.45594e+06
3.45723e+06
3.45586e+06
3.45683e+06
3.45646e+06
3.45654e+06
3.45307e+06
3.4498e+06
3.45309e+06
3.45205e+06
3.45397e+06
3.46047e+06
3.46744e+06
3.47332e+06
3.4783e+06
3.48322e+06
3.48838e+06
3.49105e+06
3.48697e+06
3.48829e+06
3.48924e+06
3.49058e+06
3.49152e+06
3.49208e+06
3.49261e+06
3.49314e+06
3.49381e+06
3.49459e+06
3.49537e+06
3.49602e+06
3.45263e+06
3.4528e+06
3.45298e+06
3.45305e+06
3.45328e+06
3.45318e+06
3.45352e+06
3.45304e+06
3.45371e+06
3.45236e+06
3.45535e+06
3.45068e+06
3.45671e+06
3.45177e+06
3.45238e+06
3.44843e+06
3.44641e+06
3.44943e+06
3.44786e+06
3.45164e+06
3.45915e+06
3.46648e+06
3.4726e+06
3.47791e+06
3.48331e+06
3.48881e+06
3.49064e+06
3.48639e+06
3.48805e+06
3.48894e+06
3.49034e+06
3.49137e+06
3.49196e+06
3.49257e+06
3.49318e+06
3.49388e+06
3.49464e+06
3.49535e+06
3.49595e+06
3.44935e+06
3.44955e+06
3.44977e+06
3.44984e+06
3.45014e+06
3.45e+06
3.45046e+06
3.44979e+06
3.45081e+06
3.44858e+06
3.45154e+06
3.44368e+06
3.45498e+06
3.44779e+06
3.44791e+06
3.44391e+06
3.44383e+06
3.44567e+06
3.4443e+06
3.44987e+06
3.45808e+06
3.46565e+06
3.47194e+06
3.47754e+06
3.4834e+06
3.48896e+06
3.48984e+06
3.48614e+06
3.4877e+06
3.48865e+06
3.49012e+06
3.4912e+06
3.49188e+06
3.49255e+06
3.49323e+06
3.49396e+06
3.49468e+06
3.49535e+06
3.4959e+06
3.44641e+06
3.44658e+06
3.44683e+06
3.44698e+06
3.44719e+06
3.44718e+06
3.44747e+06
3.44703e+06
3.44771e+06
3.4456e+06
3.44632e+06
3.4393e+06
3.45041e+06
3.44541e+06
3.44398e+06
3.43977e+06
3.44182e+06
3.44192e+06
3.44146e+06
3.44854e+06
3.45719e+06
3.46491e+06
3.47131e+06
3.4772e+06
3.48356e+06
3.48895e+06
3.48884e+06
3.48617e+06
3.48739e+06
3.48835e+06