/*--------------------------------*- C++ -*----------------------------------*\
| =========                 |                                                 |
| \\      /  F ield         | OpenFOAM: The Open Source CFD Toolbox           |
|  \\    /   O peration     | Version:  v2012                                 |
|   \\  /    A nd           | Website:  www.openfoam.com                      |
|    \\/     M anipulation  |                                                 |
\*---------------------------------------------------------------------------*/
FoamFile
{
    version     2.0;
    format      ascii;
    class       surfaceScalarField;
    location    "0.05";
    object      phi;
}
// * * * * * * * * * * * * * * * * * * * * * * * * * * * * * * * * * * * * * //

dimensions      [0 3 -1 0 0 0 0];
oriented        oriented;


internalField   nonuniform List<scalar> 
8212
(
7.41014e-13
-5.45385e-13
2.02427e-18
8.18653e-12
-5.36233e-12
-4.14483e-18
2.89472e-11
-2.09203e-11
-2.23076e-17
6.78908e-11
-5.92508e-11
-1.69167e-17
1.29964e-10
-1.36625e-10
2.09255e-16
2.20438e-10
-2.73334e-10
2.20385e-16
3.45469e-10
-4.90647e-10
3.01043e-16
5.1256e-10
-8.11695e-10
4.67733e-16
7.30597e-10
-1.26336e-09
4.47693e-16
1.00975e-09
-1.88089e-09
6.97444e-16
1.36062e-09
-2.71062e-09
9.4222e-16
1.79223e-09
-3.8111e-09
1.1574e-15
2.30891e-09
-5.24681e-09
1.5006e-15
2.90349e-09
-7.07191e-09
1.7492e-15
3.59038e-09
-9.37897e-09
2.11524e-15
4.50236e-09
-1.25789e-08
2.49062e-15
6.38205e-09
-1.83932e-08
2.60216e-15
1.73227e-08
-4.03752e-08
5.82166e-15
4.59603e-08
-1.1564e-07
-3.3432e-15
6.6072e-08
-1.849e-07
7.65509e-15
6.9955e-08
-2.02451e-07
5.26572e-15
6.9259e-08
-2.00453e-07
6.82659e-15
6.98307e-08
-2.07584e-07
7.05585e-15
7.12326e-08
-2.2233e-07
7.04228e-15
7.29284e-08
-2.40295e-07
7.70697e-15
7.4704e-08
-2.59941e-07
8.24075e-15
7.64144e-08
-2.80716e-07
8.94536e-15
7.79079e-08
-3.02285e-07
9.70338e-15
7.88082e-08
-3.23912e-07
1.06791e-14
7.76463e-08
-3.4259e-07
1.17687e-14
6.74085e-08
-3.44872e-07
1.71195e-14
3.00911e-08
-2.67903e-07
7.20807e-14
4.83374e-10
-3.08437e-08
3.78972e-14
-2.93995e-09
1.43263e-08
1.40046e-14
-1.49283e-09
3.42106e-08
-7.60437e-16
-1.09941e-09
4.36685e-08
-1.01147e-16
-8.34025e-10
5.13115e-08
-4.15759e-17
-6.92592e-10
5.82489e-08
-1.38144e-17
6.50683e-08
4.17317e-18
4.19175e-13
-9.64517e-13
4.76803e-18
5.6773e-12
-1.06204e-11
2.09545e-18
2.29731e-11
-3.82158e-11
5.02397e-17
5.88647e-11
-9.51442e-11
-1.89208e-16
1.19491e-10
-1.97253e-10
-1.05489e-16
2.10311e-10
-3.64153e-10
2.79031e-16
3.37174e-10
-6.17509e-10
1.9629e-16
5.07249e-10
-9.81769e-10
5.75562e-16
7.29686e-10
-1.48579e-09
6.80382e-16
1.01579e-09
-2.167e-09
7.3799e-16
1.37767e-09
-3.07251e-09
9.97372e-16
1.82444e-09
-4.25787e-09
1.22357e-15
2.35362e-09
-5.776e-09
1.36648e-15
2.94141e-09
-7.65969e-09
2.0146e-15
3.60969e-09
-1.00473e-08
2.27021e-15
4.56735e-09
-1.35366e-08
2.57856e-15
7.58918e-09
-2.14151e-08
1.38213e-15
3.27306e-08
-6.55166e-08
2.90392e-15
6.54572e-08
-1.48367e-07
9.04154e-15
7.60527e-08
-1.95496e-07
1.00116e-14
7.2249e-08
-1.98647e-07
6.96206e-15
6.94962e-08
-1.977e-07
5.91526e-15
6.98783e-08
-2.07966e-07
6.23969e-15
7.14067e-08
-2.23858e-07
6.56366e-15
7.32446e-08
-2.42133e-07
7.41996e-15
7.51171e-08
-2.61813e-07
8.18121e-15
7.68943e-08
-2.82494e-07
9.02378e-15
7.84189e-08
-3.0381e-07
9.90733e-15
7.91782e-08
-3.24671e-07
1.0885e-14
7.69972e-08
-3.40409e-07
1.04499e-14
6.23698e-08
-3.30245e-07
3.77687e-15
2.34079e-08
-2.28942e-07
3.97284e-14
1.23136e-09
-8.66721e-09
3.1771e-14
-3.95963e-09
1.95172e-08
2.046e-14
-3.32553e-09
3.35765e-08
5.19067e-16
-2.81724e-09
4.31602e-08
-1.67731e-16
-2.35032e-09
5.08446e-08
-1.18832e-16
-2.02096e-09
5.79195e-08
-3.99858e-17
6.48183e-08
2.20533e-17
1.83798e-13
-1.1483e-12
1.32106e-18
3.175e-12
-1.36117e-11
-8.30581e-18
1.43867e-11
-4.94276e-11
3.91216e-18
4.00893e-11
-1.20846e-10
1.45897e-16
8.63243e-11
-2.43488e-10
1.42734e-16
1.58317e-10
-4.36146e-10
2.57754e-16
2.61114e-10
-7.20307e-10
2.47739e-16
4.00338e-10
-1.12099e-09
3.06694e-16
5.83001e-10
-1.66845e-09
5.5088e-16
8.17389e-10
-2.40139e-09
9.06722e-16
1.11016e-09
-3.36528e-09
9.92364e-16
1.45987e-09
-4.60756e-09
1.33456e-15
1.84176e-09
-6.15789e-09
1.54813e-15
2.21624e-09
-8.03418e-09
1.7817e-15
2.59649e-09
-1.04275e-08
2.13529e-15
3.29621e-09
-1.42363e-08
2.86242e-15
1.17915e-08
-2.99104e-08
4.30727e-15
4.57189e-08
-9.9444e-08
-2.59743e-15
7.10183e-08
-1.73666e-07
1.20385e-14
7.4911e-08
-1.99388e-07
1.31098e-14
7.04575e-08
-1.94194e-07
7.46074e-15
6.90782e-08
-1.96321e-07
6.4519e-15
6.99833e-08
-2.08871e-07
6.52171e-15
7.16533e-08
-2.25528e-07
6.72402e-15
7.35495e-08
-2.44029e-07
7.51533e-15
7.5457e-08
-2.63721e-07
8.25918e-15
7.72437e-08
-2.84281e-07
9.14701e-15
7.87045e-08
-3.0527e-07
1.00958e-14
7.91508e-08
-3.25117e-07
1.10657e-14
7.58179e-08
-3.37076e-07
9.79911e-15
5.82828e-08
-3.1271e-07
3.22915e-15
2.13574e-08
-1.92016e-07
1.97403e-14
2.86576e-09
9.82441e-09
5.12724e-15
-3.29807e-09
2.5681e-08
1.23493e-14
-4.1623e-09
3.44407e-08
6.38039e-17
-4.01357e-09
4.30114e-08
-2.19727e-16
-3.62024e-09
5.04513e-08
-1.52102e-16
-3.22418e-09
5.75235e-08
-4.00912e-17
6.44686e-08
5.43191e-17
2.41254e-13
-1.38952e-12
4.63734e-18
3.41595e-12
-1.67864e-11
4.91564e-18
1.44628e-11
-6.04745e-11
-6.30719e-18
3.9027e-11
-1.4541e-10
5.42126e-18
8.26528e-11
-2.87114e-10
1.0394e-16
1.50183e-10
-5.03677e-10
3.43462e-17
2.45878e-10
-8.16003e-10
1.29838e-16
3.74008e-10
-1.24913e-09
4.38082e-16
5.39527e-10
-1.83397e-09
4.19619e-16
7.47672e-10
-2.60953e-09
9.3945e-16
1.00017e-09
-3.61778e-09
1.09469e-15
1.28745e-09
-4.89484e-09
1.4019e-15
1.5734e-09
-6.44384e-09
1.7009e-15
1.83117e-09
-8.29194e-09
1.84885e-15
2.0551e-09
-1.06515e-08
2.19549e-15
2.85917e-09
-1.50404e-08
2.7093e-15
2.29212e-08
-4.99724e-08
-1.55928e-15
5.73663e-08
-1.33889e-07
4.07921e-15
7.48453e-08
-1.91145e-07
6.292e-15
7.33575e-08
-1.979e-07
8.00144e-15
6.92301e-08
-1.90066e-07
7.65796e-15
6.87922e-08
-1.95883e-07
6.79784e-15
7.00681e-08
-2.10147e-07
6.71068e-15
7.18775e-08
-2.27337e-07
6.86331e-15
7.38336e-08
-2.45986e-07
7.63369e-15
7.57592e-08
-2.65646e-07
8.42321e-15
7.75238e-08
-2.86045e-07
9.36781e-15
7.88611e-08
-3.06608e-07
1.03831e-14
7.88687e-08
-3.25125e-07
1.13997e-14
7.40026e-08
-3.32209e-07
9.45095e-15
5.33643e-08
-2.92072e-07
4.31051e-15
1.87302e-08
-1.57382e-07
1.97735e-14
3.12703e-09
2.54275e-08
9.78027e-15
-3.12773e-09
3.19358e-08
9.0104e-15
-4.70498e-09
3.60179e-08
-3.49384e-16
-4.89342e-09
4.31999e-08
-2.81369e-16
-4.65988e-09
5.02178e-08
-1.96304e-16
-4.28091e-09
5.71445e-08
-4.94657e-17
6.40735e-08
8.03086e-17
6.67021e-14
-1.45622e-12
2.63657e-19
1.44989e-12
-1.81695e-11
1.49852e-17
7.50811e-12
-6.65332e-11
-4.41483e-17
2.28235e-11
-1.60725e-10
1.60392e-16
5.22181e-11
-3.16507e-10
2.58183e-16
1.00136e-10
-5.51596e-10
4.85248e-17
1.70575e-10
-8.86443e-10
1.60256e-16
2.67411e-10
-1.34596e-09
5.767e-16
3.94752e-10
-1.96131e-09
6.3295e-16
5.55594e-10
-2.77037e-09
9.05714e-16
7.47587e-10
-3.80977e-09
1.09246e-15
9.53068e-10
-5.10031e-09
1.51333e-15
1.13504e-09
-6.62581e-09
1.68094e-15
1.28809e-09
-8.445e-09
1.82499e-15
1.5251e-09
-1.08885e-08
2.43628e-15
5.44284e-09
-1.89581e-08
9.13595e-15
3.55728e-08
-8.01024e-08
-3.71471e-15
6.57596e-08
-1.64076e-07
6.481e-15
7.55968e-08
-2.00983e-07
4.00562e-15
7.08439e-08
-1.93148e-07
6.39104e-15
6.78444e-08
-1.87066e-07
7.27895e-15
6.83122e-08
-1.96351e-07
6.58406e-15
6.99388e-08
-2.11773e-07
6.64077e-15
7.18935e-08
-2.29292e-07
6.94471e-15
7.39146e-08
-2.48007e-07
7.79772e-15
7.58613e-08
-2.67593e-07
8.64937e-15
7.75984e-08
-2.87783e-07
9.63772e-15
7.87948e-08
-3.07804e-07
1.07171e-14
7.82875e-08
-3.24617e-07
1.199e-14
7.1287e-08
-3.25209e-07
8.88631e-15
4.75958e-08
-2.68381e-07
6.08868e-15
1.58726e-08
-1.25659e-07
2.86628e-14
3.17261e-09
3.81275e-08
-4.71175e-15
-3.11002e-09
3.82184e-08
-2.22926e-15
-5.11684e-09
3.80247e-08
-9.94521e-16
-5.58128e-09
4.36643e-08
-3.50636e-16
-5.51014e-09
5.01466e-08
-2.41842e-16
-5.19556e-09
5.68299e-08
-5.81542e-17
6.36746e-08
1.11209e-16
1.58757e-13
-1.61492e-12
7.5569e-18
2.1397e-12
-2.01506e-11
-1.71692e-17
8.91094e-12
-7.33043e-11
4.66104e-17
2.40983e-11
-1.75913e-10
1.15274e-17
5.15465e-11
-3.43955e-10
1.77116e-16
9.48704e-11
-5.94921e-10
7.19738e-17
1.5741e-10
-9.48983e-10
1.28528e-16
2.42391e-10
-1.43094e-09
6.80933e-16
3.52984e-10
-2.0719e-09
8.24818e-16
4.89718e-10
-2.90711e-09
8.19592e-16
6.461e-10
-3.96616e-09
1.06255e-15
7.94752e-10
-5.24896e-09
1.54725e-15
9.00299e-10
-6.73136e-09
1.81912e-15
9.25434e-10
-8.47013e-09
2.08455e-15
1.10211e-09
-1.10651e-08
1.98934e-15
1.41466e-08
-3.20026e-08
1.72973e-14
4.85213e-08
-1.14477e-07
7.06274e-15
7.17028e-08
-1.87257e-07
3.0974e-15
7.38124e-08
-2.03092e-07
5.58263e-15
6.79986e-08
-1.87334e-07
1.19157e-14
6.6486e-08
-1.85554e-07
9.02011e-15
6.76595e-08
-1.97525e-07
7.21258e-15
6.95574e-08
-2.13671e-07
6.95992e-15
7.16421e-08
-2.31377e-07
7.17283e-15
7.37277e-08
-2.50092e-07
8.00631e-15
7.56965e-08
-2.69562e-07
8.88144e-15
7.73973e-08
-2.89484e-07
9.90912e-15
7.84149e-08
-3.08821e-07
1.10946e-14
7.72055e-08
-3.23408e-07
1.28907e-14
6.71893e-08
-3.15192e-07
7.53444e-15
4.07112e-08
-2.41903e-07
9.6349e-15
1.1826e-08
-9.6774e-08
2.59349e-14
2.28573e-09
4.76678e-08
-1.70231e-14
-3.36521e-09
4.38694e-08
-6.9904e-15
-5.5148e-09
4.01743e-08
-1.71021e-15
-6.1622e-09
4.43117e-08
-4.04107e-16
-6.22103e-09
5.02055e-08
-2.51102e-16
-5.9872e-09
5.65961e-08
-3.13682e-17
6.32975e-08
1.77511e-16
3.42778e-14
-1.64916e-12
5.04433e-18
7.82566e-13
-2.0899e-11
-9.15639e-18
4.19184e-12
-7.67137e-11
1.92679e-17
1.30849e-11
-1.84805e-10
7.25397e-17
3.06714e-11
-3.61541e-10
2.03278e-16
6.02423e-11
-6.24492e-10
1.54347e-16
1.05161e-10
-9.93903e-10
2.23664e-16
1.68905e-10
-1.49468e-09
7.1595e-16
2.5448e-10
-2.15748e-09
8.72893e-16
3.60772e-10
-3.01341e-09
7.98373e-16
4.76949e-10
-4.08233e-09
1.03253e-15
5.68095e-10
-5.3401e-09
1.54152e-15
6.02884e-10
-6.76615e-09
1.79036e-15
5.0416e-10
-8.37141e-09
2.14566e-15
7.86477e-10
-1.13475e-08
-1.51323e-15
2.41449e-08
-5.5361e-08
4.59337e-15
5.74982e-08
-1.4783e-07
1.00968e-14
7.37729e-08
-2.03532e-07
-5.19259e-15
7.03744e-08
-1.99694e-07
4.80714e-15
6.52642e-08
-1.82224e-07
9.82356e-15
6.50922e-08
-1.85381e-07
7.84169e-15
6.67655e-08
-1.99198e-07
6.83557e-15
6.88677e-08
-2.15773e-07
6.85296e-15
7.10615e-08
-2.33571e-07
7.22146e-15
7.32057e-08
-2.52237e-07
8.16416e-15
7.5192e-08
-2.71548e-07
9.11189e-15
7.68384e-08
-2.9113e-07
1.01699e-14
7.76049e-08
-3.09588e-07
1.15037e-14
7.53327e-08
-3.21135e-07
1.3798e-14
6.1462e-08
-3.01321e-07
5.79766e-15
3.2889e-08
-2.13331e-07
1.3402e-14
6.75685e-09
-7.06418e-08
8.02539e-15
4.32243e-11
5.43815e-08
-1.28759e-15
-4.00823e-09
4.79208e-08
4.5369e-16
-5.96863e-09
4.21347e-08
-1.43698e-15
-6.69001e-09
4.50331e-08
-3.59853e-16
-6.83979e-09
5.03553e-08
-1.93398e-16
-6.68076e-09
5.6437e-08
5.9499e-17
6.29522e-08
3.04873e-16
1.04824e-13
-1.75393e-12
6.63073e-18
1.35347e-12
-2.21478e-11
-1.22109e-17
5.50801e-12
-8.08682e-11
2.06817e-17
1.47842e-11
-1.94081e-10
1.65208e-16
3.173e-11
-3.78488e-10
3.46555e-17
5.91479e-11
-6.5191e-10
2.97787e-16
1.00135e-10
-1.03489e-09
2.57531e-16
1.5815e-10
-1.5527e-09
6.58088e-16
2.35522e-10
-2.23485e-09
8.63727e-16
3.29533e-10
-3.10742e-09
7.83924e-16
4.23869e-10
-4.17667e-09
1.22679e-15
4.82e-10
-5.39823e-09
1.5654e-15
4.76188e-10
-6.76035e-09
1.59048e-15
4.37711e-10
-8.33293e-09
2.23057e-15
4.8835e-09
-1.57932e-08
3.41081e-15
3.54002e-08
-8.58777e-08
6.37542e-15
6.41118e-08
-1.76542e-07
-5.08865e-15
7.26693e-08
-2.12089e-07
-2.35976e-15
6.61947e-08
-1.93219e-07
8.52425e-15
6.27498e-08
-1.78779e-07
7.18378e-15
6.36087e-08
-1.8624e-07
6.70183e-15
6.56143e-08
-2.01204e-07
6.6808e-15
6.78604e-08
-2.18019e-07
6.94515e-15
7.01347e-08
-2.35845e-07
7.41134e-15
7.23211e-08
-2.54423e-07
8.40706e-15
7.43089e-08
-2.73536e-07
9.37271e-15
7.58712e-08
-2.92693e-07
1.0401e-14
7.62675e-08
-3.09984e-07
1.19181e-14
7.22862e-08
-3.17154e-07
1.3883e-14
5.41313e-08
-2.83166e-07
4.6137e-15
2.45984e-08
-1.83798e-07
1.40615e-14
1.68043e-09
-4.77238e-08
9.64581e-15
-2.11197e-09
5.81738e-08
1.62673e-14
-4.89774e-09
5.07065e-08
2.03644e-15
-6.49315e-09
4.37301e-08
-1.03004e-15
-7.20126e-09
4.57412e-08
-2.43101e-16
-7.40639e-09
5.05605e-08
-6.75094e-17
-7.30173e-09
5.63324e-08
2.18164e-16
6.2636e-08
4.95382e-16
2.73048e-14
-1.78118e-12
7.22738e-18
5.35393e-13
-2.2656e-11
-1.42827e-17
2.75881e-12
-8.30915e-11
3.52577e-17
8.55218e-12
-1.99873e-10
2.0188e-16
2.02101e-11
-3.90147e-10
4.55201e-17
4.05159e-11
-6.72215e-10
2.81032e-16
7.26504e-11
-1.06703e-09
2.865e-16
1.20128e-10
-1.60017e-09
6.46881e-16
1.83821e-10
-2.29854e-09
8.8038e-16
2.57662e-10
-3.18126e-09
8.1191e-16
3.14729e-10
-4.23374e-09
1.08276e-15
3.09181e-10
-5.39268e-09
1.30865e-15
1.37886e-10
-6.58905e-09
1.29601e-15
-3.21713e-10
-7.87335e-09
-6.38411e-16
1.23266e-08
-2.84416e-08
-6.94442e-15
4.51675e-08
-1.18719e-07
9.68111e-15
6.79609e-08
-1.99336e-07
-1.96185e-14
6.93211e-08
-2.13449e-07
1.37944e-15
6.20518e-08
-1.8595e-07
1.32373e-15
6.04405e-08
-1.77167e-07
5.2745e-15
6.19885e-08
-1.87788e-07
6.13173e-15
6.41975e-08
-2.03413e-07
6.49061e-15
6.6535e-08
-2.20357e-07
6.87542e-15
6.88575e-08
-2.38167e-07
7.45171e-15
7.10614e-08
-2.56627e-07
8.54142e-15
7.30243e-08
-2.75499e-07
9.54874e-15
7.4463e-08
-2.94132e-07
1.05486e-14
7.43378e-08
-3.09858e-07
1.23394e-14
6.77282e-08
-3.10544e-07
1.22608e-14
4.55139e-08
-2.60952e-07
4.68822e-15
1.62832e-08
-1.54567e-07
1.56075e-14
-3.48553e-09
-2.7955e-08
6.74883e-15
-4.32103e-09
5.90093e-08
3.02355e-14
-5.84573e-09
5.22312e-08
2.49894e-15
-7.06833e-09
4.49527e-08
-3.514e-16
-7.72771e-09
4.64006e-08
-6.30254e-17
-7.95527e-09
5.0788e-08
1.15111e-16
-7.87335e-09
5.62504e-08
4.32169e-16
6.23344e-08
7.32497e-16
7.4188e-14
-1.85532e-12
6.50823e-18
9.44354e-13
-2.35263e-11
-2.77028e-18
3.83143e-12
-8.59786e-11
3.25727e-17
1.0356e-11
-2.06398e-10
6.54703e-17
2.25468e-11
-4.02338e-10
9.83022e-17
4.30043e-11
-6.9267e-10
5.59622e-16
7.47458e-11
-1.09877e-09
3.0357e-16
1.2085e-10
-1.64628e-09
6.1533e-16
1.80452e-10
-2.35814e-09
9.10614e-16
2.43759e-10
-3.24457e-09
8.80259e-16
2.75523e-10
-4.2655e-09
9.70803e-16
2.25015e-10
-5.34217e-09
1.19495e-15
-8.26251e-11
-6.28141e-09
1.67104e-15
-8.06557e-10
-7.14942e-09
7.77452e-16
2.01884e-08
-4.94365e-08
-8.78824e-15
5.17028e-08
-1.50233e-07
-1.27338e-15
6.83978e-08
-2.16031e-07
-1.83461e-14
6.45758e-08
-2.09627e-07
5.38981e-15
5.83171e-08
-1.79692e-07
-1.83415e-16
5.82339e-08
-1.77084e-07
5.03307e-15
6.0202e-08
-1.89756e-07
5.95836e-15
6.25245e-08
-2.05736e-07
6.62588e-15
6.49075e-08
-2.2274e-07
7.12364e-15
6.72425e-08
-2.40503e-07
7.75617e-15
6.9432e-08
-2.58816e-07
8.85482e-15
7.13346e-08
-2.77401e-07
9.80385e-15
7.25926e-08
-2.9539e-07
1.07032e-14
7.17538e-08
-3.0902e-07
1.28199e-14
6.15505e-08
-3.00341e-07
8.95669e-15
3.61648e-08
-2.35566e-07
6.12588e-15
8.34064e-09
-1.26743e-07
1.66502e-14
-8.00172e-09
-1.16125e-08
9.51682e-15
-6.4651e-09
5.74726e-08
3.08784e-14
-6.81729e-09
5.25834e-08
1.80069e-15
-7.73119e-09
4.58666e-08
3.1294e-16
-8.32204e-09
4.69914e-08
1.97797e-16
-8.52212e-09
5.09882e-08
3.55815e-16
-8.41534e-09
5.61437e-08
6.96982e-16
6.20242e-08
9.95575e-16
3.08739e-14
-1.88614e-12
6.89731e-18
5.12858e-13
-2.40085e-11
-1.40812e-17
2.48879e-12
-8.79545e-11
4.51806e-17
7.55559e-12
-2.11464e-10
1.69973e-16
1.78502e-11
-4.12633e-10
1.60193e-16
3.61612e-11
-7.1098e-10
4.427e-16
6.57481e-11
-1.12836e-09
2.03537e-16
1.09267e-10
-1.6898e-09
5.35887e-16
1.64439e-10
-2.41331e-09
9.28944e-16
2.17227e-10
-3.29736e-09
7.98871e-16
2.30218e-10
-4.2785e-09
8.58566e-16
1.57116e-10
-5.26907e-09
1.0708e-15
-7.8506e-11
-6.04579e-09
7.76449e-16
2.19883e-09
-9.42677e-09
1.18789e-15
2.89015e-08
-7.61393e-08
8.52129e-15
5.67528e-08
-1.78084e-07
-8.06467e-15
6.66107e-08
-2.25889e-07
-8.16799e-15
5.95389e-08
-2.02556e-07
4.61285e-15
5.51227e-08
-1.75275e-07
1.22047e-15
5.60675e-08
-1.78029e-07
4.94495e-15
5.82507e-08
-1.91939e-07
5.62547e-15
6.06175e-08
-2.08103e-07
6.42376e-15
6.30025e-08
-2.25125e-07
7.03089e-15
6.53125e-08
-2.42813e-07
7.76979e-15
6.74508e-08
-2.60955e-07
8.9442e-15
6.92496e-08
-2.792e-07
9.89197e-15
7.02381e-08
-2.96379e-07
1.07968e-14
6.83646e-08
-3.07146e-07
1.33528e-14
5.39315e-08
-2.85907e-07
6.14956e-15
2.6704e-08
-2.08338e-07
7.05412e-15
9.7432e-10
-1.01014e-07
1.4664e-14
-1.19738e-08
1.33564e-09
1.45224e-14
-9.07086e-09
5.45697e-08
2.62769e-14
-8.2338e-09
5.17464e-08
6.96531e-16
-8.71933e-09
4.63521e-08
1.34991e-15
-9.09469e-09
4.73668e-08
6.79742e-16
-9.14632e-09
5.10398e-08
7.09263e-16
-8.94276e-09
5.59401e-08
1.02611e-15
6.16776e-08
1.26372e-15
6.09679e-14
-1.94709e-12
3.19873e-18
8.017e-13
-2.47492e-11
1.19547e-17
3.37723e-12
-9.05301e-11
3.02727e-17
9.39544e-12
-2.17482e-10
8.01794e-17
2.10214e-11
-4.24259e-10
1.60625e-16
4.0909e-11
-7.30867e-10
3.96025e-16
7.20345e-11
-1.15948e-09
5.32503e-16
1.15547e-10
-1.73331e-09
1.01815e-15
1.66307e-10
-2.46407e-09
7.16411e-16
2.02869e-10
-3.33393e-09
6.80785e-16
1.81597e-10
-4.25723e-09
9.33653e-16
1.99356e-11
-5.10741e-09
1.23865e-15
-3.84084e-10
-5.64177e-09
-3.82242e-15
7.81831e-09
-1.76291e-08
1.57851e-15
3.68239e-08
-1.05145e-07
1.78432e-14
6.00345e-08
-2.01295e-07
-2.79007e-15
6.33002e-08
-2.29154e-07
-1.52418e-15
5.48371e-08
-1.94093e-07
2.72315e-15
5.23357e-08
-1.72774e-07
4.21823e-15
5.38827e-08
-1.79576e-07
5.73239e-15
5.61458e-08
-1.94202e-07
6.11844e-15
5.85035e-08
-2.10461e-07
6.87664e-15
6.08489e-08
-2.2747e-07
7.4536e-15
6.30961e-08
-2.4506e-07
8.15329e-15
6.51468e-08
-2.63005e-07
9.25944e-15
6.68002e-08
-2.80854e-07
1.00761e-14
6.74024e-08
-2.96981e-07
1.10585e-14
6.39121e-08
-3.03655e-07
1.37244e-14
4.52601e-08
-2.67255e-07
3.70895e-15
1.7662e-08
-1.8074e-07
7.63865e-15
-5.4157e-09
-7.7936e-08
1.55059e-14
-1.55599e-08
1.14799e-08
2.09626e-14
-1.24394e-08
5.14491e-08
2.29476e-14
-1.06129e-08
4.99198e-08
1.83062e-15
-1.03232e-08
4.60624e-08
1.8726e-15
-1.01205e-08
4.71642e-08
1.34131e-15
-9.82446e-09
5.07438e-08
1.19772e-15
-9.45602e-09
5.55717e-08
1.35014e-15
6.1278e-08
1.4825e-15
3.90258e-14
-1.98606e-12
7.23065e-18
6.0404e-13
-2.53143e-11
5.65433e-18
2.85801e-12
-9.27842e-11
3.36879e-17
8.51874e-12
-2.23143e-10
1.597e-16
1.99172e-11
-4.35658e-10
2.08757e-16
3.97399e-11
-7.5069e-10
3.04425e-16
7.07625e-11
-1.1905e-09
4.09782e-16
1.1276e-10
-1.7753e-09
9.77455e-16
1.57587e-10
-2.5089e-09
7.34489e-16
1.76808e-10
-3.35315e-09
6.49649e-16
1.18154e-10
-4.19857e-09
1.09764e-15
-1.62925e-10
-4.82633e-09
1.56036e-15
-9.32012e-10
-4.8727e-09
2.68521e-15
1.40447e-08
-3.26058e-08
-5.42577e-15
4.268e-08
-1.3378e-07
-5.68244e-15
6.10647e-08
-2.1968e-07
1.16024e-14
5.89406e-08
-2.2703e-07
3.70669e-15
5.07296e-08
-1.85882e-07
1.20342e-15
4.97921e-08
-1.71837e-07
5.44135e-15
5.16465e-08
-1.8143e-07
5.64355e-15
5.39051e-08
-1.96461e-07
6.01259e-15
5.62097e-08
-2.12765e-07
6.83641e-15
5.84759e-08
-2.29736e-07
7.50076e-15
6.06232e-08
-2.47207e-07
8.26209e-15
6.25522e-08
-2.64934e-07
9.36707e-15
6.40288e-08
-2.8233e-07
1.00849e-14
6.41402e-08
-2.97093e-07
1.15208e-14
5.81942e-08
-2.97709e-07
1.33248e-14
3.60592e-08
-2.4512e-07
8.03178e-16
9.40017e-09
-1.54081e-07
6.04582e-15
-1.07972e-08
-5.77386e-08
1.35013e-14
-1.85549e-08
1.92375e-08
2.78234e-14
-1.55928e-08
4.8487e-08
1.88269e-14
-1.29791e-08
4.73061e-08
3.69584e-15
-1.18179e-08
4.49012e-08
9.59606e-16
-1.104e-08
4.63863e-08
1.62906e-15
-1.04303e-08
5.01342e-08
1.50835e-15
-9.93086e-09
5.50723e-08
1.52283e-15
6.08374e-08
1.60188e-15
5.81696e-14
-2.04421e-12
3.85011e-18
8.07462e-13
-2.60636e-11
1.76275e-17
3.56137e-12
-9.55382e-11
4.68257e-17
1.0168e-11
-2.29749e-10
1.35314e-16
2.30873e-11
-4.48577e-10
2.51223e-16
4.5007e-11
-7.7261e-10
3.20451e-16
7.84755e-11
-1.22397e-09
4.33694e-16
1.22218e-10
-1.81904e-09
9.59715e-16
1.66775e-10
-2.55346e-09
7.10611e-16
1.82554e-10
-3.36893e-09
8.89337e-16
1.26728e-10
-4.14275e-09
1.15486e-15
-1.02183e-10
-4.59742e-09
2.69363e-16
2.16747e-11
-4.99655e-09
-7.05297e-16
2.04342e-08
-5.30184e-08
1.22854e-14
4.74219e-08
-1.60768e-07
7.30603e-17
6.04323e-08
-2.3269e-07
1.45408e-14
5.41915e-08
-2.2079e-07
6.50754e-15
4.72744e-08
-1.78964e-07
6.86137e-17
4.73932e-08
-1.71955e-07
5.48956e-15
4.93555e-08
-1.83393e-07
5.95007e-15
5.15511e-08
-1.98656e-07
6.36637e-15
5.3763e-08
-2.14977e-07
7.14327e-15
5.59106e-08
-2.31884e-07
7.76666e-15
5.79203e-08
-2.49217e-07
8.48983e-15
5.96936e-08
-2.66708e-07
9.52138e-15
6.09656e-08
-2.83602e-07
1.0087e-14
6.05273e-08
-2.96655e-07
1.22557e-14
5.12929e-08
-2.88475e-07
1.15273e-14
2.69263e-08
-2.20753e-07
-1.69113e-15
2.14859e-09
-1.29303e-07
-7.06212e-16
-1.49565e-08
-4.06334e-08
5.72995e-15
-2.04243e-08
2.47053e-08
3.01827e-14
-1.72758e-08
4.53386e-08
1.3202e-14
-1.41692e-08
4.41996e-08
3.91462e-15
-1.25465e-08
4.32784e-08
6.01774e-16
-1.15771e-08
4.54169e-08
1.64889e-15
-1.08848e-08
4.94419e-08
1.57303e-15
-1.03493e-08
5.45368e-08
1.57438e-15
6.03837e-08
1.63491e-15
4.84048e-14
-2.09258e-12
5.01908e-18
7.39873e-13
-2.67551e-11
1.52381e-17
3.47135e-12
-9.82698e-11
3.43381e-17
1.02698e-11
-2.36547e-10
1.7818e-16
2.37363e-11
-4.62043e-10
2.82728e-16
4.65639e-11
-7.95439e-10
3.07054e-16
8.09941e-11
-1.2584e-09
4.51237e-16
1.25029e-10
-1.86308e-09
1.04793e-15
1.69509e-10
-2.59794e-09
9.02532e-16
1.89763e-10
-3.38919e-09
1.3453e-15
1.7265e-10
-4.12564e-09
1.96443e-15
1.94175e-10
-4.61894e-09
7.86786e-16
3.26151e-09
-8.0639e-09
3.9296e-15
2.71715e-08
-7.69285e-08
1.96505e-14
5.12885e-08
-1.84885e-07
1.22928e-14
5.86225e-08
-2.40024e-07
1.34797e-14
4.95683e-08
-2.11736e-07
3.76147e-15
4.43446e-08
-1.73741e-07
-1.87502e-16
4.50762e-08
-1.72687e-07
4.90092e-15
4.70187e-08
-1.85335e-07
5.87928e-15
4.91072e-08
-2.00745e-07
6.4379e-15
5.11881e-08
-2.17058e-07
7.25203e-15
5.31789e-08
-2.33874e-07
7.91173e-15
5.50122e-08
-2.5105e-07
8.63595e-15
5.65893e-08
-2.68285e-07
9.56971e-15
5.76088e-08
-2.84622e-07
1.00035e-14
5.65657e-08
-2.95612e-07
1.27189e-14
4.36035e-08
-2.75513e-07
8.14718e-15
1.84335e-08
-1.95583e-07
-2.04915e-15
-3.87437e-09
-1.06995e-07
-9.73863e-15
-1.77287e-08
-2.6779e-08
6.44036e-15
-2.07515e-08
2.77282e-08
3.05488e-14
-1.71188e-08
4.17059e-08
7.39299e-15
-1.41487e-08
4.12294e-08
2.05414e-15
-1.26697e-08
4.17994e-08
6.37189e-16
-1.18312e-08
4.45785e-08
1.37946e-15
-1.12215e-08
4.88323e-08
1.42663e-15
-1.07211e-08
5.40364e-08
1.50239e-15
5.99389e-08
1.583e-15
6.03967e-14
-2.15298e-12
1.27648e-18
8.77735e-13
-2.75724e-11
1.83047e-17
3.96442e-12
-1.01356e-10
7.16467e-17
1.14368e-11
-2.4402e-10
1.28496e-16
2.57833e-11
-4.76389e-10
3.18459e-16
4.93594e-11
-8.19015e-10
3.47111e-16
8.35649e-11
-1.29261e-09
5.04324e-16
1.25254e-10
-1.90476e-09
1.05124e-15
1.64668e-10
-2.63735e-09
9.7169e-16
1.82361e-10
-3.40688e-09
1.61816e-15
1.90337e-10
-4.13362e-09
2.48921e-15
4.24107e-10
-4.85271e-09
4.04325e-15
8.07789e-09
-1.57177e-08
1.41184e-14
3.33346e-08
-1.02185e-07
1.24166e-14
5.39719e-08
-2.05523e-07
8.00305e-15
5.5824e-08
-2.41876e-07
2.00852e-14
4.53286e-08
-2.0124e-07
2.77437e-15
4.17562e-08
-1.70168e-07
2.28353e-15
4.27989e-08
-1.7373e-07
5.40025e-15
4.46468e-08
-1.87183e-07
5.9999e-15
4.65933e-08
-2.02691e-07
6.48198e-15
4.85076e-08
-2.18973e-07
7.21055e-15
5.03062e-08
-2.35673e-07
7.84435e-15
5.19266e-08
-2.5267e-07
8.59848e-15
5.3264e-08
-2.69622e-07
9.48121e-15
5.39512e-08
-2.85309e-07
9.89644e-15
5.21257e-08
-2.93786e-07
1.2472e-14
3.5643e-08
-2.5903e-07
5.02363e-15
1.09898e-08
-1.7093e-07
-8.28703e-16
-8.53244e-09
-8.74727e-08
-1.81229e-14
-1.91256e-08
-1.61858e-08
5.78955e-15
-1.97716e-08
2.83742e-08
2.793e-14
-1.60874e-08
3.80217e-08
5.20737e-15
-1.37427e-08
3.88847e-08
7.14762e-16
-1.26173e-08
4.0674e-08
7.81945e-16
-1.19793e-08
4.39405e-08
1.11296e-15
-1.1494e-08
4.8347e-08
1.24156e-15
-1.10569e-08
5.35992e-08
1.3684e-15
5.95157e-08
1.47288e-15
5.64415e-14
-2.20939e-12
5.55497e-18
8.6171e-13
-2.83777e-11
1.6152e-17
3.97548e-12
-1.0447e-10
6.54047e-17
1.15718e-11
-2.51616e-10
1.6304e-16
2.59418e-11
-4.90759e-10
3.4386e-16
4.909e-11
-8.42164e-10
3.59648e-16
8.12924e-11
-1.32481e-09
6.0132e-16
1.1811e-10
-1.94158e-09
1.18986e-15
1.468e-10
-2.66605e-09
1.19414e-15
1.49931e-10
-3.41001e-09
1.98468e-15
1.35283e-10
-4.11897e-09
2.65417e-15
4.16458e-10
-5.13388e-09
3.82282e-15
1.30845e-08
-2.83858e-08
1.02892e-14
3.8411e-08
-1.27512e-07
3.51585e-15
5.51625e-08
-2.22274e-07
3.66053e-15
5.2154e-08
-2.38868e-07
1.85953e-14
4.1574e-08
-1.9066e-07
1.08501e-15
3.93705e-08
-1.67965e-07
4.12658e-15
4.05381e-08
-1.74897e-07
5.55926e-15
4.2249e-08
-1.88894e-07
6.22087e-15
4.40248e-08
-2.04467e-07
6.74947e-15
4.57411e-08
-2.20689e-07
7.45972e-15
4.73177e-08
-2.37249e-07
8.05429e-15
4.86964e-08
-2.54049e-07
8.73025e-15
4.97593e-08
-2.70685e-07
9.4609e-15
5.00234e-08
-2.85573e-07
9.80235e-15
4.70134e-08
-2.90777e-07
1.27839e-14
2.78255e-08
-2.39842e-07
3.22751e-15
4.75272e-09
-1.47857e-07
9.91421e-17
-1.18707e-08
-7.08492e-08
-1.89822e-14
-1.94679e-08
-8.58854e-09
1.34601e-14
-1.83123e-08
2.72186e-08
1.9646e-14
-1.51967e-08
3.49061e-08
1.77753e-15
-1.34779e-08
3.71659e-08
8.0767e-16
-1.26311e-08
3.98273e-08
8.25729e-16
-1.21375e-08
4.34468e-08
9.58317e-16
-1.17463e-08
4.7956e-08
1.11306e-15
-1.13649e-08
5.32178e-08
1.24323e-15
5.91162e-08
1.34328e-15
6.47049e-14
-2.27411e-12
9.32012e-19
9.67951e-13
-2.92809e-11
2.93234e-17
4.36486e-12
-1.07867e-10
7.12127e-17
1.25244e-11
-2.59776e-10
1.76041e-16
2.76081e-11
-5.05842e-10
3.54028e-16
5.1579e-11
-8.66136e-10
4.26049e-16
8.38277e-11
-1.35706e-09
5.74014e-16
1.20022e-10
-1.97777e-09
1.27605e-15
1.44404e-10
-2.69043e-09
1.25241e-15
1.45116e-10
-3.41072e-09
1.96358e-15
1.22711e-10
-4.09657e-09
3.23947e-15
6.88087e-10
-5.69927e-09
6.34017e-16
1.78218e-08
-4.55196e-08
-1.46785e-14
4.24938e-08
-1.52184e-07
6.4314e-15
5.49335e-08
-2.34714e-07
5.30279e-15
4.78999e-08
-2.31834e-07
1.38506e-14
3.8326e-08
-1.81086e-07
3.87069e-16
3.71147e-08
-1.66753e-07
5.65991e-15
3.82875e-08
-1.7607e-07
5.95309e-15
3.98337e-08
-1.9044e-07
6.48737e-15
4.14132e-08
-2.06046e-07
6.84342e-15
4.29041e-08
-2.2218e-07
7.36545e-15
4.42339e-08
-2.38579e-07
7.91215e-15
4.53504e-08
-2.55166e-07
8.63321e-15
4.61204e-08
-2.71455e-07
9.32158e-15
4.59055e-08
-2.85358e-07
9.65057e-15
4.11976e-08
-2.86069e-07
1.23558e-14
2.046e-08
-2.19104e-07
2.97825e-15
-3.58377e-10
-1.27039e-07
5.66643e-15
-1.40296e-08
-5.7178e-08
-9.10559e-15
-1.91366e-08
-3.4815e-09
5.29889e-15
-1.70786e-08
2.51606e-08
8.73328e-15
-1.47169e-08
3.25444e-08
9.24358e-16
-1.34296e-08
3.58786e-08
1.23525e-15
-1.27522e-08
3.91498e-08
8.33696e-16
-1.2338e-08
4.30326e-08
8.86489e-16
-1.19991e-08
4.76172e-08
1.03507e-15
-1.16531e-08
5.28718e-08
1.14303e-15
5.87358e-08
1.21558e-15
6.54501e-14
-2.33956e-12
2.20778e-18
1.00859e-12
-3.0224e-11
2.65786e-17
4.60008e-12
-1.11459e-10
6.86138e-17
1.33035e-11
-2.68479e-10
1.73041e-16
2.9426e-11
-5.21964e-10
3.69646e-16
5.55418e-11
-8.92252e-10
4.84672e-16
9.16405e-11
-1.39316e-09
6.42133e-16
1.36864e-10
-2.023e-09
1.29314e-15
1.78897e-10
-2.73246e-09
1.24772e-15
2.30884e-10
-3.46271e-09
1.77805e-15
3.74436e-10
-4.24012e-09
3.92774e-15
2.07793e-09
-7.40277e-09
8.02331e-15
2.28391e-08
-6.62807e-08
-2.11626e-14
4.57093e-08
-1.75054e-07
3.97772e-15
5.35606e-08
-2.42565e-07
1.27183e-14
4.34822e-08
-2.21756e-07
1.44393e-14
3.55319e-08
-1.73136e-07
3.01717e-15
3.49546e-08
-1.66176e-07
6.66473e-15
3.60507e-08
-1.77166e-07
6.47283e-15
3.7409e-08
-1.91799e-07
6.78116e-15
3.8767e-08
-2.07404e-07
7.17735e-15
4.00069e-08
-2.2342e-07
7.69485e-15
4.10663e-08
-2.39638e-07
8.19307e-15
4.19008e-08
-2.56e-07
8.8535e-15
4.23648e-08
-2.71919e-07
9.3811e-15
4.16608e-08
-2.84654e-07
9.48833e-15
3.48573e-08
-2.79265e-07
1.5712e-14
1.37747e-08
-1.98021e-07
4.45791e-15
-4.21777e-09
-1.09046e-07
1.13313e-15
-1.51387e-08
-4.62571e-08
3.35202e-15
-1.84014e-08
-2.18691e-10
-1.91263e-15
-1.6351e-08
2.31102e-08
3.81605e-15
-1.45698e-08
3.07633e-08
2.67343e-15
-1.35425e-08
3.48512e-08
1.33593e-15
-1.29572e-08
3.85645e-08
8.3887e-16
-1.25769e-08
4.26524e-08
8.59076e-16
-1.22584e-08
4.72987e-08
9.83387e-16
-1.19287e-08
5.25421e-08
1.0583e-15
5.83671e-08
1.09543e-15
7.27457e-14
-2.41232e-12
1.86784e-20
1.11003e-12
-3.12614e-11
1.95178e-17
5.02835e-12
-1.15377e-10
1.01329e-16
1.44218e-11
-2.77872e-10
2.24725e-16
3.18129e-11
-5.39355e-10
4.01079e-16
6.03785e-11
-9.20818e-10
4.58887e-16
1.01905e-10
-1.43469e-09
7.44042e-16
1.5968e-10
-2.08077e-09
1.6269e-15
2.30974e-10
-2.80376e-09
1.31536e-15
3.65932e-10
-3.59767e-09
1.7616e-15
8.36625e-10
-4.71081e-09
1.38237e-15
5.40519e-09
-1.19713e-08
2.40687e-14
2.81901e-08
-8.90656e-08
1.01991e-14
4.81653e-08
-1.95029e-07
3.75461e-15
5.13074e-08
-2.45707e-07
1.17378e-14
3.92474e-08
-2.09696e-07
1.39928e-14
3.3081e-08
-1.6697e-07
5.39076e-15
3.28666e-08
-1.65962e-07
6.93334e-15
3.38319e-08
-1.78132e-07
6.66239e-15
3.49811e-08
-1.92948e-07
7.06119e-15
3.60931e-08
-2.08516e-07
7.36644e-15
3.70568e-08
-2.24384e-07
7.75541e-15
3.78198e-08
-2.40401e-07
8.26012e-15
3.83457e-08
-2.56526e-07
9.00566e-15
3.8478e-08
-2.72051e-07
9.58248e-15
3.72863e-08
-2.83462e-07
1.23319e-14
2.82794e-08
-2.70259e-07
1.41246e-14
7.8801e-09
-1.77622e-07
1.09179e-15
-7.28419e-09
-9.38821e-08
2.8435e-15
-1.57207e-08
-3.78206e-08
-2.65847e-15
-1.76577e-08
1.7184e-09
-5.72501e-15
-1.60332e-08
2.14857e-08
4.25848e-15
-1.46301e-08
2.93601e-08
2.88698e-15
-1.37556e-08
3.39768e-08
1.18139e-15
-1.32164e-08
3.80252e-08
8.46848e-16
-1.28432e-08
4.22792e-08
8.52395e-16
-1.25246e-08
4.69802e-08
9.4457e-16
-1.21972e-08
5.22146e-08
9.84139e-16
5.80023e-08
9.87235e-16
7.40634e-14
-2.48639e-12
5.93476e-18
1.12297e-12
-3.23103e-11
2.97748e-17
5.06938e-12
-1.19323e-10
1.08166e-16
1.42695e-11
-2.87073e-10
1.83549e-16
3.09889e-11
-5.56074e-10
3.99e-16
5.79062e-11
-9.47736e-10
5.70441e-16
9.74341e-11
-1.47422e-09
8.79565e-16
1.52286e-10
-2.13562e-09
1.90527e-15
2.23731e-10
-2.87521e-09
2.0878e-15
3.65266e-10
-3.7392e-09
3.78584e-15
9.16002e-10
-5.26152e-09
-3.10961e-15
9.88217e-09
-2.09375e-08
4.20747e-14
3.2884e-08
-1.12068e-07
4.97691e-14
4.95597e-08
-2.11705e-07
1.1749e-14
4.82175e-08
-2.44365e-07
9.50502e-15
3.53559e-08
-1.96834e-07
1.52811e-14
3.0846e-08
-1.6246e-07
6.86327e-15
3.08258e-08
-1.65941e-07
7.01973e-15
3.16309e-08
-1.78937e-07