/*--------------------------------*- C++ -*----------------------------------*\
| =========                 |                                                 |
| \\      /  F ield         | OpenFOAM: The Open Source CFD Toolbox           |
|  \\    /   O peration     | Version:  v2012                                 |
|   \\  /    A nd           | Website:  www.openfoam.com                      |
|    \\/     M anipulation  |                                                 |
\*---------------------------------------------------------------------------*/
FoamFile
{
    version     2.0;
    format      ascii;
    class       volVectorField;
    location    "0.05";
    object      U;
}
// * * * * * * * * * * * * * * * * * * * * * * * * * * * * * * * * * * * * * //

dimensions      [0 1 -1 0 0 0 0];


internalField   nonuniform List<vector> 
3352
(
(-3.63252e-06 0.00123091 3.20289e-08)
(0.00345033 0.00414493 -3.0109e-05)
(0.0111141 -0.000376706 -9.69889e-05)
(0.0215053 -0.0163471 -0.000187672)
(0.0343163 -0.0440295 -0.000299473)
(0.0493543 -0.0838223 -0.000430706)
(0.0666208 -0.13473 -0.000581388)
(0.0863072 -0.195668 -0.000753186)
(0.108656 -0.266174 -0.000948216)
(0.13398 -0.346888 -0.00116921)
(0.162487 -0.43951 -0.00141799)
(0.194266 -0.546181 -0.00169531)
(0.228853 -0.668187 -0.00199716)
(0.265415 -0.804782 -0.0023163)
(0.301167 -0.955014 -0.00262848)
(0.341274 -1.13994 -0.00297756)
(0.399869 -1.44503 -0.00347929)
(0.587844 -2.33089 -0.00505909)
(1.94173 -6.18378 -0.0171762)
(3.98974 -10.517 -0.0348222)
(4.18094 -11.3557 -0.0363725)
(3.8241 -10.3717 -0.0332506)
(3.58903 -9.68407 -0.0312596)
(3.43427 -9.40145 -0.0299398)
(3.30911 -9.25063 -0.0288672)
(3.19771 -9.13224 -0.027907)
(3.0919 -9.01667 -0.0269889)
(2.98712 -8.89245 -0.0260807)
(2.87742 -8.74402 -0.025136)
(2.74311 -8.52598 -0.0239842)
(2.51087 -8.0573 -0.0220023)
(1.77648 -6.31523 -0.0156184)
(0.119886 -1.07318 -0.00147648)
(-0.130284 0.195626 0.000762303)
(-0.0370835 0.574213 0.000310083)
(-0.0343842 0.662719 0.000298913)
(-0.0223875 0.716267 0.000195598)
(-0.0174383 0.748973 0.000152201)
(-0.0141879 0.77227 0.000123867)
(-3.26306e-05 -0.00812993 2.84967e-07)
(0.0020073 -0.0257104 -1.75159e-05)
(0.00818554 -0.0476401 -7.14312e-05)
(0.0178093 -0.0760938 -0.000155415)
(0.0307028 -0.113746 -0.000267935)
(0.0463209 -0.161939 -0.000404234)
(0.0644062 -0.220437 -0.000562063)
(0.0849095 -0.288745 -0.000740995)
(0.10808 -0.366669 -0.000943199)
(0.134294 -0.454905 -0.00117197)
(0.163994 -0.554913 -0.00143116)
(0.19728 -0.668134 -0.00172164)
(0.233519 -0.794745 -0.00203791)
(0.270309 -0.932091 -0.00235925)
(0.303225 -1.08503 -0.002647)
(0.342465 -1.29295 -0.00298665)
(0.401061 -1.71875 -0.00343793)
(0.889035 -3.77301 -0.00702183)
(3.67569 -9.59159 -0.031922)
(4.89477 -12.3231 -0.0426507)
(4.41638 -11.5138 -0.0384147)
(3.84926 -10.2509 -0.0334896)
(3.59139 -9.71406 -0.0312879)
(3.43992 -9.4889 -0.0299939)
(3.32111 -9.3466 -0.0289758)
(3.21379 -9.22213 -0.0280495)
(3.11025 -9.09458 -0.0271504)
(3.00689 -8.95412 -0.0262569)
(2.89564 -8.77702 -0.0253012)
(2.75094 -8.47948 -0.024061)
(2.46048 -7.70027 -0.0215946)
(1.46571 -5.11204 -0.0129196)
(0.137403 -0.314282 -0.00167267)
(-0.139345 0.303734 0.000972616)
(-0.0859432 0.548936 0.00072711)
(-0.0808076 0.65295 0.000704435)
(-0.0619589 0.70994 0.000541174)
(-0.0503718 0.745745 0.000439759)
(-0.041856 0.770324 0.000365429)
(-7.00853e-05 -0.00411368 6.11762e-07)
(0.000975863 -0.0173405 -8.51508e-06)
(0.00476019 -0.0409711 -4.15384e-05)
(0.0115797 -0.0739895 -0.000101049)
(0.0215295 -0.116629 -0.000187876)
(0.0341858 -0.169202 -0.000298324)
(0.0492326 -0.231617 -0.000429634)
(0.0664557 -0.303725 -0.000579936)
(0.0859019 -0.385776 -0.000749639)
(0.10778 -0.47869 -0.000940568)
(0.132265 -0.583693 -0.00115424)
(0.158839 -0.701267 -0.00138616)
(0.185811 -0.829257 -0.00162162)
(0.207979 -0.962605 -0.00181526)
(0.223994 -1.1131 -0.00195417)
(0.243526 -1.33814 -0.00211931)
(0.263171 -2.01916 -0.00213539)
(1.81017 -6.45652 -0.0158239)
(4.42092 -11.3092 -0.0385592)
(4.91453 -12.4467 -0.0428304)
(4.25734 -11.1389 -0.0370285)
(3.80363 -10.1268 -0.0331161)
(3.59217 -9.73573 -0.0313072)
(3.45034 -9.54801 -0.0300918)
(3.33427 -9.41068 -0.0290945)
(3.22799 -9.28209 -0.0281748)
(3.12464 -9.14699 -0.0272773)
(3.02022 -8.99488 -0.0263758)
(2.90417 -8.79203 -0.0253803)
(2.7411 -8.41225 -0.0239882)
(2.3822 -7.34098 -0.0209102)
(1.29301 -4.41451 -0.0112885)
(0.168388 0.000227353 -0.00180787)
(-0.0821896 0.398739 0.00058272)
(-0.107106 0.551469 0.000909138)
(-0.107501 0.647343 0.000937094)
(-0.0936372 0.703332 0.000817538)
(-0.0795015 0.740633 0.000694083)
(-0.0675962 0.766463 0.00059014)
(-3.7786e-05 -0.0104367 3.29886e-07)
(0.00118789 -0.0376342 -1.03656e-05)
(0.00495094 -0.0730749 -4.32037e-05)
(0.011448 -0.115536 -9.99008e-05)
(0.0207615 -0.165945 -0.000181176)
(0.0325701 -0.224766 -0.000284227)
(0.046549 -0.292103 -0.000406219)
(0.0623738 -0.368154 -0.000544321)
(0.0799386 -0.453532 -0.000697607)
(0.0992685 -0.549273 -0.000866298)
(0.12025 -0.655998 -0.0010494)
(0.141938 -0.77271 -0.00123869)
(0.161875 -0.894259 -0.0014128)
(0.174036 -1.01754 -0.00151886)
(0.18358 -1.16117 -0.00160016)
(0.18113 -1.41896 -0.00156394)
(0.345477 -3.10479 -0.00278307)
(3.18007 -9.11428 -0.0277389)
(4.94326 -12.8865 -0.0431218)
(4.84259 -12.5966 -0.0421556)
(4.13918 -10.926 -0.0359938)
(3.77498 -10.091 -0.0328751)
(3.59252 -9.79145 -0.0313157)
(3.45947 -9.62531 -0.0301758)
(3.34657 -9.48813 -0.0292045)
(3.24093 -9.35205 -0.0282887)
(3.13703 -9.20601 -0.027387)
(3.03002 -9.03748 -0.026465)
(2.90663 -8.79943 -0.02541)
(2.71856 -8.31454 -0.0238151)
(2.27275 -6.90846 -0.0199574)
(1.0994 -3.6443 -0.009587)
(0.173415 0.340519 -0.00177509)
(-0.0601184 0.510097 0.000401764)
(-0.119801 0.573236 0.00101634)
(-0.12586 0.648021 0.00109591)
(-0.118523 0.698872 0.00103454)
(-0.104467 0.735465 0.000912012)
(-0.0908472 0.76191 0.000793104)
(-3.32134e-05 -0.00719052 2.89909e-07)
(0.000364792 -0.0303157 -3.18281e-06)
(0.00227626 -0.0668814 -1.98622e-05)
(0.00628498 -0.113336 -5.48429e-05)
(0.0126051 -0.168594 -0.000109994)
(0.021144 -0.232149 -0.000184509)
(0.0316657 -0.303813 -0.000276328)
(0.0439538 -0.383833 -0.000383562)
(0.05785 -0.473011 -0.000504831)
(0.0733226 -0.572326 -0.000639858)
(0.0898255 -0.681626 -0.000783882)
(0.106181 -0.798191 -0.00092665)
(0.118524 -0.914045 -0.00103444)
(0.123773 -1.03034 -0.00107972)
(0.130015 -1.16694 -0.00113226)
(0.101621 -1.52874 -0.000791719)
(1.05681 -5.52084 -0.00923246)
(4.12901 -11.6768 -0.0360097)
(5.22156 -13.8288 -0.0455371)
(4.66218 -12.3309 -0.0405537)
(4.01412 -10.6981 -0.0349177)
(3.73743 -10.0895 -0.0325586)
(3.58128 -9.8582 -0.0312238)
(3.4583 -9.7041 -0.0301701)
(3.34943 -9.5641 -0.0292318)
(3.24521 -9.4197 -0.0283268)
(3.14127 -9.26207 -0.0274261)
(3.03174 -9.07472 -0.0264843)
(2.90062 -8.79322 -0.0253672)
(2.68172 -8.17185 -0.0235147)
(2.1179 -6.40205 -0.0185796)
(0.895102 -2.95499 -0.00778168)
(0.176287 0.616159 -0.00169288)
(-0.0498958 0.621071 0.000324595)
(-0.12816 0.603476 0.00109008)
(-0.140701 0.653313 0.00122349)
(-0.138042 0.696822 0.00120469)
(-0.125609 0.730924 0.00109653)
(-0.111475 0.757107 0.000973164)
(-2.07189e-05 -0.0112688 1.80903e-07)
(0.000774303 -0.0431236 -6.75657e-06)
(0.0030613 -0.0867961 -2.67138e-05)
(0.00704141 -0.13905 -6.14458e-05)
(0.0128523 -0.19923 -0.000112155)
(0.0204179 -0.266834 -0.000178176)
(0.0295758 -0.341672 -0.000258094)
(0.0401767 -0.424109 -0.000350605)
(0.0520717 -0.515105 -0.00045441)
(0.0651974 -0.615323 -0.000568956)
(0.0785498 -0.723747 -0.000685488)
(0.0908194 -0.835474 -0.000792613)
(0.0961458 -0.942501 -0.000838979)
(0.0964936 -1.05258 -0.00084084)
(0.0848762 -1.20765 -0.000738226)
(0.0761741 -2.14071 -0.000424343)
(2.47762 -8.44692 -0.0216266)
(4.8557 -13.7668 -0.0423649)
(5.24005 -14.221 -0.0456683)
(4.42591 -11.9744 -0.0384708)
(3.90167 -10.5754 -0.0339529)
(3.69353 -10.1363 -0.0321836)
(3.55747 -9.94222 -0.0310216)
(3.44415 -9.79066 -0.0300506)
(3.33991 -9.644 -0.0291504)
(3.23796 -9.48911 -0.0282645)
(3.13458 -9.31784 -0.0273703)
(3.02258 -9.10791 -0.0264098)
(2.88211 -8.77177 -0.0252185)
(2.6185 -7.96727 -0.0229784)
(1.90205 -5.82731 -0.0166572)
(0.66919 -2.31724 -0.00579141)
(0.137066 0.838438 -0.00126493)
(-0.0532393 0.731253 0.000366251)
(-0.136179 0.638596 0.00116503)
(-0.154296 0.662076 0.00134053)
(-0.153956 0.696877 0.00134328)
(-0.143607 0.727396 0.00125356)
(-0.129654 0.752457 0.00113183)
(-1.60544e-05 -0.00921322 1.4015e-07)
(0.00018622 -0.0384072 -1.62465e-06)
(0.00123963 -0.0827472 -1.08162e-05)
(0.00354539 -0.137624 -3.0936e-05)
(0.00729362 -0.201201 -6.36432e-05)
(0.0125405 -0.272364 -0.000109428)
(0.0192482 -0.350702 -0.000167962)
(0.0273955 -0.436506 -0.000239058)
(0.0369388 -0.530647 -0.000322338)
(0.0476497 -0.633033 -0.000415811)
(0.058282 -0.741428 -0.000508609)
(0.0667129 -0.847766 -0.000582224)
(0.0666039 -0.94525 -0.000580771)
(0.0639683 -1.03774 -0.000555483)
(0.0146952 -1.20809 -9.31279e-05)
(0.265928 -3.97354 -0.00223216)
(3.56279 -11.4405 -0.0310636)
(5.29701 -15.3341 -0.0462166)
(5.04748 -14.137 -0.0439481)
(4.18447 -11.604 -0.0363642)
(3.8 -10.5296 -0.0330821)
(3.63823 -10.2113 -0.0317086)
(3.51843 -10.0361 -0.0306864)
(3.41412 -9.88167 -0.029792)
(3.31503 -9.72589 -0.0289344)
(3.21621 -9.55899 -0.0280759)
(3.11377 -9.37201 -0.0271918)
(2.99926 -9.1349 -0.0262128)
(2.84555 -8.72774 -0.0249161)
(2.51222 -7.67583 -0.0220477)
(1.62789 -5.194 -0.0142238)
(0.432092 -1.73779 -0.00370521)
(0.0499839 0.999784 -0.000465702)
(-0.0737106 0.820508 0.000560487)
(-0.147012 0.673384 0.00126733)
(-0.167342 0.672728 0.00145411)
(-0.167875 0.698472 0.00146433)
(-0.159234 0.724921 0.00138982)
(-0.14572 0.748165 0.00127203)
(-1.15481e-05 -0.0116952 1.00835e-07)
(0.00050776 -0.0460919 -4.43061e-06)
(0.00191462 -0.0945183 -1.67072e-05)
(0.00432461 -0.15272 -3.77372e-05)
(0.00787951 -0.219195 -6.87579e-05)
(0.0126031 -0.292907 -0.000109977)
(0.0185807 -0.373492 -0.00016214)
(0.0258085 -0.461289 -0.000225211)
(0.0344221 -0.556988 -0.000300377)
(0.0438317 -0.659593 -0.000382494)
(0.0529424 -0.765342 -0.000462018)
(0.0579296 -0.863616 -0.000505516)
(0.0552633 -0.95153 -0.000481583)
(0.0494992 -1.02904 -0.000430922)
(-0.0433314 -1.30998 0.000533477)
(1.25127 -6.79687 -0.010939)
(4.35357 -14.16 -0.0379784)
(5.4571 -16.291 -0.0476019)
(4.73527 -13.75 -0.0411829)
(3.96643 -11.3283 -0.0344766)
(3.70169 -10.5548 -0.0322375)
(3.57026 -10.3081 -0.0311225)
(3.46384 -10.1385 -0.0302152)
(3.3676 -9.97704 -0.0293889)
(3.27377 -9.80999 -0.0285751)
(3.17851 -9.62942 -0.0277483)
(3.07707 -9.42412 -0.0268752)
(2.95967 -9.15308 -0.025875)
(2.78503 -8.6484 -0.0244089)
(2.34284 -7.27927 -0.0205418)
(1.31448 -4.52481 -0.0114548)
(0.202325 -1.22263 -0.00169312)
(-0.0589916 1.09921 0.000500087)
(-0.105557 0.87953 0.000859882)
(-0.161364 0.702808 0.00140032)
(-0.180229 0.68372 0.00156754)
(-0.180988 0.701066 0.00157822)
(-0.173256 0.72331 0.00151195)
(-0.160056 0.74427 0.00139707)
(-8.92126e-06 -0.0105473 7.78892e-08)
(0.000141313 -0.043501 -1.23281e-06)
(0.000832182 -0.0924678 -7.26076e-06)
(0.00231262 -0.152428 -2.01784e-05)
(0.00477221 -0.221275 -4.16397e-05)
(0.00829972 -0.297704 -7.24201e-05)
(0.013096 -0.381242 -0.000114272)
(0.0191405 -0.472158 -0.000167017)
(0.0266565 -0.570538 -0.000232604)
(0.0344186 -0.674256 -0.000300348)
(0.0412801 -0.777039 -0.000360249)
(0.0406611 -0.866943 -0.000354533)
(0.0323422 -0.943553 -0.00028024)
(-0.00188462 -1.02323 2.00389e-05)
(-0.0988196 -2.08932 0.00109687)
(2.5201 -9.94656 -0.0219675)
(4.93177 -16.4183 -0.0430331)
(5.35439 -16.6462 -0.0466814)
(4.38134 -13.23 -0.0380649)
(3.78235 -11.1716 -0.0328922)
(3.60041 -10.6273 -0.0313644)
(3.48901 -10.4179 -0.0304202)
(3.39367 -10.2462 -0.0296076)
(3.30454 -10.0751 -0.0288405)
(3.21584 -9.89527 -0.0280701)
(3.12403 -9.69947 -0.0272748)
(3.0234 -9.47292 -0.026411)
(2.90243 -9.15826 -0.0253849)
(2.695 -8.51222 -0.0236451)
(2.09788 -6.77394 -0.0183601)
(0.986118 -3.84867 -0.00856381)
(-0.00371076 -0.772683 0.000106092)
(-0.159101 1.14158 0.00138081)
(-0.139185 0.916482 0.00117906)
(-0.177759 0.725625 0.00155243)
(-0.193652 0.694114 0.00168648)
(-0.194185 0.7042 0.00169275)
(-0.186381 0.722231 0.00162603)
(-0.173018 0.740665 0.00151003)
(-7.18009e-06 -0.0120367 6.27047e-08)
(0.000357741 -0.0481159 -3.12144e-06)
(0.00133091 -0.0995738 -1.16132e-05)
(0.00300989 -0.161662 -2.62637e-05)
(0.00554158 -0.232501 -4.83547e-05)
(0.00901841 -0.310932 -7.8693e-05)
(0.0136691 -0.396457 -0.000119275)
(0.0194817 -0.489277 -0.000169995)
(0.0265718 -0.588527 -0.000231868)
(0.0333518 -0.690717 -0.000291044)
(0.0382065 -0.785956 -0.00033342)
(0.0331743 -0.861612 -0.00028883)
(0.0212481 -0.903505 -0.000182177)
(-0.0652782 -0.919263 0.000614574)
(0.0551712 -4.04166 -0.000441697)
(3.39704 -13.1302 -0.029629)
(5.2596 -18.1606 -0.0458954)
(5.05297 -16.5153 -0.0440182)
(4.03953 -12.7332 -0.0350738)
(3.62301 -11.1261 -0.031523)
(3.49191 -10.7306 -0.0304268)
(3.39491 -10.5356 -0.0296054)
(3.30869 -10.357 -0.0288701)
(3.22573 -10.1745 -0.0281541)
(3.14166 -9.98067 -0.0274234)
(3.05281 -9.76812 -0.0266555)
(2.9525 -9.51701 -0.0257973)
(2.82622 -9.14565 -0.0247324)
(2.56892 -8.29169 -0.0225568)
(1.78433 -6.17518 -0.0155814)
(0.665844 -3.19355 -0.0057511)
(-0.182936 -0.394191 0.00167042)
(-0.248669 1.13144 0.00216766)
(-0.173206 0.933445 0.00150123)
(-0.196571 0.742445 0.00172927)
(-0.209187 0.703504 0.00182472)
(-0.208474 0.707376 0.00181687)
(-0.199237 0.721223 0.0017376)
(-0.1849 0.737131 0.00161349)
(-7.10613e-06 -0.0114904 6.20429e-08)
(0.000155669 -0.0470437 -1.35805e-06)
(0.000770772 -0.0992027 -6.72481e-06)
(0.00206434 -0.162801 -1.80114e-05)
(0.00419198 -0.235644 -3.65758e-05)
(0.00735697 -0.31649 -6.41922e-05)
(0.0117414 -0.404712 -0.00010245)
(0.0174488 -0.500248 -0.000152252)
(0.024197 -0.601006 -0.000211142)
(0.0304327 -0.701806 -0.000265572)
(0.0332099 -0.789082 -0.000289767)
(0.0264526 -0.850904 -0.000230196)
(0.0139819 -0.858187 -0.000122187)
(-0.131332 -0.886489 0.00128767)
(0.878805 -6.78603 -0.0076724)
(4.06121 -16.0321 -0.0354362)
(5.37333 -19.3052 -0.0468854)
(4.66312 -16.0544 -0.0405758)
(3.75031 -12.3541 -0.0325618)
(3.47833 -11.1609 -0.0302781)
(3.37535 -10.8509 -0.0294179)
(3.28914 -10.6571 -0.0286883)
(3.21019 -10.469 -0.0280137)
(3.13241 -10.2736 -0.0273405)
(3.05218 -10.0648 -0.0266434)
(2.96545 -9.83389 -0.0258956)
(2.86475 -9.55409 -0.0250373)
(2.72877 -9.10851 -0.0239003)
(2.39577 -7.9616 -0.021033)
(1.42919 -5.51299 -0.0124516)
(0.369718 -2.58033 -0.00315306)
(-0.34055 -0.089062 0.00304502)
(-0.342927 1.08429 0.00299451)
(-0.223468 0.932899 0.001957)
(-0.226347 0.754817 0.00200257)
(-0.230777 0.711435 0.00201639)
(-0.225225 0.709671 0.00196293)
(-0.212267 0.719506 0.00185101)
(-0.195955 0.733321 0.00170991)
(-8.68502e-06 -0.0124254 7.58482e-08)
(0.000298704 -0.0500494 -2.60622e-06)
(0.00113678 -0.104097 -9.91876e-06)
(0.00269577 -0.169539 -2.35218e-05)
(0.00506561 -0.244343 -4.41999e-05)
(0.0085234 -0.327326 -7.43717e-05)
(0.0130597 -0.41779 -0.000113955)
(0.0189107 -0.515155 -0.000165012)
(0.0250756 -0.616059 -0.000218815)
(0.0301556 -0.713086 -0.000263164)
(0.0290143 -0.790509 -0.000252989)
(0.0181333 -0.837909 -0.000157176)
(-0.0099784 -0.835444 8.38792e-05)
(-0.159729 -1.41231 0.00156386)
(1.98755 -9.89694 -0.0173389)
(4.57733 -18.5258 -0.0399438)
(5.28645 -19.8515 -0.0461198)
(4.25358 -15.413 -0.0369638)
(3.51585 -12.1169 -0.0305398)
(3.33874 -11.2447 -0.029074)
(3.25101 -10.9787 -0.0283404)
(3.17306 -10.7794 -0.0276805)
(3.0997 -10.58 -0.0270518)
(3.02598 -10.3709 -0.026412)
(2.94871 -10.1463 -0.0257413)
(2.86324 -9.89521 -0.0250065)
(2.76156 -9.58072 -0.0241433)
(2.60804 -9.03448 -0.0228725)
(2.16164 -7.51098 -0.0189488)
(1.06685 -4.82413 -0.00927068)
(0.106783 -2.02142 -0.000841266)
(-0.477772 0.148668 0.00423401)
(-0.442785 1.02163 0.00386966)
(-0.305254 0.907693 0.00267069)
(-0.279596 0.759954 0.00245974)
(-0.262146 0.714622 0.00229129)
(-0.244416 0.70852 0.00213198)
(-0.225234 0.715877 0.0019651)
(-0.206401 0.728885 0.00180144)
(-1.01351e-05 -0.0122647 8.85293e-08)
(0.000198306 -0.0500517 -1.73009e-06)
(0.000890484 -0.105189 -7.76921e-06)
(0.00236445 -0.172323 -2.06299e-05)
(0.0046835 -0.249267 -4.08644e-05)
(0.00820523 -0.334638 -7.15939e-05)
(0.0127675 -0.427576 -0.000111403)
(0.0186485 -0.526601 -0.000162724)
(0.024254 -0.626828 -0.000211648)
(0.028058 -0.717727 -0.000244857)
(0.0232289 -0.781437 -0.000202216)
(0.00790665 -0.79927 -6.69898e-05)
(-0.0547205 -0.742015 0.000490974)
(-0.0879284 -2.88554 0.000804584)
(2.82687 -13.0774 -0.0246682)
(4.93794 -20.5685 -0.0430928)
(5.03385 -19.8765 -0.0439015)
(3.86545 -14.7369 -0.0335522)
(3.32103 -12.0057 -0.0288667)
(3.19864 -11.3553 -0.0278627)
(3.11978 -11.1082 -0.0272023)
(3.04804 -10.9 -0.0265938)
(2.97877 -10.6883 -0.0259979)
(2.90788 -10.4647 -0.0253816)
(2.8326 -10.2236 -0.0247292)
(2.74778 -9.95073 -0.024002)
(2.64508 -9.59294 -0.0231343)
(2.46381 -8.90221 -0.0216439)
(1.86109 -6.9508 -0.0162762)
(0.725615 -4.14431 -0.00628176)
(-0.116712 -1.52714 0.0011355)
(-0.590229 0.334457 0.00520328)
(-0.52918 0.963089 0.00462825)
(-0.387775 0.865514 0.0033845)
(-0.330064 0.746354 0.00288283)
(-0.290877 0.706264 0.00254073)
(-0.26136 0.701686 0.00228211)
(-0.23703 0.710078 0.00206934)
(-0.216242 0.723839 0.00188773)
(-9.03115e-06 -0.0129186 7.88915e-08)
(0.000286341 -0.0523257 -2.49816e-06)
(0.00116255 -0.109284 -1.01433e-05)
(0.00288558 -0.178391 -2.51775e-05)
(0.00551844 -0.257534 -4.81504e-05)
(0.00941273 -0.34518 -8.21312e-05)
(0.0143259 -0.440283 -0.000125003)
(0.0205041 -0.540246 -0.000178918)
(0.0259603 -0.638514 -0.000226542)
(0.0293997 -0.72117 -0.000256556)
(0.0234573 -0.768706 -0.000204301)
(0.0117124 -0.747593 -0.000102374)
(-0.0936899 -0.636048 0.000864038)
(0.299488 -5.14516 -0.00262363)
(3.487 -16.1476 -0.0304313)
(5.15718 -22.1032 -0.0450079)
(4.6834 -19.4872 -0.0408199)
(3.53051 -14.1354 -0.0306254)
(3.15126 -11.986 -0.0274094)
(3.05634 -11.4779 -0.0266308)
(2.98298 -11.2356 -0.0260147)
(2.9155 -11.0168 -0.0254407)
(2.84885 -10.7919 -0.0248649)
(2.77944 -10.5534 -0.0242609)
(2.70506 -10.2957 -0.0236176)
(2.62033 -9.99957 -0.0228933)
(2.51664 -9.58802 -0.0220233)
(2.2968 -8.68441 -0.0202089)
(1.50987 -6.31118 -0.0131763)
(0.424043 -3.50199 -0.00364377)
(-0.301206 -1.1018 0.00277623)
(-0.668461 0.472959 0.00588594)
(-0.57506 0.906927 0.00503595)
(-0.430986 0.812101 0.0037557)
(-0.352931 0.720376 0.00307713)
(-0.30618 0.69124 0.0026741)
(-0.273099 0.691831 0.00238563)
(-0.247018 0.703166 0.00215719)
(-0.225346 0.718466 0.00196742)
(-6.06101e-06 -0.0130027 5.29875e-08)
(0.000235567 -0.0530887 -2.05506e-06)
(0.00109888 -0.111572 -9.58747e-06)
(0.00285226 -0.182739 -2.48862e-05)
(0.00564477 -0.264346 -4.92521e-05)
(0.00970853 -0.354557 -8.47117e-05)
(0.0148555 -0.452059 -0.000129624)
(0.0210852 -0.552981 -0.00018399)
(0.0264347 -0.649396 -0.00023068)
(0.0298356 -0.724581 -0.000260359)
(0.0252475 -0.760902 -0.000220518)
(0.0238709 -0.726558 -0.000214297)
(-0.0858482 -0.788813 0.000828428)
(1.10541 -7.97246 -0.0096645)
(4.03316 -18.9546 -0.0351993)
(5.23653 -23.0859 -0.0457008)
(4.29357 -18.7939 -0.0373866)
(3.25587 -13.6616 -0.0282443)
(2.99522 -12.0221 -0.0260674)
(2.91197 -11.6022 -0.0253795)
(2.84192 -11.3579 -0.024789)
(2.77684 -11.1278 -0.0242331)
(2.71125 -10.8891 -0.0236644)
(2.64189 -10.6355 -0.0230609)
(2.56712 -10.361 -0.0224152)
(2.48156 -10.0406 -0.0216863)
(2.37544 -9.56473 -0.0208058)
(2.10515 -8.35854 -0.0185321)
(1.14284 -5.63175 -0.00995956)
(0.171559 -2.91558 -0.00143312)
(-0.444757 -0.748035 0.00406219)
(-0.702065 0.562529 0.00619336)
(-0.566008 0.840685 0.00496401)
(-0.427729 0.754381 0.00372913)
(-0.353996 0.6932 0.00308723)
(-0.311604 0.676831 0.00272106)
(-0.280799 0.682362 0.00245295)
(-0.25553 0.696325 0.00223172)
(-0.233821 0.713077 0.00204151)
(5.75657e-07 -0.0135314 -4.95955e-09)
(0.000279923 -0.0551178 -2.44203e-06)
(0.00130387 -0.115586 -1.1376e-05)
(0.00319969 -0.189053 -2.79177e-05)
(0.0062604 -0.273165 -5.46244e-05)
(0.0104002 -0.365807 -9.07476e-05)
(0.0156339 -0.465327 -0.000136418)
(0.0214081 -0.566644 -0.000186808)
(0.026192 -0.660885 -0.000228563)
(0.0283841 -0.72981 -0.000247686)
(0.0247597 -0.762368 -0.00021675)
(0.0286876 -0.754068 -0.000261363)
(-0.0106274 -1.45925 0.000147644)
(2.00051 -11.0391 -0.017461)
(4.49323 -21.4125 -0.039215)
(5.16942 -23.5191 -0.0451148)
(3.89814 -17.9146 -0.0339017)
(3.03063 -13.3245 -0.0263057)
(2.84539 -12.088 -0.0247753)
(2.76603 -11.7223 -0.0241135)
(2.69768 -11.4731 -0.0235348)
(2.63328 -11.2312 -0.0229819)
(2.56721 -10.978 -0.0224074)
(2.49658 -10.7093 -0.0217931)
(2.42011 -10.4178 -0.0211337)
(2.33243 -10.0715 -0.020389)
(2.21985 -9.52051 -0.0194703)
(1.88233 -7.91951 -0.0165487)
(0.797922 -4.94973 -0.00694241)
(-0.0305413 -2.3941 0.000340505)
(-0.547157 -0.47047 0.00495939)
(-0.687002 0.599081 0.00608344)
(-0.523504 0.765579 0.00459331)
(-0.409216 0.706884 0.00357259)
(-0.349383 0.672221 0.00304933)
(-0.313658 0.665919 0.00273887)
(-0.286491 0.674817 0.00250218)
(-0.26299 0.690293 0.00229664)
(-0.241713 0.70791 0.00211036)
(8.23391e-06 -0.0137689 -7.17745e-08)
(0.000248115 -0.0563975 -2.16445e-06)
(0.00131391 -0.118716 -1.14635e-05)
(0.0031999 -0.1945 -2.79192e-05)
(0.0063797 -0.281059 -5.56652e-05)
(0.0103679 -0.375942 -9.04654e-05)
(0.0155358 -0.477036 -0.000135562)
(0.0204398 -0.578082 -0.000178358)
(0.024484 -0.669321 -0.00021366)
(0.0239207 -0.732228 -0.000208677)
(0.0203663 -0.763825 -0.000178326)
(0.00978762 -0.799538 -9.58017e-05)
(0.111635 -2.92026 -0.000973595)
(2.74331 -14.1707 -0.0239413)
(4.85228 -23.4675 -0.0423478)
(4.96087 -23.446 -0.0432927)
(3.52036 -16.9725 -0.030576)
(2.83935 -13.1077 -0.0246663)
(2.69778 -12.1677 -0.0234993)
(2.61906 -11.8348 -0.0228374)
(2.55107 -11.5793 -0.0222589)
(2.4858 -11.325 -0.0216958)
(2.41786 -11.0572 -0.0211041)
(2.3449 -10.7733 -0.0204698)
(2.26576 -10.4646 -0.0197881)
(2.17487 -10.0891 -0.0190176)
(2.05002 -9.4464 -0.0180174)
(1.62058 -7.3833 -0.0142128)
(0.498354 -4.29873 -0.00432512)
(-0.185941 -1.94622 0.0017044)
(-0.612252 -0.266936 0.00550125)
(-0.63881 0.58966 0.00567331)
(-0.483979 0.698158 0.00424547)
(-0.396319 0.671856 0.00346283)
(-0.347501 0.656635 0.00303413)
(-0.316426 0.657685 0.0027628)
(-0.291851 0.668902 0.00254834)
(-0.269795 0.685114 0.0023556)
(-0.248998 0.703047 0.00217378)
(1.49554e-05 -0.0142465 -1.30438e-07)
(0.000274924 -0.0583727 -2.39823e-06)
(0.00148083 -0.122779 -1.292e-05)
(0.00346788 -0.200982 -3.02574e-05)
(0.00690265 -0.289866 -6.02284e-05)
(0.0109009 -0.38675 -9.5116e-05)
(0.0163322 -0.488775 -0.000142512)
(0.0206965 -0.588739 -0.000180598)
(0.0250506 -0.675313 -0.000218607)
(0.0222429 -0.731109 -0.000194033)
(0.0222234 -0.756584 -0.000195039)
(-0.021694 -0.843779 0.000183189)
(0.328285 -5.0206 -0.00286563)
(3.35723 -17.2977 -0.029298)
(5.09068 -25.0763 -0.0444269)
(4.63812 -22.9378 -0.04047)
(3.18041 -16.0796 -0.0275937)
(2.67 -12.9828 -0.0232154)
(2.55108 -12.251 -0.0222289)
(2.4716 -11.9376 -0.021556)
(2.40267 -11.675 -0.0209665)
(2.33514 -11.408 -0.0203814)
(2.26411 -11.1254 -0.0197623)
(2.188 -10.8265 -0.0191008)
(2.10573 -10.5002 -0.0183925)
(2.01121 -10.0903 -0.0175924)
(1.86863 -9.3263 -0.0164633)
(1.32333 -6.78417 -0.0115848)
(0.253468 -3.70166 -0.00218582)
(-0.301365 -1.56996 0.00271957)
(-0.641241 -0.126025 0.00571938)
(-0.585668 0.549615 0.00520094)
(-0.460819 0.646254 0.00404043)
(-0.391655 0.646069 0.00342276)
(-0.34951 0.644529 0.00305193)
(-0.320878 0.651028 0.00280135)
(-0.297557 0.663953 0.00259765)
(-0.276243 0.680517 0.00241151)
(-0.255728 0.698449 0.00223237)
(1.40381e-05 -0.0145897 -1.22415e-07)
(0.000279956 -0.0600516 -2.44212e-06)
(0.00155133 -0.126571 -1.35351e-05)
(0.00366501 -0.207332 -3.19774e-05)
(0.0073544 -0.298616 -6.41701e-05)
(0.0116188 -0.397665 -0.00010138)
(0.0177263 -0.500562 -0.000154675)
(0.0227446 -0.599855 -0.000198466)
(0.0295499 -0.68164 -0.000257903)
(0.029092 -0.732604 -0.000254181)
(0.0425233 -0.755951 -0.000374695)
(-0.0173998 -0.995064 0.00017389)
(0.791454 -7.72803 -0.00691225)
(3.86251 -20.2669 -0.0337082)
(5.20774 -26.1906 -0.0454471)
(4.24779 -22.0829 -0.0370509)
(2.88965 -15.3122 -0.0250584)
(2.51469 -12.9196 -0.0218818)
(2.40541 -12.3314 -0.0209658)
(2.32423 -12.0294 -0.0202744)
(2.25297 -11.7589 -0.019662)
(2.18181 -11.4786 -0.0190435)
(2.10657 -11.1816 -0.0183874)
(2.02644 -10.8683 -0.0176912)
(1.94064 -10.5242 -0.0169526)
(1.8424 -10.0741 -0.0161216)
(1.67727 -9.14363 -0.0148087)
(1.00875 -6.15789 -0.00882751)
(0.0609831 -3.17423 -0.000502951)
(-0.385059 -1.26702 0.00345376)
(-0.632212 -0.0330654 0.00562713)
(-0.548521 0.503156 0.00485287)
(-0.451341 0.607382 0.00395437)
(-0.392938 0.626099 0.00343365)
(-0.354466 0.634426 0.00309506)
(-0.326761 0.645155 0.00285247)
(-0.303708 0.659461 0.00265108)
(-0.282527 0.676228 0.00246618)
(-0.262043 0.694031 0.00228741)
(3.90652e-06 -0.0150764 -3.39661e-08)
(0.000331264 -0.0621866 -2.88973e-06)
(0.00167819 -0.13108 -1.46418e-05)
(0.00402859 -0.214659 -3.51498e-05)
(0.00790518 -0.308618 -6.89758e-05)
(0.0126215 -0.410397 -0.000110128)
(0.0192608 -0.515091 -0.000168062)
(0.0258247 -0.615909 -0.000225337)
(0.0351721 -0.696533 -0.00030704)
(0.0410957 -0.753445 -0.000359642)
(0.0704719 -0.810737 -0.000622055)
(0.0361201 -1.40474 -0.000231946)
(1.59108 -10.8816 -0.0138758)
(4.27593 -22.9264 -0.0373169)
(5.20079 -26.7847 -0.0453856)
(3.8346 -20.9802 -0.0334238)
(2.64736 -14.7012 -0.0229618)
(2.36796 -12.893 -0.0206179)
(2.26112 -12.404 -0.0197133)
(2.17739 -12.1086 -0.0189966)
(2.10236 -11.8295 -0.0183487)
(2.02623 -11.5357 -0.0176857)
(1.94557 -11.2245 -0.0169823)
(1.86037 -10.8975 -0.0162421)
(1.7702 -10.5361 -0.0154656)
(1.66748 -10.0406 -0.0145974)
(1.47448 -8.88799 -0.0130286)
(0.702155 -5.53816 -0.00615194)
(-0.0884589 -2.72675 0.000798548)
(-0.449242 -1.02977 0.004003)
(-0.605542 0.0235894 0.00538615)
(-0.529106 0.464673 0.00466243)
(-0.450051 0.577466 0.00394)
(-0.397901 0.609566 0.00347645)
(-0.361282 0.625366 0.0031544)
(-0.333615 0.639548 0.0029122)
(-0.310227 0.655083 0.0027079)
(-0.28876 0.672047 0.00252055)
(-0.268076 0.689704 0.00234006)
(-1.87088e-05 -0.0155126 1.63545e-07)
(0.000378338 -0.0642467 -3.30054e-06)
(0.0016423 -0.135628 -1.43285e-05)
(0.00412147 -0.222095 -3.59603e-05)
(0.00766154 -0.318845 -6.68494e-05)
(0.0123535 -0.42353 -0.000107789)
(0.018164 -0.530822 -0.000158488)
(0.025036 -0.634546 -0.000218453)
(0.0329529 -0.717545 -0.000287674)
(0.0413944 -0.790353 -0.000362278)
(0.0673926 -0.927794 -0.000595637)
(0.114027 -2.40699 -0.000916274)
(2.43062 -14.1055 -0.0211822)
(4.61087 -25.1905 -0.0402366)
(5.05528 -26.8695 -0.0441163)
(3.42265 -19.7393 -0.0297993)
(2.44274 -14.2442 -0.021203)
(2.22566 -12.8863 -0.0193883)
(2.11818 -12.4662 -0.0184714)
(2.03123 -12.174 -0.0177238)
(1.9511 -11.8854 -0.0170293)
(1.8688 -11.5779 -0.0163118)
(1.78155 -11.2529 -0.0155509)
(1.69006 -10.913 -0.0147556)
(1.59416 -10.5344 -0.0139293)
(1.48523 -9.98978 -0.0130093)
(1.2588 -8.562 -0.011108)
(0.429706 -4.95329 -0.00377836)
(-0.204445 -2.35378 0.00180364)
(-0.497612 -0.84774 0.00440646)
(-0.586999 0.0548124 0.00520154)
(-0.521519 0.43502 0.0045825)
(-0.453392 0.553223 0.00396679)
(-0.404969 0.595069 0.0035377)
(-0.369147 0.616794 0.00322296)
(-0.341047 0.63391 0.00297705)
(-0.316996 0.650605 0.00276699)
(-0.294976 0.667821 0.0025748)
(-0.273902 0.685379 0.00239091)
(-4.53159e-05 -0.0160153 3.95769e-07)
(0.000437125 -0.0664302 -3.81329e-06)
(0.00158633 -0.140205 -1.38397e-05)
(0.00411721 -0.229123 -3.59231e-05)
(0.00706308 -0.328075 -6.16263e-05)
(0.0113893 -0.434785 -9.93739e-05)
(0.0154866 -0.543928 -0.00013512)
(0.0213716 -0.648905 -0.000186473)
(0.024118 -0.732631 -0.000210416)
(0.030029 -0.814195 -0.000262017)
(0.020735 -1.01153 -0.000179074)
(0.195217 -4.26192 -0.00169008)
(3.02874 -17.2994 -0.0264238)
(4.8433 -27.051 -0.0422595)
(4.7712 -26.4947 -0.0416388)
(3.03007 -18.4824 -0.0263408)
(2.26383 -13.9206 -0.0196699)
(2.08537 -12.8899 -0.018173)
(1.9764 -12.5165 -0.0172385)
(1.88573 -12.2247 -0.0164561)
(1.79945 -11.9255 -0.0157062)
(1.71007 -11.6041 -0.0149265)
(1.61519 -11.2656 -0.0140989)
(1.51629 -10.9131 -0.0132387)
(1.4131 -10.5173 -0.0123481)
(1.29589 -9.92041 -0.0113577)
(1.02963 -8.18422 -0.00906131)
(0.211533 -4.42159 -0.0018535)
(-0.292493 -2.04467 0.00256473)
(-0.528789 -0.706588 0.00466309)
(-0.579312 0.0727837 0.00510894)
(-0.520483 0.411055 0.00456473)
(-0.459328 0.532508 0.00401677)
(-0.413122 0.581808 0.00360847)
(-0.377508 0.608404 0.00329587)
(-0.348743 0.628087 0.00304425)
(-0.323869 0.645905 0.002827)
(-0.301136 0.663446 0.00262858)
(-0.27953 0.680975 0.00244004)
(-7.12217e-05 -0.0164903 6.21902e-07)
(0.000495135 -0.0685092 -4.31957e-06)
(0.00155418 -0.144587 -1.35588e-05)
(0.0042294 -0.235569 -3.69019e-05)
(0.006762 -0.336239 -5.89981e-05)
(0.0111203 -0.444027 -9.70248e-05)
(0.0140114 -0.553944 -0.000122243)
(0.0197261 -0.657125 -0.00017211)
(0.0178457 -0.737662 -0.000155579)
(0.0247735 -0.810889 -0.00021609)
(-0.0344134 -1.03259 0.000317947)
(0.407568 -6.72867 -0.00354337)
(3.45039 -20.3922 -0.0301134)
(4.96651 -28.4888 -0.0433333)
(4.38273 -25.73 -0.0382499)
(2.67913 -17.3235 -0.0232529)
(2.103 -13.6991 -0.0182909)
(1.94664 -12.8972 -0.0169692)
(1.83586 -12.5542 -0.0160155)
(1.74096 -12.26 -0.0151941)
(1.64774 -11.949 -0.0143823)
(1.55064 -11.6135 -0.013535)
(1.44733 -11.2616 -0.0126338)
(1.34015 -10.8967 -0.0117008)
(1.22821 -10.4828 -0.0107322)
(1.10025 -9.82887 -0.00964622)
(0.791711 -7.77423 -0.00694942)
(0.0362795 -3.96115 -0.000311252)
(-0.357822 -1.79023 0.0031325)
(-0.548063 -0.595435 0.00482005)
(-0.57591 0.0842247 0.0050615)
(-0.522471 0.390907 0.00457616)
(-0.466392 0.514227 0.0040769)
(-0.421649 0.569352 0.00368251)
(-0.385958 0.60004 0.00336955)
(-0.356442 0.622013 0.00311145)
(-0.330681 0.640923 0.00288649)
(-0.307154 0.658854 0.00268113)
(-0.284924 0.676432 0.00248714)
(-8.16874e-05 -0.017028 7.13182e-07)
(0.0005463 -0.0707731 -4.76571e-06)
(0.00168824 -0.149259 -1.47282e-05)
(0.00465484 -0.242202 -4.06141e-05)
(0.0074679 -0.344627 -6.51567e-05)
(0.012723 -0.453284 -0.000111009)
(0.0165223 -0.564052 -0.000144152)