/*--------------------------------*- C++ -*----------------------------------*\
| =========                 |                                                 |
| \\      /  F ield         | OpenFOAM: The Open Source CFD Toolbox           |
|  \\    /   O peration     | Version:  v2012                                 |
|   \\  /    A nd           | Website:  www.openfoam.com                      |
|    \\/     M anipulation  |                                                 |
\*---------------------------------------------------------------------------*/
FoamFile
{
    version     2.0;
    format      ascii;
    class       surfaceScalarField;
    location    "0.15";
    object      alphaPhi0.water;
}
// * * * * * * * * * * * * * * * * * * * * * * * * * * * * * * * * * * * * * //

dimensions      [0 3 -1 0 0 0 0];
oriented        oriented;


internalField   nonuniform List<scalar> 
8134
(
-3.85698e-08
-7.33115e-09
1.99327e-15
-3.23573e-08
-6.21247e-09
-1.18029e-15
-2.70602e-08
-5.2971e-09
1.45577e-16
-2.25348e-08
-4.52542e-09
3.55302e-17
-1.86706e-08
-3.86421e-09
-4.34263e-16
-1.53803e-08
-3.2903e-09
-7.6922e-16
-1.25901e-08
-2.79013e-09
-2.51608e-15
-1.02364e-08
-2.35372e-09
-4.62652e-15
-8.26216e-09
-1.97424e-09
-4.13195e-15
-6.61615e-09
-1.64598e-09
-1.90349e-15
-5.2524e-09
-1.36376e-09
-2.28834e-15
-4.12934e-09
-1.12306e-09
-1.94211e-15
-3.21031e-09
-9.19033e-10
-1.57021e-15
-2.46295e-09
-7.47343e-10
-7.44635e-16
-1.85922e-09
-6.03725e-10
-5.44631e-16
-1.37496e-09
-4.84254e-10
-6.38414e-17
-9.89562e-10
-3.854e-10
2.09988e-16
-6.85532e-10
-3.04033e-10
4.67351e-16
-4.4811e-10
-2.37423e-10
7.81941e-16
-2.64926e-10
-1.83184e-10
8.15593e-16
-1.25682e-10
-1.39246e-10
8.04315e-16
-2.17033e-11
-1.03979e-10
5.36701e-16
5.42499e-11
-7.5954e-11
7.01676e-16
1.07804e-10
-5.35554e-11
4.77965e-16
1.43782e-10
-3.59772e-11
4.23485e-16
1.66136e-10
-2.23553e-11
4.42171e-16
1.7801e-10
-1.18744e-11
2.83249e-16
1.81936e-10
-3.92419e-12
1.0556e-16
1.79912e-10
2.02336e-12
1.60815e-16
1.73539e-10
6.37331e-12
1.48409e-16
1.64045e-10
9.4939e-12
1.43405e-16
1.52375e-10
1.16699e-11
-3.43116e-17
1.39229e-10
1.31472e-11
-1.20224e-16
1.25104e-10
1.41244e-11
7.5536e-17
1.10347e-10
1.4757e-11
1.43212e-16
9.51641e-11
1.51823e-11
1.07891e-16
7.967e-11
1.54934e-11
-4.84482e-18
6.39306e-11
1.57389e-11
-5.72961e-17
4.80777e-11
1.58524e-11
-7.64145e-17
3.23891e-11
1.56879e-11
-7.35509e-17
1.77538e-11
1.46346e-11
-6.51188e-17
5.9392e-12
1.18136e-11
-6.64909e-17
5.93826e-12
-5.42586e-17
-5.02296e-08
-1.37714e-08
-1.63406e-15
-4.43894e-08
-1.20526e-08
-3.60848e-15
-3.9078e-08
-1.06085e-08
-2.75858e-15
-3.42394e-08
-9.36408e-09
-2.05371e-15
-2.98302e-08
-8.27335e-09
-1.99492e-15
-2.58196e-08
-7.30091e-09
-1.65106e-15
-2.21838e-08
-6.42589e-09
-1.72289e-15
-1.89048e-08
-5.63271e-09
-2.01978e-15
-1.59666e-08
-4.9124e-09
-2.21772e-15
-1.33538e-08
-4.25871e-09
-1.23139e-15
-1.10504e-08
-3.6672e-09
-1.01615e-15
-9.03807e-09
-3.13543e-09
-1.87558e-15
-7.29716e-09
-2.65996e-09
-1.59801e-15
-5.80611e-09
-2.23836e-09
-9.82537e-16
-4.54231e-09
-1.86751e-09
-1.00371e-15
-3.48259e-09
-1.54397e-09
-5.44604e-16
-2.60387e-09
-1.26412e-09
-5.51161e-16
-1.88376e-09
-1.02415e-09
-3.10521e-17
-1.301e-09
-8.20184e-10
4.11627e-16
-8.35855e-10
-6.48326e-10
5.1536e-16
-4.703e-10
-5.04803e-10
6.49294e-16
-1.88127e-10
-3.86153e-10
5.85212e-16
2.48137e-11
-2.88896e-10
5.3806e-16
1.81281e-10
-2.10024e-10
1.29943e-16
2.9181e-10
-1.46504e-10
-3.78058e-16
3.65645e-10
-9.61901e-11
-6.06725e-16
4.10445e-10
-5.66727e-11
-6.2413e-16
4.32594e-10
-2.60696e-11
-4.88362e-16
4.37315e-10
-2.69892e-12
-3.68943e-16
4.28901e-10
1.47902e-11
-4.13925e-16
4.10723e-10
2.76724e-11
-3.38208e-16
3.85453e-10
3.694e-11
-3.88571e-16
3.55132e-10
4.3471e-11
-4.0621e-16
3.21254e-10
4.80014e-11
-1.93805e-16
2.84896e-10
5.11153e-11
3.89332e-17
2.46761e-10
5.33178e-11
4.34175e-17
2.07292e-10
5.49609e-11
-3.25299e-17
1.6683e-10
5.62001e-11
-2.06835e-17
1.25852e-10
5.68305e-11
-5.86214e-17
8.53372e-11
5.62016e-11
-4.26944e-17
4.75594e-11
5.24116e-11
-3.00457e-17
1.68851e-11
4.24868e-11
-4.70482e-17
2.28224e-11
-4.37493e-17
-4.89403e-08
-1.87312e-08
-2.96104e-15
-4.42676e-08
-1.67252e-08
-2.37893e-15
-3.98816e-08
-1.49945e-08
-2.23096e-15
-3.57699e-08
-1.34759e-08
-1.98094e-15
-3.19179e-08
-1.21253e-08
-1.75533e-15
-2.8314e-08
-1.09048e-08
-1.47312e-15
-2.49491e-08
-9.79076e-09
-9.42862e-16
-2.18183e-08
-8.76351e-09
-2.25846e-16
-1.89193e-08
-7.81144e-09
-5.19648e-16
-1.62514e-08
-6.92652e-09
-6.55095e-16
-1.3815e-08
-6.1036e-09
-2.98968e-16
-1.16091e-08
-5.34142e-09
-3.56255e-16
-9.63118e-09
-4.63785e-09
-5.11014e-16
-7.87638e-09
-3.99313e-09
-4.9376e-16
-6.337e-09
-3.40688e-09
8.59977e-18
-5.00259e-09
-2.87839e-09
1.80842e-16
-3.86015e-09
-2.40656e-09
-7.44648e-17
-2.89479e-09
-1.98951e-09
-6.39964e-17
-2.0902e-09
-1.62477e-09
1.03353e-16
-1.42944e-09
-1.30908e-09
8.43621e-17
-8.95429e-10
-1.03881e-09
2.34067e-16
-4.71542e-10
-8.10039e-10
1.77236e-16
-1.42086e-10
-6.18355e-10
1.27435e-16
1.07829e-10
-4.5994e-10
8.64588e-17
2.91261e-10
-3.29936e-10
3.37549e-18
4.20209e-10
-2.25139e-10
-2.74764e-16
5.04945e-10
-1.41408e-10
-5.4748e-16
5.54356e-10
-7.54769e-11
-6.52952e-16
5.76001e-10
-2.43453e-11
-7.31959e-16
5.76124e-10
1.46719e-11
-7.13925e-16
5.59868e-10
4.39283e-11
-5.92846e-16
5.3136e-10
6.54482e-11
-5.36194e-16
4.93832e-10
8.10023e-11
-4.69512e-16
4.49715e-10
9.21173e-11
-2.87322e-16
4.00809e-10
1.00023e-10
-1.46026e-16
3.48352e-10
1.05774e-10
-5.44125e-17
2.93198e-10
1.10114e-10
-5.07549e-17
2.36048e-10
1.13349e-10
-3.12448e-17
1.7781e-10
1.15068e-10
-5.84638e-17
1.20183e-10
1.13828e-10
-5.55683e-17
6.66245e-11
1.05969e-10
-3.03701e-17
2.34892e-11
8.56208e-11
-1.93256e-17
4.63106e-11
-3.9164e-17
-4.49624e-08
-2.24567e-08
-1.15993e-15
-4.12868e-08
-2.04007e-08
-1.17945e-15
-3.77201e-08
-1.85612e-08
-1.29824e-15
-3.42926e-08
-1.69034e-08
-1.28053e-15
-3.1019e-08
-1.53988e-08
-1.2409e-15
-2.79056e-08
-1.40182e-08
-1.2153e-15
-2.49542e-08
-1.27422e-08
-1.4344e-15
-2.21654e-08
-1.15523e-08
-1.64122e-15
-1.95401e-08
-1.04367e-08
-2.07856e-15
-1.708e-08
-9.38655e-09
-1.71185e-15
-1.47882e-08
-8.39547e-09
-1.55818e-15
-1.26675e-08
-7.46212e-09
-9.24774e-16
-1.07213e-08
-6.58407e-09
-7.9458e-16
-8.95172e-09
-5.76268e-09
-5.52143e-16
-7.35948e-09
-4.99911e-09
1.54757e-16
-5.94318e-09
-4.29469e-09
3.85184e-16
-4.69888e-09
-3.65086e-09
5.24239e-16
-3.62011e-09
-3.0683e-09
-7.07759e-17
-2.69791e-09
-2.54697e-09
-8.74299e-17
-1.92141e-09
-2.08557e-09
-2.76436e-16
-1.27819e-09
-1.68204e-09
-1.64806e-16
-7.54874e-10
-1.33335e-09
-1.64869e-16
-3.37761e-10
-1.03547e-09
-1.48194e-16
-1.30885e-11
-7.84612e-10
-1.11454e-16
2.32784e-10
-5.75809e-10
-1.56874e-16
4.11808e-10
-4.04164e-10
-2.50294e-16
5.3541e-10
-2.65009e-10
-3.48059e-16
6.13714e-10
-1.53777e-10
-4.08535e-16
6.55602e-10
-6.62366e-11
-4.85325e-16
6.68653e-10
1.62471e-12
-5.20708e-16
6.59249e-10
5.33317e-11
-4.49024e-16
6.32644e-10
9.20533e-11
-4.30886e-16
5.93048e-10
1.20601e-10
-3.9808e-16
5.43708e-10
1.41456e-10
-2.80881e-16
4.87087e-10
1.56645e-10
-1.95752e-16
4.24952e-10
1.6791e-10
-9.94735e-17
3.58581e-10
1.76483e-10
-6.33529e-17
2.89074e-10
1.82856e-10
-7.78772e-17
2.17785e-10
1.86357e-10
-7.34202e-17
1.47071e-10
1.84542e-10
-7.21276e-17
8.13746e-11
1.71665e-10
-5.48062e-17
2.85436e-11
1.38451e-10
-5.40643e-17
7.48532e-11
-4.9528e-17
-4.04537e-08
-2.5174e-08
-1.21349e-15
-3.76201e-08
-2.32342e-08
-1.36326e-15
-3.47559e-08
-2.14254e-08
-1.52266e-15
-3.19189e-08
-1.97405e-08
-1.44546e-15
-2.91475e-08
-1.81701e-08
-1.30616e-15
-2.64669e-08
-1.66988e-08
-1.24041e-15
-2.38922e-08
-1.53169e-08
-1.40206e-15
-2.1433e-08
-1.40115e-08
-1.24168e-15
-1.9095e-08
-1.27747e-08
-1.31246e-15
-1.68822e-08
-1.15993e-08
-1.30066e-15
-1.47983e-08
-1.04794e-08
-1.3181e-15
-1.28462e-08
-9.41427e-09
-1.37351e-15
-1.10294e-08
-8.40085e-09
-1.99345e-15
-9.35126e-09
-7.44079e-09
-1.30049e-15
-7.81476e-09
-6.53559e-09
-3.67583e-16
-6.42204e-09
-5.68741e-09
2.33423e-17
-5.17382e-09
-4.89908e-09
6.51832e-16
-4.06906e-09
-4.17308e-09
1.22631e-16
-3.10451e-09
-3.51151e-09
2.74901e-17
-2.27482e-09
-2.91525e-09
-3.75617e-16
-1.57258e-09
-2.38428e-09
-5.7787e-16
-9.88714e-10
-1.91722e-09
-4.72732e-16
-5.12932e-10
-1.51126e-09
-4.45203e-16
-1.33801e-10
-1.16374e-09
-3.25417e-16
1.60008e-10
-8.69619e-10
-3.19375e-16
3.80186e-10
-6.24343e-10
-3.53244e-16
5.37673e-10
-4.22496e-10
-3.79203e-16
6.42732e-10
-2.58833e-10
-4.14567e-16
7.04723e-10
-1.28232e-10
-4.73852e-16
7.31884e-10
-2.55326e-11
-5.1485e-16
7.31355e-10
5.38599e-11
-4.44614e-16
7.09159e-10
1.14249e-10
-4.13041e-16
6.70241e-10
1.59523e-10
-3.84908e-16
6.18504e-10
1.93192e-10
-2.98614e-16
5.56981e-10
2.18169e-10
-2.30362e-16
4.87922e-10
2.3697e-10
-1.21546e-16
4.13015e-10
2.51388e-10
-8.75297e-17
3.33752e-10
2.62119e-10
-1.07662e-16
2.51919e-10
2.68189e-10
-9.45457e-17
1.70441e-10
2.66019e-10
-9.64035e-17
9.45563e-11
2.47549e-10
-7.3586e-17
3.32354e-11
1.9977e-10
-7.00396e-17
1.08088e-10
-5.54369e-17
-3.58865e-08
-2.70532e-08
-6.06689e-16
-3.37803e-08
-2.53404e-08
-7.99158e-16
-3.15396e-08
-2.36661e-08
-1.00294e-15
-2.92351e-08
-2.2045e-08
-1.04427e-15
-2.69193e-08
-2.04858e-08
-1.008e-15
-2.46313e-08
-1.89869e-08
-1.03105e-15
-2.23981e-08
-1.75501e-08
-1.23774e-15
-2.02388e-08
-1.61707e-08
-1.10766e-15
-1.81664e-08
-1.48471e-08
-1.14491e-15
-1.61892e-08
-1.35764e-08
-1.20241e-15
-1.43134e-08
-1.23553e-08
-1.26841e-15
-1.25428e-08
-1.11849e-08
-1.22019e-15
-1.08809e-08
-1.00628e-08
-1.39829e-15
-9.33061e-09
-8.99102e-09
-1.14314e-15
-7.89487e-09
-7.97131e-09
-1.27733e-15
-6.57633e-09
-7.00595e-09
-9.33751e-16
-5.37712e-09
-6.0983e-09
-3.80452e-16
-4.29855e-09
-5.25166e-09
7.78294e-17
-3.34061e-09
-4.46945e-09
1.66282e-16
-2.50172e-09
-3.75413e-09
-1.91813e-16
-1.77843e-09
-3.10756e-09
-4.35403e-16
-1.16549e-09
-2.53015e-09
-7.51111e-16
-6.56128e-10
-2.02063e-09
-6.13401e-16
-2.41934e-10
-1.57793e-09
-6.9511e-16
8.60652e-11
-1.19762e-09
-4.95852e-16
3.37749e-10
-8.76028e-10
-4.88057e-16
5.22934e-10
-6.0768e-10
-4.74001e-16
6.51247e-10
-3.87143e-10
-4.72499e-16
7.31841e-10
-2.0883e-10
-4.83556e-16
7.73039e-10
-6.6727e-11
-5.14546e-16
7.82285e-10
4.46124e-11
-4.4435e-16
7.66028e-10
1.30505e-10
-4.05456e-16
7.29692e-10
1.95863e-10
-3.84092e-16
6.77664e-10
2.45218e-10
-3.17424e-16
6.13433e-10
2.82401e-10
-2.58556e-16
5.3966e-10
3.10743e-10
-1.42433e-16
4.58412e-10
3.32634e-10
-1.11965e-16
3.71543e-10
3.48987e-10
-1.10877e-16
2.81239e-10
3.58494e-10
-8.43814e-17
1.90905e-10
3.56353e-10
-9.35179e-17
1.06409e-10
3.32044e-10
-6.4951e-17
3.75991e-11
2.68579e-10
-6.17909e-17
1.45686e-10
-5.31506e-17
-3.15304e-08
-2.82834e-08
-9.56203e-16
-3.00202e-08
-2.68506e-08
-1.0486e-15
-2.83135e-08
-2.53729e-08
-1.15989e-15
-2.64799e-08
-2.38786e-08
-1.10867e-15
-2.45762e-08
-2.23895e-08
-9.83889e-16
-2.26477e-08
-2.09154e-08
-9.63639e-16
-2.0729e-08
-1.94688e-08
-1.13105e-15
-1.88463e-08
-1.80534e-08
-1.01764e-15
-1.70187e-08
-1.66747e-08
-1.0491e-15
-1.52599e-08
-1.53352e-08
-1.12725e-15
-1.35794e-08
-1.40358e-08
-1.21121e-15
-1.19832e-08
-1.2781e-08
-1.16054e-15
-1.0476e-08
-1.157e-08
-1.32753e-15
-9.06071e-09
-1.04063e-08
-1.09259e-15
-7.73998e-09
-9.29202e-09
-8.43978e-16
-6.51613e-09
-8.22981e-09
-8.14014e-16
-5.39127e-09
-7.22315e-09
-1.33452e-15
-4.36727e-09
-6.27568e-09
-6.13409e-16
-3.44538e-09
-5.39134e-09
-3.44243e-17
-2.62604e-09
-4.57346e-09
-1.08325e-16
-1.90841e-09
-3.8252e-09
-2.01561e-16
-1.29008e-09
-3.14847e-09
-6.07704e-16
-7.67235e-10
-2.54348e-09
-8.42753e-16
-3.34261e-10
-2.0109e-09
-8.2202e-16
1.53165e-11
-1.5472e-09
-7.61173e-16
2.89266e-10
-1.14998e-09
-6.32307e-16
4.95777e-10
-8.1419e-10
-5.9302e-16
6.43339e-10
-5.34701e-10
-5.52887e-16
7.40396e-10
-3.0589e-10
-5.27893e-16
7.94901e-10
-1.21229e-10
-5.31831e-16
8.14216e-10
2.52961e-11
-4.57587e-16
8.04896e-10
1.39823e-10
-4.08972e-16
7.72606e-10
2.28157e-10
-3.88168e-16
7.22035e-10
2.95787e-10
-3.30213e-16
6.57003e-10
3.47435e-10
-2.78358e-16
5.80502e-10
3.87244e-10
-1.64952e-16
4.94924e-10
4.18211e-10
-1.33714e-16
4.02449e-10
4.41461e-10
-1.17295e-16
3.05614e-10
4.55329e-10
-8.89105e-17
2.08226e-10
4.5374e-10
-1.00473e-16
1.1665e-10
4.23618e-10
-6.98398e-17
4.14467e-11
3.43782e-10
-6.32887e-17
1.87132e-10
-5.35822e-17
-2.74932e-08
-2.90208e-08
-5.82884e-16
-2.64588e-08
-2.78849e-08
-7.39148e-16
-2.51969e-08
-2.66348e-08
-8.94681e-16
-2.377e-08
-2.53056e-08
-9.21988e-16
-2.22323e-08
-2.39271e-08
-8.47062e-16
-2.06301e-08
-2.25176e-08
-8.50851e-16
-1.9001e-08
-2.10979e-08
-1.01312e-15
-1.73751e-08
-1.96793e-08
-9.25445e-16
-1.57757e-08
-1.8274e-08
-9.47682e-16
-1.42205e-08
-1.68903e-08
-1.03162e-15
-1.27225e-08
-1.55339e-08
-1.13456e-15
-1.12905e-08
-1.42131e-08
-1.12053e-15
-9.93065e-09
-1.29299e-08
-1.27333e-15
-8.64697e-09
-1.16899e-08
-1.05494e-15
-7.44231e-09
-1.04967e-08
-7.76476e-16
-6.31883e-09
-9.35329e-09
-6.44512e-16
-5.27832e-09
-8.26366e-09
-8.45764e-16
-4.32253e-09
-7.23149e-09
-9.19026e-16
-3.45292e-09
-6.26095e-09
-6.80065e-16
-2.67071e-09
-5.35566e-09
-2.58622e-16
-1.97644e-09
-4.51948e-09
-1.28239e-16
-1.36961e-09
-3.75529e-09
-3.91869e-16
-8.48572e-10
-3.06453e-09
-7.63771e-16
-4.09982e-10
-2.44949e-09
-8.34177e-16
-4.96069e-11
-1.90757e-09
-8.07643e-16
2.38225e-10
-1.43781e-09
-7.80137e-16
4.59923e-10
-1.03589e-09
-7.11097e-16
6.22564e-10
-6.97339e-10
-6.47449e-16
7.3356e-10
-4.1689e-10
-5.88589e-16
8.00168e-10
-1.87833e-10
-5.65909e-16
8.29354e-10
-3.89207e-12
-4.83477e-16
8.27515e-10
1.41661e-10
-4.26347e-16
8.00329e-10
2.55346e-10
-4.04347e-16
7.5262e-10
3.43494e-10
-3.48463e-16
6.8841e-10
4.11646e-10
-2.97379e-16
6.10933e-10
4.64721e-10
-1.84998e-16
5.22843e-10
5.06299e-10
-1.51551e-16
4.26598e-10
5.37706e-10
-1.25679e-16
3.25033e-10
5.56893e-10
-9.96938e-17
2.22285e-10
5.56488e-10
-1.07521e-16
1.2511e-10
5.20792e-10
-7.47446e-17
4.46641e-11
4.24227e-10
-6.49877e-17
2.31795e-10
-5.38919e-17
-2.38423e-08
-2.94023e-08
-7.37912e-16
-2.31726e-08
-2.85546e-08
-7.82083e-16
-2.22682e-08
-2.75392e-08
-9.09968e-16
-2.11812e-08
-2.63926e-08
-9.19136e-16
-1.99598e-08
-2.51485e-08
-8.26956e-16
-1.86471e-08
-2.38303e-08
-8.13337e-16
-1.72803e-08
-2.24648e-08
-9.39232e-16
-1.58904e-08
-2.10691e-08
-8.55494e-16
-1.4503e-08
-1.96614e-08
-8.51464e-16
-1.3138e-08
-1.82553e-08
-9.32522e-16
-1.1811e-08
-1.68609e-08
-1.04519e-15
-1.05329e-08
-1.54911e-08
-1.06154e-15
-9.31197e-09
-1.41508e-08
-1.22009e-15
-8.15341e-09
-1.28484e-08
-1.03697e-15
-7.06084e-09
-1.15892e-08
-7.48805e-16
-6.03666e-09
-1.03775e-08
-6.51581e-16
-5.08256e-09
-9.21775e-09
-6.11362e-16
-4.20007e-09
-8.11399e-09
-6.90529e-16
-3.39054e-09
-7.07048e-09
-9e-16
-2.65529e-09
-6.09089e-09
-7.77787e-16
-1.99543e-09
-5.17934e-09
-2.90174e-16
-1.4115e-09
-4.33922e-09
-3.02146e-16
-9.03336e-10
-3.5727e-09
-5.56989e-16
-4.69305e-10
-2.88351e-09
-7.12303e-16
-1.0698e-10
-2.2699e-09
-1.04827e-15
1.87457e-10
-1.73225e-09
-7.0314e-16
4.18698e-10
-1.26713e-09
-8.00351e-16
5.92322e-10
-8.7096e-10
-7.34477e-16
7.14543e-10
-5.39114e-10
-6.63714e-16
7.91709e-10
-2.64997e-10
-6.10435e-16
8.3017e-10
-4.23546e-11
-5.16824e-16
8.35947e-10
1.35883e-10
-4.52004e-16
8.14542e-10
2.76755e-10
-4.26681e-16
7.70755e-10
3.87279e-10
-3.69269e-16
7.0869e-10
4.73714e-10
-3.15585e-16
6.31729e-10
5.41682e-10
-2.03766e-16
5.42721e-10
5.95305e-10
-1.67209e-16
4.44347e-10
6.36079e-10
-1.36833e-16
3.39688e-10
6.61551e-10
-1.13464e-16
2.33139e-10
6.63037e-10
-1.13695e-16
1.31764e-10
6.22167e-10
-7.93204e-17
4.72177e-11
5.08772e-10
-6.65499e-17
2.79012e-10
-5.41823e-17
-2.0589e-08
-7.01183e-16
-2.01923e-08
-7.68011e-16
-1.95685e-08
-2.81629e-08
-9.55908e-16
-1.87591e-08
-2.72021e-08
-9.76083e-16
-1.78045e-08
-2.61031e-08
-8.84647e-16
-1.67431e-08
-2.48917e-08
-8.6296e-16
-1.56093e-08
-2.35986e-08
-9.55266e-16
-1.44333e-08
-2.22452e-08
-8.60146e-16
-1.32404e-08
-2.08542e-08
-8.147e-16
-1.20518e-08
-1.94439e-08
-8.70936e-16
-1.08843e-08
-1.80285e-08
-9.7428e-16
-9.75054e-09
-1.66249e-08
-1.00519e-15
-8.66008e-09
-1.52413e-08
-1.15621e-15
-7.61952e-09
-1.3889e-08
-1.00776e-15
-6.63339e-09
-1.25753e-08
-7.40596e-16
-5.70463e-09
-1.13062e-08
-6.30693e-16
-4.83515e-09
-1.00872e-08
-6.08238e-16
-4.02642e-09
-8.92274e-09
-6.03104e-16
-3.27962e-09
-7.81727e-09
-6.98378e-16
-2.59602e-09
-6.77448e-09
-8.52922e-16
-1.97682e-09
-5.79854e-09
-7.95499e-16
-1.42303e-09
-4.893e-09
-4.10573e-16
-9.35352e-10
-4.06039e-09
-4.50807e-16
-5.13384e-10
-3.30548e-09
-6.60084e-16
-1.5607e-10
-2.62721e-09
-7.17127e-16
1.38907e-10
-2.02722e-09
-1.12468e-15
3.74715e-10
-1.50294e-09
-6.99314e-16
5.5549e-10
-1.05173e-09
-8.15595e-16
6.86204e-10
-6.69832e-10
-7.37778e-16
7.72193e-10
-3.50983e-10
-6.62737e-16
8.19043e-10
-8.92061e-11
-5.54499e-16
8.3224e-10
1.22684e-10
-4.82185e-16
8.16961e-10
2.92038e-10
-4.51842e-16
7.77846e-10
4.26392e-10
-3.90954e-16
7.18964e-10
5.32597e-10
-3.33267e-16
6.4376e-10
6.16887e-10
-2.21395e-16
5.55206e-10
6.83858e-10
-1.80252e-16
4.56148e-10
7.35136e-10
-1.4811e-16
3.49858e-10
7.67841e-10
-1.24132e-16
2.4093e-10
7.71964e-10
-1.1806e-16
1.36661e-10
7.26436e-10
-8.28157e-17
4.91166e-11
5.96314e-10
-6.76328e-17
3.28127e-10
-5.40754e-17
-1.71175e-08
-2.8572e-08
-7.75634e-16
-1.65295e-08
-2.77901e-08
-8.71937e-16
-1.57954e-08
-2.68371e-08
-8.35377e-16
-1.49478e-08
-2.57393e-08
-8.3141e-16
-1.40171e-08
-2.45293e-08
-9.09554e-16
-1.30312e-08
-2.3231e-08
-8.20242e-16
-1.20145e-08
-2.18709e-08
-7.57111e-16
-1.09876e-08
-2.04707e-08
-8.02592e-16
-9.96779e-09
-1.90483e-08
-9.01548e-16
-8.96846e-09
-1.76243e-08
-9.45382e-16
-8.00012e-09
-1.62097e-08
-1.08805e-15
-7.07034e-09
-1.48187e-08
-9.70059e-16
-6.18452e-09
-1.34611e-08
-7.26037e-16
-5.34626e-09
-1.21445e-08
-6.23316e-16
-4.55786e-09
-1.08756e-08
-5.92713e-16
-3.82092e-09
-9.65969e-09
-6.01487e-16
-3.13661e-09
-8.50158e-09
-6.19205e-16
-2.50607e-09
-7.40501e-09
-7.00663e-16
-1.93048e-09
-6.37413e-09
-8.76162e-16
-1.41099e-09
-5.41249e-09
-7.93598e-16
-9.48723e-10
-4.52267e-09
-4.71923e-16
-5.44071e-10
-3.71013e-09
-6.10566e-16
-1.96994e-10
-2.97429e-09
-6.52909e-16
9.36636e-11
-2.31788e-09
-9.68045e-16
3.29814e-10
-1.73909e-09
-9.36312e-16
5.14304e-10
-1.23622e-09
-7.97816e-16
6.50908e-10
-8.0644e-10
-7.87201e-16
7.43923e-10
-4.43995e-10
-7.25798e-16
7.98096e-10
-1.43381e-10
-5.93703e-16
8.18277e-10
1.02501e-10
-5.13125e-16
8.092e-10
3.01118e-10
-4.77176e-16
7.75237e-10
4.60352e-10
-4.12087e-16
7.20325e-10
5.87511e-10
-3.49871e-16
6.47886e-10
6.89325e-10
-2.37362e-16
5.60949e-10
7.70792e-10
-1.9249e-16
4.62469e-10
8.33616e-10
-1.5842e-16
3.55852e-10
8.74458e-10
-1.32052e-16
2.45835e-10
8.81981e-10
-1.2147e-16
1.39883e-10
8.32388e-10
-8.58374e-17
5.03897e-11
6.85806e-10
-6.85501e-17
3.78516e-10
-5.38909e-17
-1.49173e-08
-2.88202e-08
-1.09055e-15
-1.45028e-08
-2.82046e-08
-1.10136e-15
-1.39477e-08
-2.73923e-08
-1.01244e-15
-1.32788e-08
-2.64082e-08
-9.65899e-16
-1.25223e-08
-2.52857e-08
-9.85653e-16
-1.1703e-08
-2.40503e-08
-8.75649e-16
-1.08434e-08
-2.27305e-08
-7.75666e-16
-9.96293e-09
-2.13511e-08
-7.85619e-16
-9.07841e-09
-1.99328e-08
-8.60787e-16
-8.20333e-09
-1.84994e-08
-9.01154e-16
-7.34857e-09
-1.70645e-08
-1.0267e-15
-6.52229e-09
-1.5645e-08
-9.31589e-16
-5.73054e-09
-1.42529e-08
-7.07994e-16
-4.97747e-09
-1.28976e-08
-6.14033e-16
-4.26587e-09
-1.15872e-08
-5.79784e-16
-3.59757e-09
-1.0328e-08
-5.88187e-16
-2.97386e-09
-9.12529e-09
-6.07605e-16
-2.39584e-09
-7.98301e-09
-6.40054e-16
-1.86465e-09
-6.90533e-09
-7.243e-16
-1.38142e-09
-5.89571e-09
-9.00982e-16
-9.47443e-10
-4.95665e-09
-6.64019e-16
-5.63567e-10
-4.094e-09
-5.56863e-16
-2.30462e-10
-3.3074e-09
-6.76846e-16
5.21511e-11
-2.60049e-09
-7.15481e-16
2.85194e-10
-1.97213e-09
-1.10681e-15
4.7043e-10
-1.42145e-09
-7.25838e-16
6.10544e-10
-9.46556e-10
-8.2724e-16
7.08826e-10
-5.42274e-10
-7.72321e-16
7.6917e-10
-2.03727e-10
-6.3637e-16
7.95734e-10
7.59364e-11
-5.42518e-16
7.92731e-10
3.04124e-10
-5.01161e-16
7.64181e-10
4.889e-10
-4.31861e-16
7.13808e-10
6.37886e-10
-3.65366e-16
6.44938e-10
7.58196e-10
-2.51524e-16
5.60592e-10
8.55136e-10
-2.049e-16
4.63778e-10
9.3043e-10
-1.67725e-16
3.57986e-10
9.80249e-10
-1.38843e-16
2.48046e-10
9.9192e-10
-1.24133e-16
1.41532e-10
9.38902e-10
-8.832e-17
5.10762e-11
7.76261e-10
-6.91014e-17
4.29591e-10
-5.34597e-17
-1.29601e-08
-2.89509e-08
-8.88503e-16
-1.2679e-08
-2.84857e-08
-9.04228e-16
-1.22669e-08
-2.78043e-08
-8.64858e-16
-1.17453e-08
-2.69298e-08
-8.51478e-16
-1.11361e-08
-2.58949e-08
-8.89664e-16
-1.04609e-08
-2.47256e-08
-8.13407e-16
-9.73947e-09
-2.34519e-08
-7.26446e-16
-8.98991e-09
-2.21007e-08
-7.36312e-16
-8.22794e-09
-2.06948e-08
-8.07134e-16
-7.4666e-09
-1.92607e-08
-8.51982e-16
-6.71666e-09
-1.78144e-08
-9.65938e-16
-5.98648e-09
-1.63751e-08
-8.93575e-16
-5.28245e-09
-1.49569e-08
-6.89825e-16
-4.60915e-09
-1.35709e-08
-6.02259e-16
-3.96975e-09
-1.22266e-08
-5.69089e-16
-3.3664e-09
-1.09314e-08
-5.714e-16
-2.80055e-09
-9.69114e-09
-5.93333e-16
-2.27338e-09
-8.51018e-09
-6.23446e-16
-1.78597e-09
-7.39274e-09
-6.62727e-16
-1.33945e-09
-6.34222e-09
-7.78255e-16
-9.35147e-10
-5.36095e-09
-8.84564e-16
-5.74125e-10
-4.45502e-09
-6.04241e-16
-2.57503e-10
-3.62403e-09
-6.93102e-16
1.43489e-11
-2.87234e-09
-6.83282e-16
2.41565e-10
-2.19934e-09
-9.50381e-16
4.2507e-10
-1.60496e-09
-9.55023e-16
5.66593e-10
-1.08808e-09
-7.94141e-16
6.68498e-10
-6.44178e-10
-7.99357e-16
7.33849e-10
-2.69079e-10
-6.80504e-16
7.66095e-10
4.36892e-11
-5.71789e-16
7.68889e-10
3.01333e-10
-5.22745e-16
7.45838e-10
5.11949e-10
-4.4944e-16
7.00387e-10
6.83339e-10
-3.79432e-16
6.35707e-10
8.22877e-10
-2.6432e-16
5.54754e-10
9.36086e-10
-2.17804e-16
4.60538e-10
1.02465e-09
-1.76177e-16
3.56586e-10
1.0842e-09
-1.45889e-16
2.47772e-10
1.10073e-09
-1.26534e-16
1.41725e-10
1.04495e-09
-9.04871e-17
5.12212e-11
8.66763e-10
-6.95698e-17
4.80812e-10
-5.30093e-17
-1.12309e-08
-2.89974e-08
-1.29756e-15
-1.10507e-08
-2.86659e-08
-1.21983e-15
-1.07514e-08
-2.81036e-08
-1.1106e-15
-1.03497e-08
-2.73315e-08
-1.03966e-15
-9.86363e-09
-2.6381e-08
-1.00666e-15
-9.31134e-09
-2.52778e-08
-8.9422e-16
-8.71026e-09
-2.4053e-08
-7.79298e-16
-8.07644e-09
-2.27345e-08
-7.52529e-16
-7.42432e-09
-2.1347e-08
-7.94744e-16
-6.76609e-09
-1.9919e-08
-8.26407e-16
-6.11208e-09
-1.84684e-08
-9.20412e-16
-5.47049e-09
-1.70167e-08
-8.61052e-16
-4.84778e-09
-1.55796e-08
-6.74306e-16
-4.24876e-09
-1.41699e-08
-5.91153e-16
-3.67688e-09
-1.27985e-08
-5.57539e-16
-3.13454e-09
-1.14737e-08
-5.57441e-16
-2.6234e-09
-1.02023e-08
-5.75022e-16
-2.14474e-09
-8.98883e-09
-6.06924e-16
-1.69968e-09
-7.8378e-09
-6.43339e-16
-1.28932e-09
-6.75257e-09
-6.9325e-16
-9.15004e-10
-5.73528e-09
-8.394e-16
-5.77864e-10
-4.79216e-09
-7.46282e-16
-2.79273e-10
-3.92262e-09
-6.53662e-16
-2.00836e-11
-3.13153e-09
-7.234e-16
1.9929e-10
-2.41871e-09
-7.57301e-16
3.79066e-10
-1.78473e-09
-1.05369e-15
5.20204e-10
-1.22922e-09
-7.38936e-16
6.24249e-10
-7.4822e-10
-8.10657e-16
6.93482e-10
-3.38314e-10
-7.11008e-16
7.30666e-10
6.5045e-12
-5.99882e-16
7.38875e-10
2.93127e-10
-5.41912e-16
7.2127e-10
5.29552e-10
-4.64866e-16
6.80973e-10
7.23637e-10
-3.92008e-16
6.20947e-10
8.82903e-10
-2.76086e-16
5.44037e-10
1.01299e-09
-2.2903e-16
4.53207e-10
1.11548e-09
-1.83027e-16
3.51978e-10
1.18543e-09
-1.53448e-16
2.45226e-10
1.20748e-09
-1.28512e-16
1.40582e-10
1.14959e-09
-9.21454e-17
5.08732e-11
9.56471e-10
-6.96898e-17
5.31684e-10
-5.21637e-17
-9.71148e-09
-2.89857e-08
-9.13713e-16
-9.60635e-09
-2.8771e-08
-9.90094e-16
-9.39472e-09
-2.83153e-08
-9.90719e-16
-9.0896e-09
-2.76366e-08
-9.68598e-16
-8.70535e-09
-2.67652e-08
-9.47705e-16
-8.25706e-09
-2.57261e-08
-8.62191e-16
-7.75965e-09
-2.45504e-08
-7.59531e-16
-7.22718e-09
-2.32669e-08
-7.30265e-16
-6.67258e-09
-2.19016e-08
-7.64791e-16
-6.10699e-09
-2.04846e-08
-7.95123e-16
-5.54003e-09
-1.90354e-08
-8.77594e-16
-4.97949e-09
-1.75772e-08
-8.2846e-16
-4.43169e-09
-1.61274e-08
-6.59847e-16
-3.90146e-09
-1.47001e-08
-5.81193e-16
-3.39238e-09
-1.33076e-08
-5.46736e-16
-2.90703e-09
-1.1959e-08
-5.43956e-16
-2.44726e-09
-1.0662e-08
-5.59172e-16
-2.01446e-09
-9.42162e-09
-5.87833e-16
-1.60982e-09
-8.24245e-09
-6.24399e-16
-1.23445e-09
-7.12793e-09
-6.68508e-16
-8.89677e-10
-6.08006e-09
-7.56263e-16
-5.76673e-10
-5.10516e-09
-8.48096e-16
-2.96921e-10
-4.20238e-09
-6.63968e-16
-5.15773e-11
-3.37688e-09
-7.70635e-16
1.58494e-10
-2.62879e-09
-7.09435e-16
3.32988e-10
-1.95922e-09
-9.94161e-16
4.72256e-10
-1.36849e-09
-8.87978e-16
5.77138e-10
-8.531e-10
-7.81218e-16
6.49211e-10
-4.10388e-10
-7.28651e-16
6.90582e-10
-3.48687e-11
-6.28211e-16
7.03763e-10
2.79949e-10
-5.59158e-16
6.9145e-10
5.41863e-10
-4.77833e-16
6.56412e-10
7.58676e-10
-4.02581e-16
6.0137e-10
9.37946e-10
-2.87646e-16
5.29016e-10
1.08535e-09
-2.37127e-16
4.42229e-10
1.20226e-09
-1.88497e-16
3.44486e-10
1.28317e-09
-1.5975e-16
2.40626e-10
1.31134e-09
-1.30512e-16
1.3823e-10
1.25199e-09
-9.34702e-17
5.00815e-11
1.04462e-09
-6.97998e-17
5.81765e-10
-5.14085e-17
-8.38208e-09
-2.89349e-08
-1.16417e-15
-8.33169e-09
-2.88214e-08
-1.18577e-15
-8.18749e-09
-2.84594e-08
-1.19162e-15
-7.95932e-09
-2.78648e-08
-1.1352e-15
-7.65855e-09
-2.7066e-08
-1.06066e-15
-7.29748e-09
-2.60872e-08
-9.55733e-16
-6.88867e-09
-2.49592e-08
-8.19737e-16
-6.4442e-09
-2.37113e-08
-7.59984e-16
-5.97546e-09
-2.23703e-08
-7.68888e-16
-5.49241e-09
-2.09676e-08
-7.86107e-16
-5.00381e-09
-1.9524e-08
-8.52377e-16
-4.5169e-09
-1.80641e-08
-8.04158e-16
-4.03765e-09
-1.66066e-08
-6.49048e-16
-3.57076e-09
-1.5167e-08
-5.73404e-16
-3.11978e-09
-1.37586e-08
-5.37642e-16
-2.6874e-09
-1.23914e-08
-5.31758e-16
-2.27559e-09
-1.10739e-08
-5.44768e-16
-1.88585e-09
-9.81135e-09
-5.70726e-16
-1.51943e-09
-8.60887e-09
-6.04968e-16
-1.1775e-09
-7.46986e-09
-6.47841e-16
-8.61344e-10
-6.39622e-09
-6.97699e-16
-5.72174e-10
-5.39432e-09
-8.10154e-16
-3.11509e-10
-4.46304e-09
-7.41228e-16
-8.06759e-11
-3.60771e-09
-7.42418e-16
1.19132e-10
-2.82859e-09
-7.31454e-16
2.872e-10
-2.12728e-09
-7.85577e-16
4.23409e-10
-1.5047e-09
-9.85323e-16
5.28019e-10
-9.57708e-10
-7.23443e-16
6.0199e-10
-4.84361e-10
-7.36429e-16
6.46828e-10
-7.97086e-11
-6.50277e-16
6.64504e-10
2.62276e-10
-5.74971e-16
6.57256e-10
5.49109e-10
-4.88891e-16
6.27485e-10
7.88448e-10
-4.10974e-16
5.77643e-10
9.87789e-10
-2.97389e-16
5.10239e-10
1.15275e-09
-2.43264e-16
4.28035e-10
1.28447e-09
-1.9216e-16
3.34429e-10
1.37678e-09
-1.61632e-16
2.34188e-10
1.41159e-09
-1.31914e-16
1.34796e-10
1.35138e-09
-9.40486e-17
4.88948e-11
1.13052e-09
-6.9536e-17
6.30659e-10
-5.04833e-17
-7.22271e-09
-2.88595e-08
-1.0808e-15
-7.21147e-09
-2.88327e-08
-1.01267e-15
-7.11847e-09
-2.85524e-08
-1.05604e-15
-6.9511e-09
-2.80322e-08
-1.06894e-15
-6.71822e-09
-2.72989e-08
-1.01299e-15
-6.42978e-09
-2.63756e-08
-9.20539e-16
-6.09614e-09
-2.52929e-08
-8.0129e-16
-5.72755e-09
-2.40799e-08
-7.44229e-16
-5.33384e-09
-2.2764e-08
-7.48995e-16
-4.92381e-09
-2.13777e-08
-7.65839e-16
-4.50526e-09
-1.99426e-08
-8.25911e-16
-4.08477e-09
-1.84846e-08
-7.81044e-16
-3.66785e-09
-1.70235e-08
-6.38729e-16
-3.25892e-09
-1.55759e-08
-5.66726e-16
-2.86143e-09
-1.41561e-08
-5.30117e-16
-2.47806e-09
-1.27748e-08
-5.2126e-16
-2.11081e-09
-1.14411e-08
-5.31772e-16
-1.76128e-09
-1.01609e-08
-5.55126e-16
-1.43077e-09
-8.93937e-09
-5.86868e-16
-1.12049e-09
-7.78014e-09
-6.27231e-16
-8.31733e-10
-6.68498e-09
-6.73312e-16
-5.65718e-10
-5.66034e-09
-7.48438e-16
-3.23968e-10
-4.70479e-09
-8.12597e-16
-1.07902e-10
-3.82378e-09
-7.23551e-16
8.10724e-11
-3.01757e-09
-7.79923e-16
2.41924e-10
-2.28813e-09
-7.12236e-16
3.74152e-10
-1.63693e-09
-9.84144e-16
4.77572e-10
-1.06113e-09
-8.18393e-16
5.52616e-10
-5.59406e-10
-7.13703e-16
6.00249e-10
-1.27343e-10
-6.62731e-16
6.21938e-10
2.40589e-10
-5.9034e-16
6.1948e-10
5.51566e-10
-4.98148e-16
5.94907e-10
8.13022e-10
-4.17774e-16
5.50386e-10
1.03231e-09
-3.05577e-16
4.88222e-10
1.21491e-09
-2.49569e-16
4.11035e-10
1.36165e-09
-1.95145e-16
3.22114e-10
1.4657e-09
-1.60712e-16
2.26122e-10
1.50758e-09
-1.32358e-16
1.30402e-10
1.4471e-09
-9.41216e-17
4.73604e-11
1.21356e-09
-6.91738e-17
6.78019e-10
-4.9666e-17
-6.21417e-09
-2.87696e-08
-1.29226e-15
-6.23022e-09
-2.88166e-08
-1.13009e-15
-6.17567e-09
-2.86069e-08
-1.11814e-15
-6.05595e-09
-2.81519e-08
-1.14566e-15
-5.87794e-09
-2.74769e-08
-1.07043e-15
-5.64958e-09
-2.6604e-08
-9.65286e-16
-5.37934e-09
-2.55631e-08
-8.4279e-16
-5.07577e-09
-2.43834e-08
-7.70206e-16
-4.74725e-09
-2.30926e-08
-7.56782e-16
-4.40139e-09
-2.17235e-08
-7.61994e-16
-4.04505e-09
-2.02989e-08
-8.09281e-16
-3.6841e-09
-1.88455e-08
-7.62706e-16
-3.32352e-09
-1.73841e-08
-6.30801e-16
-2.96735e-09
-1.59321e-08
-5.61889e-16
-2.61885e-09
-1.45046e-08
-5.24481e-16
-2.2806e-09
-1.31131e-08
-5.12703e-16
-1.95458e-09
-1.17671e-08
-5.20543e-16
-1.64241e-09
-1.0473e-08
-5.41114e-16
-1.34545e-09
-9.23633e-09
-5.70494e-16
-1.06494e-09
-8.06065e-09
-6.08155e-16
-8.02181e-10
-6.94774e-09
-6.51365e-16
-5.5839e-10
-5.90412e-09
-7.01523e-16
-3.35088e-10
-4.9281e-09
-7.85835e-16
-1.33731e-10
-4.02514e-09
-7.40251e-16
4.41488e-11
-3.19545e-09
-8.10115e-16
1.97275e-10
-2.44126e-09
-7.11358e-16
3.24845e-10
-1.7645e-09
-8.32985e-16
4.2634e-10
-1.16262e-09
-9.08433e-16
5.01749e-10
-6.34815e-10
-6.63738e-16
5.51566e-10
-1.77162e-10
-6.67111e-16
5.76799e-10
2.15359e-10
-6.03443e-16
5.78828e-10
5.49535e-10
-5.0617e-16
5.59327e-10
8.32524e-10
-4.2322e-16
5.20172e-10
1.07146e-09
-3.12007e-16
4.63451e-10
1.27163e-09
-2.55424e-16
3.91619e-10
1.43348e-09
-1.97849e-16
3.07838e-10
1.54948e-09
-1.59864e-16
2.16635e-10
1.59878e-09
-1.31132e-16
1.25168e-10
1.53857e-09
-9.33856e-17
4.5523e-11
1.2932e-09
-6.84319e-17
7.23541e-10
-4.83801e-17
-5.33848e-09
-2.86725e-08
-1.3944e-15
-5.373e-09
-2.87821e-08
-1.26509e-15
-5.34698e-09
-2.8633e-08
-1.16591e-15
-5.26434e-09
-2.82346e-08
-1.13358e-15
-5.13041e-09
-2.76108e-08
-1.068e-15
-4.9515e-09
-2.67829e-08
-9.64039e-16
-4.73445e-09
-2.57801e-08
-8.44516e-16
-4.48632e-09
-2.46316e-08
-7.69284e-16
-4.21413e-09
-2.33648e-08
-7.48689e-16
-3.92436e-09
-2.20133e-08
-7.4824e-16
-3.62297e-09
-2.06003e-08
-7.86278e-16
-3.31509e-09
-1.91534e-08
-7.42033e-16
-3.00513e-09
-1.76941e-08
-6.218e-16
-2.69674e-09
-1.62405e-08
-5.57398e-16
-2.39289e-09
-1.48084e-08
-5.19993e-16
-2.09598e-09
-1.341e-08
-5.05906e-16