/*--------------------------------*- C++ -*----------------------------------*\
| =========                 |                                                 |
| \\      /  F ield         | OpenFOAM: The Open Source CFD Toolbox           |
|  \\    /   O peration     | Version:  v2012                                 |
|   \\  /    A nd           | Website:  www.openfoam.com                      |
|    \\/     M anipulation  |                                                 |
\*---------------------------------------------------------------------------*/
FoamFile
{
    version     2.0;
    format      ascii;
    class       surfaceScalarField;
    location    "0.5";
    object      phi;
}
// * * * * * * * * * * * * * * * * * * * * * * * * * * * * * * * * * * * * * //

dimensions      [0 3 -1 0 0 0 0];
oriented        oriented;


internalField   nonuniform List<scalar> 
8212
(
8.01495e-16
-7.70642e-14
5.40067e-19
5.54707e-15
-8.23305e-13
-1.90079e-18
1.65319e-14
-2.57499e-12
1.81338e-18
3.53621e-14
-5.42081e-12
-2.05964e-17
6.34877e-14
-9.43971e-12
-7.81848e-17
1.03764e-13
-1.47173e-11
7.54744e-18
1.57148e-13
-2.13489e-11
-9.01804e-17
2.26916e-13
-2.94418e-11
-7.74501e-17
3.15746e-13
-3.91075e-11
-3.37556e-17
4.26495e-13
-5.04809e-11
-5.33661e-17
5.62907e-13
-6.36885e-11
2.13458e-17
7.28541e-13
-7.88811e-11
3.38424e-17
9.27572e-13
-9.62258e-11
1.72121e-17
1.16383e-12
-1.15875e-10
-8.50339e-18
1.44224e-12
-1.38023e-10
2.54741e-17
1.76681e-12
-1.62842e-10
9.66123e-18
2.14249e-12
-1.90537e-10
4.68502e-17
2.57429e-12
-2.21317e-10
1.15415e-16
3.06689e-12
-2.55399e-10
1.96143e-16
3.6248e-12
-2.93001e-10
1.79049e-16
4.25358e-12
-3.34352e-10
1.69432e-16
4.95837e-12
-3.79718e-10
1.5668e-16
5.74379e-12
-4.29285e-10
1.3675e-16
6.61434e-12
-4.83352e-10
1.06264e-16
7.57398e-12
-5.42115e-10
7.52168e-17
8.6262e-12
-6.05845e-10
4.75022e-17
9.77348e-12
-6.74773e-10
2.56458e-17
1.10173e-11
-7.49052e-10
9.84129e-18
1.23577e-11
-8.29016e-10
-3.84423e-19
1.3793e-11
-9.147e-10
-6.20624e-18
1.53194e-11
-1.00634e-09
-9.45368e-18
1.69309e-11
-1.10404e-09
-1.07202e-17
1.86188e-11
-1.20785e-09
-1.12263e-17
2.03709e-11
-1.31776e-09
-1.04584e-17
2.2172e-11
-1.43372e-09
-1.08852e-17
2.40027e-11
-1.5556e-09
-1.04663e-17
2.58396e-11
-1.68309e-09
-1.24161e-17
2.76554e-11
-1.81585e-09
-1.33868e-17
-1.9533e-09
-1.72244e-17
6.02991e-16
-7.7662e-14
4.30736e-19
4.90128e-15
-8.27551e-13
6.96017e-18
1.56016e-14
-2.58573e-12
-4.01771e-18
3.55149e-14
-5.44026e-12
5.63495e-17
6.56098e-14
-9.46986e-12
-5.18371e-18
1.08404e-13
-1.47608e-11
-8.26718e-17
1.66782e-13
-2.14071e-11
2.41357e-17
2.416e-13
-2.95178e-11
-1.422e-16
3.36058e-13
-3.92035e-11
-1.74683e-16
4.53384e-13
-5.05992e-11
-1.14826e-16
5.96972e-13
-6.38327e-11
-7.54276e-17
7.68285e-13
-7.90541e-11
-1.91316e-16
9.73882e-13
-9.64312e-11
2.3637e-17
1.21508e-12
-1.16116e-10
-2.11977e-17
1.49746e-12
-1.38305e-10
3.37184e-17
1.82533e-12
-1.63169e-10
8.2754e-17
2.20333e-12
-1.90914e-10
9.87804e-17
2.63794e-12
-2.21749e-10
2.60568e-16
3.1328e-12
-2.55893e-10
1.68293e-16
3.69166e-12
-2.93562e-10
-2.13465e-16
4.32188e-12
-3.34985e-10
-2.55884e-16
5.02854e-12
-3.80427e-10
-2.03788e-16
5.81612e-12
-4.30074e-10
-1.68565e-16
6.68918e-12
-4.84227e-10
-1.33402e-16
7.6517e-12
-5.43079e-10
-1.14485e-16
8.70723e-12
-6.06901e-10
-8.68083e-17
9.85823e-12
-6.75925e-10
-7.26822e-17
1.11062e-11
-7.503e-10
-5.21176e-17
1.24511e-11
-8.30361e-10
-4.03942e-17
1.38913e-11
-9.1614e-10
-2.58281e-17
1.54228e-11
-1.00787e-09
-1.7543e-17
1.70397e-11
-1.10566e-09
-7.85574e-18
1.8733e-11
-1.20954e-09
-3.6273e-18
2.04906e-11
-1.31952e-09
1.82299e-18
2.22969e-11
-1.43552e-09
1.67954e-18
2.41325e-11
-1.55744e-09
2.71324e-18
2.59738e-11
-1.68493e-09
-2.74129e-18
2.77933e-11
-1.81767e-09
-6.14313e-18
-1.95506e-09
-1.50004e-17
3.52446e-16
-7.79927e-14
2.8276e-18
3.30192e-15
-8.30458e-13
6.16003e-18
1.14108e-14
-2.59391e-12
-7.99523e-18
2.75398e-14
-5.45629e-12
1.27927e-17
5.32651e-14
-9.49584e-12
-2.74958e-17
9.19992e-14
-1.47993e-11
3.48772e-17
1.45561e-13
-2.146e-11
8.61344e-17
2.1588e-13
-2.95883e-11
-2.39326e-17
3.06684e-13
-3.92942e-11
9.99348e-18
4.20082e-13
-5.07132e-11
-6.67817e-17
5.60473e-13
-6.39736e-11
-6.75732e-17
7.30426e-13
-7.92249e-11
-1.00396e-16
9.35871e-13
-9.6636e-11
6.81154e-17
1.17776e-12
-1.16359e-10
-1.2922e-16
1.46254e-12
-1.3859e-10
-8.55082e-17
1.79364e-12
-1.63502e-10
-1.54695e-16
2.17626e-12
-1.91298e-10
-1.46486e-16
2.6165e-12
-2.22189e-10
-1.41424e-17
3.11755e-12
-2.56395e-10
-6.7202e-17
3.68458e-12
-2.94129e-10
-1.02595e-16
4.32385e-12
-3.35624e-10
-4.44479e-18
5.04024e-12
-3.81143e-10
4.21142e-17
5.83834e-12
-4.30871e-10
4.22869e-17
6.72288e-12
-4.85111e-10
3.40998e-17
7.69786e-12
-5.44054e-10
1.58871e-17
8.7669e-12
-6.0797e-10
9.89158e-18
9.9324e-12
-6.77091e-10
-2.62838e-18
1.11959e-11
-7.51564e-10
-1.03768e-18
1.25572e-11
-8.31723e-10
-1.15234e-18
1.40147e-11
-9.17597e-10
7.21907e-18
1.55641e-11
-1.00942e-09
1.22287e-17
1.71994e-11
-1.1073e-09
2.1571e-17
1.89114e-11
-1.21125e-09
2.56652e-17
2.06876e-11
-1.3213e-09
3.31425e-17
2.25122e-11
-1.43735e-09
3.20632e-17
2.43655e-11
-1.55929e-09
3.3561e-17
2.62233e-11
-1.68679e-09
2.36964e-17
2.80578e-11
-1.8195e-09
1.79815e-17
-1.95684e-09
2.92288e-18
3.73231e-16
-7.837e-14
-1.07573e-18
3.58183e-15
-8.33608e-13
6.62853e-18
1.19574e-14
-2.60226e-12
5.71079e-18
2.89685e-14
-5.47302e-12
3.43787e-17
5.54449e-14
-9.52232e-12
3.38618e-18
9.59993e-14
-1.48394e-11
5.44395e-17
1.50737e-13
-2.15146e-11
1.26558e-17
2.2373e-13
-2.96616e-11
-3.74596e-17
3.17171e-13
-3.93872e-11
4.31384e-17
4.33029e-13
-5.08303e-11
-1.43131e-16
5.75687e-13
-6.41169e-11
-8.83129e-17
7.47798e-13
-7.93983e-11
-1.56456e-16
9.5483e-13
-9.68435e-11
-4.84799e-17
1.19868e-12
-1.16605e-10
-1.66412e-16
1.48534e-12
-1.38878e-10
-1.2913e-16
1.81825e-12
-1.63836e-10
-1.97339e-16
2.2032e-12
-1.91685e-10
-2.06458e-16
2.64609e-12
-2.22633e-10
-9.65898e-17
3.15095e-12
-2.56901e-10
-1.55915e-16
3.72334e-12
-2.94703e-10
-1.72318e-16
4.36922e-12
-3.36271e-10
-1.20678e-16
5.09366e-12
-3.81868e-10
-1.06273e-16
5.90151e-12
-4.3168e-10
-1.26325e-16
6.79769e-12
-4.86008e-10
-1.25187e-16
7.78628e-12
-5.45044e-10
-1.29392e-16
8.87095e-12
-6.09056e-10
-1.08954e-16
1.00541e-11
-6.78275e-10
-1.00948e-16
1.13372e-11
-7.52847e-10
-7.3616e-17
1.272e-11
-8.33106e-10
-5.39819e-17
1.42007e-11
-9.19078e-10
-2.54535e-17
1.57749e-11
-1.01099e-09
-5.75863e-18
1.74362e-11
-1.10896e-09
1.7066e-17
1.91751e-11
-1.21299e-09
3.06111e-17
2.09788e-11
-1.3231e-09
4.64621e-17
2.28309e-11
-1.4392e-09
5.02496e-17
2.47111e-11
-1.56117e-09
5.55881e-17
2.65947e-11
-1.68867e-09
4.57618e-17
2.84533e-11
-1.82136e-09
3.99837e-17
-1.95864e-09
2.19403e-17
1.40458e-16
-7.85741e-14
-5.86475e-18
2.28907e-15
-8.35682e-13
1.13232e-17
8.42736e-15
-2.60857e-12
-2.72223e-17
2.21392e-14
-5.48666e-12
1.56528e-17
4.40864e-14
-9.54442e-12
-1.6086e-17
7.9542e-14
-1.48745e-11
4.93969e-17
1.28675e-13
-2.15634e-11
3.66522e-17
1.9683e-13
-2.97296e-11
2.14848e-17
2.85809e-13
-3.9475e-11
1.41814e-16
3.98401e-13
-5.09436e-11
-8.41837e-17
5.38906e-13
-6.42575e-11
-6.90436e-18
7.10225e-13
-7.95709e-11
-1.53607e-16
9.17831e-13
-9.70511e-11
-1.81146e-19
1.16404e-12
-1.16852e-10
-8.72714e-17
1.45453e-12
-1.39169e-10
-4.57001e-17
1.79297e-12
-1.64176e-10
-1.12901e-16
2.18492e-12
-1.92078e-10
-1.357e-16
2.63617e-12
-2.23085e-10
-7.36626e-17
3.15149e-12
-2.57417e-10
-5.64413e-17
3.73589e-12
-2.95289e-10
-1.31397e-16
4.39533e-12
-3.36931e-10
-1.08452e-16
5.13503e-12
-3.82609e-10
-1.17e-16
5.96002e-12
-4.32507e-10
-1.32614e-16
6.87534e-12
-4.86925e-10
-1.39724e-16
7.88519e-12
-5.46055e-10
-1.43134e-16
8.99332e-12
-6.10165e-10
-1.31541e-16
1.02022e-11
-6.79485e-10
-1.2591e-16
1.15132e-11
-7.54159e-10
-1.033e-16
1.29262e-11
-8.3452e-10
-8.24374e-17
1.4439e-11
-9.20592e-10
-5.27404e-17
1.60472e-11
-1.0126e-09
-2.87167e-17
1.77441e-11
-1.11065e-09
-9.0423e-19
1.95197e-11
-1.21476e-09
1.85401e-17
2.13607e-11
-1.32494e-09
4.12392e-17
2.32502e-11
-1.44109e-09
5.02166e-17
2.51671e-11
-1.56308e-09
6.12562e-17
2.70861e-11
-1.69059e-09
5.34451e-17
2.89776e-11
-1.82325e-09
5.0343e-17
-1.96047e-09
3.06786e-17
3.18837e-16
-7.88506e-14
-9.22044e-19
2.26604e-15
-8.38082e-13
-5.01629e-17
9.65854e-15
-2.61542e-12
7.24916e-17
2.50115e-14
-5.50088e-12
1.21941e-16
4.70602e-14
-9.56764e-12
-1.25256e-16
8.34066e-14
-1.49118e-11
-1.2356e-16
1.33326e-13
-2.16136e-11
-2.91863e-17
2.02925e-13
-2.97994e-11
-3.29993e-17
2.91718e-13
-3.95637e-11
1.42378e-17
4.04673e-13
-5.1058e-11
-1.49711e-16
5.45144e-13
-6.4398e-11
-1.67734e-17
7.16314e-13
-7.97436e-11
-1.71605e-16
9.23832e-13
-9.72588e-11
-4.23059e-17
1.17051e-12
-1.17099e-10
-1.3947e-16
1.46229e-12
-1.39461e-10
-1.03545e-16
1.80324e-12
-1.64518e-10
-1.45241e-16
2.19935e-12
-1.92475e-10
-1.3686e-16
2.65622e-12
-2.23543e-10
-8.91293e-17
3.1794e-12
-2.5794e-10
-5.69834e-17
3.77401e-12
-2.95884e-10
-7.13881e-17
4.44604e-12
-3.37604e-10
-8.18871e-17
5.20098e-12
-3.83365e-10
-1.15204e-16
6.04415e-12
-4.33351e-10
-1.61373e-16
6.98065e-12
-4.87863e-10
-1.82549e-16
8.01482e-12
-5.47091e-10
-2.01608e-16
9.15042e-12
-6.11302e-10
-1.92179e-16
1.03899e-11
-6.80726e-10
-1.8982e-16
1.17346e-11
-7.55505e-10
-1.61912e-16
1.31843e-11
-8.35971e-10
-1.36979e-16
1.47365e-11
-9.22145e-10
-9.93801e-17
1.63866e-11
-1.01425e-09
-6.88219e-17
1.81275e-11
-1.1124e-09
-3.33644e-17
1.99486e-11
-1.21659e-09
-7.18043e-18
2.18361e-11
-1.32683e-09
2.25104e-17
2.37723e-11
-1.44302e-09
3.72863e-17
2.57354e-11
-1.56505e-09
5.38004e-17
2.76988e-11
-1.69255e-09
4.94585e-17
2.9632e-11
-1.82518e-09
4.94839e-17
-1.96234e-09
2.99317e-17
2.17734e-16
-7.90071e-14
2.349e-18
1.34045e-15
-8.39771e-13
-5.9219e-17
6.99186e-15
-2.62021e-12
1.07754e-16
1.91662e-14
-5.51036e-12
3.01784e-16
3.83425e-14
-9.58698e-12
-4.32784e-18
6.97287e-14
-1.49433e-11
-8.63131e-19
1.14694e-13
-2.16585e-11
1.36998e-17
1.79846e-13
-2.98643e-11
4.80319e-17
2.64702e-13
-3.9648e-11
6.88056e-17
3.75988e-13
-5.11699e-11
-6.10847e-17
5.15757e-13
-6.45368e-11
1.00533e-16
6.87835e-13
-7.9917e-11
-1.55428e-16
8.97754e-13
-9.74683e-11
3.51925e-17
1.14809e-12
-1.17351e-10
-1.53242e-16
1.44506e-12
-1.39759e-10
-8.59039e-17
1.79303e-12
-1.64867e-10
-1.33617e-16
2.19777e-12
-1.92881e-10
-1.10604e-16
2.66534e-12
-2.24011e-10
-7.61789e-17
3.20146e-12
-2.58477e-10
-2.13908e-17
3.81144e-12
-2.96494e-10
-7.78098e-17
4.50135e-12
-3.38295e-10
-9.86758e-17
5.27691e-12
-3.84142e-10
-1.44101e-16
6.14371e-12
-4.34219e-10
-1.71675e-16
7.107e-12
-4.88828e-10
-1.94972e-16
8.17129e-12
-5.48157e-10
-2.05002e-16
9.34044e-12
-6.12473e-10
-2.03064e-16
1.0617e-11
-6.82004e-10
-1.99905e-16
1.20023e-11
-7.56892e-10
-1.79558e-16
1.34959e-11
-8.37466e-10
-1.55906e-16
1.50953e-11
-9.23745e-10
-1.22713e-16
1.67954e-11
-1.01595e-09
-9.21846e-17
1.85888e-11
-1.11419e-09
-5.72604e-17
2.04642e-11
-1.21846e-09
-2.90344e-17
2.24073e-11
-1.32877e-09
3.54129e-18
2.43995e-11
-1.44502e-09
2.16402e-17
2.64178e-11
-1.56707e-09
4.23459e-17
2.84346e-11
-1.69457e-09
4.06623e-17
3.04182e-11
-1.82717e-09
4.4265e-17
-1.96425e-09
2.49985e-17
1.52425e-16
-7.92213e-14
-6.70199e-18
2.4205e-15
-8.41578e-13
4.8249e-17
8.54345e-15
-2.62682e-12
-5.87624e-17
1.30147e-14
-5.5237e-12
-1.04022e-15
4.4091e-14
-9.6093e-12
1.01711e-15
7.27568e-14
-1.49762e-11
-4.95178e-16
1.24095e-13
-2.17074e-11
2.98168e-16
1.87239e-13
-2.9931e-11
-4.49242e-16
2.74202e-13
-3.97339e-11
1.53901e-16
3.8495e-13
-5.12819e-11
-1.51241e-16
5.24175e-13
-6.4675e-11
1.31808e-16
6.95208e-13
-8.00899e-11
-2.0854e-16
9.04929e-13
-9.76773e-11
7.11991e-17
1.15567e-12
-1.17603e-10
-1.77252e-16
1.45481e-12
-1.40059e-10
-8.63096e-17
1.80698e-12
-1.6522e-10
-1.26103e-16
2.21821e-12
-1.93293e-10
-1.2776e-16
2.69518e-12
-2.24488e-10
-5.45978e-17
3.24357e-12
-2.59025e-10
-2.487e-17
3.86881e-12
-2.9712e-10
-7.78559e-17
4.57747e-12
-3.39004e-10
-1.02435e-16
5.3755e-12
-3.84941e-10
-1.2198e-16
6.26867e-12
-4.35114e-10
-1.51182e-16
7.26228e-12
-4.89823e-10
-1.71116e-16
8.36101e-12
-5.49257e-10
-1.94912e-16
9.56872e-12
-6.13683e-10
-1.97948e-16
1.0888e-11
-6.83325e-10
-2.0619e-16
1.23202e-11
-7.58326e-10
-1.89647e-16
1.38646e-11
-8.39012e-10
-1.72076e-16
1.55186e-11
-9.254e-10
-1.40399e-16
1.72767e-11
-1.01771e-09
-1.11829e-16
1.91309e-11
-1.11604e-09
-7.66987e-17
2.10694e-11
-1.2204e-09
-4.76758e-17
2.3077e-11
-1.33078e-09
-1.30937e-17
2.5134e-11
-1.44707e-09
7.51033e-18
2.72165e-11
-1.56915e-09
3.11232e-17
2.92955e-11
-1.69665e-09
3.19518e-17
3.13377e-11
-1.82921e-09
3.83627e-17
-1.96622e-09
2.01612e-17
1.26325e-16
-7.93552e-14
8.81541e-21
1.8563e-15
-8.43012e-13
3.39753e-17
6.61452e-15
-2.63188e-12
-3.68249e-17
8.9881e-15
-5.53334e-12
-8.60556e-16
3.77382e-14
-9.62571e-12
1.43131e-15
6.00742e-14
-1.49985e-11
1.94544e-17
1.08937e-13
-2.17471e-11
1.12113e-15
1.66079e-13
-2.99898e-11
-2.05984e-16
2.51929e-13
-3.98151e-11
5.44925e-16
3.61089e-13
-5.13911e-11
2.81529e-17
5.01808e-13
-6.48129e-11
3.1243e-16
6.75779e-13
-8.0265e-11
-1.03231e-16
8.90303e-13
-9.789e-11
1.7895e-16
1.14691e-12
-1.17862e-10
-1.97004e-16
1.45371e-12
-1.40366e-10
-8.07349e-17
1.81491e-12
-1.65583e-10
-2.12995e-16
2.2374e-12
-1.93717e-10
-1.71322e-16
2.72796e-12
-2.2498e-10
-1.21218e-16
3.29258e-12
-2.59591e-10
-7.6732e-17
3.93753e-12
-2.97766e-10
-1.00935e-16
4.66931e-12
-3.39737e-10
-9.93564e-17
5.49422e-12
-3.85767e-10
-1.24532e-16
6.41828e-12
-4.36039e-10
-1.36324e-16
7.44707e-12
-4.90853e-10
-1.61525e-16
8.58542e-12
-5.50397e-10
-1.74856e-16
9.83736e-12
-6.14936e-10
-1.85266e-16
1.12055e-11
-6.84695e-10
-1.90689e-16
1.26911e-11
-7.59813e-10
-1.8214e-16
1.42935e-11
-8.40615e-10
-1.6603e-16
1.60096e-11
-9.27118e-10
-1.41426e-16
1.78336e-11
-1.01954e-09
-1.15583e-16
1.97569e-11
-1.11797e-09
-8.51464e-17
2.17671e-11
-1.22241e-09
-5.75815e-17
2.38479e-11
-1.33286e-09
-2.40736e-17
2.59787e-11
-1.4492e-09
-2.83073e-18
2.81342e-11
-1.5713e-09
2.22371e-17
3.02838e-11
-1.6988e-09
2.43554e-17
3.23929e-11
-1.83132e-09
3.31764e-17
-1.96824e-09
1.57966e-17
1.4824e-16
-7.95207e-14
-4.06234e-18
2.02372e-15
-8.44615e-13
3.17994e-17
6.70573e-15
-2.63677e-12
-2.47828e-17
1.678e-14
-5.54346e-12
-1.19566e-18
3.88879e-14
-9.64853e-12
-3.26289e-17
5.69959e-14
-1.50349e-11
-2.22547e-15
1.13414e-13
-2.17978e-11
5.90658e-16
1.78031e-13
-3.00528e-11
3.66587e-16
2.67217e-13
-3.98995e-11
5.02101e-16
3.74813e-13
-5.15006e-11
-2.21493e-16
5.17282e-13
-6.49522e-11
3.90828e-16
6.90374e-13
-8.04394e-11
-1.58475e-16
9.06128e-13
-9.81037e-11
2.40244e-16
1.16437e-12
-1.18122e-10
-2.404e-16
1.47562e-12
-1.40678e-10
-3.90168e-17
1.84326e-12
-1.65953e-10
-2.34833e-16
2.27577e-12
-1.94151e-10
-1.48311e-16
2.77953e-12
-2.25484e-10
-9.24996e-17
3.36114e-12
-2.60173e-10
-7.51608e-17
4.02684e-12
-2.98433e-10
-1.13719e-16
4.78373e-12
-3.40494e-10
-1.12306e-16
5.63835e-12
-3.86622e-10
-1.02164e-16
6.59691e-12
-4.36998e-10
-1.1095e-16
7.66512e-12
-4.91922e-10
-1.22958e-16
8.84799e-12
-5.51581e-10
-1.43867e-16
1.01496e-11
-6.16239e-10
-1.52848e-16
1.15726e-11
-6.86119e-10
-1.68092e-16
1.31183e-11
-7.6136e-10
-1.62615e-16
1.47857e-11
-8.42284e-10
-1.54571e-16
1.65714e-11
-9.28904e-10
-1.34141e-16
1.84693e-11
-1.02144e-09
-1.14086e-16
2.04701e-11
-1.11997e-09
-8.7311e-17
2.25605e-11
-1.2245e-09
-6.27776e-17
2.47233e-11
-1.33502e-09
-3.0771e-17
2.69366e-11
-1.45142e-09
-9.91125e-18
2.91738e-11
-1.57354e-09
1.54118e-17
3.14026e-11
-1.70103e-09
1.80544e-17
3.35864e-11
-1.8335e-09
2.80881e-17
-1.97034e-09
1.15619e-17
1.02217e-16
-7.96386e-14
-1.96788e-18
1.71278e-15
-8.45961e-13
3.23385e-17
5.53706e-15
-2.64135e-12
-9.28125e-17
1.47071e-14
-5.55353e-12
-9.7775e-17
3.33547e-14
-9.66555e-12
2.25053e-16
5.0816e-14
-1.5059e-11
-9.11392e-16
1.04046e-13
-2.18333e-11
1.98975e-15
1.59044e-13
-3.0104e-11
6.44545e-16
2.47315e-13
-3.99793e-11
1.03273e-15
3.56178e-13
-5.16094e-11
3.6582e-17
5.03038e-13
-6.50936e-11
6.27556e-16
6.80771e-13
-8.06175e-11
-8.98481e-19
9.03847e-13
-9.83236e-11
3.32569e-16
1.17038e-12
-1.18391e-10
-2.06079e-16
1.49228e-12
-1.40999e-10
2.98836e-18
1.8719e-12
-1.66335e-10
-2.76717e-16
2.31934e-12
-1.94599e-10
-1.43305e-16
2.84042e-12
-2.26007e-10
-1.48575e-16
3.44288e-12
-2.60776e-10
-9.15608e-17
4.13365e-12
-2.99124e-10
-1.02626e-16
4.91984e-12
-3.41281e-10
-8.23944e-17
5.8084e-12
-3.87511e-10
-8.69887e-17
6.80587e-12
-4.37997e-10
-8.30055e-17
7.91832e-12
-4.93035e-10
-1.01971e-16
9.15093e-12
-5.52814e-10
-1.11284e-16
1.0508e-11
-6.17597e-10
-1.26373e-16
1.19921e-11
-6.87605e-10
-1.37349e-16
1.36045e-11
-7.62973e-10
-1.3917e-16
1.53441e-11
-8.44025e-10
-1.32018e-16
1.72072e-11
-9.30768e-10
-1.19335e-16
1.91869e-11
-1.02342e-09
-1.03025e-16
2.12735e-11
-1.12206e-09
-8.29107e-17
2.34528e-11
-1.22668e-09
-6.1768e-17
2.57063e-11
-1.33728e-09
-3.33093e-17
2.8011e-11
-1.45372e-09
-1.3876e-17
3.03385e-11
-1.57587e-09
1.03939e-17
3.26549e-11
-1.70334e-09
1.23443e-17
3.49215e-11
-1.83577e-09
2.27189e-17
-1.97251e-09
6.38607e-18
1.29033e-16
-7.97788e-14
-2.73905e-18
1.49108e-15
-8.47418e-13
-1.30024e-17
5.89729e-15
-2.64567e-12
1.13757e-17
1.67735e-14
-5.56331e-12
1.26032e-16
3.66615e-14
-9.68431e-12
1.42963e-16
6.3713e-14
-1.50918e-11
-6.15072e-16
1.09652e-13
-2.1885e-11
-5.73222e-16
1.58384e-13
-3.01737e-11
-2.74678e-15
2.53084e-13
-4.00687e-11
4.91034e-16
3.72415e-13
-5.17202e-11
1.27233e-15
5.22841e-13
-6.5238e-11
6.16359e-16
7.01336e-13
-8.07974e-11
-1.00566e-16
9.29085e-13
-9.85479e-11
4.14325e-16
1.20018e-12
-1.18663e-10
-1.54321e-16
1.52999e-12
-1.41329e-10
5.36325e-17
1.91981e-12
-1.66727e-10
-2.62455e-16
2.3815e-12
-1.95062e-10
-1.30889e-16
2.9203e-12
-2.26547e-10
-1.82984e-16
3.54511e-12
-2.61402e-10
-1.18222e-16
4.26297e-12
-2.99843e-10
-8.30523e-17
5.08129e-12
-3.421e-10
-7.10328e-17
6.00728e-12
-3.88438e-10
-6.39269e-17
7.04786e-12
-4.39038e-10
-6.80654e-17
8.20927e-12
-4.94197e-10
-7.47093e-17
9.49694e-12
-5.54103e-10
-8.87528e-17
1.09152e-11
-6.19016e-10
-9.6627e-17
1.24668e-11
-6.89157e-10
-1.12906e-16
1.41528e-11
-7.6466e-10
-1.13643e-16
1.59719e-11
-8.45845e-10
-1.12507e-16
1.79201e-11
-9.32717e-10
-1.02727e-16
1.99899e-11
-1.02549e-09
-9.22983e-17
2.21707e-11
-1.12424e-09
-7.63367e-17
2.44475e-11
-1.22896e-09
-5.94288e-17
2.68006e-11
-1.33963e-09
-3.382e-17
2.92055e-11
-1.45613e-09
-1.64272e-17
3.1632e-11
-1.57829e-09
6.24846e-18
3.40443e-11
-1.70575e-09
6.72606e-18
3.64016e-11
-1.83812e-09
1.64232e-17
-1.97477e-09
-1.89875e-19
1.14577e-16
-7.98901e-14
7.16219e-20
1.30419e-15
-8.48723e-13
-1.49966e-17
5.35036e-15
-2.64996e-12
-2.91625e-17
1.55786e-14
-5.57328e-12
3.01009e-17
3.31719e-14
-9.70083e-12
1.31224e-16
6.24357e-14
-1.51187e-11
3.02835e-16
1.04747e-13
-2.19271e-11
8.23834e-17
1.47862e-13
-3.02353e-11
-2.44346e-15
2.4191e-13
-4.01556e-11
8.07852e-16
3.64805e-13
-5.18327e-11
1.49664e-15
5.20263e-13
-6.53856e-11
8.00421e-16
7.05057e-13
-8.09824e-11
7.73042e-17
9.41775e-13
-9.87799e-11
5.12684e-16
1.22338e-12
-1.18946e-10
-1.02543e-16
1.56666e-12
-1.41671e-10
1.07274e-16
1.97189e-12
-1.67135e-10
-2.89636e-16
2.45253e-12
-1.95544e-10
-1.19244e-16
3.01339e-12
-2.2711e-10
-2.17678e-16
3.66461e-12
-2.62054e-10
-1.03198e-16
4.41364e-12
-3.00592e-10
-7.89922e-17
5.26829e-12
-3.42955e-10
-4.49655e-17
6.23616e-12
-3.89406e-10
-4.50872e-17
7.32453e-12
-4.40126e-10
-3.47004e-17
8.54003e-12
-4.95413e-10
-5.00298e-17
9.8883e-12
-5.55451e-10
-5.68568e-17
1.13738e-11
-6.20502e-10
-7.19146e-17
1.29995e-11
-6.90783e-10
-8.39283e-17
1.47661e-11
-7.66428e-10
-9.05932e-17
1.66723e-11
-8.47751e-10
-8.92462e-17
1.87134e-11
-9.34759e-10
-8.60378e-17
2.08815e-11
-1.02766e-09
-7.85408e-17
2.31652e-11
-1.12652e-09
-6.87951e-17
2.55483e-11
-1.23134e-09
-5.5236e-17
2.80099e-11
-1.34209e-09
-3.366e-17
3.05238e-11
-1.45864e-09
-1.84371e-17
3.30581e-11
-1.58083e-09
1.82128e-18
3.55747e-11
-1.70827e-09
1.97503e-19
3.80304e-11
-1.84058e-09
8.50351e-18
-1.97711e-09
-8.8527e-18
1.2931e-16
-8.00162e-14
-6.06463e-19
1.39432e-15
-8.50071e-13
-1.08761e-17
5.56796e-15
-2.65433e-12
-2.31381e-17
1.6695e-14
-5.58324e-12
1.36892e-16
3.44478e-14
-9.71925e-12
-7.96542e-17
6.58568e-14
-1.51494e-11
1.08548e-16
1.12199e-13
-2.1973e-11
1.39897e-16
1.5901e-13
-3.03006e-11
-2.36368e-15
2.56075e-13
-4.02449e-11
8.35824e-16
3.82454e-13
-5.19495e-11
1.37035e-15
5.41304e-13
-6.55379e-11
6.79088e-16
7.31736e-13
-8.11732e-11
6.05268e-17
9.75386e-13
-9.90187e-11
5.59261e-16
1.26559e-12
-1.19238e-10
-1.48815e-16
1.62086e-12
-1.42025e-10
1.39254e-16
2.04117e-12
-1.67558e-10
-2.84223e-16
2.54122e-12
-1.96044e-10
-1.01814e-16
3.12586e-12
-2.27696e-10
-1.99638e-16
3.80575e-12
-2.62735e-10
-1.23497e-16
4.58884e-12
-3.01376e-10
-6.64069e-17
5.48335e-12
-3.4385e-10
-3.86293e-17
6.49718e-12
-3.9042e-10
-3.55908e-17
7.63806e-12
-4.41268e-10
-3.57682e-17
8.91285e-12
-4.96688e-10
-4.10448e-17
1.03275e-11
-5.56866e-10
-5.1719e-17
1.18866e-11
-6.22062e-10
-5.74116e-17
1.3593e-11
-6.9249e-10
-7.13373e-17
1.54474e-11
-7.68283e-10
-7.39227e-17
1.74483e-11
-8.49753e-10
-7.61688e-17
1.95905e-11
-9.36902e-10
-7.38077e-17
2.18655e-11
-1.02993e-09
-7.07252e-17
2.42608e-11
-1.12892e-09
-6.38585e-17
2.67591e-11
-1.23384e-09
-5.39821e-17
2.93382e-11
-1.34467e-09
-3.49254e-17
3.197e-11
-1.46127e-09
-2.21258e-17
3.46208e-11
-1.58348e-09
-4.06773e-18
3.72501e-11
-1.7109e-09
-8.23193e-18
3.98122e-11
-1.84314e-09
-1.56863e-18
-1.97955e-09
-1.99966e-17
1.12831e-16
-8.01275e-14
-1.89985e-19
1.27537e-15
-8.51378e-13
-1.79077e-17
5.33225e-15
-2.65869e-12
-3.64214e-17
1.64781e-14
-5.59319e-12
1.39889e-16
3.40186e-14
-9.73737e-12
-6.84493e-17
6.47627e-14
-1.51792e-11
1.24975e-16
1.10968e-13
-2.20179e-11
2.21611e-16
1.58589e-13
-3.03648e-11
-2.16026e-15
2.57542e-13
-4.03351e-11
9.44611e-16
3.87628e-13
-5.2069e-11
1.49917e-15
5.52054e-13
-6.56954e-11
7.11472e-16
7.50393e-13
-8.13724e-11
4.06705e-18
1.00432e-12
-9.92682e-11
4.89975e-16
1.30778e-12
-1.19543e-10
-2.23916e-16
1.6793e-12
-1.42395e-10
7.19021e-17
2.11934e-12
-1.68001e-10
-3.41621e-16
2.64257e-12
-1.96569e-10
-1.46854e-16
3.25484e-12
-2.28311e-10
-2.25462e-16
3.9673e-12
-2.63448e-10
-1.14991e-16
4.78848e-12
-3.02198e-10
-7.10844e-17
5.72721e-12
-3.44789e-10
-1.46258e-17
6.79174e-12
-3.91485e-10
-1.18072e-17
7.9902e-12
-4.42466e-10
4.51109e-18
9.32983e-12
-4.98028e-10
-8.8065e-18
1.08168e-11
-5.58354e-10
-1.71376e-17
1.24559e-11
-6.23701e-10
-3.25976e-17
1.42501e-11
-6.94285e-10
-4.58233e-17
1.61999e-11
-7.70233e-10
-5.58316e-17
1.83034e-11
-8.51857e-10
-5.93993e-17
2.0555e-11
-9.39154e-10
-6.36108e-17
2.29454e-11
-1.03232e-09
-6.32608e-17
2.54612e-11
-1.13143e-09
-6.17225e-17
2.80839e-11
-1.23646e-09
-5.4486e-17
3.07895e-11
-1.34738e-09
-3.88726e-17
3.35485e-11
-1.46403e-09
-2.80325e-17
3.63245e-11
-1.58625e-09
-1.25647e-17
3.90749e-11
-1.71365e-09
-1.90456e-17
4.17513e-11
-1.84582e-09
-1.42132e-17
-1.9821e-09
-3.34483e-17
1.10391e-16
-8.02508e-14
-2.34931e-18
1.33648e-15
-8.52719e-13
-1.55388e-17
5.71699e-15
-2.66322e-12
-1.82551e-17
1.68257e-14
-5.6035e-12
9.3695e-17
3.60501e-14
-9.75631e-12
3.34473e-17
6.81459e-14
-1.52107e-11
1.00867e-16
1.16577e-13
-2.20659e-11
1.38592e-16
1.67491e-13
-3.04336e-11
-2.32e-15
2.70588e-13
-4.043e-11
8.88057e-16
4.05817e-13
-5.21949e-11
1.35569e-15
5.76822e-13
-6.58591e-11
7.53238e-16
7.83553e-13
-8.15796e-11
3.30819e-17
1.04671e-12
-9.95278e-11
3.977e-16
1.36369e-12
-1.19862e-10
-1.72124e-16
1.75131e-12
-1.42782e-10
7.81721e-17
2.21236e-12
-1.68464e-10
-2.75743e-16
2.76037e-12
-1.97118e-10
-1.72145e-16
3.40319e-12
-2.28955e-10
-2.1113e-16
4.1514e-12
-2.64198e-10
-1.49035e-16
5.01451e-12
-3.03061e-10
-6.10052e-17
6.00172e-12
-3.45776e-10
-9.33618e-18
7.12165e-12
-3.92605e-10
-1.23424e-17
8.38293e-12
-4.43727e-10
-9.79922e-18
9.79311e-12
-4.99439e-10
-1.84534e-17
1.13587e-11
-5.59919e-10
-3.09117e-17
1.30846e-11
-6.25427e-10
-3.81712e-17
1.49737e-11
-6.96175e-10
-5.18427e-17
1.70266e-11
-7.72286e-10
-5.67045e-17
1.92409e-11
-8.54072e-10
-6.16593e-17
2.16104e-11
-9.41524e-10
-6.47514e-17
2.41251e-11
-1.03484e-09
-6.68594e-17
2.67706e-11
-1.13408e-09
-6.62767e-17
2.95269e-11
-1.23922e-09
-6.12929e-17
3.23685e-11
-1.35022e-09
-4.68792e-17
3.52636e-11
-1.46693e-09
-3.78505e-17
3.81739e-11
-1.58916e-09
-2.39201e-17
4.1054e-11
-1.71653e-09
-3.26511e-17
4.38524e-11
-1.84861e-09
-2.89648e-17
-1.98476e-09
-4.90872e-17
1.20286e-16
-8.03667e-14
3.32765e-20
1.30415e-15
-8.54088e-13
-2.38016e-17
5.7402e-15
-2.66786e-12
-2.52175e-17
1.72699e-14
-5.61401e-12
1.19536e-16
3.70356e-14
-9.77572e-12
4.16636e-17
7.01835e-14
-1.52427e-11
1.56458e-16
1.20173e-13
-2.2115e-11
1.90616e-16
1.73333e-13
-3.05045e-11
-2.29593e-15
2.79757e-13
-4.05282e-11
8.84386e-16
4.20835e-13
-5.2326e-11
1.4355e-15
5.99432e-13
-6.60306e-11
7.32626e-16
8.16359e-13
-8.17978e-11
-6.47831e-17
1.09235e-12
-9.98011e-11
2.89714e-16
1.42548e-12
-1.20198e-10
-3.09514e-16
1.83283e-12
-1.4319e-10
-5.45549e-17
2.31798e-12
-1.68953e-10
-3.79171e-16
2.89435e-12
-1.97697e-10
-2.64022e-16
3.57113e-12
-2.29634e-10
-2.4336e-16
4.3589e-12
-2.64987e-10
-1.68798e-16
5.2679e-12
-3.03971e-10
-9.00913e-17
6.30812e-12
-3.46816e-10
-4.40946e-18
7.48851e-12
-3.93785e-10
4.00435e-19
8.81812e-12
-4.45057e-10
1.61243e-17
1.03049e-11
-5.00925e-10
5.97667e-19
1.19556e-11
-5.6157e-10
-1.05406e-17
1.37753e-11
-6.27247e-10
-2.64406e-17
1.57669e-11
-6.98167e-10
-4.09001e-17
1.79308e-11
-7.7445e-10
-5.28106e-17
2.02643e-11
-8.56406e-10
-5.92812e-17
2.27607e-11
-9.44021e-10
-6.78363e-17
2.54088e-11
-1.03749e-09
-7.19202e-17
2.81933e-11
-1.13687e-09
-7.51223e-17
3.10927e-11
-1.24212e-09
-7.14749e-17
3.40796e-11
-1.35321e-09
-5.91165e-17
3.71204e-11
-1.46997e-09
-5.09702e-17
4.0174e-11
-1.59222e-09
-3.8654e-17
4.31923e-11
-1.71955e-09
-4.86352e-17
4.61208e-11
-1.85154e-09
-4.59642e-17
-1.98753e-09
-6.6062e-17
1.11428e-16
-8.04932e-14
-2.42336e-18
1.42639e-15
-8.55495e-13
-1.25676e-17
6.02617e-15
-2.67272e-12
-3.17043e-17
1.8427e-14
-5.62503e-12
1.61766e-16
3.87478e-14
-9.79645e-12
-4.85644e-17
7.32634e-14
-1.52769e-11
5.44958e-17
1.26091e-13
-2.21671e-11
1.66718e-16
1.83349e-13
-3.05795e-11
-2.29157e-15
2.94657e-13
-4.0632e-11
8.15984e-16
4.42628e-13
-5.24645e-11
1.37398e-15
6.29688e-13
-6.62111e-11
6.74906e-16
8.57665e-13
-8.20275e-11
-1.0096e-16
1.14783e-12
-1.00088e-10
3.27567e-16
1.49816e-12
-1.20551e-10
-3.24113e-16
1.92699e-12
-1.43618e-10
-2.93126e-17
2.43811e-12
-1.69467e-10
-3.36944e-16
3.04574e-12
-1.98306e-10
-2.19072e-16
3.75992e-12
-2.3035e-10
-1.39734e-16
4.59099e-12
-2.65819e-10
-1.55507e-16
5.55014e-12
-3.04931e-10
-9.97535e-17
6.64808e-12
-3.47914e-10
-1.55392e-17
7.89414e-12
-3.95032e-10
-1.2562e-17
9.29783e-12
-4.46461e-10
-8.12452e-18
1.08674e-11
-5.02495e-10
-2.27326e-17
1.261e-11
-5.63313e-10
-3.73815e-17
1.45309e-11
-6.29168e-10
-4.79658e-17
1.66328e-11
-7.00269e-10
-6.32298e-17
1.89161e-11
-7.76734e-10
-7.1089e-17
2.13776e-11
-8.58868e-10
-7.79264e-17
2.40097e-11
-9.46654e-10
-8.43731e-17
2.68008e-11
-1.04028e-09
-8.93707e-17
2.97338e-11
-1.1398e-09
-9.17741e-17
3.2786e-11
-1.24517e-09
-8.87759e-17
3.59281e-11
-1.35635e-09
-7.58912e-17
3.91239e-11
-1.47316e-09
-6.83424e-17
4.233e-11
-1.59543e-09
-5.60581e-17
4.54951e-11
-1.72272e-09
-6.70876e-17
4.85617e-11
-1.85461e-09
-6.41225e-17
-1.99044e-09
-8.42611e-17
1.1747e-16
-8.06184e-14
-1.40832e-18
1.45442e-15
-8.56976e-13
-1.87742e-17
6.2244e-15
-2.67782e-12
-3.98082e-17
1.93276e-14
-5.63664e-12
1.76269e-16
4.06727e-14
-9.81811e-12
-3.90163e-17
7.70692e-14
-1.53125e-11
1.18641e-16
1.32628e-13
-2.22214e-11
2.19536e-16
1.9362e-13
-3.06579e-11
-2.26021e-15
3.1044e-13
-4.07408e-11
8.61388e-16
4.65873e-13
-5.26102e-11
1.40049e-15
6.62639e-13
-6.6401e-11
6.99134e-16
9.0355e-13
-8.22694e-11
-2.80691e-17
1.20976e-12
-1.00391e-10
3.71519e-16
1.57983e-12
-1.20924e-10
-3.04432e-16
2.03278e-12
-1.44071e-10
-2.9611e-17
2.57273e-12
-1.7001e-10
-3.83897e-16
3.21493e-12
-1.9895e-10
-2.48592e-16
3.96984e-12
-2.31106e-10
-1.59687e-16
4.84834e-12
-2.66699e-10
-1.58908e-16
5.86231e-12
-3.05945e-10
-8.63426e-17
7.02304e-12
-3.49074e-10
1.84813e-17
8.34032e-12
-3.96349e-10
2.16536e-17
9.82412e-12
-4.47944e-10
2.78594e-17
1.14832e-11
-5.04154e-10
3.8424e-18
1.33247e-11
-5.65155e-10
-1.3827e-17
1.53543e-11
-6.31198e-10
-3.56792e-17
1.75748e-11
-7.0249e-10
-5.69477e-17
1.9986e-11
-7.79146e-10
-7.48576e-17
2.25844e-11
-8.61467e-10
-8.61581e-17
2.53619e-11
-9.49432e-10
-9.87979e-17
2.83054e-11
-1.04323e-09
-1.06126e-16
3.1397e-11
-1.14289e-09
-1.11335e-16
3.46119e-11
-1.24839e-09
-1.08576e-16
3.7919e-11
-1.35966e-09
-9.6272e-17
4.12796e-11
-1.47653e-09
-8.8197e-17
4.46474e-11
-1.59879e-09
-7.6069e-17
4.79682e-11
-1.72604e-09
-8.66799e-17
5.11808e-11
-1.85782e-09
-8.33491e-17
-1.99347e-09
-1.02129e-16
1.18043e-16
-8.07548e-14
-2.95271e-18
1.53424e-15
-8.58531e-13
-1.78901e-17
6.70645e-15
-2.6832e-12
-2.62424e-17
2.03723e-14
-5.64874e-12
1.83539e-16
4.3233e-14
-9.84097e-12
-4.62989e-19
8.16903e-14
-1.53503e-11
1.07919e-16
1.40232e-13
-2.22795e-11
1.38453e-16
2.05347e-13
-3.07415e-11
-2.3897e-15
3.28916e-13
-4.08564e-11
8.71436e-16
4.93018e-13
-5.27646e-11
1.39263e-15
7.0083e-13
-6.66023e-11
6.62618e-16
9.55927e-13
-8.25259e-11
-7.91428e-17
1.27983e-12
-1.00712e-10
3.25205e-16
1.67183e-12
-1.21319e-10
-3.30762e-16
2.15139e-12
-1.44551e-10
-4.17135e-17
2.72302e-12
-1.70585e-10
-4.13687e-16
3.4031e-12
-1.99633e-10
-2.43208e-16
4.20234e-12
-2.31907e-10
-1.68276e-16
5.13249e-12
-2.67631e-10
-1.61698e-16
6.20599e-12
-3.07019e-10
-7.27761e-17
7.43466e-12
-3.50303e-10
2.07778e-17
8.82885e-12
-3.97743e-10
1.01591e-17
1.03991e-11
-4.49514e-10
2.52541e-18
1.21544e-11
-5.0591e-10
-2.64489e-17
1.41024e-11
-5.67103e-10
-4.9321e-17
1.62487e-11
-6.33345e-10
-7.01635e-17
1.85961e-11
-7.04838e-10
-9.28167e-17
2.11443e-11
-7.81695e-10
-1.08079e-16
2.3889e-11
-8.64212e-10
-1.19099e-16
2.68215e-11
-9.52365e-10
-1.28909e-16
2.99277e-11
-1.04633e-09
-1.35597e-16
3.31879e-11
-1.14615e-09
-1.38262e-16
3.65758e-11
-1.25178e-09
-1.34509e-16
4.00579e-11
-1.36314e-09
-1.19862e-16
4.35932e-11
-1.48006e-09
-1.10964e-16
4.71323e-11
-1.60233e-09
-9.70756e-17
5.06176e-11
-1.72952e-09
-1.07222e-16
5.39843e-11
-1.86119e-09
-1.01841e-16
-1.99665e-09
-1.19638e-16
1.07464e-16
-8.0895e-14
-2.65867e-18
1.63287e-15
-8.6013e-13
-1.24461e-17
7.03675e-15
-2.689e-12
-4.95936e-17
2.16401e-14
-5.66187e-12
1.7704e-16
4.59403e-14
-9.86535e-12
-1.27138e-17
8.68891e-14
-1.53901e-11