/*--------------------------------*- C++ -*----------------------------------*\
| =========                 |                                                 |
| \\      /  F ield         | OpenFOAM: The Open Source CFD Toolbox           |
|  \\    /   O peration     | Version:  v2012                                 |
|   \\  /    A nd           | Website:  www.openfoam.com                      |
|    \\/     M anipulation  |                                                 |
\*---------------------------------------------------------------------------*/
FoamFile
{
    version     2.0;
    format      ascii;
    class       volVectorField;
    location    "0.85";
    object      U;
}
// * * * * * * * * * * * * * * * * * * * * * * * * * * * * * * * * * * * * * //

dimensions      [0 1 -1 0 0 0 0];


internalField   nonuniform List<vector> 
3332
(
(0.00011464 -0.0132846 -1.00067e-06)
(0.000573861 -0.0251648 -5.00829e-06)
(0.00133112 -0.035002 -1.1617e-05)
(0.00231589 -0.0430936 -2.02106e-05)
(0.00349136 -0.049949 -3.04682e-05)
(0.00482648 -0.0558616 -4.21191e-05)
(0.00632442 -0.0610082 -5.51904e-05)
(0.00793568 -0.0654995 -6.92504e-05)
(0.000128928 -0.0143989 -1.12521e-06)
(0.000637047 -0.0271313 -5.55991e-06)
(0.00148062 -0.0376374 -1.29214e-05)
(0.00256853 -0.0462537 -2.24152e-05)
(0.00386431 -0.0535351 -3.37226e-05)
(0.00534056 -0.0597941 -4.66051e-05)
(0.00697851 -0.0652193 -6.08982e-05)
(0.00875757 -0.0699392 -7.64224e-05)
(0.0106555 -0.0740078 -9.29836e-05)
(0.0126569 -0.0775047 -0.000110448)
(0.0147363 -0.0804317 -0.000128593)
(0.0168788 -0.0828337 -0.000147289)
(0.0190447 -0.0847113 -0.000166189)
(0.0212302 -0.0860895 -0.00018526)
(0.0233939 -0.0869615 -0.000204142)
(0.00014655 -0.015633 -1.27914e-06)
(0.000716115 -0.0293049 -6.24969e-06)
(0.00165357 -0.0405456 -1.44309e-05)
(0.00285972 -0.0497397 -2.49561e-05)
(0.00429335 -0.0574842 -3.74666e-05)
(0.00592285 -0.0641207 -5.16858e-05)
(0.00772717 -0.0698541 -6.74305e-05)
(0.00967703 -0.0748111 -8.44452e-05)
(0.0117575 -0.0790718 -0.0001026)
(0.0139478 -0.08269 -0.000121712)
(0.0162162 -0.0857 -0.000141506)
(0.0185474 -0.0881247 -0.000161849)
(0.0208975 -0.0899827 -0.000182356)
(0.0232558 -0.0912848 -0.000202935)
(0.0255818 -0.0920455 -0.000223233)
(0.000166244 -0.0170445 -1.45087e-06)
(0.000802799 -0.0317576 -7.00641e-06)
(0.00184595 -0.0438082 -1.61094e-05)
(0.00318399 -0.0536318 -2.77861e-05)
(0.00477264 -0.0618811 -4.16489e-05)
(0.00657581 -0.068924 -5.73835e-05)
(0.00856457 -0.0749825 -7.47374e-05)
(0.010717 -0.0801934 -9.35196e-05)
(0.0130019 -0.0846376 -0.000113458)
(0.015398 -0.0883828 -0.000134366)
(0.0178761 -0.0914567 -0.00015599)
(0.0204102 -0.093893 -0.000178102)
(0.0229563 -0.095707 -0.00020032)
(0.0255017 -0.096916 -0.000222532)
(0.0279973 -0.097533 -0.00024431)
(0.000190617 -0.018605 -1.66375e-06)
(0.000907401 -0.0344694 -7.91898e-06)
(0.0020746 -0.0474131 -1.8105e-05)
(0.00356607 -0.0579313 -3.11199e-05)
(0.00533156 -0.0667323 -4.65261e-05)
(0.00733099 -0.0742204 -6.3973e-05)
(0.00953001 -0.0806315 -8.31614e-05)
(0.0119037 -0.0861151 -0.000103874)
(0.0144165 -0.0907618 -0.0001258)
(0.0170436 -0.0946351 -0.000148724)
(0.0197537 -0.097775 -0.000172372)
(0.0225114 -0.100208 -0.000196437)
(0.0252757 -0.101961 -0.000220558)
(0.0280214 -0.103046 -0.000244518)
(0.0307022 -0.103488 -0.000267911)
(0.000216897 -0.020417 -1.89298e-06)
(0.00102142 -0.0375646 -8.91433e-06)
(0.00232537 -0.0514951 -2.0293e-05)
(0.00398949 -0.0627738 -3.48149e-05)
(0.00595322 -0.0721761 -5.19504e-05)
(0.0081733 -0.0801418 -7.13226e-05)
(0.0106089 -0.0869265 -9.25751e-05)
(0.0132323 -0.0926929 -0.000115466)
(0.0160036 -0.0975373 -0.000139648)
(0.0188905 -0.101531 -0.000164839)
(0.0218593 -0.104715 -0.000190744)
(0.024868 -0.107123 -0.000216998)
(0.0278684 -0.108781 -0.00024318)
(0.0308354 -0.109709 -0.00026907)
(0.0337109 -0.109931 -0.000294163)
(0.000251213 -0.0224129 -2.19267e-06)
(0.00116339 -0.0409833 -1.01529e-05)
(0.00263182 -0.0560075 -2.29675e-05)
(0.00449726 -0.068127 -3.92453e-05)
(0.00669183 -0.0781923 -5.83953e-05)
(0.00916543 -0.0866826 -7.99795e-05)
(0.0118707 -0.0938752 -0.000103584)
(0.0147754 -0.0999454 -0.00012893)
(0.017834 -0.105 -0.000155619)
(0.0210079 -0.109112 -0.000183313)
(0.024261 -0.112332 -0.000211699)
(0.0275405 -0.114692 -0.000240317)
(0.0307995 -0.116228 -0.000268754)
(0.033999 -0.116956 -0.000296673)
(0.0370838 -0.116916 -0.000323593)
(0.000287716 -0.0247748 -2.51095e-06)
(0.00131757 -0.0449405 -1.14987e-05)
(0.00296523 -0.0611769 -2.58765e-05)
(0.00505583 -0.0742198 -4.41195e-05)
(0.00750766 -0.0850045 -6.55136e-05)
(0.0102667 -0.0940568 -8.95883e-05)
(0.0132776 -0.101677 -0.00011586)
(0.0165008 -0.108059 -0.000143985)
(0.0198864 -0.113314 -0.000173526)
(0.0233863 -0.117528 -0.000204065)
(0.026959 -0.12075 -0.00023524)
(0.0305445 -0.123025 -0.000266527)
(0.0340862 -0.124386 -0.000297432)
(0.037544 -0.124865 -0.000327605)
(0.0408477 -0.124496 -0.000356434)
(0.000337158 -0.0273585 -2.94274e-06)
(0.00151419 -0.0492974 -1.32141e-05)
(0.00338323 -0.0668838 -2.95243e-05)
(0.00574217 -0.0809533 -5.01081e-05)
(0.00849819 -0.0925365 -7.41565e-05)
(0.0115884 -0.102208 -0.00010112)
(0.0149487 -0.110297 -0.00013044)
(0.018533 -0.117012 -0.000161715)
(0.0222842 -0.12248 -0.000194446)
(0.0261434 -0.126787 -0.000228121)
(0.0300677 -0.129996 -0.000262363)
(0.0339805 -0.132152 -0.000296506)
(0.0378277 -0.133299 -0.000330076)
(0.041552 -0.133467 -0.000362575)
(0.0450872 -0.132712 -0.000393425)
(0.000387701 -0.0304915 -3.38358e-06)
(0.00172164 -0.0544323 -1.5025e-05)
(0.0038295 -0.0735199 -3.34179e-05)
(0.00648865 -0.0887171 -5.66214e-05)
(0.00958296 -0.101164 -8.3621e-05)
(0.0130467 -0.111494 -0.000113844)
(0.0168039 -0.120068 -0.000146627)
(0.0207974 -0.127113 -0.000181471)
(0.0249641 -0.132769 -0.000217828)
(0.0292351 -0.137134 -0.000255095)
(0.0335535 -0.140275 -0.000292776)
(0.0378399 -0.142249 -0.000330178)
(0.0420257 -0.143101 -0.000366703)
(0.0460483 -0.142882 -0.000401805)
(0.0498247 -0.141643 -0.00043476)
(0.000460798 -0.0338809 -4.02193e-06)
(0.00200001 -0.0600524 -1.74536e-05)
(0.00441063 -0.0808197 -3.84892e-05)
(0.00743274 -0.0972777 -6.48587e-05)
(0.010934 -0.110693 -9.54088e-05)
(0.0148362 -0.121754 -0.000129457)
(0.0190518 -0.130866 -0.000166239)
(0.0235124 -0.13827 -0.00020516)
(0.0281464 -0.144125 -0.000245593)
(0.0328695 -0.148533 -0.000286804)
(0.0376216 -0.151579 -0.000328268)
(0.0423026 -0.153315 -0.000369114)
(0.046846 -0.153814 -0.00040876)
(0.0511679 -0.153121 -0.000446473)
(0.055191 -0.151317 -0.00048158)
(0.000533449 -0.0381198 -4.65538e-06)
(0.00228851 -0.066828 -1.99717e-05)
(0.00502248 -0.0894697 -4.38273e-05)
(0.00844232 -0.107312 -7.36674e-05)
(0.0123961 -0.121767 -0.000108166)
(0.0167907 -0.133596 -0.000146509)
(0.0215257 -0.143245 -0.000187823)
(0.0265206 -0.150983 -0.000231403)
(0.0316882 -0.156983 -0.000276493)
(0.0369336 -0.161365 -0.00032226)
(0.0421777 -0.16422 -0.000368019)
(0.0473143 -0.165621 -0.000412839)
(0.0522531 -0.165641 -0.000455935)
(0.0569138 -0.164355 -0.000496605)
(0.0611899 -0.161842 -0.000533921)
(0.000644281 -0.0426307 -5.62321e-06)
(0.00269124 -0.0741682 -2.34852e-05)
(0.00584665 -0.0989213 -5.10189e-05)
(0.00976645 -0.118322 -8.52201e-05)
(0.0142737 -0.133954 -0.000124547)
(0.0192571 -0.146645 -0.000168027)
(0.0246002 -0.1569 -0.000214645)
(0.0302058 -0.165003 -0.000263555)
(0.0359734 -0.171161 -0.000313878)
(0.0417881 -0.175488 -0.000364614)
(0.0475652 -0.178113 -0.000415021)
(0.0531734 -0.179096 -0.000463957)
(0.0585238 -0.178555 -0.000510644)
(0.0635074 -0.176554 -0.000554132)
(0.0680271 -0.173221 -0.000593574)
(0.000749719 -0.0484965 -6.54285e-06)
(0.00308907 -0.0832797 -2.69572e-05)
(0.00669066 -0.110391 -5.83823e-05)
(0.0111549 -0.131499 -9.73333e-05)
(0.0162675 -0.148379 -0.00014194)
(0.0219119 -0.161956 -0.000191187)
(0.0279382 -0.172786 -0.000243767)
(0.034242 -0.181193 -0.000298766)
(0.040702 -0.187399 -0.000355131)
(0.0471812 -0.191551 -0.000411663)
(0.0535707 -0.193779 -0.000467415)
(0.0597324 -0.194183 -0.000521179)
(0.0655381 -0.192879 -0.000571839)
(0.0708938 -0.18998 -0.000618575)
(0.0756575 -0.185612 -0.000660146)
(0.000922419 -0.0545955 -8.05082e-06)
(0.00368654 -0.093002 -3.21697e-05)
(0.00788752 -0.122777 -6.88252e-05)
(0.0130516 -0.145831 -0.000113881)
(0.0189278 -0.164142 -0.000165149)
(0.025375 -0.178733 -0.0002214)
(0.032217 -0.190233 -0.000281094)
(0.0393258 -0.198979 -0.000343119)
(0.0465618 -0.205246 -0.000406251)
(0.0537578 -0.209175 -0.000469038)
(0.0607992 -0.210947 -0.000530477)
(0.0675126 -0.210651 -0.000589055)
(0.0737751 -0.208469 -0.000643702)
(0.0794533 -0.204502 -0.000693252)
(0.084422 -0.198947 -0.000736613)
(0.00107796 -0.0629143 -9.40703e-06)
(0.0042608 -0.105512 -3.71811e-05)
(0.00907329 -0.138273 -7.91696e-05)
(0.0149716 -0.163438 -0.00013063)
(0.0216794 -0.183239 -0.000189153)
(0.0290117 -0.19883 -0.000253123)
(0.0367734 -0.210903 -0.000320842)
(0.0448109 -0.219859 -0.000390966)
(0.0529438 -0.225983 -0.000461926)
(0.0609888 -0.229471 -0.000532119)
(0.068792 -0.230509 -0.000600205)
(0.0761646 -0.229245 -0.000664535)
(0.0829328 -0.225865 -0.000723594)
(0.0889941 -0.220541 -0.000776488)
(0.094154 -0.213479 -0.000821518)
(0.00135362 -0.071298 -1.18139e-05)
(0.00516894 -0.118562 -4.5104e-05)
(0.01085 -0.154725 -9.46706e-05)
(0.0177457 -0.182323 -0.000154832)
(0.0255231 -0.203868 -0.000222684)
(0.0339663 -0.22064 -0.000296347)
(0.0428357 -0.233414 -0.000373726)
(0.0519437 -0.242627 -0.000453191)
(0.061085 -0.248626 -0.000532946)
(0.0700272 -0.251604 -0.000610968)
(0.0786156 -0.25183 -0.000685905)
(0.0866088 -0.249427 -0.00075565)
(0.0938505 -0.244689 -0.000818842)
(0.10018 -0.237781 -0.000874075)
(0.105437 -0.228999 -0.000919951)
(0.00158523 -0.0834022 -1.38334e-05)
(0.00598413 -0.136121 -5.22174e-05)
(0.0125176 -0.176087 -0.000109218)
(0.0204416 -0.206296 -0.000178347)
(0.0293525 -0.229598 -0.000256088)
(0.0390071 -0.247454 -0.000340315)
(0.0491194 -0.260718 -0.000428539)
(0.0594579 -0.269918 -0.000518734)
(0.0697813 -0.275416 -0.000608804)
(0.0798004 -0.277491 -0.000696222)
(0.0893341 -0.27642 -0.000779404)
(0.0981025 -0.272428 -0.000855907)
(0.105872 -0.265818 -0.000923707)
(0.112557 -0.256873 -0.000982046)
(0.117871 -0.245897 -0.00102842)
(0.00203153 -0.095119 -1.77298e-05)
(0.00738983 -0.153887 -6.44808e-05)
(0.0152011 -0.198216 -0.000132628)
(0.0245741 -0.23149 -0.000214398)
(0.035012 -0.256919 -0.000305456)
(0.0462292 -0.276116 -0.000403316)
(0.0578688 -0.29006 -0.000504859)
(0.0696465 -0.299325 -0.000607612)
(0.0812843 -0.304351 -0.000709147)
(0.0924191 -0.305449 -0.000806299)
(0.102871 -0.302968 -0.000897492)
(0.112286 -0.297176 -0.000979639)
(0.120464 -0.288471 -0.00105101)
(0.12725 -0.27717 -0.00111022)
(0.132417 -0.263728 -0.00115532)
(0.00238093 -0.113171 -2.0776e-05)
(0.00857857 -0.179089 -7.48516e-05)
(0.0175781 -0.228284 -0.000153361)
(0.0283745 -0.264789 -0.000247543)
(0.0403928 -0.292249 -0.000352387)
(0.0532796 -0.312544 -0.000464804)
(0.0666041 -0.326735 -0.000581047)
(0.0800387 -0.335541 -0.000698251)
(0.0932122 -0.339416 -0.000813184)
(0.105726 -0.338816 -0.000922369)
(0.11731 -0.334106 -0.00102344)
(0.127595 -0.325724 -0.00111318)
(0.136281 -0.314096 -0.00118898)
(0.143276 -0.299724 -0.00125003)
(0.148251 -0.283091 -0.00129345)
(0.00309862 -0.129735 -2.7041e-05)
(0.0107686 -0.203533 -9.39561e-05)
(0.0216759 -0.258384 -0.000189106)
(0.034626 -0.298775 -0.000302074)
(0.0488694 -0.328811 -0.000426322)
(0.0639963 -0.35059 -0.000558282)
(0.0794617 -0.365307 -0.000693197)
(0.0948541 -0.373775 -0.00082748)
(0.109744 -0.376562 -0.000957381)
(0.123619 -0.374171 -0.00107844)
(0.13622 -0.367114 -0.00118839)
(0.147068 -0.355869 -0.00128304)
(0.155933 -0.341053 -0.00136041)
(0.162637 -0.323209 -0.00141892)
(0.166976 -0.303051 -0.0014568)
(0.00358788 -0.157165 -3.13077e-05)
(0.0124115 -0.240452 -0.000108286)
(0.0250027 -0.301591 -0.000218117)
(0.0399971 -0.345999 -0.000348906)
(0.0564557 -0.37832 -0.000492475)
(0.0739129 -0.401061 -0.000644756)
(0.0916983 -0.415481 -0.000799907)
(0.109314 -0.422644 -0.000953582)
(0.126212 -0.423119 -0.001101)
(0.141816 -0.417659 -0.00123714)
(0.155729 -0.406822 -0.00135854)
(0.167472 -0.391364 -0.00146101)
(0.176681 -0.371979 -0.00154138)
(0.183267 -0.349495 -0.00159887)
(0.18692 -0.324695 -0.00163078)
(0.00469774 -0.180546 -4.09948e-05)
(0.0158037 -0.274313 -0.000137875)
(0.0313065 -0.342886 -0.000273096)
(0.0495718 -0.392325 -0.000432415)
(0.0693531 -0.42775 -0.000604959)
(0.0900962 -0.452035 -0.000785902)
(0.11094 -0.466569 -0.000967726)
(0.131239 -0.472609 -0.0011448)
(0.150369 -0.470895 -0.0013117)
(0.167564 -0.462277 -0.00146172)
(0.18247 -0.447563 -0.00159178)
(0.194444 -0.427588 -0.00169627)
(0.203273 -0.403365 -0.00177333)
(0.208769 -0.375798 -0.00182133)
(0.210866 -0.346028 -0.00183966)
(0.00530113 -0.222497 -4.62517e-05)
(0.0180607 -0.32929 -0.00015755)
(0.0359613 -0.406217 -0.000313674)
(0.0571408 -0.460743 -0.000498394)
(0.0800872 -0.49862 -0.000698539)
(0.104113 -0.523438 -0.000908106)
(0.12818 -0.536559 -0.00111804)
(0.151456 -0.539698 -0.00132108)
(0.17317 -0.533595 -0.00151052)
(0.192453 -0.519516 -0.00167876)
(0.208752 -0.498422 -0.00182098)
(0.221454 -0.471571 -0.00193182)
(0.230165 -0.440202 -0.00200789)
(0.234862 -0.405624 -0.0020489)
(0.235375 -0.369148 -0.00205345)
(0.0069573 -0.254757 -6.07047e-05)
(0.0233294 -0.376158 -0.000203499)
(0.045773 -0.463347 -0.000399232)
(0.0720553 -0.524535 -0.000628456)
(0.100052 -0.566131 -0.000872641)
(0.128983 -0.59229 -0.00112498)
(0.157485 -0.6046 -0.0013736)
(0.184438 -0.605107 -0.00160872)
(0.209012 -0.594877 -0.0018231)
(0.229983 -0.575318 -0.00200609)
(0.246937 -0.547884 -0.00215402)
(0.259017 -0.513922 -0.00225947)
(0.266132 -0.47528 -0.00232159)
(0.2682 -0.433339 -0.00233972)
(0.265485 -0.390012 -0.00231608)
(0.00765887 -0.318935 -6.68108e-05)
(0.0263199 -0.459322 -0.00022955)
(0.0522961 -0.558091 -0.000456066)
(0.0828598 -0.625863 -0.000722599)
(0.115422 -0.669808 -0.00100658)
(0.14894 -0.695433 -0.00129891)
(0.181835 -0.704144 -0.00158585)
(0.212665 -0.698758 -0.00185477)
(0.24043 -0.680451 -0.00209701)
(0.263725 -0.651228 -0.00230025)
(0.281861 -0.613038 -0.00245857)
(0.294082 -0.567801 -0.00256522)
(0.300043 -0.517995 -0.00261736)
(0.300022 -0.465491 -0.00261723)
(0.294175 -0.412645 -0.00256637)
(0.0103382 -0.362723 -9.01853e-05)
(0.0349294 -0.524571 -0.000304615)
(0.0679951 -0.637946 -0.000592931)
(0.106602 -0.714598 -0.000929605)
(0.146835 -0.762725 -0.00128047)
(0.187671 -0.788871 -0.00163662)
(0.226983 -0.794785 -0.00197952)
(0.262787 -0.783897 -0.00229187)
(0.29408 -0.758092 -0.00256486)
(0.318811 -0.719403 -0.00278072)
(0.336592 -0.670997 -0.00293587)
(0.346312 -0.614552 -0.00302086)
(0.348222 -0.554068 -0.00303757)
(0.0114248 -0.463103 -9.9627e-05)
(0.0394097 -0.653088 -0.000343602)
(0.0776667 -0.782519 -0.000677136)
(0.122293 -0.867626 -0.00106625)
(0.168931 -0.917265 -0.00147294)
(0.21589 -0.940522 -0.00188246)
(0.26101 -0.938851 -0.00227604)
(0.301478 -0.916564 -0.00262903)
(0.33642 -0.87636 -0.002934)
(0.363209 -0.820632 -0.00316773)
(0.381347 -0.754142 -0.00332623)
(0.389761 -0.679047 -0.00339969)
(0.38844 -0.601223 -0.00338847)
(0.0157427 -0.523741 -0.000137276)
(0.0536705 -0.745071 -0.000467895)
(0.102763 -0.895344 -0.000895862)
(0.159975 -0.991644 -0.0013947)
(0.218021 -1.04509 -0.00190086)
(0.275666 -1.06661 -0.00240362)
(0.329889 -1.05808 -0.00287658)
(0.376989 -1.02502 -0.00328762)
(0.416101 -0.971509 -0.00362887)
(0.443609 -0.899668 -0.00386921)
(0.459301 -0.816955 -0.00400617)
(0.461522 -0.72444 -0.00402598)
(0.451468 -0.631507 -0.00393829)
(0.0176907 -0.683666 -0.000154204)
(0.0598869 -0.946794 -0.000521923)
(0.11694 -1.11848 -0.00101918)
(0.182384 -1.22483 -0.00158971)
(0.248606 -1.27764 -0.00216716)
(0.313643 -1.29124 -0.00273437)
(0.375063 -1.26905 -0.00327037)
(0.426848 -1.21486 -0.00372218)
(0.469489 -1.13714 -0.00409469)
(0.497655 -1.0356 -0.0043405)
(0.511814 -0.922493 -0.00446466)
(0.509883 -0.798636 -0.00444783)
(0.492819 -0.678946 -0.00429949)
(0.024389 -0.770766 -0.000212552)
(0.0831838 -1.07776 -0.000724836)
(0.155465 -1.2797 -0.0013548)
(0.239296 -1.39645 -0.00208563)
(0.320892 -1.45029 -0.00279729)
(0.400422 -1.45771 -0.0034913)
(0.473687 -1.42045 -0.00413068)
(0.534739 -1.34678 -0.00466406)
(0.582517 -1.24584 -0.00508105)
(0.61203 -1.11748 -0.0053394)
(0.621175 -0.979584 -0.00541916)
(0.606548 -0.828495 -0.0052923)
(0.571949 -0.689252 -0.0049902)
(0.0287967 -1.02635 -0.000250725)
(0.0899863 -1.39173 -0.000783764)
(0.177143 -1.61367 -0.00154316)
(0.273282 -1.74469 -0.00238145)
(0.356888 -1.79457 -0.0031113)
(0.44427 -1.78309 -0.00387408)
(0.525635 -1.72825 -0.00458516)
(0.589065 -1.61862 -0.00513883)
(0.639663 -1.48268 -0.00558141)
(0.665414 -1.30521 -0.00580576)
(0.670826 -1.1143 -0.00585391)
(0.647032 -0.907687 -0.00564591)
(0.598475 -0.727309 -0.00522292)
(0.0360345 -1.15435 -0.00031347)
(0.127178 -1.56828 -0.00110801)
(0.220004 -1.82448 -0.00191806)
(0.329625 -1.96602 -0.00287401)
(0.443513 -2.00756 -0.00386869)
(0.544445 -1.99143 -0.00475052)
(0.636423 -1.90529 -0.00555432)
(0.71761 -1.76585 -0.00626393)
(0.777596 -1.58745 -0.00678617)
(0.820409 -1.36812 -0.00716006)
(0.825891 -1.14337 -0.00720692)
(0.776241 -0.891686 -0.00677496)
(0.691176 -0.691513 -0.00603206)
(0.0599276 -1.5411 -0.00052167)
(0.132435 -2.03232 -0.00115627)
(0.236607 -2.29805 -0.0020688)
(0.340145 -2.4509 -0.00297049)
(0.449595 -2.49888 -0.00392767)
(0.56187 -2.41813 -0.00490731)
(0.677215 -2.33727 -0.00591563)
(0.756465 -2.15441 -0.00660405)
(0.818951 -1.95228 -0.00714687)
(0.837135 -1.6689 -0.00730125)
(0.841354 -1.32879 -0.00734034)
(0.773451 -0.957959 -0.00674809)
(0.658572 -0.694822 -0.00574788)
(0.0171318 -1.79076 -0.000151185)
(0.13024 -2.21354 -0.00115114)
(0.224826 -2.52449 -0.0019787)
(0.324675 -2.66851 -0.00285358)
(0.533632 -2.69637 -0.00467011)
(0.634027 -2.64955 -0.00554532)
(0.689782 -2.51251 -0.00602682)
(0.811381 -2.28141 -0.00708133)
(0.901577 -1.97878 -0.00785105)
(1.0495 -1.63154 -0.00914219)
(1.10657 -1.28287 -0.00964406)
(0.953407 -0.825646 -0.00831511)
(0.740423 -0.565664 -0.00645963)
(0.00203797 -1.97791 -2.34629e-05)
(-0.0461759 -2.71125 0.000386793)
(0.154434 -2.92686 -0.00137079)
(0.27126 -3.29773 -0.00239105)
(0.410327 -3.43844 -0.0036032)
(0.560279 -3.03505 -0.00490442)
(0.731355 -3.00276 -0.00640684)
(0.864182 -2.87871 -0.00756113)
(0.940362 -2.72106 -0.00817445)
(0.906418 -2.39236 -0.00785107)
(0.906859 -1.59233 -0.00789371)
(0.757378 -0.76526 -0.00660105)
(0.495165 -0.453128 -0.00431909)
(0.0407736 -1.69381 -0.000355434)
(0.219011 -2.43397 -0.0019106)
(0.0802695 -2.98991 -0.000704367)
(0.00498131 -3.32002 -3.62587e-05)
(0.761636 -3.46052 -0.00663839)
(0.708722 -3.43716 -0.00618978)
(0.166936 -3.24195 -0.00145638)
(0.251098 -2.86654 -0.0022538)
(0.51457 -2.33015 -0.00450326)
(1.07844 -1.72499 -0.00936727)
(1.47448 -1.15802 -0.0128614)
(0.936962 -0.42165 -0.0081654)
(0.400726 -0.209011 -0.00348884)
(0.0187365 -1.27729 -0.000161834)
(0.0599182 -1.78057 -0.000516097)
(0.097255 -2.16674 -0.000842085)
(0.136292 -2.33107 -0.00118887)
(0.222327 -2.38292 -0.00193687)
(0.293483 -2.3685 -0.00254898)
(0.319073 -2.10541 -0.0027612)
(0.312895 -1.71953 -0.00274092)
(0.259702 -1.18129 -0.00230159)
(0.163186 -0.483172 -0.00143175)
(0.0147486 -1.0477 -0.000129051)
(0.042549 -1.38628 -0.000371672)
(0.0731916 -1.60915 -0.000638842)
(0.105254 -1.72133 -0.000918382)
(0.133698 -1.7287 -0.00116547)
(0.156166 -1.63397 -0.00136272)
(0.16559 -1.43749 -0.0014424)
(0.150923 -1.13469 -0.00130724)
(0.102187 -0.737334 -0.000897909)
(0.0194121 -0.26897 -0.000177432)
(0.00997762 -0.940123 -8.72058e-05)
(0.0274088 -1.17814 -0.000239508)
(0.0443258 -1.32511 -0.000387374)
(0.0603665 -1.38601 -0.000527171)
(0.0729276 -1.36714 -0.00063674)
(0.0797941 -1.27175 -0.000696594)
(0.0780889 -1.0982 -0.000683114)
(0.0650073 -0.849314 -0.000569998)
(0.0392248 -0.535561 -0.000344291)
(0.00403275 -0.181115 -3.7238e-05)
(0.00550788 -0.914335 -4.8161e-05)
(0.0150298 -1.10161 -0.000131448)
(0.0229913 -1.20923 -0.000201066)
(0.0289397 -1.24507 -0.000252993)
(0.0323934 -1.21518 -0.000283136)
(0.0325323 -1.12163 -0.000284318)
(0.0287947 -0.965645 -0.000251667)
(0.0206238 -0.749127 -0.000180489)
(0.0074618 -0.478242 -6.56081e-05)
(-0.000837508 -0.164486 7.08073e-06)
(0.00297626 -0.940976 -2.60208e-05)
(0.00712049 -1.11992 -6.23163e-05)
(0.00869127 -1.21519 -7.61113e-05)
(0.00767637 -1.24076 -6.73364e-05)
(0.0044957 -1.20426 -3.9558e-05)
(0.000347787 -1.10868 -3.32698e-06)
(-0.00363635 -0.955432 3.15126e-05)
(-0.00585116 -0.746377 5.08771e-05)
(-0.00503226 -0.484377 4.37741e-05)
(-0.00129115 -0.172174 1.1349e-05)
(7.65846e-05 -0.947781 -6.99938e-07)
(0.000612147 -1.12864 -5.42692e-06)
(0.000841462 -1.22216 -7.5033e-06)
(0.000708727 -1.24535 -6.3774e-06)
(0.000292431 -1.20637 -2.77537e-06)
(-0.000307464 -1.10869 2.4854e-06)
(-0.000823833 -0.95402 7.01207e-06)
(-0.00105175 -0.744344 9.05024e-06)
(-0.000933135 -0.482996 8.05808e-06)
(-0.000202479 -0.172624 1.7781e-06)
(-0.00283943 -0.943011 2.47707e-05)
(-0.0060573 -1.12276 5.28182e-05)
(-0.0077914 -1.21661 6.79214e-05)
(-0.00804099 -1.24075 7.00662e-05)
(-0.0066923 -1.20318 5.82916e-05)
(-0.00469227 -1.10723 4.08315e-05)
(-0.00210405 -0.954446 1.82669e-05)
(-0.00011103 -0.746362 8.90112e-07)
(0.000941941 -0.485749 -8.2684e-06)
(0.000420531 -0.174391 -3.74014e-06)
(-0.00670667 -0.91787 5.85236e-05)
(-0.0146494 -1.1052 0.000127834)
(-0.0182753 -1.20763 0.000159458)
(-0.0187788 -1.23907 0.000163845)
(-0.0164056 -1.20639 0.000143122)
(-0.0126927 -1.11262 0.000110724)
(-0.00780406 -0.959399 6.80628e-05)
(-0.00333557 -0.748076 2.90793e-05)
(3.94185e-06 -0.48335 -5.84216e-08)
(0.000602433 -0.169737 -5.27239e-06)
(-0.0166555 -0.871448 0.00014536)
(-0.0335283 -1.06716 0.000292612)
(-0.0409771 -1.18368 0.00035762)
(-0.0449497 -1.22534 0.000392281)
(-0.0457517 -1.20066 0.000399283)
(-0.0448221 -1.11324 0.000391173)
(-0.0395673 -0.965086 0.000345332)
(-0.0313509 -0.757036 0.000273642)
(-0.0177364 -0.49232 0.000154845)
(-0.00464051 -0.17499 4.09876e-05)
(-0.00198726 -0.74791 1.73473e-05)
(-0.0102713 -0.981619 8.96755e-05)
(-0.0328386 -1.12899 0.000286626)
(-0.0621497 -1.18552 0.000542367)
(-0.0948489 -1.17075 0.000827513)
(-0.124884 -1.09401 0.00108916)
(-0.1451 -0.958864 0.00126475)
(-0.149555 -0.765378 0.00130228)
(-0.12189 -0.513917 0.00105913)
(-0.0715852 -0.198077 0.000617586)
(0.237043 -0.833848 -0.00205045)
(0.283685 -0.984643 -0.00234405)
(0.127164 -1.06833 -0.000938597)
(-0.0315061 -1.10635 0.000329937)
(-0.170947 -1.09213 0.00127985)
(-0.291638 -1.02707 0.00193665)
(-0.393849 -0.909939 0.00233011)
(-0.477826 -0.745176 0.00249588)
(-0.495662 -0.524858 0.0020213)
(-0.538125 -0.296815 0.00162533)
(0.000260487 -2.62964 -2.26955e-06)
(0.00608959 -1.40595 -5.31376e-05)
(0.020634 -0.725661 -0.000180088)
(0.00575168 -0.559803 -5.02356e-05)
(-0.00130969 -0.492477 1.13479e-05)
(-0.0260874 -0.431121 0.000227475)
(-0.0235655 -0.376164 0.000205148)
(-0.0313929 -0.329333 0.000272756)
(0.0122848 -0.434133 -0.000110183)
(0.0578905 -1.63908 -0.0005094)
(-0.206594 -0.851878 0.00180303)
(-0.258783 -1.04284 0.00225876)
(-0.120209 -1.1092 0.00104945)
(0.00180071 -1.11366 -1.54273e-05)
(0.134127 -1.08458 -0.00117035)
(0.220049 -1.02089 -0.00192027)
(0.346363 -0.916353 -0.0030227)
(0.379858 -0.78336 -0.00331511)
(0.525548 -0.589802 -0.00458687)
(0.293776 -0.288791 -0.00258899)
(0.00725445 -0.949744 -6.33112e-05)
(0.00604257 -0.991835 -5.27409e-05)
(0.0133078 -1.00681 -0.000116138)
(0.024175 -1.00182 -0.000210966)
(0.0442504 -0.970615 -0.000386168)
(0.0559955 -0.924828 -0.000488678)
(0.0738494 -0.837382 -0.000644551)
(0.0722205 -0.752188 -0.000630413)
(0.0619538 -0.566567 -0.000540982)
(0.0244013 -0.393547 -0.000214734)
(-0.0124148 -0.902504 0.00010835)
(-0.00885351 -1.07059 7.72914e-05)
(0.0169052 -1.15742 -0.00014751)
(0.0405144 -1.18405 -0.000353554)
(0.075158 -1.15829 -0.000655901)
(0.0932913 -1.08726 -0.000814186)
(0.115886 -0.961788 -0.00101141)
(0.105189 -0.787576 -0.00091817)
(0.089949 -0.53697 -0.000785237)
(0.0378031 -0.210124 -0.000333486)
(0.00152183 -0.867085 -1.32808e-05)
(0.0037458 -1.03178 -3.26906e-05)
(0.00921478 -1.11946 -8.04227e-05)
(0.0131265 -1.14672 -0.000114561)
(0.019365 -1.1212 -0.000168998)
(0.0213526 -1.05299 -0.00018635)
(0.0233441 -0.929554 -0.000203742)
(0.0174905 -0.763128 -0.000152707)
(0.00952937 -0.518162 -8.32379e-05)
(0.00248533 -0.213569 -2.20826e-05)
(0.00252679 -0.919821 -2.20524e-05)
(0.0074871 -1.09454 -6.53435e-05)
(0.0157856 -1.18551 -0.00013777)
(0.0216556 -1.21132 -0.000189002)
(0.0297536 -1.18048 -0.000259677)
(0.0322722 -1.09866 -0.000281663)
(0.0343792 -0.96192 -0.000300053)
(0.0272321 -0.771417 -0.000237735)
(0.0174105 -0.516036 -0.000152033)
(0.00584227 -0.194332 -5.15004e-05)
(0.000951635 -0.899529 -8.30606e-06)
(0.00212979 -1.07613 -1.85905e-05)
(0.00408252 -1.16813 -3.56385e-05)
(0.0050863 -1.19425 -4.43954e-05)
(0.00678651 -1.16316 -5.92386e-05)
(0.00679651 -1.08115 -5.93348e-05)
(0.00682934 -0.944708 -5.9593e-05)
(0.00392336 -0.755158 -3.42599e-05)
(0.00131716 -0.502227 -1.15197e-05)
(-0.000387835 -0.187202 3.31643e-06)
(0.0020191 -0.930265 -1.76232e-05)
(0.00432543 -1.10592 -3.77538e-05)
(0.00730722 -1.19605 -6.3776e-05)
(0.00919187 -1.21922 -8.02267e-05)
(0.0113852 -1.18484 -9.93861e-05)
(0.0107597 -1.09764 -9.39305e-05)
(0.0106164 -0.957071 -9.26834e-05)
(0.00783961 -0.761754 -6.84419e-05)
(0.00478367 -0.506991 -4.17722e-05)
(0.0013358 -0.188777 -1.17277e-05)
(0.000530627 -0.920952 -4.63336e-06)
(0.000911383 -1.0969 -7.95858e-06)
(0.00162685 -1.1872 -1.42024e-05)
(0.00208684 -1.21043 -1.82162e-05)
(0.00280975 -1.17622 -2.45352e-05)
(0.00174328 -1.08891 -1.52286e-05)
(0.00161949 -0.947904 -1.41495e-05)
(0.000509573 -0.752449 -4.45198e-06)
(0.000148694 -0.498171 -1.3022e-06)
(-0.000492961 -0.18299 4.28614e-06)
(0.000854247 -0.935396 -7.45777e-06)
(0.00181642 -1.11028 -1.58576e-05)
(0.00307506 -1.19952 -2.68412e-05)
(0.00394534 -1.22132 -3.44371e-05)
(0.00495342 -1.18569 -4.32456e-05)
(0.00406827 -1.09655 -3.55197e-05)
(0.00389859 -0.954208 -3.40396e-05)
(0.00269257 -0.757239 -2.35092e-05)
(0.00185507 -0.502659 -1.6202e-05)
(0.000357181 -0.186118 -3.11899e-06)
(0.000101569 -0.930113 -8.88832e-07)
(0.000300669 -1.10573 -2.62806e-06)
(0.000781294 -1.19531 -6.82132e-06)
(0.00111016 -1.21698 -9.68926e-06)
(0.00168646 -1.1812 -1.47307e-05)
(0.000766941 -1.09163 -6.70453e-06)
(0.000772555 -0.948992 -6.75306e-06)
(0.00012221 -0.751743 -1.07047e-06)
(0.000113338 -0.497274 -9.92581e-07)
(-0.000371495 -0.18224 3.23363e-06)
(0.000336585 -0.936822 -2.93899e-06)
(0.000886952 -1.11237 -7.7451e-06)
(0.00169076 -1.20158 -1.47486e-05)
(0.00246776 -1.22258 -2.15354e-05)
(0.00311556 -1.18601 -2.71979e-05)
(0.00234797 -1.09554 -2.05039e-05)
(0.00212889 -0.952306 -1.85909e-05)
(0.00136832 -0.754633 -1.19472e-05)
(0.000983908 -0.500172 -8.59392e-06)
(0.000119764 -0.184481 -1.04118e-06)
(7.46805e-05 -0.934593 -6.53057e-07)
(0.000357959 -1.11077 -3.12583e-06)
(0.000883718 -1.20008 -7.70063e-06)
(0.00144717 -1.2207 -1.26322e-05)
(0.00198948 -1.18385 -1.73674e-05)
(0.00123205 -1.09289 -1.07583e-05)
(0.00097734 -0.949361 -8.53826e-06)
(0.000377673 -0.751399 -3.29893e-06)
(0.000206001 -0.497006 -1.80138e-06)
(-0.00023225 -0.182265 2.01563e-06)
(0.00031936 -0.938669 -2.78851e-06)
(0.000975547 -1.11513 -8.51716e-06)
(0.00182038 -1.20427 -1.58937e-05)
(0.00233974 -1.22425 -2.04278e-05)
(0.00258171 -1.18665 -2.2541e-05)
(0.00215141 -1.09497 -1.87852e-05)
(0.00179125 -0.950918 -1.56408e-05)
(0.0011416 -0.752767 -9.96968e-06)
(0.000625027 -0.498435 -5.46107e-06)
(5.99197e-05 -0.183512 -5.30116e-07)
(0.000253117 -0.938862 -2.21072e-06)
(0.000923824 -1.11596 -8.0656e-06)
(0.00176109 -1.20505 -1.53747e-05)
(0.00218842 -1.22464 -1.91053e-05)
(0.00237735 -1.18614 -2.07553e-05)
(0.00186152 -1.09384 -1.62528e-05)
(0.00138841 -0.949099 -1.21241e-05)
(0.0007135 -0.750773 -6.23342e-06)
(0.000224672 -0.496429 -1.96619e-06)
(-0.000147288 -0.182248 1.26274e-06)
(0.000537291 -0.942546 -4.69087e-06)
(0.00158897 -1.12019 -1.38709e-05)
(0.00268454 -1.20891 -2.34342e-05)
(0.00318956 -1.22752 -2.78442e-05)
(0.00325065 -1.18798 -2.83781e-05)
(0.00286106 -1.09478 -2.49782e-05)
(0.00215278 -0.949467 -1.87961e-05)
(0.00125789 -0.750882 -1.0987e-05)
(0.000549268 -0.496572 -4.80261e-06)
(3.94639e-05 -0.182483 -3.53809e-07)
(0.000733431 -0.945826 -6.40266e-06)
(0.00198002 -1.12378 -1.72842e-05)
(0.00310078 -1.21176 -2.70675e-05)
(0.00349385 -1.22916 -3.05005e-05)
(0.00335712 -1.18841 -2.93078e-05)
(0.00280312 -1.09429 -2.44728e-05)
(0.00197625 -0.948588 -1.72569e-05)
(0.00107592 -0.749746 -9.40163e-06)
(0.000371654 -0.495653 -3.25213e-06)
(-6.79502e-05 -0.182248 5.39971e-07)
(0.00124607 -0.951468 -1.08763e-05)
(0.0029321 -1.1292 -2.55938e-05)
(0.00415328 -1.21584 -3.62545e-05)
(0.00440278 -1.23152 -3.84351e-05)
(0.0040838 -1.18927 -3.56522e-05)
(0.00330354 -1.09386 -2.88413e-05)
(0.00239108 -0.947354 -2.08737e-05)
(0.00165543 -0.747802 -1.44573e-05)
(0.000737308 -0.493566 -6.43846e-06)
(0.000200209 -0.180366 -1.80604e-06)
(0.00171781 -0.959735 -1.49935e-05)
(0.00358521 -1.13615 -3.12934e-05)
(0.00455162 -1.22046 -3.9731e-05)
(0.00452285 -1.23407 -3.9482e-05)
(0.00408314 -1.19044 -3.56455e-05)
(0.00323277 -1.09388 -2.82264e-05)
(0.00234301 -0.947715 -2.04525e-05)
(0.00163167 -0.747852 -1.42354e-05)
(0.000374486 -0.494324 -3.25511e-06)
(1.01189e-05 -0.18166 -1.05792e-07)
(0.00244751 -0.969383 -2.13611e-05)
(0.00467503 -1.14295 -4.08021e-05)
(0.00553546 -1.22396 -4.83186e-05)
(0.00464567 -1.23502 -4.05515e-05)
(0.00453812 -1.19 -3.96232e-05)
(0.00274543 -1.09283 -2.39708e-05)
(0.00185001 -0.946294 -1.61665e-05)
(0.00229472 -0.746191 -2.00389e-05)
(0.000442011 -0.49253 -3.86902e-06)
(0.000396948 -0.180311 -3.47503e-06)
(0.00301499 -0.984316 -2.63143e-05)
(0.00499906 -1.15234 -4.36312e-05)
(0.00492883 -1.22875 -4.30259e-05)
(0.00313687 -1.23709 -2.73804e-05)
(0.00272829 -1.19032 -2.38244e-05)
(0.00113734 -1.09369 -9.93757e-06)
(0.000731561 -0.94616 -6.40924e-06)
(0.00157706 -0.746287 -1.37706e-05)
(-0.000166459 -0.492114 1.45408e-06)