/*--------------------------------*- C++ -*----------------------------------*\
| =========                 |                                                 |
| \\      /  F ield         | OpenFOAM: The Open Source CFD Toolbox           |
|  \\    /   O peration     | Version:  v2012                                 |
|   \\  /    A nd           | Website:  www.openfoam.com                      |
|    \\/     M anipulation  |                                                 |
\*---------------------------------------------------------------------------*/
FoamFile
{
    version     2.0;
    format      ascii;
    class       surfaceScalarField;
    location    "0.65";
    object      alphaPhi0.water;
}
// * * * * * * * * * * * * * * * * * * * * * * * * * * * * * * * * * * * * * //

dimensions      [0 3 -1 0 0 0 0];
oriented        oriented;


internalField   nonuniform List<scalar> 
8162
(
-2.01544e-45
-4.36802e-35
-1.11652e-42
-2.74634e-53
-1.901e-44
-4.61546e-52
-1.29887e-59
-2.36716e-52
-5.30682e-60
-3.2054e-66
-1.01679e-58
-2.21294e-66
-2.99923e-81
-2.34807e-65
-4.77235e-73
-3.33828e-84
-1.90208e-80
-3.82223e-88
-1.1493e-87
-2.06093e-83
-1.8504e-91
-1.74898e-91
-6.61331e-87
-5.14145e-95
-7.47973e-95
-9.26787e-91
-1.04116e-98
-3.08515e-98
-3.71251e-94
-4.09925e-102
-8.33881e-103
-1.3594e-97
-1.10539e-105
-1.80414e-106
-3.48134e-102
-6.96646e-110
-8.86634e-112
-7.69947e-106
-8.90511e-114
-2.25527e-117
-2.77596e-111
-5.87894e-119
-9.89673e-124
-7.61761e-117
-1.93593e-124
-1.68615e-131
-2.51288e-123
-4.66629e-131
-1.2973e-142
-3.89155e-131
-7.83005e-139
-1.0237e-156
-2.65876e-142
-5.56434e-150
-2.96878e-167
-2.15934e-156
-4.07388e-164
-5.11457e-167
-1.07348e-174
-2.30095e-28
-3.26051e-20
-1.00305e-27
-5.53463e-36
-2.67054e-27
-7.14952e-35
-2.65438e-45
-5.20282e-35
-1.43784e-42
-3.63775e-53
-2.27161e-44
-5.89347e-52
-1.68011e-59
-2.87002e-52
-6.82756e-60
-4.29641e-66
-1.2105e-58
-2.7521e-66
-5.11932e-81
-2.91486e-65
-6.14839e-73
-4.34994e-84
-2.51217e-80
-6.28914e-88
-1.52686e-87
-2.51439e-83
-2.30808e-91
-2.30549e-91
-8.2716e-87
-6.58383e-95
-1.01846e-94
-1.15357e-90
-1.32073e-98
-3.87551e-98
-4.77388e-94
-5.3342e-102
-1.16608e-102
-1.61049e-97
-1.47543e-105
-3.11035e-106
-4.68246e-102
-8.16797e-110
-1.01143e-111
-1.21578e-105
-1.59098e-113
-3.8667e-117
-2.98923e-111
-6.72583e-119
-1.23882e-123
-1.20218e-116
-2.92415e-124
-2.41367e-131
-2.90879e-123
-6.37398e-131
-2.23192e-142
-5.0175e-131
-1.05055e-138
-1.90006e-156
-4.02364e-142
-9.2655e-150
-6.86632e-167
-3.93036e-156
-7.29856e-164
-1.16186e-166
-2.40334e-174
2.32374e-11
-7.50167e-09
3.18265e-15
-1.60118e-11
-2.34114e-08
2.853e-16
-1.14472e-09
-3.21349e-08
-2.78031e-14
-2.45531e-09
-2.1552e-08
1.99509e-14
-4.23316e-09
-2.98178e-08
-5.90115e-15
-6.27028e-09
-5.90728e-08
-2.86004e-14
-5.63349e-09
-1.08539e-07
-1.53386e-14
-4.01122e-09
-1.47938e-07
-2.53809e-14
-1.56912e-09
-1.57866e-07
-1.29489e-14
-1.47042e-07
-1.26861e-14
-8.85586e-10
-5.05068e-08
-2.06383e-15
-5.557e-11
-1.1169e-08
-6.82982e-16
-5.08671e-14
-6.2263e-10
-3.24629e-17
-8.08153e-18
-7.5416e-13
-3.34114e-20
-3.57226e-21
-9.45515e-17
-3.89274e-24
-3.90222e-28
-3.66921e-20
-1.35547e-27
-7.29552e-36
-4.09011e-27
-1.1963e-34
-3.49057e-45
-6.24629e-35
-1.87718e-42
-4.8332e-53
-2.73995e-44
-7.64011e-52
-2.17697e-59
-3.52258e-52
-8.93251e-60
-5.77842e-66
-1.45515e-58
-3.46951e-66
-4.71625e-81
-3.65512e-65
-7.98053e-73
-5.70837e-84
-3.05603e-80
-5.55158e-88
-2.04983e-87
-3.10561e-83
-2.86807e-91
-3.06761e-91
-1.05013e-86
-8.46321e-95
-1.38973e-94
-1.45536e-90
-1.68623e-98
-4.83982e-98
-6.17315e-94
-6.9378e-102
-1.68374e-102
-1.90471e-97
-1.95839e-105
-4.93477e-106
-6.52095e-102
-9.63434e-110
-1.1425e-111
-1.78082e-105
-2.59619e-113
-6.10237e-117
-3.21602e-111
-7.63975e-119
-1.47733e-123
-1.75493e-116
-4.0435e-124
-3.14546e-131
-3.2583e-123
-8.19856e-131
-3.31688e-142
-6.0399e-131
-1.32855e-138
-3.59441e-156
-5.38681e-142
-1.34114e-149
-1.61799e-166
-7.29574e-156
-1.34228e-163
-2.69325e-166
-5.51815e-174
2.03321e-11
-7.52198e-09
-1.90837e-15
1.74069e-11
-2.34085e-08
1.56693e-15
-2.99258e-10
-3.18183e-08
-2.51568e-14
2.73185e-10
-2.21245e-08
1.24523e-14
3.23734e-10
-2.98684e-08
-1.97113e-14
-1.11181e-10
-5.86379e-08
-6.06589e-14
1.41417e-09
-1.10065e-07
-3.65272e-14
2.02203e-09
-1.48542e-07
-2.84848e-14
2.6648e-09
-1.58395e-07
-1.11409e-14
2.21078e-09
-1.46482e-07
-1.68486e-14
-4.02964e-10
-1.03181e-07
2.5409e-14
-2.14933e-09
-6.97769e-08
-2.54458e-15
-9.82494e-10
-4.90327e-08
-2.16872e-15
-6.32233e-11
-1.09391e-08
-6.40859e-16
-7.40079e-14
-6.25129e-10
-3.27218e-17
-9.98532e-18
-9.81778e-13
-4.64345e-20
-4.42622e-21
-1.05531e-16
-4.60862e-24
-6.53215e-28
-4.13655e-20
-1.64601e-27
-9.57161e-36
-6.25434e-27
-1.94871e-34
-4.58273e-45
-7.55137e-35
-2.35909e-42
-6.43833e-53
-3.33264e-44
-9.41833e-52
-2.82472e-59
-4.37204e-52
-1.1126e-59
-7.79136e-66
-1.76489e-58
-4.22143e-66
-7.00187e-81
-4.62421e-65
-1.01728e-72
-7.54155e-84
-3.85931e-80
-7.87986e-88
-2.77888e-87
-3.88125e-83
-3.60873e-91
-4.11949e-91
-1.35199e-86
-1.1038e-94
-1.89938e-94
-1.86059e-90
-2.18438e-98
-6.02178e-98
-8.02348e-94
-9.06159e-102
-2.50546e-102
-2.25416e-97
-2.57741e-105
-7.30402e-106
-9.37287e-102
-1.15234e-109
-1.30257e-111
-2.4519e-105
-3.91993e-113
-8.96762e-117
-3.54026e-111
-8.7429e-119
-1.74097e-123
-2.40206e-116
-5.20763e-124
-3.96523e-131
-3.68614e-123
-1.02383e-130
-4.59209e-142
-7.26896e-131
-1.70875e-138
-6.91958e-156
-7.01252e-142
-1.81464e-149
-3.88086e-166
-1.37755e-155
-2.52163e-163
-6.36356e-166
-1.2941e-173
1.71376e-11
-7.53911e-09
-6.60439e-16
4.13429e-11
-2.34327e-08
-1.43567e-17
2.80363e-10
-3.20573e-08
-2.1191e-14
2.29512e-09
-2.41392e-08
1.54403e-15
3.77744e-09
-3.13507e-08
-2.5488e-14
5.41082e-09
-6.02713e-08
-6.60366e-14
8.10506e-09
-1.12759e-07
-1.93469e-14
7.94939e-09
-1.48381e-07
-1.88673e-14
6.66694e-09
-1.56974e-07
-1.55243e-14
4.06206e-09
-1.43772e-07
-1.84387e-14
-1.23596e-10
-9.8957e-08
3.83758e-15
-2.2456e-09
-6.71717e-08
-1.0828e-15
-1.05733e-09
-4.73894e-08
-2.14409e-15
-7.02176e-11
-1.0672e-08
-6.49331e-16
-1.04811e-13
-6.2629e-10
-3.4497e-17
-1.21258e-17
-1.26691e-12
-6.20295e-20
-5.41474e-21
-1.17644e-16
-4.88693e-24
-1.07491e-27
-4.66841e-20
-1.79158e-27
-1.25015e-35
-9.49949e-27
-2.85208e-34
-6.00605e-45
-9.18383e-35
-2.81103e-42
-8.5946e-53
-4.08341e-44
-1.15801e-51
-3.66907e-59
-5.48071e-52
-1.41545e-59
-1.05229e-65
-2.15788e-58
-5.26866e-66
-8.96624e-81
-5.89492e-65
-1.3231e-72
-1.00269e-83
-4.8782e-80
-9.70536e-88
-3.80078e-87
-4.905e-83
-4.56472e-91
-5.58236e-91
-1.7632e-86
-1.44778e-94
-2.59945e-94
-2.4096e-90
-2.84665e-98
-7.48691e-98
-1.04791e-93
-1.18133e-101
-3.82424e-102
-2.6782e-97
-3.36849e-105
-1.02011e-105
-1.38252e-101
-1.41252e-109
-1.55712e-111
-3.20657e-105
-5.54384e-113
-1.2448e-116
-4.19788e-111
-1.03632e-118
-2.16333e-123
-3.13006e-116
-6.35577e-124
-5.3027e-131
-4.61186e-123
-1.29679e-130
-6.67339e-142
-9.92159e-131
-2.58383e-138
-1.35216e-155
-1.04489e-141
-2.5822e-149
-9.4651e-166
-2.63903e-155
-4.81625e-163
-3.26727e-173
-1.53063e-165
-3.08545e-173
-3.91855e-173
-9.90414e-181
1.34243e-11
-7.55251e-09
-7.80848e-16
3.14959e-11
-2.34508e-08
-1.24344e-15
4.52654e-10
-3.24785e-08
-2.22768e-14
2.80085e-09
-2.64874e-08
-2.59797e-15
4.88137e-09
-3.34313e-08
-2.45047e-14
8.81501e-09
-6.4205e-08
-2.23698e-14
1.27667e-08
-1.1671e-07
-8.43711e-15
1.20265e-08
-1.47632e-07
-1.44961e-14
9.17442e-09
-1.53961e-07
-2.19721e-14
4.99284e-09
-1.39484e-07
-2.72635e-14
-1.37828e-10
-9.37874e-08
-9.41561e-15
-2.33589e-09
-6.44111e-08
-2.03627e-16
-1.11421e-09
-4.55615e-08
-1.91641e-15
-7.65069e-11
-1.03791e-08
-6.34492e-16
-1.44869e-13
-6.25747e-10
-3.4e-17
-1.45119e-17
-1.61905e-12
-7.57241e-20
-6.54797e-21
-1.31024e-16
-5.0715e-24
-1.73367e-27
-5.27035e-20
-1.99403e-27
-1.62575e-35
-1.42739e-26
-4.0759e-34
-7.85625e-45
-1.12251e-34
-3.28666e-42
-1.14907e-52
-5.035e-44
-1.38981e-51
-4.76919e-59
-6.93065e-52
-1.76526e-59
-1.42233e-65
-2.65738e-58
-6.46287e-66
-1.09076e-80
-7.5626e-65
-1.7037e-72
-1.34109e-83
-6.10613e-80
-1.13006e-87
-5.2397e-87
-6.2641e-83
-5.81422e-91
-7.63192e-91
-2.32649e-86
-1.92104e-94
-3.56239e-94
-3.15991e-90
-3.75768e-98
-9.34111e-98
-1.37526e-93
-1.54474e-101
-5.94809e-102
-3.20976e-97
-4.3816e-105
-1.35648e-105
-2.07755e-101
-1.80847e-109
-2.11856e-111
-4.01526e-105
-7.42416e-113
-1.65919e-116
-5.96573e-111
-1.34099e-118
-3.3119e-123
-3.9519e-116
-7.49639e-124
-9.0907e-131
-7.89971e-123
-1.79939e-130
-1.27309e-141
-1.95706e-130
-5.64228e-138
-2.67553e-155
-2.3474e-141
-4.83317e-149
-2.34446e-165
-5.12305e-155
-9.32964e-163
-1.32362e-172
-3.74243e-165
-7.49081e-173
-1.57982e-172
-3.91229e-180
9.47254e-12
-7.56198e-09
-2.07284e-15
-9.77203e-13
-2.34404e-08
2.05779e-15
3.48702e-10
-3.28281e-08
-1.00534e-14
2.0548e-09
-2.81935e-08
-2.82852e-14
4.32345e-09
-3.57e-08
-3.74291e-14
1.04221e-08
-7.03037e-08
-1.09201e-14
1.49783e-08
-1.21267e-07
3.9752e-16
1.36376e-08
-1.46278e-07
-2.18622e-14
9.80526e-09
-1.49943e-07
-2.39619e-14
4.87432e-09
-1.34456e-07
-3.84479e-14
-4.46312e-10
-8.84263e-08
-1.40894e-14
-2.45651e-09
-6.17693e-08
-1.03489e-15
-1.15793e-09
-4.359e-08
-2.82746e-15
-8.20469e-11
-1.00636e-08
-6.55574e-16
-1.9581e-13
-6.23317e-10
-3.87955e-17
-1.71607e-17
-2.04761e-12
-1.17849e-19
-7.83465e-21
-1.45891e-16
-6.50745e-24
-2.73484e-27
-5.94719e-20
-2.78646e-27
-2.10528e-35
-2.11526e-26
-6.99294e-34
-1.02549e-44
-1.3776e-34
-4.48633e-42
-1.53776e-52
-6.24134e-44
-1.84845e-51
-6.20158e-59
-8.82965e-52
-2.3689e-59
-1.92245e-65
-3.29325e-58
-8.35513e-66
-1.73401e-80
-9.75157e-65
-2.26756e-72
-1.80369e-83
-8.02748e-80
-1.75563e-87
-7.2731e-87
-8.07844e-83
-7.50636e-91
-1.05241e-90
-3.10175e-86
-2.57025e-94
-4.89017e-94
-4.19408e-90
-4.99603e-98
-1.17677e-97
-1.81406e-93
-2.01748e-101
-9.35761e-102
-3.90767e-97
-5.66034e-105
-1.72959e-105
-3.1565e-101
-2.47077e-109
-3.69543e-111
-4.8446e-105
-9.48421e-113
-2.16762e-116
-1.13451e-110
-2.04882e-118
-7.6004e-123
-4.94779e-116
-8.76878e-124
-2.33355e-130
-2.08633e-122
-3.08884e-130
-3.67074e-141
-5.64267e-130
-1.61613e-137
-5.3553e-155
-7.4816e-141
-1.36934e-148
-5.88965e-165
-1.00888e-154
-1.82945e-162
-5.43259e-172
-9.28731e-165
-1.84599e-172
-7.12486e-177
-6.45379e-172
-1.56879e-179
5.25795e-178
-3.30591e-188
5.85856e-12
-7.56781e-09
4.25391e-19
-3.25402e-11
-2.3402e-08
-2.43256e-15
1.46663e-10
-3.30073e-08
-1.00086e-14
1.01619e-09
-2.9063e-08
-4.05089e-14
3.89066e-09
-3.85745e-08
-1.98429e-14
1.12849e-08
-7.76979e-08
-1.24339e-14
1.54384e-08
-1.2542e-07
-1.91777e-14
1.3432e-08
-1.44254e-07
-8.10077e-15
9.11552e-09
-1.45417e-07
-2.64677e-14
4.14118e-09
-1.29384e-07
-3.86844e-14
-8.64207e-10
-8.33777e-08
-1.09328e-14
-2.60004e-09
-5.93343e-08
5.91871e-16
-1.19166e-09
-4.1563e-08
-2.86056e-15
-8.67867e-11
-9.73452e-09
-6.03555e-16
-2.59196e-13
-6.18855e-10
-3.6319e-17
-2.01062e-17
-2.56132e-12
-1.44765e-19
-9.28123e-21
-1.62613e-16
-6.89732e-24
-4.21372e-27
-6.70255e-20
-3.13859e-27
-2.71499e-35
-3.08435e-26
-1.03069e-33
-1.3356e-44
-1.696e-34
-5.62768e-42
-2.0587e-52
-7.77035e-44
-2.35358e-51
-8.06518e-59
-1.13188e-51
-3.09695e-59
-2.59641e-65
-4.10383e-58
-1.05801e-65
-2.40931e-80
-1.26232e-64
-2.97059e-72
-2.43846e-83
-1.06564e-79
-2.36825e-87
-1.01544e-86
-1.05134e-82
-9.70666e-91
-1.46335e-90
-4.17292e-86
-3.46506e-94
-6.7281e-94
-5.63129e-90
-6.71873e-98
-1.51035e-97
-2.40633e-93
-2.64607e-101
-1.47856e-101
-4.88199e-97
-7.29951e-105
-2.12752e-105
-4.8156e-101
-3.68422e-109
-8.38268e-111
-5.66406e-105
-1.16416e-112
-2.85917e-116
-2.70142e-110
-3.87266e-118
-2.25011e-122
-6.36548e-116
-1.06486e-123
-6.94986e-130
-6.18027e-122
-6.96447e-130
-1.15382e-140
-1.60657e-129
-4.32682e-137
-1.08527e-154
-2.16108e-140
-4.2343e-148
-1.49847e-164
-2.02215e-154
-3.63456e-162
-2.25216e-171
-2.33608e-164
-4.61062e-172
-3.00178e-177
-2.66538e-171
-6.36801e-179
1.97267e-178
-1.35442e-188
2.74583e-12
-7.57054e-09
-4.31353e-15
-4.84878e-11
-2.33508e-08
5.90835e-15
-7.56445e-11
-3.29802e-08
-6.11488e-16
3.85744e-10
-2.95243e-08
-3.49315e-14
4.45272e-09
-4.26416e-08
1.03888e-14
1.18521e-08
-8.50972e-08
-9.06356e-15
1.49796e-08
-1.28547e-07
-2.55106e-14
1.2341e-08
-1.41592e-07
-4.74848e-15
7.87552e-09
-1.40718e-07
-2.88863e-14
3.26081e-09
-1.24677e-07
-4.40973e-14
-1.25801e-09
-7.8813e-08
-1.15648e-14
-2.74346e-09
-5.70787e-08
2.96733e-17
-1.21677e-09
-3.95527e-08
-2.98223e-15
-9.0689e-11
-9.38937e-09
-6.03851e-16
-3.3644e-13
-6.12131e-10
-3.50082e-17
-2.34131e-17
-3.16761e-12
-1.81221e-19
-1.0891e-20
-1.8179e-16
-7.49164e-24
-6.33607e-27
-7.53809e-20
-3.44759e-27
-3.48711e-35
-4.41792e-26
-1.4246e-33
-1.73535e-44
-2.09285e-34
-6.72918e-42
-2.75561e-52
-9.70727e-44
-2.89897e-51
-1.04881e-58
-1.45817e-51
-3.98752e-59
-3.50156e-65
-5.13843e-58
-1.3418e-65
-4.09301e-80
-1.6386e-64
-3.91286e-72
-3.31261e-83
-1.50546e-79
-3.48665e-87
-1.42451e-86
-1.3798e-82
-1.26644e-90
-2.05114e-90
-5.6576e-86
-4.69967e-94
-9.28661e-94
-7.64442e-90
-9.09896e-98
-1.99975e-97
-3.21274e-93
-3.47476e-101
-2.33251e-101
-6.34673e-97
-9.39303e-105
-2.54048e-105
-7.33648e-101
-6.02053e-109
-2.10857e-110
-6.45807e-105
-1.38007e-112
-3.99457e-116
-6.63778e-110
-8.48169e-118
-6.21737e-122
-8.92927e-116
-1.48401e-123
-1.78158e-129
-1.55906e-121
-1.7943e-129
-2.99032e-140
-3.66529e-129
-9.3701e-137
-2.23877e-154
-4.86699e-140
-1.08038e-147
-3.85641e-164
-4.14813e-154
-7.32546e-162
-9.41164e-171
-5.95018e-164
-1.16468e-171
-1.22199e-177
-1.11064e-170
-2.60409e-178
7.0301e-179
-5.4364e-189
2.49331e-14
-7.57056e-09
-1.26798e-15
-5.02859e-11
-2.33005e-08
-1.01679e-15
-3.20293e-10
-3.27102e-08
3.58033e-15
2.15958e-10
-3.00605e-08
-2.47743e-14
5.50097e-09
-4.79266e-08
5.72445e-15
1.20464e-08
-9.16427e-08
-2.31647e-15
1.40514e-08
-1.30552e-07
-1.82329e-14
1.09452e-08
-1.38456e-07
-2.27977e-14
6.55222e-09
-1.36069e-07
-3.02492e-14
2.46003e-09
-1.20501e-07
-4.52889e-14
-1.58614e-09
-7.47171e-08
-9.16762e-15
-2.87023e-09
-5.49492e-08
-2.19342e-15
-1.2321e-09
-3.75803e-08
-3.06948e-15
-9.37769e-11
-9.00562e-09
-6.05122e-16
-4.28765e-13
-6.02932e-10
-3.59001e-17
-2.71987e-17
-3.87189e-12
-2.31313e-19
-1.26637e-20
-2.04391e-16
-8.89234e-24
-9.29546e-27
-8.45284e-20
-4.04346e-27
-4.46107e-35
-6.20942e-26
-2.11774e-33
-2.24921e-44
-2.58654e-34
-8.71555e-42
-3.68581e-52
-1.21587e-43
-3.77105e-51
-1.36365e-58
-1.88569e-51
-5.29326e-59
-4.71275e-65
-6.4607e-58
-1.71955e-65
-2.84007e-80
-2.1308e-64
-5.14393e-72
-4.52065e-83
-1.79239e-79
-2.66617e-87
-2.00597e-86
-1.82505e-82
-1.66275e-90
-2.89727e-90
-7.72037e-86
-6.42373e-94
-1.28763e-93
-1.04855e-89
-1.24688e-97
-2.77498e-97
-4.32271e-93
-4.60031e-101
-3.65778e-101
-8.73052e-97
-1.21553e-104
-2.96885e-105
-1.11177e-100
-1.06067e-108
-5.04552e-110
-7.24664e-105
-1.59228e-112
-6.35756e-116
-1.49087e-109
-1.90273e-117
-1.41628e-121
-1.48311e-115
-2.79615e-123
-3.68243e-129
-3.186e-121
-4.40015e-129
-6.412e-140
-6.73091e-129
-1.66143e-136
-4.69705e-154
-9.34049e-140
-2.2815e-147
-1.00307e-163
-8.74732e-154
-1.52116e-161
-3.95785e-170
-1.53406e-163
-2.97279e-171
-4.80324e-178
-4.66113e-170
-1.0709e-177
2.36729e-179
-2.11231e-189
-2.46769e-12
-7.56809e-09
5.66142e-16
-4.64448e-11
-2.32565e-08
5.54059e-16
-5.45047e-10
-3.22116e-08
1.05181e-14
3.37643e-10
-3.09432e-08
-1.40316e-14
6.31069e-09
-5.38997e-08
-1.24729e-14
1.17585e-08
-9.70905e-08
-1.50224e-14
1.28206e-08
-1.31614e-07
-2.21578e-14
9.4833e-09
-1.35081e-07
-1.15044e-14
5.31629e-09
-1.31623e-07
-3.32178e-14
1.78463e-09
-1.16887e-07
-4.23818e-14
-1.85503e-09
-7.1023e-08
-1.65839e-14
-2.97257e-09
-5.2904e-08
-1.94415e-15
-1.23421e-09
-3.56435e-08
-2.65439e-15
-9.61419e-11
-8.57203e-09
-5.72877e-16
-5.3714e-13
-5.91295e-10
-3.33125e-17
-3.16628e-17
-4.67693e-12
-2.59658e-19
-1.45942e-20
-2.31966e-16
-1.01561e-23
-1.3307e-26
-9.44241e-20
-4.54518e-27
-5.68499e-35
-8.55828e-26
-2.92487e-33
-2.9079e-44
-3.19931e-34
-1.07197e-41
-4.92409e-52
-1.52574e-43
-4.69089e-51
-1.77271e-58
-2.44514e-51
-6.80693e-59
-6.32712e-65
-8.15307e-58
-2.16923e-65
-9.25357e-80
-2.77325e-64
-6.72242e-72
-6.1959e-83
-2.75743e-79
-8.47988e-87
-2.83296e-86
-2.4315e-82
-2.18615e-90
-4.1227e-90
-1.05914e-85
-8.78891e-94
-1.79652e-93
-1.45238e-89
-1.71709e-97
-4.10268e-97
-5.87096e-93
-6.12082e-101
-5.68602e-101
-1.29043e-96
-1.58472e-104
-3.43888e-105
-1.67192e-100
-1.9412e-108
-1.08e-109
-8.12651e-105
-1.80336e-112
-1.22985e-115
-2.96427e-109
-4.01939e-117
-2.6749e-121
-3.04356e-115
-7.2377e-123
-6.40837e-129
-5.4484e-121
-9.49806e-129
-1.30104e-139
-1.06282e-128
-2.55713e-136
-1.02943e-153
-1.84302e-139
-4.56008e-147
-2.63624e-163
-1.90875e-153
-3.22781e-161
-1.67239e-169
-4.0037e-163
-7.66427e-171
-1.8206e-178
-1.96711e-169
-4.4226e-177
7.4693e-180
-7.90769e-190
-4.42617e-12
-7.56367e-09
5.6739e-15
-4.12891e-11
-2.32197e-08
-6.4325e-15
-6.40207e-10
-3.16127e-08
5.96001e-15
7.88528e-10
-3.23719e-08
-1.68225e-14
6.76026e-09
-5.98714e-08
-1.7371e-14
1.11483e-08
-1.01478e-07
-1.51214e-15
1.14713e-08
-1.31937e-07
-5.58629e-15
8.0915e-09
-1.31655e-07
-2.46131e-14
4.23711e-09
-1.27468e-07
-3.56564e-14
1.23061e-09
-1.13791e-07
-4.18744e-14
-2.08224e-09
-6.76496e-08
-1.16677e-14
-3.04947e-09
-5.09158e-08
-3.65856e-15
-1.22387e-09
-3.37432e-08
-2.70447e-15
-9.78402e-11
-8.12003e-09
-5.65201e-16
-6.62269e-13
-5.77543e-10
-3.37306e-17
-3.71342e-17
-5.58253e-12
-3.17547e-19
-1.66725e-20
-2.66956e-16
-1.19888e-23
-1.85981e-26
-1.04984e-19
-5.12819e-27
-7.21755e-35
-1.15643e-25
-4.05326e-33
-3.75002e-44
-3.95795e-34
-1.34966e-41
-6.56763e-52
-1.91685e-43
-5.98068e-51
-2.3044e-58
-3.17591e-51
-8.95777e-59
-8.47036e-65
-1.03229e-57
-2.78278e-65
-4.25661e-80
-3.60972e-64
-8.88156e-72
-8.52732e-83
-3.17713e-79
-3.83821e-87
-4.00937e-86
-3.26139e-82
-2.90949e-90
-5.90767e-90
-1.45923e-85
-1.21527e-93
-2.52757e-93
-2.03018e-89
-2.39882e-97
-6.53128e-97
-8.06522e-93
-8.27594e-101
-8.75064e-101
-2.06221e-96
-2.10723e-104
-4.0424e-105
-2.49284e-100
-3.57169e-108
-2.05548e-109
-9.39077e-105
-2.03962e-112
-2.81286e-115
-5.25415e-109
-7.76184e-117
-4.35743e-121
-7.13648e-115
-2.02854e-122
-1.0107e-128
-8.15774e-121
-1.80217e-128
-3.09192e-139
-1.5705e-128
-3.68035e-136
-2.32126e-153
-4.87181e-139
-1.06733e-146
-7.00229e-163
-4.2856e-153
-7.30742e-161
-7.09163e-169
-1.05791e-162
-1.99631e-170
-6.65634e-179
-8.33639e-169
-1.83206e-176
2.18293e-180
-2.85448e-190
-5.54214e-12
-7.55814e-09
5.06383e-15
-3.38846e-11
-2.31913e-08
-3.43699e-15
-5.30076e-10
-3.11165e-08
-2.36042e-15
1.63185e-09
-3.45339e-08
-1.80757e-14
7.09155e-09
-6.53311e-08
-1.53071e-14
1.05276e-08
-1.04915e-07
1.28987e-15
1.02338e-08
-1.31643e-07
-7.89898e-15
6.89257e-09
-1.28257e-07
-2.90108e-14
3.35872e-09
-1.23611e-07
-3.2462e-14
7.75488e-10
-1.11121e-07
-2.95268e-14
-2.2854e-09
-6.45209e-08
-1.37548e-14
-3.10417e-09
-4.89681e-08
-4.53592e-15
-1.2063e-09
-3.18776e-08
-2.55301e-15
-9.88834e-11
-7.67115e-09
-5.27886e-16
-8.04651e-13
-5.61766e-10
-3.26186e-17
-4.41406e-17
-6.58592e-12
-3.67725e-19
-1.88825e-20
-3.13174e-16
-1.40391e-23
-2.53965e-26
-1.16077e-19
-5.65432e-27
-9.13032e-35
-1.53208e-25
-5.41351e-33
-4.82405e-44
-4.89458e-34
-1.67826e-41
-8.74208e-52
-2.40967e-43
-7.55411e-51
-2.99618e-58
-4.1282e-51
-1.17265e-58
-1.13047e-64
-1.3111e-57
-3.56438e-65
-1.90414e-79
-4.69588e-64
-1.16843e-71
-1.17837e-82
-5.07263e-79
-1.69195e-86
-5.68265e-86
-4.40228e-82
-3.87396e-90
-8.52176e-90
-2.01725e-85
-1.6771e-93
-3.59474e-93
-2.86202e-89
-3.36328e-97
-1.11645e-96
-1.1233e-92
-1.1327e-100
-1.33337e-100
-3.52957e-96
-2.86771e-104
-5.07511e-105
-3.68674e-100
-6.43254e-108
-3.52508e-109
-1.1994e-104
-2.37386e-112
-6.75858e-115
-8.44625e-109
-1.36904e-116
-6.39712e-121
-1.67281e-114
-5.08762e-122
-1.595e-128
-1.1189e-120
-3.09445e-128
-1.03719e-138
-2.45372e-128
-5.51401e-136
-5.64409e-153
-1.88181e-138
-3.52581e-146
-1.88029e-162
-1.00898e-152
-1.74694e-160
-3.01438e-168
-2.8289e-162
-5.25571e-170
-2.35069e-179
-3.54303e-168
-7.60625e-176
5.78919e-181
-9.95581e-191
-5.7803e-12
-7.55237e-09
4.48006e-15
-2.81858e-11
-2.31689e-08
-8.02233e-15
-2.74528e-10
-3.08702e-08
-1.04489e-14
2.64248e-09
-3.74509e-08
-1.92786e-14
7.36435e-09
-7.00529e-08
-1.87857e-14
9.99482e-09
-1.07545e-07
-1.69969e-14
9.17174e-09
-1.3082e-07
-2.02793e-14
5.90107e-09
-1.2492e-07
-2.2829e-14
2.64653e-09
-1.20013e-07
-3.33864e-14
3.46578e-10
-1.08729e-07
-3.13567e-14
-2.48425e-09
-6.16133e-08
-1.11718e-14
-3.14183e-09
-4.70553e-08
-4.54442e-15
-1.1838e-09
-3.00364e-08
-2.43538e-15
-9.9358e-11
-7.2205e-09
-4.98412e-16
-9.64803e-13
-5.44459e-10
-3.13433e-17
-5.35126e-17
-7.68444e-12
-4.25434e-19
-2.12021e-20
-3.76478e-16
-1.66077e-23
-3.39187e-26
-1.27525e-19
-6.17542e-27
-1.15107e-34
-1.99077e-25
-7.04002e-33
-6.19096e-44
-6.04764e-34
-2.08114e-41
-1.16093e-51
-3.02952e-43
-9.56937e-51
-3.89796e-58
-5.36557e-51
-1.53868e-58
-1.50391e-64
-1.67032e-57
-4.57519e-65
-1.48784e-79
-6.10243e-64
-1.52708e-71
-1.63491e-82
-6.52088e-79
-1.30388e-86
-8.06212e-86
-5.97789e-82
-5.19725e-90
-1.23694e-89
-2.79606e-85
-2.33122e-93
-5.18182e-93
-4.0663e-89
-4.77928e-97
-2.0123e-96
-1.59013e-92
-1.58909e-100
-2.01443e-100
-6.31857e-96
-4.06468e-104
-7.58807e-105
-5.41763e-100
-1.12374e-107
-5.54141e-109
-1.94401e-104
-3.0521e-112
-1.53815e-114
-1.25307e-108
-2.23065e-116
-8.88114e-121
-3.60581e-114
-1.08481e-121
-2.94854e-128
-1.48203e-120
-5.0106e-128
-4.13978e-138
-4.96117e-128
-1.03743e-135
-1.53762e-152
-7.42089e-138
-1.3857e-145
-5.10297e-162
-2.5303e-152
-4.70238e-160
-1.28307e-167
-7.64337e-162
-1.39859e-169
-8.00454e-180
-1.50838e-167
-3.16311e-175
1.32553e-181
-3.56069e-191
-5.47284e-12
-7.54691e-09
2.91028e-15
-3.15748e-11
-2.31428e-08
-7.47953e-15
-1.76652e-11
-3.08841e-08
-1.31945e-14
3.40715e-09
-4.08757e-08
-1.63075e-14
7.35623e-09
-7.4002e-08
-8.05476e-15
9.37243e-09
-1.09561e-07
-1.03273e-14
8.15374e-09
-1.29602e-07
-5.99613e-15
5.00926e-09
-1.21698e-07
-2.5454e-14
1.99752e-09
-1.16637e-07
-3.34005e-14
-1.43876e-10
-1.06477e-07
-3.10058e-14
-2.69467e-09
-5.89749e-08
-1.50172e-14
-3.16631e-09
-4.51821e-08
-3.5599e-15
-1.15585e-09
-2.82129e-08
-2.10609e-15
-9.95305e-11
-6.76193e-09
-4.53872e-16
-1.14372e-12
-5.26317e-10
-2.92417e-17
-6.65303e-17
-8.88132e-12
-4.77573e-19
-2.36028e-20
-4.65654e-16
-1.95445e-23
-4.43578e-26
-1.39105e-19
-6.52357e-27
-1.44657e-34
-2.53843e-25
-8.88097e-33
-7.92753e-44
-7.46308e-34
-2.52837e-41
-1.53771e-51
-3.80777e-43
-1.18156e-50
-5.07682e-58
-6.96811e-51
-1.9766e-58
-1.99433e-64
-2.13477e-57
-5.80229e-65
-2.20773e-79
-7.91919e-64
-1.97814e-71
-2.27751e-82
-8.61877e-79
-1.89414e-86
-1.14453e-85
-8.16375e-82
-6.95466e-90
-1.80588e-89
-3.88371e-85
-3.22429e-93
-7.59086e-93
-5.81864e-89
-6.80667e-97
-3.72251e-96
-2.29318e-92
-2.27447e-100
-3.02566e-100
-1.14964e-95
-6.03201e-104
-1.53964e-104
-7.93476e-100
-1.89761e-107
-8.11755e-109
-4.4129e-104
-4.96494e-112
-3.17221e-114
-1.74345e-108
-3.40416e-116
-1.24667e-120
-6.97891e-114
-1.99101e-121
-7.67358e-128
-2.06142e-120
-8.06097e-128
-1.42153e-137
-1.49291e-127
-2.88393e-135
-6.63218e-152
-2.26848e-137
-4.6855e-145
-1.39769e-161
-8.06441e-152
-1.72713e-159
-5.46395e-167
-2.08054e-161
-3.75771e-169
-2.63201e-180
-6.4264e-167
-1.31701e-174
2.26939e-182
-1.63281e-190
-4.9969e-12
-7.54191e-09
5.21745e-16
-4.57091e-11
-2.31021e-08
-1.55994e-15
1.41119e-10
-3.10709e-08
-1.92325e-14
3.66096e-09
-4.43955e-08
1.48832e-15
6.88776e-09
-7.72288e-08
-7.02934e-15
8.4933e-09
-1.11167e-07
-1.58589e-14
7.0484e-09
-1.28157e-07
-2.00624e-14
4.109e-09
-1.1867e-07
-2.65454e-14
1.33382e-09
-1.13478e-07
-3.24365e-14
-6.97421e-10
-1.04307e-07
-3.07597e-14
-2.91686e-09
-5.66497e-08
-1.79991e-14
-3.17803e-09
-4.33575e-08
-4.37488e-15
-1.12237e-09
-2.64119e-08
-2.04523e-15
-9.90053e-11
-6.29831e-09
-4.25848e-16
-1.34332e-12
-5.03728e-10
-2.83872e-17
-8.51133e-17
-1.01904e-11
-5.38169e-19
-2.60501e-20
-5.93434e-16
-2.39669e-23
-5.68743e-26
-1.5055e-19
-6.95867e-27
-1.8127e-34
-3.1784e-25
-1.09245e-32
-1.01308e-43
-9.19587e-34
-3.07958e-41
-2.03114e-51
-4.78321e-43
-1.47658e-50
-6.62389e-58
-9.03618e-51
-2.56448e-58
-2.63659e-64
-2.73785e-57
-7.426e-65
-2.6337e-79
-1.02605e-63
-2.57031e-71
-3.1857e-82
-1.11071e-78
-2.21397e-86
-1.62562e-85
-1.12099e-81
-9.36912e-90
-2.65072e-89
-5.40391e-85
-4.48161e-93
-1.13255e-92
-8.37994e-89
-9.80701e-97
-6.88501e-96
-3.37507e-92
-3.35701e-100
-4.53678e-100
-2.07426e-95
-9.46194e-104
-4.04964e-104
-1.16359e-99
-3.12268e-107
-1.12635e-108
-1.21434e-103
-1.13403e-111
-5.90797e-114
-2.31278e-108
-4.94205e-116
-1.99557e-120
-1.22186e-113
-3.23669e-121
-2.59585e-127
-3.53766e-120
-1.37895e-127
-3.8191e-137
-5.21827e-127
-9.55734e-135
-2.37393e-151
-5.37609e-137
-1.23992e-144
-3.85284e-161
-2.47818e-151
-6.97514e-159
-2.32626e-166
-5.6843e-161
-1.01691e-168
-1.21805e-180
-2.73845e-166
-5.48868e-174
1.02786e-183
-7.89288e-189
-4.51969e-12
-7.53739e-09
-1.08487e-15
-6.20683e-11
-2.30445e-08
-7.75063e-15
2.04199e-10
-3.13371e-08
-2.13944e-14
3.44884e-09
-4.76402e-08
9.39832e-15
6.05403e-09
-7.9834e-08
-4.44417e-15
7.39731e-09
-1.1251e-07
-6.32318e-15
5.86226e-09
-1.26622e-07
-1.49585e-14
3.18252e-09
-1.1589e-07
-2.28468e-14
6.55615e-10
-1.10548e-07
-3.3e-14
-1.27612e-09
-1.02212e-07
-3.46304e-14
-3.13927e-09
-5.46572e-08
-1.21882e-14
-3.17659e-09
-4.15802e-08
-3.35137e-15
-1.08444e-09
-2.46434e-08
-1.41951e-15
-9.7308e-11
-5.83807e-09
-3.45656e-16
-1.56536e-12
-4.78797e-10
-2.49325e-17
-1.1204e-16
-1.1613e-11
-5.48879e-19
-2.85037e-20
-7.77423e-16
-3.10743e-23
-7.15894e-26
-1.61566e-19
-7.4574e-27
-2.26571e-34
-3.91098e-25
-1.39074e-32
-1.2924e-43
-1.13119e-33
-3.88054e-41
-2.67517e-51
-6.00396e-43
-1.87013e-50
-8.66429e-58
-1.16949e-50
-3.34824e-58
-3.47603e-64
-3.52498e-57
-9.60078e-65
-5.94918e-79
-1.32729e-63
-3.34504e-71
-4.47469e-82
-1.6451e-78
-4.93218e-86
-2.31015e-85
-1.54741e-81
-1.27029e-89
-3.91001e-89
-7.53129e-85
-6.23251e-93
-1.72336e-92
-1.21385e-88
-1.42063e-96
-1.24875e-95
-5.0732e-92
-5.086e-100
-6.82959e-100
-3.65021e-95
-1.56135e-103
-1.11845e-103
-1.71906e-99
-5.04284e-107
-1.50897e-108
-3.24965e-103
-3.1801e-111
-1.00888e-113
-2.98732e-108
-6.93978e-116
-4.36267e-120
-1.97439e-113
-4.80402e-121
-8.41531e-127
-8.944e-120
-2.70009e-127
-8.60885e-137
-1.56672e-126
-2.75733e-134
-7.38583e-151
-1.11324e-136
-2.75422e-144
-1.06508e-160
-8.68305e-151
-2.11943e-158
-9.89837e-166
-1.55381e-160
-2.7628e-168
-1.65743e-179
-1.16712e-165
-2.29007e-173
-3.90438e-180
-3.2212e-187
-4.12591e-12
-7.53325e-09
-2.11344e-15
-7.21899e-11
-2.29764e-08
1.64542e-15
2.15957e-10
-3.16253e-08
-1.96167e-14
2.98812e-09
-5.04124e-08
5.93186e-15
5.09816e-09
-8.1944e-08
-8.55509e-15
6.24761e-09
-1.13659e-07
-8.20241e-15
4.69883e-09
-1.25073e-07
-2.0267e-14
2.28872e-09
-1.1337e-07
-2.54436e-14
1.81931e-11
-1.07855e-07
-3.25383e-14
-1.82165e-09
-1.00173e-07
-3.36882e-14
-3.3474e-09
-5.29749e-08
-9.34747e-15
-3.16062e-09
-3.98392e-08
-2.06677e-15
-1.04315e-09
-2.29176e-08
-1.28761e-15
-9.53066e-11
-5.38817e-09
-3.1557e-16
-1.80412e-12
-4.5382e-10
-2.31957e-17
-1.51153e-16
-1.30238e-11
-6.29926e-19
-3.09199e-20
-1.04053e-15
-4.22174e-23
-8.85796e-26
-1.71842e-19
-7.93462e-27
-2.82577e-34
-4.73314e-25
-1.70145e-32
-1.64639e-43
-1.38902e-33
-4.78207e-41
-3.51308e-51
-7.52983e-43
-2.33669e-50
-1.13718e-57
-1.50998e-50
-4.30755e-58
-4.57201e-64
-4.55856e-57
-1.23229e-64
-5.21213e-79
-1.71454e-63
-4.30708e-71
-6.3121e-82
-2.11261e-78
-4.2222e-86
-3.28543e-85
-2.14693e-81
-1.72219e-89
-5.79346e-89
-1.0514e-84
-8.66229e-93
-2.67465e-92
-1.76729e-88
-2.07051e-96
-2.1954e-95
-7.78242e-92
-7.90157e-100
-1.03965e-99
-6.20905e-95
-2.65958e-103
-2.80759e-103
-2.57844e-99
-7.7919e-107
-2.00665e-108
-7.64342e-103
-8.74292e-111
-1.61803e-113
-3.88383e-108
-9.62945e-116
-1.31181e-119
-3.02552e-113
-6.72504e-121
-2.25011e-126
-2.88867e-119
-6.20487e-127
-1.86526e-136
-3.76907e-126
-6.35097e-134
-3.3265e-150
-2.38839e-136
-5.88506e-144
-2.94365e-160
-4.5848e-150
-9.47933e-158
-4.21025e-165
-4.24567e-160
-7.51609e-168
-5.82619e-178
-4.97752e-165
-9.57347e-173
-2.48506e-178
-1.12548e-185
-3.64372e-12
-7.5296e-09
-1.53437e-15
-7.23994e-11
-2.29077e-08
-3.47751e-15
2.19355e-10
-3.1917e-08
-1.94319e-14
2.48332e-09
-5.26763e-08
1.48696e-14
4.21454e-09
-8.36752e-08
4.25695e-16
5.19039e-09
-1.14635e-07
-9.97027e-15
3.66092e-09
-1.23543e-07
-8.79583e-15
1.49617e-09
-1.11087e-07
-2.18539e-14
-5.53955e-10
-1.0536e-07
-2.92708e-14
-2.2938e-09
-9.81919e-08
-3.48938e-14
-3.53429e-09
-5.1546e-08
-5.23711e-15
-3.12887e-09
-3.81206e-08
-2.05879e-15
-9.99376e-10
-2.12429e-08
-1.04205e-15
-9.31692e-11
-4.95268e-09
-2.75929e-16
-2.07121e-12
-4.28593e-10
-2.04737e-17
-2.07471e-16
-1.40444e-11
-6.36149e-19
-3.32529e-20
-1.41042e-15
-5.11691e-23
-1.07873e-25
-1.81079e-19
-7.31009e-27
-3.518e-34
-5.63831e-25
-1.90453e-32
-2.09509e-43
-1.70262e-33
-5.58789e-41
-4.59999e-51
-9.43535e-43
-2.80941e-50
-1.49898e-57
-1.94434e-50
-5.40625e-58
-6.00311e-64
-5.92512e-57
-1.57416e-64
-8.24607e-79
-2.21251e-63
-5.53384e-71
-8.94273e-82
-2.8337e-78
-6.55989e-86
-4.67805e-85
-2.99346e-81
-2.35782e-89
-8.61899e-89
-1.47072e-84
-1.20993e-92
-4.22721e-92
-2.58466e-88
-3.03965e-96
-3.72123e-95
-1.21545e-91
-1.25221e-99
-1.61391e-99
-1.01732e-94
-4.58455e-103
-6.14709e-103
-3.96095e-99
-1.13573e-106
-2.77696e-108
-1.55884e-102
-2.10651e-110
-2.51619e-113
-5.39925e-108
-1.3652e-115
-4.11314e-119
-4.55978e-113
-9.2728e-121
-5.02567e-126
-8.64461e-119
-1.55616e-126
-4.59187e-136
-7.68599e-126
-1.22383e-133
-1.83673e-149
-6.35819e-136
-1.43035e-143
-8.1274e-160
-2.42368e-149
-5.1316e-157
-1.79136e-164
-1.16326e-159
-2.04681e-167
-1.76892e-176
-2.12535e-164
-4.0146e-172
-9.4105e-177
-3.35917e-184
-3.07766e-12
-7.52652e-09
-1.36818e-15
-6.48632e-11
-2.28459e-08
-2.24894e-15
2.36206e-10
-3.22181e-08
-8.75996e-15
2.04836e-09
-5.44885e-08
2.92852e-15
3.4912e-09
-8.51181e-08
-5.20095e-15
4.30461e-09
-1.15449e-07
-1.56303e-14
2.80806e-09
-1.22047e-07
-5.78912e-15
8.49326e-10
-1.09003e-07
-1.81093e-14
-1.00926e-09
-1.03027e-07
-2.59082e-14
-2.67708e-09
-9.62454e-08
-2.9824e-14
-3.69675e-09
-5.03019e-08
-4.86288e-15
-3.08134e-09
-3.64106e-08
-2.0669e-15
-9.53781e-10
-1.96271e-08
-1.03437e-15
-9.08014e-11
-4.53488e-09
-2.56154e-16
-2.48587e-12
-4.02968e-10
-1.98382e-17
-2.87136e-16
-1.45669e-11
-6.67957e-19
-3.54587e-20
-1.91761e-15