/*--------------------------------*- C++ -*----------------------------------*\
| =========                 |                                                 |
| \\      /  F ield         | OpenFOAM: The Open Source CFD Toolbox           |
|  \\    /   O peration     | Version:  v2012                                 |
|   \\  /    A nd           | Website:  www.openfoam.com                      |
|    \\/     M anipulation  |                                                 |
\*---------------------------------------------------------------------------*/
FoamFile
{
    version     2.0;
    format      ascii;
    class       volScalarField;
    location    "0.75";
    object      alpha.water;
}
// * * * * * * * * * * * * * * * * * * * * * * * * * * * * * * * * * * * * * //

dimensions      [0 0 0 0 0 0 0];


internalField   nonuniform List<scalar> 
2625
(
-5.52507e-68
-6.90024e-68
-2.82674e-68
-1.22553e-68
-2.27956e-69
-3.69674e-70
-5.17065e-71
-7.91134e-72
-9.81892e-73
-1.01576e-73
-9.07806e-75
-7.66349e-76
-5.88997e-77
-4.08222e-78
-2.61268e-79
-1.57706e-80
-9.5724e-82
-3.00958e-79
-4.23929e-75
-1.00612e-70
-3.23944e-66
-1.35712e-61
-1.31247e-56
-4.30527e-54
-8.96474e-54
-9.08983e-54
-5.93103e-54
-2.78161e-54
-9.93481e-55
-2.795e-55
-6.3303e-56
-1.17183e-56
-1.79235e-57
-2.28283e-58
-2.43447e-59
-2.1819e-60
-3.0945e-67
-3.67713e-67
-1.47285e-67
-6.22006e-68
-1.14072e-68
-1.81195e-69
-2.49237e-70
-3.7388e-71
-4.59213e-72
-4.66042e-73
-4.14723e-74
-3.52207e-75
-2.66913e-76
-1.82025e-77
-1.15227e-78
-6.88354e-80
-4.07372e-81
-1.11127e-78
-1.91366e-74
-5.0644e-70
-1.71145e-65
-7.32258e-61
-5.45729e-56
-1.7736e-53
-3.78796e-53
-3.94259e-53
-2.64243e-53
-1.27369e-53
-4.67773e-54
-1.3535e-54
-3.15308e-55
-6.00399e-56
-9.44742e-57
-1.23806e-57
-1.35864e-58
-1.25312e-59
-1.65695e-66
-1.87243e-66
-7.26737e-67
-2.99165e-67
-5.44698e-68
-8.44853e-69
-1.14277e-69
-1.70117e-70
-2.06007e-71
-2.04844e-72
-1.78448e-73
-1.51821e-74
-1.13293e-75
-7.60823e-77
-4.76165e-78
-2.81532e-79
-1.64214e-80
-5.22331e-78
-1.05101e-73
-2.88281e-69
-9.80376e-65
-4.07617e-60
-2.17311e-55
-7.02948e-53
-1.54121e-52
-1.64812e-52
-1.13569e-52
-5.63153e-53
-2.12876e-53
-6.341e-54
-1.52074e-54
-2.9813e-55
-4.83038e-56
-6.51914e-57
-7.36893e-58
-7.00163e-59
-8.50049e-66
-9.21589e-66
-3.44284e-66
-1.3599e-66
-2.47363e-67
-3.76559e-68
-5.02066e-69
-7.39289e-70
-8.85231e-71
-8.63559e-72
-7.37588e-73
-6.14998e-74
-4.54919e-75
-3.0106e-76
-1.86201e-77
-1.08654e-78
-6.28083e-80
-2.60648e-77
-5.58827e-73
-1.53103e-68
-5.14807e-64
-2.0391e-59
-8.27106e-55
-2.67688e-52
-6.03117e-52
-6.63302e-52
-4.70396e-52
-2.40198e-52
-9.35461e-53
-2.87119e-53
-7.09498e-54
-1.43319e-54
-2.39297e-55
-3.32886e-56
-3.87928e-57
-3.80065e-58
-4.17211e-65
-4.34786e-65
-1.56304e-65
-5.93805e-66
-1.06853e-66
-1.58604e-67
-2.09906e-68
-3.05933e-69
-3.60155e-70
-3.43264e-71
-2.86183e-72
-2.34332e-73
-1.70242e-74
-1.1088e-75
-6.76405e-77
-3.89269e-78
-2.22956e-79
-1.12874e-76
-2.45106e-72
-6.65162e-68
-2.19905e-63
-8.30424e-59
-3.00243e-54
-9.7834e-52
-2.26739e-51
-2.56715e-51
-1.8755e-51
-9.87174e-52
-3.96494e-52
-1.25508e-52
-3.19821e-53
-6.66186e-54
-1.14716e-54
-1.64618e-55
-1.97943e-56
-2.00146e-57
-1.94862e-64
-1.95887e-64
-6.75573e-65
-2.45838e-65
-4.38561e-66
-6.31745e-67
-8.35435e-68
-1.2079e-68
-1.39049e-69
-1.28568e-70
-1.04794e-71
-8.40995e-73
-5.97559e-74
-3.81769e-75
-2.28881e-76
-1.29343e-77
-7.25885e-79
-3.63803e-76
-8.02425e-72
-2.16739e-67
-7.21336e-63
-2.7651e-58
-1.03697e-53
-3.42653e-51
-8.17773e-51
-9.54196e-51
-7.18913e-51
-3.90456e-51
-1.61899e-51
-5.29011e-52
-1.39119e-52
-2.99038e-53
-5.31453e-54
-7.873e-55
-9.77592e-56
-1.02101e-56
-8.6611e-64
-8.38131e-64
-2.76196e-64
-9.57348e-65
-1.68942e-65
-2.38308e-66
-3.11239e-67
-4.42607e-68
-5.00337e-69
-4.48232e-70
-3.56632e-71
-2.79415e-72
-1.93049e-73
-1.20501e-74
-7.06592e-76
-3.90745e-77
-2.11142e-78
-7.40192e-76
-1.72057e-71
-4.90642e-67
-1.75527e-62
-7.49676e-58
-3.40086e-53
-1.14827e-50
-2.82534e-50
-3.40129e-50
-2.64567e-50
-1.4843e-50
-6.36038e-51
-2.14723e-51
-5.83193e-52
-1.29451e-52
-2.37603e-53
-3.63632e-54
-4.66622e-55
-5.03804e-56
-3.65105e-63
-3.4084e-63
-1.07661e-63
-3.60517e-64
-6.18087e-65
-8.59872e-66
-1.10457e-66
-1.49367e-67
-1.67444e-68
-1.4541e-69
-1.12876e-70
-8.57785e-72
-5.71997e-73
-3.46428e-74
-1.97256e-75
-1.05767e-76
-5.43969e-78
-9.03003e-76
-2.3051e-71
-7.07876e-67
-2.90712e-62
-1.56081e-57
-1.05681e-52
-3.67501e-50
-9.33453e-50
-1.16083e-49
-9.33318e-50
-5.41516e-50
-2.40075e-50
-8.38122e-51
-2.3527e-51
-5.39632e-52
-1.02361e-52
-1.61951e-53
-2.1493e-54
-2.40084e-55
-1.45092e-62
-1.30134e-62
-3.93378e-63
-1.28267e-63
-2.16715e-64
-2.90857e-65
-3.6948e-66
-4.72519e-67
-5.17475e-68
-4.37173e-69
-3.28327e-70
-2.38394e-71
-1.52116e-72
-8.8644e-74
-4.84079e-75
-2.47673e-76
-1.19858e-77
-5.81937e-76
-1.69123e-71
-5.68188e-67
-2.88509e-62
-2.24557e-57
-3.10568e-52
-1.12099e-49
-2.94348e-49
-3.78636e-49
-3.15079e-49
-1.89295e-49
-8.69309e-50
-3.14114e-50
-9.11953e-51
-2.16277e-51
-4.24246e-52
-6.94385e-53
-9.5378e-54
-1.10314e-54
-5.36637e-62
-4.61263e-62
-1.33804e-62
-4.23891e-63
-7.0621e-64
-9.09111e-65
-1.1354e-65
-1.37694e-66
-1.46495e-67
-1.19916e-68
-8.66524e-70
-5.88444e-71
-3.55002e-72
-1.95426e-73
-9.99774e-75
-4.68971e-76
-2.06997e-77
-2.01785e-76
-6.78426e-72
-2.50362e-67
-1.49407e-62
-1.84189e-57
-8.61288e-52
-3.25119e-49
-8.83945e-49
-1.17794e-48
-1.01597e-48
-6.32903e-49
-3.01466e-49
-1.12848e-49
-3.39067e-50
-8.31934e-51
-1.68864e-51
-2.86124e-52
-4.07067e-53
-4.87886e-54
-1.84587e-61
-1.47086e-61
-4.18158e-62
-1.28049e-62
-2.11426e-63
-2.60854e-64
-3.19042e-65
-3.67519e-66
-3.71539e-67
-2.91458e-68
-1.99322e-69
-1.22819e-70
-6.89507e-72
-3.42077e-73
-1.54158e-74
-5.76116e-76
-2.07361e-77
-5.22712e-77
-2.42425e-72
-1.00565e-67
-6.41378e-63
-1.53053e-57
-2.24707e-51
-8.94091e-49
-2.52168e-48
-3.48712e-48
-3.12238e-48
-2.01997e-48
-9.99412e-49
-3.87901e-49
-1.20691e-49
-3.0654e-50
-6.44248e-51
-1.13088e-51
-1.66777e-52
-2.07316e-53
-5.9228e-61
-4.39455e-61
-1.20872e-61
-3.56501e-62
-5.6595e-63
-6.72409e-64
-7.87296e-65
-8.87662e-66
-8.35785e-67
-6.06522e-68
-3.80279e-69
-2.07306e-70
-9.75013e-72
-3.7466e-73
-6.6862e-75
0
-1.05012e-87
0
-1.18115e-72
-7.36507e-68
-6.20198e-63
-3.02112e-57
-5.48908e-51
-2.32385e-48
-6.81377e-48
-9.79711e-48
-9.12395e-48
-6.14048e-48
-3.16087e-48
-1.27309e-48
-4.10391e-49
-1.07957e-49
-2.35081e-50
-4.27826e-51
-6.54594e-52
-8.44719e-53
-1.80124e-60
-1.22352e-60
-3.25831e-61
-9.11339e-62
-1.39851e-62
-1.57732e-63
-1.72446e-64
-1.87143e-65
-1.60062e-66
-1.01975e-67
-5.39391e-69
-2.1973e-70
-4.86448e-95
-2.95726e-108
-7.33719e-119
-2.14985e-97
-1.17704e-93
-2.51733e-100
-5.43354e-85
-4.47006e-68
-6.55633e-63
-5.73307e-57
-1.24895e-50
-5.68627e-48
-1.73786e-47
-2.60419e-47
-2.52792e-47
-1.77344e-47
-9.51556e-48
-3.9799e-48
-1.32971e-48
-3.62468e-49
-8.18377e-50
-1.54551e-50
-2.45576e-51
-3.29322e-52
-5.03602e-60
-3.06682e-60
-8.00955e-61
-2.10553e-61
-3.03863e-62
-3.2348e-63
-3.1887e-64
-3.20523e-65
-2.32538e-66
-1.09079e-67
-6.64891e-70
0
-3.8987e-88
-3.66039e-95
3.13451e-74
6.18314e-74
2.27136e-74
1.37338e-74
-9.60284e-106
-1.44689e-68
-7.44014e-63
-9.60342e-57
-2.63031e-50
-1.3036e-47
-4.16642e-47
-6.52522e-47
-6.61932e-47
-4.85211e-47
-2.7196e-47
-1.18178e-47
-4.0931e-48
-1.15677e-48
-2.71023e-49
-5.31672e-50
-8.78355e-51
-1.22552e-51
-1.29968e-59
-6.73759e-60
-1.7571e-60
-4.22078e-61
-5.49714e-62
-5.57203e-63
-4.63529e-64
-3.50756e-65
-1.6113e-66
-2.66201e-96
-2.49857e-91
-5.61709e-91
1.72755e-70
1.47718e-70
1.93493e-70
9.02556e-71
5.33238e-71
9.02606e-72
-3.496e-101
-1.78232e-77
-6.65244e-63
-1.37639e-56
-5.08336e-50
-2.78279e-47
-9.34045e-47
-1.53434e-46
-1.63174e-46
-1.25337e-46
-7.35747e-47
-3.32189e-47
-1.19262e-47
-3.49625e-48
-8.50915e-49
-1.73624e-49
-2.9865e-50
-4.34162e-51
-3.07082e-59
-1.3349e-59
-3.41986e-60
-7.23579e-61
-8.48081e-62
-6.89123e-63
-3.82471e-64
0
-1.37173e-90
-4.53476e-84
-3.40505e-114
-7.06891e-74
-1.27765e-90
-1.59374e-123
-1.11445e-127
-2.85946e-150
-1.6368e-88
-7.5074e-112
-3.61311e-75
-1.29094e-82
-2.4577e-75
-1.60077e-56
-8.90164e-50
-5.48568e-47
-1.94493e-46
-3.36673e-46
-3.76885e-46
-3.0444e-46
-1.87755e-46
-8.80196e-47
-3.27418e-47
-9.96285e-48
-2.52224e-48
-5.36218e-49
-9.62057e-50
-1.45981e-50
-6.4406e-59
-2.26771e-59
-5.69653e-60
-1.03491e-60
-8.75548e-62
-1.45246e-64
-2.09296e-73
-6.72436e-104
-2.36812e-73
2.58773e-64
1.60727e-63
5.06511e-63
1.01808e-62
2.7602e-62
4.18549e-62
3.47008e-62
2.42121e-62
1.14621e-62
3.21125e-63
1.02619e-63
-3.03249e-70
-1.28148e-56
-1.38315e-49
-9.86757e-47
-3.72702e-46
-6.84284e-46
-8.10716e-46
-6.91887e-46
-4.50076e-46
-2.18635e-46
-8.41848e-47
-2.66122e-47
-7.02188e-48
-1.55905e-48
-2.92457e-49
-4.64239e-50
-1.11607e-58
-2.95282e-59
-7.23731e-60
-8.98959e-61
-3.21407e-91
-3.54916e-92
2.52376e-64
7.5373e-63
3.73059e-62
1.08454e-60
1.47115e-60
1.13182e-59
6.30202e-59
2.98463e-59
7.45468e-59
1.27447e-58
1.10957e-58
6.99185e-59
3.20612e-59
1.2695e-59
-4.02772e-99
-7.47946e-70
-1.8313e-49
-1.58923e-46
-6.48377e-46
-1.27503e-45
-1.61115e-45
-1.46189e-45
-1.00826e-45
-5.05217e-46
-2.01041e-46
-6.61239e-47
-1.82391e-47
-4.24353e-48
-8.34984e-49
-1.39065e-49
-1.46258e-58
-2.03028e-59
-1.51589e-60
9.12873e-96
5.0082e-63
3.85662e-61
9.70123e-60
1.61874e-58
1.13593e-57
-7.87269e-115
-1.93462e-82
-8.89088e-115
-3.52194e-110
-7.06032e-110
-3.74174e-154
-4.29543e-114
-3.44365e-97
-2.54048e-136
-5.41618e-112
-1.13887e-79
-3.11629e-73
2.15094e-57
-1.86915e-49
-2.21274e-46
-1.00131e-45
-2.14417e-45
-2.92453e-45
-2.84722e-45
-2.09693e-45
-1.07367e-45
-4.4053e-46
-1.51206e-46
-4.38128e-47
-1.07355e-47
-2.22592e-48
-3.90503e-49
-1.07801e-58
-1.00714e-83
-1.07166e-76
4.69344e-60
1.24771e-58
-6.95776e-168
-3.30089e-82
-1.13802e-122
-1.92068e-98
2.00818e-52
1.17797e-51
4.47559e-51
1.28253e-50
2.61873e-50
4.32709e-50
4.31845e-50
3.3239e-50
1.87735e-50
6.61112e-51
1.36238e-51
9.89658e-53
-4.01877e-77
-8.49178e-50
-2.45523e-46
-1.31475e-45
-3.16779e-45
-4.76322e-45
-5.04904e-45
-4.01277e-45
-2.05877e-45
-8.68828e-46
-3.13211e-46
-9.61432e-47
-2.50059e-47
-5.49988e-48
-1.02191e-48
-1.23484e-70
-1.42649e-80
-2.81332e-106
-3.39266e-76
-1.77018e-76
0
1.02396e-51
1.32424e-50
1.07376e-49
1.49413e-48
8.36021e-48
3.2196e-47
9.1589e-47
2.05817e-46
3.44399e-46
3.38477e-46
2.59239e-46
1.37921e-46
4.62521e-47
9.03486e-48
8.97819e-49
-5.82831e-57
-1.09845e-57
-1.64861e-46
-1.31645e-45
-3.8803e-45
-6.74159e-45
-7.99404e-45
-6.97477e-45
-3.43315e-45
-1.48968e-45
-5.72855e-46
-1.89262e-46
-5.29286e-47
-1.24741e-47
-2.47399e-48
3.89415e-58
-1.77862e-185
-3.05263e-108
4.92008e-52
1.50191e-50
4.25028e-52
7.41152e-48
8.18648e-47
6.60082e-46
2.29904e-49
2.29934e-49
2.29978e-49
2.30015e-49
2.30056e-49
2.30095e-49
2.30135e-49
2.30175e-49
2.30215e-49
2.30254e-49
2.30294e-49
2.30334e-49
6.59476e-47
-1.88426e-58
-1.06877e-55
-4.69699e-46
-3.24514e-45
-7.70681e-45
-1.0897e-44
-1.07837e-44
-4.55324e-45
-2.0564e-45
-8.82202e-46
-3.24456e-46
-9.98344e-47
-2.5626e-47
-5.48844e-48
-1.01902e-169
4.9631e-52
4.05317e-50
3.31403e-48
8.97677e-47
8.60624e-51
8.60624e-51
8.60624e-51
8.60624e-51
8.60624e-51
3.03197e-40
1.13273e-39
3.22237e-39
6.79012e-39
1.1752e-38
1.22255e-38
9.43871e-39
5.10379e-39
1.89596e-39
3.67482e-40
4.24785e-41
3.74919e-44
-1.48223e-72
2.75897e-47
-4.08894e-54
-1.27604e-56
-5.57758e-45
-1.17486e-44
-1.42572e-44
-3.29707e-45
-1.78413e-45
-1.02293e-45
-4.57388e-46
-1.62388e-46
-4.67358e-47
-1.10126e-47
3.46532e-50
3.16589e-48
2.66361e-46
8.60624e-51
8.60624e-51
8.60624e-51
2.85388e-40
2.827e-39
2.1796e-38
2.18927e-37
1.23114e-36
4.23121e-36
1.1166e-35
1.8783e-35
2.08466e-35
1.68309e-35
1.56389e-35
1.12011e-35
5.63532e-36
1.12909e-36
1.44342e-37
0
1.85098e-42
1.23881e-43
-2.12607e-64
-2.97671e-64
-1.06392e-61
-7.4673e-45
-1.4672e-44
-1.2459e-58
-5.67797e-58
-5.36392e-46
-4.49252e-46
-2.12568e-46
-7.30907e-47
-1.95984e-47
2.49942e-46
8.60624e-51
8.60624e-51
8.60624e-51
3.01603e-39
5.96454e-38
1.13844e-36
9.72553e-36
2.64623e-35
2.46634e-37
5.9185e-37
7.25399e-37
2.36097e-36
2.27323e-36
3.05973e-36
2.27882e-36
2.29716e-36
-1.3692e-151
-1.3042e-87
1.13076e-37
5.88589e-38
0
4.31477e-43
1.22804e-43
8.32173e-42
6.88718e-44
-6.79037e-56
-6.76495e-55
-7.91912e-45
2.71336e-43
-2.39138e-91
-3.6064e-55
-2.26738e-57
-1.78363e-46
-9.07948e-47
-2.9912e-47
2.0615e-46
1.06625e-40
7.98614e-39
4.83677e-37
1.02034e-35
6.8341e-38
4.34225e-37
5.54334e-37
2.28184e-37
1.07623e-37
-9.579e-71
-1.75785e-94
-3.84177e-58
-1.14237e-77
-3.37681e-77
-1.4504e-72
-1.4445e-76
-1.33244e-34
-4.42282e-35
-1.26803e-58
-5.71174e-76
-1.92964e-63
1.14725e-43
1.1097e-43
9.61693e-42
3.07534e-40
1.10556e-42
-1.71744e-96
-1.98535e-68
1.10104e-42
1.53194e-42
-1.42539e-143
-3.39305e-95
-4.45091e-58
-6.95375e-47
-3.64356e-47
7.23035e-39
5.40128e-37
2.61402e-35
4.84984e-37
3.8355e-37
2.3773e-38
1.04772e-38
-3.85849e-96
-1.06877e-97
-2.35768e-79
-1.20552e-45
-1.61081e-63
-1.52931e-41
-6.14926e-49
-1.2525e-48
0
0
-4.20106e-33
-5.07643e-35
-3.50653e-34
-5.61407e-50
-1.87214e-35
-3.2178e-64
-4.28313e-64
1.86748e-42
2.92916e-40
4.63028e-39
8.07547e-42
-3.01759e-104
1.04165e-42
1.42281e-41
5.57813e-42
-7.55733e-85
-6.34331e-89
-6.07011e-58
-2.83912e-47
2.73512e-35
5.38101e-37
6.44651e-37
-1.68974e-81
-4.33894e-34
-5.35282e-62
-8.642e-47
-3.5195e-33
0
-1.25347e-54
-5.53125e-53
-1.75762e-34
-1.71196e-50
-1.85991e-34
-1.00563e-39
-1.97504e-33
-9.4779e-34
-6.39923e-34
-1.55235e-76
-6.08292e-35
8.21818e-60
-1.09768e-33
-2.61909e-111
-6.2784e-66
-4.3459e-35
-7.01795e-58
1.02926e-41
8.12771e-42
3.17424e-41
1.15259e-42
2.09169e-41
6.1112e-41
1.92014e-41
-2.19724e-61
-4.1918e-56
-7.1051e-60
1.40519e-35
5.32112e-37
-5.7255e-78
-9.30928e-33
0
-1.22614e-40
-4.54554e-33
-1.47376e-33
-3.40706e-60
-5.51951e-50
-1.71133e-33
-2.77417e-65
0
0
-1.53486e-43
0
-3.33698e-49
-3.96415e-33
-1.57311e-56
-4.35076e-39
-1.6903e-113
-1.15957e-148
0
-1.19786e-33
0
0
-2.08816e-82
7.62482e-42
3.1367e-41
7.06646e-41
2.17665e-41
9.8242e-41
1.35868e-40
3.24127e-41
-3.11864e-97
-4.35202e-52
-1.70054e-34
0
-2.46159e-40
0
-1.41209e-33
-1.23175e-32
-5.82421e-44
-3.4235e-32
4.96921e-21
7.84842e-20
1.64805e-19
2.48883e-19
3.17088e-19
3.66992e-19
3.67351e-19
3.49026e-19
3.02026e-19
2.31732e-19
1.50212e-19
7.17441e-20
1.01111e-20
5.37811e-69
-4.51304e-34
-1.25364e-34
-7.13599e-34
-9.67084e-35
-3.97e-63
2.87475e-42
6.32544e-41
1.219e-40
9.94795e-41
2.08423e-40
1.47019e-40
-2.29599e-34
-2.9802e-33
-2.19432e-32
-9.64515e-32
-2.41995e-32
-4.27884e-53
6.14631e-20
2.38653e-19
4.66645e-19
7.16833e-19
8.96741e-19
1.04058e-18
1.14433e-18
1.2074e-18
1.23297e-18
1.21732e-18
1.17166e-18
1.09298e-18
9.8102e-19
8.37681e-19
6.66679e-19
4.75063e-19
2.55913e-19
8.03845e-20
-2.43725e-39
-2.44088e-74
-1.2516e-40
-1.33457e-78
-4.67557e-43
-6.41496e-38
-1.05971e-60
9.8613e-41
2.08441e-40
2.05583e-40
0
-1.48236e-48
-5.02588e-31
1.0241e-20
2.58556e-19
6.3288e-19
1.02243e-18
1.33686e-18
1.60209e-18
1.8118e-18
1.96488e-18
2.06729e-18
2.1253e-18
2.14458e-18
2.12987e-18
2.08751e-18
2.01505e-18
1.91526e-18
1.78765e-18
1.63071e-18
1.44221e-18
1.21855e-18
9.56214e-19
6.5767e-19
3.35683e-19
6.76197e-20
-6.26623e-56
-2.85601e-61
-1.05826e-33
-4.70942e-43
-7.80484e-95
2.71704e-85
9.42687e-41
2.18186e-40
0
2.61464e-18
2.47372e-18
2.31264e-18
2.12964e-18
1.92057e-18
1.6771e-18
1.38581e-18
1.03219e-18
6.20546e-19
1.96584e-19
7.04513e-87
-7.52546e-35
-1.03976e-33
-1.32193e-35
-7.41726e-57
-7.98739e-69
7.89484e-41
3.05983e-18
2.87878e-18
2.68503e-18
2.47799e-18
2.25385e-18
2.00256e-18
1.70399e-18
1.32678e-18
8.4637e-19
3.131e-19
-1.04087e-33
-6.14747e-35
-2.03518e-35
-2.97141e-44
-6.27205e-64
-4.79982e-76
3.42031e-18
3.18993e-18
2.95469e-18
2.71633e-18
2.47271e-18
2.21343e-18
1.9128e-18
1.52192e-18
9.83884e-19
3.56785e-19
-9.75042e-34
-2.51845e-40
-7.67493e-42
-1.44586e-50
5.38328e-31
4.02794e-18
3.73798e-18
3.44579e-18
3.15742e-18
2.87796e-18
2.60805e-18
2.33715e-18
2.03223e-18
1.62164e-18
1.01531e-18
3.04246e-19
0
-1.65927e-51
-1.3247e-36
9.34164e-40
4.75404e-18
4.38996e-18
4.02241e-18
3.65896e-18
3.30856e-18
2.98051e-18
2.67957e-18
2.39479e-18
2.07987e-18
1.62985e-18
9.3049e-19
1.84108e-19
-2.18571e-39
-4.0106e-35
-1.18878e-108
5.61634e-18
5.16695e-18
4.71313e-18
4.26239e-18
3.82367e-18
3.40812e-18
3.0293e-18
2.69772e-18
2.40013e-18
2.06421e-18
1.53955e-18
7.29301e-19
6.40664e-20
-4.65497e-52
-5.82983e-35
6.63055e-18
6.07959e-18
5.52557e-18
4.97623e-18
4.44017e-18
3.92703e-18
3.449e-18
3.0236e-18
2.6691e-18
2.36095e-18
1.9806e-18
1.33172e-18
4.46705e-19
9.66373e-22
-4.2767e-63
7.82815e-18
7.15104e-18
6.47489e-18
5.80826e-18
5.16002e-18
4.53969e-18
3.95712e-18
3.42384e-18
2.96312e-18
2.60089e-18
2.27666e-18
1.80702e-18
9.92805e-19
1.72758e-19
-2.69094e-34
9.25579e-18
8.41881e-18
7.58949e-18
6.77846e-18
5.995e-18
5.24855e-18
4.54944e-18
3.90636e-18
3.32896e-18
2.85423e-18
2.49944e-18
2.13174e-18
1.50512e-18
5.67411e-19
2.29167e-20
1.09719e-17
9.93229e-18
8.90871e-18
7.91611e-18
6.96626e-18
6.06779e-18
5.22992e-18
4.46329e-18
3.77173e-18
3.16869e-18
2.7121e-18
2.3602e-18
1.88819e-18
1.05175e-18
1.96287e-19
1.3042e-17
1.17501e-17
1.04827e-17
9.26045e-18
8.10132e-18
7.01675e-18
6.01283e-18
5.09808e-18
4.28055e-18
3.55564e-18
2.96243e-18
2.54911e-18
2.15545e-18
1.49028e-18
-2.96809e-65
-4.76505e-65
-1.51748e-65
-3.357e-66
-6.1868e-67
-9.68135e-68
-1.35047e-68
-1.71441e-69
-2.01356e-70
-2.17583e-71
-2.1503e-72
-1.96886e-73
-1.69015e-74
-1.35376e-75
-1.01512e-76
-7.1723e-78
-4.78826e-79
-1.74262e-79
-1.99551e-75
-4.68458e-71
-1.49164e-66
-6.13282e-62
-5.79511e-57
-2.36325e-54
-4.91759e-54
-4.98353e-54
-3.25143e-54
-1.52541e-54
-5.45189e-55
-1.53521e-55
-3.48071e-56
-6.45081e-57
-9.87913e-58
-1.25995e-58
-1.34554e-59
-1.20772e-60
-1.66639e-64
-2.54567e-64
-7.85175e-65
-1.69732e-65
-3.07199e-66
-4.73532e-67
-6.51232e-68
-8.16838e-69
-9.48754e-70
-1.01378e-70
-9.90627e-72
-8.98743e-73
-7.64082e-74
-6.05919e-75
-4.49957e-76
-3.14999e-77
-2.0838e-78
-6.53335e-79
-8.8454e-75
-2.31304e-70
-7.71871e-66
-3.24984e-61
-2.39246e-56
-9.71845e-54
-2.07437e-53
-2.15797e-53
-1.44625e-53
-6.97377e-54
-2.56303e-54
-7.42315e-55
-1.73114e-55
-3.30025e-56
-5.19961e-57
-6.82318e-58
-7.49837e-59
-6.92633e-60
-8.95778e-64
-1.30222e-63
-3.88896e-64
-8.20686e-65
-1.45688e-65
-2.20867e-66
-2.99095e-67
-3.70075e-68
-4.24512e-69
-4.47971e-70
-4.32122e-71
-3.87693e-72
-3.25944e-73
-2.55646e-74
-1.87859e-75
-1.30215e-76
-8.53033e-78
-2.93122e-78
-4.76168e-74
-1.29172e-69
-4.34175e-65
-1.78388e-60
-9.4545e-56
-3.84468e-53
-8.42513e-53
-9.00544e-53
-6.2054e-53
-3.07836e-53
-1.16454e-53
-3.47224e-54
-8.33648e-55
-1.63625e-55
-2.65447e-56
-3.58738e-57
-4.06085e-58
-3.86426e-59
-4.60703e-63
-6.37289e-63
-1.84399e-63
-3.80089e-64
-6.61699e-65
-9.86666e-66
-1.31551e-66
-1.60426e-67
-1.81791e-68
-1.89222e-69
-1.80057e-70
-1.59496e-71
-1.32324e-72
-1.02499e-73
-7.44092e-75
-5.09726e-76
-3.30057e-77
-1.37614e-77
-2.48793e-73
-6.75241e-69
-2.24913e-64
-8.83396e-60
-3.56899e-55
-1.46124e-52
-3.29088e-52
-3.61782e-52
-2.56575e-52
-1.31076e-52
-5.10901e-53
-1.5697e-53
-3.8832e-54
-7.85347e-55
-1.31296e-55
-1.82895e-56
-2.13447e-57
-2.0944e-58
-2.26101e-62
-2.97614e-62
-8.34106e-63
-1.67769e-63
-2.86034e-64
-4.18832e-65
-5.49005e-66
-6.58591e-67
-7.36058e-68
-7.54152e-69
-7.06535e-70
-6.16881e-71
-5.04157e-72
-3.84982e-73
-2.75644e-74
-1.86298e-75
-1.19048e-76
-5.71919e-77
-1.07559e-72
-2.89652e-68
-9.50369e-64
-3.56492e-59
-1.28381e-54
-5.32956e-52
-1.23479e-51
-1.39755e-51
-1.02111e-51
-5.37748e-52
-2.16175e-52
-6.85017e-53
-1.74755e-53
-3.64454e-54
-6.2839e-55
-9.02981e-56
-1.08737e-56
-1.10117e-57
-1.05779e-61
-1.3246e-61
-3.5969e-62
-7.05955e-63
-1.17844e-63
-1.69317e-64
-2.18141e-65
-2.57199e-66
-2.83207e-67
-2.84895e-68
-2.62428e-69
-2.25423e-70
-1.81007e-71
-1.35864e-72
-9.56424e-74
-6.35643e-75
-3.9953e-76
-1.82847e-76
-3.48072e-72
-9.34039e-68
-3.08792e-63
-1.17626e-58
-4.38871e-54
-1.86258e-51
-4.44438e-51
-5.18437e-51
-3.90661e-51
-2.12302e-51
-8.8113e-52
-2.88232e-52
-7.58868e-53
-1.63318e-53
-2.90624e-54
-4.31128e-55
-5.36124e-56
-5.60816e-57
-4.70572e-61
-5.60344e-61
-1.47356e-61
-2.81871e-62
-4.60048e-63
-6.47154e-64
-8.17826e-65
-9.44998e-66
-1.02266e-66
-1.00678e-67
-9.10414e-69
-7.67369e-70
-6.03738e-71
-4.44044e-72
-3.06288e-73
-1.99435e-74
-1.22832e-75
-3.9203e-76
-7.39026e-72
-2.09476e-67
-7.44629e-63
-3.15906e-58
-1.42279e-53
-6.2274e-51
-1.53218e-50
-1.84415e-50
-1.43478e-50
-8.05497e-51
-3.45521e-51
-1.16781e-51
-3.17554e-52
-7.05733e-53
-1.29702e-53
-1.98773e-54
-2.55453e-55
-2.76247e-56
-1.98741e-60
-2.24864e-60
-5.72667e-61
-1.06705e-61
-1.70124e-62
-2.34107e-63
-2.89741e-64
-3.27619e-65
-3.46795e-66
-3.33786e-67
-2.95349e-68
-2.43239e-69
-1.86619e-70
-1.33815e-71
-8.99389e-73
-5.70198e-74
-3.41815e-75
-5.82378e-76
-9.82803e-72
-3.00063e-67
-1.22364e-62
-6.51635e-58
-4.36417e-53
-1.9882e-50
-5.05049e-50
-6.28001e-50
-5.05075e-50
-2.93271e-50
-1.30166e-50
-4.54969e-51
-1.27868e-51
-2.93644e-52
-5.57722e-53
-8.8363e-54
-1.17447e-54
-1.31404e-55
-7.94819e-60
-8.53276e-60
-2.10308e-60
-3.81221e-61
-5.92845e-62
-7.95578e-63
-9.61026e-64
-1.05911e-64
-1.09349e-65
-1.02563e-66
-8.83004e-68
-7.06339e-69
-5.25328e-70
-3.64745e-71
-2.36959e-72
-1.44908e-73
-8.36962e-75
-7.08237e-76
-7.19382e-72
-2.40347e-67
-1.20959e-62
-9.30537e-58
-1.26414e-52
-6.0488e-50
-1.58869e-49
-2.0436e-49
-1.70125e-49
-1.02298e-49
-4.70369e-50
-1.70177e-50
-4.94664e-51
-1.17456e-51
-2.30698e-52
-3.78124e-53
-5.20172e-54
-6.02621e-55
-3.00262e-59
-3.05192e-59
-7.27564e-60
-1.28082e-60
-1.93843e-61
-2.52983e-62
-2.97531e-63
-3.18389e-64
-3.19185e-65
-2.90187e-66
-2.41457e-67
-1.86101e-68
-1.32849e-69
-8.82686e-71
-5.46254e-72
-3.1629e-73
-1.72712e-74
-9.77091e-76
-2.92704e-72
-1.0748e-67
-6.34558e-63
-7.64151e-58
-3.45096e-52
-1.74941e-49
-4.75842e-49
-6.34177e-49
-5.47255e-49
-3.41253e-49
-1.62769e-49
-6.10095e-50
-1.83534e-50
-4.50862e-51
-9.16329e-52
-1.55483e-52
-2.21548e-53
-2.65982e-54
-1.06815e-58
-1.02452e-58
-2.36079e-59
-4.02541e-60
-5.90977e-61
-7.46216e-62
-8.51286e-63
-8.794e-64
-8.49703e-65
-7.42443e-66
-5.90801e-67
-4.33056e-68
-2.91602e-69
-1.81426e-70
-1.03597e-71
-5.45308e-73
-2.70199e-74
-1.20649e-75
-1.10133e-72
-4.59329e-68
-2.89464e-63
-6.41578e-58
-8.85035e-52
-4.79638e-49
-1.35363e-48
-1.87235e-48
-1.67758e-48
-1.08651e-48
-5.38383e-49
-2.09246e-49
-6.5183e-50
-1.65754e-50
-3.4881e-51
-6.13163e-52
-9.05702e-53
-1.1278e-53
-3.56621e-58
-3.21163e-58
-7.14772e-59
-1.17691e-59
-1.66569e-60
-2.02664e-61
-2.22715e-62
-2.20629e-63
-2.03251e-64
-1.68372e-65
-1.25825e-66
-8.55506e-68
-5.21651e-69
-2.9039e-70
-1.34928e-71
-5.81802e-73
-1.99052e-74
0
-5.28506e-73
-3.37895e-68
-2.80072e-63
-1.24816e-57
-2.12136e-51
-1.24253e-48
-3.64638e-48
-5.24514e-48
-4.88861e-48
-3.29435e-48
-1.69866e-48
-6.85106e-49
-2.21108e-49
-5.82327e-50
-1.26969e-50
-2.3141e-51
-3.54647e-52
-4.58474e-53
-1.11253e-57
-9.33487e-58
-2.00439e-58
-3.17499e-59
-4.31042e-60
-5.01435e-61
-5.24653e-62
-4.92502e-63
-4.2439e-64
-3.25011e-65
-2.1804e-66
-1.30361e-67
-6.1317e-69
-2.62198e-70
-2.57996e-111
0
-4.65469e-104
-2.89321e-83
-1.2432e-85
-2.02225e-68
-2.89155e-63
-2.34403e-57
-4.72639e-51
-3.02934e-48
-9.26884e-48
-1.38982e-47
-1.35043e-47
-9.48802e-48
-5.10052e-48
-2.13621e-48
-7.14516e-49
-1.94996e-49
-4.40836e-50
-8.33775e-51
-1.3271e-51
-1.783e-52
-3.22573e-57
-2.49306e-57
-5.15926e-58
-7.81664e-59
-1.0074e-59
-1.10803e-60
-1.08505e-61
-9.41784e-63
-7.2824e-64
-4.88483e-65
-2.48697e-66
-1.0564e-67
-6.29333e-91
-5.67012e-93
-1.23259e-99
7.23202e-77
-9.1575e-108
1.86885e-74
-1.53893e-89
-3.73154e-69
-3.0608e-63
-3.88255e-57
-9.72456e-51
-6.91688e-48
-2.21384e-47
-3.47037e-47
-3.5246e-47
-2.58811e-47
-1.45373e-47
-6.32516e-48
-2.19293e-48
-6.20447e-49
-1.45562e-49
-2.86005e-50
-4.73349e-51
-6.61747e-52
-8.62931e-57
-6.04157e-57
-1.2032e-57
-1.72724e-58
-2.08009e-59
-2.12118e-60
-1.8871e-61
-1.41895e-62
-8.61538e-64
-4.14988e-65
-2.75454e-96
-1.89383e-136
-1.00855e-84
-1.04058e-114
1.73375e-70
8.54692e-71
5.86478e-71
8.86828e-72
-9.87373e-87
-1.18212e-77
-2.4193e-63
-5.48324e-57
-1.8314e-50
-1.46979e-47
-4.94212e-47
-8.12878e-47
-8.65744e-47
-6.66347e-47
-3.92106e-47
-1.77228e-47
-6.36814e-48
-1.86891e-48
-4.55501e-49
-9.31011e-50
-1.60453e-50
-2.33755e-51
-2.10894e-56
-1.30579e-56
-2.49603e-57
-3.34473e-58
-3.67094e-59
-3.29684e-60
-2.46603e-61
-1.30833e-62
-3.8567e-86
-1.02204e-82
-4.00322e-95
-6.46844e-94
-4.07507e-73
0
-3.80319e-127
-1.68586e-107
-1.09521e-113
-9.53299e-113
-1.963e-75
0
-1.86148e-75
-6.22136e-57
-3.11576e-50
-2.88202e-47
-1.02405e-46
-1.77588e-46
-1.99162e-46
-1.61267e-46
-9.97347e-47
-4.67875e-47
-1.74144e-47
-5.30473e-48
-1.34507e-48
-2.86499e-49
-5.15128e-50
-7.83464e-51
-4.63803e-56
-2.45495e-56
-4.46516e-57
-5.40674e-58
-5.06168e-59
-3.36728e-60
-1.0925e-61
-1.02203e-82
-2.11857e-124
1.69324e-64
1.57204e-63
5.05832e-63
1.01721e-62
2.73668e-62
4.18186e-62
3.43909e-62
2.4262e-62
1.14553e-62
3.22265e-63
1.0673e-63
-2.6789e-99
-4.69538e-57
-4.68407e-50
-5.15095e-47
-1.95091e-46
-3.59123e-46
-4.26463e-46
-3.65016e-46
-2.38216e-46
-1.15708e-46
-4.45632e-47
-1.41036e-47
-3.72814e-48
-8.29583e-49
-1.55999e-49
-2.48273e-50
-8.96258e-56
-3.86058e-56
-6.50089e-57
-6.5599e-58
-4.20081e-59
-8.74234e-90
-3.99229e-85
7.42917e-64
3.67805e-62
1.10385e-60
1.56454e-60
1.17524e-59
6.30202e-59
3.08968e-59
7.63471e-59
1.28344e-58
1.10803e-58
6.99579e-59
3.20029e-59
1.29822e-59
5.10812e-61
-4.46762e-70
-5.95337e-50
-8.2275e-47
-3.36907e-46
-6.65097e-46
-8.43006e-46
-7.67675e-46
-5.315e-46
-2.65906e-46
-1.05786e-46
-3.48427e-47
-9.63284e-48
-2.24726e-48
-4.43466e-49
-7.40786e-50
-1.45714e-55
-4.70417e-56
-6.42022e-57
-3.00688e-58
2.95558e-110
-1.16657e-116
9.25179e-60
1.63975e-58
1.13593e-57
-1.15734e-160
-3.11409e-84
-4.97463e-96
-4.72986e-83
-1.01863e-202
-1.36394e-98
-1.41703e-78
-1.92085e-98
-5.62384e-78
-3.93879e-102
-1.24992e-93
-8.26641e-319
2.32512e-57
-5.63711e-50
-1.13199e-46
-5.15157e-46
-1.10984e-45
-1.52031e-45
-1.48706e-45
-1.1003e-45
-5.609e-46
-2.2996e-46
-7.90934e-47
-2.29907e-47
-5.65324e-48
-1.17632e-48
-2.07094e-49
-1.81162e-55
-3.52675e-56
-1.20943e-74
-9.97421e-112
6.53335e-59
-9.29338e-69
-7.34747e-82
-1.52431e-81
-2.81138e-78
2.06193e-52
1.17824e-51
4.47606e-51
1.28265e-50
2.61885e-50
4.32856e-50
4.3204e-50
3.32448e-50
1.87768e-50
6.61194e-51
1.36255e-51
9.89994e-53
-1.07167e-76
-2.17945e-51
-1.23085e-46
-6.66125e-46
-1.62188e-45
-2.45546e-45
-2.61965e-45
-2.09424e-45
-1.06364e-45
-4.48349e-46
-1.62235e-46
-5.00417e-47
-1.30782e-47
-2.8896e-48
-5.39203e-49
-1.21041e-55
-7.72816e-68
-5.96897e-78
-2.38475e-64
-2.29743e-126
-1.35854e-65
1.02358e-51
1.31767e-50
1.07459e-49
1.53136e-48
8.35741e-48
3.21834e-47
9.15541e-47
2.05767e-46
3.44399e-46
3.38481e-46
2.59268e-46
1.37933e-46
4.62571e-47
9.03575e-48
8.97846e-49
-3.51242e-57
-6.6345e-58
-7.7601e-47
-6.4181e-46
-1.94946e-45
-3.43338e-45
-4.11208e-45
-3.61607e-45
-1.73989e-45
-7.5462e-46
-2.9257e-46
-9.74565e-47
-2.74474e-47
-6.50838e-48
-1.29775e-48
-2.38314e-82
-1.26487e-316
-3.51834e-80
4.90643e-52
1.49854e-50
5.16367e-53
7.41174e-48
8.13074e-47
6.60082e-46
4.75396e-49
2.29978e-49
2.30015e-49
2.30056e-49
2.30095e-49
2.30135e-49
2.30175e-49
2.30215e-49
2.30254e-49
2.30294e-49
2.30334e-49
2.30374e-49
6.58961e-47
-9.72929e-59
-6.29148e-56
-5.21162e-47
-1.56076e-45
-3.844e-45
-5.53565e-45
-5.54223e-45
-2.203e-45
-1.00583e-45
-4.40508e-46
-1.64555e-46
-5.12024e-47
-1.32568e-47
-2.85924e-48
-7.54907e-64
4.84403e-52
4.05574e-50
3.30506e-48
8.97677e-47
8.60624e-51
8.60624e-51
8.60624e-51
8.60624e-51
8.60624e-51
3.03131e-40
1.13258e-39
3.22205e-39
6.79003e-39
1.17529e-38
1.22282e-38
9.44024e-39
5.1047e-39
1.89697e-39
3.67593e-40
4.24899e-41
3.70339e-44
-3.55492e-68
2.75874e-47
-2.42376e-54
-7.62665e-57
-2.65684e-45
-5.84041e-45
-7.23276e-45
-1.07375e-45
-7.94375e-46
-4.8713e-46
-2.26238e-46
-8.19953e-47
-2.39133e-47
-5.68954e-48
2.9229e-50
3.03787e-48
2.66361e-46
8.60624e-51
8.60624e-51
8.60624e-51
2.85337e-40
2.82499e-39
2.17976e-38
2.18866e-37
1.23093e-36
4.2308e-36
1.11653e-35
1.87826e-35
2.08466e-35
1.68293e-35
1.56379e-35
1.12018e-35
5.63532e-36
1.1293e-36
1.44381e-37
-3.92649e-101
1.85098e-42
1.23856e-43
-6.78005e-59
-2.69893e-103
-8.2582e-71
-3.43546e-45
-7.25497e-45
-8.48018e-59
-4.27505e-56
-1.60853e-46
-2.08914e-46
-1.04531e-46
-3.68186e-47
-1.00185e-47
2.0615e-46
8.60624e-51
8.60624e-51
8.60624e-51
3.01617e-39
5.96286e-38
1.13829e-36
9.71053e-36
2.64623e-35
2.46596e-37
5.91732e-37
7.25258e-37
2.36066e-36
2.27293e-36
3.05912e-36
2.27912e-36
2.29748e-36
1.51512e-180
-7.99766e-62
1.13224e-37
5.87258e-38
-1.45054e-67
4.30854e-43
1.22815e-43
8.32175e-42
6.88772e-44
-5.57086e-57
-4.74975e-55
-3.17395e-45
2.80649e-43
-1.8808e-57
-6.54833e-56
-3.69262e-57
-8.2637e-47
-4.45228e-47
-1.5062e-47
2.0615e-46
1.05937e-40
7.98594e-39
4.83703e-37
1.02034e-35
6.83293e-38
4.34154e-37
5.5428e-37
2.23057e-37
1.07707e-37
-7.66406e-70
-1.56538e-114
-3.04985e-69
-6.77384e-85
-4.44008e-125
-5.00545e-72
-7.87909e-56
-8.28701e-35
-2.35626e-35
-3.812e-98
-8.98458e-56
-5.97672e-94
1.1475e-43
1.10948e-43
9.62934e-42
3.07534e-40
1.10572e-42
-1.94662e-92
-8.89203e-65
1.11161e-42
1.54248e-42
0
-5.67205e-56
-3.20213e-58
-3.20088e-47
-1.7879e-47
6.39442e-39
5.34477e-37
2.61402e-35
4.85038e-37
3.82294e-37
2.37563e-38
1.04772e-38
-3.00719e-72
-7.52509e-76
-7.54406e-59
-7.61811e-46
-2.57729e-62
-1.52936e-41
-6.70758e-54
-1.54759e-48
-1.82572e-48
-3.0204e-72
-2.60235e-33
-1.26366e-35
-1.82206e-34
-3.76754e-42
-1.10267e-35
-1.5039e-100
-2.08719e-100
1.86283e-42
2.94161e-40
4.63028e-39
8.07902e-42
-2.89199e-99
1.05173e-42
1.42739e-41
5.61301e-42
-8.92433e-57
-9.98848e-57
-3.60863e-57
-1.3165e-47
2.67184e-35
5.22069e-37
6.38517e-37
-7.20579e-94
-2.61472e-34
-3.98568e-90
-1.20558e-84
-2.07468e-33
0
-3.29873e-46
-2.81888e-48
-7.34543e-35
-4.68991e-76
-1.13201e-50
-1.6813e-91
-1.27716e-49
0
1.1855e-65
-7.22903e-51
-6.45382e-35
-6.18263e-41
-6.60909e-34
0
-3.76754e-42
-2.61222e-35
-7.0174e-58
1.0448e-41
8.12954e-42
3.17424e-41
1.16339e-42
2.09873e-41
6.12003e-41
1.9277e-41
-4.39449e-61
-1.05804e-56
-3.70802e-60
1.01034e-35
5.22061e-37
-7.15021e-77
-5.66655e-33
-3.6406e-48
-5.30454e-68
-2.70787e-33