/*--------------------------------*- C++ -*----------------------------------*\
| =========                 |                                                 |
| \\      /  F ield         | OpenFOAM: The Open Source CFD Toolbox           |
|  \\    /   O peration     | Version:  v2012                                 |
|   \\  /    A nd           | Website:  www.openfoam.com                      |
|    \\/     M anipulation  |                                                 |
\*---------------------------------------------------------------------------*/
FoamFile
{
    version     2.0;
    format      ascii;
    class       volScalarField;
    location    "0.55";
    object      p_rgh;
}
// * * * * * * * * * * * * * * * * * * * * * * * * * * * * * * * * * * * * * //

dimensions      [1 -1 -2 0 0 0 0];


internalField   nonuniform List<scalar> 
2619
(
3.10027e+06
3.10022e+06
3.10019e+06
3.10021e+06
3.1005e+06
3.10048e+06
3.10027e+06
3.1002e+06
3.10005e+06
3.10004e+06
3.10002e+06
3.10001e+06
3.09999e+06
3.09999e+06
3.09999e+06
3.1e+06
3.09898e+06
3.09952e+06
3.09966e+06
3.09994e+06
3.10015e+06
3.10018e+06
3.10012e+06
3.10007e+06
3.10009e+06
3.10004e+06
3.10003e+06
3.10003e+06
3.10003e+06
3.10002e+06
3.1e+06
3.1e+06
3.1e+06
3.1e+06
3.09856e+06
3.09956e+06
3.09987e+06
3.09996e+06
3.10024e+06
3.10023e+06
3.10016e+06
3.10011e+06
3.10008e+06
3.10005e+06
3.10003e+06
3.10003e+06
3.10003e+06
3.10002e+06
3.10001e+06
3.1e+06
3.1e+06
3.1e+06
3.1e+06
3.09889e+06
3.09951e+06
3.09977e+06
3.09986e+06
3.10014e+06
3.10017e+06
3.1001e+06
3.10007e+06
3.10005e+06
3.10003e+06
3.10003e+06
3.10003e+06
3.10003e+06
3.10002e+06
3.10001e+06
3.1e+06
3.1e+06
3.1e+06
3.1e+06
3.09838e+06
3.09942e+06
3.0997e+06
3.09976e+06
3.10003e+06
3.10012e+06
3.10006e+06
3.10006e+06
3.10004e+06
3.10002e+06
3.10002e+06
3.10002e+06
3.10002e+06
3.10002e+06
3.10001e+06
3.1e+06
3.1e+06
3.1e+06
3.1e+06
3.09737e+06
3.09879e+06
3.0994e+06
3.0996e+06
3.09959e+06
3.09973e+06
3.10005e+06
3.10008e+06
3.10003e+06
3.10002e+06
3.10002e+06
3.10003e+06
3.10002e+06
3.10002e+06
3.10001e+06
3.1e+06
3.1e+06
3.1e+06
3.1e+06
3.09783e+06
3.09907e+06
3.0996e+06
3.09993e+06
3.09956e+06
3.0997e+06
3.09998e+06
3.10005e+06
3.10003e+06
3.10004e+06
3.10003e+06
3.10003e+06
3.10002e+06
3.10002e+06
3.1e+06
3.1e+06
3.1e+06
3.1e+06
3.1e+06
3.0979e+06
3.09842e+06
3.0987e+06
3.09929e+06
3.09942e+06
3.09964e+06
3.09958e+06
3.09969e+06
3.09999e+06
3.10004e+06
3.10003e+06
3.10004e+06
3.10003e+06
3.10002e+06
3.10001e+06
3.1e+06
3.1e+06
3.1e+06
3.1e+06
3.099e+06
3.09117e+06
3.08886e+06
3.09213e+06
3.09863e+06
3.1e+06
3.09949e+06
3.09966e+06
3.09997e+06
3.10004e+06
3.10003e+06
3.10003e+06
3.10002e+06
3.10002e+06
3.1e+06
3.1e+06
3.1e+06
3.1e+06
3.1e+06
3.08897e+06
3.08966e+06
3.08805e+06
3.09146e+06
3.09844e+06
3.0999e+06
3.09943e+06
3.09962e+06
3.09992e+06
3.10002e+06
3.10002e+06
3.10003e+06
3.10001e+06
3.10001e+06
3.1e+06
3.1e+06
3.1e+06
3.1e+06
3.1e+06
3.09048e+06
3.09015e+06
3.08826e+06
3.09162e+06
3.09829e+06
3.09987e+06
3.09936e+06
3.09958e+06
3.09989e+06
3.1e+06
3.10001e+06
3.10001e+06
3.1e+06
3.1e+06
3.1e+06
3.1e+06
3.1e+06
3.1e+06
3.1e+06
3.08913e+06
3.08978e+06
3.08833e+06
3.09175e+06
3.09868e+06
3.10025e+06
3.09943e+06
3.09966e+06
3.0999e+06
3.10001e+06
3.09999e+06
3.1e+06
3.09999e+06
3.1e+06
3.1e+06
3.1e+06
3.1e+06
3.1e+06
3.1e+06
3.1e+06
3.1e+06
3.1e+06
3.10001e+06
3.08825e+06
3.089e+06
3.08788e+06
3.09117e+06
3.09767e+06
3.09928e+06
3.09906e+06
3.09948e+06
3.09978e+06
3.09996e+06
3.09997e+06
3.09999e+06
3.09999e+06
3.1e+06
3.1e+06
3.1e+06
3.1e+06
3.1e+06
3.1e+06
3.10001e+06
3.10001e+06
3.10001e+06
3.10001e+06
3.09139e+06
3.09042e+06
3.09027e+06
3.09129e+06
3.09058e+06
3.0928e+06
3.0987e+06
3.1003e+06
3.09989e+06
3.10007e+06
3.10001e+06
3.10001e+06
3.1e+06
3.1e+06
3.1e+06
3.10001e+06
3.10001e+06
3.10001e+06
3.10001e+06
3.10001e+06
3.10001e+06
3.10001e+06
3.10001e+06
3.08926e+06
3.08844e+06
3.08883e+06
3.08939e+06
3.08914e+06
3.09131e+06
3.09737e+06
3.09924e+06
3.09952e+06
3.09997e+06
3.09994e+06
3.09998e+06
3.09999e+06
3.1e+06
3.1e+06
3.10001e+06
3.10001e+06
3.10001e+06
3.10001e+06
3.10001e+06
3.10001e+06
3.10001e+06
3.10001e+06
3.09081e+06
3.09114e+06
3.09195e+06
3.09162e+06
3.09117e+06
3.09132e+06
3.09115e+06
3.0934e+06
3.09869e+06
3.10027e+06
3.09995e+06
3.10003e+06
3.10001e+06
3.10001e+06
3.10001e+06
3.10002e+06
3.10002e+06
3.10002e+06
3.10002e+06
3.10002e+06
3.10002e+06
3.10002e+06
3.10002e+06
3.0884e+06
3.10999e+06
3.11717e+06
3.10958e+06
3.09269e+06
3.08966e+06
3.09019e+06
3.09239e+06
3.0984e+06
3.10019e+06
3.09989e+06
3.10001e+06
3.1e+06
3.10002e+06
3.10002e+06
3.10002e+06
3.10002e+06
3.10002e+06
3.10002e+06
3.10002e+06
3.10002e+06
3.10002e+06
3.10002e+06
3.11432e+06
3.11398e+06
3.11934e+06
3.11155e+06
3.09342e+06
3.09011e+06
3.0908e+06
3.09285e+06
3.09856e+06
3.1003e+06
3.09994e+06
3.10003e+06
3.10001e+06
3.10003e+06
3.10003e+06
3.10003e+06
3.10003e+06
3.10003e+06
3.10003e+06
3.10003e+06
3.10003e+06
3.10002e+06
3.10002e+06
3.11174e+06
3.1128e+06
3.11883e+06
3.11108e+06
3.09377e+06
3.09018e+06
3.09092e+06
3.09286e+06
3.09858e+06
3.10033e+06
3.09997e+06
3.10006e+06
3.10004e+06
3.10004e+06
3.10004e+06
3.10004e+06
3.10004e+06
3.10004e+06
3.10003e+06
3.10003e+06
3.10003e+06
3.10003e+06
3.10003e+06
3.11429e+06
3.11363e+06
3.11859e+06
3.11072e+06
3.0928e+06
3.08918e+06
3.0907e+06
3.09265e+06
3.09856e+06
3.10031e+06
3.09997e+06
3.10006e+06
3.10005e+06
3.10005e+06
3.10005e+06
3.10005e+06
3.10005e+06
3.10004e+06
3.10004e+06
3.10004e+06
3.10004e+06
3.10003e+06
3.10003e+06
3.11743e+06
3.11546e+06
3.11968e+06
3.11218e+06
3.09537e+06
3.09152e+06
3.09162e+06
3.09311e+06
3.09889e+06
3.10043e+06
3.10003e+06
3.10008e+06
3.10006e+06
3.10007e+06
3.10006e+06
3.10006e+06
3.10005e+06
3.10005e+06
3.10005e+06
3.10004e+06
3.10004e+06
3.10004e+06
3.10003e+06
3.11359e+06
3.11436e+06
3.11489e+06
3.11236e+06
3.11439e+06
3.1089e+06
3.09245e+06
3.09107e+06
3.09856e+06
3.10003e+06
3.09993e+06
3.10004e+06
3.10006e+06
3.10007e+06
3.10007e+06
3.10007e+06
3.10006e+06
3.10006e+06
3.10005e+06
3.10005e+06
3.10004e+06
3.10004e+06
3.10004e+06
3.11768e+06
3.11806e+06
3.1176e+06
3.11578e+06
3.11788e+06
3.11234e+06
3.09571e+06
3.09371e+06
3.09946e+06
3.10031e+06
3.10014e+06
3.10013e+06
3.10011e+06
3.10009e+06
3.10008e+06
3.10008e+06
3.10007e+06
3.10006e+06
3.10006e+06
3.10005e+06
3.10005e+06
3.10004e+06
3.10004e+06
3.11345e+06
3.11392e+06
3.11321e+06
3.11281e+06
3.11349e+06
3.11249e+06
3.11258e+06
3.10944e+06
3.10164e+06
3.0996e+06
3.10007e+06
3.09994e+06
3.10007e+06
3.10008e+06
3.10008e+06
3.10008e+06
3.10007e+06
3.10007e+06
3.10006e+06
3.10006e+06
3.10005e+06
3.10005e+06
3.10004e+06
3.1167e+06
3.09559e+06
3.08848e+06
3.09568e+06
3.11283e+06
3.11504e+06
3.11518e+06
3.1119e+06
3.10234e+06
3.09981e+06
3.10024e+06
3.10002e+06
3.10012e+06
3.1001e+06
3.1001e+06
3.10009e+06
3.10008e+06
3.10007e+06
3.10007e+06
3.10006e+06
3.10005e+06
3.10005e+06
3.10004e+06
3.09049e+06
3.0916e+06
3.08618e+06
3.09347e+06
3.11161e+06
3.11419e+06
3.11393e+06
3.11084e+06
3.10205e+06
3.09956e+06
3.10016e+06
3.09997e+06
3.10012e+06
3.1001e+06
3.1001e+06
3.10009e+06
3.10008e+06
3.10007e+06
3.10007e+06
3.10006e+06
3.10006e+06
3.10005e+06
3.10004e+06
3.09298e+06
3.09287e+06
3.08674e+06
3.09405e+06
3.11139e+06
3.11428e+06
3.114e+06
3.11099e+06
3.10213e+06
3.09957e+06
3.10016e+06
3.09996e+06
3.10011e+06
3.1001e+06
3.1001e+06
3.10009e+06
3.10009e+06
3.10008e+06
3.10007e+06
3.10007e+06
3.10006e+06
3.10005e+06
3.10005e+06
3.09051e+06
3.092e+06
3.08699e+06
3.09437e+06
3.11228e+06
3.11528e+06
3.11424e+06
3.11125e+06
3.10217e+06
3.09958e+06
3.10017e+06
3.09998e+06
3.10011e+06
3.1001e+06
3.1001e+06
3.10009e+06
3.10009e+06
3.10008e+06
3.10007e+06
3.10007e+06
3.10006e+06
3.10005e+06
3.10005e+06
3.08738e+06
3.09039e+06
3.08602e+06
3.09303e+06
3.10985e+06
3.11308e+06
3.11343e+06
3.11084e+06
3.10189e+06
3.09951e+06
3.10015e+06
3.09999e+06
3.10012e+06
3.1001e+06
3.10011e+06
3.1001e+06
3.10009e+06
3.10008e+06
3.10008e+06
3.10007e+06
3.10006e+06
3.10006e+06
3.10005e+06
3.09006e+06
3.09065e+06
3.09035e+06
3.09273e+06
3.09086e+06
3.09584e+06
3.11263e+06
3.11286e+06
3.10228e+06
3.09999e+06
3.10026e+06
3.10004e+06
3.10012e+06
3.1001e+06
3.1001e+06
3.1001e+06
3.10009e+06
3.10009e+06
3.10008e+06
3.10007e+06
3.10007e+06
3.10006e+06
3.10005e+06
3.08631e+06
3.0874e+06
3.08795e+06
3.0898e+06
3.08753e+06
3.09263e+06
3.10952e+06
3.11032e+06
3.10143e+06
3.09973e+06
3.10007e+06
3.09998e+06
3.10009e+06
3.1001e+06
3.10011e+06
3.1001e+06
3.1001e+06
3.10009e+06
3.10008e+06
3.10008e+06
3.10007e+06
3.10006e+06
3.10005e+06
3.09089e+06
3.09079e+06
3.09141e+06
3.09195e+06
3.09162e+06
3.09243e+06
3.0927e+06
3.09468e+06
3.09927e+06
3.10044e+06
3.10018e+06
3.10021e+06
3.10015e+06
3.10012e+06
3.10011e+06
3.1001e+06
3.1001e+06
3.10009e+06
3.10009e+06
3.10008e+06
3.10007e+06
3.10006e+06
3.10006e+06
3.08865e+06
3.10027e+06
3.10431e+06
3.10043e+06
3.09149e+06
3.0905e+06
3.09017e+06
3.09235e+06
3.09863e+06
3.10028e+06
3.10005e+06
3.10018e+06
3.10012e+06
3.10012e+06
3.10012e+06
3.10011e+06
3.10011e+06
3.1001e+06
3.10009e+06
3.10008e+06
3.10007e+06
3.10006e+06
3.10006e+06
3.10326e+06
3.10261e+06
3.10578e+06
3.10188e+06
3.09252e+06
3.09127e+06
3.0913e+06
3.09336e+06
3.0989e+06
3.10053e+06
3.10012e+06
3.10022e+06
3.10013e+06
3.10013e+06
3.10012e+06
3.10012e+06
3.10011e+06
3.1001e+06
3.10009e+06
3.10008e+06
3.10007e+06
3.10007e+06
3.10006e+06
3.10172e+06
3.10196e+06
3.10556e+06
3.1016e+06
3.09267e+06
3.09122e+06
3.09124e+06
3.09328e+06
3.09889e+06
3.10058e+06
3.10018e+06
3.10028e+06
3.10017e+06
3.10016e+06
3.10014e+06
3.10013e+06
3.10012e+06
3.10011e+06
3.1001e+06
3.10009e+06
3.10008e+06
3.10007e+06
3.10006e+06
3.10306e+06
3.10235e+06
3.10534e+06
3.1014e+06
3.09212e+06
3.09062e+06
3.09104e+06
3.09309e+06
3.09882e+06
3.10055e+06
3.10015e+06
3.10026e+06
3.10017e+06
3.10016e+06
3.10014e+06
3.10013e+06
3.10013e+06
3.10011e+06
3.1001e+06
3.10009e+06
3.10008e+06
3.10007e+06
3.10006e+06
3.10527e+06
3.10354e+06
3.10618e+06
3.10242e+06
3.09372e+06
3.09204e+06
3.09167e+06
3.09347e+06
3.09911e+06
3.10071e+06
3.10026e+06
3.10034e+06
3.10023e+06
3.10021e+06
3.10018e+06
3.10016e+06
3.10014e+06
3.10012e+06
3.10011e+06
3.10009e+06
3.10008e+06
3.10007e+06
3.10006e+06
3.10391e+06
3.10336e+06
3.10367e+06
3.10246e+06
3.10351e+06
3.10086e+06
3.09197e+06
3.09223e+06
3.09882e+06
3.10041e+06
3.10014e+06
3.10028e+06
3.1002e+06
3.1002e+06
3.10018e+06
3.10016e+06
3.10014e+06
3.10012e+06
3.10011e+06
3.10009e+06
3.10008e+06
3.10007e+06
3.10006e+06
3.10637e+06
3.10554e+06
3.10554e+06
3.10448e+06
3.1059e+06
3.10306e+06
3.09409e+06
3.09397e+06
3.09959e+06
3.1008e+06
3.10045e+06
3.10047e+06
3.10034e+06
3.10029e+06
3.10024e+06
3.1002e+06
3.10017e+06
3.10014e+06
3.10012e+06
3.1001e+06
3.10008e+06
3.10007e+06
3.10005e+06
3.10317e+06
3.10323e+06
3.10343e+06
3.10304e+06
3.1033e+06
3.10284e+06
3.1026e+06
3.10187e+06
3.10054e+06
3.10024e+06
3.10028e+06
3.10028e+06
3.10025e+06
3.10024e+06
3.10021e+06
3.10018e+06
3.10016e+06
3.10014e+06
3.10011e+06
3.10009e+06
3.10008e+06
3.10006e+06
3.10005e+06
3.10552e+06
3.10209e+06
3.10165e+06
3.10244e+06
3.10458e+06
3.10457e+06
3.10479e+06
3.10379e+06
3.10146e+06
3.10077e+06
3.10071e+06
3.10056e+06
3.10046e+06
3.10038e+06
3.1003e+06
3.10024e+06
3.1002e+06
3.10016e+06
3.10012e+06
3.1001e+06
3.10008e+06
3.10006e+06
3.10005e+06
3.10062e+06
3.10022e+06
3.10014e+06
3.10093e+06
3.10327e+06
3.10341e+06
3.10356e+06
3.10266e+06
3.10087e+06
3.10026e+06
3.10039e+06
3.10033e+06
3.10031e+06
3.10027e+06
3.10024e+06
3.1002e+06
3.10017e+06
3.10014e+06
3.10011e+06
3.10009e+06
3.10007e+06
3.10005e+06
3.10004e+06
3.10331e+06
3.10227e+06
3.10225e+06
3.1028e+06
3.10501e+06
3.105e+06
3.10502e+06
3.10387e+06
3.10187e+06
3.10101e+06
3.10098e+06
3.10075e+06
3.10062e+06
3.10048e+06
3.10038e+06
3.10028e+06
3.10022e+06
3.10016e+06
3.10012e+06
3.10009e+06
3.10007e+06
3.10005e+06
3.10003e+06
3.10112e+06
3.10015e+06
3.10053e+06
3.10098e+06
3.10361e+06
3.10362e+06
3.10385e+06
3.10276e+06
3.10101e+06
3.10024e+06
3.10044e+06
3.10032e+06
3.10032e+06
3.10026e+06
3.10023e+06
3.10019e+06
3.10016e+06
3.10012e+06
3.10009e+06
3.10007e+06
3.10005e+06
3.10003e+06
3.10002e+06
3.10456e+06
3.10342e+06
3.1041e+06
3.10404e+06
3.10637e+06
3.10595e+06
3.10619e+06
3.10468e+06
3.10265e+06
3.10148e+06
3.10144e+06
3.10101e+06
3.10083e+06
3.10058e+06
3.10045e+06
3.10031e+06
3.10022e+06
3.10015e+06
3.1001e+06
3.10007e+06
3.10004e+06
3.10003e+06
3.10001e+06
3.10164e+06
3.09969e+06
3.10152e+06
3.10036e+06
3.10121e+06
3.10093e+06
3.10376e+06
3.10275e+06
3.10106e+06
3.10005e+06
3.10043e+06
3.10018e+06
3.10027e+06
3.10016e+06
3.10018e+06
3.10012e+06
3.1001e+06
3.10007e+06
3.10005e+06
3.10003e+06
3.10002e+06
3.10001e+06
3.1e+06
3.10951e+06
3.10628e+06
3.10872e+06
3.10628e+06
3.10689e+06
3.10532e+06
3.10784e+06
3.10578e+06
3.10389e+06
3.10209e+06
3.10206e+06
3.10125e+06
3.10106e+06
3.10064e+06
3.10049e+06
3.10028e+06
3.10019e+06
3.1001e+06
3.10006e+06
3.10002e+06
3.10001e+06
3.09999e+06
3.09999e+06
3.10424e+06
3.09942e+06
3.10312e+06
3.09962e+06
3.10217e+06
3.09937e+06
3.10154e+06
3.09957e+06
3.10059e+06
3.09945e+06
3.10024e+06
3.09975e+06
3.10009e+06
3.09991e+06
3.10003e+06
3.09997e+06
3.1e+06
3.09998e+06
3.09998e+06
3.09997e+06
3.09997e+06
3.09997e+06
3.09997e+06
3.12205e+06
3.11339e+06
3.11892e+06
3.11176e+06
3.11495e+06
3.10822e+06
3.10983e+06
3.10497e+06
3.1056e+06
3.10266e+06
3.10283e+06
3.10132e+06
3.10123e+06
3.10055e+06
3.10044e+06
3.10017e+06
3.10011e+06
3.10001e+06
3.09999e+06
3.09996e+06
3.09995e+06
3.09995e+06
3.09995e+06
3.11279e+06
3.09905e+06
3.10926e+06
3.09795e+06
3.1055e+06
3.09597e+06
3.10229e+06
3.09662e+06
3.10045e+06
3.09777e+06
3.09984e+06
3.09883e+06
3.09971e+06
3.09943e+06
3.09976e+06
3.09971e+06
3.09983e+06
3.09984e+06
3.09988e+06
3.09989e+06
3.09991e+06
3.09992e+06
3.09993e+06
3.15439e+06
3.12965e+06
3.14642e+06
3.12448e+06
3.13408e+06
3.11194e+06
3.11835e+06
3.10531e+06
3.10846e+06
3.1021e+06
3.10342e+06
3.10075e+06
3.10113e+06
3.10016e+06
3.10023e+06
3.09993e+06
3.09995e+06
3.09987e+06
3.09989e+06
3.09988e+06
3.0999e+06
3.09991e+06
3.09992e+06
3.15809e+06
3.09889e+06
3.13767e+06
3.09548e+06
3.11796e+06
3.08201e+06
3.10501e+06
3.08866e+06
3.10037e+06
3.09415e+06
3.0992e+06
3.09729e+06
3.09918e+06
3.09876e+06
3.09943e+06
3.09941e+06
3.09964e+06
3.09969e+06
3.09978e+06
3.09981e+06
3.09985e+06
3.09988e+06
3.0999e+06
3.26944e+06
3.17468e+06
3.22703e+06
3.16365e+06
3.18964e+06
3.10486e+06
3.12894e+06
3.09785e+06
3.10933e+06
3.09814e+06
3.10256e+06
3.09892e+06
3.10037e+06
3.09936e+06
3.0998e+06
3.09958e+06
3.09973e+06
3.09972e+06
3.09978e+06
3.09981e+06
3.09985e+06
3.09987e+06
3.09989e+06
3.93122e+06
3.08565e+06
3.27392e+06
3.10868e+06
3.16213e+06
3.00659e+06
3.10782e+06
3.07137e+06
3.10057e+06
3.08956e+06
3.09877e+06
3.09602e+06
3.09887e+06
3.09837e+06
3.09925e+06
3.09925e+06
3.09954e+06
3.09961e+06
3.09972e+06
3.09977e+06
3.09982e+06
3.09986e+06
3.09989e+06
4.00008e+06
3.31082e+06
3.45646e+06
3.36481e+06
3.39525e+06
4.00122e+06
3.4383e+06
3.59329e+06
3.50781e+06
3.54179e+06
4.00132e+06
3.40705e+06
3.61915e+06
3.55127e+06
3.5788e+06
4.00065e+06
3.99867e+06
3.99641e+06
3.91352e+06
3.98183e+06
4.00068e+06
4.00087e+06
4.00111e+06
4.00147e+06
4.00188e+06
4.00176e+06
4.00179e+06
4.00185e+06
4.00197e+06
4.0021e+06
4.00204e+06
4.00205e+06
4.0021e+06
4.00216e+06
4.00296e+06
4.00219e+06
4.00226e+06
4.00267e+06
6.17503e+06
6.82992e+06
4.00238e+06
4.015e+06
4.00223e+06
4.00236e+06
4.0023e+06
4.00253e+06
4.00249e+06
1.00365e+07
6.10256e+06
7.51425e+06
4.00231e+06
4.00223e+06
4.0023e+06
4.92695e+06
4.84759e+06
4.00311e+06
4.00269e+06
7.52502e+06
6.22631e+06
5.98358e+06
4.0022e+06
6.64111e+06
4.00236e+06
6.38357e+06
6.77071e+06
4.00221e+06
7.65485e+06
7.09395e+06
6.90812e+06
6.33385e+06
4.00297e+06
4.00286e+06
4.77727e+06
4.00242e+06
4.77352e+06
4.00238e+06
4.00289e+06
6.0454e+06
5.89428e+06
5.94761e+06
4.00216e+06
4.0022e+06
5.00098e+06
4.99936e+06
4.00221e+06
4.00208e+06
4.0021e+06
4.00219e+06
4.00219e+06
4.00219e+06
3.99849e+06
4.00216e+06
4.0025e+06
4.00249e+06
4.00219e+06
4.19328e+06
4.2847e+06
4.0988e+06
4.06227e+06
4.00136e+06
4.00498e+06
4.03275e+06
4.10919e+06
4.08538e+06
4.09443e+06
4.0112e+06
4.0214e+06
4.01509e+06
4.00853e+06
4.00068e+06
4.01329e+06
4.01149e+06
4.01181e+06
4.00241e+06
4.00612e+06
3.0998e+06
3.10027e+06
3.10022e+06
3.10019e+06
3.10021e+06
3.1005e+06
3.10048e+06
3.10027e+06
3.1002e+06
3.10005e+06
3.10004e+06
3.10002e+06
3.10001e+06
3.09999e+06
3.09999e+06
3.09999e+06
3.1e+06
3.09898e+06
3.09952e+06
3.09966e+06
3.09994e+06
3.10015e+06
3.10018e+06
3.10012e+06
3.10007e+06
3.10009e+06
3.10004e+06
3.10003e+06
3.10003e+06
3.10003e+06
3.10002e+06
3.1e+06
3.1e+06
3.1e+06
3.1e+06
3.09856e+06
3.09956e+06
3.09987e+06
3.09996e+06
3.10024e+06
3.10023e+06
3.10016e+06
3.10011e+06
3.10008e+06
3.10005e+06
3.10003e+06
3.10003e+06
3.10003e+06
3.10002e+06
3.10001e+06
3.1e+06
3.1e+06
3.1e+06
3.1e+06
3.09889e+06
3.09951e+06
3.09977e+06
3.09986e+06
3.10014e+06
3.10017e+06
3.1001e+06
3.10007e+06
3.10005e+06
3.10003e+06
3.10003e+06
3.10003e+06
3.10003e+06
3.10002e+06
3.10001e+06
3.1e+06
3.1e+06
3.1e+06
3.1e+06
3.09838e+06
3.09942e+06
3.0997e+06
3.09976e+06
3.10003e+06
3.10012e+06
3.10006e+06
3.10006e+06
3.10004e+06
3.10002e+06
3.10002e+06
3.10002e+06
3.10002e+06
3.10002e+06
3.10001e+06
3.1e+06
3.1e+06
3.1e+06
3.1e+06
3.09737e+06
3.09879e+06
3.0994e+06
3.0996e+06
3.09959e+06
3.09973e+06
3.10005e+06
3.10008e+06
3.10003e+06
3.10002e+06
3.10002e+06
3.10003e+06
3.10002e+06
3.10002e+06
3.10001e+06
3.1e+06
3.1e+06
3.1e+06
3.1e+06
3.09783e+06
3.09907e+06
3.0996e+06
3.09993e+06
3.09956e+06
3.0997e+06
3.09998e+06
3.10005e+06
3.10003e+06
3.10004e+06
3.10003e+06
3.10003e+06
3.10002e+06
3.10002e+06
3.1e+06
3.1e+06
3.1e+06
3.1e+06
3.1e+06
3.0979e+06
3.09842e+06
3.0987e+06
3.09929e+06
3.09942e+06
3.09964e+06
3.09958e+06
3.09969e+06
3.09999e+06
3.10004e+06
3.10003e+06
3.10004e+06
3.10003e+06
3.10002e+06
3.10001e+06
3.1e+06
3.1e+06
3.1e+06
3.1e+06
3.099e+06
3.09117e+06
3.08886e+06
3.09213e+06
3.09863e+06
3.1e+06
3.09949e+06
3.09966e+06
3.09997e+06
3.10004e+06
3.10003e+06
3.10003e+06
3.10002e+06
3.10002e+06
3.1e+06
3.1e+06
3.1e+06
3.1e+06
3.1e+06
3.08897e+06
3.08966e+06
3.08805e+06
3.09146e+06
3.09844e+06
3.0999e+06
3.09943e+06
3.09962e+06
3.09992e+06
3.10002e+06
3.10002e+06
3.10003e+06
3.10001e+06
3.10001e+06
3.1e+06
3.1e+06
3.1e+06
3.1e+06
3.1e+06
3.09048e+06
3.09015e+06
3.08826e+06
3.09162e+06
3.09829e+06
3.09987e+06
3.09936e+06
3.09958e+06
3.09989e+06
3.1e+06
3.10001e+06
3.10001e+06
3.1e+06
3.1e+06
3.1e+06
3.1e+06
3.1e+06
3.1e+06
3.1e+06
3.08913e+06
3.08978e+06
3.08833e+06
3.09175e+06
3.09868e+06
3.10025e+06
3.09943e+06
3.09966e+06
3.0999e+06
3.10001e+06
3.09999e+06
3.1e+06
3.09999e+06
3.1e+06
3.1e+06
3.1e+06
3.1e+06
3.1e+06
3.1e+06
3.1e+06
3.1e+06
3.1e+06
3.10001e+06
3.08825e+06
3.089e+06
3.08788e+06
3.09117e+06
3.09767e+06
3.09928e+06
3.09906e+06
3.09948e+06
3.09978e+06
3.09996e+06
3.09997e+06
3.09999e+06
3.09999e+06
3.1e+06
3.1e+06
3.1e+06
3.1e+06
3.1e+06
3.1e+06
3.10001e+06
3.10001e+06
3.10001e+06
3.10001e+06
3.09139e+06
3.09042e+06
3.09027e+06
3.09129e+06
3.09058e+06
3.0928e+06
3.0987e+06
3.1003e+06
3.09988e+06
3.10007e+06
3.10001e+06
3.10001e+06
3.1e+06
3.1e+06
3.1e+06
3.10001e+06
3.10001e+06
3.10001e+06
3.10001e+06
3.10001e+06
3.10001e+06
3.10001e+06
3.10001e+06
3.08926e+06
3.08844e+06
3.08883e+06
3.08939e+06
3.08914e+06
3.09131e+06
3.09737e+06
3.09924e+06
3.09952e+06
3.09997e+06
3.09994e+06
3.09998e+06
3.09999e+06
3.1e+06
3.1e+06
3.10001e+06
3.10001e+06
3.10001e+06
3.10001e+06
3.10001e+06
3.10001e+06
3.10001e+06
3.10001e+06
3.09081e+06
3.09114e+06
3.09195e+06
3.09162e+06
3.09117e+06
3.09132e+06
3.09115e+06
3.0934e+06
3.09869e+06
3.10027e+06
3.09995e+06
3.10003e+06
3.10001e+06
3.10001e+06
3.10001e+06
3.10002e+06
3.10002e+06
3.10002e+06
3.10002e+06
3.10002e+06
3.10002e+06
3.10002e+06
3.10002e+06
3.0884e+06
3.10999e+06
3.11717e+06
3.10958e+06
3.09269e+06
3.08966e+06
3.09019e+06
3.09239e+06
3.0984e+06
3.10018e+06
3.09989e+06
3.10001e+06
3.1e+06
3.10002e+06
3.10002e+06
3.10002e+06
3.10002e+06
3.10002e+06
3.10002e+06
3.10002e+06
3.10002e+06
3.10002e+06
3.10002e+06
3.11432e+06
3.11398e+06
3.11934e+06
3.11155e+06
3.09342e+06
3.09011e+06
3.0908e+06
3.09285e+06
3.09856e+06
3.1003e+06
3.09994e+06
3.10003e+06
3.10001e+06
3.10003e+06
3.10003e+06
3.10003e+06
3.10003e+06
3.10003e+06
3.10003e+06
3.10003e+06
3.10003e+06
3.10002e+06
3.10002e+06
3.11174e+06
3.11281e+06
3.11883e+06
3.11108e+06
3.09377e+06
3.09018e+06
3.09092e+06
3.09286e+06
3.09858e+06
3.10033e+06
3.09997e+06
3.10006e+06
3.10004e+06
3.10004e+06
3.10004e+06
3.10004e+06
3.10004e+06
3.10004e+06
3.10003e+06
3.10003e+06
3.10003e+06
3.10003e+06
3.10003e+06
3.11429e+06
3.11363e+06
3.11859e+06
3.11072e+06
3.0928e+06
3.08918e+06
3.0907e+06
3.09265e+06
3.09856e+06
3.10031e+06
3.09997e+06
3.10006e+06
3.10005e+06
3.10005e+06
3.10005e+06
3.10005e+06
3.10005e+06
3.10004e+06
3.10004e+06
3.10004e+06
3.10004e+06
3.10003e+06
3.10003e+06
3.11743e+06
3.11546e+06
3.11968e+06
3.11218e+06
3.09537e+06
3.09152e+06
3.09162e+06
3.09311e+06
3.09889e+06
3.10043e+06
3.10003e+06
3.10008e+06
3.10006e+06
3.10007e+06
3.10006e+06
3.10006e+06
3.10005e+06
3.10005e+06
3.10005e+06
3.10004e+06
3.10004e+06
3.10004e+06
3.10003e+06
3.11359e+06
3.11436e+06
3.11489e+06
3.11236e+06
3.11439e+06
3.1089e+06
3.09245e+06
3.09107e+06
3.09856e+06
3.10003e+06
3.09993e+06
3.10004e+06
3.10006e+06
3.10007e+06
3.10007e+06
3.10007e+06
3.10006e+06
3.10006e+06
3.10005e+06
3.10005e+06
3.10004e+06
3.10004e+06
3.10004e+06
3.11768e+06
3.11806e+06
3.1176e+06
3.11578e+06
3.11788e+06
3.11234e+06
3.09571e+06
3.09371e+06
3.09946e+06
3.10031e+06
3.10014e+06
3.10013e+06
3.10011e+06
3.10009e+06
3.10008e+06
3.10008e+06
3.10007e+06
3.10006e+06
3.10006e+06
3.10005e+06
3.10005e+06
3.10004e+06
3.10004e+06
3.11345e+06
3.11392e+06
3.11321e+06
3.11281e+06
3.11349e+06
3.11249e+06
3.11258e+06
3.10944e+06
3.10164e+06
3.0996e+06
3.10007e+06
3.09994e+06
3.10007e+06
3.10008e+06
3.10008e+06
3.10008e+06
3.10007e+06
3.10007e+06
3.10006e+06
3.10006e+06
3.10005e+06
3.10005e+06
3.10004e+06
3.1167e+06
3.09559e+06
3.08848e+06
3.09568e+06
3.11283e+06
3.11504e+06
3.11518e+06
3.1119e+06
3.10234e+06
3.09981e+06
3.10024e+06
3.10002e+06
3.10012e+06
3.1001e+06
3.1001e+06
3.10009e+06
3.10008e+06
3.10007e+06
3.10007e+06
3.10006e+06
3.10005e+06
3.10005e+06
3.10004e+06
3.09049e+06
3.0916e+06
3.08618e+06
3.09347e+06
3.11161e+06
3.11419e+06
3.11393e+06
3.11084e+06
3.10205e+06
3.09956e+06
3.10016e+06
3.09997e+06
3.10012e+06
3.1001e+06
3.1001e+06
3.10009e+06
3.10008e+06
3.10007e+06
3.10007e+06
3.10006e+06
3.10006e+06
3.10005e+06
3.10004e+06
3.09298e+06
3.09287e+06
3.08674e+06
3.09405e+06
3.11139e+06
3.11428e+06
3.114e+06
3.11099e+06
3.10213e+06
3.09957e+06
3.10016e+06
3.09996e+06
3.10011e+06
3.1001e+06
3.1001e+06
3.10009e+06
3.10009e+06
3.10008e+06
3.10007e+06
3.10007e+06
3.10006e+06
3.10005e+06
3.10005e+06
3.09051e+06
3.092e+06
3.08699e+06
3.09437e+06
3.11228e+06
3.11527e+06
3.11424e+06
3.11124e+06
3.10217e+06
3.09958e+06
3.10017e+06
3.09998e+06
3.10011e+06
3.1001e+06
3.1001e+06
3.10009e+06
3.10009e+06
3.10008e+06
3.10007e+06
3.10007e+06
3.10006e+06
3.10005e+06
3.10005e+06
3.08738e+06
3.09039e+06
3.08602e+06
3.09304e+06
3.10985e+06
3.11308e+06
3.11343e+06
3.11084e+06
3.10189e+06
3.09951e+06
3.10015e+06
3.09999e+06
3.10012e+06
3.1001e+06
3.10011e+06
3.1001e+06
3.10009e+06
3.10008e+06
3.10008e+06
3.10007e+06
3.10006e+06
3.10006e+06
3.10005e+06
3.09006e+06
3.09065e+06
3.09035e+06
3.09273e+06
3.09086e+06
3.09585e+06
3.11263e+06
3.11286e+06
3.10228e+06
3.09999e+06
3.10026e+06
3.10004e+06
3.10012e+06
3.1001e+06
3.1001e+06
3.1001e+06
3.10009e+06
3.10009e+06
3.10008e+06
3.10007e+06
3.10007e+06
3.10006e+06
3.10005e+06
3.08631e+06
3.0874e+06
3.08795e+06
3.0898e+06
3.08753e+06
3.09263e+06
3.10952e+06
3.11032e+06
3.10143e+06
3.09973e+06
3.10007e+06
3.09998e+06
3.10009e+06
3.1001e+06
3.10011e+06
3.1001e+06
3.1001e+06
3.10009e+06
3.10008e+06
3.10008e+06
3.10007e+06
3.10006e+06
3.10005e+06
3.09089e+06
3.09079e+06
3.09141e+06
3.09195e+06
3.09162e+06
3.09243e+06
3.0927e+06
3.09468e+06
3.09927e+06
3.10044e+06
3.10018e+06
3.10021e+06
3.10015e+06
3.10012e+06
3.10011e+06
3.1001e+06
3.1001e+06
3.10009e+06
3.10009e+06
3.10008e+06
3.10007e+06
3.10006e+06
3.10006e+06
3.08865e+06
3.10027e+06
3.10431e+06
3.10043e+06
3.09149e+06
3.0905e+06
3.09017e+06
3.09235e+06
3.09863e+06
3.10028e+06
3.10005e+06
3.10018e+06
3.10012e+06
3.10012e+06
3.10012e+06
3.10011e+06
3.10011e+06
3.1001e+06
3.10009e+06
3.10008e+06
3.10007e+06
3.10006e+06
3.10006e+06
3.10326e+06
3.10261e+06
3.10578e+06
3.10188e+06
3.09252e+06
3.09127e+06
3.0913e+06
3.09336e+06
3.0989e+06
3.10052e+06
3.10012e+06
3.10022e+06
3.10013e+06
3.10013e+06
3.10012e+06
3.10012e+06
3.10011e+06
3.1001e+06
3.10009e+06
3.10008e+06
3.10007e+06
3.10007e+06
3.10006e+06
3.10172e+06
3.10196e+06
3.10556e+06
3.1016e+06
3.09267e+06
3.09121e+06
3.09124e+06
3.09328e+06
3.09889e+06
3.10058e+06
3.10018e+06
3.10028e+06
3.10017e+06
3.10016e+06
3.10014e+06
3.10013e+06
3.10012e+06
3.10011e+06
3.1001e+06
3.10009e+06
3.10008e+06
3.10007e+06
3.10006e+06
3.10306e+06
3.10235e+06
3.10534e+06
3.1014e+06
3.09212e+06
3.09062e+06
3.09104e+06
3.09309e+06
3.09882e+06
3.10055e+06
3.10015e+06
3.10026e+06
3.10017e+06
3.10016e+06
3.10014e+06
3.10013e+06
3.10013e+06
3.10011e+06
3.1001e+06
3.10009e+06
3.10008e+06
3.10007e+06
3.10006e+06
3.10527e+06
3.10354e+06
3.10618e+06
3.10242e+06
3.09372e+06
3.09204e+06
3.09167e+06
3.09347e+06
3.09911e+06
3.10071e+06
3.10026e+06
3.10034e+06
3.10023e+06
3.10021e+06
3.10018e+06
3.10016e+06
3.10014e+06
3.10012e+06
3.10011e+06
3.10009e+06
3.10008e+06
3.10007e+06
3.10006e+06
3.10391e+06
3.10336e+06
3.10367e+06
3.10246e+06
3.10351e+06
3.10086e+06
3.09197e+06
3.09223e+06
3.09882e+06
3.10041e+06
3.10014e+06
3.10028e+06
3.1002e+06
3.1002e+06
3.10018e+06
3.10016e+06
3.10014e+06
3.10012e+06
3.10011e+06
3.10009e+06
3.10008e+06
3.10007e+06
3.10006e+06
3.10637e+06
3.10554e+06
3.10554e+06
3.10448e+06
3.1059e+06
3.10306e+06
3.09409e+06
3.09397e+06
3.09959e+06
3.1008e+06
3.10045e+06
3.10047e+06
3.10034e+06
3.10029e+06
3.10024e+06
3.1002e+06
3.10017e+06
3.10014e+06
3.10012e+06
3.1001e+06
3.10008e+06
3.10007e+06
3.10005e+06
3.10317e+06
3.10323e+06
3.10343e+06
3.10304e+06
3.1033e+06
3.10284e+06
3.10259e+06
3.10187e+06
3.10054e+06
3.10024e+06
3.10028e+06
3.10028e+06
3.10025e+06
3.10024e+06
3.10021e+06
3.10018e+06
3.10016e+06
3.10014e+06
3.10011e+06
3.10009e+06
3.10008e+06
3.10006e+06
3.10005e+06
3.10552e+06
3.10209e+06
3.10165e+06
3.10243e+06
3.10458e+06
3.10457e+06
3.10479e+06
3.10379e+06
3.10146e+06
3.10077e+06
3.10071e+06
3.10056e+06
3.10046e+06
3.10038e+06
3.1003e+06
3.10024e+06
3.1002e+06
3.10016e+06
3.10012e+06
3.1001e+06
3.10008e+06
3.10006e+06
3.10005e+06
3.10062e+06
3.10022e+06
3.10014e+06
3.10093e+06
3.10327e+06
3.10341e+06
3.10356e+06
3.10266e+06
3.10087e+06
3.10026e+06
3.1004e+06
3.10033e+06
3.10031e+06
3.10027e+06
3.10024e+06
3.1002e+06
3.10017e+06
3.10014e+06
3.10011e+06
3.10009e+06
3.10007e+06
3.10005e+06
3.10004e+06
3.10331e+06
3.10227e+06
3.10225e+06
3.1028e+06
3.10501e+06
3.105e+06
3.10502e+06
3.10387e+06
3.10187e+06
3.10101e+06
3.10098e+06
3.10075e+06
3.10062e+06
3.10048e+06
3.10038e+06
3.10028e+06
3.10022e+06
3.10016e+06
3.10012e+06
3.10009e+06
3.10007e+06
3.10005e+06
3.10003e+06
3.10112e+06
3.10015e+06
3.10053e+06
3.10098e+06
3.10361e+06
3.10362e+06
3.10385e+06
3.10276e+06
3.10101e+06
3.10024e+06
3.10044e+06
3.10032e+06
3.10032e+06
3.10026e+06
3.10023e+06
3.10019e+06
3.10016e+06
3.10012e+06
3.10009e+06
3.10007e+06
3.10005e+06
3.10003e+06
3.10002e+06
3.10456e+06
3.10342e+06
3.1041e+06
3.10403e+06
3.10637e+06
3.10595e+06
3.10619e+06
3.10468e+06
3.10265e+06
3.10148e+06
3.10144e+06
3.10101e+06
3.10083e+06
3.10058e+06
3.10045e+06
3.10031e+06
3.10022e+06
3.10015e+06
3.1001e+06
3.10007e+06
3.10004e+06
3.10003e+06
3.10001e+06
3.10164e+06
3.09969e+06
3.10152e+06
3.10036e+06
3.10121e+06
3.10092e+06
3.10376e+06
3.10275e+06
3.10106e+06
3.10005e+06
3.10043e+06
3.10018e+06
3.10027e+06
3.10016e+06
3.10018e+06
3.10012e+06
3.1001e+06
3.10007e+06
3.10005e+06
3.10003e+06
3.10002e+06
3.10001e+06
3.1e+06
3.10951e+06
3.10628e+06
3.10872e+06
3.10628e+06
3.10689e+06
3.10532e+06
3.10784e+06
3.10578e+06
3.10389e+06
3.10209e+06
3.10206e+06
3.10125e+06
3.10106e+06
3.10064e+06
3.10049e+06
3.10028e+06
3.10019e+06
3.1001e+06
3.10006e+06
3.10002e+06
3.10001e+06
3.09999e+06
3.09999e+06
3.10424e+06
3.09942e+06
3.10312e+06
3.09962e+06
3.10217e+06
3.09937e+06
3.10154e+06
3.09957e+06
3.10059e+06
3.09945e+06
3.10024e+06
3.09975e+06
3.10009e+06
3.09991e+06
3.10003e+06
3.09997e+06
3.1e+06
3.09998e+06
3.09998e+06
3.09997e+06
3.09997e+06
3.09997e+06
3.09997e+06
3.12205e+06
3.11339e+06
3.11892e+06
3.11176e+06
3.11495e+06
3.10822e+06
3.10983e+06
3.10497e+06
3.1056e+06
3.10266e+06
3.10283e+06
3.10132e+06
3.10123e+06
3.10055e+06
3.10044e+06
3.10017e+06
3.10011e+06
3.10001e+06
3.09999e+06
3.09996e+06
3.09995e+06
3.09995e+06
3.09995e+06
3.11279e+06
3.09905e+06
3.10926e+06
3.09795e+06
3.1055e+06
3.09597e+06
3.10229e+06
3.09662e+06
3.10045e+06
3.09777e+06
3.09984e+06
3.09883e+06
3.09971e+06
3.09943e+06
3.09976e+06
3.09971e+06
3.09983e+06
3.09984e+06
3.09988e+06
3.09989e+06
3.09991e+06
3.09992e+06
3.09993e+06
3.15439e+06
3.12965e+06
3.14642e+06
3.12448e+06
3.13408e+06
3.11194e+06
3.11836e+06
3.10531e+06
3.10846e+06
3.1021e+06
3.10342e+06
3.10075e+06
3.10113e+06
3.10016e+06
3.10023e+06
3.09993e+06
3.09995e+06
3.09987e+06
3.09989e+06
3.09988e+06
3.0999e+06
3.09991e+06
3.09992e+06
3.15809e+06
3.09889e+06
3.13767e+06
3.09548e+06
3.11796e+06
3.08201e+06
3.10501e+06
3.08866e+06
3.10037e+06
3.09415e+06
3.0992e+06
3.09729e+06
3.09918e+06
3.09876e+06
3.09943e+06
3.09941e+06
3.09964e+06
3.09969e+06
3.09978e+06
3.09981e+06
3.09985e+06
3.09988e+06
3.0999e+06
3.26944e+06
3.17468e+06
3.22703e+06
3.16365e+06
3.18964e+06
3.10486e+06
3.12895e+06
3.09785e+06
3.10933e+06
3.09814e+06
3.10256e+06
3.09892e+06
3.10037e+06
3.09936e+06
3.0998e+06
3.09958e+06
3.09973e+06
3.09972e+06
3.09978e+06
3.09981e+06
3.09985e+06
3.09987e+06
3.09989e+06
3.93122e+06
3.08565e+06
3.27392e+06
3.10868e+06
3.16213e+06
3.00658e+06
3.10782e+06
3.07137e+06
3.10057e+06
3.08956e+06
3.09877e+06
3.09602e+06