/*--------------------------------*- C++ -*----------------------------------*\
| =========                 |                                                 |
| \\      /  F ield         | OpenFOAM: The Open Source CFD Toolbox           |
|  \\    /   O peration     | Version:  v2012                                 |
|   \\  /    A nd           | Website:  www.openfoam.com                      |
|    \\/     M anipulation  |                                                 |
\*---------------------------------------------------------------------------*/
FoamFile
{
    version     2.0;
    format      ascii;
    class       volScalarField;
    location    "0.5";
    object      p;
}
// * * * * * * * * * * * * * * * * * * * * * * * * * * * * * * * * * * * * * //

dimensions      [1 -1 -2 0 0 0 0];


internalField   nonuniform List<scalar> 
3332
(
3.48941e+06
3.48888e+06
3.48855e+06
3.48837e+06
3.48829e+06
3.4883e+06
3.48837e+06
3.48849e+06
3.48863e+06
3.4888e+06
3.48898e+06
3.48918e+06
3.48937e+06
3.48957e+06
3.48977e+06
3.48996e+06
3.49015e+06
3.49034e+06
3.49052e+06
3.49068e+06
3.48861e+06
3.48795e+06
3.48761e+06
3.48739e+06
3.48732e+06
3.48733e+06
3.48742e+06
3.48755e+06
3.48773e+06
3.48792e+06
3.48814e+06
3.48836e+06
3.48859e+06
3.48882e+06
3.48905e+06
3.48928e+06
3.4895e+06
3.48971e+06
3.48991e+06
3.49011e+06
3.4903e+06
3.49048e+06
3.48142e+06
3.49716e+06
3.48287e+06
3.49564e+06
3.48473e+06
3.49187e+06
3.48343e+06
3.48298e+06
3.45624e+06
3.47826e+06
3.48697e+06
3.48877e+06
3.48641e+06
3.48668e+06
3.48592e+06
3.4859e+06
3.48574e+06
3.48581e+06
3.48591e+06
3.48609e+06
3.4863e+06
3.48655e+06
3.48681e+06
3.48709e+06
3.48737e+06
3.48765e+06
3.48793e+06
3.48821e+06
3.48847e+06
3.48873e+06
3.48898e+06
3.48923e+06
3.48946e+06
3.48968e+06
3.48989e+06
3.49009e+06
3.49027e+06
3.47014e+06
3.48625e+06
3.47171e+06
3.48481e+06
3.47359e+06
3.47764e+06
3.46841e+06
3.46549e+06
3.43859e+06
3.46526e+06
3.47572e+06
3.48423e+06
3.47887e+06
3.48231e+06
3.48136e+06
3.48263e+06
3.48267e+06
3.48327e+06
3.4836e+06
3.48406e+06
3.48446e+06
3.48488e+06
3.48529e+06
3.48569e+06
3.48608e+06
3.48646e+06
3.48683e+06
3.48717e+06
3.48751e+06
3.48783e+06
3.48813e+06
3.48842e+06
3.4887e+06
3.48896e+06
3.48921e+06
3.48945e+06
3.48967e+06
3.48988e+06
3.49007e+06
3.45979e+06
3.47273e+06
3.46095e+06
3.47177e+06
3.462e+06
3.46248e+06
3.45353e+06
3.44784e+06
3.42253e+06
3.45272e+06
3.4643e+06
3.47397e+06
3.47162e+06
3.47634e+06
3.47675e+06
3.47887e+06
3.47965e+06
3.48081e+06
3.48159e+06
3.4824e+06
3.48308e+06
3.48373e+06
3.48432e+06
3.48487e+06
3.48538e+06
3.48586e+06
3.4863e+06
3.48671e+06
3.4871e+06
3.48746e+06
3.4878e+06
3.48812e+06
3.48842e+06
3.48871e+06
3.48897e+06
3.48922e+06
3.48945e+06
3.48967e+06
3.48988e+06
3.49007e+06
3.44983e+06
3.45719e+06
3.45019e+06
3.45692e+06
3.44983e+06
3.44698e+06
3.43907e+06
3.43078e+06
3.4083e+06
3.44102e+06
3.45428e+06
3.46482e+06
3.4653e+06
3.47099e+06
3.47265e+06
3.47547e+06
3.47692e+06
3.47855e+06
3.47973e+06
3.48086e+06
3.4818e+06
3.48266e+06
3.48341e+06
3.4841e+06
3.48472e+06
3.48528e+06
3.4858e+06
3.48627e+06
3.48671e+06
3.48711e+06
3.48749e+06
3.48783e+06
3.48816e+06
3.48846e+06
3.48874e+06
3.489e+06
3.48925e+06
3.48947e+06
3.48969e+06
3.48988e+06
3.44042e+06
3.44114e+06
3.43986e+06
3.44166e+06
3.43782e+06
3.43226e+06
3.42578e+06
3.41541e+06
3.39638e+06
3.43064e+06
3.44579e+06
3.457e+06
3.45996e+06
3.46636e+06
3.46912e+06
3.47249e+06
3.47453e+06
3.47655e+06
3.47807e+06
3.47947e+06
3.48063e+06
3.48167e+06
3.48258e+06
3.48338e+06
3.4841e+06
3.48475e+06
3.48533e+06
3.48586e+06
3.48634e+06
3.48678e+06
3.48718e+06
3.48756e+06
3.4879e+06
3.48822e+06
3.48851e+06
3.48879e+06
3.48904e+06
3.48928e+06
3.4895e+06
3.4897e+06
3.48989e+06
3.43196e+06
3.42645e+06
3.43061e+06
3.42771e+06
3.42694e+06
3.41948e+06
3.41451e+06
3.40268e+06
3.38715e+06
3.42194e+06
3.43891e+06
3.45061e+06
3.45559e+06
3.46251e+06
3.46618e+06
3.46996e+06
3.47248e+06
3.47481e+06
3.47663e+06
3.47824e+06
3.4796e+06
3.48079e+06
3.48182e+06
3.48273e+06
3.48354e+06
3.48425e+06
3.48489e+06
3.48547e+06
3.48599e+06
3.48646e+06
3.4869e+06
3.48729e+06
3.48765e+06
3.48799e+06
3.4883e+06
3.48858e+06
3.48885e+06
3.48909e+06
3.48932e+06
3.48953e+06
3.48972e+06
3.42454e+06
3.41439e+06
3.42297e+06
3.41642e+06
3.41807e+06
3.40954e+06
3.40597e+06
3.39334e+06
3.38077e+06
3.41517e+06
3.43362e+06
3.44567e+06
3.45221e+06
3.45945e+06
3.46382e+06
3.46791e+06
3.4708e+06
3.47337e+06
3.47542e+06
3.4772e+06
3.47871e+06
3.48002e+06
3.48116e+06
3.48215e+06
3.48303e+06
3.48381e+06
3.4845e+06
3.48512e+06
3.48567e+06
3.48617e+06
3.48663e+06
3.48704e+06
3.48742e+06
3.48777e+06
3.48809e+06
3.48839e+06
3.48866e+06
3.48891e+06
3.48914e+06
3.48936e+06
3.48956e+06
3.41932e+06
3.40625e+06
3.41741e+06
3.40851e+06
3.41179e+06
3.40291e+06
3.40058e+06
3.38756e+06
3.37695e+06
3.41038e+06
3.42987e+06
3.44211e+06
3.44974e+06
3.45716e+06
3.46203e+06
3.46631e+06
3.46948e+06
3.47221e+06
3.47443e+06
3.47634e+06
3.47796e+06
3.47937e+06
3.48058e+06
3.48165e+06
3.48258e+06
3.48341e+06
3.48414e+06
3.48479e+06
3.48538e+06
3.4859e+06
3.48638e+06
3.48681e+06
3.4872e+06
3.48756e+06
3.48789e+06
3.4882e+06
3.48848e+06
3.48873e+06
3.48897e+06
3.48919e+06
3.48939e+06
3.41608e+06
3.40176e+06
3.414e+06
3.40401e+06
3.40826e+06
3.39956e+06
3.39831e+06
3.38515e+06
3.37541e+06
3.40744e+06
3.4275e+06
3.43982e+06
3.44813e+06
3.45558e+06
3.46077e+06
3.46516e+06
3.4685e+06
3.47134e+06
3.47367e+06
3.47566e+06
3.47736e+06
3.47883e+06
3.48011e+06
3.48123e+06
3.4822e+06
3.48306e+06
3.48383e+06
3.48451e+06
3.48511e+06
3.48566e+06
3.48615e+06
3.48659e+06
3.487e+06
3.48737e+06
3.48771e+06
3.48802e+06
3.4883e+06
3.48856e+06
3.48881e+06
3.48903e+06
3.48924e+06
3.41491e+06
3.40059e+06
3.41285e+06
3.40269e+06
3.40738e+06
3.39934e+06
3.39914e+06
3.38611e+06
3.3761e+06
3.40613e+06
3.42633e+06
3.4386e+06
3.44724e+06
3.45464e+06
3.45999e+06
3.4644e+06
3.46784e+06
3.47072e+06
3.47312e+06
3.47516e+06
3.47691e+06
3.47842e+06
3.47973e+06
3.48088e+06
3.48189e+06
3.48277e+06
3.48356e+06
3.48426e+06
3.48488e+06
3.48544e+06
3.48594e+06
3.48639e+06
3.48681e+06
3.48718e+06
3.48753e+06
3.48784e+06
3.48813e+06
3.4884e+06
3.48865e+06
3.48887e+06
3.48908e+06
3.41528e+06
3.40183e+06
3.41356e+06
3.40393e+06
3.40869e+06
3.40193e+06
3.40228e+06
3.38928e+06
3.37807e+06
3.40597e+06
3.42612e+06
3.43822e+06
3.44699e+06
3.45423e+06
3.45963e+06
3.464e+06
3.46747e+06
3.47035e+06
3.47277e+06
3.47482e+06
3.47659e+06
3.47812e+06
3.47945e+06
3.48061e+06
3.48163e+06
3.48253e+06
3.48333e+06
3.48404e+06
3.48467e+06
3.48524e+06
3.48575e+06
3.48621e+06
3.48663e+06
3.48701e+06
3.48736e+06
3.48768e+06
3.48798e+06
3.48825e+06
3.48849e+06
3.48872e+06
3.48893e+06
3.41731e+06
3.40501e+06
3.41567e+06
3.40695e+06
3.41158e+06
3.40646e+06
3.40673e+06
3.3937e+06
3.38066e+06
3.40632e+06
3.42649e+06
3.43843e+06
3.4472e+06
3.45426e+06
3.45962e+06
3.46391e+06
3.46735e+06
3.4702e+06
3.4726e+06
3.47464e+06
3.4764e+06
3.47793e+06
3.47926e+06
3.48042e+06
3.48145e+06
3.48235e+06
3.48315e+06
3.48386e+06
3.4845e+06
3.48507e+06
3.48558e+06
3.48605e+06
3.48647e+06
3.48685e+06
3.48721e+06
3.48753e+06
3.48782e+06
3.4881e+06
3.48835e+06
3.48858e+06
3.48879e+06
3.42035e+06
3.40938e+06
3.41875e+06
3.41113e+06
3.41557e+06
3.41209e+06
3.41217e+06
3.39953e+06
3.38438e+06
3.40729e+06
3.42749e+06
3.43915e+06
3.44782e+06
3.45465e+06
3.45992e+06
3.46408e+06
3.46746e+06
3.47025e+06
3.4726e+06
3.4746e+06
3.47633e+06
3.47783e+06
3.47915e+06
3.4803e+06
3.48132e+06
3.48221e+06
3.48301e+06
3.48372e+06
3.48436e+06
3.48493e+06
3.48544e+06
3.4859e+06
3.48632e+06
3.48671e+06
3.48706e+06
3.48738e+06
3.48768e+06
3.48795e+06
3.4882e+06
3.48844e+06
3.48865e+06
3.42398e+06
3.4145e+06
3.42247e+06
3.41611e+06
3.42018e+06
3.41842e+06
3.41809e+06
3.40619e+06
3.38875e+06
3.40879e+06
3.42893e+06
3.44023e+06
3.44876e+06
3.45534e+06
3.46047e+06
3.46449e+06
3.46777e+06
3.47046e+06
3.47275e+06
3.47469e+06
3.47638e+06
3.47784e+06
3.47912e+06
3.48025e+06
3.48125e+06
3.48213e+06
3.48291e+06
3.48361e+06
3.48424e+06
3.4848e+06
3.48531e+06
3.48577e+06
3.48619e+06
3.48658e+06
3.48693e+06
3.48725e+06
3.48754e+06
3.48782e+06
3.48807e+06
3.4883e+06
3.48851e+06
3.42554e+06
3.41896e+06
3.42617e+06
3.42166e+06
3.4251e+06
3.42503e+06
3.42416e+06
3.41325e+06
3.39347e+06
3.41075e+06
3.43066e+06
3.44161e+06
3.44995e+06
3.45625e+06
3.46122e+06
3.46508e+06
3.46824e+06
3.47083e+06
3.47303e+06
3.4749e+06
3.47652e+06
3.47793e+06
3.47917e+06
3.48026e+06
3.48123e+06
3.48209e+06
3.48286e+06
3.48354e+06
3.48416e+06
3.48471e+06
3.48521e+06
3.48566e+06
3.48608e+06
3.48645e+06
3.4868e+06
3.48712e+06
3.48741e+06
3.48769e+06
3.48794e+06
3.48817e+06
3.48838e+06
3.42978e+06
3.42563e+06
3.43027e+06
3.42786e+06
3.43011e+06
3.4316e+06
3.43003e+06
3.42033e+06
3.39845e+06
3.41297e+06
3.4326e+06
3.44319e+06
3.45132e+06
3.45737e+06
3.46215e+06
3.46584e+06
3.46887e+06
3.47133e+06
3.47343e+06
3.47521e+06
3.47675e+06
3.4781e+06
3.47929e+06
3.48034e+06
3.48127e+06
3.4821e+06
3.48284e+06
3.4835e+06
3.4841e+06
3.48464e+06
3.48512e+06
3.48557e+06
3.48597e+06
3.48635e+06
3.48669e+06
3.487e+06
3.48729e+06
3.48756e+06
3.48781e+06
3.48804e+06
3.48826e+06
3.43396e+06
3.43281e+06
3.43449e+06
3.43482e+06
3.43536e+06
3.43801e+06
3.43564e+06
3.4273e+06
3.40344e+06
3.41517e+06
3.43468e+06
3.4449e+06
3.45286e+06
3.45864e+06
3.46324e+06
3.46675e+06
3.46962e+06
3.47195e+06
3.47393e+06
3.47561e+06
3.47707e+06
3.47835e+06
3.47948e+06
3.48047e+06
3.48136e+06
3.48215e+06
3.48285e+06
3.48349e+06
3.48406e+06
3.48459e+06
3.48506e+06
3.48549e+06
3.48588e+06
3.48625e+06
3.48658e+06
3.48689e+06
3.48718e+06
3.48745e+06
3.48769e+06
3.48792e+06
3.48813e+06
3.43954e+06
3.44176e+06
3.44006e+06
3.44294e+06
3.44126e+06
3.44427e+06
3.44117e+06
3.43414e+06
3.40887e+06
3.41767e+06
3.43701e+06
3.44678e+06
3.45458e+06
3.46008e+06
3.46448e+06
3.46778e+06
3.47049e+06
3.47268e+06
3.47453e+06
3.4761e+06
3.47747e+06
3.47866e+06
3.47972e+06
3.48065e+06
3.48149e+06
3.48223e+06
3.4829e+06
3.48351e+06
3.48406e+06
3.48456e+06
3.48501e+06
3.48543e+06
3.48581e+06
3.48616e+06
3.48649e+06
3.48679e+06
3.48707e+06
3.48733e+06
3.48758e+06
3.48781e+06
3.48802e+06
3.44627e+06
3.45161e+06
3.44736e+06
3.45226e+06
3.44837e+06
3.4507e+06
3.44735e+06
3.44132e+06
3.41535e+06
3.42101e+06
3.43984e+06
3.44897e+06
3.45656e+06
3.4617e+06
3.46587e+06
3.46895e+06
3.47149e+06
3.47351e+06
3.47522e+06
3.47668e+06
3.47794e+06
3.47904e+06
3.48002e+06
3.48088e+06
3.48166e+06
3.48236e+06
3.48299e+06
3.48356e+06
3.48407e+06
3.48455e+06
3.48498e+06
3.48538e+06
3.48574e+06
3.48609e+06
3.4864e+06
3.4867e+06
3.48697e+06
3.48723e+06
3.48747e+06
3.48769e+06
3.4879e+06
3.45586e+06
3.46283e+06
3.45705e+06
3.46267e+06
3.45731e+06
3.458e+06
3.45539e+06
3.44975e+06
3.42345e+06
3.42522e+06
3.44326e+06
3.45152e+06
3.45882e+06
3.46351e+06
3.46743e+06
3.47025e+06
3.47259e+06
3.47443e+06
3.476e+06
3.47732e+06
3.47847e+06
3.47948e+06
3.48037e+06
3.48116e+06
3.48187e+06
3.48252e+06
3.4831e+06
3.48363e+06
3.48411e+06
3.48455e+06
3.48496e+06
3.48534e+06
3.48569e+06
3.48602e+06
3.48633e+06
3.48661e+06
3.48688e+06
3.48713e+06
3.48737e+06
3.48759e+06
3.48779e+06
3.46817e+06
3.47476e+06
3.46918e+06
3.47398e+06
3.46836e+06
3.46726e+06
3.46616e+06
3.4604e+06
3.43379e+06
3.43045e+06
3.44744e+06
3.45447e+06
3.46138e+06
3.46553e+06
3.46915e+06
3.47168e+06
3.4738e+06
3.47545e+06
3.47686e+06
3.47804e+06
3.47907e+06
3.47997e+06
3.48077e+06
3.48148e+06
3.48212e+06
3.48271e+06
3.48324e+06
3.48372e+06
3.48417e+06
3.48458e+06
3.48496e+06
3.48532e+06
3.48565e+06
3.48596e+06
3.48626e+06
3.48653e+06
3.48679e+06
3.48704e+06
3.48727e+06
3.48748e+06
3.48769e+06
3.48263e+06
3.48708e+06
3.48354e+06
3.48599e+06
3.48131e+06
3.47891e+06
3.4794e+06
3.47332e+06
3.44618e+06
3.43664e+06
3.45232e+06
3.45777e+06
3.46423e+06
3.46771e+06
3.47103e+06
3.47321e+06
3.47511e+06
3.47655e+06
3.47779e+06
3.47882e+06
3.47972e+06
3.48051e+06
3.48121e+06
3.48184e+06
3.48241e+06
3.48293e+06
3.4834e+06
3.48384e+06
3.48424e+06
3.48462e+06
3.48498e+06
3.48531e+06
3.48562e+06
3.48591e+06
3.48619e+06
3.48646e+06
3.48671e+06
3.48695e+06
3.48717e+06
3.48738e+06
3.48758e+06
3.49772e+06
3.4991e+06
3.49869e+06
3.49817e+06
3.49547e+06
3.49205e+06
3.49432e+06
3.48758e+06
3.45998e+06
3.44346e+06
3.45765e+06
3.46131e+06
3.4673e+06
3.47005e+06
3.47303e+06
3.47485e+06
3.47651e+06
3.47773e+06
3.47879e+06
3.47966e+06
3.48043e+06
3.4811e+06
3.4817e+06
3.48223e+06
3.48272e+06
3.48317e+06
3.48359e+06
3.48397e+06
3.48434e+06
3.48468e+06
3.485e+06
3.48531e+06
3.4856e+06
3.48587e+06
3.48614e+06
3.48639e+06
3.48663e+06
3.48686e+06
3.48708e+06
3.48729e+06
3.48748e+06
3.51226e+06
3.51078e+06
3.51303e+06
3.51002e+06
3.50966e+06
3.50549e+06
3.50983e+06
3.50209e+06
3.47442e+06
3.45046e+06
3.46317e+06
3.46494e+06
3.47047e+06
3.47247e+06
3.47513e+06
3.47658e+06
3.478e+06
3.47899e+06
3.47987e+06
3.48057e+06
3.4812e+06
3.48174e+06
3.48222e+06
3.48266e+06
3.48307e+06
3.48344e+06
3.4838e+06
3.48413e+06
3.48444e+06
3.48475e+06
3.48504e+06
3.48531e+06
3.48558e+06
3.48584e+06
3.48609e+06
3.48633e+06
3.48656e+06
3.48678e+06
3.48699e+06
3.4872e+06
3.48739e+06
3.52414e+06
3.52122e+06
3.52482e+06
3.52071e+06
3.52275e+06
3.51803e+06
3.52453e+06
3.51563e+06
3.48843e+06
3.45716e+06
3.46856e+06
3.46851e+06
3.47366e+06
3.47494e+06
3.47731e+06
3.4784e+06
3.47958e+06
3.48033e+06
3.48102e+06
3.48155e+06
3.48202e+06
3.48242e+06
3.48279e+06
3.48313e+06
3.48344e+06
3.48374e+06
3.48402e+06
3.4843e+06
3.48457e+06
3.48483e+06
3.48508e+06
3.48533e+06
3.48557e+06
3.48581e+06
3.48604e+06
3.48627e+06
3.48649e+06
3.4867e+06
3.48691e+06
3.48711e+06
3.4873e+06
3.53241e+06
3.52959e+06
3.53304e+06
3.52933e+06
3.53365e+06
3.52839e+06
3.53708e+06
3.52694e+06
3.50092e+06
3.46306e+06
3.47324e+06
3.47187e+06
3.47674e+06
3.47745e+06
3.47956e+06
3.48031e+06
3.48125e+06
3.48176e+06
3.48224e+06
3.48259e+06
3.48289e+06
3.48315e+06
3.4834e+06
3.48362e+06
3.48384e+06
3.48405e+06
3.48427e+06
3.48448e+06
3.4847e+06
3.48491e+06
3.48513e+06
3.48535e+06
3.48557e+06
3.48579e+06
3.486e+06
3.48621e+06
3.48642e+06
3.48663e+06
3.48683e+06
3.48702e+06
3.48721e+06
3.53733e+06
3.535e+06
3.53796e+06
3.53517e+06
3.54187e+06
3.53537e+06
3.54638e+06
3.53456e+06
3.51086e+06
3.46787e+06
3.47677e+06
3.47502e+06
3.47968e+06
3.48004e+06
3.48189e+06
3.48234e+06
3.48303e+06
3.48329e+06
3.48356e+06
3.4837e+06
3.48383e+06
3.48394e+06
3.48404e+06
3.48415e+06
3.48426e+06
3.48439e+06
3.48453e+06
3.48468e+06
3.48484e+06
3.48501e+06
3.48519e+06
3.48538e+06
3.48557e+06
3.48577e+06
3.48596e+06
3.48616e+06
3.48636e+06
3.48656e+06
3.48675e+06
3.48694e+06
3.48712e+06
3.54152e+06
3.53728e+06
3.54171e+06
3.53832e+06
3.54764e+06
3.5386e+06
3.55185e+06
3.53727e+06
3.51748e+06
3.47195e+06
3.47935e+06
3.47823e+06
3.48259e+06
3.48282e+06
3.48437e+06
3.48455e+06
3.48495e+06
3.48495e+06
3.48497e+06
3.48489e+06
3.48483e+06
3.48476e+06
3.48472e+06
3.4847e+06
3.48471e+06
3.48474e+06
3.4848e+06
3.48488e+06
3.48499e+06
3.48511e+06
3.48525e+06
3.48541e+06
3.48557e+06
3.48575e+06
3.48593e+06
3.48611e+06
3.4863e+06
3.48649e+06
3.48667e+06
3.48686e+06
3.48703e+06
3.54925e+06
3.53829e+06
3.54831e+06
3.54081e+06
3.5523e+06
3.53977e+06
3.55376e+06
3.53582e+06
3.52123e+06
3.47669e+06
3.48179e+06
3.48208e+06
3.48579e+06
3.48605e+06
3.48714e+06
3.48703e+06
3.48706e+06
3.48676e+06
3.4865e+06
3.48618e+06
3.4859e+06
3.48564e+06
3.48544e+06
3.48528e+06
3.48517e+06
3.4851e+06
3.48508e+06
3.48509e+06
3.48514e+06
3.48522e+06
3.48532e+06
3.48544e+06
3.48558e+06
3.48573e+06
3.4859e+06
3.48607e+06
3.48624e+06
3.48642e+06
3.4866e+06
3.48678e+06
3.48695e+06
3.56382e+06
3.54199e+06
3.56148e+06
3.54655e+06
3.55859e+06
3.54371e+06
3.55437e+06
3.53551e+06
3.52535e+06
3.48476e+06
3.48521e+06
3.48741e+06
3.48967e+06
3.48997e+06
3.49032e+06
3.48986e+06
3.48941e+06
3.48876e+06
3.48815e+06
3.48756e+06
3.48703e+06
3.48657e+06
3.48619e+06
3.48588e+06
3.48565e+06
3.48548e+06
3.48537e+06
3.48531e+06
3.4853e+06
3.48532e+06
3.48538e+06
3.48547e+06
3.48559e+06
3.48572e+06
3.48586e+06
3.48602e+06
3.48619e+06
3.48635e+06
3.48653e+06
3.4867e+06
3.48687e+06
3.58467e+06
3.55306e+06
3.5814e+06
3.55948e+06
3.57016e+06
3.55562e+06
3.55932e+06
3.54593e+06
3.53683e+06
3.49997e+06
3.49139e+06
3.49524e+06
3.49474e+06
3.49488e+06
3.49406e+06
3.49312e+06
3.49205e+06
3.49096e+06
3.48995e+06
3.48903e+06
3.48823e+06
3.48754e+06
3.48697e+06
3.4865e+06
3.48613e+06
3.48585e+06
3.48565e+06
3.48552e+06
3.48545e+06
3.48543e+06
3.48545e+06
3.48551e+06
3.48559e+06
3.4857e+06
3.48583e+06
3.48597e+06
3.48613e+06
3.48629e+06
3.48646e+06
3.48662e+06
3.48679e+06
3.6075e+06
3.57513e+06
3.6041e+06
3.58082e+06
3.58874e+06
3.57748e+06
3.57487e+06
3.57066e+06
3.56069e+06
3.52357e+06
3.50142e+06
3.50579e+06
3.50125e+06
3.50086e+06
3.49844e+06
3.49685e+06
3.49498e+06
3.49338e+06
3.49189e+06
3.4906e+06
3.48949e+06
3.48855e+06
3.48776e+06
3.48713e+06
3.48662e+06
3.48623e+06
3.48594e+06
3.48573e+06
3.4856e+06
3.48553e+06
3.48551e+06
3.48553e+06
3.48559e+06
3.48568e+06
3.4858e+06
3.48593e+06
3.48607e+06
3.48623e+06
3.48638e+06
3.48655e+06
3.48671e+06
3.62603e+06
3.60609e+06
3.62445e+06
3.60835e+06
3.61146e+06
3.60644e+06
3.6004e+06
3.60571e+06
3.59384e+06
3.55339e+06
3.51471e+06
3.51829e+06
3.50909e+06
3.50774e+06
3.50344e+06
3.50102e+06
3.49821e+06
3.496e+06
3.49396e+06
3.49226e+06
3.4908e+06
3.48958e+06
3.48858e+06
3.48776e+06
3.48711e+06
3.4866e+06
3.48622e+06
3.48593e+06
3.48574e+06
3.48562e+06
3.48556e+06
3.48556e+06
3.48559e+06
3.48566e+06
3.48576e+06
3.48588e+06
3.48601e+06
3.48616e+06
3.48631e+06
3.48647e+06
3.48663e+06
3.63987e+06
3.63909e+06
3.6411e+06
3.63642e+06
3.63395e+06
3.6356e+06
3.62732e+06
3.64146e+06
3.62479e+06
3.58553e+06
3.52939e+06
3.53155e+06
3.51795e+06
3.51525e+06
3.50899e+06
3.50554e+06
3.5017e+06
3.49878e+06
3.49614e+06
3.49397e+06
3.49214e+06
3.49063e+06
3.48939e+06
3.48839e+06
3.48759e+06
3.48696e+06
3.48648e+06
3.48612e+06
3.48587e+06
3.4857e+06
3.48561e+06
3.48557e+06
3.48559e+06
3.48564e+06
3.48572e+06
3.48583e+06
3.48595e+06
3.48609e+06
3.48624e+06
3.4864e+06
3.48656e+06
3.65249e+06
3.66678e+06
3.65577e+06
3.6597e+06
3.65286e+06
3.65748e+06
3.6461e+06
3.66528e+06
3.6401e+06
3.61274e+06
3.54442e+06
3.54415e+06
3.52768e+06
3.52309e+06
3.51506e+06
3.51033e+06
3.50541e+06
3.50169e+06
3.49839e+06
3.49572e+06
3.49349e+06
3.49167e+06
3.49018e+06
3.48899e+06
3.48804e+06
3.4873e+06
3.48672e+06
3.4863e+06
3.48599e+06
3.48578e+06
3.48565e+06
3.48558e+06
3.48557e+06
3.48561e+06
3.48568e+06
3.48578e+06
3.48589e+06
3.48603e+06
3.48617e+06
3.48633e+06
3.48648e+06
3.66702e+06
3.68851e+06
3.6712e+06
3.67931e+06
3.67012e+06
3.67326e+06
3.66138e+06
3.67506e+06
3.64878e+06
3.63363e+06
3.56505e+06
3.55569e+06
3.53902e+06
3.53116e+06
3.5217e+06
3.51533e+06
3.50932e+06
3.50467e+06
3.50068e+06
3.49747e+06
3.49482e+06
3.49267e+06
3.49094e+06
3.48956e+06
3.48846e+06
3.4876e+06
3.48694e+06
3.48644e+06
3.48608e+06
3.48583e+06
3.48567e+06
3.48558e+06
3.48555e+06
3.48557e+06
3.48563e+06
3.48572e+06
3.48583e+06
3.48596e+06
3.4861e+06
3.48625e+06
3.48641e+06
3.68511e+06
3.70906e+06
3.68932e+06
3.69953e+06
3.68999e+06
3.69163e+06
3.68452e+06
3.68724e+06
3.67715e+06
3.66396e+06
3.60044e+06
3.56867e+06
3.55354e+06
3.53979e+06
3.52907e+06
3.5205e+06
3.51336e+06
3.50766e+06
3.50295e+06
3.49917e+06
3.49609e+06
3.49362e+06
3.49164e+06
3.49007e+06
3.48883e+06
3.48787e+06
3.48712e+06
3.48656e+06
3.48615e+06
3.48586e+06
3.48567e+06
3.48557e+06
3.48552e+06
3.48553e+06
3.48558e+06
3.48566e+06
3.48577e+06
3.48589e+06
3.48603e+06
3.48618e+06
3.48633e+06
3.70282e+06
3.72861e+06
3.7072e+06
3.71994e+06
3.71077e+06
3.71385e+06
3.71286e+06
3.71183e+06
3.7193e+06
3.70451e+06
3.64515e+06
3.58362e+06
3.57011e+06
3.54894e+06
3.53691e+06
3.52575e+06
3.51743e+06
3.51058e+06
3.50513e+06
3.50076e+06
3.49726e+06
3.49447e+06
3.49226e+06
3.49051e+06
3.48914e+06
3.48808e+06
3.48726e+06
3.48665e+06
3.4862e+06
3.48588e+06
3.48566e+06
3.48554e+06
3.48548e+06
3.48548e+06
3.48552e+06
3.48559e+06
3.4857e+06
3.48582e+06
3.48596e+06
3.48611e+06
3.48626e+06
3.71782e+06
3.7454e+06
3.72206e+06
3.7369e+06
3.72746e+06
3.73242e+06
3.73467e+06
3.73385e+06
3.75071e+06
3.73054e+06
3.68613e+06
3.59903e+06
3.58529e+06
3.55814e+06
3.54443e+06
3.53085e+06
3.52128e+06
3.5133e+06
3.50712e+06
3.50218e+06
3.49828e+06
3.49519e+06
3.49276e+06
3.49086e+06
3.48938e+06
3.48823e+06
3.48735e+06
3.48669e+06
3.48621e+06
3.48586e+06
3.48563e+06
3.48549e+06
3.48542e+06
3.48541e+06
3.48545e+06
3.48552e+06
3.48562e+06
3.48575e+06
3.48588e+06
3.48603e+06
3.48618e+06
3.75967e+06
3.73981e+06
3.71455e+06
3.62059e+06
3.5968e+06
3.56786e+06
3.55104e+06
3.53568e+06
3.52467e+06
3.51569e+06
3.5088e+06
3.50334e+06
3.49908e+06
3.49574e+06
3.49313e+06
3.4911e+06
3.48952e+06
3.48831e+06
3.48739e+06
3.48669e+06
3.48618e+06
3.48582e+06
3.48558e+06
3.48543e+06
3.48536e+06
3.48534e+06
3.48538e+06
3.48545e+06
3.48555e+06
3.48567e+06
3.48581e+06
3.48596e+06
3.48611e+06
3.48941e+06
3.48888e+06
3.48855e+06
3.48837e+06
3.48829e+06
3.4883e+06
3.48837e+06
3.48849e+06
3.48863e+06
3.4888e+06
3.48898e+06
3.48918e+06
3.48937e+06
3.48957e+06
3.48977e+06
3.48996e+06
3.49015e+06
3.49034e+06
3.49052e+06
3.49068e+06
3.48861e+06
3.48795e+06
3.48761e+06
3.48739e+06
3.48732e+06
3.48733e+06
3.48742e+06
3.48755e+06
3.48773e+06
3.48792e+06
3.48814e+06
3.48836e+06
3.48859e+06
3.48882e+06
3.48905e+06
3.48928e+06
3.4895e+06
3.48971e+06
3.48991e+06
3.49011e+06
3.4903e+06
3.49048e+06
3.48142e+06
3.49716e+06
3.48287e+06
3.49564e+06
3.48473e+06
3.49187e+06
3.48343e+06
3.48298e+06
3.45624e+06
3.47826e+06
3.48697e+06
3.48877e+06
3.48641e+06
3.48668e+06
3.48592e+06
3.4859e+06
3.48574e+06
3.48581e+06
3.48591e+06
3.48609e+06
3.4863e+06
3.48655e+06
3.48681e+06
3.48709e+06
3.48737e+06
3.48765e+06
3.48793e+06
3.48821e+06
3.48847e+06
3.48873e+06
3.48898e+06
3.48923e+06
3.48946e+06
3.48968e+06
3.48989e+06
3.49009e+06
3.49027e+06
3.47014e+06
3.48625e+06
3.47171e+06
3.48481e+06
3.47359e+06
3.47764e+06
3.46841e+06
3.46549e+06
3.43859e+06
3.46526e+06
3.47572e+06
3.48423e+06
3.47887e+06
3.48231e+06
3.48136e+06
3.48263e+06
3.48267e+06
3.48327e+06
3.4836e+06
3.48406e+06
3.48446e+06
3.48488e+06
3.48529e+06
3.48569e+06
3.48608e+06
3.48646e+06
3.48683e+06
3.48717e+06
3.48751e+06
3.48783e+06
3.48813e+06
3.48842e+06
3.4887e+06
3.48896e+06
3.48921e+06
3.48945e+06
3.48967e+06
3.48988e+06
3.49007e+06
3.45979e+06
3.47273e+06
3.46095e+06
3.47177e+06
3.462e+06
3.46248e+06
3.45353e+06
3.44784e+06
3.42253e+06
3.45272e+06
3.4643e+06
3.47397e+06
3.47162e+06
3.47634e+06
3.47675e+06
3.47887e+06
3.47965e+06
3.48081e+06
3.48159e+06
3.4824e+06
3.48308e+06
3.48373e+06
3.48432e+06
3.48487e+06
3.48538e+06
3.48586e+06
3.4863e+06
3.48671e+06
3.4871e+06
3.48746e+06
3.4878e+06
3.48812e+06
3.48842e+06
3.48871e+06
3.48897e+06
3.48922e+06
3.48945e+06
3.48967e+06
3.48988e+06
3.49007e+06
3.44983e+06
3.45719e+06
3.45019e+06
3.45692e+06
3.44983e+06
3.44698e+06
3.43907e+06
3.43078e+06
3.4083e+06
3.44102e+06
3.45428e+06
3.46482e+06
3.4653e+06
3.47099e+06
3.47265e+06
3.47547e+06
3.47692e+06
3.47855e+06
3.47973e+06
3.48086e+06
3.4818e+06
3.48266e+06
3.48341e+06
3.4841e+06
3.48472e+06
3.48528e+06
3.4858e+06
3.48627e+06
3.48671e+06
3.48711e+06
3.48749e+06
3.48783e+06
3.48816e+06
3.48846e+06
3.48874e+06
3.489e+06
3.48925e+06
3.48947e+06
3.48969e+06
3.48988e+06
3.44042e+06
3.44114e+06
3.43986e+06
3.44166e+06
3.43782e+06
3.43226e+06
3.42578e+06
3.41541e+06
3.39638e+06
3.43064e+06
3.44579e+06
3.457e+06
3.45996e+06
3.46636e+06
3.46912e+06
3.47249e+06
3.47453e+06
3.47655e+06
3.47807e+06
3.47947e+06
3.48063e+06
3.48167e+06
3.48258e+06
3.48338e+06
3.4841e+06
3.48475e+06
3.48533e+06
3.48586e+06
3.48634e+06
3.48678e+06
3.48718e+06
3.48756e+06
3.4879e+06
3.48822e+06
3.48851e+06
3.48879e+06
3.48904e+06
3.48928e+06
3.4895e+06
3.4897e+06
3.48989e+06
3.43196e+06
3.42645e+06
3.43061e+06
3.42771e+06
3.42694e+06
3.41948e+06
3.41451e+06
3.40268e+06
3.38715e+06
3.42194e+06
3.43891e+06
3.45061e+06
3.45559e+06
3.46251e+06
3.46618e+06
3.46996e+06
3.47248e+06
3.47481e+06
3.47663e+06
3.47824e+06
3.4796e+06
3.48079e+06
3.48182e+06
3.48273e+06
3.48354e+06
3.48425e+06
3.48489e+06
3.48547e+06
3.48599e+06
3.48646e+06
3.4869e+06
3.48729e+06
3.48765e+06
3.48799e+06
3.4883e+06
3.48858e+06
3.48885e+06
3.48909e+06
3.48932e+06
3.48953e+06
3.48972e+06
3.42454e+06
3.41439e+06
3.42297e+06
3.41642e+06
3.41807e+06
3.40954e+06
3.40597e+06
3.39334e+06
3.38077e+06
3.41517e+06
3.43362e+06
3.44567e+06
3.45221e+06
3.45945e+06
3.46382e+06
3.46791e+06
3.4708e+06
3.47337e+06
3.47542e+06
3.4772e+06
3.47871e+06
3.48002e+06
3.48116e+06
3.48215e+06
3.48303e+06
3.48381e+06
3.4845e+06
3.48512e+06
3.48567e+06
3.48617e+06
3.48663e+06
3.48704e+06
3.48742e+06
3.48777e+06
3.48809e+06
3.48839e+06
3.48866e+06
3.48891e+06
3.48914e+06
3.48936e+06
3.48956e+06
3.41932e+06
3.40625e+06
3.41741e+06
3.40851e+06
3.41179e+06
3.40291e+06
3.40058e+06
3.38756e+06
3.37695e+06
3.41038e+06
3.42987e+06
3.44211e+06
3.44974e+06
3.45716e+06
3.46203e+06
3.46631e+06
3.46948e+06
3.47221e+06
3.47443e+06
3.47634e+06
3.47796e+06
3.47937e+06
3.48058e+06
3.48165e+06
3.48258e+06
3.48341e+06
3.48414e+06
3.48479e+06
3.48538e+06
3.4859e+06
3.48638e+06
3.48681e+06
3.4872e+06
3.48756e+06
3.48789e+06
3.4882e+06
3.48848e+06
3.48873e+06
3.48897e+06
3.48919e+06
3.48939e+06
3.41608e+06
3.40176e+06
3.414e+06
3.40401e+06
3.40826e+06
3.39956e+06
3.39831e+06
3.38515e+06
3.37541e+06
3.40744e+06
3.4275e+06
3.43982e+06
3.44813e+06
3.45558e+06
3.46077e+06
3.46516e+06
3.4685e+06
3.47134e+06
3.47367e+06
3.47566e+06
3.47736e+06
3.47883e+06
3.48011e+06
3.48123e+06
3.4822e+06
3.48306e+06
3.48383e+06
3.48451e+06
3.48511e+06
3.48566e+06
3.48615e+06
3.48659e+06
3.487e+06
3.48737e+06
3.48771e+06
3.48802e+06
3.4883e+06
3.48856e+06
3.48881e+06
3.48903e+06
3.48924e+06
3.41491e+06
3.40059e+06
3.41285e+06
3.40269e+06
3.40738e+06
3.39934e+06
3.39914e+06
3.38611e+06
3.3761e+06
3.40613e+06
3.42633e+06
3.4386e+06
3.44724e+06
3.45464e+06
3.45999e+06
3.4644e+06
3.46784e+06
3.47072e+06
3.47312e+06
3.47516e+06
3.47691e+06
3.47842e+06
3.47973e+06
3.48088e+06
3.48189e+06
3.48277e+06
3.48356e+06
3.48426e+06
3.48488e+06
3.48544e+06
3.48594e+06
3.48639e+06
3.48681e+06
3.48718e+06
3.48753e+06
3.48784e+06
3.48813e+06
3.4884e+06
3.48865e+06
3.48887e+06
3.48908e+06
3.41528e+06
3.40183e+06
3.41356e+06
3.40393e+06
3.40869e+06
3.40193e+06
3.40228e+06
3.38928e+06
3.37807e+06
3.40597e+06
3.42612e+06
3.43822e+06
3.44699e+06
3.45423e+06
3.45963e+06
3.464e+06
3.46747e+06
3.47035e+06
3.47277e+06
3.47482e+06
3.47659e+06
3.47812e+06
3.47945e+06
3.48061e+06
3.48163e+06
3.48253e+06
3.48333e+06
3.48404e+06
3.48467e+06
3.48524e+06
3.48575e+06
3.48621e+06
3.48663e+06
3.48701e+06
3.48736e+06
3.48768e+06
3.48798e+06
3.48825e+06
3.48849e+06
3.48872e+06
3.48893e+06
3.41731e+06
3.40501e+06
3.41567e+06
3.40695e+06
3.41158e+06
3.40646e+06
3.40673e+06
3.3937e+06
3.38066e+06
3.40632e+06
3.42649e+06
3.43843e+06
3.4472e+06
3.45426e+06
3.45962e+06
3.46391e+06
3.46735e+06
3.4702e+06
3.4726e+06
3.47464e+06
3.4764e+06
3.47793e+06
3.47926e+06
3.48042e+06
3.48145e+06
3.48235e+06
3.48315e+06
3.48386e+06
3.4845e+06
3.48507e+06
3.48558e+06
3.48605e+06
3.48647e+06
3.48685e+06
3.48721e+06
3.48753e+06
3.48782e+06
3.4881e+06
3.48835e+06
3.48858e+06
3.48879e+06
3.42035e+06
3.40938e+06
3.41875e+06
3.41113e+06
3.41557e+06
3.41209e+06
3.41217e+06
3.39953e+06
3.38438e+06
3.40729e+06
3.42749e+06
3.43915e+06
3.44782e+06
3.45465e+06
3.45992e+06
3.46408e+06
3.46746e+06
3.47025e+06
3.4726e+06
3.4746e+06
3.47633e+06
3.47783e+06
3.47915e+06
3.4803e+06
3.48132e+06
3.48221e+06
3.48301e+06
3.48372e+06
3.48436e+06
3.48493e+06
3.48544e+06
3.4859e+06
3.48632e+06
3.48671e+06
3.48706e+06
3.48738e+06
3.48768e+06
3.48795e+06
3.4882e+06
3.48844e+06
3.48865e+06
3.42398e+06
3.4145e+06
3.42247e+06
3.41611e+06
3.42018e+06
3.41842e+06
3.41809e+06
3.40619e+06
3.38875e+06
3.40879e+06
3.42893e+06
3.44023e+06
3.44876e+06
3.45534e+06
3.46047e+06
3.46449e+06
3.46777e+06
3.47046e+06
3.47275e+06
3.47469e+06
3.47638e+06
3.47784e+06
3.47912e+06
3.48025e+06
3.48125e+06
3.48213e+06
3.48291e+06
3.48361e+06
3.48424e+06
3.4848e+06
3.48531e+06
3.48577e+06
3.48619e+06
3.48658e+06
3.48693e+06
3.48725e+06
3.48754e+06
3.48782e+06
3.48807e+06
3.4883e+06
3.48851e+06
3.42554e+06
3.41896e+06
3.42617e+06
3.42166e+06
3.4251e+06
3.42503e+06
3.42416e+06
3.41325e+06
3.39347e+06
3.41075e+06
3.43066e+06
3.44161e+06
3.44995e+06
3.45625e+06
3.46122e+06
3.46508e+06
3.46824e+06
3.47083e+06
3.47303e+06
3.4749e+06
3.47652e+06
3.47793e+06
3.47917e+06
3.48026e+06
3.48123e+06
3.48209e+06
3.48286e+06
3.48354e+06
3.48416e+06
3.48471e+06
3.48521e+06
3.48566e+06
3.48608e+06
3.48645e+06
3.4868e+06
3.48712e+06
3.48741e+06
3.48769e+06
3.48794e+06
3.48817e+06
3.48838e+06
3.42978e+06
3.42563e+06
3.43027e+06
3.42786e+06
3.43011e+06
3.4316e+06
3.43003e+06
3.42033e+06
3.39845e+06
3.41297e+06
3.4326e+06
3.44319e+06
3.45132e+06
3.45737e+06
3.46215e+06
3.46584e+06
3.46887e+06
3.47133e+06
3.47343e+06
3.47521e+06
3.47675e+06
3.4781e+06
3.47929e+06
3.48034e+06
3.48127e+06
3.4821e+06
3.48284e+06
3.4835e+06
3.4841e+06
3.48464e+06
3.48512e+06
3.48557e+06
3.48597e+06
3.48635e+06
3.48669e+06
3.487e+06
3.48729e+06
3.48756e+06
3.48781e+06
3.48804e+06
3.48826e+06
3.43396e+06
3.43281e+06
3.43449e+06
3.43482e+06
3.43536e+06
3.43801e+06
3.43564e+06
3.4273e+06
3.40344e+06
3.41517e+06
3.43468e+06
3.4449e+06
3.45286e+06
3.45864e+06
3.46324e+06
3.46675e+06
3.46962e+06
3.47195e+06
3.47393e+06
3.47561e+06
3.47707e+06
3.47835e+06
3.47948e+06
3.48047e+06
3.48136e+06
3.48215e+06
3.48285e+06
3.48349e+06
3.48406e+06
3.48459e+06
3.48506e+06
3.48549e+06
3.48588e+06
3.48625e+06
3.48658e+06
3.48689e+06
3.48718e+06
3.48745e+06
3.48769e+06
3.48792e+06
3.48813e+06
3.43954e+06
3.44176e+06
3.44006e+06
3.44294e+06
3.44126e+06
3.44427e+06
3.44117e+06
3.43414e+06
3.40887e+06
3.41767e+06
3.43701e+06
3.44678e+06
3.45458e+06
3.46008e+06
3.46448e+06
3.46778e+06
3.47049e+06
3.47268e+06
3.47453e+06
3.4761e+06
3.47747e+06
3.47866e+06
3.47972e+06
3.48065e+06
3.48149e+06
3.48223e+06
3.4829e+06
3.48351e+06
3.48406e+06
3.48456e+06
3.48501e+06
3.48543e+06
3.48581e+06
3.48616e+06
3.48649e+06
3.48679e+06
3.48707e+06
3.48733e+06
3.48758e+06
3.48781e+06
3.48802e+06
3.44627e+06
3.45161e+06
3.44736e+06
3.45226e+06
3.44837e+06
3.4507e+06
3.44735e+06
3.44132e+06
3.41535e+06
3.42101e+06
3.43984e+06