/*--------------------------------*- C++ -*----------------------------------*\
| =========                 |                                                 |
| \\      /  F ield         | OpenFOAM: The Open Source CFD Toolbox           |
|  \\    /   O peration     | Version:  v2012                                 |
|   \\  /    A nd           | Website:  www.openfoam.com                      |
|    \\/     M anipulation  |                                                 |
\*---------------------------------------------------------------------------*/
FoamFile
{
    version     2.0;
    format      ascii;
    class       surfaceScalarField;
    location    "0.05";
    object      phi;
}
// * * * * * * * * * * * * * * * * * * * * * * * * * * * * * * * * * * * * * //

dimensions      [0 3 -1 0 0 0 0];
oriented        oriented;


internalField   nonuniform List<scalar> 
6403
(
-2.7819e-16
3.08675e-13
-1.68855e-17
2.70061e-15
1.52313e-12
3.66356e-17
9.48924e-16
3.16809e-12
-3.44124e-17
-2.22079e-14
5.02754e-12
-3.05894e-17
-6.76055e-15
6.87312e-12
-1.16269e-16
-9.13147e-16
8.77141e-12
3.56809e-16
1.02728e-14
1.05662e-11
-1.94939e-16
2.05372e-14
1.22315e-11
-1.39707e-16
3.01494e-14
1.37289e-11
-2.41404e-16
4.92852e-14
1.49782e-11
1.87473e-16
6.89e-14
1.59682e-11
1.01696e-16
1.05136e-13
1.66218e-11
-5.95955e-17
1.4916e-13
1.69013e-11
6.0073e-17
2.10408e-13
1.6756e-11
1.43148e-17
2.94887e-13
1.61318e-11
7.56915e-17
4.20264e-13
1.49684e-11
-1.56679e-18
6.1644e-13
1.32107e-11
2.48897e-17
9.48956e-13
1.077e-11
3.98412e-17
1.47809e-12
7.51261e-12
5.92637e-17
2.41423e-12
3.20981e-12
7.05627e-17
3.66827e-12
-1.85775e-12
9.05622e-17
4.97847e-12
-7.54439e-12
1.00569e-16
6.40543e-12
-1.43213e-11
1.02892e-16
7.89915e-12
-2.22178e-11
1.12266e-16
9.47734e-12
-3.12635e-11
1.12357e-16
1.11387e-11
-4.15135e-11
1.21456e-16
1.28853e-11
-5.30138e-11
1.23004e-16
1.47141e-11
-6.58035e-11
1.3187e-16
1.66201e-11
-7.99285e-11
1.35568e-16
1.85948e-11
-9.54009e-11
1.42239e-16
2.0627e-11
-1.12241e-10
1.45921e-16
2.2703e-11
-1.30448e-10
1.52286e-16
2.48054e-11
-1.50001e-10
1.63713e-16
2.69142e-11
-1.70869e-10
1.87175e-16
2.9006e-11
-1.92998e-10
2.10279e-16
-2.1632e-10
2.24539e-16
-5.40115e-16
3.09256e-13
-1.04455e-17
-3.41864e-15
1.52573e-12
-3.6115e-17
3.39135e-15
3.16167e-12
2.00578e-16
2.929e-14
5.002e-12
2.65328e-17
4.90492e-14
6.8516e-12
-3.45123e-16
3.45249e-14
8.78637e-12
7.8337e-17
5.03551e-14
1.05558e-11
7.05615e-16
6.30507e-14
1.22149e-11
-5.38331e-16
9.69198e-14
1.36921e-11
-3.72138e-16
1.49355e-13
1.49269e-11
3.68881e-16
2.14829e-13
1.59062e-11
4.20881e-16
3.06328e-13
1.65325e-11
-6.74722e-17
4.17105e-13
1.67912e-11
1.98457e-16
5.63355e-13
1.66105e-11
2.88086e-17
7.56277e-13
1.59396e-11
1.15745e-16
1.01749e-12
1.4707e-11
-1.68485e-17
1.37786e-12
1.28505e-11
4.39132e-17
1.88466e-12
1.02631e-11
5.08184e-18
2.56133e-12
6.83614e-12
6.08971e-17
3.37477e-12
2.39682e-12
6.8498e-17
4.33655e-12
-2.81897e-12
1.06081e-16
5.50986e-12
-8.71698e-12
1.19757e-16
6.83312e-12
-1.56438e-11
1.3516e-16
8.26378e-12
-2.36477e-11
1.3386e-16
9.79887e-12
-3.27979e-11
1.41956e-16
1.1432e-11
-4.3146e-11
1.36622e-16
1.31598e-11
-5.47412e-11
1.42653e-16
1.49763e-11
-6.76196e-11
1.40006e-16
1.68744e-11
-8.18263e-11
1.46003e-16
1.8844e-11
-9.73703e-11
1.41925e-16
2.08729e-11
-1.1427e-10
1.44339e-16
2.29466e-11
-1.32522e-10
1.43956e-16
2.50473e-11
-1.52102e-10
1.56689e-16
2.71545e-11
-1.72977e-10
1.80607e-16
2.92448e-11
-1.95088e-10
2.07958e-16
-2.18367e-10
2.2438e-16
-5.19201e-16
3.0976e-13
1.04469e-17
7.64409e-16
1.52478e-12
3.54707e-17
-1.19739e-14
3.17452e-12
-3.20545e-16
-2.92781e-14
5.01602e-12
-2.23526e-16
-3.87125e-14
6.86263e-12
8.34001e-16
5.58261e-16
8.74451e-12
-8.06438e-16
3.48412e-14
1.05234e-11
1.65254e-16
7.20251e-14
1.21762e-11
-1.04042e-16
1.52032e-13
1.36172e-11
4.59186e-16
2.33664e-13
1.48413e-11
-5.05636e-16
3.4676e-13
1.57911e-11
-2.20169e-16
4.87244e-13
1.63895e-11
1.22422e-16
6.70807e-13
1.66099e-11
2.15561e-16
9.06708e-13
1.63754e-11
-1.3091e-17
1.20154e-12
1.56456e-11
1.50755e-16
1.578e-12
1.43307e-11
7.99047e-17
2.0552e-12
1.23743e-11
1.1934e-16
2.65065e-12
9.66795e-12
8.1141e-17
3.35584e-12
6.13122e-12
7.17785e-17
4.10378e-12
1.64884e-12
3.41038e-17
4.95373e-12
-3.66886e-12
4.90196e-17
6.0161e-12
-9.77916e-12
9.12384e-17
7.25076e-12
-1.68782e-11
1.03251e-16
8.62867e-12
-2.50254e-11
1.21697e-16
1.01326e-11
-3.43016e-11
1.2391e-16
1.17499e-11
-4.47632e-11
1.34002e-16
1.34719e-11
-5.64631e-11
1.34427e-16
1.52897e-11
-6.94372e-11
1.45472e-16
1.71936e-11
-8.37302e-11
1.48853e-16
1.91723e-11
-9.93489e-11
1.54555e-16
2.12122e-11
-1.1631e-10
1.54385e-16
2.32976e-11
-1.34607e-10
1.57258e-16
2.54102e-11
-1.54215e-10
1.66013e-16
2.75287e-11
-1.75095e-10
1.85808e-16
2.9629e-11
-1.97188e-10
2.08931e-16
-2.20421e-10
2.2831e-16
-8.27758e-16
3.10625e-13
1.54375e-17
-3.90528e-15
1.52771e-12
-8.04751e-18
6.70354e-16
3.17059e-12
-1.944e-16
2.35637e-14
4.98997e-12
-1.59229e-16
2.1503e-14
6.86617e-12
6.90012e-16
4.90086e-14
8.7174e-12
-4.2925e-16
9.85343e-14
1.04822e-11
1.09559e-15
1.34535e-13
1.21353e-11
-3.32625e-16
2.41983e-13
1.3514e-11
5.66086e-16
3.35961e-13
1.47486e-11
6.52064e-17
4.83272e-13
1.5647e-11
4.65639e-16
6.59492e-13
1.62123e-11
8.35245e-17
8.89669e-13
1.63825e-11
3.7459e-16
1.17956e-12
1.60866e-11
-9.9744e-17
1.53836e-12
1.52875e-11
2.21188e-16
1.98223e-12
1.38866e-11
-2.65336e-17
2.52225e-12
1.18349e-11
1.13204e-16
3.16323e-12
9.02659e-12
-2.51268e-17
3.89539e-12
5.3987e-12
2.83342e-17
4.68186e-12
8.62464e-13
3.81206e-17
5.55669e-12
-4.54353e-12
8.70511e-17
6.59398e-12
-1.08163e-11
7.5802e-17
7.78666e-12
-1.80708e-11
9.35913e-17
9.12698e-12
-2.63656e-11
9.58305e-17
1.06025e-11
-3.57771e-11
1.08763e-16
1.22024e-11
-4.63631e-11
1.05616e-16
1.39165e-11
-5.81774e-11
1.15183e-16
1.57341e-11
-7.12551e-11
1.19284e-16
1.76442e-11
-8.56404e-11
1.31999e-16
1.96334e-11
-1.01338e-10
1.35813e-16
2.1687e-11
-1.18364e-10
1.42317e-16
2.3788e-11
-1.36709e-10
1.44797e-16
2.59168e-11
-1.56344e-10
1.57312e-16
2.8051e-11
-1.7723e-10
1.78559e-16
3.01658e-11
-1.99303e-10
2.07207e-16
-2.22488e-10
2.30679e-16
-9.09601e-16
3.11532e-13
1.03726e-17
-2.06849e-15
1.52892e-12
2.73662e-17
-2.57281e-16
3.16903e-12
-2.42849e-16
2.23771e-14
4.96567e-12
1.35695e-17
1.25318e-14
6.87666e-12
6.40504e-16
2.29306e-14
8.70349e-12
-1.02333e-15
5.04577e-14
1.04592e-11
4.37398e-16
-4.49156e-14
1.22298e-11
-7.70024e-16
2.05928e-13
1.32609e-11
3.90469e-16
3.40908e-13
1.46164e-11
2.34963e-16
5.56944e-13
1.54352e-11
4.03645e-16
7.78127e-13
1.59888e-11
1.00529e-16
1.06854e-12
1.60947e-11
1.8659e-16
1.41279e-12
1.57442e-11
1.42807e-16
1.8299e-12
1.48714e-11
1.40101e-16
2.32781e-12
1.33886e-11
7.79615e-17
2.9155e-12
1.12474e-11
1.98885e-17
3.59212e-12
8.34977e-12
4.20901e-17
4.35106e-12
4.63942e-12
1.38833e-17
5.17348e-12
3.96984e-14
1.73994e-17
6.08335e-12
-5.45362e-12
2.43966e-17
7.12841e-12
-1.18616e-11
4.83046e-17
8.31564e-12
-1.92582e-11
4.84275e-17
9.64773e-12
-2.76979e-11
7.31181e-17
1.11179e-11
-3.72476e-11
7.46832e-17
1.27181e-11
-4.79636e-11
8.70642e-17
1.44385e-11
-5.98981e-11
8.97914e-17
1.6268e-11
-7.30849e-11
1.0615e-16
1.81946e-11
-8.75673e-11
1.15778e-16
2.02039e-11
-1.03348e-10
1.28911e-16
2.228e-11
-1.2044e-10
1.34776e-16
2.44047e-11
-1.38834e-10
1.43474e-16
2.65573e-11
-1.58497e-10
1.55941e-16
2.87143e-11
-1.79387e-10
1.79134e-16
3.08496e-11
-2.01438e-10
2.08367e-16
-2.24572e-10
2.36912e-16
-1.25094e-15
3.12827e-13
1.94107e-17
-5.4514e-15
1.53274e-12
-2.8658e-17
-1.7131e-14
3.18119e-12
-1.90686e-16
-1.73341e-14
4.96459e-12
2.10431e-16
7.28295e-15
6.85236e-12
1.12541e-15
1.1817e-13
8.59341e-12
1.09346e-16
3.49824e-13
1.02344e-11
6.84964e-16
5.18252e-13
1.2057e-11
-2.10677e-15
7.06372e-13
1.30662e-11
-1.35368e-15
6.45684e-13
1.46739e-11
-1.43725e-16
7.82145e-13
1.52949e-11
-3.0579e-16
9.66571e-13
1.58033e-11
-2.90798e-17
1.25594e-12
1.5806e-11
2.10613e-16
1.61719e-12
1.53843e-11
-1.13476e-16
2.06472e-12
1.44235e-11
1.31277e-16
2.5996e-12
1.28534e-11
-2.97866e-17
3.2255e-12
1.06209e-11
1.52275e-17
3.93986e-12
7.63536e-12
9.22207e-18
4.73811e-12
3.8407e-12
2.98202e-17
5.61127e-12
-8.3364e-13
2.50428e-17
6.5733e-12
-6.41583e-12
6.3719e-17
7.65317e-12
-1.29416e-11
4.19109e-17
8.86212e-12
-2.04672e-11
7.03913e-17
1.02083e-11
-2.90441e-11
7.51479e-17
1.16905e-11
-3.873e-11
8.8184e-17
1.33044e-11
-4.95777e-11
8.47344e-17
1.5042e-11
-6.1636e-11
9.5345e-17
1.68928e-11
-7.4936e-11
1.02802e-16
1.88444e-11
-8.95192e-11
1.18382e-16
2.08819e-11
-1.05386e-10
1.27347e-16
2.29881e-11
-1.22547e-10
1.37408e-16
2.51439e-11
-1.4099e-10
1.45068e-16
2.73272e-11
-1.60681e-10
1.60354e-16
2.95133e-11
-1.81574e-10
1.83698e-16
3.1675e-11
-2.036e-10
2.15487e-16
-2.26679e-10
2.46703e-16
-1.07083e-15
3.13926e-13
1.13012e-17
-2.81552e-15
1.53475e-12
3.46068e-17
1.00652e-14
3.16724e-12
-1.57839e-16
2.03744e-14
4.94933e-12
-7.49986e-16
4.29043e-14
6.84004e-12
6.64253e-16
-1.93264e-15
8.63504e-12
-1.6408e-15
-9.14326e-14
1.03401e-11
2.02384e-16
-1.14171e-13
1.20597e-11
3.52927e-15
-6.38788e-14
1.30071e-11
9.4965e-16
3.18244e-13
1.42964e-11
-4.58773e-15
6.00372e-13
1.50081e-11
1.11183e-15
9.38076e-13
1.5463e-11
-2.35039e-17
1.30632e-12
1.54393e-11
1.11867e-16
1.74036e-12
1.4953e-11
2.06334e-16
2.24217e-12
1.39217e-11
5.31577e-17
2.82385e-12
1.22733e-11
2.57568e-16
3.49197e-12
9.95302e-12
4.09892e-17
4.2458e-12
6.88203e-12
1.15339e-16
5.08627e-12
3.00018e-12
5.49414e-17
6.00999e-12
-1.75739e-12
6.50789e-17
7.0268e-12
-7.43273e-12
5.43803e-17
8.1544e-12
-1.40693e-11
7.19432e-17
9.4041e-12
-2.1717e-11
6.66123e-17
1.07849e-11
-3.0425e-11
9.34935e-17
1.22986e-11
-4.02439e-11
8.98902e-17
1.39434e-11
-5.12227e-11
9.94201e-17
1.57129e-11
-6.34058e-11
1.01156e-16
1.75977e-11
-7.68211e-11
1.16711e-16
1.95855e-11
-9.15072e-11
1.26723e-16
2.16609e-11
-1.07462e-10
1.3996e-16
2.38061e-11
-1.24693e-10
1.46892e-16
2.6001e-11
-1.43185e-10
1.56817e-16
2.82223e-11
-1.62902e-10
1.70925e-16
3.0444e-11
-1.83796e-10
1.95893e-16
3.26377e-11
-2.05793e-10
2.28134e-16
-2.28813e-10
2.61151e-16
-1.90691e-15
3.15913e-13
1.75994e-17
-2.55671e-15
1.53513e-12
-1.75212e-17
-8.53839e-15
3.17262e-12
-1.03245e-16
-2.0215e-14
4.95848e-12
-3.2791e-16
3.12696e-14
6.79654e-12
9.25711e-16
8.65352e-14
8.57342e-12
-1.44747e-15
1.90632e-13
1.02403e-11
-1.15117e-15
4.46091e-13
1.17978e-11
4.21041e-15
4.36578e-13
1.30179e-11
8.42855e-16
6.18041e-13
1.41201e-11
-4.20317e-15
8.15597e-13
1.48056e-11
1.27851e-15
1.10458e-12
1.51725e-11
-1.46192e-16
1.46135e-12
1.50834e-11
2.33341e-16
1.90054e-12
1.4515e-11
-1.58344e-16
2.42137e-12
1.33985e-11
-8.58562e-17
3.03149e-12
1.16652e-11
2.11504e-16
3.73319e-12
9.25107e-12
6.76687e-17
4.5262e-12
6.08984e-12
1.17077e-16
5.41197e-12
2.1145e-12
9.65496e-17
6.38875e-12
-2.73385e-12
9.20857e-17
7.46355e-12
-8.50733e-12
1.11834e-16
8.64804e-12
-1.52537e-11
8.48577e-17
9.95151e-12
-2.30203e-11
1.14178e-16
1.13821e-11
-3.18554e-11
1.15941e-16
1.29428e-11
-4.18046e-11
1.2557e-16
1.46331e-11
-5.29131e-11
1.20337e-16
1.64481e-11
-6.52209e-11
1.28878e-16
1.8379e-11
-7.87521e-11
1.35961e-16
2.04138e-11
-9.35421e-11
1.49251e-16
2.25371e-11
-1.09585e-10
1.57859e-16
2.47303e-11
-1.26886e-10
1.66358e-16
2.69724e-11
-1.45427e-10
1.74257e-16
2.9239e-11
-1.65169e-10
1.89119e-16
3.15029e-11
-1.86059e-10
2.13815e-16
3.37342e-11
-2.08024e-10
2.46568e-16
-2.30979e-10
2.79584e-16
-1.85042e-15
3.17854e-13
5.83262e-17
-9.9777e-15
1.54309e-12
-1.45538e-16
-1.43322e-14
3.17591e-12
-5.97448e-17
3.80018e-14
4.90099e-12
-5.31917e-16
3.46291e-14
6.81252e-12
1.42388e-15
7.28199e-14
8.52497e-12
-2.07378e-15
1.43085e-13
1.01916e-11
6.94861e-16
2.49681e-13
1.16785e-11
2.54979e-15
3.73031e-13
1.28979e-11
1.68117e-15
5.76037e-13
1.39149e-11
-5.02391e-15
8.28311e-13
1.45484e-11
1.17901e-15
1.14806e-12
1.48487e-11
-2.24836e-16
1.54167e-12
1.4689e-11
-3.47074e-17
2.01213e-12
1.40456e-11
-2.67361e-17
2.56782e-12
1.28403e-11
-1.64161e-16
3.21354e-12
1.10213e-11
2.92041e-16
3.95386e-12
8.51017e-12
7.37309e-18
4.78929e-12
5.25536e-12
1.91731e-16
5.72328e-12
1.18075e-12
1.13602e-16
6.75606e-12
-3.76623e-12
1.19929e-16
7.89302e-12
-9.64388e-12
1.26984e-16
9.14121e-12
-1.65015e-11
1.45193e-16
1.05082e-11
-2.43868e-11
1.40637e-16
1.20006e-11
-3.33474e-11
1.62649e-16
1.36216e-11
-4.34252e-11
1.55078e-16
1.53709e-11
-5.46622e-11
1.58525e-16
1.72442e-11
-6.70941e-11
1.57697e-16
1.92333e-11
-8.07411e-11
1.68657e-16
2.13264e-11
-9.56351e-11
1.76164e-16
2.35076e-11
-1.11766e-10
1.85771e-16
2.5758e-11
-1.29137e-10
1.91304e-16
2.80554e-11
-1.47725e-10
1.9915e-16
3.03746e-11
-1.67488e-10
2.12723e-16
3.26869e-11
-1.88372e-10
2.37392e-16
3.49613e-11
-2.10298e-10
2.69591e-16
-2.3318e-10
3.01654e-16
-1.53756e-15
3.1922e-13
1.07043e-16
-1.37308e-15
1.54363e-12
-1.76781e-17
-1.436e-14
3.18871e-12
-7.94833e-16
-6.2495e-14
4.94017e-12
-4.3408e-16
-5.58401e-14
6.82064e-12
1.81361e-15
4.2012e-14
8.42739e-12
-7.13149e-16
1.43259e-13
1.0106e-11
3.99957e-17
2.78099e-13
1.15305e-11
2.70627e-15
4.23723e-13
1.27516e-11
1.28215e-15
6.42853e-13
1.36967e-11
-4.72749e-15
9.06628e-13
1.4279e-11
1.18445e-15
1.23756e-12
1.45114e-11
-4.64077e-16
1.65091e-12
1.42727e-11
-3.12417e-16
2.14317e-12
1.35542e-11
-8.66455e-17
2.72674e-12
1.22545e-11
-1.14178e-16
3.40295e-12
1.03459e-11
1.4879e-16
4.17923e-12
7.73242e-12
-6.97552e-17
5.05738e-12
4.37794e-12
1.57078e-16
6.04073e-12
1.97464e-13
1.09304e-16
7.12954e-12
-4.85454e-12
1.50599e-16
8.32898e-12
-1.08427e-11
1.8034e-16
9.64482e-12
-1.78166e-11
1.64672e-16
1.10822e-11
-2.58234e-11
1.92066e-16
1.26459e-11
-3.49103e-11
1.94811e-16
1.4338e-11
-4.51167e-11
1.98705e-16
1.61579e-11
-5.64817e-11
1.91276e-16
1.81013e-11
-6.90372e-11
1.95009e-16
2.01599e-11
-8.27994e-11
1.99691e-16
2.23218e-11
-9.77966e-11
2.08128e-16
2.45708e-11
-1.14015e-10
2.14797e-16
2.68872e-11
-1.31453e-10
2.20584e-16
2.92481e-11
-1.50086e-10
2.27645e-16
3.1627e-11
-1.69867e-10
2.40764e-16
3.3994e-11
-1.90738e-10
2.65173e-16
3.63166e-11
-2.1262e-10
2.96142e-16
-2.35422e-10
3.27022e-16
-2.09848e-15
3.21292e-13
5.04224e-17
-1.16521e-14
1.55229e-12
1.16316e-16
1.15371e-14
3.16304e-12
1.27657e-15
5.9943e-14
4.89602e-12
-8.1108e-16
1.31126e-13
6.75131e-12
-2.14494e-15
1.30724e-13
8.42501e-12
1.30183e-15
2.16435e-13
1.00199e-11
-2.44473e-15
3.41946e-13
1.14022e-11
4.11543e-15
4.68862e-13
1.26136e-11
3.13947e-16
6.99713e-13
1.34829e-11
-2.98143e-15
9.66062e-13
1.40166e-11
2.23831e-15
1.31262e-12
1.41677e-11
1.25783e-16
1.73909e-12
1.38434e-11
-2.03797e-16
2.24993e-12
1.30444e-11
8.03025e-17
2.86301e-12
1.16393e-11
-1.42351e-16
3.57422e-12
9.63697e-12
2.83792e-16
4.39209e-12
6.91319e-12
-7.109e-17
5.31838e-12
3.45383e-12
2.79535e-16
6.35646e-12
-8.39686e-13
1.69887e-16
7.50789e-12
-6.00548e-12
1.78063e-16
8.77698e-12
-1.21113e-11
1.95285e-16
1.01667e-11
-1.92056e-11
2.00603e-16
1.16813e-11
-2.73371e-11
2.06037e-16
1.33242e-11
-3.65523e-11
2.28316e-16
1.50965e-11
-4.68883e-11
2.25434e-16
1.6997e-11
-5.83815e-11
2.26515e-16
1.90208e-11
-7.10605e-11
2.27349e-16
2.11592e-11
-8.49372e-11
2.34399e-16
2.33999e-11
-1.00037e-10
2.40789e-16
2.5726e-11
-1.1634e-10
2.47176e-16
2.81171e-11
-1.33844e-10
2.52617e-16
3.05493e-11
-1.52518e-10
2.58754e-16
3.29948e-11
-1.72312e-10
2.71923e-16
3.54224e-11
-1.93166e-10
2.95202e-16
3.77982e-11
-2.14995e-10
3.25605e-16
-2.37708e-10
3.54021e-16
-2.02986e-15
3.2326e-13
1.06651e-17
-3.24985e-15
1.55363e-12
1.00905e-16
-1.54364e-14
3.17231e-12
8.87975e-16
-4.8225e-14
4.93062e-12
-8.87309e-16
1.51932e-14
6.69538e-12
-1.19013e-15
5.67529e-14
8.38469e-12
1.70384e-15
1.28372e-13
9.94333e-12
-3.40381e-15
2.78031e-13
1.12525e-11
3.82209e-15
3.92292e-13
1.24862e-11
-1.07278e-16
6.64638e-13
1.32136e-11
-4.71754e-15
9.56302e-13
1.37166e-11
8.69158e-16
1.35361e-12
1.37713e-11
1.58732e-17
1.81906e-12
1.33733e-11
-4.35908e-16
2.37211e-12
1.24906e-11
-2.40105e-17
3.02296e-12
1.09847e-11
-3.84056e-16
3.77419e-12
8.88752e-12
2.82692e-16
4.6338e-12
6.05155e-12
-1.50695e-16
5.60812e-12
2.48171e-12
3.1866e-16
6.70044e-12
-1.93118e-12
1.82285e-16
7.91304e-12
-7.217e-12
2.32443e-16
9.25043e-12
-1.34475e-11
2.31805e-16
1.0716e-11
-2.06701e-11
2.3018e-16
1.23123e-11
-2.89323e-11
2.5302e-16
1.40409e-11
-3.82799e-11
2.54834e-16
1.59015e-11
-4.87479e-11
2.54896e-16
1.78915e-11
-6.03706e-11
2.52346e-16
2.00051e-11
-7.31733e-11
2.55173e-16
2.22329e-11
-8.71642e-11
2.62231e-16
2.45616e-11
-1.02365e-10
2.6821e-16
2.69738e-11
-1.18752e-10
2.76538e-16
2.94478e-11
-1.36317e-10
2.81869e-16
3.19586e-11
-1.55028e-10
2.90494e-16
3.44773e-11
-1.7483e-10
3.0296e-16
3.69711e-11
-1.95659e-10
3.27462e-16
3.94045e-11
-2.17428e-10
3.5555e-16
-2.40041e-10
3.82679e-16
-2.21692e-15
3.25453e-13
2.41492e-17
-8.37662e-15
1.55951e-12
5.3893e-17
-1.18882e-14
3.17383e-12
9.74968e-16
-3.66934e-14
4.95717e-12
-8.58692e-16
5.78919e-14
6.60451e-12
-1.54369e-15
1.46115e-13
8.29926e-12
2.13696e-15
2.92267e-13
9.79855e-12
-1.83866e-15
7.61034e-13
1.07699e-11
4.5784e-15
6.26791e-13
1.26166e-11
-9.89693e-16
8.93371e-13
1.2951e-11
-3.87279e-15
1.10685e-12
1.34937e-11
5.62649e-16
1.49653e-12
1.33842e-11
2.57647e-16
1.93928e-12
1.29249e-11
-4.54573e-16
2.50592e-12
1.19229e-11
-1.92219e-16
3.1765e-12
1.03103e-11
-2.77374e-16
3.96436e-12
8.10064e-12
1.36628e-16
4.86922e-12
5.14438e-12
-1.22757e-16
5.89775e-12
1.45428e-12
1.9689e-16
7.0518e-12
-3.08459e-12
1.60599e-16
8.33471e-12
-8.49928e-12
1.8689e-16
9.74932e-12
-1.48616e-11
1.84533e-16
1.12978e-11
-2.22181e-11
1.89952e-16
1.2982e-11
-3.06159e-11
2.0884e-16
1.48028e-11
-4.00999e-11
2.31393e-16
1.67586e-11
-5.0703e-11
2.43805e-16
1.88459e-11
-6.24571e-11
2.54037e-16
2.10577e-11
-7.53844e-11
2.67922e-16
2.33834e-11
-8.94891e-11
2.79233e-16
2.58089e-11
-1.04789e-10
2.91948e-16
2.83153e-11
-1.21257e-10
3.00613e-16
3.08799e-11
-1.38881e-10
3.11113e-16
3.34764e-11
-1.57624e-10
3.19184e-16
3.60744e-11
-1.77427e-10
3.34935e-16
3.86396e-11
-1.98223e-10
3.58059e-16
4.11349e-11
-2.19922e-10
3.86511e-16
-2.42425e-10
4.10341e-16
-1.89405e-15
3.273e-13
8.4974e-18
-3.37179e-15
1.56113e-12
8.64837e-17
1.70976e-14
3.15066e-12
8.3539e-16
3.58088e-14
4.94333e-12
-1.35828e-15
5.62125e-14
6.58802e-12
-3.26459e-15
-4.69799e-14
8.40295e-12
4.46065e-16
-2.86107e-13
1.00414e-11
-2.07718e-15
-3.44349e-13
1.08099e-11
8.43875e-15
-3.21538e-13
1.25927e-11
2.06271e-15
3.87927e-13
1.22572e-11
-4.0096e-15
8.3185e-13
1.30524e-11
2.27906e-15
1.39658e-12
1.28178e-11
-3.61621e-16
1.95051e-12
1.23652e-11
-4.33853e-16
2.60708e-12
1.12661e-11
-2.73251e-17
3.34352e-12
9.5711e-12
-2.47717e-16
4.18796e-12
7.25665e-12
1.56482e-16
5.14459e-12
4.18508e-12
-2.38536e-16
6.22888e-12
3.70059e-13
1.29938e-16
7.44412e-12
-4.30001e-12
7.51618e-17
8.79556e-12
-9.85022e-12
1.93219e-16
1.02865e-11
-1.6352e-11
1.88669e-16
1.192e-11
-2.38508e-11
2.1385e-16
1.36963e-11
-3.23914e-11
2.2049e-16
1.56149e-11
-4.20176e-11
2.38369e-16
1.76727e-11
-5.27601e-11
2.42791e-16
1.98647e-11
-6.46484e-11
2.59493e-16
2.21824e-11
-7.77014e-11
2.71142e-16
2.46141e-11
-9.19199e-11
2.91322e-16
2.71442e-11
-1.07318e-10
3.02812e-16
2.97525e-11
-1.23865e-10
3.20316e-16
3.24149e-11
-1.41543e-10
3.31041e-16
3.51037e-11
-1.60311e-10
3.46368e-16
3.77865e-11
-1.80109e-10
3.6172e-16
4.04278e-11
-2.00863e-10
3.88507e-16
4.29887e-11
-2.22481e-10
4.14473e-16
-2.44862e-10
4.38167e-16
-2.72211e-15
3.3002e-13
1.96716e-17
-9.84077e-15
1.56755e-12
-4.1437e-17
-3.46834e-14
3.17718e-12
3.09302e-16
-2.87919e-14
4.93703e-12
9.03328e-16
1.31181e-14
6.53985e-12
9.3108e-16
2.40882e-13
8.17365e-12
2.45739e-15
6.5609e-13
9.60484e-12
1.32937e-15
1.03293e-12
1.04749e-11
-9.20519e-15
1.40307e-12
1.22289e-11
-2.66785e-15
1.23465e-12
1.2416e-11
8.84443e-15
1.4745e-12
1.28236e-11
-2.52735e-15
1.76457e-12
1.25291e-11
9.17323e-16
2.24355e-12
1.18886e-11
3.94268e-17
2.83336e-12
1.06744e-11
-9.11584e-18
3.56209e-12
8.84301e-12
1.36535e-16
4.43009e-12
6.39133e-12
3.53272e-16
5.42695e-12
3.18612e-12
-1.072e-16
6.57035e-12
-7.70951e-13
3.25582e-16
7.8535e-12
-5.58246e-12
1.59332e-16
9.28253e-12
-1.128e-11
6.91813e-17
1.08592e-11
-1.79296e-11
6.72728e-17
1.25852e-11
-2.55773e-11
7.76424e-17
1.44601e-11
-3.42667e-11
1.13985e-16
1.64827e-11
-4.40404e-11
1.45769e-16
1.86489e-11
-5.49263e-11
1.86405e-16
2.09525e-11
-6.69515e-11
2.15719e-16
2.33835e-11
-8.01319e-11
2.54957e-16
2.59286e-11
-9.44643e-11
2.79973e-16
2.85706e-11
-1.0996e-10
3.08939e-16
3.1288e-11
-1.26581e-10
3.27284e-16
3.40549e-11
-1.44309e-10
3.49876e-16
3.68418e-11
-1.63097e-10
3.65012e-16
3.96148e-11
-1.8288e-10
3.87493e-16
4.23364e-11
-2.03583e-10
4.12978e-16
4.4966e-11
-2.25109e-10
4.41594e-16
-2.47354e-10
4.62366e-16
-2.07222e-15
3.32007e-13
-8.35704e-18
-7.99808e-15
1.57385e-12
5.81226e-17
-3.44445e-15
3.17298e-12
1.1493e-16
4.81412e-14
4.88571e-12
1.4522e-16
2.12937e-14
6.56204e-12
-5.87246e-16
5.63077e-14
8.14167e-12
1.62576e-15
9.77347e-14
9.55935e-12
2.79249e-15
-7.01713e-14
1.06603e-11
-7.72489e-15
4.55544e-13
1.16964e-11
-1.4565e-15
7.2683e-13
1.21287e-11
6.64666e-15
1.19395e-12
1.23606e-11
-3.02911e-15
1.67015e-12
1.20506e-11
3.15224e-16
2.26655e-12
1.12924e-11
-1.52727e-16
2.95336e-12
9.98588e-12
9.43659e-17
3.75509e-12
8.04255e-12
8.53338e-17
4.68784e-12
5.45995e-12
3.06935e-16
5.74536e-12
2.12537e-12
-3.1789e-16
6.95378e-12
-1.97843e-12
2.27227e-16
8.30745e-12
-6.93661e-12
3.25281e-17
9.81571e-12
-1.27883e-11
1.41951e-16
1.14797e-11
-1.95936e-11
1.06601e-16
1.33013e-11
-2.73992e-11
1.06654e-16
1.52794e-11
-3.62452e-11
1.00395e-16
1.74116e-11
-4.61728e-11
1.3481e-16
1.96926e-11
-5.72073e-11
1.56728e-16
2.21143e-11
-6.93731e-11
2.02711e-16
2.46654e-11
-8.26827e-11
2.32856e-16
2.73308e-11
-9.71291e-11
2.7547e-16
3.00918e-11
-1.1272e-10
2.99928e-16
3.29248e-11
-1.29413e-10
3.34057e-16
3.58022e-11
-1.47185e-10
3.55561e-16
3.86927e-11
-1.65987e-10
3.82562e-16
4.15605e-11
-1.85747e-10
4.04259e-16
4.43662e-11
-2.06387e-10
4.36348e-16
4.70671e-11
-2.27808e-10
4.62747e-16
-2.49903e-10
4.85541e-16
-2.27392e-15
3.34261e-13
-5.77403e-17
-3.02491e-15
1.57438e-12
2.38655e-16
1.7013e-15
3.16996e-12
-6.82638e-18
-1.85864e-14
4.9108e-12
6.18921e-16
4.37155e-14
6.4857e-12
-1.48864e-15
1.23095e-13
8.07267e-12
2.7615e-15
2.53588e-13
9.40448e-12
1.24185e-15
4.20411e-13
1.05138e-11
-5.01937e-15
7.11585e-13
1.14069e-11
-2.42292e-15
9.84716e-13
1.18462e-11
8.06481e-15
1.37887e-12
1.19679e-11
-3.51481e-15
1.85768e-12
1.15764e-11
1.09112e-15
2.44301e-12
1.07098e-11
2.28196e-16
3.15225e-12
9.27384e-12
-1.83275e-16
3.98437e-12
7.21079e-12
9.94399e-17
4.96608e-12
4.47929e-12
1.90172e-16
6.08232e-12
1.00547e-12
-3.03162e-16
7.36031e-12
-3.2564e-12
8.59222e-17
8.79227e-12
-8.36949e-12
-1.79632e-18
1.03875e-11
-1.43847e-11
-6.71707e-18
1.21462e-11
-2.13539e-11
-2.83417e-17
1.40702e-11
-2.93251e-11
-6.7122e-17
1.6158e-11
-3.83347e-11
-1.88537e-17
1.84063e-11
-4.84224e-11
1.50236e-17
2.08084e-11
-5.96103e-11
8.7252e-17
2.33549e-11
-7.19201e-11
1.35073e-16
2.60328e-11
-8.53607e-11
2.025e-16
2.88253e-11
-9.99212e-11
2.43376e-16
3.17116e-11
-1.15605e-10
2.92881e-16
3.46664e-11
-1.32367e-10
3.24694e-16
3.766e-11
-1.50178e-10
3.6334e-16
4.0659e-11
-1.68985e-10
3.88755e-16
4.36257e-11
-1.88712e-10
4.21053e-16
4.65184e-11
-2.09279e-10
4.51429e-16
4.92928e-11
-2.30581e-10
4.82889e-16
-2.52509e-10
5.03384e-16
-2.5282e-15
3.37136e-13
-1.78713e-16
-1.11852e-14
1.58207e-12
2.40236e-16
-1.88634e-15
3.15982e-12
1.18979e-15
6.27576e-14
4.85508e-12
-2.96925e-16
1.12908e-13
6.42151e-12
-1.49857e-15
1.44456e-13
8.04176e-12
1.53018e-15
2.42679e-13
9.29152e-12
1.99133e-15
3.94182e-13
1.03829e-11
-5.56554e-15
6.71716e-13
1.11319e-11
-2.5112e-15
9.71156e-13
1.15274e-11
6.8616e-15
1.397e-12
1.15378e-11
-4.23154e-15
1.93055e-12
1.1047e-11
1.16164e-15
2.56597e-12
1.00775e-11
2.50571e-16
3.33281e-12
8.50223e-12
-2.88051e-16
4.2217e-12
6.31996e-12
-2.396e-16
5.26709e-12
3.43509e-12
2.70181e-16
6.4514e-12
-1.82847e-13
-3.87947e-16
7.80405e-12
-4.60964e-12
6.98551e-17
9.31873e-12
-9.88592e-12
-1.03761e-16
1.10063e-11
-1.60736e-11
9.81109e-18
1.2866e-11
-2.32152e-11
-6.808e-17
1.48985e-11
-3.13597e-11
-5.92058e-17
1.71022e-11
-4.05401e-11
-5.76032e-17
1.94726e-11
-5.07943e-11
1.14654e-17
2.20021e-11
-6.21409e-11
5.05629e-17
2.46797e-11
-7.45984e-11
1.26175e-16
2.74908e-11
-8.81722e-11
1.71281e-16
3.04166e-11
-1.02847e-10
2.35727e-16
3.34343e-11
-1.18623e-10
2.73046e-16
3.65166e-11
-1.35449e-10
3.24902e-16
3.96315e-11
-1.53292e-10
3.58161e-16
4.27434e-11
-1.72096e-10
3.98315e-16
4.58124e-11
-1.9178e-10
4.27781e-16
4.87948e-11
-2.12259e-10
4.66903e-16
5.1644e-11
-2.33428e-10
4.95998e-16
-2.55174e-10
5.20847e-16
-2.30434e-15
3.39618e-13
-9.85848e-17
-1.89988e-15
1.58268e-12
-3.36705e-16
-1.68787e-14
3.17974e-12
-1.89465e-15
-3.25858e-14
4.86443e-12
1.92273e-15
-3.20442e-14
6.41502e-12
2.63187e-15
9.43168e-14
7.919e-12
-2.13607e-15
2.06631e-13
9.17227e-12
4.50412e-15
4.02067e-13
1.01989e-11
-7.1324e-15
7.05305e-13
1.08407e-11
-1.32523e-15
1.03378e-12
1.11735e-11
6.01424e-15
1.49877e-12
1.10663e-11
-4.17272e-15
2.06914e-12
1.04819e-11
9.8013e-16
2.74828e-12
9.40023e-12
2.76669e-16
3.56018e-12
7.68604e-12
-3.02174e-16
4.5025e-12
5.37627e-12
-1.22822e-16
5.60808e-12
2.33059e-12
2.22614e-16
6.86227e-12
-1.44033e-12
-2.64456e-16
8.29374e-12
-6.04116e-12
7.32068e-17
9.8963e-12
-1.14902e-11
-6.61928e-17
1.16797e-11
-1.78586e-11
-4.58356e-17
1.36435e-11
-2.51812e-11
-7.89046e-17
1.57898e-11
-3.35084e-11
-1.34444e-16
1.81152e-11
-4.28679e-11
-8.16269e-17
2.06145e-11
-5.32955e-11
-5.32895e-17
2.3278e-11
-6.4806e-11
2.922e-17
2.60935e-11
-7.74149e-11
7.82823e-17
2.90442e-11
-9.11235e-11
1.5839e-16
3.21095e-11
-1.05912e-10
2.05006e-16
3.52645e-11
-1.21778e-10
2.68898e-16
3.84795e-11
-1.38663e-10
3.10065e-16
4.17203e-11
-1.56532e-10
3.62458e-16
4.4949e-11
-1.75323e-10
3.96623e-16
4.81233e-11
-1.94953e-10
4.38358e-16
5.11972e-11
-2.15332e-10
4.73937e-16
5.4122e-11
-2.36351e-10
5.10055e-16
-2.57896e-10
5.32997e-16
-2.57233e-15
3.42275e-13
-2.52467e-17
-9.43034e-15
1.58973e-12
-1.59987e-16
4.88369e-15
3.16992e-12
-1.40693e-15
5.82415e-14
4.80685e-12
1.57488e-15
7.722e-14
6.38696e-12
1.92809e-15
1.85788e-13
7.81216e-12
-2.0853e-15
3.38977e-13
9.01978e-12
5.7649e-15
5.43341e-13
1.00012e-11
-6.91282e-15
8.74341e-13
1.05193e-11
-1.61691e-15
1.2011e-12
1.08414e-11
8.84134e-15
1.68313e-12
1.05965e-11
-2.47614e-15
2.24706e-12
9.9218e-12
1.20749e-15
2.95066e-12
8.69991e-12
1.78493e-16
3.79686e-12
6.83788e-12
4.80119e-17
4.79298e-12
4.3815e-12
9.5726e-17
5.96225e-12
1.16266e-12
2.99109e-16
7.29349e-12
-2.77411e-12
-2.39409e-16
8.81086e-12
-7.55865e-12
1.10656e-16
1.05099e-11
-1.31903e-11
-2.50361e-17
1.24e-11
-1.97499e-11
4.07234e-17
1.44798e-11
-2.72629e-11
-8.45069e-17
1.67488e-11
-3.57799e-11
-9.28483e-17
1.92036e-11
-4.53251e-11
-1.14403e-16
2.18383e-11
-5.59321e-11
-2.93529e-17
2.46424e-11
-6.76117e-11
8.45278e-18
2.7602e-11
-8.03755e-11
9.46464e-17
3.06985e-11
-9.42208e-11
1.38244e-16
3.39092e-11
-1.09123e-10
2.12535e-16
3.7207e-11
-1.25075e-10
2.53631e-16
4.05596e-11
-1.42015e-10
3.16663e-16
4.39305e-11
-1.59903e-10
3.56233e-16
4.72793e-11
-1.78671e-10
4.05685e-16
5.05611e-11
-1.98233e-10
4.40395e-16
5.37277e-11
-2.18497e-10
4.856e-16
5.67282e-11
-2.39349e-10
5.18027e-16
-2.60675e-10
5.4698e-16
-2.50626e-15
3.4487e-13
-4.46402e-17
-5.1666e-15
1.5928e-12
-1.30029e-16
6.65987e-16
3.16769e-12
-1.48908e-15
4.7848e-14
4.75693e-12
1.62042e-15
3.63887e-14
6.39042e-12
1.82426e-15
1.09336e-13
7.74022e-12
-2.3895e-15
2.08996e-13
8.91611e-12
4.18749e-15
1.60321e-13
1.00676e-11
-8.07062e-15
7.17178e-13
9.96161e-12
-3.92523e-16
1.08049e-12
1.04735e-11
7.50337e-15
1.69038e-12
9.99971e-12
-1.39946e-15
2.32552e-12
9.28663e-12
1.16775e-16
3.12638e-12
7.90144e-12
4.50149e-16
4.04746e-12
5.91475e-12
-1.05128e-16
5.12394e-12
3.30549e-12
1.29456e-16
6.37041e-12
-8.21414e-14
3.07415e-16
7.78416e-12
-4.19105e-12
-2.45839e-16
9.39158e-12
-9.16616e-12
9.36754e-17
1.11899e-11
-1.499e-11
9.99378e-18
1.31879e-11
-2.17476e-11
1.36805e-16
1.53847e-11
-2.94602e-11
1.00005e-16
1.77804e-11
-3.81771e-11
-2.5149e-17
2.03706e-11
-4.7917e-11
-5.98403e-18
2.31477e-11
-5.87108e-11
-9.0578e-18
2.60995e-11
-7.05648e-11
6.43864e-17
2.92101e-11
-8.3487e-11
9.21754e-17
3.24589e-11
-9.74703e-11
1.67033e-16
3.58209e-11
-1.12485e-10
2.03871e-16
3.92667e-11
-1.28521e-10
2.70494e-16
4.27616e-11
-1.4551e-10
3.11207e-16
4.62663e-11
-1.63407e-10
3.69272e-16
4.97379e-11
-1.82142e-10
4.05819e-16
5.31289e-11
-2.01623e-10
4.52742e-16
5.63888e-11
-2.21755e-10
4.91071e-16
5.94642e-11
-2.42423e-10
5.31079e-16
-2.63509e-10
5.57217e-16
-2.91479e-15
3.47853e-13
-1.79046e-17
-9.10721e-15
1.59905e-12
-1.71496e-16
-1.73659e-14
3.18032e-12
-1.35218e-15
7.76003e-15
4.72585e-12
2.85827e-15
7.359e-14
6.31636e-12
3.9962e-15
3.15519e-13
7.49889e-12
-1.35333e-15
7.32145e-13
8.48785e-12
4.53329e-15
1.14154e-12
9.68866e-12
-1.36697e-14
1.61182e-12
9.49205e-12
-2.17553e-15
1.66957e-12
1.03983e-11
8.17526e-15
2.14375e-12
9.53123e-12
-3.75844e-15
2.67616e-12
8.75212e-12
1.10459e-15
3.44639e-12
7.13132e-12
-6.69689e-16
4.36744e-12
4.98961e-12
1.01997e-16
5.48305e-12
2.18893e-12
-2.09687e-16
6.79317e-12
-1.39053e-12
4.20207e-16
8.29173e-12
-5.69318e-12
-3.18776e-16
9.99748e-12
-1.08709e-11
2.66372e-16
1.19069e-11
-1.68991e-11
1.50739e-16
1.40266e-11
-2.38671e-11
2.01438e-16
1.63547e-11
-3.1789e-11
5.69896e-17
1.8888e-11
-4.07123e-11
-3.21034e-18
2.16226e-11
-5.06534e-11
-3.67485e-17
2.45496e-11
-6.16394e-11
3.72868e-17
2.7656e-11
-7.36724e-11
6.13622e-17
3.0924e-11
-8.6756e-11
1.39003e-16
3.43312e-11
-1.00878e-10
1.68543e-16
3.78502e-11
-1.16005e-10
2.38893e-16
4.14491e-11
-1.32119e-10
2.73223e-16
4.50903e-11
-1.4915e-10
3.36988e-16
4.87321e-11
-1.67048e-10
3.73759e-16
5.23286e-11
-1.85737e-10
4.24862e-16
5.58299e-11
-2.05123e-10
4.5935e-16
5.91827e-11
-2.25106e-10
5.07004e-16
6.23317e-11
-2.4557e-10
5.40687e-16
-2.66395e-10
5.73105e-16
-2.53322e-15
3.50417e-13
-2.64221e-17
-4.74018e-15
1.60186e-12
5.35295e-17
1.871e-14
3.15584e-12
-2.23494e-16
4.45807e-14
4.70115e-12
-1.44549e-15
9.72711e-14
6.2679e-12
-1.42549e-15
7.46201e-14
7.52342e-12
-1.77164e-15
6.79767e-15
8.57129e-12
-1.79729e-15
9.20041e-14
9.57561e-12
1.18916e-14
2.96935e-13
9.27863e-12
6.89768e-16
1.11545e-12
9.58995e-12
-6.93295e-15
1.76709e-12
8.87127e-12
3.00054e-15
2.62228e-12
7.89749e-12
-1.24074e-15
3.53263e-12
6.21522e-12