/*--------------------------------*- C++ -*----------------------------------*\
| =========                 |                                                 |
| \\      /  F ield         | OpenFOAM: The Open Source CFD Toolbox           |
|  \\    /   O peration     | Version:  v2012                                 |
|   \\  /    A nd           | Website:  www.openfoam.com                      |
|    \\/     M anipulation  |                                                 |
\*---------------------------------------------------------------------------*/
FoamFile
{
    version     2.0;
    format      ascii;
    class       surfaceScalarField;
    location    "0.1";
    object      phi;
}
// * * * * * * * * * * * * * * * * * * * * * * * * * * * * * * * * * * * * * //

dimensions      [0 3 -1 0 0 0 0];
oriented        oriented;


internalField   nonuniform List<scalar> 
8135
(
2.98356e-12
-5.00886e-10
1.36821e-18
3.21937e-12
-5.68588e-10
8.4817e-19
3.4428e-12
-6.4314e-10
-9.2077e-20
3.64627e-12
-7.2518e-10
-8.17469e-19
3.82136e-12
-8.14617e-10
-1.17452e-18
3.95898e-12
-9.11379e-10
-1.26214e-18
4.04972e-12
-1.0158e-09
-1.1153e-18
4.08427e-12
-1.12637e-09
-8.73626e-19
4.05399e-12
-1.24251e-09
-7.35515e-19
3.95176e-12
-1.36187e-09
-3.86584e-19
3.77283e-12
-1.48165e-09
-1.42746e-19
3.51566e-12
-1.59799e-09
7.12106e-20
3.18324e-12
-1.70417e-09
1.38479e-19
2.78381e-12
-1.79236e-09
1.2359e-19
2.33165e-12
-1.8517e-09
2.63592e-20
1.84757e-12
-1.86724e-09
-1.57955e-19
1.35841e-12
-1.81991e-09
-2.86509e-19
8.95574e-13
-1.68566e-09
-4.23399e-19
4.92793e-13
-1.43319e-09
-4.10473e-19
1.80278e-13
-1.02456e-09
-3.89053e-19
-4.11697e-10
-4.05027e-19
3.01041e-12
-5.01129e-10
3.64851e-18
3.24814e-12
-5.68826e-10
2.04345e-18
3.4733e-12
-6.43365e-10
-3.69743e-19
3.67822e-12
-7.25385e-10
-2.33029e-18
3.85443e-12
-8.14793e-10
-3.31908e-18
3.99279e-12
-9.11517e-10
-3.62946e-18
4.08379e-12
-1.01589e-09
-3.29392e-18
4.11804e-12
-1.1264e-09
-2.65498e-18
4.08676e-12
-1.24248e-09
-2.05286e-18
3.98279e-12
-1.36177e-09
-6.61049e-19
3.80132e-12
-1.48147e-09
4.53215e-19
3.5408e-12
-1.59773e-09
1.38248e-18
3.20427e-12
-1.70383e-09
1.69894e-18
2.80007e-12
-1.79196e-09
1.4795e-18
2.34264e-12
-1.85124e-09
8.72349e-19
1.85305e-12
-1.86675e-09
-9.28811e-20
1.3585e-12
-1.81941e-09
-9.26422e-19
8.90851e-13
-1.68519e-09
-1.76451e-18
4.84488e-13
-1.43278e-09
-2.21495e-18
1.70564e-13
-1.02424e-09
-2.5514e-18
-4.11527e-10
-2.77336e-18
3.05961e-12
-5.01377e-10
6.65522e-18
3.30205e-12
-5.69068e-10
3.6114e-18
3.53165e-12
-6.43594e-10
-6.80917e-19
3.74059e-12
-7.25594e-10
-4.25148e-18
3.92026e-12
-8.14973e-10
-6.10961e-18
4.06136e-12
-9.11658e-10
-6.76104e-18
4.1542e-12
-1.01599e-09
-6.20536e-18
4.18915e-12
-1.12644e-09
-5.01574e-18
4.15723e-12
-1.24245e-09
-3.64136e-18
4.05108e-12
-1.36166e-09
-9.55018e-19
3.86576e-12
-1.48128e-09
1.19489e-18
3.59966e-12
-1.59746e-09
2.94381e-18
3.25586e-12
-1.70349e-09
3.50955e-18
2.8428e-12
-1.79155e-09
3.00332e-18
2.37524e-12
-1.85077e-09
1.74804e-18
1.87472e-12
-1.86625e-09
-2.84874e-19
1.36918e-12
-1.81891e-09
-2.12551e-18
8.91468e-13
-1.68472e-09
-4.05566e-18
4.77459e-13
-1.43237e-09
-5.31193e-18
1.61573e-13
-1.02393e-09
-6.35745e-18
-4.11366e-10
-6.94015e-18
3.13063e-12
-5.01633e-10
9.83204e-18
3.38001e-12
-5.69317e-10
5.33863e-18
3.61624e-12
-6.43831e-10
-9.39915e-19
3.8313e-12
-7.25809e-10
-6.13103e-18
4.01636e-12
-8.15158e-10
-8.86784e-18
4.16186e-12
-9.11804e-10
-9.81015e-18
4.25783e-12
-1.01608e-09
-8.99938e-18
4.29433e-12
-1.12647e-09
-7.24805e-18
4.26203e-12
-1.24242e-09
-5.20143e-18
4.1533e-12
-1.36155e-09
-1.18599e-18
3.963e-12
-1.48109e-09
2.10882e-18
3.68938e-12
-1.59719e-09
4.83115e-18
3.33552e-12
-1.70314e-09
5.76465e-18
2.91005e-12
-1.79112e-09
4.97714e-18
2.42813e-12
-1.85029e-09
2.96485e-18
1.91197e-12
-1.86574e-09
-3.06737e-19
1.39057e-12
-1.81838e-09
-3.37498e-18
8.98288e-13
-1.68422e-09
-6.61114e-18
4.73206e-13
-1.43194e-09
-8.88693e-18
1.54075e-13
-1.02361e-09
-1.08361e-17
-4.11212e-10
-1.19367e-17
3.22395e-12
-5.01897e-10
1.30344e-17
3.48239e-12
-5.69575e-10
7.1267e-18
3.72732e-12
-6.44075e-10
-1.0807e-18
3.95044e-12
-7.26032e-10
-7.8724e-18
4.14262e-12
-8.15351e-10
-1.14597e-17
4.294e-12
-9.11955e-10
-1.26908e-17
4.39422e-12
-1.01618e-09
-1.16248e-17
4.43293e-12
-1.12651e-09
-9.33377e-18
4.40038e-12
-1.24238e-09
-6.62109e-18
4.28857e-12
-1.36144e-09
-1.40949e-18
4.09208e-12
-1.4809e-09
2.90353e-18
3.80899e-12
-1.59691e-09
6.48304e-18
3.44237e-12
-1.70277e-09
7.721e-18
3.00108e-12
-1.79068e-09
6.65964e-18
2.50077e-12
-1.84979e-09
3.93728e-18
1.96454e-12
-1.8652e-09
-5.07459e-19
1.42276e-12
-1.81784e-09
-4.75146e-18
9.11736e-13
-1.68371e-09
-9.27113e-18
4.72383e-13
-1.4315e-09
-1.25933e-17
1.48108e-13
-1.02329e-09
-1.55343e-17
-4.11065e-10
-1.71541e-17
3.33943e-12
-5.02172e-10
1.62499e-17
3.609e-12
-5.69845e-10
8.9715e-18
3.86466e-12
-6.44331e-10
-1.14485e-18
4.09773e-12
-7.26266e-10
-9.49677e-18
4.29875e-12
-8.15552e-10
-1.39051e-17
4.45744e-12
-9.12114e-10
-1.53764e-17
4.563e-12
-1.01629e-09
-1.40338e-17
4.60456e-12
-1.12655e-09
-1.12457e-17
4.57187e-12
-1.24235e-09
-8.03463e-18
4.4565e-12
-1.36133e-09
-1.60591e-18
4.25264e-12
-1.48069e-09
3.84407e-18
3.95819e-12
-1.59661e-09
8.43989e-18
3.57621e-12
-1.70239e-09
1.00973e-17
3.1158e-12
-1.79022e-09
8.78293e-18
2.59321e-12
-1.84927e-09
5.27934e-18
2.03264e-12
-1.86464e-09
-4.54902e-19
1.46612e-12
-1.81728e-09
-6.01747e-18
9.32344e-13
-1.68318e-09
-1.19421e-17
4.75536e-13
-1.43105e-09
-1.641e-17
1.43852e-13
-1.02296e-09
-2.04018e-17
-4.10922e-10
-2.261e-17
3.47697e-12
-5.02461e-10
1.94157e-17
3.75969e-12
-5.70127e-10
1.08078e-17
4.02804e-12
-6.44599e-10
-1.17748e-18
4.27292e-12
-7.26511e-10
-1.10488e-17
4.48443e-12
-8.15764e-10
-1.62356e-17
4.65184e-12
-9.12281e-10
-1.79207e-17
4.76378e-12
-1.0164e-09
-1.62892e-17
4.80883e-12
-1.1266e-09
-1.2997e-17
4.77613e-12
-1.24232e-09
-9.2274e-18
4.65671e-12
-1.36121e-09
-1.7204e-18
4.44437e-12
-1.48048e-09
4.72146e-18
4.13674e-12
-1.5963e-09
1.01953e-17
3.73687e-12
-1.70199e-09
1.21969e-17
3.25414e-12
-1.78974e-09
1.06357e-17
2.70555e-12
-1.84872e-09
6.41558e-18
2.11652e-12
-1.86405e-09
-5.05261e-19
1.52104e-12
-1.81668e-09
-7.27895e-18
9.6058e-13
-1.68262e-09
-1.45178e-17
4.83085e-13
-1.43057e-09
-2.00777e-17
1.41477e-13
-1.02261e-09
-2.51007e-17
-4.10781e-10
-2.78143e-17
3.63661e-12
-5.02764e-10
2.24329e-17
3.93447e-12
-5.70424e-10
1.25607e-17
4.21741e-12
-6.44882e-10
-1.23793e-18
4.47589e-12
-7.26769e-10
-1.25682e-17
4.69951e-12
-8.15988e-10
-1.84858e-17
4.87698e-12
-9.12459e-10
-2.03377e-17
4.99634e-12
-1.01652e-09
-1.83951e-17
5.04547e-12
-1.12665e-09
-1.46028e-17
5.01286e-12
-1.24229e-09
-1.03123e-17
4.88894e-12
-1.36108e-09
-1.69501e-18
4.66702e-12
-1.48026e-09
5.83228e-18
4.34444e-12
-1.59598e-09
1.23212e-17
3.92422e-12
-1.70157e-09
1.47611e-17
3.41609e-12
-1.78923e-09
1.29753e-17
2.83785e-12
-1.84814e-09
7.98477e-18
2.21636e-12
-1.86343e-09
-2.01105e-19
1.58781e-12
-1.81605e-09
-8.27836e-18
9.96769e-13
-1.68203e-09
-1.68921e-17
4.95279e-13
-1.43007e-09
-2.35844e-17
1.41047e-13
-1.02226e-09
-2.96298e-17
-4.10641e-10
-3.289e-17
3.81847e-12
-5.03085e-10
2.52264e-17
4.1334e-12
-5.70739e-10
1.41731e-17
4.43282e-12
-6.45181e-10
-1.36522e-18
4.70665e-12
-7.27043e-10
-1.40808e-17
4.94395e-12
-8.16225e-10
-2.06654e-17
5.13281e-12
-9.12648e-10
-2.26443e-17
5.26058e-12
-1.01665e-09
-2.03685e-17
5.31438e-12
-1.1267e-09
-1.6041e-17
5.28195e-12
-1.24225e-09
-1.11232e-17
5.15306e-12
-1.36096e-09
-1.50456e-18
4.92047e-12
-1.48003e-09
6.96309e-18
4.58119e-12
-1.59564e-09
1.43136e-17
4.13822e-12
-1.70112e-09
1.71053e-17
3.60165e-12
-1.78869e-09
1.5091e-17
2.99019e-12
-1.84753e-09
9.3981e-18
2.3323e-12
-1.86277e-09
6.62864e-20
1.66662e-12
-1.81539e-09
-9.18378e-18
1.04113e-12
-1.6814e-09
-1.90559e-17
5.1225e-13
-1.42954e-09
-2.67936e-17
1.42551e-13
-1.02189e-09
-3.3804e-17
-4.10499e-10
-3.75348e-17
4.02273e-12
-5.03425e-10
2.77476e-17
4.35664e-12
-5.71072e-10
1.56018e-17
4.6744e-12
-6.45499e-10
-1.59209e-18
4.96533e-12
-7.27335e-10
-1.56091e-17
5.21787e-12
-8.16478e-10
-2.27945e-17
5.41942e-12
-9.1285e-10
-2.48442e-17
5.55655e-12
-1.01678e-09
-2.22093e-17
5.61559e-12
-1.12676e-09
-1.73479e-17
5.58343e-12
-1.24222e-09
-1.18107e-17
5.44908e-12
-1.36082e-09
-1.12677e-18
5.20474e-12
-1.47978e-09
8.38794e-18
4.84703e-12
-1.59528e-09
1.67312e-17
4.37891e-12
-1.70066e-09
1.99586e-17
3.81091e-12
-1.78812e-09
1.7735e-17
3.1627e-12
-1.84688e-09
1.12939e-17
2.46452e-12
-1.86207e-09
7.52974e-19
1.75766e-12
-1.81468e-09
-9.74026e-18
1.0938e-12
-1.68074e-09
-2.0913e-17
5.34049e-13
-1.42898e-09
-2.97149e-17
1.45945e-13
-1.02151e-09
-3.76675e-17
-4.10354e-10
-4.18867e-17
4.24964e-12
-5.03785e-10
2.99641e-17
4.60447e-12
-5.71426e-10
1.68169e-17
4.94241e-12
-6.45836e-10
-1.94553e-18
5.25217e-12
-7.27645e-10
-1.7179e-17
5.52148e-12
-8.16748e-10
-2.48965e-17
5.737e-12
-9.13065e-10
-2.6969e-17
5.88446e-12
-1.01693e-09
-2.3948e-17
5.94927e-12
-1.12682e-09
-1.8513e-17
5.91743e-12
-1.24219e-09
-1.22612e-17
5.77714e-12
-1.36068e-09
-5.79806e-19
5.51995e-12
-1.47953e-09
9.86507e-18
5.14207e-12
-1.59491e-09
1.9057e-17
4.64644e-12
-1.70016e-09
2.26329e-17
4.044e-12
-1.78752e-09
2.01927e-17
3.35553e-12
-1.84619e-09
1.30675e-17
2.61316e-12
-1.86133e-09
1.43152e-18
1.86107e-12
-1.81393e-09
-1.01791e-17
1.1549e-12
-1.68003e-09
-2.25323e-17
5.60683e-13
-1.42839e-09
-3.23118e-17
1.51164e-13
-1.0211e-09
-4.11462e-17
-4.10204e-10
-4.57748e-17
4.49957e-12
-5.04169e-10
3.18574e-17
4.87722e-12
-5.71803e-10
1.77975e-17
5.2372e-12
-6.46196e-10
-2.44699e-18
5.5675e-12
-7.27975e-10
-1.88158e-17
5.85512e-12
-8.17036e-10
-2.70028e-17
6.08588e-12
-9.13296e-10
-2.90441e-17
6.2446e-12
-1.01709e-09
-2.56052e-17
6.31572e-12
-1.12689e-09
-1.95997e-17
6.28424e-12
-1.24216e-09
-1.26449e-17
6.13751e-12
-1.36053e-09
1.29432e-19
5.86636e-12
-1.47925e-09
1.16308e-17
5.46656e-12
-1.59451e-09
2.18079e-17
4.94101e-12
-1.69963e-09
2.58165e-17
4.30113e-12
-1.78688e-09
2.31832e-17
3.56888e-12
-1.84546e-09
1.53405e-17
2.77841e-12
-1.86054e-09
2.56074e-18
1.97699e-12
-1.81313e-09
-1.02228e-17
1.22448e-12
-1.67928e-09
-2.37891e-17
5.92133e-13
-1.42776e-09
-3.45596e-17
1.5814e-13
-1.02066e-09
-4.42519e-17
-4.10047e-10
-4.93135e-17
4.77295e-12
-5.04578e-10
3.34226e-17
5.17536e-12
-5.72205e-10
1.85298e-17
5.55923e-12
-6.4658e-10
-3.11382e-18
5.9118e-12
-7.28328e-10
-2.05422e-17
6.21926e-12
-8.17344e-10
-2.91404e-17
6.46653e-12
-9.13544e-10
-3.11108e-17
6.63744e-12
-1.01726e-09
-2.72255e-17
6.71537e-12
-1.12697e-09
-2.06059e-17
6.68429e-12
-1.24213e-09
-1.28712e-17
6.53058e-12
-1.36038e-09
9.56262e-19
6.24433e-12
-1.47897e-09
1.34226e-17
5.82083e-12
-1.59408e-09
2.44522e-17
5.26294e-12
-1.69908e-09
2.88132e-17
4.5826e-12
-1.7862e-09
2.59832e-17
3.80298e-12
-1.84468e-09
1.74869e-17
2.96045e-12
-1.8597e-09
3.67849e-18
2.10556e-12
-1.81227e-09
-1.01513e-17
1.30261e-12
-1.67848e-09
-2.48125e-17
6.28366e-13
-1.42708e-09
-3.64872e-17
1.66805e-13
-1.0202e-09
-4.69773e-17
-4.09882e-10
-5.24043e-17
5.0703e-12
-5.05013e-10
3.46644e-17
5.49943e-12
-5.72633e-10
1.90051e-17
5.90907e-12
-6.46989e-10
-3.95714e-18
6.28566e-12
-7.28705e-10
-2.23746e-17
6.6145e-12
-8.17674e-10
-3.13375e-17
6.87954e-12
-9.13809e-10
-3.31911e-17
7.06355e-12
-1.01744e-09
-2.8829e-17
7.14879e-12
-1.12705e-09
-2.1603e-17
7.11811e-12
-1.24209e-09
-1.31084e-17
6.95687e-12
-1.36022e-09
1.87521e-18
6.65435e-12
-1.47867e-09
1.54432e-17
6.20534e-12
-1.59363e-09
2.74604e-17
5.61264e-12
-1.69848e-09
3.2257e-17
4.88874e-12
-1.78548e-09
2.9267e-17
4.05814e-12
-1.84385e-09
2.0106e-17
3.15953e-12
-1.8588e-09
5.24667e-18
2.24693e-12
-1.81136e-09
-9.66384e-18
1.38934e-12
-1.67762e-09
-2.54342e-17
6.69349e-13
-1.42636e-09
-3.80148e-17
1.77094e-13
-1.01971e-09
-4.92756e-17
-4.09706e-10
-5.50835e-17
5.39224e-12
-5.05477e-10
3.55898e-17
5.85008e-12
-5.7309e-10
1.92233e-17
6.2874e-12
-6.47426e-10
-4.98238e-18
6.68976e-12
-7.29108e-10
-2.43214e-17
7.04154e-12
-8.18026e-10
-3.36025e-17
7.32563e-12
-9.14093e-10
-3.53132e-17
7.52367e-12
-1.01764e-09
-3.04527e-17
7.6167e-12
-1.12715e-09
-2.25795e-17
7.58638e-12
-1.24206e-09
-1.32733e-17
7.41702e-12
-1.36005e-09
2.83485e-18
7.09701e-12
-1.47835e-09
1.74246e-17
6.62062e-12
-1.59316e-09
3.03057e-17
5.9906e-12
-1.69785e-09
3.54652e-17
5.21998e-12
-1.78471e-09
3.23165e-17
4.33471e-12
-1.84297e-09
2.25615e-17
3.37589e-12
-1.85784e-09
6.77424e-18
2.40125e-12
-1.81038e-09
-9.0827e-18
1.48473e-12
-1.67671e-09
-2.58368e-17
7.15054e-13
-1.42559e-09
-3.92319e-17
1.88954e-13
-1.01919e-09
-5.11993e-17
-4.09518e-10
-5.73305e-17
5.7395e-12
-5.05973e-10
3.62128e-17
6.22808e-12
-5.73578e-10
1.91903e-17
6.69502e-12
-6.47893e-10
-6.1815e-18
7.12495e-12
-7.29539e-10
-2.63774e-17
7.50124e-12
-8.18403e-10
-3.59433e-17
7.80566e-12
-9.14398e-10
-3.74801e-17
8.01863e-12
-1.01785e-09
-3.21016e-17
8.11993e-12
-1.12725e-09
-2.36008e-17
8.08993e-12
-1.24203e-09
-1.35232e-17
7.91181e-12
-1.35987e-09
3.80378e-18
7.57306e-12
-1.47801e-09
1.95383e-17
7.06736e-12
-1.59265e-09
3.34082e-17
6.3974e-12
-1.69718e-09
3.90141e-17
5.57684e-12
-1.78389e-09
3.57593e-17
4.63309e-12
-1.84202e-09
2.5427e-17
3.60985e-12
-1.85681e-09
8.72193e-18
2.56873e-12
-1.80934e-09
-8.08341e-18
1.58886e-12
-1.67573e-09
-2.58097e-17
7.65468e-13
-1.42477e-09
-4.00003e-17
2.0234e-13
-1.01862e-09
-5.26379e-17
-4.09317e-10
-5.90961e-17
6.1129e-12
-5.06501e-10
3.65614e-17
6.6343e-12
-5.74098e-10
1.89277e-17
7.13285e-12
-6.48391e-10
-7.53351e-18
7.59218e-12
-7.29999e-10
-2.85258e-17
7.99457e-12
-8.18806e-10
-3.83434e-17
8.32061e-12
-9.14725e-10
-3.96981e-17
8.54943e-12
-1.01808e-09
-3.3797e-17
8.65945e-12
-1.12736e-09
-2.46403e-17
8.62969e-12
-1.242e-09
-1.3775e-17
8.44214e-12
-1.35968e-09
4.73126e-18
8.08333e-12
-1.47765e-09
2.15368e-17
7.54632e-12
-1.59212e-09
3.62753e-17
6.83374e-12
-1.69647e-09
4.22602e-17
5.9599e-12
-1.78301e-09
3.89071e-17
4.95376e-12
-1.84101e-09
2.80747e-17
3.86176e-12
-1.85572e-09
1.05825e-17
2.74958e-12
-1.80823e-09
-7.02852e-18
1.70183e-12
-1.67468e-09
-2.5591e-17
8.20592e-13
-1.42389e-09
-4.04755e-17
2.17218e-13
-1.01802e-09
-5.37089e-17
-4.09101e-10
-6.04464e-17
6.51336e-12
-5.07065e-10
3.66787e-17
7.06974e-12
-5.74653e-10
1.84708e-17
7.60193e-12
-6.48923e-10
-9.00175e-18
8.09252e-12
-7.3049e-10
-3.07317e-17
8.52264e-12
-8.19237e-10
-4.07821e-17
8.87162e-12
-9.15074e-10
-4.19452e-17
9.11721e-12
-1.01833e-09
-3.55199e-17
9.23637e-12
-1.12748e-09
-2.57495e-17
9.20676e-12
-1.24197e-09
-1.41646e-17
9.00905e-12
-1.35949e-09
5.58153e-18
8.62879e-12
-1.47727e-09
2.35572e-17
8.05838e-12
-1.59155e-09
3.92687e-17
7.30041e-12
-1.69571e-09
4.57114e-17
6.36983e-12
-1.78208e-09
4.233e-17
5.29726e-12
-1.83994e-09
3.10435e-17
4.13202e-12
-1.85456e-09
1.28126e-17
2.94406e-12
-1.80704e-09
-5.57142e-18
1.82377e-12
-1.67356e-09
-2.49283e-17
8.80443e-13
-1.42295e-09
-4.04671e-17
2.33564e-13
-1.01738e-09
-5.42463e-17
-4.08868e-10
-6.12523e-17
6.94195e-12
-5.07666e-10
3.66204e-17
7.5355e-12
-5.75246e-10
1.78711e-17
8.10343e-12
-6.4949e-10
-1.05358e-17
8.6272e-12
-7.31014e-10
-3.29472e-17
9.08671e-12
-8.19698e-10
-4.32146e-17
9.45995e-12
-9.15448e-10
-4.4201e-17
9.72322e-12
-1.01859e-09
-3.72728e-17
9.85197e-12
-1.1276e-09
-2.68857e-17
9.82234e-12
-1.24194e-09
-1.46117e-17
9.6137e-12
-1.35928e-09
6.31502e-18
9.21053e-12
-1.47687e-09
2.53797e-17
8.60455e-12
-1.59094e-09
4.19516e-17
7.79828e-12
-1.69491e-09
4.87899e-17
6.80738e-12
-1.78109e-09
4.53953e-17
5.6642e-12
-1.8388e-09
3.37355e-17
4.42109e-12
-1.85331e-09
1.48999e-17
3.15247e-12
-1.80577e-09
-4.10692e-18
1.95483e-12
-1.67236e-09
-2.41121e-17
9.45061e-13
-1.42194e-09
-4.01913e-17
2.51365e-13
-1.01668e-09
-5.44351e-17
-4.08618e-10
-6.16738e-17
7.39982e-12
-5.08307e-10
3.6457e-17
8.03282e-12
-5.75878e-10
1.71923e-17
8.63864e-12
-6.50096e-10
-1.20707e-17
9.19756e-12
-7.31574e-10
-3.51103e-17
9.68817e-12
-8.20189e-10
-4.55934e-17
1.0087e-11
-9.15847e-10
-4.64198e-17
1.03689e-11
-1.01887e-09
-3.90166e-17
1.05076e-11
-1.12774e-09
-2.80854e-17
1.04778e-11
-1.24191e-09
-1.52246e-17
1.02574e-11
-1.35906e-09
6.89434e-18
9.82977e-12
-1.47644e-09
2.7105e-17
9.18594e-12
-1.5903e-09
4.46077e-17
8.32834e-12
-1.69405e-09
5.19209e-17
7.27339e-12
-1.78003e-09
4.85961e-17
6.05527e-12
-1.83758e-09
3.66425e-17
4.72948e-12
-1.85199e-09
1.72873e-17
3.37516e-12
-1.80442e-09
-2.27576e-18
2.09518e-12
-1.67108e-09
-2.28575e-17
1.01451e-12
-1.42086e-09
-3.94114e-17
2.70618e-13
-1.01594e-09
-5.40581e-17
-4.08348e-10
-6.15004e-17
7.88825e-12
-5.08991e-10
3.62694e-17
8.56307e-12
-5.76551e-10
1.65099e-17
9.209e-12
-6.50742e-10
-1.353e-17
9.80509e-12
-7.32171e-10
-3.71487e-17
1.03285e-11
-8.20714e-10
-4.78495e-17
1.07544e-11
-9.16273e-10
-4.85589e-17
1.10558e-11
-1.01917e-09
-4.07327e-17
1.12049e-11
-1.12789e-09
-2.92877e-17
1.11746e-11
-1.24188e-09
-1.59241e-17
1.09416e-11
-1.35882e-09
7.29411e-18
1.04879e-11
-1.47598e-09
2.85558e-17
9.80377e-12
-1.58961e-09
4.68794e-17
8.89169e-12
-1.69314e-09
5.46103e-17
7.76881e-12
-1.77891e-09
5.13785e-17
6.47123e-12
-1.83628e-09
3.92127e-17
5.05776e-12
-1.85057e-09
1.94741e-17
3.61251e-12
-1.80297e-09
-4.9359e-19
2.24505e-12
-1.66971e-09
-2.14964e-17
1.08886e-12
-1.4197e-09
-3.84056e-17
2.91327e-13
-1.01514e-09
-5.33636e-17
-4.08058e-10
-6.09848e-17
8.40866e-12
-5.09719e-10
3.6144e-17
9.12774e-12
-5.77269e-10
1.59027e-17
9.8161e-12
-6.5143e-10
-1.48327e-17
1.04514e-11
-7.32807e-10
-3.8983e-17
1.10095e-11
-8.21273e-10
-4.99162e-17
1.14638e-11
-9.16728e-10
-5.05525e-17
1.17856e-11
-1.0195e-09
-4.23656e-17
1.19454e-11
-1.12805e-09
-3.05165e-17
1.19145e-11
-1.24185e-09
-1.67807e-17
1.16678e-11
-1.35858e-09
7.48103e-18
1.11863e-11
-1.4755e-09
2.97921e-17
1.04594e-11
-1.58889e-09
4.89717e-17
9.48952e-12
-1.69217e-09
5.71881e-17
8.29466e-12
-1.77772e-09
5.4149e-17
6.91291e-12
-1.8349e-09
4.18786e-17
5.40657e-12
-1.84907e-09
2.18727e-17
3.86496e-12
-1.80143e-09
1.60167e-18
2.40468e-12
-1.66825e-09
-1.97224e-17
1.16822e-12
-1.41847e-09
-3.68984e-17
3.1351e-13
-1.01429e-09
-5.2091e-17
-4.07745e-10
-5.98403e-17
8.9626e-12
-5.10495e-10
3.61582e-17
9.72848e-12
-5.78034e-10
1.54462e-17
1.04616e-11
-6.52162e-10
-1.59018e-17
1.11384e-11
-7.33484e-10
-4.05343e-17
1.17329e-11
-8.21868e-10
-5.17161e-17
1.2217e-11
-9.17212e-10
-5.23452e-17
1.25602e-11
-1.01984e-09
-4.38838e-17
1.27311e-11
-1.12822e-09
-3.16926e-17
1.26992e-11
-1.24182e-09
-1.77295e-17
1.24378e-11
-1.35831e-09
7.44488e-18
1.19266e-11
-1.47499e-09
3.06926e-17
1.11543e-11
-1.58811e-09
5.06145e-17
1.01232e-11
-1.69114e-09
5.92678e-17
8.85206e-12
-1.77644e-09
5.64474e-17
7.38123e-12
-1.83343e-09
4.41519e-17
5.77661e-12
-1.84746e-09
2.4011e-17
4.13299e-12
-1.79979e-09
3.58409e-18
2.57437e-12
-1.66669e-09
-1.79063e-17
1.25272e-12
-1.41714e-09
-3.52192e-17
3.3719e-13
-1.01337e-09
-5.05497e-17
-4.07409e-10
-5.84149e-17
9.55175e-12
-5.11321e-10
3.63741e-17
1.03671e-11
-5.78848e-10
1.52025e-17
1.11475e-11
-6.52942e-10
-1.66663e-17
1.18679e-11
-7.34206e-10
-4.17289e-17
1.25008e-11
-8.22502e-10
-5.31812e-17
1.30161e-11
-9.17728e-10
-5.38658e-17
1.33816e-11
-1.0202e-09
-4.52218e-17
1.35639e-11
-1.1284e-09
-3.28362e-17
1.35306e-11
-1.24178e-09
-1.87865e-17
1.32534e-11
-1.35804e-09
7.16246e-18
1.27106e-11
-1.47445e-09
3.12757e-17
1.189e-11
-1.58729e-09
5.19271e-17
1.0794e-11
-1.69004e-09
6.10709e-17
9.44222e-12
-1.77509e-09
5.85807e-17
7.87718e-12
-1.83186e-09
4.63943e-17
6.16865e-12
-1.84575e-09
2.62626e-17
4.41714e-12
-1.79803e-09
5.80833e-18
2.75443e-12
-1.66503e-09
-1.57208e-17
1.3425e-12
-1.41573e-09
-3.30648e-17
3.62402e-13
-1.01239e-09
-4.84422e-17
-4.07047e-10
-5.63518e-17
1.01779e-11
-5.12201e-10
3.68282e-17
1.10455e-11
-5.79714e-10
1.5214e-17
1.18757e-11
-6.53772e-10
-1.70722e-17
1.26421e-11
-7.34973e-10
-4.25033e-17
1.33153e-11
-8.23176e-10
-5.42393e-17
1.38633e-11
-9.18276e-10
-5.50575e-17
1.42521e-11
-1.02059e-09
-4.63421e-17
1.44461e-11
-1.12859e-09
-3.38473e-17
1.44109e-11
-1.24175e-09
-1.9912e-17
1.41166e-11
-1.35774e-09
6.64663e-18
1.35401e-11
-1.47387e-09
3.14854e-17
1.26684e-11
-1.58642e-09
5.27514e-17
1.15035e-11
-1.68887e-09
6.23418e-17
1.00665e-11
-1.77366e-09
6.02064e-17
8.40185e-12
-1.8302e-09
4.81983e-17
6.58352e-12
-1.84393e-09
2.81986e-17
4.71798e-12
-1.79617e-09
7.85408e-18
2.94522e-12
-1.66326e-09
-1.35631e-17
1.43773e-12
-1.41422e-09
-3.08092e-17
3.89186e-13
-1.01135e-09
-4.61321e-17
-4.06658e-10
-5.40905e-17
1.08432e-11
-5.13136e-10
3.75243e-17
1.17658e-11
-5.80636e-10
1.54984e-17
1.26485e-11
-6.54655e-10
-1.70852e-17
1.34632e-11
-7.35788e-10
-4.2809e-17
1.41787e-11
-8.23893e-10
-5.48391e-17
1.4761e-11
-9.18859e-10
-5.58576e-17
1.51739e-11
-1.021e-09
-4.71802e-17
1.53798e-11
-1.1288e-09
-3.47545e-17
1.53423e-11
-1.24171e-09
-2.10626e-17
1.50296e-11
-1.35743e-09
5.8853e-18
1.44171e-11
-1.47326e-09
3.13033e-17
1.34911e-11
-1.5855e-09
5.31156e-17
1.22535e-11
-1.68764e-09
6.31855e-17
1.07262e-11
-1.77213e-09
6.15222e-17
8.95638e-12
-1.82843e-09
4.98456e-17
7.0221e-12
-1.842e-09
3.01442e-17
5.03616e-12
-1.79418e-09
1.00575e-17
3.14713e-12
-1.66137e-09
-1.11039e-17
1.53859e-12
-1.41261e-09
-2.81278e-17
4.17592e-13
-1.01022e-09
-4.32982e-17
-4.06241e-10
-5.12132e-17
1.15496e-11
-5.14131e-10
3.84307e-17
1.25302e-11
-5.81615e-10
1.60434e-17
1.34683e-11
-6.55592e-10
-1.6695e-17
1.43337e-11
-7.36654e-10
-4.26157e-17
1.50935e-11
-8.24654e-10
-5.49318e-17
1.57116e-11
-9.19478e-10
-5.62207e-17
1.61495e-11
-1.02144e-09
-4.7704e-17
1.63676e-11
-1.12902e-09
-3.54375e-17
1.63272e-11
-1.24167e-09
-2.223e-17
1.59946e-11
-1.3571e-09
4.91001e-18
1.53439e-11
-1.47261e-09
3.0743e-17
1.43602e-11
-1.58451e-09
5.29832e-17
1.30455e-11
-1.68632e-09
6.34893e-17
1.14229e-11
-1.7705e-09
6.23178e-17
9.54202e-12
-1.82654e-09
5.10302e-17
7.48538e-12
-1.83994e-09
3.17277e-17
5.37237e-12
-1.79207e-09
1.20201e-17
3.36058e-12
-1.65935e-09
-8.74717e-18
1.6453e-12
-1.4109e-09
-2.54261e-17
4.47678e-13
-1.00903e-09
-4.03466e-17
-4.05794e-10
-4.82413e-17
1.22995e-11
-5.15188e-10
3.9483e-17
1.33413e-11
-5.82655e-10
1.68115e-17
1.43375e-11
-6.56588e-10
-1.59121e-17
1.52562e-11
-7.37574e-10
-4.19107e-17
1.60625e-11
-8.25461e-10
-5.44912e-17
1.67179e-11
-9.20133e-10
-5.61015e-17
1.71818e-11
-1.02191e-09
-4.78579e-17
1.74122e-11
-1.12925e-09
-3.59479e-17
1.73682e-11
-1.24162e-09
-2.33093e-17
1.70142e-11
-1.35674e-09
3.72897e-18
1.63226e-11
-1.47192e-09
2.97552e-17
1.52777e-11
-1.58347e-09
5.22952e-17
1.38815e-11
-1.68493e-09
6.32466e-17
1.21582e-11
-1.76878e-09
6.26795e-17
1.01601e-11
-1.82455e-09
5.19449e-17
7.97437e-12
-1.83775e-09
3.32209e-17
5.72733e-12
-1.78982e-09
1.40519e-17
3.58605e-12
-1.65721e-09
-6.16706e-18
1.75808e-12
-1.40907e-09
-2.23699e-17
4.79506e-13
-1.00775e-09
-3.69363e-17
-4.05315e-10
-4.4713e-17
1.30955e-11
-5.16311e-10
4.05892e-17
1.42016e-11
-5.8376e-10
1.77417e-17
1.52589e-11
-6.57645e-10
-1.47702e-17
1.62336e-11
-7.38549e-10
-4.07013e-17
1.70884e-11
-8.26317e-10
-5.34997e-17
1.77828e-11
-9.20828e-10
-5.54746e-17
1.82736e-11
-1.0224e-09
-4.7622e-17
1.85164e-11
-1.12949e-09
-3.61388e-17
1.8468e-11
-1.24158e-09
-2.43353e-17
1.80909e-11
-1.35637e-09
2.38773e-18
1.73558e-11
-1.47118e-09
2.84185e-17
1.6246e-11
-1.58236e-09
5.11385e-17
1.47635e-11
-1.68344e-09
6.24915e-17
1.29338e-11
-1.76695e-09
6.25376e-17
1.0812e-11
-1.82242e-09
5.23911e-17
8.49017e-12
-1.83543e-09
3.43229e-17
6.10185e-12
-1.78743e-09
1.57875e-17
3.82403e-12
-1.65493e-09
-3.76479e-18
1.87719e-12
-1.40712e-09
-1.93823e-17
5.1315e-13
-1.00638e-09
-3.35061e-17
-4.04802e-10
-4.11837e-17
1.39401e-11
-5.17504e-10
4.16378e-17
1.5114e-11
-5.84933e-10
1.87555e-17
1.62355e-11
-6.58766e-10
-1.33164e-17
1.72689e-11
-7.39583e-10
-3.90092e-17
1.81745e-11
-8.27223e-10
-5.19578e-17
1.89094e-11
-9.21563e-10
-5.43206e-17
1.94279e-11
-1.02291e-09
-4.69565e-17
1.96832e-11
-1.12974e-09
-3.61074e-17
1.96296e-11
-1.24152e-09
-2.51453e-17
1.92274e-11
-1.35596e-09
9.10523e-19
1.84459e-11
-1.4704e-09
2.66617e-17
1.72673e-11
-1.58118e-09
4.93799e-17
1.56936e-11
-1.68187e-09
6.11095e-17
1.37515e-11
-1.76501e-09
6.18688e-17
1.14993e-11
-1.82017e-09
5.24756e-17
9.03396e-12
-1.83296e-09
3.52473e-17
6.49675e-12
-1.78489e-09
1.75103e-17
4.07505e-12
-1.65251e-09
-1.22376e-18
2.0029e-12
-1.40505e-09
-1.61255e-17
5.48687e-13
-1.00493e-09
-2.9707e-17
-4.04253e-10
-3.71475e-17
1.48363e-11
-5.18769e-10
4.25034e-17
1.60814e-11
-5.86177e-10
1.97664e-17
1.72704e-11
-6.59955e-10
-1.16134e-17
1.83652e-11
-7.40679e-10
-3.68713e-17
1.9324e-11
-8.28183e-10
-4.98796e-17
2.0101e-11
-9.22341e-10
-5.26387e-17
2.06481e-11
-1.02346e-09
-4.58634e-17
2.09158e-11
-1.13001e-09
-3.56757e-17
2.0856e-11
-1.24146e-09
-2.58328e-17
2.04268e-11
-1.35553e-09
-6.50207e-19
1.95958e-11
-1.46957e-09
2.46192e-17
1.83441e-11
-1.57993e-09
4.72154e-17
1.66739e-11
-1.6802e-09
5.9279e-17
1.46132e-11
-1.76295e-09
6.07435e-17
1.22234e-11
-1.81778e-09
5.21143e-17
9.60695e-12
-1.83035e-09
3.57693e-17
6.91293e-12
-1.7822e-09
1.8893e-17
4.33968e-12
-1.64993e-09
1.07545e-18
2.13548e-12
-1.40284e-09
-1.30248e-17
5.86201e-13
-1.00338e-09
-2.59936e-17
-4.03667e-10
-3.32669e-17
1.57871e-11
-5.20112e-10
4.30609e-17
1.71072e-11
-5.87495e-10
2.06822e-17
1.8367e-11
-6.61214e-10
-9.72638e-18
1.95261e-11
-7.41838e-10
-3.43338e-17
2.05403e-11
-8.29198e-10
-4.72905e-17
2.13611e-11
-9.23162e-10
-5.04341e-17
2.19375e-11
-1.02404e-09
-4.43226e-17
2.22175e-11
-1.13029e-09
-3.50008e-17
2.21505e-11
-1.24139e-09
-2.61796e-17
2.16921e-11
-1.35508e-09
-2.25158e-18
2.08082e-11
-1.46869e-09
2.22137e-17
1.94791e-11
-1.5786e-09
4.44564e-17
1.77068e-11
-1.67843e-09
5.67898e-17
1.55209e-11
-1.76076e-09
5.90341e-17
1.29861e-11
-1.81524e-09
5.1325e-17
1.02105e-11
-1.82757e-09
3.60425e-17
7.35133e-12
-1.77934e-09
2.01875e-17
4.61851e-12
-1.6472e-09
3.42935e-18
2.27525e-12
-1.4005e-09
-9.74815e-18
6.25783e-13
-1.00173e-09
-2.20106e-17
-4.03041e-10
-2.89798e-17
1.67959e-11
-5.21536e-10
4.31956e-17
1.81947e-11
-5.88893e-10
2.14208e-17
1.95287e-11
-6.62547e-10
-7.72396e-18
2.07553e-11
-7.43065e-10
-3.14502e-17
2.18271e-11
-8.30271e-10
-4.42302e-17
2.26933e-11
-9.24028e-10
-4.77332e-17
2.33e-11
-1.02464e-09
-4.23607e-17
2.35921e-11
-1.13058e-09
-3.38747e-17
2.35165e-11
-1.24132e-09
-2.63465e-17
2.30265e-11
-1.35459e-09
-3.84751e-18
2.20863e-11
-1.46775e-09
1.96138e-17
2.06749e-11
-1.57719e-09
4.13961e-17
1.87947e-11
-1.67655e-09
5.39559e-17
1.64767e-11
-1.75844e-09
5.69517e-17
1.37891e-11
-1.81256e-09
5.01383e-17
1.08458e-11
-1.82463e-09
3.5925e-17
7.81294e-12
-1.7763e-09
2.11209e-17
4.91219e-12
-1.6443e-09
5.48609e-18
2.42254e-12
-1.39801e-09
-6.70601e-18
6.67528e-13
-9.99974e-10
-1.82159e-17
-4.02374e-10
-2.4962e-17
1.78661e-11
-5.23046e-10
4.28211e-17
1.93477e-11
-5.90373e-10
2.1917e-17
2.07596e-11
-6.63959e-10
-5.6688e-18
2.20565e-11
-7.44363e-10
-2.82806e-17
2.31885e-11
-8.31403e-10
-4.07455e-17
2.41018e-11
-9.24942e-10
-4.45706e-17
2.47392e-11
-1.02528e-09
-3.99789e-17
2.50432e-11
-1.13088e-09
-3.2528e-17
2.49576e-11
-1.24123e-09
-2.60836e-17
2.44336e-11
-1.35406e-09
-5.3855e-18
2.34332e-11
-1.46675e-09
1.67472e-17
2.19346e-11
-1.57569e-09
3.7802e-17
1.99402e-11
-1.67455e-09
5.04853e-17
1.74828e-11
-1.75599e-09
5.42726e-17
1.46343e-11
-1.80971e-09
4.84881e-17
1.15145e-11
-1.82151e-09
3.55129e-17
8.29878e-12
-1.77309e-09
2.19088e-17
5.22138e-12
-1.64122e-09
7.52713e-18
2.57767e-12
-1.39537e-09
-3.57217e-18
7.1154e-13
-9.98107e-10
-1.42529e-17
-4.01662e-10
-2.06351e-17
1.90017e-11
-5.24645e-10
4.18881e-17
2.05701e-11
-5.91941e-10
2.21261e-17
2.20635e-11
-6.65452e-10
-3.61234e-18
2.34339e-11
-7.45734e-10
-2.48848e-17
2.46286e-11
-8.32599e-10
-3.68991e-17
2.55905e-11
-9.25904e-10
-4.09979e-17
2.62595e-11
-1.02595e-09
-3.72378e-17
2.65748e-11
-1.1312e-09
-3.07217e-17
2.64777e-11
-1.24114e-09
-2.56155e-17
2.59168e-11
-1.3535e-09
-6.83126e-18
2.48522e-11
-1.46568e-09
1.37995e-17
2.3261e-11
-1.5741e-09
3.40456e-17
2.11459e-11
-1.67244e-09
4.68088e-17
1.85415e-11
-1.75338e-09
5.13323e-17
1.55234e-11
-1.80669e-09
4.65172e-17
1.2218e-11
-1.8182e-09
3.47419e-17
8.80994e-12
-1.76968e-09
2.23316e-17
5.54676e-12
-1.63796e-09
9.23611e-18
2.74102e-12
-1.39256e-09
-7.37251e-19
7.57924e-13
-9.96124e-10
-1.05647e-17
-4.00904e-10
-1.66821e-17
2.02065e-11
-5.26339e-10
4.03914e-17
2.18661e-11
-5.936e-10
2.20387e-17
2.34449e-11
-6.6703e-10
-1.59874e-18
2.48921e-11
-7.47182e-10
-2.13261e-17
2.61518e-11
-8.33859e-10
-3.2757e-17
2.71639e-11
-9.26916e-10
-3.70793e-17
2.7865e-11
-1.02665e-09
-3.41589e-17
2.81912e-11
-1.13152e-09
-2.87641e-17
2.80809e-11
-1.24103e-09
-2.468e-17
2.74799e-11
-1.3529e-09
-8.12549e-18
2.63468e-11
-1.46455e-09
1.07159e-17
2.46574e-11
-1.57241e-09
2.98714e-17
2.24148e-11
-1.67019e-09
4.25718e-17
1.96553e-11
-1.75062e-09
4.78265e-17
1.64586e-11
-1.80349e-09
4.40833e-17
1.29577e-11
-1.8147e-09
3.36552e-17
9.34755e-12
-1.76607e-09
2.25729e-17
5.88907e-12
-1.6345e-09
1.08747e-17
2.91294e-12
-1.38958e-09
2.11907e-18
8.06792e-13
-9.94017e-10
-6.79336e-18
-4.00097e-10
-1.25033e-17
2.14849e-11
-5.28133e-10
3.83906e-17
2.32401e-11
-5.95354e-10
2.16728e-17
2.49082e-11
-6.68698e-10
3.46791e-19
2.64355e-11
-7.48709e-10
-1.76667e-17
2.77629e-11
-8.35187e-10
-2.84e-17
2.88267e-11
-9.27981e-10
-3.28882e-17
2.95603e-11
-1.02739e-09
-3.08318e-17
2.98968e-11
-1.13186e-09
-2.6389e-17
2.97712e-11
-1.2409e-09
-2.35631e-17
2.9127e-11
-1.35226e-09
-9.26414e-18
2.79207e-11
-1.46334e-09
7.67313e-18
2.61271e-11
-1.57062e-09
2.56939e-17
2.37495e-11
-1.66782e-09
3.82928e-17
2.08264e-11
-1.7477e-09
4.41973e-17
1.74417e-11
-1.80011e-09
4.14247e-17
1.37355e-11
-1.81099e-09
3.22646e-17
9.91277e-12
-1.76224e-09
2.24698e-17
6.24906e-12
-1.63083e-09
1.21767e-17
3.09384e-12
-1.38642e-09
4.64271e-18
8.58264e-13
-9.91781e-10
-3.35684e-18
-3.99239e-10
-8.77338e-18
2.28415e-11
-5.30031e-10
3.59768e-17
2.4697e-11
-5.97209e-10
2.10909e-17
2.64585e-11
-6.70459e-10
2.20898e-18
2.80692e-11
-7.5032e-10
-1.39668e-17
2.94667e-11
-8.36585e-10
-2.39053e-17
3.05837e-11
-9.29098e-10
-2.85129e-17
3.13504e-11
-1.02815e-09
-2.7296e-17
3.16961e-11
-1.13221e-09
-2.39771e-17
3.15531e-11
-1.24076e-09
-2.20089e-17
3.08621e-11
-1.35157e-09
-1.01812e-17
2.95775e-11
-1.46206e-09
4.64102e-18
2.76733e-11
-1.56871e-09
2.12544e-17
2.51532e-11
-1.6653e-09
3.35721e-17
2.20577e-11
-1.7446e-09
4.00718e-17
1.84751e-11
-1.79653e-09
3.83316e-17
1.45528e-11
-1.80707e-09
3.05609e-17