/*--------------------------------*- C++ -*----------------------------------*\
| =========                 |                                                 |
| \\      /  F ield         | OpenFOAM: The Open Source CFD Toolbox           |
|  \\    /   O peration     | Version:  v2012                                 |
|   \\  /    A nd           | Website:  www.openfoam.com                      |
|    \\/     M anipulation  |                                                 |
\*---------------------------------------------------------------------------*/
FoamFile
{
    version     2.0;
    format      ascii;
    class       volVectorField;
    location    "0.4";
    object      U;
}
// * * * * * * * * * * * * * * * * * * * * * * * * * * * * * * * * * * * * * //

dimensions      [0 1 -1 0 0 0 0];


internalField   nonuniform List<vector> 
2660
(
(0.428395 -25.5897 -0.00367366)
(-0.884766 -20.0997 0.0078236)
(0.974791 -9.36106 -0.00843513)
(0.629582 1.60429 -0.00541087)
(-0.218177 11.1492 0.00196281)
(-0.0937759 -24.1439 0.000880781)
(-0.0767618 -20.6089 0.00075179)
(0.511148 -11.2867 -0.00442427)
(1.43365 1.37985 -0.0124681)
(-0.161894 11.3623 0.00145468)
(0.162156 -24.8092 -0.00135838)
(0.221738 -21.3599 -0.00187737)
(0.643635 -12.7678 -0.0056052)
(1.28783 1.25454 -0.0112266)
(0.367518 12.7603 -0.00319353)
(0.151187 -25.4615 -0.00126143)
(0.421116 -22.1687 -0.00363865)
(0.810865 -13.9812 -0.00707492)
(0.921046 0.909216 -0.00804757)
(0.655236 14.0835 -0.00572247)
(0.25867 -26.7122 -0.00219146)
(0.551549 -23.4899 -0.00479016)
(0.927166 -15.0031 -0.00809288)
(0.643996 0.718721 -0.00563687)
(0.552365 14.9445 -0.00483392)
(0.0838583 -27.9231 -0.000713174)
(0.55488 -24.8882 -0.00483278)
(0.725504 -15.3105 -0.00633719)
(0.350033 0.859795 -0.00307061)
(0.520966 15.7433 -0.00456682)
(0.0757666 -28.7859 -0.000648408)
(0.484696 -25.8708 -0.00421892)
(0.490411 -15.5544 -0.00428425)
(0.551469 0.673255 -0.00482018)
(0.581919 16.2988 -0.00510105)
(0.329121 -29.7506 -0.00286649)
(0.186763 -26.6736 -0.0016179)
(0.566207 -16.2006 -0.0049426)
(0.581056 0.0570202 -0.00507737)
(0.699394 17.2248 -0.00612485)
(0.483246 -30.8991 -0.00421614)
(-0.158824 -26.8969 0.00140223)
(0.667126 -16.951 -0.00582051)
(0.424726 -0.0799922 -0.0037153)
(0.661717 18.3093 -0.00579055)
(0.312762 -31.6543 -0.00273378)
(-0.146861 -27.0804 0.00130006)
(0.692083 -17.9337 -0.00603934)
(0.345507 -0.566435 -0.00302061)
(0.669712 18.696 -0.00586172)
(-0.00328594 -31.9909 4.28376e-05)
(0.316756 -27.7536 -0.00275245)
(0.623513 -18.5281 -0.00544439)
(0.566337 -0.721 -0.00494498)
(0.697482 19.6083 -0.00610671)
(-0.0431296 -32.4839 0.000420978)
(0.66029 -28.9743 -0.005756)
(0.45393 -18.7842 -0.00396635)
(1.0039 -0.716617 -0.00876465)
(0.73312 21.4863 -0.00640558)
(0.130043 -33.6108 -0.00108324)
(0.442994 -30.2997 -0.00385765)
(0.676938 -20.6344 -0.00591049)
(1.81035 -3.68364 -0.0158052)
(1.36034 20.2909 -0.0119182)
(0.230231 -34.4116 -0.00197714)
(0.0165667 -30.7663 -0.000132967)
(1.10371 -21.5602 -0.00963813)
(2.46867 -1.93945 -0.0215669)
(1.04682 27.2622 -0.00914105)
(0.21139 -34.9394 -0.00181343)
(-0.270553 -32.7078 0.00237375)
(2.5356 -24.6151 -0.0221423)
(1.48361 -5.82681 -0.0130093)
(-2.73934 30.5683 0.0240462)
(0.214945 -35.8729 -0.00184972)
(-0.127778 -35.573 0.00112334)
(3.10435 -30.3003 -0.0271137)
(2.83708 -16.5976 -0.0248358)
(0.231632 8.16181 -0.00195133)
(0.335809 -36.9001 -0.00291403)
(-0.0590136 -36.8727 0.000519668)
(0.834107 -33.2751 -0.00731146)
(-0.148866 -21.2699 0.00123727)
(0.425755 -7.4676 -0.00375477)
(0.152077 -37.6064 -0.00132662)
(0.114958 -37.5245 -0.00100194)
(0.449432 -33.8501 -0.00396669)
(-0.498326 -21.115 0.00429107)
(0.490547 -7.0303 -0.00429542)
(-0.193838 -37.638 0.00169178)
(0.314607 -38.4173 -0.00275598)
(0.510849 -33.4084 -0.00450914)
(-0.60689 -20.9989 0.00523896)
(0.408018 -6.89493 -0.00357474)
(0.0216879 -37.5673 -0.000164626)
(0.392114 -39.7914 -0.00344792)
(0.325061 -32.8676 -0.00288866)
(-0.440554 -21.0525 0.00379385)
(0.453629 -7.24794 -0.00397601)
(-0.0190302 -38.0213 0.000187854)
(0.419865 -40.6771 -0.00369599)
(-0.276084 -32.541 0.00236092)
(0.318171 -22.1536 -0.00281255)
(0.874184 -8.63604 -0.00764843)
(0.0401441 -38.5344 -0.000362142)
(0.0498509 -41.0887 -0.000457251)
(-1.02674 -32.5893 0.00892129)
(0.690712 -23.889 -0.00604592)
(0.968317 -9.44502 -0.00846537)
(0.112301 -38.9125 -0.000997076)
(-0.175597 -41.8456 0.00151681)
(-1.53205 -33.8717 0.013347)
(2.4089 -27.5874 -0.0210313)
(2.38523 -14.7612 -0.0208078)
(0.14028 -39.3103 -0.0012283)
(-0.0994789 -42.4195 0.000855108)
(-1.24084 -35.8895 0.0108258)
(2.02662 -32.3798 -0.0176917)
(1.8209 -23.0398 -0.0158628)
(0.26732 -39.81 -0.0023272)
(-0.115556 -41.8391 0.000997754)
(-0.397832 -37.33 0.00348073)
(0.915083 -34.3484 -0.00798631)
(0.906383 -24.7294 -0.00790083)
(0.151261 -40.2482 -0.00132137)
(0.0218402 -41.1324 -0.0001947)
(-0.0163406 -38.145 0.000155474)
(0.613488 -34.3102 -0.00534664)
(0.556494 -22.6122 -0.00487842)
(0.0751701 -40.3087 -0.000649254)
(-0.000852597 -41.1969 7.54376e-06)
(0.260648 -38.7517 -0.00226402)
(0.215202 -34.3458 -0.00187469)
(0.508657 -21.7226 -0.00445915)
(0.253481 -40.4477 -0.00218305)
(-0.119096 -41.4176 0.00104125)
(0.282241 -39.1716 -0.00245737)
(-0.119458 -34.5131 0.00104899)
(0.508862 -21.8204 -0.0044392)
(0.434259 -40.963 -0.00376808)
(-0.326894 -41.1023 0.00286151)
(0.262181 -39.4812 -0.00228324)
(-0.0277873 -34.6113 0.000259589)
(0.545692 -21.6619 -0.0047649)
(0.165782 -41.5335 -0.00143221)
(0.0102373 -40.726 -6.88754e-05)
(0.0166993 -39.9671 -0.000135089)
(0.692817 -34.9964 -0.00601632)
(0.338243 -21.1081 -0.00295108)
(-0.180882 -41.7171 0.00158775)
(0.450247 -40.9549 -0.00390238)
(-0.158843 -40.7258 0.00141011)
(1.47987 -35.7152 -0.0128781)
(-0.00541694 -20.0993 5.72952e-05)
(-0.255761 -41.8034 0.00224368)
(0.406507 -41.4948 -0.00351781)
(0.0108788 -42.0517 -6.12894e-05)
(1.7513 -36.2611 -0.0152476)
(-0.309969 -18.9219 0.00272506)
(-0.0728576 -41.6477 0.000655308)
(0.0778654 -41.9271 -0.000646162)
(0.439741 -43.7882 -0.00380334)
(1.2493 -36.1581 -0.010873)
(-0.35601 -17.9462 0.00313241)
(0.137992 -41.6903 -0.00116804)
(0.00701421 -42.4887 -2.63584e-05)
(0.787671 -45.1374 -0.00684966)
(0.290376 -35.5697 -0.00251427)
(-0.0105444 -17.5832 0.000113924)
(-0.0437128 -0.000393226 0.000381577)
(-0.0379225 -0.000317072 0.000331041)
(-0.0329244 -0.000258031 0.000287415)
(-0.0285892 -0.000211719 0.000249575)
(-0.0248204 -0.000175021 0.000216676)
(-0.0215353 -0.00014562 0.000187999)
(-0.0186635 -0.000121788 0.000162931)
(-0.0161466 -0.000102262 0.00014096)
(-0.0139367 -8.61558e-05 0.00012167)
(-0.0119946 -7.30126e-05 0.000104715)
(-0.0102876 -6.13461e-05 8.98151e-05)
(-0.0087873 -5.13763e-05 7.67168e-05)
(-0.00746997 -4.36277e-05 6.52181e-05)
(-0.006315 -3.68205e-05 5.51371e-05)
(-0.00530338 -3.09859e-05 4.6305e-05)
(-0.00441919 -2.60279e-05 3.8591e-05)
(-0.00364729 -2.18313e-05 3.18444e-05)
(-0.00297507 -1.82533e-05 2.59704e-05)
(-0.00239219 -1.52358e-05 2.0886e-05)
(-0.0018884 -1.26854e-05 1.64884e-05)
(-0.00145504 -1.05217e-05 1.27077e-05)
(-0.00108478 -8.71421e-06 9.47104e-06)
(-0.00077185 -7.12279e-06 6.73949e-06)
(-0.000511454 -5.81676e-06 4.46695e-06)
(-0.000301442 -4.31891e-06 2.63355e-06)
(-0.000140987 -2.90146e-06 1.23301e-06)
(-3.36535e-05 -1.0826e-06 2.93957e-07)
(1.99026e-05 7.0515e-07 -1.74893e-07)
(1.55967e-05 2.33779e-06 -1.39106e-07)
(-0.112166 -0.0051438 0.000979173)
(-0.0982439 -0.004322 0.000857658)
(-0.0860512 -0.00365258 0.000751227)
(-0.0753395 -0.0031031 0.000657721)
(-0.0659101 -0.00264867 0.000575405)
(-0.0575931 -0.00226992 0.000502799)
(-0.0502437 -0.00195174 0.000438642)
(-0.0437394 -0.00168245 0.00038186)
(-0.037978 -0.00145295 0.000331568)
(-0.0328731 -0.00125657 0.000287001)
(-0.0283507 -0.00108635 0.000247523)
(-0.0243465 -0.000938876 0.000212566)
(-0.0208057 -0.000811828 0.000181657)
(-0.01768 -0.000700956 0.000154372)
(-0.0149248 -0.000604401 0.00013032)
(-0.0125018 -0.000520325 0.000109176)
(-0.0103753 -0.000447209 9.05917e-05)
(-0.00851412 -0.000383591 7.4329e-05)
(-0.00689118 -0.00032837 6.01692e-05)
(-0.00548089 -0.000280371 4.78594e-05)
(-0.0042613 -0.000238492 3.72176e-05)
(-0.00321356 -0.000201669 2.80595e-05)
(-0.00232284 -0.000168917 2.02842e-05)
(-0.00157696 -0.000138672 1.37742e-05)
(-0.000970196 -0.000109845 8.47724e-06)
(-0.000500884 -8.11607e-05 4.3806e-06)
(-0.000177075 -5.09414e-05 1.54833e-06)
(-5.62192e-07 -2.09648e-05 3.94276e-09)
(2.25852e-05 2.6217e-06 -2.068e-07)
(-0.16063 -0.0124616 0.00140225)
(-0.141784 -0.0106148 0.00123775)
(-0.125071 -0.00908285 0.00109186)
(-0.11022 -0.00780427 0.000962225)
(-0.0970073 -0.00673031 0.000846883)
(-0.0852378 -0.00582223 0.000744139)
(-0.0747428 -0.0050492 0.000652523)
(-0.0653771 -0.00438685 0.000570764)
(-0.0570176 -0.00381591 0.000497791)
(-0.0495576 -0.00332142 0.000432665)
(-0.0429047 -0.00289038 0.00037459)
(-0.036978 -0.00251382 0.00032285)
(-0.0317064 -0.00218459 0.000276833)
(-0.0270272 -0.00189572 0.000235989)
(-0.0228819 -0.0016423 0.000199801)
(-0.0192186 -0.00142006 0.00016783)
(-0.0159897 -0.0012254 0.000139615)
(-0.0131522 -0.00105502 0.000114823)
(-0.0106683 -0.00090612 9.31494e-05)
(-0.00850232 -0.000775827 7.42438e-05)
(-0.00662329 -0.00066139 5.78464e-05)
(-0.00500465 -0.000559915 4.36999e-05)
(-0.00362517 -0.000468947 3.16579e-05)
(-0.00246834 -0.000384283 2.15607e-05)
(-0.0015263 -0.000303812 1.33368e-05)
(-0.000796984 -0.000223446 6.97024e-06)
(-0.000292017 -0.00014005 2.55381e-06)
(-1.38674e-05 -5.75149e-05 1.20633e-07)
(3.13045e-05 4.19164e-06 -2.87347e-07)
(-0.195509 -0.0209483 0.00170671)
(-0.17387 -0.0180538 0.00151784)
(-0.154448 -0.0156162 0.00134831)
(-0.136996 -0.0135525 0.00119597)
(-0.121306 -0.0117955 0.00105901)
(-0.107194 -0.0102908 0.000935814)
(-0.0944958 -0.00899441 0.000824966)
(-0.0830685 -0.00787102 0.000725211)
(-0.0727889 -0.0068924 0.000635478)
(-0.0635481 -0.00603606 0.000554808)
(-0.0552505 -0.00528327 0.000482376)
(-0.0478109 -0.00461994 0.00041743)
(-0.0411532 -0.00403465 0.000359314)
(-0.0352095 -0.00351747 0.000307431)
(-0.0299151 -0.00306053 0.000261213)
(-0.025212 -0.00265711 0.000220165)
(-0.0210466 -0.00230151 0.000183768)
(-0.0173693 -0.00198841 0.000151642)
(-0.0141359 -0.00171314 0.000123426)
(-0.0113047 -0.00147084 9.87145e-05)
(-0.00883905 -0.00125682 7.71966e-05)
(-0.00670748 -0.00106602 5.85696e-05)
(-0.00488457 -0.000893706 4.26565e-05)
(-0.00335113 -0.000733366 2.92717e-05)
(-0.00209817 -0.000579879 1.83336e-05)
(-0.00112354 -0.000426673 9.82511e-06)
(-0.0004413 -0.000268815 3.85912e-06)
(-5.39117e-05 -0.000113116 4.7134e-07)
(3.30032e-05 2.89387e-06 -2.98667e-07)
(-0.219906 -0.0296904 0.00191967)
(-0.196937 -0.0258587 0.0017192)
(-0.176091 -0.0225883 0.00153724)
(-0.157162 -0.0197839 0.00137201)
(-0.139977 -0.0173667 0.00122199)
(-0.124375 -0.015272 0.00108579)
(-0.110214 -0.0134467 0.000962178)
(-0.0973657 -0.0118479 0.000850025)
(-0.0857199 -0.010441 0.000748366)
(-0.0751753 -0.00919786 0.000656316)
(-0.0656425 -0.00809548 0.000573102)
(-0.0570406 -0.0071159 0.000498011)
(-0.0492956 -0.00624444 0.000430404)
(-0.0423408 -0.00546879 0.000369695)
(-0.0361112 -0.00477873 0.000315315)
(-0.0305481 -0.00416554 0.000266757)
(-0.025596 -0.00362164 0.00022349)
(-0.021203 -0.00313998 0.000185113)
(-0.0173223 -0.00271405 0.000151247)
(-0.0139092 -0.00233704 0.000121457)
(-0.0109241 -0.00200221 9.54047e-05)
(-0.00833308 -0.0017022 7.27649e-05)
(-0.00610833 -0.00142969 5.33437e-05)
(-0.00422939 -0.00117552 3.69428e-05)
(-0.00268697 -0.000931162 2.34777e-05)
(-0.00147917 -0.000687348 1.29333e-05)
(-0.000621852 -0.000437299 5.43746e-06)
(-0.000117092 -0.00019139 1.02448e-06)
(2.89084e-05 -5.60945e-06 -2.53529e-07)
(-0.235999 -0.0381806 0.00206015)
(-0.212694 -0.0335736 0.00185674)
(-0.191326 -0.0295938 0.00167022)
(-0.171736 -0.0261405 0.00149923)
(-0.153788 -0.0231298 0.00134256)
(-0.137354 -0.0204914 0.0011991)
(-0.122316 -0.0181678 0.00106783)
(-0.108568 -0.0161115 0.00094782)
(-0.0960161 -0.0142842 0.000838251)
(-0.0845727 -0.0126546 0.000738356)
(-0.0741598 -0.0111971 0.00064746)
(-0.0647054 -0.00989128 0.000564928)
(-0.0561423 -0.00872053 0.00049018)
(-0.0484089 -0.00767105 0.000422675)
(-0.0414441 -0.0067311 0.000361878)
(-0.0351917 -0.00589055 0.0003073)
(-0.0295979 -0.00514049 0.00025843)
(-0.0246115 -0.00447248 0.000214873)
(-0.0201859 -0.00387846 0.00017625)
(-0.0162758 -0.00334982 0.000142122)
(-0.0128412 -0.00287783 0.000112145)
(-0.00984731 -0.00245286 8.59875e-05)
(-0.00726579 -0.00206483 6.34516e-05)
(-0.00507602 -0.00170174 4.43373e-05)
(-0.00326921 -0.00135159 2.85642e-05)
(-0.00184411 -0.00100222 1.61223e-05)
(-0.000818129 -0.000645148 7.15312e-06)
(-0.000193191 -0.000294438 1.69075e-06)
(2.17924e-05 -2.43254e-05 -1.78719e-07)
(-0.24568 -0.0461221 0.00214465)
(-0.22268 -0.0409161 0.0019439)
(-0.201397 -0.0363683 0.00175813)
(-0.181716 -0.0323787 0.00158634)
(-0.163535 -0.0288626 0.00142763)
(-0.146756 -0.0257487 0.00128117)
(-0.131287 -0.0229781 0.00114614)
(-0.117046 -0.020502 0.00102182)
(-0.103955 -0.0182809 0.000907555)
(-0.0919441 -0.0162824 0.000802708)
(-0.0809478 -0.0144799 0.00070672)
(-0.070905 -0.0128522 0.000619053)
(-0.0617576 -0.011382 0.000539204)
(-0.0534514 -0.010055 0.0004667)
(-0.0459314 -0.00885863 0.000401056)
(-0.039146 -0.00778225 0.000341825)
(-0.0330454 -0.00681613 0.000288529)
(-0.0275813 -0.00595094 0.000240801)
(-0.022709 -0.00517738 0.000198279)
(-0.0183848 -0.00448537 0.000160537)
(-0.0145698 -0.00386435 0.000127238)
(-0.0112299 -0.00330248 9.80604e-05)
(-0.00833759 -0.00278699 7.28114e-05)
(-0.00587307 -0.00230291 5.12987e-05)
(-0.00382872 -0.00183484 3.34519e-05)
(-0.00220434 -0.00136758 1.92701e-05)
(-0.00101896 -0.000891137 8.90857e-06)
(-0.000274998 -0.000423182 2.40705e-06)
(1.34431e-05 -5.46341e-05 -9.15842e-08)
(-0.250513 -0.0533697 0.00218682)
(-0.228214 -0.0477338 0.00199219)
(-0.207409 -0.0427583 0.0018106)
(-0.188017 -0.0383476 0.00164134)
(-0.169968 -0.0344201 0.00148379)
(-0.153193 -0.0309067 0.00133735)
(-0.137622 -0.0277497 0.00120144)
(-0.123194 -0.0249016 0.00107549)
(-0.109849 -0.0223236 0.00095901)
(-0.0975334 -0.019984 0.0008515)
(-0.0861936 -0.0178568 0.000752515)
(-0.0757805 -0.0159214 0.000661616)
(-0.0662454 -0.0141606 0.000578384)
(-0.0575427 -0.0125608 0.000502419)
(-0.0496242 -0.0111095 0.000433295)
(-0.0424443 -0.00979599 0.00037062)
(-0.0359583 -0.0086104 0.00031396)
(-0.030122 -0.00754298 0.000262982)
(-0.024894 -0.00658361 0.000217356)
(-0.0202335 -0.00572103 0.000176678)
(-0.0161037 -0.00494307 0.000140632)
(-0.0124726 -0.00423591 0.000108912)
(-0.00931439 -0.00358413 8.13415e-05)
(-0.00661079 -0.00296986 5.77418e-05)
(-0.00435594 -0.00237431 3.80573e-05)
(-0.00255108 -0.00177932 2.22998e-05)
(-0.00121716 -0.00117342 1.0641e-05)
(-0.00035794 -0.000577565 3.13334e-06)
(4.83773e-06 -9.69995e-05 -1.73814e-09)
(-0.251715 -0.0598695 0.0021973)
(-0.230351 -0.0539575 0.00201084)
(-0.210266 -0.0486842 0.00183553)
(-0.19141 -0.0439617 0.00167095)
(-0.17374 -0.0397142 0.00151671)
(-0.15721 -0.035877 0.00137241)
(-0.141772 -0.0323963 0.00123766)
(-0.127383 -0.0292273 0.00111206)
(-0.114 -0.0263339 0.000995243)
(-0.101582 -0.0236862 0.000886842)
(-0.0900886 -0.0212604 0.000786517)
(-0.0794813 -0.0190371 0.000693923)
(-0.0697206 -0.0170008 0.000608723)
(-0.0607692 -0.0151388 0.000530586)
(-0.052586 -0.0134396 0.000459153)
(-0.0451319 -0.011893 0.000394083)
(-0.0383675 -0.0104896 0.000334992)
(-0.0322534 -0.00921954 0.000281591)
(-0.0267524 -0.00807233 0.000233581)
(-0.021827 -0.00703581 0.000190591)
(-0.0174437 -0.00609651 0.000152332)
(-0.0135731 -0.00523876 0.000118521)
(-0.0101917 -0.00444471 8.90024e-05)
(-0.00728343 -0.00369363 6.36163e-05)
(-0.0048446 -0.00296349 4.23258e-05)
(-0.00287827 -0.00223318 2.51585e-05)
(-0.00140768 -0.00148974 1.23062e-05)
(-0.000438905 -0.000756835 3.84236e-06)
(-3.46869e-06 -0.000151313 8.52591e-08)
(-0.250212 -0.0656213 0.00218418)
(-0.22991 -0.0595689 0.00200698)
(-0.210687 -0.0541142 0.0018392)
(-0.19252 -0.0491793 0.00168062)
(-0.175388 -0.0446962 0.00153109)
(-0.159267 -0.0406069 0.00139036)
(-0.144127 -0.0368627 0.00125821)
(-0.12994 -0.0334233 0.00113438)
(-0.116679 -0.0302565 0.00101862)
(-0.104313 -0.0273356 0.000910677)
(-0.0928134 -0.0246396 0.000810302)
(-0.0821518 -0.0221516 0.000717235)
(-0.072297 -0.0198581 0.000631213)
(-0.0632192 -0.0177483 0.000551974)
(-0.0548841 -0.0158121 0.000479214)
(-0.0472585 -0.0140404 0.000412647)
(-0.0403088 -0.0124245 0.000351939)
(-0.0340003 -0.010955 0.000296841)
(-0.0283001 -0.00962132 0.000247094)
(-0.0231748 -0.00841068 0.000202358)
(-0.0185941 -0.00730854 0.000162376)
(-0.014532 -0.00629764 0.000126894)
(-0.0109677 -0.00535783 9.57787e-05)
(-0.00788759 -0.00446567 6.88926e-05)
(-0.00529047 -0.00359602 4.62203e-05)
(-0.00318155 -0.00272482 2.78081e-05)
(-0.00158682 -0.00183753 1.3872e-05)
(-0.00051569 -0.000959722 4.51482e-06)
(-1.11471e-05 -0.000217073 1.6606e-07)
(-0.246702 -0.070654 0.00215352)
(-0.227519 -0.0645798 0.0019861)
(-0.209234 -0.0590461 0.0018265)
(-0.191844 -0.053987 0.00167472)
(-0.17535 -0.0493443 0.00153075)
(-0.159745 -0.045068 0.00139454)
(-0.145016 -0.041116 0.00126597)
(-0.131147 -0.0374538 0.00114491)
(-0.118123 -0.034054 0.00103122)
(-0.105925 -0.0308942 0.000924744)
(-0.0945329 -0.0279569 0.00082531)
(-0.0839271 -0.0252284 0.00073273)
(-0.0740834 -0.0226978 0.000646807)
(-0.064979 -0.0203567 0.000567335)
(-0.0565856 -0.0181968 0.000494067)
(-0.0488756 -0.0162105 0.000426762)
(-0.0418204 -0.0143902 0.000365134)
(-0.0353902 -0.0127272 0.000308975)
(-0.0295563 -0.011211 0.00025806)
(-0.0242892 -0.00982855 0.000212087)
(-0.0195622 -0.00856453 0.000170828)
(-0.0153528 -0.00740021 0.00013406)
(-0.0116429 -0.00631335 0.000101675)
(-0.00842185 -0.00527791 7.35583e-05)
(-0.005691 -0.00426574 4.97187e-05)
(-0.00345799 -0.0032499 3.02233e-05)
(-0.00175205 -0.00221401 1.53162e-05)
(-0.000586801 -0.0011846 5.13763e-06)
(-1.80149e-05 -0.000293497 2.38742e-07)
(-0.241708 -0.0750119 0.00210992)
(-0.22366 -0.0690183 0.00195241)
(-0.206344 -0.0634948 0.00180127)
(-0.189778 -0.058389 0.00165668)
(-0.173981 -0.0536537 0.00151879)
(-0.158959 -0.0492484 0.00138767)
(-0.144714 -0.0451389 0.00126333)
(-0.131242 -0.0412974 0.00114574)
(-0.118539 -0.0377022 0.00103485)
(-0.106594 -0.0343359 0.000930584)
(-0.0953958 -0.0311852 0.000832839)
(-0.0849309 -0.0282403 0.00074149)
(-0.0751818 -0.0254932 0.000656393)
(-0.0661314 -0.0229382 0.000577393)
(-0.0577566 -0.0205692 0.000504287)
(-0.0500348 -0.0183805 0.00043688)
(-0.0429421 -0.0163656 0.000374925)
(-0.0364528 -0.0145168 0.000318251)
(-0.0305424 -0.0128241 0.000266668)
(-0.025185 -0.0112743 0.000219907)
(-0.0203576 -0.00985132 0.000177772)
(-0.0160408 -0.00853525 0.000140068)
(-0.0122198 -0.0073019 0.000106712)
(-0.00888656 -0.00612278 7.76165e-05)
(-0.00604519 -0.00496683 5.28123e-05)
(-0.00370599 -0.00380415 3.23898e-05)
(-0.00190183 -0.00261626 1.66253e-05)
(-0.000651344 -0.00142961 5.70291e-06)
(-2.39864e-05 -0.000379632 3.02381e-07)
(-0.23563 -0.0787458 0.00205685)
(-0.218703 -0.072921 0.00190913)
(-0.20236 -0.0674848 0.00176648)
(-0.186636 -0.0623996 0.00162924)
(-0.171563 -0.0576305 0.00149768)
(-0.157164 -0.0531474 0.00137199)
(-0.143451 -0.048925 0.00125229)
(-0.13043 -0.0449431 0.00113863)
(-0.118105 -0.0411866 0.00103106)
(-0.106475 -0.0376437 0.000929542)
(-0.0955345 -0.034306 0.000834045)
(-0.0852755 -0.0311675 0.000744495)
(-0.0756862 -0.028224 0.000660792)
(-0.066754 -0.0254726 0.000582826)
(-0.0584605 -0.0229097 0.000510429)
(-0.050787 -0.0205315 0.000443443)
(-0.0437137 -0.0183331 0.000381659)
(-0.0372188 -0.0163077 0.000324937)
(-0.0312813 -0.0144459 0.000273118)
(-0.0258787 -0.0127346 0.000225963)
(-0.0209915 -0.0111572 0.000183305)
(-0.0166034 -0.00969263 0.00014498)
(-0.0127025 -0.00831494 0.000110927)
(-0.00928359 -0.00699329 8.10835e-05)
(-0.00635341 -0.00569376 5.55041e-05)
(-0.00392508 -0.00438343 3.43037e-05)
(-0.00203546 -0.00304133 1.77933e-05)
(-0.000708915 -0.00169273 6.20715e-06)
(-2.90509e-05 -0.000474447 3.56812e-07)
(-0.228771 -0.0819092 0.00199697)
(-0.212935 -0.0763284 0.00185876)
(-0.197549 -0.0710459 0.00172448)
(-0.182664 -0.0660394 0.00159456)
(-0.168327 -0.0612874 0.00146942)
(-0.154569 -0.056771 0.00134933)
(-0.141415 -0.0524748 0.00123451)
(-0.128878 -0.048387 0.00112509)
(-0.116973 -0.0444997 0.00102117)
(-0.105701 -0.0408073 0.000922781)
(-0.0950651 -0.0373065 0.000829943)
(-0.0850613 -0.0339961 0.000742621)
(-0.0756821 -0.0308753 0.000660753)
(-0.0669189 -0.0279447 0.000584261)
(-0.0587568 -0.025203 0.000513013)
(-0.0511808 -0.0226486 0.000446878)
(-0.0441743 -0.0202782 0.000385678)
(-0.0377188 -0.0180862 0.000329301)
(-0.0317964 -0.0160638 0.000277614)
(-0.0263878 -0.014198 0.000230407)
(-0.0214765 -0.0124719 0.000187539)
(-0.0170491 -0.0108633 0.000148871)
(-0.0130965 -0.00934475 0.000114367)
(-0.00961601 -0.00788302 8.39862e-05)
(-0.00661708 -0.00644139 5.78068e-05)
(-0.0041157 -0.00498378 3.59687e-05)
(-0.00215298 -0.0034863 1.88204e-05)
(-0.000759495 -0.00197191 6.65018e-06)
(-3.3253e-05 -0.000576897 4.02425e-07)
(-0.221364 -0.0845554 0.00193231)
(-0.206576 -0.0792824 0.00180325)
(-0.19212 -0.0742099 0.00167708)
(-0.178061 -0.0693318 0.00155437)
(-0.164455 -0.0646405 0.00143561)
(-0.151344 -0.0601294 0.00132118)
(-0.138762 -0.0557934 0.00121135)
(-0.126731 -0.0516299 0.00110634)
(-0.115269 -0.0476388 0.00100629)
(-0.104387 -0.043821 0.000911302)
(-0.094089 -0.0401791 0.000821418)
(-0.0843768 -0.0367165 0.000736641)
(-0.0752462 -0.0334365 0.000656943)
(-0.0666914 -0.0303428 0.000582271)
(-0.0587008 -0.0274371 0.00051252)
(-0.0512619 -0.0247198 0.000447582)
(-0.0443611 -0.0221892 0.000387307)
(-0.0379826 -0.019841 0.000331603)
(-0.0321111 -0.0176671 0.00028036)
(-0.0267301 -0.0156547 0.000233394)
(-0.0218258 -0.0137864 0.000190587)
(-0.0173873 -0.0120394 0.000151823)
(-0.013408 -0.0103844 0.000117086)
(-0.00988774 -0.00878613 8.63588e-05)
(-0.00683845 -0.00720497 5.974e-05)
(-0.00427899 -0.00560147 3.7395e-05)
(-0.0022549 -0.00394834 1.97112e-05)
(-0.000803348 -0.00226513 7.0343e-06)
(-3.66715e-05 -0.000685957 4.39967e-07)
(-0.21359 -0.0867365 0.00186444)
(-0.199799 -0.0818243 0.00174409)
(-0.186239 -0.0770092 0.00162573)
(-0.172982 -0.0723014 0.00151003)
(-0.160094 -0.0677081 0.00139754)
(-0.147627 -0.0632352 0.00128872)
(-0.135621 -0.0588887 0.00118393)
(-0.124105 -0.0546757 0.00108341)
(-0.113103 -0.0506044 0.000987381)
(-0.10263 -0.0466828 0.00089596)
(-0.092694 -0.0429194 0.000809235)
(-0.0833 -0.0393226 0.000727236)
(-0.0744466 -0.0358999 0.000649958)
(-0.0661307 -0.0326587 0.000577372)
(-0.0583428 -0.0296031 0.00050939)
(-0.0510728 -0.0267357 0.000445928)
(-0.0443093 -0.0240567 0.000386852)
(-0.0380389 -0.0215629 0.000332092)
(-0.0322482 -0.0192469 0.000281555)
(-0.0269233 -0.0170961 0.000235079)
(-0.0220526 -0.015093 0.000192566)
(-0.0176276 -0.0132138 0.00015392)
(-0.0136438 -0.0114278 0.000119145)
(-0.0101033 -0.00969737 8.82407e-05)
(-0.00702035 -0.00798015 6.13282e-05)
(-0.00441663 -0.00623302 3.85971e-05)
(-0.00234217 -0.00442478 2.04738e-05)
(-0.000840945 -0.00257046 7.36363e-06)
(-3.94071e-05 -0.00080067 4.70418e-07)
(-0.205587 -0.0885026 0.00179457)
(-0.192741 -0.0839943 0.00168247)
(-0.180036 -0.0794756 0.00157158)
(-0.167553 -0.0749733 0.00146263)
(-0.155365 -0.0705091 0.00135625)
(-0.143532 -0.0661022 0.00125296)
(-0.132098 -0.0617702 0.00115317)
(-0.1211 -0.0575303 0.00105717)
(-0.110566 -0.0533993 0.000965227)
(-0.100514 -0.0493927 0.000877483)
(-0.0909558 -0.0455253 0.000794056)
(-0.0818988 -0.0418107 0.000714999)
(-0.0733438 -0.0382608 0.000640326)
(-0.0652896 -0.0348862 0.000570025)
(-0.0577286 -0.0316941 0.000504024)
(-0.0506525 -0.0286892 0.000442254)
(-0.0440517 -0.0258733 0.0003846)
(-0.0379144 -0.0232444 0.000331005)
(-0.0322295 -0.0207959 0.00028139)
(-0.0269846 -0.0185154 0.000235612)
(-0.0221702 -0.0163851 0.000193591)
(-0.0177799 -0.0143805 0.000155249)
(-0.013811 -0.0124694 0.000120604)
(-0.0102676 -0.010612 8.96749e-05)
(-0.00716602 -0.00876295 6.26e-05)
(-0.00453067 -0.00687522 3.95929e-05)
(-0.002416 -0.00491311 2.1119e-05)
(-0.000872905 -0.00288611 7.64358e-06)
(-4.15744e-05 -0.000920165 4.94906e-07)
(-0.197466 -0.0899017 0.00172368)
(-0.185509 -0.0858313 0.00161933)
(-0.173616 -0.0816403 0.00151553)
(-0.161874 -0.0773717 0.00141305)
(-0.150364 -0.0730623 0.00131259)
(-0.139149 -0.0687445 0.0012147)
(-0.128281 -0.0644481 0.00111984)
(-0.117799 -0.0602004 0.00102835)
(-0.107735 -0.0560276 0.000940507)
(-0.0981104 -0.0519527 0.000856497)
(-0.08894 -0.0479969 0.000776454)
(-0.0802326 -0.0441792 0.000700449)
(-0.071991 -0.040516 0.000628512)
(-0.0642153 -0.0370213 0.000560642)
(-0.0568995 -0.0337053 0.000496782)
(-0.0500365 -0.0305747 0.000436873)
(-0.0436183 -0.0276331 0.000380814)
(-0.0376345 -0.0248795 0.00032856)
(-0.0320754 -0.0223081 0.000280043)
(-0.0269304 -0.0199067 0.000235138)
(-0.0221915 -0.0176572 0.000193776)
(-0.017854 -0.0155344 0.000155895)
(-0.0139169 -0.0135047 0.000121528)
(-0.0103858 -0.011526 9.07061e-05)
(-0.00727898 -0.00954983 6.3586e-05)
(-0.00462342 -0.00752513 4.04027e-05)
(-0.00247781 -0.00541104 2.16591e-05)
(-0.000899949 -0.00321042 7.88049e-06)
(-4.3296e-05 -0.00104368 5.14652e-07)
(-0.189313 -0.0909794 0.0016525)
(-0.178188 -0.0873722 0.00155541)
(-0.167062 -0.0835328 0.00145832)
(-0.156028 -0.0795201 0.00136202)
(-0.145171 -0.0753859 0.00126725)
(-0.134557 -0.0711762 0.00117461)
(-0.124243 -0.0669327 0.00108458)
(-0.114271 -0.0626936 0.000997544)
(-0.104676 -0.0584942 0.000913794)
(-0.0954808 -0.0543654 0.000833536)
(-0.0867034 -0.0503351 0.000756924)
(-0.0783535 -0.0464277 0.00068404)
(-0.0704353 -0.0426639 0.000614926)
(-0.06295 -0.0390616 0.000549591)
(-0.0558927 -0.0356334 0.000487988)
(-0.0492573 -0.0323885 0.000430066)
(-0.043037 -0.0293319 0.000375737)
(-0.0372226 -0.0264637 0.000324962)
(-0.0318055 -0.0237787 0.000277686)
(-0.0267765 -0.0212652 0.000233792)
(-0.022129 -0.0189046 0.000193228)
(-0.0178595 -0.0166711 0.000155942)
(-0.0139685 -0.0145294 0.000121978)
(-0.010463 -0.0124355 9.138e-05)
(-0.0073629 -0.0103376 6.43184e-05)
(-0.00469737 -0.00818011 4.10483e-05)
(-0.00252917 -0.00591649 2.21079e-05)
(-0.000922875 -0.00354196 8.08132e-06)
(-4.46997e-05 -0.00117056 5.30935e-07)
(-0.181194 -0.0917783 0.00158163)
(-0.170846 -0.0886518 0.00149132)
(-0.160443 -0.085181 0.00140053)
(-0.150083 -0.0814408 0.00131011)
(-0.139851 -0.0774975 0.00122081)
(-0.129819 -0.0734107 0.00113325)
(-0.120046 -0.0692344 0.00104794)
(-0.110575 -0.0650174 0.000965277)
(-0.101444 -0.0608044 0.00088558)
(-0.0926782 -0.0566344 0.000809066)
(-0.0842955 -0.0525418 0.000735899)
(-0.0763073 -0.0485567 0.000666172)
(-0.0687185 -0.0447042 0.000599934)
(-0.0615314 -0.0410056 0.000537202)
(-0.0547418 -0.0374764 0.000477936)
(-0.0483444 -0.0341278 0.000422093)
(-0.0423334 -0.0309664 0.000369592)
(-0.0367005 -0.0279934 0.000320402)
(-0.031438 -0.0252042 0.000274475)
(-0.0265378 -0.0225871 0.000231706)
(-0.0219945 -0.0201235 0.000192052)
(-0.0178057 -0.0177868 0.000155472)
(-0.013973 -0.0155402 0.000122017)
(-0.0105046 -0.0133374 9.17423e-05)
(-0.00742154 -0.0111234 6.48299e-05)
(-0.00475513 -0.00883777 4.15523e-05)
(-0.00257173 -0.00642761 2.24797e-05)
(-0.000942528 -0.00387946 8.25347e-06)
(-4.59183e-05 -0.0013003 5.45082e-07)
(-0.173165 -0.0923377 0.00151153)
(-0.163538 -0.089702 0.00142753)
(-0.153815 -0.086611 0.00134267)
(-0.144093 -0.0831545 0.00125782)
(-0.134461 -0.0794135 0.00117375)
(-0.124991 -0.0754609 0.00109109)
(-0.115743 -0.0713629 0.00101037)
(-0.106763 -0.0671792 0.000931996)
(-0.0980897 -0.0629638 0.000856293)
(-0.089749 -0.0587636 0.000783491)
(-0.0817598 -0.0546197 0.000713759)
(-0.0741342 -0.0505678 0.000647198)
(-0.0668778 -0.0466372 0.000583861)
(-0.0599932 -0.0428529 0.00052377)
(-0.053477 -0.0392331 0.000466891)
(-0.0473246 -0.035791 0.000413186)
(-0.0415307 -0.0325346 0.000362583)
(-0.0360881 -0.0294662 0.000315054)
(-0.0309896 -0.0265816 0.000270559)
(-0.0262282 -0.0238695 0.000229002)
(-0.0217993 -0.0213109 0.000190346)
(-0.0177015 -0.0188784 0.000154561)
(-0.0139373 -0.016534 0.000121704)
(-0.0105157 -0.0142289 9.18381e-05)
(-0.00745866 -0.0119048 6.51533e-05)
(-0.00479933 -0.00949603 4.19378e-05)
(-0.00260722 -0.00694279 2.27897e-05)
(-0.000959792 -0.00422186 8.40466e-06)
(-4.70885e-05 -0.00143249 5.58468e-07)
(-0.165267 -0.0926936 0.00144259)
(-0.156311 -0.0905526 0.00136443)
(-0.147224 -0.0878466 0.00128513)
(-0.138107 -0.0846804 0.00120556)
(-0.129047 -0.081149 0.00112649)
(-0.120118 -0.0773387 0.00104855)
(-0.111379 -0.0733277 0.000972281)
(-0.102879 -0.0691863 0.000898089)
(-0.0946552 -0.0649778 0.000826307)
(-0.0867341 -0.060757 0.000757167)
(-0.079135 -0.0565717 0.00069084)
(-0.0718705 -0.0524627 0.000627432)
(-0.0649464 -0.0484641 0.000566996)
(-0.0583659 -0.0446041 0.000509559)
(-0.0521259 -0.0409034 0.000455091)
(-0.0462223 -0.0373773 0.00040356)
(-0.0406506 -0.0340353 0.000354897)
(-0.035404 -0.0308804 0.000309081)
(-0.0304762 -0.0279091 0.000266075)
(-0.0258609 -0.0251102 0.000225793)
(-0.0215542 -0.0224644 0.000188204)
(-0.0175556 -0.0199436 0.000153286)
(-0.013868 -0.0175084 0.000121098)
(-0.0105012 -0.0151077 9.1711e-05)
(-0.00747795 -0.0126796 6.5321e-05)
(-0.0048326 -0.010153 4.22277e-05)
(-0.00263735 -0.00746062 2.30527e-05)
(-0.00097557 -0.00456834 8.54284e-06)
(-4.83521e-05 -0.00156691 5.72521e-07)
(-0.157536 -0.0928789 0.0013751)
(-0.1492 -0.0912302 0.00130235)
(-0.14071 -0.0889095 0.00122826)
(-0.132164 -0.0860359 0.00115368)
(-0.123651 -0.0827181 0.00107937)
(-0.115242 -0.0790553 0.00100598)
(-0.106997 -0.0751375 0.000934019)
(-0.0989633 -0.0710456 0.000863901)
(-0.0911788 -0.0668517 0.000795956)
(-0.0836698 -0.0626188 0.000730413)
(-0.0764555 -0.0584008 0.000667445)
(-0.0695484 -0.054244 0.000607156)
(-0.0629544 -0.0501865 0.000549602)
(-0.056677 -0.04626 0.000494811)
(-0.0507134 -0.0424876 0.000442756)
(-0.04506 -0.0388866 0.000393408)
(-0.0397127 -0.0354678 0.000346707)
(-0.0346655 -0.032235 0.000302632)
(-0.0299125 -0.0291854 0.000261152)
(-0.0254481 -0.0263076 0.000222187)
(-0.0212693 -0.0235823 0.000185714)
(-0.0173758 -0.0209805 0.000151715)