/*--------------------------------*- C++ -*----------------------------------*\
| =========                 |                                                 |
| \\      /  F ield         | OpenFOAM: The Open Source CFD Toolbox           |
|  \\    /   O peration     | Version:  v2012                                 |
|   \\  /    A nd           | Website:  www.openfoam.com                      |
|    \\/     M anipulation  |                                                 |
\*---------------------------------------------------------------------------*/
FoamFile
{
    version     2.0;
    format      ascii;
    class       surfaceScalarField;
    location    "0.75";
    object      phi;
}
// * * * * * * * * * * * * * * * * * * * * * * * * * * * * * * * * * * * * * //

dimensions      [0 3 -1 0 0 0 0];
oriented        oriented;


internalField   nonuniform List<scalar> 
8048
(
1.29208e-13
-1.64035e-12
3.64887e-17
9.31574e-13
-1.09243e-11
-2.21223e-16
2.89925e-12
-2.77764e-11
-2.38292e-16
6.46948e-12
-5.1529e-11
1.46689e-15
1.20042e-11
-8.19943e-11
-1.19783e-15
1.99631e-11
-1.19165e-10
7.2099e-15
3.06249e-11
-1.63104e-10
2.60476e-15
-2.13949e-10
-1.80021e-14
1.44642e-13
-1.78502e-12
-1.09878e-17
1.04207e-12
-1.18205e-11
1.21783e-16
3.2333e-12
-2.99672e-11
-7.06679e-18
7.18081e-12
-5.54831e-11
-1.00275e-15
1.32931e-11
-8.81408e-11
-4.12894e-15
2.2032e-11
-1.279e-10
7.01542e-16
3.37544e-11
-1.74795e-10
3.66602e-15
4.87824e-11
-2.28932e-10
5.87206e-15
6.75546e-11
-2.90236e-10
7.41051e-15
9.0235e-11
-3.58827e-10
2.86713e-15
1.17056e-10
-4.34399e-10
-7.74014e-15
1.48279e-10
-5.16843e-10
4.01906e-15
1.83889e-10
-6.05805e-10
-4.05301e-15
2.2396e-10
-7.00767e-10
-3.07236e-15
-8.0114e-10
-5.35159e-15
1.63936e-13
-1.94871e-12
2.51705e-17
1.17094e-12
-1.28244e-11
3.69141e-16
3.61527e-12
-3.24106e-11
1.13621e-16
8.00927e-12
-5.98748e-11
1.92099e-16
1.48103e-11
-9.49519e-11
-1.2733e-15
2.44921e-11
-1.37569e-10
1.33728e-15
3.743e-11
-1.8775e-10
-2.05364e-15
5.40268e-11
-2.45539e-10
-1.03123e-15
7.46324e-11
-3.10846e-10
-4.98262e-16
9.95096e-11
-3.83713e-10
-5.65402e-16
1.2887e-10
-4.63812e-10
-8.03934e-15
1.62977e-10
-5.50925e-10
3.94759e-15
2.01782e-10
-6.44632e-10
-1.40624e-15
2.45289e-10
-7.4429e-10
-1.8303e-15
-8.49216e-10
-2.55831e-15
1.85025e-13
-2.13327e-12
5.0726e-17
1.31247e-12
-1.39486e-11
3.93002e-16
4.03993e-12
-3.51356e-11
2.36884e-16
8.92604e-12
-6.47641e-11
-4.85904e-16
1.64903e-11
-1.02516e-10
9.28196e-18
2.72123e-11
-1.48293e-10
-2.84234e-16
4.15121e-11
-2.02077e-10
-3.29994e-15
5.98439e-11
-2.6387e-10
8.17471e-18
8.25345e-11
-3.3355e-10
-1.3235e-15
1.09899e-10
-4.11077e-10
3.04274e-16
1.42097e-10
-4.96064e-10
-7.57539e-15
1.79399e-10
-5.88202e-10
3.15057e-15
2.21716e-10
-6.86977e-10
-1.97845e-15
2.69013e-10
-7.91609e-10
-2.96686e-15
-9.01316e-10
-5.15081e-15
2.11063e-13
-2.34371e-12
7.31044e-17
1.48342e-12
-1.52172e-11
4.69998e-16
4.54508e-12
-3.81949e-11
2.43185e-16
1.00097e-11
-7.02315e-11
-4.17895e-16
1.84481e-11
-1.10948e-10
7.65387e-16
3.03727e-11
-1.60212e-10
4.80528e-16
4.62499e-11
-2.17962e-10
-1.04797e-15
6.6547e-11
-2.84149e-10
2.02857e-15
9.15906e-11
-3.58615e-10
-2.20319e-15
1.21727e-10
-4.4121e-10
6.25841e-16
1.5709e-10
-5.31496e-10
-9.51619e-15
1.97937e-10
-6.29029e-10
2.87319e-15
2.44132e-10
-7.33201e-10
-1.97472e-15
2.95581e-10
-8.43083e-10
-2.86204e-15
-9.57766e-10
-3.68275e-15
2.39034e-13
-2.58223e-12
5.4709e-17
1.66985e-12
-1.66439e-11
4.67941e-16
5.09671e-12
-4.1623e-11
-1.77842e-16
1.1209e-11
-7.63425e-11
8.25666e-17
2.06195e-11
-1.20357e-10
1.17263e-16
3.38937e-11
-1.73484e-10
1.37617e-16
5.15382e-11
-2.35612e-10
-6.88697e-16
7.40243e-11
-3.06639e-10
-4.12e-16
1.01731e-10
-3.86332e-10
-9.25867e-16
1.34977e-10
-4.74455e-10
4.50789e-16
1.73888e-10
-5.70474e-10
-9.22303e-15
2.18688e-10
-6.73809e-10
2.66488e-15
2.6918e-10
-7.83739e-10
-3.83008e-15
3.25217e-10
-8.99152e-10
-3.69489e-15
-1.01901e-09
-6.65537e-15
2.75239e-13
-2.85667e-12
9.05683e-17
1.90169e-12
-1.8266e-11
5.09174e-16
5.77427e-12
-4.54974e-11
-2.50514e-16
1.26522e-11
-8.32193e-11
5.92127e-17
2.32044e-11
-1.30906e-10
3.97445e-16
3.80405e-11
-1.88321e-10
-1.51838e-16
5.77187e-11
-2.55285e-10
4.87885e-16
8.27179e-11
-3.31636e-10
3.27502e-16
1.13438e-10
-4.17048e-10
7.70193e-16
1.50186e-10
-5.11189e-10
2.4032e-15
1.93058e-10
-6.13405e-10
-7.91921e-15
2.42245e-10
-7.2296e-10
4.69053e-15
2.97478e-10
-8.39006e-10
-2.1947e-15
3.58531e-10
-9.60227e-10
-2.3973e-15
-1.08543e-09
-5.95648e-15
3.13554e-13
-3.16938e-12
9.93791e-17
2.15108e-12
-2.00989e-11
5.41526e-16
6.51031e-12
-4.98576e-11
-1.63338e-16
1.42335e-11
-9.0941e-11
8.8052e-17
2.60562e-11
-1.42729e-10
-1.01601e-16
4.26527e-11
-2.04914e-10
3.97115e-16
6.46111e-11
-2.77242e-10
2.80182e-16
9.24387e-11
-3.59462e-10
2.03484e-16
1.26546e-10
-4.51153e-10
6.60892e-16
1.67234e-10
-5.5186e-10
2.43226e-15
2.14559e-10
-6.60788e-10
-7.94956e-15
2.68657e-10
-7.77031e-10
4.17923e-15
3.29172e-10
-8.99567e-10
-3.51941e-15
3.95778e-10
-1.02686e-09
-2.18981e-15
-1.15753e-09
-6.95601e-15
3.64878e-13
-3.53309e-12
1.36211e-16
2.47169e-12
-2.22011e-11
5.46046e-16
7.43538e-12
-5.48249e-11
-4.91196e-16
1.61853e-11
-9.96911e-11
-1.15561e-16
2.95278e-11
-1.56068e-10
3.78545e-16
4.81815e-11
-2.23568e-10
-8.02609e-17
7.27947e-11
-3.01845e-10
1.7545e-15
1.03886e-10
-3.90544e-10
1.20939e-15
1.41861e-10
-4.89133e-10
-5.98573e-16
1.87005e-10
-5.96993e-10
1.98416e-15
2.39329e-10
-7.13168e-10
-8.61812e-15
2.98881e-10
-8.36543e-10
5.7084e-15
3.6521e-10
-9.65926e-10
-1.44416e-15
4.37873e-10
-1.09953e-09
-4.43177e-16
-1.23578e-09
-6.32358e-15
4.16738e-13
-3.94981e-12
-4.38813e-18
2.80759e-12
-2.45879e-11
4.47658e-16
8.42469e-12
-6.04416e-11
-1.34888e-17
1.82948e-11
-1.09562e-10
-2.09766e-16
3.33179e-11
-1.71093e-10
-1.77789e-16
5.42823e-11
-2.44531e-10
5.16391e-16
8.18834e-11
-3.29428e-10
9.17184e-16
1.16628e-10
-4.25304e-10
-1.43055e-15
1.5896e-10
-5.31464e-10
1.63438e-15
2.09118e-10
-6.47137e-10
2.01839e-15
2.67086e-10
-7.71156e-10
5.67716e-17
3.32742e-10
-9.02189e-10
1.92836e-15
4.05583e-10
-1.0388e-09
-1.92977e-15
4.84961e-10
-1.17893e-09
-6.90145e-16
-1.32077e-09
-5.43495e-15
4.91278e-13
-4.4407e-12
4.05034e-17
3.26025e-12
-2.73527e-11
4.73707e-16
9.71115e-12
-6.68951e-11
-3.84882e-16
2.09806e-11
-1.20835e-10
-5.29339e-16
3.80537e-11
-1.88167e-10
1.1113e-17
6.17722e-11
-2.68252e-10
8.72287e-17
9.28896e-11
-3.60521e-10
2.23473e-15
1.31914e-10
-4.64337e-10
-5.84846e-16
1.79264e-10
-5.78824e-10
4.67443e-17
2.35135e-10
-7.03002e-10
1.1337e-15
2.99429e-10
-8.35473e-10
-1.04439e-15
3.71888e-10
-9.74631e-10
2.86074e-15
4.51858e-10
-1.11879e-09
-6.93838e-16
5.38525e-10
-1.2656e-09
1.21003e-15
-1.41298e-09
-3.20326e-15
5.65936e-13
-5.00614e-12
5.28358e-17
3.72561e-12
-3.05076e-11
5.37523e-16
1.10594e-11
-7.42316e-11
-3.94075e-16
2.38419e-11
-1.33619e-10
-2.05641e-16
4.31689e-11
-2.07492e-10
3.30094e-16
6.99491e-11
-2.95037e-10
-2.19169e-16
1.04992e-10
-3.95544e-10
1.81155e-15
1.48824e-10
-5.08175e-10
-1.09375e-16
2.01838e-10
-6.31846e-10
3.89909e-16
2.64166e-10
-7.65324e-10
1.49563e-15
3.35603e-10
-9.06927e-10
-3.05854e-16
4.1573e-10
-1.05475e-09
3.09362e-15
5.03697e-10
-1.20679e-09
-1.21331e-15
5.9846e-10
-1.36037e-09
2.57048e-15
-1.51311e-09
-3.67302e-15
6.77076e-13
-5.68227e-12
1.25375e-16
4.3778e-12
-3.42052e-11
3.39878e-16
1.28859e-11
-8.27439e-11
-6.20208e-16
2.76091e-11
-1.48347e-10
-6.83099e-16
4.97482e-11
-2.29627e-10
8.22062e-16
8.02745e-11
-3.2557e-10
-1.0429e-16
1.20043e-10
-4.3528e-10
2.88815e-15
1.69549e-10
-5.57684e-10
5.99466e-16
2.29142e-10
-6.91439e-10
1.93243e-15
2.98848e-10
-8.35019e-10
2.29379e-15
3.78319e-10
-9.86411e-10
1.15726e-15
4.66945e-10
-1.14335e-09
4.53427e-15
5.63644e-10
-1.30351e-09
1.40393e-15
6.67105e-10
-1.46383e-09
3.76596e-15
-1.62162e-09
-1.42843e-15
7.81599e-13
-6.46537e-12
-2.26698e-16
5.024e-12
-3.84448e-11
1.59055e-16
1.47419e-11
-9.24639e-11
-1.23938e-16
3.15288e-11
-1.6513e-10
8.15561e-16
5.67094e-11
-2.54799e-10
3.06425e-16
9.13457e-11
-3.60218e-10
-1.13504e-15
1.36325e-10
-4.80255e-10
2.18125e-15
1.9218e-10
-6.13548e-10
-4.28851e-16
2.59202e-10
-7.58448e-10
2.9312e-15
3.37267e-10
-9.13069e-10
4.06598e-15
4.25847e-10
-1.075e-09
1.57992e-15
5.24092e-10
-1.24157e-09
5.8792e-15
6.30608e-10
-1.41006e-09
2.08633e-16
7.43755e-10
-1.57698e-09
4.74339e-15
-1.73932e-09
-2.55214e-15
9.51716e-13
-7.41804e-12
-1.34794e-16
5.98762e-12
-4.34801e-11
-8.34223e-17
1.73903e-11
-1.03872e-10
-4.33187e-16
3.69234e-11
-1.84661e-10
6.85665e-16
6.60326e-11
-2.83893e-10
1.17351e-15
1.05842e-10
-4.00032e-10
-7.29748e-17
1.57255e-10
-5.31649e-10
3.50769e-15
2.20739e-10
-6.77038e-10
4.48025e-16
2.96467e-10
-8.34165e-10
3.44691e-15
3.84134e-10
-1.00072e-09
4.33489e-15
4.82968e-10
-1.17385e-09
2.32627e-15
5.91816e-10
-1.35039e-09
6.87183e-15
7.08935e-10
-1.5272e-09
3.18357e-15
8.32307e-10
-1.70034e-09
6.34295e-15
-1.86646e-09
1.56853e-15
1.10768e-12
-8.5267e-12
-1.33951e-16
6.90538e-12
-4.92767e-11
2.9289e-17
1.99909e-11
-1.16956e-10
3.00074e-17
4.23508e-11
-2.07018e-10
3.45328e-16
7.55963e-11
-3.17139e-10
6.30111e-16
1.20982e-10
-4.45422e-10
2.39038e-16
1.79423e-10
-5.90083e-10
1.93995e-15
2.51376e-10
-7.48992e-10
2.12166e-15
3.36876e-10
-9.19646e-10
4.76273e-15
4.35412e-10
-1.09924e-09
6.09788e-15
5.459e-10
-1.28434e-09
4.23819e-15
6.6679e-10
-1.47126e-09
7.84228e-15
7.95894e-10
-1.65634e-09
1.90174e-15
9.30704e-10
-1.83516e-09
7.47203e-15
-2.00401e-09
-1.80875e-15
1.37459e-12
-9.9014e-12
-2.26375e-17
8.36369e-12
-5.62636e-11
1.75874e-16
2.3913e-11
-1.3251e-10
-5.40334e-16
5.02299e-11
-2.33334e-10
1.96223e-16
8.90587e-11
-3.55968e-10
6.59682e-16
1.41702e-10
-4.98066e-10
1.05858e-15
2.09037e-10
-6.57406e-10
3.24755e-15
2.91379e-10
-8.31332e-10
3.09131e-15
3.88518e-10
-1.01678e-09
4.64281e-15
4.99628e-10
-1.21033e-09
6.93983e-15
6.23212e-10
-1.40794e-09
4.22959e-15
7.57252e-10
-1.60533e-09
3.02824e-15
8.99045e-10
-1.79825e-09
-2.80315e-15
1.04555e-09
-1.98175e-09
-4.2087e-16
-2.15184e-09
-1.93619e-15
1.60139e-12
-1.15075e-11
-6.08843e-16
9.66401e-12
-6.43312e-11
-6.99355e-16
2.7568e-11
-1.50409e-10
5.9983e-16
5.78023e-11
-2.63568e-10
3.74066e-16
1.02346e-10
-4.00509e-10
1.13452e-15
1.6261e-10
-5.58333e-10
1.20822e-15
2.39485e-10
-7.34279e-10
2.82401e-15
3.33194e-10
-9.25043e-10
3.7123e-15
4.43299e-10
-1.12687e-09
6.22981e-15
5.68605e-10
-1.33562e-09
8.31032e-15
7.07032e-10
-1.54647e-09
-2.53622e-15
8.56147e-10
-1.75437e-09
1.8676e-14
1.0124e-09
-1.95452e-09
7.44316e-15
1.17206e-09
-2.14144e-09
1.19365e-14
-2.31079e-09
1.61676e-14
2.02735e-12
-1.35382e-11
-4.43428e-16
1.19082e-11
-7.42129e-11
-1.92338e-16
3.34815e-11
-1.71985e-10
-2.38129e-16
6.95212e-11
-2.99611e-10
1.35037e-16
1.22148e-10
-4.53136e-10
1.20092e-15
1.9277e-10
-6.28956e-10
2.20112e-15
2.82145e-10
-8.23646e-10
4.54292e-15
3.90184e-10
-1.03308e-09
5.72836e-15
5.16007e-10
-1.25269e-09
7.90612e-15
6.57849e-10
-1.47744e-09
1.06645e-14
8.12963e-10
-1.70168e-09
-1.96266e-16
9.78186e-10
-1.91956e-09
1.55817e-14
1.14922e-09
-2.12565e-09
4.75996e-15
1.32164e-09
-2.31394e-09
5.41723e-15
-2.47991e-09
1.9544e-14
2.37021e-12
-1.59106e-11
-3.05953e-16
1.37836e-11
-8.5625e-11
9.81218e-17
3.86512e-11
-1.9685e-10
3.42366e-16
8.01641e-11
-3.41126e-10
3.08792e-16
1.40721e-10
-5.13704e-10
7.61022e-16
2.21856e-10
-7.10096e-10
2.71423e-15
3.24284e-10
-9.26075e-10
4.84417e-15
4.47687e-10
-1.15648e-09
7.23874e-15
5.9077e-10
-1.39576e-09
9.59466e-15
7.5114e-10
-1.6378e-09
1.42021e-14
9.25229e-10
-1.87587e-09
2.00639e-15
1.10894e-09
-2.10325e-09
2.00337e-14
1.29695e-09
-2.31378e-09
4.23708e-15
1.48388e-09
-2.50097e-09
1.1942e-14
-2.66019e-09
1.82101e-14
3.05069e-12
-1.89603e-11
2.02479e-16
1.72624e-11
-9.98338e-11
3.76788e-16
4.7691e-11
-2.27284e-10
-4.76262e-16
9.78751e-11
-3.91321e-10
6.63739e-17
1.70353e-10
-5.86187e-10
2.4041e-15
2.66545e-10
-8.06287e-10
5.04207e-15
3.86837e-10
-1.04635e-09
9.30575e-15
5.30283e-10
-1.29992e-09
1.15925e-14
6.94778e-10
-1.56023e-09
1.57312e-14
8.76931e-10
-1.81991e-09
1.96954e-14
1.07209e-09
-2.07113e-09
8.87166e-15
1.27504e-09
-2.30615e-09
2.50635e-14
1.47943e-09
-2.51826e-09
1.42575e-14
1.67895e-09
-2.70057e-09
1.49403e-14
-2.84859e-09
2.90151e-14
3.52909e-12
-2.24925e-11
-7.34362e-16
1.98708e-11
-1.16182e-10
-1.18148e-15
5.48951e-11
-2.62332e-10
-1.27415e-15
1.12795e-10
-4.49191e-10
5.74532e-15
1.96387e-10
-6.69799e-10
1.37267e-15
3.07225e-10
-9.17123e-10
7.8104e-15
4.45487e-10
-1.18463e-09
7.29648e-15
6.09802e-10
-1.46424e-09
1.36365e-14
7.97293e-10
-1.74773e-09
1.59989e-14
1.00353e-09
-2.02612e-09
2.43059e-14
1.22253e-09
-2.29024e-09
1.10777e-14
1.44766e-09
-2.53126e-09
3.13109e-14
1.67109e-09
-2.7418e-09
1.52178e-14
1.88524e-09
-2.9148e-09
2.65908e-14
-3.04613e-09
3.10442e-14
4.58369e-12
-2.70756e-11
-7.76637e-17
2.52465e-11
-1.36847e-10
-4.34787e-16
6.88061e-11
-3.05919e-10
-1.24339e-15
1.39908e-10
-5.20264e-10
6.82669e-15
2.41449e-10
-7.71356e-10
3.79815e-15
3.74619e-10
-1.05027e-09
1.35225e-14
5.38854e-10
-1.34886e-09
1.45603e-14
7.31586e-10
-1.65694e-09
2.28171e-14
9.48436e-10
-1.96456e-09
2.68607e-14
1.18326e-09
-2.26089e-09
3.38919e-14
1.42832e-09
-2.53537e-09
2.55136e-14
1.6753e-09
-2.77817e-09
4.09635e-14
1.91497e-09
-2.98154e-09
3.34698e-14
2.13874e-09
-3.1386e-09
3.25432e-14
-3.24613e-09
5.02864e-14
5.19702e-12
-3.22697e-11
1.80707e-16
2.87711e-11
-1.60423e-10
-1.19274e-16
7.88283e-11
-3.55993e-10
5.01996e-17
1.6083e-10
-6.02252e-10
6.90697e-15
2.78091e-10
-8.88654e-10
5.74511e-15
4.31761e-10
-1.20398e-09
1.04234e-14
6.20883e-10
-1.53797e-09
2.24165e-14
8.41953e-10
-1.87802e-09
2.63661e-14
1.08921e-09
-2.2118e-09
3.2471e-14
1.35485e-09
-2.5265e-09
4.25792e-14
1.62898e-09
-2.80959e-09
3.03891e-14
1.90123e-09
-3.05038e-09
5.2841e-14
2.16029e-09
-3.2407e-09
3.24012e-14
2.39601e-09
-3.37441e-09
4.64467e-14
-3.44962e-09
4.41049e-14
6.78957e-12
-3.90521e-11
8.34954e-16
3.71128e-11
-1.90725e-10
3.23095e-15
1.00522e-10
-4.19421e-10
1.55148e-15
2.03033e-10
-7.04737e-10
1.15255e-14
3.47873e-10
-1.03352e-09
1.16669e-14
5.35255e-10
-1.39138e-09
2.00089e-14
7.62713e-10
-1.76539e-09
3.35621e-14
1.02447e-09
-2.13976e-09
3.84989e-14
1.31205e-09
-2.49935e-09
4.83644e-14
1.61475e-09
-2.82914e-09
5.41432e-14
1.91973e-09
-3.11465e-09
5.04729e-14
2.2143e-09
-3.34485e-09
6.33691e-14
2.48535e-09
-3.51181e-09
6.12692e-14
2.72201e-09
-3.61108e-09
5.12908e-14
-3.64314e-09
6.89495e-14
7.5366e-12
-4.65843e-11
3.89976e-16
4.18615e-11
-2.25045e-10
1.89617e-15
1.14551e-10
-4.92145e-10
2.01997e-15
2.32716e-10
-8.22882e-10
1.52673e-14
3.99878e-10
-1.20072e-09
1.764e-14
6.16048e-10
-1.60759e-09
2.65255e-14
8.77478e-10
-2.02685e-09
3.7252e-14
1.17719e-09
-2.4395e-09
4.97785e-14
1.50397e-09
-2.82613e-09
5.7698e-14
1.84471e-09
-3.16988e-09
6.92374e-14
2.18305e-09
-3.453e-09
6.40142e-14
2.50341e-09
-3.66522e-09
8.05246e-14
2.79e-09
-3.79837e-09
6.9077e-14
3.03043e-09
9.30075e-14
7.44242e-14
1.01429e-11
-5.67171e-11
1.30415e-15
5.53853e-11
-2.70243e-10
8.2566e-15
1.49411e-10
-5.86204e-10
6.33691e-15
2.99837e-10
-9.7327e-10
2.5084e-14
5.09798e-10
-1.41071e-09
2.89263e-14
7.77194e-10
-1.87501e-09
4.3636e-14
1.09554e-09
-2.34519e-09
5.88287e-14
1.4537e-09
-2.79763e-09
7.24129e-14
1.83562e-09
-3.20797e-09
8.97515e-14
2.22335e-09
-3.55755e-09
8.97358e-14
2.59536e-09
-3.825e-09
1.00799e-13
2.93309e-09
-4.00282e-09
9.31917e-14
-4.08383e-09
1.17691e-13
1.12369e-11
-6.79435e-11
1.8199e-15
6.22743e-11
-3.2127e-10
6.8067e-15
1.69691e-10
-6.93643e-10
1.37668e-14
3.42456e-10
-1.14602e-09
3.32189e-14
5.83333e-10
-1.65161e-09
4.70064e-14
8.90156e-10
-2.18193e-09
5.44176e-14
1.2533e-09
-2.70832e-09
8.23794e-14
1.66052e-09
-3.2049e-09
9.13038e-14
2.09026e-09
-3.63768e-09
1.02341e-13
2.52196e-09
-3.98923e-09
1.21181e-13
2.9275e-09
-4.23052e-09
1.02275e-13
3.28526e-09
-4.36053e-09
1.35711e-13
-4.37212e-09
9.07144e-14
1.55513e-11
-8.34658e-11
5.03366e-15
8.43334e-11
-3.89955e-10
2.21234e-14
2.25779e-10
-8.35116e-10
2.44968e-14
4.48734e-10
-1.36893e-09
5.43957e-14
7.55355e-10
-1.95827e-09
6.59276e-14
1.13903e-09
-2.56575e-09
7.53393e-14
1.58612e-09
-3.15543e-09
1.105e-13
2.07749e-09
-3.69632e-09
1.14205e-13
2.58282e-09
-4.14289e-09
1.58156e-13
3.07373e-09
-4.47997e-09
1.41682e-13
3.51062e-09
-4.66737e-09
1.67797e-13
3.86897e-09
-4.71861e-09
1.29806e-13
-4.62816e-09
1.76588e-13
1.73008e-11
-1.00749e-10
4.69441e-15
9.44866e-11
-4.6704e-10
2.98211e-14
2.54393e-10
-9.95118e-10
3.04704e-14
5.07706e-10
-1.62219e-09
7.88218e-14
8.53359e-10
-2.30406e-09
9.56168e-14
1.28815e-09
-3.00068e-09
1.20167e-13
1.78859e-09
-3.65568e-09
1.69231e-13
2.33912e-09
-4.24713e-09
1.40579e-13
2.89662e-09
-4.70027e-09
1.61111e-13
3.43246e-09
-5.0157e-09
2.10393e-13
3.89319e-09
-5.12803e-09
1.2933e-13
4.25096e-09
-5.0763e-09
2.15315e-13
-4.85653e-09
1.07021e-13
2.43714e-11
-1.25067e-10
1.21119e-14
1.29215e-10
-5.71688e-10
5.59993e-14
3.40447e-10
-1.20646e-09
5.84499e-14
6.66556e-10
-1.94827e-09
1.1513e-13
1.10716e-09
-2.74484e-09
1.1163e-13
1.65023e-09
-3.54377e-09
2.12477e-13
2.27098e-09
-4.27547e-09
3.34897e-13
2.94448e-09
-4.92066e-09
1.65953e-13
3.61315e-09
-5.36879e-09
2.78463e-13
4.23148e-09
-5.63377e-09
1.65199e-13
4.71182e-09
-5.60861e-09
2.45479e-13
5.02581e-09
-5.39007e-09
1.09822e-13
-4.98222e-09
2.70346e-13
2.73973e-11
-1.52187e-10
4.29255e-14
1.42197e-10
-6.86226e-10
8.2481e-14
3.73902e-10
-1.4383e-09
1.02046e-13
7.33953e-10
-2.30825e-09
1.51672e-13
1.21109e-09
-3.22182e-09
2.69426e-13
1.81386e-09
-4.14591e-09
5.94509e-13
2.48103e-09
-4.94248e-09
1.55686e-13
3.21847e-09
-5.65719e-09
4.48112e-13
3.93194e-09
-6.08153e-09
3.31574e-13
4.58228e-09
-6.28404e-09
3.87175e-13
5.05576e-09
-6.08162e-09
2.00313e-13
5.30999e-09
-5.64441e-09
3.41536e-13
-5.01433e-09
1.13737e-13
3.67488e-11
-1.88892e-10
5.40372e-14
1.88361e-10
-8.37375e-10
2.00869e-13
4.83894e-10
-1.73376e-09
3.34277e-14
9.29897e-10
-2.75383e-09
1.1652e-13
1.52147e-09
-3.81229e-09
6.54926e-13
2.24932e-09
-4.86718e-09
3.13184e-12
3.07426e-09
-5.76675e-09
4.03499e-13
4.0037e-09
-6.58575e-09
3.10107e-13
4.93491e-09
-7.01397e-09
4.60788e-13
5.75108e-09
-7.10029e-09
-1.7772e-13
6.20744e-09
-6.53814e-09
7.98184e-13
6.2837e-09
-5.72025e-09
1.90266e-13
-4.77652e-09
4.27486e-13
4.92716e-11
-2.36737e-10
1.91815e-13
1.99768e-10
-9.87098e-10
4.43649e-13
4.88714e-10
-2.0228e-09
3.62354e-14
9.42674e-10
-3.20253e-09
-1.79588e-12
1.53721e-09
-4.40134e-09
1.69983e-12
2.3199e-09
-5.60691e-09
2.08774e-11
3.16032e-09
-6.60562e-09
8.7216e-13
4.10289e-09
-7.52352e-09
4.85743e-13
5.04702e-09
-7.95757e-09
1.17496e-12
5.81257e-09
-7.85878e-09
-2.41812e-12
6.18161e-09
-6.90555e-09
7.47011e-13
6.0307e-09
-5.56944e-09
8.7186e-13
-4.33471e-09
2.68423e-13
3.08546e-11
-2.64937e-10
5.74605e-13
1.8958e-10
-1.14534e-09
5.04054e-13
5.1738e-10
-2.34953e-09
-9.22712e-13
1.06106e-09
-3.74159e-09
-1.014e-12
1.72132e-09
-5.05452e-09
1.92462e-12
2.57807e-09
-6.45768e-09
1.02127e-12
3.42342e-09
-7.45171e-09
1.30754e-12
4.78968e-09
-8.88525e-09
1.87991e-12
6.38238e-09
-9.54919e-09
2.04444e-12
7.72439e-09
-9.19855e-09
2.2589e-12
7.85284e-09
-7.03289e-09
1.06105e-12
7.02393e-09
-4.7405e-09
1.39589e-12
-3.2568e-09
6.94706e-13
1.1679e-11
-2.53323e-10
-1.90565e-12
8.14549e-11
-1.19608e-09
2.28007e-12
2.90911e-10
-2.54939e-09
-6.56989e-12
7.22854e-10
-4.13902e-09
-2.67655e-12
1.46937e-09
-5.74445e-09
1.55568e-11
2.42065e-09
-7.34903e-09
2.03428e-11
3.36074e-09
-8.38285e-09
1.6375e-13
4.54515e-09
-9.9883e-09
2.55158e-11
5.66697e-09
-1.06405e-08
1.56885e-11
6.21286e-09
-9.71209e-09
-7.16086e-12
6.00088e-09
-6.64134e-09
-2.06143e-11
4.8469e-09
-3.5822e-09
1.61266e-13
-2.12621e-09
5.43102e-13
3.9972e-11
-2.05285e-10
1.54841e-13
2.23625e-10
-9.69408e-10
-5.6814e-13
4.1276e-10
-2.11205e-09
-4.09048e-13
7.26296e-10
-3.48023e-09
5.85763e-13
1.20825e-09
-4.9757e-09
6.06813e-10
1.78367e-09
-6.24003e-09
7.8261e-10
9.46301e-10
-7.40833e-09
3.10644e-11
2.8942e-09
-7.51635e-09
1.6306e-10
6.57958e-09
-7.12408e-09
5.10066e-10
9.67781e-09
-5.12397e-09
6.74046e-12
8.58833e-09
1.13898e-10
5.0063e-09
1.90162e-12
-3.34991e-13
1.84033e-11
-1.63288e-10
-5.61885e-14
9.22952e-11
-7.27829e-10
6.08597e-14
2.27295e-10
-1.53636e-09
3.24145e-13
4.42383e-10
-2.48049e-09
-8.40668e-14
7.7969e-10
-3.45961e-09
-3.60082e-13
1.11034e-09
-4.25236e-09
-4.47795e-14
1.35145e-09
-4.74671e-09
-2.84321e-14
1.52387e-09
-4.62367e-09
-5.4945e-13
1.42504e-09
-3.80384e-09
-5.70255e-13
-1.7707e-09
-4.87734e-13
1.47708e-11
-1.42934e-10
-4.5927e-15
6.81455e-11
-5.96755e-10
-6.18085e-14
1.6097e-10
-1.21334e-09
-1.06307e-14
2.91291e-10
-1.91001e-09
-2.1309e-13
4.50167e-10
-2.59027e-09
-1.58427e-13
6.01173e-10
-3.13772e-09
-2.32207e-13
6.82057e-10
-3.39999e-09
-2.64622e-14
6.33038e-10
-3.23812e-09
-1.58123e-13
3.6553e-10
-2.49361e-09
-2.20916e-13
-1.04324e-09
-1.07409e-13
9.71516e-12
-1.35796e-10
-7.10819e-15
4.24126e-11
-5.37682e-10
-6.24728e-15
9.57007e-11
-1.05811e-09
-5.46708e-14
1.6524e-10
-1.62804e-09
-3.92998e-14
2.40146e-10
-2.1712e-09
-1.27456e-13
3.00933e-10
-2.5946e-09
-6.97908e-14
3.20738e-10
-2.78394e-09
-1.21593e-13
2.71424e-10
-2.61962e-09
-6.85328e-14
1.33579e-10
-1.98599e-09
-8.69779e-14
-7.99689e-10
-3.25347e-14
5.31997e-12
-1.36944e-10
-2.40965e-15
2.27339e-11
-5.28218e-10
-1.2409e-14
4.87135e-11
-1.01946e-09
-9.90266e-15
7.86615e-11
-1.54639e-09
-4.09124e-14
1.05635e-10
-2.04203e-09
-2.86494e-14
1.20858e-10
-2.42584e-09
-6.69899e-14
1.14437e-10
-2.60164e-09
-3.74511e-14
7.54697e-11
-2.46184e-09
-5.83361e-14
1.9196e-11
-1.89275e-09
-2.64396e-14
-7.80456e-10
-2.82826e-14
2.49604e-12
-1.3944e-10
-1.15642e-15
9.72729e-12
-5.35449e-10
-4.63996e-15
1.70026e-11
-1.02674e-09
-7.6583e-15
1.94523e-11
-1.54884e-09
-1.67262e-14
1.37505e-11
-2.03633e-09
-1.79307e-14
3.94738e-13
-2.41248e-09
-2.28548e-14
-1.52434e-11
-2.58599e-09
-3.08856e-14
-2.39499e-11
-2.45316e-09
-1.10752e-14
-1.69012e-11
-1.89977e-09
-3.18365e-14
-7.97381e-10
4.68839e-15
1.23996e-13
-1.39564e-10
-5.06947e-16
1.05507e-12
-5.3638e-10
-2.23332e-15
2.35353e-12
-1.02804e-09
-4.66029e-15
3.2531e-12
-1.54974e-09
-6.44398e-15
2.93338e-12
-2.03601e-09
-1.10008e-14
1.12234e-12
-2.41067e-09
-1.04899e-14
-1.35007e-12
-2.58353e-09
-1.12967e-14
-3.27597e-12
-2.45122e-09
-1.38681e-14
-2.93793e-12
-1.90012e-09
-3.96805e-17
-8.00307e-10
-7.0511e-15
-2.33587e-12
-1.37229e-10
-2.15857e-16
-7.92332e-12
-5.30792e-10
-1.02945e-15
-1.36558e-11
-1.02231e-09
-2.21631e-15
-1.678e-11
-1.54661e-09
-4.1297e-15
-1.58157e-11
-2.03697e-09
-3.82465e-15
-1.0695e-11
-2.41579e-09
-6.58046e-15
-2.79324e-12
-2.59143e-09
-5.14282e-15
3.80968e-12
-2.45783e-09
-4.21806e-15
5.02387e-12
-1.90133e-09
-5.96447e-15
-7.95284e-10
1.15306e-15
-5.67962e-12
-1.31549e-10
-6.17598e-17
-1.94549e-11
-5.17016e-10
-4.64804e-16
-3.34434e-11
-1.00832e-09
-1.16581e-15
-4.27694e-11
-1.53729e-09
-1.83133e-15
-4.45615e-11
-2.03518e-09
-2.94102e-15
-3.80169e-11
-2.42234e-09
-1.97636e-15
-2.42194e-11
-2.60523e-09
-3.7226e-15
-8.20311e-12
-2.47384e-09
-2.36809e-15
2.14772e-12
-1.91168e-09
-9.38314e-16
-7.93136e-10
-1.24417e-15
-1.3553e-11
-1.17996e-10
-6.04226e-18
-4.39917e-11
-4.86578e-10
-2.46065e-16
-7.69601e-11
-9.7535e-10
-5.43154e-16
-1.09447e-10
-1.5048e-09
-1.01944e-15
-1.38476e-10
-2.00615e-09
-1.15886e-15
-1.57713e-10
-2.4031e-09
-2.05735e-15
-1.57512e-10
-2.60543e-09
-1.19846e-15
-1.27978e-10
-2.50338e-09
-1.45885e-15
-6.66144e-11
-1.97304e-09
-8.09628e-16
-8.59748e-10
9.25572e-17
-1.78111e-12
-1.16215e-10
3.57544e-18
-2.06049e-11
-4.67754e-10
-1.07046e-16
-7.82601e-11
-9.17694e-10
-3.3623e-16
-1.82522e-10
-1.40054e-09
-5.98649e-16
-3.31183e-10
-1.85749e-09
-1.04679e-15
-5.02312e-10
-2.23197e-09
-7.63878e-16
-6.55359e-10
-2.45238e-09
-1.22763e-15
-7.08068e-10
-2.45066e-09
-3.33991e-16
-5.79275e-10
-2.10183e-09
-4.14495e-16
-1.43902e-09
-3.78921e-16
1.64806e-10
-2.81023e-10
-2.12678e-16
2.8463e-10
-5.8766e-10
-9.98359e-15
1.27952e-10
-7.60855e-10
1.92465e-14
-2.13606e-10
-1.05904e-09
-7.99327e-15
-6.88413e-10
-1.38337e-09
-8.21372e-14
-1.2736e-09
-1.64639e-09
4.4885e-14
-1.93056e-09
-1.79553e-09
-8.76704e-15
-2.60546e-09
-1.77469e-09
1.22945e-13
-2.92842e-09
-1.77838e-09
5.91751e-14
-4.36777e-09
-3.92914e-14
-3.48356e-13
-2.80668e-10
9.92258e-16
1.31508e-11
-6.01268e-10
-1.29957e-14
2.39174e-11
-7.71401e-10
2.72037e-14
4.79597e-12
-1.03965e-09
3.13294e-14
-4.37169e-11
-1.33594e-09
-1.28378e-13
-9.93636e-11
-1.58931e-09
1.72479e-13
-1.27962e-10
-1.76714e-09
-2.71259e-14
-6.2372e-11
-1.84004e-09
2.29841e-14
1.90009e-10
-2.03079e-09
-1.8807e-14
-4.18001e-09
-2.75147e-13
-1.46317e-10
-1.34346e-10
7.73911e-16
-2.59074e-10
-4.88548e-10
-4.61483e-15
-1.36904e-10
-8.93503e-10
8.03376e-15
1.38824e-10
-1.31563e-09
-3.07738e-14
5.30745e-10
-1.72846e-09
-7.04351e-14
1.04424e-09
-2.10225e-09
6.08274e-14
1.63523e-09
-2.35563e-09
3.12001e-13
2.30853e-09
-2.51279e-09
8.16209e-14
2.53918e-09
-2.25987e-09
1.95065e-13
-1.63705e-09
4.3803e-13
4.82734e-12
-1.39157e-10
1.98087e-15
1.06458e-11
-4.94457e-10
-1.08576e-14
3.17119e-11
-9.14484e-10
1.06981e-14
8.1108e-11
-1.36457e-09
5.50837e-14
1.55051e-10
-1.80236e-09
-2.29331e-16
2.44665e-10
-2.19228e-09
-1.03905e-13
3.31915e-10
-2.44443e-09
-5.4939e-14
3.52381e-10
-2.53751e-09
-2.72815e-13
2.66608e-10
-2.17119e-09
6.95214e-13
-1.37456e-09
2.49448e-13
-8.58856e-12
-1.30567e-10
1.47411e-16
-1.78101e-12
-5.01324e-10
-7.38485e-15
4.4322e-11
-9.60436e-10
1.86135e-14
1.32573e-10
-1.45277e-09
-2.94017e-15
2.55041e-10
-1.92445e-09
3.06674e-14
3.83274e-10
-2.3233e-09
1.67513e-14
4.97854e-10
-2.55363e-09
2.94387e-13
5.06728e-10
-2.54305e-09
8.58494e-14
3.93417e-10
-2.06326e-09
-9.42065e-13
-9.78303e-10
-3.84195e-13
1.28583e-12
-1.31838e-10
1.73057e-15
6.89457e-12
-5.07084e-10
-1.82123e-14
1.96601e-11
-9.73052e-10
1.909e-14
3.94875e-11
-1.47195e-09
7.05202e-14
6.37009e-11
-1.94755e-09
1.11421e-13
8.00753e-11
-2.343e-09
-8.86654e-14
9.15707e-11
-2.56246e-09
8.63324e-14
7.30717e-11
-2.52389e-09
-2.49534e-14
3.84233e-11
-2.0306e-09
-2.13378e-13
-9.42288e-10
-3.00978e-13
2.26156e-12
-1.34101e-10
-1.07997e-16
1.25364e-11
-5.17356e-10
3.80746e-17
3.23738e-11
-9.93002e-10
-1.37723e-14
6.09908e-11
-1.50042e-09
1.04319e-14
9.55912e-11
-1.98084e-09
1.39252e-13
1.20479e-10
-2.37047e-09
-1.13344e-15
1.36897e-10
-2.57677e-09
3.23472e-14
1.15251e-10
-2.50328e-09
-1.98448e-13
7.20385e-11
-1.98769e-09
6.99893e-15
-8.69304e-10
1.15788e-13
8.04152e-13
-1.34885e-10
2.4277e-15
3.51961e-12
-5.20252e-10
-2.16188e-14
8.29151e-12
-9.97869e-10
-1.16474e-14
1.50792e-11
-1.50602e-09
1.25631e-13
2.2213e-11
-1.98654e-09
1.79553e-13
2.23776e-11
-2.37345e-09
6.62311e-14
2.37534e-11
-2.57536e-09
1.09782e-13
1.18852e-11
-2.49549e-09
-5.80474e-13
3.30831e-12
-1.9786e-09
7.66102e-14
-8.68458e-10
-2.86913e-13
1.65834e-12
-1.36559e-10
-1.68921e-15
6.78255e-12
-5.25241e-10
1.63039e-14
1.43854e-11
-1.00574e-09
-4.01292e-14
2.32883e-11
-1.51584e-09
-2.01511e-14
3.50445e-11
-1.99614e-09
1.77116e-13
4.15684e-11
-2.37908e-09
-1.62391e-14
4.36587e-11
-2.57635e-09
1.37112e-13
3.38297e-11
-2.48619e-09
-5.14867e-14
1.81666e-11
-1.96568e-09
-3.18125e-13
-8.50992e-10
-8.95008e-14
4.41141e-13
-1.36997e-10
4.52107e-16
1.6416e-12
-5.26425e-10
2.28297e-15
3.10075e-12
-1.00744e-09
-3.66147e-14
4.6784e-12
-1.5177e-09
4.62032e-14
7.88261e-12
-1.99739e-09
1.79537e-13
7.00855e-12
-2.37892e-09
-1.14041e-13
6.40057e-12
-2.5744e-09
1.70785e-13
2.22347e-12
-2.48149e-09
6.36092e-14
-9.86033e-13
-1.96179e-09
7.54041e-14
-8.51595e-10
4.23179e-14
7.1297e-13
-1.37718e-10
-7.33636e-16
2.92125e-12
-5.28556e-10
9.64063e-15
5.89384e-12
-1.01076e-09
-4.99405e-14
9.36832e-12
-1.52152e-09
3.78217e-14
1.47392e-11
-2.00101e-09
1.58674e-13
1.76069e-11
-2.38084e-09
8.71196e-14
1.62153e-11
-2.57486e-09
-2.10473e-13
1.16453e-11
-2.47876e-09
-2.12445e-13
7.21825e-12
-1.95728e-09
-2.94564e-15
-8.46412e-10
-2.39029e-13
8.15899e-14
-1.37807e-10
-5.03137e-16
6.63245e-13
-5.29088e-10
7.00493e-15
1.30461e-12
-1.0118e-09
-5.67708e-14
1.85571e-12
-1.52261e-09
1.56225e-14
4.37916e-12
-2.00173e-09
1.63936e-13
5.08893e-12
-2.38056e-09
9.29792e-14
2.92619e-12
-2.57369e-09
-1.09586e-13
1.61394e-13
-2.47647e-09
-5.10441e-14
-5.37662e-13
-1.95523e-09
1.53003e-13
-8.46948e-10
4.06759e-15
3.68726e-13
-1.38129e-10
4.69144e-15
1.41183e-12
-5.3029e-10
-2.82693e-14
3.52603e-12
-1.01374e-09
2.15044e-14
5.0836e-12
-1.52504e-09
-2.35413e-14
8.92735e-12
-2.00348e-09
2.00714e-13
1.02094e-11
-2.38138e-09
3.20385e-14
8.80462e-12
-2.57259e-09
-3.29742e-14
5.97325e-12
-2.47364e-09
1.9484e-15
3.73398e-12
-1.95126e-09
1.96085e-13
-8.42309e-10
1.05322e-13
1.59183e-13
-1.38247e-10
4.56124e-15
5.62606e-13
-5.31025e-10
-4.74132e-14
1.93063e-12
-1.01494e-09
2.22613e-14
2.51496e-12
-1.52643e-09
-2.33727e-15
5.16437e-12
-2.00414e-09
1.87909e-13
5.62592e-12
-2.38161e-09
2.3694e-15
3.34342e-12
-2.57182e-09
-1.73086e-13
8.84047e-13
-2.4722e-09
-1.16548e-13
-1.71097e-13
-1.94994e-09
2.76265e-14
-8.42942e-10
-5.01947e-14
3.06589e-13
-1.38548e-10
3.01244e-16
1.51148e-12
-5.32209e-10
2.29739e-15
3.51234e-12
-1.01707e-09
-1.82411e-14
5.58555e-12
-1.52876e-09
-4.59237e-14
7.80781e-12
-2.00625e-09
1.20286e-14
9.26267e-12
-2.38188e-09
1.40895e-13
7.61367e-12
-2.5706e-09
-5.0472e-14
5.01487e-12
-2.46948e-09
1.47141e-14
2.62982e-12
-1.94661e-09
1.07118e-13
-8.3991e-10
4.89411e-14
2.64055e-13
-1.38808e-10
4.61894e-16
1.37679e-12
-5.33452e-10
-1.59057e-14
3.36437e-12
-1.01917e-09
-1.35735e-14
5.16318e-12
-1.53084e-09
-3.52276e-14
6.86198e-12
-2.00783e-09
1.37479e-14
7.83195e-12
-2.38178e-09
1.25394e-13
5.25446e-12
-2.56954e-09
-1.75505e-13
2.83326e-12
-2.46701e-09
5.12752e-15
4.50814e-13
-1.94423e-09
-2.00287e-15
-8.39207e-10
2.71385e-14
4.94903e-13
-1.39302e-10
8.77907e-17
2.34209e-12
-5.35354e-10
-6.81662e-15
5.21808e-12
-1.02215e-09
-1.31029e-14
8.2418e-12
-1.53379e-09
9.41955e-15
1.03243e-11
-2.00989e-09
2.0185e-15
1.06038e-11
-2.38224e-09
-2.06745e-14
9.00166e-12
-2.5679e-09
4.84238e-16
5.53249e-12
-2.46437e-09
-9.72894e-14
2.3363e-12
-1.94113e-09
-1.16515e-14
-8.37527e-10
-7.30964e-14
6.52582e-13
-1.39954e-10
3.26161e-17
2.89319e-12
-5.37604e-10
-1.48421e-15
6.03684e-12
-1.02539e-09
-1.18616e-14
8.88333e-12
-1.53676e-09
-1.4899e-14
1.06396e-11
-2.01156e-09
9.77925e-15
1.02781e-11
-2.38213e-09
-2.91867e-14
7.99602e-12
-2.56579e-09
-1.91918e-14
4.59415e-12
-2.46092e-09
5.54717e-15
1.11277e-12
-1.93741e-09
3.07286e-14
-8.35904e-10