/*--------------------------------*- C++ -*----------------------------------*\
| =========                 |                                                 |
| \\      /  F ield         | OpenFOAM: The Open Source CFD Toolbox           |
|  \\    /   O peration     | Version:  v2012                                 |
|   \\  /    A nd           | Website:  www.openfoam.com                      |
|    \\/     M anipulation  |                                                 |
\*---------------------------------------------------------------------------*/
FoamFile
{
    version     2.0;
    format      ascii;
    class       volVectorField;
    location    "0.05";
    object      U;
}
// * * * * * * * * * * * * * * * * * * * * * * * * * * * * * * * * * * * * * //

dimensions      [0 1 -1 0 0 0 0];


internalField   nonuniform List<vector> 
2660
(
(-0.108119 -8.14929 0.00107628)
(0.497166 -10.0688 -0.00425645)
(1.30336 -8.43982 -0.0113321)
(1.17723 -0.980795 -0.0102295)
(0.4711 5.20147 -0.00409911)
(-0.0281247 -9.03591 0.000295118)
(0.552954 -12.4229 -0.00476898)
(0.840202 -10.4808 -0.00731)
(1.3421 -2.41078 -0.0116907)
(0.334266 5.39516 -0.00290352)
(-0.17936 -9.5825 0.00160538)
(0.521015 -14.1245 -0.00450231)
(1.12103 -10.992 -0.00976715)
(1.45082 -2.4664 -0.0126464)
(0.315832 6.21268 -0.00274597)
(-0.0765503 -9.55112 0.000702975)
(0.465684 -15.3043 -0.00403573)
(1.1935 -12.3228 -0.0104016)
(1.17362 -3.54193 -0.0102361)
(0.518948 6.78726 -0.00452927)
(0.236521 -10.0924 -0.00200504)
(0.460625 -16.8521 -0.0039897)
(1.89554 -14.279 -0.0165181)
(1.88822 -3.93253 -0.0164772)
(0.627474 7.24783 -0.00545649)
(0.0957891 -11.7043 -0.000821266)
(0.741409 -19.7226 -0.00644692)
(2.52243 -18.2192 -0.021993)
(2.8759 -10.5612 -0.0251041)
(1.24213 -0.939542 -0.0108146)
(-0.633792 -13.7286 0.00556511)
(-0.301941 -22.0348 0.00266373)
(1.34225 -21.5392 -0.0116826)
(0.531177 -14.2631 -0.00460759)
(2.02382 -4.54784 -0.0176805)
(-0.285437 -15.4385 0.00250948)
(-0.556059 -23.3562 0.00488774)
(1.67684 -22.9492 -0.0146033)
(0.410801 -12.6138 -0.00355919)
(1.18861 -0.772434 -0.0103974)
(0.204073 -16.5757 -0.00176368)
(0.38864 -24.3185 -0.00336598)
(0.938478 -24.0929 -0.00815877)
(0.814492 -13.1406 -0.00708341)
(0.378654 -0.109004 -0.0033057)
(0.0880043 -17.4506 -0.000756709)
(0.0627219 -25.5094 -0.000526167)
(0.773185 -24.9593 -0.00672177)
(0.636487 -13.6962 -0.00553021)
(0.535027 0.509811 -0.0046683)
(0.158511 -18.4458 -0.00136697)
(0.469434 -26.9917 -0.00407067)
(0.945985 -25.3331 -0.00823119)
(0.577698 -13.6621 -0.00501867)
(0.439854 1.77491 -0.00383874)
(0.209904 -19.5858 -0.00181044)
(0.548945 -28.3299 -0.00475673)
(0.65177 -25.8783 -0.00566216)
(0.789124 -13.6447 -0.00686634)
(0.369629 2.35561 -0.00322515)
(0.115689 -20.894 -0.000967444)
(0.636732 -29.2006 -0.00552064)
(0.274767 -26.9412 -0.00237372)
(0.894164 -14.2096 -0.0077854)
(0.470006 3.01247 -0.00411145)
(0.283482 -21.8817 -0.00245494)
(0.364212 -29.3042 -0.00314573)
(0.127283 -27.0576 -0.0010903)
(0.930284 -14.5202 -0.00810465)
(-1.08647e-05 4.74984 3.13917e-06)
(-0.0324202 -22.7347 0.000309044)
(-1.62024 -31.3758 0.0141751)
(-4.03952 -26.9283 0.0352678)
(-1.31554 -14.7475 0.0115)
(-0.00401366 4.16292 5.49264e-05)
(-0.0938297 -23.7393 0.000859293)
(0.326245 -34.0246 -0.00282197)
(-2.80679 -29.2367 0.0244982)
(-3.49136 -16.6175 0.0304812)
(-0.36132 2.69949 0.00320529)
(0.0748162 -24.4512 -0.000610231)
(0.524759 -34.5875 -0.00456015)
(-1.39537 -31.8326 0.0121837)
(-1.03271 -19.2129 0.00901454)
(0.820836 -0.814668 -0.00713583)
(0.342465 -25.8193 -0.00294808)
(0.0238123 -34.974 -0.000183798)
(-0.464763 -33.4863 0.00406364)
(0.673143 -22.0893 -0.0058743)
(1.39573 -5.68334 -0.012173)
(0.240686 -26.972 -0.00208006)
(-0.248183 -35.346 0.00219748)
(0.0202923 -34.5187 -0.000171917)
(0.17646 -23.271 -0.00154176)
(0.314371 -7.43146 -0.00274578)
(-0.408408 -26.5687 0.00358907)
(0.189226 -35.6322 -0.00161789)
(-0.0271703 -34.5761 0.000235957)
(0.176827 -22.9393 -0.0015516)
(0.186772 -6.62596 -0.00163612)
(-0.406796 -25.5487 0.00359698)
(0.405944 -36.1871 -0.00351091)
(-0.18394 -34.5588 0.00160184)
(0.0246157 -23.2376 -0.000226164)
(0.459113 -6.55271 -0.00401745)
(-0.153726 -26.2141 0.00137261)
(0.551847 -36.9564 -0.00478735)
(-0.114973 -34.6492 0.000999537)
(-0.0155747 -23.7204 0.000129214)
(0.92694 -6.28179 -0.00810942)
(-0.302357 -27.563 0.00266719)
(0.586203 -37.2097 -0.00508813)
(0.222855 -34.3387 -0.00194749)
(-0.0835609 -24.2561 0.000728831)
(1.41654 -5.55918 -0.0123846)
(-0.318134 -27.8452 0.00279926)
(0.628572 -37.4646 -0.00546089)
(-0.540307 -35.7034 0.00471395)
(-1.93621 -24.7424 0.0169012)
(1.06747 -4.49015 -0.009318)
(0.0164523 -28.3455 -0.000121303)
(0.272971 -38.3613 -0.00236202)
(0.227187 -37.9195 -0.0019785)
(0.466144 -26.7457 -0.00407217)
(1.5506 -7.46342 -0.0135316)
(0.0323741 -28.7328 -0.000269085)
(-0.0357922 -38.9887 0.000333536)
(0.250444 -38.673 -0.00217839)
(0.403702 -28.4971 -0.00352525)
(0.481965 -10.9384 -0.00420806)
(0.0438302 -28.9315 -0.000353709)
(-0.285031 -39.1964 0.00251047)
(0.221237 -39.1908 -0.00192439)
(0.577248 -29.4231 -0.00503642)
(-0.0191977 -10.8199 0.000163526)
(0.236 -29.1598 -0.00202045)
(-0.055546 -39.4797 0.000505624)
(0.295992 -39.5139 -0.00257862)
(0.605678 -30.056 -0.00528398)
(-0.0494252 -10.7921 0.00043121)
(0.789947 -30.5386 -0.00686291)
(0.467897 -39.726 -0.00406941)
(0.516903 -39.7484 -0.00450773)
(0.480012 -30.0573 -0.00418719)
(-0.0292228 -10.5261 0.000254496)
(1.16738 -33.7883 -0.0101494)
(0.372286 -39.9932 -0.003234)
(0.519163 -40.1668 -0.00452703)
(0.388685 -29.9149 -0.00338938)
(0.0413592 -10.0537 -0.000356305)
(0.920776 -37.2585 -0.00799504)
(0.163926 -40.4913 -0.0014158)
(0.423282 -40.7645 -0.00369046)
(0.388248 -29.9324 -0.00338484)
(0.100549 -9.62712 -0.00087194)
(0.368416 -39.2651 -0.00317303)
(0.0979972 -41.2827 -0.000836301)
(0.294123 -41.3064 -0.00256393)
(0.439947 -30.116 -0.00383584)
(0.0940282 -9.34255 -0.000818902)
(-0.0111507 -40.0471 0.000136583)
(0.322522 -42.1855 -0.00279981)
(0.214736 -41.7027 -0.00187256)
(0.492187 -30.4476 -0.00429251)
(0.0702692 -9.22007 -0.00061341)
(-0.104508 -40.4226 0.000950744)
(0.52455 -43.1292 -0.00456586)
(0.0429922 -42.3344 -0.000375195)
(0.663952 -31.1414 -0.00579286)
(0.36671 -9.20494 -0.00319145)
(-0.0507916 -0.000579981 0.000443348)
(-0.044214 -0.000478239 0.000385943)
(-0.038518 -0.000397689 0.000336226)
(-0.0335646 -0.00033293 0.000292992)
(-0.0292416 -0.00028029 0.000255253)
(-0.025458 -0.000237187 0.000222225)
(-0.0221398 -0.000201615 0.000193263)
(-0.0192255 -0.000171816 0.000167822)
(-0.0166638 -0.000146562 0.000145468)
(-0.0144116 -0.000125568 0.0001258)
(-0.0124324 -0.000107734 0.00010853)
(-0.0106944 -9.21204e-05 9.33539e-05)
(-0.00917014 -7.8818e-05 8.00522e-05)
(-0.0078357 -6.76256e-05 6.84081e-05)
(-0.00666912 -5.80317e-05 5.82178e-05)
(-0.00565059 -4.94447e-05 4.93374e-05)
(-0.00476257 -4.2429e-05 4.15747e-05)
(-0.0039897 -3.67027e-05 3.48227e-05)
(-0.00331638 -3.11072e-05 2.89515e-05)
(-0.00272896 -2.68602e-05 2.38225e-05)
(-0.00221612 -2.34418e-05 1.93502e-05)
(-0.00176657 -2.05289e-05 1.54211e-05)
(-0.00137076 -1.81074e-05 1.19658e-05)
(-0.00102098 -1.60331e-05 8.91395e-06)
(-0.000713238 -1.41385e-05 6.22797e-06)
(-0.000446389 -1.24255e-05 3.89918e-06)
(-0.00022961 -1.01447e-05 2.00483e-06)
(-7.2341e-05 -7.6125e-06 6.29709e-07)
(-2.85433e-06 -3.11443e-06 2.19504e-08)
(-0.119543 -0.00564495 0.00104354)
(-0.104819 -0.00476264 0.00091503)
(-0.0919008 -0.00404129 0.000802264)
(-0.0805332 -0.00344607 0.000703035)
(-0.0705058 -0.00295052 0.000615498)
(-0.061645 -0.00253441 0.000538144)
(-0.0538061 -0.00218217 0.000469718)
(-0.0468672 -0.00188148 0.000409141)
(-0.0407256 -0.00162303 0.000355539)
(-0.0352925 -0.00140038 0.000308099)
(-0.0304918 -0.00120745 0.000266201)
(-0.0262563 -0.00103923 0.000229221)
(-0.0225261 -0.000893052 0.000196663)
(-0.0192489 -0.00076643 0.000168061)
(-0.0163756 -0.000656674 0.000142971)
(-0.0138615 -0.000561333 0.00012104)
(-0.0116662 -0.000479837 0.000101852)
(-0.00975244 -0.000410606 8.51318e-05)
(-0.0080846 -0.000350838 7.05832e-05)
(-0.00662998 -0.000301292 5.78852e-05)
(-0.00535973 -0.000260191 4.68037e-05)
(-0.00424702 -0.000226037 3.70786e-05)
(-0.0032687 -0.000197598 2.85385e-05)
(-0.00240638 -0.000173049 2.10136e-05)
(-0.00165139 -0.000150041 1.44236e-05)
(-0.00100317 -0.000125446 8.76619e-06)
(-0.000485904 -9.48787e-05 4.2457e-06)
(-0.000126666 -5.66664e-05 1.10622e-06)
(1.14871e-05 -1.52766e-05 -1.02201e-07)
(-0.17006 -0.0133184 0.00148452)
(-0.150233 -0.011384 0.00131147)
(-0.132618 -0.00977425 0.0011577)
(-0.116939 -0.00842431 0.00102084)
(-0.102964 -0.00728334 0.000898844)
(-0.0904961 -0.00631144 0.000790006)
(-0.0793694 -0.00547741 0.000692881)
(-0.0694408 -0.00475669 0.000606206)
(-0.060588 -0.0041304 0.000528939)
(-0.0527032 -0.00358393 0.000460098)
(-0.0456922 -0.00310558 0.000398904)
(-0.0394705 -0.00268578 0.000344588)
(-0.0339617 -0.00231774 0.000296504)
(-0.0290976 -0.00199592 0.000254051)
(-0.0248131 -0.00171504 0.000216644)
(-0.0210485 -0.00147075 0.000183796)
(-0.0177483 -0.00125996 0.000154955)
(-0.0148604 -0.0010793 0.000129726)
(-0.0123356 -0.000925029 0.000107698)
(-0.0101274 -0.000795307 8.84234e-05)
(-0.00819395 -0.000686978 7.15536e-05)
(-0.00649668 -0.000596877 5.67212e-05)
(-0.00500229 -0.000521444 4.36762e-05)
(-0.00368443 -0.000455955 3.21753e-05)
(-0.00253094 -0.000393955 2.21069e-05)
(-0.0015426 -0.000326684 1.34807e-05)
(-0.000754805 -0.000243924 6.59628e-06)
(-0.000208112 -0.000140616 1.8198e-06)
(1.30804e-05 -3.34655e-05 -1.06922e-07)
(-0.206278 -0.0222081 0.00180067)
(-0.183546 -0.0192035 0.00160226)
(-0.163108 -0.0166644 0.00142386)
(-0.144717 -0.0145038 0.00126332)
(-0.128157 -0.0126522 0.00111876)
(-0.113244 -0.011054 0.000988585)
(-0.0998197 -0.00966519 0.000871404)
(-0.0877443 -0.00845102 0.00076599)
(-0.0768967 -0.00738441 0.000671311)
(-0.0671679 -0.00644397 0.000586374)
(-0.0584607 -0.00561294 0.000510375)
(-0.0506867 -0.00487773 0.000442508)
(-0.0437639 -0.00422805 0.000382083)
(-0.0376183 -0.00365556 0.000328444)
(-0.0321773 -0.00315266 0.000280943)
(-0.0273736 -0.00271298 0.000239023)
(-0.0231434 -0.00233128 0.000202059)
(-0.0194258 -0.00200235 0.000169583)
(-0.0161626 -0.00172093 0.000141111)
(-0.0132985 -0.0014829 0.000116111)
(-0.0107822 -0.00128319 9.41546e-05)
(-0.00856712 -0.00111642 7.4799e-05)
(-0.00661239 -0.000976058 5.77355e-05)
(-0.00488605 -0.000853415 4.26692e-05)
(-0.00337348 -0.000736557 2.94665e-05)
(-0.00207691 -0.000609658 1.81495e-05)
(-0.00103982 -0.000454723 9.08714e-06)
(-0.000312786 -0.000262919 2.73617e-06)
(5.48169e-06 -6.53208e-05 -2.44401e-08)
(-0.230926 -0.0313635 0.0020158)
(-0.206844 -0.0274045 0.00180561)
(-0.184955 -0.0240126 0.00161456)
(-0.165058 -0.0210877 0.00144088)
(-0.146971 -0.0185486 0.001283)
(-0.13054 -0.0163297 0.00113956)
(-0.115625 -0.0143788 0.00100938)
(-0.102106 -0.0126541 0.000891361)
(-0.0898738 -0.0111232 0.000784595)
(-0.0788286 -0.00976016 0.000688169)
(-0.0688799 -0.00854476 0.000601335)
(-0.0599439 -0.00746078 0.000523326)
(-0.0519411 -0.00649559 0.000453474)
(-0.044798 -0.00563901 0.000391129)
(-0.0384414 -0.00488176 0.000335635)
(-0.0328017 -0.00421597 0.000286416)
(-0.0278122 -0.00363476 0.000242821)
(-0.0234078 -0.00313138 0.000204347)
(-0.0195257 -0.00269907 0.000170473)
(-0.0161052 -0.00233163 0.000140617)
(-0.0130896 -0.00202201 0.000114302)
(-0.0104266 -0.00176231 9.10349e-05)
(-0.00807058 -0.0015426 7.04683e-05)
(-0.00598583 -0.00134953 5.22735e-05)
(-0.00415625 -0.00116475 3.63036e-05)
(-0.00258547 -0.000964142 2.25927e-05)
(-0.00132281 -0.00072088 1.156e-05)
(-0.00042622 -0.000422254 3.72901e-06)
(-5.98182e-06 -0.000113379 9.49773e-08)
(-0.246679 -0.0402611 0.0021533)
(-0.222277 -0.0355145 0.00194032)
(-0.199879 -0.0313964 0.00174482)
(-0.17933 -0.027801 0.00156545)
(-0.160489 -0.024642 0.00140099)
(-0.143232 -0.0218489 0.00125035)
(-0.127448 -0.0193656 0.00111258)
(-0.113038 -0.0171469 0.000986789)
(-0.0999111 -0.0151577 0.000872214)
(-0.0879819 -0.0133701 0.000768074)
(-0.0771717 -0.0117623 0.00067372)
(-0.0674056 -0.0103171 0.000588467)
(-0.0586113 -0.0090209 0.000511706)
(-0.0507203 -0.00786271 0.000442834)
(-0.0436626 -0.00683254 0.00038122)
(-0.0373705 -0.00592173 0.000326305)
(-0.0317781 -0.00512241 0.000277445)
(-0.0268196 -0.00442676 0.000234133)
(-0.0224309 -0.00382679 0.000195837)
(-0.0185487 -0.00331457 0.000161952)
(-0.0151137 -0.0028811 0.000131975)
(-0.0120706 -0.00251588 0.000105389)
(-0.00937081 -0.00220539 8.18217e-05)
(-0.00697655 -0.00193116 6.09252e-05)
(-0.00487102 -0.00166775 4.25465e-05)
(-0.00305919 -0.00138194 2.67313e-05)
(-0.00159454 -0.00103737 1.39345e-05)
(-0.000540679 -0.000617117 4.73077e-06)
(-1.87886e-05 -0.000178378 2.2713e-07)
(-0.255762 -0.0486067 0.00223257)
(-0.231689 -0.0432515 0.00202247)
(-0.209399 -0.0385502 0.00182791)
(-0.188777 -0.0343975 0.00164791)
(-0.169721 -0.0307067 0.00148157)
(-0.152139 -0.0274069 0.0013281)
(-0.135946 -0.0244415 0.00118675)
(-0.121063 -0.0217651 0.00105684)
(-0.107422 -0.0193426 0.000937778)
(-0.0949516 -0.0171461 0.000828915)
(-0.083587 -0.0151543 0.000729723)
(-0.0732644 -0.0133503 0.000639613)
(-0.0639205 -0.011721 0.000558056)
(-0.0554943 -0.0102557 0.000484513)
(-0.0479215 -0.00894479 0.000418402)
(-0.0411386 -0.00777947 0.000359202)
(-0.0350828 -0.00675162 0.000306296)
(-0.0296901 -0.00585284 0.000259194)
(-0.0248973 -0.00507438 0.00021737)
(-0.0206412 -0.00440691 0.000180221)
(-0.0168616 -0.0038397 0.000147236)
(-0.0135022 -0.00335972 0.000117889)
(-0.0105133 -0.00294975 9.17973e-05)
(-0.00785607 -0.00258599 6.86057e-05)
(-0.00551382 -0.00223549 4.81606e-05)
(-0.00349267 -0.00185538 3.0518e-05)
(-0.00184911 -0.00139932 1.61588e-05)
(-0.000651237 -0.000845541 5.69841e-06)
(-3.15337e-05 -0.000259933 3.58481e-07)
(-0.259885 -0.0562615 0.00226854)
(-0.236535 -0.050468 0.00206475)
(-0.214742 -0.045324 0.00187454)
(-0.194429 -0.0407288 0.00169724)
(-0.175526 -0.0365992 0.00153224)
(-0.157969 -0.0328674 0.00137898)
(-0.141696 -0.0294789 0.00123694)
(-0.126653 -0.0263908 0.00110563)
(-0.112785 -0.02357 0.000984592)
(-0.10004 -0.0209906 0.000873329)
(-0.0883642 -0.0186332 0.000771426)
(-0.0777064 -0.0164828 0.00067839)
(-0.0680124 -0.0145276 0.000593779)
(-0.0592297 -0.0127587 0.000517123)
(-0.0513004 -0.0111671 0.000447901)
(-0.0441668 -0.00974507 0.000385638)
(-0.0377703 -0.00848471 0.000329758)
(-0.0320505 -0.00737765 0.0002798)
(-0.0269464 -0.00641478 0.00023526)
(-0.0223966 -0.00558581 0.000195548)
(-0.0183418 -0.00487849 0.000160159)
(-0.0147258 -0.00427745 0.000128573)
(-0.0114992 -0.00376182 0.000100406)
(-0.00862323 -0.00330233 7.53048e-05)
(-0.00608162 -0.00285836 5.31195e-05)
(-0.00388161 -0.00237707 3.39154e-05)
(-0.0020819 -0.00180177 1.81928e-05)
(-0.000754379 -0.0011049 6.60116e-06)
(-4.34243e-05 -0.000357279 4.81283e-07)
(-0.260324 -0.0631781 0.00227237)
(-0.237926 -0.0571006 0.00207688)
(-0.216868 -0.0516432 0.00189308)
(-0.197106 -0.0467134 0.0017206)
(-0.178599 -0.0422346 0.00155905)
(-0.161306 -0.0381445 0.0014081)
(-0.145189 -0.0343934 0.00126743)
(-0.130209 -0.0309425 0.00113667)
(-0.116331 -0.0277626 0.00101554)
(-0.103514 -0.0248314 0.000903659)
(-0.0917186 -0.0221325 0.000800706)
(-0.0809023 -0.0196539 0.000706289)
(-0.0710211 -0.0173863 0.000620043)
(-0.06203 -0.0153228 0.000541569)
(-0.0538783 -0.0134566 0.000470406)
(-0.0465142 -0.0117809 0.000406131)
(-0.0398843 -0.010289 0.000348212)
(-0.033932 -0.00897295 0.000296226)
(-0.0286001 -0.00782375 0.000249697)
(-0.0238296 -0.00683047 0.000208059)
(-0.0195632 -0.00597969 0.000170823)
(-0.0157463 -0.00525384 0.000137482)
(-0.0123303 -0.00462855 0.000107663)
(-0.00927731 -0.00406913 8.10164e-05)
(-0.00657196 -0.0035272 5.74018e-05)
(-0.00422247 -0.00293983 3.68927e-05)
(-0.00228922 -0.00223963 2.00043e-05)
(-0.000847502 -0.00139215 7.41625e-06)
(-5.4016e-05 -0.000469125 5.91035e-07)
(-0.258025 -0.0693619 0.00225228)
(-0.236699 -0.0631361 0.00206616)
(-0.216513 -0.0574807 0.00188997)
(-0.197451 -0.0523138 0.0017236)
(-0.179496 -0.047568 0.00156687)
(-0.162628 -0.0431884 0.00141964)
(-0.146828 -0.0391322 0.00128173)
(-0.132075 -0.0353665 0.00115295)
(-0.118345 -0.0318671 0.00103312)
(-0.10561 -0.0286166 0.000921951)
(-0.0938417 -0.0256027 0.000819237)
(-0.0830069 -0.022817 0.000724659)
(-0.0730696 -0.0202538 0.000637924)
(-0.0639922 -0.0179088 0.000558697)
(-0.0557305 -0.0157775 0.000486574)
(-0.0482384 -0.0138551 0.000421182)
(-0.0414677 -0.0121363 0.000362035)
(-0.0353663 -0.0106141 0.000308748)
(-0.0298809 -0.00927974 0.000260879)
(-0.0249557 -0.00812217 0.00021789)
(-0.020536 -0.00712702 0.000179316)
(-0.0165695 -0.00627482 0.000144669)
(-0.0130091 -0.00553779 0.00011359)
(-0.00981856 -0.00487599 8.57426e-05)
(-0.00698332 -0.00423331 6.09943e-05)
(-0.00451266 -0.00353669 3.94274e-05)
(-0.00246832 -0.00270775 2.15691e-05)
(-0.00092876 -0.00170386 8.12749e-06)
(-6.30633e-05 -0.000593811 6.85178e-07)
(-0.253688 -0.0748467 0.00221441)
(-0.233487 -0.0685909 0.00203811)
(-0.214244 -0.0628383 0.00187016)
(-0.195967 -0.0575203 0.00171063)
(-0.178659 -0.0525805 0.00155956)
(-0.162322 -0.0479736 0.00141695)
(-0.14695 -0.043665 0.00128279)
(-0.132536 -0.0396289 0.00115697)
(-0.119069 -0.0358478 0.00103944)
(-0.106532 -0.0323097 0.000929996)
(-0.0949039 -0.0290074 0.000828507)
(-0.0841603 -0.0259371 0.000734725)
(-0.074272 -0.0230966 0.00064842)
(-0.065208 -0.0204852 0.000569309)
(-0.0569296 -0.0181009 0.000497041)
(-0.0493961 -0.0159414 0.000431287)
(-0.0425643 -0.0140029 0.000371607)
(-0.0363864 -0.0122796 0.000317653)
(-0.0308131 -0.0107638 0.000269017)
(-0.0257923 -0.00944415 0.000225193)
(-0.0212721 -0.00830578 0.000185743)
(-0.0172031 -0.00732746 0.000150201)
(-0.0135402 -0.00647829 0.000118227)
(-0.0102488 -0.00571317 8.9499e-05)
(-0.00731558 -0.00496843 6.38958e-05)
(-0.00475087 -0.00416091 4.15079e-05)
(-0.00261753 -0.0032009 2.28727e-05)
(-0.000997023 -0.00203634 8.725e-06)
(-7.04608e-05 -0.00072946 7.62552e-07)
(-0.247836 -0.0796812 0.00216332)
(-0.228771 -0.0734971 0.00199693)
(-0.210498 -0.0677347 0.00183745)
(-0.193049 -0.0623403 0.00168515)
(-0.176444 -0.0572704 0.00154022)
(-0.160702 -0.0524908 0.00140281)
(-0.145831 -0.0479765 0.00127301)
(-0.131835 -0.0437102 0.00115085)
(-0.118715 -0.0396819 0.00103634)
(-0.10646 -0.035886 0.000929361)
(-0.0950577 -0.0323211 0.000829846)
(-0.0844904 -0.028988 0.000737604)
(-0.0747346 -0.0258891 0.000652455)
(-0.0657644 -0.0230272 0.000574163)
(-0.0575461 -0.0204034 0.000502421)
(-0.0500438 -0.0180177 0.000436939)
(-0.0432185 -0.0158684 0.000377318)
(-0.0370268 -0.0139513 0.000323244)
(-0.0314232 -0.0122593 0.000274342)
(-0.026359 -0.0107816 0.00023014)
(-0.0217859 -0.00950273 0.000190227)
(-0.0176569 -0.00840006 0.000154164)
(-0.0139298 -0.0074397 0.000121628)
(-0.0105715 -0.00657163 9.23168e-05)
(-0.00757025 -0.0057248 6.61196e-05)
(-0.00493721 -0.00480598 4.31352e-05)
(-0.00273628 -0.00371392 2.39102e-05)
(-0.00105183 -0.00238578 9.20478e-06)
(-7.62088e-05 -0.000874082 8.2306e-07)
(-0.240866 -0.083921 0.00210247)
(-0.222919 -0.0778956 0.00194584)
(-0.205617 -0.0721981 0.00179483)
(-0.18901 -0.0667914 0.00164988)
(-0.173136 -0.0616464 0.00151133)
(-0.158026 -0.0567414 0.00137944)
(-0.143702 -0.0520621 0.00125442)
(-0.130177 -0.0476011 0.00113637)
(-0.117461 -0.0433564 0.00102538)
(-0.10555 -0.0393297 0.000921416)
(-0.0944385 -0.0355258 0.000824437)
(-0.0841131 -0.031951 0.000734307)
(-0.0745552 -0.0286121 0.000650887)
(-0.0657434 -0.0255157 0.000573978)
(-0.057648 -0.0226663 0.000503309)
(-0.0502371 -0.0200663 0.000438624)
(-0.0434754 -0.0177163 0.000379559)
(-0.0373234 -0.0156135 0.000325832)
(-0.0317391 -0.0137521 0.0002771)
(-0.0266775 -0.0121215 0.000232921)
(-0.0220934 -0.0107062 0.000192911)
(-0.0179429 -0.00948206 0.000156661)
(-0.0141861 -0.00841261 0.000123866)
(-0.010792 -0.00744307 9.42425e-05)
(-0.00775035 -0.00649518 6.76923e-05)
(-0.00507307 -0.00546577 4.43217e-05)
(-0.00282503 -0.00424175 2.46856e-05)
(-0.00109331 -0.00274833 9.56787e-06)
(-8.03827e-05 -0.00102568 8.67391e-07)
(-0.233078 -0.0876238 0.00203448)
(-0.216214 -0.0818305 0.00188731)
(-0.199866 -0.0762612 0.00174462)
(-0.184097 -0.0708966 0.00160699)
(-0.168961 -0.0657232 0.00147489)
(-0.154503 -0.060733 0.00134868)
(-0.140752 -0.0559238 0.00122867)
(-0.127734 -0.0512985 0.00111504)
(-0.115461 -0.0468645 0.00100793)
(-0.10394 -0.0426311 0.000907353)
(-0.0931662 -0.0386098 0.000813327)
(-0.0831327 -0.0348127 0.000725745)
(-0.0738239 -0.0312512 0.0006445)
(-0.0652218 -0.0279361 0.000569422)
(-0.0573 -0.0248748 0.000500268)
(-0.0500298 -0.0220728 0.000436812)
(-0.0433794 -0.0195327 0.000378719)
(-0.0373123 -0.0172533 0.000325734)
(-0.03179 -0.0152299 0.000277543)
(-0.0267708 -0.0134527 0.000233734)
(-0.0222126 -0.0119058 0.000193951)
(-0.0180744 -0.0105641 0.000157808)
(-0.0143189 -0.00938858 0.000125025)
(-0.0109171 -0.00831994 9.53345e-05)
(-0.0078602 -0.00727292 6.86513e-05)
(-0.00516095 -0.00613451 4.5089e-05)
(-0.00288504 -0.00477958 2.52099e-05)
(-0.00112202 -0.00312026 9.81922e-06)
(-8.31108e-05 -0.00118233 8.96785e-07)
(-0.224704 -0.0908471 0.00196138)
(-0.208878 -0.0853469 0.00182327)
(-0.193453 -0.0799586 0.00168864)
(-0.178507 -0.0746816 0.00155819)
(-0.164105 -0.0695189 0.00143249)
(-0.150303 -0.0644773 0.00131202)
(-0.137141 -0.0595677 0.00119714)
(-0.124649 -0.0548042 0.00108811)
(-0.112848 -0.0502041 0.000985109)
(-0.101746 -0.0457851 0.000888203)
(-0.0913462 -0.0415657 0.000797435)
(-0.0816422 -0.037564 0.000712731)
(-0.072622 -0.0337961 0.000634004)
(-0.06427 -0.0302771 0.00056111)
(-0.0565625 -0.0270176 0.000493827)
(-0.0494733 -0.0240258 0.000431951)
(-0.0429732 -0.0213063 0.000375172)
(-0.0370289 -0.0188597 0.00032326)
(-0.0316048 -0.0166825 0.000275925)
(-0.026662 -0.0147655 0.000232784)
(-0.0221617 -0.0130927 0.000193506)
(-0.0180655 -0.011638 0.000157731)
(-0.0143387 -0.0103601 0.000125198)
(-0.0109544 -0.00919545 9.56597e-05)
(-0.00790498 -0.00805196 6.9042e-05)
(-0.00520411 -0.00680689 4.54657e-05)
(-0.00291818 -0.00532286 2.54994e-05)
(-0.00113885 -0.00349806 9.96653e-06)
(-8.45524e-05 -0.00134221 9.12806e-07)
(-0.215922 -0.0936469 0.00188471)
(-0.201082 -0.0884894 0.00175521)
(-0.186543 -0.0833251 0.00162831)
(-0.172395 -0.0781727 0.00150484)
(-0.158716 -0.0730528 0.00138544)
(-0.145567 -0.0679877 0.00127067)
(-0.132998 -0.0630022 0.00116097)
(-0.121044 -0.0581224 0.00105663)
(-0.109731 -0.0533761 0.000957898)
(-0.0990715 -0.0487897 0.00086485)
(-0.0890701 -0.0443892 0.000777563)
(-0.0797238 -0.0401988 0.000695981)
(-0.0710224 -0.0362396 0.000620037)
(-0.062952 -0.0325307 0.000549601)
(-0.0554909 -0.029086 0.00048447)
(-0.0486151 -0.0259162 0.000424457)
(-0.0422976 -0.0230282 0.000369273)
(-0.0365074 -0.0204241 0.000318707)
(-0.0312117 -0.0181015 0.000272493)
(-0.0263743 -0.0160518 0.000230271)
(-0.0219592 -0.0142592 0.000191738)
(-0.0179309 -0.0126967 0.000156555)
(-0.0142568 -0.0113207 0.000124483)
(-0.010912 -0.0100636 9.52896e-05)
(-0.00789044 -0.00882684 6.89147e-05)
(-0.00520635 -0.00747806 4.54849e-05)
(-0.00292668 -0.00586742 2.55736e-05)
(-0.00114485 -0.00387842 1.00192e-05)
(-8.48798e-05 -0.00150367 9.17174e-07)
(-0.206868 -0.0960766 0.00180568)
(-0.192958 -0.0913008 0.00168429)
(-0.179265 -0.0863945 0.00156478)
(-0.165887 -0.0813963 0.00144803)
(-0.152912 -0.0763447 0.00133478)
(-0.140408 -0.0712785 0.00122564)
(-0.12843 -0.0662369 0.0011211)
(-0.11702 -0.0612589 0.0010215)
(-0.106205 -0.0563829 0.000927118)
(-0.0960025 -0.0516449 0.000838057)
(-0.0864178 -0.0470783 0.000754407)
(-0.0774499 -0.0427135 0.000676128)
(-0.06909 -0.0385767 0.000603165)
(-0.0613255 -0.0346909 0.000535399)
(-0.0541362 -0.0310734 0.000472641)
(-0.0474996 -0.0277372 0.000414716)
(-0.0413905 -0.0246913 0.000361353)
(-0.03578 -0.0219392 0.000312356)
(-0.0306377 -0.0194797 0.000267481)
(-0.0259301 -0.0173048 0.000226392)
(-0.0216234 -0.0153988 0.000188805)
(-0.0176849 -0.0137339 0.000154407)
(-0.0140842 -0.0122644 0.000122976)
(-0.0107985 -0.010919 9.42976e-05)
(-0.00782262 -0.00959271 6.83222e-05)
(-0.00517173 -0.00814362 4.51822e-05)
(-0.00291302 -0.00640945 2.54541e-05)
(-0.00114123 -0.00425838 9.98747e-06)
(-8.42666e-05 -0.00166522 9.1163e-07)
(-0.197651 -0.0981872 0.00172523)
(-0.184614 -0.0938219 0.00161146)
(-0.171723 -0.0891992 0.00149895)
(-0.159085 -0.0843774 0.00138865)
(-0.146792 -0.0794137 0.00128135)
(-0.134921 -0.0743637 0.00117773)
(-0.123529 -0.0692818 0.00107831)
(-0.112662 -0.0642201 0.00098346)
(-0.102352 -0.0592284 0.000893474)
(-0.0926145 -0.0543521 0.000808479)
(-0.0834588 -0.0496324 0.000728573)
(-0.0748842 -0.045106 0.000653728)
(-0.0668827 -0.0408041 0.000583893)
(-0.0594425 -0.0367537 0.000518957)
(-0.0525444 -0.0329749 0.000458741)
(-0.0461671 -0.0294834 0.000403081)
(-0.040287 -0.0262899 0.000351718)
(-0.034877 -0.0233993 0.000304472)
(-0.0299085 -0.0208114 0.000261115)
(-0.0253506 -0.018519 0.000221332)
(-0.0211718 -0.0165061 0.000184861)
(-0.0173416 -0.0147445 0.000151409)
(-0.0138321 -0.0131865 0.000120775)
(-0.0106221 -0.0117571 9.27573e-05)
(-0.00770767 -0.0103453 6.73179e-05)
(-0.00510444 -0.0087997 4.45941e-05)
(-0.00287975 -0.00694552 2.51634e-05)
(-0.00112918 -0.00463526 9.88205e-06)
(-8.28798e-05 -0.00182557 8.97869e-07)
(-0.188355 -0.100026 0.00164408)
(-0.176134 -0.0960912 0.00153743)
(-0.164001 -0.0917696 0.00143155)
(-0.15207 -0.0871399 0.00132741)
(-0.140438 -0.082278 0.00122588)
(-0.129184 -0.077257 0.00112765)
(-0.11837 -0.0721467 0.00103328)
(-0.108045 -0.0670128 0.000943148)
(-0.0982392 -0.0619167 0.000857572)
(-0.088973 -0.0569134 0.000776687)
(-0.0802543 -0.052052 0.000700596)
(-0.0720831 -0.0473755 0.000629273)
(-0.064452 -0.0429199 0.000562671)
(-0.0573495 -0.0387161 0.000500684)
(-0.0507572 -0.0347872 0.000443138)
(-0.0446547 -0.031151 0.000389876)
(-0.0390196 -0.0278198 0.000340653)
(-0.0338262 -0.0248 0.000295299)
(-0.0290481 -0.0220922 0.000253602)
(-0.024656 -0.0196897 0.000215267)
(-0.020621 -0.0175766 0.000180051)
(-0.0169147 -0.0157241 0.000147682)
(-0.0135113 -0.0140828 0.000117973)
(-0.0103912 -0.012574 9.07409e-05)
(-0.00755166 -0.0110808 6.59552e-05)
(-0.0050087 -0.00944284 4.37575e-05)
(-0.00282948 -0.00747263 2.4724e-05)
(-0.00110992 -0.0050067 9.71357e-06)
(-8.08766e-05 -0.0019836 8.77493e-07)
(-0.179047 -0.101638 0.00156283)
(-0.167586 -0.0981441 0.00146282)
(-0.156169 -0.0941339 0.00136318)
(-0.144913 -0.0897057 0.00126493)
(-0.133917 -0.0849545 0.00116896)
(-0.123265 -0.079971 0.00107598)
(-0.11302 -0.0748409 0.000986567)
(-0.10323 -0.0696435 0.000901117)
(-0.0939288 -0.0644522 0.000819943)
(-0.0851354 -0.0593315 0.000743186)
(-0.0768581 -0.0543384 0.000670947)
(-0.0690969 -0.049522 0.000603202)
(-0.0618443 -0.0449233 0.000539904)
(-0.0550889 -0.0405767 0.000480946)
(-0.0488129 -0.0365081 0.000426162)
(-0.0429965 -0.0327372 0.000375397)
(-0.0376182 -0.029278 0.000328418)
(-0.032654 -0.0261379 0.000285065)
(-0.0280788 -0.0233185 0.000245139)
(-0.0238654 -0.0208133 0.000208364)
(-0.0199869 -0.0186068 0.000174515)
(-0.0164172 -0.0166692 0.000143338)
(-0.0131321 -0.0149497 0.000114662)
(-0.0101139 -0.0133662 8.83187e-05)
(-0.00736058 -0.0117962 6.42861e-05)
(-0.00488866 -0.0100701 4.27086e-05)
(-0.00276477 -0.00798813 2.41585e-05)
(-0.00108466 -0.00537069 9.49248e-06)
(-7.84034e-05 -0.00213837 8.52004e-07)
(-0.169779 -0.103062 0.00148194)
(-0.159027 -0.100013 0.0013881)
(-0.148284 -0.0963178 0.00129435)
(-0.137671 -0.0920948 0.00120172)
(-0.127289 -0.0874585 0.00111111)
(-0.117222 -0.0825173 0.00102324)
(-0.107535 -0.0773729 0.000938686)
(-0.0982743 -0.0721185 0.000857858)
(-0.0894744 -0.0668392 0.000781057)
(-0.0811533 -0.0616092 0.000708423)
(-0.0733191 -0.0564932 0.00064005)
(-0.0659711 -0.0515463 0.000575912)
(-0.0591015 -0.0468142 0.000515958)
(-0.0526992 -0.0423347 0.000460081)
(-0.0467462 -0.0381362 0.000408117)
(-0.0412235 -0.0342403 0.000359917)
(-0.0361106 -0.0306623 0.000315256)
(-0.0313844 -0.0274107 0.000273981)
(-0.0270216 -0.0244877 0.000235909)
(-0.0229966 -0.0218872 0.000200779)
(-0.0192846 -0.0195937 0.000168382)
(-0.0158613 -0.017577 0.000138484)
(-0.0127044 -0.0157844 0.000110928)
(-0.00979778 -0.014131 8.55583e-05)
(-0.0071402 -0.0124886 6.23612e-05)
(-0.00474837 -0.0106789 4.14828e-05)
(-0.00268811 -0.00848979 2.34886e-05)
(-0.00105454 -0.00572551 9.22889e-06)
(-7.55965e-05 -0.0022891 8.22811e-07)
(-0.160597 -0.104337 0.00140179)
(-0.150503 -0.101728 0.0013137)
(-0.140395 -0.0983443 0.00122549)
(-0.130396 -0.0943251 0.00113822)
(-0.120606 -0.0898036 0.00105277)
(-0.111108 -0.0849063 0.00096987)
(-0.101967 -0.0797505 0.000890085)
(-0.0932285 -0.0744436 0.000813811)
(-0.0849249 -0.069082 0.000741341)
(-0.0770735 -0.0637496 0.000672806)
(-0.0696812 -0.0585185 0.000608292)
(-0.0627469 -0.0534497 0.000547765)
(-0.0562622 -0.0485932 0.000491169)
(-0.0502154 -0.0439901 0.000438397)
(-0.0445892 -0.039671 0.000389284)
(-0.0393648 -0.0356593 0.000343688)
(-0.0345224 -0.0319715 0.00030139)
(-0.0300402 -0.0286168 0.000262246)
(-0.0258961 -0.0255979 0.000226083)
(-0.0220666 -0.0229093 0.000192658)
(-0.0185283 -0.0205353 0.000161778)
(-0.0152588 -0.0184451 0.000133224)
(-0.0122378 -0.0165847 0.000106853)
(-0.00945037 -0.0148662 8.25244e-05)
(-0.00689609 -0.0131559 6.02291e-05)
(-0.00459172 -0.0112672 4.01142e-05)
(-0.00260192 -0.00897576 2.27355e-05)
(-0.00102067 -0.00606977 8.93246e-06)
(-7.25831e-05 -0.00243522 7.91227e-07)
(-0.151538 -0.105493 0.00132272)
(-0.142055 -0.103313 0.00123997)
(-0.132548 -0.100233 0.00115699)
(-0.123135 -0.096412 0.00107483)
(-0.113915 -0.0920018 0.000994367)
(-0.104971 -0.0871469 0.0009163)
(-0.0963645 -0.0819807 0.000841179)
(-0.0881391 -0.076624 0.000769384)
(-0.0803254 -0.0711846 0.000701189)
(-0.072939 -0.0657557 0.000636713)
(-0.0659856 -0.0604166 0.000576029)
(-0.0594628 -0.0552339 0.000519094)
(-0.0533617 -0.0502615 0.000465847)
(-0.0476705 -0.0455436 0.000416178)
(-0.0423716 -0.0411129 0.000369923)
(-0.037447 -0.0369942 0.000326944)
(-0.0328775 -0.0332051 0.000287029)
(-0.0286424 -0.0297553 0.000250043)
(-0.0247209 -0.0266482 0.000215822)
(-0.021091 -0.0238783 0.00018414)
(-0.0177312 -0.02143 0.000154818)
(-0.0146208 -0.0192721 0.000127653)