/*--------------------------------*- C++ -*----------------------------------*\
| =========                 |                                                 |
| \\      /  F ield         | OpenFOAM: The Open Source CFD Toolbox           |
|  \\    /   O peration     | Version:  v2012                                 |
|   \\  /    A nd           | Website:  www.openfoam.com                      |
|    \\/     M anipulation  |                                                 |
\*---------------------------------------------------------------------------*/
FoamFile
{
    version     2.0;
    format      ascii;
    class       surfaceScalarField;
    location    "0.35";
    object      phi;
}
// * * * * * * * * * * * * * * * * * * * * * * * * * * * * * * * * * * * * * //

dimensions      [0 3 -1 0 0 0 0];
oriented        oriented;


internalField   nonuniform List<scalar> 
6514
(
1.04035e-10
-2.27256e-10
7.06405e-17
1.0915e-10
-2.33915e-10
1.06189e-16
1.13625e-10
-2.39353e-10
1.0591e-16
1.17385e-10
-2.43512e-10
1.50251e-16
1.20368e-10
-2.46338e-10
1.51935e-16
1.22527e-10
-2.47871e-10
1.69564e-16
1.23835e-10
-2.48085e-10
1.69451e-16
1.24278e-10
-2.47052e-10
1.74548e-16
1.23866e-10
-2.44837e-10
1.76261e-16
1.2262e-10
-2.41517e-10
1.62969e-16
1.20577e-10
-2.37196e-10
1.44381e-16
1.17789e-10
-2.31982e-10
1.21318e-16
1.14315e-10
-2.25998e-10
1.01689e-16
1.10224e-10
-2.19352e-10
8.0988e-17
1.05594e-10
-2.12166e-10
6.30472e-17
1.00501e-10
-2.04542e-10
4.43888e-17
9.50275e-11
-1.96539e-10
2.81625e-17
8.92482e-11
-1.88349e-10
1.30476e-17
8.32436e-11
-1.7992e-10
7.78321e-19
7.7084e-11
-1.71409e-10
-8.89379e-18
7.08398e-11
-1.62779e-10
-1.59717e-17
6.45761e-11
-1.54059e-10
-2.14136e-17
5.83474e-11
-1.45351e-10
-2.61822e-17
5.22111e-11
-1.36512e-10
-2.8796e-17
4.62134e-11
-1.27617e-10
-2.0211e-17
4.03996e-11
-1.18583e-10
-1.85346e-17
3.48099e-11
-1.09395e-10
-1.75326e-17
2.94795e-11
-1.00043e-10
-1.32836e-17
2.44447e-11
-9.04554e-11
-8.34727e-18
1.9738e-11
-8.06716e-11
-1.41099e-18
1.53914e-11
-7.07531e-11
4.5234e-18
1.14394e-11
-6.08003e-11
1.17369e-17
7.92169e-12
-5.09654e-11
1.85651e-17
4.89164e-12
-4.13474e-11
2.59073e-17
2.43609e-12
-3.17097e-11
3.19367e-17
7.09918e-13
-2.11636e-11
3.61588e-17
-7.97463e-12
3.37207e-17
1.09992e-10
-2.3294e-10
3.69466e-17
1.15051e-10
-2.38973e-10
6.14457e-17
1.19396e-10
-2.43698e-10
9.11283e-17
1.22955e-10
-2.47071e-10
1.13446e-16
1.25672e-10
-2.49054e-10
1.3051e-16
1.27508e-10
-2.49706e-10
1.39746e-16
1.28444e-10
-2.49019e-10
1.38656e-16
1.28479e-10
-2.47086e-10
1.42452e-16
1.2763e-10
-2.43987e-10
1.39704e-16
1.25932e-10
-2.39817e-10
1.28976e-16
1.23432e-10
-2.34695e-10
1.13296e-16
1.20191e-10
-2.2874e-10
9.54209e-17
1.1628e-10
-2.22086e-10
7.85204e-17
1.11774e-10
-2.14846e-10
6.22344e-17
1.06756e-10
-2.07147e-10
4.72138e-17
1.0131e-10
-1.99095e-10
3.2019e-17
9.55193e-11
-1.90747e-10
1.81853e-17
8.94624e-11
-1.82292e-10
5.46535e-18
8.322e-11
-1.73677e-10
-4.83436e-18
7.68621e-11
-1.65051e-10
-1.27953e-17
7.04581e-11
-1.56375e-10
-1.83011e-17
6.40712e-11
-1.47672e-10
-2.24922e-17
5.77535e-11
-1.39033e-10
-2.60291e-17
5.15596e-11
-1.30318e-10
-2.76316e-17
4.5533e-11
-1.2159e-10
-1.98753e-17
3.97158e-11
-1.12766e-10
-1.78623e-17
3.41454e-11
-1.03825e-10
-1.55872e-17
2.88541e-11
-9.47513e-11
-1.1626e-17
2.38751e-11
-8.54763e-11
-5.99771e-18
1.9238e-11
-7.60345e-11
5.14894e-19
1.49716e-11
-6.64866e-11
6.62293e-18
1.11068e-11
-5.69353e-11
1.29936e-17
7.67867e-12
-4.7537e-11
1.96754e-17
4.73517e-12
-3.84035e-11
2.58847e-17
2.35576e-12
-2.93299e-11
3.15649e-17
6.85933e-13
-1.94932e-11
3.54224e-17
-7.28812e-12
3.18207e-17
1.16261e-10
-2.38605e-10
4.47771e-17
1.21219e-10
-2.43931e-10
7.84612e-17
1.25385e-10
-2.47863e-10
9.44523e-17
1.28691e-10
-2.50376e-10
1.22858e-16
1.31088e-10
-2.5145e-10
1.27962e-16
1.32548e-10
-2.51165e-10
1.31799e-16
1.33062e-10
-2.49532e-10
1.2834e-16
1.3264e-10
-2.46663e-10
1.24235e-16
1.31312e-10
-2.42658e-10
1.21216e-16
1.29125e-10
-2.37629e-10
1.0779e-16
1.26137e-10
-2.31706e-10
9.51764e-17
1.2242e-10
-2.25022e-10
7.83488e-17
1.18053e-10
-2.17718e-10
6.4644e-17
1.1312e-10
-2.09913e-10
4.9914e-17
1.0771e-10
-2.01737e-10
3.72143e-17
1.01909e-10
-1.93294e-10
2.37259e-17
9.58061e-11
-1.84643e-10
1.14059e-17
8.94791e-11
-1.75966e-10
5.35495e-20
8.30094e-11
-1.67207e-10
-9.22256e-18
7.64659e-11
-1.58508e-10
-1.60289e-17
6.99162e-11
-1.49826e-10
-2.06534e-17
6.34211e-11
-1.41176e-10
-2.38457e-17
5.70296e-11
-1.32642e-10
-2.64249e-17
5.07935e-11
-1.24082e-10
-2.72679e-17
4.47527e-11
-1.1555e-10
-1.99669e-17
3.89463e-11
-1.0696e-10
-1.67924e-17
3.34083e-11
-9.8287e-11
-1.43876e-17
2.81682e-11
-8.95113e-11
-9.48873e-18
2.3256e-11
-8.0564e-11
-4.01717e-18
1.86985e-11
-7.14768e-11
2.95685e-18
1.45213e-11
-6.23093e-11
8.79746e-18
1.07514e-11
-5.31652e-11
1.51931e-17
7.41981e-12
-4.42052e-11
2.11483e-17
4.56866e-12
-3.5552e-11
2.70403e-17
2.27015e-12
-2.70309e-11
3.1993e-17
6.60238e-13
-1.78828e-11
3.51005e-17
-6.62737e-12
3.1626e-17
1.22847e-10
-2.44205e-10
-2.11918e-17
1.27652e-10
-2.48736e-10
3.87246e-17
1.31582e-10
-2.51793e-10
5.60629e-17
1.34576e-10
-2.5337e-10
9.09828e-17
1.36595e-10
-2.53468e-10
9.75391e-17
1.37621e-10
-2.5219e-10
1.12003e-16
1.37659e-10
-2.49568e-10
1.02192e-16
1.3673e-10
-2.45734e-10
1.06656e-16
1.3488e-10
-2.40807e-10
9.68619e-17
1.32167e-10
-2.34914e-10
8.92542e-17
1.28661e-10
-2.282e-10
7.57405e-17
1.24446e-10
-2.20806e-10
6.37024e-17
1.19608e-10
-2.1288e-10
4.99828e-17
1.1424e-10
-2.04545e-10
3.84181e-17
1.08434e-10
-1.95931e-10
2.68538e-17
1.02282e-10
-1.87142e-10
1.56092e-17
9.58733e-11
-1.78234e-10
4.38046e-18
8.92867e-11
-1.69379e-10
-5.48981e-18
8.26028e-11
-1.60522e-10
-1.37159e-17
7.58887e-11
-1.51794e-10
-1.93749e-17
6.92095e-11
-1.43146e-10
-2.32425e-17
6.26227e-11
-1.34589e-10
-2.54058e-17
5.61743e-11
-1.26194e-10
-2.72509e-17
4.99121e-11
-1.1782e-10
-2.6747e-17
4.38728e-11
-1.09511e-10
-1.98885e-17
3.80918e-11
-1.01179e-10
-1.61426e-17
3.25999e-11
-9.2795e-11
-1.29609e-17
2.74233e-11
-8.43348e-11
-7.99357e-18
2.25892e-11
-7.57298e-11
-2.05782e-18
1.81212e-11
-6.70087e-11
4.84733e-18
1.40418e-11
-5.82297e-11
1.07018e-17
1.03745e-11
-4.94977e-11
1.66229e-17
7.14594e-12
-4.09763e-11
2.22433e-17
4.39267e-12
-3.27984e-11
2.72065e-17
2.17957e-12
-2.48174e-11
3.15478e-17
6.32917e-13
-1.63357e-11
3.40117e-17
-5.99399e-12
2.95567e-17
1.29748e-10
-2.49685e-10
4.21738e-17
1.3434e-10
-2.53327e-10
4.72148e-17
1.37971e-10
-2.55423e-10
7.55215e-17
1.40588e-10
-2.55986e-10
8.3843e-17
1.42164e-10
-2.55043e-10
9.94859e-17
1.42695e-10
-2.52719e-10
9.39249e-17
1.42199e-10
-2.4907e-10
9.35534e-17
1.40713e-10
-2.44248e-10
8.43987e-17
1.38297e-10
-2.3839e-10
8.05125e-17
1.35022e-10
-2.31638e-10
6.70325e-17
1.30972e-10
-2.24149e-10
5.91102e-17
1.26238e-10
-2.16072e-10
4.61437e-17
1.20918e-10
-2.07559e-10
3.59793e-17
1.15109e-10
-1.98735e-10
2.50929e-17
1.08909e-10
-1.8973e-10
1.5866e-17
1.02411e-10
-1.80644e-10
6.13059e-18
9.5707e-11
-1.71529e-10
-3.52742e-18
8.88744e-11
-1.62547e-10
-1.19225e-17
8.19922e-11
-1.5364e-10
-1.9013e-17
7.51248e-11
-1.44927e-10
-2.33439e-17
6.83342e-11
-1.36356e-10
-2.63093e-17
6.16742e-11
-1.27929e-10
-2.73715e-17
5.51868e-11
-1.19707e-10
-2.81392e-17
4.89159e-11
-1.11549e-10
-2.71928e-17
4.28944e-11
-1.03489e-10
-1.97813e-17
3.7154e-11
-9.54389e-11
-1.54152e-17
3.1722e-11
-8.7363e-11
-1.19679e-17
2.66215e-11
-7.92343e-11
-6.4534e-18
2.18766e-11
-7.09847e-11
-5.43953e-19
1.75078e-11
-6.26398e-11
6.4723e-18
1.35347e-11
-5.42564e-11
1.21883e-17
9.97738e-12
-4.59402e-11
1.78868e-17
6.85807e-12
-3.78567e-11
2.30218e-17
4.20789e-12
-3.01479e-11
2.75404e-17
2.08441e-12
-2.26936e-11
3.11777e-17
6.04108e-13
-1.4855e-11
3.28742e-17
-5.38945e-12
2.86138e-17
1.36963e-10
-2.5498e-10
-4.02178e-17
1.41272e-10
-2.57636e-10
2.4807e-17
1.44531e-10
-2.58681e-10
1.48562e-17
1.46698e-10
-2.58153e-10
5.93131e-17
1.47761e-10
-2.56106e-10
5.28511e-17
1.47731e-10
-2.52688e-10
7.57171e-17
1.46642e-10
-2.4798e-10
5.85458e-17
1.44548e-10
-2.42154e-10
6.75047e-17
1.41522e-10
-2.35365e-10
5.25966e-17
1.37652e-10
-2.27767e-10
4.94101e-17
1.33032e-10
-2.19528e-10
3.78023e-17
1.27764e-10
-2.10803e-10
3.09862e-17
1.21953e-10
-2.01747e-10
1.97101e-17
1.15702e-10
-1.92485e-10
1.21796e-17
1.09113e-10
-1.83141e-10
3.67963e-18
1.02279e-10
-1.73812e-10
-3.713e-18
9.52939e-11
-1.64543e-10
-1.21304e-17
8.82321e-11
-1.55486e-10
-1.88532e-17
8.11703e-11
-1.46578e-10
-2.46465e-17
7.41696e-11
-1.37926e-10
-2.77292e-17
6.72878e-11
-1.29474e-10
-2.96691e-17
6.05746e-11
-1.21215e-10
-2.96752e-17
5.40675e-11
-1.13201e-10
-2.98036e-17
4.78062e-11
-1.05288e-10
-2.73865e-17
4.18195e-11
-9.75026e-11
-2.06226e-17
3.61352e-11
-8.97547e-11
-1.54723e-17
3.07772e-11
-8.20049e-11
-1.16542e-17
2.57653e-11
-7.42225e-11
-5.99415e-18
2.11205e-11
-6.63398e-11
3.36239e-20
1.68606e-11
-5.83797e-11
7.08446e-18
1.3002e-11
-5.03977e-11
1.25723e-17
9.5616e-12
-4.24995e-11
1.8052e-17
6.55737e-12
-3.48522e-11
2.27576e-17
4.0151e-12
-2.76052e-11
2.67e-17
1.9851e-12
-2.06632e-11
2.97836e-17
5.73967e-13
-1.34434e-11
3.09151e-17
-4.81507e-12
2.60781e-17
1.44477e-10
-2.60018e-10
-1.13817e-17
1.48425e-10
-2.61585e-10
-1.24005e-17
1.51231e-10
-2.61487e-10
3.32938e-17
1.5287e-10
-2.59792e-10
2.77031e-17
1.53345e-10
-2.5658e-10
5.82144e-17
1.52685e-10
-2.52028e-10
4.6177e-17
1.50942e-10
-2.46236e-10
5.2178e-17
1.48188e-10
-2.394e-10
4.07498e-17
1.44512e-10
-2.31689e-10
3.83406e-17
1.40015e-10
-2.23269e-10
2.58187e-17
1.34803e-10
-2.14316e-10
2.21829e-17
1.28989e-10
-2.04989e-10
1.25671e-17
1.22683e-10
-1.95441e-10
5.30397e-18
1.15994e-10
-1.85796e-10
-2.31479e-18
1.09025e-10
-1.76172e-10
-8.411e-18
1.01871e-10
-1.66658e-10
-1.4464e-17
9.46217e-11
-1.57293e-10
-2.11763e-17
8.7351e-11
-1.48215e-10
-2.62612e-17
8.01314e-11
-1.39358e-10
-3.07582e-17
7.30196e-11
-1.30815e-10
-3.2345e-17
6.60689e-11
-1.22523e-10
-3.33997e-17
5.93239e-11
-1.1447e-10
-3.22368e-17
5.28176e-11
-1.06695e-10
-3.12258e-17
4.65851e-11
-9.90549e-11
-2.86681e-17
4.06507e-11
-9.15684e-11
-2.11348e-17
3.50384e-11
-8.41426e-11
-1.56689e-17
2.97686e-11
-7.6735e-11
-1.14324e-17
2.48577e-11
-6.93116e-11
-5.47008e-18
2.03239e-11
-6.18058e-11
5.63469e-19
1.61821e-11
-5.42378e-11
7.45736e-18
1.2446e-11
-4.66614e-11
1.2884e-17
9.12894e-12
-3.91822e-11
1.79825e-17
6.24518e-12
-3.19681e-11
2.24458e-17
3.81518e-12
-2.51749e-11
2.59613e-17
1.88213e-12
-1.87297e-11
2.85892e-17
5.42669e-13
-1.21036e-11
2.92398e-17
-4.272e-12
2.45239e-17
1.52277e-10
-2.6471e-10
-9.93081e-17
1.55772e-10
-2.65081e-10
-1.59711e-17
1.58036e-10
-2.6375e-10
-4.15135e-17
1.59059e-10
-2.60816e-10
1.58894e-17
1.58866e-10
-2.56387e-10
2.25911e-18
1.57505e-10
-2.50665e-10
3.40247e-17
1.55047e-10
-2.43778e-10
1.28926e-17
1.51582e-10
-2.35936e-10
2.72443e-17
1.47217e-10
-2.27323e-10
9.44493e-18
1.42065e-10
-2.18117e-10
1.0484e-17
1.36246e-10
-2.08497e-10
6.80698e-19
1.29879e-10
-1.98621e-10
-1.91065e-18
1.2308e-10
-1.88642e-10
-1.13773e-17
1.15961e-10
-1.78677e-10
-1.55457e-17
1.08627e-10
-1.68837e-10
-2.1478e-17
1.0117e-10
-1.59202e-10
-2.52106e-17
9.36796e-11
-1.49801e-10
-3.07647e-17
8.62237e-11
-1.4076e-10
-3.4083e-17
7.8871e-11
-1.32005e-10
-3.71822e-17
7.16729e-11
-1.23617e-10
-3.74732e-17
6.46774e-11
-1.15528e-10
-3.73688e-17
5.79238e-11
-1.07717e-10
-3.51372e-17
5.14399e-11
-1.00211e-10
-3.34244e-17
4.52559e-11
-9.28709e-11
-2.92651e-17
3.93918e-11
-8.57044e-11
-2.25921e-17
3.38676e-11
-7.86185e-11
-1.61508e-17
2.87e-11
-7.15673e-11
-1.15811e-17
2.39025e-11
-6.45141e-11
-5.37536e-18
1.94902e-11
-5.73933e-11
6.98833e-19
1.54754e-11
-5.02228e-11
7.71824e-18
1.1869e-11
-4.30548e-11
1.28792e-17
8.68142e-12
-3.59943e-11
1.79579e-17
5.92301e-12
-2.92094e-11
2.20282e-17
3.60916e-12
-2.28607e-11
2.52839e-17
1.77604e-12
-1.68962e-11
2.75373e-17
5.1039e-13
-1.08375e-11
2.77911e-17
-3.76123e-12
2.29072e-17
1.60328e-10
-2.68958e-10
-4.1167e-17
1.63272e-10
-2.68025e-10
-6.10721e-17
1.64895e-10
-2.65374e-10
-4.42437e-18
1.65211e-10
-2.61132e-10
-2.25942e-17
1.64266e-10
-2.55441e-10
1.74028e-17
1.6213e-10
-2.48529e-10
1.5356e-18
1.58896e-10
-2.40544e-10
1.15467e-17
1.54674e-10
-2.31713e-10
1.45647e-19
1.49584e-10
-2.22234e-10
-1.50423e-18
1.43756e-10
-2.12289e-10
-1.2312e-17
1.37318e-10
-2.02058e-10
-1.30972e-17
1.30396e-10
-1.91699e-10
-1.98063e-17
1.23112e-10
-1.81358e-10
-2.50921e-17
1.15579e-10
-1.71144e-10
-3.00295e-17
1.07899e-10
-1.61158e-10
-3.36663e-17
1.00164e-10
-1.51468e-10
-3.63972e-17
9.24581e-11
-1.42095e-10
-4.03034e-17
8.48446e-11
-1.33147e-10
-4.20492e-17
7.73865e-11
-1.24547e-10
-4.38408e-17
7.01292e-11
-1.1636e-10
-4.26173e-17
6.31148e-11
-1.08514e-10
-4.16639e-17
5.63769e-11
-1.00979e-10
-3.82085e-17
4.99379e-11
-9.37727e-11
-3.53424e-17
4.38228e-11
-8.67558e-11
-3.10545e-17
3.80473e-11
-7.99291e-11
-2.36249e-17
3.26273e-11
-7.31986e-11
-1.68485e-17
2.7576e-11
-6.65159e-11
-1.17688e-17
2.29038e-11
-5.98419e-11
-5.20899e-18
1.86231e-11
-5.31125e-11
9.23426e-19
1.47437e-11
-4.63432e-11
7.8128e-18
1.12739e-11
-3.95848e-11
1.29944e-17
8.22128e-12
-3.29414e-11
1.77587e-17
5.5925e-12
-2.65803e-11
2.17588e-17
3.39811e-12
-2.06659e-11
2.46977e-17
1.66743e-12
-1.51652e-11
2.66972e-17
4.7733e-13
-9.64704e-12
2.6685e-17
-3.28352e-12
2.17213e-17
1.68599e-10
-2.72644e-10
-1.26873e-16
1.70877e-10
-2.70304e-10
-4.26631e-17
1.71751e-10
-2.66248e-10
-8.23244e-17
1.71261e-10
-2.60643e-10
-2.17467e-17
1.69477e-10
-2.53657e-10
-3.9417e-17
1.66493e-10
-2.45545e-10
-4.31685e-18
1.62425e-10
-2.36475e-10
-2.68139e-17
1.574e-10
-2.2669e-10
-9.62243e-18
1.51558e-10
-2.16392e-10
-2.85678e-17
1.45037e-10
-2.05768e-10
-2.50697e-17
1.37976e-10
-1.94997e-10
-3.30655e-17
1.30507e-10
-1.8423e-10
-3.28357e-17
1.22752e-10
-1.73604e-10
-4.07962e-17
1.14825e-10
-1.63218e-10
-4.24966e-17
1.06826e-10
-1.53159e-10
-4.63224e-17
9.88416e-11
-1.43484e-10
-4.69567e-17
9.09503e-11
-1.34203e-10
-4.9883e-17
8.32101e-11
-1.25408e-10
-4.99705e-17
7.5677e-11
-1.17014e-10
-5.04382e-17
6.83899e-11
-1.09074e-10
-4.79912e-17
6.13843e-11
-1.01508e-10
-4.5898e-17
5.46877e-11
-9.42819e-11
-4.14418e-17
4.83167e-11
-8.74022e-11
-3.78381e-17
4.22914e-11
-8.07305e-11
-3.19966e-17
3.66228e-11
-7.42607e-11
-2.54725e-17
3.1323e-11
-6.78989e-11
-1.77508e-17
2.64017e-11
-6.15945e-11
-1.22581e-17
2.18664e-11
-5.53067e-11
-5.46551e-18
1.77269e-11
-4.89729e-11
7.57787e-19
1.39908e-11
-4.26069e-11
7.78749e-18
1.06638e-11
-3.62577e-11
1.28e-17
7.75098e-12
-3.00283e-11
1.76455e-17
5.25549e-12
-2.40844e-11
2.13932e-17
3.18324e-12
-1.85933e-11
2.42863e-17
1.55695e-12
-1.35385e-11
2.61049e-17
4.43689e-13
-8.53339e-12
2.59036e-17
-2.83946e-12
2.10188e-17
1.77026e-10
-2.75646e-10
-5.9692e-17
1.78516e-10
-2.71794e-10
-9.18842e-17
1.78528e-10
-2.66261e-10
-3.72499e-17
1.77129e-10
-2.59244e-10
-6.1068e-17
1.74418e-10
-2.50946e-10
-1.97428e-17
1.70515e-10
-2.41642e-10
-3.52869e-17
1.65559e-10
-2.31518e-10
-2.51355e-17
1.59695e-10
-2.20826e-10
-3.40739e-17
1.53077e-10
-2.09775e-10
-3.67784e-17
1.45856e-10
-1.98547e-10
-4.52162e-17
1.38177e-10
-1.87318e-10
-4.48337e-17
1.30175e-10
-1.76228e-10
-4.88684e-17
1.21972e-10
-1.65402e-10
-5.31058e-17
1.13679e-10
-1.54925e-10
-5.57281e-17
1.05392e-10
-1.44873e-10
-5.76347e-17
9.71925e-11
-1.35285e-10
-5.74789e-17
8.91512e-11
-1.26161e-10
-5.90005e-17
8.13189e-11
-1.17576e-10
-5.76721e-17
7.37442e-11
-1.09439e-10
-5.69721e-17
6.64588e-11
-1.01789e-10
-5.31207e-17
5.9491e-11
-9.4541e-11
-5.0278e-17
5.28621e-11
-8.7653e-11
-4.46516e-17
4.65829e-11
-8.11236e-11
-3.99842e-17
4.06684e-11
-7.4816e-11
-3.39938e-17
3.5125e-11
-6.87175e-11
-2.68856e-17
2.9961e-11
-6.27351e-11
-1.87585e-17
2.5183e-11
-5.68164e-11
-1.27922e-17
2.07956e-11
-5.09194e-11
-5.55492e-18
1.68065e-11
-4.49836e-11
6.93084e-19
1.32207e-11
-3.90209e-11
7.68382e-18
1.00421e-11
-3.3079e-11
1.27198e-17
7.27318e-12
-2.7259e-11
1.73761e-17
4.91393e-12
-2.17249e-11
2.11231e-17
2.96585e-12
-1.66449e-11
2.38389e-17
1.44527e-12
-1.20175e-11
2.5551e-17
4.09689e-13
-7.49743e-12
2.52314e-17
-2.42941e-12
2.03101e-17
1.8555e-10
-2.77814e-10
-1.32792e-16
1.86114e-10
-2.72359e-10
-6.05406e-17
1.85139e-10
-2.65287e-10
-1.06233e-16
1.82725e-10
-2.56831e-10
-5.23364e-17
1.79001e-10
-2.47221e-10
-6.94781e-17
1.74111e-10
-2.36753e-10
-3.70527e-17
1.68218e-10
-2.25625e-10
-5.78993e-17
1.61486e-10
-2.14095e-10
-4.09696e-17
1.54081e-10
-2.0237e-10
-5.94677e-17
1.46162e-10
-1.90629e-10
-5.56111e-17
1.37878e-10
-1.79034e-10
-6.17697e-17
1.29366e-10
-1.67716e-10
-6.01422e-17
1.20746e-10
-1.56782e-10
-6.67025e-17
1.12123e-10
-1.46303e-10
-6.67919e-17
1.03587e-10
-1.36337e-10
-6.88606e-17
9.52111e-11
-1.2691e-10
-6.70805e-17
8.70589e-11
-1.18009e-10
-6.77291e-17
7.91725e-11
-1.09691e-10
-6.50273e-17
7.15921e-11
-1.01859e-10
-6.31346e-17
6.43414e-11
-9.45387e-11
-5.82355e-17
5.74418e-11
-8.76417e-11
-5.43539e-17
5.09078e-11
-8.11189e-11
-4.78606e-17
4.47444e-11
-7.49608e-11
-4.24817e-17
3.89615e-11
-6.90331e-11
-3.50823e-17
3.35614e-11
-6.33176e-11
-2.88778e-17
2.85485e-11
-5.77224e-11
-1.99312e-17
2.39264e-11
-5.21942e-11
-1.34748e-17
1.96975e-11
-4.66904e-11
-6.06446e-18
1.58668e-11
-4.11528e-11
3.45883e-19
1.24378e-11
-3.55917e-11
7.43505e-18
9.41246e-12
-3.00534e-11
1.24033e-17
6.79076e-12
-2.4637e-11
1.71516e-17
4.56993e-12
-1.95037e-11
2.07745e-17
2.74732e-12
-1.48219e-11
2.35198e-17
1.33313e-12
-1.06029e-11
2.51606e-17
3.75558e-13
-6.53947e-12
2.47889e-17
-2.05348e-12
2.00315e-17
1.94066e-10
-2.78995e-10
-3.8786e-17
1.93562e-10
-2.71856e-10
-8.19586e-17
1.91477e-10
-2.63202e-10
-5.03559e-17
1.87943e-10
-2.53299e-10
-7.72439e-17
1.83122e-10
-2.424e-10
-4.65326e-17
1.77186e-10
-2.30817e-10
-5.94942e-17
1.70318e-10
-2.18757e-10
-5.44445e-17
1.62699e-10
-2.06476e-10
-5.9508e-17
1.54505e-10
-1.94177e-10
-6.55853e-17
1.45901e-10
-1.82026e-10
-7.14488e-17
1.37038e-10
-1.70172e-10
-7.15769e-17
1.2805e-10
-1.58728e-10
-7.32346e-17
1.19052e-10
-1.47784e-10
-7.72529e-17
1.10142e-10
-1.37394e-10
-7.78889e-17
1.01401e-10
-1.27597e-10
-7.87091e-17
9.28946e-11
-1.18404e-10
-7.61513e-17
8.46749e-11
-1.09789e-10
-7.58172e-17
7.67753e-11
-1.01792e-10
-7.18404e-17
6.92272e-11
-9.43113e-11
-6.904e-17
6.20461e-11
-8.73583e-11
-6.28917e-17
5.52458e-11
-8.08418e-11
-5.84098e-17
4.88341e-11
-7.47073e-11
-5.08633e-17
4.28106e-11
-6.89378e-11
-4.45613e-17
3.718e-11
-6.34026e-11
-3.70311e-17
3.19405e-11
-5.80784e-11
-3.04325e-17
2.70934e-11
-5.28754e-11
-2.10616e-17
2.26393e-11
-4.774e-11
-1.42047e-17
1.85782e-11
-4.26294e-11
-6.29046e-18
1.49136e-11
-3.7488e-11
1.03735e-19
1.1647e-11
-3.2325e-11
7.23831e-18
8.77867e-12
-2.71848e-11
1.22089e-17
6.30674e-12
-2.21648e-11
1.6879e-17
4.22572e-12
-1.74224e-11
2.05093e-17
2.5291e-12
-1.31249e-11
2.3187e-17
1.22131e-12
-9.29474e-12
2.47843e-17
3.41542e-13
-5.65932e-12
2.43823e-17
-1.71158e-12
1.96783e-17
2.0247e-10
-2.79013e-10
-1.09732e-16
2.00745e-10
-2.70131e-10
-6.82056e-17
1.97419e-10
-2.59876e-10
-1.08575e-16
1.92662e-10
-2.48544e-10
-7.28563e-17
1.86669e-10
-2.36407e-10
-8.60662e-17
1.79637e-10
-2.23785e-10
-6.22521e-17
1.71768e-10
-2.10888e-10
-7.92435e-17
1.63256e-10
-1.97966e-10
-6.55852e-17
1.54285e-10
-1.85207e-10
-8.24221e-17
1.45024e-10
-1.72765e-10
-8.01356e-17
1.35619e-10
-1.60767e-10
-8.44934e-17
1.26199e-10
-1.49308e-10
-8.27232e-17
1.16872e-10
-1.38458e-10
-8.79859e-17
1.07726e-10
-1.28249e-10
-8.72121e-17
9.88327e-11
-1.18704e-10
-8.78381e-17
9.02444e-11
-1.09817e-10
-8.43251e-17
8.20043e-11
-1.01549e-10
-8.31294e-17
7.41353e-11
-9.39241e-11
-7.81996e-17
6.66593e-11
-8.68356e-11
-7.43335e-17
5.95835e-11
-8.02831e-11
-6.73872e-17
5.2914e-11
-7.41727e-11
-6.1991e-17
4.66522e-11
-6.84457e-11
-5.37468e-17
4.07922e-11
-6.30784e-11
-4.68156e-17
3.53341e-11
-5.79445e-11
-3.80515e-17
3.02721e-11
-5.30168e-11
-3.2354e-17
2.56045e-11
-4.82079e-11
-2.23111e-17
2.13293e-11
-4.34648e-11
-1.49485e-17
1.74449e-11
-3.8745e-11
-6.91635e-18
1.39527e-11
-3.39957e-11
-3.10405e-19
1.08531e-11
-2.92252e-11
6.89128e-18
8.14485e-12
-2.44764e-11
1.18723e-17
5.82432e-12
-1.9844e-11
1.66229e-17
3.88363e-12
-1.54814e-11
2.02105e-17
2.31272e-12
-1.15536e-11
2.29373e-17
1.11061e-12
-8.09224e-12
2.45196e-17
3.07896e-13
-4.85621e-12
2.41323e-17
-1.40331e-12
1.96006e-17
2.1061e-10
-2.77691e-10
-6.78913e-17
2.07509e-10
-2.67031e-10
-8.22083e-17
2.02818e-10
-2.55186e-10
-7.55691e-17
1.96746e-10
-2.42472e-10
-9.02184e-17
1.89517e-10
-2.29177e-10
-7.26128e-17
1.81353e-10
-2.15621e-10
-7.72833e-17
1.72473e-10
-2.02008e-10
-7.87805e-17
1.6308e-10
-1.88574e-10
-7.7737e-17
1.53361e-10
-1.75489e-10
-8.80657e-17
1.43483e-10
-1.62887e-10
-9.09958e-17
1.33586e-10
-1.50871e-10
-9.27007e-17
1.23791e-10
-1.39514e-10
-9.22663e-17
1.14194e-10
-1.28861e-10
-9.66662e-17
1.04871e-10
-1.18928e-10
-9.56547e-17
9.58818e-11
-1.09715e-10
-9.59142e-17
8.72664e-11
-1.01203e-10
-9.1476e-17
7.90563e-11
-9.33392e-11
-8.9831e-17
7.12638e-11
-8.61326e-11
-8.37402e-17
6.39011e-11
-7.94733e-11
-7.92949e-17
5.69669e-11
-7.33496e-11
-7.12631e-17
5.04599e-11
-6.76662e-11
-6.54521e-17
4.43752e-11
-6.23611e-11
-5.62991e-17
3.87018e-11
-5.74056e-11
-4.8605e-17
3.34353e-11
-5.26781e-11
-3.97762e-17
2.85666e-11
-4.81484e-11
-3.38201e-17
2.40912e-11
-4.37327e-11
-2.34065e-17
2.0005e-11
-3.93786e-11
-1.57163e-17
1.63047e-11
-3.50447e-11
-7.17721e-18
1.29904e-11
-3.06813e-11
-6.10603e-19
1.00614e-11
-2.62959e-11
6.68501e-18
7.51523e-12
-2.193e-11
1.16622e-17
5.34678e-12
-1.76753e-11
1.64056e-17
3.54604e-12
-1.36803e-11
1.99918e-17
2.09975e-12
-1.0107e-11
2.2708e-17
1.00187e-12
-6.99396e-12
2.42793e-17
2.74884e-13
-4.12883e-12
2.39051e-17
-1.12806e-12
1.94885e-17
2.18321e-10
-2.74834e-10
-1.1257e-16
2.13688e-10
-2.624e-10
-9.87522e-17
2.07514e-10
-2.49012e-10
-1.14282e-16
2.00044e-10
-2.35004e-10
-9.60513e-17
1.91532e-10
-2.20666e-10
-9.83795e-17
1.8222e-10
-2.06309e-10
-8.39389e-17
1.72339e-10
-1.92127e-10
-9.39472e-17
1.62095e-10
-1.78331e-10
-8.4396e-17
1.51675e-10
-1.6507e-10
-9.82312e-17
1.41237e-10
-1.52449e-10
-9.85068e-17
1.30913e-10
-1.40548e-10
-1.01079e-16
1.2081e-10
-1.29411e-10
-1.00036e-16
1.11011e-10
-1.19063e-10
-1.04142e-16
1.01578e-10
-1.09496e-10
-1.03097e-16
9.25557e-11
-1.00693e-10
-1.02601e-16
8.39716e-11
-9.26197e-11
-9.79824e-17
7.58446e-11
-8.52124e-11
-9.5414e-17
6.81761e-11
-7.84652e-11
-8.8856e-17
6.09686e-11
-7.22661e-11
-8.34605e-17
5.42123e-11
-6.65941e-11
-7.49241e-17
4.78991e-11
-6.13534e-11
-6.83258e-17
4.20178e-11
-5.64801e-11
-5.86662e-17
3.6553e-11
-5.19413e-11
-5.04564e-17
3.14961e-11
-4.76214e-11
-4.05718e-17
2.68353e-11
-4.3488e-11
-3.5497e-17
2.25635e-11
-3.94611e-11
-2.45611e-17
1.86751e-11
-3.54901e-11
-1.64166e-17
1.51653e-11
-3.15349e-11
-7.8045e-18
1.20333e-11
-2.75492e-11
-1.01285e-18
9.2773e-12
-2.35398e-11
6.33199e-18
6.89416e-12
-1.95467e-11
1.13661e-17
4.87747e-12
-1.56583e-11
1.61892e-17
3.2154e-12
-1.20179e-11
1.97764e-17
1.89178e-12
-8.78299e-12
2.25371e-17
8.95937e-13
-5.99773e-12
2.41087e-17
2.42779e-13
-3.47528e-12
2.3783e-17
-8.84905e-13
1.95266e-17
2.25391e-10
-2.70255e-10
-9.90387e-17
2.19082e-10
-2.56091e-10
-8.05843e-17
2.11322e-10
-2.41252e-10
-9.88609e-17
2.02393e-10
-2.26076e-10
-9.71872e-17
1.92574e-10
-2.10847e-10
-9.37878e-17
1.82121e-10
-1.95857e-10
-8.82799e-17
1.71271e-10
-1.81277e-10
-9.66676e-17
1.60229e-10
-1.67291e-10
-8.9067e-17
1.49174e-10
-1.54016e-10
-1.03736e-16
1.38251e-10
-1.41527e-10
-1.03957e-16
1.27579e-10
-1.29877e-10
-1.07828e-16
1.17249e-10
-1.19081e-10
-1.05777e-16
1.07325e-10
-1.09141e-10
-1.10939e-16
9.78552e-11
-1.00027e-10
-1.08686e-16
8.88678e-11
-9.17068e-11
-1.0879e-16
8.03766e-11
-8.41296e-11
-1.03019e-16
7.23877e-11
-7.72237e-11
-1.0057e-16
6.48916e-11
-7.09702e-11
-9.29371e-17
5.78811e-11
-6.5256e-11
-8.73148e-17
5.13385e-11
-6.00523e-11
-7.78539e-17
4.52491e-11
-5.52645e-11
-7.10367e-17
3.95964e-11
-5.08276e-11
-6.06243e-17
3.43607e-11
-4.67062e-11
-5.18218e-17
2.95301e-11
-4.27909e-11
-4.19625e-17
2.50902e-11
-3.90484e-11
-3.6697e-17
2.10321e-11
-3.54032e-11
-2.5489e-17
1.73488e-11
-3.18067e-11
-1.71028e-17
1.40345e-11
-2.82207e-11
-8.02644e-18
1.10878e-11
-2.46023e-11
-1.28848e-18
8.50621e-12
-2.09581e-11
6.17132e-18
6.28599e-12
-1.73262e-11
1.12035e-17
4.41976e-12
-1.37918e-11
1.60549e-17
2.89413e-12
-1.04919e-11
1.96371e-17
1.69037e-12
-7.57886e-12
2.24083e-17
7.93649e-13
-5.10061e-12
2.39649e-17
2.11849e-13
-2.89307e-12
2.36659e-17
-6.72676e-13
1.95533e-17
2.31583e-10
-2.6377e-10
-9.17784e-17
2.23467e-10
-2.47975e-10
-1.07191e-16
2.14041e-10
-2.31828e-10
-1.07332e-16
2.0362e-10
-2.15656e-10
-1.0789e-16
1.92499e-10
-1.99726e-10
-1.01496e-16
1.80942e-10
-1.843e-10
-9.72712e-17
1.69183e-10
-1.69519e-10
-1.00973e-16
1.57421e-10
-1.55529e-10
-9.61136e-17
1.45817e-10
-1.42413e-10
-1.07029e-16
1.34503e-10
-1.30214e-10
-1.10379e-16
1.23576e-10
-1.18951e-10
-1.11635e-16
1.13109e-10
-1.08614e-10
-1.11891e-16
1.03147e-10
-9.91797e-11
-1.15132e-16
9.37192e-11
-9.06007e-11
-1.14251e-16
8.48387e-11
-8.2827e-11
-1.1298e-16
7.65042e-11
-7.57963e-11
-1.07803e-16
6.87092e-11
-6.94291e-11
-1.04336e-16
6.14336e-11
-6.36957e-11
-9.67206e-17
5.4661e-11
-5.84839e-11
-9.02506e-17
4.83667e-11
-5.37588e-11
-8.05798e-17
4.25296e-11
-4.9428e-11
-7.31032e-17
3.71288e-11
-4.54271e-11
-6.23775e-17
3.2141e-11
-4.1719e-11
-5.31845e-17
2.75514e-11
-3.82015e-11
-4.24497e-17
2.33439e-11
-3.48412e-11
-3.80089e-17
1.95079e-11
-3.15674e-11
-2.6425e-17
1.60354e-11
-2.83343e-11
-1.76696e-17
1.29203e-11
-2.51056e-11
-8.57101e-18
1.01606e-11
-2.18425e-11
-1.626e-18
7.75356e-12
-1.85509e-11
5.87713e-18
5.69504e-12
-1.52675e-11
1.09856e-17
3.97695e-12
-1.20734e-11
1.59135e-17
2.5846e-12
-9.09927e-12
1.95081e-17
1.49709e-12
-6.49098e-12
2.23115e-17
6.95827e-13
-4.29895e-12
2.38624e-17
1.82361e-13
-2.3792e-12
2.36166e-17
-4.89931e-13
1.96507e-17
2.36624e-10
-2.55211e-10
-1.1779e-16
2.26596e-10
-2.37948e-10
-8.0576e-17
2.15458e-10
-2.20691e-10
-1.1235e-16
2.03546e-10
-2.03745e-10
-9.89766e-17
1.91163e-10
-1.87344e-10
-1.06083e-16
1.78573e-10
-1.7171e-10
-9.28954e-17
1.65997e-10
-1.56943e-10
-1.06586e-16
1.53617e-10
-1.4315e-10
-9.41471e-17
1.41576e-10
-1.30373e-10
-1.12379e-16
1.29981e-10
-1.1862e-10
-1.10886e-16
1.18907e-10
-1.07878e-10
-1.17032e-16
1.08404e-10
-9.81112e-11
-1.14066e-16
9.84969e-11
-8.92736e-11
-1.20148e-16
8.91955e-11
-8.13006e-11
-1.17112e-16
8.0496e-11
-7.41283e-11
-1.17345e-16
7.23828e-11
-6.76843e-11
-1.10763e-16
6.48372e-11
-6.18839e-11
-1.07945e-16
5.78292e-11
-5.66887e-11
-9.93216e-17
5.13339e-11
-5.19891e-11
-9.29601e-17
4.53202e-11
-4.77459e-11
-8.25159e-17
3.97619e-11
-4.38703e-11
-7.50114e-17
3.46341e-11
-4.02996e-11
-6.36843e-17
2.99108e-11
-3.69962e-11
-5.40672e-17
2.55749e-11
-3.38659e-11
-4.34458e-17
2.1609e-11
-3.08756e-11
-3.88298e-17
1.80017e-11
-2.79602e-11
-2.70927e-17
1.47442e-11
-2.50769e-11
-1.81878e-17
1.18305e-11
-2.21919e-11
-8.68946e-18
9.25818e-12
-1.92701e-11
-1.80689e-18
7.02465e-12
-1.63172e-11
5.80451e-18
5.1255e-12
-1.33682e-11
1.09125e-17
3.5522e-12
-1.04999e-11
1.58806e-17
2.28909e-12
-7.83583e-12
1.94515e-17
1.31338e-12
-5.5149e-12
2.22557e-17
6.03243e-13
-3.58841e-12
2.37746e-17
1.54564e-13
-1.93011e-12
2.3556e-17
-3.3498e-13
1.97331e-17
2.40193e-10
-2.44457e-10
-7.84879e-17
2.28198e-10
-2.25953e-10
-1.04613e-16
2.15349e-10
-2.07843e-10
-9.8628e-17
2.01994e-10
-1.90391e-10
-1.08876e-16
1.88434e-10
-1.73785e-10
-9.91715e-17
1.74919e-10
-1.58195e-10
-1.01534e-16
1.61651e-10
-1.43676e-10
-1.01889e-16
1.48786e-10
-1.30286e-10
-1.00643e-16
1.3644e-10
-1.18028e-10
-1.09896e-16
1.24692e-10
-1.06872e-10
-1.16114e-16
1.13591e-10
-9.67774e-11
-1.16892e-16
1.03161e-10
-8.76824e-11
-1.18641e-16
9.34073e-11
-7.95206e-11
-1.21424e-16
8.43188e-11
-7.22133e-11
-1.20954e-16
7.58752e-11
-6.56855e-11
-1.19248e-16
6.80474e-11
-5.98577e-11
-1.1393e-16
6.08051e-11
-5.4642e-11
-1.0999e-16
5.41093e-11
-4.9994e-11
-1.0181e-16
4.79279e-11
-4.58083e-11
-9.46883e-17
4.22245e-11
-4.20433e-11
-8.43045e-17
3.69685e-11
-3.8615e-11
-7.62533e-17
3.21321e-11
-3.54635e-11
-6.47971e-17
2.76873e-11
-3.2552e-11
-5.49178e-17
2.36155e-11
-2.97944e-11
-4.35896e-17
1.98985e-11
-2.7159e-11
-3.96934e-17
1.65244e-11
-2.45864e-11
-2.77208e-17
1.34846e-11
-2.2037e-11
-1.85548e-17
1.07727e-11
-1.94801e-11
-9.07922e-18
8.38687e-12
-1.68841e-11
-2.02626e-18
6.32449e-12
-1.42547e-11
5.61752e-18
4.58128e-12
-1.16247e-11
1.07951e-17
3.14848e-12
-9.06678e-12
1.58319e-17
2.00967e-12
-6.69669e-12
1.94025e-17
1.14058e-12
-4.64544e-12
2.22183e-17
5.16595e-13
-2.96402e-12
2.37085e-17
1.28682e-13
-1.54179e-12
2.35288e-17
-2.05906e-13
1.98407e-17
2.41976e-10
-2.31414e-10
-1.22463e-16
2.28002e-10
-2.1198e-10
-8.65659e-17
2.13496e-10
-1.93338e-10
-1.11495e-16
1.98799e-10
-1.75695e-10
-9.76894e-17
1.84195e-10
-1.59181e-10
-1.06161e-16
1.69906e-10
-1.43907e-10
-9.19454e-17
1.56106e-10
-1.29876e-10
-1.07555e-16
1.42915e-10
-1.17097e-10
-9.4024e-17
1.30417e-10
-1.05531e-10
-1.14412e-16
1.18659e-10
-9.51152e-11
-1.1286e-16
1.07661e-10
-8.57802e-11
-1.20976e-16
9.74213e-11
-7.74435e-11
-1.17937e-16
8.79217e-11
-7.0022e-11
-1.24877e-16
7.9133e-11
-6.3426e-11
-1.21506e-16
7.10192e-11
-5.75726e-11
-1.22002e-16
6.35384e-11
-5.23781e-11
-1.15059e-16
5.66501e-11
-4.77542e-11
-1.1219e-16
5.03078e-11
-4.36529e-11
-1.03055e-16
4.44735e-11
-3.99745e-11
-9.63173e-17
3.91063e-11
-3.6677e-11
-8.52939e-17
3.41729e-11
-3.36821e-11
-7.73794e-17
2.96431e-11
-3.0934e-11
-6.54638e-17
2.54879e-11
-2.83974e-11
-5.53161e-17
2.1688e-11
-2.59947e-11
-4.41811e-17
1.82249e-11
-2.36962e-11
-4.00644e-17
1.50867e-11
-2.14484e-11
-2.80566e-17
1.2265e-11
-1.92154e-11
-1.88254e-17
9.75415e-12
-1.69693e-11
-9.03576e-18
7.55239e-12
-1.46822e-11
-2.0515e-18
5.65766e-12
-1.23598e-11
5.66836e-18
4.06592e-12
-1.00328e-11
1.084e-17
2.76839e-12
-7.76896e-12
1.5897e-17
1.74817e-12
-5.67614e-12
1.94284e-17
9.79828e-13
-3.87672e-12
2.2215e-17
4.36473e-13
-2.42027e-12
2.36465e-17
1.04901e-13
-1.2098e-12
2.34858e-17
-1.0061e-13
1.99208e-17
2.41591e-10
-2.16097e-10
-8.15097e-17
2.2572e-10
-1.9611e-10
-8.1314e-17
2.09688e-10
-1.77306e-10
-9.13123e-17
1.93815e-10
-1.59823e-10
-9.52293e-17
1.78354e-10
-1.4372e-10
-9.23415e-17
1.63489e-10
-1.29042e-10
-9.52156e-17
1.4935e-10
-1.15737e-10
-9.76328e-17
1.36019e-10
-1.03767e-10
-9.83398e-17
1.23541e-10
-9.30534e-11
-1.08295e-16
1.11928e-10
-8.35033e-11
-1.16701e-16
1.0117e-10
-7.50229e-11