/*--------------------------------*- C++ -*----------------------------------*\
| =========                 |                                                 |
| \\      /  F ield         | OpenFOAM: The Open Source CFD Toolbox           |
|  \\    /   O peration     | Version:  v2012                                 |
|   \\  /    A nd           | Website:  www.openfoam.com                      |
|    \\/     M anipulation  |                                                 |
\*---------------------------------------------------------------------------*/
FoamFile
{
    version     2.0;
    format      ascii;
    class       volVectorField;
    location    "0.35";
    object      U;
}
// * * * * * * * * * * * * * * * * * * * * * * * * * * * * * * * * * * * * * //

dimensions      [0 1 -1 0 0 0 0];


internalField   nonuniform List<vector> 
2664
(
(0.00494775 -0.0095401 -4.3184e-05)
(0.00490602 -0.00895978 -4.28201e-05)
(0.00483409 -0.00837862 -4.21927e-05)
(0.00473336 -0.00780164 -4.13139e-05)
(0.00460603 -0.00723362 -4.02029e-05)
(0.0044546 -0.00667897 -3.88816e-05)
(0.00428195 -0.0061416 -3.73751e-05)
(0.0040912 -0.00562498 -3.57105e-05)
(0.00388563 -0.00513193 -3.39165e-05)
(0.00366857 -0.0046647 -3.20222e-05)
(0.00344332 -0.00422493 -3.00564e-05)
(0.00321309 -0.00381366 -2.8047e-05)
(0.00298086 -0.00343136 -2.60203e-05)
(0.0027494 -0.00307801 -2.40001e-05)
(0.00252119 -0.00275311 -2.20083e-05)
(0.00229838 -0.00245581 -2.00635e-05)
(0.00208282 -0.00218496 -1.81821e-05)
(0.00187601 -0.00193911 -1.6377e-05)
(0.00167913 -0.00171667 -1.46585e-05)
(0.00149307 -0.00151594 -1.30344e-05)
(0.00131845 -0.00133516 -1.15101e-05)
(0.00115566 -0.0011726 -1.00891e-05)
(0.00100484 -0.0010265 -8.77261e-06)
(0.000865982 -0.000895225 -7.56051e-06)
(0.000738947 -0.000777217 -6.45156e-06)
(0.000623458 -0.000671039 -5.44338e-06)
(0.000519167 -0.000575409 -4.53294e-06)
(0.000425646 -0.000489188 -3.71651e-06)
(0.000342447 -0.000411448 -2.99018e-06)
(0.000269103 -0.000341486 -2.34987e-06)
(0.000205136 -0.000278821 -1.79141e-06)
(0.000150079 -0.000223178 -1.31072e-06)
(0.000103538 -0.000174352 -9.04367e-07)
(6.51431e-05 -0.000131858 -5.69116e-07)
(3.48821e-05 -9.42985e-05 -3.04854e-07)
(1.28148e-05 -5.86862e-05 -1.12201e-07)
(6.42852e-07 -2.06644e-05 -7.67051e-09)
(0.00523865 -0.00978172 -4.57231e-05)
(0.00517896 -0.00915712 -4.52025e-05)
(0.00508732 -0.00853482 -4.44031e-05)
(0.00496563 -0.00792014 -4.33413e-05)
(0.00481652 -0.00731813 -4.20403e-05)
(0.00464299 -0.00673332 -4.05261e-05)
(0.00444835 -0.00616971 -3.88277e-05)
(0.00423613 -0.00563068 -3.69757e-05)
(0.00400996 -0.00511893 -3.50019e-05)
(0.00377347 -0.0046365 -3.29381e-05)
(0.00353021 -0.00418478 -3.0815e-05)
(0.00328352 -0.0037645 -2.8662e-05)
(0.00303652 -0.0033758 -2.65063e-05)
(0.00279201 -0.00301832 -2.43722e-05)
(0.00255246 -0.00269124 -2.22814e-05)
(0.00231997 -0.00239335 -2.02522e-05)
(0.00209632 -0.00212322 -1.83e-05)
(0.00188287 -0.00187911 -1.64369e-05)
(0.00168069 -0.00165919 -1.46721e-05)
(0.00149052 -0.00146155 -1.30122e-05)
(0.00131282 -0.00128425 -1.14611e-05)
(0.00114787 -0.00112539 -1.00212e-05)
(0.000995665 -0.000983115 -8.69257e-06)
(0.00085606 -0.000855664 -7.47392e-06)
(0.0007288 -0.000741424 -6.363e-06)
(0.00061351 -0.0006389 -5.35654e-06)
(0.000509748 -0.000546771 -4.45072e-06)
(0.000417008 -0.000463876 -3.6411e-06)
(0.000334771 -0.000389274 -2.92318e-06)
(0.000262513 -0.000322255 -2.29233e-06)
(0.000199701 -0.000262342 -1.74395e-06)
(0.000145817 -0.00020927 -1.2735e-06)
(0.000100419 -0.000162855 -8.77129e-07)
(6.30848e-05 -0.000122658 -5.51136e-07)
(3.374e-05 -8.73674e-05 -2.94874e-07)
(1.23837e-05 -5.41541e-05 -1.08427e-07)
(6.19476e-07 -1.89279e-05 -7.39687e-09)
(0.00554569 -0.0100234 -4.84032e-05)
(0.00546518 -0.00935153 -4.77009e-05)
(0.00535104 -0.00868562 -4.67051e-05)
(0.0052057 -0.00803137 -4.5437e-05)
(0.00503233 -0.00739403 -4.39242e-05)
(0.00483445 -0.00677825 -4.21975e-05)
(0.00461584 -0.00618798 -4.02899e-05)
(0.00438047 -0.00562652 -3.82358e-05)
(0.00413232 -0.00509635 -3.60702e-05)
(0.00387532 -0.00459924 -3.38273e-05)
(0.00361323 -0.00413625 -3.15398e-05)
(0.00334954 -0.00370775 -2.92385e-05)
(0.00308745 -0.00331351 -2.69509e-05)
(0.00282976 -0.00295277 -2.47018e-05)
(0.00257889 -0.00262434 -2.25122e-05)
(0.00233688 -0.00232668 -2.03999e-05)
(0.00210538 -0.00205801 -1.83792e-05)
(0.00188562 -0.00181633 -1.6461e-05)
(0.00167849 -0.00159953 -1.4653e-05)
(0.00148459 -0.0014055 -1.29605e-05)
(0.00130422 -0.0012321 -1.1386e-05)
(0.00113748 -0.00107732 -9.93057e-06)
(0.000984243 -0.000939161 -8.59288e-06)
(0.000844222 -0.000815782 -7.3706e-06)
(0.000717044 -0.000705502 -6.26039e-06)
(0.000602227 -0.000606781 -5.25805e-06)
(0.000499236 -0.000518267 -4.35896e-06)
(0.00040749 -0.00043878 -3.55801e-06)
(0.0003264 -0.000367372 -2.85009e-06)
(0.000255384 -0.000303333 -2.23009e-06)
(0.000193859 -0.000246188 -1.69294e-06)
(0.000141259 -0.000195687 -1.2337e-06)
(9.70948e-05 -0.000151668 -8.48095e-07)
(6.08947e-05 -0.000113736 -5.32006e-07)
(3.25243e-05 -8.06632e-05 -2.84251e-07)
(1.19229e-05 -4.9779e-05 -1.04394e-07)
(5.93352e-07 -1.72548e-05 -7.09259e-09)
(0.00586938 -0.0102634 -5.12286e-05)
(0.00576477 -0.00954108 -5.03159e-05)
(0.00562497 -0.00882915 -4.90962e-05)
(0.00545302 -0.00813354 -4.75959e-05)
(0.0052527 -0.00745969 -4.5848e-05)
(0.00502808 -0.00681225 -4.38878e-05)
(0.00478344 -0.00619513 -4.17531e-05)
(0.0045232 -0.00561141 -3.94819e-05)
(0.0042517 -0.00506329 -3.71124e-05)
(0.00397315 -0.00455221 -3.46813e-05)
(0.00369149 -0.00407881 -3.22231e-05)
(0.00341034 -0.00364304 -2.97693e-05)
(0.00313292 -0.00324424 -2.7348e-05)
(0.00286201 -0.00288122 -2.49835e-05)
(0.00259997 -0.00255239 -2.26963e-05)
(0.00234869 -0.00225582 -2.0503e-05)
(0.00210968 -0.00198941 -1.84168e-05)
(0.00188399 -0.00175085 -1.64468e-05)
(0.00167234 -0.00153779 -1.45994e-05)
(0.00147514 -0.00134789 -1.28781e-05)
(0.00129252 -0.00117885 -1.1284e-05)
(0.00112442 -0.0010285 -9.81658e-06)
(0.000970536 -0.000894752 -8.47325e-06)
(0.000830455 -0.000775679 -7.25043e-06)
(0.000703678 -0.000669541 -6.14372e-06)
(0.000589618 -0.000574761 -5.14799e-06)
(0.000487649 -0.000489963 -4.25782e-06)
(0.000397112 -0.000413957 -3.46741e-06)
(0.000317353 -0.000345792 -2.77111e-06)
(0.000247735 -0.000284758 -2.16331e-06)
(0.000187626 -0.000230392 -1.63852e-06)
(0.000136418 -0.000182456 -1.19143e-06)
(9.35752e-05 -0.000140811 -8.17357e-07)
(5.858e-05 -0.000105107 -5.11787e-07)
(3.12393e-05 -7.4198e-05 -2.73023e-07)
(1.14341e-05 -4.55689e-05 -1.00114e-07)
(5.64581e-07 -1.56485e-05 -6.76184e-09)
(0.00620971 -0.0104995 -5.41992e-05)
(0.00607743 -0.00972365 -5.30452e-05)
(0.00590853 -0.00896328 -5.15715e-05)
(0.0057068 -0.00822465 -4.98113e-05)
(0.00547664 -0.00751325 -4.78029e-05)
(0.00522277 -0.00683372 -4.55874e-05)
(0.00494998 -0.00618977 -4.32069e-05)
(0.00466314 -0.0055842 -4.07037e-05)
(0.00436695 -0.00501885 -3.81186e-05)
(0.00406587 -0.00449471 -3.54909e-05)
(0.003764 -0.00401194 -3.28563e-05)
(0.00346503 -0.00357002 -3.02469e-05)
(0.00317217 -0.00316778 -2.76908e-05)
(0.00288814 -0.00280357 -2.52117e-05)
(0.00261516 -0.00247536 -2.2829e-05)
(0.00235496 -0.00218082 -2.05579e-05)
(0.00210887 -0.00191751 -1.84098e-05)
(0.00187773 -0.00168281 -1.63922e-05)
(0.00166206 -0.00147411 -1.45097e-05)
(0.00146206 -0.00128887 -1.27639e-05)
(0.00127767 -0.00112462 -1.11543e-05)
(0.00110864 -0.000979069 -9.67886e-06)
(0.000954524 -0.00085001 -8.33349e-06)
(0.000814757 -0.000735463 -7.1134e-06)
(0.000688715 -0.000633636 -6.01311e-06)
(0.000575705 -0.000542922 -5.02654e-06)
(0.000475012 -0.000461931 -4.14749e-06)
(0.0003859 -0.000389466 -3.36954e-06)
(0.000307656 -0.00032458 -2.68645e-06)
(0.000239589 -0.000266571 -2.09219e-06)
(0.000181024 -0.000214986 -1.58088e-06)
(0.000131311 -0.000169602 -1.14683e-06)
(8.98733e-05 -0.000130305 -7.85027e-07)
(5.61495e-05 -9.67869e-05 -4.90556e-07)
(2.98902e-05 -6.7983e-05 -2.61234e-07)
(1.09195e-05 -4.15312e-05 -9.56099e-08)
(5.33436e-07 -1.41113e-05 -6.40585e-09)
(0.00656694 -0.0107293 -5.73175e-05)
(0.00640281 -0.0098967 -5.58855e-05)
(0.00620099 -0.00908564 -5.41245e-05)
(0.00596597 -0.00830246 -5.20737e-05)
(0.00570293 -0.00755274 -4.97783e-05)
(0.00541717 -0.00684092 -4.72846e-05)
(0.00511408 -0.00617044 -4.46396e-05)
(0.00479894 -0.00554372 -4.18893e-05)
(0.00447679 -0.00496211 -3.90777e-05)
(0.00415231 -0.00442605 -3.62457e-05)
(0.00382971 -0.00393518 -3.34301e-05)
(0.0035127 -0.00348839 -3.06632e-05)
(0.00320443 -0.00308397 -2.79726e-05)
(0.00290749 -0.00271977 -2.53808e-05)
(0.00262394 -0.00239328 -2.29058e-05)
(0.00235529 -0.00210178 -2.05608e-05)
(0.00210264 -0.00184244 -1.83555e-05)
(0.00186661 -0.00161235 -1.62952e-05)
(0.00164748 -0.00140865 -1.43825e-05)
(0.00144522 -0.0012286 -1.2617e-05)
(0.00125958 -0.00106958 -1.09965e-05)
(0.00109012 -0.000929158 -9.51716e-06)
(0.000936203 -0.000805063 -8.17358e-06)
(0.000797141 -0.000695248 -6.95964e-06)
(0.00067218 -0.000597886 -5.86877e-06)
(0.000560519 -0.00051135 -4.89397e-06)
(0.000461358 -0.000434241 -4.02829e-06)
(0.000373889 -0.000365367 -3.26468e-06)
(0.000297341 -0.000303787 -2.5964e-06)
(0.000230976 -0.000248812 -2.01699e-06)
(0.000174077 -0.000200002 -1.52022e-06)
(0.000125958 -0.000157152 -1.10009e-06)
(8.60038e-05 -0.000120171 -7.51233e-07)
(5.36134e-05 -8.87915e-05 -4.68403e-07)
(2.8483e-05 -6.20302e-05 -2.48937e-07)
(1.03817e-05 -3.7674e-05 -9.09021e-08)
(5.00335e-07 -1.26471e-05 -6.02876e-09)
(0.00694043 -0.0109498 -6.05777e-05)
(0.00674008 -0.0100574 -5.88296e-05)
(0.00650116 -0.00919351 -5.67448e-05)
(0.00622919 -0.00836457 -5.43715e-05)
(0.00593002 -0.00757601 -5.17608e-05)
(0.0056097 -0.00683203 -4.89654e-05)
(0.00527414 -0.00613567 -4.6037e-05)
(0.00492906 -0.00548879 -4.30254e-05)
(0.00457979 -0.00489217 -3.9977e-05)
(0.00423117 -0.00434562 -3.69343e-05)
(0.00388748 -0.00384811 -3.39345e-05)
(0.00355237 -0.00339792 -3.10096e-05)
(0.00322888 -0.00299273 -2.81861e-05)
(0.0029194 -0.00262984 -2.54849e-05)
(0.00262577 -0.00230626 -2.29219e-05)
(0.00234926 -0.00201884 -2.05083e-05)
(0.00209069 -0.00176437 -1.82513e-05)
(0.00185041 -0.00153966 -1.6154e-05)
(0.00162846 -0.00134161 -1.42165e-05)
(0.00142456 -0.00116727 -1.24366e-05)
(0.00123822 -0.00101389 -1.08101e-05)
(0.00106884 -0.000878929 -9.33141e-06)
(0.000915589 -0.000760049 -7.99364e-06)
(0.000777639 -0.000655156 -6.7894e-06)
(0.000654111 -0.000562395 -5.71103e-06)
(0.000544103 -0.000480132 -4.75067e-06)
(0.000446731 -0.000406967 -3.9006e-06)
(0.000361121 -0.00034172 -3.15321e-06)
(0.000286447 -0.000283462 -2.50129e-06)
(0.000221929 -0.00023152 -1.938e-06)
(0.000166813 -0.000185472 -1.4568e-06)
(0.000120381 -0.00014513 -1.05139e-06)
(8.19839e-05 -0.000110426 -7.16125e-07)
(5.09832e-05 -8.11354e-05 -4.45427e-07)
(2.70243e-05 -5.63506e-05 -2.36191e-07)
(9.82361e-06 -3.40049e-05 -8.60167e-08)
(4.65611e-07 -1.12595e-05 -5.63438e-09)
(0.00733002 -0.0111576 -6.39786e-05)
(0.00708824 -0.0102025 -6.18688e-05)
(0.00680769 -0.0092839 -5.94207e-05)
(0.00649472 -0.00840826 -5.66896e-05)
(0.00615609 -0.00758076 -5.37344e-05)
(0.00579846 -0.00680516 -5.06134e-05)
(0.00542833 -0.00608392 -4.73832e-05)
(0.00505178 -0.00541824 -4.40968e-05)
(0.00467437 -0.00480819 -4.08028e-05)
(0.00430106 -0.00425283 -3.75446e-05)
(0.00393609 -0.00375039 -3.43591e-05)
(0.00358302 -0.00329844 -3.12774e-05)
(0.00324467 -0.00289403 -2.83242e-05)
(0.00292321 -0.00253387 -2.55182e-05)
(0.00262016 -0.00221445 -2.2873e-05)
(0.0023365 -0.00193218 -2.03971e-05)
(0.00207275 -0.00168352 -1.80948e-05)
(0.00182897 -0.00146497 -1.59668e-05)
(0.00160489 -0.00127319 -1.40108e-05)
(0.0014 -0.00110507 -1.22223e-05)
(0.00121359 -0.000957731 -1.0595e-05)
(0.00104481 -0.000828546 -9.12174e-06)
(0.000892714 -0.000715113 -7.79397e-06)
(0.000756295 -0.00061531 -6.60308e-06)
(0.000634561 -0.000527269 -5.54037e-06)
(0.000526511 -0.000449355 -4.59709e-06)
(0.000431184 -0.000380182 -3.76488e-06)
(0.000347645 -0.000318584 -3.03556e-06)
(0.000275019 -0.000263652 -2.40151e-06)
(0.000212487 -0.000214733 -1.85557e-06)
(0.000159265 -0.000171424 -1.39089e-06)
(0.000114607 -0.000133558 -1.00097e-06)
(7.78324e-05 -0.000101088 -6.79868e-07)
(4.82717e-05 -7.38312e-05 -4.21742e-07)
(2.55218e-05 -5.09534e-05 -2.23061e-07)
(9.24835e-06 -3.053e-05 -8.09812e-08)
(4.2955e-07 -9.95092e-06 -5.22492e-09)
(0.00773408 -0.0113487 -6.75058e-05)
(0.00744558 -0.0103282 -6.49882e-05)
(0.00711851 -0.00935348 -6.21341e-05)
(0.00676045 -0.00843067 -5.90094e-05)
(0.00637889 -0.00756457 -5.56796e-05)
(0.00598128 -0.00675833 -5.22095e-05)
(0.00557455 -0.00601366 -4.86599e-05)
(0.00516516 -0.00533096 -4.50868e-05)
(0.00475881 -0.0047094 -4.15402e-05)
(0.00436048 -0.0041472 -3.80635e-05)
(0.00397429 -0.00364177 -3.46928e-05)
(0.00360361 -0.0031899 -3.14573e-05)
(0.00325099 -0.00278795 -2.83795e-05)
(0.00291826 -0.00243201 -2.54752e-05)
(0.00260661 -0.00211806 -2.27549e-05)
(0.00231666 -0.00184208 -2.0224e-05)
(0.00204859 -0.00160016 -1.7884e-05)
(0.00180212 -0.00138853 -1.57325e-05)
(0.0015767 -0.00120364 -1.37648e-05)
(0.00137154 -0.00104224 -1.19738e-05)
(0.00118568 -0.000901317 -1.03514e-05)
(0.00101809 -0.000778188 -8.88849e-06)
(0.000867637 -0.000670409 -7.57506e-06)
(0.000733175 -0.00057584 -6.40126e-06)
(0.000613598 -0.000492615 -5.35737e-06)
(0.000507812 -0.00041911 -4.43385e-06)
(0.000414783 -0.000353957 -3.62169e-06)
(0.00033352 -0.000296016 -2.91224e-06)
(0.000263108 -0.000244402 -2.29752e-06)
(0.000202695 -0.000198486 -1.77006e-06)
(0.000151469 -0.000157886 -1.32282e-06)
(0.000108663 -0.000122456 -9.49061e-07)
(7.35707e-05 -9.21731e-05 -6.42647e-07)
(4.54933e-05 -6.689e-05 -3.97471e-07)
(2.39836e-05 -4.58464e-05 -2.0962e-07)
(8.65934e-06 -2.72545e-05 -7.58247e-08)
(3.92462e-07 -8.72357e-06 -4.80467e-09)
(0.00815163 -0.0115186 -7.11508e-05)
(0.00781013 -0.0104305 -6.81707e-05)
(0.00743134 -0.00939859 -6.48651e-05)
(0.00702377 -0.00842868 -6.13082e-05)
(0.00659585 -0.0075249 -5.75737e-05)
(0.00615561 -0.00668955 -5.37316e-05)
(0.00571047 -0.00592341 -4.98467e-05)
(0.00526709 -0.00522588 -4.59769e-05)
(0.00483126 -0.00459512 -4.21728e-05)
(0.00440784 -0.00402837 -3.84771e-05)
(0.00400077 -0.00352212 -3.49241e-05)
(0.00361309 -0.00307233 -3.15403e-05)
(0.003247 -0.00267464 -2.83448e-05)
(0.00290393 -0.00232451 -2.53503e-05)
(0.00258467 -0.00201739 -2.25635e-05)
(0.00228943 -0.00174883 -1.99863e-05)
(0.002018 -0.00151459 -1.7617e-05)
(0.00176977 -0.00131064 -1.54501e-05)
(0.00154384 -0.00113325 -1.3478e-05)
(0.00133917 -0.000979018 -1.16913e-05)
(0.00115454 -0.00084486 -1.00797e-05)
(0.000988738 -0.000728041 -8.63225e-06)
(0.000840434 -0.000626093 -7.3376e-06)
(0.000708364 -0.000536879 -6.18467e-06)
(0.000591307 -0.000458542 -5.16277e-06)
(0.000488086 -0.000389484 -4.26164e-06)
(0.0003976 -0.000328365 -3.47168e-06)
(0.000318813 -0.000274074 -2.78384e-06)
(0.000250773 -0.000225757 -2.18982e-06)
(0.0001926 -0.000182813 -1.68193e-06)
(0.000143466 -0.000144884 -1.25293e-06)
(0.000102581 -0.000111844 -8.95951e-07)
(6.92217e-05 -8.36932e-05 -6.04664e-07)
(4.26636e-05 -6.03212e-05 -3.72751e-07)
(2.24187e-05 -4.1036e-05 -1.95945e-07)
(8.06017e-06 -2.41825e-05 -7.05796e-08)
(3.54584e-07 -7.5792e-06 -4.37532e-09)
(0.00857955 -0.0116623 -7.48863e-05)
(0.0081789 -0.0105047 -7.139e-05)
(0.00774294 -0.00941531 -6.75853e-05)
(0.00728154 -0.00839906 -6.35587e-05)
(0.00680385 -0.00745916 -5.93897e-05)
(0.00631859 -0.00659686 -5.51546e-05)
(0.00583345 -0.00581176 -5.09205e-05)
(0.00535526 -0.00510207 -4.67468e-05)
(0.00488972 -0.0044648 -4.26834e-05)
(0.00444149 -0.00389608 -3.87712e-05)
(0.00401417 -0.00339142 -3.50414e-05)
(0.0036104 -0.0029459 -3.1517e-05)
(0.0032319 -0.00255439 -2.82132e-05)
(0.00287965 -0.00221171 -2.51384e-05)
(0.00255394 -0.0019128 -2.22953e-05)
(0.00225455 -0.00165281 -1.9682e-05)
(0.00198086 -0.00142717 -1.72928e-05)
(0.00173185 -0.00123163 -1.51192e-05)
(0.00150633 -0.0010623 -1.31506e-05)
(0.00130295 -0.000915668 -1.13752e-05)
(0.00112027 -0.000788589 -9.78045e-06)
(0.000956845 -0.000678298 -8.35385e-06)
(0.000811211 -0.00058233 -7.0825e-06)
(0.000681966 -0.000498561 -5.95422e-06)
(0.000567788 -0.000425161 -4.95745e-06)
(0.000467426 -0.000360566 -4.08127e-06)
(0.000379722 -0.000303473 -3.31559e-06)
(0.000303599 -0.000252811 -2.65101e-06)
(0.000238077 -0.000207758 -2.07897e-06)
(0.000182258 -0.000167744 -1.59162e-06)
(0.000135298 -0.000132438 -1.18161e-06)
(9.63956e-05 -0.000101736 -8.41935e-07)
(6.48107e-05 -7.56598e-05 -5.66139e-07)
(3.97993e-05 -5.41319e-05 -3.4773e-07)
(2.08368e-05 -3.6527e-05 -1.82121e-07)
(7.45472e-06 -2.13168e-05 -6.52788e-08)
(3.16214e-07 -6.51891e-06 -3.94107e-09)
(0.00901555 -0.0117737 -7.86925e-05)
(0.00854855 -0.0105459 -7.4617e-05)
(0.00804976 -0.00939942 -7.0264e-05)
(0.00753005 -0.0083384 -6.57283e-05)
(0.0069994 -0.00736475 -6.10971e-05)
(0.00646694 -0.00647836 -5.64499e-05)
(0.0059406 -0.00567742 -5.18562e-05)
(0.00542716 -0.00495875 -4.73748e-05)
(0.00493212 -0.00431807 -4.30538e-05)
(0.00445974 -0.00375029 -3.89307e-05)
(0.00401318 -0.00324985 -3.50329e-05)
(0.00359452 -0.00281092 -3.13786e-05)
(0.00320495 -0.00242758 -2.79781e-05)
(0.00284488 -0.00209405 -2.48351e-05)
(0.00251409 -0.00180475 -2.19476e-05)
(0.00221184 -0.00155445 -1.93092e-05)
(0.00193707 -0.00133832 -1.69106e-05)
(0.00168838 -0.00115188 -1.47398e-05)
(0.00146423 -0.000991127 -1.27831e-05)
(0.00126298 -0.000852474 -1.10263e-05)
(0.00108296 -0.000732742 -9.45479e-06)
(0.000922542 -0.000629161 -8.0544e-06)
(0.000780095 -0.000539285 -6.81087e-06)
(0.000654105 -0.00046102 -5.711e-06)
(0.000543159 -0.000392578 -4.74244e-06)
(0.00044594 -0.000332442 -3.89369e-06)
(0.000361243 -0.00027935 -3.15426e-06)
(0.00028796 -0.000232278 -2.51447e-06)
(0.000225092 -0.000190443 -1.96559e-06)
(0.000171727 -0.000153309 -1.49967e-06)
(0.000127013 -0.000120571 -1.10926e-06)
(9.0143e-05 -9.2147e-05 -7.87332e-07)
(6.03645e-05 -6.80813e-05 -5.27306e-07)
(3.69185e-05 -4.83274e-05 -3.22564e-07)
(1.92481e-05 -3.23223e-05 -1.68237e-07)
(6.84706e-06 -1.86589e-05 -5.9959e-08)
(2.77603e-07 -5.54335e-06 -3.50399e-09)
(0.00945451 -0.0118467 -8.25245e-05)
(0.00891431 -0.0105485 -7.78101e-05)
(0.00834705 -0.00934652 -7.28595e-05)
(0.00776491 -0.00824327 -6.77789e-05)
(0.0071784 -0.00723914 -6.26601e-05)
(0.00659705 -0.00633229 -5.75861e-05)
(0.00602878 -0.0055193 -5.26263e-05)
(0.00548017 -0.00479538 -4.78379e-05)
(0.00495628 -0.00415478 -4.32651e-05)
(0.00446088 -0.00359113 -3.8941e-05)
(0.00399647 -0.00309774 -3.48873e-05)
(0.0035645 -0.00266784 -3.11167e-05)
(0.00316549 -0.00229475 -2.76337e-05)
(0.00279921 -0.00197207 -2.44365e-05)
(0.00246486 -0.00169377 -2.15179e-05)
(0.00216118 -0.00145426 -1.8867e-05)
(0.00188663 -0.00124847 -1.64704e-05)
(0.00163941 -0.00107178 -1.43123e-05)
(0.00141764 -0.000920072 -1.23764e-05)
(0.0012194 -0.00078973 -1.06458e-05)
(0.00104278 -0.000677568 -9.10406e-06)
(0.000885987 -0.000580835 -7.73529e-06)
(0.000747243 -0.000497123 -6.52408e-06)
(0.000624929 -0.000424391 -5.45629e-06)
(0.000517554 -0.000360902 -4.5189e-06)
(0.000423747 -0.000305193 -3.69994e-06)
(0.000342268 -0.000256059 -2.9886e-06)
(0.000271988 -0.000212523 -2.37502e-06)
(0.000211894 -0.000173848 -1.85036e-06)
(0.00016107 -0.00013953 -1.40662e-06)
(0.000118662 -0.000109297 -1.03634e-06)
(8.38623e-05 -8.30869e-05 -7.32482e-07)
(5.59114e-05 -6.09637e-05 -4.88413e-07)
(3.40401e-05 -4.29104e-05 -2.97419e-07)
(1.76635e-05 -2.84229e-05 -1.54389e-07)
(6.24152e-06 -1.62091e-05 -5.46574e-08)
(2.39057e-07 -4.65252e-06 -3.06812e-09)
(0.00989193 -0.0118741 -8.63432e-05)
(0.00927089 -0.0105069 -8.09232e-05)
(0.00862959 -0.00925207 -7.53263e-05)
(0.00798108 -0.00811031 -6.96663e-05)
(0.00733634 -0.00707995 -6.40392e-05)
(0.00670494 -0.00615717 -5.85284e-05)
(0.00609464 -0.00533658 -5.32016e-05)
(0.00551152 -0.00461165 -4.81119e-05)
(0.00496004 -0.00397503 -4.32982e-05)
(0.00444322 -0.00341897 -3.87871e-05)
(0.00396281 -0.00293564 -3.45937e-05)
(0.00351946 -0.00251731 -3.07237e-05)
(0.00311293 -0.00215657 -2.71751e-05)
(0.0027423 -0.00184644 -2.39398e-05)
(0.00240611 -0.00158048 -2.10052e-05)
(0.00210256 -0.0013528 -1.83554e-05)
(0.00182962 -0.00115814 -1.59728e-05)
(0.00158508 -0.000991756 -1.38382e-05)
(0.00136674 -0.000849504 -1.19321e-05)
(0.00117239 -0.000727744 -1.02355e-05)
(0.00099993 -0.000623319 -8.72998e-06)
(0.000847375 -0.000533524 -7.39822e-06)
(0.000712837 -0.000456012 -6.22371e-06)
(0.000594604 -0.000388804 -5.19155e-06)
(0.000491123 -0.000330232 -4.28815e-06)
(0.00040098 -0.000278899 -3.50118e-06)
(0.000322913 -0.000233659 -2.81962e-06)
(0.00025578 -0.00019359 -2.23351e-06)
(0.000198565 -0.000158002 -1.73398e-06)
(0.000150354 -0.000126431 -1.31305e-06)
(0.000110299 -9.86303e-05 -9.63311e-07)
(7.75943e-05 -7.45632e-05 -6.77744e-07)
(5.14813e-05 -5.43103e-05 -4.4972e-07)
(3.11841e-05 -3.78814e-05 -2.72468e-07)
(1.60944e-05 -2.48277e-05 -1.40676e-07)
(5.64263e-06 -1.39661e-05 -4.94139e-08)
(2.00874e-07 -3.84583e-06 -2.63638e-09)
(0.0103202 -0.0118483 -9.00819e-05)
(0.0096113 -0.0104149 -8.38953e-05)
(0.00889086 -0.00911154 -7.76076e-05)
(0.00817277 -0.00793628 -7.13402e-05)
(0.00746811 -0.00688509 -6.519e-05)
(0.00678633 -0.00595179 -5.92393e-05)
(0.00613463 -0.0051288 -5.35512e-05)
(0.0055184 -0.00440763 -4.81723e-05)
(0.00494122 -0.00377923 -4.31342e-05)
(0.00440518 -0.00323446 -3.84553e-05)
(0.00391108 -0.00276431 -3.41423e-05)
(0.00345866 -0.00236014 -3.01932e-05)
(0.00304685 -0.00201384 -2.65984e-05)
(0.00267394 -0.00171792 -2.33432e-05)
(0.00233781 -0.00146557 -2.0409e-05)
(0.00203607 -0.00125068 -1.7775e-05)
(0.00176621 -0.00106785 -1.54193e-05)
(0.00152562 -0.000912275 -1.33191e-05)
(0.00131177 -0.000779805 -1.14523e-05)
(0.00112222 -0.00066683 -9.79753e-06)
(0.000954644 -0.000570251 -8.33465e-06)
(0.000806932 -0.000487434 -7.04515e-06)
(0.000677084 -0.000416111 -5.91159e-06)
(0.000563318 -0.000354386 -4.91841e-06)
(0.000464031 -0.000300668 -4.05162e-06)
(0.000377784 -0.000253633 -3.29866e-06)
(0.000303301 -0.000212204 -2.64839e-06)
(0.00023944 -0.000175518 -2.09084e-06)
(0.000185191 -0.000142933 -1.61721e-06)
(0.00013965 -0.000114026 -1.21958e-06)
(0.000101978 -8.85808e-05 -8.90649e-07)
(7.13814e-05 -6.65799e-05 -6.23486e-07)
(4.71048e-05 -4.81212e-05 -4.11494e-07)
(2.83707e-05 -3.32383e-05 -2.4789e-07)
(1.45523e-05 -2.15336e-05 -1.27199e-07)
(5.05505e-06 -1.1927e-05 -4.42694e-08)
(1.63399e-07 -3.12203e-06 -2.21284e-09)
(0.0107316 -0.0117616 -9.36737e-05)
(0.00992781 -0.0102667 -8.66588e-05)
(0.0091237 -0.00892061 -7.96407e-05)
(0.00833356 -0.00771833 -7.27444e-05)
(0.00756827 -0.0066529 -6.60648e-05)
(0.00683668 -0.00571543 -5.96793e-05)
(0.00614514 -0.00489591 -5.36434e-05)
(0.00549802 -0.00418376 -4.79948e-05)
(0.00489775 -0.00356817 -4.27551e-05)
(0.00434529 -0.00303855 -3.79328e-05)
(0.00384032 -0.00258477 -3.35249e-05)
(0.00338156 -0.00219734 -2.95203e-05)
(0.00296699 -0.00186752 -2.59014e-05)
(0.0025941 -0.00158737 -2.26463e-05)
(0.00226006 -0.00134981 -1.97304e-05)
(0.00196192 -0.00114857 -1.71278e-05)
(0.00169667 -0.000978171 -1.48123e-05)
(0.00146132 -0.000833808 -1.27578e-05)
(0.00125305 -0.000711364 -1.09397e-05)
(0.00106917 -0.000607305 -9.33446e-06)
(0.000907209 -0.000518618 -7.92055e-06)
(0.000764918 -0.000442765 -6.67837e-06)
(0.000640219 -0.000377579 -5.58975e-06)
(0.000531276 -0.000321257 -4.63868e-06)
(0.000436458 -0.000272299 -3.8109e-06)
(0.000354311 -0.000229463 -3.09373e-06)
(0.000283562 -0.000191743 -2.47605e-06)
(0.000223077 -0.000158339 -1.94798e-06)
(0.000171862 -0.000128663 -1.50082e-06)
(0.000129028 -0.00010233 -1.12684e-06)
(9.37564e-05 -7.9154e-05 -8.18855e-07)
(6.52668e-05 -5.91378e-05 -5.70086e-07)
(4.2813e-05 -4.23937e-05 -3.74007e-07)
(2.56207e-05 -2.89764e-05 -2.23866e-07)
(1.30491e-05 -1.85356e-05 -1.14062e-07)
(4.48355e-06 -1.00878e-05 -3.92656e-08)
(1.26979e-07 -2.47922e-06 -1.80119e-09)
(0.0111156 -0.0116054 -9.70266e-05)
(0.0102109 -0.0100562 -8.91307e-05)
(0.00931973 -0.00867528 -8.13526e-05)
(0.00845634 -0.00745408 -7.38168e-05)
(0.0076309 -0.00638228 -6.66122e-05)
(0.00685129 -0.00544793 -5.98073e-05)
(0.00612256 -0.00463843 -5.34467e-05)
(0.00544771 -0.00394098 -4.7556e-05)
(0.00482777 -0.003343 -4.21445e-05)
(0.00426233 -0.0028325 -3.72088e-05)
(0.00374981 -0.0023983 -3.2735e-05)
(0.0032878 -0.00203013 -2.8702e-05)
(0.00287329 -0.00171871 -2.50836e-05)
(0.00250291 -0.00145578 -2.18504e-05)
(0.00217315 -0.00123406 -1.89718e-05)
(0.00188045 -0.0010472 -1.64167e-05)
(0.00162138 -0.000889705 -1.41551e-05)
(0.00139258 -0.000756842 -1.21577e-05)
(0.00119095 -0.000644576 -1.03975e-05)
(0.00101361 -0.000549482 -8.84941e-06)
(0.000857948 -0.000468667 -7.49051e-06)
(0.000721624 -0.00039971 -6.30041e-06)
(0.000602498 -0.000340562 -5.26044e-06)
(0.000498703 -0.000289529 -4.3543e-06)
(0.000408595 -0.000245208 -3.56764e-06)
(0.000330726 -0.000206447 -2.8878e-06)
(0.000263833 -0.000172316 -2.3038e-06)
(0.000206805 -0.000142082 -1.8059e-06)
(0.000158669 -0.000115207 -1.38563e-06)
(0.000118564 -9.13494e-05 -1.03546e-06)
(8.56918e-05 -7.03515e-05 -7.48431e-07)
(5.92938e-05 -5.2234e-05 -5.17922e-07)
(3.8637e-05 -3.7122e-05 -3.37533e-07)
(2.29546e-05 -2.50884e-05 -2.00574e-07)
(1.15965e-05 -1.58262e-05 -1.01367e-07)
(3.93288e-06 -8.44236e-06 -3.4444e-08)
(9.19863e-08 -1.91479e-06 -1.4056e-09)
(0.0114603 -0.0113722 -0.000100036)
(0.0104499 -0.00977814 -9.12179e-05)
(0.00946975 -0.0083723 -8.26629e-05)
(0.00853347 -0.00714195 -7.44907e-05)
(0.00764992 -0.00607288 -6.67787e-05)
(0.00682545 -0.00514985 -5.95823e-05)
(0.0060634 -0.00435748 -5.29307e-05)
(0.00536502 -0.00368075 -4.68346e-05)
(0.00472966 -0.00310533 -4.12884e-05)
(0.00415536 -0.00261794 -3.62752e-05)
(0.00363912 -0.00220642 -3.17689e-05)
(0.00317733 -0.00185989 -2.77378e-05)
(0.00276593 -0.00156865 -2.41465e-05)
(0.00240073 -0.00132421 -2.09585e-05)
(0.00207751 -0.00111921 -1.81369e-05)
(0.00179217 -0.000947297 -1.5646e-05)
(0.00154084 -0.000803059 -1.3452e-05)
(0.00131986 -0.000681869 -1.1523e-05)
(0.00112591 -0.000579832 -9.82977e-06)
(0.00095594 -0.00049367 -8.34596e-06)
(0.000807228 -0.000420636 -7.04772e-06)
(0.000677371 -0.000358451 -5.91407e-06)
(0.000564199 -0.000305198 -4.92607e-06)
(0.000465835 -0.000259302 -4.06735e-06)
(0.000380643 -0.000219469 -3.3236e-06)
(0.000307194 -0.000184637 -2.68236e-06)
(0.000244253 -0.000153958 -2.13284e-06)
(0.000190736 -0.000126766 -1.6656e-06)
(0.000145706 -0.000102577 -1.27244e-06)
(0.00010833 -8.10881e-05 -9.46096e-07)
(7.7841e-05 -6.21708e-05 -6.79873e-07)
(5.35053e-05 -4.58621e-05 -4.67368e-07)
(3.46075e-05 -3.22973e-05 -3.02337e-07)
(2.03927e-05 -2.15643e-05 -1.78192e-07)
(1.0206e-05 -1.33959e-05 -8.92142e-08)
(3.40766e-06 -6.98352e-06 -2.98452e-08)
(5.87885e-08 -1.42551e-06 -1.03001e-09)
(0.0117519 -0.011054 -0.000102583)
(0.0106328 -0.0094276 -9.28156e-05)
(0.0095638 -0.00800928 -8.34847e-05)
(0.00855695 -0.00678132 -7.46964e-05)
(0.00761917 -0.00572534 -6.65109e-05)
(0.00675464 -0.0048226 -5.89647e-05)
(0.00596451 -0.00405493 -5.20679e-05)
(0.00524791 -0.00340512 -4.58126e-05)
(0.00460226 -0.00285723 -4.01765e-05)
(0.00402384 -0.0023968 -3.51274e-05)
(0.00350819 -0.00201093 -3.06261e-05)
(0.0030504 -0.0016882 -2.66299e-05)
(0.0026454 -0.00141869 -2.30944e-05)
(0.00228815 -0.0011938 -1.99758e-05)
(0.00197378 -0.0010062 -1.72314e-05)
(0.00169769 -0.000849636 -1.48213e-05)
(0.00145566 -0.000718845 -1.27084e-05)
(0.00124375 -0.000609373 -1.08585e-05)
(0.00105846 -0.00051751 -9.24092e-06)
(0.00089662 -0.00044016 -7.82809e-06)
(0.000755446 -0.000374748 -6.59566e-06)
(0.000632501 -0.000319154 -5.52235e-06)
(0.000525613 -0.000271609 -4.58921e-06)
(0.000432919 -0.000230666 -3.77997e-06)
(0.000352809 -0.000195142 -3.08059e-06)
(0.000283889 -0.000164075 -2.47888e-06)
(0.000224961 -0.000136695 -1.9644e-06)
(0.000174985 -0.000112406 -1.52807e-06)
(0.000133062 -9.07765e-05 -1.16204e-06)
(9.83983e-05 -7.15439e-05 -8.5937e-07)
(7.02594e-05 -5.46051e-05 -6.13664e-07)
(4.79423e-05 -4.00119e-05 -4.18783e-07)
(3.07535e-05 -2.79075e-05 -2.68674e-07)
(1.79538e-05 -1.83918e-05 -1.56885e-07)
(8.8883e-06 -1.12334e-05 -7.7698e-08)
(2.91226e-06 -5.70245e-06 -2.55075e-08)
(2.77422e-08 -1.00746e-06 -6.78318e-10)
(0.0119738 -0.0106448 -0.000104521)
(0.0107462 -0.00900163 -9.3806e-05)
(0.00959117 -0.00758538 -8.37245e-05)
(0.00851866 -0.00637295 -7.43629e-05)
(0.00753269 -0.00534145 -6.57567e-05)
(0.00663473 -0.00446859 -5.79185e-05)
(0.00582322 -0.00373344 -5.0835e-05)
(0.00509487 -0.00311678 -4.4477e-05)
(0.0044449 -0.00260124 -3.88031e-05)
(0.00386775 -0.00217142 -3.3765e-05)
(0.00335739 -0.00181383 -2.93098e-05)
(0.00290765 -0.00151679 -2.53838e-05)
(0.00251245 -0.00127027 -2.19339e-05)
(0.00216598 -0.00106574 -1.89093e-05)
(0.00186278 -0.000895995 -1.62625e-05)
(0.00159782 -0.000754984 -1.39495e-05)
(0.00136657 -0.000637667 -1.19307e-05)
(0.0011649 -0.000539824 -1.01701e-05)
(0.000989165 -0.00045797 -8.63599e-06)
(0.000836149 -0.000389222 -7.30017e-06)
(0.000703031 -0.000331203 -6.13805e-06)
(0.000587378 -0.000281968 -5.1284e-06)
(0.000487045 -0.000239902 -4.25248e-06)
(0.000400207 -0.000203694 -3.49438e-06)
(0.0003253 -0.000172278 -2.84041e-06)
(0.000260978 -0.00014479 -2.27884e-06)
(0.000206096 -0.000120544 -1.79969e-06)
(0.000159663 -9.90081e-05 -1.39429e-06)
(0.000120827 -7.98053e-05 -1.0552e-06)
(8.8837e-05 -6.27098e-05 -7.75877e-07)
(6.2999e-05 -4.76433e-05 -5.5026e-07)
(4.26433e-05 -3.46698e-05 -3.72504e-07)
(2.71021e-05 -2.39378e-05 -2.36779e-07)
(1.56556e-05 -1.5556e-05 -1.36806e-07)
(7.65325e-06 -9.32518e-06 -6.69037e-08)
(2.45059e-06 -4.58902e-06 -2.1465e-08)
(-8.33433e-10 -6.56153e-07 -3.53996e-10)
(0.0121097 -0.0101392 -0.000105708)
(0.0107764 -0.00849846 -9.4071e-05)
(0.00954142 -0.00710135 -8.32911e-05)
(0.00841087 -0.00591912 -7.34227e-05)
(0.00738518 -0.00492436 -6.44696e-05)
(0.00646234 -0.00409131 -5.64141e-05)
(0.00563768 -0.00339653 -4.92156e-05)
(0.00490513 -0.00281904 -4.28209e-05)
(0.00425761 -0.00234036 -3.71684e-05)
(0.00368763 -0.0019444 -3.21928e-05)
(0.00318759 -0.00161737 -2.78276e-05)
(0.00275011 -0.00134752 -2.40087e-05)
(0.00236819 -0.00112492 -2.06746e-05)
(0.00203532 -0.000941245 -1.77687e-05)
(0.00174554 -0.000789554 -1.5239e-05)
(0.00149349 -0.000664088 -1.30386e-05)