/*--------------------------------*- C++ -*----------------------------------*\
| =========                 |                                                 |
| \\      /  F ield         | OpenFOAM: The Open Source CFD Toolbox           |
|  \\    /   O peration     | Version:  v2012                                 |
|   \\  /    A nd           | Website:  www.openfoam.com                      |
|    \\/     M anipulation  |                                                 |
\*---------------------------------------------------------------------------*/
FoamFile
{
    version     2.0;
    format      ascii;
    class       surfaceScalarField;
    location    "0.3";
    object      phi;
}
// * * * * * * * * * * * * * * * * * * * * * * * * * * * * * * * * * * * * * //

dimensions      [0 3 -1 0 0 0 0];
oriented        oriented;


internalField   nonuniform List<scalar> 
8145
(
3.66307e-10
-1.66799e-09
-1.47481e-15
2.97096e-10
-1.52111e-09
-1.33293e-15
2.31438e-10
-1.35657e-09
-1.1585e-15
1.70497e-10
-1.17108e-09
-1.25321e-15
1.15665e-10
-9.61834e-10
-1.23287e-15
6.86649e-11
-7.27691e-10
-1.2764e-15
3.17023e-11
-4.70512e-10
-1.23167e-15
7.65501e-12
-2.00152e-10
-1.115e-15
4.29416e-11
-1.03354e-15
5.85589e-10
-1.9507e-09
2.14773e-16
5.10346e-10
-1.8431e-09
-7.82643e-16
4.36189e-10
-1.72568e-09
-1.50775e-15
3.63983e-10
-1.5958e-09
-1.34122e-15
2.94599e-10
-1.45175e-09
-1.14289e-15
2.29005e-10
-1.291e-09
-1.10653e-15
1.68325e-10
-1.11042e-09
-1.12757e-15
1.13909e-10
-9.07437e-10
-1.1947e-15
6.74209e-11
-6.81223e-10
-1.18831e-15
3.09936e-11
-4.34106e-10
-1.19589e-15
7.40716e-12
-1.76587e-10
-1.05479e-15
5.03291e-11
-1.01418e-15
2.95897e-10
-8.05632e-10
8.9134e-15
3.55924e-10
-9.33182e-10
4.72527e-15
4.21328e-10
-1.06724e-09
-6.40367e-17
4.91515e-10
-1.20627e-09
-2.71108e-15
5.65692e-10
-1.34855e-09
-4.37982e-16
6.42885e-10
-1.49221e-09
3.20561e-15
7.21922e-10
-1.63536e-09
2.13819e-15
8.01552e-10
-1.77575e-09
1.17187e-15
8.80446e-10
-1.91158e-09
1.49342e-15
9.57215e-10
-2.04071e-09
1.68956e-15
1.03048e-09
-2.16143e-09
2.61061e-15
1.09888e-09
-2.27211e-09
2.31969e-15
1.16117e-09
-2.37112e-09
2.6497e-15
1.2162e-09
-2.45778e-09
2.78934e-15
1.26301e-09
-2.53083e-09
2.89645e-15
1.30078e-09
-2.59004e-09
2.70231e-15
1.32893e-09
-2.63523e-09
2.38987e-15
1.3471e-09
-2.66645e-09
1.89037e-15
1.3551e-09
-2.68414e-09
1.46174e-15
1.35298e-09
-2.68894e-09
8.72536e-16
1.34097e-09
-2.68175e-09
6.11331e-16
1.31945e-09
-2.66342e-09
1.99827e-16
1.28898e-09
-2.63507e-09
3.2073e-16
1.2502e-09
-2.5977e-09
3.10119e-16
1.20387e-09
-2.55176e-09
7.25423e-16
1.15076e-09
-2.4996e-09
6.75303e-16
1.09175e-09
-2.44036e-09
9.26028e-16
1.02766e-09
-2.37601e-09
8.81335e-16
9.59381e-10
-2.30594e-09
1.06018e-15
8.87776e-10
-2.23037e-09
7.83782e-16
8.13634e-10
-2.15065e-09
6.7827e-16
7.37818e-10
-2.06452e-09
3.25889e-16
6.61096e-10
-1.97279e-09
2.67251e-16
5.84268e-10
-1.87388e-09
1.13782e-16
5.081e-10
-1.76694e-09
-5.45587e-16
4.33345e-10
-1.65094e-09
-1.27701e-15
3.60837e-10
-1.5233e-09
-1.10407e-15
2.91418e-10
-1.38234e-09
-1.08276e-15
2.26021e-10
-1.22561e-09
-9.82939e-16
1.65731e-10
-1.05014e-09
-1.09223e-15
1.1185e-10
-8.53576e-10
-1.09885e-15
6.59833e-11
-6.35376e-10
-1.15712e-15
3.01849e-11
-3.98329e-10
-1.11296e-15
7.12892e-12
-1.53552e-10
-1.0317e-15
5.74392e-11
-9.74629e-16
3.28278e-10
-8.64815e-10
3.41371e-16
3.93581e-10
-9.98416e-10
7.48826e-15
4.64323e-10
-1.13797e-09
1.84533e-15
5.39783e-10
-1.28175e-09
-2.8588e-15
6.19049e-10
-1.42782e-09
-1.45312e-15
7.01007e-10
-1.57414e-09
2.65012e-15
7.8434e-10
-1.71868e-09
1.56189e-15
8.67663e-10
-1.85906e-09
1.04263e-15
9.49531e-10
-1.99343e-09
1.4423e-15
1.02846e-09
-2.11962e-09
1.99198e-15
1.103e-09
-2.23595e-09
2.59793e-15
1.17177e-09
-2.34085e-09
2.65699e-15
1.23349e-09
-2.43281e-09
2.58519e-15
1.28706e-09
-2.51132e-09
3.0959e-15
1.33154e-09
-2.57528e-09
2.82091e-15
1.36622e-09
-2.6247e-09
3.03908e-15
1.39062e-09
-2.6596e-09
2.33894e-15
1.40447e-09
-2.68028e-09
2.25009e-15
1.40773e-09
-2.68739e-09
1.40505e-15
1.40059e-09
-2.68178e-09
1.18594e-15
1.38338e-09
-2.66453e-09
4.88588e-16
1.35663e-09
-2.63667e-09
4.26128e-16
1.32101e-09
-2.59943e-09
1.13584e-16
1.27724e-09
-2.55393e-09
4.02338e-16
1.22618e-09
-2.5007e-09
4.07167e-16
1.16867e-09
-2.44208e-09
7.03354e-16
1.10562e-09
-2.3773e-09
6.57241e-16
1.0379e-09
-2.30829e-09
9.30935e-16
9.66425e-10
-2.23445e-09
8.19342e-16
8.92055e-10
-2.15598e-09
8.44822e-16
8.15578e-10
-2.07417e-09
5.18938e-16
7.37849e-10
-1.98678e-09
4.26409e-16
6.59619e-10
-1.89456e-09
1.96388e-16
5.8166e-10
-1.79592e-09
1.95104e-16
5.04717e-10
-1.69e-09
-5.1105e-16
4.29514e-10
-1.57576e-09
-9.7271e-16
3.56852e-10
-1.45065e-09
-1.04527e-15
2.87542e-10
-1.31305e-09
-9.64993e-16
2.22479e-10
-1.16057e-09
-9.92941e-16
1.62709e-10
-9.9039e-10
-1.0251e-15
1.09486e-10
-8.00371e-10
-1.10927e-15
6.43504e-11
-5.9026e-10
-1.10821e-15
2.92755e-11
-3.63275e-10
-1.11168e-15
6.81977e-12
-1.31117e-10
-9.96665e-16
6.42402e-11
-9.74129e-16
3.64628e-10
-9.29464e-10
5.73748e-15
4.35617e-10
-1.06932e-09
8.69031e-15
5.12078e-10
-1.21444e-09
-5.72632e-17
5.93128e-10
-1.36287e-09
-8.57607e-15
6.77709e-10
-1.51246e-09
-6.66993e-15
7.64564e-10
-1.66098e-09
2.25523e-16
8.5221e-10
-1.80632e-09
5.55087e-16
9.39127e-10
-1.94597e-09
1.66312e-17
1.02376e-09
-2.07805e-09
7.01069e-16
1.10452e-09
-2.20037e-09
6.59399e-16
1.17993e-09
-2.31133e-09
1.73235e-15
1.24854e-09
-2.40945e-09
1.69316e-15
1.30913e-09
-2.49337e-09
2.29974e-15
1.36061e-09
-2.56277e-09
2.69902e-15
1.40213e-09
-2.61678e-09
2.99737e-15
1.43308e-09
-2.65562e-09
2.96435e-15
1.45309e-09
-2.67959e-09
2.71731e-15
1.46204e-09
-2.6892e-09
2.2692e-15
1.46003e-09
-2.68537e-09
1.79619e-15
1.44739e-09
-2.66911e-09
1.1399e-15
1.42458e-09
-2.64172e-09
7.75755e-16
1.39227e-09
-2.60436e-09
2.73177e-16
1.35123e-09
-2.55839e-09
2.87937e-16
1.30229e-09
-2.50499e-09
1.50002e-16
1.24639e-09
-2.44479e-09
4.79761e-16
1.18441e-09
-2.38011e-09
4.39171e-16
1.11733e-09
-2.31021e-09
7.46559e-16
1.04603e-09
-2.23699e-09
7.29599e-16
9.71434e-10
-2.15984e-09
9.16745e-16
8.9441e-10
-2.07895e-09
6.96028e-16
8.15731e-10
-1.99549e-09
6.34025e-16
7.36237e-10
-1.90728e-09
3.3101e-16
6.56652e-10
-1.81498e-09
3.24696e-16
5.77725e-10
-1.71699e-09
1.0056e-16
5.00168e-10
-1.61245e-09
-3.55711e-16
4.24677e-10
-1.50028e-09
-8.85119e-16
3.52016e-10
-1.378e-09
-8.75533e-16
2.82962e-10
-1.24401e-09
-9.587e-16
2.18375e-10
-1.09599e-09
-9.20071e-16
1.59258e-10
-9.3129e-10
-1.0454e-15
1.06815e-10
-7.47946e-10
-1.06747e-15
6.25219e-11
-5.45988e-10
-1.12843e-15
2.8265e-11
-3.29039e-10
-1.07926e-15
6.47988e-12
-1.09352e-10
-1.01682e-15
7.07009e-11
-9.70142e-16
4.05488e-10
-1.00012e-09
5.95547e-15
4.82606e-10
-1.14636e-09
8.06881e-15
5.65159e-10
-1.29699e-09
-1.54674e-16
6.52121e-10
-1.44984e-09
-1.70329e-15
7.42219e-10
-1.60257e-09
-2.23579e-15
8.34043e-10
-1.75278e-09
2.69918e-15
9.25952e-10
-1.89822e-09
1.30518e-15
1.01629e-09
-2.0363e-09
4.89291e-16
1.10338e-09
-2.16513e-09
8.42955e-16
1.18557e-09
-2.28256e-09
1.00903e-15
1.26132e-09
-2.38705e-09
1.87115e-15
1.32919e-09
-2.47731e-09
2.23695e-15
1.38798e-09
-2.55213e-09
2.52975e-15
1.43669e-09
-2.61144e-09
3.28286e-15
1.47454e-09
-2.6546e-09
3.16553e-15
1.50106e-09
-2.68211e-09
3.48937e-15
1.51602e-09
-2.69453e-09
2.80958e-15
1.51945e-09
-2.69261e-09
2.7184e-15
1.51162e-09
-2.67751e-09
1.79927e-15
1.49299e-09
-2.65046e-09
1.46692e-15
1.46419e-09
-2.61292e-09
6.57724e-16
1.42601e-09
-2.56617e-09
4.74461e-16
1.37932e-09
-2.5117e-09
7.41558e-17
1.32506e-09
-2.45073e-09
2.45555e-16
1.26423e-09
-2.38395e-09
2.06378e-16
1.19777e-09
-2.31365e-09
5.10204e-16
1.12669e-09
-2.23911e-09
5.26978e-16
1.05188e-09
-2.16218e-09
8.36713e-16
9.74273e-10
-2.08223e-09
7.55519e-16
8.94731e-10
-1.99939e-09
8.26111e-16
8.14006e-10
-1.91476e-09
5.28972e-16
7.32913e-10
-1.82618e-09
4.59185e-16
6.52149e-10
-1.73421e-09
2.55328e-16
5.72427e-10
-1.63727e-09
1.88071e-16
4.94431e-10
-1.53445e-09
-3.71473e-16
4.18818e-10
-1.42467e-09
-6.79937e-16
3.46319e-10
-1.30552e-09
-8.52155e-16
2.77675e-10
-1.17538e-09
-8.64263e-16
2.13707e-10
-1.03204e-09
-9.51142e-16
1.55377e-10
-8.72978e-10
-1.00234e-15
1.03837e-10
-6.96425e-10
-1.10255e-15
6.04981e-11
-5.02669e-10
-1.10374e-15
2.71538e-11
-2.95715e-10
-1.10308e-15
6.10906e-12
-8.83282e-11
-1.00342e-15
7.67907e-11
-9.95047e-16
4.51381e-10
-1.0773e-09
8.46883e-15
5.35112e-10
-1.22998e-09
1.15784e-14
6.24165e-10
-1.38601e-09
3.71335e-15
7.1731e-10
-1.54299e-09
-1.1558e-15
8.13083e-10
-1.69836e-09
-2.79584e-15
9.09905e-10
-1.84957e-09
2.84573e-15
1.00596e-09
-1.99426e-09
1.69003e-15
1.09946e-09
-2.12979e-09
5.34018e-16
1.18863e-09
-2.25429e-09
9.45601e-16
1.27173e-09
-2.36565e-09
4.18089e-16
1.34721e-09
-2.46251e-09
1.64967e-15
1.41365e-09
-2.54373e-09
1.85721e-15
1.46989e-09
-2.60835e-09
2.70145e-15
1.51503e-09
-2.65655e-09
3.27956e-15
1.54845e-09
-2.68797e-09
3.57118e-15
1.56978e-09
-2.70342e-09
3.60816e-15
1.57899e-09
-2.7037e-09
3.24252e-15
1.57627e-09
-2.68987e-09
2.7781e-15
1.56205e-09
-2.66327e-09
2.13666e-15
1.53697e-09
-2.62536e-09
1.38667e-15
1.5018e-09
-2.57774e-09
8.63997e-16
1.45746e-09
-2.52183e-09
2.74853e-16
1.40493e-09
-2.45916e-09
1.84762e-16
1.34523e-09
-2.39104e-09
-2.6793e-17
1.27943e-09
-2.31814e-09
2.61202e-16
1.2085e-09
-2.24272e-09
2.54999e-16
1.13348e-09
-2.16409e-09
6.17957e-16
1.05528e-09
-2.08397e-09
6.55186e-16
9.74809e-10
-2.00175e-09
8.78621e-16
8.92914e-10
-1.91748e-09
7.12252e-16
8.10322e-10
-1.83217e-09
6.72365e-16
7.27819e-10
-1.74367e-09
3.8473e-16
6.46065e-10
-1.65245e-09
3.87861e-16
5.65738e-10
-1.55694e-09
1.1218e-16
4.87484e-10
-1.4562e-09
-2.38164e-16
4.11927e-10
-1.34913e-09
-6.45485e-16
3.39756e-10
-1.23335e-09
-7.09906e-16
2.71678e-10
-1.10731e-09
-8.74969e-16
2.08476e-10
-9.68854e-10
-8.92094e-16
1.51069e-10
-8.15587e-10
-1.03581e-15
1.00555e-10
-6.4593e-10
-1.0725e-15
5.82806e-11
-4.60414e-10
-1.13281e-15
2.59424e-11
-2.63398e-10
-1.0789e-15
5.70776e-12
-6.81144e-11
-1.02736e-15
8.24789e-11
-9.93698e-16
5.03005e-10
-1.16157e-09
9.35094e-15
5.93821e-10
-1.32068e-09
1.30832e-14
6.89746e-10
-1.48187e-09
7.15775e-15
7.89326e-10
-1.64254e-09
3.26573e-15
8.90886e-10
-1.79991e-09
2.95279e-16
9.92658e-10
-1.95129e-09
5.1067e-15
1.09266e-09
-2.09424e-09
2.42664e-15
1.18896e-09
-2.22608e-09
9.80896e-16
1.27969e-09
-2.34501e-09
9.90412e-16
1.36308e-09
-2.44903e-09
6.24889e-16
1.43755e-09
-2.53696e-09
1.75629e-15
1.50175e-09
-2.60791e-09
2.35485e-15
1.5546e-09
-2.66117e-09
3.01241e-15
1.59533e-09
-2.69724e-09
3.88878e-15
1.62345e-09
-2.71606e-09
3.83187e-15
1.6388e-09
-2.71874e-09
4.13207e-15
1.64152e-09
-2.70639e-09
3.36512e-15
1.632e-09
-2.68031e-09
3.14983e-15
1.61084e-09
-2.6421e-09
2.09192e-15
1.57886e-09
-2.59336e-09
1.59686e-15
1.53698e-09
-2.53585e-09
6.7639e-16
1.48622e-09
-2.47108e-09
3.73251e-16
1.42769e-09
-2.40063e-09
-7.96081e-17
1.36248e-09
-2.32583e-09
1.31544e-17
1.2917e-09
-2.24735e-09
-1.97656e-17
1.21637e-09
-2.1674e-09
3.12051e-16
1.13753e-09
-2.08524e-09
4.07018e-16
1.05608e-09
-2.00251e-09
7.63283e-16
9.72915e-10
-1.91857e-09
7.37457e-16
8.8886e-10
-1.83342e-09
8.58121e-16
8.04607e-10
-1.74792e-09
5.90265e-16
7.20901e-10
-1.65996e-09
5.2808e-16
6.38364e-10
-1.56992e-09
3.3514e-16
5.57634e-10
-1.47621e-09
2.20197e-16
4.79317e-10
-1.37789e-09
-2.602e-16
4.03997e-10
-1.27381e-09
-4.74955e-16
3.32327e-10
-1.16169e-09
-7.09554e-16
2.64976e-10
-1.03997e-09
-7.96237e-16
2.02686e-10
-9.0658e-10
-9.33616e-16
1.46336e-10
-7.59254e-10
-1.00153e-15
9.69732e-11
-5.96586e-10
-1.11278e-15
5.58716e-11
-4.19333e-10
-1.11083e-15
2.46324e-11
-2.32179e-10
-1.10332e-15
5.27602e-12
-4.87789e-11
-1.01161e-15
8.77354e-11
-1.01444e-15
5.61067e-10
-1.25353e-09
8.50165e-15
6.59451e-10
-1.41895e-09
1.20859e-14
7.62602e-10
-1.58496e-09
7.04011e-15
8.68817e-10
-1.74874e-09
1.62067e-15
9.76199e-10
-1.90729e-09
-6.09346e-16
1.08279e-09
-2.05782e-09
5.62024e-15
1.18642e-09
-2.19784e-09
3.43952e-15
1.28504e-09
-2.32468e-09
1.78895e-15
1.37671e-09
-2.43665e-09
1.71307e-15
1.45962e-09
-2.53193e-09
6.31982e-16
1.53223e-09
-2.60956e-09
1.90939e-15
1.59326e-09
-2.66892e-09
2.30643e-15
1.64178e-09
-2.70964e-09
3.31399e-15
1.67714e-09
-2.73256e-09
4.04484e-15
1.69907e-09
-2.73794e-09
4.23072e-15
1.7076e-09
-2.72723e-09
4.29204e-15
1.70308e-09
-2.70184e-09
3.69957e-15
1.6861e-09
-2.6633e-09
3.15482e-15
1.65747e-09
-2.61344e-09
2.27747e-15
1.61816e-09
-2.55403e-09
1.42795e-15
1.56924e-09
-2.48692e-09
7.4387e-16
1.51186e-09
-2.41371e-09
1.01914e-16
1.44723e-09
-2.33599e-09
-6.13109e-17
1.37648e-09
-2.25508e-09
-2.86688e-16
1.30078e-09
-2.17165e-09
2.23292e-18
1.22115e-09
-2.08777e-09
6.28254e-17
1.13863e-09
-2.00271e-09
4.90653e-16
1.05412e-09
-1.918e-09
5.9514e-16
9.68474e-10
-1.83292e-09
8.66957e-16
8.82483e-10
-1.74741e-09
7.621e-16
7.96796e-10
-1.66223e-09
7.43484e-16
7.12116e-10
-1.57527e-09
4.68057e-16
6.2902e-10
-1.48682e-09
4.8038e-16
5.48101e-10
-1.39529e-09
1.69283e-16
4.69923e-10
-1.29971e-09
-1.3093e-16
3.95031e-10
-1.19893e-09
-4.69189e-16
3.24037e-10
-1.09071e-09
-5.90294e-16
2.57574e-10
-9.73519e-10
-8.2181e-16
1.96345e-10
-8.45367e-10
-8.85895e-16
1.41188e-10
-7.04113e-10
-1.04261e-15
9.30956e-11
-5.48513e-10
-1.08778e-15
5.3275e-11
-3.79532e-10
-1.14107e-15
2.32251e-11
-2.0215e-10
-1.07907e-15
4.81459e-12
-3.03893e-11
-1.03186e-15
9.25303e-11
-1.00878e-15
6.2639e-10
-1.3538e-09
4.14606e-15
7.32816e-10
-1.52528e-09
9.95652e-15
8.43502e-10
-1.6956e-09
6.1059e-15
9.56496e-10
-1.8617e-09
3.80969e-15
1.06965e-09
-2.02043e-09
1.29068e-15
1.1808e-09
-2.1689e-09
7.05038e-15
1.28761e-09
-2.30462e-09
3.7823e-15
1.38793e-09
-2.42498e-09
2.02285e-15
1.47975e-09
-2.52845e-09
1.79032e-15
1.56127e-09
-2.61344e-09
8.16231e-16
1.63104e-09
-2.67929e-09
2.13134e-15
1.68786e-09
-2.72572e-09
2.74169e-15
1.73098e-09
-2.75271e-09
3.67008e-15
1.75995e-09
-2.76149e-09
4.53836e-15
1.77473e-09
-2.75267e-09
4.48452e-15
1.77556e-09
-2.72803e-09
4.65653e-15
1.76303e-09
-2.68927e-09
3.75706e-15
1.73795e-09
-2.63819e-09
3.32742e-15
1.70132e-09
-2.57679e-09
2.12687e-15
1.6543e-09
-2.50698e-09
1.45199e-15
1.59808e-09
-2.4307e-09
4.64494e-16
1.53394e-09
-2.34957e-09
6.70472e-17
1.46314e-09
-2.2652e-09
-3.76773e-16
1.38689e-09
-2.17884e-09
-3.12024e-16
1.30637e-09
-2.09112e-09
-2.81464e-16
1.2226e-09
-2.004e-09
1.01609e-16
1.13661e-09
-1.91672e-09
2.9294e-16
1.04926e-09
-1.83064e-09
7.01736e-16
9.61378e-10
-1.74503e-09
7.44077e-16
8.73702e-10
-1.65972e-09
9.13235e-16
7.86835e-10
-1.57536e-09
6.75583e-16
7.01428e-10
-1.48986e-09
6.17469e-16
6.18012e-10
-1.4034e-09
4.40492e-16
5.37129e-10
-1.31441e-09
2.94064e-16
4.59302e-10
-1.22188e-09
-1.56276e-16
3.85033e-10
-1.12467e-09
-3.27929e-16
3.14895e-10
-1.02058e-09
-6.12496e-16
2.49483e-10
-9.08118e-10
-7.60677e-16
1.89464e-10
-7.85363e-10
-9.38739e-16
1.35632e-10
-6.50298e-10
-1.01802e-15
8.89303e-11
-5.01831e-10
-1.13272e-15
5.04953e-11
-3.41118e-10
-1.1216e-15
2.17234e-11
-1.73399e-10
-1.10293e-15
4.32385e-12
-1.30106e-11
-1.0135e-15
9.68345e-11
-1.02419e-15
6.99862e-10
-1.46297e-09
6.40404e-15
8.14783e-10
-1.64009e-09
1.10083e-14
9.33268e-10
-1.81403e-09
6.10658e-15
1.05308e-09
-1.98149e-09
1.88862e-15
1.17184e-09
-2.13918e-09
-4.61331e-16
1.28715e-09
-2.28416e-09
6.34353e-15
1.39655e-09
-2.41399e-09
3.61934e-15
1.49777e-09
-2.52618e-09
2.10423e-15
1.58879e-09
-2.61946e-09
1.96004e-15
1.66787e-09
-2.6925e-09
7.24991e-16
1.73363e-09
-2.74503e-09
2.15331e-15
1.78508e-09
-2.77714e-09
2.80829e-15
1.82164e-09
-2.78923e-09
3.89389e-15
1.84313e-09
-2.78293e-09
4.78773e-15
1.84973e-09
-2.75922e-09
4.75654e-15
1.84196e-09
-2.72023e-09
4.80658e-15
1.82066e-09
-2.66794e-09
3.89181e-15
1.78687e-09
-2.60437e-09
3.23485e-15
1.74177e-09
-2.53168e-09
2.09231e-15
1.6867e-09
-2.45189e-09
1.17482e-15
1.62299e-09
-2.36698e-09
3.58915e-16
1.55199e-09
-2.27858e-09
-2.75985e-16
1.47505e-09
-2.18825e-09
-4.62554e-16
1.39338e-09
-2.09718e-09
-6.32653e-16
1.3082e-09
-2.00593e-09
-2.98693e-16
1.2205e-09
-1.91631e-09
-1.38007e-16
1.13129e-09
-1.8275e-09
3.64838e-16
1.04137e-09
-1.74072e-09
5.49446e-16
9.5153e-10
-1.65518e-09
8.73846e-16
8.62452e-10
-1.57063e-09
8.30671e-16
7.74681e-10
-1.48758e-09
8.28639e-16
6.88815e-10
-1.40398e-09
5.64652e-16
6.0533e-10
-1.31991e-09
5.87529e-16
5.24721e-10
-1.2338e-09
2.51654e-16
4.47462e-10
-1.14463e-09
-4.10224e-17
3.74016e-10
-1.05123e-09
-3.51103e-16
3.04916e-10
-9.51487e-10
-5.17981e-16
2.40718e-10
-8.43933e-10
-8.01865e-16
1.82056e-10
-7.26716e-10
-9.04573e-16
1.2968e-10
-5.9794e-10
-1.06827e-15
8.4486e-11
-4.56657e-10
-1.11494e-15
4.75388e-11
-3.04191e-10
-1.15495e-15
2.01299e-11
-1.46011e-10
-1.08075e-15
3.80491e-12
3.2936e-12
-1.03246e-15
1.0062e-10
-1.01644e-15
7.82497e-10
-1.58162e-09
6.8777e-15
9.06315e-10
-1.7638e-09
1.12298e-14
1.03277e-09
-1.94043e-09
5.85281e-15
1.15935e-09
-2.10803e-09
3.95134e-15
1.28338e-09
-2.2632e-09
4.84304e-16
1.40229e-09
-2.40301e-09
6.53983e-15
1.51347e-09
-2.52514e-09
3.33567e-15
1.61461e-09
-2.62729e-09
1.81752e-15
1.7037e-09
-2.70852e-09
2.04285e-15
1.77908e-09
-2.76787e-09
8.11362e-16
1.83954e-09
-2.80547e-09
2.58353e-15
1.88431e-09
-2.82188e-09
3.18186e-15
1.91306e-09
-2.81794e-09
4.38037e-15
1.92589e-09
-2.7957e-09
5.14424e-15
1.92327e-09
-2.75655e-09
5.04377e-15
1.90601e-09
-2.70293e-09
4.96151e-15
1.8752e-09
-2.63709e-09
3.89057e-15
1.8321e-09
-2.56124e-09
3.16199e-15
1.77813e-09
-2.47768e-09
1.84134e-15
1.71474e-09
-2.38848e-09
9.86456e-16
1.6434e-09
-2.29564e-09
-1.19063e-18
1.56554e-09
-2.20073e-09
-4.53416e-16
1.48253e-09
-2.10525e-09
-8.15913e-16
1.39563e-09
-2.01029e-09
-7.27725e-16
1.30601e-09
-1.91631e-09
-5.80159e-16
1.21465e-09
-1.82496e-09
-1.25296e-16
1.12251e-09
-1.73535e-09
1.79776e-16
1.03034e-09
-1.64855e-09
6.46603e-16
9.38851e-10
-1.56368e-09
7.64073e-16
8.4868e-10
-1.48045e-09
9.75401e-16
7.60304e-10
-1.3992e-09
7.65707e-16
6.74262e-10
-1.31793e-09
7.07509e-16
5.90975e-10
-1.23661e-09
5.45141e-16
5.10884e-10
-1.15371e-09
3.7014e-16
4.34419e-10
-1.06816e-09
-8.18949e-17
3.61999e-10
-9.78812e-10
-2.42795e-16
2.94119e-10
-8.83615e-10
-5.62759e-16
2.313e-10
-7.81126e-10
-7.59047e-16
1.74139e-10
-6.69571e-10
-9.69113e-16
1.23349e-10
-5.47168e-10
-1.05499e-15
7.97744e-11
-4.13102e-10
-1.16603e-15
4.44126e-11
-2.6885e-10
-1.14042e-15
1.84488e-11
-1.20068e-10
-1.10626e-15
3.25854e-12
1.84629e-11
-1.01459e-15
1.03859e-10
-1.02976e-15
8.75278e-10
-1.71036e-09
8.90567e-15
1.00835e-09
-1.89675e-09
1.22916e-14
1.14286e-09
-2.07489e-09
5.1549e-15
1.27599e-09
-2.24112e-09
3.02114e-15
1.40481e-09
-2.39201e-09
-4.24035e-17
1.52657e-09
-2.5247e-09
6.98886e-15
1.63853e-09
-2.63707e-09
3.56079e-15
1.73838e-09
-2.72712e-09
2.10996e-15
1.82419e-09
-2.7943e-09
1.94129e-15
1.89443e-09
-2.8381e-09
7.30717e-16
1.94813e-09
-2.85915e-09
2.33659e-15
1.98479e-09
-2.8585e-09
3.36776e-15
2.00438e-09
-2.83748e-09
4.4278e-15
2.00733e-09
-2.79859e-09
5.51729e-15
1.99442e-09
-2.74359e-09
5.13106e-15
1.96678e-09
-2.67524e-09
5.13071e-15
1.92575e-09
-2.59602e-09
3.78866e-15
1.87285e-09
-2.50831e-09
3.00302e-15
1.80964e-09
-2.41446e-09
1.57315e-15
1.73776e-09
-2.31658e-09
6.31823e-16
1.65875e-09
-2.21663e-09
-2.81498e-16
1.5741e-09
-2.1161e-09
-8.43072e-16
1.48521e-09
-2.01637e-09
-1.00456e-15
1.3933e-09
-1.9184e-09
-1.05612e-15
1.29955e-09
-1.82256e-09
-6.42616e-16
1.20486e-09
-1.73028e-09
-3.54781e-16
1.11013e-09
-1.64061e-09
2.29861e-16
1.01605e-09
-1.55446e-09
5.05057e-16
9.23273e-10
-1.4709e-09
8.80946e-16
8.32347e-10
-1.38951e-09
8.95992e-16
7.43686e-10
-1.31054e-09
9.04283e-16
6.57769e-10
-1.232e-09
6.50327e-16
5.74956e-10
-1.1538e-09
6.76222e-16
4.95637e-10
-1.07439e-09
3.15912e-16
4.20194e-10
-9.92719e-10
6.55562e-18
3.49006e-10
-9.0763e-10
-2.95657e-16
2.8253e-10
-8.17146e-10
-4.93497e-16
2.21252e-10
-7.1986e-10
-8.14873e-16
1.65734e-10
-6.1407e-10
-9.48937e-16
1.16654e-10
-4.98106e-10
-1.11442e-15
7.48084e-11
-3.71277e-10
-1.15654e-15
4.11256e-11
-2.35189e-10
-1.17787e-15
1.6684e-11
-9.56472e-11
-1.08766e-15
2.68629e-12
3.24398e-11
-1.03395e-15
1.06525e-10
-1.02189e-15
9.79514e-10
-1.8497e-09
5.8206e-15
1.12206e-09
-2.03918e-09
1.11526e-14
1.26452e-09
-2.21732e-09
2.70827e-15
1.40379e-09
-2.38036e-09
2.54793e-15
1.53667e-09
-2.52489e-09
-9.77143e-16
1.66026e-09
-2.64822e-09
5.19705e-15
1.77174e-09
-2.74854e-09
2.05294e-15
1.86885e-09
-2.82422e-09
6.55666e-16
1.94978e-09
-2.87522e-09
1.76202e-15
2.01325e-09
-2.90155e-09
3.90221e-16
2.05857e-09
-2.90443e-09
2.91317e-15
2.08556e-09
-2.88545e-09
3.53625e-15
2.09457e-09
-2.84644e-09
5.08243e-15
2.08638e-09
-2.79034e-09
5.66143e-15
2.06213e-09
-2.71929e-09
5.49772e-15
2.02325e-09
-2.63632e-09
5.03141e-15
1.97137e-09
-2.54411e-09
3.77584e-15
1.90822e-09
-2.44513e-09
2.67448e-15
1.83555e-09
-2.34177e-09
1.27269e-15
1.75509e-09
-2.23611e-09
2.39056e-16
1.66847e-09
-2.13001e-09
-6.81006e-16
1.5772e-09
-2.02485e-09
-1.15305e-15
1.48268e-09
-1.92185e-09
-1.37012e-15
1.38611e-09
-1.82184e-09
-1.21968e-15
1.28858e-09
-1.72503e-09
-9.1492e-16
1.19095e-09
-1.63265e-09
-3.76334e-16
1.09403e-09
-1.54369e-09
5.40186e-17
9.98443e-10
-1.45887e-09
5.80313e-16
9.0475e-10
-1.37719e-09
7.74188e-16
8.1343e-10
-1.29817e-09
1.01903e-15
7.24826e-10
-1.22193e-09
8.34642e-16
6.39347e-10
-1.14651e-09
7.73093e-16
5.57295e-10
-1.07174e-09
6.17573e-16
4.79008e-10
-9.96098e-10
4.10379e-16
4.0482e-10
-9.18532e-10
-5.75554e-17
3.35071e-10
-8.37886e-10
-2.20747e-16
2.70181e-10
-7.52264e-10
-5.5934e-16
2.10602e-10
-6.60295e-10
-7.89853e-16
1.56868e-10
-5.60352e-10
-1.02386e-15
1.09618e-10
-4.50874e-10
-1.11201e-15
6.9604e-11
-3.31284e-10
-1.2132e-15
3.76879e-11
-2.03294e-10
-1.1686e-15
1.48413e-11
-7.28217e-11
-1.11498e-15
2.0894e-12
4.51707e-11
-1.01746e-15
1.08595e-10
-1.03423e-15
1.09617e-09
-2.00013e-09
5.62754e-15
1.24835e-09
-2.19123e-09
1.23241e-14
1.39855e-09
-2.36749e-09
2.8402e-15
1.54335e-09
-2.52513e-09
3.12453e-15
1.67933e-09
-2.66086e-09
-4.08216e-16
1.80345e-09
-2.77227e-09
7.31083e-15
1.91291e-09
-2.85797e-09
2.68922e-15
2.00556e-09
-2.91684e-09
1.27548e-15
2.0798e-09
-2.94944e-09
1.18674e-15
2.13465e-09
-2.9564e-09
3.46946e-16
2.1698e-09
-2.93955e-09
2.24863e-15
2.18546e-09
-2.90108e-09
3.91654e-15
2.1824e-09
-2.84332e-09
4.86292e-15
2.16181e-09
-2.76969e-09
6.20311e-15
2.12519e-09
-2.68261e-09
5.31885e-15
2.0743e-09
-2.58539e-09
5.25695e-15
2.01102e-09
-2.4808e-09
3.4017e-15
1.9373e-09
-2.37138e-09
2.50621e-15
1.85504e-09
-2.2595e-09
7.77139e-16
1.76604e-09
-2.14711e-09
-1.34799e-16
1.67199e-09
-2.03596e-09
-1.11836e-15
1.57439e-09
-1.92727e-09
-1.54727e-15
1.4746e-09
-1.82207e-09
-1.65025e-15
1.37376e-09
-1.72102e-09
-1.53636e-15
1.27289e-09
-1.62416e-09
-1.02479e-15
1.17277e-09
-1.53254e-09
-5.93316e-16
1.07411e-09
-1.44503e-09
7.27137e-17
9.77447e-10
-1.3622e-09
4.42672e-16
8.83253e-10
-1.28299e-09
8.63634e-16
7.91927e-10
-1.20683e-09
9.31346e-16
7.03736e-10
-1.13373e-09
9.44672e-16
6.19021e-10
-1.06179e-09
7.01416e-16
5.38025e-10
-9.90737e-10
7.20303e-16
4.61034e-10
-9.19104e-10
3.33102e-16
3.88336e-10
-8.45834e-10
-1.81181e-18
3.20232e-10
-7.69788e-10
-3.0088e-16
2.57108e-10
-6.89148e-10
-5.14798e-16
1.99386e-10
-6.02586e-10
-8.58932e-16
1.47569e-10
-5.08552e-10
-1.01689e-15
1.02264e-10
-4.05589e-10
-1.17886e-15
6.4179e-11
-2.9322e-10
-1.21107e-15
3.41115e-11
-1.73248e-10
-1.20911e-15
1.29264e-11
-5.16578e-11
-1.09953e-15
1.46996e-12
5.66063e-11
-1.03678e-15
1.10045e-10
-1.0262e-15
1.22701e-09
-2.16189e-09
5.37548e-15
1.38867e-09
-2.35274e-09
1.49279e-14
1.54605e-09
-2.52483e-09
4.45067e-15
1.6954e-09
-2.67446e-09
1.50685e-15
1.83312e-09
-2.79859e-09
-1.91684e-15
1.95613e-09
-2.89522e-09
4.93232e-15
2.06169e-09
-2.96352e-09
1.17777e-15
2.14782e-09
-3.00298e-09
-1.01108e-15
2.21328e-09
-3.01488e-09
9.39851e-16
2.25746e-09
-3.00057e-09
-7.0296e-16
2.2805e-09
-2.96255e-09
2.85833e-15
2.28309e-09
-2.90362e-09
3.55108e-15
2.26646e-09
-2.82664e-09
5.59914e-15
2.23222e-09
-2.73538e-09
5.90786e-15
2.18228e-09
-2.63261e-09
5.74083e-15
2.11869e-09
-2.52176e-09
4.79429e-15
2.0436e-09
-2.40568e-09
3.41279e-15
1.95913e-09
-2.28689e-09
1.90179e-15
1.86728e-09
-2.16764e-09
4.90719e-16
1.76993e-09
-2.04976e-09
-7.13612e-16
1.66874e-09
-1.93479e-09
-1.50063e-15
1.56521e-09
-1.82375e-09
-1.96869e-15
1.46061e-09
-1.71749e-09
-1.99326e-15
1.356e-09
-1.61643e-09
-1.76042e-15
1.25231e-09
-1.52048e-09
-1.27615e-15
1.1502e-09
-1.43044e-09
-6.52919e-16
1.0503e-09
-1.34513e-09
-9.50803e-17
9.53029e-10
-1.26493e-09
4.85301e-16
8.58777e-10
-1.18873e-09
7.50819e-16
7.67851e-10
-1.11589e-09
1.01923e-15
6.80445e-10
-1.04632e-09
8.58583e-16
5.96831e-10
-9.78163e-10
7.93662e-16
5.17193e-10
-9.11094e-10
6.37643e-16
4.41764e-10
-8.43674e-10
3.94904e-16
3.70791e-10
-7.74862e-10
-9.07781e-17
3.04537e-10
-7.03541e-10
-2.5772e-16
2.43356e-10
-6.27976e-10
-6.00197e-16
1.87643e-10
-5.46887e-10
-8.51429e-16
1.37872e-10
-4.58799e-10
-1.10037e-15
9.46197e-11
-3.62357e-10
-1.18564e-15
5.85545e-11
-2.57177e-10
-1.27124e-15
3.04101e-11
-1.45125e-10
-1.20383e-15
1.09469e-11
-3.22159e-11
-1.12728e-15
8.29835e-13
6.67024e-11
-1.02091e-15
1.10855e-10
-1.03686e-15
1.3727e-09
-2.33522e-09
9.82602e-15
1.54364e-09
-2.52349e-09
2.06806e-14
1.70747e-09
-2.68861e-09
4.63652e-15
1.86017e-09
-2.82714e-09
4.00486e-16
1.99799e-09
-2.93643e-09
-3.86787e-15
2.11791e-09
-3.01507e-09
6.79554e-15
2.21733e-09
-3.06292e-09
8.69221e-16
2.29461e-09
-3.08026e-09
-4.45889e-16
2.34894e-09
-3.06919e-09
-5.56502e-16
2.3802e-09
-3.03183e-09
-7.14646e-16
2.38907e-09
-2.9714e-09
1.44345e-15
2.37679e-09
-2.8913e-09
4.05182e-15
2.34509e-09
-2.79488e-09
4.80172e-15
2.29605e-09
-2.68627e-09
6.53635e-15
2.23193e-09
-2.56844e-09
5.08821e-15
2.15511e-09
-2.4449e-09
5.0663e-15
2.06795e-09
-2.31849e-09
2.68649e-15
1.9727e-09
-2.19162e-09
1.77576e-15
1.87145e-09
-2.06638e-09
-2.32455e-16
1.76607e-09
-1.94439e-09
-1.04026e-15
1.6582e-09
-1.82694e-09
-2.07102e-15
1.54925e-09
-1.71483e-09
-2.31702e-15
1.4404e-09
-1.60866e-09
-2.34651e-15
1.33261e-09
-1.50866e-09
-2.04007e-15
1.22668e-09
-1.41456e-09
-1.42923e-15
1.12316e-09
-1.32693e-09
-8.5037e-16
1.02255e-09
-1.24453e-09
-1.12531e-16
9.25184e-10
-1.16756e-09
3.47844e-16
8.31338e-10
-1.09488e-09
8.02135e-16
7.41239e-10
-1.02578e-09
9.15099e-16
6.55002e-10
-9.60081e-10
9.29766e-16
5.72831e-10
-8.95983e-10
7.00962e-16
4.94855e-10
-8.33112e-10
7.05006e-16
4.21257e-10
-7.70075e-10
2.90357e-16
3.52242e-10
-7.05849e-10
-6.914e-17
2.88041e-10
-6.39346e-10
-3.62282e-16
2.28976e-10
-5.6892e-10
-5.80583e-16
1.75417e-10
-4.93343e-10
-9.33227e-16
1.27815e-10
-4.11215e-10
-1.10574e-15
8.6717e-11
-3.2128e-10
-1.25749e-15
5.2754e-11
-2.23236e-10
-1.27456e-15
2.65997e-11
-1.18993e-10
-1.24534e-15
8.91092e-12
-1.45485e-11
-1.1136e-15
1.71819e-13
7.54206e-11
-1.03878e-15
1.11007e-10
-1.02764e-15
1.53561e-09
-2.52002e-09
-6.09555e-15
1.7151e-09
-2.70273e-09
2.48612e-14
1.88404e-09
-2.85754e-09
2.52526e-15
2.03825e-09
-2.98137e-09
-4.9842e-15
2.17395e-09
-3.07219e-09
-7.41358e-15
2.28825e-09
-3.12933e-09
1.60037e-15
2.37885e-09
-3.15353e-09
-1.80793e-15
2.44457e-09
-3.146e-09
-4.65851e-15
2.48512e-09
-3.10976e-09
-1.18797e-15
2.50103e-09
-3.04774e-09
-3.02826e-15
2.49359e-09
-2.96393e-09
1.94962e-15
2.46463e-09
-2.8623e-09
2.70366e-15
2.41643e-09
-2.74663e-09
5.51088e-15
2.35153e-09
-2.6213e-09
5.47861e-15
2.27256e-09
-2.48941e-09
5.51854e-15
2.18216e-09
-2.35446e-09
4.07491e-15
2.08286e-09
-2.21917e-09
2.74795e-15
1.97701e-09
-2.08576e-09
8.54735e-16
1.86672e-09
-1.95609e-09
-4.40019e-16
1.75381e-09
-1.83149e-09
-1.78837e-15
1.63985e-09
-1.713e-09
-2.37421e-15
1.52614e-09
-1.60114e-09
-2.82401e-15
1.41372e-09
-1.49627e-09
-2.62731e-15
1.30342e-09
-1.39838e-09
-2.31032e-15
1.19591e-09
-1.30705e-09
-1.64259e-15
1.09159e-09
-1.22263e-09
-9.45242e-16
9.90866e-10
-1.1438e-09
-2.68629e-16
8.93932e-10
-1.07063e-09
3.52626e-16
8.00981e-10
-1.00192e-09
6.78709e-16
7.12148e-10
-9.36934e-10
9.59383e-16
6.27472e-10
-8.75401e-10
8.21566e-16
5.47093e-10
-8.15595e-10
7.56234e-16
4.71085e-10
-7.57099e-10
5.94597e-16
3.99584e-10
-6.98574e-10
3.15874e-16
3.32759e-10
-6.39026e-10
-1.82107e-16
2.70807e-10
-5.77402e-10
-3.49941e-16
2.14025e-10
-5.12149e-10
-6.85378e-16
1.62761e-10
-4.42093e-10
-9.43945e-16
1.17442e-10
-3.65915e-10
-1.1963e-15
7.85914e-11
-2.82451e-10
-1.2716e-15
4.68048e-11
-1.91472e-10
-1.33571e-15
2.26982e-11
-9.49092e-11
-1.24228e-15
6.82826e-12
1.29998e-12
-1.13997e-15
-5.0136e-13
8.27293e-11
-1.02233e-15
1.10486e-10
-1.03534e-15
1.71567e-09
-2.71605e-09
2.14299e-14
1.90294e-09
-2.88955e-09
5.00903e-14
2.07549e-09
-3.03002e-09
8.30608e-15
2.22912e-09
-3.135e-09
-1.29249e-15
2.36013e-09
-3.20322e-09
-6.97475e-15
2.46592e-09
-3.23505e-09
6.3962e-15
2.54466e-09
-3.23227e-09
-1.4499e-15
2.59579e-09
-3.19714e-09
-2.70903e-15
2.61973e-09
-3.13369e-09
-3.19733e-15
2.61772e-09
-3.04575e-09
-2.24324e-15
2.59178e-09
-2.93798e-09
-1.60418e-16
2.54439e-09
-2.81488e-09
3.61554e-15
2.4784e-09
-2.68058e-09
3.93571e-15
2.39677e-09
-2.53961e-09
6.23629e-15
2.30248e-09
-2.39507e-09
4.18561e-15
2.19838e-09
-2.25032e-09
4.41577e-15
2.08711e-09
-2.10789e-09
1.57561e-15
1.97107e-09
-1.96971e-09
8.31737e-16
1.8523e-09
-1.83732e-09
-1.39662e-15
1.73256e-09
-1.71176e-09
-1.9972e-15
1.61326e-09
-1.59372e-09
-3.05198e-15
1.49556e-09
-1.48347e-09
-3.07299e-15
1.38036e-09
-1.38109e-09
-3.03054e-15
1.2683e-09
-1.28636e-09
-2.52348e-15
1.15993e-09
-1.19868e-09
-1.82789e-15
1.05549e-09
-1.11821e-09
-1.11086e-15
9.55264e-10
-1.04357e-09
-3.20253e-16
8.59327e-10
-9.74689e-10
2.16874e-16
7.67776e-10
-9.1036e-10
6.87364e-16
6.80658e-10
-8.49804e-10
8.35524e-16
5.97942e-10
-7.92681e-10
8.4845e-16
5.19705e-10
-7.37349e-10
6.39471e-16
4.45969e-10
-6.83358e-10
6.22551e-16
3.76829e-10
-6.29435e-10
1.83112e-16
3.12418e-10
-5.74618e-10
-1.94528e-16
2.52907e-10
-5.179e-10
-4.77536e-16
1.9857e-10
-4.57823e-10
-6.92397e-16
1.49732e-10
-3.93271e-10
-1.03899e-15
1.06802e-10
-3.23006e-10
-1.21356e-15
7.02834e-11
-2.45954e-10
-1.34617e-15
4.07372e-11
-1.6195e-10
-1.34248e-15
1.87263e-11
-7.29212e-11
-1.28263e-15
4.70981e-12
1.52949e-11
-1.12663e-15
-1.18597e-12
8.86043e-11
-1.03727e-15
1.09281e-10
-1.02382e-15
1.91659e-09
-2.92211e-09
3.13649e-14
2.10963e-09
-3.08205e-09
5.91587e-14
2.28321e-09
-3.20351e-09
1.23124e-14
2.43313e-09
-3.28497e-09
-7.67246e-15
2.55596e-09
-3.32614e-09
-1.0805e-14
2.6496e-09
-3.32866e-09