/*--------------------------------*- C++ -*----------------------------------*\
| =========                 |                                                 |
| \\      /  F ield         | OpenFOAM: The Open Source CFD Toolbox           |
|  \\    /   O peration     | Version:  v2012                                 |
|   \\  /    A nd           | Website:  www.openfoam.com                      |
|    \\/     M anipulation  |                                                 |
\*---------------------------------------------------------------------------*/
FoamFile
{
    version     2.0;
    format      ascii;
    class       volScalarField;
    location    "1";
    object      alpha.water;
}
// * * * * * * * * * * * * * * * * * * * * * * * * * * * * * * * * * * * * * //

dimensions      [0 0 0 0 0 0 0];


internalField   nonuniform List<scalar> 
3326
(
6.19472e-162
2.61262e-161
1.30145e-160
7.78131e-160
5.7145e-159
5.33827e-158
6.71935e-157
1.26868e-155
4.6783e-154
4.12563e-160
1.09402e-159
3.33897e-159
1.17936e-158
4.85831e-158
2.36058e-157
1.37475e-156
9.81989e-156
8.9088e-155
1.08713e-153
1.98587e-152
7.06639e-151
0.00529648
1.79533e-06
1.94887e-10
1.41772e-15
1.08792e-23
1.13976e-32
3.87479e-40
3.28329e-46
1.53616e-52
2.6714e-74
2.5881e-74
1.54639e-76
2.86317e-79
4.15861e-84
1.20311e-86
3.37119e-90
3.56051e-95
3.6133e-99
1.47431e-102
4.86146e-107
2.06078e-113
7.05526e-119
1.33399e-129
5.75094e-145
2.08357e-145
1.34186e-146
6.31067e-158
5.92403e-158
6.53876e-158
8.39465e-158
1.24415e-157
2.11885e-157
4.13505e-157
9.24204e-157
2.36833e-156
6.9798e-156
2.3786e-155
9.4449e-155
4.41879e-154
2.47475e-153
1.69736e-152
1.47565e-151
1.72095e-150
2.99205e-149
1.0054e-147
0.00760255
3.95795e-06
2.11321e-10
1.70864e-15
1.62021e-23
1.73945e-32
5.79807e-40
5.49443e-46
2.73979e-52
2.39089e-71
4.9792e-74
2.91269e-76
5.94115e-79
8.38552e-84
2.1159e-86
7.62291e-90
1.23137e-94
9.08553e-99
3.06666e-102
1.49448e-106
1.83947e-112
9.33172e-118
1.33341e-128
6.76387e-145
3.09627e-145
6.37115e-146
5.26762e-154
5.4246e-154
6.4813e-154
8.91183e-154
1.40243e-153
2.51802e-153
5.14999e-153
1.2003e-152
3.19384e-152
9.73832e-152
3.42276e-151
1.398e-150
6.71322e-150
3.85302e-149
2.70606e-148
2.41515e-147
3.03546e-146
1.38327e-144
8.5433e-143
0.0102062
7.35195e-06
2.2787e-10
1.95068e-15
2.41299e-23
2.66273e-32
8.73274e-40
9.1172e-46
4.95951e-52
1.16203e-71
9.30853e-74
5.83895e-76
1.25921e-78
1.77752e-83
4.51507e-86
1.59972e-89
4.2199e-94
2.87265e-98
6.95383e-102
4.34898e-106
1.44102e-111
9.91195e-117
3.21506e-128
7.2158e-145
3.55503e-145
8.69506e-146
6.72166e-152
6.78495e-152
7.90099e-152
1.0539e-151
1.60254e-151
2.77054e-151
5.43864e-151
1.21286e-150
3.07911e-150
8.93707e-150
2.98663e-149
1.15971e-148
5.28931e-148
2.87519e-147
1.96583e-146
9.1867e-146
5.2042e-146
1.36445e-138
7.88398e-137
0.0128996
1.20844e-05
2.56275e-10
2.10618e-15
3.59549e-23
4.08991e-32
1.33247e-39
1.49476e-45
8.98631e-52
2.37588e-71
1.75624e-73
1.21826e-75
2.74679e-78
3.9992e-83
1.29513e-85
3.36556e-89
1.3922e-93
1.09852e-97
1.8609e-101
1.30598e-105
9.98743e-111
8.93363e-116
2.86317e-133
7.14914e-145
3.83715e-145
9.97721e-146
4.00391e-150
4.04656e-150
4.69432e-150
6.21199e-150
9.33619e-150
1.59009e-149
3.06781e-149
6.72176e-149
1.68004e-148
4.81089e-148
1.58118e-147
5.99979e-147
2.80018e-146
1.05808e-145
1.20263e-145
-2.53374e-143
-3.22382e-143
1.03977e-132
5.76016e-131
0.0154968
1.83186e-05
3.59305e-10
2.16838e-15
5.36413e-23
6.3066e-32
2.07508e-39
2.41827e-45
1.60988e-51
3.5805e-71
3.27308e-73
2.56095e-75
6.19681e-78
9.65359e-83
4.65266e-85
7.92948e-89
4.5647e-93
4.86127e-97
6.40043e-101
4.37452e-105
6.07812e-110
1.2119e-114
6.22835e-131
2.34265e-145
3.80719e-145
1.10414e-145
1.30414e-148
1.33229e-148
1.55193e-148
2.05072e-148
3.06773e-148
5.20186e-148
1.00165e-147
2.18775e-147
5.3945e-147
1.51988e-146
5.40702e-146
1.25997e-145
1.44334e-145
3.40548e-145
1.0367e-142
-4.34931e-138
7.95308e-137
6.16435e-127
3.27117e-125
0.0178182
2.61482e-05
8.58028e-10
2.17616e-15
8.02046e-23
9.76911e-32
3.32158e-39
3.86661e-45
2.82775e-51
4.65485e-71
6.00356e-73
5.27466e-75
1.44516e-77
2.52577e-82
1.71486e-84
2.33744e-88
1.60804e-92
2.40894e-96
2.825e-100
1.72313e-104
3.59712e-109
2.68889e-113
1.42785e-128
-6.22238e-143
4.49148e-145
1.23208e-145
2.15683e-147
2.22423e-147
2.60543e-147
3.46144e-147
5.21164e-147
8.86247e-147
1.70062e-146
3.8157e-146
1.12186e-145
1.56214e-145
1.89219e-145
5.58277e-145
1.34736e-142
7.54969e-140
5.90235e-137
-1.36709e-131
6.67008e-131
2.78903e-121
1.41638e-119
0.0197432
3.56653e-05
2.70661e-09
2.04383e-15
1.20324e-22
1.52131e-31
5.48919e-39
6.14036e-45
4.85497e-51
1.59519e-70
1.08469e-72
1.04997e-74
3.46045e-77
7.20228e-82
5.73775e-84
8.51764e-88
6.60994e-92
1.27695e-95
1.43809e-99
8.37599e-104
2.71795e-108
3.51588e-112
3.48891e-126
-1.24802e-140
4.79343e-145
2.05949e-145
1.93164e-146
2.00659e-146
2.37854e-146
3.18432e-146
4.81757e-146
8.69921e-146
1.83794e-145
2.04942e-145
2.71675e-145
1.68941e-144
3.86692e-142
1.31444e-139
5.66981e-137
3.22708e-134
2.55842e-131
-1.77666e-125
2.26224e-125
9.43776e-116
4.58242e-114
0.0212974
4.70247e-05
7.27467e-09
1.71693e-15
1.81338e-22
2.38368e-31
9.35836e-39
9.77291e-45
8.17235e-51
5.63231e-70
1.94792e-72
2.02611e-74
8.41371e-77
2.22757e-81
1.73015e-83
3.26372e-87
3.19822e-91
6.85245e-95
7.82441e-99
5.44422e-103
3.44119e-107
2.35953e-111
9.11944e-124
-2.5982e-138
7.57271e-145
3.89008e-145
1.09338e-145
1.1651e-145
1.40792e-145
2.02799e-145
2.55086e-145
2.8319e-145
4.10348e-145
9.38687e-144
1.7905e-141
4.18387e-139
1.17414e-136
4.05266e-134
1.77405e-131
1.02498e-128
8.25107e-126
-2.80789e-120
6.47696e-120
2.33854e-110
1.08456e-108
0.0225822
6.02294e-05
1.53905e-08
1.47375e-15
2.74867e-22
3.76121e-31
1.63404e-38
1.58047e-44
1.36236e-50
4.73785e-70
3.5351e-72
3.86183e-74
2.0543e-76
7.34033e-81
4.98278e-83
1.15735e-86
1.65774e-90
3.65277e-94
4.7177e-98
4.99565e-102
5.69527e-106
1.48852e-110
2.56031e-121
-5.66987e-136
5.76288e-143
6.73588e-145
3.62263e-145
3.76272e-145
3.86616e-145
4.34108e-145
9.93206e-145
7.21909e-143
1.09277e-140
1.90166e-138
3.83229e-136
9.0945e-134
2.59195e-131
9.08795e-129
4.04237e-126
2.37397e-123
1.94315e-120
-1.93578e-115
5.14078e-112
4.15013e-105
1.83665e-103
0.0234451
7.45059e-05
2.69313e-08
1.39887e-15
4.19467e-22
5.98236e-31
2.88569e-38
2.64385e-44
2.29073e-50
1.0091e-69
6.63513e-72
7.51348e-74
5.00591e-76
2.51426e-80
1.48394e-82
3.80477e-86
8.35195e-90
2.02744e-93
3.45992e-97
5.83488e-101
8.83813e-105
3.71395e-109
7.75473e-119
-1.28412e-133
1.19818e-139
4.5903e-143
6.50509e-145
6.94971e-145
6.16477e-144
6.14845e-142
7.54472e-140
1.03493e-137
1.60225e-135
2.83357e-133
5.80371e-131
1.40011e-128
4.0575e-126
1.44703e-123
6.54913e-121
3.91497e-118
3.26324e-115
-6.88647e-111
1.90431e-106
5.15412e-100
2.17438e-98
0.0237271
8.74909e-05
4.0551e-08
1.44514e-15
6.44991e-22
9.60171e-31
5.08179e-38
4.65946e-44
3.99145e-50
1.39578e-69
1.32039e-71
1.55738e-73
1.22028e-75
8.79858e-80
4.81166e-82
1.28288e-85
4.06887e-89
1.27493e-92
3.15027e-96
7.43022e-100
1.54954e-103
6.64634e-108
2.54591e-116
5.59975e-130
3.0531e-136
1.19543e-139
5.4021e-143
5.07186e-141
5.2196e-139
5.89249e-137
7.3617e-135
1.02713e-132
1.6176e-130
2.91052e-128
6.06634e-126
1.48963e-123
4.39543e-121
1.59664e-118
7.36342e-116
4.48739e-113
3.81509e-110
-1.46954e-106
4.54079e-100
4.372e-95
1.75645e-93
0.0235982
9.5883e-05
5.31328e-08
4.23786e-15
9.99787e-22
1.55709e-30
8.82402e-38
8.74078e-44
7.43943e-50
3.70452e-69
2.82989e-71
3.57481e-73
3.01233e-75
3.14991e-79
1.65606e-81
5.08495e-85
2.11181e-88
9.45625e-92
3.24676e-95
1.04873e-98
3.57589e-102
1.88847e-107
9.10635e-114
5.78381e-127
9.71175e-133
3.05519e-136
3.3767e-138
3.28312e-136
3.44042e-134
3.95439e-132
5.0304e-130
7.1474e-128
1.14647e-125
2.10142e-123
4.46306e-121
1.11706e-118
3.36088e-116
1.24536e-113
5.86158e-111
3.64765e-108
3.16863e-105
-3.39119e-102
2.25764e-94
2.46934e-90
9.43898e-89
0.0227415
9.86395e-05
6.11842e-08
3.52193e-14
1.56283e-21
2.55553e-30
1.50379e-37
1.73216e-43
1.5158e-49
6.91976e-69
6.49495e-71
9.16247e-73
7.68716e-75
1.1752e-78
5.61217e-81
2.47599e-84
1.36526e-87
8.03244e-91
3.59283e-94
1.78377e-97
5.89294e-101
5.11391e-107
3.56855e-111
4.36245e-124
4.04155e-129
8.65923e-132
1.83413e-133
1.81712e-131
1.94087e-129
2.27404e-127
2.94926e-125
4.2729e-123
6.99019e-121
1.30708e-118
2.83276e-116
7.23765e-114
2.22382e-111
8.41936e-109
4.05118e-106
2.57893e-103
2.29332e-100
2.75887e-98
1.67857e-89
9.04531e-86
3.28645e-84
0.0211181
9.83682e-05
6.39571e-08
1.64388e-13
2.46479e-21
4.25417e-30
2.52749e-37
3.53277e-43
3.34343e-49
1.36039e-68
1.55664e-70
2.53369e-72
2.07581e-74
4.66108e-78
1.80926e-80
1.31034e-83
1.1859e-86
7.88969e-90
4.68014e-93
2.90549e-96
3.79009e-100
1.47166e-104
1.54148e-108
3.22408e-121
6.88717e-126
4.70639e-127
6.08005e-129
6.1454e-127
6.69884e-125
8.01139e-123
1.06074e-120
1.56926e-118
2.62207e-116
5.00921e-114
1.10954e-111
2.89849e-109
9.11014e-107
3.5302e-104
1.73971e-101
1.13509e-98
1.0354e-95
5.2916e-93
6.16357e-85
2.09045e-81
7.21254e-80
0.0188289
9.05665e-05
6.39879e-08
3.79204e-13
3.92656e-21
7.20476e-30
4.26042e-37
7.18969e-43
7.64194e-49
2.62147e-68
3.82242e-70
7.24543e-72
6.02865e-74
1.96565e-77
5.82844e-80
6.7654e-83
1.15838e-85
9.41288e-89
7.61289e-92
3.17099e-95
1.02102e-99
4.64986e-102
7.3892e-106
2.51697e-118
7.86352e-123
1.76918e-121
1.20622e-124
1.24549e-122
1.38751e-120
1.69621e-118
2.29622e-116
3.47413e-114
5.93843e-112
1.16097e-109
2.63265e-107
7.04412e-105
2.26892e-102
9.01592e-100
4.55957e-97
3.05547e-94
2.86538e-91
1.88712e-88
1.24863e-80
2.96206e-77
9.69611e-76
0.0160229
7.52341e-05
5.78836e-08
5.29426e-13
6.33405e-21
1.24636e-29
7.42366e-37
1.43481e-42
1.72632e-48
4.7954e-68
9.91842e-70
2.17933e-71
1.88691e-73
8.6378e-77
2.08529e-79
3.58249e-82
9.91885e-85
1.19217e-87
1.06454e-90
1.814e-94
1.1754e-97
1.40323e-99
3.9601e-103
2.15185e-115
3.44249e-118
6.30645e-118
1.39684e-120
1.47561e-118
1.68261e-116
2.10597e-114
2.91965e-112
4.52526e-110
7.92684e-108
1.58874e-105
3.6951e-103
1.01459e-100
3.35568e-98
1.37019e-95
7.12635e-93
4.91603e-90
4.75112e-87
3.4551e-84
1.41945e-76
2.49785e-73
7.75116e-72
0.0129851
5.86754e-05
4.58095e-08
5.65557e-13
1.03933e-20
2.21395e-29
1.39184e-36
2.83035e-42
3.79037e-48
6.78849e-68
3.18814e-69
7.68276e-71
6.34808e-73
3.94116e-76
8.89878e-79
2.24048e-81
7.18739e-84
1.31672e-86
8.2538e-90
9.20335e-94
2.31989e-95
3.58006e-97
2.39258e-100
2.05845e-112
1.99928e-114
1.91196e-114
9.17547e-117
9.93285e-115
1.16128e-112
1.49071e-110
2.12032e-108
3.37285e-106
6.06611e-104
1.24886e-101
2.98514e-99
8.42873e-97
2.86871e-94
1.20635e-91
6.46775e-89
4.6044e-86
4.5982e-83
3.53907e-80
8.97047e-73
1.21554e-69
3.5731e-68
0.010048
4.27e-05
3.44415e-08
4.65855e-13
1.74713e-20
4.06509e-29
2.89525e-36
5.73661e-42
8.33485e-48
6.4656e-67
1.56633e-68
3.09303e-70
2.35501e-72
1.99573e-75
4.3408e-78
1.71703e-80
5.18161e-83
1.22787e-85
3.13203e-89
1.3293e-91
5.08851e-93
1.00973e-94
1.64488e-97
2.22685e-109
3.56e-111
3.26843e-111
3.31327e-113
3.68219e-111
4.42217e-109
5.83327e-107
8.52916e-105
1.3953e-102
2.58193e-100
5.47183e-98
1.34715e-95
3.92043e-93
1.3763e-90
5.97513e-88
3.31083e-85
2.43899e-82
2.52419e-79
2.0318e-76
3.08823e-69
3.30615e-66
9.20028e-65
0.00748468
2.95579e-05
2.47973e-08
2.0747e-13
3.03863e-20
7.77971e-29
6.61166e-36
1.27725e-41
1.98843e-47
6.41053e-66
6.68476e-68
1.33871e-69
1.06472e-71
1.33517e-74
2.3415e-77
1.4327e-79
4.19329e-82
6.30512e-85
3.95665e-88
2.60786e-89
1.24454e-90
3.18188e-92
1.30166e-94
2.7686e-106
3.96893e-108
3.66501e-108
6.36056e-110
7.27121e-108
8.98855e-106
1.22096e-103
1.83917e-101
3.10109e-99
5.91754e-97
1.29398e-94
3.28917e-92
9.89009e-90
3.59046e-87
1.61358e-84
9.26624e-82
7.08471e-79
7.62592e-76
6.29211e-73
5.64346e-66
4.8622e-63
1.28016e-61
0.00544111
1.99386e-05
1.7546e-08
7.69472e-14
5.53215e-20
1.56857e-28
1.57461e-35
3.33168e-41
5.72828e-47
5.47174e-66
3.61826e-67
8.51217e-69
7.21481e-71
1.52057e-73
1.64143e-76
1.33723e-78
3.12072e-81
1.17458e-84
6.71302e-86
5.77834e-87
3.41334e-88
1.12944e-89
1.18912e-91
4.06355e-103
6.04254e-105
5.99338e-105
6.26839e-107
7.3867e-105
9.41984e-103
1.32062e-100
2.05415e-98
3.57842e-96
7.05886e-94
1.59666e-91
4.20121e-89
1.30872e-86
4.92684e-84
2.29878e-81
1.37412e-78
1.0441e-75
8.69616e-73
5.21399e-70
5.31673e-63
3.73512e-60
9.29844e-59
0.0039299
1.35038e-05
1.27228e-08
5.05428e-14
1.067e-19
3.38209e-28
3.76681e-35
1.01056e-40
2.05745e-46
4.85081e-66
4.48103e-66
9.47305e-68
9.20429e-70
3.3193e-72
2.14262e-75
2.09629e-77
1.57696e-80
9.82579e-83
1.39228e-83
1.44337e-84
1.05838e-85
4.5543e-87
7.78055e-89
7.10771e-100
9.48521e-103
2.9737e-102
3.05926e-104
3.72424e-102
4.91046e-100
7.1218e-98
1.14664e-95
2.06887e-93
4.22965e-91
9.92354e-89
2.71292e-86
8.50524e-84
2.86896e-81
1.17255e-78
5.95891e-76
3.88926e-73
1.22781e-70
2.14655e-67
2.50321e-60
1.44519e-57
3.39776e-56
0.00287528
9.50948e-06
9.95951e-09
5.29949e-14
2.20495e-19
7.98014e-28
9.32926e-35
3.28456e-40
8.22309e-46
9.53211e-64
4.33418e-65
1.37572e-66
2.00962e-68
1.15634e-70
6.93428e-74
9.15728e-76
2.184e-79
1.93936e-80
3.28178e-81
4.09981e-82
3.7445e-83
2.10668e-84
5.08803e-86
1.55098e-96
1.16941e-101
3.88222e-101
7.14072e-102
7.57063e-100
9.80681e-98
1.39083e-95
2.17531e-93
3.78123e-91
7.38339e-89
1.63651e-86
4.171e-84
1.24095e-81
4.38481e-79
1.88009e-76
1.00385e-73
6.89616e-71
2.64245e-68
4.24422e-65
5.70905e-58
2.70829e-55
5.99544e-54
0.00216643
7.23452e-06
8.73335e-09
1.27383e-13
4.95067e-19
2.14036e-27
2.68993e-34
1.11133e-39
3.37729e-45
2.95202e-63
4.34368e-64
2.26785e-65
5.29322e-67
6.54408e-69
3.30476e-72
1.78944e-74
4.03325e-77
4.44011e-78
8.86213e-79
1.3376e-79
1.52743e-80
1.1303e-81
3.90173e-83
4.2508e-93
2.55049e-99
4.68161e-99
7.59526e-100
3.45439e-98
4.62183e-96
6.86026e-94
1.12383e-91
2.0475e-89
4.19342e-87
9.75633e-85
2.61236e-82
8.17314e-80
3.04027e-77
1.37417e-74
7.74693e-72
5.63034e-69
2.81269e-66
3.91148e-63
6.1301e-56
2.35182e-53
4.86068e-52
0.0017025
6.10951e-06
8.4121e-09
2.76252e-13
1.24007e-18
6.95166e-27
1.05045e-33
4.45399e-39
1.65216e-44
2.53035e-61
3.10757e-63
2.98419e-64
1.95063e-65
7.32973e-67
7.19146e-70
2.82712e-73
9.17718e-75
1.17546e-75
2.77251e-76
5.07039e-77
7.26966e-78
7.12363e-79
3.55874e-80
1.43553e-89
1.44549e-98
2.2337e-98
2.76752e-98
7.20087e-97
9.94937e-95
1.55324e-92
2.67845e-90
5.14061e-88
1.10995e-85
2.72475e-83
7.70503e-81
2.54847e-78
1.0034e-75
4.80724e-73
2.87768e-70
2.22569e-67
1.18617e-64
1.76733e-61
3.28277e-54
8.92146e-52
1.61969e-50
0.00141158
5.68461e-06
8.60698e-09
6.13872e-13
3.64555e-18
3.01991e-26
5.44517e-33
2.71401e-38
1.33645e-43
1.99909e-61
9.95972e-63
3.26322e-63
8.02588e-64
7.0668e-65
6.36046e-67
6.19283e-71
2.45072e-72
3.64366e-73
1.01791e-73
2.26274e-74
4.09251e-75
5.35135e-76
3.92472e-77
5.24579e-86
7.75773e-94
2.75497e-98
5.35662e-98
3.66826e-96
5.48816e-94
9.06612e-92
1.65531e-89
3.36639e-87
7.70844e-85
2.00857e-82
6.03472e-80
2.12309e-77
8.90292e-75
4.54993e-72
1.58154e-69
2.41217e-66
1.38201e-63
2.22276e-60
4.98483e-53
7.02008e-51
9.36532e-50
0.280641
0.0363908
0.0012393
5.60885e-06
1.12553e-08
1.641e-12
1.35126e-17
2.01201e-25
3.08615e-32
2.35841e-37
1.44099e-42
4.7099e-62
4.30873e-62
2.23434e-62
1.19395e-62
2.30305e-63
1.91788e-64
2.38212e-68
7.7578e-70
1.34066e-70
4.44803e-71
1.20634e-71
2.7676e-72
4.87284e-73
5.33619e-74
1.81375e-82
9.05109e-86
5.07332e-86
3.69742e-96
3.75855e-95
5.49694e-93
9.67034e-91
1.88299e-88
4.03299e-86
1.00005e-83
2.78701e-81
8.96492e-79
3.38079e-76
1.52178e-73
8.3623e-71
2.95197e-68
5.15773e-65
3.20133e-62
2.10055e-55
4.9807e-52
2.136e-50
1.26976e-49
0.245185
0.0313093
0.00114085
6.34448e-06
1.62474e-08
5.33166e-12
6.68925e-17
2.3881e-24
1.92131e-31
1.80121e-36
1.10541e-41
3.23899e-59
7.55771e-61
6.97239e-62
5.34839e-62
3.79809e-62
1.89688e-62
1.2405e-63
4.40225e-67
7.12109e-68
2.63294e-68
8.5144e-69
2.42702e-69
5.57081e-70
9.1537e-71
7.52043e-76
2.93576e-77
1.79115e-77
2.1182e-95
1.70854e-93
2.69331e-91
6.7937e-89
1.42481e-86
1.71976e-84
4.94255e-82
2.64469e-79
9.20163e-77
3.75283e-74
1.82963e-71
1.09092e-68
4.18749e-66
7.97728e-63
5.42365e-60
6.35903e-53
3.61566e-51
3.82013e-50
7.24712e-50
0.217245
0.0278614
0.00109427
7.91135e-06
2.66485e-08
1.87513e-11
4.50115e-16
5.63438e-23
1.89334e-30
1.09932e-35
7.45416e-41
3.61169e-57
7.7053e-59
8.10426e-62
5.66325e-62
2.45201e-61
5.02554e-61
5.60991e-61
4.67128e-62
8.86878e-63
4.15179e-63
1.39708e-63
3.58729e-64
3.26848e-65
1.0462e-66
2.0669e-67
1.01806e-68
5.84555e-69
1.68165e-83
1.85647e-91
3.51363e-89
4.29208e-78
3.24898e-78
4.53069e-82
1.36335e-79
8.94632e-77
3.75019e-74
1.82582e-71
1.08801e-68
8.14744e-66
4.07996e-63
7.29836e-56
2.38246e-53
9.61492e-52
1.19718e-50
4.08457e-50
5.30763e-51
0.195872
0.0257078
0.00110453
1.07637e-05
4.85625e-08
6.44583e-11
4.21312e-15
2.59774e-21
7.58565e-29
1.48544e-34
1.71444e-39
2.08837e-56
3.01053e-57
3.86231e-60
8.24919e-61
4.03901e-61
4.71455e-60
2.1648e-59
2.61304e-59
9.9175e-60
7.60215e-60
5.63915e-60
4.1329e-60
3.06624e-60
2.30789e-60
1.7943e-60
1.48586e-60
1.32553e-60
1.25482e-60
1.23445e-60
1.32104e-60
1.47156e-60
1.76937e-60
2.28676e-60
3.25314e-60
5.29164e-60
1.0974e-59
3.87527e-59
4.17581e-58
1.52923e-56
5.93373e-55
1.75788e-53
3.53513e-52
3.99869e-51
2.1128e-50
4.48064e-50
4.35842e-52
0.180382
0.0247337
0.00118171
1.60078e-05
9.73163e-08
2.22932e-10
5.32988e-14
1.86615e-19
6.7288e-27
5.16742e-33
1.58522e-38
7.14963e-55
1.58754e-56
1.58438e-57
3.58783e-58
7.98681e-59
2.10598e-59
2.04259e-58
2.16843e-57
2.85411e-57
2.38325e-57
2.09782e-57
1.85605e-57
1.66918e-57
1.527e-57
1.42397e-57
1.35768e-57
1.32473e-57
1.3187e-57
1.42745e-57
1.59106e-57
1.90935e-57
2.45104e-57
3.43053e-57
5.3261e-57
9.46787e-57
2.0289e-56
5.69428e-56
2.33058e-55
1.49808e-54
1.4202e-53
1.62359e-52
1.82957e-51
1.77152e-50
1.2827e-49
4.76525e-49
7.44334e-51
0.170714
0.0247663
0.00135416
2.61994e-05
2.13632e-07
7.89982e-10
6.4993e-13
1.55531e-17
4.63526e-24
6.02469e-35
2.02366e-49
1.60607e-52
3.81149e-54
9.10227e-55
2.26175e-55
5.62557e-56
1.28649e-56
3.11292e-57
1.51487e-55
7.34577e-55
7.99949e-55
5.21579e-55
4.19374e-55
3.40324e-55
2.9149e-55
2.64486e-55
2.51263e-55
2.46881e-55
2.46656e-55
2.61295e-55
2.84643e-55
3.2859e-55
4.00308e-55
5.21408e-55
7.33676e-55
1.13495e-54
1.9805e-54
4.06395e-54
1.04791e-53
3.74516e-53
2.0797e-52
1.93124e-51
2.81209e-50
4.69932e-49
5.52327e-48
2.64326e-47
4.00841e-49
0.167781
0.026431
0.00168598
4.69445e-05
5.10112e-07
2.8592e-09
5.4282e-12
1.04424e-15
4.80336e-21
1.02136e-30
5.8014e-37
1.52368e-46
2.50762e-48
3.78806e-50
5.09435e-52
1.07488e-52
2.30771e-53
5.24586e-54
2.21114e-54
3.34625e-52
7.01555e-52
7.18898e-52
6.52923e-52
5.93202e-52
5.33059e-52
4.8116e-52
4.44042e-52
4.22728e-52
4.13678e-52
4.12512e-52
4.39329e-52
4.74688e-52
5.40084e-52
6.42211e-52
8.08301e-52
1.08577e-51
1.5798e-51
2.54253e-51
4.67834e-51
1.03704e-50
2.98827e-50
1.21205e-49
6.95592e-49
4.74683e-48
2.71177e-47
8.30388e-47
1.82872e-48
0.173158
0.030246
0.00229267
8.27406e-05
1.28332e-06
1.02039e-08
3.33361e-11
3.10916e-14
1.64949e-18
1.8159e-24
1.64777e-30
7.2476e-44
4.21859e-45
1.46048e-45
5.12458e-46
1.65902e-46
4.77455e-47
1.15374e-47
2.07884e-48
2.52738e-49
1.32765e-49
2.73743e-49
3.24194e-49
3.27642e-49
3.08482e-49
2.92534e-49
2.79785e-49
2.71634e-49
2.67928e-49
2.67673e-49
2.81892e-49
2.99411e-49
3.30827e-49
3.77537e-49
4.49098e-49
5.59583e-49
7.37028e-49
1.03869e-48
1.59544e-48
2.74557e-48
5.4914e-48
1.31396e-47
3.64162e-47
9.88766e-47
1.91156e-46
7.43661e-47
6.01239e-49
0.186719
0.0362844
0.00324523
0.000140284
3.14448e-06
3.32064e-08
1.62248e-10
3.14845e-13
1.37467e-16
2.57894e-21
1.5591e-26
5.24715e-42
1.10327e-42
6.79584e-43
3.88885e-43
2.17685e-43
1.17035e-43
6.00513e-44
2.90903e-44
1.31357e-44
5.44626e-45
2.0457e-45
7.01562e-46
2.43335e-46
1.14247e-46
8.43506e-47
7.70079e-47
7.37232e-47
7.14824e-47
7.02549e-47
6.99136e-47
7.16282e-47
7.4464e-47
7.9403e-47
8.67806e-47
9.76582e-47
1.13588e-46
1.37155e-46
1.7291e-46
2.29085e-46
3.21589e-46
4.82769e-46
7.78957e-46
1.31642e-45
2.0246e-45
1.25815e-47
1.73847e-50
0.209747
0.0449732
0.00461888
0.000230305
6.59091e-06
8.95329e-08
6.01425e-10
1.85827e-12
2.22133e-15
4.38797e-19
6.69854e-24
5.85425e-41
4.48915e-41
3.58422e-41
2.80809e-41
2.1775e-41
1.66251e-41
1.24667e-41
9.14408e-42
6.52723e-42
4.50359e-42
2.97604e-42
1.86044e-42
1.08333e-42
5.78495e-43
2.81631e-43
1.2533e-43
6.00522e-44
4.34884e-44
4.11565e-44
3.86522e-44
3.66196e-44
3.48727e-44
3.34041e-44
3.21763e-44
3.11578e-44
3.031e-44
2.95808e-44
2.88888e-44
2.80913e-44
2.69135e-44
2.48108e-44
2.07608e-44
1.31938e-44
2.50214e-45
1.10255e-47
1.66088e-50
0.205597
0.0484265
0.00562509
0.000316139
9.98292e-06
1.72153e-07
1.46406e-09
6.05502e-12
1.14207e-14
7.31332e-18
2.41479e-22
3.17442e-40
2.77281e-40
2.55887e-40
2.33508e-40
2.13085e-40
1.93856e-40
1.75876e-40
1.59044e-40
1.43301e-40
1.28588e-40
1.14856e-40
1.02061e-40
9.01627e-41
7.91346e-41
6.89725e-41
5.97107e-41
5.13361e-41
4.38353e-41
3.71966e-41
3.13495e-41
2.61924e-41
2.16471e-41
1.76471e-41
1.41387e-41
1.10777e-41
8.43016e-42
6.1703e-42
4.28108e-42
2.75252e-42
1.57877e-42
7.52819e-43
2.55767e-43
3.78617e-44
3.29488e-46
3.71336e-49
9.67628e-51
6.19473e-162
2.61262e-161
1.30145e-160
7.78131e-160
5.71451e-159
5.33828e-158
6.71937e-157
1.26868e-155
4.67831e-154
4.12564e-160
1.09402e-159
3.33898e-159
1.17936e-158
4.85832e-158
2.36058e-157
1.37475e-156
9.8199e-156
8.90881e-155
1.08714e-153
1.98587e-152
7.0664e-151
0.00529655
1.79535e-06
1.94887e-10
1.41772e-15
1.0879e-23
1.13973e-32
3.87476e-40
3.28326e-46
1.53622e-52
8.75023e-73
2.95582e-74
6.75431e-76
3.84962e-79
4.64391e-84
1.50171e-86
3.29308e-90
3.49701e-95
3.64517e-99
1.47398e-102
4.86099e-107
2.06984e-113
7.05537e-119
1.33407e-129
5.75094e-145
2.08356e-145
1.34186e-146
6.31068e-158
5.92404e-158
6.53877e-158
8.39466e-158
1.24415e-157
2.11886e-157
4.13506e-157
9.24206e-157
2.36834e-156
6.9798e-156
2.37861e-155
9.44492e-155
4.41879e-154
2.47476e-153
1.69736e-152
1.47565e-151
1.72096e-150
2.99205e-149
1.0054e-147
0.00760266
3.95798e-06
2.1132e-10
1.70863e-15
1.62018e-23
1.73941e-32
5.79801e-40
5.49438e-46
2.73985e-52
8.17226e-73
6.01813e-74
1.23219e-75
8.04296e-79
9.32219e-84
2.65396e-86
7.52689e-90
1.20919e-94
9.13857e-99
3.07355e-102
1.4932e-106
1.84642e-112
9.33184e-118
1.33339e-128
6.76386e-145
3.09626e-145
6.37112e-146
5.26762e-154
5.4246e-154
6.4813e-154
8.91183e-154
1.40243e-153
2.51802e-153
5.15e-153
1.2003e-152
3.19384e-152
9.73832e-152
3.42277e-151
1.39801e-150
6.71322e-150
3.85302e-149
2.70607e-148
2.41515e-147
3.03546e-146
1.38327e-144
8.54332e-143
0.0102063
7.35199e-06
2.27869e-10
1.95067e-15
2.41295e-23
2.66268e-32
8.73266e-40
9.11712e-46
4.95953e-52
1.38735e-73
1.37614e-73
2.19908e-75
1.68305e-78
1.96402e-83
5.59586e-86
1.59376e-89
4.15777e-94
2.87544e-98
6.98644e-102
4.34614e-106
1.44466e-111
9.91206e-117
3.21516e-128
7.21587e-145
3.55511e-145
8.69544e-146
6.72167e-152
6.78496e-152
7.901e-152
1.0539e-151
1.60254e-151
2.77054e-151
5.43865e-151
1.21286e-150
3.07911e-150
8.93708e-150
2.98663e-149
1.15972e-148
5.28932e-148
2.87519e-147
1.96583e-146
9.18671e-146
5.2032e-146
1.36445e-138
7.88399e-137
0.0128998
1.20845e-05
2.56275e-10
2.10617e-15
3.59542e-23
4.08983e-32
1.33246e-39
1.49475e-45
8.98623e-52
3.51742e-71
2.83877e-73
4.02309e-75
3.54908e-78
4.38729e-83
1.54035e-85
3.38047e-89
1.379e-93
1.0948e-97
1.87204e-101
1.30639e-105
1.00036e-110
8.9337e-116
2.86319e-133
7.14941e-145
3.83744e-145
9.98046e-146
4.00391e-150
4.04656e-150
4.69432e-150
6.21199e-150
9.33619e-150
1.59009e-149
3.06782e-149
6.72177e-149
1.68004e-148
4.81089e-148
1.58119e-147
5.9998e-147
2.80019e-146
1.05808e-145
1.20263e-145
-2.5342e-143
-3.22581e-143
1.03977e-132
5.76018e-131
0.0154969
1.83186e-05
3.59304e-10
2.16837e-15
5.36403e-23
6.30648e-32
2.07506e-39
2.41825e-45
1.60985e-51
1.73077e-71
5.32018e-73
7.70582e-75
7.60514e-78
1.05164e-82
5.22384e-85
8.024e-89
4.54946e-93
4.83548e-97
6.43208e-101
4.38137e-105
6.0863e-110
1.21191e-114
6.2284e-131
2.29192e-145
3.80109e-145
1.1033e-145
1.30414e-148
1.3323e-148
1.55194e-148
2.05072e-148
3.06773e-148
5.20187e-148
1.00166e-147
2.18775e-147
5.3945e-147
1.51988e-146
5.40703e-146
1.25998e-145
1.44334e-145
3.40549e-145
1.0367e-142
-4.35018e-138
7.95256e-137
6.16436e-127
3.27117e-125
0.0178183
2.61481e-05
8.58025e-10
2.17615e-15
8.02031e-23
9.76891e-32
3.32155e-39
3.86658e-45
2.82767e-51
2.5271e-71
1.24019e-72
1.54531e-74
1.6696e-77
2.73663e-82
1.8325e-84
2.37655e-88
1.61261e-92
2.39819e-96
2.83076e-100
1.72695e-104
3.60233e-109
2.6889e-113
1.42786e-128
-6.28618e-143
4.47262e-145
1.21153e-145
2.15683e-147
2.22423e-147
2.60543e-147
3.46144e-147
5.21164e-147
8.86248e-147
1.70062e-146
3.81571e-146
1.12186e-145
1.56214e-145
1.89219e-145
5.58279e-145
1.34736e-142
7.54971e-140
5.90236e-137
-1.36589e-131
6.67003e-131
2.78904e-121
1.41638e-119
0.0197433
3.56652e-05
2.7066e-09
2.04382e-15
1.20322e-22
1.52128e-31
5.48914e-39
6.1403e-45
4.85479e-51
3.00996e-72
2.99108e-72
3.20968e-74
3.77201e-77
7.78016e-82
5.92557e-84
8.6591e-88
6.66079e-92
1.27449e-95
1.43724e-99
8.38993e-104
2.72179e-108
3.5159e-112
3.48894e-126
-1.28101e-140
4.7954e-145
2.06384e-145
1.93164e-146
2.0066e-146
2.37854e-146
3.18433e-146
4.81758e-146
8.69923e-146
1.83795e-145
2.04942e-145
2.71675e-145
1.68942e-144
3.86693e-142
1.31444e-139
5.66983e-137
3.22709e-134
2.55842e-131
-1.77675e-125
2.26308e-125
9.43778e-116
4.58243e-114
0.0212974
4.70244e-05
7.27463e-09
1.71692e-15
1.81335e-22
2.38363e-31
9.35827e-39
9.77282e-45
8.172e-51
1.45085e-69
6.43169e-72
6.73375e-74
8.74887e-77
2.40285e-81
1.7476e-83
3.30626e-87
3.22942e-91
6.85817e-95
7.81128e-99
5.44558e-103
3.44368e-107
2.35954e-111
9.1195e-124
-2.68352e-138
7.57233e-145
3.89006e-145
1.0938e-145
1.165e-145
1.40794e-145
2.02799e-145
2.55086e-145
2.83191e-145
4.10349e-145
9.3869e-144
1.7905e-141
4.18388e-139
1.17414e-136
4.05268e-134
1.77405e-131
1.02499e-128
8.25109e-126
-2.80828e-120
6.47671e-120
2.33855e-110
1.08456e-108
0.0225822
6.0229e-05
1.53905e-08
1.47374e-15
2.74861e-22
3.76113e-31
1.63402e-38
1.58045e-44
1.3623e-50
7.91748e-70
1.16753e-71
1.38972e-73
2.06331e-76
7.90046e-81
4.9614e-83
1.1674e-86
1.67288e-90
3.66312e-94
4.71167e-98
4.99194e-102
5.69468e-106
1.48853e-110
2.56033e-121
-5.66991e-136
5.75539e-143
6.02852e-145
2.91691e-145
3.77692e-145
3.86631e-145
4.34108e-145
9.93212e-145
7.21911e-143
1.09277e-140
1.90167e-138
3.8323e-136
9.09452e-134
2.59196e-131
9.08798e-129
4.04238e-126
2.37398e-123
1.94316e-120
-1.93612e-115
5.13892e-112
4.15013e-105
1.83666e-103
0.0234449
7.45053e-05
2.69312e-08
1.39886e-15
4.19459e-22
5.98224e-31
2.88566e-38
2.64383e-44
2.29061e-50
1.87471e-69
2.11247e-71
2.77969e-73
4.88397e-76
2.69254e-80
1.46449e-82
3.82274e-86
8.41194e-90
2.03496e-93
3.45949e-97
5.83182e-101
8.83445e-105
3.71402e-109
7.75479e-119
-1.22791e-133
1.19812e-139
4.58291e-143
5.79822e-145
6.96631e-145
6.16478e-144
6.14846e-142
7.54474e-140
1.03493e-137
1.60226e-135
2.83358e-133
5.80372e-131
1.40011e-128
4.05751e-126
1.44704e-123
6.54914e-121
3.91497e-118
3.26325e-115
-6.88782e-111
1.90409e-106
5.15413e-100
2.17438e-98
0.0237269
8.74901e-05
4.05507e-08
1.44513e-15
6.44979e-22
9.60152e-31
5.08174e-38
4.65942e-44
3.99125e-50
3.26286e-69
3.75442e-71
5.4116e-73
1.14944e-75
9.3494e-80
4.7272e-82
1.2848e-85
4.08919e-89
1.27932e-92
3.15278e-96
7.4317e-100
1.54938e-103
6.64641e-108
2.54593e-116
5.55334e-130
3.05296e-136
1.19537e-139
5.39497e-143
5.07187e-141
5.21961e-139
5.8925e-137
7.36171e-135
1.02713e-132
1.61761e-130
2.91053e-128
6.06635e-126
1.48963e-123
4.39544e-121
1.59665e-118
7.36343e-116
4.4874e-113
3.8151e-110
-1.4696e-106
4.5363e-100
4.37201e-95
1.75645e-93
0.023598
9.58821e-05
5.31324e-08
4.23783e-15
9.99769e-22
1.55706e-30
8.82394e-38
8.7407e-44
7.43906e-50
6.18935e-69
6.77446e-71
1.05188e-72
2.69121e-75
3.32127e-79
1.62505e-81
5.08223e-85
2.11831e-88
9.4795e-92
3.25017e-95
1.04934e-98
3.57768e-102
1.88846e-107
9.10641e-114
5.76586e-127
9.71131e-133
3.05505e-136
3.37655e-138
3.28297e-136
3.44026e-134
3.95421e-132
5.03017e-130
7.14708e-128
1.14642e-125
2.10133e-123
4.46285e-121
1.11701e-118
3.36073e-116
1.24531e-113
5.86131e-111
3.64749e-108
3.16849e-105
-3.39132e-102
2.25738e-94
2.46935e-90
9.439e-89
0.0227414
9.86387e-05
6.11839e-08
3.52191e-14
1.5628e-21
2.55548e-30
1.50378e-37
1.73214e-43
1.51574e-49
1.24345e-68
1.29067e-70
2.13248e-72
6.35502e-75
1.2358e-78
5.51064e-81
2.47337e-84
1.36753e-87
8.0438e-91
3.59589e-94
1.78462e-97
5.89709e-101
5.11399e-107
3.56858e-111
4.35946e-124
4.04135e-129
8.65939e-132
1.83407e-133
1.81706e-131
1.9408e-129
2.27396e-127
2.94916e-125
4.27276e-123
6.98995e-121
1.30703e-118
2.83266e-116
7.2374e-114
2.22374e-111
8.41907e-109
4.05104e-106
2.57884e-103
2.29324e-100
2.75837e-98
1.67847e-89
9.04532e-86
3.28645e-84
0.021118
9.83675e-05
6.39567e-08
1.64388e-13
2.46475e-21
4.25408e-30
2.52746e-37
3.53273e-43
3.34331e-49
2.94635e-68
2.70841e-70
4.73335e-72
1.55185e-74
4.93777e-78
1.77908e-80
1.30922e-83
1.18676e-86
7.89453e-90
4.68235e-93
2.90637e-96
3.79241e-100
1.47169e-104
1.54149e-108
3.22016e-121
6.88323e-126
4.70616e-127
6.07988e-129
6.14523e-127
6.69866e-125
8.01117e-123
1.06071e-120
1.56921e-118
2.622e-116
5.00908e-114
1.10951e-111
2.89841e-109
9.10989e-107
3.53011e-104
1.73966e-101
1.13505e-98
1.03537e-95
5.29141e-93
6.16334e-85
2.09045e-81
7.21255e-80
0.0188287
9.05659e-05
6.39876e-08
3.79203e-13
3.92649e-21
7.20461e-30
4.26038e-37
7.18963e-43
7.64173e-49
1.02892e-67
6.38723e-70
1.17649e-71
4.02791e-74
2.11926e-77
5.74161e-80
6.7585e-83
1.15848e-85
9.41269e-89
7.61373e-92
3.17175e-95
1.02126e-99
4.64993e-102
7.38926e-106
2.5172e-118
7.86033e-123
1.76909e-121
1.20619e-124
1.24546e-122
1.38748e-120
1.69617e-118
2.29616e-116
3.47405e-114
5.93831e-112
1.16095e-109
2.6326e-107
7.04396e-105
2.26887e-102
9.01573e-100
4.55946e-97
3.0554e-94
2.86531e-91
1.88707e-88
1.24859e-80
2.96206e-77
9.69613e-76
0.0160228
7.52337e-05
5.78833e-08
5.29423e-13
6.33394e-21
1.24634e-29
7.42358e-37
1.4348e-42
1.72629e-48
1.47013e-66
1.68379e-69
3.18828e-71
1.12969e-73
9.49583e-77
2.05836e-79
3.57562e-82
9.91607e-85
1.19182e-87
1.06452e-90
1.81433e-94
1.17542e-97
1.40325e-99
3.96013e-103
2.1516e-115
3.44643e-118
6.30612e-118
1.39681e-120
1.47558e-118
1.68257e-116