/*--------------------------------*- C++ -*----------------------------------*\
| =========                 |                                                 |
| \\      /  F ield         | OpenFOAM: The Open Source CFD Toolbox           |
|  \\    /   O peration     | Version:  v2012                                 |
|   \\  /    A nd           | Website:  www.openfoam.com                      |
|    \\/     M anipulation  |                                                 |
\*---------------------------------------------------------------------------*/
FoamFile
{
    version     2.0;
    format      ascii;
    class       volScalarField;
    location    "1";
    object      p;
}
// * * * * * * * * * * * * * * * * * * * * * * * * * * * * * * * * * * * * * //

dimensions      [1 -1 -2 0 0 0 0];


internalField   nonuniform List<scalar> 
3326
(
3.48635e+06
3.48639e+06
3.4864e+06
3.48638e+06
3.48633e+06
3.48624e+06
3.48611e+06
3.48596e+06
3.48571e+06
3.48601e+06
3.48613e+06
3.48622e+06
3.48628e+06
3.48632e+06
3.48634e+06
3.48632e+06
3.48627e+06
3.48618e+06
3.48605e+06
3.4859e+06
3.48566e+06
3.4516e+06
3.45894e+06
3.46387e+06
3.46792e+06
3.4708e+06
3.47306e+06
3.47476e+06
3.47609e+06
3.47714e+06
3.47799e+06
3.4787e+06
3.4793e+06
3.47983e+06
3.4803e+06
3.48074e+06
3.48114e+06
3.48152e+06
3.48188e+06
3.48223e+06
3.48256e+06
3.48288e+06
3.48319e+06
3.48349e+06
3.48378e+06
3.48406e+06
3.48433e+06
3.48458e+06
3.48483e+06
3.48505e+06
3.48527e+06
3.48546e+06
3.48564e+06
3.4858e+06
3.48594e+06
3.48606e+06
3.48615e+06
3.48622e+06
3.48626e+06
3.48627e+06
3.48626e+06
3.48621e+06
3.48613e+06
3.486e+06
3.48585e+06
3.48561e+06
3.44867e+06
3.45566e+06
3.4611e+06
3.46541e+06
3.46867e+06
3.47125e+06
3.47324e+06
3.47482e+06
3.47608e+06
3.47711e+06
3.47796e+06
3.47869e+06
3.47931e+06
3.47987e+06
3.48037e+06
3.48082e+06
3.48124e+06
3.48164e+06
3.48201e+06
3.48237e+06
3.48271e+06
3.48304e+06
3.48335e+06
3.48365e+06
3.48394e+06
3.48422e+06
3.48448e+06
3.48473e+06
3.48496e+06
3.48518e+06
3.48538e+06
3.48556e+06
3.48573e+06
3.48587e+06
3.48599e+06
3.48609e+06
3.48616e+06
3.4862e+06
3.48622e+06
3.4862e+06
3.48615e+06
3.48608e+06
3.48595e+06
3.4858e+06
3.48556e+06
3.44628e+06
3.45304e+06
3.45884e+06
3.46331e+06
3.46686e+06
3.46966e+06
3.47189e+06
3.47367e+06
3.47511e+06
3.47629e+06
3.47727e+06
3.4781e+06
3.47882e+06
3.47944e+06
3.48e+06
3.48051e+06
3.48097e+06
3.4814e+06
3.4818e+06
3.48218e+06
3.48254e+06
3.48289e+06
3.48321e+06
3.48353e+06
3.48383e+06
3.48411e+06
3.48438e+06
3.48464e+06
3.48487e+06
3.4851e+06
3.4853e+06
3.48549e+06
3.48566e+06
3.4858e+06
3.48592e+06
3.48602e+06
3.4861e+06
3.48614e+06
3.48616e+06
3.48615e+06
3.4861e+06
3.48603e+06
3.4859e+06
3.48576e+06
3.48552e+06
3.44431e+06
3.45096e+06
3.45698e+06
3.46156e+06
3.46531e+06
3.46829e+06
3.4707e+06
3.47264e+06
3.47423e+06
3.47553e+06
3.47663e+06
3.47755e+06
3.47835e+06
3.47904e+06
3.47965e+06
3.4802e+06
3.48071e+06
3.48117e+06
3.4816e+06
3.482e+06
3.48238e+06
3.48274e+06
3.48308e+06
3.4834e+06
3.48371e+06
3.484e+06
3.48428e+06
3.48454e+06
3.48479e+06
3.48502e+06
3.48523e+06
3.48542e+06
3.48559e+06
3.48574e+06
3.48586e+06
3.48596e+06
3.48604e+06
3.48609e+06
3.48611e+06
3.4861e+06
3.48606e+06
3.48598e+06
3.48586e+06
3.48571e+06
3.48548e+06
3.44274e+06
3.44934e+06
3.45547e+06
3.46013e+06
3.46401e+06
3.46711e+06
3.46965e+06
3.47172e+06
3.47343e+06
3.47484e+06
3.47603e+06
3.47703e+06
3.4779e+06
3.47865e+06
3.47931e+06
3.47991e+06
3.48045e+06
3.48094e+06
3.48139e+06
3.48182e+06
3.48221e+06
3.48259e+06
3.48294e+06
3.48328e+06
3.4836e+06
3.4839e+06
3.48419e+06
3.48445e+06
3.48471e+06
3.48494e+06
3.48515e+06
3.48535e+06
3.48552e+06
3.48568e+06
3.4858e+06
3.48591e+06
3.48599e+06
3.48604e+06
3.48606e+06
3.48605e+06
3.48601e+06
3.48594e+06
3.48582e+06
3.48568e+06
3.48545e+06
3.44155e+06
3.4481e+06
3.45426e+06
3.45895e+06
3.46292e+06
3.46611e+06
3.46875e+06
3.47091e+06
3.47271e+06
3.47421e+06
3.47548e+06
3.47655e+06
3.47748e+06
3.47828e+06
3.47899e+06
3.47962e+06
3.4802e+06
3.48072e+06
3.48119e+06
3.48164e+06
3.48206e+06
3.48245e+06
3.48281e+06
3.48316e+06
3.48349e+06
3.4838e+06
3.48409e+06
3.48437e+06
3.48463e+06
3.48486e+06
3.48508e+06
3.48528e+06
3.48546e+06
3.48562e+06
3.48575e+06
3.48586e+06
3.48594e+06
3.48599e+06
3.48602e+06
3.48601e+06
3.48597e+06
3.4859e+06
3.48578e+06
3.48564e+06
3.48542e+06
3.44068e+06
3.44717e+06
3.4533e+06
3.458e+06
3.46202e+06
3.46526e+06
3.46797e+06
3.47021e+06
3.47208e+06
3.47364e+06
3.47497e+06
3.47611e+06
3.47708e+06
3.47793e+06
3.47868e+06
3.47935e+06
3.47995e+06
3.4805e+06
3.481e+06
3.48147e+06
3.4819e+06
3.4823e+06
3.48268e+06
3.48304e+06
3.48338e+06
3.4837e+06
3.484e+06
3.48428e+06
3.48455e+06
3.48479e+06
3.48502e+06
3.48522e+06
3.4854e+06
3.48556e+06
3.4857e+06
3.48581e+06
3.48589e+06
3.48595e+06
3.48597e+06
3.48597e+06
3.48593e+06
3.48586e+06
3.48575e+06
3.48561e+06
3.48539e+06
3.44004e+06
3.44646e+06
3.45255e+06
3.45724e+06
3.46127e+06
3.46454e+06
3.4673e+06
3.46959e+06
3.47151e+06
3.47313e+06
3.47451e+06
3.4757e+06
3.47672e+06
3.47761e+06
3.47839e+06
3.47909e+06
3.47972e+06
3.48029e+06
3.48081e+06
3.4813e+06
3.48175e+06
3.48217e+06
3.48256e+06
3.48293e+06
3.48328e+06
3.48361e+06
3.48391e+06
3.4842e+06
3.48447e+06
3.48472e+06
3.48495e+06
3.48516e+06
3.48535e+06
3.48551e+06
3.48565e+06
3.48576e+06
3.48585e+06
3.48591e+06
3.48593e+06
3.48593e+06
3.4859e+06
3.48583e+06
3.48572e+06
3.48559e+06
3.48537e+06
3.43956e+06
3.44593e+06
3.45195e+06
3.45663e+06
3.46066e+06
3.46395e+06
3.46673e+06
3.46905e+06
3.47102e+06
3.47268e+06
3.4741e+06
3.47532e+06
3.47638e+06
3.4773e+06
3.47812e+06
3.47884e+06
3.4795e+06
3.48009e+06
3.48063e+06
3.48113e+06
3.4816e+06
3.48203e+06
3.48244e+06
3.48282e+06
3.48318e+06
3.48351e+06
3.48383e+06
3.48413e+06
3.4844e+06
3.48466e+06
3.48489e+06
3.4851e+06
3.48529e+06
3.48546e+06
3.4856e+06
3.48572e+06
3.48581e+06
3.48587e+06
3.4859e+06
3.4859e+06
3.48586e+06
3.4858e+06
3.48569e+06
3.48556e+06
3.48535e+06
3.4392e+06
3.44553e+06
3.4515e+06
3.45615e+06
3.46016e+06
3.46346e+06
3.46625e+06
3.4686e+06
3.47059e+06
3.47228e+06
3.47373e+06
3.47498e+06
3.47606e+06
3.47702e+06
3.47786e+06
3.47861e+06
3.47928e+06
3.4799e+06
3.48046e+06
3.48098e+06
3.48145e+06
3.4819e+06
3.48232e+06
3.48271e+06
3.48308e+06
3.48342e+06
3.48375e+06
3.48405e+06
3.48433e+06
3.48459e+06
3.48483e+06
3.48505e+06
3.48524e+06
3.48541e+06
3.48556e+06
3.48568e+06
3.48577e+06
3.48583e+06
3.48586e+06
3.48587e+06
3.48583e+06
3.48577e+06
3.48567e+06
3.48554e+06
3.48533e+06
3.43894e+06
3.44525e+06
3.45116e+06
3.45578e+06
3.45978e+06
3.46306e+06
3.46586e+06
3.46821e+06
3.47021e+06
3.47192e+06
3.47339e+06
3.47467e+06
3.47578e+06
3.47675e+06
3.47762e+06
3.47839e+06
3.47908e+06
3.47971e+06
3.48029e+06
3.48082e+06
3.48131e+06
3.48177e+06
3.4822e+06
3.4826e+06
3.48298e+06
3.48334e+06
3.48367e+06
3.48398e+06
3.48427e+06
3.48453e+06
3.48478e+06
3.485e+06
3.4852e+06
3.48537e+06
3.48552e+06
3.48564e+06
3.48573e+06
3.4858e+06
3.48583e+06
3.48584e+06
3.48581e+06
3.48575e+06
3.48565e+06
3.48552e+06
3.48532e+06
3.43879e+06
3.44508e+06
3.45094e+06
3.45552e+06
3.45948e+06
3.46275e+06
3.46553e+06
3.46788e+06
3.46989e+06
3.47161e+06
3.4731e+06
3.47439e+06
3.47551e+06
3.47651e+06
3.47739e+06
3.47818e+06
3.47889e+06
3.47954e+06
3.48013e+06
3.48067e+06
3.48118e+06
3.48165e+06
3.48209e+06
3.4825e+06
3.48289e+06
3.48325e+06
3.48359e+06
3.48391e+06
3.4842e+06
3.48448e+06
3.48473e+06
3.48495e+06
3.48515e+06
3.48533e+06
3.48548e+06
3.48561e+06
3.4857e+06
3.48577e+06
3.48581e+06
3.48581e+06
3.48579e+06
3.48573e+06
3.48563e+06
3.48551e+06
3.48531e+06
3.43877e+06
3.44503e+06
3.45083e+06
3.45536e+06
3.45928e+06
3.46251e+06
3.46527e+06
3.46761e+06
3.46962e+06
3.47134e+06
3.47283e+06
3.47413e+06
3.47527e+06
3.47628e+06
3.47717e+06
3.47798e+06
3.4787e+06
3.47937e+06
3.47997e+06
3.48053e+06
3.48105e+06
3.48153e+06
3.48198e+06
3.4824e+06
3.4828e+06
3.48317e+06
3.48352e+06
3.48384e+06
3.48414e+06
3.48442e+06
3.48468e+06
3.48491e+06
3.48511e+06
3.4853e+06
3.48545e+06
3.48558e+06
3.48568e+06
3.48574e+06
3.48578e+06
3.48579e+06
3.48577e+06
3.48571e+06
3.48562e+06
3.4855e+06
3.48531e+06
3.43889e+06
3.4451e+06
3.45082e+06
3.45529e+06
3.45915e+06
3.46234e+06
3.46508e+06
3.4674e+06
3.46939e+06
3.47111e+06
3.4726e+06
3.4739e+06
3.47505e+06
3.47607e+06
3.47697e+06
3.47779e+06
3.47853e+06
3.4792e+06
3.47982e+06
3.48039e+06
3.48092e+06
3.48142e+06
3.48188e+06
3.48231e+06
3.48271e+06
3.48309e+06
3.48345e+06
3.48378e+06
3.48409e+06
3.48437e+06
3.48463e+06
3.48487e+06
3.48508e+06
3.48526e+06
3.48542e+06
3.48555e+06
3.48565e+06
3.48572e+06
3.48576e+06
3.48577e+06
3.48575e+06
3.4857e+06
3.4856e+06
3.48549e+06
3.48531e+06
3.43916e+06
3.44529e+06
3.45091e+06
3.45531e+06
3.4591e+06
3.46224e+06
3.46494e+06
3.46723e+06
3.4692e+06
3.47091e+06
3.47239e+06
3.4737e+06
3.47485e+06
3.47587e+06
3.47679e+06
3.47761e+06
3.47836e+06
3.47905e+06
3.47968e+06
3.48026e+06
3.4808e+06
3.4813e+06
3.48178e+06
3.48222e+06
3.48263e+06
3.48302e+06
3.48338e+06
3.48372e+06
3.48403e+06
3.48432e+06
3.48459e+06
3.48483e+06
3.48505e+06
3.48523e+06
3.48539e+06
3.48553e+06
3.48563e+06
3.4857e+06
3.48575e+06
3.48576e+06
3.48574e+06
3.48569e+06
3.4856e+06
3.48549e+06
3.48531e+06
3.43957e+06
3.4456e+06
3.45111e+06
3.4554e+06
3.45912e+06
3.4622e+06
3.46485e+06
3.4671e+06
3.46905e+06
3.47074e+06
3.47221e+06
3.47351e+06
3.47466e+06
3.47569e+06
3.47661e+06
3.47745e+06
3.47821e+06
3.4789e+06
3.47954e+06
3.48013e+06
3.48068e+06
3.4812e+06
3.48168e+06
3.48213e+06
3.48255e+06
3.48295e+06
3.48332e+06
3.48366e+06
3.48398e+06
3.48428e+06
3.48455e+06
3.4848e+06
3.48502e+06
3.48521e+06
3.48537e+06
3.48551e+06
3.48561e+06
3.48569e+06
3.48573e+06
3.48574e+06
3.48573e+06
3.48568e+06
3.48559e+06
3.48548e+06
3.48531e+06
3.44012e+06
3.44603e+06
3.45139e+06
3.45558e+06
3.4592e+06
3.46221e+06
3.4648e+06
3.46701e+06
3.46892e+06
3.47059e+06
3.47205e+06
3.47335e+06
3.47449e+06
3.47552e+06
3.47645e+06
3.47729e+06
3.47805e+06
3.47876e+06
3.47941e+06
3.48001e+06
3.48057e+06
3.48109e+06
3.48158e+06
3.48204e+06
3.48248e+06
3.48288e+06
3.48326e+06
3.48361e+06
3.48394e+06
3.48424e+06
3.48452e+06
3.48477e+06
3.48499e+06
3.48519e+06
3.48535e+06
3.48549e+06
3.4856e+06
3.48567e+06
3.48572e+06
3.48574e+06
3.48572e+06
3.48567e+06
3.48559e+06
3.48549e+06
3.48532e+06
3.44079e+06
3.44656e+06
3.45174e+06
3.45582e+06
3.45934e+06
3.46226e+06
3.46479e+06
3.46695e+06
3.46883e+06
3.47047e+06
3.47191e+06
3.47319e+06
3.47434e+06
3.47536e+06
3.47629e+06
3.47714e+06
3.47791e+06
3.47862e+06
3.47928e+06
3.47989e+06
3.48046e+06
3.48099e+06
3.48149e+06
3.48196e+06
3.4824e+06
3.48282e+06
3.4832e+06
3.48356e+06
3.48389e+06
3.4842e+06
3.48448e+06
3.48474e+06
3.48497e+06
3.48517e+06
3.48534e+06
3.48548e+06
3.48559e+06
3.48567e+06
3.48571e+06
3.48573e+06
3.48571e+06
3.48567e+06
3.48559e+06
3.48549e+06
3.48533e+06
3.44156e+06
3.44718e+06
3.45217e+06
3.45612e+06
3.45952e+06
3.46236e+06
3.46481e+06
3.46692e+06
3.46875e+06
3.47036e+06
3.47179e+06
3.47306e+06
3.47419e+06
3.47521e+06
3.47614e+06
3.47699e+06
3.47777e+06
3.47849e+06
3.47916e+06
3.47978e+06
3.48036e+06
3.4809e+06
3.48141e+06
3.48189e+06
3.48233e+06
3.48275e+06
3.48315e+06
3.48352e+06
3.48386e+06
3.48417e+06
3.48446e+06
3.48472e+06
3.48495e+06
3.48515e+06
3.48532e+06
3.48547e+06
3.48558e+06
3.48566e+06
3.48571e+06
3.48572e+06
3.48571e+06
3.48567e+06
3.48559e+06
3.4855e+06
3.48534e+06
3.44243e+06
3.44789e+06
3.45266e+06
3.45647e+06
3.45974e+06
3.46248e+06
3.46486e+06
3.46691e+06
3.4687e+06
3.47028e+06
3.47168e+06
3.47293e+06
3.47405e+06
3.47507e+06
3.476e+06
3.47685e+06
3.47764e+06
3.47836e+06
3.47904e+06
3.47967e+06
3.48025e+06
3.48081e+06
3.48132e+06
3.48181e+06
3.48227e+06
3.4827e+06
3.4831e+06
3.48347e+06
3.48382e+06
3.48414e+06
3.48443e+06
3.4847e+06
3.48493e+06
3.48514e+06
3.48532e+06
3.48546e+06
3.48558e+06
3.48566e+06
3.48571e+06
3.48572e+06
3.48571e+06
3.48567e+06
3.48559e+06
3.4855e+06
3.48536e+06
3.4434e+06
3.44868e+06
3.45321e+06
3.45686e+06
3.46e+06
3.46264e+06
3.46493e+06
3.46691e+06
3.46866e+06
3.4702e+06
3.47157e+06
3.47281e+06
3.47392e+06
3.47493e+06
3.47586e+06
3.47672e+06
3.47751e+06
3.47824e+06
3.47892e+06
3.47956e+06
3.48016e+06
3.48072e+06
3.48124e+06
3.48174e+06
3.48221e+06
3.48264e+06
3.48305e+06
3.48343e+06
3.48379e+06
3.48412e+06
3.48441e+06
3.48468e+06
3.48492e+06
3.48513e+06
3.48531e+06
3.48546e+06
3.48557e+06
3.48566e+06
3.48571e+06
3.48573e+06
3.48571e+06
3.48567e+06
3.4856e+06
3.48551e+06
3.48538e+06
3.44447e+06
3.44954e+06
3.45381e+06
3.45729e+06
3.46028e+06
3.46281e+06
3.46501e+06
3.46693e+06
3.46862e+06
3.47013e+06
3.47147e+06
3.47269e+06
3.47379e+06
3.4748e+06
3.47573e+06
3.47658e+06
3.47738e+06
3.47812e+06
3.47881e+06
3.47945e+06
3.48006e+06
3.48063e+06
3.48117e+06
3.48167e+06
3.48215e+06
3.48259e+06
3.48301e+06
3.4834e+06
3.48376e+06
3.48409e+06
3.4844e+06
3.48467e+06
3.48492e+06
3.48513e+06
3.48531e+06
3.48546e+06
3.48558e+06
3.48566e+06
3.48571e+06
3.48573e+06
3.48572e+06
3.48568e+06
3.48561e+06
3.48553e+06
3.4854e+06
3.44564e+06
3.45045e+06
3.45444e+06
3.45775e+06
3.46058e+06
3.463e+06
3.4651e+06
3.46695e+06
3.46859e+06
3.47006e+06
3.47138e+06
3.47257e+06
3.47367e+06
3.47467e+06
3.4756e+06
3.47646e+06
3.47725e+06
3.478e+06
3.4787e+06
3.47935e+06
3.47997e+06
3.48055e+06
3.4811e+06
3.48161e+06
3.48209e+06
3.48255e+06
3.48297e+06
3.48337e+06
3.48374e+06
3.48408e+06
3.48439e+06
3.48466e+06
3.48491e+06
3.48513e+06
3.48531e+06
3.48547e+06
3.48558e+06
3.48567e+06
3.48572e+06
3.48574e+06
3.48573e+06
3.48569e+06
3.48562e+06
3.48554e+06
3.48542e+06
3.44691e+06
3.4514e+06
3.45512e+06
3.45823e+06
3.46089e+06
3.46319e+06
3.4652e+06
3.46697e+06
3.46856e+06
3.46999e+06
3.47128e+06
3.47246e+06
3.47354e+06
3.47454e+06
3.47547e+06
3.47633e+06
3.47713e+06
3.47788e+06
3.47859e+06
3.47926e+06
3.47988e+06
3.48047e+06
3.48103e+06
3.48155e+06
3.48204e+06
3.48251e+06
3.48294e+06
3.48334e+06
3.48372e+06
3.48406e+06
3.48438e+06
3.48466e+06
3.48491e+06
3.48513e+06
3.48532e+06
3.48548e+06
3.4856e+06
3.48568e+06
3.48573e+06
3.48575e+06
3.48574e+06
3.4857e+06
3.48563e+06
3.48556e+06
3.48544e+06
3.44825e+06
3.45239e+06
3.45581e+06
3.45871e+06
3.4612e+06
3.46337e+06
3.46528e+06
3.46699e+06
3.46852e+06
3.46991e+06
3.47118e+06
3.47234e+06
3.47341e+06
3.47441e+06
3.47534e+06
3.4762e+06
3.47701e+06
3.47777e+06
3.47849e+06
3.47916e+06
3.4798e+06
3.4804e+06
3.48096e+06
3.48149e+06
3.482e+06
3.48247e+06
3.48291e+06
3.48332e+06
3.4837e+06
3.48405e+06
3.48437e+06
3.48466e+06
3.48492e+06
3.48514e+06
3.48533e+06
3.48549e+06
3.48561e+06
3.4857e+06
3.48575e+06
3.48577e+06
3.48575e+06
3.48571e+06
3.48565e+06
3.48557e+06
3.48547e+06
3.43994e+06
3.4452e+06
3.44963e+06
3.45338e+06
3.4565e+06
3.45918e+06
3.4615e+06
3.46354e+06
3.46536e+06
3.46699e+06
3.46847e+06
3.46982e+06
3.47107e+06
3.47222e+06
3.47328e+06
3.47428e+06
3.4752e+06
3.47607e+06
3.47689e+06
3.47766e+06
3.47838e+06
3.47907e+06
3.47971e+06
3.48032e+06
3.4809e+06
3.48144e+06
3.48195e+06
3.48243e+06
3.48288e+06
3.4833e+06
3.48369e+06
3.48405e+06
3.48438e+06
3.48467e+06
3.48493e+06
3.48516e+06
3.48535e+06
3.48551e+06
3.48563e+06
3.48571e+06
3.48576e+06
3.48578e+06
3.48577e+06
3.48573e+06
3.48566e+06
3.48559e+06
3.48549e+06
3.44242e+06
3.44714e+06
3.45102e+06
3.45436e+06
3.45717e+06
3.45962e+06
3.46176e+06
3.46368e+06
3.4654e+06
3.46697e+06
3.4684e+06
3.46972e+06
3.47095e+06
3.47209e+06
3.47315e+06
3.47414e+06
3.47507e+06
3.47595e+06
3.47677e+06
3.47755e+06
3.47828e+06
3.47898e+06
3.47963e+06
3.48025e+06
3.48084e+06
3.48139e+06
3.48191e+06
3.4824e+06
3.48286e+06
3.48329e+06
3.48369e+06
3.48405e+06
3.48438e+06
3.48468e+06
3.48495e+06
3.48518e+06
3.48537e+06
3.48553e+06
3.48565e+06
3.48574e+06
3.48579e+06
3.4858e+06
3.48579e+06
3.48574e+06
3.48568e+06
3.48561e+06
3.48552e+06
3.44496e+06
3.44903e+06
3.45235e+06
3.45528e+06
3.45777e+06
3.46e+06
3.46198e+06
3.46377e+06
3.46541e+06
3.46692e+06
3.46831e+06
3.46961e+06
3.47082e+06
3.47195e+06
3.473e+06
3.474e+06
3.47494e+06
3.47582e+06
3.47665e+06
3.47744e+06
3.47819e+06
3.47889e+06
3.47956e+06
3.48019e+06
3.48079e+06
3.48135e+06
3.48188e+06
3.48238e+06
3.48285e+06
3.48328e+06
3.48368e+06
3.48405e+06
3.48439e+06
3.4847e+06
3.48496e+06
3.4852e+06
3.48539e+06
3.48555e+06
3.48568e+06
3.48576e+06
3.48581e+06
3.48583e+06
3.48581e+06
3.48576e+06
3.4857e+06
3.48563e+06
3.48554e+06
3.44747e+06
3.45084e+06
3.45357e+06
3.45609e+06
3.45829e+06
3.46031e+06
3.46213e+06
3.46382e+06
3.46538e+06
3.46684e+06
3.4682e+06
3.46947e+06
3.47067e+06
3.4718e+06
3.47286e+06
3.47386e+06
3.4748e+06
3.47569e+06
3.47654e+06
3.47734e+06
3.47809e+06
3.47881e+06
3.47949e+06
3.48013e+06
3.48074e+06
3.48131e+06
3.48185e+06
3.48236e+06
3.48283e+06
3.48328e+06
3.48369e+06
3.48406e+06
3.48441e+06
3.48472e+06
3.48499e+06
3.48523e+06
3.48542e+06
3.48559e+06
3.48571e+06
3.48579e+06
3.48584e+06
3.48585e+06
3.48583e+06
3.48578e+06
3.48571e+06
3.48564e+06
3.48557e+06
3.44965e+06
3.45233e+06
3.45456e+06
3.45673e+06
3.45868e+06
3.46051e+06
3.46221e+06
3.4638e+06
3.46531e+06
3.46672e+06
3.46806e+06
3.46932e+06
3.47051e+06
3.47164e+06
3.4727e+06
3.47371e+06
3.47467e+06
3.47557e+06
3.47642e+06
3.47723e+06
3.478e+06
3.47873e+06
3.47942e+06
3.48007e+06
3.48069e+06
3.48128e+06
3.48183e+06
3.48234e+06
3.48283e+06
3.48328e+06
3.4837e+06
3.48408e+06
3.48443e+06
3.48474e+06
3.48502e+06
3.48526e+06
3.48546e+06
3.48562e+06
3.48574e+06
3.48583e+06
3.48587e+06
3.48588e+06
3.48586e+06
3.4858e+06
3.48573e+06
3.48566e+06
3.48559e+06
3.45156e+06
3.45359e+06
3.45537e+06
3.45721e+06
3.45894e+06
3.46061e+06
3.4622e+06
3.46373e+06
3.46518e+06
3.46657e+06
3.46789e+06
3.46915e+06
3.47034e+06
3.47147e+06
3.47255e+06
3.47357e+06
3.47453e+06
3.47545e+06
3.47631e+06
3.47714e+06
3.47792e+06
3.47866e+06
3.47936e+06
3.48002e+06
3.48065e+06
3.48125e+06
3.48181e+06
3.48233e+06
3.48283e+06
3.48329e+06
3.48371e+06
3.4841e+06
3.48445e+06
3.48477e+06
3.48505e+06
3.48529e+06
3.4855e+06
3.48566e+06
3.48578e+06
3.48587e+06
3.48591e+06
3.48591e+06
3.48588e+06
3.48583e+06
3.48575e+06
3.48568e+06
3.48561e+06
3.45274e+06
3.45426e+06
3.45582e+06
3.45743e+06
3.45902e+06
3.46058e+06
3.4621e+06
3.46358e+06
3.46501e+06
3.46639e+06
3.46771e+06
3.46897e+06
3.47017e+06
3.47131e+06
3.47239e+06
3.47342e+06
3.4744e+06
3.47533e+06
3.47621e+06
3.47704e+06
3.47784e+06
3.47859e+06
3.4793e+06
3.47998e+06
3.48062e+06
3.48122e+06
3.48179e+06
3.48233e+06
3.48283e+06
3.4833e+06
3.48373e+06
3.48413e+06
3.48449e+06
3.48481e+06
3.48509e+06
3.48534e+06
3.48554e+06
3.48571e+06
3.48583e+06
3.48591e+06
3.48595e+06
3.48595e+06
3.48591e+06
3.48585e+06
3.48577e+06
3.48569e+06
3.48562e+06
3.45386e+06
3.45484e+06
3.45619e+06
3.45755e+06
3.45902e+06
3.46048e+06
3.46195e+06
3.4634e+06
3.46482e+06
3.46619e+06
3.46751e+06
3.46878e+06
3.46999e+06
3.47114e+06
3.47224e+06
3.47328e+06
3.47427e+06
3.47522e+06
3.47611e+06
3.47696e+06
3.47776e+06
3.47853e+06
3.47925e+06
3.47994e+06
3.48059e+06
3.48121e+06
3.48179e+06
3.48233e+06
3.48284e+06
3.48332e+06
3.48375e+06
3.48416e+06
3.48452e+06
3.48485e+06
3.48514e+06
3.48538e+06
3.48559e+06
3.48575e+06
3.48588e+06
3.48595e+06
3.48599e+06
3.48599e+06
3.48595e+06
3.48588e+06
3.48579e+06
3.48571e+06
3.48564e+06
3.4542e+06
3.45484e+06
3.45627e+06
3.45747e+06
3.45888e+06
3.46028e+06
3.46174e+06
3.46318e+06
3.4646e+06
3.46598e+06
3.46731e+06
3.46859e+06
3.46982e+06
3.47099e+06
3.4721e+06
3.47315e+06
3.47416e+06
3.47511e+06
3.47602e+06
3.47688e+06
3.4777e+06
3.47847e+06
3.47921e+06
3.47991e+06
3.48057e+06
3.4812e+06
3.48179e+06
3.48234e+06
3.48286e+06
3.48334e+06
3.48379e+06
3.4842e+06
3.48457e+06
3.4849e+06
3.48519e+06
3.48544e+06
3.48565e+06
3.48581e+06
3.48593e+06
3.48601e+06
3.48604e+06
3.48603e+06
3.48598e+06
3.48591e+06
3.48581e+06
3.48572e+06
3.48565e+06
3.45547e+06
3.45537e+06
3.4565e+06
3.45742e+06
3.45874e+06
3.46008e+06
3.46152e+06
3.46296e+06
3.46439e+06
3.46578e+06
3.46713e+06
3.46842e+06
3.46966e+06
3.47084e+06
3.47197e+06
3.47304e+06
3.47405e+06
3.47502e+06
3.47594e+06
3.47681e+06
3.47764e+06
3.47843e+06
3.47917e+06
3.47988e+06
3.48056e+06
3.48119e+06
3.48179e+06
3.48236e+06
3.48288e+06
3.48337e+06
3.48383e+06
3.48424e+06
3.48462e+06
3.48496e+06
3.48525e+06
3.4855e+06
3.48571e+06
3.48588e+06
3.48599e+06
3.48607e+06
3.48609e+06
3.48608e+06
3.48602e+06
3.48594e+06
3.48583e+06
3.48573e+06
3.48565e+06
3.45781e+06
3.45643e+06
3.4569e+06
3.45736e+06
3.45854e+06
3.45982e+06
3.46126e+06
3.46271e+06
3.46416e+06
3.46557e+06
3.46694e+06
3.46825e+06
3.46951e+06
3.47071e+06
3.47185e+06
3.47293e+06
3.47396e+06
3.47494e+06
3.47587e+06
3.47675e+06
3.47759e+06
3.47839e+06
3.47915e+06
3.47987e+06
3.48055e+06
3.4812e+06
3.4818e+06
3.48238e+06
3.48291e+06
3.48341e+06
3.48387e+06
3.48429e+06
3.48467e+06
3.48501e+06
3.48531e+06
3.48556e+06
3.48577e+06
3.48594e+06
3.48605e+06
3.48612e+06
3.48615e+06
3.48613e+06
3.48606e+06
3.48597e+06
3.48585e+06
3.48573e+06
3.48564e+06
3.48635e+06
3.48639e+06
3.4864e+06
3.48638e+06
3.48633e+06
3.48624e+06
3.48611e+06
3.48596e+06
3.48571e+06
3.48601e+06
3.48613e+06
3.48622e+06
3.48628e+06
3.48632e+06
3.48634e+06
3.48632e+06
3.48627e+06
3.48618e+06
3.48605e+06
3.4859e+06
3.48566e+06
3.4516e+06
3.45894e+06
3.46387e+06
3.46792e+06
3.4708e+06
3.47306e+06
3.47476e+06
3.47609e+06
3.47714e+06
3.47799e+06
3.4787e+06
3.4793e+06
3.47983e+06
3.4803e+06
3.48074e+06
3.48114e+06
3.48152e+06
3.48188e+06
3.48223e+06
3.48256e+06
3.48288e+06
3.48319e+06
3.48349e+06
3.48378e+06
3.48406e+06
3.48433e+06
3.48458e+06
3.48483e+06
3.48505e+06
3.48527e+06
3.48546e+06
3.48564e+06
3.4858e+06
3.48594e+06
3.48606e+06
3.48615e+06
3.48622e+06
3.48626e+06
3.48627e+06
3.48626e+06
3.48621e+06
3.48613e+06
3.486e+06
3.48585e+06
3.48561e+06
3.44867e+06
3.45566e+06
3.4611e+06
3.46541e+06
3.46867e+06
3.47125e+06
3.47324e+06
3.47482e+06
3.47608e+06
3.47711e+06
3.47796e+06
3.47869e+06
3.47931e+06
3.47987e+06
3.48037e+06
3.48082e+06
3.48124e+06
3.48164e+06
3.48201e+06
3.48237e+06
3.48271e+06
3.48304e+06
3.48335e+06
3.48365e+06
3.48394e+06
3.48422e+06
3.48448e+06
3.48473e+06
3.48496e+06
3.48518e+06
3.48538e+06
3.48556e+06
3.48573e+06
3.48587e+06
3.48599e+06
3.48609e+06
3.48616e+06
3.4862e+06
3.48622e+06
3.4862e+06
3.48615e+06
3.48608e+06
3.48595e+06
3.4858e+06
3.48556e+06
3.44628e+06
3.45304e+06
3.45884e+06
3.46331e+06
3.46686e+06
3.46966e+06
3.47189e+06
3.47367e+06
3.47511e+06
3.47629e+06
3.47727e+06
3.4781e+06
3.47882e+06
3.47944e+06
3.48e+06
3.48051e+06
3.48097e+06
3.4814e+06
3.4818e+06
3.48218e+06
3.48254e+06
3.48289e+06
3.48321e+06
3.48353e+06
3.48383e+06
3.48411e+06
3.48438e+06
3.48464e+06
3.48487e+06
3.4851e+06
3.4853e+06
3.48549e+06
3.48566e+06
3.4858e+06
3.48592e+06
3.48602e+06
3.4861e+06
3.48614e+06
3.48616e+06
3.48615e+06
3.4861e+06
3.48603e+06
3.4859e+06
3.48576e+06
3.48552e+06
3.44431e+06
3.45096e+06
3.45698e+06
3.46156e+06
3.46531e+06
3.46829e+06
3.4707e+06
3.47264e+06
3.47423e+06
3.47553e+06
3.47663e+06
3.47755e+06
3.47835e+06
3.47904e+06
3.47965e+06
3.4802e+06
3.48071e+06
3.48117e+06
3.4816e+06
3.482e+06
3.48238e+06
3.48274e+06
3.48308e+06
3.4834e+06
3.48371e+06
3.484e+06
3.48428e+06
3.48454e+06
3.48479e+06
3.48502e+06
3.48523e+06
3.48542e+06
3.48559e+06
3.48574e+06
3.48586e+06
3.48596e+06
3.48604e+06
3.48609e+06
3.48611e+06
3.4861e+06
3.48606e+06
3.48598e+06
3.48586e+06
3.48571e+06
3.48548e+06
3.44274e+06
3.44934e+06
3.45547e+06
3.46013e+06
3.46401e+06
3.46711e+06
3.46965e+06
3.47172e+06
3.47343e+06
3.47484e+06
3.47603e+06
3.47703e+06
3.4779e+06
3.47865e+06
3.47931e+06
3.47991e+06
3.48045e+06
3.48094e+06
3.48139e+06
3.48182e+06
3.48221e+06
3.48259e+06
3.48294e+06
3.48328e+06
3.4836e+06
3.4839e+06
3.48419e+06
3.48445e+06
3.48471e+06
3.48494e+06
3.48515e+06
3.48535e+06
3.48552e+06
3.48568e+06
3.4858e+06
3.48591e+06
3.48599e+06
3.48604e+06
3.48606e+06
3.48605e+06
3.48601e+06
3.48594e+06
3.48582e+06
3.48568e+06
3.48545e+06
3.44155e+06
3.4481e+06
3.45426e+06
3.45895e+06
3.46292e+06
3.46611e+06
3.46875e+06
3.47091e+06
3.47271e+06
3.47421e+06
3.47548e+06
3.47655e+06
3.47748e+06
3.47828e+06
3.47899e+06
3.47962e+06
3.4802e+06
3.48072e+06
3.48119e+06
3.48164e+06
3.48206e+06
3.48245e+06
3.48281e+06
3.48316e+06
3.48349e+06
3.4838e+06
3.48409e+06
3.48437e+06
3.48463e+06
3.48486e+06
3.48508e+06
3.48528e+06
3.48546e+06
3.48562e+06
3.48575e+06
3.48586e+06
3.48594e+06
3.48599e+06
3.48602e+06
3.48601e+06
3.48597e+06
3.4859e+06
3.48578e+06
3.48564e+06
3.48542e+06
3.44068e+06
3.44717e+06
3.4533e+06
3.458e+06
3.46202e+06
3.46526e+06
3.46797e+06
3.47021e+06
3.47208e+06
3.47364e+06
3.47497e+06
3.47611e+06
3.47708e+06
3.47793e+06
3.47868e+06
3.47935e+06
3.47995e+06
3.4805e+06
3.481e+06
3.48147e+06
3.4819e+06
3.4823e+06
3.48268e+06
3.48304e+06
3.48338e+06
3.4837e+06
3.484e+06
3.48428e+06
3.48455e+06
3.48479e+06
3.48502e+06
3.48522e+06
3.4854e+06
3.48556e+06
3.4857e+06
3.48581e+06
3.48589e+06
3.48595e+06
3.48597e+06
3.48597e+06
3.48593e+06
3.48586e+06
3.48575e+06
3.48561e+06
3.48539e+06
3.44004e+06
3.44646e+06
3.45255e+06
3.45724e+06
3.46127e+06
3.46454e+06
3.4673e+06
3.46959e+06
3.47151e+06
3.47313e+06
3.47451e+06
3.4757e+06
3.47672e+06
3.47761e+06
3.47839e+06
3.47909e+06
3.47972e+06
3.48029e+06
3.48081e+06
3.4813e+06
3.48175e+06
3.48217e+06
3.48256e+06
3.48293e+06
3.48328e+06
3.48361e+06
3.48391e+06
3.4842e+06
3.48447e+06
3.48472e+06
3.48495e+06
3.48516e+06
3.48535e+06
3.48551e+06
3.48565e+06
3.48576e+06
3.48585e+06
3.48591e+06
3.48593e+06
3.48593e+06
3.4859e+06
3.48583e+06
3.48572e+06
3.48559e+06
3.48537e+06
3.43956e+06
3.44593e+06
3.45195e+06
3.45663e+06
3.46066e+06
3.46395e+06
3.46673e+06
3.46905e+06
3.47102e+06
3.47268e+06
3.4741e+06
3.47532e+06
3.47638e+06
3.4773e+06
3.47812e+06
3.47884e+06
3.4795e+06
3.48009e+06
3.48063e+06
3.48113e+06
3.4816e+06
3.48203e+06
3.48244e+06
3.48282e+06
3.48318e+06
3.48351e+06
3.48383e+06
3.48413e+06
3.4844e+06
3.48466e+06
3.48489e+06
3.4851e+06
3.48529e+06
3.48546e+06
3.4856e+06
3.48572e+06
3.48581e+06
3.48587e+06
3.4859e+06
3.4859e+06
3.48586e+06
3.4858e+06
3.48569e+06
3.48556e+06
3.48535e+06
3.4392e+06
3.44553e+06
3.4515e+06
3.45615e+06
3.46016e+06
3.46346e+06
3.46625e+06
3.4686e+06
3.47059e+06
3.47228e+06
3.47373e+06
3.47498e+06
3.47606e+06
3.47702e+06
3.47786e+06
3.47861e+06
3.47928e+06
3.4799e+06
3.48046e+06
3.48098e+06
3.48145e+06
3.4819e+06
3.48232e+06
3.48271e+06
3.48308e+06
3.48342e+06
3.48375e+06
3.48405e+06
3.48433e+06
3.48459e+06
3.48483e+06
3.48505e+06
3.48524e+06
3.48541e+06
3.48556e+06
3.48568e+06
3.48577e+06
3.48583e+06
3.48586e+06
3.48587e+06
3.48583e+06
3.48577e+06
3.48567e+06
3.48554e+06
3.48533e+06
3.43894e+06
3.44525e+06
3.45116e+06
3.45578e+06
3.45978e+06
3.46306e+06
3.46586e+06
3.46821e+06
3.47021e+06
3.47192e+06
3.47339e+06
3.47467e+06
3.47578e+06
3.47675e+06
3.47762e+06
3.47839e+06
3.47908e+06
3.47971e+06
3.48029e+06
3.48082e+06
3.48131e+06
3.48177e+06
3.4822e+06
3.4826e+06
3.48298e+06
3.48334e+06
3.48367e+06
3.48398e+06
3.48427e+06
3.48453e+06
3.48478e+06
3.485e+06
3.4852e+06
3.48537e+06
3.48552e+06
3.48564e+06
3.48573e+06
3.4858e+06
3.48583e+06
3.48584e+06
3.48581e+06
3.48575e+06
3.48565e+06
3.48552e+06
3.48532e+06
3.43879e+06
3.44508e+06
3.45094e+06
3.45552e+06
3.45948e+06
3.46275e+06
3.46553e+06
3.46788e+06
3.46989e+06
3.47161e+06
3.4731e+06
3.47439e+06
3.47551e+06
3.47651e+06
3.47739e+06
3.47818e+06
3.47889e+06
3.47954e+06
3.48013e+06
3.48067e+06
3.48118e+06
3.48165e+06
3.48209e+06
3.4825e+06
3.48289e+06
3.48325e+06
3.48359e+06
3.48391e+06
3.4842e+06
3.48448e+06
3.48473e+06
3.48495e+06
3.48515e+06
3.48533e+06
3.48548e+06
3.48561e+06
3.4857e+06
3.48577e+06
3.48581e+06
3.48581e+06
3.48579e+06
3.48573e+06
3.48563e+06
3.48551e+06
3.48531e+06
3.43877e+06
3.44503e+06
3.45083e+06
3.45536e+06
3.45928e+06
3.46251e+06
3.46527e+06
3.46761e+06
3.46962e+06
3.47134e+06
3.47283e+06
3.47413e+06
3.47527e+06
3.47628e+06
3.47717e+06
3.47798e+06
3.4787e+06
3.47937e+06
3.47997e+06
3.48053e+06
3.48105e+06
3.48153e+06
3.48198e+06
3.4824e+06
3.4828e+06
3.48317e+06
3.48352e+06
3.48384e+06
3.48414e+06
3.48442e+06
3.48468e+06
3.48491e+06
3.48511e+06
3.4853e+06
3.48545e+06
3.48558e+06
3.48568e+06
3.48574e+06
3.48578e+06
3.48579e+06
3.48577e+06
3.48571e+06
3.48562e+06
3.4855e+06
3.48531e+06
3.43889e+06
3.4451e+06
3.45082e+06
3.45529e+06
3.45915e+06
3.46234e+06
3.46508e+06
3.4674e+06
3.46939e+06
3.47111e+06
3.4726e+06
3.4739e+06
3.47505e+06
3.47607e+06
3.47697e+06
3.47779e+06
3.47853e+06
3.4792e+06
3.47982e+06
3.48039e+06
3.48092e+06
3.48142e+06
3.48188e+06
3.48231e+06
3.48271e+06
3.48309e+06
3.48345e+06
3.48378e+06
3.48409e+06
3.48437e+06
3.48463e+06
3.48487e+06
3.48508e+06
3.48526e+06
3.48542e+06
3.48555e+06
3.48565e+06
3.48572e+06
3.48576e+06
3.48577e+06
3.48575e+06
3.4857e+06
3.4856e+06
3.48549e+06
3.48531e+06
3.43916e+06
3.44529e+06
3.45091e+06
3.45531e+06
3.4591e+06
3.46224e+06
3.46494e+06
3.46723e+06
3.4692e+06
3.47091e+06
3.47239e+06
3.4737e+06
3.47485e+06
3.47587e+06
3.47679e+06
3.47761e+06
3.47836e+06
3.47905e+06
3.47968e+06
3.48026e+06
3.4808e+06
3.4813e+06
3.48178e+06
3.48222e+06
3.48263e+06
3.48302e+06
3.48338e+06
3.48372e+06
3.48403e+06
3.48432e+06
3.48459e+06
3.48483e+06
3.48505e+06
3.48523e+06
3.48539e+06
3.48553e+06
3.48563e+06
3.4857e+06
3.48575e+06
3.48576e+06
3.48574e+06
3.48569e+06
3.4856e+06
3.48549e+06
3.48531e+06
3.43957e+06
3.4456e+06
3.45111e+06
3.4554e+06
3.45912e+06
3.4622e+06
3.46485e+06
3.4671e+06
3.46905e+06
3.47074e+06
3.47221e+06
3.47351e+06
3.47466e+06
3.47569e+06
3.47661e+06
3.47745e+06
3.47821e+06
3.4789e+06
3.47954e+06
3.48013e+06
3.48068e+06
3.4812e+06
3.48168e+06
3.48213e+06
3.48255e+06
3.48295e+06
3.48332e+06
3.48366e+06
3.48398e+06
3.48428e+06
3.48455e+06
3.4848e+06
3.48502e+06
3.48521e+06
3.48537e+06
3.48551e+06
3.48561e+06
3.48569e+06
3.48573e+06
3.48574e+06
3.48573e+06
3.48568e+06
3.48559e+06
3.48548e+06
3.48531e+06
3.44012e+06
3.44603e+06
3.45139e+06
3.45558e+06
3.4592e+06
3.46221e+06
3.4648e+06
3.46701e+06
3.46892e+06
3.47059e+06
3.47205e+06
3.47335e+06
3.47449e+06
3.47552e+06
3.47645e+06
3.47729e+06
3.47805e+06
3.47876e+06
3.47941e+06
3.48001e+06
3.48057e+06
3.48109e+06
3.48158e+06
3.48204e+06
3.48248e+06
3.48288e+06
3.48326e+06
3.48361e+06
3.48394e+06
3.48424e+06
3.48452e+06
3.48477e+06
3.48499e+06
3.48519e+06
3.48535e+06
3.48549e+06
3.4856e+06
3.48567e+06
3.48572e+06
3.48574e+06
3.48572e+06
3.48567e+06
3.48559e+06
3.48549e+06
3.48532e+06
3.44079e+06
3.44656e+06
3.45174e+06
3.45582e+06
3.45934e+06
3.46226e+06