/*--------------------------------*- C++ -*----------------------------------*\
| =========                 |                                                 |
| \\      /  F ield         | OpenFOAM: The Open Source CFD Toolbox           |
|  \\    /   O peration     | Version:  v2012                                 |
|   \\  /    A nd           | Website:  www.openfoam.com                      |
|    \\/     M anipulation  |                                                 |
\*---------------------------------------------------------------------------*/
FoamFile
{
    version     2.0;
    format      ascii;
    class       volVectorField;
    location    "0.7";
    object      U;
}
// * * * * * * * * * * * * * * * * * * * * * * * * * * * * * * * * * * * * * //

dimensions      [0 1 -1 0 0 0 0];


internalField   nonuniform List<vector> 
3338
(
(-0.0444072 -0.294294 0.000388058)
(-0.0358165 -0.0565588 0.000313039)
(-0.0125833 0.161145 0.00010969)
(-0.00957834 0.358336 8.34201e-05)
(-0.00732184 0.537035 6.3932e-05)
(-0.00645778 0.696104 5.63729e-05)
(-0.00586166 0.83569 5.1176e-05)
(-0.00536486 0.95504 4.6839e-05)
(-0.00488891 1.05349 4.26844e-05)
(-0.00441261 1.13027 3.85267e-05)
(-0.00392824 1.18453 3.42986e-05)
(-0.00343612 1.21531 3.00029e-05)
(-0.00294034 1.22144 2.56752e-05)
(-0.00244758 1.20157 2.13736e-05)
(-0.0019663 1.15412 1.7172e-05)
(-0.00150631 1.07717 1.31562e-05)
(-0.00107932 0.968489 9.42816e-06)
(-0.000697613 0.825382 6.09523e-06)
(-0.000377611 0.644696 3.30072e-06)
(-0.000134645 0.422692 1.17967e-06)
(-3.4909e-06 0.155199 5.37696e-08)
(-0.0480786 -0.297503 0.000419739)
(-0.0417056 -0.0625866 0.000364187)
(-0.0301707 0.155216 0.000263503)
(-0.025495 0.356342 0.000222671)
(-0.0214226 0.536171 0.000187079)
(-0.019247 0.695739 0.000168037)
(-0.0175637 0.83546 0.000153344)
(-0.0160988 0.954845 0.000140554)
(-0.0146792 1.05329 0.000128163)
(-0.013253 1.13005 0.000115713)
(-0.0118002 1.18431 0.000103032)
(-0.0103229 1.21507 9.01357e-05)
(-0.00883358 1.22119 7.71356e-05)
(-0.00735271 1.20132 6.42084e-05)
(-0.00590585 1.15387 5.15775e-05)
(-0.00452274 1.07693 3.95026e-05)
(-0.00323886 0.968267 2.82933e-05)
(-0.00209168 0.825186 1.82766e-05)
(-0.00113127 0.644534 9.88926e-06)
(-0.000404451 0.422579 3.54327e-06)
(-1.24884e-05 0.155155 1.73259e-07)
(-0.0543443 -0.299125 0.000474422)
(-0.0500253 -0.0653484 0.000436778)
(-0.0439997 0.15285 0.000384176)
(-0.0394953 0.35472 0.000344844)
(-0.0348981 0.535152 0.000304707)
(-0.0318077 0.695135 0.000277698)
(-0.0291853 0.835004 0.000254807)
(-0.0268053 0.954425 0.000234029)
(-0.0244641 1.05285 0.000213593)
(-0.0220972 1.1296 0.000192933)
(-0.0196797 1.18382 0.00017183)
(-0.0172179 1.21456 0.000150341)
(-0.0147342 1.22066 0.000128661)
(-0.0122634 1.2008 0.000107092)
(-0.00984847 1.15336 8.60101e-05)
(-0.00753959 1.07645 6.58531e-05)
(-0.00539653 0.967828 4.71426e-05)
(-0.00348269 0.824808 3.04318e-05)
(-0.00188268 0.644237 1.64585e-05)
(-0.000675295 0.422384 5.91579e-06)
(-2.34307e-05 0.155086 3.07853e-07)
(-0.0621545 -0.299428 0.0005426)
(-0.0595092 -0.0658846 0.00051953)
(-0.0562535 0.152022 0.000491094)
(-0.0523728 0.353512 0.000457236)
(-0.047786 0.534164 0.000417209)
(-0.0440925 0.69442 0.000384949)
(-0.0406913 0.834396 0.00035526)
(-0.0374657 0.953831 0.000327101)
(-0.0342348 1.05223 0.000298899)
(-0.0309415 1.12892 0.000270152)
(-0.0275654 1.18309 0.000240683)
(-0.0241211 1.2138 0.000210617)
(-0.0206429 1.21988 0.000180256)
(-0.0171806 1.20001 0.000150032)
(-0.0137955 1.15259 0.000120481)
(-0.0105586 1.07573 9.22217e-05)
(-0.00755427 0.967168 6.59919e-05)
(-0.00487253 0.824238 4.25761e-05)
(-0.00263298 0.643785 2.30176e-05)
(-0.000946423 0.422084 8.29093e-06)
(-3.44005e-05 0.154976 4.46495e-07)
(-0.0710516 -0.298816 0.000620246)
(-0.0696522 -0.0654359 0.000608047)
(-0.0678385 0.151992 0.000592211)
(-0.0645818 0.352775 0.000563809)
(-0.0602046 0.533341 0.000525614)
(-0.056118 0.693677 0.000489933)
(-0.0520735 0.833674 0.00045463)
(-0.0480716 0.953077 0.000419696)
(-0.0439861 1.05141 0.000384035)
(-0.0397834 1.12803 0.00034735)
(-0.0354563 1.18213 0.000309581)
(-0.0310323 1.21278 0.000270964)
(-0.0265597 1.21884 0.000231922)
(-0.0221048 1.19897 0.000193033)
(-0.0177476 1.15157 0.000154996)
(-0.0135804 1.07476 0.000118616)
(-0.009713 0.966285 8.48498e-05)
(-0.00626206 0.823476 5.47178e-05)
(-0.0033826 0.643183 2.95708e-05)
(-0.0012174 0.421685 1.06647e-05)
(-4.54743e-05 0.154829 5.85846e-07)
(-0.0807732 -0.297429 0.000705093)
(-0.0802535 -0.064294 0.000700572)
(-0.0792001 0.15255 0.000691384)
(-0.0764331 0.352493 0.000667259)
(-0.0722934 0.532737 0.000631139)
(-0.0679329 0.692962 0.000593076)
(-0.0633431 0.832875 0.000553016)
(-0.0586242 0.952182 0.000511826)
(-0.0537174 1.05041 0.000468997)
(-0.0486221 1.12692 0.000424522)
(-0.0433522 1.18094 0.000378522)
(-0.0379516 1.21152 0.000331381)
(-0.0324851 1.21754 0.000283663)
(-0.0270364 1.19766 0.000236099)
(-0.0217053 1.15029 0.00018956)
(-0.0166059 1.07355 0.000145041)
(-0.0118734 0.965181 0.000103723)
(-0.00765194 0.822524 6.68626e-05)
(-0.00413194 0.64243 3.61217e-05)
(-0.00148814 0.421186 1.30365e-05)
(-5.65377e-05 0.154646 7.24862e-07)
(-0.0911596 -0.295388 0.000795748)
(-0.0912384 -0.0626104 0.000796454)
(-0.0905785 0.153568 0.000790707)
(-0.0881408 0.352611 0.000769456)
(-0.0841816 0.532359 0.000734915)
(-0.0795977 0.692305 0.000694908)
(-0.0745237 0.832023 0.000650623)
(-0.0691324 0.951163 0.000603567)
(-0.063432 1.04923 0.000553813)
(-0.0574594 1.1256 0.00050168)
(-0.0512541 1.17951 0.000447516)
(-0.0448797 1.21 0.000391875)
(-0.0384194 1.21597 0.000335482)
(-0.0319759 1.19608 0.000279234)
(-0.0256692 1.14875 0.000224177)
(-0.0196355 1.07209 0.000171502)
(-0.0140362 0.963855 0.000122616)
(-0.00904277 0.82138 7.90156e-05)
(-0.00488142 0.641527 4.26736e-05)
(-0.00175871 0.420588 1.54068e-05)
(-6.75339e-05 0.154425 8.63176e-07)
(-0.10212 -0.292799 0.000891414)
(-0.102586 -0.0604989 0.000895509)
(-0.102106 0.154947 0.000891334)
(-0.0998479 0.353066 0.000871649)
(-0.0959777 0.532192 0.000837887)
(-0.091174 0.69172 0.000795966)
(-0.0856451 0.831136 0.000747714)
(-0.0796104 0.950031 0.000695044)
(-0.0731367 1.04789 0.000638541)
(-0.0662986 1.12409 0.000578855)
(-0.0591637 1.17784 0.000516577)
(-0.0518177 1.20824 0.000452455)
(-0.0443636 1.21415 0.000387387)
(-0.0369239 1.19425 0.000322443)
(-0.0296396 1.14696 0.000258853)
(-0.0226697 1.07039 0.000198005)
(-0.0162018 0.962306 0.000141534)
(-0.010435 0.820045 9.11813e-05)
(-0.00563135 0.640473 4.92296e-05)
(-0.00202924 0.41989 1.77766e-05)
(-7.84501e-05 0.154168 1.00073e-06)
(-0.113603 -0.289747 0.000991653)
(-0.114299 -0.0580361 0.000997745)
(-0.113859 0.156619 0.00099393)
(-0.11165 0.353801 0.000974674)
(-0.107768 0.53221 0.00094081)
(-0.102719 0.691204 0.000896749)
(-0.0967396 0.830219 0.00084457)
(-0.0900753 0.948794 0.000786407)
(-0.0828406 1.04639 0.000723263)
(-0.0751447 1.12236 0.000656089)
(-0.067084 1.17595 0.00058573)
(-0.0587673 1.20622 0.000513135)
(-0.0503186 1.21206 0.000439387)
(-0.0418811 1.19215 0.000365732)
(-0.0336174 1.1449 0.000293592)
(-0.0257092 1.06844 0.000224552)
(-0.0183707 0.960534 0.000160482)
(-0.0118291 0.818518 0.000103363)
(-0.00638207 0.639268 5.57925e-05)
(-0.00229985 0.419094 2.01473e-05)
(-8.92937e-05 0.153873 1.13764e-06)
(-0.125584 -0.286293 0.00109623)
(-0.126383 -0.0552753 0.00110323)
(-0.125884 0.158534 0.0010989)
(-0.123613 0.354764 0.0010791)
(-0.11962 0.532384 0.00104427)
(-0.114282 0.690748 0.000997694)
(-0.107839 0.829273 0.00094147)
(-0.100546 0.947455 0.00087782)
(-0.0925542 1.04473 0.000808069)
(-0.0840034 1.12044 0.000733435)
(-0.0750181 1.17383 0.000655006)
(-0.0657303 1.20396 0.000573934)
(-0.0562855 1.20972 0.000491491)
(-0.0468482 1.18978 0.000409109)
(-0.0376028 1.14259 0.000328398)
(-0.0287543 1.06625 0.000251149)
(-0.0205435 0.958538 0.000179462)
(-0.0132255 0.816798 0.000115565)
(-0.00713385 0.637912 6.23646e-05)
(-0.0025707 0.418197 2.252e-05)
(-0.000100088 0.153542 1.27413e-06)
(-0.138048 -0.282487 0.00120504)
(-0.13885 -0.0522563 0.00121206)
(-0.138212 0.160655 0.00120651)
(-0.135782 0.355911 0.00118533)
(-0.131586 0.532682 0.00114873)
(-0.125906 0.690338 0.00109917)
(-0.118973 0.828293 0.00103867)
(-0.111041 0.946012 0.000969447)
(-0.102289 1.04291 0.000893058)
(-0.0928817 1.11832 0.00081095)
(-0.0829701 1.17147 0.000724436)
(-0.072709 1.20144 0.00063487)
(-0.0622658 1.20711 0.000543711)
(-0.0518262 1.18716 0.000452579)
(-0.0415965 1.14002 0.000363277)
(-0.0318054 1.06381 0.000277799)
(-0.0227203 0.956318 0.000198479)
(-0.0146244 0.814886 0.000127788)
(-0.00788691 0.636405 6.8948e-05)
(-0.00284193 0.417201 2.48961e-05)
(-0.000110857 0.153174 1.41044e-06)
(-0.150991 -0.278369 0.00131802)
(-0.15171 -0.0490111 0.00132432)
(-0.150862 0.162949 0.00131695)
(-0.14819 0.357206 0.00129365)
(-0.143706 0.533075 0.00125454)
(-0.137627 0.689955 0.00120149)
(-0.130168 0.82727 0.00113641)
(-0.121579 0.944463 0.00106144)
(-0.112056 1.04093 0.00097833)
(-0.101786 1.116 0.000888695)
(-0.090944 1.16889 0.000794058)
(-0.0797059 1.19867 0.000695964)
(-0.0682608 1.20424 0.00059606)
(-0.0568156 1.18426 0.00049615)
(-0.045599 1.13718 0.000398232)
(-0.0348629 1.06112 0.000304504)
(-0.0249015 0.953873 0.000217533)
(-0.016026 0.812781 0.000140036)
(-0.00864145 0.634746 7.55443e-05)
(-0.00311364 0.416105 2.72764e-05)
(-0.000121625 0.152769 1.54681e-06)
(-0.164412 -0.273973 0.00143517)
(-0.164972 -0.0455666 0.0014401)
(-0.16385 0.165389 0.00143033)
(-0.16086 0.358614 0.00140425)
(-0.15601 0.533535 0.00136195)
(-0.149472 0.689581 0.0013049)
(-0.141447 0.826191 0.00123487)
(-0.132175 0.942799 0.00115396)
(-0.121866 1.03879 0.00106398)
(-0.110724 1.11348 0.00096673)
(-0.0989439 1.16608 0.000863908)
(-0.0867233 1.19565 0.000757238)
(-0.0742718 1.2011 0.000648548)
(-0.0618173 1.1811 0.000539829)
(-0.0496107 1.13409 0.000433268)
(-0.037927 1.05819 0.000331267)
(-0.0270873 0.951203 0.000236628)
(-0.0174306 0.810482 0.000152309)
(-0.00939761 0.632935 8.21547e-05)
(-0.00338595 0.414909 2.96619e-05)
(-0.00013241 0.152326 1.68342e-06)
(-0.178312 -0.269325 0.00155651)
(-0.178644 -0.0419471 0.00155944)
(-0.177186 0.16795 0.00154675)
(-0.173808 0.360108 0.00151729)
(-0.168521 0.534036 0.00147116)
(-0.161465 0.689195 0.0014096)
(-0.15283 0.825045 0.00133425)
(-0.142845 0.941015 0.00124711)
(-0.13173 1.03648 0.0011501)
(-0.119701 1.11075 0.00104511)
(-0.106974 1.16303 0.00093402)
(-0.0937636 1.19238 0.000818711)
(-0.0803 1.1977 0.000701188)
(-0.066832 1.17767 0.00058362)
(-0.0536319 1.13073 0.000468386)
(-0.040998 1.05501 0.00035809)
(-0.0292779 0.948308 0.000255764)
(-0.0188382 0.80799 0.000164609)
(-0.0101555 0.630972 8.87802e-05)
(-0.00365891 0.413612 3.20532e-05)
(-0.000143231 0.151847 1.82045e-06)
(-0.192693 -0.264452 0.00168205)
(-0.192731 -0.0381748 0.00168242)
(-0.190879 0.170609 0.00166629)
(-0.187048 0.361661 0.00163287)
(-0.181255 0.534553 0.00158234)
(-0.173624 0.688778 0.00151575)
(-0.164332 0.823817 0.00143466)
(-0.153601 0.939099 0.00134101)
(-0.141655 1.03399 0.00123676)
(-0.128724 1.10781 0.00112389)
(-0.115038 1.15974 0.00100443)
(-0.100829 1.18885 0.000880402)
(-0.0863468 1.19403 0.000753988)
(-0.0718602 1.17397 0.00062753)
(-0.0576629 1.12711 0.00050359)
(-0.0440759 1.05158 0.000384973)
(-0.0314731 0.945186 0.000274941)
(-0.0202489 0.805303 0.000176936)
(-0.0109151 0.628856 9.54211e-05)
(-0.00393258 0.412215 3.44506e-05)
(-0.000154099 0.151331 1.95802e-06)
(-0.207559 -0.259376 0.00181182)
(-0.207239 -0.0342709 0.00180907)
(-0.204934 0.173344 0.00178898)
(-0.200588 0.36325 0.00175107)
(-0.194225 0.535064 0.00169557)
(-0.185962 0.68831 0.00162346)
(-0.175966 0.822491 0.00153623)
(-0.164452 0.93704 0.00143575)
(-0.151651 1.03133 0.00132402)
(-0.137798 1.10465 0.00120312)
(-0.123138 1.15621 0.00107515)
(-0.107921 1.18506 0.000942327)
(-0.0924129 1.1901 0.000806958)
(-0.0769023 1.17 0.000671561)
(-0.0617037 1.12322 0.00053888)
(-0.0471607 1.0479 0.000411917)
(-0.0336731 0.941837 0.00029416)
(-0.0216627 0.802422 0.00018929)
(-0.0116766 0.626587 0.000102078)
(-0.00420699 0.410717 3.68545e-05)
(-0.000165026 0.150777 2.09622e-06)
(-0.222912 -0.254121 0.00194585)
(-0.222172 -0.030256 0.00193943)
(-0.219355 0.176135 0.00191488)
(-0.214432 0.36485 0.00187194)
(-0.20744 0.535546 0.00181093)
(-0.198488 0.687772 0.00173282)
(-0.187741 0.821053 0.00163903)
(-0.175409 0.934829 0.00153141)
(-0.161722 1.02847 0.00141195)
(-0.146927 1.10128 0.00128282)
(-0.131278 1.15243 0.00114623)
(-0.115041 1.18101 0.0010045)
(-0.098499 1.18589 0.000860103)
(-0.0819585 1.16576 0.000715715)
(-0.0657543 1.11907 0.000574256)
(-0.0502522 1.04397 0.00043892)
(-0.0358778 0.938262 0.000313419)
(-0.0230796 0.799346 0.00020167)
(-0.0124398 0.624165 0.00010875)
(-0.00448214 0.409118 3.92649e-05)
(-0.000176018 0.150186 2.23512e-06)
(-0.238753 -0.248707 0.00208414)
(-0.23753 -0.0261509 0.00207351)
(-0.234143 0.178961 0.00204397)
(-0.228585 0.366441 0.00199549)
(-0.220904 0.535978 0.00192848)
(-0.21121 0.687145 0.00184389)
(-0.199665 0.819487 0.00174313)
(-0.186475 0.932452 0.00162802)
(-0.171874 1.02541 0.00150059)
(-0.156113 1.09767 0.00136303)
(-0.13946 1.14841 0.00121766)
(-0.122191 1.17669 0.00106693)
(-0.104606 1.18141 0.000913426)
(-0.0870287 1.16125 0.000759991)
(-0.0698145 1.11465 0.000609715)
(-0.0533503 1.03979 0.000465979)
(-0.0380867 0.934458 0.000332716)
(-0.0244992 0.796074 0.000214075)
(-0.0132046 0.621589 0.000115436)
(-0.00475802 0.407418 4.16817e-05)
(-0.000187079 0.149557 2.37476e-06)
(-0.255084 -0.243158 0.0022267)
(-0.253315 -0.0219762 0.00221131)
(-0.249298 0.181802 0.00217628)
(-0.243047 0.368003 0.00212175)
(-0.23462 0.536341 0.00204822)
(-0.224131 0.686412 0.00195669)
(-0.211741 0.817778 0.00184856)
(-0.197655 0.929898 0.00172563)
(-0.182109 1.02215 0.00158995)
(-0.16536 1.09383 0.00144376)
(-0.147684 1.14413 0.00128947)
(-0.12937 1.17211 0.00112961)
(-0.110732 1.17665 0.000966927)
(-0.0921127 1.15646 0.000804388)
(-0.073884 1.10997 0.000645255)
(-0.0564545 1.03535 0.000493093)
(-0.0402998 0.930427 0.000352048)
(-0.0259215 0.792606 0.000226503)
(-0.0139711 0.61886 0.000122136)
(-0.00503459 0.405616 4.41046e-05)
(-0.000198213 0.14889 2.51516e-06)
(-0.271902 -0.237494 0.00237353)
(-0.269524 -0.0177529 0.00235281)
(-0.264818 0.184636 0.00231177)
(-0.257816 0.369514 0.00225068)
(-0.248588 0.536615 0.00217016)
(-0.237252 0.685554 0.00207124)
(-0.223972 0.81591 0.00195534)
(-0.208952 0.927154 0.00182426)
(-0.19243 1.01867 0.00168006)
(-0.174668 1.08975 0.00152503)
(-0.15595 1.13959 0.00136165)
(-0.136578 1.16725 0.00119256)
(-0.116879 1.17162 0.0010206)
(-0.0972098 1.15139 0.0008489)
(-0.077962 1.10502 0.00068087)
(-0.0595643 1.03066 0.000520254)
(-0.0425164 0.926166 0.000371413)
(-0.0273461 0.788943 0.000238951)
(-0.0147389 0.615976 0.000128849)
(-0.0053118 0.403712 4.6533e-05)
(-0.000209419 0.148186 2.65633e-06)
(-0.289207 -0.23174 0.00252459)
(-0.286154 -0.0135024 0.00249799)
(-0.280698 0.187445 0.0024504)
(-0.272888 0.370955 0.00238226)
(-0.262804 0.53678 0.00229427)
(-0.250572 0.684554 0.00218753)
(-0.236356 0.81387 0.00206347)
(-0.220364 0.924209 0.00192389)
(-0.202835 1.01496 0.00177091)
(-0.184037 1.08542 0.00160683)
(-0.16426 1.13479 0.0014342)
(-0.143816 1.16212 0.00125575)
(-0.123045 1.16631 0.00107444)
(-0.102319 1.14604 0.000893518)
(-0.0820477 1.09979 0.000716552)
(-0.0626789 1.02572 0.000547459)
(-0.0447362 0.921677 0.000390804)
(-0.0287727 0.785083 0.000251417)
(-0.0155079 0.612939 0.000135572)
(-0.00558959 0.401707 4.89665e-05)
(-0.000220698 0.147444 2.79823e-06)
(-0.306992 -0.225918 0.00267985)
(-0.303199 -0.00924682 0.00264679)
(-0.296933 0.190206 0.00259213)
(-0.288257 0.372305 0.00251643)
(-0.277263 0.536819 0.00242051)
(-0.264085 0.683395 0.00230551)
(-0.248892 0.811643 0.00217291)
(-0.23189 0.92105 0.00202453)
(-0.213324 1.01101 0.00186249)
(-0.193465 1.08084 0.00168914)
(-0.17261 1.12971 0.00150711)
(-0.15108 1.15671 0.00131918)
(-0.129228 1.16071 0.00112843)
(-0.107439 1.14042 0.000938233)
(-0.0861401 1.0943 0.000752292)
(-0.0657975 1.02053 0.000574697)
(-0.0469583 0.916958 0.000410216)
(-0.0302009 0.781026 0.000263896)
(-0.016278 0.609746 0.000142304)
(-0.00586786 0.399599 5.14043e-05)
(-0.000232046 0.146665 2.94084e-06)
(-0.325251 -0.220053 0.00283925)
(-0.32065 -0.00500853 0.00279914)
(-0.313512 0.1929 0.00273688)
(-0.303914 0.373546 0.00265313)
(-0.291959 0.536714 0.00254881)
(-0.277788 0.682062 0.00242514)
(-0.261574 0.809214 0.00228363)
(-0.243527 0.917665 0.00212612)
(-0.223894 1.00682 0.00195477)
(-0.202949 1.07599 0.00177196)
(-0.180999 1.12437 0.00158036)
(-0.15837 1.15101 0.00138284)
(-0.135427 1.15483 0.00118257)
(-0.112569 1.13451 0.000983029)
(-0.0902377 1.08854 0.000788079)
(-0.0689189 1.01508 0.000601961)
(-0.0491821 0.912009 0.000429643)
(-0.0316301 0.776773 0.000276384)
(-0.0170487 0.6064 0.000149041)
(-0.00614652 0.39739 5.38454e-05)
(-0.00024346 0.145847 3.08409e-06)
(-0.343972 -0.21417 0.00300269)
(-0.338497 -0.00081058 0.00295495)
(-0.330427 0.195504 0.00288454)
(-0.31985 0.374659 0.00279225)
(-0.306882 0.536446 0.00267909)
(-0.291671 0.680539 0.00254635)
(-0.274395 0.806569 0.00239557)
(-0.255268 0.914045 0.00222864)
(-0.234539 1.00237 0.00204772)
(-0.212488 1.07087 0.00185524)
(-0.189423 1.11873 0.00165392)
(-0.165683 1.14503 0.00144669)
(-0.14164 1.14866 0.00123682)
(-0.117706 1.12832 0.00102789)
(-0.094339 1.0825 0.000823898)
(-0.0720421 1.00938 0.00062924)
(-0.0514067 0.90683 0.000449076)
(-0.0330597 0.772323 0.000288876)
(-0.0178198 0.602898 0.000155782)
(-0.00642545 0.395078 5.62889e-05)
(-0.000254935 0.144991 3.22792e-06)
(-0.363145 -0.208295 0.00317006)
(-0.356726 0.00332352 0.00311409)
(-0.347661 0.197999 0.003035)
(-0.336051 0.375623 0.00293369)
(-0.32202 0.535999 0.00281125)
(-0.305725 0.678809 0.00266904)
(-0.287349 0.803697 0.00250866)
(-0.267108 0.910176 0.00233201)
(-0.245256 0.997663 0.00214128)
(-0.222074 1.06548 0.00193894)
(-0.197879 1.11282 0.00172775)
(-0.173015 1.13876 0.00151071)
(-0.147863 1.1422 0.00129116)
(-0.122849 1.12185 0.0010728)
(-0.0984422 1.07619 0.000859732)
(-0.0751654 1.00342 0.000656521)
(-0.0536309 0.901422 0.000468506)
(-0.0344891 0.767676 0.000301367)
(-0.0185908 0.599242 0.000162523)
(-0.00670452 0.392664 5.87335e-05)
(-0.000266466 0.144097 3.37228e-06)
(-0.38275 -0.202455 0.00334122)
(-0.375321 0.00736988 0.00327643)
(-0.3652 0.200362 0.00318812)
(-0.352502 0.376419 0.00307731)
(-0.33736 0.535355 0.00294517)
(-0.319938 0.676859 0.00279313)
(-0.300423 0.800583 0.00262281)
(-0.279037 0.906049 0.00243616)
(-0.256035 0.99268 0.0022354)
(-0.231703 1.0598 0.00202302)
(-0.206362 1.10661 0.00180182)
(-0.180362 1.13219 0.00157487)
(-0.154094 1.13544 0.00134557)
(-0.127993 1.11508 0.00111772)
(-0.102545 1.0696 0.000895565)
(-0.0782874 0.997205 0.000683789)
(-0.0558537 0.895782 0.000487924)
(-0.0359175 0.762832 0.000313848)
(-0.0193615 0.595432 0.00016926)
(-0.00698356 0.390148 6.1178e-05)
(-0.000278044 0.143165 3.51707e-06)
(-0.40277 -0.196677 0.003516)
(-0.394261 0.0113044 0.00344178)
(-0.383025 0.202572 0.00334374)
(-0.369185 0.37703 0.00322297)
(-0.352885 0.534498 0.00308072)
(-0.334295 0.674674 0.00291847)
(-0.313607 0.797216 0.00273792)
(-0.291046 0.901654 0.00254101)
(-0.26687 0.987417 0.00233)
(-0.241368 1.05383 0.0021074)
(-0.214866 1.10011 0.00187607)
(-0.18772 1.12533 0.00163911)
(-0.160328 1.12839 0.00140001)
(-0.133137 1.10803 0.00116264)
(-0.106645 1.06274 0.000931374)
(-0.0814062 0.990734 0.000711031)
(-0.0580738 0.889913 0.000507319)
(-0.0373441 0.757791 0.000326314)
(-0.0201313 0.591467 0.00017599)
(-0.00726242 0.38753 6.36209e-05)
(-0.000289663 0.142195 3.66221e-06)
(-0.42318 -0.19099 0.00369417)
(-0.413524 0.0151027 0.00360995)
(-0.401113 0.204609 0.00350165)
(-0.386081 0.377437 0.00337048)
(-0.368578 0.533412 0.00321773)
(-0.348781 0.67224 0.00304495)
(-0.326887 0.793585 0.00285386)
(-0.303123 0.896982 0.00264645)
(-0.27775 0.981866 0.00242499)
(-0.251061 1.04757 0.00219204)
(-0.223385 1.09331 0.00195046)
(-0.195083 1.11816 0.00170341)
(-0.166562 1.12105 0.00145444)
(-0.138277 1.1007 0.00120753)
(-0.11074 1.05561 0.000967137)
(-0.0845199 0.984008 0.000738227)
(-0.0602899 0.883814 0.000526677)
(-0.0387681 0.752555 0.000338757)
(-0.0208998 0.587348 0.000182708)
(-0.00754092 0.38481 6.60606e-05)
(-0.000301313 0.141187 3.80759e-06)
(-0.443952 -0.185421 0.00387552)
(-0.433083 0.0187408 0.0037807)
(-0.419441 0.206451 0.00366166)
(-0.403167 0.377622 0.00351964)
(-0.384419 0.532083 0.00335602)
(-0.363379 0.669545 0.0031724)
(-0.340248 0.789678 0.00297051)
(-0.315255 0.892023 0.00275238)
(-0.288666 0.97602 0.0025203)
(-0.260773 1.04101 0.00227683)
(-0.231911 1.0862 0.0020249)
(-0.202445 1.1107 0.0017677)
(-0.17279 1.11341 0.00150883)
(-0.143409 1.09307 0.00125235)
(-0.114827 1.0482 0.00100283)
(-0.0876264 0.977026 0.00076536)
(-0.0625003 0.877486 0.000545987)
(-0.0401884 0.747122 0.000351168)
(-0.0216664 0.583075 0.00018941)
(-0.00781887 0.381989 6.84955e-05)
(-0.000312985 0.140141 3.95309e-06)
(-0.465054 -0.179998 0.00405974)
(-0.452908 0.0221947 0.00395378)
(-0.43798 0.208078 0.00382352)
(-0.420418 0.377567 0.00367025)
(-0.400385 0.530495 0.00349542)
(-0.378069 0.666577 0.00330065)
(-0.353673 0.785486 0.00308772)
(-0.327429 0.88677 0.00285867)
(-0.299604 0.969873 0.0026158)
(-0.270495 1.03414 0.00236172)
(-0.240437 1.07879 0.00209935)
(-0.209801 1.10293 0.00183192)
(-0.179007 1.10546 0.00156312)
(-0.14853 1.08515 0.00129706)
(-0.118902 1.04051 0.00103842)
(-0.0907232 0.969789 0.000792409)
(-0.0647035 0.870929 0.000565234)
(-0.041604 0.741495 0.000363537)
(-0.0224306 0.578649 0.000196091)
(-0.00809605 0.379066 7.09236e-05)
(-0.000324668 0.139057 4.09859e-06)
(-0.48645 -0.174749 0.00424653)
(-0.472967 0.0254414 0.0041289)
(-0.456701 0.209471 0.00398695)
(-0.437807 0.377258 0.00382207)
(-0.416453 0.528635 0.0036357)
(-0.39283 0.663323 0.00342953)
(-0.367144 0.780999 0.00320534)
(-0.339629 0.881215 0.00296519)
(-0.310554 0.96342 0.0027114)
(-0.280215 1.02696 0.00244659)
(-0.248954 1.07107 0.00217371)
(-0.217143 1.09485 0.00189603)
(-0.185209 1.09722 0.00161727)
(-0.153634 1.07695 0.00134164)
(-0.122963 1.03255 0.00107389)
(-0.093808 0.962297 0.000819352)
(-0.0668978 0.864143 0.000584403)
(-0.0430139 0.735672 0.000375857)
(-0.0231918 0.574071 0.000202745)
(-0.00837224 0.376042 7.33431e-05)
(-0.00033635 0.137936 4.24394e-06)
(-0.508099 -0.169701 0.00443554)
(-0.493221 0.0284585 0.00430573)
(-0.47557 0.210612 0.00415169)
(-0.455305 0.376678 0.00397483)
(-0.432597 0.526491 0.00377665)
(-0.407641 0.659775 0.00355883)
(-0.380643 0.77621 0.00332319)
(-0.351839 0.875352 0.00307179)
(-0.3215 0.956655 0.00280698)
(-0.289924 1.01947 0.00253135)
(-0.257452 1.06304 0.00224791)
(-0.224463 1.08646 0.00195995)
(-0.191388 1.08868 0.00167123)
(-0.158717 1.06845 0.00138603)
(-0.127006 1.02432 0.00110919)
(-0.0968781 0.954552 0.000846168)
(-0.0690813 0.857131 0.000603477)
(-0.0444168 0.729656 0.000388116)
(-0.0239494 0.56934 0.000209367)
(-0.00864722 0.372917 7.57519e-05)
(-0.00034802 0.136776 4.38901e-06)
(-0.529957 -0.164879 0.00462636)
(-0.513631 0.0312248 0.00448391)
(-0.494551 0.211483 0.00431741)
(-0.47288 0.375813 0.00412827)
(-0.448789 0.524052 0.00391802)
(-0.422476 0.655923 0.00368836)
(-0.394149 0.771111 0.00344111)
(-0.364043 0.869176 0.00317834)
(-0.332429 0.949575 0.0029024)
(-0.299608 1.01167 0.00261591)
(-0.265922 1.0547 0.00232187)
(-0.231754 1.07777 0.00202362)
(-0.197539 1.07984 0.00172495)
(-0.163775 1.05966 0.0014302)
(-0.131026 1.01581 0.00114431)
(-0.0999307 0.946554 0.000872831)
(-0.0712521 0.849892 0.000622441)
(-0.0458116 0.723448 0.000400303)
(-0.0247026 0.564459 0.000215952)
(-0.00892073 0.369693 7.81479e-05)
(-0.000359663 0.135579 4.53364e-06)
(-0.551975 -0.160309 0.00481858)
(-0.534153 0.0337207 0.00466308)
(-0.513607 0.212068 0.00448377)
(-0.490498 0.374651 0.00428208)
(-0.465001 0.521306 0.00405955)
(-0.437312 0.651759 0.00381788)
(-0.40764 0.765696 0.0035589)
(-0.376221 0.862681 0.00328467)
(-0.343325 0.942176 0.00299754)
(-0.309255 1.00355 0.00270014)
(-0.274354 1.04604 0.0023955)
(-0.239007 1.06877 0.00208695)
(-0.203655 1.07069 0.00177835)
(-0.168802 1.05059 0.0014741)
(-0.135021 1.00703 0.00117919)
(-0.102963 0.938305 0.000899317)
(-0.0734082 0.842429 0.000641276)
(-0.0471969 0.717048 0.000412408)
(-0.0254508 0.559427 0.000222493)
(-0.00919252 0.366369 8.05288e-05)
(-0.000371268 0.134345 4.67767e-06)
(-0.574099 -0.156011 0.00501173)
(-0.554742 0.0359284 0.00484283)
(-0.532696 0.212354 0.00465043)
(-0.508124 0.373181 0.00443597)
(-0.4812 0.518246 0.00420098)
(-0.452121 0.647276 0.00394718)
(-0.421094 0.75996 0.00367636)
(-0.388354 0.855865 0.00339061)
(-0.354174 0.934457 0.00309226)
(-0.318853 0.995107 0.00278395)
(-0.282738 1.03707 0.0024687)
(-0.246215 1.05946 0.00214989)
(-0.209729 1.06125 0.00183139)
(-0.173792 1.04123 0.00151768)
(-0.138986 0.997978 0.00121382)
(-0.105972 0.929806 0.000925598)
(-0.0755475 0.834743 0.000659965)
(-0.0485714 0.710458 0.000424419)
(-0.0261933 0.554246 0.000228984)
(-0.00946232 0.362946 8.28923e-05)
(-0.000382819 0.133074 4.82094e-06)
(-0.596274 -0.152008 0.00520533)
(-0.575347 0.037832 0.00502272)
(-0.551775 0.212328 0.004817)
(-0.525721 0.371393 0.0045896)
(-0.497356 0.514864 0.00434203)
(-0.466876 0.64247 0.004076)
(-0.434487 0.7539 0.0037933)
(-0.400424 0.848724 0.00349599)
(-0.364957 0.926414 0.00318641)
(-0.328387 0.986347 0.00286719)
(-0.291061 1.02778 0.00254137)
(-0.253367 1.04984 0.00221234)
(-0.215755 1.05151 0.00188401)
(-0.17874 1.03159 0.00156089)
(-0.142916 0.988659 0.00124815)
(-0.108955 0.92106 0.000951649)
(-0.0776679 0.826835 0.000678488)
(-0.0499338 0.70368 0.000436324)
(-0.0269294 0.548918 0.000235419)
(-0.00972986 0.359425 8.52361e-05)
(-0.000394303 0.131767 4.96327e-06)
(-0.618441 -0.148314 0.00539885)
(-0.595918 0.0394181 0.00520231)
(-0.570801 0.211979 0.0049831)
(-0.54325 0.369279 0.00474264)
(-0.513435 0.511155 0.00448242)
(-0.481549 0.637335 0.00420411)
(-0.447797 0.747512 0.00390951)
(-0.41241 0.841257 0.00360064)
(-0.375659 0.918049 0.00327985)
(-0.337844 0.977268 0.00294977)
(-0.299313 1.01818 0.00261343)
(-0.260455 1.03992 0.00227423)
(-0.221724 1.04148 0.00193613)
(-0.183641 1.02166 0.00160369)
(-0.146808 0.979074 0.00128214)
(-0.111907 0.912068 0.000977441)
(-0.0797671 0.818709 0.000696827)
(-0.0512827 0.696715 0.00044811)
(-0.0276582 0.543443 0.00024179)
(-0.00999487 0.355808 8.75575e-05)
(-0.000405703 0.130423 5.10448e-06)
(-0.640537 -0.144946 0.00559176)
(-0.6164 0.0406762 0.00538113)
(-0.589726 0.2113 0.00514833)
(-0.560672 0.366834 0.00489475)
(-0.529403 0.507114 0.00462183)
(-0.496112 0.63187 0.00433125)
(-0.460997 0.740795 0.00402476)
(-0.424292 0.833465 0.00370438)
(-0.386263 0.909361 0.00337243)
(-0.34721 0.967871 0.00303154)
(-0.307481 1.00826 0.00268475)
(-0.267469 1.02969 0.00233548)
(-0.227629 1.03115 0.0019877)
(-0.188489 1.01145 0.00164602)
(-0.150657 0.969225 0.00131575)
(-0.114827 0.902833 0.00100295)
(-0.0818429 0.810365 0.000714961)
(-0.0526167 0.689566 0.000459766)
(-0.0283791 0.537823 0.000248092)
(-0.010257 0.352094 8.98542e-05)
(-0.000417005 0.129043 5.24441e-06)
(-0.662498 -0.141913 0.00578349)
(-0.636738 0.0415982 0.0055587)
(-0.608504 0.210285 0.00531228)
(-0.577946 0.364054 0.00504556)
(-0.545227 0.502741 0.00475998)
(-0.510534 0.626074 0.00445717)
(-0.474064 0.733749 0.00413885)
(-0.436048 0.825347 0.00380702)
(-0.39675 0.900352 0.003464)
(-0.356469 0.958158 0.00311239)
(-0.315555 0.998042 0.00275525)
(-0.274399 1.01916 0.00239599)
(-0.233462 1.02053 0.00203864)
(-0.193277 1.00097 0.00168783)
(-0.154458 0.959115 0.00134895)
(-0.117711 0.893358 0.00102813)
(-0.083893 0.801807 0.00073287)
(-0.0539342 0.682234 0.000471279)
(-0.0290912 0.53206 0.000254318)
(-0.0105161 0.348286 9.21236e-05)
(-0.000428193 0.127627 5.38286e-06)
(-0.684258 -0.139223 0.00597347)
(-0.656878 0.0421794 0.00573452)
(-0.627087 0.208932 0.00547451)
(-0.595032 0.360939 0.00519473)
(-0.56087 0.498033 0.00489656)
(-0.524786 0.619947 0.0045816)
(-0.486973 0.726377 0.00425155)
(-0.447657 0.816906 0.00390838)
(-0.407103 0.891025 0.0035544)
(-0.365609 0.948132 0.00319219)
(-0.323522 0.987514 0.00282482)
(-0.281237 1.00834 0.0024557)
(-0.239217 1.00962 0.00208889)
(-0.198 0.990206 0.00172908)
(-0.158208 0.948747 0.00138169)
(-0.120555 0.883647 0.00105298)
(-0.085915 0.793038 0.000750534)
(-0.0552338 0.674722 0.000482635)
(-0.0297937 0.526156 0.000260459)
(-0.0107717 0.344384 9.43631e-05)
(-0.000439251 0.126176 5.51964e-06)
(-0.705753 -0.13688 0.00616112)
(-0.676761 0.0424181 0.00590811)
(-0.645426 0.20724 0.00563462)
(-0.611887 0.357487 0.00534189)
(-0.576298 0.492994 0.00503125)
(-0.538838 0.613492 0.00470429)
(-0.499697 0.71868 0.00436265)
(-0.459099 0.808145 0.00400829)
(-0.417306 0.881382 0.00364348)
(-0.374613 0.937797 0.00327081)
(-0.33137 0.976683 0.00289335)
(-0.287973 0.997219 0.00251451)
(-0.244885 0.998429 0.00213839)
(-0.202651 0.979176 0.0017697)
(-0.1619 0.938126 0.00141394)
(-0.123357 0.873701 0.00107744)
(-0.0879067 0.78406 0.000767932)
(-0.056514 0.667033 0.000493822)
(-0.0304859 0.520113 0.00026651)
(-0.0110237 0.34039 9.65701e-05)
(-0.000450163 0.12469 5.65458e-06)
(-0.726914 -0.134882 0.00634586)
(-0.696331 0.042316 0.00607897)
(-0.663472 0.205211 0.00579218)
(-0.628471 0.353704 0.00548668)
(-0.591476 0.487627 0.00516377)
(-0.552661 0.606713 0.00482498)
(-0.512213 0.710663 0.00447192)
(-0.470353 0.799068 0.00410654)
(-0.427339 0.871429 0.00373108)
(-0.383468 0.927157 0.00334813)
(-0.339088 0.965555 0.00296073)
(-0.294595 0.98581 0.00257235)
(-0.250458 0.986959 0.00218706)
(-0.207224 0.96788 0.00180964)
(-0.165531 0.927254 0.00144565)
(-0.126111 0.863526 0.0011015)
(-0.0898656 0.774878 0.000785045)
(-0.0577734 0.65917 0.000504826)
(-0.0311669 0.513933 0.000272464)
(-0.0112716 0.336304 9.8742e-05)
(-0.000460915 0.12317 5.78749e-06)
(-0.747676 -0.133226 0.00652713)
(-0.715533 0.0418779 0.00624661)
(-0.68118 0.202851 0.00594677)
(-0.644744 0.349594 0.00562875)
(-0.606369 0.481936 0.0052938)
(-0.566226 0.599615 0.00494341)
(-0.524496 0.702331 0.00457916)
(-0.481396 0.789681 0.00420297)
(-0.437186 0.86117 0.00381706)
(-0.392159 0.916218 0.00342402)
(-0.346663 0.954134 0.00302688)