/*--------------------------------*- C++ -*----------------------------------*\
| =========                 |                                                 |
| \\      /  F ield         | OpenFOAM: The Open Source CFD Toolbox           |
|  \\    /   O peration     | Version:  v2012                                 |
|   \\  /    A nd           | Website:  www.openfoam.com                      |
|    \\/     M anipulation  |                                                 |
\*---------------------------------------------------------------------------*/
FoamFile
{
    version     2.0;
    format      ascii;
    class       volVectorField;
    location    "0.5";
    object      U;
}
// * * * * * * * * * * * * * * * * * * * * * * * * * * * * * * * * * * * * * //

dimensions      [0 1 -1 0 0 0 0];


internalField   nonuniform List<vector> 
3320
(
(-2.91331 -0.287038 0.0254245)
(-2.2051 -0.208162 0.0192439)
(-1.65179 -0.151625 0.0144151)
(-1.21883 -0.110301 0.0106365)
(-0.879117 -0.0798086 0.00767178)
(-0.613247 -0.0572375 0.00535146)
(-0.406074 -0.0405714 0.00354343)
(-0.245843 -0.0283456 0.0021451)
(-0.123211 -0.0194544 0.00107491)
(-0.0303958 -0.0130763 0.000264925)
(0.0384179 -0.00862625 -0.00033559)
(0.0882467 -0.00546128 -0.000770426)
(0.123359 -0.00329279 -0.00107683)
(0.146811 -0.00184246 -0.00128149)
(0.161272 -0.000887411 -0.00140768)
(0.168835 -0.000272628 -0.00147369)
(0.17117 0.000111804 -0.00149407)
(0.169598 0.00034262 -0.00148035)
(0.165163 0.000472557 -0.00144164)
(0.158676 0.000529706 -0.00138504)
(0.150774 0.000551608 -0.00131607)
(0.141945 0.000546899 -0.00123902)
(0.132558 0.000525991 -0.00115709)
(0.122884 0.000497834 -0.00107266)
(0.113119 0.000467091 -0.000987427)
(0.103393 0.00043677 -0.000902544)
(0.0937907 0.00040862 -0.000818736)
(0.0843591 0.000383397 -0.000736417)
(0.0751176 0.00036097 -0.000655756)
(0.0660744 0.00034058 -0.000576827)
(0.05724 0.000320836 -0.000499719)
(0.0486397 0.000299975 -0.000424652)
(0.0403303 0.000276098 -0.000352121)
(0.0324077 0.000247698 -0.000282966)
(0.0250139 0.000214582 -0.000218423)
(0.0183203 0.000176425 -0.000159988)
(0.0125135 0.000134911 -0.000109291)
(0.0077318 9.52407e-05 -6.75418e-05)
(0.00404311 5.98688e-05 -3.53327e-05)
(0.00140268 3.23994e-05 -1.22728e-05)
(-0.00025382 6.20268e-06 2.20246e-06)
(-0.00102907 -1.97836e-05 9.00087e-06)
(-0.000586896 -9.15489e-05 5.3102e-06)
(-3.60831 -0.953177 0.0315007)
(-2.86788 -0.74697 0.0250371)
(-2.25448 -0.590698 0.0196825)
(-1.74495 -0.469303 0.0152346)
(-1.32005 -0.373503 0.0115254)
(-0.965603 -0.296929 0.00843119)
(-0.670336 -0.235258 0.00585359)
(-0.425401 -0.185386 0.00371534)
(-0.223641 -0.145036 0.00195398)
(-0.0588906 -0.112466 0.000515671)
(0.073591 -0.0863708 -0.000640954)
(0.178254 -0.0654157 -0.00155473)
(0.259174 -0.0487783 -0.00226125)
(0.319603 -0.0356709 -0.0027889)
(0.362674 -0.0254311 -0.00316501)
(0.391155 -0.017502 -0.00341375)
(0.40752 -0.0114218 -0.00355672)
(0.413965 -0.00680976 -0.00361309)
(0.412416 -0.00335348 -0.00359967)
(0.404546 -0.000806593 -0.00353105)
(0.391778 0.00104197 -0.00341968)
(0.375315 0.00236443 -0.00327603)
(0.356155 0.00328702 -0.00310883)
(0.335093 0.00391252 -0.00292503)
(0.312753 0.0043252 -0.00273006)
(0.28961 0.00459015 -0.00252808)
(0.266007 0.00475655 -0.00232208)
(0.242183 0.00485949 -0.00211415)
(0.218286 0.00492074 -0.00190558)
(0.194416 0.00494969 -0.00169725)
(0.170658 0.00494328 -0.00148989)
(0.14712 0.00488734 -0.00128444)
(0.123978 0.00475908 -0.00108246)
(0.101518 0.00453266 -0.000886414)
(0.0801577 0.00418759 -0.000699957)
(0.0604241 0.003717 -0.000527693)
(0.0429086 0.00313922 -0.000374778)
(0.0281148 0.00250008 -0.000245612)
(0.016361 0.00185799 -0.000142975)
(0.00765271 0.00126702 -6.69211e-05)
(0.00186457 0.0007233 -1.63517e-05)
(-0.00125957 0.000163105 1.09781e-05)
(-0.00108716 -0.000381659 9.86322e-06)
(-3.44265 -1.46269 0.0300537)
(-2.79629 -1.17983 0.0244115)
(-2.2459 -0.960301 0.0196071)
(-1.77651 -0.786567 0.0155097)
(-1.37497 -0.6469 0.0120045)
(-1.03095 -0.532976 0.00900147)
(-0.736017 -0.438979 0.0064269)
(-0.483464 -0.360729 0.00422226)
(-0.267903 -0.295199 0.00234051)
(-0.0847599 -0.240106 0.000741719)
(0.0693228 -0.193931 -0.000603402)
(0.19746 -0.154959 -0.00172204)
(0.302517 -0.122315 -0.00263923)
(0.386684 -0.0950833 -0.00337406)
(0.452156 -0.0725128 -0.00394572)
(0.500956 -0.0539536 -0.00437183)
(0.534997 -0.0388348 -0.00466912)
(0.55611 -0.0266499 -0.00485356)
(0.566039 -0.0169463 -0.00494036)
(0.566434 -0.00931802 -0.00494393)
(0.558838 -0.00340973 -0.00487773)
(0.544662 0.00110481 -0.00475409)
(0.525175 0.00450232 -0.00458408)
(0.501495 0.00702208 -0.00437746)
(0.474575 0.00887051 -0.00414255)
(0.445194 0.0102192 -0.00388614)
(0.413967 0.0112066 -0.00361362)
(0.381367 0.011939 -0.00332911)
(0.347728 0.0124901 -0.00303552)
(0.313295 0.0129005 -0.00273501)
(0.27827 0.0131758 -0.00242932)
(0.242867 0.013288 -0.00212033)
(0.207394 0.0131799 -0.00181072)
(0.172313 0.0127782 -0.00150452)
(0.138314 0.0120168 -0.00120776)
(0.106301 0.0108634 -0.000928308)
(0.0773112 0.0093528 -0.000675233)
(0.0523196 0.00760277 -0.000457038)
(0.0320309 0.00578228 -0.000279878)
(0.0166474 0.00405431 -0.000145531)
(0.0060615 0.002454 -5.30563e-05)
(-0.000118876 0.000834418 9.7105e-07)
(-0.00117987 -0.000673131 1.05805e-05)
(-3.12909 -1.88554 0.0273159)
(-2.58274 -1.55227 0.0225469)
(-2.10535 -1.28676 0.0183798)
(-1.68951 -1.0725 0.0147499)
(-1.32746 -0.897545 0.0115895)
(-1.01232 -0.752995 0.00883867)
(-0.737992 -0.632327 0.00644397)
(-0.49928 -0.530681 0.00436019)
(-0.291845 -0.444425 0.00254942)
(-0.111972 -0.370776 0.000979218)
(0.0432153 -0.307866 -0.000375497)
(0.17624 -0.253643 -0.00153676)
(0.2893 -0.207082 -0.00252376)
(0.384072 -0.167112 -0.00335113)
(0.462101 -0.132911 -0.00403235)
(0.524741 -0.103783 -0.00457925)
(0.573234 -0.0791354 -0.00500267)
(0.608759 -0.0584469 -0.0053129)
(0.632464 -0.0412468 -0.00551995)
(0.645486 -0.0271012 -0.00563374)
(0.64896 -0.0156045 -0.00566419)
(0.644007 -0.0063774 -0.00562107)
(0.631726 0.000938484 -0.00551398)
(0.613156 0.00667434 -0.00535198)
(0.589271 0.0111356 -0.0051436)
(0.560953 0.0145965 -0.00489649)
(0.528952 0.0172933 -0.00461725)
(0.493895 0.0194195 -0.00431131)
(0.45626 0.0211199 -0.00398287)
(0.416424 0.0224847 -0.00363522)
(0.374698 0.0235412 -0.00327107)
(0.331394 0.0242516 -0.00289313)
(0.286924 0.0245158 -0.00250501)
(0.241903 0.0241918 -0.00211207)
(0.197261 0.0231364 -0.00172243)
(0.154278 0.0212622 -0.00134724)
(0.114488 0.0186074 -0.000999888)
(0.0794425 0.0153748 -0.000693928)
(0.0503855 0.0118935 -0.000440215)
(0.02788 0.00850258 -0.000243679)
(0.0119442 0.0053382 -0.000104481)
(0.00208299 0.00218241 -1.83136e-05)
(-0.00101263 -0.000727704 8.77709e-06)
(-2.7914 -2.20608 0.0243676)
(-2.33837 -1.84941 0.0204133)
(-1.93204 -1.55743 0.0168665)
(-1.57035 -1.31663 0.0137094)
(-1.24988 -1.11649 0.010912)
(-0.966841 -0.948754 0.00844138)
(-0.717405 -0.807075 0.00626403)
(-0.497955 -0.68652 0.00434842)
(-0.305208 -0.583279 0.00266589)
(-0.136199 -0.49436 0.00119056)
(0.0115485 -0.417571 -9.91837e-05)
(0.140231 -0.350808 -0.00122251)
(0.251807 -0.29276 -0.00219653)
(0.347812 -0.242211 -0.00303462)
(0.429577 -0.198221 -0.00374842)
(0.498221 -0.160008 -0.0043477)
(0.554682 -0.126922 -0.00484064)
(0.599768 -0.0984119 -0.0052343)
(0.634199 -0.0739968 -0.00553494)
(0.658641 -0.053247 -0.0057484)
(0.673743 -0.035765 -0.00588034)
(0.680158 -0.0211744 -0.00593645)
(0.678555 -0.00910983 -0.00592257)
(0.669629 0.000784017 -0.00584476)
(0.654054 0.00884214 -0.00570893)
(0.632502 0.0153885 -0.00552089)
(0.605614 0.0207262 -0.0052863)
(0.573969 0.0251189 -0.00501017)
(0.53804 0.0287779 -0.00469665)
(0.498217 0.0318457 -0.00434913)
(0.454827 0.034377 -0.00397049)
(0.408197 0.036326 -0.00356354)
(0.358763 0.0375423 -0.00313213)
(0.307208 0.0377923 -0.00268218)
(0.254624 0.0368177 -0.00222324)
(0.202612 0.0344314 -0.00176925)
(0.153215 0.0306392 -0.00133806)
(0.108649 0.0257241 -0.000949)
(0.0708584 0.0202151 -0.000619039)
(0.0409552 0.014703 -0.000357914)
(0.0192236 0.0095072 -0.000168103)
(0.00513569 0.00438088 -4.50402e-05)
(-0.000663822 -0.000394339 5.19201e-06)
(-2.45353 -2.4486 0.0214178)
(-2.08524 -2.08583 0.0182033)
(-1.74583 -1.78105 0.0152407)
(-1.43678 -1.52415 0.0125432)
(-1.15779 -1.30668 0.0101079)
(-0.907546 -1.12167 0.00792353)
(-0.684187 -0.963454 0.00597385)
(-0.485586 -0.827451 0.00424025)
(-0.309558 -0.709992 0.00270368)
(-0.153959 -0.608107 0.00134543)
(-0.0168162 -0.519507 0.00014827)
(0.103678 -0.442055 -0.000903567)
(0.209247 -0.374299 -0.00182512)
(0.301342 -0.314885 -0.00262907)
(0.381225 -0.26276 -0.00332642)
(0.449985 -0.217029 -0.00392668)
(0.508523 -0.176947 -0.00443773)
(0.557574 -0.141884 -0.00486597)
(0.597728 -0.111306 -0.00521654)
(0.629455 -0.0847497 -0.00549356)
(0.653136 -0.0618053 -0.00570036)
(0.669097 -0.0420972 -0.00583977)
(0.677635 -0.0252721 -0.0059144)
(0.679047 -0.0109823 -0.00592682)
(0.67365 0.00111029 -0.00587982)
(0.661734 0.011325 -0.00577591)
(0.643607 0.0199784 -0.00561778)
(0.619583 0.0273663 -0.0054082)
(0.589935 0.0337389 -0.00514951)
(0.554883 0.0392754 -0.00484366)
(0.514606 0.04405 -0.00449221)
(0.469292 0.0480032 -0.00409678)
(0.419247 0.0509221 -0.00366006)
(0.365061 0.0524554 -0.00318718)
(0.307833 0.0521823 -0.00268773)
(0.249352 0.049752 -0.00217732)
(0.192106 0.0450754 -0.00167763)
(0.13901 0.0384829 -0.00121412)
(0.0928437 0.0307243 -0.000811061)
(0.0554764 0.0227193 -0.00048477)
(0.0276348 0.0150736 -0.000241608)
(0.00886845 0.00757701 -7.77163e-05)
(-0.000182445 0.000449923 2.97675e-07)
(-2.13464 -2.62328 0.0186338)
(-1.83879 -2.26703 0.0160516)
(-1.55897 -1.96028 0.0136093)
(-1.29844 -1.69615 0.0113352)
(-1.05875 -1.46844 0.00924313)
(-0.840323 -1.27168 0.0073365)
(-0.642743 -1.10121 0.00561186)
(-0.465103 -0.95308 0.00406126)
(-0.306195 -0.824 0.00267415)
(-0.164654 -0.711217 0.00143862)
(-0.0390392 -0.612505 0.000342104)
(0.0719921 -0.525814 -0.000627119)
(0.169849 -0.449652 -0.00148134)
(0.255847 -0.382606 -0.00223206)
(0.331122 -0.32355 -0.00288917)
(0.396742 -0.271502 -0.00346201)
(0.453626 -0.225622 -0.0039586)
(0.502548 -0.185191 -0.00438569)
(0.544136 -0.149592 -0.00474876)
(0.578871 -0.118289 -0.00505201)
(0.607101 -0.0908176 -0.0052985)
(0.629057 -0.0667668 -0.00549021)
(0.644875 -0.0457648 -0.00562836)
(0.654626 -0.0274611 -0.00571355)
(0.658337 -0.0115167 -0.00574603)
(0.656021 0.00239473 -0.0057259)
(0.647627 0.0145744 -0.00565273)
(0.6331 0.0253196 -0.00552604)
(0.612381 0.0348902 -0.00534529)
(0.585374 0.0434799 -0.00510968)
(0.551947 0.0511682 -0.00481803)
(0.51197 0.0578716 -0.00446921)
(0.465427 0.0633008 -0.00406308)
(0.412598 0.0669576 -0.00360208)
(0.354353 0.0682041 -0.0030938)
(0.292445 0.066443 -0.00255351)
(0.229631 0.0613955 -0.00200526)
(0.16947 0.0533673 -0.00148011)
(0.115659 0.0433187 -0.00101032)
(0.0710108 0.0325656 -0.000620469)
(0.036907 0.0221173 -0.000322632)
(0.0131293 0.0118851 -0.000115012)
(0.000400003 0.00190032 -5.59258e-06)
(-1.84193 -2.74664 0.0160784)
(-1.60671 -2.40388 0.0140255)
(-1.37848 -2.10208 0.0120335)
(-1.16127 -1.837 0.0101376)
(-0.957635 -1.60443 0.00836022)
(-0.769035 -1.4004 0.00671401)
(-0.596081 -1.22133 0.00520435)
(-0.438768 -1.06401 0.0038312)
(-0.296667 -0.925651 0.00259081)
(-0.169073 -0.803844 0.00147704)
(-0.0550469 -0.696523 0.00048169)
(0.0463076 -0.60189 -0.000403055)
(0.136043 -0.518353 -0.00118637)
(0.215285 -0.444608 -0.00187811)
(0.284978 -0.379484 -0.00248649)
(0.346102 -0.321957 -0.00302008)
(0.399543 -0.271128 -0.0034866)
(0.446097 -0.226203 -0.003893)
(0.486446 -0.186484 -0.00424525)
(0.521151 -0.151354 -0.00454822)
(0.550637 -0.120274 -0.00480564)
(0.575193 -0.0927637 -0.00502004)
(0.594978 -0.0683989 -0.00519279)
(0.610032 -0.0467895 -0.00532425)
(0.620291 -0.0275742 -0.00541386)
(0.625602 -0.0104062 -0.00546029)
(0.625758 0.00504493 -0.00546173)
(0.620411 0.0190605 -0.00541515)
(0.609177 0.0319146 -0.00531718)
(0.591611 0.0438072 -0.00516398)
(0.567196 0.0548169 -0.004951)
(0.535369 0.0648345 -0.00467333)
(0.495627 0.0734884 -0.00432659)
(0.447726 0.0801122 -0.00390862)
(0.392032 0.0837981 -0.00342265)
(0.329954 0.083607 -0.00288091)
(0.26424 0.0789441 -0.0023074)
(0.19891 0.0699719 -0.00173715)
(0.13856 0.0578043 -0.00121031)
(0.0870922 0.0441954 -0.000760938)
(0.0467606 0.0306776 -0.000408732)
(0.0177724 0.0173872 -0.00015565)
(0.00105739 0.00402315 -1.22184e-05)
(-1.57995 -2.83019 0.0137914)
(-1.39408 -2.50476 0.0121692)
(-1.20931 -2.21231 0.0105566)
(-1.02972 -1.95068 0.00898907)
(-0.858216 -1.71734 0.00749218)
(-0.696816 -1.50964 0.00608341)
(-0.546743 -1.32503 0.00477349)
(-0.408611 -1.16108 0.00356778)
(-0.282566 -1.01556 0.00246757)
(-0.168414 -0.886456 0.00147114)
(-0.0656806 -0.771952 0.000574377)
(0.0262015 -0.670504 -0.000227674)
(0.107957 -0.580547 -0.000941334)
(0.180426 -0.500898 -0.00157394)
(0.244385 -0.430394 -0.00213227)
(0.300666 -0.368013 -0.00262357)
(0.350063 -0.312831 -0.00305479)
(0.393333 -0.264009 -0.00343252)
(0.431169 -0.220793 -0.00376282)
(0.464179 -0.182501 -0.00405098)
(0.492871 -0.148517 -0.00430147)
(0.517636 -0.118289 -0.00451767)
(0.538735 -0.0913213 -0.00470187)
(0.556298 -0.0671588 -0.00485521)
(0.57032 -0.0453859 -0.00497764)
(0.580662 -0.0256151 -0.00506796)
(0.587059 -0.00746967 -0.00512386)
(0.58913 0.00937814 -0.00514201)
(0.586291 0.0252238 -0.0051173)
(0.577842 0.0402923 -0.00504366)
(0.562934 0.0546799 -0.00491365)
(0.540577 0.0682712 -0.00471864)
(0.50972 0.0806303 -0.00444946)
(0.469451 0.090925 -0.00409814)
(0.419397 0.097943 -0.00366142)
(0.360291 0.100313 -0.00314567)
(0.294507 0.0969757 -0.00257159)
(0.226217 0.087786 -0.00197556)
(0.160777 0.0738963 -0.00140431)
(0.103233 0.0574963 -0.000901918)
(0.0569089 0.0407489 -0.000497403)
(0.022656 0.0241312 -0.000198392)
(0.00176709 0.00687041 -1.93534e-05)
(-1.34888 -2.88461 0.0117743)
(-1.20274 -2.57774 0.0104988)
(-1.05403 -2.29694 0.00920092)
(-0.906497 -2.04151 0.00791331)
(-0.763082 -1.81022 0.00666157)
(-0.625975 -1.60155 0.00546487)
(-0.496724 -1.41385 0.00433672)
(-0.376322 -1.2454 0.00328578)
(-0.265312 -1.09454 0.00231681)
(-0.163873 -0.959682 0.00143137)
(-0.0718911 -0.839308 0.000628463)
(0.0109136 -0.732066 -9.43433e-05)
(0.0849888 -0.636592 -0.000740956)
(0.150927 -0.551768 -0.00131655)
(0.209324 -0.476495 -0.00182632)
(0.260844 -0.409779 -0.00227606)
(0.306162 -0.350703 -0.00267167)
(0.34595 -0.298414 -0.003019)
(0.380856 -0.252127 -0.00332372)
(0.411486 -0.211116 -0.00359111)
(0.438385 -0.17471 -0.00382593)
(0.462016 -0.142293 -0.00403222)
(0.482744 -0.113302 -0.00421317)
(0.500818 -0.0872117 -0.00437096)
(0.516356 -0.0635371 -0.00450662)
(0.529337 -0.0418258 -0.00461995)
(0.539581 -0.0216476 -0.0047094)
(0.546756 -0.00259184 -0.00477208)
(0.550327 0.0157006 -0.0048033)
(0.549496 0.0335129 -0.00479613)
(0.543238 0.0509981 -0.00474161)
(0.53026 0.0680792 -0.00462845)
(0.509037 0.0843046 -0.00444335)
(0.477978 0.0987156 -0.00417243)
(0.435837 0.1098 -0.00380481)
(0.382398 0.115691 -0.00333857)
(0.319271 0.114718 -0.00278772)
(0.25038 0.106227 -0.00218649)
(0.181558 0.0912301 -0.00158576)
(0.118941 0.0722907 -0.00103911)
(0.067063 0.0522779 -0.000586118)
(0.0276409 0.0321298 -0.000242016)
(0.00250751 0.0104709 -2.67806e-05)
(-0.913812 -2.36104 0.00797686)
(-0.793211 -2.11336 0.00692429)
(-0.673942 -1.88598 0.00588332)
(-0.55817 -1.67829 0.00487286)
(-0.447547 -1.48937 0.00390731)
(-0.34326 -1.31816 0.00299705)
(-0.246095 -1.16351 0.00214893)
(-0.156492 -1.02423 0.00136682)
(-0.0746022 -0.899134 0.000652012)
(-0.000372167 -0.787085 4.06117e-06)
(0.0664218 -0.68691 -0.000578987)
(0.12616 -0.597595 -0.00110046)
(0.179274 -0.518119 -0.00156411)
(0.226271 -0.447541 -0.00197436)
(0.267693 -0.384968 -0.00233596)
(0.304109 -0.329557 -0.00265385)
(0.336091 -0.280512 -0.00293304)
(0.364199 -0.237086 -0.00317841)
(0.388967 -0.198574 -0.00339463)
(0.410884 -0.164317 -0.00358596)
(0.430375 -0.133695 -0.00375611)
(0.447784 -0.106124 -0.00390808)
(0.463353 -0.0810527 -0.004044)
(0.4772 -0.057958 -0.00416487)
(0.489295 -0.036338 -0.00427047)
(0.499441 -0.0157079 -0.00435906)
(0.507248 0.00439245 -0.00442723)
(0.512022 0.0243454 -0.00446896)
(0.512743 0.0444069 -0.00447533)
(0.508007 0.0645969 -0.00443409)
(0.495996 0.0845216 -0.00432938)
(0.474568 0.103175 -0.00414252)
(0.441624 0.1188 -0.00385519)
(0.395847 0.129022 -0.00345585)
(0.337748 0.131443 -0.00294894)
(0.270564 0.124682 -0.00236265)
(0.200216 0.109381 -0.00174865)
(0.133741 0.0883418 -0.00116836)
(0.0769379 0.0651652 -0.00067239)
(0.0325896 0.0413601 -0.000285321)
(0.00325658 0.0148318 -3.42797e-05)
(-0.78876 -2.409 0.00688518)
(-0.690529 -2.16973 0.00602786)
(-0.59177 -1.94737 0.00516592)
(-0.49449 -1.74196 0.00431687)
(-0.400307 -1.55321 0.00349483)
(-0.310467 -1.38059 0.00271068)
(-0.225881 -1.22341 0.00197237)
(-0.147152 -1.08085 0.00128518)
(-0.074617 -0.952039 0.000652037)
(-0.00839251 -0.836061 7.39717e-05)
(0.0515689 -0.731934 -0.00044943)
(0.105476 -0.638764 -0.000919996)
(0.153623 -0.55562 -0.00134028)
(0.196372 -0.481624 -0.00171346)
(0.234147 -0.415922 -0.00204321)
(0.267407 -0.357694 -0.00233355)
(0.296635 -0.306151 -0.00258871)
(0.322325 -0.26054 -0.00281297)
(0.344966 -0.220142 -0.00301062)
(0.365031 -0.184269 -0.00318578)
(0.38296 -0.152267 -0.00334229)
(0.39915 -0.123507 -0.00348361)
(0.413927 -0.097384 -0.00361261)
(0.427528 -0.0733128 -0.00373133)
(0.440073 -0.0507217 -0.00384083)
(0.451532 -0.0290492 -0.00394087)
(0.461691 -0.00773804 -0.00402956)
(0.47008 0.0137224 -0.00410282)
(0.475832 0.0357281 -0.00415308)
(0.477629 0.0584525 -0.00416883)
(0.473584 0.0816421 -0.00413364)
(0.461234 0.104349 -0.004026)
(0.437786 0.124679 -0.00382154)
(0.400834 0.139802 -0.00349925)
(0.349584 0.146531 -0.00305215)
(0.286177 0.14256 -0.00249889)
(0.216171 0.127894 -0.00188794)
(0.147196 0.105365 -0.00128585)
(0.0862619 0.079268 -0.000753843)
(0.0373688 0.051765 -0.000327139)
(0.00399152 0.0199397 -4.16256e-05)
(-0.678325 -2.44441 0.00592112)
(-0.598515 -2.21363 0.00522459)
(-0.517007 -1.99682 0.00451321)
(-0.435583 -1.79452 0.00380257)
(-0.355746 -1.60691 0.00310575)
(-0.278711 -1.4339 0.00243338)
(-0.205425 -1.27519 0.00179371)
(-0.136576 -1.1303 0.00119276)
(-0.0726194 -0.998637 0.000634506)
(-0.0137933 -0.8795 0.000121025)
(0.0398142 -0.772094 -0.000346909)
(0.0882787 -0.675654 -0.000769963)
(0.131783 -0.58934 -0.00114972)
(0.170569 -0.512344 -0.00148829)
(0.204951 -0.443862 -0.00178843)
(0.23529 -0.383104 -0.00205327)
(0.261981 -0.329299 -0.00228628)
(0.285442 -0.281699 -0.00249108)
(0.3061 -0.239583 -0.00267142)
(0.324389 -0.20225 -0.00283107)
(0.340731 -0.169029 -0.00297373)
(0.35553 -0.13926 -0.00310291)
(0.369157 -0.112301 -0.00322187)
(0.381927 -0.0875213 -0.00333332)
(0.394073 -0.0642902 -0.00343935)
(0.405719 -0.0419765 -0.003541)
(0.416835 -0.0199357 -0.00363803)
(0.427172 0.00246692 -0.00372827)
(0.436128 0.0257888 -0.00380647)
(0.442607 0.0503964 -0.00386307)
(0.444861 0.0762488 -0.00388283)
(0.44036 0.102569 -0.00384367)
(0.42588 0.127464 -0.00371748)
(0.398094 0.147767 -0.00347519)
(0.354853 0.159516 -0.00309804)
(0.296907 0.159335 -0.00259249)
(0.228992 0.146312 -0.00199983)
(0.158932 0.123044 -0.00138831)
(0.0947862 0.0944068 -0.000828305)
(0.0418526 0.0632559 -0.000366371)
(0.00468931 0.0257607 -4.85924e-05)
(-0.581543 -2.4702 0.00507625)
(-0.516809 -2.2476 0.00451131)
(-0.449699 -2.03646 0.0039256)
(-0.381754 -1.83771 0.00333261)
(-0.31432 -1.65188 0.00274405)
(-0.248527 -1.47924 0.00216981)
(-0.185295 -1.31979 0.00161791)
(-0.125338 -1.17333 0.00109458)
(-0.0691779 -1.03953 0.000604381)
(-0.0171281 -0.917906 0.000150054)
(0.0306189 -0.807812 -0.00026672)
(0.0740382 -0.708629 -0.000645731)
(0.113229 -0.619602 -0.000987826)
(0.148329 -0.539999 -0.00129422)
(0.179564 -0.469066 -0.00156689)
(0.207208 -0.40605 -0.00180821)
(0.231574 -0.350205 -0.00202091)
(0.253006 -0.300797 -0.002208)
(0.271868 -0.257109 -0.00237266)
(0.288538 -0.21844 -0.00251818)
(0.303401 -0.18411 -0.00264793)
(0.316844 -0.153444 -0.00276527)
(0.329242 -0.125778 -0.0028735)
(0.340946 -0.10045 -0.00297565)
(0.352263 -0.0767891 -0.00307444)
(0.363429 -0.054108 -0.00317189)
(0.37457 -0.031688 -0.00326913)
(0.385637 -0.0087894 -0.00336574)
(0.396304 0.0153023 -0.00345885)
(0.405774 0.0411641 -0.00354153)
(0.41258 0.0690153 -0.00360099)
(0.414355 0.0983461 -0.00361659)
(0.407736 0.127415 -0.00355899)
(0.388747 0.152885 -0.00339348)
(0.354009 0.170115 -0.00309055)
(0.302724 0.174583 -0.00264318)
(0.238414 0.164208 -0.00208203)
(0.168655 0.141049 -0.0014732)
(0.102296 0.110374 -0.000893895)
(0.0459264 0.0757163 -0.000402013)
(0.0053276 0.0322418 -5.49622e-05)
(-0.497246 -2.48869 0.00434038)
(-0.444792 -2.27372 0.00388262)
(-0.389627 -2.06813 0.00340118)
(-0.333061 -1.87308 0.00290749)
(-0.276267 -1.68942 0.00241181)
(-0.220262 -1.51765 0.00192301)
(-0.165904 -1.35805 0.00144856)
(-0.113886 -1.21065 0.000994535)
(-0.0647561 -1.07532 0.000565708)
(-0.0188633 -0.95176 0.000165128)
(0.0235181 -0.839496 -0.000204807)
(0.0622894 -0.738037 -0.000543242)
(0.0974922 -0.646712 -0.000850526)
(0.129178 -0.564861 -0.00112712)
(0.157502 -0.491785 -0.00137436)
(0.18266 -0.426771 -0.00159398)
(0.204896 -0.3691 -0.00178809)
(0.224486 -0.318056 -0.0019591)
(0.241731 -0.272932 -0.00210965)
(0.256955 -0.233034 -0.00224254)
(0.270495 -0.19768 -0.00236074)
(0.282702 -0.166192 -0.0024673)
(0.293934 -0.137896 -0.00256534)
(0.304545 -0.112111 -0.00265796)
(0.314877 -0.0881409 -0.00274814)
(0.325232 -0.0652605 -0.00283852)
(0.335851 -0.0426945 -0.00293119)
(0.346848 -0.019619 -0.00302718)
(0.35813 0.00481389 -0.00312564)
(0.369213 0.0313877 -0.00322238)
(0.378984 0.0605987 -0.0033077)
(0.385397 0.0922721 -0.00336375)
(0.385213 0.124953 -0.00336229)
(0.374132 0.155324 -0.00326579)
(0.34779 0.178224 -0.00303614)
(0.303853 0.188002 -0.00265293)
(0.244347 0.181212 -0.00213376)
(0.176168 0.159056 -0.00153877)
(0.108617 0.126943 -0.000949104)
(0.0494916 0.0890069 -0.000433202)
(0.0058858 0.0393131 -6.05354e-05)
(-0.424181 -2.50168 0.00370258)
(-0.381698 -2.29369 0.00333183)
(-0.3364 -2.09334 0.00293651)
(-0.289384 -1.90199 0.00252618)
(-0.241658 -1.72067 0.00210965)
(-0.194117 -1.55011 0.00169472)
(-0.147534 -1.39078 0.00128814)
(-0.102555 -1.24291 0.000895559)
(-0.0597211 -1.10653 0.000521692)
(-0.0193879 -0.981513 0.000169643)
(0.0181134 -0.867546 -0.000157693)
(0.0526302 -0.764209 -0.000458985)
(0.0841657 -0.670956 -0.000734256)
(0.112702 -0.587185 -0.000983349)
(0.138335 -0.512251 -0.00120711)
(0.161202 -0.445481 -0.00140672)
(0.181483 -0.386186 -0.00158377)
(0.199397 -0.33367 -0.00174015)
(0.215189 -0.287243 -0.001878)
(0.229127 -0.246216 -0.00199967)
(0.2415 -0.209916 -0.00210768)
(0.252618 -0.177665 -0.00220474)
(0.262806 -0.148785 -0.00229367)
(0.272401 -0.122592 -0.00237742)
(0.281747 -0.0983752 -0.00245899)
(0.29118 -0.0753869 -0.00254132)
(0.301006 -0.0528139 -0.00262707)
(0.311461 -0.0297696 -0.00271831)
(0.322629 -0.00530005 -0.00281578)
(0.334305 0.0215576 -0.00291769)
(0.345735 0.0515713 -0.00301746)
(0.355279 0.084933 -0.00310081)
(0.36002 0.120578 -0.00314231)
(0.35564 0.155389 -0.00310427)
(0.337113 0.183898 -0.00294282)
(0.300726 0.199421 -0.00262554)
(0.246866 0.197029 -0.00215569)
(0.181373 0.176766 -0.00158418)
(0.113628 0.143883 -0.000992857)
(0.0524685 0.102972 -0.000459243)
(0.00634624 0.0468898 -6.51415e-05)
(-0.361103 -2.5106 0.00315195)
(-0.326695 -2.30888 0.00285168)
(-0.28952 -2.11337 0.00252725)
(-0.250485 -1.92556 0.00218659)
(-0.210446 -1.74663 0.00183715)
(-0.170179 -1.57748 0.00148571)
(-0.130365 -1.41871 0.00113822)
(-0.0915881 -1.27073 0.000799771)
(-0.0543543 -1.1337 0.000474787)
(-0.0190254 -1.00761 0.000166421)
(0.0140624 -0.892317 -0.000122386)
(0.0447186 -0.787457 -0.000389978)
(0.0728937 -0.6926 -0.000635914)
(0.0985339 -0.607204 -0.000859728)
(0.121689 -0.530672 -0.00106185)
(0.142444 -0.462371 -0.00124303)
(0.160932 -0.401643 -0.00140441)
(0.177316 -0.347814 -0.00154744)
(0.191794 -0.30021 -0.00167383)
(0.204586 -0.258154 -0.00178549)
(0.215933 -0.22098 -0.00188455)
(0.226103 -0.188016 -0.00197333)
(0.235382 -0.158589 -0.00205433)
(0.244079 -0.132014 -0.00213024)
(0.25252 -0.107577 -0.00220391)
(0.261043 -0.0845221 -0.0022783)
(0.269989 -0.0620125 -0.00235637)
(0.279664 -0.03912 -0.0024408)
(0.290285 -0.0148111 -0.00253348)
(0.301858 0.0120197 -0.00263448)
(0.313957 0.0423884 -0.00274008)
(0.325364 0.0768529 -0.00283967)
(0.333603 0.1148 -0.00291166)
(0.334586 0.153474 -0.00292041)
(0.322969 0.187319 -0.00281926)
(0.293922 0.208793 -0.00256604)
(0.246189 0.211449 -0.0021497)
(0.18427 0.193915 -0.00160944)
(0.117257 0.160967 -0.00102454)
(0.0548001 0.117444 -0.000479637)
(0.00669519 0.0548762 -6.86484e-05)
(-0.306818 -2.51653 0.00267809)
(-0.278944 -2.32037 0.00243484)
(-0.24844 -2.12927 0.00216864)
(-0.216053 -1.94477 0.00188599)
(-0.182502 -1.76818 0.00159319)
(-0.148453 -1.60051 0.00129602)
(-0.114499 -1.4425 0.000999675)
(-0.0811559 -1.29466 0.000708658)
(-0.0488811 -1.15729 0.00042696)
(-0.0180224 -1.03046 0.000157616)
(0.0110926 -0.914142 -9.65125e-05)
(0.0382523 -0.808072 -0.000333582)
(0.0633669 -0.711896 -0.0005528)
(0.0863567 -0.625134 -0.000753477)
(0.107235 -0.547239 -0.000935722)
(0.126048 -0.477614 -0.00109995)
(0.142887 -0.415631 -0.00124694)
(0.157872 -0.360639 -0.00137775)
(0.171158 -0.311979 -0.00149373)
(0.182923 -0.268989 -0.00159643)
(0.193365 -0.231013 -0.00168759)
(0.202711 -0.197386 -0.00176917)
(0.211209 -0.167443 -0.00184335)
(0.219131 -0.140503 -0.0019125)
(0.226777 -0.115856 -0.00197923)
(0.234469 -0.0927443 -0.00204637)
(0.242552 -0.0703233 -0.0021169)
(0.251368 -0.0476398 -0.00219384)
(0.261214 -0.0236062 -0.00227976)
(0.272254 0.00299325 -0.0023761)
(0.284327 0.0333838 -0.00248146)
(0.296606 0.0684642 -0.00258864)
(0.307098 0.108097 -0.00268028)
(0.312127 0.150001 -0.0027243)
(0.306334 0.188754 -0.00267397)
(0.284097 0.216172 -0.00248018)
(0.242641 0.224344 -0.00211865)
(0.18495 0.21029 -0.00161533)
(0.119486 0.177979 -0.00104399)
(0.0564533 0.132253 -0.000494095)
(0.00692352 0.0631685 -7.09693e-05)
(-0.260221 -2.52029 0.00227134)
(-0.237629 -2.32903 0.0020742)
(-0.212598 -2.14187 0.00185575)
(-0.185735 -1.96043 0.00162132)
(-0.157642 -1.78606 0.00137615)
(-0.128885 -1.61988 0.00112517)
(-0.0999778 -1.46274 0.000872878)
(-0.0713695 -1.31522 0.000623189)
(-0.0434637 -1.17773 0.000379627)
(-0.0165798 -1.05042 0.000144979)
(0.00897461 -0.933345 -7.80679e-05)
(0.03298 -0.826325 -0.000287602)
(0.0553191 -0.729076 -0.000482592)
(0.075893 -0.641178 -0.000662178)
(0.0946861 -0.562129 -0.000826223)
(0.111716 -0.491367 -0.000974882)
(0.12704 -0.428292 -0.00110864)
(0.140744 -0.372276 -0.00122827)
(0.152944 -0.322677 -0.00133477)
(0.163783 -0.278846 -0.00142939)
(0.173421 -0.240139 -0.00151353)
(0.182049 -0.205899 -0.00158884)
(0.189875 -0.17547 -0.00165716)
(0.197138 -0.148179 -0.00172055)
(0.204102 -0.123323 -0.00178134)
(0.211066 -0.10015 -0.00184211)
(0.218358 -0.0778145 -0.00190575)
(0.226327 -0.0553542 -0.00197529)
(0.235315 -0.0316477 -0.00205373)
(0.245588 -0.00539919 -0.00214336)
(0.257183 0.0247827 -0.00224454)
(0.269606 0.0600991 -0.00235297)
(0.28134 0.100879 -0.00245542)
(0.289213 0.145388 -0.00252424)
(0.288106 0.188522 -0.00251478)
(0.271935 0.221698 -0.00237392)
(0.236622 0.235669 -0.00206603)
(0.183576 0.225725 -0.00160328)
(0.120348 0.194729 -0.0010515)
(0.0574191 0.147232 -0.000502539)
(0.00702729 0.0716593 -7.20668e-05)
(-0.220306 -2.52249 0.00192292)
(-0.201986 -2.33551 0.00176306)
(-0.18144 -2.15187 0.00158376)
(-0.159161 -1.97319 0.00138934)
(-0.135648 -1.8009 0.00118413)
(-0.11138 -1.63617 0.000972332)
(-0.086799 -1.47993 0.000757804)
(-0.0622954 -1.33286 0.000543943)
(-0.0382194 -1.19541 0.000333811)
(-0.0148542 -1.06783 0.000129877)
(0.00752092 -0.950215 -6.54173e-05)
(0.0286909 -0.842464 -0.000250201)
(0.0485224 -0.744354 -0.000423301)
(0.0669023 -0.65552 -0.000583733)
(0.0837928 -0.575502 -0.000731169)
(0.0991895 -0.503772 -0.000865567)
(0.113123 -0.439754 -0.000987191)
(0.125651 -0.382843 -0.00109655)
(0.13686 -0.332414 -0.0011944)
(0.146859 -0.287832 -0.00128169)
(0.155779 -0.248462 -0.00135955)
(0.163775 -0.21366 -0.00142935)
(0.171023 -0.182776 -0.00149262)
(0.177725 -0.155149 -0.00155112)
(0.184113 -0.130083 -0.00160688)
(0.190453 -0.106836 -0.00166221)
(0.197048 -0.0845697 -0.00171977)
(0.204236 -0.0623204 -0.00178249)
(0.212369 -0.0389499 -0.00185346)
(0.221774 -0.0131082 -0.00193552)
(0.232624 0.0167211 -0.00203019)
(0.244694 0.0519961 -0.00213553)
(0.25689 0.0934786 -0.002242)
(0.26658 0.140011 -0.00232665)
(0.26906 0.186953 -0.00234847)
(0.258092 0.225566 -0.00225301)
(0.228571 0.245445 -0.00199567)
(0.180367 0.240111 -0.00157521)
(0.119918 0.211051 -0.00104772)
(0.0577117 0.162221 -0.000505093)
(0.00700778 0.0802414 -7.19538e-05)
(-0.186168 -2.5236 0.00162493)
(-0.171306 -2.34034 0.00149525)
(-0.154439 -2.1598 0.00134806)
(-0.135962 -1.98361 0.00118681)
(-0.116285 -1.81323 0.00101509)
(-0.0958141 -1.64987 0.000836435)
(-0.0749287 -1.49454 0.000654159)
(-0.0539666 -1.34797 0.000471209)
(-0.0332307 -1.21069 0.000290231)
(-0.0129662 -1.08299 0.000113363)
(0.00658082 -0.965014 -5.72454e-05)
(0.0252102 -0.856718 -0.000219851)
(0.0427829 -0.757929 -0.000373233)
(0.0591768 -0.668331 -0.000516329)
(0.074337 -0.587507 -0.000648659)
(0.0882415 -0.514958 -0.00077003)
(0.100901 -0.450133 -0.000880533)
(0.112351 -0.392445 -0.000980482)
(0.122652 -0.341288 -0.00107041)
(0.131888 -0.296038 -0.00115103)
(0.140161 -0.256074 -0.00122325)
(0.147597 -0.220759 -0.00128816)
(0.154342 -0.189454 -0.00134703)
(0.160566 -0.161506 -0.00140137)
(0.16647 -0.136231 -0.00145289)
(0.172283 -0.112896 -0.00150363)
(0.178279 -0.090675 -0.00155596)
(0.18477 -0.0686096 -0.0016126)
(0.192102 -0.0455569 -0.00167657)
(0.200624 -0.0201343 -0.00175093)
(0.210598 0.00926725 -0.00183796)
(0.221998 0.0443131 -0.00193745)
(0.23409 0.0861509 -0.00204299)
(0.244762 0.134195 -0.0021362)
(0.249834 0.18437 -0.00218061)
(0.243171 0.228001 -0.0021227)
(0.218934 0.253748 -0.00191147)
(0.175581 0.253384 -0.00153337)
(0.118308 0.226809 -0.00103363)
(0.0573664 0.177071 -0.000502067)
(0.0068713 0.088811 -7.06914e-05)