/*--------------------------------*- C++ -*----------------------------------*\
| =========                 |                                                 |
| \\      /  F ield         | OpenFOAM: The Open Source CFD Toolbox           |
|  \\    /   O peration     | Version:  v2012                                 |
|   \\  /    A nd           | Website:  www.openfoam.com                      |
|    \\/     M anipulation  |                                                 |
\*---------------------------------------------------------------------------*/
FoamFile
{
    version     2.0;
    format      ascii;
    class       volScalarField;
    location    "1";
    object      alpha.water;
}
// * * * * * * * * * * * * * * * * * * * * * * * * * * * * * * * * * * * * * //

dimensions      [0 0 0 0 0 0 0];


internalField   nonuniform List<scalar> 
3338
(
4.84673e-122
4.93791e-121
6.99386e-298
2.89119e-317
1.57411e-317
1.22874e-317
1.03105e-317
8.57759e-318
7.93515e-318
6.53275e-318
6.05677e-318
5.61992e-318
5.22125e-318
4.85595e-318
4.5207e-318
4.74036e-318
4.91565e-318
4.59291e-318
6.44673e-318
9.26086e-318
1.88973e-317
2.50322e-144
8.22824e-151
2.96811e-275
2.89066e-317
1.69489e-317
1.22854e-317
1.03091e-317
8.57651e-318
7.93427e-318
6.53214e-318
6.0563e-318
5.61954e-318
5.22097e-318
4.85576e-318
4.52057e-318
4.74026e-318
4.91558e-318
5.05218e-318
6.44671e-318
9.26086e-318
1.88973e-317
5.85982e-170
4.83582e-169
1.22954e-273
2.89023e-317
1.69463e-317
1.22836e-317
1.03077e-317
8.57549e-318
7.93345e-318
7.34802e-318
6.05585e-318
5.61922e-318
5.22073e-318
4.8556e-318
5.08554e-318
4.7402e-318
4.91556e-318
5.05218e-318
6.44673e-318
1.04688e-317
1.88973e-317
8.78846e-172
6.30275e-171
2.21572e-272
2.75846e-317
1.69439e-317
1.33984e-317
1.03063e-317
9.52725e-318
7.93268e-318
6.53104e-318
6.05546e-318
5.61893e-318
5.22054e-318
4.85548e-318
5.08546e-318
4.74018e-318
4.91556e-318
5.0522e-318
7.30634e-318
1.04689e-317
1.88974e-317
7.28743e-180
3.84229e-179
2.41112e-271
2.88939e-317
1.93616e-317
1.33966e-317
1.03051e-317
8.5736e-318
7.93197e-318
6.53056e-318
6.05511e-318
5.61869e-318
5.2204e-318
4.8554e-318
5.08542e-318
4.74018e-318
4.9156e-318
5.97084e-318
7.30642e-318
1.0469e-317
1.88974e-317
1.22401e-180
5.86729e-200
1.8277e-270
2.88893e-317
1.81489e-317
1.33948e-317
1.03039e-317
8.57273e-318
7.9313e-318
7.34639e-318
6.0548e-318
5.61849e-318
5.22028e-318
4.85535e-318
5.08542e-318
4.74022e-318
5.40723e-318
5.97094e-318
7.30653e-318
1.04691e-317
1.88975e-317
1.38118e-180
9.86131e-204
1.04672e-269
2.88845e-317
1.81462e-317
1.3393e-317
1.03027e-317
9.52433e-318
7.93068e-318
7.34595e-318
6.05454e-318
5.61834e-318
5.22021e-318
4.85534e-318
5.08547e-318
5.267e-318
5.40733e-318
5.97106e-318
7.30668e-318
1.04693e-317
1.92756e-317
1.58636e-180
1.92209e-209
4.77354e-269
2.88793e-317
1.81435e-317
1.45072e-317
1.13317e-317
9.52345e-318
7.93009e-318
7.34555e-318
6.05432e-318
5.61823e-318
5.22018e-318
5.46229e-318
5.08555e-318
5.26712e-318
5.40748e-318
5.97123e-318
7.30686e-318
1.04694e-317
1.92757e-317
1.85629e-180
2.49475e-226
1.79882e-268
3.14988e-317
2.05593e-317
1.45052e-317
1.13304e-317
9.5226e-318
7.92956e-318
7.34519e-318
6.05414e-318
5.61816e-318
5.87271e-318
5.46237e-318
5.08567e-318
5.26727e-318
5.40767e-318
5.97144e-318
8.16673e-318
1.04697e-317
1.92759e-317
2.21503e-180
2.05576e-229
5.75663e-268
3.14926e-317
1.93467e-317
1.45032e-317
1.13292e-317
9.52177e-318
7.92905e-318
7.34488e-318
6.81075e-318
6.32039e-318
5.87277e-318
5.4625e-318
5.08583e-318
5.26747e-318
5.40788e-318
6.89038e-318
8.16699e-318
1.04699e-317
1.9276e-317
2.69785e-180
4.8331e-232
1.59795e-267
3.14861e-317
1.93434e-317
1.33858e-317
1.13279e-317
9.52098e-318
7.92859e-318
7.34462e-318
6.81065e-318
6.3204e-318
5.87288e-318
5.46267e-318
5.08603e-318
5.26771e-318
6.39143e-318
6.89068e-318
8.1673e-318
1.04702e-317
1.92762e-317
3.35722e-180
1.13532e-234
3.91267e-267
3.01677e-317
1.934e-317
1.33839e-317
1.13267e-317
1.04722e-317
8.80906e-318
7.34439e-318
6.81059e-318
6.32046e-318
5.87302e-318
5.46286e-318
5.08627e-318
6.32159e-318
6.39177e-318
6.89103e-318
8.16766e-318
1.04705e-317
1.92764e-317
4.27275e-180
2.5548e-237
8.56699e-267
3.0161e-317
1.93366e-317
1.67275e-317
1.23551e-317
1.04714e-317
8.80863e-318
7.34422e-318
6.81057e-318
6.32058e-318
5.87322e-318
5.46312e-318
6.21689e-318
6.32197e-318
6.39216e-318
6.89143e-318
8.16804e-318
1.04708e-317
1.96547e-317
5.56741e-180
5.31724e-240
1.69646e-266
3.27762e-317
2.17496e-317
1.6725e-317
1.23537e-317
1.04707e-317
8.80823e-318
7.34408e-318
6.8106e-318
6.32073e-318
5.87345e-318
6.67749e-318
6.21728e-318
6.32239e-318
6.39259e-318
6.89185e-318
8.16847e-318
1.04712e-317
1.96549e-317
7.43516e-180
9.94725e-243
3.06727e-266
3.27685e-317
2.17455e-317
1.67226e-317
1.23524e-317
1.04699e-317
8.80787e-318
7.34399e-318
6.81068e-318
6.32094e-318
6.52638e-318
6.67791e-318
6.21772e-318
6.32285e-318
6.39306e-318
6.89231e-318
8.16892e-318
1.08744e-317
1.96552e-317
1.01883e-179
1.64309e-245
5.1046e-266
3.14503e-317
2.17414e-317
1.67202e-317
1.23511e-317
1.04692e-317
8.80756e-318
7.34393e-318
8.32431e-318
7.02354e-318
6.52675e-318
6.67838e-318
6.2182e-318
6.32338e-318
6.39358e-318
6.89283e-318
8.16942e-318
1.08748e-317
1.96555e-317
1.43414e-179
2.40875e-248
7.87388e-266
3.14426e-317
2.17372e-317
1.56032e-317
1.23498e-317
1.04685e-317
1.05687e-317
8.97591e-318
8.32452e-318
7.02386e-318
6.52717e-318
6.6789e-318
6.21874e-318
6.32394e-318
6.39414e-318
7.35293e-318
8.16996e-318
1.08753e-317
1.96558e-317
2.0762e-179
3.30544e-251
1.13251e-265
3.14348e-317
2.17329e-317
1.56009e-317
1.44067e-317
1.23711e-317
1.05685e-317
8.97597e-318
8.32479e-318
7.02425e-318
6.52764e-318
6.67947e-318
6.21932e-318
6.32455e-318
6.88664e-318
7.35356e-318
8.17053e-318
1.08758e-317
1.96562e-317
3.09496e-179
4.793e-254
1.52686e-265
3.14269e-317
2.29358e-317
1.78271e-317
1.44053e-317
1.23704e-317
1.05683e-317
8.97607e-318
8.32512e-318
7.02468e-318
7.18099e-318
6.68009e-318
6.7854e-318
6.85232e-318
6.88733e-318
7.35423e-318
8.17114e-318
1.08764e-317
1.96566e-317
4.75642e-179
8.45893e-257
1.9384e-265
3.1419e-317
2.29313e-317
1.78245e-317
1.44039e-317
1.23697e-317
1.05681e-317
8.97624e-318
8.32552e-318
7.7277e-318
7.18163e-318
6.68078e-318
6.78615e-318
6.85309e-318
6.88808e-318
7.35495e-318
8.60188e-318
1.0877e-317
2.23031e-317
7.54526e-179
2.06872e-259
2.32665e-265
3.01022e-317
2.29268e-317
1.7822e-317
1.44025e-317
1.23692e-317
1.0568e-317
8.97646e-318
8.32596e-318
7.72831e-318
7.18233e-318
6.68151e-318
6.78695e-318
6.85391e-318
6.88887e-318
7.35571e-318
8.60261e-318
1.08776e-317
2.23036e-317
1.23699e-178
1.06552e-261
2.64977e-265
3.00945e-317
2.29224e-317
1.78195e-317
1.44013e-317
1.23686e-317
1.0568e-317
8.97676e-318
8.32649e-318
7.72898e-318
7.18308e-318
6.68231e-318
6.78781e-318
6.85478e-318
6.88971e-318
7.35651e-318
8.60338e-318
1.08783e-317
2.26821e-317
2.09836e-178
3.65069e-263
2.87239e-265
3.00868e-317
2.29179e-317
1.7817e-317
1.44001e-317
1.23682e-317
1.0568e-317
9.79322e-318
8.32707e-318
7.72972e-318
7.18389e-318
7.29071e-318
6.78872e-318
6.85569e-318
6.8906e-318
7.35735e-318
8.60417e-318
1.0879e-317
2.26827e-317
3.68747e-178
8.42831e-264
2.972e-265
2.87713e-317
2.17075e-317
1.78147e-317
1.43989e-317
1.23678e-317
1.05681e-317
9.79369e-318
8.32772e-318
7.73051e-318
7.18478e-318
7.2917e-318
6.78968e-318
6.85667e-318
6.89152e-318
7.35824e-318
8.60502e-318
1.08797e-317
2.26832e-317
6.72046e-178
4.13937e-264
2.9424e-265
2.87639e-317
2.17034e-317
1.78124e-317
1.43979e-317
1.23675e-317
1.05683e-317
9.79423e-318
8.32844e-318
7.73138e-318
7.18572e-318
7.29274e-318
6.7907e-318
6.8577e-318
6.8925e-318
7.35918e-318
8.60591e-318
1.12834e-317
2.344e-317
1.27162e-177
2.54574e-264
2.79359e-265
2.87567e-317
2.16994e-317
1.78102e-317
1.43969e-317
1.23673e-317
1.05686e-317
9.79485e-318
8.32924e-318
7.73231e-318
7.18672e-318
7.29386e-318
6.79178e-318
6.85878e-318
6.89353e-318
7.36016e-318
8.60683e-318
1.12842e-317
4.12101e-317
2.50054e-177
1.727e-264
2.54846e-265
2.87495e-317
2.16955e-317
1.78081e-317
1.4396e-317
1.23671e-317
1.0569e-317
9.79556e-318
8.3301e-318
7.7333e-318
7.18779e-318
7.29504e-318
6.79291e-318
6.85991e-318
6.89461e-318
7.36117e-318
8.60779e-318
1.65246e-317
2.69839e-315
5.11459e-177
1.23077e-264
2.2377e-265
2.74359e-317
2.16917e-317
1.78061e-317
1.43952e-317
1.23671e-317
1.05694e-317
9.79635e-318
8.33103e-318
7.73438e-318
7.18892e-318
7.29628e-318
6.79409e-318
6.86111e-318
6.89573e-318
7.82237e-318
1.33436e-317
1.4043e-315
3.10994e-313
1.08897e-176
8.9094e-265
1.89409e-265
2.74293e-317
2.1688e-317
1.78042e-317
1.43946e-317
1.23672e-317
1.057e-317
9.79722e-318
9.08951e-318
7.73552e-318
7.84377e-318
7.29758e-318
6.79534e-318
6.86234e-318
6.8969e-318
3.03738e-317
1.72886e-315
1.7632e-313
3.71601e-311
2.41499e-176
6.43589e-265
1.54761e-265
2.74228e-317
2.16845e-317
1.78025e-317
1.4394e-317
1.23673e-317
1.05706e-317
9.79819e-318
9.09071e-318
7.73673e-318
7.84515e-318
7.29895e-318
6.79664e-318
6.86364e-318
8.42556e-317
3.72137e-315
2.33804e-313
2.29787e-311
4.64476e-309
5.58081e-176
4.59965e-265
1.22209e-265
2.74165e-317
2.16811e-317
1.66884e-317
1.43936e-317
1.23676e-317
1.05713e-317
9.79925e-318
9.09198e-318
8.44147e-318
7.84659e-318
7.30037e-318
2.54925e-317
3.89192e-316
1.27954e-314
5.51265e-313
3.32489e-311
3.13891e-309
6.09143e-307
1.34421e-175
3.23592e-265
9.33624e-266
2.74104e-317
2.04736e-317
1.6687e-317
1.43933e-317
1.2368e-317
1.05722e-317
9.8004e-318
9.09335e-318
8.44295e-318
9.15613e-318
1.34476e-316
2.65688e-315
6.56733e-314
2.0654e-312
8.56084e-311
4.96614e-309
4.5076e-307
8.40605e-305
3.37467e-175
2.23363e-265
6.90651e-266
2.60996e-317
2.04707e-317
1.66858e-317
1.43931e-317
1.23685e-317
1.05731e-317
9.80165e-318
1.13685e-317
1.28075e-316
1.60919e-315
2.53046e-314
4.8558e-313
1.15728e-311
3.50553e-310
1.39916e-308
7.81325e-307
6.82433e-305
1.22402e-302
8.82875e-175
1.5094e-265
4.95103e-266
2.60943e-317
2.04681e-317
1.66848e-317
1.43931e-317
1.33207e-317
4.14153e-317
3.03076e-316
2.59549e-315
2.67462e-314
3.33862e-313
5.05181e-312
9.35014e-311
2.1488e-309
6.27468e-308
2.41357e-306
1.2985e-304
1.09225e-302
1.88573e-300
2.40585e-174
9.97021e-266
3.44162e-266
3.26115e-317
7.70471e-317
1.11226e-316
4.15348e-316
1.87928e-315
1.06211e-314
7.28324e-314
6.04193e-313
6.03989e-312
7.2833e-311
1.06414e-309
1.90122e-308
4.21647e-307
1.18785e-305
4.40674e-304
2.28583e-302
1.85312e-300
3.0819e-298
6.82372e-174
6.43015e-266
2.32109e-266
6.18852e-315
1.21926e-314
3.2895e-314
1.15655e-313
5.12152e-313
2.79576e-312
1.85757e-311
1.49102e-310
1.44145e-309
1.68023e-308
2.37223e-307
4.09421e-306
8.76885e-305
2.38498e-303
8.53969e-302
4.2739e-300
3.34172e-298
5.35729e-296
2.01245e-173
4.04559e-266
1.51939e-266
1.96021e-312
3.7831e-312
9.98768e-312
3.41945e-311
1.47084e-310
7.78804e-310
5.0142e-309
3.8972e-308
3.64618e-307
4.11138e-306
5.61304e-305
9.36474e-304
1.93831e-302
5.09324e-301
1.76134e-299
8.51082e-298
6.42229e-296
9.93142e-294
6.16355e-173
2.48133e-266
9.65689e-267
6.56013e-310
1.24469e-309
3.21175e-309
1.07112e-308
4.47846e-308
2.30174e-307
1.43702e-306
1.08224e-305
9.80573e-305
1.07029e-303
1.41393e-302
2.2819e-301
4.56734e-300
1.16022e-298
3.87756e-297
1.8101e-295
1.31906e-293
1.96879e-291
1.9574e-172
1.48279e-266
5.96071e-267
2.33064e-307
4.34854e-307
1.09726e-306
3.56675e-306
1.45054e-305
7.24122e-305
4.3867e-304
3.20332e-303
2.81261e-302
2.97363e-301
3.80366e-300
5.94173e-299
1.15076e-297
2.82769e-296
9.13857e-295
4.12379e-293
2.90372e-291
4.18556e-289
6.43438e-172
8.62851e-267
3.57367e-267
8.82194e-305
1.61904e-304
3.99686e-304
1.26707e-303
5.01522e-303
2.43334e-302
1.43129e-301
1.01406e-300
8.63369e-300
8.84701e-299
1.09638e-297
1.65872e-296
3.11031e-295
7.39722e-294
2.31307e-292
1.00954e-290
6.87251e-289
9.57228e-287
2.18502e-171
4.887e-267
2.08121e-267
3.57164e-302
6.4489e-302
1.55825e-301
4.82034e-301
1.85806e-300
8.7673e-300
5.01015e-299
3.44608e-298
2.84669e-297
2.82889e-296
3.39846e-295
4.98239e-294
9.05038e-293
2.08443e-291
6.30974e-290
2.66494e-288
1.75485e-286
2.36299e-284
7.64877e-171
2.69273e-267
1.17732e-267
1.55326e-299
2.7598e-299
6.52994e-299
1.97213e-298
7.4072e-298
3.40101e-297
1.88933e-296
1.26232e-295
1.01231e-294
9.76134e-294
1.1374e-292
1.61676e-291
2.84644e-290
6.35182e-289
1.86229e-287
7.6152e-286
4.85292e-284
6.32059e-282
2.75369e-170
1.44269e-267
6.46857e-268
7.29059e-297
1.27497e-296
2.95523e-296
8.71814e-296
3.19238e-295
1.42711e-294
7.71112e-294
5.00735e-293
3.90049e-292
3.65143e-291
4.12886e-290
5.69327e-289
9.71984e-288
2.10254e-286
5.97343e-285
2.36602e-283
1.45985e-281
1.83989e-279
1.01715e-169
7.51231e-268
3.45134e-268
3.71321e-294
6.39253e-294
1.4521e-293
4.18644e-293
1.49533e-292
6.5118e-292
3.42414e-291
2.16223e-290
1.63684e-289
1.4884e-288
1.63406e-287
2.18679e-286
3.62203e-285
7.59845e-284
2.09281e-282
8.03296e-281
4.80091e-279
5.85759e-277
3.84538e-169
3.79985e-268
1.78785e-268
2.06437e-291
3.49929e-291
7.79289e-291
2.19667e-290
7.65727e-290
3.25001e-289
1.66399e-288
1.02231e-287
7.52478e-287
6.64952e-286
7.09126e-285
9.2145e-284
1.48135e-282
3.01515e-281
8.05423e-280
2.9971e-278
1.73572e-276
2.05098e-274
1.48424e-168
1.86602e-268
8.98893e-269
1.26089e-288
2.10483e-288
4.59717e-288
1.26756e-287
4.31424e-287
1.78557e-286
8.9058e-286
5.32593e-285
3.81351e-284
3.27646e-283
3.39562e-282
4.28614e-281
6.6908e-280
1.32186e-278
3.42597e-277
1.2364e-275
6.94123e-274
7.94629e-272
8.89156e-269
4.38492e-269
8.51731e-286
1.40047e-285
3.00092e-285
8.09712e-285
2.69213e-284
1.08701e-283
5.28405e-283
3.07741e-282
2.14451e-281
1.79219e-280
1.80579e-279
2.21509e-278
3.35895e-277
6.44371e-276
1.62099e-274
5.67564e-273
3.08987e-271
3.42819e-269
4.10856e-269
2.07449e-269
6.40355e-283
1.03729e-282
2.18141e-282
5.76226e-282
1.87232e-281
7.37876e-281
3.49744e-280
1.98453e-279
1.3465e-278
1.09502e-277
1.07312e-276
1.27973e-275
1.88579e-274
3.51406e-273
8.58326e-272
2.91669e-270
1.54031e-268
1.65679e-266
9.51363e-270
5.38691e-280
8.59817e-280
1.7752e-279
4.59255e-279
1.45898e-278
5.61447e-278
2.59597e-277
1.43576e-276
9.48881e-276
7.51208e-275
7.16304e-274
8.30767e-273
1.19007e-271
2.15485e-270
5.11209e-269
1.68647e-267
8.64206e-266
9.01439e-264
4.22706e-270
5.08857e-277
8.00446e-277
1.62299e-276
4.11381e-276
1.27829e-275
4.80536e-275
2.16831e-274
1.16938e-273
7.53078e-273
5.80611e-272
5.3888e-271
6.08041e-270
8.47006e-269
1.49073e-267
3.436e-266
1.10077e-264
5.47492e-263
5.53952e-261
1.81907e-270
5.40391e-274
8.37913e-274
1.66903e-273
4.14645e-273
1.26073e-272
4.63164e-272
2.04037e-271
1.0734e-270
6.73854e-270
5.06133e-269
4.57393e-268
5.02264e-267
6.80585e-266
1.16463e-264
2.60877e-263
8.11821e-262
3.92005e-260
3.84827e-258
1.32155e-270
6.44335e-271
9.85017e-271
1.92809e-270
4.69659e-270
1.39785e-269
5.02057e-269
2.1601e-268
1.10894e-267
6.78869e-267
4.96922e-266
4.37393e-265
4.67573e-264
6.16484e-263
1.02599e-261
2.23406e-260
6.75468e-259
3.16727e-257
3.01739e-255
7.60051e-268
8.59534e-268
1.29577e-267
2.49324e-267
5.95686e-267
1.73615e-266
6.09856e-266
2.56361e-265
1.28478e-264
7.67231e-264
5.47484e-263
4.69514e-262
4.88751e-261
6.27192e-260
1.01543e-258
2.14984e-257
6.31683e-256
2.87686e-254
2.66024e-252
1.13808e-264
1.27602e-264
1.89735e-264
3.58982e-264
8.41543e-264
2.40268e-263
8.25737e-263
3.39256e-262
1.66031e-261
9.67504e-261
6.73251e-260
5.62695e-259
5.70548e-258
7.12782e-257
1.12288e-255
2.31204e-254
6.60327e-253
2.92145e-251
2.62258e-249
1.88501e-261
2.09462e-261
3.07268e-261
5.71829e-261
1.31574e-260
3.68125e-260
1.23822e-259
4.97387e-259
2.37786e-258
1.35254e-257
9.18082e-257
7.48029e-256
7.38974e-255
8.98979e-254
1.37832e-252
2.76061e-251
7.66513e-250
3.29497e-248
2.87195e-246
3.42777e-258
3.7752e-258
5.46488e-258
1.00066e-257
2.26067e-257
6.20036e-257
2.04187e-256
8.02192e-256
3.74748e-255
2.08129e-254
1.37846e-253
1.09517e-252
1.05437e-251
1.2493e-250
1.86457e-249
3.63335e-248
9.80945e-247
4.09764e-245
3.46824e-243
6.79393e-255
7.41706e-255
1.05976e-254
1.90987e-254
4.23788e-254
1.13981e-253
3.67616e-253
1.41298e-252
6.45205e-252
3.49983e-251
2.26231e-250
1.75309e-249
1.64516e-248
1.899e-247
2.75953e-246
5.2325e-245
1.37383e-243
5.57745e-242
4.58466e-240
1.45741e-251
1.57737e-251
2.22514e-251
3.94804e-251
8.60717e-251
2.27086e-250
7.17537e-250
2.69907e-249
1.20504e-248
6.38595e-248
4.02982e-247
3.04649e-246
2.78737e-245
3.135e-244
4.43626e-243
8.18659e-242
2.09061e-240
8.24962e-239
6.58628e-237
3.36142e-248
3.60734e-248
5.02548e-248
8.78143e-248
1.88157e-247
4.87121e-247
1.50841e-246
5.55449e-246
2.42539e-245
1.25601e-244
7.73946e-244
5.70931e-243
5.09392e-242
5.58341e-241
7.69515e-240
1.38221e-238
3.43349e-237
1.31703e-235
1.02132e-233
8.28082e-245
8.81324e-245
1.21287e-244
2.08786e-244
4.3982e-244
1.11767e-243
3.39277e-243
1.22338e-242
5.2259e-242
2.64525e-241
1.592e-240
1.1462e-239
9.97437e-239
1.06563e-237
1.43061e-236
2.50148e-235
6.04498e-234
2.25415e-232
1.69797e-230
2.16451e-241
2.28515e-241
3.10748e-241
5.2715e-241
1.0921e-240
2.72496e-240
8.11123e-240
2.86479e-239
1.19748e-238
5.92609e-238
3.48413e-237
2.44874e-236
2.0787e-235
2.16496e-234
2.8315e-233
4.8201e-232
1.13323e-230
4.10824e-229
3.00602e-227
5.96406e-238
6.24736e-238
8.39728e-238
1.40424e-237
2.86195e-237
7.01372e-237
2.04779e-236
7.08606e-236
2.89908e-235
1.40298e-234
8.05959e-234
5.53053e-233
4.58046e-232
4.65113e-231
5.92682e-230
9.82336e-229
2.24705e-227
7.91972e-226
5.629e-224
1.72154e-234
1.78975e-234
2.37858e-234
3.92226e-234
7.86657e-234
1.89404e-233
5.42568e-233
1.83992e-232
7.36945e-232
3.48825e-231
1.95832e-230
1.31224e-229
1.06049e-228
1.05002e-227
1.30375e-226
2.10407e-225
4.68293e-224
1.60464e-222
1.10783e-220
5.17773e-231
5.3439e-231
7.02442e-231
1.14258e-230
2.25578e-230
5.33758e-230
1.50056e-229
4.98802e-229
1.95632e-228
9.05895e-228
4.97099e-227
3.25319e-226
2.56573e-225
2.47734e-224
2.99743e-223
4.7104e-222
1.02007e-220
3.39816e-219
2.2787e-217
1.61395e-227
1.65422e-227
2.15138e-227
3.45295e-227
6.7127e-227
1.56139e-226
4.309e-226
1.40437e-225
5.39458e-225
2.44422e-224
1.31118e-223
8.38157e-223
6.45176e-222
6.07535e-221
7.1635e-220
1.0962e-218
2.30979e-217
7.48043e-216
4.87176e-214
5.18114e-224
5.27545e-224
6.79049e-224
1.07576e-223
2.05992e-223
4.71139e-223
1.27668e-222
4.08048e-222
1.53546e-221
6.80831e-221
3.57093e-220
2.22992e-219
1.67546e-218
1.53877e-217
1.76821e-216
2.63488e-215
5.40185e-214
1.70063e-212
1.07557e-210
1.70377e-220
1.72397e-220
2.19706e-220
3.43669e-220
6.48386e-220
1.4586e-219
3.88184e-219
1.21699e-218
4.48687e-218
1.94729e-217
9.9873e-217
6.09324e-216
4.46907e-215
4.00338e-214
4.48334e-213
6.50557e-212
1.29762e-210
3.97095e-209
2.43859e-207
5.70695e-217
5.74076e-217
7.24621e-217
1.11953e-216
2.0817e-216
4.60723e-216
1.20451e-215
3.70482e-215
1.33853e-214
5.68673e-214
2.85238e-213
1.70034e-212
1.21747e-211
1.06378e-210
1.16103e-209
1.64049e-208
3.1834e-207
9.46823e-206
5.64495e-204
1.93726e-213
1.93806e-213
2.42379e-213
3.69992e-213
6.7825e-213
1.47721e-212
3.79475e-212
1.14532e-211
4.05567e-211
1.68696e-210
8.27599e-210
4.82074e-209
3.36982e-208
2.87205e-207
3.05491e-206
4.20293e-205
7.93394e-204
2.29322e-202
1.3271e-200
6.62903e-210
6.59808e-210
8.17887e-210
1.23398e-209
2.23073e-209
4.78237e-209
1.20738e-208
3.57651e-208
1.24146e-207
5.05629e-207
2.42638e-206
1.38115e-205
9.4259e-205
7.83612e-204
8.12284e-203
1.08808e-201
1.99789e-200
5.61102e-199
3.15123e-197
2.27368e-206
2.25249e-206
2.76853e-206
4.12975e-206
7.36435e-206
1.55446e-205
3.85775e-205
1.12174e-204
3.81739e-204
1.52254e-203
7.14727e-203
3.9759e-202
2.64918e-201
2.14822e-200
2.17003e-199
2.82998e-198
5.05379e-197
1.37888e-195
7.5135e-194
7.7727e-203
7.6675e-203
9.34797e-203
1.37911e-202
2.42662e-202
5.0443e-202
1.23082e-201
3.51373e-201
1.17246e-200
4.57982e-200
2.10326e-199
1.14344e-198
7.43853e-198
5.88344e-197
5.79128e-196
7.35213e-195
1.27676e-193
3.38357e-192
1.78836e-190
2.63811e-199
2.59245e-199
3.13628e-199
4.57769e-199
7.94999e-199
1.62788e-198
3.9061e-198
1.09496e-197
3.5829e-197
1.37078e-196
6.15896e-196
3.27239e-195
2.07842e-194
1.60338e-193
1.53781e-192
1.90027e-191
3.20851e-190
8.25718e-189
4.23207e-187
8.82721e-196
8.64495e-196
1.03819e-195
1.49969e-195
2.57135e-195
5.18771e-195
1.22433e-194
3.37054e-194
1.08166e-193
4.05357e-193
1.78193e-192
9.25314e-192
5.73774e-191
4.31698e-190
4.03395e-189
4.85129e-188
7.96273e-187
1.98953e-185
9.88497e-184
2.89568e-192
2.82749e-192
3.37205e-192
4.82232e-192
8.16531e-192
1.62346e-191
3.7692e-191
1.01918e-190
3.20804e-190
1.17768e-189
5.06533e-189
2.57065e-188
1.5562e-187
1.14185e-186
1.03944e-185
1.2164e-184
1.94049e-183
4.70597e-182
2.26584e-180
9.27778e-189
9.03641e-189
1.07061e-188
1.51626e-188
2.5361e-188
4.97035e-188
1.1354e-187
3.01587e-187
9.3118e-187
3.34878e-186
1.40929e-185
6.98983e-185
4.13081e-184
2.95563e-183
2.62075e-182
2.98391e-181
4.6255e-180
1.08849e-178
5.07694e-177
2.88988e-185
2.80881e-185
3.30727e-185
4.64016e-185
7.66861e-185
1.48176e-184
3.33096e-184
8.69245e-184
2.63288e-183
9.27611e-183
3.81956e-182
1.8514e-181
1.06805e-180
7.45132e-180
6.43483e-179
7.12693e-178
1.07328e-176
2.45005e-175
1.10657e-173
8.67968e-182
8.42223e-182
9.85942e-182
1.3708e-181
2.23904e-181
4.26634e-181
9.43934e-181
2.42031e-180
7.19213e-180
2.48248e-179
1.00015e-178
4.73756e-178
2.66767e-177
1.81449e-176
1.52589e-175
1.64365e-174
2.40408e-173
5.32193e-172
2.32658e-170
2.50581e-178
2.42851e-178
2.82751e-178
3.89694e-178
6.29255e-178
1.1826e-177
2.57563e-177
6.48955e-177
1.89201e-176
6.39812e-176
2.52207e-175
1.16742e-174
6.41585e-174
4.25408e-173
3.48311e-172
3.64825e-171
5.1813e-170
1.11191e-168
4.70292e-167
6.91208e-175
6.69347e-175
7.75385e-175
1.05967e-174
1.69198e-174
3.13697e-174
6.72627e-174
1.66551e-173
4.76427e-173
1.57845e-172
6.08763e-172
2.75339e-171
1.47674e-170
9.54388e-170
7.60685e-169
7.74564e-168
1.06783e-166
2.22069e-165
9.08304e-164
1.81143e-171
1.75346e-171
2.02172e-171
2.74055e-171
4.32807e-171
7.91754e-171
1.67159e-170
4.06798e-170
1.14179e-169
3.70617e-169
1.39842e-168
6.1798e-168
3.23424e-167
2.03703e-166
1.58021e-165
1.56387e-164
2.09223e-163
4.21486e-162
1.66631e-160
4.48109e-168
4.3378e-168
4.97977e-168
6.69758e-168
1.04642e-167
1.88913e-167
3.92763e-167
9.39477e-167
2.58741e-166
8.22813e-166
3.03728e-165
1.3113e-164
6.69585e-164
4.1093e-163
3.10195e-162
2.98295e-161
3.87155e-160
7.55219e-159
2.88434e-157
1.03938e-164
1.00656e-164
1.15092e-164
1.53628e-164
2.37515e-164
4.2323e-164
8.66612e-164
2.03758e-163
5.50646e-163
1.71552e-162
2.24746e-161
2.17818e-161
2.48143e-161
3.28821e-161
5.03149e-161
8.85073e-161
1.78503e-160
8.52244e-122
8.68223e-121
2.26934e-293
2.89118e-317
1.57411e-317
1.22874e-317
1.03105e-317
8.57761e-318
7.93517e-318
6.53277e-318
6.05677e-318
5.61992e-318
5.22125e-318
4.85596e-318
4.5207e-318
4.74036e-318
4.91564e-318
4.59291e-318
6.44673e-318
9.26085e-318
1.88973e-317
8.83388e-137
7.96184e-136
2.78634e-279
2.89066e-317
1.69489e-317
1.22854e-317
1.03091e-317
8.57653e-318
7.9343e-318
6.53215e-318
6.05629e-318
5.61954e-318
5.22097e-318
4.85577e-318
4.52056e-318
4.74026e-318
4.91558e-318
5.05218e-318
6.44671e-318
9.26086e-318
1.88973e-317
1.1894e-167
9.14826e-167
1.22262e-277
2.89023e-317
1.69463e-317
1.22835e-317
1.03077e-317
8.5755e-318
7.93348e-318
7.34803e-318
6.05585e-318
5.61922e-318
5.22074e-318
4.85561e-318
5.08553e-318
4.7402e-318
4.91556e-318
5.05218e-318
6.44673e-318
1.04688e-317
1.88973e-317
9.38623e-169
6.72086e-168
2.30473e-276
2.75846e-317
1.69439e-317
1.33983e-317
1.03063e-317
9.52727e-318
7.93272e-318
6.53105e-318
6.05546e-318
5.61893e-318
5.22055e-318
4.85548e-318
5.08546e-318
4.74017e-318
4.91556e-318
5.0522e-318
7.30634e-318
1.04689e-317
1.88974e-317
1.91894e-176
1.18577e-175
2.60412e-275
2.88938e-317
1.93616e-317
1.33965e-317
1.03051e-317
8.57362e-318
7.932e-318
6.53058e-318
6.05511e-318
5.61869e-318
5.2204e-318
4.8554e-318
5.08542e-318
4.74018e-318
4.9156e-318
5.97084e-318
7.30642e-318
1.0469e-317
1.88974e-317
1.22401e-180
1.14792e-197
2.03971e-274
2.88893e-317
1.81489e-317
1.33948e-317
1.03039e-317
8.57275e-318
7.93133e-318
7.3464e-318
6.05479e-318
5.61849e-318
5.22029e-318
4.85536e-318
5.08542e-318
4.74022e-318
5.40722e-318
5.97094e-318
7.30654e-318
1.04691e-317
1.88975e-317
1.38118e-180
1.47357e-200
1.20287e-273
2.88845e-317
1.81462e-317
1.3393e-317
1.03027e-317
9.52434e-318
7.9307e-318
7.34596e-318
6.05454e-318
5.61834e-318
5.22022e-318
4.85535e-318
5.08547e-318
5.267e-318
5.40733e-318
5.97107e-318
7.30668e-318
1.04693e-317
1.92756e-317
1.58636e-180
2.40816e-206
5.63429e-273
2.88793e-317
1.81434e-317
1.45072e-317
1.13317e-317
9.52346e-318
7.93013e-318
7.34556e-318
6.05432e-318
5.61823e-318
5.22018e-318
5.46231e-318
5.08555e-318
5.26712e-318
5.40748e-318
5.97124e-318
7.30686e-318
1.04694e-317
1.92757e-317
1.85629e-180
1.4649e-223
2.17635e-272
3.14988e-317
2.05593e-317
1.45052e-317
1.13304e-317
9.52261e-318
7.92958e-318
7.3452e-318
6.05414e-318
5.61816e-318
5.87272e-318
5.46238e-318
5.08567e-318
5.26727e-318
5.40767e-318
5.97144e-318
8.16673e-318
1.04697e-317
1.92759e-317
2.21503e-180
4.16823e-231
7.12785e-272
3.14926e-317
1.93467e-317
1.45032e-317
1.13292e-317
9.52179e-318
7.92908e-318
7.3449e-318
6.81075e-318
6.32038e-318
5.87278e-318
5.46251e-318
5.08583e-318
5.26747e-318
5.40788e-318
6.89038e-318
8.167e-318
1.04699e-317
1.9276e-317
2.69785e-180
4.38606e-234
2.02225e-271
3.14861e-317
1.93434e-317
1.33857e-317
1.13279e-317
9.521e-318
7.92861e-318
7.34463e-318
6.81065e-318
6.3204e-318
5.87288e-318
5.46267e-318
5.08603e-318
5.26771e-318
6.39143e-318
6.89069e-318
8.16732e-318
1.04702e-317
1.92762e-317
3.35722e-180
5.40889e-237
5.05532e-271
3.01677e-317
1.934e-317
1.33839e-317
1.13267e-317
1.04723e-317
8.80909e-318
7.3444e-318
6.81058e-318
6.32046e-318
5.87303e-318
5.46287e-318
5.08627e-318
6.32159e-318
6.39177e-318
6.89104e-318
8.16766e-318
1.04705e-317
1.92764e-317
4.27274e-180
8.01651e-240
1.12903e-270
3.0161e-317
1.93365e-317
1.67274e-317
1.2355e-317
1.04714e-317
8.80866e-318
7.34423e-318
6.81057e-318
6.32057e-318
5.87323e-318
5.46312e-318
6.21689e-318
6.32197e-318
6.39216e-318
6.89143e-318
8.16805e-318
1.04708e-317
1.96547e-317
5.56741e-180
1.35464e-242
2.27863e-270
3.27762e-317
2.17496e-317
1.6725e-317
1.23537e-317
1.04707e-317
8.80826e-318
7.34409e-318
6.8106e-318
6.32072e-318
5.87346e-318
6.67751e-318
6.21728e-318
6.32239e-318
6.39259e-318
6.89186e-318
8.16847e-318
1.04712e-317
1.96549e-317
7.43515e-180
2.34934e-245
4.19595e-270
3.27685e-317
2.17455e-317
1.67226e-317
1.23524e-317
1.04699e-317
8.80791e-318
7.34399e-318
6.81068e-318
6.32093e-318
6.52639e-318
6.67792e-318
6.21772e-318
6.32285e-318
6.39305e-318
6.89232e-318
8.16893e-318
1.08744e-317
1.96552e-317
1.01883e-179
3.83221e-248
7.10764e-270
3.14503e-317
2.17414e-317
1.67202e-317
1.23511e-317
1.04692e-317
8.80759e-318
7.34395e-318
8.32431e-318
7.02354e-318
6.52677e-318
6.67838e-318
6.2182e-318
6.32338e-318
6.39358e-318
6.89283e-318
8.16943e-318
1.08748e-317
1.96555e-317
1.43414e-179
5.66781e-251
1.11533e-269
3.14426e-317
2.17372e-317
1.56032e-317
1.23498e-317
1.04685e-317
1.05688e-317
8.97593e-318
8.32452e-318
7.02386e-318
6.52718e-318
6.6789e-318
6.21874e-318
6.32394e-318
6.39414e-318
7.35294e-318
8.16997e-318
1.08753e-317
1.96558e-317
2.0762e-179
7.82246e-254
1.63117e-269
3.14348e-317
2.17329e-317
1.56009e-317
1.44067e-317
1.23711e-317
1.05685e-317
8.97598e-318
8.32479e-318
7.02425e-318
6.52765e-318
6.67947e-318
6.21932e-318
6.32455e-318
6.88664e-318
7.35357e-318
8.17054e-318
1.08758e-317
1.96562e-317
3.09496e-179
1.12286e-256
2.23516e-269
3.14269e-317
2.29358e-317
1.7827e-317
1.44052e-317
1.23704e-317
1.05683e-317
8.97609e-318
8.32512e-318
7.02468e-318
7.181e-318
6.6801e-318
6.7854e-318
6.85232e-318
6.88733e-318
7.35425e-318
8.17115e-318
1.08764e-317
1.96566e-317
4.75642e-179
1.93056e-259
2.88298e-269
3.1419e-317
2.29313e-317
1.78245e-317
1.44039e-317
1.23698e-317
1.05681e-317
8.97625e-318
8.32551e-318
7.7277e-318
7.18164e-318
6.68079e-318
6.78615e-318
6.85309e-318
6.88808e-318
7.35496e-318
8.6019e-318
1.0877e-317
2.23031e-317
7.54525e-179
4.43952e-262
3.51453e-269
3.01022e-317
2.29268e-317
1.7822e-317
1.44025e-317
1.23692e-317
1.0568e-317
8.97648e-318
8.32596e-318
7.7283e-318
7.18233e-318
6.68153e-318
6.78694e-318
6.8539e-318
6.88887e-318
7.35571e-318
8.60262e-318
1.08776e-317
2.23036e-317
1.23699e-178
1.81089e-264
4.06392e-269
3.00945e-317
2.29224e-317
1.78195e-317
1.44013e-317
1.23686e-317
1.0568e-317
8.97678e-318
8.32649e-318
7.72898e-318
7.18309e-318
6.68232e-318
6.7878e-318
6.85477e-318
6.88971e-318
7.35652e-318
8.60338e-318
1.08783e-317
2.26821e-317
2.09836e-178
3.10026e-266
4.47153e-269
3.00867e-317
2.29179e-317
1.7817e-317
1.44001e-317
1.23682e-317
1.05681e-317
9.79323e-318
8.32706e-318
7.72971e-318
7.18391e-318
7.29073e-318
6.78872e-318
6.85569e-318
6.89059e-318
7.35736e-318
8.60419e-318
1.0879e-317
2.26827e-317
3.68747e-178
3.85191e-267
4.69491e-269
2.87713e-317
2.17075e-317
1.78147e-317
1.43989e-317
1.23678e-317
1.05682e-317
9.79371e-318
8.32771e-318
7.73051e-318
7.18478e-318
7.29172e-318
6.78968e-318
6.85667e-318
6.89152e-318
7.35825e-318
8.60503e-318
1.08797e-317
2.26832e-317
6.72046e-178
1.38505e-267
4.71568e-269
2.87639e-317
2.17034e-317
1.78124e-317
1.43979e-317
1.23675e-317
1.05684e-317
9.79424e-318
8.32844e-318
7.73138e-318
7.18573e-318
7.29276e-318
6.7907e-318
6.8577e-318
6.89249e-318
7.35919e-318
8.60591e-318
1.12834e-317
2.34399e-317
1.27162e-177
7.07155e-268
4.54125e-269
2.87567e-317
2.16994e-317
1.78102e-317
1.43969e-317
1.23673e-317
1.05687e-317
9.79487e-318
8.32924e-318
7.73231e-318
7.18674e-318
7.29387e-318
6.79177e-318
6.85878e-318
6.89353e-318
7.36016e-318
8.60684e-318
1.12842e-317
4.12101e-317
2.50054e-177
4.30519e-268
4.20124e-269
2.87495e-317
2.16955e-317
1.78081e-317
1.4396e-317
1.23671e-317
1.0569e-317
9.79557e-318
8.3301e-318
7.7333e-318
7.18781e-318
7.29505e-318
6.79291e-318
6.85991e-318
6.89461e-318
7.36118e-318
8.60781e-318
1.65246e-317
2.69839e-315
5.11459e-177
2.88669e-268
3.74034e-269
2.74359e-317
2.16917e-317
1.78061e-317
1.43952e-317
1.23671e-317
1.05695e-317
9.79636e-318
8.33103e-318
7.73437e-318
7.18893e-318
7.29628e-318
6.79409e-318
6.8611e-318
6.89573e-318
7.82238e-318
1.33436e-317
1.4043e-315
3.10994e-313
1.08897e-176
2.01585e-268