/*--------------------------------*- C++ -*----------------------------------*\
| =========                 |                                                 |
| \\      /  F ield         | OpenFOAM: The Open Source CFD Toolbox           |
|  \\    /   O peration     | Version:  v2012                                 |
|   \\  /    A nd           | Website:  www.openfoam.com                      |
|    \\/     M anipulation  |                                                 |
\*---------------------------------------------------------------------------*/
FoamFile
{
    version     2.0;
    format      ascii;
    class       volScalarField;
    location    "0.4";
    object      p_rgh;
}
// * * * * * * * * * * * * * * * * * * * * * * * * * * * * * * * * * * * * * //

dimensions      [1 -1 -2 0 0 0 0];


internalField   nonuniform List<scalar> 
3332
(
3.5494e+06
3.54484e+06
3.54751e+06
3.54538e+06
3.54537e+06
3.54166e+06
3.53488e+06
3.52475e+06
3.52878e+06
3.53121e+06
3.52713e+06
3.53159e+06
3.52554e+06
3.52185e+06
3.51023e+06
3.49847e+06
3.48852e+06
3.48071e+06
3.48292e+06
3.48766e+06
3.49089e+06
3.479e+06
3.46831e+06
3.51227e+06
3.51921e+06
3.51081e+06
3.51961e+06
3.50978e+06
3.50557e+06
3.49324e+06
3.48249e+06
3.47399e+06
3.46911e+06
3.47019e+06
3.47404e+06
3.47562e+06
3.46867e+06
3.46097e+06
3.50037e+06
3.50575e+06
3.49903e+06
3.50652e+06
3.49757e+06
3.4923e+06
3.48216e+06
3.47353e+06
3.46752e+06
3.46548e+06
3.46566e+06
3.46794e+06
3.46736e+06
3.46344e+06
3.45567e+06
3.49221e+06
3.49107e+06
3.49043e+06
3.49258e+06
3.48763e+06
3.48134e+06
3.47442e+06
3.46787e+06
3.46414e+06
3.4639e+06
3.46349e+06
3.4646e+06
3.46277e+06
3.46024e+06
3.45161e+06
3.4853e+06
3.47724e+06
3.48315e+06
3.47958e+06
3.47898e+06
3.47215e+06
3.46811e+06
3.46303e+06
3.46079e+06
3.46118e+06
3.46062e+06
3.46131e+06
3.4594e+06
3.45726e+06
3.44823e+06
3.47855e+06
3.46591e+06
3.47617e+06
3.46885e+06
3.47128e+06
3.46448e+06
3.46239e+06
3.45816e+06
3.4567e+06
3.45695e+06
3.45662e+06
3.45741e+06
3.45612e+06
3.45398e+06
3.44532e+06
3.47176e+06
3.45762e+06
3.46953e+06
3.46069e+06
3.46455e+06
3.45824e+06
3.45721e+06
3.45354e+06
3.45241e+06
3.45232e+06
3.45233e+06
3.45336e+06
3.45278e+06
3.45065e+06
3.44285e+06
3.46534e+06
3.45181e+06
3.46357e+06
3.45477e+06
3.45896e+06
3.45337e+06
3.45283e+06
3.44965e+06
3.44872e+06
3.44843e+06
3.44865e+06
3.44979e+06
3.44966e+06
3.44768e+06
3.44088e+06
3.46011e+06
3.44805e+06
3.45866e+06
3.45062e+06
3.45451e+06
3.44976e+06
3.4494e+06
3.4468e+06
3.44602e+06
3.44575e+06
3.446e+06
3.44705e+06
3.44705e+06
3.44532e+06
3.43937e+06
3.4556e+06
3.44551e+06
3.45469e+06
3.44777e+06
3.45106e+06
3.44718e+06
3.44686e+06
3.44485e+06
3.44423e+06
3.44411e+06
3.44424e+06
3.4451e+06
3.44503e+06
3.44355e+06
3.43825e+06
3.45188e+06
3.44404e+06
3.45148e+06
3.44587e+06
3.44836e+06
3.44532e+06
3.44494e+06
3.44351e+06
3.443e+06
3.44305e+06
3.44302e+06
3.44368e+06
3.44349e+06
3.44221e+06
3.43739e+06
3.44868e+06
3.44328e+06
3.44872e+06
3.44456e+06
3.44614e+06
3.44391e+06
3.4434e+06
3.44244e+06
3.44199e+06
3.44214e+06
3.44198e+06
3.44251e+06
3.44224e+06
3.4411e+06
3.43668e+06
3.44611e+06
3.44303e+06
3.44628e+06
3.44356e+06
3.44421e+06
3.4427e+06
3.44204e+06
3.44142e+06
3.44098e+06
3.44117e+06
3.44094e+06
3.44141e+06
3.44114e+06
3.44007e+06
3.43606e+06
3.44346e+06
3.44269e+06
3.44402e+06
3.44264e+06
3.44247e+06
3.44156e+06
3.44076e+06
3.44035e+06
3.43991e+06
3.44009e+06
3.43985e+06
3.44031e+06
3.44008e+06
3.43904e+06
3.43549e+06
3.44105e+06
3.44212e+06
3.44193e+06
3.44164e+06
3.44086e+06
3.4404e+06
3.43953e+06
3.43925e+06
3.43881e+06
3.43896e+06
3.43874e+06
3.4392e+06
3.43904e+06
3.43801e+06
3.43499e+06
3.4389e+06
3.44121e+06
3.44002e+06
3.44049e+06
3.43937e+06
3.43922e+06
3.43834e+06
3.43815e+06
3.43772e+06
3.43784e+06
3.43766e+06
3.43812e+06
3.43801e+06
3.43698e+06
3.4346e+06
3.43745e+06
3.44016e+06
3.43832e+06
3.43925e+06
3.43799e+06
3.43805e+06
3.43723e+06
3.43707e+06
3.43668e+06
3.43677e+06
3.43662e+06
3.43709e+06
3.43701e+06
3.436e+06
3.43437e+06
3.43575e+06
3.43878e+06
3.43676e+06
3.43794e+06
3.43673e+06
3.4369e+06
3.43619e+06
3.43604e+06
3.43572e+06
3.43578e+06
3.43567e+06
3.43609e+06
3.43606e+06
3.43506e+06
3.43434e+06
3.43428e+06
3.4374e+06
3.43542e+06
3.43668e+06
3.43562e+06
3.43582e+06
3.43524e+06
3.43509e+06
3.43482e+06
3.43485e+06
3.43478e+06
3.43518e+06
3.43517e+06
3.43424e+06
3.43453e+06
3.43311e+06
3.43609e+06
3.43432e+06
3.43552e+06
3.43466e+06
3.43484e+06
3.43439e+06
3.43422e+06
3.434e+06
3.434e+06
3.43395e+06
3.43432e+06
3.43435e+06
3.43356e+06
3.43498e+06
3.43232e+06
3.43499e+06
3.43349e+06
3.43453e+06
3.43389e+06
3.43399e+06
3.43366e+06
3.43344e+06
3.43326e+06
3.43322e+06
3.43319e+06
3.43355e+06
3.43362e+06
3.43308e+06
3.43566e+06
3.43191e+06
3.4341e+06
3.43298e+06
3.43375e+06
3.43333e+06
3.43329e+06
3.43306e+06
3.43277e+06
3.43261e+06
3.43253e+06
3.43251e+06
3.43288e+06
3.43301e+06
3.43289e+06
3.43656e+06
3.4319e+06
3.43349e+06
3.43279e+06
3.43321e+06
3.43299e+06
3.43279e+06
3.43262e+06
3.43224e+06
3.43207e+06
3.43197e+06
3.43193e+06
3.43236e+06
3.43257e+06
3.43306e+06
3.43763e+06
3.43227e+06
3.43318e+06
3.4329e+06
3.43294e+06
3.43289e+06
3.4325e+06
3.43238e+06
3.43188e+06
3.4317e+06
3.43158e+06
3.4315e+06
3.43205e+06
3.43239e+06
3.43364e+06
3.43884e+06
3.43297e+06
3.43317e+06
3.43329e+06
3.43298e+06
3.43306e+06
3.43248e+06
3.43239e+06
3.43175e+06
3.43157e+06
3.4314e+06
3.4313e+06
3.43199e+06
3.43255e+06
3.43464e+06
3.44016e+06
3.43392e+06
3.43357e+06
3.43397e+06
3.43336e+06
3.43352e+06
3.43278e+06
3.43271e+06
3.43189e+06
3.43177e+06
3.43149e+06
3.43144e+06
3.43224e+06
3.43314e+06
3.43509e+06
3.43431e+06
3.43487e+06
3.43409e+06
3.43428e+06
3.43343e+06
3.43339e+06
3.43239e+06
3.4324e+06
3.43193e+06
3.43205e+06
3.4329e+06
3.43423e+06
3.43642e+06
3.43543e+06
3.43601e+06
3.43518e+06
3.43534e+06
3.43448e+06
3.43446e+06
3.43331e+06
3.43355e+06
3.43278e+06
3.43322e+06
3.43405e+06
3.43582e+06
3.43723e+06
3.43671e+06
3.43734e+06
3.43661e+06
3.43671e+06
3.43593e+06
3.43592e+06
3.43471e+06
3.43526e+06
3.43412e+06
3.43504e+06
3.43575e+06
3.43784e+06
3.4389e+06
3.43846e+06
3.43888e+06
3.43834e+06
3.43833e+06
3.43776e+06
3.43773e+06
3.43661e+06
3.43751e+06
3.43592e+06
3.43739e+06
3.43788e+06
3.44001e+06
3.44062e+06
3.44035e+06
3.44053e+06
3.44025e+06
3.4401e+06
3.43984e+06
3.43974e+06
3.43895e+06
3.44013e+06
3.43828e+06
3.44023e+06
3.44037e+06
3.4422e+06
3.44235e+06
3.44227e+06
3.44217e+06
3.44215e+06
3.44185e+06
3.44199e+06
3.44172e+06
3.44155e+06
3.44276e+06
3.44093e+06
3.44294e+06
3.44267e+06
3.44364e+06
3.44364e+06
3.44394e+06
3.44364e+06
3.44387e+06
3.44346e+06
3.44399e+06
3.44348e+06
3.44421e+06
3.44501e+06
3.4438e+06
3.44563e+06
3.44499e+06
3.44491e+06
3.44491e+06
3.44542e+06
3.4449e+06
3.44525e+06
3.44475e+06
3.44547e+06
3.44467e+06
3.44628e+06
3.44584e+06
3.44573e+06
3.44599e+06
3.44598e+06
3.4444e+06
3.44585e+06
3.44655e+06
3.4458e+06
3.4462e+06
3.4456e+06
3.4461e+06
3.44508e+06
3.44688e+06
3.44463e+06
3.4473e+06
3.44595e+06
3.44756e+06
3.4454e+06
3.44665e+06
3.4476e+06
3.44663e+06
3.44707e+06
3.44644e+06
3.4466e+06
3.44563e+06
3.44609e+06
3.44215e+06
3.44729e+06
3.43564e+06
3.44583e+06
3.44584e+06
3.44754e+06
3.44877e+06
3.44766e+06
3.44827e+06
3.44775e+06
3.44807e+06
3.44785e+06
3.44828e+06
3.44798e+06
3.44977e+06
3.44826e+06
3.44965e+06
3.44843e+06
3.44914e+06
3.44863e+06
3.44902e+06
3.44892e+06
3.44934e+06
3.44943e+06
3.44987e+06
3.44891e+06
3.45038e+06
3.44917e+06
3.44993e+06
3.44944e+06
3.44988e+06
3.44985e+06
3.45027e+06
3.4504e+06
3.45061e+06
3.4495e+06
3.45089e+06
3.44968e+06
3.45043e+06
3.44996e+06
3.45039e+06
3.45035e+06
3.45073e+06
3.45081e+06
3.45091e+06
3.44998e+06
3.4512e+06
3.45006e+06
3.45075e+06
3.45031e+06
3.45072e+06
3.45065e+06
3.451e+06
3.45107e+06
3.45115e+06
3.45023e+06
3.45121e+06
3.4502e+06
3.45081e+06
3.45039e+06
3.45081e+06
3.45075e+06
3.45111e+06
3.45117e+06
3.45124e+06
3.44992e+06
3.45086e+06
3.45014e+06
3.45068e+06
3.45026e+06
3.45067e+06
3.45068e+06
3.45106e+06
3.45112e+06
3.45119e+06
3.44966e+06
3.45037e+06
3.44979e+06
3.4503e+06
3.44994e+06
3.45037e+06
3.45041e+06
3.45081e+06
3.45089e+06
3.45096e+06
3.44922e+06
3.44969e+06
3.44914e+06
3.44966e+06
3.44941e+06
3.44988e+06
3.44995e+06
3.45038e+06
3.45048e+06
3.45055e+06
3.44838e+06
3.44881e+06
3.44831e+06
3.44885e+06
3.44864e+06
3.44916e+06
3.44927e+06
3.44973e+06
3.44986e+06
3.44993e+06
3.44718e+06
3.4477e+06
3.44721e+06
3.44782e+06
3.44764e+06
3.44821e+06
3.44837e+06
3.44887e+06
3.44902e+06
3.4491e+06
3.44572e+06
3.44639e+06
3.44585e+06
3.44653e+06
3.44638e+06
3.447e+06
3.44722e+06
3.44776e+06
3.44795e+06
3.44803e+06
3.44396e+06
3.4448e+06
3.4442e+06
3.44496e+06
3.44486e+06
3.44552e+06
3.44582e+06
3.44639e+06
3.44662e+06
3.4467e+06
3.44195e+06
3.44292e+06
3.4423e+06
3.44311e+06
3.44308e+06
3.44374e+06
3.44412e+06
3.44472e+06
3.44499e+06
3.44507e+06
3.43966e+06
3.44067e+06
3.44015e+06
3.44093e+06
3.44101e+06
3.44164e+06
3.44211e+06
3.44272e+06
3.44305e+06
3.44313e+06
3.43725e+06
3.43811e+06
3.43774e+06
3.43841e+06
3.43864e+06
3.43921e+06
3.43978e+06
3.4404e+06
3.44077e+06
3.44086e+06
3.43466e+06
3.43515e+06
3.43506e+06
3.4355e+06
3.43593e+06
3.4364e+06
3.43709e+06
3.43772e+06
3.43812e+06
3.43822e+06
3.43186e+06
3.43177e+06
3.43208e+06
3.43219e+06
3.43283e+06
3.43317e+06
3.43398e+06
3.43462e+06
3.43506e+06
3.43516e+06
3.42874e+06
3.42788e+06
3.42874e+06
3.42843e+06
3.42928e+06
3.42948e+06
3.43041e+06
3.43108e+06
3.43154e+06
3.43165e+06
3.42523e+06
3.42352e+06
3.42492e+06
3.42419e+06
3.42526e+06
3.42533e+06
3.42634e+06
3.42703e+06
3.42751e+06
3.42765e+06
3.42114e+06
3.41861e+06
3.42053e+06
3.41942e+06
3.42068e+06
3.42065e+06
3.42171e+06
3.42245e+06
3.42293e+06
3.42309e+06
3.41631e+06
3.41312e+06
3.41546e+06
3.41407e+06
3.41546e+06
3.41538e+06
3.41645e+06
3.41725e+06
3.41775e+06
3.41793e+06
3.41032e+06
3.4069e+06
3.4096e+06
3.40809e+06
3.40952e+06
3.40946e+06
3.41052e+06
3.4114e+06
3.41189e+06
3.4121e+06
3.40364e+06
3.40019e+06
3.40289e+06
3.40142e+06
3.40282e+06
3.40282e+06
3.40385e+06
3.40481e+06
3.40531e+06
3.40554e+06
3.39593e+06
3.39282e+06
3.39527e+06
3.39402e+06
3.39533e+06
3.39543e+06
3.3964e+06
3.39741e+06
3.39791e+06
3.39817e+06
3.3873e+06
3.3849e+06
3.38689e+06
3.38596e+06
3.38705e+06
3.38723e+06
3.3881e+06
3.38912e+06
3.3896e+06
3.38991e+06
3.37782e+06
3.37643e+06
3.3778e+06
3.37724e+06
3.37803e+06
3.37821e+06
3.37894e+06
3.37984e+06
3.3803e+06
3.38064e+06
3.36791e+06
3.36762e+06
3.36821e+06
3.36798e+06
3.36838e+06
3.36838e+06
3.36889e+06
3.36948e+06
3.36988e+06
3.37027e+06
3.35797e+06
3.35875e+06
3.35848e+06
3.35842e+06
3.35831e+06
3.35787e+06
3.35799e+06
3.35794e+06
3.3582e+06
3.35864e+06
3.34874e+06
3.35037e+06
3.34921e+06
3.34902e+06
3.34822e+06
3.34692e+06
3.34637e+06
3.34516e+06
3.34519e+06
3.34567e+06
3.34128e+06
3.34339e+06
3.34132e+06
3.34057e+06
3.33875e+06
3.336e+06
3.33426e+06
3.33103e+06
3.33059e+06
3.33107e+06
3.33725e+06
3.33942e+06
3.33636e+06
3.33448e+06
3.33109e+06
3.32604e+06
3.32214e+06
3.31557e+06
3.31437e+06
3.3148e+06
3.33886e+06
3.3407e+06
3.33657e+06
3.33294e+06
3.3271e+06
3.31873e+06
3.31117e+06
3.29896e+06
3.2962e+06
3.29633e+06
3.34995e+06
3.35088e+06
3.34531e+06
3.33918e+06
3.32978e+06
3.31696e+06
3.30313e+06
3.28214e+06
3.27647e+06
3.276e+06
3.37491e+06
3.37459e+06
3.36722e+06
3.35768e+06
3.34341e+06
3.32435e+06
3.30066e+06
3.26756e+06
3.25531e+06
3.25358e+06
3.42004e+06
3.41832e+06
3.40884e+06
3.39511e+06
3.3749e+06
3.34777e+06
3.31129e+06
3.26287e+06
3.23603e+06
3.23247e+06
3.49241e+06
3.48944e+06
3.47794e+06
3.46028e+06
3.43431e+06
3.39883e+06
3.34928e+06
3.28044e+06
3.22267e+06
3.21614e+06
3.59654e+06
3.59278e+06
3.57993e+06
3.55909e+06
3.52779e+06
3.4844e+06
3.42102e+06
3.32505e+06
3.21839e+06
3.20814e+06
3.7326e+06
3.72831e+06
3.71437e+06
3.69073e+06
3.65519e+06
3.60294e+06
3.52173e+06
3.40383e+06
3.26297e+06
3.22067e+06
3.89185e+06
3.88915e+06
3.87998e+06
3.86348e+06
3.83817e+06
3.79458e+06
3.72467e+06
3.61106e+06
3.35112e+06
2.98591e+06
4.07173e+06
4.07148e+06
4.0701e+06
4.06803e+06
4.0664e+06
4.06279e+06
4.06524e+06
4.06155e+06
3.97839e+06
3.92633e+06
4.22988e+06
4.36326e+06
4.42779e+06
4.45824e+06
4.47516e+06
4.48473e+06
4.49057e+06
4.18738e+06
4.18777e+06
4.1884e+06
4.18952e+06
4.1916e+06
4.19457e+06
4.2024e+06
4.21331e+06
4.22601e+06
4.28357e+06
4.37431e+06
4.41463e+06
4.44702e+06
4.4659e+06
4.47841e+06
4.48622e+06
4.4913e+06
4.29425e+06
4.29496e+06
4.29666e+06
4.29963e+06
4.30408e+06
4.31007e+06
4.31946e+06
4.32983e+06
4.34019e+06
4.36733e+06
4.40779e+06
4.43635e+06
4.45765e+06
4.47175e+06
4.48136e+06
4.48776e+06
4.49207e+06
4.35531e+06
4.35609e+06
4.35799e+06
4.36127e+06
4.36598e+06
4.37238e+06
4.381e+06
4.39186e+06
4.40551e+06
4.42329e+06
4.44157e+06
4.45644e+06
4.46873e+06
4.4779e+06
4.48471e+06
4.48958e+06
4.49306e+06
4.40374e+06
4.40435e+06
4.4057e+06
4.40811e+06
4.41146e+06
4.41596e+06
4.42174e+06
4.42864e+06
4.43683e+06
4.44706e+06
4.45799e+06
4.46769e+06
4.47591e+06
4.48241e+06
4.48742e+06
4.49119e+06
4.49397e+06
4.43207e+06
4.43259e+06
4.43369e+06
4.43569e+06
4.43839e+06
4.44195e+06
4.44634e+06
4.45155e+06
4.45748e+06
4.46396e+06
4.47044e+06
4.47644e+06
4.48175e+06
4.48619e+06
4.48981e+06
4.49266e+06
4.49485e+06
4.45295e+06
4.45332e+06
4.45403e+06
4.45537e+06
4.45715e+06
4.45951e+06
4.46239e+06
4.46577e+06
4.46959e+06
4.47378e+06
4.47806e+06
4.48213e+06
4.48582e+06
4.48902e+06
4.4917e+06
4.49388e+06
4.49562e+06
4.46593e+06
4.46622e+06
4.46674e+06
4.46775e+06
4.46907e+06
4.47081e+06
4.47289e+06
4.47529e+06
4.47795e+06
4.48078e+06
4.48363e+06
4.4864e+06
4.48897e+06
4.49126e+06
4.49325e+06
4.49492e+06
4.49629e+06
4.47528e+06
4.47552e+06
4.47586e+06
4.47656e+06
4.47745e+06
4.47863e+06
4.48004e+06
4.48168e+06
4.4835e+06
4.48546e+06
4.48746e+06
4.48942e+06
4.49128e+06
4.49298e+06
4.49448e+06
4.49578e+06
4.49686e+06
4.48151e+06
4.4817e+06
4.48194e+06
4.48246e+06
4.48311e+06
4.48398e+06
4.48499e+06
4.48618e+06
4.48748e+06
4.48886e+06
4.49029e+06
4.49171e+06
4.49307e+06
4.49433e+06
4.49548e+06
4.49648e+06
4.49735e+06
4.48607e+06
4.48622e+06
4.48638e+06
4.48674e+06
4.4872e+06
4.48781e+06
4.48854e+06
4.48938e+06
4.49032e+06
4.49132e+06
4.49236e+06
4.49341e+06
4.49443e+06
4.49539e+06
4.49628e+06
4.49707e+06
4.49776e+06
4.49835e+06
4.49884e+06
4.48927e+06
4.48939e+06
4.4895e+06
4.48978e+06
4.49011e+06
4.49057e+06
4.4911e+06
4.49173e+06
4.49242e+06
4.49316e+06
4.49394e+06
4.49472e+06
4.49549e+06
4.49623e+06
4.49692e+06
4.49755e+06
4.49811e+06
4.49859e+06
4.499e+06
4.49167e+06
4.49176e+06
4.49184e+06
4.49204e+06
4.49228e+06
4.49262e+06
4.49301e+06
4.49348e+06
4.49399e+06
4.49455e+06
4.49514e+06
4.49574e+06
4.49633e+06
4.49691e+06
4.49745e+06
4.49795e+06
4.4984e+06
4.49879e+06
4.49913e+06
4.49343e+06
4.4935e+06
4.49356e+06
4.49371e+06
4.4939e+06
4.49415e+06
4.49445e+06
4.4948e+06
4.4952e+06
4.49562e+06
4.49607e+06
4.49653e+06
4.497e+06
4.49745e+06
4.49788e+06
4.49828e+06
4.49865e+06
4.49897e+06
4.49925e+06
4.49478e+06
4.49484e+06
4.49488e+06
4.495e+06
4.49514e+06
4.49533e+06
4.49556e+06
4.49583e+06
4.49613e+06
4.49646e+06
4.4968e+06
4.49717e+06
4.49753e+06
4.49789e+06
4.49823e+06
4.49856e+06
4.49886e+06
4.49912e+06
4.49936e+06
4.49581e+06
4.49585e+06
4.49589e+06
4.49598e+06
4.49609e+06
4.49624e+06
4.49641e+06
4.49662e+06
4.49686e+06
4.49711e+06
4.49739e+06
4.49767e+06
4.49796e+06
4.49825e+06
4.49853e+06
4.49879e+06
4.49903e+06
4.49926e+06
4.49945e+06
4.49662e+06
4.49665e+06
4.49668e+06
4.49675e+06
4.49683e+06
4.49695e+06
4.49709e+06
4.49725e+06
4.49743e+06
4.49764e+06
4.49785e+06
4.49808e+06
4.49831e+06
4.49854e+06
4.49877e+06
4.49898e+06
4.49918e+06
4.49937e+06
4.49953e+06
4.49725e+06
4.49728e+06
4.49729e+06
4.49735e+06
4.49742e+06
4.49751e+06
4.49762e+06
4.49775e+06
4.49789e+06
4.49806e+06
4.49823e+06
4.49841e+06
4.4986e+06
4.49878e+06
4.49897e+06
4.49914e+06
4.49931e+06
4.49946e+06
4.4996e+06
4.49775e+06
4.49778e+06
4.49779e+06
4.49783e+06
4.49789e+06
4.49796e+06
4.49805e+06
4.49815e+06
4.49827e+06
4.4984e+06
4.49853e+06
4.49868e+06
4.49883e+06
4.49898e+06
4.49913e+06
4.49928e+06
4.49942e+06
4.49955e+06
4.49966e+06
4.49816e+06
4.49817e+06
4.49818e+06
4.49822e+06
4.49826e+06
4.49832e+06
4.49839e+06
4.49847e+06
4.49857e+06
4.49867e+06
4.49878e+06
4.4989e+06
4.49903e+06
4.49915e+06
4.49928e+06
4.4994e+06
4.49951e+06
4.49962e+06
4.49971e+06
4.49848e+06
4.4985e+06
4.4985e+06
4.49853e+06
4.49857e+06
4.49861e+06
4.49867e+06
4.49874e+06
4.49881e+06
4.4989e+06
4.49899e+06
4.49909e+06
4.49919e+06
4.49929e+06
4.49939e+06
4.49949e+06
4.49959e+06
4.49968e+06
4.49976e+06
4.49875e+06
4.49876e+06
4.49876e+06
4.49879e+06
4.49881e+06
4.49885e+06
4.4989e+06
4.49895e+06
4.49902e+06
4.49908e+06
4.49916e+06
4.49924e+06
4.49932e+06
4.49941e+06
4.49949e+06
4.49957e+06
4.49965e+06
4.49973e+06
4.4998e+06
4.49896e+06
4.49897e+06
4.49898e+06
4.499e+06
4.49902e+06
4.49905e+06
4.49909e+06
4.49913e+06
4.49918e+06
4.49924e+06
4.4993e+06
4.49937e+06
4.49943e+06
4.4995e+06
4.49957e+06
4.49964e+06
4.49971e+06
4.49977e+06
4.49983e+06
4.49914e+06
4.49915e+06
4.49915e+06
4.49917e+06
4.49918e+06
4.49921e+06
4.49924e+06
4.49928e+06
4.49932e+06
4.49937e+06
4.49942e+06
4.49947e+06
4.49953e+06
4.49959e+06
4.49964e+06
4.4997e+06
4.49976e+06
4.49981e+06
4.49986e+06
4.49929e+06
4.49929e+06
4.4993e+06
4.49931e+06
4.49932e+06
4.49934e+06
4.49937e+06
4.4994e+06
4.49943e+06
4.49947e+06
4.49951e+06
4.49956e+06
4.49961e+06
4.49965e+06
4.4997e+06
4.49975e+06
4.4998e+06
4.49984e+06
4.49988e+06
4.49941e+06
4.49941e+06
4.49941e+06
4.49943e+06
4.49944e+06
4.49945e+06
4.49947e+06
4.4995e+06
4.49953e+06
4.49956e+06
4.49959e+06
4.49963e+06
4.49967e+06
4.49971e+06
4.49975e+06
4.49979e+06
4.49983e+06
4.49987e+06
4.4999e+06
4.49951e+06
4.49951e+06
4.49951e+06
4.49952e+06
4.49953e+06
4.49955e+06
4.49956e+06
4.49958e+06
4.49961e+06
4.49963e+06
4.49966e+06
4.49969e+06
4.49973e+06
4.49976e+06
4.49979e+06
4.49983e+06
4.49986e+06
4.49989e+06
4.49992e+06
4.49959e+06
4.49959e+06
4.4996e+06
4.4996e+06
4.49961e+06
4.49962e+06
4.49964e+06
4.49965e+06
4.49967e+06
4.4997e+06
4.49972e+06
4.49974e+06
4.49977e+06
4.4998e+06
4.49983e+06
4.49986e+06
4.49988e+06
4.49991e+06
4.49994e+06
4.49966e+06
4.49966e+06
4.49966e+06
4.49967e+06
4.49968e+06
4.49969e+06
4.4997e+06
4.49971e+06
4.49973e+06
4.49975e+06
4.49977e+06
4.49979e+06
4.49981e+06
4.49983e+06
4.49986e+06
4.49988e+06
4.4999e+06
4.49993e+06
4.49995e+06
4.49972e+06
4.49972e+06
4.49972e+06
4.49973e+06
4.49973e+06
4.49974e+06
4.49975e+06
4.49976e+06
4.49978e+06
4.49979e+06
4.49981e+06
4.49982e+06
4.49984e+06
4.49986e+06
4.49988e+06
4.4999e+06
4.49992e+06
4.49994e+06
4.49996e+06
4.49977e+06
4.49977e+06
4.49977e+06
4.49977e+06
4.49978e+06
4.49979e+06
4.49979e+06
4.4998e+06
4.49981e+06
4.49983e+06
4.49984e+06
4.49986e+06
4.49987e+06
4.49989e+06
4.4999e+06
4.49992e+06
4.49994e+06
4.49995e+06
4.49997e+06
4.49981e+06
4.49981e+06
4.49981e+06
4.49981e+06
4.49982e+06
4.49982e+06
4.49983e+06
4.49984e+06
4.49985e+06
4.49986e+06
4.49987e+06
4.49988e+06
4.49989e+06
4.49991e+06
4.49992e+06
4.49994e+06
4.49995e+06
4.49996e+06
4.49997e+06
4.49984e+06
4.49985e+06
4.49985e+06
4.49985e+06
4.49985e+06
4.49986e+06
4.49986e+06
4.49987e+06
4.49988e+06
4.49988e+06
4.49989e+06
4.4999e+06
4.49991e+06
4.49993e+06
4.49994e+06
4.49995e+06
4.49996e+06
4.49997e+06
4.49998e+06
4.49987e+06
4.49988e+06
4.49988e+06
4.49988e+06
4.49988e+06
4.49988e+06
4.49989e+06
4.49989e+06
4.4999e+06
4.49991e+06
4.49991e+06
4.49992e+06
4.49993e+06
4.49994e+06
4.49995e+06
4.49996e+06
4.49997e+06
4.49998e+06
4.49998e+06
4.4999e+06
4.4999e+06
4.4999e+06
4.4999e+06
4.4999e+06
4.49991e+06
4.49991e+06
4.49992e+06
4.49992e+06
4.49993e+06
4.49993e+06
4.49994e+06
4.49995e+06
4.49995e+06
4.49996e+06
4.49997e+06
4.49997e+06
4.49998e+06
4.49999e+06
4.49992e+06
4.49992e+06
4.49992e+06
4.49992e+06
4.49993e+06
4.49993e+06
4.49993e+06
4.49993e+06
4.49994e+06
4.49994e+06
4.49995e+06
4.49995e+06
4.49996e+06
4.49996e+06
4.49997e+06
4.49997e+06
4.49998e+06
4.49999e+06
4.49999e+06
4.49994e+06
4.49994e+06
4.49994e+06
4.49994e+06
4.49994e+06
4.49995e+06
4.49995e+06
4.49995e+06
4.49995e+06
4.49996e+06
4.49996e+06
4.49996e+06
4.49997e+06
4.49997e+06
4.49998e+06
4.49998e+06
4.49999e+06
4.49999e+06
4.49999e+06
4.49996e+06
4.49996e+06
4.49996e+06
4.49996e+06
4.49996e+06
4.49996e+06
4.49997e+06
4.49997e+06
4.49997e+06
4.49997e+06
4.49997e+06
4.49998e+06
4.49998e+06
4.49998e+06
4.49998e+06
4.49999e+06
4.49999e+06
4.49999e+06
4.5e+06
4.49997e+06
4.49997e+06
4.49997e+06
4.49997e+06
4.49998e+06
4.49998e+06
4.49998e+06
4.49998e+06
4.49998e+06
4.49998e+06
4.49998e+06
4.49999e+06
4.49999e+06
4.49999e+06
4.49999e+06
4.49999e+06
4.49999e+06
4.5e+06
4.5e+06
4.5e+06
4.5e+06
4.5e+06
4.5e+06
4.5e+06
4.5e+06
4.5e+06
4.5e+06
4.5e+06
4.5e+06
4.5e+06
4.5e+06
4.5e+06
4.5e+06
4.5e+06
4.5e+06
4.5e+06
4.5e+06
4.5e+06
3.5494e+06
3.54484e+06
3.54751e+06
3.54538e+06
3.54537e+06
3.54166e+06
3.53488e+06
3.52475e+06
3.52878e+06
3.53121e+06
3.52713e+06
3.53159e+06
3.52554e+06
3.52185e+06
3.51023e+06
3.49847e+06
3.48852e+06
3.48071e+06
3.48292e+06
3.48766e+06
3.49089e+06
3.479e+06
3.46831e+06
3.51227e+06
3.51921e+06
3.51081e+06
3.51961e+06
3.50978e+06
3.50557e+06
3.49324e+06
3.48249e+06
3.47399e+06
3.46911e+06
3.47019e+06
3.47404e+06
3.47561e+06
3.46867e+06
3.46097e+06
3.50037e+06
3.50575e+06
3.49903e+06
3.50652e+06
3.49757e+06
3.4923e+06
3.48216e+06
3.47353e+06
3.46752e+06
3.46548e+06
3.46566e+06
3.46794e+06
3.46736e+06
3.46344e+06
3.45567e+06
3.49221e+06
3.49107e+06
3.49043e+06
3.49258e+06
3.48763e+06
3.48134e+06
3.47442e+06
3.46787e+06
3.46414e+06
3.4639e+06
3.46349e+06
3.4646e+06
3.46277e+06
3.46024e+06
3.45161e+06
3.4853e+06
3.47724e+06
3.48315e+06
3.47958e+06
3.47898e+06
3.47215e+06
3.46811e+06
3.46303e+06
3.46079e+06
3.46118e+06
3.46062e+06
3.46131e+06
3.4594e+06
3.45726e+06
3.44823e+06
3.47855e+06
3.46591e+06
3.47617e+06
3.46885e+06
3.47128e+06
3.46448e+06
3.46239e+06
3.45816e+06
3.4567e+06
3.45695e+06
3.45662e+06
3.45741e+06
3.45612e+06
3.45398e+06
3.44532e+06
3.47176e+06
3.45762e+06
3.46953e+06
3.46069e+06
3.46455e+06
3.45824e+06
3.45721e+06
3.45354e+06
3.45241e+06
3.45232e+06
3.45233e+06
3.45336e+06
3.45278e+06
3.45065e+06
3.44285e+06
3.46534e+06
3.45181e+06
3.46357e+06
3.45477e+06
3.45896e+06
3.45337e+06
3.45283e+06
3.44965e+06
3.44872e+06
3.44843e+06
3.44865e+06
3.44979e+06
3.44966e+06
3.44768e+06
3.44088e+06
3.46011e+06
3.44805e+06
3.45866e+06
3.45062e+06
3.45451e+06
3.44976e+06
3.4494e+06
3.4468e+06
3.44602e+06
3.44575e+06
3.446e+06
3.44705e+06
3.44705e+06
3.44532e+06
3.43937e+06
3.4556e+06
3.44551e+06
3.45469e+06
3.44777e+06
3.45106e+06
3.44718e+06
3.44686e+06
3.44485e+06
3.44423e+06
3.44411e+06
3.44424e+06
3.4451e+06
3.44503e+06
3.44355e+06
3.43825e+06
3.45188e+06
3.44404e+06
3.45148e+06
3.44587e+06
3.44836e+06
3.44532e+06
3.44494e+06
3.44351e+06
3.443e+06
3.44305e+06
3.44302e+06
3.44368e+06
3.44349e+06
3.44221e+06
3.43739e+06
3.44868e+06
3.44328e+06
3.44872e+06
3.44456e+06
3.44614e+06
3.44391e+06
3.4434e+06
3.44244e+06
3.44199e+06
3.44214e+06
3.44198e+06
3.44251e+06
3.44224e+06
3.4411e+06
3.43668e+06
3.44611e+06
3.44303e+06
3.44628e+06
3.44356e+06
3.44421e+06
3.4427e+06
3.44204e+06
3.44142e+06
3.44098e+06
3.44117e+06
3.44094e+06
3.44141e+06
3.44114e+06
3.44007e+06
3.43606e+06
3.44346e+06
3.44269e+06
3.44402e+06
3.44264e+06
3.44247e+06
3.44156e+06
3.44076e+06
3.44035e+06
3.43991e+06
3.44009e+06
3.43985e+06
3.44031e+06
3.44008e+06
3.43904e+06
3.43549e+06
3.44105e+06
3.44212e+06
3.44193e+06
3.44164e+06
3.44086e+06
3.4404e+06
3.43953e+06
3.43925e+06
3.43881e+06
3.43896e+06
3.43874e+06
3.4392e+06
3.43904e+06
3.43801e+06
3.43499e+06
3.4389e+06
3.44121e+06
3.44002e+06
3.44049e+06
3.43937e+06
3.43922e+06
3.43834e+06
3.43815e+06
3.43772e+06
3.43784e+06
3.43766e+06
3.43812e+06
3.43801e+06
3.43698e+06
3.4346e+06
3.43745e+06
3.44016e+06
3.43832e+06
3.43925e+06
3.43799e+06
3.43805e+06
3.43723e+06
3.43707e+06
3.43668e+06
3.43677e+06
3.43662e+06
3.43709e+06
3.43701e+06
3.436e+06
3.43437e+06
3.43575e+06
3.43878e+06
3.43676e+06
3.43794e+06
3.43673e+06
3.4369e+06
3.43619e+06
3.43604e+06
3.43572e+06
3.43578e+06
3.43567e+06
3.43609e+06
3.43606e+06
3.43506e+06
3.43434e+06
3.43428e+06
3.4374e+06
3.43542e+06
3.43668e+06
3.43562e+06
3.43582e+06
3.43524e+06
3.43509e+06
3.43482e+06
3.43485e+06
3.43478e+06
3.43518e+06
3.43517e+06
3.43424e+06
3.43453e+06
3.43311e+06
3.43609e+06
3.43432e+06
3.43552e+06
3.43466e+06
3.43484e+06
3.43439e+06
3.43422e+06
3.434e+06
3.434e+06
3.43395e+06
3.43432e+06
3.43435e+06
3.43356e+06
3.43498e+06
3.43232e+06
3.43499e+06
3.43349e+06
3.43453e+06
3.43389e+06
3.43399e+06
3.43366e+06
3.43344e+06
3.43326e+06
3.43322e+06
3.43319e+06
3.43355e+06
3.43362e+06
3.43308e+06
3.43566e+06
3.43191e+06
3.4341e+06
3.43298e+06
3.43375e+06
3.43333e+06
3.43329e+06
3.43306e+06
3.43277e+06
3.43261e+06
3.43253e+06
3.43251e+06
3.43288e+06
3.43301e+06
3.43289e+06
3.43656e+06
3.4319e+06
3.43349e+06
3.43279e+06
3.43321e+06
3.43299e+06
3.43279e+06
3.43262e+06
3.43224e+06
3.43207e+06
3.43197e+06
3.43193e+06
3.43236e+06
3.43257e+06
3.43306e+06
3.43763e+06
3.43227e+06
3.43318e+06
3.4329e+06
3.43294e+06
3.43289e+06
3.4325e+06
3.43238e+06
3.43188e+06
3.4317e+06
3.43158e+06
3.4315e+06
3.43205e+06
3.43239e+06
3.43364e+06
3.43884e+06
3.43297e+06
3.43317e+06
3.43329e+06
3.43298e+06
3.43306e+06
3.43248e+06
3.43239e+06
3.43175e+06
3.43157e+06
3.4314e+06
3.4313e+06
3.43199e+06
3.43255e+06
3.43464e+06
3.44016e+06
3.43392e+06
3.43357e+06
3.43397e+06
3.43336e+06
3.43352e+06
3.43278e+06
3.43271e+06
3.43189e+06
3.43177e+06
3.43149e+06
3.43144e+06
3.43224e+06
3.43314e+06
3.43509e+06
3.43431e+06
3.43487e+06
3.43409e+06
3.43428e+06
3.43343e+06
3.43339e+06
3.43239e+06
3.4324e+06
3.43193e+06
3.43205e+06
3.4329e+06
3.43423e+06
3.43642e+06
3.43543e+06
3.43601e+06
3.43518e+06
3.43534e+06
3.43448e+06
3.43446e+06
3.43331e+06
3.43355e+06
3.43278e+06
3.43322e+06
3.43405e+06
3.43582e+06
3.43723e+06
3.43671e+06
3.43734e+06
3.43661e+06
3.43671e+06
3.43593e+06
3.43592e+06
3.43471e+06
3.43526e+06
3.43412e+06
3.43504e+06
3.43575e+06
3.43784e+06
3.4389e+06
3.43846e+06
3.43888e+06
3.43834e+06
3.43833e+06
3.43776e+06
3.43773e+06
3.43661e+06
3.43751e+06
3.43592e+06
3.43739e+06
3.43788e+06
3.44001e+06
3.44062e+06
3.44035e+06
3.44053e+06
3.44025e+06
3.4401e+06
3.43984e+06
3.43974e+06
3.43895e+06
3.44013e+06
3.43828e+06
3.44023e+06
3.44037e+06
3.4422e+06
3.44235e+06
3.44227e+06
3.44217e+06
3.44215e+06
3.44185e+06
3.44199e+06
3.44172e+06
3.44155e+06
3.44276e+06
3.44093e+06
3.44294e+06
3.44267e+06
3.44364e+06
3.44364e+06
3.44394e+06
3.44364e+06
3.44387e+06
3.44346e+06
3.44399e+06
3.44348e+06
3.44421e+06
3.44501e+06
3.4438e+06
3.44563e+06
3.44499e+06
3.44491e+06
3.44491e+06
3.44542e+06
3.4449e+06
3.44525e+06
3.44475e+06
3.44547e+06
3.44467e+06
3.44628e+06
3.44584e+06
3.44573e+06
3.44599e+06
3.44598e+06
3.4444e+06
3.44585e+06
3.44655e+06
3.4458e+06
3.4462e+06
3.4456e+06
3.4461e+06
3.44508e+06
3.44688e+06
3.44463e+06
3.4473e+06
3.44595e+06
3.44756e+06
3.4454e+06
3.44665e+06
3.4476e+06
3.44663e+06
3.44707e+06
3.44644e+06
3.4466e+06
3.44563e+06
3.44609e+06
3.44215e+06
3.44729e+06
3.43564e+06
3.44583e+06
3.44584e+06
3.44754e+06
3.44877e+06
3.44766e+06
3.44827e+06
3.44775e+06
3.44807e+06
3.44785e+06
3.44828e+06
3.44798e+06
3.44977e+06
3.44826e+06
3.44965e+06
3.44843e+06
3.44914e+06
3.44863e+06
3.44902e+06
3.44892e+06
3.44934e+06
3.44943e+06
3.44987e+06
3.44891e+06
3.45038e+06
3.44917e+06
3.44993e+06
3.44944e+06
3.44988e+06
3.44985e+06
3.45027e+06
3.4504e+06
3.45061e+06
3.4495e+06
3.45089e+06
3.44968e+06
3.45043e+06
3.44996e+06
3.45039e+06
3.45035e+06
3.45073e+06
3.45081e+06
3.45091e+06
3.44998e+06
3.4512e+06
3.45006e+06
3.45075e+06
3.45031e+06
3.45072e+06
3.45065e+06
3.451e+06
3.45107e+06
3.45115e+06
3.45023e+06
3.45121e+06
3.4502e+06
3.45081e+06
3.45039e+06
3.45081e+06
3.45075e+06
3.45111e+06
3.45117e+06
3.45124e+06
3.44992e+06
3.45086e+06
3.45014e+06
3.45068e+06
3.45026e+06
3.45067e+06
3.45068e+06
3.45106e+06
3.45112e+06
3.45119e+06
3.44966e+06
3.45037e+06
3.44979e+06
3.4503e+06
3.44994e+06
3.45037e+06
3.45041e+06
3.45081e+06
3.45089e+06
3.45096e+06
3.44922e+06
3.44969e+06
3.44914e+06
3.44966e+06
3.44941e+06
3.44988e+06
3.44995e+06
3.45038e+06
3.45048e+06
3.45055e+06
3.44838e+06
3.44881e+06
3.44831e+06
3.44885e+06
3.44864e+06
3.44916e+06
3.44927e+06
3.44973e+06
3.44986e+06
3.44993e+06
3.44718e+06
3.4477e+06
3.44721e+06
3.44782e+06
3.44764e+06
3.44821e+06
3.44837e+06
3.44887e+06
3.44902e+06
3.4491e+06
3.44572e+06
3.44639e+06
3.44585e+06
3.44653e+06
3.44638e+06
3.447e+06
3.44722e+06
3.44776e+06
3.44795e+06
3.44803e+06
3.44396e+06
3.4448e+06
3.4442e+06
3.44496e+06
3.44486e+06
3.44552e+06
3.44582e+06
3.44639e+06
3.44662e+06
3.4467e+06
3.44195e+06
3.44292e+06
3.4423e+06
3.44311e+06
3.44308e+06
3.44374e+06
3.44412e+06
3.44472e+06
3.44499e+06
3.44507e+06
3.43966e+06
3.44067e+06
3.44015e+06
3.44093e+06
3.44101e+06
3.44164e+06
3.44211e+06
3.44272e+06
3.44305e+06
3.44313e+06
3.43725e+06
3.43811e+06
3.43774e+06
3.43841e+06
3.43864e+06
3.43921e+06
3.43978e+06
3.4404e+06
3.44077e+06
3.44086e+06
3.43466e+06
3.43515e+06
3.43506e+06
3.4355e+06
3.43593e+06
3.4364e+06
3.43709e+06
3.43772e+06
3.43812e+06
3.43822e+06
3.43186e+06
3.43177e+06
3.43208e+06
3.43219e+06
3.43283e+06
3.43317e+06
3.43398e+06
3.43462e+06
3.43506e+06
3.43516e+06
3.42874e+06
3.42788e+06
3.42874e+06
3.42843e+06
3.42928e+06
3.42948e+06
3.43041e+06
3.43108e+06
3.43154e+06
3.43165e+06
3.42523e+06
3.42352e+06
3.42492e+06
3.42419e+06
3.42526e+06
3.42533e+06
3.42634e+06
3.42703e+06
3.42751e+06
3.42765e+06
3.42114e+06
3.41861e+06
3.42053e+06
3.41942e+06
3.42068e+06
3.42065e+06
3.42171e+06
3.42245e+06
3.42293e+06
3.42309e+06
3.41631e+06
3.41312e+06
3.41546e+06
3.41407e+06
3.41546e+06
3.41538e+06
3.41645e+06
3.41725e+06
3.41775e+06
3.41793e+06
3.41032e+06
3.4069e+06
3.4096e+06
3.40809e+06
3.40952e+06
3.40946e+06
3.41052e+06
3.4114e+06
3.41189e+06
3.4121e+06
3.40364e+06
3.40019e+06
3.40289e+06
3.40142e+06
3.40282e+06
3.40282e+06
3.40385e+06
3.40481e+06
3.40531e+06
3.40554e+06
3.39593e+06
3.39282e+06
3.39527e+06
3.39402e+06
3.39533e+06
3.39543e+06
3.3964e+06
3.39741e+06
3.39791e+06
3.39817e+06
3.3873e+06
3.3849e+06
3.38689e+06
3.38596e+06
3.38705e+06
3.38723e+06
3.3881e+06
3.38912e+06
3.3896e+06
3.38991e+06
3.37782e+06
3.37643e+06
3.3778e+06
3.37724e+06