/*--------------------------------*- C++ -*----------------------------------*\
| =========                 |                                                 |
| \\      /  F ield         | OpenFOAM: The Open Source CFD Toolbox           |
|  \\    /   O peration     | Version:  v2012                                 |
|   \\  /    A nd           | Website:  www.openfoam.com                      |
|    \\/     M anipulation  |                                                 |
\*---------------------------------------------------------------------------*/
FoamFile
{
    version     2.0;
    format      ascii;
    class       volVectorField;
    location    "0.4";
    object      U;
}
// * * * * * * * * * * * * * * * * * * * * * * * * * * * * * * * * * * * * * //

dimensions      [0 1 -1 0 0 0 0];


internalField   nonuniform List<vector> 
3332
(
(-0.130642 -47.8633 0.00114012)
(0.20625 -48.3349 -0.00180014)
(-0.525189 -37.4936 0.00458289)
(-0.2315 -27.9039 0.00202292)
(2.24022 -34.2457 -0.0195469)
(3.72692 -41.1484 -0.0325252)
(4.1974 -42.7524 -0.0366344)
(3.99015 -39.3668 -0.034828)
(-0.124006 -47.8416 0.0010822)
(0.201758 -48.0512 -0.00176093)
(-0.531784 -37.0773 0.00464081)
(0.273327 -30.6682 -0.00238247)
(2.65637 -38.1373 -0.02318)
(3.43757 -43.3577 -0.0300017)
(3.54014 -43.704 -0.0308987)
(3.2149 -39.5472 -0.0280622)
(2.65818 -30.7967 -0.0232038)
(1.74127 -19.0671 -0.0152025)
(1.22008 -5.29599 -0.0106512)
(1.20705 3.36188 -0.0105858)
(0.830798 -1.69498 -0.00727487)
(0.492811 -3.25205 -0.0043128)
(0.223583 -3.39125 -0.00196127)
(-0.129282 -47.8209 0.00112824)
(0.217057 -47.7713 -0.00189445)
(-0.56057 -37.0948 0.00489234)
(0.731315 -33.8402 -0.00637955)
(2.5753 -41.1956 -0.022474)
(2.88069 -44.7362 -0.0251425)
(2.78471 -44.2064 -0.0243058)
(2.47965 -39.4623 -0.0216449)
(1.85588 -30.1999 -0.0162013)
(1.10291 -18.1723 -0.00963097)
(0.374887 -5.08336 -0.003274)
(0.727169 3.1748 -0.00635108)
(0.704165 -1.55407 -0.00615961)
(0.465668 -2.96218 -0.00407059)
(0.219815 -3.15271 -0.00192694)
(-0.135011 -47.8042 0.00117825)
(0.228351 -47.4926 -0.00199304)
(-0.561956 -37.4559 0.00490464)
(1.02976 -36.915 -0.00898459)
(2.16611 -43.3325 -0.0189039)
(2.30998 -45.5871 -0.0201619)
(2.13141 -44.4887 -0.0186039)
(1.9125 -39.2739 -0.0166944)
(1.31008 -29.5736 -0.0114373)
(0.760549 -17.3091 -0.00664239)
(-0.0072772 -4.86957 6.10541e-05)
(0.511892 2.66853 -0.00445791)
(0.621206 -1.56967 -0.00542887)
(0.431467 -2.74137 -0.0037716)
(0.213904 -2.93475 -0.00187424)
(-0.128649 -47.7916 0.00112272)
(0.213908 -47.2278 -0.00186702)
(-0.503441 -38.0505 0.00439406)
(1.13702 -39.5396 -0.00992122)
(1.67586 -44.7595 -0.014626)
(1.85073 -46.1872 -0.0161535)
(1.64651 -44.6903 -0.0143716)
(1.52461 -39.0974 -0.0133083)
(1.00481 -29.0448 -0.00877257)
(0.635825 -16.6321 -0.00555274)
(-0.0171877 -4.70925 0.000147397)
(0.505433 2.09161 -0.00440331)
(0.579527 -1.58535 -0.00506524)
(0.399402 -2.55702 -0.00349427)
(0.206378 -2.73509 -0.00180812)
(-0.105856 -47.7827 0.000923795)
(0.17039 -46.9974 -0.00148725)
(-0.392976 -38.7787 0.00343001)
(1.10387 -41.6163 -0.0096325)
(1.27312 -45.7514 -0.0111115)
(1.51415 -46.6786 -0.0132156)
(1.31336 -44.8771 -0.0114638)
(1.26694 -38.9869 -0.0110588)
(0.8513 -28.6554 -0.00743221)
(0.595936 -16.1929 -0.00520337)
(0.142589 -4.63393 -0.00124672)
(0.576983 1.61255 -0.00503391)
(0.554501 -1.53191 -0.00485199)
(0.37113 -2.38492 -0.00325073)
(0.195992 -2.54957 -0.00171752)
(-0.0714512 -47.777 0.000623528)
(0.109038 -46.8123 -0.000951843)
(-0.261058 -39.5716 0.00227873)
(1.00652 -43.2153 -0.00878334)
(0.999366 -46.5039 -0.00872243)
(1.26552 -47.1034 -0.0110454)
(1.083 -45.0667 -0.0094532)
(1.07934 -38.9403 -0.00942112)
(0.756165 -28.3793 -0.00660143)
(0.54723 -15.9403 -0.00477748)
(0.278976 -4.65063 -0.00243602)
(0.620749 1.27607 -0.00542009)
(0.525028 -1.41709 -0.00460084)
(0.343923 -2.2164 -0.00301558)
(0.18167 -2.37497 -0.00159267)
(-0.0336069 -47.7749 0.000293239)
(0.0450665 -46.6735 -0.000393562)
(-0.134308 -40.3953 0.00117253)
(0.900561 -44.4553 -0.0078589)
(0.824532 -47.1111 -0.00719662)
(1.06962 -47.4643 -0.00933565)
(0.910242 -45.2507 -0.00794531)
(0.921785 -38.9286 -0.00804587)
(0.665617 -28.1674 -0.00581088)
(0.464964 -15.7776 -0.00405898)
(0.304847 -4.73614 -0.00266126)
(0.596108 1.03584 -0.00520599)
(0.483066 -1.28364 -0.00423844)
(0.314843 -2.05352 -0.00276266)
(0.163262 -2.20981 -0.00143201)
(0.000803857 -47.7769 -7.08209e-06)
(-0.0106213 -46.5774 9.24313e-05)
(-0.0246131 -41.2338 0.000215192)
(0.808032 -45.4376 -0.00705162)
(0.707874 -47.6049 -0.00617853)
(0.904891 -47.758 -0.00789794)
(0.769334 -45.4157 -0.00671539)
(0.780085 -38.9253 -0.00680913)
(0.569079 -27.9822 -0.00496824)
(0.368271 -15.6265 -0.00321481)
(0.238519 -4.84857 -0.00208225)
(0.516587 0.826326 -0.00451095)
(0.431635 -1.17121 -0.0037905)
(0.282756 -1.90152 -0.00248242)
(0.141452 -2.05377 -0.0012415)
(0.0285497 -47.7839 -0.000249232)
(-0.0536188 -46.5235 0.000467686)
(0.0670479 -42.0765 -0.000584767)
(0.728361 -46.229 -0.00635649)
(0.621768 -47.997 -0.00542708)
(0.761926 -47.9871 -0.00665021)
(0.651811 -45.5554 -0.00568957)
(0.656042 -38.9185 -0.00572654)
(0.478866 -27.8081 -0.0041808)
(0.284549 -15.4541 -0.00248414)
(0.141988 -4.95272 -0.00123955)
(0.419269 0.608978 -0.00366013)
(0.378204 -1.09639 -0.00332347)
(0.248311 -1.76343 -0.00218123)
(0.11734 -1.90676 -0.00103082)
(0.0495084 -47.7959 -0.000432149)
(-0.0844896 -46.5129 0.000737113)
(0.143169 -42.9103 -0.00124913)
(0.653972 -46.869 -0.00570741)
(0.552918 -48.2995 -0.00482621)
(0.638502 -48.1625 -0.00557303)
(0.556995 -45.6738 -0.00486194)
(0.555178 -38.9104 -0.00484618)
(0.408569 -27.6462 -0.00356712)
(0.229201 -15.263 -0.00200102)
(0.064708 -5.03081 -0.000564767)
(0.334881 0.378408 -0.00292261)
(0.328562 -1.05307 -0.00288936)
(0.212906 -1.63844 -0.00187184)
(0.0919712 -1.76837 -0.000809175)
(0.0647345 -47.8127 -0.000565035)
(-0.105611 -46.545 0.000921471)
(0.203734 -43.7189 -0.00177773)
(0.578893 -47.3832 -0.0050523)
(0.495275 -48.5303 -0.00432313)
(0.534114 -48.2994 -0.00466198)
(0.484107 -45.7801 -0.00422572)
(0.479369 -38.9092 -0.00418444)
(0.362681 -27.5033 -0.00316651)
(0.201863 -15.0692 -0.00176225)
(0.0238637 -5.07929 -0.000208139)
(0.27436 0.148324 -0.002394)
(0.284107 -1.02521 -0.00250111)
(0.177693 -1.5233 -0.00156443)
(0.0660905 -1.63785 -0.000583117)
(0.0752835 -47.8333 -0.0006571)
(-0.118729 -46.6146 0.00103598)
(0.246039 -44.4837 -0.00214698)
(0.502705 -47.7937 -0.00438749)
(0.445348 -48.7089 -0.00388737)
(0.447908 -48.4132 -0.00390961)
(0.429663 -45.884 -0.00375049)
(0.425454 -38.9222 -0.0037138)
(0.336814 -27.3834 -0.00294065)
(0.192253 -14.8854 -0.00167849)
(0.0117797 -5.10125 -0.000102396)
(0.233051 -0.0636013 -0.00203362)
(0.243148 -0.999174 -0.00214408)
(0.143204 -1.41488 -0.00126349)
(0.0401403 -1.51439 -0.000356468)
(0.0818454 -47.858 -0.000714369)
(-0.124944 -46.7108 0.00109022)
(0.267238 -45.1873 -0.00233204)
(0.428256 -48.122 -0.0037378)
(0.400001 -48.8519 -0.00349156)
(0.377766 -48.5162 -0.00329743)
(0.388306 -45.992 -0.00338948)
(0.387488 -38.9525 -0.00338238)
(0.322788 -27.2851 -0.00281816)
(0.188905 -14.7145 -0.00164972)
(0.0117135 -5.10139 -0.000101292)
(0.200525 -0.246348 -0.00175017)
(0.203525 -0.967531 -0.001799)
(0.109408 -1.31133 -0.000968554)
(0.0141991 -1.39735 -0.000129885)
(0.0846777 -47.8866 -0.000739085)
(-0.124851 -46.8186 0.00108943)
(0.26755 -45.8171 -0.00233481)
(0.359326 -48.3888 -0.00313626)
(0.356992 -48.9712 -0.00311615)
(0.321173 -48.6165 -0.0028035)
(0.355007 -46.1069 -0.00309879)
(0.359582 -38.9991 -0.00313874)
(0.313364 -27.2032 -0.0027359)
(0.184455 -14.5517 -0.0016112)
(0.00994586 -5.08238 -8.57421e-05)
(0.167771 -0.397174 -0.00146478)
(0.163495 -0.930072 -0.00145026)
(0.0759068 -1.21193 -0.000675997)
(-0.0118781 -1.28624 9.79373e-05)
(0.0843563 -47.919 -0.000736279)
(-0.119636 -46.9237 0.00104392)
(0.251199 -46.3672 -0.00219216)
(0.299072 -48.6109 -0.00261042)
(0.315502 -49.0748 -0.002754)
(0.275748 -48.7186 -0.00240702)
(0.326412 -46.2288 -0.00284914)
(0.337559 -39.059 -0.00294646)
(0.304468 -27.1319 -0.00265822)
(0.176405 -14.3893 -0.00154106)
(0.000624349 -5.04431 -5.29808e-06)
(0.130832 -0.518845 -0.00114297)
(0.122316 -0.889371 -0.00109108)
(0.0421737 -1.11689 -0.000381127)
(-0.0383363 -1.18081 0.000329161)
(0.0814419 -47.9558 -0.000710836)
(-0.110346 -47.0164 0.000962846)
(0.225445 -46.8395 -0.00196744)
(0.249477 -48.801 -0.00217758)
(0.276273 -49.167 -0.00241159)
(0.239715 -48.8241 -0.0020925)
(0.301055 -46.3566 -0.00262776)
(0.319151 -39.1286 -0.00278575)
(0.294915 -27.0662 -0.00257471)
(0.165312 -14.2206 -0.00144415)
(-0.0159985 -4.98616 0.000138423)
(0.0901013 -0.615133 -0.000788557)
(0.0800115 -0.847907 -0.000721633)
(0.00780643 -1.02656 -8.04328e-05)
(-0.0654479 -1.08096 0.000566158)
(0.076176 -47.9967 -0.000664866)
(-0.0977554 -47.094 0.00085296)
(0.197615 -47.2417 -0.0017246)
(0.210913 -48.9667 -0.00184101)
(0.240604 -49.2508 -0.00210026)
(0.211668 -48.933 -0.00184769)
(0.278557 -46.4884 -0.00243135)
(0.303359 -39.2047 -0.00264794)
(0.285112 -27.0027 -0.00248911)
(0.152628 -14.0416 -0.00133324)
(-0.0372706 -4.90892 0.000323468)
(0.0471333 -0.687987 -0.000413833)
(0.0368089 -0.806463 -0.000344049)
(-0.0273449 -0.941066 0.000227383)
(-0.0934564 -0.986557 0.000811037)
(0.0687514 -48.0417 -0.000600068)
(-0.0818252 -47.1614 0.000713934)
(0.173323 -47.5851 -0.00151262)
(0.182987 -49.1125 -0.00159728)
(0.209811 -49.3277 -0.00183149)
(0.190532 -49.0442 -0.00166319)
(0.259043 -46.6226 -0.00226101)
(0.28981 -39.285 -0.00252971)
(0.275707 -26.9395 -0.00240708)
(0.138872 -13.8499 -0.00121295)
(-0.0589705 -4.8108 0.00051297)
(0.00520083 -0.7395 -4.78308e-05)
(-0.0073748 -0.764681 4.24836e-05)
(-0.0633346 -0.860436 0.000542678)
(-0.122545 -0.897403 0.00106537)
(0.0589251 -48.0904 -0.000514309)
(-0.0623465 -47.2284 0.000543954)
(0.155353 -47.8812 -0.00135583)
(0.164442 -49.241 -0.00143543)
(0.184369 -49.3986 -0.00160943)
(0.175091 -49.1565 -0.00152841)
(0.242532 -46.7577 -0.00211689)
(0.278242 -39.3676 -0.00242875)
(0.267137 -26.8755 -0.00233237)
(0.125892 -13.6442 -0.00109965)
(-0.0827109 -4.69037 0.00072048)
(-0.0370463 -0.772238 0.000320093)
(-0.0518043 -0.72095 0.000431694)
(-0.10009 -0.784433 0.000864686)
(-0.152763 -0.813207 0.00132957)
(0.0469372 -48.1422 -0.000409684)
(-0.0395453 -47.3073 0.000344985)
(0.144159 -48.1403 -0.00125817)
(0.153605 -49.3536 -0.00134086)
(0.164046 -49.4641 -0.00143205)
(0.164017 -49.2687 -0.00143174)
(0.228767 -46.8926 -0.00199676)
(0.26804 -39.4512 -0.00233968)
(0.259378 -26.8104 -0.00226469)
(0.113408 -13.4227 -0.000990985)
(-0.108721 -4.5479 0.000947599)
(-0.0805799 -0.786666 0.000699186)
(-0.0964222 -0.674806 0.000823002)
(-0.137435 -0.712571 0.0011918)
(-0.184002 -0.733603 0.00160267)
(0.0336544 -48.197 -0.000293758)
(-0.0148522 -47.4084 0.000129502)
(0.138466 -48.3706 -0.00120852)
(0.148259 -49.4515 -0.00129422)
(0.147897 -49.5243 -0.00129112)
(0.155734 -49.3795 -0.00135944)
(0.217123 -47.0262 -0.00189513)
(0.258335 -39.5346 -0.00225493)
(0.252251 -26.7435 -0.00220246)
(0.100983 -13.1832 -0.000882833)
(-0.137235 -4.38244 0.00119672)
(-0.125962 -0.78202 0.00109415)
(-0.141069 -0.627241 0.00121488)
(-0.17508 -0.644534 0.00152143)
(-0.215938 -0.658238 0.00188182)
(0.0203878 -48.2544 -0.000177975)
(0.00932173 -47.5379 -8.14537e-05)
(0.136205 -48.5787 -0.00118881)
(0.145894 -49.5353 -0.00127359)
(0.134657 -49.5793 -0.00117556)
(0.148592 -49.4879 -0.00129709)
(0.20672 -47.1575 -0.00180434)
(0.248059 -39.6171 -0.0021652)
(0.245147 -26.6748 -0.00214041)
(0.0883447 -12.9241 -0.000772663)
(-0.171086 -4.19167 0.00149252)
(-0.17283 -0.761277 0.00150241)
(-0.185192 -0.579066 0.00160236)
(-0.212587 -0.580055 0.00184972)
(-0.247991 -0.586837 0.00216195)
(0.00877844 -48.3139 -7.66556e-05)
(0.0300933 -47.6953 -0.000262718)
(0.135393 -48.7693 -0.00118174)
(0.144014 -49.6054 -0.0012572)
(0.12293 -49.6288 -0.00107323)
(0.140905 -49.5927 -0.00122999)
(0.196471 -47.2855 -0.00171489)
(0.235866 -39.6977 -0.00205876)
(0.237453 -26.6041 -0.0020732)
(0.0746054 -12.642 -0.00065277)
(-0.212216 -3.97208 0.00185107)
(-0.220287 -0.729964 0.00191655)
(-0.228092 -0.531223 0.0019791)
(-0.249325 -0.518887 0.00217117)
(-0.279365 -0.519236 0.00243614)
(0.000284536 -48.3748 -2.52321e-06)
(0.0450502 -47.8751 -0.000393243)
(0.13439 -48.946 -0.001173)
(0.140439 -49.6618 -0.00122601)
(0.111364 -49.6726 -0.000972286)
(0.131193 -49.6927 -0.00114522)
(0.185182 -47.409 -0.00161638)
(0.220365 -39.776 -0.00192346)
(0.228898 -26.5311 -0.0019985)
(0.0574955 -12.3324 -0.000503517)
(-0.260518 -3.72285 0.0022721)
(-0.266592 -0.695024 0.00232157)
(-0.268906 -0.48465 0.00233742)
(-0.284453 -0.460879 0.00247843)
(-0.309117 -0.455388 0.00269612)
(-0.00425084 -48.4365 3.7064e-05)
(0.0528587 -48.067 -0.000461387)
(0.132218 -49.1107 -0.00115405)
(0.13367 -49.7039 -0.00116695)
(0.0988233 -49.71 -0.000862843)
(0.118457 -49.7863 -0.00103406)
(0.171652 -47.5266 -0.00149832)
(0.200575 -39.8513 -0.00175072)
(0.219297 -26.4552 -0.00191465)
(0.0345528 -11.9917 -0.000303151)
(-0.31269 -3.44675 0.00272899)
(-0.309929 -0.66217 0.00270142)
(-0.306685 -0.440048 0.00266896)
(-0.316991 -0.405941 0.00276298)
(-0.336272 -0.395299 0.00293341)
(-0.00472111 -48.4988 4.11654e-05)
(0.0535376 -48.2599 -0.000467316)
(0.12827 -49.2644 -0.00111961)
(0.122837 -49.7306 -0.00107241)
(0.0843399 -49.7401 -0.00073644)
(0.102292 -49.8717 -0.000892987)
(0.154756 -47.6369 -0.00135087)
(0.176243 -39.9231 -0.00153835)
(0.208451 -26.3757 -0.00181996)
(0.00345791 -11.6169 -3.16299e-05)
(-0.363266 -3.15243 0.00317374)
(-0.348653 -0.634106 0.00304046)
(-0.34046 -0.397984 0.00296519)
(-0.00179329 -48.5614 1.561e-05)
(0.048527 -48.4431 -0.000423595)
(0.122478 -49.4065 -0.00106906)
(0.10809 -49.7405 -0.000943724)
(0.067463 -49.7618 -0.000589146)
(0.0831455 -49.947 -0.000725894)
(0.133741 -47.7386 -0.00116745)
(0.148325 -39.9905 -0.0012947)
(0.195856 -26.2919 -0.00171002)
(-0.0364639 -11.2063 0.000316793)
(-0.406571 -2.85344 0.0035571)
(-0.381335 -0.609526 0.00332587)
(-0.36931 -0.358424 0.00321804)
(0.00349199 -48.6246 -3.05181e-05)
(0.0398268 -48.6086 -0.00034768)
(0.114807 -49.5353 -0.00100211)
(0.0899442 -49.7323 -0.000785362)
(0.0481482 -49.774 -0.00042057)
(0.0620793 -50.0104 -0.000542048)
(0.108426 -47.8308 -0.000946498)
(0.119196 -40.0527 -0.00104049)
(0.180611 -26.2036 -0.00157693)
(-0.0820751 -10.7603 0.000714309)
(-0.437514 -2.56745 0.00383534)
(-0.406161 -0.585766 0.00354221)
(-0.392297 -0.320936 0.00341936)
(0.00996181 -48.6887 -8.69854e-05)
(0.0296308 -48.7514 -0.000258713)
(0.105725 -49.648 -0.000922848)
(0.0695279 -49.7052 -0.000607188)
(0.0273157 -49.7762 -0.000238745)
(0.0408702 -50.0608 -0.000356955)
(0.0796264 -47.9133 -0.000695122)
(0.0926328 -40.109 -0.000808678)
(0.161527 -26.112 -0.00141038)
(-0.125376 -10.2839 0.0010907)
(-0.453681 -2.30679 0.0039838)
(-0.421908 -0.557314 0.00367916)
(-0.408756 -0.283578 0.00356342)
(0.01633 -48.7538 -0.000142567)
(0.0193201 -48.8697 -0.000168742)
(0.0957084 -49.7422 -0.000835428)
(0.0479298 -49.6597 -0.000418697)
(0.0065188 -49.7688 -5.72268e-05)
(0.0213929 -50.0984 -0.000186974)
(0.0492212 -47.9872 -0.000429728)
(0.0734091 -40.1586 -0.000640931)
(0.13751 -26.019 -0.00120075)
(-0.152843 -9.79242 0.00132783)
(-0.451755 -2.08093 0.00396945)
(-0.427091 -0.52196 0.00372349)
(-0.418081 -0.244998 0.00364491)
(0.0218692 -48.8195 -0.000190911)
(0.0100222 -48.9641 -8.76092e-05)
(0.0857223 -49.816 -0.000748278)
(0.0263935 -49.598 -0.000230741)
(-0.0118169 -49.7535 0.000102813)
(0.00544715 -50.1251 -4.78075e-05)
(0.0206317 -48.0555 -0.000180187)
(0.0667489 -40.2018 -0.000582839)
(0.106913 -25.9296 -0.000933669)
(-0.152873 -9.30675 0.00132502)
(-0.433069 -1.87187 0.00380232)
(-0.421974 -0.471762 0.00367754)
(-0.419708 -0.201253 0.00365904)
(0.0260691 -48.8848 -0.000227568)
(0.00190508 -49.0373 -1.67772e-05)
(0.0764417 -49.8691 -0.000667285)
(0.00567287 -49.5238 -4.99007e-05)
(-0.0254333 -49.7335 0.000221665)
(-0.00636772 -50.1449 5.53158e-05)
(-0.00154399 -48.1228 1.33831e-05)
(0.0757221 -40.2411 -0.000661187)
(0.0728391 -25.8533 -0.000636191)
(-0.108467 -8.86201 0.000934348)
(-0.390628 -1.68062 0.00342348)
(-0.405541 -0.409847 0.00353193)
(-0.412286 -0.153461 0.00359397)
(0.0284908 -48.9476 -0.000248705)
(-0.00478485 -49.0928 4.16025e-05)
(0.0685844 -49.9023 -0.000598717)
(-0.0135655 -49.4421 0.000118007)
(-0.0324539 -49.7122 0.00028295)
(-0.0148183 -50.1639 0.000129089)
(-0.0127957 -48.1938 0.000111613)
(0.0981656 -40.2807 -0.000857086)
(0.0378849 -25.7995 -0.000331036)
(-0.0187161 -8.48241 0.000147043)
(-0.330557 -1.43491 0.00289186)
(-0.376597 -0.31928 0.00327751)
(-0.390856 -0.0969527 0.00340675)
(0.0287458 -49.0051 -0.000250933)
(-0.00973418 -49.135 8.47964e-05)
(0.0618245 -49.9171 -0.000539728)
(-0.0310603 -49.3583 0.000270701)
(-0.0332061 -49.6936 0.000289526)
(-0.0221718 -50.1893 0.000193303)
(-0.0101834 -48.2743 8.88018e-05)
(0.125254 -40.3321 -0.00109341)
(0.00924789 -25.7873 -8.09289e-05)
(0.139403 -8.24114 -0.0012408)
(-0.231785 -1.18579 0.00202905)
(-0.335882 -0.221413 0.00291961)
(-0.349481 -0.0443249 0.00304557)
(0.0265103 -49.055 -0.000231424)
(-0.0125466 -49.1682 0.000109345)
(0.0546227 -49.9149 -0.000476886)
(-0.0471388 -49.2762 0.000411035)
(-0.032142 -49.6808 0.000280253)
(-0.0327144 -50.2263 0.000285351)
(0.00211827 -48.3663 -1.86126e-05)
(0.134548 -40.4103 -0.00117427)
(-0.0140877 -25.8247 0.000122706)
(0.28476 -8.15597 -0.00251035)
(-0.123475 -0.717476 0.00109317)
(-0.254231 -0.0784213 0.00221135)
(-0.262278 0.00299915 0.00228543)
(0.021471 -49.0938 -0.000187445)
(-0.0131653 -49.1942 0.00011475)
(0.0450194 -49.8937 -0.000393088)
(-0.06271 -49.1934 0.000546939)
(-0.0360177 -49.6691 0.000314096)
(-0.0491108 -50.2665 0.000428458)
(0.0101589 -48.4573 -8.87676e-05)
(0.104233 -40.5123 -0.000909229)
(0.00534877 -25.8726 -4.69482e-05)
(0.415668 -8.36961 -0.00359707)
(-0.0507631 -0.422728 0.000448445)
(-0.164866 0.00297599 0.00144049)
(-0.127887 0.0251496 0.00111593)
(0.0143389 -49.1176 -0.000125201)
(-0.010571 -49.2141 9.21169e-05)
(0.0349494 -49.8506 -0.000305223)
(-0.0747741 -49.1057 0.000652235)
(-0.0426593 -49.6519 0.000372067)
(-0.0635756 -50.2943 0.000554646)
(0.000736971 -48.5287 -6.48641e-06)
(0.0386409 -40.5872 -0.000337374)
(0.050127 -25.7552 -0.000437789)
(-0.119828 -8.65815 0.00112266)
(0.00658339 -49.1293 -5.75153e-05)
(-0.00428104 -49.2353 3.72307e-05)
(0.0268164 -49.791 -0.000234265)
(-0.0799026 -49.0203 0.000697008)
(-0.0418382 -49.6375 0.000364918)
(-0.0600823 -50.3205 0.000524175)
(0.00895263 -48.6048 -7.81246e-05)
(0.0579169 -40.663 -0.000505456)
(0.0980112 -25.6753 -0.000855708)
(-0.0170221 -8.55979 0.000145773)
(-0.000737504 -49.1334 6.3773e-06)
(0.00381593 -49.2614 -3.34288e-05)
(0.0186954 -49.7182 -0.000163413)
(-0.0823769 -48.9425 0.000718617)
(-0.0398594 -49.6311 0.000347659)
(-0.0557117 -50.3547 0.000486032)
(0.0157965 -48.6947 -0.00013787)
(0.0669319 -40.7516 -0.000584185)
(0.111458 -25.6398 -0.000973103)
(-0.00655082 -8.52303 5.56578e-05)
(-0.00679069 -49.1326 5.92063e-05)
(0.011889 -49.2912 -0.000103883)
(0.0100819 -49.633 -8.82606e-05)
(-0.0825776 -48.8727 0.000720385)
(-0.0362746 -49.6306 0.000316381)
(-0.0485686 -50.3933 0.000423698)
(0.0243563 -48.7888 -0.000212596)
(0.0791342 -40.8446 -0.000690687)
(0.125682 -25.6024 -0.00109725)
(0.00241523 -8.43384 -2.31278e-05)
(-0.0109015 -49.1303 9.50826e-05)
(0.0183504 -49.3223 -0.00016028)
(0.000632059 -49.5384 -5.80551e-06)
(-0.0818367 -48.8137 0.000713934)
(-0.0323679 -49.6379 0.000282291)
(-0.0413935 -50.4379 0.000361082)
(0.0320412 -48.8888 -0.0002797)
(0.0890382 -40.9426 -0.000777147)
(0.134704 -25.5647 -0.00117606)
(0.00479733 -8.34797 -4.44062e-05)
(-0.0127072 -49.1281 0.000110841)
(0.0218628 -49.349 -0.000190945)
(-0.00960558 -49.4359 8.3531e-05)
(-0.0806194 -48.7657 0.000703324)
(-0.0280064 -49.6522 0.000244237)
(-0.0336293 -50.4871 0.000293323)
(0.0399831 -48.9922 -0.000349005)
(0.099032 -41.0433 -0.000864311)
(0.144023 -25.5229 -0.00125742)
(0.00755129 -8.24941 -6.92005e-05)
(-0.0121898 -49.1275 0.000106324)
(0.0221884 -49.3663 -0.000193804)
(-0.019784 -49.3288 0.000172357)
(-0.0790611 -48.73 0.000689738)
(-0.0229498 -49.674 0.000200117)
(-0.0254265 -50.5411 0.000221733)
(0.0481544 -49.0999 -0.000420289)
(0.10927 -41.1472 -0.000953596)
(0.153105 -25.4779 -0.00133671)
(0.010024 -8.1452 -9.09626e-05)
(-0.00972469 -49.129 8.48086e-05)
(0.0196031 -49.3697 -0.000171259)
(-0.0293471 -49.2199 0.000255818)
(-0.0766885 -48.7073 0.000669045)
(-0.0167521 -49.7034 0.000146032)
(-0.0166843 -50.5995 0.000145434)
(0.0569312 -49.2114 -0.000496874)
(0.120162 -41.2538 -0.00104867)
(0.162721 -25.4289 -0.00142065)
(0.0127665 -8.03221 -0.000115183)
(-0.00604367 -49.1334 5.2681e-05)
(0.0153467 -49.3573 -0.000134129)
(-0.0373075 -49.1125 0.000325295)
(-0.0728755 -48.6983 0.000635783)
(-0.009026 -49.7411 7.86034e-05)
(-0.00683941 -50.6626 5.95097e-05)
(0.0667886 -49.327 -0.000582895)
(0.132018 -41.3633 -0.00115215)
(0.17299 -25.3759 -0.00151029)
(0.0156951 -7.911 -0.000141061)
(-0.0021271 -49.141 1.84973e-05)
(0.0111249 -49.33 -9.73006e-05)
(-0.0428072 -49.0096 0.000373301)
(-0.0672404 -48.7037 0.00058662)
(0.000260655 -49.787 -2.44502e-06)
(0.00438431 -50.7302 -3.84495e-05)
(0.0778765 -49.4468 -0.000679656)
(0.145054 -41.4756 -0.00126593)
(0.184156 -25.3183 -0.00160775)
(0.0188476 -7.78048 -0.00016903)
(0.000976356 -49.1525 -8.59023e-06)
(0.00876688 -49.2922 -7.67329e-05)
(-0.045247 -48.9141 0.000394599)
(-0.0588227 -48.7244 0.000513172)
(0.0115826 -49.8411 -0.000101257)
(0.017472 -50.8026 -0.000152678)
(0.0904326 -49.571 -0.000789237)
(0.159477 -41.5906 -0.00139186)
(0.196401 -25.2558 -0.00171464)
(0.022237 -7.63997 -0.000198956)
(0.00239666 -49.1682 -2.09879e-05)
(0.00982161 -49.2509 -8.5944e-05)
(-0.0443453 -48.8284 0.000386734)
(-0.0469435 -48.7606 0.000409514)
(0.0247083 -49.9028 -0.000215813)
(0.0325178 -50.8804 -0.000283996)
(0.104717 -49.6997 -0.000913915)
(0.175441 -41.7083 -0.00153123)
(0.209941 -25.1875 -0.00183282)
(0.025831 -7.48843 -0.000230583)
(0.0015141 -49.1889 -1.32873e-05)
(0.0154336 -49.2154 -0.000134923)
(-0.0399451 -48.7546 0.000348333)
(-0.031152 -48.8129 0.000271708)
(0.0397295 -49.9721 -0.000346915)
(0.0498221 -50.9637 -0.000435029)
(0.120865 -49.8332 -0.00105487)
(0.193028 -41.8286 -0.00168475)
(0.225003 -25.1129 -0.00196432)
(0.0295587 -7.32483 -0.000263492)
(-0.00179944 -49.2154 1.56299e-05)
(0.0258659 -49.1956 -0.000225964)
(-0.0322002 -48.6948 0.000280741)
(-0.0116198 -48.8815 0.00010125)
(0.0563762 -50.0486 -0.000492204)
(0.069348 -51.0531 -0.00060545)
(0.138994 -49.9717 -0.00121312)
(0.212204 -41.9515 -0.00185215)
(0.241761 -25.0314 -0.00211063)
(0.0333684 -7.14806 -0.00029714)
(-0.00713854 -49.2488 6.22253e-05)
(0.0404702 -49.2007 -0.000353411)
(-0.0217214 -48.6511 0.000189288)
(0.0114679 -48.9664 -0.00010024)
(0.0746027 -50.1322 -0.000651286)
(0.0907025 -51.1491 -0.000791828)
(0.15917 -50.1157 -0.00138922)
(0.232818 -42.0768 -0.00203211)
(0.260362 -24.942 -0.00227303)
(0.0372163 -6.95672 -0.000331352)
(-0.0135163 -49.2901 0.000117885)
(0.0575397 -49.2375 -0.00050237)
(-0.00941488 -48.6254 8.18862e-05)
(0.0372311 -49.0675 -0.000325082)
(0.094084 -50.2232 -0.000821323)
(0.113565 -51.2522 -0.000991361)
(0.181548 -50.2655 -0.00158455)
(0.25465 -42.2047 -0.00222265)
(0.280925 -24.8443 -0.00245255)
(0.0410829 -6.7495 -0.000365707)
(-0.0194577 -49.3404 0.000169737)
(0.0744904 -49.3086 -0.000650294)
(0.00377549 -48.6202 -3.32282e-05)
(0.0645039 -49.185 -0.000563098)
(0.114627 -50.3218 -0.00100063)
(0.137195 -51.3632 -0.00119759)
(0.206013 -50.4221 -0.00179809)
(0.277421 -42.3355 -0.00242136)
(0.303533 -24.7377 -0.00264992)
(0.044892 -6.52528 -0.000399427)
(-0.023188 -49.4009 0.000202291)
(0.0881818 -49.4114 -0.000769779)
(0.0169781 -48.6385 -0.000148447)
(0.0916808 -49.3189 -0.000800275)
(0.136026 -50.4288 -0.00118741)
(0.160822 -51.483 -0.0014038)
(0.232535 -50.5862 -0.00202957)
(0.300815 -42.4694 -0.00262554)
(0.328197 -24.6218 -0.00286524)
(0.0485627 -6.28277 -0.000432104)
(-0.0229973 -49.4724 0.000200622)
(0.0955559 -49.5383 -0.000834142)
(0.0298493 -48.6836 -0.000260769)
(0.117219 -49.4693 -0.00102315)
(0.158192 -50.5449 -0.00138089)
(0.183854 -51.612 -0.00160482)
(0.261062 -50.7587 -0.00227856)
(0.324645 -42.6067 -0.00283354)
(0.354946 -24.4962 -0.00309875)
(0.0521609 -6.0206 -0.000464166)
(-0.0174824 -49.5556 0.000152484)
(0.0941236 -49.678 -0.000821661)
(0.0424865 -48.7593 -0.000371043)
(0.139882 -49.6361 -0.00122092)
(0.181286 -50.6715 -0.00158246)
(0.205525 -51.7514 -0.00179395)
(0.291347 -50.9408 -0.00254288)
(0.348799 -42.748 -0.00304436)
(0.383708 -24.3608 -0.00334983)
(0.0557159 -5.73763 -0.000495858)
(-0.00612168 -49.6511 5.33257e-05)
(0.0829948 -49.8173 -0.000724566)
(0.0555149 -48.8697 -0.00048472)
(0.158888 -49.8191 -0.00138676)
(0.205433 -50.8098 -0.00179322)
(0.22576 -51.9022 -0.00197055)
(0.32349 -51.1337 -0.00282343)
(0.373338 -42.8942 -0.00325854)
(0.414511 -24.2153 -0.00361873)
(0.0593582 -5.43254 -0.000528353)
(0.0106522 -49.7593 -9.30786e-05)
(0.0628749 -49.9442 -0.000549011)
(0.0697166 -49.0182 -0.000608627)
(0.173901 -50.018 -0.00151776)
(0.230684 -50.961 -0.0020136)
(0.244523 -52.0654 -0.00213431)
(0.357333 -51.3385 -0.0031188)
(0.398348 -43.0458 -0.00347683)
(0.447376 -24.0597 -0.00390562)
(0.0632032 -5.10398 -0.000562674)
(0.0314004 -49.8804 -0.000274171)
(0.0362879 -50.0497 -0.000317019)
(0.086096 -49.2075 -0.000751528)
(0.18534 -50.2322 -0.00161757)
(0.257114 -51.1263 -0.00224426)
(0.262085 -52.242 -0.00228758)
(0.392744 -51.5562 -0.00342785)
(0.423978 -43.2039 -0.00370053)
(0.482406 -23.8938 -0.00421141)
(0.0674029 -4.75039 -0.000600139)
(0.0539153 -50.0145 -0.000470683)
(0.00687412 -50.1305 -6.0353e-05)
(0.105111 -49.4381 -0.000917419)
(0.193957 -50.4608 -0.00169276)
(0.28441 -51.3062 -0.00248248)
(0.2787 -52.4331 -0.00243259)
(0.429423 -51.7881 -0.00374796)
(0.450234 -43.3695 -0.0039297)
(0.519758 -23.7179 -0.00453746)
(0.0720553 -4.37007 -0.000641609)
(0.0754654 -50.1615 -0.000658778)
(-0.0208589 -50.19 0.00018165)
(0.127063 -49.7086 -0.00110894)
(0.200883 -50.7027 -0.00175319)
(0.312034 -51.501 -0.00272356)
(0.294543 -52.6397 -0.00257087)
(0.466831 -52.0349 -0.00407443)
(0.476829 -43.5437 -0.00416182)
(0.559652 -23.532 -0.0048857)
(0.0772641 -3.96113 -0.000687963)
(0.0932276 -50.3207 -0.000813816)
(-0.0426649 -50.2373 0.000371937)
(0.151318 -50.0149 -0.00132057)
(0.206586 -50.956 -0.00180297)
(0.338396 -51.7102 -0.00295363)
(0.309203 -52.8624 -0.00269882)
(0.503744 -52.2976 -0.00439657)
(0.502841 -43.7281 -0.00438884)
(0.602277 -23.3371 -0.00525778)
(0.0830926 -3.52148 -0.000739824)
(0.104593 -50.4902 -0.000913023)
(-0.0551718 -50.286 0.00048108)
(0.176408 -50.3503 -0.0015395)
(0.21123 -51.2182 -0.00184351)
(0.361271 -51.9321 -0.00315327)
(0.321296 -53.1011 -0.00280437)
(0.538002 -52.5767 -0.00469553)
(0.526385 -43.925 -0.0045943)
(0.647739 -23.1348 -0.0056546)
(0.0897039 -3.04896 -0.000798587)
(0.107509 -50.6666 -0.000938495)
(-0.0568732 -50.3516 0.000495934)
(0.199197 -50.7046 -0.00173836)
(0.213366 -51.4846 -0.00186218)
(0.376574 -52.1634 -0.00328683)
(0.327657 -53.3547 -0.00285988)
(0.565641 -52.8726 -0.00493673)
(0.543922 -44.1376 -0.00474731)
(0.695799 -22.9291 -0.0060741)
(0.0972967 -2.54091 -0.000866004)
(0.100593 -50.8426 -0.000878159)
(-0.0487206 -50.4466 0.000424801)
(0.214768 -51.0636 -0.00187424)
(0.209414 -51.7477 -0.00182772)
(0.377964 -52.398 -0.00329897)
(0.322599 -53.6201 -0.00281573)
(0.579821 -53.1846 -0.00506046)
(0.549484 -44.371 -0.00479576)
(0.745723 -22.7272 -0.00650982)
(0.107195 -1.99719 -0.000953604)
(0.0832159 -51.006 -0.000726532)
(-0.0349456 -50.5754 0.000304611)
(0.215696 -51.4075 -0.00188235)
(0.192449 -51.9952 -0.00167969)
(0.355593 -52.6258 -0.00310371)
(0.296464 -53.8905 -0.00258763)
(0.56898 -53.5109 -0.00496579)
(0.533078 -44.6329 -0.00465241)
(0.794865 -22.5416 -0.00693868)
(0.119957 -1.40944 -0.0010659)
(0.0552712 -51.1354 -0.000482677)
(-0.0234247 -50.7272 0.0002041)
(0.191733 -51.7085 -0.00167324)
(0.151261 -52.2073 -0.00132024)
(0.294896 -52.8299 -0.00257398)
(0.233943 -54.1531 -0.00204195)
(0.514141 -53.848 -0.00448711)
(0.47908 -44.9362 -0.00418084)
(0.838769 -22.3974 -0.00732171)
(0.143167 -0.792548 -0.00127161)
(0.0167015 -51.1968 -0.000146099)
(-0.0262404 -50.8697 0.000228717)
(0.129393 -51.9267 -0.00112921)
(0.0685013 -52.3518 -0.000597963)
(0.17451 -52.9822 -0.00152329)
(0.110111 -54.3842 -0.00096118)
(0.383716 -54.1868 -0.00334869)
(0.361429 -45.2986 -0.00315354)
(0.863782 -22.3322 -0.00753967)
(0.177071 -0.114454 -0.00157003)
(-0.0330195 -51.1356 0.000287795)
(-0.0593956 -50.9415 0.000518114)
(0.0119028 -52.0052 -0.00010386)
(-0.0802061 -52.3786 0.000699892)
(-0.0349405 -53.036 0.000304706)
(-0.111298 -54.5409 0.000971185)
(0.12902 -54.5072 -0.00112556)
(0.139528 -45.7458 -0.00121611)
(0.846976 -22.418 -0.00739227)
(0.247127 0.558477 -0.00218335)
(-0.0951675 -50.8713 0.000830135)
(-0.142009 -50.8458 0.00123914)
(-0.180363 -51.8631 0.0015741)
(-0.326926 -52.212 0.00285316)
(-0.37068 -52.9161 0.00323489)
(-0.482995 -54.5493 0.00421512)
(-0.325952 -54.7741 0.00284556)
(-0.259234 -46.3086 0.00226528)
(0.729763 -22.7599 -0.0063681)
(0.346886 1.30514 -0.00305548)
(-0.173195 -50.2915 0.00151105)
(-0.293087 -50.4471 0.00255766)
(-0.470126 -51.3891 0.00410298)
(-0.71211 -51.743 0.00621489)
(-0.878371 -52.5062 0.00766576)
(-1.08001 -54.2804 0.00942542)
(-1.07971 -54.9178 0.00942435)
(-0.943732 -47.0202 0.00824098)
(0.406724 -23.5297 -0.00354647)
(0.510828 1.89081 -0.00448817)
(-0.273317 -49.247 0.00238479)
(-0.528148 -49.57 0.00460913)
(-0.883089 -50.4291 0.00770709)
(-1.27776 -50.8142 0.0111516)
(-1.61571 -51.6351 0.0141009)
(-1.98872 -53.5437 0.0173561)
(-2.23658 -54.7463 0.0195209)
(-2.09089 -47.8819 0.0182552)
(-0.347704 -24.8897 0.00304181)
(0.758258 2.4024 -0.00664516)
(-0.399787 -47.5535 0.00348847)
(-0.851498 -48.0055 0.0074311)
(-1.4312 -48.7861 0.0124907)
(-2.04507 -49.2136 0.0178483)
(-2.62094 -50.0655 0.0228738)
(-3.26551 -52.0439 0.0284989)
(-3.87979 -53.9141 0.033861)
(-3.95366 -48.7793 0.034515)
(-1.93556 -27.1544 0.0169077)
(1.28327 2.2028 -0.0112198)