/*--------------------------------*- C++ -*----------------------------------*\
| =========                 |                                                 |
| \\      /  F ield         | OpenFOAM: The Open Source CFD Toolbox           |
|  \\    /   O peration     | Version:  v2012                                 |
|   \\  /    A nd           | Website:  www.openfoam.com                      |
|    \\/     M anipulation  |                                                 |
\*---------------------------------------------------------------------------*/
FoamFile
{
    version     2.0;
    format      ascii;
    class       volScalarField;
    location    "0.15";
    object      p_rgh;
}
// * * * * * * * * * * * * * * * * * * * * * * * * * * * * * * * * * * * * * //

dimensions      [1 -1 -2 0 0 0 0];


internalField   nonuniform List<scalar> 
2650
(
4.00243e+06
4.00229e+06
4.00228e+06
4.00215e+06
4.00236e+06
4.0025e+06
4.00224e+06
4.00259e+06
4.00224e+06
4.00242e+06
4.00244e+06
4.00225e+06
4.0029e+06
4.0022e+06
4.00231e+06
4.00268e+06
4.00222e+06
4.00306e+06
4.00209e+06
4.00215e+06
4.00256e+06
4.00186e+06
4.00297e+06
4.00227e+06
4.00224e+06
4.0025e+06
4.00138e+06
4.00283e+06
4.00253e+06
4.00215e+06
4.00213e+06
4.0015e+06
4.00243e+06
4.00413e+06
4.00263e+06
4.0019e+06
4.00453e+06
4.00264e+06
4.00955e+06
4.007e+06
4.00152e+06
4.00493e+06
4.00178e+06
4.00915e+06
4.00887e+06
4.00126e+06
4.00369e+06
4.00092e+06
4.00406e+06
4.0031e+06
4.00211e+06
4.00375e+06
4.00134e+06
4.00327e+06
4.00329e+06
4.00258e+06
4.00239e+06
4.00248e+06
4.00227e+06
4.00392e+06
4.00367e+06
4.00109e+06
4.00787e+06
4.00154e+06
4.0028e+06
4.00689e+06
4.00541e+06
4.05864e+06
4.01144e+06
4.01348e+06
4.00528e+06
4.02097e+06
4.10042e+06
4.05211e+06
4.03889e+06
4.60979e+06
4.66954e+06
4.61262e+06
4.58405e+06
4.5291e+06
4.73589e+06
4.67329e+06
4.51109e+06
4.39758e+06
3.96148e+06
5.72083e+06
5.70685e+06
5.715e+06
5.698e+06
5.5941e+06
5.90133e+06
5.98032e+06
6.03418e+06
6.05164e+06
6.06419e+06
6.07192e+06
6.07781e+06
6.0816e+06
6.08458e+06
6.08678e+06
6.08858e+06
6.09e+06
6.09119e+06
6.09217e+06
6.09301e+06
6.09374e+06
6.09437e+06
6.09492e+06
6.09541e+06
6.09584e+06
6.09622e+06
6.09657e+06
6.09688e+06
6.09716e+06
6.09742e+06
6.09766e+06
5.72355e+06
5.76007e+06
5.80608e+06
5.84402e+06
5.89652e+06
6.01459e+06
6.02858e+06
6.05465e+06
6.06136e+06
6.06895e+06
6.07446e+06
6.07923e+06
6.08245e+06
6.08511e+06
6.08712e+06
6.0888e+06
6.09015e+06
6.0913e+06
6.09225e+06
6.09307e+06
6.09378e+06
6.0944e+06
6.09495e+06
6.09543e+06
6.09585e+06
6.09624e+06
6.09658e+06
6.09689e+06
6.09717e+06
6.09743e+06
6.09766e+06
6.00099e+06
6.00271e+06
6.00308e+06
6.00968e+06
6.01673e+06
6.04333e+06
6.05397e+06
6.06462e+06
6.06858e+06
6.07288e+06
6.07708e+06
6.08088e+06
6.08358e+06
6.08586e+06
6.08766e+06
6.08918e+06
6.09043e+06
6.0915e+06
6.09241e+06
6.09319e+06
6.09388e+06
6.09448e+06
6.095e+06
6.09547e+06
6.09589e+06
6.09627e+06
6.09661e+06
6.09691e+06
6.09719e+06
6.09744e+06
6.09768e+06
6.07086e+06
6.05691e+06
6.04744e+06
6.04735e+06
6.05304e+06
6.06517e+06
6.07041e+06
6.07466e+06
6.07547e+06
6.07739e+06
6.08014e+06
6.08297e+06
6.08504e+06
6.08688e+06
6.08839e+06
6.08972e+06
6.09083e+06
6.0918e+06
6.09263e+06
6.09337e+06
6.09401e+06
6.09459e+06
6.09509e+06
6.09555e+06
6.09595e+06
6.09632e+06
6.09665e+06
6.09695e+06
6.09722e+06
6.09747e+06
6.0977e+06
6.12227e+06
6.10243e+06
6.08826e+06
6.08105e+06
6.07869e+06
6.08034e+06
6.08229e+06
6.08204e+06
6.08092e+06
6.08108e+06
6.08281e+06
6.08488e+06
6.08645e+06
6.08793e+06
6.08918e+06
6.09032e+06
6.09129e+06
6.09215e+06
6.09291e+06
6.09359e+06
6.09419e+06
6.09473e+06
6.09521e+06
6.09564e+06
6.09603e+06
6.09638e+06
6.0967e+06
6.09699e+06
6.09726e+06
6.0975e+06
6.09772e+06
6.08692e+06
6.09573e+06
6.08718e+06
6.08668e+06
6.08624e+06
6.08733e+06
6.08833e+06
6.08671e+06
6.08477e+06
6.08409e+06
6.08515e+06
6.08667e+06
6.08784e+06
6.089e+06
6.09001e+06
6.09096e+06
6.09179e+06
6.09255e+06
6.09323e+06
6.09384e+06
6.09439e+06
6.09489e+06
6.09534e+06
6.09575e+06
6.09612e+06
6.09646e+06
6.09677e+06
6.09705e+06
6.0973e+06
6.09754e+06
6.09776e+06
6.11155e+06
6.09457e+06
6.08694e+06
6.08962e+06
6.09042e+06
6.09395e+06
6.09378e+06
6.09066e+06
6.08803e+06
6.08657e+06
6.08715e+06
6.08824e+06
6.0891e+06
6.08999e+06
6.09081e+06
6.0916e+06
6.09231e+06
6.09297e+06
6.09356e+06
6.09411e+06
6.09461e+06
6.09507e+06
6.09549e+06
6.09587e+06
6.09622e+06
6.09655e+06
6.09684e+06
6.09711e+06
6.09736e+06
6.09759e+06
6.0978e+06
6.10116e+06
6.09027e+06
6.08261e+06
6.08759e+06
6.09324e+06
6.09729e+06
6.09681e+06
6.09339e+06
6.09041e+06
6.08851e+06
6.08879e+06
6.08957e+06
6.0902e+06
6.09091e+06
6.09157e+06
6.09222e+06
6.09282e+06
6.09339e+06
6.09391e+06
6.0944e+06
6.09485e+06
6.09527e+06
6.09566e+06
6.09601e+06
6.09634e+06
6.09664e+06
6.09692e+06
6.09718e+06
6.09742e+06
6.09764e+06
6.09784e+06
6.08769e+06
6.0838e+06
6.08121e+06
6.08716e+06
6.09132e+06
6.09655e+06
6.09784e+06
6.09531e+06
6.09197e+06
6.08985e+06
6.09007e+06
6.09069e+06
6.09117e+06
6.09175e+06
6.09228e+06
6.09281e+06
6.09332e+06
6.0938e+06
6.09426e+06
6.09469e+06
6.09509e+06
6.09547e+06
6.09583e+06
6.09616e+06
6.09647e+06
6.09675e+06
6.09702e+06
6.09726e+06
6.09749e+06
6.0977e+06
6.09789e+06
6.10881e+06
6.08641e+06
6.08599e+06
6.08525e+06
6.08381e+06
6.09022e+06
6.09358e+06
6.09432e+06
6.09219e+06
6.09069e+06
6.09111e+06
6.09162e+06
6.09202e+06
6.09249e+06
6.09293e+06
6.09337e+06
6.0938e+06
6.09421e+06
6.09461e+06
6.09498e+06
6.09534e+06
6.09569e+06
6.09601e+06
6.09631e+06
6.0966e+06
6.09687e+06
6.09711e+06
6.09735e+06
6.09756e+06
6.09776e+06
6.09795e+06
6.07866e+06
6.08001e+06
6.08236e+06
6.08387e+06
6.0858e+06
6.08726e+06
6.08882e+06
6.09097e+06
6.09182e+06
6.09199e+06
6.09222e+06
6.09248e+06
6.09279e+06
6.09317e+06
6.09353e+06
6.0939e+06
6.09426e+06
6.09461e+06
6.09495e+06
6.09528e+06
6.0956e+06
6.0959e+06
6.0962e+06
6.09647e+06
6.09674e+06
6.09698e+06
6.09722e+06
6.09744e+06
6.09764e+06
6.09783e+06
6.09801e+06
6.06313e+06
6.07351e+06
6.08065e+06
6.08381e+06
6.08615e+06
6.0862e+06
6.0865e+06
6.0887e+06
6.0913e+06
6.09255e+06
6.09298e+06
6.09321e+06
6.09348e+06
6.0938e+06
6.09409e+06
6.09439e+06
6.09469e+06
6.09499e+06
6.09528e+06
6.09557e+06
6.09585e+06
6.09612e+06
6.09638e+06
6.09664e+06
6.09688e+06
6.09711e+06
6.09732e+06
6.09753e+06
6.09772e+06
6.0979e+06
6.09807e+06
6.05774e+06
6.07004e+06
6.07827e+06
6.08387e+06
6.08624e+06
6.08709e+06
6.08779e+06
6.08944e+06
6.09171e+06
6.09312e+06
6.09358e+06
6.09381e+06
6.09407e+06
6.09434e+06
6.0946e+06
6.09485e+06
6.09509e+06
6.09534e+06
6.09559e+06
6.09584e+06
6.09609e+06
6.09633e+06
6.09657e+06
6.0968e+06
6.09702e+06
6.09723e+06
6.09743e+06
6.09762e+06
6.09781e+06
6.09798e+06
6.09814e+06
6.07532e+06
6.07944e+06
6.08268e+06
6.08701e+06
6.08735e+06
6.08797e+06
6.08885e+06
6.09038e+06
6.09252e+06
6.0939e+06
6.09427e+06
6.09443e+06
6.09464e+06
6.09485e+06
6.09506e+06
6.09526e+06
6.09547e+06
6.09568e+06
6.0959e+06
6.09611e+06
6.09633e+06
6.09654e+06
6.09676e+06
6.09696e+06
6.09717e+06
6.09736e+06
6.09755e+06
6.09772e+06
6.09789e+06
6.09805e+06
6.0982e+06
6.08221e+06
6.08869e+06
6.09142e+06
6.09075e+06
6.08913e+06
6.08858e+06
6.08925e+06
6.09093e+06
6.09303e+06
6.09448e+06
6.09484e+06
6.09497e+06
6.09515e+06
6.09531e+06
6.09547e+06
6.09564e+06
6.09582e+06
6.09599e+06
6.09618e+06
6.09637e+06
6.09656e+06
6.09675e+06
6.09694e+06
6.09713e+06
6.09731e+06
6.09749e+06
6.09766e+06
6.09782e+06
6.09798e+06
6.09813e+06
6.09827e+06
6.09038e+06
6.0951e+06
6.09649e+06
6.09367e+06
6.09055e+06
6.08887e+06
6.08975e+06
6.0916e+06
6.09359e+06
6.09499e+06
6.09533e+06
6.09542e+06
6.09558e+06
6.0957e+06
6.09583e+06
6.09597e+06
6.09613e+06
6.09628e+06
6.09644e+06
6.09661e+06
6.09677e+06
6.09694e+06
6.09711e+06
6.09728e+06
6.09745e+06
6.09761e+06
6.09777e+06
6.09792e+06
6.09807e+06
6.09821e+06
6.09834e+06
6.09546e+06
6.09788e+06
6.09839e+06
6.0959e+06
6.09306e+06
6.09103e+06
6.0908e+06
6.09214e+06
6.09403e+06
6.09539e+06
6.09571e+06
6.09577e+06
6.09591e+06
6.09601e+06
6.09614e+06
6.09626e+06
6.0964e+06
6.09654e+06
6.09669e+06
6.09683e+06
6.09698e+06
6.09713e+06
6.09729e+06
6.09744e+06
6.09759e+06
6.09774e+06
6.09788e+06
6.09802e+06
6.09816e+06
6.09829e+06
6.09841e+06
6.09426e+06
6.09631e+06
6.09689e+06
6.09741e+06
6.09683e+06
6.09485e+06
6.09317e+06
6.09357e+06
6.09486e+06
6.09587e+06
6.0961e+06
6.09613e+06
6.09624e+06
6.09632e+06
6.09643e+06
6.09654e+06
6.09667e+06
6.0968e+06
6.09692e+06
6.09705e+06
6.09718e+06
6.09732e+06
6.09745e+06
6.09759e+06
6.09773e+06
6.09786e+06
6.09799e+06
6.09812e+06
6.09825e+06
6.09837e+06
6.09848e+06
6.09901e+06
6.09892e+06
6.09849e+06
6.09798e+06
6.09828e+06
6.09759e+06
6.09686e+06
6.09662e+06
6.096e+06
6.09616e+06
6.0964e+06
6.09645e+06
6.09656e+06
6.09663e+06
6.09672e+06
6.09681e+06
6.09693e+06
6.09704e+06
6.09715e+06
6.09726e+06
6.09737e+06
6.09749e+06
6.09761e+06
6.09774e+06
6.09786e+06
6.09798e+06
6.0981e+06
6.09822e+06
6.09834e+06
6.09845e+06
6.09856e+06
6.10092e+06
6.10041e+06
6.09979e+06
6.09862e+06
6.09862e+06
6.09837e+06
6.0984e+06
6.09805e+06
6.09684e+06
6.09662e+06
6.09674e+06
6.09677e+06
6.09686e+06
6.09692e+06
6.09699e+06
6.09707e+06
6.09717e+06
6.09726e+06
6.09736e+06
6.09746e+06
6.09756e+06
6.09766e+06
6.09777e+06
6.09788e+06
6.09799e+06
6.0981e+06
6.09821e+06
6.09832e+06
6.09843e+06
6.09853e+06
6.09863e+06
6.10225e+06
6.1012e+06
6.10062e+06
6.09957e+06
6.09918e+06
6.09878e+06
6.09866e+06
6.09823e+06
6.09713e+06
6.09695e+06
6.09704e+06
6.09706e+06
6.09713e+06
6.09718e+06
6.09724e+06
6.09731e+06
6.0974e+06
6.09748e+06
6.09756e+06
6.09765e+06
6.09774e+06
6.09783e+06
6.09792e+06
6.09802e+06
6.09812e+06
6.09822e+06
6.09832e+06
6.09842e+06
6.09851e+06
6.09861e+06
6.0987e+06
6.09845e+06
6.10018e+06
6.10031e+06
6.0998e+06
6.09929e+06
6.09898e+06
6.09886e+06
6.09839e+06
6.09735e+06
6.09721e+06
6.0973e+06
6.09731e+06
6.09738e+06
6.09742e+06
6.09748e+06
6.09753e+06
6.09761e+06
6.09768e+06
6.09775e+06
6.09783e+06
6.0979e+06
6.09798e+06
6.09807e+06
6.09815e+06
6.09824e+06
6.09833e+06
6.09842e+06
6.09851e+06
6.0986e+06
6.09869e+06
6.09877e+06
6.10319e+06
6.10108e+06
6.10027e+06
6.09941e+06
6.09941e+06
6.09934e+06
6.09912e+06
6.09859e+06
6.09757e+06
6.09746e+06
6.09754e+06
6.09754e+06
6.09761e+06
6.09764e+06
6.09769e+06
6.09774e+06
6.09781e+06
6.09787e+06
6.09793e+06
6.098e+06
6.09806e+06
6.09813e+06
6.09821e+06
6.09828e+06
6.09836e+06
6.09844e+06
6.09852e+06
6.09861e+06
6.09869e+06
6.09877e+06
6.09885e+06
6.10328e+06
6.10127e+06
6.1002e+06
6.09925e+06
6.0996e+06
6.0995e+06
6.09935e+06
6.09882e+06
6.09782e+06
6.0977e+06
6.09777e+06
6.09777e+06
6.09783e+06
6.09786e+06
6.0979e+06
6.09794e+06
6.098e+06
6.09805e+06
6.09811e+06
6.09816e+06
6.09822e+06
6.09828e+06
6.09834e+06
6.09841e+06
6.09848e+06
6.09855e+06
6.09862e+06
6.0987e+06
6.09877e+06
6.09884e+06
6.09892e+06
6.10175e+06
6.10035e+06
6.09985e+06
6.09922e+06
6.09946e+06
6.09951e+06
6.09942e+06
6.09899e+06
6.09802e+06
6.09792e+06
6.098e+06
6.09799e+06
6.09804e+06
6.09807e+06
6.0981e+06
6.09814e+06
6.09818e+06
6.09823e+06
6.09827e+06
6.09832e+06
6.09836e+06
6.09842e+06
6.09847e+06
6.09853e+06
6.09859e+06
6.09866e+06
6.09872e+06
6.09879e+06
6.09885e+06
6.09892e+06
6.09899e+06
6.10394e+06
6.10014e+06
6.10024e+06
6.09924e+06
6.09871e+06
6.09904e+06
6.09909e+06
6.099e+06
6.09813e+06
6.09807e+06
6.0982e+06
6.09818e+06
6.09824e+06
6.09825e+06
6.09828e+06
6.09831e+06
6.09835e+06
6.09839e+06
6.09842e+06
6.09846e+06
6.0985e+06
6.09855e+06
6.0986e+06
6.09865e+06
6.0987e+06
6.09876e+06
6.09882e+06
6.09888e+06
6.09894e+06
6.099e+06
6.09906e+06
6.1003e+06
6.09949e+06
6.09988e+06
6.09893e+06
6.09906e+06
6.09894e+06
6.09875e+06
6.09882e+06
6.09818e+06
6.09826e+06
6.09838e+06
6.09834e+06
6.09841e+06
6.09842e+06
6.09844e+06
6.09847e+06
6.09851e+06
6.09854e+06
6.09857e+06
6.0986e+06
6.09864e+06
6.09867e+06
6.09871e+06
6.09876e+06
6.09881e+06
6.09886e+06
6.09891e+06
6.09896e+06
6.09902e+06
6.09907e+06
6.09913e+06
6.09888e+06
6.09869e+06
6.09961e+06
6.09886e+06
6.09902e+06
6.09894e+06
6.09877e+06
6.09882e+06
6.09829e+06
6.09842e+06
6.09855e+06
6.09851e+06
6.09857e+06
6.09857e+06
6.0986e+06
6.09862e+06
6.09865e+06
6.09868e+06
6.09871e+06
6.09873e+06
6.09876e+06
6.09879e+06
6.09883e+06
6.09887e+06
6.09891e+06
6.09895e+06
6.099e+06
6.09905e+06
6.0991e+06
6.09914e+06
6.09919e+06
6.10225e+06
6.09972e+06
6.09946e+06
6.09874e+06
6.09909e+06
6.09903e+06
6.09892e+06
6.09895e+06
6.0984e+06
6.09856e+06
6.09868e+06
6.09865e+06
6.09872e+06
6.09872e+06
6.09875e+06
6.09877e+06
6.09879e+06
6.09881e+06
6.09884e+06
6.09886e+06
6.09888e+06
6.09891e+06
6.09894e+06
6.09897e+06
6.09901e+06
6.09905e+06
6.09909e+06
6.09913e+06
6.09917e+06
6.09922e+06
6.09926e+06
6.11797e+06
6.10749e+06
6.10261e+06
6.0997e+06
6.09946e+06
6.09919e+06
6.09902e+06
6.09911e+06
6.09856e+06
6.0987e+06
6.09883e+06
6.09879e+06
6.09887e+06
6.09887e+06
6.09889e+06
6.09891e+06
6.09893e+06
6.09895e+06
6.09896e+06
6.09898e+06
6.099e+06
6.09902e+06
6.09905e+06
6.09907e+06
6.09911e+06
6.09914e+06
6.09917e+06
6.09921e+06
6.09925e+06
6.09929e+06
6.09933e+06
6.11336e+06
6.10987e+06
6.10909e+06
6.10515e+06
6.10067e+06
6.09898e+06
6.09913e+06
6.09922e+06
6.09869e+06
6.09884e+06
6.09896e+06
6.09894e+06
6.09901e+06
6.09901e+06
6.09903e+06
6.09904e+06
6.09906e+06
6.09907e+06
6.09908e+06
6.0991e+06
6.09911e+06
6.09913e+06
6.09915e+06
6.09917e+06
6.0992e+06
6.09923e+06
6.09926e+06
6.09929e+06
6.09932e+06
6.09936e+06
6.09939e+06
6.11233e+06
6.11054e+06
6.11075e+06
6.10653e+06
6.101e+06
6.09898e+06
6.09929e+06
6.09926e+06
6.09883e+06
6.099e+06
6.09912e+06
6.0991e+06
6.09917e+06
6.09917e+06
6.09918e+06
6.09918e+06
6.09919e+06
6.0992e+06
6.0992e+06
6.09921e+06
6.09922e+06
6.09923e+06
6.09925e+06
6.09927e+06
6.09929e+06
6.09931e+06
6.09934e+06
6.09937e+06
6.0994e+06
6.09943e+06
6.09946e+06
6.10968e+06
6.10895e+06
6.10992e+06
6.10712e+06
6.10243e+06
6.10029e+06
6.09981e+06
6.09941e+06
6.09909e+06
6.09925e+06
6.09934e+06
6.0993e+06
6.09935e+06
6.09933e+06
6.09933e+06
6.09932e+06
6.09932e+06
6.09932e+06
6.09932e+06
6.09932e+06
6.09933e+06
6.09934e+06
6.09935e+06
6.09936e+06
6.09938e+06
6.0994e+06
6.09942e+06
6.09945e+06
6.09947e+06
6.0995e+06
6.09952e+06
6.10704e+06
6.10707e+06
6.10863e+06
6.10791e+06
6.10792e+06
6.10596e+06
6.10201e+06
6.10047e+06
6.09967e+06
6.09952e+06
6.09955e+06
6.09946e+06
6.0995e+06
6.09947e+06
6.09946e+06
6.09945e+06
6.09944e+06
6.09943e+06
6.09942e+06
6.09942e+06
6.09943e+06
6.09943e+06
6.09944e+06
6.09945e+06
6.09947e+06
6.09948e+06
6.0995e+06
6.09952e+06
6.09954e+06
6.09957e+06
6.09959e+06
6.10511e+06
6.10822e+06
6.10886e+06
6.108e+06
6.10879e+06
6.10769e+06
6.10669e+06
6.1047e+06
6.10067e+06
6.09959e+06
6.09966e+06
6.09955e+06
6.0996e+06
6.09957e+06
6.09956e+06
6.09955e+06
6.09953e+06
6.09953e+06
6.09952e+06
6.09952e+06
6.09952e+06
6.09952e+06
6.09953e+06
6.09954e+06
6.09955e+06
6.09956e+06
6.09958e+06
6.0996e+06
6.09961e+06
6.09963e+06
6.09965e+06
6.10928e+06
6.11037e+06
6.1101e+06
6.1086e+06
6.10921e+06
6.10861e+06
6.10829e+06
6.10612e+06
6.10133e+06
6.09986e+06
6.09983e+06
6.09966e+06
6.0997e+06
6.09966e+06
6.09965e+06
6.09964e+06
6.09963e+06
6.09962e+06
6.09961e+06
6.09961e+06
6.09961e+06
6.09961e+06
6.09962e+06
6.09963e+06
6.09963e+06
6.09965e+06
6.09966e+06
6.09967e+06
6.09969e+06
6.0997e+06
6.09972e+06
6.11326e+06
6.11152e+06
6.11022e+06
6.10938e+06
6.10954e+06
6.10841e+06
6.10819e+06
6.10627e+06
6.10151e+06
6.1e+06
6.09993e+06
6.09975e+06
6.09978e+06
6.09974e+06
6.09973e+06
6.09972e+06
6.09971e+06
6.0997e+06
6.0997e+06
6.0997e+06
6.0997e+06
6.0997e+06
6.0997e+06
6.09971e+06
6.09972e+06
6.09972e+06
6.09973e+06
6.09974e+06
6.09976e+06
6.09977e+06
6.09978e+06
6.11335e+06
6.11202e+06
6.11107e+06
6.1102e+06
6.10958e+06
6.10893e+06
6.10858e+06
6.10619e+06
6.10152e+06
6.10002e+06
6.09995e+06
6.09981e+06
6.09984e+06
6.09981e+06
6.09981e+06
6.0998e+06
6.09979e+06
6.09979e+06
6.09979e+06
6.09979e+06
6.09979e+06
6.09979e+06
6.09979e+06
6.09979e+06
6.0998e+06
6.0998e+06
6.09981e+06
6.09982e+06
6.09983e+06
6.09983e+06
6.09984e+06
6.1107e+06
6.11284e+06
6.112e+06
6.11012e+06
6.11013e+06
6.10976e+06
6.10894e+06
6.1067e+06
6.10176e+06
6.10009e+06
6.10002e+06
6.09991e+06
6.09991e+06
6.09988e+06
6.09988e+06
6.09988e+06
6.09987e+06
6.09987e+06
6.09987e+06
6.09987e+06
6.09987e+06
6.09987e+06
6.09987e+06
6.09988e+06
6.09988e+06
6.09988e+06
6.09989e+06
6.09989e+06
6.0999e+06
6.0999e+06
6.09991e+06
6.10415e+06
6.10644e+06
6.10635e+06
6.10558e+06
6.10604e+06
6.10523e+06
6.10509e+06
6.10444e+06
6.10098e+06
6.0999e+06
6.10001e+06
6.09998e+06
6.09999e+06
6.09998e+06
6.09998e+06
6.09997e+06
6.09997e+06
6.09997e+06
6.09996e+06
6.09996e+06
6.09996e+06
6.09996e+06
6.09996e+06
6.09996e+06
6.09996e+06
6.09996e+06
6.09996e+06
6.09996e+06
6.09997e+06
6.09997e+06
6.09997e+06
4.00243e+06
4.00229e+06
4.00228e+06
4.00215e+06
4.00236e+06
4.0025e+06
4.00224e+06
4.00259e+06
4.00224e+06
4.00242e+06
4.00243e+06
4.00225e+06
4.0029e+06
4.0022e+06
4.00231e+06
4.00267e+06
4.00222e+06
4.00306e+06
4.00209e+06
4.00215e+06
4.00256e+06
4.00186e+06
4.00297e+06
4.00227e+06
4.00224e+06
4.00251e+06
4.00138e+06
4.00283e+06
4.00253e+06
4.00215e+06
4.00213e+06
4.00149e+06
4.00243e+06
4.00413e+06
4.00263e+06
4.0019e+06
4.00453e+06
4.00264e+06
4.00955e+06
4.007e+06
4.00152e+06
4.00493e+06
4.00178e+06
4.00915e+06
4.00887e+06
4.00127e+06
4.00369e+06
4.00092e+06
4.00406e+06
4.0031e+06
4.00211e+06
4.00375e+06
4.00134e+06
4.00327e+06
4.00329e+06
4.00259e+06
4.00239e+06
4.00248e+06
4.00227e+06
4.00392e+06
4.00366e+06
4.00109e+06
4.00787e+06
4.00154e+06
4.0028e+06
4.00689e+06
4.00541e+06
4.05864e+06
4.01144e+06
4.01348e+06
4.00528e+06
4.02097e+06
4.10042e+06
4.05211e+06
4.03889e+06
4.60979e+06
4.66954e+06
4.61262e+06
4.58405e+06
4.5291e+06
4.73589e+06
4.67329e+06
4.51109e+06
4.39758e+06
3.96148e+06
5.72083e+06
5.70685e+06
5.715e+06
5.698e+06
5.5941e+06
5.90133e+06
5.98032e+06
6.03418e+06
6.05164e+06
6.06419e+06
6.07192e+06
6.07781e+06
6.0816e+06
6.08458e+06
6.08678e+06
6.08858e+06
6.09e+06
6.09119e+06
6.09217e+06
6.09301e+06
6.09374e+06
6.09437e+06
6.09492e+06
6.09541e+06
6.09584e+06
6.09622e+06
6.09657e+06
6.09688e+06
6.09716e+06
6.09742e+06
6.09766e+06
5.72355e+06
5.76007e+06
5.80608e+06
5.84402e+06
5.89652e+06
6.01459e+06
6.02858e+06
6.05465e+06
6.06136e+06
6.06895e+06
6.07446e+06
6.07923e+06
6.08245e+06
6.08511e+06
6.08712e+06
6.0888e+06
6.09015e+06
6.0913e+06
6.09225e+06
6.09307e+06
6.09378e+06
6.0944e+06
6.09495e+06
6.09543e+06
6.09585e+06
6.09624e+06
6.09658e+06
6.09689e+06
6.09717e+06
6.09743e+06
6.09766e+06
6.00099e+06
6.00271e+06
6.00308e+06
6.00968e+06
6.01673e+06
6.04333e+06
6.05397e+06
6.06462e+06
6.06858e+06
6.07288e+06
6.07708e+06
6.08089e+06
6.08358e+06
6.08586e+06
6.08766e+06
6.08918e+06
6.09043e+06
6.0915e+06
6.09241e+06
6.09319e+06
6.09388e+06
6.09448e+06
6.095e+06
6.09547e+06
6.09589e+06
6.09627e+06
6.09661e+06
6.09691e+06
6.09719e+06
6.09744e+06
6.09768e+06
6.07086e+06
6.05691e+06
6.04744e+06
6.04735e+06
6.05304e+06
6.06517e+06
6.07041e+06
6.07466e+06
6.07547e+06
6.07739e+06
6.08014e+06
6.08297e+06
6.08504e+06
6.08688e+06
6.08839e+06
6.08972e+06
6.09083e+06
6.0918e+06
6.09263e+06
6.09337e+06
6.09401e+06
6.09459e+06
6.09509e+06
6.09555e+06
6.09595e+06
6.09632e+06
6.09665e+06
6.09695e+06
6.09722e+06
6.09747e+06
6.0977e+06
6.12227e+06
6.10243e+06
6.08826e+06
6.08105e+06
6.07869e+06
6.08034e+06
6.08229e+06
6.08204e+06
6.08092e+06
6.08108e+06
6.08281e+06
6.08488e+06
6.08645e+06
6.08793e+06
6.08918e+06
6.09032e+06
6.09129e+06
6.09215e+06
6.09291e+06
6.09359e+06
6.09419e+06
6.09473e+06
6.09521e+06
6.09564e+06
6.09603e+06
6.09638e+06
6.0967e+06
6.09699e+06
6.09726e+06
6.0975e+06
6.09772e+06
6.08692e+06
6.09573e+06
6.08718e+06
6.08668e+06
6.08624e+06
6.08733e+06
6.08833e+06
6.08671e+06
6.08477e+06
6.08409e+06
6.08515e+06
6.08667e+06
6.08784e+06
6.089e+06
6.09001e+06
6.09096e+06
6.09179e+06
6.09255e+06
6.09323e+06
6.09384e+06
6.09439e+06
6.09489e+06
6.09534e+06
6.09575e+06
6.09612e+06
6.09646e+06
6.09677e+06
6.09705e+06
6.0973e+06
6.09754e+06
6.09776e+06
6.11155e+06
6.09457e+06
6.08694e+06
6.08962e+06
6.09042e+06
6.09395e+06
6.09378e+06
6.09066e+06
6.08803e+06
6.08657e+06
6.08715e+06
6.08824e+06
6.0891e+06
6.08999e+06
6.09081e+06
6.0916e+06
6.09231e+06
6.09297e+06
6.09356e+06
6.09411e+06
6.09461e+06
6.09507e+06
6.09549e+06
6.09587e+06
6.09622e+06
6.09655e+06
6.09684e+06
6.09711e+06
6.09736e+06
6.09759e+06
6.0978e+06
6.10116e+06
6.09027e+06
6.08261e+06
6.08759e+06
6.09324e+06
6.09729e+06
6.09681e+06
6.09339e+06
6.09041e+06
6.08851e+06
6.08879e+06
6.08957e+06
6.0902e+06
6.09091e+06
6.09157e+06
6.09222e+06
6.09282e+06
6.09339e+06
6.09391e+06
6.0944e+06
6.09485e+06
6.09527e+06
6.09566e+06
6.09601e+06
6.09634e+06
6.09664e+06
6.09692e+06
6.09718e+06
6.09742e+06
6.09764e+06
6.09784e+06
6.08769e+06
6.0838e+06
6.08121e+06
6.08716e+06
6.09132e+06
6.09655e+06
6.09784e+06
6.09531e+06
6.09197e+06
6.08985e+06
6.09007e+06
6.09069e+06
6.09117e+06
6.09175e+06
6.09228e+06
6.09281e+06
6.09332e+06
6.0938e+06
6.09426e+06
6.09469e+06
6.09509e+06
6.09547e+06
6.09583e+06
6.09616e+06
6.09647e+06
6.09675e+06
6.09702e+06
6.09726e+06
6.09749e+06
6.0977e+06
6.09789e+06
6.10881e+06
6.08641e+06
6.08599e+06
6.08525e+06
6.08381e+06
6.09022e+06
6.09358e+06
6.09432e+06
6.09219e+06
6.09069e+06
6.09111e+06
6.09162e+06
6.09202e+06
6.09249e+06
6.09293e+06
6.09337e+06
6.0938e+06
6.09421e+06
6.09461e+06
6.09498e+06
6.09534e+06
6.09569e+06
6.09601e+06
6.09631e+06
6.0966e+06
6.09687e+06
6.09711e+06
6.09735e+06
6.09756e+06
6.09776e+06
6.09795e+06
6.07866e+06
6.08001e+06
6.08236e+06
6.08387e+06
6.0858e+06
6.08726e+06
6.08883e+06
6.09097e+06
6.09182e+06
6.09199e+06
6.09222e+06
6.09248e+06
6.09279e+06
6.09317e+06
6.09353e+06
6.0939e+06
6.09426e+06
6.09461e+06
6.09495e+06
6.09528e+06
6.0956e+06
6.0959e+06
6.0962e+06
6.09647e+06
6.09674e+06
6.09698e+06
6.09722e+06
6.09744e+06
6.09764e+06
6.09783e+06
6.09801e+06
6.06313e+06
6.07351e+06
6.08065e+06
6.08381e+06
6.08615e+06
6.0862e+06
6.0865e+06
6.0887e+06
6.0913e+06
6.09255e+06
6.09298e+06
6.09321e+06
6.09348e+06
6.0938e+06
6.09409e+06
6.09439e+06
6.09469e+06
6.09499e+06
6.09528e+06
6.09557e+06
6.09585e+06
6.09612e+06
6.09638e+06
6.09664e+06
6.09688e+06
6.09711e+06
6.09732e+06
6.09753e+06
6.09772e+06
6.0979e+06
6.09807e+06
6.05774e+06
6.07004e+06
6.07827e+06
6.08387e+06
6.08624e+06
6.08709e+06
6.08779e+06
6.08944e+06
6.09171e+06
6.09312e+06
6.09358e+06
6.09381e+06
6.09407e+06
6.09434e+06
6.0946e+06
6.09485e+06
6.09509e+06
6.09534e+06
6.09559e+06
6.09584e+06
6.09609e+06
6.09633e+06
6.09657e+06
6.0968e+06
6.09702e+06
6.09723e+06
6.09743e+06
6.09762e+06
6.09781e+06
6.09798e+06
6.09814e+06
6.07532e+06
6.07944e+06
6.08268e+06
6.08701e+06
6.08735e+06
6.08797e+06
6.08885e+06
6.09038e+06
6.09252e+06
6.0939e+06
6.09427e+06
6.09443e+06
6.09464e+06
6.09485e+06
6.09506e+06
6.09526e+06
6.09547e+06
6.09568e+06
6.0959e+06
6.09611e+06
6.09633e+06
6.09654e+06
6.09676e+06
6.09696e+06
6.09717e+06
6.09736e+06
6.09755e+06
6.09772e+06
6.09789e+06
6.09805e+06
6.0982e+06
6.08221e+06
6.08869e+06
6.09142e+06
6.09075e+06
6.08913e+06
6.08858e+06
6.08925e+06
6.09093e+06
6.09303e+06
6.09448e+06
6.09484e+06
6.09497e+06
6.09515e+06
6.09531e+06
6.09547e+06
6.09564e+06
6.09582e+06
6.09599e+06
6.09618e+06
6.09637e+06
6.09656e+06
6.09675e+06
6.09694e+06
6.09713e+06
6.09731e+06
6.09749e+06
6.09766e+06
6.09782e+06
6.09798e+06
6.09813e+06
6.09827e+06
6.09038e+06
6.0951e+06
6.09649e+06
6.09367e+06
6.09055e+06
6.08887e+06
6.08975e+06
6.0916e+06
6.09359e+06
6.09499e+06
6.09533e+06
6.09542e+06
6.09558e+06
6.0957e+06
6.09583e+06
6.09597e+06
6.09613e+06
6.09628e+06
6.09644e+06
6.09661e+06
6.09677e+06
6.09694e+06
6.09711e+06
6.09728e+06
6.09745e+06
6.09761e+06
6.09777e+06
6.09792e+06
6.09807e+06
6.09821e+06
6.09834e+06
6.09546e+06
6.09788e+06
6.09839e+06
6.0959e+06
6.09306e+06
6.09103e+06
6.0908e+06
6.09214e+06
6.09403e+06
6.09539e+06
6.09571e+06
6.09577e+06
6.09591e+06
6.09601e+06
6.09614e+06
6.09626e+06
6.0964e+06
6.09654e+06
6.09669e+06
6.09683e+06
6.09698e+06
6.09713e+06
6.09729e+06
6.09744e+06
6.09759e+06
6.09774e+06
6.09788e+06
6.09802e+06
6.09816e+06
6.09829e+06
6.09841e+06
6.09426e+06
6.09631e+06
6.09689e+06
6.09741e+06
6.09683e+06
6.09485e+06
6.09317e+06
6.09357e+06
6.09486e+06
6.09587e+06
6.0961e+06
6.09613e+06
6.09624e+06
6.09632e+06
6.09643e+06
6.09654e+06
6.09667e+06
6.0968e+06
6.09692e+06
6.09705e+06
6.09718e+06
6.09732e+06
6.09745e+06
6.09759e+06
6.09773e+06
6.09786e+06
6.09799e+06
6.09812e+06
6.09825e+06
6.09837e+06
6.09848e+06
6.09901e+06
6.09892e+06
6.09849e+06
6.09798e+06
6.09828e+06
6.09759e+06
6.09686e+06
6.09662e+06
6.096e+06
6.09616e+06
6.0964e+06
6.09645e+06
6.09656e+06
6.09663e+06
6.09672e+06
6.09681e+06
6.09693e+06
6.09704e+06
6.09715e+06
6.09726e+06
6.09737e+06
6.09749e+06
6.09761e+06
6.09774e+06
6.09786e+06
6.09798e+06
6.0981e+06
6.09822e+06
6.09834e+06
6.09845e+06
6.09856e+06
6.10092e+06
6.10041e+06
6.09979e+06
6.09862e+06
6.09862e+06
6.09837e+06
6.0984e+06
6.09805e+06
6.09684e+06
6.09662e+06
6.09674e+06
6.09677e+06
6.09686e+06
6.09692e+06
6.09699e+06
6.09707e+06
6.09717e+06
6.09726e+06
6.09736e+06
6.09746e+06
6.09756e+06
6.09766e+06
6.09777e+06
6.09788e+06
6.09799e+06
6.0981e+06
6.09821e+06
6.09832e+06
6.09843e+06
6.09853e+06
6.09863e+06
6.10225e+06
6.1012e+06
6.10062e+06
6.09957e+06
6.09918e+06
6.09878e+06
6.09866e+06
6.09823e+06
6.09713e+06
6.09695e+06
6.09704e+06
6.09706e+06
6.09713e+06
6.09718e+06
6.09724e+06
6.09731e+06
6.0974e+06
6.09748e+06
6.09756e+06
6.09765e+06
6.09774e+06
6.09783e+06
6.09792e+06
6.09802e+06
6.09812e+06
6.09822e+06
6.09832e+06
6.09842e+06
6.09851e+06
6.09861e+06
6.0987e+06
6.09845e+06
6.10018e+06
6.10031e+06
6.0998e+06
6.09929e+06
6.09898e+06
6.09886e+06
6.09839e+06
6.09735e+06
6.09721e+06
6.0973e+06
6.09731e+06
6.09738e+06
6.09742e+06
6.09748e+06
6.09753e+06
6.09761e+06
6.09768e+06
6.09775e+06
6.09783e+06
6.0979e+06
6.09798e+06
6.09807e+06
6.09815e+06
6.09824e+06
6.09833e+06
6.09842e+06
6.09851e+06
6.0986e+06
6.09869e+06
6.09877e+06
6.10319e+06
6.10108e+06
6.10027e+06
6.09941e+06
6.09941e+06
6.09934e+06
6.09912e+06
6.09859e+06
6.09757e+06
6.09746e+06
6.09754e+06
6.09754e+06
6.09761e+06
6.09764e+06
6.09769e+06
6.09774e+06
6.09781e+06
6.09787e+06
6.09793e+06
6.098e+06
6.09806e+06
6.09813e+06
6.09821e+06
6.09828e+06
6.09836e+06
6.09844e+06
6.09852e+06
6.09861e+06
6.09869e+06
6.09877e+06
6.09885e+06
6.10328e+06
6.10127e+06
6.1002e+06
6.09925e+06
6.0996e+06
6.0995e+06
6.09935e+06
6.09882e+06
6.09782e+06
6.0977e+06
6.09777e+06
6.09777e+06
6.09783e+06
6.09786e+06
6.0979e+06
6.09794e+06
6.098e+06
6.09805e+06
6.09811e+06
6.09816e+06
6.09822e+06
6.09828e+06
6.09834e+06
6.09841e+06
6.09848e+06
6.09855e+06
6.09862e+06
6.0987e+06
6.09877e+06
6.09884e+06
6.09892e+06
6.10175e+06
6.10035e+06
6.09985e+06
6.09922e+06
6.09946e+06
6.09951e+06
6.09942e+06
6.09899e+06
6.09802e+06
6.09792e+06
6.098e+06
6.09799e+06
6.09804e+06
6.09807e+06
6.0981e+06
6.09814e+06
6.09818e+06
6.09823e+06
6.09827e+06
6.09832e+06
6.09836e+06
6.09842e+06
6.09847e+06
6.09853e+06
6.09859e+06
6.09866e+06
6.09872e+06
6.09879e+06
6.09885e+06
6.09892e+06
6.09899e+06
6.10394e+06
6.10014e+06
6.10024e+06
6.09924e+06
6.09871e+06
6.09904e+06
6.09909e+06
6.099e+06
6.09813e+06
6.09807e+06
6.0982e+06
6.09818e+06
6.09824e+06
6.09825e+06
6.09828e+06
6.09831e+06
6.09835e+06
6.09839e+06
6.09842e+06
6.09846e+06
6.0985e+06
6.09855e+06
6.0986e+06
6.09865e+06
6.0987e+06
6.09876e+06
6.09882e+06
6.09888e+06
6.09894e+06
6.099e+06
6.09906e+06
6.1003e+06
6.09949e+06
6.09988e+06
6.09893e+06
6.09906e+06
6.09894e+06
6.09875e+06
6.09882e+06
6.09818e+06
6.09826e+06
6.09838e+06
6.09834e+06
6.09841e+06
6.09842e+06
6.09844e+06
6.09847e+06
6.09851e+06
6.09854e+06
6.09857e+06
6.0986e+06
6.09864e+06
6.09867e+06
6.09871e+06
6.09876e+06
6.09881e+06
6.09886e+06
6.09891e+06
6.09896e+06
6.09902e+06
6.09907e+06
6.09913e+06
6.09888e+06
6.09869e+06
6.09961e+06
6.09886e+06
6.09902e+06
6.09894e+06
6.09877e+06
6.09882e+06
6.09829e+06
6.09842e+06
6.09855e+06
6.09851e+06
6.09857e+06
6.09857e+06
6.0986e+06
6.09862e+06
6.09865e+06
6.09868e+06
6.09871e+06
6.09873e+06
6.09876e+06
6.09879e+06
6.09883e+06
6.09887e+06
6.09891e+06
6.09895e+06
6.099e+06
6.09905e+06
6.0991e+06
6.09914e+06
6.09919e+06
6.10225e+06
6.09972e+06
6.09946e+06
6.09874e+06
6.09909e+06
6.09903e+06
6.09892e+06
6.09895e+06
6.0984e+06
6.09856e+06
6.09868e+06
6.09865e+06
6.09872e+06
6.09872e+06
6.09875e+06
6.09877e+06
6.09879e+06
6.09881e+06
6.09884e+06
6.09886e+06
6.09888e+06
6.09891e+06
6.09894e+06
6.09897e+06
6.09901e+06
6.09905e+06
6.09909e+06
6.09913e+06
6.09917e+06
6.09922e+06
6.09926e+06
6.11797e+06
6.10749e+06
6.10261e+06
6.0997e+06
6.09946e+06
6.09919e+06
6.09902e+06
6.09911e+06
6.09856e+06
6.0987e+06
6.09883e+06
6.09879e+06
6.09887e+06
6.09887e+06
6.09889e+06
6.09891e+06
6.09893e+06
6.09895e+06
6.09896e+06
6.09898e+06
6.099e+06
6.09902e+06
6.09905e+06
6.09907e+06
6.09911e+06
6.09914e+06
6.09917e+06
6.09921e+06
6.09925e+06
6.09929e+06
6.09933e+06
6.11336e+06
6.10987e+06
6.10909e+06
6.10515e+06
6.10067e+06
6.09898e+06
6.09913e+06
6.09922e+06
6.09869e+06
6.09884e+06
6.09896e+06
6.09894e+06
6.09901e+06
6.09901e+06
6.09903e+06
6.09904e+06
6.09906e+06
6.09907e+06
6.09908e+06
6.0991e+06
6.09911e+06
6.09913e+06
6.09915e+06
6.09917e+06
6.0992e+06
6.09923e+06
6.09926e+06
6.09929e+06
6.09932e+06
6.09936e+06
6.09939e+06
6.11233e+06
6.11054e+06
6.11075e+06
6.10653e+06
6.101e+06
6.09898e+06
6.09929e+06
6.09926e+06
6.09883e+06
6.099e+06
6.09912e+06
6.0991e+06
6.09917e+06
6.09917e+06
6.09918e+06
6.09918e+06
6.09919e+06
6.0992e+06
6.0992e+06
6.09921e+06
6.09922e+06
6.09923e+06
6.09925e+06
6.09927e+06
6.09929e+06
6.09931e+06
6.09934e+06
6.09937e+06
6.0994e+06
6.09943e+06
6.09946e+06
6.10968e+06
6.10895e+06
6.10992e+06
6.10712e+06
6.10243e+06
6.10029e+06
6.09981e+06
6.09941e+06
6.09909e+06
6.09925e+06
6.09934e+06
6.0993e+06
6.09935e+06
6.09933e+06
6.09933e+06
6.09932e+06
6.09932e+06
6.09932e+06
6.09932e+06
6.09932e+06
6.09933e+06
6.09934e+06
6.09935e+06
6.09936e+06
6.09938e+06
6.0994e+06
6.09942e+06
6.09945e+06
6.09947e+06
6.0995e+06
6.09952e+06
6.10704e+06
6.10707e+06
6.10863e+06
6.10791e+06
6.10792e+06
6.10596e+06
6.10201e+06
6.10047e+06
6.09967e+06
6.09952e+06
6.09955e+06
6.09946e+06
6.0995e+06
6.09947e+06
6.09946e+06
6.09945e+06
6.09944e+06
6.09943e+06