/*--------------------------------*- C++ -*----------------------------------*\
| =========                 |                                                 |
| \\      /  F ield         | OpenFOAM: The Open Source CFD Toolbox           |
|  \\    /   O peration     | Version:  v2012                                 |
|   \\  /    A nd           | Website:  www.openfoam.com                      |
|    \\/     M anipulation  |                                                 |
\*---------------------------------------------------------------------------*/
FoamFile
{
    version     2.0;
    format      ascii;
    class       surfaceScalarField;
    location    "0.15";
    object      phi;
}
// * * * * * * * * * * * * * * * * * * * * * * * * * * * * * * * * * * * * * //

dimensions      [0 3 -1 0 0 0 0];
oriented        oriented;


internalField   nonuniform List<scalar> 
6449
(
-1.31373e-12
-7.46475e-09
-7.98353e-13
2.46591e-10
-2.26369e-08
2.2524e-12
9.71852e-10
-4.04148e-08
2.49006e-14
1.27688e-09
-5.04493e-08
-2.69324e-14
-2.66335e-08
3.39501e-13
8.16228e-12
-7.48155e-09
-3.3804e-13
9.00646e-11
-2.27106e-08
1.09016e-12
8.57959e-10
-4.1259e-08
4.22634e-13
1.15834e-09
-5.07238e-08
1.50209e-13
-2.55698e-08
1.3983e-13
4.14816e-11
-7.52682e-09
-6.34477e-13
-7.18648e-11
-2.25923e-08
1.80646e-12
7.11935e-10
-4.21811e-08
-3.01901e-13
9.65643e-10
-5.09358e-08
-2.52477e-13
-2.46141e-08
5.99507e-13
5.15586e-11
-7.59152e-09
-1.07299e-12
-2.08817e-10
-2.2322e-08
6.39008e-13
5.72085e-10
-4.31068e-08
8.61222e-13
7.46862e-10
-5.10369e-08
6.8449e-13
-2.37594e-08
-1.6263e-13
4.93475e-11
-7.64961e-09
-5.20284e-13
-2.20819e-10
-2.19998e-08
8.73714e-13
6.1574e-10
-4.40548e-08
-3.34578e-13
5.93948e-10
-5.10066e-08
-2.03384e-13
-2.31269e-08
8.39035e-13
1.87113e-11
-7.67808e-09
1.16175e-12
-1.59117e-10
-2.17473e-08
-2.70074e-12
7.09907e-10
-4.50023e-08
1.3355e-12
4.0161e-10
-5.07317e-08
5.11876e-13
-2.26451e-08
1.78707e-13
1.51008e-11
-7.68099e-09
-2.0435e-12
9.25101e-11
-2.17714e-08
2.33902e-12
8.87856e-10
-4.58154e-08
-8.87523e-13
1.77238e-10
-5.01946e-08
-4.93089e-13
-2.25698e-08
1.17303e-12
2.28627e-11
-7.68407e-09
4.58307e-15
4.54979e-10
-2.22976e-08
-1.07873e-12
7.45898e-10
-4.61777e-08
9.54916e-13
-2.29056e-10
-4.95654e-08
1.92987e-13
-2.32636e-08
5.40562e-14
4.71201e-11
-7.68907e-09
-2.22639e-13
9.09192e-10
-2.33314e-08
-2.39483e-13
5.37373e-10
-4.56751e-08
-7.46488e-13
-3.77433e-10
-4.92206e-08
-2.69116e-13
-2.41235e-08
1.19384e-12
4.59121e-11
-7.68212e-09
1.17723e-12
1.14312e-09
-2.45829e-08
-2.01828e-12
2.0445e-10
-4.43772e-08
5.83924e-13
3.39467e-10
-4.97957e-08
3.46339e-14
-2.40561e-08
9.88498e-14
-2.49686e-11
-7.64747e-09
1.09486e-13
8.03439e-10
-2.55827e-08
4.70049e-13
-2.16608e-10
-4.31006e-08
-7.8747e-13
1.48137e-09
-5.1772e-08
4.57471e-14
-2.29837e-08
-6.34092e-14
-8.72917e-11
-7.56942e-09
7.15201e-13
2.89707e-10
-2.59676e-08
-5.15342e-13
-1.68929e-10
-4.26619e-08
-7.32766e-14
2.37022e-09
-5.42963e-08
1.34333e-14
-2.12207e-08
1.44035e-14
-1.83119e-10
-7.41951e-09
-5.20308e-13
-2.88198e-10
-2.57266e-08
6.45158e-13
-3.81334e-12
-4.33837e-08
-4.65494e-13
1.97644e-09
-5.60718e-08
2.72251e-13
-1.94475e-08
-4.68251e-13
-2.38425e-10
-7.23652e-09
4.62835e-14
-8.39177e-10
-2.52505e-08
4.00054e-13
-2.78227e-10
-4.47832e-08
-1.65989e-13
-8.4571e-11
-5.70463e-08
-1.63733e-13
-2.16469e-08
-1.66593e-13
-3.83549e-10
-6.88188e-09
8.14573e-13
-1.73019e-09
-2.42394e-08
-8.77923e-13
-2.38387e-09
-4.49945e-08
-5.90044e-13
-3.06388e-09
-5.77572e-08
4.24148e-13
-2.7214e-08
2.70169e-13
-4.49853e-10
-6.43131e-09
1.47884e-13
-2.39388e-09
-2.22951e-08
-1.82639e-13
-5.85755e-09
-4.15293e-08
2.69668e-13
-7.899e-09
-5.57142e-08
5.32774e-13
-3.51118e-08
-7.76913e-14
-1.0302e-09
-5.40269e-09
3.13003e-13
-4.95137e-09
-1.83734e-08
-2.72485e-13
-1.20781e-08
-3.44031e-08
-1.1336e-13
-1.7276e-08
-5.05162e-08
-2.95772e-13
-5.21255e-08
1.01201e-13
-1.98783e-09
-3.4149e-09
-9.73957e-14
-9.27486e-09
-1.10865e-08
-1.78232e-13
-2.4022e-08
-1.9657e-08
-1.51875e-13
-4.61763e-08
-2.8361e-08
2.25236e-13
-6.9045e-08
-2.92571e-08
6.69979e-14
-5.74726e-08
-1.15734e-08
-3.92947e-14
-4.55148e-08
-1.19579e-08
1.17666e-13
-3.7297e-08
-8.22303e-09
-9.52618e-13
-3.05834e-08
-6.70778e-09
8.64749e-13
-2.54455e-08
-5.13942e-09
-2.72536e-13
-2.12862e-08
-4.15813e-09
1.48589e-13
-1.79632e-08
-3.32602e-09
-3.69149e-13
-1.52275e-08
-2.73746e-09
-4.3561e-13
-1.2984e-08
-2.24376e-09
3.16876e-13
-1.11239e-08
-1.86252e-09
-5.99369e-13
-9.57669e-09
-1.54467e-09
7.37342e-13
-8.29243e-09
-1.28814e-09
-8.20662e-13
-7.21511e-09
-1.07555e-09
3.81455e-13
-6.31532e-09
-9.01064e-10
-2.16528e-13
-5.55901e-09
-7.572e-10
-1.16893e-13
-4.92063e-09
-6.39159e-10
-9.8164e-14
-4.37841e-09
-5.42385e-10
1.32682e-15
-3.91559e-09
-4.62956e-10
-2.75182e-14
-3.51791e-09
-3.97772e-10
1.06509e-14
-3.17413e-09
-3.44118e-10
-5.71181e-14
-2.87464e-09
-2.99866e-10
-4.03802e-14
-2.61179e-09
-2.63236e-10
-4.91343e-14
-2.37934e-09
-2.32772e-10
-3.56387e-14
-2.17228e-09
-2.07367e-10
-3.50655e-14
-1.98649e-09
-1.86061e-10
-3.27814e-14
-1.68121e-10
-4.15637e-14
-1.22899e-09
-2.18601e-09
-4.06292e-14
-5.34735e-09
-6.96804e-09
-1.18204e-13
-1.31678e-08
-1.18362e-08
3.92838e-14
-2.49982e-08
-1.65306e-08
-2.26605e-14
-3.57584e-08
-1.84968e-08
-5.63154e-14
-3.33289e-08
-1.40028e-08
9.38376e-14
-3.24614e-08
-1.2825e-08
2.45763e-13
-3.06657e-08
-1.00237e-08
-9.2893e-13
-2.848e-08
-8.88743e-09
9.04208e-13
-2.63227e-08
-7.29669e-09
-1.0587e-13
-2.41264e-08
-6.3522e-09
2.76891e-13
-2.20824e-08
-5.37221e-09
-2.4653e-13
-2.01532e-08
-4.66747e-09
-3.42074e-13
-1.83822e-08
-4.01448e-09
3.72541e-13
-1.67568e-08
-3.4898e-09
-5.38306e-13
-1.52722e-08
-3.02658e-09
7.71627e-13
-1.39277e-08
-2.6362e-09
-7.98753e-13
-1.27043e-08
-2.29699e-09
4.22354e-13
-1.16004e-08
-2.00593e-09
-1.76944e-13
-1.06034e-08
-1.7548e-09
-8.02248e-14
-9.704e-09
-1.53919e-09
-6.87703e-14
-8.89232e-09
-1.35405e-09
2.66443e-14
-8.1601e-09
-1.19522e-09
-1.03085e-14
-7.4987e-09
-1.05919e-09
2.54267e-14
-6.90044e-09
-9.42669e-10
-4.90588e-14
-6.35774e-09
-8.42916e-10
-3.25024e-14
-5.86384e-09
-7.57492e-10
-4.25447e-14
-5.41273e-09
-6.8421e-10
-2.89645e-14
-4.99904e-09
-6.21366e-10
-2.76983e-14
-4.61815e-09
-5.67233e-10
-2.79771e-14
-5.20486e-10
-3.77762e-14
-6.6846e-10
-1.51757e-09
-3.60119e-14
-2.78445e-09
-4.85195e-09
-9.87706e-14
-6.31109e-09
-8.30981e-09
-1.27949e-13
-1.18897e-08
-1.0952e-08
-4.38266e-14
-1.85231e-08
-1.18639e-08
-2.01808e-14
-2.17361e-08
-1.079e-08
3.8562e-14
-2.35688e-08
-1.09921e-08
1.88072e-13
-2.38746e-08
-9.72238e-09
-8.50087e-13
-2.36336e-08
-9.12201e-09
9.34279e-13
-2.28868e-08
-8.04476e-09
-2.45633e-13
-2.19501e-08
-7.28714e-09
2.26168e-13
-2.0884e-08
-6.44148e-09
-3.35066e-13
-1.97819e-08
-5.77059e-09
-3.68605e-13
-1.86724e-08
-5.12439e-09
3.00595e-13
-1.7587e-08
-4.57691e-09
-5.43119e-13
-1.6531e-08
-4.08042e-09
7.19276e-13
-1.55226e-08
-3.6481e-09
-7.79442e-13
-1.45542e-08
-3.26335e-09
4.0328e-13
-1.3637e-08
-2.92434e-09
-2.12889e-13
-1.27685e-08
-2.62417e-09
-1.1975e-13
-1.19491e-08
-2.35942e-09
-9.99414e-14
-1.11773e-08
-2.12602e-09
1.61384e-15
-1.04522e-08
-1.92037e-09
-2.79675e-14
-9.77192e-09
-1.73961e-09
1.22681e-14
-9.13419e-09
-1.58075e-09
-5.54626e-14
-8.53611e-09
-1.44137e-09
-3.64387e-14
-7.97477e-09
-1.31919e-09
-4.33974e-14
-7.44728e-09
-1.21203e-09
-2.89946e-14
-6.95074e-09
-1.1182e-09
-2.86416e-14
-6.48249e-09
-1.03574e-09
-3.08738e-14
-9.63173e-10
-3.97595e-14
-6.01606e-10
-9.15971e-10
-2.05824e-14
-2.59984e-09
-2.85367e-09
-6.32218e-14
-5.85244e-09
-5.0573e-09
-1.02857e-13
-9.69705e-09
-7.10741e-09
-6.92048e-14
-1.29865e-08
-8.57398e-09
7.274e-14
-1.4895e-08
-8.88262e-09
-7.50681e-14
-1.66959e-08
-9.1905e-09
2.63161e-13
-1.76746e-08
-8.74952e-09
-1.03633e-12
-1.83148e-08
-8.47617e-09
8.38041e-13
-1.85189e-08
-7.83968e-09
6.23638e-15
-1.84679e-08
-7.33467e-09
4.07683e-13
-1.81967e-08
-6.71398e-09
-8.47793e-14
-1.77851e-08
-6.18137e-09
-1.5394e-13
-1.72672e-08
-5.64169e-09
4.25411e-13
-1.6686e-08
-5.15877e-09
-3.97095e-13
-1.60579e-08
-4.70591e-09
7.89183e-13
-1.54115e-08
-4.29747e-09
-6.81923e-13
-1.47482e-08
-3.92423e-09
4.61393e-13
-1.40859e-08
-3.58703e-09
-9.20393e-14
-1.3428e-08
-3.28221e-09
-1.35544e-14
-1.27799e-08
-3.00781e-09
-1.70786e-14
-1.21446e-08
-2.76101e-09
6.33113e-14
-1.15257e-08
-2.53922e-09
1.69367e-14
-1.09246e-08
-2.34056e-09
4.11482e-14
-1.03428e-08
-2.16271e-09
-3.48082e-14
-9.78056e-09
-2.00387e-09
-2.39028e-14
-9.2378e-09
-1.86221e-09
-3.52377e-14
-8.71424e-09
-1.73585e-09
-2.36512e-14
-8.20923e-09
-1.62345e-09
-2.65803e-14
-7.72211e-09
-1.52308e-09
-2.92641e-14
-1.43339e-09
-3.94857e-14
-2.63426e-10
-6.52527e-10
-7.03118e-15
-1.10808e-09
-2.00899e-09
-2.40925e-14
-2.63116e-09
-3.53417e-09
-7.10926e-14
-4.8165e-09
-4.92184e-09
-4.60728e-14
-7.3528e-09
-6.03743e-09
4.94543e-14
-9.63219e-09
-6.60495e-09
-1.72183e-13
-1.16263e-08
-7.19527e-09
2.9049e-13
-1.31362e-08
-7.24524e-09
-1.0078e-12
-1.4271e-08
-7.3381e-09
5.65999e-13
-1.50037e-08
-7.10524e-09
1.19197e-13
-1.54562e-08
-6.88013e-09
2.1382e-13
-1.56564e-08
-6.5157e-09
-1.31785e-13
-1.568e-08
-6.15771e-09
-2.72245e-13
-1.55569e-08
-5.76539e-09
2.48888e-13
-1.53317e-08
-5.38533e-09
-4.89561e-13
-1.50225e-08
-5.01331e-09
6.35226e-13
-1.46601e-08
-4.66341e-09
-7.4705e-13
-1.42492e-08
-4.33351e-09
3.21543e-13
-1.381e-08
-4.02775e-09
-2.3143e-13
-1.33482e-08
-3.74501e-09
-1.41297e-13
-1.28715e-08
-3.48545e-09
-1.20154e-13
-1.23846e-08
-3.24818e-09
-1.93987e-14
-1.18924e-08
-3.03165e-09
-4.18268e-14
-1.13981e-08
-2.83495e-09
4.88649e-16
-1.09048e-08
-2.6564e-09
-5.67694e-14
-1.04142e-08
-2.49485e-09
-3.63555e-14
-9.92778e-09
-2.34894e-09
-3.89868e-14
-9.4468e-09
-2.21713e-09
-2.38448e-14
-8.97201e-09
-2.09849e-09
-2.38012e-14
-8.50408e-09
-1.99122e-09
-2.5504e-14
-1.89421e-09
-3.23348e-14
-2.52471e-10
-4.00086e-10
8.02891e-15
-1.04587e-09
-1.21513e-09
6.3787e-14
-2.37465e-09
-2.20613e-09
-8.34734e-14
-4.0397e-09
-3.25853e-09
-3.27386e-13
-5.79507e-09
-4.28102e-09
8.60356e-14
-7.40907e-09
-4.98977e-09
1.64297e-13
-8.92456e-09
-5.68131e-09
-2.64889e-14
-1.0215e-08
-5.96145e-09
-1.12508e-12
-1.13105e-08
-6.24104e-09
3.69845e-13
-1.21703e-08
-6.24194e-09
3.896e-13
-1.28366e-08
-6.21004e-09
4.20261e-13
-1.33064e-08
-6.04634e-09
8.41063e-14
-1.36134e-08
-5.84889e-09
-2.98818e-14
-1.37747e-08
-5.60344e-09
4.27301e-13
-1.38198e-08
-5.34032e-09
-2.94795e-13
-1.37635e-08
-5.06677e-09
7.54251e-13
-1.36326e-08
-4.79672e-09
-5.83349e-13
-1.34336e-08
-4.52995e-09
4.20964e-13
-1.3186e-08
-4.27549e-09
-6.57851e-14
-1.28971e-08
-4.03382e-09
9.04465e-15
-1.25752e-08
-3.8073e-09
2.12107e-15
-1.22266e-08
-3.59646e-09
7.53248e-14
-1.1857e-08
-3.40093e-09
2.96299e-14
-1.14709e-08
-3.2209e-09
4.82974e-14
-1.10719e-08
-3.05548e-09
-2.24908e-14
-1.06628e-08
-2.90416e-09
-1.57812e-14
-1.02458e-08
-2.76612e-09
-2.49161e-14
-9.82293e-09
-2.64017e-09
-1.59473e-14
-9.39578e-09
-2.52579e-09
-1.63777e-14
-8.96579e-09
-2.42136e-09
-1.86637e-14
-2.32597e-09
-2.55482e-14
-1.30774e-10
-2.69309e-10
4.34158e-15
-5.41511e-10
-8.04571e-10
-1.77816e-14
-1.29587e-09
-1.45115e-09
-4.98534e-14
-2.35299e-09
-2.19771e-09
3.98895e-13
-3.64404e-09
-2.99388e-09
-3.2383e-13
-4.98327e-09
-3.64933e-09
4.41184e-14
-6.36667e-09
-4.30311e-09
-4.34974e-13
-7.64193e-09
-4.6886e-09
-6.15194e-13
-8.78681e-09
-5.09527e-09
2.59269e-13
-9.76742e-09
-5.25736e-09
4.43209e-13
-1.05857e-08
-5.3883e-09
3.79842e-13
-1.12423e-08
-5.39099e-09
-1.13756e-13
-1.17433e-08
-5.34683e-09
-1.05812e-13
-1.2107e-08
-5.2398e-09
2.87814e-13
-1.23488e-08
-5.09895e-09
-3.41411e-13
-1.24833e-08
-4.92998e-09
6.48721e-13
-1.25312e-08
-4.7509e-09
-5.25623e-13
-1.25008e-08
-4.55819e-09
3.86581e-13
-1.24095e-08
-4.3677e-09
-1.46905e-13
-1.22651e-08
-4.17887e-09
-8.60956e-14
-1.20762e-08
-3.99678e-09
-8.86912e-14
-1.18493e-08
-3.82356e-09
-6.90411e-15
-1.15904e-08
-3.65996e-09
-3.22654e-14
-1.13042e-08
-3.50713e-09
2.51631e-15
-1.09951e-08
-3.36492e-09
-4.69445e-14
-1.0666e-08
-3.2335e-09
-2.97017e-14
-1.03199e-08
-3.11255e-09
-2.92754e-14
-9.95902e-09
-3.00126e-09
-1.63293e-14
-9.58548e-09
-2.8995e-09
-1.24806e-14
-9.20116e-09
-2.80582e-09
-1.29734e-14
-2.71953e-09
-1.98947e-14
-1.17963e-10
-1.51348e-10
1.6204e-15
-4.79694e-10
-4.43011e-10
-1.07117e-14
-1.10982e-09
-8.20836e-10
-6.5617e-14
-1.96411e-09
-1.34206e-09
1.14318e-13
-2.97603e-09
-1.98357e-09
-8.17442e-14
-4.05023e-09
-2.57214e-09
2.74465e-13
-5.12376e-09
-3.23341e-09
-2.14435e-13
-6.1947e-09
-3.6191e-09
-4.45785e-13
-7.17875e-09
-4.10796e-09
5.30597e-13
-8.09665e-09
-4.33512e-09
5.68628e-13
-8.89534e-09
-4.58536e-09
5.34437e-13
-9.58637e-09
-4.69818e-09
2.66556e-13
-1.0159e-08
-4.77126e-09
2.0482e-13
-1.06246e-08
-4.77257e-09
5.4456e-13
-1.09863e-08
-4.73646e-09
-8.46014e-14
-1.12512e-08
-4.66217e-09
7.81628e-13
-1.14333e-08
-4.56966e-09
-3.10248e-13
-1.15359e-08
-4.45289e-09
5.05952e-13
-1.1572e-08
-4.33065e-09
9.97299e-14
-1.15484e-08
-4.20171e-09
1.34559e-13
-1.14725e-08
-4.07223e-09
8.16086e-14
-1.13505e-08
-3.94496e-09
1.20683e-13
-1.11886e-08
-3.82147e-09
6.4407e-14
-1.09917e-08
-3.70376e-09
6.55204e-14
-1.07642e-08
-3.59243e-09
-2.9594e-15
-1.05095e-08
-3.48831e-09
-4.90459e-15
-1.02306e-08
-3.39158e-09
-1.48907e-14
-9.93013e-09
-3.30184e-09
-8.63969e-15
-9.6104e-09
-3.21931e-09
-7.56556e-15
-9.27355e-09
-3.14274e-09
-1.08242e-14
-3.07165e-09
-1.52485e-14
-7.24967e-11
-7.88665e-11
-1.78204e-15
-2.92106e-10
-2.23594e-10
-9.19138e-15
-6.88444e-10
-4.24144e-10
-1.32893e-14
-1.26384e-09
-7.64596e-10
2.75229e-13
-2.02412e-09
-1.22661e-09
-2.07919e-13
-2.8671e-09
-1.72427e-09
4.54752e-13
-3.8015e-09
-2.30588e-09
-6.70399e-13
-4.75433e-09
-2.6657e-09
-2.82801e-13
-5.66703e-09
-3.19816e-09
-2.04339e-13
-6.56168e-09
-3.4397e-09
1.19958e-13
-7.35779e-09
-3.78935e-09
-1.24343e-13
-8.08823e-09
-3.97246e-09
-5.28719e-13
-8.72828e-09
-4.13377e-09
-5.00386e-13
-9.27601e-09
-4.22792e-09
-2.15821e-13
-9.73463e-09
-4.281e-09
-6.40188e-13
-1.01008e-08
-4.29665e-09
7.87888e-14
-1.03878e-08
-4.28645e-09
-6.94929e-13
-1.05931e-08
-4.24825e-09
-3.58596e-14
-1.07305e-08
-4.19562e-09
-3.72564e-13
-1.08043e-08
-4.12968e-09
-2.69248e-13
-1.08218e-08
-4.05625e-09
-2.33235e-13
-1.07884e-08
-3.97911e-09
-1.25386e-13
-1.071e-08
-3.90046e-09
-1.03781e-13
-1.05911e-08
-3.823e-09
-4.81942e-14
-1.04361e-08
-3.74785e-09
-6.52504e-14
-1.02485e-08
-3.67636e-09
-3.9069e-14
-1.00311e-08
-3.60916e-09
-2.89768e-14
-9.78699e-09
-3.54619e-09
-1.36862e-14
-9.51845e-09
-3.488e-09
-6.53911e-15
-9.22777e-09
-3.43353e-09
-9.28554e-15
-3.38245e-09
-1.00525e-14
-5.85088e-11
-2.03434e-11
1.27685e-14
-2.38338e-10
-4.40972e-11
-3.15889e-14
-5.60424e-10
-1.01987e-10
-8.48886e-16
-1.01359e-09
-3.06492e-10
5.54994e-13
-1.62413e-09
-6.20931e-10
-8.10582e-13
-2.27976e-09
-1.0694e-09
3.57751e-13
-3.06909e-09
-1.51857e-09
2.1294e-13
-3.81924e-09
-1.9142e-09
-5.99501e-13
-4.65341e-09
-2.36327e-09
1.45115e-13
-5.44564e-09
-2.64714e-09
2.80365e-13
-6.20449e-09
-3.03024e-09
6.7514e-15
-6.91884e-09
-3.26001e-09
-2.19093e-13
-7.56718e-09
-3.48643e-09
-1.73184e-13
-8.14112e-09
-3.65437e-09
1.16477e-13
-8.64242e-09
-3.78094e-09
-2.96816e-13
-9.06543e-09
-3.87333e-09
2.61359e-13
-9.41948e-09
-3.93455e-09
-4.04372e-13
-9.69903e-09
-3.9685e-09
1.2384e-13
-9.91314e-09
-3.98171e-09
-3.3377e-14
-1.00644e-08
-3.97843e-09
2.70611e-14
-1.0158e-08
-3.96279e-09
-1.81828e-15
-1.01985e-08
-3.93849e-09
4.28113e-14
-1.01909e-08
-3.90801e-09
1.75042e-14
-1.01394e-08
-3.87449e-09
2.85851e-14
-1.00479e-08
-3.83945e-09
-1.28667e-14
-9.91965e-09
-3.80467e-09
-1.00262e-14
-9.75774e-09
-3.77112e-09
-1.15822e-14
-9.56495e-09
-3.73904e-09
-5.23497e-15
-9.34374e-09
-3.70925e-09
-1.02359e-15
-9.09645e-09
-3.68084e-09
-6.37476e-15
-3.65364e-09
-5.8775e-15
-3.5605e-11
1.52646e-11
2.4763e-15
-1.4342e-10
6.38221e-11
2.14659e-14
-3.3434e-10
8.86821e-11
1.3289e-14
-6.54554e-10
1.18056e-11
-2.34565e-13
-1.10856e-09
-1.64425e-10
2.56358e-13
-1.67515e-09
-5.0081e-10
1.24318e-13
-2.35751e-09
-8.37121e-10
-2.52234e-13
-3.05358e-09
-1.22324e-09
-1.21188e-13
-3.792e-09
-1.61717e-09
8.11248e-13
-4.51857e-09
-1.92688e-09
-8.41437e-13
-5.23662e-09
-2.31435e-09
-3.20696e-13
-5.91228e-09
-2.58667e-09
-1.73789e-13
-6.55223e-09
-2.84888e-09
-5.55202e-13
-7.13887e-09
-3.06955e-09
1.64018e-14
-7.66842e-09
-3.25321e-09
-4.18653e-13
-8.13242e-09
-3.4101e-09
4.97316e-14
-8.5331e-09
-3.53556e-09
-3.28234e-13
-8.8663e-09
-3.63554e-09
2.44571e-14
-9.1374e-09
-3.71186e-09
-2.10595e-13
-9.34818e-09
-3.76867e-09
-1.56502e-13
-9.50247e-09
-3.80938e-09
-1.54869e-13
-9.60357e-09
-3.83789e-09
-8.15509e-14
-9.65533e-09
-3.85666e-09
-6.69709e-14
-9.6612e-09
-3.86892e-09
-3.00221e-14
-9.6246e-09
-3.87636e-09
-4.13128e-14
-9.54854e-09
-3.88099e-09
-2.4085e-14
-9.43583e-09
-3.884e-09
-1.41364e-14
-9.28917e-09
-3.88582e-09
-3.5756e-15
-9.11098e-09
-3.88749e-09
4.05999e-15
-8.90363e-09
-3.8882e-09
-9.35023e-16
-3.8879e-09
6.35789e-16
-3.12612e-11
4.65205e-11
-1.07632e-15
-1.25196e-10
1.5784e-10
9.10003e-15
-2.9245e-10
2.55823e-10
1.88062e-14
-5.67387e-10
2.86728e-10
7.84025e-15
-9.19215e-10
1.87626e-10
4.12342e-15
-1.40178e-09
-1.84831e-11
-4.84557e-14
-1.93588e-09
-3.0306e-10
-1.07645e-13
-2.51993e-09
-6.41927e-10
-1.05225e-13
-3.15022e-09
-9.75691e-10
1.20654e-12
-3.80617e-09
-1.27531e-09
-4.96595e-13
-4.48133e-09
-1.63842e-09
1.30194e-13
-5.1301e-09
-1.93735e-09
1.7044e-13
-5.74762e-09
-2.23083e-09
-2.89049e-14
-6.32135e-09
-2.49484e-09
3.32754e-13
-6.8476e-09
-2.7264e-09
2.48423e-14
-7.32156e-09
-2.9352e-09
2.55632e-13
-7.74243e-09
-3.11456e-09
3.5805e-15
-8.10686e-09
-3.26996e-09
2.0718e-13
-8.41607e-09
-3.40169e-09
1.70846e-13
-8.67013e-09
-3.51376e-09
1.73286e-13
-8.87061e-09
-3.60835e-09
1.00104e-13
-9.01955e-09
-3.68846e-09
1.00026e-13
-9.11963e-09
-3.75624e-09
5.97771e-14
-9.17344e-09
-3.81486e-09
4.95468e-14
-9.18367e-09
-3.86604e-09
1.10863e-14
-9.15281e-09
-3.91181e-09
4.26331e-15
-9.0833e-09
-3.95344e-09
2.36581e-15
-8.97764e-09
-3.99144e-09
4.21533e-15
-8.83812e-09
-4.02694e-09
9.31423e-15
-8.66706e-09
-4.05918e-09
2.60421e-15
-4.08817e-09
4.77393e-15
-2.28457e-11
6.93673e-11
-2.9487e-15
-9.19156e-11
2.26921e-10
-5.65713e-15
-2.16466e-10
3.80385e-10
3.27258e-14
-4.09049e-10
4.78935e-10
-4.6486e-14
-6.91627e-10
4.70366e-10
-1.68466e-14
-1.06873e-09
3.58523e-10
-2.16992e-14
-1.53393e-09
1.64816e-10
1.72843e-13
-2.07981e-09
-1.03021e-10
-6.69026e-13
-2.638e-09
-4.1317e-10
5.09714e-13
-3.21956e-09
-6.96455e-10
-3.32555e-13
-3.82615e-09
-1.03361e-09
-2.93033e-13
-4.42645e-09
-1.3389e-09
-1.54309e-13
-5.01479e-09
-1.64353e-09
-2.79596e-13
-5.57695e-09
-1.93412e-09
-1.45758e-13
-6.1026e-09
-2.20164e-09
-1.74009e-13
-6.58578e-09
-2.45278e-09
-1.49257e-13
-7.02223e-09
-2.67913e-09
-1.28786e-13
-7.40857e-09
-2.88419e-09
-1.29023e-13
-7.7448e-09
-3.06666e-09
-1.96798e-13
-8.03054e-09
-3.22899e-09
-1.54845e-13
-8.26656e-09
-3.37311e-09
-1.4718e-13
-8.45365e-09
-3.50186e-09
-8.56919e-14
-8.59325e-09
-3.61702e-09
-6.00492e-14
-8.68701e-09
-3.72137e-09
-2.87652e-14
-8.73688e-09
-3.81641e-09
-2.66271e-14
-8.74485e-09
-3.90402e-09
-1.33188e-14
-8.71296e-09
-3.98541e-09
-1.18129e-15
-8.64341e-09
-4.06103e-09
5.23222e-15
-8.53832e-09
-4.13201e-09
1.39194e-14
-8.39989e-09
-4.19754e-09
7.61262e-15
-4.25764e-09
1.21823e-14
-1.92073e-11
8.85757e-11
3.26965e-15
-7.90595e-11
2.86786e-10
6.197e-15
-1.89418e-10
4.90952e-10
4.0459e-16
-3.52348e-10
6.41303e-10
-6.78057e-14
-6.00107e-10
7.18766e-10
6.89293e-14
-9.13852e-10
6.70718e-10
-1.91916e-13
-1.30472e-09
5.59436e-10
3.12941e-13
-1.77423e-09
3.60484e-10
-5.46571e-13
-2.2856e-09
1.0321e-10
6.4686e-13
-2.81634e-09
-1.64713e-10
1.1441e-13
-3.37013e-09
-4.78568e-10
1.02218e-13
-3.91944e-09
-7.8723e-10
4.19167e-13
-4.4602e-09
-1.09987e-09
2.93046e-13
-4.98497e-09
-1.40864e-09
1.47744e-13
-5.48314e-09
-1.70204e-09
2.33532e-13
-5.95178e-09
-1.98364e-09
2.61015e-14
-6.38429e-09
-2.24615e-09
1.50912e-13
-6.77753e-09
-2.49029e-09
3.77271e-14
-7.12852e-09
-2.71476e-09
1.58232e-13
-7.43531e-09
-2.92134e-09
1.51899e-13
-7.69681e-09
-3.11096e-09
8.9656e-14
-7.91271e-09
-3.28543e-09
8.14157e-14
-8.0834e-09
-3.44595e-09
5.55936e-14
-8.20961e-09
-3.59487e-09
4.16725e-14
-8.29249e-09
-3.73334e-09
1.84114e-14
-8.33341e-09
-3.86297e-09
9.81397e-15
-8.33393e-09
-3.98475e-09
1.10758e-14
-8.29591e-09
-4.09894e-09
1.01222e-14
-8.22122e-09
-4.20656e-09
1.6341e-14
-8.11192e-09
-4.30669e-09
9.21747e-15
-4.39926e-09
1.34826e-14
-1.41399e-11
1.02715e-10
-1.02669e-15
-6.05102e-11
3.33169e-10
6.81047e-15
-1.47309e-10
5.77657e-10
7.28378e-14
-2.83156e-10
7.77483e-10
3.14156e-14
-4.86476e-10
9.22068e-10
-1.37944e-13
-7.65558e-10
9.48477e-10
-8.70939e-14
-1.10001e-09
8.97696e-10
2.83449e-13
-1.50252e-09
7.55525e-10
-7.25682e-13
-1.94138e-09
5.44317e-10
3.52492e-13
-2.41006e-09
3.05503e-10
1.09835e-13
-2.9098e-09
2.15509e-11
-1.35906e-14
-3.41855e-09
-2.7714e-10
2.41657e-13
-3.92643e-09
-5.89777e-10
1.96504e-13
-4.429e-09
-9.06479e-10
-6.84521e-14
-4.91116e-09
-1.21877e-09
1.71971e-13
-5.37179e-09
-1.52324e-09
-1.38728e-13
-5.80141e-09
-1.81572e-09
1.90313e-13
-6.19846e-09
-2.09283e-09
-3.78501e-14
-6.55865e-09
-2.35459e-09
-1.08727e-14
-6.87977e-09
-2.6003e-09
-1.81354e-14
-7.16005e-09
-2.83078e-09
-4.16838e-14
-7.39818e-09
-3.04738e-09
-2.04894e-14
-7.59353e-09
-3.25068e-09
-1.04593e-14
-7.74605e-09
-3.44241e-09
-1.14453e-15
-7.85618e-09
-3.62327e-09
1.42981e-15
-7.92477e-09
-3.79443e-09
3.63627e-15
-7.95292e-09
-3.95657e-09
1.24845e-14
-7.94214e-09
-4.10969e-09
1.29944e-14
-7.89405e-09
-4.25457e-09
2.00944e-14
-7.81052e-09
-4.3901e-09
1.23601e-14
-4.51606e-09
1.74434e-14
-1.18137e-11
1.14531e-10
-2.50443e-16
-5.20998e-11
3.73481e-10
5.42066e-15
-1.24025e-10
6.49518e-10
6.14702e-14
-2.474e-10
9.01506e-10
6.83523e-14
-4.16377e-10
1.0908e-09
-1.34689e-13
-6.57018e-10
1.18688e-09
-2.02669e-13
-9.4301e-10
1.18626e-09
1.15641e-13
-1.30366e-09
1.11062e-09
-5.03031e-13
-1.70087e-09
9.45194e-10
5.40069e-13
-2.1228e-09
7.30465e-10
2.89613e-13
-2.57237e-09
4.7299e-10
1.94267e-13
-3.03231e-09
1.86097e-10
5.04535e-13
-3.50005e-09
-1.18159e-10
4.14042e-13
-3.96587e-09
-4.39502e-10
1.93855e-13
-4.41973e-09
-7.62383e-10
4.00658e-13
-4.86126e-09
-1.08122e-09
4.05608e-14
-5.27995e-09
-1.39523e-09
3.94016e-13
-5.67389e-09
-1.69769e-09
1.12436e-13
-6.0371e-09
-1.98986e-09
2.67098e-13
-6.36646e-09
-2.26962e-09
2.1916e-13
-6.6591e-09
-2.53714e-09
1.45068e-13
-6.91301e-09
-2.79272e-09
1.11587e-13
-7.12685e-09
-3.03631e-09
8.10178e-14
-7.29991e-09
-3.26897e-09
5.27271e-14
-7.43199e-09
-3.4909e-09
3.47903e-14
-7.52338e-09
-3.70283e-09
1.87159e-14
-7.57475e-09
-3.905e-09
1.87506e-14
-7.58723e-09
-4.09706e-09
1.30487e-14
-7.56218e-09
-4.27948e-09
1.83871e-14
-7.50124e-09
-4.45088e-09
1.01335e-14
-4.61081e-09
1.68079e-14
-9.71148e-12
1.24242e-10
1.47622e-16
-4.39562e-11
4.07817e-10
1.31758e-14
-1.0955e-10
7.14838e-10
2.90848e-14
-2.12858e-10
1.00515e-09
-9.95326e-15
-3.60332e-10
1.23838e-09
-1.5284e-13
-5.70344e-10
1.3937e-09
-2.71295e-13
-8.24077e-10
1.44274e-09
1.98587e-13
-1.13294e-09
1.41383e-09
-5.24565e-13
-1.46365e-09
1.27675e-09
1.56405e-13
-1.82707e-09
1.09493e-09
6.31967e-15
-2.22985e-09
8.75212e-10
-1.29009e-13
-2.652e-09
6.08984e-10
1.76026e-13
-3.08386e-09
3.14681e-10
6.66826e-14
-3.52517e-09
6.59735e-13
-1.83117e-13
-3.96285e-09
-3.24482e-10
5.3015e-14
-4.39207e-09
-6.53656e-10
-4.12295e-13
-4.80352e-09
-9.83765e-10
1.57511e-13
-5.19377e-09
-1.30814e-09
-2.33357e-13
-5.55755e-09
-1.62668e-09
-7.41695e-14
-5.89127e-09
-1.93644e-09
-8.38186e-14
-6.19184e-09
-2.23701e-09
-8.35962e-14
-6.45684e-09
-2.52809e-09
-6.30484e-14
-6.68435e-09
-2.80906e-09
-3.44739e-14
-6.87316e-09
-3.08034e-09
-2.1243e-14
-7.02256e-09
-3.34161e-09
-4.21335e-16
-7.1324e-09
-3.59305e-09
2.68324e-15
-7.20295e-09
-3.83444e-09
1.45451e-14
-7.23501e-09
-4.065e-09
1.2635e-14
-7.22965e-09
-4.2848e-09
1.98483e-14
-7.18831e-09
-4.49215e-09
1.19346e-14
-4.68627e-09
1.99733e-14
-7.80343e-12
1.32044e-10
-1.35374e-15
-3.49685e-11
4.3507e-10
1.57338e-14
-8.78315e-11
7.67772e-10
1.43464e-14
-1.74669e-10
1.08997e-09
-1.93835e-13
-3.04667e-10
1.37122e-09
4.7137e-13
-4.75099e-10
1.56638e-09
-2.4693e-15
-6.91808e-10
1.65852e-09
-4.39522e-13
-9.54362e-10
1.67047e-09
-2.53046e-13
-1.25386e-09
1.57718e-09
1.42289e-13
-1.59288e-09
1.43505e-09
4.18552e-14
-1.96043e-09
1.24229e-09
-7.87929e-14
-2.3435e-09
9.93233e-10
2.47314e-13
-2.74321e-09
7.15513e-10
1.15224e-13
-3.1539e-09
4.10524e-10
-1.18198e-13
-3.56707e-09
8.90465e-11
1.14109e-13
-3.97764e-09
-2.44436e-10
-3.13836e-13
-4.3766e-09
-5.84491e-10
2.40211e-13
-4.75925e-09
-9.25806e-10
-1.44931e-13
-5.11969e-09
-1.26593e-09
7.33986e-14
-5.45386e-09
-1.60197e-09
4.91117e-14
-5.75815e-09
-1.93243e-09
2.82751e-14
-6.02984e-09
-2.2562e-09
1.93839e-14
-6.26661e-09
-2.5721e-09
2.32625e-14
-6.46686e-09
-2.87993e-09
1.12492e-14
-6.62945e-09
-3.17886e-09
1.86359e-14
-6.75384e-09
-3.46851e-09
9.22088e-15
-6.83993e-09
-3.74818e-09
1.53177e-14
-6.8882e-09
-4.01663e-09
9.32063e-15
-6.89946e-09
-4.27345e-09
1.54632e-14
-6.87495e-09
-4.51656e-09
7.29617e-15
-4.74483e-09
1.68277e-14
-5.86806e-12
1.37912e-10
5.96875e-16
-2.74669e-11
4.56653e-10
-2.15642e-15
-6.97572e-11
8.10033e-10
-3.72995e-15
-1.35887e-10
1.15697e-09
9.88711e-14
-2.33215e-10
1.46774e-09
-1.06358e-13
-3.7344e-10
1.70576e-09
4.41342e-15
-5.68097e-10
1.85443e-09
2.02764e-13
-7.9588e-10
1.9027e-09
3.35607e-13
-1.067e-09
1.84435e-09
-5.42265e-13
-1.36369e-09
1.73429e-09
4.03942e-13
-1.69076e-09
1.56984e-09
1.55939e-14
-2.04853e-09
1.35174e-09
9.32976e-14
-2.42502e-09
1.09319e-09
1.29412e-13
-2.81569e-09
8.00679e-10
-8.28253e-14
-3.21114e-09
4.84816e-10
1.01033e-13
-3.60638e-09
1.49813e-10
-2.68227e-13
-3.99311e-09
-1.97394e-10
2.4236e-13
-4.36641e-09
-5.52848e-10
-1.28799e-13
-4.72078e-09
-9.11694e-10
3.24872e-14
-5.05209e-09
-1.27085e-09
1.58994e-16
-5.35659e-09
-1.62809e-09
-1.58074e-14
-5.63132e-09
-1.98166e-09
-1.91446e-14
-5.87363e-09
-2.32993e-09
-3.5486e-15
-6.0816e-09
-2.67207e-09
-5.57219e-15
-6.25373e-09
-3.00676e-09
1.4882e-14
-6.38916e-09
-3.33308e-09
1.05617e-14
-6.48748e-09
-3.64981e-09
1.97541e-14
-6.54888e-09
-3.95521e-09
1.32437e-14
-6.57392e-09
-4.24838e-09
1.83551e-14
-6.56364e-09
-4.52677e-09
8.94716e-15
-4.78886e-09
1.8418e-14
-4.48473e-12
1.42396e-10
3.63931e-16
-2.11114e-11
4.73275e-10
1.2144e-17
-5.27965e-11
8.41689e-10
-3.12777e-15
-1.08611e-10
1.21287e-09
7.07234e-15
-1.84428e-10
1.54379e-09
8.71504e-15
-2.95953e-10
1.81674e-09
-3.89115e-14
-4.4683e-10
2.00498e-09
-2.60928e-14
-6.3717e-10
2.09528e-09
2.20217e-13
-8.90957e-10
2.09267e-09
-6.72754e-13
-1.17418e-09
2.02007e-09
4.09668e-13
-1.48064e-09
1.87629e-09
-2.75394e-14
-1.81232e-09
1.684e-09
1.02456e-13
-2.16289e-09
1.44451e-09
1.1822e-13
-2.52926e-09
1.16632e-09
-1.24759e-13
-2.90343e-09
8.59013e-10
8.80315e-14
-3.28033e-09
5.25938e-10
-2.67298e-13
-3.6516e-09
1.74304e-10
2.41899e-13
-4.01306e-09
-1.91415e-10
-1.04522e-13
-4.35878e-09
-5.65561e-10
5.73149e-14
-4.68437e-09
-9.44894e-10
3.56016e-14
-4.98594e-09
-1.32618e-09
2.31338e-14
-5.26039e-09
-1.70697e-09
1.28812e-14
-5.5049e-09
-2.08521e-09
1.78627e-14
-5.71729e-09
-2.45951e-09
5.15642e-15
-5.89574e-09
-2.82809e-09
1.99348e-14
-6.03912e-09
-3.18952e-09
9.84045e-15
-6.14671e-09
-3.54203e-09
1.67963e-14
-6.21844e-09
-3.88335e-09
8.92032e-15
-6.25467e-09
-4.21204e-09
1.42915e-14
-6.25626e-09
-4.52507e-09
5.59411e-15
-4.82045e-09
1.62602e-14
-3.57307e-12
1.4597e-10
2.67138e-16
-1.65731e-11
4.86284e-10
2.10943e-15
-4.27848e-11
8.67821e-10
-1.38329e-14
-8.7259e-11
1.25739e-09
2.48955e-15
-1.55896e-10
1.61264e-09
6.47172e-15
-2.56142e-10
1.91677e-09
-1.95516e-14
-3.85482e-10
2.13335e-09
-7.78286e-14
-5.49371e-10
2.26281e-09
4.02662e-13
-7.63776e-10
2.30313e-09
-5.17094e-13
-1.01396e-09
2.27192e-09
2.86967e-13
-1.29625e-09
2.15898e-09
-7.45878e-15
-1.60464e-09
1.99328e-09
1.23082e-13
-1.93385e-09
1.77461e-09
1.23033e-13
-2.27965e-09
1.51188e-09
-1.07704e-13
-2.63425e-09
1.21369e-09
1.07321e-13
-2.99281e-09
8.84095e-10
-2.52529e-13
-3.34815e-09
5.29875e-10
2.3676e-13
-3.69609e-09
1.56398e-10
-1.11176e-13
-4.03066e-09
-2.30944e-10
3.62918e-14
-4.34787e-09
-6.27714e-10
2.01452e-14
-4.6439e-09
-1.03017e-09
5.61103e-15
-4.91542e-09
-1.43554e-09
-1.78106e-15
-5.15943e-09
-1.84127e-09
9.78867e-15
-5.37347e-09
-2.24552e-09
2.6991e-15
-5.5555e-09
-2.64604e-09
2.45263e-14
-5.7041e-09
-3.04087e-09
1.68695e-14
-5.81834e-09
-3.42771e-09
2.47405e-14
-5.89791e-09
-3.80373e-09
1.58243e-14
-5.94298e-09
-4.16691e-09
2.0025e-14
-5.95427e-09
-4.5137e-09
1.04603e-14
-4.84163e-09
2.05536e-14
-2.77044e-12
1.48742e-10
-2.02418e-15
-1.24965e-11
4.96092e-10
1.47037e-14
-3.36711e-11
8.88726e-10
-3.0062e-14
-6.82707e-11
1.29212e-09
7.75015e-15
-1.26183e-10
1.67073e-09
-2.91657e-15
-2.06904e-10
1.99749e-09
1.41544e-14
-3.2223e-10
2.24765e-09
-9.39793e-14
-4.72677e-10
2.41627e-09
3.17975e-13
-6.68256e-10
2.49483e-09
-4.58766e-13
-8.93782e-10
2.49806e-09
1.2059e-13
-1.15316e-09
2.41782e-09
-1.17544e-13
-1.43784e-09
2.27831e-09
7.81768e-14
-1.74385e-09
2.08081e-09
4.72169e-14
-2.0667e-09
1.83429e-09
-1.21975e-13
-2.39963e-09
1.54643e-09
8.68872e-14
-2.73811e-09
1.22218e-09
-2.54418e-13
-3.07567e-09
8.67562e-10
2.26082e-13
-3.40836e-09
4.89033e-10
-1.07483e-13
-3.73062e-09
9.14921e-11
4.2046e-14
-4.03824e-09
-3.19931e-10
1.83293e-14
-4.32717e-09
-7.41043e-10
6.10955e-15
-4.59396e-09
-1.16861e-09
-2.11315e-15
-4.83548e-09
-1.59962e-09
5.36529e-15
-5.04906e-09
-2.03181e-09
-4.36767e-15
-5.23244e-09
-2.46247e-09
1.67358e-14
-5.38402e-09
-2.88911e-09
8.34931e-15
-5.50266e-09
-3.30888e-09
1.69905e-14
-5.58788e-09
-3.71837e-09
9.13638e-15
-5.63972e-09
-4.11496e-09
1.47608e-14
-5.65876e-09
-4.49453e-09
6.41059e-15
-4.85411e-09
1.73713e-14
-2.13709e-12
1.50881e-10
4.17521e-17
-1.04057e-11
5.04367e-10
3.53491e-15
-2.74312e-11
9.05697e-10
-1.52832e-14
-5.65129e-11
1.3215e-09
3.43539e-14
-1.06086e-10
1.72043e-09
6.09821e-15
-1.81515e-10
2.07271e-09
-1.55646e-14
-2.85575e-10
2.35107e-09
-4.32777e-14
-4.19804e-10
2.55386e-09
3.60216e-13
-5.94021e-10
2.66544e-09
-4.71524e-13
-7.97457e-10
2.70225e-09
1.80444e-13
-1.03394e-09
2.65391e-09
-9.43318e-14
-1.29583e-09
2.5408e-09
9.67451e-14
-1.57921e-09
2.36438e-09
4.84834e-14
-1.88001e-09
2.13485e-09
-1.03604e-13
-2.1916e-09
1.85789e-09