/*--------------------------------*- C++ -*----------------------------------*\
| =========                 |                                                 |
| \\      /  F ield         | OpenFOAM: The Open Source CFD Toolbox           |
|  \\    /   O peration     | Version:  v2012                                 |
|   \\  /    A nd           | Website:  www.openfoam.com                      |
|    \\/     M anipulation  |                                                 |
\*---------------------------------------------------------------------------*/
FoamFile
{
    version     2.0;
    format      ascii;
    class       volVectorField;
    location    "0.15";
    object      U;
}
// * * * * * * * * * * * * * * * * * * * * * * * * * * * * * * * * * * * * * //

dimensions      [0 1 -1 0 0 0 0];


internalField   nonuniform List<vector> 
2650
(
(-0.0799442 -47.3149 0.000732501)
(0.131764 -45.6071 -0.00113402)
(0.300313 -46.2754 -0.00261798)
(0.806036 -39.5513 -0.00703345)
(0.192368 -15.8571 -0.00168348)
(0.0337347 -47.3398 -0.000266891)
(-0.0206422 -45.9458 0.000192191)
(0.196312 -47.1483 -0.00171228)
(0.79087 -39.7438 -0.0069002)
(0.10732 -15.1267 -0.000938364)
(0.239822 -47.5279 -0.00207018)
(-0.221701 -45.905 0.00194329)
(0.14281 -48.2271 -0.00124657)
(0.678295 -39.9832 -0.00591605)
(0.0684499 -14.6205 -0.000598262)
(0.402452 -47.9139 -0.00349143)
(-0.455834 -45.4671 0.00398307)
(0.177418 -49.2798 -0.00154804)
(0.470558 -40.0774 -0.00410147)
(0.114752 -14.0153 -0.00100195)
(0.516196 -48.3482 -0.00449566)
(-0.66273 -44.812 0.0057859)
(0.41295 -50.367 -0.00360348)
(0.248553 -40.1414 -0.00216411)
(0.232932 -13.6247 -0.00203181)
(0.540353 -48.6505 -0.00471254)
(-0.847086 -44.1641 0.00739435)
(0.759235 -51.4711 -0.00662544)
(-0.0418185 -40.0314 0.000367754)
(0.393068 -13.2816 -0.00342911)
(0.530107 -48.7092 -0.00462791)
(-0.845841 -43.7911 0.00738065)
(1.22852 -52.558 -0.0107214)
(-0.369088 -39.7104 0.00322146)
(0.560865 -13.0687 -0.00489245)
(0.357421 -48.6874 -0.00311638)
(-0.508487 -44.26 0.00443467)
(1.47983 -53.3492 -0.0129152)
(-0.812055 -39.1752 0.00708444)
(0.697352 -13.1775 -0.00608418)
(6.03034e-05 -48.7482 -6.08507e-06)
(0.222174 -45.9206 -0.00194338)
(1.42166 -53.3969 -0.0124101)
(-0.994061 -38.7318 0.00867225)
(0.784924 -13.8761 -0.00685185)
(-0.525796 -48.7508 0.00458522)
(1.12377 -48.4417 -0.00980991)
(0.743608 -52.1876 -0.00649554)
(-0.610547 -38.6418 0.00532722)
(0.973967 -14.2128 -0.00850897)
(-0.989056 -48.6601 0.00863117)
(1.59344 -50.9808 -0.0139071)
(-0.479651 -50.3956 0.00417971)
(0.309395 -39.6222 -0.00269842)
(0.926242 -13.7649 -0.00809574)
(-1.09786 -48.3115 0.00958902)
(1.4895 -52.4863 -0.0130024)
(-1.31104 -49.2387 0.0114367)
(1.32441 -41.7526 -0.0115553)
(0.557351 -12.9688 -0.00487746)
(-0.860617 -47.6704 0.00750961)
(0.630105 -52.5382 -0.00550384)
(-1.31112 -49.401 0.0114396)
(1.49885 -43.6001 -0.0130785)
(0.0286673 -11.7434 -0.000259692)
(-0.364634 -46.4103 0.00318471)
(-0.504092 -51.5115 0.00439548)
(-0.82617 -50.8578 0.0072095)
(0.452349 -44.552 -0.00394748)
(-0.497738 -10.8832 0.0043578)
(-0.165478 -45.3671 0.0014458)
(-1.52536 -50.7321 0.0133084)
(-1.1989 -52.9161 0.0104634)
(-1.61642 -45.583 0.014109)
(-0.800564 -15.1102 0.00700426)
(-0.25205 -41.8669 0.0022033)
(-1.59776 -47.0542 0.0139412)
(-2.58622 -50.5264 0.0225696)
(-3.88274 -43.9778 0.0338878)
(-2.64625 -13.8835 0.0231825)
(-1.02948 -39.7201 0.00898552)
(-2.96817 -43.4407 0.0259017)
(-5.71226 -46.4773 0.0498524)
(-7.06991 -45.8003 0.0617104)
(-8.79319 -32.4976 0.0767989)
(-2.11763 -28.7366 0.0184788)
(-5.59379 -30.4785 0.0488165)
(-10.4596 -31.7824 0.0912824)
(-16.262 -30.9668 0.141921)
(-22.796 -22.332 0.198906)
(-19.0988 -2.27501 0.166758)
(-11.2947 -3.34415 0.0985981)
(-8.49064 -1.66393 0.0740961)
(-5.72319 -1.11429 0.0499518)
(-4.33361 -0.694905 0.0378206)
(-3.11572 -0.45258 0.0271927)
(-2.41392 -0.297865 0.0210667)
(-1.8173 -0.200328 0.0158604)
(-1.42061 -0.135924 0.012398)
(-1.10688 -0.0932935 0.00966024)
(-0.87488 -0.0643342 0.00763554)
(-0.697253 -0.0446408 0.00608538)
(-0.561432 -0.0311443 0.00490004)
(-0.454996 -0.0218653 0.00397114)
(-0.372345 -0.015468 0.0032498)
(-0.307015 -0.0110471 0.00267963)
(-0.255179 -0.00798172 0.00222723)
(-0.213644 -0.00583652 0.00186474)
(-0.180076 -0.00432458 0.00157177)
(-0.15272 -0.00324784 0.00133301)
(-0.130233 -0.002473 0.00113675)
(-0.1116 -0.00190849 0.000974114)
(-0.0960396 -0.00149165 0.000838307)
(-0.0829495 -0.00118017 0.000724056)
(-0.07186 -0.00094541 0.000627264)
(-0.0624046 -0.000767137 0.000544686)
(-1.38043 -14.5996 0.012046)
(-3.33072 -14.5869 0.0290656)
(-5.90602 -14.2983 0.0515422)
(-8.82352 -14.7794 0.0770068)
(-11.7818 -13.5095 0.102828)
(-10.3326 -7.7068 0.0901891)
(-7.42759 -5.11637 0.0648379)
(-6.61645 -3.12402 0.057753)
(-5.06748 -2.18887 0.0442366)
(-4.29278 -1.4636 0.0374721)
(-3.40807 -1.05713 0.0297505)
(-2.86195 -0.752791 0.0249822)
(-2.33613 -0.557871 0.0203929)
(-1.95224 -0.41214 0.0170415)
(-1.62469 -0.310036 0.0141825)
(-1.36154 -0.233625 0.0118854)
(-1.14562 -0.177604 0.0100007)
(-0.96839 -0.135473 0.00845354)
(-0.820754 -0.103899 0.00716476)
(-0.698746 -0.080048 0.00609969)
(-0.596874 -0.0620186 0.00521039)
(-0.511758 -0.0483342 0.00446738)
(-0.44031 -0.0379158 0.00384367)
(-0.380096 -0.0299506 0.00331804)
(-0.329145 -0.0238327 0.00287326)
(-0.28584 -0.0191089 0.00249524)
(-0.248874 -0.0154406 0.00217255)
(-0.217178 -0.0125745 0.00189588)
(-0.189881 -0.0103205 0.00165759)
(-0.166269 -0.00853543 0.00145146)
(-0.145762 -0.00711109 0.00127237)
(-0.725974 -13.1062 0.00633447)
(-1.85264 -13.5211 0.0161662)
(-2.9419 -12.9244 0.0256729)
(-4.07753 -11.0477 0.0355854)
(-5.71777 -8.17134 0.0499026)
(-5.98353 -5.1754 0.0522254)
(-5.41339 -4.28197 0.047251)
(-4.88905 -2.9503 0.0426745)
(-4.16069 -2.30606 0.0363187)
(-3.6333 -1.6788 0.0317148)
(-3.05332 -1.29146 0.0266527)
(-2.65576 -0.972087 0.0231817)
(-2.25938 -0.751912 0.0197222)
(-1.95207 -0.579361 0.0170396)
(-1.68152 -0.452406 0.0146782)
(-1.45368 -0.354153 0.0126894)
(-1.26064 -0.279318 0.0110044)
(-1.09596 -0.221153 0.00956692)
(-0.953993 -0.175963 0.00832767)
(-0.832568 -0.140588 0.00726773)
(-0.727833 -0.112834 0.00635346)
(-0.637508 -0.0909616 0.00556501)
(-0.559371 -0.0736763 0.00488293)
(-0.491614 -0.0599705 0.00429147)
(-0.432722 -0.0490688 0.00377739)
(-0.381402 -0.0403675 0.00332941)
(-0.336565 -0.0333973 0.00293803)
(-0.297289 -0.0277914 0.00259519)
(-0.262793 -0.0232624 0.00229406)
(-0.232411 -0.0195848 0.00202882)
(-0.205587 -0.0165812 0.00179459)
(-0.646098 -6.14212 0.00563791)
(-1.6836 -6.13727 0.0146915)
(-2.80658 -6.36525 0.024492)
(-3.69715 -6.2981 0.0322662)
(-4.20385 -5.76 0.0366908)
(-4.01871 -4.59758 0.0350764)
(-3.77762 -3.74938 0.0329728)
(-3.54091 -2.87973 0.0309066)
(-3.15938 -2.288 0.0275777)
(-2.88842 -1.76199 0.0252122)
(-2.52357 -1.39059 0.0220279)
(-2.27943 -1.08472 0.0198963)
(-2.0046 -0.859901 0.0174978)
(-1.78266 -0.680626 0.0155606)
(-1.57789 -0.543783 0.0137733)
(-1.39731 -0.435771 0.0121972)
(-1.23962 -0.351416 0.0108207)
(-1.10049 -0.284534 0.00960631)
(-0.977034 -0.231457 0.00852866)
(-0.868587 -0.189053 0.00758202)
(-0.772629 -0.155077 0.00674439)
(-0.687845 -0.127731 0.00600431)
(-0.612794 -0.105653 0.0053492)
(-0.546266 -0.0877672 0.00476848)
(-0.487216 -0.0732326 0.00425303)
(-0.434723 -0.0613838 0.00379482)
(-0.387988 -0.0516936 0.00338687)
(-0.346315 -0.0437416 0.00302311)
(-0.309097 -0.0371909 0.00269823)
(-0.275804 -0.031771 0.00240758)
(-0.245978 -0.0272646 0.00214716)
(-0.309032 -5.47071 0.00269683)
(-0.694751 -5.3956 0.00606249)
(-1.22689 -5.30449 0.0107055)
(-1.70506 -4.84744 0.0148791)
(-2.23539 -4.20157 0.0195092)
(-2.45591 -3.44368 0.0214347)
(-2.57069 -2.94705 0.0224374)
(-2.55186 -2.37968 0.0222732)
(-2.42204 -1.98739 0.0211412)
(-2.30043 -1.60448 0.0200795)
(-2.08321 -1.31855 0.0181837)
(-1.93702 -1.06821 0.0169072)
(-1.74957 -0.873191 0.0152714)
(-1.59039 -0.711492 0.013882)
(-1.43759 -0.582481 0.0125484)
(-1.29663 -0.477621 0.0113181)
(-1.17047 -0.39321 0.010217)
(-1.05584 -0.324681 0.00921645)
(-0.951601 -0.269074 0.00830652)
(-0.858051 -0.223778 0.00748994)
(-0.773586 -0.186802 0.00675265)
(-0.697522 -0.156509 0.00608871)
(-0.628958 -0.131626 0.00549022)
(-0.567107 -0.111124 0.00495034)
(-0.51128 -0.0941845 0.00446304)
(-0.460844 -0.0801477 0.00402279)
(-0.41524 -0.0684818 0.00362473)
(-0.373971 -0.0587562 0.0032645)
(-0.33659 -0.0506195 0.00293819)
(-0.302701 -0.0437847 0.00264235)
(-0.271954 -0.038018 0.00237389)
(-0.282473 -2.80749 0.00246558)
(-0.676963 -2.74078 0.00590824)
(-1.141 -2.88869 0.00995637)
(-1.48816 -2.91697 0.0129863)
(-1.80978 -2.84873 0.0157947)
(-1.88724 -2.55921 0.0164714)
(-1.97571 -2.32036 0.0172441)
(-1.96507 -1.98708 0.0171513)
(-1.89939 -1.72166 0.016579)
(-1.84787 -1.446 0.0161292)
(-1.7093 -1.22114 0.0149198)
(-1.62969 -1.01845 0.0142245)
(-1.50473 -0.85116 0.0131342)
(-1.3958 -0.709443 0.0121834)
(-1.28575 -0.592131 0.011223)
(-1.17928 -0.494708 0.0102937)
(-1.08125 -0.414357 0.00943804)
(-0.989294 -0.347753 0.00863543)
(-0.903416 -0.292713 0.00788582)
(-0.824635 -0.247111 0.00719817)
(-0.752003 -0.209299 0.00656418)
(-0.685375 -0.177861 0.00598261)
(-0.624295 -0.151667 0.00544946)
(-0.568319 -0.129786 0.00496087)
(-0.517042 -0.111461 0.00451328)
(-0.47006 -0.0960735 0.00410319)
(-0.427007 -0.0831154 0.0037274)
(-0.387544 -0.0721705 0.00338294)
(-0.35136 -0.0628946 0.00306709)
(-0.31817 -0.0550027 0.00277735)
(-0.28772 -0.0482595 0.00251151)
(-0.150561 -2.26308 0.00131404)
(-0.353428 -2.17203 0.00308449)
(-0.587459 -2.20743 0.00512664)
(-0.84312 -2.19947 0.0073574)
(-1.09502 -2.13424 0.009555)
(-1.21167 -1.9519 0.0105743)
(-1.39664 -1.81288 0.0121897)
(-1.43107 -1.59132 0.0124904)
(-1.45598 -1.4232 0.0127086)
(-1.46221 -1.23151 0.0127629)
(-1.39124 -1.07101 0.0121435)
(-1.36267 -0.919641 0.0118936)
(-1.286 -0.788513 0.0112248)
(-1.21666 -0.673356 0.0106196)
(-1.14058 -0.57414 0.0099557)
(-1.06248 -0.489154 0.00927403)
(-0.987973 -0.41711 0.00862375)
(-0.915536 -0.355753 0.00799152)
(-0.845907 -0.304073 0.00738376)
(-0.780529 -0.260388 0.0068131)
(-0.718986 -0.223558 0.00627591)
(-0.66148 -0.192471 0.00577397)
(-0.607879 -0.166203 0.00530612)
(-0.558003 -0.14397 0.00487077)
(-0.511667 -0.125113 0.00446632)
(-0.468652 -0.109084 0.00409087)
(-0.428748 -0.0954247 0.00374256)
(-0.391745 -0.0837524 0.00341958)
(-0.357441 -0.0737452 0.00312015)
(-0.325646 -0.0651334 0.00284259)
(-0.296184 -0.0576911 0.00258538)
(-0.13375 -1.15269 0.00116731)
(-0.319629 -1.08219 0.00278949)
(-0.517932 -1.15148 0.00451991)
(-0.705654 -1.26328 0.00615778)
(-0.895482 -1.3426 0.00781367)
(-0.992317 -1.34928 0.00865995)
(-1.12918 -1.32241 0.00985569)
(-1.15208 -1.22412 0.0100556)
(-1.18707 -1.14406 0.0103617)
(-1.20336 -1.02349 0.0105038)
(-1.15943 -0.919133 0.0101202)
(-1.15441 -0.809633 0.0100759)
(-1.10467 -0.711749 0.00964199)
(-1.06059 -0.620588 0.0092572)
(-1.00833 -0.539901 0.00880118)
(-0.951979 -0.468306 0.00830943)
(-0.896433 -0.406453 0.00782464)
(-0.840509 -0.352096 0.00733654)
(-0.785124 -0.305515 0.00685312)
(-0.731712 -0.26532 0.00638692)
(-0.680291 -0.230829 0.00593809)
(-0.631265 -0.201247 0.00551018)
(-0.584756 -0.175883 0.00510423)
(-0.540795 -0.15412 0.00472052)
(-0.499373 -0.135426 0.00435898)
(-0.460424 -0.119344 0.00401901)
(-0.42386 -0.105481 0.00369987)
(-0.38958 -0.0935005 0.00340066)
(-0.357473 -0.0831159 0.00312041)
(-0.327425 -0.0740823 0.00285811)
(-0.299328 -0.0661912 0.00261281)
(-0.0805824 -0.767466 0.000703314)
(-0.198728 -0.711693 0.0017345)
(-0.311366 -0.747819 0.00271755)
(-0.444119 -0.843521 0.00387591)
(-0.59866 -0.965937 0.00522352)
(-0.674505 -0.979446 0.00588611)
(-0.824349 -1.0253 0.00719473)
(-0.871623 -0.943933 0.00760751)
(-0.931414 -0.927387 0.00813016)
(-0.96188 -0.838658 0.00839595)
(-0.949008 -0.775076 0.00828331)
(-0.965525 -0.696094 0.00842714)
(-0.941663 -0.625442 0.00821908)
(-0.91902 -0.556627 0.00802144)
(-0.887541 -0.493866 0.00774678)
(-0.849735 -0.43646 0.0074169)
(-0.810169 -0.385478 0.00707159)
(-0.768006 -0.339426 0.00670361)
(-0.724862 -0.299029 0.00632705)
(-0.681792 -0.263415 0.00595113)
(-0.639316 -0.232254 0.00558039)
(-0.597938 -0.205054 0.00521923)
(-0.55795 -0.181354 0.00487021)
(-0.519527 -0.16072 0.00453485)
(-0.482795 -0.142754 0.00421424)
(-0.447802 -0.127103 0.00390881)
(-0.414562 -0.113448 0.00361868)
(-0.38306 -0.101514 0.00334373)
(-0.353261 -0.0910539 0.00308362)
(-0.325116 -0.081856 0.00283793)
(-0.298571 -0.0737353 0.0026062)
(-0.0701829 -0.230226 0.000612653)
(-0.162603 -0.189107 0.00141942)
(-0.238139 -0.224289 0.00207874)
(-0.3891 -0.359358 0.00339667)
(-0.462149 -0.484846 0.00403361)
(-0.539248 -0.602548 0.00470648)
(-0.665162 -0.68027 0.00580413)
(-0.67842 -0.670673 0.00592059)
(-0.777357 -0.692231 0.00678495)
(-0.784241 -0.644138 0.00684541)
(-0.798191 -0.62662 0.00696675)
(-0.81994 -0.578972 0.00715645)
(-0.811673 -0.534762 0.0070844)
(-0.801947 -0.487644 0.0069995)
(-0.783713 -0.441695 0.00684044)
(-0.758877 -0.39821 0.00662377)
(-0.73117 -0.357744 0.00638197)
(-0.700046 -0.320421 0.00611036)
(-0.666938 -0.286632 0.0058214)
(-0.63271 -0.256174 0.00552267)
(-0.598029 -0.22895 0.00521997)
(-0.563438 -0.204726 0.00491805)
(-0.529335 -0.183247 0.0046204)
(-0.495994 -0.164245 0.0043294)
(-0.463634 -0.147456 0.00404696)
(-0.432389 -0.132628 0.00377425)
(-0.40235 -0.119525 0.00351206)
(-0.373571 -0.107933 0.00326088)
(-0.346077 -0.097654 0.0030209)
(-0.319875 -0.088512 0.00279218)
(-0.29496 -0.0803509 0.00257466)
(-0.0415512 -0.0295389 0.000362713)
(-0.0941137 0.00904257 0.000821634)
(-0.151469 -0.0174394 0.00132239)
(-0.223125 -0.123723 0.00194787)
(-0.309854 -0.217946 0.00270466)
(-0.405331 -0.361607 0.00353794)
(-0.478068 -0.424902 0.00417264)
(-0.541566 -0.476357 0.00472721)
(-0.622437 -0.49821 0.0054332)
(-0.645396 -0.485606 0.00563327)
(-0.675827 -0.490436 0.00589839)
(-0.693147 -0.466424 0.00604977)
(-0.699325 -0.442959 0.00610364)
(-0.698578 -0.414452 0.00609721)
(-0.691668 -0.384177 0.00603699)
(-0.677401 -0.354073 0.00591258)
(-0.659398 -0.324412 0.00575547)
(-0.63731 -0.296043 0.00556273)
(-0.612422 -0.269298 0.00534552)
(-0.585629 -0.244487 0.00511168)
(-0.55763 -0.221691 0.00486731)
(-0.528982 -0.200912 0.00461727)
(-0.500124 -0.182089 0.00436541)
(-0.471385 -0.165118 0.00411457)
(-0.44304 -0.149865 0.00386718)
(-0.415284 -0.136181 0.00362492)
(-0.388265 -0.123913 0.0033891)
(-0.362091 -0.112911 0.00316066)
(-0.336836 -0.103029 0.00294022)
(-0.312552 -0.0941309 0.00272824)
(-0.289272 -0.0860918 0.002525)
(-0.0356655 0.22322 0.000311297)
(-0.0814821 0.248487 0.000711276)
(-0.13079 0.22401 0.00114177)
(-0.197796 0.143528 0.00172661)
(-0.259701 0.0234121 0.00226661)
(-0.339918 -0.0938734 0.00296702)
(-0.403484 -0.193828 0.00352177)
(-0.437409 -0.273795 0.00381772)
(-0.509557 -0.323711 0.0044473)
(-0.539913 -0.343306 0.00471235)
(-0.577779 -0.36321 0.00504268)
(-0.597035 -0.361231 0.00521097)
(-0.611073 -0.354907 0.0053334)
(-0.615919 -0.342707 0.00537577)
(-0.615106 -0.32625 0.00536874)
(-0.607574 -0.308136 0.00530307)
(-0.596047 -0.288539 0.00520249)
(-0.580625 -0.268617 0.00506792)
(-0.562137 -0.248818 0.00490658)
(-0.541432 -0.229675 0.00472588)
(-0.519012 -0.211453 0.00453021)
(-0.49544 -0.194341 0.00432448)
(-0.471159 -0.178433 0.00411256)
(-0.446512 -0.163764 0.00389745)
(-0.421799 -0.150309 0.00368175)
(-0.397245 -0.138017 0.00346745)
(-0.373036 -0.126811 0.00325616)
(-0.349316 -0.116603 0.00304913)
(-0.326197 -0.107298 0.00284734)
(-0.303765 -0.0988026 0.00265153)
(-0.282087 -0.091024 0.00246228)
(-0.0249763 0.366318 0.000217942)
(-0.0603049 0.38797 0.000526294)
(-0.0962529 0.363386 0.000840175)
(-0.141333 0.30402 0.00123359)
(-0.194829 0.191889 0.00170008)
(-0.252584 0.0817894 0.00220449)
(-0.312266 -0.0151365 0.00272557)
(-0.363836 -0.102975 0.00317542)
(-0.418551 -0.169412 0.00365274)
(-0.451628 -0.207754 0.00394158)
(-0.494299 -0.244556 0.00431394)
(-0.510919 -0.261043 0.00445927)
(-0.531029 -0.270591 0.0046347)
(-0.540597 -0.272631 0.00471832)
(-0.545567 -0.26872 0.00476175)
(-0.544297 -0.261463 0.00475074)
(-0.53851 -0.251206 0.00470027)
(-0.528782 -0.239228 0.00461539)
(-0.515627 -0.226111 0.00450059)
(-0.499982 -0.212533 0.00436406)
(-0.482314 -0.19891 0.00420986)
(-0.463142 -0.185571 0.00404254)
(-0.442883 -0.172736 0.00386573)
(-0.421879 -0.160549 0.00368241)
(-0.400436 -0.149084 0.00349526)
(-0.3788 -0.138372 0.00330644)
(-0.35718 -0.128406 0.00311774)
(-0.335747 -0.119157 0.00293068)
(-0.31464 -0.110579 0.00274645)
(-0.293972 -0.102619 0.00256604)
(-0.273837 -0.0952183 0.00239026)
(-0.0186935 0.514197 0.00016319)
(-0.0562998 0.532302 0.000491484)
(-0.0801332 0.517299 0.000699301)
(-0.122797 0.451975 0.00107179)
(-0.174534 0.356822 0.00152293)
(-0.20967 0.244273 0.00182999)
(-0.270353 0.138536 0.00235955)
(-0.308176 0.0456262 0.00268962)
(-0.358789 -0.0318998 0.00313112)
(-0.391264 -0.0866427 0.00341479)
(-0.436233 -0.134548 0.00380724)
(-0.450358 -0.166793 0.00393078)
(-0.47168 -0.189741 0.00411676)
(-0.482012 -0.204638 0.00420701)
(-0.488817 -0.212176 0.00426644)
(-0.490555 -0.214899 0.00428166)
(-0.488111 -0.213278 0.00426036)
(-0.482308 -0.208729 0.00420973)
(-0.473204 -0.201941 0.00413029)
(-0.461659 -0.193735 0.00402954)
(-0.447915 -0.184639 0.0039096)
(-0.432455 -0.175089 0.00377466)
(-0.415659 -0.165399 0.00362809)
(-0.397849 -0.155804 0.00347265)
(-0.379319 -0.146458 0.00331093)
(-0.360318 -0.137463 0.0031451)
(-0.341065 -0.128873 0.00297706)
(-0.321744 -0.120713 0.00280844)
(-0.302515 -0.112983 0.00264061)
(-0.283511 -0.105669 0.00247472)
(-0.264847 -0.0987451 0.00231177)
(-0.0146465 0.608634 0.000127856)
(-0.0382388 0.628095 0.000333808)
(-0.0637582 0.621664 0.000556417)
(-0.102338 0.556742 0.000893228)
(-0.133138 0.481337 0.00116202)
(-0.181064 0.364943 0.00158045)
(-0.221631 0.267553 0.00193437)
(-0.26339 0.169348 0.00229867)
(-0.302107 0.0825975 0.00263635)
(-0.331192 0.0156843 0.00289038)
(-0.376843 -0.0416298 0.00328885)
(-0.390174 -0.0848987 0.00340547)
(-0.413674 -0.117869 0.00361048)
(-0.426463 -0.142423 0.00372218)
(-0.436111 -0.159156 0.00380642)
(-0.441229 -0.17006 0.00385113)
(-0.442101 -0.175962 0.00385877)
(-0.439804 -0.178009 0.00383873)
(-0.434144 -0.177063 0.00378935)
(-0.426036 -0.173904 0.00371859)
(-0.415646 -0.169155 0.00362793)
(-0.403397 -0.163317 0.00352102)
(-0.389626 -0.156772 0.00340084)
(-0.37463 -0.149817 0.00326997)
(-0.358693 -0.142669 0.00313088)
(-0.342061 -0.135485 0.00298573)
(-0.324956 -0.128373 0.00283644)
(-0.307574 -0.121403 0.00268474)
(-0.290084 -0.114617 0.00253209)
(-0.272637 -0.108039 0.00237979)
(-0.25536 -0.101673 0.00222896)
(-0.0118081 0.693935 0.000103083)
(-0.0326368 0.719525 0.000284911)
(-0.0538969 0.713415 0.000470424)
(-0.0881346 0.665276 0.000769363)
(-0.118168 0.588637 0.00103133)
(-0.156141 0.487261 0.00136272)
(-0.183776 0.384062 0.00160372)
(-0.228459 0.285214 0.00199369)
(-0.264789 0.192307 0.00231068)
(-0.289322 0.114726 0.00252498)
(-0.333853 0.048578 0.00291366)
(-0.344883 -0.00498992 0.00301021)
(-0.368032 -0.0485615 0.00321213)
(-0.381005 -0.0819682 0.00332544)
(-0.391425 -0.107454 0.0034164)
(-0.39823 -0.125972 0.00347581)
(-0.40123 -0.138935 0.00350202)
(-0.401472 -0.147102 0.00350415)
(-0.398563 -0.151648 0.00347877)
(-0.393274 -0.153304 0.00343262)
(-0.385671 -0.152759 0.00336628)
(-0.376126 -0.150559 0.00328298)
(-0.364941 -0.147136 0.00318537)
(-0.352389 -0.142837 0.00307583)
(-0.338734 -0.13793 0.00295665)
(-0.324213 -0.132618 0.00282993)
(-0.309045 -0.127053 0.00269755)
(-0.293428 -0.121348 0.00256126)
(-0.27754 -0.115582 0.00242259)
(-0.261538 -0.109809 0.0022829)
(-0.245562 -0.104067 0.00214343)
(-0.00996376 0.758431 8.6976e-05)
(-0.0268712 0.791139 0.000234584)
(-0.0466256 0.788227 0.000406991)
(-0.0781283 0.751861 0.000681963)
(-0.0982801 0.680036 0.000857506)
(-0.139038 0.588237 0.00121335)
(-0.160675 0.478103 0.00140219)
(-0.197662 0.377145 0.00172488)
(-0.228961 0.281425 0.00199793)
(-0.247469 0.197504 0.00215965)
(-0.288857 0.125405 0.0025209)
(-0.299992 0.0643722 0.00261842)
(-0.32332 0.013638 0.00282191)
(-0.337085 -0.0268085 0.00294208)
(-0.349551 -0.0591224 0.00305089)
(-0.358586 -0.0840332 0.00312975)
(-0.363845 -0.103013 0.00317569)
(-0.366429 -0.116686 0.00319827)
(-0.365945 -0.126258 0.00319406)
(-0.363035 -0.132402 0.00316867)
(-0.357809 -0.135841 0.00312307)
(-0.350583 -0.137142 0.00306001)
(-0.341629 -0.136767 0.00298188)
(-0.331203 -0.135098 0.00289089)
(-0.31955 -0.132437 0.0027892)
(-0.306901 -0.129026 0.00267881)
(-0.293469 -0.125053 0.00256158)
(-0.279451 -0.120663 0.00243924)
(-0.265026 -0.11597 0.00231335)
(-0.250359 -0.111058 0.00218532)
(-0.235597 -0.105992 0.00205644)
(-0.00705999 0.816643 6.16336e-05)
(-0.0232547 0.856569 0.000203006)
(-0.0372663 0.860752 0.000325306)
(-0.058791 0.828211 0.000513008)
(-0.0824486 0.766021 0.000718911)
(-0.120196 0.679175 0.00104894)
(-0.133864 0.573576 0.00116821)
(-0.164612 0.471113 0.00143648)
(-0.19622 0.363709 0.0017123)
(-0.212684 0.27337 0.00185614)
(-0.253609 0.197346 0.00221331)
(-0.264004 0.129707 0.00230434)
(-0.286712 0.0733355 0.00250241)
(-0.300763 0.0261148 0.00262506)
(-0.31366 -0.0123539 0.00273761)
(-0.323837 -0.0432695 0.00282642)
(-0.330556 -0.067745 0.0028851)
(-0.334865 -0.0866197 0.00292274)
(-0.336283 -0.100901 0.00293515)
(-0.335313 -0.111318 0.00292669)
(-0.332052 -0.118581 0.00289825)
(-0.326767 -0.123269 0.00285212)
(-0.319707 -0.125868 0.00279052)
(-0.31111 -0.126787 0.0027155)
(-0.301203 -0.126358 0.00262905)
(-0.290205 -0.124855 0.00253307)
(-0.278321 -0.122494 0.00242935)
(-0.265742 -0.119453 0.00231958)
(-0.25265 -0.115869 0.00220531)
(-0.239209 -0.111857 0.00208799)
(-0.225572 -0.107505 0.00196893)
(-0.00619572 0.857947 5.4082e-05)
(-0.0164215 0.904059 0.000143338)
(-0.0313127 0.915809 0.000273277)
(-0.048159 0.883915 0.000420227)
(-0.0582564 0.827941 0.000508239)
(-0.0952998 0.743252 0.000831561)
(-0.103318 0.646735 0.000901281)
(-0.142312 0.543458 0.00124198)
(-0.170684 0.433843 0.00148946)
(-0.177347 0.340774 0.00154774)
(-0.21648 0.26062 0.00188931)
(-0.229493 0.188814 0.00200309)
(-0.252178 0.127536 0.002201)
(-0.267356 0.0753618 0.00233347)
(-0.281263 0.0318326 0.00245484)
(-0.292682 -0.00421622 0.00255449)
(-0.300718 -0.0336377 0.00262466)
(-0.306437 -0.0572337 0.0026746)
(-0.309361 -0.0758869 0.00270015)
(-0.309948 -0.0903227 0.00270529)
(-0.308293 -0.101218 0.00269086)
(-0.304622 -0.109151 0.00265882)
(-0.299162 -0.114627 0.00261118)
(-0.292128 -0.118072 0.0025498)
(-0.283732 -0.119842 0.00247654)
(-0.27418 -0.120234 0.00239318)
(-0.263666 -0.11949 0.00230143)
(-0.252377 -0.11781 0.00220291)
(-0.24049 -0.115359 0.00209917)
(-0.228171 -0.112272 0.00199163)
(-0.215572 -0.108662 0.00188164)
(-0.00470778 0.890744 4.10901e-05)
(-0.012696 0.942752 0.000110803)
(-0.0233825 0.956793 0.000204052)
(-0.0384689 0.934326 0.000335666)
(-0.0470804 0.877231 0.000410766)
(-0.0744361 0.797277 0.000649423)
(-0.0775738 0.70244 0.000676623)
(-0.115854 0.598989 0.00101116)
(-0.141517 0.498094 0.00123497)
(-0.148472 0.405255 0.00129577)
(-0.188817 0.319716 0.00164788)
(-0.201659 0.244586 0.00176013)
(-0.224232 0.178885 0.00195707)
(-0.239387 0.122139 0.00208934)
(-0.253494 0.0739904 0.00221245)
(-0.265527 0.0332767 0.00231746)
(-0.274307 -0.000669352 0.00239411)
(-0.280971 -0.0286287 0.00245231)
(-0.285029 -0.0513807 0.00248776)
(-0.286829 -0.0695956 0.00250348)
(-0.286448 -0.0839339 0.00250018)
(-0.284088 -0.0949661 0.00247958)
(-0.279954 -0.10321 0.00244352)
(-0.274242 -0.109103 0.00239368)
(-0.267144 -0.113022 0.00233174)
(-0.25885 -0.115281 0.00225937)
(-0.249544 -0.116141 0.00217816)
(-0.239405 -0.115824 0.00208968)
(-0.228605 -0.114512 0.00199542)
(-0.217306 -0.112364 0.00189679)
(-0.205663 -0.109512 0.00179514)
(-0.0039753 0.914991 3.46865e-05)
(-0.0100329 0.971582 8.75554e-05)
(-0.0180328 0.989263 0.000157355)
(-0.0317009 0.973165 0.000276582)
(-0.0382123 0.919608 0.000333316)
(-0.0642121 0.847144 0.000560226)
(-0.0666099 0.754908 0.0005811)
(-0.101333 0.654793 0.000884469)
(-0.120937 0.554665 0.00105528)
(-0.125819 0.461166 0.001098)
(-0.165335 0.373094 0.00144291)
(-0.17703 0.295381 0.00154513)
(-0.199804 0.226297 0.00174384)
(-0.215035 0.165843 0.00187679)
(-0.229262 0.1137 0.00200095)
(-0.241684 0.0688946 0.00210935)
(-0.250913 0.0308816 0.00218993)
(-0.258239 -0.00107477 0.0022539)
(-0.263076 -0.0276088 0.00229615)
(-0.265758 -0.0493427 0.00231956)
(-0.266367 -0.0669112 0.0023249)
(-0.265058 -0.0808786 0.00231348)
(-0.26202 -0.0917627 0.00228698)
(-0.257418 -0.100013 0.00224683)
(-0.251429 -0.106016 0.00219457)
(-0.244225 -0.110098 0.00213171)
(-0.235979 -0.112538 0.00205975)
(-0.226861 -0.11357 0.00198018)
(-0.217035 -0.113396 0.00189442)
(-0.206662 -0.11219 0.00180388)
(-0.195896 -0.110103 0.00170989)
(-0.00229986 0.935565 2.00726e-05)
(-0.00804442 0.994421 7.01941e-05)
(-0.0133333 1.01602 0.000116333)
(-0.0251173 1.00292 0.000219134)
(-0.031071 0.955559 0.000271004)
(-0.0508195 0.887758 0.000443421)
(-0.0545307 0.799781 0.000475667)
(-0.0871087 0.704567 0.000760335)
(-0.104765 0.606492 0.000914088)
(-0.108558 0.513408 0.0009473)
(-0.147616 0.423891 0.00128825)
(-0.15757 0.34352 0.00137525)
(-0.179892 0.271213 0.00157002)
(-0.194465 0.207246 0.00169724)
(-0.208349 0.15134 0.0018184)
(-0.220695 0.102758 0.00192614)
(-0.230038 0.0609652 0.00200772)
(-0.237694 0.0253647 0.00207456)
(-0.243065 -0.00464499 0.00212147)
(-0.24643 -0.029655 0.00215085)
(-0.247826 -0.0502503 0.00216306)
(-0.247379 -0.0669926 0.00215917)
(-0.245252 -0.080391 0.00214062)
(-0.241591 -0.0909021 0.00210868)
(-0.236552 -0.0989173 0.00206471)
(-0.230294 -0.104774 0.00201011)
(-0.222977 -0.108759 0.00194625)
(-0.214761 -0.111119 0.00187456)
(-0.205808 -0.11207 0.00179643)
(-0.196274 -0.1118 0.00171321)
(-0.18631 -0.110477 0.00162622)
(-0.00230142 0.950872 2.00935e-05)
(-0.00671342 1.01248 5.85916e-05)
(-0.0107416 1.0386 9.37435e-05)
(-0.0219374 1.02736 0.000191406)
(-0.0224159 0.988342 0.000195443)
(-0.0456071 0.922669 0.000398018)
(-0.0481714 0.839473 0.000420288)
(-0.0782165 0.747625 0.000682791)
(-0.0926059 0.651638 0.000807965)
(-0.0948228 0.558535 0.00082738)
(-0.133081 0.468801 0.00116138)
(-0.141206 0.386704 0.00123242)
(-0.162706 0.312075 0.00142)
(-0.176538 0.245341 0.00154076)
(-0.189891 0.1863 0.0016573)
(-0.201985 0.134487 0.00176284)
(-0.211255 0.0893817 0.00184376)
(-0.219047 0.0505563 0.0019118)
(-0.224769 0.0173914 0.00196178)
(-0.228646 -0.010625 0.00199563)
(-0.230676 -0.034042 0.00201337)
(-0.230942 -0.0533938 0.0020157)
(-0.22958 -0.0691793 0.00200382)
(-0.226715 -0.0818525 0.00197883)
(-0.222488 -0.0918059 0.00194195)
(-0.217046 -0.0993809 0.00189447)
(-0.210539 -0.104871 0.00183768)
(-0.203121 -0.108531 0.00177295)
(-0.194946 -0.110587 0.00170162)
(-0.186169 -0.11124 0.00162501)
(-0.176938 -0.110673 0.00154441)
(-0.0017027 0.962248 1.48681e-05)
(-0.00533117 1.02746 4.65311e-05)
(-0.00892441 1.05514 7.78923e-05)
(-0.0183724 1.0498 0.0001603)
(-0.0174019 1.01397 0.000151682)
(-0.0393497 0.954557 0.000343421)
(-0.0387567 0.875443 0.000338183)
(-0.0683222 0.788283 0.000596457)
(-0.0822676 0.69354 0.000717751)
(-0.0829643 0.601316 0.000723886)
(-0.119956 0.510953 0.00104682)
(-0.126706 0.427618 0.00110587)
(-0.147329 0.350664 0.0012858)
(-0.16028 0.281409 0.00139887)
(-0.173046 0.219398 0.00151027)
(-0.184829 0.164608 0.00161309)
(-0.193993 0.116408 0.0016931)
(-0.201883 0.0746322 0.001762)
(-0.207907 0.0385685 0.0018146)
(-0.212204 0.00776866 0.00185212)
(-0.214768 -0.0182891 0.00187451)
(-0.215634 -0.0401136 0.00188208)
(-0.214918 -0.0581753 0.00187584)
(-0.212731 -0.0729221 0.00185677)
(-0.209199 -0.0847436 0.00182596)
(-0.204461 -0.0939817 0.00178462)
(-0.198659 -0.100933 0.00173399)
(-0.191942 -0.10586 0.00167538)
(-0.184461 -0.108995 0.00161009)
(-0.176367 -0.110551 0.00153944)
(-0.167805 -0.110724 0.00146469)
(-0.00135351 0.971811 1.18193e-05)
(-0.00442468 1.03923 3.86259e-05)
(-0.00666496 1.06934 5.81869e-05)
(-0.0153261 1.06887 0.000133746)
(-0.0131139 1.03159 0.000114253)
(-0.0346696 0.98392 0.000302563)
(-0.0333679 0.902268 0.000291179)
(-0.0612209 0.824576 0.000534506)
(-0.0740196 0.728501 0.00064579)
(-0.0723018 0.639466 0.000630848)
(-0.108788 0.54841 0.00094936)
(-0.113818 0.464471 0.000993429)
(-0.133694 0.385873 0.00116683)
(-0.145732 0.314487 0.00127192)
(-0.157881 0.250067 0.00137792)
(-0.16936 0.192706 0.00147808)
(-0.178358 0.141885 0.00155664)
(-0.186221 0.0974761 0.00162531)
(-0.192461 0.0588089 0.00167979)
(-0.19706 0.0254625 0.00171994)
(-0.200049 -0.00305476 0.00174605)
(-0.201413 -0.0272113 0.00175796)
(-0.201232 -0.0474387 0.00175639)
(-0.199611 -0.0641702 0.00174226)
(-0.196665 -0.0777883 0.00171655)
(-0.192526 -0.0886315 0.00168044)
(-0.187332 -0.0969976 0.00163512)
(-0.181229 -0.103152 0.00158187)
(-0.174363 -0.107334 0.00152195)
(-0.166883 -0.109768 0.00145666)
(-0.158932 -0.110662 0.00138724)
(-0.00157617 0.979683 1.37647e-05)
(-0.00435901 1.0497 3.80567e-05)
(-0.00324048 1.08233 2.83249e-05)
(-0.0186372 1.08124 0.0001627)
(-0.00896845 1.05383 7.81638e-05)
(-0.0277162 1.00543 0.000241968)
(-0.0263931 0.93096 0.000230119)
(-0.0477234 0.856204 0.000416619)
(-0.0665674 0.76232 0.00058069)
(-0.05929 0.674869 0.000517318)
(-0.0975477 0.583058 0.000851272)
(-0.10067 0.498282 0.000878724)
(-0.120344 0.418297 0.00105035)
(-0.131757 0.345002 0.00114996)
(-0.143472 0.278605 0.00125217)
(-0.154762 0.219012 0.00135068)
(-0.163698 0.165979 0.0014287)
(-0.171651 0.119206 0.00149814)
(-0.178116 0.0781873 0.00155459)
(-0.183008 0.0424914 0.00159729)
(-0.186367 0.0116727 0.00162663)
(-0.188155 -0.0146861 0.00164223)
(-0.188429 -0.0369904 0.00164464)
(-0.187289 -0.0556312 0.0016347)
(-0.18484 -0.0709817 0.00161334)
(-0.181214 -0.0833745 0.0015817)
(-0.176545 -0.0931068 0.00154096)
(-0.170977 -0.100447 0.00149238)
(-0.164656 -0.105641 0.00143722)
(-0.157729 -0.108923 0.00137676)
(-0.150336 -0.110512 0.00131221)
(-0.000937396 0.984974 8.1891e-06)
(-0.00217926 1.05876 1.90353e-05)
(-0.00430614 1.09314 3.76032e-05)
(-0.0140071 1.09266 0.000122228)
(-0.00628151 1.07176 5.47528e-05)
(-0.0311004 1.02275 0.000271522)
(-0.0203224 0.958775 0.000177277)