/*--------------------------------*- C++ -*----------------------------------*\
| =========                 |                                                 |
| \\      /  F ield         | OpenFOAM: The Open Source CFD Toolbox           |
|  \\    /   O peration     | Version:  v2012                                 |
|   \\  /    A nd           | Website:  www.openfoam.com                      |
|    \\/     M anipulation  |                                                 |
\*---------------------------------------------------------------------------*/
FoamFile
{
    version     2.0;
    format      ascii;
    class       volScalarField;
    location    "0.25";
    object      alpha.water;
}
// * * * * * * * * * * * * * * * * * * * * * * * * * * * * * * * * * * * * * //

dimensions      [0 0 0 0 0 0 0];


internalField   nonuniform List<scalar> 
20000
(
0.999986
0.999981
1
0.999995
0.999997
1
1
0.996806
0.843338
0.371846
0.0549747
0.0077476
0.0037602
0.00150163
0.000261444
1.59442e-05
2.5149e-07
6.05118e-10
4.70351e-14
4.33081e-17
1.06629e-19
2.15758e-22
3.50274e-25
4.40777e-28
4.07827e-31
2.53684e-34
8.81182e-38
8.83544e-42
3.92631e-53
5.32222e-59
2.59033e-55
4.95386e-52
7.27064e-49
9.03848e-46
1.00626e-42
1.04676e-39
1.05477e-36
5.59351e-34
1.09429e-24
2.56813e-22
2.60547e-21
-1.60413e-121
6.28262e-127
1.24368e-143
2.70051e-223
5.24987e-221
1.46526e-218
5.45472e-216
2.59287e-213
1.53241e-210
1.11009e-207
9.8123e-205
1.06153e-201
1.42146e-198
2.40428e-195
5.29953e-192
1.59416e-188
7.00246e-185
4.98195e-181
6.98062e-177
0.999989
0.999981
1
0.999995
0.999997
1
1
0.99727
0.845624
0.371552
0.0527696
0.00607927
0.00263522
0.00100035
0.00017146
1.08274e-05
1.72377e-07
3.08897e-10
1.19098e-14
3.66674e-17
9.34929e-20
1.94296e-22
3.21378e-25
4.08526e-28
3.77839e-31
2.31234e-34
7.63676e-38
5.97682e-42
1.36871e-57
1.78811e-63
3.54161e-60
6.20131e-57
9.94689e-54
2.71715e-51
3.94602e-49
3.76924e-46
4.63446e-40
1.09775e-33
4.59397e-32
1.69273e-30
3.75193e-29
3.93311e-57
1.7261e-126
1.36733e-143
1.29334e-208
8.50041e-207
7.96171e-205
9.91146e-203
1.57315e-200
3.10393e-198
7.5112e-196
2.21992e-193
8.03705e-191
3.60296e-188
2.03881e-185
1.49988e-182
1.49861e-179
2.17205e-176
5.07536e-173
2.38558e-169
0.999991
0.99998
1
0.999994
0.999997
1
1
0.997506
0.846773
0.371188
0.0516208
0.00537814
0.00219925
0.000814092
0.000138325
8.85386e-06
1.40658e-07
2.13049e-10
1.06295e-14
3.39787e-17
8.96024e-20
1.9165e-22
3.24375e-25
4.18891e-28
3.89685e-31
2.35938e-34
7.41345e-38
4.08178e-42
3.71734e-60
8.45261e-64
2.29488e-63
2.28745e-60
8.22616e-54
2.31617e-51
9.0037e-51
4.19087e-49
3.88673e-46
1.98263e-43
2.06298e-37
1.60931e-34
2.35628e-33
7.77487e-57
2.6751e-125
5.28378e-143
7.05271e-203
2.82691e-201
1.60231e-199
1.20231e-197
1.14825e-195
1.36283e-193
1.9849e-191
3.53382e-189
7.71275e-187
2.08475e-184
7.10618e-182
3.14038e-179
1.87524e-176
1.61267e-173
2.22374e-170
6.26079e-167
0.999993
0.99998
0.999996
0.999996
0.999998
1
1
0.997768
0.847842
0.370058
0.0502144
0.00466205
0.00177297
0.000636065
0.000106843
6.94175e-06
1.09447e-07
1.2796e-10
9.30982e-15
3.09341e-17
8.43188e-20
1.85262e-22
3.19796e-25
4.17375e-28
3.87285e-31
2.28481e-34
6.58042e-38
1.46588e-42
4.65831e-60
3.1688e-64
8.27483e-64
6.70781e-61
1.00175e-57
2.39654e-51
1.27823e-49
1.63879e-49
3.07749e-47
1.44755e-44
1.48707e-38
6.7504e-36
8.18336e-35
2.05003e-55
4.40361e-125
1.73255e-141
9.78734e-199
2.85259e-197
1.16654e-195
6.28911e-194
4.30682e-192
3.6627e-190
3.82231e-188
4.87698e-186
7.62898e-184
1.47733e-181
3.60295e-179
1.13628e-176
4.82239e-174
2.93201e-171
2.84704e-168
5.68355e-165
0.999995
0.99998
0.999995
0.999997
0.999999
1
1
0.998013
0.848924
0.369012
0.0489041
0.00407452
0.00144068
0.000501082
8.31574e-05
5.47137e-06
8.52868e-08
7.55529e-11
7.74521e-15
2.60131e-17
7.26501e-20
1.63315e-22
2.86709e-25
3.76713e-28
3.46127e-31
1.95761e-34
4.90465e-38
-1.38009e-43
5.25384e-67
6.16348e-67
3.2948e-64
3.62531e-61
4.97913e-58
9.60434e-52
1.38075e-49
2.30164e-49
2.87569e-48
1.05417e-45
9.67102e-40
2.94066e-37
3.04107e-36
5.39882e-71
4.89231e-111
8.97758e-126
1.8359e-157
4.91491e-194
1.57941e-192
6.66284e-191
3.56224e-189
2.36263e-187
1.92195e-185
1.91102e-183
2.32862e-181
3.50965e-179
6.65194e-177
1.62639e-174
5.33278e-172
2.49461e-169
1.85779e-166
2.85448e-163
0.999996
0.999978
0.999995
0.999997
0.999999
1
1
0.998254
0.850047
0.367904
0.0476283
0.00356564
0.00116668
0.00039288
6.43672e-05
4.2846e-06
6.57582e-08
4.25171e-11
6.29065e-15
-1.00075e-16
-4.22165e-19
-1.12036e-21
-2.23032e-24
-3.40541e-27
-3.90855e-30
-3.15673e-33
-1.58015e-36
-3.44036e-40
4.89978e-67
5.34909e-67
1.25006e-64
9.55766e-62
1.09275e-58
2.60017e-53
1.15239e-49
2.11466e-48
2.32668e-48
8.2039e-47
6.3121e-41
1.35629e-38
1.21457e-37
1.53612e-54
6.52216e-110
1.06246e-143
2.32658e-156
2.8545e-191
7.5782e-190
2.62999e-188
1.15397e-186
6.27276e-185
4.17882e-183
3.40063e-181
3.38895e-179
4.1731e-177
6.45211e-175
1.28405e-172
3.41699e-170
1.29289e-167
7.76741e-165
9.6457e-162
0.999997
0.999978
0.999995
0.999997
1
1
1
0.99849
0.851325
0.366949
0.0464273
0.00313124
0.000944338
0.000307666
4.97403e-05
3.34645e-06
5.04095e-08
2.38808e-11
4.08536e-15
-8.34498e-17
-3.5333e-19
-9.74506e-22
-2.02534e-24
-3.1892e-27
-3.68935e-30
-2.94336e-33
-1.38949e-36
-2.25377e-40
4.45302e-67
7.95163e-67
1.34347e-64
8.62752e-62
8.54555e-59
1.99367e-54
7.49773e-50
1.96492e-48
2.17171e-48
7.95357e-48
3.86689e-42
6.1648e-40
4.85613e-39
2.92946e-54
2.56073e-109
1.46407e-125
1.58127e-155
7.85957e-189
1.7809e-187
5.25359e-186
1.95456e-184
8.99531e-183
5.06846e-181
3.48571e-179
2.93312e-177
3.04634e-175
3.96671e-173
6.63535e-171
1.48049e-168
4.68383e-166
2.34753e-163
2.434e-160
0.999998
0.999977
0.999994
0.999997
1
1
1
0.998722
0.852728
0.366157
0.0453069
0.0027599
0.00076357
0.000240512
3.83661e-05
2.60712e-06
3.84438e-08
1.41319e-11
1.872e-15
-6.5696e-17
-2.77036e-19
-7.78381e-22
-1.64498e-24
-2.61417e-27
-2.99966e-30
-2.30322e-33
-9.7078e-37
-7.9465e-41
3.8672e-67
2.73439e-66
1.15685e-64
-4.44682e-61
7.13152e-59
2.52605e-55
4.26162e-50
1.66446e-48
7.13066e-48
6.63637e-48
2.12693e-43
2.60535e-41
1.82824e-40
6.54856e-54
1.24832e-93
6.11936e-130
7.44853e-155
1.24966e-186
2.47236e-185
6.3433e-184
2.0475e-182
8.16232e-181
3.97933e-179
2.36568e-177
1.71915e-175
1.54028e-173
1.72775e-171
2.48533e-169
4.75861e-167
1.2889e-164
5.51988e-162
4.89114e-159
0.999999
0.999977
0.999994
0.999997
1
1
1
0.99895
0.854314
0.365707
0.0442867
0.00244376
0.00061698
0.000187774
2.95586e-05
2.02779e-06
2.92246e-08
9.71135e-12
1.58055e-16
-4.88011e-17
-2.0234e-19
-5.71681e-22
-1.2124e-24
-1.91812e-27
-2.15288e-30
-1.53389e-33
-5.20226e-37
1.07924e-66
2.96066e-67
4.43247e-67
1.75053e-64
9.07831e-62
-6.30552e-59
5.00254e-56
2.9799e-50
1.30659e-48
6.66141e-48
6.64304e-48
1.01011e-44
9.75855e-43
6.16563e-42
1.42396e-53
-9.09882e-125
1.45773e-125
3.38951e-154
1.30092e-184
2.28505e-183
5.18595e-182
1.47713e-180
5.18785e-179
2.2256e-177
1.16312e-175
7.4232e-174
5.83458e-172
5.73411e-170
7.21549e-168
1.20634e-165
2.84749e-163
1.06092e-160
8.17647e-158
1
0.999977
0.999994
0.999997
1
1
1
0.999172
0.856106
0.365387
0.0433853
0.00217611
0.00049832
0.000146455
2.27594e-05
1.57569e-06
2.21867e-08
7.21448e-12
-6.36202e-16
-3.46729e-17
-1.39391e-19
-3.87931e-22
-8.08298e-25
-1.23892e-27
-1.30799e-30
-8.21532e-34
-1.90599e-37
1.38242e-67
1.52625e-67
3.78222e-67
2.31992e-64
9.32957e-62
-2.89136e-58
3.74814e-56
1.92284e-50
9.80885e-49
5.43042e-48
8.99832e-48
4.00257e-46
3.05208e-44
1.75192e-43
2.95327e-53
1.83515e-69
1.03387e-124
1.12736e-153
9.65645e-183
1.52517e-181
3.10173e-180
7.89846e-179
2.47603e-177
9.4697e-176
4.4075e-174
2.50273e-172
1.74836e-170
1.52534e-168
1.70155e-166
2.51789e-164
5.25154e-162
1.72627e-159
1.17319e-156
1
0.999977
0.999994
0.999996
1
1
1
0.999386
0.858179
0.365286
0.0426456
0.00195159
0.0004025
0.000114157
1.75228e-05
1.22399e-06
1.68575e-08
5.26845e-12
-8.73379e-16
-3.04704e-17
-1.10067e-19
-2.82991e-22
-5.49143e-25
-7.76666e-28
-7.31333e-31
-3.70834e-34
-3.42202e-38
1.36041e-67
1.45356e-67
4.46395e-67
2.58201e-64
9.13624e-62
1.9438e-59
2.91392e-56
1.17844e-50
7.28628e-49
4.49999e-48
8.40259e-48
1.79475e-47
7.35359e-46
3.86519e-45
5.79778e-53
-3.57558e-91
1.59191e-124
8.70859e-159
5.4298e-181
7.78898e-180
1.43405e-178
3.29863e-177
9.32593e-176
3.21287e-174
1.34564e-172
6.86925e-171
4.30975e-169
3.37312e-167
3.37139e-165
4.46373e-163
8.31776e-161
2.43948e-158
1.47818e-155
1
0.999977
0.999993
0.999997
1
1
1
0.999594
0.860577
0.365907
0.0420785
0.00176598
0.000325347
8.89642e-05
1.34973e-05
9.51044e-07
1.28465e-08
3.80869e-12
-9.09741e-16
-2.03553e-17
-7.00449e-20
-1.7114e-22
-3.10943e-25
-3.99692e-28
-3.21599e-31
-1.15114e-34
6.90955e-65
1.33783e-67
1.34099e-67
4.97515e-67
2.65226e-64
8.28527e-62
4.40049e-59
2.11132e-56
6.69256e-51
5.20806e-49
3.58565e-48
6.23273e-48
5.43585e-48
1.23045e-47
5.96866e-47
1.08523e-52
7.60798e-70
3.67905e-124
1.18326e-139
2.41902e-179
3.17714e-178
5.33959e-177
1.11879e-175
2.8768e-174
9.00322e-173
3.42203e-171
1.58383e-169
9.00081e-168
6.37448e-166
5.75855e-164
6.88264e-162
1.15625e-159
3.05353e-157
1.66476e-154
1
0.999977
0.999994
0.999997
1
1
1
0.999819
0.86335
0.367654
0.0418052
0.00161685
0.00026344
6.93486e-05
1.04063e-05
7.3951e-07
9.84074e-09
2.73261e-12
-8.05564e-16
-1.29492e-17
-4.175e-20
-9.48301e-23
-1.56782e-25
-1.75926e-28
-1.12059e-31
-2.0162e-35
6.04042e-66
1.31423e-67
1.31969e-67
5.22376e-67
2.47392e-64
1.26021e-61
3.25778e-59
1.40509e-56
3.43314e-51
3.48682e-49
2.7417e-48
5.12455e-48
4.24531e-48
5.32933e-49
6.90964e-49
1.89234e-52
8.88746e-70
0
2.14662e-139
8.84035e-178
1.07017e-176
1.65303e-175
3.1769e-174
7.48182e-173
2.14208e-171
7.44108e-170
3.14473e-168
1.63037e-166
1.05236e-164
8.65571e-163
9.4088e-161
1.43589e-158
3.44094e-156
1.7009e-153
1
0.999977
0.999994
0.999997
1
1
1
0.999937
0.866574
0.370114
0.0416487
0.0015036
0.000213954
5.40975e-05
8.03413e-06
5.75679e-07
7.59303e-09
1.9512e-12
-6.44393e-16
-7.87732e-18
-2.33966e-20
-4.83754e-23
-7.06217e-26
-6.57866e-29
-2.91684e-32
1.32602e-61
4.23623e-65
1.29549e-67
1.30163e-67
5.08135e-67
2.07732e-64
9.8365e-62
1.58479e-59
8.55691e-57
1.55029e-51
2.23203e-49
2.05293e-48
4.06676e-48
3.67858e-48
3.2874e-49
2.43365e-50
3.36827e-52
1.31881e-69
6.16601e-86
4.51079e-139
2.72298e-176
3.05518e-175
4.36222e-174
7.73484e-173
1.67825e-171
4.42184e-170
1.41224e-168
5.48258e-167
2.60882e-165
1.54417e-163
1.16358e-161
1.15759e-159
1.61517e-157
3.53516e-155
1.5947e-152
1
0.999977
0.999994
0.999996
1
1
1
1
0.870296
0.373471
0.0416587
0.00142576
0.000174544
4.22519e-05
6.2132e-06
4.48769e-07
5.91203e-09
1.39044e-12
-4.62609e-16
-4.61739e-18
-1.23969e-20
-2.27591e-23
-2.82811e-26
-2.03089e-29
-4.57924e-33
1.0913e-61
4.25694e-65
1.27986e-67
1.286e-67
4.50911e-67
1.55514e-64
6.56047e-62
1.72815e-59
1.82282e-57
5.75753e-52
1.32205e-49
1.48949e-48
3.24052e-48
3.10703e-48
3.09807e-49
1.88887e-50
4.60728e-52
1.38843e-83
1.03625e-86
3.02234e-139
7.22525e-175
7.54944e-174
1.00128e-172
1.64621e-171
3.30741e-170
8.06051e-169
2.37903e-167
8.528e-166
3.74391e-164
2.04285e-162
1.41783e-160
1.29799e-158
1.66502e-156
3.34724e-154
1.38571e-151
1
0.999977
0.999995
0.999996
1
1
1
1
0.874538
0.378136
0.0424382
0.00137985
0.000143282
3.30571e-05
4.81422e-06
3.5037e-07
4.65177e-09
9.88165e-13
-3.13061e-16
-2.79417e-18
-6.51271e-21
-1.02126e-23
-1.02284e-26
-4.95618e-30
5.06819e-58
1.29222e-61
4.30386e-65
1.2668e-67
1.27235e-67
3.76234e-67
1.0574e-64
3.97945e-62
1.36532e-59
-3.45893e-59
1.60159e-52
7.14119e-50
1.03126e-48
2.56552e-48
2.63474e-48
3.03463e-49
1.51706e-50
5.55349e-52
6.69239e-68
4.64395e-87
3.59143e-139
1.68164e-173
1.64303e-172
2.0328e-171
3.11231e-170
5.81543e-169
1.31676e-167
3.60755e-166
1.19946e-164
4.88042e-163
2.4662e-161
1.5839e-159
1.3407e-157
1.58877e-155
2.94808e-153
1.12559e-150
1
0.999978
0.999995
0.999996
1
1
1
1
0.879256
0.384168
0.0435155
0.00136726
0.000118646
2.59214e-05
3.73771e-06
2.73955e-07
3.70216e-09
7.9876e-13
-2.09052e-16
-1.58819e-18
-3.22139e-21
-4.22178e-24
-3.19114e-27
-7.51909e-31
5.19607e-58
1.30658e-61
4.3566e-65
1.25534e-67
1.26078e-67
3.07343e-67
6.81531e-65
2.28971e-62
7.07801e-60
-2.78586e-58
2.58579e-53
3.43428e-50
6.68865e-49
2.00502e-48
2.22063e-48
3.26672e-49
1.31755e-50
5.48186e-52
1.10395e-79
3.93138e-87
9.89674e-146
3.48589e-172
3.19601e-171
3.70209e-170
5.29806e-169
9.24195e-168
1.95168e-166
4.9828e-165
1.54268e-163
5.84075e-162
2.74439e-160
1.63768e-158
1.28701e-156
1.41487e-154
2.43357e-152
8.60539e-150
1
0.999978
0.999996
0.999996
1
1
0.999999
1
0.884436
0.391632
0.0449457
0.00136841
9.94227e-05
2.03813e-05
2.90748e-06
2.14489e-07
2.98128e-09
1.4628e-12
-1.41552e-16
-9.24063e-19
-1.59051e-21
-1.66657e-24
-8.34511e-28
9.43339e-55
5.28351e-58
1.33187e-61
4.42216e-65
1.24522e-67
1.23215e-67
2.45647e-67
4.34786e-65
1.31688e-62
3.71126e-60
-2.1533e-58
1.03202e-54
1.43462e-50
4.0206e-49
1.51094e-48
1.86242e-48
3.67381e-49
1.22246e-50
5.15837e-52
2.09555e-68
8.61024e-98
4.39441e-139
6.54286e-171
5.64407e-170
6.13888e-169
8.23728e-168
1.34578e-166
2.65934e-165
6.34841e-164
1.83652e-162
6.49274e-161
2.84683e-159
1.58419e-157
1.16015e-155
1.18761e-153
1.90054e-151
6.24632e-149
1
0.999978
0.999996
0.999996
1
1
0.999999
1
0.890038
0.400609
0.0469516
0.00138813
8.4562e-05
1.60755e-05
2.26547e-06
1.68098e-07
2.42967e-09
2.14293e-12
-9.98266e-17
-5.56803e-19
-7.8949e-22
-6.19245e-25
-1.4599e-28
9.50144e-55
5.38097e-58
1.35644e-61
4.49807e-65
1.23715e-67
8.65281e-68
1.61554e-67
2.54733e-65
7.05139e-63
1.82587e-60
-1.29286e-58
8.40343e-56
4.9202e-51
2.17815e-49
1.08117e-48
1.53178e-48
4.34375e-49
1.19775e-50
4.62149e-52
2.34692e-68
7.51412e-87
6.866e-139
1.1589e-169
9.38015e-169
9.57189e-168
1.20459e-166
1.84503e-165
3.41667e-164
7.64029e-163
2.06948e-161
6.84702e-160
2.80801e-158
1.46058e-156
9.99017e-155
9.54194e-153
1.42267e-150
4.34349e-148
1
0.999978
0.999996
0.999997
1
1
0.999999
1
0.895996
0.411073
0.0494771
0.00146153
7.31891e-05
1.27233e-05
1.76759e-06
1.31819e-07
2.00378e-09
2.33092e-12
-7.01922e-17
-3.4078e-19
-3.88536e-22
-2.04771e-25
6.70732e-52
9.55789e-55
5.47687e-58
1.3838e-61
4.58557e-65
1.23358e-67
4.59557e-68
8.51554e-68
1.19412e-65
3.03515e-63
7.25218e-61
-5.39889e-59
1.93302e-56
1.26228e-51
1.0202e-49
7.1528e-49
1.2105e-48
5.19216e-49
1.20173e-50
4.0183e-52
3.1085e-68
3.60166e-92
1.28604e-138
2.61337e-168
1.91063e-167
1.77765e-166
2.05249e-165
2.89674e-164
4.95765e-163
1.0267e-161
2.57884e-160
7.91712e-159
3.01263e-157
1.45273e-155
9.19369e-154
8.09409e-152
1.10402e-149
3.02454e-147
1
0.999978
0.999997
0.999997
1
1
0.999999
1
0.902223
0.422929
0.0525379
0.00157068
6.46096e-05
1.01098e-05
1.38045e-06
1.03381e-07
1.6714e-09
2.32847e-12
-4.99254e-17
-2.17415e-19
-1.94533e-22
-5.36239e-26
6.66815e-52
9.58728e-55
5.57391e-58
1.41296e-61
4.68458e-65
1.24686e-67
3.01742e-68
4.59316e-68
4.27728e-66
9.95332e-64
2.19531e-61
-7.68387e-60
5.08544e-57
1.94286e-52
3.85237e-50
4.19959e-49
8.97233e-49
5.98141e-49
1.05267e-50
3.40568e-52
1.76029e-79
1.55518e-87
1.09655e-146
1.18443e-166
8.05047e-166
6.9734e-165
7.50518e-164
9.88325e-163
1.57925e-161
3.05377e-160
7.15637e-159
2.04545e-157
7.21515e-156
3.19938e-154
1.83424e-152
1.42045e-150
1.59325e-148
2.8538e-146
1
0.999979
0.999997
0.999997
1
1
0.999998
1
0.908615
0.436019
0.0561367
0.00170182
5.83006e-05
8.06945e-06
1.07873e-06
8.10519e-08
1.40902e-09
2.2482e-12
-2.47268e-17
-1.40857e-19
-9.62729e-23
-2.79909e-27
6.62856e-52
9.61092e-55
5.67124e-58
1.44414e-61
4.79564e-65
1.26852e-67
2.50303e-68
3.0177e-68
1.2429e-66
2.57245e-64
5.16446e-62
2.11704e-60
1.01817e-57
6.59099e-54
1.02857e-50
2.0215e-49
6.14013e-49
6.35388e-49
5.28437e-51
2.19025e-52
3.64864e-68
3.56924e-88
1.36354e-137
6.67889e-165
4.24476e-164
3.44024e-163
3.47406e-162
4.30998e-161
6.52017e-160
1.20033e-158
2.69478e-157
7.43061e-156
2.54912e-154
1.11004e-152
6.32823e-151
4.95943e-149
5.79367e-147
1.38282e-144
1
0.99998
0.999997
0.999997
1
1
0.999999
1
0.915068
0.450117
0.0602353
0.00186017
5.4072e-05
6.47353e-06
8.43239e-07
6.35009e-08
1.19922e-09
2.03127e-12
7.67027e-17
-9.37532e-20
-4.47585e-23
5.66035e-46
6.58422e-52
9.62535e-55
5.76929e-58
1.47733e-61
4.9195e-65
1.29367e-67
2.26519e-68
2.5026e-68
5.41976e-67
9.24918e-65
1.59319e-62
1.23137e-60
2.31289e-58
1.2504e-54
1.5769e-51
6.58337e-50
3.8142e-49
5.53371e-49
4.03188e-50
2.41434e-52
3.88081e-68
4.8889e-88
2.22687e-126
3.00066e-163
1.94479e-162
1.58842e-161
1.6017e-160
1.96891e-159
2.93067e-158
5.27248e-157
1.1487e-155
3.05039e-154
9.98809e-153
4.10439e-151
2.17276e-149
1.53972e-147
1.62256e-145
8.82666e-143
1
0.999981
0.999996
0.999997
1
1
0.999999
1
0.921475
0.464955
0.0647761
0.00204507
5.1199e-05
5.22199e-06
6.59334e-07
4.97041e-08
1.0287e-09
1.78816e-12
8.11645e-17
-6.45372e-20
-1.79459e-23
5.60664e-46
6.53603e-52
9.63357e-55
5.86867e-58
1.5127e-61
5.05725e-65
1.32498e-67
2.00461e-68
2.26403e-68
5.34364e-67
8.41128e-65
1.33018e-62
1.94777e-60
1.63632e-58
5.56414e-54
2.5582e-52
1.14307e-50
1.51683e-49
4.66079e-49
5.14956e-49
2.6384e-52
2.25333e-67
6.85544e-85
2.56711e-126
6.25785e-162
3.94898e-161
3.13497e-160
3.07108e-159
3.66909e-158
5.31477e-157
9.3275e-156
1.99052e-154
5.21287e-153
1.70242e-151
7.11122e-150
3.95391e-148
3.08887e-146
1.03745e-143
5.4409e-141
1.00001
0.999982
0.999996
0.999999
1
1
0.999999
1
0.927738
0.480236
0.0696751
0.00225131
4.91519e-05
4.23684e-06
5.15771e-07
3.88668e-08
8.8721e-10
1.50883e-12
6.78217e-17
-4.63637e-20
-3.47051e-24
5.57391e-46
6.48605e-52
9.6378e-55
5.97051e-58
1.55054e-61
5.21046e-65
1.36104e-67
1.72121e-68
2.00387e-68
5.36416e-67
8.00454e-65
1.18787e-62
1.00899e-60
4.88308e-57
3.99878e-54
1.37834e-52
1.61981e-51
1.21192e-50
4.56507e-50
7.18779e-50
2.86357e-52
4.45018e-88
8.29221e-103
2.55077e-126
1.075e-160
6.44183e-160
4.82639e-159
4.4364e-158
4.94235e-157
6.62673e-156
1.06677e-154
2.06415e-153
4.82869e-152
1.38133e-150
4.92588e-149
2.26127e-147
7.93882e-146
6.51725e-142
3.24224e-139
1
0.999982
0.999996
1
1
1
0.999998
1
0.933764
0.495643
0.0748225
0.00247312
4.79359e-05
3.45673e-06
4.0377e-07
3.03673e-08
7.66847e-10
1.20697e-12
5.31177e-17
-3.3878e-20
4.78946e-38
5.48649e-46
6.43603e-52
9.64099e-55
6.07651e-58
1.59127e-61
5.38127e-65
1.40363e-67
1.48216e-68
1.72101e-68
4.20453e-67
5.69246e-65
7.73485e-63
5.43268e-61
4.30489e-57
1.62742e-54
7.04992e-53
6.88443e-52
2.59165e-51
5.11471e-51
6.0589e-51
2.09117e-52
8.1332e-68
1.631e-84
2.53708e-126
1.54724e-159
8.96803e-159
6.49988e-158
5.78377e-157
6.245e-156
8.13176e-155
1.27568e-153
2.41989e-152
5.60612e-151
1.61468e-149
5.94696e-148
2.89699e-146
8.0548e-146
3.95377e-140
1.87308e-137
1
0.999983
0.999996
1
1
1
0.999998
1
0.939469
0.510859
0.0800882
0.00270336
4.72379e-05
2.83287e-06
3.16439e-07
2.37162e-08
6.61788e-10
9.03839e-13
3.82883e-17
-2.34287e-20
4.51282e-38
5.4147e-46
6.38841e-52
9.64693e-55
6.18904e-58
1.63552e-61
5.57255e-65
1.45345e-67
1.25342e-68
1.48215e-68
3.72565e-67
4.67849e-65
5.90399e-63
3.86209e-61
6.40826e-57
5.90729e-55
2.3987e-53
2.6558e-52
9.91406e-52
1.69365e-51
1.79048e-51
1.1338e-52
6.98233e-68
8.69452e-87
3.53598e-126
2.08054e-158
1.15024e-157
7.91512e-157
6.65253e-156
6.74275e-155
8.17934e-154
1.18431e-152
2.05023e-151
4.27642e-150
1.09171e-148
3.50407e-147
8.94114e-146
-1.00052e-145
2.3279e-138
1.05182e-135
1.00001
0.999983
0.999996
1
1
1
0.999998
1
0.944793
0.525595
0.085332
0.00293387
4.66758e-05
2.32697e-06
2.48379e-07
1.8526e-08
5.68147e-10
6.20951e-13
2.41892e-17
-1.38256e-20
4.45165e-38
5.33438e-46
6.34678e-52
9.6609e-55
6.31129e-58
1.68414e-61
5.78808e-65
1.51194e-67
1.0441e-68
1.24886e-68
3.1822e-67
3.71545e-65
4.36569e-63
2.67008e-61
4.97028e-57
2.54578e-55
7.61114e-54
8.68399e-53
3.49798e-52
6.21457e-52
6.56099e-52
5.06837e-53
6.68048e-68
-1.13307e-106
3.48816e-126
2.50824e-157
1.3409e-156
8.92469e-156
7.2598e-155
7.13129e-154
8.40816e-153
1.19005e-151
2.0344e-150
4.26108e-149
1.11952e-147
3.76473e-146
1.31856e-145
-1.36693e-143
1.33373e-136
5.75499e-134
1
0.999984
0.999996
1
1
1
0.999997
1
0.949704
0.53962
0.0904152
0.00315619
4.59277e-05
1.91024e-06
1.95377e-07
1.44891e-08
4.83794e-10
3.80971e-13
1.24837e-17
-4.98841e-21
4.32889e-38
5.25407e-46
6.31578e-52
9.68922e-55
6.44736e-58
1.73826e-61
6.03277e-65
1.58086e-67
8.58373e-69
1.05105e-68
2.58145e-67
2.82397e-65
3.11232e-63
3.86149e-61
3.30331e-57
1.2054e-55
2.35613e-54
2.54917e-53
1.0964e-52
2.07172e-52
2.25045e-52
1.95899e-53
6.10763e-68
2.29347e-85
3.39543e-126
2.92307e-156
1.50291e-155
9.56251e-155
7.38381e-154
6.82876e-153
7.50949e-152
9.80713e-151
1.52803e-149
2.87548e-148
6.67611e-147
1.00043e-145
3.11285e-145
-7.87417e-142
7.45287e-135
3.07485e-132
1.00001
0.999984
0.999996
1
1
1
0.999997
1
0.954203
0.552793
0.095214
0.00336247
4.4736e-05
1.56295e-06
1.54177e-07
1.13598e-08
4.08016e-10
2.01118e-13
4.74398e-18
-3.85284e-24
4.16652e-38
5.17555e-46
6.29665e-52
9.73938e-55
6.60247e-58
1.79935e-61
6.31293e-65
1.66232e-67
7.02636e-69
1.4004e-68
2.00518e-67
1.8866e-65
1.95864e-63
3.30579e-61
1.81928e-57
6.02426e-56
7.63963e-55
6.70087e-54
2.97927e-53
6.03407e-53
6.84265e-53
6.61661e-54
6.07775e-68
3.76754e-95
3.26021e-126
3.01603e-155
1.49129e-154
9.11568e-154
6.76151e-153
6.01848e-152
6.40535e-151
8.18735e-150
1.27264e-148
2.45656e-147
5.85731e-146
1.61632e-145
7.81518e-144
-4.37059e-140
4.07056e-133
1.60754e-130
1
0.999985
0.999997
1
1
1
0.999998
1
0.958316
0.565065
0.0996328
0.00354664
4.29626e-05
1.27361e-06
1.22264e-07
8.94139e-09
3.40966e-10
8.64931e-14
9.48507e-19
1.17827e-28
4.06245e-38
5.10356e-46
6.28867e-52
9.82027e-55
6.78312e-58
1.86929e-61
6.63661e-65
1.75878e-67
6.80169e-69
8.05844e-68
1.84914e-67
1.02628e-65
1.0033e-63
1.2783e-61
7.80697e-58
2.91753e-56
2.81665e-55
1.6764e-54
6.79306e-54
1.46225e-53
1.77536e-53
1.93108e-54
5.10538e-68
1.65325e-89
3.10961e-126
3.05973e-154
1.46745e-153
8.64206e-153
6.13139e-152
5.18141e-151
5.19543e-150
6.20569e-149
8.92552e-148
1.57532e-146
1.18836e-145
5.53938e-145
4.48381e-142
-2.37025e-138
2.17724e-131
8.23889e-129
1.00001
0.999985
0.999997
1
1
1
0.999998
1
0.962086
0.57647
0.10362
0.00370664
4.06307e-05
1.0373e-06
9.76705e-08
7.0768e-09
2.83012e-10
4.35049e-14
1.59321e-22
1.10261e-28
3.96475e-38
5.04372e-46
6.31622e-52
9.94242e-55
6.99738e-58
1.95043e-61
7.01409e-65
1.87271e-67
6.6223e-69
1.11893e-67
2.59712e-67
4.56772e-66
3.8447e-64
2.43702e-62
2.30159e-58
1.22329e-56
1.14713e-55
4.72531e-55
1.35926e-54
2.71749e-54
3.56146e-54
4.6286e-55
4.57426e-68
2.6396e-87
2.82573e-126
2.73388e-153
1.25101e-152
6.99132e-152
4.68922e-151
3.74403e-150
3.56426e-149
4.09388e-148
5.79598e-147
9.18487e-146
2.11895e-145
2.07918e-143
2.59097e-140
-1.25857e-136
1.14249e-129
4.14658e-127
1
0.999985
0.999997
1
1
1
0.999999
1
0.96557
0.587114
0.107186
0.00384724
3.79541e-05
8.52913e-07
7.88311e-08
5.6418e-09
2.34288e-10
2.65658e-14
1.88888e-20
1.0667e-28
3.88697e-38
5.00318e-46
6.37077e-52
1.01183e-54
7.25521e-58
2.04576e-61
7.45845e-65
2.00917e-67
2.31696e-69
1.21266e-67
1.79484e-66
3.26848e-66
1.06686e-64
5.09113e-63
3.97932e-59
3.8615e-57
4.41082e-56
1.62718e-55
3.15257e-55
4.83707e-55
4.29903e-55
1.06281e-55
4.29838e-68
1.30227e-86
3.04813e-126
2.3229e-152
1.03258e-151
5.59013e-151
3.6308e-150
2.81572e-149
2.62068e-148
2.96721e-147
4.16884e-146
1.55782e-145
1.61793e-144
1.19841e-141
1.46701e-138
-6.5542e-135
5.89123e-128
2.05261e-125
1
0.999985
0.999997
1
1
1
0.999999
1
0.968831
0.597191
0.110416
0.00398239
3.53878e-05
7.19836e-07
6.44951e-08
4.54045e-09
1.94338e-10
1.10364e-14
1.70753e-20
1.0329e-28
3.83159e-38
4.98148e-46
6.46583e-52
1.0363e-54
7.56896e-58
2.15907e-61
7.98638e-65
2.17768e-67
1.56789e-69
3.89429e-68
2.27944e-66
1.10253e-65
3.22587e-65
9.47877e-64
3.24033e-60
8.32568e-58
1.32099e-56
5.86131e-56
1.15385e-55
1.55341e-55
8.44552e-56
3.35047e-56
4.22362e-68
-1.94935e-107
2.59479e-126
1.82529e-151
7.73672e-151
3.95234e-150
2.40132e-149
1.73134e-148
1.49393e-147
1.57615e-146
1.28005e-145
3.56736e-145
8.09635e-143
6.85664e-140
8.14704e-137
-3.35253e-133
2.98959e-126
1.00078e-123
1
0.999985
0.999997
1
1
1
0.999999
1
0.971943
0.607039
0.113495
0.00413603
3.39039e-05
6.34967e-07
5.37064e-08
3.69783e-09
1.62524e-10
5.37618e-15
1.48697e-20
1.00747e-28
3.79977e-38
4.97406e-46
6.61033e-52
1.06946e-54
7.95399e-58
2.29511e-61
8.61924e-65
2.38251e-67
1.23756e-69
4.94192e-69
1.90203e-66
2.12872e-65
3.1303e-65
2.83454e-64
5.609e-62
1.35173e-58
3.15501e-57
1.83079e-56
4.22852e-56
5.5953e-56
3.05595e-56
1.17016e-56
4.29665e-68
2.75573e-86
2.18219e-126
1.26332e-150
5.12434e-150
2.50632e-149
1.46919e-148
1.03971e-147
9.06429e-147
9.56258e-146
2.27802e-145
7.77758e-144
4.66194e-141
3.85037e-138
4.44428e-135
-1.68667e-131
1.49506e-124
4.81226e-122
1
0.999987
0.999997
1
1
1
0.999998
0.999999
0.974985
0.617199
0.116717
0.00434297
3.37753e-05
5.96692e-07
4.57668e-08
3.06163e-09
1.3674e-10
5.80465e-15
1.34348e-20
9.91321e-29
3.78892e-38
5.02403e-46
6.81636e-52
1.11355e-54
8.42959e-58
2.45994e-61
9.38459e-65
2.63386e-67
1.15292e-69
1.20289e-69
2.04488e-67
1.98538e-65
1.25035e-64
1.76824e-64
4.45563e-63
1.56902e-59
5.51711e-58
4.45344e-57
1.34814e-56
2.02962e-56
1.47109e-56
2.97983e-57
4.5635e-68
-4.84031e-106
1.97713e-126
8.28063e-150
3.24219e-149
1.52869e-148
8.66742e-148
5.97897e-147
5.17454e-146
1.82143e-145
1.20194e-144
4.35933e-142
2.64517e-139
2.12451e-136
2.3846e-133
-8.35634e-130
7.37676e-123
2.28476e-120
0.999998
0.999987
0.999996
1
1
1
0.999997
0.999999
0.978022
0.628441
0.120529
0.00464902
3.58349e-05
5.93594e-07
4.03033e-08
2.57755e-09
1.15135e-10
6.49464e-15
1.20964e-20
9.83377e-29
3.83186e-38
5.10812e-46
7.09867e-52
1.17138e-54
9.02024e-58
2.66134e-61
1.03181e-64
2.94445e-67
1.11876e-69
1.12432e-69
9.87717e-69
7.27593e-66
1.23826e-64
3.56645e-64
8.54517e-64
1.78466e-60
7.1131e-59
6.83685e-58
2.51783e-57
4.43194e-57
4.75637e-57
4.95628e-58
4.57836e-68
2.00512e-84
7.50738e-122
4.8299e-149
1.78471e-148
7.89344e-148
4.21041e-147
2.78798e-146
1.57542e-145
4.18903e-145
5.40394e-143
2.49568e-140
1.47512e-137
1.15319e-134
1.25995e-131
-4.0813e-128
3.59502e-121
1.07214e-118
0.999997
0.999988
0.999995
1
1
1
0.999997
0.999998
0.981083
0.641709
0.125594
0.0051271
4.44494e-05
6.40145e-07
3.68544e-08
2.19619e-09
9.79557e-11
7.3491e-15
1.10146e-20
9.81732e-29
3.91324e-38
5.24723e-46
7.47574e-52
1.24648e-54
9.75729e-58
2.90935e-61
1.14666e-64
3.33155e-67
1.07359e-69
6.503e-70
1.86958e-69
2.60231e-66
7.66256e-65
4.44482e-64
7.01685e-64
2.43908e-61
8.37751e-60
7.7235e-59
2.90244e-58
5.42863e-58
6.13288e-58
5.66508e-59
4.41875e-68
1.77695e-85
2.0391e-120
2.47273e-148
8.72752e-148
3.75228e-147
2.01755e-146
1.32881e-145
2.92048e-145
8.82617e-144
3.10246e-141
1.40551e-138
8.09333e-136
6.16443e-133
6.56239e-130
-1.96686e-126
1.73207e-119
4.97705e-117
0.999996
0.999988
0.999994
1
1
1
0.999997
0.999997
0.984142
0.657953
0.132885
0.00589756
6.43798e-05
7.74005e-07
3.46432e-08
1.90649e-09
8.47199e-11
8.45917e-15
1.01255e-20
1.00358e-28
4.04651e-38
5.4517e-46
7.97107e-52
1.34343e-54
1.06814e-57
3.21705e-61
1.28913e-64
3.81837e-67
1.05708e-69
3.06342e-70
6.61622e-70
8.82349e-67
3.59665e-65
2.91374e-64
1.36919e-63
3.08556e-62
9.85363e-61
8.7642e-60
3.09915e-59
5.43097e-59
5.85304e-59
5.94502e-60
3.941e-68
1.70389e-85
2.32377e-141
1.16379e-147
4.01504e-147
1.72807e-146
9.72488e-146
2.52275e-145
2.02781e-144
4.92561e-142
1.76283e-139
7.78758e-137
4.37274e-134
3.24806e-131
3.37224e-128
-9.36007e-125
8.25655e-118
2.28727e-115
0.999995
0.99999
0.999993
1.00001
1
0.999999
0.999997
0.999997
0.987113
0.677983
0.143581
0.00713739
0.000102366
9.07174e-07
3.34135e-08
1.70398e-09
7.47788e-11
9.91436e-15
9.4182e-21
1.03375e-28
4.24412e-38
5.73674e-46
8.61492e-52
1.46819e-54
1.18459e-57
3.6017e-61
1.46741e-64
4.43613e-67
1.15446e-69
1.62632e-70
2.60462e-70
2.2811e-67
1.87075e-65
1.86007e-64
7.50395e-64
3.90037e-63
8.58255e-62
8.5267e-61
3.26622e-60
5.93569e-60
6.39295e-60
7.7553e-61
3.11174e-68
2.92491e-85
3.81068e-122
4.81306e-147
1.61099e-146
7.00131e-146
2.28445e-145
7.62145e-145
9.7648e-143
2.81924e-140
9.85443e-138
4.24842e-135
2.32832e-132
1.68817e-129
1.71094e-126
-4.40127e-123
3.89649e-116
1.04123e-113
0.999993
0.99999
0.999993
1.00001
1
0.999998
0.999997
0.999991
0.989884
0.702184
0.159131
0.00903792
0.000159488
1.13244e-06
3.30996e-08
1.57953e-09
6.76588e-11
1.17871e-14
8.87586e-21
1.08341e-28
4.51941e-38
6.12154e-46
9.4468e-52
1.62861e-54
1.33212e-57
4.08622e-61
1.69241e-64
5.22711e-67
1.29889e-69
1.16507e-70
1.58078e-70
2.07304e-68
6.42202e-66
9.86472e-65
4.37932e-64
1.17647e-63
6.11806e-63
5.66779e-62
2.53239e-61
5.24484e-61
6.08295e-61
1.11096e-61
2.07382e-68
4.59295e-103
3.99067e-122
1.71656e-146
5.81567e-146
2.17415e-145
4.8243e-145
2.38895e-143
5.60635e-141
1.58836e-138
5.4223e-136
2.2834e-133
1.22251e-130
8.66007e-128
8.5753e-125
-2.04583e-121
1.82137e-114
4.69726e-112
0.999992
0.999991
0.999992
1.00001
1
0.999998
0.999997
0.999965
0.992352
0.730885
0.181173
0.0117564
0.000244135
1.48886e-06
3.43041e-08
1.51758e-09
6.30412e-11
1.42107e-14
8.48383e-21
1.15474e-28
4.89161e-38
6.6309e-46
1.05187e-51
1.83518e-54
1.52018e-57
4.70136e-61
1.9789e-64
6.24939e-67
1.51351e-69
1.09496e-70
1.3563e-70
1.28682e-69
1.54802e-66
3.92302e-65
2.27868e-64
5.74708e-64
1.05888e-63
3.15117e-63
1.34733e-62
3.34299e-62
4.42986e-62
1.46507e-62
1.12844e-68
2.76762e-85
3.86336e-122
5.76217e-146
2.08426e-145
4.12671e-145
7.27225e-144
1.35772e-141
3.17954e-139
8.80472e-137
2.93814e-134
1.20965e-131
6.33249e-129
4.38649e-126
4.24747e-123
-9.40322e-120
8.43545e-113
2.10057e-110
0.999994
0.99999
0.999992
1.00001
1
0.999998
0.999997
0.99996
0.994498
0.764359
0.211104
0.0155468
0.000379998
2.16548e-06
3.82729e-08
1.49853e-09
6.05619e-11
1.73649e-14
8.23269e-21
1.25227e-28
5.38563e-38
7.29739e-46
1.18997e-51
2.10199e-54
1.76147e-57
5.48875e-61
2.34695e-64
7.58294e-67
1.8002e-69
8.42045e-71
2.47557e-70
4.03267e-70
2.70338e-67
1.18658e-65
9.49067e-65
2.84625e-64
4.60856e-64
5.47139e-64
6.47467e-64
1.40919e-63
2.24784e-63
1.93326e-63
5.32357e-69
7.89601e-95
3.93944e-122
2.1391e-145
4.13838e-145
2.86066e-144
3.93969e-142
7.73899e-140
1.77328e-137
4.80354e-135
1.5683e-132
6.31813e-130
3.23682e-127
2.19435e-124
2.07957e-121
-4.27417e-118
3.87143e-111
9.31267e-109
0.999996
0.999989
0.999991
1.00001
1
0.999999
0.999997
0.999973