/*--------------------------------*- C++ -*----------------------------------*\
| =========                 |                                                 |
| \\      /  F ield         | OpenFOAM: The Open Source CFD Toolbox           |
|  \\    /   O peration     | Version:  v2012                                 |
|   \\  /    A nd           | Website:  www.openfoam.com                      |
|    \\/     M anipulation  |                                                 |
\*---------------------------------------------------------------------------*/
FoamFile
{
    version     2.0;
    format      ascii;
    class       volScalarField;
    location    "0.25";
    object      alpha.water;
}
// * * * * * * * * * * * * * * * * * * * * * * * * * * * * * * * * * * * * * //

dimensions      [0 0 0 0 0 0 0];


internalField   nonuniform List<scalar> 
3326
(
3.161e-77
7.91906e-75
2.40113e-72
9.22687e-70
4.67554e-67
-4.65524e-64
1.77915e-61
2.47432e-54
1.30418e-52
3.1308e-83
4.53188e-81
7.33084e-79
2.31496e-76
5.76297e-74
1.75856e-71
6.80106e-69
3.46831e-66
-1.33363e-63
1.33764e-60
1.87984e-53
9.22296e-52
0.00634429
9.68888e-06
3.07791e-10
6.20109e-16
1.46395e-23
1.15057e-32
2.52072e-40
6.26007e-46
2.16774e-48
3.93462e-51
2.51691e-54
1.89295e-57
1.67653e-59
1.18552e-61
7.78954e-64
4.87756e-66
2.44465e-68
6.10576e-71
1.91373e-74
1.69275e-79
3.20727e-84
3.14642e-91
1.44231e-92
5.86215e-93
3.41976e-93
2.30225e-93
1.85009e-93
2.08071e-93
1.97411e-92
1.49679e-90
1.3688e-88
1.38152e-86
1.54979e-84
2.62921e-82
4.01849e-80
7.09729e-78
1.47694e-75
3.69143e-73
1.13465e-70
4.42042e-68
2.271e-65
1.87485e-63
1.84999e-59
1.26458e-52
5.72674e-51
0.00638913
1.19975e-05
7.16933e-10
6.06369e-16
2.02245e-23
1.6525e-32
3.72236e-40
9.4015e-46
3.36335e-48
6.31308e-51
4.22472e-54
3.25836e-57
3.08068e-59
2.33558e-61
1.57952e-63
1.02e-65
5.60669e-68
1.56137e-70
5.43563e-74
8.79174e-79
1.22045e-83
1.83935e-90
7.5967e-92
2.62064e-92
1.68881e-92
1.25819e-92
1.04843e-92
1.17355e-92
1.11292e-91
8.78224e-90
8.39865e-88
8.91428e-86
1.05922e-83
1.42295e-81
2.18613e-79
3.89387e-77
8.16798e-75
2.05788e-72
6.37664e-70
2.50455e-67
8.59539e-65
3.64426e-62
5.27666e-58
7.44942e-52
3.07883e-50
0.00637276
1.46092e-05
1.54593e-09
5.54083e-16
2.80238e-23
2.38366e-32
5.63873e-40
1.41656e-45
5.21554e-48
1.01782e-50
7.13946e-54
5.683e-57
5.70561e-59
4.69944e-61
3.34716e-63
2.22861e-65
1.31197e-67
4.17217e-70
1.58202e-73
5.24423e-78
5.11566e-83
1.31713e-89
5.53494e-91
1.25427e-91
7.22949e-92
5.35929e-92
4.36082e-92
5.09228e-92
6.35494e-91
5.20232e-89
5.02422e-87
5.38368e-85
6.45876e-83
8.75738e-81
1.35792e-78
2.44119e-76
5.16856e-74
1.3144e-71
4.11132e-69
1.63015e-66
4.3818e-64
2.94612e-61
3.31319e-55
3.78773e-51
1.40358e-49
0.00628129
1.74945e-05
2.93412e-09
4.89333e-16
3.89744e-23
3.45505e-32
8.77506e-40
2.1448e-45
8.09433e-48
1.65271e-50
1.21673e-53
1.00688e-56
1.06369e-58
9.52815e-61
7.31534e-63
5.11387e-65
3.17302e-67
1.15604e-69
4.73252e-73
3.29466e-77
2.29227e-82
1.36461e-88
4.63158e-90
9.24617e-91
4.17301e-91
2.82741e-91
2.22312e-91
2.68118e-91
3.96192e-90
3.32039e-88
3.24035e-86
3.50769e-84
4.25084e-82
5.82184e-80
9.11813e-78
1.65567e-75
3.54069e-73
9.09508e-71
2.87368e-68
1.15104e-65
-4.78906e-63
2.28737e-60
5.43973e-54
1.62418e-50
5.14292e-49
0.00611315
2.05119e-05
4.9208e-09
4.47412e-16
5.44455e-23
5.0354e-32
1.3997e-39
3.27079e-45
1.26096e-47
2.71241e-50
2.09734e-53
1.81714e-56
2.00009e-58
1.9289e-60
1.61951e-62
1.22252e-64
8.03306e-67
3.2976e-69
1.47709e-72
1.87236e-76
1.17209e-81
1.765e-87
2.26827e-89
7.44833e-90
3.3002e-90
1.93238e-90
1.52977e-90
1.77631e-90
2.19181e-89
1.83079e-87
1.80587e-85
1.97596e-83
2.42024e-81
3.35002e-79
5.30257e-77
9.73098e-75
2.10326e-72
5.46096e-70
1.74425e-67
6.16919e-65
-4.62809e-63
1.42799e-59
4.83247e-53
5.09852e-50
1.2405e-48
0.00587439
2.33387e-05
7.40297e-09
4.33372e-16
7.64552e-23
7.38393e-32
2.27393e-39
5.03855e-45
1.98104e-47
4.52026e-50
3.67185e-53
3.34877e-56
3.8138e-58
3.89726e-60
3.58825e-62
2.99694e-64
2.14243e-66
9.71561e-69
4.91656e-72
9.25448e-76
8.19105e-81
2.29355e-86
5.0284e-89
3.40471e-89
2.11632e-89
1.34147e-89
1.07816e-89
1.19346e-89
1.07598e-88
8.80151e-87
8.77993e-85
9.71849e-83
1.20413e-80
1.68597e-78
2.69953e-76
5.01168e-74
1.09594e-71
2.87932e-69
9.30742e-67
-1.72944e-65
1.0574e-61
7.93242e-59
3.20065e-52
1.06758e-49
1.51247e-48
0.00557094
2.55213e-05
1.01026e-08
4.33091e-16
1.08002e-22
1.09033e-31
3.72748e-39
7.86666e-45
3.15865e-47
7.68828e-50
6.5614e-53
6.31243e-56
7.43668e-58
7.93803e-60
7.97075e-62
7.45345e-64
6.00598e-66
3.00878e-68
1.77913e-71
4.44205e-75
8.04301e-80
4.09298e-85
5.84183e-89
6.75727e-89
6.05644e-89
5.59235e-89
5.10025e-89
5.45813e-89
3.56547e-88
2.8144e-86
2.84015e-84
3.18172e-82
3.98951e-80
5.65289e-78
9.16003e-76
1.72115e-73
3.8099e-71
1.01344e-68
3.31769e-66
-5.47927e-65
3.84597e-61
2.94266e-58
1.2755e-51
1.73966e-49
1.51889e-48
0.00520786
2.67414e-05
1.25861e-08
6.13596e-16
1.53576e-22
1.62268e-31
6.10253e-39
1.24891e-44
5.14856e-47
1.34055e-49
1.20259e-52
1.21782e-55
1.4979e-57
1.66254e-59
1.80787e-61
1.892e-63
1.76197e-65
1.00496e-67
7.08679e-71
2.49727e-74
8.30251e-79
1.5672e-83
1.08691e-88
6.79031e-89
7.07004e-89
6.68924e-89
6.09757e-89
7.07406e-89
8.97024e-88
7.78702e-86
7.96833e-84
9.04316e-82
1.14881e-79
1.64942e-77
2.7088e-75
5.1597e-73
1.15818e-70
3.12516e-68
1.03824e-65
1.92081e-63
1.24353e-60
9.63378e-58
4.38683e-51
2.62091e-49
1.27953e-48
0.00479021
2.71187e-05
1.44163e-08
2.72449e-15
2.19952e-22
2.43654e-31
9.89239e-39
2.02137e-44
8.63707e-47
2.40195e-49
2.26881e-52
2.40417e-55
3.14508e-57
3.67344e-59
4.32484e-61
5.03884e-63
5.44366e-65
3.70293e-67
3.15977e-70
1.79039e-73
8.20804e-78
2.11636e-82
1.30044e-86
8.29229e-89
8.13319e-89
8.67609e-89
7.07758e-89
2.25435e-88
1.36213e-86
1.28089e-84
1.33238e-82
1.53649e-80
1.98392e-78
2.89583e-76
4.83577e-74
9.36765e-72
2.13872e-69
5.87036e-67
1.12297e-64
4.37012e-62
2.46937e-59
3.82532e-53
1.58751e-50
3.29416e-49
6.52769e-49
0.00432595
2.71311e-05
1.54015e-08
1.38996e-14
3.17446e-22
3.69587e-31
1.57981e-38
3.33912e-44
1.49703e-46
4.41917e-49
4.41097e-52
4.85677e-55
6.91094e-57
8.75786e-59
1.13405e-60
1.47399e-62
1.82328e-64
1.52846e-66
1.64373e-69
1.42928e-72
1.15796e-76
6.91504e-82
4.17536e-84
1.16866e-87
1.14133e-88
3.79317e-88
2.25794e-88
1.52659e-87
1.16142e-85
1.11296e-83
1.17586e-81
1.37719e-79
1.80603e-77
2.67751e-75
4.54172e-73
8.93796e-71
2.07345e-68
5.7841e-66
5.82291e-64
4.43793e-61
2.56081e-58
4.76435e-52
4.17736e-50
3.25236e-49
1.28859e-49
0.00382867
2.65074e-05
1.57181e-08
4.3162e-14
4.61947e-22
5.67185e-31
2.48595e-38
5.62586e-44
2.67779e-46
8.3168e-49
8.82428e-52
1.00559e-54
1.58234e-56
2.27383e-58
3.36876e-60
4.99855e-62
7.01132e-64
7.24176e-66
1.07452e-68
1.20278e-71
2.97126e-75
7.84333e-80
9.2777e-82
7.97792e-85
2.02289e-87
7.75966e-86
1.06448e-85
1.1642e-85
1.07409e-84
9.4772e-83
1.01695e-80
1.2111e-78
1.6152e-76
2.43573e-74
4.20349e-72
8.41852e-70
1.98809e-67
5.64785e-65
1.01493e-62
4.49694e-60
2.44071e-54
2.2933e-51
7.4125e-50
3.15844e-49
5.78955e-51
0.00331616
2.44559e-05
1.57445e-08
8.47474e-14
6.78329e-22
8.82305e-31
3.8807e-38
9.64582e-44
4.91079e-46
1.59321e-48
1.81155e-51
2.14355e-54
3.74371e-56
6.43922e-58
1.16951e-59
2.07985e-61
3.364e-63
4.18828e-65
9.59559e-68
1.48119e-70
3.22942e-74
1.35478e-77
2.20728e-79
6.70051e-82
7.14804e-85
7.18724e-85
1.26163e-84
1.0781e-84
9.96428e-84
8.94875e-82
9.77672e-80
1.18562e-77
1.6104e-75
2.47382e-73
4.34997e-71
8.87922e-69
2.13788e-66
5.24094e-64
1.13401e-61
5.1474e-59
4.60867e-53
7.05782e-51
1.08138e-49
3.05153e-49
3.53865e-53
0.00280711
2.10513e-05
1.50824e-08
1.19251e-13
1.00642e-21
1.39453e-30
6.10037e-38
1.67869e-43
9.1485e-46
3.09844e-48
3.81218e-51
4.73976e-54
9.17757e-56
2.062e-57
5.15049e-59
1.1664e-60
2.23636e-62
3.30057e-64
1.22926e-66
3.59897e-69
1.52391e-73
2.5186e-75
5.63849e-77
6.2372e-79
4.85412e-84
4.84989e-84
1.00276e-83
1.00075e-83
5.35853e-83
4.48297e-81
4.9869e-79
6.16436e-77
8.53596e-75
1.33705e-72
2.39795e-70
4.99386e-68
1.22722e-65
1.86432e-63
6.79442e-61
3.15116e-58
3.18645e-52
1.67551e-50
1.41271e-49
2.9302e-49
2.15981e-56
0.00231993
1.71261e-05
1.3061e-08
1.35411e-13
1.51198e-21
2.24612e-30
9.89547e-38
2.96286e-43
1.7198e-45
6.1383e-48
8.25462e-51
1.09643e-53
2.41392e-55
8.94053e-57
3.80258e-58
1.14612e-59
2.45241e-61
4.00095e-63
2.27498e-65
4.09818e-68
1.87859e-71
5.0202e-73
1.55947e-74
2.83237e-76
2.86778e-83
2.8521e-83
4.93321e-83
5.38011e-83
6.95462e-82
6.71441e-80
7.63813e-78
9.64532e-76
1.36491e-73
2.18566e-71
4.00897e-69
8.54238e-67
2.14892e-64
3.34312e-62
1.24864e-59
5.8536e-54
1.41618e-51
3.31674e-50
1.70934e-49
2.79467e-49
3.46647e-60
0.00187256
1.33698e-05
1.04653e-08
1.38472e-13
2.30781e-21
3.70003e-30
1.70995e-37
5.3197e-43
3.26695e-45
1.25375e-47
1.85897e-50
2.66808e-53
7.24459e-55
5.16873e-56
3.82025e-57
1.64856e-58
4.42501e-60
8.02384e-62
6.46515e-64
1.45834e-67
3.13034e-69
1.08684e-70
4.68993e-72
1.34307e-73
2.62764e-82
2.61849e-82
6.36056e-82
6.84471e-82
5.76998e-81
5.4426e-79
6.32829e-77
8.17338e-75
1.18326e-72
1.93901e-70
3.64081e-68
7.94489e-66
1.98438e-63
3.26359e-61
1.25072e-58
7.3951e-53
4.70571e-51
5.70322e-50
1.95606e-49
2.6596e-49
3.27062e-62
0.00147955
1.00564e-05
8.08322e-09
1.21387e-13
3.59628e-21
6.26091e-30
3.23436e-37
9.7996e-43
6.35439e-45
2.69349e-47
4.42755e-50
6.84827e-53
2.34166e-54
3.08173e-55
3.92156e-56
2.77273e-57
1.213e-58
3.10952e-60
3.69594e-62
1.56229e-65
5.63589e-67
2.55902e-68
1.54071e-69
7.02035e-71
2.18956e-81
1.99294e-81
3.05977e-81
4.09107e-81
1.0735e-79
1.12963e-77
1.34702e-75
1.78333e-73
2.64737e-71
4.45042e-69
8.57639e-67
1.92178e-64
2.61071e-62
8.33252e-60
2.5624e-54
4.88872e-52
1.2552e-50
8.77497e-50
2.14451e-49
2.48587e-49
2.20698e-63
0.00114888
7.31026e-06
6.12235e-09
7.16303e-14
5.75822e-21
1.09392e-29
6.69131e-37
1.87819e-42
1.29747e-44
6.21767e-47
1.13548e-49
1.86467e-52
7.45434e-54
1.57403e-54
3.39538e-55
4.23375e-56
3.60062e-57
1.88917e-58
5.67901e-60
2.78202e-62
1.22244e-64
6.56745e-66
5.54836e-67
4.06526e-68
7.0123e-74
5.42312e-76
1.35108e-78
1.07827e-79
1.41706e-78
1.47099e-76
1.80001e-74
2.44718e-72
3.73204e-70
6.4475e-68
1.27749e-65
2.93815e-63
4.10488e-61
8.65848e-57
4.92312e-53
2.26556e-51
2.83636e-50
1.22639e-49
2.19615e-49
2.26903e-49
6.39651e-65
0.000881842
5.20564e-06
4.57758e-09
3.32976e-14
9.54545e-21
1.98587e-29
1.45775e-36
3.807e-42
2.86308e-44
1.55798e-46
3.17663e-49
5.49586e-52
2.2099e-53
6.27641e-54
2.18682e-54
4.76586e-55
7.87049e-56
9.0803e-57
7.32789e-58
4.11497e-59
1.4359e-60
4.25962e-63
5.06114e-64
7.46631e-65
7.3952e-66
2.5153e-67
1.25923e-67
6.0993e-69
1.71598e-69
6.9948e-70
3.12648e-70
3.75237e-70
2.4597e-68
4.3404e-66
8.86696e-64
2.10424e-61
3.04115e-59
7.85407e-54
4.51142e-52
8.02223e-51
5.36626e-50
1.51756e-49
2.27924e-49
2.45683e-49
1.88008e-67
0.000674086
3.70299e-06
3.4486e-09
1.78929e-14
1.65114e-20
3.77512e-29
3.19326e-36
8.26412e-42
6.93578e-44
4.20692e-46
9.78305e-49
1.8338e-51
6.30218e-53
1.92809e-53
9.82705e-54
3.51307e-54
1.02792e-54
2.36182e-55
4.26545e-56
6.33891e-57
8.63769e-58
1.37286e-58
3.31014e-59
1.18425e-59
5.698e-60
3.65434e-60
2.80829e-60
2.42169e-60
2.30691e-60
2.63047e-60
3.35112e-60
5.21207e-60
1.03579e-59
3.18746e-59
1.41993e-58
5.00166e-56
3.93463e-54
1.43266e-52
2.50132e-51
2.03937e-50
7.95985e-50
1.79374e-49
3.70928e-49
1.06395e-48
9.32686e-72
0.000517625
2.68725e-06
2.71193e-09
1.46005e-14
3.00183e-20
7.59456e-29
6.9394e-36
1.9286e-41
1.82352e-43
1.21575e-45
3.39205e-48
7.4384e-51
2.01356e-52
4.95078e-53
3.1443e-53
1.66219e-53
7.57267e-54
2.99611e-54
1.01195e-54
2.99285e-55
8.17865e-56
2.31244e-56
7.89477e-57
3.57657e-57
2.11909e-57
1.55471e-57
1.32583e-57
1.255e-57
1.39608e-57
1.81417e-57
2.81945e-57
5.53725e-57
1.51057e-56
6.56558e-56
5.08089e-55
6.37282e-54
9.21134e-53
1.08231e-51
8.19637e-51
3.63457e-50
1.04244e-49
3.28353e-49
3.51592e-48
1.86044e-47
3.00553e-72
0.000403047
2.04228e-06
2.30256e-09
1.52258e-14
5.77604e-20
1.64204e-28
1.56162e-35
4.84169e-41
5.09935e-43
3.87491e-45
1.41142e-47
4.0123e-50
9.37421e-52
1.34432e-52
8.29117e-53
5.55599e-53
3.39066e-53
1.9537e-53
1.03649e-53
5.08128e-54
2.33741e-54
1.04863e-54
4.88562e-55
2.55896e-55
1.61896e-55
1.25444e-55
1.12e-55
1.08968e-55
1.30169e-55
1.70169e-55
2.69366e-55
5.17018e-55
1.28524e-54
4.35418e-54
2.05485e-53
1.24997e-52
8.11999e-52
4.50212e-51
1.80539e-50
5.18919e-50
1.53867e-49
2.59479e-48
5.11464e-47
2.55436e-46
3.54091e-76
0.000321264
1.66803e-06
2.14018e-09
2.98453e-14
1.18837e-19
3.90866e-28
4.05068e-35
1.3315e-40
1.54635e-42
1.48801e-44
7.92365e-47
3.15989e-49
7.83845e-51
7.1725e-52
2.61301e-52
1.69672e-52
1.16086e-52
8.06202e-53
5.5647e-53
3.7632e-53
2.48823e-53
1.61902e-53
1.0524e-53
7.01536e-54
5.0348e-54
4.11224e-54
3.77556e-54
3.72227e-54
4.4999e-54
5.79005e-54
8.85034e-54
1.58036e-53
3.43217e-53
9.15701e-53
2.95119e-52
1.06264e-51
3.73958e-51
1.12104e-50
2.74437e-50
6.97345e-50
6.26696e-49
2.58371e-47
4.15228e-46
1.86126e-45
3.0873e-77
0.00026455
1.48879e-06
2.11553e-09
6.7345e-14
2.66741e-19
1.06443e-27
1.37856e-34
4.27137e-40
5.59674e-42
7.64758e-44
6.78344e-46
3.99094e-48
1.1314e-49
1.44884e-50
2.65359e-51
8.60075e-52
4.9256e-52
3.23384e-52
2.32037e-52
1.74331e-52
1.35281e-52
1.07659e-52
8.7873e-53
7.38598e-53
6.40637e-53
5.75253e-53
5.47179e-53
5.4559e-53
6.57731e-53
8.24049e-53
1.18391e-52
1.91271e-52
3.52284e-52
7.30241e-52
1.64418e-51
3.77337e-51
8.25305e-51
1.70542e-50
3.95842e-50
2.54181e-49
8.48902e-48
1.74667e-46
1.35805e-45
3.51796e-45
2.60514e-77
0.000226722
1.43957e-06
2.19085e-09
1.38548e-13
6.77423e-19
3.52568e-27
6.04175e-34
1.79344e-39
2.75511e-41
5.35771e-43
9.21476e-45
9.46491e-47
2.33677e-48
4.34108e-49
1.15844e-49
1.90633e-50
7.6734e-51
3.30021e-51
1.71221e-51
1.04224e-51
7.22362e-52
5.48531e-52
4.4447e-52
3.79101e-52
3.37509e-52
3.1178e-52
3.02078e-52
3.13231e-52
3.58997e-52
4.36083e-52
5.84119e-52
8.49548e-52
1.34695e-51
2.29278e-51
4.10766e-51
7.64184e-51
1.54063e-50
4.27908e-50
3.17675e-49
5.31648e-48
7.96324e-47
6.61191e-46
2.41583e-45
3.64599e-45
2.56352e-77
0.000203119
1.45099e-06
2.69633e-09
3.25211e-13
2.04786e-18
1.56089e-26
2.7911e-33
1.09092e-38
1.80709e-40
5.00028e-42
2.08517e-43
5.62942e-45
7.61147e-47
6.6631e-48
3.57662e-48
7.58227e-49
3.64301e-49
1.708e-49
8.43471e-50
4.37838e-50
2.41194e-50
1.42302e-50
9.07099e-51
6.29225e-51
4.77596e-51
3.91286e-51
3.44231e-51
3.24435e-51
3.21572e-51
3.6698e-51
4.38619e-51
5.81561e-51
8.49419e-51
1.4036e-50
2.74921e-50
7.01926e-50
2.64901e-49
1.54774e-48
1.22592e-47
1.02431e-46
6.91448e-46
2.92887e-45
6.21445e-45
2.19334e-45
1.20348e-78
0.0343258
0.00374321
0.000191316
1.58862e-06
3.92788e-09
9.30242e-13
7.74677e-18
1.05384e-25
1.30079e-32
9.55834e-38
1.35661e-39
7.54761e-41
1.17326e-41
7.28837e-43
1.26408e-44
2.37639e-47
3.28118e-47
2.57701e-47
1.43689e-47
8.34146e-48
4.87931e-48
2.94855e-48
1.84786e-48
1.20461e-48
8.20416e-49
5.88176e-49
4.47504e-49
3.61046e-49
3.10194e-49
2.84637e-49
2.76799e-49
2.98195e-49
3.4717e-49
4.45439e-49
6.36772e-49
1.03675e-48
1.9776e-48
4.59327e-48
1.35878e-47
5.28821e-47
2.65815e-46
1.5372e-45
8.20781e-45
3.06439e-44
6.11198e-44
4.19186e-46
7.10133e-79
0.0333244
0.00363896
0.00018931
2.01735e-06
6.08169e-09
2.96337e-12
3.82206e-17
1.25915e-24
1.03266e-31
1.29864e-36
1.39073e-38
1.15249e-39
3.39033e-40
4.38973e-41
1.93627e-42
3.8465e-44
7.07317e-47
7.76222e-46
5.45028e-46
3.60526e-46
2.33557e-46
1.5402e-46
1.04374e-46
7.3233e-47
5.32507e-47
4.02337e-47
3.16293e-47
2.58752e-47
2.22801e-47
2.03367e-47
1.96334e-47
1.98059e-47
2.32025e-47
2.79393e-47
3.7886e-47
5.69895e-47
9.83883e-47
1.99015e-46
4.81838e-46
1.3987e-45
4.7237e-45
1.7253e-44
6.02232e-44
1.67764e-43
2.9618e-43
1.17793e-47
7.40765e-80
0.0336819
0.00369417
0.000195559
2.71049e-06
1.0548e-08
9.68135e-12
2.60805e-16
2.9741e-23
1.72303e-30
4.28919e-35
3.69708e-37
1.27897e-38
4.11352e-39
1.3036e-39
2.3804e-40
1.60651e-41
9.39722e-43
7.13673e-44
3.21212e-44
2.16472e-44
1.40777e-44
9.36962e-45
6.326e-45
4.40082e-45
3.17374e-45
2.37896e-45
1.85075e-45
1.49261e-45
1.25752e-45
1.1144e-45
1.04304e-45
1.02321e-45
1.10581e-45
1.27014e-45
1.56399e-45
2.12731e-45
3.18109e-45
5.339e-45
1.013e-44
2.17422e-44
5.16098e-44
1.27109e-43
2.84208e-43
4.61259e-43
4.4563e-43
2.33747e-50
5.46902e-81
0.0356104
0.00394497
0.000214759
3.97698e-06
2.00696e-08
3.17847e-11
2.6092e-15
1.38323e-21
3.84136e-30
8.6484e-34
4.89453e-36
4.96411e-38
2.13649e-38
1.73493e-38
9.4114e-39
1.90596e-39
3.70808e-40
3.89549e-41
9.17546e-42
3.29778e-42
1.64569e-42
9.73456e-43
6.25429e-43
4.16951e-43
2.88503e-43
2.07608e-43
1.55438e-43
1.20878e-43
9.76612e-44
8.21493e-44
7.22103e-44
6.65465e-44
6.42633e-44
6.41166e-44
7.1398e-44
8.17097e-44
1.01046e-43
1.35718e-43
1.97423e-43
3.12315e-43
5.21888e-43
8.43476e-43
1.14566e-42
1.22472e-42
3.49045e-43
1.90845e-54
1.97972e-82
0.0393269
0.00444939
0.000254398
6.37358e-06
4.20195e-08
1.08282e-10
3.30353e-14
1.08389e-19
1.17733e-30
5.74558e-33
5.09379e-35
5.74803e-37
3.64719e-38
5.6978e-38
7.56982e-38
5.36257e-38
2.59436e-38
6.06402e-39
2.00023e-39
6.64844e-40
2.96395e-40
1.41029e-40
7.92961e-41
4.94342e-41
3.29774e-41
2.31397e-41
1.69582e-41
1.28963e-41
1.0135e-41
8.21357e-42
6.86848e-42
5.93785e-42
5.31182e-42
4.91973e-42
4.71353e-42
4.64447e-42
4.69872e-42
5.13763e-42
5.72125e-42
6.51105e-42
7.44407e-42
8.17498e-42
7.63178e-42
4.43756e-42
1.29614e-43
6.11981e-59
1.25436e-79
0.0455282
0.00536696
0.000328945
1.05858e-05
9.74478e-08
3.89185e-10
3.66391e-13
1.04999e-17
4.86084e-26
1.11961e-30
1.1731e-32
1.4921e-34
4.73175e-36
2.82474e-37
8.81753e-38
2.90447e-37
2.95382e-37
1.99051e-37
1.06344e-37
4.70772e-38
2.74402e-38
1.45778e-38
7.88078e-39
4.63888e-39
2.95284e-39
2.01468e-39
1.45751e-39
1.09689e-39
8.49845e-40
6.72752e-40
5.42854e-40
4.46985e-40
3.75462e-40
3.21637e-40
2.80754e-40
2.49305e-40
2.24564e-40
2.04111e-40
1.85125e-40
1.64233e-40
1.37151e-40
9.99452e-41
5.42782e-41
1.53021e-41
9.30626e-45
3.86971e-63
1.11713e-74
0.0561086
0.007107
0.000477909
1.80814e-05
2.50742e-07
1.47405e-09
2.97943e-12
6.94461e-16
2.37659e-21
3.93387e-28
4.23512e-30
5.66634e-32
1.96012e-33
1.05354e-34
5.61571e-36
5.51445e-37
3.12953e-37
1.22064e-36
1.10633e-36
8.50517e-37
6.51183e-37
4.72633e-37
3.07585e-37
2.01584e-37
1.34364e-37
9.3072e-38
6.73981e-38
5.05716e-38
3.89209e-38
3.03613e-38
2.38798e-38
1.89493e-38
1.51449e-38
1.21687e-38
9.80165e-39
7.88096e-39
6.28422e-39
4.91836e-39
3.71498e-39
2.63132e-39
1.6594e-39
8.4188e-40
2.72651e-40
2.06991e-41
4.85094e-47
1.69516e-67
2.30015e-72
0.0750649
0.0104884
0.000790748
3.38476e-05
6.98516e-07
5.70071e-09
1.92624e-11
1.88785e-14
1.04381e-18
3.61521e-23
4.12231e-25
2.05485e-27
2.09957e-30
1.17347e-31
6.76829e-33
3.54596e-34
1.64321e-35
1.85857e-36
1.1496e-36
5.07282e-36
4.24465e-36
3.43932e-36
2.81544e-36
2.24872e-36
1.73915e-36
1.34883e-36
1.04535e-36
8.12152e-37
6.32253e-37
4.92075e-37
3.81944e-37
2.95207e-37
2.26586e-37
1.72077e-37
1.28638e-37
9.39597e-38
6.63351e-38
4.45299e-38
2.7705e-38
1.53182e-38
6.99697e-39
2.31064e-39
4.18872e-40
1.05323e-41
7.52574e-51
9.42307e-69
1.36958e-73
0.109484
0.0172457
0.00146607
6.93797e-05
1.92861e-06
2.10451e-08
1.04853e-10
2.08418e-13
9.37089e-17
3.64714e-20
7.32606e-22
1.9822e-23
1.04849e-24
8.05995e-26
6.23585e-27
4.39528e-28
2.71656e-29
1.42069e-30
6.0322e-32
2.00999e-33
5.97773e-35
8.16496e-36
6.27791e-36
5.42334e-36
4.63725e-36
3.88641e-36
3.2073e-36
2.60653e-36
2.08659e-36
1.64559e-36
1.27676e-36
9.71509e-37
7.22166e-37
5.21648e-37
3.63576e-37
2.42116e-37
1.51957e-37
8.81238e-38
4.58571e-38
2.04745e-38
7.29207e-39
1.78911e-39
1.93936e-40
5.9942e-43
7.91076e-56
9.64605e-73
4.16971e-72
0.167271
0.0311321
0.00298791
0.00015169
4.70729e-06
6.78126e-08
4.604e-10
1.44842e-12
1.94981e-15
5.91126e-18
1.52597e-19
8.34783e-21
8.12179e-22
8.32178e-23
7.915e-24
6.77397e-25
5.06079e-26
3.16707e-27
1.55857e-28
5.49389e-30
1.30551e-31
2.30592e-33
2.52311e-35
1.78616e-36
1.65531e-36
1.66926e-36
1.54451e-36
1.33531e-36
1.14191e-36
9.52564e-37
7.63976e-37
5.88507e-37
4.35193e-37
3.07154e-37
2.0506e-37
1.27966e-37
7.33757e-38
3.76837e-38
1.66638e-38
5.94267e-39
1.50768e-39
2.08824e-40
7.8735e-42
8.26936e-46
1.15064e-60
3.74629e-65
1.65396e-69
0.205851
0.0468116
0.00525339
0.000289555
9.17151e-06
1.5958e-07
1.35546e-09
5.68654e-12
1.36694e-14
1.16972e-16
3.71843e-18
2.99944e-19
3.49828e-20
3.9625e-21
4.12799e-22
3.86581e-23
3.16043e-24
2.16023e-25
1.14793e-26
4.18137e-28
9.35111e-30
1.59553e-31
2.00543e-33
1.94606e-35
1.5708e-37
1.05186e-38
1.08204e-38
1.32038e-38
1.54871e-38
1.69055e-38
1.71934e-38
1.55942e-38
1.24751e-38
9.11025e-39
5.96938e-39
3.46315e-39
1.73978e-39
7.30395e-40
2.4195e-40
5.73603e-41
8.08637e-42
4.74519e-43
3.56837e-45
4.44363e-51
5.42014e-66
1.45086e-68
1.16683e-71
3.16101e-77
7.91908e-75
2.40114e-72
9.2269e-70
4.67556e-67
-4.65531e-64
1.77916e-61
2.47432e-54
1.30418e-52
3.13081e-83
4.5319e-81
7.33086e-79
2.31497e-76
5.76299e-74
1.75857e-71
6.80108e-69
3.46832e-66
-1.3337e-63
1.33764e-60
1.87984e-53
9.22299e-52
0.00634433
9.68885e-06
3.0779e-10
6.20106e-16
1.46391e-23
1.15e-32
2.5191e-40
6.27371e-46
2.16462e-48
3.93133e-51
2.5427e-54
1.93503e-57
1.7112e-59
1.20819e-61
7.94252e-64
4.96463e-66
2.47062e-68
6.13235e-71
1.91379e-74
1.6922e-79
3.20767e-84
3.1752e-91
1.76751e-92
8.16642e-93
4.75153e-93
2.95199e-93
2.26489e-93
2.49481e-93
2.0153e-92
1.4972e-90
1.36881e-88
1.38152e-86
1.54979e-84
2.62922e-82
4.01851e-80
7.09731e-78
1.47695e-75
3.69144e-73
1.13465e-70
4.42043e-68
2.271e-65
1.87467e-63
1.84932e-59
1.26458e-52
5.72675e-51
0.00638916
1.19974e-05
7.1693e-10
6.06367e-16
2.02238e-23
1.65168e-32
3.72023e-40
9.42239e-46
3.3577e-48
6.30263e-51
4.25795e-54
3.33126e-57
3.14745e-59
2.38045e-61
1.61039e-63
1.03766e-65
5.67464e-68
1.5673e-70
5.43585e-74
8.7891e-79
1.22055e-83
1.8293e-90
7.91647e-92
2.97877e-92
1.98521e-92
1.45326e-92
1.19406e-92
1.31898e-92
1.1274e-91
8.7837e-90
8.39869e-88
8.9143e-86
1.05922e-83
1.42296e-81
2.18614e-79
3.89388e-77
8.168e-75
2.05788e-72
6.37667e-70
2.50456e-67
8.59552e-65
3.64424e-62
5.27629e-58
7.44944e-52
3.07883e-50
0.00637278
1.46091e-05
1.54592e-09
5.5408e-16
2.8023e-23
2.38249e-32
5.63576e-40
1.41978e-45
5.20564e-48
1.01539e-50
7.17724e-54
5.80887e-57
5.83439e-59
4.7914e-61
3.41333e-63
2.26672e-65
1.32914e-67
4.1855e-70
1.5821e-73
5.24308e-78
5.11561e-83
1.30894e-89
5.42207e-91
1.21339e-91
7.20869e-92
5.51862e-92
4.54397e-92
5.27537e-92
6.37313e-91
5.20241e-89
5.02413e-87
5.38359e-85
6.45864e-83
8.75723e-81
1.35789e-78
2.44115e-76
5.16847e-74
1.31438e-71
4.11125e-69
1.63012e-66
4.38172e-64
2.94606e-61
3.31293e-55
3.78774e-51
1.40359e-49
0.00628129
1.74944e-05
2.9341e-09
4.8933e-16
3.89733e-23
3.45336e-32
8.77061e-40
2.14981e-45
8.07739e-48
1.64764e-50
1.21987e-53
1.02839e-56
1.08807e-58
9.71838e-61
7.46317e-63
5.20223e-65
3.21358e-67
1.15921e-69
4.73277e-73
3.29429e-77
2.29206e-82
1.35952e-88
4.51542e-90
8.82969e-91
3.78488e-91
2.51742e-91
1.9641e-91
2.42266e-91
3.93617e-90
3.32008e-88
3.24029e-86
3.50763e-84
4.25077e-82
5.82176e-80
9.118e-78
1.65565e-75
3.54064e-73
9.09494e-71
2.87364e-68
1.15102e-65
-4.78894e-63
2.28733e-60
5.43957e-54
1.62418e-50
5.14293e-49
0.00611314
2.05117e-05
4.92077e-09
4.47409e-16
5.44439e-23
5.03296e-32
1.39897e-39
3.27867e-45
1.25809e-47
2.70232e-50
2.09683e-53
1.85319e-56
2.04467e-58
1.96748e-60
1.65273e-62
1.24414e-64
8.12297e-67
3.30575e-69
1.47716e-72
1.87232e-76
1.17191e-81
1.76289e-87
2.16573e-89
7.28734e-90
3.2317e-90
1.83664e-90
1.43609e-90
1.68274e-90
2.18247e-89
1.83069e-87
1.80585e-85
1.97594e-83
2.42022e-81
3.34999e-79
5.30253e-77
9.7309e-75
2.10324e-72
5.46091e-70
1.74424e-67
6.16911e-65
-4.62796e-63
1.42798e-59
4.83242e-53
5.09852e-50
1.2405e-48
0.00587437
2.33385e-05
7.40291e-09
4.33369e-16
7.64529e-23
7.38038e-32
2.27265e-39
5.05113e-45
1.97625e-47
4.50036e-50
3.66047e-53
3.40709e-56
3.8914e-58
3.97228e-60
3.66082e-62
3.05064e-64
2.16186e-66
9.73785e-69
4.9168e-72
9.25483e-76
8.18958e-81
2.29304e-86
4.67624e-89
3.19882e-89
2.04927e-89
1.3344e-89
1.07844e-89
1.19373e-89
1.076e-88
8.80148e-87
8.77991e-85
9.71846e-83
1.20413e-80
1.68597e-78
2.69953e-76
5.01166e-74
1.09593e-71
2.87931e-69
9.30741e-67
-1.72966e-65
1.0574e-61
7.9324e-59
3.20065e-52
1.06759e-49
1.51247e-48
0.00557091
2.55211e-05
1.01026e-08
4.33088e-16
1.07999e-22
1.08981e-31
3.72515e-39
7.88715e-45
3.15071e-47
7.64888e-50
6.52245e-53
6.40105e-56
7.56309e-58
8.07568e-60
8.12156e-62
7.58376e-64
6.05058e-66
3.01503e-68
1.77921e-71
4.44237e-75
8.0418e-80
4.09295e-85
5.2491e-89
6.12485e-89
5.478e-89
5.08172e-89
4.64085e-89
4.99938e-89
3.51982e-88
2.81395e-86
2.84014e-84
3.18171e-82
3.9895e-80
5.65289e-78
9.16003e-76
1.72115e-73
3.8099e-71
1.01344e-68
3.31769e-66
-5.47885e-65
3.84596e-61
2.94265e-58
1.2755e-51
1.73966e-49
1.51889e-48
0.00520783
2.67411e-05
1.2586e-08
6.13592e-16
1.53571e-22
1.62192e-31
6.09823e-39
1.25233e-44
5.13551e-47
1.33272e-49
1.1922e-52
1.22976e-55
1.51656e-57
1.68591e-59
1.83722e-61
1.9221e-63
1.77372e-65
1.00676e-67
7.08716e-71
2.49749e-74
8.3019e-79
1.5672e-83
1.02128e-88
6.14493e-89
6.33245e-89
5.98183e-89
5.41713e-89
6.39376e-89
8.90227e-88
7.78635e-86
7.96833e-84
9.04317e-82
1.14881e-79
1.64943e-77
2.7088e-75
5.1597e-73
1.15818e-70
3.12516e-68
1.03825e-65
1.92082e-63
1.24353e-60
9.63379e-58
4.38684e-51
2.62092e-49
1.27953e-48
0.00479018
2.71184e-05
1.44162e-08
2.72448e-15
2.19945e-22
2.43541e-31
9.88454e-39
2.02721e-44
8.61607e-47
2.38648e-49
2.24377e-52
2.41607e-55
3.16759e-57
3.70815e-59
4.37684e-61
5.10363e-63
5.47772e-65
3.7083e-67
3.15997e-70
1.79058e-73
8.20802e-78
2.11636e-82
1.29969e-86
7.53447e-89
7.37568e-89
7.92786e-89
6.39656e-89
2.18612e-88
1.36145e-86
1.28089e-84
1.33238e-82
1.5365e-80
1.98392e-78
2.89584e-76
4.83579e-74
9.36769e-72
2.13873e-69
5.87038e-67
1.12299e-64
4.37014e-62
2.46938e-59
3.82534e-53
1.58751e-50
3.29417e-49
6.52769e-49
0.00432591
2.71308e-05
1.54014e-08
1.38995e-14
3.17436e-22
3.69417e-31
1.57841e-38
3.34937e-44
1.4938e-46
4.38944e-49
4.35392e-52
4.85587e-55
6.92164e-57
8.79279e-59
1.14151e-60
1.48625e-62
1.83288e-64
1.53019e-66
1.64384e-69
1.42946e-72
1.158e-76
6.91507e-82
4.17537e-84
1.16101e-87
1.06479e-88
3.71654e-88
2.18976e-88
1.51977e-87
1.16135e-85
1.11297e-83
1.17586e-81
1.37719e-79
1.80603e-77
2.67752e-75
4.54173e-73
8.93798e-71
2.07345e-68
5.78412e-66
5.82296e-64
4.43794e-61
2.56082e-58
4.76436e-52
4.17737e-50
3.25236e-49
1.28859e-49
0.00382863
2.65071e-05
1.5718e-08
4.31618e-14
4.61933e-22
5.66928e-31
2.48351e-38
5.64427e-44
2.67328e-46
8.26294e-49
8.69991e-52
1.00036e-54
1.57594e-56
2.27034e-58
3.37158e-60
5.0138e-62
7.03405e-64
7.24799e-66
1.0746e-68
1.20293e-71
2.9717e-75
7.84338e-80
9.27774e-82
7.97785e-85
2.01519e-87
7.75857e-86
1.06438e-85
1.16412e-85
1.0741e-84
9.47735e-83
1.01697e-80
1.21112e-78
1.61523e-76
2.43577e-74
4.20357e-72
8.41866e-70
1.98812e-67
5.64794e-65
1.01495e-62
4.49702e-60
2.44077e-54
2.2933e-51
7.41251e-50
3.15844e-49
5.78954e-51
0.00331613
2.44557e-05
1.57444e-08
8.47469e-14
6.78309e-22
8.8191e-31
3.87648e-38
9.67953e-44
4.90581e-46
1.58442e-48
1.78563e-51
2.12272e-54
3.70942e-56
6.39928e-58
1.16512e-59
2.07715e-61
3.36632e-63
4.19086e-65
9.59617e-68
1.48133e-70
3.23018e-74
1.35479e-77
2.20729e-79
6.70052e-82
7.14789e-85
7.18707e-85
1.26161e-84
1.07811e-84
9.96436e-84
8.94882e-82
9.7768e-80
1.18563e-77
1.61041e-75
2.47384e-73
4.35002e-71
8.8793e-69
2.1379e-66
5.24092e-64
1.13402e-61
5.14744e-59
4.60872e-53
7.05783e-51
1.08138e-49
3.05153e-49
3.53864e-53
0.00280709
2.10512e-05
1.50823e-08
1.19251e-13
1.00639e-21
1.39391e-30
6.09304e-38
1.68495e-43
9.14682e-46
3.08675e-48
3.76114e-51
4.67642e-54
9.06038e-56
2.0441e-57
5.12624e-59
1.16364e-60
2.23379e-62
3.30185e-64
1.22932e-66
3.59916e-69
1.524e-73
2.51861e-75
5.63851e-77
6.23721e-79
4.85412e-84
4.84988e-84
1.00277e-83
1.00076e-83
5.35856e-83
4.483e-81
4.98692e-79
6.16439e-77
8.536e-75
1.33706e-72
2.39796e-70
4.99389e-68
1.22722e-65
1.86433e-63
6.79446e-61
3.15118e-58
3.18647e-52
1.67552e-50
1.41271e-49
2.9302e-49
2.15984e-56
0.00231991
1.71261e-05
1.3061e-08
1.3541e-13
1.51194e-21
2.24514e-30
9.88229e-38
2.97462e-43
1.7211e-45
6.13018e-48
8.16221e-51
1.07913e-53
2.38256e-55
8.89673e-57
3.79459e-58
1.14511e-59
2.45148e-61
4.00176e-63
2.27507e-65
4.09835e-68
1.87861e-71
5.02023e-73
1.55948e-74
2.83238e-76
2.8678e-83
2.85212e-83
4.93325e-83
5.38014e-83
6.95468e-82
6.71446e-80
7.63819e-78
9.6454e-76
1.36492e-73
2.18568e-71
4.00901e-69
8.54245e-67
2.14894e-64
3.34315e-62
1.24865e-59
5.85365e-54
1.41619e-51
3.31674e-50
1.70934e-49
2.79467e-49
3.63071e-60
0.00187254
1.33697e-05
1.04653e-08
1.38471e-13
2.30775e-21
3.69844e-30
1.70744e-37
5.34206e-43
3.2727e-45
1.25578e-47
1.8448e-50
2.62386e-53
7.16576e-55
5.16226e-56
3.81616e-57
1.64831e-58
4.42508e-60
8.02449e-62
6.46523e-64
1.45838e-67
3.13038e-69
1.08685e-70
4.68995e-72
1.34308e-73
2.62771e-82
2.61856e-82
6.3607e-82
6.84485e-82
5.77003e-81
5.44264e-79
6.32833e-77
8.17343e-75
1.18327e-72
1.93902e-70
3.64084e-68
7.94494e-66
1.98465e-63
3.26361e-61
1.25072e-58
7.39514e-53
4.70572e-51
5.70323e-50
1.95606e-49
2.6596e-49
6.67368e-62
0.00147954
1.00563e-05
8.08317e-09
1.21386e-13
3.59617e-21
6.25828e-30
3.2292e-37
9.84304e-43
6.37209e-45
2.7062e-47
4.41559e-50
6.74299e-53
2.32257e-54
3.08284e-55
3.91855e-56
2.77295e-57
1.21308e-58
3.10968e-60
3.69596e-62
1.56232e-65
5.63595e-67
2.55903e-68
1.54072e-69
7.02036e-71
2.18934e-81
1.99258e-81
3.05922e-81
4.09053e-81
1.0735e-79
1.12964e-77
1.34703e-75
1.78334e-73
2.64739e-71
4.45046e-69
8.57647e-67
1.9218e-64
2.61073e-62
8.33258e-60
2.56242e-54
4.88874e-52
1.25521e-50
8.77497e-50
2.14451e-49
2.48587e-49
6.10216e-63
0.00114888
7.31023e-06
6.12232e-09
7.16298e-14
5.75806e-21
1.09347e-29
6.68015e-37
1.88693e-42
1.30236e-44
6.26427e-47
1.13912e-49
1.84285e-52
7.41065e-54
1.57511e-54
3.3936e-55
4.23382e-56
3.60087e-57
1.88916e-58
5.67907e-60
2.78236e-62
1.22246e-64
6.56749e-66
5.54838e-67
4.06527e-68
7.01217e-74
5.42204e-76
1.29329e-78
1.07827e-79
1.41702e-78
1.47094e-76
1.79996e-74
2.4471e-72
3.73192e-70
6.44731e-68
1.27745e-65
2.93805e-63
4.10475e-61
8.65449e-57
4.92314e-53
2.26556e-51
2.83637e-50
1.22639e-49
2.19615e-49
2.26903e-49
2.08968e-64
0.000881839
5.20562e-06
4.57756e-09
3.32973e-14
9.54517e-21
1.98507e-29
1.45531e-36