/*--------------------------------*- C++ -*----------------------------------*\
| =========                 |                                                 |
| \\      /  F ield         | OpenFOAM: The Open Source CFD Toolbox           |
|  \\    /   O peration     | Version:  v2012                                 |
|   \\  /    A nd           | Website:  www.openfoam.com                      |
|    \\/     M anipulation  |                                                 |
\*---------------------------------------------------------------------------*/
FoamFile
{
    version     2.0;
    format      ascii;
    class       surfaceScalarField;
    location    "0.25";
    object      alphaPhi0.water;
}
// * * * * * * * * * * * * * * * * * * * * * * * * * * * * * * * * * * * * * //

dimensions      [0 3 -1 0 0 0 0];
oriented        oriented;


internalField   nonuniform List<scalar> 
8145
(
-5.33706e-82
6.07444e-82
6.25487e-92
-1.69442e-79
1.93522e-79
-4.11319e-88
-6.66609e-77
7.61468e-77
-8.25374e-86
-3.35338e-74
3.83087e-74
-2.04417e-83
-2.2566e-71
2.57792e-71
3.24386e-81
-3.34411e-68
3.74366e-68
4.33144e-77
-3.58753e-65
4.19121e-65
-3.50334e-74
-1.0845e-61
2.00222e-61
-8.06216e-71
4.03941e-60
-5.48691e-69
-3.56514e-88
3.4627e-88
-1.46314e-96
-7.01959e-86
6.85166e-86
-1.78713e-94
-1.60048e-83
1.56138e-83
-2.81294e-92
-3.59611e-81
4.18173e-81
1.01527e-91
-1.15178e-78
1.34038e-78
-3.00327e-87
-4.56003e-76
5.30649e-76
-6.0687e-85
-2.30827e-73
2.68579e-73
-1.47903e-82
-1.56283e-70
1.81806e-70
2.6992e-80
-2.58351e-67
2.95616e-67
3.87932e-76
-2.24055e-64
2.6573e-64
-2.11667e-73
-7.62333e-61
1.43298e-60
-5.33262e-70
2.67992e-59
-3.53463e-68
-6.35608e-14
-1.74423e-10
-2.84753e-17
-2.53663e-18
-3.1988e-13
-4.19595e-20
-5.99598e-24
-1.43259e-17
-1.16189e-24
-1.6589e-31
-2.07483e-23
-2.43167e-30
-1.49654e-40
-5.98369e-31
-5.69347e-38
-3.70899e-48
-4.95958e-40
-4.25563e-47
-1.02875e-53
-1.12709e-47
-8.68644e-55
-3.94289e-56
-2.90688e-53
-1.99459e-60
-7.85874e-59
-1.04189e-55
-6.61366e-63
-5.4827e-62
-1.94285e-58
-1.14143e-65
-4.46819e-65
-1.27669e-61
-7.06892e-69
-4.26609e-67
-9.71455e-65
-5.08109e-72
-3.23584e-69
-8.80594e-67
-4.30849e-74
-2.26737e-71
-6.29473e-69
-2.91325e-76
-1.50621e-73
-4.07037e-71
-1.81227e-78
-7.9772e-76
-2.50161e-73
-1.16771e-80
-2.09674e-78
-1.24979e-75
-5.42552e-83
-6.87925e-82
-3.03115e-78
-1.25321e-85
-6.43261e-87
-9.16577e-82
-3.59078e-89
-1.24712e-91
-8.13544e-87
-2.94792e-94
-1.27078e-98
-1.29439e-91
-5.01189e-99
-7.554e-100
-1.12052e-98
-4.53457e-106
-3.25103e-100
-3.8818e-100
-2.2583e-107
-1.78248e-100
-1.20569e-100
-9.34764e-108
-1.09389e-100
-4.47508e-101
-4.82573e-108
-8.42446e-101
-5.98057e-102
-2.64399e-108
-7.90122e-101
1.71848e-101
-1.83884e-108
-2.97427e-100
2.39495e-100
-7.77625e-108
-2.91367e-98
2.81047e-98
-4.34281e-106
-3.84857e-96
3.72439e-96
-3.02082e-104
-5.25109e-94
5.08447e-94
-2.00431e-102
-7.6325e-92
7.39137e-92
-1.77976e-101
-1.21089e-89
1.17194e-89
-2.95119e-98
-1.73836e-87
2.06637e-87
-9.6454e-96
-3.44713e-85
4.1046e-85
-1.16612e-93
-7.88298e-83
9.38953e-83
-1.75394e-91
-2.11594e-80
2.52216e-80
1.03575e-90
-6.83093e-78
8.14091e-78
-1.92784e-86
-2.72395e-75
3.24542e-75
-3.92796e-84
-1.38872e-72
1.65395e-72
-9.47672e-82
-9.46866e-70
1.12718e-69
1.93821e-79
-1.67863e-66
1.97339e-66
2.91651e-75
-1.4037e-63
1.66895e-63
-1.1604e-72
-4.70057e-60
9.03803e-60
-2.98113e-69
1.55212e-58
-1.9311e-67
-8.00793e-14
-1.65473e-10
-2.77695e-17
-5.91751e-18
-3.73398e-13
-5.69801e-20
-5.8827e-24
-3.13557e-17
-2.93468e-24
-2.29172e-31
-1.86772e-23
-2.57387e-30
-2.14415e-40
-7.89042e-31
-8.39993e-38
-5.45613e-48
-6.80921e-40
-6.50805e-47
-1.53656e-53
-1.60557e-47
-1.3518e-54
-6.07744e-56
-4.17456e-53
-3.12668e-60
-1.25171e-58
-1.54383e-55
-1.05756e-62
-9.12933e-62
-2.98299e-58
-1.87719e-65
-7.62613e-65
-2.05244e-61
-1.20046e-68
-7.76796e-67
-1.60491e-64
-8.87167e-72
-6.3153e-69
-1.55135e-66
-8.04532e-74
-4.55548e-71
-1.19866e-68
-5.88635e-76
-3.12078e-73
-8.03646e-71
-3.85551e-78
-1.81176e-75
-5.06266e-73
-2.52643e-80
-5.31084e-78
-2.74371e-75
-1.27237e-82
-1.9347e-81
-7.51656e-78
-3.24245e-85
-3.32012e-86
-2.49935e-81
-1.0267e-88
-4.70556e-91
-4.27631e-86
-1.53985e-93
-7.40323e-98
-4.8461e-91
-1.90852e-98
-4.01459e-99
-6.09199e-98
-2.62112e-105
-1.39896e-99
-2.19277e-99
-1.01467e-106
-8.3335e-100
-4.59087e-100
-3.39367e-107
-5.77683e-100
-1.71778e-100
-2.00252e-107
-4.70668e-100
-2.30245e-101
-1.28974e-107
-4.43226e-100
9.20568e-101
-9.58844e-108
-1.33993e-99
1.22111e-99
-4.04629e-107
-1.18008e-97
1.4274e-97
-2.2805e-105
-1.562e-95
1.90253e-95
-1.6058e-103
-2.1405e-93
2.61232e-93
-1.07695e-101
-3.12529e-91
3.81828e-91
-5.29082e-101
-4.97727e-89
6.08487e-89
-1.70077e-97
-8.8028e-87
1.07726e-86
-5.41741e-95
-1.7626e-84
2.15681e-84
-6.52307e-93
-4.06513e-82
4.9731e-82
-9.44664e-91
-1.10103e-79
1.34646e-79
5.3415e-90
-3.58294e-77
4.37968e-77
-1.07897e-85
-1.44018e-74
1.75947e-74
-2.2249e-83
-7.40072e-72
9.03558e-72
-5.36783e-81
-5.29407e-69
6.41251e-69
1.15541e-78
-9.53239e-66
1.15009e-65
1.82533e-74
-7.66667e-63
9.34022e-63
-6.34412e-72
-2.50701e-59
4.96245e-59
-1.4562e-68
7.72404e-58
-8.93465e-67
-9.92078e-14
-1.55787e-10
-2.88426e-17
-1.28026e-17
-4.28641e-13
-7.07424e-20
-5.40168e-24
-6.11209e-17
-6.40774e-24
-3.17522e-31
-1.57046e-23
-2.27943e-30
-3.08478e-40
-1.04247e-30
-1.09573e-37
-8.23106e-48
-9.37811e-40
-8.90477e-47
-2.30192e-53
-2.34632e-47
-1.94959e-54
-9.35983e-56
-6.0093e-53
-4.52917e-60
-2.00273e-58
-2.2835e-55
-1.58896e-62
-1.52998e-61
-4.59833e-58
-2.95695e-65
-1.31843e-64
-3.31825e-61
-2.00203e-68
-1.42514e-66
-2.68505e-64
-1.54838e-71
-1.2581e-68
-2.74664e-66
-1.50544e-73
-9.5583e-71
-2.3138e-68
-1.21122e-75
-6.75304e-73
-1.65062e-70
-8.4912e-78
-4.19757e-75
-1.07449e-72
-5.80709e-80
-1.40481e-77
-6.15986e-75
-3.05776e-82
-5.5737e-81
-1.93928e-77
-8.78451e-85
-1.95896e-85
-6.94709e-81
-3.01096e-88
-1.95441e-90
-2.60762e-85
-9.20243e-93
-5.31698e-97
-1.91121e-90
-7.9989e-98
-3.15096e-98
-4.59838e-97
-1.89292e-104
-6.92723e-99
-2.14021e-98
-6.92346e-106
-3.57177e-99
-2.5062e-99
-1.38093e-106
-2.42684e-99
-7.21944e-100
-7.22442e-107
-1.98253e-99
-8.76499e-101
-4.85044e-107
-1.82404e-99
3.79733e-100
-3.70386e-107
-6.91791e-99
6.65025e-99
-2.19575e-106
-7.00285e-97
8.23947e-97
-1.33879e-104
-9.36504e-95
1.10774e-94
-9.56526e-103
-1.2947e-92
1.53405e-92
-6.50432e-101
-1.90754e-90
2.26204e-90
-2.78665e-100
-3.06609e-88
3.6372e-88
-1.0882e-96
-5.477e-86
6.49765e-86
-3.45221e-94
-1.1064e-83
1.31248e-83
-4.1464e-92
-2.57446e-81
3.05332e-81
-5.8275e-90
-7.03527e-79
8.34099e-79
1.81488e-89
-2.31004e-76
2.73753e-76
-6.913e-85
-9.36916e-74
1.10967e-73
-1.44248e-82
-4.85792e-71
5.74981e-71
-3.49093e-80
-3.68609e-68
4.32191e-68
8.14408e-78
-6.42828e-65
7.57506e-65
1.2878e-73
-5.67549e-62
7.83077e-62
-5.07656e-71
-1.13255e-58
2.33272e-58
-6.21585e-68
3.21501e-57
-3.55863e-66
-1.20886e-13
-1.44589e-10
-2.84642e-17
-2.44454e-17
-4.82995e-13
-8.67419e-20
-4.79166e-24
-1.04298e-16
-1.24846e-23
-4.41563e-31
-1.32671e-23
-2.02587e-30
-4.45909e-40
-1.38091e-30
-1.5278e-37
-1.27522e-47
-1.29636e-39
-1.30963e-46
-3.46443e-53
-3.51765e-47
-3.10746e-54
-1.44227e-55
-8.68686e-53
-7.03874e-60
-3.22623e-58
-3.37788e-55
-2.51792e-62
-2.58494e-61
-7.13645e-58
-4.87663e-65
-2.31457e-64
-5.40631e-61
-3.44274e-68
-2.63099e-66
-4.56114e-64
-2.7747e-71
-2.52431e-68
-4.88587e-66
-2.84745e-73
-2.06693e-70
-4.46701e-68
-2.50992e-75
-1.53366e-72
-3.4637e-70
-1.91977e-77
-1.00487e-74
-2.39011e-72
-1.40402e-79
-3.85114e-77
-1.43486e-74
-7.58577e-82
-1.65014e-80
-5.14864e-77
-2.46644e-84
-1.21073e-84
-1.98367e-80
-9.06848e-88
-8.69257e-90
-1.55224e-84
-5.75716e-92
-5.49617e-96
-7.8394e-90
-3.58682e-97
-2.43746e-97
-5.02168e-96
-1.97221e-103
-5.42249e-98
-1.79401e-97
-5.65151e-105
-2.13975e-98
-2.44813e-98
-9.96078e-106
-1.27841e-98
-5.08305e-99
-3.76634e-106
-1.0179e-98
-4.52271e-100
-2.18962e-106
-9.1863e-99
1.99366e-99
-1.63441e-106
-4.01092e-98
3.95012e-98
-1.31458e-105
-4.30739e-96
5.0186e-96
-8.45361e-104
-5.81244e-94
6.80643e-94
-6.13021e-102
-8.10888e-92
9.51219e-92
-4.23309e-100
-1.206e-89
1.41585e-89
-1.84213e-99
-1.95708e-87
2.29837e-87
-7.46123e-96
-3.52992e-85
4.14556e-85
-2.35487e-93
-7.20093e-83
8.45519e-83
-2.83483e-91
-1.69217e-80
1.98624e-80
-3.89931e-89
-4.67039e-78
5.4794e-78
1.14193e-88
-1.54892e-75
1.81615e-75
-4.80005e-84
-6.34543e-73
7.43501e-73
-1.01452e-81
-3.32324e-70
3.89075e-70
-2.47074e-79
-3.0886e-67
3.51635e-67
6.22768e-77
-4.47419e-64
5.22886e-64
9.5327e-73
-4.66409e-61
6.8281e-61
-4.46635e-70
-4.10727e-58
9.00824e-58
-2.25317e-67
1.02618e-56
-1.15404e-65
-1.44269e-13
-1.32336e-10
-2.55936e-17
-4.132e-17
-5.30357e-13
-9.88019e-20
-4.39737e-24
-1.57945e-16
-2.09885e-23
-6.16825e-31
-1.19104e-23
-1.85645e-30
-6.48027e-40
-1.83536e-30
-2.12405e-37
-2.02421e-47
-1.79964e-39
-1.88997e-46
-5.25008e-53
-5.38807e-47
-4.88814e-54
-2.23016e-55
-1.26424e-52
-1.05963e-59
-5.25117e-58
-5.01524e-55
-3.87481e-62
-4.4157e-61
-1.11956e-57
-7.93337e-65
-4.1373e-64
-8.90684e-61
-5.88971e-68
-4.89729e-66
-7.88812e-64
-5.01105e-71
-5.05545e-68
-8.76086e-66
-5.39309e-73
-4.52507e-70
-8.56686e-68
-5.1611e-75
-3.62598e-72
-7.28777e-70
-4.36003e-77
-2.51707e-74
-5.49206e-72
-3.4931e-79
-1.08648e-76
-3.50683e-74
-1.95806e-81
-5.09667e-80
-1.39864e-76
-7.1081e-84
-6.77082e-84
-5.93304e-80
-2.84294e-87
-4.43431e-89
-7.76149e-84
-3.25266e-91
-7.03975e-95
-3.96686e-89
-1.84167e-96
-8.83919e-97
-5.39826e-95
-2.54205e-102
-4.23625e-97
-5.2469e-97
-2.66258e-104
-1.74924e-97
-1.9884e-97
-8.06182e-105
-8.78329e-98
-5.13161e-98
-3.16763e-105
-6.7876e-98
-3.36648e-99
-1.57533e-105
-6.24387e-98
1.33963e-98
-1.14582e-105
-2.19335e-97
2.09717e-97
-7.29075e-105
-2.15688e-95
2.59683e-95
-4.60208e-103
-2.93333e-93
3.55288e-93
-3.38405e-101
-4.13323e-91
5.01415e-91
-2.37579e-99
-6.2114e-89
7.53904e-89
-1.49829e-98
-1.01873e-86
1.23641e-86
-4.37737e-95
-1.85729e-84
2.25327e-84
-1.38626e-92
-3.83015e-82
4.6438e-82
-1.67699e-90
-9.09962e-80
1.10239e-79
-2.28125e-88
-2.53935e-77
3.07342e-77
4.93746e-88
-8.51591e-75
1.02959e-74
-2.89406e-83
-3.52801e-72
4.26033e-72
-6.19775e-81
-1.9083e-69
2.29294e-69
-1.52229e-78
-1.97559e-66
2.32522e-66
4.65686e-76
-2.50511e-63
3.02616e-63
6.00225e-72
-2.90769e-60
4.6226e-60
-3.13687e-69
-9.79197e-58
2.42524e-57
-5.99627e-67
1.8254e-56
-2.45636e-65
-1.67163e-13
-1.19438e-10
-2.38119e-17
-6.27237e-17
-5.61111e-13
-1.0929e-19
-4.27727e-24
-2.15327e-16
-3.08941e-23
-8.66175e-31
-1.12893e-23
-1.71765e-30
-9.47453e-40
-2.44939e-30
-2.88223e-37
-3.27108e-47
-2.51072e-39
-2.7244e-46
-8.03425e-53
-8.36419e-47
-7.90114e-54
-3.47659e-55
-1.85816e-52
-1.63537e-59
-8.67542e-58
-7.51438e-55
-6.10594e-62
-7.65797e-61
-1.78423e-57
-1.32491e-64
-7.54812e-64
-1.49057e-60
-1.02967e-67
-9.24087e-66
-1.39179e-63
-9.23919e-71
-1.01023e-67
-1.59409e-65
-1.03154e-72
-9.91136e-70
-1.63758e-67
-1.0517e-74
-8.78574e-72
-1.5245e-69
-9.80743e-77
-6.63801e-74
-1.2801e-71
-8.75018e-79
-3.16548e-76
-9.00707e-74
-5.27754e-81
-1.67848e-79
-3.92225e-76
-2.10539e-83
-3.30489e-83
-1.89958e-79
-9.47095e-87
-3.0961e-88
-3.36141e-83
-1.59998e-90
-9.2898e-94
-3.06223e-88
-1.29192e-95
-1.9488e-96
-6.19763e-94
-3.36561e-101
-1.62464e-96
-7.02238e-97
-5.72436e-104
-1.03932e-96
-5.66081e-97
-3.4777e-104
-6.05271e-97
-2.82408e-97
-1.97364e-104
-4.60964e-97
-2.9077e-98
-1.12628e-104
-4.34802e-97
8.71849e-98
-8.21855e-105
-1.11077e-96
9.69143e-97
-3.64933e-104
-9.03133e-95
1.13118e-94
-2.18246e-102
-1.23697e-92
1.56224e-92
-1.6281e-100
-1.76237e-90
2.22911e-90
-1.16533e-98
-2.67959e-88
3.38976e-88
-1.01257e-97
-4.44775e-86
5.62354e-86
-2.24686e-94
-8.20828e-84
1.03683e-83
-7.10864e-92
-1.71375e-81
2.16204e-81
-8.67435e-90
-4.12259e-79
5.1935e-79
-1.17354e-87
-1.16506e-76
1.46533e-76
-3.39162e-88
-3.95721e-74
4.96834e-74
-1.53577e-82
-1.66063e-71
2.08098e-71
-3.33786e-80
-1.08665e-68
1.31362e-68
-8.44169e-78
-1.00758e-65
1.23898e-65
2.86625e-75
-1.11734e-62
1.41901e-62
3.26349e-71
-1.5351e-59
2.52809e-59
-1.85187e-68
-1.17857e-57
4.33405e-57
-1.08203e-66
1.80144e-56
-2.6678e-65
-1.8623e-13
-1.06218e-10
-2.10519e-17
-8.64324e-17
-5.6682e-13
-1.13364e-19
-4.35312e-24
-2.66349e-16
-4.07862e-23
-1.22348e-30
-1.13097e-23
-1.69971e-30
-1.39458e-39
-3.28452e-30
-3.97945e-37
-5.33107e-47
-3.52297e-39
-3.92435e-46
-1.24561e-52
-1.3023e-46
-1.26463e-53
-5.49807e-55
-2.76752e-52
-2.50529e-59
-1.46207e-57
-1.14409e-54
-9.57537e-62
-1.3549e-60
-2.90336e-57
-2.22105e-64
-1.40776e-63
-2.54682e-60
-1.81428e-67
-1.78239e-65
-2.50809e-63
-1.72412e-70
-2.03467e-67
-2.97134e-65
-1.99874e-72
-2.17618e-69
-3.16531e-67
-2.14024e-74
-2.15903e-71
-3.19566e-69
-2.18638e-76
-1.83893e-73
-3.00453e-71
-2.19309e-78
-9.69326e-76
-2.41349e-73
-1.48199e-80
-6.00784e-79
-1.16156e-75
-6.51591e-83
-1.57294e-82
-6.59485e-79
-3.41546e-86
-3.00123e-87
-1.52281e-82
-7.65252e-90
-1.7514e-92
-2.94254e-87
-1.25571e-94
-4.24527e-96
-2.0733e-92
-6.35148e-100
-2.72879e-96
-2.07158e-96
-1.2681e-103
-2.49857e-96
-6.1785e-97
-6.56935e-104
-2.29655e-96
-3.2575e-97
-5.19075e-104
-2.11516e-96
-2.78136e-98
-4.2158e-104
-2.03089e-96
2.77115e-97
-3.42744e-104
-3.73885e-96
2.88661e-96
-1.20643e-103
-2.2566e-94
3.27264e-94
-6.87642e-102
-3.10736e-92
4.56485e-92
-5.20847e-100
-4.48131e-90
6.58809e-90
-3.80879e-98
-6.90308e-88
1.01368e-87
-4.97524e-97
-1.16135e-85
1.70185e-85
-7.6377e-94
-2.17292e-83
3.17583e-83
-2.42563e-91
-4.60042e-81
6.70352e-81
-2.98983e-89
-1.12243e-78
1.63021e-78
-4.06126e-87
-3.21782e-76
4.65717e-76
-1.18744e-86
-1.10898e-73
1.59908e-73
-5.44219e-82
-4.72304e-71
6.78368e-71
-1.20066e-79
-3.7892e-68
5.09648e-68
-3.56792e-77
-3.19335e-65
4.42835e-65
1.1014e-74
-2.33592e-62
3.75186e-62
1.11857e-70
-4.72774e-59
8.82548e-59
-7.01754e-68
-1.16675e-57
6.29787e-57
-1.54133e-66
1.69265e-56
-2.39435e-65
-1.98813e-13
-9.29369e-11
-1.97456e-17
-1.08769e-16
-5.48273e-13
-1.14713e-19
-6.55235e-24
-3.00377e-16
-4.93979e-23
-1.73917e-30
-2.38227e-23
-2.43728e-30
-2.06814e-39
-4.42818e-30
-5.44987e-37
-8.67296e-47
-4.9763e-39
-5.6872e-46
-1.96265e-52
-2.01287e-46
-2.02981e-53
-8.88407e-55
-4.18979e-52
-3.91891e-59
-2.52447e-57
-1.78337e-54
-1.54113e-61
-2.45728e-60
-4.84238e-57
-3.82355e-64
-2.68547e-63
-4.46302e-60
-3.2791e-67
-3.54932e-65
-4.6157e-63
-3.27977e-70
-4.21282e-67
-5.73444e-65
-3.97356e-72
-4.87856e-69
-6.33546e-67
-4.43622e-74
-5.41525e-71
-6.88098e-69
-4.91487e-76
-5.3293e-73
-7.19595e-71
-5.52909e-78
-3.2009e-75
-6.7072e-73
-4.31497e-80
-2.36704e-78
-3.72483e-75
-2.1598e-82
-8.7821e-82
-2.49573e-78
-1.34958e-85
-3.05427e-86
-8.80348e-82
-4.28034e-89
-6.47901e-91
-2.42054e-86
-1.27868e-93
-3.93091e-94
-7.37184e-91
-2.34787e-98
-3.41719e-96
-3.95256e-94
-1.23688e-101
-2.80655e-96
-9.26709e-97
-8.70413e-104
-2.68153e-96
-3.32576e-97
-5.89652e-104
-2.52622e-96
-2.16922e-98
-4.87691e-104
-2.38137e-96
3.26298e-97
-4.1228e-104
-6.5668e-96
7.02437e-96
-2.81996e-103
-6.38333e-94
9.33456e-94
-1.87402e-101
-8.96035e-92
1.31847e-91
-1.44708e-99
-1.3069e-89
1.92457e-89
-1.08386e-97
-2.0367e-87
2.99647e-87
-1.88949e-96
-3.46763e-85
5.09227e-85
-2.27028e-93
-6.56758e-83
9.62129e-83
-7.20013e-91
-1.40784e-80
2.05665e-80
-8.99841e-89
-3.47871e-78
5.06613e-78
-1.23197e-86
-1.01026e-75
1.4663e-75
-8.85006e-86
-3.52787e-73
5.10185e-73
-1.69876e-81
-1.52278e-70
2.19365e-70
-3.81362e-79
-1.31979e-67
1.82712e-67
-1.35441e-76
-1.12703e-64
1.56852e-64
3.70517e-74
-5.60606e-62
9.34708e-62
2.85448e-70
-1.37772e-58
2.80693e-58
-2.34182e-67
-9.67202e-58
8.35823e-57
-2.07786e-66
1.14914e-56
-1.8177e-65
-2.05272e-13
-7.98389e-11
-1.63299e-17
-1.25827e-16
-5.16934e-13
-1.08138e-19
-2.86777e-23
-3.11856e-16
-5.42751e-23
-2.48872e-30
-1.3145e-22
-1.01501e-29
-3.09264e-39
-6.00525e-30
-7.46809e-37
-1.39623e-46
-7.08357e-39
-8.24204e-46
-3.1505e-52
-3.06439e-46
-3.19369e-53
-1.4764e-54
-6.46052e-52
-6.19349e-59
-4.47579e-57
-2.86327e-54
-2.52981e-61
-4.584e-60
-8.2869e-57
-6.70729e-64
-5.23851e-63
-8.04211e-60
-6.05002e-67
-7.36256e-65
-8.66866e-63
-6.3283e-70
-9.19869e-67
-1.15511e-64
-8.16111e-72
-1.15352e-68
-1.34836e-66
-9.60452e-74
-1.42542e-70
-1.57778e-68
-1.1515e-75
-1.62665e-72
-1.82036e-70
-1.44383e-77
-1.16581e-74
-1.95181e-72
-1.31158e-79
-1.04476e-77
-1.31168e-74
-7.84594e-82
-6.22316e-81
-1.04774e-77
-5.94848e-85
-3.04325e-85
-6.11329e-81
-3.02982e-88
-1.65138e-89
-2.18071e-85
-1.2723e-92
-8.01483e-92
-9.82934e-90
-5.97127e-97
-2.57485e-94
-8.14368e-92
-2.51568e-99
-3.15877e-96
-2.55688e-94
-7.0352e-102
-3.29994e-96
-3.51827e-97
-6.8187e-104
-3.069e-96
-1.54471e-98
-6.40908e-104
-3.65592e-96
9.36304e-97
-9.72109e-104
-1.11897e-94
1.13259e-94
-4.00969e-102
-1.59394e-92
1.65859e-92
-3.02129e-100
-2.27036e-90
2.37004e-90
-2.38216e-98
-3.34829e-88
3.50166e-88
-1.83183e-96
-5.27515e-86
5.5232e-86
-4.32232e-95
-9.08082e-84
9.51546e-84
-4.00624e-92
-1.7393e-81
1.82356e-81
-1.28141e-89
-3.77134e-79
3.95557e-79
-1.62933e-87
-9.42842e-77
9.89151e-77
-2.27299e-85
-2.77081e-74
2.90729e-74
-2.5218e-84
-9.79258e-72
1.02753e-71
-3.22583e-80
-4.63298e-69
4.84208e-69
-7.39311e-78
-3.91572e-66
4.09418e-66
-2.93518e-75
-2.64327e-63
2.79668e-63
7.62457e-73
-2.42855e-60
3.74656e-60
7.77622e-69
-4.33912e-58
9.14474e-58
-8.27918e-67
-4.84703e-58
8.56929e-57
-2.38387e-66
3.54376e-57
-8.41399e-66
-2.08692e-13
-6.72117e-11
-1.40595e-17
-1.3565e-16
-4.83943e-13
-1.01426e-19
-1.40952e-22
-3.04294e-16
-5.57799e-23
-3.5857e-30
-5.39142e-22
-4.90517e-29
-4.66791e-39
-8.19567e-30
-1.06416e-36
-2.21281e-46
-1.01739e-38
-1.23092e-45
-5.15713e-52
-4.57911e-46
-5.0044e-53
-2.53271e-54
-1.0149e-51
-1.00316e-58
-8.14092e-57
-4.74447e-54
-4.30162e-61
-8.80484e-60
-1.45145e-56
-1.21549e-63
-1.04489e-62
-1.48961e-59
-1.15195e-66
-1.5969e-64
-1.66139e-62
-1.24738e-69
-2.16591e-66
-2.42798e-64
-1.74686e-71
-2.98978e-68
-3.09952e-66
-2.22786e-73
-4.12386e-70
-3.98116e-68
-2.92856e-75
-5.38725e-72
-5.09125e-70
-4.09209e-77
-4.75798e-74
-6.15521e-72
-4.28762e-79
-5.39348e-77
-5.10218e-74
-3.17567e-81
-4.90892e-80
-5.14365e-77
-3.05449e-84
-4.43939e-84
-4.05854e-80
-2.38103e-87
-1.44153e-87
-4.79283e-84
-1.8501e-91
-1.75504e-89
-1.44907e-87
-5.19475e-95
-8.57362e-92
-1.78108e-89
-5.48645e-97
-2.57067e-95
-8.61555e-92
-2.3342e-99
-1.48223e-95
-4.59663e-96
-6.01239e-103
-1.16345e-95
-3.05277e-97
-2.97282e-103
-1.89335e-95
6.56953e-96
-5.87864e-103
-8.34595e-94
9.06413e-94
-3.34273e-101
-1.1978e-91
1.33747e-91
-2.57586e-99
-1.72738e-89
1.9359e-89
-2.07029e-97
-2.58435e-87
2.90059e-87
-1.63294e-95
-4.13431e-85
4.64235e-85
-4.72607e-94
-7.23071e-83
8.11852e-83
-3.7336e-91
-1.40766e-80
1.57979e-80
-1.19623e-88
-3.10341e-78
3.48046e-78
-1.54786e-86
-7.89113e-76
8.84218e-76
-2.19544e-84
-2.3594e-73
2.64106e-73
-3.61691e-83
-8.48645e-71
9.48865e-71
-3.21322e-79
-4.70085e-68
5.17676e-68
-8.11143e-77
-3.82885e-65
4.23373e-65
-3.28645e-74
-1.55776e-62
1.83383e-62
6.37208e-72
-2.51164e-59
3.71361e-59
8.78465e-68
-8.17677e-58
2.01245e-57
-2.139e-66
-9.38602e-59
7.81175e-57
-2.20491e-66
2.60844e-58
-1.52744e-66
-2.0683e-13
-5.53671e-11
-1.18453e-17
-1.39454e-16
-4.34137e-13
-9.319e-20
-4.32621e-22
-2.86852e-16
-5.35572e-23
-5.20257e-30
-1.27866e-21
-1.3832e-28
-7.12017e-39
-1.12618e-29
-1.43467e-36
-3.45244e-46
-1.47667e-38
-1.79167e-45
-8.60086e-52
-6.732e-46
-7.54298e-53
-4.4788e-54
-1.62142e-51
-1.62871e-58
-1.51314e-56
-8.08146e-54
-7.43516e-61
-1.73858e-59
-2.58798e-56
-2.21263e-63
-2.13441e-62
-2.82784e-59
-2.23058e-66
-3.60561e-64
-3.2567e-62
-2.49447e-69
-5.55087e-66
-5.26951e-64
-3.85998e-71
-8.78403e-68
-7.63924e-66
-5.58056e-73
-1.38533e-69
-1.11941e-67
-8.36615e-75
-2.05325e-71
-1.63547e-69
-1.33076e-76
-2.23336e-73
-2.23033e-71
-1.59997e-78
-3.51634e-76
-2.24841e-73
-1.47173e-80
-4.15563e-79
-3.21443e-76
-1.97472e-83
-1.17607e-82
-3.08903e-79
-2.00382e-86
-2.44152e-85
-1.01725e-82
-4.87829e-90
-4.25421e-87
-2.44777e-85
-8.75939e-93
-3.11258e-89
-4.29635e-87
-1.2773e-94
-1.60082e-92
-3.13361e-89
-8.43015e-97
-2.52931e-93
-1.37139e-92
-3.76547e-100
-3.34827e-93
1.42141e-95
-5.93575e-101
-3.96425e-93
8.48144e-94
-7.33606e-101
-1.28107e-92
8.81589e-93
-3.30603e-100
-9.78263e-91
1.08584e-90
-2.15037e-98
-1.41694e-88
1.58993e-88
-1.75993e-96
-2.15283e-86
2.41792e-86
-1.42355e-94
-3.49975e-84
3.93073e-84
-4.52665e-93
-6.2225e-82
6.98565e-82
-3.39463e-90
-1.23191e-79
1.38196e-79
-1.10018e-87
-2.76286e-77
3.09642e-77
-1.44999e-85
-7.14891e-75
8.00311e-75
-2.10688e-83
-2.17584e-72
2.4328e-72
-4.41476e-82
-7.96936e-70
8.89847e-70
-3.17152e-78
-4.9343e-67
5.44468e-67
-9.32045e-76
-3.37849e-64
3.79752e-64
-3.67447e-73
-1.95226e-61
2.92522e-61
6.58957e-71
-8.72592e-59
1.4932e-58
4.08142e-67
-7.76806e-58
3.02894e-57
-3.72427e-66
-4.14629e-60
6.98929e-57
-2.03812e-66
2.43585e-60
-6.40433e-68
-1.93141e-13
-4.45726e-11
-1.00358e-17
-1.40281e-16
-3.62801e-13
-8.16268e-20
-8.47103e-22
-2.6671e-16
-5.15803e-23
-7.60469e-30
-1.97412e-21
-2.73051e-28
-1.09931e-38
-1.55938e-29
-2.12094e-36
-5.33786e-46
-2.17001e-38
-2.77184e-45
-1.4579e-51
-9.83239e-46
-1.15986e-52
-8.10998e-54
-2.62623e-51
-2.73753e-58
-2.85972e-56
-1.40212e-53
-1.33204e-60
-3.51928e-59
-4.67202e-56
-4.12272e-63
-4.48482e-62
-5.48336e-59
-4.46878e-66
-8.40643e-64
-6.5672e-62
-5.16222e-69
-1.55316e-65
-1.16707e-63
-8.83134e-71
-3.05596e-67
-1.98217e-65
-1.5258e-72
-5.78269e-69
-3.54555e-67
-2.79508e-74
-9.82553e-71
-6.25477e-69
-5.28764e-76
-1.28742e-72
-9.9944e-71
-7.45524e-78
-3.15986e-75
-1.21416e-72
-8.35069e-80
-5.28801e-78
-2.75603e-75
-1.75569e-82
-3.11108e-81
-5.86605e-78
-2.53063e-85
-4.56842e-83
-2.0606e-81
-1.28266e-88
-1.33703e-84
-4.51424e-83
-1.5905e-90
-1.2227e-86
-1.34135e-84
-3.19668e-92
-1.31268e-89
-1.23559e-86
-3.29309e-94
-2.65948e-92
-1.3141e-89
-3.0695e-97
-3.74289e-92
2.82594e-94
-5.37628e-100
-4.29379e-92
9.12904e-93
-8.39874e-100
-1.20736e-91
7.51524e-92
-2.99794e-99
-8.52422e-90
9.34921e-90
-1.98773e-97
-1.25235e-87
1.39046e-87
-1.66168e-95
-1.93437e-85
2.15074e-85
-1.37847e-93
-3.19997e-83
3.55895e-83
-4.66249e-92
-5.79339e-81
6.44151e-81
-3.45284e-89
-1.1685e-78
1.29838e-78
-1.12772e-86
-2.67108e-76
2.96527e-76
-1.5178e-84
-7.04735e-74
7.81505e-74
-2.25562e-82
-2.18803e-71
2.42337e-71
-6.05736e-81
-8.54439e-69
9.40977e-69
-3.5259e-77
-5.73941e-66
6.27554e-66
-1.16953e-74
-2.55632e-63
2.93071e-63
-3.96882e-72
-2.76675e-60
3.78494e-60
8.75397e-70
-1.93546e-58
3.9394e-58
1.22074e-66
-7.32531e-58
3.87351e-57
-5.32424e-66
-2.58243e-62
6.22277e-57
-1.91568e-66
2.02955e-63
-3.86207e-70
-1.67714e-13
-3.50212e-11
-8.86493e-18
-1.34632e-16
-2.83769e-13
-6.97268e-20
-1.18937e-21
-2.28159e-16
-4.73612e-23
-1.12087e-29
-2.27812e-21
-3.62781e-28
-1.72147e-38
-2.17879e-29
-2.99257e-36
-8.30007e-46
-3.23627e-38
-4.23191e-45
-2.50486e-51
-1.45408e-45
-1.7621e-52
-1.48979e-53
-4.30059e-51
-4.59263e-58
-5.4808e-56
-2.45275e-53
-2.39311e-60
-7.29478e-59
-8.52616e-56
-7.70994e-63
-9.7654e-62
-1.08562e-58
-9.04976e-66
-2.06717e-63
-1.37406e-61
-1.09478e-68
-5.82905e-65
-2.67712e-63
-2.07625e-70
-1.72734e-66
-6.38159e-65
-4.71936e-72
-4.0059e-68
-1.70548e-66
-1.19918e-73
-7.24418e-70
-3.79314e-68
-2.8781e-75
-1.02669e-71
-6.70331e-70
-4.88682e-77
-4.16809e-74
-9.19933e-72
-6.54184e-79
-1.29198e-76
-3.37381e-74
-2.28782e-81
-3.14887e-79
-1.39613e-76
-6.12899e-84
-1.20775e-80
-3.06545e-79
-1.2891e-86
-4.14137e-82
-1.18005e-80
-3.10597e-88
-6.003e-84
-4.12336e-82
-8.6353e-90
-1.19614e-86
-6.09785e-84
-1.39799e-91
-1.76127e-91
-1.19746e-86
-2.77987e-94
-2.81528e-91
2.82677e-93
-3.53812e-99
-3.61576e-91
6.58833e-92
-6.41609e-99
-8.23915e-91
4.13889e-91
-1.68414e-98
-3.7243e-89
4.49389e-89
-9.73785e-97
-5.49192e-87
6.77526e-87
-8.30313e-95
-8.63864e-85
1.06584e-84
-7.05738e-93
-1.45704e-82
1.79518e-82
-2.54084e-91
-2.69143e-80
3.30903e-80
-1.85082e-88
-5.54173e-78
6.79582e-78
-6.15285e-86
-1.29385e-75
1.58206e-75
-8.45494e-84
-3.48829e-73
4.25204e-73
-1.29289e-81
-1.10724e-70
1.34522e-70
-4.06372e-80
-5.11078e-68
6.03966e-68
-2.17483e-76
-3.4283e-65
4.05073e-65
-7.89991e-74
-1.18624e-62
1.47602e-62
-1.80445e-71
-1.4454e-59
2.18578e-59
5.33139e-69
-3.37154e-58
8.13966e-58
2.81922e-66
-6.84821e-58
4.50076e-57
-6.78574e-66
-2.23077e-65
5.47963e-57
-1.80531e-66
3.22617e-67
-3.27987e-73
-1.37049e-13
-2.68471e-11
-7.39993e-18
-1.16496e-16
-2.11558e-13
-5.66261e-20
-1.34401e-21
-1.76432e-16
-4.03057e-23
-1.66887e-29
-2.21983e-21
-4.10838e-28
-2.74151e-38
-3.07896e-29
-4.45802e-36
-1.32979e-45
-4.91237e-38
-6.70718e-45
-4.35792e-51
-2.24213e-45
-2.79803e-52
-2.75787e-53
-7.11876e-51
-7.91111e-58
-1.06882e-55
-4.30367e-53
-4.38778e-60
-1.55419e-58
-1.58272e-55
-1.49143e-62
-2.2219e-61
-2.20751e-58
-1.91073e-65
-5.9135e-63
-3.00392e-61
-2.45117e-68
-3.14936e-64
-6.92679e-63
-5.28448e-70
-1.54938e-65
-2.98465e-64
-1.99128e-71
-4.60912e-67
-1.36969e-65
-8.57557e-73
-9.0194e-69
-3.99529e-67
-2.73058e-74
-1.30232e-70
-7.70519e-69
-5.38139e-76
-8.59624e-73
-1.11042e-70
-8.14694e-78
-2.92404e-75
-6.49285e-73
-4.65699e-80
-6.27315e-77
-1.92622e-75
-1.37383e-82
-2.78469e-78
-6.06151e-77
-2.09077e-84
-1.32029e-79
-2.68067e-78
-6.54933e-86
-3.53233e-81
-1.29614e-79
-2.52873e-87
-1.22083e-83
-3.54635e-81
-6.46562e-89
-1.017e-90
-1.22204e-83
-2.81945e-91
-1.337e-90
2.224e-92
-2.02988e-98
-1.71338e-90
3.32964e-91
-3.2106e-98
-6.79899e-90
4.77366e-90
-1.93469e-97
-6.26987e-88
6.5692e-88
-1.42064e-95
-9.56091e-86
1.01027e-85
-1.24359e-93
-1.5299e-83
1.61924e-83
-1.08439e-91
-2.62596e-81
2.78141e-81
-4.0541e-90
-4.93874e-79
5.23264e-79
-3.00845e-87
-1.03585e-76
1.09748e-76
-1.0145e-84
-2.46467e-74
2.61071e-74
-1.42889e-82
-6.77519e-72
7.17383e-72
-2.24498e-80
-2.19378e-69
2.32164e-69
-8.42146e-79
-1.15445e-66
1.21276e-66
-4.48506e-75
-5.46515e-64
5.85969e-64
-1.64939e-72
-3.79842e-61
4.96221e-61
-5.26655e-70
-4.97901e-59
8.36856e-59
2.10058e-68
-4.99124e-58
1.41185e-57
5.41917e-66
-6.34113e-58
4.87169e-57
-7.99458e-66
-1.00715e-68
4.77367e-57
-1.72193e-66
2.99547e-70
-1.50622e-76
-1.06935e-13
-2.01087e-11
-6.08002e-18
-9.2874e-17
-1.51501e-13
-4.44672e-20
-1.36047e-21
-1.2918e-16
-3.17979e-23
-2.51766e-29
-2.00956e-21
-4.01179e-28
-4.45498e-38
-4.4166e-29
-6.47344e-36
-2.26544e-45
-7.61585e-38
-1.05618e-44
-7.69997e-51
-3.73098e-45
-4.60295e-52
-5.15187e-53
-1.19674e-50
-1.34767e-57
-2.14633e-55
-7.61451e-53
-7.90886e-60
-3.43994e-58
-3.03675e-55
-2.90055e-62
-5.31114e-61
-4.67215e-58
-4.10751e-65
-1.94275e-62
-6.87717e-61
-5.6772e-68
-1.99993e-63
-2.02894e-62
-1.51384e-69
-1.65178e-64
-1.73439e-63
-1.09515e-70
-7.28431e-66
-1.38269e-64
-8.10335e-72
-1.91942e-67
-6.00953e-66
-3.71626e-73
-3.26286e-69
-1.56295e-67
-9.68699e-75
-3.18577e-71
-2.61917e-69
-1.76338e-76
-2.41161e-73
-2.44805e-71
-1.70157e-78
-1.37881e-74
-2.28917e-73
-1.12121e-80
-6.7564e-76
-1.32198e-74
-3.67931e-82
-4.4293e-77
-6.36997e-76
-1.4976e-83
-2.02901e-78
-4.2576e-77
-8.06474e-85
-1.40513e-80
-2.02683e-78
-3.28339e-86
-9.13796e-90
-1.40636e-80
-3.22441e-88
-1.54627e-89
2.524e-91
-1.81201e-97
-2.17744e-89
4.04098e-90
-3.92284e-97
-5.96805e-89
3.91801e-89
-1.6201e-96
-4.50756e-87
5.03854e-87
-1.12148e-94
-6.98512e-85
7.88673e-85
-1.00503e-92
-1.14177e-82
1.28979e-82
-8.98976e-91
-2.00421e-80
2.26273e-80
-3.51844e-89
-3.85794e-78
4.35061e-78
-2.62987e-86
-8.28714e-76
9.3314e-76
-9.07596e-84
-2.02064e-73
2.27127e-73
-1.30978e-81
-5.69547e-71
6.38955e-71
-2.12651e-79
-1.92133e-68
2.13406e-68
-8.93092e-78
-1.17909e-65
1.29848e-65
-5.04014e-74
-3.6547e-63
4.22952e-63
-1.34057e-71
-3.59647e-60
4.97179e-60
-6.02358e-69
-1.29286e-58
2.41455e-58
6.21248e-68
-6.55949e-58
2.13482e-57
9.03722e-66
-5.84056e-58
4.99691e-57
-8.87912e-66
-2.49087e-71
4.11906e-57
-1.65345e-66
1.32225e-71
-7.04237e-79
-7.99662e-14
-1.4761e-11
-4.53422e-18
-7.10418e-17
-1.04335e-13
-3.2314e-20
-1.17819e-21
-9.20422e-17
-2.34431e-23
-3.86623e-29
-1.30707e-21
-3.41809e-28
-7.41778e-38
-6.46375e-29
-9.82003e-36
-4.21407e-45
-1.21092e-37
-1.73825e-44
-1.39338e-50
-6.83428e-45
-8.47024e-52
-9.8401e-53
-2.06528e-50
-2.41492e-57
-4.52717e-55
-1.38427e-52
-1.49728e-59
-8.04187e-58
-6.1623e-55
-6.0734e-62
-1.33734e-60
-1.04789e-57
-9.52347e-65
-6.5444e-62
-1.64749e-60
-1.40683e-67
-1.17265e-62
-6.15619e-62
-4.69279e-69
-1.66095e-63
-9.61968e-63
-6.16352e-70
-1.26014e-64
-1.34387e-63
-7.72584e-71
-5.87694e-66
-1.00108e-64
-5.81339e-72
-1.6164e-67
-4.61896e-66
-2.49875e-73
-2.65691e-69
-1.2648e-67
-6.87164e-75
-4.37018e-71
-2.12924e-69
-1.17173e-76
-2.78056e-72
-4.11772e-71
-1.71154e-78
-1.74743e-73
-2.62486e-72
-7.03293e-80
-1.58377e-74
-1.60097e-73
-3.73039e-81
-1.20815e-75
-1.4721e-74
-2.81499e-82
-2.59273e-77
-1.18787e-75
-1.84221e-83
-6.81303e-89
-2.59415e-77
-4.19927e-85
-7.73277e-89
2.32782e-90
-1.34216e-96
-9.60373e-89
2.16002e-89
-2.05954e-96
-7.19928e-88
6.5247e-88
-2.71746e-95
-9.64034e-86
9.98559e-86
-2.25895e-93
-1.53697e-83
1.59781e-83
-2.08197e-91
-2.56623e-81
2.67127e-81
-1.91436e-89
-4.60445e-79
4.79587e-79
-7.70228e-88
-9.06531e-77
9.44456e-77
-5.96324e-85
-1.99288e-74
2.07624e-74
-2.09647e-82
-4.97584e-72
5.18305e-72
-3.11165e-80
-1.43703e-69
1.49641e-69
-5.20847e-78
-5.81817e-67
6.01857e-67
-2.52384e-76
-1.97522e-64
2.09997e-64
-1.49598e-72
-1.45213e-61
1.93381e-61
-4.7635e-70
-1.8728e-59
2.80103e-59
-3.88713e-68
-2.71023e-58
5.61379e-58
1.43856e-67
-7.99603e-58
2.88941e-57
1.34441e-65
-5.265e-58
4.82853e-57
-9.4608e-66
-1.35256e-72
3.44922e-57
-1.59615e-66
9.47149e-73
-5.36073e-80
-5.74661e-14
-1.06697e-11
-3.47296e-18
-5.30399e-17
-6.97629e-14
-2.30298e-20
-6.86107e-22
-6.42088e-17
-1.73425e-23
-6.08128e-29
-5.78306e-22
-1.94545e-28
-1.27192e-37
-9.71433e-29
-1.49982e-35
-8.54743e-45
-1.98414e-37
-2.88851e-44
-2.61829e-50
-1.35058e-44
-1.65945e-51
-1.96983e-52
-3.71648e-50
-4.37858e-57
-1.02427e-54
-2.66404e-52
-2.89325e-59
-2.02136e-57
-1.34753e-54
-1.32987e-61
-3.56819e-60
-2.5281e-57
-2.32672e-64
-2.0329e-61
-4.15234e-60
-3.64024e-67
-5.55074e-62
-1.74267e-61
-1.40824e-68
-1.33554e-62
-4.28465e-62
-2.92653e-69
-1.85076e-63
-1.04264e-62
-6.12878e-70
-1.73035e-64
-1.41392e-63
-8.19962e-71
-1.01008e-65
-1.31196e-64
-6.67794e-72
-3.79543e-67
-7.62111e-66
-3.58749e-73
-9.73162e-69
-2.89291e-67
-1.27116e-74
-6.01739e-70
-7.67477e-69
-3.01286e-76
-4.85805e-71
-5.56076e-70
-1.46699e-77
-6.08126e-72
-4.27597e-71
-1.01715e-78
-7.62706e-73
-5.34631e-72
-1.08111e-79
-4.78242e-74
-7.17686e-73