/*--------------------------------*- C++ -*----------------------------------*\
| =========                 |                                                 |
| \\      /  F ield         | OpenFOAM: The Open Source CFD Toolbox           |
|  \\    /   O peration     | Version:  v2012                                 |
|   \\  /    A nd           | Website:  www.openfoam.com                      |
|    \\/     M anipulation  |                                                 |
\*---------------------------------------------------------------------------*/
FoamFile
{
    version     2.0;
    format      ascii;
    class       volScalarField;
    location    "0.25";
    object      p;
}
// * * * * * * * * * * * * * * * * * * * * * * * * * * * * * * * * * * * * * //

dimensions      [1 -1 -2 0 0 0 0];


internalField   nonuniform List<scalar> 
3326
(
3.48582e+06
3.48587e+06
3.48588e+06
3.48587e+06
3.48582e+06
3.48574e+06
3.4856e+06
3.48544e+06
3.48519e+06
3.48543e+06
3.48557e+06
3.48567e+06
3.48575e+06
3.4858e+06
3.48582e+06
3.48581e+06
3.48576e+06
3.48568e+06
3.48555e+06
3.48539e+06
3.48514e+06
3.43388e+06
3.44082e+06
3.44722e+06
3.45219e+06
3.45654e+06
3.46014e+06
3.46325e+06
3.46589e+06
3.46818e+06
3.47015e+06
3.47187e+06
3.47337e+06
3.47469e+06
3.47585e+06
3.47688e+06
3.4778e+06
3.47862e+06
3.47936e+06
3.48003e+06
3.48064e+06
3.4812e+06
3.48171e+06
3.48218e+06
3.48261e+06
3.48301e+06
3.48337e+06
3.48371e+06
3.48403e+06
3.48431e+06
3.48457e+06
3.48481e+06
3.48502e+06
3.48521e+06
3.48537e+06
3.4855e+06
3.48561e+06
3.48569e+06
3.48574e+06
3.48576e+06
3.48575e+06
3.4857e+06
3.48562e+06
3.48549e+06
3.48534e+06
3.48509e+06
3.43422e+06
3.44119e+06
3.44752e+06
3.45247e+06
3.45678e+06
3.46035e+06
3.46342e+06
3.46604e+06
3.46829e+06
3.47024e+06
3.47194e+06
3.47342e+06
3.47472e+06
3.47586e+06
3.47688e+06
3.47779e+06
3.4786e+06
3.47933e+06
3.48e+06
3.4806e+06
3.48115e+06
3.48166e+06
3.48212e+06
3.48255e+06
3.48295e+06
3.48331e+06
3.48365e+06
3.48396e+06
3.48425e+06
3.48451e+06
3.48475e+06
3.48496e+06
3.48515e+06
3.48531e+06
3.48545e+06
3.48556e+06
3.48564e+06
3.48569e+06
3.48571e+06
3.4857e+06
3.48565e+06
3.48557e+06
3.48544e+06
3.48529e+06
3.48504e+06
3.43469e+06
3.44169e+06
3.44793e+06
3.45285e+06
3.4571e+06
3.46063e+06
3.46366e+06
3.46624e+06
3.46846e+06
3.47038e+06
3.47204e+06
3.4735e+06
3.47477e+06
3.4759e+06
3.4769e+06
3.47779e+06
3.47859e+06
3.47931e+06
3.47997e+06
3.48056e+06
3.48111e+06
3.48161e+06
3.48207e+06
3.4825e+06
3.48289e+06
3.48326e+06
3.48359e+06
3.4839e+06
3.48419e+06
3.48445e+06
3.48469e+06
3.4849e+06
3.48509e+06
3.48525e+06
3.48539e+06
3.4855e+06
3.48558e+06
3.48564e+06
3.48566e+06
3.48565e+06
3.4856e+06
3.48553e+06
3.4854e+06
3.48525e+06
3.485e+06
3.4353e+06
3.44231e+06
3.44846e+06
3.45333e+06
3.45752e+06
3.46099e+06
3.46397e+06
3.46649e+06
3.46867e+06
3.47055e+06
3.47218e+06
3.4736e+06
3.47485e+06
3.47596e+06
3.47694e+06
3.47781e+06
3.4786e+06
3.47931e+06
3.47995e+06
3.48054e+06
3.48107e+06
3.48157e+06
3.48203e+06
3.48245e+06
3.48284e+06
3.4832e+06
3.48354e+06
3.48385e+06
3.48413e+06
3.4844e+06
3.48463e+06
3.48485e+06
3.48504e+06
3.4852e+06
3.48534e+06
3.48545e+06
3.48553e+06
3.48559e+06
3.48561e+06
3.4856e+06
3.48556e+06
3.48548e+06
3.48536e+06
3.48521e+06
3.48497e+06
3.43606e+06
3.44307e+06
3.44911e+06
3.45392e+06
3.45802e+06
3.46143e+06
3.46434e+06
3.46681e+06
3.46893e+06
3.47076e+06
3.47235e+06
3.47374e+06
3.47496e+06
3.47604e+06
3.47699e+06
3.47785e+06
3.47861e+06
3.47931e+06
3.47994e+06
3.48052e+06
3.48105e+06
3.48154e+06
3.48199e+06
3.4824e+06
3.48279e+06
3.48315e+06
3.48349e+06
3.4838e+06
3.48408e+06
3.48434e+06
3.48458e+06
3.4848e+06
3.48499e+06
3.48515e+06
3.48529e+06
3.4854e+06
3.48549e+06
3.48554e+06
3.48557e+06
3.48556e+06
3.48552e+06
3.48544e+06
3.48532e+06
3.48517e+06
3.48493e+06
3.437e+06
3.44398e+06
3.44989e+06
3.45462e+06
3.45863e+06
3.46195e+06
3.46478e+06
3.46718e+06
3.46924e+06
3.47102e+06
3.47256e+06
3.47391e+06
3.47509e+06
3.47613e+06
3.47706e+06
3.4779e+06
3.47864e+06
3.47932e+06
3.47994e+06
3.48051e+06
3.48103e+06
3.48151e+06
3.48195e+06
3.48237e+06
3.48275e+06
3.48311e+06
3.48344e+06
3.48375e+06
3.48403e+06
3.4843e+06
3.48453e+06
3.48475e+06
3.48494e+06
3.4851e+06
3.48524e+06
3.48536e+06
3.48544e+06
3.4855e+06
3.48553e+06
3.48552e+06
3.48548e+06
3.4854e+06
3.48528e+06
3.48514e+06
3.48491e+06
3.43815e+06
3.44507e+06
3.45081e+06
3.45544e+06
3.45933e+06
3.46256e+06
3.4653e+06
3.46762e+06
3.46961e+06
3.47132e+06
3.47281e+06
3.4741e+06
3.47524e+06
3.47625e+06
3.47715e+06
3.47796e+06
3.47868e+06
3.47934e+06
3.47995e+06
3.4805e+06
3.48101e+06
3.48148e+06
3.48192e+06
3.48233e+06
3.48271e+06
3.48307e+06
3.4834e+06
3.4837e+06
3.48399e+06
3.48425e+06
3.48449e+06
3.4847e+06
3.4849e+06
3.48506e+06
3.4852e+06
3.48532e+06
3.4854e+06
3.48546e+06
3.48549e+06
3.48548e+06
3.48544e+06
3.48537e+06
3.48525e+06
3.48511e+06
3.48488e+06
3.43954e+06
3.44634e+06
3.4519e+06
3.4564e+06
3.46014e+06
3.46325e+06
3.46588e+06
3.46811e+06
3.47002e+06
3.47166e+06
3.47308e+06
3.47433e+06
3.47542e+06
3.47639e+06
3.47726e+06
3.47803e+06
3.47874e+06
3.47938e+06
3.47996e+06
3.4805e+06
3.481e+06
3.48147e+06
3.4819e+06
3.4823e+06
3.48268e+06
3.48303e+06
3.48336e+06
3.48366e+06
3.48395e+06
3.48421e+06
3.48445e+06
3.48466e+06
3.48486e+06
3.48502e+06
3.48516e+06
3.48528e+06
3.48537e+06
3.48542e+06
3.48545e+06
3.48545e+06
3.48541e+06
3.48534e+06
3.48522e+06
3.48509e+06
3.48486e+06
3.44122e+06
3.44783e+06
3.45316e+06
3.45749e+06
3.46107e+06
3.46404e+06
3.46655e+06
3.46866e+06
3.47048e+06
3.47204e+06
3.47339e+06
3.47457e+06
3.47562e+06
3.47654e+06
3.47737e+06
3.47812e+06
3.4788e+06
3.47942e+06
3.47998e+06
3.48051e+06
3.481e+06
3.48145e+06
3.48188e+06
3.48227e+06
3.48265e+06
3.483e+06
3.48332e+06
3.48363e+06
3.48391e+06
3.48417e+06
3.48441e+06
3.48463e+06
3.48482e+06
3.48499e+06
3.48513e+06
3.48524e+06
3.48533e+06
3.48539e+06
3.48542e+06
3.48542e+06
3.48538e+06
3.48531e+06
3.4852e+06
3.48506e+06
3.48484e+06
3.4432e+06
3.44954e+06
3.45461e+06
3.45873e+06
3.46211e+06
3.46492e+06
3.46728e+06
3.46928e+06
3.47098e+06
3.47245e+06
3.47373e+06
3.47485e+06
3.47584e+06
3.47671e+06
3.4775e+06
3.47822e+06
3.47887e+06
3.47946e+06
3.48001e+06
3.48052e+06
3.481e+06
3.48144e+06
3.48186e+06
3.48225e+06
3.48262e+06
3.48296e+06
3.48329e+06
3.48359e+06
3.48387e+06
3.48414e+06
3.48437e+06
3.48459e+06
3.48478e+06
3.48495e+06
3.4851e+06
3.48521e+06
3.4853e+06
3.48536e+06
3.48539e+06
3.48539e+06
3.48536e+06
3.48529e+06
3.48518e+06
3.48505e+06
3.48483e+06
3.44552e+06
3.4515e+06
3.45626e+06
3.46012e+06
3.46328e+06
3.4659e+06
3.46809e+06
3.46995e+06
3.47154e+06
3.4729e+06
3.4741e+06
3.47514e+06
3.47607e+06
3.4769e+06
3.47765e+06
3.47832e+06
3.47894e+06
3.47952e+06
3.48005e+06
3.48054e+06
3.481e+06
3.48144e+06
3.48184e+06
3.48223e+06
3.48259e+06
3.48294e+06
3.48326e+06
3.48356e+06
3.48384e+06
3.4841e+06
3.48434e+06
3.48456e+06
3.48475e+06
3.48492e+06
3.48507e+06
3.48519e+06
3.48528e+06
3.48534e+06
3.48537e+06
3.48537e+06
3.48533e+06
3.48527e+06
3.48516e+06
3.48503e+06
3.48482e+06
3.44819e+06
3.45372e+06
3.45811e+06
3.46166e+06
3.46456e+06
3.46696e+06
3.46897e+06
3.47067e+06
3.47213e+06
3.47339e+06
3.47449e+06
3.47546e+06
3.47632e+06
3.4771e+06
3.4778e+06
3.47844e+06
3.47903e+06
3.47957e+06
3.48008e+06
3.48056e+06
3.48101e+06
3.48143e+06
3.48183e+06
3.48221e+06
3.48257e+06
3.48291e+06
3.48323e+06
3.48353e+06
3.48381e+06
3.48407e+06
3.48431e+06
3.48453e+06
3.48473e+06
3.4849e+06
3.48504e+06
3.48516e+06
3.48525e+06
3.48531e+06
3.48535e+06
3.48535e+06
3.48531e+06
3.48525e+06
3.48515e+06
3.48502e+06
3.48481e+06
3.45122e+06
3.45621e+06
3.46017e+06
3.46336e+06
3.46596e+06
3.46811e+06
3.46992e+06
3.47145e+06
3.47277e+06
3.47391e+06
3.47491e+06
3.47579e+06
3.47659e+06
3.4773e+06
3.47796e+06
3.47856e+06
3.47912e+06
3.47964e+06
3.48012e+06
3.48058e+06
3.48102e+06
3.48143e+06
3.48182e+06
3.4822e+06
3.48255e+06
3.48289e+06
3.48321e+06
3.48351e+06
3.48379e+06
3.48405e+06
3.48429e+06
3.48451e+06
3.4847e+06
3.48487e+06
3.48502e+06
3.48514e+06
3.48523e+06
3.48529e+06
3.48533e+06
3.48533e+06
3.4853e+06
3.48524e+06
3.48513e+06
3.48501e+06
3.48481e+06
3.4546e+06
3.45896e+06
3.46242e+06
3.46519e+06
3.46747e+06
3.46935e+06
3.47093e+06
3.47227e+06
3.47343e+06
3.47445e+06
3.47534e+06
3.47614e+06
3.47686e+06
3.47752e+06
3.47812e+06
3.47869e+06
3.47921e+06
3.4797e+06
3.48017e+06
3.48061e+06
3.48103e+06
3.48143e+06
3.48182e+06
3.48219e+06
3.48254e+06
3.48287e+06
3.48319e+06
3.48348e+06
3.48376e+06
3.48403e+06
3.48427e+06
3.48448e+06
3.48468e+06
3.48485e+06
3.485e+06
3.48512e+06
3.48521e+06
3.48528e+06
3.48531e+06
3.48531e+06
3.48528e+06
3.48523e+06
3.48513e+06
3.48501e+06
3.48481e+06
3.45832e+06
3.46195e+06
3.46484e+06
3.46716e+06
3.46907e+06
3.47065e+06
3.47199e+06
3.47313e+06
3.47413e+06
3.47501e+06
3.47579e+06
3.4765e+06
3.47715e+06
3.47774e+06
3.4783e+06
3.47881e+06
3.4793e+06
3.47977e+06
3.48021e+06
3.48064e+06
3.48105e+06
3.48144e+06
3.48181e+06
3.48218e+06
3.48252e+06
3.48285e+06
3.48317e+06
3.48346e+06
3.48374e+06
3.48401e+06
3.48425e+06
3.48447e+06
3.48466e+06
3.48484e+06
3.48499e+06
3.48511e+06
3.4852e+06
3.48526e+06
3.4853e+06
3.4853e+06
3.48527e+06
3.48522e+06
3.48512e+06
3.485e+06
3.48481e+06
3.46231e+06
3.46514e+06
3.46741e+06
3.46924e+06
3.47074e+06
3.47201e+06
3.47309e+06
3.47402e+06
3.47485e+06
3.47558e+06
3.47625e+06
3.47687e+06
3.47743e+06
3.47797e+06
3.47847e+06
3.47894e+06
3.4794e+06
3.47984e+06
3.48026e+06
3.48067e+06
3.48106e+06
3.48144e+06
3.48181e+06
3.48217e+06
3.48251e+06
3.48284e+06
3.48315e+06
3.48345e+06
3.48373e+06
3.48399e+06
3.48423e+06
3.48445e+06
3.48465e+06
3.48482e+06
3.48497e+06
3.48509e+06
3.48519e+06
3.48525e+06
3.48529e+06
3.48529e+06
3.48527e+06
3.48521e+06
3.48512e+06
3.485e+06
3.48482e+06
3.46652e+06
3.46849e+06
3.47009e+06
3.47139e+06
3.47248e+06
3.4734e+06
3.47421e+06
3.47493e+06
3.47557e+06
3.47617e+06
3.47672e+06
3.47723e+06
3.47772e+06
3.47819e+06
3.47864e+06
3.47907e+06
3.4795e+06
3.47991e+06
3.48031e+06
3.4807e+06
3.48108e+06
3.48145e+06
3.48181e+06
3.48216e+06
3.4825e+06
3.48282e+06
3.48313e+06
3.48343e+06
3.48371e+06
3.48397e+06
3.48422e+06
3.48444e+06
3.48464e+06
3.48481e+06
3.48496e+06
3.48509e+06
3.48518e+06
3.48525e+06
3.48528e+06
3.48529e+06
3.48526e+06
3.48521e+06
3.48512e+06
3.48501e+06
3.48483e+06
3.47086e+06
3.47194e+06
3.47284e+06
3.47359e+06
3.47424e+06
3.47482e+06
3.47535e+06
3.47584e+06
3.47631e+06
3.47675e+06
3.47718e+06
3.4776e+06
3.47801e+06
3.47841e+06
3.47881e+06
3.4792e+06
3.47959e+06
3.47997e+06
3.48035e+06
3.48073e+06
3.48109e+06
3.48145e+06
3.48181e+06
3.48215e+06
3.48249e+06
3.48281e+06
3.48312e+06
3.48342e+06
3.4837e+06
3.48396e+06
3.48421e+06
3.48443e+06
3.48463e+06
3.48481e+06
3.48496e+06
3.48508e+06
3.48518e+06
3.48524e+06
3.48528e+06
3.48529e+06
3.48526e+06
3.48521e+06
3.48512e+06
3.48501e+06
3.48485e+06
3.47526e+06
3.47543e+06
3.47561e+06
3.4758e+06
3.47601e+06
3.47624e+06
3.47648e+06
3.47675e+06
3.47703e+06
3.47733e+06
3.47764e+06
3.47796e+06
3.47829e+06
3.47863e+06
3.47897e+06
3.47933e+06
3.47968e+06
3.48004e+06
3.4804e+06
3.48075e+06
3.48111e+06
3.48146e+06
3.48181e+06
3.48215e+06
3.48248e+06
3.4828e+06
3.48311e+06
3.48341e+06
3.48369e+06
3.48395e+06
3.4842e+06
3.48442e+06
3.48463e+06
3.4848e+06
3.48496e+06
3.48508e+06
3.48518e+06
3.48524e+06
3.48528e+06
3.48529e+06
3.48526e+06
3.48521e+06
3.48513e+06
3.48502e+06
3.48486e+06
3.47963e+06
3.47889e+06
3.47835e+06
3.47799e+06
3.47775e+06
3.47763e+06
3.4776e+06
3.47764e+06
3.47774e+06
3.47789e+06
3.47808e+06
3.47831e+06
3.47856e+06
3.47884e+06
3.47913e+06
3.47944e+06
3.47976e+06
3.4801e+06
3.48043e+06
3.48078e+06
3.48112e+06
3.48147e+06
3.48181e+06
3.48214e+06
3.48247e+06
3.48279e+06
3.4831e+06
3.4834e+06
3.48368e+06
3.48395e+06
3.4842e+06
3.48442e+06
3.48462e+06
3.4848e+06
3.48496e+06
3.48508e+06
3.48518e+06
3.48525e+06
3.48528e+06
3.48529e+06
3.48527e+06
3.48522e+06
3.48513e+06
3.48503e+06
3.48488e+06
3.48387e+06
3.48226e+06
3.48101e+06
3.48011e+06
3.47944e+06
3.47898e+06
3.47867e+06
3.47849e+06
3.47842e+06
3.47843e+06
3.4785e+06
3.47864e+06
3.47881e+06
3.47903e+06
3.47928e+06
3.47955e+06
3.47984e+06
3.48015e+06
3.48047e+06
3.4808e+06
3.48113e+06
3.48147e+06
3.48181e+06
3.48214e+06
3.48247e+06
3.48279e+06
3.4831e+06
3.4834e+06
3.48368e+06
3.48395e+06
3.48419e+06
3.48442e+06
3.48463e+06
3.48481e+06
3.48496e+06
3.48509e+06
3.48519e+06
3.48525e+06
3.48529e+06
3.4853e+06
3.48527e+06
3.48522e+06
3.48514e+06
3.48505e+06
3.4849e+06
3.4879e+06
3.48548e+06
3.48355e+06
3.48214e+06
3.48106e+06
3.48027e+06
3.4797e+06
3.47931e+06
3.47906e+06
3.47894e+06
3.4789e+06
3.47895e+06
3.47905e+06
3.47921e+06
3.47941e+06
3.47965e+06
3.47991e+06
3.4802e+06
3.4805e+06
3.48082e+06
3.48114e+06
3.48147e+06
3.4818e+06
3.48213e+06
3.48246e+06
3.48278e+06
3.48309e+06
3.48339e+06
3.48368e+06
3.48395e+06
3.4842e+06
3.48443e+06
3.48463e+06
3.48481e+06
3.48497e+06
3.4851e+06
3.4852e+06
3.48526e+06
3.4853e+06
3.48531e+06
3.48528e+06
3.48523e+06
3.48515e+06
3.48506e+06
3.48493e+06
3.49164e+06
3.48849e+06
3.48592e+06
3.48403e+06
3.48256e+06
3.48147e+06
3.48066e+06
3.48007e+06
3.47966e+06
3.47941e+06
3.47927e+06
3.47923e+06
3.47927e+06
3.47938e+06
3.47953e+06
3.47974e+06
3.47997e+06
3.48024e+06
3.48053e+06
3.48083e+06
3.48115e+06
3.48147e+06
3.4818e+06
3.48213e+06
3.48246e+06
3.48278e+06
3.48309e+06
3.48339e+06
3.48368e+06
3.48395e+06
3.4842e+06
3.48443e+06
3.48464e+06
3.48483e+06
3.48498e+06
3.48511e+06
3.48521e+06
3.48528e+06
3.48531e+06
3.48532e+06
3.48529e+06
3.48525e+06
3.48517e+06
3.48508e+06
3.48495e+06
3.495e+06
3.49122e+06
3.48809e+06
3.48577e+06
3.48395e+06
3.48258e+06
3.48153e+06
3.48077e+06
3.48021e+06
3.47984e+06
3.4796e+06
3.47949e+06
3.47946e+06
3.47952e+06
3.47964e+06
3.47981e+06
3.48002e+06
3.48027e+06
3.48055e+06
3.48084e+06
3.48115e+06
3.48147e+06
3.4818e+06
3.48213e+06
3.48245e+06
3.48277e+06
3.48309e+06
3.48339e+06
3.48368e+06
3.48396e+06
3.48421e+06
3.48444e+06
3.48465e+06
3.48484e+06
3.485e+06
3.48513e+06
3.48522e+06
3.48529e+06
3.48533e+06
3.48533e+06
3.48531e+06
3.48526e+06
3.48518e+06
3.4851e+06
3.48498e+06
3.49802e+06
3.49367e+06
3.49004e+06
3.48734e+06
3.4852e+06
3.48357e+06
3.48233e+06
3.48139e+06
3.4807e+06
3.48022e+06
3.4799e+06
3.47971e+06
3.47963e+06
3.47964e+06
3.47973e+06
3.47987e+06
3.48006e+06
3.4803e+06
3.48056e+06
3.48085e+06
3.48115e+06
3.48147e+06
3.48179e+06
3.48212e+06
3.48245e+06
3.48277e+06
3.48309e+06
3.4834e+06
3.48369e+06
3.48396e+06
3.48422e+06
3.48446e+06
3.48467e+06
3.48486e+06
3.48502e+06
3.48515e+06
3.48524e+06
3.48531e+06
3.48535e+06
3.48535e+06
3.48533e+06
3.48528e+06
3.4852e+06
3.48512e+06
3.485e+06
3.51525e+06
3.50774e+06
3.5007e+06
3.49582e+06
3.49176e+06
3.48872e+06
3.4863e+06
3.48445e+06
3.48302e+06
3.48194e+06
3.48113e+06
3.48055e+06
3.48015e+06
3.4799e+06
3.47977e+06
3.47974e+06
3.4798e+06
3.47992e+06
3.48009e+06
3.48031e+06
3.48056e+06
3.48084e+06
3.48115e+06
3.48146e+06
3.48179e+06
3.48212e+06
3.48245e+06
3.48277e+06
3.48309e+06
3.4834e+06
3.4837e+06
3.48398e+06
3.48424e+06
3.48448e+06
3.48469e+06
3.48488e+06
3.48504e+06
3.48517e+06
3.48527e+06
3.48533e+06
3.48537e+06
3.48537e+06
3.48534e+06
3.48529e+06
3.48522e+06
3.48514e+06
3.48503e+06
3.51912e+06
3.51066e+06
3.50307e+06
3.49768e+06
3.49326e+06
3.48991e+06
3.48725e+06
3.4852e+06
3.48361e+06
3.4824e+06
3.48149e+06
3.48083e+06
3.48036e+06
3.48005e+06
3.47988e+06
3.47982e+06
3.47985e+06
3.47995e+06
3.48011e+06
3.48032e+06
3.48056e+06
3.48084e+06
3.48114e+06
3.48145e+06
3.48178e+06
3.48211e+06
3.48244e+06
3.48277e+06
3.4831e+06
3.48341e+06
3.48371e+06
3.48399e+06
3.48426e+06
3.4845e+06
3.48472e+06
3.48491e+06
3.48507e+06
3.4852e+06
3.4853e+06
3.48536e+06
3.48539e+06
3.4854e+06
3.48537e+06
3.48531e+06
3.48524e+06
3.48516e+06
3.48506e+06
3.52292e+06
3.51315e+06
3.50513e+06
3.49923e+06
3.49452e+06
3.49089e+06
3.48804e+06
3.48583e+06
3.4841e+06
3.48278e+06
3.48178e+06
3.48105e+06
3.48052e+06
3.48017e+06
3.47996e+06
3.47987e+06
3.47988e+06
3.47996e+06
3.48011e+06
3.48031e+06
3.48055e+06
3.48082e+06
3.48112e+06
3.48144e+06
3.48177e+06
3.4821e+06
3.48244e+06
3.48277e+06
3.4831e+06
3.48342e+06
3.48372e+06
3.48401e+06
3.48428e+06
3.48452e+06
3.48474e+06
3.48494e+06
3.4851e+06
3.48523e+06
3.48533e+06
3.48539e+06
3.48542e+06
3.48542e+06
3.48539e+06
3.48533e+06
3.48526e+06
3.48518e+06
3.48509e+06
3.52627e+06
3.51507e+06
3.50684e+06
3.50047e+06
3.49554e+06
3.49169e+06
3.48868e+06
3.48632e+06
3.48449e+06
3.48308e+06
3.48201e+06
3.48121e+06
3.48064e+06
3.48025e+06
3.48001e+06
3.4799e+06
3.47988e+06
3.47996e+06
3.4801e+06
3.48029e+06
3.48053e+06
3.48081e+06
3.48111e+06
3.48143e+06
3.48176e+06
3.4821e+06
3.48244e+06
3.48278e+06
3.48311e+06
3.48343e+06
3.48374e+06
3.48403e+06
3.4843e+06
3.48455e+06
3.48478e+06
3.48497e+06
3.48513e+06
3.48526e+06
3.48536e+06
3.48543e+06
3.48545e+06
3.48545e+06
3.48542e+06
3.48536e+06
3.48528e+06
3.4852e+06
3.48511e+06
3.52839e+06
3.51611e+06
3.50798e+06
3.5013e+06
3.49627e+06
3.49226e+06
3.48915e+06
3.48669e+06
3.48478e+06
3.48329e+06
3.48216e+06
3.48132e+06
3.4807e+06
3.48029e+06
3.48002e+06
3.47989e+06
3.47987e+06
3.47994e+06
3.48007e+06
3.48027e+06
3.48051e+06
3.48078e+06
3.48108e+06
3.48141e+06
3.48175e+06
3.48209e+06
3.48244e+06
3.48278e+06
3.48312e+06
3.48345e+06
3.48376e+06
3.48406e+06
3.48433e+06
3.48459e+06
3.48481e+06
3.48501e+06
3.48517e+06
3.4853e+06
3.4854e+06
3.48546e+06
3.48549e+06
3.48548e+06
3.48544e+06
3.48538e+06
3.4853e+06
3.48522e+06
3.48514e+06
3.52939e+06
3.51684e+06
3.50877e+06
3.50192e+06
3.49682e+06
3.49269e+06
3.48949e+06
3.48695e+06
3.48497e+06
3.48343e+06
3.48225e+06
3.48137e+06
3.48073e+06
3.48028e+06
3.48001e+06
3.47987e+06
3.47984e+06
3.4799e+06
3.48003e+06
3.48023e+06
3.48047e+06
3.48075e+06
3.48106e+06
3.48139e+06
3.48173e+06
3.48208e+06
3.48244e+06
3.48279e+06
3.48313e+06
3.48347e+06
3.48379e+06
3.48409e+06
3.48437e+06
3.48462e+06
3.48485e+06
3.48505e+06
3.48522e+06
3.48535e+06
3.48545e+06
3.48551e+06
3.48553e+06
3.48552e+06
3.48547e+06
3.48541e+06
3.48532e+06
3.48524e+06
3.48516e+06
3.52904e+06
3.517e+06
3.50897e+06
3.50218e+06
3.49707e+06
3.49291e+06
3.48967e+06
3.48708e+06
3.48506e+06
3.48348e+06
3.48227e+06
3.48136e+06
3.4807e+06
3.48024e+06
3.47996e+06
3.47981e+06
3.47978e+06
3.47984e+06
3.47998e+06
3.48018e+06
3.48042e+06
3.48071e+06
3.48103e+06
3.48136e+06
3.48172e+06
3.48208e+06
3.48244e+06
3.4828e+06
3.48315e+06
3.48349e+06
3.48381e+06
3.48412e+06
3.48441e+06
3.48467e+06
3.4849e+06
3.4851e+06
3.48526e+06
3.4854e+06
3.48549e+06
3.48555e+06
3.48557e+06
3.48556e+06
3.48551e+06
3.48543e+06
3.48534e+06
3.48525e+06
3.48518e+06
3.5293e+06
3.51768e+06
3.50936e+06
3.50254e+06
3.49731e+06
3.49308e+06
3.48976e+06
3.48712e+06
3.48506e+06
3.48345e+06
3.48221e+06
3.48129e+06
3.48062e+06
3.48016e+06
3.47987e+06
3.47972e+06
3.47969e+06
3.47976e+06
3.47991e+06
3.48011e+06
3.48037e+06
3.48067e+06
3.48099e+06
3.48134e+06
3.4817e+06
3.48207e+06
3.48244e+06
3.48281e+06
3.48317e+06
3.48351e+06
3.48385e+06
3.48416e+06
3.48445e+06
3.48471e+06
3.48495e+06
3.48515e+06
3.48532e+06
3.48545e+06
3.48555e+06
3.4856e+06
3.48562e+06
3.4856e+06
3.48554e+06
3.48546e+06
3.48536e+06
3.48527e+06
3.48519e+06
3.52864e+06
3.51731e+06
3.50907e+06
3.50239e+06
3.49719e+06
3.49297e+06
3.48965e+06
3.48701e+06
3.48493e+06
3.48331e+06
3.48207e+06
3.48115e+06
3.48048e+06
3.48002e+06
3.47974e+06
3.4796e+06
3.47959e+06
3.47966e+06
3.47982e+06
3.48004e+06
3.48031e+06
3.48061e+06
3.48095e+06
3.48131e+06
3.48168e+06
3.48206e+06
3.48244e+06
3.48282e+06
3.48319e+06
3.48354e+06
3.48388e+06
3.4842e+06
3.48449e+06
3.48476e+06
3.485e+06
3.48521e+06
3.48538e+06
3.48551e+06
3.4856e+06
3.48566e+06
3.48567e+06
3.48564e+06
3.48558e+06
3.48549e+06
3.48538e+06
3.48528e+06
3.4852e+06
3.53101e+06
3.51859e+06
3.50958e+06
3.50253e+06
3.49713e+06
3.49281e+06
3.48944e+06
3.48677e+06
3.48468e+06
3.48307e+06
3.48184e+06
3.48092e+06
3.48027e+06
3.47983e+06
3.47956e+06
3.47944e+06
3.47944e+06
3.47953e+06
3.47971e+06
3.47994e+06
3.48023e+06
3.48055e+06
3.4809e+06
3.48127e+06
3.48166e+06
3.48205e+06
3.48244e+06
3.48283e+06
3.48321e+06
3.48357e+06
3.48392e+06
3.48425e+06
3.48455e+06
3.48482e+06
3.48506e+06
3.48527e+06
3.48544e+06
3.48558e+06
3.48567e+06
3.48572e+06
3.48573e+06
3.4857e+06
3.48563e+06
3.48553e+06
3.4854e+06
3.48529e+06
3.4852e+06
3.52729e+06
3.51636e+06
3.5081e+06
3.50141e+06
3.49622e+06
3.49205e+06
3.48878e+06
3.48618e+06
3.48417e+06
3.48261e+06
3.48143e+06
3.48056e+06
3.47995e+06
3.47954e+06
3.47932e+06
3.47923e+06
3.47926e+06
3.47938e+06
3.47957e+06
3.47983e+06
3.48014e+06
3.48048e+06
3.48085e+06
3.48124e+06
3.48164e+06
3.48204e+06
3.48245e+06
3.48285e+06
3.48323e+06
3.48361e+06
3.48396e+06
3.48429e+06
3.4846e+06
3.48488e+06
3.48512e+06
3.48533e+06
3.48551e+06
3.48564e+06
3.48573e+06
3.48578e+06
3.48578e+06
3.48574e+06
3.48566e+06
3.48556e+06
3.48542e+06
3.4853e+06
3.4852e+06
3.48582e+06
3.48587e+06
3.48588e+06
3.48587e+06
3.48582e+06
3.48574e+06
3.4856e+06
3.48544e+06
3.48519e+06
3.48543e+06
3.48557e+06
3.48567e+06
3.48575e+06
3.4858e+06
3.48582e+06
3.48581e+06
3.48576e+06
3.48568e+06
3.48555e+06
3.48539e+06
3.48514e+06
3.43388e+06
3.44082e+06
3.44722e+06
3.45219e+06
3.45654e+06
3.46014e+06
3.46325e+06
3.46589e+06
3.46818e+06
3.47015e+06
3.47187e+06
3.47337e+06
3.47469e+06
3.47585e+06
3.47688e+06
3.4778e+06
3.47862e+06
3.47936e+06
3.48003e+06
3.48064e+06
3.4812e+06
3.48171e+06
3.48218e+06
3.48261e+06
3.48301e+06
3.48337e+06
3.48371e+06
3.48403e+06
3.48431e+06
3.48457e+06
3.48481e+06
3.48502e+06
3.48521e+06
3.48537e+06
3.4855e+06
3.48561e+06
3.48569e+06
3.48574e+06
3.48576e+06
3.48575e+06
3.4857e+06
3.48562e+06
3.48549e+06
3.48534e+06
3.48509e+06
3.43422e+06
3.44119e+06
3.44752e+06
3.45247e+06
3.45678e+06
3.46035e+06
3.46342e+06
3.46604e+06
3.46829e+06
3.47024e+06
3.47194e+06
3.47342e+06
3.47472e+06
3.47586e+06
3.47688e+06
3.47779e+06
3.4786e+06
3.47933e+06
3.48e+06
3.4806e+06
3.48115e+06
3.48166e+06
3.48212e+06
3.48255e+06
3.48295e+06
3.48331e+06
3.48365e+06
3.48396e+06
3.48425e+06
3.48451e+06
3.48475e+06
3.48496e+06
3.48515e+06
3.48531e+06
3.48545e+06
3.48556e+06
3.48564e+06
3.48569e+06
3.48571e+06
3.4857e+06
3.48565e+06
3.48557e+06
3.48544e+06
3.48529e+06
3.48504e+06
3.43469e+06
3.44169e+06
3.44793e+06
3.45285e+06
3.4571e+06
3.46063e+06
3.46366e+06
3.46624e+06
3.46846e+06
3.47038e+06
3.47204e+06
3.4735e+06
3.47477e+06
3.4759e+06
3.4769e+06
3.47779e+06
3.47859e+06
3.47931e+06
3.47997e+06
3.48056e+06
3.48111e+06
3.48161e+06
3.48207e+06
3.4825e+06
3.48289e+06
3.48326e+06
3.48359e+06
3.4839e+06
3.48419e+06
3.48445e+06
3.48469e+06
3.4849e+06
3.48509e+06
3.48525e+06
3.48539e+06
3.4855e+06
3.48558e+06
3.48564e+06
3.48566e+06
3.48565e+06
3.4856e+06
3.48553e+06
3.4854e+06
3.48525e+06
3.485e+06
3.4353e+06
3.44231e+06
3.44846e+06
3.45333e+06
3.45752e+06
3.46099e+06
3.46397e+06
3.46649e+06
3.46867e+06
3.47055e+06
3.47218e+06
3.4736e+06
3.47485e+06
3.47596e+06
3.47694e+06
3.47781e+06
3.4786e+06
3.47931e+06
3.47995e+06
3.48054e+06
3.48107e+06
3.48157e+06
3.48203e+06
3.48245e+06
3.48284e+06
3.4832e+06
3.48354e+06
3.48385e+06
3.48413e+06
3.4844e+06
3.48463e+06
3.48485e+06
3.48504e+06
3.4852e+06
3.48534e+06
3.48545e+06
3.48553e+06
3.48559e+06
3.48561e+06
3.4856e+06
3.48556e+06
3.48548e+06
3.48536e+06
3.48521e+06
3.48497e+06
3.43606e+06
3.44307e+06
3.44911e+06
3.45392e+06
3.45802e+06
3.46143e+06
3.46434e+06
3.46681e+06
3.46893e+06
3.47076e+06
3.47235e+06
3.47374e+06
3.47496e+06
3.47604e+06
3.47699e+06
3.47785e+06
3.47861e+06
3.47931e+06
3.47994e+06
3.48052e+06
3.48105e+06
3.48154e+06
3.48199e+06
3.4824e+06
3.48279e+06
3.48315e+06
3.48349e+06
3.4838e+06
3.48408e+06
3.48434e+06
3.48458e+06
3.4848e+06
3.48499e+06
3.48515e+06
3.48529e+06
3.4854e+06
3.48549e+06
3.48554e+06
3.48557e+06
3.48556e+06
3.48552e+06
3.48544e+06
3.48532e+06
3.48517e+06
3.48493e+06
3.437e+06
3.44398e+06
3.44989e+06
3.45462e+06
3.45863e+06
3.46195e+06
3.46478e+06
3.46718e+06
3.46924e+06
3.47102e+06
3.47256e+06
3.47391e+06
3.47509e+06
3.47613e+06
3.47706e+06
3.4779e+06
3.47864e+06
3.47932e+06
3.47994e+06
3.48051e+06
3.48103e+06
3.48151e+06
3.48195e+06
3.48237e+06
3.48275e+06
3.48311e+06
3.48344e+06
3.48375e+06
3.48403e+06
3.4843e+06
3.48453e+06
3.48475e+06
3.48494e+06
3.4851e+06
3.48524e+06
3.48536e+06
3.48544e+06
3.4855e+06
3.48553e+06
3.48552e+06
3.48548e+06
3.4854e+06
3.48528e+06
3.48514e+06
3.48491e+06
3.43815e+06
3.44507e+06
3.45081e+06
3.45544e+06
3.45933e+06
3.46256e+06
3.4653e+06
3.46762e+06
3.46961e+06
3.47132e+06
3.47281e+06
3.4741e+06
3.47524e+06
3.47625e+06
3.47715e+06
3.47796e+06
3.47868e+06
3.47934e+06
3.47995e+06
3.4805e+06
3.48101e+06
3.48148e+06
3.48192e+06
3.48233e+06
3.48271e+06
3.48307e+06
3.4834e+06
3.4837e+06
3.48399e+06
3.48425e+06
3.48449e+06
3.4847e+06
3.4849e+06
3.48506e+06
3.4852e+06
3.48532e+06
3.4854e+06
3.48546e+06
3.48549e+06
3.48548e+06
3.48544e+06
3.48537e+06
3.48525e+06
3.48511e+06
3.48488e+06
3.43954e+06
3.44634e+06
3.4519e+06
3.4564e+06
3.46014e+06
3.46325e+06
3.46588e+06
3.46811e+06
3.47002e+06
3.47166e+06
3.47308e+06
3.47433e+06
3.47542e+06
3.47639e+06
3.47726e+06
3.47803e+06
3.47874e+06
3.47938e+06
3.47996e+06
3.4805e+06
3.481e+06
3.48147e+06
3.4819e+06
3.4823e+06
3.48268e+06
3.48303e+06
3.48336e+06
3.48366e+06
3.48395e+06
3.48421e+06
3.48445e+06
3.48466e+06
3.48486e+06
3.48502e+06
3.48516e+06
3.48528e+06
3.48537e+06
3.48542e+06
3.48545e+06
3.48545e+06
3.48541e+06
3.48534e+06
3.48522e+06
3.48509e+06
3.48486e+06
3.44122e+06
3.44783e+06
3.45316e+06
3.45749e+06
3.46107e+06
3.46404e+06
3.46655e+06
3.46866e+06
3.47048e+06
3.47204e+06
3.47339e+06
3.47457e+06
3.47562e+06
3.47654e+06
3.47737e+06
3.47812e+06
3.4788e+06
3.47942e+06
3.47998e+06
3.48051e+06
3.481e+06
3.48145e+06
3.48188e+06
3.48227e+06
3.48265e+06
3.483e+06
3.48332e+06
3.48363e+06
3.48391e+06
3.48417e+06
3.48441e+06
3.48463e+06
3.48482e+06
3.48499e+06
3.48513e+06
3.48524e+06
3.48533e+06
3.48539e+06
3.48542e+06
3.48542e+06
3.48538e+06
3.48531e+06
3.4852e+06
3.48506e+06
3.48484e+06
3.4432e+06
3.44954e+06
3.45461e+06
3.45873e+06
3.46211e+06
3.46492e+06
3.46728e+06
3.46928e+06
3.47098e+06
3.47245e+06
3.47373e+06
3.47485e+06
3.47584e+06
3.47671e+06
3.4775e+06
3.47822e+06
3.47887e+06
3.47946e+06
3.48001e+06
3.48052e+06
3.481e+06
3.48144e+06
3.48186e+06
3.48225e+06
3.48262e+06
3.48296e+06
3.48329e+06
3.48359e+06
3.48387e+06
3.48414e+06
3.48437e+06
3.48459e+06
3.48478e+06
3.48495e+06
3.4851e+06
3.48521e+06
3.4853e+06
3.48536e+06
3.48539e+06
3.48539e+06
3.48536e+06
3.48529e+06
3.48518e+06
3.48505e+06
3.48483e+06
3.44552e+06
3.4515e+06
3.45626e+06
3.46012e+06
3.46328e+06
3.4659e+06
3.46809e+06
3.46995e+06
3.47154e+06
3.4729e+06
3.4741e+06
3.47514e+06
3.47607e+06
3.4769e+06
3.47765e+06
3.47832e+06
3.47894e+06
3.47952e+06
3.48005e+06
3.48054e+06
3.481e+06
3.48144e+06
3.48184e+06
3.48223e+06
3.48259e+06
3.48294e+06
3.48326e+06
3.48356e+06
3.48384e+06
3.4841e+06
3.48434e+06
3.48456e+06
3.48475e+06
3.48492e+06
3.48507e+06
3.48519e+06
3.48528e+06
3.48534e+06
3.48537e+06
3.48537e+06
3.48533e+06
3.48527e+06
3.48516e+06
3.48503e+06
3.48482e+06
3.44819e+06
3.45372e+06
3.45811e+06
3.46166e+06
3.46456e+06
3.46696e+06
3.46897e+06
3.47067e+06
3.47213e+06
3.47339e+06
3.47449e+06
3.47546e+06
3.47632e+06
3.4771e+06
3.4778e+06
3.47844e+06
3.47903e+06
3.47957e+06
3.48008e+06
3.48056e+06
3.48101e+06
3.48143e+06
3.48183e+06
3.48221e+06
3.48257e+06
3.48291e+06
3.48323e+06
3.48353e+06
3.48381e+06
3.48407e+06
3.48431e+06
3.48453e+06
3.48473e+06
3.4849e+06
3.48504e+06
3.48516e+06
3.48525e+06
3.48531e+06
3.48535e+06
3.48535e+06
3.48531e+06
3.48525e+06
3.48515e+06
3.48502e+06
3.48481e+06
3.45122e+06
3.45621e+06
3.46017e+06
3.46336e+06
3.46596e+06
3.46811e+06
3.46992e+06
3.47145e+06
3.47277e+06
3.47391e+06
3.47491e+06
3.47579e+06
3.47659e+06
3.4773e+06
3.47796e+06
3.47856e+06
3.47912e+06
3.47964e+06
3.48012e+06
3.48058e+06
3.48102e+06
3.48143e+06
3.48182e+06
3.4822e+06
3.48255e+06
3.48289e+06
3.48321e+06
3.48351e+06
3.48379e+06
3.48405e+06
3.48429e+06
3.48451e+06
3.4847e+06
3.48487e+06
3.48502e+06
3.48514e+06
3.48523e+06
3.48529e+06
3.48533e+06
3.48533e+06
3.4853e+06
3.48524e+06
3.48513e+06
3.48501e+06
3.48481e+06
3.4546e+06
3.45896e+06
3.46242e+06
3.46519e+06
3.46747e+06
3.46935e+06
3.47093e+06
3.47227e+06
3.47343e+06
3.47445e+06
3.47534e+06
3.47614e+06
3.47686e+06
3.47752e+06
3.47812e+06
3.47869e+06
3.47921e+06
3.4797e+06
3.48017e+06
3.48061e+06
3.48103e+06
3.48143e+06
3.48182e+06
3.48219e+06
3.48254e+06
3.48287e+06
3.48319e+06
3.48348e+06
3.48376e+06
3.48403e+06
3.48427e+06
3.48448e+06
3.48468e+06
3.48485e+06
3.485e+06
3.48512e+06
3.48521e+06
3.48528e+06
3.48531e+06
3.48531e+06
3.48528e+06
3.48523e+06
3.48513e+06
3.48501e+06
3.48481e+06
3.45832e+06
3.46195e+06
3.46484e+06
3.46716e+06
3.46907e+06
3.47065e+06
3.47199e+06
3.47313e+06
3.47413e+06
3.47501e+06
3.47579e+06
3.4765e+06
3.47715e+06
3.47774e+06
3.4783e+06
3.47881e+06
3.4793e+06
3.47977e+06
3.48021e+06
3.48064e+06
3.48105e+06
3.48144e+06
3.48181e+06
3.48218e+06
3.48252e+06
3.48285e+06
3.48317e+06
3.48346e+06
3.48374e+06
3.48401e+06
3.48425e+06
3.48447e+06
3.48466e+06
3.48484e+06
3.48499e+06
3.48511e+06
3.4852e+06
3.48526e+06
3.4853e+06
3.4853e+06
3.48527e+06
3.48522e+06
3.48512e+06
3.485e+06
3.48481e+06
3.46231e+06
3.46514e+06
3.46741e+06
3.46924e+06
3.47074e+06
3.47201e+06
3.47309e+06
3.47402e+06
3.47485e+06
3.47558e+06
3.47625e+06
3.47687e+06
3.47743e+06
3.47797e+06
3.47847e+06
3.47894e+06
3.4794e+06
3.47984e+06
3.48026e+06
3.48067e+06
3.48106e+06
3.48144e+06
3.48181e+06
3.48217e+06
3.48251e+06
3.48284e+06
3.48315e+06
3.48345e+06
3.48373e+06
3.48399e+06
3.48423e+06
3.48445e+06
3.48465e+06
3.48482e+06
3.48497e+06
3.48509e+06
3.48519e+06
3.48525e+06
3.48529e+06
3.48529e+06
3.48527e+06
3.48521e+06
3.48512e+06
3.485e+06
3.48482e+06
3.46652e+06
3.46849e+06
3.47009e+06
3.47139e+06
3.47248e+06
3.4734e+06
3.47421e+06
3.47493e+06
3.47557e+06
3.47617e+06
3.47672e+06
3.47723e+06
3.47772e+06
3.47819e+06
3.47864e+06
3.47907e+06
3.4795e+06
3.47991e+06
3.48031e+06
3.4807e+06
3.48108e+06
3.48145e+06
3.48181e+06
3.48216e+06
3.4825e+06
3.48282e+06
3.48313e+06
3.48343e+06
3.48371e+06
3.48397e+06
3.48422e+06
3.48444e+06
3.48464e+06
3.48481e+06
3.48496e+06
3.48509e+06
3.48518e+06
3.48525e+06
3.48528e+06
3.48529e+06
3.48526e+06
3.48521e+06
3.48512e+06
3.48501e+06
3.48483e+06
3.47086e+06
3.47194e+06
3.47284e+06
3.47359e+06
3.47424e+06