/*--------------------------------*- C++ -*----------------------------------*\
| =========                 |                                                 |
| \\      /  F ield         | OpenFOAM: The Open Source CFD Toolbox           |
|  \\    /   O peration     | Version:  v2012                                 |
|   \\  /    A nd           | Website:  www.openfoam.com                      |
|    \\/     M anipulation  |                                                 |
\*---------------------------------------------------------------------------*/
FoamFile
{
    version     2.0;
    format      ascii;
    class       surfaceScalarField;
    location    "0.3";
    object      phi;
}
// * * * * * * * * * * * * * * * * * * * * * * * * * * * * * * * * * * * * * //

dimensions      [0 3 -1 0 0 0 0];
oriented        oriented;


internalField   nonuniform List<scalar> 
8134
(
-3.69145e-08
-7.7614e-09
-8.59813e-16
-3.03024e-08
-6.61198e-09
-9.49452e-16
-2.46368e-08
-5.66558e-09
-9.87309e-16
-1.97764e-08
-4.86045e-09
-7.94866e-16
-1.56138e-08
-4.16262e-09
-6.10293e-16
-1.20651e-08
-3.54865e-09
-5.99516e-16
-9.0597e-09
-3.00541e-09
-6.123e-16
-6.53593e-09
-2.52377e-09
-5.81459e-16
-4.43784e-09
-2.09809e-09
-5.02063e-16
-2.71394e-09
-1.72389e-09
-4.31483e-16
-1.31678e-09
-1.39717e-09
-4.03284e-16
-2.02552e-10
-1.11423e-09
-3.63422e-16
6.69811e-10
-8.72365e-10
-3.31085e-16
1.3351e-09
-6.65292e-10
-1.55922e-16
1.82514e-09
-4.90044e-10
-3.19399e-16
2.16768e-09
-3.42544e-10
-3.05126e-16
2.3872e-09
-2.19517e-10
-2.8133e-16
2.50492e-09
-1.17722e-10
-2.1653e-16
2.53933e-09
-3.4405e-11
-2.16002e-16
2.50652e-09
3.27934e-11
-1.80895e-16
2.42075e-09
8.57751e-11
1.28516e-16
2.29436e-09
1.26376e-10
9.97915e-16
2.13854e-09
1.55824e-10
4.58075e-15
1.96353e-09
1.74976e-10
8.01856e-15
1.77862e-09
1.84907e-10
5.53923e-15
1.59135e-09
1.8726e-10
2.46536e-15
1.40807e-09
1.83284e-10
-1.10663e-15
1.23375e-09
1.74332e-10
-3.4944e-15
1.07177e-09
1.61987e-10
-2.98485e-15
9.24341e-10
1.47435e-10
-2.71697e-15
7.92364e-10
1.31979e-10
-2.67985e-15
6.75717e-10
1.16649e-10
-1.46264e-15
5.73346e-10
1.02373e-10
-4.57683e-16
4.83516e-10
8.98285e-11
4.60807e-17
4.04145e-10
7.93719e-11
1.67957e-16
3.32936e-10
7.12088e-11
3.44998e-16
2.67665e-10
6.52695e-11
3.70489e-16
2.06373e-10
6.12923e-11
3.09528e-16
1.47912e-10
5.84613e-11
2.31472e-16
9.22575e-11
5.56553e-11
1.4778e-16
4.30084e-11
4.925e-11
6.94441e-17
8.16037e-12
3.48489e-11
2.72314e-17
8.16123e-12
5.70408e-17
-4.74185e-08
-1.48015e-08
-2.57576e-15
-4.09819e-08
-1.30485e-08
-2.46245e-15
-3.50794e-08
-1.15681e-08
-2.41711e-15
-2.96587e-08
-1.02813e-08
-2.04336e-15
-2.46814e-08
-9.13985e-09
-1.70212e-15
-2.01237e-08
-8.10635e-09
-1.58921e-15
-1.59701e-08
-7.15906e-09
-1.52931e-15
-1.22117e-08
-6.28211e-09
-1.31656e-15
-8.84263e-09
-5.46717e-09
-1.13776e-15
-5.85717e-09
-4.70933e-09
-9.73359e-16
-3.24833e-09
-4.00601e-09
-8.31536e-16
-1.00546e-09
-3.35711e-09
-6.63067e-16
8.85125e-10
-2.76295e-09
-4.89583e-16
2.44146e-09
-2.22164e-09
-4.08382e-16
3.68485e-09
-1.73344e-09
-6.42748e-16
4.63899e-09
-1.29669e-09
-5.86532e-16
5.32983e-09
-9.1036e-10
-5.20239e-16
5.78473e-09
-5.72596e-10
-4.23256e-16
6.0316e-09
-2.81286e-10
-3.70053e-16
6.09844e-09
-3.40679e-11
-3.34046e-16
6.01326e-09
1.7096e-10
-4.17989e-16
5.80316e-09
3.36445e-10
7.19981e-16
5.49488e-09
4.64122e-10
6.05022e-15
5.11408e-09
5.55719e-10
9.77452e-15
4.68556e-09
6.13427e-10
5.01705e-15
4.23151e-09
6.41297e-10
7.9728e-16
3.77168e-09
6.43107e-10
-6.52276e-17
3.32272e-09
6.23322e-10
-1.10233e-15
2.89714e-09
5.87552e-10
-2.38226e-15
2.50391e-09
5.40684e-10
-3.79638e-15
2.14773e-09
4.88162e-10
-2.98489e-15
1.83012e-09
4.34259e-10
-1.91002e-15
1.54969e-09
3.82807e-10
-1.2511e-15
1.3028e-09
3.36716e-10
-7.66653e-16
1.08454e-09
2.97639e-10
-1.75587e-16
8.89175e-10
2.66573e-10
2.82976e-16
7.10987e-10
2.43455e-10
3.72029e-16
5.45032e-10
2.27247e-10
3.33215e-16
3.88335e-10
2.15159e-10
2.6202e-16
2.41602e-10
2.02389e-10
1.71021e-16
1.13315e-10
1.77538e-10
8.97476e-17
2.3789e-11
1.24376e-10
3.3962e-17
3.19512e-11
3.98693e-17
-4.58558e-08
-2.04087e-08
-3.02457e-15
-4.05211e-08
-1.83831e-08
-2.9477e-15
-3.54621e-08
-1.66271e-08
-2.98738e-15
-3.067e-08
-1.50734e-08
-2.69744e-15
-2.6135e-08
-1.36748e-08
-2.38346e-15
-2.18509e-08
-1.23905e-08
-2.25385e-15
-1.78153e-08
-1.11946e-08
-2.16899e-15
-1.40317e-08
-1.00657e-08
-1.86558e-15
-1.05076e-08
-8.99124e-09
-1.65657e-15
-7.254e-09
-7.9629e-09
-1.438e-15
-4.28391e-09
-6.97611e-09
-1.23151e-15
-1.60963e-09
-6.0314e-09
-9.91663e-16
7.5732e-10
-5.12991e-09
-7.63598e-16
2.80912e-09
-4.27345e-09
-8.79021e-16
4.54254e-09
-3.46687e-09
-1.02608e-15
5.95879e-09
-2.71294e-09
-9.3525e-16
7.06453e-09
-2.0161e-09
-8.50808e-16
7.87207e-09
-1.38012e-09
-7.34463e-16
8.39891e-09
-8.08129e-10
-6.60495e-16
8.66739e-09
-3.02588e-10
-5.72283e-16
8.70396e-09
1.34398e-10
-4.1962e-16
8.53872e-09
5.01653e-10
1.23932e-17
8.20478e-09
7.98097e-10
2.07581e-15
7.73656e-09
1.02388e-09
3.05397e-15
7.16983e-09
1.18018e-09
9.97129e-16
6.53917e-09
1.27193e-09
-6.11007e-16
5.87729e-09
1.305e-09
5.3152e-17
5.21309e-09
1.28755e-09
5.3859e-17
4.56998e-09
1.23064e-09
-1.18967e-15
3.96597e-09
1.14472e-09
-1.89856e-15
3.41194e-09
1.04218e-09
-1.84275e-15
2.91299e-09
9.33211e-10
-1.93877e-15
2.46903e-09
8.2678e-10
-1.37693e-15
2.07597e-09
7.2977e-10
-9.09519e-16
1.72729e-09
6.46324e-10
-4.43124e-16
1.41486e-09
5.79001e-10
2.02189e-16
1.13031e-09
5.28005e-10
3.22172e-16
8.6637e-10
4.91184e-10
3.31996e-16
6.18662e-10
4.62867e-10
2.7441e-16
3.88524e-10
4.32528e-10
1.85559e-16
1.87982e-10
3.78082e-10
1.12119e-16
4.56196e-11
2.66739e-10
4.09066e-17
7.75717e-11
3.03173e-17
-4.20048e-08
-2.47591e-08
-3.59907e-15
-3.76739e-08
-2.27139e-08
-3.42642e-15
-3.34266e-08
-2.08744e-08
-3.459e-15
-2.92981e-08
-1.92019e-08
-3.08962e-15
-2.53079e-08
-1.76649e-08
-2.72805e-15
-2.14678e-08
-1.62306e-08
-2.57054e-15
-1.77853e-08
-1.48771e-08
-2.48246e-15
-1.42678e-08
-1.35832e-08
-2.18324e-15
-1.0924e-08
-1.23351e-08
-1.98553e-15
-7.76465e-09
-1.11222e-08
-1.77096e-15
-4.80377e-09
-9.937e-09
-1.54848e-15
-2.05687e-09
-8.7783e-09
-1.28852e-15
4.58105e-10
-7.64489e-09
-1.0565e-15
2.72248e-09
-6.53783e-09
-1.23511e-15
4.71958e-09
-5.46398e-09
-1.33465e-15
6.4339e-09
-4.42726e-09
-1.2185e-15
7.8535e-09
-3.4357e-09
-1.11148e-15
8.97163e-09
-2.49822e-09
-9.78375e-16
9.78766e-09
-1.62417e-09
-8.87218e-16
1.0308e-08
-8.22947e-10
-7.8666e-16
1.05465e-08
-1.04125e-10
-6.67047e-16
1.05248e-08
5.23334e-10
-3.71229e-16
1.02721e-08
1.05089e-09
1.74257e-16
9.82326e-09
1.47261e-09
5.57817e-16
9.21885e-09
1.78462e-09
9.14126e-18
8.5015e-09
1.98925e-09
-6.4802e-16
7.7145e-09
2.092e-09
-5.43951e-17
6.89836e-09
2.10373e-09
-5.40948e-16
6.08766e-09
2.0413e-09
-1.00932e-15
5.31079e-09
1.9216e-09
-8.31715e-16
4.58708e-09
1.76588e-09
-6.8153e-16
3.92756e-09
1.59272e-09
-1.18786e-15
3.33539e-09
1.41897e-09
-1.34021e-15
2.80753e-09
1.25762e-09
-1.05941e-15
2.33714e-09
1.11673e-09
-6.20237e-16
1.91469e-09
1.00145e-09
-1.23735e-16
1.52997e-09
9.12717e-10
2.14126e-16
1.17402e-09
8.47137e-10
3.12045e-16
8.41382e-10
7.95505e-10
2.79533e-16
5.33796e-10
7.40115e-10
1.9264e-16
2.6581e-10
6.4607e-10
1.25447e-16
7.14999e-11
4.61049e-10
5.60556e-17
1.49073e-10
4.63621e-17
-3.77362e-08
-2.80426e-08
-3.62573e-15
-3.4297e-08
-2.61531e-08
-3.5017e-15
-3.07923e-08
-2.4379e-08
-3.60957e-15
-2.72849e-08
-2.27094e-08
-3.30404e-15
-2.38179e-08
-2.11319e-08
-2.9808e-15
-2.04216e-08
-1.96269e-08
-2.82994e-15
-1.71165e-08
-1.81822e-08
-2.74447e-15
-1.39182e-08
-1.67815e-08
-2.44738e-15
-1.08387e-08
-1.54146e-08
-2.23676e-15
-7.88905e-09
-1.40718e-08
-2.01287e-15
-5.08114e-09
-1.27449e-08
-1.78787e-15
-2.42762e-09
-1.14318e-08
-1.53112e-15
5.45622e-11
-1.01271e-08
-1.31591e-15
2.35388e-09
-8.83715e-09
-1.52459e-15
4.44553e-09
-7.55563e-09
-1.57491e-15
6.31033e-09
-6.29206e-09
-1.44188e-15
7.92737e-09
-5.05274e-09
-1.319e-15
9.27716e-09
-3.84799e-09
-1.17774e-15
1.03435e-08
-2.69053e-09
-1.07592e-15
1.11157e-08
-1.59516e-09
-9.65827e-16
1.15905e-08
-5.78909e-10
-8.56488e-16
1.17737e-08
3.40021e-10
-6.88749e-16
1.16821e-08
1.14262e-09
-4.03102e-16
1.13424e-08
1.81221e-09
-2.21816e-16
1.0792e-08
2.33507e-09
-3.0448e-16
1.00752e-08
2.70599e-09
-4.20962e-16
9.24147e-09
2.92575e-09
-4.65134e-16
8.34045e-09
3.00479e-09
-6.0781e-16
7.4174e-09
2.96431e-09
-7.38738e-16
6.51146e-09
2.82757e-09
-6.96436e-16
5.65147e-09
2.62586e-09
-4.71767e-16
4.85635e-09
2.38783e-09
-6.53262e-16
4.13465e-09
2.14069e-09
-9.21954e-16
3.48614e-09
1.90613e-09
-1.01055e-15
2.90496e-09
1.69791e-09
-7.83041e-16
2.38134e-09
1.52508e-09
-3.36326e-16
1.90408e-09
1.38998e-09
6.2659e-17
1.46309e-09
1.28812e-09
2.75924e-16
1.0522e-09
1.20639e-09
2.89547e-16
6.73374e-10
1.11894e-09
2.07877e-16
3.42872e-10
9.76573e-10
1.51325e-16
9.86289e-11
7.05292e-10
8.00123e-17
2.47702e-10
6.80878e-17
-3.34187e-08
-3.04222e-08
-3.95866e-15
-3.07699e-08
-2.88019e-08
-3.76027e-15
-2.79482e-08
-2.72007e-08
-3.83376e-15
-2.50281e-08
-2.56296e-08
-3.46553e-15
-2.20663e-08
-2.40937e-08
-3.10239e-15
-1.91062e-08
-2.2587e-08
-2.92207e-15
-1.61799e-08
-2.11085e-08
-2.8312e-15
-1.33115e-08
-1.96499e-08
-2.55505e-15
-1.05193e-08
-1.82069e-08
-2.34576e-15
-7.81726e-09
-1.67738e-08
-2.14671e-15
-5.21774e-09
-1.53445e-08
-1.93929e-15
-2.73144e-09
-1.39181e-08
-1.70587e-15
-3.69608e-10
-1.24889e-08
-1.53986e-15
1.85323e-09
-1.106e-08
-1.7329e-15
3.92328e-09
-9.62568e-09
-1.7398e-15
5.82162e-09
-8.1904e-09
-1.59673e-15
7.52678e-09
-6.7579e-09
-1.46538e-15
9.01517e-09
-5.33636e-09
-1.32272e-15
1.02625e-08
-3.93783e-09
-1.21671e-15
1.12458e-08
-2.57857e-09
-1.10361e-15
1.19469e-08
-1.27996e-09
-9.97502e-16
1.23545e-08
-6.76467e-11
-8.76005e-16
1.24682e-08
1.02904e-09
-6.96654e-16
1.23002e-08
1.98014e-09
-5.48098e-16
1.1877e-08
2.75824e-09
-5.25238e-16
1.12376e-08
3.34535e-09
-5.3192e-16
1.04312e-08
3.73215e-09
-4.50317e-16
9.51233e-09
3.92375e-09
-5.89675e-16
8.5344e-09
3.94218e-09
-5.97734e-16
7.54668e-09
3.81532e-09
-6.54929e-16
6.58796e-09
3.58455e-09
-3.44741e-16
5.68604e-09
3.28973e-09
-5.27198e-16
4.85657e-09
2.97018e-09
-6.24539e-16
4.10396e-09
2.65872e-09
-8.52179e-16
3.42484e-09
2.37704e-09
-8.95263e-16
2.81033e-09
2.1396e-09
-4.37374e-16
2.24915e-09
1.95115e-09
-1.48217e-16
1.73076e-09
1.80651e-09
2.12578e-16
1.2486e-09
1.68855e-09
2.90093e-16
8.04777e-10
1.56277e-09
2.19995e-16
4.16724e-10
1.36463e-09
1.58433e-16
1.25316e-10
9.96699e-10
8.40037e-17
3.73019e-10
7.2167e-17
-2.92982e-08
-3.20892e-08
-3.93679e-15
-2.73091e-08
-3.07909e-08
-3.73994e-15
-2.50843e-08
-2.94255e-08
-3.83304e-15
-2.26967e-08
-2.80173e-08
-3.51103e-15
-2.02065e-08
-2.65838e-08
-3.19906e-15
-1.76631e-08
-2.51304e-08
-3.03044e-15
-1.51051e-08
-2.36665e-08
-2.94963e-15
-1.25632e-08
-2.21918e-08
-2.68716e-15
-1.0061e-08
-2.0709e-08
-2.45698e-15
-7.61694e-09
-1.92178e-08
-2.25331e-15
-5.24527e-09
-1.77161e-08
-2.04985e-15
-2.95709e-09
-1.62063e-08
-1.83254e-15
-7.6221e-10
-1.46838e-08
-1.70699e-15
1.3288e-09
-1.3151e-08
-1.88142e-15
3.30616e-09
-1.1603e-08
-1.8385e-15
5.15627e-09
-1.00405e-08
-1.68789e-15
6.86201e-09
-8.46364e-09
-1.55365e-15
8.40218e-09
-6.8765e-09
-1.41445e-15
9.75169e-09
-5.28735e-09
-1.30963e-15
1.08829e-08
-3.70978e-09
-1.19836e-15
1.1768e-08
-2.16506e-09
-1.09638e-15
1.23824e-08
-6.82134e-10
-9.88715e-16
1.27094e-08
7.02148e-10
-8.62886e-16
1.27435e-08
1.94591e-09
-7.41731e-16
1.24956e-08
3.0062e-09
-6.75124e-16
1.19924e-08
3.84847e-09
-6.21209e-16
1.12765e-08
4.44808e-09
-5.46632e-16
1.04013e-08
4.79898e-09
-5.01079e-16
9.42455e-09
4.91891e-09
-5.72159e-16
8.40311e-09
4.83679e-09
-6.19483e-16
7.3852e-09
4.60244e-09
-2.98249e-16
6.40784e-09
4.26708e-09
-4.37573e-16
5.49474e-09
3.88331e-09
-5.26027e-16
4.65651e-09
3.49693e-09
-6.57474e-16
3.89373e-09
3.13983e-09
-8.56343e-16
3.19963e-09
2.8337e-09
-5.61776e-16
2.56384e-09
2.58694e-09
-2.19517e-16
1.97601e-09
2.39434e-09
1.1471e-16
1.42958e-09
2.23498e-09
2.80708e-16
9.26863e-10
2.06549e-09
2.32187e-16
4.86112e-10
1.80538e-09
1.68679e-16
1.50691e-10
1.33212e-09
8.9968e-17
5.23711e-10
7.96562e-17
-2.54785e-08
-3.32056e-08
-4.34709e-15
-2.40249e-08
-3.22445e-08
-4.12956e-15
-2.23054e-08
-3.1145e-08
-4.17012e-15
-2.03854e-08
-2.99373e-08
-3.76396e-15
-1.8322e-08
-2.86471e-08
-3.37987e-15
-1.61648e-08
-2.72876e-08
-3.1386e-15
-1.39552e-08
-2.58762e-08
-3.01887e-15
-1.17271e-08
-2.44199e-08
-2.74966e-15
-9.50797e-09
-2.29281e-08
-2.50529e-15
-7.31941e-09
-2.14064e-08
-2.31027e-15
-5.17844e-09
-1.98571e-08
-2.11623e-15
-3.09764e-09
-1.82871e-08
-1.91549e-15
-1.08697e-09
-1.66945e-08
-1.82143e-15
8.44875e-10
-1.50829e-08
-1.97716e-15
2.6909e-09
-1.34491e-08
-1.8885e-15
4.44232e-09
-1.17919e-08
-1.73006e-15
6.08761e-09
-1.01089e-08
-1.59682e-15
7.61094e-09
-8.39982e-09
-1.4628e-15
8.99129e-09
-6.66771e-09
-1.36196e-15
1.02023e-08
-4.92081e-09
-1.25559e-15
1.12135e-08
-3.17629e-09
-1.15934e-15
1.1993e-08
-1.46169e-09
-1.0605e-15
1.25118e-08
1.83495e-10
-9.59125e-16
1.27485e-08
1.70913e-09
-8.57401e-16
1.26964e-08
3.05835e-09
-7.72206e-16
1.23661e-08
4.17867e-09
-6.93146e-16
1.17877e-08
5.02648e-09
-6.12749e-16
1.10077e-08
5.57907e-09
-5.43764e-16
1.00826e-08
5.84392e-09
-5.15588e-16
9.07348e-09
5.84596e-09
-6.02047e-16
8.03585e-09
5.64005e-09
-4.27494e-16
7.01547e-09
5.28744e-09
-1.68715e-16
6.04443e-09
4.85437e-09
-5.47428e-16
5.14048e-09
4.40086e-09
-5.14758e-16
4.30949e-09
3.97083e-09
-7.74806e-16
3.54795e-09
3.59524e-09
-6.34082e-16
2.84735e-09
3.28753e-09
-2.80183e-16
2.19828e-09
3.04341e-09
-2.70807e-17
1.59462e-09
2.83865e-09
2.63376e-16
1.03897e-09
2.62114e-09
2.43908e-16
5.50302e-10
2.29405e-09
1.80724e-16
1.74277e-10
1.70814e-09
9.56274e-17
6.97988e-10
8.69062e-17
-2.20259e-08
-3.39143e-08
-4.25587e-15
-2.09915e-08
-3.32789e-08
-3.98685e-15
-1.96862e-08
-3.24503e-08
-3.98226e-15
-1.81638e-08
-3.14597e-08
-3.63336e-15
-1.6475e-08
-3.03359e-08
-3.354e-15
-1.46658e-08
-2.90968e-08
-3.16717e-15
-1.27767e-08
-2.77653e-08
-3.07973e-15
-1.08424e-08
-2.63542e-08
-2.83233e-15
-8.8919e-09
-2.48786e-08
-2.5781e-15
-6.94892e-09
-2.33493e-08
-2.37465e-15
-5.03251e-09
-2.17735e-08
-2.17696e-15
-3.15695e-09
-2.01627e-08
-1.98015e-15
-1.33318e-09
-1.85182e-08
-1.90051e-15
4.30449e-10
-1.68465e-08
-2.02901e-15
2.12814e-09
-1.51468e-08
-1.90749e-15
3.75431e-09
-1.34181e-08
-1.7402e-15
5.30212e-09
-1.16567e-08
-1.60997e-15
6.76142e-09
-9.85911e-09
-1.48088e-15
8.11721e-09
-8.0235e-09
-1.38428e-15
9.34812e-09
-6.15177e-09
-1.28347e-15
1.04263e-08
-4.2545e-09
-1.19379e-15
1.13185e-08
-2.35387e-09
-1.10253e-15
1.19891e-08
-4.87106e-10
-1.01216e-15
1.24059e-08
1.29234e-09
-9.21396e-16
1.2546e-08
2.9183e-09
-8.34494e-16
1.24029e-08
4.32171e-09
-7.50014e-16
1.19906e-08
5.43879e-09
-6.67384e-16
1.13435e-08
6.22618e-09
-5.88621e-16
1.0512e-08
6.67541e-09
-5.20256e-16
9.55628e-09
6.80167e-09
-6.07243e-16
8.53631e-09
6.66e-09
-4.65794e-16
7.50489e-09
6.31883e-09
-1.9496e-16
6.50212e-09
5.85717e-09
-5.18323e-16
5.55323e-09
5.34973e-09
-4.51119e-16
4.67029e-09
4.85378e-09
-6.70636e-16
3.85412e-09
4.41142e-09
-6.64037e-16
3.09897e-09
4.04266e-09
-3.51582e-16
2.39708e-09
3.7453e-09
-8.67196e-17
1.74323e-09
3.4925e-09
2.40217e-16
1.14058e-09
3.22379e-09
2.54376e-16
6.08785e-10
2.82585e-09
1.9284e-16
1.95785e-10
2.12114e-09
1.01901e-16
8.93774e-10
9.30523e-17
-1.89525e-08
-4.4089e-15
-1.82402e-08
-4.30388e-15
-1.72671e-08
-3.34233e-08
-4.33908e-15
-1.60759e-08
-3.2651e-08
-3.9573e-15
-1.47085e-08
-3.17032e-08
-3.61668e-15
-1.3206e-08
-3.05993e-08
-3.34224e-15
-1.16054e-08
-2.93659e-08
-3.18806e-15
-9.94019e-09
-2.80194e-08
-2.90677e-15
-8.23939e-09
-2.65794e-08
-2.62406e-15
-6.52734e-09
-2.50613e-08
-2.41318e-15
-4.82424e-09
-2.34767e-08
-2.21544e-15
-3.14568e-09
-2.18413e-08
-2.0239e-15
-1.50375e-09
-2.01602e-08
-1.95184e-15
9.22237e-11
-1.84425e-08
-2.01536e-15
1.63843e-09
-1.6693e-08
-1.91e-15
3.12893e-09
-1.49086e-08
-1.73566e-15
4.56048e-09
-1.30883e-08
-1.60658e-15
5.9276e-09
-1.12262e-08
-1.48074e-15
7.22113e-09
-9.31703e-09
-1.38735e-15
8.42605e-09
-7.35673e-09
-1.29109e-15
9.52011e-09
-5.34855e-09
-1.20751e-15
1.04731e-08
-3.30691e-09
-1.12303e-15
1.12489e-08
-1.26284e-09
-1.04072e-15
1.18092e-08
7.32008e-10
-9.56885e-16
1.21197e-08
2.6078e-09
-8.73105e-16
1.21586e-08
4.28278e-09
-7.90338e-16
1.19229e-08
5.67454e-09
-7.09142e-16
1.14317e-08
6.71744e-09
-6.27211e-16
1.07244e-08
7.38262e-09
-5.47275e-16
9.85614e-09
7.66994e-09
-6.12586e-16
8.88712e-09
7.629e-09
-4.60234e-16
7.87473e-09
7.33121e-09
-2.86603e-16
6.86584e-09
6.86608e-09
-2.35832e-16
5.89296e-09
6.32259e-09
-4.07399e-16
4.97474e-09
5.77201e-09
-5.87351e-16
4.11716e-09
5.26901e-09
-6.53859e-16
3.31803e-09
4.84178e-09
-4.22576e-16
2.57192e-09
4.49142e-09
-1.31999e-16
1.87501e-09
4.18941e-09
2.12451e-16
1.23127e-09
3.86753e-09
2.62486e-16
6.61196e-10
3.39593e-09
2.04131e-16
2.15038e-10
2.5673e-09
1.07331e-16
1.10881e-09
9.80656e-17
-1.50689e-08
-3.41351e-08
-4.17732e-15
-1.41479e-08
-3.35721e-08
-3.83611e-15
-1.30514e-08
-3.27997e-08
-3.58979e-15
-1.18139e-08
-3.18368e-08
-3.36372e-15
-1.04683e-08
-3.07115e-08
-3.23421e-15
-9.0454e-09
-2.94423e-08
-2.96699e-15
-7.57268e-09
-2.80521e-08
-2.68271e-15
-6.07412e-09
-2.65599e-08
-2.46224e-15
-4.57012e-09
-2.49807e-08
-2.25781e-15
-3.07695e-09
-2.33344e-08
-2.06407e-15
-1.60751e-09
-2.16296e-08
-1.99117e-15
-1.71119e-10
-1.98789e-08
-2.00238e-15
1.22575e-09
-1.80899e-08
-1.89872e-15
2.57973e-09
-1.62626e-08
-1.7243e-15
3.88849e-09
-1.43971e-08
-1.59517e-15
5.14961e-09
-1.24873e-08
-1.47103e-15
6.35857e-09
-1.0526e-08
-1.37938e-15
7.50635e-09
-8.50453e-09
-1.28623e-15
8.5772e-09
-6.4194e-09
-1.20747e-15
9.54675e-09
-4.27649e-09
-1.12897e-15
1.03821e-08
-2.09817e-09
-1.05502e-15
1.10444e-08
6.96847e-11
-9.79502e-16
1.1493e-08
2.15925e-09
-9.0026e-16
1.16944e-08
4.08133e-09
-8.19062e-16
1.16302e-08
5.73874e-09
-7.3898e-16
1.13033e-08
7.04438e-09
-6.57369e-16
1.07392e-08
7.94664e-09
-5.73676e-16
9.98368e-09
8.42553e-09
-6.24252e-16
9.0932e-09
8.51945e-09
-4.68791e-16
8.12659e-09
8.2978e-09
-3.25289e-16
7.13556e-09
7.85713e-09
-1.82231e-16
6.15902e-09
7.29911e-09
-3.27394e-16
5.22214e-09
6.7089e-09
-5.38088e-16
4.33649e-09
6.15466e-09
-6.18454e-16
3.5041e-09
5.67416e-09
-4.88633e-16
2.72246e-09
5.27306e-09
-1.73191e-16
1.98963e-09
4.92224e-09
1.80891e-16
1.31074e-09
4.54642e-09
2.67881e-16
7.07292e-10
3.99938e-09
2.14503e-16
2.31934e-10
3.04265e-09
1.11439e-16
1.34075e-09
1.02031e-16
-1.30956e-08
-3.46448e-08
-4.35325e-15
-1.23918e-08
-3.42759e-08
-4.02917e-15
-1.15201e-08
-3.36714e-08
-3.76541e-15
-1.05084e-08
-3.28485e-08
-3.48182e-15
-9.38498e-09
-3.1835e-08
-3.29857e-15
-8.17695e-09
-3.06503e-08
-3.00508e-15
-6.90965e-09
-2.93194e-08
-2.71516e-15
-5.60574e-09
-2.78638e-08
-2.48892e-15
-4.28509e-09
-2.63013e-08
-2.2828e-15
-2.964e-09
-2.46555e-08
-2.09113e-15
-1.65579e-09
-2.29378e-08
-2.01817e-15
-3.70286e-10
-2.11643e-08
-1.99266e-15
8.85356e-10
-1.93455e-08
-1.88628e-15
2.10755e-09
-1.74848e-08
-1.71119e-15
3.2945e-09
-1.5584e-08
-1.58093e-15
4.44549e-09
-1.36383e-08
-1.45737e-15
5.55915e-09
-1.16397e-08
-1.36608e-15
6.63125e-09
-9.57667e-09
-1.27435e-15
7.65219e-09
-7.44033e-09
-1.19871e-15
8.60422e-09
-5.22856e-09
-1.1243e-15
9.46024e-09
-2.95413e-09
-1.05638e-15
1.01842e-08
-6.54334e-10
-9.88334e-16
1.07345e-08
1.60896e-09
-9.17787e-16
1.10704e-08
3.7454e-09
-8.41867e-16
1.11613e-08
5.64784e-09
-7.63415e-16
1.09949e-08
7.21083e-09
-6.80981e-16
1.05816e-08
8.35992e-09
-5.95869e-16
9.95472e-09
9.05242e-09
-6.37537e-16
9.16364e-09
9.31051e-09
-4.85681e-16
8.26517e-09
9.19625e-09
-3.75033e-16
7.31338e-09
8.80894e-09
-2.59139e-16
6.35216e-09
8.26031e-09
-3.48506e-16
5.41263e-09
7.64845e-09
-4.45703e-16
4.51203e-09
7.05526e-09
-5.81891e-16
3.65704e-09
6.52915e-09
-5.42412e-16
2.84854e-09
6.08156e-09
-2.13965e-16
2.08692e-09
5.68386e-09
1.45932e-16
1.37881e-09
5.25453e-09
2.71278e-16
7.4694e-10
4.63125e-09
2.2382e-16
2.46431e-10
3.54316e-09
1.14835e-16
1.58718e-09
1.05205e-16
-1.13413e-08
-3.50004e-08
-4.23565e-15
-1.08099e-08
-3.48074e-08
-3.94662e-15
-1.01223e-08
-3.4359e-08
-3.74182e-15
-9.30066e-09
-3.36701e-08
-3.49529e-15
-8.36827e-09
-3.27673e-08
-3.32586e-15
-7.34855e-09
-3.167e-08
-3.0487e-15
-6.26403e-09
-3.04039e-08
-2.76471e-15
-5.13555e-09
-2.89922e-08
-2.52937e-15
-3.98185e-09
-2.7455e-08
-2.31547e-15
-2.81875e-09
-2.58186e-08
-2.12033e-15
-1.65951e-09
-2.40971e-08
-2.04162e-15
-5.14287e-10
-2.23096e-08
-1.98311e-15
6.09357e-10
-2.04691e-08
-1.87399e-15
1.70725e-09
-1.85827e-08
-1.69785e-15
2.77751e-09
-1.66543e-08
-1.56615e-15
3.82012e-09
-1.46809e-08
-1.44259e-15
4.83557e-09
-1.26551e-08
-1.35082e-15
5.82301e-09
-1.05641e-08
-1.25931e-15
6.77783e-09
-8.39514e-09
-1.1852e-15
7.68861e-09
-6.13937e-09
-1.11328e-15
8.53481e-09
-3.80028e-09
-1.0491e-15
9.28592e-09
-1.40549e-09
-9.85936e-16
9.90254e-09
9.9236e-10
-9.22415e-16
1.03414e-08
3.30648e-09
-8.54135e-16
1.05638e-08
5.42543e-09
-7.81933e-16
1.05448e-08
7.22995e-09
-7.01071e-16
1.02799e-08
8.62472e-09
-6.15475e-16
9.78892e-09
9.54346e-09
-6.48687e-16
9.11102e-09
9.98837e-09
-5.03122e-16
8.29794e-09
1.00093e-08
-4.17934e-16
7.40344e-09
9.70346e-09
-3.28966e-16
6.47453e-09
9.1892e-09
-3.99447e-16
5.54727e-09
8.57572e-09
-4.10289e-16
4.64431e-09
7.95822e-09
-5.54659e-16
3.77709e-09
7.39636e-09
-5.79894e-16
2.95025e-09
6.9084e-09
-2.5766e-16
2.16689e-09
6.46722e-09
1.12329e-16
1.43543e-09
5.98599e-09
2.72909e-16
7.80102e-10
5.28658e-09
2.31397e-16
2.58528e-10
4.06473e-09
1.17487e-16
1.84571e-09
1.07495e-16
-9.79356e-09
-3.52402e-08
-4.21046e-15
-9.3974e-09
-3.52035e-08
-3.94854e-15
-8.859e-09
-3.48974e-08
-3.75673e-15
-8.19554e-09
-3.43335e-08
-3.50169e-15
-7.42579e-09
-3.35371e-08
-3.31626e-15
-6.56941e-09
-3.25264e-08
-3.05408e-15
-5.64592e-09
-3.13274e-08
-2.77318e-15
-4.67399e-09
-2.99641e-08
-2.54023e-15
-3.67085e-09
-2.84582e-08
-2.32762e-15
-2.65146e-09
-2.6838e-08
-2.13647e-15
-1.62865e-09
-2.51199e-08
-2.05723e-15
-6.12575e-10
-2.33256e-08
-1.97297e-15
3.88965e-10
-2.14707e-08
-1.86167e-15
1.37125e-09
-1.95649e-08
-1.6851e-15
2.33202e-09
-1.7615e-08
-1.55211e-15
3.27132e-09
-1.56202e-08
-1.4283e-15
4.1905e-09
-1.35743e-08
-1.33562e-15
5.09081e-09
-1.14645e-08
-1.2434e-15
5.97134e-09
-9.27567e-09
-1.16982e-15
6.826e-09
-6.99405e-09
-1.09916e-15
7.64065e-09
-4.61488e-09
-1.0374e-15
8.39121e-09
-2.1561e-09
-9.77269e-16
9.04303e-09
3.40576e-10
-9.18819e-16
9.55395e-09
2.79552e-09
-8.57155e-16
9.88112e-09
5.09826e-09
-7.92192e-16
9.99019e-09
7.12092e-09
-7.15758e-16
9.86399e-09
8.75086e-09
-6.33157e-16
9.50825e-09
9.89923e-09
-6.58431e-16
8.95048e-09
1.05461e-08
-5.17394e-16
8.2347e-09
1.07251e-08
-4.24271e-16
7.41172e-09
1.05265e-08
-3.51865e-16
6.52961e-09
1.00713e-08
-3.00574e-16
5.62805e-09
9.47729e-09
-4.5638e-16
4.73444e-09
8.85184e-09
-5.36919e-16
3.86488e-09
8.26591e-09
-6.05121e-16
3.02796e-09
7.74533e-09
-2.99775e-16
2.22971e-09
7.26547e-09
8.37131e-17
1.48069e-09
6.73501e-09
2.72668e-16
8.06826e-10
5.96045e-09
2.36893e-16
2.68259e-10
4.6033e-09
1.1922e-16
2.11397e-09
1.0907e-16
-8.43622e-09
-3.53939e-08
-4.23063e-15
-8.1451e-09
-3.54947e-08
-3.95838e-15
-7.72655e-09
-3.53159e-08
-3.7701e-15
-7.19359e-09
-3.48665e-08
-3.52656e-15
-6.56106e-09
-3.41696e-08
-3.34281e-15
-5.8451e-09
-3.32424e-08
-3.08835e-15
-5.06226e-09
-3.21103e-08
-2.80595e-15
-4.22885e-09
-3.07975e-08
-2.5671e-15
-3.36039e-09
-2.93267e-08
-2.34886e-15
-2.47068e-09
-2.77278e-08
-2.15602e-15
-1.57186e-09
-2.60187e-08
-2.0721e-15
-6.73812e-10
-2.42237e-08
-1.96398e-15
2.15625e-10
-2.23601e-08
-1.84965e-15
1.09142e-09
-2.04407e-08
-1.67294e-15
1.95077e-09
-1.84744e-08
-1.53889e-15
2.79347e-09
-1.64629e-08
-1.41503e-15
3.62106e-09
-1.44019e-08
-1.32126e-15
4.43594e-09
-1.22794e-08
-1.22795e-15
5.23965e-09
-1.00794e-08
-1.15412e-15
6.0302e-09
-7.78463e-09
-1.0839e-15
6.79909e-09
-5.38373e-09
-1.02345e-15
7.52866e-09
-2.8857e-09
-9.65688e-16
8.19022e-09
-3.20958e-10
-9.1008e-16
8.7453e-09
2.24041e-09
-8.52273e-16
9.15039e-09
4.69317e-09
-7.93714e-16
9.36536e-09
6.90599e-09
-7.23897e-16
9.36277e-09
8.7534e-09
-6.46623e-16
9.13551e-09
1.01265e-08
-6.6519e-16
8.69872e-09
1.09829e-08
-5.28828e-16
8.08693e-09
1.13369e-08
-4.16631e-16
7.34571e-09
1.12677e-08
-3.65699e-16
6.52209e-09
1.08949e-08
-2.27902e-16
5.65782e-09
1.03416e-08
-4.51841e-16
4.78413e-09
9.72553e-09
-5.33646e-16
3.92145e-09
9.12857e-09
-6.2133e-16
3.08227e-09
8.58451e-09
-3.37424e-16
2.27576e-09
8.07198e-09
5.90748e-17
1.5148e-09
7.49597e-09
2.70238e-16
8.27233e-10
6.64803e-09
2.40238e-16
2.75686e-10
5.15484e-09
1.19995e-16
2.38966e-09
1.09921e-16
-7.25153e-09
-3.54848e-08
-3.92928e-15
-7.04125e-09
-3.5705e-08
-3.81941e-15
-6.71823e-09
-3.56389e-08
-3.68826e-15
-6.29212e-09
-3.52926e-08
-3.47211e-15
-5.77448e-09
-3.46873e-08
-3.30481e-15
-5.17833e-09
-3.38385e-08
-3.06579e-15
-4.51742e-09
-3.27712e-08
-2.79727e-15
-3.80569e-09
-3.15093e-08
-2.56651e-15
-3.05682e-09
-3.00755e-08
-2.35166e-15
-2.28332e-09
-2.85013e-08
-2.16322e-15
-1.49644e-09
-2.68056e-08
-2.07644e-15
-7.05599e-10
-2.50145e-08
-1.95024e-15
8.1447e-11
-2.31472e-08
-1.83663e-15
8.59911e-10
-2.12192e-08
-1.66127e-15
1.62614e-09
-1.92406e-08
-1.52666e-15
2.37961e-09
-1.72163e-08
-1.40296e-15
3.1217e-09
-1.5144e-08
-1.30814e-15
3.85526e-09
-1.30129e-08
-1.2135e-15
4.58329e-09
-1.08074e-08
-1.13907e-15
5.30674e-09
-8.5081e-09
-1.06855e-15
6.02166e-09
-6.0986e-09
-1.00872e-15
6.71623e-09
-3.58031e-09
-9.52481e-16
7.36805e-09
-9.72752e-10
-8.98501e-16
7.9438e-09
1.66463e-09
-8.43112e-16
8.40202e-09
4.23496e-09
-7.87845e-16
8.7e-09
6.60805e-09
-7.23658e-16
8.803e-09
8.65035e-09
-6.5249e-16
8.69294e-09
1.02366e-08
-6.65245e-16
8.37298e-09
1.13028e-08
-5.38726e-16
7.86714e-09
1.18427e-08
-4.22888e-16
7.21401e-09
1.19209e-08
-3.96608e-16
6.45762e-09
1.16512e-08
-2.34456e-16
5.64017e-09
1.1159e-08
-3.8815e-16
4.79565e-09
1.05701e-08
-5.41324e-16
3.9482e-09
9.97601e-09
-6.32599e-16
3.11405e-09
9.41867e-09
-3.7011e-16
2.30555e-09
8.88048e-09
3.46472e-17
1.53808e-09
8.26344e-09
2.65979e-16
8.41512e-10
7.3446e-09
2.41673e-16
2.80895e-10
5.71546e-09
1.19793e-16
2.67055e-09
1.10168e-16
-6.2214e-09
-3.55304e-08
-4.02784e-15
-6.07282e-09
-3.58536e-08
-3.84555e-15
-5.82545e-09
-3.58863e-08
-3.74196e-15
-5.48628e-09
-3.56318e-08
-3.51563e-15
-5.0642e-09
-3.51093e-08
-3.32676e-15
-4.5696e-09
-3.43331e-08
-3.09132e-15
-4.01369e-09
-3.33271e-08
-2.82214e-15
-3.40817e-09
-3.21148e-08
-2.58675e-15
-2.76486e-09
-3.07189e-08
-2.36703e-15
-2.09487e-09
-2.91713e-08
-2.17669e-15
-1.40844e-09
-2.7492e-08
-2.0833e-15
-7.14364e-10
-2.57086e-08
-1.93969e-15
-1.98776e-11
-2.38417e-08
-1.82432e-15
6.69649e-10
-2.19087e-08
-1.65028e-15
1.35083e-09
-1.99218e-08
-1.51521e-15
2.02254e-09
-1.7888e-08
-1.39193e-15
2.68579e-09
-1.58072e-08
-1.29616e-15
3.3434e-09
-1.36706e-08
-1.20034e-15
3.99913e-09
-1.14631e-08
-1.12498e-15
4.65586e-09
-9.16485e-09
-1.05364e-15
5.31308e-09
-6.75579e-09
-9.93907e-16
5.96395e-09
-4.23122e-09
-9.38348e-16
6.59201e-09
-1.60079e-09
-8.85954e-16
7.16974e-09
1.08688e-09
-8.32812e-16
7.65951e-09
3.74518e-09
-7.79865e-16
8.01875e-09
6.24885e-09
-7.19013e-16
8.20824e-09
8.46081e-09
-6.52418e-16
8.20128e-09
1.02436e-08
-6.58607e-16
7.99016e-09
1.15139e-08
-5.46125e-16
7.58824e-09
1.22446e-08
-4.35236e-16
7.02589e-09
1.24832e-08
-4.28522e-16
6.34257e-09
1.23345e-08
-2.73171e-16
5.57934e-09
1.19223e-08
-3.4725e-16
4.77173e-09
1.13777e-08
-5.5146e-16
3.94689e-09
1.08008e-08
-6.44108e-16
3.12443e-09
1.02411e-08
-3.95008e-16
2.31981e-09
9.6851e-09
1.38357e-17
1.55098e-09
9.03228e-09
2.61246e-16
8.49919e-10
8.04566e-09
2.41289e-16
2.8399e-10
6.28138e-09
1.1853e-16
2.95454e-09
1.09719e-16
-5.32828e-09
-3.55441e-08
-3.9195e-15
-5.22641e-09
-3.59554e-08
-3.70216e-15
-5.03863e-09
-3.60741e-08
-3.66099e-15
-4.76985e-09
-3.59006e-08
-3.46547e-15
-4.42684e-09
-3.54523e-08
-3.2899e-15
-4.0178e-09
-3.47422e-08
-3.05865e-15
-3.55179e-09
-3.37931e-08
-2.80914e-15
-3.03846e-09
-3.26281e-08
-2.58146e-15
-2.48781e-09
-3.12695e-08
-2.36482e-15
-1.90953e-09
-2.97495e-08
-2.17904e-15
-1.31277e-09
-2.80888e-08
-2.08446e-15
-7.05616e-10
-2.63157e-08
-1.92822e-15
-9.47973e-11
-2.44525e-08
-1.81183e-15
5.14231e-10
-2.25178e-08
-1.63973e-15
1.11814e-09
-2.05257e-08
-1.50453e-15
1.71537e-09
-1.84853e-08
-1.38186e-15
2.30651e-09
-1.63984e-08
-1.28534e-15
2.89412e-09
-1.42582e-08
-1.18838e-15
3.48216e-09
-1.20512e-08
-1.11199e-15
4.07468e-09
-9.75739e-09
-1.03965e-15
4.67364e-09
-7.35471e-09
-9.7954e-16
5.27617e-09
-4.83378e-09
-9.241e-16
5.8711e-09
-2.19569e-09
-8.72807e-16
6.4367e-09
5.21257e-10
-8.21776e-16
6.94021e-09
3.24168e-09
-7.71108e-16
7.34115e-09
5.84794e-09
-7.13041e-16
7.59842e-09
8.20349e-09
-6.50122e-16
7.67907e-09
1.0163e-08
-6.49866e-16
7.56618e-09
1.16268e-08
-5.49595e-16
7.26292e-09
1.25478e-08
-4.48171e-16
6.79091e-09
1.29553e-08
-4.53874e-16
6.18376e-09
1.29417e-08
-2.9471e-16
5.48e-09
1.26261e-08
-3.25866e-16
4.71549e-09
1.21422e-08
-5.57584e-16
3.91957e-09
1.15967e-08
-6.56398e-16
3.11474e-09
1.1046e-08
-4.09932e-16
2.31939e-09
1.04804e-08
2.20861e-18
1.55402e-09
9.79766e-09
2.57231e-16
8.52763e-10
8.74692e-09
2.3943e-16
2.85099e-10
6.84904e-09
1.16397e-16
3.23964e-09
1.08668e-16
-4.55567e-09
-3.55357e-08
-4.15822e-15
-4.48888e-09
-3.60222e-08
-3.79978e-15
-4.34785e-09
-3.62151e-08
-3.63316e-15
-4.13587e-09
-3.61126e-08
-3.46781e-15
-3.85801e-09
-3.57302e-08
-3.29325e-15
-3.52071e-09
-3.50795e-08
-3.06416e-15
-3.13127e-09
-3.41825e-08
-2.81934e-15
-2.69754e-09
-3.30618e-08
-2.59111e-15
-2.22782e-09
-3.17392e-08
-2.3725e-15
-1.7304e-09
-3.0247e-08
-2.18661e-15
-1.21334e-09
-2.86059e-08
-2.08792e-15
-6.83923e-10
-2.68452e-08
-1.92086e-15
-1.48399e-10
-2.4988e-08
-1.80079e-15
3.88066e-10
-2.30542e-08
-1.62987e-15
9.22055e-10
-2.10597e-08
-1.49457e-15
1.45176e-09
-1.9015e-08
-1.37259e-15
1.97735e-09
-1.6924e-08
-1.27537e-15
2.50099e-09
-1.47818e-08
-1.17738e-15
3.02655e-09
-1.25767e-08
-1.10018e-15
3.55864e-09
-1.02895e-08
-1.02671e-15
4.10086e-09
-7.89691e-09
-9.66002e-16
4.65342e-09
-5.38636e-09
-9.10204e-16
5.20956e-09
-2.75182e-09
-8.59419e-16
5.75298e-09
-2.21823e-11
-8.09823e-16
6.25614e-09
2.73851e-09
-7.61048e-16
6.68202e-09
5.4221e-09
-7.05669e-16
6.98967e-09
7.8958e-09
-6.46393e-16
7.14224e-09
1.00104e-08
-6.40242e-16
7.11544e-09