/*--------------------------------*- C++ -*----------------------------------*\
| =========                 |                                                 |
| \\      /  F ield         | OpenFOAM: The Open Source CFD Toolbox           |
|  \\    /   O peration     | Version:  v2012                                 |
|   \\  /    A nd           | Website:  www.openfoam.com                      |
|    \\/     M anipulation  |                                                 |
\*---------------------------------------------------------------------------*/
FoamFile
{
    version     2.0;
    format      ascii;
    class       volVectorField;
    location    "0.25";
    object      U;
}
// * * * * * * * * * * * * * * * * * * * * * * * * * * * * * * * * * * * * * //

dimensions      [0 1 -1 0 0 0 0];


internalField   nonuniform List<vector> 
2642
(
(0.000553983 -0.00299173 -4.83508e-06)
(0.000552669 -0.0029094 -4.82367e-06)
(0.000548568 -0.00282099 -4.78795e-06)
(0.000541599 -0.00272689 -4.7272e-06)
(0.000531712 -0.00262751 -4.64099e-06)
(0.000518889 -0.00252332 -4.52915e-06)
(0.000503149 -0.00241479 -4.39184e-06)
(0.000484546 -0.00230242 -4.22955e-06)
(0.000463182 -0.00218675 -4.04315e-06)
(0.000439193 -0.00206823 -3.83383e-06)
(0.00041276 -0.00194734 -3.60316e-06)
(0.000384107 -0.0018245 -3.35312e-06)
(0.000353499 -0.00170005 -3.08599e-06)
(0.000321244 -0.00157425 -2.80448e-06)
(0.000287681 -0.00144724 -2.51155e-06)
(0.000253194 -0.00131898 -2.21054e-06)
(0.000218205 -0.00118928 -1.90514e-06)
(0.00018317 -0.00105764 -1.59932e-06)
(0.000148589 -0.000923272 -1.29746e-06)
(0.000115014 -0.000784917 -1.00436e-06)
(8.30712e-05 -0.000640624 -7.25489e-07)
(5.34296e-05 -0.000487176 -4.66692e-07)
(2.7235e-05 -0.000319181 -2.38057e-07)
(5.00466e-06 -0.000124487 -4.69952e-08)
(0.000557759 -0.00300976 -4.86788e-06)
(0.000556168 -0.00292454 -4.85405e-06)
(0.000551793 -0.00283334 -4.81593e-06)
(0.000544554 -0.00273655 -4.75282e-06)
(0.000534399 -0.00263462 -4.66427e-06)
(0.000521313 -0.00252801 -4.55013e-06)
(0.000505313 -0.00241724 -4.41056e-06)
(0.000486458 -0.0023028 -4.24607e-06)
(0.00046485 -0.00218523 -4.05754e-06)
(0.000440626 -0.00206502 -3.84617e-06)
(0.000413967 -0.00194262 -3.61356e-06)
(0.000385101 -0.00181849 -3.36167e-06)
(0.000354293 -0.00169295 -3.09281e-06)
(0.00032185 -0.00156628 -2.80968e-06)
(0.000288114 -0.00143859 -2.51526e-06)
(0.000253467 -0.00130987 -2.21287e-06)
(0.00021833 -0.0011799 -1.9062e-06)
(0.000183159 -0.0010482 -1.59922e-06)
(0.000148452 -0.000913962 -1.29628e-06)
(0.000114759 -0.000775941 -1.00218e-06)
(8.2705e-05 -0.000632187 -7.22374e-07)
(5.29449e-05 -0.000479527 -4.6258e-07)
(2.66455e-05 -0.000312576 -2.3315e-07)
(4.40055e-06 -0.000120118 -4.33879e-08)
(0.000564196 -0.00302496 -4.9241e-06)
(0.000562292 -0.00293757 -4.90754e-06)
(0.000557573 -0.00284417 -4.86641e-06)
(0.000549963 -0.00274519 -4.80006e-06)
(0.000539416 -0.0026411 -4.70808e-06)
(0.00052592 -0.00253239 -4.59036e-06)
(0.000509499 -0.00241959 -4.44711e-06)
(0.000490215 -0.00230322 -4.27887e-06)
(0.000468177 -0.00218384 -4.08658e-06)
(0.000443526 -0.00206196 -3.87149e-06)
(0.000416449 -0.00193806 -3.63521e-06)
(0.000387177 -0.00181258 -3.37977e-06)
(0.000355979 -0.00168588 -3.10751e-06)
(0.000323165 -0.00155825 -2.82115e-06)
(0.000289079 -0.00142979 -2.52367e-06)
(0.000254104 -0.0013005 -2.21842e-06)
(0.000218662 -0.00117018 -1.90909e-06)
(0.000183208 -0.00103833 -1.59964e-06)
(0.00014824 -0.000904167 -1.29443e-06)
(0.000114305 -0.00076644 -9.98225e-07)
(8.20288e-05 -0.000623212 -7.16489e-07)
(5.20697e-05 -0.000471364 -4.54967e-07)
(2.56373e-05 -0.000305545 -2.2441e-07)
(3.81522e-06 -0.000115668 -3.85339e-08)
(0.000573223 -0.0030396 -5.00289e-06)
(0.000570907 -0.00294996 -4.98273e-06)
(0.000565732 -0.00285435 -4.93763e-06)
(0.000557627 -0.00275321 -4.86696e-06)
(0.000546552 -0.00264702 -4.77037e-06)
(0.000532499 -0.0025363 -4.6478e-06)
(0.000515501 -0.00242158 -4.49951e-06)
(0.000495626 -0.0023034 -4.32611e-06)
(0.000472989 -0.00218235 -4.12861e-06)
(0.000447741 -0.00205893 -3.9083e-06)
(0.000420073 -0.00193365 -3.66687e-06)
(0.000390225 -0.00180695 -3.40641e-06)
(0.000358472 -0.0016792 -3.12929e-06)
(0.000325127 -0.0015507 -2.83829e-06)
(0.000290538 -0.00142156 -2.53641e-06)
(0.000255089 -0.00129177 -2.22703e-06)
(0.000219207 -0.00116113 -1.91386e-06)
(0.000183346 -0.00102917 -1.60086e-06)
(0.000148004 -0.000895083 -1.29238e-06)
(0.00011373 -0.000757636 -9.9321e-07)
(8.11559e-05 -0.000614903 -7.08873e-07)
(5.09698e-05 -0.000463821 -4.45363e-07)
(2.44527e-05 -0.000299137 -2.14052e-07)
(3.32841e-06 -0.000111846 -3.38795e-08)
(0.000584754 -0.00305439 -5.10352e-06)
(0.000581934 -0.00296244 -5.07897e-06)
(0.000576193 -0.00286455 -5.02894e-06)
(0.00056747 -0.00276119 -4.95288e-06)
(0.00055573 -0.00265285 -4.85049e-06)
(0.000540974 -0.00254007 -4.72178e-06)
(0.000523243 -0.0024234 -4.5671e-06)
(0.000502616 -0.0023034 -4.38714e-06)
(0.000479217 -0.00218066 -4.18298e-06)
(0.000453205 -0.00205571 -3.95601e-06)
(0.000424782 -0.00192905 -3.70799e-06)
(0.000394197 -0.00180115 -3.44109e-06)
(0.000361731 -0.00167238 -3.15776e-06)
(0.000327703 -0.00154302 -2.86079e-06)
(0.000292468 -0.00141322 -2.55328e-06)
(0.000256414 -0.00128296 -2.23861e-06)
(0.000219969 -0.00115204 -1.92052e-06)
(0.000183589 -0.00101999 -1.60299e-06)
(0.000147777 -0.000885997 -1.29041e-06)
(0.000113086 -0.000748848 -9.87604e-07)
(8.01639e-05 -0.000606626 -7.0022e-07)
(4.97519e-05 -0.00045634 -4.34733e-07)
(2.32227e-05 -0.0002929 -2.03294e-07)
(2.89124e-06 -0.000108297 -2.96727e-08)
(0.000598681 -0.00306923 -5.22508e-06)
(0.000595269 -0.00297492 -5.19537e-06)
(0.00058886 -0.00287471 -5.1395e-06)
(0.000579401 -0.00276908 -5.05703e-06)
(0.000566868 -0.00265856 -4.94772e-06)
(0.00055127 -0.00254368 -4.81166e-06)
(0.000532659 -0.00242503 -4.6493e-06)
(0.000511126 -0.00230318 -4.46143e-06)
(0.000486807 -0.00217873 -4.24925e-06)
(0.000459874 -0.00205222 -4.01423e-06)
(0.000430538 -0.00192418 -3.75825e-06)
(0.00039906 -0.00179507 -3.48356e-06)
(0.000365731 -0.00166528 -3.19269e-06)
(0.000330879 -0.00153509 -2.88853e-06)
(0.000294862 -0.00140464 -2.57419e-06)
(0.000258077 -0.00127392 -2.25315e-06)
(0.000220955 -0.00114273 -1.92914e-06)
(0.000183957 -0.0010106 -1.60622e-06)
(0.000147589 -0.000876729 -1.28878e-06)
(0.000112419 -0.000739904 -9.81786e-07)
(7.91125e-05 -0.000598233 -6.91052e-07)
(4.84879e-05 -0.00044881 -4.23702e-07)
(2.20153e-05 -0.000286758 -1.92737e-07)
(2.49921e-06 -0.000104979 -2.59229e-08)
(0.000614915 -0.00308414 -5.36677e-06)
(0.000610824 -0.0029874 -5.33113e-06)
(0.000603646 -0.0028848 -5.26856e-06)
(0.000593338 -0.00277685 -5.17868e-06)
(0.000579885 -0.00266409 -5.06135e-06)
(0.000563311 -0.00254708 -4.91677e-06)
(0.000543678 -0.00242641 -4.7455e-06)
(0.000521092 -0.00230268 -4.54844e-06)
(0.000495704 -0.00217652 -4.32692e-06)
(0.000467698 -0.00204845 -4.08255e-06)
(0.0004373 -0.00191902 -3.81729e-06)
(0.000404783 -0.00178871 -3.53353e-06)
(0.00037045 -0.00165789 -3.2339e-06)
(0.000334637 -0.00152687 -2.92135e-06)
(0.000297714 -0.00139579 -2.5991e-06)
(0.000260081 -0.00126462 -2.27066e-06)
(0.000222177 -0.00113318 -1.93983e-06)
(0.000184469 -0.00100099 -1.6107e-06)
(0.000147471 -0.000867262 -1.28776e-06)
(0.000111767 -0.00073079 -9.76114e-07)
(7.80535e-05 -0.000589713 -6.81817e-07)
(4.72337e-05 -0.000441225 -4.12758e-07)
(2.08727e-05 -0.000280701 -1.82746e-07)
(2.15619e-06 -0.000101851 -2.26345e-08)
(0.000633375 -0.00309913 -5.5279e-06)
(0.000628518 -0.00299988 -5.48557e-06)
(0.00062047 -0.00289482 -5.41541e-06)
(0.000609201 -0.00278448 -5.31714e-06)
(0.000594707 -0.00266942 -5.19073e-06)
(0.000577026 -0.00255023 -5.0365e-06)
(0.000556235 -0.00242752 -4.85512e-06)
(0.000532454 -0.00230189 -4.64763e-06)
(0.000505852 -0.00217398 -4.41553e-06)
(0.00047663 -0.00204435 -4.16053e-06)
(0.000445026 -0.00191353 -3.88475e-06)
(0.000411331 -0.00178201 -3.59071e-06)
(0.00037586 -0.00165019 -3.28115e-06)
(0.000338961 -0.00151835 -2.95912e-06)
(0.000301012 -0.00138665 -2.62791e-06)
(0.000262424 -0.00125506 -2.29113e-06)
(0.000223642 -0.00112339 -1.95263e-06)
(0.000185142 -0.000991164 -1.61659e-06)
(0.000147448 -0.000857603 -1.28758e-06)
(0.000111168 -0.000721521 -9.70892e-07)
(7.70293e-05 -0.000581093 -6.72886e-07)
(4.60308e-05 -0.00043362 -4.02259e-07)
(1.98203e-05 -0.000274753 -1.73543e-07)
(1.86165e-06 -9.8912e-05 -1.97971e-08)
(0.000653992 -0.00311421 -5.70784e-06)
(0.00064828 -0.00301235 -5.65806e-06)
(0.000639262 -0.00290475 -5.57944e-06)
(0.00062692 -0.00279195 -5.47181e-06)
(0.000611265 -0.00267454 -5.33527e-06)
(0.000592348 -0.00255312 -5.17026e-06)
(0.000570265 -0.00242832 -4.9776e-06)
(0.000545153 -0.00230076 -4.7585e-06)
(0.000517199 -0.00217109 -4.51459e-06)
(0.000486621 -0.00203987 -4.24777e-06)
(0.000453677 -0.00190766 -3.96028e-06)
(0.000418671 -0.00177495 -3.6548e-06)
(0.000381936 -0.00164212 -3.3342e-06)
(0.000343831 -0.00150949 -3.00164e-06)
(0.000304746 -0.00137718 -2.66053e-06)
(0.000265103 -0.00124519 -2.31453e-06)
(0.000225354 -0.00111332 -1.9676e-06)
(0.000185988 -0.000981094 -1.624e-06)
(0.000147542 -0.000847739 -1.28841e-06)
(0.000110648 -0.000712091 -9.66366e-07)
(7.60726e-05 -0.000572372 -6.64544e-07)
(4.4908e-05 -0.000426003 -3.92462e-07)
(1.88707e-05 -0.000268917 -1.65239e-07)
(1.61176e-06 -9.61435e-05 -1.73807e-08)
(0.000676703 -0.0031294 -5.90607e-06)
(0.000670045 -0.00302483 -5.84804e-06)
(0.000659955 -0.00291459 -5.76007e-06)
(0.00064643 -0.00279926 -5.64212e-06)
(0.000629494 -0.00267942 -5.4944e-06)
(0.000609216 -0.00255571 -5.31751e-06)
(0.00058571 -0.00242878 -5.11244e-06)
(0.000559134 -0.00229925 -4.88055e-06)
(0.000529693 -0.00216779 -4.62367e-06)
(0.000497626 -0.00203499 -4.34385e-06)
(0.00046321 -0.00190138 -4.04352e-06)
(0.000426768 -0.00176748 -3.7255e-06)
(0.000388648 -0.00163367 -3.39282e-06)
(0.000349226 -0.00150025 -3.04876e-06)
(0.000308902 -0.00136737 -2.69683e-06)
(0.000268111 -0.001235 -2.34081e-06)
(0.000227316 -0.00110296 -1.98474e-06)
(0.000187018 -0.000970764 -1.633e-06)
(0.000147768 -0.000837656 -1.29041e-06)
(0.00011023 -0.000702493 -9.62732e-07)
(7.5208e-05 -0.000563552 -6.57007e-07)
(4.38846e-05 -0.000418379 -3.83531e-07)
(1.80284e-05 -0.000263186 -1.57873e-07)
(1.40157e-06 -9.35246e-05 -1.53406e-08)
(0.000701455 -0.00314469 -6.12211e-06)
(0.000693758 -0.00303731 -6.05502e-06)
(0.000682493 -0.00292434 -5.9568e-06)
(0.000667671 -0.00280637 -5.82753e-06)
(0.000649334 -0.00268404 -5.66759e-06)
(0.00062757 -0.00255798 -5.47773e-06)
(0.000602512 -0.00242886 -5.25912e-06)
(0.00057434 -0.00229733 -5.01331e-06)
(0.000543282 -0.00216407 -4.74231e-06)
(0.000509598 -0.00202966 -4.44838e-06)
(0.000473585 -0.00189465 -4.13411e-06)
(0.000435587 -0.00175957 -3.80251e-06)
(0.00039597 -0.00162478 -3.45676e-06)
(0.000355124 -0.00149061 -3.10027e-06)
(0.000313466 -0.00135717 -2.73669e-06)
(0.000271441 -0.00122446 -2.3699e-06)
(0.000229527 -0.00109228 -2.00406e-06)
(0.000188237 -0.000960158 -1.64366e-06)
(0.000148141 -0.000827343 -1.29367e-06)
(0.000109931 -0.000692722 -9.60135e-07)
(7.4453e-05 -0.000554633 -6.50426e-07)
(4.29721e-05 -0.000410747 -3.75569e-07)
(1.72924e-05 -0.000257552 -1.51436e-07)
(1.22624e-06 -9.10356e-05 -1.36344e-08)
(0.000728202 -0.0031601 -6.35558e-06)
(0.000719368 -0.00304978 -6.27857e-06)
(0.000706821 -0.00293396 -6.16916e-06)
(0.000690588 -0.00281328 -6.02758e-06)
(0.00067073 -0.00268837 -5.85436e-06)
(0.000647353 -0.00255989 -5.65044e-06)
(0.000620616 -0.00242854 -5.41717e-06)
(0.00059072 -0.00229497 -5.15631e-06)
(0.000557918 -0.00215988 -4.87009e-06)
(0.000522491 -0.00202385 -4.56095e-06)
(0.00048476 -0.00188744 -4.23169e-06)
(0.000445092 -0.00175118 -3.8855e-06)
(0.00040387 -0.00161544 -3.52574e-06)
(0.000361501 -0.00148053 -3.15597e-06)
(0.00031842 -0.00134657 -2.77996e-06)
(0.000275083 -0.00121355 -2.40172e-06)
(0.000231983 -0.00108127 -2.02553e-06)
(0.000189648 -0.000949263 -1.656e-06)
(0.000148667 -0.000816792 -1.29828e-06)
(0.000109762 -0.000682775 -9.58677e-07)
(7.3819e-05 -0.000545613 -6.44901e-07)
(4.21764e-05 -0.000403109 -3.68626e-07)
(1.66583e-05 -0.000252006 -1.45892e-07)
(1.08105e-06 -8.86583e-05 -1.22174e-08)
(0.000756905 -0.00317563 -6.60611e-06)
(0.000746833 -0.00306224 -6.5183e-06)
(0.000732893 -0.00294346 -6.39674e-06)
(0.000715131 -0.00281995 -6.24182e-06)
(0.000693628 -0.00269238 -6.05425e-06)
(0.000668513 -0.00256142 -5.83516e-06)
(0.000639969 -0.00242777 -5.58612e-06)
(0.000608221 -0.00229213 -5.30911e-06)
(0.000573549 -0.00215518 -5.00656e-06)
(0.000536259 -0.00201752 -4.68116e-06)
(0.000496695 -0.00187972 -4.33589e-06)
(0.000455246 -0.00174229 -3.97417e-06)
(0.000412317 -0.00160561 -3.59951e-06)
(0.000368334 -0.00146999 -3.21564e-06)
(0.000323745 -0.00133554 -2.82647e-06)
(0.000279026 -0.00120225 -2.43616e-06)
(0.00023468 -0.00106991 -2.04909e-06)
(0.000191252 -0.000938068 -1.67002e-06)
(0.000149351 -0.000805997 -1.30427e-06)
(0.000109731 -0.000672648 -9.58419e-07)
(7.33124e-05 -0.000536493 -6.40489e-07)
(4.14988e-05 -0.00039546 -3.62715e-07)
(1.61199e-05 -0.000246535 -1.41184e-07)
(9.61757e-07 -8.63756e-05 -1.10506e-08)
(0.00078753 -0.00319126 -6.87343e-06)
(0.000776111 -0.00307466 -6.77387e-06)
(0.000760663 -0.00295281 -6.63915e-06)
(0.000741251 -0.00282637 -6.46984e-06)
(0.000717978 -0.00269604 -6.26682e-06)
(0.000690998 -0.00256252 -6.03145e-06)
(0.000660519 -0.00242653 -5.76552e-06)
(0.000626793 -0.00228877 -5.47125e-06)
(0.000590128 -0.00214994 -5.15131e-06)
(0.000550856 -0.00201064 -4.8086e-06)
(0.000509345 -0.00187144 -4.44635e-06)
(0.000466011 -0.00173286 -4.06817e-06)
(0.000421279 -0.00159526 -3.67777e-06)
(0.000375594 -0.00145896 -3.27904e-06)
(0.000329422 -0.00132406 -2.87605e-06)
(0.000283253 -0.00119053 -2.47308e-06)
(0.000237607 -0.00105819 -2.07466e-06)
(0.000193045 -0.000926562 -1.68569e-06)
(0.000150194 -0.00079495 -1.31165e-06)
(0.00010984 -0.000662338 -9.59389e-07)
(7.29357e-05 -0.000527271 -6.3721e-07)
(4.09376e-05 -0.000387798 -3.5782e-07)
(1.567e-05 -0.000241128 -1.3725e-07)
(8.64502e-07 -8.41723e-05 -1.00974e-08)
(0.000820049 -0.003207 -7.15728e-06)
(0.000807169 -0.00308705 -7.04498e-06)
(0.000790093 -0.00296198 -6.89604e-06)
(0.000768904 -0.0028325 -6.71123e-06)
(0.000743733 -0.00269932 -6.49165e-06)
(0.000714758 -0.00256318 -6.23886e-06)
(0.000682214 -0.00242479 -5.95492e-06)
(0.000646385 -0.00228487 -5.64229e-06)
(0.000607605 -0.00214413 -5.30389e-06)
(0.000566235 -0.00200318 -4.94287e-06)
(0.000522669 -0.00186259 -4.56269e-06)
(0.000477349 -0.00172286 -4.16717e-06)
(0.000430723 -0.00158438 -3.76023e-06)
(0.000383254 -0.00144742 -3.34593e-06)
(0.000335428 -0.0013121 -2.9285e-06)
(0.000287749 -0.0011784 -2.51236e-06)
(0.000240754 -0.00104609 -2.10216e-06)
(0.00019502 -0.000914738 -1.70296e-06)
(0.000151195 -0.000783647 -1.32041e-06)
(0.00011009 -0.000651843 -9.61581e-07)
(7.26875e-05 -0.000517944 -6.35053e-07)
(4.04885e-05 -0.000380118 -3.53904e-07)
(1.53009e-05 -0.000235774 -1.34022e-07)
(7.85936e-07 -8.20342e-05 -9.32642e-09)
(0.000854437 -0.00322282 -7.45745e-06)
(0.000839976 -0.00309937 -7.33135e-06)
(0.000821143 -0.00297095 -7.16709e-06)
(0.000798048 -0.00283832 -6.96565e-06)
(0.000770845 -0.0027022 -6.72833e-06)
(0.000739742 -0.00256334 -6.45698e-06)
(0.000705005 -0.00242249 -6.15389e-06)
(0.000666945 -0.00228037 -5.82179e-06)
(0.00062593 -0.00213771 -5.46388e-06)
(0.000582348 -0.0019951 -5.08355e-06)
(0.000536622 -0.00185312 -4.68451e-06)
(0.000489219 -0.00171227 -4.27082e-06)
(0.000440611 -0.00157292 -3.84658e-06)
(0.000391283 -0.00143535 -3.41605e-06)
(0.000341737 -0.00129967 -2.9836e-06)
(0.000292495 -0.00116582 -2.55381e-06)
(0.000244108 -0.00103361 -2.13146e-06)
(0.00019717 -0.000902588 -1.72175e-06)
(0.000152347 -0.000772083 -1.33048e-06)
(0.000110476 -0.000641161 -9.64965e-07)
(7.25641e-05 -0.000508509 -6.33985e-07)
(4.01456e-05 -0.000372412 -3.50914e-07)
(1.50046e-05 -0.000230461 -1.31433e-07)
(7.23123e-07 -7.99491e-05 -8.70948e-09)
(0.000890674 -0.00323872 -7.77376e-06)
(0.000874502 -0.00311159 -7.63273e-06)
(0.000853779 -0.00297969 -7.45199e-06)
(0.000828641 -0.00284378 -7.23271e-06)
(0.00079927 -0.00270462 -6.97647e-06)
(0.000765904 -0.00256298 -6.68537e-06)
(0.00072884 -0.00241961 -6.36198e-06)
(0.000688424 -0.00227526 -6.00931e-06)
(0.000645052 -0.00213064 -5.63084e-06)
(0.000599147 -0.00198637 -5.23022e-06)
(0.000551158 -0.00184301 -4.81143e-06)
(0.00050158 -0.00170106 -4.37874e-06)
(0.000450909 -0.00156088 -3.93649e-06)
(0.00039965 -0.00142274 -3.48911e-06)
(0.000348323 -0.00128672 -3.04112e-06)
(0.000297469 -0.00115279 -2.59725e-06)
(0.000247652 -0.00102073 -2.16242e-06)
(0.000199482 -0.000890105 -1.74195e-06)
(0.000153642 -0.000760256 -1.34181e-06)
(0.000110993 -0.000630288 -9.69488e-07)
(7.25594e-05 -0.000498964 -6.33954e-07)
(3.99018e-05 -0.000364675 -3.4879e-07)
(1.47737e-05 -0.000225177 -1.29414e-07)
(6.73568e-07 -7.79057e-05 -8.22298e-09)
(0.000928741 -0.00325466 -8.10605e-06)
(0.00091072 -0.0031237 -7.94889e-06)
(0.000887967 -0.00298817 -7.75043e-06)
(0.000860643 -0.00284886 -7.51207e-06)
(0.000828961 -0.00270656 -7.23567e-06)
(0.000793193 -0.00256205 -6.9236e-06)
(0.000753669 -0.00241611 -6.57874e-06)
(0.000710768 -0.00226948 -6.20438e-06)
(0.000664922 -0.00212289 -5.80431e-06)
(0.000616582 -0.00197695 -5.38245e-06)
(0.00056623 -0.00183223 -4.94303e-06)
(0.000514388 -0.0016892 -4.49058e-06)
(0.000461576 -0.00154822 -4.02964e-06)
(0.00040832 -0.00140955 -3.56482e-06)
(0.000355159 -0.00127326 -3.10082e-06)
(0.000302648 -0.0011393 -2.64249e-06)
(0.000251368 -0.00100745 -2.19488e-06)
(0.000201944 -0.000877286 -1.76345e-06)
(0.000155071 -0.000748161 -1.3543e-06)
(0.000111631 -0.000619224 -9.75078e-07)
(7.26657e-05 -0.000489305 -6.34891e-07)
(3.97491e-05 -0.0003569 -3.47461e-07)
(1.46008e-05 -0.000219911 -1.27904e-07)
(6.35107e-07 -7.58945e-05 -7.84588e-09)
(0.000968622 -0.00327061 -8.45417e-06)
(0.000948607 -0.00313564 -8.27961e-06)
(0.000923673 -0.00299633 -8.06212e-06)
(0.000894013 -0.0028535 -7.80339e-06)
(0.000859874 -0.00270796 -7.50554e-06)
(0.00082156 -0.0025605 -7.17125e-06)
(0.00077944 -0.00241194 -6.80372e-06)
(0.000733925 -0.002263 -6.40656e-06)
(0.000685485 -0.00211443 -5.98384e-06)
(0.000634602 -0.00196682 -5.53979e-06)
(0.000581791 -0.00182075 -5.07889e-06)
(0.000527599 -0.00167667 -4.60593e-06)
(0.000472572 -0.00153494 -4.12565e-06)
(0.000417258 -0.00139578 -3.64287e-06)
(0.000362213 -0.00125927 -3.16242e-06)
(0.000308008 -0.00112534 -2.6893e-06)
(0.000255237 -0.000993768 -2.22868e-06)
(0.000204538 -0.000864126 -1.78612e-06)
(0.000156621 -0.000735797 -1.36784e-06)
(0.000112382 -0.000607965 -9.81646e-07)
(7.28739e-05 -0.00047953 -6.36716e-07)
(3.96789e-05 -0.00034908 -3.46853e-07)
(1.44791e-05 -0.000214655 -1.2684e-07)
(6.05923e-07 -7.39069e-05 -7.56082e-09)
(0.0010103 -0.00328654 -8.81801e-06)
(0.000988135 -0.00314739 -8.62467e-06)
(0.000960863 -0.00300415 -8.38678e-06)
(0.000928711 -0.00285767 -8.10629e-06)
(0.000891961 -0.00270878 -7.78566e-06)
(0.000850955 -0.00255831 -7.42788e-06)
(0.000806099 -0.00240706 -7.03647e-06)
(0.000757841 -0.00225578 -6.61536e-06)
(0.000706688 -0.00210521 -6.16896e-06)
(0.000653156 -0.00195594 -5.70177e-06)
(0.000597789 -0.00180854 -5.21858e-06)
(0.000541167 -0.00166345 -4.72439e-06)
(0.000483856 -0.001521 -4.22418e-06)
(0.000426427 -0.00138141 -3.72293e-06)
(0.000369453 -0.00124473 -3.22565e-06)
(0.000313521 -0.0011109 -2.73745e-06)
(0.000259236 -0.000979668 -2.26361e-06)
(0.000207248 -0.000850622 -1.8098e-06)
(0.000158278 -0.000723162 -1.38232e-06)
(0.000113234 -0.000596511 -9.89091e-07)
(7.31737e-05 -0.000469634 -6.39343e-07)
(3.96827e-05 -0.00034121 -3.4689e-07)
(1.44019e-05 -0.000209398 -1.26166e-07)
(5.84446e-07 -7.19354e-05 -7.35234e-09)
(0.00105377 -0.00330241 -9.19743e-06)
(0.00102928 -0.00315889 -8.98385e-06)
(0.000999505 -0.00301157 -8.7241e-06)
(0.000964696 -0.00286131 -8.42043e-06)
(0.000925176 -0.00270897 -8.07562e-06)
(0.000881326 -0.00255541 -7.69302e-06)
(0.000833591 -0.00240142 -7.27649e-06)
(0.00078246 -0.00224777 -6.83029e-06)
(0.000728475 -0.00209519 -6.35917e-06)
(0.000672187 -0.00194428 -5.86794e-06)
(0.000614174 -0.00179557 -5.36163e-06)
(0.000555042 -0.0016495 -4.84555e-06)
(0.000495383 -0.00150638 -4.32484e-06)
(0.000435788 -0.00136642 -3.80468e-06)
(0.000376847 -0.00122964 -3.29022e-06)
(0.000319159 -0.00109597 -2.78669e-06)
(0.000263343 -0.00096515 -2.29947e-06)
(0.000210055 -0.000836773 -1.83432e-06)
(0.000160026 -0.000710256 -1.3976e-06)
(0.000114173 -0.000584861 -9.97301e-07)
(7.35545e-05 -0.000459616 -6.42674e-07)
(3.97514e-05 -0.000333284 -3.47494e-07)
(1.43633e-05 -0.000204133 -1.2583e-07)
(5.69365e-07 -6.99736e-05 -7.20778e-09)
(0.001099 -0.00331816 -9.59231e-06)
(0.00107202 -0.0031701 -9.35695e-06)
(0.00103956 -0.00301853 -9.07378e-06)
(0.00100192 -0.00286436 -8.74543e-06)
(0.000959469 -0.00270849 -8.375e-06)
(0.000912619 -0.00255175 -7.96621e-06)
(0.000861861 -0.00239498 -7.52329e-06)
(0.000807723 -0.00223894 -7.05085e-06)
(0.000750787 -0.00208435 -6.55397e-06)
(0.00069164 -0.00193181 -6.03778e-06)
(0.000630892 -0.00178182 -5.5076e-06)
(0.000569176 -0.00163481 -4.96895e-06)
(0.000507109 -0.00149108 -4.42722e-06)
(0.000445301 -0.0013508 -3.88775e-06)
(0.000384359 -0.00121399 -3.35581e-06)
(0.000324893 -0.00108054 -2.83676e-06)
(0.000267531 -0.000950212 -2.33605e-06)
(0.000212938 -0.000822578 -1.8595e-06)
(0.000161849 -0.000697079 -1.41353e-06)
(0.000115186 -0.000573014 -1.00615e-06)
(7.40046e-05 -0.000449473 -6.46612e-07)
(3.98762e-05 -0.000325297 -3.48588e-07)
(1.43576e-05 -0.000198852 -1.25781e-07)
(5.59541e-07 -6.80162e-05 -7.11581e-09)
(0.001146 -0.00333374 -1.00025e-05)
(0.00111633 -0.00318094 -9.74371e-06)
(0.001081 -0.00302497 -9.43551e-06)
(0.00104035 -0.00286678 -9.08089e-06)
(0.000994788 -0.00270726 -8.68334e-06)
(0.000944777 -0.00254728 -8.24696e-06)
(0.000890847 -0.00238769 -7.77635e-06)
(0.000833569 -0.00222924 -7.2765e-06)
(0.000773564 -0.00207264 -6.75284e-06)
(0.000711456 -0.00191848 -6.21079e-06)
(0.000647886 -0.00176725 -5.65597e-06)
(0.000583516 -0.00161936 -5.09416e-06)
(0.000518985 -0.00147507 -4.53092e-06)
(0.000454924 -0.00133454 -3.97177e-06)
(0.000391951 -0.00119777 -3.42211e-06)
(0.00033069 -0.00106462 -2.88739e-06)
(0.000271774 -0.000934852 -2.37312e-06)
(0.000215875 -0.000808036 -1.88516e-06)
(0.000163729 -0.000683632 -1.42995e-06)
(0.000116258 -0.000560972 -1.01552e-06)
(7.45124e-05 -0.000439204 -6.51052e-07)
(4.00481e-05 -0.000317245 -3.50093e-07)
(1.43795e-05 -0.000193549 -1.25974e-07)
(5.54033e-07 -6.60585e-05 -7.06719e-09)
(0.00119473 -0.00334909 -1.04279e-05)
(0.00116217 -0.00319136 -1.01439e-05)
(0.00112377 -0.00303083 -9.80893e-06)
(0.00107993 -0.00286848 -9.4264e-06)
(0.00103108 -0.00270522 -9.00017e-06)
(0.000977741 -0.00254195 -8.53475e-06)
(0.000920489 -0.00237949 -8.03514e-06)
(0.000859935 -0.00221862 -7.5067e-06)
(0.000796744 -0.00206002 -6.95521e-06)
(0.000731574 -0.00190428 -6.38644e-06)
(0.000665098 -0.00175185 -5.80626e-06)
(0.000598008 -0.00160313 -5.22069e-06)
(0.000530963 -0.00145834 -4.63551e-06)
(0.000464612 -0.00131764 -4.05637e-06)
(0.000399587 -0.00118097 -3.48879e-06)
(0.000336518 -0.0010482 -2.93828e-06)
(0.000276046 -0.00091907 -2.41042e-06)
(0.000218843 -0.000793151 -1.91109e-06)
(0.000165646 -0.000669917 -1.4467e-06)
(0.000117374 -0.000548735 -1.02528e-06)
(7.50657e-05 -0.000428808 -6.55889e-07)
(4.02586e-05 -0.000309123 -3.51934e-07)
(1.4424e-05 -0.00018822 -1.26364e-07)
(5.52011e-07 -6.40968e-05 -7.05355e-09)
(0.00124518 -0.00336413 -1.08683e-05)
(0.00120952 -0.00320127 -1.05572e-05)
(0.00116785 -0.00303603 -1.01937e-05)
(0.00112061 -0.0028694 -9.78151e-06)
(0.00106828 -0.00270232 -9.32498e-06)
(0.00101145 -0.00253569 -8.82903e-06)
(0.000950719 -0.00237034 -8.29906e-06)
(0.000886755 -0.00220703 -7.74085e-06)
(0.00082026 -0.00204646 -7.16053e-06)
(0.00075193 -0.00188915 -6.56416e-06)
(0.000682469 -0.00173558 -5.95793e-06)
(0.000612596 -0.00158609 -5.34807e-06)
(0.000542993 -0.00144088 -4.74054e-06)
(0.000474321 -0.00130007 -4.14115e-06)
(0.000407225 -0.00116359 -3.55549e-06)
(0.000342343 -0.00103128 -2.98915e-06)
(0.000280317 -0.000902867 -2.44772e-06)
(0.000221819 -0.000777924 -1.93708e-06)
(0.000167582 -0.000655936 -1.46361e-06)
(0.000118519 -0.000536305 -1.03528e-06)
(7.56524e-05 -0.000418286 -6.61018e-07)
(4.0499e-05 -0.000300931 -3.54037e-07)
(1.44867e-05 -0.00018286 -1.26913e-07)
(5.52791e-07 -6.21279e-05 -7.06809e-09)
(0.00129733 -0.00337878 -1.13236e-05)
(0.00125834 -0.00321061 -1.09834e-05)
(0.00121318 -0.0030405 -1.05894e-05)
(0.00116233 -0.00286947 -1.01458e-05)
(0.00110634 -0.00269848 -9.65723e-06)
(0.00104583 -0.00252843 -9.12921e-06)
(0.00098147 -0.00236017 -8.56753e-06)
(0.000913958 -0.00219443 -7.97834e-06)
(0.000844043 -0.0020319 -7.36817e-06)
(0.000772457 -0.00187308 -6.74338e-06)
(0.000699936 -0.00171842 -6.11043e-06)
(0.000627223 -0.00156822 -5.47578e-06)
(0.00055502 -0.00142267 -4.84556e-06)
(0.000484004 -0.00128183 -4.22569e-06)
(0.000414826 -0.00114563 -3.62186e-06)
(0.00034813 -0.00101386 -3.03968e-06)
(0.000284557 -0.000886247 -2.48476e-06)
(0.000224778 -0.000762358 -1.96292e-06)
(0.000169517 -0.000641695 -1.48051e-06)
(0.000119675 -0.000523686 -1.04539e-06)
(7.62604e-05 -0.000407638 -6.66331e-07)
(4.07611e-05 -0.000292667 -3.56328e-07)
(1.45631e-05 -0.000177466 -1.27582e-07)
(5.55764e-07 -6.01495e-05 -7.10458e-09)
(0.00135116 -0.00339296 -1.17935e-05)
(0.00130859 -0.00321928 -1.14221e-05)
(0.00125971 -0.00304415 -1.09956e-05)
(0.00120504 -0.0028686 -1.05186e-05)
(0.00114519 -0.00269362 -9.99635e-06)
(0.00108082 -0.00252012 -9.43469e-06)
(0.00101267 -0.00234892 -8.8399e-06)
(0.00094147 -0.00218077 -8.21854e-06)
(0.00086802 -0.00201631 -7.57751e-06)
(0.000793086 -0.00185603 -6.92349e-06)
(0.000717432 -0.00170034 -6.26319e-06)
(0.000641828 -0.00154952 -5.6033e-06)
(0.000566991 -0.0014037 -4.95009e-06)
(0.000493612 -0.00126292 -4.30959e-06)
(0.000422347 -0.00112707 -3.68754e-06)
(0.000353842 -0.000995941 -3.08957e-06)
(0.000288737 -0.000869211 -2.52126e-06)
(0.000227694 -0.00074646 -1.98839e-06)
(0.000171429 -0.000627198 -1.49721e-06)
(0.000120828 -0.000510882 -1.05546e-06)
(7.68774e-05 -0.000396867 -6.71722e-07)
(4.10367e-05 -0.00028433 -3.58737e-07)
(1.46493e-05 -0.000172036 -1.28337e-07)
(5.60429e-07 -5.81598e-05 -7.15791e-09)
(0.00140664 -0.00340656 -1.22778e-05)
(0.00136024 -0.00322719 -1.1873e-05)
(0.00130738 -0.00304688 -1.14118e-05)
(0.00124867 -0.00286671 -1.08995e-05)
(0.00118474 -0.00268767 -1.03417e-05)
(0.00111634 -0.00251067 -9.74478e-06)
(0.00104423 -0.00233654 -9.11548e-06)
(0.000969213 -0.00216599 -8.46076e-06)
(0.000892116 -0.00199965 -7.78789e-06)
(0.000813744 -0.00183797 -7.10386e-06)
(0.000734891 -0.00168132 -6.41563e-06)
(0.000656348 -0.00152995 -5.73008e-06)
(0.00057885 -0.00138396 -5.05363e-06)
(0.000503095 -0.00124333 -4.39239e-06)
(0.000429745 -0.00110794 -3.75214e-06)
(0.000359443 -0.000977523 -3.13848e-06)
(0.000292825 -0.000851767 -2.55696e-06)
(0.000230543 -0.000730236 -2.01327e-06)
(0.000173298 -0.000612451 -1.51354e-06)
(0.000121961 -0.000497897 -1.06535e-06)
(7.74913e-05 -0.000385976 -6.77086e-07)
(4.1318e-05 -0.000275922 -3.61195e-07)
(1.47415e-05 -0.00016657 -1.29143e-07)
(5.6633e-07 -5.61576e-05 -7.22336e-09)
(0.00150707 -0.00360325 -1.31543e-05)
(0.00146373 -0.00341949 -1.27761e-05)
(0.00141323 -0.00323423 -1.23356e-05)
(0.00135615 -0.0030486 -1.18375e-05)
(0.00129314 -0.00286371 -1.12878e-05)
(0.00122494 -0.00268055 -1.06926e-05)
(0.00115231 -0.00250003 -1.00588e-05)
(0.00107608 -0.00232296 -9.39355e-06)
(0.000997105 -0.00215004 -8.70428e-06)
(0.000916251 -0.00198187 -7.9986e-06)
(0.000834356 -0.00181886 -7.28382e-06)
(0.000752242 -0.00166134 -6.56712e-06)
(0.00067072 -0.00150951 -5.85556e-06)
(0.000590539 -0.00136343 -5.15569e-06)
(0.000512403 -0.00122306 -4.47366e-06)
(0.000436975 -0.00108821 -3.81527e-06)
(0.000364895 -0.000958614 -3.18609e-06)
(0.000296789 -0.00083392 -2.59158e-06)
(0.000233297 -0.000713693 -2.03733e-06)
(0.000175103 -0.000597462 -1.52931e-06)
(0.000123057 -0.000484739 -1.07493e-06)
(7.80902e-05 -0.000374969 -6.82318e-07)
(4.15972e-05 -0.000267444 -3.63635e-07)
(1.48361e-05 -0.000161066 -1.29971e-07)
(5.73094e-07 -5.41423e-05 -7.29703e-09)
(0.00160967 -0.00381034 -1.40497e-05)
(0.00156995 -0.00362204 -1.37032e-05)
(0.00152239 -0.00343161 -1.32882e-05)
(0.0014675 -0.00324028 -1.28094e-05)
(0.00140593 -0.0030492 -1.22721e-05)
(0.0013384 -0.00285949 -1.16829e-05)
(0.00126569 -0.00267216 -1.10483e-05)
(0.00118864 -0.00248811 -1.03759e-05)
(0.00110813 -0.00230812 -9.67333e-06)
(0.00102506 -0.00213288 -8.94833e-06)
(0.00094034 -0.00196294 -8.20892e-06)
(0.000854842 -0.00179868 -7.46268e-06)
(0.000769411 -0.00164038 -6.71702e-06)
(0.000684876 -0.00148819 -5.97917e-06)
(0.000601998 -0.00134213 -5.25574e-06)
(0.000521482 -0.00120211 -4.55295e-06)
(0.000443992 -0.00106791 -3.87654e-06)
(0.000370159 -0.000939219 -3.23205e-06)
(0.000300597 -0.000815678 -2.62483e-06)
(0.00023593 -0.00069684 -2.06033e-06)
(0.000176824 -0.00058224 -1.54434e-06)
(0.000124101 -0.000471415 -1.08404e-06)
(7.86623e-05 -0.000363852 -6.87316e-07)
(4.18671e-05 -0.000258899 -3.65993e-07)
(1.49299e-05 -0.000155527 -1.30791e-07)
(5.80372e-07 -5.21138e-05 -7.37526e-09)
(0.00167871 -0.00383593 -1.46524e-05)
(0.00163468 -0.00364012 -1.42682e-05)
(0.00158257 -0.0034428 -1.38136e-05)
(0.001523 -0.00324521 -1.32939e-05)
(0.00145665 -0.00304855 -1.2715e-05)
(0.00138433 -0.00285396 -1.20839e-05)
(0.00130689 -0.00266241 -1.14081e-05)
(0.00122523 -0.00247482 -1.06954e-05)
(0.00114028 -0.00229196 -9.95401e-06)
(0.00105298 -0.00211444 -9.19212e-06)
(0.000964296 -0.00194281 -8.41808e-06)
(0.00087512 -0.00177739 -7.63972e-06)
(0.000786322 -0.0016184 -6.86467e-06)
(0.000698749 -0.00146596 -6.10029e-06)
(0.000613166 -0.00132003 -5.35325e-06)
(0.000530281 -0.00118047 -4.62977e-06)
(0.000450751 -0.00104702 -3.93556e-06)
(0.000375196 -0.000919346 -3.27604e-06)
(0.000304217 -0.000797053 -2.65644e-06)
(0.000238417 -0.000679688 -2.08204e-06)
(0.000178438 -0.000566795 -1.55843e-06)
(0.000125075 -0.000457933 -1.09256e-06)
(7.91961e-05 -0.000352631 -6.91979e-07)
(4.21204e-05 -0.000250291 -3.68205e-07)
(1.50196e-05 -0.000149953 -1.31576e-07)
(5.87881e-07 -5.00724e-05 -7.45499e-09)