/*--------------------------------*- C++ -*----------------------------------*\
| =========                 |                                                 |
| \\      /  F ield         | OpenFOAM: The Open Source CFD Toolbox           |
|  \\    /   O peration     | Version:  v2012                                 |
|   \\  /    A nd           | Website:  www.openfoam.com                      |
|    \\/     M anipulation  |                                                 |
\*---------------------------------------------------------------------------*/
FoamFile
{
    version     2.0;
    format      ascii;
    class       surfaceScalarField;
    location    "0.75";
    object      phi;
}
// * * * * * * * * * * * * * * * * * * * * * * * * * * * * * * * * * * * * * //

dimensions      [0 3 -1 0 0 0 0];
oriented        oriented;


internalField   nonuniform List<scalar> 
6434
(
1.85892e-10
-3.91998e-09
2.25198e-13
3.03935e-10
-6.67666e-09
2.16845e-13
-1.42653e-10
-2.68973e-09
1.94924e-13
-5.85033e-10
2.17581e-09
1.62654e-13
3.82147e-09
1.05408e-13
1.53819e-10
-4.0738e-09
1.49021e-13
4.78941e-11
-6.57075e-09
1.99084e-13
-3.69739e-10
-2.27209e-09
1.78423e-13
-6.29062e-10
2.43508e-09
1.09732e-13
3.19249e-09
4.34554e-14
1.48106e-10
-4.22189e-09
1.09608e-13
5.85787e-11
-6.48124e-09
2.09461e-13
-8.45694e-11
-2.12886e-09
1.90954e-13
-1.26189e-10
2.47678e-09
1.19872e-13
3.06645e-09
4.79572e-14
1.23022e-10
-4.34491e-09
1.02819e-13
6.95727e-12
-6.36521e-09
2.26519e-13
-1.38357e-10
-1.98349e-09
1.92783e-13
-1.33649e-10
2.47211e-09
1.12729e-13
2.93286e-09
3.75001e-14
1.05036e-10
-4.44991e-09
1.3741e-13
1.21843e-11
-6.27232e-09
2.54603e-13
-4.80566e-11
-1.92314e-09
2.05014e-13
-2.29142e-11
2.44707e-09
1.21477e-13
2.91003e-09
4.0025e-14
8.89266e-11
-4.53882e-09
1.86949e-13
-6.77896e-12
-6.17657e-09
2.6891e-13
-9.42566e-11
-1.83561e-09
2.02493e-13
-7.6088e-11
2.42897e-09
1.16506e-13
2.83398e-09
3.43212e-14
7.90025e-11
-4.61782e-09
2.24084e-13
-3.20583e-11
-6.06547e-09
2.75867e-13
-1.06797e-10
-1.76083e-09
2.02894e-13
-6.69201e-11
2.3892e-09
1.23453e-13
2.7672e-09
4.68824e-14
6.97809e-11
-4.68761e-09
2.1729e-13
-7.81642e-11
-5.91755e-09
2.71406e-13
-1.86051e-10
-1.65297e-09
1.9622e-13
-1.26828e-10
2.32999e-09
1.11386e-13
2.64041e-09
3.48646e-14
5.82522e-11
-4.74586e-09
1.82439e-13
-1.2046e-10
-5.73884e-09
2.79226e-13
-2.10071e-10
-1.56334e-09
2.05102e-13
-1.21714e-10
2.24162e-09
1.08967e-13
2.51872e-09
3.26816e-14
3.10264e-11
-4.77689e-09
1.37613e-13
-1.57974e-10
-5.54988e-09
2.87446e-13
-2.31122e-10
-1.49019e-09
2.08156e-13
-1.33263e-10
2.14369e-09
1.0288e-13
2.38541e-09
2.3445e-14
-1.50774e-11
-4.76181e-09
1.07961e-13
-1.73833e-10
-5.39113e-09
3.13594e-13
-1.91565e-10
-1.47247e-09
2.16857e-13
-9.6619e-11
2.04879e-09
1.19201e-13
2.28884e-09
3.69334e-14
-6.37346e-11
-4.69811e-09
1.11118e-13
-1.82996e-10
-5.27187e-09
3.44723e-13
-1.7891e-10
-1.47661e-09
2.27432e-13
-9.57803e-11
1.96569e-09
1.2107e-13
2.19306e-09
3.13233e-14
-9.34707e-11
-4.60462e-09
1.8106e-13
-1.97194e-10
-5.16809e-09
3.83511e-13
-1.85844e-10
-1.48793e-09
2.52463e-13
-1.03212e-10
1.88308e-09
1.25794e-13
2.08984e-09
3.09973e-14
-1.05923e-10
-4.4987e-09
3.02037e-13
-2.35536e-10
-5.03848e-09
4.0298e-13
-2.67146e-10
-1.45636e-09
2.57889e-13
-1.57421e-10
1.77328e-09
1.19521e-13
1.93231e-09
2.05607e-14
-1.06077e-10
-4.39262e-09
4.53648e-13
-2.94852e-10
-4.84977e-09
4.07203e-13
-3.61204e-10
-1.39005e-09
2.61515e-13
-2.20113e-10
1.63214e-09
1.28076e-13
1.71221e-09
3.57401e-14
-1.19377e-10
-4.27328e-09
5.62376e-13
-3.46016e-10
-4.62328e-09
3.88688e-13
-5.20586e-10
-1.21557e-09
2.51825e-13
-2.58522e-10
1.36991e-09
1.13648e-13
1.45357e-09
2.06195e-14
-8.36216e-11
-4.18963e-09
5.90189e-13
-3.01449e-10
-4.40558e-09
3.71381e-13
-5.10683e-10
-1.00637e-09
2.40949e-13
-1.59178e-10
1.01825e-09
1.08217e-13
1.29424e-09
1.57206e-14
-9.64792e-10
-4.39567e-09
6.11697e-13
-7.60905e-10
-4.65947e-09
3.6476e-13
-4.64383e-10
-1.30305e-09
1.91774e-13
-8.99273e-11
6.43641e-10
9.81874e-14
1.20418e-09
1.71814e-14
-1.47014e-09
-4.94417e-09
3.72971e-13
-1.14358e-09
-5.55215e-09
1.6842e-13
-1.81196e-10
-2.27667e-09
1.87482e-13
5.6815e-11
4.05443e-10
1.0051e-13
1.26094e-09
2.51611e-14
-1.45728e-09
-5.48257e-09
2.73134e-13
-9.23589e-10
-6.43785e-09
-6.05628e-13
-1.19143e-10
-3.23378e-09
3.42963e-13
-6.84708e-11
3.12795e-10
-4.59622e-15
1.19255e-09
4.12522e-14
-8.34157e-11
-5.63335e-09
2.26212e-12
-3.32672e-11
-6.68534e-09
-1.55559e-12
-1.86989e-11
-3.35646e-09
-9.71326e-13
-3.21904e-11
2.32773e-10
-4.34966e-14
1.15358e-09
2.82712e-14
-4.21536e-11
-5.59213e-09
3.6167e-13
-1.7807e-10
-6.54939e-09
2.99305e-13
-3.09527e-10
-3.22506e-09
1.77164e-13
-9.85942e-11
2.00288e-11
1.00931e-13
1.05201e-09
2.64376e-14
5.46e-12
-5.5976e-09
3.44387e-13
-1.19269e-10
-6.42462e-09
3.00686e-13
-1.34791e-10
-3.20955e-09
1.72946e-13
-3.32927e-11
-8.1432e-11
9.7665e-14
1.01875e-09
3.02139e-14
-3.36763e-11
-5.56393e-09
3.36869e-13
-1.85006e-10
-6.27327e-09
2.9915e-13
-2.13981e-10
-3.18059e-09
1.67974e-13
-8.77872e-11
-2.07578e-10
9.32996e-14
9.30993e-10
2.70739e-14
-5.81473e-11
-5.50579e-09
3.39545e-13
-1.85938e-10
-6.14543e-09
3.0124e-13
-1.80883e-10
-3.18565e-09
1.65368e-13
-7.82132e-11
-3.10217e-10
8.83726e-14
8.52794e-10
2.45551e-14
-8.07443e-11
-5.42506e-09
3.7627e-13
-2.09184e-10
-6.01696e-09
2.93045e-13
-2.11374e-10
-3.1835e-09
1.52671e-13
-1.02542e-10
-4.19056e-10
7.92011e-14
7.50223e-10
1.80344e-14
-9.64564e-11
-5.32862e-09
4.3989e-13
-2.20546e-10
-5.89286e-09
2.75334e-13
-2.15891e-10
-3.18817e-09
1.37898e-13
-1.0533e-10
-5.29592e-10
7.6333e-14
6.44918e-10
2.27941e-14
-1.08908e-10
-5.21973e-09
4.95385e-13
-2.30834e-10
-5.77094e-09
2.41599e-13
-2.24376e-10
-3.19466e-09
1.10635e-13
-1.1533e-10
-6.38646e-10
6.15459e-14
5.2957e-10
1.54912e-14
-1.14158e-10
-5.10558e-09
5.14443e-13
-2.30954e-10
-5.65414e-09
2.00197e-13
-2.36621e-10
-3.18899e-09
8.82052e-14
-1.13355e-10
-7.61903e-10
4.97997e-14
4.16219e-10
1.44731e-14
-1.02026e-10
-5.00356e-09
4.88928e-13
-2.24521e-10
-5.53166e-09
1.53159e-13
-2.33868e-10
-3.17963e-09
6.03958e-14
-1.28523e-10
-8.67258e-10
3.25747e-14
2.8766e-10
6.26324e-15
-1.11764e-10
-4.89183e-09
4.52513e-13
-2.17173e-10
-5.42624e-09
1.1453e-13
-3.24457e-10
-3.07233e-09
3.93386e-14
-9.18683e-11
-1.09981e-09
2.46423e-14
1.95797e-10
7.03093e-15
-1.62676e-11
-4.88438e-09
3.55576e-13
-1.45445e-10
-5.29708e-09
7.60273e-14
-1.22514e-10
-3.0953e-09
1.94024e-14
3.9066e-12
-1.22633e-09
1.30595e-15
1.99614e-10
-8.27109e-15
-1.29404e-09
-5.16109e-09
-8.93481e-12
-1.19365e-09
-5.63428e-09
-5.4353e-13
-7.34333e-10
-3.55458e-09
2.28536e-14
-4.07486e-10
-1.55317e-09
9.85947e-15
-2.07935e-10
-6.56951e-15
4.44145e-11
-5.30895e-14
-4.65059e-10
2.83325e-14
-2.58088e-10
6.59287e-15
5.44089e-11
1.11072e-14
4.29409e-14
-1.40315e-10
-8.77208e-12
1.07184e-16
-1.31459e-10
-8.85874e-12
1.313e-16
-1.22448e-10
-9.01275e-12
1.66604e-16
-1.13246e-10
-9.20431e-12
2.09481e-16
-1.03841e-10
-9.40625e-12
2.38305e-16
-9.42476e-11
-9.59329e-12
2.65424e-16
-8.45046e-11
-9.74381e-12
2.80712e-16
-7.46655e-11
-9.8393e-12
2.9565e-16
-6.48032e-11
-9.8633e-12
3.03295e-16
-5.49921e-11
-9.81127e-12
3.18356e-16
-4.53216e-11
-9.67119e-12
3.33419e-16
-3.58749e-11
-9.44691e-12
3.52178e-16
-2.67388e-11
-9.13644e-12
3.59644e-16
-1.79943e-11
-8.74486e-12
3.55364e-16
-9.71016e-12
-8.28424e-12
3.22113e-16
-1.95654e-12
-7.7538e-12
2.65055e-16
5.20724e-12
-7.16399e-12
1.85849e-16
1.17201e-11
-6.51301e-12
1.16209e-16
1.75161e-11
-5.79615e-12
6.99343e-17
2.25134e-11
-4.99758e-12
5.31157e-17
2.65941e-11
-4.08088e-12
4.81736e-17
2.95832e-11
-2.98929e-12
4.69281e-17
3.12125e-11
-1.62957e-12
5.14061e-17
3.10728e-11
1.39527e-13
6.89339e-17
2.85875e-11
2.48518e-12
8.83829e-17
2.30701e-11
5.51729e-12
9.57841e-17
1.43637e-11
8.70636e-12
7.98436e-17
4.55365e-12
9.80996e-12
5.18825e-17
4.55357e-12
1.68502e-17
-4.28826e-10
-3.19878e-11
6.51293e-16
-4.05032e-10
-3.26558e-11
6.90548e-16
-3.80488e-10
-3.35589e-11
7.44873e-16
-3.55107e-10
-3.45884e-11
8.06785e-16
-3.2887e-10
-3.56444e-11
8.51965e-16
-3.0183e-10
-3.66325e-11
8.9405e-16
-2.74104e-10
-3.7471e-11
9.21061e-16
-2.45853e-10
-3.80894e-11
9.50024e-16
-2.17295e-10
-3.84234e-11
9.75821e-16
-1.88652e-10
-3.84544e-11
1.01341e-15
-1.6019e-10
-3.81338e-11
1.05467e-15
-1.32163e-10
-3.74741e-11
1.09803e-15
-1.04835e-10
-3.64647e-11
1.11408e-15
-7.84585e-11
-3.51223e-11
1.08632e-15
-5.32505e-11
-3.3492e-11
9.825e-16
-2.94371e-11
-3.15676e-11
8.0411e-16
-7.21233e-12
-2.93889e-11
5.72657e-16
1.32228e-11
-2.69484e-11
3.64109e-16
3.16546e-11
-2.42281e-11
2.29683e-16
4.78256e-11
-2.11689e-11
1.78986e-16
6.13774e-11
-1.76329e-11
1.66017e-16
7.17962e-11
-1.34083e-11
1.59887e-16
7.83156e-11
-8.14935e-12
1.71189e-16
7.98049e-11
-1.34996e-12
2.17802e-16
7.47057e-11
7.58429e-12
2.71796e-16
6.13162e-11
1.89067e-11
2.88748e-16
3.92577e-11
3.07649e-11
2.40113e-16
1.38164e-11
3.52511e-11
1.54881e-16
1.83699e-11
5.1777e-17
-7.18783e-10
-6.61582e-11
1.18814e-15
-6.83216e-10
-6.82265e-11
1.2453e-15
-6.4602e-10
-7.07574e-11
1.31763e-15
-6.07084e-10
-7.35282e-11
1.39731e-15
-5.66399e-10
-7.63302e-11
1.4569e-15
-5.24066e-10
-7.89646e-11
1.51164e-15
-4.80281e-10
-8.12578e-11
1.55019e-15
-4.35312e-10
-8.30574e-11
1.5927e-15
-3.89515e-10
-8.42234e-11
1.63641e-15
-3.43254e-10
-8.47135e-11
1.69581e-15
-2.96972e-10
-8.44178e-11
1.76221e-15
-2.51086e-10
-8.33603e-11
1.82744e-15
-2.06039e-10
-8.15122e-11
1.85034e-15
-1.62257e-10
-7.89051e-11
1.79679e-15
-1.20114e-10
-7.56348e-11
1.62146e-15
-8.00004e-11
-7.16813e-11
1.32387e-15
-4.22585e-11
-6.71309e-11
9.44552e-16
-7.24239e-12
-6.19646e-11
6.02792e-16
2.46732e-11
-5.61438e-11
3.85333e-16
5.30466e-11
-4.95427e-11
3.02494e-16
7.72777e-11
-4.1864e-11
2.82084e-16
9.65275e-11
-3.26584e-11
2.70747e-16
1.09573e-10
-2.11951e-11
2.89408e-16
1.14648e-10
-6.42536e-12
3.64253e-16
1.09372e-10
1.28603e-11
4.50598e-16
9.12333e-11
3.70453e-11
4.78017e-16
5.96687e-11
6.23296e-11
3.96681e-16
2.20998e-11
7.28197e-11
2.56376e-16
4.04696e-11
8.70876e-17
-1.00361e-09
-1.07728e-10
1.70048e-15
-9.5955e-10
-1.12289e-10
1.77692e-15
-9.12746e-10
-1.17564e-10
1.86691e-15
-8.63085e-10
-1.23194e-10
1.96329e-15
-8.1058e-10
-1.28836e-10
2.03624e-15
-7.55385e-10
-1.34158e-10
2.10352e-15
-6.97774e-10
-1.3887e-10
2.15418e-15
-6.38117e-10
-1.42713e-10
2.2105e-15
-5.76899e-10
-1.45446e-10
2.27149e-15
-5.14617e-10
-1.46993e-10
2.35225e-15
-4.51876e-10
-1.47161e-10
2.44145e-15
-3.8925e-10
-1.45986e-10
2.5259e-15
-3.27355e-10
-1.43408e-10
2.55183e-15
-2.66788e-10
-1.39473e-10
2.47032e-15
-2.08079e-10
-1.34343e-10
2.2238e-15
-1.51789e-10
-1.27972e-10
1.81097e-15
-9.84129e-11
-1.20507e-10
1.29075e-15
-4.84684e-11
-1.11909e-10
8.2494e-16
-2.49918e-12
-1.02113e-10
5.31358e-16
3.88641e-11
-9.09063e-11
4.19592e-16
7.47812e-11
-7.77812e-11
3.9167e-16
1.04105e-10
-6.19822e-11
3.75357e-16
1.25196e-10
-4.22865e-11
4.01397e-16
1.35731e-10
-1.6961e-11
5.03867e-16
1.32637e-10
1.59548e-11
6.21774e-16
1.12721e-10
5.69612e-11
6.55034e-16
7.52051e-11
9.98454e-11
5.44423e-16
2.88231e-11
1.19201e-10
3.52869e-16
6.92927e-11
1.20309e-16
-1.27688e-09
-1.53335e-10
2.18136e-15
-1.2275e-09
-1.61673e-10
2.27612e-15
-1.1741e-09
-1.70977e-10
2.38298e-15
-1.11656e-09
-1.80734e-10
2.49512e-15
-1.05495e-09
-1.90449e-10
2.58061e-15
-9.89464e-10
-1.99642e-10
2.66013e-15
-9.20452e-10
-2.07884e-10
2.72245e-15
-8.48373e-10
-2.14789e-10
2.79352e-15
-7.73828e-10
-2.19996e-10
2.87107e-15
-6.97432e-10
-2.23387e-10
2.97215e-15
-6.19934e-10
-2.24662e-10
3.08159e-15
-5.42053e-10
-2.23866e-10
3.18158e-15
-4.64562e-10
-2.20899e-10
3.20639e-15
-3.88221e-10
-2.15817e-10
3.0938e-15
-3.13708e-10
-2.08855e-10
2.77604e-15
-2.41753e-10
-1.99929e-10
2.2538e-15
-1.73005e-10
-1.89254e-10
1.60405e-15
-1.08147e-10
-1.76767e-10
1.02545e-15
-4.78949e-11
-1.62366e-10
6.64957e-16
6.93044e-12
-1.45732e-10
5.27706e-16
5.5255e-11
-1.26106e-10
4.93055e-16
9.56418e-11
-1.02369e-10
4.72092e-16
1.26075e-10
-7.27203e-11
5.05452e-16
1.43744e-10
-3.46304e-11
6.31215e-16
1.44985e-10
1.4714e-11
7.79956e-16
1.26017e-10
7.5929e-11
8.19456e-16
8.57916e-11
1.40071e-10
6.80793e-16
3.37617e-11
1.71231e-10
4.39951e-16
1.03054e-10
1.50994e-16
-1.53275e-09
-2.00012e-10
2.62071e-15
-1.48092e-09
-2.13509e-10
2.73451e-15
-1.42369e-09
-2.28206e-10
2.85753e-15
-1.361e-09
-2.43429e-10
2.98409e-15
-1.29293e-09
-2.58525e-10
3.08138e-15
-1.21972e-09
-2.72846e-10
3.17266e-15
-1.14179e-09
-2.85813e-10
3.24641e-15
-1.05968e-09
-2.969e-10
3.33121e-15
-9.74079e-10
-3.05606e-10
3.42592e-15
-8.85697e-10
-3.11765e-10
3.54576e-15
-7.95413e-10
-3.1495e-10
3.67232e-15
-7.04064e-10
-3.15213e-10
3.78375e-15
-6.12565e-10
-3.12399e-10
3.80329e-15
-5.21818e-10
-3.06567e-10
3.65737e-15
-4.32639e-10
-2.98031e-10
3.26833e-15
-3.45918e-10
-2.86652e-10
2.64422e-15
-2.62449e-10
-2.72722e-10
1.87892e-15
-1.83079e-10
-2.56137e-10
1.20176e-15
-1.08693e-10
-2.36752e-10
7.842e-16
-4.02962e-11
-2.14129e-10
6.25382e-16
2.08129e-11
-1.87215e-10
5.84841e-16
7.29283e-11
-1.54485e-10
5.59518e-16
1.13697e-10
-1.13489e-10
6.00236e-16
1.39882e-10
-6.08155e-11
7.49476e-16
1.47314e-10
7.28157e-12
9.2335e-16
1.31693e-10
9.15497e-11
9.68436e-16
9.16426e-11
1.80122e-10
8.03836e-16
3.68964e-11
2.25976e-10
5.19122e-16
1.39951e-10
1.78322e-16
-1.76624e-09
-2.45305e-10
3.01506e-15
-1.71441e-09
-2.65353e-10
3.14615e-15
-1.65581e-09
-2.86806e-10
3.2834e-15
-1.59042e-09
-3.08832e-10
3.42295e-15
-1.51833e-09
-3.30611e-10
3.53087e-15
-1.43985e-09
-3.51323e-10
3.63349e-15
-1.35544e-09
-3.7023e-10
3.71859e-15
-1.26568e-09
-3.86654e-10
3.81708e-15
-1.17135e-09
-3.99942e-10
3.92784e-15
-1.07323e-09
-4.09875e-10
4.06453e-15
-9.72307e-10
-4.15883e-10
4.20527e-15
-8.695e-10
-4.18018e-10
4.32373e-15
-7.65843e-10
-4.16056e-10
4.33377e-15
-6.6236e-10
-4.10054e-10
4.15076e-15
-5.59985e-10
-4.00403e-10
3.69588e-15
-4.59747e-10
-3.86892e-10
2.97936e-15
-3.62579e-10
-3.69889e-10
2.11186e-15
-2.69476e-10
-3.4924e-10
1.35203e-15
-1.81486e-10
-3.24744e-10
8.87901e-16
-9.9787e-11
-2.95828e-10
7.11438e-16
-2.58884e-11
-2.61114e-10
6.65816e-16
3.82584e-11
-2.18632e-10
6.36891e-16
9.00004e-11
-1.65231e-10
6.84661e-16
1.25732e-10
-9.65469e-11
8.54534e-16
1.4085e-10
-7.83699e-12
1.05029e-15
1.30589e-10
1.0181e-10
1.10013e-15
9.31951e-11
2.17517e-10
9.12096e-16
3.83455e-11
2.80826e-10
5.88835e-16
1.78296e-10
2.02379e-16
-1.9736e-09
-2.87337e-10
3.35777e-15
-1.92371e-09
-3.15256e-10
3.50443e-15
-1.86576e-09
-3.44756e-10
3.65426e-15
-1.79975e-09
-3.74848e-10
3.80536e-15
-1.72582e-09
-4.04545e-10
3.92266e-15
-1.64429e-09
-4.32854e-10
4.03621e-15
-1.55565e-09
-4.5887e-10
4.13233e-15
-1.46053e-09
-4.81762e-10
4.2446e-15
-1.35977e-09
-5.00715e-10
4.36993e-15
-1.25419e-09
-5.15451e-10
4.52137e-15
-1.14483e-09
-5.25244e-10
4.67282e-15
-1.03271e-09
-5.30144e-10
4.79482e-15
-9.18917e-10
-5.29846e-10
4.79174e-15
-8.04587e-10
-5.24389e-10
4.57158e-15
-6.90743e-10
-5.14242e-10
4.05501e-15
-5.78533e-10
-4.99104e-10
3.25673e-15
-4.69006e-10
-4.79416e-10
2.30271e-15
-3.6329e-10
-4.54955e-10
1.47598e-15
-2.6258e-10
-4.25455e-10
9.75208e-16
-1.68212e-10
-3.90195e-10
7.85513e-16
-8.18881e-11
-3.47439e-10
7.35866e-16
-5.7773e-12
-2.94743e-10
7.03807e-16
5.72046e-11
-2.28214e-10
7.58246e-16
1.03134e-10
-1.42477e-10
9.45929e-16
1.27038e-10
-3.17411e-11
1.1595e-15
1.2373e-10
1.05119e-10
1.21366e-15
9.10383e-11
2.50208e-10
1.00525e-15
3.83152e-11
3.33548e-10
6.48422e-16
2.16611e-10
2.23053e-16
-2.1524e-09
-3.24803e-10
3.64737e-15
-2.10588e-09
-3.61782e-10
3.80586e-15
-2.05015e-09
-4.00493e-10
3.96574e-15
-1.98522e-09
-4.39789e-10
4.12649e-15
-1.91124e-09
-4.78519e-10
4.25254e-15
-1.82857e-09
-5.15517e-10
4.37627e-15
-1.73773e-09
-5.49717e-10
4.48301e-15
-1.63936e-09
-5.80127e-10
4.60834e-15
-1.53432e-09
-6.05769e-10
4.74708e-15
-1.42346e-09
-6.26305e-10
4.91112e-15
-1.30787e-09
-6.40844e-10
5.06986e-15
-1.18858e-09
-6.49429e-10
5.19173e-15
-1.06676e-09
-6.51661e-10
5.17355e-15
-9.43605e-10
-6.47553e-10
4.91706e-15
-8.20193e-10
-6.37649e-10
4.34504e-15
-6.97768e-10
-6.21533e-10
3.47633e-15
-5.77469e-10
-5.99714e-10
2.45209e-15
-4.60538e-10
-5.71885e-10
1.57375e-15
-3.48294e-10
-5.37701e-10
1.04679e-15
-2.42213e-10
-4.96275e-10
8.47349e-16
-1.44162e-10
-4.45491e-10
7.94322e-16
-5.65027e-11
-3.82403e-10
7.60168e-16
1.76257e-11
-3.02342e-10
8.20728e-16
7.40304e-11
-1.98882e-10
1.02358e-15
1.07422e-10
-6.51325e-11
1.25353e-15
1.12232e-10
1.00308e-10
1.30884e-15
8.58431e-11
2.76598e-10
1.08289e-15
3.70595e-11
3.82331e-10
6.9827e-16
2.53671e-10
2.40282e-16
-2.30156e-09
-3.56919e-10
3.8789e-15
-2.25937e-09
-4.03984e-10
4.04697e-15
-2.20697e-09
-4.52902e-10
4.21461e-15
-2.14439e-09
-5.02377e-10
4.38361e-15
-2.07181e-09
-5.51098e-10
4.51745e-15
-1.98959e-09
-5.9773e-10
4.65092e-15
-1.89826e-09
-6.41047e-10
4.76751e-15
-1.79848e-09
-6.79903e-10
4.90532e-15
-1.69111e-09
-7.13157e-10
5.05589e-15
-1.57699e-09
-7.40411e-10
5.23031e-15
-1.45724e-09
-7.60605e-10
5.39371e-15
-1.33289e-09
-7.73772e-10
5.51296e-15
-1.20514e-09
-7.7941e-10
5.47824e-15
-1.07521e-09
-7.77498e-10
5.18808e-15
-9.44208e-10
-7.68643e-10
4.56747e-15
-8.13447e-10
-7.52297e-10
3.64034e-15
-6.84128e-10
-7.29031e-10
2.56252e-15
-5.57579e-10
-6.98433e-10
1.64745e-15
-4.35219e-10
-6.60063e-10
1.10343e-15
-3.18636e-10
-6.12857e-10
8.97649e-16
-2.09839e-10
-5.54289e-10
8.41569e-16
-1.11348e-10
-4.80894e-10
8.06118e-16
-2.64881e-11
-3.87202e-10
8.72325e-16
4.03237e-11
-2.65694e-10
1.08747e-15
8.35305e-11
-1.08339e-10
1.33013e-15
9.722e-11
8.66184e-11
1.38618e-15
7.82996e-11
2.95518e-10
1.14544e-15
3.48475e-11
4.25783e-10
7.387e-16
2.88518e-10
2.53909e-16
-2.42132e-09
-3.83356e-10
4.05146e-15
-2.38397e-09
-4.41345e-10
4.2264e-15
-2.33559e-09
-5.01285e-10
4.40006e-15
-2.27625e-09
-5.61731e-10
4.57598e-15
-2.20613e-09
-6.2122e-10
4.71696e-15
-2.1256e-09
-6.78257e-10
4.85955e-15
-2.03519e-09
-7.31461e-10
4.98623e-15
-1.93554e-09
-7.79538e-10
5.1347e-15
-1.82753e-09
-8.21191e-10
5.29579e-15
-1.71196e-09
-8.55965e-10
5.47823e-15
-1.58994e-09
-8.82632e-10
5.64448e-15
-1.4625e-09
-9.01214e-10
5.7582e-15
-1.33081e-09
-9.111e-10
5.70742e-15
-1.19609e-09
-9.12224e-10
5.38695e-15
-1.05947e-09
-9.05251e-10
4.72451e-15
-9.22291e-10
-8.89485e-10
3.75361e-15
-7.8578e-10
-8.65541e-10
2.63743e-15
-6.51323e-10
-8.32889e-10
1.69897e-15
-5.20412e-10
-7.90977e-10
1.14572e-15
-3.94721e-10
-7.38546e-10
9.36503e-16
-2.76369e-10
-6.72642e-10
8.78317e-16
-1.68001e-10
-5.89263e-10
8.41475e-16
-7.30918e-11
-4.82111e-10
9.13317e-16
3.76316e-12
-3.42549e-10
1.13749e-15
5.67851e-11
-1.61362e-10
1.39059e-15
7.97468e-11
6.36567e-11
1.44665e-15
6.90646e-11
3.06201e-10
1.19381e-15
3.19387e-11
4.62908e-10
7.69353e-16
3.20457e-10
2.64504e-16
-2.51297e-09
-4.04143e-10
4.16519e-15
-2.48062e-09
-4.73706e-10
4.3449e-15
-2.43662e-09
-5.45292e-10
4.52306e-15
-2.38105e-09
-6.17315e-10
4.70498e-15
-2.3141e-09
-6.88164e-10
4.85197e-15
-2.23616e-09
-7.56192e-10
5.00337e-15
-2.14775e-09
-8.19874e-10
5.13893e-15
-2.0495e-09
-8.7778e-10
5.29727e-15
-1.94224e-09
-9.28464e-10
5.46724e-15
-1.82678e-09
-9.71421e-10
5.65575e-15
-1.70416e-09
-1.00526e-09
5.82359e-15
-1.57537e-09
-1.03e-09
5.93028e-15
-1.44157e-09
-1.0449e-09
5.86403e-15
-1.30395e-09
-1.04986e-09
5.51838e-15
-1.1636e-09
-1.04559e-09
4.8238e-15
-1.02186e-09
-1.03123e-09
3.82138e-15
-8.79974e-10
-1.00743e-09
2.68081e-15
-7.39349e-10
-9.73511e-10
1.73117e-15
-6.01521e-10
-9.28808e-10
1.1751e-15
-4.68219e-10
-8.71848e-10
9.65002e-16
-3.41637e-10
-7.99225e-10
9.05132e-16
-2.24516e-10
-7.06385e-10
8.67715e-16
-1.20438e-10
-5.86189e-10
9.44379e-16
-3.41357e-11
-4.28851e-10
1.17706e-15
2.84284e-11
-2.23926e-10
1.4342e-15
6.07449e-11
3.13402e-11
1.49223e-15
5.87233e-11
3.08222e-10
1.22901e-15
2.85651e-11
4.93066e-10
7.91759e-16
3.49022e-10
2.71904e-16
-2.57866e-09
-4.19576e-10
4.22232e-15
-2.55119e-09
-5.01185e-10
4.40522e-15
-2.51163e-09
-5.84863e-10
4.58662e-15
-2.46007e-09
-6.68886e-10
4.77342e-15
-2.39673e-09
-7.51503e-10
4.92643e-15
-2.32199e-09
-8.30926e-10
5.08549e-15
-2.23637e-09
-9.05501e-10
5.2286e-15
-2.14047e-09
-9.7367e-10
5.39646e-15
-2.0351e-09
-1.03385e-09
5.57296e-15
-1.92101e-09
-1.0855e-09
5.76598e-15
-1.79919e-09
-1.12708e-09
5.93404e-15
-1.6706e-09
-1.15859e-09
6.03324e-15
-1.53631e-09
-1.17919e-09
5.95383e-15
-1.39746e-09
-1.18872e-09
5.58828e-15
-1.25511e-09
-1.18793e-09
4.87089e-15
-1.11057e-09
-1.17578e-09
3.84919e-15
-9.65047e-10
-1.15295e-09
2.69672e-15
-8.19951e-10
-1.1186e-09
1.74615e-15
-6.7683e-10
-1.07193e-09
1.19277e-15
-5.37439e-10
-1.01124e-09
9.83541e-16
-4.04017e-10
-9.32647e-10
9.22423e-16
-2.79362e-10
-8.31041e-10
8.84837e-16
-1.67127e-10
-6.98424e-10
9.6591e-16
-7.21432e-11
-5.23835e-10
1.20423e-15
-5.16002e-13
-2.95553e-10
1.46434e-15
4.09896e-11
-1.01655e-11
1.52164e-15
4.77663e-11
3.01446e-10
1.25216e-15
2.4921e-11
5.15911e-10
8.06711e-16
3.73943e-10
2.77019e-16
-2.62111e-09
-4.30135e-10
4.22941e-15
-2.5982e-09
-5.24098e-10
4.41244e-15
-2.56292e-09
-6.20147e-10
4.59557e-15
-2.5154e-09
-7.16424e-10
4.78653e-15
-2.45585e-09
-8.11049e-10
4.94493e-15
-2.38467e-09
-9.02102e-10
5.1106e-15
-2.30236e-09
-9.87812e-10
5.26165e-15
-2.20951e-09
-1.06651e-09
5.43518e-15
-2.10688e-09
-1.1365e-09
5.61768e-15
-1.99517e-09
-1.19721e-09
5.81359e-15
-1.87532e-09
-1.24694e-09
5.9808e-15
-1.74818e-09
-1.28572e-09
6.0731e-15
-1.61479e-09
-1.31258e-09
5.98298e-15
-1.4762e-09
-1.32732e-09
5.60234e-15
-1.3334e-09
-1.33072e-09
4.87177e-15
-1.18764e-09
-1.32155e-09
3.84319e-15
-1.04008e-09
-1.3005e-09
2.69148e-15
-8.92105e-10
-1.26658e-09
1.74689e-15
-7.45245e-10
-1.2188e-09
1.20041e-15
-6.01249e-10
-1.15523e-09
9.93195e-16
-4.62373e-10
-1.07153e-09
9.31226e-16
-3.31433e-10
-9.61982e-10
8.94037e-16
-2.1212e-10
-8.17736e-10
9.7876e-16
-1.09324e-10
-6.26631e-10
1.2204e-15
-2.92557e-11
-3.75622e-10
1.48181e-15
2.10872e-11
-6.05085e-11
1.53648e-15
3.6579e-11
2.85954e-10
1.26437e-15
2.11586e-11
5.31332e-10
8.14723e-16
3.95101e-10
2.79776e-16
-2.64331e-09
-4.36405e-10
4.18848e-15
-2.62454e-09
-5.42885e-10
4.37127e-15
-2.59325e-09
-6.51438e-10
4.55546e-15
-2.54961e-09
-7.60076e-10
4.75025e-15
-2.49387e-09
-8.66795e-10
4.91236e-15
-2.4264e-09
-9.69559e-10
5.08452e-15
-2.34773e-09
-1.06649e-09
5.24091e-15
-2.25839e-09
-1.15584e-09
5.42043e-15
-2.15912e-09
-1.23579e-09
5.60705e-15
-2.05056e-09
-1.30576e-09
5.80443e-15
-1.93357e-09
-1.36394e-09
5.97015e-15
-1.80893e-09
-1.41035e-09
6.0568e-15
-1.67758e-09
-1.44394e-09
5.95859e-15
-1.54049e-09
-1.46442e-09
5.57047e-15
-1.39857e-09
-1.47263e-09
4.83534e-15
-1.25297e-09
-1.46715e-09
3.80843e-15
-1.1048e-09
-1.44866e-09
2.66661e-15
-9.55395e-10
-1.41598e-09
1.73541e-15
-8.06228e-10
-1.36797e-09
1.19888e-15
-6.59024e-10
-1.30243e-09
9.94943e-16
-5.16019e-10
-1.21453e-09
9.32603e-16
-3.80021e-10
-1.09798e-09
8.96014e-16
-2.54721e-10
-9.43036e-10
9.83443e-16
-1.45028e-10
-7.36323e-10
1.22657e-15
-5.72277e-11
-4.63423e-10
1.48811e-15
1.47662e-12
-1.19213e-10
1.54134e-15
2.54427e-11
2.61988e-10
1.26688e-15
1.73882e-11
5.39386e-10
8.16529e-16
4.12489e-10
2.8035e-16
-2.64839e-09
-4.39016e-10
4.10798e-15
-2.63323e-09
-5.58053e-10
4.28929e-15
-2.60556e-09
-6.79117e-10
4.47386e-15
-2.56555e-09
-8.00093e-10
4.6713e-15
-2.51349e-09
-9.18862e-10
4.83678e-15
-2.44976e-09
-1.03328e-09
5.01394e-15
-2.37486e-09
-1.14139e-09
5.17482e-15
-2.28933e-09
-1.24136e-09
5.35816e-15
-2.19384e-09
-1.33129e-09
5.54768e-15
-2.08898e-09
-1.41062e-09
5.74531e-15
-1.97553e-09
-1.4774e-09
5.90905e-15
-1.85419e-09
-1.53168e-09
5.99128e-15
-1.72579e-09
-1.57233e-09
5.88791e-15
-1.59122e-09
-1.599e-09
5.49724e-15
-1.45127e-09
-1.61257e-09
4.7656e-15
-1.30702e-09
-1.61141e-09
3.74974e-15
-1.15948e-09
-1.5962e-09
2.62644e-15
-1.0099e-09
-1.56556e-09
1.71488e-15
-8.59711e-10
-1.51816e-09
1.18983e-15
-7.10566e-10
-1.45158e-09
9.89998e-16
-5.64661e-10
-1.36044e-09
9.27709e-16
-4.24764e-10
-1.23788e-09
8.91734e-16
-2.9453e-10
-1.07327e-09
9.80787e-16
-1.78859e-10
-8.51995e-10
1.22368e-15
-8.40711e-11
-5.5821e-10
1.48162e-15
-1.75516e-11
-1.85733e-10
1.53443e-15
1.45437e-11
2.29893e-10
1.26057e-15
1.36819e-11
5.40247e-10
8.12871e-16
4.26171e-10
2.79087e-16
-2.63935e-09
-4.38597e-10
3.9936e-15
-2.62728e-09
-5.70127e-10
4.174e-15
-2.6028e-09
-7.03603e-10
4.35843e-15
-2.56612e-09
-8.36784e-10
4.55765e-15
-2.51754e-09
-9.67447e-10
4.72532e-15
-2.45746e-09
-1.09336e-09
4.90616e-15
-2.38637e-09
-1.21248e-09
5.07025e-15
-2.30478e-09
-1.32294e-09
5.25735e-15
-2.21333e-09
-1.42276e-09
5.4468e-15
-2.11254e-09
-1.5114e-09
5.64341e-15
-2.00311e-09
-1.58683e-09
5.80487e-15
-1.88566e-09
-1.64913e-09
5.88378e-15
-1.76093e-09
-1.69707e-09
5.77788e-15
-1.62966e-09
-1.73028e-09
5.39024e-15
-1.49258e-09
-1.74964e-09
4.66879e-15
-1.35064e-09
-1.75336e-09
3.67291e-15
-1.20476e-09
-1.74207e-09
2.57384e-15
-1.0561e-09
-1.71422e-09
1.68426e-15
-9.05986e-10
-1.66828e-09
1.1741e-15
-7.5602e-10
-1.60154e-09
9.78642e-16
-6.08318e-10
-1.50814e-09
9.16681e-16
-4.6558e-10
-1.38062e-09
8.81124e-16
-3.314e-10
-1.20745e-09
9.71639e-16
-2.10631e-10
-9.72765e-10
1.21251e-15
-1.09598e-10
-6.59243e-10
1.46617e-15
-3.58404e-11
-2.59491e-10
1.51641e-15
3.98775e-12
1.90064e-10
1.24646e-15
1.00789e-11
5.34156e-10
8.04227e-16
4.3625e-10
2.76169e-16
-2.61898e-09
-4.35739e-10
3.86233e-15
-2.6095e-09
-5.79614e-10
4.03653e-15
-2.5878e-09
-7.25313e-10
4.21785e-15
-2.55412e-09
-8.70479e-10
4.41698e-15
-2.50878e-09
-1.01279e-09
4.5854e-15
-2.45219e-09
-1.14993e-09
4.76855e-15
-2.38486e-09
-1.27982e-09
4.93434e-15
-2.30726e-09
-1.40053e-09
5.12217e-15
-2.21999e-09
-1.51006e-09
5.31164e-15
-2.12349e-09
-1.60788e-09
5.50614e-15
-2.01842e-09
-1.69191e-09
5.66499e-15
-1.90528e-09
-1.76226e-09
5.74158e-15
-1.78471e-09
-1.81764e-09
5.63568e-15
-1.65736e-09
-1.85764e-09
5.25609e-15
-1.52383e-09
-1.88317e-09
4.55035e-15
-1.38496e-09
-1.89223e-09
3.57884e-15
-1.24157e-09
-1.88546e-09
2.51146e-15
-1.09471e-09
-1.86108e-09
1.64786e-15
-9.4561e-10
-1.81738e-09
1.15304e-15
-7.95779e-10
-1.75137e-09
9.62161e-16
-6.47241e-10
-1.65668e-09
9.00474e-16
-5.02605e-10
-1.52525e-09
8.65595e-16
-3.65376e-10
-1.34468e-09
9.56692e-16
-2.40327e-10
-1.09781e-09
1.1941e-15
-1.3376e-10
-7.65811e-10
1.44228e-15
-5.33353e-11
-3.39915e-10
1.49108e-15
-6.19123e-12
1.4292e-10
1.22546e-15
6.59184e-12
5.21373e-10
7.91168e-16
4.42842e-10
2.71821e-16
-2.5898e-09
-4.30973e-10
3.71566e-15
-2.58245e-09
-5.86973e-10
3.88244e-15
-2.56313e-09
-7.44636e-10
4.059e-15
-2.53213e-09
-9.01491e-10
4.25654e-15
-2.48979e-09
-1.05513e-09
4.42428e-15
-2.43654e-09
-1.20317e-09
4.60819e-15
-2.37287e-09
-1.3435e-09
4.77436e-15
-2.29923e-09
-1.47416e-09
4.96177e-15
-2.21618e-09
-1.59313e-09
5.14945e-15
-2.12411e-09
-1.69994e-09
5.34091e-15
-2.02358e-09
-1.79245e-09
5.49652e-15
-1.91503e-09
-1.87081e-09
5.57113e-15
-1.79897e-09
-1.9337e-09
5.4677e-15
-1.67596e-09
-1.98066e-09
5.09829e-15
-1.54648e-09
-2.01264e-09
4.41496e-15
-1.41126e-09
-2.02746e-09
3.47428e-15
-1.271e-09
-2.02572e-09
2.44145e-15
-1.12664e-09
-2.00544e-09
1.60627e-15
-9.79313e-10
-1.96471e-09
1.12729e-15
-8.30409e-10
-1.90027e-09
9.4105e-16
-6.81849e-10
-1.80524e-09
8.7976e-16
-5.3613e-10
-1.67097e-09
8.45865e-16
-3.96643e-10
-1.48416e-09
9.36171e-16
-2.68055e-10
-1.2264e-09
1.1691e-15
-1.5661e-10
-8.77256e-10
1.41007e-15
-7.00622e-11
-4.26464e-10
1.45891e-15
-1.60065e-11
8.88642e-11
1.19912e-15
3.21389e-12
5.02152e-10
7.7494e-16
4.46055e-10
2.66183e-16
-2.55401e-09
-4.24757e-10
3.56213e-15
-2.54838e-09
-5.92604e-10
3.71859e-15
-2.53111e-09
-7.61912e-10
3.88863e-15
-2.50251e-09
-9.30104e-10
4.08298e-15
-2.46295e-09
-1.09469e-09
4.2487e-15
-2.41286e-09
-1.25325e-09
4.43192e-15
-2.35273e-09
-1.40363e-09
4.59703e-15
-2.283e-09
-1.54389e-09
4.78267e-15
-2.20415e-09
-1.67199e-09
4.96711e-15
-2.11655e-09
-1.78753e-09
5.1543e-15
-2.02066e-09
-1.88834e-09
5.30627e-15
-1.91684e-09
-1.97463e-09
5.37931e-15
-1.80552e-09
-2.04503e-09
5.27983e-15
-1.68712e-09
-2.09906e-09
4.92397e-15
-1.56203e-09
-2.13772e-09
4.26667e-15
-1.43087e-09
-2.15863e-09
3.3599e-15
-1.29421e-09
-2.16237e-09
2.36497e-15
-1.15289e-09
-2.14676e-09
1.56022e-15
-1.00792e-09
-2.10968e-09
1.09832e-15
-8.60579e-10
-2.04761e-09
9.16502e-16
-7.12664e-10
-1.95316e-09
8.55352e-16
-5.66548e-10
-1.81709e-09
8.2218e-16
-4.25483e-10
-1.62523e-09
9.10541e-16
-2.94009e-10
-1.35788e-09
1.13863e-15
-1.78279e-10
-9.92986e-10
1.37313e-15
-8.61046e-11
-5.18638e-10
1.42134e-15
-2.55075e-11
2.82668e-11
1.16743e-15
-9.73546e-14
4.76742e-10
7.55248e-16
4.45958e-10
2.59511e-16
-2.5135e-09
-4.17465e-10
3.40231e-15
-2.50928e-09
-5.96831e-10
3.54859e-15
-2.49378e-09
-7.77418e-10
3.7119e-15
-2.46735e-09
-9.56547e-10
3.90199e-15
-2.43037e-09
-1.13167e-09
4.06469e-15
-2.3833e-09
-1.30031e-09
4.24589e-15
-2.3266e-09
-1.46034e-09
4.4086e-15
-2.26068e-09
-1.6098e-09
4.59105e-15
-2.18599e-09
-1.74669e-09
4.77101e-15
-2.10284e-09
-1.87068e-09
4.95293e-15
-2.01162e-09
-1.97956e-09
5.10037e-15
-1.91259e-09
-2.07365e-09
5.1719e-15
-1.80609e-09
-2.15153e-09
5.07741e-15
-1.69246e-09
-2.2127e-09
4.7374e-15
-1.57197e-09
-2.2582e-09
4.107e-15
-1.44512e-09
-2.28548e-09
3.23919e-15
-1.31239e-09
-2.2951e-09
2.28351e-15
-1.17448e-09
-2.28467e-09
1.51099e-15
-1.0323e-09
-2.25186e-09
1.06597e-15
-8.87007e-10
-2.1929e-09
8.8875e-16
-7.40265e-10
-2.09991e-09
8.27756e-16
-5.94307e-10
-1.96305e-09
7.94932e-16
-4.52237e-10
-1.76729e-09
8.82886e-16
-3.18437e-10
-1.49168e-09
1.10333e-15
-1.98943e-10
-1.11248e-09
1.32956e-15
-1.01585e-10
-6.15997e-10
1.376e-15
-3.47715e-11
-3.85472e-11
1.13134e-15
-3.33119e-12
4.45302e-10
7.32686e-16
4.42627e-10
2.51856e-16
-2.4699e-09
-4.0938e-10
3.24748e-15
-2.46684e-09
-5.99898e-10
3.37948e-15
-2.4529e-09
-7.91359e-10
3.53421e-15
-2.42846e-09
-9.80994e-10
3.71902e-15
-2.39393e-09
-1.1662e-09
3.87765e-15
-2.34975e-09
-1.34449e-09
4.05554e-15
-2.29638e-09
-1.51372e-09
4.21419e-15
-2.23419e-09
-1.67198e-09
4.39254e-15
-2.16359e-09
-1.81731e-09
4.56677e-15
-2.08483e-09
-1.94943e-09
4.74235e-15
-1.99824e-09
-2.06617e-09
4.88464e-15
-1.90399e-09
-2.16789e-09
4.95417e-15
-1.80233e-09
-2.25318e-09
4.86508e-15
-1.69351e-09
-2.32153e-09
4.54237e-15
-1.57771e-09
-2.374e-09
3.94062e-15
-1.4553e-09
-2.40789e-09
3.11317e-15
-1.32668e-09
-2.42373e-09
2.20066e-15
-1.19242e-09
-2.41892e-09
1.46011e-15
-1.05332e-09
-2.39096e-09
1.03183e-15
-9.1042e-10
-2.33581e-09
8.58861e-16
-7.65246e-10