/*--------------------------------*- C++ -*----------------------------------*\
| =========                 |                                                 |
| \\      /  F ield         | OpenFOAM: The Open Source CFD Toolbox           |
|  \\    /   O peration     | Version:  v2012                                 |
|   \\  /    A nd           | Website:  www.openfoam.com                      |
|    \\/     M anipulation  |                                                 |
\*---------------------------------------------------------------------------*/
FoamFile
{
    version     2.0;
    format      ascii;
    class       surfaceScalarField;
    location    "0.6";
    object      alphaPhi0.water;
}
// * * * * * * * * * * * * * * * * * * * * * * * * * * * * * * * * * * * * * //

dimensions      [0 3 -1 0 0 0 0];
oriented        oriented;


internalField   nonuniform List<scalar> 
8048
(
3.98519e-12
-7.53919e-09
-8.42302e-15
2.15445e-10
-2.36283e-08
-1.10909e-14
1.45892e-09
-4.85245e-08
-4.13539e-15
2.47046e-10
-7.61762e-08
-1.88668e-14
-2.30694e-09
-9.09049e-08
-2.71198e-14
-4.33701e-09
-1.03642e-07
-1.23195e-14
-3.0472e-09
-9.57722e-08
-4.05689e-14
-5.48241e-08
-1.60127e-14
4.62173e-12
-7.54381e-09
-4.66649e-15
2.34497e-10
-2.38582e-08
-1.80929e-15
1.18177e-09
-4.94718e-08
2.27418e-16
-7.68231e-10
-7.42261e-08
-1.87585e-14
-3.68096e-09
-8.79921e-08
-1.44192e-14
-6.28296e-09
-1.0104e-07
-1.20911e-14
-5.52709e-09
-9.65281e-08
-5.68396e-14
-2.8149e-09
-5.7583e-08
5.82607e-16
-2.02694e-09
-4.24375e-08
-2.5206e-14
-1.23905e-09
-1.44072e-08
-9.39583e-15
-6.75514e-10
-5.20764e-09
-3.28685e-15
-2.28572e-10
-1.96012e-09
-9.75236e-16
-4.77718e-11
-5.02464e-10
-2.07983e-16
-6.03866e-12
-9.11481e-11
-2.18578e-17
-1.09433e-11
-2.27082e-18
4.80426e-12
-7.54862e-09
-8.19688e-16
2.19671e-10
-2.40731e-08
-3.18665e-15
7.58692e-10
-5.00108e-08
-2.23331e-15
-1.64897e-09
-7.18185e-08
-1.70257e-14
-4.68225e-09
-8.49588e-08
-2.05841e-14
-7.54627e-09
-9.81757e-08
-2.43322e-14
-6.98598e-09
-9.70885e-08
-2.8109e-14
-2.34483e-09
-6.22421e-08
-2.50287e-14
-2.17599e-09
-4.38779e-08
-3.3248e-14
-1.15126e-09
-1.60646e-08
-1.03959e-14
-6.15637e-10
-4.96806e-09
-3.49866e-15
-2.07786e-10
-1.82479e-09
-1.08791e-15
-4.37794e-11
-4.67211e-10
-1.9743e-16
-5.60245e-12
-8.47895e-11
-2.98849e-17
-1.02216e-11
-2.61868e-18
4.43522e-12
-7.55305e-09
-5.72328e-15
1.84558e-10
-2.42532e-08
-3.55639e-15
3.4167e-10
-5.01679e-08
1.40924e-15
-2.18217e-09
-6.92946e-08
-2.20619e-14
-5.0156e-09
-8.21254e-08
-1.23446e-14
-7.69064e-09
-9.55006e-08
-2.2737e-14
-6.92146e-09
-9.78577e-08
-2.40367e-14
-7.8006e-10
-6.83897e-08
-2.04694e-15
-2.16189e-09
-4.35424e-08
-4.42587e-14
-1.04617e-09
-1.84395e-08
-1.2046e-14
-5.50992e-10
-4.83118e-09
-3.29133e-15
-1.87737e-10
-1.70915e-09
-1.13079e-15
-4.00063e-11
-4.39595e-10
-2.07281e-16
-5.18415e-12
-7.99226e-11
-2.97687e-17
-9.65787e-12
-2.84934e-18
4.10487e-12
-7.55717e-09
2.44415e-15
1.59708e-10
-2.44088e-08
-2.7532e-15
1.5394e-11
-5.00236e-08
7.73518e-15
-2.43199e-09
-6.68472e-08
-1.91388e-14
-4.9085e-09
-7.96489e-08
-1.53021e-14
-7.10566e-09
-9.33034e-08
-1.394e-14
-6.19968e-09
-9.87637e-08
-2.83602e-14
8.44711e-10
-7.54354e-08
5.98309e-15
-1.92288e-09
-4.1493e-08
-3.17588e-14
-9.2761e-10
-2.14424e-08
-1.29145e-14
-4.86507e-10
-4.75556e-09
-3.27641e-15
-1.6827e-10
-1.62739e-09
-9.19251e-16
-3.63881e-11
-4.16744e-10
-1.97695e-16
-4.77872e-12
-7.60091e-11
-2.87983e-17
-9.20828e-12
-2.29634e-18
3.87291e-12
-7.56104e-09
-3.70068e-15
1.58078e-10
-2.4563e-08
-6.23729e-15
-2.84792e-10
-4.95807e-08
3.44704e-15
-2.71752e-09
-6.44145e-08
-1.69069e-14
-5.01512e-09
-7.73513e-08
-1.49941e-14
-6.95596e-09
-9.13626e-08
-7.20806e-15
-6.70928e-09
-9.90105e-08
-2.55994e-14
-2.33533e-10
-8.19124e-08
4.27426e-15
-1.65541e-09
-4.0512e-08
-4.28825e-14
-8.3907e-10
-2.51343e-08
-1.52466e-14
-4.31811e-10
-4.94449e-09
-2.87539e-15
-1.50211e-10
-1.58955e-09
-1.0162e-15
-3.29265e-11
-4.03762e-10
-1.9206e-16
-4.38275e-12
-7.34558e-11
-3.12064e-17
-8.90508e-12
-2.56023e-18
3.99206e-12
-7.56504e-09
-2.61583e-15
1.57811e-10
-2.47168e-08
-6.40068e-15
-6.66946e-10
-4.8756e-08
2.45207e-15
-3.21063e-09
-6.18708e-08
-1.46274e-14
-5.55799e-09
-7.50039e-08
-2.11453e-14
-7.68927e-09
-8.92313e-08
-4.76111e-16
-8.72654e-09
-9.79733e-08
-9.5027e-15
-4.25202e-09
-8.63869e-08
-4.22942e-14
-1.39612e-09
-4.35597e-08
-4.43372e-16
-8.03849e-10
-2.93177e-08
-1.34432e-14
-3.80497e-10
-5.78503e-09
-3.35609e-15
-1.33219e-10
-1.56647e-09
-9.96393e-16
-2.96006e-11
-3.97251e-10
-1.73409e-16
-3.9892e-12
-7.20364e-11
-2.15996e-17
-8.69691e-12
-2.70065e-18
4.22827e-12
-7.56926e-09
-6.34097e-15
1.27996e-10
-2.48406e-08
-6.17167e-15
-1.09531e-09
-4.75327e-08
-4.28589e-15
-3.61711e-09
-5.93491e-08
-1.3074e-14
-5.8826e-09
-7.27384e-08
-2.31259e-14
-8.05763e-09
-8.70563e-08
-8.4592e-15
-9.68032e-09
-9.63506e-08
-5.90034e-15
-6.95905e-09
-8.91081e-08
-6.51369e-14
-2.86584e-10
-5.0271e-08
5.74493e-14
-7.81967e-10
-3.21853e-08
-7.21041e-15
-3.23333e-10
-8.04586e-09
-3.52286e-15
-1.15181e-10
-1.61751e-09
-7.69982e-16
-2.61646e-11
-3.99151e-10
-1.83642e-16
-3.57992e-12
-7.17145e-11
-2.55524e-17
-8.60013e-12
-1.89024e-18
4.58287e-12
-7.57385e-09
1.63214e-15
6.70307e-11
-2.4903e-08
-5.74514e-15
-1.39486e-09
-4.60708e-08
-7.15078e-15
-3.54409e-09
-5.71998e-08
-1.46616e-14
-5.35815e-09
-7.09243e-08
-1.04805e-14
-6.90438e-09
-8.551e-08
-1.61239e-14
-7.83093e-09
-9.5424e-08
-2.75236e-14
-5.41873e-09
-9.15202e-08
-3.03886e-14
2.57637e-09
-5.82664e-08
7.34211e-15
-5.19062e-10
-3.10422e-08
6.45384e-15
-2.58133e-10
-1.24008e-08
-3.7321e-15
-9.6687e-11
-1.81941e-09
-9.8614e-16
-2.27198e-11
-4.1829e-10
-1.91994e-16
-3.16333e-12
-7.36274e-11
-1.72162e-17
-8.69082e-12
-2.09026e-18
4.67465e-12
-7.57852e-09
-5.89409e-15
-2.22682e-12
-2.48961e-08
-9.82353e-15
-1.46072e-09
-4.46123e-08
-2.81135e-15
-3.03312e-09
-5.56274e-08
-7.72156e-15
-4.24219e-09
-6.97152e-08
-2.47995e-14
-4.88217e-09
-8.48701e-08
-7.87629e-15
-4.58834e-09
-9.57179e-08
-1.15951e-14
-1.93436e-09
-9.41741e-08
-2.98233e-14
5.12072e-09
-6.53215e-08
-9.78201e-15
6.40341e-10
-2.71536e-08
-1.33408e-14
-1.81649e-10
-1.76343e-08
-8.02221e-15
-7.74278e-11
-2.38636e-09
-8.1469e-16
-1.92984e-11
-4.63365e-10
-1.51428e-16
-2.7448e-12
-7.87957e-11
-2.5786e-17
-9.03783e-12
-2.707e-18
4.50906e-12
-7.58303e-09
-1.99801e-15
-5.86765e-11
-2.48329e-08
-7.38447e-15
-1.3486e-09
-4.33224e-08
-1.09895e-14
-2.43803e-09
-5.4538e-08
-8.74475e-15
-3.19568e-09
-6.89576e-08
-1.65583e-14
-3.23597e-09
-8.48298e-08
-1.3731e-14
-2.14823e-09
-9.68056e-08
-1.67864e-14
3.14051e-10
-9.66364e-08
-5.1976e-15
5.53609e-09
-7.05434e-08
-1.39056e-14
2.50465e-09
-2.4223e-08
-1.39019e-14
-2.73233e-11
-2.06891e-08
-9.51542e-15
-5.28959e-11
-3.99156e-09
-1.53451e-15
-1.5429e-11
-5.55055e-10
-2.28225e-16
-2.30215e-12
-8.86019e-11
-2.61925e-17
-9.73707e-12
-2.75369e-18
3.856e-12
-7.58688e-09
-4.37047e-15
-9.6785e-11
-2.47323e-08
-8.97042e-15
-1.17512e-09
-4.22441e-08
-1.08368e-14
-1.99031e-09
-5.37228e-08
-7.85746e-15
-2.47042e-09
-6.84775e-08
-1.33866e-14
-2.19867e-09
-8.51015e-08
-2.27979e-14
-8.36335e-10
-9.8168e-08
-1.31772e-14
1.31183e-09
-9.87845e-08
-3.30787e-15
5.43053e-09
-7.46622e-08
-1.56356e-14
4.53188e-09
-2.33243e-08
1.29569e-15
1.03061e-09
-2.06838e-08
-1.48245e-14
-1.09686e-11
-7.0468e-09
-3.58658e-15
-9.94917e-12
-7.80713e-10
-3.52146e-16
-1.76881e-12
-1.05115e-10
-2.69787e-17
-1.08679e-11
-3.32034e-18
2.99896e-12
-7.58987e-09
-2.96343e-15
-1.16375e-10
-2.46129e-08
-7.75159e-15
-1.01107e-09
-4.13494e-08
-8.7494e-15
-1.69273e-09
-5.30412e-08
-8.29296e-15
-1.9395e-09
-6.82307e-08
-1.19616e-14
-1.4075e-09
-8.56335e-08
-1.53476e-14
8.94318e-11
-9.9665e-08
-1.57285e-14
2.19383e-09
-1.00889e-07
-1.3472e-16
5.74715e-09
-7.82155e-08
-3.54888e-14
6.57598e-09
-2.41532e-08
-6.73514e-15
2.67388e-09
-1.86128e-08
-1.22954e-14
2.08299e-10
-1.0328e-08
-2.3844e-15
-9.5224e-13
-1.35845e-09
-4.53634e-16
-1.03288e-12
-1.36682e-10
-4.27523e-17
-1.25485e-11
-3.98397e-18
2.21153e-12
-7.59208e-09
-2.50162e-15
-1.21527e-10
-2.44892e-08
-8.95094e-15
-8.86787e-10
-4.05841e-08
-1.23936e-14
-1.48319e-09
-5.24448e-08
-1.02944e-14
-1.46196e-09
-6.8252e-08
-1.51046e-14
-6.39272e-10
-8.64562e-08
-7.4647e-15
1.03684e-09
-1.01341e-07
-1.96608e-14
3.2095e-09
-1.03062e-07
3.35692e-16
6.36921e-09
-8.13751e-08
-3.04825e-14
8.58631e-09
-2.63702e-08
-1.24831e-15
4.51268e-09
-1.54562e-08
-1.38388e-14
8.90289e-10
-1.24102e-08
-4.87648e-15
2.81748e-11
-2.47491e-09
-6.4682e-16
1.08508e-13
-2.04035e-10
-6.89491e-17
-1.54901e-11
-3.31968e-18
1.80954e-12
-7.59389e-09
-1.07739e-15
-1.16487e-10
-2.43709e-08
-9.71168e-15
-8.01692e-10
-3.98989e-08
-6.31331e-15
-1.27887e-09
-5.19676e-08
-5.87742e-15
-9.1774e-10
-6.86131e-08
-7.25441e-15
2.51332e-10
-8.76253e-08
-2.1236e-15
2.17058e-09
-1.0326e-07
-3.08129e-14
4.50046e-09
-1.05392e-07
-7.10317e-15
7.43806e-09
-8.43126e-08
-1.96086e-14
1.05655e-08
-2.94978e-08
2.25657e-15
6.36622e-09
-1.17268e-08
-4.89267e-15
2.0958e-09
-1.2876e-08
-6.08567e-15
1.32645e-10
-3.94793e-09
-1.38966e-15
3.07899e-12
-3.45564e-10
-1.15637e-16
-2.08201e-11
-5.35094e-18
1.82018e-12
-7.59571e-09
-2.64071e-15
-1.08033e-10
-2.4261e-08
-1.17554e-14
-7.39349e-10
-3.92676e-08
-8.19068e-15
-9.99578e-10
-5.17074e-08
-7.85428e-15
-2.2453e-10
-6.93882e-08
-7.8181e-15
1.33535e-09
-8.91853e-08
-1.31895e-14
3.55618e-09
-1.05481e-07
-2.66132e-14
6.09907e-09
-1.07934e-07
-4.94765e-15
8.93632e-09
-8.71497e-08
-7.49243e-15
1.24872e-08
-3.30486e-08
-6.77452e-15
8.13202e-09
-7.62455e-09
-2.58406e-14
3.6067e-09
-1.19731e-08
-5.03218e-15
4.03881e-10
-5.31235e-09
-1.88153e-15
1.09429e-11
-5.9445e-10
-1.57711e-16
-3.05761e-11
-7.30763e-18
2.37035e-12
-7.59808e-09
-1.97578e-15
-1.00595e-10
-2.4158e-08
-4.57568e-15
-6.65576e-10
-3.87027e-08
-1.13963e-14
-5.88715e-10
-5.17843e-08
-3.94435e-15
6.18778e-10
-7.05957e-08
-3.48109e-15
2.55579e-09
-9.11223e-08
-1.20119e-14
5.06519e-09
-1.0799e-07
-2.76946e-14
7.79016e-09
-1.10659e-07
-1.83494e-14
1.0544e-08
-8.99035e-08
-4.89741e-15
1.41713e-08
-3.66759e-08
-6.19611e-15
9.71415e-09
-3.30834e-09
-4.63666e-15
5.12486e-09
-1.00717e-08
-5.67209e-15
8.94455e-10
-6.19946e-09
-2.31904e-15
3.12184e-11
-9.33926e-10
-2.30385e-16
-4.72235e-11
-1.09668e-17
3.25783e-12
-7.60134e-09
6.29854e-17
-9.77653e-11
-2.4057e-08
-1.15843e-14
-5.55049e-10
-3.82454e-08
-1.01465e-14
-6.08199e-11
-5.22785e-08
-6.80435e-15
1.50962e-09
-7.21661e-08
-4.69833e-15
3.73846e-09
-9.33512e-08
-9.03833e-15
6.42764e-09
-1.1068e-07
-2.39225e-14
9.21812e-09
-1.1345e-07
-1.74665e-14
1.17974e-08
-9.24828e-08
-9.55023e-16
1.52788e-08
-4.01574e-08
1.39381e-14
1.09884e-08
9.03211e-10
-2.85414e-14
6.42319e-09
-7.47596e-09
-1.03869e-14
1.55432e-09
-6.49016e-09
-3.07871e-15
7.37204e-11
-1.29604e-09
-4.35285e-16
-7.16105e-11
-1.97185e-17
4.34667e-12
-7.60568e-09
-2.04625e-15
-9.73845e-11
-2.39552e-08
-4.47108e-15
-3.95859e-10
-3.79469e-08
-1.19567e-14
5.06108e-10
-5.31805e-08
-6.78946e-15
2.3059e-09
-7.39659e-08
-4.47252e-15
4.67002e-09
-9.57154e-08
-9.26484e-15
7.36577e-09
-1.13375e-07
-1.78637e-14
1.00472e-08
-1.16131e-07
-1.49545e-14
1.22836e-08
-9.47192e-08
-2.85595e-15
1.54392e-08
-4.33131e-08
-1.07886e-15
1.17646e-08
4.5352e-09
-2.34085e-14
7.35913e-09
-4.48948e-09
-4.84881e-16
2.26047e-09
-6.24417e-09
-2.20469e-15
1.43578e-10
-1.60627e-09
-5.21596e-16
-1.01448e-10
-2.40399e-17
5.3553e-12
-7.61104e-09
-7.66467e-16
-9.56107e-11
-2.38543e-08
-6.39127e-15
-1.9799e-10
-3.78446e-08
-9.8803e-15
1.00037e-09
-5.43789e-08
-5.2729e-15
2.86913e-09
-7.58347e-08
-5.56549e-15
5.18167e-09
-9.80279e-08
-1.35638e-14
7.70034e-09
-1.15894e-07
-1.75243e-14
1.00842e-08
-1.18515e-07
-1.00829e-14
1.18054e-08
-9.64403e-08
-4.15096e-15
1.44406e-08
-4.59484e-08
-1.76364e-14
1.18401e-08
7.11294e-09
1.32689e-14
7.85318e-09
-1.49878e-09
-6.59292e-15
2.88505e-09
-5.60632e-09
-3.31848e-15
2.35715e-10
-1.81924e-09
-6.47782e-16
-1.32212e-10
-4.5478e-17
6.09352e-12
-7.61713e-09
-3.49947e-15
-8.75416e-11
-2.37606e-08
-5.56375e-15
1.73797e-11
-3.79495e-08
-7.3758e-15
1.34643e-09
-5.57079e-08
-5.48297e-15
3.12883e-09
-7.76172e-08
3.937e-16
5.22724e-09
-1.00126e-07
-1.00658e-14
7.42689e-09
-1.18094e-07
-1.49829e-14
9.36996e-09
-1.20458e-07
-1.02506e-14
1.0483e-08
-9.75534e-08
-2.14414e-14
1.24405e-08
-4.79058e-08
-2.07834e-14
1.1153e-08
8.40042e-09
1.34618e-14
7.89466e-09
1.07498e-09
-2.06497e-15
3.34062e-09
-4.75097e-09
-2.64706e-15
3.36966e-10
-1.92395e-09
-6.17502e-16
-1.5961e-10
-5.47722e-17
6.59851e-12
-7.62373e-09
1.28535e-15
-7.17992e-11
-2.36822e-08
-7.73631e-15
2.19182e-10
-3.82405e-08
-4.73194e-15
1.52012e-09
-5.70089e-08
-8.61919e-15
3.10231e-09
-7.91994e-08
-9.19772e-15
4.8857e-09
-1.0191e-07
-1.22464e-14
6.69662e-09
-1.19904e-07
-6.22371e-15
8.14722e-09
-1.21909e-07
-1.11256e-14
8.67823e-09
-9.80843e-08
-1.55385e-14
9.91685e-09
-4.91444e-08
2.07492e-16
9.85222e-09
8.465e-09
1.37016e-14
7.54723e-09
2.92975e-09
6.23946e-15
3.59464e-09
-3.84095e-09
-1.72105e-16
4.32975e-10
-1.93191e-09
-5.3409e-16
-1.81289e-10
-5.10068e-17
6.79707e-12
-7.63052e-09
-2.69021e-15
-5.07134e-11
-2.36247e-08
-8.67246e-15
3.75172e-10
-3.86664e-08
-1.8797e-15
1.53937e-09
-5.81731e-08
-7.85047e-15
2.86879e-09
-8.05288e-08
-8.30153e-15
4.31075e-09
-1.03352e-07
-1.18125e-14
5.7399e-09
-1.21334e-07
-1.03549e-14
6.74898e-09
-1.22918e-07
-9.95903e-15
6.83329e-09
-9.81686e-08
-2.42708e-14
7.44088e-09
-4.9752e-08
7.57947e-15
8.31015e-09
7.5957e-09
6.87922e-15
6.94055e-09
4.00556e-09
6.75182e-15
3.66036e-09
-2.99222e-09
2.70752e-17
5.13761e-10
-1.86299e-09
-5.44258e-16
-1.96772e-10
-6.84578e-17
6.93133e-12
-7.63746e-09
5.17315e-16
-2.7458e-11
-2.35903e-08
-8.62687e-15
4.67071e-10
-3.9161e-08
-5.96513e-15
1.44793e-09
-5.91539e-08
-7.02873e-15
2.52518e-09
-8.16061e-08
-2.14394e-15
3.65814e-09
-1.04485e-07
-1.07258e-14
4.76802e-09
-1.22443e-07
-1.05477e-14
5.45315e-09
-1.23603e-07
-1.2472e-14
5.27612e-09
-9.79915e-08
-1.69408e-14
5.41411e-09
-4.989e-08
-5.59914e-15
6.87229e-09
6.13742e-09
-7.61201e-15
6.22221e-09
4.46204e-09
4.41656e-15
3.57806e-09
-2.25644e-09
7.09252e-16
5.74845e-10
-1.73636e-09
-4.59709e-16
-2.06413e-10
-5.93489e-17
7.03931e-12
-7.64449e-09
-3.30614e-15
-4.02655e-12
-2.35792e-08
-7.65895e-15
4.97336e-10
-3.96623e-08
-6.92018e-15
1.29622e-09
-5.99528e-08
-7.20049e-15
2.15392e-09
-8.24638e-08
-3.97958e-15
3.03998e-09
-1.05371e-07
-1.35363e-14
3.9144e-09
-1.23318e-07
-1.84965e-14
4.40407e-09
-1.24093e-07
-9.73915e-15
4.12945e-09
-9.77168e-08
-2.06626e-14
3.98033e-09
-4.97408e-08
-1.56427e-15
5.71567e-09
4.40196e-09
-1.20941e-14
5.50423e-09
4.54288e-09
1.16156e-15
3.39534e-09
-1.63305e-09
8.69864e-16
6.15553e-10
-1.56644e-09
-4.16382e-16
-2.10307e-10
-6.92022e-17
7.28374e-12
-7.65178e-09
-6.2901e-16
1.88918e-11
-2.35908e-08
-5.79955e-15
4.82954e-10
-4.01264e-08
-8.0232e-15
1.12735e-09
-6.05973e-08
-8.44169e-15
1.80933e-09
-8.31458e-08
-5.48263e-15
2.51428e-09
-1.06076e-07
-1.02323e-14
3.23082e-09
-1.24034e-07
-5.36828e-15
3.62682e-09
-1.24489e-07
-1.11669e-14
3.3606e-09
-9.74506e-08
3.49171e-15
3.0695e-09
-4.94497e-08
-6.31677e-15
4.84586e-09
2.62562e-09
-9.13543e-15
4.84351e-09
4.45439e-09
5.78388e-16
3.15256e-09
-1.09809e-09
2.21613e-15
6.36521e-10
-5.95661e-16
-8.70065e-17
7.59335e-12
-7.65936e-09
-3.09813e-15
4.0916e-11
-2.36242e-08
-5.4771e-15
4.44957e-10
-4.05304e-08
-9.22392e-15
9.69603e-10
-6.11219e-08
-9.09898e-15
1.51697e-09
-8.36932e-08
-8.38368e-15
2.09499e-09
-1.06654e-07
-1.4345e-14
2.7114e-09
-1.24651e-07
-1.07723e-14
3.07737e-09
-1.24855e-07
-1.31433e-14
2.86652e-09
-9.72398e-08
2.33923e-15
2.51111e-09
-4.90943e-08
-8.79266e-15
4.1726e-09
9.64072e-10
-2.88506e-14
4.25098e-09
4.3107e-09
3.62073e-16
-6.29717e-10
2.21347e-15
8.00971e-12
-7.66737e-09
-1.33009e-15
6.09206e-11
-2.36771e-08
-3.7186e-15
3.99849e-10
-4.08693e-08
-1.05057e-14
8.35594e-10
-6.15577e-08
-8.30176e-15
1.28108e-09
-8.41387e-08
-6.76903e-15
1.77011e-09
-1.07143e-07
-1.49007e-14
2.32287e-09
-1.25203e-07
-8.0677e-15
2.68806e-09
-1.2522e-07
-8.93322e-15
2.53575e-09
-9.70875e-08
-5.61231e-15
2.12796e-09
-4.86865e-08
3.15946e-16
3.59064e-09
-4.98644e-10
-1.54119e-14
3.71218e-09
4.14041e-09
-4.54917e-15
-2.21212e-10
1.72396e-15
8.47582e-12
-7.67585e-09
-2.90585e-15
7.70713e-11
-2.37457e-08
-6.26187e-15
3.57218e-10
-4.11495e-08
-4.70226e-15
7.27034e-10
-6.19275e-08
-5.70854e-15
1.09442e-09
-8.45061e-08
-9.51513e-15
1.51804e-09
-1.07567e-07
-1.72002e-14
2.0276e-09
-1.25713e-07
-1.22235e-14
2.4002e-09
-1.25593e-07
-7.97425e-15
2.29234e-09
-9.69797e-08
-6.54077e-15
1.8137e-09
-4.82079e-08
-1.61185e-15
3.03377e-09
-1.71877e-09
-9.3253e-15
3.20946e-09
3.9268e-09
7.00076e-17
1.21022e-10
1.66366e-15
8.98852e-12
-7.68483e-09
-1.9718e-15
8.75509e-11
-2.38242e-08
-4.1345e-15
3.20079e-10
-4.1382e-08
-1.05166e-14
6.39362e-10
-6.22468e-08
-1.03858e-14
9.4568e-10
-8.48124e-08
-1.23287e-14
1.3179e-09
-1.07939e-07
-1.56576e-14
1.79544e-09
-1.26191e-07
-3.43561e-15
2.17405e-09
-1.25971e-07
-1.23545e-14
2.0932e-09
-9.68988e-08
-1.48915e-14
1.5097e-09
-4.76244e-08
-2.98732e-16
2.47793e-09
-2.68707e-09
-1.1838e-14
2.72828e-09
3.64536e-09
-4.91888e-15
3.83346e-10
1.93455e-15
9.45222e-12
-7.69428e-09
-2.61838e-15
9.14354e-11
-2.39062e-08
-6.79003e-15
2.88688e-10
-4.15793e-08
-4.29069e-15
5.67355e-10
-6.25255e-08
-6.78838e-15
8.24597e-10
-8.50697e-08
-1.09893e-14
1.15399e-09
-1.08268e-07
-1.37078e-14
1.60636e-09
-1.26643e-07
-8.86311e-15
1.98931e-09
-1.26354e-07
-1.35589e-14
1.92934e-09
-9.68388e-08
-8.41062e-15
1.22299e-09
-4.69181e-08
-1.83308e-15
1.9223e-09
-3.38642e-09
-1.10328e-14
2.26022e-09
3.28149e-09
-9.70538e-16
5.5562e-10
1.82979e-15
9.78295e-12
-7.70407e-09
-1.91137e-15
8.88926e-11
-2.39853e-08
-5.32753e-15
2.61552e-10
-4.17519e-08
-7.1982e-15
5.05961e-10
-6.27699e-08
-8.69621e-15
7.22579e-10
-8.52863e-08
-8.65088e-15
1.01493e-09
-1.08561e-07
-1.43143e-14
1.44693e-09
-1.27075e-07
-1.07836e-14
1.83227e-09
-1.2674e-07
-7.24614e-15
1.78757e-09
-9.67941e-08
-6.72277e-15
9.26719e-10
-4.60572e-08
-3.67415e-16
1.35119e-09
-3.81092e-09
-5.95527e-15
1.78493e-09
2.8248e-09
4.82335e-15
6.2837e-10
2.7495e-15
9.86917e-12
-7.71394e-09
-2.76046e-15
8.11348e-11
-2.40566e-08
-6.71457e-15
2.37485e-10
-4.19083e-08
-5.92473e-15
4.51725e-10
-6.29841e-08
-6.66179e-15
6.33045e-10
-8.54676e-08
-9.22028e-15
8.92634e-10
-1.0882e-07
-1.44911e-14
1.30884e-09
-1.27491e-07
-1.63536e-14
1.69941e-09
-1.2713e-07
-9.12864e-15
1.68187e-09
-9.67766e-08
-3.59246e-15
6.72021e-10
-4.50473e-08
-1.45581e-15
7.48004e-10
-3.88691e-09
-4.27116e-15
1.28411e-09
2.27035e-09
2.77333e-15
6.06665e-10
1.54724e-15
9.59826e-12
-7.72354e-09
-1.83108e-15
6.96892e-11
-2.41167e-08
-5.83059e-15
2.14978e-10
-4.20536e-08
-6.7043e-15
4.01238e-10
-6.31704e-08
-7.64366e-15
5.49903e-10
-8.56163e-08
-1.13883e-14
7.79522e-10
-1.0905e-07
-1.27145e-14
1.18267e-09
-1.27894e-07
-1.17548e-14
1.57992e-09
-1.27528e-07
-1.30467e-14
1.59083e-09
-9.67875e-08
-7.0435e-15
4.05322e-10
-4.38619e-08
1.35594e-14
1.02656e-10
-3.58397e-09
-4.8118e-14
7.23198e-10
1.63773e-09
-1.29602e-14
4.92732e-10
1.0985e-15
8.79903e-12
-7.73234e-09
-2.45168e-15
5.60408e-11
-2.41639e-08
-6.33839e-15
1.93089e-10
-4.21906e-08
-6.38075e-15
3.51955e-10
-6.33293e-08
-7.60081e-15
4.68149e-10
-8.57325e-08
-1.22936e-14
6.68948e-10
-1.09251e-07
-1.416e-14
1.05993e-09
-1.28285e-07
-1.27933e-14
1.47273e-09
-1.2794e-07
-1.31176e-14
1.55741e-09
-9.68721e-08
-6.06454e-15
3.50945e-10
-4.26554e-08
2.93833e-16
-5.06988e-10
-2.72508e-09
-1.60182e-14
1.10348e-10
1.01881e-09
-3.42579e-15
3.1133e-10
4.25852e-16
7.41099e-12
-7.73975e-09
-2.15134e-15
4.10892e-11
-2.41976e-08
-6.75668e-15
1.70021e-10
-4.23195e-08
-6.22213e-15
2.99403e-10
-6.34587e-08
-7.30201e-15
3.79789e-10
-8.58129e-08
-1.26193e-14
5.48514e-10
-1.09419e-07
-1.54711e-14
9.1973e-10
-1.28656e-07
-1.42603e-14
1.33461e-09
-1.28355e-07
-1.00662e-14
1.43588e-09
-9.69734e-08
-8.83334e-15
2.65583e-10
-4.14851e-08
-5.50944e-15
-8.47621e-10
-1.60468e-09
1.97662e-14
-2.97892e-10
4.8243e-10
6.52961e-15
1.50904e-10
1.32936e-15
5.4195e-12
-7.74517e-09
-2.68452e-15
2.51838e-11
-2.42173e-08
-6.60428e-15
1.43529e-10
-4.24379e-08
-6.93837e-15
2.37826e-10
-6.3553e-08
-7.30467e-15
2.73537e-10
-8.58486e-08
-1.37251e-14
3.97438e-10
-1.09543e-07
-1.54026e-14
7.33741e-10
-1.28993e-07
-1.31882e-14
1.15973e-09
-1.28781e-07
-1.24544e-14
1.33217e-09
-9.71458e-08
-9.61277e-15
5.83818e-10
-4.07367e-08
-3.43549e-15
-1.00414e-09
-9.43424e-16
-4.3385e-10
-8.34109e-16
4.93498e-16
3.23866e-12
-7.74841e-09
-2.46917e-15
1.03704e-11
-2.42245e-08
-7.18934e-15
1.16155e-10
-4.25436e-08
-6.02226e-15
1.71003e-10
-6.36078e-08
-6.71752e-15
1.53355e-10
-8.58309e-08
-1.29548e-14
2.11159e-10
-1.09601e-07
-1.53499e-14
4.62206e-10
-1.29244e-07
-1.12916e-14
7.67694e-10
-1.29087e-07
-1.29361e-14
6.10183e-10
-9.69883e-08
-7.48697e-15
-4.01265e-08
-7.82629e-15
1.48002e-12
-7.74989e-09
-2.66036e-15
2.55944e-13
-2.42232e-08
-6.84109e-15
9.58223e-11
-4.26392e-08
-5.41122e-15
1.16867e-10
-6.36289e-08
-8.20769e-15
5.76446e-11
-8.57717e-08
-1.34534e-14
7.16953e-11
-1.09615e-07
-1.48136e-14
2.81193e-10
-1.29453e-07
-1.11404e-14
5.4356e-10
-1.29349e-07
-1.27099e-14
3.15726e-10
-9.67604e-08
-7.3998e-15
-3.98108e-08
-2.75813e-15
2.80159e-13
-7.75017e-09
-2.44084e-15
-4.27904e-12
-2.42187e-08
-7.00415e-15
8.36167e-11
-4.27271e-08
-4.90931e-15
7.73215e-11
-6.36226e-08
-9.74596e-15
-1.09169e-11
-8.56835e-08
-1.38102e-14
-1.77241e-11
-1.09608e-07
-1.34881e-14
1.87505e-10
-1.29658e-07
-1.33268e-14
4.75949e-10
-1.29637e-07
-1.03341e-14
3.4008e-10
-9.66246e-08
-6.84184e-15
-3.94706e-08
-3.65237e-15
-4.0592e-13
-7.74977e-09
-2.59789e-15
-3.69312e-12
-2.42154e-08
-6.7334e-15
7.80746e-11
-4.28089e-08
-5.25457e-15
4.91418e-11
-6.35937e-08
-9.85318e-15
-5.96932e-11
-8.55747e-08
-1.44417e-14
-7.64504e-11
-1.09591e-07
-1.41444e-14
1.32043e-10
-1.29867e-07
-9.70106e-15
4.42041e-10
-1.29947e-07
-3.82284e-15
3.26481e-10
-9.6509e-08
-3.65371e-16
-3.91442e-08
1.27154e-14
-6.49207e-13
-7.74912e-09
-2.65304e-15
1.10981e-12
-2.42171e-08
-6.91458e-15
7.74027e-11
-4.28851e-08
-4.3509e-15
2.9464e-11
-6.35457e-08
-1.13276e-14
-9.26623e-11
-8.54525e-08
-1.34711e-14
-1.10659e-10
-1.09573e-07
-7.88713e-15
1.08204e-10
-1.30086e-07
-2.45819e-14
4.43113e-10
-1.30282e-07
-1.72058e-14
3.43591e-10
-9.64095e-08
-1.42388e-14
-3.88006e-08
-1.72194e-14
-5.56652e-13
-7.74857e-09
-2.81133e-15
8.68056e-12
-2.42264e-08
-6.81061e-15
7.91302e-11
-4.29556e-08
-5.4254e-15
1.46358e-11
-6.34812e-08
-1.09396e-14
-1.15036e-10
-8.53229e-08
-1.15709e-14
-1.29175e-10
-1.09559e-07
-6.33938e-15
1.01878e-10
-1.30317e-07
-2.15195e-14
4.58501e-10
-1.30639e-07
-1.06753e-14
3.64228e-10
-9.63152e-08
-7.11879e-15
-3.84364e-08
-9.08621e-16
-1.99564e-13
-7.74837e-09
-2.79682e-15
1.73831e-11
-2.42439e-08
-6.44611e-15
8.1147e-11
-4.30194e-08
-4.39751e-15
2.0804e-12
-6.34022e-08
-9.67226e-15
-1.30163e-10
-8.51906e-08
-1.68814e-14
-1.36932e-10
-1.09553e-07
-1.84399e-14
1.07768e-10
-1.30561e-07
-1.36768e-14
4.8512e-10
-1.31016e-07
-7.66153e-15
3.923e-10
-9.62224e-08
-5.52975e-15
-3.80441e-08
-1.6143e-15
3.39487e-13
-7.74871e-09
-2.85476e-15
2.54876e-11
-2.42691e-08
-6.9267e-15
8.16946e-11
-4.30756e-08
-4.8701e-15
-1.00532e-11
-6.33104e-08
-7.40472e-15
-1.40501e-10
-8.50602e-08
-1.43897e-14
-1.37666e-10
-1.09555e-07
-1.50359e-14
1.21294e-10
-1.3082e-07
-1.34005e-14
5.18308e-10
-1.31413e-07
-1.00418e-14
4.23835e-10
-9.61279e-08
-7.60904e-15
-3.76202e-08
-1.39103e-15
1.0074e-12
-7.74972e-09
-2.94284e-15
3.13916e-11
-2.42995e-08
-6.08711e-15
7.93672e-11
-4.31235e-08
-5.56159e-15
-2.29823e-11
-6.32081e-08
-1.303e-14
-1.4766e-10
-8.49355e-08
-1.4101e-14
-1.33737e-10
-1.09569e-07
-1.50565e-14
1.40158e-10
-1.31094e-07
-1.30691e-14
5.56371e-10
-1.3183e-07
-9.88822e-15
4.58635e-10
-9.60302e-08
-5.11973e-15
-3.71616e-08
-2.13242e-15
1.75991e-12
-7.75148e-09
-2.97928e-15
3.39687e-11
-2.43317e-08
-6.65281e-15
7.3425e-11
-4.3163e-08
-5.37241e-15
-3.71233e-11
-6.30975e-08
-1.19107e-14
-1.52683e-10
-8.482e-08
-1.43281e-14
-1.2677e-10
-1.09595e-07
-1.32702e-14
1.62784e-10
-1.31384e-07
-1.26123e-14
5.98139e-10
-1.32265e-07
-1.17762e-14
4.9597e-10
-9.5928e-08
-6.58744e-15
-3.66656e-08
-1.88141e-15
2.56658e-12
-7.75404e-09
-3.04189e-15
3.27396e-11
-2.43618e-08
-6.85001e-15
6.37898e-11
-4.31941e-08
-5.78957e-15
-5.22618e-11
-6.29815e-08
-1.15007e-14
-1.55753e-10
-8.47165e-08
-1.43086e-14
-1.17203e-10
-1.09634e-07
-1.31919e-14
1.88785e-10
-1.3169e-07
-1.31043e-14
6.4354e-10
-1.3272e-07
-1.23709e-14
5.36086e-10
-9.58205e-08
-7.47631e-15
-3.61295e-08
-2.41565e-15
3.41089e-12
-7.75745e-09
-3.06341e-15
2.81165e-11
-2.43865e-08
-7.36546e-15
5.11584e-11
-4.32171e-08
-5.78605e-15
-6.75981e-11
-6.28627e-08
-1.24186e-14
-1.56593e-10
-8.46275e-08
-1.45248e-14
-1.04704e-10
-1.09686e-07
-1.35453e-14
2.18569e-10
-1.32013e-07
-1.22876e-14
6.93145e-10
-1.33194e-07
-1.2353e-14
5.7952e-10
-9.57069e-08
-7.25889e-15
-3.555e-08
-2.51149e-15
4.28677e-12
-7.76174e-09
-3.1275e-15
2.12937e-11
-2.44036e-08
-7.97994e-15
3.68152e-11
-4.32326e-08
-6.15092e-15
-8.17538e-11
-6.27442e-08
-1.2886e-14
-1.5436e-10
-8.45549e-08
-1.45707e-14
-8.81603e-11
-1.09752e-07
-1.36986e-14
2.53304e-10
-1.32354e-07
-1.34804e-14
7.48189e-10
-1.33689e-07
-1.32712e-14
6.2723e-10
-9.55859e-08
-8.8442e-15
-3.49228e-08
2.70034e-16
5.209e-12
-7.76694e-09
-3.1411e-15
1.41043e-11
-2.44124e-08
-8.52338e-15
2.25725e-11
-4.32411e-08
-6.56049e-15
-9.28924e-11
-6.26287e-08
-1.30243e-14
-1.47655e-10
-8.45001e-08
-1.49276e-14
-6.58119e-11
-1.09834e-07
-1.56687e-14
2.94807e-10
-1.32715e-07
-1.49166e-14
8.10346e-10
-1.34205e-07
-1.91524e-14
6.80182e-10
-9.54557e-08
-2.2887e-14
-3.42425e-08
-5.37934e-15
6.19929e-12
-7.77314e-09
-3.38319e-15
8.64647e-12
-2.44149e-08
-8.93803e-15
1.03543e-11
-4.32428e-08
-7.46295e-15
-9.91019e-11
-6.25193e-08
-1.33151e-14
-1.34779e-10
-8.44644e-08
-1.51303e-14
-3.53053e-11
-1.09933e-07
-1.91323e-14
3.45344e-10
-1.33096e-07
-4.75371e-15
8.8161e-10
-1.34741e-07
-4.35969e-15
7.39384e-10
-9.53135e-08
-1.27943e-15
-3.35031e-08
6.65908e-15
7.29217e-12
-7.78043e-09
-3.39877e-15
6.98206e-12
-2.44146e-08
-9.32307e-15
2.05723e-12
-4.32379e-08
-8.32418e-15
-9.84821e-11
-6.24187e-08
-1.33824e-14
-1.14023e-10
-8.44489e-08
-1.56625e-14
5.13779e-12
-1.10053e-07
-2.02917e-14
4.07215e-10
-1.33498e-07
-5.17765e-15
9.64421e-10
-1.35298e-07
-7.51222e-15
8.06705e-10
-9.51558e-08
-2.2561e-15
-3.26964e-08
-8.01778e-15
8.51748e-12
-7.78895e-09
-3.55701e-15
1.07278e-11
-2.44168e-08
-9.84368e-15
-7.93562e-13
-4.32264e-08
-8.37103e-15
-8.9329e-11
-6.23302e-08
-1.3751e-14
-8.31003e-11
-8.44551e-08
-1.51809e-14
5.86077e-11
-1.10194e-07
-1.94792e-14
4.83537e-10
-1.33923e-07
-5.26365e-15
1.06125e-09
-1.35876e-07
-1.02283e-14
8.83601e-10
-9.49781e-08
-8.49916e-15
-3.18128e-08
-3.68984e-16
9.91787e-12
-7.79886e-09
-3.59809e-15
2.08197e-11
-2.44277e-08
-1.00016e-14
2.65328e-12
-4.32082e-08
-9.2769e-15
-7.06765e-11
-6.22569e-08
-1.41e-14
-4.08222e-11
-8.4485e-08
-1.57611e-14
1.25952e-10
-1.10361e-07
-2.02092e-14
5.76033e-10
-1.34373e-07
-6.18225e-15
1.17361e-09
-1.36473e-07
-1.28905e-14
9.70792e-10
-9.47753e-08
-8.18182e-15
-3.0842e-08
1.29489e-15
1.15264e-11
-7.81039e-09
-3.9805e-15
3.7195e-11
-2.44534e-08
-9.89716e-15
1.24168e-11
-4.31834e-08
-1.03088e-14
-4.20757e-11
-6.22024e-08
-1.55017e-14
1.3709e-11
-8.45408e-08
-1.10602e-14
2.08813e-10
-1.10556e-07
-1.10173e-14
6.86029e-10
-1.3485e-07
-1.01552e-14
1.30289e-09
-1.3709e-07
-1.15234e-14
1.06925e-09
-9.45416e-08
-6.05455e-15
-2.97728e-08
-3.60029e-15
1.33684e-11
-7.82375e-09
-4.04167e-15
5.87042e-11
-2.44987e-08
-9.80039e-15
2.76012e-11
-4.31523e-08
-1.10194e-14
-4.24178e-12
-6.21706e-08
-1.60879e-14
7.95035e-11
-8.46245e-08
-1.15359e-14
3.07336e-10
-1.10784e-07
-1.20416e-14
8.14305e-10
-1.35357e-07
-1.18706e-14
1.44989e-09
-1.37726e-07
-1.24125e-14
1.17939e-09
-9.42711e-08
-7.05221e-15
-2.85934e-08
-2.58484e-15
1.54399e-11
-7.83919e-09
-4.34645e-15
8.31538e-11
-2.45664e-08
-9.77677e-15
4.68269e-11
-4.3116e-08
-1.10728e-14
4.23208e-11
-6.21661e-08
-1.558e-14
1.56948e-10
-8.47392e-08
-1.11226e-14
4.21027e-10
-1.11048e-07
-1.22204e-14
9.60806e-10
-1.35897e-07
-1.21087e-14
1.61486e-09
-1.3838e-07
-1.20662e-14
1.30153e-09
-9.39578e-08
-6.70663e-15
-2.72919e-08
-4.03706e-15
1.7727e-11
-7.85692e-09
-4.44242e-15
1.07458e-10
-2.46561e-08
-1.00292e-14
6.80311e-11
-4.30766e-08
-1.17091e-14
9.54482e-11
-6.21935e-08
-1.66608e-14
2.44644e-10
-8.48884e-08
-1.17385e-14
5.48507e-10
-1.11352e-07
-1.28301e-14
1.1246e-09
-1.36473e-07
-1.2856e-14
1.79747e-09
-1.39053e-07
-1.26916e-14
1.43574e-09
-9.35961e-08
-5.6929e-15
-2.58561e-08
-3.31993e-15
2.0168e-11
-7.87709e-09
-5.1613e-15
1.28153e-10
-2.47641e-08
-7.9769e-15
8.91326e-11
-4.30376e-08
-1.2242e-14
1.53198e-10
-6.22575e-08
-1.5873e-14
3.40504e-10
-8.50757e-08
-1.08964e-14
6.87703e-10
-1.11699e-07
-1.31174e-14
1.30411e-09
-1.37089e-07
-1.31228e-14
1.99694e-09
-1.39746e-07
-1.2058e-14
1.58204e-09
-9.31811e-08
-4.64119e-15
-2.42741e-08
1.94067e-16
2.26726e-11
-7.89976e-09
-5.2928e-15
1.42075e-10
-2.48835e-08
-9.34628e-15
1.08607e-10
-4.30041e-08
-1.3488e-14
2.13671e-10
-6.23626e-08
-1.67589e-14
4.42259e-10
-8.53043e-08
-1.13098e-14
8.35974e-10
-1.12093e-07
-1.31616e-14
1.49694e-09
-1.3775e-07
-1.28842e-14
2.21195e-09
-1.40461e-07
-1.24746e-14
1.74044e-09
-9.27096e-08
-4.97878e-15
-2.25337e-08
-1.05101e-15
2.50915e-11
-7.92485e-09
-5.80791e-15
1.47e-10
-2.50054e-08
-9.81965e-15
1.25581e-10
-4.29827e-08
-1.14401e-14
2.74742e-10
-6.25117e-08
-1.2239e-14
5.46871e-10
-8.55764e-08
-1.48244e-14
9.89731e-10
-1.12536e-07
-1.33974e-14
1.69952e-09
-1.3846e-07
-1.41607e-14
2.44036e-09
-1.41202e-07
-1.43661e-14
1.91096e-09
-9.21802e-08
-4.01937e-15
-2.06227e-08
-4.79021e-16
2.72294e-11
-7.95208e-09
-6.01731e-15
1.42016e-10
-2.51202e-08
-1.19335e-14
1.39735e-10
-4.29804e-08
-1.26016e-14
3.34037e-10
-6.2706e-08
-1.20467e-14
6.5034e-10
-8.58927e-08
-1.47967e-14
1.14379e-09
-1.13029e-07
-1.34707e-14
1.90631e-09
-1.39222e-07
-1.33872e-14
2.67869e-09
-1.41974e-07
-1.51237e-14
2.09361e-09
-9.15951e-08
-5.4662e-15
-1.85291e-08
-2.69824e-15
2.87825e-11
-7.98086e-09
-6.84742e-15
1.27495e-10
-2.52189e-08
-1.21012e-14
1.50687e-10
-4.30036e-08
-1.21203e-14
3.88018e-10
-6.29434e-08
-1.22052e-14
7.46366e-10
-8.62511e-08