/*--------------------------------*- C++ -*----------------------------------*\
| =========                 |                                                 |
| \\      /  F ield         | OpenFOAM: The Open Source CFD Toolbox           |
|  \\    /   O peration     | Version:  v2012                                 |
|   \\  /    A nd           | Website:  www.openfoam.com                      |
|    \\/     M anipulation  |                                                 |
\*---------------------------------------------------------------------------*/
FoamFile
{
    version     2.0;
    format      ascii;
    class       volScalarField;
    location    "0.6";
    object      p_rgh;
}
// * * * * * * * * * * * * * * * * * * * * * * * * * * * * * * * * * * * * * //

dimensions      [1 -1 -2 0 0 0 0];


internalField   nonuniform List<scalar> 
3332
(
3.56664e+06
3.54106e+06
3.56547e+06
3.54241e+06
3.55037e+06
3.53155e+06
3.53572e+06
3.51398e+06
3.59863e+06
3.57561e+06
3.59665e+06
3.57572e+06
3.58131e+06
3.56873e+06
3.5662e+06
3.55929e+06
3.54796e+06
3.51134e+06
3.50473e+06
3.50788e+06
3.50549e+06
3.50442e+06
3.50191e+06
3.62933e+06
3.61307e+06
3.62747e+06
3.61242e+06
3.6158e+06
3.61121e+06
3.60633e+06
3.61377e+06
3.59936e+06
3.55172e+06
3.52185e+06
3.52417e+06
3.51505e+06
3.51264e+06
3.50766e+06
3.65559e+06
3.64572e+06
3.65422e+06
3.64549e+06
3.64667e+06
3.64877e+06
3.64169e+06
3.66162e+06
3.6395e+06
3.5929e+06
3.53848e+06
3.5412e+06
3.52516e+06
3.52144e+06
3.51384e+06
3.67669e+06
3.67137e+06
3.6755e+06
3.67108e+06
3.66952e+06
3.6733e+06
3.66192e+06
3.68811e+06
3.65348e+06
3.62358e+06
3.55289e+06
3.55638e+06
3.53544e+06
3.53021e+06
3.5203e+06
3.69398e+06
3.69554e+06
3.69341e+06
3.69294e+06
3.68828e+06
3.68962e+06
3.67781e+06
3.69542e+06
3.6602e+06
3.64469e+06
3.57347e+06
3.56944e+06
3.54715e+06
3.53879e+06
3.52711e+06
3.7091e+06
3.72183e+06
3.7101e+06
3.71557e+06
3.70856e+06
3.70937e+06
3.70379e+06
3.70768e+06
3.6947e+06
3.67959e+06
3.61125e+06
3.58385e+06
3.56239e+06
3.54754e+06
3.53449e+06
3.72089e+06
3.74508e+06
3.72422e+06
3.73612e+06
3.72838e+06
3.73227e+06
3.73472e+06
3.73562e+06
3.74422e+06
3.72595e+06
3.6589e+06
3.59842e+06
3.57927e+06
3.55603e+06
3.54198e+06
3.72897e+06
3.75724e+06
3.73339e+06
3.74838e+06
3.74156e+06
3.74798e+06
3.75566e+06
3.75745e+06
3.77643e+06
3.75333e+06
3.70197e+06
3.60878e+06
3.59378e+06
3.56327e+06
3.54862e+06
3.73414e+06
3.75785e+06
3.73774e+06
3.75123e+06
3.74599e+06
3.75249e+06
3.76058e+06
3.76091e+06
3.77932e+06
3.75796e+06
3.72692e+06
3.62195e+06
3.60303e+06
3.56973e+06
3.55377e+06
3.73558e+06
3.75013e+06
3.7376e+06
3.74727e+06
3.74401e+06
3.74949e+06
3.75532e+06
3.75535e+06
3.76763e+06
3.75363e+06
3.73589e+06
3.64731e+06
3.60663e+06
3.57683e+06
3.55718e+06
3.73257e+06
3.73836e+06
3.73334e+06
3.73883e+06
3.7376e+06
3.74198e+06
3.74587e+06
3.74721e+06
3.75395e+06
3.74642e+06
3.73566e+06
3.67211e+06
3.60711e+06
3.58286e+06
3.55888e+06
3.72457e+06
3.72471e+06
3.72488e+06
3.72717e+06
3.72754e+06
3.73115e+06
3.73408e+06
3.73685e+06
3.74017e+06
3.73756e+06
3.72894e+06
3.68484e+06
3.60937e+06
3.58513e+06
3.55933e+06
3.71259e+06
3.71077e+06
3.71257e+06
3.71286e+06
3.71405e+06
3.71741e+06
3.71998e+06
3.7241e+06
3.72532e+06
3.72632e+06
3.71718e+06
3.68791e+06
3.61463e+06
3.58391e+06
3.5589e+06
3.69443e+06
3.69347e+06
3.69549e+06
3.69557e+06
3.69706e+06
3.70057e+06
3.70313e+06
3.70824e+06
3.70836e+06
3.71149e+06
3.70126e+06
3.68301e+06
3.61859e+06
3.57994e+06
3.55683e+06
3.67213e+06
3.67374e+06
3.67455e+06
3.67534e+06
3.67665e+06
3.68037e+06
3.68296e+06
3.68845e+06
3.68795e+06
3.69189e+06
3.6814e+06
3.6704e+06
3.61704e+06
3.57373e+06
3.55237e+06
3.64718e+06
3.65115e+06
3.65036e+06
3.65221e+06
3.6532e+06
3.65696e+06
3.65927e+06
3.6643e+06
3.66313e+06
3.66702e+06
3.65749e+06
3.65075e+06
3.60835e+06
3.56511e+06
3.54529e+06
3.62452e+06
3.62685e+06
3.6248e+06
3.62716e+06
3.62767e+06
3.63099e+06
3.63254e+06
3.6362e+06
3.63408e+06
3.63742e+06
3.62976e+06
3.6255e+06
3.5931e+06
3.55377e+06
3.53588e+06
3.59922e+06
3.60051e+06
3.59915e+06
3.60114e+06
3.60153e+06
3.60357e+06
3.60406e+06
3.60556e+06
3.60238e+06
3.60479e+06
3.59946e+06
3.5969e+06
3.57317e+06
3.54007e+06
3.52485e+06
3.57577e+06
3.57399e+06
3.57498e+06
3.57541e+06
3.57624e+06
3.57631e+06
3.57567e+06
3.57471e+06
3.57069e+06
3.57189e+06
3.56896e+06
3.56782e+06
3.55113e+06
3.52518e+06
3.5131e+06
3.55469e+06
3.54913e+06
3.55314e+06
3.55132e+06
3.5528e+06
3.55091e+06
3.5493e+06
3.54623e+06
3.54191e+06
3.54189e+06
3.54102e+06
3.54109e+06
3.52967e+06
3.5106e+06
3.50161e+06
3.53607e+06
3.52748e+06
3.53386e+06
3.5301e+06
3.53201e+06
3.52872e+06
3.52647e+06
3.52212e+06
3.5181e+06
3.51719e+06
3.51777e+06
3.51851e+06
3.51086e+06
3.49747e+06
3.49118e+06
3.5192e+06
3.50994e+06
3.51716e+06
3.51244e+06
3.51425e+06
3.51036e+06
3.50785e+06
3.50315e+06
3.49986e+06
3.49852e+06
3.49991e+06
3.50066e+06
3.49568e+06
3.48632e+06
3.48225e+06
3.50421e+06
3.49635e+06
3.50272e+06
3.49822e+06
3.49949e+06
3.49573e+06
3.49326e+06
3.48892e+06
3.48652e+06
3.48509e+06
3.48682e+06
3.48712e+06
3.48402e+06
3.47714e+06
3.47488e+06
3.49096e+06
3.48591e+06
3.49039e+06
3.48692e+06
3.48744e+06
3.48426e+06
3.48202e+06
3.47837e+06
3.47682e+06
3.47548e+06
3.47722e+06
3.47698e+06
3.47514e+06
3.4697e+06
3.46887e+06
3.48001e+06
3.4777e+06
3.47995e+06
3.47782e+06
3.47763e+06
3.47519e+06
3.47328e+06
3.47038e+06
3.46948e+06
3.46828e+06
3.4699e+06
3.46927e+06
3.46821e+06
3.46366e+06
3.46397e+06
3.47058e+06
3.47077e+06
3.4712e+06
3.4703e+06
3.46961e+06
3.46785e+06
3.46628e+06
3.46402e+06
3.46355e+06
3.46248e+06
3.46392e+06
3.46316e+06
3.46255e+06
3.46301e+06
3.46478e+06
3.46401e+06
3.46394e+06
3.46299e+06
3.46174e+06
3.46049e+06
3.4587e+06
3.45849e+06
3.45751e+06
3.4588e+06
3.45809e+06
3.45775e+06
3.45703e+06
3.45937e+06
3.45812e+06
3.45844e+06
3.45748e+06
3.45654e+06
3.45557e+06
3.45409e+06
3.45403e+06
3.45312e+06
3.45427e+06
3.45371e+06
3.45353e+06
3.45277e+06
3.45462e+06
3.45331e+06
3.45366e+06
3.45282e+06
3.45204e+06
3.45131e+06
3.45003e+06
3.45008e+06
3.44922e+06
3.45028e+06
3.44987e+06
3.44983e+06
3.449e+06
3.45023e+06
3.44933e+06
3.44947e+06
3.44884e+06
3.44812e+06
3.44756e+06
3.44644e+06
3.44654e+06
3.44571e+06
3.44666e+06
3.44641e+06
3.44652e+06
3.4459e+06
3.44639e+06
3.44598e+06
3.44581e+06
3.4454e+06
3.4447e+06
3.44424e+06
3.44326e+06
3.44339e+06
3.44261e+06
3.44351e+06
3.44336e+06
3.44369e+06
3.44321e+06
3.44301e+06
3.44308e+06
3.44264e+06
3.44239e+06
3.4417e+06
3.44127e+06
3.44041e+06
3.4405e+06
3.43977e+06
3.44052e+06
3.44053e+06
3.44103e+06
3.44103e+06
3.44021e+06
3.44062e+06
3.43994e+06
3.4398e+06
3.43911e+06
3.43864e+06
3.43793e+06
3.43794e+06
3.43739e+06
3.43812e+06
3.4382e+06
3.43897e+06
3.43904e+06
3.4379e+06
3.43854e+06
3.43771e+06
3.4376e+06
3.4369e+06
3.4363e+06
3.4357e+06
3.43543e+06
3.43488e+06
3.43525e+06
3.43591e+06
3.43654e+06
3.43744e+06
3.43616e+06
3.43689e+06
3.43593e+06
3.43577e+06
3.43493e+06
3.4341e+06
3.4335e+06
3.43278e+06
3.43271e+06
3.43334e+06
3.4345e+06
3.43546e+06
3.43637e+06
3.4351e+06
3.43583e+06
3.43482e+06
3.43456e+06
3.43352e+06
3.43236e+06
3.43114e+06
3.42918e+06
3.42914e+06
3.428e+06
3.43149e+06
3.43373e+06
3.43614e+06
3.43501e+06
3.43569e+06
3.43479e+06
3.43458e+06
3.43367e+06
3.4327e+06
3.43158e+06
3.43018e+06
3.43016e+06
3.43649e+06
3.43563e+06
3.43622e+06
3.43553e+06
3.43541e+06
3.43476e+06
3.43413e+06
3.43348e+06
3.43297e+06
3.43301e+06
3.4374e+06
3.43684e+06
3.43729e+06
3.43682e+06
3.43676e+06
3.43634e+06
3.43594e+06
3.43559e+06
3.43533e+06
3.43535e+06
3.43861e+06
3.43839e+06
3.43869e+06
3.43843e+06
3.43842e+06
3.43819e+06
3.43794e+06
3.43781e+06
3.43769e+06
3.43773e+06
3.44007e+06
3.44014e+06
3.4403e+06
3.44021e+06
3.44021e+06
3.4401e+06
3.43996e+06
3.43995e+06
3.4399e+06
3.43994e+06
3.44167e+06
3.44196e+06
3.44201e+06
3.44203e+06
3.44203e+06
3.442e+06
3.44195e+06
3.44201e+06
3.442e+06
3.44205e+06
3.44342e+06
3.44377e+06
3.44377e+06
3.44382e+06
3.44382e+06
3.44382e+06
3.44384e+06
3.44395e+06
3.44396e+06
3.44401e+06
3.44516e+06
3.44548e+06
3.4455e+06
3.44551e+06
3.44555e+06
3.44554e+06
3.44561e+06
3.44574e+06
3.44577e+06
3.44583e+06
3.4469e+06
3.44708e+06
3.44713e+06
3.44705e+06
3.44716e+06
3.44712e+06
3.44722e+06
3.44738e+06
3.44742e+06
3.44749e+06
3.44851e+06
3.44847e+06
3.44863e+06
3.44845e+06
3.4486e+06
3.44854e+06
3.44867e+06
3.44885e+06
3.44889e+06
3.44896e+06
3.44996e+06
3.44968e+06
3.44994e+06
3.44966e+06
3.44984e+06
3.44978e+06
3.44991e+06
3.45013e+06
3.45017e+06
3.45026e+06
3.4511e+06
3.45064e+06
3.45098e+06
3.45065e+06
3.45084e+06
3.45081e+06
3.45094e+06
3.45121e+06
3.45125e+06
3.45134e+06
3.45187e+06
3.45137e+06
3.45171e+06
3.45141e+06
3.45157e+06
3.45161e+06
3.45173e+06
3.45207e+06
3.45211e+06
3.45221e+06
3.45221e+06
3.45183e+06
3.45206e+06
3.4519e+06
3.45199e+06
3.45215e+06
3.45227e+06
3.45269e+06
3.45274e+06
3.45285e+06
3.45208e+06
3.45203e+06
3.45203e+06
3.45209e+06
3.45208e+06
3.4524e+06
3.45252e+06
3.45304e+06
3.45311e+06
3.45322e+06
3.45145e+06
3.45189e+06
3.45158e+06
3.45196e+06
3.45182e+06
3.45234e+06
3.45244e+06
3.45308e+06
3.45317e+06
3.45329e+06
3.45035e+06
3.45142e+06
3.45071e+06
3.45147e+06
3.45119e+06
3.45191e+06
3.45201e+06
3.45277e+06
3.45291e+06
3.45302e+06
3.44879e+06
3.45054e+06
3.44942e+06
3.45056e+06
3.45017e+06
3.45107e+06
3.45121e+06
3.45208e+06
3.45226e+06
3.45238e+06
3.44684e+06
3.44923e+06
3.4477e+06
3.44919e+06
3.44872e+06
3.4498e+06
3.44998e+06
3.45095e+06
3.45119e+06
3.45131e+06
3.44453e+06
3.4474e+06
3.44558e+06
3.44733e+06
3.44681e+06
3.44799e+06
3.44828e+06
3.44933e+06
3.44965e+06
3.44976e+06
3.44189e+06
3.445e+06
3.44304e+06
3.44489e+06
3.44441e+06
3.44563e+06
3.44604e+06
3.44715e+06
3.44755e+06
3.44766e+06
3.43892e+06
3.44194e+06
3.44003e+06
3.44182e+06
3.44146e+06
3.44264e+06
3.4432e+06
3.44436e+06
3.44484e+06
3.44495e+06
3.43563e+06
3.43817e+06
3.43652e+06
3.43805e+06
3.43789e+06
3.43896e+06
3.43969e+06
3.44088e+06
3.44143e+06
3.44155e+06
3.43185e+06
3.43357e+06
3.43241e+06
3.43353e+06
3.43362e+06
3.43452e+06
3.43543e+06
3.43663e+06
3.43724e+06
3.43738e+06
3.42747e+06
3.42812e+06
3.42763e+06
3.42822e+06
3.42859e+06
3.42927e+06
3.43032e+06
3.43151e+06
3.43218e+06
3.43234e+06
3.42237e+06
3.4218e+06
3.42206e+06
3.42206e+06
3.42272e+06
3.42313e+06
3.4243e+06
3.42542e+06
3.42612e+06
3.42631e+06
3.41643e+06
3.41471e+06
3.41569e+06
3.41508e+06
3.41599e+06
3.41607e+06
3.41728e+06
3.41826e+06
3.41897e+06
3.4192e+06
3.40973e+06
3.40703e+06
3.40858e+06
3.4074e+06
3.40843e+06
3.4081e+06
3.40923e+06
3.4099e+06
3.41056e+06
3.41085e+06
3.40245e+06
3.39908e+06
3.40097e+06
3.39924e+06
3.4002e+06
3.39928e+06
3.40012e+06
3.40023e+06
3.40076e+06
3.40109e+06
3.3951e+06
3.39143e+06
3.39331e+06
3.39105e+06
3.39161e+06
3.38984e+06
3.39006e+06
3.38912e+06
3.38941e+06
3.38981e+06
3.38836e+06
3.38492e+06
3.38643e+06
3.38358e+06
3.38329e+06
3.38021e+06
3.37925e+06
3.37648e+06
3.37627e+06
3.37667e+06
3.38427e+06
3.38126e+06
3.38181e+06
3.37813e+06
3.37633e+06
3.37124e+06
3.36817e+06
3.36236e+06
3.36133e+06
3.36171e+06
3.38505e+06
3.38264e+06
3.38165e+06
3.37683e+06
3.37259e+06
3.36457e+06
3.3579e+06
3.34687e+06
3.34418e+06
3.34427e+06
3.39436e+06
3.39256e+06
3.38943e+06
3.38289e+06
3.37499e+06
3.36297e+06
3.35034e+06
3.33097e+06
3.32536e+06
3.32488e+06
3.41686e+06
3.41551e+06
3.40975e+06
3.40061e+06
3.3877e+06
3.36993e+06
3.34785e+06
3.31688e+06
3.30477e+06
3.30296e+06
3.45886e+06
3.45759e+06
3.44892e+06
3.43632e+06
3.41742e+06
3.39201e+06
3.35758e+06
3.31198e+06
3.28573e+06
3.28215e+06
3.52738e+06
3.52588e+06
3.51458e+06
3.49856e+06
3.47391e+06
3.44046e+06
3.39338e+06
3.32805e+06
3.27146e+06
3.26506e+06
3.62696e+06
3.62506e+06
3.61215e+06
3.59325e+06
3.56343e+06
3.52244e+06
3.46217e+06
3.3709e+06
3.26803e+06
3.25824e+06
3.75761e+06
3.75506e+06
3.7411e+06
3.71941e+06
3.68541e+06
3.63583e+06
3.55825e+06
3.44588e+06
3.31109e+06
3.26903e+06
3.91068e+06
3.90911e+06
3.89984e+06
3.88471e+06
3.8604e+06
3.81884e+06
3.75154e+06
3.64274e+06
3.39317e+06
3.03983e+06
4.08454e+06
4.08488e+06
4.08318e+06
4.08173e+06
4.08027e+06
4.07711e+06
4.07954e+06
4.07658e+06
3.99705e+06
3.94658e+06
4.23948e+06
4.36776e+06
4.42997e+06
4.45934e+06
4.47571e+06
4.48497e+06
4.49065e+06
4.19589e+06
4.1967e+06
4.19697e+06
4.19844e+06
4.20052e+06
4.20365e+06
4.21134e+06
4.22221e+06
4.23468e+06
4.29029e+06
4.37825e+06
4.41713e+06
4.44845e+06
4.4667e+06
4.47882e+06
4.4864e+06
4.49134e+06
4.29934e+06
4.30032e+06
4.30167e+06
4.3048e+06
4.30913e+06
4.31511e+06
4.32429e+06
4.33456e+06
4.34475e+06
4.37102e+06
4.41026e+06
4.43791e+06
4.45858e+06
4.47226e+06
4.48162e+06
4.48785e+06
4.49206e+06
4.35837e+06
4.35934e+06
4.36095e+06
4.36428e+06
4.36885e+06
4.3752e+06
4.38364e+06
4.39429e+06
4.40763e+06
4.42496e+06
4.44278e+06
4.45725e+06
4.46923e+06
4.47816e+06
4.48481e+06
4.48958e+06
4.49298e+06
4.40535e+06
4.40614e+06
4.40728e+06
4.40971e+06
4.41296e+06
4.41741e+06
4.42309e+06
4.42988e+06
4.43791e+06
4.44792e+06
4.4586e+06
4.46808e+06
4.47612e+06
4.48248e+06
4.4874e+06
4.4911e+06
4.49385e+06
4.4329e+06
4.43352e+06
4.43448e+06
4.43647e+06
4.43909e+06
4.44262e+06
4.44693e+06
4.45207e+06
4.45791e+06
4.46427e+06
4.47064e+06
4.47654e+06
4.48175e+06
4.48613e+06
4.48969e+06
4.4925e+06
4.49468e+06
4.45327e+06
4.45367e+06
4.4543e+06
4.45564e+06
4.45739e+06
4.45973e+06
4.46257e+06
4.46592e+06
4.46969e+06
4.47382e+06
4.47804e+06
4.48206e+06
4.4857e+06
4.48886e+06
4.49151e+06
4.49368e+06
4.49541e+06
4.46598e+06
4.46625e+06
4.46672e+06
4.46774e+06
4.46904e+06
4.47077e+06
4.47282e+06
4.47521e+06
4.47784e+06
4.48064e+06
4.48348e+06
4.48621e+06
4.48876e+06
4.49104e+06
4.49302e+06
4.49468e+06
4.49605e+06
4.47511e+06
4.47537e+06
4.47569e+06
4.47639e+06
4.47727e+06
4.47845e+06
4.47985e+06
4.48149e+06
4.48329e+06
4.48524e+06
4.48722e+06
4.48918e+06
4.49103e+06
4.49272e+06
4.49422e+06
4.49552e+06
4.49661e+06
4.48125e+06
4.48145e+06
4.48169e+06
4.48221e+06
4.48286e+06
4.48372e+06
4.48473e+06
4.48591e+06
4.48721e+06
4.48859e+06
4.49001e+06
4.49143e+06
4.49279e+06
4.49405e+06
4.4952e+06
4.49621e+06
4.49709e+06
4.48577e+06
4.48593e+06
4.48609e+06
4.48646e+06
4.48691e+06
4.48753e+06
4.48825e+06
4.48909e+06
4.49002e+06
4.49103e+06
4.49207e+06
4.49312e+06
4.49414e+06
4.4951e+06
4.49599e+06
4.49679e+06
4.49749e+06
4.49809e+06
4.4986e+06
4.48896e+06
4.48908e+06
4.4892e+06
4.48948e+06
4.48981e+06
4.49027e+06
4.4908e+06
4.49143e+06
4.49212e+06
4.49286e+06
4.49364e+06
4.49443e+06
4.4952e+06
4.49595e+06
4.49664e+06
4.49728e+06
4.49784e+06
4.49833e+06
4.49875e+06
4.49136e+06
4.49145e+06
4.49154e+06
4.49174e+06
4.49199e+06
4.49232e+06
4.49272e+06
4.49318e+06
4.4937e+06
4.49426e+06
4.49484e+06
4.49544e+06
4.49604e+06
4.49662e+06
4.49717e+06
4.49768e+06
4.49814e+06
4.49854e+06
4.49889e+06
4.49314e+06
4.49321e+06
4.49327e+06
4.49343e+06
4.49361e+06
4.49387e+06
4.49416e+06
4.49452e+06
4.49491e+06
4.49534e+06
4.49579e+06
4.49625e+06
4.49672e+06
4.49717e+06
4.49761e+06
4.49802e+06
4.49839e+06
4.49873e+06
4.49902e+06
4.4945e+06
4.49456e+06
4.4946e+06
4.49472e+06
4.49486e+06
4.49506e+06
4.49528e+06
4.49555e+06
4.49585e+06
4.49618e+06
4.49653e+06
4.49689e+06
4.49726e+06
4.49762e+06
4.49797e+06
4.49831e+06
4.49861e+06
4.49889e+06
4.49913e+06
4.49555e+06
4.49559e+06
4.49562e+06
4.49572e+06
4.49583e+06
4.49598e+06
4.49615e+06
4.49636e+06
4.49659e+06
4.49685e+06
4.49713e+06
4.49741e+06
4.4977e+06
4.49799e+06
4.49828e+06
4.49855e+06
4.4988e+06
4.49903e+06
4.49923e+06
4.49637e+06
4.4964e+06
4.49643e+06
4.4965e+06
4.49659e+06
4.4967e+06
4.49684e+06
4.497e+06
4.49719e+06
4.49739e+06
4.49761e+06
4.49783e+06
4.49807e+06
4.4983e+06
4.49853e+06
4.49875e+06
4.49896e+06
4.49915e+06
4.49932e+06
4.49702e+06
4.49704e+06
4.49706e+06
4.49712e+06
4.49719e+06
4.49728e+06
4.49739e+06
4.49752e+06
4.49766e+06
4.49782e+06
4.498e+06
4.49818e+06
4.49837e+06
4.49856e+06
4.49874e+06
4.49892e+06
4.4991e+06
4.49925e+06
4.4994e+06
4.49753e+06
4.49755e+06
4.49757e+06
4.49762e+06
4.49767e+06
4.49775e+06
4.49783e+06
4.49793e+06
4.49805e+06
4.49818e+06
4.49832e+06
4.49846e+06
4.49862e+06
4.49877e+06
4.49892e+06
4.49907e+06
4.49921e+06
4.49935e+06
4.49947e+06
4.49795e+06
4.49797e+06
4.49798e+06
4.49802e+06
4.49806e+06
4.49812e+06
4.49819e+06
4.49827e+06
4.49836e+06
4.49847e+06
4.49858e+06
4.4987e+06
4.49882e+06
4.49895e+06
4.49908e+06
4.4992e+06
4.49932e+06
4.49943e+06
4.49953e+06
4.49828e+06
4.4983e+06
4.49832e+06
4.49835e+06
4.49838e+06
4.49843e+06
4.49848e+06
4.49855e+06
4.49862e+06
4.49871e+06
4.4988e+06
4.4989e+06
4.499e+06
4.4991e+06
4.4992e+06
4.49931e+06
4.4994e+06
4.4995e+06
4.49958e+06
4.49857e+06
4.49857e+06
4.49859e+06
4.49861e+06
4.49864e+06
4.49868e+06
4.49872e+06
4.49878e+06
4.49884e+06
4.49891e+06
4.49898e+06
4.49906e+06
4.49914e+06
4.49923e+06
4.49931e+06
4.4994e+06
4.49948e+06
4.49956e+06
4.49963e+06
4.4988e+06
4.4988e+06
4.49881e+06
4.49883e+06
4.49886e+06
4.49889e+06
4.49892e+06
4.49897e+06
4.49902e+06
4.49907e+06
4.49913e+06
4.4992e+06
4.49927e+06
4.49934e+06
4.49941e+06
4.49948e+06
4.49955e+06
4.49961e+06
4.49967e+06
4.49899e+06
4.49899e+06
4.499e+06
4.49901e+06
4.49903e+06
4.49906e+06
4.49909e+06
4.49913e+06
4.49917e+06
4.49921e+06
4.49926e+06
4.49931e+06
4.49937e+06
4.49943e+06
4.49949e+06
4.49955e+06
4.49961e+06
4.49966e+06
4.49971e+06
4.49914e+06
4.49915e+06
4.49915e+06
4.49917e+06
4.49918e+06
4.4992e+06
4.49923e+06
4.49926e+06
4.49929e+06
4.49933e+06
4.49937e+06
4.49941e+06
4.49946e+06
4.49951e+06
4.49956e+06
4.49961e+06
4.49966e+06
4.4997e+06
4.49975e+06
4.49928e+06
4.49928e+06
4.49928e+06
4.49929e+06
4.49931e+06
4.49932e+06
4.49934e+06
4.49937e+06
4.4994e+06
4.49943e+06
4.49946e+06
4.4995e+06
4.49954e+06
4.49958e+06
4.49962e+06
4.49966e+06
4.4997e+06
4.49974e+06
4.49978e+06
4.49939e+06
4.49939e+06
4.49939e+06
4.4994e+06
4.49941e+06
4.49942e+06
4.49944e+06
4.49946e+06
4.49948e+06
4.49951e+06
4.49954e+06
4.49957e+06
4.4996e+06
4.49964e+06
4.49967e+06
4.4997e+06
4.49974e+06
4.49977e+06
4.4998e+06
4.49948e+06
4.49948e+06
4.49948e+06
4.49949e+06
4.4995e+06
4.49951e+06
4.49952e+06
4.49954e+06
4.49956e+06
4.49958e+06
4.49961e+06
4.49963e+06
4.49966e+06
4.49969e+06
4.49971e+06
4.49974e+06
4.49977e+06
4.4998e+06
4.49983e+06
4.49956e+06
4.49956e+06
4.49956e+06
4.49957e+06
4.49957e+06
4.49958e+06
4.4996e+06
4.49961e+06
4.49963e+06
4.49964e+06
4.49966e+06
4.49968e+06
4.49971e+06
4.49973e+06
4.49975e+06
4.49978e+06
4.4998e+06
4.49983e+06
4.49985e+06
4.49963e+06
4.49963e+06
4.49963e+06
4.49963e+06
4.49964e+06
4.49965e+06
4.49966e+06
4.49967e+06
4.49968e+06
4.4997e+06
4.49971e+06
4.49973e+06
4.49975e+06
4.49977e+06
4.49979e+06
4.49981e+06
4.49983e+06
4.49985e+06
4.49987e+06
4.49969e+06
4.49969e+06
4.49969e+06
4.49969e+06
4.4997e+06
4.4997e+06
4.49971e+06
4.49972e+06
4.49973e+06
4.49974e+06
4.49976e+06
4.49977e+06
4.49979e+06
4.4998e+06
4.49982e+06
4.49984e+06
4.49985e+06
4.49987e+06
4.49988e+06
4.49974e+06
4.49974e+06
4.49974e+06
4.49974e+06
4.49974e+06
4.49975e+06
4.49976e+06
4.49976e+06
4.49977e+06
4.49978e+06
4.49979e+06
4.49981e+06
4.49982e+06
4.49983e+06
4.49985e+06
4.49986e+06
4.49987e+06
4.49989e+06
4.4999e+06
4.49978e+06
4.49978e+06
4.49978e+06
4.49978e+06
4.49979e+06
4.49979e+06
4.4998e+06
4.4998e+06
4.49981e+06
4.49982e+06
4.49983e+06
4.49984e+06
4.49985e+06
4.49986e+06
4.49987e+06
4.49988e+06
4.49989e+06
4.4999e+06
4.49991e+06
4.49982e+06
4.49982e+06
4.49982e+06
4.49982e+06
4.49982e+06
4.49983e+06
4.49983e+06
4.49984e+06
4.49984e+06
4.49985e+06
4.49986e+06
4.49986e+06
4.49987e+06
4.49988e+06
4.49989e+06
4.4999e+06
4.49991e+06
4.49992e+06
4.49993e+06
4.49985e+06
4.49985e+06
4.49985e+06
4.49986e+06
4.49986e+06
4.49986e+06
4.49986e+06
4.49987e+06
4.49987e+06
4.49988e+06
4.49988e+06
4.49989e+06
4.4999e+06
4.4999e+06
4.49991e+06
4.49992e+06
4.49993e+06
4.49993e+06
4.49994e+06
4.49988e+06
4.49988e+06
4.49988e+06
4.49989e+06
4.49989e+06
4.49989e+06
4.49989e+06
4.4999e+06
4.4999e+06
4.4999e+06
4.49991e+06
4.49991e+06
4.49992e+06
4.49992e+06
4.49993e+06
4.49993e+06
4.49994e+06
4.49995e+06
4.49995e+06
4.49991e+06
4.49991e+06
4.49991e+06
4.49991e+06
4.49991e+06
4.49992e+06
4.49992e+06
4.49992e+06
4.49992e+06
4.49993e+06
4.49993e+06
4.49993e+06
4.49994e+06
4.49994e+06
4.49995e+06
4.49995e+06
4.49995e+06
4.49996e+06
4.49996e+06
4.49994e+06
4.49994e+06
4.49994e+06
4.49994e+06
4.49994e+06
4.49994e+06
4.49994e+06
4.49995e+06
4.49995e+06
4.49995e+06
4.49995e+06
4.49995e+06
4.49996e+06
4.49996e+06
4.49996e+06
4.49996e+06
4.49997e+06
4.49997e+06
4.49997e+06
4.49996e+06
4.49996e+06
4.49996e+06
4.49996e+06
4.49996e+06
4.49996e+06
4.49997e+06
4.49997e+06
4.49997e+06
4.49997e+06
4.49997e+06
4.49997e+06
4.49997e+06
4.49997e+06
4.49998e+06
4.49998e+06
4.49998e+06
4.49998e+06
4.49998e+06
4.49999e+06
4.49999e+06
4.49999e+06
4.49999e+06
4.49999e+06
4.49999e+06
4.49999e+06
4.49999e+06
4.49999e+06
4.49999e+06
4.49999e+06
4.49999e+06
4.49999e+06
4.49999e+06
4.49999e+06
4.49999e+06
4.49999e+06
4.49999e+06
4.49999e+06
3.56664e+06
3.54106e+06
3.56547e+06
3.54241e+06
3.55037e+06
3.53155e+06
3.53572e+06
3.51398e+06
3.59863e+06
3.57561e+06
3.59665e+06
3.57572e+06
3.58131e+06
3.56873e+06
3.5662e+06
3.55929e+06
3.54796e+06
3.51134e+06
3.50473e+06
3.50788e+06
3.50549e+06
3.50442e+06
3.50191e+06
3.62933e+06
3.61307e+06
3.62747e+06
3.61242e+06
3.6158e+06
3.61121e+06
3.60633e+06
3.61377e+06
3.59936e+06
3.55172e+06
3.52185e+06
3.52417e+06
3.51505e+06
3.51264e+06
3.50766e+06
3.65559e+06
3.64572e+06
3.65422e+06
3.64549e+06
3.64667e+06
3.64877e+06
3.64169e+06
3.66162e+06
3.6395e+06
3.5929e+06
3.53848e+06
3.5412e+06
3.52516e+06
3.52144e+06
3.51384e+06
3.67669e+06
3.67137e+06
3.6755e+06
3.67108e+06
3.66952e+06
3.6733e+06
3.66192e+06
3.68811e+06
3.65348e+06
3.62358e+06
3.55289e+06
3.55638e+06
3.53544e+06
3.53021e+06
3.5203e+06
3.69398e+06
3.69554e+06
3.69341e+06
3.69294e+06
3.68828e+06
3.68962e+06
3.67781e+06
3.69542e+06
3.6602e+06
3.64469e+06
3.57347e+06
3.56944e+06
3.54715e+06
3.53879e+06
3.52711e+06
3.7091e+06
3.72183e+06
3.7101e+06
3.71557e+06
3.70856e+06
3.70937e+06
3.70379e+06
3.70768e+06
3.6947e+06
3.67959e+06
3.61125e+06
3.58385e+06
3.56239e+06
3.54754e+06
3.53449e+06
3.72089e+06
3.74508e+06
3.72422e+06
3.73612e+06
3.72838e+06
3.73227e+06
3.73472e+06
3.73562e+06
3.74422e+06
3.72595e+06
3.6589e+06
3.59842e+06
3.57927e+06
3.55603e+06
3.54198e+06
3.72897e+06
3.75724e+06
3.73339e+06
3.74838e+06
3.74156e+06
3.74798e+06
3.75566e+06
3.75745e+06
3.77643e+06
3.75333e+06
3.70197e+06
3.60878e+06
3.59378e+06
3.56327e+06
3.54862e+06
3.73414e+06
3.75785e+06
3.73774e+06
3.75123e+06
3.74599e+06
3.75249e+06
3.76058e+06
3.76091e+06
3.77932e+06
3.75796e+06
3.72692e+06
3.62195e+06
3.60303e+06
3.56973e+06
3.55377e+06
3.73558e+06
3.75013e+06
3.7376e+06
3.74727e+06
3.74401e+06
3.74949e+06
3.75532e+06
3.75535e+06
3.76763e+06
3.75363e+06
3.73589e+06
3.64731e+06
3.60663e+06
3.57683e+06
3.55718e+06
3.73257e+06
3.73836e+06
3.73334e+06
3.73883e+06
3.7376e+06
3.74198e+06
3.74587e+06
3.74721e+06
3.75395e+06
3.74642e+06
3.73566e+06
3.67211e+06
3.60711e+06
3.58286e+06
3.55888e+06
3.72457e+06
3.72471e+06
3.72488e+06
3.72717e+06
3.72754e+06
3.73115e+06
3.73408e+06
3.73685e+06
3.74017e+06
3.73756e+06
3.72894e+06
3.68484e+06
3.60937e+06
3.58513e+06
3.55933e+06
3.71259e+06
3.71077e+06
3.71257e+06
3.71286e+06
3.71405e+06
3.71741e+06
3.71998e+06
3.7241e+06
3.72532e+06
3.72632e+06
3.71718e+06
3.68791e+06
3.61463e+06
3.58391e+06
3.5589e+06
3.69443e+06
3.69347e+06
3.69549e+06
3.69557e+06
3.69706e+06
3.70057e+06
3.70313e+06
3.70824e+06
3.70836e+06
3.71149e+06
3.70126e+06
3.68301e+06
3.61859e+06
3.57994e+06
3.55683e+06
3.67213e+06
3.67374e+06
3.67455e+06
3.67534e+06
3.67665e+06
3.68037e+06
3.68296e+06
3.68845e+06
3.68795e+06
3.69189e+06
3.6814e+06
3.6704e+06
3.61704e+06
3.57373e+06
3.55237e+06
3.64718e+06
3.65115e+06
3.65036e+06
3.65221e+06
3.6532e+06
3.65696e+06
3.65927e+06
3.6643e+06
3.66313e+06
3.66702e+06
3.65749e+06
3.65075e+06
3.60835e+06
3.56511e+06
3.54529e+06
3.62452e+06
3.62685e+06
3.6248e+06
3.62716e+06
3.62767e+06
3.63099e+06
3.63254e+06
3.6362e+06
3.63408e+06
3.63742e+06
3.62976e+06
3.6255e+06
3.5931e+06
3.55377e+06
3.53588e+06
3.59922e+06
3.60051e+06
3.59915e+06
3.60114e+06
3.60153e+06
3.60357e+06
3.60406e+06
3.60556e+06
3.60238e+06
3.60479e+06
3.59946e+06
3.5969e+06
3.57317e+06
3.54007e+06
3.52485e+06
3.57577e+06
3.57399e+06
3.57498e+06
3.57541e+06
3.57624e+06
3.57631e+06
3.57567e+06
3.57471e+06
3.57069e+06
3.57189e+06
3.56896e+06
3.56782e+06
3.55113e+06
3.52518e+06
3.5131e+06
3.55469e+06
3.54913e+06
3.55314e+06
3.55132e+06
3.5528e+06
3.55091e+06
3.5493e+06
3.54623e+06
3.54191e+06
3.54189e+06
3.54102e+06
3.54109e+06
3.52967e+06
3.5106e+06
3.50161e+06
3.53607e+06
3.52748e+06
3.53386e+06
3.5301e+06
3.53201e+06
3.52872e+06
3.52647e+06
3.52212e+06
3.5181e+06
3.51719e+06
3.51777e+06
3.51851e+06
3.51086e+06
3.49747e+06
3.49118e+06
3.5192e+06
3.50994e+06
3.51716e+06
3.51244e+06
3.51425e+06
3.51036e+06
3.50785e+06
3.50315e+06
3.49986e+06
3.49852e+06
3.49991e+06
3.50066e+06
3.49568e+06
3.48632e+06
3.48225e+06
3.50421e+06
3.49635e+06
3.50272e+06
3.49822e+06
3.49949e+06
3.49573e+06
3.49326e+06
3.48892e+06
3.48652e+06
3.48509e+06
3.48682e+06
3.48712e+06
3.48402e+06
3.47714e+06
3.47488e+06
3.49096e+06
3.48591e+06
3.49039e+06
3.48692e+06
3.48744e+06
3.48426e+06
3.48202e+06
3.47837e+06
3.47682e+06
3.47548e+06
3.47722e+06
3.47698e+06
3.47514e+06
3.4697e+06
3.46887e+06
3.48001e+06
3.4777e+06
3.47995e+06
3.47782e+06
3.47763e+06
3.47519e+06
3.47328e+06
3.47038e+06
3.46948e+06
3.46828e+06
3.4699e+06
3.46927e+06
3.46821e+06
3.46366e+06
3.46397e+06
3.47058e+06
3.47077e+06
3.4712e+06
3.4703e+06
3.46961e+06
3.46785e+06
3.46628e+06
3.46402e+06
3.46355e+06
3.46248e+06
3.46392e+06
3.46316e+06
3.46255e+06
3.46301e+06
3.46478e+06
3.46401e+06
3.46394e+06
3.46299e+06
3.46174e+06
3.46049e+06
3.4587e+06
3.45849e+06
3.45751e+06
3.4588e+06
3.45809e+06
3.45775e+06
3.45703e+06
3.45937e+06
3.45812e+06
3.45844e+06
3.45748e+06
3.45654e+06
3.45557e+06
3.45409e+06
3.45403e+06
3.45312e+06
3.45427e+06
3.45371e+06
3.45353e+06
3.45277e+06
3.45462e+06
3.45331e+06
3.45366e+06
3.45282e+06
3.45204e+06
3.45131e+06
3.45003e+06
3.45008e+06
3.44922e+06
3.45028e+06
3.44987e+06
3.44983e+06
3.449e+06
3.45023e+06
3.44933e+06
3.44947e+06
3.44884e+06
3.44812e+06
3.44756e+06
3.44644e+06
3.44654e+06
3.44571e+06
3.44666e+06
3.44641e+06
3.44652e+06
3.4459e+06
3.44639e+06
3.44598e+06
3.44581e+06
3.4454e+06
3.4447e+06
3.44424e+06
3.44326e+06
3.44339e+06
3.44261e+06
3.44351e+06
3.44336e+06
3.44369e+06
3.44321e+06
3.44301e+06
3.44308e+06
3.44264e+06
3.44239e+06
3.4417e+06
3.44127e+06
3.44041e+06
3.4405e+06
3.43977e+06
3.44052e+06
3.44053e+06
3.44103e+06
3.44103e+06
3.44021e+06
3.44062e+06
3.43994e+06
3.4398e+06
3.43911e+06
3.43864e+06
3.43793e+06
3.43794e+06
3.43739e+06
3.43812e+06
3.4382e+06
3.43897e+06
3.43904e+06
3.4379e+06
3.43854e+06
3.43771e+06
3.4376e+06
3.4369e+06
3.4363e+06
3.4357e+06
3.43543e+06
3.43488e+06
3.43525e+06
3.43591e+06
3.43654e+06
3.43744e+06
3.43616e+06
3.43689e+06
3.43593e+06
3.43577e+06
3.43493e+06
3.4341e+06
3.4335e+06
3.43278e+06
3.43271e+06
3.43334e+06
3.4345e+06
3.43546e+06
3.43637e+06
3.4351e+06
3.43583e+06
3.43482e+06
3.43456e+06
3.43352e+06
3.43236e+06
3.43114e+06
3.42918e+06
3.42914e+06
3.428e+06
3.43149e+06
3.43373e+06
3.43614e+06
3.43501e+06
3.43569e+06
3.43479e+06
3.43458e+06
3.43367e+06
3.4327e+06
3.43158e+06
3.43018e+06
3.43016e+06
3.43649e+06
3.43563e+06
3.43622e+06
3.43553e+06
3.43541e+06
3.43476e+06
3.43413e+06
3.43348e+06
3.43297e+06
3.43301e+06
3.4374e+06
3.43684e+06
3.43729e+06
3.43682e+06
3.43676e+06
3.43634e+06
3.43594e+06
3.43559e+06
3.43533e+06
3.43535e+06
3.43861e+06
3.43839e+06
3.43869e+06
3.43843e+06
3.43842e+06
3.43819e+06
3.43794e+06
3.43781e+06
3.43769e+06
3.43773e+06
3.44007e+06
3.44014e+06
3.4403e+06
3.44021e+06
3.44021e+06
3.4401e+06
3.43996e+06
3.43995e+06
3.4399e+06
3.43994e+06
3.44167e+06
3.44196e+06
3.44201e+06
3.44203e+06
3.44203e+06
3.442e+06
3.44195e+06
3.44201e+06
3.442e+06
3.44205e+06
3.44342e+06
3.44377e+06
3.44377e+06
3.44382e+06
3.44382e+06
3.44382e+06
3.44384e+06
3.44395e+06
3.44396e+06
3.44401e+06
3.44516e+06
3.44548e+06
3.4455e+06
3.44551e+06
3.44555e+06
3.44554e+06
3.44561e+06
3.44574e+06
3.44577e+06
3.44583e+06
3.4469e+06
3.44708e+06
3.44713e+06
3.44705e+06
3.44716e+06
3.44712e+06
3.44722e+06
3.44738e+06
3.44742e+06
3.44749e+06
3.44851e+06
3.44847e+06
3.44863e+06
3.44845e+06
3.4486e+06
3.44854e+06
3.44867e+06
3.44885e+06
3.44889e+06
3.44896e+06
3.44996e+06
3.44968e+06
3.44994e+06
3.44966e+06
3.44984e+06
3.44978e+06
3.44991e+06
3.45013e+06
3.45017e+06
3.45026e+06
3.4511e+06
3.45064e+06
3.45098e+06
3.45065e+06
3.45084e+06
3.45081e+06
3.45094e+06
3.45121e+06
3.45125e+06
3.45134e+06
3.45187e+06
3.45137e+06
3.45171e+06
3.45141e+06
3.45157e+06
3.45161e+06
3.45173e+06
3.45207e+06
3.45211e+06
3.45221e+06
3.45221e+06
3.45183e+06
3.45206e+06
3.4519e+06
3.45199e+06
3.45215e+06
3.45227e+06
3.45269e+06
3.45274e+06
3.45285e+06
3.45208e+06
3.45203e+06
3.45203e+06
3.45209e+06
3.45208e+06
3.4524e+06
3.45252e+06
3.45304e+06
3.45311e+06
3.45322e+06
3.45145e+06
3.45189e+06
3.45158e+06
3.45196e+06
3.45182e+06
3.45234e+06
3.45244e+06
3.45308e+06
3.45317e+06
3.45329e+06
3.45035e+06
3.45142e+06
3.45071e+06
3.45147e+06
3.45119e+06
3.45191e+06
3.45201e+06
3.45277e+06
3.45291e+06
3.45302e+06
3.44879e+06
3.45054e+06
3.44942e+06
3.45056e+06
3.45017e+06
3.45107e+06
3.45121e+06
3.45208e+06
3.45226e+06
3.45238e+06
3.44684e+06
3.44923e+06
3.4477e+06
3.44919e+06
3.44872e+06
3.4498e+06
3.44998e+06
3.45095e+06
3.45119e+06
3.45131e+06
3.44453e+06
3.4474e+06
3.44558e+06
3.44733e+06
3.44681e+06
3.44799e+06
3.44828e+06
3.44933e+06
3.44965e+06
3.44976e+06
3.44189e+06
3.445e+06
3.44304e+06
3.44489e+06
3.44441e+06
3.44563e+06
3.44604e+06
3.44715e+06
3.44755e+06
3.44766e+06
3.43892e+06
3.44194e+06
3.44003e+06
3.44182e+06
3.44146e+06
3.44264e+06
3.4432e+06
3.44436e+06
3.44484e+06
3.44495e+06
3.43563e+06
3.43817e+06
3.43652e+06
3.43805e+06
3.43789e+06
3.43896e+06
3.43969e+06
3.44088e+06
3.44143e+06
3.44155e+06
3.43185e+06
3.43357e+06
3.43241e+06
3.43353e+06
3.43362e+06
3.43452e+06
3.43543e+06
3.43663e+06
3.43724e+06
3.43738e+06
3.42747e+06
3.42812e+06
3.42763e+06
3.42822e+06
3.42859e+06
3.42927e+06
3.43032e+06
3.43151e+06
3.43218e+06
3.43234e+06
3.42237e+06
3.4218e+06
3.42206e+06
3.42206e+06
3.42272e+06
3.42313e+06
3.4243e+06