/*--------------------------------*- C++ -*----------------------------------*\
| =========                 |                                                 |
| \\      /  F ield         | OpenFOAM: The Open Source CFD Toolbox           |
|  \\    /   O peration     | Version:  v2012                                 |
|   \\  /    A nd           | Website:  www.openfoam.com                      |
|    \\/     M anipulation  |                                                 |
\*---------------------------------------------------------------------------*/
FoamFile
{
    version     2.0;
    format      ascii;
    class       surfaceScalarField;
    location    "0.6";
    object      phi;
}
// * * * * * * * * * * * * * * * * * * * * * * * * * * * * * * * * * * * * * //

dimensions      [0 3 -1 0 0 0 0];
oriented        oriented;


internalField   nonuniform List<scalar> 
8145
(
3.36207e-10
-1.55556e-09
-1.60252e-15
2.76103e-10
-1.45459e-09
-1.77622e-15
2.18209e-10
-1.338e-09
-1.78965e-15
1.6355e-10
-1.20184e-09
-1.79803e-15
1.13389e-10
-1.04214e-09
-1.71358e-15
6.93432e-11
-8.55063e-10
-1.70999e-15
3.35799e-11
-6.35952e-10
-1.67699e-15
9.10256e-12
-3.80851e-10
-1.65422e-15
-9.61019e-11
-1.55264e-15
5.2323e-10
-1.73119e-09
-1.59329e-15
4.6022e-10
-1.65954e-09
-1.58353e-15
3.97415e-10
-1.58132e-09
-1.34244e-15
3.3547e-10
-1.49363e-09
-1.58763e-15
2.75095e-10
-1.39423e-09
-1.61573e-15
2.17108e-10
-1.28004e-09
-1.76388e-15
1.62506e-10
-1.14726e-09
-1.65042e-15
1.12519e-10
-9.9218e-10
-1.67009e-15
6.87212e-11
-8.11288e-10
-1.58264e-15
3.32303e-11
-6.00487e-10
-1.62507e-15
8.98572e-12
-3.56633e-10
-1.54866e-15
-8.71425e-11
-1.51379e-15
3.08852e-10
-8.76746e-10
1.24976e-14
3.61188e-10
-9.85975e-10
-2.76322e-15
4.16983e-10
-1.09828e-09
-1.29991e-14
4.75858e-10
-1.21251e-09
-2.64615e-16
5.37045e-10
-1.32734e-09
-5.66494e-16
5.99773e-10
-1.44141e-09
-3.54703e-15
6.63225e-10
-1.55341e-09
-2.06435e-15
7.26479e-10
-1.66167e-09
1.88754e-16
7.88543e-10
-1.76502e-09
9.21655e-16
8.48414e-10
-1.86192e-09
8.13003e-16
9.051e-10
-1.95126e-09
8.30179e-16
9.57645e-10
-2.03193e-09
5.6101e-16
1.00516e-09
-2.10284e-09
9.26689e-16
1.04685e-09
-2.16365e-09
4.5483e-16
1.08202e-09
-2.2135e-09
8.54221e-16
1.11012e-09
-2.25238e-09
4.85941e-16
1.13076e-09
-2.28027e-09
8.78917e-16
1.14367e-09
-2.29732e-09
2.47725e-16
1.14876e-09
-2.304e-09
6.05049e-16
1.14606e-09
-2.3009e-09
4.6212e-17
1.13574e-09
-2.28882e-09
4.44374e-16
1.11809e-09
-2.26854e-09
-1.32729e-16
1.09351e-09
-2.24104e-09
1.16406e-16
1.06247e-09
-2.20721e-09
-5.62296e-16
1.0255e-09
-2.16752e-09
-4.7089e-16
9.8317e-10
-2.12402e-09
-1.0702e-15
9.3609e-10
-2.0761e-09
-9.11465e-16
8.84852e-10
-2.02557e-09
-1.35146e-15
8.30082e-10
-1.97205e-09
-1.2177e-15
7.72389e-10
-1.91586e-09
-1.58405e-15
7.1232e-10
-1.85833e-09
-1.47068e-15
6.50485e-10
-1.79761e-09
-1.7646e-15
5.87414e-10
-1.73447e-09
-1.68656e-15
5.23676e-10
-1.66747e-09
-1.59007e-15
4.59829e-10
-1.5957e-09
-1.29268e-15
3.96429e-10
-1.51793e-09
-1.32931e-15
3.34112e-10
-1.43133e-09
-1.45637e-15
2.73566e-10
-1.3337e-09
-1.66376e-15
2.15585e-10
-1.22208e-09
-1.63877e-15
1.61135e-10
-1.09283e-09
-1.64398e-15
1.11413e-10
-9.4248e-10
-1.5457e-15
6.79486e-11
-7.67846e-10
-1.54412e-15
3.28027e-11
-5.65365e-10
-1.50054e-15
8.84547e-12
-3.327e-10
-1.49262e-15
-7.83219e-11
-1.41559e-15
3.37538e-10
-9.28937e-10
2.35527e-14
3.93829e-10
-1.04223e-09
4.01311e-15
4.53583e-10
-1.1581e-09
-8.13955e-15
5.16339e-10
-1.27523e-09
3.81849e-15
5.81232e-10
-1.39221e-09
2.38244e-15
6.47392e-10
-1.50757e-09
-9.29931e-16
7.13906e-10
-1.61992e-09
-4.10865e-16
7.79767e-10
-1.72751e-09
1.81671e-15
8.439e-10
-1.82913e-09
1.42713e-15
9.05241e-10
-1.92324e-09
1.60251e-15
9.6275e-10
-2.00875e-09
7.2389e-16
1.01545e-09
-2.08462e-09
1.09146e-15
1.06244e-09
-2.14982e-09
5.95743e-16
1.10295e-09
-2.20415e-09
1.00306e-15
1.13633e-09
-2.24686e-09
4.78113e-16
1.16207e-09
-2.27811e-09
1.05095e-15
1.17986e-09
-2.29805e-09
4.53018e-16
1.18953e-09
-2.30697e-09
7.91001e-16
1.19104e-09
-2.30551e-09
1.49382e-16
1.18456e-09
-2.2944e-09
5.31548e-16
1.17032e-09
-2.27458e-09
-2.80299e-17
1.14872e-09
-2.24694e-09
2.92262e-16
1.12024e-09
-2.21255e-09
-3.16707e-16
1.0854e-09
-2.17237e-09
-1.48951e-16
1.04482e-09
-2.12694e-09
-7.91137e-16
9.99097e-10
-2.0783e-09
-6.50172e-16
9.48895e-10
-2.0259e-09
-1.14456e-15
8.94825e-10
-1.97151e-09
-9.73872e-16
8.37532e-10
-1.91476e-09
-1.37701e-15
7.77632e-10
-1.85597e-09
-1.23736e-15
7.15673e-10
-1.79639e-09
-1.56494e-15
6.52257e-10
-1.73421e-09
-1.46247e-15
5.87905e-10
-1.67013e-09
-1.74672e-15
5.23167e-10
-1.60274e-09
-1.44195e-15
4.58586e-10
-1.53113e-09
-1.42822e-15
3.94697e-10
-1.45406e-09
-1.23235e-15
3.32114e-10
-1.36876e-09
-1.59495e-15
2.71502e-10
-1.27311e-09
-1.60391e-15
2.13629e-10
-1.16423e-09
-1.7086e-15
1.59431e-10
-1.03865e-09
-1.57447e-15
1.10067e-10
-8.93139e-10
-1.5717e-15
6.70217e-11
-7.24823e-10
-1.47015e-15
3.22957e-11
-5.30663e-10
-1.49301e-15
8.68088e-12
-3.0911e-10
-1.41686e-15
-6.96655e-11
-1.3826e-15
3.6929e-10
-9.85305e-10
2.48484e-14
4.29862e-10
-1.10275e-09
6.67751e-15
4.93871e-10
-1.22215e-09
-5.02155e-15
5.60717e-10
-1.34204e-09
3.61219e-15
6.29466e-10
-1.46094e-09
1.57892e-15
6.99145e-10
-1.57726e-09
-2.38086e-15
7.68735e-10
-1.68952e-09
-1.33541e-15
8.37135e-10
-1.79589e-09
1.05315e-15
9.0319e-10
-1.89517e-09
1.50475e-15
9.65776e-10
-1.98581e-09
1.34378e-15
1.02381e-09
-2.06677e-09
1.32373e-15
1.07631e-09
-2.1371e-09
8.47354e-16
1.12237e-09
-2.19586e-09
1.26733e-15
1.16126e-09
-2.24302e-09
6.98918e-16
1.19238e-09
-2.27796e-09
1.19038e-15
1.21531e-09
-2.30102e-09
6.9645e-16
1.22979e-09
-2.31252e-09
1.14085e-15
1.23577e-09
-2.31293e-09
3.89629e-16
1.23332e-09
-2.30305e-09
7.73671e-16
1.22269e-09
-2.28375e-09
9.73313e-17
1.20423e-09
-2.25612e-09
5.09079e-16
1.17842e-09
-2.22112e-09
-1.42767e-16
1.14581e-09
-2.17994e-09
1.47294e-16
1.10702e-09
-2.13359e-09
-5.30902e-16
1.06273e-09
-2.08263e-09
-3.64759e-16
1.01355e-09
-2.02913e-09
-9.56472e-16
9.60201e-10
-1.97255e-09
-7.75072e-16
9.03311e-10
-1.91463e-09
-1.23e-15
8.43534e-10
-1.85499e-09
-1.06847e-15
7.81492e-10
-1.79393e-09
-1.43653e-15
7.17723e-10
-1.73263e-09
-1.30606e-15
6.52821e-10
-1.66932e-09
-1.61899e-15
5.8729e-10
-1.60462e-09
-1.55249e-15
5.21663e-10
-1.53713e-09
-1.66722e-15
4.5646e-10
-1.46594e-09
-1.39325e-15
3.92195e-10
-1.38981e-09
-1.4512e-15
3.29458e-10
-1.30605e-09
-1.55594e-15
2.6889e-10
-1.21256e-09
-1.71908e-15
2.1123e-10
-1.10659e-09
-1.6513e-15
1.57385e-10
-9.8483e-10
-1.63519e-15
1.08476e-10
-8.44252e-10
-1.51274e-15
6.59381e-11
-6.82308e-10
-1.49487e-15
3.17074e-11
-4.96456e-10
-1.43172e-15
8.49174e-12
-2.8592e-10
-1.42225e-15
-6.11981e-11
-1.33729e-15
4.04533e-10
-1.04623e-09
1.71533e-14
4.69729e-10
-1.1678e-09
1.7965e-14
5.3829e-10
-1.29064e-09
7.90309e-15
6.09404e-10
-1.41315e-09
-2.95591e-17
6.82146e-10
-1.53368e-09
1.42692e-16
7.55408e-10
-1.65052e-09
-9.0646e-16
8.28049e-10
-1.76215e-09
-4.83366e-17
8.98872e-10
-1.86668e-09
2.57208e-15
9.66642e-10
-1.96292e-09
1.74664e-15
1.03018e-09
-2.04933e-09
2.1565e-15
1.08839e-09
-2.12496e-09
1.0573e-15
1.14025e-09
-2.18895e-09
1.46115e-15
1.18492e-09
-2.24051e-09
8.15264e-16
1.22169e-09
-2.27977e-09
1.35552e-15
1.25004e-09
-2.30629e-09
7.36626e-16
1.26963e-09
-2.3206e-09
1.39328e-15
1.28033e-09
-2.3232e-09
6.79276e-16
1.28216e-09
-2.31475e-09
1.06402e-15
1.27533e-09
-2.29621e-09
3.05428e-16
1.26018e-09
-2.26859e-09
7.01438e-16
1.23719e-09
-2.23312e-09
3.86505e-17
1.20692e-09
-2.19085e-09
3.76882e-16
1.17001e-09
-2.14302e-09
-2.90299e-16
1.12713e-09
-2.09071e-09
-7.21677e-17
1.07902e-09
-2.03452e-09
-7.27309e-16
1.02635e-09
-1.97647e-09
-5.51716e-16
9.69856e-10
-1.91606e-09
-1.07925e-15
9.10177e-10
-1.85496e-09
-9.03915e-16
8.47978e-10
-1.7928e-09
-1.32658e-15
7.83874e-10
-1.72983e-09
-1.17979e-15
7.18393e-10
-1.66717e-09
-1.51761e-15
6.52114e-10
-1.60305e-09
-1.41918e-15
5.85521e-10
-1.53804e-09
-1.74835e-15
5.19125e-10
-1.47075e-09
-1.59357e-15
4.53422e-10
-1.40025e-09
-1.62882e-15
3.88901e-10
-1.32531e-09
-1.44545e-15
3.26128e-10
-1.24329e-09
-1.72654e-15
2.65718e-10
-1.15217e-09
-1.67985e-15
2.08382e-10
-1.04928e-09
-1.74669e-15
1.54994e-10
-9.31465e-10
-1.59053e-15
1.06637e-10
-7.95917e-10
-1.56675e-15
6.46951e-11
-6.40388e-10
-1.44861e-15
3.10367e-11
-4.62821e-10
-1.45547e-15
8.27721e-12
-2.63185e-10
-1.37892e-15
-5.29452e-11
-1.34162e-15
4.43675e-10
-1.11209e-09
1.50906e-14
5.13812e-10
-1.23781e-09
1.62856e-14
5.87184e-10
-1.36396e-09
6.35671e-15
6.6281e-10
-1.48881e-09
-3.91724e-15
7.39677e-10
-1.61056e-09
-2.15996e-15
8.16552e-10
-1.72741e-09
-2.48257e-15
8.92174e-10
-1.83777e-09
-1.75468e-16
9.65249e-10
-1.93973e-09
2.22314e-15
1.03447e-09
-2.03211e-09
2.30335e-15
1.09861e-09
-2.11345e-09
1.89576e-15
1.15654e-09
-2.18287e-09
1.78081e-15
1.20729e-09
-2.23967e-09
1.02992e-15
1.25002e-09
-2.28323e-09
1.5122e-15
1.28411e-09
-2.31384e-09
8.47894e-16
1.30913e-09
-2.33129e-09
1.4656e-15
1.32483e-09
-2.3363e-09
8.59844e-16
1.33121e-09
-2.32956e-09
1.38631e-15
1.32842e-09
-2.31194e-09
5.25628e-16
1.31678e-09
-2.28456e-09
9.61228e-16
1.29676e-09
-2.24856e-09
1.72679e-16
1.26893e-09
-2.20528e-09
6.10816e-16
1.23396e-09
-2.15587e-09
-1.21304e-16
1.19256e-09
-2.10162e-09
2.0388e-16
1.14548e-09
-2.04363e-09
-5.00579e-16
1.0935e-09
-1.98253e-09
-2.88963e-16
1.03732e-09
-1.9203e-09
-9.02183e-16
9.77701e-10
-1.85644e-09
-7.14701e-16
9.15291e-10
-1.79255e-09
-1.20378e-15
8.50749e-10
-1.72826e-09
-1.04363e-15
7.84686e-10
-1.66377e-09
-1.43295e-15
7.17609e-10
-1.6001e-09
-1.30267e-15
6.50079e-10
-1.53553e-09
-1.63168e-15
5.82553e-10
-1.47053e-09
-1.59489e-15
5.15519e-10
-1.40374e-09
-1.81549e-15
4.49447e-10
-1.3342e-09
-1.59531e-15
3.84798e-10
-1.26068e-09
-1.67474e-15
3.22112e-10
-1.18063e-09
-1.69368e-15
2.61978e-10
-1.09206e-09
-1.80034e-15
2.05077e-10
-9.92398e-10
-1.696e-15
1.52254e-10
-8.78663e-10
-1.65931e-15
1.04548e-10
-7.48234e-10
-1.51631e-15
6.32916e-11
-5.99154e-10
-1.48258e-15
3.02826e-11
-4.29835e-10
-1.40513e-15
8.03731e-12
-2.40964e-10
-1.39649e-15
-4.4932e-11
-1.31294e-15
4.87324e-10
-1.18328e-09
1.28246e-14
5.6272e-10
-1.31309e-09
1.53366e-14
6.41149e-10
-1.44234e-09
5.48479e-15
7.21473e-10
-1.56918e-09
-5.11562e-15
8.02551e-10
-1.69165e-09
-2.37781e-15
8.83013e-10
-1.80787e-09
-1.41522e-15
9.61479e-10
-1.91622e-09
2.00639e-16
1.03656e-09
-2.01477e-09
3.23957e-15
1.10687e-09
-2.1024e-09
2.04786e-15
1.17117e-09
-2.17771e-09
2.6002e-15
1.22832e-09
-2.24e-09
1.2277e-15
1.27736e-09
-2.2887e-09
1.65706e-15
1.31755e-09
-2.32339e-09
8.37477e-16
1.34833e-09
-2.34461e-09
1.52705e-15
1.36939e-09
-2.35233e-09
8.09315e-16
1.38062e-09
-2.34751e-09
1.56771e-15
1.38213e-09
-2.33106e-09
7.48619e-16
1.37422e-09
-2.30402e-09
1.2121e-15
1.35734e-09
-2.26766e-09
3.60007e-16
1.33208e-09
-2.22329e-09
7.93813e-16
1.29913e-09
-2.17232e-09
4.63494e-17
1.25924e-09
-2.11597e-09
4.15971e-16
1.21321e-09
-2.05558e-09
-2.97429e-16
1.16183e-09
-1.99226e-09
-3.12767e-17
1.10595e-09
-1.92663e-09
-7.00761e-16
1.04627e-09
-1.86063e-09
-4.98494e-16
9.83579e-10
-1.79374e-09
-1.05697e-15
9.18517e-10
-1.7275e-09
-8.8476e-16
8.51741e-10
-1.66149e-09
-1.33409e-15
7.8384e-10
-1.59588e-09
-1.19244e-15
7.15301e-10
-1.53158e-09
-1.54636e-15
6.46658e-10
-1.46689e-09
-1.45153e-15
5.78345e-10
-1.40224e-09
-1.80191e-15
5.10815e-10
-1.33623e-09
-1.71272e-15
4.44512e-10
-1.26791e-09
-1.80784e-15
3.79869e-10
-1.19605e-09
-1.65222e-15
3.174e-10
-1.11818e-09
-1.86094e-15
2.57663e-10
-1.03235e-09
-1.76046e-15
2.01314e-10
-9.36073e-10
-1.79306e-15
1.49161e-10
-8.26533e-10
-1.61579e-15
1.02206e-10
-7.01301e-10
-1.57224e-15
6.17262e-11
-5.58697e-10
-1.43819e-15
2.94446e-11
-3.97577e-10
-1.43154e-15
7.7714e-12
-2.19315e-10
-1.35614e-15
-3.71847e-11
-1.32256e-15
5.35837e-10
-1.26025e-09
1.27466e-14
6.16882e-10
-1.39401e-09
1.54572e-14
7.00661e-10
-1.52607e-09
5.73618e-15
7.8587e-10
-1.65443e-09
-5.6326e-15
8.71219e-10
-1.77701e-09
-2.47554e-15
9.55195e-10
-1.89185e-09
-2.39793e-15
1.0363e-09
-1.99732e-09
3.56307e-16
1.11306e-09
-2.09149e-09
2.59619e-15
1.18404e-09
-2.17334e-09
2.60534e-15
1.24795e-09
-2.2416e-09
2.01984e-15
1.3037e-09
-2.29573e-09
1.95237e-15
1.35039e-09
-2.33537e-09
9.70495e-16
1.38733e-09
-2.36032e-09
1.5653e-15
1.41412e-09
-2.37137e-09
7.9215e-16
1.43055e-09
-2.36873e-09
1.5573e-15
1.43666e-09
-2.35361e-09
8.33574e-16
1.43273e-09
-2.32711e-09
1.47057e-15
1.41919e-09
-2.29046e-09
5.15879e-16
1.39664e-09
-2.2451e-09
1.03357e-15
1.3658e-09
-2.19243e-09
1.49959e-16
1.32745e-09
-2.13396e-09
6.35261e-16
1.28245e-09
-2.07096e-09
-1.62428e-16
1.23166e-09
-2.00479e-09
2.08357e-16
1.17594e-09
-1.93654e-09
-5.18445e-16
1.11614e-09
-1.86683e-09
-2.64013e-16
1.05301e-09
-1.79751e-09
-8.95666e-16
9.87327e-10
-1.72805e-09
-7.00969e-16
9.19726e-10
-1.65991e-09
-1.21778e-15
8.50843e-10
-1.59262e-09
-1.06252e-15
7.81249e-10
-1.52629e-09
-1.47225e-15
7.11401e-10
-1.46175e-09
-1.3466e-15
6.41804e-10
-1.39731e-09
-1.68524e-15
5.72856e-10
-1.33331e-09
-1.6499e-15
5.04985e-10
-1.26838e-09
-1.91561e-15
4.38599e-10
-1.20154e-09
-1.74818e-15
3.74103e-10
-1.13158e-09
-1.85949e-15
3.11983e-10
-1.05608e-09
-1.82282e-15
2.5277e-10
-9.73156e-10
-1.88176e-15
1.97089e-10
-8.80416e-10
-1.74424e-15
1.45716e-10
-7.75183e-10
-1.68615e-15
9.9612e-11
-6.5522e-10
-1.52407e-15
5.99995e-11
-5.19107e-10
-1.47427e-15
2.85225e-11
-3.66123e-10
-1.3845e-15
7.47971e-12
-1.98296e-10
-1.37632e-15
-2.9729e-11
-1.29817e-15
5.90107e-10
-1.34341e-09
9.4079e-15
6.77124e-10
-1.4809e-09
1.50686e-14
7.66467e-10
-1.61538e-09
4.06631e-15
8.56664e-10
-1.74468e-09
-6.1627e-15
9.46254e-10
-1.86661e-09
-3.57553e-15
1.03358e-09
-1.97918e-09
-2.34064e-15
1.11702e-09
-2.08075e-09
-3.18195e-16
1.19502e-09
-2.16946e-09
3.18515e-15
1.26611e-09
-2.2444e-09
1.85447e-15
1.329e-09
-2.30447e-09
2.65663e-15
1.38264e-09
-2.34934e-09
1.08304e-15
1.42619e-09
-2.37891e-09
1.62744e-15
1.45913e-09
-2.39323e-09
6.49248e-16
1.48115e-09
-2.39337e-09
1.50536e-15
1.49222e-09
-2.37979e-09
6.85275e-16
1.49256e-09
-2.35393e-09
1.56771e-15
1.48258e-09
-2.31712e-09
6.56657e-16
1.46291e-09
-2.27077e-09
1.22736e-15
1.43427e-09
-2.21644e-09
2.99494e-16
1.39751e-09
-2.15566e-09
7.92939e-16
1.35353e-09
-2.08997e-09
-2.38536e-17
1.30325e-09
-2.02069e-09
3.90051e-16
1.24762e-09
-1.94915e-09
-3.59744e-16
1.18753e-09
-1.87645e-09
-4.68859e-17
1.12386e-09
-1.80314e-09
-7.29412e-16
1.05736e-09
-1.73101e-09
-5.02637e-16
9.8879e-10
-1.65949e-09
-1.08362e-15
9.18785e-10
-1.58991e-09
-9.11653e-16
8.47954e-10
-1.52179e-09
-1.38152e-15
7.76833e-10
-1.45517e-09
-1.24598e-15
7.05848e-10
-1.39078e-09
-1.61232e-15
6.35467e-10
-1.32694e-09
-1.51932e-15
5.66057e-10
-1.26391e-09
-1.86475e-15
4.98006e-10
-1.20034e-09
-1.80191e-15
4.31694e-10
-1.13525e-09
-1.94429e-15
3.67493e-10
-1.0674e-09
-1.82054e-15
3.0586e-10
-9.94468e-10
-1.98722e-15
2.47298e-10
-9.14617e-10
-1.84356e-15
1.92404e-10
-8.25546e-10
-1.8431e-15
1.41921e-10
-7.24722e-10
-1.64468e-15
9.67678e-11
-6.10089e-10
-1.58178e-15
5.81119e-11
-4.80473e-10
-1.43266e-15
2.75168e-11
-3.35551e-10
-1.41368e-15
7.16187e-12
-1.77965e-10
-1.33889e-15
-2.25911e-11
-1.30981e-15
6.50479e-10
-1.43328e-09
1.14542e-14
7.43885e-10
-1.57418e-09
1.62983e-14
8.39065e-10
-1.71052e-09
4.78473e-15
9.34363e-10
-1.84001e-09
-4.94024e-15
1.02813e-09
-1.96039e-09
-1.59766e-15
1.11857e-09
-2.06962e-09
-2.51043e-15
1.20395e-09
-2.16612e-09
4.28387e-16
1.28265e-09
-2.24812e-09
2.42985e-15
1.35317e-09
-2.31489e-09
2.56778e-15
1.41428e-09
-2.36554e-09
1.83655e-15
1.46497e-09
-2.40001e-09
1.90216e-15
1.50454e-09
-2.41847e-09
7.13982e-16
1.5326e-09
-2.42127e-09
1.4596e-15
1.54903e-09
-2.40977e-09
5.41547e-16
1.55398e-09
-2.38471e-09
1.47743e-15
1.54783e-09
-2.34777e-09
6.30251e-16
1.53121e-09
-2.30049e-09
1.41414e-15
1.50489e-09
-2.24443e-09
3.75396e-16
1.46976e-09
-2.18129e-09
1.00365e-15
1.42678e-09
-2.11266e-09
3.82081e-17
1.37696e-09
-2.04013e-09
5.87925e-16
1.32129e-09
-1.96502e-09
-2.64719e-16
1.26078e-09
-1.88863e-09
1.56586e-16
1.19634e-09
-1.81201e-09
-5.91067e-16
1.12887e-09
-1.73566e-09
-2.99075e-16
1.05911e-09
-1.66125e-09
-9.45388e-16
9.87809e-10
-1.58819e-09
-7.41705e-16
9.15572e-10
-1.51768e-09
-1.27642e-15
8.42974e-10
-1.4492e-09
-1.12472e-15
7.70518e-10
-1.38272e-09
-1.54827e-15
6.98586e-10
-1.31886e-09
-1.42751e-15
6.27612e-10
-1.25597e-09
-1.76979e-15
5.57919e-10
-1.19424e-09
-1.7213e-15
4.89864e-10
-1.13231e-09
-2.00303e-15
4.23788e-10
-1.06919e-09
-1.87573e-15
3.60035e-10
-1.00367e-09
-2.01566e-15
2.9903e-10
-9.33487e-10
-1.94881e-15
2.4125e-10
-8.56861e-10
-1.96674e-15
1.87263e-10
-7.71583e-10
-1.79779e-15
1.37778e-10
-6.75261e-10
-1.71691e-15
9.36758e-11
-5.6601e-10
-1.53716e-15
5.60657e-11
-4.42885e-10
-1.47178e-15
2.64281e-11
-3.05936e-10
-1.37161e-15
6.81839e-12
-1.58379e-10
-1.36268e-15
-1.57967e-11
-1.28935e-15
7.18267e-10
-1.53025e-09
1.1053e-14
8.1832e-10
-1.67409e-09
1.72376e-14
9.19454e-10
-1.81162e-09
3.6197e-15
1.01979e-09
-1.94041e-09
-7.62325e-15
1.11753e-09
-2.05814e-09
-4.37386e-15
1.21068e-09
-2.16279e-09
-3.23995e-15
1.29745e-09
-2.25288e-09
-1.06207e-15
1.37614e-09
-2.32678e-09
2.78977e-15
1.44528e-09
-2.384e-09
1.32632e-15
1.50369e-09
-2.42392e-09
2.42999e-15
1.55047e-09
-2.44678e-09
6.5608e-16
1.58509e-09
-2.45308e-09
1.38719e-15
1.60733e-09
-2.44349e-09
2.47646e-16
1.61727e-09
-2.41969e-09
1.28592e-15
1.61527e-09
-2.38269e-09
3.60185e-16
1.60193e-09
-2.33442e-09
1.40198e-15
1.57806e-09
-2.27661e-09
4.15569e-16
1.54461e-09
-2.21096e-09
1.12585e-15
1.50261e-09
-2.13928e-09
1.37048e-16
1.45315e-09
-2.06319e-09
7.1291e-16
1.39732e-09
-1.9843e-09
-1.61243e-16
1.3362e-09
-1.9039e-09
3.07071e-16
1.27081e-09
-1.82324e-09
-4.73641e-16
1.20209e-09
-1.74329e-09
-1.17807e-16
1.13094e-09
-1.6645e-09
-8.12936e-16
1.05808e-09
-1.5884e-09
-5.64777e-16
9.84235e-10
-1.51434e-09
-1.16002e-15
9.09966e-10
-1.44342e-09
-9.85764e-16
8.35814e-10
-1.37506e-09
-1.46782e-15
7.62234e-10
-1.30915e-09
-1.33729e-15
6.89568e-10
-1.24622e-09
-1.7101e-15
6.18202e-10
-1.18462e-09
-1.61831e-15
5.48424e-10
-1.12448e-09
-1.94612e-15
4.80545e-10
-1.06445e-09
-1.89343e-15
4.14877e-10
-1.00354e-09
-2.06669e-15
3.51729e-10
-9.40545e-10
-1.97038e-15
2.91498e-10
-8.7328e-10
-2.11218e-15
2.34632e-10
-8.00019e-10
-1.93193e-15
1.81671e-10
-7.18647e-10
-1.8981e-15
1.33295e-10
-6.26908e-10
-1.67826e-15
9.0341e-11
-5.23079e-10
-1.59649e-15
5.38636e-11
-4.0643e-10
-1.434e-15
2.52581e-11
-2.77353e-10
-1.40422e-15
6.44923e-12
-1.39594e-10
-1.32952e-15
-9.37135e-12
-1.30355e-15
7.93649e-10
-1.63496e-09
8.15612e-15
9.00778e-10
-1.78108e-09
1.60045e-14
1.00808e-09
-1.91888e-09
4.659e-15
1.11344e-09
-2.04581e-09
-5.12027e-15
1.21488e-09
-2.15956e-09
-3.42784e-16
1.31027e-09
-2.25819e-09
-2.55603e-15
1.39773e-09
-2.34033e-09
6.05914e-16
1.47557e-09
-2.40458e-09
2.30615e-15
1.54236e-09
-2.45076e-09
2.60874e-15
1.59701e-09
-2.47854e-09
1.66141e-15
1.63881e-09
-2.48855e-09
1.81644e-15
1.66739e-09
-2.48165e-09
3.33686e-16
1.68277e-09
-2.45885e-09
1.22145e-15
1.68527e-09
-2.42216e-09
8.77124e-17
1.67548e-09
-2.37288e-09
1.22479e-15
1.65422e-09
-2.31315e-09
2.44513e-16
1.62251e-09
-2.24488e-09
1.22532e-15
1.58146e-09
-2.1699e-09
1.09723e-16
1.53227e-09
-2.09006e-09
8.82575e-16
1.47612e-09
-2.00702e-09
-1.53224e-16
1.41418e-09
-1.92236e-09
4.79279e-16
1.34759e-09
-1.8373e-09
-4.20502e-16
1.27739e-09
-1.75303e-09
5.42952e-17
1.20452e-09
-1.67042e-09
-7.13547e-16
1.12985e-09
-1.58983e-09
-3.89296e-16
1.05409e-09
-1.51265e-09
-1.04625e-15
9.77923e-10
-1.43817e-09
-8.33158e-16
9.01859e-10
-1.36737e-09
-1.3765e-15
8.2639e-10
-1.2996e-09
-1.22686e-15
7.51925e-10
-1.23469e-09
-1.65639e-15
6.78752e-10
-1.17306e-09
-1.53989e-15
6.07216e-10
-1.1131e-09
-1.88065e-15
5.37556e-10
-1.05484e-09
-1.81502e-15
4.70048e-10
-9.96964e-10
-2.09857e-15
4.04964e-10
-9.38478e-10
-1.99864e-15
3.42583e-10
-8.78189e-10
-2.15898e-15
2.83273e-10
-8.13995e-10
-2.07586e-15
2.27454e-10
-7.44225e-10
-2.05625e-15
1.7564e-10
-6.66858e-10
-1.85655e-15
1.28479e-10
-5.79771e-10
-1.75133e-15
8.67697e-11
-4.81393e-10
-1.55528e-15
5.15102e-11
-3.71193e-10
-1.47538e-15
2.40086e-11
-2.49875e-10
-1.367e-15
6.05526e-12
-1.21665e-10
-1.35635e-15
-3.34005e-12
-1.28651e-15
8.7864e-10
-1.74766e-09
9.06746e-15
9.92943e-10
-1.89522e-09
2.08255e-14
1.10631e-09
-2.03217e-09
7.9681e-15
1.21636e-09
-2.15593e-09
-8.05306e-15
1.32094e-09
-2.26417e-09
-4.18477e-15
1.41783e-09
-2.35509e-09
-3.34597e-15
1.50507e-09
-2.42756e-09
-1.17895e-15
1.58099e-09
-2.48047e-09
2.83585e-15
1.64425e-09
-2.51399e-09
9.74889e-16
1.69392e-09
-2.52819e-09
2.28589e-15
1.72949e-09
-2.5241e-09
1.22871e-16
1.75084e-09
-2.50299e-09
9.9893e-16
1.75826e-09
-2.46625e-09
-3.82667e-16
1.75231e-09
-2.4162e-09
8.50025e-16
1.73386e-09
-2.35441e-09
-1.93211e-16
1.70397e-09
-2.28325e-09
1.06327e-15
1.66385e-09
-2.20476e-09
1.60697e-17
1.6148e-09
-2.12084e-09
9.09447e-16
1.55814e-09
-2.03338e-09
-1.26608e-16
1.49515e-09
-1.94402e-09
5.59952e-16
1.42708e-09
-1.85427e-09
-3.60842e-16
1.35506e-09
-1.76529e-09
1.72699e-16
1.28018e-09
-1.67814e-09
-6.3463e-16
1.20333e-09
-1.59358e-09
-2.38855e-16
1.12538e-09
-1.51187e-09
-9.44861e-16
1.04697e-09
-1.43424e-09
-6.7827e-16
9.68741e-10
-1.35995e-09
-1.27991e-15
8.91151e-10
-1.28979e-09
-1.10214e-15
8.14634e-10
-1.22309e-09
-1.58751e-15
7.39541e-10
-1.15961e-09
-1.46063e-15
6.66111e-10
-1.09965e-09
-1.83311e-15
5.94635e-10
-1.04164e-09
-1.74297e-15
5.25312e-10
-9.85536e-10
-2.048e-15
4.58374e-10
-9.30048e-10
-1.99845e-15
3.94057e-10
-8.74183e-10
-2.18752e-15
3.32609e-10
-8.16765e-10
-2.11291e-15
2.74368e-10
-7.5578e-10
-2.23775e-15
2.19729e-10
-6.89612e-10
-2.02522e-15
1.69181e-10
-6.16335e-10
-1.95686e-15
1.23341e-10
-5.33955e-10
-1.71525e-15
8.29708e-11
-4.41046e-10
-1.61487e-15
4.90107e-11
-3.37256e-10
-1.44089e-15
2.26827e-11
-2.23569e-10
-1.40178e-15
5.63687e-12
-1.04643e-10
-1.32678e-15
2.27284e-12
-1.3023e-15
9.73014e-10
-1.86906e-09
6.8139e-15
1.09488e-09
-2.01693e-09
1.79916e-14
1.21437e-09
-2.1516e-09
7.33142e-15
1.32885e-09
-2.27049e-09
-1.02719e-14
1.43602e-09
-2.37136e-09
-4.58144e-15
1.53355e-09
-2.45264e-09
-6.44203e-15
1.61948e-09
-2.5135e-09
-1.2427e-15
1.69223e-09
-2.55319e-09
1.14905e-15
1.75061e-09
-2.57233e-09
2.14682e-15
1.79391e-09
-2.57146e-09
1.17454e-15
1.82187e-09
-2.55205e-09
1.50072e-15
1.8347e-09
-2.51581e-09
-3.48346e-16
1.83296e-09
-2.46449e-09
7.35768e-16
1.81754e-09
-2.40076e-09
-6.56781e-16
1.78957e-09
-2.32643e-09
7.64258e-16
1.75036e-09
-2.24403e-09
-3.46393e-16
1.70132e-09
-2.15571e-09
8.99266e-16
1.64392e-09
-2.06343e-09
-2.88636e-16
1.57959e-09
-1.96904e-09
6.71878e-16
1.5097e-09
-1.87412e-09
-4.2465e-16
1.43552e-09
-1.78009e-09
3.12303e-16
1.35822e-09
-1.68799e-09
-6.27962e-16
1.27884e-09
-1.59875e-09
-9.57253e-17
1.19827e-09
-1.51301e-09
-8.81779e-16
1.11731e-09
-1.4309e-09
-5.2888e-16
1.03655e-09
-1.35349e-09
-1.19135e-15
9.56569e-10
-1.27996e-09
-9.69011e-16
8.77756e-10
-1.21099e-09
-1.51203e-15
8.00485e-10
-1.14583e-09
-1.36289e-15
7.25047e-10
-1.08418e-09
-1.79001e-15
6.51624e-10
-1.02624e-09
-1.67688e-15
5.80457e-10
-9.70483e-10
-2.01164e-15
5.11697e-10
-9.16796e-10
-1.93075e-15
4.45535e-10
-8.63909e-10
-2.20756e-15
3.82172e-10
-8.10842e-10
-2.12403e-15
3.21824e-10
-7.56444e-10
-2.29652e-15
2.64803e-10
-6.98784e-10
-2.20463e-15
2.11478e-10
-6.36313e-10
-2.14902e-15
1.62312e-10
-5.67195e-10
-1.91875e-15
1.17896e-10
-4.89563e-10
-1.78762e-15
7.89544e-11
-4.02127e-10
-1.57639e-15
4.63725e-11
-3.04696e-10
-1.48293e-15
2.12836e-11
-1.98503e-10
-1.36823e-15
5.19535e-12
-8.85784e-11
-1.35489e-15
7.44418e-12
-1.2873e-15
1.07991e-09
-1.99914e-09
8.24937e-15
1.20907e-09
-2.14593e-09
1.89835e-14
1.33416e-09
-2.27662e-09
6.53946e-15
1.45227e-09
-2.3887e-09
-1.19731e-14
1.56098e-09
-2.48011e-09
-7.53402e-15
1.65787e-09
-2.54957e-09
-6.41288e-15
1.74106e-09
-2.59669e-09
-2.99037e-15
1.80908e-09
-2.62118e-09
2.2343e-15
1.86096e-09
-2.62419e-09
3.24477e-16
1.89629e-09
-2.60676e-09
2.11328e-15
1.91513e-09
-2.57089e-09
-5.51023e-16
1.91803e-09
-2.5187e-09
4.74131e-16
1.9059e-09
-2.45236e-09
-1.25306e-15
1.87996e-09
-2.37481e-09
2.23583e-16
1.84163e-09
-2.28809e-09
-9.67886e-16
1.79246e-09
-2.19486e-09
5.74952e-16
1.73407e-09
-2.09731e-09
-5.37606e-16
1.66806e-09
-1.9974e-09
5.88294e-16
1.59595e-09
-1.89692e-09
-4.91272e-16
1.51918e-09
-1.79734e-09
3.37101e-16
1.43903e-09
-1.69994e-09
-6.23219e-16
1.35666e-09
-1.60562e-09
-1.25323e-17
1.27307e-09
-1.51516e-09
-8.42225e-16
1.18909e-09
-1.42903e-09
-4.07644e-16
1.10546e-09
-1.34727e-09
-1.12062e-15
1.02269e-09
-1.27074e-09
-8.37689e-16
9.41303e-10
-1.19857e-09
-1.43742e-15
8.61604e-10
-1.1313e-09
-1.25533e-15
7.83901e-10
-1.06813e-09
-1.73449e-15
7.0842e-10
-1.00871e-09
-1.60969e-15
6.35287e-10
-9.5313e-10
-1.97456e-15
5.64686e-10
-8.99897e-10
-1.887e-15
4.96724e-10
-8.48854e-10
-2.16867e-15
4.31551e-10
-7.98759e-10
-2.11876e-15
3.69333e-10
-7.48646e-10
-2.3108e-15
3.10254e-10
-6.97392e-10
-2.25292e-15
2.54602e-10
-6.43159e-10
-2.36376e-15
2.02721e-10
-5.84459e-10
-2.1216e-15
1.55053e-10
-5.19554e-10
-2.01723e-15
1.12161e-10
-4.46696e-10
-1.75363e-15
7.4734e-11
-3.64724e-10
-1.63465e-15
4.36037e-11
-2.73589e-10
-1.45077e-15
1.98159e-11
-1.74739e-10
-1.40326e-15
4.73161e-12
-7.35179e-11
-1.32747e-15
1.21518e-11
-1.30295e-15
1.19813e-09
-2.13861e-09
1.55697e-14
1.33488e-09
-2.28249e-09
2.25941e-14
1.46537e-09
-2.40703e-09
9.48797e-15
1.5865e-09
-2.50991e-09
-1.14168e-14
1.6957e-09
-2.58935e-09
-5.85103e-15
1.79058e-09
-2.6445e-09
-9.54683e-15
1.86941e-09
-2.67552e-09
-2.43758e-15
1.93094e-09
-2.68269e-09
5.82892e-16
1.97452e-09
-2.66775e-09
2.22141e-15
2.00011e-09
-2.63233e-09
9.73363e-16
2.00819e-09
-2.57894e-09
1.37464e-15
1.99968e-09
-2.51019e-09
-1.09869e-15
1.97591e-09
-2.42858e-09
1.96145e-16
1.93842e-09
-2.33732e-09
-1.5764e-15
1.88895e-09
-2.2386e-09
1.97721e-16
1.82926e-09
-2.13517e-09
-1.09278e-15
1.76117e-09
-2.02922e-09
4.79746e-16
1.68639e-09
-1.92261e-09
-8.01265e-16
1.60652e-09
-1.81704e-09
3.85668e-16
1.52301e-09
-1.71381e-09
-7.72753e-16
1.43713e-09
-1.61406e-09
8.89085e-17
1.35e-09
-1.51848e-09
-8.87999e-16
1.26255e-09
-1.42771e-09
-2.93943e-16
1.17554e-09
-1.34203e-09
-1.09459e-15
1.08964e-09
-1.26136e-09
-7.15029e-16
1.00527e-09
-1.18638e-09
-1.37638e-15
9.22858e-10
-1.11616e-09
-1.1448e-15
8.42644e-10
-1.0511e-09
-1.67806e-15
7.64856e-10
-9.90357e-10
-1.52745e-15
6.89656e-10
-9.33516e-10
-1.9433e-15
6.17106e-10
-8.806e-10
-1.83235e-15
5.4734e-10
-8.30148e-10
-2.15651e-15
4.80418e-10
-7.81954e-10
-2.066e-15
4.16451e-10
-7.34815e-10
-2.32933e-15
3.55569e-10
-6.87787e-10
-2.25427e-15
2.9793e-10
-6.39781e-10
-2.43161e-15
2.43795e-10
-5.89052e-10
-2.33461e-15
1.93488e-10
-5.3418e-10
-2.24291e-15
1.47428e-10
-4.73521e-10
-1.98203e-15
1.06156e-10
-4.05448e-10
-1.82373e-15
7.03246e-11
-3.28917e-10
-1.59821e-15
4.0715e-11
-2.44002e-10
-1.49177e-15
1.82847e-11
-1.52331e-10
-1.37198e-15
4.24749e-12
-5.95046e-11
-1.35481e-15
1.63752e-11
-1.2884e-15
1.3327e-09
-2.28697e-09
5.63839e-15
1.47611e-09
-2.42575e-09
1.78443e-14
1.61071e-09
-2.54162e-09
-1.5788e-16
1.73328e-09
-2.63256e-09
-9.36991e-15
1.84113e-09
-2.69723e-09
-6.91419e-15
1.93197e-09
-2.7354e-09
-8.18741e-15
2.00428e-09
-2.74784e-09
-3.75587e-15
2.05716e-09
-2.73553e-09
2.77259e-15
2.09032e-09
-2.70089e-09
3.60348e-16
2.1042e-09
-2.64618e-09
2.4726e-15
2.09972e-09
-2.57446e-09
-1.06821e-15
2.07828e-09
-2.48875e-09
7.05956e-17
2.04161e-09
-2.3919e-09
-2.19569e-15
1.99161e-09
-2.28731e-09
-4.17275e-16
1.93029e-09
-2.17728e-09
-1.85641e-15
1.85965e-09
-2.06454e-09
3.5855e-17
1.78166e-09
-1.95122e-09
-1.19286e-15
1.69809e-09
-1.83904e-09
2.04945e-16
1.61059e-09
-1.72953e-09
-9.38598e-16
1.5206e-09
-1.62381e-09
5.62929e-17
1.42934e-09
-1.52279e-09
-9.45395e-16
1.33785e-09
-1.427e-09
-2.48068e-16
1.24699e-09
-1.33685e-09
-1.09687e-15
1.15743e-09
-1.25247e-09
-6.23995e-16
1.06971e-09
-1.17364e-09
-1.33812e-15
9.84184e-10
-1.10086e-09
-1.04032e-15
9.01177e-10
-1.03316e-09
-1.62884e-15
8.20846e-10
-9.70781e-10
-1.44144e-15
7.43344e-10
-9.12868e-10
-1.90399e-15
6.68762e-10
-8.58945e-10
-1.7795e-15
5.97104e-10
-8.08964e-10
-2.12907e-15
5.2845e-10
-7.61511e-10
-2.04481e-15
4.62816e-10
-7.16342e-10
-2.30518e-15
4.00273e-10
-6.72297e-10
-2.25319e-15
3.40921e-10
-6.2846e-10
-2.43804e-15
2.8489e-10
-5.83779e-10
-2.39276e-15
2.32419e-10
-5.36609e-10
-2.48939e-15
1.83811e-10
-4.856e-10
-2.21879e-15
1.39467e-10
-4.29205e-10
-2.07687e-15
9.99038e-11
-3.6591e-10
-1.79142e-15
6.57444e-11
-2.94781e-10
-1.65366e-15
3.77177e-11
-2.15998e-10
-1.46101e-15
1.66964e-11
-1.31333e-10
-1.40531e-15
3.74451e-12
-4.65765e-11
-1.32804e-15
2.00957e-11
-1.30209e-15
1.48037e-09
-2.44501e-09
9.14536e-15
1.63056e-09
-2.57577e-09
2.13074e-14
1.76873e-09
-2.67976e-09
3.31561e-15
1.89153e-09
-2.75543e-09
-1.11522e-14
1.99633e-09
-2.80208e-09
-6.68284e-15
2.08105e-09
-2.82021e-09
-1.36215e-14
2.14456e-09
-2.81138e-09
-3.91243e-15
2.18643e-09
-2.77736e-09
1.18359e-16
2.2069e-09
-2.72134e-09
2.59074e-15
2.20696e-09
-2.64621e-09
6.98242e-16
2.18809e-09
-2.55558e-09
1.26954e-15
2.15219e-09
-2.45285e-09
-2.0288e-15
2.10141e-09
-2.34113e-09
-3.47169e-16
2.03803e-09
-2.22392e-09
-2.60576e-15
1.96431e-09
-2.10356e-09
-3.64367e-16
1.88244e-09
-1.98268e-09
-1.91282e-15
1.79448e-09
-1.86326e-09
4.19546e-17
1.70228e-09
-1.74684e-09
-1.38314e-15
1.60745e-09
-1.63469e-09
5.58008e-17
1.51138e-09
-1.52773e-09
-1.1818e-15
1.41521e-09
-1.42662e-09
-1.83259e-16
1.31989e-09
-1.33168e-09
-1.19782e-15
1.22615e-09
-1.24311e-09
-5.40213e-16
1.13456e-09
-1.16088e-09
-1.35099e-15
1.04555e-09
-1.08463e-09
-9.46613e-16
9.59363e-10
-1.01469e-09
-1.59885e-15
8.76223e-10
-9.50026e-10
-1.35787e-15
7.96205e-10
-8.90777e-10
-1.87106e-15
7.19379e-10
-8.36056e-10
-1.71652e-15
6.4577e-10
-7.85348e-10
-2.11184e-15
5.75321e-10
-7.38537e-10
-2.00159e-15
5.08062e-10
-6.94271e-10
-2.30784e-15
4.43965e-10
-6.52269e-10
-2.21716e-15
3.83067e-10
-6.11425e-10
-2.46267e-15
3.25437e-10
-5.70854e-10
-2.39034e-15
2.71181e-10
-5.29553e-10
-2.56591e-15
2.20516e-10
-4.85974e-10
-2.46454e-15
1.73729e-10
-4.38842e-10
-2.33573e-15
1.31202e-10
-3.86706e-10
-2.04412e-15
9.34331e-11
-3.28166e-10
-1.85782e-15
6.10138e-11
-2.62386e-10
-1.61873e-15
3.46262e-11
-1.89634e-10
-1.4994e-15
1.50581e-11
-1.11788e-10
-1.37497e-15
3.22514e-12
-3.47673e-11
-1.35261e-15