/*--------------------------------*- C++ -*----------------------------------*\
| =========                 |                                                 |
| \\      /  F ield         | OpenFOAM: The Open Source CFD Toolbox           |
|  \\    /   O peration     | Version:  v2012                                 |
|   \\  /    A nd           | Website:  www.openfoam.com                      |
|    \\/     M anipulation  |                                                 |
\*---------------------------------------------------------------------------*/
FoamFile
{
    version     2.0;
    format      ascii;
    class       volScalarField;
    location    "0.85";
    object      p;
}
// * * * * * * * * * * * * * * * * * * * * * * * * * * * * * * * * * * * * * //

dimensions      [1 -1 -2 0 0 0 0];


internalField   nonuniform List<scalar> 
3326
(
3.48578e+06
3.48583e+06
3.48585e+06
3.48584e+06
3.48579e+06
3.4857e+06
3.48557e+06
3.48541e+06
3.48516e+06
3.4854e+06
3.48553e+06
3.48564e+06
3.48572e+06
3.48577e+06
3.48579e+06
3.48578e+06
3.48573e+06
3.48564e+06
3.48551e+06
3.48536e+06
3.4851e+06
3.43393e+06
3.44081e+06
3.44721e+06
3.45216e+06
3.45652e+06
3.46011e+06
3.46322e+06
3.46586e+06
3.46814e+06
3.47012e+06
3.47183e+06
3.47333e+06
3.47465e+06
3.47581e+06
3.47684e+06
3.47776e+06
3.47858e+06
3.47932e+06
3.47999e+06
3.4806e+06
3.48116e+06
3.48167e+06
3.48213e+06
3.48257e+06
3.48296e+06
3.48333e+06
3.48367e+06
3.48399e+06
3.48427e+06
3.48453e+06
3.48477e+06
3.48498e+06
3.48517e+06
3.48533e+06
3.48547e+06
3.48558e+06
3.48566e+06
3.48571e+06
3.48573e+06
3.48572e+06
3.48567e+06
3.48559e+06
3.48546e+06
3.48531e+06
3.48506e+06
3.43421e+06
3.44112e+06
3.44746e+06
3.4524e+06
3.45671e+06
3.46028e+06
3.46336e+06
3.46597e+06
3.46823e+06
3.47018e+06
3.47188e+06
3.47336e+06
3.47466e+06
3.47581e+06
3.47683e+06
3.47773e+06
3.47855e+06
3.47928e+06
3.47994e+06
3.48055e+06
3.4811e+06
3.48161e+06
3.48207e+06
3.4825e+06
3.4829e+06
3.48327e+06
3.48361e+06
3.48392e+06
3.48421e+06
3.48447e+06
3.48471e+06
3.48492e+06
3.48511e+06
3.48527e+06
3.48541e+06
3.48552e+06
3.4856e+06
3.48565e+06
3.48568e+06
3.48567e+06
3.48562e+06
3.48554e+06
3.48541e+06
3.48526e+06
3.48501e+06
3.43462e+06
3.44155e+06
3.44782e+06
3.45273e+06
3.457e+06
3.46052e+06
3.46356e+06
3.46614e+06
3.46837e+06
3.47029e+06
3.47196e+06
3.47342e+06
3.4747e+06
3.47583e+06
3.47683e+06
3.47773e+06
3.47853e+06
3.47925e+06
3.47991e+06
3.48051e+06
3.48105e+06
3.48156e+06
3.48202e+06
3.48245e+06
3.48284e+06
3.48321e+06
3.48355e+06
3.48386e+06
3.48415e+06
3.48441e+06
3.48465e+06
3.48486e+06
3.48505e+06
3.48522e+06
3.48535e+06
3.48547e+06
3.48555e+06
3.4856e+06
3.48562e+06
3.48562e+06
3.48557e+06
3.48549e+06
3.48536e+06
3.48521e+06
3.48497e+06
3.43517e+06
3.44212e+06
3.4483e+06
3.45316e+06
3.45736e+06
3.46084e+06
3.46383e+06
3.46637e+06
3.46855e+06
3.47044e+06
3.47208e+06
3.47351e+06
3.47476e+06
3.47587e+06
3.47686e+06
3.47774e+06
3.47853e+06
3.47924e+06
3.47989e+06
3.48048e+06
3.48102e+06
3.48151e+06
3.48197e+06
3.4824e+06
3.48279e+06
3.48315e+06
3.48349e+06
3.4838e+06
3.48409e+06
3.48435e+06
3.48459e+06
3.48481e+06
3.485e+06
3.48516e+06
3.4853e+06
3.48541e+06
3.4855e+06
3.48555e+06
3.48558e+06
3.48557e+06
3.48552e+06
3.48545e+06
3.48532e+06
3.48517e+06
3.48493e+06
3.43586e+06
3.44281e+06
3.44888e+06
3.4537e+06
3.45782e+06
3.46124e+06
3.46417e+06
3.46665e+06
3.46879e+06
3.47063e+06
3.47223e+06
3.47363e+06
3.47485e+06
3.47594e+06
3.4769e+06
3.47776e+06
3.47853e+06
3.47923e+06
3.47987e+06
3.48045e+06
3.48098e+06
3.48147e+06
3.48193e+06
3.48235e+06
3.48274e+06
3.4831e+06
3.48344e+06
3.48375e+06
3.48404e+06
3.4843e+06
3.48454e+06
3.48476e+06
3.48495e+06
3.48511e+06
3.48525e+06
3.48537e+06
3.48545e+06
3.48551e+06
3.48553e+06
3.48552e+06
3.48548e+06
3.48541e+06
3.48528e+06
3.48514e+06
3.4849e+06
3.4367e+06
3.44365e+06
3.4496e+06
3.45434e+06
3.45838e+06
3.46172e+06
3.46457e+06
3.46699e+06
3.46907e+06
3.47086e+06
3.47242e+06
3.47378e+06
3.47497e+06
3.47602e+06
3.47696e+06
3.4778e+06
3.47855e+06
3.47924e+06
3.47986e+06
3.48043e+06
3.48096e+06
3.48144e+06
3.48189e+06
3.48231e+06
3.48269e+06
3.48305e+06
3.48339e+06
3.4837e+06
3.48399e+06
3.48425e+06
3.48449e+06
3.48471e+06
3.4849e+06
3.48507e+06
3.48521e+06
3.48532e+06
3.48541e+06
3.48546e+06
3.48549e+06
3.48548e+06
3.48544e+06
3.48537e+06
3.48525e+06
3.4851e+06
3.48487e+06
3.43774e+06
3.44465e+06
3.45045e+06
3.4551e+06
3.45903e+06
3.46228e+06
3.46505e+06
3.46739e+06
3.4694e+06
3.47114e+06
3.47264e+06
3.47395e+06
3.47511e+06
3.47613e+06
3.47704e+06
3.47785e+06
3.47859e+06
3.47925e+06
3.47986e+06
3.48042e+06
3.48094e+06
3.48141e+06
3.48186e+06
3.48227e+06
3.48265e+06
3.48301e+06
3.48334e+06
3.48365e+06
3.48394e+06
3.4842e+06
3.48444e+06
3.48466e+06
3.48485e+06
3.48502e+06
3.48516e+06
3.48528e+06
3.48537e+06
3.48542e+06
3.48545e+06
3.48545e+06
3.48541e+06
3.48534e+06
3.48522e+06
3.48508e+06
3.48484e+06
3.43901e+06
3.44583e+06
3.45145e+06
3.45599e+06
3.45979e+06
3.46293e+06
3.4656e+06
3.46785e+06
3.46979e+06
3.47145e+06
3.47289e+06
3.47416e+06
3.47527e+06
3.47625e+06
3.47713e+06
3.47792e+06
3.47863e+06
3.47928e+06
3.47987e+06
3.48042e+06
3.48092e+06
3.48139e+06
3.48183e+06
3.48223e+06
3.48261e+06
3.48297e+06
3.4833e+06
3.48361e+06
3.4839e+06
3.48416e+06
3.4844e+06
3.48462e+06
3.48481e+06
3.48498e+06
3.48512e+06
3.48524e+06
3.48533e+06
3.48539e+06
3.48542e+06
3.48541e+06
3.48537e+06
3.48531e+06
3.48519e+06
3.48505e+06
3.48482e+06
3.44055e+06
3.44721e+06
3.45263e+06
3.45701e+06
3.46065e+06
3.46367e+06
3.46622e+06
3.46837e+06
3.47022e+06
3.4718e+06
3.47318e+06
3.47439e+06
3.47545e+06
3.47639e+06
3.47723e+06
3.47799e+06
3.47868e+06
3.47931e+06
3.47989e+06
3.48042e+06
3.48091e+06
3.48137e+06
3.4818e+06
3.4822e+06
3.48258e+06
3.48293e+06
3.48326e+06
3.48357e+06
3.48386e+06
3.48412e+06
3.48436e+06
3.48458e+06
3.48477e+06
3.48494e+06
3.48509e+06
3.48521e+06
3.48529e+06
3.48535e+06
3.48538e+06
3.48538e+06
3.48535e+06
3.48528e+06
3.48516e+06
3.48503e+06
3.4848e+06
3.44239e+06
3.44882e+06
3.45399e+06
3.45818e+06
3.46164e+06
3.4645e+06
3.46691e+06
3.46895e+06
3.47069e+06
3.47219e+06
3.4735e+06
3.47464e+06
3.47565e+06
3.47655e+06
3.47735e+06
3.47808e+06
3.47874e+06
3.47935e+06
3.47991e+06
3.48042e+06
3.48091e+06
3.48136e+06
3.48178e+06
3.48218e+06
3.48255e+06
3.4829e+06
3.48323e+06
3.48354e+06
3.48382e+06
3.48408e+06
3.48433e+06
3.48454e+06
3.48474e+06
3.48491e+06
3.48506e+06
3.48517e+06
3.48526e+06
3.48532e+06
3.48536e+06
3.48535e+06
3.48532e+06
3.48525e+06
3.48514e+06
3.48501e+06
3.48479e+06
3.44456e+06
3.45067e+06
3.45555e+06
3.4595e+06
3.46274e+06
3.46543e+06
3.46768e+06
3.46959e+06
3.47122e+06
3.47262e+06
3.47385e+06
3.47492e+06
3.47587e+06
3.47672e+06
3.47748e+06
3.47818e+06
3.47881e+06
3.47939e+06
3.47993e+06
3.48044e+06
3.48091e+06
3.48135e+06
3.48176e+06
3.48215e+06
3.48252e+06
3.48287e+06
3.4832e+06
3.4835e+06
3.48379e+06
3.48405e+06
3.48429e+06
3.48451e+06
3.48471e+06
3.48488e+06
3.48503e+06
3.48514e+06
3.48524e+06
3.4853e+06
3.48533e+06
3.48533e+06
3.4853e+06
3.48523e+06
3.48512e+06
3.48499e+06
3.48478e+06
3.44708e+06
3.45278e+06
3.45731e+06
3.46097e+06
3.46396e+06
3.46644e+06
3.46852e+06
3.47028e+06
3.47178e+06
3.47308e+06
3.47422e+06
3.47522e+06
3.47611e+06
3.4769e+06
3.47762e+06
3.47828e+06
3.47889e+06
3.47944e+06
3.47996e+06
3.48045e+06
3.48091e+06
3.48134e+06
3.48175e+06
3.48213e+06
3.4825e+06
3.48284e+06
3.48317e+06
3.48347e+06
3.48376e+06
3.48402e+06
3.48426e+06
3.48448e+06
3.48468e+06
3.48485e+06
3.485e+06
3.48512e+06
3.48521e+06
3.48527e+06
3.48531e+06
3.48531e+06
3.48528e+06
3.48521e+06
3.48511e+06
3.48498e+06
3.48477e+06
3.44997e+06
3.45516e+06
3.45927e+06
3.46259e+06
3.4653e+06
3.46755e+06
3.46943e+06
3.47102e+06
3.47239e+06
3.47358e+06
3.47461e+06
3.47553e+06
3.47636e+06
3.4771e+06
3.47777e+06
3.47839e+06
3.47897e+06
3.4795e+06
3.48e+06
3.48047e+06
3.48092e+06
3.48134e+06
3.48174e+06
3.48212e+06
3.48248e+06
3.48282e+06
3.48314e+06
3.48344e+06
3.48373e+06
3.48399e+06
3.48424e+06
3.48446e+06
3.48466e+06
3.48483e+06
3.48498e+06
3.4851e+06
3.48519e+06
3.48525e+06
3.48529e+06
3.48529e+06
3.48526e+06
3.4852e+06
3.4851e+06
3.48497e+06
3.48477e+06
3.45322e+06
3.4578e+06
3.46144e+06
3.46436e+06
3.46675e+06
3.46873e+06
3.4704e+06
3.47181e+06
3.47303e+06
3.47409e+06
3.47503e+06
3.47587e+06
3.47662e+06
3.4773e+06
3.47793e+06
3.47851e+06
3.47905e+06
3.47956e+06
3.48004e+06
3.48049e+06
3.48092e+06
3.48133e+06
3.48173e+06
3.4821e+06
3.48246e+06
3.4828e+06
3.48312e+06
3.48342e+06
3.4837e+06
3.48397e+06
3.48421e+06
3.48443e+06
3.48463e+06
3.48481e+06
3.48496e+06
3.48508e+06
3.48517e+06
3.48524e+06
3.48527e+06
3.48528e+06
3.48525e+06
3.48519e+06
3.48509e+06
3.48497e+06
3.48477e+06
3.45681e+06
3.46069e+06
3.46378e+06
3.46626e+06
3.4683e+06
3.46999e+06
3.47142e+06
3.47264e+06
3.4737e+06
3.47463e+06
3.47546e+06
3.47621e+06
3.47689e+06
3.47751e+06
3.47809e+06
3.47863e+06
3.47914e+06
3.47962e+06
3.48008e+06
3.48052e+06
3.48093e+06
3.48133e+06
3.48172e+06
3.48209e+06
3.48244e+06
3.48278e+06
3.4831e+06
3.4834e+06
3.48368e+06
3.48395e+06
3.48419e+06
3.48442e+06
3.48462e+06
3.48479e+06
3.48494e+06
3.48506e+06
3.48516e+06
3.48522e+06
3.48526e+06
3.48526e+06
3.48524e+06
3.48518e+06
3.48508e+06
3.48497e+06
3.48478e+06
3.46069e+06
3.46379e+06
3.46628e+06
3.46828e+06
3.46993e+06
3.47131e+06
3.47248e+06
3.4735e+06
3.47439e+06
3.47519e+06
3.47591e+06
3.47656e+06
3.47716e+06
3.47772e+06
3.47825e+06
3.47875e+06
3.47923e+06
3.47968e+06
3.48012e+06
3.48054e+06
3.48094e+06
3.48134e+06
3.48171e+06
3.48208e+06
3.48243e+06
3.48276e+06
3.48308e+06
3.48338e+06
3.48366e+06
3.48393e+06
3.48418e+06
3.4844e+06
3.4846e+06
3.48478e+06
3.48493e+06
3.48505e+06
3.48515e+06
3.48521e+06
3.48525e+06
3.48526e+06
3.48523e+06
3.48517e+06
3.48508e+06
3.48497e+06
3.48478e+06
3.46479e+06
3.46706e+06
3.46889e+06
3.47038e+06
3.47162e+06
3.47267e+06
3.47358e+06
3.47438e+06
3.4751e+06
3.47575e+06
3.47635e+06
3.47691e+06
3.47744e+06
3.47794e+06
3.47842e+06
3.47887e+06
3.47932e+06
3.47974e+06
3.48016e+06
3.48056e+06
3.48096e+06
3.48134e+06
3.48171e+06
3.48207e+06
3.48241e+06
3.48274e+06
3.48306e+06
3.48336e+06
3.48365e+06
3.48391e+06
3.48416e+06
3.48439e+06
3.48459e+06
3.48477e+06
3.48492e+06
3.48504e+06
3.48514e+06
3.48521e+06
3.48524e+06
3.48525e+06
3.48522e+06
3.48517e+06
3.48508e+06
3.48497e+06
3.48479e+06
3.46905e+06
3.47044e+06
3.47158e+06
3.47253e+06
3.47334e+06
3.47405e+06
3.47469e+06
3.47527e+06
3.47581e+06
3.47632e+06
3.4768e+06
3.47727e+06
3.47771e+06
3.47815e+06
3.47858e+06
3.47899e+06
3.4794e+06
3.4798e+06
3.4802e+06
3.48059e+06
3.48097e+06
3.48134e+06
3.4817e+06
3.48206e+06
3.4824e+06
3.48273e+06
3.48305e+06
3.48335e+06
3.48363e+06
3.4839e+06
3.48415e+06
3.48438e+06
3.48458e+06
3.48476e+06
3.48491e+06
3.48504e+06
3.48514e+06
3.4852e+06
3.48524e+06
3.48525e+06
3.48522e+06
3.48517e+06
3.48508e+06
3.48498e+06
3.48481e+06
3.47338e+06
3.47387e+06
3.4743e+06
3.4747e+06
3.47507e+06
3.47544e+06
3.4758e+06
3.47616e+06
3.47652e+06
3.47688e+06
3.47724e+06
3.47761e+06
3.47798e+06
3.47836e+06
3.47873e+06
3.47911e+06
3.47949e+06
3.47986e+06
3.48024e+06
3.48061e+06
3.48098e+06
3.48134e+06
3.4817e+06
3.48205e+06
3.48239e+06
3.48272e+06
3.48304e+06
3.48334e+06
3.48362e+06
3.48389e+06
3.48414e+06
3.48437e+06
3.48457e+06
3.48476e+06
3.48491e+06
3.48504e+06
3.48513e+06
3.4852e+06
3.48524e+06
3.48525e+06
3.48522e+06
3.48517e+06
3.48509e+06
3.48498e+06
3.48482e+06
3.47768e+06
3.47728e+06
3.477e+06
3.47685e+06
3.47679e+06
3.47681e+06
3.47689e+06
3.47703e+06
3.47721e+06
3.47743e+06
3.47767e+06
3.47795e+06
3.47824e+06
3.47856e+06
3.47888e+06
3.47922e+06
3.47957e+06
3.47992e+06
3.48027e+06
3.48063e+06
3.48099e+06
3.48135e+06
3.4817e+06
3.48204e+06
3.48238e+06
3.48271e+06
3.48303e+06
3.48333e+06
3.48362e+06
3.48389e+06
3.48414e+06
3.48437e+06
3.48457e+06
3.48476e+06
3.48491e+06
3.48504e+06
3.48514e+06
3.48521e+06
3.48524e+06
3.48525e+06
3.48523e+06
3.48518e+06
3.48509e+06
3.485e+06
3.48484e+06
3.48188e+06
3.48061e+06
3.47963e+06
3.47895e+06
3.47845e+06
3.47814e+06
3.47795e+06
3.47787e+06
3.47787e+06
3.47795e+06
3.47809e+06
3.47827e+06
3.47849e+06
3.47874e+06
3.47902e+06
3.47932e+06
3.47964e+06
3.47997e+06
3.48031e+06
3.48065e+06
3.481e+06
3.48135e+06
3.48169e+06
3.48204e+06
3.48237e+06
3.4827e+06
3.48302e+06
3.48332e+06
3.48361e+06
3.48388e+06
3.48414e+06
3.48437e+06
3.48458e+06
3.48476e+06
3.48491e+06
3.48504e+06
3.48514e+06
3.48521e+06
3.48525e+06
3.48526e+06
3.48523e+06
3.48518e+06
3.4851e+06
3.48501e+06
3.48486e+06
3.48588e+06
3.4838e+06
3.48215e+06
3.48095e+06
3.48005e+06
3.47941e+06
3.47896e+06
3.47867e+06
3.47851e+06
3.47845e+06
3.47848e+06
3.47857e+06
3.47872e+06
3.47892e+06
3.47915e+06
3.47941e+06
3.4797e+06
3.48001e+06
3.48033e+06
3.48066e+06
3.481e+06
3.48135e+06
3.48169e+06
3.48203e+06
3.48237e+06
3.48269e+06
3.48301e+06
3.48332e+06
3.48361e+06
3.48388e+06
3.48414e+06
3.48437e+06
3.48458e+06
3.48477e+06
3.48492e+06
3.48505e+06
3.48515e+06
3.48522e+06
3.48526e+06
3.48527e+06
3.48524e+06
3.48519e+06
3.48511e+06
3.48502e+06
3.48489e+06
3.48961e+06
3.4868e+06
3.48451e+06
3.48284e+06
3.48155e+06
3.4806e+06
3.47991e+06
3.47942e+06
3.4791e+06
3.47891e+06
3.47884e+06
3.47885e+06
3.47893e+06
3.47907e+06
3.47927e+06
3.4795e+06
3.47976e+06
3.48005e+06
3.48035e+06
3.48068e+06
3.48101e+06
3.48134e+06
3.48168e+06
3.48202e+06
3.48236e+06
3.48269e+06
3.48301e+06
3.48332e+06
3.48361e+06
3.48388e+06
3.48414e+06
3.48438e+06
3.48459e+06
3.48478e+06
3.48493e+06
3.48506e+06
3.48516e+06
3.48523e+06
3.48527e+06
3.48528e+06
3.48525e+06
3.48521e+06
3.48513e+06
3.48504e+06
3.48491e+06
3.493e+06
3.48954e+06
3.48668e+06
3.48458e+06
3.48293e+06
3.4817e+06
3.48078e+06
3.48011e+06
3.47964e+06
3.47934e+06
3.47916e+06
3.4791e+06
3.47912e+06
3.47921e+06
3.47937e+06
3.47957e+06
3.47981e+06
3.48008e+06
3.48037e+06
3.48068e+06
3.48101e+06
3.48134e+06
3.48168e+06
3.48202e+06
3.48235e+06
3.48268e+06
3.48301e+06
3.48332e+06
3.48361e+06
3.48389e+06
3.48415e+06
3.48439e+06
3.4846e+06
3.48479e+06
3.48495e+06
3.48508e+06
3.48518e+06
3.48525e+06
3.48529e+06
3.48529e+06
3.48527e+06
3.48522e+06
3.48514e+06
3.48506e+06
3.48494e+06
3.49605e+06
3.49201e+06
3.48865e+06
3.48616e+06
3.48419e+06
3.4827e+06
3.48157e+06
3.48073e+06
3.48013e+06
3.47971e+06
3.47945e+06
3.47931e+06
3.47928e+06
3.47933e+06
3.47945e+06
3.47962e+06
3.47984e+06
3.4801e+06
3.48038e+06
3.48068e+06
3.481e+06
3.48133e+06
3.48167e+06
3.48201e+06
3.48235e+06
3.48268e+06
3.48301e+06
3.48332e+06
3.48362e+06
3.4839e+06
3.48416e+06
3.4844e+06
3.48462e+06
3.48481e+06
3.48497e+06
3.4851e+06
3.4852e+06
3.48527e+06
3.48531e+06
3.48531e+06
3.48529e+06
3.48524e+06
3.48516e+06
3.48508e+06
3.48496e+06
3.51247e+06
3.50541e+06
3.49879e+06
3.49421e+06
3.4904e+06
3.48755e+06
3.4853e+06
3.48358e+06
3.48226e+06
3.48128e+06
3.48055e+06
3.48004e+06
3.4797e+06
3.4795e+06
3.47942e+06
3.47943e+06
3.47951e+06
3.47966e+06
3.47987e+06
3.48011e+06
3.48038e+06
3.48068e+06
3.481e+06
3.48133e+06
3.48166e+06
3.482e+06
3.48234e+06
3.48268e+06
3.48301e+06
3.48332e+06
3.48363e+06
3.48391e+06
3.48418e+06
3.48442e+06
3.48464e+06
3.48483e+06
3.48499e+06
3.48512e+06
3.48522e+06
3.48529e+06
3.48533e+06
3.48533e+06
3.4853e+06
3.48525e+06
3.48518e+06
3.4851e+06
3.48499e+06
3.51646e+06
3.50845e+06
3.50123e+06
3.49612e+06
3.49193e+06
3.48876e+06
3.48626e+06
3.48434e+06
3.48286e+06
3.48174e+06
3.48091e+06
3.48031e+06
3.4799e+06
3.47965e+06
3.47952e+06
3.4795e+06
3.47956e+06
3.47969e+06
3.47988e+06
3.48011e+06
3.48038e+06
3.48067e+06
3.48099e+06
3.48132e+06
3.48165e+06
3.482e+06
3.48234e+06
3.48268e+06
3.48301e+06
3.48333e+06
3.48364e+06
3.48393e+06
3.48419e+06
3.48444e+06
3.48466e+06
3.48485e+06
3.48502e+06
3.48515e+06
3.48525e+06
3.48532e+06
3.48535e+06
3.48535e+06
3.48533e+06
3.48527e+06
3.4852e+06
3.48512e+06
3.48502e+06
3.52035e+06
3.51105e+06
3.50336e+06
3.49772e+06
3.49322e+06
3.48977e+06
3.48707e+06
3.48497e+06
3.48336e+06
3.48212e+06
3.4812e+06
3.48053e+06
3.48006e+06
3.47976e+06
3.4796e+06
3.47955e+06
3.47959e+06
3.4797e+06
3.47988e+06
3.4801e+06
3.48036e+06
3.48066e+06
3.48097e+06
3.4813e+06
3.48164e+06
3.48199e+06
3.48234e+06
3.48268e+06
3.48302e+06
3.48334e+06
3.48365e+06
3.48394e+06
3.48422e+06
3.48447e+06
3.48469e+06
3.48488e+06
3.48505e+06
3.48518e+06
3.48528e+06
3.48535e+06
3.48538e+06
3.48538e+06
3.48535e+06
3.48529e+06
3.48522e+06
3.48514e+06
3.48505e+06
3.52386e+06
3.51313e+06
3.50516e+06
3.49903e+06
3.49429e+06
3.4906e+06
3.48772e+06
3.48548e+06
3.48375e+06
3.48242e+06
3.48142e+06
3.48069e+06
3.48017e+06
3.47984e+06
3.47964e+06
3.47957e+06
3.47959e+06
3.47969e+06
3.47986e+06
3.48008e+06
3.48034e+06
3.48064e+06
3.48095e+06
3.48129e+06
3.48163e+06
3.48198e+06
3.48233e+06
3.48268e+06
3.48302e+06
3.48335e+06
3.48367e+06
3.48397e+06
3.48424e+06
3.48449e+06
3.48472e+06
3.48492e+06
3.48508e+06
3.48522e+06
3.48532e+06
3.48538e+06
3.48541e+06
3.48541e+06
3.48538e+06
3.48532e+06
3.48524e+06
3.48516e+06
3.48507e+06
3.52621e+06
3.51434e+06
3.5064e+06
3.49993e+06
3.49506e+06
3.4912e+06
3.48821e+06
3.48586e+06
3.48404e+06
3.48264e+06
3.48158e+06
3.4808e+06
3.48024e+06
3.47987e+06
3.47966e+06
3.47956e+06
3.47958e+06
3.47967e+06
3.47983e+06
3.48005e+06
3.48031e+06
3.48061e+06
3.48093e+06
3.48127e+06
3.48162e+06
3.48198e+06
3.48233e+06
3.48269e+06
3.48303e+06
3.48337e+06
3.48369e+06
3.48399e+06
3.48427e+06
3.48453e+06
3.48476e+06
3.48496e+06
3.48512e+06
3.48526e+06
3.48536e+06
3.48542e+06
3.48545e+06
3.48544e+06
3.4854e+06
3.48534e+06
3.48526e+06
3.48518e+06
3.4851e+06
3.52747e+06
3.51517e+06
3.50729e+06
3.50061e+06
3.49565e+06
3.49165e+06
3.48856e+06
3.48613e+06
3.48423e+06
3.48277e+06
3.48167e+06
3.48085e+06
3.48026e+06
3.47987e+06
3.47964e+06
3.47953e+06
3.47954e+06
3.47963e+06
3.47979e+06
3.48001e+06
3.48028e+06
3.48058e+06
3.4809e+06
3.48125e+06
3.4816e+06
3.48197e+06
3.48233e+06
3.48269e+06
3.48305e+06
3.48339e+06
3.48371e+06
3.48402e+06
3.48431e+06
3.48457e+06
3.4848e+06
3.485e+06
3.48517e+06
3.4853e+06
3.4854e+06
3.48546e+06
3.48549e+06
3.48548e+06
3.48543e+06
3.48537e+06
3.48528e+06
3.4852e+06
3.48512e+06
3.52734e+06
3.51543e+06
3.50757e+06
3.50092e+06
3.49594e+06
3.4919e+06
3.48876e+06
3.48626e+06
3.48433e+06
3.48282e+06
3.48168e+06
3.48084e+06
3.48023e+06
3.47983e+06
3.47958e+06
3.47948e+06
3.47948e+06
3.47957e+06
3.47974e+06
3.47996e+06
3.48023e+06
3.48054e+06
3.48087e+06
3.48122e+06
3.48159e+06
3.48196e+06
3.48233e+06
3.4827e+06
3.48306e+06
3.48341e+06
3.48374e+06
3.48405e+06
3.48434e+06
3.48461e+06
3.48484e+06
3.48505e+06
3.48522e+06
3.48535e+06
3.48545e+06
3.48551e+06
3.48553e+06
3.48552e+06
3.48547e+06
3.48539e+06
3.4853e+06
3.48521e+06
3.48514e+06
3.52771e+06
3.51617e+06
3.50802e+06
3.50132e+06
3.49621e+06
3.49208e+06
3.48886e+06
3.48631e+06
3.48433e+06
3.4828e+06
3.48163e+06
3.48077e+06
3.48015e+06
3.47974e+06
3.4795e+06
3.47939e+06
3.4794e+06
3.47949e+06
3.47967e+06
3.4799e+06
3.48018e+06
3.48049e+06
3.48084e+06
3.4812e+06
3.48157e+06
3.48195e+06
3.48233e+06
3.48271e+06
3.48308e+06
3.48343e+06
3.48377e+06
3.48409e+06
3.48439e+06
3.48465e+06
3.48489e+06
3.4851e+06
3.48527e+06
3.4854e+06
3.4855e+06
3.48556e+06
3.48558e+06
3.48556e+06
3.4855e+06
3.48542e+06
3.48532e+06
3.48523e+06
3.48515e+06
3.5271e+06
3.51587e+06
3.50778e+06
3.50119e+06
3.49611e+06
3.49199e+06
3.48877e+06
3.4862e+06
3.48421e+06
3.48266e+06
3.48149e+06
3.48063e+06
3.48001e+06
3.47961e+06
3.47937e+06
3.47927e+06
3.47929e+06
3.4794e+06
3.47958e+06
3.47982e+06
3.48011e+06
3.48044e+06
3.4808e+06
3.48117e+06
3.48155e+06
3.48194e+06
3.48234e+06
3.48272e+06
3.4831e+06
3.48346e+06
3.48381e+06
3.48413e+06
3.48443e+06
3.4847e+06
3.48495e+06
3.48516e+06
3.48533e+06
3.48546e+06
3.48556e+06
3.48561e+06
3.48563e+06
3.4856e+06
3.48554e+06
3.48545e+06
3.48534e+06
3.48524e+06
3.48516e+06
3.52947e+06
3.51716e+06
3.50829e+06
3.50135e+06
3.49606e+06
3.49184e+06
3.48856e+06
3.48597e+06
3.48397e+06
3.48242e+06
3.48126e+06
3.4804e+06
3.4798e+06
3.47941e+06
3.47919e+06
3.47911e+06
3.47914e+06
3.47927e+06
3.47947e+06
3.47973e+06
3.48004e+06
3.48038e+06
3.48075e+06
3.48113e+06
3.48153e+06
3.48194e+06
3.48234e+06
3.48274e+06
3.48312e+06
3.4835e+06
3.48385e+06
3.48418e+06
3.48449e+06
3.48476e+06
3.48501e+06
3.48522e+06
3.4854e+06
3.48553e+06
3.48562e+06
3.48568e+06
3.48569e+06
3.48566e+06
3.48559e+06
3.48549e+06
3.48536e+06
3.48525e+06
3.48516e+06
3.52597e+06
3.51505e+06
3.50689e+06
3.50027e+06
3.49518e+06
3.4911e+06
3.48791e+06
3.4854e+06
3.48346e+06
3.48197e+06
3.48086e+06
3.48005e+06
3.47949e+06
3.47914e+06
3.47895e+06
3.4789e+06
3.47896e+06
3.47912e+06
3.47934e+06
3.47962e+06
3.47995e+06
3.48031e+06
3.4807e+06
3.4811e+06
3.48151e+06
3.48193e+06
3.48234e+06
3.48275e+06
3.48315e+06
3.48353e+06
3.48389e+06
3.48423e+06
3.48454e+06
3.48482e+06
3.48507e+06
3.48528e+06
3.48546e+06
3.48559e+06
3.48569e+06
3.48574e+06
3.48574e+06
3.4857e+06
3.48563e+06
3.48552e+06
3.48538e+06
3.48526e+06
3.48516e+06
3.48578e+06
3.48583e+06
3.48585e+06
3.48584e+06
3.48579e+06
3.4857e+06
3.48557e+06
3.48541e+06
3.48516e+06
3.4854e+06
3.48553e+06
3.48564e+06
3.48572e+06
3.48577e+06
3.48579e+06
3.48578e+06
3.48573e+06
3.48564e+06
3.48551e+06
3.48536e+06
3.4851e+06
3.43393e+06
3.44081e+06
3.44721e+06
3.45216e+06
3.45652e+06
3.46011e+06
3.46322e+06
3.46586e+06
3.46814e+06
3.47012e+06
3.47183e+06
3.47333e+06
3.47465e+06
3.47581e+06
3.47684e+06
3.47776e+06
3.47858e+06
3.47932e+06
3.47999e+06
3.4806e+06
3.48116e+06
3.48167e+06
3.48213e+06
3.48257e+06
3.48296e+06
3.48333e+06
3.48367e+06
3.48399e+06
3.48427e+06
3.48453e+06
3.48477e+06
3.48498e+06
3.48517e+06
3.48533e+06
3.48547e+06
3.48558e+06
3.48566e+06
3.48571e+06
3.48573e+06
3.48572e+06
3.48567e+06
3.48559e+06
3.48546e+06
3.48531e+06
3.48506e+06
3.43421e+06
3.44112e+06
3.44746e+06
3.4524e+06
3.45671e+06
3.46028e+06
3.46336e+06
3.46597e+06
3.46823e+06
3.47018e+06
3.47188e+06
3.47336e+06
3.47466e+06
3.47581e+06
3.47683e+06
3.47773e+06
3.47855e+06
3.47928e+06
3.47994e+06
3.48055e+06
3.4811e+06
3.48161e+06
3.48207e+06
3.4825e+06
3.4829e+06
3.48327e+06
3.48361e+06
3.48392e+06
3.48421e+06
3.48447e+06
3.48471e+06
3.48492e+06
3.48511e+06
3.48527e+06
3.48541e+06
3.48552e+06
3.4856e+06
3.48565e+06
3.48568e+06
3.48567e+06
3.48562e+06
3.48554e+06
3.48541e+06
3.48526e+06
3.48501e+06
3.43462e+06
3.44155e+06
3.44782e+06
3.45273e+06
3.457e+06
3.46052e+06
3.46356e+06
3.46614e+06
3.46837e+06
3.47029e+06
3.47196e+06
3.47342e+06
3.4747e+06
3.47583e+06
3.47683e+06
3.47773e+06
3.47853e+06
3.47925e+06
3.47991e+06
3.48051e+06
3.48105e+06
3.48156e+06
3.48202e+06
3.48245e+06
3.48284e+06
3.48321e+06
3.48355e+06
3.48386e+06
3.48415e+06
3.48441e+06
3.48465e+06
3.48486e+06
3.48505e+06
3.48522e+06
3.48535e+06
3.48547e+06
3.48555e+06
3.4856e+06
3.48562e+06
3.48562e+06
3.48557e+06
3.48549e+06
3.48536e+06
3.48521e+06
3.48497e+06
3.43517e+06
3.44212e+06
3.4483e+06
3.45316e+06
3.45736e+06
3.46084e+06
3.46383e+06
3.46637e+06
3.46855e+06
3.47044e+06
3.47208e+06
3.47351e+06
3.47476e+06
3.47587e+06
3.47686e+06
3.47774e+06
3.47853e+06
3.47924e+06
3.47989e+06
3.48048e+06
3.48102e+06
3.48151e+06
3.48197e+06
3.4824e+06
3.48279e+06
3.48315e+06
3.48349e+06
3.4838e+06
3.48409e+06
3.48435e+06
3.48459e+06
3.48481e+06
3.485e+06
3.48516e+06
3.4853e+06
3.48541e+06
3.4855e+06
3.48555e+06
3.48558e+06
3.48557e+06
3.48552e+06
3.48545e+06
3.48532e+06
3.48517e+06
3.48493e+06
3.43586e+06
3.44281e+06
3.44888e+06
3.4537e+06
3.45782e+06
3.46124e+06
3.46417e+06
3.46665e+06
3.46879e+06
3.47063e+06
3.47223e+06
3.47363e+06
3.47485e+06
3.47594e+06
3.4769e+06
3.47776e+06
3.47853e+06
3.47923e+06
3.47987e+06
3.48045e+06
3.48098e+06
3.48147e+06
3.48193e+06
3.48235e+06
3.48274e+06
3.4831e+06
3.48344e+06
3.48375e+06
3.48404e+06
3.4843e+06
3.48454e+06
3.48476e+06
3.48495e+06
3.48511e+06
3.48525e+06
3.48537e+06
3.48545e+06
3.48551e+06
3.48553e+06
3.48552e+06
3.48548e+06
3.48541e+06
3.48528e+06
3.48514e+06
3.4849e+06
3.4367e+06
3.44365e+06
3.4496e+06
3.45434e+06
3.45838e+06
3.46172e+06
3.46457e+06
3.46699e+06
3.46907e+06
3.47086e+06
3.47242e+06
3.47378e+06
3.47497e+06
3.47602e+06
3.47696e+06
3.4778e+06
3.47855e+06
3.47924e+06
3.47986e+06
3.48043e+06
3.48096e+06
3.48144e+06
3.48189e+06
3.48231e+06
3.48269e+06
3.48305e+06
3.48339e+06
3.4837e+06
3.48399e+06
3.48425e+06
3.48449e+06
3.48471e+06
3.4849e+06
3.48507e+06
3.48521e+06
3.48532e+06
3.48541e+06
3.48546e+06
3.48549e+06
3.48548e+06
3.48544e+06
3.48537e+06
3.48525e+06
3.4851e+06
3.48487e+06
3.43774e+06
3.44465e+06
3.45045e+06
3.4551e+06
3.45903e+06
3.46228e+06
3.46505e+06
3.46739e+06
3.4694e+06
3.47114e+06
3.47264e+06
3.47395e+06
3.47511e+06
3.47613e+06
3.47704e+06
3.47785e+06
3.47859e+06
3.47925e+06
3.47986e+06
3.48042e+06
3.48094e+06
3.48141e+06
3.48186e+06
3.48227e+06
3.48265e+06
3.48301e+06
3.48334e+06
3.48365e+06
3.48394e+06
3.4842e+06
3.48444e+06
3.48466e+06
3.48485e+06
3.48502e+06
3.48516e+06
3.48528e+06
3.48537e+06
3.48542e+06
3.48545e+06
3.48545e+06
3.48541e+06
3.48534e+06
3.48522e+06
3.48508e+06
3.48484e+06
3.43901e+06
3.44583e+06
3.45145e+06
3.45599e+06
3.45979e+06
3.46293e+06
3.4656e+06
3.46785e+06
3.46979e+06
3.47145e+06
3.47289e+06
3.47416e+06
3.47527e+06
3.47625e+06
3.47713e+06
3.47792e+06
3.47863e+06
3.47928e+06
3.47987e+06
3.48042e+06
3.48092e+06
3.48139e+06
3.48183e+06
3.48223e+06
3.48261e+06
3.48297e+06
3.4833e+06
3.48361e+06
3.4839e+06
3.48416e+06
3.4844e+06
3.48462e+06
3.48481e+06
3.48498e+06
3.48512e+06
3.48524e+06
3.48533e+06
3.48539e+06
3.48542e+06
3.48541e+06
3.48537e+06
3.48531e+06
3.48519e+06
3.48505e+06
3.48482e+06
3.44055e+06
3.44721e+06
3.45263e+06
3.45701e+06
3.46065e+06
3.46367e+06
3.46622e+06
3.46837e+06
3.47022e+06
3.4718e+06
3.47318e+06
3.47439e+06
3.47545e+06
3.47639e+06
3.47723e+06
3.47799e+06
3.47868e+06
3.47931e+06
3.47989e+06
3.48042e+06
3.48091e+06
3.48137e+06
3.4818e+06
3.4822e+06
3.48258e+06
3.48293e+06
3.48326e+06
3.48357e+06
3.48386e+06
3.48412e+06
3.48436e+06
3.48458e+06
3.48477e+06
3.48494e+06
3.48509e+06
3.48521e+06
3.48529e+06
3.48535e+06
3.48538e+06
3.48538e+06
3.48535e+06
3.48528e+06
3.48516e+06
3.48503e+06
3.4848e+06
3.44239e+06
3.44882e+06
3.45399e+06
3.45818e+06
3.46164e+06
3.4645e+06
3.46691e+06
3.46895e+06
3.47069e+06
3.47219e+06
3.4735e+06
3.47464e+06
3.47565e+06
3.47655e+06
3.47735e+06
3.47808e+06
3.47874e+06
3.47935e+06
3.47991e+06
3.48042e+06
3.48091e+06
3.48136e+06
3.48178e+06
3.48218e+06
3.48255e+06
3.4829e+06
3.48323e+06
3.48354e+06
3.48382e+06
3.48408e+06
3.48433e+06
3.48454e+06
3.48474e+06
3.48491e+06
3.48506e+06
3.48517e+06
3.48526e+06
3.48532e+06
3.48536e+06
3.48535e+06
3.48532e+06
3.48525e+06
3.48514e+06
3.48501e+06
3.48479e+06
3.44456e+06
3.45067e+06
3.45555e+06
3.4595e+06
3.46274e+06
3.46543e+06
3.46768e+06
3.46959e+06
3.47122e+06
3.47262e+06
3.47385e+06
3.47492e+06
3.47587e+06
3.47672e+06
3.47748e+06
3.47818e+06
3.47881e+06
3.47939e+06
3.47993e+06
3.48044e+06
3.48091e+06
3.48135e+06
3.48176e+06
3.48215e+06
3.48252e+06
3.48287e+06
3.4832e+06
3.4835e+06
3.48379e+06
3.48405e+06
3.48429e+06
3.48451e+06
3.48471e+06
3.48488e+06
3.48503e+06
3.48514e+06
3.48524e+06
3.4853e+06
3.48533e+06
3.48533e+06
3.4853e+06
3.48523e+06
3.48512e+06
3.48499e+06
3.48478e+06
3.44708e+06
3.45278e+06
3.45731e+06
3.46097e+06
3.46396e+06
3.46644e+06
3.46852e+06
3.47028e+06
3.47178e+06
3.47308e+06
3.47422e+06
3.47522e+06
3.47611e+06
3.4769e+06
3.47762e+06
3.47828e+06
3.47889e+06
3.47944e+06
3.47996e+06
3.48045e+06
3.48091e+06
3.48134e+06
3.48175e+06
3.48213e+06
3.4825e+06
3.48284e+06
3.48317e+06
3.48347e+06
3.48376e+06
3.48402e+06
3.48426e+06
3.48448e+06
3.48468e+06
3.48485e+06
3.485e+06
3.48512e+06
3.48521e+06
3.48527e+06
3.48531e+06
3.48531e+06
3.48528e+06
3.48521e+06
3.48511e+06
3.48498e+06
3.48477e+06
3.44997e+06
3.45516e+06
3.45927e+06
3.46259e+06
3.4653e+06
3.46755e+06
3.46943e+06
3.47102e+06
3.47239e+06
3.47358e+06
3.47461e+06
3.47553e+06
3.47636e+06
3.4771e+06
3.47777e+06
3.47839e+06
3.47897e+06
3.4795e+06
3.48e+06
3.48047e+06
3.48092e+06
3.48134e+06
3.48174e+06
3.48212e+06
3.48248e+06
3.48282e+06
3.48314e+06
3.48344e+06
3.48373e+06
3.48399e+06
3.48424e+06
3.48446e+06
3.48466e+06
3.48483e+06
3.48498e+06
3.4851e+06
3.48519e+06
3.48525e+06
3.48529e+06
3.48529e+06
3.48526e+06
3.4852e+06
3.4851e+06
3.48497e+06
3.48477e+06
3.45322e+06
3.4578e+06
3.46144e+06
3.46436e+06
3.46675e+06
3.46873e+06
3.4704e+06
3.47181e+06
3.47303e+06
3.47409e+06
3.47503e+06
3.47587e+06
3.47662e+06
3.4773e+06
3.47793e+06
3.47851e+06
3.47905e+06
3.47956e+06
3.48004e+06
3.48049e+06
3.48092e+06
3.48133e+06
3.48173e+06
3.4821e+06
3.48246e+06
3.4828e+06
3.48312e+06
3.48342e+06
3.4837e+06
3.48397e+06
3.48421e+06
3.48443e+06
3.48463e+06
3.48481e+06
3.48496e+06
3.48508e+06
3.48517e+06
3.48524e+06
3.48527e+06
3.48528e+06
3.48525e+06
3.48519e+06
3.48509e+06
3.48497e+06
3.48477e+06
3.45681e+06
3.46069e+06
3.46378e+06
3.46626e+06
3.4683e+06
3.46999e+06
3.47142e+06
3.47264e+06
3.4737e+06
3.47463e+06
3.47546e+06
3.47621e+06
3.47689e+06
3.47751e+06
3.47809e+06
3.47863e+06
3.47914e+06
3.47962e+06
3.48008e+06
3.48052e+06
3.48093e+06
3.48133e+06
3.48172e+06
3.48209e+06
3.48244e+06
3.48278e+06
3.4831e+06
3.4834e+06
3.48368e+06
3.48395e+06
3.48419e+06
3.48442e+06
3.48462e+06
3.48479e+06
3.48494e+06
3.48506e+06
3.48516e+06
3.48522e+06
3.48526e+06
3.48526e+06
3.48524e+06
3.48518e+06
3.48508e+06
3.48497e+06
3.48478e+06
3.46069e+06
3.46379e+06
3.46628e+06
3.46828e+06
3.46993e+06
3.47131e+06
3.47248e+06
3.4735e+06
3.47439e+06
3.47519e+06
3.47591e+06
3.47656e+06
3.47716e+06
3.47772e+06
3.47825e+06
3.47875e+06
3.47923e+06
3.47968e+06
3.48012e+06
3.48054e+06
3.48094e+06
3.48134e+06
3.48171e+06
3.48208e+06
3.48243e+06
3.48276e+06
3.48308e+06
3.48338e+06
3.48366e+06
3.48393e+06
3.48418e+06
3.4844e+06
3.4846e+06
3.48478e+06
3.48493e+06
3.48505e+06
3.48515e+06
3.48521e+06
3.48525e+06
3.48526e+06
3.48523e+06
3.48517e+06
3.48508e+06
3.48497e+06
3.48478e+06
3.46479e+06
3.46706e+06
3.46889e+06
3.47038e+06
3.47162e+06
3.47267e+06
3.47358e+06
3.47438e+06
3.4751e+06
3.47575e+06
3.47635e+06
3.47691e+06
3.47744e+06
3.47794e+06
3.47842e+06
3.47887e+06
3.47932e+06
3.47974e+06
3.48016e+06
3.48056e+06
3.48096e+06
3.48134e+06
3.48171e+06
3.48207e+06
3.48241e+06
3.48274e+06
3.48306e+06
3.48336e+06
3.48365e+06
3.48391e+06
3.48416e+06
3.48439e+06
3.48459e+06
3.48477e+06
3.48492e+06
3.48504e+06
3.48514e+06
3.48521e+06
3.48524e+06
3.48525e+06
3.48522e+06
3.48517e+06
3.48508e+06
3.48497e+06
3.48479e+06
3.46905e+06