/*--------------------------------*- C++ -*----------------------------------*\
| =========                 |                                                 |
| \\      /  F ield         | OpenFOAM: The Open Source CFD Toolbox           |
|  \\    /   O peration     | Version:  v2012                                 |
|   \\  /    A nd           | Website:  www.openfoam.com                      |
|    \\/     M anipulation  |                                                 |
\*---------------------------------------------------------------------------*/
FoamFile
{
    version     2.0;
    format      ascii;
    class       volScalarField;
    location    "0.25";
    object      alpha.water;
}
// * * * * * * * * * * * * * * * * * * * * * * * * * * * * * * * * * * * * * //

dimensions      [0 0 0 0 0 0 0];


internalField   nonuniform List<scalar> 
3332
(
1.25227e-28
5.38563e-38
7.29739e-46
1.18997e-51
2.10199e-54
1.76147e-57
5.48875e-61
2.34695e-64
7.58294e-67
1.8002e-69
8.42045e-71
2.47557e-70
4.03267e-70
2.70338e-67
1.18658e-65
9.49067e-65
2.84625e-64
4.60856e-64
5.47139e-64
6.47467e-64
2.14959e-14
8.10016e-21
1.3834e-28
6.03474e-38
8.16421e-46
1.36823e-51
2.44817e-54
2.07329e-57
6.5052e-61
2.82409e-64
9.33885e-67
2.19434e-69
5.60815e-71
1.88102e-70
2.15202e-70
3.47044e-68
2.94862e-66
3.21234e-65
1.19115e-64
2.17481e-64
2.50766e-64
1.54149e-64
0.999996
0.999988
0.99999
1.00001
1
0.999999
0.999997
0.999995
0.998362
0.844621
0.000950311
6.1245e-06
5.24479e-08
1.70315e-09
6.04145e-11
2.69393e-14
8.05772e-21
1.55676e-28
6.88368e-38
9.28921e-46
1.59911e-51
2.89982e-54
2.47932e-57
7.82886e-61
3.44833e-64
1.16722e-66
2.73726e-69
3.46539e-71
1.26934e-70
1.84021e-70
2.29031e-69
5.99921e-67
9.51591e-66
4.47202e-65
9.53053e-65
1.20195e-64
9.24918e-65
0.999998
0.999987
0.999989
1.00001
1
0.999999
0.999999
0.999999
0.999511
0.887038
0.361444
0.0407824
0.00150796
1.15101e-05
6.59551e-08
1.96185e-09
6.55559e-11
3.4156e-14
8.19515e-21
1.78468e-28
7.99281e-38
1.07505e-45
1.89949e-51
3.49282e-54
3.01225e-57
9.56808e-61
4.27256e-64
1.4801e-66
3.4864e-69
2.34086e-71
7.84921e-71
2.03236e-70
2.37327e-70
8.76562e-68
2.29149e-66
1.46864e-65
3.824e-65
5.32681e-65
5.06857e-65
0.999998
0.999987
0.999988
1.00001
1
0.999999
1
0.999999
0.999811
0.925876
0.438025
0.0586009
0.00242094
2.27195e-05
8.99206e-08
2.32851e-09
7.30341e-11
4.37778e-14
8.48906e-21
2.08362e-28
9.44417e-38
1.26543e-45
2.29236e-51
4.27675e-54
3.71745e-57
1.18742e-60
5.37078e-64
1.90328e-66
4.52954e-69
1.93056e-71
3.46077e-71
1.40218e-70
2.0993e-70
8.47366e-69
4.20348e-67
3.94895e-66
1.34197e-65
2.26575e-65
2.44022e-65
9.63774e-66
0.999997
0.999986
0.999987
1.00001
1.00001
1
1
1
0.999928
0.95726
0.528053
0.0853863
0.00396581
4.63902e-05
1.36658e-07
2.84811e-09
8.397e-11
5.66695e-14
8.87625e-21
2.4761e-28
1.13497e-37
1.51462e-45
2.80919e-51
5.32047e-54
4.65829e-57
1.49598e-60
6.84726e-64
2.48042e-66
5.99925e-69
1.81853e-71
1.46337e-71
8.30845e-71
1.8522e-70
5.9874e-70
5.37748e-68
8.25888e-67
3.92408e-66
8.37104e-66
1.03835e-65
6.39446e-66
0.999994
0.999987
0.999987
1.00001
1.00001
1
1
1
0.999977
0.979083
0.627734
0.125317
0.00664956
9.68842e-05
2.36532e-07
3.5709e-09
1.00177e-10
7.40154e-14
9.44517e-21
2.99294e-28
1.38627e-37
1.84271e-45
3.49317e-51
6.72005e-54
5.92377e-57
1.91261e-60
8.8498e-64
3.27375e-66
8.09531e-69
1.78285e-71
5.97769e-72
4.49635e-71
1.10143e-70
1.90028e-70
4.15286e-69
1.20249e-67
8.86049e-67
2.53145e-66
3.65803e-66
3.44669e-66
7.13314e-67
0.999992
0.999986
0.999989
1.00001
1.00001
1
1
1
0.999993
0.991969
0.730097
0.183695
0.0114151
0.00020527
4.66198e-07
4.57263e-09
1.22992e-10
9.74365e-14
1.0182e-20
3.67652e-28
1.71948e-37
2.27765e-45
4.40391e-51
8.60998e-54
7.63946e-57
2.48013e-60
1.1589e-63
4.37229e-66
1.11188e-68
2.43111e-71
1.89377e-72
2.02188e-71
6.25324e-71
1.19571e-70
2.85711e-70
1.01769e-68
1.3224e-67
5.74504e-67
1.13329e-66
1.30809e-66
5.20134e-67
0.99999
0.999988
0.99999
1.00001
1
1
1
1
0.999997
0.99791
0.8257
0.266088
0.0200286
0.000438289
1.02175e-06
5.97406e-09
1.54595e-10
1.2915e-13
1.11291e-20
4.58541e-28
2.1638e-37
2.85853e-45
5.62381e-51
1.11792e-53
9.98335e-57
3.25988e-60
1.53666e-63
5.90397e-66
1.55216e-68
3.23095e-71
5.34137e-73
7.4514e-72
3.12572e-71
6.47734e-71
9.93824e-71
4.61904e-70
1.14033e-68
8.63555e-68
2.46888e-67
3.52062e-67
2.88741e-67
0.999989
0.999988
0.999992
1.00001
1
1
1
1
0.999999
0.999506
0.903947
0.375787
0.0357524
0.000934654
2.40908e-06
7.95405e-09
1.97799e-10
1.72186e-13
1.23194e-20
5.80088e-28
2.75982e-37
3.64049e-45
7.26723e-51
1.46937e-53
1.32087e-56
4.34007e-60
2.06171e-63
8.05323e-66
2.19882e-68
4.49014e-71
2.1442e-73
2.12087e-72
1.31978e-71
3.39852e-71
5.23301e-71
6.37426e-71
3.38941e-70
5.69091e-69
3.10972e-68
6.92716e-68
8.27975e-68
0.999989
0.999989
0.999994
1.00001
1
1
1
1
1
0.999916
0.956945
0.50964
0.0643319
0.00196677
5.93724e-06
1.07812e-08
2.57045e-10
2.30667e-13
1.37991e-20
7.43609e-28
3.56402e-37
4.70177e-45
9.49313e-51
1.95288e-53
1.7677e-56
5.8482e-60
2.79692e-63
1.10872e-65
3.15487e-68
6.32905e-71
1.70891e-73
4.41096e-73
4.50122e-72
1.51525e-71
2.73598e-71
3.26979e-71
3.19653e-71
6.97872e-71
1.12844e-69
5.83043e-69
1.13624e-68
0.999988
0.999992
0.999996
1
1
1
1
0.999999
1
0.99999
0.985238
0.654863
0.114893
0.00407516
1.4987e-05
1.48724e-08
3.38947e-10
3.1019e-13
1.56251e-20
9.64908e-28
4.65526e-37
6.15407e-45
1.2523e-50
2.62145e-53
2.3906e-56
7.96928e-60
3.83365e-63
1.53945e-65
4.57527e-68
9.09242e-71
1.68221e-73
6.57214e-74
1.25265e-72
5.66e-72
1.26706e-71
1.69114e-71
1.62517e-71
9.36197e-72
8.4598e-72
8.58243e-71
4.47376e-70
0.999988
0.999993
0.999998
1
1
1
1
0.999998
1
0.999999
0.996398
0.790868
0.199209
0.0084659
3.82381e-05
2.09096e-08
4.53205e-10
4.18297e-13
1.78781e-20
1.2661e-27
6.14383e-37
8.15785e-45
1.66656e-50
3.55003e-53
3.26386e-56
1.09728e-59
5.30526e-63
2.15433e-65
6.69242e-68
1.33109e-70
2.52367e-73
8.92282e-75
2.7976e-73
1.77395e-72
5.07088e-72
8.26033e-72
9.17914e-72
5.42967e-72
1.67401e-72
9.39785e-73
2.50219e-72
0.999988
0.999995
0.999998
1
1
1
1
0.999999
1
0.999996
0.999382
0.896639
0.326495
0.0178261
9.7759e-05
3.01001e-08
6.14116e-10
5.65069e-13
2.06953e-20
1.67813e-27
8.18408e-37
1.09447e-44
2.23525e-50
4.84453e-53
4.49428e-56
1.52525e-59
7.40721e-63
3.03697e-65
9.85383e-68
1.9862e-70
3.77429e-73
1.25837e-75
4.69952e-74
4.56788e-73
1.73267e-72
3.44559e-72
4.3068e-72
3.70412e-72
1.19962e-72
3.08183e-73
7.43117e-74
0.999992
0.999995
0.999998
1
1
1
1
0.999999
1
0.999991
0.999939
0.96037
0.492624
0.037929
0.000248946
4.4774e-08
8.42652e-10
7.63761e-13
2.43512e-20
2.24426e-27
1.09919e-36
1.48502e-44
3.01863e-50
6.65466e-53
6.23572e-56
2.13852e-59
1.04272e-62
4.31119e-65
1.45777e-67
3.01932e-70
5.72591e-73
7.80371e-76
5.03384e-75
8.86417e-74
4.78194e-73
1.23341e-72
1.84685e-72
1.93075e-72
8.76343e-73
2.14775e-73
4.81916e-74
1
0.999996
0.999999
1
1
1
1
0.999999
1
0.999991
0.999994
0.988453
0.670775
0.0796866
0.000628809
6.9775e-08
1.16911e-09
1.03141e-12
2.94445e-20
3.02479e-27
1.48692e-36
2.03624e-44
4.10094e-50
9.19182e-53
8.71e-56
3.02181e-59
1.47901e-62
6.16198e-65
2.16351e-67
4.66856e-70
8.73791e-73
8.47949e-76
2.28658e-76
1.21376e-74
1.00785e-73
3.57858e-73
6.83536e-73
8.30972e-73
5.89567e-73
1.49601e-73
3.20077e-74
1
0.999995
0.999998
1
1
1
1
0.999999
1
0.999991
0.999994
0.997342
0.820363
0.158155
0.00156906
1.15745e-07
1.63598e-09
1.38917e-12
3.73414e-20
4.10327e-27
2.02363e-36
2.81916e-44
5.59993e-50
1.27542e-52
1.22374e-55
4.29978e-59
2.11265e-62
8.86812e-65
3.2174e-67
7.32413e-70
1.34429e-72
1.44492e-75
3.54257e-78
1.01587e-75
1.47951e-74
7.73864e-74
1.96644e-73
2.8902e-73
2.95566e-73
1.07677e-73
2.09614e-74
1.00001
0.999997
0.999999
0.999999
1
1
1
1
1
0.999992
0.999994
0.999583
0.915788
0.281062
0.00383391
2.06928e-07
2.30022e-09
1.8623e-12
5.12645e-20
5.59477e-27
2.76775e-36
3.93736e-44
7.68023e-50
1.77623e-52
1.72806e-55
6.15626e-59
3.03751e-62
1.28539e-64
4.79059e-67
1.16203e-69
2.09227e-72
2.48406e-75
1.28089e-78
4.07332e-77
1.30356e-75
1.10564e-74
4.08647e-74
8.12146e-74
1.00957e-73
7.03905e-74
1.39742e-74
1.00002
0.999999
0.999997
1
1
1
1
1
1
0.999993
0.999992
0.999998
0.962231
0.430905
0.00896891
3.9975e-07
3.23336e-09
2.47949e-12
7.89741e-20
7.65669e-27
3.80023e-36
5.54173e-44
1.05722e-49
2.48081e-52
2.45091e-55
8.86269e-59
4.39397e-62
1.87718e-64
7.13981e-67
1.85776e-69
3.30426e-72
4.27221e-75
2.08878e-78
7.20472e-80
5.26867e-77
8.90319e-76
5.33397e-75
1.52021e-74
2.42415e-74
2.56944e-74
9.11815e-75
1.00002
1
1
0.999999
1
1
1
1
1
0.999991
0.999992
0.999998
0.981489
0.569205
0.0193289
8.2678e-07
4.51832e-09
3.27187e-12
1.39091e-19
1.05032e-26
5.23285e-36
7.85193e-44
1.45983e-49
3.47251e-52
3.48928e-55
1.28207e-58
6.3928e-62
2.76354e-64
1.06537e-66
2.98198e-69
5.30988e-72
7.35581e-75
3.4568e-78
8.0626e-82
4.98086e-79
3.06515e-77
3.63356e-76
1.6668e-75
3.7928e-75
5.04943e-75
4.24327e-75
1.00002
1
0.999999
0.999999
0.999993
1
1
1
1
0.999989
0.999988
0.999999
0.989838
0.671995
0.036858
1.7989e-06
6.24193e-09
4.27207e-12
2.74844e-19
1.44244e-26
7.21989e-36
1.11871e-43
2.02114e-49
4.86875e-52
4.98392e-55
1.86257e-58
9.35186e-62
4.10349e-64
1.59285e-66
4.79047e-69
8.69725e-72
1.26448e-74
6.11409e-78
7.37957e-82
1.17204e-83
1.42592e-79
6.61453e-78
6.74313e-77
2.68986e-76
5.43461e-76
6.63948e-76
1.00002
1
1
0.999993
0.99999
0.999999
1
1
0.999999
0.999987
0.999987
1
0.993549
0.738893
0.0604822
4.03309e-06
8.48272e-09
5.51363e-12
5.80736e-19
1.98136e-26
9.97418e-36
1.60098e-43
2.80487e-49
6.83514e-52
7.13964e-55
2.71622e-58
1.37526e-61
6.14872e-64
2.3896e-66
7.68296e-69
1.45215e-71
2.17242e-74
1.09328e-77
7.32738e-82
8.38269e-84
1.34343e-83
8.55922e-81
3.31741e-79
3.57728e-78
1.57352e-77
3.38082e-77
1.00002
1
1
0.999984
0.999989
0.999998
1
1
0.999998
0.999985
0.999986
1
0.99515
0.778543
0.0851022
9.11798e-06
1.12957e-08
7.03117e-12
1.24676e-18
2.72034e-26
1.37899e-35
2.29882e-43
3.90106e-49
9.60583e-52
1.02553e-54
3.97477e-58
2.03282e-61
9.3006e-64
3.60424e-66
1.22824e-68
2.46703e-71
3.73831e-74
1.99983e-77
1.83285e-81
8.37586e-84
1.22192e-83
3.48772e-83
5.29455e-82
7.87904e-81
6.6011e-80
2.86521e-79
1.00001
1
1
0.999982
0.99999
0.999997
1
0.999999
0.999998
0.999982
0.999984
1
0.99577
0.801113
0.105745
2.03139e-05
1.46978e-08
8.8609e-12
2.61755e-18
3.73176e-26
1.90744e-35
3.30841e-43
5.43756e-49
1.35131e-51
1.47689e-54
5.83515e-58
3.02e-61
1.4203e-63
5.47944e-66
1.95631e-68
4.24892e-71
6.46631e-74
3.74799e-77
3.46057e-81
2.43214e-84
5.34394e-84
7.41088e-84
9.1184e-84
2.07361e-83
1.6284e-82
6.03229e-82
1.00001
1
1
0.999982
0.999993
0.999997
1
0.999998
0.999997
0.999978
0.999984
1.00001
0.995987
0.814196
0.121091
4.35288e-05
1.86644e-08
1.10402e-11
5.24959e-18
5.11419e-26
2.63933e-35
4.76746e-43
7.59689e-49
1.90311e-51
2.1325e-54
8.59281e-58
4.5094e-61
2.18933e-63
8.42061e-66
3.10668e-68
7.38268e-71
1.12922e-73
7.18614e-77
6.95477e-81
4.47624e-85
1.71186e-84
2.63228e-84
3.2588e-84
9.44826e-85
2.49255e-85
1.6509e-84
1
1
1
0.999986
0.999995
0.999999
1
0.999998
0.999995
0.999973
0.999986
1.00001
0.996093
0.82184
0.132368
8.77498e-05
2.3153e-08
1.36058e-11
9.93723e-18
7.00197e-26
3.65336e-35
6.87218e-43
1.06412e-48
2.68401e-51
3.0878e-54
1.26932e-57
6.76811e-61
3.40476e-63
1.31195e-65
4.92835e-68
1.28749e-70
1.99968e-73
1.40355e-76
1.41013e-80
6.97451e-86
2.96938e-85
7.62511e-85
1.0959e-84
1.20526e-84
6.17242e-87
6.01215e-87
1
1
0.999999
0.99999
0.999995
0.999999
1
0.999998
0.999995
0.999966
0.999988
1.00001
0.996199
0.825828
0.140842
0.000163984
2.81724e-08
1.65898e-11
1.76826e-17
9.57858e-26
5.05939e-35
9.90027e-43
1.49492e-48
3.79246e-51
4.48501e-54
1.88119e-57
1.02122e-60
5.33764e-63
2.07764e-65
7.83506e-68
2.24362e-70
3.6034e-73
2.77469e-76
2.89013e-80
3.93064e-86
2.86616e-86
1.37837e-85
2.60151e-85
3.22258e-85
2.62556e-85
7.49747e-87
1
1
0.999999
0.999992
0.999996
1
1
0.999999
0.999993
0.999957
0.999989
1.00002
0.996323
0.827081
0.147438
0.000282883
3.3914e-08
2.0013e-11
2.96075e-17
1.30948e-25
7.01105e-35
1.42423e-42
2.1072e-48
5.3722e-51
6.53764e-54
2.79804e-57
1.54941e-60
8.42645e-63
3.34978e-65
1.2538e-67
3.89547e-70
6.61781e-73
5.5162e-76
5.95199e-80
7.5273e-86
1.93377e-87
1.60389e-86
4.5106e-86
7.38995e-86
8.11418e-86
3.49254e-86
1.00001
1
1
0.999993
0.999997
0.999999
1
0.999999
0.99999
0.999946
0.999988
1.00001
0.996445
0.826553
0.152809
0.00045291
4.09833e-08
2.38759e-11
4.68321e-17
1.78937e-25
9.72389e-35
2.04436e-42
2.98164e-48
7.63527e-51
9.56881e-54
4.17863e-57
2.36442e-60
1.33799e-62
5.49976e-65
2.03033e-67
6.73283e-70
1.23741e-72
1.09759e-75
1.22862e-79
1.82068e-85
4.80718e-89
8.51566e-88
4.1595e-87
1.01308e-86
1.41776e-86
1.35961e-86
1.00001
0.999999
1
0.999992
0.999997
1
0.999999
0.999999
0.999987
0.999934
0.999984
1.00001
0.996534
0.824037
0.157382
0.000680665
5.08763e-08
2.8147e-11
7.03564e-17
2.4445e-25
1.35007e-34
2.92606e-42
4.23711e-48
1.0898e-50
1.40718e-53
6.2695e-57
3.63018e-60
2.1342e-62
9.18081e-65
3.3459e-67
1.16006e-69
2.34728e-72
2.18209e-75
2.54508e-79
3.91886e-85
2.16531e-90
1.22164e-89
1.40635e-88
6.04796e-88
1.31898e-87
1.71431e-87
1.00001
1
1
0.999993
0.999998
1
0.999999
0.999999
0.999983
0.999919
0.999979
1.00001
0.996572
0.819856
0.161425
0.000972608
6.70772e-08
3.27495e-11
1.00968e-16
3.33926e-25
1.87687e-34
4.17356e-42
6.04975e-48
1.56377e-50
2.08068e-53
9.45737e-57
5.60949e-60
3.41594e-62
1.55321e-64
5.63933e-67
2.00004e-69
4.49412e-72
4.34266e-75
5.31809e-79
8.48692e-85
1.80308e-90
1.74687e-91
1.51743e-90
1.35126e-89
5.50062e-89
1.15577e-88
1.00001
1
1
0.999993
0.999998
0.999999
0.999999
0.999999
0.999979
0.999904
0.999975
1.00001
0.996551
0.814481
0.165088
0.0013358
9.74472e-08
3.75523e-11
1.39182e-16
4.56191e-25
2.61309e-34
5.92965e-42
8.68194e-48
2.25833e-50
3.09552e-53
1.43552e-56
8.72696e-60
5.48146e-62
2.65134e-64
9.74967e-67
3.47066e-69
8.6408e-72
8.6963e-75
1.12967e-78
1.91142e-84
6.43896e-90
5.41065e-92
6.52595e-92
8.55093e-92
5.94427e-91
2.92395e-90
1
1
1
0.999993
0.999998
1
1
0.999999
0.999973
0.999887
0.999971
1.00001
0.996401
0.808301
0.168418
0.00177614
1.58337e-07
4.23719e-11
1.85179e-16
6.23358e-25
3.6442e-34
8.38919e-42
1.25262e-47
3.28597e-50
4.63706e-53
2.19454e-56
1.3674e-59
8.81468e-62
4.54446e-64
1.72842e-66
6.10635e-69
1.66276e-71
1.7653e-74
2.4584e-78
4.59253e-84
1.89834e-89
1.38689e-92
1.94975e-92
1.41405e-92
7.08661e-93
1.58311e-92
1
1
1
0.999994
0.999999
1
1
0.999999
0.999967
0.999868
0.999968
1.00001
0.996122
0.80153
0.1714
0.0022948
2.78944e-07
4.69955e-11
2.38709e-16
8.52057e-25
5.09158e-34
1.18176e-41
1.81715e-47
4.82195e-50
6.99838e-53
3.38198e-56
2.15854e-59
1.42078e-61
7.78679e-64
3.12901e-66
1.0976e-68
3.20085e-71
3.66042e-74
5.50515e-78
1.14426e-83
6.51976e-89
2.06575e-93
4.23698e-93
4.81209e-93
2.69537e-93
4.84361e-94
1
1
1
0.999994
0.999999
1
1
0.999999
0.999959
0.999843
0.999966
1.00001
0.995708
0.794227
0.173972
0.00288476
5.01357e-07
5.12286e-11
2.98883e-16
1.16514e-24
7.12801e-34
1.65773e-41
2.6504e-47
7.14132e-50
1.06462e-52
5.25841e-56
3.4338e-59
2.29773e-61
1.32955e-63
5.74277e-66
2.02756e-68
6.18194e-71
7.79426e-74
1.26695e-77
2.78696e-83
2.19448e-88
1.91281e-94
5.45756e-94
8.10986e-94
8.59057e-94
3.53185e-94
1
1
1
0.999994
0.999999
1
1
1
0.99995
0.999813
0.999964
1.00001
0.99514
0.786315
0.17591
0.00352726
8.7251e-07
5.49651e-11
3.63836e-16
1.59403e-24
1.00003e-33
2.31665e-41
3.88576e-47
1.06779e-49
1.63278e-52
8.25447e-56
5.50594e-59
3.73584e-61
2.25912e-63
1.05957e-65
3.85686e-68
1.20501e-70
1.7053e-73
2.97746e-77
6.36973e-83
6.89486e-88
3.85348e-95
3.30301e-95
7.30916e-95
9.56103e-95
9.25705e-95
1
1
1
0.999994
0.999999
1
1
1
0.999938
0.999777
0.999961
1
0.99439
0.777603
0.176796
0.00418524
1.43199e-06
5.82633e-11
4.30323e-16
2.18201e-24
1.40619e-33
3.228e-41
5.72412e-47
1.61169e-49
2.52446e-52
1.30875e-55
8.90006e-59
6.12471e-61
3.82386e-63
1.95081e-65
7.52948e-68
2.38909e-70
3.81527e-73
7.09019e-77
1.37405e-82
2.08542e-87
6.42897e-95
1.1461e-95
9.04071e-96
8.59134e-96
9.19496e-96
1
1
1
0.999994
0.999999
1
1
0.999999
0.999923
0.999733
0.999956
0.999999
0.993408
0.767852
0.176805
0.00479552
2.20521e-06
6.14363e-11
4.93537e-16
2.98879e-24
1.9821e-33
4.49075e-41
8.46785e-47
2.45397e-49
3.93321e-52
2.09602e-55
1.45043e-58
1.01626e-60
6.47168e-63
3.56838e-65
1.49638e-67
4.85404e-70
8.65869e-73
1.70339e-76
2.95899e-82
6.51662e-87
1.94652e-94
2.33628e-95
1.19682e-95
7.30545e-96
6.01657e-96
1
1
1
0.999994
0.999999
1
1
0.999999
0.999905
0.999683
0.999948
0.999986
0.992137
0.756832
0.175866
0.00528627
3.20599e-06
6.52816e-11
5.47617e-16
4.09699e-24
2.80101e-33
6.25005e-41
1.25716e-46
3.76451e-49
6.17102e-52
3.38977e-55
2.38319e-58
1.71329e-60
1.1024e-62
6.48421e-65
2.99735e-67
1.0153e-69
1.97903e-72
4.13797e-76
7.05915e-82
2.20424e-86
6.2843e-94
5.11728e-95
2.61431e-95
1.44302e-95
9.05611e-96
1
1
1
0.999994
0.999999
1
1
0.999998
0.999885
0.999627
0.999944
0.999964
0.990494
0.74431
0.173843
0.00566367
4.44368e-06
7.20636e-11
5.87257e-16
5.62128e-24
3.96906e-33
8.72631e-41
1.87189e-46
5.80854e-49
9.74065e-52
5.53225e-55
3.94832e-58
2.94391e-60
1.90717e-62
1.17623e-64
6.00386e-67
2.18556e-69
4.54495e-72
1.0251e-75
2.1065e-81
7.82889e-86
2.43117e-93
1.40956e-94
6.21142e-95
3.36702e-95
1.93394e-95
1
1
1
0.999994
1
1
1
0.999999
0.999861
0.999565
0.999946
0.999946
0.988358
0.730036
0.170661
0.00596714
5.92825e-06
8.9578e-11
6.10082e-16
7.72156e-24
5.64073e-33
1.22671e-40
2.79378e-46
8.99713e-49
1.54523e-51
9.10321e-55
6.59685e-58
5.16261e-60
3.3852e-62
2.15102e-64
1.19965e-66
4.81672e-69
1.05376e-71
2.61826e-75
8.08769e-81
2.73295e-85
1.09642e-92
6.01245e-94
2.42701e-94
1.28768e-94
7.76243e-95
0.999828
0.999494
0.999951
0.999934
0.985599
0.71375
0.16629
0.00620075
7.67172e-06
1.44279e-10
6.18716e-16
1.06221e-23
8.04205e-33
1.74409e-40
4.17798e-46
1.39631e-48
2.46136e-51
1.50879e-54
1.11204e-57
9.22963e-60
6.21761e-62
4.02018e-64
2.40237e-66
1.07901e-68
2.49384e-71
6.94672e-75
3.58529e-80
9.24697e-85
5.67969e-92
2.93853e-93
1.18287e-93
6.23514e-94
3.96887e-94
1.25223e-28
5.38242e-38
7.25276e-46
1.19354e-51
2.11297e-54
1.77603e-57
5.58408e-61
2.41001e-64
7.79214e-67
1.80787e-69
7.6218e-72
2.19164e-71
2.26748e-69
2.59701e-68
8.41997e-68
1.99835e-67
2.10869e-66
3.00075e-65
2.08995e-64
6.42611e-64
2.14957e-14
8.10013e-21
1.38336e-28
6.03114e-38
8.115e-46
1.3723e-51
2.46066e-54
2.09023e-57
6.61706e-61
2.8999e-64
9.5965e-67
2.22505e-69
7.4104e-72
9.67192e-72
3.8964e-70
4.87084e-69
2.05822e-68
9.1746e-68
3.24503e-67
1.12779e-66
7.35723e-66
2.79197e-65
0.999997
0.999993
0.999994
1
1
0.999999
0.999999
0.999995
0.998361
0.844619
0.00095031
6.12448e-06
5.24477e-08
1.70314e-09
6.04146e-11
2.69391e-14
8.05769e-21
1.55671e-28
6.87959e-38
9.23405e-46
1.60383e-51
2.91424e-54
2.49933e-57
7.96203e-61
3.54079e-64
1.19938e-66
2.79034e-69
7.36105e-72
6.25787e-72
1.11876e-70
4.61058e-70
1.18415e-69
3.69853e-69
1.36101e-68
5.40016e-68
2.02065e-67
6.43889e-67
0.999998
0.999992
0.999993
1
1
0.999999
0.999999
0.999999
0.999511
0.887037
0.361444
0.0407824
0.00150796
1.15101e-05
6.59548e-08
1.96185e-09
6.55559e-11
3.41558e-14
8.19511e-21
1.78462e-28
7.98808e-38
1.06876e-45
1.90505e-51
3.50972e-54
3.03622e-57
9.72893e-61
4.38691e-64
1.52077e-66
3.56306e-69
7.25716e-72
1.18398e-72
3.69489e-71
2.08091e-70
4.47599e-70
8.99894e-70
1.67597e-69
3.19036e-69
7.5091e-69
2.28478e-68
0.999998
0.999992
0.999992
1
1
0.999999
0.999999
0.999999
0.999811
0.925876
0.438025
0.0586009
0.00242094
2.27194e-05
8.99201e-08
2.3285e-09
7.3034e-11
4.37775e-14
8.48902e-21
2.08355e-28
9.43858e-38
1.25814e-45
2.29901e-51
4.29686e-54
3.74658e-57
1.20712e-60
5.51422e-64
1.95541e-66
4.63586e-69
1.02739e-71
2.59144e-73
8.93322e-72
8.001e-71
2.12727e-70
4.34361e-70
7.52015e-70
1.02388e-69
1.00911e-69
9.87706e-70
3.39474e-69
0.999998
0.999991
0.999992
1.00001
1
1
1
1
0.999927
0.957261
0.528052
0.0853863
0.00396581
4.63901e-05
1.36657e-07
2.84809e-09
8.39697e-11
5.66691e-14
8.87621e-21
2.47603e-28
1.1343e-37
1.50604e-45
2.81725e-51
5.34475e-54
4.69422e-57
1.52046e-60
7.02965e-64
2.54811e-66
6.14481e-69
1.32438e-71
1.25701e-73
1.50722e-72
2.11831e-71
9.06354e-71
1.89035e-70
3.45972e-70
4.91345e-70
3.54427e-70
3.12127e-72
2.70949e-70
0.999996
0.999991
0.999992
1.00001
1
1
1
1
0.999977
0.979084
0.627734
0.125317
0.00664956
9.68838e-05
2.3653e-07
3.57088e-09
1.00176e-10
7.40149e-14
9.44513e-21
2.99285e-28
1.38546e-37
1.83245e-45
3.50311e-51
6.74976e-54
5.96869e-57
1.94342e-60
9.08476e-64
3.36276e-66
8.2955e-69
1.77456e-71
9.54294e-74
2.67212e-73
4.33721e-72
3.1e-71
7.98452e-71
1.5757e-70
2.40475e-70
2.29587e-70
2.81787e-72
2.69352e-71
3.72302e-71
0.999995
0.999992
0.999993
1.00001
1
1
1
1
0.999993
0.99197
0.730097
0.183695
0.0114151
0.000205269
4.66195e-07
4.5726e-09
1.22991e-10
9.74359e-14
1.01819e-20
3.67641e-28
1.71847e-37
2.26519e-45
4.41632e-51
8.64682e-54
7.69639e-57
2.51942e-60
1.18955e-63
4.49079e-66
1.13963e-68
2.39452e-71
8.10634e-74
6.85388e-74
5.67196e-73
6.42889e-72
3.07046e-71
6.70514e-71
1.21758e-70
1.5431e-70
2.66216e-72
2.65565e-72
1.25403e-71
0.999994
0.999992
0.999994
1
1
1
1
1
0.999997
0.99791
0.8257
0.266088
0.0200286
0.000438288
1.02174e-06
5.97402e-09
1.54594e-10
1.2915e-13
1.11291e-20
4.58527e-28
2.16254e-37
2.84318e-45
5.63953e-51
1.12254e-53
1.00565e-56
3.31059e-60
1.57711e-63
6.0636e-66
1.59128e-68
3.27971e-71
7.71839e-74
2.71352e-74
1.13907e-73
9.79551e-73
7.7381e-72
2.30874e-71
4.52459e-71
6.59826e-71
3.79566e-71
5.81131e-73
4.38401e-72
0.999993
0.999993
0.999995
1
1
1
1
1
0.999999
0.999507
0.903948
0.375786
0.0357524
0.000934652
2.40907e-06
7.95398e-09
1.97797e-10
1.72185e-13
1.23193e-20
5.8007e-28
2.75821e-37
3.62134e-45
7.28735e-51
1.47524e-53
1.33038e-56
4.40626e-60
2.11567e-63
8.27073e-66
2.25468e-68
4.55806e-71
7.82205e-74
4.03662e-75
4.79623e-74
1.23406e-73
1.07697e-72
6.77871e-72
1.64496e-71
2.749e-71
2.77049e-71
5.69196e-73
5.68719e-73
0.999992
0.999994
0.999997
1
1
1
1
1
1
0.999916
0.956947
0.509639
0.0643318
0.00196676
5.93721e-06
1.07811e-08
2.57043e-10
2.30666e-13
1.3799e-20
7.43585e-28
3.56195e-37
4.67755e-45
9.51918e-51
1.96042e-53
1.78023e-56
5.93553e-60
2.86964e-63
1.13868e-65
3.23566e-68
6.43984e-71
1.11731e-73
1.34919e-75
1.34064e-74
4.56688e-74
1.24736e-73
8.5079e-73
4.06864e-72
9.1245e-72
1.30151e-71
6.98223e-72
5.28556e-74
0.999992
0.999995
0.999997
1
1
1
1
1
1
0.999991
0.985241
0.654863
0.114893
0.00407515
1.49869e-05
1.48723e-08
3.38944e-10
3.10188e-13
1.5625e-20
9.64878e-28
4.65256e-37
6.1231e-45
1.2557e-50
2.63123e-53
2.40728e-56
8.08568e-60
3.93253e-63
1.58112e-65
4.69342e-68
9.2606e-71
1.64232e-73
7.7968e-76
2.53629e-75
1.00739e-74
3.44278e-74
9.66879e-74
5.50468e-73
2.10822e-72
4.06564e-72
5.00717e-72
2.56139e-74
0.999993
0.999996
0.999999
1
1
1
1
0.999999
1
0.999999
0.996401
0.790868
0.199209
0.00846589
3.82379e-05
2.09094e-08
4.532e-10
4.18294e-13
1.7878e-20
1.26606e-27
6.14028e-37
8.11781e-45
1.67105e-50
3.56282e-53
3.28633e-56
1.11294e-59
5.44081e-63
2.21284e-65
6.86679e-68
1.3569e-70
2.49423e-73
2.90485e-76
2.81872e-76
1.37326e-75
5.50589e-75
1.95936e-74
5.92086e-74
2.95864e-73
8.24427e-73
1.16632e-72
9.05697e-73
0.999994
0.999997
0.999999
1
1
1
1
1
1
0.999997
0.999384
0.896639
0.326495
0.017826
9.77585e-05
3.00998e-08
6.14109e-10
5.65065e-13
2.06952e-20
1.67807e-27
8.17936e-37
1.08924e-44
2.24122e-50
4.86139e-53
4.52488e-56
1.5465e-59
7.59439e-63
3.1198e-65
1.0113e-67
2.02654e-70
3.77485e-73
2.90523e-76
1.45543e-78
1.13756e-76
4.68895e-76
1.82504e-75
6.48753e-75
2.02448e-74
9.8069e-74
2.28945e-73
2.76792e-73
0.999998
0.999997
0.999999
1
1
1
1
1
1
0.999993
0.999939
0.960372
0.492624
0.0379289
0.000248945
4.47735e-08
8.42642e-10
7.63756e-13
2.4351e-20
2.24419e-27
1.09856e-36
1.47814e-44
3.02662e-50
6.67706e-53
6.27783e-56
2.16761e-59
1.06873e-62
4.42934e-65
1.4965e-67
3.08349e-70
5.73941e-73
5.07199e-76
1.32624e-78
1.08346e-77
3.31469e-77
1.04891e-76
3.43098e-76
1.10136e-75
3.31975e-75
1.61499e-74
3.79095e-74
1
0.999997
0.999999
1
1
1
1
1
1
0.999993
0.999994
0.988456
0.670776
0.0796865
0.000628806
6.97742e-08
1.16909e-09
1.0314e-12
2.94444e-20
3.0247e-27
1.48607e-36
2.02709e-44
4.1117e-50
9.22176e-53
8.76855e-56
3.06194e-59
1.51537e-62
6.33157e-65
2.22161e-67
4.77245e-70
8.77298e-73
8.33687e-76
1.32653e-78
2.46609e-78
6.39891e-78
1.3699e-77
2.71545e-77
5.05345e-77
1.14275e-76
3.11953e-76
1.02552e-75
1
0.999997
0.999999
1
1
1
1
0.999999
1
0.999992
0.999994
0.997344
0.820364
0.158155
0.00156905
1.15743e-07
1.63596e-09
1.38916e-12
3.73412e-20
4.10314e-27
2.02248e-36
2.80693e-44
5.61449e-50
1.27945e-52
1.23196e-55
4.3556e-59
2.16371e-62
9.11282e-65
3.30475e-67
7.49471e-70
1.35223e-72
1.42563e-75
1.31547e-78
4.42109e-79
1.92539e-78
4.06821e-78
7.56262e-78
1.13783e-77
1.55688e-77
3.21934e-78
2.43254e-77
1.00001
0.999999
0.999999
1
1
1
1
1
1
0.999993
0.999994
0.999584
0.91579
0.281063
0.0038339
2.06926e-07
2.30019e-09
1.86229e-12
5.12642e-20
5.59459e-27
2.76618e-36
3.92091e-44
7.70003e-50
1.78167e-52
1.7397e-55
6.2345e-59
3.10954e-62
1.32085e-64
4.92208e-67
1.19031e-69
2.10823e-72
2.44746e-75
1.24566e-78
7.32355e-80
5.44239e-79
1.14461e-78
2.13531e-78
3.23925e-78
4.16063e-78
7.27967e-80
3.67082e-78
1.00001
0.999999
0.999998
1
1
1
1
1
1
0.999993
0.999994
0.999998
0.962234
0.430906
0.00896887
3.99748e-07
3.23332e-09
2.47947e-12
7.89737e-20
7.65646e-27
3.79808e-36
5.51951e-44
1.05992e-49
2.48818e-52
2.46754e-55
8.97323e-59
4.49599e-62
1.92875e-64
7.33786e-67
1.90488e-69
3.3354e-72
4.22442e-75
2.01175e-78
7.32115e-80
1.49627e-79
3.05811e-79
5.69466e-79
9.17332e-79
1.26451e-78
6.33771e-80
1.21584e-78
1.00001
1
1
0.999999
1
1
1
1
1
0.999991
0.999992
0.999998
0.981492
0.569206
0.0193289
8.26774e-07
4.51827e-09
3.27185e-12
1.3909e-19
1.05028e-26
5.2299e-36
7.82181e-44
1.46353e-49
3.48255e-52
3.51324e-55
1.29782e-58
6.53785e-62
2.83876e-64
1.0952e-66
3.06048e-69
5.36956e-72
7.29753e-75
3.49165e-78
1.10557e-80
4.08419e-80
8.13659e-80
1.40989e-79
2.18471e-79
2.94926e-79
6.10983e-80
3.31915e-79
1.00001
1
0.999999
0.999999
0.999995
1
1
1
1
0.999989
0.99999
0.999999
0.989842
0.671996
0.0368579
1.79889e-06
6.24185e-09
4.27205e-12
2.74842e-19
1.4424e-26
7.21583e-36
1.11462e-43
2.02621e-49
4.88245e-52
5.01868e-55
1.88519e-58
9.55888e-62
4.21348e-64
1.63781e-66
4.92069e-69
8.81124e-72
1.2599e-74
6.11837e-78
1.76445e-81
8.32292e-81
2.33582e-80
3.80699e-80
5.41016e-80
6.60185e-80
8.84502e-81
8.80445e-80
1.00001
1
1
0.999996
0.999993
0.999999
1
1
0.999999
0.999987
0.999988
1
0.993552
0.738893
0.060482
4.03307e-06
8.48261e-09
5.51359e-12
5.80733e-19
1.9813e-26
9.96862e-36
1.59541e-43
2.81183e-49
6.85386e-52
7.19041e-55
2.74901e-58
1.40493e-61
6.30997e-64
2.45741e-66
7.89747e-69
1.47393e-71
2.17393e-74
1.0936e-77
1.11783e-81
7.77252e-82
5.11743e-81
1.13547e-80
1.50086e-80
1.55967e-80
3.18106e-81
9.11077e-81
1.00001
1
1
0.99999
0.999992
0.999999
1
1
0.999999
0.999985
0.999987
1
0.995151
0.778543
0.0851019
9.11794e-06
1.12955e-08
7.03113e-12
1.24676e-18
2.72025e-26
1.37822e-35
2.29124e-43
3.91065e-49
9.63145e-52
1.03299e-54
4.02276e-58
2.07552e-61
9.53773e-64
3.70665e-66
1.26327e-68
2.50865e-71
3.7552e-74
1.99808e-77
1.69319e-81
7.05822e-83
6.97336e-82
2.24112e-81
4.15891e-81
5.05842e-81
3.17102e-81
1.72573e-82
1.00001
1
1
0.999989
0.999994
0.999999
1
0.999999
0.999998
0.999981
0.999986
1
0.99577
0.801112
0.105745
2.03139e-05
1.46976e-08
8.86085e-12
2.61754e-18
3.73165e-26
1.90638e-35
3.29809e-43
5.45078e-49
1.35482e-51
1.48788e-54
5.90606e-58
3.08181e-61
1.45532e-63
5.63451e-66
2.01297e-68
4.32823e-71
6.51357e-74
3.74049e-77
3.52013e-81
2.91315e-84
6.08833e-83
3.21674e-82
8.3063e-82
1.21901e-81
1.22846e-81
3.63491e-82
1.00001
1
1
0.999989
0.999996
0.999998
1
0.999999
0.999997
0.999977
0.999985
1.00001
0.995985
0.814196
0.12109
4.35287e-05
1.86642e-08
1.10401e-11
5.24956e-18
5.11403e-26
2.63787e-35
4.75344e-43
7.61516e-49
1.90791e-51
2.14877e-54
8.69864e-58
4.59938e-61
2.24134e-63
8.65638e-66
3.19757e-68
7.53253e-71
1.13905e-73
7.1666e-77
6.92967e-81
3.28224e-86
1.99677e-84
2.25421e-83
9.87402e-83
2.1611e-82
2.80936e-82
2.21621e-82
1
1
1
0.999992
0.999997
0.999999
1
0.999999
0.999996
0.999971
0.999986
1.00001
0.996091
0.821839
0.132368
8.77495e-05
2.31527e-08
1.36057e-11
9.93719e-18
7.00175e-26
3.65134e-35
6.85317e-43
1.06665e-48
2.69057e-51
3.11195e-54
1.28528e-57
6.90007e-61
3.48256e-63
1.34799e-65
5.07318e-68
1.31545e-70
2.01681e-73
1.3994e-76
1.41128e-80
1.27133e-86
5.46384e-87
3.66087e-85
3.81016e-84
1.55419e-83
3.18799e-83
3.94685e-83
1
1
1
0.999994
0.999997
1
1
0.999999
0.999995
0.999964
0.999986
1.00001
0.996196
0.825827
0.140841
0.000163984
2.81721e-08
1.65897e-11
1.76825e-17
9.57829e-26
5.05661e-35
9.87457e-43
1.49843e-48
3.80141e-51
4.5209e-54
1.9055e-57
1.04073e-60
5.45516e-63
2.13315e-65
8.06504e-68
2.29493e-70
3.6291e-73
2.76727e-76
2.88994e-80
3.13274e-86
9.40112e-89
1.35353e-87
2.53132e-86
2.32309e-85
1.00724e-84
2.30296e-84
1
1
0.999999
0.999995
0.999998
1
1
0.999999
0.999993
0.999955
0.999987
1.00001
0.99632
0.827081
0.147438
0.000282883
3.39136e-08
2.00128e-11
2.96074e-17
1.30944e-25
7.00723e-35
1.42077e-42
2.11209e-48
5.38436e-51
6.59096e-54
2.83542e-57
1.57852e-60
8.60599e-63
3.43604e-65
1.29033e-67
3.98801e-70
6.65077e-73
5.50516e-76
5.95257e-80
7.83368e-86
6.82183e-89
1.26288e-88
2.48058e-88
1.25123e-87
8.98049e-87
3.43154e-86
1
1
1
0.999996
0.999998
1
1
0.999999
0.99999
0.999944
0.999986
1.00001
0.996443
0.826554
0.152809
0.00045291
4.09829e-08
2.38758e-11
4.68319e-17
1.78931e-25
9.71859e-35
2.03971e-42
2.98847e-48
7.65171e-51
9.64792e-54
4.23665e-57
2.40831e-60
1.36576e-62
5.63525e-65
2.08865e-67
6.89698e-70
1.24107e-72
1.09633e-75
1.2287e-79
1.80487e-85
8.31114e-90
1.13724e-89
1.2407e-89
2.10467e-89
6.51995e-89
1.78578e-88
1.00001
1
1
0.999995
0.999998
1
0.999999
1
0.999987
0.999931
0.999983
1.00001
0.996532
0.824037
0.157382
0.000680666
5.08758e-08
2.81469e-11
7.03561e-17
2.44443e-25
1.34935e-34
2.91985e-42
4.24668e-48
1.092e-50
1.41888e-53
6.36032e-57
3.69707e-60
2.17775e-62
9.39632e-65
3.43999e-67
1.18879e-69
2.35176e-72
2.18138e-75
2.54526e-79
3.9256e-85
3.27282e-90
4.29983e-90
5.42353e-90
6.86191e-91
1.65419e-91
9.54494e-91
1.00001
1
1
0.999996
0.999998
1
1
1
0.999983
0.999917
0.99998
1.00001
0.99657
0.819857
0.161426
0.000972613
6.70768e-08
3.27493e-11
1.00968e-16
3.33916e-25
1.87586e-34
4.16531e-42