/*--------------------------------*- C++ -*----------------------------------*\
| =========                 |                                                 |
| \\      /  F ield         | OpenFOAM: The Open Source CFD Toolbox           |
|  \\    /   O peration     | Version:  v2012                                 |
|   \\  /    A nd           | Website:  www.openfoam.com                      |
|    \\/     M anipulation  |                                                 |
\*---------------------------------------------------------------------------*/
FoamFile
{
    version     2.0;
    format      ascii;
    class       volScalarField;
    location    "0.6";
    object      alpha.water;
}
// * * * * * * * * * * * * * * * * * * * * * * * * * * * * * * * * * * * * * //

dimensions      [0 0 0 0 0 0 0];


internalField   nonuniform List<scalar> 
3326
(
1.75617e-35
1.11892e-34
5.01216e-36
1.51825e-53
9.33115e-55
8.79763e-55
9.31632e-55
2.08843e-59
1.54618e-60
1.35913e-22
1.14332e-35
2.10692e-35
2.38721e-34
1.9954e-42
3.6704e-45
6.97154e-45
5.34382e-49
2.73808e-61
1.44872e-62
2.81105e-62
9.30571e-62
2.23309e-14
2.21836e-14
7.72033e-15
3.86267e-17
4.38773e-17
8.18707e-17
2.69956e-16
3.06328e-16
2.8102e-16
3.06888e-16
7.84626e-16
1.01471e-14
1.14195e-14
3.13521e-15
7.10336e-16
1.05326e-15
4.27892e-15
1.26993e-15
6.05801e-16
8.80885e-16
2.28943e-15
2.28943e-15
2.27483e-15
1.52157e-15
1.44273e-15
1.52342e-15
9.91661e-16
2.18437e-26
4.45769e-27
6.54683e-28
4.96209e-28
4.77937e-20
5.90619e-21
1.64573e-35
9.48409e-37
1.1846e-36
1.66661e-36
2.88231e-39
3.05736e-46
3.05426e-46
3.01116e-50
1.44872e-62
5.89013e-64
8.26185e-64
9.26843e-63
7.47599e-15
4.28915e-15
2.94761e-17
3.86351e-17
4.38803e-17
5.15296e-17
6.84273e-17
3.0164e-16
3.78645e-16
3.26822e-16
3.07396e-16
8.39729e-16
1.77916e-15
1.32386e-15
7.08088e-16
7.17335e-16
7.28129e-16
6.61558e-16
6.79649e-16
7.45479e-16
1.61151e-15
2.28943e-15
2.28123e-15
2.12997e-15
1.37606e-15
1.41826e-15
4.88098e-16
2.34601e-23
2.87445e-21
1.21112e-18
1.62825e-18
2.19483e-19
1.18213e-32
1.59795e-32
2.64274e-32
6.7708e-35
7.44332e-42
2.95719e-41
9.30509e-45
4.98225e-52
8.93226e-52
8.60629e-56
1.88107e-64
4.10627e-64
4.9807e-64
2.4946e-16
3.7927e-17
2.94761e-17
3.99187e-17
2.72028e-17
3.28493e-17
3.2676e-17
8.22563e-16
2.00796e-15
7.28582e-16
2.93101e-16
3.023e-16
4.72512e-16
1.24436e-15
6.55921e-16
6.55896e-16
6.55874e-16
1.29734e-15
2.67073e-15
1.14521e-15
-9.8218e-35
1.98157e-15
2.28199e-15
2.27846e-15
1.59383e-15
7.39121e-16
3.45133e-16
8.07621e-22
2.25401e-21
1.81802e-18
2.53199e-18
2.58111e-19
1.77582e-33
3.75698e-35
3.52374e-35
6.42573e-35
1.39649e-41
2.30277e-41
1.10469e-44
1.41011e-52
1.32704e-51
3.76332e-55
1.29319e-65
2.56658e-65
5.11621e-65
2.50087e-16
2.44248e-18
2.99375e-17
2.1493e-17
2.18686e-17
2.48117e-17
2.75366e-17
8.35334e-16
2.12665e-15
7.4384e-16
2.9027e-16
2.95923e-16
3.22748e-16
2.08527e-15
2.16882e-15
6.55921e-16
7.25234e-16
3.79231e-15
2.8121e-15
-2.11023e-17
-3.72833e-16
-3.48565e-17
2.27623e-15
2.27842e-15
1.64012e-15
6.06575e-16
1.02391e-15
1.09311e-15
3.36499e-16
2.3948e-26
3.24626e-19
5.39474e-20
2.31052e-34
1.10445e-34
4.81153e-36
1.25515e-34
5.81682e-41
2.46078e-41
1.41011e-52
9.47869e-56
4.71266e-52
2.3462e-56
1.4644e-67
1.65736e-67
1.99572e-67
5.08992e-16
2.44057e-18
3.46283e-17
2.60667e-18
1.56888e-14
2.08904e-14
5.58816e-16
4.85879e-16
4.80566e-16
2.85926e-16
2.87703e-16
2.95947e-16
2.95884e-16
1.00237e-15
1.19806e-14
1.01446e-14
9.8583e-15
3.9133e-15
-6.58787e-16
-2.06881e-15
-1.75327e-15
-7.30361e-16
6.09683e-16
1.65363e-15
7.19013e-16
6.05407e-16
1.20827e-15
1.3764e-15
9.17505e-16
4.92746e-29
2.52604e-30
2.77272e-30
3.14277e-30
3.63005e-34
2.07769e-36
9.55422e-40
4.55681e-46
2.24154e-45
3.7982e-49
2.15483e-56
7.3157e-56
1.52117e-59
1.14698e-67
1.46375e-67
1.99574e-67
1.8432e-16
2.44044e-18
3.02023e-18
2.44248e-18
2.30549e-14
6.82548e-14
6.13472e-14
2.85397e-15
1.15135e-16
1.40919e-16
1.66051e-16
2.26257e-16
2.95733e-16
3.49174e-16
1.25315e-14
1.49143e-14
1.14748e-14
-3.0995e-16
-6.20599e-15
-7.54242e-15
-5.37181e-15
-2.43326e-15
-5.46275e-16
9.23163e-17
6.66995e-16
1.20157e-15
1.60053e-15
1.37958e-15
3.06104e-16
1.77638e-29
1.86305e-30
2.05054e-30
2.46876e-30
4.72189e-35
1.9903e-36
6.87022e-40
6.28046e-48
1.32697e-45
1.35152e-49
1.54234e-58
3.01398e-56
1.14698e-67
1.10103e-67
1.10103e-67
1.44568e-67
2.37005e-18
2.44046e-18
2.44044e-18
2.44057e-18
2.44248e-18
6.24615e-14
7.90532e-14
6.97873e-14
4.60751e-15
1.33945e-15
2.57063e-14
9.79316e-15
2.95856e-16
3.17652e-16
1.06572e-14
1.49143e-14
-1.25481e-41
-1.0032e-14
-1.85184e-14
-1.89274e-14
-1.31015e-14
-6.26815e-15
-1.85034e-15
-1.98761e-17
2.00451e-15
1.84e-15
1.63537e-15
7.11705e-16
6.98321e-29
2.31786e-30
4.23335e-30
8.54002e-30
2.17767e-32
1.55908e-38
1.54859e-38
3.61062e-42
4.19791e-48
4.18668e-48
1.54234e-58
5.54291e-59
5.91454e-59
3.34417e-64
7.56074e-68
1.10102e-67
1.10101e-67
2.37003e-18
1.81163e-18
7.06409e-14
1.00714e-13
8.05646e-14
1.47997e-14
7.24284e-14
8.23171e-14
7.34751e-14
1.16349e-14
3.73238e-14
5.30963e-14
7.24111e-15
3.19632e-16
1.54631e-14
7.65929e-15
-7.85022e-15
-2.82285e-14
-4.10162e-14
-3.97842e-14
-2.78761e-14
-1.41298e-14
-4.66853e-15
5.28911e-16
2.08048e-15
1.87731e-15
1.17173e-15
6.32925e-16
1.05171e-29
1.61867e-32
2.06822e-35
2.23217e-37
1.84584e-37
1.08049e-37
1.16076e-37
3.87061e-41
5.22174e-48
1.45332e-47
3.55404e-56
6.99773e-56
1.02886e-58
1.27099e-62
1.9638e-69
2.02383e-66
2.73021e-68
2.37023e-18
1.25322e-18
1.49846e-13
2.06343e-13
2.05471e-13
1.705e-13
6.34309e-14
7.85253e-14
8.32969e-14
7.67527e-14
2.8488e-14
4.98107e-14
6.38597e-14
5.23981e-14
2.24294e-14
-3.94463e-34
-2.85605e-14
-5.9294e-14
-7.81662e-14
-7.49419e-14
-5.38255e-14
-2.88142e-14
-1.06722e-14
-1.64311e-15
1.99464e-15
1.68923e-15
1.00749e-15
1.00778e-15
2.23855e-16
1.05171e-29
1.61867e-32
2.06822e-35
8.16982e-32
2.14662e-37
2.9635e-37
6.66776e-40
1.87417e-47
2.01688e-46
7.65367e-50
1.62324e-57
2.41052e-57
5.49063e-62
5.30952e-70
5.32517e-69
9.06195e-69
1.05675e-16
1.25322e-18
3.71038e-14
2.06358e-13
2.08549e-13
2.08549e-13
1.73163e-13
5.23585e-14
8.12045e-14
8.33957e-14
3.71218e-14
1.89895e-14
7.35005e-14
7.48437e-14
1.50414e-14
-1.41271e-14
-5.8562e-14
-1.06425e-13
-1.35937e-13
-1.31001e-13
-9.66961e-14
-5.43641e-14
-2.24554e-14
-5.98444e-15
-9.12873e-17
1.67711e-15
1.13688e-15
1.03952e-15
2.37327e-16
1.2379e-29
1.86007e-32
2.28541e-35
2.29486e-38
2.13169e-40
1.90029e-40
1.89785e-40
1.61049e-47
5.99783e-47
1.06607e-49
4.23089e-58
1.40493e-57
4.68558e-62
3.12656e-70
1.0293e-69
1.62484e-69
1.25322e-18
1.25322e-18
1.25322e-18
3.32521e-14
2.02674e-13
2.08549e-13
1.7983e-13
5.26307e-14
5.54721e-14
8.14072e-14
8.69016e-14
2.37898e-14
2.32786e-14
1.88309e-14
-1.2867e-17
-3.96942e-14
-1.04197e-13
-1.76177e-13
-2.22344e-13
-2.16646e-13
-1.64122e-13
-9.62245e-14
-4.29191e-14
-1.37552e-14
-2.49227e-15
8.32116e-16
1.24666e-15
1.07408e-15
2.89121e-17
1.46093e-30
6.09632e-32
5.47032e-32
8.53312e-32
1.33282e-35
5.15044e-38
1.03805e-41
1.40526e-48
3.2068e-47
7.62024e-51
5.13281e-60
1.00758e-59
3.12656e-70
2.83862e-70
3.84478e-70
4.69075e-70
1.25322e-18
1.25322e-18
1.85444e-18
1.26502e-18
2.52273e-14
1.35315e-13
4.87732e-14
4.94727e-14
5.07133e-14
6.69572e-14
9.04988e-14
8.7559e-14
3.07628e-16
-1.25469e-36
-1.50804e-14
-7.07115e-14
-1.66707e-13
-2.75904e-13
-3.48372e-13
-3.43666e-13
-2.66181e-13
-1.61368e-13
-7.57784e-14
-2.68021e-14
-6.45229e-15
-3.28796e-16
1.21967e-15
7.08354e-16
5.79388e-29
2.22253e-30
3.91598e-30
7.4423e-30
1.71695e-32
2.1337e-40
2.38261e-39
2.13156e-42
1.04595e-49
1.22868e-48
2.04608e-53
2.33231e-63
1.05687e-69
2.83863e-70
2.83798e-70
2.96031e-70
3.02977e-70
1.25323e-18
1.25325e-18
1.31991e-17
1.25992e-18
6.25699e-16
7.89035e-16
1.81898e-14
1.35844e-13
8.98447e-14
6.69592e-14
8.55619e-14
1.02371e-13
3.71355e-14
-4.80557e-37
-2.86996e-14
-1.13155e-13
-2.55733e-13
-4.18735e-13
-5.29662e-13
-5.2771e-13
-4.15763e-13
-2.58414e-13
-1.25813e-13
-4.71773e-14
-1.28616e-14
-1.76577e-15
1.04309e-15
8.76681e-16
3.1052e-18
5.09902e-29
9.76332e-29
8.91107e-29
3.33553e-31
8.17433e-41
6.51674e-41
6.83151e-41
1.28322e-47
7.32568e-48
8.93037e-52
7.39102e-63
5.97471e-64
2.3875e-63
2.23078e-70
2.64706e-70
2.8918e-70
1.25323e-18
1.25323e-18
1.07655e-17
4.88703e-16
1.86356e-18
1.86365e-18
1.99086e-14
2.07597e-13
2.07865e-13
8.53258e-14
7.82076e-14
1.08799e-13
8.93634e-14
6.73225e-15
-4.54368e-14
-1.74741e-13
-3.84806e-13
-6.23351e-13
-7.87669e-13
-7.89304e-13
-6.29061e-13
-3.97818e-13
-1.98483e-13
-7.71384e-14
-2.24605e-14
-4.08622e-15
5.00314e-16
1.10203e-15
1.67401e-16
6.47303e-30
8.83114e-33
9.7941e-36
8.83725e-39
3.4629e-41
4.90881e-41
1.04074e-40
2.60228e-48
7.2393e-56
8.85413e-60
5.97489e-64
1.79778e-68
1.11536e-70
2.20801e-70
2.32869e-70
2.53009e-70
1.25323e-18
1.25324e-18
1.25369e-18
1.95516e-15
3.74029e-15
1.07114e-15
2.32613e-15
1.2121e-13
2.16019e-13
2.16321e-13
8.32444e-14
7.62028e-14
8.80813e-14
3.60476e-14
-6.97705e-14
-2.69303e-13
-5.75065e-13
-9.16603e-13
-1.15142e-12
-1.15482e-12
-9.25864e-13
-5.91692e-13
-2.99762e-13
-1.19102e-13
-3.60798e-14
-7.45798e-15
-2.24573e-16
1.10127e-15
2.01692e-16
7.13205e-30
9.44104e-33
1.01338e-35
8.6993e-39
5.78452e-42
2.96819e-45
1.13588e-48
3.10939e-52
5.74996e-56
6.66564e-60
4.22051e-64
-5.02321e-83
-2.10862e-84
1.04151e-70
2.09827e-70
2.15156e-70
1.25324e-18
1.25369e-18
1.46381e-18
1.07603e-15
2.95165e-14
7.45657e-15
2.8566e-17
8.45599e-17
1.19197e-13
2.30223e-13
1.50937e-13
1.3365e-14
7.8607e-14
2.63346e-14
-1.22862e-13
-4.18914e-13
-8.57078e-13
-1.33593e-12
-1.65968e-12
-1.65764e-12
-1.32976e-12
-8.53508e-13
-4.35848e-13
-1.75376e-13
-5.43879e-14
-1.2063e-14
-1.04102e-15
5.10203e-16
7.51054e-17
2.27819e-30
2.91649e-33
3.02132e-36
2.51249e-39
1.05201e-41
7.68641e-42
8.28032e-42
7.50412e-53
2.47667e-55
1.59434e-55
4.30567e-55
1.02941e-63
-5.09476e-73
-9.80331e-90
1.03048e-70
2.06283e-70
6.68185e-17
4.73952e-18
1.48034e-18
2.83612e-15
2.9801e-14
3.98624e-18
5.77207e-18
2.8566e-17
1.42816e-16
2.22352e-13
1.86654e-13
7.88685e-15
9.82776e-15
-2.4516e-14
-2.36317e-13
-6.60748e-13
-1.27624e-12
-1.93336e-12
-2.36361e-12
-2.33936e-12
-1.86799e-12
-1.19738e-12
-6.12413e-13
-2.47699e-13
-7.77848e-14
-1.79066e-14
-2.23646e-15
3.03291e-17
3.72798e-17
1.55864e-19
6.27108e-31
1.24522e-30
1.53946e-30
2.47169e-34
8.02469e-43
2.01591e-40
2.19909e-48
7.63998e-48
6.7863e-51
2.04333e-53
-3.4685e-66
-8.7707e-71
-6.23424e-74
-4.17749e-77
2.05702e-70
1.21842e-16
6.29445e-17
2.96986e-18
2.22117e-18
1.99972e-18
1.04889e-13
1.21491e-12
1.14055e-12
8.25345e-13
2.45883e-13
1.79341e-13
4.54314e-16
-3.2127e-15
-1.21722e-13
-4.42482e-13
-1.04546e-12
-1.89643e-12
-2.77983e-12
-3.32983e-12
-3.2507e-12
-2.57076e-12
-1.63669e-12
-8.33443e-13
-3.36574e-13
-1.06098e-13
-2.48809e-14
-3.67309e-15
-2.04803e-16
1.46782e-17
1.22846e-18
1.27649e-32
1.37957e-34
2.38803e-34
4.89021e-34
2.1439e-37
4.61812e-42
-1.07042e-58
1.57451e-72
-2.4231e-59
-7.64127e-59
-1.2032e-68
-4.13137e-65
-2.87423e-61
-3.84273e-65
-2.27263e-70
9.01315e-17
6.38407e-17
1.2769e-13
1.28797e-17
4.72252e-18
4.752e-13
2.16326e-12
2.10345e-12
1.13995e-12
1.60168e-13
2.25869e-13
1.92694e-13
3.44057e-16
-2.53959e-13
-7.6671e-13
-1.63444e-12
-2.80341e-12
-3.9703e-12
-4.64366e-12
-4.45191e-12
-3.46959e-12
-2.18203e-12
-1.09973e-12
-4.40489e-13
-1.3825e-13
-3.26304e-14
-5.13701e-15
-4.20445e-16
-7.79925e-18
6.93857e-19
1.34363e-20
5.05176e-35
1.09637e-50
3.58217e-41
2.31845e-72
-5.22203e-57
-1.37884e-51
-1.38203e-52
-3.44784e-59
-1.75286e-48
-4.02807e-51
-2.72956e-54
-7.5011e-58
-7.2299e-62
-1.38072e-66
7.89644e-17
3.66325e-12
7.58026e-12
6.41553e-12
4.37965e-12
4.87899e-13
1.17773e-12
1.689e-12
3.89067e-13
1.5881e-13
2.30371e-13
2.32317e-13
-2.64767e-14
-4.73724e-13
-1.26961e-12
-2.51757e-12
-4.11542e-12
-5.63162e-12
-6.41297e-12
-6.01225e-12
-4.59437e-12
-2.83827e-12
-1.40718e-12
-5.55322e-13
-1.72173e-13
-4.04367e-14
-6.52243e-15
-6.01464e-16
-2.21511e-17
2.02268e-19
1.93598e-20
1.67062e-55
-3.79149e-46
-7.95069e-51
-1.43019e-44
-1.99538e-45
-2.0158e-51
-8.43281e-41
-4.43884e-43
-9.51861e-46
-1.04817e-48
-5.89896e-52
-1.53589e-55
-1.46545e-59
-2.68692e-64
3.02742e-14
8.28801e-12
9.03804e-12
9.03804e-12
7.27154e-12
5.64025e-13
4.83048e-13
4.41522e-13
9.49086e-14
1.71028e-13
2.22177e-13
3.83058e-14
-2.04508e-13
-8.71376e-13
-2.05914e-12
-3.83717e-12
-6.00448e-12
-7.93671e-12
-8.77347e-12
-8.00794e-12
-5.96849e-12
-3.60056e-12
-1.74482e-12
-6.73696e-13
-2.0469e-13
-4.73302e-14
-7.61204e-15
-7.20473e-16
-3.00143e-17
-4.4045e-20
1.96126e-20
3.36274e-23
-1.10295e-37
-1.55447e-39
-1.58452e-42
-3.80143e-34
-4.33402e-36
-2.20599e-38
-6.35341e-41
-1.0705e-43
-1.03148e-46
-5.3193e-50
-1.29274e-53
-1.14581e-57
-1.83231e-62
1.17562e-13
3.35487e-12
9.03804e-12
9.03804e-12
4.08134e-12
4.73755e-13
4.7373e-13
4.37889e-13
6.74627e-13
4.04557e-13
-1.03161e-22
-9.30952e-14
-5.67852e-13
-1.57827e-12
-3.31661e-12
-5.82244e-12
-8.72867e-12
-1.1125e-11
-1.18941e-11
-1.0517e-11
-7.60084e-12
-4.44891e-12
-2.09272e-12
-7.84683e-13
-2.31674e-13
-5.22106e-14
-8.26706e-15
-7.9013e-16
-3.60966e-17
-4.12513e-19
1.06584e-20
1.14435e-22
-1.45525e-40
-3.67688e-28
-9.04678e-30
-7.90699e-32
-4.47438e-34
-1.67928e-36
-4.07011e-39
-6.13235e-42
-5.43907e-45
-2.6096e-48
-5.87635e-52
-4.70724e-56
-6.17403e-61
4.76497e-15
7.59486e-16
4.64792e-12
9.03804e-12
2.18081e-12
4.7394e-13
4.73755e-13
1.33517e-12
1.32234e-12
1.39591e-13
-1.79584e-14
-4.00296e-13
-1.2221e-12
-2.77555e-12
-5.32272e-12
-8.83363e-12
-1.26735e-11
-1.5525e-11
-1.59776e-11
-1.3607e-11
-9.47345e-12
-5.34174e-12
-2.42044e-12
-8.74135e-13
-2.48516e-13
-5.40853e-14
-8.51047e-15
-8.97749e-16
-6.0241e-17
-2.52742e-18
-6.71528e-20
-1.17251e-21
-1.41537e-23
-1.25846e-25
-8.7724e-28
-4.91727e-30
-2.14434e-32
-6.80546e-35
-1.46865e-37
-2.02298e-40
-1.65787e-43
-7.3416e-47
-1.50459e-50
-1.05411e-54
-1.03942e-59
4.27517e-15
2.60172e-15
4.36727e-15
2.33309e-12
8.82647e-13
4.75349e-13
1.78217e-12
3.39577e-12
8.45857e-13
-4.73878e-33
-2.06922e-13
-9.18004e-13
-2.3173e-12
-4.75473e-12
-8.51834e-12
-1.34199e-11
-1.83947e-11
-2.15675e-11
-2.12451e-11
-1.73094e-11
-1.15226e-11
-6.2088e-12
-2.68689e-12
-9.26112e-13
-2.51054e-13
-5.23315e-14
-8.13732e-15
-9.16849e-16
-7.34325e-17
-4.1447e-18
-1.64497e-19
-4.59863e-21
-9.06732e-23
-1.26075e-24
-1.2319e-26
-8.39137e-29
-3.93274e-31
-1.24241e-33
-2.56745e-36
-3.32428e-39
-2.53118e-42
-1.02749e-45
-1.88393e-49
-1.11235e-53
-7.67834e-59
2.61434e-12
4.91001e-11
2.52039e-11
7.8596e-13
7.86251e-13
4.84835e-13
6.42985e-12
3.92439e-12
-5.4851e-48
-8.04704e-15
-5.51729e-13
-1.85873e-12
-4.22346e-12
-8.07263e-12
-1.36552e-11
-2.04458e-11
-2.66906e-11
-2.97897e-11
-2.78949e-11
-2.15728e-11
-1.36135e-11
-6.94579e-12
-2.84298e-12
-9.25621e-13
-2.36745e-13
-4.66458e-14
-6.91595e-15
-7.54948e-16
-5.9767e-17
-3.40324e-18
-1.38786e-19
-4.04732e-21
-8.42212e-23
-1.24616e-24
-1.30249e-26
-9.51228e-29
-4.7783e-31
-1.61399e-33
-3.55167e-36
-4.87005e-39
-3.89766e-42
-1.64369e-45
-3.05823e-49
-1.73311e-53
-1.15773e-58
1.44523e-15
1.67326e-15
2.72443e-11
9.9545e-11
4.68104e-11
7.87668e-13
7.85952e-13
1.09923e-11
1.00299e-11
3.54536e-13
-4.3751e-32
-3.67886e-13
-1.43373e-12
-3.68027e-12
-7.59761e-12
-1.36816e-11
-2.19643e-11
-3.12343e-11
-3.86574e-11
-4.07927e-11
-3.6012e-11
-2.61917e-11
-1.55124e-11
-7.4152e-12
-2.83883e-12
-8.62843e-13
-2.05647e-13
-3.77631e-14
-5.2413e-15
-5.40432e-16
-4.08995e-17
-2.25501e-18
-9.01227e-20
-2.60248e-21
-5.40686e-23
-8.03493e-25
-8.46527e-27
-6.24259e-29
-3.16689e-31
-1.0794e-33
-2.3921e-36
-3.28953e-39
-2.62013e-42
-1.08356e-45
-1.91245e-49
-9.56992e-54
-8.14028e-59
7.35021e-16
7.65596e-16
8.66054e-11
6.28486e-11
4.1755e-11
8.08431e-13
1.51889e-11
1.68414e-11
4.33935e-12
-4.87528e-38
-2.3178e-13
-1.16033e-12
-3.20612e-12
-7.12934e-12
-1.36724e-11
-2.33192e-11
-3.55303e-11
-4.78058e-11
-5.57214e-11
-5.51086e-11
-4.54035e-11
-3.07126e-11
-1.68711e-11
-7.46254e-12
-2.63768e-12
-7.38359e-13
-1.61726e-13
-2.72839e-14
-3.48889e-15
-3.33403e-16
-2.35693e-17
-1.22422e-18
-4.6464e-20
-1.28309e-21
-2.56334e-23
-3.67797e-25
-3.7531e-27
-2.68614e-29
-1.32435e-31
-4.38771e-34
-9.43236e-37
-1.25319e-39
-9.57074e-43
-3.72766e-46
-5.97766e-50
-2.72583e-54
-2.98497e-59
2.23546e-14
7.03665e-10
4.30798e-10
1.7099e-13
3.6996e-11
1.94716e-11
2.31439e-11
1.92524e-11
1.2099e-13
-6.84628e-49
-9.10623e-13
-2.88048e-12
-6.80613e-12
-1.38158e-11
-2.48901e-11
-4.01915e-11
-5.78604e-11
-7.31259e-11
-7.95045e-11
-7.28637e-11
-5.53229e-11
-3.43368e-11
-1.72472e-11
-6.95552e-12
-2.2351e-12
-5.67063e-13
-1.12246e-13
-1.7087e-14
-1.97314e-15
-1.70813e-16
-1.09913e-17
-5.22501e-19
-1.82491e-20
-4.66027e-22
-8.64874e-24
-1.15772e-25
-1.1059e-27
-7.43052e-30
-3.44629e-32
-1.07467e-34
-2.17516e-37
-2.7162e-40
-1.93367e-43
-6.86941e-47
-9.72028e-51
-4.74095e-55
-5.74644e-60
2.24227e-47
1.06622e-09
5.46346e-10
8.56025e-13
4.10622e-11
2.53273e-11
2.62036e-11
9.27002e-12
-1.08965e-30
-5.25925e-13
-2.63795e-12
-6.76778e-12
-1.44305e-11
-2.72391e-11
-4.61853e-11
-7.0244e-11
-9.47175e-11
-1.11178e-10
-1.11256e-10
-9.3087e-11
-6.40973e-11
-3.58924e-11
-1.61996e-11
-5.84994e-12
-1.67748e-12
-3.78441e-13
-6.64177e-14
-8.95326e-15
-9.16456e-16
-7.05372e-17
-4.0529e-18
-1.72864e-19
-5.44361e-21
-1.25996e-22
-2.12917e-24
-2.60471e-26
-2.28131e-28
-1.40979e-30
-6.02627e-33
-1.73671e-35
-3.25156e-38
-3.73984e-41
-2.4145e-44
-7.60153e-48
-9.56542e-52
-5.30633e-56
-5.90966e-61
-8.92702e-20
6.81545e-10
3.11209e-10
4.42684e-12
3.57286e-11
5.64101e-11
3.34913e-11
-1.77161e-37
-1.43702e-45
-2.16541e-12
-6.89154e-12
-1.58174e-11
-3.12304e-11
-5.51594e-11
-8.76596e-11
-1.24346e-10
-1.54939e-10
-1.6618e-10
-1.50274e-10
-1.12531e-10
-6.88218e-11
-3.403e-11
-1.35005e-11
-4.26803e-12
-1.06705e-12
-2.09018e-13
-3.17458e-14
-3.69797e-15
-3.27353e-16
-2.18485e-17
-1.09327e-18
-4.08366e-20
-1.13256e-21
-2.31987e-23
-3.4867e-25
-3.81245e-27
-3.00027e-29
-1.67292e-31
-6.48292e-34
-1.69653e-36
-2.87296e-39
-2.95231e-42
-1.66899e-45
-4.50298e-49
-5.4595e-53
-2.94251e-57
-3.02028e-62
5.34629e-15
5.05509e-14
3.02032e-13
2.36995e-10
1.33301e-10
6.48352e-11
-5.07145e-30
-7.6685e-37
-1.59642e-12
-7.11168e-12
-1.83086e-11
-3.82832e-11
-7.02415e-11
-1.15567e-10
-1.70212e-10
-2.21515e-10
-2.49882e-10
-2.39187e-10
-1.90482e-10
-1.24249e-10
-6.56402e-11
-2.78617e-11
-9.44042e-12
-2.53693e-12
-5.36584e-13
-8.85304e-14
-1.12901e-14
-1.10321e-15
-8.20551e-17
-4.61866e-18
-1.95811e-19
-6.22762e-21
-1.47948e-22
-2.6124e-24
-3.40561e-26
-3.24969e-28
-2.24288e-30
-1.10164e-32
-3.76017e-35
-8.619e-38
-1.2656e-40
-1.11137e-43
-5.29611e-47
-1.21452e-50
-1.46002e-54
-6.86914e-59
-7.04533e-64
5.05509e-14
6.47287e-10
2.41529e-09
1.02737e-09
8.57121e-32
-1.77444e-49
-3.68793e-26
-3.34725e-13
-7.19851e-12
-2.27968e-11
-5.16202e-11
-9.85064e-11
-1.66426e-10
-2.51217e-10
-3.3571e-10
-3.90193e-10
-3.86044e-10
-3.18347e-10
-2.15074e-10
-1.17607e-10
-5.16402e-11
-1.81018e-11
-5.03722e-12
-1.10547e-12
-1.89855e-13
-2.53111e-14
-2.59993e-15
-2.04401e-16
-1.22432e-17
-5.56701e-19
-1.91555e-20
-4.97089e-22
-9.6897e-24
-1.41202e-25
-1.52705e-27
-1.21411e-29
-6.99327e-32
-2.85801e-34
-8.07276e-37
-1.52041e-39
-1.81684e-42
-1.28516e-45
-4.87585e-49
-9.78676e-53
-1.03882e-56
-4.18814e-61
-4.28453e-66
3.02032e-13
4.97767e-09
4.62506e-09
7.05622e-10
-5.03908e-32
-1.00622e-31
-2.09536e-27
-7.33711e-12
-3.163e-11
-8.06343e-11
-1.60552e-10
-2.75156e-10
-4.18342e-10
-5.62115e-10
-6.56041e-10
-6.50413e-10
-5.3561e-10
-3.5975e-10
-1.94726e-10
-8.4357e-11
-2.91138e-11
-7.96509e-12
-1.71636e-12
-2.89145e-13
-3.7806e-14
-3.81331e-15
-2.95323e-16
-1.74941e-17
-7.90885e-19
-2.72322e-20
-7.12548e-22
-1.41291e-23
-2.11333e-25
-2.37103e-27
-1.97834e-29
-1.21268e-31
-5.37394e-34
-1.68691e-36
-3.64962e-39
-5.24099e-42
-4.74695e-45
-2.54256e-48
-7.70607e-52
-1.37078e-55
-1.30218e-59
-5.15336e-64
-5.84594e-69
1.63909e-12
5.26789e-09
4.81021e-09
3.50354e-10
-1.50085e-18
-1.6131e-23
-1.63613e-12
-4.46721e-11
-1.49472e-10
-3.2462e-10
-5.60593e-10
-8.37048e-10
-1.09651e-09
-1.23653e-09
-1.16976e-09
-9.06294e-10
-5.65173e-10
-2.81154e-10
-1.11142e-10
-3.47834e-11
-8.56807e-12
-1.64892e-12
-2.46137e-13
-2.83375e-14
-2.50687e-15
-1.70006e-16
-8.82899e-18
-3.5093e-19
-1.06741e-20
-2.48114e-22
-4.40001e-24
-5.93968e-26
-6.07469e-28
-4.67936e-30
-2.69316e-32
-1.14611e-34
-3.5564e-37
-7.91005e-40
-1.23699e-42
-1.32667e-45
-9.53248e-49
-4.53013e-52
-1.44269e-55
-2.90846e-59
-3.6099e-63
-1.8139e-67
-2.34383e-72
1.28015e-11
1.61861e-09
1.00975e-09
-3.62478e-36
-4.3821e-20
-3.37738e-20
-7.84661e-11
-3.74553e-10
-9.61903e-10
-1.67297e-09
-2.29543e-09
-2.6962e-09
-2.6944e-09
-2.18437e-09
-1.39082e-09
-6.89555e-10
-2.66353e-10
-8.00348e-11
-1.86037e-11
-3.32528e-12
-4.5556e-13
-4.78563e-14
-3.86887e-15
-2.42161e-16
-1.18225e-17
-4.53633e-19
-1.37738e-20
-3.32391e-22
-6.38808e-24
-9.75891e-26
-1.18022e-27
-1.1232e-29
-8.3473e-32
-4.81068e-34
-2.1341e-36
-7.22917e-39
-1.8521e-41
-3.55202e-44
-5.05619e-47
-5.31634e-50
-4.07455e-53
-2.25665e-56
-8.67833e-60
-2.23078e-63
-3.66222e-67
-2.28809e-71
-3.0161e-76
6.13291e-11
1.38757e-08
3.01696e-09
-1.02395e-19
-1.79164e-18
-9.35161e-11
-1.15312e-09
-4.63684e-09
-9.63463e-09
-1.13069e-08
-8.10523e-09
-3.81295e-09
-1.24878e-09
-2.99804e-10
-5.62955e-11
-9.20605e-12
-1.49289e-12
-2.46117e-13
-3.71065e-14
-4.61297e-15
-4.50141e-16
-3.39485e-17
-1.97643e-18
-8.92456e-20
-3.14791e-21
-8.74192e-23
-1.92681e-24
-3.38799e-26
-4.7732e-28
-5.38698e-30
-4.85919e-32
-3.49387e-34
-1.99571e-36
-9.04048e-39
-3.24682e-41
-9.24263e-44
-2.08359e-46
-3.70714e-49
-5.19472e-52
-5.72213e-55
-4.84939e-58
-3.08788e-61
-1.43754e-64
-4.81925e-68
-9.58707e-72
-6.78512e-76
-8.14959e-81
1.73149e-35
1.72982e-35
5.64345e-37
8.63338e-53
1.3529e-52
2.17492e-52
2.90671e-55
2.75335e-62
8.81811e-61
1.59179e-22
4.91195e-36
8.47043e-36
2.48147e-34
6.9729e-43
3.33595e-45
6.97676e-45
5.93323e-49
2.78057e-61
1.40703e-62
2.75154e-62
1.14898e-61
4.77488e-17
4.94041e-17
5.09327e-17
3.86721e-17
1.65787e-16
4.01571e-16
4.01571e-16
3.44631e-16
2.8102e-16
1.77072e-15
1.28747e-14
1.30976e-14
1.16044e-14
1.95362e-15
7.09659e-16
3.91837e-15
5.67621e-15
1.38153e-15
6.05268e-16
6.12498e-16
8.63216e-16
2.26501e-15
2.28305e-15
2.25807e-15
2.12373e-15
1.93969e-15
2.20333e-16
4.50128e-25
1.27174e-20
1.25187e-20
2.53544e-21
4.3963e-20
5.75139e-21
1.52108e-35
6.65632e-37
6.5217e-37
6.52175e-37
5.86212e-39
3.31935e-46
4.34299e-46
5.92819e-50
1.40703e-62
3.8873e-64
6.93376e-64
9.77255e-63
3.69927e-17
3.25327e-17
2.94761e-17
2.84077e-16
5.00721e-17
1.59656e-16
1.24841e-16
1.25778e-16
1.55125e-15
1.21369e-15
2.62024e-15
1.28648e-14
1.28592e-14
6.72883e-15
6.94388e-16
9.64449e-16
1.04243e-15
6.88073e-16
6.0491e-16
6.05268e-16
7.35462e-16
2.28943e-15
2.28291e-15
2.27314e-15
2.1422e-15
1.19907e-15
3.53862e-21
7.84621e-22
1.07099e-20
2.38801e-18
2.08069e-18
6.7494e-20
7.50386e-33
1.06498e-32
1.61673e-32
2.02886e-35
3.827e-42
1.03073e-41
1.55028e-45
2.33917e-52
3.67283e-52
1.46465e-56
1.18839e-64
4.82551e-64
5.12129e-64
8.38343e-18
2.94418e-15
7.42037e-15
8.12887e-16
2.75366e-17
3.35566e-17
3.29431e-17
3.50514e-15
4.82646e-15
3.35583e-15
2.96007e-16
2.42622e-15
8.64012e-15
5.91063e-15
6.81955e-16
7.85727e-16
6.55853e-16
5.9962e-16
5.99897e-16
1.96338e-15
1.26035e-15
8.22631e-16
2.28285e-15
2.28103e-15
8.3654e-16
7.10384e-16
5.08028e-16
4.1632e-17
2.96766e-21
2.89668e-18
2.66173e-18
4.09275e-20
1.66095e-33
2.23213e-33
4.22081e-33
1.203e-35
3.827e-42
5.2022e-42
1.86168e-45
8.14051e-53
1.6268e-52
1.25144e-56
2.48885e-65
1.61501e-64
2.49329e-65
4.5941e-14
5.52918e-14
2.3734e-14
8.95975e-18
2.93197e-17
3.24269e-17
3.26639e-17
4.82646e-15
4.82646e-15
2.22198e-15
2.92816e-16
3.33429e-16
4.85726e-16
5.91109e-16
7.75003e-16
7.52647e-16
5.92766e-16
5.93348e-16
3.92171e-15
8.27075e-15
3.3543e-15
-3.39617e-75
1.80379e-15
1.85596e-15
6.08614e-16
6.07317e-16
1.24922e-15
1.23641e-15
2.16151e-16
1.77701e-26
2.82612e-19
2.32178e-20
1.72644e-34
8.32146e-35
3.27883e-36
2.76338e-35
1.02395e-40
6.73366e-42
9.94262e-53
6.88408e-56
1.61106e-52
1.40897e-57
1.43184e-67
1.70574e-67
3.74725e-67
6.10172e-14
6.10172e-14
1.68754e-14
4.86218e-18
8.95975e-18
2.50593e-17
4.24792e-17
2.02056e-15
2.90559e-15
4.42392e-16
2.89513e-16
2.92816e-16
2.96007e-16
3.6752e-16
9.03144e-16
5.2241e-16
5.23815e-16
5.94533e-16
9.12502e-15
8.29918e-15
2.37405e-15
-8.15732e-59
5.36973e-16
6.45744e-16
5.5073e-16
6.0455e-16
1.35629e-15
1.37493e-15
6.78081e-16
3.65655e-29
1.83438e-30
1.90489e-30
2.21e-30
1.69343e-34
1.57862e-36
7.79107e-40
3.67005e-46
1.59694e-45
2.77771e-49
1.71747e-56
5.15549e-56
5.08931e-60
1.14155e-67
1.33843e-67
1.82833e-67
6.10172e-14
2.75918e-14
2.44248e-18
2.27217e-17
1.53333e-15
1.55732e-16
4.28391e-17
9.76537e-17
9.8404e-17
4.20553e-14
3.97474e-14
7.44248e-16
2.95856e-16
3.5523e-16
3.93734e-16
3.93974e-16
1.18649e-15
1.2805e-14
1.09403e-14
1.35784e-15
-2.59518e-37
4.76643e-18
1.55483e-16
2.81608e-16
5.29452e-16
1.66118e-15
1.60656e-15
1.3129e-15
2.47406e-16
1.42425e-29
1.57947e-30
1.55344e-30
1.55246e-30
3.38458e-38
1.48171e-36
9.31227e-40
1.07532e-47
1.03633e-45
1.01411e-49
1.96733e-58
2.34068e-56
1.14155e-67
1.10147e-67
1.10751e-67
1.41413e-67
3.75154e-14
5.14578e-16
2.44057e-18
2.44911e-18
2.11646e-15
7.41149e-16
4.28391e-17
6.1887e-17
1.27789e-15
5.41419e-14
6.27572e-14
4.6022e-14
2.96012e-16
3.53104e-16
3.5504e-16
8.23809e-16
1.88622e-14
1.61533e-14
2.67692e-15
-4.05151e-34
-1.44521e-26
8.04795e-52
-8.27928e-37
1.45922e-16
1.88463e-15
1.83527e-15
1.68191e-15
7.84623e-16
7.80594e-29
5.46169e-30
1.0486e-29
2.10695e-29
2.39434e-32
2.00801e-38
2.63858e-38
3.25278e-42
4.72615e-48
7.34504e-48
1.96733e-58
5.15367e-59
5.14614e-59
1.10147e-67
1.09947e-67
1.10187e-67
1.10451e-67
8.67266e-16
4.5557e-16
1.02432e-14
9.18513e-15
4.5347e-16
4.48915e-16
4.28393e-17
2.39432e-16
2.13473e-15
1.5015e-14
6.43022e-14
6.49452e-14
2.62424e-14
3.2655e-16
3.40148e-16
2.45305e-14
2.34335e-14
1.50775e-14
1.42368e-35
-4.34246e-38
1.90818e-15
1.58506e-15
9.90935e-16
2.11469e-15
2.08073e-15
1.80289e-15
1.20029e-15
7.67516e-16
9.07614e-19
2.16374e-32
1.15844e-34
4.7878e-35
1.3856e-34
8.42805e-35
6.44164e-38
1.36427e-47
2.08449e-48
2.07722e-48
4.95161e-58
8.84236e-59
1.25151e-58
3.83638e-62
1.98858e-69
1.22806e-66
2.79334e-68
1.01301e-17
6.40851e-16
1.9007e-14
3.72261e-14
1.57755e-14
4.29852e-17
4.28904e-17
4.62383e-17
2.7221e-16
1.6324e-15
1.87438e-14
6.92567e-14
7.10396e-14
3.56715e-14
4.34492e-14
3.21334e-14
1.16806e-14
-3.76767e-51
-1.17746e-49
1.38932e-15
2.56629e-15
2.56629e-15
2.56629e-15
2.55983e-15
2.10994e-15
1.06707e-15
1.07887e-15
1.07936e-15
2.82971e-16
1.39326e-29
2.16374e-32
1.15844e-34
3.00565e-31
5.08931e-37
1.69571e-37
6.28207e-40
1.36427e-47
1.91922e-46
8.52259e-50
4.95161e-58
3.30575e-57
1.21699e-61
5.46306e-70
5.32225e-69
9.06456e-69
1.25322e-18
1.45183e-17
3.4209e-15
2.96095e-14
3.52401e-14
2.11496e-15
4.29852e-17
4.41393e-17
4.78912e-17
1.20048e-15
2.53146e-15
1.47809e-14
7.44775e-14
7.48437e-14
6.96545e-14
7.61623e-15
-6.85079e-52
-2.20955e-49
1.34078e-15
1.79563e-15
1.69973e-15
1.28986e-15
2.51897e-15
2.59508e-15
1.58559e-15
1.06616e-15
1.07486e-15
1.07936e-15
2.7766e-16
1.42688e-29
2.14221e-32
2.63557e-35
2.6594e-38
2.96671e-40
2.64653e-40
3.27666e-40
1.6177e-47
8.99003e-47
1.45599e-49
4.88079e-58
1.53909e-57
4.15558e-62
3.41765e-70
1.05932e-69
1.62935e-69
1.25322e-18
1.25322e-18
1.04881e-17
1.08679e-15
8.95158e-15
1.6015e-14
3.81114e-14
1.14088e-13
8.37868e-14
1.20921e-15
2.22407e-15
2.30437e-15
7.06047e-14
7.48437e-14
2.86732e-14
-2.18975e-50
7.87451e-17
1.1996e-15
8.58899e-16
-3.62779e-16
-1.35323e-15
-1.52133e-15
-2.7141e-16
2.28544e-15
1.79665e-15
1.06556e-15
1.20372e-15
1.06473e-15
3.49486e-17
1.71009e-30
2.95402e-32
5.156e-32
1.04885e-31
1.84499e-35
5.4977e-38
2.66622e-41
1.04595e-49
4.02731e-47
9.36365e-51
3.55215e-60
1.02213e-59
3.41765e-70
3.40388e-70
4.08015e-70
5.30264e-70
1.25322e-18
1.25322e-18
1.25322e-18
5.13804e-18
2.77276e-16
4.17296e-15
6.57579e-14
2.19278e-13
2.19324e-13
1.55389e-13
3.37198e-15
2.6733e-14
7.60387e-14
5.21485e-14
6.24844e-33
-3.06669e-35
1.20478e-15
1.08535e-15
-1.3948e-15
-5.44641e-15
-7.82844e-15
-6.84857e-15
-3.595e-15
-5.716e-16
1.54422e-15
1.29324e-15
1.26489e-15
8.092e-16
7.37193e-29
1.3018e-31
1.87925e-34
2.21443e-37
2.1337e-40
3.04637e-42
2.83238e-42
2.82734e-42
5.06154e-50
5.05894e-50
3.27261e-52
4.76272e-64
1.39155e-66
2.65967e-66
2.43768e-70
2.75501e-70
2.89442e-70
1.25322e-18
1.25322e-18
1.25503e-18
1.25716e-18
7.36964e-18
1.86365e-18
1.47102e-14
1.99936e-13
2.21233e-13
2.21233e-13
1.81843e-13
1.23524e-13
7.60809e-14
1.14782e-15
-6.55943e-36
3.14394e-18
1.28143e-15
-7.45632e-16
-7.64274e-15
-1.62118e-14
-2.03026e-14
-1.71516e-14
-9.86571e-15
-3.39231e-15
-7.02769e-17
1.28195e-15
1.27736e-15
7.88065e-16
5.66554e-29
2.8207e-30
5.12451e-30
9.84073e-30
1.60926e-32
2.1213e-40
7.90018e-39
1.70241e-42
7.93006e-50
1.17485e-48
2.14709e-59
2.13145e-63
7.57158e-70
2.27397e-70
2.37253e-70
2.49311e-70
2.61707e-70
1.25322e-18
1.25322e-18
1.25839e-18
1.27089e-18
1.86362e-18
1.86356e-18
4.37087e-16
1.95816e-14
2.00185e-13
2.21233e-13
2.21233e-13
1.38212e-13
-9.67887e-40
-2.07972e-35
-1.6025e-33
5.15523e-17
1.28143e-15
-5.56327e-15
-2.03135e-14
-3.59511e-14
-4.2186e-14
-3.51849e-14
-2.10866e-14
-8.67618e-15
-1.8477e-15
9.62427e-16
1.27735e-15
1.07381e-15
8.13477e-18
4.20513e-31
5.73381e-34
6.35241e-37
5.65227e-40
3.90585e-43
2.08134e-46
8.27918e-50
2.36233e-53
4.57691e-57
5.58853e-61
3.75223e-65
1.22734e-69
1.61861e-70
2.17341e-70
2.25128e-70
2.36941e-70
1.52076e-17
1.25323e-18
1.25687e-18
1.26603e-18
1.86715e-18
1.88823e-18
2.13318e-16
1.41221e-15
1.8698e-14
1.71371e-13
1.40856e-13
2.13194e-14
-3.05535e-40
-6.65014e-36
4.2559e-16
5.51573e-15
1.26357e-15
-1.55454e-14
-4.31836e-14
-6.91037e-14
-7.77042e-14
-6.42367e-14
-3.9314e-14
-1.74154e-14
-4.96034e-15
-2.44347e-16
1.23764e-15
1.14777e-15
3.13575e-17
1.16146e-30
1.5356e-33
1.64641e-36
1.41452e-39
9.4479e-43
4.86013e-46
1.85898e-49
5.08488e-53
9.39141e-57
1.08686e-60
6.86862e-65
-8.63694e-81
5.31233e-71
1.05999e-70
2.09477e-70
2.13394e-70
8.00777e-17
3.71649e-18
1.25836e-18
1.27309e-18
1.83557e-18
7.19793e-18
1.3142e-16
4.77928e-16
1.28687e-15
1.6266e-14
1.82137e-14
1.48245e-14
4.73748e-14