/*--------------------------------*- C++ -*----------------------------------*\
| =========                 |                                                 |
| \\      /  F ield         | OpenFOAM: The Open Source CFD Toolbox           |
|  \\    /   O peration     | Version:  v2012                                 |
|   \\  /    A nd           | Website:  www.openfoam.com                      |
|    \\/     M anipulation  |                                                 |
\*---------------------------------------------------------------------------*/
FoamFile
{
    version     2.0;
    format      ascii;
    class       volVectorField;
    location    "0.6";
    object      U;
}
// * * * * * * * * * * * * * * * * * * * * * * * * * * * * * * * * * * * * * //

dimensions      [0 1 -1 0 0 0 0];


internalField   nonuniform List<vector> 
3326
(
(0.00467289 -0.00702158 -4.0804e-05)
(0.00373993 -0.00610786 -3.26591e-05)
(0.00289501 -0.00522771 -2.52828e-05)
(0.00214155 -0.00437122 -1.87048e-05)
(0.00148456 -0.00353043 -1.29686e-05)
(0.000929729 -0.00269927 -8.12398e-06)
(0.000487894 -0.00187269 -4.26535e-06)
(0.000169118 -0.00104774 -1.48179e-06)
(3.23905e-06 -0.000249735 -5.45143e-08)
(0.00799911 -0.00973635 -6.98407e-05)
(0.00680306 -0.00867447 -5.93996e-05)
(0.00569119 -0.0076826 -4.96933e-05)
(0.0046657 -0.00674844 -4.07404e-05)
(0.00372854 -0.00586005 -3.25592e-05)
(0.00288207 -0.00500615 -2.51693e-05)
(0.00212901 -0.00417696 -1.85949e-05)
(0.0014739 -0.00336481 -1.28752e-05)
(0.000921819 -0.00256412 -8.05472e-06)
(0.000483067 -0.00177069 -4.22307e-06)
(0.000167092 -0.000982867 -1.46403e-06)
(3.04393e-06 -0.000227368 -5.2489e-08)
(0.0243729 -0.0826853 -0.000212718)
(0.0264828 -0.083115 -0.000231136)
(0.02849 -0.0830542 -0.000248655)
(0.0303735 -0.0825231 -0.000265096)
(0.0321075 -0.0815412 -0.000280232)
(0.0336624 -0.0801348 -0.000293805)
(0.0350142 -0.0783339 -0.000305605)
(0.0361448 -0.0761736 -0.000315476)
(0.0370363 -0.0736913 -0.00032326)
(0.0376768 -0.0709293 -0.000328853)
(0.0380577 -0.0679311 -0.00033218)
(0.0381775 -0.0647428 -0.000333228)
(0.0380379 -0.0614104 -0.000332014)
(0.0376475 -0.0579803 -0.000328608)
(0.0370173 -0.0544963 -0.000323112)
(0.0361646 -0.0510012 -0.000315671)
(0.0351083 -0.047533 -0.000306454)
(0.0338717 -0.0441272 -0.000295662)
(0.0324784 -0.0408137 -0.000283503)
(0.0309549 -0.0376186 -0.000270207)
(0.0293264 -0.034562 -0.000255995)
(0.0276193 -0.03166 -0.000241096)
(0.0258577 -0.0289233 -0.000225721)
(0.0240652 -0.0263586 -0.000210076)
(0.0222629 -0.0239686 -0.000194345)
(0.0204702 -0.0217521 -0.000178697)
(0.0187034 -0.0197052 -0.000163278)
(0.0169774 -0.0178214 -0.000148213)
(0.0153041 -0.0160922 -0.000133607)
(0.0136938 -0.0145081 -0.000119551)
(0.012154 -0.0130575 -0.00010611)
(0.0106909 -0.0117288 -9.33386e-05)
(0.00930918 -0.0105096 -8.1277e-05)
(0.0080122 -0.00938733 -6.99538e-05)
(0.00680229 -0.00834909 -5.9392e-05)
(0.0056811 -0.00738199 -4.96045e-05)
(0.00464991 -0.0064734 -4.06025e-05)
(0.00371021 -0.0056113 -3.2399e-05)
(0.00286356 -0.00478438 -2.50077e-05)
(0.00211227 -0.00398304 -1.84487e-05)
(0.0014602 -0.00319987 -1.27555e-05)
(0.000911941 -0.00242984 -7.96839e-06)
(0.000477128 -0.00166954 -4.17114e-06)
(0.000164651 -0.000918649 -1.44265e-06)
(2.82127e-06 -0.000205285 -5.0155e-08)
(0.0266669 -0.0875602 -0.000232743)
(0.0289102 -0.0878154 -0.000252322)
(0.0310286 -0.0875425 -0.000270813)
(0.0329991 -0.0867628 -0.000288013)
(0.0347949 -0.0855047 -0.000303689)
(0.0363838 -0.0837986 -0.000317559)
(0.0377425 -0.0816809 -0.00032942)
(0.0388513 -0.0791912 -0.000339101)
(0.0396947 -0.0763745 -0.000346464)
(0.0402602 -0.0732774 -0.000351404)
(0.0405436 -0.0699505 -0.00035388)
(0.040544 -0.0664436 -0.000353887)
(0.0402684 -0.0628087 -0.000351484)
(0.0397268 -0.0590945 -0.000346761)
(0.0389362 -0.0553493 -0.000339863)
(0.0379157 -0.0516167 -0.000330958)
(0.0366896 -0.0479374 -0.000320258)
(0.035283 -0.0443462 -0.000307984)
(0.0337244 -0.0408739 -0.000294381)
(0.0320413 -0.0375447 -0.000279693)
(0.0302627 -0.0343783 -0.000264169)
(0.0284151 -0.0313881 -0.000248044)
(0.0265252 -0.0285836 -0.000231549)
(0.0246161 -0.0259686 -0.000214886)
(0.0227104 -0.023544 -0.000198252)
(0.0208263 -0.0213061 -0.000181807)
(0.0189807 -0.019249 -0.000165698)
(0.0171872 -0.0173641 -0.000150043)
(0.0154573 -0.0156414 -0.000134943)
(0.0138001 -0.0140695 -0.000120478)
(0.0122225 -0.0126357 -0.000106707)
(0.0107294 -0.0113271 -9.36734e-05)
(0.00932475 -0.0101305 -8.14118e-05)
(0.00801072 -0.00903245 -6.99409e-05)
(0.00678906 -0.00801966 -5.92764e-05)
(0.00566034 -0.00707876 -4.94232e-05)
(0.00462533 -0.00619695 -4.03879e-05)
(0.00368465 -0.00536205 -3.21759e-05)
(0.00283941 -0.00456284 -2.47968e-05)
(0.0020912 -0.00378983 -1.82646e-05)
(0.00144342 -0.00303597 -1.26089e-05)
(0.000900026 -0.00229671 -7.86429e-06)
(0.00047007 -0.00156948 -4.10947e-06)
(0.000161772 -0.000855266 -1.41744e-06)
(2.57566e-06 -0.000183577 -4.75457e-08)
(0.0292111 -0.0928233 -0.000254947)
(0.0315939 -0.092871 -0.000275747)
(0.033827 -0.0923477 -0.000295238)
(0.0358838 -0.0912806 -0.000313192)
(0.0377345 -0.0897058 -0.000329347)
(0.0393485 -0.0876605 -0.000343437)
(0.0407004 -0.0851859 -0.000355239)
(0.0417726 -0.0823299 -0.0003646)
(0.0425486 -0.0791426 -0.000371376)
(0.0430202 -0.075679 -0.000375495)
(0.0431835 -0.0719939 -0.000376924)
(0.0430435 -0.0681444 -0.000375704)
(0.0426086 -0.0641855 -0.000371913)
(0.0418954 -0.0601715 -0.00036569)
(0.0409229 -0.0561519 -0.000357207)
(0.0397166 -0.0521737 -0.000346679)
(0.0383029 -0.0482773 -0.000334343)
(0.0367123 -0.0444988 -0.000320461)
(0.0349749 -0.0408671 -0.000305299)
(0.0331225 -0.0374062 -0.000289131)
(0.0311846 -0.0341331 -0.000272219)
(0.0291909 -0.0310597 -0.000254817)
(0.0271675 -0.0281922 -0.000237158)
(0.0251396 -0.0255327 -0.000219457)
(0.0231283 -0.023079 -0.000201902)
(0.0211529 -0.0208253 -0.000184659)
(0.0192287 -0.0187633 -0.000167863)
(0.0173691 -0.0168823 -0.000151631)
(0.015584 -0.0151704 -0.00013605)
(0.0138822 -0.0136147 -0.000121195)
(0.0122688 -0.0122011 -0.000107112)
(0.0107482 -0.0109156 -9.38378e-05)
(0.00932281 -0.00974405 -8.1395e-05)
(0.00799415 -0.00867237 -6.97964e-05)
(0.00676276 -0.00768673 -5.9047e-05)
(0.00562866 -0.00677348 -4.91467e-05)
(0.00459161 -0.00591956 -4.00936e-05)
(0.00365175 -0.00511276 -3.18887e-05)
(0.00280941 -0.0043419 -2.45349e-05)
(0.00206574 -0.0035977 -1.80424e-05)
(0.00142347 -0.00287341 -1.24347e-05)
(0.000886061 -0.00216501 -7.74231e-06)
(0.000461855 -0.00147073 -4.03767e-06)
(0.000158457 -0.000792872 -1.38841e-06)
(2.30059e-06 -0.000162308 -4.46071e-08)
(0.0320428 -0.0985067 -0.000279664)
(0.0345675 -0.0983049 -0.0003017)
(0.0369178 -0.0974887 -0.000322216)
(0.039056 -0.0960905 -0.00034088)
(0.0409527 -0.0941546 -0.000357437)
(0.0425785 -0.0917241 -0.00037163)
(0.0439087 -0.0888494 -0.000383243)
(0.0449239 -0.0855845 -0.000392108)
(0.0456118 -0.081989 -0.000398114)
(0.0459645 -0.0781232 -0.000401196)
(0.0459841 -0.0740504 -0.00040137)
(0.0456773 -0.0698318 -0.000398697)
(0.0450595 -0.0655289 -0.000393307)
(0.0441498 -0.0611979 -0.000385371)
(0.0429743 -0.0568928 -0.000375114)
(0.041561 -0.0526606 -0.000362782)
(0.0399426 -0.0485434 -0.000348657)
(0.0381518 -0.0445758 -0.000333029)
(0.0362235 -0.0407867 -0.000316199)
(0.0341905 -0.0371969 -0.000298457)
(0.0320861 -0.033822 -0.000280089)
(0.0299397 -0.0306707 -0.000261356)
(0.0277796 -0.0277468 -0.000242502)
(0.0256299 -0.025049 -0.000223739)
(0.0235129 -0.0225728 -0.00020526)
(0.0214459 -0.0203093 -0.000187218)
(0.0194445 -0.018248 -0.000169748)
(0.0175202 -0.0163761 -0.000152951)
(0.0156825 -0.0146796 -0.00013691)
(0.0139382 -0.0131441 -0.000121684)
(0.0122919 -0.0117543 -0.000107313)
(0.0107461 -0.0104948 -9.38199e-05)
(0.00930271 -0.00935091 -8.12197e-05)
(0.00796173 -0.00830768 -6.95137e-05)
(0.00672308 -0.00735094 -5.87007e-05)
(0.00558562 -0.00646669 -4.87712e-05)
(0.00454861 -0.00564176 -3.97182e-05)
(0.00361128 -0.00486388 -3.15354e-05)
(0.00277353 -0.00412199 -2.42217e-05)
(0.00203579 -0.00340701 -1.77808e-05)
(0.00140034 -0.00271252 -1.22327e-05)
(0.000869993 -0.002035 -7.60195e-06)
(0.000452484 -0.0013735 -3.95578e-06)
(0.000154687 -0.000731616 -1.3554e-06)
(2.00001e-06 -0.000141539 -4.13699e-08)
(0.03519 -0.104654 -0.000307133)
(0.0378635 -0.104153 -0.00033047)
(0.0403278 -0.102991 -0.000351979)
(0.0425425 -0.101211 -0.000371312)
(0.0444746 -0.0988602 -0.000388178)
(0.0460979 -0.0959935 -0.000402349)
(0.0473856 -0.0926683 -0.000413592)
(0.048322 -0.0889494 -0.000421768)
(0.0488948 -0.0849027 -0.000426773)
(0.0491024 -0.0805986 -0.000428587)
(0.0489487 -0.0761053 -0.000427251)
(0.048448 -0.071492 -0.000422882)
(0.0476186 -0.0668231 -0.000415648)
(0.0464874 -0.0621602 -0.000405777)
(0.0450838 -0.0575579 -0.000393531)
(0.043443 -0.0530657 -0.00037921)
(0.0416002 -0.0487245 -0.000363129)
(0.0395942 -0.0445688 -0.00034562)
(0.0374611 -0.0406245 -0.000327005)
(0.0352383 -0.0369111 -0.000307604)
(0.032959 -0.0334402 -0.000287712)
(0.0306554 -0.0302182 -0.000267604)
(0.0283548 -0.0272448 -0.000247524)
(0.0260824 -0.0245162 -0.000227689)
(0.0238588 -0.0220243 -0.000208281)
(0.0217017 -0.0197578 -0.000189452)
(0.0196244 -0.0177032 -0.00017132)
(0.0176381 -0.0158458 -0.000153981)
(0.0157502 -0.0141696 -0.000137501)
(0.0139666 -0.0126586 -0.000121932)
(0.01229 -0.011296 -0.000107297)
(0.0107223 -0.0100656 -9.36121e-05)
(0.0092635 -0.00895179 -8.08778e-05)
(0.00791304 -0.00793912 -6.90888e-05)
(0.00666946 -0.0070129 -5.82329e-05)
(0.00553105 -0.00615899 -4.82949e-05)
(0.00449604 -0.00536405 -3.92594e-05)
(0.00356319 -0.00461589 -3.11156e-05)
(0.00273162 -0.00390353 -2.38558e-05)
(0.00200134 -0.00321814 -1.748e-05)
(0.00137396 -0.00255361 -1.20023e-05)
(0.000851827 -0.00190697 -7.44326e-06)
(0.000441926 -0.00127803 -3.86351e-06)
(0.000150467 -0.000671653 -1.31846e-06)
(1.66814e-06 -0.000121334 -3.77853e-08)
(0.0387088 -0.111295 -0.000337847)
(0.0415291 -0.11044 -0.000362463)
(0.0441016 -0.108876 -0.000384919)
(0.0463806 -0.106653 -0.000404813)
(0.0483339 -0.103829 -0.000421864)
(0.049933 -0.100468 -0.000435825)
(0.0511546 -0.0966383 -0.00044649)
(0.0519827 -0.0924138 -0.000453723)
(0.0524112 -0.0878719 -0.000457465)
(0.0524402 -0.0830889 -0.000457724)
(0.0520821 -0.0781428 -0.000454601)
(0.0513541 -0.0731068 -0.000448252)
(0.0502837 -0.068052 -0.000438912)
(0.0489014 -0.0630415 -0.000426852)
(0.047245 -0.0581332 -0.000412396)
(0.0453528 -0.0533755 -0.000395885)
(0.0432674 -0.0488099 -0.000377683)
(0.041029 -0.0444677 -0.000358149)
(0.0386794 -0.0403735 -0.000337641)
(0.0362562 -0.0365424 -0.000316493)
(0.033796 -0.0329836 -0.000295018)
(0.0313299 -0.0296986 -0.000273494)
(0.028887 -0.0266844 -0.000252171)
(0.0264907 -0.0239329 -0.000231255)
(0.0241618 -0.0214332 -0.000210927)
(0.0219158 -0.0191706 -0.000191322)
(0.0197656 -0.0171293 -0.000172553)
(0.0177198 -0.0152921 -0.000154696)
(0.0157852 -0.0136412 -0.000137808)
(0.0139654 -0.0121588 -0.000121923)
(0.0122622 -0.0108271 -0.000107055)
(0.0106755 -0.00962882 -9.32044e-05)
(0.00920465 -0.00854756 -8.03642e-05)
(0.00784741 -0.00756739 -6.85161e-05)
(0.00660169 -0.00667333 -5.76413e-05)
(0.0054646 -0.00585098 -4.77149e-05)
(0.00443384 -0.00508703 -3.87165e-05)
(0.00350731 -0.00436929 -3.06278e-05)
(0.00268369 -0.00368696 -2.34373e-05)
(0.00196231 -0.00303146 -1.71392e-05)
(0.00134435 -0.00239702 -1.17438e-05)
(0.000831527 -0.00178119 -7.26594e-06)
(0.000430193 -0.00118453 -3.76097e-06)
(0.000145782 -0.000613138 -1.27744e-06)
(1.30918e-06 -0.000101756 -3.3887e-08)
(0.0426253 -0.11848 -0.00037203)
(0.0455968 -0.117204 -0.000397969)
(0.0482719 -0.115167 -0.00042132)
(0.0506046 -0.112432 -0.000441682)
(0.052559 -0.109066 -0.000458745)
(0.0541106 -0.105145 -0.000472289)
(0.055235 -0.10075 -0.000482109)
(0.055923 -0.0959661 -0.000488116)
(0.0561699 -0.0908788 -0.000490278)
(0.055985 -0.0855764 -0.000488666)
(0.0553841 -0.0801421 -0.000483427)
(0.0543946 -0.0746574 -0.000474792)
(0.0530481 -0.0691957 -0.000463046)
(0.0513851 -0.0638248 -0.000448532)
(0.0494472 -0.0586019 -0.000431623)
(0.0472811 -0.0535766 -0.000412718)
(0.0449319 -0.0487871 -0.000392217)
(0.0424463 -0.0442635 -0.000370522)
(0.0398668 -0.0400255 -0.00034801)
(0.0372351 -0.0360856 -0.000325039)
(0.034587 -0.0324474 -0.000301926)
(0.0319558 -0.0291093 -0.000278959)
(0.0293686 -0.0260635 -0.000256378)
(0.0268493 -0.0232984 -0.000234387)
(0.0244163 -0.020799 -0.00021315)
(0.0220845 -0.0185482 -0.000192796)
(0.0198641 -0.0165269 -0.000173414)
(0.017763 -0.0147158 -0.000155073)
(0.0157851 -0.0130952 -0.000137808)
(0.0139333 -0.0116458 -0.000121643)
(0.012207 -0.0103486 -0.000106573)
(0.0106051 -0.00918538 -9.25901e-05)
(0.00912531 -0.00813906 -7.9672e-05)
(0.00776454 -0.00719335 -6.77928e-05)
(0.00651933 -0.00633293 -5.69225e-05)
(0.00538619 -0.00554335 -4.70304e-05)
(0.00436181 -0.00481125 -3.80877e-05)
(0.00344365 -0.00412458 -3.0072e-05)
(0.00262964 -0.00347272 -2.29654e-05)
(0.00191874 -0.00284736 -1.67587e-05)
(0.00131147 -0.00224308 -1.14567e-05)
(0.000809121 -0.00165793 -7.0702e-06)
(0.000417265 -0.00109322 -3.64799e-06)
(0.000140642 -0.000556225 -1.23243e-06)
(9.17482e-07 -8.28697e-05 -2.96272e-08)
(0.0470203 -0.126237 -0.000410392)
(0.0501333 -0.124466 -0.000437565)
(0.0528973 -0.12188 -0.000461691)
(0.0552606 -0.118554 -0.000482323)
(0.0571905 -0.114571 -0.000499169)
(0.0586602 -0.110018 -0.000512003)
(0.059652 -0.104992 -0.000520662)
(0.0601578 -0.0995871 -0.000525084)
(0.0601827 -0.0939039 -0.000525304)
(0.0597396 -0.0880371 -0.000521443)
(0.0588557 -0.0820808 -0.000513729)
(0.0575631 -0.0761196 -0.000502455)
(0.0559051 -0.0702334 -0.000487984)
(0.0539267 -0.0644896 -0.000470723)
(0.0516796 -0.0589474 -0.000451111)
(0.0492138 -0.0536534 -0.000429593)
(0.0465821 -0.0486445 -0.000406621)
(0.0438324 -0.0439457 -0.000382625)
(0.0410124 -0.0395735 -0.00035801)
(0.0381632 -0.0355344 -0.000333143)
(0.0353232 -0.0318283 -0.000308354)
(0.0325238 -0.0284477 -0.000283921)
(0.0297929 -0.025381 -0.000260082)
(0.0271515 -0.0226119 -0.000237027)
(0.0246176 -0.0201222 -0.000214908)
(0.0222031 -0.017891 -0.000193832)
(0.0199171 -0.0158968 -0.000173878)
(0.0177646 -0.0141179 -0.000155088)
(0.0157483 -0.0125328 -0.000137487)
(0.0138684 -0.0111208 -0.000121077)
(0.0121234 -0.00986159 -0.000105844)
(0.0105101 -0.00873631 -9.17608e-05)
(0.00902511 -0.0077273 -7.87974e-05)
(0.0076639 -0.00681785 -6.69144e-05)
(0.00642226 -0.00599252 -5.60752e-05)
(0.00529556 -0.00523676 -4.62393e-05)
(0.00427997 -0.00453733 -3.73732e-05)
(0.00337213 -0.00388228 -2.94475e-05)
(0.00256956 -0.00326126 -2.24408e-05)
(0.0018706 -0.00266622 -1.63384e-05)
(0.00127539 -0.00209213 -1.11415e-05)
(0.000784593 -0.00153748 -6.85593e-06)
(0.000403167 -0.00100433 -3.52478e-06)
(0.000135035 -0.000501069 -1.18334e-06)
(4.97289e-07 -6.47403e-05 -2.50407e-08)
(0.0519158 -0.134633 -0.000453121)
(0.0551718 -0.132272 -0.000481543)
(0.0580114 -0.129041 -0.000506332)
(0.0603853 -0.125033 -0.000527053)
(0.0622583 -0.120343 -0.000543407)
(0.0636101 -0.115078 -0.000555208)
(0.064424 -0.109345 -0.00056232)
(0.0647026 -0.103256 -0.000564753)
(0.064455 -0.0969201 -0.000562601)
(0.0637069 -0.0904453 -0.000556072)
(0.0624911 -0.0839305 -0.000545468)
(0.0608531 -0.0774686 -0.000531172)
(0.0588418 -0.0711399 -0.000513624)
(0.0565142 -0.0650152 -0.000493309)
(0.0539261 -0.0591503 -0.000470726)
(0.0511369 -0.0535912 -0.000446381)
(0.0482014 -0.0483689 -0.000420762)
(0.0451739 -0.0435051 -0.000394336)
(0.0421017 -0.0390095 -0.000367523)
(0.0390293 -0.0348842 -0.000340704)
(0.0359931 -0.0311223 -0.000314204)
(0.0330255 -0.027712 -0.000288301)
(0.0301514 -0.0246358 -0.000263214)
(0.0273914 -0.0218737 -0.000239121)
(0.02476 -0.0194031 -0.000216153)
(0.0222678 -0.0172001 -0.000194398)
(0.0199208 -0.0152403 -0.000173911)
(0.0177223 -0.0134999 -0.00015472)
(0.0156723 -0.0119555 -0.000136825)
(0.0137696 -0.0105851 -0.000120215)
(0.0120102 -0.00936734 -0.000104856)
(0.0103899 -0.00828283 -9.07115e-05)
(0.00890336 -0.00731329 -7.77349e-05)
(0.00754532 -0.00644184 -6.58794e-05)
(0.0063102 -0.00565288 -5.5097e-05)
(0.00519275 -0.00493194 -4.53417e-05)
(0.00418822 -0.00426586 -3.65722e-05)
(0.00329282 -0.00364294 -2.87551e-05)
(0.00250341 -0.00305304 -2.18632e-05)
(0.00181797 -0.00248845 -1.58788e-05)
(0.00123609 -0.00194448 -1.07983e-05)
(0.000757997 -0.00142012 -6.6236e-06)
(0.000387894 -0.000918071 -3.3913e-06)
(0.000128977 -0.000447824 -1.13029e-06)
(4.32738e-08 -4.74315e-05 -2.00834e-08)
(0.0574334 -0.143681 -0.000501281)
(0.0608077 -0.140631 -0.000530737)
(0.0636942 -0.136655 -0.000555932)
(0.0660383 -0.131863 -0.000576399)
(0.0678112 -0.126372 -0.000591874)
(0.0689926 -0.120304 -0.000602195)
(0.0695765 -0.113785 -0.000607292)
(0.0695692 -0.106942 -0.000607238)
(0.0689941 -0.0998973 -0.000602219)
(0.0678832 -0.0927673 -0.000592533)
(0.0662847 -0.0856612 -0.000578581)
(0.0642509 -0.0786737 -0.000560838)
(0.0618448 -0.0718898 -0.000539837)
(0.0591288 -0.0653772 -0.000516138)
(0.0561701 -0.0591918 -0.000490314)
(0.053031 -0.0533729 -0.00046292)
(0.0497739 -0.0479482 -0.000434489)
(0.0464534 -0.0429314 -0.00040551)
(0.0431211 -0.0383273 -0.000376422)
(0.0398193 -0.0341299 -0.000347605)
(0.0365861 -0.0303273 -0.000319382)
(0.0334504 -0.0269006 -0.000292013)
(0.0304367 -0.0238281 -0.000265705)
(0.0275617 -0.0210842 -0.00024061)
(0.0248385 -0.018643 -0.000216839)
(0.022274 -0.0164769 -0.000194454)
(0.0198723 -0.0145591 -0.000173488)
(0.0176335 -0.0128633 -0.000153945)
(0.0155558 -0.0113647 -0.000135807)
(0.0136353 -0.0100401 -0.000119043)
(0.0118667 -0.00886729 -0.000103604)
(0.0102436 -0.00782614 -8.94353e-05)
(0.00875987 -0.00689819 -7.64823e-05)
(0.00740846 -0.00606629 -6.46848e-05)
(0.00618317 -0.00531491 -5.3988e-05)
(0.00507765 -0.00462962 -4.43369e-05)
(0.00408669 -0.00399751 -3.56858e-05)
(0.00320573 -0.00340708 -2.79948e-05)
(0.00243133 -0.00284852 -2.12338e-05)
(0.0017609 -0.00231442 -1.53805e-05)
(0.00119368 -0.00180048 -1.04279e-05)
(0.000729347 -0.00130611 -6.37332e-06)
(0.000371486 -0.000834665 -3.2479e-06)
(0.000122462 -0.000396641 -1.07324e-06)
(-4.40085e-07 -3.10077e-05 -1.47929e-08)
(0.0635784 -0.153475 -0.000554919)
(0.0670655 -0.149602 -0.000585356)
(0.0699742 -0.14475 -0.000610751)
(0.0722545 -0.139053 -0.000630654)
(0.0738775 -0.132646 -0.00064483)
(0.0748343 -0.125675 -0.000653181)
(0.0751235 -0.118282 -0.000655717)
(0.0747678 -0.110611 -0.000652612)
(0.073798 -0.102796 -0.000644159)
(0.0722639 -0.0949667 -0.000630768)
(0.0702221 -0.0872352 -0.000612957)
(0.0677417 -0.0797029 -0.000591307)
(0.0648927 -0.0724524 -0.000566449)
(0.0617512 -0.0655518 -0.000539028)
(0.0583885 -0.0590501 -0.000509685)
(0.0548765 -0.0529829 -0.000479029)
(0.0512783 -0.047369 -0.000447627)
(0.047654 -0.0422162 -0.00041599)
(0.0440531 -0.0375199 -0.000384563)
(0.0405202 -0.0332681 -0.000353723)
(0.0370893 -0.0294406 -0.000323778)
(0.0337892 -0.0260132 -0.000294971)
(0.0306398 -0.0229578 -0.000267481)
(0.0276563 -0.0202446 -0.000241437)
(0.0248475 -0.0178433 -0.000216919)
(0.022218 -0.0157232 -0.000193965)
(0.0197681 -0.0138548 -0.00017258)
(0.017496 -0.01221 -0.000152745)
(0.0153966 -0.0107624 -0.000134419)
(0.0134645 -0.00948762 -0.000117552)
(0.0116919 -0.00836289 -0.000102078)
(0.0100711 -0.00736766 -8.79294e-05)
(0.0085942 -0.00648314 -7.50363e-05)
(0.00725335 -0.00569225 -6.33307e-05)
(0.00604105 -0.00497946 -5.27474e-05)
(0.00495042 -0.00433058 -4.32262e-05)
(0.00397539 -0.0037329 -3.47141e-05)
(0.00311106 -0.00317526 -2.71682e-05)
(0.00235338 -0.00264815 -2.05533e-05)
(0.00169952 -0.00214453 -1.48445e-05)
(0.0011482 -0.00166044 -1.00307e-05)
(0.000698726 -0.00119572 -6.10581e-06)
(0.000353954 -0.000754319 -3.09469e-06)
(0.000115512 -0.000347666 -1.01238e-06)
(-9.57679e-07 -1.55314e-05 -9.13008e-09)
(0.0705378 -0.163998 -0.000615661)
(0.0740877 -0.159167 -0.000646653)
(0.0769644 -0.153308 -0.00067176)
(0.0791129 -0.146575 -0.000690524)
(0.0805158 -0.139135 -0.000702768)
(0.0811692 -0.131152 -0.000708484)
(0.0810881 -0.122793 -0.000707775)
(0.0803033 -0.114216 -0.000700939)
(0.0788656 -0.105573 -0.000688389)
(0.0768348 -0.0969978 -0.000670677)
(0.0742873 -0.0886131 -0.00064844)
(0.071301 -0.0805182 -0.000622386)
(0.0679626 -0.0727973 -0.000593245)
(0.0643537 -0.0655112 -0.000561754)
(0.0605574 -0.0587049 -0.000528618)
(0.0566474 -0.0524039 -0.000494495)
(0.0526936 -0.04662 -0.000459981)
(0.0487542 -0.0413501 -0.0004256)
(0.0448814 -0.0365825 -0.000391793)
(0.0411156 -0.0322952 -0.000358926)
(0.0374909 -0.0284616 -0.000327284)
(0.0340306 -0.0250498 -0.000297081)
(0.030753 -0.0220265 -0.000268469)
(0.027668 -0.0193566 -0.000241542)
(0.0247822 -0.0170062 -0.000216349)
(0.0220954 -0.0149412 -0.000192896)
(0.0196057 -0.0131299 -0.000171162)
(0.0173074 -0.0115422 -0.0001511)
(0.0151937 -0.0101505 -0.000132648)
(0.0132561 -0.00892943 -0.000115733)
(0.0114853 -0.00785586 -0.000100275)
(0.0098718 -0.00690879 -8.61895e-05)
(0.00840638 -0.00606946 -7.33966e-05)
(0.00707985 -0.00532079 -6.18161e-05)
(0.00588405 -0.00464749 -5.13768e-05)
(0.00481112 -0.00403558 -4.201e-05)
(0.00385458 -0.00347271 -3.36594e-05)
(0.00300891 -0.00294802 -2.62763e-05)
(0.00226979 -0.00245241 -1.98233e-05)
(0.00163394 -0.00197916 -1.42718e-05)
(0.0010998 -0.00152467 -9.6079e-06)
(0.00066618 -0.0010892 -5.82149e-06)
(0.000335359 -0.000677238 -2.93217e-06)
(0.00010813 -0.000301043 -9.47739e-07)
(-1.50473e-06 -1.0641e-06 -3.13612e-09)
(0.0782761 -0.17538 -0.000683208)
(0.0818734 -0.169405 -0.000714605)
(0.0846748 -0.162359 -0.000739068)
(0.0866359 -0.154433 -0.000756183)
(0.0877439 -0.145814 -0.000765868)
(0.0880144 -0.136698 -0.000768228)
(0.0874731 -0.127269 -0.000763518)
(0.0861744 -0.117707 -0.000752181)
(0.0841817 -0.108172 -0.000734804)
(0.0815784 -0.0988119 -0.000712079)
(0.0784526 -0.0897472 -0.000684809)
(0.0749022 -0.0810809 -0.000653817)
(0.0710217 -0.0728892 -0.000619957)
(0.0669074 -0.0652291 -0.000584044)
(0.0626454 -0.0581337 -0.000546852)
(0.0583179 -0.0516207 -0.000509076)
(0.0539933 -0.0456889 -0.000471333)
(0.0497333 -0.0403267 -0.000434146)
(0.0455857 -0.0355103 -0.000397947)
(0.0415908 -0.03121 -0.000363074)
(0.0377767 -0.0273899 -0.000329783)
(0.0341648 -0.0240119 -0.000298252)
(0.030767 -0.0210359 -0.000268595)
(0.0275909 -0.0184229 -0.000240868)
(0.024637 -0.0161344 -0.000215084)
(0.0219029 -0.0141338 -0.000191216)
(0.019382 -0.012387 -0.00016921)
(0.0170662 -0.0108624 -0.000148995)
(0.0149454 -0.0095312 -0.000130481)
(0.0130094 -0.00836763 -0.00011358)
(0.0112465 -0.0073479 -9.81901e-05)
(0.00964567 -0.00645111 -8.42155e-05)
(0.00819624 -0.00565843 -7.15623e-05)
(0.00688822 -0.00495306 -6.01432e-05)
(0.00571225 -0.00431991 -4.9877e-05)
(0.00466006 -0.00374543 -4.06912e-05)
(0.00372443 -0.00321758 -3.2523e-05)
(0.00289957 -0.00272592 -2.53216e-05)
(0.00218071 -0.00226172 -1.90455e-05)
(0.00156437 -0.00181866 -1.36642e-05)
(0.00104857 -0.00139348 -9.16047e-06)
(0.000631828 -0.000986814 -5.52138e-06)
(0.000315732 -0.000603615 -2.76064e-06)
(0.000100343 -0.000256909 -8.79554e-07)
(-2.08554e-06 1.23353e-05 3.22123e-09)
(0.0870912 -0.187543 -0.000760143)
(0.0906396 -0.180246 -0.000791129)
(0.0932664 -0.171846 -0.000814052)
(0.0949286 -0.162561 -0.000828577)
(0.0956328 -0.152621 -0.000834719)
(0.0954047 -0.142243 -0.000832747)
(0.0942953 -0.131643 -0.000823061)
(0.092374 -0.121014 -0.000806309)
(0.0897313 -0.110533 -0.000783239)
(0.0864648 -0.100349 -0.000754745)
(0.0826869 -0.0905882 -0.000721766)
(0.078506 -0.0813456 -0.000685287)
(0.0740346 -0.0726938 -0.000646255)
(0.0693736 -0.0646759 -0.000605582)
(0.0646199 -0.0573163 -0.000564086)
(0.0598547 -0.050617 -0.0005225)
(0.0551511 -0.0445666 -0.000481439)
(0.0505659 -0.0391391 -0.000441421)
(0.0461471 -0.0343011 -0.000402847)
(0.0419279 -0.0300116 -0.000366021)
(0.0379342 -0.0262271 -0.000331158)
(0.0341801 -0.0229014 -0.00029839)
(0.0306744 -0.0199895 -0.000267786)
(0.0274178 -0.0174466 -0.000239359)
(0.0244079 -0.0152314 -0.000213084)
(0.0216367 -0.0133042 -0.000188894)
(0.0190949 -0.0116292 -0.000166705)
(0.0167705 -0.0101733 -0.000146414)
(0.0146512 -0.00890718 -0.000127912)
(0.0127238 -0.00780431 -0.000111087)
(0.0109752 -0.00684098 -9.58224e-05)
(0.00939257 -0.00599619 -8.20062e-05)
(0.00796413 -0.00525146 -6.9536e-05)
(0.00667857 -0.00459018 -5.83131e-05)
(0.00552608 -0.00399773 -4.82516e-05)
(0.00449748 -0.00346092 -3.92719e-05)
(0.00358533 -0.00296818 -3.13085e-05)
(0.00278329 -0.00250949 -2.43063e-05)
(0.00208645 -0.00207656 -1.82224e-05)
(0.00149098 -0.00166342 -1.30233e-05)
(0.000994712 -0.00126717 -8.69009e-06)
(0.000595756 -0.000888782 -5.20626e-06)
(0.000295154 -0.000533634 -2.58079e-06)
(9.21652e-05 -0.00021539 -8.07945e-07)
(-2.6949e-06 2.461e-05 9.89597e-09)
(0.0968502 -0.200676 -0.000845334)
(0.100321 -0.191795 -0.000875624)
(0.102706 -0.181797 -0.000896459)
(0.103983 -0.170949 -0.000907602)
(0.104174 -0.159506 -0.000909288)
(0.103334 -0.147726 -0.000901952)
(0.101535 -0.135841 -0.000886268)
(0.0988793 -0.124065 -0.000863084)
(0.0954771 -0.112582 -0.000833409)
(0.0914563 -0.101546 -0.000798308)
(0.0869432 -0.0910778 -0.000758933)
(0.0820692 -0.0812676 -0.000716386)
(0.0769537 -0.0721723 -0.000671748)
(0.0717116 -0.0638248 -0.000625987)
(0.0664395 -0.056231 -0.00057998)
(0.0612248 -0.0493803 -0.000534458)
(0.0561352 -0.0432438 -0.000490038)
(0.051228 -0.037784 -0.0004472)
(0.046543 -0.0329534 -0.000406309)
(0.0421109 -0.0287018 -0.000367618)
(0.0379488 -0.0249757 -0.000331289)
(0.034067 -0.0217226 -0.000297402)
(0.0304663 -0.0188908 -0.000265972)
(0.0271435 -0.016432 -0.000236965)
(0.0240899 -0.014301 -0.00021031)
(0.0212942 -0.0124563 -0.000185904)
(0.0187422 -0.0108598 -0.000163627)
(0.0164194 -0.00947818 -0.000143349)
(0.01431 -0.00828099 -0.000124934)
(0.0123992 -0.00724188 -0.000108254)
(0.0106715 -0.00633702 -9.3171e-05)
(0.00911291 -0.00554579 -7.95648e-05)
(0.0077102 -0.00484993 -6.73193e-05)
(0.00645145 -0.00423338 -5.63302e-05)
(0.00532583 -0.00368191 -4.65034e-05)
(0.0043239 -0.00318287 -3.77563e-05)
(0.00343759 -0.00272517 -3.00186e-05)
(0.00266048 -0.00229928 -2.3234e-05)
(0.00198728 -0.00189733 -1.73564e-05)
(0.00141408 -0.00151377 -1.23517e-05)
(0.000938393 -0.00114601 -8.1982e-06)
(0.000558122 -0.00079533 -4.87748e-06)
(0.000273684 -0.000467465 -2.39315e-06)
(8.3634e-05 -0.000176609 -7.33237e-07)
(-3.33628e-06 3.57073e-05 1.69114e-08)
(0.108042 -0.214577 -0.000943006)
(0.111259 -0.203887 -0.000971107)
(0.113229 -0.19208 -0.000988296)
(0.113943 -0.179468 -0.000994548)
(0.113453 -0.166358 -0.000990262)
(0.111833 -0.153034 -0.000976154)
(0.109194 -0.13976 -0.000953112)
(0.105662 -0.126763 -0.000922303)
(0.101381 -0.114236 -0.000884937)
(0.0964989 -0.102328 -0.000842342)
(0.0911692 -0.0911575 -0.000795816)
(0.0855331 -0.0807961 -0.000746637)
(0.0797279 -0.0712891 -0.000695961)
(0.0738694 -0.062647 -0.000644835)
(0.0680621 -0.0548606 -0.000594141)
(0.0623876 -0.0478978 -0.000544618)
(0.0569146 -0.0417156 -0.00049684)
(0.0516908 -0.0362588 -0.000451247)
(0.0467529 -0.031469 -0.00040814)
(0.0421212 -0.0272832 -0.000367713)
(0.037808 -0.0236403 -0.00033006)
(0.0338142 -0.0204798 -0.000295199)
(0.0301358 -0.0177454 -0.000263088)
(0.026762 -0.0153841 -0.000233637)
(0.02368 -0.0133483 -0.000206732)
(0.0208726 -0.0115941 -0.000182225)
(0.0183227 -0.0100829 -0.000159965)
(0.0160117 -0.00878017 -0.000139791)
(0.0139218 -0.00765562 -0.000121546)
(0.0120354 -0.00668275 -0.000105078)
(0.0103357 -0.00583819 -9.02397e-05)
(0.00880694 -0.0051016 -7.68938e-05)
(0.00743514 -0.00445534 -6.4918e-05)
(0.00620728 -0.00388383 -5.41986e-05)
(0.00511218 -0.00337345 -4.46381e-05)
(0.00413974 -0.00291208 -3.61485e-05)
(0.00328179 -0.00248922 -2.86583e-05)
(0.00253151 -0.00209581 -2.21079e-05)
(0.0018836 -0.00172447 -1.64511e-05)
(0.00133391 -0.00137004 -1.16516e-05)
(0.000879869 -0.00103025 -7.68704e-06)
(0.000519058 -0.000706658 -4.53621e-06)
(0.000251427 -0.000405262 -2.19862e-06)
(7.47725e-05 -0.000140673 -6.55642e-07)
(-4.00395e-06 4.55781e-05 2.42149e-08)
(0.120329 -0.229558 -0.00105027)
(0.123248 -0.216682 -0.00107574)
(0.124707 -0.202735 -0.0010885)
(0.12473 -0.188094 -0.00108869)
(0.123403 -0.173098 -0.00107714)
(0.12085 -0.158073 -0.00105484)
(0.117211 -0.143295 -0.00102311)
(0.112661 -0.129008 -0.00098339)
(0.107372 -0.115401 -0.000937248)
(0.101525 -0.10262 -0.000886208)
(0.0952909 -0.0907608 -0.000831812)
(0.0888329 -0.0798836 -0.000775435)
(0.0822915 -0.0700056 -0.000718353)
(0.075793 -0.061119 -0.000661624)
(0.069436 -0.0531878 -0.000606147)
(0.0633035 -0.0461624 -0.00055261)
(0.0574527 -0.039978 -0.000501546)
(0.0519279 -0.0345656 -0.000453315)
(0.046753 -0.0298509 -0.000408148)
(0.0419428 -0.0257618 -0.000366155)
(0.0374978 -0.0222268 -0.000327356)
(0.0334131 -0.01918 -0.000291698)
(0.0296755 -0.0165592 -0.000259072)
(0.0262693 -0.0143088 -0.000229335)
(0.0231744 -0.0123782 -0.00020232)
(0.0203704 -0.0107227 -0.000177841)
(0.0178352 -0.00930244 -0.000155709)
(0.0155476 -0.00808301 -0.000135739)
(0.0134866 -0.00703405 -0.000117747)
(0.0116332 -0.00612957 -0.000101566)
(0.00996829 -0.00534657 -8.70324e-05)
(0.00847552 -0.00466547 -7.40004e-05)
(0.00713951 -0.00406915 -6.23371e-05)
(0.00594688 -0.00354277 -5.19251e-05)
(0.00488569 -0.00307332 -4.26608e-05)
(0.00394573 -0.00264936 -3.44546e-05)
(0.00311841 -0.00226094 -2.72318e-05)
(0.00239694 -0.00189958 -2.09329e-05)
(0.0017758 -0.00155837 -1.55097e-05)
(0.00125087 -0.00123255 -1.09264e-05)
(0.00081937 -0.000920152 -7.15862e-06)
(0.000478765 -0.000622951 -4.1842e-06)
(0.000228468 -0.000347164 -1.99797e-06)
(6.56302e-05 -0.000107679 -5.75583e-07)
(-4.70029e-06 5.41786e-05 3.18185e-08)
(0.134544 -0.245164 -0.00117432)
(0.136852 -0.229824 -0.0011945)
(0.137503 -0.21349 -0.00120016)
(0.136549 -0.196593 -0.00119187)
(0.13413 -0.179534 -0.00117075)
(0.130402 -0.162667 -0.00113825)
(0.125563 -0.146299 -0.00109599)
(0.119815 -0.13067 -0.00104586)
(0.113377 -0.115973 -0.000989651)
(0.106448 -0.10233 -0.000929198)
(0.0992279 -0.0898234 -0.000866169)
(0.0918856 -0.0784781 -0.0008021)
(0.0845753 -0.0682896 -0.000738283)
(0.0774164 -0.059217 -0.000675809)
(0.0705098 -0.0512021 -0.000615517)
(0.0639252 -0.0441683 -0.000558049)
(0.0577153 -0.038033 -0.000503836)