/*--------------------------------*- C++ -*----------------------------------*\
| =========                 |                                                 |
| \\      /  F ield         | OpenFOAM: The Open Source CFD Toolbox           |
|  \\    /   O peration     | Version:  v2012                                 |
|   \\  /    A nd           | Website:  www.openfoam.com                      |
|    \\/     M anipulation  |                                                 |
\*---------------------------------------------------------------------------*/
FoamFile
{
    version     2.0;
    format      ascii;
    class       volScalarField;
    location    "0.55";
    object      p_rgh;
}
// * * * * * * * * * * * * * * * * * * * * * * * * * * * * * * * * * * * * * //

dimensions      [1 -1 -2 0 0 0 0];


internalField   nonuniform List<scalar> 
3326
(
3.48772e+06
3.48773e+06
3.48772e+06
3.48768e+06
3.4876e+06
3.48751e+06
3.48737e+06
3.48721e+06
3.48696e+06
3.48751e+06
3.48758e+06
3.48764e+06
3.48767e+06
3.48768e+06
3.48767e+06
3.48763e+06
3.48756e+06
3.48746e+06
3.48732e+06
3.48716e+06
3.48692e+06
3.51989e+06
3.51289e+06
3.50751e+06
3.50299e+06
3.49938e+06
3.49643e+06
3.49405e+06
3.49213e+06
3.49059e+06
3.48937e+06
3.4884e+06
3.48765e+06
3.48707e+06
3.48663e+06
3.48631e+06
3.48609e+06
3.48595e+06
3.48587e+06
3.48584e+06
3.48586e+06
3.48592e+06
3.486e+06
3.4861e+06
3.48622e+06
3.48634e+06
3.48648e+06
3.48662e+06
3.48676e+06
3.4869e+06
3.48703e+06
3.48715e+06
3.48727e+06
3.48737e+06
3.48746e+06
3.48753e+06
3.48759e+06
3.48762e+06
3.48763e+06
3.48762e+06
3.48758e+06
3.48752e+06
3.48742e+06
3.48728e+06
3.48713e+06
3.48688e+06
3.52521e+06
3.51704e+06
3.51054e+06
3.50528e+06
3.50108e+06
3.4977e+06
3.495e+06
3.49284e+06
3.49112e+06
3.48975e+06
3.48868e+06
3.48785e+06
3.4872e+06
3.48672e+06
3.48637e+06
3.48612e+06
3.48595e+06
3.48586e+06
3.48582e+06
3.48583e+06
3.48588e+06
3.48595e+06
3.48605e+06
3.48617e+06
3.48629e+06
3.48643e+06
3.48657e+06
3.48671e+06
3.48684e+06
3.48698e+06
3.4871e+06
3.48722e+06
3.48732e+06
3.48741e+06
3.48749e+06
3.48754e+06
3.48758e+06
3.48759e+06
3.48758e+06
3.48754e+06
3.48748e+06
3.48738e+06
3.48725e+06
3.48709e+06
3.48685e+06
3.53028e+06
3.521e+06
3.51335e+06
3.50739e+06
3.50262e+06
3.49884e+06
3.49583e+06
3.49345e+06
3.49156e+06
3.49007e+06
3.4889e+06
3.488e+06
3.4873e+06
3.48678e+06
3.4864e+06
3.48613e+06
3.48595e+06
3.48584e+06
3.48579e+06
3.4858e+06
3.48584e+06
3.48591e+06
3.486e+06
3.48612e+06
3.48624e+06
3.48638e+06
3.48652e+06
3.48666e+06
3.48679e+06
3.48693e+06
3.48705e+06
3.48717e+06
3.48728e+06
3.48737e+06
3.48744e+06
3.4875e+06
3.48753e+06
3.48755e+06
3.48754e+06
3.4875e+06
3.48744e+06
3.48735e+06
3.48721e+06
3.48706e+06
3.48682e+06
3.53485e+06
3.52449e+06
3.51582e+06
3.50921e+06
3.50393e+06
3.49979e+06
3.49651e+06
3.49393e+06
3.4919e+06
3.4903e+06
3.48906e+06
3.4881e+06
3.48736e+06
3.48681e+06
3.4864e+06
3.48611e+06
3.48592e+06
3.48581e+06
3.48575e+06
3.48575e+06
3.48579e+06
3.48586e+06
3.48595e+06
3.48607e+06
3.48619e+06
3.48633e+06
3.48646e+06
3.48661e+06
3.48674e+06
3.48688e+06
3.48701e+06
3.48712e+06
3.48723e+06
3.48732e+06
3.4874e+06
3.48746e+06
3.48749e+06
3.48751e+06
3.4875e+06
3.48747e+06
3.4874e+06
3.48732e+06
3.48718e+06
3.48703e+06
3.4868e+06
3.5389e+06
3.52731e+06
3.51783e+06
3.51063e+06
3.50493e+06
3.50049e+06
3.49699e+06
3.49426e+06
3.49212e+06
3.49044e+06
3.48914e+06
3.48814e+06
3.48738e+06
3.4868e+06
3.48638e+06
3.48608e+06
3.48588e+06
3.48576e+06
3.4857e+06
3.4857e+06
3.48573e+06
3.4858e+06
3.4859e+06
3.48601e+06
3.48614e+06
3.48627e+06
3.48641e+06
3.48656e+06
3.4867e+06
3.48683e+06
3.48696e+06
3.48708e+06
3.48719e+06
3.48728e+06
3.48736e+06
3.48742e+06
3.48746e+06
3.48747e+06
3.48747e+06
3.48743e+06
3.48737e+06
3.48729e+06
3.48716e+06
3.48701e+06
3.48678e+06
3.54232e+06
3.52931e+06
3.51929e+06
3.51157e+06
3.50556e+06
3.5009e+06
3.49725e+06
3.49441e+06
3.4922e+06
3.49048e+06
3.48914e+06
3.48812e+06
3.48734e+06
3.48675e+06
3.48632e+06
3.48602e+06
3.48582e+06
3.4857e+06
3.48564e+06
3.48564e+06
3.48567e+06
3.48574e+06
3.48584e+06
3.48596e+06
3.48608e+06
3.48622e+06
3.48636e+06
3.48651e+06
3.48665e+06
3.48679e+06
3.48692e+06
3.48704e+06
3.48715e+06
3.48724e+06
3.48732e+06
3.48738e+06
3.48742e+06
3.48744e+06
3.48743e+06
3.4874e+06
3.48734e+06
3.48726e+06
3.48713e+06
3.48699e+06
3.48676e+06
3.54453e+06
3.53033e+06
3.52002e+06
3.51194e+06
3.50576e+06
3.50097e+06
3.49725e+06
3.49437e+06
3.49213e+06
3.49039e+06
3.48905e+06
3.48803e+06
3.48724e+06
3.48666e+06
3.48624e+06
3.48594e+06
3.48574e+06
3.48562e+06
3.48557e+06
3.48557e+06
3.48561e+06
3.48568e+06
3.48578e+06
3.4859e+06
3.48603e+06
3.48617e+06
3.48631e+06
3.48646e+06
3.4866e+06
3.48674e+06
3.48688e+06
3.487e+06
3.48711e+06
3.48721e+06
3.48729e+06
3.48735e+06
3.48739e+06
3.48741e+06
3.48741e+06
3.48738e+06
3.48732e+06
3.48724e+06
3.48711e+06
3.48697e+06
3.48675e+06
3.545e+06
3.53028e+06
3.51986e+06
3.51166e+06
3.50547e+06
3.50067e+06
3.49698e+06
3.49412e+06
3.4919e+06
3.49019e+06
3.48887e+06
3.48786e+06
3.4871e+06
3.48653e+06
3.48612e+06
3.48583e+06
3.48564e+06
3.48553e+06
3.48548e+06
3.48549e+06
3.48553e+06
3.48561e+06
3.48572e+06
3.48584e+06
3.48597e+06
3.48611e+06
3.48626e+06
3.48641e+06
3.48656e+06
3.4867e+06
3.48684e+06
3.48696e+06
3.48707e+06
3.48717e+06
3.48725e+06
3.48732e+06
3.48736e+06
3.48738e+06
3.48738e+06
3.48735e+06
3.4873e+06
3.48721e+06
3.48709e+06
3.48695e+06
3.48674e+06
3.54344e+06
3.52906e+06
3.51869e+06
3.51068e+06
3.50464e+06
3.49998e+06
3.49641e+06
3.49364e+06
3.49151e+06
3.48986e+06
3.48859e+06
3.48762e+06
3.48689e+06
3.48635e+06
3.48596e+06
3.48569e+06
3.48552e+06
3.48542e+06
3.48539e+06
3.4854e+06
3.48545e+06
3.48554e+06
3.48565e+06
3.48577e+06
3.48591e+06
3.48606e+06
3.48621e+06
3.48636e+06
3.48652e+06
3.48666e+06
3.4868e+06
3.48693e+06
3.48704e+06
3.48714e+06
3.48722e+06
3.48729e+06
3.48733e+06
3.48736e+06
3.48736e+06
3.48733e+06
3.48728e+06
3.4872e+06
3.48708e+06
3.48694e+06
3.48673e+06
3.53967e+06
3.5264e+06
3.51645e+06
3.50895e+06
3.50327e+06
3.4989e+06
3.49555e+06
3.49295e+06
3.49095e+06
3.48941e+06
3.48822e+06
3.48732e+06
3.48664e+06
3.48614e+06
3.48578e+06
3.48553e+06
3.48538e+06
3.4853e+06
3.48528e+06
3.4853e+06
3.48537e+06
3.48546e+06
3.48558e+06
3.48571e+06
3.48585e+06
3.48601e+06
3.48616e+06
3.48632e+06
3.48647e+06
3.48662e+06
3.48676e+06
3.48689e+06
3.48701e+06
3.48711e+06
3.4872e+06
3.48726e+06
3.48731e+06
3.48733e+06
3.48733e+06
3.48731e+06
3.48726e+06
3.48718e+06
3.48707e+06
3.48693e+06
3.48673e+06
3.53382e+06
3.52219e+06
3.51318e+06
3.50649e+06
3.50137e+06
3.49744e+06
3.49441e+06
3.49206e+06
3.49024e+06
3.48884e+06
3.48776e+06
3.48694e+06
3.48633e+06
3.48588e+06
3.48556e+06
3.48535e+06
3.48522e+06
3.48516e+06
3.48516e+06
3.4852e+06
3.48528e+06
3.48538e+06
3.4855e+06
3.48564e+06
3.48579e+06
3.48595e+06
3.48611e+06
3.48627e+06
3.48643e+06
3.48658e+06
3.48673e+06
3.48686e+06
3.48698e+06
3.48708e+06
3.48717e+06
3.48724e+06
3.48729e+06
3.48731e+06
3.48732e+06
3.48729e+06
3.48724e+06
3.48717e+06
3.48706e+06
3.48693e+06
3.48673e+06
3.52613e+06
3.51653e+06
3.50899e+06
3.50338e+06
3.49901e+06
3.49564e+06
3.49302e+06
3.49098e+06
3.48939e+06
3.48816e+06
3.48722e+06
3.4865e+06
3.48597e+06
3.48558e+06
3.48531e+06
3.48514e+06
3.48504e+06
3.48501e+06
3.48503e+06
3.48509e+06
3.48518e+06
3.48529e+06
3.48543e+06
3.48558e+06
3.48573e+06
3.4859e+06
3.48606e+06
3.48623e+06
3.48639e+06
3.48655e+06
3.4867e+06
3.48683e+06
3.48695e+06
3.48706e+06
3.48715e+06
3.48722e+06
3.48727e+06
3.4873e+06
3.4873e+06
3.48728e+06
3.48723e+06
3.48716e+06
3.48705e+06
3.48692e+06
3.48673e+06
3.51705e+06
3.50981e+06
3.50412e+06
3.49975e+06
3.49629e+06
3.49357e+06
3.49143e+06
3.48975e+06
3.48843e+06
3.4874e+06
3.48661e+06
3.48601e+06
3.48557e+06
3.48525e+06
3.48504e+06
3.48491e+06
3.48485e+06
3.48485e+06
3.48489e+06
3.48497e+06
3.48507e+06
3.4852e+06
3.48535e+06
3.48551e+06
3.48567e+06
3.48584e+06
3.48602e+06
3.48619e+06
3.48635e+06
3.48651e+06
3.48666e+06
3.4868e+06
3.48693e+06
3.48704e+06
3.48713e+06
3.4872e+06
3.48725e+06
3.48728e+06
3.48729e+06
3.48727e+06
3.48722e+06
3.48715e+06
3.48704e+06
3.48692e+06
3.48673e+06
3.50728e+06
3.50257e+06
3.49887e+06
3.49581e+06
3.49333e+06
3.49132e+06
3.4897e+06
3.4884e+06
3.48737e+06
3.48656e+06
3.48594e+06
3.48547e+06
3.48513e+06
3.4849e+06
3.48475e+06
3.48467e+06
3.48465e+06
3.48468e+06
3.48474e+06
3.48484e+06
3.48496e+06
3.48511e+06
3.48527e+06
3.48543e+06
3.48561e+06
3.48579e+06
3.48597e+06
3.48615e+06
3.48632e+06
3.48648e+06
3.48664e+06
3.48678e+06
3.48691e+06
3.48702e+06
3.48711e+06
3.48719e+06
3.48724e+06
3.48727e+06
3.48728e+06
3.48726e+06
3.48721e+06
3.48714e+06
3.48704e+06
3.48692e+06
3.48674e+06
3.49757e+06
3.49537e+06
3.49354e+06
3.49178e+06
3.49028e+06
3.48897e+06
3.48788e+06
3.48698e+06
3.48625e+06
3.48568e+06
3.48523e+06
3.4849e+06
3.48467e+06
3.48451e+06
3.48443e+06
3.48441e+06
3.48443e+06
3.48449e+06
3.48459e+06
3.48471e+06
3.48485e+06
3.48501e+06
3.48518e+06
3.48536e+06
3.48555e+06
3.48574e+06
3.48592e+06
3.48611e+06
3.48628e+06
3.48645e+06
3.48661e+06
3.48676e+06
3.48689e+06
3.487e+06
3.4871e+06
3.48717e+06
3.48723e+06
3.48726e+06
3.48727e+06
3.48725e+06
3.48721e+06
3.48714e+06
3.48704e+06
3.48693e+06
3.48675e+06
3.48861e+06
3.48862e+06
3.48841e+06
3.48785e+06
3.48724e+06
3.48661e+06
3.48603e+06
3.48552e+06
3.4851e+06
3.48475e+06
3.48449e+06
3.4843e+06
3.48418e+06
3.48411e+06
3.4841e+06
3.48413e+06
3.4842e+06
3.4843e+06
3.48443e+06
3.48457e+06
3.48474e+06
3.48491e+06
3.4851e+06
3.48529e+06
3.48549e+06
3.48568e+06
3.48588e+06
3.48607e+06
3.48625e+06
3.48642e+06
3.48659e+06
3.48674e+06
3.48687e+06
3.48699e+06
3.48709e+06
3.48717e+06
3.48722e+06
3.48725e+06
3.48726e+06
3.48725e+06
3.48721e+06
3.48714e+06
3.48704e+06
3.48693e+06
3.48677e+06
3.48083e+06
3.4826e+06
3.48368e+06
3.48414e+06
3.48432e+06
3.4843e+06
3.4842e+06
3.48406e+06
3.48393e+06
3.48381e+06
3.48373e+06
3.48368e+06
3.48368e+06
3.4837e+06
3.48376e+06
3.48385e+06
3.48397e+06
3.4841e+06
3.48426e+06
3.48443e+06
3.48462e+06
3.48481e+06
3.48501e+06
3.48522e+06
3.48542e+06
3.48563e+06
3.48583e+06
3.48603e+06
3.48622e+06
3.4864e+06
3.48657e+06
3.48672e+06
3.48686e+06
3.48698e+06
3.48708e+06
3.48716e+06
3.48722e+06
3.48725e+06
3.48726e+06
3.48725e+06
3.48721e+06
3.48714e+06
3.48705e+06
3.48694e+06
3.48678e+06
3.47435e+06
3.47739e+06
3.47945e+06
3.48074e+06
3.48158e+06
3.4821e+06
3.48243e+06
3.48264e+06
3.48277e+06
3.48288e+06
3.48297e+06
3.48306e+06
3.48316e+06
3.48328e+06
3.48341e+06
3.48356e+06
3.48372e+06
3.4839e+06
3.48409e+06
3.48429e+06
3.4845e+06
3.48471e+06
3.48493e+06
3.48514e+06
3.48536e+06
3.48558e+06
3.48579e+06
3.48599e+06
3.48619e+06
3.48637e+06
3.48655e+06
3.4867e+06
3.48685e+06
3.48697e+06
3.48707e+06
3.48715e+06
3.48721e+06
3.48725e+06
3.48726e+06
3.48725e+06
3.48721e+06
3.48715e+06
3.48706e+06
3.48695e+06
3.4868e+06
3.46902e+06
3.47294e+06
3.47572e+06
3.47768e+06
3.47906e+06
3.48004e+06
3.48074e+06
3.48126e+06
3.48165e+06
3.48195e+06
3.48221e+06
3.48244e+06
3.48265e+06
3.48286e+06
3.48306e+06
3.48327e+06
3.48348e+06
3.4837e+06
3.48392e+06
3.48414e+06
3.48437e+06
3.48461e+06
3.48484e+06
3.48507e+06
3.4853e+06
3.48553e+06
3.48575e+06
3.48596e+06
3.48616e+06
3.48635e+06
3.48653e+06
3.48669e+06
3.48684e+06
3.48696e+06
3.48707e+06
3.48715e+06
3.48721e+06
3.48725e+06
3.48726e+06
3.48725e+06
3.48721e+06
3.48715e+06
3.48706e+06
3.48697e+06
3.48682e+06
3.46464e+06
3.46917e+06
3.47248e+06
3.47494e+06
3.47677e+06
3.47813e+06
3.47916e+06
3.47995e+06
3.48056e+06
3.48106e+06
3.48147e+06
3.48182e+06
3.48214e+06
3.48243e+06
3.48271e+06
3.48297e+06
3.48323e+06
3.48349e+06
3.48374e+06
3.484e+06
3.48425e+06
3.4845e+06
3.48475e+06
3.485e+06
3.48524e+06
3.48548e+06
3.48571e+06
3.48593e+06
3.48614e+06
3.48633e+06
3.48652e+06
3.48668e+06
3.48683e+06
3.48696e+06
3.48707e+06
3.48715e+06
3.48722e+06
3.48725e+06
3.48727e+06
3.48726e+06
3.48722e+06
3.48716e+06
3.48708e+06
3.48698e+06
3.48684e+06
3.46099e+06
3.46595e+06
3.46965e+06
3.47252e+06
3.4747e+06
3.47638e+06
3.47769e+06
3.47871e+06
3.47953e+06
3.4802e+06
3.48075e+06
3.48122e+06
3.48164e+06
3.48201e+06
3.48236e+06
3.48268e+06
3.48299e+06
3.48328e+06
3.48357e+06
3.48385e+06
3.48413e+06
3.4844e+06
3.48467e+06
3.48493e+06
3.48518e+06
3.48543e+06
3.48567e+06
3.4859e+06
3.48611e+06
3.48632e+06
3.4865e+06
3.48668e+06
3.48683e+06
3.48696e+06
3.48707e+06
3.48716e+06
3.48722e+06
3.48726e+06
3.48728e+06
3.48726e+06
3.48723e+06
3.48717e+06
3.48709e+06
3.487e+06
3.48687e+06
3.45791e+06
3.46318e+06
3.4672e+06
3.47037e+06
3.47284e+06
3.47479e+06
3.47633e+06
3.47756e+06
3.47856e+06
3.47938e+06
3.48006e+06
3.48064e+06
3.48115e+06
3.4816e+06
3.48201e+06
3.48239e+06
3.48274e+06
3.48308e+06
3.4834e+06
3.48371e+06
3.48401e+06
3.4843e+06
3.48458e+06
3.48486e+06
3.48513e+06
3.48538e+06
3.48563e+06
3.48587e+06
3.48609e+06
3.4863e+06
3.4865e+06
3.48667e+06
3.48683e+06
3.48696e+06
3.48708e+06
3.48717e+06
3.48723e+06
3.48727e+06
3.48729e+06
3.48727e+06
3.48724e+06
3.48718e+06
3.4871e+06
3.48702e+06
3.48689e+06
3.45528e+06
3.46079e+06
3.46506e+06
3.46848e+06
3.47119e+06
3.47335e+06
3.47509e+06
3.4765e+06
3.47765e+06
3.4786e+06
3.4794e+06
3.48009e+06
3.48068e+06
3.4812e+06
3.48167e+06
3.4821e+06
3.4825e+06
3.48287e+06
3.48323e+06
3.48356e+06
3.48389e+06
3.4842e+06
3.4845e+06
3.48479e+06
3.48507e+06
3.48534e+06
3.4856e+06
3.48584e+06
3.48607e+06
3.48629e+06
3.48649e+06
3.48667e+06
3.48683e+06
3.48697e+06
3.48709e+06
3.48718e+06
3.48724e+06
3.48728e+06
3.4873e+06
3.48729e+06
3.48725e+06
3.4872e+06
3.48712e+06
3.48703e+06
3.48692e+06
3.45305e+06
3.45874e+06
3.46321e+06
3.46682e+06
3.46971e+06
3.47206e+06
3.47396e+06
3.47552e+06
3.4768e+06
3.47788e+06
3.47878e+06
3.47955e+06
3.48023e+06
3.48082e+06
3.48135e+06
3.48183e+06
3.48227e+06
3.48267e+06
3.48306e+06
3.48342e+06
3.48377e+06
3.4841e+06
3.48442e+06
3.48472e+06
3.48502e+06
3.4853e+06
3.48557e+06
3.48582e+06
3.48606e+06
3.48628e+06
3.48649e+06
3.48667e+06
3.48684e+06
3.48698e+06
3.4871e+06
3.48719e+06
3.48726e+06
3.4873e+06
3.48731e+06
3.4873e+06
3.48727e+06
3.48721e+06
3.48713e+06
3.48705e+06
3.48695e+06
3.45116e+06
3.45699e+06
3.46161e+06
3.46537e+06
3.46841e+06
3.4709e+06
3.47293e+06
3.47462e+06
3.47602e+06
3.4772e+06
3.47819e+06
3.47905e+06
3.47979e+06
3.48045e+06
3.48103e+06
3.48155e+06
3.48204e+06
3.48248e+06
3.48289e+06
3.48328e+06
3.48365e+06
3.484e+06
3.48434e+06
3.48466e+06
3.48496e+06
3.48526e+06
3.48554e+06
3.4858e+06
3.48605e+06
3.48628e+06
3.48649e+06
3.48668e+06
3.48685e+06
3.48699e+06
3.48711e+06
3.48721e+06
3.48728e+06
3.48732e+06
3.48733e+06
3.48732e+06
3.48728e+06
3.48723e+06
3.48715e+06
3.48707e+06
3.48697e+06
3.44078e+06
3.44328e+06
3.44959e+06
3.4555e+06
3.46023e+06
3.4641e+06
3.46726e+06
3.46986e+06
3.47201e+06
3.4738e+06
3.4753e+06
3.47656e+06
3.47764e+06
3.47857e+06
3.47938e+06
3.48009e+06
3.48072e+06
3.48129e+06
3.48181e+06
3.48229e+06
3.48273e+06
3.48315e+06
3.48354e+06
3.48391e+06
3.48426e+06
3.4846e+06
3.48492e+06
3.48522e+06
3.48551e+06
3.48578e+06
3.48604e+06
3.48627e+06
3.48649e+06
3.48669e+06
3.48686e+06
3.48701e+06
3.48713e+06
3.48723e+06
3.4873e+06
3.48734e+06
3.48735e+06
3.48734e+06
3.4873e+06
3.48724e+06
3.48717e+06
3.48709e+06
3.487e+06
3.43858e+06
3.44178e+06
3.44831e+06
3.45426e+06
3.45907e+06
3.46301e+06
3.46625e+06
3.46894e+06
3.47117e+06
3.47305e+06
3.47463e+06
3.47598e+06
3.47713e+06
3.47812e+06
3.47899e+06
3.47975e+06
3.48043e+06
3.48104e+06
3.4816e+06
3.4821e+06
3.48257e+06
3.48301e+06
3.48343e+06
3.48382e+06
3.48419e+06
3.48454e+06
3.48487e+06
3.48519e+06
3.48549e+06
3.48577e+06
3.48603e+06
3.48627e+06
3.4865e+06
3.4867e+06
3.48688e+06
3.48703e+06
3.48716e+06
3.48725e+06
3.48732e+06
3.48736e+06
3.48738e+06
3.48736e+06
3.48732e+06
3.48726e+06
3.48719e+06
3.48711e+06
3.48703e+06
3.4367e+06
3.44059e+06
3.44727e+06
3.45322e+06
3.45808e+06
3.46206e+06
3.46536e+06
3.46812e+06
3.47042e+06
3.47237e+06
3.47402e+06
3.47543e+06
3.47664e+06
3.4777e+06
3.47862e+06
3.47943e+06
3.48015e+06
3.4808e+06
3.48139e+06
3.48193e+06
3.48242e+06
3.48289e+06
3.48332e+06
3.48373e+06
3.48411e+06
3.48448e+06
3.48483e+06
3.48515e+06
3.48546e+06
3.48576e+06
3.48603e+06
3.48628e+06
3.48651e+06
3.48671e+06
3.4869e+06
3.48705e+06
3.48718e+06
3.48728e+06
3.48735e+06
3.48739e+06
3.4874e+06
3.48739e+06
3.48734e+06
3.48728e+06
3.48721e+06
3.48713e+06
3.48706e+06
3.43514e+06
3.43969e+06
3.44646e+06
3.45238e+06
3.45724e+06
3.46124e+06
3.46458e+06
3.46738e+06
3.46974e+06
3.47174e+06
3.47345e+06
3.47492e+06
3.47619e+06
3.4773e+06
3.47826e+06
3.47912e+06
3.47988e+06
3.48057e+06
3.48119e+06
3.48175e+06
3.48228e+06
3.48276e+06
3.48322e+06
3.48364e+06
3.48405e+06
3.48443e+06
3.48479e+06
3.48513e+06
3.48545e+06
3.48575e+06
3.48603e+06
3.48629e+06
3.48652e+06
3.48673e+06
3.48692e+06
3.48708e+06
3.48721e+06
3.48731e+06
3.48738e+06
3.48742e+06
3.48743e+06
3.48741e+06
3.48737e+06
3.4873e+06
3.48723e+06
3.48715e+06
3.48708e+06
3.4338e+06
3.43897e+06
3.44579e+06
3.45164e+06
3.45649e+06
3.4605e+06
3.46386e+06
3.4667e+06
3.46911e+06
3.47116e+06
3.47293e+06
3.47445e+06
3.47577e+06
3.47692e+06
3.47793e+06
3.47883e+06
3.47963e+06
3.48034e+06
3.48099e+06
3.48159e+06
3.48214e+06
3.48264e+06
3.48312e+06
3.48356e+06
3.48398e+06
3.48438e+06
3.48475e+06
3.4851e+06
3.48543e+06
3.48574e+06
3.48603e+06
3.4863e+06
3.48654e+06
3.48676e+06
3.48695e+06
3.48711e+06
3.48724e+06
3.48735e+06
3.48742e+06
3.48746e+06
3.48746e+06
3.48744e+06
3.48739e+06
3.48733e+06
3.48724e+06
3.48717e+06
3.4871e+06
3.43274e+06
3.43842e+06
3.44523e+06
3.451e+06
3.45582e+06
3.45982e+06
3.4632e+06
3.46607e+06
3.46852e+06
3.47062e+06
3.47243e+06
3.474e+06
3.47537e+06
3.47657e+06
3.47762e+06
3.47855e+06
3.47938e+06
3.48013e+06
3.48081e+06
3.48143e+06
3.482e+06
3.48253e+06
3.48302e+06
3.48348e+06
3.48392e+06
3.48433e+06
3.48471e+06
3.48508e+06
3.48542e+06
3.48574e+06
3.48604e+06
3.48631e+06
3.48656e+06
3.48679e+06
3.48698e+06
3.48715e+06
3.48728e+06
3.48739e+06
3.48746e+06
3.48749e+06
3.4875e+06
3.48747e+06
3.48742e+06
3.48735e+06
3.48726e+06
3.48719e+06
3.48712e+06
3.43167e+06
3.43775e+06
3.4446e+06
3.45032e+06
3.45514e+06
3.45915e+06
3.46256e+06
3.46546e+06
3.46796e+06
3.47011e+06
3.47197e+06
3.47359e+06
3.475e+06
3.47623e+06
3.47732e+06
3.47829e+06
3.47916e+06
3.47993e+06
3.48064e+06
3.48128e+06
3.48187e+06
3.48242e+06
3.48293e+06
3.48341e+06
3.48386e+06
3.48428e+06
3.48468e+06
3.48506e+06
3.48541e+06
3.48574e+06
3.48605e+06
3.48633e+06
3.48659e+06
3.48682e+06
3.48702e+06
3.48719e+06
3.48732e+06
3.48743e+06
3.4875e+06
3.48754e+06
3.48754e+06
3.48751e+06
3.48745e+06
3.48737e+06
3.48728e+06
3.4872e+06
3.48714e+06
3.43084e+06
3.43712e+06
3.44399e+06
3.44966e+06
3.45447e+06
3.4585e+06
3.46195e+06
3.46489e+06
3.46744e+06
3.46963e+06
3.47154e+06
3.4732e+06
3.47466e+06
3.47593e+06
3.47705e+06
3.47805e+06
3.47894e+06
3.47975e+06
3.48047e+06
3.48114e+06
3.48175e+06
3.48232e+06
3.48285e+06
3.48334e+06
3.48381e+06
3.48425e+06
3.48466e+06
3.48505e+06
3.48541e+06
3.48575e+06
3.48607e+06
3.48636e+06
3.48662e+06
3.48685e+06
3.48706e+06
3.48723e+06
3.48737e+06
3.48748e+06
3.48755e+06
3.48758e+06
3.48758e+06
3.48755e+06
3.48748e+06
3.4874e+06
3.4873e+06
3.48722e+06
3.48715e+06
3.42984e+06
3.43631e+06
3.44327e+06
3.44893e+06
3.45377e+06
3.45784e+06
3.46134e+06
3.46435e+06
3.46695e+06
3.4692e+06
3.47115e+06
3.47286e+06
3.47435e+06
3.47565e+06
3.47681e+06
3.47783e+06
3.47875e+06
3.47957e+06
3.48032e+06
3.48101e+06
3.48164e+06
3.48222e+06
3.48277e+06
3.48328e+06
3.48376e+06
3.48421e+06
3.48464e+06
3.48504e+06
3.48541e+06
3.48576e+06
3.48609e+06
3.48638e+06
3.48665e+06
3.48689e+06
3.4871e+06
3.48728e+06
3.48742e+06
3.48753e+06
3.4876e+06
3.48763e+06
3.48763e+06
3.48759e+06
3.48752e+06
3.48742e+06
3.48732e+06
3.48723e+06
3.48716e+06
3.42967e+06
3.43608e+06
3.44278e+06
3.44835e+06
3.45318e+06
3.45729e+06
3.46084e+06
3.46391e+06
3.46656e+06
3.46885e+06
3.47084e+06
3.47258e+06
3.47409e+06
3.47542e+06
3.4766e+06
3.47764e+06
3.47858e+06
3.47942e+06
3.48018e+06
3.48088e+06
3.48153e+06
3.48213e+06
3.48269e+06
3.48322e+06
3.48371e+06
3.48418e+06
3.48462e+06
3.48503e+06
3.48542e+06
3.48578e+06
3.48611e+06
3.48642e+06
3.4867e+06
3.48694e+06
3.48716e+06
3.48734e+06
3.48748e+06
3.48759e+06
3.48766e+06
3.48769e+06
3.48768e+06
3.48763e+06
3.48756e+06
3.48745e+06
3.48734e+06
3.48723e+06
3.48716e+06
3.4313e+06
3.43691e+06
3.44277e+06
3.44797e+06
3.45272e+06
3.45684e+06
3.46044e+06
3.46355e+06
3.46625e+06
3.46858e+06
3.4706e+06
3.47235e+06
3.47388e+06
3.47523e+06
3.47642e+06
3.47748e+06
3.47842e+06
3.47928e+06
3.48006e+06
3.48078e+06
3.48144e+06
3.48205e+06
3.48263e+06
3.48317e+06
3.48368e+06
3.48415e+06
3.48461e+06
3.48503e+06
3.48543e+06
3.4858e+06
3.48614e+06
3.48645e+06
3.48674e+06
3.48699e+06
3.48721e+06
3.48739e+06
3.48754e+06
3.48764e+06
3.48771e+06
3.48774e+06
3.48773e+06
3.48768e+06
3.48759e+06
3.48748e+06
3.48735e+06
3.48724e+06
3.48716e+06
3.48772e+06
3.48773e+06
3.48772e+06
3.48768e+06
3.4876e+06
3.48751e+06
3.48737e+06
3.48721e+06
3.48696e+06
3.48751e+06
3.48758e+06
3.48764e+06
3.48767e+06
3.48768e+06
3.48767e+06
3.48763e+06
3.48756e+06
3.48746e+06
3.48732e+06
3.48716e+06
3.48692e+06
3.51989e+06
3.51289e+06
3.50751e+06
3.50299e+06
3.49938e+06
3.49643e+06
3.49405e+06
3.49213e+06
3.49059e+06
3.48937e+06
3.4884e+06
3.48765e+06
3.48707e+06
3.48663e+06
3.48631e+06
3.48609e+06
3.48595e+06
3.48587e+06
3.48584e+06
3.48586e+06
3.48592e+06
3.486e+06
3.4861e+06
3.48622e+06
3.48634e+06
3.48648e+06
3.48662e+06
3.48676e+06
3.4869e+06
3.48703e+06
3.48715e+06
3.48727e+06
3.48737e+06
3.48746e+06
3.48753e+06
3.48759e+06
3.48762e+06
3.48763e+06
3.48762e+06
3.48758e+06
3.48752e+06
3.48742e+06
3.48728e+06
3.48713e+06
3.48688e+06
3.52521e+06
3.51704e+06
3.51054e+06
3.50528e+06
3.50108e+06
3.4977e+06
3.495e+06
3.49284e+06
3.49112e+06
3.48975e+06
3.48868e+06
3.48785e+06
3.4872e+06
3.48672e+06
3.48637e+06
3.48612e+06
3.48595e+06
3.48586e+06
3.48582e+06
3.48583e+06
3.48588e+06
3.48595e+06
3.48605e+06
3.48617e+06
3.48629e+06
3.48643e+06
3.48657e+06
3.48671e+06
3.48684e+06
3.48698e+06
3.4871e+06
3.48722e+06
3.48732e+06
3.48741e+06
3.48749e+06
3.48754e+06
3.48758e+06
3.48759e+06
3.48758e+06
3.48754e+06
3.48748e+06
3.48738e+06
3.48725e+06
3.48709e+06
3.48685e+06
3.53028e+06
3.521e+06
3.51335e+06
3.50739e+06
3.50262e+06
3.49884e+06
3.49583e+06
3.49345e+06
3.49156e+06
3.49007e+06
3.4889e+06
3.488e+06
3.4873e+06
3.48678e+06
3.4864e+06
3.48613e+06
3.48595e+06
3.48584e+06
3.48579e+06
3.4858e+06
3.48584e+06
3.48591e+06
3.486e+06
3.48612e+06
3.48624e+06
3.48638e+06
3.48652e+06
3.48666e+06
3.48679e+06
3.48693e+06
3.48705e+06
3.48717e+06
3.48728e+06
3.48737e+06
3.48744e+06
3.4875e+06
3.48753e+06
3.48755e+06
3.48754e+06
3.4875e+06
3.48744e+06
3.48735e+06
3.48721e+06
3.48706e+06
3.48682e+06
3.53485e+06
3.52449e+06
3.51582e+06
3.50921e+06
3.50393e+06
3.49979e+06
3.49651e+06
3.49393e+06
3.4919e+06
3.4903e+06
3.48906e+06
3.4881e+06
3.48736e+06
3.48681e+06
3.4864e+06
3.48611e+06
3.48592e+06
3.48581e+06
3.48575e+06
3.48575e+06
3.48579e+06
3.48586e+06
3.48595e+06
3.48607e+06
3.48619e+06
3.48633e+06
3.48646e+06
3.48661e+06
3.48674e+06
3.48688e+06
3.48701e+06
3.48712e+06
3.48723e+06
3.48732e+06
3.4874e+06
3.48746e+06
3.48749e+06
3.48751e+06
3.4875e+06
3.48747e+06
3.4874e+06
3.48732e+06
3.48718e+06
3.48703e+06
3.4868e+06
3.5389e+06
3.52731e+06
3.51783e+06
3.51063e+06
3.50493e+06
3.50049e+06
3.49699e+06
3.49426e+06
3.49212e+06
3.49044e+06
3.48914e+06
3.48814e+06
3.48738e+06
3.4868e+06
3.48638e+06
3.48608e+06
3.48588e+06
3.48576e+06
3.4857e+06
3.4857e+06
3.48573e+06
3.4858e+06
3.4859e+06
3.48601e+06
3.48614e+06
3.48627e+06
3.48641e+06
3.48656e+06
3.4867e+06
3.48683e+06
3.48696e+06
3.48708e+06
3.48719e+06
3.48728e+06
3.48736e+06
3.48742e+06
3.48746e+06
3.48747e+06
3.48747e+06
3.48743e+06
3.48737e+06
3.48729e+06
3.48716e+06
3.48701e+06
3.48678e+06
3.54232e+06
3.52931e+06
3.51929e+06
3.51157e+06
3.50556e+06
3.5009e+06
3.49725e+06
3.49441e+06
3.4922e+06
3.49048e+06
3.48914e+06
3.48812e+06
3.48734e+06
3.48675e+06
3.48632e+06
3.48602e+06
3.48582e+06
3.4857e+06
3.48564e+06
3.48564e+06
3.48567e+06
3.48574e+06
3.48584e+06
3.48596e+06
3.48608e+06
3.48622e+06
3.48636e+06
3.48651e+06
3.48665e+06
3.48679e+06
3.48692e+06
3.48704e+06
3.48715e+06
3.48724e+06
3.48732e+06
3.48738e+06
3.48742e+06
3.48744e+06
3.48743e+06
3.4874e+06
3.48734e+06
3.48726e+06
3.48713e+06
3.48699e+06
3.48676e+06
3.54453e+06
3.53033e+06
3.52002e+06
3.51194e+06
3.50576e+06
3.50097e+06
3.49725e+06
3.49437e+06
3.49213e+06
3.49039e+06
3.48905e+06
3.48803e+06
3.48724e+06
3.48666e+06
3.48624e+06
3.48594e+06
3.48574e+06
3.48562e+06
3.48557e+06
3.48557e+06
3.48561e+06
3.48568e+06
3.48578e+06
3.4859e+06
3.48603e+06
3.48617e+06
3.48631e+06
3.48646e+06
3.4866e+06
3.48674e+06
3.48688e+06
3.487e+06
3.48711e+06
3.48721e+06
3.48729e+06
3.48735e+06
3.48739e+06
3.48741e+06
3.48741e+06
3.48738e+06
3.48732e+06
3.48724e+06
3.48711e+06
3.48697e+06
3.48675e+06
3.545e+06
3.53028e+06
3.51986e+06
3.51166e+06
3.50547e+06
3.50067e+06
3.49698e+06
3.49412e+06
3.4919e+06
3.49019e+06
3.48887e+06
3.48786e+06
3.4871e+06
3.48653e+06
3.48612e+06
3.48583e+06
3.48564e+06
3.48553e+06
3.48548e+06
3.48549e+06
3.48553e+06
3.48561e+06
3.48572e+06
3.48584e+06
3.48597e+06
3.48611e+06
3.48626e+06
3.48641e+06
3.48656e+06
3.4867e+06
3.48684e+06
3.48696e+06
3.48707e+06
3.48717e+06
3.48725e+06
3.48732e+06
3.48736e+06
3.48738e+06
3.48738e+06
3.48735e+06
3.4873e+06
3.48721e+06
3.48709e+06
3.48695e+06
3.48674e+06
3.54344e+06
3.52906e+06
3.51869e+06
3.51068e+06
3.50464e+06
3.49998e+06
3.49641e+06
3.49364e+06
3.49151e+06
3.48986e+06
3.48859e+06
3.48762e+06
3.48689e+06
3.48635e+06
3.48596e+06
3.48569e+06
3.48552e+06
3.48542e+06
3.48539e+06
3.4854e+06
3.48545e+06
3.48554e+06
3.48565e+06
3.48577e+06
3.48591e+06
3.48606e+06
3.48621e+06
3.48636e+06
3.48652e+06
3.48666e+06
3.4868e+06
3.48693e+06
3.48704e+06
3.48714e+06
3.48722e+06
3.48729e+06
3.48733e+06
3.48736e+06
3.48736e+06
3.48733e+06
3.48728e+06
3.4872e+06
3.48708e+06
3.48694e+06
3.48673e+06
3.53967e+06
3.5264e+06
3.51645e+06
3.50895e+06
3.50327e+06
3.4989e+06
3.49555e+06
3.49295e+06
3.49095e+06
3.48941e+06
3.48822e+06
3.48732e+06
3.48664e+06
3.48614e+06
3.48578e+06
3.48553e+06
3.48538e+06
3.4853e+06
3.48528e+06
3.4853e+06
3.48537e+06
3.48546e+06
3.48558e+06
3.48571e+06
3.48585e+06
3.48601e+06
3.48616e+06
3.48632e+06
3.48647e+06
3.48662e+06
3.48676e+06
3.48689e+06
3.48701e+06
3.48711e+06
3.4872e+06
3.48726e+06
3.48731e+06
3.48733e+06
3.48733e+06
3.48731e+06
3.48726e+06
3.48718e+06
3.48707e+06
3.48693e+06
3.48673e+06
3.53382e+06
3.52219e+06
3.51318e+06
3.50649e+06
3.50137e+06
3.49744e+06
3.49441e+06
3.49206e+06
3.49024e+06
3.48884e+06
3.48776e+06
3.48694e+06
3.48633e+06
3.48588e+06
3.48556e+06
3.48535e+06
3.48522e+06
3.48516e+06
3.48516e+06
3.4852e+06
3.48528e+06
3.48538e+06
3.4855e+06
3.48564e+06
3.48579e+06
3.48595e+06
3.48611e+06
3.48627e+06
3.48643e+06
3.48658e+06
3.48673e+06
3.48686e+06
3.48698e+06
3.48708e+06
3.48717e+06
3.48724e+06
3.48729e+06
3.48731e+06
3.48732e+06
3.48729e+06
3.48724e+06
3.48717e+06
3.48706e+06
3.48693e+06
3.48673e+06
3.52613e+06
3.51653e+06
3.50899e+06
3.50338e+06
3.49901e+06
3.49564e+06
3.49302e+06
3.49098e+06
3.48939e+06
3.48816e+06
3.48722e+06
3.4865e+06
3.48597e+06
3.48558e+06
3.48531e+06
3.48514e+06
3.48504e+06
3.48501e+06
3.48503e+06
3.48509e+06
3.48518e+06
3.48529e+06
3.48543e+06
3.48558e+06
3.48573e+06
3.4859e+06
3.48606e+06
3.48623e+06
3.48639e+06
3.48655e+06
3.4867e+06
3.48683e+06
3.48695e+06
3.48706e+06
3.48715e+06
3.48722e+06
3.48727e+06
3.4873e+06
3.4873e+06
3.48728e+06
3.48723e+06
3.48716e+06
3.48705e+06
3.48692e+06
3.48673e+06
3.51705e+06
3.50981e+06
3.50412e+06
3.49975e+06
3.49629e+06
3.49357e+06
3.49143e+06
3.48975e+06
3.48843e+06
3.4874e+06
3.48661e+06
3.48601e+06
3.48557e+06
3.48525e+06
3.48504e+06
3.48491e+06
3.48485e+06
3.48485e+06
3.48489e+06
3.48497e+06
3.48507e+06
3.4852e+06
3.48535e+06
3.48551e+06
3.48567e+06
3.48584e+06
3.48602e+06
3.48619e+06
3.48635e+06
3.48651e+06
3.48666e+06
3.4868e+06
3.48693e+06
3.48704e+06
3.48713e+06
3.4872e+06
3.48725e+06
3.48728e+06
3.48729e+06
3.48727e+06
3.48722e+06
3.48715e+06
3.48704e+06
3.48692e+06
3.48673e+06
3.50728e+06
3.50257e+06
3.49887e+06
3.49581e+06
3.49333e+06
3.49132e+06
3.4897e+06
3.4884e+06
3.48737e+06
3.48656e+06
3.48594e+06
3.48547e+06
3.48513e+06
3.4849e+06
3.48475e+06
3.48467e+06
3.48465e+06
3.48468e+06
3.48474e+06
3.48484e+06
3.48496e+06
3.48511e+06
3.48527e+06
3.48543e+06
3.48561e+06
3.48579e+06
3.48597e+06
3.48615e+06
3.48632e+06
3.48648e+06
3.48664e+06
3.48678e+06
3.48691e+06
3.48702e+06
3.48711e+06
3.48719e+06
3.48724e+06
3.48727e+06
3.48728e+06
3.48726e+06
3.48721e+06
3.48714e+06
3.48704e+06
3.48692e+06
3.48674e+06
3.49757e+06
3.49537e+06
3.49354e+06
3.49178e+06
3.49028e+06
3.48897e+06
3.48788e+06
3.48698e+06
3.48625e+06
3.48568e+06
3.48523e+06
3.4849e+06
3.48467e+06
3.48451e+06
3.48443e+06
3.48441e+06
3.48443e+06
3.48449e+06
3.48459e+06
3.48471e+06
3.48485e+06
3.48501e+06
3.48518e+06
3.48536e+06
3.48555e+06
3.48574e+06
3.48592e+06
3.48611e+06
3.48628e+06
3.48645e+06
3.48661e+06
3.48676e+06
3.48689e+06
3.487e+06
3.4871e+06
3.48717e+06
3.48723e+06
3.48726e+06
3.48727e+06
3.48725e+06
3.48721e+06
3.48714e+06
3.48704e+06
3.48693e+06
3.48675e+06
3.48861e+06
3.48862e+06
3.48841e+06
3.48785e+06
3.48724e+06
3.48661e+06
3.48603e+06
3.48552e+06
3.4851e+06
3.48475e+06
3.48449e+06
3.4843e+06
3.48418e+06
3.48411e+06
3.4841e+06
3.48413e+06
3.4842e+06
3.4843e+06
3.48443e+06
3.48457e+06
3.48474e+06
3.48491e+06
3.4851e+06
3.48529e+06
3.48549e+06
3.48568e+06
3.48588e+06
3.48607e+06
3.48625e+06
3.48642e+06
3.48659e+06
3.48674e+06
3.48687e+06
3.48699e+06
3.48709e+06
3.48717e+06
3.48722e+06
3.48725e+06
3.48726e+06
3.48725e+06
3.48721e+06
3.48714e+06
3.48704e+06
3.48693e+06
3.48677e+06
3.48083e+06
3.4826e+06
3.48368e+06
3.48414e+06
3.48432e+06
3.4843e+06
3.4842e+06
3.48406e+06
3.48393e+06
3.48381e+06
3.48373e+06
3.48368e+06
3.48368e+06
3.4837e+06
3.48376e+06
3.48385e+06
3.48397e+06
3.4841e+06
3.48426e+06
3.48443e+06
3.48462e+06
3.48481e+06
3.48501e+06
3.48522e+06
3.48542e+06
3.48563e+06
3.48583e+06
3.48603e+06
3.48622e+06
3.4864e+06
3.48657e+06
3.48672e+06
3.48686e+06
3.48698e+06
3.48708e+06
3.48716e+06
3.48722e+06
3.48725e+06
3.48726e+06
3.48725e+06
3.48721e+06
3.48714e+06
3.48705e+06
3.48694e+06
3.48678e+06
3.47435e+06
3.47739e+06