/*--------------------------------*- C++ -*----------------------------------*\
| =========                 |                                                 |
| \\      /  F ield         | OpenFOAM: The Open Source CFD Toolbox           |
|  \\    /   O peration     | Version:  v2012                                 |
|   \\  /    A nd           | Website:  www.openfoam.com                      |
|    \\/     M anipulation  |                                                 |
\*---------------------------------------------------------------------------*/
FoamFile
{
    version     2.0;
    format      ascii;
    class       volVectorField;
    location    "0.55";
    object      U;
}
// * * * * * * * * * * * * * * * * * * * * * * * * * * * * * * * * * * * * * //

dimensions      [0 1 -1 0 0 0 0];


internalField   nonuniform List<vector> 
3326
(
(-0.32378 0.366994 0.00282701)
(-0.267941 0.359293 0.0023396)
(-0.214059 0.342497 0.00186926)
(-0.163103 0.316296 0.00142445)
(-0.116248 0.28044 0.0010154)
(-0.0747626 0.234791 0.000653209)
(-0.0403601 0.179366 0.000352794)
(-0.0146218 0.114406 0.000128077)
(-0.000607222 0.040332 7.59356e-06)
(-0.490495 0.325147 0.00428212)
(-0.434044 0.342041 0.0037894)
(-0.377284 0.351125 0.00329399)
(-0.320862 0.352084 0.00280147)
(-0.265524 0.344597 0.00231845)
(-0.21212 0.328349 0.0018523)
(-0.161619 0.303054 0.00141146)
(-0.115185 0.268492 0.0010061)
(-0.0740783 0.22456 0.000647216)
(-0.0399934 0.171322 0.00034958)
(-0.014493 0.109084 0.000126946)
(-0.000603883 0.0383454 7.54469e-06)
(-0.760553 -3.09329 0.00663802)
(-0.774064 -2.87334 0.00675592)
(-0.795727 -2.70424 0.00694494)
(-0.821167 -2.5586 0.00716696)
(-0.84899 -2.42206 0.00740978)
(-0.877244 -2.28823 0.00765638)
(-0.904933 -2.1546 0.00789806)
(-0.931174 -2.02068 0.00812711)
(-0.955415 -1.8868 0.0083387)
(-0.977224 -1.75363 0.00852908)
(-0.9963 -1.62184 0.00869561)
(-1.01241 -1.49205 0.00883623)
(-1.02536 -1.36478 0.00894933)
(-1.03502 -1.24044 0.00903363)
(-1.04124 -1.11933 0.00908804)
(-1.04394 -1.00174 0.0091116)
(-1.04301 -0.887846 0.00910353)
(-1.03838 -0.77785 0.00906323)
(-1.03001 -0.671916 0.00899018)
(-1.01784 -0.570206 0.00888404)
(-1.00187 -0.472881 0.00874465)
(-0.982081 -0.380105 0.00857202)
(-0.958513 -0.292045 0.00836638)
(-0.931213 -0.208877 0.00812816)
(-0.900259 -0.130787 0.00785805)
(-0.865756 -0.0579519 0.00755697)
(-0.827835 0.0094415 0.00722616)
(-0.786665 0.071195 0.00686688)
(-0.742446 0.127113 0.00648098)
(-0.695426 0.17698 0.00607064)
(-0.645879 0.220594 0.00563822)
(-0.594129 0.257727 0.00518658)
(-0.540557 0.28814 0.00471903)
(-0.485594 0.311582 0.00423925)
(-0.429741 0.327784 0.00375177)
(-0.373557 0.336461 0.00326139)
(-0.317692 0.337314 0.00277378)
(-0.262891 0.330036 0.00229545)
(-0.210004 0.314332 0.00183381)
(-0.159994 0.289936 0.00139726)
(-0.114019 0.256657 0.000995909)
(-0.0733257 0.214427 0.000640637)
(-0.0395887 0.163356 0.00034604)
(-0.0143502 0.103812 0.000125694)
(-0.00059996 0.0363769 7.48868e-06)
(-0.703729 -3.01234 0.00614203)
(-0.721146 -2.78802 0.00629401)
(-0.745579 -2.61653 0.00650721)
(-0.773865 -2.47091 0.00675407)
(-0.80427 -2.33601 0.00701943)
(-0.835048 -2.20505 0.00728807)
(-0.865141 -2.07508 0.00755072)
(-0.893692 -1.94534 0.00779993)
(-0.920135 -1.81596 0.00803075)
(-0.944041 -1.68744 0.00823944)
(-0.965108 -1.56039 0.00842334)
(-0.9831 -1.43536 0.00858041)
(-0.997839 -1.31281 0.00870909)
(-1.00918 -1.19313 0.0088081)
(-1.017 -1.07662 0.00887643)
(-1.0212 -0.963508 0.00891316)
(-1.0217 -0.853994 0.00891755)
(-1.01843 -0.74825 0.00888906)
(-1.01134 -0.646431 0.00882722)
(-1.00039 -0.548689 0.00873173)
(-0.985577 -0.455174 0.00860247)
(-0.966896 -0.36604 0.00843948)
(-0.944381 -0.281446 0.00824302)
(-0.918083 -0.201554 0.00801355)
(-0.888085 -0.126546 0.00775179)
(-0.854494 -0.0565881 0.00745866)
(-0.817443 0.00813886 0.00713534)
(-0.777104 0.067446 0.00678332)
(-0.73368 0.121144 0.00640436)
(-0.68742 0.169026 0.00600065)
(-0.6386 0.210895 0.00557459)
(-0.58755 0.246532 0.00512906)
(-0.534651 0.275707 0.00466738)
(-0.480338 0.298176 0.00419334)
(-0.425113 0.313681 0.00371135)
(-0.369539 0.32195 0.0032263)
(-0.314266 0.322693 0.00274386)
(-0.26004 0.315622 0.00227055)
(-0.207707 0.300456 0.00181375)
(-0.158227 0.276952 0.00138183)
(-0.112747 0.244945 0.0009848)
(-0.0725026 0.204402 0.000633444)
(-0.0391446 0.155475 0.000342158)
(-0.0141928 0.0985972 0.000124314)
(-0.000595399 0.0344287 7.42483e-06)
(-0.636866 -2.9315 0.0055584)
(-0.660579 -2.70304 0.00576531)
(-0.689263 -2.52929 0.00601564)
(-0.721684 -2.38356 0.00629859)
(-0.755633 -2.2502 0.00659489)
(-0.789726 -2.12199 0.00689245)
(-0.822847 -1.99559 0.00718154)
(-0.85421 -1.86995 0.0074553)
(-0.883254 -1.745 0.00770882)
(-0.909573 -1.62111 0.00793857)
(-0.932876 -1.49877 0.00814199)
(-0.952943 -1.37848 0.00831717)
(-0.969607 -1.26065 0.00846265)
(-0.982737 -1.14563 0.0085773)
(-0.992226 -1.0337 0.00866019)
(-0.997986 -0.925076 0.0087105)
(-0.999944 -0.819939 0.00872763)
(-0.998043 -0.718446 0.00871109)
(-0.99224 -0.620744 0.0086605)
(-0.982512 -0.526972 0.00857564)
(-0.968849 -0.437269 0.00845645)
(-0.951264 -0.351779 0.00830302)
(-0.929791 -0.27065 0.00811566)
(-0.904487 -0.194039 0.00789487)
(-0.875439 -0.122115 0.00764139)
(-0.842755 -0.0550375 0.00735619)
(-0.806575 0.0070199 0.00704046)
(-0.767072 0.0638772 0.00669573)
(-0.72445 0.115352 0.00632377)
(-0.678962 0.161245 0.0059268)
(-0.630888 0.201366 0.00550724)
(-0.580557 0.235505 0.00506799)
(-0.528355 0.263439 0.00461241)
(-0.47472 0.284934 0.00414429)
(-0.420155 0.299741 0.00366805)
(-0.365224 0.307598 0.00318862)
(-0.310579 0.308231 0.00271167)
(-0.256964 0.301363 0.00224369)
(-0.205224 0.286731 0.00179207)
(-0.156312 0.264112 0.00136511)
(-0.111367 0.233366 0.000972741)
(-0.0716066 0.194493 0.000625616)
(-0.0386596 0.147688 0.000337919)
(-0.0140199 0.0934442 0.0001228)
(-0.000590139 0.0325027 7.35245e-06)
(-0.561515 -2.84903 0.00490067)
(-0.5932 -2.61699 0.00517716)
(-0.62757 -2.44154 0.00547713)
(-0.665222 -2.2958 0.00580574)
(-0.703606 -2.16403 0.00614075)
(-0.74172 -2.03858 0.00647342)
(-0.778434 -1.91575 0.00679387)
(-0.813057 -1.79422 0.00709608)
(-0.845054 -1.67371 0.00737538)
(-0.874059 -1.55446 0.00762857)
(-0.899807 -1.43686 0.00785333)
(-0.922104 -1.32132 0.00804798)
(-0.940808 -1.20823 0.00821127)
(-0.955809 -1.09789 0.00834224)
(-0.967018 -0.990559 0.00844015)
(-0.974367 -0.886434 0.00850433)
(-0.977798 -0.785683 0.00853431)
(-0.977269 -0.68845 0.00852975)
(-0.97275 -0.594869 0.00849037)
(-0.964228 -0.50507 0.00841604)
(-0.951705 -0.419182 0.0083068)
(-0.9352 -0.337338 0.0081628)
(-0.914755 -0.259678 0.00798441)
(-0.890433 -0.186347 0.00777219)
(-0.862324 -0.117508 0.00752691)
(-0.830542 -0.0533122 0.00724958)
(-0.795231 0.00607508 0.00694143)
(-0.756564 0.0604817 0.006604)
(-0.714752 0.109732 0.00623911)
(-0.670048 0.153635 0.00584898)
(-0.622735 0.192008 0.00543607)
(-0.573144 0.224648 0.00500328)
(-0.521664 0.25134 0.00455399)
(-0.468734 0.271861 0.00409203)
(-0.414859 0.285969 0.00362182)
(-0.360605 0.293416 0.0031483)
(-0.306624 0.293936 0.00267714)
(-0.253659 0.287269 0.00221483)
(-0.202551 0.273166 0.00176872)
(-0.154247 0.251426 0.00134707)
(-0.109874 0.22193 0.000959703)
(-0.0706353 0.18471 0.000617129)
(-0.0381322 0.140002 0.000333309)
(-0.013831 0.0883585 0.000121146)
(-0.000584109 0.0306011 7.2708e-06)
(-0.479673 -2.76375 0.00418627)
(-0.520133 -2.5289 0.00453935)
(-0.561582 -2.35247 0.00490112)
(-0.605304 -2.20696 0.00528272)
(-0.648907 -2.077 0.00566328)
(-0.691625 -1.9544 0.00603614)
(-0.732407 -1.83525 0.0063921)
(-0.770655 -1.71791 0.00672595)
(-0.805888 -1.60192 0.0070335)
(-0.837792 -1.48737 0.007312)
(-0.866142 -1.37456 0.00755947)
(-0.890784 -1.26383 0.00777458)
(-0.911605 -1.15552 0.00795635)
(-0.928524 -1.04989 0.00810408)
(-0.941481 -0.947187 0.00821723)
(-0.950428 -0.847585 0.00829537)
(-0.955329 -0.751237 0.00833819)
(-0.956161 -0.658277 0.0083455)
(-0.952908 -0.568827 0.00831717)
(-0.945572 -0.483007 0.0082532)
(-0.934166 -0.400937 0.0081537)
(-0.918719 -0.32274 0.00801894)
(-0.899282 -0.248547 0.00784935)
(-0.875924 -0.178497 0.00764554)
(-0.848741 -0.112741 0.00740835)
(-0.817853 -0.0514253 0.00713881)
(-0.783405 0.00529367 0.00683821)
(-0.745577 0.0572513 0.0065081)
(-0.70458 0.104279 0.00615032)
(-0.660671 0.146194 0.00576713)
(-0.614134 0.18282 0.00536099)
(-0.565303 0.213962 0.00493483)
(-0.51457 0.239415 0.00449206)
(-0.462373 0.258962 0.0040365)
(-0.40922 0.272373 0.00357259)
(-0.355677 0.279409 0.00310527)
(-0.302397 0.279817 0.00264023)
(-0.250119 0.273349 0.00218393)
(-0.199683 0.259773 0.00174368)
(-0.152027 0.238904 0.00132768)
(-0.108266 0.210647 0.000945655)
(-0.069586 0.175062 0.000607962)
(-0.0375606 0.132425 0.000328313)
(-0.0136253 0.0833459 0.000119344)
(-0.00057723 0.0287261 7.17903e-06)
(-0.392992 -2.67432 0.00342959)
(-0.442605 -2.43799 0.00386262)
(-0.492503 -2.26133 0.00429813)
(-0.542928 -2.11651 0.00473823)
(-0.592398 -1.98864 0.00517002)
(-0.640161 -1.86913 0.00558691)
(-0.685369 -1.75382 0.0059815)
(-0.727504 -1.64081 0.00634928)
(-0.766168 -1.52947 0.00668679)
(-0.80111 -1.41973 0.0069918)
(-0.832159 -1.3118 0.00726283)
(-0.859205 -1.20596 0.00749893)
(-0.882176 -1.10248 0.00769947)
(-0.901027 -1.00163 0.00786405)
(-0.915727 -0.903591 0.00799243)
(-0.926258 -0.808544 0.00808439)
(-0.932606 -0.716623 0.00813984)
(-0.934769 -0.627952 0.00815877)
(-0.932752 -0.542644 0.00814122)
(-0.926569 -0.460809 0.00808732)
(-0.916249 -0.382558 0.0079973)
(-0.901832 -0.308008 0.00787153)
(-0.883377 -0.237282 0.00771051)
(-0.860962 -0.170508 0.00751493)
(-0.834689 -0.107832 0.00728569)
(-0.804683 -0.0493913 0.00702385)
(-0.771093 0.00466418 0.00673073)
(-0.734103 0.0541775 0.00640793)
(-0.693926 0.0989878 0.00605732)
(-0.650822 0.138919 0.00568115)
(-0.605077 0.173802 0.00528192)
(-0.557026 0.20345 0.00486258)
(-0.507063 0.227667 0.00442653)
(-0.455628 0.246244 0.00397762)
(-0.403229 0.25896 0.00352029)
(-0.350433 0.265587 0.00305949)
(-0.29789 0.265884 0.00260088)
(-0.246339 0.259615 0.00215092)
(-0.196614 0.246562 0.00171688)
(-0.149647 0.226558 0.0013069)
(-0.106538 0.199527 0.000930566)
(-0.0684561 0.165559 0.000598091)
(-0.0369431 0.124965 0.000322915)
(-0.0134019 0.0784121 0.000117387)
(-0.000569415 0.0268801 7.07623e-06)
(-0.302964 -2.57905 0.00264369)
(-0.362371 -2.34352 0.00316226)
(-0.421683 -2.16742 0.00367992)
(-0.479287 -2.02397 0.00418271)
(-0.535071 -1.89861 0.0046696)
(-0.58816 -1.7825 0.00513298)
(-0.638006 -1.67128 0.00556807)
(-0.684167 -1.56281 0.005971)
(-0.726355 -1.45627 0.00633925)
(-0.764387 -1.35149 0.00667124)
(-0.798156 -1.24855 0.00696602)
(-0.827607 -1.14769 0.00722311)
(-0.852712 -1.04914 0.00744228)
(-0.873466 -0.953115 0.00762347)
(-0.889873 -0.859795 0.00776675)
(-0.901944 -0.769338 0.00787216)
(-0.909694 -0.681871 0.00793984)
(-0.913142 -0.597507 0.00797)
(-0.912315 -0.516352 0.00796283)
(-0.907242 -0.438507 0.00791862)
(-0.897968 -0.364078 0.00783773)
(-0.884545 -0.293172 0.00772063)
(-0.867041 -0.225906 0.00756792)
(-0.845544 -0.162403 0.00738035)
(-0.820162 -0.102799 0.00715888)
(-0.791024 -0.0472257 0.00690462)
(-0.758285 0.0041743 0.00661893)
(-0.722131 0.0512512 0.00630343)
(-0.682779 0.0938511 0.00596001)
(-0.64049 0.131805 0.00559096)
(-0.595552 0.164952 0.00519878)
(-0.548303 0.193113 0.00478643)
(-0.499136 0.216099 0.00435733)
(-0.448491 0.233711 0.00391532)
(-0.396879 0.245737 0.00346485)
(-0.344864 0.251959 0.00301087)
(-0.293097 0.252146 0.00255904)
(-0.242313 0.246076 0.00211577)
(-0.19334 0.233543 0.0016883)
(-0.147103 0.214397 0.00128468)
(-0.104688 0.188582 0.000914404)
(-0.0672428 0.156211 0.000587491)
(-0.0362779 0.117632 0.000317101)
(-0.01316 0.0735636 0.000115268)
(-0.000560564 0.0250657 6.96137e-06)
(-0.210959 -2.47691 0.00184056)
(-0.281609 -2.24485 0.00245727)
(-0.350613 -2.07024 0.00305954)
(-0.415764 -1.92902 0.00362821)
(-0.478025 -1.80666 0.00417164)
(-0.536541 -1.69435 0.0046824)
(-0.591065 -1.58752 0.00515832)
(-0.641254 -1.48383 0.00559641)
(-0.686939 -1.38231 0.00599519)
(-0.728016 -1.28264 0.00635376)
(-0.764449 -1.18483 0.00667179)
(-0.796238 -1.08906 0.0069493)
(-0.823406 -0.995519 0.00718648)
(-0.845991 -0.904389 0.00738365)
(-0.864032 -0.815839 0.00754118)
(-0.877572 -0.730012 0.00765942)
(-0.886655 -0.647025 0.00773874)
(-0.891325 -0.566985 0.00777955)
(-0.891626 -0.489991 0.00778224)
(-0.887609 -0.416139 0.00774725)
(-0.879332 -0.345529 0.00767506)
(-0.86686 -0.278262 0.00756627)
(-0.850273 -0.214449 0.00742155)
(-0.829664 -0.154206 0.00724174)
(-0.80515 -0.0976628 0.00702784)
(-0.776865 -0.0449451 0.00678102)
(-0.744968 0.00381102 0.00650269)
(-0.709649 0.0484628 0.00619447)
(-0.671127 0.088863 0.00585829)
(-0.629663 0.12485 0.00549645)
(-0.585549 0.156271 0.00511145)
(-0.539122 0.182953 0.00470628)
(-0.490775 0.204716 0.00428434)
(-0.440952 0.221369 0.0038495)
(-0.39016 0.232711 0.00340619)
(-0.338963 0.238532 0.00295935)
(-0.288011 0.238613 0.00251463)
(-0.238034 0.232741 0.00207841)
(-0.189856 0.220728 0.00165787)
(-0.144391 0.202433 0.001261)
(-0.102711 0.177821 0.000897139)
(-0.0659433 0.147028 0.000576138)
(-0.0355629 0.110433 0.000310852)
(-0.0128986 0.0688065 0.000112978)
(-0.000550568 0.0232854 6.83332e-06)
(-0.118704 -2.36726 0.00103525)
(-0.202331 -2.14123 0.00176522)
(-0.280866 -1.96949 0.00245071)
(-0.353781 -1.83147 0.00308714)
(-0.422414 -1.71271 0.0036862)
(-0.486263 -1.60467 0.00424352)
(-0.545323 -1.50256 0.00475903)
(-0.599391 -1.40392 0.00523099)
(-0.648422 -1.30762 0.00565898)
(-0.692397 -1.21323 0.00604284)
(-0.731351 -1.1207 0.00638288)
(-0.765345 -1.03013 0.00667963)
(-0.79445 -0.94168 0.00693372)
(-0.818747 -0.855515 0.00714584)
(-0.838313 -0.771784 0.00731668)
(-0.853222 -0.690622 0.00744687)
(-0.863546 -0.612139 0.00753702)
(-0.869353 -0.536436 0.00758776)
(-0.870709 -0.463609 0.00759966)
(-0.867682 -0.393749 0.0075733)
(-0.860345 -0.326951 0.00750932)
(-0.848775 -0.263312 0.0074084)
(-0.833063 -0.202939 0.00727133)
(-0.81331 -0.145942 0.00709899)
(-0.78964 -0.0924445 0.00689246)
(-0.762192 -0.0425669 0.00665294)
(-0.731128 0.00356071 0.00638188)
(-0.696642 0.0458022 0.00608093)
(-0.658953 0.0840169 0.00575203)
(-0.618326 0.118051 0.00539748)
(-0.575052 0.147757 0.00501982)
(-0.529469 0.172971 0.00462202)
(-0.481971 0.193521 0.00420749)
(-0.433 0.209224 0.00378008)
(-0.383062 0.219889 0.00334423)
(-0.332722 0.225315 0.00290486)
(-0.282624 0.225293 0.0024676)
(-0.233496 0.219623 0.00203879)
(-0.186156 0.208126 0.00162556)
(-0.141506 0.190678 0.00123581)
(-0.100604 0.167257 0.000878737)
(-0.0645548 0.138021 0.000564007)
(-0.0347964 0.103378 0.000304152)
(-0.0126167 0.0641475 0.00011051)
(-0.000539305 0.021542 6.69083e-06)
(-0.0293303 -2.24933 0.00025508)
(-0.126671 -2.03197 0.00110475)
(-0.214321 -1.86503 0.00186982)
(-0.294827 -1.73126 0.00257253)
(-0.369444 -1.61683 0.00322382)
(-0.438299 -1.51354 0.00382484)
(-0.501555 -1.41652 0.00437698)
(-0.559199 -1.3232 0.00488015)
(-0.611295 -1.23233 0.0053349)
(-0.657916 -1.14339 0.00574186)
(-0.699165 -1.05626 0.00610194)
(-0.73516 -0.970995 0.00641616)
(-0.766021 -0.887719 0.00668557)
(-0.791868 -0.806578 0.00691122)
(-0.812813 -0.727711 0.0070941)
(-0.828962 -0.651243 0.00723511)
(-0.840412 -0.57728 0.0073351)
(-0.847256 -0.505922 0.00739489)
(-0.849578 -0.43726 0.00741522)
(-0.847465 -0.371384 0.00739684)
(-0.841002 -0.308386 0.00734049)
(-0.830281 -0.248361 0.00724697)
(-0.815399 -0.191409 0.00711715)
(-0.796468 -0.137638 0.00695197)
(-0.773616 -0.0871668 0.00675258)
(-0.746987 -0.0401094 0.00652022)
(-0.716747 0.0034093 0.00625634)
(-0.683091 0.0432592 0.00596264)
(-0.646241 0.079306 0.00564106)
(-0.606463 0.111403 0.00529392)
(-0.564047 0.13941 0.00492376)
(-0.519332 0.16317 0.00453352)
(-0.472711 0.182519 0.00412664)
(-0.424624 0.197283 0.00370696)
(-0.375577 0.20728 0.00327888)
(-0.326132 0.212318 0.00284733)
(-0.276929 0.212198 0.00241788)
(-0.228694 0.206731 0.00199686)
(-0.182234 0.19575 0.00159132)
(-0.138444 0.179142 0.00120907)
(-0.0983634 0.156899 0.000859168)
(-0.0630744 0.129199 0.000551074)
(-0.0339764 0.0964756 0.000296985)
(-0.0123135 0.0595935 0.000107854)
(-0.000526644 0.0198385 6.53257e-06)
(0.053267 -2.12268 -0.000465954)
(-0.056851 -1.91691 0.000495255)
(-0.152969 -1.75701 0.00133426)
(-0.240364 -1.62861 0.00209711)
(-0.320301 -1.51927 0.00279485)
(-0.393574 -1.42121 0.00343443)
(-0.460498 -1.32962 0.0040186)
(-0.521256 -1.24187 0.00454895)
(-0.576015 -1.15662 0.00502694)
(-0.624929 -1.07329 0.00545392)
(-0.668167 -0.991672 0.00583136)
(-0.705895 -0.911796 0.00616071)
(-0.738277 -0.833759 0.0064434)
(-0.765469 -0.75769 0.00668079)
(-0.787614 -0.683718 0.00687415)
(-0.804847 -0.611962 0.00702462)
(-0.817289 -0.542528 0.00713326)
(-0.825052 -0.475512 0.00720107)
(-0.82824 -0.411006 0.00722896)
(-0.826955 -0.3491 0.00721781)
(-0.821295 -0.289883 0.00716847)
(-0.811362 -0.233448 0.00708183)
(-0.797263 -0.179894 0.00695884)
(-0.779116 -0.129324 0.00680052)
(-0.757055 -0.0818535 0.00660802)
(-0.731227 -0.0375914 0.00638265)
(-0.701802 0.00334239 0.00612588)
(-0.668975 0.0408236 0.00583943)
(-0.632971 0.0747239 0.00552523)
(-0.594054 0.104904 0.00518561)
(-0.552516 0.131229 0.0048231)
(-0.508694 0.153551 0.00444066)
(-0.462979 0.171714 0.00404169)
(-0.415811 0.185552 0.00363002)
(-0.367693 0.194891 0.00321006)
(-0.319183 0.199549 0.00278666)
(-0.27092 0.199338 0.00236541)
(-0.22362 0.194077 0.00195256)
(-0.178086 0.18361 0.0015551)
(-0.135201 0.167837 0.00118074)
(-0.0959857 0.146761 0.000838401)
(-0.0614994 0.120574 0.000537314)
(-0.0331009 0.089736 0.000289333)
(-0.0119879 0.0551517 0.000105002)
(-0.000512437 0.0181778 6.35705e-06)
(0.125382 -1.98761 -0.0010955)
(0.0048741 -1.79671 -4.35651e-05)
(-0.0986494 -1.64595 0.000860097)
(-0.191718 -1.52402 0.00167247)
(-0.276043 -1.42049 0.00240852)
(-0.352905 -1.3281 0.00307943)
(-0.422798 -1.24223 0.00368951)
(-0.48607 -1.16025 0.00424181)
(-0.542976 -1.08077 0.00473855)
(-0.593743 -1.00315 0.00518171)
(-0.63859 -0.927132 0.00557319)
(-0.677726 -0.852707 0.00591483)
(-0.711347 -0.779954 0.00620834)
(-0.739641 -0.708985 0.00645535)
(-0.762779 -0.639922 0.00665737)
(-0.780916 -0.572882 0.00681573)
(-0.794195 -0.507971 0.00693168)
(-0.802746 -0.445284 0.00700637)
(-0.806689 -0.384915 0.00704085)
(-0.806138 -0.326954 0.00703611)
(-0.801204 -0.271491 0.0069931)
(-0.791996 -0.218617 0.0069128)
(-0.778631 -0.16843 0.0067962)
(-0.76123 -0.12103 0.00664439)
(-0.739932 -0.0765289 0.00645856)
(-0.714888 -0.0350321 0.00624003)
(-0.686269 0.00334548 0.0059903)
(-0.654272 0.038485 0.00571108)
(-0.619121 0.0702641 0.00540433)
(-0.581081 0.0985499 0.00507236)
(-0.540441 0.123215 0.00471769)
(-0.497538 0.144119 0.00434328)
(-0.452762 0.161112 0.0039525)
(-0.406549 0.174038 0.00354917)
(-0.359399 0.182731 0.00313765)
(-0.311868 0.187019 0.0027228)
(-0.264587 0.186723 0.00231012)
(-0.218269 0.181673 0.00190584)
(-0.173707 0.17172 0.00151686)
(-0.131772 0.156775 0.0011508)
(-0.0934675 0.136852 0.000816406)
(-0.0598272 0.112158 0.000522706)
(-0.0321682 0.0831687 0.00028118)
(-0.0116388 0.0508293 0.000101945)
(-0.000496526 0.0165633 6.16268e-06)
(0.184391 -1.84573 -0.00161067)
(0.0565258 -1.67272 -0.00049444)
(-0.052768 -1.53274 0.00045959)
(-0.14995 -1.41826 0.00130788)
(-0.2375 -1.32112 0.00207209)
(-0.316941 -1.23473 0.00276551)
(-0.388967 -1.15479 0.00339421)
(-0.454041 -1.07872 0.00396224)
(-0.512492 -1.00511 0.00447246)
(-0.564598 -0.933252 0.00492731)
(-0.610615 -0.86288 0.00532901)
(-0.650783 -0.793936 0.00567965)
(-0.685324 -0.726481 0.00598119)
(-0.714447 -0.660615 0.00623544)
(-0.738342 -0.596456 0.00644408)
(-0.757185 -0.534118 0.0066086)
(-0.771133 -0.473708 0.00673038)
(-0.780329 -0.415324 0.00681071)
(-0.784908 -0.35906 0.00685074)
(-0.784993 -0.30501 0.00685154)
(-0.780702 -0.253263 0.00681415)
(-0.772155 -0.203912 0.00673961)
(-0.759471 -0.157054 0.00662897)
(-0.742778 -0.112786 0.00648333)
(-0.722217 -0.0712177 0.00630393)
(-0.69794 -0.0324509 0.0060921)
(-0.67012 0.00340411 0.00584934)
(-0.638955 0.0362334 0.00557738)
(-0.604667 0.0659205 0.00527816)
(-0.56752 0.0923392 0.00495399)
(-0.527802 0.115369 0.00460737)
(-0.485848 0.134875 0.00424123)
(-0.442045 0.150718 0.00385894)
(-0.396825 0.162748 0.00346428)
(-0.350685 0.17081 0.00306158)
(-0.304176 0.174739 0.00265564)
(-0.257924 0.174366 0.00225195)
(-0.212635 0.169529 0.00185664)
(-0.169092 0.16009 0.00147656)
(-0.128154 0.145968 0.00111921)
(-0.0908058 0.127186 0.00079316)
(-0.0580555 0.10396 0.000507227)
(-0.0311763 0.0767836 0.000272512)
(-0.0112653 0.0466338 9.86733e-05)
(-0.000478739 0.0149982 5.94776e-06)
(0.22906 -1.69989 -0.00200067)
(0.0968604 -1.54676 -0.000846518)
(-0.0161136 -1.4186 0.000139635)
(-0.115731 -1.3123 0.00100919)
(-0.205197 -1.2219 0.00179012)
(-0.286109 -1.14172 0.00249639)
(-0.359347 -1.06782 0.00313568)
(-0.425441 -0.997719 0.00371261)
(-0.484772 -0.929994 0.00423052)
(-0.537652 -0.863921 0.00469211)
(-0.584358 -0.799189 0.00509983)
(-0.625148 -0.735714 0.0054559)
(-0.660259 -0.673538 0.00576241)
(-0.689913 -0.612752 0.0060213)
(-0.714315 -0.553466 0.00623436)
(-0.73365 -0.495795 0.00640317)
(-0.748087 -0.439846 0.00652923)
(-0.757779 -0.385722 0.00661389)
(-0.762868 -0.333519 0.00665836)
(-0.763485 -0.283333 0.00666381)
(-0.759756 -0.235255 0.00663132)
(-0.751802 -0.189381 0.00656196)
(-0.739749 -0.145804 0.00645682)
(-0.723726 -0.104624 0.00631703)
(-0.703875 -0.0659451 0.00614383)
(-0.680351 -0.029867 0.00593857)
(-0.653326 0.00350403 0.00570274)
(-0.622996 0.0340593 0.00543807)
(-0.589583 0.0616877 0.00514649)
(-0.553348 0.0862697 0.00483028)
(-0.514579 0.107691 0.00449193)
(-0.473605 0.125824 0.00413436)
(-0.430811 0.140538 0.00376088)
(-0.386625 0.151692 0.00337523)
(-0.341539 0.159137 0.00298173)
(-0.296098 0.162718 0.00258512)
(-0.250923 0.162276 0.00219083)
(-0.206711 0.157658 0.00180492)
(-0.164236 0.148733 0.00143416)
(-0.124344 0.135428 0.00108593)
(-0.0879982 0.117773 0.000768637)
(-0.0561821 0.0959923 0.000490861)
(-0.0301238 0.0705908 0.000263313)
(-0.0108664 0.0425731 9.51795e-05)
(-0.000458891 0.0134862 5.71045e-06)
(0.259207 -1.55344 -0.00226389)
(0.125495 -1.42074 -0.00109646)
(0.0110935 -1.30484 -9.78431e-05)
(-0.0893123 -1.20711 0.000778597)
(-0.179344 -1.12364 0.00156447)
(-0.260602 -1.04974 0.00227376)
(-0.334099 -0.981885 0.00291531)
(-0.400399 -0.917716 0.00349404)
(-0.459917 -0.855838 0.00401357)
(-0.512976 -0.795497 0.00447674)
(-0.559864 -0.736351 0.00488604)
(-0.600843 -0.678292 0.00524377)
(-0.636157 -0.621341 0.00555204)
(-0.666031 -0.565577 0.00581285)
(-0.690676 -0.511107 0.00602803)
(-0.710281 -0.458045 0.00619921)
(-0.725022 -0.406499 0.00632791)
(-0.735055 -0.356574 0.00641554)
(-0.740527 -0.308372 0.00646336)
(-0.741573 -0.261991 0.00647255)
(-0.73832 -0.217525 0.00644422)
(-0.730895 -0.17507 0.00637947)
(-0.719422 -0.134721 0.0062794)
(-0.704033 -0.0965753 0.00614513)
(-0.684869 -0.0607359 0.00597793)
(-0.662085 -0.0272997 0.00577912)
(-0.635851 0.00363146 0.00555021)
(-0.606363 0.0319534 0.00529289)
(-0.57384 0.0575607 0.00500907)
(-0.53854 0.0803401 0.00470102)
(-0.500747 0.100183 0.0043712)
(-0.460789 0.116972 0.00402248)
(-0.419043 0.13058 0.00365815)
(-0.375935 0.140877 0.00328191)
(-0.331949 0.147722 0.00289801)
(-0.287626 0.15097 0.00251116)
(-0.243578 0.150468 0.0021267)
(-0.200494 0.146072 0.00175064)
(-0.159137 0.137662 0.00138964)
(-0.120338 0.125168 0.00105095)
(-0.0850424 0.108627 0.000742822)
(-0.0542054 0.0882664 0.000473592)
(-0.0290093 0.0646005 0.000253571)
(-0.0104411 0.0386551 9.14552e-05)
(-0.000436785 0.0120309 5.44884e-06)
(0.275467 -1.40959 -0.00240587)
(0.142802 -1.29646 -0.00124751)
(0.029096 -1.19274 -0.000254963)
(-0.0705702 -1.10364 0.00061502)
(-0.159867 -1.0271 0.00139448)
(-0.240384 -0.959433 0.0020973)
(-0.313203 -0.897534 0.00273293)
(-0.3789 -0.839196 0.0033064)
(-0.437908 -0.783052 0.00382148)
(-0.490547 -0.728335 0.00428098)
(-0.537103 -0.674673 0.00468738)
(-0.577832 -0.62193 0.00504293)
(-0.612975 -0.57011 0.00534971)
(-0.642753 -0.519281 0.00560968)
(-0.667374 -0.469541 0.00582464)
(-0.687025 -0.421005 0.00599622)
(-0.701882 -0.373781 0.00612594)
(-0.712102 -0.327979 0.0062152)
(-0.71783 -0.283703 0.00626526)
(-0.719202 -0.241054 0.00627729)
(-0.716344 -0.20013 0.00625241)
(-0.709383 -0.161027 0.00619171)
(-0.698443 -0.123842 0.00609628)
(-0.683654 -0.0886713 0.00596726)
(-0.665156 -0.0556149 0.00580587)
(-0.643102 -0.0247674 0.00561343)
(-0.617661 0.00377319 0.00539143)
(-0.589024 0.0299075 0.00514154)
(-0.557409 0.0535354 0.00486564)
(-0.523069 0.0745501 0.00456597)
(-0.486285 0.0928499 0.00424495)
(-0.447379 0.108323 0.00390542)
(-0.406725 0.120853 0.00355062)
(-0.364741 0.130315 0.00318419)
(-0.321905 0.136578 0.00281033)
(-0.278751 0.139505 0.00243368)
(-0.235883 0.138953 0.00205951)
(-0.193979 0.134786 0.00169375)
(-0.153791 0.126889 0.00134295)
(-0.116136 0.1152 0.00101425)
(-0.0819372 0.0997585 0.000715702)
(-0.052124 0.0807938 0.00045541)
(-0.0278315 0.0588229 0.000243278)
(-0.00998867 0.0348878 8.74929e-05)
(-0.000412213 0.010636 5.16091e-06)
(0.279106 -1.27082 -0.00243765)
(0.149681 -1.17541 -0.00130753)
(0.0384809 -1.08338 -0.000336853)
(-0.0590803 -1.00274 0.000514755)
(-0.146453 -0.932992 0.00127742)
(-0.225217 -0.871419 0.00196494)
(-0.29647 -0.81531 0.0025869)
(-0.360792 -0.762629 0.00314836)
(-0.418615 -0.712048 0.0036531)
(-0.47025 -0.662791 0.00410383)
(-0.51597 -0.61446 0.00450294)
(-0.556019 -0.566894 0.00485254)
(-0.590622 -0.520074 0.00515462)
(-0.619992 -0.474055 0.00541102)
(-0.644326 -0.428932 0.00562348)
(-0.663804 -0.384813 0.00579355)
(-0.678595 -0.341811 0.00592269)
(-0.68885 -0.300035 0.00601225)
(-0.694711 -0.259594 0.00606347)
(-0.696309 -0.220591 0.00607747)
(-0.693768 -0.183128 0.00605536)
(-0.687211 -0.147301 0.00599818)
(-0.67676 -0.113207 0.00590702)
(-0.66254 -0.080943 0.00578297)
(-0.644691 -0.0506061 0.00562724)
(-0.623361 -0.022288 0.00544112)
(-0.598716 0.00391681 0.00522606)
(-0.570944 0.0279139 0.00498372)
(-0.540258 0.0496085 0.00471593)
(-0.506907 0.0689003 0.00442489)
(-0.471168 0.0856937 0.00411299)
(-0.433356 0.0998847 0.003783)
(-0.393839 0.111363 0.00343812)
(-0.353028 0.120015 0.00308194)
(-0.311396 0.125716 0.00271858)
(-0.269464 0.128337 0.0023526)
(-0.22783 0.127745 0.00198921)
(-0.187161 0.123812 0.00163423)
(-0.148195 0.116428 0.0012941)
(-0.111735 0.105538 0.000975821)
(-0.0786819 0.0911807 0.00068727)
(-0.0499376 0.0735857 0.000436309)
(-0.0265898 0.0532683 0.000232426)
(-0.00950837 0.0312794 8.32867e-05)
(-0.000384958 0.00930569 4.84458e-06)
(0.271718 -1.13866 -0.00237314)
(0.147289 -1.05874 -0.00128661)
(0.0400617 -0.977634 -0.000350614)
(-0.054203 -0.905117 0.000472216)
(-0.138597 -0.841952 0.00120888)
(-0.214695 -0.786259 0.00187312)
(-0.283567 -0.735714 0.0024743)
(-0.345796 -0.688462 0.0030175)
(-0.401803 -0.643221 0.00350638)
(-0.451883 -0.599213 0.00394354)
(-0.49629 -0.556014 0.00433119)
(-0.535248 -0.513441 0.00467126)
(-0.568962 -0.471453 0.00496558)
(-0.597626 -0.430091 0.00521582)
(-0.621422 -0.389441 0.00542358)
(-0.640517 -0.349608 0.0055903)
(-0.655067 -0.310704 0.00571734)
(-0.665215 -0.27284 0.00580597)
(-0.671092 -0.236128 0.00585732)
(-0.672823 -0.200672 0.00587249)
(-0.670527 -0.166575 0.0058525)
(-0.664318 -0.133937 0.00579836)
(-0.654315 -0.102854 0.00571111)
(-0.64064 -0.0734206 0.00559181)
(-0.623426 -0.0457325 0.00544162)
(-0.602818 -0.0198786 0.0052618)
(-0.578976 0.00405081 0.00505376)
(-0.552086 0.0259661 0.00481911)
(-0.522354 0.0457778 0.00455965)
(-0.490025 0.0633922 0.00427753)
(-0.455369 0.07872 0.00397508)
(-0.418696 0.0916644 0.00365503)
(-0.380366 0.102123 0.00332051)
(-0.340783 0.10999 0.00297504)
(-0.300409 0.115149 0.00262267)
(-0.259759 0.11748 0.00226787)
(-0.219417 0.116859 0.00191576)
(-0.180039 0.113164 0.00157204)
(-0.14235 0.106294 0.00124306)
(-0.107136 0.0961942 0.00093566)
(-0.0752769 0.0829059 0.000657531)
(-0.0476462 0.0666537 0.000416291)
(-0.0252841 0.0479469 0.000221014)
(-0.00899968 0.0278381 7.88319e-05)
(-0.0003548 0.00804388 4.49778e-06)
(0.254981 -1.01388 -0.00222699)
(0.136891 -0.947228 -0.0011958)
(0.034807 -0.876202 -0.000304704)
(-0.0551371 -0.811391 0.000480409)
(-0.135639 -0.754533 0.0011831)
(-0.208261 -0.704455 0.00181701)
(-0.274028 -0.659206 0.00239107)
(-0.33352 -0.617109 0.00291038)
(-0.387141 -0.57694 0.00337843)
(-0.435166 -0.537925 0.00379766)
(-0.477825 -0.499621 0.00417004)
(-0.515315 -0.46182 0.0044973)
(-0.547816 -0.424461 0.00478103)
(-0.575501 -0.38757 0.00502272)
(-0.598528 -0.351224 0.00522377)
(-0.617046 -0.315521 0.00538545)
(-0.631195 -0.280572 0.00550898)
(-0.641102 -0.24649 0.00559551)
(-0.646888 -0.213384 0.00564606)
(-0.648667 -0.181362 0.00566164)
(-0.646547 -0.150529 0.0056432)
(-0.640638 -0.120982 0.00559168)
(-0.631049 -0.0928195 0.00550804)
(-0.617897 -0.0661332 0.0053933)
(-0.601309 -0.0410166 0.00524857)
(-0.581425 -0.0175552 0.00507507)
(-0.558399 0.00416476 0.00487414)
(-0.532411 0.0240585 0.00464737)
(-0.503663 0.0420424 0.0043965)
(-0.472393 0.0580288 0.00412361)
(-0.438864 0.071935 0.003831)
(-0.403379 0.0836712 0.00352132)
(-0.366289 0.0931433 0.00319763)
(-0.32799 0.100252 0.00286337)
(-0.288935 0.104892 0.0025225)
(-0.249626 0.10695 0.00217941)
(-0.210637 0.106309 0.00183911)
(-0.17261 0.102858 0.00150718)
(-0.136254 0.0964992 0.00118983)
(-0.10234 0.0871824 0.000893779)
(-0.0717236 0.0749463 0.000626497)
(-0.045251 0.0600089 0.000395367)
(-0.0239146 0.0428689 0.000209045)
(-0.00846232 0.024572 7.41261e-05)
(-0.000321516 0.00685476 4.11846e-06)
(0.230615 -0.896763 -0.00201424)
(0.119853 -0.84142 -0.00104703)
(0.0238347 -0.77963 -0.000208882)
(-0.0609331 -0.722076 0.000531047)
(-0.136776 -0.671212 0.00119307)
(-0.205234 -0.62645 0.00179063)
(-0.267275 -0.586192 0.00233217)
(-0.323476 -0.54894 0.00282275)
(-0.374217 -0.513539 0.00326566)
(-0.419752 -0.479224 0.00366314)
(-0.46028 -0.445541 0.00401693)
(-0.495971 -0.412259 0.00432849)
(-0.526976 -0.379297 0.00459915)
(-0.553437 -0.346665 0.00483016)
(-0.575489 -0.314428 0.00502269)
(-0.593256 -0.282679 0.00517782)
(-0.606859 -0.251524 0.00529658)
(-0.616407 -0.221074 0.00537997)
(-0.622006 -0.191439 0.00542889)
(-0.623756 -0.162727 0.00544422)