/*--------------------------------*- C++ -*----------------------------------*\
| =========                 |                                                 |
| \\      /  F ield         | OpenFOAM: The Open Source CFD Toolbox           |
|  \\    /   O peration     | Version:  v2006                                 |
|   \\  /    A nd           | Website:  www.openfoam.com                      |
|    \\/     M anipulation  |                                                 |
\*---------------------------------------------------------------------------*/
FoamFile
{
    version     2.0;
    format      ascii;
    class       volScalarField;
    location    "0.02";
    object      p_rgh;
}
// * * * * * * * * * * * * * * * * * * * * * * * * * * * * * * * * * * * * * //

dimensions      [1 -1 -2 0 0 0 0];


internalField   nonuniform List<scalar> 
3596
(
100734
100744
100741
100682
100678
100679
100745
100558
100740
100450
101257
100687
100962
88114.5
100513
100739
119760
100760
100744
100738
100674
100801
100721
100696
100706
100951
100643
100875
101398
100859
100728
100750
101004
100735
100612
100659
100621
100616
100741
100741
100751
100732
100618
100737
100602
100724
100605
100607
100614
100683
100685
100746
100689
100687
100497
100751
100586
100794
100538
100838
100736
100720
100838
100993
100677
100714
100631
100693
100782
100447
100657
100777
100776
89355.1
127411
100298
92857.4
100290
100790
120916
100644
100507
100620
100353
100595
100884
100704
100979
100940
100730
98944.5
100812
100760
100624
100739
100736
100635
100732
100713
100732
100732
100578
100675
100824
100689
100731
100686
100726
100500
100695
100697
100704
100692
100731
100734
100734
100727
100724
100709
100595
100590
99600.8
100682
100720
100629
100718
100588
100516
100660
100504
100505
100592
100570
100303
100174
101181
99856.5
99736.1
100747
100725
100699
100617
100581
99719.3
100820
99876.1
125901
100865
100918
100743
100742
100756
100738
100733
100716
101221
100823
99969.4
100744
100684
100742
100742
100744
100743
100691
100735
100727
100728
100730
100721
100729
100724
100678
100765
100429
100740
100379
100319
100733
100629
100718
100672
100711
100655
100699
100572
100736
100577
100743
101099
98471.7
92924.1
101227
100701
100557
100929
103823
100699
100710
134224
100758
100724
100713
101034
96886.6
100927
101312
100709
101063
101231
100784
100510
101038
100606
100730
100720
100751
100701
100721
100745
100745
100749
100749
100723
100731
100730
100658
100604
100732
100722
100820
100726
100646
100726
100729
100726
100730
100732
100737
100707
100705
100704
100732
100710
100704
100736
100394
100344
100619
100755
100351
100848
100775
100768
100623
100629
100761
100632
100683
100614
100619
100735
100771
100691
100694
100676
100720
98880.3
101912
100541
100548
100795
100797
100627
100690
101670
100724
100685
100747
100748
100715
100729
100734
100673
100717
100698
100703
100607
100621
100623
100732
100750
100402
100383
100546
100711
100385
100349
100737
100670
100721
100782
100736
101200
100673
100611
100754
100741
100889
100716
100832
100533
100792
100833
100654
100726
100655
100661
100658
100660
100530
100541
100533
100731
100725
100731
100742
100731
100907
100743
100736
100713
100667
100636
100690
100692
100737
100697
100757
100696
100696
100691
99880.6
100611
100636
100801
101016
100727
100713
100644
100694
100737
100477
100730
100746
100725
100693
100687
100700
100731
100734
100782
100652
100825
100519
100898
100843
100740
100657
100698
100702
100688
100657
100332
100752
100363
100353
100363
100337
100727
100762
100956
100769
100738
100723
100731
100751
100731
100735
100734
100702
100697
100650
100682
100736
100698
100715
100734
100544
100725
100668
100589
100624
100195
102300
99895.8
100853
100736
100697
100802
100787
100726
100731
100739
100736
100619
100613
100623
100759
100632
100811
100783
100758
100797
100633
100606
100757
100742
100702
100747
100743
100740
100669
100885
100677
100753
100883
100976
100747
100947
100926
100762
100942
100666
100628
100708
100740
100728
100730
100686
100720
91216
100825
100870
100845
100857
100852
91464.1
100694
100718
100703
100387
100463
100424
100517
100740
100765
100751
100736
100717
100747
100680
100677
100710
100760
100718
100716
100724
100763
100726
100749
100774
100797
100923
100637
100793
100694
125582
100742
100642
100648
100684
100747
101055
100689
100722
100737
100659
100654
100652
100853
100766
100712
100820
100740
100731
100717
100716
100751
100750
100733
100745
100707
100700
100688
100826
100580
100305
100362
100522
100748
100353
100739
100741
100509
100795
100686
100822
100026
100693
100620
100916
100680
100682
124881
87648.8
100766
100851
100702
99592.3
93543.1
100854
100788
100808
100736
100715
100761
94823.5
100658
100592
100833
101038
100646
100741
100739
100737
100742
100763
100740
100744
100650
100641
100647
100640
100700
100743
100722
100670
100779
100707
100718
100635
100651
100709
100713
100702
100699
100694
100753
100693
100731
100743
100735
100736
100697
100698
100745
100696
100695
100692
100712
100619
100749
100697
100695
100697
100697
100743
100813
100651
100649
126436
100752
100881
102763
100804
100788
100705
100702
100755
100757
100752
100717
100699
100701
100689
100691
100681
100712
100710
100710
100710
100786
100712
100710
100755
100734
100617
100638
100602
100628
100713
100711
100708
100710
100708
100707
100643
100570
100566
100572
100741
100570
100573
100575
100702
100387
100716
100718
100717
100431
100523
100688
100734
91715.5
100752
100786
100781
100871
100738
100787
100434
100787
100575
100720
91425.3
100762
100734
100721
100739
100744
99697.2
100706
100723
100744
100621
100679
100680
100368
100585
100637
100622
100654
100825
100788
100820
100671
100814
100532
100539
100709
94004.7
100742
100692
100772
100787
100753
100799
100738
100748
100709
128381
100746
100733
100715
100730
100710
100746
100698
100714
100477
100577
100595
100598
100779
100607
100543
100740
100733
100726
100724
100715
100725
100734
100745
100750
100723
100823
100855
100904
100972
100655
100761
100723
100799
100846
100745
93148.4
100707
100720
100752
100721
100636
100576
100637
100808
100717
100791
100701
100797
100796
100801
100820
100753
100772
100781
100909
100718
100723
100728
100848
100720
100723
100717
100907
100719
100720
100703
100665
100716
100716
100719
100774
100703
100931
100543
100641
100889
100939
100616
100644
100634
100631
100661
100613
100739
100741
100673
100669
100701
100730
100726
100660
100771
86891.8
100655
100703
100740
100732
100732
100702
100731
100708
100708
100718
100715
100710
100732
100641
100709
100751
95061.1
100741
100562
100761
100779
100744
100691
100646
100636
100793
100714
100306
100291
100664
100655
100651
100729
100719
100721
100727
100716
100719
100542
100541
100730
100730
100686
100682
100638
100702
100661
100691
100748
100813
126031
100685
100683
101001
100743
100743
100768
100741
100762
100740
100729
100745
100772
100687
100685
100749
100641
100724
100588
100771
100743
100905
100777
100731
100743
100731
100739
100747
100677
100657
100663
100656
100666
100915
100712
100626
100817
100675
87672.3
100724
100838
100926
100648
100937
100554
100660
92953.3
100659
100956
100721
100727
100710
100725
100694
100704
100709
100697
100713
100394
100412
100392
100395
100737
100735
100742
100736
100730
100412
100738
100748
100719
100512
100517
100690
100663
100676
100625
100780
137716
100076
100586
101195
100750
100590
119508
100754
100755
100717
100852
100706
88121.1
100804
100912
101196
100024
100852
100845
100758
100694
100740
100740
100764
100726
100735
100713
100721
100745
100728
100774
100520
100688
100580
100547
100640
100300
101025
99719.8
100689
100638
100298
100682
100746
100758
100531
100740
100724
100733
100730
100734
100734
100729
100693
100856
100693
100696
100691
100691
100606
100592
100603
100588
100729
100528
100907
100698
100740
100733
100735
100733
100741
100734
100748
100731
100817
100757
100679
100754
100740
100733
100731
100617
100734
100668
100621
100738
100563
100725
100736
100878
100633
100658
100600
100579
100492
100564
100582
100599
100565
100718
100728
100552
100751
99897.9
100554
100923
100790
100725
100720
100566
100576
100581
101047
100951
100757
100701
100696
100825
100784
100769
100763
100750
100718
100720
100742
100737
100723
100754
100720
100491
100627
100643
100664
100654
100671
100749
100765
100744
100727
100729
100727
100727
100728
100774
100690
100762
100753
100594
100756
100508
100731
100671
100751
100731
100441
100748
94048.7
100615
100628
100835
100970
100735
100769
100745
100879
100748
100740
100854
100748
100724
100708
100708
100692
100647
100645
100677
100683
100679
100684
100683
100700
100705
100712
100708
100699
100594
100690
100753
100633
100631
100732
100705
100762
129922
100766
100757
100809
88860.6
100617
100757
100870
100614
100681
100742
100730
100714
100636
100757
100734
100743
100761
100701
100578
100743
100617
100671
100640
100548
100673
100390
100625
100695
100692
100694
100560
100874
100799
100964
100951
100784
100652
100753
100745
100735
100737
100735
100728
100734
100841
100692
100739
100686
100726
100676
100753
100745
100712
100689
100850
100876
100742
100733
100676
100735
100852
100337
100812
100862
100291
100431
100783
100563
100807
100755
100921
100730
100698
100698
100710
100715
100713
100766
100760
100739
100787
100720
100758
100730
100704
100600
100733
100601
100716
100693
100735
100722
100718
100719
100640
100710
100731
100724
100726
100722
100792
100729
100725
100840
100849
100749
100673
100710
100763
100813
100732
100854
100717
100684
100668
100669
100661
100653
100741
100732
100728
100736
100674
100726
100686
100727
100649
100751
100669
100673
100760
100767
100711
100708
98533.2
100181
100758
100734
100730
100832
100700
100821
100796
87903.6
100703
100787
100772
100726
100711
100717
100714
100713
100760
100744
100606
100620
100645
100326
100445
100868
100710
100712
100713
100713
125492
100609
94222
100717
101058
100673
100739
100723
100722
100737
100541
100739
100773
100897
100676
100681
100815
100736
100690
100696
100707
100662
100883
100672
100778
100747
100745
100725
100736
100738
100704
100706
100651
100732
100743
100609
100366
100754
100741
100719
100703
100707
100633
100702
100760
100741
100720
100732
100738
100706
100691
100710
100737
100683
100742
100612
100387
100417
100427
100424
100744
92830.5
100988
100678
100715
100871
100743
100742
100113
100731
100735
100947
100787
100788
100726
100743
100716
100702
100584
100583
100703
100699
100744
95461
100720
100733
100610
100724
100730
100871
100731
100605
100574
100585
100653
100532
100619
100657
100822
100698
100716
100408
100736
100726
100733
100730
100833
100722
100731
100726
100736
100734
100674
100721
100727
100707
100710
100758
100739
100728
100737
100702
100697
100698
100696
100638
100792
100628
100626
100630
100626
100625
100349
100739
100862
100122
100429
100433
100371
100451
100819
100719
100739
101028
100443
100674
100426
100713
100704
100648
100716
100714
100704
100606
100722
100542
100695
100690
100977
100742
101007
100706
100704
100708
100478
100414
100374
100742
100749
100788
100711
100700
100728
100639
100431
100640
120288
100741
100793
100719
97632.5
100783
133047
105145
100732
100619
100711
100685
100802
100680
100727
100753
100739
100733
100741
100705
100721
88212.3
100659
100520
100784
100769
100720
100742
100741
100717
100660
100716
100679
100541
100546
100533
100717
100904
100794
100717
100730
100734
100736
100666
100718
100708
100770
100675
100684
100677
100726
100792
100719
100723
100704
100715
100495
100692
100729
100740
100551
100521
100733
100742
126510
100655
100622
119886
98391.8
100813
100752
100802
93018.2
100132
99792.2
100809
100686
100719
100733
100727
100731
100732
100737
100727
100731
100738
100739
100695
100686
100652
100649
100373
100257
100308
100357
100714
100715
100713
100698
100695
100711
100698
100708
100414
100474
100771
100969
100775
100762
92488.6
100869
100804
100735
91668.3
99972.5
100654
100785
100765
100720
100753
100727
100887
100745
100745
100754
100865
100827
97388.8
97825.9
100731
100975
100734
100694
100764
100736
100738
100704
100717
100701
100632
100434
100739
100735
100741
100740
100739
100740
100825
100654
100730
100737
100724
100715
100665
100856
100719
100518
100662
100509
100523
100773
100733
100814
100718
100514
100670
100965
99540.5
100723
100782
100879
100708
100709
100682
100820
99576.1
100712
100777
100769
100743
100738
100740
100579
100741
100450
100769
100703
100739
100642
100643
100681
100391
100370
100811
100755
100738
100634
100703
100792
100742
100736
100733
100725
100427
100709
100480
100750
100469
100466
100704
100462
100659
100922
100876
100740
100971
100740
100781
100749
100873
100740
100741
100744
101095
100749
100747
100740
100750
100705
100714
100740
100730
91703.9
100682
100740
100710
100777
100660
100601
100740
100745
127080
87900.9
100748
100689
100716
100709
100718
100732
100767
100567
100771
100536
100559
100722
100507
100686
100688
100684
100682
100653
100804
100689
100641
100826
100718
100690
100906
100677
101002
100403
100746
100762
100639
100670
100716
100742
100692
100617
100487
100773
100621
100472
100780
100730
100733
100742
100742
100599
100717
100645
100711
100708
100826
100677
100645
100518
100647
100634
100590
100695
100661
100627
100820
100746
100738
100821
100769
100832
100829
100809
100799
100662
100673
100679
100289
100855
100836
100771
100822
100679
100704
100718
100715
100641
100645
100678
100688
100657
100760
100749
100638
100651
100702
100669
100772
100668
100684
100694
100675
100560
100461
100494
100528
100849
100837
100858
100877
100851
100852
100788
100821
100733
100817
100730
100674
100639
100790
100764
100724
100757
100560
100794
100749
100579
100689
100689
100690
100697
100986
100656
100849
100743
100610
100859
100615
100822
100705
100602
100703
100707
100311
100731
100739
100734
99171.3
100676
100733
100724
101053
100654
100779
100827
100623
100563
100502
100413
100704
100711
100711
100704
100709
100706
100369
100486
100804
100491
100440
100432
100769
100461
100770
100764
107304
101115
100649
100640
100653
100780
97501.5
100653
100920
100740
100652
100763
100643
100631
100795
100728
100726
100714
100739
100748
100708
100682
100807
100714
100696
100693
100680
100679
100632
100632
100721
100532
100581
100410
100786
100574
100791
100748
100739
100750
100748
100745
100736
100798
100747
100672
100639
100749
100767
100770
100764
100707
101002
100742
100737
100734
100738
100738
100737
100688
100697
100699
100699
100697
100327
100525
100785
100370
100873
100303
100789
100837
100881
100845
100867
100697
100691
100787
100738
100739
100740
100667
100628
100683
100666
100685
100666
100683
100597
142128
100658
100678
100683
100805
100775
91633.6
100750
100635
100644
100656
100663
100770
100659
100740
100733
100724
100482
100550
100747
100744
101021
100721
100714
100740
100717
100714
100714
100721
100688
100751
100740
100719
100722
100749
100708
100726
100687
100715
100701
100642
100587
100301
100696
100669
100709
100714
100826
100820
100851
100720
100784
100716
100720
100705
100845
100724
100726
100711
100819
100832
100736
100726
100797
100479
100715
100699
100710
100704
100737
100747
100745
100737
100708
100720
100712
100722
100700
100697
100714
100710
100701
100582
100408
100310
100679
100705
100707
100710
100744
100718
100851
100738
101066
100718
100787
100791
100790
98524.1
100796
100572
100564
100554
100660
100821
100738
100700
100724
100716
100716
100557
100742
100741
100746
100737
100744
100738
100737
100712
100630
100873
100652
100692
100743
100687
100730
100736
92822.3
100739
100745
100744
100721
100735
100831
100741
100748
100748
100838
100742
100581
100596
100713
100697
100676
100790
100663
100665
100643
100477
91399.2
100503
82892.3
100700
100870
100709
100809
100782
100752
100811
100732
100715
100773
100724
100353
100673
100635
100661
100780
100819
100627
100626
100585
100700
100697
100708
100711
100674
100713
100736
100674
100711
100737
100740
100733
100629
100791
100723
100495
100632
100511
100768
100735
100795
100629
100665
100758
100735
100548
100461
100679
100674
100733
100724
100722
100719
100722
100737
100738
100733
100832
100779
100771
100788
100688
100911
100743
100631
100726
100729
100635
100491
100572
100647
100500
100736
100724
100724
100756
100731
100723
100666
100758
100752
100719
100731
100728
130539
100723
100737
100715
100709
97903.6
100729
100746
100741
100751
100560
100758
100752
100753
100756
100753
100602
100777
100555
100568
100670
100616
100623
100634
100730
100730
100717
100738
100729
100734
100709
100716
100703
100316
100753
100485
100561
100013
100682
100663
125278
100757
100744
100631
100709
100714
100714
100721
100725
100731
100730
100730
100732
100729
100666
100544
100576
100693
100694
100491
100526
100672
100654
100656
100729
100460
100486
100586
100716
100694
100708
100699
100850
100729
100733
100734
100731
100721
100748
100747
100821
100614
100742
100760
100739
100616
100616
100700
100646
100733
100732
100669
100621
100601
100733
100613
100642
100660
100654
100848
100663
100847
100611
100803
100740
100729
100718
100730
100687
100694
100702
100705
100300
100713
100685
100698
100695
100737
100306
100705
100716
100601
123360
100736
100740
100696
100763
100728
100720
100608
100593
100825
100852
100775
100562
100607
100651
100667
100671
100652
100646
100713
100713
100593
100597
100745
100723
100742
100720
100774
100786
100718
100724
100673
100708
100699
100735
100829
100735
100734
100734
100715
100665
100662
100660
100665
101092
100661
100663
100770
100731
100728
100736
100716
100732
100755
100688
100674
100755
100712
100753
100676
100633
100756
100746
100742
100748
100738
97964
100709
100743
100727
100722
100734
100829
100627
101215
100715
100711
100717
127723
100724
100741
100623
100332
90962.6
100821
99619.3
86688.4
100667
100869
98487.5
100856
98280.8
100726
100850
100820
100840
100831
100838
100698
100829
100773
100762
100712
100708
100785
100706
100687
100745
100737
100732
100732
100714
100703
100694
100690
100751
100452
100731
100738
100446
100740
99892.1
91415
100715
100723
100723
100720
100709
100710
100600
100788
100731
100740
100618
100628
100632
100623
100646
100633
100796
94052.9
96158.1
100349
100710
100718
100654
100677
100772
100737
100722
100857
100728
100719
100737
100739
100659
100740
100674
100681
100701
100702
100706
100656
100722
100731
100732
100738
93852.3
100398
100402
100525
100718
100691
100536
100518
100464
100746
100689
100684
100733
100744
100679
100868
100710
123766
100754
100715
100724
99870.1
100801
100765
100699
100718
100664
100670
100673
100409
100666
100735
100372
100715
100718
100712
100705
100718
100808
100738
100770
100724
100730
100730
100724
100728
100226
100739
100751
100763
100773
100783
100902
100722
100949
100787
100724
100726
100759
100833
100708
100669
100708
100674
100704
100704
100718
100725
134047
100729
100733
100736
100770
100981
100765
100798
100768
100692
100725
100805
100720
100722
100533
100649
100685
100672
100712
100681
100652
100698
100739
100772
100706
100456
100782
100765
100380
100553
100541
100451
100550
100683
100661
100674
100737
100734
100734
100755
100703
100735
100632
100402
100414
100398
100659
100646
100395
100648
100762
100713
100712
100654
100724
100693
101115
100692
100696
100721
100654
100741
100663
100973
100717
100659
100669
100670
100715
100725
100718
100575
100730
100701
100694
100693
100577
100786
100591
100724
100522
100340
100771
100767
100762
100703
100702
100680
100657
100650
100656
100705
100706
100666
100638
100700
101073
100704
100639
100931
100944
100830
101013
100389
100518
100592
100478
100484
100863
100656
100644
100435
100711
100711
100625
100663
100626
100507
100728
100615
100654
100668
100797
100797
100799
100723
100784
93516.1
134399
100760
100769
100767
100766
100716
100714
100714
100715
100731
121994
100761
100776
100596
100772
100613
100733
100894
100725
100777
100601
100783
100819
100722
100721
100720
100817
100717
100702
100713
100707
100716
100779
100719
100774
100724
100713
100732
100735
100727
100670
100723
100779
100746
100745
100744
100718
100719
100720
100704
119352
100727
100728
100726
100724
100721
100722
100720
100687
100669
100674
100674
100628
100311
100543
100358
100550
100547
100768
100779
100730
100767
100765
100794
100766
123425
100784
100760
100479
130457
126996
100450
100471
100627
100599
100463
102614
100714
100738
100727
100720
100725
100735
100674
100695
100591
100741
100793
100797
100794
100823
100623
100777
100736
100733
100721
100730
100740
100727
100702
100705
100718
100704
100724
100731
100638
100453
100508
100630
100728
100719
100674
100728
100725
100714
100734
100728
100340
100700
100726
100723
100748
100748
100749
100747
100721
100674
100638
100689
100692
100670
100667
100693
100667
91774.8
100665
99873.5
100668
100666
100608
100872
100846
100811
87461.7
100711
99755.5
132221
93560.7
101003
100527
100720
100744
100722
100736
100742
100714
100690
100669
100654
100674
100650
100670
100466
100676
100745
100744
100735
100736
100712
100656
100586
100650
100529
100527
100490
100542
100699
100700
100556
100694
100697
100631
100706
100728
100726
100702
100718
100558
100720
100738
100737
100714
100714
100335
100297
100274
100493
100483
100471
100476
100725
100720
100729
100733
100729
100727
100724
100727
100721
100714
100793
100803
100564
100580
100608
100429
100799
100796
100407
100769
100772
100709
100811
100797
100961
100691
100670
100666
100666
100720
100715
100677
100723
100727
100732
100733
100662
100703
100706
100702
100667
100728
100620
100616
100384
100324
100742
100739
100737
100736
100770
100329
100767
100642
100327
100440
100585
131815
100559
100728
100735
122570
129517
87077
100562
97680.5
102931
100816
93305.4
100731
100753
99898.2
94194.8
100623
100996
100901
100927
127048
95324.5
100770
101116
101162
100639
100737
100736
100734
100744
100709
100737
100608
100434
100480
100730
100737
100696
100744
100746
100716
100733
100775
100646
100869
100664
100721
100656
100721
100721
100718
100527
99455.8
100972
100781
100769
100715
100715
100732
100753
100693
100722
100715
100653
100634
100712
100735
100704
100708
100709
100638
101064
100851
99001.5
100522
100733
100395
100422
100419
100449
100741
100736
100723
100835
101124
100711
100689
100780
100758
100727
100735
100664
100744
100718
100722
100717
100700
100717
100657
100501
100544
100515
100505
100527
100583
100821
100658
100709
100687
100666
100757
100756
100718
100800
100751
100808
100720
100722
100718
100717
100727
100720
100738
100725
100702
100727
100582
100726
100750
100553
100725
100735
100723
100722
100737
100729
100689
100864
100824
100692
100691
100752
100779
100754
100764
100761
100730
100713
100693
100749
100748
100743
100747
100896
100736
100725
100668
100740
100642
100678
100648
100668
99894.7
101407
100093
94202
98327.9
92250.4
99961.1
95725.3
101182
100781
100791
100726
100737
100730
100728
100695
100802
100731
100713
100583
100610
100745
100720
100724
100907
101058
100617
86299.4
100728
100619
100638
100631
100741
100740
100715
100716
100731
100758
100773
100739
100755
100770
100739
100728
100731
100724
100692
100739
100669
100657
100692
100689
100729
100682
100727
100542
100592
101123
100727
100683
100684
100740
101146
100678
100678
99766.7
100539
100735
126664
119963
92094.4
91679.7
100714
100721
100706
100766
100710
100714
93470.5
98068.2
100515
100516
100704
100693
100717
100720
100713
100784
100717
100292
100872
100648
100859
100757
100797
100685
100662
100676
100671
100685
100692
100681
100569
100573
100585
100757
100760
100731
100737
100688
100658
100704
100890
100674
100668
100753
100756
100649
100611
100595
100589
100644
100807
100745
100702
100920
100752
100729
100423
100325
100725
100684
100722
100767
100754
100709
100720
100745
100788
100888
100797
100693
100889
100732
100468
100726
100342
100563
100509
100463
100465
100767
100730
100687
100626
100679
100632
100754
100743
100744
100723
100688
100714
100712
100682
100753
100759
100739
100738
100736
100737
100755
100765
100708
100772
100751
100707
100672
100766
100645
100647
100673
100641
100777
100765
100424
126753
134424
100763
100452
100633
100724
100449
119965
100725
87524.3
100680
100696
100700
100696
100726
100762
100754
100746
100728
100700
100466
100750
100698
100704
100704
100683
100660
100688
100530
100606
100556
100661
100628
100521
100508
100758
100666
100731
100652
100735
100793
100873
100693
100722
100726
100734
100846
100833
100873
100728
100605
100612
100748
100853
87749.5
100765
100851
100738
100742
100734
100686
100737
100748
100729
100572
100633
100762
100603
100673
100590
100712
100726
100713
100720
100718
100728
100736
100686
100706
100564
100691
100548
100727
100743
100737
100735
100650
100668
100662
100654
100690
100715
100649
100715
100712
100749
100494
100465
100749
100751
101068
100678
101092
101046
100960
100951
100726
100752
100740
100742
100686
100669
100695
100706
100704
100647
100638
100669
100645
100714
100651
100447
100722
100723
100724
100432
100572
100537
100553
100553
100746
100498
100758
100872
97607.9
100541
100685
100751
100749
100697
100745
100688
100747
100741
100739
100737
100681
100654
100715
100645
100772
100716
100787
100715
100597
100790
100859
100899
100720
99598.6
100815
100726
100725
100839
100046
100997
100901
100742
100741
100741
100740
100715
100729
100852
100493
100722
100717
100717
100481
100482
100745
100481
100302
100744
100738
100746
100730
100724
100724
100723
100722
100677
100672
100737
100755
100754
100743
100746
100678
100673
100683
100680
100682
100678
100674
100754
100751
100658
100738
100533
100444
100287
100714
100708
100635
100637
100468
100462
100368
100438
100360
100332
100749
88083.6
119423
100778
100781
100762
100772
100703
100725
100717
100723
100722
100644
100501
100485
100500
120398
100743
100744
100745
100730
100708
100698
100728
100724
100676
100713
100715
100717
100458
100838
100873
100731
100863
100764
100756
102502
100705
100709
100746
100752
100749
100750
100751
100749
95583.4
100244
100745
100841
100667
100621
100618
100634
100739
100742
100738
100742
100707
100688
100713
100744
100603
100709
100713
100721
87948.6
100747
100737
93434.3
100845
129001
100998
100970
100880
100945
100779
100563
100599
)
;

boundaryField
{
    Inlet
    {
        type            prghTotalPressure;
        p0              nonuniform List<scalar> 0();
        value           nonuniform List<scalar> 0();
    }
    Outlet
    {
        type            fixedValue;
        value           nonuniform List<scalar> 0();
    }
    Symmetric
    {
        type            symmetry;
    }
    Wall
    {
        type            fixedFluxPressure;
        gradient        uniform 0;
        value           nonuniform List<scalar> 
213
(
100613
100654
100682
100702
100717
100725
100731
100734
100729
100726
100722
100718
100712
100707
100701
100693
100681
100669
100653
100637
100617
100593
100563
100519
100466
100398
100311
100631
100673
100701
100721
100728
100740
100731
100731
100737
100743
100737
100727
100718
100706
100698
100691
100686
100674
100666
100650
100631
100605
100562
100533
100482
100417
100335
100659
100635
100651
100690
100669
100682
100712
100693
100704
100728
100710
100717
100736
100720
100724
100742
100729
100742
100746
100733
100742
100743
100733
100745
100739
100728
100731
100736
100726
100728
100731
100720
100722
100725
100716
100726
100718
100709
100718
100713
100705
100709
100704
100696
100703
100694
100686
100681
100682
100674
100670
100667
100661
100658
100651
100646
100646
100632
100628
100628
100611
100606
100605
100582
100580
100580
100542
100541
100532
100494
100494
100486
100433
100434
100424
100353
100358
100344
100257
100631
100668
100654
100694
100688
100712
100712
100738
100727
100730
100732
100742
100737
100743
100730
100729
100732
100731
100744
100726
100741
100729
100735
100710
100718
100714
100715
100706
100702
100699
100695
100689
100691
100677
100680
100654
100669
100638
100659
100617
100641
100589
100619
100564
100584
100513
100548
100458
100509
100387
100452
100297
100379
100638
100677
100702
100720
100732
100740
100744
100744
100740
100737
100732
100728
100722
100716
100708
100700
100688
100674
100659
100642
100622
100597
100562
100520
100465
100395
100305
)
;
    }
    procBoundary3to1
    {
        type            processor;
        value           nonuniform List<scalar> 
32
(
101164
100615
100609
101251
99286.2
100651
100615
100618
100831
100930
100966
100616
100625
100786
100854
100707
126489
100609
101038
100998
100763
96011.2
100616
101041
100636
101102
100616
101134
100602
100691
101082
101086
)
;
    }
    procBoundary3to2
    {
        type            processor;
        value           nonuniform List<scalar> 
34
(
100284
100282
93780.5
100788
100635
100274
100819
95237.2
100860
100841
100283
100262
100274
100708
100344
100302
100262
100859
100290
100380
100471
100250
100851
100830
100471
100320
101061
100687
100551
100830
100408
100274
100803
100271
)
;
    }
}


// ************************************************************************* //
