/*--------------------------------*- C++ -*----------------------------------*\
| =========                 |                                                 |
| \\      /  F ield         | OpenFOAM: The Open Source CFD Toolbox           |
|  \\    /   O peration     | Version:  v2006                                 |
|   \\  /    A nd           | Website:  www.openfoam.com                      |
|    \\/     M anipulation  |                                                 |
\*---------------------------------------------------------------------------*/
FoamFile
{
    version     2.0;
    format      ascii;
    class       surfaceScalarField;
    location    "0.02";
    object      phi;
}
// * * * * * * * * * * * * * * * * * * * * * * * * * * * * * * * * * * * * * //

dimensions      [0 3 -1 0 0 0 0];
oriented        oriented;


internalField   nonuniform List<scalar> 
5881
(
7.04577e-10
-4.48295e-08
4.41249e-08
-1.61902e-09
1.62165e-09
-6.38276e-08
6.38249e-08
6.17312e-08
-6.33502e-08
-2.08472e-09
-4.67248e-08
4.88095e-08
2.35456e-09
3.95589e-08
-4.19135e-08
4.43122e-08
2.98828e-09
-4.49459e-08
-1.69114e-08
5.92322e-08
-4.23209e-08
9.51421e-10
-2.39448e-08
2.29934e-08
-5.4944e-08
6.45987e-08
-6.48878e-08
5.52331e-08
1.01463e-09
-2.2047e-08
2.16819e-08
-6.49442e-10
1.56795e-06
-1.53504e-06
-3.29112e-08
-5.61333e-08
1.28862e-08
4.3247e-08
2.02202e-08
1.64082e-08
-3.66284e-08
-1.81312e-06
1.81312e-06
2.81583e-09
-2.76677e-09
-4.90672e-11
5.78792e-08
-5.75125e-08
-3.66754e-10
-1.80743e-06
-5.68534e-09
1.17036e-08
3.41244e-08
-4.5828e-08
2.67234e-08
-3.82442e-08
1.15208e-08
2.35832e-08
5.67788e-09
-2.92611e-08
4.29157e-09
-4.29156e-09
-1.89885e-08
-3.63841e-08
5.53726e-08
-1.06732e-08
-2.83694e-08
1.09586e-08
2.80839e-08
-1.05243e-09
-5.23155e-08
5.1973e-08
1.39496e-09
4.64421e-09
-4.64421e-09
4.4969e-08
-7.22927e-10
-4.42461e-08
-7.44848e-09
9.93148e-08
-9.18663e-08
3.28873e-08
-2.54944e-08
3.75762e-08
-1.57385e-06
1.60674e-06
1.19266e-09
2.02765e-08
-2.2192e-08
3.95165e-08
-4.43006e-10
-3.90735e-08
9.81295e-09
3.53349e-08
-4.51479e-08
-2.43018e-08
6.19747e-10
-7.53348e-11
-1.85097e-08
1.79652e-08
4.40551e-08
-9.4308e-11
1.29125e-10
-5.92565e-09
5.79652e-09
3.97162e-08
4.33896e-09
5.15819e-08
-4.49394e-10
-4.51887e-08
4.65786e-08
-1.38987e-09
7.67291e-08
-7.8361e-08
1.63193e-09
4.92658e-09
6.34121e-08
-6.83387e-08
4.42526e-08
-1.15055e-08
1.33803e-08
-4.61274e-08
6.49777e-09
-6.34018e-09
2.46276e-08
-2.47851e-08
-1.46858e-10
-3.84694e-10
-4.4996e-08
4.55276e-08
-2.43469e-08
2.57304e-08
2.33569e-08
-2.47404e-08
3.28724e-08
-3.48146e-08
1.9422e-09
3.11967e-09
-3.11967e-09
3.33164e-08
-3.46488e-08
1.33246e-09
-1.8953e-08
2.54507e-08
-2.78248e-10
-1.57077e-08
1.60926e-08
-1.06645e-10
-3.44434e-08
3.16971e-08
3.33625e-08
-3.06162e-08
2.00795e-08
-1.00471e-09
2.79021e-10
-1.93538e-08
4.24034e-09
-4.51858e-09
3.59624e-08
3.00691e-08
-3.33097e-08
-3.27218e-08
-3.04089e-09
1.64046e-08
3.63176e-09
-1.69955e-08
-3.09933e-08
3.13538e-08
-3.60477e-10
1.08632e-08
-1.52363e-08
4.37304e-09
1.63709e-08
-3.83803e-08
3.55527e-08
-1.35433e-08
1.0173e-11
-1.11719e-08
1.13456e-08
-1.83867e-10
-1.85913e-09
-3.5332e-08
3.71912e-08
6.34335e-08
3.30893e-09
-2.46017e-09
-6.42822e-08
2.91674e-08
-4.15912e-08
1.24238e-08
-2.9922e-08
5.88362e-08
-2.89142e-08
-1.38058e-08
-5.25276e-08
2.37814e-08
4.25522e-08
6.12465e-08
-6.43951e-08
3.14859e-09
5.37693e-08
-5.3686e-08
-1.80077e-08
1.79244e-08
2.74069e-09
-2.7407e-09
-2.34777e-09
4.37155e-08
-4.13677e-08
-8.48178e-09
3.61796e-08
-3.74168e-08
9.71893e-09
5.56511e-11
1.14884e-08
2.87804e-10
-1.18319e-08
-3.31132e-08
4.07681e-09
2.90364e-08
3.19822e-08
-3.53457e-08
3.3635e-09
1.12743e-08
2.17729e-08
-3.30472e-08
2.02381e-06
-2.02381e-06
-7.14744e-09
2.07533e-06
-2.06819e-06
-3.19909e-08
-5.08441e-07
5.33285e-07
1.22441e-06
-1.2564e-06
5.23968e-07
-5.13605e-07
-1.03627e-08
-3.94585e-08
-4.30121e-09
4.37597e-08
-7.88237e-09
-1.85556e-06
1.86344e-06
-6.80714e-11
2.62629e-08
-2.61949e-08
3.42434e-09
-9.99933e-09
6.57499e-09
3.12365e-08
3.79679e-08
-3.71117e-08
-3.20927e-08
-1.50981e-10
3.39743e-09
-3.24644e-09
-3.20223e-08
2.21267e-09
-1.61667e-09
3.14263e-08
-3.55294e-08
2.50794e-08
1.045e-08
3.57461e-09
-2.52916e-08
2.1717e-08
-3.12577e-08
-4.26817e-09
3.55259e-08
-4.46387e-08
3.97126e-08
-2.63316e-08
4.48973e-08
-6.44745e-10
4.49101e-07
-1.49293e-09
-4.47608e-07
-3.97165e-08
3.22291e-08
7.4875e-09
-3.29906e-08
5.00406e-09
2.79865e-08
2.33664e-08
-1.21901e-08
-1.11763e-08
4.80178e-11
2.01781e-08
-1.46531e-10
-1.65049e-09
-6.30452e-08
6.46957e-08
-2.65563e-08
2.44751e-08
2.08114e-09
-5.00232e-11
4.15959e-10
1.77127e-08
-1.80786e-08
-1.72792e-08
1.1438e-11
-7.65078e-11
1.73443e-08
-5.55628e-09
-5.69491e-12
5.56198e-09
-5.09222e-08
2.88929e-08
2.20293e-08
2.52048e-08
-8.95269e-10
-2.43095e-08
4.30097e-09
5.89998e-11
-4.35997e-09
-1.92793e-08
-4.21649e-08
2.37639e-08
3.76803e-08
-3.14298e-08
-7.51346e-09
3.89432e-08
-9.87201e-10
1.63417e-09
-6.31777e-08
6.25307e-08
2.18605e-08
-3.77947e-11
-2.18367e-08
1.40139e-11
2.82685e-08
-2.81822e-08
-8.6326e-11
-6.22867e-09
-4.01304e-09
1.02417e-08
9.11085e-09
8.96714e-08
-9.87822e-08
-1.85977e-10
6.02329e-09
-5.83731e-09
-4.58003e-08
4.60391e-08
-4.985e-10
2.59721e-10
-8.78366e-08
1.22513e-09
8.66115e-08
1.79332e-10
-2.08887e-10
-4.91929e-08
4.92225e-08
3.96091e-08
-4.06138e-08
4.49098e-10
3.71901e-08
-3.76392e-08
3.58573e-08
-7.5888e-09
3.85293e-08
-6.29186e-09
4.82137e-08
6.65845e-09
-4.85803e-08
2.6581e-08
2.43592e-08
-2.76971e-08
-2.3243e-08
2.56208e-08
9.60179e-10
5.70678e-07
-5.5846e-07
-1.22189e-08
1.03737e-11
4.2906e-09
1.52563e-09
4.98505e-08
-5.13762e-08
-3.91358e-08
3.69723e-08
2.16341e-09
-5.01823e-08
7.37116e-08
-2.35293e-08
-2.37243e-08
2.66933e-08
2.26519e-08
-8.70388e-11
2.90287e-09
3.43401e-08
-3.46738e-08
-2.2595e-09
2.5932e-09
1.13137e-08
-2.7548e-10
-1.11253e-08
7.03038e-11
1.10109e-08
2.32473e-10
6.34821e-10
2.09817e-09
2.31066e-08
-1.04118e-08
1.0315e-08
-1.30917e-08
-1.17994e-08
6.06472e-07
-5.94672e-07
1.43928e-06
-3.1425e-08
-1.40785e-06
-1.37723e-08
-5.83241e-07
5.97013e-07
1.41317e-06
-1.39774e-06
-2.91974e-08
1.00278e-07
-7.99052e-08
-2.03733e-08
-3.96249e-09
-5.68243e-08
6.07868e-08
-4.56647e-09
4.37998e-09
1.86486e-10
5.70117e-11
2.68368e-09
1.61164e-08
-8.28129e-09
-7.83513e-09
-1.56428e-08
-6.64988e-07
6.80631e-07
2.53866e-08
-2.65587e-08
-1.93799e-08
2.0552e-08
-1.54816e-06
1.34832e-08
1.5549e-06
-1.89078e-08
-1.70002e-06
1.71893e-06
-4.39391e-08
4.05795e-08
3.35947e-09
2.2383e-08
9.65363e-09
-3.20366e-08
8.59589e-09
-3.14978e-08
2.8598e-08
-5.69605e-09
-2.43947e-08
-6.3836e-08
9.13342e-09
5.47025e-08
-1.33498e-08
1.56785e-08
5.83885e-09
-2.8706e-10
-5.55178e-09
5.27809e-09
-5.2781e-09
1.4836e-06
-1.45123e-06
-3.23669e-08
5.0437e-08
-2.0754e-08
-2.96829e-08
1.49536e-06
1.06275e-08
-1.9139e-08
7.42859e-08
-5.51468e-08
-8.43283e-08
-1.91693e-09
8.62453e-08
4.87972e-09
1.45457e-10
-5.02517e-09
-1.42165e-09
-7.09771e-08
7.23988e-08
1.86098e-09
6.94043e-08
-7.12653e-08
-1.95334e-08
5.23266e-08
-3.27932e-08
3.0488e-10
1.33268e-10
1.64812e-08
-1.69194e-08
-5.52351e-08
-4.87592e-08
5.40139e-08
4.99805e-08
-5.53237e-08
5.58635e-10
5.4765e-08
-5.46107e-08
-5.40343e-08
5.33213e-08
-5.03457e-08
-1.65103e-08
6.6856e-08
-1.71483e-08
-5.78712e-10
1.75434e-08
1.83671e-10
-5.56186e-08
3.83462e-10
5.66962e-08
1.89297e-09
-5.7288e-08
-1.30117e-09
4.08596e-09
3.93802e-08
-4.34662e-08
5.90931e-10
-3.72058e-08
3.66148e-08
2.35046e-09
2.17425e-09
-4.52472e-09
3.35187e-08
-4.04634e-08
6.94468e-09
3.09183e-09
-3.09182e-09
-9.13873e-10
2.18351e-08
-2.09212e-08
-2.2299e-08
3.98888e-08
-1.75898e-08
7.29574e-09
2.9902e-08
-3.71977e-08
-5.03442e-09
9.59663e-11
4.93846e-09
-4.17469e-08
3.64292e-09
3.8104e-08
-1.51686e-10
-4.88273e-09
-1.72139e-08
-1.20418e-08
1.84925e-08
1.07633e-08
-4.72316e-09
4.67321e-09
4.99382e-11
-6.60095e-09
5.95587e-09
7.31525e-09
-6.67016e-09
7.11951e-08
-7.12837e-08
8.85393e-11
-3.78108e-09
3.1105e-10
3.47004e-09
-5.46142e-09
5.46142e-09
4.30438e-08
-5.67732e-08
1.37293e-08
-2.71316e-08
7.50272e-09
5.90307e-07
-1.34527e-06
1.31652e-06
2.87565e-08
-1.55554e-06
1.588e-06
-3.24666e-08
-2.56361e-08
-1.70915e-08
1.72248e-08
2.55028e-08
1.17491e-08
2.68186e-10
-1.20173e-08
-3.11911e-08
-2.29166e-08
5.41077e-08
-1.14645e-08
4.32779e-07
-3.06104e-08
3.82755e-08
-7.66514e-09
-3.81747e-08
5.47301e-09
3.27017e-08
-1.92897e-08
2.0431e-06
3.01313e-09
-4.05803e-08
3.75672e-08
3.72234e-08
-2.79895e-08
-9.23381e-09
3.25789e-08
-6.97863e-09
-2.56003e-08
1.32613e-06
-1.2878e-06
-3.83377e-08
-5.49523e-07
5.30233e-07
-1.06349e-08
1.17152e-08
-4.83627e-08
4.72825e-08
-3.09651e-08
5.40993e-09
-5.82796e-08
-5.59162e-10
5.75798e-08
1.25902e-09
-1.02881e-08
-1.45112e-08
-5.64228e-09
3.04413e-08
1.80832e-08
-2.83713e-08
9.85233e-08
1.83174e-08
-9.69308e-08
-1.99099e-08
2.03723e-08
-2.06478e-08
1.55504e-08
2.20258e-08
-3.61247e-09
9.64643e-11
3.51601e-09
4.87972e-09
-2.27572e-08
-5.17186e-08
7.44757e-08
9.57296e-08
-1.82954e-09
-9.39e-08
7.85417e-08
-8.1453e-08
2.91131e-09
-5.59083e-09
5.5408e-09
-1.09665e-07
3.49057e-08
7.47597e-08
2.60981e-09
-1.10414e-07
6.99461e-08
3.08047e-09
-7.30266e-08
7.25559e-08
5.20076e-08
-5.65836e-08
4.57605e-09
-5.18432e-08
3.45539e-09
-1.9579e-09
-5.9033e-08
5.31193e-08
5.91366e-09
3.64295e-09
-3.66255e-09
1.96074e-11
3.28839e-08
1.72813e-09
-1.2956e-09
-6.32296e-09
6.15755e-09
1.65429e-10
-2.24516e-10
-6.09845e-09
-4.12158e-08
4.88542e-09
3.63304e-08
-6.15755e-09
1.24267e-10
6.03329e-09
-3.72669e-08
3.80496e-08
-7.82672e-10
2.20861e-10
-3.2572e-10
4.38644e-08
-4.37596e-08
6.73637e-08
-3.70062e-10
-6.69937e-08
-6.85406e-08
6.72245e-08
1.3161e-09
2.76654e-09
1.02116e-07
-2.24008e-09
-1.02642e-07
7.48463e-08
2.63948e-09
-7.74858e-08
2.50173e-09
9.1225e-08
-9.37267e-08
5.86931e-08
-5.44615e-08
-4.23163e-09
1.40651e-08
4.4628e-08
3.16794e-08
4.02565e-09
-3.5705e-08
4.86085e-09
-3.2709e-08
3.14317e-08
-3.58358e-09
4.46429e-10
3.1548e-08
-3.15038e-10
3.52561e-08
-3.48097e-08
3.70733e-09
7.36407e-08
1.55398e-08
-1.55074e-08
-3.23915e-11
2.9557e-09
1.36131e-10
-3.2214e-08
4.39074e-09
-3.26374e-09
3.1087e-08
2.22284e-10
2.9341e-08
-2.95633e-08
-2.10312e-08
5.55922e-10
2.04752e-08
-5.06188e-08
2.32297e-08
2.73891e-08
5.52209e-08
-3.56901e-08
-1.95308e-08
1.80542e-08
-1.77895e-08
-5.67636e-08
5.64989e-08
-3.06264e-08
-1.58765e-09
2.95219e-09
-3.35785e-08
-4.12204e-09
-7.77706e-08
8.18927e-08
-3.98907e-08
3.70713e-09
-6.16144e-10
2.22907e-08
-2.96489e-08
-3.16277e-08
3.02581e-08
3.10185e-08
-1.92896e-08
-2.29339e-11
-2.67894e-10
1.95805e-08
-1.62955e-08
-2.35261e-08
3.98216e-08
4.69766e-09
-4.69766e-09
-3.43777e-08
3.45097e-08
-1.32048e-10
4.4389e-08
-1.26867e-08
-3.17024e-08
-1.11914e-06
3.23113e-08
1.08683e-06
-5.22465e-08
1.07647e-06
-1.02422e-06
6.75061e-09
2.24935e-09
-2.93321e-08
3.60827e-08
-4.31379e-08
-1.80591e-08
-2.59934e-08
2.5162e-08
1.88905e-08
3.04379e-10
-1.75183e-08
3.96329e-08
5.68875e-09
-4.53216e-08
-1.61345e-06
-3.35167e-08
1.88241e-08
2.96739e-08
-4.8498e-08
-6.56854e-08
-3.36206e-08
9.93059e-08
7.35586e-08
3.3903e-08
3.32599e-09
7.02326e-08
4.60697e-08
-4.60274e-08
-4.22895e-11
-6.85609e-08
1.65276e-08
5.20333e-08
2.33636e-08
-4.64491e-08
2.30855e-08
-2.16574e-09
2.7209e-09
4.14104e-08
-4.19655e-08
4.8287e-09
2.26356e-11
-4.85134e-09
3.59632e-08
9.55416e-09
-3.66206e-08
-8.89678e-09
4.63096e-08
8.84952e-09
-5.51591e-08
1.52508e-08
-2.24738e-08
7.22304e-09
4.8221e-09
2.34041e-08
-2.82262e-08
-1.83011e-08
-5.78445e-09
2.40855e-08
4.461e-08
-4.47569e-08
-9.99706e-08
6.70314e-08
3.29392e-08
-1.75459e-10
1.22284e-08
5.50349e-10
-1.26033e-08
1.53644e-08
2.427e-08
7.81421e-09
-3.20842e-08
2.00207e-11
2.15399e-08
-2.16681e-08
1.0812e-10
1.45318e-08
-2.30342e-09
-1.51681e-08
1.41975e-08
9.70605e-10
-2.28494e-08
3.25031e-08
1.34519e-08
-3.53458e-08
-1.35479e-08
3.54417e-08
2.10092e-09
5.05681e-08
-5.2669e-08
1.05476e-08
3.40875e-08
-4.46352e-08
-8.04156e-08
3.23729e-09
7.71783e-08
-1.47282e-06
1.50555e-06
-3.27227e-08
1.71323e-08
-2.94341e-08
-3.01807e-08
2.93587e-08
3.74911e-09
-2.92715e-09
-3.36066e-08
3.80654e-09
2.99289e-08
-1.28874e-10
6.19049e-08
-6.12758e-08
-6.2912e-10
-1.19752e-08
1.27841e-08
4.31914e-08
-4.40003e-08
-5.03064e-08
-1.63689e-08
1.58284e-08
5.08469e-08
-1.62125e-08
-4.94748e-08
6.56874e-08
5.40417e-10
-2.35337e-10
-2.21947e-08
2.18896e-08
-4.83397e-08
-1.83474e-08
6.66871e-08
4.1678e-08
-6.39724e-08
2.22945e-08
4.79734e-10
-3.51194e-08
2.47118e-10
3.43925e-08
-4.31499e-09
4.3315e-09
-1.65113e-11
3.79632e-08
-3.74834e-08
2.27989e-08
-1.24777e-08
-2.83212e-08
1.80001e-08
-3.3079e-08
3.22998e-08
3.8603e-09
-3.69393e-08
-2.39693e-08
2.45097e-08
8.72448e-10
-5.7168e-10
5.40223e-09
1.03657e-08
-4.7427e-09
-1.10252e-08
1.93847e-08
2.18676e-10
-1.92599e-08
-3.43472e-10
3.28149e-08
-3.12097e-08
-3.35951e-08
3.199e-08
-5.5294e-09
5.42742e-09
1.01981e-10
-5.15874e-09
5.20676e-09
-1.8281e-08
4.28371e-08
-2.45561e-08
3.57039e-08
-6.03384e-08
2.46345e-08
-7.49049e-08
1.96445e-09
7.44303e-08
-1.48988e-09
4.45939e-08
1.61455e-11
-4.87345e-08
1.62711e-08
3.24634e-08
2.5141e-09
7.9054e-08
-3.01573e-09
3.78901e-08
-3.48744e-08
1.31192e-10
-4.67046e-08
2.58701e-10
4.72269e-08
-7.80979e-10
-7.58069e-08
2.08629e-08
3.14953e-08
-3.11904e-08
-2.05076e-08
2.01509e-08
-6.8913e-08
6.92697e-08
3.41164e-08
-3.69988e-08
2.60966e-08
1.59789e-08
-4.20755e-08
2.19602e-09
-3.36258e-08
5.38822e-09
-2.8808e-08
-5.39975e-07
5.63395e-07
-5.88699e-09
2.785e-08
-2.1963e-08
-2.06033e-08
-9.41366e-09
3.00169e-08
5.18946e-09
-4.05513e-09
-4.08508e-08
-5.10742e-09
-4.74201e-08
1.16221e-09
-7.7371e-10
-2.36665e-08
2.3278e-08
3.2179e-08
-1.45507e-09
-3.0724e-08
-2.32135e-09
2.6504e-08
7.9964e-09
2.25323e-10
3.38911e-08
7.27775e-08
2.43618e-09
-7.52137e-08
1.58332e-10
-1.10578e-08
1.15091e-08
-6.09603e-10
3.18638e-08
-3.22509e-08
2.22519e-09
-1.8381e-09
3.2656e-08
-7.92157e-10
-3.12731e-08
3.20441e-08
-7.70898e-10
7.99979e-08
1.00927e-08
-8.09797e-08
-4.04212e-08
7.53902e-09
3.28821e-08
-2.7125e-09
3.52439e-09
5.26463e-08
-5.34582e-08
3.86981e-08
2.24001e-08
-6.10982e-08
-8.8528e-09
6.16698e-08
9.41053e-09
-6.22275e-08
-1.497e-08
-8.57413e-08
1.00711e-07
3.77888e-08
-3.75416e-08
-2.52322e-08
3.07575e-09
-3.07575e-09
-7.32984e-08
1.18744e-08
6.1424e-08
-7.96974e-08
7.18404e-08
-6.75974e-08
7.54543e-08
-1.64857e-08
-4.4974e-08
6.14597e-08
-2.04324e-08
-6.91931e-08
8.96255e-08
3.4576e-08
1.38716e-09
-2.30095e-09
2.78508e-09
-5.18436e-08
5.13595e-08
-5.76572e-08
-2.66591e-09
4.18978e-09
-3.14339e-08
-1.67926e-09
-1.442e-08
4.00821e-09
2.63276e-08
2.30613e-08
-4.9389e-08
1.49395e-08
-4.07648e-10
9.39801e-10
-4.20356e-10
-2.11383e-10
1.51373e-08
2.11496e-08
2.41117e-08
-4.52613e-08
6.46889e-08
-3.47146e-08
-6.33927e-08
3.34184e-08
1.74248e-08
3.65678e-08
-3.68044e-08
-1.7188e-08
-1.48977e-08
6.62675e-08
-5.13698e-08
-1.57138e-08
-3.95514e-08
3.87794e-08
-1.46786e-08
-2.65005e-08
2.53333e-08
1.58459e-08
-2.53577e-08
4.8604e-08
-2.32462e-08
8.03046e-11
-3.06936e-08
3.06133e-08
-2.4293e-08
1.27769e-09
-6.18772e-08
-8.86321e-10
6.14859e-08
-6.2803e-08
6.06272e-08
2.17573e-09
-2.44978e-09
4.04092e-08
-3.79594e-08
-7.52472e-10
3.60147e-08
-3.77119e-08
-1.75886e-08
1.84122e-08
-1.61957e-08
1.53721e-08
-3.03824e-08
4.83833e-09
2.55441e-08
6.15253e-08
8.65076e-09
-7.85997e-09
-6.23161e-08
2.93608e-08
3.84152e-09
-2.96277e-08
2.86286e-08
7.32191e-10
-9.16322e-09
1.45655e-08
5.79172e-08
-5.97341e-08
-5.0898e-08
5.27149e-08
-6.13905e-08
8.31348e-08
-2.17442e-08
-2.34823e-10
3.3545e-09
6.06367e-09
-1.84514e-08
1.23877e-08
2.46177e-08
1.48904e-08
-3.67584e-08
-2.74995e-09
-1.03383e-06
1.05845e-06
-2.98258e-08
1.06871e-08
-3.57085e-08
2.31348e-08
1.25737e-08
-6.30604e-08
7.17111e-08
-3.7954e-09
-4.27436e-08
4.6539e-08
-2.72904e-08
4.36613e-08
-3.57722e-08
3.17139e-08
-4.48228e-08
1.31089e-08
-1.81036e-08
-3.62051e-08
5.43087e-08
1.02039e-08
-8.0841e-08
7.06371e-08
2.46372e-09
6.7071e-08
-9.21317e-10
-6.86134e-08
3.37086e-08
-3.33684e-08
3.1337e-08
2.62228e-09
-3.38867e-08
7.60387e-09
6.02676e-08
1.59473e-08
-7.62149e-08
9.65523e-08
9.23575e-09
-7.26475e-09
1.04102e-07
-1.04571e-07
5.02667e-09
-4.55774e-09
-5.60202e-08
1.03929e-07
-4.79091e-08
-1.47982e-08
1.08307e-08
1.51812e-08
-1.12138e-08
-1.13188e-08
8.9631e-08
-1.10139e-07
-6.02881e-08
6.15301e-08
-1.242e-09
-8.17833e-08
8.38433e-08
-2.06003e-09
6.85236e-08
-1.69991e-09
2.56839e-09
-6.93921e-08
-1.5573e-08
1.70161e-08
6.21739e-08
9.56013e-09
2.99761e-08
1.3e-09
-3.12761e-08
-2.23202e-08
-2.59125e-08
4.82327e-08
3.6975e-10
-7.37389e-08
7.33692e-08
-8.87752e-08
9.51521e-08
-6.37694e-09
-2.28342e-08
3.62179e-08
3.04626e-08
-3.07867e-08
-2.07613e-08
2.10854e-08
2.11855e-08
3.21547e-08
-5.33402e-08
-1.93115e-08
4.97742e-08
-4.14684e-08
-1.887e-08
1.18382e-08
-3.6336e-08
-2.053e-08
-4.02499e-08
2.35573e-09
-2.9586e-08
2.72302e-08
-2.45538e-08
2.53444e-08
-7.90546e-10
5.81927e-09
-6.03604e-09
2.16772e-10
4.5162e-09
-4.51619e-09
-4.79906e-10
5.3086e-09
-1.18429e-10
1.88008e-08
-1.85721e-08
-1.10242e-10
3.35569e-09
4.7411e-08
-5.07667e-08
-4.63294e-08
-4.659e-09
5.09885e-08
2.62506e-08
1.38692e-06
1.87997e-08
-3.80791e-08
3.10778e-08
1.05153e-08
-4.15931e-08
-2.06403e-08
-3.88007e-08
2.25078e-08
3.69332e-08
-3.27409e-08
6.38186e-08
3.91716e-08
-2.03719e-08
2.25313e-08
4.40982e-08
-4.54859e-08
1.38763e-09
-4.53839e-08
2.23426e-08
2.30413e-08
1.99494e-08
-2.08361e-08
7.94284e-08
7.77064e-09
-8.41661e-09
7.70349e-10
-1.24396e-10
-1.65809e-10
-3.11005e-09
3.27586e-09
-1.31518e-09
-7.2911e-11
1.38808e-09
3.05883e-09
1.6925e-11
6.66983e-08
-6.34248e-08
-3.27351e-09
7.84382e-08
-7.34046e-08
-5.03362e-09
-6.54692e-08
6.0088e-08
-5.35675e-08
5.89487e-08
-4.40823e-08
4.28403e-08
2.83884e-08
-4.59329e-08
1.75444e-08
-1.58758e-10
-1.92653e-08
1.95508e-08
-1.26698e-10
4.24034e-09
-4.15465e-08
4.76872e-08
-6.14074e-09
3.2663e-09
-2.99648e-09
-2.69814e-10
1.03376e-07
5.61294e-09
-1.0402e-07
-4.96849e-09
-3.0512e-08
-1.97945e-08
-5.16635e-08
3.52946e-08
1.75939e-08
3.24497e-08
-5.00436e-08
3.20866e-08
-3.12068e-08
2.20763e-08
-2.29561e-08
-6.41226e-08
3.86239e-08
2.54986e-08
-5.4737e-08
-4.77169e-09
5.95087e-08
4.54485e-08
-6.50729e-08
1.96244e-08
-1.8972e-08
-4.83561e-08
-6.5913e-09
-3.98887e-09
3.98887e-09
4.34414e-08
-6.24134e-08
-4.7248e-09
2.67934e-10
4.45687e-09
1.67503e-06
-1.93677e-08
-1.65566e-06
3.3011e-08
-5.8037e-09
-2.72073e-08
1.97264e-08
6.31046e-08
-8.2831e-08
7.34093e-08
-7.41153e-08
4.64845e-08
-7.33004e-09
-3.91545e-08
7.10084e-08
-6.99534e-08
1.8147e-08
-1.9202e-08
-1.36628e-06
-3.14645e-08
-3.72531e-09
-4.32699e-08
4.69952e-08
-3.34012e-09
5.53477e-08
5.69508e-09
-3.87379e-11
-5.65634e-09
-7.44654e-08
1.37527e-09
7.30902e-08
1.0561e-09
-5.70457e-10
6.2619e-08
-2.09393e-08
-1.41164e-08
6.35188e-08
-6.43001e-08
-7.15213e-11
-1.72285e-08
-3.71071e-08
-4.73614e-08
4.99732e-08
3.44953e-08
5.00232e-08
-2.6851e-08
-2.31722e-08
5.18141e-09
-5.18141e-09
-2.00342e-08
-1.39264e-09
2.09469e-08
-8.23649e-08
-6.77515e-10
8.10639e-08
1.97855e-09
9.54766e-08
-3.86907e-09
1.1001e-07
-1.45338e-08
8.0049e-08
1.47878e-08
-9.48368e-08
4.7397e-09
-3.25925e-08
-3.14053e-09
1.06805e-09
-4.80148e-08
4.69467e-08
-4.8115e-08
4.90584e-09
4.32091e-08
-1.55214e-10
-4.56958e-09
2.64026e-08
-2.071e-08
3.24596e-09
-3.24596e-09
3.68307e-09
4.10955e-11
-3.72417e-09
-3.32857e-10
2.0965e-08
5.79845e-11
-2.06901e-08
1.49797e-08
-4.61399e-09
-3.24661e-08
-1.96756e-08
1.93427e-08
-1.34486e-09
2.39746e-09
-3.39373e-08
2.90287e-09
-2.09553e-08
3.96669e-08
-1.87117e-08
4.3953e-08
-1.31279e-08
-3.08251e-08
-4.2821e-08
4.04996e-08
-2.09092e-08
1.10324e-08
1.51542e-06
-8.00393e-09
3.41005e-08
-1.27133e-08
-3.01077e-08
-3.38679e-08
1.29587e-08
-4.59433e-08
3.29431e-08
1.30002e-08
-5.73911e-09
6.2803e-09
1.99908e-06
-5.64047e-09
-1.99344e-06
1.99908e-06
1.08354e-07
-1.84943e-08
1.6907e-08
-1.06767e-07
-2.05317e-08
5.2157e-08
-3.16252e-08
-1.7099e-08
-3.95744e-10
1.66907e-10
1.73279e-08
1.57402e-06
-2.17107e-08
-6.95339e-07
6.76431e-07
-3.81256e-08
1.74853e-08
-3.8947e-08
3.79257e-08
-1.99339e-08
1.99083e-08
-1.83204e-08
4.76663e-08
-4.63826e-08
-1.28367e-09
-1.93003e-08
-2.97811e-08
4.90814e-08
6.4482e-08
-8.37366e-08
1.92546e-08
2.09061e-08
-4.99323e-07
4.78417e-07
7.05571e-09
-3.15126e-08
2.44569e-08
1.26574e-08
-1.26057e-08
-2.86507e-10
3.77935e-08
-3.24104e-08
4.01102e-08
-4.54933e-08
1.94694e-08
-6.27569e-08
4.32875e-08
4.11213e-09
3.83969e-12
-4.11597e-09
4.45269e-08
-2.45214e-08
-2.00055e-08
8.95754e-08
-6.93858e-08
-2.01896e-08
-2.14972e-08
-3.44905e-08
5.59877e-08
4.90827e-09
-5.79472e-08
-3.82453e-09
5.68634e-08
7.32593e-08
-8.57045e-09
6.24806e-08
4.21775e-09
6.96263e-08
-3.21032e-10
-6.93052e-08
2.51864e-09
-1.9968e-09
3.49964e-08
-1.07389e-09
-3.39225e-08
1.31204e-08
7.38505e-10
-5.92328e-11
-1.37996e-08
-2.02012e-11
1.33427e-08
-2.02108e-10
5.24711e-08
-4.56412e-08
-6.82991e-09
5.55628e-09
1.388e-10
-1.42843e-08
-2.62373e-08
4.05215e-08
3.50837e-08
-8.90636e-09
1.09153e-08
-3.70926e-08
8.63505e-10
9.7581e-08
-9.84445e-08
-5.00398e-09
2.91151e-08
6.82636e-09
-3.09375e-08
3.52586e-08
2.46775e-10
-3.55054e-08
-5.95273e-09
5.95274e-09
1.78614e-08
-2.75385e-08
2.13808e-08
2.83257e-08
-3.33297e-08
6.70674e-09
3.16685e-08
-3.83753e-08
7.00433e-08
-4.1692e-10
-6.96264e-08
4.71419e-08
-3.08849e-08
-1.6257e-08
3.56988e-08
-3.69061e-08
-1.14047e-09
-4.33722e-09
4.54891e-09
1.09799e-07
4.18332e-08
-6.13437e-09
1.00175e-08
-8.86032e-09
-8.15727e-08
-7.69429e-09
7.89741e-08
-7.12798e-08
-2.80054e-08
-3.61895e-10
-3.64319e-08
3.67938e-08
6.97409e-09
-4.38802e-08
4.67011e-08
7.41491e-09
7.52053e-08
-7.95425e-08
4.55606e-08
1.27528e-09
-8.91264e-10
4.37142e-08
3.47496e-08
7.08358e-09
3.49639e-08
-3.54664e-08
5.02479e-10
2.72343e-09
-2.72344e-09
9.75287e-08
3.60384e-09
-9.78066e-08
4.72297e-08
-5.35941e-08
6.36439e-09
4.66535e-08
-3.21921e-09
-9.05964e-09
2.59728e-08
3.17675e-08
-1.90373e-09
-2.98638e-08
2.42044e-08
-3.89879e-08
-2.33421e-08
1.2327e-10
-6.32081e-11
-1.362e-08
1.38065e-08
-1.78959e-06
-1.78474e-08
-2.20278e-08
4.27336e-08
-2.07058e-08
2.9801e-08
-3.80065e-08
8.20556e-09
-3.32846e-08
2.57038e-08
-4.3763e-08
2.30757e-08
-5.80907e-08
3.5015e-08
-4.41157e-08
5.3435e-08
-9.31931e-09
-4.16154e-09
3.06656e-08
6.93644e-08
7.04288e-08
-6.52781e-08
-7.45151e-08
6.48038e-08
4.56066e-09
3.54367e-09
-1.06258e-07
1.05795e-07
4.42169e-08
-3.15599e-08
3.12778e-08
2.82119e-10
4.63843e-08
4.50386e-08
-4.60463e-08
-4.53766e-08
-1.51897e-09
-4.25861e-08
4.21214e-08
1.98368e-09
4.94182e-08
-5.23628e-08
2.94465e-09
-4.37998e-09
-1.5129e-10
4.53128e-09
6.38253e-08
-3.02382e-09
-6.08015e-08
-2.18477e-09
6.34668e-08
2.5432e-09
5.26773e-08
-2.53674e-09
-5.31644e-08
5.04925e-08
-4.10553e-08
3.33155e-08
1.07529e-08
-6.45715e-08
-5.5043e-08
1.6496e-09
6.83474e-08
-1.9404e-08
-1.88695e-11
-1.52601e-10
1.95755e-08
-3.3052e-08
2.87137e-09
-3.29956e-08
3.26304e-08
-2.65046e-09
1.33466e-09
-2.56816e-08
2.55364e-08
6.611e-10
-2.61975e-08
4.90637e-08
1.76002e-08
-6.66639e-08
4.83435e-08
-3.80922e-09
4.52943e-09
-4.80758e-08
-7.65939e-09
8.21443e-09
4.75207e-08
-4.99456e-09
-4.30812e-08
6.44543e-08
-6.52756e-08
-4.17329e-09
5.67949e-08
-3.30764e-09
3.14209e-09
1.65551e-10
8.8198e-09
-8.45267e-09
2.16517e-08
-2.20188e-08
4.87122e-09
2.67412e-08
-3.16125e-08
-5.09421e-09
-2.20167e-08
2.71109e-08
-5.3062e-09
5.3062e-09
-2.35367e-08
2.33137e-08
-2.62719e-08
2.53906e-08
-4.50309e-09
5.38429e-09
-1.74521e-08
-5.22579e-08
2.1373e-08
2.08898e-08
-2.07983e-08
-9.14446e-11
-4.57765e-08
-5.88695e-09
3.09364e-08
-6.26261e-08
3.16897e-08
2.08293e-09
-1.65847e-09
-1.63811e-08
1.15445e-08
4.83664e-09
4.69566e-09
-2.90803e-09
1.63672e-09
3.89278e-08
-3.02024e-09
-6.58256e-08
6.97372e-08
-3.91166e-09
2.70105e-08
-1.39329e-06
2.73508e-09
2.91832e-08
-3.19182e-08
-1.115e-08
-4.17011e-08
4.04803e-08
1.23709e-08
-1.66075e-08
-5.4141e-08
3.13068e-08
1.97103e-08
6.60934e-11
-1.96309e-08
-1.82544e-08
4.33484e-08
3.11163e-09
-3.11163e-09
-2.68807e-08
2.65255e-08
2.67579e-08
1.09136e-09
-2.4163e-08
2.30717e-08
-2.8964e-08
6.77467e-09
2.87486e-08
-6.55929e-09
-1.45375e-06
2.42803e-08
1.42947e-06
6.65316e-08
-6.19827e-08
6.86627e-08
-6.5387e-08
-3.27568e-09
-7.21113e-08
2.19291e-08
9.21506e-08
3.79473e-09
-9.2708e-08
-5.5294e-09
-1.78194e-08
7.06961e-07
-6.92067e-07
2.92503e-09
4.41312e-09
-7.89997e-08
-4.15148e-09
7.8738e-08
-8.2941e-08
-6.66397e-08
8.10402e-08
9.31598e-08
-1.00928e-09
3.04715e-09
1.70222e-08
-3.95296e-09
-4.20567e-08
4.59613e-09
-4.22493e-08
3.65102e-08
1.73164e-09
-2.85709e-09
3.05077e-09
-1.92533e-09
1.35879e-08
-1.01201e-08
-1.38923e-08
1.69395e-08
-6.06401e-09
-1.92551e-10
6.25658e-09
5.18731e-09
-5.18731e-09
6.03954e-08
2.10573e-08
-8.14527e-08
4.62854e-08
2.04017e-08
-1.89161e-08
5.78079e-08
-3.88918e-08
-1.74444e-10
1.50681e-08
-1.47434e-08
-1.50238e-10
6.03393e-08
-1.88601e-08
2.6522e-09
-2.64202e-09
2.76677e-09
-1.1458e-10
-4.35072e-08
-1.56967e-09
4.50769e-08
-6.02587e-07
1.93461e-08
5.84028e-09
-1.42236e-12
-1.03692e-09
8.10348e-08
2.57118e-08
-2.69572e-08
-1.50501e-08
-8.06965e-08
-8.84689e-08
7.02476e-08
9.89179e-08
-7.71526e-08
5.02197e-09
7.21306e-08
-1.41895e-08
7.44571e-08
-6.28349e-08
5.38098e-09
5.74539e-08
-2.89962e-09
-7.0127e-08
-9.69242e-10
-3.24199e-08
3.28105e-08
-2.12815e-06
2.14548e-06
-1.73295e-08
7.84147e-08
-7.462e-08
4.33287e-08
2.12605e-08
-6.45893e-08
-3.46749e-10
-4.31404e-08
-6.83461e-09
3.56055e-08
-2.87709e-08
4.76545e-08
-3.41586e-08
3.47066e-08
2.06375e-08
4.58858e-09
-4.58858e-09
3.31928e-08
-2.63665e-08
-2.78386e-09
-1.09063e-08
1.36902e-08
3.38322e-09
-2.69199e-08
2.56178e-08
-6.97013e-09
-1.86476e-08
8.29004e-09
-2.10672e-08
-7.49649e-09
2.02736e-08
-6.49454e-08
1.41226e-08
5.08227e-08
-1.56199e-08
2.39099e-08
-2.26563e-08
-1.43594e-09
2.40923e-08
-2.54355e-09
8.95587e-08
2.56022e-09
-6.68283e-08
1.49851e-08
2.52101e-08
-2.65258e-08
4.67313e-08
-2.02055e-08
6.87948e-09
-3.37106e-08
2.68311e-08
-2.63237e-08
-1.17748e-08
2.38142e-08
6.61443e-09
-3.58297e-09
2.78279e-08
-3.08594e-08
-5.14964e-08
2.57091e-08
2.57874e-08
-2.25807e-08
-2.89157e-08
3.22217e-08
-5.24062e-08
2.01844e-08
-6.50695e-09
6.28537e-08
8.98672e-09
2.24523e-08
-2.37143e-08
6.43116e-08
3.33739e-08
4.41964e-09
-8.40586e-08
8.21009e-08
-6.72354e-08
6.41261e-08
-5.73913e-08
-6.73482e-09
7.94405e-08
-8.01524e-08
2.93105e-09
-2.21904e-09
2.45746e-08
2.43589e-08
-4.29306e-08
-2.08673e-08
4.32661e-08
4.48266e-08
-6.85265e-08
2.36998e-08
1.82562e-08
6.53655e-07
-6.71911e-07
-3.16309e-08
-7.15806e-09
3.8789e-08
-4.67885e-08
4.70093e-08
-3.90352e-09
7.59216e-08
-7.20181e-08
4.19349e-08
-4.65593e-08
4.62444e-09
-2.15744e-09
-3.17292e-08
1.83395e-09
-2.91534e-08
2.73194e-08
-2.62144e-08
-3.41837e-10
-6.02082e-09
6.63602e-08
2.70432e-08
-3.99291e-08
1.28859e-08
1.6886e-08
-5.61375e-08
-1.68622e-08
5.61137e-08
-4.07669e-08
1.19237e-08
2.88431e-08
-4.55275e-08
3.8364e-09
-5.99739e-08
-4.77119e-08
8.53962e-08
-8.56614e-08
-3.5829e-08
-7.1847e-08
6.47902e-08
7.05682e-09
4.64237e-08
-1.96899e-08
1.95516e-08
3.48805e-08
-3.45092e-08
-1.92413e-08
2.98172e-08
7.99901e-09
-3.78162e-08
7.98399e-08
-2.20027e-08
2.17743e-08
-7.96115e-08
2.21034e-08
-8.07395e-08
8.23147e-08
-1.57518e-09
4.64393e-08
5.58073e-08
-5.25903e-08
-4.96564e-08
-2.51922e-09
8.23591e-08
2.2075e-08
2.43644e-08
2.32387e-08
9.57618e-09
-2.55204e-08
4.75954e-08
-2.32747e-08
3.96892e-08
-4.64767e-09
-4.99927e-11
3.88881e-08
-9.39317e-10
-3.79488e-08
-2.21058e-08
2.73232e-08
-2.68941e-08
2.16768e-08
3.61496e-09
2.54896e-08
2.81501e-08
8.02043e-08
9.2376e-08
-2.70468e-09
9.13495e-08
5.97128e-09
-2.43284e-10
-5.45982e-09
1.25861e-08
-3.01747e-08
-6.82035e-08
1.53854e-08
-1.49736e-08
6.77919e-08
1.26501e-08
7.86993e-08
1.18579e-08
8.19327e-09
-2.00512e-08
1.31432e-08
3.87902e-09
1.89082e-10
-2.08521e-08
-3.03851e-10
2.09669e-08
-4.92993e-09
5.11902e-09
1.27075e-08
-2.20235e-08
-1.19577e-08
2.12737e-08
1.89789e-08
-1.35297e-10
-1.92283e-08
1.49076e-08
-1.56884e-08
-4.3976e-08
-1.76749e-08
7.39059e-10
1.99119e-09
-2.04052e-08
6.02328e-09
3.59522e-08
3.21006e-10
-5.29354e-09
5.29354e-09
-2.12845e-08
-4.04203e-08
5.84745e-08
1.91924e-06
-1.91924e-06
-1.2212e-10
7.09062e-10
-6.19775e-08
-3.96772e-08
1.89775e-08
2.06996e-08
7.86731e-08
-7.5441e-08
-3.23205e-09
-3.58139e-08
4.06596e-08
3.81126e-08
-4.29583e-08
-5.75525e-09
5.59083e-09
1.64414e-10
-1.82727e-08
-2.13604e-08
3.96332e-08
1.31972e-08
-4.06408e-08
-1.163e-08
9.19375e-08
-2.03512e-09
2.47364e-09
1.64263e-08
2.45429e-08
-4.09692e-08
5.44158e-09
-5.44159e-09
-9.63507e-08
7.4348e-08
-6.36338e-09
2.30159e-08
-1.66525e-08
2.86105e-10
-3.61e-08
9.1287e-09
-2.11705e-08
-1.97845e-08
3.47437e-08
-1.49592e-08
1.19343e-06
3.20855e-08
-1.22551e-06
-1.96808e-08
-3.23991e-09
3.23991e-09
-3.69431e-08
-1.91468e-08
5.60899e-08
8.53054e-09
3.06858e-08
-3.92164e-08
-6.47996e-08
5.90727e-08
5.72687e-09
1.66571e-08
-1.66874e-08
-1.24914e-10
-3.42969e-09
3.36649e-09
-3.59458e-10
2.8077e-10
-2.04182e-08
-1.85289e-08
2.06074e-08
-4.38888e-08
2.32813e-08
1.93473e-08
7.45277e-10
-2.00926e-08
-1.72201e-09
-6.55163e-09
-3.99009e-08
4.64526e-08
1.1024e-10
-2.06786e-08
2.06975e-08
-1.52468e-10
-4.97722e-08
4.99247e-08
-2.09573e-08
-4.31653e-08
-1.23407e-09
4.50037e-09
-3.5807e-08
3.69692e-08
-3.43331e-08
-2.11858e-08
3.45616e-08
6.66137e-11
1.60423e-08
-1.68827e-08
5.34471e-09
-1.80696e-10
2.27664e-08
-2.25857e-08
-3.19244e-09
-6.71801e-11
3.25962e-09
-1.79402e-08
-5.22733e-08
4.36164e-08
-4.68859e-09
-3.80582e-08
-6.92505e-09
3.76532e-08
-3.32784e-09
5.38208e-10
3.47179e-08
-2.15506e-10
2.75316e-08
-2.73161e-08
2.41945e-09
-1.78431e-09
4.8783e-08
-2.32575e-08
2.70044e-08
-2.40764e-08
-2.94955e-08
3.03609e-08
2.32109e-08
-1.74471e-06
1.76296e-06
5.55825e-09
-4.45803e-08
-4.4015e-09
4.89817e-08
-7.24015e-08
5.74814e-08
1.492e-08
-1.63308e-08
-6.43998e-08
6.38192e-08
4.09434e-08
-5.72741e-08
-2.67734e-08
-5.07251e-08
2.58864e-08
5.16121e-08
5.89159e-08
-1.79725e-08
1.95988e-08
5.82212e-08
-7.782e-08
-6.55966e-08
1.86216e-08
4.6975e-08
-1.45204e-10
1.00219e-07
-6.75503e-08
-3.26685e-08
4.51674e-08
-4.81876e-08
-4.10148e-09
-1.83914e-09
3.14209e-09
-7.0574e-08
6.98588e-08
-5.74422e-09
6.45946e-09
2.8062e-08
-1.18676e-09
-2.85064e-08