/*--------------------------------*- C++ -*----------------------------------*\
| =========                 |                                                 |
| \\      /  F ield         | OpenFOAM: The Open Source CFD Toolbox           |
|  \\    /   O peration     | Version:  v2012                                 |
|   \\  /    A nd           | Website:  www.openfoam.com                      |
|    \\/     M anipulation  |                                                 |
\*---------------------------------------------------------------------------*/
FoamFile
{
    version     2.0;
    format      ascii;
    class       surfaceScalarField;
    location    "1";
    object      phi;
}
// * * * * * * * * * * * * * * * * * * * * * * * * * * * * * * * * * * * * * //

dimensions      [0 3 -1 0 0 0 0];
oriented        oriented;


internalField   nonuniform List<scalar> 
8135
(
-1.99029e-09
-2.78167e-08
-6.00975e-16
-1.27451e-09
-6.91041e-09
-4.21388e-16
-6.20336e-10
1.57278e-08
-1.04289e-16
-4.6636e-10
3.99647e-08
-5.05538e-17
-4.01014e-10
6.53475e-08
-3.3662e-17
-3.72529e-10
9.17647e-08
-2.49623e-17
-3.53225e-10
1.19099e-07
-1.96617e-17
-3.35657e-10
1.46887e-07
-1.36551e-17
-3.16792e-10
1.74739e-07
-1.34953e-17
-2.95462e-10
2.02006e-07
-1.61134e-17
-2.7118e-10
2.27965e-07
-1.23974e-17
-2.43858e-10
2.51763e-07
-7.96104e-18
-2.13721e-10
2.72148e-07
-2.98027e-18
-1.81252e-10
2.87786e-07
-2.5807e-18
-1.47224e-10
2.96995e-07
1.74792e-18
-1.12757e-10
2.97636e-07
5.57481e-18
-7.93509e-11
2.87154e-07
9.3111e-18
-4.89571e-11
2.62504e-07
1.31378e-17
-2.39264e-11
2.19833e-07
1.28474e-17
-6.8772e-12
1.54574e-07
1.29996e-17
6.08848e-08
1.25269e-17
-2.22326e-09
-2.80152e-08
-5.99789e-16
-1.87545e-09
-7.2582e-09
-4.25819e-16
-1.51808e-09
1.53704e-08
-2.20945e-16
-1.30712e-09
3.97537e-08
-1.37475e-16
-1.18343e-09
6.52239e-08
-9.45602e-17
-1.11278e-09
9.1694e-08
-7.09073e-17
-1.05879e-09
1.19045e-07
-5.6511e-17
-1.00721e-09
1.46836e-07
-4.09383e-17
-9.51054e-10
1.74683e-07
-5.09288e-17
-8.87248e-10
2.01942e-07
-6.03508e-17
-8.14479e-10
2.27892e-07
-4.81366e-17
-7.32536e-10
2.51681e-07
-3.26662e-17
-6.42117e-10
2.72058e-07
-1.46571e-17
-5.44697e-10
2.87689e-07
-1.0936e-17
-4.42607e-10
2.96893e-07
6.42625e-18
-3.39189e-10
2.97533e-07
2.28731e-17
-2.38935e-10
2.87053e-07
3.95711e-17
-1.47592e-10
2.62413e-07
5.66843e-17
-7.21933e-11
2.19758e-07
5.82404e-17
-2.04303e-11
1.54522e-07
6.07136e-17
6.08643e-08
5.77467e-17
-2.58121e-09
-2.81059e-08
-6.12551e-16
-2.43441e-09
-7.40497e-09
-4.55798e-16
-2.25593e-09
1.51919e-08
-2.9971e-16
-2.0768e-09
3.95746e-08
-2.02219e-16
-1.93979e-09
6.50869e-08
-1.42182e-16
-1.84349e-09
9.15977e-08
-1.07523e-16
-1.761e-09
1.18962e-07
-8.57821e-17
-1.67787e-09
1.46752e-07
-6.51954e-17
-1.58552e-09
1.7459e-07
-8.32879e-17
-1.47975e-09
2.01836e-07
-9.58972e-17
-1.35876e-09
2.27771e-07
-7.66917e-17
-1.22232e-09
2.51544e-07
-5.44726e-17
-1.07169e-09
2.71907e-07
-2.83203e-17
-9.09368e-10
2.87527e-07
-2.63926e-17
-7.39254e-10
2.96723e-07
-1.861e-18
-5.66904e-10
2.9736e-07
2.12295e-17
-3.99745e-10
2.86886e-07
4.49776e-17
-2.47244e-10
2.62261e-07
7.0284e-17
-1.20984e-10
2.19632e-07
7.1514e-17
-3.38811e-11
1.54435e-07
7.73591e-17
6.08304e-08
7.55509e-17
-2.99968e-09
-2.81004e-08
-6.30579e-16
-2.98279e-09
-7.42183e-09
-4.87455e-16
-2.92071e-09
1.51299e-08
-3.54384e-16
-2.79414e-09
3.94481e-08
-2.52611e-16
-2.66923e-09
6.4962e-08
-1.82703e-16
-2.5617e-09
9.14902e-08
-1.39787e-16
-2.45779e-09
1.18858e-07
-1.11808e-16
-2.34645e-09
1.46641e-07
-8.61497e-17
-2.21952e-09
1.74463e-07
-1.09255e-16
-2.0726e-09
2.01689e-07
-1.22556e-16
-1.90377e-09
2.27602e-07
-9.78114e-17
-1.71304e-09
2.51353e-07
-7.18568e-17
-1.50229e-09
2.71697e-07
-4.09783e-17
-1.27511e-09
2.873e-07
-4.42156e-17
-1.03699e-09
2.96485e-07
-1.60316e-17
-7.95692e-10
2.97119e-07
9.72664e-18
-5.61555e-10
2.86652e-07
3.65718e-17
-3.47712e-10
2.62047e-07
6.69718e-17
-1.7026e-10
2.19454e-07
6.66801e-17
-4.75041e-11
1.54312e-07
7.66946e-17
6.07829e-08
7.66009e-17
-3.45792e-09
-2.80138e-08
-6.52351e-16
-3.52998e-09
-7.34972e-09
-5.19976e-16
-3.54814e-09
1.5148e-08
-3.99557e-16
-3.47687e-09
3.93768e-08
-2.98401e-16
-3.37591e-09
6.4861e-08
-2.2283e-16
-3.26746e-09
9.13817e-08
-1.72824e-16
-3.14846e-09
1.1874e-07
-1.38076e-16
-3.01238e-09
1.46505e-07
-1.06123e-16
-2.85269e-09
1.74304e-07
-1.26673e-16
-2.66556e-09
2.01502e-07
-1.39097e-16
-2.44938e-09
2.27386e-07
-1.0998e-16
-2.20459e-09
2.51109e-07
-8.25078e-17
-1.93384e-09
2.71426e-07
-4.94261e-17
-1.64184e-09
2.87008e-07
-6.06815e-17
-1.33571e-09
2.96179e-07
-3.21923e-17
-1.02544e-09
2.96809e-07
-7.61753e-18
-7.24246e-10
2.86351e-07
1.83626e-17
-4.48893e-10
2.61771e-07
5.04189e-17
-2.19983e-10
2.19225e-07
4.69887e-17
-6.13013e-11
1.54153e-07
6.13848e-17
6.07216e-08
6.3154e-17
-3.9459e-09
-2.78596e-08
-6.76328e-16
-4.08203e-09
-7.21355e-09
-5.54035e-16
-4.15885e-09
1.52249e-08
-4.42469e-16
-4.13838e-09
3.93564e-08
-3.43966e-16
-4.06552e-09
6.47882e-08
-2.65159e-16
-3.96252e-09
9.12788e-08
-2.08767e-16
-3.83334e-09
1.1861e-07
-1.66669e-16
-3.67556e-09
1.46347e-07
-1.25729e-16
-3.48489e-09
1.74113e-07
-1.40917e-16
-3.25853e-09
2.01276e-07
-1.51949e-16
-2.99552e-09
2.27123e-07
-1.19266e-16
-2.69693e-09
2.5081e-07
-9.12541e-17
-2.36628e-09
2.71095e-07
-5.69868e-17
-2.0095e-09
2.86651e-07
-7.74342e-17
-1.63536e-09
2.95805e-07
-5.02282e-17
-1.25608e-09
2.96429e-07
-2.88849e-17
-8.8773e-10
2.85983e-07
-6.13979e-18
-5.50712e-10
2.61434e-07
2.53251e-17
-2.70116e-10
2.18945e-07
1.74439e-17
-7.52603e-11
1.53959e-07
3.60157e-17
6.06464e-08
4.10432e-17
-4.45847e-09
-2.76494e-08
-7.00152e-16
-4.64349e-09
-7.02847e-09
-5.87257e-16
-4.76538e-09
1.53468e-08
-4.83099e-16
-4.78876e-09
3.93798e-08
-3.88244e-16
-4.74378e-09
6.47432e-08
-3.07899e-16
-4.64947e-09
9.11845e-08
-2.461e-16
-4.51339e-09
1.18474e-07
-1.96655e-16
-4.33634e-09
1.4617e-07
-1.46745e-16
-4.11622e-09
1.73893e-07
-1.55235e-16
-3.85153e-09
2.01011e-07
-1.65561e-16
-3.54217e-09
2.26814e-07
-1.28905e-16
-3.19001e-09
2.50458e-07
-9.96642e-17
-2.79957e-09
2.70705e-07
-6.356e-17
-2.37804e-09
2.86229e-07
-9.27169e-17
-1.93588e-09
2.95363e-07
-6.66074e-17
-1.48752e-09
2.95981e-07
-4.86883e-17
-1.05193e-09
2.85547e-07
-2.97435e-17
-6.53101e-10
2.61036e-07
2.30968e-19
-3.20619e-10
2.18612e-07
-1.2446e-17
-8.93716e-11
1.53727e-07
8.63983e-18
6.0557e-08
1.71753e-17
-4.99336e-09
-2.7392e-08
-7.22375e-16
-5.21754e-09
-6.80423e-09
-6.17452e-16
-5.37536e-09
1.55046e-08
-5.19556e-16
-5.43545e-09
3.944e-08
-4.28552e-16
-5.41585e-09
6.47237e-08
-3.47894e-16
-5.33115e-09
9.10998e-08
-2.82014e-16
-5.19003e-09
1.18333e-07
-2.26226e-16
-4.99538e-09
1.45976e-07
-1.67628e-16
-4.74699e-09
1.73645e-07
-1.7174e-16
-4.44469e-09
2.00709e-07
-1.82449e-16
-4.08939e-09
2.26459e-07
-1.41851e-16
-3.68387e-09
2.50052e-07
-1.10667e-16
-3.23371e-09
2.70255e-07
-7.16987e-17
-2.74743e-09
2.85743e-07
-1.08289e-16
-2.2372e-09
2.94853e-07
-8.19039e-17
-1.71971e-09
2.95464e-07
-6.60536e-17
-1.21678e-09
2.85044e-07
-4.97666e-17
-7.55999e-10
2.60575e-07
-2.06908e-17
-3.71452e-10
2.18228e-07
-3.70899e-17
-1.03619e-10
1.53459e-07
-1.55763e-17
6.04534e-08
-4.85916e-18
-5.54972e-09
-2.70946e-08
-7.42716e-16
-5.80639e-09
-6.54748e-09
-6.4395e-16
-5.99359e-09
1.56918e-08
-5.50905e-16
-6.08384e-09
3.95303e-08
-4.63322e-16
-6.08609e-09
6.4726e-08
-3.83058e-16
-6.01036e-09
9.1024e-08
-3.14387e-16
-5.86484e-09
1.18188e-07
-2.53545e-16
-5.65352e-09
1.45764e-07
-1.88427e-16
-5.37764e-09
1.73369e-07
-1.90317e-16
-5.03824e-09
2.00369e-07
-2.02594e-16
-4.6373e-09
2.26058e-07
-1.57506e-16
-4.17854e-09
2.49594e-07
-1.23196e-16
-3.6687e-09
2.69745e-07
-8.00229e-17
-3.11764e-09
2.85192e-07
-1.2252e-16
-2.5393e-09
2.94274e-07
-9.41481e-17
-1.9526e-09
2.94877e-07
-7.84866e-17
-1.38222e-09
2.84474e-07
-6.30345e-17
-8.59348e-10
2.60052e-07
-3.34028e-17
-4.22575e-10
2.17791e-07
-5.53283e-17
-1.17984e-10
1.53155e-07
-3.25714e-17
6.03354e-08
-2.08098e-17
-6.12734e-09
-2.67625e-08
-7.61614e-16
-6.41164e-09
-6.26311e-09
-6.67288e-16
-6.6232e-09
1.59034e-08
-5.77671e-16
-6.73789e-09
3.9645e-08
-4.92725e-16
-6.7581e-09
6.47462e-08
-4.13072e-16
-6.68968e-09
9.09556e-08
-3.42588e-16
-6.53946e-09
1.18038e-07
-2.7807e-16
-6.31173e-09
1.45537e-07
-2.07463e-16
-6.00871e-09
1.73066e-07
-2.10074e-16
-5.63248e-09
1.99993e-07
-2.24737e-16
-5.18604e-09
2.25611e-07
-1.75446e-16
-4.6741e-09
2.49082e-07
-1.37729e-16
-4.10455e-09
2.69175e-07
-8.97406e-17
-3.48867e-09
2.84576e-07
-1.37161e-16
-2.84213e-09
2.93628e-07
-1.05333e-16
-2.18613e-09
2.94221e-07
-8.79663e-17
-1.54819e-09
2.83836e-07
-7.12974e-17
-9.63098e-10
2.59467e-07
-3.93389e-17
-4.73949e-10
2.17302e-07
-6.71374e-17
-1.32451e-10
1.52813e-07
-4.2369e-17
6.0203e-08
-3.09311e-17
-6.72633e-09
-2.64003e-08
-7.79654e-16
-7.03444e-09
-5.95492e-09
-6.88454e-16
-7.26632e-09
1.61353e-08
-6.01105e-16
-7.40051e-09
3.97793e-08
-5.17972e-16
-7.43475e-09
6.47805e-08
-4.38811e-16
-7.3714e-09
9.08923e-08
-3.6706e-16
-7.21547e-09
1.17882e-07
-2.99755e-16
-6.97102e-09
1.45292e-07
-2.25424e-16
-6.64082e-09
1.72736e-07
-2.29906e-16
-6.22778e-09
1.9958e-07
-2.47473e-16
-5.73582e-09
2.25119e-07
-1.93653e-16
-5.17065e-09
2.48517e-07
-1.52098e-16
-4.54131e-09
2.68546e-07
-9.88565e-17
-3.86051e-09
2.83895e-07
-1.50658e-16
-3.14567e-09
2.92913e-07
-1.14427e-16
-2.42025e-09
2.93496e-07
-9.40554e-17
-1.71464e-09
2.8313e-07
-7.4649e-17
-1.0672e-09
2.58819e-07
-3.91143e-17
-5.25542e-10
2.1676e-07
-7.15257e-17
-1.47005e-10
1.52435e-07
-4.54392e-17
6.00559e-08
-3.46829e-17
-7.34688e-09
-2.60114e-08
-7.97269e-16
-7.67567e-09
-5.62604e-09
-7.08302e-16
-7.92445e-09
1.63841e-08
-6.22428e-16
-8.07382e-09
3.99288e-08
-5.40434e-16
-8.11832e-09
6.4825e-08
-4.61503e-16
-8.05746e-09
9.08314e-08
-3.88718e-16
-7.89432e-09
1.17719e-07
-3.19275e-16
-7.63237e-09
1.4503e-07
-2.41373e-16
-7.27458e-09
1.72378e-07
-2.49151e-16
-6.8245e-09
1.9913e-07
-2.69848e-16
-6.28685e-09
2.24582e-07
-2.11818e-16
-5.66829e-09
2.47898e-07
-1.66719e-16
-4.97902e-09
2.67857e-07
-1.08456e-16
-4.23315e-09
2.83149e-07
-1.64718e-16
-3.44989e-09
2.9213e-07
-1.2372e-16
-2.65493e-09
2.92701e-07
-9.95829e-17
-1.88153e-09
2.82357e-07
-7.63766e-17
-1.17162e-09
2.58109e-07
-3.62931e-17
-5.77324e-10
2.16166e-07
-7.24608e-17
-1.6163e-10
1.52019e-07
-4.45616e-17
5.98943e-08
-3.47902e-17
-7.98922e-09
-2.55989e-08
-8.14653e-16
-8.33596e-09
-5.27921e-09
-7.27344e-16
-8.59864e-09
1.66468e-08
-6.42462e-16
-8.7594e-09
4.00896e-08
-5.61133e-16
-8.8106e-09
6.48763e-08
-4.82159e-16
-8.74948e-09
9.07703e-08
-4.08378e-16
-8.57729e-09
1.17547e-07
-3.37034e-16
-8.29669e-09
1.4475e-07
-2.56448e-16
-7.91062e-09
1.71992e-07
-2.67321e-16
-7.42302e-09
1.98643e-07
-2.91126e-16
-6.83935e-09
2.23998e-07
-2.2867e-16
-6.16713e-09
2.47226e-07
-1.79995e-16
-5.41772e-09
2.67107e-07
-1.16825e-16
-4.60661e-09
2.82338e-07
-1.7777e-16
-3.75476e-09
2.91278e-07
-1.32055e-16
-2.89014e-09
2.91836e-07
-1.04001e-16
-2.04882e-09
2.81516e-07
-7.66566e-17
-1.27631e-09
2.57337e-07
-3.16759e-17
-6.29268e-10
2.15519e-07
-7.01573e-17
-1.76316e-10
1.51566e-07
-4.11572e-17
5.9718e-08
-3.19085e-17
-8.65357e-09
-2.51653e-08
-8.31815e-16
-9.01579e-09
-4.91688e-09
-7.45779e-16
-9.28964e-09
1.69207e-08
-6.61605e-16
-9.4584e-09
4.02584e-08
-5.80631e-16
-9.51297e-09
6.49309e-08
-5.01395e-16
-9.4488e-09
9.07062e-08
-4.26595e-16
-9.26549e-09
1.17364e-07
-3.53561e-16
-8.96482e-09
1.44449e-07
-2.6988e-16
-8.54948e-09
1.71577e-07
-2.84444e-16
-8.02371e-09
1.98117e-07
-3.12333e-16
-7.39354e-09
2.23368e-07
-2.44726e-16
-6.66731e-09
2.465e-07
-1.92893e-16
-5.85746e-09
2.66298e-07
-1.25259e-16
-4.98088e-09
2.81462e-07
-1.91367e-16
-4.06028e-09
2.90357e-07
-1.41267e-16
-3.12583e-09
2.90902e-07
-1.09452e-16
-2.21647e-09
2.80606e-07
-7.79366e-17
-1.38125e-09
2.56502e-07
-2.79662e-17
-6.81351e-10
2.14819e-07
-6.8428e-17
-1.91053e-10
1.51076e-07
-3.78383e-17
5.95269e-08
-2.87712e-17
-9.34008e-09
-2.47132e-08
-8.4865e-16
-9.71549e-09
-4.54136e-09
-7.63612e-16
-9.99797e-09
1.72032e-08
-6.79962e-16
-1.01716e-08
4.04322e-08
-5.99143e-16
-1.02265e-08
6.49858e-08
-5.19484e-16
-1.01565e-08
9.06362e-08
-4.4361e-16
-9.95983e-09
1.17167e-07
-3.68869e-16
-9.63745e-09
1.44127e-07
-2.82437e-16
-9.19169e-09
1.71131e-07
-3.00292e-16
-8.62691e-09
1.97552e-07
-3.30916e-16
-7.94962e-09
2.22691e-07
-2.59404e-16
-7.16891e-09
2.45719e-07
-2.0437e-16
-6.29829e-09
2.65427e-07
-1.32378e-16
-5.35597e-09
2.8052e-07
-2.03098e-16
-4.3664e-09
2.89368e-07
-1.49823e-16
-3.36197e-09
2.89897e-07
-1.14611e-16
-2.38444e-09
2.79629e-07
-7.92802e-17
-1.48641e-09
2.55604e-07
-2.45936e-17
-7.33554e-10
2.14066e-07
-6.79206e-17
-2.05833e-10
1.50548e-07
-3.49684e-17
5.93211e-08
-2.53377e-17
-1.00489e-08
-2.42446e-08
-8.65021e-16
-1.04353e-08
-4.15484e-09
-7.80758e-16
-1.0724e-08
1.74919e-08
-6.97496e-16
-1.08997e-08
4.06081e-08
-6.16684e-16
-1.09518e-08
6.50379e-08
-5.36481e-16
-1.08733e-08
9.05577e-08
-4.5949e-16
-1.0661e-08
1.16955e-07
-3.8309e-16
-1.03152e-08
1.43781e-07
-2.93183e-16
-9.83768e-09
1.70654e-07
-3.1501e-16
-9.23289e-09
1.96948e-07
-3.48541e-16
-8.50775e-09
2.21965e-07
-2.7345e-16
-7.67202e-09
2.44884e-07
-2.15543e-16
-6.74022e-09
2.64495e-07
-1.39491e-16
-5.73186e-09
2.79511e-07
-2.16874e-16
-4.6731e-09
2.88309e-07
-1.59132e-16
-3.59853e-09
2.88823e-07
-1.20908e-16
-2.55269e-09
2.78583e-07
-8.21165e-17
-1.59175e-09
2.54643e-07
-2.29976e-17
-7.85858e-10
2.1326e-07
-6.99914e-17
-2.20647e-10
1.49983e-07
-3.39035e-17
5.91005e-08
-2.33867e-17
-1.07801e-08
-2.37618e-08
-8.80809e-16
-1.11753e-08
-3.75947e-09
-7.97135e-16
-1.14679e-08
1.77845e-08
-7.14125e-16
-1.1643e-08
4.07833e-08
-6.33197e-16
-1.16896e-08
6.50846e-08
-5.5235e-16
-1.15999e-08
9.0468e-08
-4.74187e-16
-1.13697e-08
1.16725e-07
-3.96074e-16
-1.09985e-08
1.4341e-07
-3.03005e-16
-1.04878e-08
1.70143e-07
-3.28441e-16
-9.8419e-09
1.96302e-07
-3.65692e-16
-9.06809e-09
2.21192e-07
-2.86387e-16
-8.17671e-09
2.43992e-07
-2.2553e-16
-7.18327e-09
2.63502e-07
-1.4537e-16
-6.10854e-09
2.78436e-07
-2.28708e-16
-4.98035e-09
2.87181e-07
-1.67542e-16
-3.83547e-09
2.87678e-07
-1.26647e-16
-2.7212e-09
2.77469e-07
-8.48817e-17
-1.69724e-09
2.53619e-07
-2.18183e-17
-8.38246e-10
2.12401e-07
-7.31536e-17
-2.35492e-10
1.4938e-07
-3.38371e-17
5.8865e-08
-2.1924e-17
-1.15336e-08
-2.32667e-08
-8.95932e-16
-1.19355e-08
-3.35738e-09
-8.12672e-16
-1.22297e-08
1.80787e-08
-7.29787e-16
-1.24017e-08
4.09554e-08
-6.48623e-16
-1.24401e-08
6.5123e-08
-5.67045e-16
-1.23366e-08
9.03645e-08
-4.87675e-16
-1.20862e-08
1.16475e-07
-4.07924e-16
-1.16878e-08
1.43011e-07
-3.11356e-16
-1.11423e-08
1.69598e-07
-3.40785e-16
-1.04541e-08
1.95614e-07
-3.81999e-16
-9.63071e-09
2.20368e-07
-2.9885e-16
-8.68302e-09
2.43045e-07
-2.35311e-16
-7.62743e-09
2.62446e-07
-1.51208e-16
-6.48598e-09
2.77295e-07
-2.40744e-16
-5.28811e-09
2.85983e-07
-1.76321e-16
-4.07273e-09
2.86462e-07
-1.33005e-16
-2.88992e-09
2.76286e-07
-8.86083e-17
-1.80286e-09
2.52532e-07
-2.19645e-17
-8.90702e-10
2.11489e-07
-7.76515e-17
-2.5036e-10
1.4874e-07
-3.52853e-17
5.86146e-08
-2.20211e-17
-1.23094e-08
-2.27616e-08
-9.10338e-16
-1.27159e-08
-2.9507e-09
-8.27342e-16
-1.30094e-08
1.83722e-08
-7.44452e-16
-1.31757e-08
4.11219e-08
-6.62935e-16
-1.32034e-08
6.51508e-08
-5.80534e-16
-1.30836e-08
9.02448e-08
-4.99902e-16
-1.28108e-08
1.16202e-07
-4.18472e-16
-1.23832e-08
1.42584e-07
-3.18943e-16
-1.18014e-08
1.69016e-07
-3.51879e-16
-1.10696e-08
1.94882e-07
-3.97379e-16
-1.01957e-08
2.19494e-07
-3.10337e-16
-9.19094e-09
2.4204e-07
-2.44018e-16
-8.07268e-09
2.61328e-07
-1.5584e-16
-6.86412e-09
2.76087e-07
-2.51574e-16
-5.59631e-09
2.84715e-07
-1.83913e-16
-4.31027e-09
2.85176e-07
-1.38351e-16
-3.05881e-09
2.75034e-07
-9.16865e-17
-1.90859e-09
2.51382e-07
-2.19353e-17
-9.4321e-10
2.10524e-07
-8.20039e-17
-2.65248e-10
1.48062e-07
-3.7054e-17
5.83494e-08
-2.22158e-17
-1.31073e-08
-2.22484e-08
-9.2402e-16
-1.35163e-08
-2.54158e-09
-8.41153e-16
-1.38068e-08
1.86628e-08
-7.5813e-16
-1.39651e-08
4.12803e-08
-6.76139e-16
-1.39796e-08
6.51653e-08
-5.92824e-16
-1.38411e-08
9.01063e-08
-5.10874e-16
-1.35436e-08
1.15905e-07
-4.27777e-16
-1.30848e-08
1.42125e-07
-3.24867e-16
-1.24651e-08
1.68396e-07
-3.61846e-16
-1.16885e-08
1.94106e-07
-4.11992e-16
-1.0763e-08
2.18569e-07
-3.21349e-16
-9.70044e-09
2.40978e-07
-2.5249e-16
-8.51896e-09
2.60146e-07
-1.60347e-16
-7.24291e-09
2.74811e-07
-2.62427e-16
-5.9049e-09
2.83377e-07
-1.91582e-16
-4.54803e-09
2.8382e-07
-1.43876e-16
-3.22782e-09
2.73714e-07
-9.51323e-17
-2.01438e-09
2.50168e-07
-2.24998e-17
-9.95756e-10
2.09505e-07
-8.6918e-17
-2.8015e-10
1.47346e-07
-3.9558e-17
5.80692e-08
-2.33769e-17
-1.39272e-08
-2.17294e-08
-9.37002e-16
-1.43364e-08
-2.13222e-09
-8.54143e-16
-1.46217e-08
1.89482e-08
-7.70863e-16
-1.47696e-08
4.14283e-08
-6.88279e-16
-1.47684e-08
6.51642e-08
-6.0395e-16
-1.46089e-08
8.99469e-08
-5.20606e-16
-1.42846e-08
1.15581e-07
-4.35707e-16
-1.37927e-08
1.41633e-07
-3.29491e-16
-1.31334e-08
1.67737e-07
-3.70539e-16
-1.23106e-08
1.93283e-07
-4.25711e-16
-1.13325e-08
2.17591e-07
-3.31384e-16
-1.02114e-08
2.39857e-07
-2.59893e-16
-8.96618e-09
2.58901e-07
-1.63647e-16
-7.62225e-09
2.73467e-07
-2.7204e-16
-6.21379e-09
2.81969e-07
-1.97958e-16
-4.78595e-09
2.82392e-07
-1.48172e-16
-3.3969e-09
2.72325e-07
-9.75538e-17
-2.1202e-09
2.48891e-07
-2.22922e-17
-1.04832e-09
2.08433e-07
-9.12152e-17
-2.95062e-10
1.46593e-07
-4.16633e-17
5.77742e-08
-2.40298e-17
-1.47685e-08
-2.12068e-08
-9.49343e-16
-1.51757e-08
-1.72486e-09
-8.66376e-16
-1.54536e-08
1.92261e-08
-7.82714e-16
-1.55888e-08
4.15636e-08
-6.99419e-16
-1.55696e-08
6.51451e-08
-6.13984e-16
-1.53868e-08
8.97641e-08
-5.29166e-16
-1.50335e-08
1.15227e-07
-4.42407e-16
-1.45067e-08
1.41106e-07
-3.3231e-16
-1.38061e-08
1.67037e-07
-3.7812e-16
-1.29359e-08
1.92413e-07
-4.38641e-16
-1.19043e-08
2.16559e-07
-3.40887e-16
-1.07238e-08
2.38676e-07
-2.66986e-16
-9.41423e-09
2.57592e-07
-1.66753e-16
-8.00204e-09
2.72055e-07
-2.81604e-16
-6.52288e-09
2.8049e-07
-2.04311e-16
-5.02393e-09
2.80893e-07
-1.52485e-16
-3.56599e-09
2.70867e-07
-1.00057e-16
-2.22603e-09
2.47552e-07
-2.21937e-17
-1.10089e-09
2.07308e-07
-9.56043e-17
-3.09979e-10
1.45802e-07
-4.39181e-17
5.74642e-08
-2.51243e-17
-1.5631e-08
-2.06828e-08
-9.61103e-16
-1.60339e-08
-1.32177e-09
-8.77928e-16
-1.63021e-08
1.94943e-08
-7.93761e-16
-1.64222e-08
4.16839e-08
-7.09636e-16
-1.63828e-08
6.51058e-08
-6.23005e-16
-1.61745e-08
8.95557e-08
-5.3662e-16
-1.57901e-08
1.14843e-07
-4.47864e-16
-1.52265e-08
1.40543e-07
-3.3396e-16
-1.44832e-08
1.66293e-07
-3.84494e-16
-1.35643e-08
1.91494e-07
-4.50691e-16
-1.2478e-08
2.15473e-07
-3.49408e-16
-1.12374e-08
2.37436e-07
-2.73015e-16
-9.86295e-09
2.56217e-07
-1.68682e-16
-8.38214e-09
2.70574e-07
-2.89976e-16
-6.83207e-09
2.7894e-07
-2.09429e-16
-5.2619e-09
2.79323e-07
-1.55598e-16
-3.73504e-09
2.6934e-07
-1.0147e-16
-2.33181e-09
2.46148e-07
-2.12063e-17
-1.15343e-09
2.0613e-07
-9.90775e-17
-3.24896e-10
1.44974e-07
-4.53909e-17
5.71393e-08
-2.53484e-17
-1.6514e-08
-2.01598e-08
-9.72363e-16
-1.69103e-08
-9.25288e-10
-8.88881e-16
-1.71664e-08
1.97505e-08
-8.04095e-16
-1.72692e-08
4.17869e-08
-7.19019e-16
-1.72074e-08
6.5044e-08
-6.31095e-16
-1.69714e-08
8.93198e-08
-5.43071e-16
-1.6554e-08
1.14426e-07
-4.5228e-16
-1.59518e-08
1.39941e-07
-3.34048e-16
-1.51643e-08
1.65506e-07
-3.89867e-16
-1.41953e-08
1.90525e-07
-4.61999e-16
-1.30534e-08
2.14331e-07
-3.57388e-16
-1.1752e-08
2.36135e-07
-2.78705e-16
-1.03122e-08
2.54777e-07
-1.70403e-16
-8.76239e-09
2.69024e-07
-2.98305e-16
-7.14122e-09
2.77319e-07
-2.14551e-16
-5.49975e-09
2.77681e-07
-1.58753e-16
-3.90396e-09
2.67745e-07
-1.02963e-16
-2.4375e-09
2.44682e-07
-2.05369e-17
-1.20594e-09
2.04898e-07
-1.02499e-16
-3.39807e-10
1.44108e-07
-4.67922e-17
5.67995e-08
-2.57833e-17
-1.74168e-08
-1.96404e-08
-9.83217e-16
-1.78041e-08
-5.37792e-10
-8.99337e-16
-1.80459e-08
1.99924e-08
-8.13808e-16
-1.81292e-08
4.18703e-08
-7.27662e-16
-1.80427e-08
6.49576e-08
-6.38347e-16
-1.77769e-08
8.90541e-08
-5.48599e-16
-1.73246e-08
1.13974e-07
-4.55675e-16
-1.66822e-08
1.39298e-07
-3.33282e-16
-1.58489e-08
1.64673e-07
-3.94189e-16
-1.48288e-08
1.89505e-07
-4.72495e-16
-1.36304e-08
2.13133e-07
-3.6443e-16
-1.22674e-08
2.34772e-07
-2.83374e-16
-1.07617e-08
2.53272e-07
-1.71022e-16
-9.14261e-09
2.67405e-07
-3.05548e-16
-7.45019e-09
2.75626e-07
-2.1857e-16
-5.73737e-09
2.75968e-07
-1.60846e-16
-4.07267e-09
2.6608e-07
-1.03502e-16
-2.54306e-09
2.43152e-07
-1.9037e-17
-1.25839e-09
2.03613e-07
-1.0501e-16
-3.54706e-10
1.43204e-07
-4.73404e-17
5.64448e-08
-2.5264e-17
-1.83386e-08
-1.91269e-08
-9.93785e-16
-1.87145e-08
-1.61689e-10
-9.09397e-16
-1.89396e-08
2.02175e-08
-8.23001e-16
-1.90011e-08
4.1932e-08
-7.35658e-16
-1.88879e-08
6.48445e-08
-6.44854e-16
-1.85904e-08
8.87567e-08
-5.53306e-16
-1.81014e-08
1.13485e-07
-4.58228e-16
-1.74171e-08
1.38614e-07
-3.3126e-16
-1.65367e-08
1.63793e-07
-3.97695e-16
-1.54642e-08
1.88433e-07
-4.82341e-16
-1.42084e-08
2.11877e-07
-3.70986e-16
-1.27833e-08
2.33347e-07
-2.87735e-16
-1.12112e-08
2.517e-07
-1.7147e-16
-9.5226e-09
2.65717e-07
-3.12804e-16
-7.7588e-09
2.73863e-07
-2.22677e-16
-5.97463e-09
2.74184e-07
-1.63076e-16
-4.2411e-09
2.64346e-07
-1.04198e-16
-2.64843e-09
2.4156e-07
-1.7701e-17
-1.31074e-09
2.02276e-07
-1.07497e-16
-3.69585e-10
1.42263e-07
-4.78342e-17
5.60752e-08
-2.49527e-17
-1.92783e-08
-1.86219e-08
-1.00418e-15
-1.96403e-08
2.00591e-10
-9.19173e-16
-1.98465e-08
2.04238e-08
-8.31772e-16
-1.98841e-08
4.19698e-08
-7.431e-16
-1.97421e-08
6.47026e-08
-6.50707e-16
-1.94111e-08
8.84257e-08
-5.57271e-16
-1.88835e-08
1.12958e-07
-4.59941e-16
-1.81559e-08
1.37886e-07
-3.28584e-16
-1.72271e-08
1.62864e-07
-4.00305e-16
-1.61012e-08
1.87307e-07
-4.91473e-16
-1.47872e-08
2.10563e-07
-3.76685e-16
-1.32992e-08
2.31859e-07
-2.91155e-16
-1.16604e-08
2.50061e-07
-1.70915e-16
-9.90212e-09
2.63958e-07
-3.19084e-16
-8.06688e-09
2.72028e-07
-2.25815e-16
-6.2114e-09
2.72329e-07
-1.64388e-16
-4.40913e-09
2.62544e-07
-1.04066e-16
-2.75354e-09
2.39904e-07
-1.54178e-17
-1.36298e-09
2.00885e-07
-1.09189e-16
-3.84437e-10
1.41284e-07
-4.75519e-17
5.56907e-08
-2.37546e-17
-2.02347e-08
-1.81281e-08
-1.01454e-15
-2.05805e-08
5.46613e-10
-9.28772e-16
-2.07655e-08
2.06088e-08
-8.40221e-16
-2.0777e-08
4.19816e-08
-7.50081e-16
-2.06043e-08
6.453e-08
-6.5599e-16
-2.02379e-08
8.80593e-08
-5.60588e-16
-1.96703e-08
1.1239e-07
-4.60976e-16
-1.88978e-08
1.37114e-07
-3.24846e-16
-1.79195e-08
1.61886e-07
-4.02238e-16
-1.67392e-08
1.86127e-07
-5.00061e-16
-1.53662e-08
2.0919e-07
-3.81989e-16
-1.3815e-08
2.30308e-07
-2.94343e-16
-1.21091e-08
2.48355e-07
-1.70269e-16
-1.02809e-08
2.6213e-07
-3.25455e-16
-8.37421e-09
2.70121e-07
-2.29123e-16
-6.44751e-09
2.70402e-07
-1.65928e-16
-4.57667e-09
2.60673e-07
-1.04184e-16
-2.85834e-09
2.38186e-07
-1.34466e-17
-1.41507e-09
1.99442e-07
-1.11026e-16
-3.99254e-10
1.40268e-07
-4.73247e-17
5.52915e-08
-2.28689e-17
-2.12065e-08
-1.76481e-08
-1.025e-15
-2.15336e-08
8.73956e-10
-9.38308e-16
-2.16952e-08
2.07705e-08
-8.48446e-16
-2.16787e-08
4.19653e-08
-7.56688e-16
-2.14733e-08
6.43247e-08
-6.60789e-16
-2.10699e-08
8.76559e-08
-5.63326e-16
-2.04607e-08
1.11781e-07
-4.61333e-16
-1.96421e-08
1.36295e-07
-3.20319e-16
-1.86131e-08
1.60857e-07
-4.03408e-16
-1.73777e-08
1.84892e-07
-5.08034e-16
-1.5945e-08
2.07757e-07
-3.86537e-16
-1.433e-08
2.28693e-07
-2.9669e-16
-1.25568e-08
2.46582e-07
-1.68726e-16
-1.06587e-08
2.60232e-07
-3.3095e-16
-8.68059e-09
2.68143e-07
-2.31571e-16
-6.68281e-09
2.68405e-07
-1.66646e-16
-4.7436e-09
2.58734e-07
-1.03548e-16
-2.96276e-09
2.36405e-07
-1.14047e-17
-1.46697e-09
1.97946e-07
-1.12221e-16
-4.14025e-10
1.39215e-07
-4.64329e-17
5.48775e-08
-2.12237e-17
-2.21922e-08
-1.71845e-08
-1.0357e-15
-2.24982e-08
1.18024e-09
-9.47884e-16
-2.26342e-08
2.09065e-08
-8.56538e-16
-2.25877e-08
4.1919e-08
-7.63004e-16
-2.2348e-08
6.40852e-08
-6.65179e-16
-2.19059e-08
8.72138e-08
-5.65568e-16
-2.12537e-08
1.1113e-07
-4.61156e-16
-2.03879e-08
1.3543e-07
-3.15062e-16
-1.93073e-08
1.59777e-07
-4.04063e-16
-1.80158e-08
1.836e-07
-5.15577e-16
-1.65229e-08
2.06264e-07
-3.90801e-16
-1.48439e-08
2.27014e-07
-2.98907e-16
-1.30033e-08
2.44741e-07
-1.67188e-16
-1.10351e-08
2.58264e-07
-3.36601e-16
-8.98576e-09
2.66094e-07
-2.3426e-16
-6.91712e-09
2.66336e-07
-1.67658e-16
-4.9098e-09
2.56727e-07
-1.03241e-16
-3.06672e-09
2.34562e-07
-1.03887e-17
-1.51866e-09
1.96398e-07
-1.13665e-16
-4.28742e-10
1.38126e-07
-4.57128e-17
5.44487e-08
-2.0012e-17
-2.319e-08
-1.67398e-08
-1.04674e-15
-2.34726e-08
1.46314e-09
-9.57588e-16
-2.35809e-08
2.10148e-08
-8.64572e-16
-2.35025e-08
4.18409e-08
-7.69099e-16
-2.32269e-08
6.38096e-08
-6.69234e-16
-2.27447e-08
8.67317e-08
-5.67368e-16
-2.20484e-08
1.10433e-07
-4.60435e-16
-2.11342e-08
1.34516e-07
-3.09311e-16
-2.00011e-08
1.58644e-07
-4.04089e-16
-1.8653e-08
1.82252e-07
-5.22606e-16
-1.70995e-08
2.04711e-07
-3.94409e-16
-1.53561e-08
2.25271e-07
-3.00379e-16
-1.3448e-08
2.42833e-07
-1.64851e-16
-1.141e-08
2.56226e-07
-3.41445e-16
-9.28948e-09
2.63973e-07
-2.36161e-16
-7.15025e-09
2.64197e-07
-1.67902e-16
-5.07515e-09
2.54652e-07
-1.02179e-16
-3.17015e-09
2.32657e-07
-7.85591e-18
-1.57008e-09
1.94798e-07
-1.14421e-16
-4.43393e-10
1.36999e-07
-4.44111e-17
5.40053e-08
-1.81425e-17
-2.4198e-08
-1.63166e-08
-1.05819e-15
-2.4455e-08
1.72045e-09
-9.67478e-16
-2.45336e-08
2.10936e-08
-8.72604e-16
-2.44217e-08
4.17292e-08
-7.75038e-16
-2.41085e-08
6.34966e-08
-6.73019e-16
-2.3585e-08
8.62082e-08
-5.68802e-16
-2.28434e-08
1.09692e-07
-4.59289e-16
-2.18801e-08
1.33552e-07
-3.02966e-16
-2.06937e-08
1.57457e-07
-4.03721e-16
-1.92885e-08
1.80847e-07
-5.29314e-16
-1.76741e-08
2.03096e-07
-3.97855e-16
-1.58662e-08
2.23463e-07
-3.0183e-16
-1.38906e-08
2.40858e-07
-1.62624e-16
-1.17828e-08
2.54118e-07
-3.46515e-16
-9.59148e-09
2.61782e-07
-2.38371e-16
-7.382e-09
2.61987e-07
-1.68474e-16
-5.23949e-09
2.52509e-07
-1.01193e-16
-3.27295e-09
2.3069e-07
-4.22956e-18
-1.62121e-09
1.93146e-07
-1.1513e-16
-4.57966e-10
1.35836e-07
-4.33589e-17
5.35474e-08
-1.67907e-17
-2.5214e-08
-1.59173e-08
-1.07011e-15
-2.54433e-08
1.95005e-09
-9.77596e-16
-2.54905e-08
2.11409e-08
-8.80668e-16
-2.53434e-08
4.15823e-08
-7.80868e-16
-2.49915e-08
6.31448e-08
-6.76591e-16
-2.44255e-08
8.56423e-08
-5.69915e-16
-2.36376e-08
1.08905e-07
-4.57689e-16
-2.26243e-08
1.32539e-07
-2.96165e-16
-2.13842e-08
1.56218e-07
-4.02799e-16
-1.99215e-08
1.79385e-07
-5.35592e-16
-1.8246e-08
2.01421e-07
-4.00734e-16
-1.63736e-08
2.21591e-07
-3.02617e-16
-1.43305e-08
2.38815e-07
-1.5968e-16
-1.21532e-08
2.51941e-07
-3.50829e-16
-9.89146e-09
2.5952e-07
-2.39844e-16
-7.61216e-09
2.59708e-07
-1.68302e-16
-5.4027e-09
2.503e-07
-9.93408e-17
-3.37504e-09
2.28663e-07
1.70397e-18
-1.672e-09
1.91443e-07
-1.15067e-16
-4.7245e-10
1.34636e-07
-4.17978e-17
5.30749e-08
-1.48589e-17
-2.62357e-08
-1.55441e-08
-1.0825e-15
-2.64354e-08
2.15003e-09
-9.87942e-16
-2.64496e-08
2.11551e-08
-8.88784e-16
-2.62659e-08
4.1399e-08
-7.86623e-16
-2.5874e-08
6.2753e-08
-6.79995e-16
-2.52645e-08
8.50329e-08
-5.70771e-16
-2.44297e-08
1.0807e-07
-4.55729e-16
-2.33659e-08
1.31475e-07
-2.88644e-16
-2.20716e-08
1.54924e-07
-4.01567e-16
-2.05512e-08
1.77865e-07
-5.41646e-16
-1.88144e-08
1.99684e-07
-4.03564e-16
-1.68776e-08
2.19654e-07
-3.03499e-16
-1.47674e-08
2.36705e-07
-1.56965e-16
-1.25209e-08
2.49695e-07
-3.55446e-16
-1.01891e-08
2.57189e-07
-2.41698e-16
-7.84051e-09
2.57359e-07
-1.68521e-16
-5.56461e-09
2.48024e-07
-9.77926e-17
-3.47634e-09
2.26574e-07
7.14727e-18
-1.72241e-09
1.89689e-07
-1.15277e-16
-4.86832e-10
1.334e-07
-4.05804e-17
5.25881e-08
-1.35098e-17
-2.72608e-08
-1.51991e-08
-1.0953e-15
-2.74291e-08
2.31862e-09
-9.98475e-16
-2.74087e-08
2.11348e-08
-8.9694e-16
-2.71873e-08
4.11779e-08
-7.9232e-16
-2.67544e-08
6.23202e-08
-6.83267e-16
-2.61007e-08
8.43793e-08
-5.714e-16
-2.52183e-08
1.07188e-07
-4.53358e-16
-2.41035e-08
1.30361e-07
-2.80617e-16
-2.27549e-08
1.53575e-07
-3.99824e-16
-2.11767e-08
1.76286e-07
-5.47337e-16
-1.93788e-08
1.97886e-07
-4.05896e-16
-1.73777e-08
2.17653e-07
-3.03774e-16
-1.52007e-08
2.34528e-07
-1.53568e-16
-1.28855e-08
2.47379e-07
-3.59339e-16
-1.04842e-08
2.54787e-07
-2.42849e-16
-8.06682e-09
2.54942e-07
-1.68049e-16
-5.72507e-09
2.45682e-07
-9.55666e-17
-3.57673e-09
2.24426e-07
1.25843e-17
-1.77238e-09
1.87885e-07
-1.14969e-16
-5.01098e-10
1.32129e-07
-3.89254e-17
5.2087e-08
-1.16282e-17
-2.82865e-08
-1.48842e-08
-1.10835e-15
-2.84218e-08
2.45431e-09
-1.00911e-15
-2.83656e-08
2.10787e-08
-9.05086e-16
-2.81055e-08
4.0918e-08
-7.9795e-16
-2.76309e-08
6.18458e-08
-6.86419e-16
-2.69324e-08
8.36809e-08
-5.7185e-16
-2.60021e-08
1.06258e-07
-4.50693e-16
-2.48361e-08
1.29195e-07
-2.7186e-16
-2.3433e-08
1.52172e-07
-3.97877e-16
-2.1797e-08
1.74651e-07
-5.52894e-16
-1.99382e-08
1.96028e-07
-4.0829e-16
-1.78733e-08
2.15589e-07
-3.04256e-16
-1.56299e-08
2.32284e-07
-1.50539e-16
-1.32465e-08
2.44996e-07
-3.63617e-16
-1.07763e-08
2.52317e-07
-2.44459e-16
-8.29087e-09
2.52457e-07
-1.68066e-16
-5.88393e-09
2.43276e-07
-9.38123e-17
-3.67614e-09
2.22218e-07
1.71337e-17
-1.82186e-09
1.86031e-07
-1.15101e-16
-5.15234e-10
1.30823e-07
-3.76746e-17
5.15717e-08
-1.0372e-17
-2.93099e-08
-1.46008e-08
-1.12145e-15
-2.94111e-08
2.55583e-09
-1.01968e-15
-2.93181e-08
2.09858e-08
-9.13143e-16
-2.90185e-08
4.06187e-08
-8.03474e-16
-2.85016e-08
6.1329e-08
-6.89453e-16
-2.77581e-08
8.29374e-08
-5.72132e-16
-2.67795e-08
1.0528e-07
-4.47716e-16
-2.55623e-08
1.27978e-07
-2.6275e-16
-2.41049e-08
1.50715e-07
-3.95542e-16
-2.24113e-08
1.72957e-07
-5.58159e-16
-2.04919e-08
1.94108e-07
-4.10228e-16
-1.83636e-08
2.13461e-07
-3.04167e-16
-1.60544e-08
2.29975e-07
-1.46895e-16
-1.36036e-08
2.42545e-07
-3.67178e-16
-1.10652e-08
2.49779e-07
-2.45378e-16
-8.5124e-09
2.49904e-07
-1.67435e-16
-6.04101e-09
2.40804e-07
-9.1513e-17
-3.77444e-09
2.19952e-07
2.20646e-17
-1.87082e-09
1.84127e-07
-1.14789e-16
-5.29227e-10
1.29481e-07
-3.60365e-17
5.10425e-08
-8.61306e-18
-3.03283e-08
-1.43504e-08
-1.13432e-15
-3.03943e-08
2.6222e-09
-1.03003e-15
-3.02638e-08
2.08553e-08
-9.21017e-16
-2.99242e-08
4.02794e-08
-8.0884e-16
-2.93647e-08
6.07697e-08
-6.92345e-16
-2.85759e-08
8.21485e-08
-5.72268e-16
-2.75492e-08
1.04253e-07
-4.4456e-16
-2.62809e-08
1.26709e-07