/*--------------------------------*- C++ -*----------------------------------*\
| =========                 |                                                 |
| \\      /  F ield         | OpenFOAM: The Open Source CFD Toolbox           |
|  \\    /   O peration     | Version:  v2012                                 |
|   \\  /    A nd           | Website:  www.openfoam.com                      |
|    \\/     M anipulation  |                                                 |
\*---------------------------------------------------------------------------*/
FoamFile
{
    version     2.0;
    format      ascii;
    class       volVectorField;
    location    "1";
    object      U;
}
// * * * * * * * * * * * * * * * * * * * * * * * * * * * * * * * * * * * * * //

dimensions      [0 1 -1 0 0 0 0];


internalField   nonuniform List<vector> 
3338
(
(-0.0462212 -0.302705 0.000403909)
(-0.0372171 -0.0655949 0.000325277)
(-0.0130283 0.151731 0.000113565)
(-0.00984163 0.348281 8.57116e-05)
(-0.0074657 0.526278 6.51888e-05)
(-0.00655149 0.684614 5.71912e-05)
(-0.00592529 0.823473 5.1732e-05)
(-0.00540841 0.942099 4.72196e-05)
(-0.00491741 1.03982 4.29336e-05)
(-0.00442892 1.11586 3.86695e-05)
(-0.00393387 1.16937 3.43482e-05)
(-0.00343176 1.19936 2.99653e-05)
(-0.0029262 1.20469 2.55522e-05)
(-0.00242376 1.18405 2.11663e-05)
(-0.00193332 1.13594 1.6885e-05)
(-0.00146578 1.05861 1.28034e-05)
(-0.00103474 0.950075 9.04014e-06)
(-0.000655177 0.808025 5.72586e-06)
(-0.000345943 0.629784 3.02498e-06)
(-0.000122816 0.41212 1.07584e-06)
(-5.61954e-06 0.151153 6.51365e-08)
(-0.0499242 -0.306109 0.000435855)
(-0.0432229 -0.0718918 0.000377437)
(-0.0311304 0.145465 0.000271887)
(-0.0261307 0.34612 0.000228227)
(-0.0218204 0.52531 0.000190555)
(-0.0195157 0.684178 0.000170384)
(-0.0177481 0.823186 0.000154955)
(-0.0162246 0.941854 0.000141653)
(-0.0147607 1.03957 0.000128875)
(-0.0132985 1.11561 0.000116111)
(-0.0118144 1.1691 0.000103156)
(-0.0103081 1.19908 9.00074e-05)
(-0.00879088 1.20441 7.67636e-05)
(-0.00728292 1.18377 6.36e-05)
(-0.00581099 1.13567 5.07504e-05)
(-0.00440788 1.05836 3.85009e-05)
(-0.00311417 0.949853 2.72057e-05)
(-0.00197431 0.807844 1.72527e-05)
(-0.001044 0.629653 9.12767e-06)
(-0.000369708 0.412043 3.23879e-06)
(-1.48523e-05 0.151129 1.84618e-07)
(-0.0562198 -0.307871 0.000490798)
(-0.0516385 -0.0748158 0.000450866)
(-0.0452471 0.142948 0.00039507)
(-0.0404002 0.344389 0.000352749)
(-0.0355163 0.524228 0.000310108)
(-0.0322413 0.683542 0.000281485)
(-0.0294891 0.822715 0.000257461)
(-0.0270155 0.941427 0.000235865)
(-0.0246021 1.03914 0.000214798)
(-0.0221762 1.11515 0.000193623)
(-0.0197074 1.16861 0.000172073)
(-0.0171986 1.19857 0.000150173)
(-0.0146703 1.20388 0.000128104)
(-0.0121569 1.18324 0.000106163)
(-0.00970342 1.13515 8.47442e-05)
(-0.0073645 1.05787 6.43248e-05)
(-0.00520746 0.949411 4.54918e-05)
(-0.00330549 0.807466 2.88841e-05)
(-0.00175019 0.629359 1.53009e-05)
(-0.00061807 0.411852 5.41481e-06)
(-2.22348e-05 0.151058 2.90846e-07)
(-0.0640437 -0.308262 0.000559095)
(-0.0611912 -0.0754389 0.000534217)
(-0.0576712 0.141997 0.000503473)
(-0.0534699 0.343052 0.000466818)
(-0.0485842 0.523141 0.000424181)
(-0.0446719 0.68276 0.00039001)
(-0.0411066 0.822059 0.000358887)
(-0.0377574 0.940799 0.000329649)
(-0.0344289 1.03849 0.000300595)
(-0.0310552 1.11445 0.000271145)
(-0.027609 1.16787 0.000241064)
(-0.0241008 1.19779 0.000210441)
(-0.0205625 1.20308 0.000179555)
(-0.0170439 1.18244 0.000148839)
(-0.0136086 1.13437 0.00011885)
(-0.0103335 1.05714 9.02572e-05)
(-0.00731226 0.948748 6.38792e-05)
(-0.00464652 0.806902 4.06025e-05)
(-0.0024633 0.628923 2.15353e-05)
(-0.000869035 0.411572 7.61347e-06)
(-3.01436e-05 0.150956 3.97743e-07)
(-0.0729393 -0.307709 0.000636727)
(-0.0713768 -0.0750492 0.000623104)
(-0.0693576 0.14187 0.000605475)
(-0.0658138 0.342197 0.000574568)
(-0.0611449 0.522216 0.000533827)
(-0.0568221 0.681938 0.000496083)
(-0.0525893 0.821279 0.000459135)
(-0.0484394 0.94 0.000422909)
(-0.0442342 1.03763 0.000386203)
(-0.0399313 1.11352 0.000348643)
(-0.0355167 1.16688 0.000310109)
(-0.0310131 1.19675 0.000270798)
(-0.0264665 1.20202 0.000231109)
(-0.0219429 1.18138 0.000191621)
(-0.0175256 1.13333 0.000153059)
(-0.0133136 1.05616 0.000116287)
(-0.00942729 0.947862 8.23559e-05)
(-0.00599615 0.80615 5.23959e-05)
(-0.00318249 0.628342 2.78227e-05)
(-0.00112276 0.411197 9.83629e-06)
(-3.83571e-05 0.150821 5.07791e-07)
(-0.0826499 -0.306357 0.000721477)
(-0.0820008 -0.0739475 0.000715828)
(-0.080779 0.142352 0.00070517)
(-0.0777587 0.341811 0.000678834)
(-0.0733436 0.521514 0.000640312)
(-0.068741 0.681141 0.000600134)
(-0.0639472 0.820414 0.000558292)
(-0.0590614 0.939053 0.000515645)
(-0.0540159 1.03659 0.000471605)
(-0.0488028 1.11238 0.000426101)
(-0.0434294 1.16565 0.000379197)
(-0.0379348 1.19546 0.000331236)
(-0.0323814 1.20069 0.00028276)
(-0.0268533 1.18004 0.000234502)
(-0.0214537 1.13203 0.000187364)
(-0.0163042 1.05493 0.000142408)
(-0.0115516 0.946755 0.000100914)
(-0.00735346 0.805207 6.42563e-05)
(-0.0039071 0.627612 3.41575e-05)
(-0.00137914 0.410726 1.20824e-05)
(-4.68486e-05 0.150652 6.21169e-07)
(-0.0930225 -0.304333 0.000812012)
(-0.0929965 -0.0722901 0.000811803)
(-0.0921927 0.14331 0.0008048)
(-0.0895313 0.341839 0.000781597)
(-0.085316 0.521043 0.000744821)
(-0.080491 0.680402 0.000702709)
(-0.0752038 0.819493 0.000656563)
(-0.0696313 0.937977 0.000607925)
(-0.0637764 1.03536 0.000556821)
(-0.0576704 1.11102 0.000503524)
(-0.051347 1.16418 0.000448328)
(-0.0448656 1.19391 0.000391753)
(-0.038307 1.19909 0.000334503)
(-0.0317745 1.17844 0.000277477)
(-0.0253921 1.13047 0.00022176)
(-0.0193043 1.05346 0.000168612)
(-0.0136844 0.945425 0.000119545)
(-0.00871765 0.804075 7.61768e-05)
(-0.00463654 0.626734 4.05344e-05)
(-0.001638 0.410158 1.43502e-05)
(-5.56723e-05 0.150448 7.38018e-07)
(-0.103972 -0.301748 0.000907587)
(-0.104351 -0.0701952 0.000910913)
(-0.103743 0.14464 0.000905622)
(-0.101284 0.342217 0.000884192)
(-0.0971765 0.52079 0.000848355)
(-0.0921365 0.679734 0.000804372)
(-0.0863896 0.818534 0.000754216)
(-0.0801629 0.936783 0.00069987)
(-0.0735218 1.03397 0.000641905)
(-0.0665367 1.10946 0.000580935)
(-0.0592707 1.16248 0.000517513)
(-0.0518059 1.1921 0.000452353)
(-0.0442432 1.19723 0.000386338)
(-0.0367062 1.17657 0.000320545)
(-0.0293404 1.12865 0.000256242)
(-0.0223133 1.05174 0.000194894)
(-0.0158248 0.943873 0.000138244)
(-0.010088 0.802752 8.8151e-05)
(-0.00537026 0.625707 4.69488e-05)
(-0.00189907 0.409493 1.66373e-05)
(-6.48048e-05 0.150208 8.58025e-07)
(-0.115454 -0.298691 0.00100781)
(-0.116071 -0.0677429 0.00101322)
(-0.115513 0.146272 0.00100837)
(-0.113121 0.342883 0.00098752)
(-0.109017 0.520728 0.000951716)
(-0.103737 0.679138 0.000905644)
(-0.097538 0.817543 0.000851543)
(-0.0906738 0.93548 0.000791635)
(-0.0832607 1.03241 0.000726933)
(-0.075406 1.10769 0.000658373)
(-0.0672026 1.16054 0.000586769)
(-0.0587565 1.19005 0.000513044)
(-0.0501903 1.1951 0.000438269)
(-0.0416484 1.17444 0.000363703)
(-0.0332982 1.12657 0.000290807)
(-0.0253306 1.04978 0.000221249)
(-0.0179723 0.942097 0.000157004)
(-0.0114638 0.801239 0.000100173)
(-0.00610773 0.624531 5.3396e-05)
(-0.00216206 0.40873 1.89413e-05)
(-7.42111e-05 0.149933 9.80806e-07)
(-0.127446 -0.295229 0.00111249)
(-0.128169 -0.0649896 0.00111882)
(-0.127556 0.148154 0.0011135)
(-0.125113 0.343785 0.0010922)
(-0.120909 0.520826 0.00105553)
(-0.115346 0.678605 0.00100699)
(-0.108682 0.816523 0.000948833)
(-0.101183 0.934073 0.000883384)
(-0.0930037 1.03068 0.000811996)
(-0.0842839 1.10571 0.000735886)
(-0.0751457 1.15837 0.000656122)
(-0.065719 1.18773 0.000573838)
(-0.0561488 1.19272 0.000490299)
(-0.0466009 1.17204 0.000406952)
(-0.0372652 1.12423 0.000325452)
(-0.0283558 1.04757 0.000247672)
(-0.0201263 0.940099 0.00017582)
(-0.0128446 0.799534 0.000112239)
(-0.0068485 0.623205 5.98719e-05)
(-0.00242673 0.407869 2.12599e-05)
(-8.38461e-05 0.149622 1.1059e-06)
(-0.139937 -0.291413 0.00122152)
(-0.140659 -0.0619777 0.00122785)
(-0.139905 0.150243 0.00122129)
(-0.137309 0.344877 0.00119867)
(-0.13291 0.521053 0.00116029)
(-0.127008 0.678118 0.0011088)
(-0.119853 0.815467 0.00104636)
(-0.11171 0.93256 0.000975288)
(-0.102762 1.0288 0.000897194)
(-0.0931769 1.10353 0.00081353)
(-0.0831033 1.15596 0.000725602)
(-0.0726951 1.18517 0.00063475)
(-0.0621193 1.19006 0.000542435)
(-0.051564 1.16937 0.000450293)
(-0.041241 1.12162 0.000360175)
(-0.0313884 1.04511 0.000274159)
(-0.0222861 0.937877 0.000194688)
(-0.0142298 0.797637 0.000124342)
(-0.00759214 0.621729 6.63729e-05)
(-0.00269282 0.406909 2.35909e-05)
(-9.36674e-05 0.149276 1.23291e-06)
(-0.152922 -0.287288 0.00133488)
(-0.153553 -0.0587415 0.00134041)
(-0.152582 0.152505 0.00133197)
(-0.149744 0.346117 0.00130722)
(-0.14506 0.521378 0.00126636)
(-0.138761 0.67766 0.0012114)
(-0.131079 0.814368 0.00114436)
(-0.122273 0.930937 0.00106751)
(-0.112548 1.02676 0.000982628)
(-0.102092 1.10115 0.000891366)
(-0.0910793 1.15332 0.000795243)
(-0.0796866 1.18235 0.000695798)
(-0.0681029 1.18715 0.000594684)
(-0.0565378 1.16644 0.000493727)
(-0.0452256 1.11876 0.000394974)
(-0.034428 1.04241 0.000300708)
(-0.0244513 0.93543 0.000213603)
(-0.0156188 0.795548 0.00013648)
(-0.00833829 0.620102 7.28959e-05)
(-0.00296011 0.405851 2.59325e-05)
(-0.000103639 0.148893 1.36146e-06)
(-0.166402 -0.282888 0.00145255)
(-0.16686 -0.0553104 0.00145658)
(-0.165605 0.154911 0.00144565)
(-0.162444 0.347473 0.00141809)
(-0.157393 0.52177 0.00137402)
(-0.150634 0.67721 0.00131505)
(-0.142383 0.813213 0.00124304)
(-0.132889 0.9292 0.00116019)
(-0.122371 1.02454 0.00106839)
(-0.111035 1.09856 0.000969452)
(-0.0990777 1.15044 0.000865079)
(-0.0866958 1.17928 0.000757)
(-0.0741004 1.18396 0.000647055)
(-0.0615225 1.16324 0.000537257)
(-0.0492188 1.11563 0.000429848)
(-0.0374741 1.03946 0.000327314)
(-0.0266215 0.93276 0.000232561)
(-0.0170114 0.793267 0.000148649)
(-0.00908661 0.618324 7.94378e-05)
(-0.00322841 0.404693 2.8283e-05)
(-0.000113731 0.148473 1.49124e-06)
(-0.180378 -0.278245 0.00157455)
(-0.180589 -0.0517103 0.00157643)
(-0.178984 0.157434 0.00156245)
(-0.175427 0.348911 0.00153142)
(-0.169932 0.522203 0.00148348)
(-0.162652 0.676748 0.00141996)
(-0.153785 0.811989 0.00134259)
(-0.143574 0.927339 0.00125348)
(-0.132243 1.02216 0.00115458)
(-0.120014 1.09576 0.00104785)
(-0.107102 1.14733 0.000935143)
(-0.0937246 1.17595 0.000818374)
(-0.0801127 1.18051 0.000699555)
(-0.0665184 1.15976 0.000580885)
(-0.0532204 1.11224 0.000464795)
(-0.0405266 1.03626 0.000353975)
(-0.0287962 0.929864 0.000251559)
(-0.0184071 0.790793 0.000160845)
(-0.00983681 0.616395 8.59962e-05)
(-0.00349757 0.403435 3.0641e-05)
(-0.000123919 0.148017 1.62204e-06)
(-0.19485 -0.273385 0.00170088)
(-0.194745 -0.0479652 0.0017)
(-0.192727 0.16005 0.00168242)
(-0.188704 0.350406 0.00164733)
(-0.182695 0.522649 0.00159491)
(-0.174833 0.676253 0.0015263)
(-0.165304 0.81068 0.00144315)
(-0.15434 0.925344 0.00134747)
(-0.142172 1.0196 0.00124127)
(-0.129034 1.09275 0.0011266)
(-0.115156 1.14398 0.00100547)
(-0.100775 1.17236 0.000879935)
(-0.0861406 1.17679 0.000752192)
(-0.0715257 1.15602 0.000624611)
(-0.0572302 1.10859 0.000499814)
(-0.0435849 1.03281 0.000380688)
(-0.0309751 0.926743 0.000270593)
(-0.0198056 0.788126 0.000173064)
(-0.0105886 0.614314 9.25688e-05)
(-0.00376745 0.402079 3.30052e-05)
(-0.000134185 0.147525 1.75364e-06)
(-0.209819 -0.268333 0.00183156)
(-0.209332 -0.0440977 0.00182734)
(-0.20684 0.162735 0.00180562)
(-0.202285 0.35193 0.00176589)
(-0.195695 0.523085 0.0017084)
(-0.187191 0.675705 0.00163419)
(-0.17695 0.809272 0.00154483)
(-0.165197 0.923204 0.00144226)
(-0.152167 1.01686 0.00132853)
(-0.1381 1.08952 0.00120575)
(-0.123243 1.14038 0.00107607)
(-0.107848 1.16851 0.000941698)
(-0.0921849 1.1728 0.000804971)
(-0.0765444 1.15201 0.000668438)
(-0.0612479 1.10468 0.000534903)
(-0.0466487 1.02911 0.000407448)
(-0.0331577 0.923396 0.00028966)
(-0.0212065 0.785265 0.000185305)
(-0.0113418 0.612082 9.91534e-05)
(-0.00403793 0.400622 3.53748e-05)
(-0.000144517 0.146995 1.88592e-06)
(-0.225287 -0.263114 0.00196659)
(-0.224351 -0.0401297 0.00195846)
(-0.221324 0.165467 0.00193207)
(-0.216174 0.35346 0.00188715)
(-0.208939 0.523488 0.00182402)
(-0.199736 0.675082 0.00174372)
(-0.188735 0.807747 0.00164772)
(-0.176155 0.920908 0.00153793)
(-0.162232 1.01392 0.00141641)
(-0.147216 1.08607 0.00128534)
(-0.131365 1.13654 0.00114699)
(-0.114946 1.1644 0.00100367)
(-0.0982458 1.16854 0.000857896)
(-0.0815744 1.14773 0.000712363)
(-0.0652732 1.10049 0.000570057)
(-0.0497175 1.02517 0.000434253)
(-0.0353436 0.919823 0.000308755)
(-0.0226094 0.782211 0.000197564)
(-0.0120962 0.609697 0.000105748)
(-0.00430891 0.399065 3.77486e-05)
(-0.000154904 0.146429 2.01878e-06)
(-0.241253 -0.257749 0.00210597)
(-0.239804 -0.0360827 0.00209336)
(-0.236181 0.168225 0.00206177)
(-0.230374 0.354974 0.00201111)
(-0.222434 0.523836 0.00194183)
(-0.212475 0.674366 0.00185493)
(-0.200666 0.806092 0.00175187)
(-0.187218 0.918444 0.00163452)
(-0.172373 1.01078 0.00150495)
(-0.156385 1.08239 0.0013654)
(-0.139524 1.13245 0.00121823)
(-0.122069 1.16002 0.00106587)
(-0.104324 1.16401 0.000910967)
(-0.0866154 1.14317 0.000756385)
(-0.0693056 1.09605 0.000605274)
(-0.0527909 1.02097 0.000461096)
(-0.0375322 0.916024 0.000327875)
(-0.024014 0.778962 0.000209837)
(-0.0128515 0.607161 0.000112351)
(-0.00458029 0.397408 4.01261e-05)
(-0.000165341 0.145826 2.15214e-06)
(-0.257715 -0.252263 0.00224968)
(-0.255689 -0.0319784 0.00223203)
(-0.251408 0.170987 0.0021947)
(-0.244885 0.35645 0.00213779)
(-0.23618 0.524107 0.00206184)
(-0.225411 0.673539 0.00196787)
(-0.212745 0.804288 0.00185733)
(-0.198392 0.915798 0.00173207)
(-0.182593 1.00743 0.00159418)
(-0.16561 1.07847 0.00144595)
(-0.14772 1.1281 0.0012898)
(-0.129217 1.15537 0.00112829)
(-0.110418 1.1592 0.000964184)
(-0.0916669 1.13834 0.000800499)
(-0.0733445 1.09133 0.000640547)
(-0.0558681 1.01652 0.000487974)
(-0.0397232 0.911998 0.000347015)
(-0.0254199 0.77552 0.000222123)
(-0.0136075 0.604472 0.00011896)
(-0.00485199 0.395651 4.25063e-05)
(-0.000175822 0.145186 2.28595e-06)
(-0.274671 -0.246676 0.0023977)
(-0.272001 -0.0278384 0.00237444)
(-0.267002 0.173732 0.00233084)
(-0.259703 0.357866 0.00226716)
(-0.250177 0.524282 0.00218403)
(-0.238545 0.67258 0.00208253)
(-0.224975 0.802322 0.0019641)
(-0.209677 0.912959 0.00183059)
(-0.192894 1.00386 0.00168411)
(-0.174891 1.07431 0.00152698)
(-0.155955 1.12348 0.0013617)
(-0.136391 1.15045 0.00119092)
(-0.116528 1.15411 0.00101754)
(-0.0967281 1.13323 0.000844697)
(-0.0773891 1.08635 0.00067587)
(-0.0589485 1.01182 0.000514879)
(-0.0419159 0.907744 0.000366169)
(-0.0268267 0.771882 0.000234416)
(-0.014364 0.60163 0.000125574)
(-0.00512392 0.393793 4.48885e-05)
(-0.000186344 0.144509 2.42017e-06)
(-0.292115 -0.241014 0.00254998)
(-0.288737 -0.0236848 0.00252054)
(-0.282958 0.176439 0.00247013)
(-0.274824 0.359201 0.00239917)
(-0.26442 0.524341 0.00230838)
(-0.251873 0.671474 0.0021989)
(-0.237354 0.800178 0.00207218)
(-0.221072 0.909914 0.00193009)
(-0.203274 1.00006 0.00177474)
(-0.184227 1.06989 0.00160849)
(-0.164228 1.1186 0.00143393)
(-0.143588 1.14525 0.00125377)
(-0.122653 1.14874 0.00107103)
(-0.101798 1.12784 0.000888971)
(-0.0814383 1.0811 0.000711234)
(-0.0620311 1.00687 0.000541805)
(-0.0441096 0.903263 0.000385333)
(-0.028234 0.76805 0.000246713)
(-0.0151208 0.598636 0.000132189)
(-0.005396 0.391835 4.7272e-05)
(-0.000196907 0.143795 2.55478e-06)
(-0.310041 -0.2353 0.00270648)
(-0.305888 -0.0195399 0.00267027)
(-0.299267 0.179087 0.00261251)
(-0.290241 0.360437 0.00253376)
(-0.278904 0.524264 0.00243483)
(-0.265393 0.670202 0.00231693)
(-0.24988 0.79784 0.00218154)
(-0.232577 0.906651 0.00203053)
(-0.213732 0.996014 0.00186605)
(-0.193618 1.06522 0.00169048)
(-0.172536 1.11345 0.00150647)
(-0.150809 1.13977 0.00131682)
(-0.128792 1.14309 0.00112463)
(-0.106875 1.12217 0.000933308)
(-0.0854909 1.07558 0.000746627)
(-0.0651151 1.00167 0.000568741)
(-0.0463036 0.898554 0.0004045)
(-0.0296413 0.764023 0.00025901)
(-0.0158775 0.595489 0.000138805)
(-0.00566814 0.389777 4.9656e-05)
(-0.000207507 0.143044 2.68973e-06)
(-0.328441 -0.229558 0.0028671)
(-0.323444 -0.0154266 0.00282354)
(-0.315919 0.181655 0.00275789)
(-0.305943 0.361552 0.00267084)
(-0.293621 0.524034 0.00256332)
(-0.279097 0.668747 0.00243657)
(-0.262547 0.795295 0.00229213)
(-0.244187 0.903158 0.00213189)
(-0.224265 0.991721 0.00195801)
(-0.203059 1.06028 0.00177292)
(-0.180877 1.10802 0.0015793)
(-0.158049 1.134 0.00138004)
(-0.134941 1.13715 0.00117833)
(-0.111958 1.11622 0.000977693)
(-0.0895455 1.06979 0.000782037)
(-0.0681992 0.996212 0.000595679)
(-0.048497 0.893616 0.000423661)
(-0.031048 0.759802 0.000271302)
(-0.0166339 0.59219 0.000145417)
(-0.00594023 0.387618 5.20397e-05)
(-0.000218144 0.142256 2.82501e-06)
(-0.347301 -0.223814 0.00303175)
(-0.341394 -0.0113684 0.00298024)
(-0.332903 0.18412 0.00290616)
(-0.321919 0.362526 0.00281032)
(-0.30856 0.523632 0.00269374)
(-0.292976 0.667094 0.00255774)
(-0.275348 0.792528 0.0024039)
(-0.255895 0.899423 0.00223411)
(-0.234868 0.98717 0.00205059)
(-0.212548 1.05507 0.00185577)
(-0.189248 1.10231 0.00165239)
(-0.165307 1.12795 0.00144341)
(-0.1411 1.13092 0.00123211)
(-0.117044 1.10999 0.00102211)
(-0.0936003 1.06372 0.00081745)
(-0.0712822 0.990501 0.000622607)
(-0.050689 0.888451 0.00044281)
(-0.0324536 0.755386 0.000283583)
(-0.0173897 0.588738 0.000152024)
(-0.00621217 0.385359 5.4422e-05)
(-0.000228816 0.141431 2.96059e-06)
(-0.366608 -0.218095 0.0032003)
(-0.359721 -0.00738918 0.00314024)
(-0.350202 0.186461 0.00305719)
(-0.338156 0.363341 0.00295207)
(-0.323708 0.52304 0.00282599)
(-0.307019 0.665227 0.00268035)
(-0.288275 0.789527 0.00251675)
(-0.267695 0.895435 0.00233713)
(-0.245535 0.982351 0.00214372)
(-0.222079 1.04958 0.00193899)
(-0.197645 1.09631 0.00172571)
(-0.172579 1.12161 0.00150691)
(-0.147265 1.1244 0.00128594)
(-0.12213 1.10347 0.00106653)
(-0.0976535 1.05739 0.000852848)
(-0.0743625 0.984537 0.000649512)
(-0.0528785 0.883058 0.000461937)
(-0.0338573 0.750775 0.000295849)
(-0.0181445 0.585134 0.000158623)
(-0.00648384 0.383 5.68019e-05)
(-0.000239519 0.140569 3.09641e-06)
(-0.386344 -0.212427 0.0033726)
(-0.378408 -0.00351313 0.00330338)
(-0.3678 0.188658 0.00321082)
(-0.354635 0.363976 0.00309595)
(-0.339051 0.522242 0.00295994)
(-0.321214 0.663131 0.00280428)
(-0.301315 0.786277 0.0026306)
(-0.279576 0.891184 0.00244087)
(-0.256258 0.977256 0.00223735)
(-0.231646 1.0438 0.00202252)
(-0.206063 1.09001 0.00179921)
(-0.17986 1.11497 0.00157049)
(-0.153431 1.11759 0.00133979)
(-0.127215 1.09666 0.00111094)
(-0.101703 1.05078 0.000888213)
(-0.0774386 0.978319 0.00067638)
(-0.0550643 0.877437 0.000481031)
(-0.0352585 0.74597 0.000308093)
(-0.0188979 0.581378 0.00016521)
(-0.00675511 0.380541 5.91784e-05)
(-0.000250252 0.13967 3.23244e-06)
(-0.406488 -0.206839 0.00354845)
(-0.397434 0.000235177 0.00346948)
(-0.385676 0.190687 0.00336689)
(-0.37134 0.364413 0.00324178)
(-0.354572 0.52122 0.00309545)
(-0.335545 0.660791 0.0029294)
(-0.314456 0.782767 0.00274533)
(-0.29153 0.88666 0.00254524)
(-0.267028 0.971877 0.00233138)
(-0.241241 1.03773 0.0021063)
(-0.214495 1.08342 0.00187284)
(-0.187146 1.10803 0.00163411)
(-0.159597 1.11049 0.00139363)
(-0.132295 1.08957 0.0011553)
(-0.105746 1.0439 0.000923522)
(-0.0805085 0.971847 0.000703194)
(-0.0572451 0.871589 0.000500083)
(-0.0366563 0.740971 0.000320307)
(-0.0196496 0.577471 0.000171781)
(-0.00702584 0.377982 6.15501e-05)
(-0.000261009 0.138734 3.36863e-06)
(-0.427014 -0.201358 0.00372765)
(-0.416775 0.00383102 0.00363833)
(-0.403807 0.192528 0.00352518)
(-0.388248 0.364632 0.0033894)
(-0.370251 0.519958 0.00323234)
(-0.349997 0.658194 0.00305557)
(-0.327684 0.778986 0.00286083)
(-0.303543 0.881852 0.00265012)
(-0.277836 0.966206 0.00242575)
(-0.250857 1.03137 0.00219026)
(-0.222935 1.07653 0.00194653)
(-0.194432 1.1008 0.00169773)
(-0.165756 1.10309 0.00144741)
(-0.137367 1.0822 0.00119959)
(-0.10978 1.03674 0.000958752)
(-0.0835703 0.965122 0.000729937)
(-0.0594196 0.865513 0.000519079)
(-0.0380499 0.735779 0.000332485)
(-0.0203991 0.573412 0.000178333)
(-0.00729588 0.375324 6.39157e-05)
(-0.000271787 0.137761 3.5049e-06)
(-0.447894 -0.196015 0.00390994)
(-0.436402 0.00724973 0.00380969)
(-0.422168 0.194159 0.00368547)
(-0.405336 0.364617 0.00353858)
(-0.386068 0.518441 0.00337042)
(-0.364549 0.655326 0.00318262)
(-0.340983 0.774923 0.00297694)
(-0.315602 0.876753 0.00275541)
(-0.288671 0.960237 0.00252034)
(-0.260484 1.0247 0.00227431)
(-0.231375 1.06934 0.00202023)
(-0.20171 1.09326 0.00176128)
(-0.171904 1.09539 0.0015011)
(-0.142426 1.07453 0.00124377)
(-0.113802 1.02931 0.000993878)
(-0.0866219 0.958143 0.000756591)
(-0.0615863 0.85921 0.000538007)
(-0.0394384 0.730394 0.000344618)
(-0.0211459 0.569202 0.000184861)
(-0.00756504 0.372566 6.62737e-05)
(-0.000282579 0.136752 3.64118e-06)
(-0.469094 -0.190836 0.00409502)
(-0.456285 0.0104669 0.00398327)
(-0.440728 0.19556 0.00384751)
(-0.422577 0.36435 0.00368911)
(-0.401998 0.516656 0.00350951)
(-0.379183 0.652176 0.00331038)
(-0.354336 0.770567 0.00309352)
(-0.327692 0.871354 0.00286097)
(-0.299519 0.953963 0.00261506)
(-0.270112 1.01772 0.00235837)
(-0.239807 1.06184 0.00209385)
(-0.208975 1.08541 0.00182472)
(-0.178037 1.08739 0.00155465)
(-0.147468 1.06658 0.0012878)
(-0.117808 1.02161 0.00102887)
(-0.0896609 0.950913 0.000783135)
(-0.0637436 0.852682 0.000556853)
(-0.0408208 0.724817 0.000356697)
(-0.0218894 0.564842 0.000191362)
(-0.00783316 0.36971 6.86225e-05)
(-0.000293378 0.135706 3.77738e-06)
(-0.490577 -0.185852 0.00428257)
(-0.476389 0.0134587 0.00415878)
(-0.459458 0.196711 0.00401103)
(-0.439943 0.363813 0.00384072)
(-0.418018 0.514586 0.00364937)
(-0.393875 0.648732 0.00343865)
(-0.367723 0.76591 0.0032104)
(-0.339798 0.865649 0.00296666)
(-0.310367 0.947379 0.00270978)
(-0.279729 1.01043 0.00244235)
(-0.248222 1.05403 0.00216733)
(-0.216219 1.07726 0.00188797)
(-0.184147 1.0791 0.001608)
(-0.15249 1.05834 0.00133165)
(-0.121797 1.01364 0.0010637)
(-0.0926848 0.94343 0.000809547)
(-0.0658898 0.845929 0.000575602)
(-0.0421959 0.719049 0.000368713)
(-0.0226291 0.560333 0.000197829)
(-0.00810002 0.366755 7.09603e-05)
(-0.000304178 0.134623 3.9134e-06)
(-0.512301 -0.181089 0.00447223)
(-0.496675 0.0162019 0.00433588)
(-0.478321 0.197593 0.00417571)
(-0.457404 0.362992 0.00399316)
(-0.434098 0.512222 0.00378976)
(-0.408603 0.644985 0.00356724)
(-0.381125 0.760943 0.00332741)
(-0.351902 0.85963 0.00307234)
(-0.321202 0.94048 0.00280439)
(-0.289325 1.00283 0.00252614)
(-0.25661 1.0459 0.00224057)
(-0.223434 1.0688 0.00195097)
(-0.190229 1.0705 0.00166111)
(-0.157485 1.04981 0.00137528)
(-0.125763 1.00539 0.00109834)
(-0.095691 0.935697 0.000835805)
(-0.0680231 0.838953 0.000594237)
(-0.0435628 0.713091 0.000380656)
(-0.0233645 0.555675 0.000204257)
(-0.00836543 0.363702 7.32853e-05)
(-0.000314968 0.133504 4.04913e-06)
(-0.534219 -0.176575 0.00466358)
(-0.517101 0.0186747 0.00451421)
(-0.49728 0.198188 0.00434124)
(-0.474925 0.361873 0.00414613)
(-0.450212 0.509549 0.00393044)
(-0.42334 0.640924 0.00369591)
(-0.39452 0.75566 0.00344436)
(-0.363986 0.853294 0.00317785)
(-0.332009 0.933264 0.00289874)
(-0.298887 0.994912 0.00260962)
(-0.264962 1.03747 0.00231349)
(-0.230613 1.06004 0.00201366)
(-0.196276 1.06161 0.00171392)
(-0.16245 1.041 0.00141863)
(-0.129703 0.996879 0.00113275)
(-0.0986768 0.927715 0.000861884)
(-0.0701415 0.831754 0.000612744)
(-0.0449201 0.706944 0.000392517)
(-0.0240949 0.55087 0.000210643)
(-0.00862915 0.360553 7.55957e-05)
(-0.000325741 0.13235 4.18446e-06)
(-0.556282 -0.172336 0.00485619)
(-0.537622 0.0208565 0.00469337)
(-0.516296 0.198481 0.00450726)
(-0.492472 0.360441 0.00429933)
(-0.466327 0.50656 0.00407114)
(-0.438062 0.636543 0.00382444)
(-0.407885 0.750054 0.00356105)
(-0.376031 0.846635 0.00328302)
(-0.34277 0.925726 0.0029927)
(-0.308401 0.986675 0.0026927)
(-0.273266 1.02871 0.002386)
(-0.237746 1.05097 0.00207595)
(-0.202282 1.05242 0.00176637)
(-0.167379 1.0319 0.00146168)
(-0.133613 0.988096 0.0011669)
(-0.101639 0.919486 0.00088776)
(-0.0722432 0.824334 0.000631104)
(-0.0462667 0.70061 0.000404284)
(-0.0248197 0.545919 0.000216978)
(-0.00889097 0.357307 7.78892e-05)
(-0.000336485 0.131159 4.31926e-06)
(-0.578433 -0.168395 0.00504958)
(-0.55819 0.0227286 0.00487294)
(-0.535325 0.198455 0.00467339)
(-0.510007 0.358687 0.00445242)
(-0.482412 0.503245 0.00421158)
(-0.45274 0.631834 0.00395259)
(-0.421197 0.744121 0.00367727)
(-0.388018 0.83965 0.00338768)
(-0.353471 0.917865 0.00308613)
(-0.317855 0.978118 0.00277524)
(-0.281512 1.01965 0.002458)
(-0.244825 1.04159 0.00213776)
(-0.20824 1.04293 0.0018184)
(-0.172266 1.02252 0.00150435)
(-0.137489 0.979045 0.00120075)
(-0.104575 0.911011 0.000913405)
(-0.074326 0.816696 0.000649299)
(-0.0476013 0.69409 0.000415946)
(-0.0255381 0.540822 0.000223259)
(-0.00915063 0.353965 8.01639e-05)
(-0.000347189 0.129932 4.45339e-06)
(-0.600614 -0.164774 0.00524323)
(-0.578753 0.0242743 0.00505246)
(-0.554323 0.198099 0.00483925)
(-0.527491 0.356601 0.00460507)
(-0.498433 0.499596 0.00435145)
(-0.467345 0.626793 0.00408011)
(-0.434432 0.737858 0.00379283)
(-0.399926 0.832337 0.00349164)
(-0.364094 0.90968 0.00317888)
(-0.327233 0.969243 0.00285713)
(-0.289688 1.01027 0.00252939)
(-0.251841 1.03191 0.00219902)
(-0.214142 1.03315 0.00186993)
(-0.177106 1.01285 0.00154662)
(-0.141327 0.96973 0.00123427)
(-0.107482 0.902292 0.000938794)
(-0.0763879 0.808841 0.000667312)
(-0.0489226 0.687385 0.000427492)
(-0.0262495 0.535581 0.000229478)
(-0.00940788 0.350528 8.24176e-05)
(-0.000357843 0.128671 4.58672e-06)
(-0.622763 -0.161491 0.0054366)
(-0.599256 0.0254793 0.00523147)
(-0.573242 0.197402 0.00500443)
(-0.544885 0.354174 0.00475692)
(-0.514356 0.49561 0.00449046)
(-0.481848 0.621417 0.00420673)
(-0.447564 0.731263 0.00390748)
(-0.411733 0.824696 0.00359474)
(-0.374621 0.90117 0.0032708)
(-0.336523 0.960048 0.00293824)
(-0.297782 1.00058 0.00260007)
(-0.258784 1.02192 0.00225965)
(-0.219981 1.02307 0.00192092)
(-0.181893 1.00291 0.00158843)
(-0.145122 0.960152 0.00126742)
(-0.110356 0.893333 0.000963898)
(-0.0784267 0.800771 0.000685122)
(-0.0502292 0.680499 0.000438909)
(-0.0269532 0.530199 0.00023563)
(-0.00966247 0.346998 8.46478e-05)
(-0.000368433 0.127374 4.71909e-06)
(-0.644815 -0.158563 0.00562912)
(-0.619644 0.0263323 0.00540946)
(-0.592034 0.196356 0.00516849)
(-0.562145 0.351401 0.00490762)
(-0.530143 0.491281 0.0046283)
(-0.496218 0.615703 0.00433219)
(-0.460568 0.724334 0.00402102)
(-0.423419 0.816726 0.00369677)
(-0.385034 0.892338 0.00336172)
(-0.345708 0.950537 0.00301844)
(-0.305783 0.990583 0.00266993)
(-0.265645 1.01163 0.00231956)
(-0.225749 1.0127 0.00197129)
(-0.186621 0.992687 0.00162972)
(-0.14887 0.950315 0.00130015)
(-0.113195 0.884136 0.000988689)
(-0.0804402 0.792489 0.000702711)
(-0.0515198 0.673433 0.000450186)
(-0.0276484 0.524675 0.000241707)
(-0.00991413 0.343375 8.68524e-05)
(-0.000378949 0.126043 4.85037e-06)
(-0.666701 -0.156001 0.00582019)
(-0.639857 0.0268247 0.00558593)
(-0.610649 0.194955 0.00533101)
(-0.579229 0.34828 0.00505678)
(-0.54576 0.486609 0.00476464)
(-0.510425 0.60965 0.00445623)
(-0.473418 0.717073 0.00413321)
(-0.434962 0.80843 0.00379755)
(-0.395316 0.883185 0.00345149)
(-0.354774 0.940712 0.0030976)
(-0.313678 0.980278 0.00273886)
(-0.272414 1.00105 0.00237866)
(-0.231439 1.00205 0.00202098)
(-0.191284 0.982195 0.00167044)
(-0.152567 0.940223 0.00133243)
(-0.115994 0.874703 0.00101314)
(-0.082426 0.783998 0.00072006)
(-0.0527929 0.66619 0.000461311)
(-0.0283344 0.519014 0.000247705)
(-0.0101626 0.339661 8.90291e-05)
(-0.000389376 0.124678 4.98039e-06)
(-0.688351 -0.153814 0.00600921)
(-0.659836 0.0269514 0.00576036)
(-0.629036 0.193197 0.00549154)
(-0.596094 0.344808 0.00520402)
(-0.561168 0.481594 0.00489917)
(-0.524436 0.603262 0.00457856)
(-0.486087 0.709481 0.00424383)
(-0.446339 0.799809 0.00389688)
(-0.405449 0.873714 0.00353996)
(-0.363707 0.930576 0.0031756)
(-0.321455 0.969669 0.00280677)
(-0.27908 0.990169 0.00243688)
(-0.237042 0.991118 0.00206991)
(-0.195877 0.971433 0.00171054)
(-0.156207 0.929878 0.00136423)
(-0.118751 0.865039 0.00103722)
(-0.0843821 0.775302 0.000737147)
(-0.0540472 0.658772 0.00047227)
(-0.0290105 0.513215 0.000253615)
(-0.0104076 0.335856 9.11753e-05)
(-0.000399703 0.123279 5.10902e-06)
(-0.709696 -0.152006 0.00619556)
(-0.679521 0.0267107 0.00593222)
(-0.647142 0.191081 0.00564962)
(-0.612696 0.340988 0.00534897)
(-0.576332 0.476239 0.00503156)
(-0.538222 0.59654 0.00469893)
(-0.49855 0.701563 0.00435264)
(-0.457529 0.790869 0.00399458)
(-0.415413 0.86393 0.00362696)
(-0.372491 0.920133 0.00325229)
(-0.329102 0.958762 0.00287354)
(-0.285635 0.979001 0.00249411)
(-0.242552 0.979906 0.00211802)
(-0.200392 0.960406 0.00174998)
(-0.159786 0.919285 0.00139549)
(-0.121462 0.855148 0.0010609)
(-0.086306 0.766402 0.000753955)
(-0.0552811 0.651182 0.000483053)
(-0.0296758 0.507282 0.000259431)
(-0.0106488 0.331963 9.32887e-05)
(-0.000409915 0.121847 5.23606e-06)
(-0.730662 -0.150577 0.0063786)
(-0.69885 0.0261044 0.00610098)
(-0.664917 0.188612 0.00580481)
(-0.628992 0.336824 0.00549124)
(-0.591214 0.470548 0.0051615)
(-0.551751 0.58949 0.00481704)
(-0.510779 0.693324 0.00445941)
(-0.46851 0.781614 0.00409046)
(-0.425191 0.853838 0.00371234)
(-0.38111 0.90939 0.00332755)
(-0.336607 0.947562 0.00293907)
(-0.292069 0.967549 0.00255029)
(-0.24796 0.96842 0.00216524)
(-0.204824 0.94912 0.00178868)
(-0.163301 0.908449 0.00142618)
(-0.124124 0.845033 0.00108415)
(-0.0881956 0.757303 0.000770461)
(-0.0564933 0.643423 0.000493645)
(-0.0303297 0.501217 0.000265148)
(-0.0108861 0.327982 9.5367e-05)
(-0.000420001 0.120383 5.3614e-06)
(-0.751178 -0.149522 0.00655772)
(-0.717763 0.0251381 0.0062661)
(-0.68231 0.185794 0.00595665)
(-0.644937 0.332322 0.00563045)
(-0.605778 0.464527 0.00528865)
(-0.564992 0.582118 0.00493265)
(-0.522751 0.68477 0.00456394)
(-0.47926 0.772051 0.00418432)
(-0.434766 0.843444 0.00379594)