/*--------------------------------*- C++ -*----------------------------------*\
| =========                 |                                                 |
| \\      /  F ield         | OpenFOAM: The Open Source CFD Toolbox           |
|  \\    /   O peration     | Version:  v2012                                 |
|   \\  /    A nd           | Website:  www.openfoam.com                      |
|    \\/     M anipulation  |                                                 |
\*---------------------------------------------------------------------------*/
FoamFile
{
    version     2.0;
    format      ascii;
    class       surfaceScalarField;
    location    "0.7";
    object      alphaPhi0.water;
}
// * * * * * * * * * * * * * * * * * * * * * * * * * * * * * * * * * * * * * //

dimensions      [0 3 -1 0 0 0 0];
oriented        oriented;


internalField   nonuniform List<scalar> 
8048
(
-1.45806e-12
-7.52478e-09
-2.00752e-15
3.66287e-11
-2.29663e-08
-1.22591e-14
3.53799e-10
-4.18202e-08
-7.69783e-15
1.20108e-09
-6.75382e-08
-7.22689e-15
2.07101e-09
-9.73886e-08
-3.20938e-15
2.22362e-09
-1.21351e-07
-7.8297e-15
1.6872e-09
-1.22958e-07
-2.5026e-14
-7.82765e-08
-2.79962e-14
-1.28517e-12
-7.52349e-09
-3.20693e-15
4.46024e-11
-2.30121e-08
-9.00159e-15
3.75773e-10
-4.21513e-08
-1.33309e-15
1.34306e-09
-6.85055e-08
-3.28558e-15
2.1928e-09
-9.82384e-08
-1.92274e-14
2.21861e-09
-1.21377e-07
6.7939e-15
1.57685e-09
-1.22316e-07
-1.61688e-14
-1.41749e-09
-7.52393e-08
-3.31391e-14
-3.65442e-09
-6.60411e-08
-4.53387e-14
-5.50586e-09
-5.00503e-08
-5.10144e-14
-4.77165e-09
-2.83967e-08
-2.64958e-14
-2.41235e-09
-1.24646e-08
-7.86698e-15
-6.66151e-10
-4.82431e-09
-1.61771e-15
-9.05837e-11
-1.15991e-09
-2.8531e-16
-1.52047e-10
-2.95879e-17
-7.21725e-13
-7.52278e-09
-2.89686e-15
5.59575e-11
-2.30688e-08
-7.62153e-15
4.28197e-10
-4.25236e-08
-1.12279e-14
1.51172e-09
-6.9589e-08
-1.22165e-14
2.2769e-09
-9.90035e-08
-1.68333e-14
2.13421e-09
-1.21234e-07
2.04786e-15
1.37523e-09
-1.21557e-07
-2.90694e-14
-1.43418e-09
-7.2393e-08
-2.52214e-14
-3.63232e-09
-6.31811e-08
-4.53378e-14
-5.43084e-09
-4.66846e-08
-5.16467e-14
-4.60052e-09
-2.70566e-08
-2.4334e-14
-2.2369e-09
-1.13741e-08
-7.00507e-15
-6.06095e-10
-4.2498e-09
-1.51274e-15
-8.26804e-11
-1.00675e-09
-2.48946e-16
-1.3266e-10
-2.88003e-17
2.34211e-13
-7.52302e-09
-2.21847e-15
7.06111e-11
-2.31392e-08
-7.90854e-15
5.14856e-10
-4.29678e-08
-9.94936e-15
1.6832e-09
-7.07573e-08
-8.63441e-15
2.26889e-09
-9.95892e-08
-1.20807e-14
1.90887e-09
-1.20874e-07
-1.24191e-14
1.03266e-09
-1.2068e-07
-2.81758e-14
-1.41269e-09
-6.99175e-08
-2.24851e-14
-3.56111e-09
-6.04236e-08
-4.24812e-14
-5.30748e-09
-4.32276e-08
-4.9952e-14
-4.38035e-09
-2.54548e-08
-2.25864e-14
-2.05741e-09
-1.03274e-08
-7.23329e-15
-5.47948e-10
-3.73245e-09
-1.54181e-15
-7.49904e-11
-8.7128e-10
-2.3907e-16
-1.15313e-10
-2.75235e-17
1.47985e-12
-7.5245e-09
-3.30887e-15
8.76619e-11
-2.32254e-08
-7.40267e-15
6.31495e-10
-4.35116e-08
-1.12115e-14
1.81131e-09
-7.19371e-08
-1.02979e-14
2.09715e-09
-9.9875e-08
-9.60363e-15
1.46781e-09
-1.20245e-07
-7.95227e-16
4.79554e-10
-1.19692e-07
-1.21274e-14
-1.37618e-09
-6.80396e-08
-1.04252e-14
-3.47273e-09
-5.77406e-08
-3.8928e-14
-5.13994e-09
-3.9702e-08
-4.40421e-14
-4.11174e-09
-2.35421e-08
-2.11448e-14
-1.87567e-09
-9.33218e-09
-7.27471e-15
-4.91909e-10
-3.26887e-09
-1.48153e-15
-6.75493e-11
-7.51995e-10
-2.26427e-16
-9.98653e-11
-2.52411e-17
2.92989e-12
-7.52743e-09
-1.17811e-15
1.06101e-10
-2.33286e-08
-5.29236e-15
7.63347e-10
-4.41689e-08
-9.13969e-15
1.83591e-09
-7.30096e-08
-1.23982e-14
1.69801e-09
-9.97371e-08
-1.2666e-14
7.51012e-10
-1.19298e-07
2.17072e-15
-3.24918e-10
-1.18616e-07
-6.16308e-15
-1.33253e-09
-6.7019e-08
-1.83681e-15
-3.34554e-09
-5.51645e-08
-3.30587e-14
-4.89144e-09
-3.61784e-08
-3.56657e-14
-3.79909e-09
-2.13581e-08
-1.86478e-14
-1.69376e-09
-8.39495e-09
-6.6381e-15
-4.38243e-10
-2.85532e-09
-1.37014e-15
-6.03947e-11
-6.47419e-10
-2.11634e-16
-8.61785e-11
-2.28031e-17
4.31316e-12
-7.53174e-09
-5.08821e-15
1.2353e-10
-2.34478e-08
-7.40395e-15
8.8171e-10
-4.49271e-08
-9.54217e-15
1.70025e-09
-7.38282e-08
-1.45219e-14
1.05229e-09
-9.90891e-08
-1.41954e-14
-2.42007e-10
-1.18003e-07
4.51704e-15
-1.3045e-09
-1.17554e-07
-4.36102e-15
-1.26169e-09
-6.70584e-08
1.9611e-15
-3.18201e-09
-5.28319e-08
-2.5548e-14
-4.55953e-09
-3.27707e-08
-2.66426e-14
-3.45568e-09
-1.90281e-08
-1.42803e-14
-1.51464e-09
-7.51893e-09
-5.1854e-15
-3.87389e-10
-2.48773e-09
-1.1403e-15
-5.35766e-11
-5.56136e-10
-1.80091e-16
-7.41146e-11
-2.0036e-17
5.60265e-12
-7.53735e-09
-9.83842e-16
1.38983e-10
-2.35812e-08
-3.87651e-15
9.59154e-10
-4.57472e-08
-8.72167e-15
1.38535e-09
-7.42543e-08
-1.08995e-14
2.11206e-10
-9.7915e-08
-1.78189e-14
-1.4433e-09
-1.16349e-07
-6.88371e-15
-2.37388e-09
-1.16623e-07
2.14943e-15
-1.13812e-09
-6.82966e-08
-3.40045e-15
-2.9946e-09
-5.07177e-08
-2.3118e-14
-4.15964e-09
-2.96265e-08
-2.09016e-14
-3.09812e-09
-1.66991e-08
-1.08776e-14
-1.34135e-09
-6.70363e-09
-3.86493e-15
-3.39802e-10
-2.16189e-09
-8.88832e-16
-4.7147e-11
-4.76811e-10
-1.45319e-16
-6.3539e-11
-1.65494e-17
6.53827e-12
-7.54388e-09
-4.08507e-15
1.51543e-10
-2.37262e-08
-8.37738e-15
9.71895e-10
-4.65676e-08
-6.10042e-15
9.03552e-10
-7.4186e-08
-1.19183e-14
-7.46753e-10
-9.62646e-08
-1.91499e-14
-2.74472e-09
-1.14351e-07
-1.32956e-14
-3.47548e-09
-1.15893e-07
7.37215e-15
-9.32976e-10
-7.08425e-08
5.5691e-15
-2.79522e-09
-4.87141e-08
-2.41892e-14
-3.72051e-09
-2.68812e-08
-1.76826e-14
-2.74091e-09
-1.44853e-08
-9.00876e-15
-1.17654e-09
-5.94566e-09
-3.19729e-15
-2.95829e-10
-1.87386e-09
-7.24117e-16
-4.11519e-11
-4.08224e-10
-1.20625e-16
-5.43265e-11
-1.42559e-17
7.19857e-12
-7.55108e-09
-3.14869e-15
1.63709e-10
-2.38827e-08
-5.48781e-15
9.08631e-10
-4.73125e-08
-3.32925e-15
2.97512e-10
-7.35748e-08
-1.50504e-14
-1.73084e-09
-9.42363e-08
-2.11869e-14
-3.99636e-09
-1.12086e-07
-2.41903e-14
-4.4883e-09
-1.15401e-07
2.04371e-14
-5.74075e-10
-7.47575e-08
-2.47509e-14
-2.59745e-09
-4.67074e-08
-2.3902e-14
-3.27852e-09
-2.47184e-08
-1.6337e-14
-2.3971e-09
-1.24734e-08
-8.15347e-15
-1.02263e-09
-5.23987e-09
-2.76108e-15
-2.55694e-10
-1.62052e-09
-5.79552e-16
-3.56273e-11
-3.493e-10
-1.02005e-16
-4.63656e-11
-1.18895e-17
7.65352e-12
-7.55873e-09
-2.31687e-15
1.78942e-10
-2.4054e-08
-7.73635e-15
7.63899e-10
-4.78975e-08
-2.84935e-15
-3.75927e-10
-7.2435e-08
-1.41966e-14
-2.65353e-09
-9.19586e-08
-1.14306e-14
-5.06447e-09
-1.09675e-07
-3.19868e-14
-5.3625e-09
-1.15103e-07
-8.17163e-15
-9.26451e-11
-8.00289e-08
5.19824e-15
-2.44286e-09
-4.45127e-08
-1.73985e-14
-2.88269e-09
-2.31016e-08
-1.59018e-14
-2.08144e-09
-1.07719e-08
-7.13316e-15
-8.82312e-10
-4.58184e-09
-2.84267e-15
-2.19608e-10
-1.40064e-09
-5.78614e-16
-3.06016e-11
-2.99277e-10
-1.01829e-16
-3.95709e-11
-1.07116e-17
8.17819e-12
-7.56691e-09
-2.60566e-15
1.97424e-10
-2.42433e-08
-8.18128e-15
5.29298e-10
-4.82294e-08
-5.95295e-16
-1.07841e-09
-7.08273e-08
-1.587e-14
-3.50646e-09
-8.95306e-08
-1.78791e-14
-5.96554e-09
-1.07216e-07
-3.14013e-14
-6.339e-09
-1.1473e-07
-1.46187e-15
-9.11793e-11
-8.62838e-08
-4.37438e-15
-2.44971e-09
-4.24184e-08
-2.01772e-14
-2.59779e-09
-2.19453e-08
-1.42317e-14
-1.80945e-09
-9.56529e-09
-6.49259e-15
-7.57707e-10
-3.98625e-09
-2.58047e-15
-1.87628e-10
-1.21486e-09
-5.322e-16
-2.60834e-11
-2.5782e-10
-9.22409e-17
-3.3887e-11
-9.53758e-18
8.82967e-12
-7.57574e-09
-1.77926e-15
2.05287e-10
-2.44397e-08
-7.05822e-15
1.79089e-10
-4.82032e-08
-4.06617e-15
-1.82064e-09
-6.88275e-08
-1.94515e-14
-4.36993e-09
-8.69812e-08
-1.58932e-14
-6.90951e-09
-1.04676e-07
-7.57213e-15
-7.88333e-09
-1.13756e-07
2.05631e-14
-1.86758e-09
-9.23021e-08
-4.6934e-14
-2.87084e-09
-4.17894e-08
-2.59627e-14
-2.49488e-09
-2.26429e-08
-1.24853e-14
-1.59647e-09
-8.99219e-09
-6.0148e-15
-6.50533e-10
-3.554e-09
-2.08829e-15
-1.59643e-10
-1.06739e-09
-4.55568e-16
-2.20603e-11
-2.25064e-10
-7.60682e-17
-2.92882e-11
-8.77197e-18
9.19179e-12
-7.58492e-09
-4.17434e-15
1.80067e-10
-2.46106e-08
-1.11012e-14
-2.77495e-10
-4.77456e-08
-5.95238e-15
-2.53596e-09
-6.65691e-08
-9.95172e-15
-5.15413e-09
-8.4363e-08
-5.1977e-15
-7.83771e-09
-1.01992e-07
-1.88076e-14
-9.73885e-09
-1.11855e-07
-2.64423e-14
-5.57875e-09
-9.64624e-08
-1.87795e-14
-3.44628e-09
-4.42066e-08
-1.95326e-14
-2.42811e-09
-2.52033e-08
-9.72982e-15
-1.42221e-09
-8.82068e-09
-4.77655e-15
-5.56849e-10
-3.41478e-09
-1.96563e-15
-1.34746e-10
-9.7619e-10
-5.69855e-16
-1.84628e-11
-2.01171e-10
-7.91876e-17
-2.57457e-11
-9.95507e-18
8.97059e-12
-7.5939e-09
1.37399e-15
1.18068e-10
-2.47197e-08
-6.09416e-15
-7.17834e-10
-4.69097e-08
-1.02683e-14
-2.97145e-09
-6.43155e-08
-1.33862e-14
-5.42592e-09
-8.19085e-08
-7.45785e-16
-7.97104e-09
-9.94473e-08
-1.97428e-14
-1.0201e-08
-1.09625e-07
-3.10677e-14
-7.9808e-09
-9.86825e-08
2.3952e-15
-2.5464e-09
-4.97208e-08
1.15328e-14
-2.09754e-09
-2.76757e-08
-7.82425e-16
-1.21234e-09
-9.35869e-09
-4.64302e-15
-4.68208e-10
-3.39005e-09
-1.73268e-15
-1.11625e-10
-9.62032e-10
-5.11346e-16
-1.51803e-11
-1.86585e-10
-6.37379e-17
-2.31537e-11
-9.65896e-18
8.07906e-12
-7.60197e-09
-4.75005e-15
4.58548e-11
-2.47575e-08
-7.46489e-15
-9.76666e-10
-4.58872e-08
-7.86611e-15
-2.91273e-09
-6.23794e-08
-1.67091e-14
-4.86132e-09
-7.99599e-08
-1.99436e-14
-6.69702e-09
-9.76117e-08
-9.3019e-15
-8.10969e-09
-1.08212e-07
-2.49248e-14
-6.20642e-09
-1.00586e-07
-1.48019e-14
1.16811e-09
-5.71012e-08
4.1041e-14
-1.39614e-09
-2.67087e-08
6.7884e-15
-9.34188e-10
-1.08268e-08
-5.33834e-15
-3.73576e-10
-3.51431e-09
-1.69453e-15
-9.02414e-11
-9.57043e-10
-4.64704e-16
-1.21917e-11
-1.82266e-10
-6.04576e-17
-2.12913e-11
-9.36264e-18
7.21789e-12
-7.6092e-09
3.77545e-15
-6.18398e-12
-2.47441e-08
-3.79835e-15
-1.00664e-09
-4.48867e-08
-1.01875e-14
-2.46477e-09
-6.09213e-08
-1.60926e-14
-3.75191e-09
-7.86727e-08
-1.2841e-14
-4.64786e-09
-9.67158e-08
-1.13749e-14
-4.76172e-09
-1.08098e-07
-1.44174e-14
-2.40998e-09
-1.02937e-07
-1.30537e-14
5.05011e-09
-6.45613e-08
8.30655e-15
-9.79481e-11
-2.22692e-08
-4.13042e-15
-6.01203e-10
-1.24967e-08
-5.35186e-15
-2.74762e-10
-3.7857e-09
-1.7623e-15
-6.99492e-11
-9.84876e-10
-4.97409e-16
-9.51599e-12
-1.78598e-10
-6.99667e-17
-1.99241e-11
-8.64678e-18
6.56324e-12
-7.61576e-09
-3.33958e-15
-3.05525e-11
-2.47069e-08
-7.09409e-15
-8.95563e-10
-4.40217e-08
-1.14196e-14
-1.92611e-09
-5.98908e-08
-1.52035e-14
-2.66556e-09
-7.79332e-08
-6.44238e-15
-2.88507e-09
-9.64963e-08
-2.06048e-14
-2.09616e-09
-1.08887e-07
-1.57858e-14
1.87013e-10
-1.0522e-07
-2.63482e-14
6.02921e-09
-7.04035e-08
-7.43358e-15
1.815e-09
-1.82422e-08
-1.67306e-14
-1.79784e-10
-1.32781e-08
-5.15344e-15
-1.70021e-10
-4.1636e-09
-1.6676e-15
-5.01275e-11
-1.02752e-09
-4.2131e-16
-7.11427e-12
-1.78437e-10
-6.08486e-17
-1.89958e-11
-6.27033e-18
6.4281e-12
-7.62219e-09
7.18681e-16
-3.54407e-11
-2.46651e-08
-6.3981e-15
-7.49512e-10
-4.33076e-08
-1.09489e-14
-1.48514e-09
-5.91551e-08
-1.33618e-14
-1.86984e-09
-7.75485e-08
-5.99533e-15
-1.73494e-09
-9.66313e-08
-1.5922e-14
-6.07568e-10
-1.10015e-07
-1.2992e-14
1.36552e-09
-1.07194e-07
-2.18358e-14
5.65479e-09
-7.46927e-08
-2.15462e-14
3.24932e-09
-1.58985e-08
1.22921e-14
4.95927e-10
-1.29451e-08
-4.81481e-16
-5.31698e-11
-4.60319e-09
-1.80167e-15
-2.9971e-11
-1.07785e-09
-4.48593e-16
-4.91733e-12
-1.78963e-10
-6.67228e-17
-1.80591e-11
-6.06223e-18
6.6048e-12
-7.6288e-09
-2.17049e-15
-3.2275e-11
-2.46262e-08
-7.68503e-15
-6.31792e-10
-4.27081e-08
-9.08776e-15
-1.18627e-09
-5.86007e-08
-1.41819e-14
-1.36082e-09
-7.73739e-08
-7.34024e-15
-1.05084e-09
-9.69413e-08
-1.58532e-14
1.12395e-10
-1.11178e-07
-7.98147e-15
1.88844e-09
-1.0897e-07
-2.4907e-14
5.09456e-09
-7.78988e-08
-3.03784e-14
4.12661e-09
-1.49306e-08
1.04104e-14
1.30336e-09
-1.20766e-08
2.454e-16
9.24995e-11
-4.93836e-09
-1.90284e-15
-9.8456e-12
-1.13569e-09
-4.49972e-16
-2.92605e-12
-1.79959e-10
-6.65557e-17
-1.72339e-11
-6.09175e-18
6.99797e-12
-7.6358e-09
-7.17663e-16
-3.06642e-11
-2.45885e-08
-7.10675e-15
-5.67717e-10
-4.21711e-08
-1.01403e-14
-1.01441e-09
-5.8154e-08
-1.16136e-14
-1.0701e-09
-7.73182e-08
-8.60896e-15
-6.92337e-10
-9.7319e-08
-1.64178e-14
3.79926e-10
-1.1225e-07
-7.04162e-15
1.869e-09
-1.10459e-07
-1.48771e-14
4.23414e-09
-8.02639e-08
-3.67786e-14
4.49673e-09
-1.51933e-08
-4.06849e-15
2.00404e-09
-1.11963e-08
-2.30387e-15
2.81468e-10
-5.13388e-09
-1.83387e-15
1.33127e-11
-1.19512e-09
-3.85278e-16
-1.12485e-12
-1.8263e-10
-5.5388e-17
-1.65438e-11
-5.89482e-18
7.36154e-12
-7.64316e-09
-1.87245e-15
-3.86688e-11
-2.45425e-08
-8.65326e-15
-5.53768e-10
-4.1656e-08
-6.69742e-15
-9.13517e-10
-5.77943e-08
-1.22769e-14
-8.79497e-10
-7.73521e-08
-9.61845e-15
-4.63704e-10
-9.77349e-08
-1.25849e-14
4.90318e-10
-1.13204e-07
-3.45305e-15
1.68687e-09
-1.11655e-07
-9.08809e-15
3.40649e-09
-8.19834e-08
-2.36179e-14
4.74332e-09
-1.65301e-08
-2.21929e-15
2.61999e-09
-1.05132e-08
-1.14097e-15
5.06971e-10
-5.29678e-09
-1.72518e-15
4.2057e-11
-1.26195e-09
-3.86228e-16
8.8843e-13
-1.86968e-10
-5.13089e-17
-1.62182e-11
-5.73241e-18
7.55746e-12
-7.65072e-09
-1.12296e-15
-5.86632e-11
-2.44763e-08
-8.19317e-15
-5.55688e-10
-4.1159e-08
-8.66632e-15
-7.92983e-10
-5.7557e-08
-1.16195e-14
-6.34186e-10
-7.75109e-08
-1.28119e-14
-1.24816e-10
-9.82442e-08
-1.10211e-14
8.05476e-10
-1.14135e-07
-5.09511e-15
1.84662e-09
-1.12696e-07
-5.26743e-15
3.13689e-09
-8.32737e-08
-1.71317e-14
5.3891e-09
-1.87824e-08
-2.80368e-15
3.32116e-09
-9.76865e-09
2.20059e-15
8.00094e-10
-5.54538e-09
-9.97246e-16
7.7099e-11
-1.36257e-09
-3.62576e-16
3.69388e-12
-1.94197e-10
-4.68862e-17
-1.62644e-11
-5.16079e-18
7.33554e-12
-7.65805e-09
-2.28468e-15
-8.56155e-11
-2.43833e-08
-8.90895e-15
-5.26613e-10
-4.0718e-08
-9.73138e-15
-5.76762e-10
-5.75068e-08
-1.11091e-14
-2.25399e-10
-7.78623e-08
1.35045e-15
4.78385e-10
-9.8948e-08
-1.77981e-14
1.54862e-09
-1.15205e-07
-1.44933e-14
2.68171e-09
-1.1383e-07
-3.87736e-15
3.98241e-09
-8.45743e-08
-2.52515e-14
7.01287e-09
-2.1813e-08
-6.00208e-15
4.31041e-09
-8.09764e-09
8.20846e-15
1.24744e-09
-5.81133e-09
1.21421e-16
1.26746e-10
-1.54652e-09
-2.44004e-16
6.85984e-12
-2.07877e-10
-3.91672e-17
-1.66804e-11
-4.64981e-18
6.78024e-12
-7.66483e-09
-1.21938e-15
-1.07013e-10
-2.42695e-08
-8.09857e-15
-4.3212e-10
-4.03929e-08
-8.95212e-15
-2.48033e-10
-5.76909e-08
-1.16036e-14
3.42227e-10
-7.84526e-08
-6.19122e-16
1.31414e-09
-9.99199e-08
-1.94328e-14
2.65967e-09
-1.1655e-07
-2.43013e-14
4.13068e-09
-1.15301e-07
-8.43794e-15
5.8839e-09
-8.63274e-08
-3.48653e-14
9.61665e-09
-2.55457e-08
-1.63904e-14
5.62179e-09
-4.67059e-09
-2.3231e-15
1.96516e-09
-5.62463e-09
-4.18189e-16
2.12698e-10
-1.84487e-09
-1.66895e-16
1.08677e-11
-2.35359e-10
-3.46467e-17
-1.76093e-11
-4.68132e-18
6.0634e-12
-7.6709e-09
-1.9315e-15
-1.12375e-10
-2.41511e-08
-6.51323e-15
-2.78636e-10
-4.02266e-08
-1.10787e-14
1.27502e-10
-5.80971e-08
-1.09795e-14
9.32279e-10
-7.92573e-08
-9.38748e-15
2.14436e-09
-1.01132e-07
-6.41741e-15
3.74057e-09
-1.18147e-07
-9.1563e-15
5.55203e-09
-1.17112e-07
-6.34912e-15
7.6343e-09
-8.84097e-08
1.043e-14
1.17572e-08
-2.96686e-08
1.05656e-14
6.94783e-09
-8.39782e-11
6.22478e-15
2.93871e-09
-4.49143e-09
6.20706e-16
3.77454e-10
-2.15849e-09
-5.25693e-17
1.71217e-11
-2.79869e-17
-4.25465e-18
5.56347e-12
-7.67646e-09
-2.18519e-15
-9.84397e-11
-2.40471e-08
-6.65685e-15
-1.03212e-10
-4.02218e-08
-9.6243e-15
4.55506e-10
-5.86558e-08
-1.01347e-14
1.38632e-09
-8.01881e-08
-1.01102e-14
2.70946e-09
-1.02455e-07
-9.60617e-15
4.37906e-09
-1.19816e-07
-1.20722e-14
6.25244e-09
-1.18985e-07
-8.91862e-15
8.07695e-09
-9.02342e-08
-1.33953e-14
1.19144e-08
-3.3506e-08
-7.80351e-15
7.79508e-09
3.96099e-09
-4.45967e-15
3.91731e-09
-2.57656e-09
1.29788e-15
-2.26068e-09
8.98328e-17
5.41932e-12
-7.68188e-09
-1.97327e-15
-7.00739e-11
-2.39716e-08
-6.1757e-15
5.34116e-11
-4.03453e-08
-1.04933e-14
6.77948e-10
-5.92803e-08
-9.80022e-15
1.63016e-09
-8.11404e-08
-1.03009e-14
2.91837e-09
-1.03743e-07
-1.1259e-14
4.48109e-09
-1.21379e-07
-1.69278e-14
6.12857e-09
-1.20633e-07
-7.41212e-15
7.37192e-09
-9.14775e-08
-8.69177e-15
1.03244e-08
-3.64585e-08
5.0007e-16
7.88673e-09
6.38333e-09
-5.40629e-15
4.60331e-09
-5.23444e-10
3.2832e-15
-2.02329e-09
1.85413e-16
5.69088e-12
-7.68757e-09
-2.67443e-15
-3.457e-11
-2.39313e-08
-7.33035e-15
1.68541e-10
-4.05484e-08
-6.97109e-15
7.88815e-10
-5.99006e-08
-7.23647e-15
1.67977e-09
-8.20313e-08
-1.32353e-14
2.83641e-09
-1.049e-07
-8.86213e-15
4.19372e-09
-1.22736e-07
-1.40736e-14
5.49856e-09
-1.21938e-07
-1.22197e-14
6.20986e-09
-9.21888e-08
-9.60306e-15
8.13815e-09
-3.83869e-08
-4.41304e-15
7.3112e-09
7.21027e-09
2.4157e-15
4.88326e-09
1.13789e-09
4.59862e-15
-1.53113e-09
2.97912e-16
6.30843e-12
-7.69388e-09
-1.93715e-15
7.86256e-13
-2.39258e-08
-6.34273e-15
2.36154e-10
-4.07838e-08
-1.30028e-14
8.08118e-10
-6.04726e-08
-5.77594e-15
1.59208e-09
-8.28153e-08
-7.60021e-15
2.5777e-09
-1.05886e-07
-1.66952e-14
3.7069e-09
-1.23866e-07
-8.81663e-15
4.69198e-09
-1.22923e-07
-1.21995e-14
5.02006e-09
-9.25169e-08
-1.09252e-14
6.09981e-09
-3.94667e-08
-4.8369e-15
6.38017e-09
6.92987e-09
-1.66643e-15
4.81547e-09
2.19844e-09
1.05462e-15
-9.64003e-10
1.93264e-16
7.08412e-12
-7.70096e-09
-3.01404e-15
3.05805e-11
-2.39493e-08
-7.82773e-15
2.62804e-10
-4.1016e-08
-8.27904e-15
7.66425e-10
-6.09763e-08
-1.45348e-15
1.4291e-09
-8.3478e-08
-9.07482e-15
2.24419e-09
-1.06701e-07
-1.18173e-14
3.16901e-09
-1.2479e-07
2.79005e-15
3.91424e-09
-1.23668e-07
4.55093e-16
4.00577e-09
-9.26084e-08
-8.02963e-15
4.47112e-09
-3.9932e-08
-7.64036e-15
5.44044e-09
5.96053e-09
4.22384e-15
4.55727e-09
2.72254e-09
1.49777e-15
-4.54657e-10
3.70091e-16
7.84585e-12
-7.70881e-09
-1.90462e-15
5.16833e-11
-2.39931e-08
-7.0265e-15
2.60104e-10
-4.12244e-08
-8.31343e-15
6.92086e-10
-6.14083e-08
-6.94288e-15
1.2388e-09
-8.40247e-08
-1.92459e-14
1.9035e-09
-1.07365e-07
-4.70915e-15
2.6645e-09
-1.25551e-07
-5.58487e-14
3.24661e-09
-1.2425e-07
5.18153e-15
3.20416e-09
-9.25659e-08
-1.6918e-14
3.22395e-09
-3.99517e-08
-1.93832e-15
4.61563e-09
4.56889e-09
4.67251e-15
4.22383e-09
2.84186e-09
2.9974e-15
-6.81726e-11
5.71321e-16
8.36501e-12
-7.71717e-09
-3.22767e-15
6.27966e-11
-2.40476e-08
-8.11287e-15
2.39697e-10
-4.14013e-08
-5.65091e-15
6.05758e-10
-6.17743e-08
-4.11516e-15
1.05076e-09
-8.44697e-08
-2.22534e-14
1.591e-09
-1.07906e-07
-1.23464e-15
2.2306e-09
-1.26191e-07
-2.26213e-14
2.7115e-09
-1.24731e-07
3.34329e-14
2.62439e-09
-9.24788e-08
-9.72339e-15
2.34273e-09
-3.96701e-08
1.81317e-14
3.91954e-09
2.99202e-09
2.75445e-14
3.88235e-09
2.66948e-09
8.38451e-15
1.83273e-10
1.24521e-15
8.50259e-12
-7.72568e-09
-1.95025e-15
6.44146e-11
-2.41035e-08
-6.80111e-15
2.10437e-10
-4.15474e-08
-6.51509e-15
5.19406e-10
-6.20833e-08
-4.10347e-15
8.78592e-10
-8.48289e-08
-1.34668e-14
1.31844e-09
-1.08345e-07
-9.71329e-15
1.86899e-09
-1.26741e-07
-2.056e-14
2.28249e-09
-1.25145e-07
-1.55107e-14
2.17644e-09
-9.23727e-08
-2.74979e-14
1.54144e-09
-3.90352e-08
-2.43589e-14
3.13191e-09
1.40133e-09
-3.68863e-14
3.46807e-09
2.1728e-09
-7.33689e-15
2.7403e-10
-1.18747e-15
8.05488e-12
-7.73373e-09
-2.97217e-15
5.83196e-11
-2.41537e-08
-7.18386e-15
1.78369e-10
-4.16674e-08
-7.08449e-15
4.39067e-10
-6.2344e-08
-4.50964e-15
7.26218e-10
-8.5116e-08
-1.7495e-14
1.08585e-09
-1.08705e-07
-6.86925e-15
1.57196e-09
-1.27228e-07
-8.25871e-15
1.95571e-09
-1.25528e-07
-9.16125e-15
1.92249e-09
-9.23395e-08
-7.45993e-15
1.09567e-09
-3.82084e-08
-1.02467e-15
2.24277e-09
2.54152e-10
-2.62801e-14
2.89489e-09
1.4067e-09
-4.51357e-15
2.16209e-10
-9.82726e-16
6.9271e-12
-7.74066e-09
-2.17327e-15
4.66818e-11
-2.41935e-08
-7.75017e-15
1.46438e-10
-4.17672e-08
-6.26845e-15
3.65393e-10
-6.2563e-08
-4.19933e-15
5.90228e-10
-8.53408e-08
-1.36475e-14
8.82792e-10
-1.08998e-07
-1.1273e-14
1.31188e-09
-1.27657e-07
-1.17294e-14
1.657e-09
-1.25874e-07
-2.08865e-14
1.6106e-09
-9.22931e-08
6.07137e-16
5.13353e-10
-3.71112e-08
-1.12461e-15
1.15174e-09
-3.85661e-10
-1.23982e-14
1.97241e-09
4.81724e-10
-9.16905e-16
6.03172e-11
-7.39534e-16
5.06692e-12
-7.74572e-09
-3.09429e-15
3.08909e-11
-2.42193e-08
-7.42642e-15
1.14247e-10
-4.18505e-08
-7.80938e-15
2.93598e-10
-6.27423e-08
-5.93703e-15
4.59387e-10
-8.55066e-08
-1.4926e-14
6.90015e-10
-1.09228e-07
-7.91325e-15
1.07204e-09
-1.28039e-07
-1.39857e-14
1.43492e-09
-1.26236e-07
-1.89534e-14
1.53652e-09
-9.23947e-08
-3.04031e-15
7.1676e-10
-3.62914e-08
-8.26548e-15
3.28472e-10
9.95662e-15
7.02957e-10
1.9184e-15
-4.842e-16
2.97279e-12
-7.7487e-09
-2.73497e-15
1.33831e-11
-2.42297e-08
-7.47711e-15
8.33879e-11
-4.19205e-08
-7.72546e-15
2.22682e-10
-6.28816e-08
-7.66131e-15
3.25768e-10
-8.56097e-08
-1.05923e-14
4.76776e-10
-1.09379e-07
-1.46766e-14
7.59817e-10
-1.28322e-07
-8.76724e-15
1.0041e-09
-1.26481e-07
-1.56104e-14
8.04717e-10
-9.21953e-08
-8.31619e-15
-3.54866e-08
2.14656e-15
1.29493e-12
-7.74999e-09
-2.93852e-15
-1.54151e-12
-2.42269e-08
-7.5285e-15
6.17204e-11
-4.19838e-08
-7.79749e-15
1.69272e-10
-6.29892e-08
-6.2584e-15
2.24418e-10
-8.56649e-08
-1.0193e-14
3.1823e-10
-1.09473e-07
-1.30776e-14
5.4165e-10
-1.28545e-07
-9.46038e-15
7.28054e-10
-1.26667e-07
-1.45327e-14
3.96955e-10
-9.18642e-08
-7.32986e-15
-3.50897e-08
-5.38449e-15
1.36043e-13
-7.75013e-09
-2.67885e-15
-1.19703e-11
-2.42148e-08
-7.88532e-15
5.06934e-11
-4.20465e-08
-7.87015e-15
1.35429e-10
-6.30739e-08
-5.66715e-15
1.58427e-10
-8.56879e-08
-1.03054e-14
2.21403e-10
-1.09536e-07
-1.55235e-14
4.30135e-10
-1.28754e-07
-1.49981e-14
6.36285e-10
-1.26873e-07
-1.09371e-14
3.98211e-10
-9.16261e-08
-7.31867e-15
-3.46915e-08
-3.29168e-15
-5.3806e-13
-7.74959e-09
-2.8131e-15
-1.73812e-11
-2.41979e-08
-8.22419e-15
4.88196e-11
-4.21127e-08
-7.74626e-15
1.16892e-10
-6.31419e-08
-5.34778e-15
1.17416e-10
-8.56884e-08
-1.01899e-14
1.61934e-10
-1.0958e-07
-1.42721e-14
3.64523e-10
-1.28957e-07
-1.76286e-14
5.86003e-10
-1.27095e-07
-1.46584e-14
3.69901e-10
-9.141e-08
-1.23296e-14
-3.43216e-08
-1.19555e-14
-8.02876e-13
-7.74879e-09
-2.89848e-15
-1.77523e-11
-2.4181e-08
-7.72289e-15
5.44501e-11
-4.21849e-08
-8.8363e-15
1.10284e-10
-6.31977e-08
-4.93325e-15
9.56713e-11
-8.56738e-08
-9.48428e-15
1.30856e-10
-1.09616e-07
-2.10144e-14
3.35526e-10
-1.29161e-07
-1.19579e-14
5.7654e-10
-1.27336e-07
-7.5237e-15
3.76723e-10
-9.12102e-08
-2.54956e-15
-3.39448e-08
6.69973e-15
-7.62175e-13
-7.74803e-09
-2.91249e-15
-1.35789e-11
-2.41682e-08
-9.72922e-15
6.53595e-11
-4.22638e-08
-8.78027e-15
1.11444e-10
-6.32438e-08
-4.33768e-15
8.60811e-11
-8.56485e-08
-1.01142e-14
1.16758e-10
-1.09646e-07
-1.98674e-14
3.25913e-10
-1.2937e-07
-1.32949e-14
5.83334e-10
-1.27593e-07
-1.26908e-14
3.88164e-10
-9.1015e-08
-9.45574e-15
-3.35567e-08
-2.30424e-15
-4.63934e-13
-7.74756e-09
-2.67873e-15
-5.64964e-12
-2.4163e-08
-7.11479e-15
7.94947e-11
-4.23489e-08
-6.09357e-15
1.17207e-10
-6.32815e-08
-5.95595e-15
8.40796e-11
-8.56154e-08
-1.0161e-14
1.13406e-10
-1.09676e-07
-1.44276e-14
3.28731e-10
-1.29586e-07
-1.84641e-14
6.01977e-10
-1.27866e-07
-1.31543e-14
4.07279e-10
-9.08203e-08
-8.72067e-15
-3.31494e-08
-4.49168e-15
2.73366e-14
-7.74759e-09
-2.53752e-15
4.85426e-12
-2.41678e-08
-9.96163e-15
9.49412e-11
-4.2439e-08
-7.15156e-15
1.25026e-10
-6.33116e-08
-7.60021e-15
8.60684e-11
-8.55764e-08
-1.02859e-14
1.15836e-10
-1.09705e-07
-1.38886e-14
3.38338e-10
-1.29808e-07
-1.69979e-14
6.26967e-10
-1.28155e-07
-1.31364e-14
4.29725e-10
-9.06231e-08
-7.98695e-15
-3.27197e-08
-3.53009e-15
6.808e-13
-7.74827e-09
-2.69817e-15
1.64837e-11
-2.41836e-08
-8.07681e-15
1.09812e-10
-4.25324e-08
-6.62798e-15
1.32699e-10
-6.33345e-08
-2.94564e-15
8.93565e-11
-8.55331e-08
-1.27524e-14
1.20835e-10
-1.09737e-07
-1.40267e-14
3.51492e-10
-1.30039e-07
-1.70733e-14
6.5603e-10
-1.2846e-07
-1.39182e-14
4.55205e-10
-9.04223e-08
-9.38939e-15
-3.22645e-08
-2.57201e-15
1.46455e-12
-7.74974e-09
-2.84749e-15
2.75441e-11
-2.42097e-08
-8.77664e-15
1.22486e-10
-4.26273e-08
-7.18403e-15
1.38426e-10
-6.33504e-08
-5.09166e-15
9.19676e-11
-8.54866e-08
-1.2118e-14
1.26048e-10
-1.09771e-07
-1.33145e-14
3.65883e-10
-1.30279e-07
-1.56511e-14
6.87393e-10
-1.28781e-07
-1.32749e-14
4.82823e-10
-9.02177e-08
-7.38902e-15
-3.17817e-08
-3.01921e-15
2.35241e-12
-7.75209e-09
-2.67927e-15
3.6304e-11
-2.42437e-08
-9.0228e-15
1.31522e-10
-4.27225e-08
-7.08633e-15
1.40812e-10
-6.33597e-08
-5.2104e-15
9.25396e-11
-8.54384e-08
-1.34095e-14
1.29909e-10
-1.09808e-07
-1.63947e-14
3.8006e-10
-1.30529e-07
-1.89213e-14
7.20077e-10
-1.29121e-07
-1.02402e-14
5.12325e-10
-9.001e-08
-8.37594e-15
-3.12693e-08
-8.03121e-16
3.31358e-12
-7.7554e-09
-3.0607e-15
4.14343e-11
-2.42818e-08
-8.38743e-15
1.36134e-10
-4.28172e-08
-7.02929e-15
1.39064e-10
-6.33627e-08
-6.13862e-15
9.03135e-11
-8.53896e-08
-1.30642e-14
1.31558e-10
-1.0985e-07
-1.45448e-14
3.93391e-10
-1.30791e-07
-2.03243e-14
7.5377e-10
-1.29482e-07
-8.90786e-15
5.43845e-10
-8.98e-08
-6.82133e-15
-3.07254e-08
1.84063e-15
4.32543e-12
-7.75973e-09
-3.08215e-15
4.22097e-11
-2.43197e-08
-9.22488e-15
1.36029e-10
-4.2911e-08
-6.94486e-15
1.32887e-10
-6.33595e-08
-6.80881e-15
8.4935e-11
-8.53417e-08
-1.43786e-14
1.30611e-10
-1.09895e-07
-1.59668e-14
4.05929e-10
-1.31066e-07
-1.77698e-14
7.89065e-10
-1.29865e-07
-6.35374e-15
5.78679e-10
-8.95896e-08
-1.97412e-15
-3.01468e-08
-1.61027e-15
5.37202e-12
-7.7651e-09
-3.54727e-15
3.89234e-11
-2.43532e-08
-8.48809e-15
1.31885e-10
-4.3004e-08
-5.95206e-15
1.22995e-10
-6.33507e-08
-7.74479e-15
7.70454e-11
-8.52957e-08
-1.60504e-14
1.2786e-10
-1.09946e-07
-1.23501e-14
4.18469e-10
-1.31357e-07
-2.67653e-14
8.26361e-10
-1.30273e-07
-1.9218e-14
6.16843e-10
-8.93801e-08
-1.63848e-14
-2.953e-08
-2.08412e-14
6.46274e-12
-7.77156e-09
-3.12175e-15
3.26815e-11
-2.43795e-08
-1.05582e-14
1.2484e-10
-4.30962e-08
-6.42289e-15
1.10516e-10
-6.33364e-08
-9.82085e-15
6.77078e-11
-8.52529e-08
-1.2859e-14
1.24721e-10
-1.10003e-07
-2.94823e-14
4.32275e-10
-1.31664e-07
3.26977e-15
8.66412e-10
-1.30707e-07
-3.40864e-15
6.57955e-10
-8.91716e-08
8.55529e-15
-2.88719e-08
1.85294e-14
7.6016e-12
-7.77916e-09
-3.59823e-15
2.54535e-11
-2.43973e-08
-1.00233e-14
1.1667e-10
-4.31874e-08
-5.17443e-15
9.70737e-11
-6.33168e-08
-1.08448e-14
5.79219e-11
-8.52137e-08
-1.38454e-14
1.22709e-10
-1.10068e-07
-2.3933e-14
4.48997e-10
-1.3199e-07
-3.08612e-15
9.11933e-10
-1.3117e-07
-1.87112e-14
7.04868e-10
-8.89646e-08
-8.2833e-15
-2.8167e-08
-5.02694e-15
8.81911e-12
-7.78798e-09
-3.67869e-15
1.95315e-11
-2.4408e-08
-1.05473e-14
1.0924e-10
-4.32771e-08
-6.7631e-15
8.46956e-11
-6.32923e-08
-1.15207e-14
5.05353e-11
-8.51795e-08
-1.33889e-14
1.25774e-10
-1.10143e-07
-2.57671e-14
4.72902e-10
-1.32338e-07
-7.25167e-16
9.66295e-10
-1.31663e-07
-1.73306e-14
7.59882e-10
-8.87582e-08
-5.44393e-15
-2.74072e-08
-5.00386e-15
1.01436e-11
-7.79812e-09
-4.22432e-15
1.7333e-11
-2.44152e-08
-1.01926e-14
1.04598e-10
-4.33644e-08
-5.89099e-15
7.55592e-11
-6.32633e-08
-1.04831e-14
4.81352e-11
-8.5152e-08
-1.74367e-14
1.37011e-10
-1.10232e-07
-3.03775e-14
5.07102e-10
-1.32708e-07
-4.93809e-15
1.03204e-09
-1.32188e-07
-1.63118e-14
8.24093e-10
-8.85503e-08
-6.95018e-15
-2.65831e-08
-5.5453e-15
1.16237e-11
-7.80975e-09
-3.99736e-15
2.08448e-11
-2.44244e-08
-1.11617e-14
1.04355e-10
-4.34479e-08
-6.24423e-15
7.17848e-11
-6.32307e-08
-1.61244e-14
5.33517e-11
-8.51336e-08
-7.8406e-15
1.59429e-10
-1.10338e-07
-9.5259e-15
5.54746e-10
-1.33103e-07
-1.93073e-14
1.11197e-09
-1.32745e-07
-1.03895e-14
8.99232e-10
-8.83375e-08
-1.19932e-14
-2.56838e-08
1.63424e-15
1.32878e-11
-7.82303e-09
-4.63486e-15
3.13875e-11
-2.44425e-08
-1.03141e-14
1.09205e-10
-4.35257e-08
-5.73396e-15
7.45102e-11
-6.3196e-08
-1.46616e-14
6.82105e-11
-8.51273e-08
-1.24939e-14
1.95967e-10
-1.10466e-07
-1.57395e-14
6.19401e-10
-1.33527e-07
-2.16731e-14
1.20878e-09
-1.33334e-07
-8.74674e-15
9.86836e-10
-8.81156e-08
-1.15764e-14
-2.4697e-08
-6.15574e-17
1.51696e-11
-7.8382e-09
-4.84485e-15
4.91925e-11
-2.44766e-08
-1.00622e-14
1.19217e-10
-4.35957e-08
-6.99393e-15
8.47815e-11
-6.31616e-08
-1.60055e-14
9.42125e-11
-8.51367e-08
-1.05587e-14
2.47899e-10
-1.10619e-07
-1.47878e-14
7.02376e-10
-1.33981e-07
-1.90938e-14
1.32384e-09
-1.33956e-07
-9.05806e-15
1.08751e-09
-8.78793e-08
-1.05291e-14
-2.36095e-08
2.67678e-15
1.7282e-11
-7.85548e-09
-5.53482e-15
7.33977e-11
-2.45327e-08
-9.46704e-15
1.33523e-10
-4.36559e-08
-7.10864e-15
1.02711e-10
-6.31308e-08
-1.56435e-14
1.32239e-10
-8.51662e-08
-9.78238e-15
3.16565e-10
-1.10804e-07
-1.43114e-14
8.05084e-10
-1.3447e-07
-1.73597e-14
1.45839e-09
-1.34609e-07
-1.05696e-14
1.20193e-09
-8.76228e-08
-1.06359e-14
-2.24075e-08
3.72995e-15
1.96177e-11
-7.8751e-09
-4.99766e-15
1.01637e-10
-2.46147e-08
-9.31838e-15
1.4989e-10
-4.37041e-08
-7.15071e-15
1.27163e-10
-6.31081e-08
-1.61074e-14
1.81408e-10
-8.52204e-08
-1.2087e-14
4.00983e-10
-1.11023e-07
-1.55543e-14
9.27061e-10
-1.34996e-07
-1.70709e-14
1.61245e-09
-1.35295e-07
-1.21599e-14
1.33032e-09
-8.73407e-08
-1.28347e-14
-2.10772e-08
5.85999e-15
2.211e-11
-7.8972e-09
-5.53351e-15
1.30591e-10
-2.47232e-08
-9.27649e-15
1.65889e-10
-4.37394e-08
-8.19257e-15
1.56702e-10
-6.30989e-08
-1.88771e-14
2.40232e-10
-8.5304e-08
-9.96982e-15
4.99387e-10
-1.11282e-07
-1.37858e-14
1.0668e-09
-1.35563e-07
-1.67503e-14
1.78534e-09
-1.36013e-07
-1.10845e-14
1.47287e-09
-8.70282e-08
-1.15825e-14
-1.96043e-08
4.53169e-15
2.46331e-11
-7.92184e-09
-5.95444e-15
1.56041e-10
-2.48546e-08
-9.1871e-15
1.7815e-10
-4.37615e-08
-9.2049e-15
1.88121e-10
-6.31089e-08
-1.37504e-14
3.05082e-10
-8.54209e-08
-1.263e-14
6.07787e-10
-1.11585e-07
-1.5974e-14
1.22074e-09
-1.36176e-07
-1.61389e-14
1.97498e-09
-1.36767e-07
-1.15807e-14
1.62953e-09
-8.66828e-08
-7.55873e-15
-1.79748e-08
-9.20541e-15
2.697e-11
-7.94881e-09
-6.66577e-15
1.73821e-10
-2.50015e-08
-9.12024e-15
1.83947e-10
-4.37717e-08
-1.00404e-14
2.18417e-10
-6.31434e-08
-1.71792e-14
3.71895e-10
-8.55744e-08
-1.16136e-14
7.20768e-10
-1.11934e-07
-1.49918e-14
1.38329e-09
-1.36839e-07
-1.47542e-14
2.17787e-09
-1.37562e-07
-1.32754e-14
1.8003e-09
-8.63052e-08
-8.86459e-15
-1.61745e-08
-1.28191e-14
2.87951e-11
-7.9776e-09
-7.08311e-15
1.80187e-10
-2.51529e-08
-9.85238e-15
1.80231e-10
-4.37717e-08
-1.05294e-14
2.42426e-10
-6.32056e-08
-1.66992e-14
4.33047e-10
-8.5765e-08