/*--------------------------------*- C++ -*----------------------------------*\
| =========                 |                                                 |
| \\      /  F ield         | OpenFOAM: The Open Source CFD Toolbox           |
|  \\    /   O peration     | Version:  v2012                                 |
|   \\  /    A nd           | Website:  www.openfoam.com                      |
|    \\/     M anipulation  |                                                 |
\*---------------------------------------------------------------------------*/
FoamFile
{
    version     2.0;
    format      ascii;
    class       volScalarField;
    location    "0.7";
    object      p;
}
// * * * * * * * * * * * * * * * * * * * * * * * * * * * * * * * * * * * * * //

dimensions      [1 -1 -2 0 0 0 0];


internalField   nonuniform List<scalar> 
3332
(
3.41994e+06
3.42635e+06
3.42221e+06
3.42555e+06
3.42505e+06
3.42397e+06
3.42774e+06
3.42085e+06
3.41754e+06
3.42639e+06
3.42073e+06
3.42553e+06
3.42419e+06
3.42331e+06
3.42718e+06
3.41915e+06
3.41709e+06
3.41758e+06
3.44991e+06
3.44869e+06
3.46549e+06
3.4635e+06
3.4699e+06
3.41797e+06
3.42804e+06
3.42069e+06
3.42678e+06
3.42434e+06
3.42358e+06
3.42703e+06
3.41805e+06
3.41578e+06
3.4153e+06
3.45085e+06
3.45132e+06
3.46826e+06
3.46642e+06
3.4725e+06
3.42083e+06
3.43142e+06
3.42295e+06
3.42992e+06
3.42628e+06
3.4254e+06
3.42767e+06
3.41805e+06
3.41548e+06
3.41397e+06
3.45238e+06
3.45532e+06
3.47137e+06
3.46989e+06
3.47534e+06
3.42743e+06
3.43735e+06
3.4289e+06
3.43578e+06
3.43108e+06
3.4298e+06
3.42999e+06
3.42039e+06
3.41729e+06
3.4149e+06
3.45496e+06
3.46098e+06
3.47493e+06
3.47402e+06
3.47847e+06
3.43886e+06
3.44611e+06
3.43973e+06
3.4453e+06
3.4401e+06
3.43821e+06
3.43577e+06
3.42736e+06
3.42324e+06
3.41989e+06
3.45913e+06
3.46828e+06
3.47912e+06
3.47885e+06
3.48195e+06
3.45686e+06
3.45981e+06
3.45678e+06
3.45938e+06
3.45436e+06
3.45188e+06
3.44692e+06
3.4406e+06
3.43496e+06
3.42943e+06
3.46519e+06
3.47671e+06
3.48403e+06
3.48428e+06
3.4858e+06
3.48079e+06
3.47809e+06
3.47948e+06
3.47826e+06
3.47412e+06
3.47118e+06
3.46402e+06
3.46067e+06
3.45339e+06
3.44438e+06
3.47348e+06
3.4862e+06
3.48983e+06
3.49028e+06
3.49007e+06
3.50903e+06
3.50086e+06
3.50685e+06
3.50177e+06
3.49882e+06
3.49606e+06
3.48682e+06
3.48789e+06
3.47851e+06
3.46507e+06
3.48382e+06
3.4968e+06
3.49656e+06
3.49679e+06
3.49478e+06
3.53897e+06
3.5268e+06
3.53681e+06
3.52877e+06
3.527e+06
3.52547e+06
3.51376e+06
3.52136e+06
3.50796e+06
3.49001e+06
3.49588e+06
3.50826e+06
3.50417e+06
3.50377e+06
3.49992e+06
3.56988e+06
3.55561e+06
3.56745e+06
3.55765e+06
3.55642e+06
3.55626e+06
3.5413e+06
3.55757e+06
3.5354e+06
3.51715e+06
3.50899e+06
3.52013e+06
3.51248e+06
3.5111e+06
3.50546e+06
3.59905e+06
3.5867e+06
3.59674e+06
3.58721e+06
3.58534e+06
3.58482e+06
3.56732e+06
3.59002e+06
3.5548e+06
3.54254e+06
3.52204e+06
3.53229e+06
3.52163e+06
3.51884e+06
3.51143e+06
3.6262e+06
3.6208e+06
3.62464e+06
3.61808e+06
3.61483e+06
3.61242e+06
3.59729e+06
3.61611e+06
3.57489e+06
3.56726e+06
3.53673e+06
3.54556e+06
3.53189e+06
3.52705e+06
3.51786e+06
3.65173e+06
3.65598e+06
3.65163e+06
3.65047e+06
3.64671e+06
3.64479e+06
3.63879e+06
3.64687e+06
3.62528e+06
3.61164e+06
3.56669e+06
3.56409e+06
3.54555e+06
3.53625e+06
3.52491e+06
3.67424e+06
3.68529e+06
3.67507e+06
3.67947e+06
3.67696e+06
3.67879e+06
3.68379e+06
3.68791e+06
3.69369e+06
3.67553e+06
3.61414e+06
3.58488e+06
3.56277e+06
3.54581e+06
3.53245e+06
3.6895e+06
3.7024e+06
3.69106e+06
3.69836e+06
3.69765e+06
3.70248e+06
3.71434e+06
3.71847e+06
3.739e+06
3.71446e+06
3.66112e+06
3.5971e+06
3.57845e+06
3.55322e+06
3.53921e+06
3.69686e+06
3.70756e+06
3.69812e+06
3.70555e+06
3.70579e+06
3.71099e+06
3.72346e+06
3.72449e+06
3.74705e+06
3.72075e+06
3.68889e+06
3.60383e+06
3.58908e+06
3.55829e+06
3.54442e+06
3.69743e+06
3.70512e+06
3.69832e+06
3.70437e+06
3.70461e+06
3.70893e+06
3.71808e+06
3.71702e+06
3.73325e+06
3.71387e+06
3.69437e+06
3.61564e+06
3.59379e+06
3.56269e+06
3.5478e+06
3.69306e+06
3.69812e+06
3.69351e+06
3.69802e+06
3.69788e+06
3.70113e+06
3.70652e+06
3.70522e+06
3.71443e+06
3.70183e+06
3.68919e+06
3.62739e+06
3.59458e+06
3.56627e+06
3.54949e+06
3.68531e+06
3.68892e+06
3.68561e+06
3.68892e+06
3.68826e+06
3.69055e+06
3.69305e+06
3.69155e+06
3.69595e+06
3.68762e+06
3.67931e+06
3.63189e+06
3.59335e+06
3.56772e+06
3.54969e+06
3.67585e+06
3.67899e+06
3.67611e+06
3.67866e+06
3.67757e+06
3.67943e+06
3.68004e+06
3.67912e+06
3.68045e+06
3.67508e+06
3.66925e+06
3.63224e+06
3.5917e+06
3.56757e+06
3.54891e+06
3.66583e+06
3.66864e+06
3.66571e+06
3.66776e+06
3.66666e+06
3.66873e+06
3.66881e+06
3.66934e+06
3.66931e+06
3.66656e+06
3.66129e+06
3.63078e+06
3.58944e+06
3.56599e+06
3.54719e+06
3.65425e+06
3.65627e+06
3.6541e+06
3.65589e+06
3.65539e+06
3.65821e+06
3.65885e+06
3.66178e+06
3.66176e+06
3.66178e+06
3.65494e+06
3.62851e+06
3.58599e+06
3.56296e+06
3.54444e+06
3.64113e+06
3.64148e+06
3.64087e+06
3.6422e+06
3.64274e+06
3.64628e+06
3.6479e+06
3.65338e+06
3.65367e+06
3.65665e+06
3.64682e+06
3.6247e+06
3.58055e+06
3.55809e+06
3.54051e+06
3.6258e+06
3.62404e+06
3.62542e+06
3.62603e+06
3.62754e+06
3.63106e+06
3.63302e+06
3.63957e+06
3.63875e+06
3.64457e+06
3.63228e+06
3.61663e+06
3.57306e+06
3.55094e+06
3.53531e+06
3.60984e+06
3.60543e+06
3.60811e+06
3.60781e+06
3.6097e+06
3.61225e+06
3.61355e+06
3.61871e+06
3.61569e+06
3.6226e+06
3.61053e+06
3.60174e+06
3.56441e+06
3.54176e+06
3.52908e+06
3.59097e+06
3.58632e+06
3.58971e+06
3.58876e+06
3.59047e+06
3.59155e+06
3.59167e+06
3.59397e+06
3.58955e+06
3.59492e+06
3.58577e+06
3.58165e+06
3.55444e+06
3.5722e+06
3.56838e+06
3.57156e+06
3.5703e+06
3.57144e+06
3.57116e+06
3.57018e+06
3.5698e+06
3.5653e+06
3.56807e+06
3.56278e+06
3.5611e+06
3.54273e+06
3.5547e+06
3.5523e+06
3.55467e+06
3.55345e+06
3.55391e+06
3.55271e+06
3.551e+06
3.54891e+06
3.54505e+06
3.54583e+06
3.54347e+06
3.54295e+06
3.53063e+06
3.5396e+06
3.53841e+06
3.53975e+06
3.53875e+06
3.53862e+06
3.53693e+06
3.53495e+06
3.53209e+06
3.52913e+06
3.52882e+06
3.52827e+06
3.52798e+06
3.51985e+06
3.52664e+06
3.52657e+06
3.52704e+06
3.5263e+06
3.52577e+06
3.52393e+06
3.522e+06
3.51896e+06
3.51691e+06
3.51602e+06
3.51645e+06
3.51603e+06
3.51085e+06
3.51611e+06
3.51661e+06
3.51651e+06
3.51596e+06
3.51523e+06
3.51345e+06
3.51176e+06
3.50885e+06
3.50762e+06
3.50642e+06
3.50746e+06
3.50679e+06
3.50388e+06
3.5077e+06
3.50828e+06
3.50798e+06
3.50748e+06
3.50671e+06
3.50507e+06
3.50363e+06
3.50099e+06
3.50036e+06
3.49883e+06
3.50018e+06
3.49937e+06
3.49804e+06
3.50117e+06
3.50143e+06
3.50116e+06
3.50062e+06
3.4999e+06
3.49844e+06
3.49721e+06
3.49494e+06
3.49476e+06
3.49317e+06
3.49498e+06
3.49407e+06
3.49416e+06
3.49601e+06
3.49585e+06
3.49579e+06
3.49515e+06
3.49454e+06
3.49326e+06
3.49212e+06
3.49023e+06
3.49004e+06
3.48827e+06
3.48978e+06
3.4894e+06
3.48985e+06
3.49207e+06
3.49148e+06
3.49166e+06
3.49086e+06
3.49033e+06
3.48913e+06
3.48799e+06
3.48659e+06
3.48637e+06
3.4852e+06
3.48718e+06
3.4871e+06
3.48818e+06
3.48914e+06
3.48818e+06
3.48859e+06
3.48763e+06
3.48716e+06
3.48585e+06
3.48446e+06
3.4828e+06
3.4812e+06
3.48016e+06
3.48111e+06
3.48216e+06
3.4826e+06
3.48743e+06
3.4862e+06
3.48684e+06
3.48584e+06
3.48555e+06
3.48439e+06
3.48326e+06
3.48182e+06
3.48031e+06
3.48007e+06
3.48654e+06
3.48522e+06
3.48602e+06
3.4851e+06
3.48503e+06
3.48416e+06
3.48349e+06
3.48261e+06
3.48205e+06
3.48203e+06
3.48634e+06
3.48504e+06
3.4859e+06
3.4851e+06
3.4852e+06
3.48459e+06
3.48422e+06
3.48372e+06
3.48344e+06
3.48344e+06
3.48649e+06
3.48537e+06
3.48622e+06
3.48558e+06
3.4858e+06
3.48541e+06
3.48525e+06
3.48502e+06
3.4849e+06
3.48494e+06
3.4869e+06
3.48603e+06
3.4868e+06
3.48634e+06
3.4866e+06
3.48638e+06
3.48635e+06
3.48628e+06
3.48624e+06
3.48628e+06
3.48746e+06
3.48689e+06
3.48754e+06
3.48724e+06
3.48752e+06
3.48742e+06
3.48747e+06
3.4875e+06
3.4875e+06
3.48755e+06
3.48828e+06
3.4879e+06
3.48838e+06
3.4882e+06
3.48846e+06
3.48843e+06
3.48853e+06
3.48862e+06
3.48865e+06
3.48871e+06
3.489e+06
3.48884e+06
3.48922e+06
3.48913e+06
3.48938e+06
3.48939e+06
3.48952e+06
3.48964e+06
3.48968e+06
3.48975e+06
3.48978e+06
3.48978e+06
3.49006e+06
3.49e+06
3.49024e+06
3.49026e+06
3.4904e+06
3.49055e+06
3.4906e+06
3.49067e+06
3.49055e+06
3.49057e+06
3.49084e+06
3.49077e+06
3.49101e+06
3.49102e+06
3.49117e+06
3.49133e+06
3.49138e+06
3.49146e+06
3.49137e+06
3.49125e+06
3.49156e+06
3.49141e+06
3.49167e+06
3.49165e+06
3.4918e+06
3.49197e+06
3.49201e+06
3.4921e+06
3.49206e+06
3.49174e+06
3.49216e+06
3.4919e+06
3.49219e+06
3.49213e+06
3.49228e+06
3.49246e+06
3.4925e+06
3.49259e+06
3.49262e+06
3.49204e+06
3.49259e+06
3.49222e+06
3.49253e+06
3.49244e+06
3.49258e+06
3.49277e+06
3.49281e+06
3.49291e+06
3.49293e+06
3.49213e+06
3.4928e+06
3.49235e+06
3.49266e+06
3.49256e+06
3.49269e+06
3.49291e+06
3.49293e+06
3.49305e+06
3.49297e+06
3.49202e+06
3.49272e+06
3.49226e+06
3.49254e+06
3.49247e+06
3.49257e+06
3.49283e+06
3.49285e+06
3.49298e+06
3.49251e+06
3.49162e+06
3.49229e+06
3.4919e+06
3.49214e+06
3.49215e+06
3.49221e+06
3.49254e+06
3.49256e+06
3.4927e+06
3.49159e+06
3.49094e+06
3.49147e+06
3.49126e+06
3.49141e+06
3.49154e+06
3.49159e+06
3.49201e+06
3.49204e+06
3.49218e+06
3.49015e+06
3.48996e+06
3.49024e+06
3.49028e+06
3.49033e+06
3.49063e+06
3.49066e+06
3.49119e+06
3.49125e+06
3.49138e+06
3.48826e+06
3.48866e+06
3.48857e+06
3.48893e+06
3.48886e+06
3.48933e+06
3.48939e+06
3.49004e+06
3.49013e+06
3.49026e+06
3.48581e+06
3.48693e+06
3.48643e+06
3.48717e+06
3.48697e+06
3.48764e+06
3.48772e+06
3.4885e+06
3.48863e+06
3.48876e+06
3.48292e+06
3.48477e+06
3.48385e+06
3.48494e+06
3.48465e+06
3.48548e+06
3.48562e+06
3.48651e+06
3.48669e+06
3.48682e+06
3.4796e+06
3.48212e+06
3.48081e+06
3.48221e+06
3.48185e+06
3.4828e+06
3.48303e+06
3.48401e+06
3.48425e+06
3.48438e+06
3.47609e+06
3.47899e+06
3.47733e+06
3.47891e+06
3.47852e+06
3.47953e+06
3.47986e+06
3.48092e+06
3.48123e+06
3.48136e+06
3.47206e+06
3.47516e+06
3.47336e+06
3.47497e+06
3.47461e+06
3.47561e+06
3.47607e+06
3.47717e+06
3.47755e+06
3.47767e+06
3.46778e+06
3.47066e+06
3.4689e+06
3.47035e+06
3.47007e+06
3.47098e+06
3.47156e+06
3.47266e+06
3.4731e+06
3.47324e+06
3.46301e+06
3.46539e+06
3.46386e+06
3.46501e+06
3.46486e+06
3.46557e+06
3.46626e+06
3.4673e+06
3.46779e+06
3.46794e+06
3.45787e+06
3.45942e+06
3.45826e+06
3.45894e+06
3.45894e+06
3.45935e+06
3.46009e+06
3.46098e+06
3.46151e+06
3.46168e+06
3.45226e+06
3.45279e+06
3.45213e+06
3.45221e+06
3.45232e+06
3.45229e+06
3.453e+06
3.45359e+06
3.45411e+06
3.45431e+06
3.44636e+06
3.44582e+06
3.44564e+06
3.44501e+06
3.44513e+06
3.44445e+06
3.44497e+06
3.44501e+06
3.44545e+06
3.44569e+06
3.44059e+06
3.439e+06
3.43918e+06
3.43773e+06
3.43763e+06
3.43605e+06
3.43607e+06
3.43511e+06
3.43538e+06
3.43566e+06
3.43586e+06
3.43333e+06
3.43352e+06
3.43107e+06
3.43039e+06
3.42744e+06
3.42645e+06
3.42378e+06
3.42366e+06
3.42394e+06
3.43317e+06
3.43002e+06
3.42994e+06
3.4263e+06
3.42445e+06
3.41942e+06
3.41654e+06
3.41097e+06
3.41019e+06
3.41043e+06
3.43486e+06
3.43146e+06
3.43051e+06
3.42542e+06
3.42142e+06
3.41359e+06
3.4074e+06
3.3968e+06
3.39463e+06
3.39459e+06
3.44431e+06
3.44083e+06
3.43835e+06
3.43139e+06
3.42405e+06
3.41238e+06
3.40055e+06
3.38214e+06
3.37726e+06
3.37666e+06
3.46609e+06
3.46266e+06
3.45794e+06
3.44842e+06
3.43641e+06
3.41928e+06
3.39845e+06
3.36912e+06
3.35812e+06
3.35632e+06
3.50603e+06
3.50272e+06
3.49528e+06
3.48252e+06
3.46482e+06
3.44046e+06
3.40782e+06
3.36455e+06
3.34015e+06
3.33662e+06
3.57104e+06
3.5679e+06
3.55778e+06
3.54189e+06
3.51865e+06
3.48668e+06
3.44191e+06
3.37993e+06
3.32686e+06
3.32071e+06
3.66559e+06
3.66272e+06
3.65072e+06
3.63234e+06
3.6041e+06
3.56504e+06
3.50766e+06
3.42078e+06
3.32293e+06
3.31333e+06
3.78997e+06
3.78713e+06
3.77372e+06
3.75287e+06
3.72051e+06
3.67333e+06
3.59938e+06
3.49231e+06
3.36439e+06
3.32478e+06
3.93557e+06
3.93419e+06
3.92501e+06
3.91048e+06
3.88721e+06
3.84751e+06
3.78288e+06
3.67874e+06
3.44085e+06
3.10265e+06
4.10226e+06
4.10295e+06
4.10102e+06
4.09966e+06
4.09829e+06
4.09538e+06
4.09768e+06
4.09509e+06
4.01923e+06
3.97079e+06
4.25126e+06
4.37374e+06
4.43321e+06
4.46123e+06
4.47684e+06
4.48567e+06
4.49106e+06
4.2085e+06
4.20963e+06
4.20963e+06
4.21107e+06
4.21307e+06
4.21614e+06
4.22354e+06
4.23413e+06
4.24616e+06
4.29936e+06
4.38389e+06
4.42094e+06
4.45087e+06
4.46826e+06
4.47981e+06
4.48702e+06
4.49171e+06
4.30768e+06
4.30895e+06
4.31007e+06
4.3131e+06
4.31726e+06
4.32301e+06
4.33183e+06
4.34174e+06
4.35151e+06
4.37661e+06
4.41424e+06
4.44068e+06
4.46045e+06
4.47352e+06
4.48245e+06
4.48838e+06
4.49238e+06
4.36407e+06
4.36524e+06
4.3667e+06
4.36993e+06
4.37433e+06
4.38044e+06
4.38855e+06
4.39879e+06
4.41159e+06
4.42821e+06
4.44532e+06
4.45915e+06
4.47061e+06
4.47913e+06
4.48547e+06
4.49001e+06
4.49324e+06
4.40917e+06
4.41006e+06
4.41112e+06
4.41347e+06
4.41659e+06
4.42088e+06
4.42633e+06
4.43285e+06
4.44055e+06
4.45014e+06
4.46037e+06
4.46945e+06
4.47714e+06
4.48322e+06
4.48791e+06
4.49144e+06
4.49405e+06
4.43549e+06
4.43618e+06
4.43711e+06
4.43905e+06
4.44158e+06
4.44497e+06
4.44912e+06
4.45406e+06
4.45965e+06
4.46576e+06
4.47187e+06
4.47751e+06
4.4825e+06
4.48667e+06
4.49007e+06
4.49275e+06
4.49482e+06
4.45502e+06
4.45553e+06
4.45614e+06
4.45743e+06
4.45911e+06
4.46136e+06
4.46408e+06
4.46729e+06
4.47091e+06
4.47487e+06
4.47891e+06
4.48275e+06
4.48624e+06
4.48926e+06
4.49179e+06
4.49385e+06
4.49549e+06
4.46715e+06
4.46754e+06
4.46801e+06
4.46899e+06
4.47024e+06
4.47191e+06
4.47388e+06
4.47617e+06
4.47869e+06
4.48137e+06
4.48409e+06
4.48671e+06
4.48914e+06
4.49132e+06
4.49321e+06
4.49479e+06
4.49609e+06
4.47601e+06
4.47628e+06
4.47659e+06
4.47726e+06
4.47811e+06
4.47925e+06
4.48059e+06
4.48215e+06
4.48389e+06
4.48575e+06
4.48765e+06
4.48952e+06
4.49129e+06
4.4929e+06
4.49433e+06
4.49557e+06
4.4966e+06
4.48187e+06
4.48208e+06
4.48231e+06
4.48282e+06
4.48344e+06
4.48427e+06
4.48524e+06
4.48637e+06
4.48761e+06
4.48894e+06
4.4903e+06
4.49165e+06
4.49295e+06
4.49416e+06
4.49525e+06
4.49622e+06
4.49704e+06
4.48619e+06
4.48635e+06
4.48651e+06
4.48687e+06
4.48731e+06
4.4879e+06
4.48859e+06
4.4894e+06
4.49029e+06
4.49125e+06
4.49225e+06
4.49325e+06
4.49422e+06
4.49515e+06
4.49599e+06
4.49675e+06
4.49742e+06
4.49799e+06
4.49846e+06
4.48923e+06
4.48935e+06
4.48947e+06
4.48974e+06
4.49007e+06
4.49051e+06
4.49102e+06
4.49162e+06
4.49228e+06
4.49299e+06
4.49373e+06
4.49449e+06
4.49523e+06
4.49594e+06
4.4966e+06
4.4972e+06
4.49774e+06
4.4982e+06
4.4986e+06
4.49151e+06
4.4916e+06
4.49169e+06
4.49189e+06
4.49213e+06
4.49246e+06
4.49284e+06
4.49328e+06
4.49377e+06
4.49431e+06
4.49487e+06
4.49545e+06
4.49602e+06
4.49657e+06
4.49709e+06
4.49757e+06
4.49801e+06
4.49839e+06
4.49872e+06
4.49321e+06
4.49327e+06
4.49334e+06
4.49349e+06
4.49367e+06
4.49392e+06
4.49421e+06
4.49454e+06
4.49492e+06
4.49533e+06
4.49576e+06
4.4962e+06
4.49665e+06
4.49708e+06
4.4975e+06
4.49789e+06
4.49824e+06
4.49855e+06
4.49883e+06
4.4945e+06
4.49456e+06
4.4946e+06
4.49472e+06
4.49486e+06
4.49504e+06
4.49526e+06
4.49552e+06
4.49581e+06
4.49612e+06
4.49646e+06
4.4968e+06
4.49715e+06
4.4975e+06
4.49783e+06
4.49815e+06
4.49843e+06
4.4987e+06
4.49893e+06
4.49549e+06
4.49554e+06
4.49557e+06
4.49566e+06
4.49577e+06
4.49591e+06
4.49608e+06
4.49628e+06
4.49651e+06
4.49675e+06
4.49702e+06
4.49729e+06
4.49757e+06
4.49784e+06
4.49811e+06
4.49836e+06
4.4986e+06
4.49882e+06
4.49901e+06
4.49627e+06
4.4963e+06
4.49633e+06
4.4964e+06
4.49648e+06
4.4966e+06
4.49673e+06
4.49689e+06
4.49706e+06
4.49726e+06
4.49746e+06
4.49768e+06
4.4979e+06
4.49812e+06
4.49834e+06
4.49855e+06
4.49874e+06
4.49892e+06
4.49908e+06
4.49688e+06
4.49691e+06
4.49693e+06
4.49698e+06
4.49705e+06
4.49714e+06
4.49724e+06
4.49737e+06
4.49751e+06
4.49766e+06
4.49782e+06
4.498e+06
4.49818e+06
4.49836e+06
4.49853e+06
4.4987e+06
4.49887e+06
4.49901e+06
4.49915e+06
4.49736e+06
4.49739e+06
4.4974e+06
4.49745e+06
4.4975e+06
4.49757e+06
4.49765e+06
4.49775e+06
4.49786e+06
4.49799e+06
4.49812e+06
4.49826e+06
4.4984e+06
4.49855e+06
4.4987e+06
4.49884e+06
4.49897e+06
4.49909e+06
4.49921e+06
4.49775e+06
4.49777e+06
4.49779e+06
4.49782e+06
4.49786e+06
4.49792e+06
4.49799e+06
4.49807e+06
4.49816e+06
4.49825e+06
4.49836e+06
4.49848e+06
4.49859e+06
4.49871e+06
4.49883e+06
4.49895e+06
4.49906e+06
4.49916e+06
4.49926e+06
4.49807e+06
4.49808e+06
4.4981e+06
4.49813e+06
4.49816e+06
4.49821e+06
4.49826e+06
4.49832e+06
4.49839e+06
4.49847e+06
4.49856e+06
4.49865e+06
4.49875e+06
4.49885e+06
4.49895e+06
4.49904e+06
4.49913e+06
4.49922e+06
4.4993e+06
4.49833e+06
4.49834e+06
4.49835e+06
4.49837e+06
4.4984e+06
4.49844e+06
4.49848e+06
4.49853e+06
4.49859e+06
4.49866e+06
4.49873e+06
4.4988e+06
4.49888e+06
4.49896e+06
4.49904e+06
4.49912e+06
4.4992e+06
4.49927e+06
4.49934e+06
4.49854e+06
4.49855e+06
4.49855e+06
4.49857e+06
4.4986e+06
4.49863e+06
4.49866e+06
4.4987e+06
4.49875e+06
4.49881e+06
4.49886e+06
4.49893e+06
4.49899e+06
4.49906e+06
4.49912e+06
4.49919e+06
4.49925e+06
4.49931e+06
4.49937e+06
4.49871e+06
4.49872e+06
4.49872e+06
4.49874e+06
4.49876e+06
4.49878e+06
4.49881e+06
4.49885e+06
4.49889e+06
4.49893e+06
4.49898e+06
4.49903e+06
4.49908e+06
4.49914e+06
4.49919e+06
4.49925e+06
4.4993e+06
4.49935e+06
4.4994e+06
4.49885e+06
4.49886e+06
4.49886e+06
4.49888e+06
4.49889e+06
4.49891e+06
4.49894e+06
4.49897e+06
4.499e+06
4.49903e+06
4.49907e+06
4.49911e+06
4.49916e+06
4.4992e+06
4.49925e+06
4.4993e+06
4.49934e+06
4.49938e+06
4.49943e+06
4.49897e+06
4.49898e+06
4.49898e+06
4.49899e+06
4.499e+06
4.49902e+06
4.49904e+06
4.49906e+06
4.49909e+06
4.49912e+06
4.49915e+06
4.49919e+06
4.49922e+06
4.49926e+06
4.4993e+06
4.49934e+06
4.49938e+06
4.49941e+06
4.49945e+06
4.49907e+06
4.49907e+06
4.49908e+06
4.49909e+06
4.4991e+06
4.49911e+06
4.49913e+06
4.49915e+06
4.49917e+06
4.49919e+06
4.49922e+06
4.49925e+06
4.49928e+06
4.49931e+06
4.49934e+06
4.49937e+06
4.49941e+06
4.49944e+06
4.49947e+06
4.49915e+06
4.49916e+06
4.49916e+06
4.49917e+06
4.49917e+06
4.49919e+06
4.4992e+06
4.49922e+06
4.49923e+06
4.49925e+06
4.49928e+06
4.4993e+06
4.49933e+06
4.49935e+06
4.49938e+06
4.49941e+06
4.49943e+06
4.49946e+06
4.49948e+06
4.49922e+06
4.49923e+06
4.49923e+06
4.49923e+06
4.49924e+06
4.49925e+06
4.49926e+06
4.49927e+06
4.49929e+06
4.49931e+06
4.49932e+06
4.49934e+06
4.49937e+06
4.49939e+06
4.49941e+06
4.49943e+06
4.49945e+06
4.49948e+06
4.4995e+06
4.49928e+06
4.49928e+06
4.49929e+06
4.49929e+06
4.4993e+06
4.4993e+06
4.49931e+06
4.49932e+06
4.49934e+06
4.49935e+06
4.49937e+06
4.49938e+06
4.4994e+06
4.49942e+06
4.49944e+06
4.49946e+06
4.49947e+06
4.49949e+06
4.49951e+06
4.49933e+06
4.49933e+06
4.49933e+06
4.49934e+06
4.49934e+06
4.49935e+06
4.49936e+06
4.49937e+06
4.49938e+06
4.49939e+06
4.4994e+06
4.49941e+06
4.49943e+06
4.49944e+06
4.49946e+06
4.49947e+06
4.49949e+06
4.49951e+06
4.49952e+06
4.49937e+06
4.49938e+06
4.49938e+06
4.49938e+06
4.49938e+06
4.49939e+06
4.4994e+06
4.4994e+06
4.49941e+06
4.49942e+06
4.49943e+06
4.49944e+06
4.49945e+06
4.49947e+06
4.49948e+06
4.49949e+06
4.4995e+06
4.49952e+06
4.49953e+06
4.49941e+06
4.49941e+06
4.49941e+06
4.49941e+06
4.49942e+06
4.49942e+06
4.49943e+06
4.49943e+06
4.49944e+06
4.49945e+06
4.49946e+06
4.49947e+06
4.49948e+06
4.49949e+06
4.4995e+06
4.49951e+06
4.49952e+06
4.49953e+06
4.49954e+06
4.49944e+06
4.49944e+06
4.49944e+06
4.49945e+06
4.49945e+06
4.49945e+06
4.49946e+06
4.49946e+06
4.49947e+06
4.49947e+06
4.49948e+06
4.49949e+06
4.4995e+06
4.4995e+06
4.49951e+06
4.49952e+06
4.49953e+06
4.49954e+06
4.49955e+06
4.49947e+06
4.49947e+06
4.49947e+06
4.49947e+06
4.49947e+06
4.49948e+06
4.49948e+06
4.49948e+06
4.49949e+06
4.49949e+06
4.4995e+06
4.49951e+06
4.49951e+06
4.49952e+06
4.49953e+06
4.49953e+06
4.49954e+06
4.49955e+06
4.49955e+06
4.49949e+06
4.49949e+06
4.4995e+06
4.4995e+06
4.4995e+06
4.4995e+06
4.4995e+06
4.49951e+06
4.49951e+06
4.49951e+06
4.49952e+06
4.49952e+06
4.49953e+06
4.49953e+06
4.49954e+06
4.49954e+06
4.49955e+06
4.49955e+06
4.49956e+06
4.49951e+06
4.49951e+06
4.49952e+06
4.49952e+06
4.49952e+06
4.49952e+06
4.49952e+06
4.49952e+06
4.49953e+06
4.49953e+06
4.49953e+06
4.49954e+06
4.49954e+06
4.49954e+06
4.49955e+06
4.49955e+06
4.49956e+06
4.49956e+06
4.49956e+06
4.49954e+06
4.49954e+06
4.49954e+06
4.49954e+06
4.49954e+06
4.49954e+06
4.49954e+06
4.49954e+06
4.49954e+06
4.49955e+06
4.49955e+06
4.49955e+06
4.49955e+06
4.49956e+06
4.49956e+06
4.49956e+06
4.49956e+06
4.49957e+06
4.49957e+06
4.49955e+06
4.49955e+06
4.49955e+06
4.49955e+06
4.49956e+06
4.49956e+06
4.49956e+06
4.49956e+06
4.49956e+06
4.49956e+06
4.49956e+06
4.49956e+06
4.49956e+06
4.49957e+06
4.49957e+06
4.49957e+06
4.49957e+06
4.49957e+06
4.49957e+06
4.49957e+06
4.49958e+06
4.49958e+06
4.49958e+06
4.49958e+06
4.49958e+06
4.49958e+06
4.49958e+06
4.49958e+06
4.49958e+06
4.49958e+06
4.49958e+06
4.49958e+06
4.49958e+06
4.49958e+06
4.49958e+06
4.49958e+06
4.49958e+06
4.49958e+06
3.41994e+06
3.42635e+06
3.42221e+06
3.42555e+06
3.42505e+06
3.42397e+06
3.42774e+06
3.42085e+06
3.41754e+06
3.42639e+06
3.42073e+06
3.42553e+06
3.42419e+06
3.42331e+06
3.42718e+06
3.41915e+06
3.41709e+06
3.41758e+06
3.44991e+06
3.44869e+06
3.46549e+06
3.4635e+06
3.4699e+06
3.41797e+06
3.42804e+06
3.42069e+06
3.42678e+06
3.42434e+06
3.42358e+06
3.42703e+06
3.41805e+06
3.41578e+06
3.4153e+06
3.45085e+06
3.45132e+06
3.46826e+06
3.46642e+06
3.4725e+06
3.42083e+06
3.43142e+06
3.42295e+06
3.42992e+06
3.42628e+06
3.4254e+06
3.42767e+06
3.41805e+06
3.41548e+06
3.41397e+06
3.45238e+06
3.45532e+06
3.47137e+06
3.46989e+06
3.47534e+06
3.42743e+06
3.43735e+06
3.4289e+06
3.43578e+06
3.43108e+06
3.4298e+06
3.42999e+06
3.42039e+06
3.41729e+06
3.4149e+06
3.45496e+06
3.46098e+06
3.47493e+06
3.47402e+06
3.47847e+06
3.43886e+06
3.44611e+06
3.43973e+06
3.4453e+06
3.4401e+06
3.43821e+06
3.43577e+06
3.42736e+06
3.42324e+06
3.41989e+06
3.45913e+06
3.46828e+06
3.47912e+06
3.47885e+06
3.48195e+06
3.45686e+06
3.45981e+06
3.45678e+06
3.45938e+06
3.45436e+06
3.45188e+06
3.44692e+06
3.4406e+06
3.43496e+06
3.42943e+06
3.46519e+06
3.47671e+06
3.48403e+06
3.48428e+06
3.4858e+06
3.48079e+06
3.47809e+06
3.47948e+06
3.47826e+06
3.47412e+06
3.47118e+06
3.46402e+06
3.46067e+06
3.45339e+06
3.44438e+06
3.47348e+06
3.4862e+06
3.48983e+06
3.49028e+06
3.49007e+06
3.50903e+06
3.50086e+06
3.50685e+06
3.50177e+06
3.49882e+06
3.49606e+06
3.48682e+06
3.48789e+06
3.47851e+06
3.46507e+06
3.48382e+06
3.4968e+06
3.49656e+06
3.49679e+06
3.49478e+06
3.53897e+06
3.5268e+06
3.53681e+06
3.52877e+06
3.527e+06
3.52547e+06
3.51376e+06
3.52136e+06
3.50796e+06
3.49001e+06
3.49588e+06
3.50826e+06
3.50417e+06
3.50377e+06
3.49992e+06
3.56988e+06
3.55561e+06
3.56745e+06
3.55765e+06
3.55642e+06
3.55626e+06
3.5413e+06
3.55757e+06
3.5354e+06
3.51715e+06
3.50899e+06
3.52013e+06
3.51248e+06
3.5111e+06
3.50546e+06
3.59905e+06
3.5867e+06
3.59674e+06
3.58721e+06
3.58534e+06
3.58482e+06
3.56732e+06
3.59002e+06
3.5548e+06
3.54254e+06
3.52204e+06
3.53229e+06
3.52163e+06
3.51884e+06
3.51143e+06
3.6262e+06
3.6208e+06
3.62464e+06
3.61808e+06
3.61483e+06
3.61242e+06
3.59729e+06
3.61611e+06
3.57489e+06
3.56726e+06
3.53673e+06
3.54556e+06
3.53189e+06
3.52705e+06
3.51786e+06
3.65173e+06
3.65598e+06
3.65163e+06
3.65047e+06
3.64671e+06
3.64479e+06
3.63879e+06
3.64687e+06
3.62528e+06
3.61164e+06
3.56669e+06
3.56409e+06
3.54555e+06
3.53625e+06
3.52491e+06
3.67424e+06
3.68529e+06
3.67507e+06
3.67947e+06
3.67696e+06
3.67879e+06
3.68379e+06
3.68791e+06
3.69369e+06
3.67553e+06
3.61414e+06
3.58488e+06
3.56277e+06
3.54581e+06
3.53245e+06
3.6895e+06
3.7024e+06
3.69106e+06
3.69836e+06
3.69765e+06
3.70248e+06
3.71434e+06
3.71847e+06
3.739e+06
3.71446e+06
3.66112e+06
3.5971e+06
3.57845e+06
3.55322e+06
3.53921e+06
3.69686e+06
3.70756e+06
3.69812e+06
3.70555e+06
3.70579e+06
3.71099e+06
3.72346e+06
3.72449e+06
3.74705e+06
3.72075e+06
3.68889e+06
3.60383e+06
3.58908e+06
3.55829e+06
3.54442e+06
3.69743e+06
3.70512e+06
3.69832e+06
3.70437e+06
3.70461e+06
3.70893e+06
3.71808e+06
3.71702e+06
3.73325e+06
3.71387e+06
3.69437e+06
3.61564e+06
3.59379e+06
3.56269e+06
3.5478e+06
3.69306e+06
3.69812e+06
3.69351e+06
3.69802e+06
3.69788e+06
3.70113e+06
3.70652e+06
3.70522e+06
3.71443e+06
3.70183e+06
3.68919e+06
3.62739e+06
3.59458e+06
3.56627e+06
3.54949e+06
3.68531e+06
3.68892e+06
3.68561e+06
3.68892e+06
3.68826e+06
3.69055e+06
3.69305e+06
3.69155e+06
3.69595e+06
3.68762e+06
3.67931e+06
3.63189e+06
3.59335e+06
3.56772e+06
3.54969e+06
3.67585e+06
3.67899e+06
3.67611e+06
3.67866e+06
3.67757e+06
3.67943e+06
3.68004e+06
3.67912e+06
3.68045e+06
3.67508e+06
3.66925e+06
3.63224e+06
3.5917e+06
3.56757e+06
3.54891e+06
3.66583e+06
3.66864e+06
3.66571e+06
3.66776e+06
3.66666e+06
3.66873e+06
3.66881e+06
3.66934e+06
3.66931e+06
3.66656e+06
3.66129e+06
3.63078e+06
3.58944e+06
3.56599e+06
3.54719e+06
3.65425e+06
3.65627e+06
3.6541e+06
3.65589e+06
3.65539e+06
3.65821e+06
3.65885e+06
3.66178e+06
3.66176e+06
3.66178e+06
3.65494e+06
3.62851e+06
3.58599e+06
3.56296e+06
3.54444e+06
3.64113e+06
3.64148e+06
3.64087e+06
3.6422e+06
3.64274e+06
3.64628e+06
3.6479e+06
3.65338e+06
3.65367e+06
3.65665e+06
3.64682e+06
3.6247e+06
3.58055e+06
3.55809e+06
3.54051e+06
3.6258e+06
3.62404e+06
3.62542e+06
3.62603e+06
3.62754e+06
3.63106e+06
3.63302e+06
3.63957e+06
3.63875e+06
3.64457e+06
3.63228e+06
3.61663e+06
3.57306e+06
3.55094e+06
3.53531e+06
3.60984e+06
3.60543e+06
3.60811e+06
3.60781e+06
3.6097e+06
3.61225e+06
3.61355e+06
3.61871e+06
3.61569e+06
3.6226e+06
3.61053e+06
3.60174e+06
3.56441e+06
3.54176e+06
3.52908e+06
3.59097e+06
3.58632e+06
3.58971e+06
3.58876e+06
3.59047e+06
3.59155e+06
3.59167e+06
3.59397e+06
3.58955e+06
3.59492e+06
3.58577e+06
3.58165e+06
3.55444e+06
3.5722e+06
3.56838e+06
3.57156e+06
3.5703e+06
3.57144e+06
3.57116e+06
3.57018e+06
3.5698e+06
3.5653e+06
3.56807e+06
3.56278e+06
3.5611e+06
3.54273e+06
3.5547e+06
3.5523e+06
3.55467e+06
3.55345e+06
3.55391e+06
3.55271e+06
3.551e+06
3.54891e+06
3.54505e+06
3.54583e+06
3.54347e+06
3.54295e+06
3.53063e+06
3.5396e+06
3.53841e+06
3.53975e+06
3.53875e+06
3.53862e+06
3.53693e+06
3.53495e+06
3.53209e+06
3.52913e+06
3.52882e+06
3.52827e+06
3.52798e+06
3.51985e+06
3.52664e+06
3.52657e+06
3.52704e+06
3.5263e+06
3.52577e+06
3.52393e+06
3.522e+06
3.51896e+06
3.51691e+06
3.51602e+06
3.51645e+06
3.51603e+06
3.51085e+06
3.51611e+06
3.51661e+06
3.51651e+06
3.51596e+06
3.51523e+06
3.51345e+06
3.51176e+06
3.50885e+06
3.50762e+06
3.50642e+06
3.50746e+06
3.50679e+06
3.50388e+06
3.5077e+06
3.50828e+06
3.50798e+06
3.50748e+06
3.50671e+06
3.50507e+06
3.50363e+06
3.50099e+06
3.50036e+06
3.49883e+06
3.50018e+06
3.49937e+06
3.49804e+06
3.50117e+06
3.50143e+06
3.50116e+06
3.50062e+06
3.4999e+06
3.49844e+06
3.49721e+06
3.49494e+06
3.49476e+06
3.49317e+06
3.49498e+06
3.49407e+06
3.49416e+06
3.49601e+06
3.49585e+06
3.49579e+06
3.49515e+06
3.49454e+06
3.49326e+06
3.49212e+06
3.49023e+06
3.49004e+06
3.48827e+06
3.48978e+06
3.4894e+06
3.48985e+06
3.49207e+06
3.49148e+06
3.49166e+06
3.49086e+06
3.49033e+06
3.48913e+06
3.48799e+06
3.48659e+06
3.48637e+06
3.4852e+06
3.48718e+06
3.4871e+06
3.48818e+06
3.48914e+06
3.48818e+06
3.48859e+06
3.48763e+06
3.48716e+06
3.48585e+06
3.48446e+06
3.4828e+06
3.4812e+06
3.48016e+06
3.48111e+06
3.48216e+06
3.4826e+06
3.48743e+06
3.4862e+06
3.48684e+06
3.48584e+06
3.48555e+06
3.48439e+06
3.48326e+06
3.48182e+06
3.48031e+06
3.48007e+06
3.48654e+06
3.48522e+06
3.48602e+06
3.4851e+06
3.48503e+06
3.48416e+06
3.48349e+06
3.48261e+06
3.48205e+06
3.48203e+06
3.48634e+06
3.48504e+06
3.4859e+06
3.4851e+06
3.4852e+06
3.48459e+06
3.48422e+06
3.48372e+06
3.48344e+06
3.48344e+06
3.48649e+06
3.48537e+06
3.48622e+06
3.48558e+06
3.4858e+06
3.48541e+06
3.48525e+06
3.48502e+06
3.4849e+06
3.48494e+06
3.4869e+06
3.48603e+06
3.4868e+06
3.48634e+06
3.4866e+06
3.48638e+06
3.48635e+06
3.48628e+06
3.48624e+06
3.48628e+06
3.48746e+06
3.48689e+06
3.48754e+06
3.48724e+06
3.48752e+06
3.48742e+06
3.48747e+06
3.4875e+06
3.4875e+06
3.48755e+06
3.48828e+06
3.4879e+06
3.48838e+06
3.4882e+06
3.48846e+06
3.48843e+06
3.48853e+06
3.48862e+06
3.48865e+06
3.48871e+06
3.489e+06
3.48884e+06
3.48922e+06
3.48913e+06
3.48938e+06
3.48939e+06
3.48952e+06
3.48964e+06
3.48968e+06
3.48975e+06
3.48978e+06
3.48978e+06
3.49006e+06
3.49e+06
3.49024e+06
3.49026e+06
3.4904e+06
3.49055e+06
3.4906e+06
3.49067e+06
3.49055e+06
3.49057e+06
3.49084e+06
3.49077e+06
3.49101e+06
3.49102e+06
3.49117e+06
3.49133e+06
3.49138e+06
3.49146e+06
3.49137e+06
3.49125e+06
3.49156e+06
3.49141e+06
3.49167e+06
3.49165e+06
3.4918e+06
3.49197e+06
3.49201e+06
3.4921e+06
3.49206e+06
3.49174e+06
3.49216e+06
3.4919e+06
3.49219e+06
3.49213e+06
3.49228e+06
3.49246e+06
3.4925e+06
3.49259e+06
3.49262e+06
3.49204e+06
3.49259e+06
3.49222e+06
3.49253e+06
3.49244e+06
3.49258e+06
3.49277e+06
3.49281e+06
3.49291e+06
3.49293e+06
3.49213e+06
3.4928e+06
3.49235e+06
3.49266e+06
3.49256e+06
3.49269e+06
3.49291e+06
3.49293e+06
3.49305e+06
3.49297e+06
3.49202e+06
3.49272e+06
3.49226e+06
3.49254e+06
3.49247e+06
3.49257e+06
3.49283e+06
3.49285e+06
3.49298e+06
3.49251e+06
3.49162e+06
3.49229e+06
3.4919e+06
3.49214e+06
3.49215e+06
3.49221e+06
3.49254e+06
3.49256e+06
3.4927e+06
3.49159e+06
3.49094e+06
3.49147e+06
3.49126e+06
3.49141e+06
3.49154e+06
3.49159e+06
3.49201e+06
3.49204e+06
3.49218e+06
3.49015e+06
3.48996e+06
3.49024e+06
3.49028e+06
3.49033e+06
3.49063e+06
3.49066e+06
3.49119e+06
3.49125e+06
3.49138e+06
3.48826e+06
3.48866e+06
3.48857e+06
3.48893e+06
3.48886e+06
3.48933e+06
3.48939e+06
3.49004e+06
3.49013e+06
3.49026e+06
3.48581e+06
3.48693e+06
3.48643e+06
3.48717e+06
3.48697e+06
3.48764e+06
3.48772e+06
3.4885e+06
3.48863e+06
3.48876e+06
3.48292e+06
3.48477e+06
3.48385e+06
3.48494e+06
3.48465e+06
3.48548e+06
3.48562e+06
3.48651e+06
3.48669e+06
3.48682e+06
3.4796e+06
3.48212e+06
3.48081e+06
3.48221e+06
3.48185e+06
3.4828e+06
3.48303e+06
3.48401e+06
3.48425e+06
3.48438e+06
3.47609e+06
3.47899e+06
3.47733e+06
3.47891e+06
3.47852e+06
3.47953e+06
3.47986e+06
3.48092e+06
3.48123e+06
3.48136e+06
3.47206e+06
3.47516e+06
3.47336e+06
3.47497e+06
3.47461e+06
3.47561e+06
3.47607e+06
3.47717e+06
3.47755e+06
3.47767e+06
3.46778e+06
3.47066e+06
3.4689e+06
3.47035e+06
3.47007e+06
3.47098e+06
3.47156e+06
3.47266e+06
3.4731e+06
3.47324e+06
3.46301e+06
3.46539e+06
3.46386e+06
3.46501e+06
3.46486e+06
3.46557e+06
3.46626e+06
3.4673e+06