/*--------------------------------*- C++ -*----------------------------------*\
| =========                 |                                                 |
| \\      /  F ield         | OpenFOAM: The Open Source CFD Toolbox           |
|  \\    /   O peration     | Version:  v2012                                 |
|   \\  /    A nd           | Website:  www.openfoam.com                      |
|    \\/     M anipulation  |                                                 |
\*---------------------------------------------------------------------------*/
FoamFile
{
    version     2.0;
    format      ascii;
    class       volScalarField;
    location    "0.7";
    object      p_rgh;
}
// * * * * * * * * * * * * * * * * * * * * * * * * * * * * * * * * * * * * * //

dimensions      [1 -1 -2 0 0 0 0];


internalField   nonuniform List<scalar> 
3332
(
3.42012e+06
3.42652e+06
3.42239e+06
3.42573e+06
3.42522e+06
3.42415e+06
3.42792e+06
3.42102e+06
3.41771e+06
3.42656e+06
3.42091e+06
3.4257e+06
3.42437e+06
3.42349e+06
3.42736e+06
3.41932e+06
3.41725e+06
3.41773e+06
3.45007e+06
3.4488e+06
3.46555e+06
3.46353e+06
3.46992e+06
3.41815e+06
3.42822e+06
3.42087e+06
3.42696e+06
3.42452e+06
3.42376e+06
3.42721e+06
3.41823e+06
3.41594e+06
3.41546e+06
3.451e+06
3.45142e+06
3.46832e+06
3.46645e+06
3.47253e+06
3.42101e+06
3.4316e+06
3.42313e+06
3.4301e+06
3.42646e+06
3.42558e+06
3.42785e+06
3.41823e+06
3.41565e+06
3.41412e+06
3.45253e+06
3.45542e+06
3.47142e+06
3.46992e+06
3.47537e+06
3.42761e+06
3.43753e+06
3.42908e+06
3.43596e+06
3.43127e+06
3.42998e+06
3.43017e+06
3.42058e+06
3.41745e+06
3.41505e+06
3.4551e+06
3.46108e+06
3.47498e+06
3.47405e+06
3.4785e+06
3.43905e+06
3.4463e+06
3.43991e+06
3.44549e+06
3.44029e+06
3.4384e+06
3.43596e+06
3.42755e+06
3.42341e+06
3.42004e+06
3.45927e+06
3.46837e+06
3.47917e+06
3.47888e+06
3.48197e+06
3.45705e+06
3.46e+06
3.45696e+06
3.45957e+06
3.45455e+06
3.45207e+06
3.44711e+06
3.44079e+06
3.43513e+06
3.42957e+06
3.46532e+06
3.4768e+06
3.48408e+06
3.48431e+06
3.48582e+06
3.48098e+06
3.47828e+06
3.47967e+06
3.47845e+06
3.47431e+06
3.47137e+06
3.46421e+06
3.46086e+06
3.45356e+06
3.44451e+06
3.4736e+06
3.48628e+06
3.48988e+06
3.49031e+06
3.4901e+06
3.50922e+06
3.50105e+06
3.50705e+06
3.50196e+06
3.49901e+06
3.49625e+06
3.48701e+06
3.48808e+06
3.47868e+06
3.4652e+06
3.48393e+06
3.49687e+06
3.49661e+06
3.49682e+06
3.49481e+06
3.53916e+06
3.527e+06
3.537e+06
3.52896e+06
3.52719e+06
3.52566e+06
3.51395e+06
3.52156e+06
3.50813e+06
3.49014e+06
3.49599e+06
3.50833e+06
3.50421e+06
3.5038e+06
3.49995e+06
3.57008e+06
3.55581e+06
3.56765e+06
3.55785e+06
3.55661e+06
3.55646e+06
3.5415e+06
3.55777e+06
3.53559e+06
3.51728e+06
3.50909e+06
3.52019e+06
3.51252e+06
3.51113e+06
3.50549e+06
3.59925e+06
3.5869e+06
3.59693e+06
3.58741e+06
3.58554e+06
3.58501e+06
3.56752e+06
3.59021e+06
3.55498e+06
3.54266e+06
3.52213e+06
3.53235e+06
3.52167e+06
3.51887e+06
3.51146e+06
3.6264e+06
3.621e+06
3.62484e+06
3.61828e+06
3.61503e+06
3.61262e+06
3.59749e+06
3.61631e+06
3.57509e+06
3.56739e+06
3.53682e+06
3.54562e+06
3.53192e+06
3.52708e+06
3.51788e+06
3.65194e+06
3.65618e+06
3.65183e+06
3.65067e+06
3.64691e+06
3.64499e+06
3.63899e+06
3.64707e+06
3.62548e+06
3.61179e+06
3.56677e+06
3.56415e+06
3.54558e+06
3.53628e+06
3.52494e+06
3.67444e+06
3.68549e+06
3.67528e+06
3.67968e+06
3.67717e+06
3.679e+06
3.68399e+06
3.68811e+06
3.69389e+06
3.6757e+06
3.61423e+06
3.58494e+06
3.5628e+06
3.54583e+06
3.53248e+06
3.68971e+06
3.70261e+06
3.69127e+06
3.69856e+06
3.69785e+06
3.70269e+06
3.71454e+06
3.71868e+06
3.7392e+06
3.71465e+06
3.66122e+06
3.59716e+06
3.57849e+06
3.55325e+06
3.53924e+06
3.69707e+06
3.70777e+06
3.69833e+06
3.70576e+06
3.706e+06
3.7112e+06
3.72367e+06
3.72469e+06
3.74726e+06
3.72096e+06
3.68901e+06
3.60389e+06
3.58912e+06
3.55832e+06
3.54445e+06
3.69764e+06
3.70533e+06
3.69853e+06
3.70458e+06
3.70482e+06
3.70914e+06
3.71829e+06
3.71723e+06
3.73346e+06
3.71408e+06
3.69451e+06
3.61571e+06
3.59383e+06
3.56272e+06
3.54782e+06
3.69328e+06
3.69833e+06
3.69372e+06
3.69823e+06
3.69809e+06
3.70134e+06
3.70673e+06
3.70543e+06
3.71464e+06
3.70204e+06
3.68935e+06
3.62747e+06
3.59462e+06
3.56631e+06
3.54951e+06
3.68553e+06
3.68914e+06
3.68582e+06
3.68914e+06
3.68847e+06
3.69077e+06
3.69327e+06
3.69177e+06
3.69616e+06
3.68783e+06
3.67948e+06
3.63197e+06
3.5934e+06
3.56775e+06
3.54972e+06
3.67606e+06
3.6792e+06
3.67632e+06
3.67888e+06
3.67779e+06
3.67965e+06
3.68026e+06
3.67934e+06
3.68067e+06
3.6753e+06
3.66944e+06
3.63233e+06
3.59174e+06
3.5676e+06
3.54894e+06
3.66605e+06
3.66886e+06
3.66592e+06
3.66798e+06
3.66688e+06
3.66895e+06
3.66903e+06
3.66956e+06
3.66953e+06
3.66678e+06
3.66148e+06
3.63088e+06
3.58949e+06
3.56602e+06
3.54722e+06
3.65447e+06
3.6565e+06
3.65432e+06
3.65611e+06
3.65561e+06
3.65843e+06
3.65907e+06
3.662e+06
3.66198e+06
3.662e+06
3.65514e+06
3.62863e+06
3.58604e+06
3.563e+06
3.54447e+06
3.64135e+06
3.6417e+06
3.64109e+06
3.64242e+06
3.64296e+06
3.6465e+06
3.64812e+06
3.65361e+06
3.65389e+06
3.65687e+06
3.64703e+06
3.62483e+06
3.58061e+06
3.55812e+06
3.54054e+06
3.62602e+06
3.62427e+06
3.62564e+06
3.62625e+06
3.62776e+06
3.63128e+06
3.63324e+06
3.63979e+06
3.63897e+06
3.64479e+06
3.6325e+06
3.61679e+06
3.57313e+06
3.55097e+06
3.53534e+06
3.61006e+06
3.60566e+06
3.60834e+06
3.60804e+06
3.60993e+06
3.61248e+06
3.61378e+06
3.61894e+06
3.61592e+06
3.62283e+06
3.61076e+06
3.60192e+06
3.56449e+06
3.5418e+06
3.52911e+06
3.5912e+06
3.58655e+06
3.58994e+06
3.58899e+06
3.5907e+06
3.59178e+06
3.5919e+06
3.5942e+06
3.58978e+06
3.59515e+06
3.586e+06
3.58185e+06
3.55454e+06
3.57243e+06
3.56862e+06
3.57179e+06
3.57053e+06
3.57167e+06
3.57139e+06
3.57041e+06
3.57003e+06
3.56553e+06
3.5683e+06
3.56301e+06
3.56132e+06
3.54286e+06
3.55493e+06
3.55253e+06
3.55491e+06
3.55368e+06
3.55414e+06
3.55294e+06
3.55123e+06
3.54915e+06
3.54528e+06
3.54606e+06
3.54371e+06
3.54317e+06
3.53078e+06
3.53984e+06
3.53864e+06
3.53998e+06
3.53898e+06
3.53885e+06
3.53717e+06
3.53518e+06
3.53232e+06
3.52936e+06
3.52906e+06
3.5285e+06
3.5282e+06
3.52001e+06
3.52687e+06
3.52681e+06
3.52728e+06
3.52654e+06
3.52601e+06
3.52417e+06
3.52224e+06
3.5192e+06
3.51714e+06
3.51626e+06
3.51668e+06
3.51626e+06
3.51102e+06
3.51635e+06
3.51685e+06
3.51675e+06
3.5162e+06
3.51547e+06
3.51369e+06
3.512e+06
3.50909e+06
3.50786e+06
3.50666e+06
3.5077e+06
3.50703e+06
3.50405e+06
3.50794e+06
3.50852e+06
3.50822e+06
3.50772e+06
3.50695e+06
3.50531e+06
3.50387e+06
3.50123e+06
3.5006e+06
3.49907e+06
3.50042e+06
3.49961e+06
3.49823e+06
3.50141e+06
3.50167e+06
3.5014e+06
3.50086e+06
3.50014e+06
3.49868e+06
3.49745e+06
3.49518e+06
3.495e+06
3.49341e+06
3.49522e+06
3.49431e+06
3.49436e+06
3.49625e+06
3.4961e+06
3.49604e+06
3.4954e+06
3.49478e+06
3.4935e+06
3.49237e+06
3.49048e+06
3.49029e+06
3.48852e+06
3.49003e+06
3.48965e+06
3.49005e+06
3.49232e+06
3.49173e+06
3.49191e+06
3.49111e+06
3.49058e+06
3.48937e+06
3.48824e+06
3.48684e+06
3.48662e+06
3.48545e+06
3.48743e+06
3.48734e+06
3.48839e+06
3.48939e+06
3.48843e+06
3.48884e+06
3.48788e+06
3.4874e+06
3.4861e+06
3.48471e+06
3.48305e+06
3.48145e+06
3.48041e+06
3.48136e+06
3.48239e+06
3.48277e+06
3.48769e+06
3.48646e+06
3.48709e+06
3.48609e+06
3.4858e+06
3.48464e+06
3.48351e+06
3.48207e+06
3.48057e+06
3.48032e+06
3.48679e+06
3.48547e+06
3.48627e+06
3.48535e+06
3.48529e+06
3.48442e+06
3.48374e+06
3.48287e+06
3.4823e+06
3.48228e+06
3.4866e+06
3.4853e+06
3.48615e+06
3.48536e+06
3.48546e+06
3.48485e+06
3.48447e+06
3.48398e+06
3.4837e+06
3.4837e+06
3.48675e+06
3.48563e+06
3.48647e+06
3.48584e+06
3.48605e+06
3.48567e+06
3.48551e+06
3.48527e+06
3.48516e+06
3.4852e+06
3.48716e+06
3.48629e+06
3.48706e+06
3.4866e+06
3.48686e+06
3.48664e+06
3.48662e+06
3.48654e+06
3.4865e+06
3.48654e+06
3.48773e+06
3.48715e+06
3.48781e+06
3.48751e+06
3.48778e+06
3.48768e+06
3.48773e+06
3.48776e+06
3.48776e+06
3.48782e+06
3.48855e+06
3.48816e+06
3.48864e+06
3.48846e+06
3.48872e+06
3.48869e+06
3.4888e+06
3.48888e+06
3.48891e+06
3.48897e+06
3.48926e+06
3.48911e+06
3.48948e+06
3.4894e+06
3.48964e+06
3.48966e+06
3.48978e+06
3.48991e+06
3.48995e+06
3.49002e+06
3.49005e+06
3.49005e+06
3.49032e+06
3.49026e+06
3.49051e+06
3.49053e+06
3.49067e+06
3.49082e+06
3.49087e+06
3.49094e+06
3.49082e+06
3.49084e+06
3.49111e+06
3.49104e+06
3.49128e+06
3.49129e+06
3.49144e+06
3.4916e+06
3.49165e+06
3.49173e+06
3.49164e+06
3.49152e+06
3.49183e+06
3.49168e+06
3.49194e+06
3.49192e+06
3.49208e+06
3.49224e+06
3.49229e+06
3.49237e+06
3.49234e+06
3.49201e+06
3.49243e+06
3.49218e+06
3.49246e+06
3.4924e+06
3.49256e+06
3.49273e+06
3.49277e+06
3.49287e+06
3.4929e+06
3.49232e+06
3.49287e+06
3.4925e+06
3.4928e+06
3.49271e+06
3.49286e+06
3.49305e+06
3.49308e+06
3.49319e+06
3.49321e+06
3.49241e+06
3.49308e+06
3.49263e+06
3.49293e+06
3.49284e+06
3.49297e+06
3.49319e+06
3.49321e+06
3.49333e+06
3.49325e+06
3.4923e+06
3.493e+06
3.49254e+06
3.49282e+06
3.49275e+06
3.49285e+06
3.49311e+06
3.49313e+06
3.49326e+06
3.49279e+06
3.4919e+06
3.49257e+06
3.49219e+06
3.49242e+06
3.49243e+06
3.4925e+06
3.49283e+06
3.49285e+06
3.49298e+06
3.49188e+06
3.49123e+06
3.49176e+06
3.49154e+06
3.49169e+06
3.49183e+06
3.49188e+06
3.4923e+06
3.49233e+06
3.49246e+06
3.49043e+06
3.49024e+06
3.49052e+06
3.49057e+06
3.49062e+06
3.49092e+06
3.49095e+06
3.49148e+06
3.49153e+06
3.49167e+06
3.48855e+06
3.48895e+06
3.48885e+06
3.48922e+06
3.48915e+06
3.48962e+06
3.48968e+06
3.49033e+06
3.49042e+06
3.49055e+06
3.4861e+06
3.48722e+06
3.48673e+06
3.48746e+06
3.48727e+06
3.48793e+06
3.48802e+06
3.48879e+06
3.48892e+06
3.48905e+06
3.48321e+06
3.48506e+06
3.48414e+06
3.48524e+06
3.48495e+06
3.48577e+06
3.48592e+06
3.4868e+06
3.48699e+06
3.48712e+06
3.4799e+06
3.48241e+06
3.48111e+06
3.48251e+06
3.48215e+06
3.48309e+06
3.48332e+06
3.4843e+06
3.48455e+06
3.48467e+06
3.47638e+06
3.47929e+06
3.47763e+06
3.4792e+06
3.47882e+06
3.47983e+06
3.48016e+06
3.48122e+06
3.48153e+06
3.48166e+06
3.47236e+06
3.47546e+06
3.47366e+06
3.47527e+06
3.47491e+06
3.47591e+06
3.47637e+06
3.47746e+06
3.47785e+06
3.47797e+06
3.46808e+06
3.47096e+06
3.4692e+06
3.47066e+06
3.47038e+06
3.47128e+06
3.47186e+06
3.47296e+06
3.4734e+06
3.47354e+06
3.46332e+06
3.46569e+06
3.46416e+06
3.46531e+06
3.46517e+06
3.46588e+06
3.46656e+06
3.4676e+06
3.4681e+06
3.46825e+06
3.45818e+06
3.45972e+06
3.45857e+06
3.45925e+06
3.45925e+06
3.45965e+06
3.4604e+06
3.46129e+06
3.46181e+06
3.46198e+06
3.45257e+06
3.4531e+06
3.45243e+06
3.45252e+06
3.45263e+06
3.45259e+06
3.45331e+06
3.4539e+06
3.45441e+06
3.45462e+06
3.44667e+06
3.44613e+06
3.44595e+06
3.44532e+06
3.44544e+06
3.44476e+06
3.44528e+06
3.44532e+06
3.44576e+06
3.446e+06
3.4409e+06
3.43931e+06
3.43949e+06
3.43805e+06
3.43795e+06
3.43636e+06
3.43638e+06
3.43542e+06
3.43569e+06
3.43597e+06
3.43617e+06
3.43364e+06
3.43384e+06
3.43138e+06
3.4307e+06
3.42776e+06
3.42676e+06
3.42409e+06
3.42398e+06
3.42425e+06
3.43349e+06
3.43034e+06
3.43026e+06
3.42661e+06
3.42476e+06
3.41974e+06
3.41686e+06
3.41129e+06
3.4105e+06
3.41074e+06
3.43517e+06
3.43178e+06
3.43083e+06
3.42574e+06
3.42174e+06
3.41391e+06
3.40771e+06
3.39712e+06
3.39495e+06
3.39491e+06
3.44463e+06
3.44115e+06
3.43867e+06
3.43171e+06
3.42438e+06
3.41271e+06
3.40087e+06
3.38246e+06
3.37758e+06
3.37698e+06
3.46641e+06
3.46299e+06
3.45826e+06
3.44874e+06
3.43673e+06
3.4196e+06
3.39877e+06
3.36944e+06
3.35845e+06
3.35665e+06
3.50636e+06
3.50304e+06
3.4956e+06
3.48285e+06
3.46515e+06
3.44079e+06
3.40815e+06
3.36488e+06
3.34048e+06
3.33694e+06
3.57137e+06
3.56822e+06
3.5581e+06
3.54222e+06
3.51898e+06
3.48701e+06
3.44224e+06
3.38026e+06
3.32719e+06
3.32104e+06
3.66592e+06
3.66305e+06
3.65105e+06
3.63267e+06
3.60443e+06
3.56537e+06
3.50799e+06
3.42111e+06
3.32326e+06
3.31366e+06
3.7903e+06
3.78746e+06
3.77405e+06
3.7532e+06
3.72084e+06
3.67366e+06
3.59971e+06
3.49264e+06
3.36472e+06
3.32511e+06
3.9359e+06
3.93452e+06
3.92534e+06
3.91081e+06
3.88754e+06
3.84784e+06
3.78322e+06
3.67907e+06
3.44118e+06
3.10298e+06
4.10259e+06
4.10328e+06
4.10135e+06
4.09999e+06
4.09862e+06
4.09572e+06
4.09802e+06
4.09542e+06
4.01957e+06
3.97112e+06
4.2516e+06
4.37408e+06
4.43354e+06
4.46156e+06
4.47718e+06
4.486e+06
4.4914e+06
4.20883e+06
4.20996e+06
4.20997e+06
4.21141e+06
4.21341e+06
4.21648e+06
4.22388e+06
4.23447e+06
4.24649e+06
4.2997e+06
4.38422e+06
4.42127e+06
4.45121e+06
4.46859e+06
4.48015e+06
4.48736e+06
4.49205e+06
4.30802e+06
4.30929e+06
4.31041e+06
4.31344e+06
4.31759e+06
4.32335e+06
4.33217e+06
4.34208e+06
4.35185e+06
4.37695e+06
4.41457e+06
4.44102e+06
4.46079e+06
4.47386e+06
4.48279e+06
4.48872e+06
4.49272e+06
4.36442e+06
4.36558e+06
4.36704e+06
4.37027e+06
4.37467e+06
4.38078e+06
4.38889e+06
4.39914e+06
4.41193e+06
4.42856e+06
4.44566e+06
4.4595e+06
4.47095e+06
4.47947e+06
4.48581e+06
4.49035e+06
4.49359e+06
4.40952e+06
4.4104e+06
4.41146e+06
4.41381e+06
4.41694e+06
4.42122e+06
4.42668e+06
4.4332e+06
4.44089e+06
4.45048e+06
4.46071e+06
4.46979e+06
4.47748e+06
4.48356e+06
4.48826e+06
4.49178e+06
4.49439e+06
4.43583e+06
4.43653e+06
4.43746e+06
4.43939e+06
4.44192e+06
4.44532e+06
4.44947e+06
4.4544e+06
4.46e+06
4.46611e+06
4.47221e+06
4.47785e+06
4.48284e+06
4.48702e+06
4.49042e+06
4.4931e+06
4.49516e+06
4.45537e+06
4.45588e+06
4.45648e+06
4.45778e+06
4.45945e+06
4.46171e+06
4.46443e+06
4.46764e+06
4.47125e+06
4.47522e+06
4.47926e+06
4.4831e+06
4.48659e+06
4.48961e+06
4.49214e+06
4.4942e+06
4.49584e+06
4.4675e+06
4.46789e+06
4.46836e+06
4.46934e+06
4.47059e+06
4.47226e+06
4.47423e+06
4.47652e+06
4.47904e+06
4.48172e+06
4.48444e+06
4.48706e+06
4.48949e+06
4.49167e+06
4.49356e+06
4.49514e+06
4.49644e+06
4.47636e+06
4.47663e+06
4.47694e+06
4.47762e+06
4.47846e+06
4.4796e+06
4.48094e+06
4.48251e+06
4.48424e+06
4.4861e+06
4.488e+06
4.48987e+06
4.49164e+06
4.49326e+06
4.49469e+06
4.49592e+06
4.49696e+06
4.48223e+06
4.48243e+06
4.48267e+06
4.48317e+06
4.48379e+06
4.48462e+06
4.4856e+06
4.48673e+06
4.48797e+06
4.48929e+06
4.49065e+06
4.49201e+06
4.4933e+06
4.49451e+06
4.49561e+06
4.49657e+06
4.4974e+06
4.48655e+06
4.4867e+06
4.48686e+06
4.48722e+06
4.48766e+06
4.48825e+06
4.48894e+06
4.48975e+06
4.49065e+06
4.49161e+06
4.4926e+06
4.49361e+06
4.49458e+06
4.4955e+06
4.49635e+06
4.49711e+06
4.49778e+06
4.49834e+06
4.49882e+06
4.48959e+06
4.48971e+06
4.48983e+06
4.4901e+06
4.49042e+06
4.49087e+06
4.49138e+06
4.49198e+06
4.49264e+06
4.49335e+06
4.49409e+06
4.49484e+06
4.49558e+06
4.49629e+06
4.49696e+06
4.49756e+06
4.4981e+06
4.49856e+06
4.49896e+06
4.49187e+06
4.49196e+06
4.49205e+06
4.49225e+06
4.49249e+06
4.49282e+06
4.4932e+06
4.49364e+06
4.49413e+06
4.49467e+06
4.49523e+06
4.49581e+06
4.49638e+06
4.49693e+06
4.49745e+06
4.49793e+06
4.49837e+06
4.49875e+06
4.49908e+06
4.49357e+06
4.49364e+06
4.4937e+06
4.49385e+06
4.49404e+06
4.49428e+06
4.49457e+06
4.49491e+06
4.49528e+06
4.49569e+06
4.49612e+06
4.49656e+06
4.49701e+06
4.49744e+06
4.49786e+06
4.49825e+06
4.4986e+06
4.49892e+06
4.49919e+06
4.49487e+06
4.49492e+06
4.49497e+06
4.49508e+06
4.49522e+06
4.49541e+06
4.49563e+06
4.49589e+06
4.49617e+06
4.49649e+06
4.49682e+06
4.49717e+06
4.49752e+06
4.49786e+06
4.4982e+06
4.49851e+06
4.4988e+06
4.49906e+06
4.49929e+06
4.49586e+06
4.4959e+06
4.49594e+06
4.49603e+06
4.49613e+06
4.49628e+06
4.49645e+06
4.49665e+06
4.49687e+06
4.49712e+06
4.49738e+06
4.49765e+06
4.49793e+06
4.49821e+06
4.49848e+06
4.49873e+06
4.49897e+06
4.49918e+06
4.49938e+06
4.49663e+06
4.49667e+06
4.4967e+06
4.49677e+06
4.49685e+06
4.49697e+06
4.4971e+06
4.49726e+06
4.49743e+06
4.49762e+06
4.49783e+06
4.49805e+06
4.49827e+06
4.49849e+06
4.49871e+06
4.49892e+06
4.49911e+06
4.49929e+06
4.49945e+06
4.49725e+06
4.49728e+06
4.4973e+06
4.49736e+06
4.49742e+06
4.49751e+06
4.49761e+06
4.49774e+06
4.49788e+06
4.49803e+06
4.4982e+06
4.49837e+06
4.49855e+06
4.49873e+06
4.4989e+06
4.49908e+06
4.49924e+06
4.49939e+06
4.49952e+06
4.49774e+06
4.49776e+06
4.49778e+06
4.49782e+06
4.49787e+06
4.49795e+06
4.49803e+06
4.49813e+06
4.49824e+06
4.49836e+06
4.49849e+06
4.49863e+06
4.49878e+06
4.49892e+06
4.49907e+06
4.49921e+06
4.49934e+06
4.49947e+06
4.49958e+06
4.49813e+06
4.49815e+06
4.49816e+06
4.4982e+06
4.49824e+06
4.4983e+06
4.49836e+06
4.49844e+06
4.49853e+06
4.49863e+06
4.49874e+06
4.49885e+06
4.49897e+06
4.49909e+06
4.49921e+06
4.49932e+06
4.49943e+06
4.49954e+06
4.49963e+06
4.49844e+06
4.49846e+06
4.49847e+06
4.4985e+06
4.49854e+06
4.49858e+06
4.49864e+06
4.4987e+06
4.49877e+06
4.49885e+06
4.49894e+06
4.49903e+06
4.49913e+06
4.49922e+06
4.49932e+06
4.49942e+06
4.49951e+06
4.4996e+06
4.49968e+06
4.49871e+06
4.49871e+06
4.49873e+06
4.49875e+06
4.49878e+06
4.49882e+06
4.49886e+06
4.49891e+06
4.49897e+06
4.49903e+06
4.49911e+06
4.49918e+06
4.49926e+06
4.49934e+06
4.49942e+06
4.4995e+06
4.49958e+06
4.49965e+06
4.49972e+06
4.49892e+06
4.49893e+06
4.49894e+06
4.49896e+06
4.49898e+06
4.49901e+06
4.49904e+06
4.49909e+06
4.49913e+06
4.49919e+06
4.49924e+06
4.49931e+06
4.49937e+06
4.49944e+06
4.4995e+06
4.49957e+06
4.49964e+06
4.4997e+06
4.49975e+06
4.49909e+06
4.4991e+06
4.49911e+06
4.49912e+06
4.49914e+06
4.49917e+06
4.4992e+06
4.49923e+06
4.49927e+06
4.49931e+06
4.49936e+06
4.49941e+06
4.49947e+06
4.49952e+06
4.49958e+06
4.49963e+06
4.49968e+06
4.49974e+06
4.49978e+06
4.49924e+06
4.49924e+06
4.49925e+06
4.49926e+06
4.49928e+06
4.4993e+06
4.49932e+06
4.49935e+06
4.49938e+06
4.49942e+06
4.49946e+06
4.4995e+06
4.49954e+06
4.49959e+06
4.49964e+06
4.49968e+06
4.49973e+06
4.49977e+06
4.49981e+06
4.49936e+06
4.49936e+06
4.49937e+06
4.49938e+06
4.49939e+06
4.49941e+06
4.49943e+06
4.49945e+06
4.49948e+06
4.49951e+06
4.49954e+06
4.49958e+06
4.49961e+06
4.49965e+06
4.49969e+06
4.49973e+06
4.49976e+06
4.4998e+06
4.49983e+06
4.49946e+06
4.49946e+06
4.49947e+06
4.49948e+06
4.49949e+06
4.4995e+06
4.49952e+06
4.49954e+06
4.49956e+06
4.49958e+06
4.49961e+06
4.49964e+06
4.49967e+06
4.4997e+06
4.49973e+06
4.49976e+06
4.4998e+06
4.49983e+06
4.49986e+06
4.49955e+06
4.49955e+06
4.49955e+06
4.49956e+06
4.49957e+06
4.49958e+06
4.49959e+06
4.49961e+06
4.49963e+06
4.49965e+06
4.49967e+06
4.49969e+06
4.49972e+06
4.49974e+06
4.49977e+06
4.4998e+06
4.49982e+06
4.49985e+06
4.49987e+06
4.49962e+06
4.49962e+06
4.49962e+06
4.49963e+06
4.49963e+06
4.49964e+06
4.49965e+06
4.49967e+06
4.49968e+06
4.4997e+06
4.49972e+06
4.49974e+06
4.49976e+06
4.49978e+06
4.4998e+06
4.49983e+06
4.49985e+06
4.49987e+06
4.49989e+06
4.49968e+06
4.49968e+06
4.49968e+06
4.49969e+06
4.49969e+06
4.4997e+06
4.49971e+06
4.49972e+06
4.49973e+06
4.49975e+06
4.49976e+06
4.49978e+06
4.4998e+06
4.49981e+06
4.49983e+06
4.49985e+06
4.49987e+06
4.49989e+06
4.4999e+06
4.49973e+06
4.49973e+06
4.49973e+06
4.49974e+06
4.49974e+06
4.49975e+06
4.49976e+06
4.49976e+06
4.49977e+06
4.49979e+06
4.4998e+06
4.49981e+06
4.49983e+06
4.49984e+06
4.49986e+06
4.49987e+06
4.49989e+06
4.4999e+06
4.49992e+06
4.49977e+06
4.49978e+06
4.49978e+06
4.49978e+06
4.49978e+06
4.49979e+06
4.4998e+06
4.4998e+06
4.49981e+06
4.49982e+06
4.49983e+06
4.49984e+06
4.49985e+06
4.49987e+06
4.49988e+06
4.49989e+06
4.49991e+06
4.49992e+06
4.49993e+06
4.49981e+06
4.49981e+06
4.49981e+06
4.49982e+06
4.49982e+06
4.49983e+06
4.49983e+06
4.49984e+06
4.49984e+06
4.49985e+06
4.49986e+06
4.49987e+06
4.49988e+06
4.49989e+06
4.4999e+06
4.49991e+06
4.49992e+06
4.49993e+06
4.49994e+06
4.49985e+06
4.49985e+06
4.49985e+06
4.49985e+06
4.49985e+06
4.49986e+06
4.49986e+06
4.49987e+06
4.49987e+06
4.49988e+06
4.49988e+06
4.49989e+06
4.4999e+06
4.49991e+06
4.49992e+06
4.49992e+06
4.49993e+06
4.49994e+06
4.49995e+06
4.49987e+06
4.49988e+06
4.49988e+06
4.49988e+06
4.49988e+06
4.49988e+06
4.49989e+06
4.49989e+06
4.4999e+06
4.4999e+06
4.49991e+06
4.49991e+06
4.49992e+06
4.49992e+06
4.49993e+06
4.49994e+06
4.49995e+06
4.49995e+06
4.49996e+06
4.4999e+06
4.4999e+06
4.4999e+06
4.49991e+06
4.49991e+06
4.49991e+06
4.49991e+06
4.49991e+06
4.49992e+06
4.49992e+06
4.49993e+06
4.49993e+06
4.49994e+06
4.49994e+06
4.49995e+06
4.49995e+06
4.49996e+06
4.49996e+06
4.49997e+06
4.49992e+06
4.49992e+06
4.49993e+06
4.49993e+06
4.49993e+06
4.49993e+06
4.49993e+06
4.49994e+06
4.49994e+06
4.49994e+06
4.49994e+06
4.49995e+06
4.49995e+06
4.49995e+06
4.49996e+06
4.49996e+06
4.49997e+06
4.49997e+06
4.49997e+06
4.49995e+06
4.49995e+06
4.49995e+06
4.49995e+06
4.49995e+06
4.49995e+06
4.49995e+06
4.49996e+06
4.49996e+06
4.49996e+06
4.49996e+06
4.49996e+06
4.49997e+06
4.49997e+06
4.49997e+06
4.49997e+06
4.49998e+06
4.49998e+06
4.49998e+06
4.49997e+06
4.49997e+06
4.49997e+06
4.49997e+06
4.49997e+06
4.49997e+06
4.49997e+06
4.49997e+06
4.49997e+06
4.49998e+06
4.49998e+06
4.49998e+06
4.49998e+06
4.49998e+06
4.49998e+06
4.49998e+06
4.49999e+06
4.49999e+06
4.49999e+06
4.49999e+06
4.49999e+06
4.49999e+06
4.49999e+06
4.49999e+06
4.49999e+06
4.49999e+06
4.49999e+06
4.49999e+06
4.49999e+06
4.49999e+06
4.49999e+06
4.49999e+06
4.49999e+06
4.49999e+06
4.49999e+06
4.49999e+06
4.5e+06
4.5e+06
3.42012e+06
3.42652e+06
3.42239e+06
3.42573e+06
3.42522e+06
3.42415e+06
3.42792e+06
3.42102e+06
3.41771e+06
3.42656e+06
3.42091e+06
3.4257e+06
3.42437e+06
3.42349e+06
3.42736e+06
3.41932e+06
3.41725e+06
3.41773e+06
3.45007e+06
3.4488e+06
3.46555e+06
3.46353e+06
3.46992e+06
3.41815e+06
3.42822e+06
3.42087e+06
3.42696e+06
3.42452e+06
3.42376e+06
3.42721e+06
3.41823e+06
3.41594e+06
3.41546e+06
3.451e+06
3.45142e+06
3.46832e+06
3.46645e+06
3.47253e+06
3.42101e+06
3.4316e+06
3.42313e+06
3.4301e+06
3.42646e+06
3.42558e+06
3.42785e+06
3.41823e+06
3.41565e+06
3.41412e+06
3.45253e+06
3.45542e+06
3.47142e+06
3.46992e+06
3.47537e+06
3.42761e+06
3.43753e+06
3.42908e+06
3.43596e+06
3.43127e+06
3.42998e+06
3.43017e+06
3.42058e+06
3.41745e+06
3.41505e+06
3.4551e+06
3.46108e+06
3.47498e+06
3.47405e+06
3.4785e+06
3.43905e+06
3.4463e+06
3.43991e+06
3.44549e+06
3.44029e+06
3.4384e+06
3.43596e+06
3.42755e+06
3.42341e+06
3.42004e+06
3.45927e+06
3.46837e+06
3.47917e+06
3.47888e+06
3.48197e+06
3.45705e+06
3.46e+06
3.45696e+06
3.45957e+06
3.45455e+06
3.45207e+06
3.44711e+06
3.44079e+06
3.43513e+06
3.42957e+06
3.46532e+06
3.4768e+06
3.48408e+06
3.48431e+06
3.48582e+06
3.48098e+06
3.47828e+06
3.47967e+06
3.47845e+06
3.47431e+06
3.47137e+06
3.46421e+06
3.46086e+06
3.45356e+06
3.44451e+06
3.4736e+06
3.48628e+06
3.48988e+06
3.49031e+06
3.4901e+06
3.50922e+06
3.50105e+06
3.50705e+06
3.50196e+06
3.49901e+06
3.49625e+06
3.48701e+06
3.48808e+06
3.47868e+06
3.4652e+06
3.48393e+06
3.49687e+06
3.49661e+06
3.49682e+06
3.49481e+06
3.53916e+06
3.527e+06
3.537e+06
3.52896e+06
3.52719e+06
3.52566e+06
3.51395e+06
3.52156e+06
3.50813e+06
3.49014e+06
3.49599e+06
3.50833e+06
3.50421e+06
3.5038e+06
3.49995e+06
3.57008e+06
3.55581e+06
3.56765e+06
3.55785e+06
3.55661e+06
3.55646e+06
3.5415e+06
3.55777e+06
3.53559e+06
3.51728e+06
3.50909e+06
3.52019e+06
3.51252e+06
3.51113e+06
3.50549e+06
3.59925e+06
3.5869e+06
3.59693e+06
3.58741e+06
3.58554e+06
3.58501e+06
3.56752e+06
3.59021e+06
3.55498e+06
3.54266e+06
3.52213e+06
3.53235e+06
3.52167e+06
3.51887e+06
3.51146e+06
3.6264e+06
3.621e+06
3.62484e+06
3.61828e+06
3.61503e+06
3.61262e+06
3.59749e+06
3.61631e+06
3.57509e+06
3.56739e+06
3.53682e+06
3.54562e+06
3.53192e+06
3.52708e+06
3.51788e+06
3.65194e+06
3.65618e+06
3.65183e+06
3.65067e+06
3.64691e+06
3.64499e+06
3.63899e+06
3.64707e+06
3.62548e+06
3.61179e+06
3.56677e+06
3.56415e+06
3.54558e+06
3.53628e+06
3.52494e+06
3.67444e+06
3.68549e+06
3.67528e+06
3.67968e+06
3.67717e+06
3.679e+06
3.68399e+06
3.68811e+06
3.69389e+06
3.6757e+06
3.61423e+06
3.58494e+06
3.5628e+06
3.54583e+06
3.53248e+06
3.68971e+06
3.70261e+06
3.69127e+06
3.69856e+06
3.69785e+06
3.70269e+06
3.71454e+06
3.71868e+06
3.7392e+06
3.71465e+06
3.66122e+06
3.59716e+06
3.57849e+06
3.55325e+06
3.53924e+06
3.69707e+06
3.70777e+06
3.69833e+06
3.70576e+06
3.706e+06
3.7112e+06
3.72367e+06
3.72469e+06
3.74726e+06
3.72096e+06
3.68901e+06
3.60389e+06
3.58912e+06
3.55832e+06
3.54445e+06
3.69764e+06
3.70533e+06
3.69853e+06
3.70458e+06
3.70482e+06
3.70914e+06
3.71829e+06
3.71723e+06
3.73346e+06
3.71408e+06
3.69451e+06
3.61571e+06
3.59383e+06
3.56272e+06
3.54782e+06
3.69328e+06
3.69833e+06
3.69372e+06
3.69823e+06
3.69809e+06
3.70134e+06
3.70673e+06
3.70543e+06
3.71464e+06
3.70204e+06
3.68935e+06
3.62747e+06
3.59462e+06
3.56631e+06
3.54951e+06
3.68553e+06
3.68914e+06
3.68582e+06
3.68914e+06
3.68847e+06
3.69077e+06
3.69327e+06
3.69177e+06
3.69616e+06
3.68783e+06
3.67948e+06
3.63197e+06
3.5934e+06
3.56775e+06
3.54972e+06
3.67606e+06
3.6792e+06
3.67632e+06
3.67888e+06
3.67779e+06
3.67965e+06
3.68026e+06
3.67934e+06
3.68067e+06
3.6753e+06
3.66944e+06
3.63233e+06
3.59174e+06
3.5676e+06
3.54894e+06
3.66605e+06
3.66886e+06
3.66592e+06
3.66798e+06
3.66688e+06
3.66895e+06
3.66903e+06
3.66956e+06
3.66953e+06
3.66678e+06
3.66148e+06
3.63088e+06
3.58949e+06
3.56602e+06
3.54722e+06
3.65447e+06
3.6565e+06
3.65432e+06
3.65611e+06
3.65561e+06
3.65843e+06
3.65907e+06
3.662e+06
3.66198e+06
3.662e+06
3.65514e+06
3.62863e+06
3.58604e+06
3.563e+06
3.54447e+06
3.64135e+06
3.6417e+06
3.64109e+06
3.64242e+06
3.64296e+06
3.6465e+06
3.64812e+06
3.65361e+06
3.65389e+06
3.65687e+06
3.64703e+06
3.62483e+06
3.58061e+06
3.55812e+06
3.54054e+06
3.62602e+06
3.62427e+06
3.62564e+06
3.62625e+06
3.62776e+06
3.63128e+06
3.63324e+06
3.63979e+06
3.63897e+06
3.64479e+06
3.6325e+06
3.61679e+06
3.57313e+06
3.55097e+06
3.53534e+06
3.61006e+06
3.60566e+06
3.60834e+06
3.60804e+06
3.60993e+06
3.61248e+06
3.61378e+06
3.61894e+06
3.61592e+06
3.62283e+06
3.61076e+06
3.60192e+06
3.56449e+06
3.5418e+06
3.52911e+06
3.5912e+06
3.58655e+06
3.58994e+06
3.58899e+06
3.5907e+06
3.59178e+06
3.5919e+06
3.5942e+06
3.58978e+06
3.59515e+06
3.586e+06
3.58185e+06
3.55454e+06
3.57243e+06
3.56862e+06
3.57179e+06
3.57053e+06
3.57167e+06
3.57139e+06
3.57041e+06
3.57003e+06
3.56553e+06
3.5683e+06
3.56301e+06
3.56132e+06
3.54286e+06
3.55493e+06
3.55253e+06
3.55491e+06
3.55368e+06
3.55414e+06
3.55294e+06
3.55123e+06
3.54915e+06
3.54528e+06
3.54606e+06
3.54371e+06
3.54317e+06
3.53078e+06
3.53984e+06
3.53864e+06
3.53998e+06
3.53898e+06
3.53885e+06
3.53717e+06
3.53518e+06
3.53232e+06
3.52936e+06
3.52906e+06
3.5285e+06
3.5282e+06
3.52001e+06
3.52687e+06
3.52681e+06
3.52728e+06
3.52654e+06
3.52601e+06
3.52417e+06
3.52224e+06
3.5192e+06
3.51714e+06
3.51626e+06
3.51668e+06
3.51626e+06
3.51102e+06
3.51635e+06
3.51685e+06
3.51675e+06
3.5162e+06
3.51547e+06
3.51369e+06
3.512e+06
3.50909e+06
3.50786e+06
3.50666e+06
3.5077e+06
3.50703e+06
3.50405e+06
3.50794e+06
3.50852e+06
3.50822e+06
3.50772e+06
3.50695e+06
3.50531e+06
3.50387e+06
3.50123e+06
3.5006e+06
3.49907e+06
3.50042e+06
3.49961e+06
3.49823e+06
3.50141e+06
3.50167e+06
3.5014e+06
3.50086e+06
3.50014e+06
3.49868e+06
3.49745e+06
3.49518e+06
3.495e+06
3.49341e+06
3.49522e+06
3.49431e+06
3.49436e+06
3.49625e+06
3.4961e+06
3.49604e+06
3.4954e+06
3.49478e+06
3.4935e+06
3.49237e+06
3.49048e+06
3.49029e+06
3.48852e+06
3.49003e+06
3.48965e+06
3.49005e+06
3.49232e+06
3.49173e+06
3.49191e+06
3.49111e+06
3.49058e+06
3.48937e+06
3.48824e+06
3.48684e+06
3.48662e+06
3.48545e+06
3.48743e+06
3.48734e+06
3.48839e+06
3.48939e+06
3.48843e+06
3.48884e+06
3.48788e+06
3.4874e+06
3.4861e+06
3.48471e+06
3.48305e+06
3.48145e+06
3.48041e+06
3.48136e+06
3.48239e+06
3.48277e+06
3.48769e+06
3.48646e+06
3.48709e+06
3.48609e+06
3.4858e+06
3.48464e+06
3.48351e+06
3.48207e+06
3.48057e+06
3.48032e+06
3.48679e+06
3.48547e+06
3.48627e+06
3.48535e+06
3.48529e+06
3.48442e+06
3.48374e+06
3.48287e+06
3.4823e+06
3.48228e+06
3.4866e+06
3.4853e+06
3.48615e+06
3.48536e+06
3.48546e+06
3.48485e+06
3.48447e+06
3.48398e+06
3.4837e+06
3.4837e+06
3.48675e+06
3.48563e+06
3.48647e+06
3.48584e+06
3.48605e+06
3.48567e+06
3.48551e+06
3.48527e+06
3.48516e+06
3.4852e+06
3.48716e+06
3.48629e+06
3.48706e+06
3.4866e+06
3.48686e+06
3.48664e+06
3.48662e+06
3.48654e+06
3.4865e+06
3.48654e+06
3.48773e+06
3.48715e+06
3.48781e+06
3.48751e+06
3.48778e+06
3.48768e+06
3.48773e+06
3.48776e+06
3.48776e+06
3.48782e+06
3.48855e+06
3.48816e+06
3.48864e+06
3.48846e+06
3.48872e+06
3.48869e+06
3.4888e+06
3.48888e+06
3.48891e+06
3.48897e+06
3.48926e+06
3.48911e+06
3.48948e+06
3.4894e+06
3.48964e+06
3.48966e+06
3.48978e+06
3.48991e+06
3.48995e+06
3.49002e+06
3.49005e+06
3.49005e+06
3.49032e+06
3.49026e+06
3.49051e+06
3.49053e+06
3.49067e+06
3.49082e+06
3.49087e+06
3.49094e+06
3.49082e+06
3.49084e+06
3.49111e+06
3.49104e+06
3.49128e+06
3.49129e+06
3.49144e+06
3.4916e+06
3.49165e+06
3.49173e+06
3.49164e+06
3.49152e+06
3.49183e+06
3.49168e+06
3.49194e+06
3.49192e+06
3.49208e+06
3.49224e+06
3.49229e+06
3.49237e+06
3.49234e+06
3.49201e+06
3.49243e+06
3.49218e+06
3.49246e+06
3.4924e+06
3.49256e+06
3.49273e+06
3.49277e+06
3.49287e+06
3.4929e+06
3.49232e+06
3.49287e+06
3.4925e+06
3.4928e+06
3.49271e+06
3.49286e+06
3.49305e+06
3.49308e+06
3.49319e+06
3.49321e+06
3.49241e+06
3.49308e+06
3.49263e+06
3.49293e+06
3.49284e+06
3.49297e+06
3.49319e+06
3.49321e+06
3.49333e+06
3.49325e+06
3.4923e+06
3.493e+06
3.49254e+06
3.49282e+06
3.49275e+06
3.49285e+06
3.49311e+06
3.49313e+06
3.49326e+06
3.49279e+06
3.4919e+06
3.49257e+06
3.49219e+06
3.49242e+06
3.49243e+06
3.4925e+06
3.49283e+06
3.49285e+06
3.49298e+06
3.49188e+06
3.49123e+06
3.49176e+06
3.49154e+06
3.49169e+06
3.49183e+06
3.49188e+06
3.4923e+06
3.49233e+06
3.49246e+06
3.49043e+06
3.49024e+06
3.49052e+06
3.49057e+06
3.49062e+06
3.49092e+06
3.49095e+06
3.49148e+06
3.49153e+06
3.49167e+06
3.48855e+06
3.48895e+06
3.48885e+06
3.48922e+06
3.48915e+06
3.48962e+06
3.48968e+06
3.49033e+06
3.49042e+06
3.49055e+06
3.4861e+06
3.48722e+06
3.48673e+06
3.48746e+06
3.48727e+06
3.48793e+06
3.48802e+06
3.48879e+06
3.48892e+06
3.48905e+06
3.48321e+06
3.48506e+06
3.48414e+06
3.48524e+06
3.48495e+06
3.48577e+06
3.48592e+06
3.4868e+06
3.48699e+06
3.48712e+06
3.4799e+06
3.48241e+06
3.48111e+06
3.48251e+06
3.48215e+06
3.48309e+06
3.48332e+06
3.4843e+06
3.48455e+06
3.48467e+06
3.47638e+06
3.47929e+06
3.47763e+06
3.4792e+06
3.47882e+06
3.47983e+06
3.48016e+06
3.48122e+06
3.48153e+06
3.48166e+06
3.47236e+06
3.47546e+06
3.47366e+06
3.47527e+06
3.47491e+06
3.47591e+06
3.47637e+06
3.47746e+06
3.47785e+06
3.47797e+06
3.46808e+06
3.47096e+06
3.4692e+06
3.47066e+06
3.47038e+06
3.47128e+06
3.47186e+06
3.47296e+06
3.4734e+06
3.47354e+06
3.46332e+06
3.46569e+06
3.46416e+06
3.46531e+06
3.46517e+06
3.46588e+06
3.46656e+06
3.4676e+06
3.4681e+06
3.46825e+06
3.45818e+06