/*--------------------------------*- C++ -*----------------------------------*\
| =========                 |                                                 |
| \\      /  F ield         | OpenFOAM: The Open Source CFD Toolbox           |
|  \\    /   O peration     | Version:  v2012                                 |
|   \\  /    A nd           | Website:  www.openfoam.com                      |
|    \\/     M anipulation  |                                                 |
\*---------------------------------------------------------------------------*/
FoamFile
{
    version     2.0;
    format      ascii;
    class       surfaceScalarField;
    location    "0.7";
    object      phi;
}
// * * * * * * * * * * * * * * * * * * * * * * * * * * * * * * * * * * * * * //

dimensions      [0 3 -1 0 0 0 0];
oriented        oriented;


internalField   nonuniform List<scalar> 
8048
(
-1.43738e-12
-7.52473e-09
-1.75608e-15
3.75066e-11
-2.29702e-08
-1.22311e-14
3.56831e-10
-4.1865e-08
-8.28603e-15
1.23674e-09
-6.7752e-08
-6.21331e-15
2.11513e-09
-9.76571e-08
-2.68705e-16
2.23784e-09
-1.21343e-07
-3.55005e-15
1.68294e-09
-1.22202e-07
-3.44047e-15
-7.79742e-08
-2.45522e-14
-1.24447e-12
-7.52348e-09
-3.19799e-15
4.58651e-11
-2.30173e-08
-9.25105e-15
3.84159e-10
-4.22033e-08
-2.82674e-15
1.388e-09
-6.87558e-08
-4.0754e-15
2.23473e-09
-9.85039e-08
-1.07911e-14
2.22028e-09
-1.21328e-07
-3.45553e-15
1.56109e-09
-1.21542e-07
-2.43293e-14
-1.5763e-09
-7.48368e-08
-3.16678e-14
-4.30221e-09
-7.39354e-08
-5.21179e-14
-6.40496e-09
-5.88732e-08
-5.7214e-14
-6.65488e-09
-3.35422e-08
-3.10055e-14
-6.97815e-09
-2.32002e-08
-1.03153e-14
-7.63019e-09
-2.18447e-08
-7.96431e-15
-8.50983e-09
-2.30128e-08
-4.71051e-15
-2.50427e-08
-3.67646e-15
-6.48816e-13
-7.52282e-09
-2.85474e-15
5.77347e-11
-2.30757e-08
-8.33976e-15
4.4355e-10
-4.25891e-08
-1.32858e-14
1.5632e-09
-6.98755e-08
-1.25531e-14
2.3059e-09
-9.92466e-08
-1.19118e-14
2.11166e-09
-1.21134e-07
-4.0696e-15
1.34104e-09
-1.20772e-07
-1.74798e-14
-1.5897e-09
-7.1906e-08
-1.73028e-14
-4.40869e-09
-7.11164e-08
-5.19175e-14
-6.54645e-09
-5.67354e-08
-6.06673e-14
-6.82559e-09
-3.32631e-08
-3.0402e-14
-7.09445e-09
-2.29314e-08
-1.11051e-14
-7.69216e-09
-2.12469e-08
-7.40337e-15
-8.52097e-09
-2.2184e-08
-4.56617e-15
-2.40335e-08
-3.78185e-15
3.48082e-13
-7.52316e-09
-1.86492e-15
7.30127e-11
-2.31483e-08
-8.34049e-15
5.3807e-10
-4.30542e-08
-1.13399e-14
1.73397e-09
-7.10714e-08
-9.03743e-15
2.26951e-09
-9.97821e-08
-3.9491e-15
1.84661e-09
-1.20711e-07
-1.63699e-14
9.66338e-10
-1.19891e-07
-1.97829e-14
-1.56391e-09
-6.93758e-08
-2.03085e-14
-4.46338e-09
-6.82169e-08
-4.96318e-14
-6.64746e-09
-5.45513e-08
-5.95138e-14
-6.97139e-09
-3.29391e-08
-3.11083e-14
-7.19123e-09
-2.27116e-08
-1.31008e-14
-7.73446e-09
-2.07037e-08
-7.78542e-15
-8.51137e-09
-2.14071e-08
-4.88398e-15
-2.30727e-08
-3.64313e-15
1.62641e-12
-7.52479e-09
-3.52992e-15
9.06918e-11
-2.32374e-08
-8.81792e-15
6.61184e-10
-4.36247e-08
-9.35574e-15
1.84842e-09
-7.22586e-08
-1.09357e-14
2.05151e-09
-9.99852e-08
-6.42764e-15
1.34893e-09
-1.20009e-07
-5.92302e-15
3.63303e-10
-1.18906e-07
-3.13025e-15
-1.52482e-09
-6.74876e-08
-6.48726e-15
-4.46879e-09
-6.5273e-08
-4.50824e-14
-6.70084e-09
-5.23193e-08
-5.59587e-14
-7.08228e-09
-3.25577e-08
-3.10615e-14
-7.26178e-09
-2.25321e-08
-1.52014e-14
-7.75155e-09
-2.02139e-08
-8.98277e-15
-8.4771e-09
-2.06815e-08
-5.71524e-15
-2.21609e-08
-3.60624e-15
3.09924e-12
-7.52787e-09
-9.30571e-16
1.09628e-10
-2.33439e-08
-5.17987e-15
7.95026e-10
-4.43101e-08
-1.04023e-14
1.84407e-09
-7.33076e-08
-1.03772e-14
1.59433e-09
-9.97354e-08
-1.12005e-14
5.67635e-10
-1.18982e-07
2.57654e-15
-4.87296e-10
-1.17851e-07
-3.43e-15
-1.47512e-09
-6.64998e-08
2.44121e-15
-4.41355e-09
-6.23346e-08
-3.73429e-14
-6.68915e-09
-5.00437e-08
-4.76152e-14
-7.14444e-09
-3.21024e-08
-2.83095e-14
-7.29843e-09
-2.23781e-08
-1.47306e-14
-7.7378e-09
-1.97745e-08
-9.24985e-15
-8.41401e-09
-2.00053e-08
-5.89935e-15
-2.12979e-08
-3.46695e-15
4.47511e-12
-7.53236e-09
-5.20501e-15
1.272e-10
-2.34666e-08
-7.88152e-15
9.09161e-10
-4.50921e-08
-8.85758e-15
1.66896e-09
-7.40674e-08
-1.38157e-14
8.93647e-10
-9.89602e-08
-1.71317e-14
-4.82515e-10
-1.17606e-07
6.19355e-16
-1.50139e-09
-1.16832e-07
-6.0704e-15
-1.38477e-09
-6.66164e-08
2.44237e-15
-4.29713e-09
-5.94223e-08
-3.02053e-14
-6.60595e-09
-4.77349e-08
-3.8224e-14
-7.15156e-09
-3.15567e-08
-2.3653e-14
-7.29735e-09
-2.22324e-08
-1.26766e-14
-7.69084e-09
-1.9381e-08
-8.70264e-15
-8.31957e-09
-1.93766e-08
-5.65989e-15
-2.04837e-08
-3.51437e-15
5.73614e-12
-7.53808e-09
-8.58728e-16
1.42404e-10
-2.36033e-08
-4.22267e-15
9.7644e-10
-4.59262e-08
-8.02716e-15
1.3121e-09
-7.44031e-08
-1.0768e-14
1.20835e-11
-9.76601e-08
-1.52841e-14
-1.72346e-09
-1.1587e-07
-1.14261e-14
-2.59727e-09
-1.15958e-07
-2.96294e-15
-1.23081e-09
-6.79829e-08
-8.14197e-15
-4.12302e-09
-5.65301e-08
-2.70072e-14
-6.45137e-09
-4.54065e-08
-3.18027e-14
-7.10079e-09
-3.09073e-08
-2.01688e-14
-7.25653e-09
-2.20767e-08
-1.0568e-14
-7.61008e-09
-1.90274e-08
-8.17914e-15
-8.1922e-09
-1.87945e-08
-5.13879e-15
-1.97184e-08
-3.51542e-15
6.62312e-12
-7.54472e-09
-4.21544e-15
1.54427e-10
-2.37511e-08
-9.10256e-15
9.74422e-10
-4.67462e-08
-5.20189e-15
7.92683e-10
-7.42213e-08
-1.19147e-14
-9.69599e-10
-9.58978e-08
-1.5163e-14
-3.04005e-09
-1.138e-07
-1.9269e-14
-3.70892e-09
-1.15289e-07
-9.61041e-15
-9.82846e-10
-7.07089e-08
-9.63078e-15
-3.88881e-09
-5.36241e-08
-2.71425e-14
-6.23141e-09
-4.30639e-08
-2.81554e-14
-6.99236e-09
-3.01463e-08
-1.81485e-14
-7.17595e-09
-2.18931e-08
-8.87999e-15
-7.49569e-09
-1.87077e-08
-7.71541e-15
-8.03098e-09
-1.82592e-08
-4.43063e-15
-1.90031e-08
-3.44772e-15
7.22488e-12
-7.55195e-09
-3.40298e-15
1.66153e-10
-2.391e-08
-5.54852e-15
8.94181e-10
-4.74742e-08
-1.64875e-15
1.61227e-10
-7.34884e-08
-1.85366e-14
-1.95242e-09
-9.37842e-08
-2.58193e-14
-4.27056e-09
-1.11482e-07
-2.57309e-14
-4.69562e-09
-1.14864e-07
-9.91584e-15
-5.55757e-10
-7.48487e-08
2.42522e-14
-3.59988e-09
-5.058e-08
-2.89468e-14
-5.96673e-09
-4.0697e-08
-2.46286e-14
-6.83532e-09
-2.92777e-08
-1.84158e-14
-7.05883e-09
-2.16697e-08
-1.04601e-14
-7.34809e-09
-1.84184e-08
-6.98111e-15
-7.83452e-09
-1.77728e-08
-4.2796e-15
-1.83405e-08
-3.22645e-15
7.64417e-12
-7.5596e-09
-1.99043e-15
1.81406e-10
-2.40838e-08
-7.53948e-15
7.32702e-10
-4.80255e-08
-1.39397e-15
-5.19996e-10
-7.22357e-08
-1.63176e-14
-2.85079e-09
-9.14534e-08
-1.49189e-14
-5.28822e-09
-1.09044e-07
-3.40651e-14
-5.53102e-09
-1.14622e-07
-5.37972e-14
-2.64367e-11
-8.03532e-08
5.37455e-14
-3.32299e-09
-4.72835e-08
-2.49664e-14
-5.707e-09
-3.8313e-08
-2.57818e-14
-6.65448e-09
-2.83302e-08
-1.83122e-14
-6.91419e-09
-2.141e-08
-1.12759e-14
-7.16888e-09
-1.81637e-08
-8.05515e-15
-7.60048e-09
-1.73411e-08
-4.60585e-15
-1.77355e-08
-3.36567e-15
8.1569e-12
-7.56776e-09
-2.53498e-15
1.99453e-10
-2.42751e-08
-7.98242e-15
4.80849e-10
-4.83068e-08
-6.30735e-16
-1.22121e-09
-7.05337e-08
-1.6145e-14
-3.67994e-09
-8.89946e-08
-1.79562e-14
-6.14884e-09
-1.06575e-07
-2.73642e-14
-6.52324e-09
-1.14247e-07
-3.77431e-14
-1.33233e-10
-8.67431e-08
2.31827e-14
-3.28292e-09
-4.41339e-08
-2.73762e-14
-5.542e-09
-3.60539e-08
-2.31968e-14
-6.4831e-09
-2.73891e-08
-1.82781e-14
-6.74588e-09
-2.11472e-08
-1.11923e-14
-6.95068e-09
-1.79589e-08
-8.31239e-15
-7.31826e-09
-1.69736e-08
-5.19355e-15
-1.71932e-08
-3.19676e-15
8.8044e-12
-7.57656e-09
-1.52826e-15
2.04485e-10
-2.44708e-08
-6.05087e-15
1.11764e-10
-4.82141e-08
-7.6803e-15
-1.95993e-09
-6.8462e-08
-1.9667e-14
-4.52786e-09
-8.64267e-08
-2.06685e-14
-7.0812e-09
-1.04022e-07
-2.2046e-14
-8.13435e-09
-1.13194e-07
-2.59801e-14
-2.20479e-09
-9.26727e-08
-2.92911e-14
-3.67096e-09
-4.26674e-08
7.99474e-16
-5.50777e-09
-3.42171e-08
-1.49808e-14
-6.31829e-09
-2.65786e-08
-2.06847e-14
-6.53312e-09
-2.09324e-08
-1.21463e-14
-6.66595e-09
-1.7826e-08
-7.76102e-15
-6.96366e-09
-1.66759e-08
-5.90962e-15
-1.67142e-08
-2.64428e-15
9.10598e-12
-7.58569e-09
-5.20678e-15
1.739e-10
-2.46356e-08
-1.08211e-14
-3.55385e-10
-4.76848e-08
-2.08481e-15
-2.65183e-09
-6.61656e-08
-1.13703e-14
-5.26838e-09
-8.38102e-08
-1.6212e-14
-7.95629e-09
-1.01334e-07
-2.22919e-15
-9.94247e-09
-1.11208e-07
-8.99327e-15
-6.05209e-09
-9.6563e-08
-4.49615e-14
-3.85809e-09
-4.48615e-08
7.80386e-15
-5.23711e-09
-3.2838e-08
-5.8653e-15
-5.93075e-09
-2.58849e-08
-1.31193e-14
-6.13379e-09
-2.07294e-08
-1.29291e-14
-6.22533e-09
-1.77345e-08
-9.96418e-15
-6.48143e-09
-1.64198e-08
-6.48672e-15
-1.62773e-08
-4.03386e-15
8.8131e-12
-7.59448e-09
1.33685e-15
1.07829e-10
-2.47347e-08
-5.29781e-15
-7.83133e-10
-4.67939e-08
-9.29101e-15
-3.02596e-09
-6.39228e-08
-1.75771e-14
-5.43427e-09
-8.14019e-08
-2.14674e-14
-7.91635e-09
-9.88519e-08
-1.00616e-14
-1.00994e-08
-1.09025e-07
-1.61461e-14
-8.01653e-09
-9.86457e-08
-2.6791e-14
-2.27049e-09
-5.06078e-08
2.91714e-14
-4.13781e-09
-3.09706e-08
5.81317e-15
-4.99184e-09
-2.50309e-08
-1.1444e-14
-5.34985e-09
-2.03715e-08
-1.18414e-14
-5.5187e-09
-1.75657e-08
-9.20584e-15
-5.80688e-09
-1.61316e-08
-6.33859e-15
-1.58303e-08
-3.76768e-15
7.88015e-12
-7.60239e-09
-4.62893e-15
3.57568e-11
-2.47625e-08
-6.59496e-15
-1.01108e-09
-4.5747e-08
-8.12241e-15
-2.8952e-09
-6.20387e-08
-1.47389e-14
-4.75686e-09
-7.95403e-08
-1.86378e-14
-6.46159e-09
-9.71471e-08
-8.0022e-15
-7.69845e-09
-1.07789e-07
-2.07824e-14
-5.72767e-09
-1.00616e-07
-2.10196e-14
1.82464e-09
-5.81603e-08
2.3564e-14
-2.13693e-09
-2.7009e-08
-5.91448e-16
-3.54895e-09
-2.36189e-08
-1.50276e-14
-4.19547e-09
-1.9725e-08
-1.25485e-14
-4.56571e-09
-1.71954e-08
-7.15602e-15
-4.95176e-09
-1.57455e-08
-5.90089e-15
-1.53207e-08
-3.5607e-15
7.03745e-12
-7.60938e-09
4.2674e-15
-1.32334e-11
-2.47423e-08
-3.46083e-15
-1.01251e-09
-4.47477e-08
-8.88882e-15
-2.40794e-09
-6.06433e-08
-1.60982e-14
-3.60477e-09
-7.83435e-08
-1.82759e-14
-4.37421e-09
-9.63775e-08
-4.12418e-15
-4.30905e-09
-1.07854e-07
-5.0005e-15
-1.91102e-09
-1.03015e-07
-3.22531e-14
5.39612e-09
-6.54674e-08
3.3159e-15
1.6903e-10
-2.17819e-08
-1.50358e-15
-1.92485e-09
-2.1525e-08
-1.10354e-14
-2.87042e-09
-1.87794e-08
-1.14438e-14
-3.48348e-09
-1.65823e-08
-7.16357e-15
-3.99299e-09
-1.5236e-08
-6.1622e-15
-1.47227e-08
-3.48315e-15
6.42066e-12
-7.61582e-09
-3.51493e-15
-3.44935e-11
-2.47014e-08
-7.01328e-15
-8.87134e-10
-4.38951e-08
-1.12135e-14
-1.8674e-09
-5.9663e-08
-1.49545e-14
-2.5395e-09
-7.76714e-08
-7.89413e-15
-2.67893e-09
-9.62382e-08
-1.60973e-14
-1.78949e-09
-1.08743e-07
-1.2945e-14
4.67305e-10
-1.05271e-07
-1.7432e-14
6.04281e-09
-7.10428e-08
-1.34504e-14
2.11734e-09
-1.78564e-08
-1.14591e-14
-3.278e-10
-1.90798e-08
-7.56739e-15
-1.54267e-09
-1.75646e-08
-9.93849e-15
-2.3619e-09
-1.57631e-08
-7.98666e-15
-3.00399e-09
-1.45939e-08
-6.23109e-15
-1.40349e-08
-3.56575e-15
6.33231e-12
-7.62214e-09
6.19668e-16
-3.73299e-11
-2.46577e-08
-6.83472e-15
-7.38284e-10
-4.31941e-08
-9.72204e-15
-1.43968e-09
-5.89616e-08
-1.35688e-14
-1.7794e-09
-7.73316e-08
-9.96122e-15
-1.59591e-09
-9.64216e-08
-1.12463e-14
-4.28714e-10
-1.0991e-07
-1.37629e-14
1.53233e-09
-1.07232e-07
-1.68022e-14
5.63298e-09
-7.51435e-08
-3.23156e-14
3.49519e-09
-1.57187e-08
-6.33736e-16
1.10626e-09
-1.66909e-08
-8.51413e-16
-3.02067e-10
-1.61562e-08
-8.74214e-15
-1.26718e-09
-1.4798e-08
-6.87413e-15
-2.03709e-09
-1.3824e-08
-4.69876e-15
-1.32672e-08
-3.79958e-15
6.5463e-12
-7.62869e-09
-2.1702e-15
-3.32506e-11
-2.46179e-08
-7.80929e-15
-6.23955e-10
-4.26034e-08
-9.35185e-15
-1.15698e-09
-5.84286e-08
-1.18674e-14
-1.30243e-09
-7.71861e-08
-5.21338e-15
-9.62649e-10
-9.67614e-08
-1.33581e-14
2.11023e-10
-1.11084e-07
-1.01078e-14
1.97305e-09
-1.08994e-07
-2.25234e-14
5.04659e-09
-7.8217e-08
-3.9592e-14
4.28374e-09
-1.4956e-08
1.91768e-16
2.21697e-09
-1.46241e-08
-7.40262e-16
7.62102e-10
-1.47014e-08
-7.65929e-15
-2.81353e-10
-1.37545e-08
-5.60063e-15
-1.14335e-09
-1.2962e-08
-3.70654e-15
-1.24392e-08
-3.67347e-15
6.96232e-12
-7.63564e-09
-5.2332e-16
-3.18003e-11
-2.45792e-08
-7.27428e-15
-5.65456e-10
-4.20697e-08
-9.48914e-15
-9.97908e-10
-5.79961e-08
-9.65352e-15
-1.0324e-09
-7.71516e-08
-5.11675e-15
-6.34158e-10
-9.71596e-08
-1.33394e-14
4.37386e-10
-1.12155e-07
-8.23529e-15
1.90469e-09
-1.10461e-07
-1.11596e-14
4.18678e-09
-8.04992e-08
-3.75256e-14
4.62441e-09
-1.53936e-08
-5.06146e-15
3.0065e-09
-1.30062e-08
-2.41139e-15
1.63376e-09
-1.33287e-08
-6.85619e-15
5.69136e-10
-1.26899e-08
-4.64223e-15
-3.43581e-10
-1.20493e-08
-3.06546e-15
-1.15704e-08
-3.34518e-15
7.32605e-12
-7.64297e-09
-1.99729e-15
-4.06823e-11
-2.45312e-08
-8.90701e-15
-5.55249e-10
-4.15551e-08
-9.0379e-15
-8.9978e-10
-5.76516e-08
-1.07915e-14
-8.4224e-10
-7.72091e-08
-1.02615e-14
-4.01717e-10
-9.76001e-08
-9.85862e-15
5.60393e-10
-1.13117e-07
-5.27978e-15
1.74817e-09
-1.11649e-07
-8.87147e-15
3.41223e-09
-8.21633e-08
-1.92584e-14
4.89414e-09
-1.68756e-08
-1.86655e-15
3.61411e-09
-1.17262e-08
-1.37663e-15
2.36002e-09
-1.20746e-08
-5.24813e-15
1.30235e-09
-1.16322e-08
-3.10285e-15
3.63751e-10
-1.11107e-08
-2.20711e-15
-1.06743e-08
-2.55161e-15
7.50853e-12
-7.65047e-09
-1.01386e-15
-6.15086e-11
-2.44622e-08
-8.50107e-15
-5.55984e-10
-4.10606e-08
-9.23854e-15
-7.70154e-10
-5.74374e-08
-7.68541e-15
-5.785e-10
-7.74007e-08
-7.5772e-15
-3.15454e-11
-9.81471e-08
-1.01687e-14
9.27434e-10
-1.14076e-07
-7.54721e-15
1.98693e-09
-1.12709e-07
-1.74326e-14
3.26704e-09
-8.34433e-08
-1.99798e-15
5.62976e-09
-1.92385e-08
-1.96516e-14
4.23775e-09
-1.03342e-08
-4.11089e-15
3.01446e-09
-1.08513e-08
-5.34814e-15
1.95278e-09
-1.05705e-08
-2.85785e-15
9.90331e-10
-1.01482e-08
-2.6696e-15
-9.75569e-09
-2.15904e-15
7.267e-12
-7.65774e-09
-2.28613e-15
-8.83862e-11
-2.43666e-08
-9.11019e-15
-5.20555e-10
-4.06285e-08
-9.38318e-15
-5.37861e-10
-5.74201e-08
-1.15936e-14
-1.43797e-10
-7.77948e-08
-1.1627e-14
6.10862e-10
-9.89017e-08
-6.00278e-15
1.73158e-09
-1.15197e-07
-7.68139e-15
2.9159e-09
-1.13893e-07
-5.3769e-15
4.27152e-09
-8.47988e-08
3.67067e-15
7.3897e-09
-2.23568e-08
-6.85533e-15
5.07281e-09
-8.01738e-09
-1.40933e-14
3.65853e-09
-9.43698e-09
-3.63791e-15
2.54674e-09
-9.45873e-09
-1.31656e-15
1.5453e-09
-9.14681e-09
-2.51862e-15
-8.81314e-09
-1.33879e-15
6.70889e-12
-7.66445e-09
-1.0968e-15
-1.08536e-10
-2.42513e-08
-8.22962e-15
-4.1782e-10
-4.03192e-08
-8.47106e-15
-1.96066e-10
-5.76419e-08
-1.0035e-14
4.39373e-10
-7.84302e-08
-9.37533e-15
1.46507e-09
-9.99273e-08
-5.17237e-15
2.86783e-09
-1.166e-07
-1.21792e-14
4.40405e-09
-1.15429e-07
-1.98958e-14
6.23153e-09
-8.66262e-08
-5.42827e-15
1.00322e-08
-2.61572e-08
2.807e-14
6.18251e-09
-4.16789e-09
-1.96004e-14
4.30974e-09
-7.56419e-09
-3.00301e-15
3.08502e-09
-8.23401e-09
-1.17141e-15
2.02839e-09
-8.09017e-09
-1.44493e-15
-7.84403e-09
-7.51655e-16
6.01329e-12
-7.67046e-09
-1.8067e-15
-1.12058e-10
-2.41333e-08
-6.56985e-15
-2.58651e-10
-4.01726e-08
-9.89271e-15
1.81517e-10
-5.8082e-08
-9.27269e-15
1.02389e-09
-7.92726e-08
-1.02396e-14
2.27764e-09
-1.01181e-07
-1.08106e-14
3.91334e-09
-1.18235e-07
-1.39344e-14
5.76468e-09
-1.17281e-07
-7.10386e-15
7.85706e-09
-8.87187e-08
-2.49499e-14
1.19868e-08
-3.02873e-08
-3.77314e-14
7.3106e-09
5.08614e-10
2.5764e-14
4.92545e-09
-5.17897e-09
2.73785e-15
3.54534e-09
-6.85391e-09
-2.9426e-16
2.43396e-09
-8.32609e-17
1.77014e-16
5.54731e-12
-7.67601e-09
-2.20382e-15
-9.64956e-11
-2.40312e-08
-6.48979e-15
-8.20623e-11
-4.0187e-08
-9.86884e-15
5.0136e-10
-5.86655e-08
-9.30556e-15
1.4565e-09
-8.02278e-08
-1.13459e-14
2.80108e-09
-1.02526e-07
-7.96519e-15
4.48349e-09
-1.19918e-07
-1.65512e-14
6.35536e-09
-1.19153e-07
-5.26429e-15
8.12727e-09
-9.04904e-08
7.22484e-15
1.18974e-08
-3.40575e-08
-1.17067e-14
7.98351e-09
4.42243e-09
-7.09989e-15
5.40547e-09
-2.60088e-09
3.39229e-15
-5.35098e-09
4.19086e-16
5.43971e-12
-7.68144e-09
-1.94106e-15
-6.715e-11
-2.39586e-08
-6.15164e-15
7.21146e-11
-4.03263e-08
-9.76732e-15
7.11292e-10
-5.93046e-08
-8.42624e-15
1.67448e-09
-8.11909e-08
-1.01227e-14
2.96645e-09
-1.03818e-07
-1.23113e-14
4.52198e-09
-1.21474e-07
-2.018e-14
6.14078e-09
-1.20771e-07
-9.01518e-15
7.31789e-09
-9.16675e-08
-4.79866e-15
1.01598e-08
-3.68994e-08
-1.16816e-14
7.93331e-09
6.64869e-09
-1.26232e-14
5.63405e-09
-3.01601e-10
3.30525e-15
-3.85067e-09
3.64541e-16
5.73735e-12
-7.68719e-09
-2.81365e-15
-3.13563e-11
-2.39215e-08
-7.54014e-15
1.82907e-10
-4.05405e-08
-7.44574e-15
8.09758e-10
-5.99315e-08
-5.83725e-15
1.70185e-09
-8.2083e-08
-1.22022e-14
2.85135e-09
-1.04967e-07
-6.15956e-15
4.19143e-09
-1.22814e-07
-1.12393e-14
5.46034e-09
-1.2204e-07
-1.11264e-14
6.11726e-09
-9.23244e-08
-3.49659e-15
7.93957e-09
-3.87216e-08
-2.08806e-15
7.27251e-09
7.31572e-09
4.47795e-15
5.57272e-09
1.39822e-09
3.65013e-15
-2.50498e-09
1.00629e-15
6.37157e-12
-7.69356e-09
-1.84503e-15
3.76153e-12
-2.39189e-08
-6.03018e-15
2.45941e-10
-4.07827e-08
-9.09148e-15
8.19165e-10
-6.05047e-08
-8.88607e-15
1.59867e-09
-8.28626e-08
-1.41241e-14
2.57241e-09
-1.05941e-07
-1.18079e-14
3.68204e-09
-1.23923e-07
-8.89871e-15
4.63555e-09
-1.22994e-07
-1.86384e-14
4.92486e-09
-9.26136e-08
1.63178e-15
5.92177e-09
-3.97185e-08
-4.82386e-15
6.31024e-09
6.92729e-09
1.03522e-14
5.28631e-09
2.42219e-09
3.16274e-15
-1.41431e-09
1.18015e-15
7.15021e-12
-7.70071e-09
-3.05913e-15
3.30159e-11
-2.39448e-08
-8.0122e-15
2.68783e-10
-4.10184e-08
-4.46587e-15
7.70894e-10
-6.10068e-08
-5.73226e-15
1.4269e-09
-8.35186e-08
-1.1659e-14
2.22941e-09
-1.06743e-07
-1.58613e-14
3.13684e-09
-1.24831e-07
-1.44583e-14
3.85876e-09
-1.23716e-07
-2.27304e-14
3.92635e-09
-9.26812e-08
4.27145e-18
4.33161e-09
-4.01238e-08
-9.63587e-15
5.36841e-09
5.89046e-09
-1.53248e-15
4.89434e-09
2.89629e-09
1.41113e-15
-6.00726e-10
1.23392e-15
7.90748e-12
-7.70862e-09
-1.90808e-15
5.34765e-11
-2.39904e-08
-7.0582e-15
2.63441e-10
-4.12284e-08
-7.9927e-15
6.92955e-10
-6.14363e-08
-4.71171e-15
1.2328e-09
-8.40585e-08
-1.60507e-14
1.88631e-09
-1.07397e-07
-1.61526e-15
2.63399e-09
-1.25578e-07
-1.41906e-14
3.20069e-09
-1.24282e-07
1.08676e-14
3.14582e-09
-9.26265e-08
-3.29045e-14
3.12603e-09
-4.0104e-08
-3.98074e-15
4.55259e-09
4.46382e-09
-7.05563e-15
4.47737e-09
2.97154e-09
2.53584e-15
-5.02981e-11
1.39396e-15
8.416e-12
-7.71704e-09
-3.39417e-15
6.39715e-11
-2.4046e-08
-8.29292e-15
2.41531e-10
-4.14059e-08
-5.37207e-15
6.0516e-10
-6.17999e-08
-3.71687e-15
1.04413e-09
-8.44975e-08
-1.98108e-14
1.57547e-09
-1.07928e-07
-3.67581e-15
2.20572e-09
-1.26209e-07
-1.32537e-14
2.6776e-09
-1.24754e-07
3.12238e-15
2.58674e-09
-9.25356e-08
-2.50001e-14
2.27948e-09
-3.97967e-08
3.27827e-15
3.86334e-09
2.87995e-09
-1.5127e-15
4.0733e-09
2.76163e-09
3.90791e-15
2.71036e-10
1.80402e-15
8.54424e-12
-7.72558e-09
-1.83704e-15
6.50864e-11
-2.41025e-08
-6.98325e-15
2.11585e-10
-4.15524e-08
-6.438e-15
5.18587e-10
-6.21068e-08
-2.94982e-15
8.72846e-10
-8.48518e-08
-8.44473e-15
1.30597e-09
-1.08361e-07
-1.93844e-14
1.85044e-09
-1.26753e-07
-1.33374e-14
2.25963e-09
-1.25163e-07
-6.71485e-15
2.15482e-09
-9.24309e-08
-1.40097e-14
1.50317e-09
-3.91451e-08
-8.24761e-15
3.07739e-09
1.30566e-09
-9.39892e-15
3.60659e-09
2.23245e-09
1.02967e-15
3.6343e-10
1.24455e-15
8.084e-12
-7.73367e-09
-2.9808e-15
5.86337e-11
-2.41531e-08
-7.11951e-15
1.79328e-10
-4.16731e-08
-7.45134e-15
4.38562e-10
-6.2366e-08
-3.36555e-15
7.21742e-10
-8.5135e-08
-1.39201e-14
1.0765e-09
-1.08716e-07
-1.24645e-14
1.55885e-09
-1.27236e-07
-9.39413e-15
1.94121e-09
-1.25546e-07
-1.63601e-14
1.91131e-09
-9.24009e-08
1.84943e-15
1.07467e-09
-3.83084e-08
6.18992e-15
2.18542e-09
1.9492e-10
-1.72412e-14
2.9801e-09
1.43782e-09
2.35459e-16
2.7544e-10
1.32892e-15
6.94679e-12
-7.74062e-09
-2.15354e-15
4.67646e-11
-2.41929e-08
-8.08464e-15
1.47432e-10
-4.17737e-08
-5.97119e-15
3.65274e-10
-6.25839e-08
-3.63753e-15
5.86795e-10
-8.53566e-08
-1.30189e-14
8.75799e-10
-1.09005e-07
-1.34033e-14
1.3026e-09
-1.27662e-07
-1.33996e-14
1.64806e-09
-1.25891e-07
-1.79635e-14
1.60502e-09
-9.23578e-08
-5.58217e-16
5.03337e-10
-3.72067e-08
4.02426e-15
1.10786e-09
-4.09577e-10
-5.0454e-15
2.04503e-09
5.00671e-10
1.43033e-15
7.88394e-11
1.57737e-15
5.07986e-12
-7.7457e-09
-3.17357e-15
3.08506e-11
-2.42186e-08
-7.36097e-15
1.15336e-10
-4.18582e-08
-8.12294e-15
2.93731e-10
-6.27622e-08
-5.03938e-15
4.56596e-10
-8.55194e-08
-1.37007e-14
6.84449e-10
-1.09233e-07
-1.00957e-14
1.06498e-09
-1.28043e-07
-1.20091e-14
1.42861e-09
-1.26255e-07
-1.26428e-14
1.53205e-09
-9.24612e-08
-1.18311e-14
7.10522e-10
-3.63852e-08
-1.52464e-14
3.01007e-10
1.40975e-14
8.01685e-10
2.9461e-15
1.08281e-15
2.98225e-12
-7.74869e-09
-2.74919e-15
1.33028e-11
-2.4229e-08
-7.80517e-15
8.45823e-11
-4.19295e-08
-7.16393e-15
2.22925e-10
-6.29006e-08
-7.30119e-15
3.23309e-10
-8.56198e-08
-1.1362e-14
4.72125e-10
-1.09382e-07
-1.29437e-14
7.54194e-10
-1.28325e-07
-7.57383e-15
9.99281e-10
-1.265e-07
-1.82429e-14
8.01483e-10
-9.22635e-08
-1.09245e-14
-3.55838e-08
-6.73572e-15
1.30009e-12
-7.74999e-09
-3.04493e-15
-1.58329e-12
-2.42261e-08
-7.20123e-15
6.29917e-11
-4.1994e-08
-7.25829e-15
1.69497e-10
-6.30071e-08
-5.52523e-15
2.22113e-10
-8.56725e-08
-1.04256e-14
3.14149e-10
-1.09474e-07
-1.46925e-14
5.36933e-10
-1.28548e-07
-1.17127e-14
7.24203e-10
-1.26687e-07
-1.30702e-14
3.94929e-10
-9.19342e-08
-4.86279e-15
-3.51888e-08
-5.39224e-15
1.39413e-13
-7.75013e-09
-2.66319e-15
-1.19228e-11
-2.4214e-08
-8.13133e-15
5.19994e-11
-4.2058e-08
-7.63714e-15
1.35528e-10
-6.30906e-08
-6.00151e-15
1.56153e-10
-8.56931e-08
-9.85263e-15
2.17686e-10
-1.09535e-07
-1.62248e-14
4.26014e-10
-1.28756e-07
-1.54086e-14
6.33159e-10
-1.26894e-07
-1.225e-14
3.96854e-10
-9.16979e-08
-7.41578e-15
-3.4792e-08
-1.37797e-15
-5.36415e-13
-7.7496e-09
-2.86265e-15
-1.7206e-11
-2.41973e-08
-7.84633e-15
5.01185e-11
-4.21253e-08
-7.49859e-15
1.16797e-10
-6.31573e-08
-5.90686e-15
1.151e-10
-8.56914e-08
-1.03544e-14
1.5843e-10
-1.09579e-07
-1.33623e-14
3.6073e-10
-1.28958e-07
-1.30778e-14
5.83261e-10
-1.27117e-07
3.81002e-15
3.68778e-10
-9.14832e-08
1.21172e-14
-3.4423e-08
2.22584e-14
-8.01206e-13
-7.7488e-09
-2.92206e-15
-1.74444e-11
-2.41807e-08
-8.03015e-15
5.56916e-11
-4.21984e-08
-7.54755e-15
1.09956e-10
-6.32116e-08
-4.31934e-15
9.32895e-11
-8.56747e-08
-1.16709e-14
1.27614e-10
-1.09613e-07
-3.15089e-15
3.31928e-10
-1.29163e-07
-4.35348e-14
5.73945e-10
-1.27359e-07
-2.79937e-14
3.75709e-10
-9.12852e-08
-2.86199e-14
-3.40475e-08
-2.51587e-14
-7.59652e-13
-7.74804e-09
-2.91957e-15
-1.31433e-11
-2.41683e-08
-9.43018e-15
6.64778e-11
-4.22781e-08
-8.20441e-15
1.10808e-10
-6.32559e-08
-4.95365e-15
8.35422e-11
-8.56474e-08
-8.65761e-15
1.13456e-10
-1.09643e-07
7.91879e-15
3.22228e-10
-1.29372e-07
-3.22366e-14
5.8069e-10
-1.27617e-07
-1.14576e-14
3.8713e-10
-9.10916e-08
-8.23056e-15
-3.36604e-08
-5.20882e-15
-4.59055e-13
-7.74757e-09
-2.54483e-15
-5.13494e-12
-2.41637e-08
-8.68926e-15
8.04214e-11
-4.23636e-08
-5.09827e-15
1.16304e-10
-6.32917e-08
3.12347e-15
8.13233e-11
-8.56125e-08
-2.3518e-14
1.09731e-10
-1.09671e-07
-1.95805e-14
3.24752e-10
-1.29587e-07
-2.26303e-14
5.99108e-10
-1.27892e-07
-1.21977e-14
4.06105e-10
-9.08986e-08
-8.37669e-15
-3.32543e-08
-1.16747e-15
3.41723e-14
-7.7476e-09
-2.4061e-15
5.40231e-12
-2.4169e-08
-1.13091e-14
9.56162e-11
-4.24538e-08
-5.3684e-15
1.23757e-10
-6.33197e-08
2.9173e-15
8.30253e-11
-8.55719e-08
-2.18585e-14
1.11826e-10
-1.097e-07
-1.41393e-14
3.33982e-10
-1.29809e-07
-1.92366e-14
6.23817e-10
-1.28182e-07
-9.41393e-15
4.284e-10
-9.07032e-08
-5.14419e-15
-3.28258e-08
-2.97607e-16
6.8959e-13
-7.74829e-09
-2.51447e-15
1.69981e-11
-2.41854e-08
-8.54469e-15
1.10164e-10
-4.2547e-08
-7.59194e-15
1.3092e-10
-6.33405e-08
-7.60023e-15
8.59539e-11
-8.55269e-08
-8.43101e-15
1.16353e-10
-1.0973e-07
-1.58645e-14
3.46634e-10
-1.30039e-07
-1.77442e-14
6.52525e-10
-1.28487e-07
-8.68681e-15
4.53703e-10
-9.05043e-08
-3.65564e-15
-3.23721e-08
-2.67828e-15
1.47363e-12
-7.74976e-09
-2.72043e-15
2.79402e-11
-2.42118e-08
-9.04165e-15
1.22467e-10
-4.26415e-08
-6.90296e-15
1.36219e-10
-6.33543e-08
-7.32168e-15
8.81579e-11
-8.54788e-08
-1.1522e-14
1.21018e-10
-1.09763e-07
-1.62625e-14
3.60445e-10
-1.30279e-07
-1.65231e-14
6.83467e-10
-1.28811e-07
-1.15905e-14
4.81085e-10
-9.03019e-08
-7.3049e-15
-3.1891e-08
-8.65741e-16
2.3619e-12
-7.75212e-09
-2.44855e-15
3.65146e-11
-2.4246e-08
-9.45663e-15
1.31088e-10
-4.27361e-08
-7.01944e-15
1.38123e-10
-6.33613e-08
-8.7956e-15
8.8253e-11
-8.54289e-08
-1.08442e-14
1.24229e-10
-1.09799e-07
-1.33608e-14
3.73989e-10
-1.30528e-07
-1.5804e-14
7.15699e-10
-1.29152e-07
-1.16461e-14
5.104e-10
-9.00966e-08
-7.08765e-15
-3.13806e-08
-2.93977e-15
3.3204e-12
-7.75544e-09
-2.97065e-15
4.14213e-11
-2.42841e-08
-8.33837e-15
1.35277e-10
-4.283e-08
-6.95165e-15
1.35909e-10
-6.33619e-08
-9.34733e-15
8.54943e-11
-8.53785e-08
-1.20882e-14
1.25086e-10
-1.09839e-07
-1.61403e-14
3.86692e-10
-1.3079e-07
-8.65625e-15
7.49038e-10
-1.29515e-07
-1.32481e-14
5.41927e-10
-8.98895e-08
-5.2848e-15
-3.08387e-08
-3.42025e-15
4.32979e-12
-7.75976e-09
-2.98205e-15
4.19713e-11
-2.43218e-08
-9.40034e-15
1.34781e-10
-4.29228e-08
-6.26292e-15
1.29294e-10
-6.33564e-08
-1.02108e-14
7.95818e-11
-8.53288e-08
-1.31554e-14
1.23444e-10
-1.09882e-07
-1.31657e-14
3.98663e-10
-1.31065e-07
-1.69864e-14
7.84003e-10
-1.299e-07
-1.85024e-14
5.76828e-10
-8.96824e-08
-5.14021e-15
-3.0262e-08
-8.35387e-15
5.37198e-12
-7.76514e-09
-3.62061e-15
3.85065e-11
-2.43549e-08
-8.1496e-15
1.30305e-10
-4.30146e-08
-5.17387e-15
1.19002e-10
-6.33452e-08
-1.22782e-14
7.11682e-11
-8.52809e-08
-1.16504e-14
1.20059e-10
-1.09931e-07
-1.85756e-14
4.10629e-10
-1.31356e-07
-2.54559e-15
8.20869e-10
-1.3031e-07
-7.4496e-15
6.14795e-10
-8.94762e-08
8.06901e-16
-2.9647e-08
1.7515e-14
6.46168e-12
-7.77159e-09
-2.96006e-15
3.21631e-11
-2.43806e-08
-1.08386e-14
1.22982e-10
-4.31054e-08
-5.28202e-15
1.06112e-10
-6.33283e-08
-1.07467e-14
6.0972e-11
-8.52358e-08
-1.59811e-14
1.16243e-10
-1.09987e-07
-1.65266e-15
4.23594e-10
-1.31663e-07
-3.92225e-14
8.60657e-10
-1.30747e-07
-1.45329e-14
6.56021e-10
-8.92716e-08
-1.35615e-14
-2.89912e-08
-2.0654e-14
7.59698e-12
-7.77919e-09
-3.61143e-15
2.49455e-11
-2.4398e-08
-9.91686e-15
1.14634e-10
-4.31951e-08
-3.99429e-15
9.23695e-11
-6.3306e-08
-1.19264e-14
5.083e-11
-8.51943e-08
-1.31747e-14
1.14144e-10
-1.1005e-07
-6.84633e-15
4.40493e-10
-1.3199e-07
-2.83217e-14
9.06659e-10
-1.31213e-07
-2.42909e-15
7.03556e-10
-8.90686e-08
-4.44275e-15
-2.82876e-08
-6.05338e-15
8.81324e-12
-7.788e-09
-3.6722e-15
1.91432e-11
-2.44083e-08
-1.06121e-14
1.07113e-10
-4.32831e-08
-5.39291e-15
7.97701e-11
-6.32787e-08
-1.0778e-14
4.32386e-11
-8.51577e-08
-1.62382e-14
1.17427e-10
-1.10124e-07
-8.25056e-15
4.64975e-10
-1.32337e-07
-3.21583e-14
9.61907e-10
-1.3171e-07
-4.51964e-15
7.59479e-10
-8.88661e-08
-5.44063e-15
-2.75281e-08
-1.16179e-15
1.01368e-11
-7.79814e-09
-4.36254e-15
1.71653e-11
-2.44153e-08
-1.00396e-14
1.02507e-10
-4.33684e-08
-4.49845e-15
7.06279e-11
-6.32468e-08
-1.16154e-14
4.10376e-11
-8.51281e-08
-1.03587e-14
1.29347e-10
-1.10212e-07
-1.07898e-15
5.00332e-10
-1.32708e-07
-3.04136e-14
1.02892e-09
-1.32239e-07
-8.81446e-15
8.24706e-10
-8.8662e-08
-1.60434e-14
-2.67033e-08
5.90516e-15
1.16191e-11
-7.80976e-09
-4.00348e-15
2.09531e-11
-2.44247e-08
-1.10028e-14
1.02264e-10
-4.34497e-08
-5.09715e-15
6.69263e-11
-6.32114e-08
-7.78247e-15
4.68344e-11
-8.51081e-08
-2.21496e-14
1.52995e-10
-1.10318e-07
-2.40023e-14
5.49948e-10
-1.33105e-07
-1.61662e-14
1.11056e-09
-1.32799e-07
-1.83874e-14
9.01203e-10
-8.84525e-08
-1.70366e-16
-2.58022e-08
-1.37035e-14
1.32852e-11
-7.82305e-09
-4.77549e-15
3.18043e-11
-2.44432e-08
-1.00145e-14
1.07222e-10
-4.35251e-08
-4.24203e-15
6.99127e-11
-6.31741e-08
-1.00213e-14
6.25505e-11
-8.51007e-08
-1.6583e-14
1.90972e-10
-1.10447e-07
-1.26836e-14
6.16399e-10
-1.33531e-07
-1.52727e-14
1.20908e-09
-1.33392e-07
-2.06397e-14
9.89888e-10
-8.82333e-08
-1.2341e-14
-2.48124e-08
-1.47672e-15
1.51707e-11
-7.83823e-09
-5.01998e-15
4.98826e-11
-2.44779e-08
-9.73333e-15
1.17294e-10
-4.35925e-08
-5.55039e-15
8.05733e-11
-6.31373e-08
-9.57205e-15
8.97922e-11
-8.511e-08
-1.87236e-14
2.44862e-10
-1.10602e-07
-1.76117e-14
7.01551e-10
-1.33987e-07
-1.28e-14
1.326e-09
-1.34017e-07
-1.62e-14
1.09163e-09
-8.7999e-08
-9.29906e-15
-2.37207e-08
3.78629e-15
1.72858e-11
-7.85552e-09
-5.67356e-15
7.42528e-11
-2.45348e-08
-8.69627e-15
1.31604e-10
-4.36499e-08
-6.11973e-15
9.90609e-11
-6.31048e-08
-9.97143e-15
1.29257e-10
-8.51402e-08
-1.75424e-14
3.15568e-10
-1.10788e-07
-1.57769e-14
8.06491e-10
-1.34478e-07
-1.44402e-14
1.4624e-09
-1.34673e-07
-1.2156e-14
1.207e-09
-8.77435e-08
-4.77917e-15
-2.25138e-08
-4.10769e-16
1.96296e-11
-7.87515e-09
-5.10546e-15
1.02524e-10
-2.46177e-08
-1.0541e-14
1.47966e-10
-4.36953e-08
-4.44449e-15
1.24234e-10
-6.3081e-08
-1.21354e-14
1.79968e-10
-8.51959e-08
-1.66114e-14
4.02016e-10
-1.1101e-07
-1.46534e-14
9.30635e-10
-1.35007e-07
-1.63044e-14
1.61818e-09
-1.3536e-07
-1.21821e-14
1.3361e-09
-8.74614e-08
-6.79034e-15
-2.11777e-08
4.57175e-15
2.21243e-11
-7.89727e-09
-5.63592e-15
1.31322e-10
-2.47269e-08
-1.00584e-14
1.63834e-10
-4.37278e-08
-4.50321e-15
1.54488e-10
-6.30717e-08
-1.04205e-14
2.40273e-10
-8.52818e-08
-1.93223e-14
5.02283e-10
-1.11272e-07
-1.69656e-14
1.07237e-09
-1.35577e-07
-1.26551e-14
1.79258e-09
-1.3608e-07
-1.18775e-14
1.47915e-09
-8.71479e-08
-4.28306e-15
-1.96985e-08
-7.3899e-16
2.46453e-11
-7.92192e-09
-6.10488e-15
1.56451e-10
-2.48587e-08
-9.18062e-15
1.76033e-10
-4.37473e-08
-9.27076e-15
1.86814e-10
-6.30824e-08
-1.4779e-14
3.06754e-10
-8.54017e-08
-1.39636e-14
6.12453e-10
-1.11578e-07
-1.70417e-14
1.22808e-09
-1.36193e-07
-9.69704e-15
1.98346e-09
-1.36836e-07
-2.29224e-14
1.63605e-09
-8.68006e-08
-1.14787e-14
-1.80625e-08
-7.52216e-15
2.69809e-11
-7.9489e-09
-6.81039e-15
1.7376e-10
-2.50055e-08
-9.26247e-15
1.81732e-10
-4.37553e-08
-9.11678e-15
2.17871e-10
-6.31186e-08
-1.3634e-14
3.74735e-10
-8.55586e-08
-1.71368e-14
7.26782e-10
-1.1193e-07
-2.0384e-14
1.392e-09
-1.36858e-07
-7.98991e-15
2.18734e-09
-1.37631e-07
-1.92726e-14
1.80699e-09
-8.64202e-08
-5.30494e-15
-1.62555e-08
-1.08879e-14
2.88015e-11
-7.97771e-09
-7.26196e-15
1.79576e-10
-2.51563e-08
-9.79048e-15
1.78064e-10
-4.37538e-08
-1.00934e-14
2.42769e-10
-6.31833e-08
-1.4605e-14
4.37005e-10
-8.57528e-08
-1.47937e-14
8.36322e-10