/*--------------------------------*- C++ -*----------------------------------*\
| =========                 |                                                 |
| \\      /  F ield         | OpenFOAM: The Open Source CFD Toolbox           |
|  \\    /   O peration     | Version:  v2012                                 |
|   \\  /    A nd           | Website:  www.openfoam.com                      |
|    \\/     M anipulation  |                                                 |
\*---------------------------------------------------------------------------*/
FoamFile
{
    version     2.0;
    format      ascii;
    class       volScalarField;
    location    "0.8";
    object      p;
}
// * * * * * * * * * * * * * * * * * * * * * * * * * * * * * * * * * * * * * //

dimensions      [1 -1 -2 0 0 0 0];


internalField   nonuniform List<scalar> 
3332
(
3.49617e+06
3.49552e+06
3.49624e+06
3.4972e+06
3.49789e+06
3.49835e+06
3.49874e+06
3.49887e+06
3.49625e+06
3.49458e+06
3.49437e+06
3.49592e+06
3.49697e+06
3.49764e+06
3.49815e+06
3.49851e+06
3.49878e+06
3.499e+06
3.49916e+06
3.49926e+06
3.49946e+06
3.49981e+06
3.50014e+06
3.49632e+06
3.49526e+06
3.49511e+06
3.49578e+06
3.49617e+06
3.49687e+06
3.49755e+06
3.49793e+06
3.49833e+06
3.49869e+06
3.49888e+06
3.49897e+06
3.49921e+06
3.49959e+06
3.49995e+06
3.49672e+06
3.49569e+06
3.49515e+06
3.49564e+06
3.49589e+06
3.49642e+06
3.49701e+06
3.49751e+06
3.49792e+06
3.49831e+06
3.49851e+06
3.49864e+06
3.49892e+06
3.49936e+06
3.49976e+06
3.49672e+06
3.49614e+06
3.4957e+06
3.4959e+06
3.49588e+06
3.49634e+06
3.49683e+06
3.49727e+06
3.4977e+06
3.49807e+06
3.49825e+06
3.49838e+06
3.49869e+06
3.49916e+06
3.49961e+06
3.49852e+06
3.49599e+06
3.49551e+06
3.49612e+06
3.49618e+06
3.49646e+06
3.4968e+06
3.49717e+06
3.49761e+06
3.49794e+06
3.49814e+06
3.49827e+06
3.49857e+06
3.49905e+06
3.49952e+06
3.49846e+06
3.49652e+06
3.4963e+06
3.49677e+06
3.49668e+06
3.49683e+06
3.497e+06
3.49728e+06
3.49767e+06
3.49797e+06
3.49816e+06
3.49828e+06
3.49858e+06
3.49906e+06
3.49953e+06
3.49875e+06
3.49766e+06
3.49719e+06
3.49709e+06
3.49703e+06
3.49715e+06
3.49724e+06
3.49746e+06
3.49775e+06
3.49801e+06
3.49822e+06
3.49835e+06
3.49867e+06
3.49916e+06
3.49965e+06
3.49865e+06
3.49853e+06
3.49855e+06
3.49813e+06
3.49777e+06
3.49759e+06
3.4974e+06
3.49747e+06
3.49769e+06
3.49797e+06
3.49826e+06
3.49849e+06
3.49887e+06
3.49937e+06
3.49986e+06
3.50375e+06
3.50113e+06
3.5005e+06
3.49969e+06
3.4986e+06
3.49815e+06
3.49765e+06
3.49725e+06
3.49742e+06
3.49778e+06
3.49819e+06
3.49863e+06
3.49911e+06
3.49965e+06
3.50016e+06
3.50365e+06
3.50222e+06
3.50221e+06
3.50117e+06
3.49985e+06
3.49908e+06
3.49827e+06
3.49768e+06
3.49771e+06
3.49806e+06
3.49851e+06
3.49902e+06
3.49953e+06
3.50007e+06
3.50056e+06
3.50405e+06
3.50435e+06
3.50416e+06
3.50228e+06
3.50088e+06
3.5001e+06
3.49914e+06
3.49844e+06
3.49835e+06
3.49863e+06
3.49906e+06
3.49954e+06
3.50004e+06
3.50056e+06
3.50103e+06
3.50423e+06
3.50549e+06
3.50567e+06
3.504e+06
3.50244e+06
3.50136e+06
3.50022e+06
3.49948e+06
3.49935e+06
3.49956e+06
3.49991e+06
3.5003e+06
3.50072e+06
3.50118e+06
3.50162e+06
3.51008e+06
3.50356e+06
3.50293e+06
3.5044e+06
3.50339e+06
3.50163e+06
3.50053e+06
3.50036e+06
3.50037e+06
3.50048e+06
3.50076e+06
3.50107e+06
3.50142e+06
3.50183e+06
3.50226e+06
3.51039e+06
3.50521e+06
3.50496e+06
3.50616e+06
3.50498e+06
3.50328e+06
3.50221e+06
3.50202e+06
3.50192e+06
3.50186e+06
3.50194e+06
3.50208e+06
3.5023e+06
3.50265e+06
3.50305e+06
3.51124e+06
3.50824e+06
3.50699e+06
3.50614e+06
3.50522e+06
3.50466e+06
3.50392e+06
3.50367e+06
3.50336e+06
3.50308e+06
3.50297e+06
3.50298e+06
3.50315e+06
3.5035e+06
3.50393e+06
3.51167e+06
3.51082e+06
3.5106e+06
3.50959e+06
3.50868e+06
3.50809e+06
3.50713e+06
3.50648e+06
3.50573e+06
3.50509e+06
3.50467e+06
3.50445e+06
3.50451e+06
3.50477e+06
3.50515e+06
3.52414e+06
3.51578e+06
3.51468e+06
3.51373e+06
3.5123e+06
3.51103e+06
3.50968e+06
3.50872e+06
3.50774e+06
3.50682e+06
3.50618e+06
3.50598e+06
3.506e+06
3.50625e+06
3.50662e+06
3.52493e+06
3.51967e+06
3.52009e+06
3.51922e+06
3.518e+06
3.51668e+06
3.51505e+06
3.51351e+06
3.51193e+06
3.51046e+06
3.50933e+06
3.50873e+06
3.50847e+06
3.50851e+06
3.50868e+06
3.52538e+06
3.52556e+06
3.52516e+06
3.52168e+06
3.5207e+06
3.52047e+06
3.51909e+06
3.51738e+06
3.51549e+06
3.51372e+06
3.51233e+06
3.51153e+06
3.51108e+06
3.51097e+06
3.51099e+06
3.52798e+06
3.53121e+06
3.53163e+06
3.52972e+06
3.52903e+06
3.52857e+06
3.52684e+06
3.52463e+06
3.52218e+06
3.51979e+06
3.51776e+06
3.51634e+06
3.51534e+06
3.51472e+06
3.51432e+06
3.55186e+06
3.52115e+06
3.51697e+06
3.52912e+06
3.5326e+06
3.53219e+06
3.53081e+06
3.52887e+06
3.52676e+06
3.52437e+06
3.52228e+06
3.52069e+06
3.51943e+06
3.51852e+06
3.51781e+06
3.5561e+06
3.53076e+06
3.52786e+06
3.53968e+06
3.54331e+06
3.54359e+06
3.54246e+06
3.54007e+06
3.53718e+06
3.53382e+06
3.53075e+06
3.52819e+06
3.52602e+06
3.52424e+06
3.52276e+06
3.55401e+06
3.53753e+06
3.53115e+06
3.53817e+06
3.54332e+06
3.54665e+06
3.54762e+06
3.54588e+06
3.54317e+06
3.53984e+06
3.53677e+06
3.53399e+06
3.53159e+06
3.5294e+06
3.52749e+06
3.56088e+06
3.55405e+06
3.55205e+06
3.55778e+06
3.56254e+06
3.56527e+06
3.56573e+06
3.56275e+06
3.55874e+06
3.55394e+06
3.54948e+06
3.54512e+06
3.54131e+06
3.53773e+06
3.53455e+06
3.60482e+06
3.57e+06
3.5642e+06
3.56754e+06
3.57054e+06
3.57107e+06
3.57152e+06
3.56871e+06
3.56567e+06
3.56118e+06
3.55696e+06
3.55231e+06
3.54829e+06
3.54427e+06
3.54064e+06
3.61535e+06
3.59743e+06
3.60149e+06
3.60794e+06
3.61163e+06
3.60833e+06
3.60528e+06
3.59851e+06
3.59214e+06
3.58419e+06
3.57704e+06
3.56917e+06
3.5625e+06
3.59214e+06
3.6211e+06
3.62444e+06
3.62201e+06
3.62458e+06
3.61884e+06
3.61512e+06
3.60722e+06
3.60116e+06
3.59258e+06
3.58589e+06
3.57728e+06
3.57057e+06
3.61177e+06
3.67588e+06
3.6956e+06
3.69395e+06
3.69383e+06
3.68067e+06
3.67068e+06
3.65658e+06
3.64514e+06
3.63013e+06
3.61818e+06
3.6033e+06
3.59222e+06
3.81957e+06
3.73251e+06
3.72551e+06
3.70753e+06
3.69866e+06
3.68282e+06
3.67418e+06
3.65901e+06
3.65075e+06
3.63597e+06
3.62608e+06
3.61026e+06
3.60066e+06
3.86423e+06
3.84643e+06
3.86956e+06
3.83716e+06
3.80965e+06
3.77729e+06
3.76374e+06
3.74316e+06
3.72617e+06
3.69777e+06
3.6783e+06
3.64991e+06
3.63351e+06
3.85475e+06
3.91502e+06
3.89023e+06
3.85553e+06
3.80006e+06
3.74611e+06
3.74621e+06
3.75087e+06
3.73697e+06
3.70055e+06
3.68697e+06
3.65282e+06
3.64149e+06
4.0757e+06
4.0103e+06
4.00043e+06
3.97652e+06
3.94458e+06
3.84952e+06
3.88817e+06
3.88159e+06
3.86611e+06
3.81099e+06
3.77235e+06
3.71165e+06
3.69077e+06
3.99879e+06
4.0001e+06
3.9741e+06
3.97477e+06
3.83676e+06
3.60625e+06
3.7952e+06
3.85294e+06
3.84099e+06
3.78848e+06
3.76604e+06
3.69511e+06
3.69895e+06
4.00118e+06
4.00117e+06
4.00166e+06
4.00185e+06
4.00903e+06
3.95111e+06
4.00782e+06
3.96581e+06
4.01209e+06
3.97786e+06
3.87329e+06
3.79061e+06
3.7728e+06
4.00102e+06
4.00112e+06
4.00105e+06
4.0011e+06
3.99186e+06
3.95407e+06
4.00519e+06
4.00633e+06
3.99296e+06
3.99602e+06
3.71686e+06
3.67085e+06
3.74544e+06
4.00084e+06
4.00074e+06
4.00066e+06
4.00026e+06
3.99856e+06
4.0001e+06
4.00161e+06
3.99981e+06
3.99714e+06
3.99983e+06
3.99355e+06
3.97178e+06
3.86847e+06
4.00091e+06
4.00078e+06
4.00067e+06
4.00057e+06
4.00051e+06
4.00055e+06
4.00061e+06
4.00066e+06
4.00075e+06
4.00089e+06
4.00096e+06
4.00086e+06
4.00081e+06
4.00077e+06
4.00075e+06
4.00073e+06
4.00077e+06
4.00085e+06
4.00098e+06
4.00112e+06
4.00099e+06
4.00092e+06
4.00087e+06
4.00085e+06
4.00084e+06
4.00086e+06
4.0009e+06
4.00095e+06
4.00103e+06
4.00113e+06
4.00104e+06
4.00098e+06
4.00095e+06
4.00094e+06
4.00094e+06
4.00095e+06
4.00098e+06
4.00104e+06
4.00111e+06
4.01848e+06
4.03576e+06
4.03087e+06
4.02893e+06
4.02752e+06
4.03036e+06
4.03727e+06
4.04855e+06
4.06201e+06
4.07405e+06
4.07878e+06
4.169e+06
4.16967e+06
4.16949e+06
4.16959e+06
4.16858e+06
4.16769e+06
4.16623e+06
4.16522e+06
4.16419e+06
4.16464e+06
4.21887e+06
4.22469e+06
4.22513e+06
4.22831e+06
4.22865e+06
4.22879e+06
4.22814e+06
4.22559e+06
4.22412e+06
4.2216e+06
4.34304e+06
4.35388e+06
4.35402e+06
4.35673e+06
4.35416e+06
4.35006e+06
4.3435e+06
4.33456e+06
4.32647e+06
4.31967e+06
4.35594e+06
4.39935e+06
4.41474e+06
4.43106e+06
4.43343e+06
4.42784e+06
4.41538e+06
4.38996e+06
4.36716e+06
4.33398e+06
4.46583e+06
4.51324e+06
4.55473e+06
4.56871e+06
4.56917e+06
4.55912e+06
4.5414e+06
4.51159e+06
4.47874e+06
4.40217e+06
4.48737e+06
4.49643e+06
4.4992e+06
4.49911e+06
4.4991e+06
4.49893e+06
4.4987e+06
4.4982e+06
4.49873e+06
4.48812e+06
4.49663e+06
4.49638e+06
4.49635e+06
4.49638e+06
4.49643e+06
4.49657e+06
4.49674e+06
4.49692e+06
4.49713e+06
4.49735e+06
4.49688e+06
4.49741e+06
4.49776e+06
4.4979e+06
4.49795e+06
4.49778e+06
4.49765e+06
4.4972e+06
4.49723e+06
4.49632e+06
4.49676e+06
4.49675e+06
4.49689e+06
4.49699e+06
4.49703e+06
4.49711e+06
4.49721e+06
4.4973e+06
4.49737e+06
4.49743e+06
4.49738e+06
4.49741e+06
4.49752e+06
4.49754e+06
4.4975e+06
4.49762e+06
4.49797e+06
4.49801e+06
4.498e+06
4.49788e+06
4.49706e+06
4.49708e+06
4.49724e+06
4.49731e+06
4.49726e+06
4.49749e+06
4.49799e+06
4.49822e+06
4.49822e+06
4.49823e+06
4.4976e+06
4.49762e+06
4.49761e+06
4.49768e+06
4.49758e+06
4.49776e+06
4.49822e+06
4.49841e+06
4.49841e+06
4.49839e+06
4.49746e+06
4.49755e+06
4.49764e+06
4.4978e+06
4.49774e+06
4.4979e+06
4.49828e+06
4.49845e+06
4.49844e+06
4.49843e+06
4.49778e+06
4.4978e+06
4.49772e+06
4.49806e+06
4.49843e+06
4.49856e+06
4.49857e+06
4.49857e+06
4.49858e+06
4.49857e+06
4.49775e+06
4.49782e+06
4.4978e+06
4.49822e+06
4.49864e+06
4.49875e+06
4.4987e+06
4.49867e+06
4.49866e+06
4.49866e+06
4.49799e+06
4.49805e+06
4.49797e+06
4.49839e+06
4.4988e+06
4.49891e+06
4.49887e+06
4.49884e+06
4.49883e+06
4.49882e+06
4.49802e+06
4.49814e+06
4.49806e+06
4.49848e+06
4.49888e+06
4.499e+06
4.49896e+06
4.49892e+06
4.49891e+06
4.4989e+06
4.49887e+06
4.49853e+06
4.49826e+06
4.49854e+06
4.49899e+06
4.49912e+06
4.49908e+06
4.49905e+06
4.49903e+06
4.49902e+06
4.49903e+06
4.49883e+06
4.49854e+06
4.4987e+06
4.49907e+06
4.49917e+06
4.49914e+06
4.4991e+06
4.49909e+06
4.49908e+06
4.49923e+06
4.49918e+06
4.49916e+06
4.49923e+06
4.49924e+06
4.49923e+06
4.49921e+06
4.49918e+06
4.49916e+06
4.49915e+06
4.49935e+06
4.49939e+06
4.49939e+06
4.49938e+06
4.49931e+06
4.49927e+06
4.49924e+06
4.49921e+06
4.4992e+06
4.4992e+06
4.49942e+06
4.49943e+06
4.49942e+06
4.49943e+06
4.49939e+06
4.49934e+06
4.4993e+06
4.49927e+06
4.49926e+06
4.49926e+06
4.49945e+06
4.49946e+06
4.49945e+06
4.49945e+06
4.49941e+06
4.49934e+06
4.49932e+06
4.4993e+06
4.4993e+06
4.4993e+06
4.49946e+06
4.49946e+06
4.49948e+06
4.49949e+06
4.49942e+06
4.49936e+06
4.49936e+06
4.49936e+06
4.49935e+06
4.49935e+06
4.49947e+06
4.49943e+06
4.49941e+06
4.4994e+06
4.49937e+06
4.49932e+06
4.49928e+06
4.49926e+06
4.49925e+06
4.49925e+06
4.49898e+06
4.49916e+06
4.49934e+06
4.49946e+06
4.49942e+06
4.49929e+06
4.49905e+06
4.499e+06
4.49902e+06
4.49902e+06
4.49896e+06
4.49907e+06
4.49917e+06
4.49928e+06
4.49933e+06
4.49923e+06
4.49896e+06
4.49888e+06
4.4989e+06
4.49891e+06
4.49888e+06
4.49888e+06
4.49883e+06
4.49905e+06
4.49936e+06
4.49928e+06
4.499e+06
4.49892e+06
4.49894e+06
4.49894e+06
4.49888e+06
4.49882e+06
4.49865e+06
4.49883e+06
4.49919e+06
4.49917e+06
4.49895e+06
4.4989e+06
4.49892e+06
4.49893e+06
4.49882e+06
4.49883e+06
4.49886e+06
4.49892e+06
4.49895e+06
4.49894e+06
4.49894e+06
4.49895e+06
4.49896e+06
4.49897e+06
4.49882e+06
4.4988e+06
4.49879e+06
4.4988e+06
4.49882e+06
4.49885e+06
4.49888e+06
4.4989e+06
4.49891e+06
4.49891e+06
4.49895e+06
4.49894e+06
4.49895e+06
4.49895e+06
4.49897e+06
4.49898e+06
4.49898e+06
4.49898e+06
4.49899e+06
4.49898e+06
4.49892e+06
4.49891e+06
4.49893e+06
4.49894e+06
4.49894e+06
4.49892e+06
4.49891e+06
4.49889e+06
4.49888e+06
4.49886e+06
4.49913e+06
4.49913e+06
4.49915e+06
4.49915e+06
4.49914e+06
4.49912e+06
4.49911e+06
4.49908e+06
4.49908e+06
4.49905e+06
4.49909e+06
4.4991e+06
4.49913e+06
4.49913e+06
4.4991e+06
4.49905e+06
4.49901e+06
4.49892e+06
4.49888e+06
4.49874e+06
4.49932e+06
4.49936e+06
4.49937e+06
4.49937e+06
4.49937e+06
4.49934e+06
4.49933e+06
4.4993e+06
4.49937e+06
4.49937e+06
4.49966e+06
4.49961e+06
4.49966e+06
4.49965e+06
4.49966e+06
4.49966e+06
4.49966e+06
4.4993e+06
4.49936e+06
4.49937e+06
4.49935e+06
4.49935e+06
4.49934e+06
4.49934e+06
4.49932e+06
4.49939e+06
4.49941e+06
4.49959e+06
4.49959e+06
4.49964e+06
4.49964e+06
4.49965e+06
4.49965e+06
4.49966e+06
4.49946e+06
4.49948e+06
4.49948e+06
4.49948e+06
4.49952e+06
4.49957e+06
4.49959e+06
4.49957e+06
4.49959e+06
4.49959e+06
4.49965e+06
4.49963e+06
4.49965e+06
4.49965e+06
4.49965e+06
4.49965e+06
4.49966e+06
4.49944e+06
4.49947e+06
4.49947e+06
4.49945e+06
4.49949e+06
4.49956e+06
4.49959e+06
4.49958e+06
4.4996e+06
4.49959e+06
4.49962e+06
4.49962e+06
4.49964e+06
4.49964e+06
4.49965e+06
4.49965e+06
4.49965e+06
4.49954e+06
4.49955e+06
4.49955e+06
4.49952e+06
4.49954e+06
4.49963e+06
4.49965e+06
4.49964e+06
4.49964e+06
4.49964e+06
4.49965e+06
4.49964e+06
4.49965e+06
4.49965e+06
4.49965e+06
4.49965e+06
4.49965e+06
4.49953e+06
4.49956e+06
4.49956e+06
4.49953e+06
4.49954e+06
4.49961e+06
4.49962e+06
4.49962e+06
4.49963e+06
4.49962e+06
4.49963e+06
4.49963e+06
4.49964e+06
4.49964e+06
4.49964e+06
4.49965e+06
4.49965e+06
4.4996e+06
4.49961e+06
4.49962e+06
4.49963e+06
4.49965e+06
4.49965e+06
4.49965e+06
4.49965e+06
4.49964e+06
4.49964e+06
4.49964e+06
4.49964e+06
4.49964e+06
4.49964e+06
4.49965e+06
4.49965e+06
4.49965e+06
4.49959e+06
4.49963e+06
4.49964e+06
4.49964e+06
4.49964e+06
4.49964e+06
4.49963e+06
4.49963e+06
4.49963e+06
4.49963e+06
4.49964e+06
4.49964e+06
4.49964e+06
4.49964e+06
4.49964e+06
4.49964e+06
4.49964e+06
4.49965e+06
4.49965e+06
4.49965e+06
4.49965e+06
4.49965e+06
4.49965e+06
4.49964e+06
4.49964e+06
4.49964e+06
4.49964e+06
4.49964e+06
4.49964e+06
4.49964e+06
4.49964e+06
4.49964e+06
4.49964e+06
4.49964e+06
4.49964e+06
4.49965e+06
4.49965e+06
4.49964e+06
4.49964e+06
4.49964e+06
4.49964e+06
4.49964e+06
4.49964e+06
4.49964e+06
4.49964e+06
4.49964e+06
4.49964e+06
4.49964e+06
4.49964e+06
4.49964e+06
4.49964e+06
4.49965e+06
4.49966e+06
4.49965e+06
4.49965e+06
4.49965e+06
4.49964e+06
4.49964e+06
4.49964e+06
4.49964e+06
4.49964e+06
4.49964e+06
4.49964e+06
4.49964e+06
4.49964e+06
4.49964e+06
4.49964e+06
4.49964e+06
4.49964e+06
4.49964e+06
4.49965e+06
4.49965e+06
4.49964e+06
4.49964e+06
4.49964e+06
4.49964e+06
4.49964e+06
4.49964e+06
4.49964e+06
4.49964e+06
4.49964e+06
4.49964e+06
4.49964e+06
4.49964e+06
4.49964e+06
4.49964e+06
4.49964e+06
4.49964e+06
4.49964e+06
4.49965e+06
4.49965e+06
4.49964e+06
4.49964e+06
4.49964e+06
4.49964e+06
4.49964e+06
4.49964e+06
4.49964e+06
4.49964e+06
4.49964e+06
4.49964e+06
4.49964e+06
4.49964e+06
4.49964e+06
4.49964e+06
4.49964e+06
4.49964e+06
4.49964e+06
4.49964e+06
4.49964e+06
4.49964e+06
4.49964e+06
4.49964e+06
4.49964e+06
4.49963e+06
4.49963e+06
4.49963e+06
4.49963e+06
4.49963e+06
4.49963e+06
4.49963e+06
4.49963e+06
4.49963e+06
4.49963e+06
4.49964e+06
4.49964e+06
4.49964e+06
4.49964e+06
4.49964e+06
4.49963e+06
4.49964e+06
4.49963e+06
4.49963e+06
4.49963e+06
4.49963e+06
4.49963e+06
4.49963e+06
4.49963e+06
4.49963e+06
4.49963e+06
4.49963e+06
4.49963e+06
4.49963e+06
4.49963e+06
4.49963e+06
4.49963e+06
4.49963e+06
4.49963e+06
4.49963e+06
4.49963e+06
4.49963e+06
4.49963e+06
4.49963e+06
4.49963e+06
4.49963e+06
4.49963e+06
4.49963e+06
4.49963e+06
4.49963e+06
4.49963e+06
4.49963e+06
4.49963e+06
4.49963e+06
4.49963e+06
4.49963e+06
4.49963e+06
4.49963e+06
4.49963e+06
4.49963e+06
4.49963e+06
4.49963e+06
4.49963e+06
4.49963e+06
4.49963e+06
4.49963e+06
4.49963e+06
4.49963e+06
4.49963e+06
4.49963e+06
4.49963e+06
4.49963e+06
4.49963e+06
4.49963e+06
4.49963e+06
4.49963e+06
4.49963e+06
4.49963e+06
4.49963e+06
4.49963e+06
4.49963e+06
4.49963e+06
4.49963e+06
4.49963e+06
4.49963e+06
4.49963e+06
4.49963e+06
4.49963e+06
4.49963e+06
4.49963e+06
4.49963e+06
4.49963e+06
4.49963e+06
4.49963e+06
4.49963e+06
4.49962e+06
4.49962e+06
4.49962e+06
4.49962e+06
4.49963e+06
4.49963e+06
4.49963e+06
4.49963e+06
4.49963e+06
4.49963e+06
4.49963e+06
4.49963e+06
4.49963e+06
4.49963e+06
4.49963e+06
4.49963e+06
4.49963e+06
4.49963e+06
4.49962e+06
4.49962e+06
4.49962e+06
4.49962e+06
4.49962e+06
4.49962e+06
4.49962e+06
4.49962e+06
4.49962e+06
4.49962e+06
4.49962e+06
4.49962e+06
4.49962e+06
4.49962e+06
4.49962e+06
4.49962e+06
4.49962e+06
4.49962e+06
4.49962e+06
4.49962e+06
4.49962e+06
4.49962e+06
4.49962e+06
4.49962e+06
4.49962e+06
4.49962e+06
4.49962e+06
4.49962e+06
4.49962e+06
4.49962e+06
4.49962e+06
4.49962e+06
4.49962e+06
4.49962e+06
4.49962e+06
4.49962e+06
4.49962e+06
4.49962e+06
4.49962e+06
4.49962e+06
4.49962e+06
4.49962e+06
4.49962e+06
4.49962e+06
4.49962e+06
4.49962e+06
4.49962e+06
4.49962e+06
4.49962e+06
4.49962e+06
4.49962e+06
4.49962e+06
4.49962e+06
4.49962e+06
4.49962e+06
4.49962e+06
4.49962e+06
4.49962e+06
4.49962e+06
4.49962e+06
4.49962e+06
4.49962e+06
4.49962e+06
4.49962e+06
4.49962e+06
4.49962e+06
4.49962e+06
4.49962e+06
4.49962e+06
4.49962e+06
4.49962e+06
4.49962e+06
4.49962e+06
4.49962e+06
4.49962e+06
4.49962e+06
4.49962e+06
4.49962e+06
4.49962e+06
4.49962e+06
4.49962e+06
4.49961e+06
4.49962e+06
4.49962e+06
4.49962e+06
4.49962e+06
4.49962e+06
4.49962e+06
4.49962e+06
4.49962e+06
4.49962e+06
4.49962e+06
4.49962e+06
4.49962e+06
4.49962e+06
4.49961e+06
4.49962e+06
4.49962e+06
4.49962e+06
4.49961e+06
4.49961e+06
4.49961e+06
4.49961e+06
4.49961e+06
4.49961e+06
4.49961e+06
4.49961e+06
4.49961e+06
4.49961e+06
4.49961e+06
4.49961e+06
4.49961e+06
4.49961e+06
4.49961e+06
4.49961e+06
4.49961e+06
4.49961e+06
4.49961e+06
4.49961e+06
4.49961e+06
4.49961e+06
4.49961e+06
4.49961e+06
4.49961e+06
4.49961e+06
4.49961e+06
4.49961e+06
4.49961e+06
4.49961e+06
4.49961e+06
4.49961e+06
4.49961e+06
4.49961e+06
4.49961e+06
4.49961e+06
4.49961e+06
4.49961e+06
4.49961e+06
4.49961e+06
4.49961e+06
4.49961e+06
4.49961e+06
4.49961e+06
4.49961e+06
4.49961e+06
4.49961e+06
4.49961e+06
4.49961e+06
4.49961e+06
4.49961e+06
4.49961e+06
4.49961e+06
4.49961e+06
4.49961e+06
4.49961e+06
4.49961e+06
4.49961e+06
4.49961e+06
4.49961e+06
4.49961e+06
4.49961e+06
4.49961e+06
4.49961e+06
4.49961e+06
4.49961e+06
4.49961e+06
4.49961e+06
4.49961e+06
4.49961e+06
4.49961e+06
4.49961e+06
4.49961e+06
4.49961e+06
4.49961e+06
4.49961e+06
4.49961e+06
4.49961e+06
4.49961e+06
4.49961e+06
4.49961e+06
4.49961e+06
4.49961e+06
4.49961e+06
4.49961e+06
4.49961e+06
4.49961e+06
4.49961e+06
4.49961e+06
4.49961e+06
4.49961e+06
4.49961e+06
4.49961e+06
4.49961e+06
4.49961e+06
4.49961e+06
4.4996e+06
4.4996e+06
4.4996e+06
4.4996e+06
4.4996e+06
4.4996e+06
4.4996e+06
4.4996e+06
4.4996e+06
4.4996e+06
4.4996e+06
4.4996e+06
4.4996e+06
4.4996e+06
4.4996e+06
4.4996e+06
4.4996e+06
4.4996e+06
4.4996e+06
4.4996e+06
4.4996e+06
4.4996e+06
4.4996e+06
4.4996e+06
4.4996e+06
4.4996e+06
4.4996e+06
4.4996e+06
4.4996e+06
4.4996e+06
4.4996e+06
4.4996e+06
4.4996e+06
4.4996e+06
4.4996e+06
4.4996e+06
4.4996e+06
4.4996e+06
4.4996e+06
4.4996e+06
4.4996e+06
4.4996e+06
4.4996e+06
4.4996e+06
4.4996e+06
4.4996e+06
4.4996e+06
4.4996e+06
4.4996e+06
4.4996e+06
4.4996e+06
4.4996e+06
4.4996e+06
4.4996e+06
4.4996e+06
4.4996e+06
4.4996e+06
4.4996e+06
4.4996e+06
4.4996e+06
4.4996e+06
4.4996e+06
4.4996e+06
4.4996e+06
4.4996e+06
4.4996e+06
4.4996e+06
4.4996e+06
4.4996e+06
4.4996e+06
4.4996e+06
4.4996e+06
4.4996e+06
4.4996e+06
4.4996e+06
4.4996e+06
4.4996e+06
4.4996e+06
4.4996e+06
4.4996e+06
4.4996e+06
4.4996e+06
4.4996e+06
4.4996e+06
4.4996e+06
4.4996e+06
4.4996e+06
4.4996e+06
4.4996e+06
4.4996e+06
4.4996e+06
4.4996e+06
4.49959e+06
4.49959e+06
4.49959e+06
4.49959e+06
4.49959e+06
4.49959e+06
4.49959e+06
4.49959e+06
4.49959e+06
4.49959e+06
4.49959e+06
4.49959e+06
4.49959e+06
4.49959e+06
4.49959e+06
4.49959e+06
4.49959e+06
4.49959e+06
4.49959e+06
4.49959e+06
4.49959e+06
4.49959e+06
4.49959e+06
4.49959e+06
4.49959e+06
4.49959e+06
4.49959e+06
4.49959e+06
4.49959e+06
4.49959e+06
4.49959e+06
4.49959e+06
4.49959e+06
4.49959e+06
4.49959e+06
4.49959e+06
4.49959e+06
4.49959e+06
4.49959e+06
4.49959e+06
4.49959e+06
4.49959e+06
4.49959e+06
4.49959e+06
4.49959e+06
4.49959e+06
4.49959e+06
4.49959e+06
4.49959e+06
4.49959e+06
4.49959e+06
4.49959e+06
4.49959e+06
4.49959e+06
4.49959e+06
4.49959e+06
4.49959e+06
4.49959e+06
4.49959e+06
4.49959e+06
4.49959e+06
4.49959e+06
4.49959e+06
4.49959e+06
4.49959e+06
4.49959e+06
4.49959e+06
4.49959e+06
4.49959e+06
4.49959e+06
4.49959e+06
4.49959e+06
4.49959e+06
4.49959e+06
4.49959e+06
4.49959e+06
4.49959e+06
4.49959e+06
4.49959e+06
4.49959e+06
4.49959e+06
4.49959e+06
4.49959e+06
4.49959e+06
4.49959e+06
4.49959e+06
4.49959e+06
4.49958e+06
4.49958e+06
4.49958e+06
4.49959e+06
4.49959e+06
4.49959e+06
4.49959e+06
4.49959e+06
4.49958e+06
4.49958e+06
4.49958e+06
4.49958e+06
4.49958e+06
4.49958e+06
4.49958e+06
4.49958e+06
4.49958e+06
4.49958e+06
4.49958e+06
4.49958e+06
4.49958e+06
4.49958e+06
4.49958e+06
4.49958e+06
4.49958e+06
3.49616e+06
3.49552e+06
3.49624e+06
3.4972e+06
3.49789e+06
3.49835e+06
3.49874e+06
3.49887e+06
3.49625e+06
3.49458e+06
3.49437e+06
3.49592e+06
3.49697e+06
3.49764e+06
3.49815e+06
3.49851e+06
3.49878e+06
3.499e+06
3.49916e+06
3.49926e+06
3.49946e+06
3.49981e+06
3.50014e+06
3.49632e+06
3.49526e+06
3.49511e+06
3.49578e+06
3.49617e+06
3.49687e+06
3.49755e+06
3.49793e+06
3.49833e+06
3.49869e+06
3.49888e+06
3.49897e+06
3.49921e+06
3.49959e+06
3.49995e+06
3.49672e+06
3.49569e+06
3.49515e+06
3.49564e+06
3.49589e+06
3.49642e+06
3.49701e+06
3.49751e+06
3.49792e+06
3.49831e+06
3.49851e+06
3.49864e+06
3.49892e+06
3.49936e+06
3.49976e+06
3.49672e+06
3.49614e+06
3.4957e+06
3.4959e+06
3.49588e+06
3.49634e+06
3.49683e+06
3.49727e+06
3.4977e+06
3.49807e+06
3.49825e+06
3.49838e+06
3.49869e+06
3.49916e+06
3.49961e+06
3.49852e+06
3.49599e+06
3.49551e+06
3.49612e+06
3.49618e+06
3.49646e+06
3.4968e+06
3.49717e+06
3.49761e+06
3.49794e+06
3.49814e+06
3.49827e+06
3.49857e+06
3.49905e+06
3.49952e+06
3.49846e+06
3.49652e+06
3.4963e+06
3.49677e+06
3.49668e+06
3.49683e+06
3.497e+06
3.49728e+06
3.49767e+06
3.49797e+06
3.49816e+06
3.49828e+06
3.49858e+06
3.49906e+06
3.49953e+06
3.49875e+06
3.49766e+06
3.49719e+06
3.49709e+06
3.49703e+06
3.49715e+06
3.49724e+06
3.49746e+06
3.49775e+06
3.49801e+06
3.49822e+06
3.49835e+06
3.49867e+06
3.49916e+06
3.49965e+06
3.49865e+06
3.49853e+06
3.49855e+06
3.49813e+06
3.49777e+06
3.49759e+06
3.4974e+06
3.49747e+06
3.49769e+06
3.49797e+06
3.49826e+06
3.49849e+06
3.49887e+06
3.49937e+06
3.49986e+06
3.50375e+06
3.50113e+06
3.5005e+06
3.49969e+06
3.4986e+06
3.49815e+06
3.49765e+06
3.49725e+06
3.49742e+06
3.49778e+06
3.49819e+06
3.49863e+06
3.49911e+06
3.49965e+06
3.50016e+06
3.50365e+06
3.50222e+06
3.50221e+06
3.50117e+06
3.49985e+06
3.49908e+06
3.49827e+06
3.49768e+06
3.49771e+06
3.49806e+06
3.49851e+06
3.49902e+06
3.49953e+06
3.50007e+06
3.50056e+06
3.50405e+06
3.50435e+06
3.50416e+06
3.50228e+06
3.50088e+06
3.5001e+06
3.49914e+06
3.49844e+06
3.49835e+06
3.49863e+06
3.49906e+06
3.49954e+06
3.50004e+06
3.50055e+06
3.50103e+06
3.50423e+06
3.50549e+06
3.50567e+06
3.50399e+06
3.50244e+06
3.50136e+06
3.50022e+06
3.49948e+06
3.49935e+06
3.49956e+06
3.49991e+06
3.5003e+06
3.50072e+06
3.50118e+06
3.50162e+06
3.51008e+06
3.50356e+06
3.50293e+06
3.5044e+06
3.50339e+06
3.50163e+06
3.50053e+06
3.50036e+06
3.50037e+06
3.50048e+06
3.50076e+06
3.50107e+06
3.50142e+06
3.50183e+06
3.50226e+06
3.51039e+06
3.50521e+06
3.50496e+06
3.50616e+06
3.50498e+06
3.50328e+06
3.50221e+06
3.50202e+06
3.50192e+06
3.50186e+06
3.50194e+06
3.50208e+06
3.5023e+06
3.50265e+06
3.50305e+06
3.51124e+06
3.50824e+06
3.50699e+06
3.50614e+06
3.50522e+06
3.50466e+06
3.50392e+06
3.50367e+06
3.50336e+06
3.50308e+06
3.50297e+06
3.50298e+06
3.50315e+06
3.5035e+06
3.50393e+06
3.51167e+06
3.51082e+06
3.5106e+06
3.50959e+06
3.50868e+06
3.50809e+06
3.50713e+06
3.50648e+06
3.50573e+06
3.50509e+06
3.50467e+06
3.50445e+06
3.50451e+06
3.50477e+06
3.50515e+06
3.52414e+06
3.51578e+06
3.51468e+06
3.51373e+06
3.5123e+06
3.51103e+06
3.50968e+06
3.50872e+06
3.50774e+06
3.50682e+06
3.50618e+06
3.50598e+06
3.506e+06
3.50625e+06
3.50662e+06
3.52493e+06
3.51967e+06
3.52009e+06
3.51922e+06
3.518e+06
3.51668e+06
3.51505e+06
3.51351e+06
3.51193e+06
3.51046e+06
3.50933e+06
3.50873e+06
3.50847e+06
3.50851e+06
3.50868e+06
3.52538e+06
3.52556e+06
3.52516e+06
3.52168e+06
3.5207e+06
3.52047e+06
3.51909e+06
3.51738e+06
3.51549e+06
3.51372e+06
3.51233e+06
3.51153e+06
3.51108e+06
3.51097e+06
3.51099e+06
3.52798e+06
3.53121e+06
3.53163e+06
3.52972e+06
3.52903e+06
3.52857e+06
3.52684e+06
3.52463e+06
3.52218e+06
3.51979e+06
3.51776e+06
3.51634e+06
3.51534e+06
3.51472e+06
3.51432e+06
3.55186e+06
3.52114e+06
3.51697e+06
3.52912e+06
3.5326e+06
3.53219e+06
3.53081e+06
3.52887e+06
3.52676e+06
3.52437e+06
3.52228e+06
3.52069e+06
3.51943e+06
3.51852e+06
3.51781e+06
3.5561e+06
3.53076e+06
3.52786e+06
3.53968e+06
3.54331e+06
3.54359e+06
3.54246e+06
3.54007e+06
3.53718e+06
3.53382e+06
3.53075e+06
3.52819e+06
3.52602e+06
3.52424e+06
3.52276e+06
3.55401e+06
3.53753e+06
3.53115e+06
3.53817e+06
3.54332e+06
3.54665e+06
3.54762e+06
3.54588e+06
3.54317e+06
3.53984e+06
3.53677e+06
3.53399e+06
3.53159e+06
3.5294e+06
3.52749e+06
3.56089e+06
3.55405e+06
3.55205e+06
3.55778e+06
3.56255e+06
3.56527e+06
3.56573e+06
3.56275e+06
3.55874e+06
3.55394e+06
3.54948e+06
3.54512e+06
3.54131e+06
3.53773e+06
3.53455e+06
3.60482e+06
3.57e+06
3.5642e+06
3.56754e+06
3.57054e+06
3.57107e+06
3.57152e+06
3.56871e+06
3.56567e+06
3.56118e+06
3.55696e+06
3.55231e+06
3.54829e+06
3.54427e+06
3.54064e+06
3.61534e+06
3.59743e+06
3.6015e+06
3.60794e+06
3.61163e+06
3.60833e+06
3.60528e+06
3.59851e+06
3.59214e+06
3.58419e+06
3.57704e+06
3.56917e+06
3.5625e+06
3.59214e+06
3.6211e+06
3.62444e+06
3.62201e+06
3.62458e+06
3.61884e+06
3.61512e+06
3.60722e+06
3.60116e+06
3.59258e+06
3.58589e+06
3.57728e+06
3.57057e+06
3.61178e+06
3.67588e+06
3.69561e+06
3.69395e+06
3.69383e+06
3.68067e+06
3.67068e+06
3.65657e+06
3.64514e+06
3.63013e+06
3.61818e+06
3.6033e+06
3.59222e+06
3.81957e+06
3.73251e+06
3.72551e+06
3.70754e+06
3.69866e+06
3.68282e+06
3.67418e+06
3.65901e+06
3.65075e+06
3.63597e+06
3.62608e+06
3.61026e+06
3.60066e+06
3.86423e+06
3.84645e+06
3.86956e+06
3.83718e+06
3.80966e+06
3.77729e+06
3.76374e+06
3.74314e+06
3.72617e+06
3.69777e+06
3.6783e+06
3.64991e+06
3.63351e+06
3.85475e+06
3.91508e+06
3.89022e+06
3.85562e+06
3.80011e+06
3.74611e+06
3.7462e+06
3.7508e+06
3.73697e+06
3.70055e+06
3.68697e+06
3.65282e+06
3.64149e+06
4.07576e+06
4.01027e+06
4.00046e+06
3.97666e+06
3.94464e+06
3.84952e+06
3.88818e+06
3.88143e+06
3.8661e+06
3.811e+06
3.77235e+06
3.71165e+06
3.69077e+06
3.99864e+06
4.00013e+06
3.97405e+06
3.9755e+06
3.83761e+06
3.60625e+06
3.79507e+06
3.85194e+06
3.84093e+06
3.78914e+06
3.76604e+06
3.69509e+06
3.69895e+06
4.00118e+06
4.00118e+06
4.00169e+06
4.00176e+06
4.00864e+06
3.95118e+06
4.00815e+06
3.96421e+06
4.01209e+06
3.97837e+06
3.87337e+06
3.79052e+06
3.77277e+06
4.00102e+06
4.00112e+06
4.00103e+06
4.00112e+06
3.99305e+06
3.95494e+06
4.00591e+06
4.00741e+06
3.99275e+06
3.99608e+06
3.71524e+06
3.67061e+06
3.74449e+06
4.00084e+06
4.00074e+06
4.00066e+06
4.00024e+06
3.9956e+06
4.00021e+06
4.00192e+06
3.99563e+06
3.99599e+06
3.9998e+06
3.99155e+06
3.97004e+06
3.86605e+06
4.00091e+06
4.00078e+06
4.00067e+06
4.00057e+06
4.00049e+06
4.00055e+06
4.00061e+06
4.00064e+06
4.00074e+06
4.00089e+06
4.00096e+06
4.00086e+06
4.00082e+06
4.00078e+06
4.00075e+06
4.00073e+06
4.00077e+06
4.00085e+06
4.00098e+06
4.00112e+06
4.00099e+06
4.00092e+06
4.00087e+06
4.00084e+06
4.00084e+06
4.00086e+06
4.0009e+06
4.00095e+06
4.00103e+06
4.00113e+06
4.00104e+06
4.00098e+06
4.00095e+06
4.00094e+06
4.00094e+06
4.00095e+06
4.00098e+06
4.00104e+06
4.00111e+06
4.01848e+06
4.03576e+06
4.03087e+06
4.02892e+06
4.02752e+06
4.03036e+06
4.03727e+06
4.04855e+06
4.06201e+06
4.07405e+06
4.07877e+06
4.169e+06
4.16967e+06
4.16949e+06
4.16959e+06
4.16858e+06
4.16769e+06
4.16623e+06
4.16522e+06
4.16419e+06
4.16464e+06
4.21887e+06
4.22469e+06
4.22513e+06
4.22831e+06
4.22865e+06
4.22879e+06
4.22814e+06
4.22559e+06
4.22412e+06
4.2216e+06
4.34304e+06
4.35388e+06
4.35402e+06
4.35673e+06
4.35416e+06
4.35006e+06
4.3435e+06
4.33456e+06
4.32647e+06
4.31967e+06
4.35594e+06
4.39935e+06
4.41474e+06
4.43106e+06
4.43343e+06
4.42784e+06
4.41538e+06
4.38996e+06
4.36716e+06
4.33398e+06
4.46583e+06
4.51324e+06
4.55473e+06
4.56871e+06
4.56917e+06
4.55912e+06
4.5414e+06
4.51159e+06
4.47874e+06
4.40217e+06
4.48737e+06
4.49643e+06
4.4992e+06
4.49911e+06
4.4991e+06
4.49893e+06
4.4987e+06
4.4982e+06
4.49873e+06
4.48812e+06
4.49663e+06
4.49638e+06
4.49635e+06
4.49638e+06
4.49643e+06
4.49657e+06
4.49674e+06
4.49692e+06
4.49713e+06
4.49735e+06
4.49688e+06
4.49741e+06
4.49776e+06
4.4979e+06
4.49795e+06
4.49778e+06
4.49765e+06
4.4972e+06
4.49723e+06
4.49632e+06
4.49676e+06
4.49675e+06
4.49689e+06
4.49699e+06
4.49703e+06
4.49711e+06
4.49721e+06
4.4973e+06
4.49737e+06
4.49743e+06
4.49738e+06
4.49741e+06
4.49752e+06
4.49754e+06
4.4975e+06
4.49762e+06
4.49797e+06
4.49801e+06
4.498e+06
4.49788e+06
4.49706e+06
4.49708e+06
4.49724e+06
4.49731e+06
4.49726e+06
4.49749e+06
4.49799e+06
4.49822e+06
4.49822e+06
4.49823e+06
4.4976e+06
4.49762e+06
4.49761e+06
4.49768e+06
4.49758e+06
4.49776e+06
4.49822e+06
4.49841e+06
4.49841e+06
4.49839e+06
4.49746e+06
4.49755e+06
4.49764e+06
4.4978e+06
4.49774e+06
4.4979e+06
4.49828e+06
4.49845e+06
4.49844e+06
4.49843e+06
4.49778e+06
4.4978e+06
4.49772e+06
4.49806e+06
4.49843e+06
4.49856e+06
4.49857e+06
4.49857e+06
4.49858e+06
4.49857e+06
4.49775e+06
4.49782e+06
4.4978e+06
4.49822e+06
4.49864e+06
4.49875e+06
4.4987e+06
4.49867e+06
4.49866e+06
4.49866e+06
4.49799e+06
4.49805e+06
4.49797e+06
4.49839e+06
4.4988e+06
4.49891e+06
4.49887e+06
4.49884e+06
4.49883e+06
4.49882e+06
4.49802e+06
4.49814e+06
4.49806e+06
4.49848e+06
4.49888e+06
4.499e+06
4.49896e+06
4.49892e+06
4.49891e+06
4.4989e+06
4.49887e+06
4.49853e+06
4.49826e+06
4.49854e+06
4.49899e+06
4.49912e+06
4.49908e+06
4.49905e+06
4.49903e+06
4.49902e+06
4.49903e+06
4.49883e+06
4.49854e+06
4.4987e+06
4.49907e+06
4.49917e+06
4.49914e+06
4.4991e+06
4.49909e+06
4.49908e+06
4.49923e+06
4.49918e+06
4.49916e+06
4.49923e+06
4.49924e+06
4.49923e+06
4.49921e+06
4.49918e+06
4.49916e+06
4.49915e+06
4.49935e+06
4.49939e+06
4.49939e+06
4.49938e+06
4.49931e+06
4.49927e+06
4.49924e+06
4.49921e+06