/*--------------------------------*- C++ -*----------------------------------*\
| =========                 |                                                 |
| \\      /  F ield         | OpenFOAM: The Open Source CFD Toolbox           |
|  \\    /   O peration     | Version:  v2012                                 |
|   \\  /    A nd           | Website:  www.openfoam.com                      |
|    \\/     M anipulation  |                                                 |
\*---------------------------------------------------------------------------*/
FoamFile
{
    version     2.0;
    format      ascii;
    class       volVectorField;
    location    "0.8";
    object      U;
}
// * * * * * * * * * * * * * * * * * * * * * * * * * * * * * * * * * * * * * //

dimensions      [0 1 -1 0 0 0 0];


internalField   nonuniform List<vector> 
3332
(
(9.43699e-05 -0.0116099 -8.23632e-07)
(0.000524643 -0.0232348 -4.57889e-06)
(0.00125558 -0.0330158 -1.09578e-05)
(0.0022147 -0.0411439 -1.93286e-05)
(0.00336872 -0.0480757 -2.93991e-05)
(0.00468564 -0.0540892 -4.08917e-05)
(0.006171 -0.0593491 -5.38539e-05)
(0.00774431 -0.0639651 -6.75836e-05)
(0.000108185 -0.0126019 -9.44377e-07)
(0.00058945 -0.0250798 -5.1443e-06)
(0.00139837 -0.0355385 -1.22043e-05)
(0.0024479 -0.0441986 -2.13632e-05)
(0.00372262 -0.0515705 -3.2488e-05)
(0.0051863 -0.0579438 -4.52609e-05)
(0.00680678 -0.0635076 -5.94023e-05)
(0.00857845 -0.0683708 -7.48629e-05)
(0.0104635 -0.0725669 -9.13123e-05)
(0.0124608 -0.0762042 -0.000108742)
(0.0145246 -0.079277 -0.000126751)
(0.0166731 -0.0818393 -0.000145501)
(0.0188766 -0.0838672 -0.00016473)
(0.0210695 -0.0853944 -0.000183866)
(0.0232628 -0.0864173 -0.000203006)
(0.000123 -0.013701 -1.07352e-06)
(0.000661257 -0.0271211 -5.7713e-06)
(0.00156486 -0.0383267 -1.36569e-05)
(0.00273618 -0.0475804 -2.38793e-05)
(0.00414212 -0.055422 -3.61485e-05)
(0.00574499 -0.062187 -5.01365e-05)
(0.00753084 -0.0680641 -6.57209e-05)
(0.00948389 -0.0731754 -8.27641e-05)
(0.0115558 -0.0775972 -0.000100844)
(0.0137508 -0.0813753 -0.000119999)
(0.016009 -0.084542 -0.000139705)
(0.0183447 -0.0871259 -0.000160087)
(0.0207302 -0.0891403 -0.000180905)
(0.023099 -0.0906006 -0.000201576)
(0.025451 -0.0915141 -0.000222101)
(0.000138591 -0.0149631 -1.20974e-06)
(0.000739639 -0.0294306 -6.45506e-06)
(0.00174485 -0.0414578 -1.5228e-05)
(0.0030494 -0.0513571 -2.66125e-05)
(0.0046142 -0.0597192 -4.02686e-05)
(0.00638838 -0.0669046 -5.57509e-05)
(0.00835729 -0.0731157 -7.2933e-05)
(0.010501 -0.0784918 -9.16395e-05)
(0.0127813 -0.0831149 -0.000111539)
(0.01519 -0.0870308 -0.000132558)
(0.0176585 -0.0902808 -0.000154098)
(0.0202016 -0.092888 -0.000176291)
(0.0227882 -0.0948724 -0.000198863)
(0.025346 -0.0962486 -0.000221183)
(0.0278726 -0.0970319 -0.000243231)
(0.000159433 -0.0163591 -1.39143e-06)
(0.000836423 -0.0319852 -7.3001e-06)
(0.00196256 -0.0449218 -1.71275e-05)
(0.00342072 -0.0555274 -2.98534e-05)
(0.00515996 -0.0644624 -4.50309e-05)
(0.00712602 -0.0721097 -6.21879e-05)
(0.00930554 -0.0786913 -8.12074e-05)
(0.0116666 -0.0843527 -0.000101811)
(0.0141775 -0.0891864 -0.000123722)
(0.0168254 -0.0932452 -0.000146828)
(0.0195291 -0.0965718 -0.000170421)
(0.0223025 -0.0991904 -0.000194622)
(0.0251067 -0.101123 -0.000219094)
(0.027869 -0.102389 -0.000243198)
(0.0305804 -0.103005 -0.00026686)
(0.000181993 -0.0179864 -1.58856e-06)
(0.00094361 -0.0349086 -8.23518e-06)
(0.0022074 -0.0488507 -1.92648e-05)
(0.00383299 -0.0602362 -3.34506e-05)
(0.0057639 -0.0697924 -5.03014e-05)
(0.0079542 -0.0779355 -6.94148e-05)
(0.0103732 -0.0849081 -9.05244e-05)
(0.0129822 -0.0908684 -0.000113291)
(0.0157495 -0.0959147 -0.000137439)
(0.0186574 -0.100108 -0.000162814)
(0.0216211 -0.103497 -0.000188675)
(0.02465 -0.106103 -0.000215107)
(0.0276966 -0.107958 -0.000241692)
(0.0306815 -0.109077 -0.00026774)
(0.0335947 -0.109486 -0.000293161)
(0.000211768 -0.0197774 -1.84813e-06)
(0.0010757 -0.0381355 -9.38842e-06)
(0.00249962 -0.0531917 -2.18145e-05)
(0.00432636 -0.065444 -3.77566e-05)
(0.00648552 -0.0756829 -5.65983e-05)
(0.0089281 -0.0843686 -7.79133e-05)
(0.0116172 -0.0917683 -0.00010138)
(0.0145057 -0.0980539 -0.000126584)
(0.0175622 -0.103327 -0.000153257)
(0.0207603 -0.107658 -0.000181163)
(0.0240119 -0.111096 -0.000209537)
(0.0273201 -0.11367 -0.000238404)
(0.0306269 -0.115415 -0.000267262)
(0.033853 -0.116352 -0.000295412)
(0.036976 -0.116509 -0.000322666)
(0.000241603 -0.0219087 -2.10881e-06)
(0.0012156 -0.0418856 -1.06088e-05)
(0.00281597 -0.0581811 -2.45758e-05)
(0.00486526 -0.0713825 -4.24588e-05)
(0.00728672 -0.0823662 -6.35901e-05)
(0.010014 -0.091636 -8.73885e-05)
(0.0130035 -0.0994859 -0.000113475)
(0.0162095 -0.1061 -0.000141452)
(0.0195952 -0.111593 -0.000170995)
(0.0231201 -0.11604 -0.000201754)
(0.0266959 -0.119501 -0.000232955)
(0.0303125 -0.122004 -0.000264515)
(0.0339078 -0.123596 -0.000295887)
(0.0373961 -0.124292 -0.000326328)
(0.0407485 -0.124137 -0.000355582)
(0.000284952 -0.0242384 -2.48675e-06)
(0.00139932 -0.0460126 -1.22129e-05)
(0.00321616 -0.0636865 -2.80675e-05)
(0.00553498 -0.0779452 -4.83036e-05)
(0.00825865 -0.0897533 -7.20709e-05)
(0.0113162 -0.0996765 -9.87518e-05)
(0.014657 -0.10802 -0.000127903)
(0.0182251 -0.114995 -0.000159039)
(0.0219764 -0.120718 -0.000191772)
(0.025861 -0.125283 -0.000225669)
(0.0297884 -0.128747 -0.00025994)
(0.0337407 -0.131142 -0.000294426)
(0.0376463 -0.132532 -0.000328509)
(0.0414162 -0.132938 -0.000361404)
(0.0450024 -0.132405 -0.0003927)
(0.000330793 -0.0270805 -2.88739e-06)
(0.00160205 -0.0508961 -1.39815e-05)
(0.00364798 -0.0701091 -3.18365e-05)
(0.00625882 -0.0855307 -5.46195e-05)
(0.00931841 -0.0982373 -8.13185e-05)
(0.0127469 -0.108849 -0.000111236)
(0.01649 -0.117705 -0.000143897)
(0.0204701 -0.125034 -0.000178627)
(0.0246425 -0.13097 -0.000215034)
(0.0289351 -0.13561 -0.000252492)
(0.033277 -0.139027 -0.000290377)
(0.0376047 -0.141254 -0.000328142)
(0.0418409 -0.142369 -0.000365105)
(0.0459141 -0.142398 -0.000400651)
(0.0497564 -0.141404 -0.000434178)
(0.000395643 -0.030147 -3.45281e-06)
(0.00186378 -0.0562291 -1.62664e-05)
(0.00420613 -0.0771654 -3.67066e-05)
(0.00718088 -0.093886 -6.26662e-05)
(0.0106469 -0.107596 -9.29101e-05)
(0.0145156 -0.118967 -0.000126668)
(0.0187205 -0.12839 -0.00016336)
(0.0231712 -0.136107 -0.000202195)
(0.0278111 -0.142267 -0.000242682)
(0.0325574 -0.146979 -0.000284095)
(0.0373324 -0.150318 -0.000325763)
(0.0420646 -0.152345 -0.000367053)
(0.0466615 -0.15312 -0.000407168)
(0.0510499 -0.1527 -0.000445459)
(0.0551416 -0.151147 -0.000481168)
(0.000457115 -0.0340154 -3.9899e-06)
(0.0021274 -0.0626983 -1.85661e-05)
(0.00479044 -0.0855621 -4.18063e-05)
(0.00816124 -0.103714 -7.12201e-05)
(0.0120816 -0.118508 -0.00010543)
(0.0164423 -0.130685 -0.00014348)
(0.0211637 -0.140681 -0.000184676)
(0.0261479 -0.148762 -0.000228167)
(0.0313272 -0.155099 -0.000273358)
(0.0365962 -0.159807 -0.000319335)
(0.0418743 -0.162982 -0.000365388)
(0.0470652 -0.164686 -0.000410684)
(0.052071 -0.165005 -0.000454363)
(0.0568023 -0.164 -0.000495651)
(0.0611677 -0.161765 -0.000533743)
(0.000556888 -0.0381189 -4.85984e-06)
(0.00251043 -0.0696912 -2.19098e-05)
(0.00558824 -0.0947243 -4.87672e-05)
(0.00945809 -0.114479 -8.25368e-05)
(0.0139321 -0.130498 -0.000121575)
(0.0188853 -0.143586 -0.000164795)
(0.024218 -0.154227 -0.000211326)
(0.0298166 -0.162712 -0.000260174)
(0.035599 -0.169235 -0.000310631)
(0.0414458 -0.173928 -0.000361644)
(0.0472601 -0.176892 -0.00041238)
(0.0529361 -0.178214 -0.000461904)
(0.0583534 -0.177983 -0.000509178)
(0.0634246 -0.176293 -0.000553427)
(0.0680341 -0.173243 -0.000593655)
(0.000650551 -0.0435069 -5.67802e-06)
(0.00289266 -0.0784255 -2.52442e-05)
(0.00643019 -0.105892 -5.6115e-05)
(0.0108258 -0.127417 -9.44703e-05)
(0.01588 -0.144742 -0.000138571)
(0.0214991 -0.158763 -0.000187601)
(0.0275283 -0.170026 -0.000240206)
(0.033826 -0.178847 -0.000295156)
(0.0403005 -0.185458 -0.000351646)
(0.0468155 -0.189996 -0.000408494)
(0.0532552 -0.192597 -0.000464681)
(0.059489 -0.193354 -0.000519078)
(0.0653853 -0.192392 -0.000570525)
(0.0708296 -0.189814 -0.000618036)
(0.0757116 -0.185763 -0.000660637)
(0.00080807 -0.0490795 -7.05156e-06)
(0.00346437 -0.087694 -3.02346e-05)
(0.00759396 -0.117903 -6.62689e-05)
(0.01269 -0.141455 -0.000110737)
(0.0185077 -0.160264 -0.000161498)
(0.0249314 -0.175351 -0.000217545)
(0.0317817 -0.187329 -0.000277317)
(0.0388938 -0.196553 -0.000339368)
(0.0461489 -0.203263 -0.000402672)
(0.0533959 -0.207634 -0.000465901)
(0.0604918 -0.209806 -0.000527819)
(0.0672957 -0.209911 -0.000587183)
(0.0736438 -0.208085 -0.00064258)
(0.0794316 -0.20448 -0.000693083)
(0.0845163 -0.199248 -0.000737458)
(0.000944655 -0.0567759 -8.24481e-06)
(0.00399396 -0.0997368 -3.48546e-05)
(0.00872541 -0.13304 -7.6142e-05)
(0.0145554 -0.15879 -0.000127012)
(0.0212176 -0.17917 -0.00018514)
(0.0285246 -0.195314 -0.000248895)
(0.0362834 -0.207923 -0.000316587)
(0.044321 -0.217388 -0.000386717)
(0.0524881 -0.224002 -0.000457971)
(0.0605904 -0.227953 -0.000528668)
(0.0684698 -0.229435 -0.000597415)
(0.0759425 -0.228587 -0.000662622)
(0.0828348 -0.225609 -0.00072276)
(0.0890088 -0.220658 -0.00077664)
(0.0943292 -0.213959 -0.000823069)
(0.00119944 -0.0644873 -1.04667e-05)
(0.00486649 -0.112224 -4.24704e-05)
(0.0104547 -0.149031 -9.12305e-05)
(0.0172838 -0.177298 -0.000150817)
(0.0250221 -0.199496 -0.000218334)
(0.0334469 -0.216906 -0.000291836)
(0.0423224 -0.230287 -0.000369275)
(0.0514458 -0.240084 -0.00044887)
(0.0606234 -0.246623 -0.000528947)
(0.0696443 -0.250136 -0.00060765)
(0.0783125 -0.250831 -0.000683287)
(0.0864318 -0.248907 -0.000754128)
(0.0937902 -0.244583 -0.000818342)
(0.100272 -0.238098 -0.0008749)
(0.105682 -0.229687 -0.000922122)
(0.001424 -0.0757733 -1.24291e-05)
(0.00567966 -0.129203 -4.95645e-05)
(0.0120879 -0.169967 -0.000105481)
(0.0199165 -0.200963 -0.000173786)
(0.0287753 -0.225027 -0.000251074)
(0.0384044 -0.24359 -0.000335084)
(0.0485307 -0.25753 -0.000423427)
(0.058892 -0.267346 -0.000513827)
(0.0692617 -0.27344 -0.000604295)
(0.079379 -0.276071 -0.000692572)
(0.0890207 -0.275526 -0.000776694)
(0.0979272 -0.272029 -0.000854413)
(0.105871 -0.265893 -0.000923727)
(0.112705 -0.257383 -0.000983368)
(0.118243 -0.24684 -0.0010317)
(0.00184161 -0.0866049 -1.60711e-05)
(0.00703578 -0.14622 -6.14002e-05)
(0.0147084 -0.191495 -0.000128345)
(0.0239896 -0.225683 -0.00020932)
(0.0343885 -0.251977 -0.000300045)
(0.0455929 -0.271987 -0.00039779)
(0.0572562 -0.286701 -0.000499548)
(0.069078 -0.296694 -0.000602679)
(0.0807608 -0.302388 -0.000704612)
(0.0920229 -0.304126 -0.000802867)
(0.102583 -0.302217 -0.000895008)
(0.112177 -0.29699 -0.00097872)
(0.120521 -0.288782 -0.00105154)
(0.127513 -0.277982 -0.00111255)
(0.132902 -0.264973 -0.00115959)
(0.00215766 -0.103574 -1.88321e-05)
(0.00813643 -0.1707 -7.10013e-05)
(0.0169874 -0.221062 -0.000148226)
(0.0276877 -0.258637 -0.000241579)
(0.0396706 -0.287108 -0.000346114)
(0.0525387 -0.308285 -0.000458377)
(0.065888 -0.323325 -0.000574829)
(0.0793739 -0.332878 -0.000692488)
(0.0926342 -0.337491 -0.000808169)
(0.105297 -0.337548 -0.00091866)
(0.117047 -0.333494 -0.00102117)
(0.127531 -0.3257 -0.00111266)
(0.136465 -0.314661 -0.00119062)
(0.143677 -0.300809 -0.00125356)
(0.148967 -0.284704 -0.00129974)
(0.00283646 -0.119001 -2.47522e-05)
(0.0102615 -0.194192 -8.95455e-05)
(0.0210161 -0.250402 -0.000183372)
(0.0338665 -0.291984 -0.000295477)
(0.0480931 -0.323202 -0.000419587)
(0.0632212 -0.346028 -0.000551552)
(0.078719 -0.361757 -0.000686757)
(0.094183 -0.371128 -0.000821658)
(0.109146 -0.374761 -0.000952205)
(0.12321 -0.373148 -0.00107491)
(0.135966 -0.366798 -0.00118621)
(0.14708 -0.356231 -0.00128319)
(0.156191 -0.34202 -0.0013627)
(0.163209 -0.324779 -0.00142396)
(0.167874 -0.305143 -0.00146468)
(0.00329426 -0.144981 -2.87506e-05)
(0.0118634 -0.230192 -0.000103517)
(0.0243683 -0.293009 -0.000212609)
(0.0391701 -0.338811 -0.000341732)
(0.0555009 -0.372504 -0.000484181)
(0.0729843 -0.396335 -0.000636698)
(0.0908256 -0.411854 -0.000792327)
(0.108556 -0.419902 -0.000947008)
(0.125588 -0.421312 -0.0010956)
(0.141426 -0.416641 -0.00123379)
(0.155597 -0.406646 -0.00135743)
(0.167641 -0.391908 -0.00146253)
(0.177214 -0.373289 -0.00154608)
(0.18413 -0.351447 -0.00160645)
(0.188241 -0.327314 -0.00164236)
(0.00434968 -0.166841 -3.79549e-05)
(0.0151499 -0.262654 -0.000132192)
(0.0305714 -0.333177 -0.000266719)
(0.0486409 -0.384289 -0.000424333)
(0.0683295 -0.421341 -0.000596079)
(0.0891116 -0.446963 -0.000777349)
(0.110004 -0.462874 -0.000959613)
(0.130445 -0.470057 -0.00113792)
(0.149673 -0.469461 -0.00130568)
(0.167161 -0.461801 -0.00145825)
(0.182298 -0.448004 -0.00159033)
(0.194691 -0.428862 -0.00169849)
(0.2039 -0.405422 -0.00177885)
(0.20991 -0.378588 -0.00183134)
(0.212501 -0.349457 -0.00185397)
(0.00487929 -0.206787 -4.25808e-05)
(0.017193 -0.316428 -0.000150006)
(0.0349714 -0.395798 -0.000305074)
(0.0559368 -0.452255 -0.000487943)
(0.0788473 -0.492026 -0.000687763)
(0.10293 -0.518137 -0.000897831)
(0.127065 -0.532716 -0.00110835)
(0.150567 -0.536898 -0.00131338)
(0.172525 -0.53204 -0.00150495)
(0.1922 -0.518926 -0.0016766)
(0.208916 -0.49899 -0.00182247)
(0.222104 -0.473053 -0.00193756)
(0.231387 -0.442741 -0.00201861)
(0.236638 -0.408967 -0.00206445)
(0.237837 -0.373361 -0.00207499)
(0.00645146 -0.236962 -5.62894e-05)
(0.0222538 -0.361359 -0.00019415)
(0.0446262 -0.451364 -0.000389281)
(0.0706787 -0.514762 -0.000616492)
(0.0987299 -0.558762 -0.000861162)
(0.127721 -0.586656 -0.00111402)
(0.156257 -0.600989 -0.00136295)
(0.183476 -0.602919 -0.00160038)
(0.2082 -0.594256 -0.00181607)
(0.229657 -0.57588 -0.0020033)
(0.246987 -0.549712 -0.00215451)
(0.259784 -0.516777 -0.00226622)
(0.26752 -0.479183 -0.00233374)
(0.27047 -0.438103 -0.00235958)
(0.268506 -0.395562 -0.00234247)
(0.00709245 -0.298172 -6.1892e-05)
(0.0251693 -0.44286 -0.000219557)
(0.0509348 -0.545318 -0.00044424)
(0.0810938 -0.615612 -0.000707257)
(0.113622 -0.662375 -0.000990929)
(0.147299 -0.689473 -0.00128466)
(0.180357 -0.700245 -0.00157301)
(0.211707 -0.696036 -0.00184648)
(0.239891 -0.679517 -0.00209237)
(0.263897 -0.651507 -0.00230181)
(0.282748 -0.615045 -0.00246635)
(0.295823 -0.570984 -0.00258045)
(0.302728 -0.522716 -0.00264082)
(0.303644 -0.471163 -0.00264885)
(0.298803 -0.419423 -0.00260676)
(0.00969242 -0.338767 -8.4557e-05)
(0.0333827 -0.505068 -0.000291174)
(0.06645 -0.622765 -0.000579525)
(0.104567 -0.702382 -0.0009119)
(0.14501 -0.754333 -0.00126461)
(0.186035 -0.782566 -0.00162241)
(0.225409 -0.791634 -0.00196584)
(0.261751 -0.78248 -0.00228288)
(0.293264 -0.759078 -0.00255777)
(0.318871 -0.721889 -0.00278125)
(0.337331 -0.675437 -0.0029423)
(0.348354 -0.620239 -0.00303862)
(0.351319 -0.561263 -0.00306452)
(0.010505 -0.434704 -9.1643e-05)
(0.037333 -0.631278 -0.000325552)
(0.0754435 -0.766737 -0.000657797)
(0.119528 -0.85512 -0.00104219)
(0.166236 -0.909201 -0.00144947)
(0.213675 -0.933834 -0.00186319)
(0.258961 -0.935179 -0.00225818)
(0.300531 -0.914252 -0.00262076)
(0.33616 -0.876807 -0.00293164)
(0.364348 -0.822742 -0.00317754)
(0.383823 -0.759108 -0.00334761)
(0.393905 -0.685449 -0.00343561)
(0.394135 -0.609953 -0.00343788)
(0.0148595 -0.490634 -0.00012959)
(0.0507397 -0.718825 -0.000442393)
(0.100513 -0.875659 -0.000876304)
(0.156959 -0.975778 -0.00136844)
(0.215731 -1.03568 -0.00188091)
(0.273918 -1.05955 -0.00238837)
(0.328067 -1.05628 -0.00286059)
(0.376208 -1.02536 -0.00328057)
(0.415746 -0.97597 -0.00362541)
(0.444812 -0.906047 -0.00387914)
(0.461941 -0.826835 -0.0040286)
(0.466657 -0.735319 -0.00407004)
(0.458284 -0.644687 -0.00399711)
(0.0164035 -0.64387 -0.000143038)
(0.0571561 -0.917382 -0.000498174)
(0.113694 -1.09938 -0.00099094)
(0.177873 -1.21008 -0.00155039)
(0.244231 -1.2699 -0.00212895)
(0.3105 -1.2844 -0.00270674)
(0.371906 -1.26606 -0.00324232)
(0.425762 -1.21425 -0.00371192)
(0.469757 -1.14079 -0.00409579)
(0.500535 -1.04168 -0.00436426)
(0.517735 -0.933918 -0.00451459)
(0.519232 -0.810884 -0.00452788)
(0.504503 -0.695036 -0.00439981)
(0.0237987 -0.72388 -0.000207419)
(0.0784206 -1.04124 -0.000683384)
(0.152715 -1.25104 -0.00133094)
(0.235176 -1.37464 -0.00204972)
(0.319521 -1.43905 -0.00278502)
(0.400362 -1.44948 -0.00349)
(0.472563 -1.42051 -0.00411942)
(0.534594 -1.34999 -0.00466036)
(0.584371 -1.25725 -0.00509441)
(0.615335 -1.13154 -0.00536456)
(0.628212 -1.00176 -0.00547719)
(0.618262 -0.848642 -0.00539085)
(0.585756 -0.713606 -0.00510789)
(0.0267325 -0.970152 -0.000232831)
(0.0868836 -1.3522 -0.000756631)
(0.168272 -1.5962 -0.00146584)
(0.259337 -1.73137 -0.00225911)
(0.348857 -1.79093 -0.00303982)
(0.438396 -1.77929 -0.00382035)
(0.520158 -1.72485 -0.00453309)
(0.584077 -1.6224 -0.00508988)
(0.638088 -1.49232 -0.0055605)
(0.667251 -1.31817 -0.00581505)
(0.682189 -1.14026 -0.00594556)
(0.66676 -0.928672 -0.00581226)
(0.620278 -0.756502 -0.00540754)
(0.0372456 -1.08811 -0.000323946)
(0.115481 -1.52023 -0.00100557)
(0.221084 -1.79375 -0.00192521)
(0.335897 -1.9376 -0.00292651)
(0.45372 -1.99617 -0.00395364)
(0.557614 -1.98142 -0.00485921)
(0.641157 -1.90071 -0.0055862)
(0.714641 -1.76928 -0.00622552)
(0.784345 -1.60978 -0.00683316)
(0.820473 -1.39501 -0.00714742)
(0.838868 -1.19906 -0.00730987)
(0.800079 -0.926295 -0.00697257)
(0.71459 -0.737794 -0.00622929)
(0.0580566 -1.46158 -0.000504907)
(0.130705 -1.98176 -0.0011388)
(0.23325 -2.30114 -0.00203189)
(0.346592 -2.46159 -0.0030199)
(0.450434 -2.51354 -0.00392472)
(0.564677 -2.42683 -0.00491895)
(0.666165 -2.32041 -0.00579946)
(0.720143 -2.15632 -0.00626856)
(0.797269 -1.96632 -0.00693925)
(0.808451 -1.68648 -0.00703771)
(0.856662 -1.3924 -0.00745941)
(0.821533 -0.989776 -0.00715781)
(0.697342 -0.749884 -0.00607623)
(0.0234165 -1.71337 -0.000201474)
(0.10693 -2.1683 -0.000959279)
(0.235123 -2.48295 -0.00206076)
(0.380524 -2.6244 -0.00332585)
(0.590445 -2.68018 -0.00515142)
(0.698556 -2.61699 -0.00608358)
(0.713958 -2.47593 -0.00621053)
(0.781394 -2.23739 -0.0067958)
(0.908127 -1.99921 -0.00789669)
(1.01692 -1.68138 -0.00884616)
(1.12935 -1.46119 -0.00983683)
(1.01798 -0.881732 -0.00886934)
(0.785737 -0.656374 -0.00684858)
(0.0358864 -1.85931 -0.000312068)
(0.079898 -2.63848 -0.000748407)
(0.149327 -3.12295 -0.00134088)
(0.214039 -3.45829 -0.00190625)
(0.36909 -3.50767 -0.00324085)
(0.534862 -3.05145 -0.00466459)
(0.702987 -2.86202 -0.00611906)
(0.754748 -2.71976 -0.00655399)
(0.821407 -2.69372 -0.00711993)
(0.757902 -2.29768 -0.00656463)
(0.988895 -1.77229 -0.00860086)
(0.978266 -0.850701 -0.00852874)
(0.592887 -0.563932 -0.0051671)
(0.0350002 -1.5868 -0.000306274)
(0.121059 -2.351 -0.00105126)
(0.18538 -2.87649 -0.00161915)
(0.343812 -3.19656 -0.0029922)
(0.949041 -3.40364 -0.00829601)
(0.963735 -3.42012 -0.00842547)
(0.377255 -3.19592 -0.0033089)
(0.114909 -2.80147 -0.000994987)
(0.312782 -2.18895 -0.00270674)
(0.940174 -1.64036 -0.00817828)
(1.34728 -1.18307 -0.0117501)
(1.16589 -0.470124 -0.0101552)
(0.536468 -0.245587 -0.00467232)
(0.018726 -1.20235 -0.000163143)
(0.0532931 -1.7166 -0.000455285)
(0.0963176 -2.06225 -0.000837845)
(0.154147 -2.25738 -0.00134268)
(0.261351 -2.3288 -0.00228295)
(0.339509 -2.32081 -0.00296092)
(0.320015 -2.09359 -0.00279809)
(0.309231 -1.72924 -0.00270796)
(0.271757 -1.17163 -0.0023785)
(0.162309 -0.482029 -0.00141771)
(0.0147859 -0.997159 -0.00012939)
(0.0419554 -1.34266 -0.000367516)
(0.068406 -1.57201 -0.000598618)
(0.0976399 -1.68931 -0.00085338)
(0.130631 -1.70424 -0.00114022)
(0.159427 -1.61537 -0.00139272)
(0.168314 -1.42178 -0.00146984)
(0.148859 -1.13032 -0.0013031)
(0.0991328 -0.739941 -0.000867346)
(0.0182578 -0.269005 -0.000162557)
(0.0100706 -0.903951 -8.80415e-05)
(0.0276481 -1.14762 -0.00024156)
(0.0438691 -1.29952 -0.000383595)
(0.0577859 -1.36586 -0.000505174)
(0.0698941 -1.35241 -0.000611136)
(0.0771903 -1.26117 -0.000674678)
(0.0761765 -1.0905 -0.000666387)
(0.0634006 -0.844529 -0.000555238)
(0.0383707 -0.534272 -0.000336127)
(0.00395326 -0.180665 -3.60211e-05)
(0.00550782 -0.885292 -4.81565e-05)
(0.0152645 -1.07928 -0.000133539)
(0.0232893 -1.19087 -0.000203776)
(0.0289965 -1.2303 -0.00025378)
(0.0318066 -1.20396 -0.000278286)
(0.0317705 -1.11348 -0.000278085)
(0.0279593 -0.959874 -0.000244737)
(0.0200981 -0.74569 -0.000176171)
(0.00734805 -0.476787 -6.45973e-05)
(-0.000754516 -0.164188 6.41252e-06)
(0.00281143 -0.911936 -2.45799e-05)
(0.00715154 -1.09905 -6.25695e-05)
(0.00916387 -1.19862 -8.02853e-05)
(0.00846617 -1.2273 -7.42924e-05)
(0.00540053 -1.19366 -4.76067e-05)
(0.00107024 -1.10071 -9.77139e-06)
(-0.00303027 -0.949792 2.60146e-05)
(-0.00541455 -0.74281 4.69195e-05)
(-0.00481124 -0.48263 4.17454e-05)
(-0.00128671 -0.171807 1.1283e-05)
(2.84296e-05 -0.918046 -2.58647e-07)
(0.000630886 -1.10763 -5.58906e-06)
(0.00103453 -1.20579 -9.1816e-06)
(0.00108873 -1.23208 -9.73058e-06)
(0.000773174 -1.19575 -7.00132e-06)
(0.00016747 -1.10054 -1.73542e-06)
(-0.000442113 -0.948156 3.61807e-06)
(-0.000762525 -0.740572 6.44096e-06)
(-0.000793149 -0.481023 6.78854e-06)
(-0.000185563 -0.172071 1.60716e-06)
(-0.00283718 -0.913796 2.47501e-05)
(-0.00601249 -1.10241 5.24383e-05)
(-0.007652 -1.20095 6.67038e-05)
(-0.00777478 -1.22814 6.77466e-05)
(-0.00632866 -1.19307 5.50975e-05)
(-0.00430972 -1.09938 3.74797e-05)
(-0.00176524 -0.948693 1.52763e-05)
(0.000126772 -0.742537 -1.20774e-06)
(0.00105409 -0.483647 -9.27184e-06)
(0.000427189 -0.173776 -3.80597e-06)
(-0.00672789 -0.888268 5.87146e-05)
(-0.0147071 -1.08457 0.000128338)
(-0.0182709 -1.19186 0.000159429)
(-0.0186686 -1.22645 0.00016288)
(-0.0162108 -1.19625 0.000141425)
(-0.0124639 -1.10469 0.000108718)
(-0.00760137 -0.953507 6.62898e-05)
(-0.0031926 -0.744094 2.78193e-05)
(6.35753e-05 -0.48111 -5.84079e-07)
(0.000603102 -0.169059 -5.28255e-06)
(-0.0167874 -0.841977 0.000146501)
(-0.0336717 -1.04675 0.000293873)
(-0.0408586 -1.16833 0.000356586)
(-0.0445662 -1.21316 0.000388942)
(-0.0452164 -1.19088 0.00039461)
(-0.0442465 -1.10553 0.000386152)
(-0.0390518 -0.959294 0.000340828)
(-0.03096 -0.753045 0.00027023)
(-0.0175233 -0.490019 0.000152981)
(-0.00459979 -0.174267 4.06267e-05)
(-0.0013121 -0.717296 1.14572e-05)
(-0.00888967 -0.961188 7.76188e-05)
(-0.0312294 -1.11431 0.000272591)
(-0.0603474 -1.17398 0.000526643)
(-0.0929912 -1.16134 0.000811311)
(-0.123059 -1.0864 0.00107324)
(-0.143426 -0.952966 0.00125015)
(-0.148151 -0.761135 0.00129004)
(-0.120926 -0.511272 0.00105074)
(-0.0711412 -0.197081 0.000613744)
(0.249273 -0.811204 -0.00215638)
(0.297776 -0.968606 -0.00246157)
(0.13612 -1.05539 -0.00100916)
(-0.0252601 -1.09581 0.000283427)
(-0.165936 -1.08335 0.00124479)
(-0.287059 -1.01986 0.00190664)
(-0.3895 -0.904222 0.00230341)
(-0.473907 -0.740892 0.00247384)
(-0.492488 -0.521987 0.00200677)
(-0.535305 -0.295101 0.00161634)
(-0.001241 -2.6951 1.08388e-05)
(0.00508927 -1.413 -4.44054e-05)
(0.020339 -0.712321 -0.000177512)
(0.0054521 -0.549101 -4.76215e-05)
(-0.00163712 -0.485343 1.42012e-05)
(-0.0267147 -0.425809 0.000232947)
(-0.0242859 -0.371362 0.000211435)
(-0.0320381 -0.324866 0.000278388)
(0.0113907 -0.429598 -0.000102372)
(0.0572946 -1.62959 -0.000504193)
(-0.216983 -0.81943 0.0018937)
(-0.270219 -1.0262 0.00235859)
(-0.127075 -1.09619 0.00110938)
(-0.0026443 -1.10212 2.3372e-05)
(0.130328 -1.07493 -0.00113719)
(0.216851 -1.01307 -0.00189236)
(0.343268 -0.910645 -0.00299569)
(0.376856 -0.780088 -0.00328891)
(0.522306 -0.589252 -0.00455858)
(0.292185 -0.291468 -0.002575)
(0.00813812 -0.935076 -7.10219e-05)
(0.00604022 -0.978974 -5.27212e-05)
(0.0126705 -0.995036 -0.000110576)
(0.0235404 -0.99151 -0.000205429)
(0.0433379 -0.961574 -0.000378204)
(0.054986 -0.917834 -0.000479871)
(0.0727455 -0.829834 -0.000634928)
(0.0713507 -0.746419 -0.000622817)
(0.0617917 -0.561872 -0.000539578)
(0.0246439 -0.390294 -0.000216905)
(-0.0138665 -0.874312 0.000121021)
(-0.0108833 -1.0515 9.50074e-05)
(0.0151119 -1.14265 -0.000131856)
(0.0390561 -1.17193 -0.000340828)
(0.07276 -1.14809 -0.000634997)
(0.0937161 -1.07958 -0.000817928)
(0.116939 -0.954013 -0.00102058)
(0.10339 -0.782171 -0.000902449)
(0.0895824 -0.533023 -0.000782)
(0.0375481 -0.208249 -0.000331171)
(0.00148915 -0.839972 -1.2996e-05)
(0.00355241 -1.01336 -3.10043e-05)
(0.00895068 -1.10558 -7.81165e-05)
(0.0130678 -1.13547 -0.000114051)
(0.0179575 -1.11204 -0.000156736)
(0.0220299 -1.04582 -0.000192295)
(0.0242749 -0.92453 -0.000211863)
(0.0157531 -0.760481 -0.00013754)
(0.00982634 -0.517827 -8.58117e-05)
(0.00269426 -0.215483 -2.38557e-05)
(0.0023505 -0.890953 -2.05132e-05)
(0.00712694 -1.07477 -6.21997e-05)
(0.0153866 -1.17055 -0.000134286)
(0.0214917 -1.1994 -0.000187572)
(0.0280696 -1.17104 -0.000244991)
(0.0328518 -1.09123 -0.000286752)
(0.0351573 -0.95607 -0.000306848)
(0.0250927 -0.767006 -0.00021906)
(0.0173241 -0.513361 -0.000151272)
(0.0059307 -0.193469 -5.22371e-05)
(0.000948939 -0.870608 -8.2825e-06)
(0.00202004 -1.05659 -1.7632e-05)
(0.00378766 -1.15329 -3.30606e-05)
(0.00500748 -1.18281 -4.37081e-05)
(0.00549472 -1.15316 -4.79802e-05)
(0.00833313 -1.07254 -7.27672e-05)
(0.00893597 -0.939673 -7.79669e-05)
(0.00263287 -0.750821 -2.29958e-05)
(0.00135847 -0.499623 -1.18731e-05)
(-0.000202703 -0.186342 1.69934e-06)
(0.00203781 -0.901148 -1.77857e-05)
(0.00439516 -1.08612 -3.83632e-05)
(0.00681291 -1.1809 -5.9469e-05)
(0.00971556 -1.20752 -8.48045e-05)
(0.0119487 -1.17466 -0.000104289)
(0.00949928 -1.08896 -8.29114e-05)
(0.0102023 -0.95201 -8.90619e-05)
(0.0074619 -0.757535 -6.51388e-05)
(0.00439642 -0.504462 -3.83877e-05)
(0.0013478 -0.187989 -1.18604e-05)
(0.000583034 -0.891946 -5.09002e-06)
(0.000992776 -1.07721 -8.66969e-06)
(0.000976425 -1.17239 -8.53141e-06)
(0.00238371 -1.19877 -2.08156e-05)
(0.0034367 -1.16698 -3.00011e-05)
(0.00116973 -1.08178 -1.02127e-05)
(0.00222412 -0.942518 -1.94165e-05)
(0.000824628 -0.748608 -7.19327e-06)
(4.26416e-05 -0.495938 -3.72967e-07)
(-0.000334319 -0.18246 2.88068e-06)
(0.000893734 -0.906458 -7.80201e-06)
(0.00185302 -1.09056 -1.61775e-05)
(0.00241827 -1.18458 -2.11159e-05)
(0.00437354 -1.20936 -3.81849e-05)
(0.00566536 -1.17599 -4.94573e-05)
(0.00331274 -1.08888 -2.89175e-05)
(0.00429356 -0.948462 -3.74808e-05)
(0.00293784 -0.753336 -2.56441e-05)
(0.00176885 -0.50043 -1.54446e-05)
(0.000540605 -0.185699 -4.72518e-06)
(0.000106394 -0.901093 -9.30125e-07)
(0.000319344 -1.08595 -2.79252e-06)
(0.000120504 -1.1805 -1.06077e-06)
(0.00148962 -1.20506 -1.30142e-05)
(0.00234535 -1.17161 -2.04811e-05)
(-2.30515e-05 -1.08411 1.96233e-07)
(0.00111646 -0.943283 -9.7511e-06)
(0.000347 -0.747859 -3.02791e-06)
(5.45133e-05 -0.495 -4.75923e-07)
(-0.000196767 -0.181805 1.70354e-06)
(0.000395304 -0.907732 -3.45046e-06)
(0.000737479 -1.09255 -6.44147e-06)
(0.000888311 -1.18686 -7.75849e-06)
(0.00316902 -1.21082 -2.76718e-05)
(0.00368636 -1.17652 -3.21833e-05)
(0.00154215 -1.08798 -1.34683e-05)
(0.00245595 -0.946508 -2.14464e-05)
(0.00162232 -0.75062 -1.4162e-05)
(0.000990158 -0.49773 -8.64642e-06)
(0.000283563 -0.183851 -2.46789e-06)
(0.000127559 -0.905407 -1.11308e-06)
(0.000113535 -1.09108 -9.92693e-07)
(-4.82852e-05 -1.18502 4.19495e-07)
(0.00238728 -1.20834 -2.08515e-05)
(0.00307218 -1.17454 -2.68183e-05)
(0.000730964 -1.08527 -6.38599e-06)
(0.00135274 -0.943443 -1.18193e-05)
(0.000630446 -0.747317 -5.5041e-06)
(0.000218018 -0.49443 -1.90404e-06)
(-0.000101032 -0.181479 8.7891e-07)
(0.000306305 -0.909397 -2.67508e-06)
(0.00098012 -1.09539 -8.55642e-06)
(0.00185028 -1.18919 -1.61523e-05)
(0.00222482 -1.21189 -1.94226e-05)
(0.00224144 -1.17735 -1.95702e-05)
(0.00218597 -1.08731 -1.9087e-05)
(0.00198782 -0.94494 -1.73565e-05)
(0.00135693 -0.748568 -1.18496e-05)
(0.000734806 -0.495714 -6.41847e-06)
(0.000158531 -0.182525 -1.38356e-06)
(0.000233727 -0.909478 -2.04137e-06)
(0.000813211 -1.09611 -7.09916e-06)
(0.00161326 -1.19017 -1.40818e-05)
(0.00233536 -1.21293 -2.03871e-05)
(0.00254482 -1.17661 -2.22161e-05)
(0.00226855 -1.08616 -1.98064e-05)
(0.00168989 -0.94312 -1.4756e-05)
(0.000974995 -0.746441 -8.51478e-06)
(0.000372211 -0.493638 -3.25161e-06)
(-6.22224e-05 -0.18115 5.30005e-07)
(0.000501957 -0.912986 -4.38296e-06)
(0.00154969 -1.10031 -1.35275e-05)
(0.00268863 -1.19395 -2.34691e-05)
(0.0033694 -1.21565 -2.94136e-05)
(0.00345965 -1.17831 -3.02019e-05)
(0.00315362 -1.08707 -2.75323e-05)
(0.00240815 -0.943455 -2.10253e-05)
(0.00152193 -0.746541 -1.32874e-05)
(0.000700983 -0.493851 -6.12107e-06)
(0.000117981 -0.181477 -1.04001e-06)
(0.00069537 -0.916111 -6.07047e-06)
(0.00194466 -1.10385 -1.69755e-05)
(0.00313586 -1.19688 -2.73736e-05)
(0.00370051 -1.21735 -3.23049e-05)
(0.00353345 -1.1787 -3.08479e-05)
(0.0030733 -1.08646 -2.68321e-05)
(0.00219904 -0.942229 -1.92026e-05)
(0.00122456 -0.745063 -1.06947e-05)
(0.000422182 -0.492473 -3.69357e-06)
(-2.40063e-05 -0.180729 2.18483e-07)
(0.00121199 -0.921602 -1.05789e-05)
(0.00292878 -1.10936 -2.55654e-05)
(0.00428089 -1.20115 -3.7368e-05)
(0.00485344 -1.21996 -4.23682e-05)
(0.00441777 -1.17977 -3.85675e-05)
(0.0036773 -1.08632 -3.21038e-05)
(0.00263387 -0.941218 -2.29992e-05)
(0.00166936 -0.74342 -1.45826e-05)
(0.000758067 -0.490737 -6.62429e-06)
(0.00017756 -0.179168 -1.55315e-06)
(0.00170652 -0.929874 -1.48948e-05)
(0.00367128 -1.11648 -3.20465e-05)
(0.00476929 -1.20595 -4.16328e-05)
(0.00501235 -1.22259 -4.37565e-05)
(0.00434761 -1.1808 -3.79611e-05)
(0.00355125 -1.08618 -3.10087e-05)
(0.00263747 -0.941638 -2.30132e-05)
(0.0015634 -0.74376 -1.36419e-05)
(0.000408027 -0.491761 -3.55426e-06)
(-1.86463e-05 -0.181188 1.23341e-07)
(0.00254206 -0.939658 -2.21879e-05)
(0.00503531 -1.12363 -4.39488e-05)
(0.00601657 -1.20985 -5.25198e-05)
(0.00550644 -1.22386 -4.80688e-05)
(0.00479484 -1.18058 -4.18579e-05)
(0.00259833 -1.08517 -2.26916e-05)
(0.00148808 -0.940254 -1.2998e-05)
(0.0023195 -0.742049 -2.02367e-05)
(0.000802946 -0.489884 -7.00897e-06)
(0.00022356 -0.179735 -1.95141e-06)
(0.00318899 -0.955105 -2.78353e-05)
(0.00553066 -1.13356 -4.8278e-05)
(0.0055176 -1.21527 -4.8166e-05)
(0.00411303 -1.22621 -3.59041e-05)
(0.00301548 -1.1813 -2.63339e-05)
(0.00102683 -1.08584 -8.97876e-06)
(0.000485116 -0.939765 -4.23942e-06)
(0.00161753 -0.741378 -1.41083e-05)
(0.000187016 -0.488869 -1.63098e-06)
(-3.79646e-05 -0.178515 2.91133e-07)