/*--------------------------------*- C++ -*----------------------------------*\
| =========                 |                                                 |
| \\      /  F ield         | OpenFOAM: The Open Source CFD Toolbox           |
|  \\    /   O peration     | Version:  v2012                                 |
|   \\  /    A nd           | Website:  www.openfoam.com                      |
|    \\/     M anipulation  |                                                 |
\*---------------------------------------------------------------------------*/
FoamFile
{
    version     2.0;
    format      ascii;
    class       volScalarField;
    location    "0.7";
    object      alpha.water;
}
// * * * * * * * * * * * * * * * * * * * * * * * * * * * * * * * * * * * * * //

dimensions      [0 0 0 0 0 0 0];


internalField   nonuniform List<scalar> 
15860
(
-2.53411e-69
-3.52489e-69
-1.50288e-69
-7.06618e-70
-1.30917e-70
-2.13481e-71
-3.06015e-72
-4.64419e-73
-5.92658e-74
-6.2001e-75
-5.45136e-76
-4.37766e-77
-3.33224e-78
-2.24594e-79
-1.39576e-80
-8.19154e-82
-6.33772e-83
-9.33171e-80
-1.03342e-75
-1.82236e-71
-4.74494e-67
-1.65558e-62
-1.64151e-57
-5.77428e-55
-1.12851e-54
-1.07216e-54
-6.54602e-55
-2.8692e-55
-9.56707e-56
-2.51124e-56
-5.3048e-57
-9.15604e-58
-1.30522e-58
-1.54855e-59
-1.53745e-60
-1.28214e-61
-8.99712e-63
-5.32902e-64
-2.66451e-65
-1.12518e-66
-4.01045e-68
-1.20591e-69
-3.0543e-71
-6.50504e-73
-1.16238e-74
-1.73636e-76
-2.16057e-78
-2.2279e-80
-1.89233e-82
-1.31385e-84
-7.38358e-87
-3.31881e-89
-1.1748e-91
-3.20941e-94
-6.58756e-97
-9.79026e-100
-9.98002e-103
-6.40731e-106
-2.2192e-109
-2.82115e-113
-1.61311e-68
-2.13027e-68
-8.8236e-69
-3.9994e-69
-7.43367e-70
-1.1858e-70
-1.6811e-71
-2.49742e-72
-3.11185e-73
-3.15359e-74
-2.78828e-75
-2.2344e-76
-1.68699e-77
-1.1188e-78
-6.88705e-80
-4.00146e-81
-2.67024e-82
-2.43399e-79
-2.89941e-75
-5.75708e-71
-1.68137e-66
-6.30696e-62
-7.53671e-57
-2.58791e-54
-5.18285e-54
-5.0501e-54
-3.1644e-54
-1.42433e-54
-4.87963e-55
-1.31641e-55
-2.8586e-56
-5.07275e-57
-7.43604e-58
-9.07352e-59
-9.26594e-60
-7.94846e-61
-5.73717e-62
-3.49474e-63
-1.79659e-64
-7.79765e-66
-2.85532e-67
-8.8158e-69
-2.29129e-70
-5.00426e-72
-9.16294e-74
-1.40143e-75
-1.78392e-77
-1.88012e-79
-1.63065e-81
-1.15494e-83
-6.6143e-86
-3.02647e-88
-1.08933e-90
-3.02215e-93
-6.29063e-96
-9.46439e-99
-9.74436e-102
-6.29561e-105
-2.17783e-108
-2.69492e-112
-9.77932e-68
-1.2228e-67
-4.92226e-68
-2.20485e-68
-3.97624e-69
-6.12737e-70
-8.49733e-71
-1.3033e-71
-1.56948e-72
-1.54371e-73
-1.32573e-74
-1.07819e-75
-8.0499e-77
-5.25068e-78
-3.19899e-79
-1.84136e-80
-1.12151e-81
-6.05625e-79
-7.59122e-75
-1.73037e-70
-5.63453e-66
-2.2927e-61
-3.31437e-56
-1.11661e-53
-2.29344e-53
-2.29383e-53
-1.47642e-53
-6.83053e-54
-2.40653e-54
-6.67862e-55
-1.49215e-55
-2.72482e-56
-4.11103e-57
-5.16394e-58
-5.42948e-59
-4.79572e-60
-3.56433e-61
-2.23537e-62
-1.18288e-63
-5.28293e-65
-1.98976e-66
-6.31566e-68
-1.68649e-69
-3.78175e-71
-7.10407e-73
-1.11379e-74
-1.45204e-76
-1.56583e-78
-1.38816e-80
-1.0039e-82
-5.86361e-85
-2.73292e-87
-1.00059e-89
-2.81926e-92
-5.94845e-95
-9.04917e-98
-9.3867e-101
-6.07346e-104
-2.07845e-107
-2.46676e-111
-5.67405e-67
-6.76007e-67
-2.64005e-67
-1.11205e-67
-2.03204e-68
-3.13089e-69
-4.17844e-70
-6.37626e-71
-7.56658e-72
-7.24221e-73
-6.12825e-74
-4.90099e-75
-3.64549e-76
-2.34229e-77
-1.41313e-78
-8.02524e-80
-4.63021e-81
-1.54981e-78
-2.36093e-74
-5.9734e-70
-1.89863e-65
-8.11794e-61
-1.39382e-55
-4.63266e-53
-9.76767e-53
-1.00374e-52
-6.64249e-53
-3.1616e-53
-1.14659e-53
-3.27628e-54
-7.53771e-55
-1.41761e-55
-2.20315e-56
-2.8513e-57
-3.08938e-58
-2.81239e-59
-2.15443e-60
-1.39251e-61
-7.59284e-63
-3.4932e-64
-1.35476e-65
-4.42559e-67
-1.21554e-68
-2.80168e-70
-5.4055e-72
-8.69703e-74
-1.16248e-75
-1.28399e-77
-1.16467e-79
-8.60792e-82
-5.13187e-84
-2.43803e-86
-9.08427e-89
-2.60008e-91
-5.56004e-94
-8.54633e-97
-8.91725e-100
-5.76059e-103
-1.94001e-106
-2.19937e-110
-3.1558e-66
-3.57373e-66
-1.3524e-66
-5.51594e-67
-9.82758e-68
-1.45597e-68
-1.96968e-69
-2.97084e-70
-3.44005e-71
-3.22414e-72
-2.68342e-73
-2.10769e-74
-1.54256e-75
-9.77209e-77
-5.83083e-78
-3.27168e-79
-1.82407e-80
-4.10138e-78
-7.31507e-74
-2.06152e-69
-7.04331e-65
-3.33699e-60
-5.59771e-55
-1.84626e-52
-3.99973e-52
-4.22681e-52
-2.87866e-52
-1.41092e-52
-5.27193e-53
-1.55238e-53
-3.68079e-54
-7.13491e-55
-1.14311e-55
-1.52548e-56
-1.70472e-57
-1.60084e-58
-1.26514e-59
-8.43556e-61
-4.74421e-62
-2.25066e-63
-8.9972e-65
-3.02807e-66
-8.56366e-68
-2.03097e-69
-4.0289e-71
-6.65907e-73
-9.13511e-75
-1.0345e-76
-9.6102e-79
-7.26541e-81
-4.42478e-83
-2.14417e-85
-8.13522e-88
-2.3661e-90
-5.12828e-93
-7.96177e-96
-8.348e-99
-5.37447e-102
-1.7763e-105
-1.91857e-109
-1.67594e-65
-1.79937e-65
-6.65072e-66
-2.58044e-66
-4.52781e-67
-6.79333e-68
-8.80665e-69
-1.29183e-69
-1.49677e-70
-1.36809e-71
-1.11564e-72
-8.55048e-74
-6.14399e-75
-3.83086e-76
-2.25481e-77
-1.24573e-78
-6.77371e-80
-1.163e-77
-2.36596e-73
-6.72193e-69
-2.50692e-64
-1.43189e-59
-2.14302e-54
-7.05831e-52
-1.57272e-51
-1.71086e-51
-1.20028e-51
-6.06381e-52
-2.33663e-52
-7.09656e-53
-1.73546e-53
-3.46986e-54
-5.73514e-55
-7.89778e-56
-9.10991e-57
-8.8321e-58
-7.20724e-59
-4.96191e-60
-2.88105e-61
-1.41072e-62
-5.81869e-64
-2.0196e-65
-5.88692e-67
-1.43803e-68
-2.93596e-70
-4.99005e-72
-7.03264e-74
-8.17328e-76
-7.78322e-78
-6.02425e-80
-3.75096e-82
-1.85538e-84
-7.17245e-87
-2.12078e-89
-4.65998e-92
-7.30689e-95
-7.69535e-98
-4.93291e-101
-1.59824e-104
-1.64367e-108
-8.45602e-65
-8.72295e-65
-3.06433e-65
-1.11965e-65
-1.98513e-66
-2.80582e-67
-3.67039e-68
-5.32779e-69
-6.13856e-70
-5.43136e-71
-4.30404e-72
-3.24596e-73
-2.27655e-74
-1.39036e-75
-8.05907e-77
-4.36787e-78
-2.31498e-79
-2.64578e-77
-5.73052e-73
-1.74585e-68
-7.21472e-64
-4.74085e-59
-7.80637e-54
-2.58486e-51
-5.93008e-51
-6.64742e-51
-4.80895e-51
-2.50667e-51
-9.97108e-52
-3.12611e-52
-7.89083e-53
-1.62845e-53
-2.77867e-54
-3.95143e-55
-4.70818e-56
-4.71632e-57
-3.97728e-58
-2.82977e-59
-1.69784e-60
-8.58877e-62
-3.65856e-63
-1.31082e-64
-3.94196e-66
-9.92763e-68
-2.08808e-69
-3.65294e-71
-5.29396e-73
-6.32007e-75
-6.17504e-77
-4.89753e-79
-3.1202e-81
-1.57661e-83
-6.21407e-86
-1.86901e-88
-4.16512e-91
-6.59756e-94
-6.97915e-97
-4.45385e-100
-1.41477e-103
-1.38696e-107
-4.06418e-64
-3.99667e-64
-1.36035e-64
-4.7318e-65
-8.23152e-66
-1.15086e-66
-1.47723e-67
-2.03958e-68
-2.32517e-69
-2.01809e-70
-1.56332e-71
-1.14718e-72
-7.81872e-74
-4.67627e-75
-2.65087e-76
-1.40132e-77
-7.19405e-79
-3.89452e-77
-8.90606e-73
-2.82473e-68
-1.24982e-63
-9.64782e-59
-2.6998e-53
-9.05269e-51
-2.1408e-50
-2.4756e-50
-1.84875e-50
-9.95333e-51
-4.09125e-51
-1.32527e-51
-3.45536e-52
-7.36526e-53
-1.29828e-53
-1.90782e-54
-2.34986e-55
-2.43404e-56
-2.12297e-57
-1.56229e-58
-9.69457e-60
-5.07104e-61
-2.23288e-62
-8.26587e-64
-2.56686e-65
-6.67098e-67
-1.4468e-68
-2.60763e-70
-3.88959e-72
-4.77418e-74
-4.79021e-76
-3.89635e-78
-2.54206e-80
-1.31316e-82
-5.28081e-85
-1.61669e-87
-3.65606e-90
-5.85299e-93
-6.2215e-96
-3.95456e-99
-1.23293e-102
-1.15537e-106
-1.8353e-63
-1.75556e-63
-5.75643e-64
-1.93421e-64
-3.25476e-65
-4.4247e-66
-5.54303e-67
-7.44701e-68
-8.23444e-69
-6.96284e-70
-5.23038e-71
-3.72747e-72
-2.45108e-73
-1.42475e-74
-7.85034e-76
-4.02407e-77
-1.98452e-78
-3.41094e-77
-8.53806e-73
-2.95926e-68
-1.35985e-63
-1.03865e-58
-8.84398e-53
-3.02637e-50
-7.38658e-50
-8.82238e-50
-6.80913e-50
-3.79065e-50
-1.61182e-50
-5.39924e-51
-1.45515e-51
-3.20571e-52
-5.8411e-53
-8.87575e-54
-1.1309e-54
-1.21221e-55
-1.09439e-56
-8.33692e-58
-5.35512e-59
-2.89902e-60
-1.32066e-61
-5.05584e-63
-1.6227e-64
-4.35579e-66
-9.7497e-68
-1.81198e-69
-2.78428e-71
-3.51673e-73
-3.62665e-75
-3.02789e-77
-2.02464e-79
-1.07007e-81
-4.39398e-84
-1.37022e-86
-3.14664e-89
-5.09463e-92
-5.4456e-95
-3.45104e-98
-1.05799e-101
-9.51125e-106
-7.83589e-63
-7.1289e-63
-2.24376e-63
-7.44494e-64
-1.20885e-64
-1.61563e-65
-1.97746e-66
-2.53496e-67
-2.71644e-68
-2.21904e-69
-1.607e-70
-1.10546e-71
-6.93871e-73
-3.88486e-74
-2.05276e-75
-1.00478e-76
-4.67626e-78
-2.17084e-77
-6.31563e-73
-2.7809e-68
-2.04283e-63
-2.60237e-58
-2.73653e-52
-9.63717e-50
-2.43113e-49
-3.00309e-49
-2.39849e-49
-1.38238e-49
-6.08773e-50
-2.11073e-50
-5.88428e-51
-1.3406e-51
-2.52655e-52
-3.97249e-53
-5.23965e-54
-5.81638e-55
-5.43975e-56
-4.29331e-57
-2.8571e-58
-1.60214e-59
-7.55775e-61
-2.99469e-62
-9.94282e-64
-2.75903e-65
-6.3791e-67
-1.22354e-68
-1.93843e-70
-2.52158e-72
-2.67494e-74
-2.29424e-76
-1.57355e-78
-8.51588e-81
-3.57339e-83
-1.13594e-85
-2.65113e-88
-4.34476e-91
-4.67462e-94
-2.95772e-97
-8.93731e-101
-7.74162e-105
-3.06829e-62
-2.67245e-62
-8.03974e-63
-2.59606e-63
-4.30467e-64
-5.5146e-65
-6.77278e-66
-7.95098e-67
-8.30963e-68
-6.52944e-69
-4.52557e-70
-2.91617e-71
-1.72415e-72
-9.17909e-74
-4.53145e-75
-2.02743e-76
-8.59604e-78
-1.20021e-77
-4.73361e-73
-3.8546e-68
-3.27562e-63
-6.42721e-58
-7.97365e-52
-2.9162e-49
-7.61565e-49
-9.74384e-49
-8.06462e-49
-4.81866e-49
-2.20059e-49
-7.90452e-50
-2.28095e-50
-5.37736e-51
-1.04886e-51
-1.7075e-52
-2.33311e-53
-2.68423e-54
-2.60276e-55
-2.1301e-56
-1.46988e-57
-8.54536e-59
-4.17791e-60
-1.71497e-61
-5.89523e-63
-1.69253e-64
-4.04564e-66
-8.01508e-68
-1.31029e-69
-1.7569e-71
-1.91874e-73
-1.69193e-75
-1.19127e-77
-6.60683e-80
-2.83532e-82
-9.19576e-85
-2.18303e-87
-3.62483e-90
-3.93044e-93
-2.48709e-96
-7.42782e-100
-6.22966e-104
-1.13967e-61
-9.35307e-62
-2.67745e-62
-8.31533e-63
-1.32075e-63
-1.6573e-64
-1.95241e-65
-2.27401e-66
-2.25186e-67
-1.67379e-68
-1.09111e-69
-6.59266e-71
-3.59483e-72
-1.73043e-73
-7.53429e-75
-2.67135e-76
-9.28928e-78
-6.61616e-78
-4.75381e-73
-4.70171e-68
-4.71935e-63
-1.52767e-57
-2.18011e-51
-8.36209e-49
-2.26482e-48
-3.00648e-48
-2.58281e-48
-1.60232e-48
-7.5991e-49
-2.83048e-49
-8.45975e-50
-2.06492e-50
-4.17094e-51
-7.03529e-52
-9.96589e-53
-1.1893e-53
-1.19665e-54
-1.01642e-55
-7.27942e-57
-4.3915e-58
-2.22724e-59
-9.47949e-61
-3.37672e-62
-1.0039e-63
-2.48285e-65
-5.085e-67
-8.58491e-69
-1.18746e-70
-1.33617e-72
-1.21232e-74
-8.76952e-77
-4.9882e-79
-2.19115e-81
-7.25671e-84
-1.75395e-86
-2.95401e-89
-3.23241e-92
-2.04949e-95
-6.06796e-99
-4.95303e-103
-3.99308e-61
-3.11174e-61
-8.3982e-62
-2.46272e-62
-3.92457e-63
-4.60695e-64
-5.34685e-65
-5.87154e-66
-5.48468e-67
-3.73804e-68
-2.26337e-69
-1.21222e-70
-5.64656e-72
-2.08321e-73
-5.27274e-75
-8.93188e-99
1.78443e-79
9.36075e-80
-3.64885e-73
-4.91193e-68
-6.13265e-63
-3.38444e-57
-5.57015e-51
-2.26478e-48
-6.37547e-48
-8.79812e-48
-7.85965e-48
-5.07134e-48
-2.5017e-48
-9.67137e-49
-2.99564e-49
-7.5747e-50
-1.58545e-50
-2.77281e-51
-4.07537e-52
-5.04909e-53
-5.27661e-54
-4.65597e-55
-3.46412e-56
-2.17064e-57
-1.14307e-58
-5.04901e-60
-1.86537e-61
-5.74769e-63
-1.47207e-64
-3.11919e-66
-5.44277e-68
-7.77234e-70
-9.01801e-72
-8.42545e-74
-6.2665e-76
-3.65869e-78
-1.64639e-80
-5.57276e-83
-1.37272e-85
-2.3477e-88
-2.59632e-91
-1.65284e-94
-4.8666e-98
-3.88666e-102
-1.28961e-60
-9.58088e-61
-2.40871e-61
-6.75836e-62
-1.04085e-62
-1.12961e-63
-1.2012e-64
-1.34642e-65
-1.10837e-66
-6.82837e-68
-3.60347e-69
-1.44439e-70
-2.7864e-72
-4.06876e-96
1.23215e-75
3.19604e-75
2.40275e-75
1.25391e-75
1.22047e-76
-4.10464e-68
-7.43981e-63
-6.76659e-57
-1.32327e-50
-5.7711e-48
-1.69293e-47
-2.43432e-47
-2.26623e-47
-1.52388e-47
-7.83363e-48
-3.14581e-48
-1.01029e-48
-2.64778e-49
-5.74669e-50
-1.04293e-50
-1.59189e-51
-2.04953e-52
-2.22692e-53
-2.04343e-54
-1.58105e-55
-1.03006e-56
-5.63768e-58
-2.5868e-59
-9.92126e-61
-3.17111e-62
-8.41761e-64
-1.84686e-65
-3.33343e-67
-4.91826e-69
-5.88873e-71
-5.66978e-73
-4.33919e-75
-2.60249e-77
-1.20071e-79
-4.15751e-82
-1.04476e-84
-1.81662e-87
-2.03351e-90
-1.30255e-93
-3.82629e-97
-3.00569e-101
-3.88852e-60
-2.55244e-60
-6.32837e-61
-1.66405e-61
-2.30917e-62
-2.63432e-63
-2.45265e-64
-2.46271e-65
-1.70301e-66
-8.13039e-68
-2.66321e-69
1.06938e-92
1.46532e-72
8.53314e-72
1.42975e-71
1.45376e-71
1.08409e-71
5.70065e-72
1.76551e-72
-2.05018e-68
-9.03437e-63
-1.18256e-56
-2.90471e-50
-1.377e-47
-4.22291e-47
-6.34495e-47
-6.17138e-47
-4.3349e-47
-2.32712e-47
-9.71395e-48
-3.23569e-48
-8.79404e-49
-1.98066e-49
-3.73365e-50
-5.9246e-51
-7.93567e-52
-8.97511e-53
-8.57424e-54
-6.90684e-55
-4.68372e-56
-2.66713e-57
-1.27254e-58
-5.07151e-60
-1.68303e-61
-4.63436e-63
-1.05373e-64
-1.96886e-66
-3.00375e-68
-3.71414e-70
-3.68805e-72
-2.90658e-74
-1.79219e-76
-8.48461e-79
-3.00799e-81
-7.71921e-84
-1.36628e-86
-1.55047e-89
-1.00142e-92
-2.94423e-96
-2.28663e-100
-1.07348e-59
-6.30431e-60
-1.53181e-60
-3.69654e-61
-4.81745e-62
-4.67075e-63
-3.8376e-64
-3.05954e-65
-1.56983e-66
1.49119e-85
4.02637e-70
5.16046e-69
1.67395e-68
3.79349e-68
6.34516e-68
6.46676e-68
4.84388e-68
2.561e-68
8.59084e-69
3.26686e-70
-1.05071e-62
-1.74034e-56
-5.84235e-50
-3.0578e-47
-9.8444e-47
-1.551e-46
-1.5811e-46
-1.16342e-46
-6.539e-47
-2.83823e-47
-9.80664e-48
-2.76544e-48
-6.46965e-49
-1.26824e-49
-2.09489e-50
-2.92313e-51
-3.44581e-52
-3.43176e-53
-2.8817e-54
-2.03649e-55
-1.20796e-56
-5.99949e-58
-2.48704e-59
-8.57757e-61
-2.45231e-62
-5.78332e-64
-1.11956e-65
-1.76753e-67
-2.25881e-69
-2.31494e-71
-1.88018e-73
-1.19277e-75
-5.79911e-78
-2.10689e-80
-5.52704e-83
-9.97025e-86
-1.14881e-88
-7.49773e-92
-2.2131e-95
-1.70779e-99
-2.76589e-59
-1.35628e-59
-3.3605e-60
-7.29439e-61
-8.69165e-62
-6.70005e-63
-4.01662e-64
-4.75562e-88
9.61228e-69
7.50095e-67
4.59018e-66
2.23842e-65
7.25749e-65
1.65187e-64
2.77752e-64
2.84285e-64
2.14081e-64
1.13877e-64
3.8473e-65
6.77754e-66
-4.68975e-63
-2.03759e-56
-1.06384e-49
-6.26863e-47
-2.1306e-46
-3.53605e-46
-3.79309e-46
-2.93413e-46
-1.73194e-46
-7.81456e-47
-2.80014e-47
-8.19827e-48
-1.99471e-48
-4.07262e-49
-7.01416e-50
-1.02126e-50
-1.25678e-51
-1.30683e-52
-1.14559e-53
-8.44847e-55
-5.22653e-56
-2.70537e-57
-1.16782e-58
-4.19012e-60
-1.24498e-61
-3.04801e-63
-6.11839e-65
-1.0004e-66
-1.32232e-68
-1.39974e-70
-1.17248e-72
-7.65871e-75
-3.82705e-77
-1.42614e-79
-3.82825e-82
-7.04665e-85
-8.25674e-88
-5.45645e-91
-1.62176e-94
-1.24924e-98
-6.13322e-59
-2.39479e-59
-6.16275e-60
-1.16129e-60
-1.1328e-61
-5.33315e-63
4.88637e-81
3.55621e-65
5.10457e-64
3.26335e-63
1.99521e-62
9.69293e-62
3.13141e-61
7.11794e-61
1.20042e-60
1.23489e-60
9.33641e-61
4.99477e-61
1.70019e-61
3.35032e-62
3.12192e-65
-1.65758e-56
-1.72007e-49
-1.17283e-46
-4.24285e-46
-7.46457e-46
-8.47045e-46
-6.91937e-46
-4.30607e-46
-2.01675e-46
-7.48905e-47
-2.27849e-47
-5.776e-48
-1.23089e-48
-2.21519e-49
-3.37249e-50
-4.34109e-51
-4.72151e-52
-4.32812e-53
-3.33611e-54
-2.15558e-55
-1.16439e-56
-5.24019e-58
-1.95815e-59
-6.05264e-61
-1.53977e-62
-3.20777e-64
-5.43642e-66
-7.43823e-68
-8.13875e-70
-7.03626e-72
-4.736e-74
-2.43427e-76
-9.31227e-79
-2.5604e-81
-4.81467e-84
-5.74535e-87
-3.8521e-90
-1.15608e-93
-8.92816e-98
-1.14748e-58
-2.8336e-59
-7.3542e-60
-1.24157e-60
1.49122e-84
2.28816e-64
1.37813e-62
2.20858e-61
2.13326e-60
1.34792e-59
8.26262e-59
4.02929e-58
1.31747e-57
3.01323e-57
5.11752e-57
5.30644e-57
4.03748e-57
2.17489e-57
7.45191e-58
1.48247e-58
1.04815e-59
-3.13636e-58
-2.38129e-49
-1.96736e-46
-7.67392e-46
-1.44457e-45
-1.74702e-45
-1.51629e-45
-9.99882e-46
-4.84287e-46
-1.86124e-46
-5.89292e-47
-1.56074e-47
-3.48228e-48
-6.568e-49
-1.04841e-49
-1.41505e-50
-1.61337e-51
-1.54962e-52
-1.25066e-53
-8.45395e-55
-4.77255e-56
-2.24222e-57
-8.73664e-59
-2.81242e-60
-7.44183e-62
-1.61047e-63
-2.83142e-65
-4.01328e-67
-4.54254e-69
-4.05633e-71
-2.81546e-73
-1.48968e-75
-5.85509e-78
-1.65048e-80
-3.17419e-83
-3.86297e-86
-2.63264e-89
-7.99881e-93
-6.21774e-97
-1.66372e-58
-1.61279e-59
-5.28966e-60
3.38805e-82
1.19326e-61
4.10379e-60
5.77073e-59
9.27193e-58
8.92622e-57
5.60848e-56
3.44518e-55
1.67906e-54
5.51454e-54
1.26578e-53
2.16136e-53
2.25515e-53
1.72368e-53
9.34761e-54
3.22719e-54
6.49429e-55
5.57527e-56
1.58024e-59
-2.59219e-49
-2.86682e-46
-1.23459e-45
-2.52496e-45
-3.29157e-45
-3.06209e-45
-2.15437e-45
-1.07032e-45
-4.24881e-46
-1.40381e-46
-3.90201e-47
-9.15758e-48
-1.81786e-48
-3.05356e-49
-4.33514e-50
-5.1955e-51
-5.2412e-52
-4.43851e-53
-3.14461e-54
-1.85841e-55
-9.12832e-57
-3.71364e-58
-1.24648e-59
-3.4343e-61
-7.72778e-63
-1.4107e-64
-2.07315e-66
-2.42929e-68
-2.24228e-70
-1.60611e-72
-8.75462e-75
-3.53823e-77
-1.02348e-79
-2.01529e-82
-2.50463e-85
-1.73805e-88
-5.35894e-92
-4.20804e-96
-1.7203e-58
1.20437e-59
3.7376e-64
1.94149e-59
7.4646e-58
1.69202e-56
2.38085e-55
3.76115e-54
3.62465e-53
2.32224e-52
1.42409e-51
6.88723e-51
2.26187e-50
5.22228e-50
8.97384e-50
9.42217e-50
7.24066e-50
3.95681e-50
1.37758e-50
2.80828e-51
2.48975e-52
1.86467e-54
-1.63685e-49
-3.38151e-46
-1.6996e-45
-3.88885e-45
-5.57123e-45
-5.63177e-45
-4.27006e-45
-2.13836e-45
-8.74758e-46
-3.03394e-46
-8.9202e-47
-2.21819e-47
-4.66309e-48
-8.28451e-49
-1.24227e-49
-1.57033e-50
-1.66865e-51
-1.48646e-52
-1.10623e-53
-6.857e-55
-3.52726e-56
-1.50048e-57
-5.25818e-59
-1.51022e-60
-3.53715e-62
-6.71072e-64
-1.02338e-65
-1.24246e-67
-1.18631e-69
-8.77562e-72
-4.93157e-74
-2.05109e-76
-6.09368e-79
-1.22973e-81
-1.56271e-84
-1.10598e-87
-3.46812e-91
-2.75979e-95
-1.30082e-80
8.83429e-57
1.77396e-57
7.92149e-56
2.99977e-54
6.76587e-53
9.55759e-52
1.46987e-50
1.42365e-49
9.47624e-49
5.80899e-48
2.84149e-47
9.48784e-47
2.19493e-46
3.77643e-46
3.98213e-46
3.07285e-46
1.69113e-46
5.93386e-47
1.21777e-47
1.08853e-48
2.21789e-50
3.32438e-54
-2.5607e-46
-1.82984e-45
-5.0281e-45
-8.22959e-45
-9.26218e-45
-7.6897e-45
-3.73182e-45
-1.57275e-45
-5.80687e-46
-1.83259e-46
-4.88721e-47
-1.09831e-47
-2.07878e-48
-3.3108e-49
-4.43361e-50
-4.98028e-51
-4.6809e-52
-3.66868e-53
-2.39049e-54
-1.29028e-55
-5.74895e-57
-2.1064e-58
-6.31471e-60
-1.54116e-61
-3.04182e-63
-4.81795e-65
-6.06549e-67
-5.99554e-69
-4.58377e-71
-2.65764e-73
-1.13836e-75
-3.47647e-78
-7.19717e-81
-9.36258e-84
-6.76791e-87
-2.16262e-90
-1.74889e-94
7.31185e-61
1.56407e-54
7.12983e-54
3.1677e-52
1.20981e-50
2.7285e-49
3.87459e-48
5.9784e-47
5.86185e-46
3.78956e-45
2.26788e-44
1.10532e-43
3.65119e-43
8.45338e-43
1.46935e-42
1.56546e-42
1.2209e-42
6.79257e-43
2.41979e-43
5.06764e-44
4.61352e-45
9.17612e-47
1.30418e-49
-1.40842e-63
-1.10388e-45
-4.75118e-45
-9.96886e-45
-1.31844e-44
-1.23399e-44
-5.24855e-45
-2.30397e-45
-9.42198e-46
-3.29094e-46
-9.6154e-47
-2.34531e-47
-4.78031e-48
-8.14912e-49
-1.16267e-49
-1.38675e-50
-1.38023e-51
-1.14282e-52
-7.84878e-54
-4.45533e-55
-2.08322e-56
-7.99374e-58
-2.50485e-59
-6.37808e-61
-1.31103e-62
-2.15884e-64
-2.8207e-66
-2.88874e-68
-2.28426e-70
-1.36743e-72
-6.03668e-75
-1.89656e-77
-4.03154e-80
-5.37447e-83
-3.97341e-86
-1.29606e-89
-1.06779e-93
3.50878e-57
3.9403e-51
2.76725e-50
1.25119e-48
4.74925e-47
1.07543e-45
1.5156e-44
2.27902e-43
2.23896e-42
1.45601e-41
9.06232e-41
4.357e-40
1.44336e-39
3.37759e-39
5.91103e-39
6.33603e-39
4.98622e-39
2.80546e-39
1.0076e-39
2.13859e-40
2.06918e-41
5.12209e-43
6.3238e-46
7.13855e-48
0
0
-8.0591e-45
-1.50962e-44
-1.70354e-44
-4.46185e-45
-2.20974e-45
-1.17551e-45
-4.90909e-46
-1.6395e-46
-4.45675e-47
-9.9506e-48
-1.83601e-48
-2.81201e-49
-3.58107e-50
-3.79147e-51
-3.32927e-52
-2.41797e-53
-1.44747e-54
-7.11887e-56
-2.86629e-57
-9.40305e-59
-2.50139e-60
-5.36105e-62
-9.18716e-64
-1.24693e-65
-1.32417e-67
-1.08381e-69
-6.70369e-72
-3.05234e-74
-9.87279e-77
-2.15671e-79
-2.94925e-82
-2.23269e-85
-7.44544e-89
-6.26257e-93
1.6442e-53
1.58997e-47
1.08652e-46
4.9184e-45
1.81674e-43
4.08773e-42
5.66546e-41
8.7782e-40
8.52588e-39
5.93925e-38
3.89039e-37
1.86971e-36
6.169e-36
1.45352e-35
2.54239e-35
2.72293e-35
2.16442e-35
1.23326e-35
4.48484e-36
9.68721e-37
9.84949e-38
2.11519e-39
3.05624e-42
3.62527e-44
5.61649e-46
3.59861e-48
8.39481e-71
-1.09231e-44
-1.86751e-44
3.96261e-45
1.08919e-46
-8.08591e-46
-5.38959e-46
-2.28465e-46
-7.30918e-47
-1.84149e-47
-3.74089e-48
-6.21404e-49
-8.50891e-50
-9.63782e-51
-9.01962e-52
-6.95689e-53
-4.40745e-54
-2.28655e-55
-9.68243e-57
-3.33168e-58
-9.27366e-60
-2.07505e-61
-3.70479e-63
-5.22844e-65
-5.76223e-67
-4.88555e-69
-3.12459e-71
-1.4684e-73
-4.89334e-76
-1.09937e-78
-1.54349e-81
-1.19777e-84
-4.08896e-88
-3.5177e-92
7.97214e-50
6.48688e-44
3.96439e-43
1.87249e-41
6.86532e-40
1.54577e-38
2.38607e-37
3.62472e-36
3.47906e-35
2.15192e-34
1.31438e-33
6.71481e-33
2.35403e-32
5.8251e-32
1.07055e-31
1.19376e-31
9.61652e-32
5.47532e-32
1.9994e-32
4.35664e-33
4.55441e-34
1.53767e-35
1.69786e-38
1.81074e-40
2.86918e-42
1.88358e-44
6.20224e-47
3.35792e-70
-1.25013e-44
3.2451e-43
5.91831e-44
5.82641e-46
-2.0643e-46
-2.17938e-46
-9.71966e-47
-2.94155e-47
-6.77065e-48
-1.23787e-48
-1.8391e-49
-2.24509e-50
-2.25452e-51
-1.85772e-52
-1.25163e-53
-6.87561e-55
-3.07105e-56
-1.11093e-57
-3.24143e-59
-7.58334e-61
-1.41232e-62
-2.07462e-64
-2.37502e-66
-2.08762e-68
-1.38155e-70
-6.70586e-73
-2.30394e-75
-5.32731e-78
-7.68529e-81
-6.11913e-84
-2.14093e-87
-1.88663e-91
3.35309e-46
1.04105e-39
1.74673e-39
6.86299e-38
2.79717e-36
6.16472e-35
8.16946e-34
1.28802e-32
1.39179e-31
1.16069e-30
1.09425e-29
8.6699e-29
4.03998e-28
1.19301e-27
2.42952e-27
2.81289e-27
2.23233e-27
1.20334e-27
3.93715e-28
7.27858e-29
6.65e-30
3.77674e-31
1.17772e-32
1.00954e-36
1.44188e-38
9.70669e-41
3.28589e-43
4.36303e-46
-1.28194e-54
2.25802e-42
2.94558e-42
2.78722e-43
1.90925e-45
1.04731e-48
-8.57774e-47
-3.82143e-47
-1.05618e-47
-2.17523e-48
-3.54969e-49
-4.71862e-50
-5.13599e-51
-4.56212e-52
-3.29257e-53
-1.92569e-54
-9.10906e-56
-3.47437e-57
-1.06501e-58
-2.60958e-60
-5.07666e-62
-7.77099e-64
-9.24985e-66
-8.43613e-68
-5.78124e-70
-2.90029e-72
-1.02802e-74
-2.4481e-77
-3.6315e-80
-2.96914e-83
-1.06571e-86
-9.6316e-91
2.62894e-42
4.32671e-36
7.46459e-36
2.64785e-34
9.6196e-33
2.47078e-31
5.36562e-30
1.75724e-28
3.00108e-27
2.85978e-26
1.89504e-25
8.58594e-25
2.59966e-24
5.59386e-24
9.25863e-24
1.01768e-23
8.65328e-24
5.56154e-24
2.50499e-24
7.43588e-25
1.29068e-25
1.19762e-26
5.37922e-28
6.25606e-30
8.56514e-33
4.92435e-37
1.71483e-39
2.34864e-42
1.43863e-45
4.22012e-42
2.29151e-41
1.13174e-41
8.50493e-43
5.41564e-45
1.89745e-48
-3.36558e-47
-1.33407e-47
-3.24076e-48
-5.92189e-49
-8.71054e-50
-1.04497e-50
-1.01574e-51
-7.94514e-53
-4.98903e-54
-2.51385e-55
-1.01507e-56
-3.27822e-58
-8.43071e-60
-1.71595e-61
-2.74062e-63
-3.39541e-65
-3.21594e-67
-2.28391e-69
-1.18503e-71
-4.33618e-74
-1.06414e-76
-1.6242e-79
-1.3646e-82
-5.02871e-86
-4.66575e-90
3.16233e-36
1.32427e-33
2.00108e-32
1.22737e-30
1.1377e-28
5.41196e-27
1.11995e-25
1.49126e-24
1.12283e-23
5.46786e-23
1.86869e-22
4.7718e-22
9.54228e-22
1.52967e-21
2.08362e-21
2.1783e-21
1.9633e-21
1.47711e-21
8.89997e-22
4.12442e-22
1.37362e-22
2.91727e-23
3.20566e-24
1.29539e-25
1.64731e-27
2.90975e-30
8.81491e-36
1.24622e-38
7.90212e-42
4.2236e-42
4.56171e-41
8.83791e-41
3.10905e-41
1.49135e-42
2.01567e-45
-2.90922e-58
-1.11837e-47
-3.74788e-48
-8.01291e-49
-1.34432e-49
-1.83412e-50
-2.00449e-51
-1.73342e-52
-1.1844e-53
-6.41292e-55
-2.75704e-56
-9.41691e-58
-2.54854e-59
-5.43755e-61
-9.07468e-63
-1.17155e-64
-1.15344e-66
-8.49585e-69
-4.56236e-71
-1.72445e-73
-4.36371e-76
-6.8569e-79
-5.92342e-82
-2.2426e-85
-2.13773e-89
1.3997e-32
5.54617e-31
2.62056e-28
2.96406e-26
1.13499e-24
1.78126e-23
1.43919e-22
7.23612e-22
2.55025e-21
6.82778e-21
1.4584e-20
2.5808e-20
3.90411e-20
5.14643e-20
6.13604e-20
6.22238e-20
5.81774e-20
4.86121e-20
3.54507e-20
2.19698e-20
1.10505e-20
4.16943e-21
1.03825e-21
1.39162e-22
7.20175e-24
7.98505e-26
1.58469e-28
6.51784e-35
4.28208e-38
2.17103e-41
4.24097e-41
1.82785e-40
1.84043e-40
3.88277e-41
3.04018e-43
1.75794e-46
8.41237e-51
-2.52066e-48
-7.58361e-49
-1.57052e-49
-2.61293e-50
-3.38576e-51
-3.35108e-52
-2.54515e-53
-1.50017e-54
-6.92204e-56
-2.51323e-57
-7.18191e-59
-1.61005e-60
-2.81253e-62
-3.78864e-64
-3.88138e-66
-2.96756e-68
-1.65051e-70
-6.44804e-73
-1.68337e-75
-2.72458e-78
-2.42123e-81
-9.4225e-85
-9.23309e-89
1.50068e-28
1.46891e-26
2.34835e-24
6.38583e-23
6.53598e-22
3.64464e-21
1.33197e-20
3.57498e-20
7.5975e-20
1.34908e-19
2.0744e-19
2.84021e-19
3.54221e-19
4.08197e-19
4.43699e-19
4.42189e-19
4.22204e-19
3.78171e-19
3.13779e-19
2.37154e-19
1.58506e-19
8.89881e-20
3.85149e-20
1.11756e-20
1.73692e-21
1.01269e-22
1.24472e-24
1.89304e-27
1.15282e-31
9.72586e-38
7.01509e-41
1.71241e-40
3.22566e-40
1.77967e-40
1.68587e-41
2.1278e-43
2.59317e-46
2.11854e-50
-2.45177e-49
-1.06784e-49
-2.68932e-50
-4.65209e-51
-5.60204e-52
-4.88449e-53
-3.19071e-54
-1.59672e-55
-6.20213e-57
-1.87916e-58
-4.43882e-60
-8.13238e-62
-1.14473e-63
-1.2217e-65
-9.70451e-68
-5.59423e-70
-2.26026e-72
-6.0908e-75
-1.01586e-77
-9.29047e-81
-3.71775e-84
-3.74628e-88
1.69784e-24
5.1691e-23
1.17511e-21
8.7942e-21
3.624e-20
1.00969e-19
2.13348e-19
3.7061e-19
5.5729e-19
7.52057e-19
9.33554e-19
1.08606e-18
1.20111e-18
1.27442e-18
1.30841e-18
1.29247e-18
1.24488e-18
1.1601e-18
1.03908e-18
8.86077e-19
7.07428e-19
5.13224e-19
3.21097e-19
1.5832e-19
5.27371e-20
9.16568e-21
5.51394e-22
6.37629e-24
7.70563e-27
1.39251e-30
1.50407e-37
2.02588e-40
2.66105e-40
2.76609e-40
1.89547e-39
1.84882e-40
2.13758e-42
3.18963e-45
1.56575e-48
6.49776e-52
-1.47706e-50
-4.85028e-51
-7.92833e-52
-8.29261e-53
-6.13215e-54
-3.36709e-55
-1.40905e-56
-4.54704e-58
-1.13522e-59
-2.18617e-61
-3.2209e-63
-3.58543e-65
-2.96183e-67
-1.77094e-69
-7.40436e-72
-2.06051e-74
-3.54276e-77
-3.33538e-80
-1.37281e-83
-1.42283e-87
1.06295e-21
9.99356e-21
5.68832e-20
1.81871e-19
4.03177e-19
7.02215e-19
1.03679e-18
1.36883e-18
1.66843e-18
1.91713e-18
2.10728e-18
2.24025e-18
2.32103e-18
2.35483e-18
2.34638e-18
2.30152e-18
2.22139e-18
2.10785e-18
1.9606e-18
1.77902e-18
1.56187e-18
1.30703e-18
1.0142e-18
6.93618e-19
3.80655e-19
1.41007e-19
2.59674e-20
1.46602e-21
1.37009e-23
1.51218e-26
4.1249e-30
1.09852e-37
2.89824e-40
2.76613e-40
2.79774e-38
9.80963e-39
6.86656e-40
4.23338e-42
4.27963e-45
3.07599e-48
1.74138e-51
-3.38559e-51
-9.43537e-52
-1.24783e-52
-1.06495e-53
-6.47849e-55
-2.93816e-56
-1.01398e-57
-2.68364e-59
-5.44442e-61
-8.41002e-63
-9.77765e-65
-8.40828e-67
-5.21876e-69
-2.25932e-71
-6.49582e-74
-1.15173e-76
-1.11648e-79
-4.72716e-83
-5.03943e-87
5.86319e-20
2.0729e-19
5.49572e-19
1.02683e-18
1.54595e-18
2.03313e-18
2.44751e-18
2.78175e-18
3.03421e-18
3.21016e-18
3.31967e-18
3.37559e-18
3.38701e-18
3.36045e-18
3.3021e-18
3.21418e-18
3.09845e-18
2.95719e-18
2.79122e-18
2.60039e-18
2.38288e-18
2.1339e-18
1.84409e-18
1.50033e-18
1.09399e-18
6.47264e-19
2.54562e-19
4.60298e-20
2.172e-21
1.45345e-23
1.44664e-26
4.78413e-30
2.3261e-35
2.92365e-40
6.92015e-38
8.97583e-38
1.83893e-38
3.10283e-40
5.12724e-43
4.15851e-46
2.86652e-49
8.41212e-53
-9.32272e-52
-1.68626e-52
-1.68244e-53
-1.139e-54
-5.61539e-56
-2.07804e-57
-5.84425e-59
-1.25162e-60
-2.03051e-62
-2.46891e-64
-2.21253e-66
-1.42665e-68
-6.39904e-71
-1.90161e-73
-3.47782e-76
-3.47193e-79
-1.51221e-82
-1.65797e-86
6.05254e-19
1.1804e-18
1.9401e-18
2.64124e-18
3.21118e-18
3.64588e-18
3.96331e-18
4.18837e-18
4.33137e-18
4.40832e-18
4.43302e-18
4.41736e-18
4.36834e-18
4.28795e-18
4.17882e-18
4.04365e-18
3.88492e-18
3.7051e-18
3.50666e-18
3.29146e-18
3.06073e-18
2.81352e-18
2.54459e-18
2.24099e-18
1.87886e-18
1.42686e-18
8.78852e-19
3.46045e-19
5.56175e-20
1.91559e-21
8.40117e-24
7.75072e-27
3.59741e-30
5.51562e-34
6.92079e-38
2.12117e-37
7.48015e-38
2.83902e-39
8.65996e-42
8.15552e-45
5.93861e-48
3.35366e-51
-8.1862e-52
-2.09188e-52
-2.43595e-53
-1.83215e-54
-9.82043e-56
-3.90221e-57
-1.16834e-58
-2.64631e-60
-4.51631e-62
-5.75104e-64
-5.37676e-66
-3.60475e-68
-1.67616e-70
-5.15044e-73
-9.71833e-76
-9.99172e-79
-4.47638e-82
-5.04611e-86
2.19948e-18
3.03916e-18
3.85755e-18
4.46864e-18
4.89843e-18
5.19443e-18
5.39368e-18
5.51742e-18
5.57176e-18
5.57796e-18
5.54626e-18
5.48143e-18
5.38314e-18
5.25297e-18
5.09275e-18
4.90504e-18
4.69277e-18
4.45929e-18
4.20833e-18
3.9439e-18
3.67021e-18
3.39086e-18
3.10746e-18
2.8163e-18
2.5029e-18
2.13407e-18
1.65362e-18
1.02109e-18
3.7399e-19
4.71585e-20
1.02735e-21
2.86389e-24
2.54833e-27
1.46568e-30
8.52113e-38
1.86567e-37
1.0154e-37
6.94677e-39
3.99898e-41
4.42615e-44
3.32802e-47
2.01337e-50
-4.06854e-52
-2.38782e-52
-3.22729e-53
-2.68355e-54
-1.56349e-55
-6.68214e-57
-2.13462e-58
-5.12462e-60
-9.21785e-62
-1.23115e-63
-1.20221e-65
-8.38744e-68
-4.04541e-70
-1.28576e-72
-2.50339e-75
-2.65056e-78
-1.22114e-81
-1.41471e-85
4.4116e-18
5.14339e-18
5.77905e-18
6.22131e-18
6.51928e-18
6.72005e-18
6.84804e-18
6.90896e-18
6.91012e-18
6.87782e-18
6.80913e-18
6.70175e-18
6.55552e-18
6.37221e-18
6.15396e-18
5.90396e-18
5.62562e-18
5.32303e-18
5.00086e-18
4.66436e-18
4.31973e-18
3.97371e-18
3.63323e-18
3.30354e-18
2.98364e-18
2.65782e-18
2.28161e-18
1.76819e-18
1.04598e-18
3.23822e-19
2.75925e-20
3.33889e-22
6.22892e-25
5.5199e-28
5.80767e-37
6.3352e-38
6.33285e-38
8.24976e-39
9.00093e-41
1.25113e-43
9.55592e-47
5.87741e-50
1.22878e-53
-2.377e-52
-3.81534e-53
-3.5266e-54
-2.24398e-55
-1.0362e-56
-3.54548e-58
-9.04947e-60
-1.71964e-61
-2.41323e-63
-2.46435e-65
-1.79068e-67
-8.96336e-70
-2.94743e-72
-5.92161e-75
-6.45545e-78
-3.05715e-81
-3.63754e-85
6.62323e-18
7.17754e-18
7.66146e-18
8.00617e-18
8.24476e-18
8.40894e-18
8.50185e-18
8.52315e-18
8.49756e-18
8.43504e-18
8.32641e-18
8.16954e-18
7.96537e-18
7.71704e-18
7.42784e-18
7.10192e-18
6.74331e-18
6.35675e-18
5.94755e-18
5.52173e-18
5.0863e-18
4.64919e-18
4.21965e-18
3.80812e-18
3.42442e-18
3.07125e-18
2.73058e-18
2.33933e-18
1.76961e-18
9.41914e-19
2.17056e-19
1.05943e-20
6.57266e-23
9.25763e-26
1.20906e-34
1.96737e-36
2.75392e-39
2.75025e-39
1.14314e-40
3.33285e-43
3.39966e-46
2.12133e-49
8.89812e-53
-1.95473e-52
-3.86107e-53
-4.06951e-54
-2.87049e-55
-1.44556e-56
-5.33005e-58
-1.45226e-59
-2.92341e-61
-4.31843e-63
-4.61726e-65
-3.49687e-67
-1.81723e-69
-6.18283e-72
-1.28153e-74
-1.43784e-77
-6.99493e-81
-8.54042e-85
8.80459e-18
9.28111e-18
9.71831e-18
1.00433e-17
1.02731e-17
1.0425e-17
1.04876e-17
1.04789e-17
1.04291e-17
1.03247e-17
1.01616e-17
9.93945e-18
9.66142e-18
9.33175e-18
8.95478e-18
8.53551e-18
8.07894e-18
7.59079e-18
7.07737e-18
6.54565e-18
6.00345e-18
5.45927e-18
4.92261e-18
4.40446e-18
3.91818e-18
3.4786e-18
3.09333e-18
2.73794e-18
2.31533e-18
1.64818e-18
7.19052e-19
1.04855e-19
2.49846e-21
8.12508e-24