/*--------------------------------*- C++ -*----------------------------------*\
| =========                 |                                                 |
| \\      /  F ield         | OpenFOAM: The Open Source CFD Toolbox           |
|  \\    /   O peration     | Version:  v2012                                 |
|   \\  /    A nd           | Website:  www.openfoam.com                      |
|    \\/     M anipulation  |                                                 |
\*---------------------------------------------------------------------------*/
FoamFile
{
    version     2.0;
    format      ascii;
    class       volScalarField;
    location    "0.7";
    object      p;
}
// * * * * * * * * * * * * * * * * * * * * * * * * * * * * * * * * * * * * * //

dimensions      [1 -1 -2 0 0 0 0];


internalField   nonuniform List<scalar> 
15860
(
3.09534e+06
3.10252e+06
3.10415e+06
3.10208e+06
3.1011e+06
3.10071e+06
3.1005e+06
3.10038e+06
3.1003e+06
3.10013e+06
3.10003e+06
3.1e+06
3.1e+06
3.09999e+06
3.09999e+06
3.09999e+06
3.09999e+06
3.09999e+06
3.09999e+06
3.09999e+06
3.09999e+06
3.09999e+06
3.09999e+06
3.09999e+06
3.09999e+06
3.09999e+06
3.09999e+06
3.09999e+06
3.09999e+06
3.09999e+06
3.1e+06
3.1e+06
3.1e+06
3.1e+06
3.1e+06
3.1e+06
3.1e+06
3.1e+06
3.1e+06
3.1e+06
3.1e+06
3.1e+06
3.1e+06
3.1e+06
3.1e+06
3.1e+06
3.1e+06
3.1e+06
3.1e+06
3.1e+06
3.1e+06
3.1e+06
3.1e+06
3.1e+06
3.1e+06
3.1e+06
3.1e+06
3.1e+06
3.1e+06
3.1e+06
3.11774e+06
3.11496e+06
3.10892e+06
3.10537e+06
3.10285e+06
3.10154e+06
3.10112e+06
3.10066e+06
3.10051e+06
3.10036e+06
3.10022e+06
3.10013e+06
3.10009e+06
3.10005e+06
3.10003e+06
3.10002e+06
3.10001e+06
3.1e+06
3.09999e+06
3.09999e+06
3.09999e+06
3.09999e+06
3.09999e+06
3.09999e+06
3.09999e+06
3.09999e+06
3.09999e+06
3.09999e+06
3.09999e+06
3.09999e+06
3.09999e+06
3.09999e+06
3.09999e+06
3.1e+06
3.1e+06
3.1e+06
3.1e+06
3.1e+06
3.1e+06
3.1e+06
3.1e+06
3.1e+06
3.1e+06
3.1e+06
3.1e+06
3.1e+06
3.1e+06
3.1e+06
3.1e+06
3.1e+06
3.1e+06
3.1e+06
3.1e+06
3.1e+06
3.1e+06
3.1e+06
3.1e+06
3.1e+06
3.1e+06
3.1e+06
3.13566e+06
3.12428e+06
3.1133e+06
3.10743e+06
3.10371e+06
3.10274e+06
3.10174e+06
3.10098e+06
3.10075e+06
3.10047e+06
3.10036e+06
3.10024e+06
3.10013e+06
3.10007e+06
3.10005e+06
3.10003e+06
3.10001e+06
3.09999e+06
3.09999e+06
3.09998e+06
3.09998e+06
3.09998e+06
3.09998e+06
3.09998e+06
3.09998e+06
3.09998e+06
3.09999e+06
3.09999e+06
3.09999e+06
3.09999e+06
3.09999e+06
3.09999e+06
3.09999e+06
3.09999e+06
3.09999e+06
3.1e+06
3.1e+06
3.1e+06
3.1e+06
3.1e+06
3.1e+06
3.1e+06
3.1e+06
3.1e+06
3.1e+06
3.1e+06
3.1e+06
3.1e+06
3.1e+06
3.1e+06
3.1e+06
3.1e+06
3.1e+06
3.1e+06
3.1e+06
3.1e+06
3.1e+06
3.1e+06
3.1e+06
3.1e+06
3.14221e+06
3.13229e+06
3.11922e+06
3.11139e+06
3.10634e+06
3.10431e+06
3.10267e+06
3.10162e+06
3.10125e+06
3.1008e+06
3.1006e+06
3.10038e+06
3.10022e+06
3.10013e+06
3.10008e+06
3.10005e+06
3.10002e+06
3.1e+06
3.09999e+06
3.09998e+06
3.09998e+06
3.09998e+06
3.09998e+06
3.09998e+06
3.09998e+06
3.09998e+06
3.09998e+06
3.09998e+06
3.09998e+06
3.09999e+06
3.09999e+06
3.09999e+06
3.09999e+06
3.09999e+06
3.09999e+06
3.09999e+06
3.09999e+06
3.09999e+06
3.1e+06
3.1e+06
3.1e+06
3.1e+06
3.1e+06
3.1e+06
3.1e+06
3.1e+06
3.1e+06
3.1e+06
3.1e+06
3.1e+06
3.1e+06
3.1e+06
3.1e+06
3.1e+06
3.1e+06
3.1e+06
3.1e+06
3.1e+06
3.1e+06
3.1e+06
3.1559e+06
3.14107e+06
3.1253e+06
3.11606e+06
3.10976e+06
3.10652e+06
3.10412e+06
3.10247e+06
3.10172e+06
3.10101e+06
3.10073e+06
3.10043e+06
3.10024e+06
3.10013e+06
3.10009e+06
3.10004e+06
3.10001e+06
3.09999e+06
3.09998e+06
3.09997e+06
3.09997e+06
3.09997e+06
3.09997e+06
3.09997e+06
3.09997e+06
3.09997e+06
3.09998e+06
3.09998e+06
3.09998e+06
3.09998e+06
3.09998e+06
3.09999e+06
3.09999e+06
3.09999e+06
3.09999e+06
3.09999e+06
3.09999e+06
3.09999e+06
3.09999e+06
3.1e+06
3.1e+06
3.1e+06
3.1e+06
3.1e+06
3.1e+06
3.1e+06
3.1e+06
3.1e+06
3.1e+06
3.1e+06
3.1e+06
3.1e+06
3.1e+06
3.1e+06
3.1e+06
3.1e+06
3.1e+06
3.1e+06
3.1e+06
3.1e+06
3.15176e+06
3.13851e+06
3.12547e+06
3.11737e+06
3.11111e+06
3.10746e+06
3.10459e+06
3.10275e+06
3.10187e+06
3.10118e+06
3.10081e+06
3.10048e+06
3.10029e+06
3.10015e+06
3.1001e+06
3.10005e+06
3.10001e+06
3.09999e+06
3.09997e+06
3.09997e+06
3.09996e+06
3.09996e+06
3.09996e+06
3.09997e+06
3.09997e+06
3.09997e+06
3.09997e+06
3.09997e+06
3.09998e+06
3.09998e+06
3.09998e+06
3.09998e+06
3.09999e+06
3.09999e+06
3.09999e+06
3.09999e+06
3.09999e+06
3.09999e+06
3.09999e+06
3.09999e+06
3.1e+06
3.1e+06
3.1e+06
3.1e+06
3.1e+06
3.1e+06
3.1e+06
3.1e+06
3.1e+06
3.1e+06
3.1e+06
3.1e+06
3.1e+06
3.1e+06
3.1e+06
3.1e+06
3.1e+06
3.1e+06
3.1e+06
3.1e+06
3.15318e+06
3.14109e+06
3.12869e+06
3.11922e+06
3.11364e+06
3.10862e+06
3.10516e+06
3.10338e+06
3.10187e+06
3.10142e+06
3.10086e+06
3.10042e+06
3.10028e+06
3.10012e+06
3.10008e+06
3.10003e+06
3.09999e+06
3.09997e+06
3.09996e+06
3.09995e+06
3.09995e+06
3.09996e+06
3.09996e+06
3.09996e+06
3.09996e+06
3.09996e+06
3.09997e+06
3.09997e+06
3.09997e+06
3.09998e+06
3.09998e+06
3.09998e+06
3.09998e+06
3.09999e+06
3.09999e+06
3.09999e+06
3.09999e+06
3.09999e+06
3.09999e+06
3.09999e+06
3.09999e+06
3.09999e+06
3.1e+06
3.1e+06
3.1e+06
3.1e+06
3.1e+06
3.1e+06
3.1e+06
3.1e+06
3.1e+06
3.1e+06
3.1e+06
3.1e+06
3.1e+06
3.1e+06
3.1e+06
3.1e+06
3.1e+06
3.1e+06
3.16665e+06
3.14433e+06
3.12874e+06
3.11876e+06
3.11294e+06
3.10775e+06
3.10439e+06
3.10292e+06
3.10154e+06
3.10125e+06
3.10071e+06
3.10033e+06
3.10024e+06
3.10008e+06
3.10004e+06
3.1e+06
3.09997e+06
3.09995e+06
3.09994e+06
3.09994e+06
3.09994e+06
3.09995e+06
3.09995e+06
3.09995e+06
3.09996e+06
3.09996e+06
3.09996e+06
3.09997e+06
3.09997e+06
3.09997e+06
3.09998e+06
3.09998e+06
3.09998e+06
3.09998e+06
3.09999e+06
3.09999e+06
3.09999e+06
3.09999e+06
3.09999e+06
3.09999e+06
3.09999e+06
3.09999e+06
3.09999e+06
3.1e+06
3.1e+06
3.1e+06
3.1e+06
3.1e+06
3.1e+06
3.1e+06
3.1e+06
3.1e+06
3.1e+06
3.1e+06
3.1e+06
3.1e+06
3.1e+06
3.1e+06
3.1e+06
3.1e+06
3.1716e+06
3.13168e+06
3.11563e+06
3.11242e+06
3.11043e+06
3.10672e+06
3.1037e+06
3.10259e+06
3.10118e+06
3.10101e+06
3.10053e+06
3.10017e+06
3.10014e+06
3.1e+06
3.09998e+06
3.09995e+06
3.09993e+06
3.09992e+06
3.09992e+06
3.09992e+06
3.09993e+06
3.09994e+06
3.09994e+06
3.09995e+06
3.09995e+06
3.09995e+06
3.09996e+06
3.09996e+06
3.09997e+06
3.09997e+06
3.09998e+06
3.09998e+06
3.09998e+06
3.09998e+06
3.09999e+06
3.09999e+06
3.09999e+06
3.09999e+06
3.09999e+06
3.09999e+06
3.09999e+06
3.09999e+06
3.09999e+06
3.1e+06
3.1e+06
3.1e+06
3.1e+06
3.1e+06
3.1e+06
3.1e+06
3.1e+06
3.1e+06
3.1e+06
3.1e+06
3.1e+06
3.1e+06
3.1e+06
3.1e+06
3.1e+06
3.1e+06
3.08583e+06
3.09184e+06
3.09943e+06
3.10173e+06
3.10469e+06
3.10373e+06
3.10178e+06
3.1016e+06
3.10053e+06
3.10058e+06
3.10025e+06
3.09997e+06
3.10001e+06
3.0999e+06
3.0999e+06
3.09989e+06
3.09989e+06
3.09989e+06
3.0999e+06
3.09991e+06
3.09992e+06
3.09992e+06
3.09993e+06
3.09994e+06
3.09994e+06
3.09995e+06
3.09996e+06
3.09996e+06
3.09997e+06
3.09997e+06
3.09997e+06
3.09998e+06
3.09998e+06
3.09998e+06
3.09998e+06
3.09999e+06
3.09999e+06
3.09999e+06
3.09999e+06
3.09999e+06
3.09999e+06
3.09999e+06
3.09999e+06
3.09999e+06
3.1e+06
3.1e+06
3.1e+06
3.1e+06
3.1e+06
3.1e+06
3.1e+06
3.1e+06
3.1e+06
3.1e+06
3.1e+06
3.1e+06
3.1e+06
3.1e+06
3.1e+06
3.1e+06
3.02578e+06
3.05742e+06
3.08318e+06
3.09454e+06
3.10136e+06
3.09978e+06
3.09982e+06
3.10039e+06
3.09955e+06
3.1e+06
3.09983e+06
3.0997e+06
3.09982e+06
3.09977e+06
3.09981e+06
3.09983e+06
3.09984e+06
3.09986e+06
3.09987e+06
3.09989e+06
3.0999e+06
3.09991e+06
3.09992e+06
3.09993e+06
3.09994e+06
3.09995e+06
3.09995e+06
3.09996e+06
3.09996e+06
3.09997e+06
3.09997e+06
3.09997e+06
3.09998e+06
3.09998e+06
3.09998e+06
3.09998e+06
3.09999e+06
3.09999e+06
3.09999e+06
3.09999e+06
3.09999e+06
3.09999e+06
3.09999e+06
3.09999e+06
3.09999e+06
3.1e+06
3.1e+06
3.1e+06
3.1e+06
3.1e+06
3.1e+06
3.1e+06
3.1e+06
3.1e+06
3.1e+06
3.1e+06
3.1e+06
3.1e+06
3.1e+06
3.1e+06
3.00217e+06
3.03279e+06
3.06589e+06
3.08382e+06
3.09496e+06
3.09625e+06
3.09766e+06
3.09898e+06
3.09839e+06
3.09917e+06
3.09925e+06
3.09931e+06
3.09955e+06
3.0996e+06
3.09969e+06
3.09975e+06
3.09979e+06
3.09982e+06
3.09985e+06
3.09987e+06
3.09989e+06
3.0999e+06
3.09992e+06
3.09993e+06
3.09993e+06
3.09994e+06
3.09995e+06
3.09996e+06
3.09996e+06
3.09997e+06
3.09997e+06
3.09997e+06
3.09998e+06
3.09998e+06
3.09998e+06
3.09998e+06
3.09999e+06
3.09999e+06
3.09999e+06
3.09999e+06
3.09999e+06
3.09999e+06
3.09999e+06
3.09999e+06
3.09999e+06
3.09999e+06
3.1e+06
3.1e+06
3.1e+06
3.1e+06
3.1e+06
3.1e+06
3.1e+06
3.1e+06
3.1e+06
3.1e+06
3.1e+06
3.1e+06
3.1e+06
3.1e+06
2.96565e+06
3.00921e+06
3.04984e+06
3.07191e+06
3.08648e+06
3.09043e+06
3.09371e+06
3.09664e+06
3.09704e+06
3.09845e+06
3.09878e+06
3.09908e+06
3.09937e+06
3.09948e+06
3.0996e+06
3.09968e+06
3.09974e+06
3.09979e+06
3.09982e+06
3.09985e+06
3.09987e+06
3.09989e+06
3.09991e+06
3.09992e+06
3.09993e+06
3.09994e+06
3.09995e+06
3.09995e+06
3.09996e+06
3.09996e+06
3.09997e+06
3.09997e+06
3.09998e+06
3.09998e+06
3.09998e+06
3.09998e+06
3.09998e+06
3.09999e+06
3.09999e+06
3.09999e+06
3.09999e+06
3.09999e+06
3.09999e+06
3.09999e+06
3.09999e+06
3.09999e+06
3.09999e+06
3.1e+06
3.1e+06
3.1e+06
3.1e+06
3.1e+06
3.1e+06
3.1e+06
3.1e+06
3.1e+06
3.1e+06
3.1e+06
3.1e+06
3.1e+06
2.97994e+06
3.01877e+06
3.05118e+06
3.06919e+06
3.08344e+06
3.08845e+06
3.09276e+06
3.09595e+06
3.09657e+06
3.09788e+06
3.0984e+06
3.09879e+06
3.09912e+06
3.09933e+06
3.0995e+06
3.09962e+06
3.0997e+06
3.09976e+06
3.0998e+06
3.09984e+06
3.09986e+06
3.09989e+06
3.0999e+06
3.09992e+06
3.09993e+06
3.09994e+06
3.09994e+06
3.09995e+06
3.09996e+06
3.09996e+06
3.09997e+06
3.09997e+06
3.09997e+06
3.09998e+06
3.09998e+06
3.09998e+06
3.09998e+06
3.09999e+06
3.09999e+06
3.09999e+06
3.09999e+06
3.09999e+06
3.09999e+06
3.09999e+06
3.09999e+06
3.09999e+06
3.09999e+06
3.09999e+06
3.1e+06
3.1e+06
3.1e+06
3.1e+06
3.1e+06
3.1e+06
3.1e+06
3.1e+06
3.1e+06
3.1e+06
3.1e+06
3.1e+06
3.01233e+06
3.03165e+06
3.05186e+06
3.06815e+06
3.07749e+06
3.08534e+06
3.09069e+06
3.09368e+06
3.09613e+06
3.09697e+06
3.09797e+06
3.0987e+06
3.09896e+06
3.09926e+06
3.09945e+06
3.09959e+06
3.09968e+06
3.09974e+06
3.09979e+06
3.09983e+06
3.09986e+06
3.09988e+06
3.0999e+06
3.09991e+06
3.09993e+06
3.09994e+06
3.09994e+06
3.09995e+06
3.09996e+06
3.09996e+06
3.09997e+06
3.09997e+06
3.09997e+06
3.09998e+06
3.09998e+06
3.09998e+06
3.09998e+06
3.09999e+06
3.09999e+06
3.09999e+06
3.09999e+06
3.09999e+06
3.09999e+06
3.09999e+06
3.09999e+06
3.09999e+06
3.09999e+06
3.09999e+06
3.1e+06
3.1e+06
3.1e+06
3.1e+06
3.1e+06
3.1e+06
3.1e+06
3.1e+06
3.1e+06
3.1e+06
3.1e+06
3.1e+06
3.00606e+06
3.03353e+06
3.05313e+06
3.06765e+06
3.07696e+06
3.08566e+06
3.09135e+06
3.09393e+06
3.0963e+06
3.09686e+06
3.0979e+06
3.09861e+06
3.09884e+06
3.0992e+06
3.09941e+06
3.09956e+06
3.09966e+06
3.09973e+06
3.09979e+06
3.09983e+06
3.09986e+06
3.09988e+06
3.0999e+06
3.09991e+06
3.09993e+06
3.09994e+06
3.09994e+06
3.09995e+06
3.09996e+06
3.09996e+06
3.09997e+06
3.09997e+06
3.09997e+06
3.09998e+06
3.09998e+06
3.09998e+06
3.09998e+06
3.09998e+06
3.09999e+06
3.09999e+06
3.09999e+06
3.09999e+06
3.09999e+06
3.09999e+06
3.09999e+06
3.09999e+06
3.09999e+06
3.09999e+06
3.09999e+06
3.1e+06
3.1e+06
3.1e+06
3.1e+06
3.1e+06
3.1e+06
3.1e+06
3.1e+06
3.1e+06
3.1e+06
3.1e+06
2.98319e+06
3.03656e+06
3.06154e+06
3.07074e+06
3.07678e+06
3.08438e+06
3.09047e+06
3.09329e+06
3.09614e+06
3.0968e+06
3.09787e+06
3.09867e+06
3.09885e+06
3.09921e+06
3.09942e+06
3.09957e+06
3.09967e+06
3.09974e+06
3.09979e+06
3.09983e+06
3.09986e+06
3.09988e+06
3.0999e+06
3.09992e+06
3.09993e+06
3.09994e+06
3.09994e+06
3.09995e+06
3.09996e+06
3.09996e+06
3.09997e+06
3.09997e+06
3.09997e+06
3.09998e+06
3.09998e+06
3.09998e+06
3.09998e+06
3.09998e+06
3.09999e+06
3.09999e+06
3.09999e+06
3.09999e+06
3.09999e+06
3.09999e+06
3.09999e+06
3.09999e+06
3.09999e+06
3.09999e+06
3.09999e+06
3.09999e+06
3.1e+06
3.1e+06
3.1e+06
3.1e+06
3.1e+06
3.1e+06
3.1e+06
3.1e+06
3.1e+06
3.1e+06
3.06847e+06
3.07309e+06
3.07475e+06
3.07924e+06
3.08113e+06
3.08658e+06
3.09178e+06
3.09377e+06
3.09637e+06
3.09693e+06
3.09792e+06
3.09872e+06
3.09888e+06
3.09925e+06
3.09945e+06
3.09959e+06
3.09969e+06
3.09976e+06
3.0998e+06
3.09984e+06
3.09987e+06
3.09989e+06
3.09991e+06
3.09992e+06
3.09993e+06
3.09994e+06
3.09995e+06
3.09995e+06
3.09996e+06
3.09996e+06
3.09997e+06
3.09997e+06
3.09997e+06
3.09998e+06
3.09998e+06
3.09998e+06
3.09998e+06
3.09998e+06
3.09999e+06
3.09999e+06
3.09999e+06
3.09999e+06
3.09999e+06
3.09999e+06
3.09999e+06
3.09999e+06
3.09999e+06
3.09999e+06
3.09999e+06
3.09999e+06
3.09999e+06
3.1e+06
3.1e+06
3.1e+06
3.1e+06
3.1e+06
3.1e+06
3.1e+06
3.1e+06
3.1e+06
3.13757e+06
3.11143e+06
3.09221e+06
3.08669e+06
3.08438e+06
3.0906e+06
3.0938e+06
3.09498e+06
3.09725e+06
3.0974e+06
3.09824e+06
3.09892e+06
3.09902e+06
3.09936e+06
3.09953e+06
3.09965e+06
3.09973e+06
3.09979e+06
3.09983e+06
3.09986e+06
3.09988e+06
3.0999e+06
3.09991e+06
3.09992e+06
3.09993e+06
3.09994e+06
3.09995e+06
3.09995e+06
3.09996e+06
3.09996e+06
3.09997e+06
3.09997e+06
3.09997e+06
3.09998e+06
3.09998e+06
3.09998e+06
3.09998e+06
3.09998e+06
3.09999e+06
3.09999e+06
3.09999e+06
3.09999e+06
3.09999e+06
3.09999e+06
3.09999e+06
3.09999e+06
3.09999e+06
3.09999e+06
3.09999e+06
3.09999e+06
3.09999e+06
3.09999e+06
3.09999e+06
3.1e+06
3.1e+06
3.1e+06
3.1e+06
3.1e+06
3.1e+06
3.1e+06
3.16498e+06
3.1389e+06
3.111e+06
3.0978e+06
3.09066e+06
3.09392e+06
3.09578e+06
3.09628e+06
3.09833e+06
3.0982e+06
3.09881e+06
3.0993e+06
3.09929e+06
3.09954e+06
3.09965e+06
3.09973e+06
3.09979e+06
3.09983e+06
3.09986e+06
3.09988e+06
3.0999e+06
3.09991e+06
3.09992e+06
3.09993e+06
3.09994e+06
3.09995e+06
3.09995e+06
3.09996e+06
3.09996e+06
3.09996e+06
3.09997e+06
3.09997e+06
3.09997e+06
3.09998e+06
3.09998e+06
3.09998e+06
3.09998e+06
3.09998e+06
3.09998e+06
3.09999e+06
3.09999e+06
3.09999e+06
3.09999e+06
3.09999e+06
3.09999e+06
3.09999e+06
3.09999e+06
3.09999e+06
3.09999e+06
3.09999e+06
3.09999e+06
3.09999e+06
3.09999e+06
3.09999e+06
3.1e+06
3.1e+06
3.1e+06
3.1e+06
3.1e+06
3.1e+06
3.2054e+06
3.16561e+06
3.12903e+06
3.11056e+06
3.09981e+06
3.10001e+06
3.09989e+06
3.09875e+06
3.09972e+06
3.09897e+06
3.09933e+06
3.09958e+06
3.09952e+06
3.0997e+06
3.09977e+06
3.09982e+06
3.09985e+06
3.09988e+06
3.09989e+06
3.09991e+06
3.09992e+06
3.09993e+06
3.09993e+06
3.09994e+06
3.09995e+06
3.09995e+06
3.09996e+06
3.09996e+06
3.09996e+06
3.09997e+06
3.09997e+06
3.09997e+06
3.09997e+06
3.09998e+06
3.09998e+06
3.09998e+06
3.09998e+06
3.09998e+06
3.09998e+06
3.09999e+06
3.09999e+06
3.09999e+06
3.09999e+06
3.09999e+06
3.09999e+06
3.09999e+06
3.09999e+06
3.09999e+06
3.09999e+06
3.09999e+06
3.09999e+06
3.09999e+06
3.09999e+06
3.09999e+06
3.09999e+06
3.1e+06
3.1e+06
3.1e+06
3.1e+06
3.1e+06
3.18678e+06
3.1545e+06
3.12705e+06
3.11327e+06
3.10311e+06
3.10213e+06
3.10094e+06
3.09954e+06
3.1003e+06
3.09965e+06
3.09981e+06
3.09996e+06
3.09985e+06
3.09991e+06
3.09992e+06
3.09992e+06
3.09993e+06
3.09993e+06
3.09994e+06
3.09994e+06
3.09994e+06
3.09994e+06
3.09995e+06
3.09995e+06
3.09995e+06
3.09996e+06
3.09996e+06
3.09996e+06
3.09997e+06
3.09997e+06
3.09997e+06
3.09997e+06
3.09998e+06
3.09998e+06
3.09998e+06
3.09998e+06
3.09998e+06
3.09998e+06
3.09998e+06
3.09999e+06
3.09999e+06
3.09999e+06
3.09999e+06
3.09999e+06
3.09999e+06
3.09999e+06
3.09999e+06
3.09999e+06
3.09999e+06
3.09999e+06
3.09999e+06
3.09999e+06
3.09999e+06
3.09999e+06
3.09999e+06
3.09999e+06
3.1e+06
3.1e+06
3.1e+06
3.1e+06
3.14645e+06
3.13469e+06
3.12311e+06
3.11357e+06
3.10882e+06
3.10537e+06
3.10323e+06
3.10202e+06
3.10096e+06
3.10075e+06
3.10041e+06
3.10019e+06
3.10012e+06
3.10007e+06
3.10004e+06
3.10001e+06
3.09999e+06
3.09998e+06
3.09998e+06
3.09997e+06
3.09996e+06
3.09996e+06
3.09996e+06
3.09996e+06
3.09996e+06
3.09996e+06
3.09996e+06
3.09997e+06
3.09997e+06
3.09997e+06
3.09997e+06
3.09997e+06
3.09998e+06
3.09998e+06
3.09998e+06
3.09998e+06
3.09998e+06
3.09998e+06
3.09998e+06
3.09999e+06
3.09999e+06
3.09999e+06
3.09999e+06
3.09999e+06
3.09999e+06
3.09999e+06
3.09999e+06
3.09999e+06
3.09999e+06
3.09999e+06
3.09999e+06
3.09999e+06
3.09999e+06
3.09999e+06
3.09999e+06
3.09999e+06
3.09999e+06
3.09999e+06
3.1e+06
3.1e+06
3.13867e+06
3.1286e+06
3.12171e+06
3.11489e+06
3.11058e+06
3.10611e+06
3.10326e+06
3.10228e+06
3.10119e+06
3.10118e+06
3.10072e+06
3.10046e+06
3.10039e+06
3.10024e+06
3.10016e+06
3.10011e+06
3.10006e+06
3.10004e+06
3.10001e+06
3.1e+06
3.09999e+06
3.09998e+06
3.09997e+06
3.09997e+06
3.09997e+06
3.09997e+06
3.09997e+06
3.09997e+06
3.09997e+06
3.09997e+06
3.09997e+06
3.09998e+06
3.09998e+06
3.09998e+06
3.09998e+06
3.09998e+06
3.09998e+06
3.09998e+06
3.09998e+06
3.09999e+06
3.09999e+06
3.09999e+06
3.09999e+06
3.09999e+06
3.09999e+06
3.09999e+06
3.09999e+06
3.09999e+06
3.09999e+06
3.09999e+06
3.09999e+06
3.09999e+06
3.09999e+06
3.09999e+06
3.09999e+06
3.09999e+06
3.09999e+06
3.09999e+06
3.09999e+06
3.1e+06
3.16526e+06
3.13936e+06
3.12502e+06
3.11811e+06
3.11403e+06
3.10925e+06
3.10547e+06
3.10372e+06
3.10192e+06
3.10162e+06
3.10103e+06
3.10062e+06
3.10055e+06
3.10036e+06
3.10026e+06
3.10018e+06
3.10012e+06
3.10008e+06
3.10005e+06
3.10003e+06
3.10001e+06
3.1e+06
3.09999e+06
3.09998e+06
3.09998e+06
3.09997e+06
3.09997e+06
3.09997e+06
3.09997e+06
3.09997e+06
3.09998e+06
3.09998e+06
3.09998e+06
3.09998e+06
3.09998e+06
3.09998e+06
3.09998e+06
3.09998e+06
3.09998e+06
3.09999e+06
3.09999e+06
3.09999e+06
3.09999e+06
3.09999e+06
3.09999e+06
3.09999e+06
3.09999e+06
3.09999e+06
3.09999e+06
3.09999e+06
3.09999e+06
3.09999e+06
3.09999e+06
3.09999e+06
3.09999e+06
3.09999e+06
3.09999e+06
3.09999e+06
3.09999e+06
3.09999e+06
3.13628e+06
3.12854e+06
3.12346e+06
3.11783e+06
3.11427e+06
3.10951e+06
3.10583e+06
3.10425e+06
3.10244e+06
3.10202e+06
3.10136e+06
3.10084e+06
3.10072e+06
3.10047e+06
3.10035e+06
3.10025e+06
3.10017e+06
3.10012e+06
3.10008e+06
3.10005e+06
3.10003e+06
3.10001e+06
3.1e+06
3.09999e+06
3.09998e+06
3.09998e+06
3.09998e+06
3.09998e+06
3.09998e+06
3.09998e+06
3.09998e+06
3.09998e+06
3.09998e+06
3.09998e+06
3.09998e+06
3.09998e+06
3.09998e+06
3.09998e+06
3.09998e+06
3.09999e+06
3.09999e+06
3.09999e+06
3.09999e+06
3.09999e+06
3.09999e+06
3.09999e+06
3.09999e+06
3.09999e+06
3.09999e+06
3.09999e+06
3.09999e+06
3.09999e+06
3.09999e+06
3.09999e+06
3.09999e+06
3.09999e+06
3.09999e+06
3.09999e+06
3.09999e+06
3.09999e+06
3.10101e+06
3.10973e+06
3.11513e+06
3.11418e+06
3.11325e+06
3.10855e+06
3.10543e+06
3.10407e+06
3.10232e+06
3.10197e+06
3.10137e+06
3.10084e+06
3.10077e+06
3.10052e+06
3.10039e+06
3.10029e+06
3.10021e+06
3.10015e+06
3.10011e+06
3.10007e+06
3.10005e+06
3.10003e+06
3.10001e+06
3.1e+06
3.09999e+06
3.09999e+06
3.09998e+06
3.09998e+06
3.09998e+06
3.09998e+06
3.09998e+06
3.09998e+06
3.09998e+06
3.09998e+06
3.09998e+06
3.09998e+06
3.09998e+06
3.09998e+06
3.09998e+06
3.09999e+06
3.09999e+06
3.09999e+06
3.09999e+06
3.09999e+06
3.09999e+06
3.09999e+06
3.09999e+06
3.09999e+06
3.09999e+06
3.09999e+06
3.09999e+06
3.09999e+06
3.09999e+06
3.09999e+06
3.09999e+06
3.09999e+06
3.09999e+06
3.09999e+06
3.09999e+06
3.09999e+06
3.09029e+06
3.0987e+06
3.10756e+06
3.11057e+06
3.11169e+06
3.10793e+06
3.10537e+06
3.1041e+06
3.10224e+06
3.10191e+06
3.10133e+06
3.10082e+06
3.10077e+06
3.10053e+06
3.10041e+06
3.10031e+06
3.10023e+06
3.10017e+06
3.10012e+06
3.10008e+06
3.10006e+06
3.10004e+06
3.10002e+06
3.10001e+06
3.1e+06
3.09999e+06
3.09999e+06
3.09998e+06
3.09998e+06
3.09998e+06
3.09998e+06
3.09998e+06
3.09998e+06
3.09998e+06
3.09998e+06
3.09998e+06
3.09998e+06
3.09998e+06
3.09998e+06
3.09999e+06
3.09999e+06
3.09999e+06
3.09999e+06
3.09999e+06
3.09999e+06
3.09999e+06
3.09999e+06
3.09999e+06
3.09999e+06
3.09999e+06
3.09999e+06
3.09999e+06
3.09999e+06
3.09999e+06
3.09999e+06
3.09999e+06
3.09999e+06
3.09999e+06
3.09999e+06
3.09999e+06
3.07057e+06
3.08699e+06
3.10001e+06
3.10537e+06
3.10826e+06
3.10601e+06
3.10421e+06
3.10348e+06
3.10197e+06
3.10181e+06
3.10129e+06
3.10084e+06
3.10077e+06
3.10054e+06
3.10042e+06
3.10032e+06
3.10024e+06
3.10018e+06
3.10013e+06
3.1001e+06
3.10007e+06
3.10005e+06
3.10003e+06
3.10001e+06
3.1e+06
3.1e+06
3.09999e+06
3.09999e+06
3.09999e+06
3.09998e+06
3.09998e+06
3.09998e+06
3.09998e+06
3.09998e+06
3.09998e+06
3.09998e+06
3.09998e+06
3.09998e+06
3.09999e+06
3.09999e+06
3.09999e+06
3.09999e+06
3.09999e+06
3.09999e+06
3.09999e+06
3.09999e+06
3.09999e+06
3.09999e+06
3.09999e+06
3.09999e+06
3.09999e+06
3.09999e+06
3.09999e+06
3.09999e+06
3.09999e+06
3.09999e+06
3.09999e+06
3.09999e+06
3.09999e+06
3.09999e+06
3.07987e+06
3.09153e+06
3.10127e+06
3.10485e+06
3.10732e+06
3.10564e+06
3.10425e+06
3.10357e+06
3.10202e+06
3.10172e+06
3.10124e+06
3.10079e+06
3.10071e+06
3.10052e+06
3.10041e+06
3.10032e+06
3.10024e+06
3.10019e+06
3.10014e+06
3.1001e+06
3.10007e+06
3.10005e+06
3.10003e+06
3.10002e+06
3.10001e+06
3.1e+06
3.09999e+06
3.09999e+06
3.09999e+06
3.09999e+06
3.09998e+06
3.09998e+06
3.09998e+06
3.09998e+06
3.09998e+06
3.09998e+06
3.09998e+06
3.09998e+06
3.09999e+06
3.09999e+06
3.09999e+06
3.09999e+06
3.09999e+06
3.09999e+06
3.09999e+06
3.09999e+06
3.09999e+06
3.09999e+06
3.09999e+06
3.09999e+06
3.09999e+06
3.09999e+06
3.09999e+06
3.09999e+06
3.09999e+06
3.09999e+06
3.09999e+06
3.09999e+06
3.09999e+06
3.09999e+06
3.09886e+06
3.10261e+06
3.10431e+06
3.10592e+06
3.10611e+06
3.10509e+06
3.1039e+06
3.1029e+06
3.10199e+06
3.10146e+06
3.10112e+06
3.1008e+06
3.10066e+06
3.10049e+06
3.10039e+06
3.1003e+06
3.10024e+06
3.10018e+06
3.10014e+06
3.1001e+06
3.10008e+06
3.10006e+06
3.10004e+06
3.10002e+06
3.10001e+06
3.1e+06
3.1e+06
3.09999e+06
3.09999e+06
3.09999e+06
3.09999e+06
3.09999e+06
3.09998e+06
3.09998e+06
3.09998e+06
3.09998e+06
3.09998e+06
3.09999e+06
3.09999e+06
3.09999e+06
3.09999e+06
3.09999e+06
3.09999e+06
3.09999e+06
3.09999e+06
3.09999e+06
3.09999e+06
3.09999e+06
3.09999e+06
3.09999e+06
3.09999e+06
3.09999e+06
3.09999e+06
3.09999e+06
3.09999e+06
3.09999e+06
3.09999e+06
3.09999e+06
3.09999e+06
3.09999e+06
3.11388e+06
3.10993e+06
3.10853e+06
3.10775e+06
3.10696e+06
3.10565e+06
3.10426e+06
3.10304e+06
3.10212e+06
3.10143e+06
3.10106e+06
3.10075e+06
3.10059e+06
3.10046e+06
3.10036e+06
3.10028e+06
3.10022e+06
3.10018e+06
3.10014e+06
3.1001e+06
3.10008e+06
3.10006e+06
3.10004e+06
3.10003e+06
3.10001e+06
3.10001e+06
3.1e+06
3.09999e+06
3.09999e+06
3.09999e+06
3.09999e+06
3.09999e+06
3.09999e+06
3.09999e+06
3.09999e+06
3.09999e+06
3.09999e+06
3.09999e+06
3.09999e+06
3.09999e+06
3.09999e+06
3.09999e+06
3.09999e+06
3.09999e+06
3.09999e+06
3.09999e+06
3.09999e+06
3.09999e+06
3.09999e+06
3.09999e+06
3.09999e+06
3.09999e+06
3.09999e+06
3.09999e+06
3.09999e+06
3.09999e+06
3.09999e+06
3.09999e+06
3.09999e+06
3.09999e+06
3.11782e+06
3.11263e+06
3.10994e+06
3.10803e+06
3.10652e+06
3.1053e+06
3.10381e+06
3.10265e+06
3.10196e+06
3.10142e+06
3.10107e+06
3.10077e+06
3.10059e+06
3.10045e+06
3.10036e+06
3.10028e+06
3.10022e+06
3.10017e+06
3.10013e+06
3.1001e+06
3.10008e+06
3.10006e+06
3.10004e+06
3.10003e+06
3.10002e+06
3.10001e+06
3.1e+06
3.1e+06
3.09999e+06
3.09999e+06
3.09999e+06
3.09999e+06
3.09999e+06
3.09999e+06
3.09999e+06
3.09999e+06
3.09999e+06
3.09999e+06
3.09999e+06
3.09999e+06
3.09999e+06
3.09999e+06
3.09999e+06
3.09999e+06
3.09999e+06
3.09999e+06
3.09999e+06
3.09999e+06
3.09999e+06
3.09999e+06
3.09999e+06
3.09999e+06
3.09999e+06
3.09999e+06
3.09999e+06
3.09999e+06
3.09999e+06
3.09999e+06
3.09999e+06
3.09999e+06
3.1171e+06
3.11282e+06
3.11042e+06
3.10841e+06
3.10634e+06
3.10495e+06
3.10347e+06
3.10246e+06
3.10184e+06
3.10131e+06
3.10098e+06
3.10072e+06
3.10055e+06
3.10043e+06
3.10034e+06
3.10026e+06
3.10021e+06
3.10016e+06
3.10013e+06
3.1001e+06
3.10008e+06
3.10006e+06
3.10004e+06
3.10003e+06
3.10002e+06
3.10001e+06
3.1e+06
3.1e+06
3.09999e+06
3.09999e+06
3.09999e+06
3.09999e+06
3.09999e+06
3.09999e+06
3.09999e+06
3.09999e+06
3.09999e+06
3.09999e+06
3.09999e+06
3.09999e+06
3.09999e+06
3.09999e+06
3.09999e+06
3.09999e+06
3.09999e+06
3.09999e+06
3.09999e+06
3.09999e+06
3.09999e+06
3.09999e+06
3.09999e+06
3.09999e+06
3.09999e+06
3.09999e+06
3.09999e+06
3.09999e+06
3.09999e+06
3.09999e+06
3.09999e+06
3.09999e+06
3.11218e+06
3.11074e+06
3.1101e+06
3.10849e+06
3.10646e+06
3.10488e+06
3.10334e+06
3.10238e+06
3.1018e+06
3.10128e+06
3.10096e+06
3.10071e+06
3.10053e+06
3.10041e+06
3.10032e+06
3.10025e+06
3.1002e+06
3.10016e+06
3.10012e+06
3.10009e+06
3.10007e+06
3.10006e+06
3.10004e+06
3.10003e+06
3.10002e+06
3.10001e+06
3.1e+06
3.1e+06
3.1e+06
3.09999e+06
3.09999e+06
3.09999e+06
3.09999e+06
3.09999e+06
3.09999e+06
3.09999e+06
3.09999e+06
3.09999e+06
3.09999e+06
3.09999e+06
3.09999e+06
3.09999e+06
3.09999e+06
3.09999e+06
3.09999e+06
3.09999e+06
3.09999e+06
3.09999e+06
3.09999e+06
3.09999e+06
3.09999e+06
3.09999e+06
3.09999e+06
3.09999e+06
3.09999e+06
3.09999e+06
3.09999e+06
3.09999e+06
3.09999e+06
3.09999e+06
3.10509e+06
3.10596e+06
3.1073e+06
3.10697e+06
3.10595e+06
3.1046e+06
3.10318e+06
3.10231e+06
3.1017e+06
3.10123e+06
3.10092e+06
3.10068e+06
3.10051e+06
3.10039e+06
3.1003e+06
3.10024e+06
3.10019e+06
3.10015e+06
3.10011e+06
3.10009e+06
3.10007e+06
3.10005e+06
3.10004e+06
3.10003e+06
3.10002e+06
3.10001e+06
3.1e+06
3.1e+06
3.1e+06
3.09999e+06
3.09999e+06
3.09999e+06
3.09999e+06
3.09999e+06
3.09999e+06
3.09999e+06
3.09999e+06
3.09999e+06
3.09999e+06
3.09999e+06
3.09999e+06
3.09999e+06
3.09999e+06
3.09999e+06
3.09999e+06
3.09999e+06
3.09999e+06
3.09999e+06
3.09999e+06
3.09999e+06
3.09999e+06
3.09999e+06
3.09999e+06
3.09999e+06
3.09999e+06
3.09999e+06
3.09999e+06
3.09999e+06
3.09999e+06
3.09999e+06
3.10493e+06
3.1052e+06
3.10634e+06
3.10619e+06
3.10532e+06
3.10418e+06
3.10306e+06
3.10224e+06
3.10161e+06
3.10116e+06
3.10087e+06
3.10064e+06
3.10047e+06
3.10036e+06
3.10028e+06
3.10022e+06
3.10017e+06
3.10013e+06
3.1001e+06
3.10008e+06
3.10006e+06
3.10005e+06
3.10004e+06
3.10003e+06
3.10002e+06
3.10001e+06
3.1e+06
3.1e+06
3.1e+06
3.09999e+06
3.09999e+06
3.09999e+06
3.09999e+06
3.09999e+06
3.09999e+06
3.09999e+06
3.09999e+06
3.09999e+06
3.09999e+06
3.09999e+06
3.09999e+06
3.09999e+06
3.09999e+06
3.09999e+06
3.09999e+06
3.09999e+06
3.09999e+06
3.09999e+06
3.09999e+06
3.09999e+06
3.09999e+06
3.09999e+06
3.09999e+06
3.09999e+06
3.09999e+06
3.09999e+06
3.09999e+06
3.09999e+06
3.09999e+06
3.09999e+06
3.10386e+06
3.10541e+06
3.10621e+06
3.10558e+06
3.10478e+06
3.10378e+06
3.10286e+06
3.10207e+06
3.10148e+06
3.10109e+06
3.1008e+06
3.10058e+06
3.10043e+06
3.10032e+06
3.10025e+06
3.1002e+06
3.10016e+06
3.10012e+06
3.10009e+06
3.10007e+06
3.10006e+06
3.10004e+06
3.10003e+06
3.10002e+06
3.10002e+06
3.10001e+06
3.1e+06
3.1e+06
3.1e+06
3.1e+06
3.09999e+06
3.09999e+06
3.09999e+06
3.09999e+06
3.09999e+06
3.09999e+06
3.09999e+06
3.09999e+06
3.09999e+06
3.09999e+06
3.09999e+06
3.09999e+06
3.09999e+06
3.09999e+06
3.09999e+06
3.09999e+06
3.09999e+06
3.09999e+06
3.09999e+06
3.09999e+06
3.09999e+06
3.09999e+06
3.09999e+06
3.09999e+06
3.09999e+06
3.09999e+06
3.09999e+06
3.09999e+06
3.09999e+06
3.09999e+06
3.10039e+06
3.10366e+06
3.10488e+06
3.10517e+06
3.10424e+06
3.10322e+06
3.10247e+06
3.10187e+06
3.10134e+06
3.10097e+06
3.1007e+06
3.10051e+06
3.10037e+06
3.10028e+06
3.10022e+06
3.10017e+06
3.10014e+06
3.1001e+06
3.10008e+06
3.10007e+06
3.10005e+06
3.10004e+06
3.10003e+06
3.10002e+06
3.10001e+06
3.10001e+06
3.1e+06
3.1e+06
3.1e+06
3.1e+06
3.09999e+06
3.09999e+06
3.09999e+06
3.09999e+06
3.09999e+06
3.09999e+06
3.09999e+06
3.09999e+06
3.09999e+06
3.09999e+06
3.09999e+06
3.09999e+06
3.09999e+06
3.09999e+06
3.09999e+06
3.09999e+06
3.09999e+06
3.09999e+06
3.09999e+06
3.09999e+06
3.09999e+06
3.09999e+06
3.09999e+06
3.09999e+06
3.09999e+06
3.09999e+06
3.09999e+06
3.09999e+06
3.09999e+06
3.09999e+06
3.09243e+06
3.09842e+06
3.10229e+06
3.10365e+06
3.10351e+06
3.10278e+06
3.10195e+06
3.10143e+06
3.1011e+06
3.10082e+06
3.10059e+06
3.10042e+06
3.1003e+06
3.10023e+06
3.10018e+06
3.10014e+06
3.10011e+06
3.10009e+06
3.10007e+06
3.10005e+06
3.10004e+06
3.10003e+06
3.10002e+06
3.10002e+06
3.10001e+06
3.10001e+06
3.1e+06
3.1e+06
3.1e+06
3.1e+06
3.1e+06
3.09999e+06
3.09999e+06
3.09999e+06
3.09999e+06
3.09999e+06
3.09999e+06
3.09999e+06
3.09999e+06
3.09999e+06
3.09999e+06
3.09999e+06
3.09999e+06
3.09999e+06
3.09999e+06
3.09999e+06
3.09999e+06
3.09999e+06
3.09999e+06
3.09999e+06
3.09999e+06
3.09999e+06
3.09999e+06
3.09999e+06
3.09999e+06
3.09999e+06
3.09999e+06
3.09999e+06
3.09999e+06
3.09999e+06
3.08757e+06
3.0974e+06
3.10189e+06
3.10329e+06
3.10321e+06
3.10208e+06
3.10153e+06
3.1012e+06
3.10087e+06
3.10064e+06
3.10045e+06
3.10032e+06
3.10022e+06
3.10017e+06
3.10014e+06
3.10011e+06
3.10008e+06
3.10007e+06
3.10005e+06
3.10004e+06
3.10003e+06
3.10003e+06
3.10002e+06
3.10001e+06
3.10001e+06
3.10001e+06
3.1e+06
3.1e+06
3.1e+06
3.1e+06
3.1e+06
3.09999e+06
3.09999e+06
3.09999e+06
3.09999e+06
3.09999e+06
3.09999e+06
3.09999e+06
3.09999e+06
3.09999e+06
3.09999e+06
3.09999e+06
3.09999e+06
3.09999e+06
3.09999e+06
3.09999e+06
3.09999e+06
3.09999e+06
3.09999e+06
3.09999e+06
3.09999e+06
3.09999e+06
3.09999e+06
3.09999e+06
3.09999e+06
3.09999e+06
3.09999e+06
3.09999e+06
3.09999e+06
3.09999e+06
3.08417e+06
3.09286e+06
3.09891e+06
3.10145e+06
3.10242e+06
3.10164e+06
3.10115e+06
3.10089e+06
3.10058e+06
3.10043e+06
3.1003e+06
3.1002e+06
3.10013e+06
3.1001e+06
3.10009e+06
3.10007e+06
3.10006e+06
3.10004e+06
3.10004e+06
3.10003e+06
3.10002e+06
3.10002e+06
3.10002e+06
3.10001e+06
3.10001e+06
3.10001e+06
3.1e+06
3.1e+06
3.1e+06
3.1e+06
3.1e+06
3.1e+06
3.09999e+06
3.09999e+06
3.09999e+06
3.09999e+06
3.09999e+06
3.09999e+06
3.09999e+06
3.09999e+06
3.09999e+06
3.09999e+06
3.09999e+06
3.09999e+06
3.09999e+06
3.09999e+06
3.09999e+06
3.09999e+06
3.09999e+06
3.09999e+06
3.09999e+06
3.09999e+06
3.09999e+06
3.09999e+06
3.09999e+06
3.09999e+06
3.09999e+06
3.09999e+06
3.09999e+06
3.09999e+06
3.08232e+06
3.09104e+06
3.09673e+06
3.10006e+06
3.10123e+06
3.10076e+06
3.10051e+06
3.10042e+06
3.10022e+06
3.10017e+06
3.10012e+06
3.10007e+06
3.10003e+06
3.10003e+06
3.10003e+06
3.10002e+06
3.10002e+06
3.10002e+06
3.10002e+06
3.10002e+06
3.10002e+06
3.10001e+06
3.10001e+06
3.10001e+06
3.10001e+06
3.10001e+06
3.1e+06
3.1e+06
3.1e+06
3.1e+06
3.1e+06
3.1e+06
3.09999e+06
3.09999e+06
3.09999e+06
3.09999e+06
3.09999e+06
3.09999e+06
3.09999e+06
3.09999e+06
3.09999e+06
3.09999e+06
3.09999e+06
3.09999e+06
3.09999e+06
3.09999e+06
3.09999e+06