/*--------------------------------*- C++ -*----------------------------------*\
| =========                 |                                                 |
| \\      /  F ield         | OpenFOAM: The Open Source CFD Toolbox           |
|  \\    /   O peration     | Version:  v2012                                 |
|   \\  /    A nd           | Website:  www.openfoam.com                      |
|    \\/     M anipulation  |                                                 |
\*---------------------------------------------------------------------------*/
FoamFile
{
    version     2.0;
    format      ascii;
    class       volScalarField;
    location    "0.7";
    object      p_rgh;
}
// * * * * * * * * * * * * * * * * * * * * * * * * * * * * * * * * * * * * * //

dimensions      [1 -1 -2 0 0 0 0];


internalField   nonuniform List<scalar> 
15860
(
3.09534e+06
3.10252e+06
3.10415e+06
3.10208e+06
3.1011e+06
3.10071e+06
3.1005e+06
3.10038e+06
3.1003e+06
3.10013e+06
3.10003e+06
3.1e+06
3.1e+06
3.09999e+06
3.09999e+06
3.09999e+06
3.09999e+06
3.09999e+06
3.09999e+06
3.09999e+06
3.09999e+06
3.09999e+06
3.09999e+06
3.09999e+06
3.09999e+06
3.09999e+06
3.09999e+06
3.09999e+06
3.09999e+06
3.09999e+06
3.1e+06
3.1e+06
3.1e+06
3.1e+06
3.1e+06
3.1e+06
3.1e+06
3.1e+06
3.1e+06
3.1e+06
3.1e+06
3.1e+06
3.1e+06
3.1e+06
3.1e+06
3.1e+06
3.1e+06
3.1e+06
3.1e+06
3.1e+06
3.1e+06
3.1e+06
3.1e+06
3.1e+06
3.1e+06
3.1e+06
3.1e+06
3.1e+06
3.1e+06
3.1e+06
3.11774e+06
3.11496e+06
3.10892e+06
3.10537e+06
3.10285e+06
3.10154e+06
3.10112e+06
3.10066e+06
3.10051e+06
3.10036e+06
3.10022e+06
3.10013e+06
3.10009e+06
3.10005e+06
3.10003e+06
3.10002e+06
3.10001e+06
3.1e+06
3.09999e+06
3.09999e+06
3.09999e+06
3.09999e+06
3.09999e+06
3.09999e+06
3.09999e+06
3.09999e+06
3.09999e+06
3.09999e+06
3.09999e+06
3.09999e+06
3.09999e+06
3.09999e+06
3.1e+06
3.1e+06
3.1e+06
3.1e+06
3.1e+06
3.1e+06
3.1e+06
3.1e+06
3.1e+06
3.1e+06
3.1e+06
3.1e+06
3.1e+06
3.1e+06
3.1e+06
3.1e+06
3.1e+06
3.1e+06
3.1e+06
3.1e+06
3.1e+06
3.1e+06
3.1e+06
3.1e+06
3.1e+06
3.1e+06
3.1e+06
3.1e+06
3.13566e+06
3.12428e+06
3.1133e+06
3.10743e+06
3.10371e+06
3.10274e+06
3.10174e+06
3.10098e+06
3.10075e+06
3.10047e+06
3.10036e+06
3.10024e+06
3.10013e+06
3.10007e+06
3.10005e+06
3.10003e+06
3.10001e+06
3.09999e+06
3.09999e+06
3.09998e+06
3.09998e+06
3.09998e+06
3.09998e+06
3.09998e+06
3.09998e+06
3.09998e+06
3.09999e+06
3.09999e+06
3.09999e+06
3.09999e+06
3.09999e+06
3.09999e+06
3.09999e+06
3.09999e+06
3.1e+06
3.1e+06
3.1e+06
3.1e+06
3.1e+06
3.1e+06
3.1e+06
3.1e+06
3.1e+06
3.1e+06
3.1e+06
3.1e+06
3.1e+06
3.1e+06
3.1e+06
3.1e+06
3.1e+06
3.1e+06
3.1e+06
3.1e+06
3.1e+06
3.1e+06
3.1e+06
3.1e+06
3.1e+06
3.1e+06
3.14221e+06
3.13229e+06
3.11922e+06
3.11139e+06
3.10634e+06
3.10431e+06
3.10268e+06
3.10162e+06
3.10125e+06
3.1008e+06
3.1006e+06
3.10039e+06
3.10022e+06
3.10013e+06
3.10008e+06
3.10005e+06
3.10002e+06
3.1e+06
3.09999e+06
3.09998e+06
3.09998e+06
3.09998e+06
3.09998e+06
3.09998e+06
3.09998e+06
3.09998e+06
3.09998e+06
3.09998e+06
3.09999e+06
3.09999e+06
3.09999e+06
3.09999e+06
3.09999e+06
3.09999e+06
3.09999e+06
3.09999e+06
3.1e+06
3.1e+06
3.1e+06
3.1e+06
3.1e+06
3.1e+06
3.1e+06
3.1e+06
3.1e+06
3.1e+06
3.1e+06
3.1e+06
3.1e+06
3.1e+06
3.1e+06
3.1e+06
3.1e+06
3.1e+06
3.1e+06
3.1e+06
3.1e+06
3.1e+06
3.1e+06
3.1e+06
3.1559e+06
3.14107e+06
3.1253e+06
3.11606e+06
3.10976e+06
3.10653e+06
3.10412e+06
3.10247e+06
3.10172e+06
3.10102e+06
3.10073e+06
3.10043e+06
3.10024e+06
3.10013e+06
3.10009e+06
3.10005e+06
3.10001e+06
3.09999e+06
3.09998e+06
3.09998e+06
3.09997e+06
3.09997e+06
3.09997e+06
3.09997e+06
3.09997e+06
3.09998e+06
3.09998e+06
3.09998e+06
3.09998e+06
3.09998e+06
3.09999e+06
3.09999e+06
3.09999e+06
3.09999e+06
3.09999e+06
3.09999e+06
3.09999e+06
3.1e+06
3.1e+06
3.1e+06
3.1e+06
3.1e+06
3.1e+06
3.1e+06
3.1e+06
3.1e+06
3.1e+06
3.1e+06
3.1e+06
3.1e+06
3.1e+06
3.1e+06
3.1e+06
3.1e+06
3.1e+06
3.1e+06
3.1e+06
3.1e+06
3.1e+06
3.1e+06
3.15176e+06
3.13851e+06
3.12547e+06
3.11738e+06
3.11111e+06
3.10747e+06
3.10459e+06
3.10275e+06
3.10187e+06
3.10118e+06
3.10082e+06
3.10048e+06
3.10029e+06
3.10015e+06
3.1001e+06
3.10005e+06
3.10001e+06
3.09999e+06
3.09998e+06
3.09997e+06
3.09997e+06
3.09997e+06
3.09997e+06
3.09997e+06
3.09997e+06
3.09997e+06
3.09997e+06
3.09998e+06
3.09998e+06
3.09998e+06
3.09998e+06
3.09999e+06
3.09999e+06
3.09999e+06
3.09999e+06
3.09999e+06
3.09999e+06
3.09999e+06
3.1e+06
3.1e+06
3.1e+06
3.1e+06
3.1e+06
3.1e+06
3.1e+06
3.1e+06
3.1e+06
3.1e+06
3.1e+06
3.1e+06
3.1e+06
3.1e+06
3.1e+06
3.1e+06
3.1e+06
3.1e+06
3.1e+06
3.1e+06
3.1e+06
3.1e+06
3.15319e+06
3.14109e+06
3.12869e+06
3.11922e+06
3.11364e+06
3.10863e+06
3.10516e+06
3.10339e+06
3.10187e+06
3.10142e+06
3.10086e+06
3.10042e+06
3.10029e+06
3.10012e+06
3.10008e+06
3.10003e+06
3.09999e+06
3.09997e+06
3.09996e+06
3.09996e+06
3.09996e+06
3.09996e+06
3.09996e+06
3.09996e+06
3.09996e+06
3.09997e+06
3.09997e+06
3.09997e+06
3.09998e+06
3.09998e+06
3.09998e+06
3.09998e+06
3.09999e+06
3.09999e+06
3.09999e+06
3.09999e+06
3.09999e+06
3.09999e+06
3.09999e+06
3.1e+06
3.1e+06
3.1e+06
3.1e+06
3.1e+06
3.1e+06
3.1e+06
3.1e+06
3.1e+06
3.1e+06
3.1e+06
3.1e+06
3.1e+06
3.1e+06
3.1e+06
3.1e+06
3.1e+06
3.1e+06
3.1e+06
3.1e+06
3.1e+06
3.16665e+06
3.14433e+06
3.12874e+06
3.11877e+06
3.11295e+06
3.10776e+06
3.10439e+06
3.10292e+06
3.10154e+06
3.10125e+06
3.10071e+06
3.10033e+06
3.10024e+06
3.10008e+06
3.10005e+06
3.1e+06
3.09997e+06
3.09995e+06
3.09995e+06
3.09994e+06
3.09994e+06
3.09995e+06
3.09995e+06
3.09995e+06
3.09996e+06
3.09996e+06
3.09997e+06
3.09997e+06
3.09997e+06
3.09998e+06
3.09998e+06
3.09998e+06
3.09998e+06
3.09999e+06
3.09999e+06
3.09999e+06
3.09999e+06
3.09999e+06
3.09999e+06
3.09999e+06
3.1e+06
3.1e+06
3.1e+06
3.1e+06
3.1e+06
3.1e+06
3.1e+06
3.1e+06
3.1e+06
3.1e+06
3.1e+06
3.1e+06
3.1e+06
3.1e+06
3.1e+06
3.1e+06
3.1e+06
3.1e+06
3.1e+06
3.1e+06
3.17161e+06
3.13168e+06
3.11563e+06
3.11242e+06
3.11044e+06
3.10673e+06
3.1037e+06
3.1026e+06
3.10118e+06
3.10102e+06
3.10053e+06
3.10017e+06
3.10014e+06
3.1e+06
3.09998e+06
3.09995e+06
3.09994e+06
3.09993e+06
3.09993e+06
3.09993e+06
3.09993e+06
3.09994e+06
3.09994e+06
3.09995e+06
3.09995e+06
3.09996e+06
3.09996e+06
3.09997e+06
3.09997e+06
3.09997e+06
3.09998e+06
3.09998e+06
3.09998e+06
3.09999e+06
3.09999e+06
3.09999e+06
3.09999e+06
3.09999e+06
3.09999e+06
3.09999e+06
3.1e+06
3.1e+06
3.1e+06
3.1e+06
3.1e+06
3.1e+06
3.1e+06
3.1e+06
3.1e+06
3.1e+06
3.1e+06
3.1e+06
3.1e+06
3.1e+06
3.1e+06
3.1e+06
3.1e+06
3.1e+06
3.1e+06
3.1e+06
3.08584e+06
3.09184e+06
3.09943e+06
3.10173e+06
3.10469e+06
3.10373e+06
3.10178e+06
3.10161e+06
3.10053e+06
3.10058e+06
3.10026e+06
3.09997e+06
3.10001e+06
3.0999e+06
3.09991e+06
3.0999e+06
3.09989e+06
3.0999e+06
3.0999e+06
3.09991e+06
3.09992e+06
3.09993e+06
3.09993e+06
3.09994e+06
3.09995e+06
3.09995e+06
3.09996e+06
3.09996e+06
3.09997e+06
3.09997e+06
3.09998e+06
3.09998e+06
3.09998e+06
3.09998e+06
3.09999e+06
3.09999e+06
3.09999e+06
3.09999e+06
3.09999e+06
3.09999e+06
3.09999e+06
3.1e+06
3.1e+06
3.1e+06
3.1e+06
3.1e+06
3.1e+06
3.1e+06
3.1e+06
3.1e+06
3.1e+06
3.1e+06
3.1e+06
3.1e+06
3.1e+06
3.1e+06
3.1e+06
3.1e+06
3.1e+06
3.1e+06
3.02578e+06
3.05742e+06
3.08318e+06
3.09454e+06
3.10137e+06
3.09979e+06
3.09982e+06
3.1004e+06
3.09956e+06
3.1e+06
3.09983e+06
3.0997e+06
3.09982e+06
3.09978e+06
3.09981e+06
3.09983e+06
3.09985e+06
3.09986e+06
3.09988e+06
3.09989e+06
3.0999e+06
3.09992e+06
3.09993e+06
3.09993e+06
3.09994e+06
3.09995e+06
3.09995e+06
3.09996e+06
3.09997e+06
3.09997e+06
3.09997e+06
3.09998e+06
3.09998e+06
3.09998e+06
3.09999e+06
3.09999e+06
3.09999e+06
3.09999e+06
3.09999e+06
3.09999e+06
3.09999e+06
3.1e+06
3.1e+06
3.1e+06
3.1e+06
3.1e+06
3.1e+06
3.1e+06
3.1e+06
3.1e+06
3.1e+06
3.1e+06
3.1e+06
3.1e+06
3.1e+06
3.1e+06
3.1e+06
3.1e+06
3.1e+06
3.1e+06
3.00217e+06
3.0328e+06
3.06589e+06
3.08382e+06
3.09496e+06
3.09626e+06
3.09766e+06
3.09899e+06
3.0984e+06
3.09917e+06
3.09925e+06
3.09932e+06
3.09956e+06
3.0996e+06
3.09969e+06
3.09975e+06
3.09979e+06
3.09982e+06
3.09985e+06
3.09987e+06
3.09989e+06
3.09991e+06
3.09992e+06
3.09993e+06
3.09994e+06
3.09995e+06
3.09995e+06
3.09996e+06
3.09996e+06
3.09997e+06
3.09997e+06
3.09998e+06
3.09998e+06
3.09998e+06
3.09998e+06
3.09999e+06
3.09999e+06
3.09999e+06
3.09999e+06
3.09999e+06
3.09999e+06
3.1e+06
3.1e+06
3.1e+06
3.1e+06
3.1e+06
3.1e+06
3.1e+06
3.1e+06
3.1e+06
3.1e+06
3.1e+06
3.1e+06
3.1e+06
3.1e+06
3.1e+06
3.1e+06
3.1e+06
3.1e+06
3.1e+06
2.96565e+06
3.00922e+06
3.04985e+06
3.07192e+06
3.08649e+06
3.09043e+06
3.09371e+06
3.09664e+06
3.09705e+06
3.09846e+06
3.09879e+06
3.09908e+06
3.09937e+06
3.09948e+06
3.0996e+06
3.09968e+06
3.09975e+06
3.09979e+06
3.09983e+06
3.09986e+06
3.09988e+06
3.0999e+06
3.09991e+06
3.09992e+06
3.09993e+06
3.09994e+06
3.09995e+06
3.09996e+06
3.09996e+06
3.09997e+06
3.09997e+06
3.09998e+06
3.09998e+06
3.09998e+06
3.09998e+06
3.09999e+06
3.09999e+06
3.09999e+06
3.09999e+06
3.09999e+06
3.09999e+06
3.09999e+06
3.1e+06
3.1e+06
3.1e+06
3.1e+06
3.1e+06
3.1e+06
3.1e+06
3.1e+06
3.1e+06
3.1e+06
3.1e+06
3.1e+06
3.1e+06
3.1e+06
3.1e+06
3.1e+06
3.1e+06
3.1e+06
2.97994e+06
3.01878e+06
3.05118e+06
3.06919e+06
3.08345e+06
3.08846e+06
3.09276e+06
3.09595e+06
3.09658e+06
3.09788e+06
3.09841e+06
3.0988e+06
3.09912e+06
3.09933e+06
3.0995e+06
3.09962e+06
3.0997e+06
3.09976e+06
3.09981e+06
3.09984e+06
3.09987e+06
3.09989e+06
3.09991e+06
3.09992e+06
3.09993e+06
3.09994e+06
3.09995e+06
3.09996e+06
3.09996e+06
3.09997e+06
3.09997e+06
3.09998e+06
3.09998e+06
3.09998e+06
3.09998e+06
3.09999e+06
3.09999e+06
3.09999e+06
3.09999e+06
3.09999e+06
3.09999e+06
3.09999e+06
3.1e+06
3.1e+06
3.1e+06
3.1e+06
3.1e+06
3.1e+06
3.1e+06
3.1e+06
3.1e+06
3.1e+06
3.1e+06
3.1e+06
3.1e+06
3.1e+06
3.1e+06
3.1e+06
3.1e+06
3.1e+06
3.01234e+06
3.03165e+06
3.05186e+06
3.06816e+06
3.07749e+06
3.08534e+06
3.0907e+06
3.09368e+06
3.09613e+06
3.09698e+06
3.09798e+06
3.0987e+06
3.09897e+06
3.09927e+06
3.09945e+06
3.09959e+06
3.09968e+06
3.09975e+06
3.0998e+06
3.09983e+06
3.09986e+06
3.09989e+06
3.0999e+06
3.09992e+06
3.09993e+06
3.09994e+06
3.09995e+06
3.09995e+06
3.09996e+06
3.09997e+06
3.09997e+06
3.09997e+06
3.09998e+06
3.09998e+06
3.09998e+06
3.09999e+06
3.09999e+06
3.09999e+06
3.09999e+06
3.09999e+06
3.09999e+06
3.09999e+06
3.1e+06
3.1e+06
3.1e+06
3.1e+06
3.1e+06
3.1e+06
3.1e+06
3.1e+06
3.1e+06
3.1e+06
3.1e+06
3.1e+06
3.1e+06
3.1e+06
3.1e+06
3.1e+06
3.1e+06
3.1e+06
3.00606e+06
3.03353e+06
3.05313e+06
3.06765e+06
3.07696e+06
3.08566e+06
3.09135e+06
3.09393e+06
3.0963e+06
3.09687e+06
3.0979e+06
3.09861e+06
3.09884e+06
3.0992e+06
3.09941e+06
3.09957e+06
3.09967e+06
3.09974e+06
3.09979e+06
3.09983e+06
3.09986e+06
3.09989e+06
3.0999e+06
3.09992e+06
3.09993e+06
3.09994e+06
3.09995e+06
3.09995e+06
3.09996e+06
3.09997e+06
3.09997e+06
3.09997e+06
3.09998e+06
3.09998e+06
3.09998e+06
3.09999e+06
3.09999e+06
3.09999e+06
3.09999e+06
3.09999e+06
3.09999e+06
3.09999e+06
3.1e+06
3.1e+06
3.1e+06
3.1e+06
3.1e+06
3.1e+06
3.1e+06
3.1e+06
3.1e+06
3.1e+06
3.1e+06
3.1e+06
3.1e+06
3.1e+06
3.1e+06
3.1e+06
3.1e+06
3.1e+06
2.9832e+06
3.03656e+06
3.06155e+06
3.07074e+06
3.07679e+06
3.08439e+06
3.09047e+06
3.09329e+06
3.09615e+06
3.0968e+06
3.09788e+06
3.09867e+06
3.09885e+06
3.09922e+06
3.09942e+06
3.09957e+06
3.09967e+06
3.09974e+06
3.0998e+06
3.09984e+06
3.09986e+06
3.09989e+06
3.09991e+06
3.09992e+06
3.09993e+06
3.09994e+06
3.09995e+06
3.09996e+06
3.09996e+06
3.09997e+06
3.09997e+06
3.09997e+06
3.09998e+06
3.09998e+06
3.09998e+06
3.09999e+06
3.09999e+06
3.09999e+06
3.09999e+06
3.09999e+06
3.09999e+06
3.09999e+06
3.1e+06
3.1e+06
3.1e+06
3.1e+06
3.1e+06
3.1e+06
3.1e+06
3.1e+06
3.1e+06
3.1e+06
3.1e+06
3.1e+06
3.1e+06
3.1e+06
3.1e+06
3.1e+06
3.1e+06
3.1e+06
3.06848e+06
3.07309e+06
3.07476e+06
3.07924e+06
3.08114e+06
3.08658e+06
3.09178e+06
3.09377e+06
3.09637e+06
3.09694e+06
3.09792e+06
3.09872e+06
3.09888e+06
3.09926e+06
3.09945e+06
3.0996e+06
3.09969e+06
3.09976e+06
3.09981e+06
3.09985e+06
3.09987e+06
3.09989e+06
3.09991e+06
3.09992e+06
3.09993e+06
3.09994e+06
3.09995e+06
3.09996e+06
3.09996e+06
3.09997e+06
3.09997e+06
3.09998e+06
3.09998e+06
3.09998e+06
3.09998e+06
3.09999e+06
3.09999e+06
3.09999e+06
3.09999e+06
3.09999e+06
3.09999e+06
3.09999e+06
3.1e+06
3.1e+06
3.1e+06
3.1e+06
3.1e+06
3.1e+06
3.1e+06
3.1e+06
3.1e+06
3.1e+06
3.1e+06
3.1e+06
3.1e+06
3.1e+06
3.1e+06
3.1e+06
3.1e+06
3.1e+06
3.13757e+06
3.11144e+06
3.09221e+06
3.08669e+06
3.08439e+06
3.0906e+06
3.0938e+06
3.09499e+06
3.09725e+06
3.09741e+06
3.09824e+06
3.09893e+06
3.09903e+06
3.09936e+06
3.09953e+06
3.09965e+06
3.09973e+06
3.09979e+06
3.09983e+06
3.09986e+06
3.09989e+06
3.0999e+06
3.09992e+06
3.09993e+06
3.09994e+06
3.09995e+06
3.09995e+06
3.09996e+06
3.09996e+06
3.09997e+06
3.09997e+06
3.09998e+06
3.09998e+06
3.09998e+06
3.09998e+06
3.09999e+06
3.09999e+06
3.09999e+06
3.09999e+06
3.09999e+06
3.09999e+06
3.09999e+06
3.09999e+06
3.1e+06
3.1e+06
3.1e+06
3.1e+06
3.1e+06
3.1e+06
3.1e+06
3.1e+06
3.1e+06
3.1e+06
3.1e+06
3.1e+06
3.1e+06
3.1e+06
3.1e+06
3.1e+06
3.1e+06
3.16499e+06
3.13891e+06
3.11101e+06
3.09781e+06
3.09066e+06
3.09392e+06
3.09578e+06
3.09628e+06
3.09833e+06
3.0982e+06
3.09882e+06
3.09931e+06
3.0993e+06
3.09954e+06
3.09965e+06
3.09974e+06
3.09979e+06
3.09983e+06
3.09986e+06
3.09989e+06
3.0999e+06
3.09992e+06
3.09993e+06
3.09994e+06
3.09994e+06
3.09995e+06
3.09996e+06
3.09996e+06
3.09997e+06
3.09997e+06
3.09997e+06
3.09998e+06
3.09998e+06
3.09998e+06
3.09998e+06
3.09999e+06
3.09999e+06
3.09999e+06
3.09999e+06
3.09999e+06
3.09999e+06
3.09999e+06
3.09999e+06
3.1e+06
3.1e+06
3.1e+06
3.1e+06
3.1e+06
3.1e+06
3.1e+06
3.1e+06
3.1e+06
3.1e+06
3.1e+06
3.1e+06
3.1e+06
3.1e+06
3.1e+06
3.1e+06
3.1e+06
3.20541e+06
3.16561e+06
3.12904e+06
3.11057e+06
3.09981e+06
3.10002e+06
3.0999e+06
3.09875e+06
3.09973e+06
3.09898e+06
3.09934e+06
3.09959e+06
3.09953e+06
3.09971e+06
3.09977e+06
3.09983e+06
3.09986e+06
3.09988e+06
3.0999e+06
3.09991e+06
3.09992e+06
3.09993e+06
3.09994e+06
3.09995e+06
3.09995e+06
3.09996e+06
3.09996e+06
3.09996e+06
3.09997e+06
3.09997e+06
3.09998e+06
3.09998e+06
3.09998e+06
3.09998e+06
3.09998e+06
3.09999e+06
3.09999e+06
3.09999e+06
3.09999e+06
3.09999e+06
3.09999e+06
3.09999e+06
3.09999e+06
3.1e+06
3.1e+06
3.1e+06
3.1e+06
3.1e+06
3.1e+06
3.1e+06
3.1e+06
3.1e+06
3.1e+06
3.1e+06
3.1e+06
3.1e+06
3.1e+06
3.1e+06
3.1e+06
3.1e+06
3.18678e+06
3.1545e+06
3.12705e+06
3.11328e+06
3.10311e+06
3.10214e+06
3.10095e+06
3.09955e+06
3.10031e+06
3.09966e+06
3.09982e+06
3.09996e+06
3.09985e+06
3.09991e+06
3.09992e+06
3.09993e+06
3.09993e+06
3.09994e+06
3.09994e+06
3.09994e+06
3.09995e+06
3.09995e+06
3.09995e+06
3.09996e+06
3.09996e+06
3.09996e+06
3.09997e+06
3.09997e+06
3.09997e+06
3.09997e+06
3.09998e+06
3.09998e+06
3.09998e+06
3.09998e+06
3.09998e+06
3.09999e+06
3.09999e+06
3.09999e+06
3.09999e+06
3.09999e+06
3.09999e+06
3.09999e+06
3.09999e+06
3.1e+06
3.1e+06
3.1e+06
3.1e+06
3.1e+06
3.1e+06
3.1e+06
3.1e+06
3.1e+06
3.1e+06
3.1e+06
3.1e+06
3.1e+06
3.1e+06
3.1e+06
3.1e+06
3.1e+06
3.14646e+06
3.13469e+06
3.12312e+06
3.11357e+06
3.10882e+06
3.10538e+06
3.10323e+06
3.10203e+06
3.10097e+06
3.10076e+06
3.10041e+06
3.10019e+06
3.10013e+06
3.10007e+06
3.10004e+06
3.10002e+06
3.1e+06
3.09999e+06
3.09998e+06
3.09997e+06
3.09997e+06
3.09997e+06
3.09997e+06
3.09997e+06
3.09997e+06
3.09997e+06
3.09997e+06
3.09997e+06
3.09997e+06
3.09998e+06
3.09998e+06
3.09998e+06
3.09998e+06
3.09998e+06
3.09999e+06
3.09999e+06
3.09999e+06
3.09999e+06
3.09999e+06
3.09999e+06
3.09999e+06
3.09999e+06
3.1e+06
3.1e+06
3.1e+06
3.1e+06
3.1e+06
3.1e+06
3.1e+06
3.1e+06
3.1e+06
3.1e+06
3.1e+06
3.1e+06
3.1e+06
3.1e+06
3.1e+06
3.1e+06
3.1e+06
3.1e+06
3.13867e+06
3.1286e+06
3.12171e+06
3.1149e+06
3.11059e+06
3.10612e+06
3.10327e+06
3.10229e+06
3.10119e+06
3.10118e+06
3.10073e+06
3.10047e+06
3.1004e+06
3.10024e+06
3.10017e+06
3.10011e+06
3.10007e+06
3.10004e+06
3.10002e+06
3.1e+06
3.09999e+06
3.09999e+06
3.09998e+06
3.09998e+06
3.09998e+06
3.09998e+06
3.09998e+06
3.09998e+06
3.09998e+06
3.09998e+06
3.09998e+06
3.09998e+06
3.09998e+06
3.09998e+06
3.09999e+06
3.09999e+06
3.09999e+06
3.09999e+06
3.09999e+06
3.09999e+06
3.09999e+06
3.09999e+06
3.1e+06
3.1e+06
3.1e+06
3.1e+06
3.1e+06
3.1e+06
3.1e+06
3.1e+06
3.1e+06
3.1e+06
3.1e+06
3.1e+06
3.1e+06
3.1e+06
3.1e+06
3.1e+06
3.1e+06
3.1e+06
3.16527e+06
3.13936e+06
3.12502e+06
3.11811e+06
3.11404e+06
3.10926e+06
3.10548e+06
3.10373e+06
3.10193e+06
3.10163e+06
3.10104e+06
3.10063e+06
3.10056e+06
3.10036e+06
3.10027e+06
3.10019e+06
3.10013e+06
3.10009e+06
3.10006e+06
3.10003e+06
3.10002e+06
3.1e+06
3.09999e+06
3.09999e+06
3.09998e+06
3.09998e+06
3.09998e+06
3.09998e+06
3.09998e+06
3.09998e+06
3.09998e+06
3.09998e+06
3.09998e+06
3.09999e+06
3.09999e+06
3.09999e+06
3.09999e+06
3.09999e+06
3.09999e+06
3.09999e+06
3.09999e+06
3.09999e+06
3.1e+06
3.1e+06
3.1e+06
3.1e+06
3.1e+06
3.1e+06
3.1e+06
3.1e+06
3.1e+06
3.1e+06
3.1e+06
3.1e+06
3.1e+06
3.1e+06
3.1e+06
3.1e+06
3.1e+06
3.1e+06
3.13629e+06
3.12854e+06
3.12347e+06
3.11784e+06
3.11427e+06
3.10952e+06
3.10583e+06
3.10426e+06
3.10245e+06
3.10202e+06
3.10137e+06
3.10084e+06
3.10073e+06
3.10048e+06
3.10035e+06
3.10026e+06
3.10018e+06
3.10013e+06
3.10009e+06
3.10006e+06
3.10004e+06
3.10002e+06
3.10001e+06
3.1e+06
3.09999e+06
3.09999e+06
3.09999e+06
3.09998e+06
3.09998e+06
3.09998e+06
3.09998e+06
3.09999e+06
3.09999e+06
3.09999e+06
3.09999e+06
3.09999e+06
3.09999e+06
3.09999e+06
3.09999e+06
3.09999e+06
3.09999e+06
3.09999e+06
3.1e+06
3.1e+06
3.1e+06
3.1e+06
3.1e+06
3.1e+06
3.1e+06
3.1e+06
3.1e+06
3.1e+06
3.1e+06
3.1e+06
3.1e+06
3.1e+06
3.1e+06
3.1e+06
3.1e+06
3.1e+06
3.10101e+06
3.10974e+06
3.11514e+06
3.11419e+06
3.11326e+06
3.10856e+06
3.10544e+06
3.10408e+06
3.10232e+06
3.10198e+06
3.10138e+06
3.10085e+06
3.10078e+06
3.10053e+06
3.1004e+06
3.1003e+06
3.10022e+06
3.10016e+06
3.10011e+06
3.10008e+06
3.10005e+06
3.10003e+06
3.10002e+06
3.10001e+06
3.1e+06
3.09999e+06
3.09999e+06
3.09999e+06
3.09999e+06
3.09999e+06
3.09999e+06
3.09999e+06
3.09999e+06
3.09999e+06
3.09999e+06
3.09999e+06
3.09999e+06
3.09999e+06
3.09999e+06
3.09999e+06
3.09999e+06
3.09999e+06
3.1e+06
3.1e+06
3.1e+06
3.1e+06
3.1e+06
3.1e+06
3.1e+06
3.1e+06
3.1e+06
3.1e+06
3.1e+06
3.1e+06
3.1e+06
3.1e+06
3.1e+06
3.1e+06
3.1e+06
3.1e+06
3.0903e+06
3.09871e+06
3.10757e+06
3.11058e+06
3.11169e+06
3.10794e+06
3.10537e+06
3.10411e+06
3.10225e+06
3.10192e+06
3.10134e+06
3.10083e+06
3.10077e+06
3.10054e+06
3.10042e+06
3.10032e+06
3.10024e+06
3.10018e+06
3.10013e+06
3.10009e+06
3.10007e+06
3.10004e+06
3.10003e+06
3.10002e+06
3.10001e+06
3.1e+06
3.1e+06
3.09999e+06
3.09999e+06
3.09999e+06
3.09999e+06
3.09999e+06
3.09999e+06
3.09999e+06
3.09999e+06
3.09999e+06
3.09999e+06
3.09999e+06
3.09999e+06
3.09999e+06
3.09999e+06
3.09999e+06
3.1e+06
3.1e+06
3.1e+06
3.1e+06
3.1e+06
3.1e+06
3.1e+06
3.1e+06
3.1e+06
3.1e+06
3.1e+06
3.1e+06
3.1e+06
3.1e+06
3.1e+06
3.1e+06
3.1e+06
3.1e+06
3.07058e+06
3.087e+06
3.10002e+06
3.10537e+06
3.10827e+06
3.10602e+06
3.10422e+06
3.10348e+06
3.10198e+06
3.10182e+06
3.1013e+06
3.10084e+06
3.10077e+06
3.10055e+06
3.10043e+06
3.10033e+06
3.10025e+06
3.10019e+06
3.10014e+06
3.1001e+06
3.10008e+06
3.10005e+06
3.10004e+06
3.10002e+06
3.10001e+06
3.1e+06
3.1e+06
3.1e+06
3.09999e+06
3.09999e+06
3.09999e+06
3.09999e+06
3.09999e+06
3.09999e+06
3.09999e+06
3.09999e+06
3.09999e+06
3.09999e+06
3.09999e+06
3.09999e+06
3.09999e+06
3.1e+06
3.1e+06
3.1e+06
3.1e+06
3.1e+06
3.1e+06
3.1e+06
3.1e+06
3.1e+06
3.1e+06
3.1e+06
3.1e+06
3.1e+06
3.1e+06
3.1e+06
3.1e+06
3.1e+06
3.1e+06
3.1e+06
3.07988e+06
3.09154e+06
3.10128e+06
3.10486e+06
3.10732e+06
3.10565e+06
3.10426e+06
3.10358e+06
3.10203e+06
3.10173e+06
3.10125e+06
3.1008e+06
3.10072e+06
3.10053e+06
3.10041e+06
3.10033e+06
3.10025e+06
3.10019e+06
3.10015e+06
3.10011e+06
3.10008e+06
3.10006e+06
3.10004e+06
3.10003e+06
3.10002e+06
3.10001e+06
3.1e+06
3.1e+06
3.1e+06
3.09999e+06
3.09999e+06
3.09999e+06
3.09999e+06
3.09999e+06
3.09999e+06
3.09999e+06
3.09999e+06
3.09999e+06
3.09999e+06
3.09999e+06
3.09999e+06
3.1e+06
3.1e+06
3.1e+06
3.1e+06
3.1e+06
3.1e+06
3.1e+06
3.1e+06
3.1e+06
3.1e+06
3.1e+06
3.1e+06
3.1e+06
3.1e+06
3.1e+06
3.1e+06
3.1e+06
3.1e+06
3.1e+06
3.09887e+06
3.10262e+06
3.10432e+06
3.10593e+06
3.10611e+06
3.1051e+06
3.10391e+06
3.1029e+06
3.102e+06
3.10147e+06
3.10113e+06
3.10081e+06
3.10067e+06
3.1005e+06
3.1004e+06
3.10031e+06
3.10024e+06
3.10019e+06
3.10015e+06
3.10011e+06
3.10009e+06
3.10006e+06
3.10005e+06
3.10003e+06
3.10002e+06
3.10001e+06
3.10001e+06
3.1e+06
3.1e+06
3.1e+06
3.09999e+06
3.09999e+06
3.09999e+06
3.09999e+06
3.09999e+06
3.09999e+06
3.09999e+06
3.09999e+06
3.09999e+06
3.09999e+06
3.1e+06
3.1e+06
3.1e+06
3.1e+06
3.1e+06
3.1e+06
3.1e+06
3.1e+06
3.1e+06
3.1e+06
3.1e+06
3.1e+06
3.1e+06
3.1e+06
3.1e+06
3.1e+06
3.1e+06
3.1e+06
3.1e+06
3.1e+06
3.11389e+06
3.10994e+06
3.10854e+06
3.10775e+06
3.10697e+06
3.10566e+06
3.10427e+06
3.10305e+06
3.10213e+06
3.10144e+06
3.10107e+06
3.10076e+06
3.1006e+06
3.10047e+06
3.10037e+06
3.10029e+06
3.10023e+06
3.10018e+06
3.10015e+06
3.10011e+06
3.10009e+06
3.10007e+06
3.10005e+06
3.10003e+06
3.10002e+06
3.10001e+06
3.10001e+06
3.1e+06
3.1e+06
3.1e+06
3.1e+06
3.1e+06
3.09999e+06
3.09999e+06
3.09999e+06
3.09999e+06
3.09999e+06
3.09999e+06
3.09999e+06
3.1e+06
3.1e+06
3.1e+06
3.1e+06
3.1e+06
3.1e+06
3.1e+06
3.1e+06
3.1e+06
3.1e+06
3.1e+06
3.1e+06
3.1e+06
3.1e+06
3.1e+06
3.1e+06
3.1e+06
3.1e+06
3.1e+06
3.1e+06
3.1e+06
3.11782e+06
3.11264e+06
3.10995e+06
3.10804e+06
3.10653e+06
3.10531e+06
3.10382e+06
3.10265e+06
3.10197e+06
3.10143e+06
3.10108e+06
3.10078e+06
3.1006e+06
3.10046e+06
3.10036e+06
3.10029e+06
3.10023e+06
3.10018e+06
3.10014e+06
3.10011e+06
3.10009e+06
3.10007e+06
3.10005e+06
3.10004e+06
3.10003e+06
3.10002e+06
3.10001e+06
3.10001e+06
3.1e+06
3.1e+06
3.1e+06
3.1e+06
3.1e+06
3.1e+06
3.09999e+06
3.09999e+06
3.09999e+06
3.1e+06
3.1e+06
3.1e+06
3.1e+06
3.1e+06
3.1e+06
3.1e+06
3.1e+06
3.1e+06
3.1e+06
3.1e+06
3.1e+06
3.1e+06
3.1e+06
3.1e+06
3.1e+06
3.1e+06
3.1e+06
3.1e+06
3.1e+06
3.1e+06
3.1e+06
3.1e+06
3.11711e+06
3.11283e+06
3.11043e+06
3.10842e+06
3.10635e+06
3.10496e+06
3.10348e+06
3.10247e+06
3.10185e+06
3.10132e+06
3.10099e+06
3.10073e+06
3.10056e+06
3.10044e+06
3.10035e+06
3.10027e+06
3.10022e+06
3.10017e+06
3.10014e+06
3.10011e+06
3.10009e+06
3.10007e+06
3.10005e+06
3.10004e+06
3.10003e+06
3.10002e+06
3.10001e+06
3.10001e+06
3.1e+06
3.1e+06
3.1e+06
3.1e+06
3.1e+06
3.1e+06
3.1e+06
3.1e+06
3.1e+06
3.1e+06
3.1e+06
3.1e+06
3.1e+06
3.1e+06
3.1e+06
3.1e+06
3.1e+06
3.1e+06
3.1e+06
3.1e+06
3.1e+06
3.1e+06
3.1e+06
3.1e+06
3.1e+06
3.1e+06
3.1e+06
3.1e+06
3.1e+06
3.1e+06
3.1e+06
3.1e+06
3.11219e+06
3.11075e+06
3.11011e+06
3.1085e+06
3.10647e+06
3.10489e+06
3.10335e+06
3.10239e+06
3.10181e+06
3.10129e+06
3.10097e+06
3.10072e+06
3.10054e+06
3.10042e+06
3.10033e+06
3.10026e+06
3.10021e+06
3.10016e+06
3.10013e+06
3.1001e+06
3.10008e+06
3.10006e+06
3.10005e+06
3.10004e+06
3.10003e+06
3.10002e+06
3.10001e+06
3.10001e+06
3.10001e+06
3.1e+06
3.1e+06
3.1e+06
3.1e+06
3.1e+06
3.1e+06
3.1e+06
3.1e+06
3.1e+06
3.1e+06
3.1e+06
3.1e+06
3.1e+06
3.1e+06
3.1e+06
3.1e+06
3.1e+06
3.1e+06
3.1e+06
3.1e+06
3.1e+06
3.1e+06
3.1e+06
3.1e+06
3.1e+06
3.1e+06
3.1e+06
3.1e+06
3.1e+06
3.1e+06
3.1e+06
3.1051e+06
3.10597e+06
3.10731e+06
3.10698e+06
3.10596e+06
3.10461e+06
3.10319e+06
3.10232e+06
3.10171e+06
3.10124e+06
3.10093e+06
3.10069e+06
3.10052e+06
3.1004e+06
3.10031e+06
3.10025e+06
3.1002e+06
3.10016e+06
3.10012e+06
3.1001e+06
3.10008e+06
3.10006e+06
3.10005e+06
3.10004e+06
3.10003e+06
3.10002e+06
3.10001e+06
3.10001e+06
3.10001e+06
3.1e+06
3.1e+06
3.1e+06
3.1e+06
3.1e+06
3.1e+06
3.1e+06
3.1e+06
3.1e+06
3.1e+06
3.1e+06
3.1e+06
3.1e+06
3.1e+06
3.1e+06
3.1e+06
3.1e+06
3.1e+06
3.1e+06
3.1e+06
3.1e+06
3.1e+06
3.1e+06
3.1e+06
3.1e+06
3.1e+06
3.1e+06
3.1e+06
3.1e+06
3.1e+06
3.1e+06
3.10494e+06
3.10521e+06
3.10635e+06
3.1062e+06
3.10533e+06
3.10419e+06
3.10307e+06
3.10225e+06
3.10162e+06
3.10117e+06
3.10088e+06
3.10065e+06
3.10048e+06
3.10037e+06
3.10029e+06
3.10023e+06
3.10018e+06
3.10014e+06
3.10012e+06
3.10009e+06
3.10007e+06
3.10006e+06
3.10005e+06
3.10004e+06
3.10003e+06
3.10002e+06
3.10001e+06
3.10001e+06
3.10001e+06
3.10001e+06
3.1e+06
3.1e+06
3.1e+06
3.1e+06
3.1e+06
3.1e+06
3.1e+06
3.1e+06
3.1e+06
3.1e+06
3.1e+06
3.1e+06
3.1e+06
3.1e+06
3.1e+06
3.1e+06
3.1e+06
3.1e+06
3.1e+06
3.1e+06
3.1e+06
3.1e+06
3.1e+06
3.1e+06
3.1e+06
3.1e+06
3.1e+06
3.1e+06
3.1e+06
3.1e+06
3.10387e+06
3.10542e+06
3.10622e+06
3.10559e+06
3.10479e+06
3.10379e+06
3.10287e+06
3.10208e+06
3.10149e+06
3.1011e+06
3.10081e+06
3.10059e+06
3.10044e+06
3.10033e+06
3.10026e+06
3.10021e+06
3.10017e+06
3.10013e+06
3.10011e+06
3.10009e+06
3.10007e+06
3.10005e+06
3.10004e+06
3.10003e+06
3.10003e+06
3.10002e+06
3.10002e+06
3.10001e+06
3.10001e+06
3.10001e+06
3.1e+06
3.1e+06
3.1e+06
3.1e+06
3.1e+06
3.1e+06
3.1e+06
3.1e+06
3.1e+06
3.1e+06
3.1e+06
3.1e+06
3.1e+06
3.1e+06
3.1e+06
3.1e+06
3.1e+06
3.1e+06
3.1e+06
3.1e+06
3.1e+06
3.1e+06
3.1e+06
3.1e+06
3.1e+06
3.1e+06
3.1e+06
3.1e+06
3.1e+06
3.1e+06
3.1004e+06
3.10368e+06
3.10489e+06
3.10518e+06
3.10425e+06
3.10323e+06
3.10248e+06
3.10188e+06
3.10135e+06
3.10098e+06
3.10071e+06
3.10052e+06
3.10038e+06
3.10029e+06
3.10023e+06
3.10018e+06
3.10015e+06
3.10012e+06
3.10009e+06
3.10008e+06
3.10006e+06
3.10005e+06
3.10004e+06
3.10003e+06
3.10002e+06
3.10002e+06
3.10002e+06
3.10001e+06
3.10001e+06
3.10001e+06
3.10001e+06
3.1e+06
3.1e+06
3.1e+06
3.1e+06
3.1e+06
3.1e+06
3.1e+06
3.1e+06
3.1e+06
3.1e+06
3.1e+06
3.1e+06
3.1e+06
3.1e+06
3.1e+06
3.1e+06
3.1e+06
3.1e+06
3.1e+06
3.1e+06
3.1e+06
3.1e+06
3.1e+06
3.1e+06
3.1e+06
3.1e+06
3.1e+06
3.1e+06
3.1e+06
3.09244e+06
3.09843e+06
3.1023e+06
3.10366e+06
3.10353e+06
3.10279e+06
3.10196e+06
3.10144e+06
3.10111e+06
3.10083e+06
3.1006e+06
3.10043e+06
3.10031e+06
3.10024e+06
3.10019e+06
3.10015e+06
3.10012e+06
3.1001e+06
3.10008e+06
3.10007e+06
3.10005e+06
3.10004e+06
3.10004e+06
3.10003e+06
3.10002e+06
3.10002e+06
3.10002e+06
3.10001e+06
3.10001e+06
3.10001e+06
3.10001e+06
3.10001e+06
3.1e+06
3.1e+06
3.1e+06
3.1e+06
3.1e+06
3.1e+06
3.1e+06
3.1e+06
3.1e+06
3.1e+06
3.1e+06
3.1e+06
3.1e+06
3.1e+06
3.1e+06
3.1e+06
3.1e+06
3.1e+06
3.1e+06
3.1e+06
3.1e+06
3.1e+06
3.1e+06
3.1e+06
3.1e+06
3.1e+06
3.1e+06
3.1e+06
3.08758e+06
3.09741e+06
3.1019e+06
3.10331e+06
3.10322e+06
3.1021e+06
3.10154e+06
3.10121e+06
3.10088e+06
3.10065e+06
3.10047e+06
3.10033e+06
3.10024e+06
3.10018e+06
3.10015e+06
3.10012e+06
3.1001e+06
3.10008e+06
3.10006e+06
3.10005e+06
3.10005e+06
3.10004e+06
3.10003e+06
3.10003e+06
3.10002e+06
3.10002e+06
3.10002e+06
3.10001e+06
3.10001e+06
3.10001e+06
3.10001e+06
3.10001e+06
3.1e+06
3.1e+06
3.1e+06
3.1e+06
3.1e+06
3.1e+06
3.1e+06
3.1e+06
3.1e+06
3.1e+06
3.1e+06
3.1e+06
3.1e+06
3.1e+06
3.1e+06
3.1e+06
3.1e+06
3.1e+06
3.1e+06
3.1e+06
3.1e+06
3.1e+06
3.1e+06
3.1e+06
3.1e+06
3.1e+06
3.1e+06
3.1e+06
3.08418e+06
3.09288e+06
3.09893e+06
3.10147e+06
3.10244e+06
3.10165e+06
3.10116e+06
3.1009e+06
3.10059e+06
3.10044e+06
3.10031e+06
3.10022e+06
3.10014e+06
3.10012e+06
3.1001e+06
3.10008e+06
3.10007e+06
3.10006e+06
3.10005e+06
3.10004e+06
3.10004e+06
3.10003e+06
3.10003e+06
3.10002e+06
3.10002e+06
3.10002e+06
3.10002e+06
3.10001e+06
3.10001e+06
3.10001e+06
3.10001e+06
3.10001e+06
3.10001e+06
3.1e+06
3.1e+06
3.1e+06
3.1e+06
3.1e+06
3.1e+06
3.1e+06
3.1e+06
3.1e+06
3.1e+06
3.1e+06
3.1e+06
3.1e+06
3.1e+06
3.1e+06
3.1e+06
3.1e+06
3.1e+06
3.1e+06
3.1e+06
3.1e+06
3.1e+06
3.1e+06
3.1e+06
3.1e+06
3.1e+06
3.1e+06
3.08234e+06
3.09105e+06
3.09674e+06
3.10007e+06
3.10124e+06
3.10077e+06
3.10052e+06
3.10043e+06
3.10023e+06
3.10018e+06
3.10013e+06
3.10008e+06
3.10005e+06
3.10004e+06
3.10004e+06
3.10003e+06
3.10003e+06
3.10003e+06
3.10003e+06
3.10003e+06
3.10003e+06
3.10003e+06
3.10002e+06
3.10002e+06
3.10002e+06
3.10002e+06
3.10002e+06
3.10001e+06
3.10001e+06
3.10001e+06
3.10001e+06
3.10001e+06
3.10001e+06
3.10001e+06
3.1e+06
3.1e+06
3.1e+06
3.1e+06
3.1e+06
3.1e+06
3.1e+06
3.1e+06
3.1e+06
3.1e+06
3.1e+06
3.1e+06
3.1e+06
3.1e+06
3.1e+06
3.1e+06
3.1e+06
3.1e+06
3.1e+06
3.1e+06
3.1e+06
3.1e+06
3.1e+06
3.1e+06
3.1e+06
3.1e+06
3.08571e+06
3.09152e+06
3.09568e+06
3.09834e+06
3.09948e+06
3.09953e+06
3.09968e+06
3.09986e+06
3.09982e+06
3.09987e+06
3.0999e+06
3.09992e+06
3.09993e+06
3.09995e+06
3.09997e+06
3.09998e+06
3.1e+06
3.10001e+06
3.10001e+06
3.10002e+06
3.10002e+06
3.10002e+06
3.10002e+06
3.10002e+06
3.10002e+06
3.10002e+06
3.10002e+06
3.10001e+06
3.10001e+06
3.10001e+06
3.10001e+06
3.10001e+06
3.10001e+06
3.10001e+06
3.10001e+06
3.1e+06
3.1e+06
3.1e+06
3.1e+06
3.1e+06
3.1e+06
3.1e+06
3.1e+06
3.1e+06
3.1e+06
3.1e+06
3.1e+06
3.1e+06
3.1e+06
3.1e+06
3.1e+06
3.1e+06
3.1e+06
3.1e+06
3.1e+06
3.1e+06
3.1e+06
3.1e+06
3.1e+06
3.1e+06
3.08324e+06
3.09004e+06
3.09387e+06
3.09637e+06
3.09775e+06
3.09812e+06
3.09857e+06
3.09906e+06
3.09929e+06
3.09951e+06
3.09964e+06
3.09975e+06
3.09981e+06
3.09987e+06
3.09991e+06
3.09994e+06
3.09997e+06
3.09998e+06
3.1e+06
3.10001e+06
3.10001e+06
3.10001e+06
3.10002e+06
3.10002e+06
3.10002e+06
3.10002e+06
3.10002e+06
3.10002e+06
3.10001e+06
3.10001e+06
3.10001e+06
3.10001e+06
3.10001e+06
3.10001e+06
3.10001e+06
3.10001e+06
3.1e+06
3.1e+06
3.1e+06
3.1e+06
3.1e+06
3.1e+06
3.1e+06
3.1e+06
3.1e+06
3.1e+06
3.1e+06
3.1e+06
3.1e+06
3.1e+06
3.1e+06
3.1e+06
3.1e+06
3.1e+06
3.1e+06
3.1e+06
3.1e+06
3.1e+06
3.1e+06
3.1e+06
3.08774e+06
3.08936e+06
3.09196e+06
3.09483e+06
3.09646e+06
3.09731e+06
3.0978e+06
3.0983e+06
3.09882e+06
3.09921e+06
3.09942e+06
3.09961e+06
3.09971e+06
3.09979e+06
3.09986e+06
3.0999e+06
3.09994e+06
3.09996e+06
3.09998e+06
3.1e+06
3.1e+06
3.10001e+06
3.10001e+06
3.10002e+06
3.10002e+06
3.10002e+06
3.10002e+06
3.10002e+06
3.10002e+06
3.10001e+06
3.10001e+06
3.10001e+06
3.10001e+06
3.10001e+06
3.10001e+06
3.10001e+06
3.1e+06
3.1e+06
3.1e+06
3.1e+06
3.1e+06
3.1e+06
3.1e+06
3.1e+06
3.1e+06
3.1e+06
3.1e+06
3.1e+06
3.1e+06
3.1e+06
3.1e+06
3.1e+06
3.1e+06
3.1e+06
3.1e+06
3.1e+06
3.1e+06
3.1e+06
3.1e+06
3.1e+06
3.09142e+06
3.09203e+06
3.09232e+06
3.09399e+06
3.09537e+06
3.0964e+06
3.0972e+06
3.09789e+06
3.09849e+06
3.09896e+06
3.09922e+06
3.09948e+06
3.09961e+06
3.09973e+06
3.09982e+06
3.09987e+06
3.09992e+06
3.09995e+06
3.09997e+06
3.09999e+06
3.1e+06
3.10001e+06
3.10001e+06
3.10002e+06
3.10002e+06
3.10002e+06
3.10002e+06
3.10002e+06
3.10002e+06