/*--------------------------------*- C++ -*----------------------------------*\
| =========                 |                                                 |
| \\      /  F ield         | OpenFOAM: The Open Source CFD Toolbox           |
|  \\    /   O peration     | Version:  v2012                                 |
|   \\  /    A nd           | Website:  www.openfoam.com                      |
|    \\/     M anipulation  |                                                 |
\*---------------------------------------------------------------------------*/
FoamFile
{
    version     2.0;
    format      ascii;
    class       volVectorField;
    location    "0.7";
    object      U;
}
// * * * * * * * * * * * * * * * * * * * * * * * * * * * * * * * * * * * * * //

dimensions      [0 1 -1 0 0 0 0];


internalField   nonuniform List<vector> 
15860
(
(7.90425e-06 -0.00416658 -6.94391e-08)
(3.01565e-05 -0.00424348 -2.65274e-07)
(2.65879e-05 -0.00431689 -2.3217e-07)
(1.66183e-05 -0.00435527 -1.4414e-07)
(6.63613e-05 -0.0044084 -5.79649e-07)
(5.70567e-05 -0.00442714 -5.00818e-07)
(6.88864e-05 -0.00446314 -6.02951e-07)
(9.0269e-05 -0.00448131 -7.88631e-07)
(8.11949e-05 -0.00449744 -7.09222e-07)
(9.87582e-05 -0.00451551 -8.65539e-07)
(0.000126094 -0.00452883 -1.10441e-06)
(0.000148211 -0.00453445 -1.2935e-06)
(0.00017141 -0.00453676 -1.49559e-06)
(0.000194938 -0.00453559 -1.702e-06)
(0.00021794 -0.00452909 -1.9022e-06)
(0.000238715 -0.00451876 -2.08327e-06)
(0.000260455 -0.00450612 -2.27292e-06)
(0.000281766 -0.00448654 -2.459e-06)
(0.00030254 -0.00446493 -2.64033e-06)
(0.000324015 -0.00443709 -2.82777e-06)
(0.00034476 -0.00440547 -3.00891e-06)
(0.000365702 -0.00436847 -3.19173e-06)
(0.000386138 -0.00432667 -3.37012e-06)
(0.000406199 -0.00427965 -3.54523e-06)
(0.000425615 -0.0042274 -3.7147e-06)
(0.000444292 -0.00416972 -3.87772e-06)
(0.00046205 -0.00410653 -4.03271e-06)
(0.000478748 -0.00403773 -4.17846e-06)
(0.000494221 -0.00396327 -4.31351e-06)
(0.000508303 -0.00388312 -4.43642e-06)
(0.000520821 -0.00379731 -4.54567e-06)
(0.000531605 -0.00370587 -4.63978e-06)
(0.000540477 -0.00360893 -4.71723e-06)
(0.000547258 -0.00350663 -4.77641e-06)
(0.000551774 -0.00339916 -4.81585e-06)
(0.000553884 -0.0032868 -4.83429e-06)
(0.000553465 -0.00316981 -4.83061e-06)
(0.000550411 -0.00304858 -4.80399e-06)
(0.000544643 -0.00292349 -4.75369e-06)
(0.000536107 -0.00279504 -4.67924e-06)
(0.000524772 -0.00266369 -4.58036e-06)
(0.000510643 -0.00252997 -4.4571e-06)
(0.000493765 -0.00239445 -4.30984e-06)
(0.000474213 -0.00225766 -4.13924e-06)
(0.00045211 -0.00212022 -3.94638e-06)
(0.000427606 -0.00198263 -3.73254e-06)
(0.000400889 -0.00184542 -3.4994e-06)
(0.000372197 -0.00170908 -3.249e-06)
(0.000341793 -0.00157399 -2.98365e-06)
(0.000309977 -0.0014405 -2.70597e-06)
(0.000277082 -0.0013088 -2.41886e-06)
(0.000243468 -0.00117894 -2.12547e-06)
(0.000209531 -0.00105085 -1.82925e-06)
(0.00017569 -0.000924169 -1.53386e-06)
(0.000142402 -0.000798245 -1.24329e-06)
(0.000110167 -0.000671983 -9.61906e-07)
(7.9559e-05 -0.000543602 -6.94708e-07)
(5.11892e-05 -0.000410182 -4.47039e-07)
(2.61214e-05 -0.000267009 -2.28283e-07)
(4.84155e-06 -0.000103619 -4.54213e-08)
(1.84288e-05 -0.00423904 -1.60518e-07)
(9.49364e-06 -0.00431278 -8.33659e-08)
(2.5853e-05 -0.00441101 -2.30479e-07)
(6.11898e-05 -0.00442326 -5.3458e-07)
(4.11329e-05 -0.00451477 -3.56342e-07)
(0.000105395 -0.00450079 -9.20076e-07)
(9.652e-05 -0.00456547 -8.43613e-07)
(0.000131798 -0.00456846 -1.15188e-06)
(0.000156597 -0.0045972 -1.36756e-06)
(0.000167161 -0.00460177 -1.46119e-06)
(0.000180206 -0.00460869 -1.57505e-06)
(0.000198611 -0.00461072 -1.7323e-06)
(0.000210196 -0.00461476 -1.83453e-06)
(0.000225106 -0.00460879 -1.96578e-06)
(0.000242002 -0.00460275 -2.11213e-06)
(0.000257624 -0.00459056 -2.24814e-06)
(0.000277012 -0.00457667 -2.41728e-06)
(0.00029647 -0.00455543 -2.58716e-06)
(0.000315462 -0.00453174 -2.75309e-06)
(0.000335807 -0.00450198 -2.93079e-06)
(0.000355558 -0.00446817 -3.10315e-06)
(0.000375698 -0.00442907 -3.27894e-06)
(0.00039533 -0.0043849 -3.45035e-06)
(0.000414687 -0.00433541 -3.61929e-06)
(0.00043353 -0.00428051 -3.78375e-06)
(0.000451709 -0.00422007 -3.9424e-06)
(0.000469037 -0.00415401 -4.09364e-06)
(0.000485343 -0.00408227 -4.23596e-06)
(0.000500456 -0.0040048 -4.36786e-06)
(0.000514195 -0.00392159 -4.48777e-06)
(0.000526378 -0.00383268 -4.59409e-06)
(0.000536828 -0.00373814 -4.68528e-06)
(0.000545372 -0.00363808 -4.75983e-06)
(0.000551832 -0.00353268 -4.81621e-06)
(0.000556042 -0.00342215 -4.85296e-06)
(0.000557857 -0.00330677 -4.86882e-06)
(0.00055715 -0.00318686 -4.86262e-06)
(0.000553809 -0.00306278 -4.83348e-06)
(0.000547754 -0.00293498 -4.78067e-06)
(0.000538932 -0.00280392 -4.70372e-06)
(0.000527316 -0.00267011 -4.60239e-06)
(0.000512913 -0.0025341 -4.47673e-06)
(0.000495768 -0.00239643 -4.32715e-06)
(0.000475959 -0.00225769 -4.15432e-06)
(0.000453609 -0.00211847 -3.95931e-06)
(0.000428873 -0.0019793 -3.74346e-06)
(0.000401938 -0.0018407 -3.50843e-06)
(0.000373044 -0.00170317 -3.25628e-06)
(0.000342453 -0.0015671 -2.98931e-06)
(0.000310466 -0.00143282 -2.71016e-06)
(0.000277415 -0.00130053 -2.4217e-06)
(0.000243659 -0.00117027 -2.12709e-06)
(0.000209592 -0.00104197 -1.82976e-06)
(0.000175634 -0.000915258 -1.53337e-06)
(0.000142237 -0.000789486 -1.24187e-06)
(0.0001099 -0.000663558 -9.59622e-07)
(7.9194e-05 -0.000535699 -6.91599e-07)
(5.07172e-05 -0.000403028 -4.43033e-07)
(2.55531e-05 -0.00026084 -2.23531e-07)
(4.25706e-06 -9.95324e-05 -4.19657e-08)
(1.86056e-05 -0.00426053 -1.62374e-07)
(-2.45174e-06 -0.0043458 2.09355e-08)
(3.87389e-05 -0.00442608 -3.34741e-07)
(3.13233e-05 -0.00446422 -2.71838e-07)
(5.41431e-05 -0.00453838 -4.85497e-07)
(0.000105082 -0.0045291 -9.18688e-07)
(3.89517e-05 -0.00459952 -3.35512e-07)
(0.000122669 -0.00458828 -1.07531e-06)
(9.14264e-05 -0.00461739 -7.97896e-07)
(0.00013567 -0.00462539 -1.18336e-06)
(0.00015007 -0.00463475 -1.30757e-06)
(0.000168177 -0.00463457 -1.46783e-06)
(0.0001895 -0.0046443 -1.65651e-06)
(0.000217113 -0.00463628 -1.89523e-06)
(0.000236216 -0.00463267 -2.06089e-06)
(0.000256504 -0.004621 -2.23823e-06)
(0.000278126 -0.00460771 -2.42684e-06)
(0.00029994 -0.00458749 -2.61737e-06)
(0.000319896 -0.00456429 -2.7916e-06)
(0.000341549 -0.00453509 -2.98071e-06)
(0.000361391 -0.00450141 -3.154e-06)
(0.000382137 -0.00446232 -3.33511e-06)
(0.000402176 -0.00441804 -3.51006e-06)
(0.000421929 -0.00436827 -3.68249e-06)
(0.000441035 -0.0043129 -3.84925e-06)
(0.00045942 -0.0042518 -4.00972e-06)
(0.000476874 -0.0041849 -4.16207e-06)
(0.000493253 -0.00411212 -4.30504e-06)
(0.000508383 -0.00403344 -4.43708e-06)
(0.000522088 -0.00394885 -4.55669e-06)
(0.000534183 -0.0038584 -4.66225e-06)
(0.000544495 -0.00376217 -4.75223e-06)
(0.000552852 -0.0036603 -4.82515e-06)
(0.000559085 -0.00355297 -4.87956e-06)
(0.000563032 -0.00344041 -4.91401e-06)
(0.000564556 -0.00332294 -4.92732e-06)
(0.000563529 -0.00320088 -4.91833e-06)
(0.000559838 -0.00307463 -4.88614e-06)
(0.000553404 -0.00294465 -4.83002e-06)
(0.000544179 -0.00281145 -4.74955e-06)
(0.000532143 -0.00267554 -4.64454e-06)
(0.000517306 -0.00253749 -4.51509e-06)
(0.000499721 -0.00239789 -4.36166e-06)
(0.000479469 -0.00225732 -4.18496e-06)
(0.000456682 -0.0021164 -3.98613e-06)
(0.000431517 -0.00197569 -3.76654e-06)
(0.000404169 -0.0018357 -3.5279e-06)
(0.00037488 -0.00169696 -3.2723e-06)
(0.000343917 -0.00155985 -3.00208e-06)
(0.000311582 -0.00142473 -2.71989e-06)
(0.000278208 -0.00129177 -2.42861e-06)
(0.000244154 -0.00116105 -2.1314e-06)
(0.000209813 -0.00103247 -1.83168e-06)
(0.000175603 -0.000905681 -1.53309e-06)
(0.000141975 -0.000780026 -1.23959e-06)
(0.000109425 -0.000654419 -9.55485e-07)
(7.85219e-05 -0.000527093 -6.85748e-07)
(4.98647e-05 -0.00039522 -4.35615e-07)
(2.45783e-05 -0.000254132 -2.15085e-07)
(3.68736e-06 -9.53214e-05 -3.71918e-08)
(2.38219e-05 -0.00432905 -2.07689e-07)
(3.3475e-06 -0.00440939 -2.92821e-08)
(4.21835e-05 -0.00447563 -3.66083e-07)
(5.41142e-05 -0.00451704 -4.71377e-07)
(6.32443e-05 -0.00456084 -5.63348e-07)
(0.000135222 -0.00459217 -1.17718e-06)
(8.08631e-05 -0.00463356 -6.9795e-07)
(0.000182855 -0.00463448 -1.60078e-06)
(0.000151454 -0.0046817 -1.32664e-06)
(0.000184618 -0.00466882 -1.61404e-06)
(0.000196055 -0.00470154 -1.70939e-06)
(0.000207062 -0.00469367 -1.80547e-06)
(0.000219662 -0.00470521 -1.9187e-06)
(0.000243385 -0.00469582 -2.12358e-06)
(0.000255399 -0.00469152 -2.22793e-06)
(0.000273481 -0.00467798 -2.38626e-06)
(0.00029318 -0.00466299 -2.558e-06)
(0.000313986 -0.00464101 -2.7398e-06)
(0.000332813 -0.00461586 -2.90428e-06)
(0.000354177 -0.00458502 -3.09084e-06)
(0.000373904 -0.00454936 -3.26303e-06)
(0.000394405 -0.00450829 -3.442e-06)
(0.000414161 -0.00446204 -3.61458e-06)
(0.000433735 -0.00441024 -3.78544e-06)
(0.000452719 -0.00435284 -3.95116e-06)
(0.000470994 -0.00428969 -4.11068e-06)
(0.000488351 -0.0042207 -4.26218e-06)
(0.000504619 -0.00414581 -4.40419e-06)
(0.000519625 -0.00406498 -4.53516e-06)
(0.00053318 -0.00397821 -4.65346e-06)
(0.000545093 -0.00388555 -4.75743e-06)
(0.000555183 -0.00378709 -4.84549e-06)
(0.000563279 -0.00368296 -4.91614e-06)
(0.000569208 -0.00357335 -4.96789e-06)
(0.000572806 -0.00345852 -4.9993e-06)
(0.000573939 -0.00333877 -5.00921e-06)
(0.000572484 -0.00321446 -4.99648e-06)
(0.000568325 -0.003086 -4.96021e-06)
(0.000561384 -0.00295385 -4.89968e-06)
(0.000551622 -0.00281854 -4.81452e-06)
(0.000539022 -0.0026806 -4.7046e-06)
(0.0005236 -0.00254061 -4.57005e-06)
(0.000505417 -0.00239918 -4.41141e-06)
(0.000484561 -0.0022569 -4.22943e-06)
(0.000461169 -0.00211441 -4.02532e-06)
(0.000435409 -0.00197226 -3.80053e-06)
(0.000407481 -0.00183101 -3.55682e-06)
(0.000377632 -0.00169115 -3.29634e-06)
(0.000346136 -0.00155309 -3.02146e-06)
(0.000313298 -0.00141719 -2.73488e-06)
(0.000279454 -0.00128363 -2.4395e-06)
(0.000244964 -0.00115248 -2.13849e-06)
(0.000210222 -0.00102365 -1.83526e-06)
(0.000175645 -0.000896779 -1.53346e-06)
(0.000141682 -0.000771221 -1.23704e-06)
(0.00010883 -0.000645896 -9.50293e-07)
(7.76602e-05 -0.000519045 -6.78228e-07)
(4.8798e-05 -0.000387897 -4.263e-07)
(2.34373e-05 -0.000247876 -2.05109e-07)
(3.21328e-06 -9.15126e-05 -3.26412e-08)
(2.16172e-05 -0.00436573 -1.88511e-07)
(-3.99121e-06 -0.00445974 3.45756e-08)
(3.20868e-05 -0.00452938 -2.78001e-07)
(3.29493e-05 -0.00458382 -2.86813e-07)
(4.47536e-05 -0.00463125 -4.02523e-07)
(8.36922e-05 -0.0046544 -7.29197e-07)
(4.37807e-05 -0.00470241 -3.7701e-07)
(0.000113055 -0.00469317 -9.87352e-07)
(8.18812e-05 -0.00474716 -7.14841e-07)
(0.00014524 -0.00471778 -1.27286e-06)
(0.000138618 -0.00476089 -1.20357e-06)
(0.0001826 -0.0047375 -1.59019e-06)
(0.000195394 -0.00475165 -1.70604e-06)
(0.000236574 -0.00474114 -2.06351e-06)
(0.000251573 -0.00473565 -2.19393e-06)
(0.000276097 -0.00472205 -2.40869e-06)
(0.000298139 -0.00470652 -2.60099e-06)
(0.000321951 -0.00468454 -2.80917e-06)
(0.000341872 -0.00465891 -2.98319e-06)
(0.000364824 -0.00462771 -3.18358e-06)
(0.00038522 -0.00459141 -3.36169e-06)
(0.000406444 -0.00454972 -3.54704e-06)
(0.000426715 -0.00450257 -3.7241e-06)
(0.000446763 -0.00444969 -3.8991e-06)
(0.000466062 -0.004391 -4.06756e-06)
(0.000484577 -0.00432639 -4.22918e-06)
(0.000502082 -0.00425579 -4.38198e-06)
(0.00051843 -0.00417914 -4.5247e-06)
(0.000533444 -0.00409643 -4.65573e-06)
(0.000546938 -0.00400766 -4.77351e-06)
(0.000558721 -0.0039129 -4.87636e-06)
(0.000568614 -0.00381225 -4.96268e-06)
(0.000576443 -0.00370588 -5.03101e-06)
(0.000582037 -0.00359398 -5.07984e-06)
(0.000585234 -0.00347684 -5.10776e-06)
(0.000585903 -0.00335477 -5.11362e-06)
(0.000583923 -0.00322815 -5.09632e-06)
(0.000579186 -0.00309741 -5.055e-06)
(0.000571616 -0.00296302 -4.98898e-06)
(0.000561181 -0.00282555 -4.89796e-06)
(0.000547873 -0.00268554 -4.78186e-06)
(0.000531715 -0.00254358 -4.64088e-06)
(0.000512776 -0.00240029 -4.47565e-06)
(0.000491155 -0.0022563 -4.28699e-06)
(0.000466996 -0.00211223 -4.07619e-06)
(0.000440478 -0.00196867 -3.84479e-06)
(0.000411809 -0.00182615 -3.59462e-06)
(0.000381245 -0.0016852 -3.32789e-06)
(0.000349065 -0.00154624 -3.04704e-06)
(0.00031558 -0.00140959 -2.75481e-06)
(0.000281131 -0.00127547 -2.45415e-06)
(0.000246079 -0.00114393 -2.14823e-06)
(0.00021082 -0.00101488 -1.84049e-06)
(0.000175773 -0.000887967 -1.53459e-06)
(0.000141387 -0.000762538 -1.23446e-06)
(0.000108162 -0.000637522 -9.44466e-07)
(7.66798e-05 -0.000511176 -6.69672e-07)
(4.76158e-05 -0.000380797 -4.15978e-07)
(2.2251e-05 -0.000241965 -1.94726e-07)
(2.78502e-06 -8.81707e-05 -2.85611e-08)
(2.11331e-05 -0.00443117 -1.84305e-07)
(2.02917e-06 -0.00452942 -1.8052e-08)
(5.52437e-05 -0.00457368 -4.79405e-07)
(5.23061e-05 -0.00465482 -4.56084e-07)
(7.80683e-05 -0.00465992 -6.97848e-07)
(0.000127998 -0.00471374 -1.12343e-06)
(0.000101463 -0.00476589 -8.86199e-07)
(0.000188035 -0.00471121 -1.638e-06)
(0.000165002 -0.00484598 -1.42893e-06)
(0.000213582 -0.00473243 -1.86172e-06)
(0.000198512 -0.00483816 -1.72918e-06)
(0.000244046 -0.00478546 -2.12863e-06)
(0.000226511 -0.0048094 -1.97891e-06)
(0.000267517 -0.00479677 -2.33361e-06)
(0.000273455 -0.00479073 -2.38465e-06)
(0.000294533 -0.00477625 -2.56905e-06)
(0.000314651 -0.00475914 -2.74468e-06)
(0.000337409 -0.00473603 -2.94377e-06)
(0.000356702 -0.00470865 -3.11251e-06)
(0.00037968 -0.00467613 -3.31314e-06)
(0.00040032 -0.00463817 -3.49336e-06)
(0.000421693 -0.00459488 -3.68003e-06)
(0.00044224 -0.00454604 -3.85955e-06)
(0.000462552 -0.00449146 -4.03685e-06)
(0.000482104 -0.00443101 -4.20751e-06)
(0.000500816 -0.00436456 -4.37085e-06)
(0.00051847 -0.00429205 -4.52496e-06)
(0.000534903 -0.0042134 -4.66841e-06)
(0.000549935 -0.00412861 -4.79962e-06)
(0.000563375 -0.00403768 -4.91692e-06)
(0.000575027 -0.0039407 -5.01863e-06)
(0.000584707 -0.00383777 -5.10311e-06)
(0.000592243 -0.00372907 -5.16889e-06)
(0.00059746 -0.00361481 -5.21443e-06)
(0.000600199 -0.00349529 -5.23836e-06)
(0.000600331 -0.00337083 -5.23954e-06)
(0.000597739 -0.00324185 -5.2169e-06)
(0.000592319 -0.00310878 -5.16963e-06)
(0.000584004 -0.00297212 -5.09711e-06)
(0.000572769 -0.00283244 -4.9991e-06)
(0.000558614 -0.00269032 -4.87562e-06)
(0.000541574 -0.00254636 -4.72695e-06)
(0.000521729 -0.00240119 -4.5538e-06)
(0.000499187 -0.00225545 -4.35712e-06)
(0.000474107 -0.0021098 -4.13827e-06)
(0.000446676 -0.0019648 -3.8989e-06)
(0.000417113 -0.00182102 -3.64092e-06)
(0.000385684 -0.00167898 -3.36665e-06)
(0.000352677 -0.0015391 -3.07859e-06)
(0.000318409 -0.00140172 -2.77952e-06)
(0.000283228 -0.00126704 -2.47247e-06)
(0.000247497 -0.00113512 -2.16062e-06)
(0.000211616 -0.00100587 -1.84745e-06)
(0.000176006 -0.000878927 -1.53664e-06)
(0.000141119 -0.000753644 -1.23213e-06)
(0.000107463 -0.000628958 -9.38374e-07)
(7.56385e-05 -0.000503148 -6.60588e-07)
(4.63883e-05 -0.000373591 -4.05264e-07)
(2.10869e-05 -0.000236079 -1.84552e-07)
(2.40713e-06 -8.49786e-05 -2.49114e-08)
(1.04066e-05 -0.00447923 -9.05326e-08)
(2.12683e-05 -0.00458045 -1.85178e-07)
(3.13386e-05 -0.0046152 -2.73423e-07)
(5.62382e-05 -0.00470639 -4.911e-07)
(0.000101672 -0.00469678 -8.8753e-07)
(2.60836e-05 -0.0047593 -2.20554e-07)
(0.000139266 -0.00480319 -1.17919e-06)
(8.1675e-05 -0.00474944 -7.25932e-07)
(9.57154e-05 -0.00488682 -9.07295e-07)
(0.000205907 -0.00477621 -1.78538e-06)
(8.97044e-05 -0.00488487 -7.52877e-07)
(0.000247633 -0.00483283 -2.17158e-06)
(0.000191272 -0.00485887 -1.67032e-06)
(0.000264472 -0.00484681 -2.30587e-06)
(0.000271551 -0.00484126 -2.36768e-06)
(0.000300498 -0.00482676 -2.62101e-06)
(0.000323171 -0.00480888 -2.8186e-06)
(0.000349207 -0.0047857 -3.04657e-06)
(0.000369876 -0.00475718 -3.22744e-06)
(0.000394351 -0.00472383 -3.44113e-06)
(0.000416021 -0.00468473 -3.63033e-06)
(0.000438163 -0.00464022 -3.82373e-06)
(0.000459352 -0.00458998 -4.00884e-06)
(0.000480228 -0.00453386 -4.19106e-06)
(0.000500227 -0.00447174 -4.36562e-06)
(0.000519303 -0.0044035 -4.53214e-06)
(0.000537222 -0.00432906 -4.68856e-06)
(0.000553828 -0.00424838 -4.83353e-06)
(0.000568938 -0.00416145 -4.96541e-06)
(0.000582359 -0.0040683 -5.08256e-06)
(0.000593894 -0.003969 -5.18325e-06)
(0.000603358 -0.0038637 -5.26585e-06)
(0.000610577 -0.00375258 -5.32887e-06)
(0.000615377 -0.00363587 -5.37079e-06)
(0.000617602 -0.00351388 -5.39023e-06)
(0.000617125 -0.00338697 -5.3861e-06)
(0.000613833 -0.00325555 -5.35735e-06)
(0.000607631 -0.00312008 -5.30326e-06)
(0.000598457 -0.0029811 -5.22325e-06)
(0.000586297 -0.00283917 -5.11718e-06)
(0.000571164 -0.00269489 -4.98516e-06)
(0.000553102 -0.0025489 -4.82757e-06)
(0.000532205 -0.00240183 -4.64525e-06)
(0.000508595 -0.00225433 -4.43924e-06)
(0.000482442 -0.00210707 -4.21104e-06)
(0.00045395 -0.00196064 -3.96241e-06)
(0.000423347 -0.0018156 -3.69536e-06)
(0.000390913 -0.00167247 -3.41231e-06)
(0.000356944 -0.00153169 -3.11585e-06)
(0.000321766 -0.00139359 -2.80884e-06)
(0.000285734 -0.00125837 -2.49435e-06)
(0.000249216 -0.00112609 -2.17563e-06)
(0.000212617 -0.000996646 -1.85619e-06)
(0.00017636 -0.000869694 -1.53974e-06)
(0.000140905 -0.00074458 -1.23027e-06)
(0.000106772 -0.000620251 -9.32346e-07)
(7.4585e-05 -0.000495017 -6.51396e-07)
(4.51681e-05 -0.000366352 -3.94612e-07)
(1.99851e-05 -0.000230292 -1.74911e-07)
(2.07899e-06 -8.19867e-05 -2.17881e-08)
(5.55554e-06 -0.00454331 -4.82678e-08)
(1.98815e-05 -0.0046385 -1.73523e-07)
(3.67496e-05 -0.00470252 -3.2051e-07)
(3.58931e-05 -0.00475904 -3.14055e-07)
(0.000111188 -0.00479259 -9.73772e-07)
(3.68485e-05 -0.00485166 -3.22137e-07)
(0.000190826 -0.00488253 -1.63606e-06)
(0.000138622 -0.00488568 -1.22085e-06)
(0.000164985 -0.00494094 -1.50051e-06)
(0.000263248 -0.00490164 -2.2775e-06)
(0.000143788 -0.0049488 -1.22663e-06)
(0.000305466 -0.00491799 -2.67763e-06)
(0.00021968 -0.00492663 -1.91965e-06)
(0.000294946 -0.0049128 -2.57196e-06)
(0.000293737 -0.00490289 -2.56121e-06)
(0.000320698 -0.00488565 -2.79705e-06)
(0.000341356 -0.00486503 -2.97733e-06)
(0.000366721 -0.00484038 -3.19951e-06)
(0.000387525 -0.00480967 -3.38151e-06)
(0.00041209 -0.00477492 -3.59585e-06)
(0.000434419 -0.00473412 -3.79083e-06)
(0.000457009 -0.00468795 -3.98816e-06)
(0.000478788 -0.00463596 -4.17843e-06)
(0.000500186 -0.00457803 -4.36519e-06)
(0.000520664 -0.004514 -4.54392e-06)
(0.000540133 -0.00444376 -4.71386e-06)
(0.000558362 -0.00436723 -4.87299e-06)
(0.000575181 -0.00428436 -5.01982e-06)
(0.000590402 -0.00419515 -5.15268e-06)
(0.000603824 -0.00409964 -5.26984e-06)
(0.000615248 -0.00399792 -5.36956e-06)
(0.000624485 -0.00389013 -5.45019e-06)
(0.000631361 -0.00377648 -5.51023e-06)
(0.000635702 -0.00365722 -5.54815e-06)
(0.000637354 -0.00353267 -5.5626e-06)
(0.000636196 -0.0034032 -5.55253e-06)
(0.000632118 -0.00326926 -5.51693e-06)
(0.000625034 -0.00313133 -5.45515e-06)
(0.00061489 -0.00298994 -5.36668e-06)
(0.000601685 -0.00284571 -5.25149e-06)
(0.000585444 -0.00269924 -5.10981e-06)
(0.000566224 -0.00255117 -4.94212e-06)
(0.000544136 -0.00240217 -4.7494e-06)
(0.000519314 -0.00225289 -4.53282e-06)
(0.000491946 -0.00210402 -4.29402e-06)
(0.00046225 -0.00195614 -4.03488e-06)
(0.000430469 -0.00180984 -3.75754e-06)
(0.000396896 -0.00166565 -3.46455e-06)
(0.000361836 -0.00152397 -3.15857e-06)
(0.00032563 -0.00138517 -2.84257e-06)
(0.000288636 -0.00124942 -2.5197e-06)
(0.000251232 -0.0011168 -2.19324e-06)
(0.000213826 -0.000987196 -1.86676e-06)
(0.000176849 -0.000860258 -1.54401e-06)
(0.000140767 -0.00073534 -1.22908e-06)
(0.00010612 -0.000611403 -9.26661e-07)
(7.35587e-05 -0.000486795 -6.42442e-07)
(4.39943e-05 -0.000359096 -3.84365e-07)
(1.89691e-05 -0.000224611 -1.66025e-07)
(1.79876e-06 -7.91732e-05 -1.90709e-08)
(-7.60879e-06 -0.00460711 6.75651e-08)
(-4.55438e-06 -0.00471269 4.31805e-08)
(4.68732e-05 -0.00474762 -4.08271e-07)
(8.24476e-05 -0.00484298 -7.23375e-07)
(0.000101596 -0.00482723 -8.91882e-07)
(-5.1727e-06 -0.00487203 4.55179e-08)
(0.000193483 -0.00489691 -1.66539e-06)
(7.78903e-05 -0.00488472 -6.87009e-07)
(0.000135679 -0.00494902 -1.23988e-06)
(0.000253847 -0.00492289 -2.19678e-06)
(0.000105369 -0.00496523 -8.86999e-07)
(0.000308213 -0.00495983 -2.70214e-06)
(0.000214159 -0.00496735 -1.87133e-06)
(0.000301379 -0.00496274 -2.62733e-06)
(0.00030193 -0.00495471 -2.63257e-06)
(0.000333804 -0.00493971 -2.91173e-06)
(0.000355258 -0.00491921 -3.099e-06)
(0.000382999 -0.00489449 -3.34189e-06)
(0.00040505 -0.00486291 -3.5345e-06)
(0.00043054 -0.00482699 -3.75688e-06)
(0.000454177 -0.00478482 -3.96327e-06)
(0.000477558 -0.0047371 -4.16749e-06)
(0.000500128 -0.0046834 -4.36463e-06)
(0.000522211 -0.00462363 -4.55736e-06)
(0.000543277 -0.00455763 -4.74121e-06)
(0.000563231 -0.00448531 -4.91537e-06)
(0.000581832 -0.00440658 -5.07775e-06)
(0.000598912 -0.0043214 -5.22686e-06)
(0.000614271 -0.00422979 -5.36092e-06)
(0.000627709 -0.00413179 -5.47823e-06)
(0.000639021 -0.00402752 -5.57699e-06)
(0.000648017 -0.00391712 -5.65553e-06)
(0.00065452 -0.00380081 -5.71231e-06)
(0.000658357 -0.00367888 -5.74584e-06)
(0.000659378 -0.00355166 -5.75479e-06)
(0.000657464 -0.00341955 -5.73814e-06)
(0.000652514 -0.00328299 -5.69494e-06)
(0.000644449 -0.00314251 -5.6246e-06)
(0.000633227 -0.00299865 -5.52673e-06)
(0.000618858 -0.00285205 -5.40138e-06)
(0.000601383 -0.00270332 -5.24894e-06)
(0.000580873 -0.00255313 -5.07e-06)
(0.000557457 -0.00240217 -4.86569e-06)
(0.000531285 -0.00225109 -4.63733e-06)
(0.000502565 -0.0021006 -4.38672e-06)
(0.000471529 -0.00195128 -4.11589e-06)
(0.000438437 -0.00180372 -3.82711e-06)
(0.000403596 -0.00165846 -3.52306e-06)
(0.000367327 -0.00151591 -3.20652e-06)
(0.000329978 -0.00137642 -2.88055e-06)
(0.000291921 -0.00124017 -2.54839e-06)
(0.000253538 -0.00110724 -2.21339e-06)
(0.000215246 -0.000977497 -1.87916e-06)
(0.000177483 -0.000850604 -1.54956e-06)
(0.000140725 -0.000725915 -1.22872e-06)
(0.000105533 -0.000602412 -9.2154e-07)
(7.25896e-05 -0.000478486 -6.33987e-07)
(4.28935e-05 -0.000351836 -3.74754e-07)
(1.80506e-05 -0.00021904 -1.5799e-07)
(1.56106e-06 -7.65248e-05 -1.67723e-08)
(-6.83395e-06 -0.0046785 5.96479e-08)
(5.88504e-05 -0.00478951 -5.10789e-07)
(5.21717e-05 -0.00479796 -4.45346e-07)
(4.27252e-05 -0.00494899 -3.73682e-07)
(0.000194584 -0.00487647 -1.70929e-06)
(-1.30454e-05 -0.00506879 1.10666e-07)
(0.00023369 -0.0049768 -2.01632e-06)
(0.000108731 -0.00507893 -9.5647e-07)
(0.000143956 -0.00504789 -1.31436e-06)
(0.000276964 -0.00507056 -2.39995e-06)
(0.000116015 -0.00505853 -9.81251e-07)
(0.000322821 -0.00505824 -2.83078e-06)
(0.000225929 -0.00504549 -1.9738e-06)
(0.000314395 -0.00503697 -2.73966e-06)
(0.000317182 -0.00502175 -2.76588e-06)
(0.000350382 -0.00500373 -3.05688e-06)
(0.000372979 -0.00497984 -3.25407e-06)
(0.000401582 -0.00495301 -3.50423e-06)
(0.00042507 -0.00491967 -3.70935e-06)
(0.000451292 -0.00488196 -3.93802e-06)
(0.000475964 -0.00483809 -4.15345e-06)
(0.000500141 -0.00478855 -4.36457e-06)
(0.000523541 -0.00473292 -4.56893e-06)
(0.000546353 -0.00467112 -4.768e-06)
(0.000568063 -0.00460299 -4.95747e-06)
(0.000588553 -0.0045284 -5.1363e-06)
(0.000607581 -0.00444731 -5.3024e-06)
(0.000624963 -0.00435967 -5.45413e-06)
(0.000640491 -0.0042655 -5.58968e-06)
(0.000653959 -0.00416487 -5.70726e-06)
(0.000665158 -0.00405789 -5.80504e-06)
(0.000673895 -0.00394474 -5.88132e-06)
(0.000679992 -0.00382565 -5.93458e-06)
(0.000683278 -0.00370091 -5.9633e-06)
(0.000683604 -0.0035709 -5.9662e-06)
(0.000680861 -0.00343602 -5.94232e-06)
(0.00067495 -0.00329674 -5.89074e-06)
(0.000665805 -0.00315361 -5.811e-06)
(0.000653395 -0.0030072 -5.70276e-06)
(0.000637744 -0.00285815 -5.56624e-06)
(0.000618911 -0.00270712 -5.40194e-06)
(0.000596982 -0.00255477 -5.21061e-06)
(0.000572105 -0.0024018 -4.99357e-06)
(0.000544451 -0.0022489 -4.75227e-06)
(0.000514244 -0.00209677 -4.48868e-06)
(0.000481737 -0.001946 -4.20502e-06)
(0.000447208 -0.00179719 -3.90369e-06)
(0.000410979 -0.00165087 -3.58752e-06)
(0.000373386 -0.00150747 -3.25943e-06)
(0.000334791 -0.00136731 -2.92258e-06)
(0.000295573 -0.0012306 -2.58029e-06)
(0.000256127 -0.00109737 -2.23601e-06)
(0.000216877 -0.000967526 -1.89341e-06)
(0.000178269 -0.000840712 -1.55643e-06)
(0.000140792 -0.000716293 -1.22931e-06)
(0.00010503 -0.000593272 -9.17159e-07)
(7.17002e-05 -0.000470091 -6.26227e-07)
(4.18832e-05 -0.000344574 -3.65934e-07)
(1.72332e-05 -0.000213574 -1.50838e-07)
(1.36109e-06 -7.40208e-05 -1.48256e-08)
(-1.19419e-05 -0.00474196 1.0408e-07)
(9.06134e-05 -0.0048406 -7.90534e-07)
(3.12383e-05 -0.00486519 -2.79137e-07)
(9.62215e-05 -0.00495392 -8.43484e-07)
(0.000137322 -0.00488993 -1.16774e-06)
(-5.25356e-05 -0.00503897 4.60467e-07)
(0.000346259 -0.00493712 -3.01216e-06)
(6.29755e-05 -0.00504956 -5.48845e-07)
(0.000240021 -0.00503185 -2.15694e-06)
(0.000298225 -0.00507932 -2.58723e-06)
(0.000167956 -0.00507856 -1.43547e-06)
(0.00035313 -0.00510028 -3.09462e-06)
(0.000258934 -0.00509536 -2.25876e-06)
(0.00033676 -0.00509289 -2.93527e-06)
(0.000339323 -0.00508052 -2.96007e-06)
(0.000371219 -0.00506376 -3.23949e-06)
(0.000393409 -0.00503989 -3.43276e-06)
(0.000422158 -0.00501246 -3.68405e-06)
(0.000446642 -0.00497804 -3.89763e-06)
(0.000473585 -0.00493885 -4.13266e-06)
(0.000499591 -0.00489339 -4.35974e-06)
(0.000524706 -0.00484207 -4.57901e-06)
(0.000549033 -0.00478445 -4.79138e-06)
(0.000572642 -0.00472053 -4.99739e-06)
(0.000595069 -0.00465012 -5.19309e-06)
(0.000616149 -0.00457315 -5.37706e-06)
(0.000635639 -0.00448953 -5.54718e-06)
(0.000653345 -0.00439927 -5.70175e-06)
(0.000669052 -0.00430238 -5.83886e-06)
(0.000682549 -0.00419895 -5.9567e-06)
(0.000693621 -0.00408911 -6.05338e-06)
(0.000702074 -0.00397304 -6.12719e-06)
(0.000707725 -0.00385102 -6.17657e-06)
(0.000710407 -0.00372334 -6.20004e-06)
(0.000709973 -0.0035904 -6.19632e-06)
(0.000706322 -0.00345262 -6.16452e-06)
(0.000699361 -0.00331052 -6.10379e-06)
(0.000689036 -0.00316464 -6.01375e-06)
(0.000675329 -0.00301558 -5.8942e-06)
(0.000658279 -0.00286401 -5.74547e-06)
(0.000637963 -0.0027106 -5.56825e-06)
(0.000614488 -0.00255604 -5.36343e-06)
(0.000588021 -0.00240104 -5.1325e-06)
(0.000558753 -0.00224628 -4.87713e-06)
(0.000526931 -0.00209249 -4.59945e-06)
(0.000492828 -0.00194027 -4.30185e-06)
(0.00045674 -0.00179022 -3.98692e-06)
(0.000419009 -0.00164286 -3.65763e-06)
(0.000379984 -0.00149861 -3.31704e-06)
(0.000340043 -0.00135782 -2.96845e-06)
(0.000299578 -0.00122066 -2.61527e-06)
(0.000258991 -0.00108718 -2.26102e-06)
(0.000218716 -0.000957267 -1.90949e-06)
(0.000179212 -0.000830572 -1.56468e-06)
(0.000140978 -0.000706466 -1.23095e-06)
(0.000104627 -0.000583979 -9.13645e-07)
(7.09061e-05 -0.000461612 -6.19298e-07)
(4.09739e-05 -0.000337313 -3.57994e-07)
(1.65157e-05 -0.000208205 -1.44561e-07)
(1.19396e-06 -7.1643e-05 -1.31945e-08)
(-1.83259e-05 -0.00481982 1.59533e-07)
(8.68342e-05 -0.00492205 -7.59249e-07)
(3.54014e-05 -0.0049965 -3.13675e-07)
(7.22912e-05 -0.00506659 -6.34024e-07)
(0.000155038 -0.00512029 -1.32593e-06)
(-8.33881e-05 -0.00515905 7.18048e-07)
(0.000280701 -0.00517368 -2.44583e-06)
(-2.34897e-05 -0.00523382 2.11702e-07)
(0.00013592 -0.00518 -1.23292e-06)
(0.000232079 -0.00524608 -2.00191e-06)
(0.000109115 -0.00518619 -9.23192e-07)
(0.000314253 -0.0052101 -2.75936e-06)
(0.000244732 -0.00518064 -2.13673e-06)
(0.000334679 -0.00517529 -2.91842e-06)
(0.000346973 -0.0051533 -3.02799e-06)
(0.000385236 -0.00513452 -3.36233e-06)
(0.000411039 -0.00510678 -3.58731e-06)
(0.000442362 -0.00507726 -3.86063e-06)
(0.000469234 -0.00504056 -4.09514e-06)
(0.000497533 -0.00499923 -4.34187e-06)
(0.000524792 -0.0049517 -4.57975e-06)
(0.000551062 -0.00489825 -4.80899e-06)
(0.000576473 -0.0048384 -5.03082e-06)
(0.000600992 -0.00477213 -5.24476e-06)
(0.000624206 -0.00469926 -5.44731e-06)
(0.000645938 -0.00461969 -5.63696e-06)
(0.000665941 -0.00453338 -5.81154e-06)
(0.000684006 -0.00444031 -5.96925e-06)
(0.000699913 -0.00434053 -6.10811e-06)
(0.000713442 -0.00423412 -6.22624e-06)
(0.000724375 -0.00412124 -6.32172e-06)
(0.000732513 -0.0040021 -6.3928e-06)
(0.000737677 -0.00387697 -6.43794e-06)
(0.000739697 -0.00374619 -6.45565e-06)
(0.000738434 -0.00361017 -6.44469e-06)
(0.000733792 -0.00346937 -6.40427e-06)
(0.000725689 -0.00332431 -6.33357e-06)
(0.000714081 -0.00317557 -6.23234e-06)
(0.000698965 -0.00302377 -6.10051e-06)
(0.000680398 -0.0028696 -5.93854e-06)
(0.000658478 -0.00271374 -5.74732e-06)
(0.000633329 -0.00255691 -5.52791e-06)
(0.000605145 -0.00239983 -5.28199e-06)
(0.000574136 -0.0022432 -5.01142e-06)
(0.000540574 -0.00208774 -4.71856e-06)
(0.000504753 -0.00193406 -4.40597e-06)
(0.000466991 -0.00178277 -4.07642e-06)
(0.000427647 -0.00163438 -3.73306e-06)
(0.000387091 -0.00148932 -3.3791e-06)
(0.000345712 -0.00134792 -3.01796e-06)
(0.000303917 -0.00121034 -2.65316e-06)
(0.000262119 -0.00107664 -2.28834e-06)
(0.000220761 -0.000946703 -1.92735e-06)
(0.000180314 -0.00082017 -1.57431e-06)
(0.000141292 -0.000696427 -1.2337e-06)
(0.000104333 -0.000574532 -9.11088e-07)
(7.02175e-05 -0.000453049 -6.13291e-07)
(4.01704e-05 -0.000330054 -3.50978e-07)
(1.58935e-05 -0.000202926 -1.39116e-07)
(1.05533e-06 -6.9374e-05 -1.18375e-08)
(-1.40265e-05 -0.00489591 1.22266e-07)
(0.000105016 -0.00497778 -9.16721e-07)
(5.72652e-05 -0.0050391 -5.04407e-07)
(0.000120959 -0.00509284 -1.05798e-06)
(0.000183412 -0.00510673 -1.57093e-06)
(2.71968e-05 -0.00517159 -2.4228e-07)
(0.000381396 -0.00513182 -3.31747e-06)
(0.000156341 -0.00523663 -1.36856e-06)
(0.000322936 -0.00515216 -2.87843e-06)
(0.000346905 -0.00527871 -2.99968e-06)
(0.000270065 -0.00519144 -2.34249e-06)
(0.000385403 -0.00526441 -3.38415e-06)
(0.00032228 -0.00522909 -2.81531e-06)
(0.000375018 -0.00523619 -3.27248e-06)
(0.000385059 -0.00521629 -3.36132e-06)
(0.000413162 -0.00519975 -3.60687e-06)
(0.000438519 -0.00517267 -3.8277e-06)
(0.000467687 -0.00514234 -4.08222e-06)
(0.000495514 -0.00510465 -4.32478e-06)
(0.000524085 -0.00506181 -4.57381e-06)
(0.000552569 -0.00501243 -4.82219e-06)
(0.000579796 -0.00495686 -5.05979e-06)
(0.000606221 -0.00489471 -5.29042e-06)
(0.000631618 -0.00482599 -5.51199e-06)
(0.000655645 -0.0047505 -5.7216e-06)
(0.000678042 -0.00466818 -5.91704e-06)
(0.000698564 -0.00457898 -6.09616e-06)
(0.000716991 -0.00448292 -6.25703e-06)
(0.00073309 -0.00438004 -6.39757e-06)
(0.000746635 -0.00427046 -6.51585e-06)
(0.000757401 -0.00415435 -6.60989e-06)