/*--------------------------------*- C++ -*----------------------------------*\
| =========                 |                                                 |
| \\      /  F ield         | OpenFOAM: The Open Source CFD Toolbox           |
|  \\    /   O peration     | Version:  v2012                                 |
|   \\  /    A nd           | Website:  www.openfoam.com                      |
|    \\/     M anipulation  |                                                 |
\*---------------------------------------------------------------------------*/
FoamFile
{
    version     2.0;
    format      ascii;
    class       surfaceScalarField;
    location    "0.6";
    object      phi;
}
// * * * * * * * * * * * * * * * * * * * * * * * * * * * * * * * * * * * * * //

dimensions      [0 3 -1 0 0 0 0];
oriented        oriented;


internalField   nonuniform List<scalar> 
6347
(
1.70123e-13
-3.82026e-12
-1.26313e-15
3.82961e-13
-6.77221e-12
1.4824e-15
7.5182e-13
-1.01193e-11
1.62387e-16
1.22812e-12
-1.37008e-11
3.38586e-15
1.83417e-12
-1.77862e-11
-4.85806e-15
2.43588e-12
-2.20477e-11
1.05296e-15
3.28985e-12
-2.68874e-11
-1.52498e-15
4.25309e-12
-3.20126e-11
-2.33102e-15
5.40484e-12
-3.75751e-11
-7.83476e-16
6.70884e-12
-4.3569e-11
-2.01078e-15
8.17727e-12
-4.99288e-11
-2.40892e-15
9.8246e-12
-5.67994e-11
-4.54326e-15
1.16819e-11
-6.39504e-11
-3.69748e-16
1.37304e-11
-7.16785e-11
-5.19947e-16
1.59409e-11
-7.9658e-11
-7.61945e-16
-8.81103e-11
2.63418e-16
4.34331e-14
-1.23655e-12
-4.53392e-18
1.80083e-13
-3.95709e-12
1.42223e-18
4.23159e-13
-7.01741e-12
1.15409e-16
7.69506e-13
-1.04522e-11
1.21724e-15
1.19797e-12
-1.41513e-11
-3.18947e-15
1.79923e-12
-1.83861e-11
9.34096e-16
2.59164e-12
-2.28351e-11
3.36999e-16
3.4963e-12
-2.77891e-11
4.4616e-16
4.57424e-12
-3.30816e-11
8.70325e-16
5.81052e-12
-3.88138e-11
-2.58485e-16
7.2309e-12
-4.49759e-11
1.65181e-15
8.81748e-12
-5.15352e-11
-2.60141e-15
1.05845e-11
-5.85796e-11
-1.45711e-15
1.25137e-11
-6.59244e-11
-4.09176e-15
1.46635e-11
-7.38188e-11
1.45633e-15
1.69861e-11
-8.19963e-11
-2.02291e-15
1.94964e-11
-9.06208e-11
1.91041e-16
-9.95217e-11
-1.12845e-16
4.62817e-14
-1.28285e-12
6.3331e-18
1.90849e-13
-4.10203e-12
-1.78351e-17
4.51403e-13
-7.27677e-12
4.26075e-16
8.29534e-13
-1.08138e-11
1.90135e-15
1.36043e-12
-1.47005e-11
-2.83708e-15
1.97804e-12
-1.8992e-11
1.8213e-15
2.77266e-12
-2.36313e-11
-1.06757e-16
3.72027e-12
-2.87419e-11
-7.88979e-16
4.8433e-12
-3.41951e-11
1.06991e-15
6.14414e-12
-4.0133e-11
-2.13349e-15
7.62862e-12
-4.64611e-11
-2.72212e-16
9.32818e-12
-5.32225e-11
1.06183e-15
1.12085e-11
-6.04398e-11
1.85463e-15
1.32813e-11
-6.80308e-11
-2.93152e-15
1.55754e-11
-7.60858e-11
2.45578e-15
1.80514e-11
-8.44775e-11
-1.05289e-15
2.07104e-11
-9.32716e-11
7.6704e-16
2.35432e-11
-1.02361e-10
-3.88224e-16
-1.11779e-10
3.3168e-16
4.95435e-14
-1.33235e-12
2.59584e-17
2.04228e-13
-4.25698e-12
-2.75646e-17
4.79771e-13
-7.5519e-12
3.33022e-16
8.79485e-13
-1.11991e-11
1.51448e-15
1.42236e-12
-1.52678e-11
-3.49312e-15
2.1731e-12
-1.97391e-11
1.2486e-15
2.99719e-12
-2.44467e-11
6.74842e-16
4.04373e-12
-2.97913e-11
-3.43552e-16
5.2185e-12
-3.53752e-11
-4.77958e-16
6.61411e-12
-4.15319e-11
-4.53104e-16
8.18934e-12
-4.80319e-11
3.9419e-16
9.97895e-12
-5.50091e-11
1.92575e-16
1.19796e-11
-6.24177e-11
2.5227e-15
1.41525e-11
-7.0234e-11
-3.07852e-15
1.6577e-11
-7.84829e-11
2.92632e-15
1.91876e-11
-8.70886e-11
-4.12446e-16
2.1997e-11
-9.60714e-11
1.22298e-15
2.49872e-11
-1.05356e-10
-2.71382e-16
-1.14935e-10
3.03544e-16
5.2967e-14
-1.38536e-12
-9.04279e-18
2.19972e-13
-4.42378e-12
1.15629e-17
5.23465e-13
-7.85126e-12
7.97064e-16
9.58836e-13
-1.16232e-11
1.10273e-15
1.48964e-12
-1.58284e-11
-4.66296e-15
2.14793e-12
-2.0434e-11
-3.34697e-15
3.01619e-12
-2.531e-11
7.2295e-16
4.1597e-12
-3.09339e-11
-3.65359e-16
5.42765e-12
-3.66237e-11
2.27221e-15
6.95707e-12
-4.30572e-11
3.20677e-16
8.66496e-12
-4.97202e-11
2.10932e-15
1.05866e-11
-5.69467e-11
-1.76253e-15
1.27244e-11
-6.45483e-11
8.07771e-16
1.50526e-11
-7.25861e-11
-2.25745e-15
1.76393e-11
-8.10404e-11
3.16047e-15
2.04092e-11
-8.98606e-11
-4.24565e-16
2.33837e-11
-9.90376e-11
1.04557e-15
2.65372e-11
-1.08513e-10
-1.85762e-16
-1.18255e-10
3.18989e-16
5.63178e-14
-1.44179e-12
4.5411e-17
2.32988e-13
-4.59941e-12
1.48085e-16
5.37717e-13
-8.15569e-12
6.39513e-17
9.81802e-13
-1.20705e-11
-4.7277e-17
1.6467e-12
-1.64891e-11
1.98535e-15
2.52518e-12
-2.12032e-11
1.11327e-14
3.55749e-12
-2.64083e-11
-9.2213e-15
4.76629e-12
-3.21665e-11
1.7955e-16
6.02307e-12
-3.79081e-11
-4.56084e-15
7.62179e-12
-4.46302e-11
3.22195e-15
9.36505e-12
-5.14707e-11
-9.37451e-16
1.13777e-11
-5.8947e-11
1.195e-15
1.36182e-11
-6.67798e-11
1.11008e-15
1.60641e-11
-7.50595e-11
-2.73478e-15
1.87981e-11
-8.37406e-11
3.6795e-15
2.1721e-11
-9.27889e-11
-8.77368e-16
2.48641e-11
-1.02173e-10
9.88092e-16
2.81918e-11
-1.11845e-10
-3.09131e-16
-1.21756e-10
2.5203e-16
6.13662e-14
-1.50306e-12
4.28193e-17
2.5584e-13
-4.79401e-12
-8.5647e-17
5.99748e-13
-8.49528e-12
5.69043e-16
1.0374e-12
-1.25219e-11
-1.35126e-15
1.75699e-12
-1.72087e-11
9.95686e-16
2.56907e-12
-2.19692e-11
2.89863e-15
3.52062e-12
-2.74523e-11
-1.26112e-14
4.61093e-12
-3.3298e-11
-8.02427e-16
6.00583e-12
-3.93246e-11
-3.07656e-15
7.83757e-12
-4.64576e-11
1.86871e-16
9.7921e-12
-5.34356e-11
-1.20049e-15
1.20229e-11
-6.11681e-11
6.1281e-16
1.44628e-11
-6.92027e-11
1.73549e-15
1.70936e-11
-7.77237e-11
-3.26139e-15
2.00142e-11
-8.6627e-11
3.61239e-15
2.31221e-11
-9.59025e-11
-8.14643e-16
2.64522e-11
-1.05495e-10
9.73897e-16
2.99636e-11
-1.15362e-10
-4.08652e-16
-1.25444e-10
1.33745e-16
6.45894e-14
-1.56765e-12
1.79387e-17
2.6913e-13
-4.99797e-12
2.77723e-16
6.60841e-13
-8.88498e-12
5.69672e-16
1.21129e-12
-1.30852e-11
-1.73688e-15
1.95759e-12
-1.79448e-11
1.17913e-15
2.79557e-12
-2.28016e-11
2.76821e-15
3.9889e-12
-2.86251e-11
4.44246e-15
5.54424e-12
-3.46776e-11
1.48635e-14
7.05978e-12
-4.09714e-11
-1.70268e-14
8.7257e-12
-4.81052e-11
6.85877e-15
1.07539e-11
-5.54566e-11
-1.03365e-15
1.29864e-11
-6.34097e-11
-3.54897e-16
1.55251e-11
-7.17465e-11
-7.77409e-16
1.82926e-11
-8.05176e-11
-2.58782e-15
2.13655e-11
-8.96677e-11
3.63555e-15
2.46487e-11
-9.91874e-11
-4.43504e-16
2.81641e-11
-1.09001e-10
1.2131e-15
3.18676e-11
-1.19071e-10
-4.40365e-16
-1.29329e-10
3.98575e-17
7.06051e-14
-1.63813e-12
2.9983e-17
2.93736e-13
-5.2212e-12
-4.70865e-16
6.52978e-13
-9.23494e-12
-5.98616e-16
1.17849e-12
-1.36222e-11
-4.41462e-16
1.86092e-12
-1.86428e-11
1.68446e-15
2.94048e-12
-2.38896e-11
-2.75593e-15
4.05803e-12
-2.97629e-11
-7.15629e-16
5.52725e-12
-3.59923e-11
1.38846e-14
7.15969e-12
-4.27525e-11
-1.83774e-14
9.06945e-12
-5.00137e-11
4.33727e-15
1.13121e-11
-5.76982e-11
-1.64165e-15
1.37779e-11
-6.58795e-11
-4.70648e-17
1.65302e-11
-7.449e-11
6.47192e-16
1.94942e-11
-8.35189e-11
-3.73223e-15
2.27726e-11
-9.29178e-11
3.10965e-15
2.62639e-11
-1.02683e-10
-6.28265e-16
2.99906e-11
-1.12718e-10
1.06046e-15
3.39032e-11
-1.22989e-10
-4.06858e-16
-1.3342e-10
1.26669e-17
7.47585e-14
-1.71259e-12
-1.14553e-16
3.06997e-13
-5.45353e-12
-1.98906e-17
7.23741e-13
-9.64407e-12
-4.67503e-16
1.37633e-12
-1.42845e-11
-4.18236e-16
2.12767e-12
-1.94041e-11
1.83265e-15
3.18978e-12
-2.49394e-11
-3.08032e-16
4.43125e-12
-3.1036e-11
-1.77249e-15
6.10435e-12
-3.75169e-11
1.40881e-14
7.77757e-12
-4.45702e-11
-1.85268e-14
9.8295e-12
-5.20486e-11
6.64071e-15
1.21718e-11
-6.00609e-11
-4.29238e-15
1.47857e-11
-6.84805e-11
1.98731e-15
1.77142e-11
-7.73833e-11
3.64658e-15
2.08733e-11
-8.66914e-11
-1.22097e-15
2.43422e-11
-9.63589e-11
2.96316e-15
2.80291e-11
-1.06373e-10
-5.57391e-16
3.19678e-11
-1.16648e-10
1.10168e-15
3.60962e-11
-1.27121e-10
-3.12772e-16
-1.37728e-10
1.41012e-16
8.1609e-14
-1.79377e-12
-9.8668e-17
3.37475e-13
-5.70974e-12
-1.81945e-16
7.89992e-13
-1.00931e-11
-9.36016e-16
1.44147e-12
-1.49473e-11
-4.32908e-16
2.296e-12
-2.02627e-11
2.55976e-15
3.41513e-12
-2.60457e-11
-3.18728e-17
4.77357e-12
-3.242e-11
-1.01792e-15
6.5483e-12
-3.91617e-11
1.17126e-14
8.36509e-12
-4.65209e-11
-1.72945e-14
1.05741e-11
-5.42398e-11
6.52939e-15
1.30902e-11
-6.25897e-11
-3.15298e-15
1.58568e-11
-7.12661e-11
-1.83187e-15
1.89585e-11
-8.0479e-11
6.23387e-16
2.23223e-11
-9.00666e-11
-1.1918e-15
2.60095e-11
-1.00022e-10
2.64558e-15
2.99252e-11
-1.10291e-10
-3.8314e-16
3.40953e-11
-1.20807e-10
1.21607e-15
3.8454e-11
-1.31482e-10
-1.5629e-16
-1.42259e-10
9.99125e-17
8.7727e-14
-1.88112e-12
-7.2931e-17
3.62634e-13
-5.98577e-12
-1.64942e-16
8.49421e-13
-1.05744e-11
-6.6869e-16
1.5876e-12
-1.56939e-11
-1.84058e-16
2.45383e-12
-2.11303e-11
2.6953e-15
3.50058e-12
-2.70869e-11
-2.03438e-15
5.07807e-12
-3.40169e-11
6.59371e-16
6.94735e-12
-4.09096e-11
1.06763e-14
8.90548e-12
-4.86117e-11
-1.73724e-14
1.12366e-11
-5.65687e-11
4.47969e-15
1.39561e-11
-6.53016e-11
-1.03168e-15
1.69317e-11
-7.42395e-11
1.31839e-15
2.02626e-11
-8.38211e-11
-1.69276e-15
2.38699e-11
-9.36726e-11
6.3448e-17
2.77974e-11
-1.03936e-10
1.64057e-15
3.19492e-11
-1.14458e-10
-1.15601e-15
3.63677e-11
-1.25217e-10
8.70546e-16
4.09776e-11
-1.36097e-10
-5.42628e-16
4.5752e-11
-1.47035e-10
-2.29193e-16
5.0641e-11
-1.57902e-10
-2.6921e-16
5.55857e-11
-1.68617e-10
1.10981e-17
6.05219e-11
-1.79055e-10
-1.99463e-16
-1.89095e-10
1.12276e-17
9.40997e-14
-1.97488e-12
-1.0563e-16
3.85235e-13
-6.27671e-12
-1.29542e-16
8.77748e-13
-1.10668e-11
-1.18983e-15
1.63927e-12
-1.64639e-11
1.12469e-15
2.77973e-12
-2.22643e-11
5.20769e-15
4.30194e-12
-2.85848e-11
-1.06709e-15
5.97448e-12
-3.56967e-11
1.62256e-16
7.74081e-12
-4.25444e-11
1.40352e-14
9.82242e-12
-5.08231e-11
-1.69872e-14
1.23063e-11
-5.90624e-11
2.45006e-15
1.51877e-11
-6.81964e-11
-3.08027e-15
1.83402e-11
-7.73811e-11
1.6619e-15
2.18694e-11
-8.73584e-11
-7.7419e-16
2.56718e-11
-9.74817e-11
-1.26483e-15
2.98165e-11
-1.08076e-10
8.68146e-16
3.42072e-11
-1.18864e-10
-1.41474e-15
3.88707e-11
-1.29874e-10
7.97591e-16
4.37278e-11
-1.40958e-10
-5.6604e-16
4.87404e-11
-1.5205e-10
3.63338e-19
5.38591e-11
-1.63021e-10
-6.37941e-18
5.90168e-11
-1.73776e-10
6.21527e-17
6.41472e-11
-1.84188e-10
3.8106e-17
-1.9413e-10
5.61719e-17
1.02613e-13
-2.07718e-12
-3.9859e-18
4.2871e-13
-6.60468e-12
-2.73613e-16
1.02212e-12
-1.16558e-11
3.86298e-16
1.85166e-12
-1.72924e-11
-2.31484e-15
2.82978e-12
-2.32324e-11
-4.9403e-15
4.10882e-12
-2.99325e-11
2.97924e-15
5.49424e-12
-3.70686e-11
9.07018e-15
7.53603e-12
-4.44247e-11
-1.97104e-16
1.01632e-11
-5.35634e-11
-9.31354e-15
1.29082e-11
-6.18676e-11
4.67492e-16
1.60529e-11
-7.13197e-11
1.50553e-16
1.94819e-11
-8.08259e-11
-3.07456e-15
2.3294e-11
-9.1175e-11
-4.91483e-16
2.74071e-11
-1.01596e-10
1.06405e-17
3.18464e-11
-1.12521e-10
-8.56845e-16
3.65446e-11
-1.23572e-10
-7.43601e-16
4.15035e-11
-1.34825e-10
6.5022e-16
4.66477e-11
-1.46102e-10
-9.47258e-17
5.19329e-11
-1.57335e-10
1.16242e-16
5.73039e-11
-1.68389e-10
1.86544e-16
6.26863e-11
-1.79156e-10
2.57963e-16
6.80131e-11
-1.89512e-10
4.30285e-16
-1.99319e-10
4.02976e-16
1.09101e-13
-2.18604e-12
-3.58687e-17
4.45365e-13
-6.94113e-12
-1.12763e-16
1.03106e-12
-1.22459e-11
-6.06638e-16
1.95399e-12
-1.82016e-11
6.07827e-16
3.02697e-12
-2.43025e-11
-3.46119e-15
4.68953e-12
-3.1628e-11
9.66638e-15
6.66567e-12
-3.90185e-11
1.12485e-14
9.4541e-12
-4.70338e-11
-3.4262e-15
1.21107e-11
-5.63394e-11
-1.43797e-14
1.46245e-11
-6.44257e-11
4.28408e-15
1.77511e-11
-7.44264e-11
-2.94043e-16
2.12966e-11
-8.43879e-11
-3.77403e-15
2.52711e-11
-9.51781e-11
-2.45864e-15
2.96065e-11
-1.05922e-10
6.10749e-16
3.4272e-11
-1.17198e-10
-6.79002e-16
3.92244e-11
-1.28529e-10
-5.91998e-16
4.44433e-11
-1.40038e-10
8.79549e-16
4.98542e-11
-1.5151e-10
5.3596e-17
5.53966e-11
-1.6288e-10
7.69936e-18
6.1009e-11
-1.74003e-10
-2.64433e-16
6.66107e-11
-1.8476e-10
-3.13196e-16
7.21278e-11
-1.9503e-10
-6.72665e-17
-2.04665e-10
1.37949e-16
1.20694e-13
-2.30648e-12
6.45037e-18
4.96227e-13
-7.31839e-12
-4.29834e-16
1.09758e-12
-1.28474e-11
-4.03161e-16
2.00101e-12
-1.90925e-11
9.04071e-16
3.29167e-12
-2.56016e-11
-1.27425e-15
5.03607e-12
-3.33789e-11
-7.64981e-15
6.77284e-12
-4.07392e-11
-6.18378e-15
8.77877e-12
-4.90357e-11
2.46471e-14
1.11984e-11
-5.88205e-11
-2.43975e-15
1.47775e-11
-6.79953e-11
-1.74517e-14
1.84555e-11
-7.81425e-11
1.93408e-15
2.25243e-11
-8.84615e-11
1.37928e-15
2.68901e-11
-9.95288e-11
1.67291e-15
3.1637e-11
-1.10661e-10
-9.06794e-16
3.66608e-11
-1.22231e-10
-4.93534e-16
4.19747e-11
-1.33854e-10
-1.11795e-15
4.75321e-11
-1.45588e-10
7.56851e-16
5.32639e-11
-1.57237e-10
3.92582e-16
5.91011e-11
-1.68716e-10
3.29155e-16
6.49777e-11
-1.79876e-10
2.44407e-16
7.08089e-11
-1.9059e-10
1.5197e-16
7.65151e-11
-2.00733e-10
4.33281e-16
-2.1015e-10
6.06327e-16
1.28286e-13
-2.43454e-12
-1.8033e-16
5.25772e-13
-7.71672e-12
5.397e-16
1.2842e-12
-1.36136e-11
1.41224e-15
2.39284e-12
-2.01916e-11
-2.92736e-16
3.89479e-12
-2.70767e-11
-1.72662e-15
5.40172e-12
-3.48786e-11
1.55405e-15
7.7262e-12
-4.30419e-11
-2.37225e-15
1.06351e-11
-5.1918e-11
1.99608e-14
1.32386e-11
-6.14748e-11
-4.77463e-15
1.66368e-11
-7.13882e-11
-1.54376e-14
2.03706e-11
-8.19215e-11
1.13908e-15
2.46151e-11
-9.27163e-11
2.93644e-16
2.91986e-11
-1.04124e-10
-9.99654e-16
3.42194e-11
-1.15663e-10
9.11184e-18
3.95189e-11
-1.27542e-10
-2.54695e-16
4.51284e-11
-1.39467e-10
-5.91481e-16
5.09817e-11
-1.51432e-10
1.29226e-15
5.70075e-11
-1.63255e-10
5.55948e-16
6.31226e-11
-1.74831e-10
3.33447e-16
6.92528e-11
-1.86005e-10
5.86866e-17
7.5305e-11
-1.96642e-10
6.44281e-17
8.11909e-11
-2.06616e-10
3.89027e-16
-2.15768e-10
6.47741e-16
1.42091e-13
-2.57654e-12
2.70729e-18
5.9097e-13
-8.16683e-12
-1.6082e-17
1.36157e-12
-1.43893e-11
1.50906e-15
2.40235e-12
-2.12243e-11
-9.25204e-16
4.00086e-12
-2.8653e-11
-1.59111e-15
5.8706e-12
-3.67637e-11
1.06287e-16
8.26364e-12
-4.54059e-11
-3.86893e-15
1.11156e-11
-5.4751e-11
1.52012e-14
1.41906e-11
-6.46184e-11
-4.21934e-15
1.78655e-11
-7.50391e-11
-1.3279e-14
2.19026e-11
-8.59719e-11
4.07357e-15
2.64384e-11
-9.72836e-11
-2.7121e-15
3.13759e-11
-1.09078e-10
-1.30525e-15
3.6768e-11
-1.21027e-10
1.10382e-15
4.24465e-11
-1.33239e-10
-1.17242e-15
4.84357e-11
-1.45456e-10
-1.02254e-16
5.46517e-11
-1.57639e-10
1.18122e-15
6.10161e-11
-1.69612e-10
7.18375e-16
6.74386e-11
-1.81251e-10
5.5069e-16
7.38377e-11
-1.924e-10
3.83062e-16
8.01144e-11
-2.02916e-10
3.46615e-16
8.61731e-11
-2.1267e-10
6.74336e-16
-2.215e-10
8.57287e-16
1.52863e-13
-2.72927e-12
-2.30423e-17
6.27418e-13
-8.64277e-12
3.56594e-17
1.44996e-12
-1.52154e-11
1.58472e-15
2.6643e-12
-2.24293e-11
-4.89636e-16
4.35122e-12
-3.03264e-11
-2.79888e-15
6.45664e-12
-3.88909e-11
-1.2804e-15
9.00076e-12
-4.79157e-11
-2.40723e-15
1.20423e-11
-5.77398e-11
1.97988e-14
1.54079e-11
-6.80452e-11
-3.05543e-15
1.94022e-11
-7.90269e-11
-1.51272e-14
2.37604e-11
-9.03637e-11
1.9848e-15
2.86859e-11
-1.02216e-10
-5.16032e-17
3.40053e-11
-1.14397e-10
7.71312e-16
3.97534e-11
-1.26752e-10
4.68922e-16
4.57929e-11
-1.39301e-10
-1.57011e-15
5.21383e-11
-1.51806e-10
-7.67494e-16
5.87007e-11
-1.64197e-10
7.72977e-16
6.5395e-11
-1.76299e-10
5.39595e-16
7.21169e-11
-1.87972e-10
2.93699e-16
7.87765e-11
-1.99057e-10
1.41468e-16
8.52663e-11
-2.09403e-10
3.3118e-16
9.14819e-11
-2.18881e-10
6.72154e-16
-2.27327e-10
8.31736e-16
1.67002e-13
-2.89621e-12
-3.58304e-17
6.87145e-13
-9.1629e-12
1.62456e-16
1.58612e-12
-1.61203e-11
1.35479e-15
2.8526e-12
-2.36873e-11
-8.31422e-16
4.76225e-12
-3.22279e-11
-3.00275e-15
7.283e-12
-4.14216e-11
1.45561e-15
9.81663e-12
-5.04347e-11
-6.11758e-15
1.31311e-11
-6.09861e-11
2.20107e-14
1.67817e-11
-7.17582e-11
-3.38758e-15
2.11322e-11
-8.33571e-11
-1.37594e-14
2.58105e-11
-9.51059e-11
-1.29262e-15
3.11165e-11
-1.07507e-10
2.67796e-15
3.68196e-11
-1.20071e-10
3.39301e-15
4.29487e-11
-1.3287e-10
-4.72738e-16
4.93865e-11
-1.45758e-10
-1.10332e-15
5.61325e-11
-1.58548e-10
3.20199e-16
6.30742e-11
-1.71132e-10
9.83955e-16
7.01241e-11
-1.83335e-10
1.30669e-15
7.71576e-11
-1.95006e-10
2.1568e-16
8.40799e-11
-2.05978e-10
1.82522e-17
9.07757e-11
-2.16097e-10
1.83972e-16
9.71321e-11
-2.25234e-10
4.82185e-16
-2.33227e-10
5.49656e-16
1.84264e-13
-3.08022e-12
7.31883e-19
7.6664e-13
-9.74722e-12
-1.2334e-16
1.8117e-12
-1.71674e-11
1.59231e-15
3.26446e-12
-2.51281e-11
-1.79638e-15
4.98592e-12
-3.39417e-11
-5.6387e-15
7.06131e-12
-4.35017e-11
4.7222e-15
9.91881e-12
-5.3296e-11
-5.97808e-15
1.40181e-11
-6.50545e-11
1.55767e-14
1.80824e-11
-7.59208e-11
-7.48364e-15
2.28167e-11
-8.80589e-11
-1.31841e-14
2.79034e-11
-1.00244e-10
3.2041e-16
3.36505e-11
-1.13262e-10
1.22602e-17
3.97928e-11
-1.26211e-10
1.30403e-15
4.64053e-11
-1.39467e-10
-4.76558e-16
5.33112e-11
-1.52685e-10
-1.03259e-15
6.05e-11
-1.65735e-10
7.50564e-17
6.78489e-11
-1.78476e-10
7.93173e-16
7.52641e-11
-1.90739e-10
1.10121e-15
8.26131e-11
-2.02356e-10
2.25011e-16
8.97921e-11
-2.13154e-10
1.33864e-16
9.66771e-11
-2.22979e-10
4.03849e-16
1.03148e-10
-2.31701e-10
5.74854e-16
-2.39163e-10
5.22397e-16
1.99683e-13
-3.27976e-12
-8.32922e-17
8.12175e-13
-1.03593e-11
9.74938e-17
1.84418e-12
-1.82034e-11
-2.86177e-16
3.43221e-12
-2.67098e-11
3.97546e-15
5.73978e-12
-3.62733e-11
5.81296e-15
8.55909e-12
-4.62996e-11
-1.46284e-14
1.24261e-11
-5.70937e-11
-5.65088e-15
1.65409e-11
-6.9142e-11
3.66646e-14
2.02101e-11
-7.96519e-11
-1.18315e-14
2.51265e-11
-9.29125e-11
-7.73789e-15
3.06196e-11
-1.05782e-10
3.32815e-16
3.67504e-11
-1.19401e-10
1.78586e-17
4.33211e-11
-1.32798e-10
-1.15739e-15
5.03816e-11
-1.46506e-10
-2.40933e-17
5.77314e-11
-1.60039e-10
4.61833e-16
6.53341e-11
-1.7334e-10
-7.08802e-18
7.30795e-11
-1.86218e-10
5.218e-16
8.08514e-11
-1.98504e-10
5.5759e-16
8.85072e-11
-2.10014e-10
-8.47367e-18
9.59282e-11
-2.20577e-10
-2.95928e-16
1.02981e-10
-2.30034e-10
-1.68822e-16
1.09538e-10
-2.3826e-10
4.01908e-17
-2.45103e-10
2.15888e-19
2.22506e-13
-3.50215e-12
-1.59749e-17
9.24855e-13
-1.10622e-11
-8.61042e-18
2.15017e-12
-1.94278e-11
1.2778e-16
3.90733e-12
-2.84715e-11
1.07023e-15
6.39915e-12
-3.87681e-11
5.16195e-15
9.04924e-12
-4.8938e-11
-1.90564e-14
1.24277e-11
-6.04394e-11
-1.15817e-14
1.59084e-11
-7.26271e-11
4.17507e-14
2.02895e-11
-8.40991e-11
-6.49846e-15
2.64968e-11
-9.90523e-11
-9.61983e-15
3.29177e-11
-1.12241e-10
1.17352e-15
3.97623e-11
-1.26244e-10
-1.78192e-16
4.69478e-11
-1.39972e-10
1.49945e-15
5.45691e-11
-1.54112e-10
-1.00101e-15
6.24599e-11
-1.67929e-10
1.33639e-15
7.05577e-11
-1.81444e-10
-7.19432e-16
7.87517e-11
-1.94409e-10
6.49738e-16
8.69066e-11
-2.06655e-10
1.75681e-16
9.48768e-11
-2.17985e-10
6.40533e-17
1.0253e-10
-2.2823e-10
-3.62101e-17
1.09725e-10
-2.37226e-10
3.25751e-16
1.1633e-10
-2.4486e-10
5.04813e-16
-2.50988e-10
4.26572e-16
2.41903e-13
-3.74374e-12
-1.50612e-16
9.99004e-13
-1.18184e-11
1.2456e-16
2.3867e-12
-2.08116e-11
5.26606e-16
4.36454e-12
-3.04517e-11
4.02137e-16
6.82733e-12
-4.12299e-11
1.18539e-15
9.88625e-12
-5.19906e-11
1.0073e-14
1.42998e-11
-6.48387e-11
9.83385e-15
1.97252e-11
-7.7975e-11
-1.8821e-14
2.54618e-11
-8.9869e-11
-1.07822e-14
3.06504e-11
-1.04326e-10
6.90427e-15
3.69034e-11
-1.18473e-10
-3.96955e-15
4.38308e-11
-1.33213e-10
4.36687e-16
5.14373e-11
-1.47591e-10
-1.89827e-15
5.94705e-11
-1.6215e-10
-2.82923e-15
6.78312e-11
-1.763e-10
-1.052e-16
7.63917e-11
-1.90004e-10
-8.74084e-17
8.5005e-11
-2.03018e-10
5.63419e-16
9.35188e-11
-2.15165e-10
2.21254e-16
1.01774e-10
-2.26244e-10
-2.20799e-16
1.09624e-10
-2.36083e-10
-3.70262e-16
1.1692e-10
-2.44525e-10
-2.72442e-16
1.23524e-10
-2.51466e-10
-6.33065e-17
-2.56774e-10
-1.95303e-16
2.71104e-13
-4.0148e-12
3.72214e-16
1.12007e-12
-1.26687e-11
-2.9339e-16
2.51513e-12
-2.22047e-11
8.14735e-17
4.52276e-12
-3.24973e-11
-4.93565e-15
7.27421e-12
-4.39735e-11
1.98053e-15
1.11985e-11
-5.5924e-11
2.64257e-15
1.52575e-11
-6.88917e-11
3.47895e-15
1.9817e-11
-8.24705e-11
-1.007e-14
2.6156e-11
-9.62309e-11
-4.30092e-15
3.26573e-11
-1.10901e-10
6.68205e-15
3.99052e-11
-1.2569e-10
-3.20229e-15
4.76392e-11
-1.40966e-10
1.86416e-15
5.59599e-11
-1.55887e-10
1.8706e-15
6.46374e-11
-1.70837e-10
-3.66189e-15
7.36034e-11
-1.8527e-10
9.80367e-16
8.27032e-11
-1.9911e-10
-1.19235e-15
9.17851e-11
-2.12097e-10
5.69127e-16
1.00679e-10
-2.24059e-10
-2.34682e-16
1.09219e-10
-2.34786e-10
4.70528e-18
1.17245e-10
-2.44108e-10
-1.33611e-16
1.246e-10
-2.5188e-10
4.47527e-17
1.31144e-10
-2.5801e-10
1.0396e-17
-2.62384e-10
-1.80374e-16
2.9679e-13
-4.31178e-12
1.4205e-16
1.21859e-12
-1.35909e-11
-1.05693e-16
2.83807e-12
-2.382e-11
3.17998e-16
5.27474e-12
-3.49614e-11
-3.33971e-15
8.32945e-12
-4.70223e-11
1.7087e-15
1.22828e-11
-5.98796e-11
2.3899e-15
1.6961e-11
-7.35442e-11
8.8526e-15
2.24347e-11
-8.78692e-11
-3.44933e-15
2.89022e-11
-1.02696e-10
-4.72686e-15
3.601e-11
-1.18094e-10
4.91378e-15
4.39199e-11
-1.33576e-10
-4.18689e-15
5.23358e-11
-1.4939e-10
3.38987e-15
6.12924e-11
-1.64828e-10
3.73524e-16
7.05888e-11
-1.80145e-10
-3.58307e-15
8.01259e-11
-1.94797e-10
1.94308e-15
8.97323e-11
-2.08727e-10
-9.76545e-16
9.92504e-11
-2.21612e-10
4.38534e-16
1.08491e-10
-2.33299e-10
-4.45427e-17
1.17269e-10
-2.43568e-10
-4.40082e-16
1.25415e-10
-2.52259e-10
-5.00039e-16
1.32766e-10
-2.59237e-10
-6.27347e-16
1.3918e-10
-2.6443e-10
-4.82884e-16
-2.67746e-10
-7.571e-16
3.32916e-13
-4.64512e-12
1.73087e-16
1.37792e-12
-1.46347e-11
1.08236e-16
3.19271e-12
-2.56346e-11
-1.25643e-16
5.80033e-12
-3.76006e-11
-3.9833e-15
9.23919e-12
-5.04475e-11
2.57769e-15
1.35353e-11
-6.41616e-11
4.54385e-15
1.88101e-11
-7.88041e-11
6.69216e-15
2.49764e-11
-9.39944e-11
-8.17218e-15
3.19794e-11
-1.09724e-10
-8.61078e-15
3.96656e-11
-1.25847e-10
6.87727e-15
4.82461e-11
-1.42127e-10
-3.35485e-15
5.73483e-11
-1.58511e-10
1.84643e-15
6.69968e-11
-1.74474e-10
-1.41894e-16
7.70168e-11
-1.90171e-10
-3.56183e-15
8.72085e-11
-2.04974e-10
3.11382e-15
9.73926e-11
-2.18914e-10
-6.65925e-16
1.07377e-10
-2.31588e-10
1.45561e-15
1.16963e-10
-2.42882e-10
-8.13375e-17
1.25952e-10
-2.52559e-10
2.19788e-16
1.3417e-10
-2.60478e-10
-2.72073e-16
1.41447e-10
-2.66516e-10
-2.83283e-16
1.47645e-10
-2.70632e-10
-3.76669e-16
-2.72756e-10
-5.04618e-16
3.70901e-13
-5.0162e-12
1.87294e-16
1.53144e-12
-1.57962e-11
-1.66757e-16
3.55169e-12
-2.76514e-11
2.60685e-16
6.52271e-12
-4.05973e-11
-3.18526e-15
1.02464e-11
-5.41549e-11
3.06921e-15
1.4729e-11
-6.8635e-11
3.54201e-15
2.08496e-11
-8.48936e-11
8.71589e-15
2.76491e-11
-1.00773e-10
-1.07574e-14
3.54294e-11
-1.17506e-10
-5.08194e-15
4.39176e-11
-1.34417e-10
6.25276e-15
5.33108e-11
-1.51461e-10
-7.52239e-16
6.32153e-11
-1.68474e-10
-2.59155e-15
7.36253e-11
-1.84898e-10
-2.49267e-15
8.43687e-11
-2.00919e-10
-2.82904e-15
9.51903e-11
-2.1579e-10
1.3427e-15
1.05909e-10
-2.29652e-10
-2.05039e-15
1.1632e-10
-2.41991e-10
6.42255e-16
1.26191e-10
-2.52759e-10
-5.86035e-16
1.35324e-10
-2.61692e-10
-9.50637e-17
1.43527e-10
-2.68684e-10
-9.72358e-17
1.50634e-10
-2.73628e-10
-5.99272e-16
1.56513e-10
-2.76515e-10
-3.71363e-16
-2.7731e-10
-6.58283e-16
4.14985e-13
-5.43166e-12
1.34717e-16
1.70285e-12
-1.7082e-11
2.75572e-16
3.88896e-12
-2.98395e-11
-4.84774e-16
7.13498e-12
-4.38738e-11
-3.88563e-15
1.17519e-11
-5.87324e-11
6.01169e-15
1.76012e-11
-7.44725e-11
4.43369e-15
2.42533e-11
-9.15154e-11
8.23001e-15
3.1191e-11
-1.0763e-10
-4.55278e-15
3.95679e-11
-1.25879e-10
-4.66381e-15
4.87644e-11
-1.43694e-10
7.85671e-15
5.89807e-11
-1.61617e-10
-8.75899e-17
6.97125e-11
-1.7923e-10
6.53177e-16
8.09569e-11
-1.96117e-10
1.40787e-15
9.24569e-11
-2.12426e-10
-3.16703e-15
1.03946e-10
-2.27268e-10
2.44691e-15
1.15227e-10
-2.40949e-10
-2.41204e-15
1.26053e-10
-2.52808e-10
1.58077e-15
1.36182e-10
-2.6289e-10
-8.37156e-16
1.45395e-10
-2.70906e-10
4.44738e-16
1.53503e-10
-2.76792e-10
-2.9687e-16
1.60335e-10
-2.80466e-10
-5.29237e-16
1.65775e-10
-2.8196e-10
-5.89636e-16
-2.81278e-10
-5.45729e-16
4.68986e-13
-5.90069e-12
1.09668e-16
1.9446e-12
-1.85585e-11
-1.41992e-16
4.54364e-12
-3.24339e-11
5.21775e-16
8.20035e-12
-4.75448e-11
-2.05349e-15
1.27868e-11
-6.33178e-11
-2.09124e-16
1.86036e-11
-8.0365e-11
-5.79279e-15
2.51479e-11
-9.80372e-11
9.94465e-15
3.32665e-11
-1.15666e-10
-3.85658e-15
4.35444e-11
-1.36189e-10
-8.19575e-15
5.40421e-11
-1.54303e-10
-3.12604e-15
6.54165e-11
-1.7292e-10
2.02142e-15
7.71624e-11
-1.91019e-10
3.45246e-15
8.93599e-11
-2.08267e-10
2.78639e-15
1.01639e-10
-2.2472e-10
-3.42329e-15
1.13797e-10
-2.39429e-10
1.9986e-16
1.25594e-10
-2.5276e-10
-1.46979e-15
1.36767e-10
-2.63968e-10
1.38901e-15
1.47054e-10
-2.73176e-10
2.3554e-16
1.5623e-10
-2.8008e-10
2.28057e-16
1.64106e-10
-2.84666e-10
3.13392e-16
1.70523e-10
-2.86885e-10
-4.27681e-16
1.75379e-10
-2.86818e-10
-1.51295e-16
-2.84513e-10
-4.17945e-16
5.29099e-13
-6.42997e-12
3.77623e-17
2.17118e-12
-2.01993e-11
2.37477e-16
5.0018e-12
-3.52672e-11
-4.26158e-16
9.08384e-12
-5.16251e-11
-6.07112e-16
1.43413e-11
-6.85781e-11
-1.6453e-16
2.14383e-11
-8.74841e-11
1.68616e-15
2.98449e-11
-1.06363e-10
1.68983e-14
4.01177e-11
-1.2583e-10
-2.3111e-16
5.0977e-11
-1.47091e-10
-1.23895e-14
6.13928e-11
-1.64794e-10
3.65412e-17
7.31939e-11
-1.84632e-10
6.22678e-15
8.55845e-11
-2.03451e-10
4.85377e-15
9.86282e-11
-2.21274e-10
3.47996e-15
1.11718e-10
-2.37822e-10
-3.15713e-15
1.2457e-10
-2.52292e-10
-2.87582e-16
1.36897e-10
-2.65094e-10
-1.32056e-15
1.48384e-10
-2.75444e-10
1.68796e-15
1.58763e-10
-2.83553e-10
-9.82951e-17
1.678e-10
-2.89118e-10
4.67569e-16
1.75317e-10
-2.92184e-10
-2.97965e-16
1.81167e-10
-2.92742e-10
-5.51494e-16
1.85277e-10
-2.90934e-10
-5.95366e-16
-2.86857e-10
-4.89744e-16
6.01474e-13
-7.03172e-12
1.42022e-16
2.473e-12
-2.20719e-11
-1.4614e-17
5.6438e-12
-3.84403e-11
2.15531e-17
1.02734e-11
-5.62487e-11
1.97005e-16
1.65659e-11
-7.48742e-11
-8.4641e-16
2.43208e-11
-9.52683e-11
-3.11155e-15
3.27346e-11
-1.14814e-10
-1.76523e-15
4.21584e-11
-1.35314e-10
-1.24147e-14
5.32024e-11
-1.5812e-10
2.67126e-15
6.67235e-11
-1.78317e-10
7.94541e-15
8.0644e-11
-1.98547e-10
-5.69556e-15
9.48417e-11
-2.1768e-10
-6.70169e-15
1.09149e-10
-2.35517e-10
6.11712e-15
1.23164e-10
-2.51841e-10
1.38248e-15
1.3674e-10
-2.65855e-10
6.26801e-16
1.49475e-10
-2.77838e-10
-3.08064e-16
1.61148e-10
-2.8711e-10
5.4163e-16
1.71447e-10
-2.93852e-10
1.66598e-17
1.80163e-10
-2.97829e-10
4.99412e-16
1.8712e-10
-2.99138e-10
5.43108e-16
1.92207e-10
-2.97829e-10
-2.27489e-16
1.95377e-10
-2.94105e-10
4.43035e-17
-2.88121e-10
-1.70276e-16
6.88402e-13
-7.72031e-12
-2.09181e-16
2.83164e-12
-2.42126e-11
1.77964e-16
6.60428e-12
-4.2214e-11
-1.7413e-15
1.20227e-11
-6.16543e-11
2.73917e-15
1.90839e-11
-8.1925e-11
4.03364e-15
2.7305e-11
-1.03485e-10
-1.32429e-15
3.78552e-11
-1.25335e-10
7.21489e-15
5.01692e-11
-1.47681e-10
-1.0063e-14
6.24008e-11
-1.70331e-10
1.03864e-15
7.62811e-11
-1.92175e-10
8.02828e-15
9.08917e-11
-2.13143e-10
-3.29779e-15
1.05909e-10
-2.32741e-10
-6.9072e-15
1.21133e-10
-2.50702e-10
5.68254e-15
1.35958e-10
-2.66662e-10
1.94505e-15
1.50136e-10
-2.80031e-10
-3.57593e-17
1.6323e-10
-2.90932e-10
2.03102e-16
1.74966e-10
-2.98842e-10
6.8863e-16
1.85044e-10
-3.03928e-10
-1.93077e-16
1.93255e-10
-3.06041e-10
3.00491e-16
1.99453e-10
-3.05339e-10
-4.09368e-16
2.03561e-10
-3.01942e-10
-4.26242e-16
2.05578e-10
-2.96124e-10
-2.61277e-16
-2.88106e-10
-6.63368e-17
7.88125e-13
-8.50847e-12
-9.35297e-17
3.2433e-12
-2.66668e-11
8.99367e-17
7.46292e-12
-4.64348e-11
-1.48213e-15
1.34237e-11
-6.76056e-11
2.39749e-15
2.14331e-11
-8.99299e-11
3.0161e-15
3.11638e-11
-1.13212e-10
-1.87496e-15
4.27736e-11
-1.36957e-10
2.31846e-15
5.59862e-11
-1.60958e-10
-1.29178e-14
7.02819e-11
-1.84649e-10
-3.93269e-15
8.57271e-11
-2.07579e-10
1.09422e-14
1.01852e-10
-2.29248e-10
-1.36531e-15
1.18256e-10
-2.49197e-10
-6.08128e-15
1.3461e-10
-2.67005e-10
5.74664e-15
1.50303e-10
-2.82369e-10
4.09523e-18
1.6503e-10
-2.94763e-10
-1.01953e-15
1.7835e-10
-3.04248e-10
1.08719e-15
1.89962e-10
-3.10448e-10
3.88672e-16
1.99586e-10
-3.13547e-10
5.79835e-16
2.07037e-10
-3.13488e-10
5.62784e-16
2.12212e-10
-3.10511e-10
3.69561e-16
2.15086e-10
-3.04815e-10
-2.10903e-17
2.15711e-10
-2.96748e-10
2.97523e-16
-2.86596e-10
1.96316e-16
9.17731e-13
-9.42609e-12
-1.13821e-16
3.76554e-12
-2.95147e-11
2.7267e-17
8.67026e-12
-5.13385e-11
-1.24666e-15
1.56907e-11
-7.46137e-11
2.66244e-15
2.49045e-11
-9.9139e-11
3.10237e-15
3.61599e-11
-1.24487e-10
-4.57822e-15
4.92983e-11
-1.50089e-10
4.46694e-15
6.40858e-11
-1.75765e-10
-7.8449e-15
8.02377e-11
-2.00789e-10
2.66886e-16
9.74183e-11
-2.24739e-10
8.54233e-15
1.15102e-10
-2.46913e-10
-1.77116e-15
1.32832e-10
-2.66973e-10
-5.40314e-15
1.5024e-10
-2.84352e-10
6.52209e-15
1.66635e-10
-2.98781e-10
-2.57117e-16
1.81695e-10
-3.09831e-10
-1.36001e-15
1.94989e-10
-3.17541e-10
6.89035e-16
2.06191e-10
-3.21649e-10
8.87119e-17
2.15063e-10
-3.22415e-10
2.8467e-16
2.2145e-10
-3.19875e-10
2.04976e-16
2.253e-10
-3.14363e-10
-2.32273e-16
2.26648e-10
-3.06163e-10
2.19778e-17
2.25613e-10
-2.95712e-10
1.75488e-16
-2.83362e-10
2.02521e-16
1.05781e-12
-1.0484e-11
-1.10951e-16
4.33918e-12
-3.2794e-11
2.58266e-16
9.97463e-12
-5.69756e-11
-1.50776e-15
1.79628e-11
-8.25931e-11
2.32722e-15
2.85834e-11
-1.09764e-10
1.51705e-15
4.16708e-11
-1.37587e-10
-4.10657e-15
5.6324e-11
-1.64749e-10
3.75051e-15
7.29798e-11
-1.92422e-10
-5.80542e-15
9.10768e-11
-2.18883e-10
-7.99622e-16
1.10152e-10
-2.43783e-10
9.98675e-15
1.29576e-10
-2.6635e-10
-5.61193e-15
1.48814e-10
-2.86222e-10
-2.39991e-15
1.67367e-10
-3.02824e-10
9.57525e-15
1.84492e-10
-3.1592e-10
4.95187e-16
1.99809e-10
-3.25158e-10
-1.85829e-15
2.1291e-10
-3.30635e-10
9.66325e-16
2.23457e-10
-3.32201e-10
-6.65516e-16
2.31272e-10
-3.30227e-10
2.76554e-16
2.36261e-10
-3.24857e-10
9.04244e-16
2.38448e-10
-3.16545e-10
5.00286e-16
2.37961e-10
-3.05672e-10
3.76707e-16
2.34998e-10
-2.92747e-10
3.86661e-16
-2.78182e-10
1.66796e-16
1.25905e-12
-1.17428e-11
-7.04506e-17
5.1695e-12
-3.67056e-11
-1.50483e-16
1.19269e-11
-6.37304e-11
-9.62081e-16
2.14435e-11
-9.21002e-11
3.73571e-15
3.35023e-11
-1.21839e-10
1.85866e-15
4.79768e-11
-1.52054e-10
-4.23993e-15
6.50594e-11
-1.81851e-10
9.88059e-16
8.4644e-11
-2.12072e-10
-1.20108e-14
1.05184e-10
-2.39438e-10
-2.38135e-15
1.26384e-10
-2.64949e-10
1.01591e-14
1.47624e-10
-2.87581e-10
-3.23022e-15
1.6819e-10
-3.06844e-10
-7.39183e-15
1.87589e-10
-3.22184e-10
4.5891e-15
2.05066e-10
-3.33412e-10
6.00763e-16
2.20209e-10
-3.40316e-10
-2.38927e-15
2.3262e-10