/*--------------------------------*- C++ -*----------------------------------*\
| =========                 |                                                 |
| \\      /  F ield         | OpenFOAM: The Open Source CFD Toolbox           |
|  \\    /   O peration     | Version:  v2012                                 |
|   \\  /    A nd           | Website:  www.openfoam.com                      |
|    \\/     M anipulation  |                                                 |
\*---------------------------------------------------------------------------*/
FoamFile
{
    version     2.0;
    format      ascii;
    class       volScalarField;
    location    "0.05";
    object      alpha.water;
}
// * * * * * * * * * * * * * * * * * * * * * * * * * * * * * * * * * * * * * //

dimensions      [0 0 0 0 0 0 0];


internalField   nonuniform List<scalar> 
2664
(
-2.65637e-64
-2.12402e-67
-1.02083e-70
-2.71983e-74
-5.03853e-78
-5.49571e-82
-5.05541e-86
-2.94004e-79
-9.1288e-78
-2.42605e-77
-2.60609e-77
-1.54284e-77
-5.7784e-78
-1.48165e-78
-2.73594e-79
-3.76585e-80
-3.95976e-81
-3.23572e-82
-2.08107e-83
-1.06237e-84
-4.32942e-86
-1.41293e-87
-3.69342e-89
-7.72377e-91
-1.287e-92
-1.69845e-94
-1.75973e-96
-1.41417e-98
-8.68e-101
-3.98647e-103
-1.33315e-105
-3.12967e-108
-4.90044e-111
-4.74462e-114
-2.51611e-117
-5.8392e-121
-3.42344e-125
2.63382e-57
2.40549e-60
1.06875e-63
2.13426e-67
2.80782e-71
2.86631e-75
2.40392e-79
-1.00599e-86
-2.99302e-77
-1.17738e-76
-1.4827e-76
-9.7668e-77
-3.97624e-77
-1.09315e-77
-2.14414e-78
-3.11333e-79
-3.43474e-80
-2.93187e-81
-1.96249e-82
-1.03939e-83
-4.38253e-85
-1.47628e-86
-3.97483e-88
-8.54565e-90
-1.4615e-91
-1.97668e-93
-2.09613e-95
-1.72211e-97
-1.0795e-99
-5.05889e-102
-1.725e-104
-4.12662e-107
-6.58156e-110
-6.48912e-113
-3.50427e-116
-8.28371e-120
-4.95016e-124
7.24093e-54
6.89523e-57
3.28783e-60
6.98221e-64
9.81182e-68
1.07409e-71
9.69035e-76
7.29205e-80
-2.27982e-87
-4.63698e-76
-7.42777e-76
-5.57903e-76
-2.49863e-76
-7.42008e-77
-1.55418e-77
-2.39028e-78
-2.77579e-79
-2.48161e-80
-1.73257e-81
-9.53732e-83
-4.16695e-84
-1.45063e-85
-4.02703e-87
-8.9082e-89
-1.56466e-90
-2.16979e-92
-2.3557e-94
-1.97885e-96
-1.26683e-98
-6.05683e-101
-2.10516e-103
-5.1294e-106
-8.32742e-109
-8.3538e-112
-4.5889e-115
-1.10346e-118
-6.7099e-123
1.90795e-50
1.90292e-53
9.84493e-57
2.23387e-60
3.36876e-64
3.97284e-68
3.87343e-72
3.15515e-76
-7.75944e-84
-1.17873e-75
-3.15282e-75
-2.8392e-75
-1.42463e-75
-4.61434e-76
-1.03861e-76
-1.69972e-77
-2.08513e-78
-1.958e-79
-1.42913e-80
-8.19215e-82
-3.71462e-83
-1.33813e-84
-3.834e-86
-8.73349e-88
-1.57639e-89
-2.24239e-91
-2.49318e-93
-2.14164e-95
-1.40015e-97
-6.82824e-100
-2.41821e-102
-5.99814e-105
-9.90494e-108
-1.01002e-110
-5.63708e-114
-1.37687e-117
-8.50408e-122
4.82642e-47
5.06525e-50
2.87473e-53
7.00299e-57
1.13873e-60
1.45362e-64
1.53887e-68
1.3637e-72
1.07147e-76
-1.47839e-84
-9.83434e-75
-1.25296e-74
-7.29311e-75
-2.61362e-75
-6.37288e-76
-1.11581e-76
-1.45182e-77
-1.43646e-78
-1.09887e-79
-6.57272e-81
-3.09813e-82
-1.1564e-83
-3.42329e-85
-8.03651e-87
-1.49161e-88
-2.17741e-90
-2.47988e-92
-2.1785e-94
-1.45436e-96
-7.23276e-99
-2.60887e-101
-6.5834e-104
-1.1049e-106
-1.14409e-109
-6.47918e-113
-1.60492e-116
-1.00488e-120
1.17354e-43
1.30222e-46
7.85763e-50
2.15557e-53
3.79799e-57
5.27356e-61
6.09173e-65
5.90213e-69
5.07233e-73
3.8295e-77
-3.19064e-85
-4.43735e-74
-3.28272e-74
-1.33604e-74
-3.57034e-75
-6.73406e-76
-9.33752e-77
-9.76927e-78
-7.85444e-79
-4.91303e-80
-2.41162e-81
-9.34012e-83
-2.85991e-84
-6.92518e-86
-1.32251e-87
-1.98199e-89
-2.31281e-91
-2.07789e-93
-1.41636e-95
-7.1808e-98
-2.63678e-100
-6.76479e-103
-1.15287e-105
-1.21082e-108
-6.94804e-112
-1.74236e-115
-1.10351e-119
2.74685e-40
3.23877e-43
2.08777e-46
6.52952e-50
1.25292e-53
1.90186e-57
2.40931e-61
2.56558e-65
2.42548e-69
2.0113e-73
-1.094e-81
-8.78878e-74
-1.22949e-73
-6.05696e-74
-1.8108e-74
-3.71521e-75
-5.5229e-76
-6.13593e-77
-5.20137e-78
-3.41083e-79
-1.74691e-80
-7.03089e-82
-2.2294e-83
-5.57328e-85
-1.09582e-86
-1.68672e-88
-2.01708e-90
-1.85343e-92
-1.2897e-94
-6.66359e-97
-2.48959e-99
-6.48881e-102
-1.1218e-104
-1.19354e-107
-6.92906e-111
-1.75575e-114
-1.12213e-118
6.19898e-37
7.8064e-40
5.40362e-43
1.95143e-46
4.09932e-50
6.83778e-54
9.54896e-58
1.12353e-61
1.17523e-65
1.07803e-69
8.64832e-74
-1.24975e-82
-3.08454e-73
-2.32908e-73
-8.18605e-74
-1.85813e-74
-2.98643e-75
-3.54207e-76
-3.17779e-77
-2.19087e-78
-1.17336e-79
-4.91595e-81
-1.61632e-82
-4.17557e-84
-8.45871e-86
-1.33783e-87
-1.6399e-89
-1.54115e-91
-1.09457e-93
-5.76117e-96
-2.18872e-98
-5.79063e-101
-1.01446e-103
-1.09192e-106
-6.40249e-110
-1.63585e-113
-1.05227e-117
1.35134e-33
1.82721e-36
1.36538e-39
5.77056e-43
1.33421e-46
2.45862e-50
3.80505e-54
4.97355e-58
5.78907e-62
5.91212e-66
5.27482e-70
4.21903e-74
-4.11449e-83
-6.36487e-73
-3.1737e-73
-8.3017e-74
-1.4637e-74
-1.86727e-75
-1.78154e-76
-1.29577e-77
-7.2756e-79
-3.17927e-80
-1.0855e-81
-2.90107e-83
-6.05956e-85
-9.85241e-87
-1.23823e-88
-1.19017e-90
-8.62581e-93
-4.6231e-95
-1.78479e-97
-4.78886e-100
-8.49164e-103
-9.23283e-106
-5.45769e-109
-1.40284e-112
-9.0557e-117
2.8515e-30
4.1628e-33
3.37649e-36
1.6938e-39
4.33436e-43
8.87213e-47
1.52996e-50
2.23372e-54
2.90946e-58
3.32827e-62
3.32609e-66
2.97712e-70
2.40518e-74
4.13056e-99
-9.00114e-73
-3.19727e-73
-6.40786e-74
-8.9074e-75
-9.09958e-76
-7.01314e-77
-4.14137e-78
-1.89191e-79
-6.7196e-81
-1.86021e-82
-4.00983e-84
-6.70625e-86
-8.64385e-88
-8.49781e-90
-6.28349e-92
-3.4277e-94
-1.34378e-96
-3.65309e-99
-6.54814e-102
-7.18036e-105
-4.27024e-108
-1.10141e-111
-7.11186e-116
5.83826e-27
9.25505e-30
8.19516e-33
4.51222e-36
1.405e-39
3.21092e-43
6.19772e-47
1.01455e-50
1.48352e-54
1.90554e-58
2.13587e-62
2.14041e-66
1.93144e-70
1.55597e-74
0
-9.1344e-73
-2.4221e-73
-3.78761e-74
-4.19218e-75
-3.44527e-76
-2.14844e-77
-1.02905e-78
-3.81015e-80
-1.09426e-81
-2.4369e-83
-4.19516e-85
-5.54763e-87
-5.57875e-89
-4.20775e-91
-2.33519e-93
-9.28967e-96
-2.55606e-98
-4.6252e-101
-5.106e-104
-3.04824e-107
-7.86723e-111
-5.06292e-115
2.22534e-20
3.73155e-23
1.93787e-29
1.18339e-32
4.30685e-36
1.10277e-39
2.37856e-43
4.33171e-47
7.03412e-51
9.98161e-55
1.22492e-58
1.33403e-62
1.30046e-66
1.12373e-70
8.52852e-75
1.10879e-90
-6.89837e-73
-1.39004e-73
-1.7147e-74
-1.51898e-75
-1.00616e-76
-5.07231e-78
-1.96311e-79
-5.86043e-81
-1.35017e-82
-2.39471e-84
-3.25063e-86
-3.34429e-88
-2.57263e-90
-1.45187e-92
-5.85642e-95
-1.62918e-97
-2.97165e-100
-3.29642e-103
-1.97067e-106
-5.07363e-110
-3.24094e-114
6.95801e-18
4.36521e-20
8.52455e-23
3.18017e-26
1.01334e-32
2.98661e-36
7.24035e-40
1.44732e-43
2.5711e-47
3.93535e-51
5.07801e-55
5.73605e-59
5.77845e-63
5.12468e-67
3.94101e-71
2.60541e-75
2.06528e-99
-3.93629e-73
-6.03747e-74
-5.90856e-75
-4.19864e-76
-2.2401e-77
-9.0953e-79
-2.8295e-80
-6.75603e-82
-1.23604e-83
-1.72356e-85
-1.81474e-87
-1.42376e-89
-8.1677e-92
-3.33818e-94
-9.37845e-97
-1.7217e-99
-1.91517e-102
-1.14347e-105
-2.92659e-109
-1.84709e-113
2.22359e-16
5.78879e-18
2.79192e-20
5.35266e-23
4.42186e-26
1.41897e-30
1.6707e-36
3.80372e-40
7.70466e-44
1.31209e-47
1.79268e-51
2.10412e-55
2.22115e-59
2.064e-63
1.62892e-67
1.06041e-71
2.2708e-87
-1.64197e-73
-1.65838e-73
-1.96572e-74
-1.53167e-75
-8.72767e-77
-3.73709e-78
-1.21576e-79
-3.01582e-81
-5.70099e-83
-8.17506e-85
-8.8143e-87
-7.05376e-89
-4.11229e-91
-1.7018e-93
-4.82315e-96
-8.89741e-99
-9.90324e-102
-5.88818e-105
-1.49243e-108
-9.25814e-113
1.63533e-15
1.57861e-16
2.59265e-18
9.2138e-21
1.66589e-23
1.82924e-26
9.9634e-30
7.10946e-34
2.12582e-40
4.51037e-44
6.9721e-48
9.05999e-52
1.09177e-55
1.17142e-59
1.04094e-63
7.18764e-68
7.08564e-72
8.45938e-96
0
-4.95626e-74
-4.72087e-75
-2.93392e-76
-1.33619e-77
-4.56883e-79
-1.18147e-80
-2.31315e-82
-3.41654e-84
-3.77586e-86
-3.08356e-88
-1.82681e-90
-7.65067e-93
-2.18509e-95
-4.04397e-98
-4.49355e-101
-2.65225e-104
-6.62922e-108
-4.01795e-112
4.54849e-15
1.17285e-15
6.8555e-17
6.33407e-19
1.69356e-21
2.83389e-24
3.38984e-27
2.93574e-30
1.74449e-33
6.02146e-37
7.0219e-41
1.66105e-46
5.98432e-52
8.55193e-56
9.47592e-60
7.56996e-64
7.18764e-68
7.08564e-72
1.91691e-75
8.26111e-99
-1.04996e-74
-8.17565e-76
-4.04626e-77
-1.46614e-78
-3.97239e-80
-8.08313e-82
-1.23269e-83
-1.39866e-85
-1.16668e-87
-7.0259e-90
-2.97695e-92
-8.56064e-95
-1.58699e-97
-1.75631e-100
-1.02562e-103
-2.51611e-107
-1.47982e-111
7.28909e-15
3.53517e-15
5.80511e-16
1.71403e-17
8.66604e-20
1.84985e-22
2.80058e-25
3.26194e-28
2.98978e-31
2.15821e-34
1.2138e-37
5.21599e-41
1.67557e-44
3.86192e-48
5.97844e-52
5.46435e-56
1.95623e-60
2.51202e-63
1.51526e-66
2.32474e-70
2.48007e-74
-1.54453e-75
-9.89339e-77
-3.88069e-78
-1.11079e-79
-2.36174e-81
-3.73279e-83
-4.35969e-85
-3.72083e-87
-2.27984e-89
-9.77504e-92
-2.82866e-94
-5.24555e-97
-5.76835e-100
-3.32092e-103
-7.95536e-107
-4.50465e-111
8.91207e-15
6.19913e-15
2.12566e-15
1.84732e-16
2.47507e-18
7.66855e-21
1.37189e-23
1.84788e-26
1.95691e-29
1.64958e-32
1.10879e-35
5.92809e-39
2.52142e-42
8.58572e-46
2.36201e-49
5.32076e-53
9.93289e-57
1.57517e-60
2.08837e-64
2.32524e-68
2.12636e-72
1.11764e-76
-1.74349e-76
-8.019e-78
-2.46543e-79
-5.5266e-81
-9.10917e-83
-1.1e-84
-9.63551e-87
-6.01913e-89
-2.6143e-91
-7.61367e-94
-1.41108e-96
-1.53864e-99
-8.70221e-103
-2.02411e-106
-1.09335e-110
9.67017e-15
8.12088e-15
4.48727e-15
9.34762e-16
3.81143e-17
2.46871e-19
5.61934e-22
8.7622e-25
1.04902e-27
9.84604e-31
7.2534e-34
4.15647e-37
1.82804e-40
6.069e-44
1.48444e-47
2.56474e-51
2.93046e-55
2.04064e-59
6.99157e-64
6.58296e-69
2.58642e-74
8.66232e-93
-2.31242e-76
-1.19709e-77
-4.03496e-79
-9.68926e-81
-1.68417e-82
-2.1198e-84
-1.917e-86
-1.226e-88
-5.40892e-91
-1.58763e-93
-2.94101e-96
-3.17526e-99
-1.75847e-102
-3.9477e-106
-2.01245e-110
1.00003e-14
9.20238e-15
6.73641e-15
2.64973e-15
3.00859e-16
5.71473e-18
2.19789e-20
4.27166e-23
6.14746e-26
6.91285e-29
6.1346e-32
4.28285e-35
2.334e-38
9.78959e-42
3.10628e-45
7.18697e-49
1.12233e-52
1.04085e-56
3.60633e-61
2.32531e-67
1.14724e-73
6.65391e-78
0
-9.39824e-78
-4.19584e-79
-1.13369e-80
-2.13062e-82
-2.84199e-84
-2.68539e-86
-1.77383e-88
-7.99999e-91
-2.3767e-93
-4.41036e-96
-4.71531e-99
-2.55092e-102
-5.49452e-106
-2.6107e-110
1.01682e-14
9.75555e-15
8.29355e-15
4.88209e-15
1.2138e-15
6.7645e-17
6.16093e-19
1.69345e-21
3.00632e-24
4.13543e-27
4.53092e-30
3.98287e-33
2.82076e-36
1.61138e-39
7.43388e-43
2.77237e-46
8.30752e-50
2.01292e-53
3.85801e-57
5.86178e-61
6.88957e-65
6.13041e-69
4.05902e-73
1.84609e-77
-1.23092e-79
-6.7638e-81
-1.51937e-82
-2.24511e-84
-2.27922e-86
-1.58617e-88
-7.42003e-91
-2.25468e-93
-4.22067e-96
-4.48532e-99
-2.37037e-102
-4.87395e-106
-2.12681e-110
1.0309e-14
1.0067e-14
9.1904e-15
6.74149e-15
2.76866e-15
3.49949e-16
7.84417e-18
3.51494e-20
7.55544e-23
1.20007e-25
1.50786e-28
1.51981e-31
1.23956e-34
8.22694e-38
4.46836e-41
1.99185e-44
7.28693e-48
2.21557e-51
5.50857e-55
1.1304e-58
1.88815e-62
2.55311e-66
2.81346e-70
2.4539e-74
1.69288e-78
7.0526e-83
-3.77786e-83
-7.73377e-85
-9.00752e-87
-6.83945e-89
-3.40045e-91
-1.07632e-93
-2.06031e-96
-2.19658e-99
-1.13879e-102
-2.2298e-106
-8.79392e-111
1.05168e-14
1.03127e-14
9.67906e-15
7.87719e-15
4.2598e-15
9.02459e-16
3.99311e-17
2.96938e-19
7.6089e-22
1.32019e-24
1.7907e-27
1.94161e-30
1.70177e-33
1.21541e-36
7.1317e-40
3.45749e-43
1.38628e-46
4.6772e-50
1.31003e-53
3.08173e-57
6.0174e-61
9.71365e-65
1.30689e-68
1.42478e-72
1.26389e-76
8.9139e-81
4.67475e-85
-3.14703e-86
-6.30783e-88
-6.09261e-90
-3.51205e-92
-1.23145e-94
-2.52881e-97
-2.80989e-100
-1.47124e-103
-2.79439e-107
-9.96178e-112
1.08516e-14
1.05719e-14
9.93867e-15
8.40425e-15
5.1761e-15
1.44304e-15
9.51638e-17
1.0122e-18
2.96597e-21
5.38887e-24
7.57953e-27
8.5152e-30
7.74037e-33
5.74861e-36
3.52388e-39
1.79689e-42
7.63712e-46
2.76161e-49
8.39671e-53
2.17494e-56
4.7485e-60
8.70867e-64
1.35285e-67
1.73011e-71
1.82837e-75
1.56218e-79
1.06448e-83
5.67089e-88
1.12897e-92
-1.16948e-92
-1.15215e-94
-5.43163e-97
-1.36292e-99
-1.74201e-102
-9.97527e-106
-1.96758e-109
-6.81832e-114
1.12633e-14
1.08035e-14
1.00348e-14
8.53353e-15
5.48316e-15
1.69032e-15
1.297e-16
1.59139e-18
4.91786e-21
9.02834e-24
1.27817e-26
1.44765e-29
1.331e-32
1.005e-35
6.30937e-39
3.32632e-42
1.47842e-45
5.65679e-49
1.84387e-52
5.18602e-56
1.24373e-59
2.53076e-63
4.40197e-67
6.35679e-71
7.64849e-75
7.50208e-79
5.91972e-83
3.70357e-87
1.77017e-91
6.18359e-96
1.28411e-100
-5.51421e-102
-2.47624e-104
-5.3667e-107
-6.39738e-110
-3.58445e-113
-3.0205e-117
1.15988e-14
1.09134e-14
1.00171e-14
8.47199e-15
5.44531e-15
1.67833e-15
1.27472e-16
1.5253e-18
4.58373e-21
8.21199e-24
1.13588e-26
1.25983e-29
1.13969e-32
8.53017e-36
5.36077e-39
2.86241e-42
1.30475e-45
5.17864e-49
1.76923e-52
5.26006e-56
1.34281e-59
2.92573e-63
5.47852e-67
8.56199e-71
1.12118e-74
1.2042e-78
1.04734e-82
7.27296e-87
3.89063e-91
1.56226e-95
4.52315e-100
8.81512e-105
7.95953e-110
-1.01621e-111
-3.50408e-114
-5.86945e-117
-9.23258e-121
1.17407e-14
1.0881e-14
9.84414e-15
8.1914e-15
5.06362e-15
1.42131e-15
9.18002e-17
9.15389e-19
2.48993e-21
4.23903e-24
5.61767e-27
5.99952e-30
5.26492e-33
3.86096e-36
2.40555e-39
1.28915e-42
5.96397e-46
2.4229e-49
8.52452e-53
2.6209e-56
6.93966e-60
1.57244e-63
3.07155e-67
5.02615e-71
6.92157e-75
7.85586e-79
7.25679e-83
5.37949e-87
3.08685e-91
1.33526e-95
4.17949e-100
8.89264e-105
1.18171e-109
8.42817e-115
-4.69185e-119
-9.58682e-121
-2.21715e-124
1.16908e-14
1.06607e-14
9.52266e-15
7.70652e-15
4.3677e-15
1.00381e-15
4.71853e-17
3.43589e-19
8.1002e-22
1.28563e-24
1.60747e-27
1.63293e-30
1.3776e-33
9.83327e-37
6.03791e-40
3.2226e-43
1.49572e-46
6.12133e-50
2.17446e-53
6.7628e-57
1.81614e-60
4.19023e-64
8.38117e-68
1.41431e-71
2.02558e-75
2.41395e-79
2.36581e-83
1.88127e-87
1.17091e-91
5.55257e-96
1.92279e-100
4.55064e-105
6.71645e-110
5.38992e-115
1.82698e-120
-7.67799e-125
-4.20465e-128
1.13717e-14
1.02641e-14
9.05801e-15
6.97154e-15
3.37381e-15
5.54277e-16
1.59936e-17
7.73123e-20
1.55247e-22
2.25927e-25
2.629e-28
2.5177e-31
2.03232e-34
1.40828e-37
8.49173e-41
4.48236e-44
2.0637e-47
8.38593e-51
2.95922e-54
9.15713e-58
2.45427e-61
5.67604e-65
1.14403e-68
1.95615e-72
2.85354e-76
3.47837e-80
3.49656e-84
2.85448e-88
1.82138e-92
8.81648e-97
3.09101e-101
7.30501e-106
1.05238e-110
7.91315e-116
2.3965e-121
1.99834e-127
-5.30355e-132
1.08012e-14
9.73194e-15
8.41154e-15
5.86752e-15
2.15023e-15
2.08504e-16
3.06669e-18
9.55742e-21
1.63661e-23
2.15409e-26
2.31073e-29
2.07816e-32
1.60336e-35
1.07606e-38
6.3294e-42
3.2661e-45
1.46964e-48
5.83873e-52
2.01688e-55
6.12728e-59
1.61923e-62
3.71144e-66
7.45508e-70
1.27724e-73
1.87611e-77
2.31278e-81
2.35965e-85
1.96084e-89
1.27591e-93
6.29874e-98
2.24576e-102
5.35512e-107
7.63876e-112
5.50715e-117
1.52013e-122
1.30184e-128
2.38297e-135
1.01015e-14
9.08492e-15
7.42956e-15
4.22032e-15
9.46741e-16
4.10414e-17
2.62873e-19
5.59533e-22
8.22175e-25
9.70902e-28
9.58605e-31
8.11322e-34
5.98232e-37
3.865e-40
2.19181e-43
1.09004e-46
4.73151e-50
1.82054e-53
6.12661e-57
1.82754e-60
4.78454e-64
1.09633e-67
2.22028e-71
3.86165e-75
5.78502e-79
7.28592e-83
7.58424e-87
6.40033e-91
4.19371e-95
2.05931e-99
7.18658e-104
1.63893e-108
2.16785e-113
1.40612e-118
3.42903e-124
2.96586e-130
6.67559e-137
9.35076e-15
8.16312e-15
5.71831e-15
2.08659e-15
1.94931e-16
2.61147e-18
7.39208e-21
1.18837e-23
1.50445e-26
1.59317e-29
1.45077e-32
1.15185e-35
8.01733e-39
4.89231e-42
2.62173e-45
1.23656e-48
5.13123e-52
1.90551e-55
6.2533e-59
1.83525e-62
4.75309e-66
1.0783e-69
2.15369e-73
3.66407e-77
5.31013e-81
6.3903e-85
6.27879e-89
4.94889e-93
3.00564e-97
1.36369e-101
4.40586e-106
9.40939e-111
1.2048e-115
8.01794e-121
2.15623e-126
2.16499e-132
4.79867e-139
8.37039e-15
6.36758e-15
2.88796e-15
3.94541e-16
8.02404e-18
2.7645e-20
4.61811e-23
5.99229e-26
6.55085e-29
6.18589e-32
5.09874e-35
3.68042e-38
2.33558e-41
1.30864e-44
6.51847e-48
2.90042e-51
1.15133e-54
4.12136e-58
1.30462e-61
3.67094e-65
9.01459e-69
1.91341e-72
3.53114e-76
5.49683e-80
7.24922e-84
7.93559e-88
7.12911e-92
5.1918e-96
2.9554e-100
1.27693e-104
3.98758e-109
8.32938e-114
1.0384e-118
6.28789e-124
1.34436e-129
1.13241e-135
2.35139e-142
6.1483e-15
2.69768e-15
3.27197e-16
5.36998e-18
1.55244e-20
2.38934e-23
2.93666e-26
3.09793e-29
2.87859e-32
2.39067e-35
1.79175e-38
1.21364e-41
7.38489e-45
3.98817e-48
1.89274e-51
7.84619e-55
2.82341e-58
8.93142e-62
2.44992e-65
5.90832e-69
1.2413e-72
2.26871e-76
3.6512e-80
5.03514e-84
5.97751e-88
5.96887e-92
4.93128e-96
3.3081e-100
1.72561e-104
6.76482e-109
1.8924e-113
3.479e-118
3.68329e-123
1.73929e-128
3.07468e-134
2.06356e-140
9.68566e-146
1.07682e-15
4.21395e-17
2.06672e-19
3.41063e-22
4.0498e-25
4.53885e-28
5.42109e-31
6.30776e-34
6.25185e-37
5.01887e-40
3.27654e-43
1.77422e-46
8.15749e-50
3.25731e-53
1.15095e-56
3.63882e-60
1.02203e-63
2.5713e-67
5.69067e-71
1.11641e-74
1.90749e-78
2.81073e-82
3.59196e-86
3.85744e-90
3.49385e-94
2.61029e-98
1.58668e-102
7.7273e-107
2.89468e-111
8.07149e-116
1.5896e-120
2.03647e-125
1.46622e-130
5.41656e-136
1.04202e-141
1.19009e-145
2.44207e-149
2.66563e-19
3.8669e-22
1.67986e-25
5.3196e-29
2.27776e-32
1.87604e-35
1.98024e-38
1.90343e-41
1.49809e-44
9.5493e-48
5.01417e-51
2.24436e-54
8.71585e-58
2.98245e-61
9.08828e-65
2.47732e-68
5.96546e-72
1.28515e-75
4.02196e-79
8.02668e-83
1.30871e-86
1.90429e-90
2.43307e-94
2.60585e-98
1.63233e-102
1.12199e-106
7.09211e-111
4.97322e-115
2.25849e-119
7.50663e-124
2.24491e-128
6.73428e-133
1.14921e-137
1.12556e-142
8.42343e-146
1.26215e-149
1.34009e-153
-1.66475e-64
-1.32884e-67
-6.40214e-71
-1.70821e-74
-3.17572e-78
-3.47012e-82
-3.20684e-86
-2.16407e-90
-3.01515e-83
-1.88818e-82
-2.71602e-82
-2.27398e-82
-1.20971e-82
-4.27259e-83
-1.05003e-83
-1.86155e-84
-2.46598e-85
-2.46997e-86
-1.91417e-87
-1.15883e-88
-5.52673e-90
-2.08679e-91
-6.24325e-93
-1.48075e-94
-2.77564e-96
-4.09055e-98
-4.70145e-100
-4.16568e-102
-2.80328e-104
-1.40427e-106
-5.0977e-109
-1.29325e-111
-2.17909e-114
-2.26131e-117
-1.28043e-120
-3.16148e-124
-1.96544e-128
2.64979e-57
2.42234e-60
1.07655e-63
2.15041e-67
2.82901e-71
2.88814e-75
2.4227e-79
1.68173e-83
-3.94494e-91
-6.3025e-82
-1.37604e-81
-1.34816e-81
-7.9435e-82
-3.03895e-82
-7.99198e-83
-1.50356e-83
-2.10047e-84
-2.20673e-85
-1.78615e-86
-1.12531e-87
-5.56777e-89
-2.17506e-90
-6.71665e-92
-1.64082e-93
-3.16209e-95
-4.78308e-97
-5.63439e-99
-5.11031e-101
-3.51643e-103
-1.79951e-105
-6.66802e-108
-1.72562e-110
-2.9646e-113
-3.13584e-116
-1.80981e-119
-4.55581e-123
-2.88948e-127
7.28484e-54
6.94353e-57
3.31183e-60
7.03505e-64
9.88587e-68
1.08227e-71
9.76574e-76
7.35048e-80
3.80056e-84
-5.52126e-92
-5.52841e-81
-7.04685e-81
-4.72756e-81
-1.98149e-81
-5.61432e-82
-1.12644e-82
-1.66621e-83
-1.84214e-84
-1.56156e-85
-1.02614e-86
-5.27685e-88
-2.136e-89
-6.81644e-91
-1.71682e-92
-3.40408e-94
-5.28803e-96
-6.38693e-98
-5.93108e-100
-4.17333e-102
-2.18147e-104
-8.24877e-107
-2.17659e-109
-3.8102e-112
-4.10463e-115
-2.412e-118
-6.18215e-122
-3.99369e-126
1.91952e-50
1.91625e-53
9.91677e-57
2.25077e-60
3.39418e-64
4.0031e-68
3.90356e-72
3.18041e-76
2.29789e-80
-2.56139e-88
-1.20298e-80
-3.07909e-80
-2.50717e-80
-1.17416e-80
-3.6194e-81
-7.79399e-82
-1.22664e-82
-1.43255e-83
-1.27568e-84
-8.76501e-86
-4.69409e-87
-1.97204e-88
-6.51197e-90
-1.69272e-91
-3.45591e-93
-5.51665e-95
-6.83446e-97
-6.49949e-99
-4.6767e-101
-2.49666e-103
-9.63071e-106
-2.58981e-108
-4.61625e-111
-5.06014e-114
-3.02409e-117
-7.88088e-121
-5.17639e-125
4.85568e-47
5.10073e-50
2.89452e-53
7.05598e-57
1.14732e-60
1.46469e-64
1.55085e-68
1.37446e-72
1.0801e-76
7.46941e-81
-5.35082e-89
-9.28651e-80
-1.1426e-79
-6.23887e-80
-2.12565e-80
-4.95555e-81
-8.34779e-82
-1.03435e-82
-9.7091e-84
-6.99413e-85
-3.9094e-86
-1.70754e-87
-5.84262e-89
-1.56911e-90
-3.30137e-92
-5.4186e-94
-6.88838e-96
-6.70985e-98
-4.93732e-100
-2.6915e-102
-1.05877e-104
-2.90003e-107
-5.25957e-110
-5.86068e-113
-3.55776e-116
-9.41258e-120
-6.27409e-124
1.18066e-43
1.31135e-46
7.91055e-50
2.17188e-53
3.82665e-57
5.31372e-61
6.13913e-65
5.94876e-69
5.1127e-73
3.86108e-77
2.53484e-81
-9.68718e-90
-3.93467e-79
-2.89294e-79
-1.12443e-79
-2.87589e-80
-5.22561e-81
-6.90591e-82
-6.86002e-83
-5.197e-84
-3.03919e-85
-1.38277e-86
-4.90996e-88
-1.36397e-89
-2.95996e-91
-4.99837e-93
-6.52283e-95
-6.50937e-97
-4.89821e-99
-2.72611e-101
-1.09318e-103
-3.04809e-106
-5.62021e-109
-6.35943e-112
-3.91618e-115
-1.05009e-118
-7.08841e-123
2.7635e-40
3.26145e-43
2.10183e-46
6.57893e-50
1.26238e-53
1.91634e-57
2.42806e-61
2.58585e-65
2.4448e-69
2.02787e-73
1.4755e-77
-3.37154e-86
-2.84439e-90
-1.08053e-78
-5.23903e-79
-1.50762e-79
-2.9889e-80
-4.24149e-81
-4.48e-82
-3.58195e-83
-2.19759e-84
-1.04374e-85
-3.85246e-87
-1.1084e-88
-2.48329e-90
-4.31731e-92
-5.78611e-94
-5.91681e-96
-4.55307e-98
-2.58655e-100
-1.05689e-102
-2.99796e-105
-5.61494e-108
-6.44438e-111
-4.01988e-114
-1.09048e-117
-7.43746e-122
6.23656e-37
7.86107e-40
5.44001e-43
1.9662e-46
4.13025e-50
6.88986e-54
9.62328e-58
1.13241e-61
1.18459e-65
1.0868e-69
8.71994e-74
6.29098e-78
-1.11769e-86
-2.13511e-78
-2.0256e-78
-7.00031e-79
-1.54652e-79
-2.37977e-80
-2.689e-81
-2.27881e-82
-1.47147e-83
-7.31341e-85
-2.81124e-86
-8.38896e-88
-1.94244e-89
-3.47936e-91
-4.79119e-93
-5.02159e-95
-3.95163e-97
-2.2909e-99
-9.53417e-102
-2.74939e-104
-5.22566e-107
-6.07592e-110
-3.83311e-113
-1.04989e-116
-7.21666e-121
1.35953e-33
1.84e-36
1.37458e-39
5.81423e-43
1.34428e-46
2.47734e-50
3.83467e-54
5.01286e-58
5.83521e-62
5.96024e-66
5.31799e-70
4.25381e-74
3.0774e-78
-3.4665e-103
-5.05044e-78
-2.73445e-78
-7.10847e-79
-1.20753e-79
-1.4725e-80
-1.32995e-81
-9.07378e-83
-4.73301e-84
-1.89887e-85
-5.88659e-87
-1.41038e-88
-2.60507e-90
-3.68782e-92
-3.9626e-94
-3.1889e-96
-1.88619e-98
-7.99139e-101
-2.34108e-103
-4.5109e-106
-5.30624e-109
-3.37977e-112
-9.32647e-116
-6.44295e-120
2.86878e-30
4.19195e-33
3.39923e-36
1.70662e-39
4.36707e-43
8.93969e-47
1.54187e-50
2.25138e-54
2.93266e-58
3.35538e-62
3.35333e-66
3.00137e-70
2.425e-74
1.75525e-78
-5.04218e-103
-7.2591e-78
-2.7703e-78
-5.44497e-79
-7.28031e-80
-7.06348e-81
-5.11737e-82
-2.81126e-83
-1.18021e-84
-3.80819e-86
-9.45434e-88
-1.8025e-89
-2.62487e-91
-2.89253e-93
-2.3806e-95
-1.43632e-97
-6.19207e-100
-1.84134e-102
-3.59295e-105
-4.26972e-108
-2.74062e-111
-7.60117e-115
-5.26112e-119
5.87365e-27
9.31987e-30
8.25034e-33
4.54515e-36
1.4156e-39
3.23538e-43
6.24598e-47
1.02257e-50
1.49536e-54
1.92108e-58
2.1534e-62
2.15789e-66
1.94721e-70
1.56887e-74
1.12012e-78
5.04218e-103
-7.52456e-78
-2.08882e-78
-3.19376e-79
-3.37594e-80
-2.61571e-81
-1.52024e-82
-6.69947e-84
-2.25523e-85
-5.81131e-87
-1.14498e-88
-1.71654e-90
-1.94076e-92
-1.63373e-94
-1.00528e-96
-4.40765e-99
-1.32942e-101
-2.6239e-104
-3.14518e-107
-2.03029e-110
-5.64484e-114
-3.90104e-118
2.24063e-20
3.76357e-23
1.9509e-29
1.19203e-32
4.33923e-36
1.11114e-39
2.39705e-43
4.36595e-47
7.09026e-51
1.00633e-54
1.23504e-58
1.34499e-62
1.31116e-66
1.13302e-70
8.60028e-75
5.70559e-79
1.3535e-94
-5.69251e-78
-1.1936e-78
-1.42613e-79
-1.19666e-80
-7.40555e-82
-3.43989e-83
-1.21154e-84
-3.24709e-86
-6.62123e-88
-1.02295e-89
-1.18734e-91
-1.02254e-93
-6.41619e-96
-2.8598e-98
-8.74167e-101
-1.7431e-103
-2.104e-106
-1.36289e-109
-3.78761e-113
-2.60342e-117
6.98523e-18
4.38873e-20
8.57841e-23
3.21463e-26
1.02064e-32
3.00847e-36
7.29513e-40
1.45852e-43
2.59122e-47
3.96731e-51
5.11979e-55
5.7828e-59
5.82554e-63
5.16688e-67
3.9739e-71
2.62742e-75
1.60909e-79
-3.38375e-95
-3.24735e-78
-5.12577e-79
-4.80621e-80
-3.20245e-81
-1.57721e-82
-5.83432e-84
-1.63075e-85
-3.44815e-87
-5.4971e-89
-6.55567e-91
-5.77819e-93
-3.69721e-95
-1.67456e-97
-5.1834e-100
-1.04291e-102
-1.2654e-105
-8.20543e-109
-2.27209e-112
-1.54655e-116
2.22902e-16
5.81193e-18
2.80629e-20
5.38344e-23
4.45374e-26
1.44022e-30
1.68308e-36
3.83309e-40
7.76547e-44
1.32321e-47
1.8084e-51
2.1224e-55
2.24063e-59
2.08278e-63
1.64453e-67
1.07098e-71
7.58664e-76
0
-1.69188e-95
-1.35546e-78
-1.63154e-79
-1.20272e-80
-6.34377e-82
-2.47841e-83
-7.25131e-85
-1.59401e-86
-2.62698e-88
-3.2227e-90
-2.90906e-92
-1.89849e-94
-8.73549e-97
-2.73614e-99
-5.54791e-102
-6.75411e-105
-4.37296e-108
-1.20224e-111
-8.06384e-116
1.63756e-15
1.58279e-16
2.60334e-18
9.25959e-21
1.67488e-23
1.84034e-26
1.00393e-29
7.22799e-34
2.14296e-40
4.55191e-44
7.04051e-48
9.14814e-52
1.10258e-55
1.18381e-59
1.05307e-63
7.2781e-68
7.05418e-72
7.58664e-76
1.29875e-79
-2.52109e-103
-3.97477e-79
-3.76001e-80
-2.17995e-81
-9.08058e-83
-2.79631e-84
-6.41433e-86
-1.09563e-87
-1.38508e-89
-1.28188e-91
-8.53691e-94
-3.99044e-96
-1.26401e-98
-2.5798e-101
-3.14525e-104
-2.02763e-107
-5.5132e-111
-3.62347e-115
4.55156e-15
1.17468e-15
6.87539e-17
6.36068e-19
1.70162e-21
2.84832e-24
3.40847e-27
2.95373e-30
1.7572e-33
6.07924e-37
7.14041e-41
1.71329e-46
6.04491e-52
8.64801e-56
9.59759e-60
7.67807e-64
7.2781e-68
7.05418e-72
2.22107e-75
3.40933e-79
0
-7.14111e-80
-6.06317e-81
-2.77457e-82
-9.07903e-84
-2.18555e-85
-3.88437e-87
-5.07429e-89
-4.82375e-91
-3.28175e-93
-1.55895e-95
-4.99244e-98
-1.02457e-100
-1.24861e-103
-7.9913e-107
-2.13984e-110
-1.36924e-114
7.29137e-15
3.53812e-15
5.81565e-16
1.71937e-17
8.70135e-20
1.85805e-22
2.81379e-25
3.27853e-28
3.00649e-31
2.17158e-34
1.22227e-37
5.25772e-41
1.69122e-44
3.90518e-48
6.06126e-52
5.56222e-56
2.00395e-60
2.44695e-63
1.82851e-66
2.69018e-70
2.7963e-74
2.20097e-78
-5.45569e-81
-6.5776e-82
-2.3722e-83
-6.05344e-85
-1.12647e-86
-1.52733e-88
-1.49599e-90
-1.04186e-92
-5.0354e-95
-1.63072e-97
-3.36297e-100
-4.0897e-103
-2.59097e-106
-6.80109e-110
-4.20608e-114
8.91337e-15
6.2017e-15
2.12782e-15
1.85096e-16
2.48248e-18
7.6955e-21
1.37703e-23
1.85536e-26
1.96569e-29
1.65783e-32
1.11507e-35
5.96644e-39
2.54017e-42
8.6589e-46
2.38485e-49
5.37789e-53
1.00482e-56
1.59449e-60
2.11535e-64
2.35698e-68
2.16051e-72
1.61996e-76
9.70797e-81
-1.03882e-81
-4.62251e-83
-1.27799e-84
-2.51724e-86
-3.56915e-88
-3.6217e-90
-2.59198e-92
-1.27783e-94
-4.19063e-97
-8.68601e-100
-1.05289e-102
-6.58538e-106
-1.68637e-109
-9.99576e-114
9.67086e-15
8.12252e-15
4.48955e-15
9.35726e-16
3.8178e-17
2.47398e-19
5.63212e-22
8.78339e-25
1.05185e-27
9.87627e-31
7.27967e-34
4.17491e-37
1.83841e-40
6.11483e-44
1.50005e-47
2.60471e-51
3.00184e-55
2.12331e-59
7.58255e-64
7.74115e-69
2.93539e-74
1.01674e-81
1.13252e-104
-1.22302e-81
-6.03472e-83
-1.84403e-84
-3.91987e-86
-5.89442e-88
-6.26057e-90
-4.63958e-92
-2.34598e-94
-7.82024e-97
-1.63251e-99
-1.97307e-102
-1.21627e-105
-3.02478e-109
-1.7025e-113
1.00007e-14
9.20332e-15
6.73801e-15
2.65089e-15
3.0105e-16
5.71879e-18
2.19928e-20
4.27396e-23
6.15065e-26
6.91639e-29
6.13793e-32
4.28555e-35
2.33587e-38
9.80038e-42
3.1113e-45
7.20495e-49
1.12687e-52
1.04841e-56
3.67035e-61
2.42167e-67
1.14576e-73
6.63778e-78
2.93851e-82
-6.60889e-98
-3.18771e-83
-1.43411e-84
-3.51519e-86
-5.79145e-88
-6.58064e-90
-5.13199e-92
-2.69431e-94
-9.21329e-97
-1.94966e-99
-2.35863e-102
-1.43442e-105
-3.45487e-109
-1.82934e-113
1.01684e-14
9.75609e-15
8.29451e-15
4.88291e-15
1.21397e-15
6.76416e-17
6.15879e-19
1.69248e-21
3.00425e-24
4.13205e-27
4.52666e-30
3.97864e-33
2.81743e-36
1.60928e-39
7.42326e-43
2.76804e-46
8.29334e-50
2.00917e-53
3.8501e-57
5.84849e-61
6.87209e-65
6.11275e-69
4.04608e-73
1.8475e-77
5.3692e-82
7.86547e-87
-1.10911e-86
-2.38473e-88
-3.07961e-90
-2.62413e-92
-1.47084e-94
-5.27223e-97
-1.15001e-99
-1.40991e-102
-8.52594e-106
-1.99316e-109
-9.85292e-114
1.03091e-14
1.00674e-14
9.19098e-15
6.742e-15
2.76867e-15
3.49876e-16
7.84004e-18
3.5122e-20
7.54888e-23
1.19894e-25
1.50633e-28
1.51819e-31
1.23817e-34
8.21729e-38
4.4629e-41
1.98933e-44
7.27737e-48
2.21255e-51
5.5008e-55
1.12874e-58
1.88526e-62
2.54901e-66
2.80869e-70
2.44967e-74
1.697e-78
9.11424e-83
3.72431e-87
-8.76994e-90
-2.99738e-91
-3.22774e-93
-2.07649e-95
-8.21144e-98
-1.92117e-100
-2.46281e-103
-1.51583e-106
-3.49085e-110
-1.61312e-114
1.05169e-14
1.03129e-14
9.67942e-15
7.87752e-15
4.25978e-15
9.0233e-16
3.99169e-17
2.96773e-19
7.60432e-22
1.31936e-24
1.78954e-27
1.94034e-30
1.70065e-33
1.21461e-36
7.12706e-40
3.45529e-43
1.38541e-46
4.67438e-50
1.30927e-53
3.08001e-57
6.01418e-61
9.70864e-65
1.30623e-68
1.42406e-72
1.26327e-76
8.92436e-81
4.9565e-85
2.18176e-89
8.72665e-93
9.70378e-95
4.69834e-97
1.11095e-99
1.17269e-102
2.24282e-106
-3.67708e-109
-1.53929e-112
-8.73929e-117
1.08517e-14
1.05721e-14
9.9389e-15
8.40446e-15
5.17611e-15
1.44295e-15
9.51487e-17
1.01194e-18
2.96519e-21
5.38747e-24
7.57762e-27
8.51316e-30
7.73864e-33
5.74745e-36
3.52326e-39
1.79663e-42
7.63631e-46
2.76143e-49
8.39655e-53
2.175e-56
4.74887e-60
8.70976e-64
1.35308e-67
1.73045e-71
1.82876e-75
1.56259e-79
1.06522e-83
5.70948e-88
2.31898e-92
7.05374e-97
1.09796e-100
5.81616e-103
1.36002e-105
1.50229e-108
7.2046e-112
1.04167e-115
3.85221e-121
1.12635e-14
1.08037e-14
1.0035e-14
8.53367e-15
5.48319e-15
1.69031e-15
1.29696e-16
1.59132e-18
4.91777e-21
9.02831e-24
1.27819e-26
1.4477e-29
1.33107e-32
1.00509e-35
6.31016e-39
3.32687e-42
1.47874e-45
5.65827e-49
1.84445e-52
5.18791e-56
1.24424e-59
2.53192e-63
4.40417e-67
6.36013e-71
7.65267e-75
7.50651e-79
5.92346e-83
3.70607e-87
1.77379e-91
6.33062e-96
1.61823e-100
2.79661e-105
3.97637e-110
3.1826e-113
3.97169e-116
1.82301e-119
7.08784e-124
1.1599e-14
1.09135e-14
1.00173e-14
8.47209e-15
5.44537e-15
1.67835e-15
1.27477e-16
1.52541e-18
4.58427e-21
8.21315e-24
1.13607e-26
1.26007e-29
1.13994e-32
8.53234e-36
5.36233e-39
2.86336e-42
1.30524e-45
5.18085e-49
1.77006e-52
5.26277e-56
1.34355e-59
2.92748e-63
5.48199e-67
8.56758e-71
1.12193e-74
1.20505e-78
1.04813e-82
7.27861e-87
3.89371e-91
1.56354e-95
4.52806e-100
8.90158e-105
1.09629e-109
7.54214e-115
2.01757e-120
9.3478e-129
1.35203e-132
1.17409e-14
1.08812e-14
9.84425e-15
8.19146e-15
5.06369e-15
1.42137e-15
9.18093e-17
9.15527e-19
2.49045e-21
4.24002e-24
5.6191e-27
6.00119e-30
5.26654e-33
3.86227e-36
2.40646e-39
1.28968e-42
5.96667e-46
2.42409e-49
8.52902e-53
2.62237e-56
6.94379e-60
1.57342e-63
3.07356e-67
5.0295e-71
6.92627e-75
7.86149e-79
7.26229e-83
5.38371e-87
3.08933e-91
1.33638e-95
4.18319e-100
8.90087e-105
1.18289e-109
8.67855e-115
2.80105e-120
2.65326e-126
-1.3639e-132
1.16909e-14
1.06608e-14
9.52272e-15
7.70657e-15
4.36779e-15
1.00387e-15
4.71913e-17
3.43652e-19
8.10214e-22