/*--------------------------------*- C++ -*----------------------------------*\
| =========                 |                                                 |
| \\      /  F ield         | OpenFOAM: The Open Source CFD Toolbox           |
|  \\    /   O peration     | Version:  v2012                                 |
|   \\  /    A nd           | Website:  www.openfoam.com                      |
|    \\/     M anipulation  |                                                 |
\*---------------------------------------------------------------------------*/
FoamFile
{
    version     2.0;
    format      ascii;
    class       volScalarField;
    location    "0.75";
    object      alpha.water;
}
// * * * * * * * * * * * * * * * * * * * * * * * * * * * * * * * * * * * * * //

dimensions      [0 0 0 0 0 0 0];


internalField   nonuniform List<scalar> 
3326
(
3.08518e-37
2.48462e-37
8.52368e-37
1.44162e-37
1.58679e-49
8.48795e-54
1.72765e-58
1.05032e-57
1.2667e-60
2.07198e-24
4.11704e-24
1.72323e-25
4.67102e-35
2.07455e-37
1.98817e-38
1.36568e-44
7.37372e-46
6.94178e-50
3.00827e-54
1.22524e-58
8.6297e-62
2.19757e-17
3.34136e-16
3.08019e-16
3.06877e-17
3.33557e-18
3.17586e-18
1.75706e-17
2.90432e-17
2.90588e-17
7.62255e-18
7.62769e-18
1.13125e-17
4.74097e-16
4.95602e-15
8.29059e-15
8.27035e-15
7.65262e-15
4.9529e-16
-7.2313e-15
-1.56845e-14
-2.02736e-14
-1.88482e-14
-1.31256e-14
-6.78691e-15
-2.39833e-15
-3.50504e-16
-8.13715e-18
2.23864e-20
8.38005e-18
1.5883e-17
9.90865e-19
9.73199e-19
1.92232e-19
1.80267e-27
1.41126e-30
1.07691e-33
2.3396e-35
1.72139e-38
8.55379e-42
2.76672e-45
8.48243e-49
1.30733e-52
5.11148e-57
2.32573e-61
9.23414e-62
2.1195e-17
2.16893e-17
1.55756e-17
5.30029e-18
3.48637e-18
1.24477e-17
1.47579e-17
2.82828e-17
2.85063e-17
1.05493e-17
2.22568e-16
6.29333e-17
7.36853e-17
5.27356e-16
8.17615e-15
8.42839e-15
5.8208e-15
-1.97393e-15
-1.45164e-14
-2.78195e-14
-3.53742e-14
-3.32754e-14
-2.38205e-14
-1.29741e-14
-5.20053e-15
-1.40568e-15
-1.74066e-16
3.6919e-16
7.02923e-16
2.76989e-16
6.82613e-20
2.04915e-19
5.11885e-20
6.857e-28
4.15219e-31
3.04512e-34
2.19358e-36
2.52974e-39
1.21797e-42
3.64569e-46
8.39457e-50
1.32343e-53
4.37774e-58
4.05249e-62
4.01562e-62
1.80398e-17
1.47825e-17
5.59892e-18
4.30915e-18
6.09569e-18
1.08064e-15
2.39634e-16
1.41598e-17
1.45639e-17
1.05495e-17
1.01321e-15
6.31192e-15
5.23058e-16
4.28384e-16
6.08069e-15
8.33828e-15
6.09067e-16
-8.1929e-15
-2.57399e-14
-4.57918e-14
-5.79892e-14
-5.54407e-14
-4.07636e-14
-2.30763e-14
-9.89438e-15
-3.03746e-15
-4.05564e-16
7.134e-16
8.70548e-16
2.9778e-16
2.06736e-23
9.39129e-25
6.99073e-22
9.37192e-23
6.23414e-31
3.97275e-34
2.24892e-37
4.0778e-39
1.6383e-42
4.73037e-46
1.04693e-49
1.53054e-53
3.92771e-58
1.15819e-62
7.57252e-63
2.12024e-17
1.42266e-17
6.92718e-18
6.39727e-17
8.53965e-16
1.73836e-15
2.3364e-15
1.2754e-17
1.09803e-17
1.05581e-17
9.35451e-16
1.02494e-14
1.55804e-14
6.29259e-15
1.78386e-15
1.70267e-15
-6.80899e-16
-1.48894e-14
-4.08336e-14
-7.09093e-14
-9.03646e-14
-8.80589e-14
-6.64856e-14
-3.89153e-14
-1.74521e-14
-5.68796e-15
-8.2895e-16
7.46613e-16
6.09714e-16
1.39379e-17
9.39129e-25
1.527e-27
1.51853e-23
7.29474e-24
2.02045e-36
1.39853e-39
7.71422e-43
7.39481e-40
4.8295e-43
3.33746e-47
1.29736e-50
1.84914e-54
6.04098e-59
1.383e-63
2.51088e-82
1.73579e-14
1.58681e-14
2.07262e-14
1.2837e-14
1.46771e-15
9.2478e-16
2.48343e-15
7.86793e-17
1.25172e-17
7.50214e-16
7.59207e-16
3.70679e-15
2.06276e-14
2.09604e-14
7.5843e-15
-1.40711e-34
-3.64922e-15
-2.35606e-14
-6.07238e-14
-1.04885e-13
-1.35212e-13
-1.34444e-13
-1.04155e-13
-6.28649e-14
-2.9265e-14
-1.00746e-14
-2.06767e-15
5.50451e-16
2.70281e-16
1.36489e-23
1.527e-27
2.06027e-30
2.27348e-33
2.02045e-36
1.42048e-39
7.7807e-43
5.36337e-45
4.89194e-45
2.3904e-48
4.21223e-75
-1.07283e-52
-1.46619e-54
-1.48058e-57
-4.14791e-61
-2.19243e-65
8.94239e-14
8.89447e-14
7.97727e-14
2.30063e-14
1.21672e-16
1.04298e-15
1.17558e-15
2.33798e-16
1.28147e-14
2.28521e-14
4.09749e-15
5.78823e-16
1.22676e-14
2.19884e-14
2.19941e-14
8.28033e-15
-3.90244e-15
-3.40061e-14
-8.6841e-14
-1.50189e-13
-1.96015e-13
-1.98709e-13
-1.57703e-13
-9.79224e-14
-4.71784e-14
-1.71443e-14
-4.27139e-15
-3.27683e-16
2.10554e-16
9.21021e-18
1.81442e-26
2.41975e-29
2.63372e-32
2.3038e-35
1.5903e-38
8.52039e-42
2.81402e-44
4.25114e-44
1.64045e-46
-4.27705e-49
-1.33463e-49
-3.29921e-52
-2.833e-55
-8.12107e-59
-4.77151e-63
9.03179e-14
9.03179e-14
7.62707e-14
4.89656e-15
8.04005e-17
2.90278e-15
7.35078e-15
1.33962e-14
3.44258e-14
2.85552e-14
2.2369e-15
1.77811e-15
2.59671e-15
1.89112e-14
2.23832e-14
1.96323e-14
-2.99519e-15
-4.81467e-14
-1.2178e-13
-2.10391e-13
-2.77378e-13
-2.86038e-13
-2.31984e-13
-1.47778e-13
-7.34542e-14
-2.79815e-14
-7.78122e-15
-1.24246e-15
2.87964e-16
1.18181e-16
8.97783e-24
3.11226e-28
3.33156e-31
2.85983e-34
1.94903e-37
7.69069e-40
1.15838e-39
5.34582e-42
-8.08419e-54
-3.73343e-45
-1.94652e-47
-3.77977e-50
-3.046e-53
-8.79465e-57
-5.41444e-61
5.20869e-14
5.4222e-14
7.06395e-15
7.33741e-17
7.29646e-17
2.37024e-15
9.21307e-15
2.08852e-14
4.18717e-14
1.53226e-14
1.20084e-15
2.70648e-15
2.46261e-15
2.86017e-15
2.02785e-14
1.59907e-14
-1.06661e-14
-7.09039e-14
-1.69918e-13
-2.90694e-13
-3.85507e-13
-4.03056e-13
-3.32992e-13
-2.16883e-13
-1.10749e-13
-4.37937e-14
-1.30124e-14
-2.55129e-15
1.71228e-17
1.67286e-16
4.87069e-18
8.17228e-26
1.06081e-28
1.02148e-31
8.24554e-35
5.67157e-38
4.09548e-39
-2.81039e-60
-3.65806e-41
-4.65982e-43
-1.78312e-45
-3.09105e-48
-2.40699e-51
-7.04863e-55
-4.5383e-59
9.81216e-16
8.34626e-16
1.0082e-16
4.40622e-15
6.44913e-15
2.67618e-16
3.27213e-15
1.06928e-14
4.48243e-14
6.25721e-14
1.75959e-14
1.37472e-15
1.77934e-15
1.69273e-15
1.11644e-14
-7.46897e-47
-3.03185e-14
-1.06777e-13
-2.36672e-13
-3.98005e-13
-5.28584e-13
-5.58204e-13
-4.6808e-13
-3.10522e-13
-1.62119e-13
-6.5978e-14
-2.04838e-14
-4.46944e-15
-4.73512e-16
2.6792e-17
8.5434e-18
-6.78039e-36
2.32361e-27
1.37541e-27
7.86979e-36
-8.09147e-48
-1.19994e-45
-3.21443e-38
-3.96461e-39
-3.04083e-41
-1.02e-43
-1.68469e-46
-1.30231e-49
-3.88815e-53
-2.59186e-57
6.51599e-17
6.51545e-17
6.51545e-17
1.19057e-13
1.93971e-13
1.3294e-13
5.36022e-15
4.01261e-15
1.97931e-14
9.81578e-14
9.38062e-14
2.02409e-14
2.62216e-15
7.38626e-15
1.21325e-14
-5.10094e-15
-5.33898e-14
-1.56291e-13
-3.27339e-13
-5.40879e-13
-7.17103e-13
-7.62106e-13
-6.46179e-13
-4.34867e-13
-2.31027e-13
-9.61067e-14
-3.07844e-14
-7.16974e-15
-1.07681e-15
-9.03938e-17
-3.5241e-18
-3.26983e-20
6.90336e-22
5.92578e-24
9.77182e-34
7.99579e-37
0
-1.13329e-35
-2.5216e-37
-1.52943e-39
-4.60814e-42
-7.21007e-45
-5.43853e-48
-1.61297e-51
-1.07544e-55
6.51545e-17
6.51545e-17
6.51545e-17
1.53237e-13
2.56751e-13
2.56751e-13
1.89067e-13
1.16982e-14
3.81931e-15
5.16165e-14
1.02661e-13
1.04627e-13
8.71375e-14
9.33858e-14
2.75164e-14
-1.58458e-14
-8.52538e-14
-2.23172e-13
-4.49047e-13
-7.30363e-13
-9.64482e-13
-1.02801e-12
-8.77986e-13
-5.96965e-13
-3.21231e-13
-1.35789e-13
-4.44735e-14
-1.0819e-14
-1.78941e-15
-1.78057e-16
-9.38935e-18
-2.25367e-19
-1.63019e-21
9.46692e-24
9.26885e-26
-5.99148e-45
-2.95185e-43
-1.01582e-33
-1.15788e-35
-5.8876e-38
-1.62705e-40
-2.42839e-43
-1.78344e-46
-5.20256e-50
-3.4056e-54
6.51599e-17
6.51545e-17
6.51545e-17
9.02477e-15
1.82796e-13
2.56751e-13
2.5657e-13
1.85733e-13
4.71226e-15
2.25941e-15
4.8893e-14
1.1671e-13
1.1741e-13
1.07607e-13
7.85723e-15
-3.32387e-14
-1.26731e-13
-3.12804e-13
-6.12098e-13
-9.81252e-13
-1.28797e-12
-1.37228e-12
-1.17612e-12
-8.04626e-13
-4.36589e-13
-1.86534e-13
-6.20185e-14
-1.55165e-14
-2.69903e-15
-2.86162e-16
-1.51859e-17
-2.44803e-19
4.56225e-21
7.808e-23
0
-2.66586e-45
-3.9765e-30
-5.77574e-32
-4.22728e-34
-1.82054e-36
-4.6303e-39
-6.59149e-42
-4.69676e-45
-1.33864e-48
-8.50807e-53
6.5211e-17
6.51599e-17
6.51545e-17
6.59117e-17
3.66975e-15
1.5623e-13
2.4535e-13
2.12602e-13
2.1955e-14
2.82664e-16
2.32209e-15
1.02557e-13
1.1741e-13
2.21427e-14
-1.1742e-32
-5.42828e-14
-1.83548e-13
-4.35112e-13
-8.31562e-13
-1.31353e-12
-1.70973e-12
-1.81504e-12
-1.55517e-12
-1.06619e-12
-5.80769e-13
-2.49552e-13
-8.37052e-14
-2.13258e-14
-3.8551e-15
-4.41521e-16
-2.79243e-17
-8.40588e-19
-1.09165e-20
-7.56622e-23
-7.42232e-25
-1.42607e-26
-2.03014e-28
-1.8661e-30
-1.12313e-32
-4.35397e-35
-1.03964e-37
-1.4196e-40
-9.80458e-44
-2.71604e-47
-1.66012e-51
6.60021e-17
6.53605e-17
6.52925e-17
6.57211e-17
2.17604e-16
1.06484e-13
1.86849e-13
9.72852e-14
1.56313e-16
3.3602e-16
5.60572e-14
1.482e-13
1.02429e-13
9.43378e-16
-1.41598e-14
-8.62309e-14
-2.64224e-13
-6.04473e-13
-1.12875e-12
-1.75412e-12
-2.25825e-12
-2.38075e-12
-2.03167e-12
-1.39011e-12
-7.5684e-13
-3.25489e-13
-1.09513e-13
-2.82189e-14
-5.31894e-15
-6.83208e-16
-5.63542e-17
-2.94591e-18
-1.00543e-19
-2.35755e-21
-4.01983e-23
-5.21561e-25
-5.2179e-27
-3.92165e-29
-2.10607e-31
-7.62143e-34
-1.73924e-36
-2.29696e-39
-1.54142e-42
-4.14079e-46
-2.41783e-50
1.17991e-15
6.8e-17
6.75645e-17
6.60478e-17
6.6316e-15
4.04616e-13
4.98003e-13
1.53248e-13
9.41382e-16
3.0026e-15
1.26062e-13
1.58573e-13
7.19744e-14
-9.07516e-32
-2.351e-14
-1.29139e-13
-3.79229e-13
-8.40953e-13
-1.53298e-12
-2.33894e-12
-2.9699e-12
-3.09884e-12
-2.62383e-12
-1.78432e-12
-9.66703e-13
-4.14127e-13
-1.39014e-13
-3.59721e-14
-6.97668e-15
-9.79104e-16
-9.6723e-17
-6.65058e-18
-3.18449e-19
-1.06857e-20
-2.52829e-22
-4.22778e-24
-4.97898e-26
-4.08059e-28
-2.27582e-30
-8.33768e-33
-1.90282e-35
-2.49584e-38
-1.65252e-41
-4.33569e-45
-2.42068e-49
7.53995e-16
1.12724e-16
1.00039e-16
6.92448e-17
7.54987e-15
3.85135e-13
5.54255e-13
5.54936e-13
1.5235e-13
3.12064e-15
8.74212e-14
1.58573e-13
1.52894e-13
3.10795e-14
-3.29333e-14
-1.94569e-13
-5.48309e-13
-1.17481e-12
-2.08553e-12
-3.11627e-12
-3.89112e-12
-4.00434e-12
-3.35088e-12
-2.25523e-12
-1.21035e-12
-5.14011e-13
-1.7124e-13
-4.41601e-14
-8.65826e-15
-1.26571e-15
-1.35571e-16
-1.05111e-17
-5.84777e-19
-2.31973e-20
-6.51918e-22
-1.28693e-23
-1.76391e-25
-1.65015e-27
-1.02789e-29
-4.11435e-32
-1.00442e-34
-1.38185e-37
-9.41176e-41
-2.48582e-44
-1.35667e-48
2.48955e-14
7.65033e-14
2.8539e-14
1.18036e-16
8.12355e-15
3.21265e-14
4.38968e-13
5.81598e-13
5.52595e-13
1.43556e-13
9.49249e-14
1.57409e-13
1.57334e-13
7.36868e-14
-5.05265e-14
-3.0189e-13
-8.02329e-13
-1.65058e-12
-2.84442e-12
-4.15097e-12
-5.08085e-12
-5.13809e-12
-4.23197e-12
-2.80634e-12
-1.48497e-12
-6.22077e-13
-2.0458e-13
-5.21953e-14
-1.01756e-14
-1.49095e-15
-1.61643e-16
-1.2814e-17
-7.35612e-19
-3.03387e-20
-8.91499e-22
-1.84719e-23
-2.66284e-25
-2.62092e-27
-1.71539e-29
-7.19229e-32
-1.83084e-34
-2.60984e-37
-1.82534e-40
-4.90081e-44
-2.66922e-48
1.98555e-12
2.43337e-12
2.08417e-12
3.58434e-13
8.61405e-15
1.186e-14
3.17638e-13
5.52272e-13
5.74389e-13
5.18689e-13
4.79019e-13
2.30354e-13
1.05666e-13
2.92893e-15
-1.23952e-13
-4.90291e-13
-1.18989e-12
-2.33361e-12
-3.89123e-12
-5.53006e-12
-6.61328e-12
-6.54643e-12
-5.28409e-12
-3.43632e-12
-1.78389e-12
-7.33319e-13
-2.36741e-13
-5.93573e-14
-1.13994e-14
-1.65178e-15
-1.77972e-16
-1.40947e-17
-8.12337e-19
-3.3777e-20
-1.00389e-21
-2.1084e-23
-3.08383e-25
-3.07882e-27
-2.04054e-29
-8.63526e-32
-2.20902e-34
-3.1425e-37
-2.17626e-40
-5.74354e-44
-3.02698e-48
3.58362e-12
3.58362e-12
3.58362e-12
1.1181e-12
1.04535e-14
1.04221e-12
1.88646e-12
1.31683e-12
3.72282e-13
5.32202e-13
5.36867e-13
1.29526e-13
4.87493e-32
-5.13027e-14
-2.8237e-13
-8.07854e-13
-1.77816e-12
-3.31647e-12
-5.33957e-12
-7.36944e-12
-8.58021e-12
-8.27945e-12
-6.51878e-12
-4.13644e-12
-2.09549e-12
-8.40612e-13
-2.64836e-13
-6.48222e-14
-1.21638e-14
-1.72492e-15
-1.82278e-16
-1.41925e-17
-8.06102e-19
-3.30979e-20
-9.72793e-22
-2.02186e-23
-2.92597e-25
-2.88658e-27
-1.88539e-29
-7.8356e-32
-1.95763e-34
-2.69887e-37
-1.79765e-40
-4.52374e-44
-2.30506e-48
3.57982e-12
2.74887e-12
2.93596e-12
9.35025e-13
8.21471e-13
2.06212e-12
1.96783e-12
1.74125e-12
2.92723e-13
3.22816e-13
4.88267e-13
1.56879e-13
-1.13311e-23
-1.67381e-13
-5.41033e-13
-1.30236e-12
-2.65568e-12
-4.72913e-12
-7.34683e-12
-9.82184e-12
-1.10922e-11
-1.03869e-11
-7.93693e-12
-4.88742e-12
-2.40228e-12
-9.34779e-13
-2.85603e-13
-6.77799e-14
-1.23305e-14
-1.6949e-15
-1.73549e-16
-1.30857e-17
-7.19069e-19
-2.85258e-20
-8.08582e-22
-1.61686e-23
-2.24404e-25
-2.11433e-27
-1.3122e-29
-5.15055e-32
-1.20481e-34
-1.5425e-37
-9.46618e-41
-2.16128e-44
-1.0428e-48
1.83286e-12
2.07048e-13
1.95366e-12
1.12205e-11
1.02299e-11
3.23698e-12
1.72882e-12
1.67496e-12
3.97218e-13
1.58359e-13
4.92223e-13
2.28065e-13
-3.03748e-14
-3.38079e-13
-9.29991e-13
-2.05114e-12
-3.95832e-12
-6.76284e-12
-1.01332e-11
-1.30862e-11
-1.4277e-11
-1.29098e-11
-9.52096e-12
-5.65562e-12
-2.68026e-12
-1.00507e-12
-2.95782e-13
-6.75824e-14
-1.18302e-14
-1.56336e-15
-1.53695e-16
-1.11058e-17
-5.83453e-19
-2.20652e-20
-5.9423e-22
-1.12439e-23
-1.4696e-25
-1.29645e-27
-7.48866e-30
-2.71315e-32
-5.80495e-35
-6.73599e-38
-3.7103e-41
-7.50291e-45
-3.44283e-49
6.72139e-14
7.44172e-12
1.51317e-11
1.60518e-11
1.28918e-11
8.13324e-13
4.20245e-13
4.5478e-13
1.526e-13
7.26553e-13
6.22572e-13
6.95406e-14
-1.56267e-13
-6.33562e-13
-1.55262e-12
-3.21028e-12
-5.91191e-12
-9.70779e-12
-1.40086e-11
-1.74165e-11
-1.82711e-11
-1.58659e-11
-1.12241e-11
-6.38932e-12
-2.89928e-12
-1.04018e-12
-2.92693e-13
-6.39246e-14
-1.06979e-14
-1.35225e-15
-1.27232e-16
-8.80143e-18
-4.4258e-19
-1.60079e-20
-4.11695e-22
-7.4221e-24
-9.21167e-26
-7.69004e-28
-4.18172e-30
-1.41622e-32
-2.81711e-35
-3.02599e-38
-1.52483e-41
-2.89326e-45
-1.30122e-49
3.95404e-13
1.43776e-11
1.60518e-11
1.60518e-11
5.27016e-12
1.73472e-13
1.68519e-13
2.04982e-13
1.39767e-12
1.1423e-12
1.27196e-13
-8.54348e-15
-3.77315e-13
-1.13603e-12
-2.55881e-12
-5.02398e-12
-8.86952e-12
-1.39982e-11
-1.9403e-11
-2.31251e-11
-2.32009e-11
-1.9226e-11
-1.29567e-11
-7.01608e-12
-3.02488e-12
-1.03003e-12
-2.74892e-13
-5.69562e-14
-9.06203e-15
-1.09397e-15
-9.89511e-17
-6.63174e-18
-3.25673e-19
-1.15892e-20
-2.95081e-22
-5.29156e-24
-6.55769e-26
-5.47798e-28
-2.97948e-30
-1.01051e-32
-2.01662e-35
-2.17267e-38
-1.09408e-41
-2.20612e-45
-1.03979e-49
2.94753e-13
5.38625e-12
1.59657e-11
1.4293e-11
1.86476e-12
1.83238e-13
7.99181e-13
2.88612e-12
2.47544e-12
3.47996e-13
-1.66435e-21
-2.25752e-13
-8.03423e-13
-2.01104e-12
-4.22209e-12
-7.9116e-12
-1.34008e-11
-2.02855e-11
-2.69005e-11
-3.05682e-11
-2.91408e-11
-2.28777e-11
-1.45716e-11
-7.44348e-12
-3.02259e-12
-9.68118e-13
-2.42801e-13
-4.72832e-14
-7.0857e-15
-8.09326e-16
-6.97311e-17
-4.48796e-18
-2.13467e-19
-7.41723e-21
-1.85687e-22
-3.2937e-24
-4.05735e-26
-3.37669e-28
-1.83469e-30
-6.23678e-33
-1.25039e-35
-1.34338e-38
-6.8751e-42
-1.45664e-45
-6.98137e-50
6.47453e-15
3.07848e-13
7.96865e-12
4.91861e-12
4.13384e-13
9.37745e-13
3.82653e-12
3.85896e-12
1.20811e-12
7.46867e-31
-1.38893e-13
-5.82565e-13
-1.58055e-12
-3.54498e-12
-7.01497e-12
-1.25762e-11
-2.04129e-11
-2.95287e-11
-3.7259e-11
-4.00961e-11
-3.60394e-11
-2.65775e-11
-1.5854e-11
-7.5667e-12
-2.8653e-12
-8.54397e-13
-1.99219e-13
-3.60357e-14
-5.01451e-15
-5.32063e-16
-4.26257e-17
-2.55406e-18
-1.13224e-19
-3.66915e-21
-8.57097e-23
-1.41923e-24
-1.62973e-26
-1.26261e-28
-6.38961e-31
-2.02125e-33
-3.74188e-36
-3.67692e-39
-1.80231e-42
-3.58075e-46
-1.57515e-50
6.82736e-15
6.47453e-15
7.15943e-15
1.683e-13
3.14532e-13
5.18797e-13
5.08528e-13
3.46038e-12
3.95773e-12
2.77605e-12
5.16981e-14
-4.4588e-14
-4.2547e-13
-1.26789e-12
-3.01004e-12
-6.26525e-12
-1.17917e-11
-2.02303e-11
-3.13603e-11
-4.31108e-11
-5.1388e-11
-5.19317e-11
-4.35989e-11
-2.98975e-11
-1.65246e-11
-7.28691e-12
-2.5436e-12
-6.97781e-13
-1.49429e-13
-2.47913e-14
-3.16136e-15
-3.0727e-16
-2.25501e-17
-1.23796e-18
-5.02853e-20
-1.49361e-21
-3.1996e-23
-4.85397e-25
-5.09979e-27
-3.62014e-29
-1.67707e-31
-4.83365e-34
-8.04208e-37
-7.24777e-40
-3.32119e-43
-6.04361e-47
-2.38677e-51
1.04432e-14
7.15943e-15
1.17111e-11
2.79047e-13
1.45939e-12
3.5938e-12
9.52956e-12
4.62174e-12
3.35611e-12
8.27418e-13
-7.13841e-37
-2.94491e-13
-1.03027e-12
-2.60738e-12
-5.69839e-12
-1.12124e-11
-2.01417e-11
-3.29775e-11
-4.8542e-11
-6.2925e-11
-7.02003e-11
-6.59212e-11
-5.11018e-11
-3.21887e-11
-1.62747e-11
-6.54364e-12
-2.07712e-12
-5.16995e-13
-1.00258e-13
-1.50391e-14
-1.73199e-15
-1.51927e-16
-1.00584e-17
-4.97992e-19
-1.825e-20
-4.89279e-22
-9.45483e-24
-1.29264e-25
-1.22661e-27
-7.8564e-30
-3.27613e-32
-8.41494e-35
-1.24313e-37
-1.03083e-40
-4.28251e-44
-6.99476e-48
-2.4305e-52
3.04627e-11
2.59132e-10
1.14103e-10
1.8427e-11
7.33101e-11
9.24445e-11
3.46284e-11
7.18017e-14
6.64286e-14
0
-2.12713e-13
-8.52894e-13
-2.3211e-12
-5.33763e-12
-1.09583e-11
-2.04953e-11
-3.50688e-11
-5.44658e-11
-7.54826e-11
-9.13047e-11
-9.4186e-11
-8.10914e-11
-5.72178e-11
-3.26119e-11
-1.48505e-11
-5.35807e-12
-1.52165e-12
-3.37985e-13
-5.83614e-14
-7.78041e-15
-7.95119e-16
-6.18144e-17
-3.62429e-18
-1.58935e-19
-5.15892e-21
-1.22438e-22
-2.0934e-24
-2.53945e-26
-2.13728e-28
-1.21268e-30
-4.44592e-33
-9.93637e-36
-1.31054e-38
-9.76036e-42
-3.59378e-45
-5.12043e-49
-1.56366e-53
7.98581e-10
7.2141e-10
9.4391e-11
4.41289e-11
1.21879e-10
1.27241e-10
3.06666e-11
2.07927e-15
3.71478e-31
-1.37142e-13
-7.27434e-13
-2.14804e-12
-5.21492e-12
-1.11681e-11
-2.16697e-11
-3.8465e-11
-6.22982e-11
-9.09132e-11
-1.17202e-10
-1.30425e-10
-1.22436e-10
-9.49964e-11
-5.99103e-11
-3.03203e-11
-1.21973e-11
-3.87222e-12
-9.64503e-13
-1.87395e-13
-2.82417e-14
-3.28007e-15
-2.91668e-16
-1.97225e-17
-1.00602e-18
-3.83881e-20
-1.08429e-21
-2.24147e-23
-3.35029e-25
-3.55324e-27
-2.61133e-29
-1.28707e-31
-4.0578e-34
-7.87761e-37
-9.25071e-40
-6.06961e-43
-1.95543e-46
-2.40346e-50
-6.58913e-55
1.0086e-10
1.78248e-10
4.14399e-11
4.7981e-11
1.23297e-10
1.18435e-10
1.52905e-11
-7.01029e-26
-1.81072e-31
-5.46698e-13
-2.05814e-12
-5.40153e-12
-1.20876e-11
-2.42605e-11
-4.44143e-11
-7.43185e-11
-1.1271e-10
-1.52376e-10
-1.79643e-10
-1.80359e-10
-1.50813e-10
-1.03072e-10
-5.67385e-11
-2.4886e-11
-8.62913e-12
-2.3514e-12
-5.01057e-13
-8.30516e-14
-1.06559e-14
-1.05233e-15
-7.95238e-17
-4.57e-18
-1.98164e-19
-6.43324e-21
-1.54987e-22
-2.74355e-24
-3.51246e-26
-3.18763e-28
-1.99804e-30
-8.33903e-33
-2.23397e-35
-3.78712e-38
-3.86197e-41
-2.18519e-44
-6.01472e-48
-6.33463e-52
-1.6009e-56
4.14399e-11
4.14399e-11
4.14399e-11
4.14399e-11
1.3363e-10
7.88202e-11
1.01083e-12
-1.42996e-30
-2.16591e-13
-1.93625e-12
-5.94746e-12
-1.41635e-11
-2.94272e-11
-5.52998e-11
-9.48232e-11
-1.47711e-10
-2.06226e-10
-2.52892e-10
-2.65999e-10
-2.34377e-10
-1.69448e-10
-9.88818e-11
-4.60185e-11
-1.69377e-11
-4.90111e-12
-1.11002e-12
-1.96008e-13
-2.68676e-14
-2.8471e-15
-2.32068e-16
-1.44768e-17
-6.87515e-19
-2.46933e-20
-6.66289e-22
-1.33751e-23
-1.97255e-25
-2.1037e-27
-1.58786e-29
-8.2402e-32
-2.85604e-34
-6.50193e-37
-9.37664e-40
-8.11085e-43
-3.9034e-46
-9.05724e-50
-8.10309e-54
-1.89972e-58
4.43021e-11
4.14398e-11
4.14399e-11
2.37913e-10
2.23553e-10
2.84125e-11
-1.7836e-25
0
-1.60494e-12
-6.86974e-12
-1.83372e-11
-3.98836e-11
-7.66597e-11
-1.33549e-10
-2.1112e-10
-2.99638e-10
-3.74749e-10
-4.03404e-10
-3.64638e-10
-2.70628e-10
-1.61982e-10
-7.7196e-11
-2.90466e-11
-8.58343e-12
-1.98477e-12
-3.58054e-13
-5.02416e-14
-5.46525e-15
-4.59446e-16
-2.97162e-17
-1.47319e-18
-5.56955e-20
-1.59468e-21
-3.43295e-23
-5.50158e-25
-6.4848e-27
-5.52185e-29
-3.31831e-31
-1.37775e-33
-3.89146e-36
-7.26526e-39
-8.62272e-42
-6.15938e-45
-2.45025e-48
-4.78453e-52
-3.78075e-56
-8.22458e-61
5.68288e-11
4.43021e-11
3.4742e-10
4.01433e-10
9.7048e-11
6.83599e-15
-1.12142e-28
-5.61247e-13
-8.01711e-12
-2.71078e-11
-6.35094e-11
-1.24514e-10
-2.17554e-10
-3.43461e-10
-4.85847e-10
-6.04694e-10
-6.46357e-10
-5.78002e-10
-4.2217e-10
-2.47188e-10
-1.14577e-10
-4.17365e-11
-1.19029e-11
-2.6523e-12
-4.60787e-13
-6.22703e-14
-6.53582e-15
-5.31098e-16
-3.33158e-17
-1.6078e-18
-5.9477e-20
-1.67878e-21
-3.59375e-23
-5.79567e-25
-6.96433e-27
-6.14834e-29
-3.92648e-31
-1.7876e-33
-5.70443e-36
-1.25278e-38
-1.83523e-41
-1.73736e-44
-1.03361e-47
-3.64824e-51
-6.61245e-55
-5.21909e-59
-1.10592e-63
1.31509e-10
1.25177e-08
2.6703e-09
6.3693e-11
3.95769e-14
-6.93121e-22
-4.75005e-38
-8.60123e-12
-4.58157e-11
-1.26371e-10
-2.5692e-10
-4.41162e-10
-6.76029e-10
-9.24872e-10
-1.10321e-09
-1.11534e-09
-9.28885e-10
-6.21405e-10
-3.28106e-10
-1.35513e-10
-4.36183e-11
-1.09249e-11
-2.12744e-12
-3.21793e-13
-3.77524e-14
-3.43116e-15
-2.41363e-16
-1.3118e-17
-5.50318e-19
-1.77775e-20
-4.40945e-22
-8.36547e-24
-1.20692e-25
-1.31686e-27
-1.0781e-29
-6.57636e-32
-2.97672e-34
-9.9119e-37
-2.43707e-39
-4.35106e-42
-5.61866e-45
-5.16567e-48
-3.41326e-51
-1.3942e-54
-2.90745e-58
-2.46325e-62
-5.3971e-67
2.06362e-09
3.59208e-08
2.30753e-09
3.35117e-13
4.5999e-15
-4.46781e-25
-1.00145e-11
-9.76375e-11
-3.51946e-10
-7.95986e-10
-1.31794e-09
-1.80574e-09
-2.19277e-09
-2.31338e-09
-1.99332e-09
-1.33968e-09
-6.89173e-10
-2.70624e-10
-8.13378e-11
-1.87716e-11
-3.33544e-12
-4.57553e-13
-4.86278e-14
-4.02318e-15
-2.60702e-16
-1.33233e-17
-5.40901e-19
-1.75518e-20
-4.57104e-22
-9.56099e-24
-1.60227e-25
-2.14072e-27
-2.26574e-29
-1.89087e-31
-1.23973e-33
-6.34467e-36
-2.52038e-38
-7.73556e-41
-1.814e-43
-3.24718e-46
-4.38278e-49
-4.6376e-52
-3.74711e-55
-1.85576e-58
-4.45992e-62
-4.18931e-66
-9.06998e-71
6.22343e-10
4.44251e-08
1.21371e-09
1.41089e-14
7.70249e-17
-1.13564e-26
-2.6212e-10
-1.50482e-09
-4.56818e-09
-8.04046e-09
-8.58707e-09
-5.85029e-09
-2.67106e-09
-8.57231e-10
-2.04578e-10
-3.957e-11
-7.04427e-12
-1.26829e-12
-2.21994e-13
-3.39743e-14
-4.23304e-15
-4.16987e-16
-3.22088e-17
-1.95191e-18
-9.31401e-20
-3.521e-21
-1.06135e-22
-2.56631e-24
-5.00138e-26
-7.87811e-28
-1.00371e-29
-1.03314e-31
-8.57457e-34
-5.7404e-36
-3.10514e-38
-1.35848e-40
-4.79839e-43
-1.36407e-45
-3.08659e-48
-5.71283e-51
-8.76051e-54
-1.09888e-56
-1.02928e-59
-5.92293e-63
-1.65507e-66
-1.68523e-70
-3.15468e-75
3.34242e-38
8.75317e-42
1.51995e-45
1.58679e-49
8.48795e-54
1.7287e-58
4.52806e-60
4.526e-60
4.52595e-60
3.51546e-24
7.01438e-24
3.43247e-25
9.04127e-35
3.34242e-38
6.83571e-39
1.84597e-42
4.54289e-46
7.50218e-50
2.82064e-54
1.96979e-58
4.07682e-62
2.27443e-17
2.90475e-17
5.65127e-18
3.17493e-18
5.91454e-16
3.10809e-18
3.10722e-18
3.1072e-18
3.56482e-17
9.36701e-17
2.80304e-16
1.31625e-17
2.96362e-16
4.94166e-15
8.29943e-15
5.06462e-15
5.05378e-15
4.0068e-15
1.05124e-15
2.41757e-15
3.51934e-15
2.31859e-15
1.20256e-16
5.09015e-51
2.28455e-17
1.89617e-16
6.63505e-17
1.17854e-17
6.42773e-17
3.28407e-17
5.65913e-19
9.71797e-19
1.15792e-19
1.02374e-27
8.64122e-31
6.55787e-34
1.2607e-35
9.15736e-39
4.49572e-42
1.58883e-45
4.6856e-49
7.80777e-53
2.87051e-57
1.25068e-61
4.07171e-62
2.84508e-17
3.07978e-17
1.96879e-17
3.17493e-18
8.75301e-16
3.79938e-15
4.71784e-17
3.10722e-18
1.38581e-17
1.50663e-17
3.09988e-16
2.03782e-15
6.35549e-16
1.77444e-15
8.30606e-15
8.06233e-15
7.0269e-15
8.15421e-15
8.06173e-15
6.17074e-15
3.51989e-15
1.28047e-16
-1.14668e-35
7.00176e-18
2.92303e-18
2.07363e-18
8.94527e-18
7.09207e-16
8.04222e-16
1.99022e-16
5.08423e-20
1.5065e-19
2.55528e-20
2.50185e-28
1.90556e-31
1.45311e-34
4.287e-36
2.6301e-39
1.01336e-42
4.50281e-46
8.66686e-50
1.32605e-53
4.88419e-58
2.00589e-62
1.09806e-62
2.5829e-17
2.46702e-17
4.4227e-18
3.20814e-18
2.0332e-16
8.87494e-15
2.14753e-14
4.29406e-15
1.08201e-17
1.05581e-17
6.00129e-17
5.59607e-15
1.2795e-14
9.70759e-15
8.37158e-15
8.4282e-15
8.4293e-15
8.5271e-15
8.5271e-15
5.13679e-15
1.46865e-16
-7.42546e-17
-6.1989e-17
6.02207e-17
7.36217e-38
2.32374e-17
7.01246e-16
8.70864e-16
8.70809e-16
1.89749e-16
6.32546e-24
1.18004e-24
8.65604e-23
4.09193e-24
2.36852e-32
1.70771e-35
1.11843e-37
1.32089e-40
6.40079e-44
1.93023e-47
4.18654e-51
6.44056e-55
1.82255e-59
1.6988e-63
2.85631e-63
2.43265e-17
2.49533e-17
9.03391e-17
5.65804e-16
2.0942e-16
4.89236e-15
4.3388e-14
4.76474e-14
9.44122e-15
1.08201e-17
5.7708e-17
5.37037e-15
1.5151e-14
1.50923e-14
4.42736e-15
7.42046e-15
8.5271e-15
8.5271e-15
5.35999e-15
2.35409e-16
-2.32945e-16
-5.26564e-16
-3.70441e-16
4.38254e-18
7.05561e-17
8.01132e-16
8.70864e-16
8.70864e-16
6.33159e-16
1.02639e-18
6.41256e-25
1.08961e-24
1.59125e-23
5.74519e-24
1.87636e-35
1.70612e-38
1.22644e-41
2.1397e-40
1.46878e-43
2.44678e-47
5.29096e-51
7.49605e-55
1.37759e-59
1.12035e-64
2.8211e-68
6.28639e-16
1.3057e-15
2.97669e-15
5.70926e-15
6.57742e-15
1.0262e-15
2.79929e-14
5.39523e-14
5.39855e-14
1.13765e-14
6.22536e-17
5.44064e-16
1.17694e-14
1.38659e-14
2.85298e-15
1.71528e-15
8.12134e-15
8.18475e-15
1.33052e-15
-5.93291e-17
-1.0685e-15
-1.50354e-15
-1.2042e-15
-4.64778e-16
4.64838e-16
8.65057e-16
8.65077e-16
8.69629e-16
1.15304e-16
4.17018e-24
7.14309e-27
1.29216e-29
1.14417e-30
2.57756e-34
5.24755e-37
5.9394e-40
1.82098e-43
1.35752e-46
5.28402e-50
1.49242e-53
2.58984e-57
1.38765e-58
1.03475e-64
8.44769e-65
5.64176e-68
1.07229e-15
2.14798e-15
3.88791e-15
5.87691e-15
1.70737e-14
2.71382e-14
8.35867e-15
4.80468e-14
5.91958e-14
5.51611e-14
7.38172e-15
5.50192e-16
2.54279e-15
3.61196e-15
1.47422e-15
5.91394e-16
2.19911e-15
2.075e-15
4.3075e-16
-9.06665e-16
-2.44533e-15
-3.36538e-15
-3.02374e-15
-1.6749e-15
-3.51416e-16
7.32865e-16
8.23173e-16
6.61826e-16
5.45758e-17
2.38088e-23
8.8812e-28
1.14554e-30
1.20806e-33
1.02559e-36
6.88108e-40
3.56513e-43
1.38471e-46
3.87717e-50
-2.36561e-62
-9.05017e-66
0
4.89337e-93
3.65325e-93
1.01066e-65
1.41807e-67
2.87046e-16
4.14562e-16
4.11867e-16
4.69908e-16
6.35205e-15
5.06746e-14
7.60524e-14
5.51428e-14
5.80561e-14
5.80377e-14
1.68129e-14
5.70894e-16
1.83187e-15
2.60676e-15
1.27087e-15
2.50671e-16
2.01525e-16
1.13428e-15
1.81441e-16
-1.75824e-15
-4.65745e-15
-6.65307e-15
-6.42779e-15
-4.27719e-15
-1.7415e-15
-1.48253e-16
8.14146e-16
5.98659e-16
4.71573e-16
4.0099e-17
1.07487e-24
8.8812e-28
7.90419e-30
2.18108e-33
9.63918e-36
2.01924e-38
3.56513e-43
3.47724e-45
1.79724e-48
3.12715e-52
2.20849e-69
1.17169e-56
8.99971e-61
4.19657e-63
4.1703e-67
8.8488e-17
8.87547e-17
7.33741e-17
7.29646e-17
7.28647e-17
1.3552e-14
8.97274e-14
9.49799e-14
9.17251e-14
5.58864e-14
9.61994e-16
7.17022e-16
1.68458e-15
1.98891e-15
1.28909e-15
2.12033e-14
1.688e-14
2.05961e-15
1.46447e-33
-3.03569e-15
-8.24905e-15
-1.2143e-14
-1.22711e-14
-8.8853e-15
-4.43974e-15
-1.2718e-15
9.79333e-17
5.84437e-16
5.08415e-16
1.95131e-16
6.53006e-24
8.04889e-27
1.03244e-29
1.08355e-32
4.44463e-35
9.41641e-38
6.11741e-42
3.17511e-44
5.00277e-47
3.75812e-50
3.25382e-51
4.63816e-54
1.66304e-57
2.03294e-61
8.50504e-66
8.91797e-17
8.61833e-17
1.77387e-16
1.41057e-16
7.27537e-17
7.27389e-17
1.7427e-14
9.50731e-14
9.81983e-14
6.89121e-14
1.39274e-15
1.34969e-15
1.68103e-15
1.68172e-15
2.79368e-14
4.5858e-14
2.32649e-14
7.80818e-17
7.74639e-16
-4.90911e-15
-1.39243e-14
-2.08813e-14
-2.1678e-14
-1.64593e-14
-9.06014e-15
-3.38008e-15
-5.92277e-16
4.3336e-16
5.06018e-16
6.38661e-17
1.62279e-24
2.32361e-27
2.97399e-30
2.23737e-32
3.28219e-35
4.72328e-38
2.18199e-40
-7.69121e-53
-2.97602e-56
2.25766e-47
8.8546e-50
1.70836e-52
1.30995e-55
3.49341e-59
2.05155e-63
6.99981e-17
6.51599e-17
5.47295e-16
3.11519e-16
7.27389e-17
7.27352e-17
7.2734e-17
2.21513e-14
9.75989e-14
9.93238e-14
4.79628e-14
1.37472e-15
1.53782e-15
8.79363e-15
5.25591e-14
4.57292e-14
3.40853e-15
3.13267e-15
1.06325e-15
-8.67095e-15
-2.30973e-14
-3.44001e-14
-3.61614e-14
-2.82396e-14
-1.64023e-14
-6.84113e-15
-1.77512e-15
8.19317e-17
3.70686e-16
2.3312e-17
-1.19573e-34
-1.02009e-36
3.32874e-29
1.22436e-32
3.2925e-36
2.87358e-38
-5.95579e-55
-9.21067e-42
-9.75977e-43
-2.9689e-45
-3.77439e-48
-1.94082e-51
-6.12802e-56
1.95049e-58
2.16407e-62
6.51599e-17
6.51545e-17
6.51545e-17
1.24864e-16
7.29294e-17
7.64704e-17
7.27328e-17
7.27328e-17
3.12565e-14
9.98583e-14
1.00605e-13
2.56147e-14
2.01646e-14
6.95502e-14
5.40643e-14
4.87787e-15
-3.95018e-35
2.94015e-15
-1.61453e-15
-1.67598e-14
-3.80615e-14
-5.48831e-14
-5.76908e-14
-4.57629e-14
-2.74313e-14
-1.21514e-14
-3.65932e-15
-4.34889e-16
2.66875e-16
5.19302e-17
-4.54573e-32
-1.88971e-31
6.92258e-30
3.43463e-29
-3.02571e-40
-3.64708e-42
-2.95608e-36
-3.94481e-38
-1.87672e-40
-4.53479e-43
-5.81096e-46
-3.76611e-49
-1.08368e-52
-1.02089e-56
-1.10915e-61
8.20283e-14
4.83722e-14
1.24012e-15
7.63734e-17
7.4022e-17
1.07812e-16
7.27406e-17
7.27506e-17
7.2756e-17
4.74951e-14
1.02355e-13
1.03698e-13
1.08232e-13
8.75309e-14
3.84971e-15
-3.02634e-36
2.48818e-15
2.33319e-15
-7.83421e-15
-3.10958e-14
-6.14749e-14
-8.51276e-14
-8.87619e-14
-7.09089e-14
-4.33076e-14
-1.98784e-14
-6.49704e-15
-1.15586e-15
1.10608e-16
7.4389e-17
1.15698e-19
-4.64839e-35
4.00745e-30
7.47385e-30
-1.16925e-38
-2.94874e-32
-5.41201e-34
-4.03953e-36
-1.61666e-38
-3.67658e-41
-4.69804e-44
-3.1802e-47
-1.01701e-50
-1.22647e-54
-3.12959e-59
7.47599e-13
6.86222e-13
3.54751e-13
3.40408e-15
7.63734e-17
1.08321e-16
7.27942e-17
7.27979e-17
7.3053e-17
2.53708e-16
5.40938e-14
1.15593e-13
1.15847e-13
1.81969e-14
5.80491e-35
-3.09975e-36
4.46159e-15
-4.52396e-16
-1.93453e-14
-5.38254e-14
-9.62601e-14
-1.28452e-13
-1.32386e-13
-1.05886e-13
-6.53419e-14
-3.06572e-14
-1.05275e-14
-2.27115e-15
-9.37132e-17
7.80119e-17
5.61972e-18
-7.41642e-35
-4.23676e-47
-1.06879e-44
-3.00542e-30
-2.79523e-30
-3.69134e-32
-2.39738e-34
-8.99352e-37
-2.00137e-39
-2.57402e-42
-1.78516e-45
-5.87564e-49
-7.17652e-53
-1.7145e-57
8.35601e-13
8.35601e-13
6.8763e-13
3.21118e-14
7.88848e-17
7.42591e-17
7.3812e-17
7.28615e-17
7.31902e-17
7.7457e-17
2.55742e-16
9.63839e-14
5.79282e-14
2.17377e-16
5.86306e-33
2.71361e-16
9.65801e-15
-5.4778e-15
-3.68037e-14
-8.71561e-14
-1.45931e-13
-1.88895e-13
-1.92161e-13
-1.5321e-13
-9.49156e-14
-4.50667e-14
-1.59328e-14
-3.81902e-15
-4.12822e-16
3.98555e-17
8.66508e-18
-6.62238e-33
-5.21447e-48
-7.85471e-28
-9.4569e-27
-1.83927e-28
-1.78161e-30
-1.02656e-32
-3.66836e-35
-8.08537e-38
-1.05751e-40
-7.60602e-44
-2.63139e-47
-3.39927e-51
-8.51143e-56
8.22165e-13
8.26796e-13
5.07339e-13
5.97856e-15
1.37139e-16
7.88848e-17
7.42591e-17
7.39395e-17
7.7457e-17
5.55812e-14
1.07272e-13
5.45332e-14
3.79058e-14
5.74668e-16
1.68999e-14
4.39597e-14
1.41503e-14
-1.68565e-14
-6.49826e-14
-1.36091e-13
-2.15873e-13
-2.71789e-13
-2.72449e-13
-2.15692e-13
-1.33408e-13
-6.36021e-14
-2.28316e-14
-5.81712e-15
-9.20169e-16
-7.00704e-17
-1.5913e-18
4.44346e-20
5.41637e-22
-1.34492e-23
-4.58504e-25
-6.53032e-27