/*--------------------------------*- C++ -*----------------------------------*\
| =========                 |                                                 |
| \\      /  F ield         | OpenFOAM: The Open Source CFD Toolbox           |
|  \\    /   O peration     | Version:  v2012                                 |
|   \\  /    A nd           | Website:  www.openfoam.com                      |
|    \\/     M anipulation  |                                                 |
\*---------------------------------------------------------------------------*/
FoamFile
{
    version     2.0;
    format      ascii;
    class       surfaceScalarField;
    location    "1";
    object      phi;
}
// * * * * * * * * * * * * * * * * * * * * * * * * * * * * * * * * * * * * * //

dimensions      [0 3 -1 0 0 0 0];
oriented        oriented;


internalField   nonuniform List<scalar> 
6514
(
7.19955e-11
-1.68931e-10
-8.51055e-18
7.4616e-11
-1.71601e-10
1.67728e-17
7.67125e-11
-1.73265e-10
3.85152e-17
7.82452e-11
-1.73902e-10
8.80218e-17
7.9188e-11
-1.73499e-10
7.78536e-17
7.95289e-11
-1.72107e-10
3.71986e-17
7.92698e-11
-1.69733e-10
1.55467e-17
7.8421e-11
-1.66453e-10
-4.01546e-17
7.70043e-11
-1.62336e-10
-4.79628e-17
7.50516e-11
-1.57459e-10
-4.47999e-18
7.26058e-11
-1.51913e-10
2.32946e-17
6.97208e-11
-1.45788e-10
2.544e-17
6.64563e-11
-1.39184e-10
-1.02445e-17
6.28752e-11
-1.32187e-10
-4.63777e-17
5.90405e-11
-1.2489e-10
-3.32292e-17
5.50127e-11
-1.17369e-10
3.91067e-17
5.08537e-11
-1.09675e-10
1.27291e-16
4.66216e-11
-1.01932e-10
1.87753e-16
4.23779e-11
-9.41296e-11
1.55746e-16
3.81769e-11
-8.63677e-11
3.60243e-17
3.40693e-11
-7.8638e-11
-9.89451e-17
3.00961e-11
-7.09613e-11
-1.99772e-16
2.62878e-11
-6.33857e-11
-2.03945e-16
2.26742e-11
-5.58545e-11
-1.29802e-16
1.92804e-11
-4.84175e-11
-5.61096e-17
1.61337e-11
-4.1067e-11
5.06114e-17
1.32532e-11
-3.38206e-11
6.41612e-17
1.06501e-11
-2.66973e-11
3.55035e-17
8.33323e-12
-1.9714e-11
1.25454e-17
6.30698e-12
-1.29417e-11
2.61638e-18
4.57273e-12
-6.48785e-12
7.17349e-19
3.12903e-12
-5.25621e-13
1.91333e-18
1.97104e-12
4.66927e-12
2.60476e-18
1.09052e-12
8.67443e-12
3.14624e-18
4.76507e-13
1.08506e-11
3.4939e-18
1.16331e-13
1.02241e-11
4.40521e-18
5.351e-12
5.15824e-18
7.55978e-11
-1.71958e-10
-4.10345e-18
7.8102e-11
-1.74104e-10
6.85429e-18
8.00349e-11
-1.75197e-10
1.33312e-17
8.1361e-11
-1.75229e-10
4.23035e-17
8.20596e-11
-1.74199e-10
3.50425e-17
8.21247e-11
-1.72173e-10
1.30962e-17
8.15648e-11
-1.69172e-10
3.3314e-18
8.03984e-11
-1.65284e-10
-2.75653e-17
7.86559e-11
-1.60592e-10
-2.52927e-17
7.63777e-11
-1.55182e-10
1.48843e-17
7.36142e-11
-1.49154e-10
4.2095e-17
7.04255e-11
-1.42604e-10
3.94441e-17
6.68769e-11
-1.35636e-10
-5.27469e-18
6.3036e-11
-1.28341e-10
-5.2745e-17
5.89692e-11
-1.20814e-10
-4.91995e-17
5.4739e-11
-1.13134e-10
2.17691e-17
5.04081e-11
-1.05349e-10
1.20429e-16
4.60339e-11
-9.75741e-11
1.92163e-16
4.16782e-11
-8.97911e-11
1.65539e-16
3.73948e-11
-8.20902e-11
3.87035e-17
3.32332e-11
-7.44621e-11
-1.17436e-16
2.92325e-11
-6.69294e-11
-2.35228e-16
2.54195e-11
-5.95401e-11
-2.46257e-16
2.18201e-11
-5.22371e-11
-1.6985e-16
1.84566e-11
-4.50553e-11
-8.50472e-17
1.53548e-11
-3.79731e-11
5.16698e-17
1.25323e-11
-3.1003e-11
7.99598e-17
9.99792e-12
-2.41639e-11
4.59295e-17
7.75793e-12
-1.74729e-11
1.31851e-17
5.81455e-12
-1.09971e-11
-1.39027e-18
4.16696e-12
-4.83965e-12
-3.02118e-18
2.8114e-12
8.30038e-13
1.76141e-20
1.74031e-12
5.7403e-12
2.00032e-18
9.41745e-13
9.47302e-12
2.80245e-18
3.99488e-13
1.1393e-11
2.94611e-18
9.29692e-14
1.05308e-11
3.53764e-18
5.44411e-12
3.82857e-18
7.93459e-11
-1.74888e-10
-5.22035e-18
8.16998e-11
-1.76457e-10
4.82719e-18
8.34332e-11
-1.76929e-10
9.99659e-18
8.4516e-11
-1.76311e-10
2.66012e-17
8.49343e-11
-1.74617e-10
1.7991e-17
8.4689e-11
-1.71928e-10
4.81412e-18
8.37964e-11
-1.68278e-10
3.95367e-18
8.22841e-11
-1.63771e-10
-1.04135e-17
8.01918e-11
-1.585e-10
-5.13449e-18
7.7569e-11
-1.52561e-10
2.50648e-17
7.44736e-11
-1.46062e-10
4.5377e-17
7.09719e-11
-1.39106e-10
4.17633e-17
6.71339e-11
-1.31799e-10
1.30145e-18
6.30312e-11
-1.24234e-10
-4.41779e-17
5.87339e-11
-1.16509e-10
-4.75702e-17
5.43064e-11
-1.08702e-10
9.79957e-18
4.9812e-11
-1.00858e-10
9.85533e-17
4.53076e-11
-9.30834e-11
1.68598e-16
4.0853e-11
-8.53523e-11
1.51967e-16
3.65001e-11
-7.7744e-11
4.09721e-17
3.22964e-11
-7.02469e-11
-1.04883e-16
2.82789e-11
-6.28842e-11
-2.18479e-16
2.44717e-11
-5.57028e-11
-2.34114e-16
2.08977e-11
-4.86458e-11
-1.68647e-16
1.75763e-11
-4.17344e-11
-9.01316e-17
1.45302e-11
-3.49344e-11
4.73806e-17
1.17747e-11
-2.82525e-11
8.18478e-17
9.31659e-12
-2.1707e-11
4.9103e-17
7.15997e-12
-1.53153e-11
1.3535e-17
5.30493e-12
-9.1408e-12
-3.22703e-18
3.7486e-12
-3.2826e-12
-5.11787e-18
2.48495e-12
2.09386e-12
-1.30536e-18
1.50372e-12
6.72149e-12
1.42678e-18
7.89412e-13
1.01874e-11
2.48695e-18
3.20658e-13
1.18619e-11
2.59093e-18
6.90254e-14
1.07826e-11
2.98121e-18
5.51328e-12
3.03638e-18
8.32351e-11
-1.77687e-10
1.90358e-18
8.54004e-11
-1.78622e-10
6.78239e-18
8.68942e-11
-1.78422e-10
4.72891e-18
8.76934e-11
-1.7711e-10
9.80581e-18
8.77921e-11
-1.74715e-10
1.89588e-18
8.71998e-11
-1.71335e-10
-1.44432e-18
8.59416e-11
-1.6702e-10
6.2788e-18
8.40549e-11
-1.61885e-10
3.01019e-18
8.15896e-11
-1.56035e-10
5.79e-18
7.8604e-11
-1.49577e-10
2.27234e-17
7.51641e-11
-1.42624e-10
3.4915e-17
7.13417e-11
-1.35285e-10
3.568e-17
6.72111e-11
-1.27669e-10
1.06077e-17
6.28475e-11
-1.19869e-10
-2.17998e-17
5.83238e-11
-1.11981e-10
-3.05062e-17
5.37064e-11
-1.04081e-10
1.92567e-18
4.90593e-11
-9.62117e-11
6.14272e-17
4.44379e-11
-8.84696e-11
1.16352e-16
3.98991e-11
-8.08238e-11
1.13699e-16
3.54913e-11
-7.33422e-11
4.1158e-17
3.12589e-11
-6.60091e-11
-6.3394e-17
2.72363e-11
-5.88449e-11
-1.51276e-16
2.34462e-11
-5.18931e-11
-1.69218e-16
1.99093e-11
-4.5097e-11
-1.26869e-16
1.66419e-11
-3.84671e-11
-7.0223e-17
1.36624e-11
-3.196e-11
3.75478e-17
1.09829e-11
-2.55769e-11
6.92023e-17
8.60855e-12
-1.93337e-11
4.40974e-17
6.54153e-12
-1.32475e-11
1.31566e-17
4.78008e-12
-7.37827e-12
-2.97167e-18
3.31929e-12
-1.82116e-12
-5.54316e-18
2.15097e-12
3.26238e-12
-2.11561e-18
1.26224e-12
7.61021e-12
7.14097e-19
6.34158e-13
1.08155e-11
1.96594e-18
2.40349e-13
1.22558e-11
2.14928e-18
4.46018e-14
1.09786e-11
2.43279e-18
5.558e-12
2.25965e-18
8.72578e-11
-1.80312e-10
-3.88593e-18
8.9191e-11
-1.80555e-10
4.48962e-18
9.04007e-11
-1.79632e-10
5.47804e-18
9.08724e-11
-1.77581e-10
7.15479e-18
9.06096e-11
-1.74452e-10
-4.36095e-19
8.96318e-11
-1.70357e-10
-1.72538e-18
8.79744e-11
-1.65362e-10
6.21644e-18
8.56852e-11
-1.59596e-10
6.30889e-18
8.28243e-11
-1.53174e-10
4.3268e-18
7.94594e-11
-1.46211e-10
9.71851e-18
7.5664e-11
-1.38828e-10
1.64764e-17
7.15156e-11
-1.31137e-10
2.51231e-17
6.70923e-11
-1.23247e-10
2.06848e-17
6.24717e-11
-1.1525e-10
6.85521e-18
5.77289e-11
-1.07238e-10
-4.82979e-18
5.29319e-11
-9.92821e-11
-1.66124e-18
4.81448e-11
-9.14219e-11
1.84812e-17
4.34211e-11
-8.3746e-11
4.92583e-17
3.8814e-11
-7.62193e-11
6.06362e-17
3.43671e-11
-6.88994e-11
3.86401e-17
3.01207e-11
-6.17645e-11
-5.43156e-18
2.61066e-11
-5.48284e-11
-5.27305e-17
2.2346e-11
-4.81278e-11
-6.98972e-17
1.88583e-11
-4.16057e-11
-5.69589e-17
1.56566e-11
-3.52654e-11
-3.20331e-17
1.27542e-11
-2.90597e-11
2.4284e-17
1.01597e-11
-2.29843e-11
4.54982e-17
7.87646e-12
-1.70511e-11
3.25068e-17
5.90509e-12
-1.12758e-11
1.20142e-17
4.24216e-12
-5.71463e-12
-8.36898e-19
2.88086e-12
-4.59362e-13
-4.17307e-18
1.8109e-12
4.33254e-12
-2.0287e-18
1.01692e-12
8.40422e-12
3.06032e-19
4.76678e-13
1.13557e-11
1.64228e-18
1.58928e-13
1.25736e-11
2.01378e-18
1.98114e-14
1.11178e-11
2.31412e-18
5.57786e-12
2.05528e-18
9.14024e-11
-1.82717e-10
2.77524e-18
9.30545e-11
-1.82208e-10
8.89347e-18
9.39312e-11
-1.80508e-10
8.44567e-18
9.40279e-11
-1.77678e-10
6.60756e-18
9.33593e-11
-1.73783e-10
-9.2596e-19
9.19562e-11
-1.68954e-10
-1.98912e-18
8.98657e-11
-1.63272e-10
3.41003e-18
8.71465e-11
-1.56878e-10
3.30757e-18
8.38691e-11
-1.49897e-10
-3.34971e-18
8.01104e-11
-1.42452e-10
-5.94226e-18
7.59511e-11
-1.34668e-10
-2.16442e-18
7.14743e-11
-1.26659e-10
1.3942e-17
6.6761e-11
-1.18535e-10
2.80227e-17
6.18909e-11
-1.10383e-10
3.24172e-17
5.69399e-11
-1.02289e-10
2.07272e-17
5.19764e-11
-9.43183e-11
-9.55135e-19
4.70642e-11
-8.65049e-11
-1.84984e-17
4.22543e-11
-7.89299e-11
-1.41122e-17
3.75957e-11
-7.15563e-11
7.20653e-18
3.31268e-11
-6.44319e-11
3.353e-17
2.88829e-11
-5.7528e-11
5.1907e-17
2.48924e-11
-5.08487e-11
4.91964e-17
2.11751e-11
-4.44201e-11
3.58511e-17
1.77491e-11
-3.81843e-11
2.06411e-17
1.46246e-11
-3.21409e-11
1.31608e-17
1.18093e-11
-2.62435e-11
1.03754e-17
9.30833e-12
-2.04831e-11
1.71558e-17
7.12329e-12
-1.48662e-11
1.72914e-17
5.25338e-12
-9.40583e-12
1.00271e-17
3.69357e-12
-4.15453e-12
2.05601e-18
2.43531e-12
7.99203e-13
-1.90826e-18
1.46634e-12
5.30171e-12
-1.53565e-18
7.68943e-13
9.1017e-12
-6.89815e-20
3.17734e-13
1.1807e-11
1.29232e-18
7.67939e-14
1.28147e-11
1.94486e-18
-5.22158e-15
1.11998e-11
2.39085e-18
5.57264e-12
2.0785e-18
9.56528e-11
-1.84848e-10
1.39379e-18
9.69691e-11
-1.83524e-10
8.11396e-18
9.74591e-11
-1.80998e-10
9.31554e-18
9.71298e-11
-1.77349e-10
7.44627e-18
9.6009e-11
-1.72662e-10
5.96839e-19
9.41402e-11
-1.67085e-10
-1.85949e-18
9.15829e-11
-1.60714e-10
-3.17851e-19
8.84076e-11
-1.53703e-10
-1.46248e-18
8.46949e-11
-1.46184e-10
-1.03218e-17
8.05306e-11
-1.38287e-10
-1.67212e-17
7.60024e-11
-1.30138e-10
-1.48217e-17
7.1198e-11
-1.21854e-10
4.41635e-18
6.62013e-11
-1.13539e-10
2.94668e-17
6.10928e-11
-1.05279e-10
4.71694e-17
5.5948e-11
-9.71483e-11
3.89876e-17
5.08346e-11
-8.92061e-11
3.75817e-18
4.58146e-11
-8.14796e-11
-3.95821e-17
4.09361e-11
-7.40419e-11
-5.7073e-17
3.6244e-11
-6.68549e-11
-3.29148e-17
3.1771e-11
-5.99577e-11
2.63888e-17
2.75471e-11
-5.33144e-11
9.22547e-17
2.3597e-11
-4.69176e-11
1.26429e-16
1.99381e-11
-4.07806e-11
1.19035e-16
1.65868e-11
-3.48435e-11
8.42854e-17
1.35502e-11
-2.91045e-11
5.14106e-17
1.08315e-11
-2.35216e-11
-5.12192e-19
8.43232e-12
-1.80821e-11
-7.69253e-18
6.35236e-12
-1.2786e-11
3.12602e-18
4.5894e-12
-7.64304e-12
7.93678e-18
3.13693e-12
-2.70209e-12
4.9905e-18
1.98483e-12
1.95145e-12
7.02949e-19
1.119e-12
6.16772e-12
-6.50111e-19
5.19555e-13
9.70127e-12
-1.61734e-19
1.58146e-13
1.21685e-11
1.1486e-18
-5.62055e-15
1.29785e-11
2.08592e-18
-3.03631e-14
1.12246e-11
2.72459e-18
5.54223e-12
2.43983e-18
9.99866e-11
-1.86644e-10
3.32775e-18
1.00907e-10
-1.84444e-10
8.57647e-18
1.00952e-10
-1.81043e-10
9.6055e-18
1.00142e-10
-1.7654e-10
7.13485e-18
9.85215e-11
-1.7104e-10
7.27256e-19
9.61465e-11
-1.6471e-10
-2.79804e-18
9.309e-11
-1.57658e-10
-3.81268e-18
8.94345e-11
-1.50048e-10
-4.75265e-18
8.52708e-11
-1.42021e-10
-1.29772e-17
8.06928e-11
-1.33708e-10
-1.97421e-17
7.57945e-11
-1.25239e-10
-1.95311e-17
7.06677e-11
-1.16726e-10
-2.48524e-18
6.5398e-11
-1.0827e-10
2.42274e-17
6.0066e-11
-9.99498e-11
4.82645e-17
5.47455e-11
-9.18319e-11
4.64665e-17
4.95018e-11
-8.39646e-11
1.15524e-17
4.43939e-11
-7.63677e-11
-4.0387e-17
3.94665e-11
-6.91053e-11
-7.07189e-17
3.47599e-11
-6.21379e-11
-5.1466e-17
3.03017e-11
-5.54964e-11
1.81302e-17
2.61166e-11
-4.91388e-11
1.05555e-16
2.22248e-11
-4.3046e-11
1.60487e-16
1.86403e-11
-3.72182e-11
1.59735e-16
1.53768e-11
-3.15926e-11
1.1811e-16
1.24387e-11
-2.61667e-11
7.25746e-17
9.82544e-12
-2.09043e-11
-6.79785e-18
7.53575e-12
-1.57897e-11
-2.34248e-17
5.56734e-12
-1.08171e-11
-6.77089e-18
3.91642e-12
-5.99238e-12
6.01046e-18
2.57507e-12
-1.36096e-12
6.88922e-18
1.53174e-12
2.99483e-12
2.63284e-18
7.70722e-13
6.92893e-12
4.11156e-20
2.70104e-13
1.02021e-11
-2.6497e-19
-1.20413e-15
1.24399e-11
9.97996e-19
-8.78496e-14
1.30652e-11
2.199e-18
-5.54681e-14
1.11923e-11
3.06084e-18
5.48668e-12
2.80196e-18
1.04375e-10
-1.88036e-10
-5.30592e-19
1.04832e-10
-1.84901e-10
6.01849e-18
1.04369e-10
-1.8058e-10
8.06605e-18
1.03024e-10
-1.75195e-10
6.18818e-18
1.00854e-10
-1.6887e-10
4.69711e-19
9.79332e-11
-1.61788e-10
-3.77546e-18
9.43472e-11
-1.54071e-10
-6.38696e-18
9.01906e-11
-1.45892e-10
-6.07844e-18
8.55641e-11
-1.37394e-10
-1.16237e-17
8.0569e-11
-1.28712e-10
-1.62475e-17
7.53043e-11
-1.19973e-10
-1.74937e-17
6.98647e-11
-1.11285e-10
-6.5879e-18
6.4337e-11
-1.02742e-10
1.40595e-17
5.88003e-11
-9.44148e-11
3.76709e-17
5.33258e-11
-8.63603e-11
4.35461e-17
4.79747e-11
-7.86159e-11
2.07655e-17
4.28017e-11
-7.11931e-11
-2.30531e-17
3.78471e-11
-6.41448e-11
-5.5639e-17
3.31466e-11
-5.74291e-11
-4.72254e-17
2.87231e-11
-5.10691e-11
9.95036e-18
2.45962e-11
-4.50176e-11
9.0484e-17
2.0781e-11
-3.9246e-11
1.46764e-16
1.72871e-11
-3.37422e-11
1.51609e-16
1.41248e-11
-2.84408e-11
1.15702e-16
1.12955e-11
-2.33376e-11
7.19089e-17
8.79612e-12
-1.84014e-11
-7.81767e-18
6.62318e-12
-1.36144e-11
-2.69308e-17
4.77228e-12
-8.96564e-12
-1.00031e-17
3.23799e-12
-4.4583e-12
5.01954e-18
2.01102e-12
-1.34203e-13
7.64481e-18
1.07856e-12
3.92732e-12
3.68682e-18
4.23458e-13
7.58421e-12
5.82203e-19
2.20252e-14
1.06037e-11
-1.70347e-19
-1.59378e-13
1.26215e-11
1.04817e-18
-1.69395e-13
1.30753e-11
2.41909e-18
-8.03809e-14
1.11033e-11
3.44653e-18
5.40621e-12
3.24768e-18
1.08781e-10
-1.88948e-10
2.12155e-18
1.08703e-10
-1.84822e-10
6.90392e-18
1.07666e-10
-1.79543e-10
8.35702e-18
1.05726e-10
-1.73255e-10
5.9498e-18
1.02959e-10
-1.66103e-10
4.07526e-19
9.94541e-11
-1.58282e-10
-4.44099e-18
9.53114e-11
-1.49928e-10
-7.75583e-18
9.06372e-11
-1.41218e-10
-5.78728e-18
8.55411e-11
-1.32298e-10
-7.97381e-18
8.01308e-11
-1.23302e-10
-9.46951e-18
7.45089e-11
-1.14351e-10
-1.16163e-17
6.87718e-11
-1.05547e-10
-8.1045e-18
6.30056e-11
-9.69756e-11
2.49267e-18
5.72874e-11
-8.86966e-11
2.07958e-17
5.1684e-11
-8.0758e-11
3.34623e-17
4.62516e-11
-7.31857e-11
2.90825e-17
4.1039e-11
-6.59814e-11
4.85341e-18
3.60813e-11
-5.91859e-11
-2.08528e-17
3.14093e-11
-5.2753e-11
-2.55527e-17
2.70414e-11
-4.66977e-11
3.16431e-18
2.29922e-11
-4.09691e-11
5.4216e-17
1.92718e-11
-3.55318e-11
9.48555e-17
1.58847e-11
-3.0364e-11
1.02916e-16
1.28367e-11
-2.53984e-11
8.23494e-17
1.01262e-11
-2.06274e-11
5.17204e-17
7.74902e-12
-1.60222e-11
-4.58419e-18
5.6996e-12
-1.15635e-11
-1.94189e-17
3.97162e-12
-7.23733e-12
-7.0148e-18
2.55793e-12
-3.04471e-12
4.77783e-18
1.44801e-12
9.75654e-13
6.9302e-18
6.2791e-13
4.7475e-12
3.47062e-18
7.92808e-14
8.13302e-12
6.42167e-19
-2.23165e-13
1.09063e-11
-1.05985e-19
-3.15379e-13
1.27138e-11
1.1303e-18
-2.49729e-13
1.30098e-11
2.58804e-18
-1.04935e-13
1.09585e-11
3.73272e-18
5.30118e-12
3.56233e-18
1.13158e-10
-1.89297e-10
1.86413e-18
1.12466e-10
-1.8413e-10
6.32949e-18
1.10786e-10
-1.77862e-10
7.60338e-18
1.08193e-10
-1.70662e-10
5.34146e-18
1.04782e-10
-1.62691e-10
1.91042e-19
1.00658e-10
-1.54158e-10
-4.75615e-18
9.59363e-11
-1.45206e-10
-8.56041e-18
9.07336e-11
-1.36015e-10
-5.35064e-18
8.51674e-11
-1.26733e-10
-4.86616e-18
7.93501e-11
-1.17485e-10
-3.13378e-18
7.33866e-11
-1.08388e-10
-5.0447e-18
6.73729e-11
-9.95329e-11
-7.31575e-18
6.13932e-11
-9.09949e-11
-6.78673e-18
5.55209e-11
-8.2823e-11
3.84953e-18
4.98174e-11
-7.50539e-11
2.04242e-17
4.43326e-11
-6.77025e-11
3.41171e-17
3.91086e-11
-6.07604e-11
3.33101e-17
3.41743e-11
-5.42548e-11
2.01729e-17
2.95549e-11
-4.81343e-11
4.23824e-18
2.52643e-11
-4.2405e-11
-1.02768e-18
2.13126e-11
-3.70134e-11
9.41112e-18
1.77046e-11
-3.19201e-11
2.41389e-17
1.44398e-11
-2.70974e-11
3.23775e-17
1.15188e-11
-2.24768e-11
3.05859e-17
8.93732e-12
-1.80458e-11
2.00309e-17
6.69011e-12
-1.3775e-11
1.08202e-18
4.77044e-12
-9.64381e-12
-4.57734e-18
3.1701e-12
-5.63701e-12
6.07272e-19
1.88032e-12
-1.75486e-12
5.45429e-18
8.89435e-13
1.9667e-12
5.42713e-18
1.82578e-13
5.45455e-12
2.49767e-18
-2.59639e-13
8.57542e-12
5.18578e-19
-4.63875e-13
1.11107e-11
1.25669e-19
-4.68161e-13
1.27182e-11
1.41334e-18
-3.2829e-13
1.287e-11
2.85513e-18
-1.28952e-13
1.07592e-11
4.02557e-18
5.17212e-12
3.88275e-18
1.17447e-10
-1.88991e-10
7.59633e-18
1.16059e-10
-1.82742e-10
9.74586e-18
1.13665e-10
-1.75468e-10
9.82781e-18
1.10361e-10
-1.67359e-10
6.57351e-18
1.06262e-10
-1.58592e-10
1.32577e-18
1.0149e-10
-1.49386e-10
-4.06728e-18
9.6173e-11
-1.39889e-10
-8.4483e-18
9.04379e-11
-1.3028e-10
-4.9958e-18
8.44085e-11
-1.20703e-10
-3.13555e-18
7.81999e-11
-1.11277e-10
9.11442e-19
7.19173e-11
-1.02106e-10
2.83135e-19
6.56545e-11
-9.32701e-11
-4.77409e-18
5.94918e-11
-8.48314e-11
-1.13914e-17
5.34972e-11
-7.68268e-11
-8.40499e-18
4.7726e-11
-6.92809e-11
8.20302e-18
4.22207e-11
-6.21979e-11
3.41592e-17
3.70159e-11
-5.55591e-11
5.32988e-17
3.21332e-11
-4.93783e-11
5.41785e-17
2.75921e-11
-4.35978e-11
3.22014e-17
2.34014e-11
-3.82139e-11
-1.83738e-18
1.95668e-11
-3.31717e-11
-3.01192e-17
1.60882e-11
-2.84303e-11
-4.29904e-17
1.29601e-11
-2.39586e-11
-3.74818e-17
1.01783e-11
-1.9689e-11
-2.2367e-17
7.73546e-12
-1.56028e-11
-1.3015e-17
5.62584e-12
-1.16672e-11
7.2002e-18
3.84154e-12
-7.86078e-12
1.20745e-17
2.37281e-12
-4.16864e-12
9.61904e-18
1.20947e-12
-5.91292e-13
6.31104e-18
3.38893e-13
2.83766e-12
3.35226e-18
-2.54532e-13
6.04829e-12
9.49506e-19
-5.91035e-13
8.91212e-12
1.35867e-19
-6.98444e-13
1.12182e-11
3.33389e-19
-6.16629e-13
1.26365e-11
1.72067e-18
-4.04491e-13
1.2658e-11
3.09773e-18
-1.52243e-13
1.0507e-11
4.24962e-18
5.01978e-12
4.09426e-18
1.21578e-10
-1.87933e-10
2.93711e-18
1.19408e-10
-1.80572e-10
7.24523e-18
1.16228e-10
-1.72288e-10
8.3675e-18
1.12159e-10
-1.6329e-10
5.90136e-18
1.07334e-10
-1.53767e-10
1.36983e-18
1.01891e-10
-1.43943e-10
-3.5666e-18
9.59709e-11
-1.33968e-10
-8.28845e-18
8.97081e-11
-1.24018e-10
-5.04324e-18
8.32308e-11
-1.14226e-10
-3.20652e-18
7.66549e-11
-1.04702e-10
2.03311e-18
7.00834e-11
-9.55354e-11
3.30791e-18
6.36056e-11
-8.67926e-11
-1.23065e-18
5.7296e-11
-7.85216e-11
-1.0822e-17
5.12159e-11
-7.07452e-11
-1.37087e-17
4.54129e-11
-6.34757e-11
-7.92963e-19
3.99216e-11
-5.67064e-11
2.88792e-17
3.47684e-11
-5.0409e-11
5.95409e-17
2.99674e-11
-4.45842e-11
7.21318e-17
2.55313e-11
-3.91681e-11
5.07418e-17
2.14637e-11
-3.41475e-11
8.3613e-19
1.77655e-11
-2.9466e-11
-5.36622e-17
1.44324e-11
-2.50825e-11
-8.79824e-17
1.14544e-11
-2.09651e-11
-8.70799e-17
8.82291e-12
-1.70485e-11
-6.18696e-17
6.52807e-12
-1.33077e-11
-3.75184e-17
4.56308e-12
-9.70511e-12
1.19543e-17
2.91907e-12
-6.21891e-12
2.54944e-17
1.5851e-12
-2.83528e-12
1.72516e-17
5.49898e-13
4.44243e-13
7.15578e-18
-1.99878e-13
3.58799e-12
1.57521e-18
-6.804e-13
6.52921e-12
-4.01472e-19
-9.12556e-13
9.14447e-12
-1.07506e-19
-9.2515e-13
1.12309e-11
6.85199e-19
-7.59644e-13
1.24711e-11
2.16273e-18
-4.77719e-13
1.23762e-11
3.43619e-18
-1.7461e-13
1.02039e-11
4.51957e-18
4.84506e-12
4.35081e-18
1.25463e-10
-1.86018e-10
8.30307e-18
1.22425e-10
-1.77534e-10
1.09113e-17
1.18392e-10
-1.68255e-10
1.108e-17
1.13508e-10
-1.58406e-10
7.65664e-18
1.07926e-10
-1.48185e-10
3.09817e-18
1.01799e-10
-1.37816e-10
-2.04094e-18
9.5278e-11
-1.27447e-10
-7.26505e-18
8.85028e-11
-1.17243e-10
-4.95449e-18
8.16029e-11
-1.07326e-10
-4.17251e-18
7.46928e-11
-9.77915e-11
9.38484e-19
6.78705e-11
-8.87136e-11
4.13684e-18
6.12189e-11
-8.01415e-11
2.33327e-18
5.48046e-11
-7.21074e-11
-6.32875e-18
4.86802e-11
-6.462e-11
-1.24696e-17
4.28848e-11
-5.76784e-11
-5.59392e-18
3.74444e-11
-5.12649e-11
1.95412e-17
3.23769e-11
-4.5343e-11
5.17195e-17
2.76885e-11
-3.99014e-11
7.12215e-17
2.33847e-11
-3.48707e-11
5.63286e-17
1.94633e-11
-3.02287e-11
6.2573e-18
1.59207e-11
-2.59176e-11
-5.64674e-17
1.27483e-11
-2.18966e-11
-1.01097e-16
9.93259e-12
-1.81343e-11
-1.0535e-16
7.46169e-12
-1.45685e-11
-7.84728e-17
5.3233e-12
-1.1169e-11
-4.7727e-17
3.50919e-12
-7.8942e-12
1.42342e-17
2.00952e-12
-4.72161e-12
3.20524e-17
8.12554e-13
-1.63898e-12
2.10581e-17
-9.3691e-14
1.35085e-12
7.31813e-18
-7.22996e-13
4.2179e-12
2.66111e-19
-1.0919e-12
6.89854e-12
-1.35731e-18
-1.22178e-12
9.27454e-12
-2.55878e-19
-1.14222e-12
1.11514e-11
9.92591e-19
-8.96033e-13
1.2225e-11
2.55282e-18
-5.47336e-13
1.20276e-11
3.74318e-18
-1.95843e-13
9.8524e-12
4.77784e-18
4.6491e-12
4.57493e-18
1.29003e-10
-1.83141e-10
7.25272e-18
1.25011e-10
-1.73542e-10
1.03057e-17
1.20061e-10
-1.63306e-10
1.05571e-17
1.14321e-10
-1.52666e-10
7.55266e-18
1.07963e-10
-1.41826e-10
3.42836e-18
1.01151e-10
-1.31004e-10
-1.15573e-18
9.40433e-11
-1.20339e-10
-6.50089e-18
8.67825e-11
-1.09982e-10
-4.72476e-18
7.94967e-11
-1.0004e-10
-5.40488e-18
7.22952e-11
-9.05899e-11
-1.26436e-18
6.5269e-11
-8.16876e-11
3.17578e-18
5.84919e-11
-7.33648e-11
4.97846e-18
5.20206e-11
-6.56367e-11
-1.75498e-19
4.58976e-11
-5.8497e-11
-6.79382e-18
4.01524e-11
-5.19318e-11
-6.43212e-18
3.48017e-11
-4.59129e-11
8.64644e-18
2.9855e-11
-4.0396e-11
3.38216e-17
2.53104e-11
-3.53596e-11
5.46116e-17
2.11661e-11
-3.07309e-11
4.96513e-17
1.74139e-11
-2.64795e-11
1.29019e-17
1.40452e-11
-2.25465e-11
-4.04858e-17
1.1048e-11
-1.88908e-11
-8.30746e-17
8.40584e-12
-1.54815e-11
-9.15077e-17
6.10458e-12
-1.22604e-11
-7.07609e-17
4.12996e-12
-9.19415e-12
-4.25346e-17
2.47193e-12
-6.23875e-12
1.38174e-17
1.11964e-12
-3.37129e-12
3.07869e-17
6.09446e-14
-5.80854e-13
2.04594e-17
-7.1644e-13
2.12855e-12
6.8815e-18
-1.22646e-12
4.72847e-12
-1.20768e-19
-1.48582e-12
7.1583e-12
-1.4771e-18
-1.51622e-12
9.30511e-12
-3.70681e-20
-1.34783e-12
1.09831e-11
1.39396e-18
-1.02459e-12
1.19018e-11
2.97998e-18
-6.12684e-13
1.16157e-11
4.10972e-18
-2.15724e-13
9.45546e-12
5.11238e-18
4.43324e-12
4.89726e-18
1.32073e-10
-1.79197e-10
8.00609e-18
1.27049e-10
-1.68518e-10
1.12902e-17
1.21131e-10
-1.57388e-10
1.18403e-17
1.14507e-10
-1.46043e-10
8.52531e-18
1.07367e-10
-1.34685e-10
4.62574e-18
9.9883e-11
-1.2352e-10
4.79549e-20
9.22176e-11
-1.12673e-10
-5.31138e-18
8.4512e-11
-1.02277e-10
-4.09972e-18
7.68889e-11
-9.24172e-11
-6.17419e-18
6.94495e-11
-8.31504e-11
-3.63654e-18
6.22748e-11
-7.45129e-11
1.17898e-18
5.54274e-11
-6.65177e-11
6.04821e-18
4.89522e-11
-5.91623e-11
5.39132e-18
4.28804e-11
-5.24259e-11
4.88147e-19
3.72305e-11
-4.62815e-11
-4.25504e-18
3.201e-11
-4.06911e-11
-9.40541e-19
2.72195e-11
-3.56038e-11
1.22718e-17
2.28497e-11
-3.09898e-11
2.93811e-17
1.88914e-11
-2.67745e-11
3.45224e-17
1.53305e-11
-2.29214e-11
1.87811e-17
1.21533e-11
-1.93705e-11
-1.29914e-17
9.34472e-12
-1.60802e-11
-4.35194e-17
6.88633e-12
-1.30192e-11
-5.41025e-17
4.76249e-12
-1.01337e-11
-4.43685e-17
2.95754e-12
-7.3892e-12
-2.55263e-17
1.45943e-12
-4.74206e-12
1.09795e-17
2.56402e-13
-2.16939e-12
2.27623e-17
-6.63789e-13
3.38996e-13
1.5774e-17
-1.31336e-12
2.77836e-12
5.69604e-18
-1.70617e-12
5.12168e-12
1.9121e-19
-1.85889e-12
7.31134e-12
-9.44529e-19
-1.79334e-12
9.23973e-12
3.73719e-19
-1.54013e-12
1.07299e-11
1.71144e-18
-1.14408e-12
1.15059e-11
3.28661e-18
-6.73086e-13
1.11448e-11
4.42321e-18
-2.34025e-13
9.01639e-12
5.45651e-18
4.19907e-12
5.23387e-18
1.34543e-10
-1.74083e-10
5.53878e-18
1.28416e-10
-1.62391e-10
9.80923e-18
1.21488e-10
-1.5046e-10
1.06308e-17
1.1397e-10
-1.38525e-10
7.9294e-18
1.06059e-10
-1.26774e-10
4.35222e-18
9.79341e-11
-1.15395e-10
3.14551e-19
8.97566e-11
-1.04496e-10
-5.00366e-18
8.16617e-11
-9.41826e-11
-3.42522e-18
7.37628e-11
-8.45185e-11
-6.44005e-18
6.61498e-11
-7.55372e-11
-5.44852e-18
5.88908e-11
-6.72537e-11
-1.254e-18
5.20348e-11
-5.96617e-11
5.36115e-18
4.56136e-11
-5.27419e-11
8.68396e-18
3.96457e-11
-4.64591e-11
6.87684e-18
3.41385e-11
-4.07746e-11
-3.88299e-19
2.90894e-11
-3.56411e-11
-6.93774e-18
2.44907e-11
-3.10026e-11
-6.52869e-18
2.03257e-11
-2.68225e-11
3.66745e-18
1.65786e-11
-2.30266e-11
1.61048e-17
1.32295e-11
-1.95742e-11
2.1961e-17
1.02603e-11
-1.64052e-11
1.62364e-17
7.6527e-12
-1.34767e-11
3.12992e-18
5.3871e-12
-1.07566e-11
-7.08687e-18
3.44705e-12
-8.19491e-12
-9.39444e-18
1.81601e-12
-5.75834e-12
-3.43631e-18
4.80165e-13
-3.40628e-12
6.80997e-18
-5.73018e-13
-1.11638e-12
1.1149e-17
-1.35557e-12
1.12148e-12
8.93002e-18
-1.87939e-12
3.30228e-12
4.2828e-18
-2.15797e-12
5.40049e-12
1.17016e-18
-2.20776e-12
7.36136e-12
2.06971e-19
-2.05058e-12
9.0827e-12
1.05706e-18
-1.71726e-12
1.03967e-11
2.07274e-18
-1.25327e-12
1.1042e-11
3.58748e-18
-7.27855e-13
1.06195e-11
4.76802e-18
-2.50509e-13
8.53903e-12
5.86937e-18
3.94839e-12
5.6703e-18
1.36247e-10
-1.67714e-10
5.30418e-18
1.28967e-10
-1.55111e-10
9.75454e-18
1.21013e-10
-1.42507e-10
1.10254e-17
1.12609e-10
-1.30121e-10
8.05008e-18
1.03962e-10
-1.18126e-10
4.61721e-18
9.52481e-11
-1.06682e-10
4.88995e-19
8.66227e-11
-9.58699e-11
-4.32987e-18
7.82102e-11
-8.57706e-11
-2.74405e-18
7.01108e-11
-7.64192e-11
-6.14122e-18
6.23991e-11
-6.78254e-11
-6.5512e-18
5.51279e-11
-5.99823e-11
-3.57336e-18
4.83309e-11
-5.28646e-11
3.16529e-18
4.20254e-11
-4.6437e-11
9.10028e-18
3.62168e-11
-4.06517e-11
1.07056e-17
3.09005e-11
-3.54592e-11
3.8016e-18
2.60643e-11
-3.08047e-11
-8.4206e-18
2.1692e-11
-2.66279e-11
-1.81497e-17
1.77604e-11
-2.28876e-11
-1.59444e-17
1.42478e-11
-1.95114e-11
-7.94867e-19
1.11292e-11
-1.64565e-11
2.11395e-17
8.38257e-12
-1.36636e-11
3.81553e-17
5.98697e-12
-1.10891e-11
4.25148e-17
3.92184e-12
-8.69915e-12
3.4957e-17
2.17041e-12
-6.44775e-12
2.31432e-17
7.15755e-13
-4.30396e-12
1.68253e-17
-4.57152e-13
-2.23233e-12
2.24886e-18
-1.36127e-12
-2.11607e-13
-7.84498e-19
-2.00822e-12
1.7686e-12
1.72075e-18
-2.40935e-12
3.70341e-12
2.80232e-18
-2.57763e-12
5.56883e-12
2.3179e-18
-2.52911e-12
7.31296e-12
1.50764e-18
-2.28537e-12
8.8391e-12
1.73929e-18
-1.87734e-12
9.9888e-12
2.33037e-18
-1.35091e-12
1.05157e-11
3.78252e-18
-7.76291e-13
1.00449e-11
5.05883e-18
-2.64935e-13
8.02764e-12
6.27828e-18
3.68326e-12
6.10737e-18
1.37023e-10
-1.60014e-10
4.00569e-18
1.28559e-10
-1.46647e-10
9.11203e-18
1.19584e-10
-1.33532e-10
1.01367e-17
1.10332e-10
-1.20869e-10
7.44531e-18
1.01006e-10
-1.088e-10
3.92794e-18
9.17783e-11
-9.74533e-11
9.12605e-21
8.2789e-11
-8.68805e-11
-4.59815e-18
7.41474e-11
-7.71295e-11
-2.41337e-18
6.59358e-11
-6.82078e-11
-5.72505e-18
5.82106e-11
-6.01002e-11
-6.93187e-18
5.10066e-11
-5.27781e-11
-5.47619e-18
4.4341e-11
-4.61987e-11
9.83487e-20
3.82157e-11
-4.03121e-11
6.85859e-18
3.26226e-11
-3.50596e-11
1.13574e-17
2.75456e-11
-3.03832e-11
7.06255e-18
2.29628e-11
-2.62223e-11
-5.95617e-18
1.88501e-11
-2.25137e-11
-2.11555e-17
1.51786e-11
-1.92128e-11
-2.59799e-17
1.19214e-11
-1.62508e-11
-1.29082e-17
9.04963e-12
-1.35844e-11
1.61011e-17
6.53796e-12
-1.11566e-11
4.70669e-17
4.36341e-12
-8.92343e-12
6.45074e-17
2.50471e-12
-6.84996e-12
6.10668e-17
9.44974e-13
-4.89357e-12
4.44669e-17
-3.32638e-13
-3.02661e-12
2.95212e-17
-1.3436e-12
-1.2197e-12
-1.56819e-18
-2.10087e-12
5.4678e-13
-9.72935e-18
-2.61547e-12
2.28349e-12
-3.72477e-18
-2.89808e-12
3.98594e-12
1.80963e-18
-2.96096e-12
5.63165e-12
3.47319e-18
-2.81957e-12
7.17164e-12
2.77736e-18
-2.49515e-12
8.51481e-12
2.43501e-18
-2.0185e-12
9.51229e-12
2.6166e-18
-1.43573e-12
9.93301e-12
4.00708e-18
-8.17693e-13
9.42696e-12
5.38225e-18
-2.77052e-13
7.48695e-12
6.72062e-18
3.40599e-12
6.58734e-18
1.36671e-10
-1.50953e-10
4.47674e-18
1.27031e-10
-1.37007e-10
8.9975e-18
1.17079e-10
-1.23581e-10
1.01175e-17
1.07048e-10
-1.10838e-10
6.93776e-18
9.71329e-11
-9.88846e-11
3.39277e-18
8.74905e-11
-8.78106e-11
-8.01651e-19
7.82425e-11
-7.76325e-11
-5.15957e-18
6.9477e-11
-6.83644e-11
-2.55711e-18
6.12542e-11
-5.99853e-11
-5.3626e-18
5.36095e-11
-5.24556e-11
-6.94345e-18
4.65581e-11
-4.57266e-11
-6.8099e-18
4.00995e-11
-3.97397e-11
-3.19266e-18
3.42202e-11
-3.44328e-11
2.87897e-18
2.88988e-11
-2.97389e-11
9.08902e-18
2.41081e-11
-2.55935e-11
8.51592e-18
1.98171e-11
-2.19322e-11
-1.31346e-18
1.5995e-11
-1.86909e-11
-1.69384e-17
1.26074e-11
-1.58231e-11
-2.63878e-17
9.62377e-12
-1.32641e-11
-1.89273e-17
7.01228e-12
-1.09716e-11
7.8332e-18
4.74535e-12
-8.89247e-12
4.18777e-17
2.79855e-12
-6.98372e-12
6.55088e-17
1.15015e-12
-5.20984e-12
6.65272e-17
-2.16728e-13
-3.53173e-12
5.06272e-17
-1.31847e-12
-1.92502e-12
3.22797e-17
-2.17016e-12
-3.66292e-13
-4.04388e-18
-2.78425e-12
1.16204e-12
-1.41335e-17
-3.17103e-12
2.67057e-12
-6.54071e-18
-3.34038e-12
4.15516e-12
1.28378e-18
-3.30373e-12
5.59489e-12
4.20732e-18
-3.07583e-12
6.94377e-12
3.62297e-18
-2.67739e-12
8.11649e-12
2.91888e-18
-2.13891e-12
8.97397e-12
2.82612e-18
-1.50653e-12
9.30076e-12
4.19154e-18
-8.5136e-13
8.77187e-12
5.66764e-18
-2.86607e-13
6.92213e-12
7.12002e-18
3.11914e-12
7.00369e-18
1.35016e-10
-1.40517e-10
3.45287e-18
1.24241e-10
-1.26232e-10
8.33165e-18
1.1339e-10
-1.1273e-10
9.01381e-18
1.02684e-10
-1.00132e-10
6.02821e-18
9.22998e-11
-8.85e-11
2.30228e-18
8.23691e-11
-7.78798e-11
-1.84126e-18
7.29885e-11
-6.82518e-11
-6.17106e-18
6.42197e-11
-5.9596e-11
-3.15547e-18
5.60978e-11
-5.18636e-11
-5.40178e-18
4.86348e-11
-4.49928e-11
-6.81744e-18
4.18252e-11
-3.89171e-11
-7.63058e-18
3.56506e-11
-3.35648e-11
-6.05461e-18
3.00826e-11
-2.88646e-11
-1.7693e-18
2.50872e-11
-2.47438e-11
4.76547e-18
2.06271e-11
-2.11341e-11
7.7094e-18
1.66635e-11
-1.79698e-11
3.31677e-18
1.31594e-11
-1.51872e-11
-8.72027e-18
1.00765e-11
-1.27394e-11
-1.97228e-17
7.38114e-12
-1.05666e-11
-1.92917e-17
5.04016e-12
-8.62884e-12
-1.71892e-18
3.02467e-12
-6.87748e-12
2.57918e-17
1.30951e-12
-5.27211e-12
4.84762e-17
-1.27182e-13
-3.77808e-12
5.31792e-17
-1.30216e-12
-2.35991e-12
4.21347e-17
-2.23104e-12
-9.96142e-13
2.58029e-17
-2.92776e-12
3.31715e-13
-4.91843e-18
-3.40381e-12
1.63895e-12
-1.35654e-17
-3.66859e-12
2.93556e-12
-6.30972e-18
-3.73109e-12
4.21754e-12
1.43407e-18
-3.60182e-12
5.46552e-12
4.56991e-18
-3.29464e-12
6.63663e-12
4.07127e-18
-2.8296e-12
7.65158e-12
3.27718e-18
-2.23677e-12
8.3813e-12
3.08253e-18
-1.56208e-12
8.62621e-12
4.45091e-18
-8.76603e-13
8.08646e-12
5.98268e-18
-2.93343e-13
6.33879e-12
7.49744e-18
2.82553e-12
7.38637e-18
1.3184e-10
-1.2878e-10
2.26852e-18
1.20037e-10
-1.14429e-10
6.83764e-18
1.0842e-10
-1.01114e-10
7.82113e-18
9.71876e-11
-8.88999e-11
4.65831e-18
8.6488e-11
-7.78002e-11
1.10336e-18
7.6422e-11
-6.78138e-11
-3.20635e-18
6.70544e-11
-5.88842e-11
-7.40205e-18
5.84167e-11
-5.09587e-11
-4.30572e-18
5.05161e-11
-4.39633e-11
-5.90131e-18
4.33405e-11
-3.78174e-11
-6.92681e-18
3.68634e-11
-3.24401e-11
-8.09042e-18
3.10491e-11
-2.77503e-11
-8.20762e-18
2.58551e-11
-2.36704e-11
-6.0855e-18
2.12364e-11
-2.0125e-11
-5.19068e-19
1.7147e-11
-1.70451e-11
4.78129e-18
1.35418e-11
-1.43656e-11
6.05482e-18
1.03789e-11
-1.20254e-11
-1.65748e-19
7.61711e-12