/*--------------------------------*- C++ -*----------------------------------*\
| =========                 |                                                 |
| \\      /  F ield         | OpenFOAM: The Open Source CFD Toolbox           |
|  \\    /   O peration     | Version:  v2006                                 |
|   \\  /    A nd           | Website:  www.openfoam.com                      |
|    \\/     M anipulation  |                                                 |
\*---------------------------------------------------------------------------*/
FoamFile
{
    version     2.0;
    format      ascii;
    class       volScalarField;
    location    "0.02";
    object      p_rgh;
}
// * * * * * * * * * * * * * * * * * * * * * * * * * * * * * * * * * * * * * //

dimensions      [1 -1 -2 0 0 0 0];


internalField   nonuniform List<scalar> 
3575
(
2.00031e+06
2.00031e+06
4056.04
2.00031e+06
2.00031e+06
2.00031e+06
2.0003e+06
2.00031e+06
2.00018e+06
2.0003e+06
2.0003e+06
2.00031e+06
2.00023e+06
2.0003e+06
2.00031e+06
2.00031e+06
2.00031e+06
2.0003e+06
2.00031e+06
2.0002e+06
2.00023e+06
2.0003e+06
2.0003e+06
2.00031e+06
643452
2.00031e+06
2.00031e+06
2.00031e+06
2.00031e+06
2.00031e+06
2.00031e+06
2.0003e+06
2.00031e+06
2.0003e+06
2.0003e+06
2.00021e+06
2.00024e+06
2.00021e+06
584065
608153
2.00031e+06
627042
2.0003e+06
647895
2.00031e+06
2.0003e+06
109124
2.0003e+06
2.00031e+06
118049
106461
108568
2.0003e+06
101825
2.00028e+06
2.0003e+06
2.00028e+06
2.0003e+06
2.00026e+06
1.97564e+06
721347
2.00026e+06
111461
2.00029e+06
2.00029e+06
2.00031e+06
2.00029e+06
2.00031e+06
2.00031e+06
2.0003e+06
2.00026e+06
101359
138331
113466
2.00029e+06
85895
537147
1.99962e+06
2.00031e+06
2.00031e+06
2.0003e+06
122516
2.00031e+06
2.00031e+06
580911
2.0001e+06
2.00031e+06
2.0003e+06
2.0003e+06
2.00031e+06
2.00031e+06
2.0003e+06
2.00031e+06
2.00031e+06
2.00031e+06
2.00031e+06
2.0003e+06
101863
2.00031e+06
2.00031e+06
2.00031e+06
2.00031e+06
2.0003e+06
2.00031e+06
2.00031e+06
2.0003e+06
2.0003e+06
2.00031e+06
2.0003e+06
2.00031e+06
2.0003e+06
2.00031e+06
600777
640380
642037
569221
110085
581241
2.00031e+06
2.0003e+06
2.00031e+06
2.00031e+06
2.00002e+06
2.0003e+06
2.00029e+06
2.00005e+06
2.0002e+06
2.00022e+06
2.00014e+06
2.00004e+06
2.0003e+06
1.99989e+06
572651
1.99995e+06
2.0003e+06
95795.9
2.00031e+06
2.00031e+06
2.0003e+06
2.0003e+06
2.00031e+06
2.00003e+06
2.00031e+06
2.00031e+06
2.00029e+06
586686
2.00005e+06
127985
118365
636953
98576.1
135728
118674
154341
144573
2.0003e+06
2.00031e+06
2.00031e+06
74161.4
2.0003e+06
2.00031e+06
2.00031e+06
1.99348e+06
2.0003e+06
2.00031e+06
2.0003e+06
928732
711996
557154
2.00031e+06
2.0003e+06
2.0003e+06
2.00031e+06
2.0003e+06
626887
1.99986e+06
2.00031e+06
2.0003e+06
104246
720644
154003
642012
2.00013e+06
2.0003e+06
2.00031e+06
2.0003e+06
2.00031e+06
2.0003e+06
2.00031e+06
2.00031e+06
2.00031e+06
2.00031e+06
2.00031e+06
1.99092e+06
2.0003e+06
2.0003e+06
2.0003e+06
2.0003e+06
2.0003e+06
2.00019e+06
602886
2.0003e+06
2.00015e+06
2.00016e+06
1.99998e+06
2.00004e+06
2.0003e+06
2.0003e+06
2.0003e+06
2.0003e+06
2.00031e+06
2.0003e+06
2.00031e+06
2.0003e+06
2.0003e+06
2.0003e+06
2.0003e+06
550449
1.99981e+06
2.0003e+06
1.66546e+06
2.00031e+06
2.0003e+06
74282.4
77223.5
2.0003e+06
2.0003e+06
2.0003e+06
2.0003e+06
2.0003e+06
2.0003e+06
2.00031e+06
2.00031e+06
2.0003e+06
2.00031e+06
2.00031e+06
2.00019e+06
2.00031e+06
2.0003e+06
2.0003e+06
2.0003e+06
2.0003e+06
96513.4
618964
2.00031e+06
2.00031e+06
2.0003e+06
2.00029e+06
2.00031e+06
96339.3
2.00031e+06
2.00031e+06
2.00031e+06
78519.5
2.0003e+06
2.0003e+06
2.00031e+06
2.0003e+06
2.00031e+06
268521
536652
125821
158222
2.0003e+06
2.00031e+06
2.00031e+06
2.00031e+06
2.00031e+06
2.00031e+06
2.0003e+06
2.00031e+06
2.00031e+06
2.00031e+06
2.00031e+06
2.00031e+06
2.00031e+06
2.0003e+06
2.0003e+06
2.0003e+06
2.0003e+06
2.00031e+06
2.00022e+06
2.00021e+06
2.00014e+06
1.99991e+06
100616
2.00014e+06
2.00031e+06
645501
71192.6
622263
75727
84017.6
82336.6
623922
2.00031e+06
612027
2.0003e+06
2.00031e+06
2.0003e+06
2.00031e+06
2.00031e+06
2.0003e+06
1.99843e+06
2.0003e+06
107814
2.00028e+06
2.0003e+06
2.0003e+06
2.00029e+06
2.00025e+06
2.00027e+06
2.00031e+06
2.00031e+06
2.00029e+06
2.00031e+06
2.00031e+06
2.0003e+06
642084
110320
571487
2.0003e+06
2.00031e+06
2.0003e+06
2.00031e+06
2.0003e+06
2.0003e+06
2.00031e+06
2.0003e+06
2.0003e+06
2.00031e+06
2.00031e+06
2616.22
613820
2.00031e+06
2.00031e+06
2.0003e+06
2.0003e+06
2.00031e+06
2.00031e+06
2.00031e+06
2.00031e+06
2.00031e+06
2.0003e+06
2.0003e+06
2.00031e+06
2.0003e+06
2.0003e+06
2.0003e+06
2.0003e+06
2.0003e+06
2.0003e+06
2.00028e+06
2.0003e+06
2.0003e+06
2.00022e+06
2.0003e+06
2.0003e+06
2.0003e+06
52047.4
62318
2.00031e+06
2.0003e+06
617745
2e+06
2.0003e+06
1.8852e+06
2.0003e+06
99951.2
86938
2.00031e+06
2.0003e+06
2.00031e+06
100536
2.00031e+06
2.00031e+06
2.0003e+06
2.0003e+06
2.0003e+06
2.0003e+06
2.00031e+06
2.0003e+06
2.00031e+06
2.0003e+06
2.0003e+06
2.00028e+06
2.0003e+06
2.0003e+06
2.00031e+06
2.00031e+06
2.0003e+06
2.0003e+06
2.0003e+06
2.00031e+06
2.00031e+06
2.0003e+06
2.0003e+06
2.0003e+06
2.0003e+06
2.00031e+06
2.0003e+06
2.00031e+06
569901
2.00019e+06
66779.4
671233
2.00031e+06
2.00031e+06
2.0003e+06
2.0003e+06
2.0003e+06
2.0003e+06
2.00029e+06
67281.6
117945
94322.6
2.00025e+06
116512
2.00023e+06
2.00026e+06
2.00025e+06
2.00031e+06
2.0003e+06
2.00031e+06
2.0003e+06
2.00031e+06
573195
2.00031e+06
54511.9
2.0003e+06
2.00031e+06
47010.5
2.00031e+06
2.00031e+06
2.00031e+06
2.00031e+06
2.0003e+06
2.0003e+06
2.00031e+06
2.00031e+06
2.00031e+06
2.00031e+06
2.0003e+06
2.00031e+06
2.00031e+06
2.00031e+06
2.0003e+06
2.00031e+06
2.0003e+06
2.0003e+06
2.00031e+06
2.00031e+06
2.0003e+06
2.00031e+06
2.00031e+06
2.00031e+06
2494.35
309992
2.00031e+06
2.00031e+06
2.00025e+06
2.00027e+06
2.00027e+06
2.00026e+06
2.00027e+06
2.0003e+06
2.0003e+06
2.0003e+06
2.0003e+06
2.0003e+06
139007
2.0003e+06
2.0003e+06
2.00031e+06
2.0003e+06
2.00031e+06
2.0003e+06
2.00029e+06
2.00027e+06
2.00029e+06
2.00027e+06
2.00031e+06
2.00031e+06
2.00031e+06
2.0003e+06
2.00031e+06
2.0003e+06
2.00031e+06
2.00031e+06
2.0003e+06
2.00031e+06
2.00031e+06
2.0003e+06
95458.1
2.00031e+06
106435
111967
2.0003e+06
2.0003e+06
2.0003e+06
2.00031e+06
2.00031e+06
1972.06
6452.7
532570
2.0003e+06
2.0003e+06
2.0003e+06
2.0003e+06
107545
1.99993e+06
2.00029e+06
2.0003e+06
123716
2.00031e+06
2.0003e+06
2.00031e+06
2.0003e+06
2.0003e+06
2.00029e+06
2.00029e+06
2.00029e+06
689945
2.0003e+06
2.00029e+06
2.0003e+06
2.00031e+06
2.00029e+06
2.0003e+06
2.00031e+06
2.00031e+06
73061.5
2.0003e+06
2.00026e+06
2.00027e+06
2.0003e+06
103180
2.00031e+06
90727.4
2.00031e+06
94652.6
97253.1
2.0003e+06
112141
2.00031e+06
2.0003e+06
2.0003e+06
2.00031e+06
2.00031e+06
2.0003e+06
109720
2.0003e+06
648391
2.00032e+06
2.00032e+06
2.0003e+06
2.0003e+06
2.00031e+06
2.00031e+06
2.00031e+06
2.0003e+06
142924
2.0003e+06
2.00027e+06
2.00029e+06
2.00031e+06
2.00026e+06
2.0003e+06
106228
2.00027e+06
2.00023e+06
2.00024e+06
2.00028e+06
2.0003e+06
2.00031e+06
2.00031e+06
2.00031e+06
2.00031e+06
2.0003e+06
2.00031e+06
2.00031e+06
2.00031e+06
2.0003e+06
2.00031e+06
2.0003e+06
2.0003e+06
114138
2.00029e+06
111509
524828
645624
113673
634569
106049
110939
619269
636394
631918
110913
2.0003e+06
2.0003e+06
2.0003e+06
2.00031e+06
2.0003e+06
2.00031e+06
2.0003e+06
200713
2.0003e+06
2.0003e+06
2.0003e+06
2.0003e+06
2.0003e+06
2.00031e+06
2.0003e+06
2.0003e+06
2.0003e+06
2.0003e+06
2.0003e+06
2.00028e+06
2.00031e+06
2.0003e+06
2.0003e+06
2.00031e+06
2.0003e+06
2.00021e+06
2.00029e+06
2.0003e+06
2.00031e+06
2.00028e+06
628483
2.00031e+06
2.00031e+06
2.00031e+06
2.00031e+06
222241
2.00025e+06
1.99983e+06
2.0003e+06
2.0003e+06
2.0003e+06
2.00009e+06
2.00031e+06
2.00031e+06
2.00031e+06
113170
2.00031e+06
2.00028e+06
2.0003e+06
424071
2.0003e+06
2.0003e+06
2.0003e+06
1.55652e+06
2.0003e+06
2.00031e+06
193921
1.99951e+06
2.00015e+06
2.00031e+06
2.00013e+06
1.99978e+06
2.00022e+06
634314
2.00029e+06
2.00004e+06
2.00029e+06
325698
2.00031e+06
571997
2.00029e+06
2.0003e+06
2.0003e+06
2.00031e+06
708900
2.00029e+06
2.00029e+06
2.0003e+06
2.00005e+06
2.0003e+06
2.0003e+06
2.0003e+06
2.0003e+06
2.0003e+06
2.0003e+06
2.00031e+06
2.00031e+06
2.00032e+06
111321
618705
2.00031e+06
2.00031e+06
2.0003e+06
2.00031e+06
2.00032e+06
581377
2.00031e+06
590473
2.0003e+06
2.0003e+06
576737
574445
2.00031e+06
2.0003e+06
550874
2.0003e+06
2.0003e+06
2.0003e+06
1.99985e+06
2.00031e+06
2.0003e+06
2.00031e+06
645751
2.0003e+06
2.0003e+06
2.0003e+06
318907
2.0003e+06
2.00024e+06
2.00024e+06
72605.8
71243.2
2.0003e+06
54531.7
162520
2.00031e+06
631813
739817
2.0003e+06
590008
2.00031e+06
637264
527386
572402
2.0002e+06
92042.3
2.00028e+06
2.00024e+06
2.0003e+06
2.0003e+06
2.00028e+06
2.00024e+06
2.0003e+06
2.0003e+06
2.0003e+06
2.00031e+06
674927
2.00031e+06
2.00031e+06
2.00031e+06
2.0003e+06
2.00031e+06
2.0003e+06
2.00031e+06
2.0003e+06
2.0003e+06
2.00031e+06
2.0003e+06
2.0003e+06
2.0003e+06
2.0003e+06
2.00031e+06
2.00031e+06
2.0003e+06
2.00031e+06
2.0003e+06
2.0003e+06
2.0003e+06
2.0003e+06
2.0003e+06
2.0003e+06
2.00031e+06
2.00031e+06
2.00031e+06
104639
2.00031e+06
2.00031e+06
2.00025e+06
2.00024e+06
2.0003e+06
2.0003e+06
2.0003e+06
2.0003e+06
2.00031e+06
2.0003e+06
550425
644094
2.00031e+06
648036
2.00031e+06
2.0003e+06
2.00031e+06
2.00021e+06
2.00024e+06
78431.7
2.0003e+06
2.00031e+06
2.0003e+06
59341.5
2.00025e+06
2.00026e+06
588624
2.00015e+06
2.00029e+06
2.00031e+06
2.00031e+06
2.00031e+06
2.00031e+06
2.00031e+06
2.0003e+06
2.0003e+06
2.0003e+06
2.0003e+06
98685
2.00031e+06
2.00031e+06
2.0003e+06
2.0003e+06
2.0003e+06
2.0003e+06
2.0003e+06
2.0003e+06
2.00031e+06
2.00027e+06
2.0003e+06
2.0003e+06
163769
531549
326548
513377
90324.7
2.00031e+06
614614
622799
89583.8
2.00028e+06
2.0003e+06
2.00015e+06
2.00029e+06
2.0003e+06
2.00031e+06
2.00031e+06
589722
2.00031e+06
2.0003e+06
576702
2.0003e+06
2.00031e+06
2.00031e+06
2.00031e+06
2.00031e+06
2.00031e+06
2.00031e+06
2.0003e+06
2.00031e+06
2.00031e+06
2.0003e+06
2.0003e+06
615414
2.00031e+06
2.0003e+06
628368
2.0003e+06
2.0003e+06
648015
568382
2.0003e+06
568420
2.00031e+06
2.00031e+06
2.00031e+06
111490
2.0003e+06
2.0003e+06
85037.5
91386
604256
641214
2.0003e+06
-20825.3
2.00025e+06
723293
575303
2.00029e+06
2.00028e+06
2.00027e+06
728188
2.00028e+06
2.00029e+06
1.99713e+06
2.00031e+06
2.0003e+06
2.00031e+06
2.00031e+06
2.00031e+06
2.00031e+06
623950
2.00031e+06
2.00031e+06
99099
84640.1
295.351
6144.41
683864
513939
2.00031e+06
111291
2.00031e+06
610482
2.00031e+06
2.00028e+06
2.00029e+06
639519
2.0003e+06
2.00031e+06
2.00031e+06
2.00031e+06
2.00029e+06
2.00031e+06
728652
2.0003e+06
2.00031e+06
2.0003e+06
584643
612967
586842
569127
2.00032e+06
2.00032e+06
109970
2.0003e+06
118948
112300
2.00031e+06
2.0003e+06
2.00031e+06
2.00031e+06
2.00031e+06
2.0003e+06
2.0003e+06
2.0003e+06
2.0003e+06
2.00031e+06
2.0003e+06
2.0003e+06
2.0003e+06
2.00031e+06
2.0003e+06
2.00031e+06
2.0003e+06
2.0003e+06
2.00031e+06
2.00031e+06
2.00031e+06
2.00031e+06
2.00031e+06
2.00031e+06
97940.8
2.0003e+06
2.0003e+06
2.0003e+06
103523
609034
99738
2.0003e+06
2.0003e+06
2.0003e+06
2.0003e+06
2.00029e+06
2.00031e+06
2.00028e+06
2.00031e+06
2.0003e+06
2.0003e+06
2.00031e+06
2.0003e+06
615293
2.00031e+06
2.00031e+06
2.00031e+06
2.00031e+06
2.00031e+06
2.00031e+06
2.00031e+06
2.00031e+06
2.00031e+06
2.0003e+06
2.0003e+06
2.0003e+06
1.99504e+06
2.00025e+06
2.00026e+06
2.00029e+06
2.0003e+06
2.00031e+06
2.0003e+06
629205
2.0003e+06
2.00031e+06
2.0003e+06
598705
2.0003e+06
2.0003e+06
2.0003e+06
2.00031e+06
2.00031e+06
2.00031e+06
603410
572240
587996
2.00031e+06
626498
2.00031e+06
572063
110353
617947
109827
782161
54529.9
720668
1.9968e+06
1.99372e+06
1.99587e+06
2.0003e+06
2.0003e+06
2.00031e+06
2.00027e+06
2.0003e+06
2.00031e+06
2.0003e+06
2.0003e+06
2.00031e+06
2.00023e+06
2.00003e+06
2.0003e+06
2.0003e+06
1.99636e+06
2.0003e+06
105279
104368
70069.3
97454.3
93076.8
2.0003e+06
2.00031e+06
2.0003e+06
2.00031e+06
2.00031e+06
2.00031e+06
2.00031e+06
2.0003e+06
2.0003e+06
2.00026e+06
92352
612527
2.00031e+06
718720
2.0003e+06
2.00031e+06
2.0003e+06
2.00031e+06
2.00031e+06
2.0003e+06
2.0003e+06
2.00031e+06
2.00031e+06
2.00031e+06
2.0003e+06
721627
2.0003e+06
2.00029e+06
2.00028e+06
2.00028e+06
2.00031e+06
523903
114398
566036
2.0003e+06
699477
706553
2.00031e+06
2.00031e+06
2.00029e+06
2.00031e+06
2.0003e+06
2.0003e+06
2.0003e+06
2.00031e+06
2.0003e+06
2.0003e+06
2.00027e+06
2.00029e+06
2.0003e+06
2.0003e+06
2.0003e+06
2.00029e+06
2.00029e+06
63463.2
2.00029e+06
2.0003e+06
2.00031e+06
44566.7
2.00031e+06
2.0003e+06
2.00031e+06
102703
2.0003e+06
2.0003e+06
2.00031e+06
2.0003e+06
2.0003e+06
2.0003e+06
2.0003e+06
1.99539e+06
2.0003e+06
2.00031e+06
2.0003e+06
2.00031e+06
2.0003e+06
2.0003e+06
2.00018e+06
2.0003e+06
2.0003e+06
2.0003e+06
2.0003e+06
2.00031e+06
2.00031e+06
2.00031e+06
2.0003e+06
2.00031e+06
2.00031e+06
2.00031e+06
115436
2.00031e+06
2.00031e+06
87006.8
2.0002e+06
2.00021e+06
562797
115747
2.00022e+06
2.0003e+06
2.0003e+06
2.0003e+06
111601
2.0003e+06
2.0003e+06
2.0003e+06
2.0003e+06
2.00031e+06
112089
2.0003e+06
2.0003e+06
2.0003e+06
2.0003e+06
116341
2.0003e+06
2.0003e+06
2.0003e+06
2.00029e+06
2.00031e+06
113417
2.00031e+06
2.0003e+06
2.0003e+06
2.00031e+06
2.00031e+06
105873
675119
601958
2.0003e+06
108669
88887.3
2.0003e+06
2.0003e+06
2.0003e+06
2.0003e+06
2.0003e+06
2.0003e+06
2.0003e+06
2.00022e+06
2.00031e+06
2.00031e+06
2.00027e+06
2.00031e+06
2.0003e+06
623385
2.00022e+06
2.00029e+06
2.0003e+06
2.00031e+06
2.00021e+06
75404
2.0003e+06
2.00031e+06
2.0003e+06
2.0003e+06
2.0003e+06
3912.44
1368.9
2.0003e+06
2.0003e+06
5496.99
108294
2.0003e+06
2.0003e+06
2.0003e+06
2.0003e+06
2.00029e+06
2.0003e+06
2.0003e+06
117189
2.00031e+06
2.0003e+06
2.0003e+06
2.00031e+06
2.00031e+06
2.00031e+06
2.00029e+06
2.0003e+06
2.00031e+06
2.0003e+06
2.00027e+06
1.14302e+06
2.0003e+06
2.00024e+06
2.0003e+06
2.0003e+06
2.0003e+06
2.00031e+06
635944
2.0003e+06
2.0003e+06
2.0003e+06
2.0003e+06
2.0003e+06
2.0003e+06
2.0003e+06
2.00031e+06
2.00031e+06
2.00031e+06
2.00032e+06
2.0003e+06
2.00031e+06
2.00024e+06
2.00031e+06
2.00031e+06
2.00031e+06
2.00031e+06
2.00031e+06
647531
2.0003e+06
2.00031e+06
2.00008e+06
2.0003e+06
2.00031e+06
2.00031e+06
2.00024e+06
644777
2.00028e+06
2.00027e+06
111404
296532
646604
666666
572127
679636
686588
565443
2.0003e+06
572563
574753
207978
2.0003e+06
2.0003e+06
2.00029e+06
2.00029e+06
2.00029e+06
2.00029e+06
2.00031e+06
2.0003e+06
2.0003e+06
2.00031e+06
2.00031e+06
2.0003e+06
2.0003e+06
526794
559565
156177
109572
2.00031e+06
2.00031e+06
2.00031e+06
578381
173303
80597.8
75606.6
48153.6
71144.2
628014
616896
2.00031e+06
2.00031e+06
2.00031e+06
2.00031e+06
604364
636003
634592
622799
718288
2.0003e+06
2.00031e+06
2.00031e+06
2.00031e+06
2.0003e+06
2.0003e+06
2.00029e+06
2.0003e+06
2.00029e+06
1.52235e+06
2.00031e+06
327139
2.00029e+06
107243
649461
1.99819e+06
649023
714765
632131
611442
629156
589931
587220
619069
601248
626144
637204
607102
523423
570301
99202.4
2.0003e+06
2.0003e+06
184001
103588
622633
108732
65686.4
108481
2.0003e+06
2.0003e+06
2.0003e+06
579242
2.0003e+06
2.00031e+06
2.0003e+06
2.00028e+06
2.00031e+06
2.00031e+06
2.00031e+06
2.00031e+06
2.0003e+06
2.0003e+06
2.0003e+06
2.00032e+06
2.00031e+06
2.00031e+06
2.0003e+06
2.00031e+06
2.0003e+06
2.0003e+06
2.00031e+06
2.00031e+06
2.0003e+06
1.34832e+06
1.99817e+06
1.99898e+06
1.99986e+06
2.00025e+06
2.00031e+06
2.00031e+06
2.00031e+06
2.00031e+06
2.00031e+06
2.00031e+06
2.0003e+06
2.0003e+06
2.00031e+06
389303
2.00031e+06
1.24896e+06
2.0003e+06
27677.8
2.0003e+06
1.85555e+06
2.0003e+06
561140
245828
622939
379244
2.00028e+06
2.0003e+06
102897
2.0003e+06
2.00031e+06
2.00031e+06
630591
2.0003e+06
608450
2.0003e+06
783069
2.00028e+06
2.00028e+06
2.00031e+06
2.00027e+06
2.00031e+06
789312
2.0003e+06
122341
2.00031e+06
526566
2.00031e+06
2.00031e+06
2.0003e+06
2.0003e+06
521890
497031
101097
100815
110939
95472.3
619201
619198
2.00031e+06
607586
3100.05
575154
2.00031e+06
2.0003e+06
619310
2.00031e+06
2.00031e+06
2.00031e+06
618925
636990
617599
707958
2.0003e+06
2.0003e+06
2.0003e+06
2.0003e+06
2.0003e+06
612216
2.00007e+06
1.99938e+06
1.9993e+06
1.99941e+06
1.99905e+06
2.00031e+06
2.00031e+06
2.00031e+06
2.00019e+06
2.00027e+06
2.00027e+06
2.00031e+06
2.00031e+06
2.00031e+06
2.00031e+06
2.00031e+06
2.00031e+06
2.0003e+06
2.0003e+06
2.00031e+06
2.00031e+06
2.0003e+06
2.0003e+06
2.00031e+06
2.00031e+06
2.0003e+06
2.00031e+06
716704
2.00025e+06
2.00031e+06
2.00028e+06
2.00031e+06
2.00017e+06
2.00013e+06
1.99989e+06
2.00031e+06
7217.88
2.0003e+06
418.927
4988.46
2.00031e+06
2.0003e+06
2.0003e+06
2457.87
2.0003e+06
2.0003e+06
576922
2.00031e+06
578407
2.00012e+06
572848
576362
550838
557855
569772
2.00028e+06
2.0003e+06
2.0003e+06
2.0003e+06
2.0003e+06
109164
110073
105351
2.0003e+06
987.013
544856
2.0003e+06
2.0003e+06
2.0003e+06
2.0003e+06
2.0003e+06
2.0003e+06
2.00031e+06
2.00031e+06
2.0003e+06
2.00031e+06
2.0003e+06
2.0003e+06
2.00031e+06
2.0003e+06
2.0003e+06
2.0003e+06
2.00029e+06
2.0003e+06
2.00031e+06
2.0003e+06
1.99994e+06
2.00029e+06
2.00031e+06
2.00031e+06
2.00031e+06
2.00031e+06
2.0003e+06
2.00031e+06
580503
2.00027e+06
2.0003e+06
584947
1.99998e+06
2.00028e+06
2269.58
2.00019e+06
1.9999e+06
2.00028e+06
1.90571e+06
2.00027e+06
636448
80445.4
432666
2.0003e+06
2.00031e+06
2.00031e+06
2.0003e+06
2.00031e+06
106567
110452
2.00028e+06
2.00031e+06
112529
2.0003e+06
106828
112674
2.00031e+06
106578
2.0003e+06
2.00031e+06
2.00023e+06
2.0003e+06
2.0003e+06
2.0003e+06
2.0003e+06
2.00024e+06
2.00016e+06
2.0003e+06
2.0003e+06
2.00031e+06
2.0003e+06
2.0003e+06
2.0003e+06
2.00031e+06
2.0003e+06
2.0003e+06
2.0003e+06
2.00031e+06
2.00031e+06
2.0003e+06
2.00031e+06
2.00031e+06
2.00026e+06
2.00025e+06
2.00018e+06
2.00027e+06
2.00025e+06
2.0003e+06
2.0003e+06
2.00028e+06
2.00026e+06
2.00029e+06
2.00029e+06
2.00031e+06
2.00031e+06
2.00031e+06
2.00031e+06
2.00031e+06
2.00031e+06
2.00031e+06
2.00031e+06
2.0003e+06
2.0003e+06
2.0003e+06
2.00031e+06
2.0003e+06
2.00017e+06
2.00013e+06
2.00011e+06
2.0003e+06
2.00019e+06
2.00014e+06
617530
2.00031e+06
2.0003e+06
2.0003e+06
2.00031e+06
644435
2.0003e+06
621013
616760
2.0003e+06
2.0003e+06
593165
2.00029e+06
551829
612771
2.0003e+06
2.00026e+06
645739
640332
90768.2
83631.8
97701.6
84085.8
2.0003e+06
2.0003e+06
2.0003e+06
1.99995e+06
2.00027e+06
1.98104e+06
2.0003e+06
2.0003e+06
2.00031e+06
2.00031e+06
2.00029e+06
2.00029e+06
2.00029e+06
2.00028e+06
2.00027e+06
2.00028e+06
2.0003e+06
2.00031e+06
352729
2.00026e+06
2.00027e+06
2.0003e+06
2.00004e+06
2.0003e+06
2.0003e+06
2.0003e+06
2.0003e+06
2.00031e+06
2.0003e+06
2.0003e+06
2.0003e+06
107667
111903
111107
623622
112570
720705
601364
655273
1.79131e+06
1.99806e+06
789884
83272.8
62878.6
1.99394e+06
2.00031e+06
2.00031e+06
2.00031e+06
2.00027e+06
2.00025e+06
2.0003e+06
2.0003e+06
2.0003e+06
2.00031e+06
2.0003e+06
2.00031e+06
2.0003e+06
2.00031e+06
2.0003e+06
2.0003e+06
2.0003e+06
2.00031e+06
2.0003e+06
2.0002e+06
2.0003e+06
2.00003e+06
2.00031e+06
2.00031e+06
2.00031e+06
2.00031e+06
2.0003e+06
2.0002e+06
1.9902e+06
2.00029e+06
1.99856e+06
2.0003e+06
2.0003e+06
2.0003e+06
2.0003e+06
2.0003e+06
2.0003e+06
2.00031e+06
2.0003e+06
2.00031e+06
2.0003e+06
2.00031e+06
2.0003e+06
587109
2.00031e+06
2.0003e+06
2.0003e+06
2.0003e+06
2.0003e+06
2.0003e+06
2.0003e+06
2.00031e+06
2.00031e+06
2.00031e+06
600608
2.00031e+06
2.0003e+06
2.0003e+06
2.00031e+06
2.00031e+06
2.00031e+06
2.00031e+06
2.00031e+06
2.00031e+06
90501.5
87598.3
2.00031e+06
2.00031e+06
2.0003e+06
2.0003e+06
2.00028e+06
35.3949
2.00031e+06
2.00031e+06
2.00031e+06
2.0003e+06
2.0003e+06
2.0003e+06
2.00031e+06
2.00031e+06
2.0003e+06
2.0003e+06
2.00028e+06
163025
110353
113130
1.99412e+06
1.98868e+06
2.0003e+06
2.00017e+06
1.99759e+06
575847
584184
2.00031e+06
625671
636938
98354.9
100058
2.00031e+06
102943
94291.3
105292
108689
102662
111784
127382
640051
2.0003e+06
637134
180901
2.00031e+06
2.00031e+06
2.0003e+06
720606
2.0003e+06
2.00031e+06
2.0003e+06
607600
618587
2.00004e+06
612677
561217
618049
2.0003e+06
112301
108921
538905
2.0003e+06
2.0003e+06
2.00031e+06
91070.5
512209
2.00031e+06
2.00031e+06
2.00031e+06
2.00031e+06
2.0003e+06
2.00031e+06
2.0003e+06
2.00031e+06
2.00031e+06
2.0003e+06
2.00031e+06
2.0003e+06
2.0003e+06
2.00028e+06
2.00019e+06
2.0003e+06
2.00029e+06
2.00029e+06
2.00031e+06
2.00029e+06
2.00031e+06
635199
2.00031e+06
75267.9
2.00031e+06
66132.4
2.00031e+06
67875.9
63682.5
69657.6
2.00031e+06
2.00031e+06
2.00031e+06
2.00031e+06
2.00031e+06
2.00031e+06
2.00031e+06
2.00031e+06
2.0003e+06
2.00031e+06
2.00032e+06
2.00032e+06
2.0003e+06
2.00031e+06
2.0003e+06
2.00031e+06
2.0003e+06
2.0003e+06
2.0003e+06
2.0003e+06
2.0003e+06
2.00031e+06
2.0003e+06
2.00031e+06
2.00026e+06
2.00024e+06
2.00015e+06
2.00031e+06
2.0003e+06
2.00031e+06
2.00031e+06
2.00031e+06
71190.1
2.00028e+06
2.00032e+06
2.00025e+06
1.99992e+06
2.00026e+06
2.00025e+06
2.0003e+06
2.0003e+06
2.00031e+06
2.0003e+06
2.0003e+06
2.0003e+06
2.00024e+06
2.00031e+06
2.00031e+06
2.00031e+06
2.00026e+06
2.00027e+06
58080.3
40887.7
104022
72208.9
74653.5
101783
2.00031e+06
2.00031e+06
308938
596961
-17343.2
241568
2.00031e+06
2.00031e+06
2.00031e+06
2.00031e+06
2.00031e+06
2.00017e+06
2.0003e+06
2.00031e+06
2.0003e+06
2.0003e+06
2.00031e+06
2.00031e+06
2.00031e+06
2.00031e+06
2.00031e+06
1.99068e+06
1.99854e+06
1.99901e+06
1.98789e+06
715402
1.99932e+06
620729
2.00013e+06
1.99834e+06
2.0003e+06
2.00029e+06
2.00031e+06
2.00027e+06
2.00031e+06
2.0003e+06
2.00031e+06
2.00013e+06
2.00031e+06
2.00031e+06
2.00026e+06
2.00031e+06
2.00031e+06
2.0003e+06
2.0003e+06
2.00031e+06
2.0003e+06
2.0003e+06
2.0003e+06
2.00031e+06
2.00031e+06
2.0003e+06
2.0003e+06
2.0003e+06
2.0003e+06
2.00031e+06
2.00031e+06
2.0003e+06
2.0003e+06
2.0003e+06
2.00031e+06
2.00029e+06
2.00031e+06
2.0003e+06
2.0003e+06
2.00031e+06
2.00024e+06
2.00019e+06
2.00031e+06
2.00028e+06
2.00031e+06
596450
2.00031e+06
75345.4
2.00031e+06
2.00029e+06
2.00031e+06
2.00031e+06
2.00029e+06
2.00031e+06
2.00026e+06
2.0003e+06
2.00029e+06
2.0003e+06
2.0003e+06
2.00032e+06
2.0003e+06
2.0003e+06
2.0003e+06
2.0003e+06
2.0003e+06
2.0003e+06
2.0003e+06
2.00014e+06
60430.5
2.0003e+06
2.0003e+06
2.0003e+06
2.0003e+06
2.00031e+06
2.00031e+06
2.0003e+06
2.0003e+06
566515
110183
2.0003e+06
2.0003e+06
2.0003e+06
2.0003e+06
2.0003e+06
2.0003e+06
2.00011e+06
2.00019e+06
2.0003e+06
2.0003e+06
74051.7
50188.3
2.00027e+06
2.0003e+06
2.0003e+06
2.0003e+06
2.00031e+06
2.0003e+06
2.00025e+06
2.0003e+06
2.00029e+06
2.00028e+06
2.0003e+06
2.00029e+06
2.0003e+06
2.00029e+06
617947
2.00031e+06
2.00031e+06
2.00032e+06
2.00031e+06
2.00031e+06
2.0003e+06
2.0003e+06
2.0003e+06
2.0003e+06
2.0003e+06
2.0003e+06
2.00031e+06
2.00031e+06
2.0003e+06
2.0003e+06
2.00026e+06
2.00028e+06
2.0003e+06
2.0003e+06
2.0003e+06
2.0003e+06
2.00025e+06
2.0001e+06
2.00028e+06
2.00026e+06
577177
589012
2.0003e+06
2.0003e+06
2.0003e+06
48050.7
2.0003e+06
2.0003e+06
2.0003e+06
2.00031e+06
2.0003e+06
2.0003e+06
2.0003e+06
2.0003e+06
2.0003e+06
2.0003e+06
2.0003e+06
2.00031e+06
2.0003e+06
2.00031e+06
2.00026e+06
2.00022e+06
2.0003e+06
2.00028e+06
2.00028e+06
2.00027e+06
2.00026e+06
2.00027e+06
2.0003e+06
2.0003e+06
2.0003e+06
2.00031e+06
2.00031e+06
2.0003e+06
2.0003e+06
2.00029e+06
2.00031e+06
2.00031e+06
2.00031e+06
2.0003e+06
2.00024e+06
2.00014e+06
2.00025e+06
2.0002e+06
2.00012e+06
2.00022e+06
2.00031e+06
2.0003e+06
2.0003e+06
2.0003e+06
2.00023e+06
2.0003e+06
2.0003e+06
2.0003e+06
2.0003e+06
2.0003e+06
2.0003e+06
2.0003e+06
2.0003e+06
2.0003e+06
2.0003e+06
2.0003e+06
2.0003e+06
2.0003e+06
2.0003e+06
2.0003e+06
2.0003e+06
2.00031e+06
53737.3
2.00026e+06
1.99451e+06
2.00012e+06
2.00013e+06
1.9997e+06
2.0003e+06
1.99991e+06
577387
609099
2.0003e+06
587385
73789.3
2.0003e+06
2.0003e+06
2.0003e+06
2.0003e+06
2.0003e+06
2.0003e+06
2.00031e+06
2.00031e+06
2.00031e+06
2.00031e+06
1.99995e+06
2.0003e+06
2.0003e+06
2.00031e+06
2.00031e+06
2.00031e+06
2.0003e+06
2.00031e+06
2.0003e+06
1.99896e+06
2.0003e+06
2.0003e+06
2.0003e+06
625373
49114.3
2.0003e+06
2.00029e+06
2.0003e+06
2.0003e+06
2.0003e+06
2.0003e+06
2.0003e+06
2.0003e+06
2.00028e+06
2.00031e+06
2.00031e+06
2.00031e+06
157339
72436.8
2.00031e+06
2.00031e+06
2.0003e+06
2.00031e+06
2.00031e+06
2.0003e+06
2.0003e+06
2.00031e+06
2.0003e+06
2.00031e+06
2.0003e+06
2.00031e+06
2.00031e+06
2.0003e+06
2.00031e+06
2.00031e+06
2.00031e+06
2.0003e+06
2.00031e+06
2.00031e+06
2.00031e+06
2.0003e+06
2.0003e+06
2.00031e+06
2.00031e+06
2.0003e+06
2.00031e+06
42305.9
552970
112670
108768
2.0003e+06
2.0003e+06
2.00031e+06
2.00031e+06
2.00028e+06
2.0003e+06
2.00031e+06
2.0003e+06
2.00031e+06
2.00031e+06
2.00031e+06
2.0003e+06
2.0003e+06
2.0003e+06
2.0003e+06
2.0003e+06
2.0003e+06
2.0003e+06
2.0003e+06
2.0003e+06
2.0003e+06
99924.6
2.0003e+06
2.0003e+06
2.00031e+06
2.00031e+06
2.00031e+06
2.0003e+06
2.00031e+06
2.0003e+06
2.0003e+06
2.00031e+06
2.0003e+06
2.0003e+06
2.0003e+06
2.0003e+06
2.0003e+06
2.00031e+06
71068.3
2.0003e+06
88200.8
85176.6
93090
2.0003e+06
62326.3
148858
38692.4
2.00031e+06
2.00026e+06
2.00031e+06
2.00031e+06
2.00031e+06
2.00031e+06
2.00026e+06
628736
679118
2.00015e+06
2.0003e+06
2.00028e+06
573573
722265
721967
2.0003e+06
2.00031e+06
2.0003e+06
18820.4
50610.2
94241.8
578811
622894
2.0002e+06
2.00017e+06
2.00021e+06
2.00021e+06
2.00017e+06
2.00032e+06
2.00031e+06
2.00029e+06
2.00031e+06
2.0003e+06
2.0003e+06
2.00031e+06
2.00031e+06
2.00031e+06
2.00031e+06
2.0003e+06
2.00031e+06
2.00031e+06
2.0003e+06
531486
109975
2.00026e+06
2.0003e+06
2.0003e+06
2.0003e+06
2.00031e+06
2.00029e+06
2.0003e+06
105414
75829.5
118673
2.00031e+06
93198.8
2.00031e+06
2.00031e+06
2.00031e+06
2.00029e+06
2.0003e+06
2.00031e+06
2.00022e+06
1.99992e+06
646820
654741
2.0003e+06
2.0003e+06
2.0003e+06
2.00031e+06
2.0003e+06
677510
2.00031e+06
2.00029e+06
568303
585434
580488
2.00029e+06
2.00029e+06
277827
112760
1.99965e+06
1.99988e+06
2.00031e+06
2.00031e+06
2.00031e+06
2.0003e+06
2.00029e+06
2.0003e+06
2.0003e+06
2.00031e+06
2.0003e+06
2.00031e+06
2.00028e+06
567322
2.00031e+06
617013
565614
2.00031e+06
2.0003e+06
2.00031e+06
2.00031e+06
625451
2.00029e+06
2.00029e+06
2.00029e+06
2.00029e+06
2.0003e+06
2.0003e+06
2.00029e+06
2.00029e+06
2.0003e+06
2.0003e+06
2.0003e+06
563640
2.00028e+06
2.00028e+06
2.0003e+06
2.0003e+06
2.0003e+06
2.0003e+06
2.0003e+06
2.0003e+06
2.0003e+06
556506
560671
556501
576623
631421
2.0003e+06
628286
2.0003e+06
2.00031e+06
2.00031e+06
2.00031e+06
629873
2.00031e+06
2.0003e+06
681029
613378
648223
2.0003e+06
2.0003e+06
2.0003e+06
2.0003e+06
2.0003e+06
2.0003e+06
787198
753769
724272
2.00007e+06
565229
2.0003e+06
2.0003e+06
2.00011e+06
598777
2.0003e+06
1.99985e+06
1.99942e+06
2.00031e+06
1.9994e+06
2.00005e+06
2.00031e+06
615936
2.00031e+06
2.0003e+06
1.99985e+06
1.99993e+06
2.00031e+06
721324
2.0003e+06
2.00025e+06
2.0003e+06
2.0003e+06
2.00024e+06
2.00031e+06
2.00031e+06
2.0003e+06
2.00031e+06
2.0003e+06
2.0003e+06
2.00031e+06
107657
2.00031e+06
2.00031e+06
2.0003e+06
107174
102707
110431
2.0003e+06
95120.9
2.00031e+06
2.0003e+06
2.0003e+06
2.0003e+06
2.0003e+06
2.00031e+06
2.00029e+06
2.00031e+06
2.00031e+06
2.0003e+06
2.00031e+06
2.00032e+06
595388
651339
110696
2.0003e+06
2.0003e+06
2.0003e+06
2.00031e+06
469860
93627.7
2.0003e+06
2.00031e+06
53600
2.0003e+06
706635
2.0003e+06
2.0003e+06
2.0003e+06
2.0003e+06
51401.4
2.0003e+06
2.00031e+06
2.00028e+06
641925
645695
2.00031e+06
572606
2.00031e+06
2.0003e+06
2.0003e+06
592916
2.0003e+06
2.0003e+06
2.0003e+06
2.0003e+06
2.00031e+06