/*--------------------------------*- C++ -*----------------------------------*\
| =========                 |                                                 |
| \\      /  F ield         | OpenFOAM: The Open Source CFD Toolbox           |
|  \\    /   O peration     | Version:  v2006                                 |
|   \\  /    A nd           | Website:  www.openfoam.com                      |
|    \\/     M anipulation  |                                                 |
\*---------------------------------------------------------------------------*/
FoamFile
{
    version     2.0;
    format      ascii;
    class       surfaceScalarField;
    location    "0.02";
    object      phi;
}
// * * * * * * * * * * * * * * * * * * * * * * * * * * * * * * * * * * * * * //

dimensions      [0 3 -1 0 0 0 0];
oriented        oriented;


internalField   nonuniform List<scalar> 
5747
(
6.88461e-08
-3.92306e-08
-2.96155e-08
-1.30427e-08
-9.38353e-10
1.39811e-08
9.3445e-08
4.20986e-07
-1.9634e-07
-3.62295e-07
3.2673e-08
2.52154e-08
-2.66581e-08
-5.51786e-08
2.5729e-08
5.61076e-08
-9.09259e-12
8.05679e-09
2.06198e-10
-8.25389e-09
-1.39229e-09
-3.8634e-11
1.43093e-09
-1.39229e-09
4.58276e-08
-3.46659e-08
9.85101e-09
-2.10127e-08
6.10567e-11
-1.42568e-10
8.15116e-11
-9.76127e-11
-1.6042e-09
4.28003e-10
1.27381e-09
3.06723e-08
-1.07829e-08
-1.98894e-08
-2.81201e-08
2.42371e-09
2.56964e-08
-3.02325e-10
3.02325e-10
-4.93277e-10
-1.79522e-10
6.72799e-10
-2.20074e-09
-7.38914e-10
1.90711e-10
2.74895e-09
-7.74198e-10
-1.63814e-09
2.116e-10
-5.95444e-09
5.21553e-09
-1.52316e-09
-5.20547e-09
-7.09615e-08
1.61941e-08
5.47674e-08
1.05244e-08
-5.76705e-08
5.80649e-08
-1.09188e-08
-3.30598e-10
2.32985e-10
-6.10567e-11
2.26905e-11
3.83663e-11
-3.8331e-09
6.38356e-09
-7.50368e-09
4.95321e-09
-3.21171e-07
-4.09531e-08
3.62124e-07
-5.04276e-09
4.38771e-11
4.99888e-09
6.4039e-09
-5.868e-09
3.62703e-08
-3.68062e-08
-7.77597e-10
4.01236e-08
-3.9346e-08
3.35045e-08
-5.95413e-09
-2.75503e-08
8.75493e-11
-2.16222e-09
2.07467e-09
1.271e-09
-2.46141e-08
2.33431e-08
-3.74968e-09
2.22392e-09
1.52576e-09
6.4041e-09
-1.23842e-09
-5.16567e-09
-1.26612e-08
1.21505e-08
1.9124e-08
-1.86133e-08
-4.27416e-09
3.91457e-09
3.53791e-10
5.80804e-12
2.35314e-08
4.02099e-10
-2.39335e-08
1.21003e-08
-1.21003e-08
2.88323e-08
-5.30086e-09
3.04032e-07
-3.04032e-07
-3.13686e-07
3.13686e-07
-7.44392e-09
3.44093e-08
-2.69654e-08
-4.24676e-08
2.68846e-07
-2.26378e-07
-5.97001e-10
-4.90315e-08
4.96285e-08
-1.23879e-08
-2.56997e-07
2.69384e-07
-5.41339e-10
-1.93915e-08
1.99328e-08
1.77836e-09
-1.77836e-09
3.27698e-06
4.08747e-08
-3.31786e-06
7.71923e-09
-1.29696e-08
-8.60517e-09
1.38555e-08
3.70571e-08
-5.74083e-08
6.05551e-08
-4.02039e-08
-8.99944e-07
8.99944e-07
1.04751e-06
-2.42517e-07
1.26959e-07
-9.31956e-07
-3.47262e-07
6.83453e-07
-3.36191e-07
-2.20166e-09
2.23765e-08
-2.01748e-08
-1.21009e-07
3.08169e-06
-2.96068e-06
-3.65718e-09
-1.86112e-08
2.22684e-08
-9.79019e-10
2.25021e-08
1.34561e-09
-2.28687e-08
3.94827e-08
-5.11791e-08
1.16964e-08
1.89301e-08
4.72169e-10
-1.94023e-08
7.65545e-09
-4.08187e-08
3.31633e-08
-1.68226e-07
-6.12273e-08
9.56473e-08
1.33806e-07
-7.41476e-08
3.88603e-07
-3.14456e-07
5.78903e-09
-2.13507e-08
2.32171e-08
1.344e-07
2.26223e-07
-3.60624e-07
-2.94109e-09
1.79964e-08
-1.50553e-08
2.33997e-08
-2.24498e-08
-3.89091e-09
-1.64377e-08
1.06969e-08
1.85968e-08
-1.28561e-08
2.77769e-08
-4.37727e-09
1.87689e-10
-1.87689e-10
4.79968e-09
-4.79968e-09
1.79256e-09
-3.42257e-09
1.63001e-09
-2.23311e-08
-2.33105e-06
2.33105e-06
-1.75958e-06
-2.22636e-06
2.0027e-06
1.98323e-06
-7.10137e-08
-5.65611e-08
2.02261e-08
1.07349e-07
3.09289e-09
2.4684e-08
-3.79334e-06
3.76628e-06
2.70598e-08
-3.42503e-07
3.7859e-07
-3.60871e-08
-3.71053e-08
7.47653e-08
-3.76601e-08
1.28879e-09
-1.28879e-09
2.13511e-08
2.6208e-08
-4.75592e-08
-4.15717e-09
-3.20893e-12
-1.13787e-10
1.49804e-07
-9.41015e-08
1.20335e-06
-1.25906e-06
2.63783e-08
-2.80738e-08
2.30466e-08
2.4865e-08
2.41938e-08
-2.28507e-08
-2.73062e-07
9.5473e-08
2.23518e-07
-4.59291e-08
1.04253e-07
-6.81009e-08
-3.61517e-08
5.12433e-08
9.26112e-10
-3.46689e-10
-2.03298e-08
1.97504e-08
1.80552e-09
2.27279e-08
-2.45334e-08
-2.91744e-08
3.01005e-08
-4.2925e-08
4.30424e-09
3.86208e-08
-2.87072e-08
2.86427e-09
2.58429e-08
6.49883e-09
-6.95378e-09
4.54943e-10
6.1488e-09
3.50034e-10
6.1488e-09
-3.47019e-08
3.45594e-08
1.41348e-09
9.73255e-10
-9.73254e-10
8.70022e-07
1.45201e-07
-2.56042e-07
-7.5918e-07
-2.22256e-08
-9.36249e-09
3.15881e-08
1.94481e-08
-1.86876e-08
-7.60518e-10
5.47014e-09
3.64137e-10
-5.83428e-09
-1.14327e-08
1.20265e-09
1.023e-08
1.88884e-08
-5.39527e-10
1.09927e-09
3.37386e-10
-4.97021e-11
6.98429e-09
-7.27197e-09
-1.41819e-08
1.67615e-10
1.43516e-08
1.58959e-08
1.39928e-10
-1.60358e-08
-2.05582e-09
2.11715e-09
-6.13333e-11
-1.97392e-09
1.89791e-09
7.60072e-11
1.48212e-08
-1.46184e-08
-2.02808e-10
-2.17868e-09
-1.30776e-08
1.52563e-08
6.39313e-10
7.084e-10
-1.46495e-08
-6.77258e-10
-2.49819e-07
-6.97312e-08
4.48199e-08
2.74731e-07
-2.18227e-07
4.82619e-08
-9.01519e-08
2.60117e-07
-1.73374e-07
-4.48532e-08
-3.84137e-07
3.84137e-07
-1.01788e-07
-3.13473e-07
3.22968e-07
9.22927e-08
-1.19945e-09
-3.82937e-07
1.80612e-09
-2.45524e-09
-1.77012e-09
2.41924e-09
1.15837e-08
-2.13426e-09
-1.22825e-08
2.83308e-09
2.3847e-08
-2.31386e-08
1.31591e-12
7.36313e-10
-7.37629e-10
-4.81109e-08
-2.26153e-08
2.62429e-08
4.44833e-08
2.79859e-09
-7.77067e-11
-2.69819e-09
-2.26984e-11
-1.76804e-09
-1.19039e-08
1.24643e-08
1.20758e-09
3.20093e-08
-8.01202e-08
-3.61365e-09
-1.47387e-08
1.83524e-08
-4.78515e-09
3.00038e-08
-1.89596e-08
1.89596e-08
8.66431e-08
-3.18572e-08
-5.47859e-08
1.01102e-10
7.06297e-09
-7.02156e-09
-1.42513e-10
-4.4903e-08
-7.08448e-08
1.15748e-07
4.41737e-08
-2.60947e-07
-6.58457e-08
2.82619e-07
-3.86732e-08
8.04133e-08
-6.99526e-09
-2.15813e-09
9.15339e-09
-2.27244e-07
1.27476e-06
-9.08258e-09
1.68018e-08
4.94131e-09
-5.52443e-09
1.16354e-08
-1.10523e-08
-1.35564e-08
3.58414e-08
-3.65639e-08
1.42789e-08
-2.34002e-09
7.28133e-09
1.80743e-09
-9.34601e-08
-1.39255e-11
-1.14718e-11
2.53974e-11
5.22984e-08
-5.35451e-08
-3.93121e-08
4.05588e-08
3.43766e-08
-5.81717e-08
2.37951e-08
3.92384e-07
-3.4821e-07
-9.3308e-08
7.62401e-08
-6.88913e-07
3.09453e-07
3.0322e-07
-3.48991e-07
4.25232e-07
3.74042e-07
-4.23239e-08
-3.31718e-07
-7.00541e-07
1.12583e-06
-4.25285e-07
9.20122e-07
3.89794e-07
-1.30992e-06
2.31209e-07
-6.24908e-07
6.65711e-07
-1.42956e-06
3.82463e-07
1.39313e-06
-3.46033e-07
5.62905e-09
-5.3519e-09
-2.77144e-10
2.30654e-08
7.81567e-10
2.31169e-08
5.87763e-10
1.99833e-06
-4.65733e-07
-1.53259e-06
-4.41218e-08
4.11231e-08
-4.50658e-08
4.80645e-08
-2.01603e-09
2.01603e-09
4.04699e-08
-6.66294e-08
2.61596e-08
-6.18879e-08
-1.27725e-07
1.89613e-07
-1.42835e-08
-9.59841e-09
2.38819e-08
4.40619e-11
-2.6517e-11
-1.75449e-11
3.20455e-08
-3.19801e-08
-6.539e-11
4.96512e-08
2.7666e-07
-3.26312e-07
-2.00204e-07
-3.88603e-07
2.78978e-07
3.09829e-07
2.7759e-07
-6.87336e-08
4.66407e-08
-2.55496e-07
-4.56159e-10
2.36943e-08
-2.32382e-08
-4.18544e-11
1.23164e-10
3.83326e-09
4.086e-08
-5.26432e-08
1.17832e-08
-3.35933e-09
6.81597e-09
-3.45664e-09
2.19635e-09
-2.34302e-08
2.12339e-08
-2.42335e-07
1.92123e-07
5.02119e-08
-1.07322e-07
8.13178e-08
2.60042e-08
2.39284e-09
1.36321e-09
-1.94862e-09
1.55745e-08
3.21372e-10
-5.19347e-07
-7.78756e-07
1.2981e-06
-4.02493e-07
3.90545e-07
1.1948e-08
-1.75958e-06
-3.21171e-07
7.15109e-08
-2.56833e-08
-3.44468e-08
8.0146e-10
3.3936e-08
-2.90635e-10
-1.00129e-09
-3.34455e-08
-1.04154e-08
-7.33011e-09
1.77455e-08
8.57752e-12
2.52167e-11
-9.73207e-11
6.35266e-11
-2.31459e-08
3.89266e-08
-3.86374e-08
2.28566e-08
3.87372e-08
6.32809e-09
-4.50653e-08
2.67746e-08
-2.35927e-08
-3.18185e-09
-1.0202e-08
5.55002e-09
4.65193e-09
4.25446e-08
6.91177e-10
-4.32357e-08
-4.83196e-09
9.98864e-10
-2.21461e-07
-7.85891e-08
2.38162e-07
3.88799e-08
1.65211e-09
-4.0532e-08
-1.11536e-09
-2.00452e-11
1.13541e-09
-1.10527e-08
-1.30624e-10
1.11834e-08
3.49675e-08
-1.48299e-09
-3.5513e-08
2.02851e-09
3.37064e-08
1.89732e-09
-1.40664e-09
-3.41971e-08
-3.56969e-09
-1.52359e-08
1.88056e-08
4.27031e-08
2.01935e-07
-2.44638e-07
-1.90883e-08
1.94373e-08
-3.49004e-10
5.92977e-09
-4.05956e-08
-1.57314e-08
1.80915e-08
6.72562e-08
4.25467e-09
-1.88056e-08
1.39611e-08
4.84449e-09
-2.09451e-09
1.54966e-09
-9.87052e-09
1.62357e-08
-1.83302e-08
8.9229e-09
-2.04719e-08
1.1549e-08
1.78285e-08
1.53433e-08
-1.69698e-10
-1.51736e-08
-1.46151e-08
1.90374e-10
1.44247e-08
8.59688e-11
-3.76187e-10
-1.43249e-08
1.38509e-09
-8.56058e-11
-1.29949e-09
1.38509e-09
-5.397e-09
2.32255e-08
7.23345e-09
-6.06648e-09
-5.99894e-09
5.79107e-07
-5.79106e-07
-8.91644e-08
-6.04036e-08
7.76029e-08
7.1965e-08
4.71004e-08
-4.71274e-08
1.27159e-08
-1.26889e-08
-9.38899e-08
2.40848e-07
-1.46958e-07
2.92191e-08
-5.71946e-08
2.79755e-08
-1.78542e-08
9.58895e-10
-5.47176e-10
1.74425e-08
2.58375e-06
9.31024e-08
-6.78523e-07
-6.44446e-07
-2.13746e-06
2.31617e-06
5.63386e-10
1.92452e-08
-6.87194e-10
-1.91214e-08
1.21475e-08
-1.24249e-08
2.77361e-10
-3.9716e-10
1.23635e-08
-1.19663e-08
1.64015e-10
-8.98956e-11
-1.15111e-08
1.1437e-08
-1.71569e-08
-6.97367e-10
4.4364e-09
-4.27064e-09
-4.92416e-08
4.90758e-08
-3.12551e-08
-2.54507e-08
5.67058e-08
3.22461e-11
-1.73063e-09
6.02417e-11
4.82141e-09
-4.32807e-08
3.84592e-08
-1.45638e-09
2.2844e-09
-1.86395e-09
-4.20452e-10
1.2102e-08
-1.2102e-08
2.91993e-08
-2.8112e-08
-1.08734e-09
-7.63967e-10
1.25611e-09
3.18018e-08
9.38368e-09
-3.32383e-08
-7.94721e-09
-1.17822e-08
-1.95969e-08
3.13791e-08
-3.40663e-08
1.09204e-08
9.76506e-07
-9.71333e-08
-8.66684e-07
-1.26885e-08
-2.44148e-07
2.58145e-07
-1.39965e-08
-5.88314e-08
4.2001e-08
1.68303e-08
5.14285e-10
1.0048e-10
1.17377e-08
2.82754e-10
-1.21209e-08
-3.67968e-08
3.71423e-08
1.73677e-08
-1.77133e-08
-3.21465e-08
-2.12092e-09
3.10649e-08
3.20256e-09
-1.07179e-07
-3.49864e-06
3.60582e-06
3.94315e-08
9.31161e-09
-8.46523e-09
-4.02779e-08
2.13088e-09
-2.13088e-09
3.00658e-09
-4.22654e-10
-2.58392e-09
-1.28202e-06
-5.5441e-07
1.83643e-06
-3.92782e-08
2.57218e-08
-1.53431e-08
2.0357e-08
-5.0139e-09
1.03611e-09
-6.83976e-10
-3.5213e-10
1.92662e-08
-1.31783e-09
9.81749e-10
4.04443e-08
2.09435e-08
9.33758e-08
-1.1034e-06
-3.58048e-07
1.36807e-06
7.12712e-07
-2.38402e-07
2.50535e-07
-7.24845e-07
-2.43622e-06
1.91688e-06
2.07706e-07
-8.32614e-07
8.54529e-11
4.69189e-11
-2.60446e-09
2.47209e-09
7.18263e-08
-3.47691e-08
-5.27313e-10
-1.09053e-08
-5.12639e-09
4.9136e-09
-3.14522e-10
-1.86349e-09
1.70086e-08
-1.51451e-08
1.2396e-08
-1.30568e-08
1.7778e-08
-6.18998e-08
1.90649e-09
1.04895e-08
5.47014e-09
-8.75783e-10
-2.44454e-09
4.09026e-08
8.30592e-09
-1.10782e-08
-3.81303e-08
3.14954e-09
-3.14954e-09
-1.47602e-09
1.61991e-08
-1.4723e-08
-6.55689e-10
1.1012e-08
1.0038e-09
-1.13601e-08
6.81542e-09
-7.47111e-09
-5.90909e-10
1.16029e-08
-4.03449e-10
6.62796e-09
2.98722e-08
-2.84544e-08
-3.28809e-08
4.21997e-08
-3.50021e-08
-3.05969e-08
-4.12164e-08
2.57417e-08
4.60715e-08
-3.36105e-08
-4.78849e-08
8.14954e-08
-9.07156e-08
-2.00097e-08
1.10725e-07
-9.43057e-07
3.59967e-08
-7.46599e-08
3.86632e-08
1.18162e-08
2.25746e-09
-1.40736e-08
3.13286e-07
-3.13287e-07
9.20782e-07
1.55579e-06
-1.42435e-06
-1.05222e-06
3.70598e-07
3.44435e-09
-1.13765e-06
2.05843e-06
1.81402e-06
-5.21145e-07
2.85737e-07
-1.57861e-06
6.76371e-07
3.09278e-07
7.27278e-08
-3.82006e-07
-1.60348e-08
-6.43596e-09
7.12764e-09
-3.1759e-07
3.1759e-07
2.66404e-08
-1.62714e-08
1.76731e-08
-2.80421e-08
-2.06484e-08
5.13159e-09
-3.55014e-09
1.9067e-08
6.50606e-09
-4.18849e-08
3.53789e-08
9.66063e-09
-5.75422e-08
4.78816e-08
-1.01651e-08
-4.20149e-08
5.218e-08
1.13577e-08
-1.05119e-08
4.72069e-08
-4.80526e-08
1.04522e-07
2.20824e-08
-1.26604e-07
1.36158e-08
2.27321e-07
-5.74583e-07
3.79367e-08
7.50145e-09
-4.54381e-08
2.27261e-08
2.43743e-08
6.17445e-10
2.55366e-08
-2.6154e-08
-4.44993e-08
-5.56099e-09
5.00603e-08
5.52987e-08
-5.1197e-08
4.18753e-08
-4.5977e-08
-1.07283e-08
-3.00905e-08
-9.42611e-09
4.44723e-09
1.02064e-08
-5.22753e-09
-2.40467e-08
1.95495e-08
4.4972e-09
5.62905e-09
6.91868e-08
2.47051e-08
-2.20657e-08
4.7296e-08
2.05125e-09
-4.93473e-08
-2.1298e-09
2.1298e-09
1.82715e-09
2.74174e-07
-2.76001e-07
2.04556e-07
2.5754e-07
-3.16853e-07
-5.34302e-09
3.22196e-07
1.61693e-08
-1.46118e-08
-1.5575e-09
3.99541e-10
-3.99541e-10
-1.83622e-08
3.29842e-08
-1.4622e-08
-2.07338e-08
-4.12855e-10
2.11466e-08
2.10043e-08
-5.20591e-10
7.48854e-10
-2.12326e-08
-1.07355e-10
5.73806e-10
-3.38887e-08
3.34223e-08
2.0897e-08
5.18223e-08
-2.57562e-08
-2.60662e-08
-7.95904e-11
1.83867e-09
-1.75908e-09
5.46563e-11
1.16009e-09
-1.21475e-09
6.39733e-08
1.67044e-08
-1.62641e-08
-6.44136e-08
-3.8074e-07
6.13382e-07
4.3213e-07
-6.81973e-07
-4.11203e-08
-3.24197e-07
3.65318e-07
-2.29171e-09
2.29171e-09
-1.75539e-09
1.75539e-09
4.36756e-09
-5.59654e-08
5.15978e-08
1.56934e-08
-5.01123e-08
3.44189e-08
4.86042e-08
2.5229e-08
-7.38332e-08
-3.02071e-08
2.67573e-08
3.44973e-09
-4.30542e-09
-3.22585e-08
-6.34256e-10
-2.79474e-10
1.26928e-11
-2.30842e-11
1.03915e-11
3.76748e-08
-1.01672e-08
-2.75076e-08
-2.14452e-08
5.65077e-08
-3.50625e-08
6.85419e-09
-4.70623e-10
-2.90531e-08
-1.80744e-08
4.53995e-08
-4.11227e-08
-4.27679e-09
3.27097e-08
3.49813e-09
-3.33435e-08
3.5072e-08
4.92918e-08
-3.68399e-08
-4.7524e-08
4.895e-09
-4.2012e-09
1.9034e-08
-1.97278e-08
1.06973e-08
-4.96176e-08
4.92463e-08
-1.03261e-08
-3.87976e-08
5.00048e-08
-1.12072e-08
2.33467e-08
-2.31304e-08
-1.69237e-09
3.4604e-08
-3.96458e-08
5.0418e-09
4.85593e-08
-3.80348e-08
1.23592e-08
-1.23115e-08
-5.86574e-11
1.1035e-11
-4.82982e-08
4.43088e-08
3.98938e-09
-4.64568e-09
-4.11987e-11
4.68688e-09
-1.85391e-06
-5.13689e-07
2.3676e-06
1.92519e-07
1.81474e-06
-2.00726e-06
-4.81748e-08
3.61167e-08
1.20581e-08
3.9288e-08
3.10641e-09
-3.9743e-08
-2.65144e-09
3.1514e-07
-2.05309e-07
2.89691e-07
-3.99522e-07
9.94366e-08
-7.31937e-08
5.05973e-09
-5.13658e-09
-1.84981e-08
1.8575e-08
4.64805e-08
-1.4037e-07
-1.56534e-08
4.74552e-08
6.59517e-07
-1.44839e-07
1.3376e-07
-6.11795e-07
-1.17148e-06
1.78328e-06
4.52113e-08
1.82941e-09
-4.70407e-08
2.21072e-09
3.64564e-08
-3.86672e-08
2.53613e-10
-2.03126e-08
2.0059e-08
-8.2972e-07
1.48924e-06
-5.04405e-08
-8.48075e-09
5.89213e-08
-2.73052e-09
2.67886e-09
5.166e-11
1.29804e-09
2.54765e-08
2.34103e-08
-4.80758e-08
-2.37882e-08
4.84537e-08
1.80419e-08
-4.43954e-08
2.63535e-08
3.4363e-08
6.79804e-09
-4.11611e-08
-3.93962e-09
1.32643e-08
-9.32467e-09
5.25658e-08
-4.97517e-08
-2.81401e-09
-5.03663e-09
-3.83383e-08
4.3375e-08
1.06387e-09
-1.54543e-08
1.43904e-08
-4.30856e-08
1.69519e-08
4.39116e-08
-3.19291e-08
3.23115e-08
3.07215e-08
-3.11038e-08
4.04502e-08
-5.35465e-10
-4.07104e-08
7.95744e-10
7.26106e-09
2.67725e-08
-3.40336e-08
-3.72275e-08
3.65071e-08
7.98155e-09
-2.25997e-08
2.7331e-08
-4.73132e-09
3.49249e-09
-3.42943e-10
-3.69527e-10
2.18594e-08
-2.14899e-08
-9.30098e-09
8.78199e-09
5.18989e-10
-3.05224e-08
3.1404e-08
-8.81576e-10
1.71231e-08
9.51733e-09
-2.09621e-08
8.15142e-09
-9.68133e-09
2.2492e-08
-1.0421e-08
5.02996e-09
-4.81087e-09
-1.63835e-08
1.51444e-08
-2.0474e-08
-1.28979e-08
2.82003e-08
-3.83299e-09
-2.43673e-08
6.80836e-09
-7.30948e-09
3.48641e-08
-1.55773e-08
-4.92836e-08
1.49231e-08
4.99378e-08
-2.97939e-09
2.80569e-07
5.06036e-08
-8.34845e-08
2.44329e-06
-2.18392e-06
-6.68528e-08
-3.36025e-07
3.36026e-07
-2.00748e-08
4.0149e-08
-2.00742e-08
4.16086e-08
2.75782e-08
1.2209e-09
-1.66788e-09
2.23954e-09
-3.04661e-08
2.2922e-09
-1.74293e-09
2.99169e-08
3.67336e-10
7.03474e-11
-4.37684e-10
-4.7602e-09
4.7602e-09
1.47287e-09
-1.60324e-08
1.45596e-08
-6.60716e-07
-2.62519e-06
6.67262e-07
2.61865e-06
-4.94607e-07
1.63669e-07
3.30938e-07
-3.75117e-07
1.2737e-06
-3.25372e-08
6.97686e-08
-3.72315e-08
-1.96644e-07
4.63725e-08
-3.44336e-07
-1.34781e-08
-4.41924e-08
1.85559e-08
-5.55907e-08
5.46212e-08
-1.75863e-08
-5.20581e-08
4.81958e-08
3.86231e-09
4.77086e-08
-5.03369e-08
2.62829e-09
2.51629e-08
-3.42522e-08
-2.50969e-08
3.41862e-08
-1.12011e-08
2.70227e-10
6.19519e-11
1.08689e-08
5.13551e-08
6.97328e-09
-7.63807e-09
-3.56303e-09
4.0939e-07
-2.60569e-07
-3.22196e-07
3.39597e-11
7.06815e-09
-7.01456e-09
-9.21642e-07
2.73639e-06
1.36035e-09
2.68399e-08
-2.04745e-09
3.14192e-11
2.02999e-06
-1.05192e-06
-1.89971e-06
4.85025e-08
4.56563e-09
-4.46394e-09
4.51278e-08
-1.3719e-08
1.40733e-08
-4.54822e-08
1.03611e-09
-3.42528e-09
1.63971e-08
-1.29718e-08
-1.25197e-08
2.08452e-08
-2.11634e-08
-1.35948e-10
4.54203e-10
-1.28602e-09
4.64138e-08
-8.99575e-09
-1.42528e-09
1.12808e-08
2.81508e-08
-1.5905e-08
6.90928e-09
7.72796e-09
-1.68638e-08
-6.76923e-09
9.20947e-09
-1.48151e-09
3.94695e-08
-3.70547e-08
-2.41477e-09
8.31918e-09
7.79957e-09
-3.90531e-08
-2.10567e-09
3.88467e-08
2.31209e-09
4.16406e-10
7.56726e-09
4.06812e-09
-1.51959e-08
-5.76619e-09
-9.81183e-11
2.12079e-10
-1.13961e-10
-4.03786e-08
6.00358e-08
-1.96572e-08
3.77155e-09
-3.39718e-08
3.02002e-08
-3.30353e-08
-2.98824e-08
3.50914e-08
2.78263e-08
-2.88483e-08
3.00594e-08
-3.3283e-08
3.2072e-08
8.21048e-09
6.0902e-08
-6.00718e-08
-9.04072e-09
4.73773e-07
5.81487e-07
-7.71331e-07
-3.05144e-07
-3.10751e-08
4.22461e-07
-3.94858e-07
3.99978e-08
6.88922e-08
-5.00379e-08
4.65265e-08
-6.53808e-08
-3.78004e-08
-5.87539e-08
6.40171e-08
-6.50892e-08
2.72888e-08
3.41748e-08
1.97647e-08
-3.07532e-08
-2.31863e-08
2.91669e-08
-6.0348e-08
-3.39081e-08
-2.9587e-08
3.4387e-08
-6.03595e-09
-2.83511e-08
-2.86878e-08
-6.92308e-09
2.94816e-08
6.1293e-09
5.69922e-09
-1.82786e-08
4.16889e-08
-4.21744e-08
3.52514e-08
4.33548e-07
-7.47906e-07
-3.70046e-07
6.84404e-07
3.12904e-09
2.13033e-10
-3.34622e-09
4.14564e-12
4.7358e-08
1.14449e-09
3.00106e-09
5.32452e-09
-7.95238e-09
3.69132e-08
-3.64048e-08
9.49225e-09
-3.01407e-08
2.55201e-09
-2.61173e-08
2.66542e-08
-3.08893e-09
-2.09231e-09
1.60747e-08
1.28036e-09
-1.52628e-08
7.52139e-09
-7.52139e-09
-1.59041e-08
1.66264e-08
2.37063e-09
1.6188e-08
-1.02551e-08
-1.67436e-08
1.08107e-08
1.17838e-10
1.74481e-09
-1.86265e-09
4.59233e-08
-2.17295e-08
3.80697e-08
2.3453e-08
1.04879e-11
1.12714e-09
-1.13763e-09
-6.53352e-08
4.14804e-08
2.38548e-08
-1.38441e-08
1.43764e-08
-5.32338e-10
3.71357e-08
3.06726e-08
-2.97387e-08
5.60787e-09
-7.13104e-09
-4.69884e-08
1.19335e-08
3.50549e-08
-2.65354e-08
2.77746e-08
2.08494e-08
-2.09276e-08
1.14208e-09
1.43713e-11
-3.31318e-08
3.25927e-08
5.24663e-10
1.79326e-07
7.9718e-07
-1.85828e-09
9.9192e-11
1.75908e-09
-3.10774e-07
-4.32699e-07
7.43473e-07
2.4116e-07
-1.64325e-07
-7.68355e-08
2.66431e-10
1.50298e-08
4.70052e-11
-1.50045e-08
2.04514e-10
1.48e-08
6.22022e-09
-6.31198e-09
4.79288e-11
4.38295e-11
-3.72432e-10
4.04678e-10
7.33055e-10
-3.96489e-10
-4.17123e-10
8.05568e-11
-5.07828e-07
5.41127e-07
-4.71113e-07
5.5142e-07
9.31276e-07
-2.18564e-07
-2.63019e-08
-3.66393e-09
2.99658e-08
-2.79332e-08
3.23607e-08
-4.42758e-09
-4.34644e-09
3.67296e-08
-3.23832e-08
4.20757e-09
-3.19444e-08
2.77369e-08
-6.00978e-07
1.30932e-08
5.87884e-07
-1.01749e-07
-5.24636e-08
4.68906e-08
-2.23632e-08
-3.46641e-08
5.70273e-08
-2.07656e-06
-1.85769e-08
1.76344e-08
9.42509e-10
1.10028e-09
2.57436e-08
-2.59562e-08
-8.87648e-10
-5.7012e-08
5.44093e-08
-4.98452e-08
5.24478e-08
2.54218e-08
-4.13995e-08
1.59777e-08
-7.79998e-11
-5.70011e-09
5.77811e-09
2.90396e-08
-4.65211e-08
1.74816e-08
1.95058e-08
2.96214e-08
-2.00877e-08
-2.82091e-08
5.20088e-08
-2.37997e-08
-2.46969e-07
2.50303e-07
3.79606e-07
-3.8294e-07
1.0632e-08
-5.44699e-10
-1.00873e-08
-2.10993e-08
2.42037e-08
-2.0723e-08
-3.48078e-09
3.21123e-09
-1.1952e-09
-1.45053e-08
-3.03971e-08
4.49024e-08
2.06671e-08
-1.40088e-09
1.04932e-10
-9.26413e-09
9.27703e-09
-3.65762e-12
1.14718e-11
-7.81415e-12
2.74221e-06
-1.63111e-06
-1.1111e-06
-2.86885e-09
-1.76051e-08
-1.01561e-08
-5.19749e-08
1.00729e-08
1.88966e-08
-2.70863e-09
-5.77476e-09
4.74018e-09
-2.32668e-07
-7.72888e-07
1.00556e-06
1.02905e-11
-1.02904e-11
-5.54394e-07
1.3796e-06
-8.25209e-07
-4.08623e-07
1.12273e-06
-1.2685e-06
-1.27044e-06
8.6182e-07
-9.57319e-10
9.89594e-10
-3.22746e-11
-1.84939e-07
-1.08578e-07
2.93517e-07
-1.03192e-08
-2.14804e-09
-3.90326e-08
-2.50564e-08
3.91141e-08
2.4975e-08
-2.05522e-09
2.05522e-09
-3.51992e-08
-1.02202e-08
4.54194e-08
-2.02208e-11
2.02208e-11
1.89246e-09
1.5853e-08
1.63565e-08
-3.35251e-07
3.18895e-07
1.81072e-08
3.96289e-07
-2.55593e-07
-3.83031e-07
3.42199e-08
-1.69988e-08
7.13545e-09
-2.43565e-08
-3.88866e-09
7.80688e-11
3.81059e-09
2.7987e-08
-2.82202e-08
2.259e-08
4.46075e-10
-4.89445e-10
1.62424e-08
-3.45076e-08
-1.12667e-09
3.43482e-08
4.71846e-09
-4.71846e-09
6.49276e-08
-1.75695e-08
-2.3998e-06
2.2403e-06
2.14273e-06
-1.98323e-06
1.80469e-08
-2.05759e-08
-6.11865e-08
6.37155e-08
-5.43559e-08
4.21259e-08
-4.34731e-08
5.57032e-08
2.98613e-08
-2.18665e-08
-3.04755e-08
2.24808e-08
6.02678e-08
-2.86293e-08
-3.16385e-08
-5.34075e-08
4.32514e-08
-3.90421e-08
2.73747e-09
3.63047e-08
6.24772e-07
2.2235e-07
8.30512e-09
-7.83725e-10
-1.29109e-08
1.88653e-08
-5.95441e-09
8.87182e-09
2.66273e-08
-3.54991e-08
5.33226e-10
8.31073e-09
-8.84395e-09
-9.00449e-10
-1.79662e-08
1.88667e-08
1.97964e-08
1.94108e-08
1.30755e-08
1.618e-08
-2.92555e-08
-4.9405e-09
-8.11634e-09
-2.42914e-08
2.63534e-08
-2.06202e-09
-1.89351e-11
1.17384e-09
-1.1549e-09
5.49599e-08
-5.25092e-08
-4.94139e-08
4.69632e-08
-6.01617e-08
3.35036e-08
9.92775e-09
-4.14796e-09
4.04969e-08
4.51098e-09
2.48078e-11
-2.08003e-09
4.9962e-09
-3.44283e-08
3.39457e-08
-4.51365e-09
1.13416e-08
-1.1938e-08
-3.34699e-08
-4.8858e-07
3.94478e-07
-2.37664e-08
-4.06283e-08
2.29952e-08
-1.42771e-07
-4.21676e-08
-8.25805e-08
-5.9828e-07
6.80862e-07
2.43901e-07
6.28283e-09
-2.50184e-07
1.71476e-07
-1.70412e-07
-1.20676e-07
1.19613e-07
-2.91157e-07
2.30398e-07
6.07593e-08
-5.66786e-07
-3.41916e-08
7.07044e-08
-2.95877e-07
2.25172e-07
3.99991e-07
-4.42458e-07
-2.10961e-07
2.55555e-07
-4.45939e-08
3.5916e-07
-3.01275e-07
6.23333e-08
-3.53661e-08
4.64568e-09
-4.63669e-09
-8.99715e-12
1.20953e-08
-1.2792e-08
-5.81347e-08
-4.07004e-08
3.45909e-08
6.10948e-09
-3.42041e-08
1.2848e-09
3.29193e-08
-1.03572e-10
-1.43691e-08
1.44727e-08
1.13546e-06
-1.04208e-06
5.83857e-08
8.47295e-10
-5.9233e-08
-2.98769e-10
1.26579e-08
6.4899e-08
4.39616e-09
1.30942e-09
-1.09607e-09
-1.40574e-08
7.79147e-09
-7.47289e-09
-3.18586e-10
2.27342e-08
-1.65607e-08
-6.17349e-09
-2.62364e-08
3.11314e-08
2.03924e-08
-2.45936e-08
3.62774e-11
-3.38602e-10
-3.67384e-11
-1.53118e-09
-7.29263e-11
5.91135e-09
-5.83842e-09
-3.94653e-08
-1.48907e-08
4.78676e-08
-4.10188e-08
4.16348e-08
-4.84837e-08
-4.42103e-08
-2.07278e-08
2.04388e-08
3.35292e-10
-1.24142e-08
1.25511e-08
-9.72281e-11
6.60652e-09
-6.67899e-09
-1.18856e-08
2.80279e-08
-1.61423e-08
-2.65389e-08
6.07137e-08
-4.19728e-08
3.03323e-08
1.16405e-08
-4.6363e-08
5.64593e-09
4.59717e-08
-5.25465e-09
-2.55648e-08
2.65237e-08
-5.76457e-08
2.57165e-08
-3.40559e-07
3.40559e-07
-2.3973e-08
-2.29062e-08
4.68793e-08
2.08423e-08
2.5081e-08
4.75427e-08
2.45429e-08
-2.05961e-08
4.26949e-08
-2.20988e-08
-6.92592e-07
-4.10807e-07
7.38337e-08
-1.8535e-08
2.65834e-08
-8.57872e-11
-1.16164e-09
1.24743e-09
1.30726e-08
-4.35906e-11
-1.35703e-08
-2.13048e-08
3.03333e-09
-3.66293e-09
2.19344e-08
-5.70741e-08
-8.89382e-09
6.59679e-08
-2.07817e-08
1.13556e-08
5.71242e-08
-2.16422e-09
2.89563e-08
-1.51775e-08
-1.37788e-08
3.45651e-08
-1.53798e-07
1.02794e-07
1.64392e-08
-3.75508e-10
3.35194e-08
3.60529e-10
6.06743e-08
-6.25924e-08
2.47933e-08
-2.28752e-08
-3.5296e-08
-1.97384e-08
5.50345e-08
6.19397e-07
3.11879e-07
-3.83656e-08
3.29967e-08
5.36888e-09
5.37378e-10
-4.69223e-10
-3.84337e-08
-1.64374e-08
4.94341e-08
2.62077e-07
1.55267e-07
-3.70863e-07
-1.89622e-08
4.55837e-08
-4.3059e-08
4.88353e-08
-4.58015e-08
-3.03389e-09
4.38453e-07
6.97008e-07
-4.74595e-08
5.58086e-08
-8.3491e-09
7.73616e-08
3.52853e-08
-3.278e-08
-7.9867e-08
-2.36698e-09
-2.80991e-08
2.00504e-08
5.73113e-08
-3.04742e-08
-1.04629e-07
1.35103e-07
-3.12178e-08
7.44475e-08
-3.20742e-07
3.1145e-07
9.29147e-09
-3.57913e-08
5.27433e-09
3.05169e-08
-3.72977e-08
-9.37147e-09
4.66692e-08
5.69057e-09
-3.01781e-08
2.44875e-08
9.3379e-07
-1.62638e-06
5.11393e-08
-3.43069e-09
-3.42494e-07
3.90756e-07
-4.08273e-08
3.29958e-08
7.83153e-09
1.443e-08
-2.78763e-08
1.34463e-08
-1.78017e-08
1.53032e-09
-3.74878e-09
-8.77091e-09
4.04433e-07
-3.99345e-07
-5.08754e-09
-1.09439e-08
-3.10289e-08
-1.17539e-08
3.68476e-08
-3.60376e-08
-5.99323e-09
5.8493e-09
-3.26153e-08
3.27593e-08
-3.77951e-08
4.97362e-10
2.96588e-08
-3.56521e-08
3.78977e-08
1.58258e-09
-1.21849e-08
1.15283e-08
-3.05326e-08
3.11892e-08
2.57129e-08
-1.88389e-08
-2.18579e-09
2.35668e-11
-3.21274e-08
-3.54875e-09
3.56762e-08
-6.95378e-09
2.10815e-08
-1.00688e-08
2.32072e-08
-5.32835e-07
2.82939e-07
-2.82938e-07
1.99035e-08
-3.97033e-08
1.97998e-08
-4.96601e-08
6.54578e-08
-1.57977e-08
-5.04276e-09
4.15952e-08
-4.43777e-08
4.43911e-08
1.03939e-08
5.44079e-09
-1.58347e-08
4.20463e-08
-2.36278e-07
1.94232e-07
-1.59644e-08
2.90399e-08
2.08497e-07
-2.7704e-07
3.60954e-07
-2.92411e-07
-1.46298e-08
1.34629e-08
1.16694e-09
2.36888e-08
-4.74552e-08
-3.01641e-07
2.98662e-07
-2.83764e-07
-2.95902e-07
2.09292e-07
3.70375e-07
2.18725e-09
-2.23695e-09
-3.08951e-08
1.35319e-08
-1.28439e-08
-3.70375e-07
-2.21704e-08
4.58592e-08
1.27179e-08
-1.13417e-09
-1.95415e-08
1.89695e-08
-4.68832e-08
-3.30744e-08
4.7381e-08
4.73832e-08
-6.16898e-08
-1.51249e-09
-1.42478e-09
1.92796e-09
1.00931e-09
-2.35105e-08
2.27692e-08
-2.16219e-08
-2.75432e-08
-2.2615e-08
5.01582e-08
-2.3615e-07
1.93826e-07
-5.61582e-08
1.71255e-08
-7.74491e-09
3.54111e-08
-3.54663e-08
7.80007e-09
-5.08305e-08
-1.70745e-06
2.65737e-07
1.44171e-06
5.23631e-08
3.17451e-08
-5.12867e-08
1.95417e-08
-1.32493e-08
-5.02975e-08
5.00687e-08
1.72924e-06
-1.60945e-06
3.02258e-07
-4.22041e-07
4.47218e-07
-1.60427e-09
1.60427e-09
-7.71401e-07
-4.44162e-07
1.21556e-06
-1.77842e-06
-2.05772e-06
5.95983e-09
-9.45737e-11
-5.86526e-09
-3.47797e-07
3.35409e-07
-4.04064e-08
7.95948e-08
-2.8274e-07
2.43552e-07
-5.48872e-08
-1.60155e-08
5.33331e-08
3.97443e-07
-3.55397e-07
3.68669e-08
-6.34023e-08
-5.59919e-08
-2.37159e-07
3.67799e-08
2.56372e-07
-1.54943e-07
6.09065e-08
9.40358e-08
-5.24497e-08
-1.47387e-08
1.00503e-06
-1.29289e-06
-3.23939e-07
1.90053e-08
-1.78677e-08
-4.79484e-09
-6.16243e-08
4.8375e-08
2.895e-08
-2.31007e-08
-2.87585e-08
2.80836e-08
-1.63184e-08
1.63358e-08
5.6844e-08
-3.70793e-08
1.11692e-08
-2.14884e-08
1.17109e-08
-3.44168e-08
2.27059e-08
1.87821e-08
-1.74244e-08
2.13701e-08
-1.39066e-09
7.79476e-09
-3.40202e-07
3.40202e-07
1.31373e-08
-7.01492e-08
-5.96364e-08
3.90972e-09
-3.44599e-09
5.91727e-08
-5.73865e-08
6.19203e-08
2.46852e-08
-8.0668e-09
-4.78986e-08
-1.90015e-09
-5.77363e-08
2.52333e-09
-4.42223e-08
4.1699e-08
-4.82768e-08
5.06352e-08
-2.35839e-09
-1.7615e-09
-3.16358e-08
3.33973e-08
2.2788e-10
-4.55311e-08
4.47062e-08
-4.37222e-08
4.31867e-08
-5.70321e-08
3.74175e-08
1.96146e-08
2.97418e-10
5.82373e-10
-5.79119e-08
-1.38934e-09
1.31112e-09
7.82231e-11
1.12422e-08
3.73784e-08
-4.86206e-08
-1.38934e-09
1.37516e-09
-6.40405e-11
8.79164e-11
-1.20328e-09
-3.78436e-08
-5.87864e-09
1.02998e-08
4.28147e-08
5.6377e-09
-2.19052e-11
-1.35327e-10
-5.48046e-09
2.5195e-09
3.53424e-08
-3.78619e-08
-9.71932e-12
-5.6925e-11
-6.62149e-10
7.28794e-10
9.92546e-11
-9.92545e-11
-8.453e-11
7.48108e-11
1.34012e-09
-5.42356e-10
1.5161e-10
-9.4937e-10
2.91991e-10
-3.61206e-08
3.58286e-08
1.24325e-10
-5.1484e-10
3.92506e-07
-2.89177e-07
-4.14103e-07
-2.48108e-10
-2.48108e-10
3.82137e-09
-4.00717e-08
-4.83241e-09
4.10827e-08
2.31218e-08
-1.93005e-08
-4.11511e-08
4.13043e-08
2.36626e-09
-3.32168e-09
-6.24047e-10
9.89374e-10
-3.68701e-09
-1.99493e-10
-4.64172e-08
4.24189e-09
4.21753e-08
-9.69832e-10
4.04136e-10
-9.64519e-11
1.95237e-07
-2.17047e-07
2.181e-08
-3.19238e-07
3.19238e-07
4.92575e-08
-3.89577e-08
-5.93392e-09