/*--------------------------------*- C++ -*----------------------------------*\
| =========                 |                                                 |
| \\      /  F ield         | OpenFOAM: The Open Source CFD Toolbox           |
|  \\    /   O peration     | Version:  v2006                                 |
|   \\  /    A nd           | Website:  www.openfoam.com                      |
|    \\/     M anipulation  |                                                 |
\*---------------------------------------------------------------------------*/
FoamFile
{
    version     2.0;
    format      ascii;
    class       surfaceScalarField;
    location    "0.02";
    object      phi;
}
// * * * * * * * * * * * * * * * * * * * * * * * * * * * * * * * * * * * * * //

dimensions      [0 3 -1 0 0 0 0];
oriented        oriented;


internalField   nonuniform List<scalar> 
5747
(
6.91081e-08
-3.90908e-08
-3.00173e-08
-1.28705e-08
-9.37148e-10
1.38076e-08
8.67145e-08
4.25194e-07
-2.01452e-07
-3.61684e-07
3.25881e-08
2.53433e-08
-2.67651e-08
-5.57998e-08
2.57236e-08
5.68413e-08
-4.0545e-12
8.3357e-09
1.88062e-10
-8.51971e-09
-1.4638e-09
-4.08373e-11
1.50463e-09
-1.4638e-09
4.57186e-08
-3.45498e-08
9.93128e-09
-2.11001e-08
6.81177e-11
-1.55344e-10
8.72264e-11
-1.03123e-10
-1.71161e-09
4.51689e-10
1.36304e-09
3.12817e-08
-1.10317e-08
-2.025e-08
-2.78692e-08
2.3427e-09
2.55265e-08
-3.24036e-10
3.24036e-10
-5.37674e-10
-1.95114e-10
7.32788e-10
-2.32121e-09
-7.61447e-10
1.97581e-10
2.88508e-09
-8.03773e-10
-1.73862e-09
2.21187e-10
-6.24407e-09
5.48262e-09
-1.57204e-09
-5.47581e-09
-7.12159e-08
1.60966e-08
5.51193e-08
1.0477e-08
-5.79515e-08
5.83133e-08
-1.08389e-08
-3.52942e-10
2.49819e-10
-6.81177e-11
2.44974e-11
4.36204e-11
-4.06018e-09
6.74094e-09
-7.90666e-09
5.2259e-09
-3.42592e-07
-4.15437e-08
3.84136e-07
-4.80194e-09
5.83215e-11
4.74362e-09
6.53196e-09
-6.01459e-09
3.76186e-08
-3.8136e-08
-6.99976e-10
4.13699e-08
-4.06699e-08
3.47774e-08
-6.25576e-09
-2.85216e-08
8.95609e-11
-2.25612e-09
2.16655e-09
1.21962e-09
-2.53996e-08
2.418e-08
-3.99642e-09
2.35809e-09
1.63832e-09
6.32427e-09
-1.22386e-09
-5.10041e-09
-1.23674e-08
1.18276e-08
1.8667e-08
-1.81272e-08
-4.51568e-09
4.13818e-09
3.7094e-10
6.55512e-12
2.36619e-08
3.95966e-10
-2.40579e-08
1.2181e-08
-1.2181e-08
2.89419e-08
-5.27998e-09
3.09198e-07
-3.09198e-07
-3.1311e-07
3.1311e-07
-7.78558e-09
3.60049e-08
-2.82193e-08
-4.36463e-08
2.73247e-07
-2.29601e-07
-6.82601e-10
-4.88065e-08
4.94891e-08
-1.21215e-08
-2.56254e-07
2.68376e-07
-5.70248e-10
-2.03801e-08
2.09503e-08
1.87565e-09
-1.87565e-09
2.46992e-06
3.92544e-08
-2.50918e-06
7.98601e-09
-1.34959e-08
-8.9048e-09
1.44147e-08
3.6739e-08
-5.77654e-08
6.10356e-08
-4.00092e-08
-8.4735e-07
8.4735e-07
9.28558e-07
-1.99475e-07
8.39395e-08
-8.13023e-07
-2.54195e-07
5.18941e-07
-2.64747e-07
-2.20713e-09
2.17525e-08
-1.95454e-08
-6.06251e-08
2.38725e-06
-2.32662e-06
-3.75267e-09
-1.82949e-08
2.20476e-08
-1.02079e-09
2.35406e-08
1.41554e-09
-2.39354e-08
4.01179e-08
-5.15817e-08
1.14639e-08
1.83045e-08
5.00015e-10
-1.88045e-08
7.67871e-09
-4.03331e-08
3.26543e-08
-1.682e-07
-6.12394e-08
9.56504e-08
1.33789e-07
-7.45361e-08
3.92061e-07
-3.17526e-07
5.7912e-09
-2.09984e-08
2.28859e-08
1.77962e-07
1.32352e-07
-3.10314e-07
-2.99053e-09
1.7636e-08
-1.46454e-08
2.27889e-08
-2.18282e-08
-3.95119e-09
-1.60335e-08
1.04104e-08
1.83055e-08
-1.26824e-08
2.72269e-08
-4.43803e-09
2.02402e-10
-2.02402e-10
4.54207e-09
-4.54207e-09
1.92233e-09
-3.64795e-09
1.72562e-09
-2.2078e-08
-1.7618e-06
1.7618e-06
-1.33953e-06
-1.70691e-06
1.54158e-06
1.50486e-06
-5.36269e-08
-2.06191e-08
1.72818e-08
5.6964e-08
3.12721e-09
2.40997e-08
-2.84098e-06
2.82996e-06
1.10204e-08
-3.52023e-07
3.87154e-07
-3.5131e-08
-3.71653e-08
7.47883e-08
-3.7623e-08
1.34533e-09
-1.34533e-09
2.1439e-08
2.56417e-08
-4.70807e-08
-4.39298e-09
-3.32893e-12
-1.19365e-10
1.18662e-07
-1.20446e-07
1.06785e-06
-1.06606e-06
2.57646e-08
-2.74821e-08
2.31565e-08
2.48537e-08
2.36188e-08
-2.28307e-08
-2.77699e-07
9.74222e-08
2.27302e-07
-4.7025e-08
1.04295e-07
-6.79432e-08
-3.63518e-08
5.06183e-08
9.68963e-10
-3.65333e-10
-2.13644e-08
2.07608e-08
2.22692e-09
2.29233e-08
-2.51502e-08
-3.05477e-08
3.15167e-08
-4.44067e-08
4.38622e-09
4.00205e-08
-3.00712e-08
3.00284e-09
2.70684e-08
6.4229e-09
-6.87868e-09
4.55784e-10
6.06906e-09
3.53837e-10
6.06906e-09
-3.58465e-08
3.57427e-08
1.32349e-09
1.0263e-09
-1.0263e-09
6.96545e-07
1.56083e-07
-2.59466e-07
-5.93161e-07
-2.26096e-08
-9.71692e-09
3.23265e-08
2.04435e-08
-1.96434e-08
-8.00005e-10
5.33657e-09
3.91321e-10
-5.72789e-09
-1.12942e-08
1.25207e-09
1.00421e-08
1.98594e-08
-5.66985e-10
1.15101e-09
3.33097e-10
-4.78237e-11
7.27617e-09
-7.56145e-09
-1.47573e-08
1.41306e-10
1.49491e-08
1.66858e-08
1.5126e-10
-1.68371e-08
-2.15078e-09
2.21736e-09
-6.65719e-11
-2.07744e-09
1.99822e-09
7.92109e-11
1.53845e-08
-1.51865e-08
-1.98015e-10
-2.28619e-09
-1.27224e-08
1.50086e-08
6.27237e-10
7.00961e-10
-1.52026e-08
-6.84919e-10
-2.52047e-07
-6.92522e-08
4.60844e-08
2.75215e-07
-2.18686e-07
4.99189e-08
-8.99298e-08
2.58697e-07
-1.73116e-07
-4.55701e-08
-3.82861e-07
3.82861e-07
-1.37607e-07
-1.92511e-07
2.36262e-07
9.38563e-08
-2.31644e-09
-3.80545e-07
1.93348e-09
-2.62028e-09
-1.89529e-09
2.5821e-09
1.21873e-08
-2.24249e-09
-1.29204e-08
2.97557e-09
2.46945e-08
-2.39935e-08
1.21967e-12
7.94775e-10
-7.95994e-10
-4.80804e-08
-2.25387e-08
2.61593e-08
4.44597e-08
2.96674e-09
-8.16569e-11
-2.86115e-09
-2.39367e-11
-1.74754e-09
-1.21281e-08
1.26737e-08
1.20199e-09
3.22688e-08
-8.03492e-08
-3.6028e-09
-1.48025e-08
1.84053e-08
-4.76413e-09
3.01032e-08
-1.90085e-08
1.90085e-08
8.6775e-08
-3.21202e-08
-5.46548e-08
1.07412e-10
7.4327e-09
-7.39095e-09
-1.49168e-10
-4.47411e-08
-7.10197e-08
1.15761e-07
4.4933e-08
-2.65948e-07
-6.66183e-08
2.87634e-07
-3.84904e-08
8.05242e-08
-7.32305e-09
-2.22882e-09
9.55187e-09
-1.3536e-07
1.06392e-06
-9.50425e-09
1.74903e-08
5.2292e-09
-5.8132e-09
1.22464e-08
-1.16624e-08
-1.40393e-08
3.66889e-08
-3.73967e-08
1.47471e-08
-2.46496e-09
7.69416e-09
1.9347e-09
-9.35584e-08
-1.48033e-11
-1.14022e-11
2.62056e-11
5.32176e-08
-5.4403e-08
-3.99196e-08
4.11049e-08
3.50165e-08
-5.83634e-08
2.33469e-08
4.01195e-07
-3.56262e-07
-9.34097e-08
-4.07888e-08
-4.03105e-07
2.49178e-07
1.94714e-07
-4.06018e-07
3.65229e-07
3.97338e-07
-4.25989e-08
-3.54739e-07
-5.63169e-07
9.13206e-07
-3.50037e-07
5.76582e-07
4.10299e-07
-9.86881e-07
1.73477e-07
-5.53248e-07
5.57528e-07
-1.14276e-06
3.00726e-07
1.1456e-06
-3.03567e-07
5.46701e-09
-5.18732e-09
-2.79686e-10
2.39638e-08
7.30751e-10
2.40427e-08
5.48296e-10
1.68671e-06
-3.67536e-07
-1.31918e-06
-4.30717e-08
4.06902e-08
-4.46605e-08
4.7042e-08
-2.0577e-09
2.0577e-09
4.04239e-08
-6.70665e-08
2.66426e-08
-6.18766e-08
-1.27699e-07
1.89575e-07
-1.48494e-08
-9.73118e-09
2.45806e-08
4.90888e-11
-2.81173e-11
-2.09714e-11
3.34648e-08
-3.34214e-08
-4.34e-11
4.95844e-08
2.76711e-07
-3.26295e-07
-2.02312e-07
-3.92061e-07
2.81946e-07
3.12428e-07
2.78632e-07
-6.79058e-08
4.76469e-08
-2.58374e-07
-5.1656e-10
2.47889e-08
-2.42724e-08
-4.33867e-11
1.25766e-10
4.05581e-09
4.13038e-08
-5.32337e-08
1.19299e-08
-3.4949e-09
7.16658e-09
-3.67169e-09
2.26593e-09
-2.45308e-08
2.22649e-08
-2.45776e-07
1.9474e-07
5.10354e-08
-1.07179e-07
8.14876e-08
2.56916e-08
2.55256e-09
1.4564e-09
-2.07426e-09
1.63665e-08
3.19304e-10
-3.9519e-07
-5.43651e-07
9.38839e-07
-4.11753e-07
4.0391e-07
7.84301e-09
-1.33953e-06
-3.42592e-07
7.14951e-08
-2.57765e-08
-3.59023e-08
7.80887e-10
3.53903e-08
-2.68893e-10
-1.01099e-09
-3.48913e-08
-1.07467e-08
-7.47563e-09
1.82223e-08
4.60502e-12
2.76401e-11
-1.06394e-10
7.41486e-11
-2.3847e-08
3.96267e-08
-3.93412e-08
2.35615e-08
3.97456e-08
6.63577e-09
-4.63814e-08
2.60514e-08
-2.31322e-08
-2.91917e-09
-1.06655e-08
5.86572e-09
4.79975e-09
4.1519e-08
1.05901e-09
-4.2578e-08
-5.12703e-09
1.06685e-09
-2.21413e-07
-7.85831e-08
2.38119e-07
3.79001e-08
1.8331e-09
-3.97332e-08
-1.17641e-09
-2.09587e-11
1.19737e-09
-1.16577e-08
-1.36704e-10
1.17944e-08
3.64812e-08
-1.55178e-09
-3.70325e-08
2.1031e-09
3.51584e-08
1.95894e-09
-1.46908e-09
-3.56483e-08
-3.60244e-09
-1.50869e-08
1.86894e-08
4.3438e-08
2.01817e-07
-2.45255e-07
-1.96223e-08
2.0067e-08
-4.44691e-10
5.96247e-09
-4.05123e-08
-1.56644e-08
1.80245e-08
6.71659e-08
4.32917e-09
-1.86894e-08
1.38987e-08
4.7907e-09
-2.1107e-09
1.57039e-09
-1.02064e-08
1.67567e-08
-1.88674e-08
9.08192e-09
-2.11014e-08
1.20195e-08
1.8363e-08
1.6153e-08
-1.77945e-10
-1.5975e-08
-1.53848e-08
2.02971e-10
1.51819e-08
8.91118e-11
-3.92366e-10
-1.50816e-08
1.46066e-09
-9.09694e-11
-1.36969e-09
1.46066e-09
-5.41833e-09
2.37813e-08
7.64152e-09
-6.42237e-09
-6.34618e-09
5.90395e-07
-5.90395e-07
-8.92771e-08
-6.03224e-08
7.77002e-08
7.18994e-08
4.6762e-08
-4.67699e-08
1.30348e-08
-1.30269e-08
-9.38637e-08
2.40839e-07
-1.46976e-07
2.85225e-08
-5.66916e-08
2.81692e-08
-1.87724e-08
9.96336e-10
-5.65712e-10
1.83418e-08
2.13458e-06
9.74041e-08
-5.4527e-07
-5.13145e-07
-1.78701e-06
1.93262e-06
5.67355e-10
1.86534e-08
-6.87138e-10
-1.85336e-08
1.17486e-08
-1.20415e-08
2.92927e-10
-4.07011e-10
1.19912e-08
-1.15841e-08
1.6499e-10
-9.01699e-11
-1.10932e-08
1.10183e-08
-1.80415e-08
-7.30962e-10
4.51741e-09
-4.35604e-09
-5.01398e-08
4.99785e-08
-3.10784e-08
-2.55045e-08
5.65829e-08
3.35465e-11
-1.83446e-09
6.2293e-11
4.98415e-09
-4.48576e-08
3.98734e-08
-1.55344e-09
2.45283e-09
-2.00174e-09
-4.51081e-10
1.19213e-08
-1.19213e-08
3.05797e-08
-2.94409e-08
-1.13879e-09
-8.0592e-10
1.31443e-09
3.17366e-08
9.26206e-09
-3.31934e-08
-7.80529e-09
-1.22875e-08
-1.98164e-08
3.21038e-08
-3.47492e-08
1.09022e-08
7.75978e-07
-4.83792e-08
-6.72298e-07
-5.53008e-08
-2.45636e-07
2.5891e-07
-1.32736e-08
-5.95269e-08
4.28657e-08
1.66611e-08
5.57531e-10
1.09572e-10
1.23613e-08
2.9305e-10
-1.2764e-08
-3.58736e-08
3.62708e-08
1.76651e-08
-1.80622e-08
-3.28825e-08
-2.12194e-09
3.18168e-08
3.18761e-09
-7.87715e-08
-2.62802e-06
2.7068e-06
4.03882e-08
9.351e-09
-8.53867e-09
-4.12005e-08
2.17468e-09
-2.17468e-09
3.05974e-09
-4.31012e-10
-2.62873e-09
-1.02934e-06
-4.08228e-07
1.43757e-06
-4.03612e-08
2.63219e-08
-1.59342e-08
2.11788e-08
-5.2446e-09
1.08051e-09
-7.17828e-10
-3.62684e-10
1.86398e-08
-1.33138e-09
9.96094e-10
4.08491e-08
2.12729e-08
1.31685e-07
-8.98319e-07
-3.18387e-07
1.08502e-06
5.16686e-07
-2.47191e-07
2.77888e-07
-5.47383e-07
-1.90615e-06
1.51096e-06
7.18709e-08
-6.25119e-07
8.78479e-11
4.7597e-11
-2.73701e-09
2.60157e-09
7.20097e-08
-3.52707e-08
-5.6091e-10
-1.07333e-08
-5.04383e-09
4.82409e-09
-3.4117e-10
-1.92868e-09
1.6768e-08
-1.48393e-08
1.21683e-08
-1.28449e-08
1.78296e-08
-6.09013e-08
1.80238e-09
1.03659e-08
5.33657e-09
-9.36957e-10
-2.61822e-09
4.0197e-08
7.91195e-09
-1.05928e-08
-3.75162e-08
3.25221e-09
-3.25221e-09
-1.57799e-09
1.69595e-08
-1.53815e-08
-6.90483e-10
1.16225e-08
1.05652e-09
-1.19885e-08
7.20674e-09
-7.89722e-09
-6.22231e-10
1.22447e-08
-4.26394e-10
7.0109e-09
2.99904e-08
-2.84806e-08
-3.2987e-08
4.19992e-08
-3.47887e-08
-3.07744e-08
-4.0797e-08
2.58731e-08
4.56983e-08
-3.32399e-08
-4.81423e-08
8.13822e-08
-9.0643e-08
-2.02018e-08
1.10845e-07
-7.62644e-07
3.58349e-08
-7.47524e-08
3.89175e-08
1.16642e-08
2.22725e-09
-1.38915e-08
3.0935e-07
-3.0935e-07
7.40521e-07
1.2293e-06
-1.12255e-06
-8.47276e-07
3.9347e-07
3.86823e-09
-9.26079e-07
1.6666e-06
1.46824e-06
-4.15357e-07
2.169e-07
-1.26978e-06
5.42161e-07
3.12445e-07
7.50046e-08
-3.8745e-07
-1.66611e-08
-6.71971e-09
7.44661e-09
-3.23334e-07
3.23334e-07
2.74094e-08
-1.68567e-08
1.82599e-08
-2.88126e-08
-2.08243e-08
4.97909e-09
-3.33774e-09
1.91829e-08
7.27522e-09
-4.21368e-08
3.48616e-08
9.94787e-09
-5.67393e-08
4.67914e-08
-1.04093e-08
-4.20135e-08
5.24229e-08
1.1524e-08
-1.06209e-08
4.77306e-08
-4.86337e-08
1.04518e-07
2.20531e-08
-1.26571e-07
1.40793e-08
1.79658e-07
-4.33853e-07
3.861e-08
7.38081e-09
-4.59908e-08
2.28392e-08
2.39229e-08
5.90959e-10
2.48111e-08
-2.54021e-08
-4.33466e-08
-6.33782e-09
4.96844e-08
5.49032e-08
-5.07366e-08
4.22353e-08
-4.64019e-08
-1.08315e-08
-2.95016e-08
-9.25024e-09
4.34868e-09
1.00073e-08
-5.10576e-09
-2.35504e-08
1.92776e-08
4.27272e-09
5.46701e-09
6.9263e-08
2.52547e-08
-2.2508e-08
4.71213e-08
1.67849e-09
-4.87998e-08
-2.24461e-09
2.24461e-09
6.93573e-10
2.74035e-07
-2.74728e-07
5.84106e-08
1.67188e-07
-3.14893e-07
-5.79351e-09
3.20686e-07
1.69931e-08
-1.53645e-08
-1.62866e-09
4.24992e-10
-4.24991e-10
-1.90698e-08
3.36813e-08
-1.46115e-08
-2.17724e-08
-4.40226e-10
2.22126e-08
2.2063e-08
-5.54367e-10
7.93139e-10
-2.23017e-08
-1.11879e-10
5.89403e-10
-3.54505e-08
3.4973e-08
2.19511e-08
5.13563e-08
-2.49341e-08
-2.64222e-08
-8.34488e-11
1.93917e-09
-1.85572e-09
5.62881e-11
1.20677e-09
-1.26306e-09
6.50563e-08
1.7194e-08
-1.6769e-08
-6.54813e-08
-3.80236e-07
6.122e-07
4.31872e-07
-6.82549e-07
-4.22754e-08
-3.46205e-07
3.8848e-07
-2.37457e-09
2.37457e-09
-1.85166e-09
1.85166e-09
4.35473e-09
-5.69265e-08
5.25718e-08
1.59133e-08
-5.09931e-08
3.50798e-08
4.91594e-08
2.51938e-08
-7.43532e-08
-3.12807e-08
2.76489e-08
3.63187e-09
-4.53984e-09
-3.28569e-08
-6.8882e-10
-2.99935e-10
1.43921e-11
-2.35389e-11
9.14689e-12
3.83232e-08
-1.06381e-08
-2.76851e-08
-2.12953e-08
5.57074e-08
-3.44121e-08
7.24878e-09
-5.07838e-10
-2.9096e-08
-1.7674e-08
4.65525e-08
-4.21308e-08
-4.42174e-09
3.41476e-08
3.64653e-09
-3.47913e-08
3.52336e-08
4.90555e-08
-3.70871e-08
-4.72019e-08
5.10617e-09
-4.3871e-09
1.99055e-08
-2.06246e-08
1.09992e-08
-5.0318e-08
4.99628e-08
-1.0644e-08
-3.9423e-08
5.04455e-08
-1.10225e-08
2.4352e-08
-2.41128e-08
-1.8172e-09
3.3586e-08
-3.86415e-08
5.05548e-09
4.87725e-08
-3.82954e-08
1.19554e-08
-1.19136e-08
-5.08207e-11
9.00319e-12
-4.71093e-08
4.34688e-08
3.64049e-09
-4.45015e-09
-5.00036e-11
4.50016e-09
-1.6609e-06
-3.37156e-07
1.99806e-06
1.6723e-07
1.47886e-06
-1.64609e-06
-4.96833e-08
3.73675e-08
1.23158e-08
4.0766e-08
3.12364e-09
-4.11921e-08
-2.69747e-09
3.15572e-07
-2.07711e-07
2.91539e-07
-3.994e-07
9.95295e-08
-7.33702e-08
4.78329e-09
-4.84787e-09
-1.851e-08
1.85745e-08
4.64971e-08
-1.40361e-07
-1.58577e-08
4.75943e-08
4.28146e-07
-2.06307e-08
-3.10584e-08
-3.51252e-07
-1.10019e-06
1.45144e-06
4.6697e-08
1.73137e-09
-4.84284e-08
2.13213e-09
3.55321e-08
-3.76642e-08
2.71097e-10
-2.13494e-08
2.10783e-08
-7.68529e-07
1.19668e-06
-4.9987e-08
-8.0499e-09
5.80369e-08
-2.78232e-09
2.72927e-09
5.30455e-11
1.16736e-09
2.48841e-08
2.3817e-08
-4.85655e-08
-2.42647e-08
4.90132e-08
1.81813e-08
-4.51707e-08
2.69893e-08
3.33836e-08
6.83451e-09
-4.02181e-08
-4.00234e-09
1.37623e-08
-9.76001e-09
5.30425e-08
-5.01038e-08
-2.9387e-09
-5.22058e-09
-3.96947e-08
4.49153e-08
1.10883e-09
-1.62452e-08
1.51363e-08
-4.20002e-08
1.69943e-08
4.28356e-08
-3.236e-08
3.14913e-08
3.10917e-08
-3.02231e-08
4.20626e-08
-6.10661e-10
-4.23281e-08
8.76092e-10
7.55067e-09
2.80252e-08
-3.55758e-08
-3.87893e-08
3.80758e-08
8.26416e-09
-2.32782e-08
2.81027e-08
-4.82456e-09
3.59755e-09
-3.45338e-10
-3.73421e-10
2.29142e-08
-2.25408e-08
-9.52606e-09
9.00903e-09
5.17026e-10
-3.1806e-08
3.27027e-08
-8.96681e-10
1.78101e-08
9.59935e-09
-2.17446e-08
8.36002e-09
-9.90032e-09
2.32849e-08
-1.08976e-08
5.31196e-09
-5.0798e-09
-1.6706e-08
1.54462e-08
-2.10339e-08
-1.34378e-08
2.74722e-08
-3.51548e-09
-2.39567e-08
6.87787e-09
-7.38273e-09
3.38885e-08
-1.56188e-08
-5.00922e-08
1.491e-08
5.08009e-08
-2.40446e-09
2.81037e-07
5.02646e-08
-8.32516e-08
2.0242e-06
-1.79185e-06
-6.51199e-08
-3.33894e-07
3.33894e-07
-1.98985e-08
3.9562e-08
-1.96635e-08
4.21265e-08
2.71365e-08
1.31695e-09
-1.78611e-09
2.39149e-09
-3.17883e-08
2.37819e-09
-1.81112e-09
3.12213e-08
3.91633e-10
7.3583e-11
-4.65216e-10
-4.58178e-09
4.58178e-09
1.48602e-09
-1.5629e-08
1.4143e-08
-5.45702e-07
-2.19258e-06
5.07877e-07
2.23041e-06
-4.13731e-07
1.6852e-07
2.45211e-07
-2.9171e-07
1.06956e-06
-3.27801e-08
6.93945e-08
-3.66144e-08
-1.56167e-07
3.97747e-08
-2.97339e-07
-1.34067e-08
-4.45448e-08
1.84175e-08
-5.57158e-08
5.4728e-08
-1.74297e-08
-5.23899e-08
4.86309e-08
3.75908e-09
4.88976e-08
-5.12594e-08
2.36182e-09
2.48005e-08
-3.46438e-08
-2.47035e-08
3.45468e-08
-1.17428e-08
2.65135e-10
1.05505e-10
1.13722e-08
5.09319e-08
7.69961e-09
-7.98961e-09
-3.75321e-09
4.06865e-07
-2.59295e-07
-3.20686e-07
3.6181e-11
7.37431e-09
-7.32093e-09
-7.99463e-07
2.27832e-06
1.19634e-09
2.62758e-08
-2.08828e-09
3.05773e-11
1.71566e-06
-9.18733e-07
-1.59639e-06
4.90679e-08
4.44592e-09
-4.35444e-09
4.63222e-08
-1.38616e-08
1.41585e-08
-4.66191e-08
1.08051e-09
-3.58792e-09
1.7167e-08
-1.35791e-08
-1.31363e-08
2.19004e-08
-2.22302e-08
-1.42801e-10
4.72552e-10
-1.15214e-09
4.74743e-08
-9.32849e-09
-1.56913e-09
1.14257e-08
2.89625e-08
-1.66116e-08
7.2831e-09
8.11034e-09
-1.75958e-08
-7.12617e-09
9.53252e-09
-1.42217e-09
4.09461e-08
-3.83552e-08
-2.59097e-09
8.61001e-09
8.2056e-09
-4.04387e-08
-2.27959e-09
4.02514e-08
2.46693e-09
5.07431e-10
7.94199e-09
4.3044e-09
-1.56481e-08
-6.09648e-09
-1.03568e-10
2.28209e-10
-1.24641e-10
-4.08661e-08
6.1173e-08
-2.03069e-08
3.81969e-09
-3.32043e-08
2.93846e-08
-3.31525e-08
-2.94354e-08
3.52393e-08
2.73487e-08
-2.9433e-08
3.07112e-08
-3.3184e-08
3.19058e-08
7.87109e-09
6.07334e-08
-5.98872e-08
-8.71726e-09
4.73313e-07
5.81191e-07
-7.71517e-07
-3.04156e-07
-3.08148e-08
4.21943e-07
-3.94546e-07
3.96751e-08
6.97569e-08
-5.03276e-08
4.66175e-08
-6.60467e-08
-3.81016e-08
-5.84311e-08
6.37525e-08
-6.46717e-08
2.65701e-08
3.37068e-08
1.99073e-08
-3.02522e-08
-2.33619e-08
2.95472e-08
-5.98627e-08
-3.43562e-08
-2.88839e-08
3.35773e-08
-6.06972e-09
-2.75076e-08
-2.78308e-08
-6.99171e-09
2.8633e-08
6.18956e-09
5.74647e-09
-1.79818e-08
4.17988e-08
-4.12287e-08
3.4237e-08
3.41227e-07
-7.29435e-07
-2.83963e-07
6.72171e-07
3.31534e-09
2.23801e-10
-3.54384e-09
4.69968e-12
4.77776e-08
1.29031e-09
2.9603e-09
5.25695e-09
-8.28754e-09
3.84488e-08
-3.79469e-08
9.95359e-09
-3.07779e-08
2.54355e-09
-2.53052e-08
2.58344e-08
-3.07274e-09
-2.11448e-09
1.57001e-08
1.29319e-09
-1.48788e-08
7.38033e-09
-7.38033e-09
-1.55215e-08
1.62519e-08
2.39683e-09
1.63589e-08
-1.03606e-08
-1.69088e-08
1.09104e-08
1.18829e-10
1.78917e-09
-1.908e-09
4.53152e-08
-2.16964e-08
3.82058e-08
2.37178e-08
1.09804e-11
1.19131e-09
-1.20229e-09
-6.61628e-08
4.17865e-08
2.43764e-08
-1.45789e-08
1.51365e-08
-5.57629e-10
3.71587e-08
3.09865e-08
-2.99394e-08
5.91814e-09
-7.49018e-09
-4.84132e-08
1.22474e-08
3.61657e-08
-2.69264e-08
2.82596e-08
2.18914e-08
-2.19656e-08
1.18311e-09
1.19124e-11
-3.46675e-08
3.41105e-08
5.45101e-10
1.13321e-07
6.62657e-07
-1.9602e-09
1.04476e-10
1.85572e-09
-2.91003e-07
-2.71542e-07
5.62545e-07
1.18694e-07
-3.16165e-08
-8.70778e-08
2.79063e-10
1.58232e-08
5.06753e-11
-1.57935e-08
2.15009e-10
1.55785e-08
6.56085e-09
-6.65689e-09
4.96426e-11
4.63915e-11
-3.96208e-10
4.29754e-10
7.89989e-10
-4.31889e-10
-4.44805e-10
8.67052e-11
-5.1551e-07
5.71451e-07
-4.74997e-07
5.37831e-07
7.51458e-07
-2.34772e-07
-2.55189e-08
-3.6095e-09
2.91284e-08
-2.70982e-08
3.15398e-08
-4.4415e-09
-4.29281e-09
3.57357e-08
-3.14429e-08
4.21021e-09
-3.11038e-08
2.68936e-08
-4.74191e-07
2.88667e-08
4.45324e-07
-1.01586e-07
-5.2638e-08
4.7045e-08
-2.3055e-08
-3.41434e-08
5.71984e-08
-1.58825e-06
-1.80925e-08
1.73146e-08
7.77909e-10
1.14763e-09
2.4963e-08
-2.51827e-08
-9.27953e-10
-5.78974e-08
5.5045e-08
-5.06064e-08
5.34588e-08
2.61003e-08
-4.19312e-08
1.58309e-08
-6.74307e-11
-5.51636e-09
5.5838e-09
2.96755e-08
-4.69689e-08
1.72934e-08
1.92502e-08
3.02175e-08
-1.97921e-08
-2.78925e-08
5.23484e-08
-2.44559e-08
-2.50817e-07
2.5371e-07
3.83952e-07
-3.86845e-07
1.12203e-08
-5.75794e-10
-1.06445e-08
-2.08686e-08
2.35762e-08
-2.00898e-08
-3.4864e-09
3.28239e-09
-1.22469e-09
-1.43765e-08
-3.11037e-08
4.54802e-08
2.00567e-08
-1.41688e-09
8.77096e-11
-9.49785e-09
9.52896e-09
-2.52274e-12
1.14022e-11
-8.87933e-12
2.19669e-06
-1.14828e-06
-1.04841e-06
-2.69645e-09
-1.83375e-08
-1.0058e-08
-5.23385e-08
1.00066e-08
1.9055e-08
-2.69608e-09
-5.82738e-09
4.79294e-09
-1.715e-07
-6.48165e-07
8.19665e-07
1.28401e-11
-1.284e-11
-3.75252e-07
1.12708e-06
-7.51831e-07
-2.668e-07
9.31765e-07
-1.04022e-06
-9.89597e-07
7.22797e-07
-1.01056e-09
1.04496e-09
-3.43974e-11
-1.54381e-07
-1.00542e-07
2.54924e-07
-1.04672e-08
-1.96044e-09
-3.79783e-08
-2.53049e-08
3.80696e-08
2.52136e-08
-2.16615e-09
2.16615e-09
-3.63183e-08
-1.03854e-08
4.67037e-08
-2.37524e-11
2.37525e-11
1.9171e-09
1.63052e-08
-1.48804e-08
-1.79545e-07
1.94426e-07
1.87532e-08
4.01401e-07
-2.59639e-07
-3.87538e-07
3.48063e-08
-1.72994e-08
7.26669e-09
-2.47736e-08
-3.9564e-09
7.83592e-11
3.87804e-09
2.86637e-08
-2.89317e-08
2.32454e-08
4.84551e-10
-5.35377e-10
1.70103e-08
-3.5552e-08
-1.02253e-09
3.54224e-08
4.4982e-09
-4.4982e-09
6.55649e-08
-1.77873e-08
-1.85277e-06
1.68797e-06
1.66965e-06
-1.50486e-06
1.76978e-08
-2.02565e-08
-6.02731e-08
6.28319e-08
-5.45985e-08
4.26672e-08
-4.40475e-08
5.59788e-08
2.90054e-08
-2.24277e-08
-2.95579e-08
2.29803e-08
5.98315e-08
-2.87782e-08
-3.10533e-08
-5.37776e-08
4.37196e-08
-3.8589e-08
2.85005e-09
3.5739e-08
5.36793e-07
1.50669e-07
8.20453e-09
-8.24201e-10
-1.28169e-08
1.883e-08
-6.01309e-09
8.95324e-09
2.63418e-08
-3.5295e-08
5.32709e-10
8.1352e-09
-8.66791e-09
-8.00302e-10
-1.75118e-08
1.83121e-08
1.95086e-08
1.91959e-08
1.30208e-08
1.57351e-08
-2.87558e-08
-4.90522e-09
-7.93965e-09
-2.39257e-08
2.57206e-08
-1.79489e-09
-1.97916e-11
1.23654e-09
-1.21674e-09
5.61038e-08
-5.34177e-08
-5.0199e-08
4.75129e-08
-6.11478e-08
3.43827e-08
1.02567e-08
-4.23525e-09
4.09391e-08
4.60003e-09
2.5888e-11
-2.19204e-09
5.17126e-09
-3.52747e-08
3.47798e-08
-4.67641e-09
1.19982e-08
-1.25765e-08
-3.41709e-08
-4.79951e-07
3.59505e-07
-2.44748e-08
-4.11482e-08
2.36918e-08
-1.81981e-07
2.76007e-08
-8.24865e-08
-6.11937e-07
6.94423e-07
2.43409e-07
7.04343e-09
-2.50453e-07
1.99636e-07
-9.50947e-08
-1.97361e-07
9.28199e-08
-2.95309e-07
2.33588e-07
6.17208e-08
-4.09897e-07
-6.42937e-08
-2.05796e-08
-1.92385e-07
2.12965e-07
4.10301e-07
-4.53948e-07
-2.14184e-07
2.60071e-07
-4.58872e-08
3.63882e-07
-3.0482e-07
-2.45988e-08
-3.43508e-08
4.45015e-09
-4.43914e-09
-1.10151e-11
1.18782e-08
-1.26358e-08
-5.87693e-08
-3.98906e-08
3.40488e-08
5.84179e-09
-3.56898e-08
1.34808e-09
3.43418e-08
-1.03807e-10
-1.51169e-08
1.52207e-08
1.0602e-06
-9.28514e-07
5.8418e-08
8.16282e-10
-5.92343e-08
-3.067e-10
1.22621e-08
6.55372e-08
4.38248e-09
1.37381e-09
-1.14987e-09
-1.48028e-08
8.23239e-09
-7.89771e-09
-3.34675e-10
2.36636e-08
-1.71983e-08
-6.46529e-09
-2.72519e-08
3.2358e-08
2.14112e-08
-2.57983e-08
3.79186e-11
-3.61955e-10
-3.86905e-11
-1.635e-09
-5.35769e-11
5.72481e-09
-5.67123e-09
-4.00537e-08
-1.45448e-08
4.71709e-08
-4.04068e-08
4.0622e-08
-4.7386e-08
-4.30033e-08
-2.11333e-08
2.07901e-08
3.61075e-10
-1.19933e-08
1.21322e-08
-1.0218e-10
6.96773e-09
-7.04349e-09
-1.24242e-08
2.87187e-08
-1.62944e-08
-2.6783e-08
6.04898e-08
-4.13424e-08
2.95273e-08
1.18152e-08
-4.72195e-08
5.81007e-09
4.6829e-08
-5.41962e-09
-2.67883e-08
2.77847e-08
-5.74498e-08
2.50897e-08
-3.5445e-07
3.54449e-07
-2.35105e-08
-2.2789e-08
4.62995e-08
2.08928e-08
2.44224e-08
4.68979e-08
2.46132e-08
-2.05012e-08
4.20405e-08
-2.15393e-08
-5.69047e-07
-3.29272e-07
7.38852e-08
-1.8982e-08
2.64837e-08
-8.95256e-11
-1.22611e-09
1.31563e-09
1.37624e-08
-4.5852e-11
-1.42868e-08
-2.06612e-08
3.0579e-09
-3.68817e-09
2.12915e-08
-5.72517e-08
-8.83768e-09
6.60894e-08
-2.04698e-08
1.12196e-08
5.81354e-08
-2.03162e-09
2.84987e-08
-1.49946e-08
-1.35041e-08
6.2068e-08
-1.46248e-07
9.76003e-09
7.44202e-08
-3.31465e-10
3.48143e-08
2.94557e-10
6.06407e-08
-6.25519e-08
2.43804e-08
-2.24692e-08
-3.44235e-08
-1.94401e-08
5.38635e-08
4.70978e-07
2.8048e-07
-3.74338e-08
3.22597e-08
5.1741e-09
6.42446e-10
-5.68907e-10
-3.75073e-08
-1.60266e-08
4.82863e-08
2.62037e-07
1.55315e-07
-3.70854e-07
-1.8519e-08
4.45736e-08
-4.20812e-08
5.01717e-08
-4.6912e-08
-3.25973e-09
4.80257e-07
5.79943e-07
-4.74725e-08
5.5801e-08
-8.32852e-09
7.75295e-08
3.51673e-08
-3.26318e-08
-8.0065e-08
-2.46122e-09
-2.93271e-08
1.99548e-08
5.75748e-08
-3.02688e-08
-1.04621e-07
1.3489e-07
-3.15248e-08
7.41363e-08
-3.1785e-07
3.08677e-07
9.17201e-09
-3.50083e-08
5.34225e-09
2.9666e-08
-3.73828e-08
-9.35417e-09
4.6737e-08
5.74371e-09
-2.96144e-08
2.38707e-08
7.36513e-07
-1.30556e-06
5.22419e-08
-3.34434e-09
-3.62817e-07
4.12736e-07
-4.01043e-08
3.22012e-08
7.90305e-09
1.46538e-08
-2.86544e-08
1.40006e-08
-1.83259e-08
1.46925e-09
-3.93735e-09
-9.1989e-09
4.13379e-07
-4.11827e-07
-1.55244e-09
-1.11466e-08
-3.01958e-08
-1.20007e-08
3.59071e-08
-3.5053e-08
-5.58342e-09
5.45609e-09
-3.3109e-08
3.32363e-08
-3.78729e-08
4.90092e-10
3.01624e-08
-3.57458e-08
3.85234e-08
2.02671e-09
-1.27915e-08
1.21252e-08
-3.11308e-08
3.17971e-08
2.57319e-08
-1.82372e-08
-2.27848e-09
2.23679e-11
-3.27706e-08
-3.585e-09
3.63556e-08
-6.87868e-09
2.14699e-08
-1.02479e-08
2.35843e-08
-4.20914e-07
2.90716e-07
-2.90716e-07
1.9416e-08
-3.9183e-08
1.97671e-08
-5.00242e-08
6.55808e-08
-1.55566e-08
-4.80194e-09
4.13448e-08
-4.4241e-08
4.50227e-08
1.05767e-08
5.54725e-09
-1.61239e-08
4.26784e-08
-2.39955e-07
1.97277e-07
-1.5575e-08
2.85957e-08
2.12096e-07
-2.81638e-07
3.66158e-07
-2.96616e-07
-1.42158e-08
1.30466e-08
1.16923e-09
2.35419e-08
-4.80168e-08
-2.98031e-07
2.95627e-07
-2.84009e-07
-2.91918e-07
2.0999e-07
3.65937e-07
2.27742e-09
-2.32525e-09
-3.19655e-08
1.40189e-08
-1.33341e-08
-3.65937e-07
-2.28874e-08
4.64293e-08
1.33785e-08
-1.19119e-09
-2.0233e-08
1.965e-08
-4.74337e-08
-3.31049e-08
4.74293e-08
4.74e-08
-6.17244e-08
-1.62679e-09
-1.51339e-09
2.06672e-09
1.07346e-09
-2.30882e-08
2.23891e-08
-2.23559e-08
-2.69259e-08
-2.27964e-08
4.97223e-08
-2.34839e-07
1.9224e-07
-5.54528e-08
1.74745e-08
-7.94808e-09
3.4467e-08
-3.4509e-08
7.99012e-09
-4.99483e-08
-1.30595e-06
2.05502e-07
1.10045e-06
5.14613e-08
3.16841e-08
-5.15865e-08
1.99024e-08
-1.31442e-08
-5.05426e-08
5.02801e-08
1.30964e-06
-1.19063e-06
1.31139e-07
-2.50151e-07
2.80303e-07
-1.69269e-09
1.69269e-09
-5.49713e-07
-4.66219e-07
1.01593e-06
-1.34346e-06
-1.58432e-06
5.78944e-09
-1.05899e-11
-5.77885e-09
-3.43634e-07
3.31513e-07
-4.32895e-08
7.99951e-08
-2.84275e-07
2.47569e-07
-5.51256e-08
-1.61559e-08
5.34942e-08
4.07093e-07
-3.64414e-07
3.67197e-08
-6.36461e-08
-5.5751e-08
-2.361e-07
3.80275e-08
2.53823e-07
-1.00126e-07
6.41758e-08
3.59501e-08
-5.38519e-08
-1.48025e-08
9.42205e-07
-1.18537e-06
-1.08083e-07
1.85895e-08
-1.74418e-08
-4.90033e-09
-6.19224e-08
4.87782e-08
2.91041e-08
-2.3648e-08
-2.91724e-08
2.84879e-08
-1.60801e-08
1.61444e-08
5.65166e-08
-3.66094e-08
1.16974e-08
-2.21645e-08
1.16168e-08
-3.48974e-08
2.32807e-08
1.9489e-08
-1.81119e-08
2.15462e-08
-1.37004e-09
7.69431e-09
-3.50706e-07
3.50706e-07
1.36309e-08
-7.15283e-08
-5.99124e-08
4.15314e-09
-3.68287e-09
5.94421e-08
-5.67586e-08
6.12361e-08
2.4045e-08
-8.15998e-09
-4.87665e-08
-1.62736e-09
-5.8285e-08
2.58785e-09
-4.58031e-08
4.32153e-08
-4.82095e-08
5.03754e-08
-2.16597e-09
-1.69391e-09
-3.07691e-08
3.2463e-08
1.60846e-10
-4.55231e-08
4.46797e-08
-4.52551e-08
4.46444e-08
-5.77986e-08
3.7787e-08
2.00115e-08
4.30721e-10
4.82196e-10
-5.87115e-08
-1.45404e-09
1.37417e-09
7.98693e-11
1.16144e-08
3.75663e-08
-4.91807e-08
-1.45404e-09
1.44359e-09
-6.94246e-11
9.28527e-11
-1.26926e-09
-3.91098e-08
-6.14527e-09
1.05894e-08
4.43117e-08
5.94288e-09
-2.2694e-11
-1.42056e-10
-5.77813e-09
2.37967e-09
3.48011e-08
-3.71808e-08
-1.00855e-11
-6.03636e-11
-7.15158e-10
7.85608e-10
1.0917e-10
-1.0917e-10
-9.18602e-11
8.17748e-11
1.42758e-09
-5.69654e-10
1.60296e-10
-1.01822e-09
3.68108e-10
-3.72372e-08
3.68691e-08
1.30155e-10
-5.37042e-10
2.45945e-07
-1.48339e-07
-3.88609e-07
-2.66052e-10
-2.66052e-10
3.80284e-09
-4.03324e-08
-4.79114e-09
4.13207e-08
2.32581e-08
-1.94553e-08
-4.03598e-08
4.05198e-08
2.21964e-09
-3.54473e-09
-6.58378e-10
1.04164e-09
-3.92799e-09
-2.15707e-10
-4.56021e-08
3.81771e-09
4.17843e-08
-1.04203e-09
4.30051e-10
-1.03182e-10
1.1439e-07
-1.14752e-07
3.62449e-10
-3.16935e-07
3.16935e-07
5.07814e-08
-4.0192e-08
-6.18167e-09
6.08663e-09
1.33453e-09
-4.98207e-08
-1.19713e-09
2.57627e-09
-1.29201e-08
1.03439e-08
-7.29652e-08
3.34335e-08
3.55476e-08
3.83376e-08
7.9388e-08
2.05519e-06
-4.45997e-08
4.48055e-09
4.45054e-08
-1.58854e-08
2.02341e-08
1.10469e-06
1.26947e-06
9.17484e-09
-9.17484e-09
9.70303e-10
-9.70454e-09
1.02301e-08
-1.49587e-09
3.59986e-07
-3.59986e-07
8.97346e-08
-5.45673e-08
-4.5681e-08
1.14256e-08
3.42555e-08
-1.57247e-08
-1.79775e-08
4.96842e-08
-3.17067e-08
3.95631e-08
1.26789e-08
6.32283e-08
3.05524e-08
-5.92058e-08
-3.45748e-08
3.48753e-08
-3.95421e-08
-4.53202e-08
-3.52528e-08
5.8092e-08
-2.89947e-08
-1.73848e-08
4.63796e-08
-3.59036e-08
-5.64698e-08
4.0915e-08
5.14583e-08
3.99971e-08
-4.82847e-08
-9.7797e-07
1.15165e-06
-5.49924e-08
1.08246e-08
4.41678e-08
-3.6832e-08
-1.20692e-08
4.89012e-08
-4.23223e-08
4.71056e-08
4.47642e-08
-4.51411e-08
1.71115e-08
-1.67345e-08
3.08309e-08
1.39332e-08
2.17425e-08
-1.91989e-08
4.39611e-08
-3.18359e-08
4.1186e-08
-1.44035e-09
6.79311e-09
-5.35373e-08
-7.03346e-09
1.35848e-09
-4.87163e-08
-8.01536e-07
2.55526e-07
3.29841e-07
-5.63299e-07
1.01144e-06
-4.48141e-07
-9.54132e-07
-3.66154e-07
7.56987e-07
-1.69005e-06
9.44412e-07
7.45636e-07
6.52598e-11
-1.61709e-11
-3.4213e-07
3.85568e-07
-3.58578e-07
3.99541e-07
-4.09639e-08
-1.18966e-06
4.63011e-07
7.26645e-07
-1.20515e-08
1.12385e-08
1.62578e-09
-3.08826e-10
-6.05837e-09
4.86861e-09
-3.66831e-08
2.12913e-08
3.1023e-08
-2.16e-08
-3.07142e-08
-9.18602e-11
-3.53216e-09
9.01479e-09
-2.62751e-11
4.03144e-07
-3.54445e-07
-4.8699e-08
-1.13251e-11
2.35389e-11
-1.22137e-11
-1.08519e-09
1.03504e-09
5.01509e-11
-2.56782e-07
2.58465e-07
-3.88186e-07
3.86503e-07
-3.97331e-08
-2.595e-09
-7.82013e-10
2.5134e-08
-8.34443e-10
-3.91961e-08
4.00305e-08
2.37039e-11
-6.55012e-11
-7.92918e-09
7.97098e-09
3.54303e-08
1.05086e-09
-2.30251e-09
2.25077e-10
1.62089e-08
-1.59981e-08
-2.10716e-10
2.39697e-08
3.608e-08
-3.63319e-08
-1.39259e-08
4.90402e-08
-3.51143e-08
-1.02882e-09
1.26333e-08
7.75899e-10
-1.23804e-08
3.15572e-07
3.23307e-08
-3.15178e-08
-8.12917e-10
-6.95825e-12
-1.0036e-09
1.01056e-09
2.51767e-07
-4.03639e-08
7.41461e-08
-2.85549e-07
-1.35779e-08
2.37662e-09
1.30355e-08
-1.83418e-09
1.13897e-09
-1.18235e-09
9.9969e-10