/*--------------------------------*- C++ -*----------------------------------*\
| =========                 |                                                 |
| \\      /  F ield         | OpenFOAM: The Open Source CFD Toolbox           |
|  \\    /   O peration     | Version:  v2006                                 |
|   \\  /    A nd           | Website:  www.openfoam.com                      |
|    \\/     M anipulation  |                                                 |
\*---------------------------------------------------------------------------*/
FoamFile
{
    version     2.0;
    format      ascii;
    class       volVectorField;
    location    "0.02";
    object      U;
}
// * * * * * * * * * * * * * * * * * * * * * * * * * * * * * * * * * * * * * //

dimensions      [0 1 -1 0 0 0 0];


internalField   nonuniform List<vector> 
3575
(
(-0.00719312 -0.000381168 -0.161819)
(0.000187967 8.97087e-07 -0.184578)
(-4.12574 -0.565615 -63.5273)
(-0.00153124 -9.53653e-05 -0.160874)
(-0.00744111 0.00198056 -0.15026)
(-7.00313e-05 -0.000614686 -0.0319615)
(0.00142602 -0.00142025 -0.0113866)
(-0.00130769 -0.000906485 -0.00976006)
(-0.365938 -0.00824578 -0.91181)
(-0.000303754 8.86747e-05 -0.00107368)
(-0.00078253 2.02422e-05 -0.00674222)
(-0.00393608 0.00630573 -0.0735534)
(-0.0644814 -0.00336322 -0.457527)
(-0.000130756 1.10699e-05 -0.0020554)
(-0.000878902 -7.44506e-05 -0.00242307)
(-0.0123272 0.000171357 -0.00185249)
(-0.0100838 0.000458584 -0.00113818)
(-0.022088 -0.00170794 -0.00476619)
(-0.0198345 -0.00239332 -0.00388443)
(-0.456205 -0.00956166 -0.182567)
(-0.367156 -0.0226443 -0.0974304)
(-0.000247229 -9.69844e-05 -0.00327586)
(-4.87124e-05 8.48457e-05 -0.000372922)
(-0.013071 0.000214605 -0.0146823)
(0.474205 0.0479197 -51.6492)
(0.0058956 0.000138071 -0.149957)
(-0.0017212 -0.000849413 -0.109597)
(-0.00318303 5.79664e-05 -0.107259)
(-0.00245758 0.000260242 -0.0958473)
(-0.00148985 -0.00183874 -0.0125695)
(-0.00324721 -0.00190528 -0.0774835)
(-0.00289242 -0.000422881 -0.0115619)
(-0.000521762 -9.63768e-06 -0.184493)
(0.00265575 5.04129e-05 -0.182194)
(-0.000775286 0.000984176 -0.0164893)
(-0.195997 -0.00445693 -0.0154076)
(-0.0899903 -0.000247752 -0.0169668)
(-0.250015 -0.00649804 -0.02931)
(-1.08457 0.317396 -26.478)
(-0.782815 0.526552 -24.1339)
(-0.000626484 -0.00164067 -0.0914227)
(-0.45044 -0.0978853 -42.0168)
(-0.0219232 -0.000298436 -0.169707)
(0.696407 0.28729 -35.3605)
(-0.00311503 0.00101503 -0.0577638)
(-0.000223864 -0.000135327 -0.00874449)
(19.1931 1.03037 0.837266)
(-0.0308166 -0.000586009 -0.0419828)
(-0.00846204 -0.000291683 -0.163497)
(0.329631 -0.0264329 -40.17)
(6.51353 1.10617 0.770326)
(2.48777 0.0505002 2.02624)
(-0.0190257 -0.00135478 -0.2106)
(16.8912 1.35038 0.457138)
(-0.054566 -0.00384553 -0.323332)
(-0.0110177 0.00078681 -0.0633439)
(-0.214374 -0.0146509 -0.112677)
(-0.00590112 -0.000268641 -0.192222)
(-0.103496 -0.00623933 -0.412673)
(-3.78199 -0.133061 -6.83923)
(-0.565525 -0.14283 -38.4916)
(-0.0959424 -0.0033704 -0.417976)
(-1.10283 -0.0930127 1.61985)
(-0.0374537 -0.000500754 -0.250662)
(-0.0382634 -0.00172919 -0.250053)
(0.00771145 0.000311704 -0.183109)
(-0.0412557 -0.00294074 -0.256151)
(-0.00165044 7.47288e-05 -0.000506156)
(0.00231224 0.00010808 -0.141141)
(-0.0043532 -0.000249706 -0.0110452)
(-0.0856983 -0.00630151 -0.41548)
(18.0244 0.691793 0.403745)
(27.524 1.45812 1.20593)
(1.87272 0.468696 -0.302061)
(-0.0390264 -0.00239897 -0.269815)
(16.9255 0.322997 0.120081)
(3.07272 0.184011 -32.8389)
(-0.970538 -0.0167816 -2.05036)
(-0.00123107 -0.000922448 -0.00932178)
(-0.00409292 -7.5369e-05 -0.169801)
(-0.000488917 0.000402473 -0.0134485)
(11.7416 0.915158 2.7296)
(-0.00445591 -0.000161043 -0.169888)
(-0.00383361 -0.000163927 -0.171028)
(-0.8703 0.262405 -39.9263)
(-0.626067 -0.0143448 -0.505019)
(-0.00412556 -0.000203558 -0.17107)
(-0.00252002 0.00297732 -0.0619287)
(-0.0768922 -0.00127252 -0.0902888)
(-0.00416079 -0.00184117 -0.0797876)
(-0.00496111 -4.24208e-05 -0.128576)
(-0.00408485 -0.00126701 -0.0802968)
(0.000825445 5.20885e-05 -0.186522)
(0.000860573 2.15833e-05 -0.186491)
(0.000879582 4.20444e-05 -0.186012)
(-0.00342276 0.00155144 -0.0976765)
(-6.78455e-05 1.91255e-06 -0.00750009)
(1.19303 -0.0730422 4.58067)
(-0.0369915 -0.000524127 -0.0942647)
(-0.00463757 0.00139889 -0.0556912)
(0.00366924 0.000116926 -0.182949)
(0.00308755 0.000178688 -0.184693)
(-0.00374776 0.00253435 -0.0577373)
(-0.000371825 0.000244353 -0.0317134)
(-0.0014005 0.0032327 -0.0509333)
(0.00237335 0.00260607 -0.0495129)
(0.00182163 0.00143215 -0.013085)
(-0.00163165 -0.001768 -0.0115688)
(6.5335e-05 0.00170649 -0.0491941)
(0.00279258 0.000179912 -0.179918)
(-0.00198266 0.00149821 -0.054573)
(-0.00190186 0.00145767 -0.0519692)
(0.287765 0.0268603 -42.3375)
(0.225319 0.115332 -36.4693)
(0.840921 0.100307 -33.2533)
(-0.400679 0.568378 -25.8014)
(-1.3187 0.0303987 1.14189)
(-1.17326 0.397168 -28.7391)
(-0.00516843 0.000735466 -0.00655841)
(-0.00851071 0.000104902 -0.0431664)
(-0.000894427 -0.00106052 -0.0688287)
(-0.00292183 4.07117e-06 -0.00295496)
(-0.770259 -0.0178175 -0.317919)
(-0.000642609 0.000530319 -0.00854231)
(-0.083009 -0.00533076 -0.00844906)
(-0.686216 -0.0453652 -0.303741)
(-0.200081 -0.01523 -0.0238477)
(-0.271315 -0.0241484 -0.0385877)
(-0.177218 -0.00240695 -0.0321251)
(-0.722953 -0.0476121 -0.40614)
(-0.000154037 -0.00195537 -0.021238)
(-0.829022 -0.0195708 -0.477405)
(0.466677 0.0245559 -42.5615)
(-0.785021 -0.0502873 -0.509514)
(-0.0210026 0.000333809 -0.036372)
(3.46712 0.827224 1.0441)
(-0.0255609 -0.00225574 -0.0359105)
(-0.011791 0.00124031 -0.0280576)
(-0.0372192 -0.000221574 -0.103301)
(-0.00868588 0.00028155 -0.022306)
(-0.00477685 0.000113967 -0.00484895)
(-0.769488 -0.011922 -0.350314)
(0.000167211 -1.30272e-05 -1.85289e-05)
(-0.00916736 0.00201026 -0.119887)
(-0.189219 -0.0132764 -0.170076)
(0.118165 0.0150985 -53.9758)
(-0.690494 -0.031125 -0.349377)
(0.707205 -0.894461 3.95316)
(1.62637 -0.800382 0.331977)
(0.365365 -0.000323503 -52.9937)
(4.09786 -0.0168209 1.99453)
(1.57621 -0.369078 8.29152)
(2.01906 -0.0272218 7.67789)
(3.99156 0.180873 8.06991)
(15.9821 1.05053 6.38726)
(-0.00653528 -0.000447329 -0.166503)
(-0.00298473 -0.00170216 -0.0752066)
(-0.000836609 -0.00199739 -0.0716876)
(6.82349 -0.58925 1.2784)
(-0.0454718 -0.00150977 -0.180737)
(0.0018868 -0.00140481 -0.012822)
(-0.00745002 -0.000487565 -0.156342)
(-4.11807 -0.11763 -4.07063)
(-0.0781338 -0.00157486 -0.0397378)
(-0.000454845 -6.13624e-05 -0.000290412)
(0.000187817 0.00105059 -0.0881965)
(-27.8767 -2.12924 -45.9048)
(-0.0448024 -0.126702 -37.1944)
(0.814772 0.056806 -42.0563)
(0.000914974 0.00230328 -0.0756111)
(-0.000276625 0.0004016 -0.0147727)
(-0.0166497 -0.00116543 -0.158664)
(-0.0217629 -0.00161113 -0.0127989)
(-0.00275938 -0.00157086 -0.0726349)
(-0.228246 -0.130547 -41.5639)
(-0.895471 -0.0606852 -1.15272)
(-0.006377 -0.000664456 -0.00523804)
(0.000132732 -0.000523255 -0.0565612)
(-0.198094 -0.259272 16.964)
(2.02972 0.184993 -54.876)
(18.2281 0.348463 1.33569)
(0.866994 0.0315292 -56.0804)
(-0.3984 -0.0267757 -1.05244)
(-0.000622966 -0.00261889 -0.0939354)
(-0.00285941 -0.00176017 -0.0917718)
(-0.0709117 -0.00447627 -0.0145221)
(-6.61636e-05 -0.000142607 -0.000275404)
(-0.128147 -0.00545393 -0.0743649)
(-0.00352374 -0.00109875 -0.125163)
(0.00232033 0.000120242 -0.182541)
(-0.0367263 -0.00295757 -0.0175464)
(-0.00362884 -0.000247934 -0.180431)
(-0.00906109 0.000739001 -0.0119269)
(-4.50322 -0.188117 -3.71441)
(-0.0058856 -0.000413753 -0.183246)
(-0.00125139 0.00154264 -0.00878928)
(0.000279599 0.00167408 -0.0338746)
(-0.00525364 0.00246793 -0.10101)
(-0.00433764 0.00245682 -0.102709)
(-0.111421 -0.00709096 -0.6)
(-0.0265817 -0.09882 -42.043)
(-0.0723379 -0.0054774 -0.0251172)
(-0.156116 -0.00797714 -0.677402)
(-0.123652 -0.00406723 -0.653955)
(-0.173287 -0.0129737 -1.47446)
(0.14458 0.0009087 -0.624588)
(-0.0583879 -0.00286308 -0.0104443)
(-0.069246 -0.00228398 -0.0154967)
(-0.0880721 -0.0063058 -0.0284841)
(-0.0795826 -0.00364763 -0.0211025)
(-0.00308605 -0.00210862 -0.0465785)
(0.00199418 0.00298576 -0.0457992)
(-0.00220176 0.00600536 -0.0481051)
(0.00102195 -0.000330283 -0.0144625)
(-6.20744e-05 -6.0294e-05 -0.00816102)
(-0.0907571 -0.00163276 -0.025452)
(-0.0103087 0.0021314 -0.0155738)
(6.43433 0.182169 -41.603)
(-0.974251 -0.0286791 -0.666397)
(-0.0425537 -0.00186193 -0.170659)
(-11.0677 -0.471747 -13.8984)
(-0.00566174 -0.0003812 -0.17093)
(-0.00438284 0.00274957 -0.0527248)
(9.03553 0.310897 1.14182)
(6.9952 0.0440231 2.58155)
(-0.00648115 -0.000155276 -0.192901)
(-0.000712165 -7.35686e-06 -0.183696)
(0.00146763 5.39572e-05 -0.180632)
(0.0007426 -7.51048e-05 -0.172162)
(-0.0046501 0.00206543 -0.0508756)
(-0.0120048 -0.00102608 -0.151535)
(-0.00254246 -1.96398e-05 -0.163971)
(-0.00686963 -5.29442e-05 -0.000759527)
(-0.00582052 -0.00153767 -0.121335)
(-0.00605155 0.000445637 -0.00875557)
(-0.00251294 -0.000351752 -0.0051926)
(-0.0525933 -0.00225181 -0.408107)
(-0.00474004 -0.00188225 -0.0771211)
(-0.00387826 -0.00259035 -0.078354)
(-0.0313047 -0.00241812 -0.159205)
(-0.107504 -0.00724939 -0.0481681)
(-0.121913 -0.0020589 -0.065018)
(1.80217 0.0955364 5.20817)
(-0.218943 -0.0992643 -45.3162)
(-0.00620079 8.53753e-05 -0.160399)
(-0.00336419 0.000168773 -0.00464412)
(0.000153252 -0.00240526 -0.0396004)
(-0.132189 -0.00714267 -0.288422)
(-0.00414242 0.00391088 -0.0828529)
(17.6627 0.599622 0.735485)
(-0.00432691 -0.00303533 -0.101792)
(0.00165171 0.00137819 -0.0149938)
(-0.0029832 0.000599153 -0.027324)
(3.07869 0.297139 5.72807)
(-0.0321447 -0.00235128 -0.0965808)
(-0.0205457 0.00106761 -0.0468226)
(-0.0114439 0.000196065 -0.00269274)
(-0.0105668 -0.000560161 -0.196635)
(-0.00366028 -0.00038394 -0.138006)
(19.6243 0.357227 16.8465)
(15.3541 0.895635 17.9686)
(-1.11319 -0.0216258 32.6343)
(3.03761 -0.125947 10.8428)
(-0.0132151 -0.000825262 -0.00200007)
(-0.00792446 -0.00041558 -0.166406)
(0.00203921 0.000125699 -0.18603)
(0.00226478 7.53506e-05 -0.186078)
(0.00240717 0.000178938 -0.181466)
(0.00241961 0.000174296 -0.182676)
(-0.0446014 -0.000891491 -0.183558)
(0.00313199 5.95384e-05 -0.182924)
(0.00350988 0.000182263 -0.17989)
(-0.00344528 -0.00013505 -0.00668653)
(-0.000474613 -4.20725e-05 -0.177931)
(-0.0157352 -0.002485 0.00139109)
(-0.00205719 0.00150315 -0.0548324)
(-0.00396772 -0.0014224 -0.036155)
(-0.00213676 -0.000647245 -0.0264229)
(-0.00307271 -0.000195607 -0.033331)
(-0.00251363 0.00156579 -0.024684)
(-0.00210241 -0.000192178 -0.163019)
(-0.45386 -0.0203974 -1.0075)
(-0.371475 -0.0176367 -0.719306)
(-0.46868 -0.00856953 -0.637392)
(-0.85148 -0.0531354 -0.654151)
(3.87282 -0.0121948 1.49076)
(-0.559816 -0.0116718 -0.377876)
(-0.000976709 -7.67284e-05 -0.183466)
(-0.427147 -0.0354753 -24.0535)
(4.58897 0.163704 4.72205)
(0.256428 0.019152 -54.2183)
(5.53945 0.12986 3.9052)
(4.9407 0.285891 4.21208)
(5.70407 0.159769 3.55642)
(-0.228713 0.0896524 -38.8331)
(-0.0221642 0.000307645 -0.0506596)
(-2.55029 0.409469 -29.2157)
(-0.0499746 -0.00555131 -0.0551879)
(-0.0618212 -0.00507034 -0.0850311)
(-0.103377 -0.00188604 -0.162773)
(-0.00522397 -0.000306688 -0.176373)
(-0.00614711 -0.000267805 -0.170213)
(-0.0127205 -0.00112765 -0.158966)
(-2.03115 -0.154887 -0.888909)
(-0.0390715 -0.000590833 -0.100143)
(1.79367 0.128466 2.49882)
(-0.197486 -0.011595 -0.0742207)
(-0.0470551 -0.0035651 -0.169212)
(-0.00720309 -0.000130086 -0.191134)
(-0.109935 -0.00206574 -0.210883)
(-0.267111 -0.0138732 -0.294361)
(-0.107664 -0.00761963 -0.371028)
(-0.00111185 -3.34755e-05 -0.177197)
(0.00176096 3.06181e-05 -0.179013)
(-0.0063991 -0.000286577 -0.170187)
(-0.00759889 -0.000166334 -0.1673)
(-0.00629569 -0.000474618 -0.174272)
(0.000164045 -4.16111e-05 -0.0100028)
(-0.331662 0.0345195 -40.3072)
(-1.28542 -0.0780693 0.674598)
(-1.53392 0.515785 -28.3782)
(-0.00656395 -0.0010996 -0.0509644)
(-0.00340814 0.000102791 -0.000825779)
(-0.0725274 -0.00558123 -0.0602033)
(5.97196e-05 0.00183912 -0.0701185)
(-0.00198706 0.00338183 -0.0667632)
(-0.00104688 -0.002772 -0.088738)
(-0.000206138 0.0017763 -0.0692405)
(-0.0947484 -0.00655466 -0.16756)
(0.00151527 0.00101196 -0.0111382)
(-0.0015307 0.00130436 -0.00998776)
(-0.0100604 0.000275724 -0.131662)
(-10.5167 -0.897056 -61.9136)
(-1.10277 -0.0187912 -55.0307)
(0.00152134 -0.00161426 -0.0127355)
(-0.00157512 0.000831408 -0.010146)
(-0.00763444 -0.000227982 -0.157431)
(-0.00914059 -1.40246e-05 -0.154871)
(-0.0070957 -0.000474957 -0.166219)
(-0.0225032 0.000948479 -0.088791)
(-0.0339841 0.000143025 -0.105602)
(-0.00147508 -0.000290683 -0.00326592)
(1.715e-05 -2.84883e-05 0.000149727)
(-0.0709476 -0.0045384 -0.100083)
(-0.0251943 -0.000206965 -0.17937)
(-0.0110878 -0.000133744 -0.0114832)
(-0.0380977 -0.0023005 -0.171381)
(-0.0149893 -0.00129828 -0.131523)
(-0.00719777 0.00254764 -0.0929151)
(-0.0404423 -0.00191946 -0.159746)
(-0.010771 -0.00108157 -0.0734805)
(-0.0375592 -0.00220907 -0.129725)
(-0.228668 -0.0160017 -0.093528)
(-0.000917926 0.00206105 -0.071401)
(-0.0300134 -0.00206327 -0.212374)
(-0.339233 -0.0225341 -0.0734609)
(-0.000927674 9.04331e-05 -0.183589)
(-0.0371897 -0.000706004 -0.193331)
(-0.000701071 -6.28252e-05 -0.141001)
(1.91807 -0.0663384 5.9394)
(6.23355 0.348876 3.79848)
(-0.00236093 -0.000147221 -0.130972)
(-0.00190834 0.00282678 -0.112164)
(-0.194446 -0.155764 -38.1793)
(-0.790859 -0.00679893 -0.285)
(-0.00818261 -0.000586849 -0.176211)
(-5.72817 -0.595245 -12.2171)
(-0.0316742 -0.00246762 -0.157761)
(-1.87182 0.184742 3.86699)
(-1.64654 -0.0481064 6.65649)
(-0.0015149 -0.000608825 -0.133405)
(-0.0120845 -0.000808624 -0.188981)
(-0.00105496 0.00187942 -0.0650283)
(-1.85463 -0.0392513 4.57647)
(-0.0059442 -0.000210956 -0.175086)
(-0.000867653 -0.000127571 -0.0204531)
(0.00168599 0.0001118 -0.182654)
(-0.0461389 -0.0002076 -0.131731)
(-0.0502883 -0.00398781 -0.103792)
(-0.0382584 -0.000557256 -0.207985)
(-0.0458095 -0.00445406 -0.0170913)
(-0.028929 -0.000460912 -0.149967)
(-0.00346535 -0.00120876 -0.12597)
(-0.000467259 -0.00123835 -0.051606)
(-0.049874 -0.00236625 -0.194222)
(-0.190646 -0.00753828 -0.258164)
(-0.00350509 0.00207241 -0.109879)
(-0.00286063 0.000156738 -0.0926161)
(-0.00318696 -0.000884094 -0.105464)
(-0.00260169 0.00146518 -0.0712926)
(-0.019377 -0.00302972 -0.00287387)
(0.00111349 -0.00292955 -0.0666287)
(-0.0467159 0.000455604 -0.00506896)
(-0.00361122 0.00103736 -0.101477)
(-0.0532396 -0.00532543 -0.04865)
(-0.0566772 -0.000107571 -0.0329827)
(-0.0348771 -0.00266606 -0.0192231)
(-0.062308 -0.00379107 -0.0545419)
(-0.0708594 -0.00378653 -0.0327851)
(-0.000186209 -1.11233e-05 -0.181835)
(-0.0408485 -0.00165526 -0.210222)
(-0.00532854 -0.000939431 -0.160078)
(-1.55456 0.201804 -36.7596)
(-0.414658 -0.0298554 -0.915666)
(6.5372 0.352794 3.44782)
(-2.12758 0.446421 -29.5883)
(-0.00217795 -7.78569e-05 -0.172691)
(-0.00745455 -0.000398035 -0.168611)
(-0.00262961 -1.34325e-05 -0.00707616)
(-0.0103705 0.00127183 -0.0823977)
(-0.000411949 -9.86017e-05 -0.00430166)
(-0.00218617 -9.599e-05 -0.142109)
(-0.0221136 -0.000265664 -0.231675)
(10.3519 0.0753019 0.630138)
(1.11649 0.0447206 1.06184)
(4.46046 0.278996 2.29816)
(-0.268691 -0.019958 -0.450519)
(3.50542 -0.579438 0.646352)
(-0.343166 -0.00617895 -0.0918177)
(-0.327525 -0.00687601 -0.153151)
(-0.309941 -0.0209291 -0.0938149)
(-0.0047689 0.000823715 -0.145001)
(-0.0628184 -0.00236677 -0.147176)
(-0.0208746 -0.00162917 -0.0255312)
(-0.107472 -0.00455392 -0.172722)
(-0.0175349 -0.000112202 -0.0263187)
(0.858471 0.574344 -34.8415)
(-0.000257651 0.00162893 -0.021693)
(5.84155 0.421858 3.64477)
(-0.00055651 -2.72557e-05 -0.183015)
(-0.00225058 -0.00288398 -0.0146665)
(4.92158 0.307935 4.08969)
(-0.00737553 -0.000272302 -0.163872)
(-0.00552314 0.000202238 -0.132581)
(-0.00864479 -0.000316496 -0.0004972)
(-0.0137905 0.000154666 -0.0446486)
(-0.0162289 0.000584534 -0.0334869)
(-0.00172352 0.00258535 -0.066794)
(-0.00607155 -0.000748489 -0.129713)
(-0.0324049 -0.00316567 -0.0204379)
(-0.00432278 -0.00194365 -0.102524)
(-0.0320571 -0.00300996 -0.0258049)
(-0.0309664 -0.00333869 -0.0287706)
(-0.0359483 -0.00130895 -0.0334047)
(-0.00027263 0.000465961 -0.114843)
(-0.0387349 -0.00221029 -0.0313269)
(-0.00153253 0.00219899 -0.1126)
(-0.00169233 0.000515917 -0.109337)
(-0.014267 0.000368946 -0.0282815)
(-0.049515 -0.00269498 -0.0313414)
(-0.00208869 -9.71982e-06 -0.000531329)
(-0.0103621 -0.000776638 -0.14255)
(-0.00608 -0.000166631 -0.184859)
(-0.00653051 -0.000426613 -0.172612)
(-0.00874451 -0.000241187 -0.161138)
(-0.00641156 -0.000241235 -0.172781)
(-13.4367 -1.06966 -64.9358)
(-2.60494 -0.135053 -65.0216)
(-0.00805085 -0.000666525 -0.162828)
(-0.0100097 -0.000796467 -0.151631)
(-0.248228 -0.0115348 -0.351507)
(-0.250915 -0.0183153 -0.346873)
(-0.213172 -0.0093131 -0.477264)
(-0.203287 -0.00817332 -0.327513)
(-0.199446 -0.00430222 -0.343836)
(-0.0381853 -0.000663418 -0.2194)
(-0.0452848 -0.00182636 -0.230903)
(-0.0421281 -0.000588214 -0.226775)
(-0.0521062 -0.00331954 -0.136317)
(-0.0439532 -0.00305184 -0.226583)
(8.21224 0.357127 6.25821)
(-0.00136965 0.0013401 -0.0126093)
(-0.00725899 -0.000403885 -0.16263)
(-0.00101869 -2.63499e-05 -0.182548)
(-0.00302212 0.000304417 -0.104964)
(-0.0592424 -0.00466101 -0.087731)
(-0.0180764 -0.000913599 -0.204454)
(-0.0311229 -0.00135484 -0.256237)
(-0.0171792 -0.000767147 -0.236026)
(-0.0373979 -0.00124121 -0.270358)
(-0.105872 -0.0132602 -0.00934719)
(-0.00107555 0.000541391 -0.0190401)
(-0.00380249 -6.223e-05 -0.171594)
(-0.00263962 -0.000143963 -0.152852)
(-0.00127188 -0.00104957 -0.00740877)
(-0.00974793 -0.000129415 -0.140725)
(-0.0020427 -0.00159408 -0.0440742)
(-0.00350144 -0.000315216 -0.156631)
(-0.0251516 -0.0013473 -0.00822886)
(-0.00609251 0.000114192 -0.135504)
(-0.00770813 -0.000536284 -0.158719)
(-0.00102853 -0.00199678 -0.0685699)
(-0.00106474 -0.00286831 -0.0874452)
(2.52213 0.0930098 4.95297)
(-0.00161103 -0.0015684 -0.0110215)
(-0.573745 -0.0564339 3.38017)
(0.255763 0.0302531 1.20404)
(0.000674046 -0.00412293 -0.0486814)
(0.00244071 0.00283817 -0.0452513)
(-0.00128765 -0.00318325 -0.0244419)
(-0.00360279 -0.000507325 7.05485e-05)
(-0.00261305 -9.62713e-05 -0.000645468)
(-1.43866 0.0804427 -39.8801)
(-0.570481 -0.0443997 -73.6486)
(15.1931 0.863989 15.6866)
(-0.0170147 -0.000307031 -0.199024)
(-0.029523 -0.00210926 -0.219224)
(-0.0183453 -0.00133704 -0.198865)
(-0.0285001 -0.000400929 -0.21221)
(1.27359 0.110701 3.20402)
(-0.742428 -0.058483 -0.961772)
(-0.158401 -0.0103699 -0.167205)
(-0.000195569 7.85565e-05 -0.000423474)
(27.717 2.15879 2.04405)
(0.00456374 0.000296778 -0.182604)
(-0.00288051 -6.58191e-05 -0.186674)
(-0.0044421 0.00141103 -0.158273)
(-0.152359 -0.00270869 -0.104768)
(0.000855924 3.94494e-05 -0.17044)
(-0.173727 -0.00316091 -0.119786)
(-0.184409 -0.00967887 -0.124948)
(-0.160259 -0.0109448 -0.129561)
(0.00572788 -0.308544 -38.1007)
(-0.00322638 -0.00201817 -0.031829)
(-0.15923 -0.00266037 -0.119783)
(-0.0271048 -0.000419012 -0.217351)
(-2.93555e-05 -0.000755522 -0.0218046)
(-0.171987 -0.0121802 -0.0737366)
(-0.0118294 -0.000837725 -0.198717)
(-0.000314007 -0.00238378 -0.0351644)
(5.17531e-05 2.09457e-05 -3.54104e-05)
(-1.1713 -0.0573729 6.83423)
(-0.0705964 -0.00430427 -0.0394198)
(-0.291409 -0.00949127 -0.090267)
(-0.14537 -0.00921357 -0.0138435)
(-0.0796022 -0.00388829 -0.0270509)
(2.45862 0.0632937 3.94785)
(-7.54763e-05 -1.9956e-06 -8.7667e-05)
(0.835611 -0.00846078 6.23846)
(-0.0148354 -0.000168918 -0.0184154)
(0.337191 0.00889213 5.80192)
(0.178073 -0.0550665 5.15464)
(0.000912823 -0.00124732 -0.00748061)
(-1.5716 -0.150587 0.653369)
(-0.0769989 -0.00261681 -0.0428072)
(-0.0682886 -0.00179622 -0.18284)
(0.00149776 -0.00091542 -0.0115231)
(-0.0046885 -0.000825486 -0.127122)
(-0.000194184 -1.47275e-05 -5.51854e-05)
(-0.0731984 -0.00549478 -0.00779051)
(0.846332 0.0745124 1.86976)
(-0.083666 -0.00180841 -0.0346778)
(0.0312591 -0.371213 -38.2237)
(-0.00246335 0.000847984 -0.0896327)
(0.00126328 -0.000745839 -0.0178299)
(-0.0982478 -0.00490716 -0.0381838)
(-0.101783 -0.00226607 -0.0359097)
(-9.14117e-05 0.002559 -0.0515303)
(-0.00468313 -0.00153784 -0.115487)
(0.00124099 5.65993e-05 -0.138548)
(-0.00880062 -0.000539681 -0.164773)
(26.395 0.952875 0.783219)
(-0.0138052 -0.00047877 -0.179044)
(-0.262322 -0.0113407 -0.13681)
(-0.13743 -0.00495893 -0.22399)
(-0.0055077 -0.000262663 -0.169333)
(-0.298633 -0.00594868 -0.104516)
(-0.0112863 -0.000249864 -0.177872)
(2.02567 0.040109 1.33326)
(-0.0236724 -0.000786494 -0.268651)
(-0.156831 -0.00210104 -0.553856)
(-0.163819 -0.00252333 -0.559456)
(-0.0192683 -0.000119353 -0.270361)
(0.00236061 0.000170807 -0.18161)
(-0.000583513 -8.10428e-05 -0.171971)
(-0.00090612 5.2634e-06 -0.175955)
(0.00102137 2.9391e-05 -0.182482)
(0.00129421 3.4818e-05 -0.17927)
(0.00132876 -0.00115631 -0.00954118)
(-0.00474229 -0.000768988 -0.157841)
(-0.00798551 0.000285843 -0.142126)
(-0.00251887 0.000836249 -0.110471)
(-0.016556 -0.00107161 -0.156081)
(-0.00164935 -0.00158754 -0.0128205)
(-0.01758 -0.0010602 -0.12798)
(-0.112436 -0.00659534 -0.0676006)
(5.16016 0.162829 0.586958)
(-0.143406 -0.00707102 -0.108501)
(-1.65916 -0.130047 0.942838)
(3.53812 0.18878 -45.0983)
(-0.379349 -0.000632134 -36.118)
(2.91452 0.067329 0.655065)
(-0.276035 -0.0812533 -43.4409)
(0.840536 0.066669 3.50337)
(-1.31757 -0.015516 1.32661)
(-0.189048 0.0361694 -53.5729)
(0.211857 -0.0435717 -44.6071)
(0.0670903 0.056323 -37.3549)
(-1.29982 -0.0111811 1.28026)
(-0.0406233 -0.00284582 -0.218648)
(-0.0380678 -0.001736 -0.216908)
(0.00013884 -2.27741e-05 -0.140348)
(-0.00613593 0.000427933 -0.159913)
(-0.00963816 -0.000113244 -0.181366)
(-0.00527368 0.00138628 -0.0997161)
(0.00115184 0.00267581 -0.046095)
(12.8298 0.7092 15.642)
(-0.0155141 -0.00111538 -0.168315)
(-0.00419115 -7.83257e-05 -0.188267)
(-0.00932133 3.75527e-05 -0.163646)
(-0.00337229 -0.0025944 -0.0475191)
(-0.00241285 -0.00179686 -0.0255811)
(-0.0166672 -0.00177562 -0.0638547)
(-0.0140244 -0.000896221 -0.0851389)
(-0.00899348 -0.000269386 -0.06471)
(-0.000525087 -0.000396239 -0.00234768)
(-0.000495757 0.000163161 -0.00504182)
(0.00159802 7.10284e-05 -0.173803)
(-0.24179 -0.0169258 -0.139987)
(-0.00491356 -0.000366484 -0.179246)
(-0.097826 -0.00337759 -0.211367)
(-0.00556719 -4.65975e-05 -0.189282)
(0.000651289 -0.00201556 -0.0257813)
(-0.0880844 -0.0017872 -0.0623152)
(-0.271549 -0.00660037 -0.504648)
(-0.098828 -0.00131294 -0.279581)
(-0.0183978 -0.00134097 -0.142515)
(-0.00657586 -0.00226908 -0.0687621)
(-0.182832 -0.00334607 -0.230876)
(0.0659884 -0.0008333 -56.5928)
(-0.00275497 -0.000147329 -0.170624)
(-0.00401377 -6.8411e-05 -0.172281)
(-0.00432112 -0.000160807 -0.171811)
(-0.00296749 -0.0001935 -0.172829)
(16.5616 0.00314106 17.4556)
(-0.288104 -0.00743091 -0.282587)
(-0.947262 -0.0131261 -0.544667)
(0.00141256 -0.000638987 -0.0097095)
(0.000480492 -0.00446583 -0.0430786)
(-0.0299022 -0.00113744 -0.2278)
(-0.589946 -0.0398673 -0.151102)
(-0.00141924 -1.97742e-05 -0.176168)
(-0.0044635 -0.000905498 -0.153307)
(-0.00147691 -1.64332e-05 -0.175102)
(-0.759274 -0.0817569 0.523785)
(-0.00182049 0.00140271 -0.093611)
(-0.227969 -0.00604693 -0.197191)
(-0.0267667 -0.000438844 -0.189707)
(21.1579 1.7021 17.343)
(-0.0111044 -0.000187239 -0.185379)
(-0.0101424 -0.000569607 -0.184348)
(-0.0126944 -0.000286541 -0.185226)
(-24.7405 -0.0911217 -9.56592)
(-0.0133622 -0.000532718 -0.184467)
(-0.00272582 0.000376261 -0.144264)
(13.0921 1.34141 11.5767)
(-1.0263 -0.0224911 -0.163195)
(-0.518631 -0.0285504 -0.262494)
(-0.00941392 0.000406568 -0.0813306)
(-0.576264 -0.00995529 -0.265722)
(-1.12231 -0.091135 -1.29765)
(-0.29163 -0.0176437 -0.471159)
(-1.5935 0.269108 -28.9897)
(-0.0445353 -0.00291836 -0.249922)
(-0.498412 -0.00168137 -0.0827629)
(-0.0626707 -0.00088874 -0.281423)
(20.0507 0.130789 23.9311)
(-0.00490022 3.61965e-05 -0.14008)
(-1.12358 -0.018132 -54.9849)
(-0.0688795 -0.00449676 -0.285806)
(-0.048847 -0.00304353 -0.0687658)
(-0.0438291 -0.00182365 -0.0517186)
(-0.0137235 0.000924926 -0.0355342)
(-0.913162 -0.0340064 -56.4735)
(-0.0847437 -0.0014787 -0.261572)
(-0.0837643 -0.00396557 -0.256446)
(-0.0757451 -0.00352452 -0.117752)
(-0.382606 -0.0106891 -0.0347646)
(-0.076385 -0.00197001 -0.123281)
(-0.0785266 -0.00370114 -0.0979262)
(-0.0892848 -0.00530902 -0.103703)
(-0.0872023 -0.00689179 -0.0978549)
(-0.00536503 -0.000368223 -0.190752)
(0.000409444 -0.000158189 -0.017183)
(-0.00547745 0.00785438 -0.0854417)
(-0.000122694 -2.69504e-06 -0.187102)
(-0.00404117 0.000687484 -0.0959516)
(2.14396 0.0506539 1.00018)
(0.519476 -0.457286 -23.7406)
(-0.00312342 -4.91304e-05 -0.171643)
(-0.00614247 -8.27561e-05 -0.167832)
(0.00435798 0.000157147 -0.154198)
(-0.00734224 -0.000137758 -0.167358)
(-0.00688395 0.00120871 -0.0555793)
(0.0633971 -0.140283 -41.7162)
(-0.00116678 -1.03992e-05 -0.175475)
(-0.586602 -0.213544 -36.3839)
(-0.0161145 -0.000170506 -0.210917)
(-0.141977 -0.0106361 -0.10082)
(-1.28486 0.379784 -26.6345)
(-0.266014 -0.250954 -36.1197)
(-0.000472664 -0.000505468 -0.0190945)
(-0.0223856 0.00186403 -0.0909029)
(0.00159663 0.00556633 -35.5497)
(-0.149405 -0.0108199 -0.0927403)
(-0.00695533 -0.000262299 -0.0397259)
(-0.129305 -0.00637422 -0.102426)
(-0.667391 -0.00487835 -0.130617)
(-0.00654253 -0.000474617 -0.00394487)
(-0.147864 -0.00616893 -0.156867)
(-0.00592688 -0.000441625 -0.173294)
(-0.301747 -0.00636404 -38.5701)
(-0.0632776 -0.00143279 -0.183735)
(-0.0476333 -0.00193072 -0.199372)
(-0.0441832 -0.00306532 -0.194713)
(24.777 1.45724 4.23376)
(-0.052501 -0.00090563 -0.198492)
(-0.396492 -0.0311285 -0.1918)
(-0.359342 -0.011823 -0.116386)
(0.919607 0.245982 6.52784)
(1.9116 0.265316 6.07313)
(-7.09285e-05 0.000227824 -0.00750385)
(1.4743 -0.342664 6.37741)
(27.339 1.32881 1.87368)
(0.0108722 0.000212889 -0.183074)
(1.16638 0.762001 -26.7269)
(1.03991 0.284618 -41.3281)
(-0.00953733 -0.000130179 -0.16803)
(0.0596926 -0.0107433 -54.1157)
(-0.00658393 -0.000194477 -0.159329)
(-0.640465 -0.34511 -38.9786)
(0.938721 -0.0233053 5.08229)
(-0.197971 -0.0582875 -43.0573)
(-0.123428 -0.000986228 -0.0229334)
(-2.2463 -0.267158 6.20691)
(-0.0599168 -0.00212829 -0.323564)
(-0.37133 -0.00699284 -0.132856)
(-0.0732526 -0.00106221 -0.110028)
(-0.0646589 -0.0033293 -0.0932315)
(-0.226039 -0.0115184 -0.129093)
(-0.202504 -0.014163 -0.509551)
(-0.0737741 -0.00199978 -0.0454796)
(-0.0590069 -0.000748993 -0.103289)
(-0.0838 -0.00357603 -0.0834434)
(4.67281e-05 -1.85808e-05 -0.184774)
(-0.486206 -0.0229521 -55.3886)
(-0.00337933 0.000253649 -0.152491)
(-0.00563505 -0.000568018 -0.167098)
(-0.00508848 -0.000251791 -0.172085)
(-0.00622563 -8.86062e-05 -0.155382)
(-0.00585933 -0.000602005 -0.166859)
(-0.00458971 -0.00158008 -0.123972)
(-0.00822266 -8.71161e-05 -0.172531)
(-0.0107207 -0.000766494 -0.191781)
(-0.0196133 -0.000934572 -0.167296)
(-0.00454444 -0.00171213 -0.125269)
(-0.0377499 -0.00251844 -0.137518)
(-0.0329839 -0.00192752 -0.138205)
(0.00132036 -0.00255025 -0.0110354)
(-0.0425858 -0.000229092 -0.138553)
(-0.00126918 -0.00131961 -0.00951342)
(0.00117081 -0.000914331 -0.0142069)
(-0.000549105 0.000270779 -0.0118786)
(-0.00291599 -0.0011433 -0.128514)
(-0.00359986 -0.00224671 -0.125536)
(8.63124e-05 0.000163339 -0.0199815)
(-0.0125583 -0.000808948 -0.180056)
(-0.000401189 0.000137579 -0.00233156)
(-0.000119972 1.47834e-05 -0.000546443)
(4.56311e-05 -0.00016951 -0.000882944)
(-0.00607912 0.000509022 -0.00112349)
(-0.00277908 -0.00112128 -0.0952427)
(-0.00760538 0.000523694 -0.00153467)
(-0.667961 -0.0150583 3.79313)
(-0.00396999 3.13101e-05 -0.000737724)
(-0.00217194 -0.000139502 -0.000586268)
(-0.269547 -0.00529337 -0.0403799)
(-0.185396 -0.00516475 -0.019021)
(-0.0123492 -0.000490506 -0.181594)
(-0.00156434 -3.12847e-05 -0.0121271)
(-0.00274619 0.000369354 -0.0137701)
(-7.03354e-05 0.000334211 -0.0012864)
(-0.00622081 -0.00042081 -0.177553)
(-0.000447841 -0.000784268 -0.00384763)
(0.630662 -0.331647 1.75781)
(0.900671 0.567769 -27.4913)
(-0.0045192 -0.000405277 -0.134439)
(2.06367 0.453801 -34.9025)
(-0.00398466 -0.000710136 -0.123559)
(-0.00181495 -0.000735814 -0.129497)
(-0.000736679 6.10355e-06 -0.181255)
(-0.420388 -0.0239965 -0.179294)
(-0.322176 -0.00509077 -0.327343)
(10.2561 0.113459 0.50628)
(-0.00611326 0.00132409 -0.135531)
(-0.000789086 -1.18336e-05 -0.178494)
(-0.00557513 0.000190503 -0.134724)
(-2.67742 0.00154956 6.34797)
(-0.0284509 -0.00128208 -0.302074)
(-0.0337768 -0.000773966 -0.342034)
(-0.660817 -0.0268504 -57.6837)
(-0.525914 -0.0350805 -0.226927)
(-0.184522 -0.00282547 -0.0900393)
(-0.0262525 0.00147267 -0.0429029)
(-0.00667641 -0.000327058 -0.168783)
(-0.00584528 -0.000437564 -0.143028)
(-0.00715681 -0.000200057 -0.168491)
(-0.00569278 -0.000215495 -0.175034)
(-0.0519939 -0.00368894 -0.17615)
(-0.0773012 -0.00109036 -0.162255)
(-0.0180292 -0.000911964 -0.179617)
(-0.00530913 -0.00119487 -0.122689)
(-1.8723 -0.0771896 5.43121)
(-0.00678745 -0.000408632 -0.1746)
(-0.00635252 -0.000379389 -0.173934)
(-0.00880393 -0.000608902 -0.179101)
(-0.00859028 -0.000200016 -0.177206)
(-0.0681826 -0.00259167 -0.136909)
(-0.0719431 -0.00199698 -0.134026)
(-0.0179652 -0.00029007 -0.20479)
(-0.0917753 -0.00719145 -0.114057)
(-0.00455549 0.000266827 -0.131062)
(-0.277444 -0.0132718 -0.107835)
(-0.00129638 0.000137763 -0.0140967)
(-0.0142135 -0.0011389 -0.157578)
(17.8948 0.236761 8.82521)
(14.2483 1.0118 10.4783)
(21.9489 1.86686 8.77001)
(17.4837 0.751786 9.02643)
(8.22497 1.06316 0.722618)
(-0.00053138 5.96453e-05 -3.64394e-05)
(0.404047 0.00133915 -52.4626)
(0.154201 0.004412 -53.7613)
(3.24081 0.101713 5.27346)
(-0.213627 -0.00898705 -0.0875638)
(-0.00147483 0.000147332 -0.00495767)
(-0.378701 -0.0335154 -0.0586953)
(-0.133456 -0.00417731 -0.256365)
(-0.00017599 -0.00013849 -0.000716395)
(-0.0293617 -0.000962124 -0.00856542)
(-0.000116327 1.06476e-05 -0.000135777)
(0.155024 0.0478 -53.1129)
(1.84577e-06 5.52635e-05 0.000122488)
(-0.000940263 -0.000732829 -0.00615795)
(0.121626 -0.32037 -39.0085)
(-0.00439444 -9.75293e-05 -0.108616)
(-0.00431759 0.00135556 -0.106993)
(-0.000206924 -7.13034e-05 -0.184156)
(0.000887375 0.00145924 -0.0756014)