/*--------------------------------*- C++ -*----------------------------------*\
| =========                 |                                                 |
| \\      /  F ield         | OpenFOAM: The Open Source CFD Toolbox           |
|  \\    /   O peration     | Version:  v2006                                 |
|   \\  /    A nd           | Website:  www.openfoam.com                      |
|    \\/     M anipulation  |                                                 |
\*---------------------------------------------------------------------------*/
FoamFile
{
    version     2.0;
    format      ascii;
    class       volVectorField;
    location    "0.02";
    object      U;
}
// * * * * * * * * * * * * * * * * * * * * * * * * * * * * * * * * * * * * * //

dimensions      [0 1 -1 0 0 0 0];


internalField   nonuniform List<vector> 
3575
(
(-0.00818768 -0.000432006 -0.161283)
(2.0922e-05 -1.15669e-05 -0.186962)
(-4.52461 -0.493789 -63.6285)
(-0.0017345 -0.000118226 -0.160754)
(-0.0082854 0.00210279 -0.148059)
(-0.000128203 -0.000596374 -0.0309616)
(0.00135726 -0.00135271 -0.0108293)
(-0.00124633 -0.000864174 -0.00928645)
(-0.364756 -0.0081336 -0.91323)
(-0.000285233 8.2952e-05 -0.000978483)
(-0.000745958 1.97989e-05 -0.00631028)
(-0.00396662 0.00617739 -0.0721604)
(-0.0655348 -0.00345704 -0.46108)
(-0.000124572 1.14348e-05 -0.00191873)
(-0.00081208 -6.72153e-05 -0.00222413)
(-0.011707 0.000169281 -0.00180599)
(-0.00951644 0.000442846 -0.00110457)
(-0.0210429 -0.00165078 -0.00463932)
(-0.0188494 -0.0023069 -0.00377544)
(-0.453959 -0.00952858 -0.183648)
(-0.365065 -0.022562 -0.0979841)
(-0.000238471 -9.09501e-05 -0.00306294)
(-4.66131e-05 7.68115e-05 -0.000329858)
(-0.0123504 0.000215097 -0.0139186)
(0.34654 0.0452009 -48.7254)
(0.00578377 0.000136238 -0.157853)
(-0.00196998 -0.000839518 -0.105846)
(-0.0034974 4.85308e-05 -0.103793)
(-0.00269099 0.000229553 -0.0924574)
(-0.00143363 -0.00176189 -0.0120431)
(-0.00339604 -0.00187406 -0.0749167)
(-0.00274529 -0.000403364 -0.0108349)
(-0.000531783 -1.03799e-05 -0.18683)
(0.00219747 3.68041e-05 -0.186812)
(-0.000743586 0.000934527 -0.0156045)
(-0.194986 -0.00447083 -0.0154898)
(-0.0894369 -0.000240396 -0.0169291)
(-0.248808 -0.00646844 -0.0294793)
(-1.05802 0.313983 -26.0442)
(-0.765531 0.524511 -24.2527)
(-0.000592554 -0.00161588 -0.0873981)
(-0.461784 -0.0978377 -41.3352)
(-0.0217316 -0.000277832 -0.170171)
(0.578251 0.278492 -35.7235)
(-0.0029701 0.00099768 -0.0549415)
(-0.000211922 -0.000129313 -0.00829149)
(25.267 1.34766 1.16611)
(-0.0295502 -0.000490612 -0.0404569)
(-0.00979244 -0.000325769 -0.162548)
(0.341505 -0.036472 -43.0564)
(7.757 1.31201 1.05922)
(3.32982 0.11336 2.71031)
(-0.0189731 -0.00135157 -0.217047)
(21.0444 1.76447 0.784916)
(-0.0532322 -0.00374445 -0.327893)
(-0.0105506 0.000790116 -0.0605414)
(-0.211617 -0.014446 -0.113791)
(-0.00566228 -0.000250958 -0.198568)
(-0.103287 -0.00622061 -0.418224)
(-3.78269 -0.132892 -6.83913)
(-0.649732 -0.153087 -38.1821)
(-0.0958934 -0.00335077 -0.423329)
(-0.768393 -0.0794068 2.2802)
(-0.0370083 -0.000493465 -0.25673)
(-0.0378042 -0.00170462 -0.256197)
(0.00637435 0.000248916 -0.186811)
(-0.0408038 -0.00291324 -0.262337)
(-0.00153041 7.2021e-05 -0.000475276)
(0.0023389 0.000108543 -0.14936)
(-0.00411581 -0.000240548 -0.0103567)
(-0.0859388 -0.00634625 -0.419868)
(23.9616 0.909322 0.588557)
(36.068 1.85054 1.5234)
(3.17002 0.681309 -0.301127)
(-0.0386906 -0.00237629 -0.275604)
(22.7351 0.469757 0.20984)
(3.17873 0.205921 -32.1899)
(-0.969502 -0.0167792 -2.05132)
(-0.00118266 -0.000886538 -0.00893427)
(-0.00533153 -0.000104477 -0.171582)
(-0.000468375 0.000386393 -0.0127243)
(13.9661 1.32007 3.57014)
(-0.00578899 -0.000220357 -0.171642)
(-0.00509368 -0.000215596 -0.173146)
(-0.873685 0.254772 -39.2008)
(-0.624654 -0.0143214 -0.507471)
(-0.00547091 -0.000271338 -0.173159)
(-0.00241245 0.00287255 -0.0589371)
(-0.074765 -0.00121824 -0.0896822)
(-0.00397548 -0.00180448 -0.0761549)
(-0.00499466 -2.07381e-05 -0.124353)
(-0.00386516 -0.00123033 -0.0766802)
(0.000633846 4.07948e-05 -0.188679)
(0.000641963 1.65052e-05 -0.188668)
(0.00054487 2.51274e-05 -0.188304)
(-0.00368443 0.0014806 -0.0946245)
(-6.44799e-05 1.26889e-06 -0.00711418)
(1.69496 -0.0859341 5.51756)
(-0.0356674 -0.000480738 -0.0921617)
(-0.00441704 0.00136105 -0.0529624)
(0.00263522 8.68197e-05 -0.186305)
(0.0020265 0.000106618 -0.187596)
(-0.00358137 0.00244471 -0.0549314)
(-0.000404309 0.000230908 -0.0304641)
(-0.00142547 0.00310571 -0.0489544)
(0.00224408 0.00247558 -0.0471519)
(0.0017353 0.00137231 -0.0124957)
(-0.00155396 -0.00168322 -0.0109891)
(3.6167e-06 0.00164211 -0.0473776)
(0.00144644 8.51788e-05 -0.18356)
(-0.00201502 0.00143745 -0.0525082)
(-0.00191645 0.00139432 -0.0500836)
(0.262596 0.0205839 -41.9893)
(0.26922 0.12865 -36.3845)
(0.949697 0.107646 -33.1474)
(-0.444831 0.556891 -25.9488)
(-1.44784 0.0128419 2.03295)
(-1.18746 0.376159 -28.9352)
(-0.00483536 0.000699154 -0.00613702)
(-0.00809782 0.000132002 -0.0410348)
(-0.00101974 -0.00102701 -0.066386)
(-0.00270902 4.37582e-06 -0.0027387)
(-0.768733 -0.0177588 -0.318928)
(-0.000611312 0.000505223 -0.00805449)
(-0.0816775 -0.00523475 -0.00854584)
(-0.684459 -0.0452397 -0.304855)
(-0.199323 -0.0151657 -0.0239863)
(-0.270213 -0.0240789 -0.0387357)
(-0.176839 -0.00239743 -0.0321221)
(-0.721329 -0.0475199 -0.407841)
(-0.000156211 -0.00186483 -0.0201778)
(-0.827549 -0.0195505 -0.479211)
(0.429235 0.0212096 -41.8028)
(-0.783513 -0.0502389 -0.511535)
(-0.0200686 0.000340583 -0.0348407)
(3.37895 1.03365 1.40143)
(-0.0244308 -0.00215555 -0.0345125)
(-0.0112484 0.00121394 -0.0266195)
(-0.0358683 -8.88033e-05 -0.101203)
(-0.00826322 0.000278909 -0.0210834)
(-0.00445743 0.000107803 -0.00452442)
(-0.76794 -0.0118782 -0.35152)
(0.000164037 -1.25161e-05 -1.33561e-05)
(-0.00925761 0.00201371 -0.117949)
(-0.186885 -0.0131311 -0.172194)
(0.103548 0.0148162 -52.7905)
(-0.688771 -0.0310278 -0.350798)
(0.896099 -1.31749 7.84721)
(-1.01355 -1.60343 -0.483594)
(0.202126 -0.00786836 -49.9576)
(5.06862 0.0121533 2.37848)
(3.14577 -0.583323 10.1653)
(3.92734 0.0228253 12.2281)
(4.6476 0.417614 7.75652)
(20.0974 1.4798 8.15301)
(-0.00647535 -0.000444084 -0.171695)
(-0.00311802 -0.00165229 -0.072494)
(-0.000981513 -0.00192414 -0.0690269)
(7.90604 -0.761327 1.53353)
(-0.0448154 -0.00144931 -0.183429)
(0.0018446 -0.00137876 -0.0125639)
(-0.00818376 -0.000534898 -0.155358)
(-4.11859 -0.117627 -4.0719)
(-0.0756615 -0.00155487 -0.0393103)
(-0.00040128 -5.59355e-05 -0.000270546)
(7.775e-05 0.00102357 -0.0843651)
(-27.8791 -2.12919 -45.914)
(-0.130011 -0.135165 -36.9063)
(0.697331 0.0482662 -41.6888)
(0.000745416 0.00223702 -0.0723467)
(-0.000272981 0.000383006 -0.0139581)
(-0.0164111 -0.00113811 -0.157065)
(-0.0206376 -0.00155748 -0.0122982)
(-0.00274452 -0.00153605 -0.0693528)
(-0.256037 -0.125843 -40.9454)
(-0.893675 -0.0605337 -1.15533)
(-0.00596354 -0.000631533 -0.00491045)
(8.48538e-05 -0.000526421 -0.0538693)
(-0.275687 -0.278621 23.6227)
(2.50651 0.206098 -53.544)
(24.0169 0.428071 1.67251)
(0.728169 0.0259374 -52.3605)
(-0.397113 -0.0266673 -1.05415)
(-0.000767801 -0.00258107 -0.0900531)
(-0.00290694 -0.00174673 -0.0879461)
(-0.0689432 -0.00434082 -0.014401)
(-4.3705e-05 -0.000128775 -0.000247901)
(-0.125407 -0.00533726 -0.074631)
(-0.00395059 -0.00110371 -0.121529)
(0.00101771 3.16648e-05 -0.18687)
(-0.035097 -0.00283543 -0.017079)
(-0.00503783 -0.000345578 -0.184192)
(-0.00854254 0.000706095 -0.0112177)
(-4.50402 -0.18813 -3.71559)
(-0.00691277 -0.000487451 -0.187455)
(-0.00118788 0.001467 -0.00833358)
(0.000261391 0.00158657 -0.03211)
(-0.00507607 0.00245912 -0.0968716)
(-0.00421998 0.00246009 -0.0985213)
(-0.11085 -0.00705557 -0.605118)
(-0.0767785 -0.0894056 -41.7565)
(-0.0700577 -0.00532612 -0.0248512)
(-0.155745 -0.0079151 -0.679205)
(-0.122499 -0.00409331 -0.655615)
(-0.171922 -0.0128815 -1.47515)
(0.14537 0.00093613 -0.627073)
(-0.0566509 -0.0027479 -0.0103314)
(-0.0672041 -0.0022299 -0.0153647)
(-0.0856051 -0.00615152 -0.0283279)
(-0.077376 -0.00356184 -0.0209837)
(-0.00294331 -0.00201692 -0.0442262)
(0.00188907 0.00284474 -0.0434937)
(-0.00211226 0.0057456 -0.0457028)
(0.000964586 -0.000316234 -0.0137168)
(-6.04454e-05 -5.77187e-05 -0.0077417)
(-0.0884129 -0.00158657 -0.0253386)
(-0.0097536 0.0020385 -0.014707)
(6.93027 0.186601 -40.8832)
(-0.973071 -0.0285889 -0.667879)
(-0.0417827 -0.00188702 -0.172112)
(-11.0669 -0.471625 -13.8971)
(-0.0072677 -0.000472593 -0.172525)
(-0.00420897 0.0026372 -0.0501422)
(10.9048 0.444127 1.49201)
(8.41059 0.0192082 3.27544)
(-0.00649693 -0.000157739 -0.198929)
(-0.0010218 -1.11213e-05 -0.189677)
(0.0011966 4.80982e-05 -0.186499)
(0.000677681 -7.51463e-05 -0.178661)
(-0.00444824 0.00198491 -0.0483643)
(-0.0117277 -0.00107513 -0.148879)
(-0.00306052 -1.82816e-05 -0.16432)
(-0.00646209 -4.12441e-05 -0.000733076)
(-0.0055502 -0.00155158 -0.117142)
(-0.00568043 0.000424498 -0.00820641)
(-0.00234658 -0.000331157 -0.00483008)
(-0.0528942 -0.0022709 -0.415178)
(-0.00452289 -0.00183909 -0.0735943)
(-0.0036887 -0.00252474 -0.0748139)
(-0.0306866 -0.00232072 -0.158906)
(-0.104881 -0.00705834 -0.0481407)
(-0.119185 -0.0019729 -0.0651875)
(2.42103 0.144452 6.30462)
(-0.136963 -0.0904654 -44.8386)
(-0.00717862 7.29451e-05 -0.158311)
(-0.00313948 0.000166367 -0.00432075)
(0.000127864 -0.00229509 -0.037603)
(-0.131038 -0.00708017 -0.293244)
(-0.00431089 0.00387124 -0.0808118)
(23.3484 0.802701 1.01445)
(-0.00463499 -0.00304533 -0.099301)
(0.00161093 0.00135208 -0.0146964)
(-0.00293887 0.000585543 -0.0268499)
(4.05436 0.37038 7.21246)
(-0.0309228 -0.00223356 -0.0941778)
(-0.0196335 0.00109371 -0.0449921)
(-0.010941 0.000184387 -0.00260872)
(-0.0103853 -0.000549679 -0.203008)
(-0.0037187 -0.000406694 -0.136374)
(25.3753 -0.0984422 21.9175)
(17.9515 1.04106 24.6409)
(-1.51084 -0.0567431 42.0243)
(1.98761 -0.168463 13.1879)
(-0.0125855 -0.000787258 -0.00194135)
(-0.00937987 -0.000483808 -0.165949)
(0.00128298 7.46794e-05 -0.18857)
(0.00150055 4.55918e-05 -0.188622)
(0.00138408 0.00011069 -0.184533)
(0.00148252 0.000119362 -0.185618)
(-0.043946 -0.000879303 -0.186598)
(0.00204885 3.66733e-05 -0.185955)
(0.00280938 0.00014779 -0.184262)
(-0.00322726 -0.000125487 -0.00623785)
(-0.00194537 -0.000110483 -0.181458)
(-0.0152449 -0.00240788 0.00132859)
(-0.00209437 0.00144177 -0.0524275)
(-0.00376268 -0.00136868 -0.0342678)
(-0.0020219 -0.000615285 -0.024988)
(-0.00291936 -0.000196087 -0.0315684)
(-0.00238207 0.00148378 -0.0233455)
(-0.0024713 -0.000232325 -0.163196)
(-0.452621 -0.0203464 -1.01017)
(-0.370323 -0.0175889 -0.723374)
(-0.467197 -0.00854164 -0.640823)
(-0.850133 -0.053014 -0.656121)
(4.78848 0.0390822 1.75152)
(-0.558 -0.0116359 -0.379809)
(-0.000985848 -7.62678e-05 -0.185871)
(-0.439887 -0.0433605 -24.5031)
(5.81048 0.196571 5.87987)
(0.101101 0.0107445 -51.0377)
(6.87085 0.162531 4.84735)
(6.10317 0.368708 5.27156)
(7.00746 0.211995 4.46056)
(-0.0911444 0.0929926 -38.4145)
(-0.0212071 0.000355586 -0.0487061)
(-2.54138 0.405587 -28.6854)
(-0.0481813 -0.00545551 -0.0539385)
(-0.0599262 -0.00479739 -0.0838806)
(-0.101394 -0.00186505 -0.164654)
(-0.0068117 -0.000411837 -0.179163)
(-0.00710058 -0.00032547 -0.169852)
(-0.0125363 -0.00118055 -0.157103)
(-2.03117 -0.15477 -0.8899)
(-0.037603 -0.000523323 -0.0981014)
(2.28863 0.149689 3.4008)
(-0.194641 -0.011389 -0.0748597)
(-0.046124 -0.00353408 -0.170697)
(-0.00748965 -0.000131527 -0.196758)
(-0.108573 -0.00204507 -0.214529)
(-0.265334 -0.0137857 -0.297913)
(-0.106988 -0.00756938 -0.376974)
(-0.00144938 -9.41322e-05 -0.180027)
(0.000548816 6.28943e-06 -0.182542)
(-0.00627991 -0.000281827 -0.175292)
(-0.00906562 -0.000199594 -0.166973)
(-0.00758227 -0.000595714 -0.175561)
(0.00015406 -3.99914e-05 -0.00949316)
(-0.38022 0.0177799 -40.1162)
(-1.95188 -0.133257 1.95989)
(-1.47181 0.501713 -28.5678)
(-0.00628732 -0.00107216 -0.0484456)
(-0.00320424 9.97484e-05 -0.000784356)
(-0.070257 -0.00542772 -0.0595075)
(3.82579e-05 0.0017754 -0.0667789)
(-0.0019233 0.00324768 -0.0635659)
(-0.00101009 -0.00271044 -0.0848092)
(-0.000194141 0.00171397 -0.0659331)
(-0.0928973 -0.00642071 -0.169649)
(0.00143823 0.000959823 -0.0105579)
(-0.00147727 0.00125962 -0.00960534)
(-0.0104474 0.000237229 -0.129574)
(-10.4462 -0.897946 -61.966)
(-1.15742 -0.0214912 -51.7859)
(0.00145832 -0.00155866 -0.0122927)
(-0.00149354 0.000789957 -0.00962133)
(-0.00772008 -0.000236713 -0.154902)
(-0.00903018 9.96834e-06 -0.152197)
(-0.00767096 -0.000500289 -0.164966)
(-0.0215798 0.000981957 -0.0859487)
(-0.0327655 0.000195456 -0.103325)
(-0.00137266 -0.000272509 -0.00301256)
(2.10052e-05 -2.60135e-05 0.000153097)
(-0.0689561 -0.00441583 -0.099418)
(-0.02508 -0.000192333 -0.181928)
(-0.0104387 -0.000107673 -0.0108611)
(-0.0374735 -0.00223664 -0.17274)
(-0.0144836 -0.00130123 -0.128162)
(-0.00689388 0.00253297 -0.0890603)
(-0.0395175 -0.00189576 -0.1601)
(-0.0103009 -0.00108617 -0.0702963)
(-0.0363852 -0.00220029 -0.128114)
(-0.225894 -0.0158147 -0.0943073)
(-0.00104916 0.00200296 -0.0684126)
(-0.0299435 -0.00206246 -0.218304)
(-0.337306 -0.0223914 -0.0738346)
(-0.000964916 8.04474e-05 -0.189829)
(-0.0368843 -0.000717927 -0.197636)
(-0.000484982 -5.75685e-05 -0.146904)
(2.67919 -0.0363582 6.85887)
(7.6322 0.420333 4.55628)
(-0.00264354 -0.000152784 -0.126909)
(-0.00217104 0.00286899 -0.108088)
(-0.287126 -0.152885 -38.0595)
(-0.789469 -0.00677234 -0.285944)
(-0.00914701 -0.000566596 -0.177926)
(-5.7329 -0.595642 -12.2157)
(-0.03092 -0.0023738 -0.157391)
(-1.83884 0.0292043 5.23231)
(-1.24369 -0.0658399 8.41929)
(-0.00188447 -0.000644779 -0.129431)
(-0.012517 -0.000834233 -0.193975)
(-0.000981667 0.0018217 -0.0618903)
(-1.66272 -0.0418286 5.88559)
(-0.00733888 -0.000277892 -0.176942)
(-0.000857312 -0.000139002 -0.0200781)
(0.000864431 6.34657e-05 -0.187439)
(-0.0448311 -4.65841e-05 -0.130668)
(-0.0486518 -0.00385041 -0.102345)
(-0.0380964 -0.000559928 -0.213331)
(-0.0440009 -0.00430508 -0.016767)
(-0.0281942 -0.000417443 -0.148653)
(-0.00334145 -0.00122022 -0.12174)
(-0.000464294 -0.00117996 -0.0490682)
(-0.0492352 -0.00232008 -0.198083)
(-0.188809 -0.00745134 -0.26179)
(-0.00356445 0.00201247 -0.105664)
(-0.00284619 0.000138881 -0.0886042)
(-0.00315433 -0.000875795 -0.101229)
(-0.00275288 0.00143285 -0.0693165)
(-0.0187925 -0.00294402 -0.00281706)
(0.0010039 -0.00281231 -0.0635195)
(-0.0455778 0.000434837 -0.00510143)
(-0.00358811 0.00100935 -0.0972925)
(-0.0512634 -0.00517771 -0.047549)
(-0.0545715 -3.12096e-05 -0.0323516)
(-0.0333057 -0.00256166 -0.0186451)
(-0.0602008 -0.00368718 -0.0536428)
(-0.0685253 -0.00370268 -0.0323922)
(-0.00152794 -0.000102578 -0.186008)
(-0.0405852 -0.00166899 -0.215514)
(-0.00583053 -0.00104371 -0.157793)
(-1.6354 0.193949 -36.8995)
(-0.41353 -0.0297731 -0.919048)
(7.94343 0.420043 4.17005)
(-2.21607 0.435464 -29.7738)
(-0.00293732 -0.000116259 -0.175179)
(-0.00898246 -0.000480615 -0.168409)
(-0.00247975 -1.62055e-05 -0.00659304)
(-0.00999775 0.00127436 -0.0789792)
(-0.000394486 -9.3334e-05 -0.00404139)
(-0.00205095 -8.97183e-05 -0.147671)
(-0.0219766 -0.000260099 -0.237919)
(12.3817 0.120066 0.883061)
(0.458179 -0.175914 1.36603)
(5.35204 0.442571 2.90049)
(-0.267314 -0.0198638 -0.454745)
(4.3224 -1.13196 0.580729)
(-0.34097 -0.00612709 -0.0923865)
(-0.325106 -0.00670273 -0.154399)
(-0.307441 -0.0207648 -0.094411)
(-0.00549791 0.00086816 -0.141877)
(-0.0613098 -0.00235891 -0.147641)
(-0.0198683 -0.00158415 -0.0244198)
(-0.105502 -0.00446627 -0.174965)
(-0.0166599 -0.000110392 -0.0251022)
(0.892623 0.563149 -35.0494)
(-0.000261384 0.00156978 -0.02079)
(7.1004 0.507561 4.26204)
(-0.00152621 -9.94203e-05 -0.187602)
(-0.00221419 -0.00283004 -0.0143787)
(5.94829 0.354412 4.66208)
(-0.00784587 -0.000233264 -0.162243)
(-0.00616794 0.000202855 -0.129503)
(-0.00829689 -0.000306335 -0.000495643)
(-0.0131923 0.000151403 -0.0426024)
(-0.0154996 0.000563272 -0.0319164)
(-0.00165758 0.00249943 -0.0635957)
(-0.00664638 -0.00079034 -0.126518)
(-0.0309093 -0.00303871 -0.0197521)
(-0.00464793 -0.00195872 -0.0999005)
(-0.0305645 -0.00289875 -0.0249356)
(-0.0295723 -0.00323557 -0.0277492)
(-0.0344177 -0.00126086 -0.0323624)
(-0.000575273 0.000470984 -0.110894)
(-0.0370843 -0.00212532 -0.0304385)
(-0.00183772 0.00222689 -0.108621)
(-0.00195922 0.000546324 -0.105408)
(-0.0135945 0.00037785 -0.0268664)
(-0.047566 -0.00256117 -0.0306638)
(-0.00192946 -7.72137e-06 -0.000508142)
(-0.0110299 -0.000826709 -0.14033)
(-0.00696773 -0.000180667 -0.189447)
(-0.0080113 -0.000515505 -0.173669)
(-0.00993245 -0.000264922 -0.160148)
(-0.00755589 -0.000268904 -0.173342)
(-13.4122 -1.06259 -64.9728)
(-2.65674 -0.138943 -65.0857)
(-0.00931437 -0.000762607 -0.162279)
(-0.0107243 -0.000909221 -0.150054)
(-0.246807 -0.0114453 -0.355535)
(-0.249396 -0.018226 -0.350942)
(-0.212025 -0.00927861 -0.481693)
(-0.20168 -0.00812225 -0.331829)
(-0.197871 -0.00426562 -0.348305)
(-0.0380265 -0.000661365 -0.225388)
(-0.0449576 -0.00182583 -0.236865)
(-0.0418808 -0.000582197 -0.232787)
(-0.0506962 -0.00321749 -0.135867)
(-0.0436325 -0.00303506 -0.232404)
(8.0339 0.12161 6.72047)
(-0.00129996 0.00126992 -0.0119024)
(-0.00754491 -0.00039214 -0.160835)
(-0.00100558 -2.54655e-05 -0.184955)
(-0.00299367 0.000317937 -0.100733)
(-0.0574365 -0.00444881 -0.0864798)
(-0.0180813 -0.000910936 -0.210677)
(-0.0309397 -0.00134819 -0.262177)
(-0.0168811 -0.000756638 -0.240765)
(-0.0370846 -0.00122555 -0.275917)
(-0.104844 -0.0131295 -0.00936922)
(-0.00106265 0.00053182 -0.0185754)
(-0.00511171 -8.11042e-05 -0.173855)
(-0.00279928 -0.000170763 -0.151862)
(-0.00120535 -0.000996722 -0.00700881)
(-0.0101979 -0.000146459 -0.138968)
(-0.00194641 -0.0015251 -0.0418399)
(-0.00383252 -0.000356779 -0.155862)
(-0.0239346 -0.00127328 -0.00799675)
(-0.00594713 0.000125513 -0.131543)
(-0.00858231 -0.000563847 -0.15787)
(-0.00101765 -0.00191351 -0.0653448)
(-0.00101136 -0.0027967 -0.0835639)
(3.21548 0.132406 6.00159)
(-0.0015298 -0.00149099 -0.0104464)
(-0.35074 -0.0413613 4.51665)
(1.09724 0.12083 2.35268)
(0.000641791 -0.00392619 -0.0462483)
(0.00232613 0.00270708 -0.0429719)
(-0.00123124 -0.00303553 -0.0231695)
(-0.00338594 -0.000475538 5.9919e-05)
(-0.00240838 -8.523e-05 -0.000603092)
(-2.01242 -0.220438 -39.2462)
(-2.01328 -0.162691 -74.9996)
(18.19 1.01925 21.6707)
(-0.0171827 -0.000313577 -0.204946)
(-0.0294569 -0.00210279 -0.22549)
(-0.0185059 -0.00134419 -0.204584)
(-0.0284699 -0.000400043 -0.218302)
(1.74402 0.155277 4.09821)
(-0.741125 -0.0583243 -0.965495)
(-0.156112 -0.010213 -0.169321)
(-0.000180737 7.24254e-05 -0.000378641)
(35.9487 2.79813 2.48085)
(0.00325787 0.00021072 -0.186684)
(-0.00349042 -9.70267e-05 -0.192196)
(-0.00511867 0.00154932 -0.155768)
(-0.149702 -0.00261471 -0.10571)
(0.0009845 4.3793e-05 -0.176287)
(-0.171127 -0.00310467 -0.120979)
(-0.181816 -0.00953366 -0.126216)
(-0.157824 -0.0107613 -0.130975)
(0.00267006 -0.302765 -37.6549)
(-0.003062 -0.00192725 -0.0301471)
(-0.156672 -0.0026178 -0.121016)
(-0.0270484 -0.000417632 -0.223651)
(-4.46384e-05 -0.000740883 -0.0213402)
(-0.169161 -0.0119953 -0.0743236)
(-0.011658 -0.000824964 -0.205098)
(-0.000344779 -0.00231265 -0.0342863)
(5.88989e-05 1.91699e-05 -3.0243e-05)
(-0.71757 -0.0174123 8.66361)
(-0.0682366 -0.00418529 -0.0389455)
(-0.288855 -0.00935929 -0.0908793)
(-0.143931 -0.0091257 -0.01391)
(-0.0772014 -0.00379506 -0.0268329)
(3.13196 0.0818975 4.72665)
(-6.84119e-05 -2.88882e-06 -6.96229e-05)
(1.49027 0.0195713 7.65888)
(-0.0140636 -0.000165763 -0.0174943)
(0.847685 0.0236733 7.05541)
(0.595947 -0.0607005 6.28403)
(0.000865603 -0.0011846 -0.00708546)
(-1.64179 -0.184039 0.688267)
(-0.0745267 -0.00257409 -0.0423289)
(-0.0671166 -0.0017964 -0.185603)
(0.00142125 -0.000871157 -0.0109363)
(-0.00522325 -0.000860905 -0.12365)
(-0.000165129 -1.4942e-05 -5.34475e-05)
(-0.0712869 -0.00533312 -0.00779703)
(1.61757 0.15821 3.02653)
(-0.0811488 -0.00177344 -0.0343975)
(0.0154185 -0.363287 -37.7164)
(-0.00246303 0.000850673 -0.088107)
(0.00124565 -0.000737598 -0.0175246)
(-0.0956548 -0.00478532 -0.0380577)
(-0.0991957 -0.00220976 -0.0358187)
(-0.00016163 0.00246668 -0.0492437)
(-0.00511147 -0.00153887 -0.112272)
(0.0013631 6.27918e-05 -0.145349)
(-0.00906316 -0.000535758 -0.163378)
(34.647 1.27025 1.04262)
(-0.0142576 -0.000451354 -0.181692)
(-0.25971 -0.0112432 -0.138111)
(-0.135763 -0.0049119 -0.227595)
(-0.00696471 -0.000325105 -0.170596)
(-0.296041 -0.00589791 -0.105297)
(-0.0119062 -0.000310082 -0.180151)
(2.85687 0.165359 1.4036)
(-0.0226896 -0.000762666 -0.272269)
(-0.155866 -0.00208373 -0.556193)
(-0.162878 -0.00250214 -0.563451)
(-0.0193294 -0.000122985 -0.275815)
(0.00172872 0.00012811 -0.18666)
(-0.000700519 -9.77603e-05 -0.174205)
(-0.0018857 -4.98471e-06 -0.178979)
(0.00036246 1.35642e-05 -0.185284)
(-7.16254e-05 1.02229e-05 -0.182994)
(0.00126159 -0.00109901 -0.00905519)
(-0.0054141 -0.000874239 -0.155268)
(-0.0087447 0.000286518 -0.139599)
(-0.00253691 0.000801923 -0.106202)
(-0.0162087 -0.000998607 -0.154261)
(-0.00156692 -0.00151193 -0.0121643)
(-0.0169282 -0.00096993 -0.12475)
(-0.10977 -0.00646394 -0.0676439)
(5.18439 0.326831 0.148344)
(-0.14083 -0.00694342 -0.109477)
(-1.46621 -0.16741 1.46679)
(3.29113 0.177319 -44.2564)
(-0.340406 0.00256142 -36.2516)
(1.93379 -0.943624 0.910968)
(-0.289927 -0.0813575 -42.7955)
(1.33045 0.0971828 4.44856)
(-1.1031 -0.0203596 2.05078)
(-0.251458 0.0321097 -52.2156)
(0.17561 -0.0441052 -43.8013)
(0.0421051 0.0548085 -36.8573)
(-0.959375 -0.00729681 1.86246)
(-0.0403793 -0.00282132 -0.224367)
(-0.0379006 -0.00170535 -0.222675)
(0.000186701 -1.95586e-05 -0.146532)
(-0.00715307 0.000476646 -0.157888)
(-0.010543 -0.000139886 -0.184916)
(-0.00501196 0.0013898 -0.0956345)
(0.00107247 0.00255304 -0.0438057)
(14.4943 0.661209 17.9814)
(-0.0152932 -0.0010893 -0.168189)
(-0.00413648 -7.40125e-05 -0.194466)
(-0.00947267 0.00013151 -0.162106)
(-0.00320751 -0.00249517 -0.0451371)
(-0.00229473 -0.00170844 -0.0242011)
(-0.0158776 -0.00171016 -0.0613508)
(-0.0134449 -0.000847372 -0.0818696)
(-0.0086445 -0.000252444 -0.0616877)
(-0.000494559 -0.00037044 -0.00219449)
(-0.000472473 0.000154397 -0.00472255)
(0.00201305 7.96774e-05 -0.179244)
(-0.239167 -0.0167598 -0.141451)
(-0.00624189 -0.00046517 -0.182586)
(-0.0964988 -0.00334124 -0.215202)
(-0.00524202 -3.68227e-05 -0.195578)
(0.000623096 -0.00192635 -0.0244384)
(-0.0856353 -0.00174356 -0.0619082)
(-0.270213 -0.00658105 -0.50883)
(-0.0980038 -0.0013013 -0.284919)
(-0.017772 -0.00138655 -0.139895)
(-0.00631288 -0.00221112 -0.0655887)
(-0.18092 -0.00331744 -0.234164)
(0.162324 0.00352161 -54.2265)
(-0.00362413 -0.000194275 -0.172714)
(-0.00550968 -9.78454e-05 -0.174661)
(-0.00584277 -0.000214238 -0.174051)
(-0.00417286 -0.000267412 -0.175403)
(21.3512 -0.130421 22.3969)
(-0.28632 -0.00740691 -0.285854)
(-0.946115 -0.013097 -0.546183)
(0.00134144 -0.000603558 -0.00920228)
(0.000459779 -0.00424932 -0.0409214)
(-0.0297222 -0.00114074 -0.234115)
(-0.588426 -0.0397602 -0.151549)
(-0.00175556 -3.20152e-05 -0.178865)
(-0.00508216 -0.00102542 -0.150303)
(-0.00197906 -2.36792e-05 -0.177901)
(-0.26392 -0.118497 0.955236)
(-0.0020043 0.00136874 -0.0902399)
(-0.225771 -0.00592593 -0.199556)
(-0.0267438 -0.000429333 -0.194049)
(25.4832 1.96925 23.3875)
(-0.0116994 -0.000192956 -0.189848)
(-0.0108828 -0.000573139 -0.188674)
(-0.013173 -0.000312085 -0.189525)
(-24.7431 -0.0913339 -9.56489)
(-0.0138616 -0.000590216 -0.188535)
(-0.0032116 0.000415339 -0.140721)
(12.9919 1.47009 11.6298)
(-1.02615 -0.0224541 -0.163494)
(-0.516518 -0.0284788 -0.263886)
(-0.00908255 0.000425709 -0.0778799)
(-0.574277 -0.00992329 -0.266911)
(-1.1218 -0.0911 -1.30108)
(-0.290276 -0.0175926 -0.475265)
(-1.56339 0.263027 -29.2626)
(-0.0441071 -0.00289332 -0.256147)
(-0.497351 -0.0016553 -0.0829055)
(-0.0624028 -0.000880076 -0.287411)
(24.1755 0.0473621 31.689)
(-0.00554569 4.46844e-05 -0.136724)
(-1.15324 -0.017998 -52.1184)
(-0.0684375 -0.0044704 -0.29168)
(-0.0471179 -0.00291923 -0.0673028)
(-0.0421922 -0.00178683 -0.0503503)
(-0.0130863 0.000889271 -0.0338532)
(-1.54116 -0.0490674 -55.3039)
(-0.0839817 -0.00146842 -0.267059)
(-0.0828989 -0.00391614 -0.261699)
(-0.0737461 -0.00349385 -0.117661)
(-0.38187 -0.0106763 -0.0348343)
(-0.0744611 -0.00194482 -0.123373)
(-0.0764055 -0.00361565 -0.0975135)
(-0.087049 -0.00516941 -0.103728)
(-0.0849186 -0.00673001 -0.0976915)
(-0.00533036 -0.000359523 -0.19693)
(0.000383083 -0.000151947 -0.0164704)
(-0.00553485 0.00767764 -0.0837911)
(-0.000188497 -6.02525e-06 -0.189076)
(-0.00402195 0.000699362 -0.0943008)
(2.57508 0.0222238 1.15059)
(-0.463256 -0.480726 -23.5402)
(-0.00423482 -6.73295e-05 -0.17394)
(-0.00732536 -8.62941e-05 -0.167057)
(0.00389528 0.000140551 -0.162153)
(-0.00878807 -0.000162993 -0.166782)
(-0.00680901 0.00118752 -0.0545763)
(0.0226512 -0.136055 -41.0424)
(-0.00225974 -2.49763e-05 -0.178434)
(-0.569366 -0.209143 -35.8411)
(-0.0160859 -0.000168276 -0.217274)
(-0.139317 -0.0104585 -0.101598)
(-1.31859 0.372677 -27.0045)
(-0.250404 -0.236699 -36.4091)
(-0.00047421 -0.000487243 -0.0183483)
(-0.0215399 0.00188704 -0.0878764)
(-0.0335791 0.00660557 -35.9401)
(-0.14665 -0.0106286 -0.0934145)
(-0.0066187 -0.000232979 -0.0377259)
(-0.126751 -0.00627508 -0.103114)
(-0.666881 -0.00486472 -0.130821)
(-0.0060985 -0.000446851 -0.0037186)
(-0.145525 -0.00607348 -0.158802)
(-0.00755942 -0.000582491 -0.175193)
(-0.407491 -0.0187592 -38.7886)
(-0.0622382 -0.00145708 -0.186617)
(-0.0471182 -0.00194701 -0.203754)
(-0.0436599 -0.00304684 -0.198854)
(32.5587 1.96443 5.41144)
(-0.0518358 -0.000892529 -0.202659)
(-0.394159 -0.0309891 -0.193176)
(-0.356957 -0.0116506 -0.117166)
(1.65814 0.273092 8.21141)
(2.72709 0.31156 7.67366)
(-7.02418e-05 0.000214569 -0.00711249)
(2.11826 -0.35415 7.54034)
(35.8601 1.74938 2.27531)
(0.00933737 0.000178496 -0.186901)
(1.15668 0.752615 -27.1501)
(0.949387 0.229334 -40.5185)
(-0.00991102 -0.000120187 -0.167308)
(0.0301655 -0.0114882 -52.8504)
(-0.00736388 -0.000221099 -0.158686)
(-0.637555 -0.331439 -39.1336)
(3.50889 0.0838505 7.2853)
(-0.221142 -0.057617 -42.2579)
(-0.122955 -0.000980292 -0.0229212)
(-2.02397 -0.251915 7.92218)
(-0.0588034 -0.00209046 -0.329427)
(-0.368929 -0.00694985 -0.133897)
(-0.071207 -0.00104054 -0.109707)
(-0.0627498 -0.00319245 -0.0922268)
(-0.223348 -0.0114021 -0.130463)
(-0.20138 -0.0140667 -0.514257)
(-0.0714263 -0.00197893 -0.0448963)
(-0.057162 -0.000676799 -0.102192)
(-0.0815409 -0.00349257 -0.0830037)
(-5.99899e-05 -1.89254e-05 -0.187125)
(-0.497297 -0.0234312 -53.6436)
(-0.00394885 0.000274574 -0.149506)
(-0.00639759 -0.000676046 -0.165939)
(-0.00668295 -0.000323457 -0.174101)
(-0.00634129 -0.000120931 -0.152586)
(-0.00671007 -0.000725957 -0.165637)
(-0.0044233 -0.0016037 -0.119764)
(-0.00895177 -6.30649e-05 -0.172918)
(-0.0111016 -0.000796043 -0.197239)
(-0.0193959 -0.000830076 -0.167224)
(-0.004629 -0.00175174 -0.121056)
(-0.0366915 -0.00243426 -0.136041)
(-0.0320101 -0.00192266 -0.136551)
(0.00125705 -0.00243801 -0.0105385)
(-0.041348 -0.00015485 -0.137603)
(-0.00121883 -0.00126436 -0.00909233)
(0.00111162 -0.000875327 -0.0135405)
(-0.000518012 0.000259003 -0.0112597)
(-0.00304328 -0.00118036 -0.124351)
(-0.00366394 -0.00228339 -0.12134)
(7.96115e-05 0.000155612 -0.0189547)
(-0.0131952 -0.000795817 -0.183125)
(-0.000379266 0.000131053 -0.00215316)
(-0.000112199 1.3995e-05 -0.000494401)
(4.01984e-05 -0.000157489 -0.000809362)
(-0.0056773 0.000486175 -0.00106964)
(-0.00304826 -0.00111625 -0.0924121)
(-0.00715326 0.000500052 -0.00147291)
(-0.428091 0.0258347 5.00969)
(-0.00371788 3.2006e-05 -0.000710171)
(-0.00202632 -0.000129065 -0.000553834)
(-0.267687 -0.00521372 -0.0406026)
(-0.184082 -0.00513166 -0.0191608)
(-0.0130044 -0.000470854 -0.185102)
(-0.0014914 -3.53448e-05 -0.0113769)
(-0.00260989 0.000343271 -0.0129399)
(-6.83184e-05 0.000312268 -0.00118558)
(-0.00748137 -0.000489709 -0.180156)
(-0.000427093 -0.000736242 -0.00356656)
(3.23295 -0.153515 1.28307)
(0.904684 0.574522 -27.7134)
(-0.0046054 -0.000387421 -0.13039)
(2.08136 0.450606 -35.1339)
(-0.00402882 -0.000711761 -0.119294)
(-0.00211644 -0.000751892 -0.125474)
(-0.000827159 3.98779e-06 -0.183797)
(-0.418062 -0.0239387 -0.180474)
(-0.320461 -0.00505891 -0.330685)
(12.5417 0.231726 0.699814)
(-0.0061806 0.00139646 -0.131512)
(-0.00105306 -4.06685e-05 -0.181291)
(-0.00566008 0.000210785 -0.130677)
(-2.19023 0.0952581 7.77104)
(-0.0284365 -0.0012742 -0.303821)
(-0.0327718 -0.000731537 -0.34568)
(-0.446902 -0.0170738 -54.5277)
(-0.523858 -0.0349374 -0.228108)
(-0.181688 -0.00276763 -0.0908213)
(-0.0251631 0.00147946 -0.041246)
(-0.00794967 -0.000383754 -0.168281)
(-0.00655793 -0.000458557 -0.139687)
(-0.00876953 -0.000242458 -0.168908)
(-0.00720559 -0.000247985 -0.177132)
(-0.0510103 -0.00366247 -0.17839)
(-0.0757234 -0.00101786 -0.163927)
(-0.018308 -0.000935384 -0.1825)
(-0.0052721 -0.00120352 -0.118425)
(-1.56385 0.0149638 6.88886)
(-0.00794052 -0.000503673 -0.175855)
(-0.00750844 -0.000448455 -0.174962)
(-0.00976901 -0.000665959 -0.181927)
(-0.00954204 -0.000177905 -0.179252)
(-0.0664021 -0.00249247 -0.137204)
(-0.0700505 -0.00196163 -0.134333)
(-0.0179524 -0.000289992 -0.211027)
(-0.0895943 -0.00704873 -0.114336)
(-0.00502587 0.000275307 -0.127386)
(-0.274832 -0.0131348 -0.108676)
(-0.00122844 0.00013156 -0.0133645)
(-0.013969 -0.00114585 -0.155708)
(22.0431 0.0898774 11.0568)
(18.3815 1.2396 13.4775)
(29.377 2.3352 10.5752)
(24.3414 0.969961 11.5271)
(9.44769 1.40635 1.05822)
(-0.000477652 5.46575e-05 -3.56653e-05)
(0.299579 -0.00267384 -49.9008)
(0.401754 0.0118661 -52.2035)
(4.13058 0.117048 6.45933)
(-0.210812 -0.00882501 -0.0883284)
(-0.00138517 0.000138848 -0.00460137)
(-0.377718 -0.0334443 -0.0588217)
(-0.132157 -0.00414142 -0.260835)
(-0.000163843 -0.000128982 -0.000658196)
(-0.0280565 -0.000931101 -0.00835588)
(-8.89786e-05 9.38971e-06 -0.000123834)
(0.115102 0.0450204 -52.0454)
(2.77043e-06 5.17853e-05 0.00011906)
(-0.000889016 -0.000693567 -0.00581337)
(0.0495823 -0.313803 -38.6415)
(-0.00439203 -0.000107678 -0.104343)
(-0.0043497 0.00133804 -0.102791)
(-0.000308649 -6.58947e-05 -0.186543)
(0.000695254 0.00142316 -0.072433)