/*--------------------------------*- C++ -*----------------------------------*\
| =========                 |                                                 |
| \\      /  F ield         | OpenFOAM: The Open Source CFD Toolbox           |
|  \\    /   O peration     | Version:  v2012                                 |
|   \\  /    A nd           | Website:  www.openfoam.com                      |
|    \\/     M anipulation  |                                                 |
\*---------------------------------------------------------------------------*/
FoamFile
{
    version     2.0;
    format      ascii;
    class       surfaceScalarField;
    location    "0.3";
    object      phi;
}
// * * * * * * * * * * * * * * * * * * * * * * * * * * * * * * * * * * * * * //

dimensions      [0 3 -1 0 0 0 0];
oriented        oriented;


internalField   nonuniform List<scalar> 
6514
(
1.04411e-10
-2.2452e-10
1.4219e-16
1.09524e-10
-2.31082e-10
-3.87189e-16
1.13986e-10
-2.3641e-10
-6.45018e-16
1.17719e-10
-2.40447e-10
-8.56838e-16
1.20663e-10
-2.43142e-10
-1.11676e-15
1.22771e-10
-2.44535e-10
-1.31696e-15
1.24016e-10
-2.44604e-10
-1.52072e-15
1.24388e-10
-2.43424e-10
-1.5097e-15
1.23895e-10
-2.41061e-10
-1.56363e-15
1.22561e-10
-2.37595e-10
-1.46462e-15
1.20425e-10
-2.3313e-10
-1.48539e-15
1.1754e-10
-2.27778e-10
-1.48914e-15
1.13965e-10
-2.21662e-10
-1.7155e-15
1.09772e-10
-2.14892e-10
-1.72932e-15
1.05039e-10
-2.07591e-10
-1.75341e-15
9.9845e-11
-1.99863e-10
-1.61154e-15
9.42716e-11
-1.91764e-10
-1.57937e-15
8.8396e-11
-1.83485e-10
-1.37745e-15
8.22978e-11
-1.74974e-10
-1.27348e-15
7.60482e-11
-1.66382e-10
-1.10701e-15
6.97167e-11
-1.5767e-10
-1.1151e-15
6.337e-11
-1.48859e-10
-9.6328e-16
5.70627e-11
-1.40041e-10
-8.48796e-16
5.08539e-11
-1.31066e-10
-6.31304e-16
4.47877e-11
-1.21985e-10
-7.15338e-16
3.89142e-11
-1.12693e-10
-5.01355e-16
3.32757e-11
-1.03132e-10
-3.50961e-16
2.79119e-11
-9.32293e-11
-1.50241e-16
2.28641e-11
-8.28328e-11
-5.2095e-17
1.81758e-11
-7.18626e-11
1.59198e-16
1.38914e-11
-6.02461e-11
3.16935e-16
1.00631e-11
-4.79806e-11
5.42117e-16
6.74685e-12
-3.52687e-11
6.68034e-16
4.00641e-12
-2.26926e-11
8.53297e-16
1.90894e-12
-1.14477e-11
9.65927e-16
5.31977e-13
-3.46765e-12
1.09745e-15
-2.48492e-13
1.14019e-15
1.10404e-10
-2.30216e-10
-5.72961e-16
1.15456e-10
-2.36138e-10
-6.36604e-16
1.1978e-10
-2.4074e-10
-6.18051e-16
1.23304e-10
-2.43978e-10
-6.59104e-16
1.25973e-10
-2.45817e-10
-7.90669e-16
1.27749e-10
-2.46319e-10
-9.24023e-16
1.28613e-10
-2.45477e-10
-1.09349e-15
1.28566e-10
-2.43387e-10
-1.0878e-15
1.27627e-10
-2.40132e-10
-1.13552e-15
1.25833e-10
-2.35809e-10
-1.0522e-15
1.23232e-10
-2.30539e-10
-1.0931e-15
1.19888e-10
-2.24442e-10
-1.13427e-15
1.15868e-10
-2.17654e-10
-1.36168e-15
1.11254e-10
-2.10291e-10
-1.40163e-15
1.06129e-10
-2.02478e-10
-1.43244e-15
1.00577e-10
-1.94323e-10
-1.32267e-15
9.46837e-11
-1.85882e-10
-1.29293e-15
8.8528e-11
-1.7734e-10
-1.1294e-15
8.21903e-11
-1.68645e-10
-1.04066e-15
7.57415e-11
-1.59942e-10
-9.13048e-16
6.92498e-11
-1.51187e-10
-9.2065e-16
6.278e-11
-1.42397e-10
-8.02749e-16
5.63845e-11
-1.33653e-10
-7.02284e-16
5.01192e-11
-1.24806e-10
-5.32212e-16
4.40259e-11
-1.15898e-10
-5.85761e-16
3.81514e-11
-1.06823e-10
-4.06744e-16
3.2535e-11
-9.75181e-11
-2.70111e-16
2.72136e-11
-8.79089e-11
-9.7216e-17
2.22259e-11
-7.7845e-11
-7.82147e-18
1.76123e-11
-6.72466e-11
1.7351e-16
1.34146e-11
-5.6044e-11
3.15716e-16
9.68144e-12
-4.42401e-11
5.11767e-16
6.46468e-12
-3.20427e-11
6.26958e-16
3.82235e-12
-2.0038e-11
7.90639e-16
1.81355e-12
-9.42423e-12
8.97352e-16
5.03567e-13
-2.14008e-12
1.01992e-15
2.73188e-13
1.06285e-15
1.1671e-10
-2.35881e-10
-2.62887e-16
1.21653e-10
-2.41082e-10
-2.00958e-16
1.25789e-10
-2.44877e-10
-2.20373e-16
1.2905e-10
-2.47242e-10
-2.53142e-16
1.31389e-10
-2.4816e-10
-4.15942e-16
1.32779e-10
-2.47712e-10
-5.49389e-16
1.3321e-10
-2.45915e-10
-7.44307e-16
1.32696e-10
-2.4288e-10
-7.65299e-16
1.31269e-10
-2.38712e-10
-8.48119e-16
1.28977e-10
-2.33524e-10
-7.91466e-16
1.2588e-10
-2.27449e-10
-8.61045e-16
1.22051e-10
-2.20622e-10
-9.25705e-16
1.1757e-10
-2.13183e-10
-1.16381e-15
1.12523e-10
-2.05255e-10
-1.21749e-15
1.07e-10
-1.96967e-10
-1.2562e-15
1.0109e-10
-1.88423e-10
-1.15968e-15
9.48816e-11
-1.79682e-10
-1.13301e-15
8.84536e-11
-1.70922e-10
-9.85191e-16
8.18873e-11
-1.62087e-10
-9.05512e-16
7.52521e-11
-1.53314e-10
-7.95908e-16
6.86147e-11
-1.44557e-10
-8.05009e-16
6.20372e-11
-1.35826e-10
-7.02157e-16
5.5569e-11
-1.27191e-10
-6.08536e-16
4.92628e-11
-1.18504e-10
-4.58408e-16
4.31576e-11
-1.09799e-10
-4.99155e-16
3.72966e-11
-1.00965e-10
-3.35297e-16
3.1716e-11
-9.19395e-11
-2.06627e-16
2.64497e-11
-8.26431e-11
-5.10814e-17
2.15337e-11
-7.29283e-11
2.97026e-17
1.70055e-11
-6.27157e-11
1.87695e-16
1.2904e-11
-5.19381e-11
3.13292e-16
9.27442e-12
-4.06035e-11
4.8171e-16
6.16471e-12
-2.89242e-11
5.80873e-16
3.62706e-12
-1.7489e-11
7.1982e-16
1.71238e-12
-7.49612e-12
8.12969e-16
4.7339e-13
-8.85184e-13
9.19754e-16
7.62843e-13
9.50698e-16
1.23331e-10
-2.4148e-10
-1.11002e-15
1.28111e-10
-2.45868e-10
-6.79813e-16
1.32e-10
-2.48771e-10
-4.92186e-16
1.34938e-10
-2.50184e-10
-3.63918e-16
1.36888e-10
-2.50113e-10
-4.04348e-16
1.37832e-10
-2.4866e-10
-4.33746e-16
1.37775e-10
-2.45863e-10
-5.78187e-16
1.36745e-10
-2.41855e-10
-5.73531e-16
1.34785e-10
-2.36759e-10
-6.69725e-16
1.31958e-10
-2.30702e-10
-6.22346e-16
1.28335e-10
-2.23833e-10
-7.08821e-16
1.24e-10
-2.16294e-10
-7.79481e-16
1.19042e-10
-2.08234e-10
-1.02002e-15
1.13554e-10
-1.99778e-10
-1.07782e-15
1.07632e-10
-1.91054e-10
-1.12312e-15
1.01367e-10
-1.82168e-10
-1.03477e-15
9.48498e-11
-1.73174e-10
-1.01269e-15
8.81604e-11
-1.64241e-10
-8.75507e-16
8.13788e-11
-1.55313e-10
-8.04852e-16
7.45726e-11
-1.46515e-10
-7.07218e-16
6.78059e-11
-1.37798e-10
-7.1981e-16
6.11376e-11
-1.29164e-10
-6.2596e-16
5.46138e-11
-1.20673e-10
-5.37216e-16
4.82836e-11
-1.12178e-10
-4.02424e-16
4.21825e-11
-1.03702e-10
-4.33341e-16
3.635e-11
-9.51359e-11
-2.77033e-16
3.08193e-11
-8.64102e-11
-1.50924e-16
2.56211e-11
-7.74448e-11
-4.13386e-18
2.07886e-11
-6.80946e-11
7.05937e-17
1.63563e-11
-5.82803e-11
2.1291e-16
1.23604e-11
-4.79375e-11
3.25019e-16
8.84284e-12
-3.7079e-11
4.72842e-16
5.84752e-12
-2.59203e-11
5.57765e-16
3.42091e-12
-1.50516e-11
6.77738e-16
1.60561e-12
-5.66815e-12
7.59569e-16
4.41503e-13
2.93819e-13
8.53627e-16
1.21946e-12
8.79421e-16
1.30267e-10
-2.46935e-10
1.41749e-16
1.34822e-10
-2.50421e-10
2.26058e-17
1.38398e-10
-2.52348e-10
-1.39914e-16
1.40946e-10
-2.52734e-10
-1.49116e-16
1.42439e-10
-2.51608e-10
-2.62767e-16
1.42875e-10
-2.49099e-10
-2.98161e-16
1.42273e-10
-2.45264e-10
-4.42784e-16
1.40674e-10
-2.40261e-10
-4.38764e-16
1.38137e-10
-2.34227e-10
-5.51108e-16
1.34739e-10
-2.27308e-10
-5.14381e-16
1.30563e-10
-2.19662e-10
-6.0804e-16
1.25703e-10
-2.1144e-10
-6.75767e-16
1.20256e-10
-2.02795e-10
-9.08725e-16
1.14322e-10
-1.93853e-10
-9.64134e-16
1.08001e-10
-1.84742e-10
-1.01269e-15
1.01388e-10
-1.75563e-10
-9.29646e-16
9.4573e-11
-1.66367e-10
-9.11872e-16
8.76361e-11
-1.57311e-10
-7.83077e-16
8.06556e-11
-1.48339e-10
-7.21165e-16
7.36961e-11
-1.39562e-10
-6.32262e-16
6.68187e-11
-1.30927e-10
-6.48103e-16
6.00784e-11
-1.22429e-10
-5.6066e-16
5.35175e-11
-1.14117e-10
-4.77466e-16
4.71809e-11
-1.05845e-10
-3.48544e-16
4.11007e-11
-9.76262e-11
-3.76503e-16
3.53125e-11
-8.93501e-11
-2.26108e-16
2.9846e-11
-8.09446e-11
-1.05562e-16
2.47291e-11
-7.23273e-11
3.30018e-17
1.99918e-11
-6.33557e-11
1.02075e-16
1.5666e-11
-5.39511e-11
2.32379e-16
1.1785e-11
-4.40518e-11
3.33843e-16
8.38767e-12
-3.36746e-11
4.65934e-16
5.51385e-12
-2.30382e-11
5.39345e-16
3.20437e-12
-1.27317e-11
6.44242e-16
1.49346e-12
-3.9451e-12
7.15893e-16
4.07948e-13
1.39352e-12
7.9856e-16
1.64172e-12
8.15315e-16
1.37509e-10
-2.52203e-10
-8.44834e-16
1.41767e-10
-2.54684e-10
-5.76113e-16
1.44957e-10
-2.55543e-10
-5.56519e-16
1.47041e-10
-2.54822e-10
-3.92949e-16
1.48007e-10
-2.52578e-10
-4.09508e-16
1.47868e-10
-2.48963e-10
-3.33996e-16
1.4666e-10
-2.4406e-10
-4.30444e-16
1.44441e-10
-2.38045e-10
-3.8118e-16
1.41284e-10
-2.31075e-10
-4.95623e-16
1.3728e-10
-2.23308e-10
-4.50868e-16
1.32526e-10
-2.14912e-10
-5.45646e-16
1.27124e-10
-2.06043e-10
-6.00248e-16
1.2118e-10
-1.96858e-10
-8.21243e-16
1.148e-10
-1.87481e-10
-8.69321e-16
1.08086e-10
-1.78037e-10
-9.19342e-16
1.01135e-10
-1.6862e-10
-8.39783e-16
9.40367e-11
-1.59276e-10
-8.25731e-16
8.68696e-11
-1.50151e-10
-7.0394e-16
7.97092e-11
-1.41184e-10
-6.49556e-16
7.26168e-11
-1.32475e-10
-5.668e-16
6.56493e-11
-1.23965e-10
-5.84373e-16
5.88574e-11
-1.15641e-10
-5.01217e-16
5.22791e-11
-1.07544e-10
-4.22536e-16
4.5955e-11
-9.95235e-11
-3.02891e-16
3.99132e-11
-9.1588e-11
-3.20855e-16
3.41854e-11
-8.36242e-11
-1.76291e-16
2.8798e-11
-7.55576e-11
-5.90144e-17
2.37754e-11
-6.73037e-11
7.36244e-17
1.91452e-11
-5.87234e-11
1.38042e-16
1.49362e-11
-4.97385e-11
2.57986e-16
1.11793e-11
-4.02898e-11
3.49429e-16
7.91007e-12
-3.03983e-11
4.67722e-16
5.16456e-12
-2.02844e-11
5.30658e-16
2.97801e-12
-1.0535e-11
6.22905e-16
1.37623e-12
-2.33161e-12
6.85848e-16
3.72796e-13
2.41055e-12
7.59211e-16
2.02818e-12
7.70684e-16
1.45046e-10
-2.57194e-10
-7.82199e-16
1.48926e-10
-2.58568e-10
-5.39349e-16
1.51647e-10
-2.58267e-10
-5.38721e-16
1.53186e-10
-2.56365e-10
-4.07424e-16
1.53548e-10
-2.52943e-10
-4.25535e-16
1.52764e-10
-2.48182e-10
-3.4332e-16
1.50889e-10
-2.42188e-10
-4.14029e-16
1.47997e-10
-2.35157e-10
-3.5364e-16
1.44179e-10
-2.27261e-10
-4.62708e-16
1.39538e-10
-2.18671e-10
-4.16429e-16
1.34184e-10
-2.09562e-10
-5.02961e-16
1.28229e-10
-2.00093e-10
-5.44451e-16
1.21785e-10
-1.90421e-10
-7.48769e-16
1.14962e-10
-1.80666e-10
-7.88816e-16
1.07865e-10
-1.70947e-10
-8.38608e-16
1.0059e-10
-1.61352e-10
-7.62009e-16
9.32272e-11
-1.51919e-10
-7.5157e-16
8.58506e-11
-1.42781e-10
-6.35849e-16
7.85325e-11
-1.33871e-10
-5.88092e-16
7.13298e-11
-1.25278e-10
-5.09234e-16
6.42948e-11
-1.16935e-10
-5.27147e-16
5.74735e-11
-1.08824e-10
-4.46587e-16
5.08988e-11
-1.00973e-10
-3.72717e-16
4.46068e-11
-9.3234e-11
-2.53892e-16
3.86217e-11
-8.56057e-11
-2.68135e-16
3.29709e-11
-7.79748e-11
-1.28538e-16
2.76773e-11
-7.02639e-11
-1.84601e-17
2.27625e-11
-6.23874e-11
1.06817e-16
1.82509e-11
-5.42094e-11
1.6609e-16
1.41691e-11
-4.56527e-11
2.7707e-16
1.05451e-11
-3.66606e-11
3.60133e-16
7.41146e-12
-2.72577e-11
4.67466e-16
4.80069e-12
-1.76655e-11
5.22377e-16
2.74249e-12
-8.46691e-12
6.0479e-16
1.25427e-12
-8.32021e-13
6.60667e-16
3.36142e-13
3.34179e-12
7.26249e-16
2.37745e-12
7.33211e-16
1.52856e-10
-2.61832e-10
-1.98343e-15
1.56267e-10
-2.61989e-10
-1.2561e-15
1.58426e-10
-2.60437e-10
-1.0622e-15
1.59333e-10
-2.57278e-10
-7.01667e-16
1.59009e-10
-2.52626e-10
-6.3686e-16
1.57509e-10
-2.46685e-10
-4.3151e-16
1.54904e-10
-2.39587e-10
-4.65848e-16
1.51289e-10
-2.31546e-10
-3.51294e-16
1.4677e-10
-2.22747e-10
-4.59192e-16
1.41465e-10
-2.1337e-10
-3.94862e-16
1.35494e-10
-2.03595e-10
-4.76572e-16
1.2898e-10
-1.93583e-10
-4.99099e-16
1.22037e-10
-1.83484e-10
-6.88594e-16
1.14781e-10
-1.73417e-10
-7.1861e-16
1.07316e-10
-1.63489e-10
-7.68173e-16
9.97374e-11
-1.5378e-10
-6.94002e-16
9.21317e-11
-1.44319e-10
-6.87205e-16
8.45699e-11
-1.35225e-10
-5.77181e-16
7.71192e-11
-1.26426e-10
-5.34881e-16
6.98315e-11
-1.17994e-10
-4.5845e-16
6.27538e-11
-1.09862e-10
-4.75171e-16
5.59266e-11
-1.02001e-10
-3.95963e-16
4.93777e-11
-9.44277e-11
-3.25629e-16
4.31385e-11
-8.69967e-11
-2.13549e-16
3.72286e-11
-7.96983e-11
-2.15557e-16
3.16717e-11
-7.24186e-11
-8.11741e-17
2.6487e-11
-6.50786e-11
2.48555e-17
2.16931e-11
-5.75915e-11
1.44996e-16
1.73117e-11
-4.98253e-11
2.00298e-16
1.33669e-11
-4.17036e-11
3.03005e-16
9.88418e-12
-3.31724e-11
3.77622e-16
6.89344e-12
-2.42598e-11
4.74197e-16
4.42346e-12
-1.51873e-11
5.20978e-16
2.49861e-12
-6.53229e-12
5.93914e-16
1.12796e-12
5.49732e-13
6.42736e-16
2.98103e-13
4.18435e-12
7.00788e-16
2.68821e-12
7.04031e-16
1.60912e-10
-2.65997e-10
-1.4081e-15
1.63748e-10
-2.64833e-10
-1.10737e-15
1.65246e-10
-2.61943e-10
-9.96318e-16
1.65425e-10
-2.57463e-10
-7.37572e-16
1.64331e-10
-2.51537e-10
-6.66418e-16
1.62039e-10
-2.44397e-10
-4.79767e-16
1.58643e-10
-2.36195e-10
-4.8291e-16
1.54256e-10
-2.27163e-10
-3.63865e-16
1.49002e-10
-2.17497e-10
-4.56844e-16
1.43011e-10
-2.07382e-10
-3.88697e-16
1.36413e-10
-1.97001e-10
-4.55693e-16
1.29339e-10
-1.86512e-10
-4.64284e-16
1.21906e-10
-1.76058e-10
-6.35908e-16
1.14232e-10
-1.65748e-10
-6.5757e-16
1.06419e-10
-1.55683e-10
-7.05649e-16
9.85606e-11
-1.45927e-10
-6.34072e-16
9.0739e-11
-1.36503e-10
-6.31027e-16
8.30198e-11
-1.27511e-10
-5.2618e-16
7.54648e-11
-1.18875e-10
-4.88605e-16
6.81199e-11
-1.10654e-10
-4.13148e-16
6.1026e-11
-1.02772e-10
-4.27733e-16
5.4218e-11
-9.51958e-11
-3.48794e-16
4.77181e-11
-8.7931e-11
-2.8231e-16
4.15527e-11
-8.08329e-11
-1.69023e-16
3.57373e-11
-7.38846e-11
-1.66082e-16
3.02912e-11
-6.69728e-11
-3.60168e-17
2.52304e-11
-6.00168e-11
6.23894e-17
2.05705e-11
-5.29292e-11
1.7596e-16
1.63306e-11
-4.55822e-11
2.26936e-16
1.25323e-11
-3.79007e-11
3.22464e-16
9.19903e-12
-2.98335e-11
3.90136e-16
6.35789e-12
-2.14114e-11
4.78174e-16
4.03423e-12
-1.28555e-11
5.18907e-16
2.24726e-12
-4.73564e-12
5.84425e-16
9.97781e-13
1.81012e-12
6.27508e-16
2.58816e-13
4.93571e-12
6.79022e-16
2.95933e-12
6.78843e-16
1.69166e-10
-2.69589e-10
-2.44863e-15
1.71313e-10
-2.66995e-10
-1.68853e-15
1.72041e-10
-2.62683e-10
-1.47295e-15
1.71392e-10
-2.56824e-10
-9.81054e-16
1.6944e-10
-2.49592e-10
-8.69239e-16
1.66282e-10
-2.41245e-10
-5.61684e-16
1.62037e-10
-2.31954e-10
-5.49172e-16
1.56835e-10
-2.21965e-10
-3.75862e-16
1.50816e-10
-2.11482e-10
-4.71548e-16
1.44124e-10
-2.00693e-10
-3.82073e-16
1.36896e-10
-1.89777e-10
-4.43947e-16
1.29267e-10
-1.78887e-10
-4.3336e-16
1.2136e-10
-1.68156e-10
-5.9164e-16
1.13289e-10
-1.57683e-10
-6.03406e-16
1.05155e-10
-1.47554e-10
-6.50493e-16
9.7046e-11
-1.37824e-10
-5.80985e-16
8.90395e-11
-1.28501e-10
-5.81638e-16
8.11946e-11
-1.19671e-10
-4.81692e-16
7.35665e-11
-1.11251e-10
-4.4774e-16
6.61943e-11
-1.03285e-10
-3.7247e-16
5.91127e-11
-9.56945e-11
-3.83916e-16
5.23501e-11
-8.84359e-11
-3.04549e-16
4.59233e-11
-8.15069e-11
-2.40525e-16
3.98536e-11
-7.47643e-11
-1.33127e-16
3.4152e-11
-6.81843e-11
-1.16799e-16
2.88339e-11
-6.16545e-11
8.46388e-18
2.39119e-11
-5.50932e-11
1.02868e-16
1.93987e-11
-4.84133e-11
2.12194e-16
1.53111e-11
-4.1491e-11
2.60103e-16
1.16685e-11
-3.42532e-11
3.48986e-16
8.49225e-12
-2.66513e-11
4.09616e-16
5.80691e-12
-1.87187e-11
4.88974e-16
3.63459e-12
-1.06749e-11
5.23278e-16
1.98948e-12
-3.08088e-12
5.81224e-16
8.64263e-13
2.94612e-12
6.18274e-16
2.18436e-13
5.59369e-12
6.6319e-16
3.18977e-12
6.59798e-16
1.77562e-10
-2.72464e-10
-2.27909e-15
1.78894e-10
-2.6834e-10
-1.69908e-15
1.78734e-10
-2.62534e-10
-1.41246e-15
1.77154e-10
-2.55252e-10
-1.02832e-15
1.74254e-10
-2.46699e-10
-8.86233e-16
1.70159e-10
-2.37155e-10
-6.17251e-16
1.65009e-10
-2.26809e-10
-5.70465e-16
1.58955e-10
-2.15914e-10
-4.02153e-16
1.52149e-10
-2.04681e-10
-4.79429e-16
1.44748e-10
-1.93295e-10
-3.87832e-16
1.36894e-10
-1.81928e-10
-4.33178e-16
1.28727e-10
-1.70723e-10
-4.10596e-16
1.20368e-10
-1.59802e-10
-5.52389e-16
1.11929e-10
-1.49249e-10
-5.5653e-16
1.03506e-10
-1.39137e-10
-6.01294e-16
9.51816e-11
-1.29505e-10
-5.33857e-16
8.70258e-11
-1.20349e-10
-5.38082e-16
7.90904e-11
-1.1174e-10
-4.42348e-16
7.14232e-11
-1.03587e-10
-4.11408e-16
6.4056e-11
-9.59216e-11
-3.35328e-16
5.70166e-11
-8.86584e-11
-3.43244e-16
5.0327e-11
-8.17486e-11
-2.62787e-16
4.39982e-11
-7.51804e-11
-2.01674e-16
3.80462e-11
-6.8813e-11
-9.21713e-17
3.2478e-11
-6.26168e-11
-7.06416e-17
2.73048e-11
-5.64806e-11
5.06933e-17
2.25361e-11
-5.03225e-11
1.37591e-16
1.81821e-11
-4.40561e-11
2.4114e-16
1.42573e-11
-3.75623e-11
2.85563e-16
1.07791e-11
-3.07698e-11
3.68722e-16
7.76682e-12
-2.36329e-11
4.23748e-16
5.24288e-12
-1.61872e-11
4.96444e-16
3.22629e-12
-8.64993e-12
5.26237e-16
1.72641e-12
-1.57134e-12
5.78452e-16
7.2801e-13
3.95524e-12
6.10773e-16
1.77145e-13
6.15654e-12
6.50109e-16
3.37871e-12
6.43744e-16
1.86023e-10
-2.74484e-10
-2.92115e-15
1.86403e-10
-2.68737e-10
-1.98238e-15
1.85231e-10
-2.61377e-10
-1.72662e-15
1.82612e-10
-2.52645e-10
-1.1583e-15
1.78677e-10
-2.42773e-10
-1.03516e-15
1.73578e-10
-2.32061e-10
-6.66512e-16
1.67476e-10
-2.20711e-10
-6.28706e-16
1.60539e-10
-2.08982e-10
-4.13673e-16
1.52936e-10
-1.97082e-10
-4.99759e-16
1.44828e-10
-1.8519e-10
-3.87854e-16
1.36363e-10
-1.73468e-10
-4.29517e-16
1.27682e-10
-1.62044e-10
-3.89613e-16
1.18902e-10
-1.51026e-10
-5.20194e-16
1.10131e-10
-1.40483e-10
-5.15191e-16
1.01458e-10
-1.30469e-10
-5.58121e-16
9.2958e-11
-1.21009e-10
-4.9207e-16
8.46928e-11
-1.12088e-10
-4.99406e-16
7.67057e-11
-1.03757e-10
-4.07478e-16
6.90362e-11
-9.59209e-11
-3.78455e-16
6.17083e-11
-8.85968e-11
-3.01184e-16
5.47425e-11
-8.16955e-11
-3.04984e-16
4.81542e-11
-7.51622e-11
-2.23106e-16
4.19487e-11
-6.89768e-11
-1.6352e-16
3.61368e-11
-6.30015e-11
-5.95573e-17
3.07214e-11
-5.72015e-11
-2.44105e-17
2.57099e-11
-5.14679e-11
9.23534e-17
2.11088e-11
-4.57191e-11
1.75532e-16
1.69259e-11
-3.98697e-11
2.75549e-16
1.31738e-11
-3.38058e-11
3.17648e-16
9.86794e-12
-2.74584e-11
3.95434e-16
7.02607e-12
-2.07846e-11
4.44684e-16
4.66846e-12
-1.38219e-11
5.1038e-16
2.81131e-12
-6.78427e-12
5.35147e-16
1.45937e-12
-2.09686e-13
5.81295e-16
5.89709e-13
4.83562e-12
6.08564e-16
1.35149e-13
6.62299e-12
6.42285e-16
3.52552e-12
6.33234e-16
1.94452e-10
-2.75477e-10
-2.20252e-15
1.93733e-10
-2.68031e-10
-1.72572e-15
1.91421e-10
-2.59077e-10
-1.50499e-15
1.87657e-10
-2.48891e-10
-1.12719e-15
1.82604e-10
-2.37727e-10
-9.9634e-16
1.76439e-10
-2.25902e-10
-6.97309e-16
1.69346e-10
-2.13624e-10
-6.36759e-16
1.6151e-10
-2.01151e-10
-4.392e-16
1.53108e-10
-1.88684e-10
-5.09833e-16
1.44307e-10
-1.76392e-10
-3.98874e-16
1.35257e-10
-1.64422e-10
-4.25297e-16
1.26096e-10
-1.52885e-10
-3.75664e-16
1.16935e-10
-1.4187e-10
-4.9203e-16
1.07876e-10
-1.31428e-10
-4.80004e-16
9.89988e-11
-1.21597e-10
-5.20002e-16
9.03688e-11
-1.12384e-10
-4.54975e-16
8.20385e-11
-1.03762e-10
-4.65137e-16
7.40419e-11
-9.57643e-11
-3.76042e-16
6.64092e-11
-8.82913e-11
-3.48454e-16
5.91567e-11
-8.1347e-11
-2.69215e-16
5.2297e-11
-7.48384e-11
-2.68883e-16
4.5839e-11
-6.87058e-11
-1.85179e-16
3.97823e-11
-6.29216e-11
-1.27742e-16
3.41329e-11
-5.7352e-11
-2.12505e-17
2.88895e-11
-5.19578e-11
1.88813e-17
2.40561e-11
-4.66328e-11
1.31972e-16
1.96363e-11
-4.12966e-11
2.07976e-16
1.5636e-11
-3.58654e-11
3.02807e-16
1.20657e-11
-3.02309e-11
3.4203e-16
8.93952e-12
-2.43264e-11
4.15153e-16
6.27367e-12
-1.8112e-11
4.59929e-16
4.08659e-12
-1.16269e-11
5.2042e-16
2.39183e-12
-5.08086e-12
5.41915e-16
1.1898e-12
1.00215e-12
5.83669e-16
4.50129e-13
5.58604e-12
6.07199e-16
9.2684e-14
6.99228e-12
6.36404e-16
3.62979e-12
6.2492e-16
2.02723e-10
-2.75278e-10
-2.37726e-15
2.00752e-10
-2.66075e-10
-1.73487e-15
1.97172e-10
-2.55511e-10
-1.65963e-15
1.92161e-10
-2.43891e-10
-1.16229e-15
1.85914e-10
-2.31489e-10
-1.08851e-15
1.78635e-10
-2.18628e-10
-7.16509e-16
1.70526e-10
-2.0552e-10
-6.80035e-16
1.61785e-10
-1.92414e-10
-4.47058e-16
1.52596e-10
-1.795e-10
-5.2976e-16
1.43129e-10
-1.66929e-10
-4.02338e-16
1.33533e-10
-1.54829e-10
-4.26238e-16
1.23936e-10
-1.43291e-10
-3.62462e-16
1.14445e-10
-1.32383e-10
-4.69425e-16
1.0515e-10
-1.22137e-10
-4.49468e-16
9.61204e-11
-1.12572e-10
-4.86798e-16
8.74113e-11
-1.03679e-10
-4.22331e-16
7.90643e-11
-9.54179e-11
-4.34456e-16
7.11032e-11
-8.78067e-11
-3.4781e-16
6.35488e-11
-8.07398e-11
-3.2055e-16
5.64089e-11
-7.42095e-11
-2.39221e-16
4.96887e-11
-6.81205e-11
-2.34388e-16
4.33905e-11
-6.24087e-11
-1.48752e-16
3.75083e-11
-5.70405e-11
-9.21306e-17
3.20433e-11
-5.18866e-11
9.0099e-18
2.69907e-11
-4.69044e-11
6.2487e-17
2.23511e-11
-4.19912e-11
1.71207e-16
1.81258e-11
-3.70681e-11
2.43856e-16
1.43186e-11
-3.20539e-11
3.35648e-16
1.09387e-11
-2.68459e-11
3.73016e-16
7.9987e-12
-2.13802e-11
4.41658e-16
5.5137e-12
-1.56201e-11
4.81673e-16
3.50051e-12
-9.6055e-12
5.36459e-16
1.97027e-12
-3.54178e-12
5.54044e-16
9.19314e-13
2.06304e-12
5.90949e-16
3.10131e-13
6.20605e-12
6.10407e-16
5.00201e-14
7.26426e-12
6.35099e-16
3.69139e-12
6.21609e-16
2.10689e-10
-2.73697e-10
-2.1296e-15
2.07308e-10
-2.62707e-10
-1.68983e-15
2.02333e-10
-2.50549e-10
-1.53494e-15
1.95981e-10
-2.37548e-10
-1.16446e-15
1.88476e-10
-2.23993e-10
-1.05594e-15
1.80047e-10
-2.10205e-10
-7.40763e-16
1.70912e-10
-1.96391e-10
-6.83161e-16
1.61279e-10
-1.82785e-10
-4.68238e-16
1.51333e-10
-1.69559e-10
-5.39103e-16
1.41243e-10
-1.56842e-10
-4.13574e-16
1.3115e-10
-1.44739e-10
-4.25626e-16
1.21175e-10
-1.33319e-10
-3.54051e-16
1.11413e-10
-1.22625e-10
-4.499e-16
1.01942e-10
-1.1267e-10
-4.23502e-16
9.28192e-11
-1.03453e-10
-4.57887e-16
8.40869e-11
-9.49504e-11
-3.93262e-16
7.57753e-11
-8.71095e-11
-4.07261e-16
6.78974e-11
-7.99321e-11
-3.21881e-16
6.04645e-11
-7.33094e-11
-2.94707e-16
5.34757e-11
-6.72228e-11
-2.10599e-16
4.69288e-11
-6.15755e-11
-2.0147e-16
4.08198e-11
-5.63005e-11
-1.13629e-16
3.51374e-11
-5.13589e-11
-5.85895e-17
2.98785e-11
-4.66269e-11
4.52355e-17
2.50347e-11
-4.20594e-11
1.03312e-16
2.0604e-11
-3.75579e-11
2.0859e-16
1.65854e-11
-3.30458e-11
2.74522e-16
1.29811e-11
-2.84449e-11
3.61573e-16
9.79899e-12
-2.36585e-11
3.96435e-16
7.05086e-12
-1.86256e-11
4.61134e-16
4.75064e-12
-1.33126e-11
4.9753e-16
2.91379e-12
-7.76028e-12
5.48183e-16
1.5493e-12
-2.16826e-12
5.63415e-16
6.49686e-13
2.97273e-12
5.96985e-16
1.70679e-13
6.69598e-12
6.13639e-16
7.46319e-15
7.4394e-12
6.34929e-16
3.71046e-12
6.19649e-16
2.18163e-10
-2.70548e-10
-2.20355e-15
2.13219e-10
-2.57777e-10
-1.65392e-15
2.06732e-10
-2.44076e-10
-1.62102e-15
1.98957e-10
-2.29784e-10
-1.16553e-15
1.90148e-10
-2.15193e-10
-1.1057e-15
1.80554e-10
-2.00617e-10
-7.41333e-16
1.70404e-10
-1.86246e-10
-7.06766e-16
1.59909e-10
-1.72295e-10
-4.70235e-16
1.49254e-10
-1.58908e-10
-5.51702e-16
1.38599e-10
-1.4619e-10
-4.16426e-16
1.28075e-10
-1.34219e-10
-4.26344e-16
1.17791e-10
-1.23037e-10
-3.45423e-16
1.07828e-10
-1.12666e-10
-4.33412e-16
9.82483e-11
-1.03095e-10
-4.01159e-16
8.90969e-11
-9.43053e-11
-4.32366e-16
8.04019e-11
-8.62588e-11
-3.67854e-16
7.21808e-11
-7.88914e-11
-3.82569e-16
6.44361e-11
-7.21904e-11
-2.98381e-16
5.7169e-11
-6.60446e-11
-2.70209e-16
5.03703e-11
-6.0426e-11
-1.83434e-16
4.40306e-11
-5.52375e-11
-1.69719e-16
3.81399e-11
-5.04102e-11
-7.9706e-17
3.26821e-11
-4.59015e-11
-2.49736e-17
2.765e-11
-4.15937e-11
7.36617e-17
2.30324e-11
-3.74401e-11
1.44502e-16
1.88246e-11
-3.33471e-11
2.45649e-16
1.50238e-11
-2.92411e-11
3.08623e-16
1.16312e-11
-2.50473e-11
3.92987e-16
8.65356e-12
-2.06751e-11
4.26258e-16
6.10188e-12
-1.60671e-11
4.8708e-16
3.98937e-12
-1.11925e-11
5.19487e-16
2.33032e-12
-6.09263e-12
5.65392e-16
1.13183e-12
-9.60517e-13
5.7754e-16
3.82886e-13
3.73192e-12
6.07227e-16
3.28453e-14
7.05709e-12
6.20724e-16
-3.46418e-14
7.51891e-12
6.38597e-16
3.68751e-12
6.22045e-16
2.24933e-10
-2.65636e-10
-2.12378e-15
2.18277e-10
-2.51135e-10
-1.66954e-15
2.10175e-10
-2.35987e-10
-1.55931e-15
2.00917e-10
-2.20536e-10
-1.17077e-15
1.90781e-10
-2.05067e-10
-1.07551e-15
1.8003e-10
-1.89872e-10
-7.4596e-16
1.68899e-10
-1.75121e-10
-6.99229e-16
1.57596e-10
-1.60997e-10
-4.76606e-16
1.46298e-10
-1.47615e-10
-5.53792e-16
1.35154e-10
-1.3505e-10
-4.20404e-16
1.2428e-10
-1.23349e-10
-4.2447e-16
1.13768e-10
-1.12528e-10
-3.3771e-16
1.03683e-10
-1.02584e-10
-4.18792e-16
9.40711e-11
-9.34865e-11
-3.80985e-16
8.49613e-11
-8.51991e-11
-4.10163e-16
7.63678e-11
-7.76686e-11
-3.44657e-16
6.82953e-11
-7.08217e-11
-3.60592e-16
6.07351e-11
-6.4633e-11
-2.76342e-16
5.36788e-11
-5.89904e-11
-2.47295e-16
4.71092e-11
-5.3858e-11
-1.57221e-16
4.10102e-11
-4.91398e-11
-1.39291e-16
3.53661e-11
-4.47663e-11
-4.68937e-17
3.01568e-11
-4.06922e-11
6.66062e-18
2.53711e-11
-3.68066e-11
1.07965e-16
2.09958e-11
-3.30625e-11
1.82954e-16
1.70238e-11
-2.93717e-11
2.8092e-16
1.3451e-11
-2.5664e-11
3.37724e-16
1.02776e-11
-2.18686e-11
4.17729e-16
7.50987e-12
-1.79013e-11
4.48722e-16
5.15817e-12
-1.37084e-11
5.06096e-16
3.23521e-12
-9.26178e-12
5.35508e-16
1.75437e-12
-4.60296e-12
5.78041e-16
7.21061e-13
8.22389e-14
5.88478e-16
1.21079e-13
4.34233e-12
6.15633e-16
-1.02175e-13
7.29157e-12
6.27144e-16
-7.5898e-14
7.50478e-12
6.42657e-16
3.62342e-12
6.24965e-16
2.30739e-10
-2.5878e-10
-1.99204e-15
2.22244e-10
-2.42652e-10
-1.54987e-15
2.12449e-10
-2.26205e-10
-1.53071e-15
2.01675e-10
-2.09772e-10
-1.12302e-15
1.90219e-10
-1.93619e-10
-1.05813e-15
1.78349e-10
-1.78007e-10
-7.17435e-16
1.66297e-10
-1.63075e-10
-6.86813e-16
1.54265e-10
-1.48969e-10
-4.63673e-16
1.42414e-10
-1.35768e-10
-5.48083e-16
1.30875e-10
-1.23514e-10
-4.15829e-16
1.19746e-10
-1.12224e-10
-4.18093e-16
1.091e-10
-1.01884e-10
-3.28838e-16
9.89817e-11
-9.24689e-11
-4.03673e-16
8.94201e-11
-8.39283e-11
-3.63225e-16
8.04271e-11
-7.62095e-11
-3.89315e-16
7.20025e-11
-6.92471e-11
-3.24238e-16
6.41381e-11
-6.29601e-11
-3.39984e-16
5.68146e-11
-5.73121e-11
-2.56161e-16
5.00141e-11
-5.21918e-11
-2.25234e-16
4.37122e-11
-4.75574e-11
-1.32239e-16
3.78864e-11
-4.3315e-11
-1.09845e-16
3.25161e-11
-3.93958e-11
-1.52142e-17
2.75776e-11
-3.57533e-11
3.83786e-17
2.30568e-11
-3.2284e-11
1.34685e-16
1.89383e-11
-2.89414e-11
2.21643e-16
1.52136e-11
-2.56432e-11
3.1577e-16
1.18776e-11
-2.23233e-11
3.70027e-16
8.92981e-12
-1.89151e-11
4.47629e-16
6.37613e-12
-1.53413e-11
4.77186e-16
4.22671e-12
-1.15515e-11
5.31122e-16
2.49396e-12
-7.52094e-12
5.57133e-16
1.19057e-12
-3.29049e-12
5.95626e-16
3.205e-13
9.61981e-13
6.03578e-16
-1.33348e-13
4.8068e-12
6.27598e-16
-2.33049e-13
7.40267e-12
6.36747e-16
-1.15858e-13
7.3999e-12
6.49823e-16
3.51951e-12
6.31544e-16
2.35299e-10
-2.49813e-10
-2.04653e-15
2.24861e-10
-2.32226e-10
-1.60308e-15
2.13327e-10
-2.14684e-10
-1.55065e-15
2.0104e-10
-1.97496e-10
-1.13387e-15
1.88305e-10
-1.80892e-10
-1.04043e-15
1.75387e-10
-1.65095e-10
-6.97088e-16
1.62509e-10
-1.50202e-10
-6.6443e-16
1.49853e-10
-1.36317e-10
-4.44869e-16
1.3756e-10
-1.23481e-10
-5.35085e-16
1.25741e-10
-1.11698e-10
-4.03972e-16
1.14468e-10
-1.00954e-10
-4.08755e-16
1.03792e-10
-9.12105e-11
-3.1597e-16
9.37375e-11
-8.24176e-11
-3.89289e-16
8.43141e-11
-7.45082e-11
-3.44747e-16
7.55167e-11
-6.74153e-11
-3.70708e-16
6.73305e-11
-6.10637e-11
-3.04465e-16
5.97347e-11
-5.53668e-11
-3.21376e-16
5.26998e-11
-5.02796e-11
-2.3668e-16
4.61994e-11
-4.56931e-11
-2.04471e-16
4.02023e-11
-4.15613e-11
-1.07989e-16
3.46807e-11
-3.77942e-11
-8.16549e-17
2.96098e-11
-3.43244e-11
1.53712e-17
2.49629e-11
-3.11057e-11
6.80513e-17
2.07235e-11
-2.80426e-11
1.66903e-16
1.68749e-11
-2.50899e-11
2.57554e-16
1.34075e-11
-2.21716e-11
3.48793e-16
1.03153e-11
-1.92261e-11
3.97491e-16
7.59804e-12
-1.61918e-11
4.71111e-16
5.26123e-12
-1.29978e-11
4.98572e-16
3.31508e-12
-9.59773e-12
5.49428e-16
1.77193e-12
-5.96945e-12
5.72915e-16
6.43972e-13
-2.15324e-12
6.08583e-16
-6.60297e-14
1.68187e-12
6.15258e-16
-3.77769e-13
5.12935e-12
6.37345e-16
-3.58293e-13
7.39478e-12
6.45183e-16
-1.54012e-13
7.20809e-12
6.56778e-16
3.37762e-12
6.37922e-16
2.38274e-10
-2.3861e-10
-1.74235e-15
2.25837e-10
-2.198e-10
-1.42291e-15
2.12567e-10
-2.01425e-10
-1.38991e-15
1.98816e-10
-1.83754e-10
-1.02648e-15
1.84888e-10
-1.66971e-10
-9.35345e-16
1.71034e-10
-1.51245e-10
-6.27843e-16
1.57456e-10
-1.36628e-10
-6.00395e-16
1.44311e-10
-1.23176e-10
-4.06961e-16
1.31713e-10
-1.10887e-10
-5.00216e-16
1.19744e-10
-9.97323e-11
-3.84699e-16
1.08452e-10
-8.96651e-11
-3.88319e-16
9.78617e-11
-8.06222e-11
-3.01713e-16
8.79747e-11
-7.25339e-11
-3.70613e-16
7.8782e-11
-6.53185e-11
-3.27668e-16
7.02613e-11
-5.88977e-11
-3.5123e-16
6.23837e-11
-5.31888e-11
-2.86594e-16
5.51166e-11
-4.81021e-11
-3.03e-16
4.84211e-11
-4.35863e-11
-2.18606e-16
4.22633e-11
-3.95368e-11
-1.84161e-16
3.66063e-11
-3.59051e-11
-8.48925e-17
3.14177e-11
-3.2606e-11
-5.43947e-17
2.66695e-11
-2.95755e-11
4.476e-17
2.23328e-11
-2.6768e-11
9.76708e-17
1.83894e-11
-2.40969e-11
1.91793e-16
1.48219e-11
-2.15189e-11
2.93447e-16
1.16197e-11
-1.89649e-11
3.81191e-16
8.777e-12
-1.63781e-11
4.27738e-16
6.29347e-12
-1.37019e-11
4.9922e-16
4.17484e-12
-1.08721e-11
5.25366e-16
2.43151e-12
-7.84645e-12
5.73149e-16
1.07596e-12
-4.60529e-12
5.93707e-16
1.20084e-13
-1.18783e-12
6.25896e-16
-4.34344e-13
2.24641e-12
6.30523e-16
-6.09292e-13
5.31531e-12
6.50063e-16
-4.76253e-13
7.27351e-12
6.56182e-16
-1.8978e-13
6.93428e-12
6.66151e-16
3.20014e-12
6.47265e-16
2.39323e-10
-2.25088e-10
-2.14627e-15
2.24879e-10
-2.05369e-10
-1.56622e-15
2.09928e-10
-1.86487e-10
-1.49703e-15
1.94817e-10
-1.68653e-10
-1.02424e-15
1.7983e-10
-1.51993e-10
-9.18352e-16
1.65195e-10
-1.36614e-10
-5.68181e-16
1.5108e-10
-1.22518e-10
-5.5403e-16
1.3761e-10
-1.0971e-10
-3.52916e-16
1.24866e-10
-9.81476e-11
-4.64995e-16
1.12898e-10
-8.77667e-11
-3.50134e-16
1.01723e-10
-7.84933e-11
-3.66295e-16
9.13409e-11
-7.02421e-11
-2.78816e-16
8.17307e-11
-6.29268e-11
-3.52224e-16
7.28637e-11
-5.64543e-11
-3.07053e-16
6.47014e-11
-5.07383e-11
-3.33107e-16
5.72018e-11
-4.56917e-11
-2.67798e-16
5.03218e-11
-4.12242e-11
-2.85991e-16
4.40143e-11
-3.72809e-11
-2.00554e-16
3.82391e-11
-3.37629e-11
-1.64958e-16
3.29546e-11
-3.06213e-11
-6.23889e-17
2.81252e-11
-2.77768e-11
-2.84232e-17
2.37203e-11
-2.51696e-11
7.29793e-17
1.97099e-11
-2.27563e-11
1.25127e-16
1.60746e-11
-2.0459e-11
2.21589e-16
1.27969e-11
-1.82374e-11
3.26496e-16
9.86614e-12
-1.60291e-11
4.11677e-16
7.27652e-12
-1.37828e-11
4.53321e-16
5.02825e-12
-1.1447e-11
5.21217e-16
3.12744e-12
-8.96406e-12
5.4544e-16
1.58494e-12
-6.29573e-12
5.90472e-16
4.13498e-13
-3.42499e-12
6.08891e-16
-3.75111e-13
-3.89468e-13
6.38678e-16
-7.79879e-13
2.66149e-12
6.42326e-16
-8.24748e-13
5.37139e-12
6.60368e-16
-5.85098e-13
7.04583e-12
6.65683e-16
-2.22505e-13
6.58453e-12
6.74847e-16
2.99014e-12
6.55808e-16
2.38044e-10
-2.09248e-10
-1.31914e-15
2.21673e-10
-1.89006e-10
-1.09508e-15
2.05174e-10
-1.69996e-10
-1.05568e-15
1.88871e-10
-1.52357e-10
-7.68292e-16
1.73018e-10
-1.36145e-10
-6.71222e-16
1.57801e-10
-1.214e-10
-4.28268e-16
1.43351e-10
-1.0807e-10
-4.1954e-16
1.29749e-10
-9.61108e-11
-2.79631e-16
1.17039e-10
-8.5441e-11
-3.93541e-16
1.05235e-10
-7.5965e-11
-3.11472e-16
9.43241e-11