/*--------------------------------*- C++ -*----------------------------------*\
| =========                 |                                                 |
| \\      /  F ield         | OpenFOAM: The Open Source CFD Toolbox           |
|  \\    /   O peration     | Version:  v2012                                 |
|   \\  /    A nd           | Website:  www.openfoam.com                      |
|    \\/     M anipulation  |                                                 |
\*---------------------------------------------------------------------------*/
FoamFile
{
    version     2.0;
    format      ascii;
    class       volVectorField;
    location    "0.3";
    object      U;
}
// * * * * * * * * * * * * * * * * * * * * * * * * * * * * * * * * * * * * * //

dimensions      [0 1 -1 0 0 0 0];


internalField   nonuniform List<vector> 
2664
(
(0.00496597 -0.00942365 -4.33428e-05)
(0.00492339 -0.00885008 -4.29715e-05)
(0.00485006 -0.00827481 -4.23318e-05)
(0.00474765 -0.00770304 -4.14383e-05)
(0.00461827 -0.00713969 -4.03095e-05)
(0.00446453 -0.00658929 -3.89679e-05)
(0.00428937 -0.0060559 -3.74395e-05)
(0.00409601 -0.00554305 -3.57521e-05)
(0.00388779 -0.00505362 -3.39349e-05)
(0.00366811 -0.00458991 -3.20178e-05)
(0.00344032 -0.00415358 -3.00299e-05)
(0.00320766 -0.00374568 -2.79993e-05)
(0.00297313 -0.0033667 -2.59525e-05)
(0.00273954 -0.00301663 -2.39137e-05)
(0.00250937 -0.00269497 -2.19048e-05)
(0.00228481 -0.00240085 -1.99448e-05)
(0.00206772 -0.00213309 -1.805e-05)
(0.00185957 -0.00189022 -1.62332e-05)
(0.00166156 -0.00167064 -1.45048e-05)
(0.00147454 -0.00147261 -1.28724e-05)
(0.00129912 -0.00129434 -1.13412e-05)
(0.00113569 -0.00113408 -9.91464e-06)
(0.000984378 -0.00099003 -8.59386e-06)
(0.00084518 -0.000860498 -7.37879e-06)
(0.000717933 -0.00074388 -6.26802e-06)
(0.000602366 -0.000638646 -5.25918e-06)
(0.000498164 -0.00054339 -4.34954e-06)
(0.000404922 -0.000456804 -3.53556e-06)
(0.00032223 -0.000377733 -2.81367e-06)
(0.000249689 -0.000305212 -2.18038e-06)
(0.000186923 -0.000238528 -1.63241e-06)
(0.000133592 -0.000177383 -1.16678e-06)
(8.94328e-05 -0.000122111 -7.81216e-07)
(5.41764e-05 -7.40236e-05 -4.73357e-07)
(2.77057e-05 -3.57759e-05 -2.42178e-07)
(9.65321e-06 -1.10832e-05 -8.45496e-08)
(4.17724e-07 -1.30637e-06 -5.17685e-09)
(0.00525877 -0.00966574 -4.58985e-05)
(0.00519786 -0.00904745 -4.53672e-05)
(0.00510444 -0.00843063 -4.45522e-05)
(0.00498068 -0.00782082 -4.34724e-05)
(0.00482915 -0.0072232 -4.21503e-05)
(0.00465295 -0.00664245 -4.06128e-05)
(0.00445547 -0.00608265 -3.88895e-05)
(0.00424034 -0.00554729 -3.70121e-05)
(0.00401126 -0.00503911 -3.50129e-05)
(0.00377194 -0.00456019 -3.29243e-05)
(0.00352596 -0.00411194 -3.07775e-05)
(0.0032767 -0.00369509 -2.86021e-05)
(0.00302729 -0.0033098 -2.64253e-05)
(0.00278056 -0.0029557 -2.42719e-05)
(0.002539 -0.00263195 -2.21636e-05)
(0.00230474 -0.00233734 -2.01189e-05)
(0.00207955 -0.00207039 -1.81533e-05)
(0.00186478 -0.00182937 -1.62787e-05)
(0.00166149 -0.0016124 -1.45043e-05)
(0.00147041 -0.00141754 -1.28364e-05)
(0.00129198 -0.00124282 -1.12789e-05)
(0.00112645 -0.00108633 -9.83403e-06)
(0.000973816 -0.000946164 -8.50169e-06)
(0.00083394 -0.000820522 -7.2807e-06)
(0.000706545 -0.000707735 -6.16863e-06)
(0.000591257 -0.000606217 -5.16222e-06)
(0.000487666 -0.000514531 -4.25791e-06)
(0.000395289 -0.00043135 -3.45148e-06)
(0.000313649 -0.000355513 -2.73876e-06)
(0.000242287 -0.000286056 -2.11575e-06)
(0.000180776 -0.000222278 -1.57873e-06)
(0.000128727 -0.000163894 -1.1243e-06)
(8.58299e-05 -0.000111255 -7.49749e-07)
(5.17663e-05 -6.56799e-05 -4.52303e-07)
(2.63506e-05 -2.98286e-05 -2.30334e-07)
(9.14022e-06 -7.42886e-06 -8.00571e-08)
(3.928e-07 4.87112e-08 -4.88088e-09)
(0.00556782 -0.00990768 -4.85961e-05)
(0.00548558 -0.00924155 -4.78787e-05)
(0.00536921 -0.00858068 -4.68635e-05)
(0.00522135 -0.00793094 -4.55733e-05)
(0.00504515 -0.00729773 -4.40358e-05)
(0.00484421 -0.00668581 -4.22823e-05)
(0.00462241 -0.00609924 -4.03469e-05)
(0.00438381 -0.00554137 -3.82646e-05)
(0.00413249 -0.00501475 -3.60713e-05)
(0.00387244 -0.00452118 -3.38017e-05)
(0.00360745 -0.00406172 -3.1489e-05)
(0.00334105 -0.00363674 -2.9164e-05)
(0.00307645 -0.00324602 -2.68546e-05)
(0.00281647 -0.00288878 -2.45855e-05)
(0.00256356 -0.0025638 -2.23781e-05)
(0.00231977 -0.00226953 -2.02502e-05)
(0.00208674 -0.00200417 -1.82162e-05)
(0.00186569 -0.00176567 -1.62868e-05)
(0.0016575 -0.00155192 -1.44696e-05)
(0.00146275 -0.00136076 -1.27696e-05)
(0.0012817 -0.00119004 -1.11893e-05)
(0.00111447 -0.0010377 -9.72947e-06)
(0.000960881 -0.000901719 -8.38881e-06)
(0.000820673 -0.000780217 -7.16491e-06)
(0.000693446 -0.000671455 -6.05429e-06)
(0.000578721 -0.000573808 -5.05279e-06)
(0.000475994 -0.00048581 -4.15602e-06)
(0.000384705 -0.000406122 -3.35908e-06)
(0.000304309 -0.000333581 -2.65722e-06)
(0.000234293 -0.00026723 -2.04596e-06)
(0.000174177 -0.000206382 -1.52111e-06)
(0.00012353 -0.000150769 -1.07892e-06)
(8.19962e-05 -0.000100754 -7.16268e-07)
(4.92082e-05 -5.76671e-05 -4.29956e-07)
(2.49138e-05 -2.41649e-05 -2.17777e-07)
(8.59566e-06 -3.98374e-06 -7.52882e-08)
(3.65914e-07 1.30533e-06 -4.56186e-09)
(0.00589336 -0.0101476 -5.14377e-05)
(0.00578651 -0.00943049 -5.05055e-05)
(0.00564397 -0.0087231 -4.92619e-05)
(0.00546902 -0.00803163 -4.77353e-05)
(0.00526541 -0.00736163 -4.59586e-05)
(0.00503731 -0.00671789 -4.39681e-05)
(0.00478912 -0.00610437 -4.18022e-05)
(0.00452534 -0.00552421 -3.95002e-05)
(0.0042504 -0.00497967 -3.71007e-05)
(0.00396857 -0.00447218 -3.46411e-05)
(0.00368385 -0.0040024 -3.21561e-05)
(0.00339986 -0.00357028 -2.96775e-05)
(0.00311985 -0.00317513 -2.72336e-05)
(0.00284661 -0.00281575 -2.48487e-05)
(0.00258251 -0.00249052 -2.25436e-05)
(0.00232946 -0.00219748 -2.03349e-05)
(0.00208894 -0.00193451 -1.82356e-05)
(0.00186201 -0.00169925 -1.62548e-05)
(0.00164937 -0.00148934 -1.43987e-05)
(0.00145139 -0.00130241 -1.26706e-05)
(0.00126818 -0.00113614 -1.10713e-05)
(0.00109966 -0.000988319 -9.6003e-06)
(0.000945526 -0.000856824 -8.2548e-06)
(0.000805352 -0.000739698 -7.03118e-06)
(0.000678624 -0.000635147 -5.92492e-06)
(0.000564757 -0.000541512 -4.9309e-06)
(0.000463155 -0.000457306 -4.04394e-06)
(0.00037318 -0.000381184 -3.25847e-06)
(0.000294224 -0.00031199 -2.56917e-06)
(0.000225718 -0.000248776 -1.9711e-06)
(0.000167139 -0.000190872 -1.45966e-06)
(0.000118013 -0.000138028 -1.03074e-06)
(7.79391e-05 -9.06209e-05 -6.80834e-07)
(4.65069e-05 -4.99889e-05 -4.06358e-07)
(2.3398e-05 -1.87817e-05 -2.0453e-07)
(8.02036e-06 -7.37157e-07 -7.02503e-08)
(3.37345e-07 2.48064e-06 -4.22037e-09)
(0.00623572 -0.0103833 -5.44261e-05)
(0.00610048 -0.00961197 -5.32462e-05)
(0.00592821 -0.00885569 -5.1743e-05)
(0.00572287 -0.00812084 -4.99513e-05)
(0.00548891 -0.00741306 -4.79096e-05)
(0.0052311 -0.00673708 -4.56599e-05)
(0.00495437 -0.00609667 -4.3245e-05)
(0.00466368 -0.00549467 -4.0708e-05)
(0.00436379 -0.00493295 -3.80907e-05)
(0.00405923 -0.0044125 -3.54326e-05)
(0.00375414 -0.00393349 -3.27698e-05)
(0.00345223 -0.00349537 -3.01348e-05)
(0.00315671 -0.00309694 -2.75556e-05)
(0.00287032 -0.00273654 -2.50559e-05)
(0.00259528 -0.00241209 -2.26553e-05)
(0.00233334 -0.00212124 -2.03689e-05)
(0.0020858 -0.0018615 -1.82082e-05)
(0.00185348 -0.00163023 -1.61804e-05)
(0.0016369 -0.00142481 -1.42898e-05)
(0.00143621 -0.00124265 -1.2538e-05)
(0.00125132 -0.00108126 -1.09242e-05)
(0.00108198 -0.000938323 -9.44595e-06)
(0.000927713 -0.000811601 -8.09933e-06)
(0.00078796 -0.000699077 -6.87938e-06)
(0.000662078 -0.000598909 -5.78049e-06)
(0.000549375 -0.000509413 -4.79662e-06)
(0.000449163 -0.000429091 -3.92179e-06)
(0.000360731 -0.0003566 -3.14979e-06)
(0.00028341 -0.000290792 -2.47477e-06)
(0.000216581 -0.000230737 -1.89132e-06)
(0.000159677 -0.000175784 -1.39451e-06)
(0.000112186 -0.0001257 -9.79857e-07)
(7.36678e-05 -8.0879e-05 -6.4353e-07)
(4.36687e-05 -4.26632e-05 -3.81564e-07)
(2.18065e-05 -1.36921e-05 -1.90621e-07)
(7.4155e-06 2.30283e-06 -6.49534e-08)
(3.06755e-07 3.57269e-06 -3.8557e-09)
(0.00659454 -0.0106119 -5.75582e-05)
(0.00642679 -0.00978341 -5.60945e-05)
(0.00622092 -0.00897601 -5.42982e-05)
(0.0059817 -0.00819632 -5.22108e-05)
(0.00571431 -0.00745001 -4.98774e-05)
(0.00542416 -0.00674164 -4.73452e-05)
(0.00511673 -0.00607468 -4.46624e-05)
(0.00479742 -0.00545157 -4.18756e-05)
(0.00447132 -0.00487369 -3.90295e-05)
(0.00414316 -0.00434147 -3.61655e-05)
(0.0038172 -0.00385452 -3.33206e-05)
(0.00349717 -0.00341171 -3.05273e-05)
(0.00318621 -0.0030113 -2.78132e-05)
(0.00288691 -0.0026511 -2.52008e-05)
(0.00260132 -0.00232855 -2.27081e-05)
(0.00233098 -0.0020409 -2.03485e-05)
(0.00207696 -0.00178529 -1.81311e-05)
(0.00183984 -0.00155878 -1.60614e-05)
(0.00161989 -0.00135849 -1.41414e-05)
(0.00141705 -0.00118163 -1.23709e-05)
(0.00123102 -0.00102557 -1.0747e-05)
(0.00106136 -0.000887858 -9.266e-06)
(0.000907421 -0.000766184 -7.92221e-06)
(0.000768495 -0.00065847 -6.70947e-06)
(0.000643818 -0.000562842 -5.6211e-06)
(0.000532592 -0.000477599 -4.65011e-06)
(0.000434041 -0.00040124 -3.78978e-06)
(0.000347383 -0.000332432 -3.03325e-06)
(0.000271892 -0.000270041 -2.37421e-06)
(0.000206903 -0.000213157 -1.80682e-06)
(0.00015181 -0.000161152 -1.32581e-06)
(0.000106065 -0.000113814 -9.26407e-07)
(6.91935e-05 -7.15512e-05 -6.04453e-07)
(4.0701e-05 -3.57084e-05 -3.55639e-07)
(2.01436e-05 -8.9101e-06 -1.76088e-07)
(6.78255e-06 5.12652e-06 -5.94107e-08)
(2.73994e-07 4.57738e-06 -3.46681e-09)
(0.00696962 -0.0108309 -6.08323e-05)
(0.00676471 -0.009942 -5.90444e-05)
(0.006521 -0.00908135 -5.69177e-05)
(0.00624412 -0.00825561 -5.45016e-05)
(0.00594002 -0.00747031 -5.18478e-05)
(0.00561481 -0.00672973 -4.90097e-05)
(0.00527452 -0.0060369 -4.604e-05)
(0.00492495 -0.00539374 -4.29892e-05)
(0.00457149 -0.00480099 -3.99042e-05)
(0.00421902 -0.00425846 -3.68279e-05)
(0.00387186 -0.00376508 -3.37979e-05)
(0.00353367 -0.00331909 -3.08462e-05)
(0.00320747 -0.00291813 -2.7999e-05)
(0.00289567 -0.00255945 -2.52774e-05)
(0.00260007 -0.00224001 -2.26973e-05)
(0.00232194 -0.00195662 -2.02697e-05)
(0.00206209 -0.00170606 -1.80015e-05)
(0.00182084 -0.00148508 -1.58956e-05)
(0.00159818 -0.00129057 -1.3952e-05)
(0.00139382 -0.00111955 -1.21681e-05)
(0.00120723 -0.000969237 -1.05394e-05)
(0.00103778 -0.000837084 -9.06018e-06)
(0.000884643 -0.000720713 -7.72339e-06)
(0.000746968 -0.000618002 -6.52157e-06)
(0.000623865 -0.000527054 -5.44693e-06)
(0.000514435 -0.000446161 -4.49162e-06)
(0.000417818 -0.00037383 -3.64816e-06)
(0.000333165 -0.000308743 -2.90913e-06)
(0.000259698 -0.000249787 -2.26775e-06)
(0.00019671 -0.000196077 -1.71782e-06)
(0.000143558 -0.00014701 -1.25377e-06)
(9.96678e-05 -0.000102397 -8.70544e-07)
(6.45295e-05 -6.2659e-05 -5.63719e-07)
(3.76127e-05 -2.91413e-05 -3.2866e-07)
(1.8414e-05 -4.44834e-06 -1.60973e-07)
(6.12328e-06 7.72554e-06 -5.36376e-08)
(2.3913e-07 5.49144e-06 -3.05519e-09)
(0.00736014 -0.0110366 -6.42412e-05)
(0.00711295 -0.0100844 -6.20842e-05)
(0.00682681 -0.00916866 -5.95874e-05)
(0.00650825 -0.00829599 -5.68074e-05)
(0.00616409 -0.00747163 -5.38039e-05)
(0.00580108 -0.00669941 -5.0636e-05)
(0.00542582 -0.00598179 -4.7361e-05)
(0.00504448 -0.00531999 -4.40327e-05)
(0.00466266 -0.00471401 -4.07003e-05)
(0.00428536 -0.0041629 -3.74072e-05)
(0.00391684 -0.00366484 -3.41908e-05)
(0.00356066 -0.00321734 -3.1082e-05)
(0.00321963 -0.00281741 -2.81054e-05)
(0.00289589 -0.00246169 -2.52796e-05)
(0.00259096 -0.00214663 -2.2618e-05)
(0.0023058 -0.00186861 -2.01289e-05)
(0.00204089 -0.00162403 -1.78165e-05)
(0.00179626 -0.00140937 -1.56811e-05)
(0.00157162 -0.00122128 -1.37203e-05)
(0.00136642 -0.00105661 -1.1929e-05)
(0.00117991 -0.00091245 -1.03009e-05)
(0.00101122 -0.000786171 -8.82839e-06)
(0.000859391 -0.000675338 -7.50297e-06)
(0.000723405 -0.000577802 -6.31587e-06)
(0.000602255 -0.000491654 -5.25828e-06)
(0.000494945 -0.000415192 -4.32148e-06)
(0.000400536 -0.000346938 -3.49728e-06)
(0.000318117 -0.000285596 -2.77776e-06)
(0.000246864 -0.000230082 -2.15569e-06)
(0.000186032 -0.00017954 -1.62459e-06)
(0.000134949 -0.000133393 -1.17859e-06)
(9.3015e-05 -9.14759e-05 -8.12447e-07)
(5.96912e-05 -5.4223e-05 -5.21461e-07)
(3.44141e-05 -2.29778e-05 -3.00718e-07)
(1.66237e-05 -3.18767e-07 -1.45326e-07)
(5.43983e-06 1.00918e-05 -4.76527e-08)
(2.02251e-07 6.31147e-06 -2.62179e-09)
(0.007765 -0.0112248 -6.77753e-05)
(0.00746994 -0.0102068 -6.52006e-05)
(0.00713636 -0.00923451 -6.22896e-05)
(0.00677191 -0.0083145 -5.91092e-05)
(0.00638419 -0.0074515 -5.57255e-05)
(0.00598069 -0.00664871 -5.2204e-05)
(0.00556845 -0.00590782 -4.86063e-05)
(0.00515398 -0.00522919 -4.49889e-05)
(0.00474303 -0.00461197 -4.14021e-05)
(0.00434059 -0.0040543 -3.78896e-05)
(0.00395082 -0.00355354 -3.44876e-05)
(0.00357705 -0.00310641 -3.12252e-05)
(0.0032218 -0.00270921 -2.81244e-05)
(0.00288688 -0.00235798 -2.52011e-05)
(0.00257347 -0.00204863 -2.24654e-05)
(0.00228216 -0.00177711 -1.99226e-05)
(0.00201308 -0.00153947 -1.75738e-05)
(0.00176592 -0.00133191 -1.54164e-05)
(0.00154011 -0.00115086 -1.34452e-05)
(0.0013348 -0.000993037 -1.16531e-05)
(0.00114902 -0.000855419 -1.00313e-05)
(0.000981704 -0.000735301 -8.57072e-06)
(0.000831694 -0.000630218 -7.2612e-06)
(0.000697846 -0.000538004 -6.09277e-06)
(0.000579035 -0.000456755 -5.05558e-06)
(0.000474171 -0.000384785 -4.14012e-06)
(0.000382242 -0.00032064 -3.33758e-06)
(0.000302284 -0.000263055 -2.63953e-06)
(0.00023343 -0.000210978 -2.03841e-06)
(0.000174905 -0.000163585 -1.52744e-06)
(0.000126013 -0.000120331 -1.10056e-06)
(8.61302e-05 -8.10746e-05 -7.52325e-07)
(5.4696e-05 -4.62624e-05 -4.77835e-07)
(3.1117e-05 -1.72325e-05 -2.71915e-07)
(1.47792e-05 3.46788e-06 -1.29206e-07)
(4.73465e-06 1.22181e-05 -4.14776e-08)
(1.63466e-07 7.03441e-06 -2.16801e-09)
(0.00818223 -0.011391 -7.14175e-05)
(0.00783317 -0.0103048 -6.83715e-05)
(0.00744699 -0.00927519 -6.50014e-05)
(0.00703227 -0.00830799 -6.13822e-05)
(0.00659757 -0.00740735 -5.75884e-05)
(0.00615095 -0.0065756 -5.36906e-05)
(0.00569994 -0.00581347 -4.97545e-05)
(0.00525124 -0.0051203 -4.58382e-05)
(0.00481066 -0.0044942 -4.19927e-05)
(0.00438307 -0.00393231 -3.82607e-05)
(0.00397241 -0.00343107 -3.46763e-05)
(0.00358169 -0.00298635 -3.12659e-05)
(0.00321307 -0.00259371 -2.80484e-05)
(0.00286795 -0.00224857 -2.5036e-05)
(0.00254708 -0.00194631 -2.22352e-05)
(0.00225065 -0.00168244 -1.96477e-05)
(0.0019784 -0.00145269 -1.72712e-05)
(0.00172967 -0.00125299 -1.51e-05)
(0.00150355 -0.0010796 -1.31261e-05)
(0.00129893 -0.000929093 -1.134e-05)
(0.00111459 -0.000798365 -9.73075e-06)
(0.000949254 -0.000684667 -8.28747e-06)
(0.000801603 -0.000585515 -6.99853e-06)
(0.000670352 -0.000498746 -5.85276e-06)
(0.000554268 -0.000422472 -4.83937e-06)
(0.000452176 -0.000355034 -3.9481e-06)
(0.000362997 -0.000295013 -3.16956e-06)
(0.00028572 -0.00024118 -2.49492e-06)
(0.000219445 -0.000192522 -1.91631e-06)
(0.00016337 -0.000148251 -1.42673e-06)
(0.000116782 -0.000107854 -1.01996e-06)
(7.90404e-05 -7.12163e-05 -6.90412e-07)
(4.95641e-05 -3.87945e-05 -4.33013e-07)
(2.77349e-05 -1.19183e-05 -2.42369e-07)
(1.28881e-05 6.90216e-06 -1.12679e-07)
(4.01061e-06 1.4098e-05 -3.51373e-08)
(1.22884e-07 7.65756e-06 -1.69523e-09)
(0.00860935 -0.0115299 -7.5146e-05)
(0.00819983 -0.010374 -7.15723e-05)
(0.00775547 -0.0092867 -6.76945e-05)
(0.0072861 -0.00827317 -6.35982e-05)
(0.006801 -0.00733656 -5.93646e-05)
(0.00630888 -0.00647811 -5.50696e-05)
(0.00581755 -0.00569734 -5.07815e-05)
(0.00533383 -0.00499238 -4.65596e-05)
(0.00486345 -0.00436015 -4.24539e-05)
(0.00441103 -0.00379669 -3.85051e-05)
(0.00398017 -0.00329742 -3.47443e-05)
(0.00357346 -0.00285732 -3.11943e-05)
(0.00319258 -0.0024712 -2.78698e-05)
(0.00283845 -0.00213382 -2.47786e-05)
(0.00251134 -0.00184005 -2.19233e-05)
(0.00221096 -0.001585 -1.93013e-05)
(0.00193667 -0.00136407 -1.6907e-05)
(0.0016874 -0.00117297 -1.4731e-05)
(0.00146191 -0.00100781 -1.27627e-05)
(0.00125882 -0.000865044 -1.09898e-05)
(0.00107665 -0.000741524 -9.39958e-06)
(0.000913937 -0.000634469 -7.97918e-06)
(0.000769191 -0.000541399 -6.7156e-06)
(0.000641001 -0.000460169 -5.59654e-06)
(0.000528032 -0.000388921 -4.61033e-06)
(0.000429033 -0.000326035 -3.74607e-06)
(0.000342869 -0.000270133 -2.99384e-06)
(0.000268489 -0.000220033 -2.34447e-06)
(0.000204964 -0.000174762 -1.78987e-06)
(0.000151475 -0.000133574 -1.32287e-06)
(0.000107296 -9.59914e-05 -9.37127e-07)
(7.17758e-05 -6.19222e-05 -6.26972e-07)
(4.43179e-05 -3.18348e-05 -3.87193e-07)
(2.42828e-05 -7.04638e-06 -2.12212e-07)
(1.0959e-05 9.97616e-06 -9.58194e-08)
(3.27099e-06 1.57264e-05 -2.86606e-08)
(8.06623e-08 8.17859e-06 -1.20536e-09)
(0.0090429 -0.0116357 -7.89309e-05)
(0.00856593 -0.0104091 -7.47684e-05)
(0.00805785 -0.00926475 -7.03343e-05)
(0.0075294 -0.00820658 -6.57224e-05)
(0.00699077 -0.00723649 -6.10215e-05)
(0.00645104 -0.00635431 -5.63109e-05)
(0.00591824 -0.00555813 -5.16608e-05)
(0.00539914 -0.00484465 -4.71299e-05)
(0.0048992 -0.00420946 -4.27663e-05)
(0.00442268 -0.00364739 -3.8607e-05)
(0.00397268 -0.00315277 -3.46792e-05)
(0.00355125 -0.00271966 -3.10007e-05)
(0.0031595 -0.00234208 -2.75812e-05)
(0.00279778 -0.00201417 -2.44237e-05)
(0.00246581 -0.00173031 -2.1526e-05)
(0.00216284 -0.00148521 -1.88813e-05)
(0.00188773 -0.00127401 -1.64798e-05)
(0.00163904 -0.00109222 -1.43089e-05)
(0.00141519 -0.00093581 -1.23549e-05)
(0.00121451 -0.00080118 -1.06031e-05)
(0.00103528 -0.000685142 -9.03844e-06)
(0.00087584 -0.000584917 -7.64662e-06)
(0.000734556 -0.000498044 -6.41325e-06)
(0.000609891 -0.000422416 -5.32495e-06)
(0.000500422 -0.000356218 -4.3693e-06)
(0.000404833 -0.000297881 -3.5348e-06)
(0.00032194 -0.000246075 -2.81112e-06)
(0.00025066 -0.000199671 -2.18882e-06)
(0.000190048 -0.000157744 -1.65964e-06)
(0.000139271 -0.00011959 -1.21631e-06)
(9.75975e-05 -8.47675e-05 -8.5244e-07)
(6.43702e-05 -5.32108e-05 -5.62301e-07)
(3.89824e-05 -2.53966e-05 -3.40594e-07)
(2.07777e-05 -2.6261e-06 -1.81592e-07)
(9.00158e-06 1.26836e-05 -7.87125e-08)
(2.51951e-06 1.70991e-05 -2.20801e-08)
(3.69817e-08 8.59568e-06 -7.006e-10)
(0.00947844 -0.0117015 -8.27331e-05)
(0.0089269 -0.0104046 -7.79198e-05)
(0.00834932 -0.00920483 -7.28791e-05)
(0.00775766 -0.00810475 -6.77154e-05)
(0.00716262 -0.00710459 -6.25221e-05)
(0.00657364 -0.00620246 -5.73816e-05)
(0.00599871 -0.00539475 -5.23636e-05)
(0.00544436 -0.00467656 -4.75251e-05)
(0.00491562 -0.00404199 -4.291e-05)
(0.00441618 -0.00348455 -3.85506e-05)
(0.00394851 -0.00299746 -3.44685e-05)
(0.00351399 -0.00257382 -3.06756e-05)
(0.00311305 -0.00220689 -2.71758e-05)
(0.0027454 -0.00189018 -2.39666e-05)
(0.00241018 -0.00161763 -2.10405e-05)
(0.00210607 -0.0013836 -1.83859e-05)
(0.0018315 -0.00118298 -1.5989e-05)
(0.0015846 -0.00101114 -1.38337e-05)
(0.00136345 -0.000863966 -1.19032e-05)
(0.00116609 -0.000737807 -1.01804e-05)
(0.00099058 -0.000629479 -8.64828e-06)
(0.000835086 -0.000536225 -7.29086e-06)
(0.000697819 -0.000455627 -6.09255e-06)
(0.000577141 -0.000385631 -5.03905e-06)
(0.000471551 -0.000324479 -4.11726e-06)
(0.000379679 -0.000270662 -3.31519e-06)
(0.000300301 -0.000222911 -2.6222e-06)
(0.000232317 -0.000180151 -2.02867e-06)
(0.000174768 -0.00014151 -1.52622e-06)
(0.000126818 -0.000106329 -1.10757e-06)
(8.77344e-05 -7.42057e-05 -7.66315e-07)
(5.68612e-05 -4.50984e-05 -4.96726e-07)
(3.35855e-05 -1.94908e-05 -2.93457e-07)
(1.72385e-05 1.33544e-06 -1.50673e-07)
(7.02667e-06 1.50199e-05 -6.14528e-08)
(1.76044e-06 1.82135e-05 -1.54331e-08)
(-7.91407e-09 8.90753e-06 -1.83776e-10)
(0.00991009 -0.0117203 -8.65014e-05)
(0.00927661 -0.0103546 -8.09729e-05)
(0.00862417 -0.00910234 -7.52788e-05)
(0.00796547 -0.00796425 -6.95299e-05)
(0.00731176 -0.00693847 -6.38245e-05)
(0.00667248 -0.00602104 -5.82448e-05)
(0.00605541 -0.00520639 -5.2859e-05)
(0.00546657 -0.00448783 -4.77193e-05)
(0.00491036 -0.00385785 -4.28644e-05)
(0.0043897 -0.00330857 -3.83198e-05)
(0.00390628 -0.00283205 -3.41001e-05)
(0.00346067 -0.00242046 -3.02104e-05)
(0.00305253 -0.0020663 -2.66478e-05)
(0.00268087 -0.00176252 -2.34035e-05)
(0.00234417 -0.00150264 -2.04644e-05)
(0.00204057 -0.00128072 -1.78141e-05)
(0.00176797 -0.00109149 -1.54346e-05)
(0.00152413 -0.00093019 -1.3306e-05)
(0.00130678 -0.000792655 -1.14086e-05)
(0.0011137 -0.000675245 -9.72306e-06)
(0.000942713 -0.0005748 -8.23042e-06)
(0.000791828 -0.000488611 -6.91324e-06)
(0.000659131 -0.000414326 -5.75482e-06)
(0.000542893 -0.000349957 -4.74007e-06)
(0.000441549 -0.000293818 -3.85534e-06)
(0.000353687 -0.00024447 -3.08827e-06)
(0.000278058 -0.000200709 -2.428e-06)
(0.000213549 -0.000161524 -1.86481e-06)
(0.0001592 -0.000126098 -1.3903e-06)
(0.000114179 -9.38206e-05 -9.97219e-07)
(7.77593e-05 -6.43261e-05 -6.79212e-07)
(4.929e-05 -3.75985e-05 -4.30607e-07)
(2.81578e-05 -1.4126e-05 -2.46051e-07)
(1.36859e-05 4.8335e-06 -1.19638e-07)
(5.04635e-06 1.69828e-05 -4.41457e-08)
(9.98568e-07 1.90682e-05 -8.76171e-09)
(-5.37362e-08 9.11342e-06 3.4178e-10)
(0.0103307 -0.0116844 -9.01738e-05)
(0.00960817 -0.010253 -8.38677e-05)
(0.00887571 -0.00895277 -7.74751e-05)
(0.00814683 -0.00778189 -7.11136e-05)
(0.00743286 -0.00673606 -6.48821e-05)
(0.00674304 -0.00580888 -5.88613e-05)
(0.00608458 -0.0049926 -5.31141e-05)
(0.00546275 -0.00427853 -4.76864e-05)
(0.00488105 -0.00365747 -4.26089e-05)
(0.00434147 -0.00312011 -3.7899e-05)
(0.0038447 -0.00265734 -3.35628e-05)
(0.0033904 -0.00226041 -2.95972e-05)
(0.00297738 -0.00192114 -2.59919e-05)
(0.00260386 -0.00163196 -2.27314e-05)
(0.00226765 -0.00138604 -1.97965e-05)
(0.0019663 -0.00117723 -1.71659e-05)
(0.00169723 -0.00100009 -1.48171e-05)
(0.00145779 -0.000849828 -1.27268e-05)
(0.00124538 -0.000722275 -1.08726e-05)
(0.00105752 -0.000613825 -9.23271e-06)
(0.000891868 -0.000521376 -7.78657e-06)
(0.000746257 -0.000442296 -6.51541e-06)
(0.000618673 -0.000374316 -5.40162e-06)
(0.000507314 -0.000315533 -4.42946e-06)
(0.000410567 -0.000264344 -3.58485e-06)
(0.000326992 -0.000219388 -2.85521e-06)
(0.000255326 -0.000179535 -2.22954e-06)
(0.000194457 -0.00014384 -1.69812e-06)
(0.000143431 -0.000111545 -1.25262e-06)
(0.000101427 -8.20893e-05 -8.85871e-07)
(6.77302e-05 -5.51455e-05 -5.91636e-07)
(4.17019e-05 -3.07214e-05 -3.64341e-07)
(2.27331e-05 -9.30763e-06 -1.98671e-07)
(1.0143e-05 7.86588e-06 -8.86876e-08)
(3.07405e-06 1.8572e-05 -2.69087e-08)
(2.39335e-07 1.96636e-05 -2.11335e-09)
(-1.00116e-07 9.21337e-06 8.71953e-10)
(0.0107314 -0.0115859 -9.36719e-05)
(0.00991296 -0.0100938 -8.6529e-05)
(0.00909624 -0.00875174 -7.94009e-05)
(0.00829489 -0.00755479 -7.24067e-05)
(0.00752011 -0.00649567 -6.56443e-05)
(0.00678048 -0.00556527 -5.91886e-05)
(0.00608233 -0.00475335 -5.3095e-05)
(0.00542987 -0.00404913 -4.73998e-05)
(0.00482542 -0.00344164 -4.21236e-05)
(0.00426981 -0.00292012 -3.72737e-05)
(0.00376261 -0.00247434 -3.28464e-05)
(0.00330244 -0.0020947 -2.88295e-05)
(0.00288716 -0.00177238 -2.52045e-05)
(0.00251418 -0.0014994 -2.19486e-05)
(0.0021806 -0.00126864 -1.90367e-05)
(0.00188337 -0.0010738 -1.64421e-05)
(0.00161945 -0.000909369 -1.41381e-05)
(0.00138578 -0.000770556 -1.20983e-05)
(0.00117947 -0.000653238 -1.02973e-05)
(0.000997819 -0.000553882 -8.71152e-06)
(0.000838287 -0.000469481 -7.31883e-06)
(0.0006986 -0.000397499 -6.09938e-06)
(0.000576655 -0.000335772 -5.03481e-06)
(0.000470593 -0.000282497 -4.10889e-06)
(0.000378774 -0.000236162 -3.30729e-06)
(0.000299742 -0.000195497 -2.61732e-06)
(0.000232237 -0.000159449 -2.02796e-06)
(0.000175153 -0.000127143 -1.52958e-06)
(0.000127555 -9.78824e-05 -1.114e-06)
(8.86391e-05 -7.11565e-05 -7.7421e-07)
(5.77102e-05 -4.66771e-05 -5.04139e-07)
(3.41467e-05 -2.44741e-05 -2.98361e-07)
(1.73482e-05 -5.03818e-06 -1.51639e-07)
(6.63517e-06 1.04332e-05 -5.80427e-08)
(1.12468e-06 1.97897e-05 -9.87192e-09)
(-5.11139e-07 2.0002e-05 4.4583e-09)
(-1.46613e-07 9.20814e-06 1.40183e-09)
(0.0111016 -0.0114166 -9.69044e-05)
(0.0101814 -0.00987109 -8.88727e-05)
(0.00927704 -0.0084953 -8.09798e-05)
(0.0084022 -0.00728059 -7.33441e-05)
(0.00756726 -0.00621625 -6.60565e-05)
(0.00677977 -0.00529006 -5.9183e-05)
(0.00604473 -0.00448918 -5.27672e-05)
(0.00536494 -0.00380059 -4.68334e-05)
(0.00474129 -0.00321154 -4.13896e-05)
(0.00417323 -0.00270989 -3.6431e-05)
(0.00365906 -0.00228435 -3.19427e-05)
(0.00319624 -0.00192455 -2.79026e-05)
(0.00278164 -0.00162115 -2.42835e-05)
(0.00241181 -0.00136584 -2.10551e-05)
(0.00208314 -0.00115131 -1.8186e-05)
(0.00179201 -0.000971174 -1.56446e-05)
(0.00153491 -0.00081995 -1.34001e-05)
(0.00130842 -0.000692889 -1.1423e-05)
(0.00110939 -0.000585965 -9.68549e-06)
(0.00093489 -0.000495759 -8.16217e-06)
(0.000782263 -0.000419386 -6.82976e-06)
(0.000649127 -0.000354435 -5.66749e-06)
(0.00053332 -0.000298862 -4.65649e-06)
(0.000432949 -0.000250977 -3.78025e-06)
(0.000346362 -0.000209374 -3.02432e-06)
(0.000272106 -0.000172873 -2.37603e-06)
(0.000208933 -0.000140506 -1.82449e-06)
(0.00015576 -0.000111472 -1.36025e-06)
(0.000111674 -8.51363e-05 -9.75342e-07)
(7.59007e-05 -6.1039e-05 -6.62981e-07)
(4.77684e-05 -3.89301e-05 -4.17325e-07)
(2.66783e-05 -1.88601e-05 -2.33139e-07)
(1.20437e-05 -1.31675e-06 -1.05308e-07)
(3.19015e-06 1.25391e-05 -2.79466e-08)
(-7.85253e-07 2.06409e-05 6.8202e-09)
(-1.24593e-06 2.00876e-05 1.08927e-08)
(-1.92676e-07 9.09944e-06 1.92545e-09)
(0.0114283 -0.0111684 -9.97574e-05)
(0.0104018 -0.00957941 -9.07978e-05)
(0.00940832 -0.00818017 -8.21266e-05)
(0.00846058 -0.00695774 -7.38544e-05)
(0.00756777 -0.00589747 -6.60616e-05)
(0.00673579 -0.00498385 -5.87996e-05)
(0.00596792 -0.00420123 -5.20972e-05)
(0.00526518 -0.00353438 -4.5963e-05)
(0.00462676 -0.00296881 -4.03901e-05)
(0.00405052 -0.00249107 -3.536e-05)
(0.00353335 -0.00208893 -3.08456e-05)
(0.0030715 -0.00175139 -2.68139e-05)
(0.00266079 -0.00146872 -2.32287e-05)
(0.00229692 -0.00123237 -2.00523e-05)
(0.00197558 -0.00103497 -1.72471e-05)
(0.00169259 -0.000870145 -1.47767e-05)
(0.00144401 -0.00073248 -1.26067e-05)
(0.00122612 -0.000617353 -1.07045e-05)
(0.00103551 -0.000520879 -9.0406e-06)
(0.000869112 -0.000439792 -7.58795e-06)
(0.00072414 -0.000371359 -6.32234e-06)
(0.000598149 -0.000313312 -5.22245e-06)
(0.000488945 -0.000263747 -4.26909e-06)
(0.000394625 -0.000221098 -3.44566e-06)
(0.000313543 -0.00018407 -2.73779e-06)
(0.000244266 -0.000151583 -2.13297e-06)
(0.000185572 -0.000122755 -1.62053e-06)
(0.00013641 -9.68607e-05 -1.19131e-06)
(9.59017e-05 -7.33284e-05 -8.37623e-07)
(6.33046e-05 -5.1749e-05 -5.52994e-07)
(3.79799e-05 -3.19094e-05 -3.31847e-07)
(1.93556e-05 -1.38787e-05 -1.69189e-07)
(6.86343e-06 1.86116e-06 -6.00625e-08)
(-1.61502e-07 1.41906e-05 1.33404e-09)
(-2.63743e-06 2.11331e-05 2.30077e-08)
(-1.95724e-06 1.99268e-05 1.71214e-08)
(-2.37641e-07 8.88996e-06 2.43562e-09)
(0.0116974 -0.0108336 -0.000102107)
(0.0105619 -0.00921407 -9.21959e-05)
(0.00947953 -0.00780407 -8.2749e-05)
(0.00846149 -0.00658565 -7.38632e-05)
(0.00751492 -0.00554 -6.56009e-05)
(0.00664349 -0.00464806 -5.79945e-05)
(0.00584826 -0.00389141 -5.10531e-05)
(0.00512809 -0.0032526 -4.47667e-05)
(0.00448023 -0.00271555 -3.91113e-05)
(0.00390077 -0.00226565 -3.40531e-05)
(0.00338512 -0.00188991 -2.95518e-05)
(0.00292822 -0.00157685 -2.55633e-05)
(0.00252487 -0.00131648 -2.20423e-05)
(0.00216992 -0.0011002 -1.89437e-05)
(0.0018584 -0.000920628 -1.62243e-05)
(0.00158564 -0.000771522 -1.38431e-05)
(0.0013473 -0.00064762 -1.17625e-05)
(0.00113939 -0.000544479 -9.94747e-06)
(0.000958339 -0.000458403 -8.36689e-06)
(0.000800929 -0.000386313 -6.99271e-06)
(0.000664316 -0.000325656 -5.80008e-06)
(0.000546021 -0.000274328 -4.76736e-06)
(0.000443843 -0.000230578 -3.87534e-06)
(0.000355893 -0.000192972 -3.10752e-06)
(0.000280553 -0.000160333 -2.44977e-06)
(0.000216425 -0.000131686 -1.8899e-06)
(0.000162327 -0.000106237 -1.41758e-06)
(0.00011725 -8.33357e-05 -1.02402e-06)
(8.03589e-05 -6.24744e-05 -7.01911e-07)
(5.09515e-05 -4.32934e-05 -4.45128e-07)
(2.8426e-05 -2.56152e-05 -2.48419e-07)
(1.22426e-05 -9.52505e-06 -1.0707e-07)
(1.85563e-06 4.50395e-06 -1.63227e-08)
(-3.3863e-06 1.53982e-05 2.95067e-08)
(-4.41158e-06 2.12774e-05 3.85134e-08)
(-2.63624e-06 1.95284e-05 2.30672e-08)
(-2.80688e-07 8.58358e-06 2.92365e-09)
(0.0118911 -0.0104061 -0.000103799)
(0.0106471 -0.00877197 -9.29408e-05)
(0.0094792 -0.00736609 -8.27471e-05)
(0.00839609 -0.00616511 -7.32931e-05)
(0.00740212 -0.00514566 -6.46169e-05)
(0.00649816 -0.00428516 -5.67263e-05)
(0.00568254 -0.0035624 -4.96069e-05)
(0.00495168 -0.00295797 -4.32271e-05)
(0.00430061 -0.00245434 -3.75437e-05)
(0.00372359 -0.002036 -3.25066e-05)
(0.00321441 -0.00168938 -2.80617e-05)
(0.00276677 -0.00140272 -2.41541e-05)
(0.00237444 -0.00116597 -2.07292e-05)
(0.00203149 -0.000970567 -1.77353e-05)
(0.00173233 -0.000809307 -1.51238e-05)
(0.00147187 -0.000676139 -1.28499e-05)
(0.00124545 -0.000566035 -1.08734e-05)
(0.00104888 -0.00047479 -9.15731e-06)
(0.000878441 -0.000398944 -7.6694e-06)
(0.000730856 -0.000335637 -6.38098e-06)
(0.00060325 -0.000282518 -5.26697e-06)
(0.000493143 -0.000237666 -4.30573e-06)
(0.000398362 -0.00019949 -3.47827e-06)
(0.000317055 -0.000166699 -2.76844e-06)
(0.000247651 -0.000138236 -2.16251e-06)
(0.000188805 -0.000113233 -1.64875e-06)
(0.000139385 -9.09847e-05 -1.21728e-06)
(9.84384e-05 -7.09168e-05 -8.59771e-07)
(6.51787e-05 -5.25835e-05 -5.69364e-07)
(3.89508e-05 -3.56736e-05 -3.40337e-07)
(1.91954e-05 -2.00426e-05 -1.67812e-07)
(5.40908e-06 -5.7898e-06 -4.73911e-08)
(-2.92727e-06 6.62424e-06 2.54533e-08)
(-6.44753e-06 1.61761e-05 5.62507e-08)
(-6.08525e-06 2.10879e-05 5.31411e-08)
(-3.27295e-06 1.89041e-05 2.86428e-08)
(-3.2083e-07 8.18551e-06 3.37909e-09)
(0.011992 -0.0098809 -0.000104681)
(0.0106429 -0.00825158 -9.29051e-05)
(0.00939586 -0.00686715 -8.20205e-05)
(0.00825572 -0.00569848 -7.20685e-05)
(0.00722319 -0.00471768 -6.30557e-05)
(0.00629562 -0.00389869 -5.49589e-05)
(0.00546821 -0.00321782 -4.77364e-05)
(0.00473459 -0.0026539 -4.13323e-05)
(0.00408745 -0.0021883 -3.56831e-05)
(0.0035191 -0.00180484 -3.07217e-05)
(0.00302178 -0.00148966 -2.63803e-05)
(0.00258794 -0.00123096 -2.25931e-05)
(0.00221043 -0.00101878 -1.92975e-05)
(0.00188257 -0.000844795 -1.64354e-05)
(0.00159832 -0.000702059 -1.39539e-05)
(0.00135218 -0.000584829 -1.18051e-05)
(0.0011393 -0.000488376 -9.94669e-06)
(0.00095533 -0.000408794 -8.34064e-06)