/*--------------------------------*- C++ -*----------------------------------*\
| =========                 |                                                 |
| \\      /  F ield         | OpenFOAM: The Open Source CFD Toolbox           |
|  \\    /   O peration     | Version:  v2012                                 |
|   \\  /    A nd           | Website:  www.openfoam.com                      |
|    \\/     M anipulation  |                                                 |
\*---------------------------------------------------------------------------*/
FoamFile
{
    version     2.0;
    format      ascii;
    class       surfaceScalarField;
    location    "0.75";
    object      phi;
}
// * * * * * * * * * * * * * * * * * * * * * * * * * * * * * * * * * * * * * //

dimensions      [0 3 -1 0 0 0 0];
oriented        oriented;


internalField   nonuniform List<scalar> 
8134
(
-3.37189e-08
-7.75318e-09
-3.2368e-15
-2.70817e-08
-6.63715e-09
-2.65184e-15
-2.13631e-08
-5.71855e-09
-2.2748e-15
-1.64267e-08
-4.93645e-09
-2.22825e-15
-1.21692e-08
-4.25744e-09
-2.11457e-15
-8.51109e-09
-3.65814e-09
-1.9286e-15
-5.38564e-09
-3.12545e-09
-1.75847e-15
-2.73547e-09
-2.65018e-09
-1.607e-15
-5.08835e-10
-2.22663e-09
-1.35115e-15
1.34455e-09
-1.85339e-09
-1.184e-15
2.86709e-09
-1.52254e-09
-1.04777e-15
4.10014e-09
-1.23304e-09
-1.00722e-15
5.0808e-09
-9.80653e-10
-1.63093e-15
5.84319e-09
-7.62408e-10
-1.68527e-16
6.41794e-09
-5.74762e-10
-2.71241e-16
6.83215e-09
-4.14207e-10
-3.95807e-16
7.1096e-09
-2.77448e-10
-4.26062e-16
7.27104e-09
-1.61421e-10
-4.09649e-16
7.33448e-09
-6.34502e-11
-4.0215e-16
7.31487e-09
1.95843e-11
-3.86805e-16
7.22583e-09
8.90389e-11
-3.8024e-16
7.07822e-09
1.47585e-10
-3.64025e-16
6.88109e-09
1.97169e-10
-3.46298e-16
6.64136e-09
2.39697e-10
-3.27992e-16
6.36456e-09
2.76819e-10
-3.10674e-16
6.05421e-09
3.10329e-10
-2.93614e-16
5.71259e-09
3.41624e-10
-2.82191e-16
5.34069e-09
3.71929e-10
-2.62812e-16
4.93829e-09
4.02361e-10
-2.42242e-16
4.50549e-09
4.32818e-10
-2.94617e-16
4.04259e-09
4.62889e-10
-2.18358e-16
3.552e-09
4.90582e-10
-1.63119e-16
3.03927e-09
5.12745e-10
-2.10933e-16
2.51418e-09
5.25076e-10
-2.0358e-16
1.99189e-09
5.22294e-10
-2.42251e-16
1.49171e-09
5.00181e-10
-1.48108e-16
1.03491e-09
4.56797e-10
1.09394e-17
6.40882e-10
3.94031e-10
2.21637e-16
3.23447e-10
3.17434e-10
2.94074e-16
8.91786e-11
2.3427e-10
-3.22525e-16
-5.40297e-11
1.43209e-10
-6.44083e-16
-8.76583e-11
3.36301e-11
-3.80048e-16
-8.76589e-11
2.31065e-16
-4.3055e-08
-1.49959e-08
-6.44791e-15
-3.63718e-08
-1.33203e-08
-5.80458e-15
-3.01808e-08
-1.19095e-08
-5.27726e-15
-2.4432e-08
-1.06853e-08
-5.09267e-15
-1.90891e-08
-9.60026e-09
-4.84911e-15
-1.41309e-08
-8.61636e-09
-4.48787e-15
-9.54498e-09
-7.7114e-09
-4.19126e-15
-5.32665e-09
-6.8685e-09
-3.85374e-15
-1.4749e-09
-6.07838e-09
-3.40564e-15
2.00998e-09
-5.33828e-09
-3.08806e-15
5.12816e-09
-4.64071e-09
-2.80457e-15
7.88255e-09
-3.98742e-09
-2.57349e-15
1.02781e-08
-3.37623e-09
-2.77365e-15
1.23245e-08
-2.80877e-09
-4.25876e-16
1.40351e-08
-2.28547e-09
-8.51896e-16
1.54273e-08
-1.80638e-09
-1.07965e-15
1.6521e-08
-1.37118e-09
-1.11933e-15
1.73386e-08
-9.78929e-10
-1.07492e-15
1.79032e-08
-6.28048e-10
-1.03169e-15
1.82388e-08
-3.16152e-10
-1.01231e-15
1.8368e-08
-4.00519e-11
-9.90756e-16
1.83133e-08
2.02182e-10
-9.50113e-16
1.80945e-08
4.16073e-10
-9.0265e-16
1.77283e-08
6.05835e-10
-8.54378e-16
1.72291e-08
7.76057e-10
-8.08113e-16
1.66072e-08
9.3213e-10
-7.6096e-16
1.58701e-08
1.07874e-09
-7.12146e-16
1.50218e-08
1.22032e-09
-6.64752e-16
1.40628e-08
1.36122e-09
-5.8716e-16
1.29938e-08
1.50187e-09
-7.02018e-16
1.18151e-08
1.64159e-09
-5.15117e-16
1.05317e-08
1.77396e-09
-3.54899e-16
9.15657e-09
1.8879e-09
-4.35397e-16
7.71434e-09
1.96727e-09
-3.85275e-16
6.24562e-09
1.99103e-09
-4.56996e-16
4.80526e-09
1.94055e-09
-2.6604e-16
3.45736e-09
1.80469e-09
-2.41363e-16
2.26515e-09
1.58624e-09
1.5792e-16
1.2787e-09
1.30388e-09
2.99058e-16
5.29218e-10
9.83751e-10
-4.95253e-16
4.21392e-11
6.3029e-10
-4.91225e-16
-1.33957e-10
2.09728e-10
-5.39168e-16
-2.21616e-10
-1.64155e-18
-4.15492e-08
-2.08753e-08
-7.56095e-15
-3.58961e-08
-1.89733e-08
-7.02375e-15
-3.04716e-08
-1.7334e-08
-6.49904e-15
-2.52663e-08
-1.58907e-08
-6.3129e-15
-2.027e-08
-1.45966e-08
-6.09559e-15
-1.54762e-08
-1.34102e-08
-5.76967e-15
-1.08827e-08
-1.23049e-08
-5.5117e-15
-6.49331e-09
-1.12578e-08
-5.16527e-15
-2.31692e-09
-1.02548e-08
-4.70616e-15
1.63294e-09
-9.28814e-09
-4.36966e-15
5.34003e-09
-8.3478e-09
-4.05164e-15
8.78707e-09
-7.43445e-09
-3.74822e-15
1.19552e-08
-6.54433e-09
-3.74371e-15
1.48274e-08
-5.68104e-09
-8.34496e-16
1.73897e-08
-4.84776e-09
-1.5095e-15
1.96317e-08
-4.04839e-09
-1.80486e-15
2.15478e-08
-3.28733e-09
-1.83445e-15
2.31376e-08
-2.56866e-09
-1.7697e-15
2.44054e-08
-1.89582e-09
-1.71087e-15
2.536e-08
-1.27093e-09
-1.67168e-15
2.60149e-08
-6.949e-10
-1.63758e-15
2.63843e-08
-1.67333e-10
-1.58997e-15
2.64858e-08
3.1477e-10
-1.52418e-15
2.63357e-08
7.55819e-10
-1.45183e-15
2.595e-08
1.16186e-09
-1.38036e-15
2.53409e-08
1.54109e-09
-1.30815e-15
2.4518e-08
1.90163e-09
-1.23558e-15
2.34867e-08
2.25178e-09
-1.15957e-15
2.22473e-08
2.60043e-09
-1.02251e-15
2.07998e-08
2.94947e-09
-1.21783e-15
1.91427e-08
3.29866e-09
-9.42388e-16
1.72805e-08
3.63605e-09
-6.84838e-16
1.52292e-08
3.93926e-09
-7.96779e-16
1.30227e-08
4.17375e-09
-7.00021e-16
1.07217e-08
4.29207e-09
-8.0763e-16
8.41332e-09
4.24893e-09
-4.98271e-16
6.20529e-09
4.0127e-09
-4.39734e-16
4.21029e-09
3.58123e-09
-1.66468e-16
2.52413e-09
2.99004e-09
-1.24015e-16
1.21226e-09
2.29562e-09
-6.04115e-16
3.21074e-10
1.52148e-09
-4.2624e-16
-8.13762e-11
6.12179e-10
-4.43574e-16
-3.02992e-10
-3.30688e-16
-3.80198e-08
-2.55047e-08
-7.61231e-15
-3.33677e-08
-2.36253e-08
-7.19496e-15
-2.87541e-08
-2.19477e-08
-6.7197e-15
-2.42118e-08
-2.0433e-08
-6.62017e-15
-1.97586e-08
-1.90497e-08
-6.48505e-15
-1.54049e-08
-1.77639e-08
-6.21898e-15
-1.11566e-08
-1.65532e-08
-6.01528e-15
-7.01971e-09
-1.53947e-08
-5.70212e-15
-3.00117e-09
-1.42733e-08
-5.29611e-15
8.889e-10
-1.31782e-08
-4.99576e-15
4.63826e-09
-1.20972e-08
-4.70188e-15
8.23197e-09
-1.10281e-08
-4.40101e-15
1.16515e-08
-9.96383e-09
-4.28422e-15
1.4876e-08
-8.90562e-09
-1.25506e-15
1.78835e-08
-7.8553e-09
-2.06233e-15
2.06514e-08
-6.8163e-09
-2.41173e-15
2.3158e-08
-5.79387e-09
-2.45201e-15
2.53834e-08
-4.79402e-09
-2.39108e-15
2.73109e-08
-3.82332e-09
-2.32839e-15
2.89276e-08
-2.88775e-09
-2.28133e-15
3.02254e-08
-1.99268e-09
-2.2421e-15
3.11998e-08
-1.14186e-09
-2.18232e-15
3.18511e-08
-3.363e-10
-2.09978e-15
3.21814e-08
4.25252e-10
-2.00677e-15
3.21964e-08
1.147e-09
-1.91346e-15
3.19005e-08
1.83692e-09
-1.81942e-15
3.12973e-08
2.50485e-09
-1.72485e-15
3.03872e-08
3.162e-09
-1.62612e-15
2.91659e-08
3.82158e-09
-1.42882e-15
2.76279e-08
4.48758e-09
-1.68605e-15
2.57656e-08
5.16083e-09
-1.35044e-15
2.35778e-08
5.82375e-09
-1.00798e-15
2.10767e-08
6.44052e-09
-1.14323e-15
1.82977e-08
6.95264e-09
-9.90905e-16
1.53142e-08
7.27562e-09
-1.127e-15
1.22402e-08
7.32291e-09
-7.2799e-16
9.22639e-09
7.02651e-09
-6.83323e-16
6.44016e-09
6.36746e-09
-4.06049e-16
4.03334e-09
5.39686e-09
-4.14698e-16
2.11626e-09
4.2127e-09
-5.47769e-16
7.61328e-10
2.87642e-09
-7.44129e-16
5.14693e-11
1.32204e-09
-2.29463e-17
-2.51523e-10
-1.74256e-16
-3.41098e-08
-2.90578e-08
-7.59351e-15
-3.03658e-08
-2.73693e-08
-7.19765e-15
-2.65171e-08
-2.57964e-08
-6.71849e-15
-2.26228e-08
-2.43274e-08
-6.59497e-15
-1.87236e-08
-2.29488e-08
-6.47226e-15
-1.48478e-08
-2.16397e-08
-6.26041e-15
-1.10141e-08
-2.03869e-08
-6.10011e-15
-7.2361e-09
-1.91727e-08
-5.83898e-15
-3.52393e-09
-1.79855e-08
-5.48589e-15
1.118e-10
-1.68139e-08
-5.22532e-15
3.66681e-09
-1.56522e-08
-4.96099e-15
7.128e-09
-1.44893e-08
-4.67789e-15
1.04857e-08
-1.33215e-08
-4.44878e-15
1.37265e-08
-1.21465e-08
-1.57846e-15
1.68345e-08
-1.09633e-08
-2.48268e-15
1.97909e-08
-9.77266e-09
-2.88386e-15
2.25744e-08
-8.57736e-09
-2.9591e-15
2.51618e-08
-7.38138e-09
-2.9225e-15
2.75286e-08
-6.19016e-09
-2.87111e-15
2.96501e-08
-5.00937e-09
-2.82523e-15
3.15028e-08
-3.8453e-09
-2.78125e-15
3.30642e-08
-2.70339e-09
-2.71283e-15
3.43151e-08
-1.58705e-09
-2.61887e-15
3.52384e-08
-4.98225e-10
-2.51246e-15
3.58194e-08
5.66088e-10
-2.40408e-15
3.6045e-08
1.61122e-09
-2.29378e-15
3.59033e-08
2.64659e-09
-2.18173e-15
3.53807e-08
3.68475e-09
-2.06643e-15
3.44599e-08
4.74217e-09
-1.8162e-15
3.31223e-08
5.82525e-09
-2.11872e-15
3.13467e-08
6.93642e-09
-1.74369e-15
2.91171e-08
8.0532e-09
-1.32996e-15
2.64323e-08
9.1255e-09
-1.48478e-15
2.33181e-08
1.00667e-08
-1.27353e-15
1.98488e-08
1.0745e-08
-1.43385e-15
1.61556e-08
1.10161e-08
-9.52479e-16
1.24278e-08
1.07543e-08
-9.32683e-16
8.89042e-09
9.90482e-09
-6.53207e-16
5.76139e-09
8.52589e-09
-6.43424e-16
3.20833e-09
6.76577e-09
-8.0672e-16
1.33792e-09
4.74683e-09
-8.52114e-16
2.47388e-10
2.41256e-09
8.54582e-18
-4.13539e-12
4.79201e-17
-3.01366e-08
-3.16931e-08
-7.38488e-15
-2.72031e-08
-3.03027e-08
-7.04965e-15
-2.40634e-08
-2.89362e-08
-6.56515e-15
-2.07882e-08
-2.76026e-08
-6.49144e-15
-1.74315e-08
-2.63055e-08
-6.41434e-15
-1.40342e-08
-2.5037e-08
-6.23233e-15
-1.06264e-08
-2.37947e-08
-6.10281e-15
-7.23088e-09
-2.25682e-08
-5.85018e-15
-3.86423e-09
-2.13521e-08
-5.52883e-15
-5.39072e-10
-2.01391e-08
-5.28535e-15
2.73428e-09
-1.89255e-08
-5.04153e-15
5.94917e-09
-1.77042e-08
-4.77228e-15
9.09863e-09
-1.6471e-08
-4.46957e-15
1.21757e-08
-1.52236e-08
-1.86826e-15
1.51724e-08
-1.39601e-08
-2.83275e-15
1.80788e-08
-1.2679e-08
-3.264e-15
2.08821e-08
-1.13806e-08
-3.36807e-15
2.35663e-08
-1.00656e-08
-3.35525e-15
2.61121e-08
-8.73594e-09
-3.3188e-15
2.84965e-08
-7.39384e-09
-3.2775e-15
3.06938e-08
-6.04259e-09
-3.2302e-15
3.26753e-08
-4.68511e-09
-3.15565e-15
3.44115e-08
-3.32295e-09
-3.05637e-15
3.58714e-08
-1.95832e-09
-2.94481e-15
3.7024e-08
-5.86433e-10
-2.82978e-15
3.78366e-08
7.98479e-10
-2.71107e-15
3.82767e-08
2.20648e-09
-2.58914e-15
3.83107e-08
3.65094e-09
-2.46424e-15
3.79011e-08
5.15156e-09
-2.17552e-15
3.7008e-08
6.71847e-09
-2.50122e-15
3.55873e-08
8.35704e-09
-2.10809e-15
3.35982e-08
1.00422e-08
-1.6445e-15
3.1013e-08
1.17108e-08
-1.8149e-15
2.78332e-08
1.32464e-08
-1.5476e-15
2.41169e-08
1.44614e-08
-1.72878e-15
1.99971e-08
1.51359e-08
-1.17325e-15
1.56906e-08
1.50608e-08
-1.17398e-15
1.14784e-08
1.4117e-08
-8.93404e-16
7.6521e-09
1.23522e-08
-8.06769e-16
4.44998e-09
9.9679e-09
-9.38112e-16
2.02495e-09
7.17187e-09
-4.97966e-16
4.95815e-10
3.94169e-09
-1.08171e-16
4.91679e-10
2.14382e-16
-2.63377e-08
-3.36004e-08
-7.34826e-15
-2.4084e-08
-3.25564e-08
-7.06561e-15
-2.15663e-08
-3.14539e-08
-6.60451e-15
-1.8854e-08
-3.03149e-08
-6.48425e-15
-1.60044e-08
-2.91551e-08
-6.3749e-15
-1.30642e-08
-2.79772e-08
-6.19999e-15
-1.00703e-08
-2.67886e-08
-6.07517e-15
-7.05194e-09
-2.55866e-08
-5.84506e-15
-4.03188e-09
-2.43722e-08
-5.53741e-15
-1.02732e-09
-2.31436e-08
-5.30648e-15
1.94733e-09
-2.19002e-08
-5.07519e-15
4.88396e-09
-2.06408e-08
-4.81673e-15
7.77559e-09
-1.93626e-08
-4.47064e-15
1.06175e-08
-1.80655e-08
-2.18405e-15
1.3406e-08
-1.67486e-08
-3.15798e-15
1.61373e-08
-1.54104e-08
-3.58497e-15
1.88067e-08
-1.405e-08
-3.69491e-15
2.14075e-08
-1.26664e-08
-3.69185e-15
2.393e-08
-1.12584e-08
-3.66334e-15
2.63604e-08
-9.82432e-09
-3.62376e-15
2.86807e-08
-8.36293e-09
-3.57311e-15
3.08677e-08
-6.87216e-09
-3.49537e-15
3.28931e-08
-5.34818e-09
-3.39671e-15
3.47242e-08
-3.78958e-09
-3.28744e-15
3.63239e-08
-2.18603e-09
-3.17359e-15
3.765e-08
-5.27787e-10
-3.05481e-15
3.86547e-08
1.20177e-09
-2.9315e-15
3.92855e-08
3.02041e-09
-2.80472e-15
3.94838e-08
4.95292e-09
-2.49616e-15
3.91854e-08
7.01706e-09
-2.83363e-15
3.83174e-08
9.22489e-09
-2.43599e-15
3.68055e-08
1.1554e-08
-1.943e-15
3.45831e-08
1.39334e-08
-2.12418e-15
3.16106e-08
1.62187e-08
-1.80971e-15
2.79092e-08
1.81629e-08
-2.00845e-15
2.35914e-08
1.94538e-08
-1.39165e-15
1.88828e-08
1.97693e-08
-1.40757e-15
1.41106e-08
1.88892e-08
-1.12222e-15
9.64258e-09
1.68202e-08
-9.82317e-16
5.8e-09
1.38105e-08
-1.08308e-15
2.79674e-09
1.01751e-08
-5.21063e-16
7.85025e-10
5.95339e-09
-6.92453e-16
1.2767e-09
2.74432e-16
-2.2814e-08
-3.49404e-08
-6.94311e-15
-2.11158e-08
-3.42545e-08
-6.69653e-15
-1.91275e-08
-3.34422e-08
-6.24072e-15
-1.69108e-08
-3.25316e-08
-6.2239e-15
-1.45204e-08
-3.15455e-08
-6.18743e-15
-1.20034e-08
-3.04943e-08
-6.07575e-15
-9.39909e-09
-2.93928e-08
-5.99381e-15
-6.74039e-09
-2.82453e-08
-5.80042e-15
-4.05383e-09
-2.70587e-08
-5.51798e-15
-1.36059e-09
-2.58369e-08
-5.30306e-15
1.32166e-09
-2.45824e-08
-5.08662e-15
3.98137e-09
-2.33006e-08
-4.84636e-15
6.60965e-09
-2.19909e-08
-4.49501e-15
9.20097e-09
-2.06568e-08
-2.50751e-15
1.17524e-08
-1.93e-08
-3.457e-15
1.42624e-08
-1.79204e-08
-3.85239e-15
1.67305e-08
-1.65182e-08
-3.9465e-15
1.91563e-08
-1.50921e-08
-3.93868e-15
2.1538e-08
-1.36402e-08
-3.90923e-15
2.38716e-08
-1.2158e-08
-3.86662e-15
2.61495e-08
-1.06408e-08
-3.81194e-15
2.83589e-08
-9.08169e-09
-3.73357e-15
3.04814e-08
-7.47048e-09
-3.63944e-15
3.24919e-08
-5.80025e-09
-3.53746e-15
3.4358e-08
-4.05205e-09
-3.43077e-15
3.60397e-08
-2.20952e-09
-3.31826e-15
3.74872e-08
-2.45736e-10
-3.20087e-15
3.86389e-08
1.86883e-09
-3.07877e-15
3.9423e-08
4.16863e-09
-2.76962e-15
3.97549e-08
6.68524e-09
-3.10957e-15
3.95355e-08
9.44422e-09
-2.71825e-15
3.86544e-08
1.2435e-08
-2.21564e-15
3.6999e-08
1.55889e-08
-2.40373e-15
3.44746e-08
1.87429e-08
-2.05534e-15
3.10445e-08
2.15931e-08
-2.26811e-15
2.67739e-08
2.37244e-08
-1.60804e-15
2.18706e-08
2.46725e-08
-1.63307e-15
1.66882e-08
2.40716e-08
-1.33778e-15
1.16655e-08
2.18429e-08
-1.15696e-15
7.21514e-09
1.82609e-08
-1.24678e-15
3.62774e-09
1.37626e-08
-6.8163e-16
1.10418e-09
8.47695e-09
-1.06908e-15
2.38088e-09
2.0522e-16
-1.96314e-08
-3.58551e-08
-6.97267e-15
-1.83724e-08
-3.55134e-08
-6.77213e-15
-1.68209e-08
-3.49938e-08
-6.42269e-15
-1.5028e-08
-3.43245e-08
-6.36701e-15
-1.30416e-08
-3.35318e-08
-6.25625e-15
-1.09059e-08
-3.263e-08
-6.10758e-15
-8.65929e-09
-3.16395e-08
-5.99062e-15
-6.33528e-09
-3.05693e-08
-5.80074e-15
-3.96213e-09
-2.94319e-08
-5.51981e-15
-1.56329e-09
-2.82357e-08
-5.31018e-15
8.4132e-10
-2.6987e-08
-5.10339e-15
3.23718e-09
-2.56964e-08
-4.88199e-15
5.61307e-09
-2.43668e-08
-4.54299e-15
7.96156e-09
-2.30054e-08
-2.83269e-15
1.02784e-08
-2.16168e-08
-3.72168e-15
1.25618e-08
-2.02038e-08
-4.06434e-15
1.48122e-08
-1.87687e-08
-4.12887e-15
1.70318e-08
-1.73116e-08
-4.10734e-15
1.92231e-08
-1.58315e-08
-4.07075e-15
2.13885e-08
-1.43234e-08
-4.02178e-15
2.35288e-08
-1.27811e-08
-3.96313e-15
2.56413e-08
-1.11944e-08
-3.88572e-15
2.77191e-08
-9.54812e-09
-3.79778e-15
2.97491e-08
-7.8304e-09
-3.70487e-15
3.17104e-08
-6.01321e-09
-3.60807e-15
3.35729e-08
-4.07212e-09
-3.50598e-15
3.52956e-08
-1.96847e-09
-3.39881e-15
3.6823e-08
3.41608e-10
-3.28599e-15
3.80813e-08
2.91013e-09
-2.99226e-15
3.89781e-08
5.78852e-09
-3.32161e-15
3.93977e-08
9.0246e-09
-2.94872e-15
3.92007e-08
1.26319e-08
-2.45367e-15
3.82306e-08
1.65591e-08
-2.64667e-15
3.63318e-08
2.06416e-08
-2.27992e-15
3.33931e-08
2.45318e-08
-2.50285e-15
2.94063e-08
2.77112e-08
-1.82207e-15
2.45291e-08
2.95497e-08
-1.84945e-15
1.91129e-08
2.94878e-08
-1.53928e-15
1.36515e-08
2.73043e-08
-1.32044e-15
8.65066e-09
2.32617e-08
-1.37043e-15
4.49221e-09
1.7921e-08
-8.39116e-16
1.44304e-09
1.15261e-08
-1.08103e-15
3.82392e-09
-1.83454e-18
-1.68027e-08
-6.5712e-15
-1.58853e-08
-6.34727e-15
-1.46877e-08
-3.61914e-08
-5.98197e-15
-1.32499e-08
-3.57623e-08
-6.03122e-15
-1.16121e-08
-3.51697e-08
-5.99909e-15
-9.81299e-09
-3.4429e-08
-5.93446e-15
-7.88826e-09
-3.35642e-08
-5.88067e-15
-5.87004e-09
-3.25875e-08
-5.7565e-15
-3.78645e-09
-3.15155e-08
-5.48446e-15
-1.66163e-09
-3.03605e-08
-5.29355e-15
4.83428e-10
-2.91321e-08
-5.10291e-15
2.63234e-09
-2.78453e-08
-4.90483e-15
4.7719e-09
-2.65063e-08
-4.60761e-15
6.89281e-09
-2.51263e-08
-3.14147e-15
8.98896e-09
-2.3713e-08
-3.93931e-15
1.10572e-08
-2.2272e-08
-4.22028e-15
1.30972e-08
-2.08086e-08
-4.2517e-15
1.51109e-08
-1.93253e-08
-4.21398e-15
1.71024e-08
-1.78229e-08
-4.16788e-15
1.90766e-08
-1.62977e-08
-4.11156e-15
2.10392e-08
-1.47437e-08
-4.04949e-15
2.29946e-08
-1.31499e-08
-3.97348e-15
2.49449e-08
-1.14983e-08
-3.89132e-15
2.68883e-08
-9.7739e-09
-3.80699e-15
2.88167e-08
-7.94149e-09
-3.72e-15
3.07139e-08
-5.96942e-09
-3.6292e-15
3.25529e-08
-3.80751e-09
-3.53442e-15
3.42924e-08
-1.39778e-09
-3.43245e-15
3.58715e-08
1.3309e-09
-3.16533e-15
3.72029e-08
4.45719e-09
-3.48041e-15
3.81693e-08
8.05812e-09
-3.12859e-15
3.86173e-08
1.21839e-08
-2.65271e-15
3.83578e-08
1.68187e-08
-2.8496e-15
3.71796e-08
2.18197e-08
-2.47972e-15
3.48914e-08
2.682e-08
-2.70936e-15
3.13911e-08
3.12115e-08
-2.02813e-15
2.6754e-08
3.41868e-08
-2.05422e-15
2.12935e-08
3.49483e-08
-1.72765e-15
1.55322e-08
3.30656e-08
-1.47405e-15
1.00614e-08
2.87325e-08
-1.48756e-15
5.36428e-09
2.26182e-08
-9.21645e-16
1.7915e-09
1.50989e-08
-8.36613e-16
5.61542e-09
-3.28726e-16
-1.27493e-08
-3.71073e-08
-6.09839e-15
-1.16042e-08
-3.69074e-08
-6.07178e-15
-1.02619e-08
-3.65119e-08
-6.03117e-15
-8.75511e-09
-3.59358e-08
-5.92838e-15
-7.11539e-09
-3.52039e-08
-5.84204e-15
-5.37225e-09
-3.43306e-08
-5.73009e-15
-3.55239e-09
-3.33353e-08
-5.47078e-15
-1.67938e-09
-3.22335e-08
-5.28845e-15
2.25703e-10
-3.10372e-08
-5.10771e-15
2.1458e-09
-2.97654e-08
-4.92757e-15
4.06633e-09
-2.84268e-08
-4.67785e-15
5.97664e-09
-2.70366e-08
-3.42562e-15
7.86897e-09
-2.56053e-08
-4.10995e-15
9.73858e-09
-2.41416e-08
-4.32776e-15
1.15836e-08
-2.26537e-08
-4.32885e-15
1.3405e-08
-2.11466e-08
-4.27637e-15
1.5206e-08
-1.96239e-08
-4.22104e-15
1.6992e-08
-1.80838e-08
-4.15786e-15
1.87705e-08
-1.65222e-08
-4.09268e-15
2.05492e-08
-1.49286e-08
-4.0178e-15
2.23357e-08
-1.32847e-08
-3.93997e-15
2.41364e-08
-1.15747e-08
-3.86227e-15
2.59537e-08
-9.75872e-09
-3.78341e-15
2.77846e-08
-7.8004e-09
-3.70232e-15
2.96173e-08
-5.64018e-09
-3.61885e-15
3.14277e-08
-3.20801e-09
-3.52756e-15
3.31739e-08
-4.15585e-10
-3.29216e-15
3.47869e-08
2.84436e-09
-3.59126e-15
3.61618e-08
6.68312e-09
-3.2596e-15
3.71486e-08
1.1197e-08
-2.81242e-15
3.75445e-08
1.6423e-08
-3.01199e-15
3.70983e-08
2.22658e-08
-2.65256e-15
3.55452e-08
2.83732e-08
-2.88974e-15
3.26806e-08
3.40762e-08
-2.2213e-15
2.84706e-08
3.83966e-08
-2.24531e-15
2.31531e-08
4.02658e-08
-1.90436e-15
1.72443e-08
3.89744e-08
-1.62173e-15
1.14036e-08
3.45733e-08
-1.61091e-15
6.21837e-09
2.78034e-08
-1.05557e-15
2.13945e-09
1.91778e-08
-8.83386e-16
7.75487e-09
-4.23277e-16
-1.10111e-08
-3.78018e-08
-5.75221e-15
-1.01042e-08
-3.78143e-08
-5.86251e-15
-9.00934e-09
-3.76068e-08
-5.86846e-15
-7.75314e-09
-3.7192e-08
-5.79795e-15
-6.36249e-09
-3.65946e-08
-5.74821e-15
-4.86365e-09
-3.58295e-08
-5.67091e-15
-3.2811e-09
-3.49179e-08
-5.4382e-15
-1.63706e-09
-3.38775e-08
-5.27047e-15
4.78774e-11
-3.27221e-08
-5.10161e-15
1.75796e-09
-3.14755e-08
-4.93879e-15
3.47691e-09
-3.01458e-08
-4.7391e-15
5.19349e-09
-2.87532e-08
-3.67181e-15
6.89879e-09
-2.73106e-08
-4.23551e-15
8.58676e-09
-2.58296e-08
-4.3965e-15
1.02541e-08
-2.4321e-08
-4.37365e-15
1.19001e-08
-2.27927e-08
-4.30971e-15
1.35269e-08
-2.12507e-08
-4.24663e-15
1.51389e-08
-1.96959e-08
-4.17766e-15
1.67432e-08
-1.81264e-08
-4.10987e-15
1.83483e-08
-1.65339e-08
-4.03544e-15
1.99644e-08
-1.49007e-08
-3.96029e-15
2.16022e-08
-1.32126e-08
-3.88699e-15
2.32711e-08
-1.14276e-08
-3.81394e-15
2.49781e-08
-9.50745e-09
-3.74027e-15
2.67243e-08
-7.38645e-09
-3.66559e-15
2.8502e-08
-4.98557e-09
-3.58308e-15
3.02897e-08
-2.20339e-09
-3.3796e-15
3.20415e-08
1.09262e-09
-3.65431e-15
3.3676e-08
5.04856e-09
-3.34528e-15
3.50618e-08
9.81111e-09
-2.93446e-15
3.60025e-08
1.54824e-08
-3.135e-15
3.62292e-08
2.2039e-08
-2.79711e-15
3.54217e-08
2.91808e-08
-3.04001e-15
3.32777e-08
3.62202e-08
-2.40002e-15
2.96393e-08
4.20349e-08
-2.42153e-15
2.46344e-08
4.52707e-08
-2.07015e-15
1.87336e-08
4.48752e-08
-1.76467e-15
1.26364e-08
4.06705e-08
-1.74043e-15
7.0299e-09
3.34099e-08
-1.23144e-15
2.47691e-09
2.37307e-08
-1.05193e-15
1.02318e-08
-5.15506e-16
-9.46878e-09
-3.83243e-08
-5.84565e-15
-8.75373e-09
-3.85294e-08
-5.93146e-15
-7.86391e-09
-3.84966e-08
-5.88632e-15
-6.82024e-09
-3.82357e-08
-5.81932e-15
-5.64498e-09
-3.77698e-08
-5.75366e-15
-4.3608e-09
-3.71136e-08
-5.6485e-15
-2.98954e-09
-3.62891e-08
-5.42751e-15
-1.5516e-09
-3.53155e-08
-5.26511e-15
-6.57552e-11
-3.42079e-08
-5.10326e-15
1.45177e-09
-3.2993e-08
-4.95212e-15
2.9861e-09
-3.16801e-08
-4.79715e-15
4.52515e-09
-3.02923e-08
-3.89581e-15
6.05939e-09
-2.88449e-08
-4.33062e-15
7.58177e-09
-2.7352e-08
-4.43993e-15
9.0878e-09
-2.5827e-08
-4.39803e-15
1.05755e-08
-2.42804e-08
-4.32546e-15
1.20454e-08
-2.27206e-08
-4.2561e-15
1.35005e-08
-2.11511e-08
-4.18269e-15
1.49467e-08
-1.95725e-08
-4.11257e-15
1.63918e-08
-1.79791e-08
-4.038e-15
1.78462e-08
-1.6355e-08
-3.96415e-15
1.93223e-08
-1.46887e-08
-3.89354e-15
2.0833e-08
-1.29382e-08
-3.82425e-15
2.23914e-08
-1.10659e-08
-3.75562e-15
2.40081e-08
-9.0032e-09
-3.68712e-15
2.56884e-08
-6.66576e-09
-3.61116e-15
2.74283e-08
-3.94344e-09
-3.43716e-15
2.92053e-08
-6.84231e-10
-3.68486e-15
3.09656e-08
3.28818e-09
-3.39548e-15
3.26065e-08
8.17013e-09
-3.02255e-15
3.39548e-08
1.41341e-08
-3.22136e-15
3.47472e-08
2.12465e-08
-2.91311e-15
3.46332e-08
2.92948e-08
-3.15872e-15
3.32306e-08
3.76228e-08
-2.56527e-15
3.02563e-08
4.50091e-08
-2.5827e-15
2.57036e-08
4.98234e-08
-2.22503e-15
1.9958e-08
5.06208e-08
-1.90307e-15
1.37247e-08
4.69038e-08
-1.87354e-15
7.77623e-09
3.93585e-08
-1.39681e-15
2.79433e-09
2.87126e-08
-1.20779e-15
1.30261e-08
-6.24953e-16
-8.11145e-09
-3.87145e-08
-5.83816e-15
-7.5496e-09
-3.90912e-08
-5.85542e-15
-6.82834e-09
-3.92179e-08
-5.8217e-15
-5.96348e-09
-3.91005e-08
-5.7982e-15
-4.97293e-09
-3.87604e-08
-5.72138e-15
-3.87577e-09
-3.82108e-08
-5.63543e-15
-2.69105e-09
-3.74739e-08
-5.41566e-15
-1.43705e-09
-3.65695e-08
-5.25723e-15
-1.30682e-10
-3.55143e-08
-5.10142e-15
1.21228e-09
-3.4336e-08
-4.96114e-15
2.57834e-09
-3.30462e-08
-4.86094e-15
3.95535e-09
-3.16693e-08
-4.08246e-15
5.33351e-09
-3.0223e-08
-4.40022e-15
6.70517e-09
-2.87236e-08
-4.46599e-15
8.06495e-09
-2.71868e-08
-4.40989e-15
9.40983e-09
-2.56252e-08
-4.33109e-15
1.0739e-08
-2.40498e-08
-4.25684e-15
1.20541e-08
-2.24662e-08
-4.18007e-15
1.33593e-08
-2.08777e-08
-4.10799e-15
1.46612e-08
-1.92811e-08
-4.03291e-15
1.59692e-08
-1.76629e-08
-3.95946e-15
1.72953e-08
-1.60149e-08
-3.89024e-15
1.86537e-08
-1.42965e-08
-3.82302e-15
2.00601e-08
-1.24725e-08
-3.75747e-15
2.1531e-08
-1.0474e-08
-3.69269e-15
2.30805e-08
-8.21515e-09
-3.62139e-15
2.47181e-08
-5.58118e-09
-3.47257e-15
2.64407e-08
-2.40681e-09
-3.69401e-15
2.82215e-08
1.50738e-09
-3.41955e-15
2.999e-08
6.40156e-09
-3.08267e-15
3.1607e-08
1.25172e-08
-3.2763e-15
3.28341e-08
2.00193e-08
-3.00186e-15
3.33176e-08
2.88115e-08
-3.24507e-15
3.26216e-08
3.83188e-08
-2.71938e-15
3.03503e-08
4.72803e-08
-2.72709e-15
2.63507e-08
5.38229e-08
-2.36845e-15
2.08897e-08
5.60818e-08
-2.03721e-15
1.46402e-08
5.31534e-08
-2.00879e-15
8.43754e-09
4.55611e-08
-1.56289e-15
3.0829e-09
3.40672e-08
-1.36111e-15
1.6109e-08
-7.48567e-16
-6.92476e-09
-3.90038e-08
-5.83009e-15
-6.48438e-09
-3.95316e-08
-5.85529e-15
-5.90076e-09
-3.98015e-08
-5.79824e-15
-5.18538e-09
-3.98159e-08
-5.78561e-15
-4.35218e-09
-3.95936e-08
-5.71001e-15
-3.41685e-09
-3.91461e-08
-5.61011e-15
-2.39566e-09
-3.8495e-08
-5.40646e-15
-1.30468e-09
-3.76604e-08
-5.25294e-15
-1.59131e-10
-3.66599e-08
-5.1032e-15
1.02668e-09
-3.55218e-08
-4.96939e-15
2.24019e-09
-3.42597e-08
-4.88572e-15
3.46983e-09
-3.2899e-08
-4.20592e-15
4.70591e-09
-3.14591e-08
-4.44884e-15
5.9405e-09
-2.99582e-08
-4.48221e-15
7.1677e-09
-2.8414e-08
-4.41496e-15
8.38367e-09
-2.68412e-08
-4.33155e-15
9.58661e-09
-2.52527e-08
-4.25333e-15
1.07768e-08
-2.36565e-08
-4.17405e-15
1.19571e-08
-2.2058e-08
-4.10042e-15
1.31325e-08
-2.04565e-08
-4.0245e-15
1.43108e-08
-1.88411e-08
-3.95088e-15
1.55027e-08
-1.72069e-08
-3.88206e-15
1.6722e-08
-1.55157e-08
-3.81572e-15
1.79849e-08
-1.37355e-08
-3.75169e-15
1.93104e-08
-1.17995e-08
-3.68891e-15
2.07178e-08
-9.62247e-09
-3.62046e-15
2.22257e-08
-7.08924e-09
-3.49199e-15
2.38456e-08
-4.02664e-09
-3.68125e-15
2.55728e-08
-2.19849e-10
-3.42248e-15
2.7368e-08
4.60629e-09
-3.12134e-15
2.913e-08
1.07552e-08
-3.30504e-15
3.06583e-08
1.8491e-08
-3.06554e-15
3.16193e-08
2.78505e-08
-3.30175e-15
3.15535e-08
3.83846e-08
-2.83308e-15
2.99756e-08
4.88581e-08
-2.84911e-15
2.65887e-08
5.72099e-08
-2.50003e-15
2.15166e-08
6.11538e-08
-2.16806e-15
1.53628e-08
5.93073e-08
-2.14637e-15
8.99773e-09
5.19262e-08
-1.73623e-15
3.33494e-09
3.973e-08
-1.5225e-15
1.9444e-08
-8.86088e-16
-5.89271e-09
-3.92168e-08
-6.07931e-15
-5.54803e-09
-3.98763e-08
-5.98901e-15
-5.0762e-09
-4.02733e-08
-5.82428e-15
-4.48514e-09
-4.0407e-08
-5.78283e-15
-3.7853e-09
-4.02934e-08
-5.72526e-15
-2.98925e-09
-3.99422e-08
-5.6053e-15
-2.1106e-09
-3.93737e-08
-5.40865e-15
-1.16328e-09
-3.86078e-08
-5.25479e-15
-1.60758e-10
-3.76624e-08
-5.1063e-15
8.84173e-10
-3.65667e-08
-4.97385e-15
1.96004e-09
-3.53355e-08
-4.86673e-15
3.05615e-09
-3.39951e-08
-4.28437e-15
4.16319e-09
-3.25662e-08
-4.48157e-15
5.2733e-09
-3.10683e-08
-4.4916e-15
6.38029e-09
-2.9521e-08
-4.41625e-15
7.4798e-09
-2.79407e-08
-4.32951e-15
8.56928e-09
-2.63422e-08
-4.24827e-15
9.64803e-09
-2.47353e-08
-4.16688e-15
1.07176e-08
-2.31275e-08
-4.09168e-15
1.17814e-08
-2.15204e-08
-4.01495e-15
1.28458e-08
-1.99054e-08
-3.94082e-15
1.39199e-08
-1.8281e-08
-3.87189e-15
1.50158e-08
-1.66115e-08
-3.80562e-15
1.61491e-08
-1.48689e-08
-3.74214e-15
1.73388e-08
-1.29892e-08
-3.68001e-15
1.86067e-08
-1.08903e-08
-3.61323e-15
1.99765e-08
-8.45909e-09
-3.5005e-15
2.14692e-08
-5.51932e-09
-3.66035e-15
2.30969e-08
-1.8476e-09
-3.41201e-15
2.48466e-08
2.85654e-09
-3.14107e-15
2.66538e-08
8.9481e-09
-3.30977e-15
2.83618e-08
1.67829e-08
-3.10622e-15
2.96745e-08
2.65379e-08
-3.33653e-15
3.01367e-08
3.79225e-08
-2.91248e-15
2.92037e-08
4.9791e-08
-2.94917e-15
2.64488e-08
5.99648e-08
-2.61947e-15
2.1841e-08
6.57617e-08
-2.29766e-15
1.58816e-08
6.52666e-08
-2.28779e-15
9.44503e-09
5.83628e-08
-1.92251e-15
3.54424e-09
4.56307e-08
-1.69763e-15
2.29882e-08
-1.0415e-15
-4.999e-09
-3.93727e-08
-6.00709e-15
-4.72929e-09
-4.0146e-08
-5.93421e-15
-4.34785e-09
-4.06547e-08
-5.79396e-15
-3.85972e-09
-4.08951e-08
-5.74977e-15
-3.27246e-09
-4.08807e-08
-5.70666e-15
-2.59579e-09
-4.06188e-08
-5.58411e-15
-1.84085e-09
-4.01286e-08
-5.40378e-15
-1.01949e-09
-3.94291e-08
-5.25424e-15
-1.43523e-10
-3.85383e-08
-5.10973e-15
7.75743e-10
-3.7486e-08
-4.97956e-15
1.72799e-09
-3.62878e-08
-4.85326e-15
2.70352e-09
-3.49706e-08
-4.34258e-15
3.69369e-09
-3.35564e-08
-4.50597e-15
4.6909e-09
-3.20655e-08
-4.49761e-15
5.68894e-09
-3.0519e-08
-4.41587e-15
6.68315e-09
-2.89348e-08
-4.3265e-15
7.67046e-09
-2.73295e-08
-4.24265e-15
8.64942e-09
-2.57142e-08
-4.15955e-15
9.62052e-09
-2.40986e-08
-4.08276e-15
1.05861e-08
-2.2486e-08
-4.00536e-15
1.15507e-08
-2.087e-08
-3.93062e-15
1.25219e-08
-1.92523e-08
-3.86131e-15
1.35099e-08
-1.75995e-08
-3.79477e-15
1.4529e-08
-1.5888e-08
-3.73109e-15
1.55968e-08
-1.40571e-08
-3.66899e-15
1.67353e-08
-1.20287e-08
-3.60271e-15
1.79702e-08
-9.69405e-09
-3.50146e-15
1.93282e-08
-6.87724e-09
-3.63303e-15
2.08324e-08
-3.35191e-09
-3.3908e-15
2.24901e-08
1.19881e-09
-3.14009e-15
2.42687e-08
7.16958e-09
-3.2869e-15
2.60553e-08
1.49962e-08
-3.12222e-15
2.76012e-08
2.4992e-08
-3.35082e-15
2.84786e-08
3.70451e-08
-2.9796e-15
2.81145e-08
5.0155e-08
-3.03128e-15
2.59764e-08
6.2103e-08
-2.72698e-15
2.18781e-08
6.986e-08
-2.42856e-15
1.61945e-08
7.09502e-08
-2.43515e-15
9.77238e-09
6.4785e-08
-2.1309e-15
3.70629e-09
5.16968e-08
-1.8919e-15
2.66945e-08
-1.22056e-15
-4.2278e-09
-3.94863e-08
-6.27152e-15
-4.01653e-09
-4.03573e-08
-6.11334e-15
-3.70786e-09
-4.09634e-08
-5.9516e-15
-3.30467e-09
-4.12983e-08
-5.82754e-15
-2.81211e-09
-4.13732e-08
-5.7237e-15
-2.23745e-09
-4.11935e-08
-5.59795e-15
-1.58952e-09
-4.07766e-08
-5.41584e-15
-8.78221e-10
-4.01404e-08
-5.26293e-15
-1.13761e-10
-3.93028e-08
-5.11673e-15
6.93906e-10
-3.82936e-08
-4.98786e-15
1.5356e-09
-3.71295e-08
-4.86204e-15
2.40266e-09
-3.58377e-08
-4.4003e-15
3.28725e-09
-3.44409e-08
-4.52557e-15
4.18224e-09
-3.29605e-08
-4.50139e-15
5.08159e-09
-3.14184e-08
-4.41457e-15
5.98055e-09
-2.98338e-08
-4.32301e-15
6.87572e-09
-2.82247e-08
-4.23689e-15
7.76511e-09
-2.66037e-08
-4.15262e-15
8.64844e-09
-2.49819e-08
-4.07444e-15
9.52698e-09
-2.33646e-08
-3.99637e-15
1.04041e-08
-2.1747e-08
-3.92102e-15
1.12856e-08
-2.01338e-08
-3.85118e-15
1.21801e-08
-1.8494e-08
-3.78405e-15
1.30997e-08
-1.68076e-08
-3.71981e-15
1.40605e-08
-1.50179e-08
-3.657e-15
1.50829e-08
-1.30511e-08
-3.5906e-15
1.61927e-08
-1.08039e-08
-3.49724e-15
1.7419e-08
-8.10344e-09
-3.5927e-15
1.87914e-08
-4.72437e-09
-3.35543e-15
2.03312e-08
-3.41003e-10
-3.11334e-15
2.20313e-08
5.46955e-09
-3.23517e-15
2.38185e-08
1.32089e-08
-3.09863e-15
2.54948e-08
2.33158e-08
-3.33711e-15
2.66758e-08
3.58641e-08
-3.03534e-15
2.67891e-08
5.00417e-08
-3.09656e-15
2.52251e-08
6.3667e-08
-2.82377e-15
2.16535e-08
7.34315e-08
-2.56291e-15
1.63076e-08
7.62962e-08
-2.58982e-15
9.97746e-09
7.11151e-08
-2.35957e-15
3.81846e-09
5.78558e-08
-2.10988e-15
3.0513e-08
-1.43075e-15
-3.56433e-09
-3.95689e-08
-6.16082e-15
-3.39835e-09
-4.05233e-08
-6.0741e-15
-3.14806e-09
-4.12137e-08
-5.96832e-15
-2.81473e-09
-4.16316e-08
-5.8458e-15
-2.4016e-09
-4.17863e-08
-5.72306e-15
-1.91385e-09
-4.16813e-08
-5.6026e-15
-1.35828e-09
-4.13321e-08
-5.41794e-15
-7.4289e-10
-4.07558e-08
-5.26559e-15
-7.64002e-11
-3.99693e-08
-5.12144e-15
6.32537e-10
-3.90026e-08
-4.99579e-15
1.37574e-09
-3.78727e-08
-4.88079e-15
2.14559e-09
-3.66075e-08
-4.45837e-15
2.93506e-09
-3.52304e-08
-4.54254e-15
3.73767e-09
-3.37631e-08
-4.50422e-15
4.54773e-09
-3.22284e-08
-4.41314e-15
5.36053e-09
-3.06466e-08
-4.31968e-15
6.1725e-09
-2.90367e-08
-4.23164e-15
6.98135e-09
-2.74126e-08
-4.14633e-15
7.78617e-09
-2.57868e-08
-4.06689e-15
8.58746e-09
-2.41659e-08
-3.98827e-15
9.38747e-09
-2.2547e-08
-3.91225e-15
1.01907e-08
-2.09371e-08
-3.84183e-15
1.1004e-08
-1.93073e-08
-3.77393e-15
1.18377e-08
-1.76413e-08
-3.70893e-15
1.27055e-08
-1.58858e-08
-3.64516e-15