/*--------------------------------*- C++ -*----------------------------------*\
| =========                 |                                                 |
| \\      /  F ield         | OpenFOAM: The Open Source CFD Toolbox           |
|  \\    /   O peration     | Version:  v2012                                 |
|   \\  /    A nd           | Website:  www.openfoam.com                      |
|    \\/     M anipulation  |                                                 |
\*---------------------------------------------------------------------------*/
FoamFile
{
    version     2.0;
    format      ascii;
    class       volScalarField;
    location    "0.2";
    object      p;
}
// * * * * * * * * * * * * * * * * * * * * * * * * * * * * * * * * * * * * * //

dimensions      [1 -1 -2 0 0 0 0];


internalField   nonuniform List<scalar> 
3326
(
3.49861e+06
3.49863e+06
3.49866e+06
3.49868e+06
3.49869e+06
3.49871e+06
3.49872e+06
3.49873e+06
3.49874e+06
3.4985e+06
3.49854e+06
3.49857e+06
3.49859e+06
3.49862e+06
3.49864e+06
3.49866e+06
3.49868e+06
3.49869e+06
3.49871e+06
3.49872e+06
3.49873e+06
3.49616e+06
3.49628e+06
3.4964e+06
3.49651e+06
3.49662e+06
3.49671e+06
3.4968e+06
3.4969e+06
3.49698e+06
3.49707e+06
3.49716e+06
3.49724e+06
3.49732e+06
3.49739e+06
3.49747e+06
3.49754e+06
3.49761e+06
3.49768e+06
3.49774e+06
3.4978e+06
3.49787e+06
3.49792e+06
3.49798e+06
3.49804e+06
3.49809e+06
3.49814e+06
3.49819e+06
3.49824e+06
3.49829e+06
3.49833e+06
3.49837e+06
3.49841e+06
3.49845e+06
3.49848e+06
3.49852e+06
3.49855e+06
3.49858e+06
3.4986e+06
3.49863e+06
3.49865e+06
3.49867e+06
3.49868e+06
3.49869e+06
3.49871e+06
3.49871e+06
3.49597e+06
3.49612e+06
3.49624e+06
3.49636e+06
3.49648e+06
3.49658e+06
3.49668e+06
3.49678e+06
3.49688e+06
3.49697e+06
3.49706e+06
3.49715e+06
3.49723e+06
3.49732e+06
3.49739e+06
3.49747e+06
3.49754e+06
3.49762e+06
3.49769e+06
3.49775e+06
3.49782e+06
3.49788e+06
3.49794e+06
3.498e+06
3.49806e+06
3.49811e+06
3.49816e+06
3.49821e+06
3.49826e+06
3.49831e+06
3.49835e+06
3.49839e+06
3.49843e+06
3.49847e+06
3.4985e+06
3.49853e+06
3.49856e+06
3.49859e+06
3.49861e+06
3.49863e+06
3.49865e+06
3.49867e+06
3.49868e+06
3.49869e+06
3.4987e+06
3.49579e+06
3.49595e+06
3.49608e+06
3.4962e+06
3.49632e+06
3.49643e+06
3.49654e+06
3.49665e+06
3.49676e+06
3.49686e+06
3.49696e+06
3.49705e+06
3.49715e+06
3.49723e+06
3.49732e+06
3.4974e+06
3.49748e+06
3.49755e+06
3.49763e+06
3.4977e+06
3.49777e+06
3.49783e+06
3.4979e+06
3.49796e+06
3.49802e+06
3.49808e+06
3.49813e+06
3.49818e+06
3.49823e+06
3.49828e+06
3.49833e+06
3.49837e+06
3.49841e+06
3.49845e+06
3.49848e+06
3.49852e+06
3.49855e+06
3.49857e+06
3.4986e+06
3.49862e+06
3.49864e+06
3.49866e+06
3.49867e+06
3.49868e+06
3.49869e+06
3.49559e+06
3.49579e+06
3.49592e+06
3.49603e+06
3.49616e+06
3.49628e+06
3.4964e+06
3.49652e+06
3.49664e+06
3.49675e+06
3.49685e+06
3.49696e+06
3.49705e+06
3.49715e+06
3.49724e+06
3.49733e+06
3.49741e+06
3.49749e+06
3.49757e+06
3.49764e+06
3.49772e+06
3.49779e+06
3.49785e+06
3.49792e+06
3.49798e+06
3.49804e+06
3.4981e+06
3.49815e+06
3.4982e+06
3.49825e+06
3.4983e+06
3.49835e+06
3.49839e+06
3.49843e+06
3.49846e+06
3.4985e+06
3.49853e+06
3.49856e+06
3.49858e+06
3.49861e+06
3.49863e+06
3.49864e+06
3.49866e+06
3.49867e+06
3.49868e+06
3.49538e+06
3.49559e+06
3.49574e+06
3.49585e+06
3.49599e+06
3.49612e+06
3.49625e+06
3.49638e+06
3.49651e+06
3.49663e+06
3.49674e+06
3.49685e+06
3.49696e+06
3.49706e+06
3.49715e+06
3.49725e+06
3.49734e+06
3.49742e+06
3.49751e+06
3.49759e+06
3.49766e+06
3.49774e+06
3.49781e+06
3.49788e+06
3.49794e+06
3.498e+06
3.49806e+06
3.49812e+06
3.49818e+06
3.49823e+06
3.49828e+06
3.49832e+06
3.49837e+06
3.49841e+06
3.49845e+06
3.49848e+06
3.49851e+06
3.49854e+06
3.49857e+06
3.49859e+06
3.49861e+06
3.49863e+06
3.49865e+06
3.49866e+06
3.49867e+06
3.49516e+06
3.49539e+06
3.49555e+06
3.49566e+06
3.49581e+06
3.49595e+06
3.4961e+06
3.49624e+06
3.49637e+06
3.4965e+06
3.49662e+06
3.49674e+06
3.49685e+06
3.49696e+06
3.49707e+06
3.49717e+06
3.49726e+06
3.49735e+06
3.49744e+06
3.49753e+06
3.49761e+06
3.49769e+06
3.49776e+06
3.49783e+06
3.4979e+06
3.49797e+06
3.49803e+06
3.49809e+06
3.49815e+06
3.4982e+06
3.49825e+06
3.4983e+06
3.49835e+06
3.49839e+06
3.49843e+06
3.49847e+06
3.4985e+06
3.49853e+06
3.49856e+06
3.49858e+06
3.4986e+06
3.49862e+06
3.49863e+06
3.49864e+06
3.49865e+06
3.49496e+06
3.49519e+06
3.49534e+06
3.49546e+06
3.49562e+06
3.49577e+06
3.49593e+06
3.49608e+06
3.49622e+06
3.49636e+06
3.4965e+06
3.49662e+06
3.49675e+06
3.49686e+06
3.49697e+06
3.49708e+06
3.49718e+06
3.49728e+06
3.49737e+06
3.49746e+06
3.49755e+06
3.49763e+06
3.49771e+06
3.49779e+06
3.49786e+06
3.49793e+06
3.498e+06
3.49806e+06
3.49812e+06
3.49818e+06
3.49823e+06
3.49828e+06
3.49833e+06
3.49837e+06
3.49841e+06
3.49845e+06
3.49848e+06
3.49852e+06
3.49854e+06
3.49857e+06
3.49859e+06
3.49861e+06
3.49862e+06
3.49863e+06
3.49864e+06
3.49467e+06
3.49492e+06
3.4951e+06
3.49525e+06
3.49542e+06
3.49559e+06
3.49575e+06
3.49591e+06
3.49607e+06
3.49622e+06
3.49636e+06
3.4965e+06
3.49663e+06
3.49676e+06
3.49688e+06
3.49699e+06
3.4971e+06
3.4972e+06
3.4973e+06
3.4974e+06
3.49749e+06
3.49758e+06
3.49766e+06
3.49774e+06
3.49782e+06
3.49789e+06
3.49796e+06
3.49803e+06
3.49809e+06
3.49815e+06
3.49821e+06
3.49826e+06
3.49831e+06
3.49835e+06
3.49839e+06
3.49843e+06
3.49847e+06
3.4985e+06
3.49853e+06
3.49856e+06
3.49858e+06
3.4986e+06
3.49861e+06
3.49862e+06
3.49863e+06
3.49442e+06
3.49469e+06
3.49486e+06
3.49502e+06
3.49521e+06
3.49539e+06
3.49556e+06
3.49574e+06
3.4959e+06
3.49607e+06
3.49622e+06
3.49637e+06
3.49651e+06
3.49664e+06
3.49677e+06
3.49689e+06
3.49701e+06
3.49712e+06
3.49723e+06
3.49733e+06
3.49743e+06
3.49752e+06
3.49761e+06
3.4977e+06
3.49778e+06
3.49785e+06
3.49793e+06
3.498e+06
3.49806e+06
3.49812e+06
3.49818e+06
3.49824e+06
3.49829e+06
3.49833e+06
3.49838e+06
3.49842e+06
3.49845e+06
3.49849e+06
3.49852e+06
3.49854e+06
3.49857e+06
3.49858e+06
3.4986e+06
3.49861e+06
3.49862e+06
3.4941e+06
3.4944e+06
3.4946e+06
3.49478e+06
3.49498e+06
3.49517e+06
3.49536e+06
3.49555e+06
3.49573e+06
3.4959e+06
3.49607e+06
3.49623e+06
3.49638e+06
3.49652e+06
3.49666e+06
3.49679e+06
3.49692e+06
3.49704e+06
3.49715e+06
3.49726e+06
3.49737e+06
3.49746e+06
3.49756e+06
3.49765e+06
3.49773e+06
3.49782e+06
3.49789e+06
3.49796e+06
3.49803e+06
3.4981e+06
3.49816e+06
3.49821e+06
3.49827e+06
3.49832e+06
3.49836e+06
3.4984e+06
3.49844e+06
3.49847e+06
3.4985e+06
3.49853e+06
3.49855e+06
3.49857e+06
3.49859e+06
3.4986e+06
3.49861e+06
3.49383e+06
3.49413e+06
3.49434e+06
3.49452e+06
3.49473e+06
3.49494e+06
3.49514e+06
3.49534e+06
3.49554e+06
3.49573e+06
3.49591e+06
3.49608e+06
3.49624e+06
3.4964e+06
3.49655e+06
3.49669e+06
3.49682e+06
3.49695e+06
3.49707e+06
3.49719e+06
3.4973e+06
3.49741e+06
3.49751e+06
3.4976e+06
3.49769e+06
3.49778e+06
3.49786e+06
3.49793e+06
3.498e+06
3.49807e+06
3.49813e+06
3.49819e+06
3.49825e+06
3.4983e+06
3.49834e+06
3.49839e+06
3.49843e+06
3.49846e+06
3.49849e+06
3.49852e+06
3.49854e+06
3.49856e+06
3.49858e+06
3.49859e+06
3.4986e+06
3.49343e+06
3.49379e+06
3.49402e+06
3.49422e+06
3.49446e+06
3.49468e+06
3.4949e+06
3.49512e+06
3.49533e+06
3.49554e+06
3.49573e+06
3.49592e+06
3.4961e+06
3.49626e+06
3.49642e+06
3.49658e+06
3.49672e+06
3.49686e+06
3.49699e+06
3.49711e+06
3.49723e+06
3.49734e+06
3.49745e+06
3.49755e+06
3.49765e+06
3.49774e+06
3.49782e+06
3.4979e+06
3.49797e+06
3.49804e+06
3.49811e+06
3.49817e+06
3.49823e+06
3.49828e+06
3.49833e+06
3.49837e+06
3.49841e+06
3.49845e+06
3.49848e+06
3.49851e+06
3.49853e+06
3.49855e+06
3.49857e+06
3.49858e+06
3.49858e+06
3.4931e+06
3.49346e+06
3.49368e+06
3.4939e+06
3.49416e+06
3.4944e+06
3.49464e+06
3.49488e+06
3.49511e+06
3.49533e+06
3.49555e+06
3.49575e+06
3.49594e+06
3.49612e+06
3.49629e+06
3.49646e+06
3.49661e+06
3.49676e+06
3.4969e+06
3.49704e+06
3.49716e+06
3.49728e+06
3.49739e+06
3.4975e+06
3.4976e+06
3.49769e+06
3.49778e+06
3.49787e+06
3.49794e+06
3.49802e+06
3.49809e+06
3.49815e+06
3.49821e+06
3.49826e+06
3.49831e+06
3.49836e+06
3.4984e+06
3.49844e+06
3.49847e+06
3.4985e+06
3.49852e+06
3.49854e+06
3.49856e+06
3.49857e+06
3.49857e+06
3.49257e+06
3.49301e+06
3.49327e+06
3.49354e+06
3.49383e+06
3.49409e+06
3.49436e+06
3.49462e+06
3.49487e+06
3.49511e+06
3.49534e+06
3.49556e+06
3.49577e+06
3.49597e+06
3.49616e+06
3.49633e+06
3.4965e+06
3.49666e+06
3.49681e+06
3.49695e+06
3.49709e+06
3.49722e+06
3.49734e+06
3.49745e+06
3.49755e+06
3.49765e+06
3.49775e+06
3.49783e+06
3.49792e+06
3.49799e+06
3.49806e+06
3.49813e+06
3.49819e+06
3.49824e+06
3.4983e+06
3.49834e+06
3.49839e+06
3.49842e+06
3.49846e+06
3.49849e+06
3.49851e+06
3.49853e+06
3.49855e+06
3.49856e+06
3.49856e+06
3.49232e+06
3.49274e+06
3.49289e+06
3.49316e+06
3.49348e+06
3.49375e+06
3.49405e+06
3.49434e+06
3.49461e+06
3.49488e+06
3.49513e+06
3.49537e+06
3.49559e+06
3.49581e+06
3.49601e+06
3.4962e+06
3.49638e+06
3.49655e+06
3.49672e+06
3.49687e+06
3.49701e+06
3.49715e+06
3.49728e+06
3.49739e+06
3.49751e+06
3.49761e+06
3.49771e+06
3.4978e+06
3.49789e+06
3.49796e+06
3.49804e+06
3.49811e+06
3.49817e+06
3.49823e+06
3.49828e+06
3.49833e+06
3.49837e+06
3.49841e+06
3.49845e+06
3.49848e+06
3.4985e+06
3.49852e+06
3.49854e+06
3.49855e+06
3.49855e+06
3.49155e+06
3.49208e+06
3.49228e+06
3.49268e+06
3.49306e+06
3.49336e+06
3.4937e+06
3.49402e+06
3.49433e+06
3.49462e+06
3.49489e+06
3.49516e+06
3.4954e+06
3.49563e+06
3.49586e+06
3.49606e+06
3.49626e+06
3.49644e+06
3.49662e+06
3.49678e+06
3.49693e+06
3.49708e+06
3.49721e+06
3.49734e+06
3.49746e+06
3.49757e+06
3.49767e+06
3.49777e+06
3.49786e+06
3.49794e+06
3.49801e+06
3.49809e+06
3.49815e+06
3.49821e+06
3.49827e+06
3.49831e+06
3.49836e+06
3.4984e+06
3.49843e+06
3.49847e+06
3.49849e+06
3.49851e+06
3.49853e+06
3.49854e+06
3.49854e+06
3.49108e+06
3.49164e+06
3.49175e+06
3.4922e+06
3.49262e+06
3.49295e+06
3.49333e+06
3.49368e+06
3.49402e+06
3.49434e+06
3.49464e+06
3.49493e+06
3.4952e+06
3.49545e+06
3.49569e+06
3.49592e+06
3.49613e+06
3.49633e+06
3.49651e+06
3.49669e+06
3.49685e+06
3.49701e+06
3.49715e+06
3.49728e+06
3.49741e+06
3.49753e+06
3.49763e+06
3.49773e+06
3.49783e+06
3.49791e+06
3.49799e+06
3.49806e+06
3.49813e+06
3.49819e+06
3.49825e+06
3.4983e+06
3.49835e+06
3.49839e+06
3.49842e+06
3.49846e+06
3.49848e+06
3.4985e+06
3.49852e+06
3.49853e+06
3.49853e+06
3.49022e+06
3.49083e+06
3.49102e+06
3.4916e+06
3.4921e+06
3.49248e+06
3.4929e+06
3.4933e+06
3.49368e+06
3.49403e+06
3.49436e+06
3.49468e+06
3.49497e+06
3.49525e+06
3.49551e+06
3.49576e+06
3.49599e+06
3.49621e+06
3.49641e+06
3.4966e+06
3.49677e+06
3.49694e+06
3.49709e+06
3.49723e+06
3.49736e+06
3.49748e+06
3.49759e+06
3.4977e+06
3.4978e+06
3.49789e+06
3.49797e+06
3.49804e+06
3.49811e+06
3.49818e+06
3.49824e+06
3.49829e+06
3.49834e+06
3.49838e+06
3.49841e+06
3.49845e+06
3.49847e+06
3.49849e+06
3.49851e+06
3.49852e+06
3.49853e+06
3.48963e+06
3.49024e+06
3.49038e+06
3.491e+06
3.49155e+06
3.49197e+06
3.49244e+06
3.49289e+06
3.4933e+06
3.4937e+06
3.49406e+06
3.49441e+06
3.49474e+06
3.49504e+06
3.49533e+06
3.49559e+06
3.49585e+06
3.49608e+06
3.4963e+06
3.4965e+06
3.49669e+06
3.49686e+06
3.49702e+06
3.49717e+06
3.49731e+06
3.49744e+06
3.49756e+06
3.49767e+06
3.49777e+06
3.49786e+06
3.49795e+06
3.49802e+06
3.4981e+06
3.49816e+06
3.49822e+06
3.49828e+06
3.49832e+06
3.49837e+06
3.4984e+06
3.49844e+06
3.49846e+06
3.49849e+06
3.4985e+06
3.49851e+06
3.49852e+06
3.48827e+06
3.48913e+06
3.48943e+06
3.49019e+06
3.49086e+06
3.49137e+06
3.49191e+06
3.49242e+06
3.49289e+06
3.49332e+06
3.49374e+06
3.49412e+06
3.49448e+06
3.49482e+06
3.49513e+06
3.49542e+06
3.49569e+06
3.49595e+06
3.49618e+06
3.4964e+06
3.4966e+06
3.49678e+06
3.49696e+06
3.49711e+06
3.49726e+06
3.49739e+06
3.49752e+06
3.49763e+06
3.49774e+06
3.49783e+06
3.49792e+06
3.498e+06
3.49808e+06
3.49815e+06
3.49821e+06
3.49826e+06
3.49831e+06
3.49836e+06
3.4984e+06
3.49843e+06
3.49846e+06
3.49848e+06
3.49849e+06
3.49851e+06
3.49851e+06
3.48736e+06
3.48826e+06
3.48858e+06
3.48941e+06
3.49015e+06
3.49072e+06
3.49133e+06
3.4919e+06
3.49243e+06
3.49292e+06
3.49338e+06
3.49381e+06
3.4942e+06
3.49457e+06
3.49492e+06
3.49524e+06
3.49553e+06
3.49581e+06
3.49606e+06
3.49629e+06
3.49651e+06
3.49671e+06
3.49689e+06
3.49706e+06
3.49721e+06
3.49735e+06
3.49748e+06
3.4976e+06
3.49771e+06
3.49781e+06
3.4979e+06
3.49799e+06
3.49806e+06
3.49813e+06
3.49819e+06
3.49825e+06
3.4983e+06
3.49835e+06
3.49839e+06
3.49842e+06
3.49845e+06
3.49847e+06
3.49849e+06
3.4985e+06
3.4985e+06
3.48544e+06
3.48671e+06
3.4873e+06
3.48834e+06
3.48924e+06
3.48995e+06
3.49066e+06
3.49132e+06
3.49192e+06
3.49247e+06
3.49299e+06
3.49346e+06
3.49391e+06
3.49432e+06
3.4947e+06
3.49505e+06
3.49537e+06
3.49566e+06
3.49594e+06
3.49619e+06
3.49642e+06
3.49663e+06
3.49682e+06
3.497e+06
3.49716e+06
3.49731e+06
3.49744e+06
3.49757e+06
3.49768e+06
3.49779e+06
3.49788e+06
3.49797e+06
3.49805e+06
3.49812e+06
3.49818e+06
3.49824e+06
3.49829e+06
3.49834e+06
3.49838e+06
3.49841e+06
3.49844e+06
3.49846e+06
3.49848e+06
3.49849e+06
3.49849e+06
3.4843e+06
3.48561e+06
3.48624e+06
3.48735e+06
3.48833e+06
3.48914e+06
3.48994e+06
3.49068e+06
3.49136e+06
3.49198e+06
3.49256e+06
3.4931e+06
3.49359e+06
3.49404e+06
3.49446e+06
3.49484e+06
3.4952e+06
3.49552e+06
3.49581e+06
3.49608e+06
3.49633e+06
3.49655e+06
3.49675e+06
3.49694e+06
3.49711e+06
3.49726e+06
3.49741e+06
3.49754e+06
3.49765e+06
3.49776e+06
3.49786e+06
3.49795e+06
3.49803e+06
3.4981e+06
3.49817e+06
3.49823e+06
3.49828e+06
3.49833e+06
3.49837e+06
3.49841e+06
3.49843e+06
3.49846e+06
3.49847e+06
3.49848e+06
3.49849e+06
3.48152e+06
3.48347e+06
3.4845e+06
3.48593e+06
3.48713e+06
3.48814e+06
3.48909e+06
3.48995e+06
3.49073e+06
3.49145e+06
3.4921e+06
3.4927e+06
3.49325e+06
3.49375e+06
3.49421e+06
3.49463e+06
3.49502e+06
3.49537e+06
3.49568e+06
3.49597e+06
3.49623e+06
3.49647e+06
3.49669e+06
3.49688e+06
3.49706e+06
3.49722e+06
3.49737e+06
3.4975e+06
3.49763e+06
3.49774e+06
3.49784e+06
3.49793e+06
3.49802e+06
3.49809e+06
3.49816e+06
3.49822e+06
3.49827e+06
3.49832e+06
3.49836e+06
3.4984e+06
3.49843e+06
3.49845e+06
3.49847e+06
3.49848e+06
3.49848e+06
3.47972e+06
3.48203e+06
3.48312e+06
3.48465e+06
3.48596e+06
3.48711e+06
3.48818e+06
3.48916e+06
3.49005e+06
3.49086e+06
3.4916e+06
3.49228e+06
3.49289e+06
3.49345e+06
3.49396e+06
3.49442e+06
3.49483e+06
3.49521e+06
3.49555e+06
3.49586e+06
3.49614e+06
3.49639e+06
3.49662e+06
3.49683e+06
3.49701e+06
3.49718e+06
3.49734e+06
3.49747e+06
3.4976e+06
3.49772e+06
3.49782e+06
3.49792e+06
3.498e+06
3.49808e+06
3.49815e+06
3.49821e+06
3.49827e+06
3.49831e+06
3.49836e+06
3.49839e+06
3.49842e+06
3.49845e+06
3.49846e+06
3.49847e+06
3.49848e+06
3.47064e+06
3.4742e+06
3.47574e+06
3.47913e+06
3.48078e+06
3.48276e+06
3.4844e+06
3.48584e+06
3.48711e+06
3.48827e+06
3.48929e+06
3.49022e+06
3.49106e+06
3.49182e+06
3.49251e+06
3.49313e+06
3.49369e+06
3.49419e+06
3.49465e+06
3.49505e+06
3.49542e+06
3.49575e+06
3.49605e+06
3.49631e+06
3.49655e+06
3.49677e+06
3.49697e+06
3.49714e+06
3.4973e+06
3.49745e+06
3.49758e+06
3.4977e+06
3.4978e+06
3.4979e+06
3.49799e+06
3.49807e+06
3.49814e+06
3.4982e+06
3.49826e+06
3.49831e+06
3.49835e+06
3.49839e+06
3.49842e+06
3.49844e+06
3.49846e+06
3.49847e+06
3.49847e+06
3.46784e+06
3.47272e+06
3.47366e+06
3.47733e+06
3.47901e+06
3.48116e+06
3.48292e+06
3.48456e+06
3.48599e+06
3.48731e+06
3.48848e+06
3.48954e+06
3.49049e+06
3.49135e+06
3.49211e+06
3.4928e+06
3.49342e+06
3.49397e+06
3.49446e+06
3.4949e+06
3.49529e+06
3.49564e+06
3.49596e+06
3.49624e+06
3.49649e+06
3.49672e+06
3.49692e+06
3.4971e+06
3.49727e+06
3.49742e+06
3.49755e+06
3.49768e+06
3.49779e+06
3.49789e+06
3.49797e+06
3.49806e+06
3.49813e+06
3.49819e+06
3.49825e+06
3.4983e+06
3.49834e+06
3.49838e+06
3.49841e+06
3.49844e+06
3.49845e+06
3.49846e+06
3.49847e+06
3.45793e+06
3.46623e+06
3.46778e+06
3.47322e+06
3.47569e+06
3.47866e+06
3.48087e+06
3.48294e+06
3.48466e+06
3.48623e+06
3.48759e+06
3.4888e+06
3.48988e+06
3.49084e+06
3.4917e+06
3.49246e+06
3.49314e+06
3.49374e+06
3.49427e+06
3.49474e+06
3.49516e+06
3.49554e+06
3.49587e+06
3.49616e+06
3.49643e+06
3.49666e+06
3.49688e+06
3.49707e+06
3.49724e+06
3.49739e+06
3.49753e+06
3.49766e+06
3.49777e+06
3.49787e+06
3.49796e+06
3.49805e+06
3.49812e+06
3.49818e+06
3.49824e+06
3.49829e+06
3.49834e+06
3.49838e+06
3.49841e+06
3.49843e+06
3.49845e+06
3.49846e+06
3.49846e+06
3.45502e+06
3.46466e+06
3.46506e+06
3.47113e+06
3.47339e+06
3.47669e+06
3.47903e+06
3.48138e+06
3.48331e+06
3.4851e+06
3.48665e+06
3.48803e+06
3.48925e+06
3.49033e+06
3.49128e+06
3.49212e+06
3.49286e+06
3.49351e+06
3.49408e+06
3.49459e+06
3.49504e+06
3.49543e+06
3.49578e+06
3.49609e+06
3.49637e+06
3.49661e+06
3.49683e+06
3.49703e+06
3.49721e+06
3.49737e+06
3.49751e+06
3.49764e+06
3.49775e+06
3.49786e+06
3.49795e+06
3.49804e+06
3.49811e+06
3.49818e+06
3.49824e+06
3.49829e+06
3.49833e+06
3.49837e+06
3.4984e+06
3.49843e+06
3.49845e+06
3.49846e+06
3.49846e+06
3.43774e+06
3.45485e+06
3.45618e+06
3.46549e+06
3.46875e+06
3.47342e+06
3.47639e+06
3.47938e+06
3.48171e+06
3.48384e+06
3.48563e+06
3.48722e+06
3.4886e+06
3.4898e+06
3.49086e+06
3.49178e+06
3.49259e+06
3.49329e+06
3.49391e+06
3.49445e+06
3.49492e+06
3.49534e+06
3.4957e+06
3.49603e+06
3.49631e+06
3.49657e+06
3.4968e+06
3.497e+06
3.49718e+06
3.49734e+06
3.49749e+06
3.49762e+06
3.49774e+06
3.49785e+06
3.49794e+06
3.49803e+06
3.4981e+06
3.49817e+06
3.49823e+06
3.49828e+06
3.49833e+06
3.49837e+06
3.4984e+06
3.49843e+06
3.49844e+06
3.49846e+06
3.49846e+06
3.43643e+06
3.45518e+06
3.45363e+06
3.46365e+06
3.46614e+06
3.47124e+06
3.47426e+06
3.47761e+06
3.48019e+06
3.4826e+06
3.48462e+06
3.48641e+06
3.48795e+06
3.48929e+06
3.49045e+06
3.49145e+06
3.49232e+06
3.49308e+06
3.49374e+06
3.49431e+06
3.49481e+06
3.49525e+06
3.49563e+06
3.49597e+06
3.49626e+06
3.49653e+06
3.49676e+06
3.49697e+06
3.49716e+06
3.49732e+06
3.49747e+06
3.49761e+06
3.49773e+06
3.49784e+06
3.49793e+06
3.49802e+06
3.4981e+06
3.49817e+06
3.49823e+06
3.49828e+06
3.49833e+06
3.49837e+06
3.4984e+06
3.49842e+06
3.49844e+06
3.49845e+06
3.49846e+06
3.40776e+06
3.44147e+06
3.44023e+06
3.45595e+06
3.45984e+06
3.46706e+06
3.471e+06
3.47526e+06
3.47837e+06
3.48122e+06
3.48355e+06
3.48558e+06
3.4873e+06
3.48878e+06
3.49005e+06
3.49114e+06
3.49208e+06
3.49289e+06
3.49358e+06
3.49419e+06
3.49471e+06
3.49516e+06
3.49556e+06
3.49591e+06
3.49622e+06
3.49649e+06
3.49673e+06
3.49695e+06
3.49714e+06
3.49731e+06
3.49746e+06
3.49759e+06
3.49772e+06
3.49783e+06
3.49792e+06
3.49801e+06
3.49809e+06
3.49816e+06
3.49822e+06
3.49828e+06
3.49832e+06
3.49836e+06
3.4984e+06
3.49842e+06
3.49844e+06
3.49845e+06
3.49845e+06
3.41028e+06
3.44635e+06
3.43807e+06
3.45487e+06
3.4571e+06
3.4648e+06
3.46869e+06
3.47338e+06
3.47679e+06
3.47997e+06
3.48256e+06
3.48481e+06
3.48671e+06
3.48832e+06
3.48969e+06
3.49086e+06
3.49186e+06
3.49271e+06
3.49345e+06
3.49408e+06
3.49462e+06
3.49509e+06
3.49551e+06
3.49587e+06
3.49618e+06
3.49646e+06
3.49671e+06
3.49692e+06
3.49712e+06
3.49729e+06
3.49745e+06
3.49758e+06
3.49771e+06
3.49782e+06
3.49792e+06
3.49801e+06
3.49809e+06
3.49816e+06
3.49822e+06
3.49827e+06
3.49832e+06
3.49836e+06
3.4984e+06
3.49842e+06
3.49844e+06
3.49845e+06
3.49845e+06
3.36287e+06
3.42673e+06
3.41951e+06
3.44508e+06
3.44934e+06
3.45992e+06
3.46509e+06
3.47091e+06
3.47498e+06
3.47867e+06
3.4816e+06
3.4841e+06
3.48617e+06
3.48792e+06
3.48939e+06
3.49063e+06
3.49168e+06
3.49257e+06
3.49333e+06
3.49399e+06
3.49455e+06
3.49504e+06
3.49546e+06
3.49583e+06
3.49615e+06
3.49643e+06
3.49668e+06
3.49691e+06
3.4971e+06
3.49728e+06
3.49743e+06
3.49757e+06
3.4977e+06
3.49781e+06
3.49791e+06
3.498e+06
3.49808e+06
3.49815e+06
3.49822e+06
3.49827e+06
3.49832e+06
3.49836e+06
3.49839e+06
3.49842e+06
3.49844e+06
3.49845e+06
3.49845e+06
3.37796e+06
3.4407e+06
3.41667e+06
3.44441e+06
3.44637e+06
3.45758e+06
3.46294e+06
3.46923e+06
3.47367e+06
3.47768e+06
3.48085e+06
3.48354e+06
3.48575e+06
3.4876e+06
3.48915e+06
3.49044e+06
3.49154e+06
3.49246e+06
3.49325e+06
3.49392e+06
3.4945e+06
3.49499e+06
3.49542e+06
3.4958e+06
3.49612e+06
3.49641e+06
3.49667e+06
3.49689e+06
3.49709e+06
3.49727e+06
3.49743e+06
3.49757e+06
3.49769e+06
3.49781e+06
3.49791e+06
3.498e+06
3.49808e+06
3.49815e+06
3.49821e+06
3.49827e+06
3.49832e+06
3.49836e+06
3.49839e+06
3.49842e+06
3.49844e+06
3.49845e+06
3.49845e+06
3.35481e+06
3.42214e+06
3.40135e+06
3.43435e+06
3.43943e+06
3.45302e+06
3.45995e+06
3.46725e+06
3.47237e+06
3.47679e+06
3.48024e+06
3.48311e+06
3.48545e+06
3.48738e+06
3.48898e+06
3.49032e+06
3.49144e+06
3.49239e+06
3.49319e+06
3.49387e+06
3.49446e+06
3.49496e+06
3.4954e+06
3.49578e+06
3.49611e+06
3.4964e+06
3.49666e+06
3.49688e+06
3.49708e+06
3.49726e+06
3.49742e+06
3.49756e+06
3.49769e+06
3.4978e+06
3.4979e+06
3.49799e+06
3.49808e+06
3.49815e+06
3.49821e+06
3.49827e+06
3.49832e+06
3.49836e+06
3.4984e+06
3.49842e+06
3.49844e+06
3.49845e+06
3.49845e+06
3.49861e+06
3.49863e+06
3.49866e+06
3.49868e+06
3.49869e+06
3.49871e+06
3.49872e+06
3.49873e+06
3.49874e+06
3.4985e+06
3.49854e+06
3.49857e+06
3.49859e+06
3.49862e+06
3.49864e+06
3.49866e+06
3.49868e+06
3.49869e+06
3.49871e+06
3.49872e+06
3.49873e+06
3.49616e+06
3.49628e+06
3.4964e+06
3.49651e+06
3.49662e+06
3.49671e+06
3.4968e+06
3.4969e+06
3.49698e+06
3.49707e+06
3.49716e+06
3.49724e+06
3.49732e+06
3.49739e+06
3.49747e+06
3.49754e+06
3.49761e+06
3.49768e+06
3.49774e+06
3.4978e+06
3.49787e+06
3.49792e+06
3.49798e+06
3.49804e+06
3.49809e+06
3.49814e+06
3.49819e+06
3.49824e+06
3.49829e+06
3.49833e+06
3.49837e+06
3.49841e+06
3.49845e+06
3.49848e+06
3.49852e+06
3.49855e+06
3.49858e+06
3.4986e+06
3.49863e+06
3.49865e+06
3.49867e+06
3.49868e+06
3.49869e+06
3.49871e+06
3.49871e+06
3.49597e+06
3.49612e+06
3.49624e+06
3.49636e+06
3.49648e+06
3.49658e+06
3.49668e+06
3.49678e+06
3.49688e+06
3.49697e+06
3.49706e+06
3.49715e+06
3.49723e+06
3.49732e+06
3.49739e+06
3.49747e+06
3.49754e+06
3.49762e+06
3.49769e+06
3.49775e+06
3.49782e+06
3.49788e+06
3.49794e+06
3.498e+06
3.49806e+06
3.49811e+06
3.49816e+06
3.49821e+06
3.49826e+06
3.49831e+06
3.49835e+06
3.49839e+06
3.49843e+06
3.49847e+06
3.4985e+06
3.49853e+06
3.49856e+06
3.49859e+06
3.49861e+06
3.49863e+06
3.49865e+06
3.49867e+06
3.49868e+06
3.49869e+06
3.4987e+06
3.49579e+06
3.49595e+06
3.49608e+06
3.4962e+06
3.49632e+06
3.49643e+06
3.49654e+06
3.49665e+06
3.49676e+06
3.49686e+06
3.49696e+06
3.49705e+06
3.49715e+06
3.49723e+06
3.49732e+06
3.4974e+06
3.49748e+06
3.49755e+06
3.49763e+06
3.4977e+06
3.49777e+06
3.49783e+06
3.4979e+06
3.49796e+06
3.49802e+06
3.49808e+06
3.49813e+06
3.49818e+06
3.49823e+06
3.49828e+06
3.49833e+06
3.49837e+06
3.49841e+06
3.49845e+06
3.49848e+06
3.49852e+06
3.49855e+06
3.49857e+06
3.4986e+06
3.49862e+06
3.49864e+06
3.49866e+06
3.49867e+06
3.49868e+06
3.49869e+06
3.49559e+06
3.49579e+06
3.49592e+06
3.49603e+06
3.49616e+06
3.49628e+06
3.4964e+06
3.49652e+06
3.49664e+06
3.49675e+06
3.49685e+06
3.49696e+06
3.49705e+06
3.49715e+06
3.49724e+06
3.49733e+06
3.49741e+06
3.49749e+06
3.49757e+06
3.49764e+06
3.49772e+06
3.49779e+06
3.49785e+06
3.49792e+06
3.49798e+06
3.49804e+06
3.4981e+06
3.49815e+06
3.4982e+06
3.49825e+06
3.4983e+06
3.49835e+06
3.49839e+06
3.49843e+06
3.49846e+06
3.4985e+06
3.49853e+06
3.49856e+06
3.49858e+06
3.49861e+06
3.49863e+06
3.49864e+06
3.49866e+06
3.49867e+06
3.49868e+06
3.49538e+06
3.49559e+06
3.49574e+06
3.49585e+06
3.49599e+06
3.49612e+06
3.49625e+06
3.49638e+06
3.49651e+06
3.49663e+06
3.49674e+06
3.49685e+06
3.49696e+06
3.49706e+06
3.49715e+06
3.49725e+06
3.49734e+06
3.49742e+06
3.49751e+06
3.49759e+06
3.49766e+06
3.49774e+06
3.49781e+06
3.49788e+06
3.49794e+06
3.498e+06
3.49806e+06
3.49812e+06
3.49818e+06
3.49823e+06
3.49828e+06
3.49832e+06
3.49837e+06
3.49841e+06
3.49845e+06
3.49848e+06
3.49851e+06
3.49854e+06
3.49857e+06
3.49859e+06
3.49861e+06
3.49863e+06
3.49865e+06
3.49866e+06
3.49867e+06
3.49516e+06
3.49539e+06
3.49555e+06
3.49566e+06
3.49581e+06
3.49595e+06
3.4961e+06
3.49624e+06
3.49637e+06
3.4965e+06
3.49662e+06
3.49674e+06
3.49685e+06
3.49696e+06
3.49707e+06
3.49717e+06
3.49726e+06
3.49735e+06
3.49744e+06
3.49753e+06
3.49761e+06
3.49769e+06
3.49776e+06
3.49783e+06
3.4979e+06
3.49797e+06
3.49803e+06
3.49809e+06
3.49815e+06
3.4982e+06
3.49825e+06
3.4983e+06
3.49835e+06
3.49839e+06
3.49843e+06
3.49847e+06
3.4985e+06
3.49853e+06
3.49856e+06
3.49858e+06
3.4986e+06
3.49862e+06
3.49863e+06
3.49864e+06
3.49865e+06
3.49496e+06
3.49519e+06
3.49534e+06
3.49546e+06
3.49562e+06
3.49577e+06
3.49593e+06
3.49608e+06
3.49622e+06
3.49636e+06
3.4965e+06
3.49662e+06
3.49675e+06
3.49686e+06
3.49697e+06
3.49708e+06
3.49718e+06
3.49728e+06
3.49737e+06
3.49746e+06
3.49755e+06
3.49763e+06
3.49771e+06
3.49779e+06
3.49786e+06
3.49793e+06
3.498e+06
3.49806e+06
3.49812e+06
3.49818e+06
3.49823e+06
3.49828e+06
3.49833e+06
3.49837e+06
3.49841e+06
3.49845e+06
3.49848e+06
3.49852e+06
3.49854e+06
3.49857e+06
3.49859e+06
3.49861e+06
3.49862e+06
3.49863e+06
3.49864e+06
3.49467e+06
3.49492e+06
3.4951e+06
3.49525e+06
3.49542e+06
3.49559e+06
3.49575e+06
3.49591e+06
3.49607e+06
3.49622e+06
3.49636e+06
3.4965e+06
3.49663e+06
3.49676e+06
3.49688e+06
3.49699e+06
3.4971e+06
3.4972e+06
3.4973e+06
3.4974e+06
3.49749e+06
3.49758e+06
3.49766e+06
3.49774e+06
3.49782e+06
3.49789e+06
3.49796e+06
3.49803e+06
3.49809e+06
3.49815e+06
3.49821e+06
3.49826e+06
3.49831e+06
3.49835e+06
3.49839e+06
3.49843e+06
3.49847e+06
3.4985e+06
3.49853e+06
3.49856e+06
3.49858e+06
3.4986e+06
3.49861e+06
3.49862e+06
3.49863e+06
3.49442e+06
3.49469e+06
3.49486e+06
3.49502e+06
3.49521e+06
3.49539e+06
3.49556e+06
3.49574e+06
3.4959e+06
3.49607e+06
3.49622e+06
3.49637e+06
3.49651e+06
3.49664e+06
3.49677e+06
3.49689e+06
3.49701e+06
3.49712e+06
3.49723e+06
3.49733e+06
3.49743e+06
3.49752e+06
3.49761e+06
3.4977e+06
3.49778e+06
3.49785e+06
3.49793e+06
3.498e+06
3.49806e+06
3.49812e+06
3.49818e+06
3.49824e+06
3.49829e+06
3.49833e+06
3.49838e+06
3.49842e+06
3.49845e+06
3.49849e+06
3.49852e+06
3.49854e+06
3.49857e+06
3.49858e+06
3.4986e+06
3.49861e+06
3.49862e+06
3.4941e+06
3.4944e+06
3.4946e+06
3.49478e+06
3.49498e+06
3.49517e+06
3.49536e+06
3.49555e+06
3.49573e+06
3.4959e+06
3.49607e+06
3.49623e+06
3.49638e+06
3.49652e+06
3.49666e+06
3.49679e+06
3.49692e+06
3.49704e+06
3.49715e+06
3.49726e+06
3.49737e+06
3.49746e+06
3.49756e+06
3.49765e+06
3.49773e+06
3.49782e+06
3.49789e+06
3.49796e+06
3.49803e+06
3.4981e+06
3.49816e+06
3.49821e+06
3.49827e+06
3.49832e+06
3.49836e+06
3.4984e+06
3.49844e+06
3.49847e+06
3.4985e+06
3.49853e+06
3.49855e+06
3.49857e+06
3.49859e+06
3.4986e+06
3.49861e+06
3.49383e+06
3.49413e+06
3.49434e+06
3.49452e+06
3.49473e+06
3.49494e+06
3.49514e+06
3.49534e+06
3.49554e+06
3.49573e+06
3.49591e+06
3.49608e+06
3.49624e+06
3.4964e+06
3.49655e+06
3.49669e+06
3.49682e+06
3.49695e+06
3.49707e+06
3.49719e+06
3.4973e+06
3.49741e+06
3.49751e+06
3.4976e+06
3.49769e+06
3.49778e+06
3.49786e+06
3.49793e+06
3.498e+06
3.49807e+06
3.49813e+06
3.49819e+06
3.49825e+06
3.4983e+06
3.49834e+06
3.49839e+06
3.49843e+06
3.49846e+06
3.49849e+06
3.49852e+06
3.49854e+06
3.49856e+06
3.49858e+06
3.49859e+06
3.4986e+06
3.49343e+06
3.49379e+06
3.49402e+06
3.49422e+06
3.49446e+06
3.49468e+06
3.4949e+06
3.49512e+06
3.49533e+06
3.49554e+06
3.49573e+06
3.49592e+06
3.4961e+06
3.49626e+06
3.49642e+06
3.49658e+06
3.49672e+06
3.49686e+06
3.49699e+06
3.49711e+06
3.49723e+06
3.49734e+06
3.49745e+06
3.49755e+06
3.49765e+06
3.49774e+06
3.49782e+06
3.4979e+06
3.49797e+06
3.49804e+06
3.49811e+06
3.49817e+06
3.49823e+06
3.49828e+06
3.49833e+06
3.49837e+06
3.49841e+06
3.49845e+06
3.49848e+06
3.49851e+06
3.49853e+06
3.49855e+06
3.49857e+06
3.49858e+06
3.49858e+06
3.4931e+06
3.49346e+06
3.49368e+06
3.4939e+06
3.49416e+06
3.4944e+06
3.49464e+06
3.49488e+06
3.49511e+06
3.49533e+06
3.49555e+06
3.49575e+06
3.49594e+06
3.49612e+06
3.49629e+06
3.49646e+06
3.49661e+06
3.49676e+06
3.4969e+06
3.49704e+06
3.49716e+06
3.49728e+06
3.49739e+06
3.4975e+06
3.4976e+06
3.49769e+06
3.49778e+06
3.49787e+06
3.49794e+06
3.49802e+06
3.49809e+06
3.49815e+06
3.49821e+06
3.49826e+06
3.49831e+06
3.49836e+06
3.4984e+06
3.49844e+06
3.49847e+06
3.4985e+06
3.49852e+06
3.49854e+06
3.49856e+06
3.49857e+06
3.49857e+06
3.49257e+06
3.49301e+06
3.49327e+06
3.49354e+06
3.49383e+06
3.49409e+06
3.49436e+06
3.49462e+06
3.49487e+06
3.49511e+06
3.49534e+06
3.49556e+06
3.49577e+06
3.49597e+06
3.49616e+06
3.49633e+06
3.4965e+06
3.49666e+06
3.49681e+06
3.49695e+06
3.49709e+06
3.49722e+06
3.49734e+06
3.49745e+06
3.49755e+06
3.49765e+06
3.49775e+06
3.49783e+06
3.49792e+06
3.49799e+06
3.49806e+06
3.49813e+06
3.49819e+06
3.49824e+06
3.4983e+06
3.49834e+06
3.49839e+06
3.49842e+06
3.49846e+06
3.49849e+06
3.49851e+06
3.49853e+06
3.49855e+06
3.49856e+06
3.49856e+06
3.49233e+06
3.49274e+06
3.49289e+06
3.49316e+06
3.49348e+06
3.49375e+06
3.49405e+06
3.49434e+06
3.49461e+06
3.49488e+06
3.49513e+06
3.49537e+06
3.49559e+06
3.49581e+06
3.49601e+06
3.4962e+06
3.49638e+06
3.49655e+06
3.49672e+06
3.49687e+06
3.49701e+06
3.49715e+06
3.49728e+06
3.49739e+06
3.49751e+06
3.49761e+06
3.49771e+06
3.4978e+06
3.49789e+06
3.49796e+06
3.49804e+06
3.49811e+06
3.49817e+06
3.49823e+06
3.49828e+06
3.49833e+06
3.49837e+06
3.49841e+06
3.49845e+06
3.49848e+06
3.4985e+06
3.49852e+06
3.49854e+06
3.49855e+06
3.49855e+06
3.49155e+06
3.49208e+06
3.49228e+06
3.49268e+06
3.49306e+06
3.49336e+06
3.4937e+06
3.49402e+06
3.49433e+06
3.49462e+06
3.49489e+06
3.49516e+06
3.4954e+06
3.49563e+06
3.49586e+06
3.49606e+06
3.49626e+06
3.49644e+06
3.49662e+06
3.49678e+06
3.49693e+06
3.49708e+06
3.49721e+06
3.49734e+06
3.49746e+06
3.49757e+06
3.49767e+06
3.49777e+06
3.49786e+06
3.49794e+06
3.49801e+06
3.49809e+06
3.49815e+06
3.49821e+06
3.49827e+06
3.49831e+06
3.49836e+06
3.4984e+06
3.49843e+06
3.49847e+06
3.49849e+06
3.49851e+06
3.49853e+06
3.49854e+06
3.49854e+06
3.49108e+06
3.49164e+06
3.49175e+06
3.4922e+06
3.49262e+06
3.49295e+06
3.49333e+06
3.49368e+06
3.49402e+06
3.49434e+06
3.49464e+06
3.49493e+06
3.4952e+06
3.49545e+06
3.49569e+06
3.49592e+06
3.49613e+06
3.49633e+06
3.49651e+06
3.49669e+06
3.49685e+06
3.49701e+06
3.49715e+06
3.49728e+06
3.49741e+06
3.49753e+06
3.49763e+06
3.49773e+06
3.49783e+06
3.49791e+06
3.49799e+06
3.49806e+06
3.49813e+06
3.49819e+06
3.49825e+06
3.4983e+06
3.49835e+06
3.49839e+06
3.49842e+06
3.49846e+06
3.49848e+06
3.4985e+06
3.49852e+06
3.49853e+06
3.49853e+06
3.49022e+06