/*--------------------------------*- C++ -*----------------------------------*\
| =========                 |                                                 |
| \\      /  F ield         | OpenFOAM: The Open Source CFD Toolbox           |
|  \\    /   O peration     | Version:  v2012                                 |
|   \\  /    A nd           | Website:  www.openfoam.com                      |
|    \\/     M anipulation  |                                                 |
\*---------------------------------------------------------------------------*/
FoamFile
{
    version     2.0;
    format      ascii;
    class       surfaceScalarField;
    location    "0.35";
    object      phi;
}
// * * * * * * * * * * * * * * * * * * * * * * * * * * * * * * * * * * * * * //

dimensions      [0 3 -1 0 0 0 0];
oriented        oriented;


internalField   nonuniform List<scalar> 
8135
(
2.49973e-11
-2.37471e-09
-1.2794e-16
2.64754e-11
-2.5465e-09
-1.15417e-16
2.78278e-11
-2.71995e-09
-9.89301e-17
2.90109e-11
-2.89477e-09
-9.14342e-17
2.99781e-11
-3.06767e-09
-7.70709e-17
3.06816e-11
-3.23593e-09
-6.70749e-17
3.10733e-11
-3.39858e-09
-4.65138e-17
3.1108e-11
-3.54897e-09
-3.09579e-17
3.07438e-11
-3.68486e-09
-4.38622e-17
2.99471e-11
-3.7997e-09
-6.22236e-17
2.86954e-11
-3.88779e-09
-6.70297e-17
2.69794e-11
-3.94275e-09
-7.40156e-17
2.48104e-11
-3.95397e-09
-6.93426e-17
2.2221e-11
-3.91202e-09
-7.18866e-17
1.92663e-11
-3.80469e-09
-6.6277e-17
1.60196e-11
-3.61633e-09
-6.64801e-17
1.2559e-11
-3.32948e-09
-5.95501e-17
8.96338e-12
-2.92549e-09
-5.67006e-17
5.37947e-12
-2.3817e-09
-4.68317e-17
2.11277e-12
-1.66707e-09
-3.75998e-17
-7.10902e-10
-1.97508e-17
2.51797e-11
-2.37629e-09
-2.20466e-16
2.66649e-11
-2.54799e-09
-1.96416e-16
2.80229e-11
-2.72131e-09
-1.71736e-16
2.92095e-11
-2.89596e-09
-1.47844e-16
3.01781e-11
-3.06864e-09
-1.27498e-16
3.08803e-11
-3.23663e-09
-9.68351e-17
3.12679e-11
-3.39896e-09
-6.44251e-17
3.12954e-11
-3.54899e-09
-3.65715e-17
3.09208e-11
-3.68448e-09
-4.56526e-17
3.01102e-11
-3.79889e-09
-7.59191e-17
2.88412e-11
-3.88651e-09
-9.38482e-17
2.71048e-11
-3.94101e-09
-1.00432e-16
2.49125e-11
-3.95177e-09
-1.02972e-16
2.22973e-11
-3.9094e-09
-1.01385e-16
1.93156e-11
-3.8017e-09
-9.6795e-17
1.6042e-11
-3.61304e-09
-8.89803e-17
1.25558e-11
-3.32599e-09
-7.90512e-17
8.93456e-12
-2.92186e-09
-6.4017e-17
5.31929e-12
-2.37808e-09
-4.11802e-17
2.00359e-12
-1.66374e-09
-2.26415e-18
-7.08897e-10
4.59559e-17
2.54901e-11
-2.37788e-09
-2.20611e-16
2.69927e-11
-2.54949e-09
-2.04972e-16
2.8365e-11
-2.72269e-09
-1.70784e-16
2.95622e-11
-2.89716e-09
-1.4037e-16
3.05367e-11
-3.06961e-09
-1.11183e-16
3.12398e-11
-3.23733e-09
-7.04788e-17
3.16224e-11
-3.39935e-09
-2.73272e-17
3.16386e-11
-3.54901e-09
8.02104e-18
3.12459e-11
-3.68409e-09
-3.98978e-18
3.04104e-11
-3.79806e-09
-4.08431e-17
2.91093e-11
-3.88522e-09
-7.03858e-17
2.73341e-11
-3.93923e-09
-9.22654e-17
2.50966e-11
-3.94954e-09
-1.02686e-16
2.2431e-11
-3.90674e-09
-1.09943e-16
1.9395e-11
-3.79867e-09
-1.03189e-16
1.6066e-11
-3.60972e-09
-9.67162e-17
1.25274e-11
-3.32245e-09
-7.92818e-17
8.86202e-12
-2.91819e-09
-5.75051e-17
5.21339e-12
-2.37443e-09
-1.35082e-17
1.91062e-12
-1.66043e-09
5.72473e-17
-7.06978e-10
1.35438e-16
2.59353e-11
-2.3795e-09
-1.99007e-16
2.74632e-11
-2.55103e-09
-1.80857e-16
2.88565e-11
-2.72408e-09
-1.36907e-16
3.00692e-11
-2.89837e-09
-9.39652e-17
3.10527e-11
-3.0706e-09
-5.96151e-17
3.17572e-11
-3.23804e-09
-5.19269e-18
3.21329e-11
-3.39973e-09
3.97835e-17
3.21327e-11
-3.54901e-09
6.76339e-17
3.17139e-11
-3.68367e-09
7.55076e-17
3.08421e-11
-3.79719e-09
5.2476e-17
2.94946e-11
-3.88387e-09
2.17898e-17
2.76629e-11
-3.93741e-09
-3.10278e-19
2.53601e-11
-3.94724e-09
-1.75778e-17
2.26214e-11
-3.90401e-09
-2.58938e-17
1.95069e-11
-3.79556e-09
-2.28689e-17
1.60977e-11
-3.60632e-09
-1.42562e-17
1.24841e-11
-3.31885e-09
2.98827e-18
8.7599e-12
-2.91448e-09
3.12963e-17
5.08107e-12
-2.37076e-09
8.20447e-17
1.81702e-12
-1.65718e-09
1.67693e-16
-7.05172e-10
2.52659e-16
2.6519e-11
-2.38116e-09
-2.27093e-16
2.80801e-11
-2.55259e-09
-1.94741e-16
2.95011e-11
-2.7255e-09
-1.29237e-16
3.07344e-11
-2.89961e-09
-7.29911e-17
3.17301e-11
-3.0716e-09
-2.39362e-17
3.24372e-11
-3.23874e-09
4.16914e-17
3.28043e-11
-3.40009e-09
9.44995e-17
3.27836e-11
-3.54899e-09
1.29475e-16
3.23317e-11
-3.68322e-09
1.60185e-16
3.14136e-11
-3.79627e-09
1.52579e-16
3.00066e-11
-3.88246e-09
1.2437e-16
2.8103e-11
-3.9355e-09
9.50029e-17
2.57167e-11
-3.94485e-09
7.64829e-17
2.2885e-11
-3.90117e-09
6.16669e-17
1.96709e-11
-3.79235e-09
6.76004e-17
1.61604e-11
-3.6028e-09
7.33907e-17
1.24533e-11
-3.31514e-09
9.53453e-17
8.65805e-12
-2.91068e-09
1.22682e-16
4.94971e-12
-2.36705e-09
1.76683e-16
1.73202e-12
-1.65396e-09
2.58283e-16
-7.03433e-10
3.27824e-16
2.72413e-11
-2.38287e-09
-3.02933e-16
2.88433e-11
-2.55419e-09
-2.47771e-16
3.02983e-11
-2.72696e-09
-1.63655e-16
3.15571e-11
-2.90087e-09
-8.79687e-17
3.25679e-11
-3.07261e-09
-2.77259e-17
3.32781e-11
-3.23945e-09
5.63288e-17
3.3635e-11
-3.40045e-09
1.17306e-16
3.35895e-11
-3.54894e-09
1.5877e-16
3.30973e-11
-3.68272e-09
2.27215e-16
3.2123e-11
-3.79529e-09
2.36778e-16
3.0644e-11
-3.88098e-09
2.12072e-16
2.86531e-11
-3.93351e-09
1.877e-16
2.6166e-11
-3.94236e-09
1.66362e-16
2.32222e-11
-3.89823e-09
1.53528e-16
1.98886e-11
-3.78901e-09
1.57905e-16
1.62575e-11
-3.59917e-09
1.66788e-16
1.24396e-11
-3.31132e-09
1.8782e-16
8.56164e-12
-2.9068e-09
2.15948e-16
4.82129e-12
-2.3633e-09
2.60897e-16
1.64901e-12
-1.65078e-09
3.27088e-16
-7.01777e-10
3.74242e-16
2.81046e-11
-2.38463e-09
-3.8194e-16
2.97549e-11
-2.55585e-09
-3.13362e-16
3.125e-11
-2.72846e-09
-2.10137e-16
3.25387e-11
-2.90216e-09
-1.23305e-16
3.35674e-11
-3.07364e-09
-4.91892e-17
3.42814e-11
-3.24017e-09
4.52125e-17
3.46264e-11
-3.40079e-09
1.19553e-16
3.45519e-11
-3.54887e-09
1.8101e-16
3.40126e-11
-3.68218e-09
2.64745e-16
3.29725e-11
-3.79425e-09
2.76343e-16
3.14091e-11
-3.87941e-09
2.50983e-16
2.93164e-11
-3.93141e-09
2.20455e-16
2.67117e-11
-3.93976e-09
1.99772e-16
2.36377e-11
-3.89515e-09
1.81825e-16
2.01659e-11
-3.78554e-09
1.90409e-16
1.63961e-11
-3.5954e-09
1.97564e-16
1.24517e-11
-3.30737e-09
2.23813e-16
8.47947e-12
-2.90282e-09
2.47864e-16
4.70211e-12
-2.35952e-09
2.85612e-16
1.57075e-12
-1.64764e-09
3.28594e-16
-7.00201e-10
3.51025e-16
2.91117e-11
-2.38646e-09
-4.40229e-16
3.08174e-11
-2.55756e-09
-3.60281e-16
3.23586e-11
-2.73e-09
-2.4766e-16
3.36817e-11
-2.90348e-09
-1.489e-16
3.47308e-11
-3.07469e-09
-7.06654e-17
3.54493e-11
-3.24089e-09
3.57522e-17
3.57807e-11
-3.40112e-09
1.16388e-16
3.5673e-11
-3.54876e-09
1.85516e-16
3.50798e-11
-3.68158e-09
2.82764e-16
3.39646e-11
-3.79313e-09
2.9518e-16
3.23049e-11
-3.87775e-09
2.67904e-16
3.00961e-11
-3.9292e-09
2.41478e-16
2.73578e-11
-3.93701e-09
2.16988e-16
2.41362e-11
-3.89193e-09
2.00103e-16
2.05084e-11
-3.78191e-09
2.05667e-16
1.65828e-11
-3.59147e-09
2.15122e-16
1.24968e-11
-3.30328e-09
2.39325e-16
8.4189e-12
-2.89874e-09
2.61719e-16
4.59748e-12
-2.35569e-09
2.8467e-16
1.4998e-12
-1.64454e-09
3.05461e-16
-6.98696e-10
3.10004e-16
3.0266e-11
-2.38836e-09
-4.67247e-16
3.20342e-11
-2.55933e-09
-3.84774e-16
3.36272e-11
-2.7316e-09
-2.60919e-16
3.4989e-11
-2.90485e-09
-1.58955e-16
3.60611e-11
-3.07576e-09
-7.39557e-17
3.67846e-11
-3.24161e-09
3.42118e-17
3.71007e-11
-3.40144e-09
1.22294e-16
3.69557e-11
-3.54861e-09
2.03805e-16
3.63019e-11
-3.68093e-09
2.93802e-16
3.51022e-11
-3.79192e-09
2.99342e-16
3.33347e-11
-3.87598e-09
2.68578e-16
3.09959e-11
-3.92686e-09
2.3353e-16
2.81083e-11
-3.93412e-09
2.06937e-16
2.47223e-11
-3.88854e-09
1.81288e-16
2.09212e-11
-3.7781e-09
1.87354e-16
1.68234e-11
-3.58737e-09
1.9161e-16
1.25813e-11
-3.29903e-09
2.18187e-16
8.38597e-12
-2.89454e-09
2.33497e-16
4.51157e-12
-2.35181e-09
2.46991e-16
1.43822e-12
-1.64146e-09
2.4565e-16
-6.97255e-10
2.36156e-16
3.15714e-11
-2.39033e-09
-4.72302e-16
3.3409e-11
-2.56117e-09
-3.84891e-16
3.50595e-11
-2.73325e-09
-2.57407e-16
3.64641e-11
-2.90625e-09
-1.48448e-16
3.75617e-11
-3.07686e-09
-6.46414e-17
3.82905e-11
-3.24234e-09
4.94516e-17
3.85895e-11
-3.40174e-09
1.37504e-16
3.84031e-11
-3.54842e-09
2.18505e-16
3.7682e-11
-3.6802e-09
3.07298e-16
3.63888e-11
-3.79063e-09
3.15179e-16
3.4502e-11
-3.87409e-09
2.8446e-16
3.20196e-11
-3.92437e-09
2.53944e-16
2.89673e-11
-3.93107e-09
2.21709e-16
2.54003e-11
-3.88497e-09
1.94466e-16
2.14092e-11
-3.77411e-09
1.93397e-16
1.71231e-11
-3.58308e-09
1.96099e-16
1.27105e-11
-3.29462e-09
2.16608e-16
8.38534e-12
-2.89021e-09
2.27383e-16
4.44735e-12
-2.34787e-09
2.25785e-16
1.3871e-12
-1.6384e-09
2.07919e-16
-6.95865e-10
1.90728e-16
3.30324e-11
-2.39239e-09
-4.55955e-16
3.49461e-11
-2.56309e-09
-3.71666e-16
3.66597e-11
-2.73497e-09
-2.37004e-16
3.81112e-11
-2.90771e-09
-1.28922e-16
3.92365e-11
-3.07798e-09
-4.09448e-17
3.99709e-11
-3.24307e-09
7.07195e-17
4.0251e-11
-3.40202e-09
1.62919e-16
4.00189e-11
-3.54819e-09
2.5116e-16
3.9224e-11
-3.6794e-09
3.28229e-16
3.78282e-11
-3.78923e-09
3.36907e-16
3.58107e-11
-3.87207e-09
3.08743e-16
3.31712e-11
-3.92173e-09
2.71736e-16
2.99389e-11
-3.92783e-09
2.38024e-16
2.61746e-11
-3.8812e-09
2.00849e-16
2.1977e-11
-3.76991e-09
1.98167e-16
1.74865e-11
-3.57859e-09
1.92764e-16
1.28888e-11
-3.29002e-09
2.13016e-16
8.42065e-12
-2.88574e-09
2.14993e-16
4.40687e-12
-2.34385e-09
2.06107e-16
1.34696e-12
-1.63533e-09
1.73476e-16
-6.94516e-10
1.48847e-16
3.46537e-11
-2.39455e-09
-4.26998e-16
3.66503e-11
-2.56509e-09
-3.43229e-16
3.84324e-11
-2.73675e-09
-2.10144e-16
3.99348e-11
-2.90921e-09
-9.83132e-17
4.10899e-11
-3.07914e-09
-1.41664e-17
4.18302e-11
-3.24381e-09
1.01443e-16
4.20893e-11
-3.40227e-09
1.91887e-16
4.18073e-11
-3.5479e-09
2.78151e-16
4.09318e-11
-3.67852e-09
3.5395e-16
3.94243e-11
-3.78772e-09
3.74973e-16
3.72647e-11
-3.86991e-09
3.5406e-16
3.44546e-11
-3.91892e-09
3.26404e-16
3.10273e-11
-3.9244e-09
2.89627e-16
2.70495e-11
-3.87722e-09
2.52687e-16
2.26286e-11
-3.76548e-09
2.42648e-16
1.79176e-11
-3.57387e-09
2.35076e-16
1.31197e-11
-3.28521e-09
2.47897e-16
8.49468e-12
-2.88111e-09
2.45512e-16
4.39152e-12
-2.33975e-09
2.25005e-16
1.31789e-12
-1.63226e-09
1.83824e-16
-6.93195e-10
1.55571e-16
3.64405e-11
-2.3968e-09
-3.81546e-16
3.85267e-11
-2.56718e-09
-3.07696e-16
4.03828e-11
-2.73861e-09
-1.72323e-16
4.19399e-11
-2.91077e-09
-6.56844e-17
4.31269e-11
-3.08033e-09
2.07059e-17
4.38732e-11
-3.24456e-09
1.31468e-16
4.41092e-11
-3.40251e-09
2.25976e-16
4.37728e-11
-3.54756e-09
3.19316e-16
4.28098e-11
-3.67756e-09
3.84452e-16
4.11815e-11
-3.78608e-09
4.12908e-16
3.88682e-11
-3.86759e-09
4.00873e-16
3.58741e-11
-3.91592e-09
3.70761e-16
3.22366e-11
-3.92076e-09
3.3645e-16
2.80289e-11
-3.87301e-09
2.92308e-16
2.3368e-11
-3.76082e-09
2.82624e-16
1.84201e-11
-3.56892e-09
2.67798e-16
1.34063e-11
-3.28019e-09
2.81353e-16
8.60953e-12
-2.87631e-09
2.72056e-16
4.40213e-12
-2.33554e-09
2.49551e-16
1.29977e-12
-1.62915e-09
2.01186e-16
-6.91892e-10
1.67376e-16
3.83985e-11
-2.39917e-09
-3.27731e-16
4.0581e-11
-2.56936e-09
-2.59794e-16
4.25163e-11
-2.74054e-09
-1.3137e-16
4.41318e-11
-2.91238e-09
-2.41257e-17
4.53527e-11
-3.08155e-09
5.56328e-17
4.61048e-11
-3.24531e-09
1.68738e-16
4.63154e-11
-3.40272e-09
2.6049e-16
4.592e-11
-3.54716e-09
3.52087e-16
4.48627e-11
-3.6765e-09
4.15789e-16
4.31041e-11
-3.78432e-09
4.60103e-16
4.06256e-11
-3.8651e-09
4.58451e-16
3.74338e-11
-3.91272e-09
4.41246e-16
3.35707e-11
-3.91689e-09
4.06863e-16
2.91167e-11
-3.86855e-09
3.6638e-16
2.41987e-11
-3.75589e-09
3.51177e-16
1.8997e-11
-3.56371e-09
3.35966e-16
1.37511e-11
-3.27494e-09
3.43269e-16
8.76675e-12
-2.87132e-09
3.32494e-16
4.4392e-12
-2.3312e-09
3.03538e-16
1.29236e-12
-1.626e-09
2.53486e-16
-6.90595e-10
2.17578e-16
4.05336e-11
-2.40165e-09
-2.61606e-16
4.2819e-11
-2.57165e-09
-2.08047e-16
4.48388e-11
-2.74257e-09
-8.03217e-17
4.65163e-11
-2.91406e-09
1.8647e-17
4.77729e-11
-3.0828e-09
9.92901e-17
4.85305e-11
-3.24606e-09
2.05055e-16
4.87133e-11
-3.4029e-09
3.00253e-16
4.82541e-11
-3.5467e-09
3.98043e-16
4.70951e-11
-3.67533e-09
4.50654e-16
4.51968e-11
-3.78242e-09
5.01395e-16
4.25413e-11
-3.86244e-09
5.09268e-16
3.9138e-11
-3.90931e-09
4.90203e-16
3.50337e-11
-3.91278e-09
4.60416e-16
3.03166e-11
-3.86383e-09
4.14483e-16
2.51242e-11
-3.7507e-09
4.01336e-16
1.96512e-11
-3.55823e-09
3.79856e-16
1.41561e-11
-3.26944e-09
3.89544e-16
8.96748e-12
-2.86613e-09
3.746e-16
4.50292e-12
-2.32673e-09
3.48913e-16
1.29539e-12
-1.62279e-09
2.97005e-16
-6.89295e-10
2.5676e-16
4.28523e-11
-2.40426e-09
-1.93265e-16
4.52472e-11
-2.57405e-09
-1.4642e-16
4.73566e-11
-2.74468e-09
-2.77485e-17
4.90996e-11
-2.9158e-09
7.1216e-17
5.03935e-11
-3.0841e-09
1.43659e-16
5.11561e-11
-3.24682e-09
2.50642e-16
5.13083e-11
-3.40305e-09
3.41076e-16
5.07803e-11
-3.54617e-09
4.36146e-16
4.95122e-11
-3.67406e-09
4.86724e-16
4.74643e-11
-3.78036e-09
5.50753e-16
4.46198e-11
-3.85959e-09
5.66571e-16
4.09907e-11
-3.90568e-09
5.5999e-16
3.66295e-11
-3.90841e-09
5.30053e-16
3.16321e-11
-3.85882e-09
4.88847e-16
2.61474e-11
-3.7452e-09
4.70056e-16
2.03851e-11
-3.55246e-09
4.4856e-16
1.46231e-11
-3.26367e-09
4.52159e-16
9.21252e-12
-2.86071e-09
4.37929e-16
4.59331e-12
-2.3221e-09
4.09414e-16
1.3085e-12
-1.61949e-09
3.59709e-16
-6.8798e-10
3.18362e-16
4.53613e-11
-2.407e-09
-1.17238e-16
4.78723e-11
-2.57656e-09
-8.43655e-17
5.00764e-11
-2.74688e-09
3.44259e-17
5.18883e-11
-2.91761e-09
1.24737e-16
5.32207e-11
-3.08543e-09
1.98495e-16
5.39877e-11
-3.24759e-09
2.96373e-16
5.41063e-11
-3.40316e-09
3.89055e-16
5.3504e-11
-3.54556e-09
4.88403e-16
5.21192e-11
-3.67267e-09
5.28869e-16
4.99115e-11
-3.77815e-09
5.94746e-16
4.68655e-11
-3.85654e-09
6.16889e-16
4.29962e-11
-3.9018e-09
6.05731e-16
3.83618e-11
-3.90377e-09
5.79736e-16
3.30666e-11
-3.85352e-09
5.32131e-16
2.72712e-11
-3.7394e-09
5.14631e-16
2.1201e-11
-3.54639e-09
4.85565e-16
1.51534e-11
-3.25762e-09
4.91304e-16
9.50241e-12
-2.85505e-09
4.73844e-16
4.7102e-12
-2.3173e-09
4.51455e-16
1.33136e-12
-1.61611e-09
4.01858e-16
-6.86641e-10
3.56953e-16
4.80679e-11
-2.40988e-09
-4.33216e-17
5.07015e-11
-2.57919e-09
-1.39789e-17
5.30053e-11
-2.74918e-09
9.66787e-17
5.48892e-11
-2.9195e-09
1.88853e-16
5.62614e-11
-3.0868e-09
2.54306e-16
5.70316e-11
-3.24835e-09
3.53279e-16
5.71133e-11
-3.40324e-09
4.3882e-16
5.64311e-11
-3.54487e-09
5.34174e-16
5.49213e-11
-3.67115e-09
5.74213e-16
5.25433e-11
-3.77576e-09
6.49334e-16
4.9283e-11
-3.85327e-09
6.74628e-16
4.51586e-11
-3.89767e-09
6.7348e-16
4.02344e-11
-3.89884e-09
6.45237e-16
3.46234e-11
-3.8479e-09
6.01458e-16
2.84984e-11
-3.73327e-09
5.76122e-16
2.21009e-11
-3.53998e-09
5.45514e-16
1.57482e-11
-3.25126e-09
5.43472e-16
9.83753e-12
-2.84913e-09
5.27098e-16
4.85338e-12
-2.31231e-09
5.02995e-16
1.36363e-12
-1.61261e-09
4.56442e-16
-6.8527e-10
4.1048e-16
5.09798e-11
-2.4129e-09
3.66512e-17
5.37424e-11
-2.58196e-09
5.49227e-17
5.61507e-11
-2.75159e-09
1.68793e-16
5.81095e-11
-2.92145e-09
2.53475e-16
5.95224e-11
-3.08821e-09
3.2182e-16
6.02947e-11
-3.24912e-09
4.10567e-16
6.03358e-11
-3.40328e-09
4.97165e-16
5.95674e-11
-3.5441e-09
5.94733e-16
5.79241e-11
-3.6695e-09
6.27812e-16
5.53649e-11
-3.7732e-09
6.99912e-16
5.18769e-11
-3.84977e-09
7.27575e-16
4.74821e-11
-3.89326e-09
7.18291e-16
4.22509e-11
-3.8936e-09
6.9259e-16
3.63055e-11
-3.84195e-09
6.40414e-16
2.98314e-11
-3.72679e-09
6.14482e-16
2.30865e-11
-3.53323e-09
5.73748e-16
1.64087e-11
-3.24457e-09
5.7233e-16
1.02182e-11
-2.84293e-09
5.52193e-16
5.02257e-12
-2.3071e-09
5.3508e-16
1.40499e-12
-1.60898e-09
4.88216e-16
-6.83857e-10
4.38657e-16
5.41049e-11
-2.41609e-09
1.13052e-16
5.7003e-11
-2.58485e-09
1.3264e-16
5.95205e-11
-2.7541e-09
2.40437e-16
6.1557e-11
-2.92349e-09
3.29741e-16
6.30112e-11
-3.08966e-09
3.90035e-16
6.37837e-11
-3.24989e-09
4.80222e-16
6.37801e-11
-3.40327e-09
5.57193e-16
6.29191e-11
-3.54323e-09
6.49632e-16
6.11332e-11
-3.66771e-09
6.85069e-16
5.83813e-11
-3.77044e-09
7.62671e-16
5.46519e-11
-3.84603e-09
7.88563e-16
4.99708e-11
-3.88857e-09
7.86809e-16
4.44149e-11
-3.88803e-09
7.56681e-16
3.81161e-11
-3.83564e-09
7.07334e-16
3.12727e-11
-3.71993e-09
6.71123e-16
2.41596e-11
-3.5261e-09
6.27132e-16
1.71355e-11
-3.23753e-09
6.15831e-16
1.06444e-11
-2.83643e-09
5.96552e-16
5.21751e-12
-2.30167e-09
5.77635e-16
1.45511e-12
-1.60521e-09
5.33269e-16
-6.82393e-10
4.81948e-16
5.74518e-11
-2.41944e-09
1.97394e-16
6.04916e-11
-2.58789e-09
2.09009e-16
6.31228e-11
-2.75673e-09
3.23399e-16
6.52395e-11
-2.9256e-09
4.06253e-16
6.67353e-11
-3.09115e-09
4.71e-16
6.75061e-11
-3.25065e-09
5.4976e-16
6.74532e-11
-3.40321e-09
6.26628e-16
6.64925e-11
-3.54226e-09
7.19022e-16
6.45545e-11
-3.66576e-09
7.50857e-16
6.15977e-11
-3.76747e-09
8.20816e-16
5.76127e-11
-3.84204e-09
8.45616e-16
5.26288e-11
-3.88358e-09
8.32586e-16
4.673e-11
-3.88212e-09
8.04179e-16
4.00578e-11
-3.82896e-09
7.44849e-16
3.28243e-11
-3.71269e-09
7.06615e-16
2.53216e-11
-3.51859e-09
6.50338e-16
1.79297e-11
-3.23013e-09
6.38429e-16
1.11165e-11
-2.8296e-09
6.14844e-16
5.4379e-12
-2.29598e-09
6.03418e-16
1.51375e-12
-1.60127e-09
5.57872e-16
-6.8087e-10
5.02674e-16
6.10292e-11
-2.42296e-09
2.80064e-16
6.42171e-11
-2.59108e-09
2.96711e-16
6.69662e-11
-2.75948e-09
4.0615e-16
6.91654e-11
-2.9278e-09
4.95774e-16
7.07027e-11
-3.09268e-09
5.52069e-16
7.14692e-11
-3.25141e-09
6.3242e-16
7.1362e-11
-3.40309e-09
6.96965e-16
7.02939e-11
-3.54118e-09
7.83008e-16
6.81937e-11
-3.66365e-09
8.18995e-16
6.50195e-11
-3.76429e-09
8.91023e-16
6.07638e-11
-3.83777e-09
9.09569e-16
5.54601e-11
-3.87826e-09
9.02114e-16
4.91994e-11
-3.87585e-09
8.6759e-16
4.21336e-11
-3.82188e-09
8.10732e-16
3.44885e-11
-3.70503e-09
7.60507e-16
2.65739e-11
-3.51067e-09
7.00214e-16
1.87918e-11
-3.22234e-09
6.77106e-16
1.16346e-11
-2.82244e-09
6.54759e-16
5.68352e-12
-2.29002e-09
6.4167e-16
1.58066e-12
-1.59716e-09
5.98425e-16
-6.79279e-10
5.40986e-16
6.48465e-11
-2.42665e-09
3.74664e-16
6.81884e-11
-2.59442e-09
3.84199e-16
7.10597e-11
-2.76234e-09
5.02252e-16
7.33431e-11
-2.93007e-09
5.85197e-16
7.49215e-11
-3.09425e-09
6.46762e-16
7.56807e-11
-3.25216e-09
7.13911e-16
7.55137e-11
-3.40292e-09
7.77143e-16
7.43301e-11
-3.53999e-09
8.60448e-16
7.20568e-11
-3.66137e-09
8.94687e-16
6.8652e-11
-3.76087e-09
9.54552e-16
6.411e-11
-3.83322e-09
9.69245e-16
5.84687e-11
-3.87261e-09
9.47819e-16
5.18266e-11
-3.8692e-09
9.14742e-16
4.43461e-11
-3.81439e-09
8.46847e-16
3.62671e-11
-3.69694e-09
7.93992e-16
2.79179e-11
-3.50231e-09
7.20205e-16
1.97225e-11
-3.21413e-09
6.96183e-16
1.21986e-11
-2.8149e-09
6.69714e-16
5.95413e-12
-2.28376e-09
6.65208e-16
1.65564e-12
-1.59285e-09
6.20749e-16
-6.77613e-10
5.59887e-16
6.89132e-11
-2.43054e-09
4.69656e-16
7.24152e-11
-2.59792e-09
4.85875e-16
7.54124e-11
-2.76534e-09
5.98306e-16
7.77817e-11
-2.93244e-09
6.88891e-16
7.94002e-11
-3.09586e-09
7.40534e-16
8.01487e-11
-3.2529e-09
8.08948e-16
7.99157e-11
-3.40268e-09
8.56946e-16
7.86077e-11
-3.53867e-09
9.32461e-16
7.61499e-11
-3.6589e-09
9.70479e-16
7.25004e-11
-3.75721e-09
1.02929e-15
6.76558e-11
-3.82836e-09
1.0338e-15
6.16585e-11
-3.8666e-09
1.01632e-15
5.46147e-11
-3.86214e-09
9.75577e-16
4.66978e-11
-3.80646e-09
9.10147e-16
3.81622e-11
-3.6884e-09
8.44223e-16
2.93548e-11
-3.49349e-09
7.66674e-16
2.07224e-11
-3.20549e-09
7.31078e-16
1.28087e-11
-2.80698e-09
7.0706e-16
6.24956e-12
-2.27719e-09
7.01687e-16
1.73852e-12
-1.58833e-09
6.60374e-16
-6.75864e-10
5.97734e-16
7.32395e-11
-2.43462e-09
5.80494e-16
7.69073e-11
-2.60158e-09
5.88161e-16
8.0034e-11
-2.76846e-09
7.09551e-16
8.24904e-11
-2.93489e-09
7.91676e-16
8.41475e-11
-3.09751e-09
8.48536e-16
8.48812e-11
-3.25363e-09
9.01302e-16
8.45753e-11
-3.40236e-09
9.46807e-16
8.31335e-11
-3.53722e-09
1.01645e-15
8.0479e-11
-3.65624e-09
1.05249e-15
7.65702e-11
-3.75329e-09
1.09491e-15
7.14059e-11
-3.82318e-09
1.09358e-15
6.50335e-11
-3.86022e-09
1.05962e-15
5.7567e-11
-3.85466e-09
1.02011e-15
4.91912e-11
-3.79807e-09
9.42681e-16
4.01754e-11
-3.67937e-09
8.74032e-16
3.08857e-11
-3.48419e-09
7.82528e-16
2.1792e-11
-3.19638e-09
7.46478e-16
1.34649e-11
-2.79864e-09
7.19104e-16
6.56964e-12
-2.27028e-09
7.23967e-16
1.82918e-12
-1.58357e-09
6.82401e-16
-6.74023e-10
6.17887e-16
7.78357e-11
-2.4389e-09
6.93362e-16
8.16749e-11
-2.60541e-09
7.07097e-16
8.49343e-11
-2.77171e-09
8.20259e-16
8.74784e-11
-2.93742e-09
9.09626e-16
8.91724e-11
-3.0992e-09
9.54113e-16
8.98865e-11
-3.25433e-09
1.00741e-15
8.95003e-11
-3.40197e-09
1.0347e-15
8.79143e-11
-3.53562e-09
1.09497e-15
8.50502e-11
-3.65336e-09
1.1321e-15
8.08666e-11
-3.74909e-09
1.17096e-15
7.53649e-11
-3.81767e-09
1.15619e-15
6.85973e-11
-3.85344e-09
1.12463e-15
6.06865e-11
-3.84674e-09
1.0756e-15
5.18286e-11
-3.7892e-09
1.00056e-15
4.23084e-11
-3.66984e-09
9.18081e-16
3.25115e-11
-3.47438e-09
8.23787e-16
2.29318e-11
-3.18679e-09
7.76442e-16
1.41675e-11
-2.78986e-09
7.53235e-16
6.91427e-12
-2.26301e-09
7.58351e-16
1.92748e-12
-1.57857e-09
7.21553e-16
-6.72084e-10
6.56632e-16
8.27128e-11
-2.4434e-09
8.24765e-16
8.67286e-11
-2.60942e-09
8.26265e-16
9.01236e-11
-2.77509e-09
9.473e-16
9.27556e-11
-2.94005e-09
1.02518e-15
9.44838e-11
-3.10092e-09
1.07427e-15
9.51731e-11
-3.25501e-09
1.10903e-15
9.46983e-11
-3.40148e-09
1.13286e-15
9.29571e-11
-3.53387e-09
1.18382e-15
8.98697e-11
-3.65026e-09
1.21685e-15
8.53949e-11
-3.7446e-09
1.23567e-15
7.9537e-11
-3.8118e-09
1.21388e-15
7.23537e-11
-3.84624e-09
1.16326e-15
6.3976e-11
-3.83834e-09
1.11494e-15
5.46123e-11
-3.77982e-09
1.02675e-15
4.45628e-11
-3.65977e-09
9.41757e-16
3.42334e-11
-3.46404e-09
8.33609e-16
2.41424e-11
-3.17669e-09
7.868e-16
1.49164e-11
-2.78062e-09
7.61228e-16
7.28333e-12
-2.25537e-09
7.78314e-16
2.03336e-12
-1.57331e-09
7.42703e-16
-6.70038e-10
6.78235e-16
8.78819e-11
-2.44811e-09
9.57345e-16
9.20793e-11
-2.61361e-09
9.63114e-16
9.56123e-11
-2.77862e-09
1.07215e-15
9.83319e-11
-2.94276e-09
1.15627e-15
1.00091e-10
-3.10266e-09
1.1901e-15
1.00749e-10
-3.25566e-09
1.22462e-15
1.00177e-10
-3.4009e-09
1.22741e-15
9.82688e-11
-3.53195e-09
1.26742e-15
9.49434e-11
-3.64692e-09
1.29691e-15
9.01603e-11
-3.73981e-09
1.31051e-15
8.39268e-11
-3.80555e-09
1.27258e-15
7.63061e-11
-3.8386e-09
1.22267e-15
6.74384e-11
-3.82946e-09
1.16244e-15
5.75442e-11
-3.76991e-09
1.07633e-15
4.694e-11
-3.64916e-09
9.77021e-16
3.60522e-11
-3.45314e-09
8.67696e-16
2.5424e-11
-3.16605e-09
8.10429e-16
1.57117e-11
-2.7709e-09
7.90933e-16
7.67676e-12
-2.24732e-09
8.09238e-16
2.14672e-12
-1.56777e-09
7.8016e-16
-6.67878e-10
7.17032e-16
9.33547e-11
-2.45304e-09
1.10902e-15
9.77383e-11
-2.61799e-09
1.098e-15
1.01411e-10
-2.78228e-09
1.21343e-15
1.04218e-10
-2.94555e-09
1.28271e-15
1.06004e-10
-3.10444e-09
1.32072e-15
1.06624e-10
-3.25626e-09
1.33387e-15
1.05944e-10
-3.40021e-09
1.3327e-15
1.03856e-10
-3.52984e-09
1.35983e-15
1.00277e-10
-3.64333e-09
1.38176e-15
9.51679e-11
-3.73468e-09
1.37234e-15
8.85384e-11
-3.7989e-09
1.32662e-15
8.0458e-11
-3.83051e-09
1.2547e-15
7.10763e-11
-3.82007e-09
1.19411e-15
6.06263e-11
-3.75945e-09
1.09349e-15
4.94413e-11
-3.63796e-09
9.92321e-16
3.79685e-11
-3.44165e-09
8.69926e-16
2.67771e-11
-3.15485e-09
8.14785e-16
1.65535e-11
-2.76066e-09
7.93983e-16
8.09447e-12
-2.23885e-09
8.25663e-16
2.26753e-12
-1.56192e-09
7.99051e-16
-6.65597e-10
7.38856e-16
9.91431e-11
-2.45821e-09
1.2585e-15
1.03717e-10
-2.62255e-09
1.24976e-15
1.07531e-10
-2.78608e-09
1.34939e-15
1.10423e-10
-2.94843e-09
1.42448e-15
1.12232e-10
-3.10623e-09
1.44482e-15
1.12806e-10
-3.25682e-09
1.45758e-15
1.12008e-10
-3.39939e-09
1.43293e-15
1.09727e-10
-3.52755e-09
1.44771e-15
1.05878e-10
-3.63946e-09
1.46041e-15
1.00423e-10
-3.72921e-09
1.4447e-15
9.33758e-11
-3.79184e-09
1.3801e-15
8.48126e-11
-3.82193e-09
1.30665e-15
7.4892e-11
-3.81013e-09
1.23107e-15
6.38604e-11
-3.7484e-09
1.1321e-15
5.20678e-11
-3.62615e-09
1.01665e-15
3.99832e-11
-3.42955e-09
8.9553e-16
2.82019e-11
-3.14305e-09
8.31516e-16
1.74418e-11
-2.74989e-09
8.18843e-16
8.53643e-12
-2.22993e-09
8.52263e-16
2.39572e-12
-1.55577e-09
8.33519e-16
-6.63187e-10
7.76122e-16
1.0526e-10
-2.46361e-09
1.42386e-15
1.10028e-10
-2.62731e-09
1.39457e-15
1.13984e-10
-2.79002e-09
1.50037e-15
1.16958e-10
-2.95139e-09
1.55848e-15
1.18784e-10
-3.10804e-09
1.5839e-15
1.19305e-10
-3.25733e-09
1.57327e-15
1.18376e-10
-3.39845e-09
1.54487e-15
1.15886e-10
-3.52504e-09
1.54331e-15
1.1175e-10
-3.63531e-09
1.54461e-15
1.05929e-10
-3.72337e-09
1.5031e-15
9.8443e-11
-3.78434e-09
1.42946e-15
8.93728e-11
-3.81284e-09
1.33021e-15
7.88878e-11
-3.79963e-09
1.25252e-15
6.72479e-11
-3.73675e-09
1.13764e-15
5.48205e-11
-3.61371e-09
1.02171e-15
4.20966e-11
-3.41682e-09
8.89298e-16
2.96986e-11
-3.13064e-09
8.29898e-16
1.83767e-11
-2.73855e-09
8.17131e-16
9.00256e-12
-2.22054e-09
8.64788e-16
2.53128e-12
-1.54928e-09
8.49151e-16
-6.60642e-10
7.96691e-16
1.11717e-10
-2.46925e-09
1.57843e-15
1.16682e-10
-2.63226e-09
1.55257e-15
1.20781e-10
-2.79411e-09
1.64112e-15
1.23835e-10
-2.95443e-09
1.70697e-15
1.25671e-10
-3.10986e-09
1.71409e-15
1.26127e-10
-3.25777e-09
1.7043e-15
1.25056e-10
-3.39736e-09
1.6507e-15
1.22342e-10
-3.52231e-09
1.63581e-15
1.17899e-10
-3.63085e-09
1.6224e-15
1.11692e-10
-3.71715e-09
1.57328e-15
1.03744e-10
-3.77637e-09
1.4769e-15
9.41413e-11
-3.80323e-09
1.37284e-15
8.30658e-11
-3.78854e-09
1.27636e-15
7.07903e-11
-3.72446e-09
1.16276e-15
5.77003e-11
-3.60061e-09
1.03342e-15
4.43093e-11
-3.40341e-09
9.05839e-16
3.12674e-11
-3.11759e-09
8.40202e-16
1.93581e-11
-2.72663e-09
8.3784e-16
9.49282e-12
-2.21066e-09
8.87199e-16
2.67417e-12
-1.54245e-09
8.7995e-16
-6.57953e-10
8.30956e-16
1.18528e-10
-2.47515e-09
1.74192e-15
1.23694e-10
-2.63741e-09
1.69612e-15
1.27934e-10
-2.79833e-09
1.7942e-15
1.31063e-10
-2.95754e-09
1.84382e-15
1.32902e-10
-3.11169e-09
1.85943e-15
1.33284e-10
-3.25813e-09
1.8259e-15
1.32056e-10
-3.39612e-09
1.76969e-15
1.29101e-10
-3.51933e-09
1.73557e-15
1.24332e-10
-3.62606e-09
1.70796e-15
1.17716e-10
-3.71052e-09
1.62936e-15
1.09281e-10
-3.76792e-09
1.52084e-15
9.91209e-11
-3.79305e-09
1.38589e-15
8.74275e-11
-3.77683e-09
1.28486e-15
7.44886e-11
-3.7115e-09
1.1542e-15
6.07076e-11
-3.58681e-09
1.02677e-15
4.66214e-11
-3.38932e-09
8.9092e-16
3.29083e-11
-3.10386e-09
8.33557e-16
2.03859e-11
-2.71409e-09
8.32557e-16
1.00071e-11
-2.20026e-09
8.96402e-16
2.82437e-12
-1.53525e-09
8.91945e-16
-6.55113e-10
8.48903e-16
1.25707e-10
-2.4813e-09
1.88396e-15
1.31074e-10
-2.64276e-09
1.84792e-15
1.35454e-10
-2.80269e-09
1.931e-15
1.38654e-10
-2.96072e-09
1.99388e-15
1.40488e-10
-3.1135e-09
1.9933e-15
1.40783e-10
-3.2584e-09
1.96396e-15
1.39383e-10
-3.3947e-09
1.88183e-15
1.36168e-10
-3.5161e-09
1.83432e-15
1.31053e-10
-3.62093e-09
1.78841e-15
1.24005e-10
-3.70345e-09
1.69931e-15
1.15058e-10
-3.75895e-09
1.56173e-15
1.04313e-10
-3.78229e-09
1.41731e-15
9.19745e-11
-3.76447e-09
1.29316e-15
7.83436e-11
-3.69786e-09
1.16374e-15
6.3843e-11
-3.5723e-09
1.02485e-15
4.9033e-11
-3.37449e-09
8.98516e-16
3.46211e-11
-3.08944e-09
8.38705e-16
2.14601e-11
-2.70092e-09
8.50592e-16
1.05454e-11
-2.18933e-09
9.15488e-16
2.98184e-12
-1.52767e-09
9.18885e-16
-6.52116e-10
8.78729e-16
1.33267e-10
-2.48771e-09
2.02711e-15
1.38837e-10
-2.64831e-09
1.97692e-15
1.43354e-10
-2.80719e-09
2.07703e-15
1.46619e-10
-2.96397e-09
2.1279e-15
1.48438e-10
-3.1153e-09
2.14233e-15
1.48633e-10
-3.25858e-09
2.09107e-15
1.47044e-10
-3.39309e-09
2.00872e-15
1.43551e-10
-3.51258e-09
1.94032e-15
1.38067e-10
-3.61543e-09
1.88008e-15
1.30563e-10
-3.69593e-09
1.75556e-15
1.21077e-10
-3.74945e-09
1.5997e-15
1.09721e-10
-3.77092e-09
1.4179e-15
9.67079e-11
-3.75144e-09
1.28634e-15
8.23559e-11
-3.68349e-09
1.13925e-15
6.71065e-11
-3.55704e-09
1.00578e-15
5.15441e-11
-3.35892e-09
8.75383e-16
3.64057e-11
-3.07429e-09
8.28609e-16
2.25803e-11
-2.68708e-09
8.43457e-16
1.11074e-11
-2.17784e-09
9.22401e-16
3.14657e-12
-1.51969e-09
9.27133e-16
-6.48953e-10
8.92624e-16
1.41223e-10
-2.49438e-09
2.13784e-15
1.46996e-10
-2.65407e-09
2.10956e-15
1.51647e-10
-2.81182e-09
2.20061e-15
1.54969e-10
-2.96727e-09
2.27364e-15
1.56762e-10
-3.11707e-09
2.27682e-15
1.56842e-10
-3.25864e-09
2.23547e-15
1.55048e-10
-3.39128e-09
2.12772e-15
1.51255e-10
-3.50877e-09
2.04753e-15
1.45378e-10
-3.60953e-09
1.96888e-15
1.37393e-10
-3.68792e-09
1.82822e-15
1.27342e-10
-3.73938e-09
1.63378e-15
1.15345e-10
-3.7589e-09
1.43668e-15
1.01628e-10
-3.73771e-09
1.27771e-15
8.65257e-11
-3.66838e-09
1.13243e-15
7.0498e-11
-3.541e-09
9.9043e-16
5.41543e-11
-3.34256e-09
8.75015e-16
3.82618e-11
-3.05838e-09
8.30373e-16
2.37463e-11
-2.67255e-09
8.6046e-16
1.16931e-11
-2.16577e-09
9.39105e-16
3.31849e-12
-1.5113e-09
9.50027e-16
-6.45619e-10
9.1651e-16
1.49588e-10
-2.50131e-09
2.24404e-15
1.55564e-10
-2.66003e-09
2.21234e-15
1.60344e-10
-2.81658e-09
2.33099e-15
1.63715e-10
-2.97062e-09
2.39869e-15
1.65469e-10
-3.1188e-09
2.4259e-15
1.6542e-10
-3.25856e-09
2.3666e-15
1.63399e-10
-3.38923e-09
2.26237e-15
1.59285e-10
-3.50463e-09
2.16162e-15
1.52992e-10
-3.60321e-09
2.0724e-15
1.44498e-10
-3.67941e-09
1.88746e-15
1.33853e-10
-3.72871e-09
1.66539e-15
1.21186e-10
-3.74622e-09
1.42374e-15
1.06737e-10
-3.72325e-09
1.25482e-15
9.0853e-11
-3.65248e-09
1.09207e-15
7.40172e-11
-3.52415e-09
9.59819e-16
5.68631e-11
-3.3254e-09
8.45113e-16
4.01888e-11
-3.0417e-09
8.18723e-16
2.49578e-11
-2.65731e-09
8.53064e-16
1.23023e-11
-2.1531e-09
9.4449e-16
3.49759e-12
-1.50248e-09
9.54138e-16
-6.42105e-10
9.24599e-16
1.58379e-10
-2.50852e-09
2.31059e-15
1.64555e-10
-2.66618e-09
2.31688e-15
1.69459e-10
-2.82146e-09
2.43378e-15
1.72868e-10
-2.974e-09
2.53395e-15
1.7457e-10
-3.12048e-09
2.55649e-15
1.74373e-10
-3.25834e-09
2.5146e-15
1.72107e-10
-3.38694e-09
2.38684e-15
1.67647e-10
-3.50015e-09
2.27805e-15
1.60911e-10
-3.59646e-09
2.1744e-15
1.51881e-10
-3.67036e-09
1.96507e-15
1.40613e-10
-3.71742e-09
1.69272e-15
1.27246e-10
-3.73284e-09
1.43001e-15
1.12032e-10
-3.70802e-09
1.23042e-15
9.53373e-11
-3.63577e-09
1.07079e-15
7.76633e-11
-3.50646e-09
9.3339e-16
5.96697e-11
-3.30739e-09
8.38907e-16
4.21859e-11
-3.0242e-09
8.19025e-16
2.62142e-11
-2.64132e-09
8.70146e-16
1.29346e-11
-2.13981e-09
9.59087e-16
3.68377e-12
-1.49321e-09
9.72229e-16
-6.38405e-10
9.4062e-16
1.67611e-10
-2.51599e-09
2.37243e-15
1.73984e-10
-2.67254e-09
2.38763e-15
1.79004e-10
-2.82646e-09
2.54263e-15
1.82439e-10
-2.97741e-09
2.64386e-15
1.84074e-10
-3.12209e-09
2.70012e-15