/*--------------------------------*- C++ -*----------------------------------*\
| =========                 |                                                 |
| \\      /  F ield         | OpenFOAM: The Open Source CFD Toolbox           |
|  \\    /   O peration     | Version:  v2006                                 |
|   \\  /    A nd           | Website:  www.openfoam.com                      |
|    \\/     M anipulation  |                                                 |
\*---------------------------------------------------------------------------*/
FoamFile
{
    version     2.0;
    format      ascii;
    class       volScalarField;
    location    "0.04";
    object      p;
}
// * * * * * * * * * * * * * * * * * * * * * * * * * * * * * * * * * * * * * //

dimensions      [1 -1 -2 0 0 0 0];


internalField   nonuniform List<scalar> 
14347
(
102319
111602
111028
2e+06
2e+06
110659
4626.93
112363
1.99999e+06
2.00001e+06
110099
110665
110857
2.00002e+06
110656
102869
2.00004e+06
2.00005e+06
1.99999e+06
110177
2.00014e+06
2.00013e+06
2e+06
110174
2.00003e+06
110171
110723
2.00013e+06
2.00014e+06
110596
110707
110703
2.00015e+06
110329
2.00015e+06
111746
2.00015e+06
2.00015e+06
2.00004e+06
67590
110699
110709
110614
2.00007e+06
110698
110493
2.00013e+06
110542
2.00014e+06
2.00014e+06
106997
107412
105028
110841
107953
110216
346006
2.00002e+06
2.00003e+06
2.00002e+06
111269
2.00003e+06
112818
2.00003e+06
2.00002e+06
105984
2.00013e+06
99222
110441
100685
1.99999e+06
2.00002e+06
2.0001e+06
115820
129416
2.00006e+06
114847
2.00009e+06
2.00005e+06
106827
126379
100367
310161
329283
2.00006e+06
357705
99732.7
2.00007e+06
99928.4
117717
117697
116998
109998
103946
116136
106972
112737
355859
101773
110398
118622
110566
125239
110467
110671
116134
110112
110187
2.00008e+06
107015
111548
110052
110951
110492
109890
110569
106298
122319
111205
110174
110030
2.00008e+06
113664
119414
124099
111312
144397
111198
2.00013e+06
2.00001e+06
100933
109039
117195
110240
101679
110820
112723
110620
108970
102462
118870
117621
134072
2.00006e+06
116276
105730
2.00007e+06
2.00011e+06
104667
110365
106988
105679
111611
112176
110469
107081
99554
96819.6
110464
108908
70474.1
1587.31
2.00011e+06
110503
110467
110271
2.00005e+06
81638.3
110030
110382
110547
111096
110435
2.00006e+06
110422
110314
110442
1.97547e+06
112113
111307
110532
110553
108570
110531
110471
450742
110494
110540
110285
111644
110534
2.00006e+06
113192
110534
110117
110570
113721
110437
108415
110442
110435
110432
110252
110653
110638
110680
110621
110237
110641
110245
113362
119179
110280
110510
110264
110230
110539
110218
113469
110206
110208
110665
110229
113126
110316
110447
2.00007e+06
110421
106616
110214
110491
110495
109987
2.00007e+06
110381
110433
110337
110359
109847
110536
110653
2.00001e+06
108869
108546
110560
110315
108810
111373
110233
110162
109877
2.00007e+06
109996
2.00015e+06
110000
110086
108638
78305
103389
110311
109183
102297
110223
110123
103251
105630
105352
102935
110184
110520
108340
92039.4
110042
107786
110090
2.00002e+06
107700
110236
94622.9
103070
108207
95244.7
107230
110317
2.00013e+06
109385
2.00006e+06
102927
120694
132633
120709
2.00007e+06
123744
103422
225661
110026
115023
104486
104506
1.99944e+06
2.00003e+06
110449
2e+06
2.0001e+06
124386
109855
2e+06
2e+06
307292
1.99993e+06
125856
2.00001e+06
110493
2.00007e+06
2.00012e+06
107572
2.00008e+06
2.00005e+06
2.00008e+06
110316
98202.6
1.99999e+06
2e+06
2e+06
2.00002e+06
110172
2.00008e+06
111981
2.00011e+06
2.00008e+06
2e+06
110557
2.00001e+06
2.00008e+06
110320
2.00003e+06
2.00003e+06
2.00005e+06
2.00003e+06
102160
2.00005e+06
2.00002e+06
113322
2.00001e+06
2.00002e+06
108634
2.00002e+06
312700
353437
355112
285082
118649
297511
111886
2.00014e+06
2.00012e+06
2.00002e+06
2.00014e+06
110205
1.99986e+06
2.00012e+06
2.00014e+06
1.99989e+06
110606
110267
2.00005e+06
86567.8
2.00006e+06
110547
1.99999e+06
110856
111869
110452
1.99988e+06
2.00005e+06
1.99973e+06
301644
1.99978e+06
110635
110590
2.00013e+06
110562
108742
110690
2.00013e+06
2.00013e+06
2.00011e+06
2.00013e+06
110681
2.00014e+06
1.99987e+06
2.00015e+06
2e+06
2.0001e+06
114392
110669
114305
316755
123172
110115
114855
108284
114442
106694
1.99989e+06
110374
109600
125594
110628
110870
110299
109975
114782
110136
109882
110451
125593
110544
342474
110473
111556
110234
110572
109827
110360
109618
110661
110610
122752
111883
110781
130845
110185
116455
119123
126351
141934
110466
110543
110357
110646
149975
2.00007e+06
2.00002e+06
104638
110683
2.00003e+06
98420.9
108639
109069
2.00008e+06
108179
110699
110557
110057
110331
110316
77801.3
110305
110877
110182
110484
110465
2e+06
110465
110307
110433
105429
110477
2e+06
110421
110471
110405
110427
108759
103001
110362
1.99333e+06
110523
110414
106336
109140
2.00014e+06
110556
115534
124704
110357
110429
110310
110268
110035
110545
110392
100912
110549
110575
110463
110589
110551
2.00015e+06
2.00005e+06
110497
110492
110544
110953
110553
110422
110485
110503
110468
110635
109295
110661
110656
110537
110544
110349
110262
110597
110267
110354
110210
928577
432568
273518
2.00004e+06
110401
2.00011e+06
2.00007e+06
110172
110413
2.00014e+06
110279
108873
103374
110703
110415
107048
105064
110142
110408
110434
110265
110311
2.00005e+06
110703
109637
352737
110693
110709
109730
109409
108608
1.99969e+06
110677
109594
109212
109658
2.00014e+06
110562
110475
107317
107295
106785
2.00005e+06
110292
120512
110409
98923.6
93853.6
104864
492440
110425
99751.6
110514
97426.3
113054
149970
344678
104753
105788
102934
103959
1.99994e+06
110897
109849
108719
2.00004e+06
99516
110786
103384
2.00005e+06
113043
113079
111180
2.00014e+06
110416
112191
2.00015e+06
2.00012e+06
110776
2.00003e+06
2.00002e+06
2.00014e+06
110516
110613
2.00003e+06
106372
2.00014e+06
110591
107512
1.99077e+06
110448
110111
2.00004e+06
126671
2.00008e+06
2.0001e+06
2.00007e+06
2.00006e+06
110576
122147
1.99999e+06
99354.9
116349
110267
300994
99458.3
2.00014e+06
1.99996e+06
1.99996e+06
1.99979e+06
1.99985e+06
2.00014e+06
111328
2.00014e+06
114322
110402
110200
110680
94598.1
110675
2.00014e+06
2.00014e+06
111301
2.00006e+06
2.00006e+06
110350
2.00006e+06
2.00006e+06
2.00006e+06
111852
111412
102652
112026
2.00014e+06
131524
112072
111649
2.00014e+06
111598
123473
112156
238823
110353
86378.3
113826
111479
111567
1.99964e+06
2.00008e+06
112920
1.6653e+06
111613
2.00001e+06
110726
110636
2.00009e+06
98198.3
99357.4
110692
2.00005e+06
109529
2.00004e+06
2.00004e+06
2.00004e+06
95791.8
110614
97249.1
98316.6
2.00009e+06
105553
107535
109883
89677.5
110328
110543
99482.1
110229
110999
110658
110319
2.00007e+06
101874
110469
110166
94055.3
112291
110542
110574
110549
87373.7
110503
88921.9
95824.8
110548
111159
1.99999e+06
110355
110547
108432
110658
124299
2.00015e+06
81855.8
110617
111370
110719
110622
110556
2.00007e+06
109756
110633
110370
109933
110380
110492
110510
110497
110340
110409
110328
110371
110665
110486
110680
110694
110647
110663
110426
110409
110560
110243
110488
110557
110524
110527
110723
110406
111037
110612
110391
110425
110490
110564
110489
110147
109973
110730
110550
110394
109954
110592
110692
2.00014e+06
110411
110699
110454
2174.08
111088
2.00014e+06
105531
109778
2e+06
110194
2.00008e+06
110225
2.00008e+06
110518
110163
110139
2.00008e+06
106895
110426
2.00013e+06
107178
110781
103668
110419
107017
2.00013e+06
108665
338377
110510
104299
110531
109394
108351
110842
110507
110023
106031
105569
2.00003e+06
90716.3
110443
101308
102873
2.00014e+06
110139
2.00009e+06
110406
110504
2.00008e+06
2.00001e+06
107760
110496
108828
2.00001e+06
90090.2
2e+06
109133
110544
110281
115565
2e+06
99499
108479
110337
110625
109582
2.00011e+06
94600.6
110548
91062.3
110387
110286
106481
110620
103819
2.00012e+06
90828.4
2.00015e+06
87511.3
89415.9
91763
113546
119459
113064
70182.8
114498
110903
125591
110309
116822
108178
113000
106169
104842
104455
112776
110627
113457
110476
88355.2
110644
102391
111262
109787
119252
114681
110697
110058
109996
110568
135816
110121
110019
109960
2.00005e+06
111317
106311
1.99999e+06
180931
102926
250587
111307
109972
108748
108943
110339
110685
111046
133204
142206
109048
110677
110147
110578
110118
2.00015e+06
110411
112269
110656
110925
110783
110728
100860
110995
110148
110956
102652
2.00001e+06
109105
113630
2e+06
116987
113382
109678
110021
2e+06
110212
112407
2.00001e+06
110663
2.00001e+06
2.00008e+06
110304
125316
2.00001e+06
2.00001e+06
2.00014e+06
102321
111820
97986
2.00002e+06
86166.7
97419.9
2.00015e+06
109056
2.00004e+06
108456
116214
108045
109875
110779
107980
2.00011e+06
108682
110229
110239
2.00011e+06
112298
110617
110589
110622
110561
110545
110551
2.00011e+06
110511
2.00011e+06
110344
110235
110256
110387
107589
110527
105930
93047
110335
110669
110668
110668
100958
105677
110665
154414
110415
110433
1.99999e+06
110461
107197
2.00003e+06
2.00002e+06
1.99996e+06
1.99974e+06
110145
112755
110192
90119.1
110227
93320.7
110610
110555
110708
110613
94809
110250
110168
111970
111957
1.99998e+06
110184
110719
110797
110564
110410
110574
91803.4
110632
99135.2
108228
110599
1.99999e+06
110581
108998
350777
110555
96376.7
110162
98647.6
99884.8
325303
110667
98543.8
102091
101212
110175
110460
106804
110499
77571.3
110591
78053.8
346330
78080.3
2.00012e+06
92851
335009
110504
110272
110512
2.00013e+06
2.00012e+06
110484
110583
2.0001e+06
110559
2.00003e+06
110585
110574
2.00004e+06
110544
81322.7
110565
2.00006e+06
110369
110575
110300
1.99828e+06
110447
111352
2.00011e+06
109659
108275
110290
111396
110548
113256
111049
110314
109945
108386
110377
110324
110307
110581
110631
110698
110615
110195
110502
110639
116238
108277
111703
110489
104293
107957
2.00012e+06
110885
110781
110197
107618
109234
110184
110888
110217
110163
117863
110386
110489
110509
110509
110617
110216
2.00008e+06
110208
105095
104907
110538
110066
110642
104747
107757
110709
2.00005e+06
110635
2.00009e+06
2.00006e+06
115142
110934
2.00007e+06
110591
110238
110243
109983
2e+06
113837
2.00001e+06
2.00006e+06
113637
2.00001e+06
112186
2.00003e+06
110391
116576
107965
110631
2.00005e+06
342051
110503
110439
107989
118689
285256
112283
110271
109916
96532
2.00011e+06
110273
110532
110659
110594
111300
110564
111624
110547
110644
105416
2.00015e+06
110551
110136
110963
110529
110568
110650
100402
111252
110524
110126
108755
110722
109751
119143
117233
110500
110304
110399
110126
2.00013e+06
118060
110672
110669
118818
110985
103650
119553
110325
110574
109360
2.00006e+06
2.00006e+06
2.00006e+06
110439
110340
110437
109192
122942
110162
110601
2.00006e+06
2.0001e+06
110061
110170
123466
110212
110176
105068
110163
110722
104013
110720
110760
110742
104333
2.00006e+06
110642
110396
105525
2.00003e+06
2e+06
2551.86
110361
321852
110630
2.00002e+06
104438
93079.8
91404.8
110638
110653
110362
110524
110675
110562
111282
2.00008e+06
110674
2.00005e+06
2.00006e+06
108957
110567
112488
2.00005e+06
2.00011e+06
105464
2.00011e+06
2.00014e+06
109293
2.00014e+06
2.00012e+06
2.00007e+06
111153
2.00014e+06
2.00008e+06
2.00008e+06
2.00008e+06
109273
2.00008e+06
110112
110443
2.0001e+06
2.0001e+06
103483
102455
111176
110497
109226
107552
110660
99430.1
112582
2.00012e+06
109721
110415
100797
110062
101484
91527.6
111318
111183
110428
110396
110213
109968
110662
109160
110162
110403
111301
110554
108576
110121
110533
110244
2.00003e+06
110396
2.00006e+06
110889
111038
110879
110930
110940
2.00006e+06
110416
110717
110349
110405
110546
110150
2.00004e+06
109888
111386
110550
103356
110137
2.00007e+06
111233
2.00005e+06
107584
109721
114619
111078
110167
104171
110139
86649.9
99151.6
110132
110297
110367
85147.4
109827
101518
110384
109989
110432
110584
110580
86992.6
92768.3
110167
110412
110281
110571
110402
107193
106744
110405
106874
110605
110620
110663
106333
2.00005e+06
2.00004e+06
110666
110497
110894
110672
110647
110642
106417
110560
110391
110283
110179
110232
110118
110435
112118
110437
110475
109104
109520
110520
110622
110257
109892
110709
110249
108970
316183
115312
118618
108726
118770
110031
116954
110011
106461
110419
1.99985e+06
2.00004e+06
1.88501e+06
117453
110201
110116
2.00008e+06
110088
118646
110279
111767
111629
111864
110483
111886
110685
110619
95247.7
109598
129077
110641
110560
111089
110242
110420
110404
116289
111170
111939
109994
111174
103616
102912
110303
110803
2.00004e+06
2.00005e+06
110308
110599
2.00007e+06
106727
111095
2.00003e+06
2e+06
110298
2.00003e+06
110285
111488
2.0001e+06
2.00011e+06
2.00007e+06
2.00014e+06
94528.1
2.00008e+06
110400
2.00006e+06
2.00005e+06
2.00008e+06
2.00009e+06
2.00005e+06
109728
109859
110291
2.00005e+06
2.00006e+06
2.00001e+06
2.00015e+06
2.00005e+06
2.00014e+06
110708
110786
2.00005e+06
110454
109973
110012
110045
102909
110430
110076
110215
110303
81874.8
110508
110260
2.00013e+06
110047
109372
110154
2.00014e+06
109965
111715
110378
109791
109895
104149
2.00014e+06
110532
2.00013e+06
2.00014e+06
2.00003e+06
100246
110027
110673
107105
110949
110582
110681
110402
110663
110683
110025
110647
103345
2.00007e+06
104504
110407
110511
2.00004e+06
110239
108908
108549
104008
110635
285860
110010
110791
110062
87668.9
110383
111192
80084.1
110883
100667
110208
110904
110783
110526
110654
110524
110793
110708
110590
110633
110639
107202
108431
110705
110839
68640.9
121668
110690
110695
111512
110669
110699
110412
110277
2.00001e+06
110674
95067.5
110663
110221
110800
110545
110551
370052
2e+06
110758
108860
110543
110422
110509
2.00002e+06
110315
74139.7
2.00013e+06
110415
111248
111198
2.00009e+06
110587
2.00012e+06
109971
110412
2.00006e+06
2.00007e+06
111231
110591
107708
110576
96053.2
109996
118699
107246
2.00006e+06
109977
118532
110088
110734
110489
110210
110595
110053
110513
110105
110585
110043
109910
110431
110059
110765
110601
110161
110185
110126
111045
110466
2.00007e+06
110437
110443
112175
95850.5
110692
110003
107703
99615.1
95067.6
110250
110144
110643
2.00009e+06
111020
107459
107400
109152
107310
2.00009e+06
107524
111841
108570
109058
2.00003e+06
111146
2.0001e+06
110455
100597
110437
109238
111618
106714
112176
111909
113512
2.00013e+06
2.0001e+06
110615
109641
110267
2.00013e+06
110440
110490
112041
110588
109246
110453
110171
111196
110439
110276
285902
110223
110560
110225
110497
110700
109993
110335
110522
2.00003e+06
79534
89352.3
110340
110595
110656
2.00003e+06
2e+06
86320.6
2.00005e+06
94133.7
110629
2.00002e+06
110222
110209
110189
2.00015e+06
110415
2.00012e+06
109957
2.00013e+06
110172
110430
2.00006e+06
2.00002e+06
109940
110237
110348
107253
2.00014e+06
2.00001e+06
110755
110471
110521
110244
110182
81250.4
110814
110385
110365
110462
110509
78645.5
105841
108411
2.00014e+06
110603
108800
2.00013e+06
2.00013e+06
108065
2.00004e+06
2.00014e+06
110388
110378
110854
110891
110691
2.00004e+06
2.00004e+06
110741
93849.2
97993.7
108248
93653.7
2.00013e+06
110622
110661
2.00014e+06
105941
108585
110383
108311
2.00015e+06
110674
2e+06
2.00004e+06
2.00002e+06
2.00001e+06
2.00003e+06
109237
2415.27
310414
2e+06
117466
2e+06
110661
116277
110666
110248
110165
110728
110311
110932
110406
111110
116682
120207
112507
110447
110437
110783
110685
116931
110941
120710
110513
110328
110374
110594
110323
110719
110359
110327
110660
110475
106993
110599
110189
110575
110684
109960
110549
110164
2.00005e+06
110193
105830
110034
107691
110513
2.00007e+06
2.00007e+06
110633
110595
110633
110416
110558
111116
110466
110407
137630
110185
2.00007e+06
2.00007e+06
108773
117975
107937
107953
2.00007e+06
107599
110522
110458
110448
105690
105471
2.00007e+06
110311
124640
145769
104226
112017
2.00007e+06
2.0001e+06
110716
110408
81446.3
133028
2.00007e+06
110581
109783
121063
110678
2.00011e+06
110407
2.00005e+06
108764
110712
1.99999e+06
2.00006e+06
110849
110616
104847
2.00012e+06
101688
110406
110716
110407
2.00006e+06
2.00007e+06
2.00006e+06
110227
2.00007e+06
2.00012e+06
111066
110398
2.00001e+06
2.00001e+06
1.99999e+06
2.0001e+06
2e+06
2.0001e+06
1.99999e+06
2.00015e+06
110365
2.00006e+06
110369
110366
107576
110413
110251
2e+06
2.00005e+06
2.00006e+06
108106
2.00006e+06
115239
119732
92404.6
2.00006e+06
110377
110343
2.00007e+06
106993
2.00007e+06
110426
110358
2.00015e+06
110266
2.00015e+06
111391
109832
108785
116114
110559
111554
110538
110672
110713
1059.33
110501
108748
110295
40466.6
110523
110670
108662
108891
106205
110829
244525
110249
93884.3
90239.8
126393
2.00005e+06
2.00006e+06
110296
110731
2.00005e+06
110719
110359
110378
110489
110383
110475
110816
111042
110854
2.00006e+06
116206
115412
110523
110385
115232
1.99975e+06
110623
108252
115188
110611
110650
115634
110663
110047
110317
115591
110659
110197
110139
111570
110135
110270
2.0001e+06
110417
110665
107610
110687
110699
110575
2.00014e+06
110664
107692
108639
110898
110898
110985
110314
110876
110714
108773
124772
110121
107891
110931
107678
95085.4
108388
108823
109008
110703
114195
108448
110155
110219
2.00002e+06
115903
2.00004e+06
108158
110754
2.00004e+06
110220
116350
110660
115380
110480
110330
114963
103924
110816
115621
104094
171328
124469
110914
108262
111634
110151
110798
110248
130734
110334
110063
110424
110412
110104
110720
115067
110633
111687
110120
109642
2.00012e+06
110397
2.00003e+06
2.00011e+06
2.00011e+06
100504
109818
2.00011e+06
123994
417234
2.0001e+06
2.00011e+06
110656
110422
109707
2.00006e+06
2.00001e+06
2.00012e+06
2.00005e+06
2.00001e+06
110418
110509
110421
2.00015e+06
102514
111597
108384
82373.8
95901.7
2.00014e+06
111205
110756
2.0001e+06
110410
110464
80790.3
2.00011e+06
140143
87186
105799
2.00014e+06
110278
107322
107605
110228
113009
110299
2.00014e+06
105273
110311
110346
2.00014e+06
108271
110357
107441
109091
110571
110556
110583
110563
110547
2.00009e+06
119785
2.00014e+06
110661
108882
110609
110536
110266
110473
110305
2.00009e+06
2.00005e+06
110396
2.00003e+06
2.00015e+06
2.00014e+06
118509
2.00014e+06
109959
110315
110180
110227
111028
110266
110641
110617
110465
376931
109976
110620
110573
2e+06
2e+06
2.00013e+06
108307
2.00014e+06
102898
107671
109936
2.00004e+06
109959
101110
111754
109701
113010
94823.1
2.00002e+06
110429
2.00003e+06
110512
110704
104178
87620.7
83009.7
119670
2.00005e+06
106184
134319
96317.6
98088
2.00005e+06
111498
2.0001e+06
111409
110947
111492
110621
88819.5
111517
110712
110657
110468
110056
109970
2.00009e+06
2.00001e+06
2.00009e+06
111346
105695
2.00005e+06
111672
110028
110285
116489
110179
112007
110091
110099
110602
128139
111805
101978
2.00007e+06
110604
110041
109225
110707
2.00003e+06
110347
2.00005e+06
109797
2.00006e+06
111077
108949
2.00003e+06
1.99999e+06
110967
2e+06
109276
110298
2e+06
108040
2.00001e+06
2.00005e+06
2.00004e+06
111681
107631
2.00001e+06
122798
2.00005e+06
2.00007e+06
2.00006e+06
108468
110708
110763
110625
2.00009e+06
110911
2.00013e+06
110539
121728
110654
111696
110549
110602
110019
110611
2.00011e+06
119224
217716
110717
110421
110386
110881
110327
110338
98966.1
358559
102501
110037
109094
110258
109789
116074
110817
110575
110549
119187
117295
117757
109447
110126
110492
110242
110152
110820
110464
110454
110553
360005
110450
110591
115002
110614
110466
117151
110595
117771
116921
118947
94276.6
110676
110617
346544
110662
111431
110162
110169
110188
110179
110161
368599
110656
363489
110649
118907
2.00007e+06
2.00007e+06
110722
2.00005e+06
2.00002e+06
2.00004e+06
105253
111164
111334
2.00008e+06
110538
110071
111594
110816
108882
111082
110097
110066
110047
110048
110106
110860
110024
108777
102602
100661
2.00005e+06
111803
109117
109054
118480
108808
158773
110017
110091
96685.5
113817
113692
115127
110132
114816
110301
110430
110462
111015
2.00006e+06
2.00005e+06
110196
88608.8
111274
101989
110383
110530
2.00006e+06
110940
110866
111153
110367
110393
110405
2.0001e+06
2.00011e+06
98775.4
2.00012e+06
108410
110706
2.0001e+06
2.0001e+06
110371
2.00013e+06
2.00013e+06
110139
110634
110648
2.00002e+06
110510
2.00011e+06
2.00003e+06
109428
110645
110483
2.00009e+06
110641
2.00005e+06
2.00006e+06
110475
110323
110258
110147
99218
110462
110469
133466
113322
110495
110510
110101
110105
110336
110105
110506
2.00013e+06
110459
110547
110633
110478
108881
117471
110417
110563
110498
110608
110416
110109
110088
110365
110087
110380
110227
110090
110362
110243
110681
110193
110191
108052
110174
110171
109994
110696
110826
110770
110963
110258
110778
110797
110977
110719
110559
108112
109015
107627
98603.4
109132
109108
109124
110122
109542
110188
2.00002e+06
95639.9
110184
108847
2.00008e+06
110172
116439
135337
130660
110696
110652
110679
112707
110888
105349
110319
116232
114133
111445
117324
110992
110192
118417
112210
111679
2.00008e+06
2.00009e+06
115387
116254
110662
110679
110661
105499
110131
2.00009e+06
350745
110559
2e+06
2.00001e+06
2.00001e+06
2.00001e+06
171940
110671
2.00006e+06
1.99967e+06
109916
2.00006e+06
2.00008e+06
2.00007e+06
1.99993e+06
109710
110680
1.99999e+06
2.00004e+06
110675
110067
110884
2e+06
110279
110108
110268
110206
110205
110811
110196
110313
108592
110297
110321
110005
110302
104789
120290
110616
110345
108755
108278
110313
110483
2.00003e+06
108429
110500
2.00009e+06
110481
110675
110514
110508
110522
109914
110520
110328
2.00006e+06
110605
195280
110199
110189
104974
108962
110222
110188
111318
107945
109766
104043
2.00005e+06
110062
108750
108827
111459
2.00004e+06
111650
110862
2.00005e+06
112571
1.55643e+06
109792
110289
2.00005e+06
110042
110255
110673
109844
111534
2.00004e+06
110258
153798
1.99937e+06
1.99999e+06
2.0001e+06
1.99997e+06
1.99961e+06
2.00003e+06
110187
110202
110223
110206
110207
93089.6
96513.2
102051
110308
103633
337744
111343
2.00007e+06
111460
1.99989e+06
2.00007e+06
111501
186460
107598
2.00003e+06
110512
84637.5
284649
129303
111444
110603
2.00007e+06
110702
110911
110836
2.00012e+06
2.00013e+06
108109
107792
110198
2.00013e+06
110894
110318
110322
321676
2.00007e+06
110310
110600
110318
110315
110307
110090
105113
110611
110181
110555
105515
110201
110182
110609
110547
110398
110138
110725
110603
108496
111116
108965
110287
2.00008e+06
104824
108388
109722
2.00011e+06
110171
104566
1.9999e+06
2.00011e+06
110297
2.00012e+06
2.00011e+06
108796
2.00012e+06
2.00005e+06
110353
111399
111889
110103
110392
2.00003e+06
2e+06
1.99999e+06
110147
2e+06
108962
117754
110909
110329
110372
110413
110771
479429
110420
110416
2e+06
110358
2.00003e+06
2.00001e+06
110132
110137
110387
2.00002e+06
109657
2e+06
78874.3
111212
307437
2.00001e+06
318786
2.00006e+06
110367
110384
2.00012e+06
292898
106973
291194
2.00003e+06
2.0001e+06
267142
2.00012e+06
2.00012e+06
110661
2.00012e+06
110559
110866
1.99971e+06
2.00015e+06
116580
103766
2.00011e+06
110939
2.00002e+06
110781
106819
110806
96150.3
112335
110858
110513
110964
114344
110704
116220
110922
110284
110504
109902
350868
110024
107777
110571
110618
110890
111054
2.00008e+06
110274
104400
110095
2.00007e+06
110672
2.00007e+06
211574
110083
98392.6
2.00008e+06
109484
112227
110560
110195
110042
109791
2.00007e+06
110551
112863
110730
110268
110164
110543
110910
2.00008e+06
123555
114618
115126
115309
110557
115802
99846.9
104411
103559
103589
98565
110624
110596
110427
110443
110540
96473.6
123708
110505
87517.5
59487
110333
61143.6
111368
112209
96033.6
110563
110541
95767.6
110497
110636
110527
110139
2.00009e+06
87577.9
110859
111090
111943
111792
109757
110115
102433
109996
110270
110332
103983
96580.7
110433
110460
110564
111706
111369
110252
110494
110709
110808
110140
110112
102238
106517
112296
151699
110873
2.00001e+06
99438.6
110530
109870
110775
110267
110210
339621
110046
110535
110607
318427
110672
109916
110508
110402
110446
2.00005e+06
111487
110953
319329
110425
99767.9
102295
89631.8
2e+06
344030
210266
109157
301406
110647
106130
110225
112717
2.00005e+06
109113
99103.9
97229.4
110884
104432
110839
105796
110182
111680
111700
110751
115927
115732
111399
114655
114141
113060
111619
107050
2.00007e+06
110351
2.00008e+06
2.00011e+06
110372
2.00012e+06
2.00011e+06
2.00005e+06
2.00013e+06
110353
2.00011e+06
2.00012e+06
110719
1.99999e+06
110700
398232
110697
110332
110400
108086
110126
84520.1
110350
110467
110815
110346
108097
110581
110597
107620
110184
118837
109054
108062
110826
110809
110651
110783
110537
110559
2.00003e+06
2.00004e+06
110422
110774
110298
110321
110386
100919
110876
108859
105984
105094
106483
110562
110562
109656
104146
110748
107591
110548
107288
110698
105541
109765
110656
110480
102925
110446
110597
110943
110321
110472
106512
110479
110374
110572
109447
110663
109564
110401
109801
110449
110809
107257
2.00001e+06
2.00005e+06
2.00004e+06
102860
128670
110444
110383
110530
109990
104625
2.00007e+06
2.00005e+06
110336
110289
110491
110592
110294
110296
110547
110151
110803
108770
107285
110552
116736
116809
110295
110734
116782
108609
110249
110248
105324
110617
110211
110373
2.00005e+06
110628
110628
2.00007e+06
2.00005e+06
110685
2.00009e+06
2.00009e+06
107750
105285
2.00004e+06
2.0001e+06
101332
115311
2.00004e+06
2.00004e+06
111072
111204
2.00008e+06
2.00005e+06
110450
105695
110382
100574
101475
2.00005e+06
2.00008e+06
110120
2.00005e+06
159186
106661
97479.7
110949
110320
110527
116037
110507
103101
108853
106325
2.00013e+06
2.00014e+06
110387
109779
107994
2.00013e+06
2.00015e+06
2.00002e+06
2.00015e+06
112660
113967
2.00015e+06
2.00015e+06
110237
2.0001e+06
2.00009e+06
2.00005e+06
2.00013e+06
110213
2.00013e+06
2.00013e+06
110559
2.00003e+06
2.00013e+06
110629
110549
110640
207247
356719
2.00005e+06
110642
110650
361015
110073
2.00005e+06
2.00004e+06
1.99999e+06
110328
2.00004e+06
110131
2.00005e+06
110443
110121
109913
110846
110764
109975
99390.1
110822
2.00005e+06
1.99999e+06
110651
106811
110526
116886
106024
108961
116688
109873
110352
110336
102982
77300.6
2.00005e+06
109854
110347
110179
110619
110103
110091
110348
109797
110886
114710
110577
110159
113989
100227
109982
110391
110706
110506
110611
110398
111666
102268
110826
110573
111640
106991
110107
109935
110589
110293
110573
107943
110016
110176
110299
101869
110342
106292
109792
93220.4
110178
107584
110669
111006
110350
110709
109557
110231
110273
110687
105213
89445.6
109981
2.00005e+06
102666
110436
110349
110487
2.00006e+06
110414
110394
110793
110362
110458
109961
307481
110776
1.99999e+06
109913
2.00012e+06
110767
110675
104300
2.00013e+06
2.00002e+06
111799
2.00003e+06
2.00001e+06
2.00003e+06
110768
111015
110728
110678
113881
110639
111084
115044
101153
110265
109557
2.00008e+06
98500.6
2.0001e+06
107525
109030
111108
110515
111709
123354
101283
110519
112775
110242
110670
110666
110886
110005
110498
110018
102317
110034
110440
110380
110167
110141
110471
118534
110537
110580
110410
2.00006e+06
109822
110059
110458
2.00006e+06
110330
110242
109710
110127
110017
111410
110011
113315
110033
110485
110286
110514
110159
109722
109934
111788
109940
109999