/*--------------------------------*- C++ -*----------------------------------*\
| =========                 |                                                 |
| \\      /  F ield         | OpenFOAM: The Open Source CFD Toolbox           |
|  \\    /   O peration     | Version:  v2012                                 |
|   \\  /    A nd           | Website:  www.openfoam.com                      |
|    \\/     M anipulation  |                                                 |
\*---------------------------------------------------------------------------*/
FoamFile
{
    version     2.0;
    format      ascii;
    class       volVectorField;
    location    "0.8";
    object      U;
}
// * * * * * * * * * * * * * * * * * * * * * * * * * * * * * * * * * * * * * //

dimensions      [0 1 -1 0 0 0 0];


internalField   nonuniform List<vector> 
2650
(
(-2.52048 -13.5854 0.0220007)
(-1.4326 -8.5053 0.0125083)
(-0.503674 -5.97269 0.00439754)
(-0.424572 -3.81928 0.00370636)
(0.067029 -1.29768 -0.000584094)
(-0.0152055 -14.7679 0.000132429)
(-0.0291662 -8.90195 0.000254482)
(0.0202656 -6.39562 -0.000176736)
(0.0468306 -4.02761 -0.00040868)
(0.0373999 -1.47619 -0.000326546)
(-1.35283 -13.4842 0.0118071)
(-0.763657 -8.52851 0.0066671)
(-0.309161 -6.20895 0.0026991)
(-0.280632 -3.97271 0.00244982)
(0.0398854 -1.34287 -0.000347574)
(-0.0844869 -14.1586 0.000737371)
(-0.0617498 -8.89692 0.000539117)
(-0.025085 -6.6129 0.000219119)
(0.0010862 -4.30682 -9.36604e-06)
(0.0289211 -1.69206 -0.000252288)
(-0.217921 -12.9191 0.00190192)
(-0.190902 -8.50787 0.00166646)
(-0.149111 -6.32307 0.0013017)
(-0.0937487 -4.14215 0.000818534)
(0.00289186 -1.43213 -2.51318e-05)
(-0.130639 -12.6078 0.00114016)
(-0.13266 -8.54917 0.00115807)
(-0.0798735 -6.52779 0.000697388)
(-0.0321093 -4.41188 0.00028044)
(0.010895 -1.71864 -9.46687e-05)
(-0.149476 -11.9429 0.00130456)
(-0.156829 -8.30408 0.00136903)
(-0.110497 -6.40904 0.000964701)
(-0.0575684 -4.31734 0.000502722)
(-0.0021697 -1.55925 1.90254e-05)
(-0.137103 -11.4742 0.00119657)
(-0.142354 -8.24501 0.00124271)
(-0.0896323 -6.51551 0.0007826)
(-0.0392459 -4.48972 0.00034276)
(0.00529833 -1.72861 -4.57844e-05)
(-0.139081 -10.9094 0.00121384)
(-0.148825 -8.06878 0.0012992)
(-0.10238 -6.47866 0.000893888)
(-0.0480102 -4.47901 0.000419309)
(-0.00191645 -1.68306 1.68102e-05)
(-0.131695 -10.4118 0.00114939)
(-0.137792 -7.95834 0.00120292)
(-0.089758 -6.52245 0.000783732)
(-0.0348187 -4.56966 0.000304145)
(0.00471877 -1.73637 -4.07485e-05)
(-0.131003 -9.91387 0.00114336)
(-0.142756 -7.83302 0.00124626)
(-0.103136 -6.54895 0.000900525)
(-0.0382331 -4.64116 0.000334009)
(0.00109206 -1.79817 -9.56506e-06)
(-0.122343 -9.40382 0.00106779)
(-0.13122 -7.66799 0.00114559)
(-0.0937396 -6.53591 0.000818518)
(-0.0229323 -4.65914 0.000200439)
(0.011807 -1.71729 -0.000102693)
(-0.124777 -8.98066 0.00108906)
(-0.144872 -7.58875 0.00126476)
(-0.123628 -6.63405 0.00107942)
(-0.0311152 -4.84254 0.000271968)
(0.0185058 -1.90566 -0.000161941)
(-0.118633 -8.41886 0.00103545)
(-0.145102 -7.31705 0.00126677)
(-0.139213 -6.53468 0.00121544)
(-0.0400422 -4.79799 0.000349873)
(0.0403518 -1.62852 -0.00035189)
(-0.135763 -8.02771 0.00118496)
(-0.194069 -7.22147 0.00169414)
(-0.24089 -6.67502 0.00210289)
(-0.11951 -5.18362 0.00104369)
(0.04518 -2.05561 -0.00039488)
(-0.158474 -7.24665 0.00138316)
(-0.269818 -6.63584 0.00235521)
(-0.421698 -6.29633 0.00368084)
(-0.343413 -5.06201 0.00299784)
(-0.110538 -1.55393 0.000969231)
(-0.208882 -6.54721 0.00182309)
(-0.372565 -6.08776 0.00325191)
(-0.713332 -6.04949 0.00622604)
(-0.696284 -5.50562 0.0060777)
(-0.624632 -2.99355 0.00545537)
(-0.298729 -5.2403 0.00260719)
(-0.704655 -4.72608 0.00615012)
(-1.32987 -4.69508 0.0116065)
(-1.8848 -4.423 0.0164497)
(-2.42816 -3.13874 0.0211879)
(-1.70938 -0.403649 0.014923)
(-0.980267 -0.216983 0.00855598)
(-0.73018 -0.124251 0.00637289)
(-0.434576 -0.0753875 0.00379311)
(-0.32866 -0.0433502 0.00286838)
(-0.20544 -0.025468 0.00179313)
(-0.155866 -0.0146041 0.00136032)
(-0.103819 -0.00830687 0.000906178)
(-0.0791875 -0.00484057 0.000691144)
(-0.0564126 -0.00272671 0.000492415)
(-0.0436519 -0.00165954 0.00038102)
(-0.0329797 -0.000970716 0.000287887)
(-0.026086 -0.000631566 0.000227709)
(-0.0206159 -0.000400465 0.000179966)
(-0.0167097 -0.000278581 0.000145868)
(-0.0136481 -0.000192071 0.000119143)
(-0.0113204 -0.000140278 9.88237e-05)
(-0.00947782 -0.000102692 8.27389e-05)
(-0.00802145 -7.75614e-05 7.00253e-05)
(-0.00684733 -5.90946e-05 5.97757e-05)
(-0.00589374 -4.58957e-05 5.14512e-05)
(-0.00510924 -3.60715e-05 4.46028e-05)
(-0.00445764 -2.87865e-05 3.89146e-05)
(-0.00391056 -2.32837e-05 3.41388e-05)
(-0.0034466 -1.91106e-05 3.00886e-05)
(-0.00304909 -1.59136e-05 2.66186e-05)
(-0.225487 -3.21861 0.00196797)
(-0.476492 -2.42588 0.00415881)
(-0.91765 -2.12434 0.00800894)
(-1.2823 -1.89404 0.0111914)
(-1.76578 -1.59009 0.0154116)
(-1.49447 -0.908556 0.0130453)
(-0.980722 -0.667696 0.00856142)
(-0.823351 -0.403279 0.00718723)
(-0.568601 -0.291535 0.00496385)
(-0.468917 -0.182872 0.00409339)
(-0.337822 -0.128793 0.00294922)
(-0.273322 -0.0830335 0.00238601)
(-0.204207 -0.0573447 0.00178277)
(-0.163643 -0.0379173 0.00142859)
(-0.126244 -0.0260777 0.00110215)
(-0.101388 -0.0177291 0.000885121)
(-0.0804593 -0.0123484 0.000702431)
(-0.0653576 -0.00865635 0.000570581)
(-0.053166 -0.0061757 0.000464152)
(-0.0438961 -0.00446444 0.00038322)
(-0.0364859 -0.00327426 0.00031853)
(-0.0306564 -0.00243441 0.000267636)
(-0.0259622 -0.00183261 0.000226655)
(-0.0221779 -0.00139661 0.000193617)
(-0.0190859 -0.00107641 0.000166623)
(-0.0165424 -0.000839117 0.000144418)
(-0.0144285 -0.000661518 0.000125963)
(-0.0126567 -0.000527653 0.000110495)
(-0.0111576 -0.000426054 9.74075e-05)
(-0.00987747 -0.000348523 8.62324e-05)
(-0.00877413 -0.000289053 7.66002e-05)
(-0.131957 -2.87634 0.00115169)
(-0.242599 -2.22902 0.00211751)
(-0.41476 -1.95195 0.00362007)
(-0.522923 -1.67168 0.0045641)
(-0.695814 -1.36416 0.0060731)
(-0.696913 -0.803029 0.00608306)
(-0.624306 -0.636078 0.00544944)
(-0.573186 -0.412206 0.0050033)
(-0.472665 -0.322293 0.004126)
(-0.415755 -0.221364 0.00362921)
(-0.33587 -0.168897 0.002932)
(-0.286704 -0.11957 0.00250277)
(-0.231698 -0.0894264 0.00202268)
(-0.194206 -0.064403 0.00169536)
(-0.15825 -0.0476834 0.00138152)
(-0.131775 -0.0347923 0.00115038)
(-0.108613 -0.0257663 0.000948198)
(-0.0906986 -0.0190505 0.000791799)
(-0.0757205 -0.0142245 0.000661048)
(-0.0637919 -0.0106696 0.000556908)
(-0.0539741 -0.00807018 0.000471201)
(-0.0460083 -0.0061472 0.000401657)
(-0.0394481 -0.00472053 0.000344387)
(-0.0340476 -0.00365423 0.00029724)
(-0.0295614 -0.00285288 0.000258074)
(-0.0258164 -0.00224716 0.000225381)
(-0.0226659 -0.00178691 0.000197877)
(-0.0199971 -0.00143557 0.000174577)
(-0.0177182 -0.00116625 0.000154683)
(-0.0157567 -0.000959029 0.000137559)
(-0.0140542 -0.000799033 0.000122696)
(-0.127927 -1.93521 0.00111652)
(-0.23614 -1.2999 0.00206112)
(-0.395285 -1.05588 0.0034501)
(-0.489968 -0.902732 0.00427651)
(-0.612473 -0.788488 0.00534578)
(-0.597041 -0.615802 0.00521137)
(-0.540741 -0.523129 0.00472003)
(-0.50132 -0.396393 0.00437597)
(-0.426067 -0.325357 0.0037192)
(-0.383043 -0.245189 0.00334362)
(-0.321505 -0.195246 0.00280653)
(-0.28178 -0.147213 0.00245974)
(-0.236536 -0.114622 0.00206486)
(-0.203733 -0.0865983 0.00177849)
(-0.171608 -0.0665475 0.00149809)
(-0.146574 -0.050455 0.00127954)
(-0.124108 -0.0386074 0.00108344)
(-0.105931 -0.0294384 0.00092476)
(-0.0903218 -0.0225853 0.000788502)
(-0.0774596 -0.0173585 0.000676217)
(-0.0666093 -0.0134145 0.000581498)
(-0.0575756 -0.0104121 0.000502635)
(-0.049979 -0.00812867 0.000436318)
(-0.0436006 -0.00638336 0.000380635)
(-0.038212 -0.00504636 0.000333593)
(-0.0336449 -0.0040185 0.000293722)
(-0.0297514 -0.00322616 0.000259732)
(-0.0264142 -0.00261375 0.000230598)
(-0.023535 -0.0021393 0.000205463)
(-0.021034 -0.00177096 0.000183631)
(-0.0188456 -0.00148441 0.000164526)
(-0.0914116 -1.62882 0.000797835)
(-0.142824 -1.14497 0.00124669)
(-0.204707 -0.943552 0.00178681)
(-0.246395 -0.802274 0.00215068)
(-0.29878 -0.70135 0.0026079)
(-0.317026 -0.552121 0.0027672)
(-0.324062 -0.472972 0.00282863)
(-0.322589 -0.367561 0.00281581)
(-0.30318 -0.307779 0.00264643)
(-0.288348 -0.240355 0.00251698)
(-0.260478 -0.19701 0.00227375)
(-0.239159 -0.154585 0.00208766)
(-0.211871 -0.124475 0.0018495)
(-0.189693 -0.0977936 0.0016559)
(-0.166363 -0.0777467 0.00145227)
(-0.146666 -0.0610522 0.00128033)
(-0.128035 -0.0481834 0.00111771)
(-0.112071 -0.0378399 0.000978352)
(-0.0977854 -0.0297965 0.000853648)
(-0.0855142 -0.0234482 0.000746525)
(-0.0748223 -0.0185009 0.000653191)
(-0.0656466 -0.0146266 0.000573089)
(-0.0577355 -0.0116046 0.000504028)
(-0.0509424 -0.00924307 0.000444725)
(-0.0450925 -0.00739879 0.000393657)
(-0.0400498 -0.00595696 0.000349635)
(-0.035687 -0.00482931 0.000311548)
(-0.0318983 -0.00394679 0.000278474)
(-0.0285919 -0.00325574 0.000249609)
(-0.0256903 -0.00271433 0.00022428)
(-0.0231283 -0.00228989 0.000201914)
(-0.0811148 -1.11484 0.000707965)
(-0.133505 -0.741252 0.00116533)
(-0.191998 -0.585389 0.00167588)
(-0.229407 -0.499361 0.00200241)
(-0.271509 -0.448425 0.00236988)
(-0.286199 -0.389229 0.00249815)
(-0.289875 -0.349184 0.00253025)
(-0.287599 -0.29602 0.00251041)
(-0.271549 -0.258751 0.00237034)
(-0.258971 -0.215364 0.00226055)
(-0.23703 -0.183237 0.00206907)
(-0.219657 -0.150629 0.00191742)
(-0.198018 -0.125318 0.00172855)
(-0.17983 -0.102064 0.00156979)
(-0.160723 -0.083525 0.00140302)
(-0.144083 -0.0675457 0.00125776)
(-0.128131 -0.0546867 0.00111853)
(-0.114069 -0.0440166 0.000995775)
(-0.101228 -0.0354332 0.000883685)
(-0.089909 -0.0284628 0.000784881)
(-0.0798289 -0.0228778 0.000696889)
(-0.0709773 -0.0183955 0.000619619)
(-0.0631871 -0.0148188 0.000551614)
(-0.0563641 -0.0119665 0.000492053)
(-0.0503827 -0.00969797 0.000439837)
(-0.0451407 -0.00789553 0.000394076)
(-0.0405377 -0.00646559 0.000353893)
(-0.0364863 -0.00533241 0.000318526)
(-0.0329076 -0.00443542 0.000287284)
(-0.0297327 -0.00372605 0.000259569)
(-0.0269019 -0.00316546 0.000234857)
(-0.0652151 -0.882182 0.000569198)
(-0.101033 -0.613187 0.000881929)
(-0.129366 -0.500377 0.00112924)
(-0.149715 -0.433423 0.00130687)
(-0.17031 -0.39265 0.00148663)
(-0.184018 -0.343716 0.00160628)
(-0.193768 -0.310068 0.00169138)
(-0.199784 -0.266538 0.0017439)
(-0.198886 -0.235122 0.00173607)
(-0.197188 -0.199426 0.00172125)
(-0.189213 -0.17213 0.00165166)
(-0.181612 -0.144632 0.00158531)
(-0.170097 -0.122591 0.00148481)
(-0.159197 -0.102165 0.00138967)
(-0.146643 -0.0853614 0.0012801)
(-0.134799 -0.0705981 0.00117671)
(-0.122766 -0.0583565 0.00107168)
(-0.111558 -0.0479541 0.000973853)
(-0.10089 -0.0393523 0.00088073)
(-0.0911131 -0.0321958 0.000795387)
(-0.0821292 -0.0263197 0.000716964)
(-0.074011 -0.0214983 0.000646098)
(-0.0666907 -0.0175697 0.000582196)
(-0.0601372 -0.014377 0.000524988)
(-0.0542804 -0.0117933 0.00047386)
(-0.0490579 -0.00970845 0.00042827)
(-0.0444003 -0.00803141 0.000387611)
(-0.0402431 -0.00668605 0.000351321)
(-0.0365244 -0.0056096 0.000318857)
(-0.0331876 -0.00475032 0.000289729)
(-0.0301818 -0.00406577 0.00026349)
(-0.0589249 -0.531877 0.000514298)
(-0.0941607 -0.379614 0.000821934)
(-0.121592 -0.315618 0.00106139)
(-0.141099 -0.280977 0.00123166)
(-0.158695 -0.262507 0.00138526)
(-0.170539 -0.242236 0.00148864)
(-0.17783 -0.226871 0.00155229)
(-0.182278 -0.205783 0.00159111)
(-0.180928 -0.188242 0.00157933)
(-0.178895 -0.167028 0.00156158)
(-0.172204 -0.1489 0.00150319)
(-0.165668 -0.129682 0.00144614)
(-0.156376 -0.113033 0.00136504)
(-0.147426 -0.0969467 0.00128691)
(-0.137295 -0.0829819 0.00119849)
(-0.127579 -0.0702787 0.00111368)
(-0.117672 -0.0593278 0.00102721)
(-0.108273 -0.0497441 0.00094517)
(-0.0991994 -0.041578 0.000865964)
(-0.0907165 -0.0346106 0.000791917)
(-0.0827771 -0.028749 0.000722614)
(-0.0754583 -0.0238347 0.000658726)
(-0.0687334 -0.0197491 0.000600024)
(-0.0626006 -0.016368 0.000546488)
(-0.0570239 -0.0135862 0.000497808)
(-0.0519697 -0.0113078 0.000453686)
(-0.0473938 -0.00945033 0.000413741)
(-0.0432524 -0.00794243 0.00037759)
(-0.0395006 -0.0067232 0.000344838)
(-0.0360948 -0.00574098 0.000315108)
(-0.0329945 -0.00495224 0.000288043)
(-0.0471203 -0.347539 0.000411275)
(-0.0756799 -0.270508 0.00066063)
(-0.0940931 -0.243141 0.000821373)
(-0.107545 -0.227237 0.000938805)
(-0.11814 -0.218758 0.00103129)
(-0.127231 -0.205916 0.00111064)
(-0.133799 -0.195354 0.00116797)
(-0.139375 -0.179668 0.00121663)
(-0.141751 -0.165956 0.00123738)
(-0.14336 -0.149313 0.00125142)
(-0.141872 -0.13458 0.00123843)
(-0.139743 -0.118985 0.00121984)
(-0.135297 -0.105099 0.00118104)
(-0.130342 -0.0915957 0.00113779)
(-0.124023 -0.0795895 0.00108264)
(-0.117419 -0.068516 0.00102499)
(-0.110241 -0.0587533 0.000962342)
(-0.10305 -0.0500541 0.000899569)
(-0.0958132 -0.0424817 0.000836403)
(-0.0887951 -0.0358953 0.000775142)
(-0.0820295 -0.0302431 0.000716085)
(-0.0756256 -0.0254164 0.000660184)
(-0.0696067 -0.0213317 0.000607644)
(-0.0640039 -0.0178953 0.000558736)
(-0.0588154 -0.0150244 0.000513444)
(-0.0540335 -0.01264 0.000471701)
(-0.0496379 -0.0106714 0.00043333)
(-0.0456037 -0.00905497 0.000398114)
(-0.0419019 -0.0077348 0.0003658)
(-0.038502 -0.00666181 0.000336122)
(-0.0353737 -0.00579351 0.000308813)
(-0.0415663 -0.103351 0.000362803)
(-0.0689443 -0.112 0.000601836)
(-0.0873765 -0.125142 0.000762742)
(-0.10098 -0.132861 0.000881498)
(-0.111015 -0.139429 0.000969094)
(-0.119395 -0.140449 0.00104224)
(-0.124888 -0.140107 0.00109019)
(-0.129416 -0.135238 0.00112972)
(-0.131054 -0.129644 0.00114401)
(-0.131993 -0.121124 0.00115221)
(-0.130502 -0.112499 0.00113919)
(-0.128465 -0.10249 0.00112141)
(-0.124739 -0.0928087 0.00108889)
(-0.120596 -0.0828632 0.00105272)
(-0.11547 -0.073524 0.00100798)
(-0.110086 -0.064571 0.000960981)
(-0.104249 -0.0563721 0.000910032)
(-0.0983342 -0.0488482 0.000858401)
(-0.0923217 -0.0421124 0.000805919)
(-0.0863984 -0.0361142 0.000754215)
(-0.0805985 -0.0308524 0.000703589)
(-0.0750127 -0.0262709 0.00065483)
(-0.0696729 -0.0223234 0.000608219)
(-0.0646173 -0.0189482 0.000564088)
(-0.0598592 -0.0160864 0.000522553)
(-0.0554057 -0.0136774 0.000483677)
(-0.051252 -0.0116642 0.000447419)
(-0.0473879 -0.00999329 0.000413688)
(-0.0437972 -0.00861538 0.000382343)
(-0.0404607 -0.00748599 0.000353219)
(-0.0373575 -0.00656533 0.00032613)
(-0.0316264 0.0364754 0.000276053)
(-0.0547833 -0.0208143 0.000478233)
(-0.0705397 -0.0613122 0.000615785)
(-0.0821855 -0.0850475 0.000717453)
(-0.0902611 -0.101111 0.000787952)
(-0.0973394 -0.108821 0.000849739)
(-0.102227 -0.112986 0.000892402)
(-0.106728 -0.112144 0.000931682)
(-0.109335 -0.109607 0.00095444)
(-0.111487 -0.104209 0.000973216)
(-0.111945 -0.0981342 0.000977209)
(-0.111817 -0.0907083 0.000976095)
(-0.110314 -0.083203 0.000962968)
(-0.108203 -0.0753215 0.000944544)
(-0.105118 -0.0677141 0.000917611)
(-0.101542 -0.0602886 0.000886399)
(-0.0973821 -0.053338 0.000850089)
(-0.092928 -0.0468438 0.000811209)
(-0.0882108 -0.0409152 0.000770034)
(-0.0834001 -0.0355415 0.000728041)
(-0.0785577 -0.0307429 0.000685773)
(-0.0737798 -0.0264952 0.000644066)
(-0.0691165 -0.0227768 0.00060336)
(-0.0646178 -0.0195506 0.00056409)
(-0.0603114 -0.0167773 0.000526499)
(-0.0562171 -0.0144136 0.000490759)
(-0.052343 -0.0124158 0.000456941)
(-0.0486902 -0.0107406 0.000425055)
(-0.0452532 -0.00934674 0.000395053)
(-0.0420226 -0.00819518 0.000366852)
(-0.0389856 -0.00725003 0.000340342)
(-0.0285506 0.195152 0.000249207)
(-0.0507252 0.0907265 0.000442809)
(-0.0661918 0.0237534 0.000577831)
(-0.077697 -0.0172896 0.000678272)
(-0.0854769 -0.0449433 0.00074619)
(-0.0921195 -0.0620337 0.000804175)
(-0.0964744 -0.0732954 0.000842189)
(-0.100335 -0.0790015 0.000875887)
(-0.102412 -0.0817378 0.000894012)
(-0.104027 -0.0813101 0.000908106)
(-0.104232 -0.079308 0.000909893)
(-0.103946 -0.0755883 0.000907391)
(-0.102608 -0.071114 0.000895713)
(-0.100799 -0.0658695 0.000879912)
(-0.0982643 -0.060401 0.00085779)
(-0.095343 -0.0547647 0.000832288)
(-0.0919657 -0.0492471 0.000802808)
(-0.0883258 -0.0439127 0.000771035)
(-0.0844416 -0.0388962 0.00073713)
(-0.0804294 -0.0342374 0.000702107)
(-0.0763358 -0.0299864 0.000666375)
(-0.0722346 -0.0261525 0.000630575)
(-0.0681701 -0.0227395 0.000595096)
(-0.0641882 -0.0197337 0.000560338)
(-0.0603192 -0.0171148 0.000526565)
(-0.0565876 -0.0148554 0.000493992)
(-0.0530082 -0.012925 0.000462746)
(-0.0495893 -0.0112908 0.000432902)
(-0.0463333 -0.00991946 0.00040448)
(-0.0432379 -0.00877824 0.000377461)
(-0.0402975 -0.00783573 0.000351793)
(-0.0232889 0.30943 0.000203284)
(-0.0425818 0.170029 0.000371729)
(-0.056148 0.0809391 0.000490164)
(-0.0663868 0.0259708 0.000579551)
(-0.0733246 -0.0104611 0.00064012)
(-0.0793458 -0.0336342 0.000692681)
(-0.0834448 -0.0491482 0.000728462)
(-0.0872009 -0.0583033 0.000761245)
(-0.0895909 -0.0637275 0.000782105)
(-0.0916507 -0.0657519 0.000800079)
(-0.0926418 -0.0658206 0.000808727)
(-0.0932021 -0.0640747 0.000813613)
(-0.092895 -0.0613358 0.00081093)
(-0.0921025 -0.0577227 0.000804009)
(-0.0906342 -0.0536937 0.00079119)
(-0.0887212 -0.0493598 0.00077449)
(-0.086324 -0.0449694 0.000753563)
(-0.0835908 -0.0406117 0.000729703)
(-0.0805531 -0.0364153 0.000703187)
(-0.0773118 -0.0324383 0.000674893)
(-0.073919 -0.0287406 0.000645277)
(-0.0704444 -0.0253492 0.000614947)
(-0.0669355 -0.0222832 0.000584317)
(-0.0634388 -0.0195448 0.000553795)
(-0.0599883 -0.0171285 0.000523675)
(-0.0566121 -0.01502 0.000494204)
(-0.0533297 -0.0132001 0.000465551)
(-0.0501547 -0.0116456 0.000437837)
(-0.047095 -0.0103311 0.000411128)
(-0.0441539 -0.00922989 0.000385455)
(-0.041331 -0.00831545 0.000360814)
(-0.0204198 0.421076 0.000178243)
(-0.0384695 0.253111 0.000335833)
(-0.0518321 0.14576 0.00045249)
(-0.0621562 0.0782678 0.000542621)
(-0.0692349 0.0330002 0.000604419)
(-0.0751649 0.00277836 0.000656186)
(-0.0790991 -0.0182349 0.00069053)
(-0.0825301 -0.0321309 0.000720476)
(-0.084636 -0.0414317 0.000738857)
(-0.0863656 -0.0469162 0.00075395)
(-0.0871498 -0.049902 0.000760792)
(-0.0875494 -0.0507668 0.000764275)
(-0.087247 -0.050249 0.000761632)
(-0.086556 -0.0485914 0.000755596)
(-0.0853418 -0.0462219 0.000744995)
(-0.0837759 -0.04332 0.000731323)
(-0.0818264 -0.0401359 0.000714303)
(-0.079594 -0.0367994 0.000694815)
(-0.0770965 -0.0334538 0.000673013)
(-0.0744021 -0.0301837 0.000649493)
(-0.0715473 -0.027066 0.000624573)
(-0.0685836 -0.0241471 0.000598702)
(-0.0655489 -0.0214615 0.000572212)
(-0.0624824 -0.0190267 0.000545445)
(-0.059415 -0.01685 0.000518668)
(-0.0563736 -0.014929 0.00049212)
(-0.0533791 -0.0132547 0.000465981)
(-0.0504475 -0.0118125 0.000440391)
(-0.04759 -0.0105843 0.000415447)
(-0.0448135 -0.00954949 0.000391213)
(-0.0421218 -0.00868622 0.000367717)
(-0.0171653 0.510623 0.000149839)
(-0.0333288 0.320115 0.000290963)
(-0.0455751 0.19673 0.000397874)
(-0.0550946 0.118015 0.000480983)
(-0.0616525 0.0649114 0.000538236)
(-0.0671574 0.0289793 0.000586292)
(-0.0709315 0.00385045 0.000619238)
(-0.0742813 -0.0132355 0.000648477)
(-0.0765261 -0.0250198 0.00066807)
(-0.0784486 -0.0326336 0.000684848)
(-0.07959 -0.037418 0.000694807)
(-0.0803891 -0.039915 0.000701778)
(-0.0805873 -0.040842 0.000703504)
(-0.080415 -0.040517 0.000701995)
(-0.0797628 -0.0393449 0.000696298)
(-0.0787555 -0.0375346 0.000687502)
(-0.0773711 -0.0353228 0.000675416)
(-0.0756881 -0.0328513 0.000660722)
(-0.0737269 -0.0302605 0.000643601)
(-0.071545 -0.0276438 0.000624554)
(-0.069178 -0.025083 0.000603891)
(-0.0666715 -0.0226338 0.00058201)
(-0.064061 -0.0203396 0.000559223)
(-0.0613824 -0.0182276 0.000535842)
(-0.0586653 -0.0163148 0.000512123)
(-0.0559356 -0.014608 0.000488295)
(-0.0532146 -0.0131063 0.000464544)
(-0.0505196 -0.0118027 0.000441019)
(-0.0478635 -0.0106856 0.000417834)
(-0.0452558 -0.00973986 0.000395072)
(-0.0427029 -0.0089482 0.000372788)
(-0.0148961 0.592898 0.000130034)
(-0.0298313 0.385321 0.000260433)
(-0.0416828 0.249049 0.000363899)
(-0.0511057 0.160704 0.000446162)
(-0.0577931 0.10048 0.000504546)
(-0.0633597 0.05893 0.000553141)
(-0.0672075 0.0293837 0.000586731)
(-0.0704861 0.00857411 0.00061535)
(-0.0726461 -0.00630192 0.000634203)
(-0.0744145 -0.016599 0.000649636)
(-0.0754487 -0.0236564 0.00065866)
(-0.0761511 -0.0281486 0.000664787)
(-0.0763339 -0.030794 0.000666378)
(-0.0762013 -0.0319823 0.000665216)
(-0.0756766 -0.0321229 0.000660632)
(-0.0748612 -0.0314641 0.000653511)
(-0.0737379 -0.0302514 0.000643702)
(-0.0723628 -0.0286498 0.000631696)
(-0.0707474 -0.0268103 0.000617593)
(-0.068931 -0.0248414 0.000601736)
(-0.0669377 -0.0228351 0.000584335)
(-0.0648003 -0.0208583 0.000565677)
(-0.0625462 -0.0189636 0.000546)
(-0.0602039 -0.0171877 0.000525553)
(-0.0577982 -0.0155557 0.000504553)
(-0.0553523 -0.0140822 0.000483202)
(-0.0528858 -0.0127737 0.000461672)
(-0.0504155 -0.0116295 0.000440109)
(-0.0479551 -0.0106438 0.000418632)
(-0.0455153 -0.00980631 0.000397336)
(-0.0431043 -0.00910394 0.00037629)
(-0.0128779 0.662214 0.000112419)
(-0.0264137 0.441106 0.000230602)
(-0.0374347 0.293678 0.000326818)
(-0.0463181 0.196692 0.000404372)
(-0.052716 0.12997 0.000460229)
(-0.0580342 0.0834009 0.000506656)
(-0.0617817 0.0500244 0.000539371)
(-0.06498 0.0261783 0.000567289)
(-0.0671912 0.00891332 0.000586589)
(-0.0690463 -0.00335582 0.000602779)
(-0.070261 -0.0120559 0.000613379)
(-0.0711681 -0.0179864 0.000621292)
(-0.0716107 -0.021893 0.000625152)
(-0.0717541 -0.02422 0.000626399)
(-0.0715357 -0.0253833 0.000624488)
(-0.0710357 -0.0256535 0.00062012)
(-0.0702418 -0.0252774 0.000613186)
(-0.0692001 -0.0244292 0.00060409)
(-0.0679224 -0.0232616 0.000592935)
(-0.0664423 -0.0218884 0.000580012)
(-0.0647815 -0.0204052 0.000565513)
(-0.0629682 -0.0188847 0.000549684)
(-0.0610264 -0.0173846 0.000532732)
(-0.0589807 -0.0159477 0.000514875)
(-0.0568531 -0.0146051 0.000496302)
(-0.0546641 -0.0133774 0.000477194)
(-0.0524319 -0.0122766 0.000457709)
(-0.0501723 -0.0113077 0.000437984)
(-0.0478988 -0.0104694 0.000418139)
(-0.0456226 -0.00975585 0.000398271)
(-0.0433528 -0.00915771 0.000378458)
(-0.0113578 0.725649 9.9151e-05)
(-0.0238623 0.494029 0.000208331)
(-0.0343734 0.337436 0.000300096)
(-0.0430226 0.233027 0.000375605)
(-0.0494079 0.160478 0.000431351)
(-0.0547178 0.109201 0.000477706)
(-0.0585277 0.0720528 0.000510966)
(-0.0617329 0.0450781 0.000538945)
(-0.0639649 0.0252314 0.000558428)
(-0.0657856 0.0107517 0.000574318)
(-0.0669777 0.000169707 0.000584721)
(-0.0678514 -0.00739582 0.000592343)
(-0.0682976 -0.0127145 0.000596233)
(-0.068471 -0.0162775 0.000597742)
(-0.06833 -0.0185214 0.000596507)
(-0.0679466 -0.0197451 0.000593156)
(-0.067313 -0.0202088 0.000587622)
(-0.0664656 -0.0201034 0.000580221)
(-0.0654118 -0.0195912 0.00057102)
(-0.0641755 -0.0187965 0.000560225)
(-0.0627716 -0.0178222 0.000547968)
(-0.0612203 -0.016748 0.000534426)
(-0.0595395 -0.0156378 0.000519753)
(-0.0577483 -0.0145401 0.000504116)
(-0.0558644 -0.0134912 0.00048767)
(-0.0539049 -0.0125169 0.000470566)
(-0.0518857 -0.0116341 0.00045294)
(-0.049821 -0.0108519 0.000434917)
(-0.0477235 -0.0101734 0.000416608)
(-0.0456042 -0.00959649 0.00039811)
(-0.0434725 -0.00911495 0.000379503)
(-0.00992047 0.780842 8.6606e-05)
(-0.0213817 0.54094 0.000186678)
(-0.0312663 0.376434 0.000272974)
(-0.0395118 0.265383 0.00034496)
(-0.0457057 0.187508 0.000399035)
(-0.0508702 0.13193 0.000444121)
(-0.0546419 0.0913588 0.000477047)
(-0.0578047 0.0616081 0.000504657)
(-0.0600731 0.0395197 0.000524457)
(-0.0619433 0.0231801 0.00054078)
(-0.0632346 0.0110509 0.000552048)
(-0.0642203 0.00216041 0.000560648)
(-0.0648106 -0.00430102 0.000565797)
(-0.0651395 -0.00887885 0.000568663)
(-0.0651757 -0.0120244 0.000568975)
(-0.0649775 -0.0140607 0.000567241)
(-0.0645423 -0.0152561 0.000563438)
(-0.0639013 -0.0158118 0.000557839)
(-0.0630631 -0.015895 0.000550519)
(-0.0620484 -0.0156354 0.000541658)
(-0.0608706 -0.0151398 0.000531375)
(-0.0595471 -0.0144921 0.00051982)
(-0.0580927 -0.01376 0.000507123)
(-0.0565235 -0.012996 0.000493424)
(-0.0548542 -0.0122405 0.000478852)
(-0.0530996 -0.0115229 0.000463535)
(-0.051273 -0.0108641 0.000447591)
(-0.0493873 -0.0102767 0.00043113)
(-0.047454 -0.00976729 0.000414255)
(-0.0454835 -0.00933676 0.000397055)
(-0.0434849 -0.00898182 0.000379609)
(-0.00870202 0.830734 7.59709e-05)
(-0.0193003 0.58486 0.000168509)
(-0.0287351 0.413903 0.000250879)
(-0.0367362 0.297116 0.000320731)
(-0.0428787 0.21446 0.000374358)
(-0.0480183 0.154894 0.000419226)
(-0.0518369 0.11105 0.000452562)
(-0.0550168 0.0785641 0.00048032)
(-0.0573274 0.0541986 0.00050049)
(-0.0592107 0.0359304 0.000516927)
(-0.0605266 0.0221683 0.000528411)
(-0.0615226 0.0118709 0.000537101)
(-0.0621429 0.00419525 0.000542512)
(-0.0625096 -0.00144329 0.000545708)
(-0.0626032 -0.00551684 0.000546521)
(-0.0624861 -0.00837245 0.000545494)
(-0.0621571 -0.0102931 0.000542618)
(-0.0616447 -0.0114949 0.000538141)
(-0.0609556 -0.0121546 0.000532123)
(-0.0601062 -0.0124107 0.000524705)
(-0.059106 -0.0123762 0.000515972)
(-0.0579681 -0.0121409 0.000506036)
(-0.0567034 -0.0117766 0.000494995)
(-0.0553241 -0.0113401 0.000482954)
(-0.0538419 -0.0108752 0.000470014)
(-0.0522685 -0.010415 0.000456279)
(-0.0506151 -0.00998323 0.000441846)
(-0.0488926 -0.00959583 0.00042681)
(-0.0471112 -0.00926198 0.00041126)
(-0.0452803 -0.00898528 0.00039528)
(-0.0434087 -0.00876482 0.000378943)
(-0.00762455 0.874507 6.65663e-05)
(-0.0173712 0.62442 0.00015167)
(-0.0262973 0.44809 0.000229599)
(-0.0339776 0.326235 0.00029665)
(-0.039982 0.239231 0.000349072)
(-0.0450268 0.175992 0.000393113)
(-0.0488395 0.12912 0.000426398)
(-0.0520159 0.0941187 0.000454125)
(-0.0543706 0.0676789 0.00047468)
(-0.0562959 0.0476756 0.000491484)
(-0.0576823 0.0324593 0.000503583)
(-0.0587518 0.020922 0.000512915)
(-0.0594614 0.0121791 0.000519106)
(-0.0599233 0.00561213 0.000523134)
(-0.060127 0.000719118 0.000524907)
(-0.0601254 -0.00286637 0.000524889)
(-0.0599218 -0.00544153 0.000523107)
(-0.0595423 -0.00723331 0.00051979)
(-0.0589947 -0.00842581 0.000515007)
(-0.0582942 -0.00916382 0.000508888)
(-0.0574497 -0.00956488 0.000501514)
(-0.0564725 -0.00972271 0.000492981)
(-0.0553718 -0.00971274 0.000483371)
(-0.0541576 -0.0095947 0.00047277)
(-0.0528393 -0.00941542 0.000461262)
(-0.0514264 -0.00921064 0.000448928)
(-0.0499283 -0.00900674 0.00043585)
(-0.0483541 -0.00882202 0.000422108)
(-0.0467125 -0.00866801 0.000407779)
(-0.045012 -0.00855048 0.000392936)
(-0.0432606 -0.00847053 0.000377648)
(-0.00673675 0.914057 5.88171e-05)
(-0.0157479 0.661237 0.0001375)
(-0.0242358 0.4806 0.000211604)
(-0.0316584 0.354388 0.000276405)
(-0.0375756 0.26349 0.000328065)
(-0.0425758 0.196862 0.000371717)
(-0.0464164 0.147126 0.000405245)
(-0.049613 0.109693 0.00043315)
(-0.0520148 0.0812088 0.000454115)
(-0.0539707 0.0594687 0.000471187)
(-0.0553979 0.0427789 0.000483643)
(-0.0564991 0.0299771 0.000493253)
(-0.0572493 0.0201472 0.000499797)
(-0.0577539 0.0126335 0.000504198)
(-0.0580113 0.00691445 0.00050644)
(-0.0580735 0.00260083 0.000506979)
(-0.0579477 -0.000619329 0.000505876)
(-0.0576588 -0.00298647 0.00050335)
(-0.0572152 -0.00469456 0.000499474)
(-0.05663 -0.0058967 0.000494362)
(-0.0559108 -0.00671663 0.000488081)
(-0.0550666 -0.00725317 0.000480709)
(-0.0541044 -0.00758573 0.000472308)
(-0.0530319 -0.00777737 0.000462944)
(-0.0518565 -0.00787774 0.000452682)
(-0.0505854 -0.00792508 0.000441586)
(-0.0492261 -0.007948 0.00042972)
(-0.0477861 -0.00796688 0.00041715)
(-0.0462727 -0.00799516 0.000403939)
(-0.0446933 -0.00804042 0.000390153)
(-0.0430549 -0.00810541 0.000375852)
(-0.00594622 0.949217 5.19169e-05)
(-0.01427 0.694778 0.000124599)
(-0.022314 0.510637 0.000194827)
(-0.0294524 0.380623 0.000257149)
(-0.0352416 0.286207 0.00030769)
(-0.0401618 0.216463 0.000350645)
(-0.0440003 0.164064 0.000384154)
(-0.0472031 0.124364 0.000412114)
(-0.049648 0.0939736 0.000433456)
(-0.0516447 0.0706197 0.000450884)
(-0.0531306 0.0525659 0.000463852)
(-0.0542888 0.0385991 0.000473959)
(-0.0551053 0.0277691 0.000481083)
(-0.0556772 0.0193871 0.000486071)
(-0.0560087 0.012908 0.00048896)
(-0.0561487 0.00792226 0.000490177)
(-0.056107 0.0041036 0.000489809)
(-0.055908 0.00119938 0.000488068)
(-0.0555611 -0.000992971 0.000485035)
(-0.0550791 -0.00263364 0.000480824)
(-0.0544696 -0.00385167 0.000475501)
(-0.0537407 -0.00475025 0.000469135)
(-0.0528986 -0.00541225 0.000461782)
(-0.0519496 -0.00590366 0.000453496)
(-0.0508994 -0.00627662 0.000444327)
(-0.0497539 -0.00657151 0.000434327)
(-0.0485189 -0.00681888 0.000423545)
(-0.0472003 -0.00704082 0.000412035)
(-0.0458042 -0.00725239 0.000399848)
(-0.0443368 -0.00746261 0.00038704)
(-0.0428042 -0.00767564 0.000373663)
(-0.00526736 0.98101 4.59914e-05)
(-0.0129811 0.725987 0.000113347)
(-0.0206286 0.539117 0.000180115)
(-0.0275144 0.405845 0.000240231)
(-0.0331943 0.308284 0.000289819)
(-0.0380538 0.235673 0.000332243)
(-0.0418999 0.180768 0.000365819)
(-0.0451169 0.138896 0.000393902)
(-0.0476041 0.10665 0.000415614)
(-0.0496368 0.0817065 0.000433356)
(-0.0511689 0.0622955 0.000446728)
(-0.0523677 0.0471628 0.00045719)
(-0.0532298 0.0353295 0.000464711)
(-0.0538466 0.0260774 0.000470091)
(-0.0542285 0.0188402 0.000473421)
(-0.054423 0.0131885 0.000475114)
(-0.0544431 0.00878111 0.000475285)
(-0.0543126 0.00535257 0.000474142)
(-0.0540421 0.00269031 0.000471776)
(-0.0536441 0.000625962 0.000468298)
(-0.0531258 -0.000975845 0.00046377)
(-0.0524944 -0.0022234 0.000458256)
(-0.0517552 -0.00320355 0.0004518)
(-0.0509132 -0.00398546 0.000444449)
(-0.0499728 -0.0046238 0.000436239)
(-0.0489386 -0.00516109 0.000427209)
(-0.0478148 -0.00562962 0.000417398)
(-0.046606 -0.00605304 0.000406847)
(-0.0453172 -0.00644773 0.000395596)
(-0.0439532 -0.00682396 0.000383691)
(-0.0425196 -0.00718701 0.000371176)
(-0.00469573 1.00945 4.10017e-05)
(-0.0118478 0.754605 0.000103454)
(-0.0191054 0.565617 0.000166819)
(-0.0257316 0.429533 0.000224668)
(-0.0312835 0.329147 0.000273139)
(-0.0360679 0.253904 0.000314907)
(-0.0399053 0.196667 0.000348408)
(-0.0431264 0.152761 0.000376527)
(-0.0456495 0.11877 0.000398551)