/*--------------------------------*- C++ -*----------------------------------*\
| =========                 |                                                 |
| \\      /  F ield         | OpenFOAM: The Open Source CFD Toolbox           |
|  \\    /   O peration     | Version:  v2012                                 |
|   \\  /    A nd           | Website:  www.openfoam.com                      |
|    \\/     M anipulation  |                                                 |
\*---------------------------------------------------------------------------*/
FoamFile
{
    version     2.0;
    format      ascii;
    class       surfaceScalarField;
    location    "0.4";
    object      alphaPhi0.water;
}
// * * * * * * * * * * * * * * * * * * * * * * * * * * * * * * * * * * * * * //

dimensions      [0 3 -1 0 0 0 0];
oriented        oriented;


internalField   nonuniform List<scalar> 
8048
(
-3.39657e-12
-7.54811e-09
-6.05609e-16
-1.49224e-10
-2.38551e-08
3.29156e-15
-7.70871e-10
-3.23657e-08
-6.07408e-15
1.99331e-09
-3.68113e-08
-5.58671e-15
8.98584e-09
-6.11356e-08
-1.47098e-14
1.51998e-08
-9.24081e-08
-9.34302e-15
1.91258e-08
-1.1799e-07
-3.0442e-14
-1.30992e-07
-2.11499e-14
-3.42145e-12
-7.54469e-09
-2.45677e-15
-1.44099e-10
-2.37144e-08
-6.23879e-15
-3.79593e-10
-3.21302e-08
-1.09212e-14
3.28201e-09
-4.04729e-08
-1.52484e-14
9.46624e-09
-6.73199e-08
-3.55215e-15
1.37604e-08
-9.67022e-08
-1.25536e-14
1.60214e-08
-1.20251e-07
-9.37316e-15
1.64077e-08
-1.31378e-07
-1.46333e-14
1.46809e-08
-1.21159e-07
-1.79829e-14
1.11687e-08
-8.73014e-08
-8.83062e-14
1.04826e-08
-2.78793e-08
6.67429e-14
9.2674e-09
2.05181e-08
-2.98424e-14
6.19037e-09
-1.14412e-08
-1.63844e-14
1.66651e-09
-1.72249e-08
-6.0508e-15
-3.86529e-09
-9.78289e-16
-3.06021e-12
-7.54163e-09
-4.15924e-15
-1.41544e-10
-2.3576e-08
-7.4383e-15
-2.83366e-11
-3.22434e-08
-5.27843e-15
3.9373e-09
-4.44385e-08
-3.56524e-15
8.66322e-09
-7.20459e-08
3.23085e-15
1.13444e-08
-9.93834e-08
-2.5594e-15
1.25541e-08
-1.21461e-07
2.23593e-15
1.21946e-08
-1.31019e-07
-1.27069e-14
9.83611e-09
-1.18801e-07
-3.47105e-14
5.77144e-09
-8.3237e-08
-1.01077e-13
4.71953e-09
-2.6827e-08
6.15605e-14
6.52038e-09
1.87172e-08
-1.47822e-14
5.53676e-09
-1.08188e-08
-1.7927e-14
1.87888e-09
-1.68603e-08
-8.62893e-15
-4.69235e-09
-1.15976e-15
-2.3796e-12
-7.53925e-09
-2.02143e-15
-1.37386e-10
-2.3441e-08
-6.46433e-15
2.41612e-10
-3.26223e-08
-4.77039e-15
3.93988e-09
-4.81367e-08
-1.89111e-15
7.21099e-09
-7.5317e-08
-2.63278e-15
8.91459e-09
-1.01087e-07
-9.41322e-15
9.62264e-09
-1.22169e-07
1.12784e-15
9.01637e-09
-1.30412e-07
-1.60497e-14
6.66318e-09
-1.16447e-07
-1.16201e-14
2.90229e-09
-7.94763e-08
-7.36551e-14
1.8393e-09
-2.57636e-08
1.74157e-14
5.07171e-09
1.54847e-08
-1.02252e-14
4.94066e-09
-1.09344e-08
-2.85127e-14
1.97237e-09
-1.63765e-08
-1.13759e-14
-5.31822e-09
-1.37591e-15
-1.73755e-12
-7.53752e-09
-3.73478e-15
-1.26064e-10
-2.33167e-08
-9.20818e-15
4.26156e-10
-3.31746e-08
-5.06181e-15
3.51995e-09
-5.12305e-08
3.22163e-16
5.72421e-09
-7.75213e-08
7.16121e-17
6.96438e-09
-1.02327e-07
-1.11967e-14
7.50057e-09
-1.22705e-07
-3.39039e-15
6.98123e-09
-1.29893e-07
-2.05665e-14
5.05205e-09
-1.14518e-07
2.90224e-14
2.20537e-09
-7.66298e-08
-2.69189e-14
1.45304e-09
-2.50109e-08
-3.76153e-14
4.77493e-09
1.21628e-08
-3.27809e-14
4.54861e-09
-1.0903e-08
-1.27348e-14
2.00064e-09
-1.58019e-08
-1.02379e-14
-5.76021e-09
-1.57665e-15
-1.1508e-12
-7.53637e-09
-1.52354e-15
-1.06874e-10
-2.32109e-08
-5.55745e-15
5.412e-10
-3.38226e-08
-8.98689e-15
2.97315e-09
-5.36624e-08
-5.16993e-15
4.53558e-09
-7.90838e-08
3.16379e-15
5.56357e-09
-1.03355e-07
-7.56236e-15
6.07619e-09
-1.23218e-07
-2.10383e-15
5.77689e-09
-1.29594e-07
-4.51706e-15
4.37421e-09
-1.13116e-07
3.84541e-15
2.57497e-09
-7.48306e-08
-5.14928e-15
2.3104e-09
-2.47462e-08
-3.75909e-14
4.96306e-09
9.50988e-09
-6.7753e-14
4.30127e-09
-1.04056e-08
4.30009e-15
1.98758e-09
-1.51139e-08
-6.5568e-15
-6.04052e-09
-1.68801e-15
-6.21602e-13
-7.53575e-09
-3.55535e-15
-8.40863e-11
-2.31275e-08
-9.3055e-15
6.10236e-10
-3.45169e-08
-2.70968e-15
2.48653e-09
-5.55387e-08
-1.33141e-15
3.68897e-09
-8.02863e-08
-1.22348e-14
4.57658e-09
-1.04243e-07
-1.24544e-14
5.09561e-09
-1.23737e-07
-1.11005e-14
4.98701e-09
-1.29485e-07
-9.30475e-15
3.98665e-09
-1.12115e-07
-1.69354e-14
2.94674e-09
-7.37908e-08
-2.84861e-14
3.1677e-09
-2.49668e-08
7.51505e-15
5.05399e-09
7.62343e-09
-5.01868e-14
4.07764e-09
-9.56661e-09
3.11883e-15
1.93243e-09
-1.43241e-08
-5.90037e-15
-6.17848e-09
-1.8488e-15
-5.88805e-15
-7.53575e-09
-1.02274e-15
-6.13201e-11
-2.30662e-08
-9.04838e-15
6.54286e-10
-3.52325e-08
-8.01639e-15
2.1174e-09
-5.70017e-08
2.08052e-15
3.09052e-09
-8.12594e-08
-7.08963e-15
3.84115e-09
-1.04993e-07
-2.70995e-15
4.3388e-09
-1.24235e-07
-1.75905e-14
4.32535e-09
-1.29472e-07
-1.5246e-14
3.54206e-09
-1.11332e-07
-1.98744e-14
2.82903e-09
-7.3078e-08
-3.04943e-14
3.36662e-09
-2.55039e-08
2.53903e-14
4.79644e-09
6.19351e-09
-3.80991e-14
3.79596e-09
-8.67689e-09
-5.46251e-15
1.82883e-09
-1.34803e-08
-5.64504e-15
-6.19264e-09
-1.88168e-15
6.83513e-13
-7.53644e-09
-3.92987e-15
-3.92667e-11
-2.30262e-08
-1.0637e-14
6.85536e-10
-3.59573e-08
-3.56063e-15
1.84994e-09
-5.81661e-08
-9.51867e-16
2.6389e-09
-8.20484e-08
-2.27881e-14
3.24756e-09
-1.05602e-07
-2.83495e-15
3.6902e-09
-1.24677e-07
-1.18056e-14
3.69324e-09
-1.29475e-07
-1.18462e-14
2.9961e-09
-1.10635e-07
3.75863e-15
2.2937e-09
-7.23755e-08
4.88673e-15
2.92043e-09
-2.61303e-08
2.70455e-14
4.23702e-09
4.87678e-09
-3.88028e-14
3.44014e-09
-7.96697e-09
-7.04686e-15
1.67732e-09
-1.26362e-08
-5.33673e-15
-6.10311e-09
-1.81199e-15
1.47109e-12
-7.53791e-09
-1.0188e-15
-1.70156e-11
-2.30077e-08
-5.88195e-15
7.06975e-10
-3.66813e-08
-1.00964e-14
1.64628e-09
-5.91054e-08
6.52085e-15
2.27093e-09
-8.26731e-08
-1.04573e-14
2.74657e-09
-1.06077e-07
-1.77982e-14
3.12295e-09
-1.25054e-07
1.34524e-15
3.11327e-09
-1.29465e-07
-2.93006e-14
2.45438e-09
-1.09976e-07
-2.01662e-14
1.64717e-09
-7.15685e-08
-6.19835e-15
2.1923e-09
-2.66753e-08
-3.40155e-14
3.56705e-09
3.50196e-09
-3.20871e-14
3.04007e-09
-7.50769e-09
1.1327e-15
1.48742e-09
-1.18264e-08
-5.3458e-15
-5.93198e-09
-1.82336e-15
2.23879e-12
-7.54015e-09
-3.31482e-15
5.43725e-12
-2.30109e-08
-5.83271e-15
7.16916e-10
-3.73928e-08
-8.17316e-15
1.47557e-09
-5.9864e-08
2.50617e-15
1.95844e-09
-8.3156e-08
-2.43534e-14
2.32561e-09
-1.06445e-07
-1.69788e-14
2.64856e-09
-1.25377e-07
8.70754e-15
2.63737e-09
-1.29454e-07
-2.2523e-14
2.02594e-09
-1.09364e-07
-7.60449e-16
1.14114e-09
-7.06836e-08
1.40888e-14
1.52961e-09
-2.70637e-08
-1.60738e-14
2.95971e-09
2.0718e-09
-1.94847e-14
2.63635e-09
-7.2376e-09
-7.19808e-16
1.27246e-09
-1.1054e-08
-5.79916e-15
-5.69108e-09
-1.79171e-15
2.93031e-12
-7.54309e-09
-1.57703e-15
2.63395e-11
-2.30343e-08
-4.5239e-15
7.1048e-10
-3.8077e-08
-8.46735e-15
1.31938e-09
-6.04729e-08
-9.24535e-16
1.69053e-09
-8.35271e-08
-9.47936e-15
1.9817e-09
-1.06736e-07
-1.71163e-14
2.27651e-09
-1.25671e-07
1.33928e-14
2.29065e-09
-1.29469e-07
-2.87954e-14
1.75205e-09
-1.08826e-07
-1.16194e-14
8.62222e-10
-6.97938e-08
1.0506e-14
1.08824e-09
-2.72897e-08
1.02808e-14
2.4835e-09
6.76551e-10
-1.15366e-14
2.25318e-09
-7.04913e-09
-4.50753e-16
1.0433e-09
-1.02887e-08
-4.87158e-15
-5.34545e-09
-1.73103e-15
3.55357e-12
-7.54665e-09
-2.37919e-15
4.33507e-11
-2.30741e-08
-5.35075e-15
6.84415e-10
-3.87181e-08
-8.76277e-15
1.17125e-09
-6.09597e-08
1.01178e-15
1.46135e-09
-8.38172e-08
-2.25193e-14
1.708e-09
-1.06983e-07
-1.44863e-14
1.9987e-09
-1.25962e-07
1.16769e-14
2.05995e-09
-1.2953e-07
-1.71741e-14
1.60721e-09
-1.08373e-07
-1.69915e-14
7.6288e-10
-6.89493e-08
8.20786e-15
8.50355e-10
-2.73772e-08
3.6279e-14
2.11734e-09
-5.90414e-10
-1.31369e-14
1.8935e-09
-6.86015e-09
-2.55189e-15
8.07418e-10
-9.54062e-09
-4.65647e-15
-4.9302e-09
-1.7048e-15
4.17199e-12
-7.55082e-09
-2.83445e-15
5.39825e-11
-2.31238e-08
-1.27555e-15
6.38321e-10
-3.93025e-08
-9.23835e-15
1.02985e-09
-6.13512e-08
-3.88836e-15
1.26464e-09
-8.40519e-08
-6.08076e-15
1.49134e-09
-1.07209e-07
-2.43516e-14
1.7936e-09
-1.26264e-07
-6.71478e-15
1.9102e-09
-1.29647e-07
-8.02311e-15
1.53669e-09
-1.08e-07
-2.64362e-14
7.45438e-10
-6.81581e-08
-1.683e-14
7.19206e-10
-2.73509e-08
5.98673e-14
1.80553e-09
-1.67673e-09
-2.29401e-15
1.54938e-09
-6.63191e-09
-2.09038e-15
5.70322e-10
-8.80147e-09
-4.24162e-15
-4.48227e-09
-1.56616e-15
4.79095e-12
-7.55562e-09
-2.82873e-15
5.73279e-11
-2.31764e-08
-3.05292e-15
5.76133e-10
-3.98213e-08
-6.56653e-15
8.96813e-10
-6.16719e-08
-7.60364e-16
1.09438e-09
-8.42495e-08
-1.16706e-14
1.31708e-09
-1.07432e-07
-2.52491e-14
1.63741e-09
-1.26584e-07
-9.92914e-15
1.80542e-09
-1.29814e-07
-2.19068e-15
1.49171e-09
-1.07686e-07
-2.04378e-14
7.29356e-10
-6.73957e-08
-3.96581e-14
6.00176e-10
-2.72216e-08
5.38074e-14
1.49657e-09
-2.57317e-09
8.57071e-15
1.20941e-09
-6.36603e-09
-1.63314e-15
3.32989e-10
-8.06303e-09
-4.08968e-15
-3.98041e-09
-1.46172e-15
5.43434e-12
-7.56106e-09
-2.23563e-15
5.45282e-11
-2.32254e-08
-1.57118e-15
5.05069e-10
-4.02718e-08
-6.29683e-15
7.74451e-10
-6.19413e-08
-1.54128e-15
9.46429e-10
-8.44215e-08
-1.47461e-14
1.17348e-09
-1.07659e-07
-4.5861e-15
1.51176e-09
-1.26922e-07
-1.25544e-14
1.72095e-09
-1.30024e-07
-1.90475e-15
1.44504e-09
-1.0741e-07
-1.25124e-14
6.77513e-10
-6.66282e-08
-4.60596e-14
4.43896e-10
-2.69879e-08
1.33504e-14
1.16585e-09
-3.29516e-09
1.25004e-14
8.64729e-10
-6.07884e-09
6.86106e-16
9.70032e-11
-7.327e-09
-3.75156e-15
-3.44222e-09
-1.25022e-15
6.10714e-12
-7.56717e-09
-2.06481e-15
4.85261e-11
-2.32678e-08
-1.76266e-15
4.34348e-10
-4.06577e-08
-7.05697e-15
6.66102e-10
-6.2173e-08
-5.38401e-15
8.19564e-10
-8.4575e-08
-1.25713e-14
1.05353e-09
-1.07893e-07
-1.22784e-14
1.40631e-09
-1.27275e-07
-1.56462e-14
1.64533e-09
-1.30263e-07
-8.85504e-15
1.38923e-09
-1.07154e-07
-6.65808e-15
5.881e-10
-6.5827e-08
-3.58333e-14
2.45893e-10
-2.66456e-08
-2.88981e-14
8.12883e-10
-3.86215e-09
-1.87911e-14
5.11989e-10
-5.783e-09
-3.85827e-16
-9.55097e-11
-6.59034e-09
-2.8207e-15
-2.89125e-09
-1.0531e-15
6.75979e-12
-7.57393e-09
-1.37942e-15
4.27358e-11
-2.33038e-08
-4.86621e-15
3.71632e-10
-4.09866e-08
-3.24296e-15
5.74131e-10
-6.23755e-08
-2.498e-15
7.13273e-10
-8.47141e-08
-1.44982e-14
9.5361e-10
-1.08134e-07
-1.25218e-14
1.3164e-09
-1.27638e-07
-9.85992e-15
1.57553e-09
-1.30522e-07
-1.22307e-14
1.32725e-09
-1.06906e-07
-4.10408e-15
4.75437e-10
-6.49751e-08
-1.64073e-14
2.75141e-11
-2.61976e-08
-4.96532e-14
4.47574e-10
-4.28242e-09
-6.79888e-14
1.51592e-10
-5.47992e-09
-1.24993e-14
-2.41736e-10
-5.85468e-09
-3.59701e-15
-2.35072e-09
-1.0139e-15
7.37084e-12
-7.5813e-09
-1.61209e-15
4.04749e-11
-2.33369e-08
-3.35872e-15
3.22167e-10
-4.12683e-08
-8.08701e-15
5.00198e-10
-6.25535e-08
-7.04585e-15
6.27589e-10
-8.48415e-08
-1.43465e-14
8.72076e-10
-1.08378e-07
-1.41756e-14
1.24036e-09
-1.28006e-07
-1.30855e-14
1.51182e-09
-1.30793e-07
-1.57797e-14
1.26369e-09
-1.06658e-07
-1.28183e-14
3.50432e-10
-6.40617e-08
-5.1493e-15
-2.1589e-10
-2.56311e-08
-3.73531e-14
7.63486e-11
-4.57432e-09
-4.87831e-14
-2.07797e-10
-5.164e-09
-9.30481e-15
-3.5797e-10
-5.12543e-09
-3.33664e-15
-1.84536e-09
-8.12458e-16
7.90787e-12
-7.58921e-09
-1.03539e-15
4.35439e-11
-2.33725e-08
-3.02659e-15
2.87548e-10
-4.15123e-08
-9.09799e-15
4.4383e-10
-6.27097e-08
-5.49255e-15
5.60929e-10
-8.49587e-08
-1.04285e-14
8.0688e-10
-1.08624e-07
-1.03355e-14
1.17692e-09
-1.28376e-07
-1.06304e-14
1.45502e-09
-1.31072e-07
-1.4554e-14
1.20369e-09
-1.06406e-07
-2.6034e-14
2.2217e-10
-6.30801e-08
-1.20596e-14
-4.63652e-10
-2.49451e-08
-5.69294e-15
-2.92503e-10
-4.74425e-09
-5.05682e-14
-5.55502e-10
-4.82464e-09
-1.22305e-14
-4.36694e-10
-4.40893e-09
-2.93142e-15
-1.39825e-09
-6.27697e-16
8.39181e-12
-7.5976e-09
-1.46062e-15
5.22439e-11
-2.34163e-08
-1.92657e-15
2.66821e-10
-4.17269e-08
-9.45493e-15
4.03095e-10
-6.2846e-08
-7.13379e-15
5.10581e-10
-8.50662e-08
-1.40351e-14
7.55229e-10
-1.08869e-07
-1.41381e-14
1.12366e-09
-1.28745e-07
-1.32654e-14
1.40382e-09
-1.31352e-07
-1.2087e-14
1.14698e-09
-1.0615e-07
-2.66281e-14
8.7322e-11
-6.20203e-08
-1.76179e-14
-7.21175e-10
-2.41364e-08
-3.81286e-15
-6.66312e-10
-4.79615e-09
-5.20489e-14
-8.83201e-10
-4.46063e-09
-1.12157e-14
-4.75433e-10
-3.71639e-09
-2.48098e-15
-1.02536e-09
-4.96268e-16
8.83578e-12
-7.60644e-09
-1.6623e-15
6.50674e-11
-2.34726e-08
-7.94554e-16
2.56758e-10
-4.19186e-08
-9.68367e-15
3.74238e-10
-6.29634e-08
-6.9176e-15
4.72357e-10
-8.51643e-08
-1.1858e-14
7.1314e-10
-1.0911e-07
-1.3932e-14
1.07706e-09
-1.29109e-07
-1.21114e-14
1.35573e-09
-1.3163e-07
-7.73441e-15
1.09168e-09
-1.05886e-07
-2.38906e-14
-5.55553e-11
-6.0873e-08
-2.9298e-14
-9.93133e-10
-2.31985e-08
-6.47755e-15
-1.04769e-09
-4.73509e-09
-5.06786e-14
-1.17618e-09
-4.07654e-09
-8.98226e-15
-4.78274e-10
-3.06473e-09
-1.87054e-15
-7.32473e-10
-3.86586e-16
9.19982e-12
-7.61564e-09
-1.90719e-15
7.93609e-11
-2.35427e-08
-1.46143e-15
2.53221e-10
-4.20925e-08
-8.74131e-15
3.52746e-10
-6.30629e-08
-6.26837e-15
4.41485e-10
-8.52531e-08
-1.16072e-14
6.75993e-10
-1.09344e-07
-1.33364e-14
1.03269e-09
-1.29465e-07
-1.10288e-14
1.30711e-09
-1.31905e-07
-8.92273e-15
1.03528e-09
-1.05614e-07
-2.24643e-14
-2.09313e-10
-5.96282e-08
-4.22527e-14
-1.29213e-09
-2.21151e-08
-9.30871e-16
-1.42958e-09
-4.58376e-09
-2.28793e-14
-1.41759e-09
-3.67776e-09
-3.67248e-15
-4.54942e-10
-2.47314e-09
-1.29201e-15
-5.14872e-10
-2.90614e-16
9.46881e-12
-7.62511e-09
-1.89471e-15
9.2198e-11
-2.36254e-08
-1.06462e-15
2.52007e-10
-4.22523e-08
-5.90271e-15
3.33907e-10
-6.31448e-08
-5.64588e-15
4.12961e-10
-8.53322e-08
-1.84131e-14
6.38635e-10
-1.0957e-07
-1.03426e-14
9.8516e-10
-1.29812e-07
-9.83155e-15
1.25297e-09
-1.32173e-07
-1.25378e-14
9.72815e-10
-1.05334e-07
-1.90206e-14
-3.86765e-10
-5.82683e-08
-4.09373e-14
-1.62645e-09
-2.08745e-08
-3.12179e-14
-1.80261e-09
-4.37904e-09
-1.54986e-14
-1.59411e-09
-3.27282e-09
-2.31501e-15
-4.17505e-10
-1.95754e-09
-8.39203e-16
-3.60382e-10
-1.95978e-16
9.65373e-12
-7.63477e-09
-1.88682e-15
1.01137e-10
-2.37169e-08
-9.1898e-16
2.49463e-10
-4.24006e-08
-7.04708e-15
3.13435e-10
-6.32088e-08
-6.20121e-15
3.8222e-10
-8.5401e-08
-1.70809e-14
5.96082e-10
-1.09784e-07
-8.20101e-15
9.29107e-10
-1.30145e-07
-5.86317e-15
1.18839e-09
-1.32432e-07
-8.96691e-15
8.98364e-10
-1.05044e-07
-3.12886e-15
-5.94894e-10
-5.67747e-08
-1.76794e-14
-1.98892e-09
-1.94787e-08
-7.97485e-14
-2.15263e-09
-4.15935e-09
-3.12098e-14
-1.70077e-09
-2.87274e-09
-3.70676e-15
-3.76498e-10
-1.52568e-09
-7.03641e-16
-2.53817e-10
-1.53645e-16
9.77115e-12
-7.64454e-09
-1.22746e-15
1.04764e-10
-2.38119e-08
-4.16722e-15
2.43142e-10
-4.2539e-08
-3.99272e-15
2.88249e-10
-6.32539e-08
-7.75555e-15
3.45668e-10
-8.54585e-08
-1.17015e-14
5.44166e-10
-1.09982e-07
-1.23463e-14
8.59991e-10
-1.30461e-07
-1.51833e-14
1.10895e-09
-1.32681e-07
-1.4117e-14
8.06737e-10
-1.04741e-07
-1.63488e-14
-8.36155e-10
-5.51315e-08
-3.40543e-14
-2.35733e-09
-1.79543e-08
-1.28887e-13
-2.46295e-09
-3.95122e-09
-1.81068e-14
-1.74259e-09
-2.48951e-09
-2.09309e-15
-3.38555e-10
-4.77605e-16
-1.09541e-16
9.83512e-12
-7.65437e-09
-1.28091e-15
1.02881e-10
-2.39049e-08
-3.152e-15
2.3152e-10
-4.26676e-08
-7.74997e-15
2.56291e-10
-6.32786e-08
-9.95425e-15
3.00771e-10
-8.55029e-08
-1.05442e-14
4.80012e-10
-1.10161e-07
-1.12711e-14
7.75013e-10
-1.30756e-07
-1.31217e-14
1.01158e-09
-1.32918e-07
-1.32821e-14
6.94767e-10
-1.04425e-07
1.58219e-15
-1.10875e-09
-5.33274e-08
-1.54056e-14
-2.6995e-09
-1.63569e-08
-1.31232e-13
-2.71636e-09
-3.76117e-09
-1.15326e-14
-2.13305e-09
-1.73045e-15
9.90921e-12
-7.66428e-09
-1.29359e-15
9.63756e-11
-2.39914e-08
-3.88439e-15
2.14482e-10
-4.27857e-08
-5.43924e-15
2.17355e-10
-6.32815e-08
-8.02882e-15
2.47122e-10
-8.55327e-08
-1.33522e-14
4.03167e-10
-1.10317e-07
-9.58698e-15
6.7425e-10
-1.31027e-07
-1.63086e-14
8.95966e-10
-1.33139e-07
-8.49567e-15
5.62801e-10
-1.04091e-07
5.44393e-16
-1.40559e-09
-5.13584e-08
1.95207e-14
-2.9842e-09
-1.47655e-08
-1.384e-13
-2.89843e-09
-3.57786e-09
-2.43815e-14
-1.80873e-09
-2.96702e-15
1.00272e-11
-7.67431e-09
-1.41302e-15
8.65982e-11
-2.4068e-08
-3.54116e-15
1.92323e-10
-4.28915e-08
-5.55017e-15
1.72016e-10
-6.32612e-08
-1.0596e-14
1.85826e-10
-8.55465e-08
-6.23227e-15
3.15595e-10
-1.10447e-07
-8.57404e-15
5.61383e-10
-1.31273e-07
-1.60696e-14
7.65504e-10
-1.33343e-07
-8.73302e-15
4.17489e-10
-1.03743e-07
-3.3499e-15
-1.70404e-09
-4.92362e-08
3.32602e-14
-3.18318e-09
-1.32631e-08
-7.59381e-14
-2.9983e-09
-3.37828e-09
-1.68513e-14
-1.51471e-09
-2.71137e-15
1.01914e-11
-7.6845e-09
-1.27332e-15
7.52174e-11
-2.4133e-08
-3.8211e-15
1.66495e-10
-4.29827e-08
-7.90525e-15
1.22866e-10
-6.32176e-08
-1.23343e-14
1.20488e-10
-8.55441e-08
-1.1252e-14
2.22732e-10
-1.10549e-07
-1.53907e-14
4.44524e-10
-1.31494e-07
-1.50547e-14
6.28779e-10
-1.33528e-07
-1.46957e-14
2.71963e-10
-1.03387e-07
-4.48925e-15
-1.9641e-09
-4.69994e-08
2.20949e-14
-3.28353e-09
-1.19042e-08
-1.33407e-14
-3.01534e-09
-3.13977e-09
-3.03242e-15
-1.24553e-09
-1.461e-15
1.03125e-11
-7.69481e-09
-1.40541e-15
6.34017e-11
-2.41861e-08
-4.38495e-15
1.38293e-10
-4.30576e-08
-5.31175e-15
7.28021e-11
-6.31521e-08
-1.15033e-14
5.59308e-11
-8.55272e-08
-6.09793e-15
1.32576e-10
-1.10626e-07
-1.00842e-14
3.35386e-10
-1.31697e-07
-1.2428e-14
4.99393e-10
-1.33692e-07
-1.06484e-14
1.4798e-10
-1.03035e-07
-5.16299e-15
-2.11545e-09
-4.47354e-08
8.72358e-15
-3.27184e-09
-1.06871e-08
4.46708e-14
-2.95448e-09
-2.8396e-09
8.83253e-15
-9.91228e-10
-4.51216e-16
1.0331e-11
-7.70514e-09
-1.55413e-15
5.23247e-11
-2.42281e-08
-4.05553e-15
1.09827e-10
-4.31151e-08
-4.75252e-15
2.60482e-11
-6.30684e-08
-1.19012e-14
-1.55431e-12
-8.54996e-08
-1.2499e-14
5.54949e-11
-1.10683e-07
-1.57134e-14
2.48731e-10
-1.31891e-07
-1.44548e-14
3.95138e-10
-1.33838e-07
-1.59892e-14
7.09612e-11
-1.02711e-07
-3.23288e-15
-2.10511e-09
-4.25589e-08
4.75006e-15
-3.15888e-09
-9.55132e-09
6.35056e-14
-2.83208e-09
-2.4705e-09
1.22433e-14
-7.47125e-10
1.2256e-17
1.01014e-11
-7.71524e-09
-1.52564e-15
4.2422e-11
-2.42604e-08
-4.33313e-15
8.24918e-11
-4.31552e-08
-5.33791e-15
-1.42129e-11
-6.29717e-08
-9.73954e-15
-4.69962e-11
-8.54668e-08
-1.16383e-14
1.62716e-12
-1.10732e-07
-1.33308e-14
1.98747e-10
-1.32088e-07
-1.2435e-14
3.40959e-10
-1.3398e-07
-1.7777e-14
9.23343e-11
-1.02462e-07
-4.67924e-15
-1.8258e-09
-4.06405e-08
1.67157e-14
-2.92348e-09
-8.35905e-09
5.86412e-14
-2.66108e-09
-2.01086e-09
1.1897e-14
-5.08558e-10
7.4004e-16
9.50275e-12
-7.72474e-09
-1.68079e-15
3.41363e-11
-2.4285e-08
-4.90982e-15
5.77259e-11
-4.31788e-08
-4.94007e-15
-4.56351e-11
-6.28683e-08
-9.67339e-15
-7.77041e-11
-8.54347e-08
-1.39238e-14
-2.44965e-11
-1.10785e-07
-1.64729e-14
1.88839e-10
-1.32301e-07
-1.10647e-14
3.49021e-10
-1.3414e-07
-1.07061e-14
2.15943e-10
-1.02329e-07
-1.87111e-14
-1.29368e-09
-3.91309e-08
9.58897e-15
-2.5838e-09
-6.97723e-09
3.78392e-14
-2.44157e-09
-1.46711e-09
7.94763e-15
-2.79044e-10
6.96435e-16
8.48868e-12
-7.73323e-09
-1.62723e-15
2.74811e-11
-2.4304e-08
-4.6405e-15
3.55964e-11
-4.31869e-08
-6.23726e-15
-6.89621e-11
-6.27638e-08
-1.00641e-14
-9.51224e-11
-8.54086e-08
-9.33018e-15
-2.54426e-11
-1.10855e-07
-1.68484e-14
2.109e-10
-1.32537e-07
-1.11978e-14
4.24615e-10
-1.34354e-07
-1.30688e-14
4.58887e-10
-1.02364e-07
-1.17005e-14
-3.03623e-10
-3.83683e-08
-9.98137e-15
-2.09208e-09
-5.11587e-09
3.53006e-14
-2.15494e-09
-8.15009e-10
8.63878e-15
-8.04905e-11
1.02515e-15
7.00968e-12
-7.74024e-09
-1.76908e-15
2.19042e-11
-2.43189e-08
-4.65212e-15
1.43406e-11
-4.31794e-08
-5.38422e-15
-9.00472e-11
-6.26594e-08
-9.61412e-15
-1.1047e-10
-8.53881e-08
-1.39173e-14
-2.40655e-11
-1.10941e-07
-1.46152e-14
2.2721e-10
-1.32789e-07
-1.14749e-14
5.00338e-10
-1.34627e-07
-7.06187e-15
5.71116e-10
-1.02434e-07
-1.52504e-14
7.34245e-10
-3.85314e-08
-1.36159e-14
-1.42515e-09
-2.91089e-09
2.83304e-14
-1.62951e-09
-1.74116e-10
8.26859e-15
6.12341e-11
1.01725e-15
4.95633e-12
-7.74519e-09
-1.62076e-15
1.65133e-11
-2.43305e-08
-4.65761e-15
-8.82787e-12
-4.31541e-08
-6.15303e-15
-1.16765e-10
-6.25515e-08
-9.93578e-15
-1.39528e-10
-8.53653e-08
-9.09308e-15
-5.65019e-11
-1.11024e-07
-1.46954e-14
1.86415e-10
-1.33031e-07
-1.16422e-14
5.38419e-10
-1.34979e-07
-7.76778e-15
6.46878e-10
-1.02543e-07
-7.55271e-15
1.96082e-09
-3.98454e-08
3.5633e-15
-9.27157e-10
1.39117e-15
-8.20246e-10
1.77325e-15
2.06092e-16
2.81433e-12
-7.74801e-09
-1.89953e-15
1.30599e-11
-2.43407e-08
-4.66188e-15
-2.95046e-11
-4.31115e-08
-6.10056e-15
-1.40864e-10
-6.24401e-08
-1.12233e-14
-1.70129e-10
-8.53361e-08
-1.15291e-14
-1.14521e-10
-1.1108e-07
-9.64381e-15
7.30336e-11
-1.33219e-07
-1.22266e-14
2.90189e-10
-1.35196e-07
-5.78775e-15
-2.82551e-10
-1.0197e-07
-7.64085e-15
-4.0128e-08
-8.54379e-15
1.25585e-12
-7.74926e-09
-1.84005e-15
1.30331e-11
-2.43525e-08
-4.57621e-15
-4.23895e-11
-4.30561e-08
-6.602e-15
-1.47037e-10
-6.23355e-08
-1.00166e-14
-1.64682e-10
-8.53184e-08
-9.82501e-15
-9.57449e-11
-1.11149e-07
-1.04874e-14
1.38261e-10
-1.33453e-07
-9.84809e-15
4.21437e-10
-1.3548e-07
-8.71167e-15
2.36803e-10
-1.01785e-07
-4.87756e-15
-3.98912e-08
-9.87372e-15
2.64927e-13
-7.74953e-09
-2.08539e-15
1.41639e-11
-2.43664e-08
-5.00713e-15
-5.27356e-11
-4.29892e-08
-6.78875e-15
-1.48376e-10
-6.22399e-08
-1.02904e-14
-1.55731e-10
-8.5311e-08
-1.03352e-14
-7.65807e-11
-1.11228e-07
-1.18533e-14
1.73941e-10
-1.33704e-07
-1.09368e-14
4.725e-10
-1.35778e-07
-7.6129e-15
3.2245e-10
-1.01635e-07
-7.91523e-15
-3.95687e-08
3.33141e-17
-2.39219e-13
-7.74929e-09
-2.02851e-15
1.49975e-11
-2.43816e-08
-4.92095e-15
-6.14682e-11
-4.29127e-08
-6.87684e-15
-1.45036e-10
-6.21563e-08
-9.35431e-15
-1.39897e-10
-8.53161e-08
-9.32288e-15
-4.79058e-11
-1.1132e-07
-1.48286e-14
2.19804e-10
-1.33971e-07
-1.56921e-14
5.40558e-10
-1.36099e-07
-1.68136e-14
3.97626e-10
-1.01492e-07
-2.54333e-14
-3.91711e-08
-4.11753e-15
-3.49781e-13
-7.74894e-09
-2.08782e-15
1.42685e-11
-2.43962e-08
-4.85184e-15
-7.00009e-11
-4.28285e-08
-7.96375e-15
-1.40105e-10
-6.20862e-08
-1.00189e-14
-1.22812e-10
-8.53334e-08
-9.98709e-15
-1.99308e-11
-1.11423e-07
-1.89653e-14
2.59439e-10
-1.34251e-07
1.31106e-15
5.90476e-10
-1.3643e-07
-1.95287e-15
4.33057e-10
-1.01335e-07
6.85143e-17
-3.8738e-08
1.56203e-14
-2.23411e-13
-7.74871e-09
-2.10964e-15
1.11017e-11
-2.44076e-08
-4.30716e-15
-7.88932e-11
-4.27385e-08
-7.65192e-15
-1.34258e-10
-6.20309e-08
-9.17304e-15
-1.04445e-10
-8.53632e-08
-1.10597e-14
8.96294e-12
-1.11536e-07
-2.40942e-14
2.99377e-10
-1.34541e-07
-2.46216e-15
6.41096e-10
-1.36772e-07
-1.20162e-14
4.7068e-10
-1.01165e-07
-5.69853e-15
-3.82673e-08
-3.77804e-15
7.33387e-14
-7.74879e-09
-2.27229e-15
5.73485e-12
-2.44132e-08
-6.73244e-15
-8.7315e-11
-4.26454e-08
-8.24219e-15
-1.26767e-10
-6.19915e-08
-1.47683e-14
-8.39184e-11
-8.5406e-08
-3.96764e-15
3.98409e-11
-1.1166e-07
-8.13994e-15
3.40623e-10
-1.34842e-07
-9.25759e-15
6.91804e-10
-1.37123e-07
-8.92274e-15
5.06368e-10
-1.00979e-07
-3.72457e-15
-3.7761e-08
-1.02782e-14
4.69883e-13
-7.74926e-09
-2.41891e-15
-1.19919e-12
-2.44116e-08
-5.65258e-15
-9.46633e-11
-4.25519e-08
-7.37436e-15
-1.17161e-10
-6.1969e-08
-1.42379e-14
-6.06027e-11
-8.54626e-08
-5.7399e-15
7.32755e-11
-1.11794e-07
-1.28979e-14
3.85208e-10
-1.35154e-07
-9.96878e-15
7.45897e-10
-1.37483e-07
-7.74408e-15
5.44983e-10
-1.00778e-07
-5.82743e-15
-3.7216e-08
-1.38249e-14
9.56525e-13
-7.75021e-09
-2.32886e-15
-8.31633e-12
-2.44023e-08
-6.61632e-15
-9.94588e-11
-4.24608e-08
-8.92682e-15
-1.04045e-10
-6.19644e-08
-1.19803e-14
-3.3454e-11
-8.55331e-08
-6.76943e-15
1.10669e-10
-1.11938e-07
-1.3412e-14
4.34091e-10
-1.35477e-07
-6.57253e-15
8.04185e-10
-1.37854e-07
-9.13469e-15
5.86228e-10
-1.0056e-07
-1.07876e-14
-3.66298e-08
-1.14099e-14
1.50901e-12
-7.75172e-09
-2.32252e-15
-1.41757e-11
-2.43866e-08
-6.3804e-15
-1.00447e-10
-4.23745e-08
-8.13677e-15
-8.61628e-11
-6.19787e-08
-1.21795e-14
-1.2105e-12
-8.5618e-08
-8.05657e-15
1.53374e-10
-1.12093e-07
-1.54862e-14
4.88552e-10
-1.35812e-07
-8.99874e-15
8.67935e-10
-1.38233e-07
-5.54064e-15
6.31111e-10
-1.00324e-07
-4.35305e-15
-3.59987e-08
-1.38818e-14
2.14589e-12
-7.75387e-09
-2.48023e-15
-1.71598e-11
-2.43673e-08
-6.85763e-15
-9.62749e-11
-4.22954e-08
-7.97694e-15
-6.24113e-11
-6.20126e-08
-1.28445e-14
3.63387e-11
-8.57167e-08
-5.20176e-15
2.02259e-10
-1.12259e-07
-1.67366e-14
5.49695e-10
-1.3616e-07
-9.17087e-15
9.38131e-10
-1.38621e-07
-6.7885e-15
6.80198e-10
-1.00066e-07
-4.01299e-15
-3.53186e-08
-1.74719e-14
2.87759e-12
-7.75674e-09
-2.39853e-15
-1.60907e-11
-2.43483e-08
-7.05108e-15
-8.60651e-11
-4.22254e-08
-8.30107e-15
-3.19318e-11
-6.20668e-08
-1.17475e-14
8.01962e-11
-8.58288e-08
-5.40716e-15
2.58209e-10
-1.12437e-07
-1.51166e-14
6.18406e-10
-1.3652e-07
-8.96267e-15
1.01562e-09
-1.39019e-07
-3.24145e-15
7.33997e-10
-9.9784e-08
-4.8007e-16
-3.45846e-08
-9.92929e-15
3.73053e-12
-7.76047e-09
-2.49268e-15
-1.01493e-11
-2.43344e-08
-7.03432e-15
-6.91396e-11
-4.21664e-08
-7.93609e-15
5.69215e-12
-6.21416e-08
-1.14044e-14
1.30754e-10
-8.59538e-08
-8.91944e-15
3.21707e-10
-1.12628e-07
-1.49872e-14
6.95374e-10
-1.36893e-07
-8.43283e-15
1.10118e-09
-1.39425e-07
-7.27404e-15
7.92969e-10
-9.94758e-08
-8.40595e-15
-3.37916e-08
1.36651e-15
4.72657e-12
-7.7652e-09
-2.51079e-15
7.00969e-13
-2.43304e-08
-7.06234e-15
-4.55802e-11
-4.21201e-08
-7.83403e-15
5.02081e-11
-6.22374e-08
-1.23138e-14
1.87891e-10
-8.60915e-08
-7.23569e-15
3.92857e-10
-1.12833e-07
-1.44693e-14
7.80996e-10
-1.37281e-07
-7.2962e-15
1.19528e-09
-1.39839e-07
-1.33321e-14
8.57744e-10
-9.91382e-08
-1.33828e-14
-3.29338e-08
-1.52257e-14
5.88582e-12
-7.77109e-09
-2.79066e-15
1.57523e-11
-2.43403e-08
-6.92373e-15
-1.59784e-11
-4.20883e-08
-7.29456e-15
1.00746e-10
-6.23542e-08
-9.33981e-15
2.51048e-10
-8.62418e-08
-9.25676e-15
4.71189e-10
-1.13053e-07
-1.78555e-14
8.75019e-10
-1.37685e-07
-8.02378e-15
1.29785e-09
-1.40262e-07
-8.19245e-15
9.28398e-10
-9.87687e-08
3.3139e-16
-3.20055e-08
5.80743e-15
7.21967e-12
-7.77831e-09
-2.8402e-15
3.33462e-11
-2.43664e-08
-6.78087e-15
1.80774e-11
-4.2073e-08
-6.40025e-15
1.55765e-10
-6.24919e-08
-1.14055e-14
3.19033e-10
-8.6405e-08
-7.28972e-15
5.55813e-10
-1.1329e-07
-1.95937e-14
9.76956e-10
-1.38106e-07
-4.00569e-15
1.40865e-09
-1.40693e-07
-1.05673e-14
1.00499e-09
-9.8365e-08
1.76699e-15
-3.10005e-08
-5.51264e-15
8.72879e-12
-7.78704e-09
-2.98822e-15
5.12734e-11
-2.44089e-08
-6.22964e-15
5.4819e-11
-4.20766e-08
-7.10852e-15
2.13631e-10
-6.26507e-08
-1.09125e-14
3.90677e-10
-8.6582e-08
-8.39897e-15
6.45732e-10
-1.13545e-07
-1.77307e-14
1.08623e-09
-1.38547e-07
-3.18873e-15
1.52757e-09
-1.41135e-07
-1.67292e-14
1.08761e-09
-9.7925e-08
-9.6584e-15
-2.99129e-08
1.0079e-15
1.0397e-11
-7.79743e-09
-3.00478e-15
6.69471e-11
-2.44655e-08
-6.57901e-15
9.20323e-11
-4.21017e-08
-6.44737e-15
2.71996e-10
-6.28307e-08
-1.05759e-14
4.64146e-10
-8.67742e-08
-9.0313e-15
7.39212e-10
-1.1382e-07
-1.9835e-14
1.20159e-09
-1.39009e-07
-3.92767e-15
1.65391e-09
-1.41587e-07
-7.96194e-15
1.17617e-09
-9.74472e-08
-3.12565e-15
-2.87367e-08
-7.52765e-15
1.21962e-11
-7.80963e-09
-3.36246e-15
7.81726e-11
-2.45314e-08
-6.71932e-15
1.27985e-10
-4.21515e-08
-6.48054e-15
3.29173e-10
-6.30319e-08
-9.94302e-15
5.38357e-10
-8.69833e-08
-6.10983e-15
8.35404e-10
-1.14117e-07
-1.146e-14
1.32248e-09
-1.39496e-07
-7.87915e-15
1.7873e-09
-1.42052e-07
-1.11052e-14
1.27059e-09
-9.69305e-08
-7.6943e-15
-2.74661e-08
-1.83589e-15
1.40933e-11
-7.82372e-09
-3.33434e-15
8.34396e-11
-2.46008e-08
-7.76603e-15
1.61383e-10
-4.22294e-08
-6.43205e-15
3.836e-10
-6.32541e-08
-1.15492e-14
6.1185e-10
-8.72116e-08
-8.45604e-15
9.3292e-10
-1.14438e-07
-1.22322e-14
1.44789e-09
-1.40011e-07
-9.20406e-15
1.92733e-09
-1.42531e-07
-8.05509e-15
1.37098e-09
-9.63742e-08
-4.71597e-15
-2.60952e-08
-4.97555e-15
1.60691e-11
-7.83979e-09
-3.55719e-15
8.25107e-11
-2.46672e-08
-8.64941e-15
1.91977e-10
-4.23389e-08
-6.03982e-15
4.34916e-10
-6.34971e-08
-8.90311e-15
6.84381e-10
-8.7461e-08
-7.61778e-15
1.03168e-09
-1.14785e-07
-1.34475e-14
1.57768e-09
-1.40557e-07
-1.25654e-14
2.07416e-09
-1.43028e-07
-8.97622e-15
1.47759e-09
-9.57776e-08
-8.09737e-15
-2.46176e-08
-2.31535e-15
1.80952e-11
-7.85788e-09
-3.52708e-15
7.63212e-11
-2.47255e-08
-9.77765e-15
2.19975e-10
-4.24825e-08
-6.41708e-15
4.82969e-10
-6.37601e-08
-7.98104e-15
7.55705e-10
-8.77338e-08
-7.81648e-15
1.13167e-09
-1.15161e-07
-1.44713e-14
1.71187e-09
-1.41137e-07
-1.17664e-14
2.22818e-09
-1.43544e-07
-7.68646e-15
1.591e-09
-9.51404e-08
-6.53355e-15
-2.30266e-08
2.24105e-15
2.01442e-11
-7.87802e-09
-4.35767e-15
6.70928e-11
-2.47724e-08
-1.02755e-14
2.46474e-10
-4.26619e-08
-6.58077e-15
5.28615e-10
-6.40422e-08
-9.12727e-15
8.26126e-10
-8.80313e-08
-8.96151e-15
1.2331e-09
-1.15568e-07
-1.14649e-14
1.85052e-09
-1.41755e-07
-1.2229e-14
2.38983e-09
-1.44084e-07
-5.96513e-15
1.71202e-09
-9.44626e-08
-3.55481e-15
-2.13146e-08
-1.33833e-15
2.21863e-11
-7.90021e-09
-4.51221e-15
5.76143e-11
-2.48078e-08
-1.04493e-14
2.72446e-10
-4.28767e-08
-4.68235e-15
5.72467e-10
-6.43422e-08
-1.22353e-14
8.95569e-10
-8.83544e-08
-1.04617e-14
1.33577e-09
-1.16009e-07
-1.26204e-14
1.99322e-09
-1.42412e-07
-1.12515e-14
2.55923e-09
-1.4465e-07
-9.11309e-15
1.84138e-09
-9.37447e-08
-5.92376e-15
-1.94732e-08
-2.36649e-15
2.4159e-11
-7.92437e-09
-5.05856e-15
5.09887e-11
-2.48347e-08
-1.24502e-14
2.99041e-10
-4.31248e-08
-5.09727e-15
6.15194e-10
-6.46584e-08
8.00222e-16
9.63549e-10
-8.87028e-08
-8.9352e-15
1.43862e-09
-1.16484e-07
-1.30562e-14
2.13847e-09
-1.43112e-07
-1.19934e-14
2.73584e-09
-1.45247e-07
-6.92073e-15
1.98001e-09
-9.29889e-08
-7.9028e-15
-1.74931e-08
4.63514e-15
2.59366e-11
-7.9503e-09
-5.41427e-15
4.96817e-11
-2.48584e-08
-1.27943e-14
3.26298e-10
-4.34014e-08
-3.35072e-15
6.55572e-10
-6.49877e-08
-3.86307e-15
1.02734e-09
-8.90746e-08
-1.04327e-14
1.53798e-09
-1.16994e-07
-1.08205e-14
2.28223e-09
-1.43856e-07
-1.09187e-14
2.91723e-09
-1.45882e-07
-8.59431e-15
2.12863e-09
-9.22003e-08
-8.52863e-15
-1.53645e-08
7.86658e-15
2.72864e-11
-7.97759e-09
-6.15502e-15
5.50904e-11
-2.48862e-08
-1.28042e-14
3.53003e-10
-4.36993e-08
-2.39641e-15
6.90711e-10
-6.53254e-08
-1.54433e-15
1.08159e-09
-8.94655e-08
-1.22556e-14
1.62645e-09
-1.17539e-07