/*--------------------------------*- C++ -*----------------------------------*\
| =========                 |                                                 |
| \\      /  F ield         | OpenFOAM: The Open Source CFD Toolbox           |
|  \\    /   O peration     | Version:  v2006                                 |
|   \\  /    A nd           | Website:  www.openfoam.com                      |
|    \\/     M anipulation  |                                                 |
\*---------------------------------------------------------------------------*/
FoamFile
{
    version     2.0;
    format      ascii;
    class       volScalarField;
    location    "0.04";
    object      p_rgh;
}
// * * * * * * * * * * * * * * * * * * * * * * * * * * * * * * * * * * * * * //

dimensions      [1 -1 -2 0 0 0 0];


internalField   nonuniform List<scalar> 
3591
(
111617
110365
110680
110321
106926
118582
109838
110267
110386
122318
109947
109803
119289
123976
111193
117167
110645
102424
118838
105694
106952
105640
110341
110337
110368
110340
110219
81615.7
109976
110215
110194
110221
110220
110390
110390
110342
110361
110356
110348
113109
110351
109876
113643
108373
110175
113283
110198
110356
113387
113045
110220
110322
110213
110344
110404
78274.9
110361
107366
110232
110237
101948
111683
86555.8
110365
110749
111657
110327
110498
110387
123169
114725
109809
110330
110354
110271
111321
110359
110141
122750
111673
110644
116403
119088
110400
110639
110404
109957
110262
110422
110400
110399
110205
105404
110347
110352
110342
110333
110358
102998
110153
110184
106300
109088
110405
124693
110250
110203
110206
110235
110278
110399
110422
110256
110432
110404
110298
110403
110404
110081
110201
110706
110651
110298
110327
106207
107347
109945
126507
110416
121981
110174
110292
123281
110246
86336.4
111390
111476
98296.3
107489
89633.1
110271
99460.4
110144
110227
101853
110077
94035.7
110395
110401
110400
87340
110368
88900.9
95776.7
110409
110244
110400
110473
124294
81830.1
110437
110375
109806
110155
110358
110319
110363
110257
110185
110117
110355
110512
110565
110211
110191
110286
110597
110896
110274
110292
110427
110174
110192
110326
110607
110233
110362
90070.5
115552
110355
110269
103792
125581
110347
88338.2
119161
110405
110402
109889
110757
110601
110572
110850
110796
113565
116949
113309
112325
110292
125236
111733
97971.7
97404.5
109008
116203
109796
110127
110148
112263
110478
110442
110475
110375
110354
110363
110311
110274
93018.2
110245
112742
90101.3
93303.2
110373
94806.8
110183
111851
110617
110412
110292
110418
99132
110437
110431
110408
110486
110098
110335
110365
77548.8
110411
78032.5
78057
110368
110375
110352
110379
81297.9
110292
110376
110346
110304
110293
104261
110701
117828
110179
110285
110305
110424
110392
109963
110593
110512
110443
110186
110171
110412
111381
110496
105175
110735
110398
110473
100359
110328
110567
109508
119090
117171
110303
110083
109895
118000
118762
103626
119497
110229
110241
122876
123464
110336
110387
110390
110486
109652
110297
109983
110205
110171
110182
110376
110474
110709
110762
110783
110194
110527
110235
110187
110401
109811
109672
110083
104120
86637
99102.6
110224
85112.8
109762
101487
109899
110419
110080
110292
110192
110392
110190
110418
110487
110468
110383
109891
110228
110217
118570
118721
116896
117397
118592
128872
110343
110301
110288
110206
110620
110209
110200
110187
110285
102866
81836.4
110165
109320
109739
104104
109804
110538
110810
110452
110511
110532
110516
104459
110290
110319
87633.8
80048.9
110723
100619
110113
110743
110618
110335
110504
110332
110632
110451
110208
110650
110358
110364
110356
110410
110676
110381
109828
110580
110427
110227
107661
99568.7
110507
100551
109400
110360
110328
110315
110399
110004
110366
110492
110225
110328
79509.6
110454
94094.7
110189
110361
109860
110025
110126
110583
110353
110381
81232.1
110671
110261
110259
78611.8
105718
110485
110165
110156
110432
117430
110164
110182
116627
120206
112498
110236
110613
116880
120709
110243
110154
110233
110277
110239
110346
110369
109810
110188
110369
110179
110414
110250
110240
110183
110291
101568
110288
110588
110289
110282
110251
110254
110251
110144
92377.4
110262
110232
110246
111264
109739
116080
110429
110418
110382
110205
110399
110538
110685
110163
126385
110208
110699
110252
110267
110289
110270
110335
110105
110043
110183
110509
110745
110745
110723
110352
110217
110250
110561
114989
109561
109730
123993
110445
102493
82342.7
80760.5
87147.8
105778
110199
110159
110222
110223
110271
110280
110398
110399
110419
110395
108836
110407
110413
110860
110559
110343
110173
110443
111695
110418
122615
110523
110301
110269
110216
110226
110669
110407
110369
109396
110075
110429
110638
110259
110242
110375
110242
111087
111257
111458
110733
111001
109870
109994
109819
109821
109791
111782
118465
109787
96639.1
110195
88564.7
111071
101938
110273
110469
110770
110697
110997
110258
110280
110291
98727.2
110262
110469
110478
110372
109346
110473
110280
110473
110271
110246
110185
110074
110395
110266
110296
110399
110364
110348
108822
117410
110195
110363
110195
110162
110595
110101
110226
116191
117282
110104
118383
112058
111526
115354
116222
110660
109872
110626
109925
110350
110365
110350
110321
110311
110332
110327
110225
111479
110527
109759
111305
110096
93084.4
110197
110319
84611.2
129080
110419
110511
110371
110540
110192
110074
110200
110248
110181
110765
110159
110203
110211
110193
110144
109895
109902
110154
109643
78842.4
110155
110173
110414
116577
110806
110675
112192
110701
110302
109792
107721
110395
110423
110729
110176
109873
110013
98343.1
109420
112153
110414
109988
109719
110409
110402
123551
114548
115058
115238
110404
115734
110404
110227
110399
123706
110309
110242
110404
110399
110338
110055
110022
109899
110143
110238
110310
110150
110388
109806
110161
110110
109953
110391
110315
110176
89593.3
109097
106076
110131
112644
109056
104382
115872
115675
110143
110120
110190
110048
84484.4
110138
110340
110231
110412
110473
110127
118779
110645
110512
110392
110404
110354
110213
110237
110274
110401
110396
110560
110522
110423
110270
110233
115250
110270
109709
107941
112607
110152
109998
110365
110437
110352
110446
110130
109913
110236
109900
110674
110601
109748
110654
110458
106774
110469
105969
108941
110245
110235
102945
77272.1
110242
110105
110027
109998
110239
109725
110724
110432
110080
109910
110448
110280
111422
109717
110199
106162
105164
110317
110235
110361
110276
110246
110336
110585
110542
110506
110052
109512
110314
110320
109904
109923
110062
110038
110270
118498
110392
110380
110291
110273
110148
110031
113243
110352
110377
109654
95656.7
110384
110382
110381
110382
110207
109848
110209
110214
110130
110643
110213
118641
110505
110670
110461
110547
110186
110209
110449
110646
111046
117594
118323
110210
110409
110212
116239
116621
123541
90797.9
113483
108810
110210
109814
110190
110226
109788
110729
109818
110394
109728
110096
110164
109769
110343
110480
105254
103792
110293
110236
110256
110228
110251
116765
113019
120318
119859
126487
122782
110270
110262
110267
110267
110284
110297
110409
100618
114897
111405
117953
106145
119510
110215
110237
110295
110312
110294
110246
110401
110213
110140
109827
110305
110398
109654
110244
110339
109646
124374
109729
110341
124090
110287
103674
110615
110607
105577
124717
122162
110267
118875
110260
119152
118917
110403
118694
119781
110401
110391
110389
103932
106907
113290
101751
96477.8
110138
110710
110242
110406
110285
93823.5
110249
85443.8
110279
110290
110290
100950
92015.7
110268
110216
110362
110318
110238
110507
110253
98550.5
98058.3
98984.6
110501
110303
97892.2
98774.7
107208
101660
110386
111681
110345
110328
110643
110348
110333
109895
110355
105489
123848
124058
111716
103581
112584
110446
109810
110327
110355
110272
110144
110378
110236
110942
108316
97878.1
103874
91891.1
104224
110394
110408
110418
110096
110365
110381
110376
110357
110397
121238
110404
110404
110384
110280
110317
110224
110491
110437
110436
108911
102090
110602
111834
110193
105561
110457
110430
110419
110431
110245
102123
110447
110445
110332
105207
110350
109939
110355
80369.8
110293
110334
110405
110399
110239
97056.1
110392
110430
110264
110294
110391
110381
110486
106610
111762
110288
110567
110087
123359
112412
110471
111885
110468
110126
110637
111315
114705
114463
116606
98264.6
88992.9
110248
110207
110307
107234
106362
110405
110415
110496
110395
90379.4
110394
110290
110546
91272.8
110585
110659
110682
122812
110070
110698
110387
110534
110492
110368
99638.1
110508
101490
115431
110330
110343
110370
110398
110376
110380
110212
110185
110648
106140
82061.8
110679
110319
110371
110191
110413
110386
110305
110285
110263
110234
109928
100745
90501.9
93015.6
94705.9
110779
119150
110669
116214
119890
110666
110262
109994
110230
110287
109558
110844
109809
111642
110309
110047
110166
110125
110436
110093
110070
110450
110433
110347
110426
110539
110412
110311
110228
110056
110041
110121
84098
110157
115476
110151
117229
110112
110209
110259
110626
110700
110504
110466
110432
110441
110374
110217
106847
110136
110511
107625
110345
109964
109824
110209
109863
110013
110270
110388
109918
124245
110217
110081
110223
99096.9
109753
109968
109836
109745
110328
110401
113018
115504
118796
110639
110252
110400
110206
110438
110314
110283
110371
110177
110204
110099
110390
110233
110742
110703
110675
110407
110361
110402
110550
110075
110624
110525
114108
110312
110165
110113
109487
112278
112760
77747.1
113808
87108.9
125683
102998
115554
81739
109907
109900
109957
109982
110277
110420
110326
107999
110466
110515
110462
110420
115596
110246
110428
109630
105591
106858
103142
110278
108357
125045
110336
110416
103920
111467
110251
110242
110345
108169
116352
109367
115567
113200
112488
109687
110551
110609
110551
110616
112833
109961
114910
114102
110173
110283
81761.9
108656
108177
110266
110475
110168
109986
109950
110251
110260
110424
110407
110424
110468
110470
110536
109705
109979
110275
109893
110327
110274
110613
97834.6
110394
100470
101633
102847
112214
123674
123478
99035.4
110331
110332
110323
101303
110315
110308
110321
110299
110401
110403
110276
110400
101081
110479
102301
110672
110726
110401
106324
110400
110236
110227
110352
110392
109956
110229
110375
109911
110201
110217
111466
110174
110532
106646
106264
129929
109394
105926
110225
109915
118849
112034
110824
110463
110726
110700
110388
107639
110243
110242
110664
110417
110382
110364
110263
110364
110350
112724
114728
110365
110303
110199
110200
110565
110735
110362
109681
110188
110309
110112
110112
110231
114593
118130
107406
109946
119628
111280
110454
110663
110942
107292
106193
109493
98898.4
105801
110221
110198
77887.4
76980.5
92717.5
110240
110307
110359
110355
110324
110319
110404
110396
112782
110391
110254
109726
110207
110214
110255
110484
110395
115977
115894
108464
110588
115157
100072
110308
110306
110501
110307
110719
110405
110403
109730
111161
109829
110177
110228
121608
101116
110149
110341
105258
110435
110479
110138
110685
110363
110526
110101
110440
110592
110243
119780
110234
111653
110234
101325
110238
110163
110396
110405
110406
110541
110449
110429
110541
110502
110418
115639
110220
110277
109934
108388
109964
110291
110227
110379
110315
110338
110205
119736
110401
110264
110242
110223
97740.8
110218
109916
110346
110340
110359
110356
110182
110357
109944
110217
110367
110415
109674
110180
110217
110196
110354
108873
100087
110396
106286
84185
108880
110299
110305
110452
94108.1
110220
92398
108600
110427
109905
107751
110372
110354
109976
110320
111009
110030
122686
109717
118046
118592
118589
108162
108629
110191
100999
89150.1
108540
110284
110117
110130
118470
112789
121141
110478
110345
122283
122789
110376
110407
122287
110226
110203
110339
110201
110367
110422
110364
110369
110412
110410
110422
110412
86207.4
84280.4
108450
108856
110371
110254
110361
110509
105552
110395
110695
110495
106963
78422.9
84062.4
87657.9
88210.4
109776
110170
110147
110115
110120
110059
110085
110707
110323
110700
110443
110431
110439
101727
110221
110065
110268
111201
110316
118553
110663
110219
110216
110230
110218
110216
110202
110219
110220
110228
110217
110199
110302
110287
110281
110186
110507
110193
110759
110544
110319
110332
110722
110721
110731
110763
110778
110349
110630
110233
119249
117938
113034
110316
110263
110252
85309.3
79184.3
110815
110298
109944
110311
84742.2
110430
110426
110455
110704
112025
111673
110028
110092
106434
110213
110324
82786.4
84665.4
88766
88100.7
105874
97527.5
98638.3
86324.8
96411.1
125178
98303.6
108618
104889
105950
77809.8
77067.5
105691
107163
110398
110393
110430
110393
110234
110405
109210
110080
110378
110388
110359
109945
110365
110027
110567
110181
110915
109720
109766
109788
110246
110303
110456
110500
110158
109916
110192
107664
110652
110260
110251
110253
110218
110301
110260
110591
110347
110497
110442
110362
110363
110464
110041
110323
113585
117798
110383
109762
98925.8
110285
110721
110665
110056
110561
111348
110245
109867
109791
109755
109809
109692
110249
110257
110267
128189
112340
110594
109952
110794
110347
110330
108343
99395.9
110144
110086
110144
106541
110131
110137
78347.2
90213.5
93471.4
110016
100494
96518.5
112693
110094
110179
110370
110412
110405
110359
110412
110426
110429
110348
110381
110215
110399
110626
110602
110498
110415
109771
109892
110224
109721
110030
109975
107030
109714
109951
107410
110259
110170
110298
110597
110621
110303
110417
110217
118194
110406
110302
110338
110190
110343
110314
110335
110184
110837
87262.2
110211
110223
110374
110387
117452
109694
109444
108236
110028
110375
110402
110384
110096
103751
110206
102022
104005
102150
110074
110851
91120.7
116150
110344
106073
110323
108235
105400
110218
110292
110403
110385
110346
110235
110433
110261
110209
110207
110400
110184
110408
110030
89341.8
110506
110359
110407
110403
110414
110481
110401
110406
110610
110689
110744
110696
110603
105715
110195
104817
114300
110090
110324
110282
110270
110259
100828
110519
112105
110766
108869
111381
105054
120442
110740
110802
110772
110709
102514
109870
108811
108582
109732
110211
109851
110220
110293
110378
110349
110573
82283.9
110395
109762
110210
84631.6
78926.5
80942.9
110383
110304
110413
110395
110084
110176
110469
110251
110410
110162
110567
118413
94095.2
110298
108002
111264
110894
110840
115949
116300
116280
115512
110686
114829
110391
110388
110390
110380
110382
110555
90573.5
92674.9
105447
110375
110429
110405
110394
111766
101064
117445
110985
109625
89454.5
106002
110197
110414
110468
110407
110308
110264
110271
109710
109905
110142
110565
110108
116486
118006
120015
78360.5
110142
110160
103462
109977
88463.2
110024
86832.1
89857.1
90336.6
89523.9
109938
109847
110170
110178
109977
109808
110117
110381
110405
110190
106901
83200
110067
110127
113255
117955
117597
115510
105874
118837
110482
95500.3
118239
110503
109934
84649.2
110489
110550
110336
110532
110345
110354
109764
110198
113777
110321
110414
110506
110344
100552
110220
110114
109736
110204
110424
110546
110401
110339
110164
110216
110051
111072
110113
110214
111582
110234
110033
110333
110317
110314
76746.6
110396
79033.8
108499
83598
80943.7
80966.7
81792.1
86812.1
82133.3
80508.8
98481.2
110173
82309.3
84129.2
110547
110534
110515
110502
107145
104058
76820
109869
110206
110196
115397
110136
110174
110164
108533
110383
110223
110312
109786
111639
110376
110323
91242.2
110340
110424
109868
87803.8
89882.9
86221.9
110151
110135
86587.7
90498.4
110464
110418
110422
110439
110440
110195
110698
114185
111970
118399
118022
111479
110481
93806.8
110012
110010
110231
110341
110653
110634
110086
110211
110653
110040
110557
110564
110545
110583
109893
110511
110575
110484
110585
108610
109948
108952
110211
110615
110401
110495
110472
110566
110402
108875
110404
98752.6
109775
110323
110307
110295
110377
110397
110371
110550
110713
110578
110699
110711
110384
112742
110410
110799
110055
110011
110121
110010
110013
110117
110102
110387
110378
110384
109395
109852
116768
110712
114871
110191
110430
110174
110401
110560
109844
109845
110282
110009
114289
110390
110232
110398
110531
109993
106968
94246.5
110250
82132
108268
94753.2
108866
109140
110308
110399
110279
110501
110392
109022
106637
108910
110372
110350
110333
110073
110386
110397
110381
110382
110316
110378
110519
110509
110202
110461
113331
111382
109939
110268
110366
111634
91717.9
109386
102100
110404
110421
104008
110184
114428
110247
109988
111388
126680
110403
110684
110632
110238
110197
118670
110248
110247
110133
109768
110268
109849
109792
110252
109753
110126
111659
110596
110264
110293
110631
110600
110531
110160
117538
77808
105478
101343
80203.6
109547
110429
110554
110426
110403
110395
110386
108784
109490
109099
110331
110341
110363
110370
110281
91540.3
97508.6
101790
106839
98157.1
119609
110387
110280
110254
110278
110259
110271
123820
110248
110737
128832
110511
110370
112975
110372
110364
116450
110297
117243
116814
110479
110370
110378
117922
117450
110717
110695
106188
120187
115731
96889
111383
111469
112235
112397
112935
110693
125213
110540
110602
110544
110548
110555
109068
86661.4
120522
110333
110320
103293
119821
110467
111382
117812
129357
109741
110258
110329
110369
80719.6
110418
83085.1
110416
110395
110408
110399
110394
124640
110214
110300
110240
110520
110134
110170
110158
110134
110151
125218
109755
109812
101529
110179
110185
112229
125428
109867
125318
110241
110211
109674
109772
111691
93826
109747
110366
107902
113555
110376
110640
102807
110519
110404
110375
110421
110423
110439
112060
106493
110399
110590
110124
111569
110255
110567
111350
109725
110380
105373
110034
110032
116262
110575
110681
110566
116630
110123
109967
109952
110161
110211
110046
110413
110397
110387
110492
110546
110670
110759
110369
110502
110456
110660
110111
109938
110375
110241
110309
109966
110391
110534
110258
110318
109852
110218
109981
109956
108871
110202
77143.1
83851.2
110382
110124
110398
102360
110370
110264
110365
84078.3
94970.3
82275.6
110328
110201
102573
110217
104277
95740.7
97096.4
106944
108998
110042
110235
110236
110239
110239
110224
110219
110225
110240
110290
110367
110631
110632
109979
110450
109046
110448
110302
128123
110195
110517
110308
110373
106410
110380
109936
110223
110204
110311
110320
110038
121571
124121
124478
119606
110497
108778
110419
110233
110265
110227
110228
109402
111425
110400
110401
108968
110395
110397
110343
110349
110341
110316
110327
110351
110337
109816
109859
106153
93793
93891.2
109258
110387
110219
110398
110405
105317
110235
110246
110253
109687
110264
110315
110370
110143
110718
110218
110195
110194
109763
110516
110913
111879
108661
110521
110623
111212
113326
103266
110687
110574
111815
111085
110330
110726
109968
110261
110219
110228
110947
95828.5
81817.8
88731.4
109673
104979
114170
106714
110397
113345
109831
109759
121688
110331
110427
110427
110531
110533
110440
110418
110273
110287
110590
110406
110486
112429
83239.5
85922
92774.3
110668
89816.1
92959.9
109618
96122.1
110092
114101
110316
110322
110308
110444
110437
110226
110240
110448
110416
110379
102709
110387
110412
110488
110506
117830
80884.5
116509
109934
109803
111061
110212
110317
110738
110712
111432
110746
110656
90679.9
91536.6
98889.2
105142
109825
99907.3
110201
110450
110270
110287
110077
109984
109826
110259
110600
110609
110433
110597
109949
110248
94328.2
93592.6
113529
95778.4
110162
112202
110143
115325
115340
117898
114298
116822
117192
110537
110387
110604
110462
110694
111239
110891
110456
110198
110533
112546
110261
110535
110543
117017
110850
110551
86819.7
87101.6
89537
84452
109239
94566.3
88513.2
110313
110293
101339
92955.5
110417
109399
110532
124383
110547
110263
110728
110188
121547
110197
110461
103128
110292
110302
104262
110293
110312
110386
110398
110628
110615
110211
110564
110502
110203
110286
110392
110752
110457
110587
110799
110650
110575
109798
110966
110393
111615
111350
110269
109778
110038
109854
110136
111555
121773
83313.1
110211
110330
110311
110387
110105
107789
108332
110401
110287
110282
110403
110404
110402
110141
110252
123080
120691
110438
110108
110712
110659
110734
110497
110792
110781
110496
110208
109953
103196
109788
123095
109865
93114.1
110288
110187
110293
110213
110386
110406
110411
110405
110220
110204
110242
110459
110450
110283
110293
110317
110297
110346
110301
110282
110323
110400
90929.2
110193
107263
112042
106084
102254
105775
118587
111509
110336
110163
110089
111068
110399
110370
106940
98786.3
103756
102380
118435
118489
110404
110349
110418
110214
110250
110244
109959
110164
110192
109886
110415
110229
110403
110404
110399
110323
110219
110340
110292
110229
110268
109954
110408
110404
110297
110403
110403
110402
118510
117865
107198
106506
107788
110268
110218
103340
113634
105104
110340
110326
110380
110370
110196
106177
110484
97827.8
95735.7
95530
110232
110263
109806
110373
110356
110354
110339
110163
110346
110440
110581
110735
112167
88022.6
110265
78588.2
120515
121573
110975
122871
111089
108188
108447
91173.7
110075
110263
110263
110265
110316
110320
110310
110394
109536
110615
110786
110394
110407
126634
117365
114698
110212
109776
110236
110452
110318
110237
110274
110303
112299
76836.6
109803
109294
109331
109782
110735
124017
110528
110496
110479
110474
110475
110463
101489
121136
120736
117564
127208
109251
126494
110309
110161
110047
110312
110985
127330
117030
110425
111723
90518.5
117272
118420
110251
107531
126539
122211
114034
115341
119642
106671
110479
120734
110402
110245
110205
110406
110320
110264
110294
90949.3
86813.4
87808
110372
110669
102666
109765
109883
110328
110392
110393
110395
109655
110315
109771
110116
79862.4
110440
81133.3
79523.7
110270
84149.8
81311.6
110221
110226
109922
109948
110624
110527
118591
118707
118472
118825
109875
106742
110683
110804
110709
110543
110035
110703
110259
109983
109296
110255
109719
110423
110262
110246
110311
110402
110498
110250
110304
108712
106066
113289
101685
117719
79064.3
109527
119786
120331
120439
103454
110318
110314
110239
110219
110444
110057
110487
110289
110083
110233
110225
86862.6
110233
109727
110011
110012
110140
110377
110361
110512
110525
110374
110308
110404
100731
114111
112404
110456
110648
110565
110235
109775
110272
105803
110176
109884
109197
112896
111011
109497
110364
110315
110759
110328
109843
110278
110373
109786
104433
107198
101200
110083
110216
110095
110450
110246
122541
110453
110470
110460
110350
110248
110403
110238
110231
110242
110260
110358
110364
109897
109664
109915
101812
111672
114854
115505
110240
104138
110471
104691
110391
110407
110215
98553.5
110192
110192
110228
110216
109887
109734
109940
108333
110825
109823
110359
110262
97036.8
110637
110364
110480
98467.7
110107
110367
107751
110364
93162.5
110146
110060
110405
110474
110481
110293
110299
110374
110456
110279
110282
110489
110278
110337
110308
110443
123813
110672
110765
85776.8
110262
95470.3
110427
110253
109881
95253.4
94202.9
110222
89925.2
110173
109882
111321
110205
110372
110481
110011
108627
109957
110028
105674
118149
110165
110678
109797
110956
95172.6
93690.1
110257
110170
110182
83756.5
110207
91705
110380
92636.1
110380
110379
110756
92253.6
110289
110316
110259
110612
110242
110352
110325
110341
110231
108457
110203
116168
109976
110007
109965
110320
105433
106812
109687
110342
110300
110351
110654
110142
110105
110243
110200
119060
110395
110269
110255
118714
118878
109908
109651
110402
109827
109864
110227
110266
110219
107014
110589
110536
104863
110411
110413
110449
110437
111048
110909
84287
109670
109998
110146
110019
87352.5
110103
78940.9
79651.2
110236
110177
110617
110304
110301
110613
110301
110561
110440
110433
110424
110444
110220
110228
110244
110253
110223
110273
114602
111789
120273
110301
110613
123152
110741
110700
110264
110224
110434
110162
110452
110016
120259
110162
113981
110325
110299
110343
110276
110388
110417
111128
110288
110598
95167.2
93959.5
123532
109484
107519
119004
114165
123521
110561
109945
109878
109749
93039.5
92312.7
90156.7
79067.3
110362
110355
110392
110308
110346
110360
110244
110278
110232
110220
110252
110239
103974
107093
105295
106067
105186
110194
109797
110334
110600
110655
110369
110336
110332
110340
109802
110214
110607
110693
110199
110202
110309
110229
110266
110324
110384
110455
110383
118466
110400
110498
110197
110261
110051
110024
110139
110045
110274
110319
110331
123894
121762
124382
122800
110257
110278
110371
110401
110556
110394
110393
123704
118055
93217.8
78935.4
110226
110236
110250
110179
77550.2
79328.9
80157
110268
110303
110428
110284
114437
110363
110494
110395
110406
110402
110401
110399
111625
109995
108317
110445
110281
106324
110449
104424
110499
110007
110450
110426
110370
110123
110154
110206
110432
110423
110410
107541
110460
110083
110046
110232
112822
110237
110370
110391
116836
122257
110501
98819.4
110513
110499
110497
110453
110550
110406
110416
123142
111704
101435
99863.7
105840
110403
110407
110126
110679
110633
110546
110382
110617
122880
123271
122730
111044
110437
111018
110420
109900
109934
123801
111167
109793
110110
109964
110240
110781
122463
102473
110702
110415
110143
110369
110359
110342
110704
109775
110737
111308
105040
118685
111197
110244
110241
119358
118769
116094
110271
110212
110281
110276
110346
110343
113781
110336
109891
109914
109692
110698
110524
110227
110214
110625
106660
108648
78024.5
110990
110747
110381
110368
110176
110155
110554
110416
110413
110765
110452
110405
110266
110319
110267
110430
110416
110390
110436
110103
109899
110139
110356
110008
110339
110379
107665
108989
77488
101071
110793
110170
110041
110366
110638
107621
106378
102069
98414.9
103362
93638.7
92876.5
121603
104570
81187
105658
82663.9
113007
110459
110402
110371
110457
110347
110276
110440
110447
110439
111962
110054
110382
110369
110409
110399
110281
123968
110209
110112
102306
111907
109809
109700
110077
110046
110003
109979
110498
110524
110542
110519
103443
108416
97331.5
109914
109980
110327
110569
110520
109841
109865
110721
109945
110009
109915
110460
110433
110501
109848
109850
110503
109738
110363
110047
110057
110594
110680
110030
110013
110296
109618
108259
110380
110767
110357
129007
110526
110291
110527
106541
108993
)
;

boundaryField
{
    Inlet
    {
        type            prghTotalPressure;
        p0              nonuniform List<scalar> 0();
        value           nonuniform List<scalar> 0();
    }
    Outlet
    {
        type            fixedValue;
        value           nonuniform List<scalar> 0();
    }
    Symmetric
    {
        type            symmetry;
    }
    Wall
    {
        type            fixedFluxPressure;
        gradient        uniform 0;
        value           nonuniform List<scalar> 
251
(
123993
125045
119606
106410
104262
108162
109068
110217
110428
110355
110278
110245
110240
110265
110293
110328
110359
110381
110398
110403
110400
110386
110365
110332
110296
110263
110227
110215
123532
124382
120273
108332
104261
108811
109008
110125
110400
110304
110277
110233
110244
110246
110287
110319
110357
110380
110398
110403
110398
110386
110362
110326
110291
110252
110233
110201
123894
126487
125683
125581
124374
111782
112214
107902
105207
103792
106940
107788
106300
106145
108910
108968
108836
109959
109654
109988
110387
110419
110429
110331
110398
110376
110261
110313
110262
110223
110259
110257
110219
110239
110224
110242
110251
110261
110274
110280
110286
110312
110311
110321
110348
110343
110348
110375
110372
110378
110395
110391
110396
110405
110402
110404
110403
110401
110401
110391
110395
110388
110369
110375
110369
110338
110350
110335
110297
110315
110290
110254
110280
110268
110218
110245
110219
110195
110223
110221
110190
110217
110211
106193
122541
123478
115431
123674
102709
113555
107093
105658
108373
107198
109210
109022
110333
109444
110359
110336
110332
110358
110236
110292
110221
110243
110228
110241
110270
110241
110293
110264
110335
110305
110362
110340
110388
110368
110402
110391
110403
110401
110395
110404
110380
110392
110354
110375
110320
110343
110267
110308
110233
110270
110202
110246
110176
110213
110194
118435
106714
108856
109046
110323
110370
110293
110237
110219
110227
110258
110293
110330
110363
110386
110402
110404
110400
110381
110356
110315
110276
110239
110204
110191
97834.6
103340
120206
123080
123993
123532
93592.6
106153
108268
113634
105577
117865
123095
123848
123464
96889
84185
107208
103462
113483
116621
122257
121773
122318
98414.9
120187
103362
121238
98157.1
119821
115157
)
;
    }
    procBoundary1to0
    {
        type            processor;
        value           nonuniform List<scalar> 
28
(
119855
118573
111137
118659
81675.6
114883
116483
89413.7
91339.3
85563.7
103088
119342
84986.3
83119.6
88050.7
112877
98485.6
95488.5
118572
94964.9
83375.3
87115.4
103673
107369
117984
90909.6
108133
88659.7
)
;
    }
    procBoundary1to3
    {
        type            processor;
        value           nonuniform List<scalar> 
32
(
110055
110206
110201
110162
111006
110059
110181
110195
109683
109622
109612
110219
110121
109834
109638
109971
124878
110213
109710
109668
109915
110131
110149
109821
110093
110004
110162
110055
110183
110010
110778
109900
)
;
    }
}


// ************************************************************************* //
