/*--------------------------------*- C++ -*----------------------------------*\
| =========                 |                                                 |
| \\      /  F ield         | OpenFOAM: The Open Source CFD Toolbox           |
|  \\    /   O peration     | Version:  v2006                                 |
|   \\  /    A nd           | Website:  www.openfoam.com                      |
|    \\/     M anipulation  |                                                 |
\*---------------------------------------------------------------------------*/
FoamFile
{
    version     2.0;
    format      ascii;
    class       surfaceScalarField;
    location    "0.04";
    object      phi;
}
// * * * * * * * * * * * * * * * * * * * * * * * * * * * * * * * * * * * * * //

dimensions      [0 3 -1 0 0 0 0];
oriented        oriented;


internalField   nonuniform List<scalar> 
5866
(
1.52554e-06
-3.14008e-08
-1.49413e-06
1.26121e-07
-1.25776e-07
-2.36813e-08
2.33369e-08
-1.015e-07
5.66708e-09
9.58327e-08
4.03264e-09
-3.77161e-09
-2.61032e-10
1.29216e-06
-5.58701e-07
-7.33454e-07
1.35643e-07
1.49027e-07
-2.8467e-07
-2.14005e-07
1.67731e-07
4.62743e-08
6.88924e-07
-6.54401e-07
-3.45228e-08
-1.34023e-07
1.3066e-07
-2.1745e-08
2.51086e-08
3.84986e-08
-4.00938e-08
1.59513e-09
3.10392e-08
-2.38545e-07
-3.98879e-08
2.47394e-07
-1.26568e-06
-2.45579e-08
1.27208e-06
1.81527e-08
-1.24695e-06
-6.84107e-09
1.25379e-06
-1.22714e-06
-1.98123e-08
-5.66286e-07
5.35749e-07
3.0537e-08
-2.98758e-07
-5.28735e-08
1.7299e-07
2.8649e-08
-4.07935e-08
-1.60846e-07
-2.71321e-06
1.87772e-06
8.35488e-07
-1.07363e-07
-7.7527e-08
7.4082e-08
6.37436e-07
-4.42903e-07
1.8413e-06
-2.03583e-06
-3.61487e-07
9.74011e-08
2.64085e-07
6.00953e-07
-2.16757e-06
1.56662e-06
-2.66199e-08
2.21461e-09
2.44052e-08
5.86886e-08
-4.65529e-08
-1.21357e-08
3.07168e-08
4.58101e-09
-6.83933e-09
-2.84585e-08
6.09259e-08
-8.02335e-09
5.786e-09
1.60235e-07
-4.28389e-07
2.68154e-07
1.14496e-06
-1.02499e-06
-1.19969e-07
-5.83262e-07
6.13155e-07
3.85402e-07
-4.15295e-07
-7.85694e-09
6.15379e-10
7.24156e-09
7.67696e-09
-7.67696e-09
1.38723e-10
9.23999e-09
-9.37872e-09
3.47031e-08
-1.33356e-09
3.22263e-09
-3.65922e-08
1.27796e-09
-6.66093e-10
-6.11869e-10
-6.05443e-08
7.35928e-09
5.3185e-08
7.83895e-08
-6.75243e-08
-1.08652e-08
-2.48112e-09
-4.85661e-10
2.96678e-09
6.23644e-10
-5.28829e-10
8.38718e-11
-1.78694e-10
4.33663e-09
3.30281e-08
-6.38275e-09
-3.0982e-08
-4.20243e-07
-7.5261e-08
4.95504e-07
-1.83867e-09
3.90745e-09
-1.66148e-08
1.4546e-08
4.01e-08
-2.76147e-07
5.78908e-08
3.76533e-07
-4.34424e-07
1.18338e-07
-1.74453e-07
5.61154e-08
-1.74593e-07
1.43019e-07
3.15734e-08
2.12698e-07
-1.90608e-07
3.58007e-08
-1.30047e-07
-2.79143e-08
1.57961e-07
-1.23552e-09
2.04801e-11
-5.24912e-08
2.6519e-07
-9.62009e-08
3.45839e-08
-2.50606e-09
-3.28824e-08
8.04585e-10
-1.72516e-08
9.43854e-08
-7.71339e-08
-5.98296e-09
5.98295e-09
9.9646e-08
2.82269e-08
-1.02361e-07
-2.55121e-08
-2.90444e-09
8.80997e-11
6.09986e-11
2.75534e-09
1.44749e-07
-8.60649e-07
8.61563e-07
-1.45662e-07
-1.66635e-08
-9.25113e-08
1.59066e-08
9.32682e-08
1.86306e-08
5.81971e-07
-6.00601e-07
1.12451e-07
-9.80491e-08
-1.44014e-08
1.03397e-07
9.05377e-09
1.48892e-06
-1.48892e-06
1.33142e-06
-1.29765e-06
-3.37756e-08
1.83881e-06
-4.96741e-08
-1.78914e-06
-1.276e-09
1.276e-09
3.39793e-07
-3.06255e-07
-3.35373e-08
-3.25095e-08
-1.27602e-06
1.30853e-06
7.98501e-09
5.29409e-08
-6.89903e-09
-3.61866e-08
4.30856e-08
-2.2977e-09
2.55879e-08
-2.32902e-08
-6.80938e-08
2.80001e-08
4.00938e-08
-1.68112e-06
2.07533e-08
1.66037e-06
-3.55276e-07
3.46191e-07
9.08582e-09
-2.89165e-08
6.65095e-08
-6.3788e-08
2.6195e-08
1.67795e-07
-6.81488e-08
4.82892e-08
-3.03471e-07
2.55182e-07
-4.90602e-07
4.66643e-07
2.39593e-08
-4.40343e-07
4.29703e-07
-2.18694e-08
-2.02797e-07
1.99947e-07
3.09043e-08
-2.80545e-08
2.31947e-08
-3.81054e-08
1.49107e-08
-4.63566e-07
2.32225e-08
2.73963e-07
1.57573e-08
-8.42611e-09
-2.81294e-07
-1.58584e-08
1.71018e-06
1.99162e-08
-1.71424e-06
1.67833e-06
5.97193e-09
-1.6843e-06
1.63535e-08
-1.34782e-07
1.38093e-07
-1.96649e-08
1.88841e-08
-2.29195e-08
4.0353e-09
2.43274e-09
4.62497e-10
-1.43815e-09
-1.4571e-09
5.92595e-09
-6.88653e-08
6.29393e-08
5.79456e-08
7.80343e-08
2.42553e-08
-9.96272e-08
3.49167e-09
9.08752e-08
5.26043e-09
2.08337e-08
-2.08337e-08
8.86701e-08
3.06188e-09
-7.53784e-08
-9.41684e-08
7.42688e-09
8.67415e-08
1.74938e-06
-1.70173e-06
-6.07713e-08
1.31198e-08
2.48343e-08
2.52695e-09
-2.73612e-08
1.21951e-07
-1.30733e-07
1.61647e-07
-1.52866e-07
-3.22041e-08
3.04185e-08
-1.32167e-07
1.52458e-07
-2.02909e-08
-1.1636e-08
1.1636e-08
-9.58312e-08
1.90973e-06
2.92102e-07
-2.10601e-06
2.55748e-08
1.23617e-07
-1.93951e-08
-1.29797e-07
4.93691e-09
-2.45824e-09
-3.61487e-07
8.88521e-07
-7.65293e-07
-3.18465e-07
1.95238e-07
-8.61991e-09
1.20188e-08
-3.39892e-09
-5.15427e-07
1.57296e-07
-5.35168e-07
8.93299e-07
-4.23688e-09
-5.26906e-08
5.69275e-08
6.93572e-09
-1.11412e-07
1.04476e-07
-1.05987e-07
-1.98646e-08
1.25851e-07
9.6046e-07
-9.26096e-07
-3.43642e-08
5.49829e-08
-4.74377e-08
-7.54519e-09
1.65556e-09
-2.24823e-09
2.75418e-09
-2.16152e-09
3.9335e-09
-9.10637e-08
8.89312e-08
-1.80108e-09
1.89055e-08
1.10633e-07
-1.29538e-07
1.15872e-07
-1.18254e-07
2.38234e-09
7.72969e-09
-7.18454e-08
6.41157e-08
1.31719e-07
3.60962e-09
-1.35328e-07
2.00953e-07
-1.66305e-07
-3.46482e-08
8.58429e-11
2.63578e-09
1.34943e-10
-2.85656e-09
1.28771e-07
-1.07528e-07
5.79907e-08
-7.9234e-08
-8.1823e-09
8.1823e-09
-6.09188e-07
-2.97159e-08
6.38904e-07
3.96395e-08
2.22936e-07
-2.95526e-08
-2.33023e-07
1.79481e-08
5.90653e-10
3.37398e-10
-1.88761e-08
-8.69287e-10
4.20381e-10
4.48907e-10
1.14114e-08
1.41578e-06
-1.42719e-06
-6.63905e-07
2.0061e-08
6.43844e-07
3.96767e-09
-6.56461e-07
1.37726e-06
-1.3572e-06
2.39836e-08
3.276e-08
-5.67436e-08
1.38123e-06
-1.94032e-07
1.93909e-07
-7.99449e-09
8.11724e-09
-2.0047e-08
-5.13574e-08
7.14044e-08
1.44442e-06
-2.00513e-09
-1.44241e-06
-7.30066e-09
7.30066e-09
8.93977e-07
2.64303e-07
-1.15828e-06
4.78087e-07
4.11966e-08
-6.99491e-08
-4.49335e-07
-5.45216e-08
5.32609e-07
1.72817e-06
-8.49405e-08
-1.64323e-06
8.0671e-07
1.49305e-06
-1.63278e-06
-6.66978e-07
-1.32622e-06
5.2487e-07
8.01347e-07
-5.68657e-08
-1.21711e-07
1.58529e-07
-1.50565e-07
1.87873e-06
1.61351e-07
-1.23799e-07
1.15983e-07
-1.53535e-07
2.77003e-09
7.43658e-08
-7.71359e-08
-2.10087e-06
2.19557e-06
-2.45268e-07
1.59126e-07
2.92815e-08
-2.9647e-08
-1.5876e-07
-1.15061e-06
2.08454e-06
-9.33923e-07
4.46927e-10
-1.16059e-10
-3.30871e-10
9.05037e-09
4.00673e-08
-4.91176e-08
5.35959e-10
5.14639e-10
6.04959e-10
1.86921e-06
-1.34452e-06
-5.24695e-07
-3.89112e-08
-9.8321e-09
4.87433e-08
-1.67602e-06
1.93322e-07
1.4827e-06
1.11215e-06
-1.49822e-06
3.86072e-07
1.47557e-08
8.35228e-08
-1.48297e-08
-8.34488e-08
2.65366e-09
1.11688e-07
-1.14342e-07
3.12376e-08
-3.62867e-08
5.04916e-09
5.85216e-08
1.10279e-07
-6.12384e-08
-1.07562e-07
-6.66759e-08
1.08955e-07
-4.22793e-08
-1.30297e-06
2.17157e-07
1.08581e-06
-3.04734e-08
-9.43979e-08
1.24871e-07
5.35048e-08
-6.59112e-08
1.24064e-08
1.52268e-06
2.53052e-08
-2.24534e-08
-1.34199e-08
2.27493e-07
1.38599e-08
-2.27933e-07
5.16782e-09
2.5549e-08
3.63466e-09
-4.75501e-09
-6.88977e-10
1.80933e-09
-1.97495e-08
2.21085e-08
2.80883e-09
-1.19956e-08
-5.88683e-10
1.25843e-08
1.25883e-08
1.48852e-07
-1.6144e-07
1.40367e-07
-4.70544e-09
2.06273e-08
-1.56288e-07
-6.25107e-09
3.18e-08
9.14466e-08
-1.2857e-07
3.71232e-08
-3.58094e-07
3.73701e-07
-1.56067e-08
-1.86799e-07
2.09207e-08
-1.82158e-08
1.84094e-07
7.82445e-09
-6.12887e-09
1.78677e-07
-1.80373e-07
2.01342e-07
4.59313e-08
-2.47273e-07
-3.62062e-07
1.59474e-08
-1.19798e-08
-5.61517e-07
-3.30895e-08
5.94606e-07
-1.05999e-07
1.07764e-07
1.82154e-08
-1.99804e-08
2.11357e-08
-1.6216e-08
1.26799e-07
-3.99293e-07
3.72314e-08
-2.02773e-08
2.09001e-07
-2.10122e-07
2.13989e-08
1.83936e-07
-1.57168e-08
-1.85833e-07
1.76131e-08
-1.17023e-07
6.09305e-08
5.60927e-08
4.62606e-09
5.40071e-08
-5.86331e-08
4.92075e-09
-5.37749e-09
4.56737e-10
-3.2114e-10
-2.15999e-09
-1.73525e-06
-1.09139e-06
-1.03425e-06
1.88755e-06
-8.53294e-07
-1.13235e-07
1.50929e-07
-3.76941e-08
6.11354e-08
8.61383e-08
-8.64542e-08
-6.08195e-08
5.13969e-07
-5.13969e-07
1.84559e-07
-1.84559e-07
-4.05888e-10
4.13631e-09
-3.73043e-09
1.48546e-06
-7.99148e-07
-6.86314e-07
-6.4274e-09
1.14874e-06
-1.14231e-06
8.36574e-09
-1.15014e-09
1.59552e-09
-8.81118e-09
-9.00965e-08
1.42751e-08
7.58214e-08
2.50507e-07
-4.55127e-08
-2.46281e-07
4.12862e-08
-2.35781e-07
-2.63319e-08
2.38091e-07
2.40216e-08
1.76716e-07
4.36148e-08
-2.20331e-07
-4.47506e-08
3.81497e-08
6.60086e-09
-3.59328e-07
3.08915e-08
3.55202e-07
-2.67654e-08
-2.11424e-08
2.115e-08
2.56184e-07
-2.56192e-07
1.64523e-06
-1.65502e-06
9.79609e-09
4.99902e-07
-7.03979e-07
2.04077e-07
-1.85025e-07
-2.47617e-07
4.32642e-07
1.07847e-07
-4.97773e-07
3.89926e-07
-1.56027e-06
1.82046e-06
1.41865e-06
-1.67884e-06
-1.88336e-08
-1.09865e-06
1.11748e-06
2.59026e-07
-2.46011e-07
-4.61692e-08
3.3154e-08
1.31707e-06
2.17695e-07
-3.23679e-07
-1.21109e-06
2.1869e-07
1.09838e-06
-5.75959e-08
5.75959e-08
-2.38678e-06
8.26509e-07
5.06397e-09
-8.54374e-08
8.03735e-08
1.12696e-07
-1.12256e-07
2.74477e-08
-2.78877e-08
-1.54749e-07
2.45914e-08
1.30158e-07
-1.25568e-06
6.36276e-07
3.13728e-08
-5.3633e-08
2.22602e-08
1.14989e-07
7.39765e-09
-8.08371e-09
-1.14303e-07
-1.07243e-07
3.11956e-09
1.04123e-07
-1.397e-07
5.67658e-09
1.45547e-07
-1.1732e-07
1.43319e-07
2.44756e-08
1.27065e-07
-5.53254e-08
-7.17393e-08
-3.18907e-12
6.83284e-09
-6.82966e-09
-2.24538e-06
4.64672e-09
2.24073e-06
1.05414e-08
-1.05414e-08
7.86203e-07
1.51656e-06
1.35123e-06
-1.38233e-06
-9.60087e-08
9.1138e-08
4.87066e-09
-1.32021e-06
9.84514e-07
1.15151e-06
-8.15808e-07
7.5009e-08
-1.70241e-07
2.78141e-07
-1.82909e-07
-3.49288e-07
3.27433e-07
2.18559e-08
1.50299e-07
-1.88481e-07
3.81813e-08
-2.70129e-09
-2.99081e-08
3.26094e-08
9.095e-09
-1.19396e-08
-8.06136e-08
8.34582e-08
3.46741e-08
-3.57239e-08
1.04982e-09
-2.32557e-06
1.36388e-06
-3.58525e-07
-9.06253e-08
7.06545e-09
9.04126e-08
-6.85265e-09
8.73519e-08
6.06922e-09
-9.34212e-08
5.69595e-08
-5.54371e-08
6.2072e-09
-4.92467e-08
1.0667e-07
-5.74236e-08
-1.20541e-07
-1.16122e-07
2.36662e-07
-3.57079e-09
3.58489e-09
-1.41082e-11
-5.96699e-08
7.30952e-08
-1.34253e-08
-3.15598e-07
-1.87914e-07
5.03512e-07
-1.01166e-07
-2.23949e-08
9.83583e-08
2.52023e-08
-6.63551e-07
-3.67959e-07
7.15911e-07
-1.28868e-07
-5.34683e-07
-7.73005e-09
-3.76632e-08
6.48207e-09
5.85155e-08
-6.62456e-08
1.35243e-08
7.35324e-08
-8.70567e-08
5.95333e-08
-6.02855e-09
3.94442e-07
-5.52456e-07
1.37327e-08
-1.37327e-08
-4.85691e-10
-1.11503e-08
7.79425e-08
-2.1403e-07
2.26407e-07
-9.03195e-08
-1.17079e-08
1.17079e-08
2.41507e-09
8.18928e-09
-3.71226e-10
-1.02331e-08
-4.53101e-07
4.53101e-07
3.49827e-08
-2.17234e-08
-4.16607e-07
4.03348e-07
2.46772e-08
-1.3204e-07
7.36204e-08
2.31963e-07
-3.05584e-07
-4.29456e-08
-2.24897e-07
2.67842e-07
-8.90777e-08
1.50244e-07
7.9177e-08
-1.40343e-07
-2.34099e-07
4.33847e-08
1.90714e-07
7.39731e-09
2.08916e-09
-3.70495e-09
-5.78152e-09
-5.85546e-08
6.20281e-08
-2.19018e-07
2.15545e-07
-3.01853e-08
-5.36101e-07
-3.87697e-07
3.78272e-07
1.5534e-08
-6.10872e-09
1.39149e-07
1.4022e-08
-1.53171e-07
-2.51733e-08
1.4961e-07
-1.24436e-07
1.41815e-07
-2.55753e-08
-1.1624e-07
-4.85376e-08
-5.39093e-09
5.12273e-08
2.44176e-08
-5.00191e-07
-2.31277e-08
-5.94858e-08
8.26135e-08
-1.23161e-06
1.9216e-08
1.21239e-06
6.6752e-07
2.14039e-08
3.34832e-08
-3.28354e-08
-5.85324e-08
5.78846e-08
1.40421e-07
-1.02571e-07
-3.78499e-08
1.45444e-06
-1.83793e-06
3.83494e-07
6.01462e-08
1.44411e-07
-2.04557e-07
4.53103e-08
1.87859e-07
-2.33169e-07
1.52856e-08
3.13338e-08
-9.55701e-09
-7.56424e-08
5.38657e-08
-4.74592e-08
-6.97726e-08
7.04572e-08
4.67752e-08
-1.4256e-07
1.3917e-07
2.67039e-08
-2.33143e-08
3.10095e-08
-2.01737e-07
1.70727e-07
2.84374e-07
-3.3867e-08
-6.03391e-08
1.28799e-08
-3.26982e-08
-7.42555e-08
1.06954e-07
3.07219e-08
-1.9223e-06
1.89158e-06
-2.90052e-08
-2.13914e-10
9.67244e-09
-9.45852e-09
-2.6302e-09
-3.11409e-08
3.86897e-11
3.37324e-08
-1.07365e-06
-1.88271e-09
1.07553e-06
-6.35311e-08
-4.56269e-09
-2.73345e-08
2.73345e-08
-1.01406e-09
5.44184e-09
-6.7255e-09
-5.72826e-08
1.11413e-08
4.61413e-08
-7.26434e-08
-2.88109e-08
1.01454e-07
2.08595e-07
1.01051e-07
-3.09645e-07
-4.13831e-08
5.04781e-08
1.02568e-07
-1.78211e-07
7.5643e-08
-8.58975e-08
1.74636e-09
8.41511e-08
1.71492e-07
-1.84912e-07
-1.83037e-07
1.6276e-07
5.7544e-09
-3.50372e-09
3.95431e-08
9.96058e-08
-1.68148e-07
1.89649e-07
-2.15017e-08
-1.73945e-08
-1.66393e-07
1.56399e-08
2.35461e-07
-2.2759e-07
-7.87094e-09
-1.54584e-07
1.87868e-07
-3.32838e-08
-4.59056e-08
-1.88194e-07
-6.89164e-08
4.58369e-08
2.30795e-08
2.16825e-07
7.23961e-09
4.97199e-08
-7.80226e-08
5.16662e-08
3.14204e-08
1.03165e-06
-1.01919e-06
-1.24612e-08
-9.77687e-08
1.02527e-07
1.5836e-07
-1.63118e-07
1.58735e-06
-1.72499e-06
1.37639e-07
1.38687e-06
4.51945e-07
1.63094e-06
-2.06203e-06
4.3109e-07
-1.38324e-07
-5.21977e-08
1.90522e-07
1.54215e-06
-8.81704e-07
1.20876e-06
6.92308e-07
-4.30161e-07
-2.62147e-07
1.01442e-06
1.78171e-06
-2.79613e-06
3.44524e-08
3.6759e-08
-7.12113e-08
4.89923e-09
5.2278e-08
-5.37763e-08
-3.40084e-09
1.48092e-08
1.44317e-07
-2.63023e-08
-9.54296e-08
1.21732e-07
-1.27307e-07
1.34425e-07
1.27337e-07
-1.34455e-07
9.40883e-08
-8.83339e-08
1.56707e-07
-1.91052e-07
3.43455e-08
1.11222e-07
-1.76016e-07
6.47934e-08
-5.57373e-08
1.23515e-07
-1.18243e-07
8.94324e-08
1.51332e-08
-1.91472e-07
2.22512e-07
-1.82068e-07
4.59651e-08
1.36103e-07
-8.43677e-08
8.92746e-08
-4.90687e-09
1.87124e-07
-8.52703e-10
-1.86271e-07
-1.34685e-07
1.6048e-07
1.61329e-07
1.26333e-07
3.49896e-07
-4.76228e-07
-5.09086e-07
2.24189e-07
4.11229e-07
1.42194e-07
-2.79126e-07
1.36933e-07
-1.46657e-06
1.4852e-06
-3.21267e-08
6.75075e-07
-6.42949e-07
1.34362e-08
-3.83961e-08
-1.64233e-08
3.88718e-08
-5.27664e-09
3.00387e-09
-3.6599e-08
-1.11089e-08
9.28847e-09
9.18193e-08
-8.99988e-08
-3.75385e-08
-2.33325e-07
2.70863e-07
9.7844e-08
-9.56846e-08
9.70446e-08
-9.9204e-08
-1.63668e-08
1.14211e-07
-1.93003e-08
-1.48171e-07
1.51105e-07
-8.62746e-09
4.74992e-08
1.51626e-06
1.25878e-06
-2.77505e-06
-1.06203e-06
-8.50588e-07
9.79354e-07
9.33263e-07
-1.37663e-07
1.04675e-07
1.41703e-07
-1.08714e-07
-5.87186e-07
1.47571e-06
-2.80815e-07
6.06632e-08
2.20152e-07
-1.13651e-06
-1.46286e-06
2.59936e-06
-1.99779e-07
-8.1036e-08
-1.05701e-07
1.45341e-07
-5.5644e-07
3.71033e-08
-4.21798e-08
-5.62361e-08
8.29415e-08
-2.67054e-08
-2.27452e-08
9.48019e-08
-7.20567e-08
-4.91756e-08
1.19646e-07
-1.26707e-07
-1.54877e-07
1.31416e-06
-9.34406e-07
1.36913e-09
2.08603e-08
-4.2814e-09
5.66036e-09
2.58073e-08
-2.7833e-08
-1.48183e-06
-1.05558e-06
1.0514e-06
1.48601e-06
4.24473e-07
5.05868e-07
-9.30341e-07
2.14318e-07
-2.69603e-07
-1.29615e-06
1.56575e-06
5.06595e-08
1.39293e-07
-1.89952e-07
-1.96311e-07
2.17461e-07
-2.75766e-07
3.99847e-08
-3.70468e-08
4.27072e-08
3.24748e-09
-4.96063e-09
6.62779e-08
-6.45648e-08
-7.69025e-08
-1.01232e-08
8.70257e-08
1.25669e-08
-8.01303e-10
-2.2105e-08
1.03393e-08
-6.06199e-08
-3.36253e-08
9.42453e-08
7.80208e-08
-7.54097e-08
1.19719e-07
-1.2233e-07
7.72704e-08
2.01053e-08
-9.73757e-08
-2.32846e-08
2.69039e-08
-1.18069e-07
9.47841e-08
2.45002e-08
-1.18093e-07
-1.65874e-08
-1.12819e-07
1.29406e-07
-2.22368e-07
5.56689e-08
1.66699e-07
-8.59807e-08
1.08554e-07
-2.25734e-08
2.15519e-08
-5.46834e-09
-1.01521e-07
6.26219e-08
-1.72316e-07
1.09694e-07
-2.4772e-08
-1.16165e-07
2.74593e-08
1.13478e-07
-5.50919e-09
5.50918e-09
-2.4564e-06
1.04154e-06
1.41486e-06
-1.68892e-06
2.17719e-06
-4.88265e-07
3.08473e-08
-1.04785e-08
-2.72678e-08
-9.54846e-07
9.25432e-07
-1.65951e-06
3.48061e-09
-5.36822e-07
5.52558e-07
-1.10368e-07
-2.0659e-08
1.10986e-07
2.00407e-08
1.11871e-07
1.622e-08
-1.28091e-07
1.35671e-07
-2.38007e-08
4.6478e-09
3.71794e-09
2.89945e-07
-2.39812e-07
-5.01334e-08
1.86143e-08
-1.28982e-07
-6.30473e-07
-3.08913e-08
6.61364e-07
-8.28116e-10
-1.46425e-07
1.47253e-07
-8.69318e-08
-1.06994e-07
-4.64276e-07
7.27533e-07
-7.67773e-08
1.61574e-08
9.63317e-07
1.58007e-06
-2.54339e-06
1.59621e-07
-1.52686e-07
-6.14112e-08
6.82854e-08
-8.57376e-09
1.69961e-09
-7.01969e-08
9.17489e-08
1.54346e-07
-2.55192e-07
1.07078e-08
2.44485e-07
-2.21666e-08
-4.27926e-08
2.61193e-08
3.88399e-08
1.19363e-08
3.31857e-07
-3.43793e-07
1.54071e-09
-1.54071e-09
6.45209e-08
-1.31878e-06
1.25426e-06
1.35616e-08
-2.70302e-07
2.5674e-07
-2.33369e-11
-6.97966e-09
7.00299e-09
1.63985e-07
-1.15632e-07
-4.83537e-08
2.6148e-07
-5.06808e-07
2.45328e-07
1.03379e-08
1.51235e-06
3.86847e-07
1.54248e-08
-3.90336e-07
1.95253e-07
3.22402e-08
-1.48693e-08
4.79027e-08
7.96783e-08
-4.22622e-08
-8.53188e-08
3.07916e-07
-5.97399e-07
2.89483e-07
1.36178e-07
1.8408e-07
-2.0513e-07
-3.03956e-07
-2.603e-07
2.603e-07
-3.44293e-07
1.90801e-06
-1.56372e-06
1.67437e-07
-1.45773e-07
-2.16646e-08
-4.79279e-08
2.57613e-08
4.48345e-07
-3.45841e-07
-1.02503e-07
-5.61682e-07
-1.09939e-07
-1.78722e-08
6.89493e-07
7.99044e-09
-7.99044e-09
-1.74326e-07
1.95725e-07
-1.01045e-08
1.01045e-08
1.00422e-08
-1.00422e-08
8.47638e-10
-3.99056e-08
3.94551e-08
-3.9715e-10
-5.4748e-08
8.1951e-09
-1.78755e-09
1.82746e-09
-3.99171e-11
5.14e-08
-1.06033e-08
3.341e-07
5.32815e-08
-3.87381e-07
1.6068e-07
-9.23935e-09
-3.16062e-08
-5.27084e-07
5.58691e-07
-1.56017e-07
-4.26313e-08
1.98649e-07
-2.80898e-08
-1.58715e-07
3.07872e-08
-8.78452e-08
3.56795e-09
-1.62023e-09
4.52015e-08
-1.22714e-06
3.24851e-08
-1.38484e-07
-3.10323e-08
3.35617e-07
-3.35986e-07
8.83901e-08
2.86949e-08
-8.45999e-08
7.07363e-08
-8.26759e-08
-1.05258e-07
1.28138e-07
-2.28798e-08
2.79439e-08
-1.02284e-07
-2.88931e-08
1.03233e-07
-9.78813e-08
1.25825e-07
5.53276e-08
5.99588e-08
-1.15286e-07
-2.1022e-07
1.56066e-07
-2.19122e-06
2.213e-08
-1.03647e-07
-2.37413e-08
-1.0794e-07
1.09766e-07
2.01977e-08
5.4603e-07
-5.77062e-07
6.46556e-08
1.29231e-08
-7.75787e-08
9.11666e-08
4.08735e-07
4.1808e-08
-2.92686e-07
2.50878e-07
-5.23213e-09
1.24458e-08
3.24643e-07
-3.92929e-07
-1.39369e-07
1.20623e-08
-1.38656e-07
4.79354e-08
9.07201e-08
3.35498e-07
3.82025e-08
3.04992e-07
-3.10387e-07
5.39599e-09
2.43998e-08
-1.48199e-07
1.3396e-07
6.32692e-08
-4.40181e-07
2.42952e-07
1.22413e-07
1.20121e-08
5.52118e-07
-5.33893e-07
-1.82244e-08
-2.66077e-08
-2.60022e-09
2.8823e-08
3.84838e-10
-4.74059e-08
-4.64911e-09
5.2055e-08
-8.39924e-08
1.33583e-07
-4.95908e-08
-3.81743e-09
2.11443e-09
-4.57029e-08
2.60627e-10
-1.12991e-09
1.73077e-07
9.54871e-08
-1.04971e-07
-1.63593e-07
-1.107e-07
-2.98276e-08
1.40528e-07
1.51736e-07
-1.05482e-07
1.24426e-09
1.04238e-07
-1.63498e-08
2.95342e-07
-2.78993e-07
-1.04368e-08
-2.33503e-07
-2.87829e-07
2.77392e-07
1.07943e-07
1.81772e-08
-1.16639e-07
-4.00932e-08
3.80151e-08
1.18717e-07
-7.57959e-08
3.33138e-09
7.24645e-08
1.72125e-09
6.59825e-08
-6.77037e-08
-7.38906e-07
-2.60908e-08
7.64997e-07
-7.5774e-07
-7.77546e-08
9.37482e-10
7.68172e-08
4.14571e-15
3.00913e-09
-1.39663e-08
3.56857e-07
-2.45773e-06
-9.40913e-07
-6.93392e-07
1.6343e-06
-7.19894e-08
-9.65189e-07
9.62654e-08
8.60633e-07
-1.74436e-06
8.83731e-07
-2.04854e-06
2.37827e-07
2.16757e-06
2.18489e-07
-1.03324e-07
-1.15165e-07
-7.32418e-08
1.48251e-07
1.82667e-08
2.00223e-07
1.13891e-08
-1.77777e-07
1.57519e-07
2.02574e-08
1.24577e-07
-1.15991e-07
-8.58595e-09
1.81543e-08
4.48076e-09
-1.8921e-08
-3.71404e-09
4.95931e-09
-5.14904e-09
3.97578e-10
-2.07855e-10
7.41026e-08
-6.92033e-08
5.5595e-11
-2.05813e-09
2.00252e-09
1.38631e-08
3.37666e-08
-4.76297e-08
-2.23553e-08
2.54171e-08
-7.13083e-08
6.58464e-08
2.94456e-08
1.14009e-07
4.13865e-07
-5.27875e-07
6.88405e-08
-1.98377e-09
-6.68567e-08
1.09802e-07
-1.85901e-09
-8.57462e-08
8.75636e-08
-6.88945e-08
6.7077e-08
-3.27925e-09
9.37689e-08
-9.04896e-08
2.08766e-08
3.18916e-07
-3.88796e-08
4.02915e-08
1.0981e-07
-2.649e-09
-1.42146e-06
1.4241e-06
-3.58676e-08
-9.83282e-08
1.34196e-07
-2.65352e-08
-8.5031e-08
8.52639e-08
3.35442e-08
-3.42416e-08
-9.71839e-08
-1.28279e-07
2.03751e-08
1.30913e-07
-2.30089e-08
-1.01862e-07
-2.64168e-08
9.98317e-08
2.76306e-08
-1.27462e-07
1.42677e-08
-1.39374e-08
-1.68276e-09
1.35246e-09
-1.22336e-09
-5.26496e-11
1.34856e-06
-8.4506e-07
-5.03495e-07
-2.38428e-08
-3.62342e-08
2.24256e-07
-1.88022e-07
-5.90251e-08
2.03491e-07
-1.44466e-07
1.76671e-07
-1.57139e-07
-1.95318e-08
-1.78755e-09
1.39348e-07
2.50452e-07
-2.948e-07
2.5853e-07
-2.14183e-07
4.46987e-07
-1.96535e-07
-5.86009e-07
2.9569e-08
-2.53109e-07
1.54643e-07
2.77235e-07
-1.78769e-07
1.93878e-07
-3.66122e-07
3.2061e-07
-1.05374e-07
5.90762e-08
4.62982e-08
-5.0883e-08
3.05992e-07
-2.55109e-07
3.02949e-07
-2.93169e-07
-2.66363e-07
2.72437e-07
-4.36671e-08
3.75931e-08
-3.01116e-09
5.55129e-07
1.30503e-06
-1.07843e-06
1.08386e-07
-3.34984e-07
3.96287e-08
-1.53313e-06
1.26353e-06
-4.58848e-07
1.1682e-08
-4.94188e-09
4.52108e-07
-1.33543e-06
1.03068e-06
-1.02147e-06
-6.47923e-07
6.26358e-07
2.15647e-08
1.63047e-06
1.58782e-06
2.72324e-08
3.09139e-10
-2.61596e-08
-1.38202e-09
-2.11951e-07
1.11884e-06
-1.37943e-06
4.72533e-07
3.39529e-08
-3.95679e-07
3.84681e-07
-2.29546e-08
1.98974e-07
-2.25306e-07
-5.73521e-07
4.34676e-08
5.75364e-07
-5.63222e-10
-7.12254e-09
7.68576e-09
-2.49216e-08
5.83582e-10
2.43348e-08
-2.34793e-08
3.53984e-10
-1.79626e-09
1.72218e-06
-1.53263e-06
-1.89551e-07
6.15434e-11
2.44241e-08
1.0731e-07
-1.31735e-07
-1.10197e-07
8.90094e-08
2.11874e-08
3.47353e-09
2.19764e-08
-2.545e-08
-1.612e-06
1.60326e-06
8.73939e-09
-3.2766e-08
-1.12825e-07
3.53944e-08
-2.24783e-09
2.24782e-09
-1.60834e-08
1.05093e-07
5.11876e-10
-2.75971e-09
-1.48872e-07
-2.89044e-08
-1.17542e-07
1.53233e-07
-1.74016e-07
-1.05088e-07
-9.6276e-08
9.59896e-08
-1.53355e-07
1.85729e-08
-1.67064e-08
1.37441e-08
3.47423e-09
6.56876e-10
-6.56878e-10
1.16078e-08
-1.12938e-07
1.40873e-07
2.32273e-09
4.51362e-10
-6.86853e-08
3.46281e-09
-4.96044e-10
-2.96678e-09
3.50712e-07
-7.65994e-07
-3.2297e-07
7.38251e-07
1.38916e-07
-2.08689e-07
-2.13581e-10
-7.64337e-09
-1.51685e-08
1.53214e-07
-2.0357e-09
-1.55308e-07
4.12952e-09
-1.13974e-07
-2.36892e-08
-1.00579e-07
1.03464e-07
-3.8753e-08
-1.5834e-07
1.2902e-07
2.932e-08
-3.75417e-08
3.69591e-08
7.21289e-10
-2.41539e-07
-4.62439e-07
5.65795e-07
-4.658e-07
-9.99944e-08
-1.55295e-07
1.17648e-08
2.12176e-07
-3.91025e-07
1.78849e-07
2.38031e-08
-3.95987e-07
3.72184e-07
-6.01794e-07
2.82723e-08
4.18735e-07
-5.32798e-07
-4.07846e-07
-4.4154e-08
4.81733e-07
-4.37579e-07
2.75939e-08
-3.63964e-07
3.36371e-07
1.85783e-07
5.35554e-08
1.97765e-07
-2.58134e-07
6.03687e-08
4.29634e-08
-4.19039e-08
-7.31053e-09
-1.09865e-08
-1.17846e-08
-4.17121e-09
-1.8108e-10
-4.02726e-10
3.82904e-08
-3.58753e-08
1.26649e-08
1.31424e-08
-4.717e-08
1.0405e-07
-1.09261e-07
5.21162e-09
-1.39454e-06
1.4285e-06
-6.42235e-08
8.28098e-08
-1.85863e-08
-9.69074e-08
8.91265e-08
-6.99738e-08
-3.21026e-08
-1.23357e-06
-7.4879e-08
1.68713e-07
-9.38342e-08
-9.76921e-07
-7.44085e-08
1.05133e-06
-2.06377e-07
-6.74329e-08
1.98931e-07
-5.95431e-09
-4.56623e-10
2.23972e-09
-1.26787e-06
1.26769e-06
2.17334e-07
-1.51324e-06
1.53207e-06
-1.88279e-08
1.30025e-07
-1.34372e-07
4.09955e-08
-3.66484e-08
-4.69621e-08
-2.3856e-07
2.85522e-07
-9.3686e-08
-2.96822e-08
-6.8646e-08
-1.03102e-07
3.8653e-08
-4.23901e-08
1.06839e-07
4.23133e-08
-1.75117e-07
1.32804e-07
5.78457e-10
-2.93493e-08
2.87475e-08
-1.89901e-07
1.46885e-07
4.30158e-08
-3.08606e-07
3.05065e-07
1.71026e-08
7.53196e-08
-7.39033e-08
-1.91317e-07
1.84472e-07
-3.7587e-08
-6.36144e-08
6.60178e-08
1.45229e-07
-1.50961e-07
2.33357e-07
-1.58038e-07
-2.54777e-07
2.55071e-07
2.72993e-08
2.9598e-08
-6.67797e-07
6.98179e-07
-3.03824e-08
1.23792e-06
-1.35346e-06
9.01744e-07
2.77236e-07
4.51846e-07
-7.29082e-07
2.29559e-07
4.68142e-08
1.16095e-07
1.13464e-07
-9.11059e-08
9.19659e-08
8.63942e-09
-9.49944e-09
-1.88992e-07
1.06897e-06
-1.47477e-06
5.94793e-07
-5.52965e-07
-3.30449e-08
3.4873e-08
2.27564e-08
-3.82084e-07
-1.71508e-07
1.73293e-07
-1.78531e-09
-1.83475e-07
2.61417e-07
-2.8868e-07
4.50786e-08
2.43602e-07
-1.83046e-07
-9.82752e-07
1.1658e-06
-5.85045e-09
5.19918e-08
2.5917e-07
-2.19874e-07
-3.92959e-08
2.55498e-07
-2.69851e-07
1.43533e-08
-1.33274e-07
5.69269e-08
-3.02392e-07
2.45465e-07
2.2801e-08
8.46195e-08
-4.83443e-08
-1.06102e-06
1.8752e-06
-8.14186e-07
-8.59089e-08
-6.61803e-07
7.47712e-07
-1.39077e-07
2.54944e-07
-3.12402e-07
-8.55922e-08
-5.51371e-09
9.1119e-08
-7.52822e-08
-1.58368e-08
-1.46145e-07
1.84412e-07
-3.82665e-08
8.68256e-08
1.12951e-08
-9.81207e-08
1.52222e-08
8.69198e-08
-1.53164e-08
3.11688e-08
-2.17001e-08
-7.04005e-08
6.09318e-08
-1.2272e-07
2.14362e-07
-2.76666e-07
2.46293e-07
-3.69013e-07
-2.33427e-07
4.47789e-07
-5.52306e-09
3.87808e-09
-6.97493e-09
-1.6541e-07
1.78276e-07
-6.35793e-08
1.42047e-07
-7.84677e-08
2.90845e-08
-1.30205e-09
-3.03345e-08
2.55198e-09
-8.13278e-08
9.655e-08
-3.1913e-08
-4.49286e-10
3.09818e-10
-3.90757e-10
8.09385e-11
-7.4537e-07
7.4853e-07
-9.58704e-09
1.38325e-09
-1.2974e-09
1.10254e-08
-8.10581e-08
1.26081e-09
1.2329e-10
-1.38411e-09
-1.42162e-07
4.43929e-08
-2.86581e-08
1.60917e-07
-1.32258e-07
-3.54757e-07
2.02197e-08
3.34537e-07
-6.85879e-07
7.11184e-07
-3.17169e-09
1.118e-07
-4.6087e-08
-6.5713e-08
3.80793e-07
-4.01449e-07
2.06561e-08
-1.89485e-10
1.46745e-09
-4.58199e-07
7.92388e-07
3.58119e-07
-1.19043e-07
-5.66238e-08
1.75667e-07
1.37045e-07
-1.08772e-07
-2.82727e-08
8.04607e-09
-1.35282e-07
1.37063e-07
-9.82699e-09
-6.66092e-10
-5.71837e-10
3.90757e-10
7.62456e-09
5.23917e-11
2.06897e-06
-1.10566e-06
8.79702e-07
-8.0362e-07
-9.96585e-07
9.20503e-07
4.5548e-07
1.27396e-06
-1.72944e-06
5.00748e-08
1.23825e-07
-1.2324e-07
3.17692e-07
-4.56769e-07
-1.61189e-06
2.59457e-07
1.396e-06
-4.35575e-08
-1.94481e-06
1.10143e-06
8.43375e-07
3.00408e-07
-7.06191e-07
4.05782e-07
-2.71485e-07
5.71893e-07
2.14882e-07
4.7839e-08
-2.62721e-07
4.84542e-08
-5.53427e-08
2.21771e-07
2.30351e-07
3.64617e-08
-2.18974e-07
1.05675e-07
-1.23648e-07
9.15229e-07
6.26923e-07
2.78806e-07
3.97161e-09
-3.97161e-09
-2.63188e-07
-3.23009e-08
2.95489e-07
-6.56853e-08
-8.49377e-09
7.41791e-08
1.1366e-08
3.66906e-07
-9.60079e-07
1.41404e-07
8.18675e-07
-1.45352e-07
2.13963e-08
9.12574e-08
-9.56699e-08
1.00806e-07
-6.86631e-08
6.35274e-08
-3.58779e-08
2.00082e-08
-2.03169e-08
1.2849e-08
-5.45165e-09
1.06517e-10
-5.78216e-10
1.76903e-07
-5.49518e-08
-1.49713e-07
-1.24877e-08
1.62201e-07
-9.22496e-11
-1.19034e-08
5.11654e-08
1.38324e-09
1.23656e-09
5.80087e-10
-1.81668e-09
2.53696e-07
-6.79135e-08
4.51257e-08
4.33325e-08
-3.90973e-08
-4.93609e-08
1.02239e-07
-1.27011e-07
-4.90458e-08
1.27257e-07
-1.31081e-07
5.28692e-08
5.67119e-09
-5.6712e-09
3.96231e-07
-6.04522e-07
2.08291e-07
-1.15164e-07
1.48708e-07
-4.44811e-07
5.0726e-07
-1.65095e-06
1.46239e-06
-1.10847e-06
1.29702e-06
1.03165e-06
-1.48119e-07
2.97923e-07
1.29552e-07
-2.79355e-07
2.73886e-07
-1.00809e-07
6.37057e-08
-7.18756e-08
-5.54093e-08
1.12306e-07
-6.44035e-08
-2.69331e-08
1.32084e-07
-1.05151e-07
1.08238e-07
-2.28653e-08
1.52904e-07
4.80489e-08
8.43169e-08
1.89569e-07
-2.06685e-07
-5.6036e-08
-2.70721e-07
-9.26588e-08
3.63379e-07
-3.66302e-08
1.43502e-07
-1.06872e-07
-2.55422e-08
3.81091e-08
5.37306e-08
3.92231e-08
-5.59931e-08
3.44774e-08
-3.77881e-08
-1.64825e-08
1.97932e-08
-2.01906e-07
1.21758e-07
8.01486e-08
-6.96907e-08
-9.28997e-07
1.08532e-06
-8.66341e-08
-7.14695e-08
7.62109e-08
-4.74143e-09
-1.06258e-07
-1.92737e-06
1.85058e-06
7.24428e-08
-2.12098e-06
-6.95162e-09
5.9747e-08
-5.70323e-08
-3.05694e-08
2.98178e-08
1.63428e-10
5.88135e-10
-2.07577e-06
4.01954e-07
-2.57205e-07
8.64905e-09
-8.0706e-09
-2.2263e-07
1.1324e-07
-7.56532e-09
1.0454e-07
-9.64943e-08
9.90644e-08
1.1037e-07
-9.77461e-08
-3.94111e-07
2.23246e-07
1.76334e-07
-3.3044e-09
-1.7303e-07
1.08932e-07
6.0563e-09
3.35342e-08
-1.57182e-07