/*--------------------------------*- C++ -*----------------------------------*\
| =========                 |                                                 |
| \\      /  F ield         | OpenFOAM: The Open Source CFD Toolbox           |
|  \\    /   O peration     | Version:  v2012                                 |
|   \\  /    A nd           | Website:  www.openfoam.com                      |
|    \\/     M anipulation  |                                                 |
\*---------------------------------------------------------------------------*/
FoamFile
{
    version     2.0;
    format      ascii;
    class       volVectorField;
    location    "0.75";
    object      U;
}
// * * * * * * * * * * * * * * * * * * * * * * * * * * * * * * * * * * * * * //

dimensions      [0 1 -1 0 0 0 0];


internalField   nonuniform List<vector> 
3338
(
(0.000744896 -0.0226611 -6.50265e-06)
(0.000746872 -0.0223772 -6.52001e-06)
(0.000744212 -0.0220354 -6.49688e-06)
(0.000736576 -0.0216331 -6.43031e-06)
(0.000723672 -0.0211675 -6.31775e-06)
(0.000705277 -0.0206358 -6.15726e-06)
(0.000681248 -0.020035 -5.94759e-06)
(0.000651552 -0.0193615 -5.68844e-06)
(0.000616286 -0.0186114 -5.38066e-06)
(0.0005757 -0.0177798 -5.02641e-06)
(0.000530222 -0.0168608 -4.62945e-06)
(0.000480467 -0.0158465 -4.19513e-06)
(0.000427242 -0.0147277 -3.73049e-06)
(0.00037153 -0.0134938 -3.24412e-06)
(0.000314413 -0.0121338 -2.74545e-06)
(0.000256988 -0.0106386 -2.24408e-06)
(0.000200298 -0.00900474 -1.7491e-06)
(0.000145373 -0.00723559 -1.26951e-06)
(9.34037e-05 -0.00533851 -8.15657e-07)
(4.72516e-05 -0.00331058 -4.1328e-07)
(4.40564e-06 -0.00112149 -6.51051e-08)
(0.00074901 -0.022686 -6.53839e-06)
(0.000750829 -0.0223986 -6.55436e-06)
(0.000747991 -0.0220533 -6.52966e-06)
(0.000740153 -0.0216474 -6.46132e-06)
(0.000727024 -0.0211784 -6.34679e-06)
(0.000708379 -0.0206434 -6.18413e-06)
(0.000684079 -0.0200395 -5.97209e-06)
(0.000654088 -0.019363 -5.71039e-06)
(0.000618507 -0.0186102 -5.39988e-06)
(0.000577586 -0.0177762 -5.04274e-06)
(0.000531761 -0.0168551 -4.64278e-06)
(0.000481647 -0.0158392 -4.20538e-06)
(0.000428064 -0.0147193 -3.73767e-06)
(0.000372001 -0.0134848 -3.2483e-06)
(0.000314551 -0.0121245 -2.74679e-06)
(0.000256822 -0.0106295 -2.24281e-06)
(0.000199861 -0.00899606 -1.74554e-06)
(0.000144696 -0.00722773 -1.26389e-06)
(9.2499e-05 -0.00533206 -8.08197e-07)
(4.62509e-05 -0.00330606 -4.05027e-07)
(5.71571e-06 -0.00112124 -6.78664e-08)
(0.000756658 -0.0227055 -6.60527e-06)
(0.00075836 -0.0224149 -6.62023e-06)
(0.000755337 -0.0220662 -6.59392e-06)
(0.000747247 -0.0216569 -6.52337e-06)
(0.000733795 -0.0211844 -6.40603e-06)
(0.00071476 -0.020646 -6.23995e-06)
(0.000690002 -0.0200385 -6.02392e-06)
(0.000659492 -0.0193588 -5.75768e-06)
(0.000623331 -0.0186029 -5.44211e-06)
(0.000581778 -0.017766 -5.07946e-06)
(0.000535275 -0.0168423 -4.6736e-06)
(0.000484452 -0.0158243 -4.23001e-06)
(0.000430137 -0.0147026 -3.75592e-06)
(0.000373337 -0.0134668 -3.26013e-06)
(0.000315164 -0.0121058 -2.75233e-06)
(0.000256754 -0.0106105 -2.24244e-06)
(0.000199183 -0.00897715 -1.73985e-06)
(0.00014351 -0.00720932 -1.25382e-06)
(9.09445e-05 -0.00531474 -7.94867e-07)
(4.44264e-05 -0.00329056 -3.89065e-07)
(7.19295e-06 -0.00111054 -6.80709e-08)
(0.000767675 -0.0227249 -6.70141e-06)
(0.000769251 -0.0224313 -6.71526e-06)
(0.000766007 -0.0220795 -6.68702e-06)
(0.000757594 -0.021667 -6.61366e-06)
(0.000743719 -0.0211912 -6.49262e-06)
(0.000724158 -0.0206495 -6.32196e-06)
(0.000698776 -0.0200389 -6.10048e-06)
(0.000667545 -0.0193561 -5.82795e-06)
(0.000630575 -0.0185973 -5.50532e-06)
(0.000588132 -0.0177578 -5.13489e-06)
(0.000540671 -0.0168318 -4.72066e-06)
(0.000488832 -0.0158117 -4.26821e-06)
(0.000433464 -0.0146885 -3.78493e-06)
(0.000375594 -0.0134516 -3.27979e-06)
(0.000316366 -0.0120899 -2.76277e-06)
(0.000256951 -0.0105943 -2.2441e-06)
(0.000198483 -0.0089611 -1.73369e-06)
(0.000142081 -0.00719383 -1.24127e-06)
(8.90421e-05 -0.00530043 -7.78209e-07)
(4.2279e-05 -0.00327843 -3.70046e-07)
(5.90256e-06 -0.00110308 -5.96039e-08)
(0.000782036 -0.0227449 -6.82678e-06)
(0.000783465 -0.0224482 -6.83935e-06)
(0.000779947 -0.0220931 -6.80872e-06)
(0.000771129 -0.0216774 -6.73183e-06)
(0.000756714 -0.0211983 -6.60608e-06)
(0.000736481 -0.0206534 -6.42956e-06)
(0.000710297 -0.0200397 -6.20108e-06)
(0.00067814 -0.0193539 -5.92047e-06)
(0.000640127 -0.0185923 -5.58873e-06)
(0.000596536 -0.0177502 -5.2083e-06)
(0.000547838 -0.0168219 -4.78326e-06)
(0.000494692 -0.0158 -4.3194e-06)
(0.000437966 -0.0146753 -3.82427e-06)
(0.000378719 -0.0134374 -3.3071e-06)
(0.00031813 -0.0120752 -2.7782e-06)
(0.000257425 -0.0105795 -2.24828e-06)
(0.000197812 -0.00894651 -1.72786e-06)
(0.000140502 -0.00717987 -1.22751e-06)
(8.69333e-05 -0.00528768 -7.59801e-07)
(4.00807e-05 -0.00326792 -3.50938e-07)
(4.87677e-06 -0.00109708 -4.93041e-08)
(0.000799732 -0.0227652 -6.98124e-06)
(0.000800995 -0.0224652 -6.99238e-06)
(0.000797156 -0.0221068 -6.95895e-06)
(0.000787854 -0.0216877 -6.87784e-06)
(0.000772791 -0.0212053 -6.74644e-06)
(0.000751746 -0.020657 -6.56282e-06)
(0.000724589 -0.02004 -6.32585e-06)
(0.000691305 -0.0193511 -6.03541e-06)
(0.000652024 -0.0185865 -5.69261e-06)
(0.000607036 -0.0177418 -5.29997e-06)
(0.000556833 -0.0168112 -4.8618e-06)
(0.000502093 -0.0157874 -4.38403e-06)
(0.000443716 -0.0146612 -3.87448e-06)
(0.000382794 -0.0134222 -3.34269e-06)
(0.000320555 -0.0120595 -2.7994e-06)
(0.00025829 -0.0105637 -2.25584e-06)
(0.000197302 -0.0089311 -1.72342e-06)
(0.000138917 -0.00716528 -1.21368e-06)
(8.47692e-05 -0.00527458 -7.40897e-07)
(3.7931e-05 -0.00325743 -3.32179e-07)
(4.06454e-06 -0.00109177 -4.2398e-08)
(0.000820748 -0.0227859 -7.1647e-06)
(0.000821825 -0.0224825 -7.17422e-06)
(0.000817614 -0.0221207 -7.13754e-06)
(0.00080775 -0.0216981 -7.05152e-06)
(0.000791929 -0.0212122 -6.91351e-06)
(0.000769933 -0.0206605 -6.7216e-06)
(0.000741636 -0.0200401 -6.47468e-06)
(0.000707032 -0.019348 -6.17272e-06)
(0.000666263 -0.0185805 -5.81693e-06)
(0.000619639 -0.017733 -5.41001e-06)
(0.00056767 -0.0168 -4.95643e-06)
(0.000511066 -0.0157742 -4.46238e-06)
(0.000450758 -0.0146465 -3.93598e-06)
(0.000387882 -0.0134065 -3.38714e-06)
(0.000323723 -0.0120431 -2.82708e-06)
(0.00025965 -0.0105473 -2.26774e-06)
(0.000197079 -0.00891505 -1.72149e-06)
(0.000137474 -0.0071501 -1.2011e-06)
(8.26964e-05 -0.00526096 -7.2281e-07)
(3.5934e-05 -0.00324659 -3.14664e-07)
(3.4567e-06 -0.00108618 -3.67557e-08)
(0.000845093 -0.0228071 -7.37722e-06)
(0.000845958 -0.0225002 -7.38489e-06)
(0.000841322 -0.0221349 -7.34451e-06)
(0.000830814 -0.0217087 -7.25287e-06)
(0.000814127 -0.0212191 -7.1073e-06)
(0.000791041 -0.0206639 -6.90588e-06)
(0.000761439 -0.0200401 -6.64757e-06)
(0.000725321 -0.0193446 -6.3324e-06)
(0.000682849 -0.018574 -5.96174e-06)
(0.00063435 -0.0177237 -5.53846e-06)
(0.000580364 -0.0167883 -5.06728e-06)
(0.00052163 -0.0157605 -4.55464e-06)
(0.00045912 -0.0146312 -4.00902e-06)
(0.00039402 -0.0133901 -3.44076e-06)
(0.000327684 -0.0120263 -2.86169e-06)
(0.000261567 -0.0105304 -2.28451e-06)
(0.000197217 -0.00889871 -1.72273e-06)
(0.000136253 -0.00713481 -1.19046e-06)
(8.07821e-05 -0.00524747 -7.06096e-07)
(3.41108e-05 -0.00323619 -2.98759e-07)
(2.928e-06 -0.00108122 -3.1575e-08)
(0.000872784 -0.0228288 -7.61895e-06)
(0.000873409 -0.0225183 -7.62453e-06)
(0.000868293 -0.0221493 -7.57996e-06)
(0.000857058 -0.0217193 -7.48198e-06)
(0.000839393 -0.0212261 -7.32787e-06)
(0.00081508 -0.0206671 -7.11575e-06)
(0.000784006 -0.0200397 -6.84459e-06)
(0.000746187 -0.0193409 -6.51457e-06)
(0.000701797 -0.0185671 -6.12718e-06)
(0.000651193 -0.0177139 -5.68552e-06)
(0.00059494 -0.016776 -5.19455e-06)
(0.000533819 -0.0157461 -4.66107e-06)
(0.000468844 -0.0146152 -4.09394e-06)
(0.000401262 -0.0133731 -3.50402e-06)
(0.0003325 -0.0120087 -2.90377e-06)
(0.000264116 -0.0105129 -2.30679e-06)
(0.0001978 -0.00888182 -1.72784e-06)
(0.00013534 -0.00711914 -1.18251e-06)
(7.90983e-05 -0.00523382 -6.91411e-07)
(3.24918e-05 -0.00322588 -2.8457e-07)
(2.47163e-06 -0.0010765 -2.72478e-08)
(0.000903851 -0.0228511 -7.89015e-06)
(0.000904204 -0.0225369 -7.89336e-06)
(0.000898551 -0.022164 -7.8441e-06)
(0.000886503 -0.0217302 -7.73903e-06)
(0.000867747 -0.021233 -7.57541e-06)
(0.000842067 -0.0206702 -7.35135e-06)
(0.000809357 -0.0200391 -7.06592e-06)
(0.000769645 -0.0193367 -6.71938e-06)
(0.000723129 -0.0185596 -6.31343e-06)
(0.000670188 -0.0177035 -5.85138e-06)
(0.000611426 -0.016763 -5.33851e-06)
(0.000547662 -0.015731 -4.78197e-06)
(0.000479967 -0.0145985 -4.19109e-06)
(0.000409649 -0.0133553 -3.57728e-06)
(0.000338224 -0.0119905 -2.95378e-06)
(0.000267357 -0.0104948 -2.33512e-06)
(0.000198894 -0.00886441 -1.73742e-06)
(0.0001348 -0.00710311 -1.17782e-06)
(7.76949e-05 -0.00522005 -6.79158e-07)
(3.1091e-05 -0.00321571 -2.72342e-07)
(2.08233e-06 -0.00107203 -2.34619e-08)
(0.000938334 -0.0228741 -8.19116e-06)
(0.000938379 -0.022556 -8.19169e-06)
(0.000932125 -0.022179 -8.1372e-06)
(0.000919178 -0.0217411 -8.02428e-06)
(0.000899216 -0.0212399 -7.85014e-06)
(0.00087203 -0.0206732 -7.61293e-06)
(0.000837517 -0.0200382 -7.31177e-06)
(0.000795723 -0.0193322 -6.94706e-06)
(0.000746869 -0.0185517 -6.5207e-06)
(0.000691365 -0.0176925 -6.03628e-06)
(0.000629851 -0.0167493 -5.49939e-06)
(0.000563197 -0.0157151 -4.91762e-06)
(0.000492528 -0.0145809 -4.30078e-06)
(0.000419229 -0.0133367 -3.66095e-06)
(0.000344905 -0.0119714 -3.01215e-06)
(0.000271344 -0.0104759 -2.36997e-06)
(0.000200553 -0.00884642 -1.75195e-06)
(0.000134685 -0.0070867 -1.17684e-06)
(7.66059e-05 -0.00520613 -6.6967e-07)
(2.99141e-05 -0.00320566 -2.62032e-07)
(1.75374e-06 -0.00106779 -2.03209e-08)
(0.000976279 -0.0228979 -8.52241e-06)
(0.000975977 -0.0225756 -8.5199e-06)
(0.000969059 -0.0221945 -8.45962e-06)
(0.000955119 -0.0217523 -8.33804e-06)
(0.000933836 -0.0212469 -8.15237e-06)
(0.000904998 -0.020676 -7.90075e-06)
(0.000868516 -0.020037 -7.58241e-06)
(0.00082445 -0.0193271 -7.19787e-06)
(0.000773048 -0.0185431 -6.74928e-06)
(0.000714753 -0.0176808 -6.24049e-06)
(0.000650248 -0.0167348 -5.6775e-06)
(0.000580454 -0.0156983 -5.06832e-06)
(0.000506564 -0.0145625 -4.42336e-06)
(0.000430039 -0.0133172 -3.75537e-06)
(0.000352588 -0.0119515 -3.07927e-06)
(0.000276123 -0.0104563 -2.41174e-06)
(0.000202826 -0.0088278 -1.77182e-06)
(0.000135033 -0.00706986 -1.17991e-06)
(7.58554e-05 -0.00519204 -6.63122e-07)
(2.89596e-05 -0.00319567 -2.53701e-07)
(1.47913e-06 -0.00106373 -1.76683e-08)
(0.00101774 -0.0229224 -8.88436e-06)
(0.00101705 -0.0225959 -8.87846e-06)
(0.0010094 -0.0222103 -8.81177e-06)
(0.000994373 -0.0217637 -8.68073e-06)
(0.000971647 -0.0212538 -8.48246e-06)
(0.000941013 -0.0206786 -8.21517e-06)
(0.000902391 -0.0200354 -7.87815e-06)
(0.000855863 -0.0193216 -7.47212e-06)
(0.0008017 -0.0185339 -6.99944e-06)
(0.000740387 -0.0176682 -6.46431e-06)
(0.000672651 -0.0167195 -5.87312e-06)
(0.000599473 -0.0156806 -5.23439e-06)
(0.000522112 -0.0145431 -4.55914e-06)
(0.00044212 -0.0132968 -3.86089e-06)
(0.000361312 -0.0119307 -3.15548e-06)
(0.000281736 -0.0104359 -2.46079e-06)
(0.000205747 -0.00880852 -1.79736e-06)
(0.000135874 -0.00705257 -1.18728e-06)
(7.54574e-05 -0.00517774 -6.59669e-07)
(2.8223e-05 -0.00318571 -2.47249e-07)
(1.25123e-06 -0.00105982 -1.54973e-08)
(0.00106279 -0.0229479 -9.27761e-06)
(0.00106166 -0.0226168 -9.26788e-06)
(0.0010532 -0.0222266 -9.19417e-06)
(0.00103699 -0.0217753 -9.05277e-06)
(0.0010127 -0.0212608 -8.84083e-06)
(0.000980117 -0.020681 -8.55656e-06)
(0.000939184 -0.0200334 -8.19938e-06)
(0.000889997 -0.0193155 -7.77014e-06)
(0.000832863 -0.018524 -7.27152e-06)
(0.000768301 -0.0176549 -6.70804e-06)
(0.000697096 -0.0167032 -6.08656e-06)
(0.000620284 -0.015662 -5.41613e-06)
(0.000539208 -0.0145227 -4.70844e-06)
(0.000455507 -0.0132753 -3.97781e-06)
(0.000371114 -0.011909 -3.2411e-06)
(0.000288216 -0.0104146 -2.5174e-06)
(0.000209348 -0.00878853 -1.82884e-06)
(0.000137229 -0.00703478 -1.19914e-06)
(7.54206e-05 -0.0051632 -6.59358e-07)
(2.76963e-05 -0.00317575 -2.42658e-07)
(1.06382e-06 -0.00105601 -1.37076e-08)
(0.0011115 -0.0229743 -9.70277e-06)
(0.00110987 -0.0226384 -9.68877e-06)
(0.00110053 -0.0222433 -9.60733e-06)
(0.00108303 -0.0217871 -9.4547e-06)
(0.00105704 -0.0212678 -9.22795e-06)
(0.00102236 -0.0206832 -8.92537e-06)
(0.00097894 -0.0200311 -8.54646e-06)
(0.000926898 -0.0193088 -8.09231e-06)
(0.000866574 -0.0185133 -7.56585e-06)
(0.000798535 -0.0176407 -6.97203e-06)
(0.000723616 -0.016686 -6.31813e-06)
(0.000642926 -0.0156423 -5.61384e-06)
(0.000557884 -0.0145013 -4.87154e-06)
(0.000470233 -0.0132528 -4.10643e-06)
(0.000382024 -0.0118862 -3.33641e-06)
(0.000295592 -0.0103924 -2.58185e-06)
(0.000213652 -0.00876779 -1.86646e-06)
(0.000139114 -0.00701644 -1.21563e-06)
(7.57472e-05 -0.00514837 -6.62235e-07)
(2.73713e-05 -0.00316574 -2.39813e-07)
(9.11093e-07 -0.00105229 -1.22763e-08)
(0.00116394 -0.0230018 -1.01606e-05)
(0.00116177 -0.0226608 -1.01418e-05)
(0.00115145 -0.0222606 -1.00519e-05)
(0.00113256 -0.0217992 -9.88705e-06)
(0.00110474 -0.0212747 -9.64434e-06)
(0.0010678 -0.0206852 -9.32206e-06)
(0.00102171 -0.0200283 -8.91985e-06)
(0.000966609 -0.0193015 -8.43902e-06)
(0.000902878 -0.0185019 -7.88283e-06)
(0.000831126 -0.0176256 -7.25659e-06)
(0.000752252 -0.0166677 -6.56817e-06)
(0.000667431 -0.0156215 -5.82783e-06)
(0.000578176 -0.0144787 -5.04874e-06)
(0.000486329 -0.0132292 -4.247e-06)
(0.000394073 -0.0118623 -3.44165e-06)
(0.000303888 -0.0103692 -2.65433e-06)
(0.000218678 -0.00874623 -1.91038e-06)
(0.000141537 -0.00699753 -1.23682e-06)
(7.64374e-05 -0.00513321 -6.68277e-07)
(2.72382e-05 -0.00315564 -2.38664e-07)
(7.88521e-07 -0.00104862 -1.11379e-08)
(0.0012202 -0.0230302 -1.06517e-05)
(0.00121742 -0.0226839 -1.06276e-05)
(0.00120605 -0.0222783 -1.05285e-05)
(0.00118564 -0.0218116 -1.03505e-05)
(0.00115585 -0.0212817 -1.00905e-05)
(0.00111649 -0.020687 -9.74715e-06)
(0.00106754 -0.0200251 -9.32001e-06)
(0.00100918 -0.0192936 -8.8107e-06)
(0.000941817 -0.0184896 -8.2228e-06)
(0.000866116 -0.0176095 -7.5621e-06)
(0.000783036 -0.0166484 -6.83697e-06)
(0.000693835 -0.0155996 -6.05839e-06)
(0.000600111 -0.0144548 -5.2403e-06)
(0.000503824 -0.0132043 -4.3998e-06)
(0.000407282 -0.0118373 -3.55702e-06)
(0.000313125 -0.010345 -2.73503e-06)
(0.000224438 -0.00872383 -1.96072e-06)
(0.000144504 -0.00697798 -1.26276e-06)
(7.74869e-05 -0.00511767 -6.77469e-07)
(2.72883e-05 -0.0031454 -2.39105e-07)
(6.91717e-07 -0.00104496 -1.02682e-08)
(0.00128039 -0.0230599 -1.11771e-05)
(0.00127692 -0.022708 -1.11471e-05)
(0.0012644 -0.0222967 -1.10379e-05)
(0.00124235 -0.0218242 -1.08456e-05)
(0.00121045 -0.0212887 -1.05672e-05)
(0.0011685 -0.0206885 -1.02012e-05)
(0.0011165 -0.0200213 -9.74744e-06)
(0.00105466 -0.0192849 -9.20779e-06)
(0.000983439 -0.0184765 -8.5862e-06)
(0.000903544 -0.0175924 -7.88889e-06)
(0.000816009 -0.0166278 -7.12488e-06)
(0.000722168 -0.0155764 -6.3058e-06)
(0.000623722 -0.0144298 -5.44649e-06)
(0.000522741 -0.0131782 -4.56501e-06)
(0.000421675 -0.0118111 -3.68274e-06)
(0.000323318 -0.0103197 -2.82407e-06)
(0.000230944 -0.00870051 -2.01756e-06)
(0.000148017 -0.00695775 -1.29347e-06)
(7.88916e-05 -0.0051017 -6.89757e-07)
(2.75116e-05 -0.00313498 -2.41072e-07)
(6.17444e-07 -0.0010413 -9.62345e-09)
(0.0013446 -0.0230907 -1.17377e-05)
(0.00134038 -0.0227329 -1.1701e-05)
(0.0013266 -0.0223156 -1.15808e-05)
(0.00130279 -0.0218371 -1.13731e-05)
(0.00126861 -0.0212957 -1.10749e-05)
(0.00122389 -0.0206897 -1.06848e-05)
(0.00116864 -0.0200171 -1.02027e-05)
(0.00110311 -0.0192755 -9.63078e-06)
(0.00102779 -0.0184624 -8.97342e-06)
(0.000943455 -0.0175742 -8.23736e-06)
(0.000851206 -0.0166061 -7.4322e-06)
(0.000752466 -0.0155519 -6.57036e-06)
(0.000649035 -0.0144034 -5.66754e-06)
(0.000543107 -0.0131508 -4.74288e-06)
(0.00043727 -0.0117837 -3.81895e-06)
(0.000334482 -0.0102933 -2.92159e-06)
(0.0002382 -0.00867624 -2.08097e-06)
(0.000152076 -0.00693678 -1.32895e-06)
(8.06443e-05 -0.00508527 -7.05092e-07)
(2.79001e-05 -0.00312433 -2.44478e-07)
(5.62378e-07 -0.00103761 -9.18199e-09)
(0.00141295 -0.0231228 -1.23343e-05)
(0.00140788 -0.0227587 -1.22902e-05)
(0.00139273 -0.0223351 -1.21582e-05)
(0.00136702 -0.0218503 -1.19339e-05)
(0.00133041 -0.0213027 -1.16145e-05)
(0.00128273 -0.0206907 -1.11985e-05)
(0.00122403 -0.0200123 -1.06862e-05)
(0.00115458 -0.0192654 -1.00801e-05)
(0.00107492 -0.0184474 -9.38491e-06)
(0.000985889 -0.0175548 -8.60786e-06)
(0.000888665 -0.0165831 -7.75928e-06)
(0.000784758 -0.0155261 -6.85234e-06)
(0.000676079 -0.0143756 -5.9037e-06)
(0.000564942 -0.013122 -4.93356e-06)
(0.000454085 -0.0117549 -3.96582e-06)
(0.000346625 -0.0102657 -3.02767e-06)
(0.000246213 -0.00865095 -2.15098e-06)
(0.000156678 -0.00691502 -1.36918e-06)
(8.27389e-05 -0.0050683 -7.2341e-07)
(2.84448e-05 -0.00311342 -2.49259e-07)
(5.24279e-07 -0.00103386 -8.91462e-09)
(0.00148554 -0.0231562 -1.2968e-05)
(0.00147954 -0.0227855 -1.29158e-05)
(0.00146291 -0.0223553 -1.27708e-05)
(0.00143515 -0.0218639 -1.25287e-05)
(0.00139593 -0.0213097 -1.21865e-05)
(0.00134511 -0.0206914 -1.1743e-05)
(0.00128274 -0.020007 -1.11987e-05)
(0.00120913 -0.0192544 -1.05564e-05)
(0.00112488 -0.0184313 -9.82109e-06)
(0.00103089 -0.0175342 -9.00079e-06)
(0.000928422 -0.0165588 -8.10642e-06)
(0.000819078 -0.0154988 -7.15201e-06)
(0.000704876 -0.0143463 -6.15517e-06)
(0.000588267 -0.0130917 -5.13727e-06)
(0.000472131 -0.0117248 -4.12344e-06)
(0.000359758 -0.0102368 -3.1424e-06)
(0.000254983 -0.00862458 -2.22761e-06)
(0.00016182 -0.00689243 -1.41412e-06)
(8.51672e-05 -0.00505076 -7.44649e-07)
(2.91391e-05 -0.0031022 -2.55346e-07)
(5.0063e-07 -0.00103004 -8.80339e-09)
(0.00156252 -0.023191 -1.364e-05)
(0.00155548 -0.0228134 -1.35788e-05)
(0.00153723 -0.0223761 -1.34196e-05)
(0.00150727 -0.0218777 -1.31583e-05)
(0.00146527 -0.0213167 -1.27918e-05)
(0.00141109 -0.0206917 -1.23191e-05)
(0.00134482 -0.020001 -1.17408e-05)
(0.00126681 -0.0192426 -1.106e-05)
(0.00117772 -0.0184141 -1.02824e-05)
(0.0010785 -0.0175124 -9.4165e-06)
(0.000970515 -0.0165331 -8.47396e-06)
(0.000855451 -0.0154701 -7.46963e-06)
(0.000735453 -0.0143155 -6.42219e-06)
(0.000613098 -0.0130599 -5.35412e-06)
(0.000491424 -0.0116932 -4.29194e-06)
(0.000373886 -0.0102066 -3.26581e-06)
(0.000264514 -0.00859707 -2.31088e-06)
(0.000167498 -0.00686893 -1.46374e-06)
(8.79228e-05 -0.00503259 -7.68744e-07)
(2.99751e-05 -0.00309062 -2.62676e-07)
(4.89978e-07 -0.00102612 -8.82917e-09)
(0.00164402 -0.0232272 -1.43514e-05)
(0.00163583 -0.0228423 -1.42802e-05)
(0.00161582 -0.0223976 -1.41057e-05)
(0.00158349 -0.0218918 -1.38237e-05)
(0.00153851 -0.0213236 -1.34312e-05)
(0.00148076 -0.0206917 -1.29273e-05)
(0.00141036 -0.0199943 -1.2313e-05)
(0.0013277 -0.0192298 -1.15916e-05)
(0.00123349 -0.0183958 -1.07694e-05)
(0.00112877 -0.0174893 -9.85541e-06)
(0.00101498 -0.0165059 -8.86218e-06)
(0.000893912 -0.0154398 -7.80546e-06)
(0.00076783 -0.0142831 -6.70492e-06)
(0.000639454 -0.0130266 -5.58429e-06)
(0.000511972 -0.0116601 -4.47141e-06)
(0.000389016 -0.0101751 -3.39797e-06)
(0.000274801 -0.00856836 -2.40076e-06)
(0.000173706 -0.00684447 -1.518e-06)
(9.09973e-05 -0.00501373 -7.9563e-07)
(3.09475e-05 -0.00307864 -2.71195e-07)
(4.90396e-07 -0.00102208 -8.97744e-09)
(0.00173016 -0.0232649 -1.51034e-05)
(0.0017207 -0.0228722 -1.50211e-05)
(0.00169879 -0.0224198 -1.483e-05)
(0.00166392 -0.0219063 -1.45258e-05)
(0.00161576 -0.0213305 -1.41056e-05)
(0.00155421 -0.0206913 -1.35685e-05)
(0.00147943 -0.019987 -1.2916e-05)
(0.00139185 -0.0192161 -1.21517e-05)
(0.00129225 -0.0183763 -1.12824e-05)
(0.00118174 -0.0174647 -1.03179e-05)
(0.00106185 -0.0164772 -9.27144e-06)
(0.000934484 -0.0154078 -8.15973e-06)
(0.000802031 -0.014249 -7.00358e-06)
(0.000667347 -0.0129915 -5.82789e-06)
(0.000533786 -0.0116253 -4.66193e-06)
(0.000405148 -0.010142 -3.53888e-06)
(0.000285846 -0.0085384 -2.49726e-06)
(0.000180439 -0.006819 -1.57684e-06)
(9.43849e-05 -0.00499414 -8.25249e-07)
(3.20497e-05 -0.00306624 -2.80856e-07)
(5.01016e-07 -0.0010179 -9.2363e-09)
(0.00182111 -0.0233042 -1.58973e-05)
(0.00181025 -0.0229033 -1.58028e-05)
(0.00178627 -0.0224426 -1.55937e-05)
(0.00174866 -0.021921 -1.52656e-05)
(0.0016971 -0.0213373 -1.48157e-05)
(0.00163152 -0.0206904 -1.42435e-05)
(0.0015521 -0.0199789 -1.35504e-05)
(0.00145933 -0.0192013 -1.27408e-05)
(0.00135405 -0.0183555 -1.1822e-05)
(0.00123745 -0.0174387 -1.08043e-05)
(0.00111116 -0.0164468 -9.70199e-06)
(0.000977197 -0.0153741 -8.53271e-06)
(0.000838072 -0.0142132 -7.31831e-06)
(0.000696794 -0.0129548 -6.08505e-06)
(0.000556871 -0.011589 -4.86355e-06)
(0.000422287 -0.0101075 -3.68859e-06)
(0.000297645 -0.00850711 -2.60033e-06)
(0.000187692 -0.00679245 -1.64022e-06)
(9.80776e-05 -0.00497377 -8.57538e-07)
(3.32777e-05 -0.00305335 -2.91615e-07)
(5.20328e-07 -0.00101357 -9.59389e-09)
(0.00191701 -0.023345 -1.67345e-05)
(0.00190461 -0.0229355 -1.66265e-05)
(0.00187839 -0.0224662 -1.63979e-05)
(0.00183784 -0.0219361 -1.60441e-05)
(0.00178265 -0.021344 -1.55626e-05)
(0.00171278 -0.0206891 -1.49529e-05)
(0.00162845 -0.0199701 -1.4217e-05)
(0.0015302 -0.0191854 -1.33596e-05)
(0.00141894 -0.0183334 -1.23885e-05)
(0.00129595 -0.0174111 -1.1315e-05)
(0.00116295 -0.0164148 -1.01542e-05)
(0.00102207 -0.0153387 -8.92457e-06)
(0.000875976 -0.0141755 -7.6493e-06)
(0.000727803 -0.0129162 -6.35585e-06)
(0.000581236 -0.0115509 -5.07635e-06)
(0.000440431 -0.0100713 -3.84708e-06)
(0.000310195 -0.00847443 -2.70998e-06)
(0.000195457 -0.00676476 -1.70808e-06)
(0.00010207 -0.00495255 -8.92447e-07)
(3.46258e-05 -0.00303995 -3.03429e-07)
(5.47921e-07 -0.00100907 -1.00436e-08)
(0.00201803 -0.0233875 -1.76164e-05)
(0.00200393 -0.0229689 -1.74935e-05)
(0.00197528 -0.0224906 -1.72437e-05)
(0.00193157 -0.0219514 -1.68624e-05)
(0.00187251 -0.0213506 -1.63471e-05)
(0.00179809 -0.0206873 -1.56977e-05)
(0.00170856 -0.0199604 -1.49164e-05)
(0.00160453 -0.0191684 -1.40085e-05)
(0.00148698 -0.0183098 -1.29826e-05)
(0.00135727 -0.0173819 -1.18505e-05)
(0.00121724 -0.0163809 -1.06282e-05)
(0.00106914 -0.0153014 -9.33557e-06)
(0.000915755 -0.0141359 -7.99666e-06)
(0.000760387 -0.0128757 -6.64041e-06)
(0.000606882 -0.011511 -5.30034e-06)
(0.000459584 -0.0100335 -4.01438e-06)
(0.000323491 -0.00844029 -2.82614e-06)
(0.00020373 -0.00673587 -1.78038e-06)
(0.000106356 -0.00493044 -9.29914e-07)
(3.6091e-05 -0.003026 -3.16267e-07)
(5.82559e-07 -0.00100438 -1.05754e-08)
(0.00212435 -0.0234316 -1.85445e-05)
(0.00210836 -0.0230035 -1.84052e-05)
(0.00207708 -0.0225156 -1.81324e-05)
(0.00202998 -0.021967 -1.77215e-05)
(0.0019668 -0.021357 -1.71702e-05)
(0.00188754 -0.0206849 -1.64786e-05)
(0.00179252 -0.0199497 -1.56494e-05)
(0.00168239 -0.0191502 -1.46883e-05)
(0.00155822 -0.0182848 -1.36046e-05)
(0.00142147 -0.0173511 -1.2411e-05)
(0.00127408 -0.0163453 -1.11245e-05)
(0.00111842 -0.0152621 -9.76587e-06)
(0.000957428 -0.0140944 -8.36057e-06)
(0.000794551 -0.0128333 -6.93876e-06)
(0.000633816 -0.0114692 -5.53557e-06)
(0.000479739 -0.00999397 -4.19043e-06)
(0.000337532 -0.00840463 -2.9488e-06)
(0.000212504 -0.00670573 -1.85705e-06)
(0.000110929 -0.00490739 -9.69899e-07)
(3.76686e-05 -0.00301145 -3.30091e-07)
(6.24177e-07 -0.00099948 -1.11867e-08)
(0.00223612 -0.0234775 -1.95202e-05)
(0.00221807 -0.0230393 -1.9363e-05)
(0.00218394 -0.0225413 -1.90652e-05)
(0.0021332 -0.0219829 -1.86226e-05)
(0.00206561 -0.0213633 -1.80329e-05)
(0.00198123 -0.020682 -1.72965e-05)
(0.00188039 -0.0199381 -1.64165e-05)
(0.00176384 -0.0191307 -1.53994e-05)
(0.00163271 -0.0182583 -1.42549e-05)
(0.00148858 -0.0173184 -1.29969e-05)
(0.00133348 -0.0163077 -1.16432e-05)
(0.00116994 -0.0152208 -1.02157e-05)
(0.001001 -0.0140507 -8.74108e-06)
(0.000830306 -0.0127888 -7.25101e-06)
(0.000662034 -0.0114255 -5.78202e-06)
(0.0005009 -0.00995262 -4.37526e-06)
(0.000352308 -0.00836738 -3.07789e-06)
(0.000221774 -0.00667427 -1.93806e-06)
(0.000115783 -0.00488334 -1.01234e-06)
(3.93566e-05 -0.00299628 -3.4488e-07)
(6.71703e-07 -0.000994363 -1.18684e-08)
(0.00235354 -0.0235251 -2.05452e-05)
(0.00233322 -0.0230764 -2.03682e-05)
(0.002296 -0.0225678 -2.00436e-05)
(0.00224136 -0.0219989 -1.95669e-05)
(0.00216908 -0.0213692 -1.89361e-05)
(0.00207924 -0.0206783 -1.81522e-05)
(0.00197226 -0.0199255 -1.72186e-05)
(0.00184894 -0.0191098 -1.61423e-05)
(0.00171051 -0.01823 -1.49342e-05)
(0.00155863 -0.0172839 -1.36086e-05)
(0.00139548 -0.016268 -1.21846e-05)
(0.0012237 -0.0151774 -1.06851e-05)
(0.0010465 -0.014005 -9.13834e-06)
(0.000867651 -0.0127422 -7.57714e-06)
(0.000691541 -0.0113797 -6.03973e-06)
(0.000523057 -0.00990939 -4.5688e-06)
(0.000367818 -0.00832847 -3.21339e-06)
(0.000231531 -0.00664143 -2.02332e-06)
(0.000120915 -0.00485825 -1.05721e-06)
(4.11505e-05 -0.00298044 -3.60598e-07)
(7.25334e-07 -0.000989012 -1.26208e-08)
(0.00247679 -0.0235746 -2.16211e-05)
(0.00245399 -0.0231146 -2.14225e-05)
(0.00241342 -0.022595 -2.10686e-05)
(0.0023546 -0.0220152 -2.05554e-05)
(0.0022773 -0.0213749 -1.98809e-05)
(0.00218169 -0.020674 -1.90466e-05)
(0.00206821 -0.0199117 -1.80563e-05)
(0.00193776 -0.0190875 -1.69178e-05)
(0.00179166 -0.0182001 -1.56427e-05)
(0.00163167 -0.0172474 -1.42463e-05)
(0.00146011 -0.0162263 -1.27488e-05)
(0.00127973 -0.0151317 -1.11744e-05)
(0.00109391 -0.0139569 -9.55237e-06)
(0.000906595 -0.0126934 -7.91723e-06)
(0.000722331 -0.0113318 -6.30863e-06)
(0.00054621 -0.00986421 -4.77104e-06)
(0.000384051 -0.00828783 -3.3552e-06)
(0.000241771 -0.00660715 -2.11281e-06)
(0.000126318 -0.00483206 -1.10444e-06)
(4.3049e-05 -0.0029639 -3.77231e-07)
(7.84085e-07 -0.000983411 -1.34353e-08)
(0.00260607 -0.0236258 -2.27497e-05)
(0.00258054 -0.0231541 -2.25273e-05)
(0.00253636 -0.0226228 -2.21418e-05)
(0.00247303 -0.0220316 -2.15894e-05)
(0.00239041 -0.0213803 -2.08684e-05)
(0.00228865 -0.0206688 -1.99804e-05)
(0.00216832 -0.0198968 -1.89303e-05)
(0.00203037 -0.0190636 -1.77263e-05)
(0.00187621 -0.0181683 -1.63809e-05)
(0.00170774 -0.0172089 -1.49104e-05)
(0.00152738 -0.0161824 -1.33362e-05)
(0.00133804 -0.0150838 -1.16836e-05)
(0.00114326 -0.0139065 -9.98328e-06)
(0.000947131 -0.0126423 -8.27123e-06)
(0.000754404 -0.0112817 -6.58875e-06)
(0.000570348 -0.00981699 -4.98187e-06)
(0.000401003 -0.00824539 -3.5033e-06)
(0.000252485 -0.00657136 -2.20643e-06)
(0.000131987 -0.00480472 -1.154e-06)
(4.5048e-05 -0.00294662 -3.94745e-07)
(8.48372e-07 -0.000977547 -1.43146e-08)
(0.00274158 -0.0236789 -2.39326e-05)
(0.00271307 -0.0231949 -2.36842e-05)
(0.00266497 -0.0226513 -2.32646e-05)
(0.00259683 -0.0220481 -2.26701e-05)
(0.0025085 -0.0213852 -2.18994e-05)
(0.00240025 -0.0206628 -2.09547e-05)
(0.00227267 -0.0198806 -1.98413e-05)
(0.00212682 -0.0190381 -1.85684e-05)
(0.0019642 -0.0181346 -1.71492e-05)
(0.00178685 -0.0171682 -1.56012e-05)
(0.00159731 -0.0161361 -1.39468e-05)
(0.00139865 -0.0150335 -1.22127e-05)
(0.00119453 -0.0138537 -1.0431e-05)
(0.000989263 -0.0125888 -8.63917e-06)
(0.000787749 -0.0112293 -6.87997e-06)
(0.000595468 -0.00976767 -5.20129e-06)
(0.000418664 -0.00820108 -3.65758e-06)
(0.000263668 -0.00653401 -2.30415e-06)
(0.000137916 -0.00477618 -1.20584e-06)
(4.71466e-05 -0.00292857 -4.13132e-07)
(9.17226e-07 -0.000971405 -1.52502e-08)
(0.00288353 -0.0237339 -2.51718e-05)
(0.00285174 -0.0232368 -2.48947e-05)
(0.00279941 -0.0226804 -2.44383e-05)
(0.0027261 -0.0220646 -2.37986e-05)
(0.00263172 -0.0213897 -2.2975e-05)
(0.00251656 -0.0206558 -2.19702e-05)
(0.00238134 -0.019863 -2.079e-05)
(0.00222716 -0.0190109 -1.94445e-05)
(0.00205569 -0.0180989 -1.7948e-05)
(0.00186904 -0.0171253 -1.63189e-05)
(0.00166993 -0.0160874 -1.45809e-05)
(0.00146154 -0.0149806 -1.2762e-05)
(0.00124774 -0.0137984 -1.08957e-05)
(0.00103298 -0.0125328 -9.02094e-06)
(0.000822363 -0.0111746 -7.18228e-06)
(0.000621555 -0.00971617 -5.42915e-06)
(0.000437026 -0.00815484 -3.818e-06)
(0.000275309 -0.00649504 -2.40588e-06)
(0.000144102 -0.00474639 -1.25992e-06)
(4.93407e-05 -0.00290971 -4.32355e-07)
(9.91247e-07 -0.000964974 -1.62464e-08)
(0.00303212 -0.0237908 -2.64689e-05)
(0.00299676 -0.02328 -2.61607e-05)
(0.00293985 -0.0227101 -2.56643e-05)
(0.002861 -0.0220812 -2.49763e-05)
(0.00276015 -0.0213936 -2.40963e-05)
(0.0026377 -0.0206478 -2.30277e-05)
(0.00249438 -0.0198439 -2.1777e-05)
(0.00233147 -0.0189819 -2.03552e-05)
(0.0021507 -0.0180611 -1.87775e-05)
(0.00195434 -0.0170801 -1.70636e-05)
(0.00174523 -0.0160362 -1.52384e-05)
(0.00152675 -0.0149252 -1.33313e-05)
(0.00130288 -0.0137405 -1.13772e-05)
(0.00107828 -0.0124742 -9.41653e-06)
(0.000858229 -0.0111174 -7.49552e-06)
(0.000648603 -0.0096624 -5.6654e-06)
(0.000456075 -0.0081066 -3.98441e-06)
(0.000287403 -0.00645439 -2.51156e-06)
(0.000150536 -0.00471531 -1.31617e-06)
(5.16298e-05 -0.00289002 -4.5241e-07)
(1.06943e-06 -0.000958238 -1.72945e-08)
(0.00318758 -0.0238495 -2.78261e-05)
(0.00314831 -0.0233244 -2.74837e-05)
(0.00308646 -0.0227403 -2.69442e-05)
(0.00300167 -0.0220976 -2.62043e-05)
(0.00289394 -0.0213969 -2.52643e-05)
(0.00276373 -0.0206387 -2.4128e-05)
(0.0026119 -0.0198233 -2.28029e-05)
(0.00243978 -0.0189509 -2.13008e-05)
(0.00224927 -0.018021 -1.96381e-05)
(0.00204276 -0.0170323 -1.78356e-05)
(0.00182325 -0.0159824 -1.59196e-05)
(0.00159424 -0.014867 -1.39207e-05)
(0.00135994 -0.0136798 -1.18754e-05)
(0.00112514 -0.012413 -9.82578e-06)
(0.000895341 -0.0110576 -7.81964e-06)
(0.000676593 -0.0096063 -5.90988e-06)
(0.000475803 -0.00805628 -4.15676e-06)
(0.000299937 -0.00641199 -2.62108e-06)
(0.000157216 -0.00468289 -1.37457e-06)
(5.40095e-05 -0.00286945 -4.73259e-07)
(1.15255e-06 -0.000951187 -1.84005e-08)
(0.00335012 -0.0239101 -2.9245e-05)
(0.00330659 -0.0233699 -2.88655e-05)
(0.0032394 -0.022771 -2.82793e-05)
(0.00314825 -0.022114 -2.7484e-05)
(0.00303319 -0.0213994 -2.64799e-05)
(0.00289477 -0.0206283 -2.5272e-05)
(0.00273393 -0.019801 -2.38684e-05)
(0.00255215 -0.0189178 -2.22819e-05)
(0.00235143 -0.0179785 -2.05301e-05)
(0.00213432 -0.016982 -1.86351e-05)
(0.00190396 -0.0159259 -1.66243e-05)
(0.00166404 -0.014806 -1.45301e-05)
(0.0014189 -0.0136163 -1.23903e-05)
(0.00117356 -0.012349 -1.02486e-05)
(0.000933673 -0.0109953 -8.15442e-06)
(0.000705514 -0.00954778 -6.16249e-06)
(0.000496193 -0.00800382 -4.33488e-06)
(0.000312905 -0.0063678 -2.7344e-06)
(0.000164132 -0.00464908 -1.43503e-06)