/*--------------------------------*- C++ -*----------------------------------*\
| =========                 |                                                 |
| \\      /  F ield         | OpenFOAM: The Open Source CFD Toolbox           |
|  \\    /   O peration     | Version:  v2012                                 |
|   \\  /    A nd           | Website:  www.openfoam.com                      |
|    \\/     M anipulation  |                                                 |
\*---------------------------------------------------------------------------*/
FoamFile
{
    version     2.0;
    format      ascii;
    class       volVectorField;
    location    "0.5";
    object      U;
}
// * * * * * * * * * * * * * * * * * * * * * * * * * * * * * * * * * * * * * //

dimensions      [0 1 -1 0 0 0 0];


internalField   nonuniform List<vector> 
3320
(
(-0.0172531 -0.000402156 0.000150612)
(-0.0133073 -0.00026293 0.000116165)
(-0.0102591 -0.000168996 8.95595e-05)
(-0.00810212 -0.000120127 7.07289e-05)
(-0.00644294 -8.44941e-05 5.62454e-05)
(-0.00519454 -6.28382e-05 4.5347e-05)
(-0.00422139 -4.67463e-05 3.68518e-05)
(-0.00346197 -3.57481e-05 3.02222e-05)
(-0.00285903 -2.75258e-05 2.49587e-05)
(-0.00237691 -2.15321e-05 2.07499e-05)
(-0.00198724 -1.69981e-05 1.73482e-05)
(-0.00166986 -1.35721e-05 1.45775e-05)
(-0.00140922 -1.09367e-05 1.23022e-05)
(-0.00119368 -8.89467e-06 1.04206e-05)
(-0.00101421 -7.29379e-06 8.85389e-06)
(-0.000863881 -6.02763e-06 7.54153e-06)
(-0.000737234 -5.01672e-06 6.43593e-06)
(-0.000629989 -4.20242e-06 5.49972e-06)
(-0.000538743 -3.54087e-06 4.70318e-06)
(-0.00046078 -2.9988e-06 4.02258e-06)
(-0.000393914 -2.55082e-06 3.43886e-06)
(-0.000336377 -2.178e-06 2.93658e-06)
(-0.000286734 -1.86541e-06 2.50321e-06)
(-0.000243798 -1.60185e-06 2.1284e-06)
(-0.000206593 -1.37829e-06 1.80361e-06)
(-0.000174305 -1.18797e-06 1.52174e-06)
(-0.000146251 -1.02528e-06 1.27684e-06)
(-0.00012186 -8.85966e-07 1.06391e-06)
(-0.000100636 -7.66453e-07 8.78632e-07)
(-8.21638e-05 -6.63714e-07 7.1737e-07)
(-6.60892e-05 -5.752e-07 5.77043e-07)
(-5.21103e-05 -4.98622e-07 4.55007e-07)
(-3.99752e-05 -4.3172e-07 3.49066e-07)
(-2.94783e-05 -3.723e-07 2.57428e-07)
(-2.04654e-05 -3.17907e-07 1.78741e-07)
(-1.2833e-05 -2.66165e-07 1.12103e-07)
(-6.53647e-06 -2.13724e-07 5.71243e-08)
(-1.58816e-06 -1.58327e-07 1.39097e-08)
(1.92263e-06 -9.58187e-08 -1.67607e-08)
(3.88461e-06 -2.76249e-08 -3.3914e-08)
(4.14753e-06 4.99051e-08 -3.62308e-08)
(2.83316e-06 1.06235e-07 -2.47894e-08)
(7.00472e-07 1.37495e-07 -6.60726e-09)
(-0.0445525 -0.00753033 0.000388961)
(-0.0350892 -0.00515841 0.000306337)
(-0.0277155 -0.00362011 0.000241965)
(-0.0222058 -0.00258477 0.000193862)
(-0.0179073 -0.00187936 0.000156336)
(-0.0145826 -0.00138846 0.000127309)
(-0.0119569 -0.00104037 0.000104386)
(-0.00987594 -0.00078969 8.62188e-05)
(-0.00820669 -0.000606232 7.16458e-05)
(-0.00685868 -0.000470306 5.98774e-05)
(-0.00576073 -0.000368349 5.0292e-05)
(-0.00486024 -0.000291092 4.24306e-05)
(-0.00411648 -0.000231972 3.59375e-05)
(-0.00349827 -0.000186335 3.05404e-05)
(-0.00298129 -0.000150805 2.6027e-05)
(-0.00254653 -0.000122923 2.22316e-05)
(-0.002179 -0.00010087 1.9023e-05)
(-0.00186679 -8.32942e-05 1.62974e-05)
(-0.00160041 -6.91819e-05 1.39719e-05)
(-0.00137221 -5.77666e-05 1.19797e-05)
(-0.00117602 -4.84663e-05 1.0267e-05)
(-0.00100681 -4.08375e-05 8.7898e-06)
(-0.000860505 -3.45397e-05 7.51254e-06)
(-0.000733695 -2.93096e-05 6.4055e-06)
(-0.000623581 -2.49427e-05 5.4442e-06)
(-0.000527821 -2.12797e-05 4.60821e-06)
(-0.000444444 -1.81944e-05 3.88033e-06)
(-0.000371798 -1.55874e-05 3.24613e-06)
(-0.000308454 -1.33772e-05 2.69314e-06)
(-0.000253207 -1.14976e-05 2.21083e-06)
(-0.000205031 -9.89274e-06 1.79025e-06)
(-0.000163051 -8.51448e-06 1.42376e-06)
(-0.00012654 -7.31944e-06 1.105e-06)
(-9.48977e-05 -6.26702e-06 8.28755e-07)
(-6.76735e-05 -5.31763e-06 5.91072e-07)
(-4.45591e-05 -4.43209e-06 3.89263e-07)
(-2.54064e-05 -3.56931e-06 2.22032e-07)
(-1.02247e-05 -2.69238e-06 8.94568e-08)
(7.83404e-07 -1.76757e-06 -6.69597e-09)
(7.3603e-06 -7.96443e-07 -6.4175e-08)
(9.19491e-06 1.79578e-07 -8.026e-08)
(6.66583e-06 8.94367e-07 -5.82978e-08)
(1.61354e-06 9.11421e-07 -1.54227e-08)
(-0.0616855 -0.0169919 0.000538521)
(-0.0500066 -0.0122439 0.000436561)
(-0.0405362 -0.00895266 0.000353886)
(-0.0331168 -0.00660512 0.000289114)
(-0.0271552 -0.00493077 0.000237069)
(-0.0224065 -0.00371745 0.000195612)
(-0.0185767 -0.00283113 0.000162177)
(-0.0154836 -0.00217627 0.000135174)
(-0.0129657 -0.00168785 0.000113192)
(-0.0109065 -0.00132014 9.52148e-05)
(-0.00921162 -0.0010409 8.04185e-05)
(-0.00780912 -0.000827073 6.81746e-05)
(-0.00664194 -0.000662061 5.79851e-05)
(-0.00566546 -0.000533764 4.94602e-05)
(-0.00484427 -0.000433284 4.22911e-05)
(-0.00415031 -0.000354031 3.62328e-05)
(-0.00356115 -0.000291082 3.10894e-05)
(-0.0030588 -0.000240737 2.67038e-05)
(-0.00262874 -0.000200193 2.29494e-05)
(-0.00225922 -0.000167322 1.97235e-05)
(-0.00194067 -0.000140491 1.69426e-05)
(-0.00166526 -0.000118452 1.45383e-05)
(-0.00142657 -0.000100239 1.24545e-05)
(-0.00121924 -8.51015e-05 1.06445e-05)
(-0.00103883 -7.24558e-05 9.06957e-06)
(-0.000881621 -6.18437e-05 7.69712e-06)
(-0.00074447 -5.29024e-05 6.49978e-06)
(-0.000624739 -4.53442e-05 5.45453e-06)
(-0.000520137 -3.89336e-05 4.54136e-06)
(-0.000428734 -3.34784e-05 3.7434e-06)
(-0.000348881 -2.88174e-05 3.04628e-06)
(-0.000279174 -2.48109e-05 2.43772e-06)
(-0.000218439 -2.13343e-05 1.90749e-06)
(-0.000165711 -1.82713e-05 1.44715e-06)
(-0.000120255 -1.55102e-05 1.0503e-06)
(-8.1566e-05 -1.29412e-05 7.12511e-07)
(-4.93827e-05 -1.0453e-05 4.31506e-07)
(-2.36886e-05 -7.94484e-06 2.07137e-07)
(-4.74984e-06 -5.3337e-06 4.17218e-08)
(7.09023e-06 -2.62562e-06 -6.17392e-08)
(1.14469e-05 4.22333e-08 -9.98831e-08)
(8.94737e-06 2.02972e-06 -7.8242e-08)
(2.18522e-06 2.20125e-06 -2.09982e-08)
(-0.0715885 -0.0262612 0.000624952)
(-0.0594162 -0.0196447 0.000518692)
(-0.0492293 -0.0148153 0.000429767)
(-0.0409489 -0.0112237 0.000357481)
(-0.0341182 -0.00856656 0.000297851)
(-0.0285337 -0.00658045 0.000249098)
(-0.0239353 -0.00509133 0.000208955)
(-0.0201505 -0.00396622 0.000175914)
(-0.0170203 -0.00311126 0.000148588)
(-0.0144242 -0.00245716 0.000125924)
(-0.0122619 -0.0019536 0.000107047)
(-0.0104538 -0.00156345 9.12618e-05)
(-0.00893539 -0.0012593 7.80067e-05)
(-0.00765511 -0.00102073 6.68297e-05)
(-0.00657106 -0.00083245 5.73658e-05)
(-0.00564948 -0.000682946 4.93205e-05)
(-0.00486297 -0.000563502 4.24543e-05)
(-0.00418925 -0.00046748 3.65727e-05)
(-0.00361013 -0.000389807 3.15171e-05)
(-0.00311072 -0.000326583 2.71572e-05)
(-0.00267879 -0.000274803 2.33865e-05)
(-0.00230424 -0.000232143 2.01167e-05)
(-0.00197875 -0.000196798 1.72752e-05)
(-0.0016953 -0.000167354 1.48007e-05)
(-0.00144807 -0.000142708 1.26424e-05)
(-0.00123214 -0.000121987 1.07573e-05)
(-0.00104335 -0.000104498 9.10921e-06)
(-0.000878192 -8.96912e-05 7.66737e-06)
(-0.000733605 -7.71118e-05 6.40512e-06)
(-0.000607005 -6.63897e-05 5.29991e-06)
(-0.000496187 -5.72132e-05 4.33245e-06)
(-0.000399261 -4.93119e-05 3.48627e-06)
(-0.000314649 -4.24445e-05 2.74758e-06)
(-0.000241048 -3.63865e-05 2.10503e-06)
(-0.000177461 -3.09232e-05 1.54989e-06)
(-0.000123193 -2.58439e-05 1.07608e-06)
(-7.78672e-05 -2.0939e-05 6.80328e-07)
(-4.14221e-05 -1.60191e-05 3.62085e-07)
(-1.4151e-05 -1.09371e-05 1.23904e-07)
(3.56144e-06 -5.70656e-06 -3.08524e-08)
(1.13034e-05 -6.05825e-07 -9.85858e-08)
(9.92297e-06 3.24776e-06 -8.67628e-08)
(2.51391e-06 3.79298e-06 -2.41837e-08)
(-0.0746118 -0.0341097 0.000651328)
(-0.0635685 -0.026315 0.000554928)
(-0.0539286 -0.0203799 0.000470781)
(-0.045758 -0.0158103 0.000399456)
(-0.0387955 -0.0123173 0.000338678)
(-0.0329306 -0.00963237 0.000287479)
(-0.0279819 -0.00756861 0.000244278)
(-0.0238197 -0.00597545 0.000207943)
(-0.0203139 -0.00474196 0.000177339)
(-0.0173597 -0.00378281 0.000151549)
(-0.0148651 -0.00303394 0.000129772)
(-0.0127541 -0.00244656 0.000111343)
(-0.0109629 -0.00198372 9.57064e-05)
(-0.00943883 -0.00161726 8.24012e-05)
(-0.00813808 -0.00132565 7.10456e-05)
(-0.00702454 -0.00109241 6.13245e-05)
(-0.00606837 -0.00090488 5.29773e-05)
(-0.00524488 -0.000753271 4.57883e-05)
(-0.00453362 -0.000630022 3.95791e-05)
(-0.00391763 -0.000529263 3.42016e-05)
(-0.00338284 -0.000446427 2.95329e-05)
(-0.00291748 -0.000377949 2.54704e-05)
(-0.0025118 -0.000321046 2.19289e-05)
(-0.0021575 -0.000273519 1.88358e-05)
(-0.00184764 -0.000233643 1.61307e-05)
(-0.00157631 -0.000200046 1.37621e-05)
(-0.00133852 -0.000171636 1.16862e-05)
(-0.00113 -0.000147536 9.86583e-06)
(-0.000947047 -0.000127026 8.26864e-06)
(-0.000786504 -0.000109514 6.86711e-06)
(-0.000645675 -9.44987e-05 5.63766e-06)
(-0.000522242 -8.15476e-05 4.56007e-06)
(-0.000414267 -7.02729e-05 3.61743e-06)
(-0.000320143 -6.0314e-05 2.7957e-06)
(-0.000238632 -5.13271e-05 2.08407e-06)
(-0.000168861 -4.29763e-05 1.47491e-06)
(-0.000110337 -3.49304e-05 9.6393e-07)
(-6.29424e-05 -2.68917e-05 5.50085e-07)
(-2.69712e-05 -1.86381e-05 2.35931e-07)
(-2.81908e-06 -1.01933e-05 2.49313e-08)
(9.09436e-06 -2.00876e-06 -7.92503e-08)
(9.79554e-06 4.25813e-06 -8.56327e-08)
(2.66497e-06 5.46944e-06 -2.55773e-08)
(-0.0743212 -0.0398002 0.000648772)
(-0.0646501 -0.0315893 0.000564356)
(-0.0559351 -0.0250807 0.000488284)
(-0.0482977 -0.0198992 0.000421617)
(-0.0416083 -0.0158121 0.000363225)
(-0.0358228 -0.012584 0.000312721)
(-0.0308285 -0.0100414 0.000269124)
(-0.0265393 -0.00803607 0.000231682)
(-0.0228597 -0.00645375 0.000199561)
(-0.0197078 -0.00520267 0.000172046)
(-0.0170074 -0.00421141 0.000148472)
(-0.0146928 -0.00342378 0.000128267)
(-0.0127066 -0.00279599 0.000110928)
(-0.0109996 -0.00229388 9.60258e-05)
(-0.00952983 -0.00189073 8.3195e-05)
(-0.0082618 -0.00156571 7.21254e-05)
(-0.00716544 -0.00130253 6.25544e-05)
(-0.00621544 -0.00108843 5.42611e-05)
(-0.00539045 -0.000913417 4.70591e-05)
(-0.00467251 -0.000769638 4.07916e-05)
(-0.00404649 -0.000650922 3.53266e-05)
(-0.00349963 -0.000552408 3.05526e-05)
(-0.0030212 -0.00047027 2.63759e-05)
(-0.002602 -0.000401462 2.27164e-05)
(-0.00223427 -0.000343576 1.95062e-05)
(-0.00191138 -0.000294688 1.66873e-05)
(-0.00162763 -0.000253258 1.42102e-05)
(-0.00137818 -0.000218042 1.20326e-05)
(-0.00115879 -0.000188014 1.01173e-05)
(-0.000965813 -0.000162325 8.43262e-06)
(-0.000796146 -0.000140261 6.95143e-06)
(-0.000647104 -0.000121195 5.65027e-06)
(-0.000516434 -0.00010457 4.5095e-06)
(-0.000402259 -8.9867e-05 3.51273e-06)
(-0.00030313 -7.659e-05 2.64729e-06)
(-0.000218009 -6.42576e-05 1.90413e-06)
(-0.000146291 -5.23982e-05 1.27795e-06)
(-8.77949e-05 -4.059e-05 7.67171e-07)
(-4.27967e-05 -2.85264e-05 3.74196e-07)
(-1.16868e-05 -1.62419e-05 1.02432e-07)
(5.10892e-06 -4.38104e-06 -4.43983e-08)
(8.74095e-06 4.82348e-06 -7.63888e-08)
(2.68266e-06 7.0721e-06 -2.56142e-08)
(-0.0710129 -0.0437449 0.000619881)
(-0.0630966 -0.0355347 0.000550784)
(-0.0556778 -0.0288166 0.000486029)
(-0.0489286 -0.0233191 0.000427117)
(-0.0428309 -0.0188647 0.000373892)
(-0.0374049 -0.015261 0.000326528)
(-0.0326048 -0.0123581 0.000284627)
(-0.0283906 -0.0100222 0.00024784)
(-0.0247048 -0.00814497 0.000215665)
(-0.0214926 -0.00663616 0.000187625)
(-0.0186983 -0.00542293 0.000163232)
(-0.0162706 -0.0044461 0.000142039)
(-0.0141621 -0.00365825 0.000123633)
(-0.0123305 -0.00302141 0.000107643)
(-0.0107384 -0.00250522 9.37448e-05)
(-0.00935313 -0.00208553 8.16522e-05)
(-0.00814641 -0.0017431 7.11179e-05)
(-0.00709376 -0.00146265 6.19285e-05)
(-0.00617417 -0.001232 5.39007e-05)
(-0.00536962 -0.00104149 4.68772e-05)
(-0.00466472 -0.000883441 4.07236e-05)
(-0.00404628 -0.000751727 3.53248e-05)
(-0.00350312 -0.000641493 3.0583e-05)
(-0.00302549 -0.000548838 2.64135e-05)
(-0.00260512 -0.000470658 2.27437e-05)
(-0.00223487 -0.000404454 1.95115e-05)
(-0.00190857 -0.000348211 1.66629e-05)
(-0.00162093 -0.000300298 1.41519e-05)
(-0.00136728 -0.000259356 1.19375e-05)
(-0.00114361 -0.000224262 9.98493e-06)
(-0.000946475 -0.00019406 8.26394e-06)
(-0.000772885 -0.000167915 6.74848e-06)
(-0.000620325 -0.00014508 5.41661e-06)
(-0.00048669 -0.000124856 4.24995e-06)
(-0.000370342 -0.000106582 3.23419e-06)
(-0.0002701 -8.96129e-05 2.35902e-06)
(-0.000185252 -7.33208e-05 1.61821e-06)
(-0.00011555 -5.71467e-05 1.00959e-06)
(-6.12444e-05 -4.06913e-05 5.35351e-07)
(-2.27119e-05 -2.39979e-05 1.98772e-07)
(-3.97758e-07 -7.91233e-06 3.74314e-09)
(6.91134e-06 4.74314e-06 -6.03614e-08)
(2.59993e-06 8.47632e-06 -2.46207e-08)
(-0.066808 -0.0458562 0.000583163)
(-0.060371 -0.038062 0.000526981)
(-0.0541525 -0.0314842 0.000472705)
(-0.0483202 -0.0259546 0.000421799)
(-0.0429098 -0.0213563 0.000374573)
(-0.037972 -0.0175486 0.000331473)
(-0.0335039 -0.0144143 0.000292471)
(-0.0294982 -0.0118422 0.000257505)
(-0.025928 -0.00973776 0.000226341)
(-0.0227627 -0.00801864 0.00019871)
(-0.0199664 -0.00661575 0.000174301)
(-0.0175029 -0.00547106 0.000152796)
(-0.0153364 -0.00453663 0.000133883)
(-0.0134333 -0.00377301 0.00011727)
(-0.0117624 -0.00314795 0.000102683)
(-0.0102955 -0.00263521 8.98779e-05)
(-0.0090073 -0.00221351 7.86329e-05)
(-0.00787554 -0.00186563 6.8753e-05)
(-0.00688047 -0.00157767 6.00664e-05)
(-0.00600486 -0.00133845 5.24226e-05)
(-0.00523371 -0.00113895 4.56907e-05)
(-0.00455399 -0.000971922 3.9757e-05)
(-0.00395446 -0.000831555 3.45232e-05)
(-0.00342522 -0.000713139 2.99031e-05)
(-0.00295777 -0.000612893 2.58223e-05)
(-0.00254468 -0.000527753 2.22162e-05)
(-0.00217949 -0.00045523 1.90282e-05)
(-0.00185664 -0.000393297 1.62097e-05)
(-0.00157113 -0.000340254 1.37172e-05)
(-0.00131869 -0.00029469 1.15135e-05)
(-0.00109562 -0.000255398 9.56607e-06)
(-0.000898685 -0.000221319 7.84683e-06)
(-0.000725164 -0.000191503 6.33198e-06)
(-0.000572761 -0.000165061 5.00148e-06)
(-0.000439681 -0.00014115 3.83966e-06)
(-0.000324618 -0.000118948 2.83509e-06)
(-0.000226763 -9.76616e-05 1.98073e-06)
(-0.000145803 -7.65822e-05 1.27382e-06)
(-8.19598e-05 -5.52098e-05 7.16306e-07)
(-3.55968e-05 -3.35906e-05 3.11352e-07)
(-7.20086e-06 -1.27707e-05 6.321e-08)
(4.43724e-06 3.84346e-06 -3.86923e-08)
(2.4422e-06 9.57899e-06 -2.28485e-08)
(-0.0616589 -0.0467711 0.000538208)
(-0.0566566 -0.0395254 0.00049455)
(-0.0516368 -0.0332573 0.000450738)
(-0.046761 -0.0278684 0.000408181)
(-0.0421022 -0.023286 0.000367518)
(-0.0377348 -0.0194121 0.000329397)
(-0.0336884 -0.01616 0.000294078)
(-0.0299822 -0.0134419 0.000261726)
(-0.0266149 -0.01118 0.000232334)
(-0.023577 -0.00930297 0.000205816)
(-0.0208509 -0.00774896 0.00018202)
(-0.0184148 -0.00646406 0.000160755)
(-0.0162449 -0.0054024 0.000141813)
(-0.0143166 -0.00452517 0.00012498)
(-0.0126059 -0.00379985 0.000110046)
(-0.0110899 -0.00319939 9.68129e-05)
(-0.00974749 -0.00270141 8.50941e-05)
(-0.00855908 -0.0022875 7.47198e-05)
(-0.00750707 -0.00194255 6.55362e-05)
(-0.00657569 -0.00165421 5.74056e-05)
(-0.00575088 -0.00141241 5.02054e-05)
(-0.00502023 -0.00120897 4.38271e-05)
(-0.00437285 -0.00103723 3.81756e-05)
(-0.003799 -0.000891782 3.31662e-05)
(-0.00329021 -0.000768209 2.87246e-05)
(-0.002839 -0.000662923 2.47856e-05)
(-0.0024388 -0.000572981 2.12919e-05)
(-0.00208388 -0.000495969 1.81935e-05)
(-0.00176908 -0.000429851 1.54454e-05)
(-0.00148996 -0.000372927 1.30087e-05)
(-0.00124262 -0.000323734 1.08495e-05)
(-0.00102367 -0.000280983 8.93805e-06)
(-0.000830223 -0.000243512 7.24925e-06)
(-0.000659837 -0.000210236 5.76177e-06)
(-0.000510591 -0.000180117 4.45882e-06)
(-0.000381075 -0.000152153 3.32808e-06)
(-0.000270394 -0.00012537 2.36175e-06)
(-0.000178177 -9.89039e-05 1.55656e-06)
(-0.000104617 -7.21451e-05 9.14213e-07)
(-5.00736e-05 -4.51331e-05 4.37834e-07)
(-1.51033e-05 -1.91037e-05 1.32282e-07)
(1.42968e-06 1.97599e-06 -1.23543e-08)
(2.22899e-06 1.02939e-05 -2.04902e-08)
(-0.0566211 -0.0465404 0.000494226)
(-0.0527323 -0.0399982 0.000460288)
(-0.0487054 -0.0341969 0.000425143)
(-0.0446756 -0.0290965 0.000389972)
(-0.0407234 -0.0246648 0.000355477)
(-0.0369268 -0.0208429 0.000322339)
(-0.0333307 -0.0175732 0.000290951)
(-0.0299688 -0.0147922 0.000261607)
(-0.0268569 -0.0124396 0.000234444)
(-0.0240009 -0.0104573 0.000209514)
(-0.0213976 -0.00879282 0.00018679)
(-0.0190379 -0.00739848 0.000166192)
(-0.0169085 -0.00623242 0.000147605)
(-0.0149939 -0.00525818 0.000130892)
(-0.0132773 -0.00444439 0.000115906)
(-0.0117413 -0.00376437 0.000102498)
(-0.0103692 -0.00319556 9.05207e-05)
(-0.00914494 -0.00271909 7.98338e-05)
(-0.0080535 -0.00231916 7.03061e-05)
(-0.00708099 -0.00198271 6.18165e-05)
(-0.00621476 -0.00169892 5.42547e-05)
(-0.00544337 -0.00145889 4.75208e-05)
(-0.0047566 -0.00125532 4.15256e-05)
(-0.00414518 -0.00108217 3.61882e-05)
(-0.00360089 -0.000934504 3.14366e-05)
(-0.00311638 -0.000808263 2.72071e-05)
(-0.00268514 -0.000700087 2.34425e-05)
(-0.00230144 -0.000607204 2.00929e-05)
(-0.00196005 -0.000527254 1.71126e-05)
(-0.00165644 -0.000458256 1.44622e-05)
(-0.00138661 -0.000398495 1.21066e-05)
(-0.00114708 -0.000346453 1.00155e-05)
(-0.000934828 -0.000300756 8.16255e-06)
(-0.000747325 -0.000260113 6.52564e-06)
(-0.00058255 -0.000223292 5.08714e-06)
(-0.00043901 -0.000189101 3.83397e-06)
(-0.000315741 -0.000156383 2.75774e-06)
(-0.000212319 -0.000124107 1.85473e-06)
(-0.000128918 -9.15475e-05 1.12647e-06)
(-6.59021e-05 -5.87228e-05 5.7612e-07)
(-2.39328e-05 -2.70392e-05 2.09453e-07)
(-2.01796e-06 -9.8114e-07 1.78366e-08)
(1.97411e-06 1.05457e-05 -1.76874e-08)
(-0.0454815 -0.034506 0.000396997)
(-0.0422283 -0.0297615 0.000368604)
(-0.0389426 -0.0255607 0.000339927)
(-0.0357027 -0.0218725 0.00031165)
(-0.0325625 -0.0186623 0.000284242)
(-0.0295651 -0.0158869 0.000258079)
(-0.0267377 -0.0135022 0.000233401)
(-0.0240979 -0.0114634 0.000210359)
(-0.0216537 -0.0097279 0.000189024)
(-0.0194064 -0.00825534 0.000169407)
(-0.0173518 -0.00700912 0.000151473)
(-0.0154823 -0.00595633 0.000135154)
(-0.0137879 -0.00506788 0.000120363)
(-0.0122568 -0.00431842 0.000106998)
(-0.0108768 -0.00368606 9.49517e-05)
(-0.00963558 -0.00315209 8.41163e-05)
(-0.00852082 -0.00270063 7.43852e-05)
(-0.00752091 -0.00231827 6.56565e-05)
(-0.00662488 -0.0019938 5.78347e-05)
(-0.00582256 -0.00171786 5.08309e-05)
(-0.00510468 -0.00148266 4.45641e-05)
(-0.00446262 -0.00128173 3.89592e-05)
(-0.00388862 -0.00110968 3.39485e-05)
(-0.00337567 -0.000962064 2.94706e-05)
(-0.00291744 -0.000835158 2.54704e-05)
(-0.00250831 -0.00072587 2.18989e-05)
(-0.0021431 -0.000631544 1.87107e-05)
(-0.00181728 -0.000549935 1.58664e-05)
(-0.00152683 -0.000479087 1.33308e-05)
(-0.00126821 -0.000417258 1.10731e-05)
(-0.00103836 -0.000362864 9.06649e-06)
(-0.000834675 -0.00031441 7.2883e-06)
(-0.00065507 -0.000270469 5.72033e-06)
(-0.000497993 -0.000229655 4.349e-06)
(-0.000362427 -0.000190624 3.16541e-06)
(-0.000247904 -0.000152176 2.16551e-06)
(-0.000154589 -0.000113454 1.35069e-06)
(-8.28678e-05 -7.44414e-05 7.24336e-07)
(-3.35382e-05 -3.66874e-05 2.93402e-07)
(-5.82881e-06 -5.14097e-06 5.12075e-08)
(1.68532e-06 1.02827e-05 -1.4525e-08)
(-0.0422501 -0.0342731 0.000368786)
(-0.0396478 -0.0299377 0.000346075)
(-0.0369456 -0.0260282 0.000322492)
(-0.0342138 -0.0225362 0.000298649)
(-0.0315066 -0.019446 0.000275021)
(-0.0288693 -0.0167322 0.000252003)
(-0.0263353 -0.0143655 0.000229885)
(-0.0239289 -0.0123134 0.000208881)
(-0.021666 -0.0105432 0.000189129)
(-0.0195554 -0.0090223 0.000170707)
(-0.0176006 -0.00772 0.000153643)
(-0.0158005 -0.00660773 0.000137931)
(-0.0141511 -0.00565944 0.000123532)
(-0.0126458 -0.00485187 0.000110392)
(-0.0112767 -0.00416446 9.84413e-05)
(-0.010035 -0.00357926 8.76022e-05)
(-0.00891138 -0.00308077 7.77942e-05)
(-0.00789665 -0.00265569 6.89363e-05)
(-0.00698167 -0.00229271 6.09491e-05)
(-0.00615771 -0.00198225 5.37565e-05)
(-0.00541663 -0.00171627 4.72872e-05)
(-0.00475065 -0.00148798 4.14736e-05)
(-0.00415264 -0.00129169 3.62533e-05)
(-0.00361605 -0.00112264 3.1569e-05)
(-0.00313486 -0.000976805 2.73684e-05)
(-0.00270367 -0.000850829 2.36043e-05)
(-0.00231746 -0.000741793 2.02328e-05)
(-0.00197176 -0.00064721 1.72149e-05)
(-0.00166261 -0.0005649 1.45161e-05)
(-0.00138646 -0.000492909 1.21054e-05)
(-0.00114027 -0.00042945 9.95619e-06)
(-0.000921385 -0.00037283 8.04536e-06)
(-0.000727701 -0.000321428 6.35449e-06)
(-0.000557625 -0.000273665 4.86968e-06)
(-0.000410102 -0.000228007 3.58172e-06)
(-0.000284634 -0.00018308 2.48626e-06)
(-0.000181385 -0.000137887 1.58472e-06)
(-0.00010078 -9.23552e-05 8.8082e-07)
(-4.37917e-05 -4.81412e-05 3.83012e-07)
(-9.93664e-06 -1.06001e-05 8.71788e-08)
(1.37351e-06 9.46427e-06 -1.11097e-08)
(-0.0390477 -0.0336518 0.000340829)
(-0.0370111 -0.0297344 0.000323056)
(-0.0348262 -0.0261431 0.000303988)
(-0.0325556 -0.0228842 0.000284172)
(-0.0302517 -0.0199556 0.000264064)
(-0.0279597 -0.0173455 0.00024406)
(-0.0257156 -0.0150367 0.000224473)
(-0.023548 -0.0130076 0.000205554)
(-0.0214776 -0.0112346 0.000187482)
(-0.0195189 -0.00969267 0.000170386)
(-0.0176809 -0.0083571 0.000154343)
(-0.0159682 -0.00720399 0.000139393)
(-0.0143814 -0.00621085 0.000125542)
(-0.0129187 -0.00535702 0.000112774)
(-0.0115761 -0.00462377 0.000101055)
(-0.0103482 -0.00399441 9.0336e-05)
(-0.00922858 -0.0034542 8.05628e-05)
(-0.00821034 -0.00299033 7.16743e-05)
(-0.00728632 -0.00259166 6.36083e-05)
(-0.00644936 -0.00224869 5.63022e-05)
(-0.00569255 -0.0019533 4.96957e-05)
(-0.00500906 -0.00169854 4.37293e-05)
(-0.00439254 -0.00147855 3.83474e-05)
(-0.00383698 -0.00128833 3.34976e-05)
(-0.00333679 -0.00112366 2.91312e-05)
(-0.0028869 -0.000980955 2.52038e-05)
(-0.00248249 -0.000857074 2.16735e-05)
(-0.00211926 -0.000749321 1.85026e-05)
(-0.00179335 -0.000655317 1.56576e-05)
(-0.00150129 -0.000572909 1.31079e-05)
(-0.00124005 -0.00050012 1.08273e-05)
(-0.001007 -0.000435067 8.79283e-06)
(-0.000800032 -0.000375939 6.98601e-06)
(-0.000617539 -0.000320969 5.39281e-06)
(-0.000458444 -0.000268434 4.00384e-06)
(-0.000322233 -0.000216778 2.81461e-06)
(-0.000209081 -0.000164857 1.82662e-06)
(-0.000119471 -0.000112516 1.0441e-06)
(-5.45826e-05 -6.14777e-05 4.77319e-07)
(-1.42881e-05 -1.74296e-05 1.25283e-07)
(1.04536e-06 8.04814e-06 -7.50836e-09)
(-0.0360033 -0.0327161 0.000314253)
(-0.0344295 -0.0292204 0.000300519)
(-0.0326827 -0.0259631 0.000285275)
(-0.0308156 -0.0229613 0.00026898)
(-0.0288749 -0.0202232 0.000252044)
(-0.0269032 -0.0177479 0.000234835)
(-0.0249359 -0.0155282 0.000217665)
(-0.023003 -0.0135518 0.000200794)
(-0.0211278 -0.0118032 0.000184427)
(-0.0193285 -0.0102642 0.000168722)
(-0.0176179 -0.00891616 0.000153792)
(-0.0160047 -0.00773976 0.00013971)
(-0.0144937 -0.00671632 0.000126521)
(-0.0130867 -0.00582806 0.00011424)
(-0.0117834 -0.00505846 0.000102863)
(-0.0105812 -0.00439241 9.23697e-05)
(-0.00947658 -0.00381632 8.27272e-05)
(-0.00846481 -0.0033181 7.38953e-05)
(-0.00754068 -0.00288712 6.58284e-05)
(-0.00669861 -0.00251413 5.84778e-05)
(-0.00593299 -0.00219114 5.17944e-05)
(-0.00523804 -0.0019112 4.5728e-05)
(-0.00460822 -0.00166837 4.02301e-05)
(-0.00403819 -0.00145757 3.5254e-05)
(-0.00352286 -0.00127441 3.07555e-05)
(-0.00305754 -0.00111514 2.66935e-05)
(-0.00263772 -0.000976471 2.30286e-05)
(-0.0022593 -0.000855514 1.97252e-05)
(-0.00191859 -0.00074972 1.67509e-05)
(-0.00161222 -0.000656757 1.40764e-05)
(-0.00133726 -0.000574474 1.1676e-05)
(-0.00109111 -0.000500806 9.52715e-06)
(-0.000871688 -0.000433765 7.61164e-06)
(-0.000677399 -0.000371397 5.91547e-06)
(-0.000507161 -0.000311794 4.42923e-06)
(-0.000360454 -0.000253216 3.14838e-06)
(-0.000237479 -0.00019436 2.07464e-06)
(-0.000138793 -0.00013496 1.21289e-06)
(-6.58172e-05 -7.67592e-05 5.75501e-07)
(-1.88407e-05 -2.56916e-05 1.65148e-07)
(7.04581e-07 6.00272e-06 -3.76182e-09)
(-0.0331138 -0.0315689 0.00028903)
(-0.031931 -0.0284765 0.000278708)
(-0.0305602 -0.0255509 0.000266746)
(-0.0290461 -0.0228149 0.000253532)
(-0.0274301 -0.0202837 0.00023943)
(-0.0257509 -0.017964 0.000224775)
(-0.0240425 -0.0158563 0.000209864)
(-0.0223344 -0.0139558 0.000194956)
(-0.0206512 -0.0122537 0.000180265)
(-0.0190128 -0.0107382 0.000165965)
(-0.0174349 -0.00939598 0.000152193)
(-0.0159288 -0.00821228 0.000139047)
(-0.0145027 -0.00717216 0.000126599)
(-0.0131613 -0.00626088 0.00011489)
(-0.0119072 -0.00546432 0.000103943)
(-0.0107405 -0.0047692 9.37597e-05)
(-0.00966013 -0.00416329 8.43289e-05)
(-0.00866345 -0.00363553 7.56289e-05)
(-0.00774709 -0.00317597 6.76299e-05)
(-0.00690702 -0.00277583 6.02968e-05)
(-0.00613893 -0.0024274 5.3592e-05)
(-0.00543812 -0.00212388 4.74744e-05)
(-0.00479991 -0.0018594 4.19033e-05)
(-0.00421968 -0.00162884 3.68383e-05)
(-0.00369291 -0.00142777 3.22398e-05)
(-0.00321534 -0.00125233 2.80709e-05)
(-0.00278281 -0.00109909 2.42951e-05)
(-0.0023915 -0.00096505 2.08792e-05)
(-0.00203793 -0.000847498 1.77927e-05)
(-0.00171887 -0.000743954 1.50074e-05)
(-0.00143152 -0.000652107 1.24989e-05)
(-0.00117335 -0.000569729 1.02452e-05)
(-0.000942334 -0.000494659 8.22844e-06)
(-0.000736902 -0.00042477 6.435e-06)
(-0.000555984 -0.000357969 4.85554e-06)
(-0.000399072 -0.000292332 3.48561e-06)
(-0.000266399 -0.000226381 2.32722e-06)
(-0.000158616 -0.000159712 1.38606e-06)
(-7.74168e-05 -9.40353e-05 6.76872e-07)
(-2.35614e-05 -3.54381e-05 2.06483e-07)
(3.53254e-07 3.30271e-06 1.05864e-10)
(-0.0304305 -0.0302619 0.000265606)
(-0.0295633 -0.0275546 0.00025804)
(-0.0285054 -0.0249533 0.000248808)
(-0.0272931 -0.0224849 0.000238229)
(-0.0259615 -0.0201691 0.000226609)
(-0.0245447 -0.0180182 0.000214244)
(-0.0230737 -0.0160385 0.000201406)
(-0.0215766 -0.0142313 0.000188339)
(-0.0200776 -0.0125934 0.000175257)
(-0.0185975 -0.0111184 0.000162338)
(-0.0171532 -0.00979771 0.000149732)
(-0.0157582 -0.00862084 0.000137556)
(-0.0144226 -0.00757646 0.000125898)
(-0.0131537 -0.00665285 0.000114823)
(-0.0119562 -0.00583835 0.000104371)
(-0.0108329 -0.00512165 9.4565e-05)
(-0.00978433 -0.00449208 8.54126e-05)
(-0.00881005 -0.00393973 7.69082e-05)
(-0.0079083 -0.00345555 6.90368e-05)
(-0.00707652 -0.00303137 6.17761e-05)
(-0.00631167 -0.00265993 5.50997e-05)
(-0.00561012 -0.00233471 4.89757e-05)
(-0.00496809 -0.00205 4.33713e-05)
(-0.00438167 -0.00180076 3.82522e-05)
(-0.00384695 -0.00158255 3.35845e-05)
(-0.00336017 -0.00139149 2.93352e-05)
(-0.00291756 -0.00122408 2.54714e-05)
(-0.0025156 -0.00107721 2.19626e-05)
(-0.00215106 -0.000948053 1.87803e-05)
(-0.00182093 -0.000834008 1.58984e-05)
(-0.00152251 -0.000732621 1.32933e-05)
(-0.00125341 -0.000641515 1.09441e-05)
(-0.00101167 -0.000558374 8.83382e-06)
(-0.000795775 -0.000480903 6.94903e-06)
(-0.000604675 -0.000406831 5.28069e-06)
(-0.000437884 -0.000334047 3.82453e-06)
(-0.000295684 -0.00026089 2.58298e-06)
(-0.000178832 -0.000186782 1.56265e-06)
(-8.9317e-05 -0.000113343 7.80869e-07)
(-2.84253e-05 -4.67118e-05 2.49073e-07)
(-7.91307e-09 -7.32539e-08 4.08454e-09)
(-0.027936 -0.0288585 0.000243831)
(-0.0273302 -0.0265086 0.000238546)
(-0.0265358 -0.024216 0.000231615)
(-0.0255821 -0.0220091 0.000223293)
(-0.0244988 -0.0199099 0.000213839)
(-0.0233153 -0.0179343 0.000203512)
(-0.0220596 -0.016093 0.000192553)
(-0.0207575 -0.0143914 0.000181189)
(-0.0194324 -0.0128311 0.000169623)
(-0.0181047 -0.0114103 0.000158036)
(-0.016792 -0.0101242 0.000146578)
(-0.0155087 -0.00896639 0.000135378)
(-0.0142666 -0.0079288 0.000124536)
(-0.0130746 -0.00700261 0.000114132)
(-0.0119393 -0.00617861 0.000104222)
(-0.0108651 -0.00544752 9.48457e-05)
(-0.00985452 -0.0048003 8.60247e-05)
(-0.00890867 -0.00422835 7.77686e-05)
(-0.00802735 -0.00372362 7.00756e-05)
(-0.00720936 -0.00327869 6.29354e-05)
(-0.00645282 -0.00288686 5.63316e-05)
(-0.00575516 -0.00254201 5.02416e-05)
(-0.00511347 -0.00223869 4.46401e-05)
(-0.00452458 -0.00197201 3.94996e-05)
(-0.0039852 -0.00173762 3.47912e-05)
(-0.00349209 -0.00153167 3.04867e-05)
(-0.00304189 -0.00135062 2.65567e-05)
(-0.00263144 -0.0011913 2.29738e-05)
(-0.00225779 -0.00105081 1.9712e-05)
(-0.00191813 -0.000926437 1.67469e-05)
(-0.00160996 -0.00081562 1.40567e-05)
(-0.00133102 -0.000715847 1.16217e-05)
(-0.00107945 -0.000624658 9.4255e-06)
(-0.000853776 -0.000539604 7.45543e-06)
(-0.000653017 -0.000458244 5.70278e-06)
(-0.000476711 -0.000378279 4.16357e-06)
(-0.000325194 -0.000297848 2.8407e-06)
(-0.000199344 -0.00021617 1.74183e-06)
(-0.000101466 -0.00013471 8.8704e-07)
(-3.34155e-05 -5.95473e-05 2.92769e-07)
(-3.79491e-07 -4.14394e-06 8.17687e-09)
(-0.0256439 -0.0273922 0.000223824)
(-0.0252478 -0.025374 0.000220369)
(-0.0246705 -0.0233732 0.000215332)
(-0.0239349 -0.0214183 0.000208914)
(-0.0230655 -0.0195327 0.000201327)
(-0.0220871 -0.0177345 0.000192789)
(-0.0210243 -0.016037 0.000183514)
(-0.0199003 -0.0144493 0.000173704)
(-0.0187369 -0.0129765 0.000163551)
(-0.0175537 -0.0116203 0.000153225)
(-0.0163682 -0.0103796 0.000142878)
(-0.0151952 -0.00925108 0.00013264)
(-0.0140473 -0.00822987 0.00012262)
(-0.0129345 -0.00730982 0.000112908)
(-0.0118648 -0.00648406 0.000103571)
(-0.010844 -0.00574533 9.46607e-05)
(-0.00987607 -0.00508625 8.62123e-05)
(-0.00896354 -0.00449957 7.82471e-05)
(-0.00810751 -0.00397835 7.07749e-05)
(-0.00730798 -0.00351603 6.3796e-05)
(-0.0065642 -0.00310656 5.73036e-05)
(-0.00587455 -0.00274429 5.12835e-05)
(-0.00523696 -0.00242413 4.57179e-05)
(-0.004649 -0.00214142 4.05856e-05)
(-0.004108 -0.00189196 3.58631e-05)
(-0.00361125 -0.00167197 3.15268e-05)
(-0.00315583 -0.00147793 2.75513e-05)
(-0.00273896 -0.00130666 2.39123e-05)
(-0.00235796 -0.0011552 2.05864e-05)
(-0.0020103 -0.00102078 1.75515e-05)
(-0.00169367 -0.00090072 1.47875e-05)
(-0.00140596 -0.000792409 1.22759e-05)
(-0.00114542 -0.000693261 1.00015e-05)
(-0.00091069 -0.000600681 7.95233e-06)
(-0.000700817 -0.000512066 6.12014e-06)
(-0.000515391 -0.00042493 4.50133e-06)
(-0.000354807 -0.000337203 3.09932e-06)
(-0.000220074 -0.000247862 1.92291e-06)
(-0.000113824 -0.000158151 9.95033e-07)
(-3.85222e-05 -7.39732e-05 3.37484e-07)
(-7.63284e-07 -8.9265e-06 1.23982e-08)
(-0.0235341 -0.0259001 0.000205408)
(-0.0233096 -0.0241853 0.000203451)
(-0.0229128 -0.0224563 0.000199989)
(-0.0223617 -0.0207406 0.000195181)
(-0.0216762 -0.0190616 0.000189199)
(-0.0208772 -0.0174388 0.000182227)
(-0.0199859 -0.0158872 0.000174449)
(-0.0190231 -0.0144182 0.000166047)
(-0.0180086 -0.0130395 0.000157193)
(-0.0169608 -0.0117557 0.000148048)