/*--------------------------------*- C++ -*----------------------------------*\
| =========                 |                                                 |
| \\      /  F ield         | OpenFOAM: The Open Source CFD Toolbox           |
|  \\    /   O peration     | Version:  v2012                                 |
|   \\  /    A nd           | Website:  www.openfoam.com                      |
|    \\/     M anipulation  |                                                 |
\*---------------------------------------------------------------------------*/
FoamFile
{
    version     2.0;
    format      ascii;
    class       volScalarField;
    location    "0.6";
    object      alpha.water;
}
// * * * * * * * * * * * * * * * * * * * * * * * * * * * * * * * * * * * * * //

dimensions      [0 0 0 0 0 0 0];


internalField   nonuniform List<scalar> 
15860
(
-4.59621e-74
-1.06036e-73
-5.682e-74
-3.18888e-74
-6.64384e-75
-1.18822e-75
-1.81349e-76
-2.6251e-77
-3.70195e-78
-3.52843e-79
-2.80647e-80
-2.16849e-81
-1.55551e-82
-9.62459e-84
-5.5527e-85
-3.07647e-86
-4.38133e-85
-1.73441e-81
-9.95025e-78
-1.03508e-73
-1.55057e-69
-3.05673e-65
-1.07795e-60
-6.57613e-58
-1.06825e-57
-8.39113e-58
-4.21798e-58
-1.51652e-58
-4.13409e-59
-8.84903e-60
-1.52128e-60
-2.13302e-61
-2.46581e-62
-2.36841e-63
-1.90069e-64
-1.2795e-65
-7.23837e-67
-3.4545e-68
-1.39105e-69
-4.72962e-71
-1.35727e-72
-3.28645e-74
-6.70498e-76
-1.15078e-77
-1.65793e-79
-1.9979e-81
-2.00666e-83
-1.67119e-85
-1.14712e-87
-6.43991e-90
-2.92788e-92
-1.06522e-94
-3.05349e-97
-6.75806e-100
-1.12427e-102
-1.35481e-105
-1.1204e-108
-5.83949e-112
-1.64452e-115
-1.70091e-119
-4.3742e-73
-9.29757e-73
-4.81511e-73
-2.5749e-73
-5.16108e-74
-8.99978e-75
-1.35024e-75
-1.92617e-76
-2.72368e-77
-2.54059e-78
-2.03703e-79
-1.54519e-80
-1.10293e-81
-6.70661e-83
-3.8271e-84
-2.10412e-85
-1.60668e-84
-6.60133e-81
-4.15033e-77
-4.9379e-73
-8.27219e-69
-1.78161e-64
-6.78302e-60
-3.80958e-57
-6.32552e-57
-5.08349e-57
-2.61636e-57
-9.63804e-58
-2.69357e-58
-5.91382e-59
-1.04323e-59
-1.50146e-60
-1.78212e-61
-1.75781e-62
-1.44879e-63
-1.00167e-64
-5.81958e-66
-2.85181e-67
-1.17884e-68
-4.11309e-70
-1.21077e-71
-3.00582e-73
-6.28397e-75
-1.10448e-76
-1.62842e-78
-2.00674e-80
-2.05952e-82
-1.7512e-84
-1.22619e-86
-7.01572e-89
-3.24768e-91
-1.20185e-93
-3.50044e-96
-7.86223e-99
-1.32555e-101
-1.61613e-104
-1.34913e-107
-7.07247e-111
-1.98834e-114
-2.00209e-118
-4.00588e-72
-7.81924e-72
-3.78955e-72
-1.97144e-72
-3.9183e-73
-6.47352e-74
-9.6581e-75
-1.36954e-75
-1.92407e-76
-1.76478e-77
-1.38773e-78
-1.04626e-79
-7.39637e-81
-4.43899e-82
-2.50934e-83
-1.37049e-84
-5.35774e-84
-2.2995e-80
-1.61084e-76
-2.23065e-72
-4.2034e-68
-9.9388e-64
-4.09716e-59
-2.12778e-56
-3.61376e-56
-2.97345e-56
-1.56813e-56
-5.92331e-57
-1.69851e-57
-3.82822e-58
-6.93562e-59
-1.02553e-59
-1.2509e-60
-1.26825e-61
-1.07459e-62
-7.63815e-64
-4.56216e-65
-2.29799e-66
-9.76187e-68
-3.49917e-69
-1.05781e-70
-2.69556e-72
-5.78126e-74
-1.04179e-75
-1.57371e-77
-1.98543e-79
-2.0844e-81
-1.81144e-83
-1.29512e-85
-7.55881e-88
-3.56545e-90
-1.34287e-92
-3.97541e-95
-9.06181e-98
-1.54763e-100
-1.90671e-103
-1.6027e-106
-8.40953e-110
-2.33753e-113
-2.25699e-117
-3.50983e-71
-6.37473e-71
-2.90116e-71
-1.43706e-71
-2.79929e-72
-4.52814e-73
-6.66966e-74
-9.37872e-75
-1.31891e-75
-1.18116e-76
-9.16402e-78
-6.7429e-79
-4.73235e-80
-2.80885e-81
-1.57613e-82
-8.53764e-84
-1.61943e-83
-7.27449e-80
-5.79369e-76
-9.48654e-72
-2.01884e-67
-5.25903e-63
-2.372e-58
-1.1447e-55
-1.99013e-55
-1.67789e-55
-9.07437e-56
-3.51757e-56
-1.03577e-56
-2.39848e-57
-4.46637e-58
-6.79052e-59
-8.51916e-60
-8.88591e-61
-7.747e-62
-5.66635e-63
-3.48269e-64
-1.80494e-65
-7.88737e-67
-2.90753e-68
-9.03572e-70
-2.36594e-71
-5.21125e-73
-9.6382e-75
-1.49325e-76
-1.93075e-78
-2.07564e-80
-1.84542e-82
-1.34851e-84
-8.03534e-87
-3.86508e-89
-1.48253e-91
-4.46293e-94
-1.03264e-96
-1.78618e-99
-2.22208e-102
-1.87765e-105
-9.83096e-109
-2.68737e-112
-2.47715e-116
-2.94886e-70
-4.9633e-70
-2.14763e-70
-1.00987e-70
-1.94037e-71
-3.0121e-72
-4.4113e-73
-6.13013e-74
-8.63769e-75
-7.53931e-76
-5.77285e-77
-4.14917e-78
-2.86213e-79
-1.68319e-80
-9.37758e-82
-5.03802e-83
-4.42077e-83
-2.08412e-79
-1.92648e-75
-3.77606e-71
-9.08843e-67
-2.61355e-62
-1.31444e-57
-5.92686e-55
-1.05558e-54
-9.12605e-55
-5.0653e-55
-2.01658e-55
-6.10239e-56
-1.45297e-56
-2.7832e-57
-4.35433e-58
-5.62318e-59
-6.039e-60
-5.42194e-61
-4.08437e-62
-2.58554e-63
-1.37996e-64
-6.20907e-66
-2.35609e-67
-7.53437e-69
-2.02914e-70
-4.59455e-72
-8.73021e-74
-1.38864e-75
-1.84192e-77
-2.02962e-79
-1.84787e-81
-1.38132e-83
-8.41041e-86
-4.12856e-88
-1.61381e-90
-4.94269e-93
-1.16124e-95
-2.03439e-98
-2.55457e-101
-2.16782e-104
-1.13047e-107
-3.03061e-111
-2.66061e-115
-2.35903e-69
-3.65947e-69
-1.52797e-69
-6.85573e-70
-1.30067e-70
-1.93373e-71
-2.85839e-72
-3.85787e-73
-5.35288e-74
-4.57479e-75
-3.45068e-76
-2.43779e-77
-1.6465e-78
-9.58088e-80
-5.2995e-81
-2.81975e-82
-1.10891e-82
-5.39198e-79
-5.89697e-75
-1.39466e-70
-3.79528e-66
-1.20613e-61
-6.96078e-57
-2.95019e-54
-5.38684e-54
-4.77952e-54
-2.72471e-54
-1.11495e-54
-3.47014e-55
-8.50208e-56
-1.67652e-56
-2.70109e-57
-3.59331e-58
-3.97641e-59
-3.67945e-60
-2.85699e-61
-1.86429e-62
-1.02558e-63
-4.7555e-65
-1.85918e-66
-6.12332e-68
-1.69775e-69
-3.95552e-71
-7.72891e-73
-1.26333e-74
-1.72065e-76
-1.94516e-78
-1.81517e-80
-1.38926e-82
-8.65045e-85
-4.33692e-87
-1.7288e-89
-5.39013e-92
-1.28639e-94
-2.28301e-97
-2.89335e-100
-2.46459e-103
-1.27887e-106
-3.35848e-110
-2.80604e-114
-1.79896e-68
-2.56951e-68
-1.03464e-68
-4.44703e-69
-7.82906e-70
-1.18348e-70
-1.68861e-71
-2.28056e-72
-3.1551e-73
-2.62318e-74
-1.97047e-75
-1.35413e-76
-8.9476e-78
-5.14169e-79
-2.81836e-80
-1.48411e-81
-2.69413e-82
-1.24925e-78
-1.6504e-74
-4.72162e-70
-1.45183e-65
-5.10212e-61
-3.51686e-56
-1.41019e-53
-2.64201e-53
-2.40765e-53
-1.41089e-53
-5.93888e-54
-1.90258e-54
-4.80037e-55
-9.75159e-56
-1.61909e-56
-2.22042e-57
-2.53375e-58
-2.41816e-59
-1.93688e-60
-1.30385e-61
-7.39903e-63
-3.5386e-64
-1.42653e-65
-4.84316e-67
-1.38361e-68
-3.31985e-70
-6.6765e-72
-1.12244e-73
-1.57115e-75
-1.82382e-77
-1.74591e-79
-1.3693e-81
-8.72653e-84
-4.47179e-86
-1.81912e-88
-5.77742e-91
-1.40135e-93
-2.52041e-96
-3.22445e-99
-2.75694e-102
-1.42324e-105
-3.66172e-109
-2.9144e-113
-1.3029e-67
-1.73789e-67
-6.7382e-68
-2.73356e-68
-4.76517e-69
-6.93473e-70
-9.78965e-71
-1.27321e-71
-1.72908e-72
-1.42834e-73
-1.05535e-74
-7.10994e-76
-4.5985e-77
-2.60235e-78
-1.41025e-79
-7.31831e-81
-6.98452e-82
-2.55267e-78
-4.15645e-74
-1.44139e-69
-5.01169e-65
-1.94773e-60
-1.69212e-55
-6.46468e-53
-1.2438e-52
-1.16517e-52
-7.02455e-53
-3.04412e-53
-1.00462e-53
-2.61227e-54
-5.47077e-55
-9.36729e-56
-1.32521e-56
-1.56047e-57
-1.53716e-58
-1.27101e-59
-8.8334e-61
-5.17489e-62
-2.55463e-63
-1.06279e-64
-3.72244e-66
-1.09664e-67
-2.71209e-69
-5.61837e-71
-9.72303e-73
-1.3999e-74
-1.67003e-76
-1.64135e-78
-1.32021e-80
-8.61827e-83
-4.51741e-85
-1.87675e-87
-6.0756e-90
-1.49867e-92
-2.73304e-95
-3.5311e-98
-3.03159e-101
-1.55773e-104
-3.93061e-108
-2.98768e-112
-8.97046e-67
-1.11194e-66
-4.17075e-67
-1.60747e-67
-2.79096e-68
-3.85718e-69
-5.33208e-70
-6.80276e-71
-8.97008e-72
-7.3146e-73
-5.34183e-74
-3.50161e-75
-2.20352e-76
-1.23144e-77
-6.57818e-79
-3.352e-80
-2.11407e-81
-4.6072e-78
-9.30733e-74
-3.89588e-69
-1.53729e-64
-6.5947e-60
-7.73797e-55
-2.83817e-52
-5.61295e-52
-5.41007e-52
-3.3585e-52
-1.49967e-52
-5.10269e-53
-1.36848e-53
-2.95669e-54
-5.22439e-55
-7.62972e-56
-9.27711e-57
-9.43901e-58
-8.06272e-59
-5.78936e-60
-3.50393e-61
-1.78682e-62
-7.67724e-64
-2.77621e-65
-8.44071e-67
-2.15323e-68
-4.59848e-70
-8.19837e-72
-1.21509e-73
-1.49087e-75
-1.50557e-77
-1.24293e-79
-8.31752e-82
-4.46297e-84
-1.89494e-86
-6.25748e-89
-1.57078e-91
-2.90638e-94
-3.79466e-97
-3.2736e-100
-1.67585e-103
-4.15487e-107
-3.02692e-111
-5.74241e-66
-6.8384e-66
-2.44775e-66
-8.96096e-67
-1.55821e-67
-2.04786e-68
-2.7282e-69
-3.43003e-70
-4.34929e-71
-3.4928e-72
-2.5233e-73
-1.61478e-74
-9.80423e-76
-5.41577e-77
-2.83919e-78
-1.41301e-79
-7.26237e-81
-7.21718e-78
-1.81287e-73
-9.16838e-69
-4.13814e-64
-1.94796e-59
-3.35568e-54
-1.19141e-51
-2.42437e-51
-2.40662e-51
-1.53984e-51
-7.09131e-52
-2.48987e-52
-6.89256e-53
-1.53744e-53
-2.80529e-54
-4.23192e-55
-5.31699e-56
-5.59146e-57
-4.93755e-58
-3.6656e-59
-2.29371e-60
-1.20916e-61
-5.36948e-63
-2.00618e-64
-6.29958e-66
-1.65891e-67
-3.65501e-69
-6.71815e-71
-1.02576e-72
-1.29542e-74
-1.34518e-76
-1.14067e-78
-7.83073e-81
-4.30445e-83
-1.86925e-85
-6.30103e-88
-1.61082e-90
-3.02627e-93
-3.99608e-96
-3.46734e-99
-1.77087e-102
-4.32401e-106
-3.03244e-110
-3.4351e-65
-3.70741e-65
-1.29996e-65
-4.80583e-66
-8.03388e-67
-1.02684e-67
-1.30901e-68
-1.62644e-69
-1.97579e-70
-1.5788e-71
-1.11311e-72
-6.89015e-74
-4.06781e-75
-2.19218e-76
-1.11863e-77
-5.39007e-79
-2.52006e-80
-9.83029e-78
-3.0327e-73
-1.86039e-68
-9.73211e-64
-4.98525e-59
-1.37666e-53
-4.77364e-51
-1.00058e-50
-1.02405e-50
-6.7601e-51
-3.2139e-51
-1.16556e-51
-3.33319e-52
-7.68127e-53
-1.44827e-53
-2.25825e-54
-2.93366e-55
-3.19088e-56
-2.91495e-57
-2.23902e-58
-1.44956e-59
-7.90526e-61
-3.63085e-62
-1.40266e-63
-4.55222e-65
-1.23836e-66
-2.81689e-68
-5.34184e-70
-8.40836e-72
-1.09377e-73
-1.16874e-75
-1.01871e-77
-7.17966e-80
-4.04597e-82
-1.79834e-84
-6.19275e-87
-1.61352e-89
-3.08049e-92
-4.11775e-95
-3.59781e-98
-1.83624e-101
-4.42794e-105
-3.00382e-109
-1.95886e-64
-1.94312e-64
-6.52764e-65
-2.28817e-65
-3.75705e-66
-4.75357e-67
-5.94883e-68
-7.2068e-69
-8.31695e-70
-6.52724e-71
-4.49924e-72
-2.72566e-73
-1.55437e-74
-8.07696e-76
-3.95604e-77
-1.82342e-78
-7.97156e-80
-1.21908e-77
-4.43507e-73
-3.26497e-68
-2.01548e-63
-1.13502e-58
-5.32764e-53
-1.82199e-50
-3.93866e-50
-4.16085e-50
-2.83705e-50
-1.39391e-50
-5.22666e-51
-1.54541e-51
-3.682e-52
-7.17821e-53
-1.15765e-53
-1.55598e-54
-1.75162e-55
-1.65655e-56
-1.31746e-57
-8.83113e-59
-4.98597e-60
-2.37028e-61
-9.47464e-63
-3.18034e-64
-8.94365e-66
-2.10184e-67
-4.11514e-69
-6.68239e-71
-8.95974e-73
-9.85858e-75
-8.83885e-77
-6.39986e-79
-3.70002e-81
-1.68449e-83
-5.93035e-86
-1.57608e-88
-3.0605e-91
-4.14568e-94
-3.65227e-97
-1.86624e-100
-4.45772e-104
-2.94031e-108
-1.05592e-63
-9.77812e-64
-3.10779e-64
-1.07484e-64
-1.657e-65
-2.09033e-66
-2.47116e-67
-2.99866e-68
-3.24445e-69
-2.50208e-70
-1.65666e-71
-9.76023e-73
-5.33414e-74
-2.63127e-75
-1.21681e-76
-5.2546e-78
-2.12653e-79
-1.48523e-77
-5.90434e-73
-5.02463e-68
-3.7329e-63
-2.53342e-58
-1.93869e-52
-6.60986e-50
-1.47568e-49
-1.61123e-49
-1.13614e-49
-5.7756e-50
-2.24157e-50
-6.85891e-51
-1.69073e-51
-3.41032e-52
-5.69195e-53
-7.92072e-54
-9.23496e-55
-9.048e-56
-7.4562e-57
-5.17869e-58
-3.02922e-59
-1.49162e-60
-6.17386e-62
-2.14494e-63
-6.23993e-65
-1.51608e-66
-3.06666e-68
-5.14082e-70
-7.10944e-72
-8.06068e-74
-7.43871e-76
-5.53717e-78
-3.28653e-80
-1.53368e-82
-5.52424e-85
-1.49877e-87
-2.96291e-90
-4.07159e-93
-3.62192e-96
-1.85665e-99
-4.40666e-103
-2.84117e-107
-5.30399e-63
-4.61264e-63
-1.39215e-63
-4.55743e-64
-6.83001e-65
-8.12901e-66
-9.57382e-67
-1.16017e-67
-1.17746e-68
-8.7803e-70
-5.58308e-71
-3.11651e-72
-1.59576e-73
-7.28537e-75
-3.08675e-76
-1.19025e-77
-4.27621e-79
-1.72278e-77
-7.33724e-73
-6.77922e-68
-6.14949e-63
-6.30145e-58
-6.60876e-52
-2.2735e-49
-5.25021e-49
-5.93356e-49
-4.33295e-49
-2.28197e-49
-9.17823e-50
-2.90907e-50
-7.42443e-51
-1.55039e-51
-2.67967e-52
-3.86319e-53
-4.66831e-54
-4.74196e-55
-4.05218e-56
-2.91848e-57
-1.77003e-58
-9.03478e-60
-3.87499e-61
-1.39441e-62
-4.19934e-64
-1.05555e-65
-2.20736e-67
-3.82247e-69
-5.45593e-71
-6.37827e-73
-6.06256e-75
-4.64246e-77
-2.83081e-79
-1.35501e-81
-4.9973e-84
-1.38522e-86
-2.79051e-89
-3.89464e-92
-3.50344e-95
-1.80539e-98
-4.27142e-102
-2.70621e-106
-2.49089e-62
-2.0554e-62
-5.70577e-63
-1.66764e-63
-2.6229e-64
-3.0003e-65
-3.51314e-66
-4.19987e-67
-3.77359e-68
-2.73968e-69
-1.60556e-70
-8.60212e-72
-3.89246e-73
-1.56565e-74
-5.48641e-76
-1.68431e-77
-4.32693e-79
-1.39613e-77
-7.9174e-73
-7.63745e-68
-8.60091e-63
-1.7471e-57
-2.1014e-51
-7.39286e-49
-1.76915e-48
-2.07305e-48
-1.5702e-48
-8.57989e-49
-3.58109e-49
-1.17689e-49
-3.11203e-50
-6.73194e-51
-1.20565e-51
-1.80192e-52
-2.25848e-53
-2.38035e-54
-2.11104e-55
-1.57793e-56
-9.93076e-58
-5.25865e-59
-2.33894e-60
-8.72412e-62
-2.72176e-63
-7.08279e-65
-1.53227e-66
-2.74279e-68
-4.04313e-70
-4.87668e-72
-4.77726e-74
-3.76575e-76
-2.36053e-78
-1.15979e-80
-4.38273e-83
-1.24224e-85
-2.55248e-88
-3.62232e-91
-3.30004e-94
-1.71316e-97
-4.05307e-101
-2.53637e-105
-1.09812e-61
-8.59309e-62
-2.27412e-62
-6.19377e-63
-9.04152e-64
-1.03279e-64
-1.12401e-65
-1.2409e-66
-1.07732e-67
-7.20498e-69
-3.91912e-70
-1.79587e-71
-6.40175e-73
-2.02254e-74
-1.52412e-76
7.87358e-100
3.6305e-80
2.23941e-80
-5.63873e-73
-6.57949e-68
-9.66393e-63
-4.85336e-57
-6.20194e-51
-2.26513e-48
-5.62922e-48
-6.85249e-48
-5.39342e-48
-3.06281e-48
-1.32865e-48
-4.53216e-49
-1.24255e-49
-2.78599e-50
-5.17325e-51
-8.02117e-52
-1.04359e-52
-1.14223e-53
-1.05225e-54
-8.17012e-56
-5.34043e-57
-2.93626e-58
-1.35545e-59
-5.24455e-61
-1.69627e-62
-4.57311e-64
-1.02417e-65
-1.89627e-67
-2.88868e-69
-3.59707e-71
-3.63391e-73
-2.95051e-75
-1.90252e-77
-9.60115e-80
-3.72028e-82
-1.0791e-84
-2.26369e-87
-3.27027e-90
-3.02184e-93
-1.58362e-96
-3.75797e-100
-2.33431e-104
-4.50705e-61
-3.37596e-61
-8.39828e-62
-2.22746e-62
-3.05229e-63
-3.35743e-64
-3.36976e-65
-3.40252e-66
-2.64274e-67
-1.57214e-68
-7.28286e-70
-2.36853e-71
6.68312e-97
9.55597e-77
2.16825e-76
6.60351e-76
4.98206e-76
3.03512e-76
2.42139e-77
-3.96347e-68
-8.28722e-63
-1.23164e-56
-1.68916e-50
-6.51362e-48
-1.68538e-47
-2.13631e-47
-1.75095e-47
-1.0354e-47
-4.67656e-48
-1.65754e-48
-4.71472e-49
-1.0963e-49
-2.11196e-50
-3.39971e-51
-4.59539e-52
-5.22828e-53
-5.00805e-54
-4.04318e-55
-2.74755e-56
-1.56998e-57
-7.52856e-59
-3.02424e-60
-1.01485e-61
-2.83659e-63
-6.581e-65
-1.26118e-66
-1.98667e-68
-2.55556e-70
-2.66406e-72
-2.22936e-74
-1.47964e-76
-7.67463e-79
-3.0514e-81
-9.06465e-84
-1.94314e-86
-2.86088e-89
-2.68521e-92
-1.42341e-95
-3.39798e-99
-2.10483e-103
-1.67528e-60
-1.18906e-60
-2.9249e-61
-7.48254e-62
-9.22939e-63
-9.5655e-64
-8.70603e-65
-7.78097e-66
-5.06791e-67
-2.20991e-68
-6.90262e-70
-4.0145e-93
7.34874e-73
2.06943e-72
2.69848e-72
3.014e-72
2.2354e-72
1.43877e-72
3.49925e-73
-1.30622e-68
-4.99039e-63
-2.59777e-56
-4.21604e-50
-1.7495e-47
-4.7282e-47
-6.25815e-47
-5.355e-47
-3.30502e-47
-1.55748e-47
-5.74205e-48
-1.69548e-48
-4.0907e-49
-8.18105e-50
-1.36838e-50
-1.92352e-51
-2.27727e-52
-2.27067e-53
-1.90827e-54
-1.34961e-55
-8.02291e-57
-4.00034e-58
-1.66983e-59
-5.81858e-61
-1.68745e-62
-4.05857e-64
-8.05584e-66
-1.31308e-67
-1.74594e-69
-1.87925e-71
-1.62179e-73
-1.1086e-75
-5.91366e-78
-2.41425e-80
-7.35069e-83
-1.61161e-85
-2.4208e-88
-2.31122e-91
-1.24165e-94
-2.98997e-98
-1.8549e-102
-5.57015e-60
-3.62019e-60
-8.29884e-61
-2.09519e-61
-2.51316e-62
-2.31339e-63
-1.86317e-64
-1.31104e-65
-5.79998e-67
-4.05659e-92
4.26579e-71
2.27941e-69
5.16908e-69
9.14741e-69
1.19603e-68
1.34191e-68
1.00196e-68
6.45638e-69
2.35979e-69
8.37355e-71
-1.7649e-63
-4.15142e-56
-9.55928e-50
-4.3627e-47
-1.23654e-46
-1.71499e-46
-1.53686e-46
-9.92753e-47
-4.89321e-47
-1.87833e-47
-5.76007e-48
-1.44273e-48
-2.99751e-49
-5.21444e-50
-7.6314e-51
-9.41332e-52
-9.78304e-53
-8.56941e-54
-6.31536e-55
-3.91022e-56
-2.02946e-57
-8.81161e-59
-3.19118e-60
-9.61043e-62
-2.3981e-63
-4.93364e-65
-8.3266e-67
-1.14514e-68
-1.27342e-70
-1.134e-72
-7.98833e-75
-4.38516e-77
-1.83941e-79
-5.74426e-82
-1.28919e-84
-1.97772e-87
-1.92322e-90
-1.049e-93
-2.55462e-97
-1.59345e-101
-1.68562e-59
-1.02478e-59
-2.1155e-60
-4.92174e-61
-5.46397e-62
-4.55778e-63
-2.69097e-64
-6.85076e-66
-1.47465e-88
2.80723e-67
7.18208e-67
9.66379e-66
2.19199e-65
3.76556e-65
5.08733e-65
5.75758e-65
4.32353e-65
2.8355e-65
1.05145e-65
1.92445e-66
1.70335e-67
-4.39444e-56
-1.94585e-49
-1.00211e-46
-2.99504e-46
-4.37235e-46
-4.11966e-46
-2.79485e-46
-1.44519e-46
-5.78027e-47
-1.8414e-47
-4.79046e-48
-1.0349e-48
-1.87457e-49
-2.86021e-50
-3.68134e-51
-3.99386e-52
-3.65184e-53
-2.80838e-54
-1.81348e-55
-9.80909e-57
-4.43488e-58
-1.67095e-59
-5.2303e-61
-1.35516e-62
-2.89189e-64
-5.05713e-66
-7.19835e-68
-8.27507e-70
-7.60853e-72
-5.52664e-74
-3.12389e-76
-1.3472e-78
-4.31815e-81
-9.92835e-84
-1.55706e-86
-1.54417e-89
-8.56558e-93
-2.11446e-96
-1.33077e-100
-4.68761e-59
-2.57536e-59
-4.78658e-60
-1.02639e-60
-1.02654e-61
-5.47568e-63
-6.13954e-87
3.87224e-66
1.53829e-64
1.22886e-63
2.94422e-63
4.10693e-62
9.50567e-62
1.70212e-61
2.23256e-61
2.55097e-61
1.91801e-61
1.25021e-61
4.63988e-62
8.97754e-63
7.46338e-64
-1.84698e-56
-3.494e-49
-2.09726e-46
-6.66073e-46
-1.02976e-45
-1.02542e-45
-7.33844e-46
-3.99593e-46
-1.66543e-46
-5.51117e-47
-1.49014e-47
-3.35123e-48
-6.33039e-49
-1.00875e-49
-1.35725e-50
-1.53994e-51
-1.47244e-52
-1.1836e-53
-7.98319e-55
-4.50641e-56
-2.12422e-57
-8.33588e-59
-2.71469e-60
-7.30995e-62
-1.61938e-63
-2.9364e-65
-4.32888e-67
-5.14773e-69
-4.88984e-71
-3.66461e-73
-2.13414e-75
-9.46812e-78
-3.11695e-80
-7.34747e-83
-1.17908e-85
-1.19389e-88
-6.7454e-92
-1.69144e-95
-1.0775e-99
-1.1337e-58
-5.23001e-59
-8.70031e-60
-1.63434e-60
-1.32647e-61
1.19102e-85
1.95734e-63
4.55253e-62
6.59997e-61
5.28356e-60
1.27182e-59
1.70453e-58
3.90619e-58
7.09246e-58
9.53851e-58
1.06139e-57
8.06448e-58
5.36369e-58
2.03104e-58
3.8887e-59
3.99857e-63
4.06603e-56
-5.36673e-49
-3.93411e-46
-1.34354e-45
-2.21908e-45
-2.35205e-45
-1.7861e-45
-1.02914e-45
-4.4638e-46
-1.53364e-46
-4.31421e-47
-1.01189e-47
-1.99769e-48
-3.33227e-49
-4.69786e-50
-5.58722e-51
-5.59862e-52
-4.71336e-53
-3.32655e-54
-1.96281e-55
-9.66006e-57
-3.95317e-58
-1.34092e-59
-3.75627e-61
-8.64604e-63
-1.62695e-64
-2.48587e-66
-3.05991e-68
-3.00473e-70
-2.3247e-72
-1.39564e-74
-6.37351e-77
-2.15636e-79
-5.21516e-82
-8.57075e-85
-8.8703e-88
-5.11169e-91
-1.30448e-94
-8.43444e-99
-2.3696e-58
-6.818e-59
-1.11442e-59
-1.35701e-60
4.15088e-82
2.02322e-61
8.70565e-60
1.91446e-58
2.75663e-57
2.17422e-56
5.04207e-56
7.20665e-55
1.50545e-54
2.58007e-54
3.7449e-54
4.58505e-54
3.50819e-54
2.30126e-54
8.70812e-55
1.72363e-55
1.59283e-56
2.60924e-54
-6.57966e-49
-6.43543e-46
-2.41205e-45
-4.31543e-45
-4.92012e-45
-3.9973e-45
-2.45319e-45
-1.10253e-45
-3.92862e-46
-1.15208e-46
-2.82706e-47
-5.85251e-48
-1.02522e-48
-1.51914e-49
-1.89932e-50
-1.9998e-51
-1.76748e-52
-1.30807e-53
-8.08265e-55
-4.16e-56
-1.77784e-57
-6.28903e-59
-1.83474e-60
-4.39223e-62
-8.58433e-64
-1.36048e-65
-1.73466e-67
-1.76201e-69
-1.40818e-71
-8.72026e-74
-4.10157e-76
-1.42703e-78
-3.54333e-81
-5.96831e-84
-6.31956e-87
-3.7191e-90
-9.67509e-94
-6.36457e-98
-4.08233e-58
2.20141e-63
-7.00122e-60
-2.31072e-81
6.74299e-60
8.59142e-58
3.69142e-56
8.06993e-55
1.16015e-53
8.9472e-53
1.92955e-52
2.85327e-51
6.97787e-51
1.34268e-50
1.72342e-50
1.83864e-50
1.40865e-50
9.67039e-51
3.77251e-51
7.62236e-52
7.97099e-53
2.95594e-53
-5.11877e-49
-8.68189e-46
-3.72744e-45
-7.40865e-45
-9.24305e-45
-8.13463e-45
-5.36703e-45
-2.47148e-45
-9.11949e-46
-2.80035e-46
-7.23108e-47
-1.57824e-47
-2.91727e-48
-4.56242e-49
-6.01903e-50
-6.68127e-51
-6.21742e-52
-4.8372e-53
-3.13695e-54
-1.69164e-55
-7.56229e-57
-2.79378e-58
-8.49879e-60
-2.11829e-61
-4.30412e-63
-7.08132e-65
-9.35953e-67
-9.841e-69
-8.1292e-71
-5.19561e-73
-2.51839e-75
-9.0157e-78
-2.29977e-80
-3.97308e-83
-4.30783e-86
-2.59187e-89
-6.88339e-93
-4.61638e-97
-5.15754e-58
1.45576e-57
1.2853e-59
9.51148e-59
2.85824e-56
3.48682e-54
1.47528e-52
3.20283e-51
4.5818e-50
3.73129e-49
8.62562e-49
1.12744e-47
2.76375e-47
5.23334e-47
6.98495e-47
7.86941e-47
6.1203e-47
4.08069e-47
1.57471e-47
3.22711e-48
3.48917e-49
5.96055e-51
1.25545e-66
-8.09538e-46
-4.60396e-45
-1.07826e-44
-1.52075e-44
-1.48033e-44
-1.0651e-44
-4.88616e-45
-1.86662e-45
-6.06723e-46
-1.66753e-46
-3.87298e-47
-7.60939e-48
-1.2635e-48
-1.76763e-49
-2.0773e-50
-2.04266e-51
-1.67578e-52
-1.14353e-53
-6.47545e-55
-3.03375e-56
-1.17239e-57
-3.72404e-59
-9.67575e-61
-2.04604e-62
-3.49774e-64
-4.79618e-66
-5.22376e-68
-4.46305e-70
-2.94577e-72
-1.4723e-74
-5.42643e-77
-1.42287e-79
-2.52289e-82
-2.80329e-85
-1.72603e-88
-4.68543e-92
-3.20909e-96
-1.78259e-59
2.24047e-55
3.34628e-57
4.17071e-55
1.2477e-52
1.47641e-50
6.2877e-49
1.35732e-47
1.93786e-46
1.52135e-45
3.42704e-45
4.08825e-44
8.87618e-44
1.60181e-43
2.39358e-43
3.08257e-43
2.37112e-43
1.65816e-43
6.5794e-44
1.38641e-44
1.5275e-45
2.70083e-47
1.69592e-50
-1.60698e-64
-3.57638e-45
-1.21205e-44
-2.08845e-44
-2.34247e-44
-1.88362e-44
-7.96757e-45
-3.18768e-45
-1.12956e-45
-3.38546e-46
-8.51025e-47
-1.79834e-47
-3.1978e-48
-4.77616e-49
-5.97495e-50
-6.23632e-51
-5.41513e-52
-3.9004e-53
-2.32532e-54
-1.14422e-55
-4.63401e-57
-1.53945e-58
-4.1751e-60
-9.19888e-62
-1.63564e-63
-2.32888e-65
-2.62948e-67
-2.32518e-69
-1.58588e-71
-8.17765e-74
-3.10476e-76
-8.37315e-79
-1.52469e-81
-1.73737e-84
-1.09563e-87
-3.04322e-91
-2.13166e-95
-1.46913e-65
9.07798e-53
3.23708e-53
1.75011e-51
5.01222e-49
5.84882e-47
2.4695e-45
5.29286e-44
7.25338e-43
5.76347e-42
1.04591e-41
4.04484e-40
7.54952e-40
1.10547e-39
1.34217e-39
1.30459e-39
1.03148e-39
6.93801e-40
2.78547e-40
5.99022e-41
6.8066e-42
1.33505e-43
8.67448e-47
1.35248e-48
0
-7.50632e-45
-2.10558e-44
-3.04543e-44
-2.88045e-44
-8.58586e-45
-3.88138e-45
-1.67412e-45
-5.80814e-46
-1.63404e-46
-3.78973e-47
-7.31236e-48
-1.17697e-48
-1.57862e-49
-1.75899e-50
-1.62412e-51
-1.23944e-52
-7.80358e-54
-4.0434e-55
-1.71981e-56
-5.98601e-58
-1.69719e-59
-3.90123e-61
-7.22305e-63
-1.06892e-64
-1.25219e-66
-1.14685e-68
-8.08813e-71
-4.30549e-73
-1.68477e-75
-4.6757e-78
-8.74865e-81
-1.02296e-83
-6.61203e-87
-1.88087e-90
-1.34896e-94
1.87003e-57
9.82987e-51
4.31471e-49
7.3892e-48
2.09712e-45
2.33718e-43
1.0277e-41
2.42452e-40
4.40536e-39
7.22121e-38
8.31173e-38
2.68934e-36
4.86354e-36
6.27483e-36
5.49122e-36
5.52604e-36
4.426e-36
2.82654e-36
1.13867e-36
2.52349e-37
2.93376e-38
5.2721e-40
4.44719e-43
7.31772e-45
1.01322e-46
0
-3.40124e-45
-2.71818e-44
-3.57532e-44
6.13889e-46
-9.61834e-47
-1.56034e-45
-7.72471e-46
-2.62972e-46
-6.95597e-47
-1.48774e-47
-2.61524e-48
-3.79699e-49
-4.55097e-50
-4.49498e-51
-3.65156e-52
-2.43702e-53
-1.33367e-54
-5.97233e-56
-2.18243e-57
-6.48001e-59
-1.55626e-60
-3.00404e-62
-4.62548e-64
-5.62693e-66
-5.34201e-68
-3.89823e-70
-2.14347e-72
-8.64959e-75
-2.47155e-77
-4.75433e-80
-5.70763e-83
-3.78355e-86
-1.10303e-89
-8.10735e-94
1.67672e-50
2.87416e-50
8.49028e-47
4.6268e-44
2.15866e-41
3.18229e-39
1.96194e-37
5.59762e-36
9.01507e-35
3.99806e-34
5.01739e-34
1.7159e-33
3.61043e-33
7.29418e-33
1.39088e-32
1.92488e-32
1.54244e-32
1.11294e-32
4.61583e-33
1.04476e-33
1.26064e-34
3.7693e-36
2.88227e-39
3.88739e-41
5.52023e-43
3.12956e-45
0
0
-2.93183e-44
5.76019e-43
3.10822e-44
6.13213e-47
-6.08106e-46
-3.24239e-46
-1.0688e-46
-2.63358e-47
-5.15473e-48
-8.20671e-49
-1.0696e-49
-1.13965e-50
-9.91671e-52
-7.04834e-53
-4.08869e-54
-1.93329e-55
-7.43469e-57
-2.31628e-58
-5.82165e-60
-1.1732e-61
-1.88172e-63
-2.37954e-65
-2.34362e-67
-1.77087e-69
-1.00644e-71
-4.19047e-74
-1.23346e-76
-2.4405e-79
-3.00954e-82
-2.04708e-85
-6.11981e-89
-4.61298e-93
9.24753e-47
1.04978e-48
5.75505e-46
5.37085e-40
1.77864e-37
2.23228e-35
9.11718e-34
1.54273e-32
1.40154e-31
1.99114e-31
4.34981e-31
2.60864e-30
1.62356e-29
7.19645e-29
1.85335e-28
2.82147e-28
2.23838e-28
1.61092e-28
6.04706e-29
1.18726e-29
1.36524e-30
9.74982e-32
1.52935e-33
2.02715e-37
2.95422e-39
1.72347e-41
4.89138e-44
5.78659e-47
0
1.32615e-41
4.04674e-42
9.67524e-44
1.13539e-46
-2.24945e-46
-1.26231e-46
-3.89873e-47
-8.74711e-48
-1.5541e-48
-2.24397e-49
-2.61808e-50
-2.46404e-51
-1.87711e-52
-1.15951e-53
-5.80916e-55
-2.35745e-56
-7.72389e-58
-2.03537e-59
-4.28886e-61
-7.175e-63
-9.44183e-65
-9.65627e-67
-7.56106e-69
-4.44447e-71
-1.91046e-73
-5.79568e-76
-1.18001e-78
-1.49537e-81
-1.04414e-84
-3.20233e-88
-2.47674e-92
4.04338e-43
5.24907e-45
4.65128e-42
4.90008e-37
7.88364e-35
5.45791e-33
1.38628e-31
1.59731e-30
1.06927e-29
1.62632e-28
6.03127e-27
5.74776e-26
2.68961e-25
8.07057e-25
1.59197e-24
2.12833e-24
1.808e-24
1.34502e-24
6.33922e-25
1.8605e-25
3.19981e-26
2.80462e-27
1.09013e-28
1.11187e-30
2.82612e-35
9.32874e-38
2.73443e-40
3.34913e-43
1.82132e-46
4.25225e-41
8.78633e-41
1.36178e-41
1.97484e-43
1.91544e-46
-8.6785e-47
-4.41106e-47
-1.18588e-47
-2.40121e-48
-4.00828e-49
-5.32522e-50
-5.53506e-51
-4.56862e-52
-3.02444e-53
-1.61254e-54
-6.92839e-56
-2.39344e-57
-6.62676e-59
-1.46261e-60
-2.55582e-62
-3.50415e-64
-3.72503e-66
-3.02511e-68
-1.84043e-70
-8.17212e-73
-2.55634e-75
-5.35811e-78
-6.98031e-81
-5.00502e-84
-1.57529e-87
-1.2505e-91
1.64213e-40
1.17243e-41
1.04348e-38
5.35995e-36
5.87421e-34
2.55791e-32
4.8718e-31
4.79547e-30
9.50663e-28
2.85587e-24
2.59458e-23
1.07277e-22
2.84656e-22
5.55518e-22
8.41271e-22
9.91405e-22
8.95891e-22
6.98184e-22
4.18324e-22
1.87952e-22
5.82804e-23
1.09284e-23
1.01407e-24
3.28872e-26
3.16183e-28
2.40648e-31
1.50365e-36
1.90904e-39
1.07951e-42
4.20039e-41
3.45033e-40
2.55118e-40
2.79015e-41
2.04057e-43
3.24296e-47
-2.78145e-47
-9.59052e-48
-2.20143e-48
-5.0101e-49
-8.95042e-50
-1.09597e-50
-1.00419e-51
-7.20237e-53
-4.11178e-54
-1.8782e-55
-6.86242e-57
-2.00119e-58
-4.63558e-60
-8.47486e-62
-1.21223e-63
-1.34093e-65
-1.13044e-67
-7.12342e-70
-3.26939e-72
-1.05507e-74
-2.27752e-77
-3.05118e-80
-2.24717e-83
-7.25987e-87
-5.91608e-91
1.66153e-39
4.20702e-34
3.6246e-31
1.73383e-28
1.80848e-26
7.34431e-25
1.27986e-23
1.14941e-22
6.30226e-22
2.36001e-21
6.4972e-21
1.39271e-20
2.42865e-20
3.55409e-20
4.50214e-20
4.87749e-20
4.58397e-20
3.78929e-20
2.71742e-20
1.63349e-20
7.75952e-21
2.65863e-21
5.68331e-22
6.02726e-23
2.2499e-24
1.73682e-26
2.16543e-29
1.0717e-35
6.30844e-39
4.4322e-41
3.43998e-40
1.10312e-39
4.48826e-40
1.89484e-41
2.55969e-44
7.68981e-48
3.33432e-48
3.56689e-48
6.88205e-50
-9.3922e-50
-1.7942e-50
-1.95076e-51
-1.5494e-52
-9.56335e-54
-4.67024e-55
-1.81172e-56
-5.58082e-58
-1.35987e-59
-2.60587e-61
-3.8945e-63
-4.48824e-65
-3.93171e-67
-2.56822e-69
-1.21913e-71
-4.06083e-74
-9.03124e-77
-1.24457e-79
-9.41686e-83
-3.12309e-86
-2.61264e-90
5.23173e-32
4.21716e-29
2.07385e-26
1.82211e-24
4.77571e-23
5.43058e-22
3.37966e-21
1.3588e-20
3.89751e-20
8.66707e-20
1.57621e-19
2.44306e-19
3.33299e-19
4.09597e-19
4.63371e-19
4.7717e-19
4.5844e-19
4.10036e-19
3.35602e-19
2.47736e-19
1.59011e-19
8.35232e-20
3.25018e-20
7.98356e-21
9.58558e-22
3.77725e-23
2.82491e-25
3.0168e-28
3.63284e-35
1.24381e-38
3.4779e-40
1.40775e-39
1.3809e-39
2.25102e-40
1.6636e-42
9.26806e-44
4.92025e-44
4.88243e-45
2.44995e-47
1.16612e-50
-2.10914e-50
-3.23353e-51
-2.96664e-52
-2.01087e-53
-1.05815e-54
-4.3799e-56
-1.43023e-57
-3.6759e-59
-7.39894e-61
-1.15732e-62
-1.39145e-64
-1.26797e-66
-8.59294e-69
-4.22171e-71
-1.4522e-73
-3.32867e-76
-4.71966e-79
-3.66921e-82
-1.24922e-85
-1.07269e-89
3.9182e-27
6.70371e-25
5.41931e-23
1.02938e-21
8.35235e-21
3.80565e-20
1.15237e-19
2.60433e-19
4.73265e-19
7.32853e-19
1.00476e-18
1.25472e-18
1.45871e-18
1.60259e-18
1.68462e-18
1.68495e-18
1.63377e-18
1.52202e-18
1.35463e-18
1.13947e-18
8.88805e-19
6.20062e-19
3.63504e-19
1.61066e-19
4.50497e-20
5.89904e-21
2.28944e-22
1.50014e-24
1.38491e-27
8.1446e-32
2.07937e-38
1.28372e-39
1.27997e-39
5.47601e-40
9.16317e-40
2.85284e-40
2.39192e-41
3.38003e-43
6.15714e-46
4.07574e-49
-1.45622e-50
-4.48924e-51
-4.98836e-52
-3.78491e-53
-2.16793e-54
-9.63551e-56
-3.35012e-57
-9.11141e-59
-1.93117e-60
-3.16758e-62
-3.97921e-64
-3.77648e-66
-2.65771e-68
-1.35235e-70
-4.80639e-73
-1.13586e-75
-1.65736e-78
-1.32396e-81
-4.62694e-85
-4.07715e-89
1.82008e-23
6.09468e-22
9.74111e-21
6.0514e-20
2.11577e-19
5.04679e-19
9.27591e-19
1.42536e-18
1.92977e-18
2.38662e-18
2.76189e-18
3.04183e-18
3.22926e-18
3.33151e-18
3.35775e-18
3.31088e-18
3.2081e-18
3.04565e-18
2.8252e-18
2.54812e-18
2.2135e-18
1.81808e-18
1.36503e-18
8.80851e-19
4.36109e-19
1.34578e-19
1.80973e-20
6.24604e-22
3.1885e-24
2.78992e-27
6.03992e-31
1.94623e-38
5.50331e-40
5.47602e-40
1.37612e-37
3.38905e-38
9.88991e-40
3.49374e-42
3.94728e-45
2.72521e-48
8.19527e-52
-5.1141e-51
-7.31052e-52
-6.32042e-53
-3.98367e-54
-1.91563e-55
-7.12987e-57
-2.06007e-58
-4.61125e-60
-7.94914e-62
-1.04516e-63
-1.03441e-65
-7.56706e-68
-3.9908e-70
-1.46623e-72
-3.57358e-75
-5.36667e-78
-4.40497e-81
-1.57987e-84
-1.42805e-88
5.39964e-21
4.78119e-20
2.48598e-19
7.04198e-19
1.38817e-18
2.17498e-18
2.9391e-18
3.6055e-18
4.14181e-18
4.5385e-18
4.80682e-18
4.96553e-18
5.0355e-18
5.03105e-18
4.96586e-18
4.84709e-18
4.6781e-18
4.46419e-18
4.2078e-18
3.90961e-18
3.56715e-18
3.1708e-18
2.70302e-18
2.14262e-18
1.48508e-18
7.9475e-19
2.56796e-19
3.25023e-20
8.85155e-22
3.28634e-24
2.84957e-27
9.66978e-31
1.92817e-36
5.50331e-40
1.42616e-36
3.41151e-37
6.49459e-39
1.16674e-41
9.828e-45
6.32533e-48
2.78454e-51
-5.24809e-51
-9.28646e-52
-9.2586e-53
-6.50327e-54
-3.4156e-55
-1.37005e-56
-4.22561e-58
-1.00238e-59
-1.82069e-61
-2.51026e-63
-2.59453e-65
-1.97494e-67
-1.08031e-69
-4.10493e-72
-1.03207e-74
-1.59528e-77
-1.34521e-80
-4.94974e-84
-4.58694e-88
1.93165e-19
6.67219e-19
1.62706e-18
2.78602e-18
3.89367e-18
4.81753e-18
5.53184e-18
6.05632e-18
6.4176e-18
6.6343e-18
6.73933e-18
6.75895e-18
6.71013e-18
6.6045e-18
6.44562e-18
6.23949e-18
5.99133e-18
5.70681e-18
5.39131e-18
5.04929e-18
4.68366e-18
4.29221e-18
3.86332e-18
3.37029e-18
2.76807e-18
2.00731e-18
1.11432e-18
3.51221e-19
3.73427e-20
7.03994e-22
1.83615e-24
1.58587e-27
7.38448e-31
1.25166e-34
1.81155e-36
5.96787e-37
1.16136e-38
1.86838e-41
1.38015e-44
8.36121e-48
4.04466e-51
-4.36486e-51
-9.83499e-52
-1.1651e-52
-9.31556e-54
-5.41686e-55
-2.3622e-56
-7.8226e-58
-1.97446e-59
-3.78955e-61
-5.49e-63
-5.93437e-65
-4.70508e-67
-2.67123e-69
-1.05013e-71
-2.72393e-74
-4.33317e-77
-3.75269e-80
-1.41588e-83
-1.34418e-87
1.55396e-18
2.92776e-18
4.54704e-18
5.89216e-18
6.89646e-18
7.60667e-18
8.09906e-18
8.42146e-18
8.60492e-18
8.67054e-18
8.65416e-18
8.57578e-18
8.43561e-18
8.23647e-18
7.98258e-18
7.67921e-18
7.33263e-18
6.94984e-18
6.5387e-18
6.10767e-18
5.66575e-18
5.22019e-18
4.77285e-18
4.31334e-18
3.80903e-18