/*--------------------------------*- C++ -*----------------------------------*\
| =========                 |                                                 |
| \\      /  F ield         | OpenFOAM: The Open Source CFD Toolbox           |
|  \\    /   O peration     | Version:  v2012                                 |
|   \\  /    A nd           | Website:  www.openfoam.com                      |
|    \\/     M anipulation  |                                                 |
\*---------------------------------------------------------------------------*/
FoamFile
{
    version     2.0;
    format      ascii;
    class       volScalarField;
    location    "0.25";
    object      p;
}
// * * * * * * * * * * * * * * * * * * * * * * * * * * * * * * * * * * * * * //

dimensions      [1 -1 -2 0 0 0 0];


internalField   nonuniform List<scalar> 
2650
(
4.01046e+06
4.00797e+06
4.00351e+06
4.0069e+06
4.00417e+06
4.00489e+06
4.00237e+06
3.99935e+06
4.00119e+06
4.00529e+06
4.00615e+06
4.00072e+06
4.00745e+06
4.00244e+06
4.00597e+06
4.04298e+06
4.15751e+06
4.28194e+06
4.01224e+06
4.03344e+06
6.90088e+06
6.05649e+06
5.85995e+06
6.03686e+06
6.12448e+06
6.69629e+06
6.36593e+06
6.13429e+06
6.19428e+06
6.21702e+06
8.19661e+06
6.91384e+06
6.34094e+06
6.27326e+06
6.32298e+06
9.06649e+06
7.64562e+06
6.91582e+06
6.78689e+06
6.80853e+06
6.93727e+06
6.61665e+06
6.64879e+06
6.70544e+06
6.70231e+06
6.39189e+06
6.58737e+06
6.68848e+06
6.72942e+06
6.71709e+06
6.15112e+06
6.55613e+06
6.65426e+06
6.64933e+06
6.65178e+06
6.72793e+06
6.58637e+06
6.55854e+06
6.51305e+06
6.50903e+06
6.45457e+06
6.41227e+06
6.40964e+06
6.37614e+06
6.37066e+06
6.27062e+06
6.32706e+06
6.27694e+06
6.26402e+06
6.25952e+06
6.02559e+06
6.06721e+06
6.05857e+06
6.03861e+06
6.03388e+06
6.20949e+06
6.09504e+06
6.09808e+06
6.06304e+06
6.05157e+06
5.82815e+06
5.77883e+06
5.73256e+06
5.66428e+06
5.44198e+06
6.14176e+06
6.16781e+06
6.14159e+06
6.11749e+06
6.01708e+06
6.09196e+06
6.09773e+06
6.10938e+06
6.10801e+06
6.10878e+06
6.10765e+06
6.10701e+06
6.10617e+06
6.10551e+06
6.10489e+06
6.10436e+06
6.1039e+06
6.10349e+06
6.10313e+06
6.10281e+06
6.10252e+06
6.10227e+06
6.10204e+06
6.10183e+06
6.10165e+06
6.10148e+06
6.10132e+06
6.10118e+06
6.10105e+06
6.10093e+06
6.10083e+06
6.08008e+06
6.08568e+06
6.0814e+06
6.08666e+06
6.08561e+06
6.12144e+06
6.1083e+06
6.11328e+06
6.10961e+06
6.10931e+06
6.10782e+06
6.10702e+06
6.10613e+06
6.10545e+06
6.10483e+06
6.10431e+06
6.10385e+06
6.10345e+06
6.10309e+06
6.10278e+06
6.1025e+06
6.10225e+06
6.10202e+06
6.10182e+06
6.10163e+06
6.10146e+06
6.10131e+06
6.10117e+06
6.10104e+06
6.10093e+06
6.10082e+06
6.12907e+06
6.12889e+06
6.12684e+06
6.12209e+06
6.11436e+06
6.11575e+06
6.11112e+06
6.11121e+06
6.10923e+06
6.10849e+06
6.10737e+06
6.10662e+06
6.10585e+06
6.10523e+06
6.10467e+06
6.10418e+06
6.10374e+06
6.10336e+06
6.10302e+06
6.10272e+06
6.10245e+06
6.10221e+06
6.10199e+06
6.10179e+06
6.10161e+06
6.10144e+06
6.10129e+06
6.10116e+06
6.10103e+06
6.10092e+06
6.10081e+06
6.10763e+06
6.10875e+06
6.10936e+06
6.10958e+06
6.10955e+06
6.11171e+06
6.10968e+06
6.10978e+06
6.10845e+06
6.10779e+06
6.10687e+06
6.10621e+06
6.10553e+06
6.10497e+06
6.10446e+06
6.10401e+06
6.10361e+06
6.10325e+06
6.10293e+06
6.10265e+06
6.10239e+06
6.10216e+06
6.10195e+06
6.10175e+06
6.10158e+06
6.10142e+06
6.10127e+06
6.10114e+06
6.10101e+06
6.1009e+06
6.1008e+06
6.11167e+06
6.11146e+06
6.11352e+06
6.11224e+06
6.1116e+06
6.11063e+06
6.10943e+06
6.10862e+06
6.10771e+06
6.10698e+06
6.10626e+06
6.10568e+06
6.10512e+06
6.10464e+06
6.10419e+06
6.1038e+06
6.10344e+06
6.10311e+06
6.10282e+06
6.10255e+06
6.10231e+06
6.10209e+06
6.10189e+06
6.10171e+06
6.10154e+06
6.10138e+06
6.10124e+06
6.10111e+06
6.10099e+06
6.10088e+06
6.10078e+06
6.10783e+06
6.10675e+06
6.10807e+06
6.10754e+06
6.10807e+06
6.10777e+06
6.10745e+06
6.10702e+06
6.10656e+06
6.10606e+06
6.10556e+06
6.10512e+06
6.10468e+06
6.10428e+06
6.1039e+06
6.10356e+06
6.10324e+06
6.10295e+06
6.10269e+06
6.10244e+06
6.10222e+06
6.10201e+06
6.10183e+06
6.10165e+06
6.10149e+06
6.10135e+06
6.10121e+06
6.10108e+06
6.10097e+06
6.10086e+06
6.10076e+06
6.10821e+06
6.10763e+06
6.10801e+06
6.1076e+06
6.10751e+06
6.1071e+06
6.10671e+06
6.10623e+06
6.10584e+06
6.10539e+06
6.10498e+06
6.10462e+06
6.10425e+06
6.10392e+06
6.1036e+06
6.10331e+06
6.10303e+06
6.10278e+06
6.10254e+06
6.10232e+06
6.10212e+06
6.10193e+06
6.10175e+06
6.10159e+06
6.10144e+06
6.1013e+06
6.10117e+06
6.10105e+06
6.10094e+06
6.10084e+06
6.10074e+06
6.10603e+06
6.10549e+06
6.10591e+06
6.10565e+06
6.10581e+06
6.1056e+06
6.10545e+06
6.10515e+06
6.10495e+06
6.10465e+06
6.10437e+06
6.1041e+06
6.10382e+06
6.10356e+06
6.1033e+06
6.10305e+06
6.10282e+06
6.1026e+06
6.10239e+06
6.10219e+06
6.10201e+06
6.10183e+06
6.10167e+06
6.10152e+06
6.10138e+06
6.10125e+06
6.10113e+06
6.10101e+06
6.10091e+06
6.10081e+06
6.10072e+06
6.10492e+06
6.10495e+06
6.10519e+06
6.10515e+06
6.10508e+06
6.10498e+06
6.10483e+06
6.10459e+06
6.1044e+06
6.10414e+06
6.1039e+06
6.10368e+06
6.10345e+06
6.10323e+06
6.10301e+06
6.1028e+06
6.1026e+06
6.10241e+06
6.10223e+06
6.10206e+06
6.10189e+06
6.10174e+06
6.10159e+06
6.10145e+06
6.10132e+06
6.1012e+06
6.10108e+06
6.10097e+06
6.10087e+06
6.10078e+06
6.10069e+06
6.10406e+06
6.10404e+06
6.10427e+06
6.10413e+06
6.10415e+06
6.10407e+06
6.10397e+06
6.10386e+06
6.10377e+06
6.10359e+06
6.10342e+06
6.10326e+06
6.10308e+06
6.10291e+06
6.10273e+06
6.10256e+06
6.10239e+06
6.10223e+06
6.10207e+06
6.10192e+06
6.10177e+06
6.10163e+06
6.1015e+06
6.10137e+06
6.10125e+06
6.10114e+06
6.10103e+06
6.10093e+06
6.10083e+06
6.10074e+06
6.10066e+06
6.10349e+06
6.10371e+06
6.10383e+06
6.10379e+06
6.10371e+06
6.10362e+06
6.10353e+06
6.10344e+06
6.10335e+06
6.10322e+06
6.10306e+06
6.10292e+06
6.10277e+06
6.10263e+06
6.10248e+06
6.10234e+06
6.10219e+06
6.10206e+06
6.10192e+06
6.10179e+06
6.10166e+06
6.10153e+06
6.10141e+06
6.1013e+06
6.10119e+06
6.10108e+06
6.10098e+06
6.10088e+06
6.10079e+06
6.10071e+06
6.10063e+06
6.10276e+06
6.10305e+06
6.10313e+06
6.10316e+06
6.10312e+06
6.10305e+06
6.10295e+06
6.10291e+06
6.10289e+06
6.10282e+06
6.1027e+06
6.10259e+06
6.10248e+06
6.10236e+06
6.10224e+06
6.10212e+06
6.102e+06
6.10189e+06
6.10177e+06
6.10165e+06
6.10154e+06
6.10143e+06
6.10132e+06
6.10122e+06
6.10112e+06
6.10102e+06
6.10093e+06
6.10084e+06
6.10075e+06
6.10067e+06
6.1006e+06
6.10248e+06
6.10276e+06
6.10284e+06
6.10286e+06
6.10282e+06
6.10275e+06
6.10266e+06
6.10261e+06
6.10258e+06
6.10252e+06
6.10241e+06
6.10232e+06
6.10222e+06
6.10213e+06
6.10203e+06
6.10193e+06
6.10183e+06
6.10173e+06
6.10163e+06
6.10153e+06
6.10143e+06
6.10133e+06
6.10123e+06
6.10114e+06
6.10105e+06
6.10096e+06
6.10087e+06
6.10079e+06
6.10071e+06
6.10063e+06
6.10056e+06
6.10244e+06
6.10243e+06
6.1024e+06
6.10243e+06
6.1024e+06
6.10237e+06
6.10229e+06
6.10227e+06
6.10226e+06
6.10222e+06
6.10214e+06
6.10207e+06
6.10199e+06
6.10191e+06
6.10183e+06
6.10175e+06
6.10166e+06
6.10158e+06
6.10149e+06
6.1014e+06
6.10132e+06
6.10123e+06
6.10114e+06
6.10106e+06
6.10097e+06
6.10089e+06
6.10081e+06
6.10074e+06
6.10067e+06
6.10059e+06
6.10053e+06
6.10219e+06
6.1022e+06
6.1023e+06
6.10226e+06
6.10216e+06
6.1021e+06
6.10204e+06
6.10202e+06
6.10202e+06
6.10199e+06
6.10191e+06
6.10185e+06
6.10178e+06
6.10172e+06
6.10165e+06
6.10158e+06
6.10151e+06
6.10144e+06
6.10136e+06
6.10129e+06
6.10121e+06
6.10113e+06
6.10106e+06
6.10098e+06
6.1009e+06
6.10083e+06
6.10076e+06
6.10069e+06
6.10062e+06
6.10055e+06
6.10049e+06
6.10187e+06
6.10194e+06
6.102e+06
6.10198e+06
6.10186e+06
6.10182e+06
6.10177e+06
6.10177e+06
6.10178e+06
6.10176e+06
6.1017e+06
6.10165e+06
6.10159e+06
6.10154e+06
6.10148e+06
6.10143e+06
6.10137e+06
6.1013e+06
6.10124e+06
6.10117e+06
6.10111e+06
6.10104e+06
6.10097e+06
6.1009e+06
6.10084e+06
6.10077e+06
6.1007e+06
6.10064e+06
6.10057e+06
6.10051e+06
6.10045e+06
6.10168e+06
6.10173e+06
6.10181e+06
6.10176e+06
6.10166e+06
6.10161e+06
6.10157e+06
6.10156e+06
6.10158e+06
6.10157e+06
6.10151e+06
6.10147e+06
6.10143e+06
6.10138e+06
6.10133e+06
6.10128e+06
6.10123e+06
6.10118e+06
6.10112e+06
6.10107e+06
6.10101e+06
6.10095e+06
6.10089e+06
6.10083e+06
6.10077e+06
6.10071e+06
6.10065e+06
6.10059e+06
6.10053e+06
6.10047e+06
6.10042e+06
6.10141e+06
6.10149e+06
6.10154e+06
6.10154e+06
6.10153e+06
6.10148e+06
6.10138e+06
6.10137e+06
6.1014e+06
6.10139e+06
6.10135e+06
6.10131e+06
6.10127e+06
6.10124e+06
6.1012e+06
6.10115e+06
6.10111e+06
6.10106e+06
6.10102e+06
6.10097e+06
6.10092e+06
6.10086e+06
6.10081e+06
6.10076e+06
6.1007e+06
6.10065e+06
6.10059e+06
6.10054e+06
6.10048e+06
6.10043e+06
6.10038e+06
6.10124e+06
6.10133e+06
6.10135e+06
6.10136e+06
6.10135e+06
6.10132e+06
6.10128e+06
6.10127e+06
6.10125e+06
6.10124e+06
6.1012e+06
6.10117e+06
6.10114e+06
6.1011e+06
6.10107e+06
6.10103e+06
6.101e+06
6.10096e+06
6.10092e+06
6.10087e+06
6.10083e+06
6.10078e+06
6.10073e+06
6.10069e+06
6.10064e+06
6.10059e+06
6.10054e+06
6.10049e+06
6.10044e+06
6.10039e+06
6.10034e+06
6.10105e+06
6.10118e+06
6.10119e+06
6.10121e+06
6.10118e+06
6.10116e+06
6.10113e+06
6.10112e+06
6.10111e+06
6.1011e+06
6.10107e+06
6.10104e+06
6.10101e+06
6.10098e+06
6.10096e+06
6.10092e+06
6.10089e+06
6.10086e+06
6.10082e+06
6.10078e+06
6.10074e+06
6.1007e+06
6.10066e+06
6.10062e+06
6.10057e+06
6.10053e+06
6.10048e+06
6.10044e+06
6.10039e+06
6.10035e+06
6.1003e+06
6.10097e+06
6.10105e+06
6.10104e+06
6.10105e+06
6.10104e+06
6.10102e+06
6.101e+06
6.10099e+06
6.10098e+06
6.10097e+06
6.10095e+06
6.10092e+06
6.1009e+06
6.10087e+06
6.10085e+06
6.10082e+06
6.10079e+06
6.10076e+06
6.10073e+06
6.1007e+06
6.10067e+06
6.10063e+06
6.10059e+06
6.10055e+06
6.10051e+06
6.10047e+06
6.10043e+06
6.10039e+06
6.10035e+06
6.10031e+06
6.10027e+06
6.10136e+06
6.10107e+06
6.10094e+06
6.10092e+06
6.10091e+06
6.10089e+06
6.10088e+06
6.10087e+06
6.10086e+06
6.10085e+06
6.10083e+06
6.10081e+06
6.10079e+06
6.10077e+06
6.10075e+06
6.10073e+06
6.1007e+06
6.10068e+06
6.10065e+06
6.10062e+06
6.10059e+06
6.10056e+06
6.10052e+06
6.10049e+06
6.10045e+06
6.10042e+06
6.10038e+06
6.10034e+06
6.1003e+06
6.10027e+06
6.10023e+06
6.101e+06
6.10094e+06
6.10098e+06
6.10092e+06
6.10082e+06
6.10077e+06
6.10077e+06
6.10076e+06
6.10076e+06
6.10075e+06
6.10073e+06
6.10071e+06
6.1007e+06
6.10068e+06
6.10066e+06
6.10064e+06
6.10062e+06
6.10059e+06
6.10057e+06
6.10054e+06
6.10052e+06
6.10049e+06
6.10046e+06
6.10043e+06
6.1004e+06
6.10036e+06
6.10033e+06
6.10029e+06
6.10026e+06
6.10023e+06
6.10019e+06
6.10087e+06
6.10085e+06
6.10087e+06
6.10081e+06
6.10068e+06
6.10065e+06
6.10066e+06
6.10066e+06
6.10066e+06
6.10065e+06
6.10064e+06
6.10062e+06
6.10061e+06
6.10059e+06
6.10057e+06
6.10056e+06
6.10054e+06
6.10052e+06
6.1005e+06
6.10047e+06
6.10045e+06
6.10042e+06
6.1004e+06
6.10037e+06
6.10034e+06
6.10031e+06
6.10028e+06
6.10025e+06
6.10022e+06
6.10019e+06
6.10015e+06
6.10083e+06
6.10076e+06
6.10077e+06
6.10068e+06
6.1006e+06
6.10055e+06
6.10056e+06
6.10055e+06
6.10057e+06
6.10056e+06
6.10055e+06
6.10053e+06
6.10052e+06
6.10051e+06
6.10049e+06
6.10048e+06
6.10046e+06
6.10044e+06
6.10042e+06
6.1004e+06
6.10038e+06
6.10036e+06
6.10034e+06
6.10031e+06
6.10029e+06
6.10026e+06
6.10023e+06
6.1002e+06
6.10017e+06
6.10015e+06
6.10012e+06
6.10068e+06
6.10062e+06
6.10059e+06
6.10059e+06
6.1006e+06
6.10056e+06
6.10048e+06
6.10046e+06
6.10048e+06
6.10047e+06
6.10047e+06
6.10045e+06
6.10044e+06
6.10043e+06
6.10042e+06
6.1004e+06
6.10039e+06
6.10037e+06
6.10036e+06
6.10034e+06
6.10032e+06
6.1003e+06
6.10028e+06
6.10026e+06
6.10023e+06
6.10021e+06
6.10018e+06
6.10016e+06
6.10013e+06
6.10011e+06
6.10008e+06
6.1006e+06
6.10052e+06
6.1005e+06
6.10048e+06
6.1005e+06
6.10048e+06
6.10049e+06
6.10045e+06
6.10041e+06
6.10039e+06
6.10039e+06
6.10038e+06
6.10037e+06
6.10036e+06
6.10035e+06
6.10033e+06
6.10032e+06
6.10031e+06
6.10029e+06
6.10028e+06
6.10026e+06
6.10024e+06
6.10022e+06
6.1002e+06
6.10018e+06
6.10016e+06
6.10014e+06
6.10011e+06
6.10009e+06
6.10007e+06
6.10004e+06
6.10049e+06
6.10044e+06
6.1004e+06
6.1004e+06
6.10039e+06
6.10039e+06
6.10041e+06
6.10039e+06
6.10034e+06
6.10031e+06
6.10032e+06
6.10031e+06
6.1003e+06
6.10029e+06
6.10028e+06
6.10027e+06
6.10026e+06
6.10024e+06
6.10023e+06
6.10022e+06
6.1002e+06
6.10019e+06
6.10017e+06
6.10015e+06
6.10013e+06
6.10011e+06
6.10009e+06
6.10007e+06
6.10005e+06
6.10003e+06
6.10001e+06
6.10043e+06
6.10035e+06
6.10032e+06
6.10031e+06
6.10031e+06
6.10031e+06
6.10033e+06
6.1003e+06
6.10026e+06
6.10024e+06
6.10025e+06
6.10024e+06
6.10023e+06
6.10022e+06
6.10021e+06
6.1002e+06
6.10019e+06
6.10018e+06
6.10017e+06
6.10016e+06
6.10015e+06
6.10013e+06
6.10012e+06
6.1001e+06
6.10008e+06
6.10007e+06
6.10005e+06
6.10003e+06
6.10001e+06
6.09999e+06
6.09997e+06
6.10025e+06
6.10024e+06
6.10021e+06
6.10025e+06
6.10023e+06
6.10024e+06
6.10025e+06
6.10023e+06
6.10019e+06
6.10017e+06
6.10018e+06
6.10017e+06
6.10017e+06
6.10016e+06
6.10015e+06
6.10014e+06
6.10014e+06
6.10013e+06
6.10011e+06
6.1001e+06
6.10009e+06
6.10008e+06
6.10007e+06
6.10005e+06
6.10004e+06
6.10002e+06
6.1e+06
6.09999e+06
6.09997e+06
6.09995e+06
6.09994e+06
6.10014e+06
6.10016e+06
6.10007e+06
6.10013e+06
6.10015e+06
6.10018e+06
6.10019e+06
6.10017e+06
6.10013e+06
6.10011e+06
6.10012e+06
6.10011e+06
6.10011e+06
6.1001e+06
6.10009e+06
6.10009e+06
6.10008e+06
6.10007e+06
6.10006e+06
6.10005e+06
6.10004e+06
6.10003e+06
6.10002e+06
6.1e+06
6.09999e+06
6.09998e+06
6.09996e+06
6.09995e+06
6.09993e+06
6.09992e+06
6.0999e+06
6.10004e+06
6.10009e+06
6.09998e+06
6.10006e+06
6.10008e+06
6.10012e+06
6.10012e+06
6.10011e+06
6.10006e+06
6.10005e+06
6.10006e+06
6.10005e+06
6.10005e+06
6.10004e+06
6.10004e+06
6.10003e+06
6.10002e+06
6.10001e+06
6.10001e+06
6.1e+06
6.09999e+06
6.09998e+06
6.09997e+06
6.09996e+06
6.09994e+06
6.09993e+06
6.09992e+06
6.09991e+06
6.09989e+06
6.09988e+06
6.09987e+06
6.09997e+06
6.1e+06
6.09992e+06
6.09998e+06
6.10001e+06
6.10004e+06
6.10006e+06
6.10005e+06
6.1e+06
6.09999e+06
6.1e+06
6.09999e+06
6.09999e+06
6.09998e+06
6.09998e+06
6.09997e+06
6.09997e+06
6.09996e+06
6.09995e+06
6.09995e+06
6.09994e+06
6.09993e+06
6.09992e+06
6.09991e+06
6.0999e+06
6.09989e+06
6.09988e+06
6.09987e+06
6.09986e+06
6.09985e+06
6.09983e+06
6.09997e+06
6.09994e+06
6.09989e+06
6.09992e+06
6.0999e+06
6.09994e+06
6.09998e+06
6.09998e+06
6.09994e+06
6.09993e+06
6.09994e+06
6.09994e+06
6.09993e+06
6.09993e+06
6.09993e+06
6.09992e+06
6.09991e+06
6.09991e+06
6.0999e+06
6.0999e+06
6.09989e+06
6.09988e+06
6.09987e+06
6.09987e+06
6.09986e+06
6.09985e+06
6.09984e+06
6.09983e+06
6.09982e+06
6.09981e+06
6.0998e+06
6.09992e+06
6.09985e+06
6.09985e+06
6.09984e+06
6.09985e+06
6.09985e+06
6.09988e+06
6.09989e+06
6.09987e+06
6.09987e+06
6.09988e+06
6.09988e+06
6.09988e+06
6.09987e+06
6.09987e+06
6.09987e+06
6.09986e+06
6.09986e+06
6.09985e+06
6.09985e+06
6.09984e+06
6.09983e+06
6.09983e+06
6.09982e+06
6.09981e+06
6.09981e+06
6.0998e+06
6.09979e+06
6.09978e+06
6.09977e+06
6.09977e+06
6.09985e+06
6.09979e+06
6.09979e+06
6.09978e+06
6.09979e+06
6.09979e+06
6.09981e+06
6.09982e+06
6.09981e+06
6.09982e+06
6.09983e+06
6.09983e+06
6.09983e+06
6.09982e+06
6.09982e+06
6.09982e+06
6.09981e+06
6.09981e+06
6.0998e+06
6.0998e+06
6.09979e+06
6.09979e+06
6.09978e+06
6.09978e+06
6.09977e+06
6.09976e+06
6.09976e+06
6.09975e+06
6.09975e+06
6.09974e+06
6.09973e+06
6.09978e+06
6.09973e+06
6.09972e+06
6.09971e+06
6.09972e+06
6.09972e+06
6.09974e+06
6.09976e+06
6.09975e+06
6.09976e+06
6.09977e+06
6.09977e+06
6.09977e+06
6.09977e+06
6.09976e+06
6.09976e+06
6.09976e+06
6.09976e+06
6.09975e+06
6.09975e+06
6.09975e+06
6.09974e+06
6.09974e+06
6.09973e+06
6.09973e+06
6.09972e+06
6.09972e+06
6.09971e+06
6.09971e+06
6.0997e+06
6.0997e+06
6.09987e+06
6.09973e+06
6.0997e+06
6.09967e+06
6.09969e+06
6.09969e+06
6.09971e+06
6.09972e+06
6.09971e+06
6.09972e+06
6.09973e+06
6.09973e+06
6.09972e+06
6.09972e+06
6.09972e+06
6.09972e+06
6.09971e+06
6.09971e+06
6.09971e+06
6.0997e+06
6.0997e+06
6.0997e+06
6.09969e+06
6.09969e+06
6.09969e+06
6.09968e+06
6.09968e+06
6.09968e+06
6.09967e+06
6.09967e+06
6.09967e+06
6.09975e+06
6.09967e+06
6.09964e+06
6.09963e+06
6.09963e+06
6.09963e+06
6.09964e+06
6.09965e+06
6.09963e+06
6.09965e+06
6.09965e+06
6.09965e+06
6.09966e+06
6.09966e+06
6.09966e+06
6.09966e+06
6.09966e+06
6.09966e+06
6.09965e+06
6.09965e+06
6.09965e+06
6.09965e+06
6.09965e+06
6.09965e+06
6.09964e+06
6.09964e+06
6.09964e+06
6.09964e+06
6.09964e+06
6.09963e+06
6.09963e+06
6.09961e+06
6.09961e+06
6.09966e+06
6.09965e+06
6.09966e+06
6.09965e+06
6.09966e+06
6.09966e+06
6.09964e+06
6.09964e+06
6.09964e+06
6.09963e+06
6.09963e+06
6.09963e+06
6.09962e+06
6.09962e+06
6.09962e+06
6.09962e+06
6.09962e+06
6.09961e+06
6.09961e+06
6.09961e+06
6.09961e+06
6.09961e+06
6.09961e+06
6.0996e+06
6.0996e+06
6.0996e+06
6.0996e+06
6.0996e+06
6.0996e+06
4.01043e+06
4.00795e+06
4.00351e+06
4.0069e+06
4.00417e+06
4.00487e+06
4.00235e+06
3.99935e+06
4.00119e+06
4.00529e+06
4.00613e+06
4.00071e+06
4.00745e+06
4.00244e+06
4.00597e+06
4.04294e+06
4.15749e+06
4.28194e+06
4.01224e+06
4.03344e+06
6.90083e+06
6.05647e+06
5.85995e+06
6.03686e+06
6.12448e+06
6.69627e+06
6.36591e+06
6.13429e+06
6.19428e+06
6.21702e+06
8.1966e+06
6.91384e+06
6.34094e+06
6.27326e+06
6.32298e+06
9.06649e+06
7.64562e+06
6.91582e+06
6.78689e+06
6.80853e+06
6.93727e+06
6.61665e+06
6.64879e+06
6.70544e+06
6.70231e+06
6.39192e+06
6.58738e+06
6.68848e+06
6.72942e+06
6.71709e+06
6.15118e+06
6.55616e+06
6.65426e+06
6.64933e+06
6.65178e+06
6.72792e+06
6.58636e+06
6.55854e+06
6.51305e+06
6.50903e+06
6.45457e+06
6.41227e+06
6.40964e+06
6.37614e+06
6.37066e+06
6.27063e+06
6.32706e+06
6.27694e+06
6.26402e+06
6.25952e+06
6.02563e+06
6.06723e+06
6.05857e+06
6.03861e+06
6.03388e+06
6.20948e+06
6.09503e+06
6.09808e+06
6.06304e+06
6.05157e+06
5.82815e+06
5.77883e+06
5.73256e+06
5.66428e+06
5.44198e+06
6.14176e+06
6.16781e+06
6.14159e+06
6.11749e+06
6.01708e+06
6.09196e+06
6.09773e+06
6.10938e+06
6.10801e+06
6.10878e+06
6.10765e+06
6.10701e+06
6.10617e+06
6.10551e+06
6.10489e+06
6.10436e+06
6.1039e+06
6.10349e+06
6.10313e+06
6.10281e+06
6.10252e+06
6.10227e+06
6.10204e+06
6.10183e+06
6.10165e+06
6.10148e+06
6.10132e+06
6.10118e+06
6.10105e+06
6.10093e+06
6.10083e+06
6.08008e+06
6.08568e+06
6.0814e+06
6.08666e+06
6.08561e+06
6.12144e+06
6.1083e+06
6.11328e+06
6.10961e+06
6.10931e+06
6.10782e+06
6.10702e+06
6.10613e+06
6.10545e+06
6.10483e+06
6.10431e+06
6.10385e+06
6.10345e+06
6.10309e+06
6.10278e+06
6.1025e+06
6.10225e+06
6.10202e+06
6.10182e+06
6.10163e+06
6.10146e+06
6.10131e+06
6.10117e+06
6.10104e+06
6.10093e+06
6.10082e+06
6.12907e+06
6.12889e+06
6.12684e+06
6.12209e+06
6.11436e+06
6.11575e+06
6.11112e+06
6.11121e+06
6.10923e+06
6.10849e+06
6.10737e+06
6.10662e+06
6.10585e+06
6.10523e+06
6.10467e+06
6.10418e+06
6.10374e+06
6.10336e+06
6.10302e+06
6.10272e+06
6.10245e+06
6.10221e+06
6.10199e+06
6.10179e+06
6.10161e+06
6.10144e+06
6.10129e+06
6.10116e+06
6.10103e+06
6.10092e+06
6.10081e+06
6.10763e+06
6.10875e+06
6.10936e+06
6.10958e+06
6.10955e+06
6.11171e+06
6.10968e+06
6.10978e+06
6.10845e+06
6.10779e+06
6.10687e+06
6.10621e+06
6.10553e+06
6.10497e+06
6.10446e+06
6.10401e+06
6.10361e+06
6.10325e+06
6.10293e+06
6.10265e+06
6.10239e+06
6.10216e+06
6.10195e+06
6.10175e+06
6.10158e+06
6.10142e+06
6.10127e+06
6.10114e+06
6.10101e+06
6.1009e+06
6.1008e+06
6.11167e+06
6.11146e+06
6.11352e+06
6.11224e+06
6.1116e+06
6.11063e+06
6.10943e+06
6.10862e+06
6.10771e+06
6.10698e+06
6.10626e+06
6.10568e+06
6.10512e+06
6.10464e+06
6.10419e+06
6.1038e+06
6.10344e+06
6.10311e+06
6.10282e+06
6.10255e+06
6.10231e+06
6.10209e+06
6.10189e+06
6.10171e+06
6.10154e+06
6.10138e+06
6.10124e+06
6.10111e+06
6.10099e+06
6.10088e+06
6.10078e+06
6.10783e+06
6.10675e+06
6.10807e+06
6.10754e+06
6.10807e+06
6.10777e+06
6.10745e+06
6.10702e+06
6.10656e+06
6.10606e+06
6.10556e+06
6.10512e+06
6.10468e+06
6.10428e+06
6.1039e+06
6.10356e+06
6.10324e+06
6.10295e+06
6.10269e+06
6.10244e+06
6.10222e+06
6.10201e+06
6.10183e+06
6.10165e+06
6.10149e+06
6.10135e+06
6.10121e+06
6.10108e+06
6.10097e+06
6.10086e+06
6.10076e+06
6.10821e+06
6.10763e+06
6.10801e+06
6.1076e+06
6.10751e+06
6.1071e+06
6.10671e+06
6.10623e+06
6.10584e+06
6.10539e+06
6.10498e+06
6.10462e+06
6.10425e+06
6.10392e+06
6.1036e+06
6.10331e+06
6.10303e+06
6.10278e+06
6.10254e+06
6.10232e+06
6.10212e+06
6.10193e+06
6.10175e+06
6.10159e+06
6.10144e+06
6.1013e+06
6.10117e+06
6.10105e+06
6.10094e+06
6.10084e+06
6.10074e+06
6.10603e+06
6.10549e+06
6.10591e+06
6.10565e+06
6.10581e+06
6.1056e+06
6.10545e+06
6.10515e+06
6.10495e+06
6.10465e+06
6.10437e+06
6.1041e+06
6.10382e+06
6.10356e+06
6.1033e+06
6.10305e+06
6.10282e+06
6.1026e+06
6.10239e+06
6.10219e+06
6.10201e+06
6.10183e+06
6.10167e+06
6.10152e+06
6.10138e+06
6.10125e+06
6.10113e+06
6.10101e+06
6.10091e+06
6.10081e+06
6.10072e+06
6.10492e+06
6.10495e+06
6.10519e+06
6.10515e+06
6.10508e+06
6.10498e+06
6.10483e+06
6.10459e+06
6.1044e+06
6.10414e+06
6.1039e+06
6.10368e+06
6.10345e+06
6.10323e+06
6.10301e+06
6.1028e+06
6.1026e+06
6.10241e+06
6.10223e+06
6.10206e+06
6.10189e+06
6.10174e+06
6.10159e+06
6.10145e+06
6.10132e+06
6.1012e+06
6.10108e+06
6.10097e+06
6.10087e+06
6.10078e+06
6.10069e+06
6.10406e+06
6.10404e+06
6.10427e+06
6.10413e+06
6.10415e+06
6.10407e+06
6.10397e+06
6.10386e+06
6.10377e+06
6.10359e+06
6.10342e+06
6.10326e+06
6.10308e+06
6.10291e+06
6.10273e+06
6.10256e+06
6.10239e+06
6.10223e+06
6.10207e+06
6.10192e+06
6.10177e+06
6.10163e+06
6.1015e+06
6.10137e+06
6.10125e+06
6.10114e+06
6.10103e+06
6.10093e+06
6.10083e+06
6.10074e+06
6.10066e+06
6.10349e+06
6.10371e+06
6.10383e+06
6.10379e+06
6.10371e+06
6.10362e+06
6.10353e+06
6.10344e+06
6.10335e+06
6.10322e+06
6.10306e+06
6.10292e+06
6.10277e+06
6.10263e+06
6.10248e+06
6.10234e+06
6.10219e+06
6.10206e+06
6.10192e+06
6.10179e+06
6.10166e+06
6.10153e+06
6.10141e+06
6.1013e+06
6.10119e+06
6.10108e+06
6.10098e+06
6.10088e+06
6.10079e+06
6.10071e+06
6.10063e+06
6.10276e+06
6.10305e+06
6.10313e+06
6.10316e+06
6.10312e+06
6.10305e+06
6.10295e+06
6.10291e+06
6.10289e+06
6.10282e+06
6.1027e+06
6.10259e+06
6.10248e+06
6.10236e+06
6.10224e+06
6.10212e+06
6.102e+06
6.10189e+06
6.10177e+06
6.10165e+06
6.10154e+06
6.10143e+06
6.10132e+06
6.10122e+06
6.10112e+06
6.10102e+06
6.10093e+06
6.10084e+06
6.10075e+06
6.10067e+06
6.1006e+06
6.10248e+06
6.10276e+06
6.10284e+06
6.10286e+06
6.10282e+06
6.10275e+06
6.10266e+06
6.10261e+06
6.10258e+06
6.10252e+06
6.10241e+06
6.10232e+06
6.10222e+06
6.10213e+06
6.10203e+06
6.10193e+06
6.10183e+06
6.10173e+06
6.10163e+06
6.10153e+06
6.10143e+06
6.10133e+06
6.10123e+06
6.10114e+06
6.10105e+06
6.10096e+06
6.10087e+06
6.10079e+06
6.10071e+06
6.10063e+06
6.10056e+06
6.10244e+06
6.10243e+06
6.1024e+06
6.10243e+06
6.1024e+06
6.10237e+06
6.10229e+06
6.10227e+06
6.10226e+06
6.10222e+06
6.10214e+06
6.10207e+06
6.10199e+06
6.10191e+06
6.10183e+06
6.10175e+06
6.10166e+06
6.10158e+06
6.10149e+06
6.1014e+06
6.10132e+06
6.10123e+06
6.10114e+06
6.10106e+06
6.10097e+06
6.10089e+06
6.10081e+06
6.10074e+06
6.10067e+06
6.10059e+06
6.10053e+06
6.10219e+06
6.1022e+06
6.1023e+06
6.10226e+06
6.10216e+06
6.1021e+06
6.10204e+06
6.10202e+06
6.10202e+06
6.10199e+06
6.10191e+06
6.10185e+06
6.10178e+06
6.10172e+06
6.10165e+06
6.10158e+06
6.10151e+06
6.10144e+06
6.10136e+06
6.10129e+06
6.10121e+06
6.10113e+06
6.10106e+06
6.10098e+06
6.1009e+06
6.10083e+06
6.10076e+06
6.10069e+06
6.10062e+06
6.10055e+06
6.10049e+06
6.10187e+06
6.10194e+06
6.102e+06
6.10198e+06
6.10186e+06
6.10182e+06
6.10177e+06
6.10177e+06
6.10178e+06
6.10176e+06
6.1017e+06
6.10165e+06
6.10159e+06
6.10154e+06
6.10148e+06
6.10143e+06
6.10137e+06
6.1013e+06
6.10124e+06
6.10117e+06
6.10111e+06
6.10104e+06
6.10097e+06
6.1009e+06
6.10084e+06
6.10077e+06
6.1007e+06
6.10064e+06
6.10057e+06
6.10051e+06
6.10045e+06
6.10168e+06
6.10173e+06
6.10181e+06
6.10176e+06
6.10166e+06
6.10161e+06
6.10157e+06
6.10156e+06
6.10158e+06
6.10157e+06
6.10151e+06
6.10147e+06
6.10143e+06
6.10138e+06
6.10133e+06
6.10128e+06
6.10123e+06
6.10118e+06
6.10112e+06
6.10107e+06
6.10101e+06
6.10095e+06
6.10089e+06
6.10083e+06
6.10077e+06
6.10071e+06
6.10065e+06
6.10059e+06
6.10053e+06
6.10047e+06
6.10042e+06
6.10141e+06
6.10149e+06
6.10154e+06
6.10154e+06
6.10153e+06
6.10148e+06
6.10138e+06
6.10137e+06
6.1014e+06
6.10139e+06
6.10135e+06
6.10131e+06
6.10127e+06
6.10124e+06
6.1012e+06
6.10115e+06
6.10111e+06
6.10106e+06
6.10102e+06
6.10097e+06
6.10092e+06
6.10086e+06
6.10081e+06
6.10076e+06
6.1007e+06
6.10065e+06
6.10059e+06
6.10054e+06
6.10048e+06
6.10043e+06
6.10038e+06
6.10124e+06
6.10133e+06
6.10135e+06
6.10136e+06
6.10135e+06
6.10132e+06
6.10128e+06
6.10127e+06
6.10125e+06
6.10124e+06
6.1012e+06
6.10117e+06
6.10114e+06
6.1011e+06
6.10107e+06
6.10103e+06
6.101e+06
6.10096e+06
6.10092e+06
6.10087e+06
6.10083e+06
6.10078e+06
6.10073e+06
6.10069e+06
6.10064e+06
6.10059e+06
6.10054e+06
6.10049e+06
6.10044e+06
6.10039e+06
6.10034e+06
6.10105e+06
6.10118e+06
6.10119e+06
6.10121e+06
6.10118e+06
6.10116e+06
6.10113e+06
6.10112e+06
6.10111e+06
6.1011e+06
6.10107e+06
6.10104e+06
6.10101e+06
6.10098e+06
6.10096e+06
6.10092e+06
6.10089e+06
6.10086e+06
6.10082e+06
6.10078e+06
6.10074e+06
6.1007e+06
6.10066e+06
6.10062e+06
6.10057e+06
6.10053e+06
6.10048e+06
6.10044e+06
6.10039e+06
6.10035e+06
6.1003e+06
6.10097e+06
6.10105e+06
6.10104e+06
6.10105e+06
6.10104e+06
6.10102e+06
6.101e+06
6.10099e+06
6.10098e+06
6.10097e+06
6.10095e+06
6.10092e+06
6.1009e+06
6.10087e+06
6.10085e+06
6.10082e+06
6.10079e+06
6.10076e+06
6.10073e+06
6.1007e+06
6.10067e+06
6.10063e+06
6.10059e+06
6.10055e+06
6.10051e+06
6.10047e+06
6.10043e+06
6.10039e+06
6.10035e+06
6.10031e+06
6.10027e+06
6.10136e+06
6.10107e+06
6.10094e+06
6.10092e+06
6.10091e+06
6.10089e+06
6.10088e+06
6.10087e+06
6.10086e+06
6.10085e+06
6.10083e+06
6.10081e+06
6.10079e+06
6.10077e+06
6.10075e+06
6.10073e+06
6.1007e+06
6.10068e+06
6.10065e+06
6.10062e+06
6.10059e+06
6.10056e+06
6.10052e+06
6.10049e+06
6.10045e+06
6.10042e+06
6.10038e+06
6.10034e+06
6.1003e+06
6.10027e+06
6.10023e+06
6.101e+06
6.10094e+06
6.10098e+06
6.10092e+06
6.10082e+06
6.10077e+06
6.10077e+06
6.10076e+06
6.10076e+06
6.10075e+06
6.10073e+06
6.10071e+06
6.1007e+06
6.10068e+06
6.10066e+06
6.10064e+06
6.10062e+06
6.10059e+06
6.10057e+06
6.10054e+06
6.10052e+06
6.10049e+06
6.10046e+06
6.10043e+06
6.1004e+06
6.10036e+06
6.10033e+06
6.10029e+06
6.10026e+06
6.10023e+06
6.10019e+06
6.10087e+06
6.10085e+06
6.10087e+06
6.10081e+06
6.10068e+06
6.10065e+06
6.10066e+06
6.10066e+06
6.10066e+06
6.10065e+06
6.10064e+06
6.10062e+06
6.10061e+06
6.10059e+06
6.10057e+06
6.10056e+06
6.10054e+06
6.10052e+06
6.1005e+06
6.10047e+06
6.10045e+06
6.10042e+06
6.1004e+06
6.10037e+06
6.10034e+06
6.10031e+06
6.10028e+06
6.10025e+06
6.10022e+06
6.10019e+06
6.10015e+06
6.10083e+06
6.10076e+06
6.10077e+06
6.10068e+06
6.1006e+06
6.10055e+06
6.10056e+06
6.10055e+06
6.10057e+06
6.10056e+06
6.10055e+06
6.10053e+06
6.10052e+06
6.10051e+06
6.10049e+06
6.10048e+06
6.10046e+06
6.10044e+06
6.10042e+06
6.1004e+06
6.10038e+06
6.10036e+06
6.10034e+06
6.10031e+06
6.10029e+06
6.10026e+06
6.10023e+06
6.1002e+06
6.10017e+06
6.10015e+06
6.10012e+06
6.10068e+06
6.10062e+06
6.10059e+06
6.10059e+06
6.1006e+06
6.10056e+06
6.10048e+06
6.10046e+06
6.10048e+06
6.10047e+06
6.10047e+06
6.10045e+06
6.10044e+06
6.10043e+06
6.10042e+06
6.1004e+06
6.10039e+06
6.10037e+06
6.10036e+06
6.10034e+06
6.10032e+06
6.1003e+06
6.10028e+06
6.10026e+06
6.10023e+06
6.10021e+06
6.10018e+06
6.10016e+06
6.10013e+06
6.10011e+06
6.10008e+06
6.1006e+06
6.10052e+06
6.1005e+06
6.10048e+06
6.1005e+06
6.10048e+06
6.10049e+06
6.10045e+06
6.10041e+06
6.10039e+06
6.10039e+06
6.10038e+06
6.10037e+06
6.10036e+06
6.10035e+06
6.10033e+06
6.10032e+06
6.10031e+06
6.10029e+06
6.10028e+06
6.10026e+06
6.10024e+06
6.10022e+06
6.1002e+06
6.10018e+06
6.10016e+06
6.10014e+06
6.10011e+06
6.10009e+06
6.10007e+06
6.10004e+06
6.10049e+06
6.10044e+06
6.1004e+06
6.1004e+06
6.10039e+06
6.10039e+06
6.10041e+06
6.10039e+06
6.10034e+06
6.10031e+06
6.10032e+06
6.10031e+06
6.1003e+06
6.10029e+06
6.10028e+06
6.10027e+06
6.10026e+06
6.10024e+06
6.10023e+06
6.10022e+06
6.1002e+06
6.10019e+06
6.10017e+06
6.10015e+06
6.10013e+06
6.10011e+06
6.10009e+06
6.10007e+06
6.10005e+06
6.10003e+06
6.10001e+06
6.10043e+06
6.10035e+06
6.10032e+06
6.10031e+06
6.10031e+06
6.10031e+06
6.10033e+06
6.1003e+06
6.10026e+06
6.10024e+06
6.10025e+06
6.10024e+06
6.10023e+06
6.10022e+06
6.10021e+06
6.1002e+06
6.10019e+06
6.10018e+06
6.10017e+06
6.10016e+06
6.10015e+06
6.10013e+06
6.10012e+06
6.1001e+06
6.10008e+06
6.10007e+06
6.10005e+06
6.10003e+06
6.10001e+06
6.09999e+06
6.09997e+06
6.10025e+06
6.10024e+06
6.10021e+06
6.10025e+06
6.10023e+06
6.10024e+06
6.10025e+06
6.10023e+06
6.10019e+06
6.10017e+06
6.10018e+06
6.10017e+06
6.10017e+06
6.10016e+06
6.10015e+06
6.10014e+06
6.10014e+06
6.10013e+06
6.10011e+06
6.1001e+06
6.10009e+06
6.10008e+06
6.10007e+06
6.10005e+06
6.10004e+06
6.10002e+06
6.1e+06
6.09999e+06
6.09997e+06
6.09995e+06
6.09994e+06
6.10014e+06
6.10016e+06
6.10007e+06
6.10013e+06
6.10015e+06
6.10018e+06
6.10019e+06
6.10017e+06
6.10013e+06
6.10011e+06
6.10012e+06
6.10011e+06
6.10011e+06
6.1001e+06
6.10009e+06
6.10009e+06
6.10008e+06
6.10007e+06
6.10006e+06
6.10005e+06
6.10004e+06
6.10003e+06
6.10002e+06
6.1e+06
6.09999e+06
6.09998e+06
6.09996e+06
6.09995e+06
6.09993e+06
6.09992e+06
6.0999e+06
6.10004e+06
6.10009e+06
6.09998e+06
6.10006e+06
6.10008e+06
6.10012e+06
6.10012e+06
6.10011e+06
6.10006e+06
6.10005e+06
6.10006e+06
6.10005e+06
6.10005e+06
6.10004e+06
6.10004e+06
6.10003e+06
6.10002e+06
6.10001e+06
6.10001e+06
6.1e+06
6.09999e+06
6.09998e+06
6.09997e+06
6.09996e+06
6.09994e+06
6.09993e+06
6.09992e+06
6.09991e+06
6.09989e+06
6.09988e+06
6.09987e+06
6.09997e+06
6.1e+06
6.09992e+06
6.09998e+06
6.10001e+06
6.10004e+06
6.10006e+06
6.10005e+06
6.1e+06
6.09999e+06
6.1e+06
6.09999e+06
6.09999e+06
6.09998e+06
6.09998e+06
6.09997e+06
6.09997e+06
6.09996e+06
6.09995e+06
6.09995e+06
6.09994e+06
6.09993e+06
6.09992e+06
6.09991e+06
6.0999e+06
6.09989e+06
6.09988e+06
6.09987e+06
6.09986e+06
6.09985e+06
6.09983e+06
6.09997e+06
6.09994e+06
6.09989e+06
6.09992e+06
6.0999e+06
6.09994e+06
6.09998e+06
6.09998e+06
6.09994e+06
6.09993e+06
6.09994e+06
6.09994e+06
6.09993e+06
6.09993e+06
6.09993e+06