/*--------------------------------*- C++ -*----------------------------------*\
| =========                 |                                                 |
| \\      /  F ield         | OpenFOAM: The Open Source CFD Toolbox           |
|  \\    /   O peration     | Version:  v2012                                 |
|   \\  /    A nd           | Website:  www.openfoam.com                      |
|    \\/     M anipulation  |                                                 |
\*---------------------------------------------------------------------------*/
FoamFile
{
    version     2.0;
    format      ascii;
    class       volVectorField;
    location    "0.25";
    object      U;
}
// * * * * * * * * * * * * * * * * * * * * * * * * * * * * * * * * * * * * * //

dimensions      [0 1 -1 0 0 0 0];


internalField   nonuniform List<vector> 
2650
(
(-0.507613 -38.1029 0.00450354)
(1.89385 -32.1341 -0.0164605)
(2.33714 -20.5375 -0.0203281)
(3.74139 1.974 -0.0327003)
(1.05765 10.2444 -0.00933706)
(-0.355978 -40.5887 0.00316176)
(1.43283 -36.4926 -0.0124635)
(-0.104542 -23.4383 0.000956888)
(4.12254 -2.44996 -0.0360088)
(1.7553 10.5248 -0.0153991)
(-0.568358 -40.3496 0.00500017)
(1.01682 -35.4341 -0.00883526)
(-0.0894928 -21.0901 0.00081169)
(2.31686 -1.78104 -0.02015)
(1.48508 11.4766 -0.0130313)
(-0.1179 -41.0692 0.00109892)
(0.420138 -38.4888 -0.00365405)
(1.45347 -29.7019 -0.0126874)
(6.64325 -10.5735 -0.057923)
(1.47122 1.8926 -0.0128377)
(-0.05932 -42.3371 0.000536559)
(0.689685 -41.4666 -0.00604145)
(-0.0398104 -35.777 0.000326175)
(2.13635 -22.5661 -0.0186192)
(1.0842 -14.1366 -0.00939038)
(0.274389 -43.4877 -0.00238873)
(0.0259271 -42.0327 -0.000253402)
(-0.405001 -33.5186 0.00350028)
(-1.53312 -26.478 0.0133872)
(-1.16899 -20.0708 0.0102538)
(0.229278 -43.4184 -0.00201413)
(-0.890345 -40.5657 0.0077402)
(0.0903827 -30.9514 -0.000831611)
(0.799066 -19.1871 -0.00697483)
(0.725655 -15.7368 -0.00633459)
(0.383741 -43.5778 -0.00335662)
(-0.998991 -40.5728 0.00868395)
(0.809013 -34.8635 -0.00709994)
(2.21828 -26.1574 -0.0193864)
(4.23514 -15.8041 -0.0370067)
(0.32163 -44.4129 -0.00284766)
(-0.312174 -42.1939 0.00268145)
(2.16625 -37.9146 -0.0189189)
(1.24096 -28.7644 -0.0108445)
(2.84277 -10.0996 -0.0248605)
(0.170408 -44.6557 -0.00153008)
(-0.65683 -43.0955 0.00570782)
(1.09011 -39.0219 -0.00951315)
(1.18846 -28.3384 -0.0103803)
(0.519274 -8.3905 -0.00454611)
(-0.477964 -43.633 0.00413146)
(0.189947 -43.1609 -0.00166458)
(0.541015 -42.4971 -0.00471793)
(2.23413 -29.4701 -0.0195043)
(0.405164 -7.74752 -0.00354865)
(-0.682027 -43.1262 0.00597097)
(1.05043 -45.1119 -0.00917099)
(0.759154 -43.8697 -0.00662996)
(1.30076 -29.7296 -0.0113628)
(0.306142 -4.63404 -0.0026764)
(-0.359087 -43.3316 0.00311918)
(0.425039 -47.7081 -0.00371856)
(0.839767 -44.4961 -0.00733609)
(-0.683122 -29.5445 0.00595117)
(0.376884 -5.32161 -0.00328614)
(-0.166298 -42.5782 0.00143526)
(-0.126263 -48.0167 0.00109435)
(-0.596305 -42.8912 0.0051996)
(-1.96205 -28.2769 0.0171163)
(0.269097 -4.9067 -0.00233684)
(-0.427083 -42.1751 0.00370985)
(-0.429936 -46.7721 0.00374427)
(-2.79936 -40.3681 0.0244273)
(-1.9447 -30.047 0.0169669)
(0.0445617 -8.86035 -0.000389049)
(-0.181577 -39.7218 0.00160313)
(-1.43614 -41.5292 0.0125268)
(-4.23729 -36.4238 0.0369748)
(-2.81302 -30.0847 0.0245429)
(-2.01756 -5.61638 0.0176633)
(-0.768881 -37.4396 0.00670987)
(-3.54112 -35.5188 0.0308986)
(-5.28471 -33.9371 0.0461152)
(-5.52704 -32.7186 0.0482341)
(-6.29633 -20.6112 0.0549962)
(-2.09219 -26.388 0.0182574)
(-5.22435 -24.4493 0.0455922)
(-7.82055 -23.8391 0.0682461)
(-12.1143 -22.1197 0.10572)
(-15.9403 -15.1144 0.139084)
(-12.8677 -1.42613 0.112351)
(-7.68735 -2.24888 0.0671079)
(-5.86857 -1.13799 0.051214)
(-3.95222 -0.750762 0.0344944)
(-3.03636 -0.473317 0.0264988)
(-2.21052 -0.30652 0.0192923)
(-1.72012 -0.20065 0.0150119)
(-1.31534 -0.133451 0.0114797)
(-1.04063 -0.0893102 0.0090821)
(-0.823329 -0.0599946 0.00718573)
(-0.663763 -0.0404044 0.00579315)
(-0.539715 -0.0277581 0.00471068)
(-0.442996 -0.0193395 0.00386667)
(-0.36826 -0.0133596 0.00321431)
(-0.306838 -0.00922336 0.00267823)
(-0.259523 -0.00674567 0.00226531)
(-0.219452 -0.0047378 0.00191557)
(-0.187378 -0.00352623 0.00163563)
(-0.160323 -0.00264942 0.0013995)
(-0.137663 -0.00204678 0.00120166)
(-0.11864 -0.00163429 0.00103564)
(-0.10238 -0.00131454 0.000893705)
(-0.0885521 -0.00107296 0.000772996)
(-0.076693 -0.00087351 0.000669512)
(-0.0665227 -0.000708635 0.000580824)
(-0.0577903 -0.000572253 0.00050425)
(-1.40886 -13.3224 0.0122942)
(-2.82637 -12.8299 0.0246641)
(-4.61758 -10.9541 0.0402963)
(-6.73916 -10.1435 0.0588141)
(-8.7457 -9.10904 0.0763281)
(-7.58038 -5.12497 0.0661654)
(-5.37216 -3.4577 0.0468951)
(-4.89278 -2.08358 0.0427073)
(-3.75312 -1.47422 0.0327622)
(-3.23837 -0.981524 0.0282673)
(-2.62526 -0.71176 0.0229165)
(-2.22792 -0.506022 0.0194476)
(-1.85719 -0.375255 0.016212)
(-1.5771 -0.277064 0.0137669)
(-1.33582 -0.208251 0.0116608)
(-1.14078 -0.156952 0.00995832)
(-0.976836 -0.119675 0.00852738)
(-0.840251 -0.0919391 0.00733518)
(-0.725848 -0.0716612 0.00633637)
(-0.626509 -0.0561768 0.00546917)
(-0.544678 -0.0445369 0.00475488)
(-0.472606 -0.0356586 0.00412574)
(-0.411873 -0.029082 0.00359556)
(-0.35895 -0.0238161 0.00313357)
(-0.31325 -0.0196491 0.00273454)
(-0.273841 -0.0162813 0.00239056)
(-0.239529 -0.0135818 0.00209103)
(-0.209789 -0.0113656 0.00183141)
(-0.183873 -0.00953058 0.00160525)
(-0.161272 -0.00800326 0.00140803)
(-0.141514 -0.00672943 0.00123503)
(-0.700161 -12.0189 0.00610899)
(-1.6956 -11.4195 0.0147975)
(-2.56901 -9.83406 0.0224201)
(-3.08669 -7.91268 0.0269376)
(-4.19857 -5.73902 0.0366428)
(-4.34333 -3.32725 0.0379087)
(-3.95544 -2.80722 0.0345249)
(-3.63389 -1.86085 0.0317185)
(-3.14377 -1.47471 0.0274409)
(-2.79614 -1.06338 0.0244065)
(-2.41833 -0.826441 0.0211092)
(-2.12936 -0.624075 0.0185867)
(-1.85585 -0.487008 0.0161997)
(-1.63184 -0.378448 0.0142443)
(-1.43129 -0.29859 0.0124938)
(-1.26028 -0.236247 0.0110012)
(-1.11036 -0.18852 0.00969275)
(-0.980111 -0.152033 0.00855587)
(-0.866096 -0.124502 0.00756048)
(-0.76398 -0.102109 0.00666909)
(-0.67654 -0.0843191 0.00590585)
(-0.597404 -0.0701267 0.00521507)
(-0.529082 -0.0589112 0.00461866)
(-0.468208 -0.0495705 0.00408726)
(-0.414591 -0.0418684 0.00361915)
(-0.367291 -0.0353922 0.0032063)
(-0.325373 -0.0300179 0.00284038)
(-0.288331 -0.0254988 0.00251704)
(-0.255494 -0.0216972 0.00223047)
(-0.226383 -0.0184958 0.00197639)
(-0.200543 -0.0157973 0.00175028)
(-0.666116 -5.42266 0.00581326)
(-1.48401 -5.34288 0.0129516)
(-2.34643 -5.02553 0.0204782)
(-2.81695 -4.43855 0.0245838)
(-3.24602 -3.81515 0.0283295)
(-3.03873 -2.90204 0.0265215)
(-2.85842 -2.33423 0.0249488)
(-2.6945 -1.7417 0.0235184)
(-2.44658 -1.38405 0.0213547)
(-2.26313 -1.05912 0.0197534)
(-2.04072 -0.843182 0.0178125)
(-1.85985 -0.662531 0.0162338)
(-1.67567 -0.532418 0.0146264)
(-1.51508 -0.427828 0.0132248)
(-1.36409 -0.348083 0.0119069)
(-1.22927 -0.284175 0.0107302)
(-1.10624 -0.233627 0.00965659)
(-0.995437 -0.194432 0.00868948)
(-0.895474 -0.164126 0.00781678)
(-0.803322 -0.138608 0.00701238)
(-0.722389 -0.117459 0.00630597)
(-0.647291 -0.100008 0.00565045)
(-0.581212 -0.0856126 0.00507363)
(-0.521079 -0.0734276 0.00454872)
(-0.467158 -0.063091 0.00407797)
(-0.418678 -0.0542565 0.00365484)
(-0.374984 -0.0467438 0.00327342)
(-0.335716 -0.0403067 0.00293066)
(-0.300358 -0.0347901 0.00262208)
(-0.268537 -0.0300574 0.00234433)
(-0.239888 -0.0260033 0.00209373)
(-0.308806 -4.86394 0.00269476)
(-0.605367 -4.66366 0.00528304)
(-1.12212 -4.14006 0.00979207)
(-1.36141 -3.46111 0.0118796)
(-1.75101 -2.7632 0.015281)
(-1.85996 -2.10324 0.0162319)
(-1.95992 -1.72539 0.0171053)
(-1.9431 -1.33269 0.0169594)
(-1.89038 -1.1022 0.0164994)
(-1.8098 -0.884218 0.0157962)
(-1.70096 -0.735406 0.0148465)
(-1.59286 -0.604591 0.0139031)
(-1.4753 -0.505953 0.0128771)
(-1.36288 -0.422845 0.0118961)
(-1.25208 -0.356097 0.0109291)
(-1.14847 -0.3003 0.0100248)
(-1.05045 -0.254281 0.00916945)
(-0.959321 -0.217762 0.00837411)
(-0.875362 -0.18863 0.00764109)
(-0.795831 -0.163365 0.00694688)
(-0.724774 -0.141455 0.00632669)
(-0.65722 -0.122881 0.00573703)
(-0.596789 -0.106978 0.00520953)
(-0.540774 -0.0932563 0.00472058)
(-0.489777 -0.0813343 0.00427537)
(-0.443214 -0.0709609 0.00386897)
(-0.400652 -0.0619632 0.00349745)
(-0.361859 -0.0541264 0.00315883)
(-0.326463 -0.0473036 0.00284993)
(-0.294193 -0.0413638 0.00256826)
(-0.264774 -0.0361984 0.00231095)
(-0.285134 -2.35271 0.00248903)
(-0.6008 -2.28902 0.00524452)
(-1.02376 -2.18572 0.0089326)
(-1.20267 -2.00282 0.0104948)
(-1.45005 -1.71099 0.0126548)
(-1.47506 -1.43951 0.0128727)
(-1.55253 -1.20612 0.0135492)
(-1.53637 -1.00167 0.0134091)
(-1.52072 -0.850694 0.0132728)
(-1.47834 -0.717971 0.012903)
(-1.41927 -0.616649 0.0123876)
(-1.35495 -0.527922 0.0118262)
(-1.2806 -0.457065 0.0111775)
(-1.20488 -0.39552 0.0105168)
(-1.12624 -0.343373 0.00983052)
(-1.04943 -0.297959 0.00916024)
(-0.973858 -0.258987 0.00850075)
(-0.901067 -0.227411 0.00786553)
(-0.832495 -0.201326 0.00726683)
(-0.76558 -0.178264 0.00668274)
(-0.704759 -0.157279 0.00615189)
(-0.645575 -0.139095 0.00563531)
(-0.591846 -0.122974 0.00516632)
(-0.54122 -0.108779 0.00472442)
(-0.494475 -0.0961546 0.00431633)
(-0.4512 -0.0849739 0.00393864)
(-0.411135 -0.0750969 0.00358892)
(-0.374164 -0.0663595 0.00326621)
(-0.340032 -0.0586426 0.00296836)
(-0.308559 -0.0518337 0.00269366)
(-0.279553 -0.0458303 0.00243996)
(-0.138562 -1.88737 0.00120926)
(-0.316285 -1.79495 0.00276027)
(-0.52407 -1.66193 0.00457434)
(-0.695108 -1.47659 0.00606715)
(-0.869793 -1.20116 0.0075903)
(-0.976863 -0.989762 0.00852426)
(-1.08411 -0.811025 0.00946069)
(-1.13245 -0.682145 0.00988337)
(-1.16911 -0.591744 0.0102039)
(-1.17673 -0.519679 0.0102705)
(-1.16332 -0.465592 0.0101536)
(-1.13814 -0.41801 0.00993388)
(-1.09961 -0.378545 0.00959768)
(-1.05436 -0.342167 0.00920295)
(-1.00236 -0.308793 0.00874912)
(-0.947757 -0.277396 0.00827265)
(-0.891101 -0.248664 0.0077783)
(-0.834257 -0.224622 0.00728228)
(-0.779302 -0.203673 0.00680246)
(-0.72415 -0.184587 0.00632103)
(-0.673171 -0.166062 0.00587611)
(-0.622353 -0.149476 0.00543255)
(-0.575409 -0.134121 0.00502279)
(-0.53043 -0.120252 0.00463018)
(-0.488322 -0.10762 0.00426259)
(-0.448846 -0.0962271 0.00391806)
(-0.411867 -0.0859866 0.00359528)
(-0.377357 -0.0767895 0.00329406)
(-0.345154 -0.0685519 0.00301304)
(-0.31515 -0.0611876 0.00275117)
(-0.287222 -0.0546146 0.0025069)
(-0.127418 -0.839881 0.00111194)
(-0.28948 -0.79944 0.00252614)
(-0.466235 -0.78702 0.00406859)
(-0.612385 -0.720632 0.00534458)
(-0.74532 -0.597862 0.0065039)
(-0.822801 -0.500642 0.00717973)
(-0.903345 -0.42314 0.0078829)
(-0.937895 -0.379145 0.00818522)
(-0.970498 -0.350956 0.00847043)
(-0.9833 -0.333719 0.00858242)
(-0.981509 -0.3203 0.00856685)
(-0.971471 -0.306808 0.00847921)
(-0.950464 -0.294096 0.00829588)
(-0.923426 -0.279897 0.00806001)
(-0.889447 -0.264479 0.00776347)
(-0.851419 -0.247288 0.00743166)
(-0.809711 -0.229281 0.0070678)
(-0.766202 -0.213441 0.00668818)
(-0.722808 -0.198284 0.00630928)
(-0.677934 -0.183861 0.00591756)
(-0.635623 -0.168649 0.00554829)
(-0.592498 -0.154484 0.00517189)
(-0.552028 -0.140745 0.00481865)
(-0.512667 -0.127937 0.00447509)
(-0.475296 -0.115912 0.00414885)
(-0.439797 -0.104832 0.00383904)
(-0.406139 -0.0946745 0.00354526)
(-0.374375 -0.0854008 0.00326801)
(-0.344422 -0.0769721 0.00300663)
(-0.316239 -0.0693356 0.00276066)
(-0.289758 -0.0624339 0.00252905)
(-0.0779467 -0.499465 0.000680169)
(-0.181109 -0.457654 0.00158036)
(-0.297614 -0.434174 0.00259721)
(-0.412168 -0.374696 0.00359706)
(-0.509296 -0.283415 0.00444406)
(-0.588315 -0.212873 0.00513361)
(-0.6588 -0.165034 0.00574874)
(-0.709611 -0.151558 0.00619237)
(-0.752793 -0.153288 0.0065697)
(-0.785544 -0.165374 0.0068559)
(-0.803418 -0.180658 0.00701188)
(-0.813235 -0.193996 0.00709757)
(-0.810763 -0.204279 0.00707613)
(-0.800581 -0.21013 0.00698744)
(-0.782396 -0.211759 0.0068288)
(-0.758585 -0.208866 0.00662116)
(-0.729725 -0.202055 0.00636954)
(-0.697974 -0.194993 0.00609258)
(-0.664689 -0.186531 0.00580196)
(-0.629223 -0.177316 0.00549237)
(-0.594966 -0.166158 0.00519339)
(-0.55921 -0.155064 0.0048813)
(-0.524893 -0.143547 0.00458177)
(-0.490848 -0.13232 0.00428461)
(-0.457999 -0.121372 0.00399784)
(-0.426395 -0.111012 0.00372203)
(-0.396066 -0.101302 0.0034573)
(-0.367127 -0.092273 0.00320472)
(-0.339554 -0.083936 0.00296412)
(-0.313357 -0.0762742 0.00273548)
(-0.288516 -0.0692585 0.00251822)
(-0.0663313 0.0203275 0.000579016)
(-0.152933 0.0504322 0.00133491)
(-0.25136 0.0424316 0.00219309)
(-0.337156 0.0489769 0.00294231)
(-0.413687 0.0804228 0.00361081)
(-0.477369 0.0982538 0.00416634)
(-0.534196 0.0956932 0.00466148)
(-0.577036 0.072366 0.00503541)
(-0.618199 0.0373386 0.00539519)
(-0.651837 -0.00204818 0.00568918)
(-0.673486 -0.0433797 0.00587811)
(-0.690225 -0.0813041 0.00602417)
(-0.696299 -0.113036 0.00607725)
(-0.695707 -0.137449 0.00607218)
(-0.687803 -0.155008 0.00600319)
(-0.674458 -0.165599 0.00588683)
(-0.655763 -0.16981 0.00572391)
(-0.633505 -0.17148 0.0055298)
(-0.608834 -0.170172 0.00531437)
(-0.581218 -0.166455 0.00507329)
(-0.553731 -0.159733 0.0048334)
(-0.524233 -0.152001 0.00457594)
(-0.495404 -0.143084 0.00432431)
(-0.466381 -0.133788 0.00407099)
(-0.4379 -0.124285 0.00382237)
(-0.410095 -0.114981 0.00357972)
(-0.383042 -0.106029 0.0033436)
(-0.356915 -0.0975217 0.00311556)
(-0.331746 -0.0895213 0.00289594)
(-0.307593 -0.0820498 0.00268515)
(-0.284477 -0.0751084 0.00248295)
(-0.0391884 0.228711 0.000341998)
(-0.0960358 0.26087 0.000838081)
(-0.157634 0.245789 0.00137604)
(-0.224634 0.244053 0.00196105)
(-0.279401 0.266549 0.00243873)
(-0.333061 0.277155 0.00290708)
(-0.381264 0.270741 0.00332774)
(-0.432136 0.238406 0.00377169)
(-0.475483 0.190656 0.00414966)
(-0.516225 0.135841 0.00450543)
(-0.546487 0.0776765 0.00476966)
(-0.571781 0.0229278 0.00499045)
(-0.587933 -0.0254263 0.00513145)
(-0.596792 -0.0651552 0.00520884)
(-0.59849 -0.096271 0.00522363)
(-0.594255 -0.119033 0.00518675)
(-0.584539 -0.133559 0.0051022)
(-0.570644 -0.143756 0.00498108)
(-0.553699 -0.149518 0.00483309)
(-0.533372 -0.151436 0.00465564)
(-0.51236 -0.149454 0.00447226)
(-0.488891 -0.145479 0.00426742)
(-0.46524 -0.139584 0.00406099)
(-0.440779 -0.132618 0.0038475)
(-0.416307 -0.124904 0.00363386)
(-0.392041 -0.116958 0.0034221)
(-0.368098 -0.10903 0.00321313)
(-0.344684 -0.101281 0.00300878)
(-0.32187 -0.0938281 0.00280971)
(-0.299747 -0.0867334 0.00261665)
(-0.278375 -0.0800309 0.00242968)
(-0.0323458 0.46682 0.000282242)
(-0.0817855 0.50363 0.000713713)
(-0.13007 0.494031 0.00113524)
(-0.193099 0.47886 0.00168553)
(-0.236819 0.472299 0.00206705)
(-0.283403 0.464102 0.00247372)
(-0.319659 0.441075 0.00279028)
(-0.359619 0.397177 0.00313892)
(-0.394909 0.337182 0.00344635)
(-0.431432 0.266759 0.0037653)
(-0.46004 0.19398 0.00401512)
(-0.486031 0.124075 0.00424197)
(-0.504943 0.0609278 0.00440702)
(-0.517935 0.00685073 0.00452048)
(-0.524454 -0.0369082 0.00457739)
(-0.525623 -0.0708665 0.00458771)
(-0.521801 -0.0951488 0.00455457)
(-0.513826 -0.113576 0.00448511)
(-0.502789 -0.126372 0.00438869)
(-0.488127 -0.133979 0.00426067)
(-0.472371 -0.136763 0.00412317)
(-0.453911 -0.136619 0.00396205)
(-0.434831 -0.13383 0.00379552)
(-0.41459 -0.129341 0.00361886)
(-0.393867 -0.123589 0.00343796)
(-0.372934 -0.117196 0.0032553)
(-0.351939 -0.110491 0.00307206)
(-0.331114 -0.103693 0.00289032)
(-0.310569 -0.0969648 0.00271105)
(-0.290424 -0.0904075 0.00253525)
(-0.270769 -0.0840867 0.00236329)
(-0.0246733 0.604554 0.000215273)
(-0.0597225 0.639457 0.000521032)
(-0.094022 0.631321 0.000820605)
(-0.137077 0.618132 0.00119624)
(-0.172918 0.599893 0.00150895)
(-0.213308 0.585663 0.00186167)
(-0.245335 0.557546 0.0021414)
(-0.282123 0.51174 0.00246245)
(-0.31432 0.448551 0.00274296)
(-0.349262 0.372513 0.0030481)
(-0.378209 0.292046 0.0033009)
(-0.405448 0.212763 0.00353869)
(-0.427008 0.139196 0.00372681)
(-0.443698 0.0740758 0.00387249)
(-0.454863 0.0198983 0.00396997)
(-0.460991 -0.0234926 0.00402357)
(-0.462536 -0.0561098 0.00403725)
(-0.459874 -0.0818696 0.00401418)
(-0.45416 -0.100978 0.00396421)
(-0.444689 -0.114059 0.00388148)
(-0.433764 -0.121505 0.00378615)
(-0.419913 -0.125285 0.00366526)
(-0.405019 -0.125841 0.00353528)
(-0.388584 -0.124085 0.00339184)
(-0.371258 -0.120528 0.00324059)
(-0.353376 -0.115884 0.00308456)
(-0.335114 -0.110578 0.00292519)
(-0.316722 -0.104894 0.00276467)
(-0.298329 -0.0990419 0.0026042)
(-0.28008 -0.0931588 0.00244495)
(-0.262088 -0.0873428 0.00228752)
(-0.0216844 0.745986 0.000189413)
(-0.0499964 0.776304 0.000436605)
(-0.0845043 0.765835 0.000737122)
(-0.116567 0.748779 0.00101709)
(-0.148923 0.730337 0.0012997)
(-0.185361 0.708629 0.00161789)
(-0.213077 0.672808 0.00185989)
(-0.245831 0.62151 0.0021458)
(-0.272121 0.553 0.00237474)
(-0.301791 0.470545 0.00263377)
(-0.325841 0.382654 0.00284383)
(-0.349476 0.294755 0.00305017)
(-0.368827 0.212585 0.003219)
(-0.385274 0.138307 0.00336252)
(-0.397817 0.0752991 0.00347202)
(-0.406342 0.0234466 0.00354656)
(-0.411027 -0.0168573 0.00358763)
(-0.411902 -0.0495936 0.00359542)
(-0.409966 -0.0745893 0.00357842)
(-0.404482 -0.0929336 0.0035305)
(-0.3974 -0.104825 0.00346871)
(-0.387378 -0.112438 0.00338125)
(-0.376075 -0.116252 0.00328261)
(-0.363057 -0.117271 0.003169)
(-0.348843 -0.116018 0.00304492)
(-0.333758 -0.113243 0.0029133)
(-0.31802 -0.109463 0.00277596)
(-0.301892 -0.105022 0.00263521)
(-0.28552 -0.100168 0.00249237)
(-0.269067 -0.0950747 0.0023488)
(-0.252665 -0.0898685 0.00220528)
(-0.0162655 0.841839 0.00014209)
(-0.0391683 0.879055 0.000341956)
(-0.0688916 0.869696 0.000601425)
(-0.0972879 0.845352 0.000848762)
(-0.125823 0.829643 0.00109813)
(-0.153936 0.802253 0.00134373)
(-0.17991 0.763336 0.00157059)
(-0.207344 0.708111 0.00181009)
(-0.229782 0.635435 0.00200534)
(-0.255136 0.548625 0.00222659)
(-0.275265 0.4559 0.00240243)
(-0.296412 0.362635 0.00258707)
(-0.314358 0.275036 0.00274362)
(-0.330824 0.195 0.0028873)
(-0.34481 0.125766 0.00300937)
(-0.355532 0.067561 0.00310305)
(-0.362977 0.0212148 0.00316821)
(-0.367138 -0.0173521 0.00320468)
(-0.368515 -0.0474237 0.0032166)
(-0.366722 -0.0706283 0.00320089)
(-0.363044 -0.0867551 0.00316881)
(-0.356466 -0.0981416 0.00311141)
(-0.348334 -0.105223 0.00304045)
(-0.338348 -0.109083 0.0029533)
(-0.326938 -0.110247 0.0028537)
(-0.314391 -0.109458 0.00274424)
(-0.300958 -0.107306 0.00262701)
(-0.286916 -0.104208 0.00250447)
(-0.272423 -0.100452 0.00237804)
(-0.257656 -0.096242 0.00224918)
(-0.242759 -0.0917333 0.00211881)
(-0.0126523 0.928351 0.000110509)
(-0.0341886 0.971329 0.000298458)
(-0.0538593 0.965604 0.000470168)
(-0.0820826 0.942426 0.000716114)
(-0.103934 0.919918 0.000906988)
(-0.129831 0.889272 0.00113315)
(-0.152295 0.847246 0.00132943)
(-0.177803 0.78601 0.00155219)
(-0.196208 0.709452 0.00171236)
(-0.218229 0.617918 0.00190454)
(-0.235053 0.521106 0.0020516)
(-0.253853 0.424029 0.00221579)
(-0.270574 0.332439 0.00236166)
(-0.286393 0.248245 0.00249968)
(-0.300849 0.174099 0.00262578)
(-0.312697 0.110262 0.00272919)
(-0.321788 0.0584273 0.0028087)
(-0.328099 0.0144956 0.00286392)
(-0.331678 -0.0202281 0.00289506)
(-0.332589 -0.0478846 0.00290295)
(-0.331448 -0.0679942 0.00289301)
(-0.327634 -0.0829622 0.00285973)
(-0.32211 -0.0931945 0.00281154)
(-0.314708 -0.0998306 0.00274695)
(-0.305762 -0.103426 0.00266885)
(-0.295504 -0.104701 0.00257936)
(-0.284155 -0.104253 0.00248033)
(-0.272018 -0.102575 0.00237442)
(-0.259258 -0.0999941 0.0022631)
(-0.246057 -0.0967442 0.00214793)
(-0.232571 -0.0930051 0.00202989)
(-0.0112115 0.994204 9.78908e-05)
(-0.0270166 1.03784 0.000235789)
(-0.0443318 1.03311 0.000387094)
(-0.0637377 1.0114 0.000556138)
(-0.0819757 0.989874 0.000715338)
(-0.101743 0.959171 0.000887824)
(-0.119758 0.916802 0.00104543)
(-0.143575 0.851833 0.00125339)
(-0.160445 0.769875 0.0014)
(-0.182191 0.675564 0.0015899)
(-0.198692 0.57572 0.00173413)
(-0.216787 0.47666 0.00189216)
(-0.233269 0.382411 0.002036)
(-0.248545 0.295281 0.00216927)
(-0.262977 0.217681 0.00229518)
(-0.27524 0.149753 0.00240218)
(-0.285245 0.0935786 0.00248975)
(-0.293148 0.0453492 0.00255889)
(-0.298271 0.00658914 0.00260354)
(-0.301384 -0.0249358 0.00263064)
(-0.302247 -0.0487527 0.00263817)
(-0.300784 -0.0671136 0.00262539)
(-0.297465 -0.0804028 0.00259642)
(-0.29229 -0.0897609 0.00255127)
(-0.285477 -0.0957665 0.00249179)
(-0.277255 -0.099137 0.00242006)
(-0.267779 -0.10045 0.00233737)
(-0.257368 -0.100244 0.00224652)
(-0.24619 -0.0988948 0.00214902)
(-0.234435 -0.0966629 0.00204646)
(-0.222262 -0.0937508 0.00193991)
(-0.00972981 1.05459 8.50053e-05)
(-0.0228404 1.09891 0.000199488)
(-0.0395743 1.09363 0.000345269)
(-0.0562267 1.06986 0.000490558)
(-0.0715888 1.0463 0.000624726)
(-0.0854124 1.01231 0.000745174)
(-0.0981993 0.973425 0.000857393)
(-0.113113 0.908815 0.000987606)
(-0.128996 0.826544 0.00112537)
(-0.148784 0.731241 0.00129833)
(-0.165806 0.627847 0.00144713)
(-0.183201 0.526361 0.00159906)
(-0.199935 0.429311 0.00174512)
(-0.214896 0.339316 0.00187565)
(-0.229586 0.258541 0.00200379)
(-0.242149 0.18717 0.00211337)
(-0.253003 0.127038 0.00220836)
(-0.26208 0.0750984 0.00228772)
(-0.268478 0.032525 0.0023435)
(-0.273252 -0.00243734 0.0023851)
(-0.275655 -0.0296473 0.00240606)
(-0.276041 -0.0510685 0.00240941)
(-0.27452 -0.0672002 0.00239614)
(-0.271212 -0.0791356 0.00236727)
(-0.266223 -0.0874769 0.00232371)
(-0.259775 -0.0929243 0.00226747)
(-0.251965 -0.0960235 0.00219932)
(-0.243098 -0.0973244 0.00212195)
(-0.233353 -0.0972468 0.00203695)
(-0.222918 -0.0960759 0.00194592)
(-0.211956 -0.0940344 0.00184996)
(-0.00743517 1.10172 6.49119e-05)
(-0.0193987 1.1498 0.000169297)
(-0.0346699 1.14839 0.000302717)
(-0.0524045 1.12253 0.000457563)
(-0.0665441 1.09266 0.000580675)
(-0.0793398 1.05292 0.000692302)
(-0.0887113 1.01209 0.000774323)
(-0.098045 0.948416 0.000855887)
(-0.109641 0.870719 0.000956684)
(-0.122237 0.776427 0.00106689)
(-0.137474 0.672476 0.00120003)
(-0.152412 0.569838 0.00133048)
(-0.16877 0.471178 0.00147322)
(-0.183293 0.379032 0.00159989)
(-0.198259 0.295906 0.0017304)
(-0.211206 0.221899 0.00184331)
(-0.222973 0.15867 0.00194626)
(-0.23324 0.103721 0.00203598)
(-0.240925 0.0578928 0.002103)
(-0.247261 0.019897 0.00215823)
(-0.251135 -0.0104703 0.00219202)
(-0.253161 -0.0347942 0.00220969)
(-0.253202 -0.053661 0.00221006)
(-0.251489 -0.0680927 0.0021951)
(-0.248063 -0.0787106 0.00216519)
(-0.243149 -0.0862093 0.00212234)
(-0.236805 -0.091102 0.00206698)
(-0.229307 -0.0939263 0.00200156)
(-0.220846 -0.0951413 0.00192776)
(-0.211607 -0.0950587 0.00184716)
(-0.201754 -0.0939185 0.0017609)
(-0.00580611 1.14246 5.06606e-05)
(-0.016094 1.19725 0.000140418)
(-0.0268843 1.2017 0.000234704)
(-0.0430829 1.17617 0.000376158)
(-0.055762 1.14196 0.0004866)
(-0.0689878 1.0965 0.000602131)
(-0.0777821 1.04783 0.000678871)
(-0.0849567 0.981824 0.000741493)
(-0.0938479 0.903936 0.000818979)
(-0.10131 0.810742 0.000884375)
(-0.114505 0.709621 0.000999618)
(-0.127132 0.607737 0.00110984)
(-0.142681 0.509143 0.0012455)
(-0.156577 0.415844 0.00136668)
(-0.171513 0.331075 0.00149694)
(-0.184617 0.255062 0.00161125)
(-0.196919 0.189193 0.00171885)
(-0.207916 0.131515 0.00181493)
(-0.216507 0.0826185 0.00188985)
(-0.223914 0.0417489 0.00195443)
(-0.228901 0.00845271 0.00199794)
(-0.232202 -0.0185838 0.00202674)
(-0.233529 -0.0400228 0.00203832)
(-0.233143 -0.0568255 0.00203495)
(-0.23104 -0.0696308 0.00201659)
(-0.227435 -0.0791215 0.00198516)
(-0.222369 -0.0857938 0.00194096)
(-0.216071 -0.0901469 0.00188602)
(-0.208748 -0.0926627 0.00182214)
(-0.200582 -0.0936829 0.00175091)
(-0.191734 -0.0934627 0.00167345)
(-0.00506877 1.17319 4.42133e-05)
(-0.012378 1.22769 0.000107929)
(-0.0205121 1.23552 0.00017908)
(-0.0320029 1.21407 0.00027927)
(-0.0435628 1.17846 0.000380038)
(-0.0536864 1.13045 0.000468643)
(-0.0624741 1.07724 0.000545284)
(-0.0688747 1.00951 0.000601123)
(-0.0773563 0.931009 0.000675101)
(-0.0838406 0.839301 0.000731935)
(-0.096003 0.741507 0.00083815)
(-0.107268 0.640746 0.00093648)
(-0.12161 0.542888 0.00106159)
(-0.134631 0.449035 0.0011751)
(-0.148999 0.363215 0.00130041)
(-0.161844 0.285687 0.00141248)
(-0.17417 0.217792 0.00152028)
(-0.185468 0.157869 0.00161899)
(-0.194627 0.106471 0.00169885)
(-0.202836 0.0630341 0.00177042)
(-0.208734 0.0270966 0.0018219)
(-0.213079 -0.00248306 0.0018598)
(-0.215467 -0.0263621 0.00188065)
(-0.216171 -0.0454408 0.0018868)
(-0.215166 -0.060358 0.00187803)
(-0.212658 -0.071783 0.00185617)
(-0.208693 -0.080211 0.00182158)
(-0.203443 -0.0860815 0.00177578)
(-0.197115 -0.0898928 0.00172058)
(-0.189902 -0.0920167 0.00165766)
(-0.181958 -0.0927237 0.00158812)
(-0.00453066 1.20038 3.95944e-05)
(-0.0104109 1.25595 9.08994e-05)
(-0.018667 1.26626 0.000162896)
(-0.0270006 1.24739 0.000235582)
(-0.0377898 1.21078 0.00032962)
(-0.046198 1.15986 0.000403298)
(-0.0549111 1.10341 0.000479333)
(-0.060955 1.03396 0.000532122)
(-0.0686274 0.955418 0.000599022)
(-0.0744326 0.865003 0.00064979)
(-0.0845505 0.769537 0.00073813)
(-0.0937681 0.669842 0.000818606)
(-0.1059 0.572898 0.000924427)
(-0.117343 0.479049 0.00102415)
(-0.130504 0.392754 0.00113893)
(-0.142724 0.314162 0.00124557)
(-0.154693 0.244742 0.00135025)
(-0.166009 0.182868 0.00144912)
(-0.175423 0.129351 0.0015312)
(-0.184141 0.083607 0.00160721)
(-0.19068 0.0453158 0.00166428)
(-0.195804 0.0133676 0.001709)
(-0.199019 -0.0128176 0.00173707)
(-0.200585 -0.0340724 0.00175076)
(-0.200465 -0.0510174 0.0017497)
(-0.198855 -0.064305 0.00173568)
(-0.195802 -0.074436 0.00170906)
(-0.191451 -0.0818124 0.0016711)
(-0.185987 -0.0869054 0.00162344)
(-0.179612 -0.0901236 0.00156783)
(-0.172475 -0.091755 0.00150535)
(-0.00377767 1.22221 3.30143e-05)
(-0.00804397 1.27972 7.02291e-05)
(-0.0149214 1.29196 0.000130291)
(-0.0221757 1.27419 0.00019322)
(-0.0319562 1.23902 0.000278775)
(-0.040077 1.18642 0.000349882)
(-0.0498894 1.12833 0.00043559)
(-0.0561306 1.05655 0.000490168)
(-0.0632661 0.977119 0.000552358)
(-0.0683035 0.886859 0.000596271)
(-0.076123 0.792584 0.00066453)
(-0.0835167 0.693984 0.000729083)
(-0.0934733 0.598213 0.00081592)
(-0.103461 0.505182 0.000902945)
(-0.115393 0.419142 0.00100701)
(-0.126905 0.340125 0.00110747)
(-0.138257 0.269733 0.00120676)
(-0.14938 0.206391 0.00130395)
(-0.158757 0.15123 0.00138571)
(-0.167792 0.10344 0.00146449)
(-0.174691 0.0630214 0.00152471)
(-0.180352 0.0288551 0.00157411)
(-0.184144 0.00049558 0.00160723)
(-0.186353 -0.0228347 0.00162653)
(-0.186911 -0.0417199 0.0016314)
(-0.186011 -0.0567933 0.00162357)
(-0.183702 -0.068559 0.00160343)
(-0.180118 -0.077414 0.00157217)
(-0.175392 -0.0837686 0.00153095)
(-0.169745 -0.0880623 0.00148169)
(-0.163322 -0.0906057 0.00142546)
(-0.00255695 1.23966 2.234e-05)
(-0.00744066 1.29732 6.49408e-05)
(-0.0105446 1.31206 9.2097e-05)
(-0.0191315 1.29827 0.000166687)
(-0.0255983 1.26432 0.000223328)
(-0.0356311 1.214 0.000310998)
(-0.0445079 1.15292 0.000388589)
(-0.0517686 1.07851 0.000452058)
(-0.057983 0.997222 0.000506256)
(-0.0625827 0.906151 0.000546267)
(-0.0688675 0.812279 0.000601161)
(-0.0751829 0.714998 0.000656336)
(-0.0838083 0.620493 0.000731575)
(-0.092798 0.528763 0.000809929)
(-0.103665 0.443323 0.000904688)
(-0.114455 0.364117 0.000998813)
(-0.125093 0.293021 0.00109186)
(-0.135848 0.228488 0.00118582)
(-0.1449 0.171952 0.00126475)
(-0.153929 0.122395 0.00134349)
(-0.160833 0.0800609 0.00140375)
(-0.166729 0.0438644 0.00145521)
(-0.170829 0.0134703 0.00149101)
(-0.173458 -0.0118285 0.00151397)
(-0.174497 -0.0325647 0.00152304)
(-0.174131 -0.0493468 0.00151987)
(-0.1724 -0.0626792 0.00150478)
(-0.169442 -0.0729562 0.00147898)
(-0.165345 -0.0805452 0.00144325)
(-0.160323 -0.0858868 0.00139946)
(-0.154527 -0.0893216 0.0013487)
(-0.00261275 1.25434 2.28086e-05)
(-0.00562371 1.31222 4.90595e-05)
(-0.0102212 1.32883 8.92905e-05)
(-0.0160158 1.31789 0.000139629)
(-0.0230179 1.28671 0.000200813)
(-0.0312627 1.2389 0.0002727)
(-0.0394609 1.17541 0.000344518)
(-0.0471225 1.09921 0.00041147)
(-0.053326 1.01515 0.000465581)
(-0.0582508 0.923539 0.000508483)
(-0.0643694 0.829788 0.000561945)
(-0.0705716 0.733958 0.000616148)
(-0.078599 0.640628 0.000686187)
(-0.0868828 0.55006 0.000758379)
(-0.0965794 0.465242 0.000842939)
(-0.106359 0.386054 0.00092821)
(-0.11587 0.314441 0.00101143)
(-0.125833 0.249075 0.00109847)
(-0.134061 0.19137 0.00117024)
(-0.142638 0.140305 0.00124504)
(-0.149126 0.096224 0.00130164)
(-0.154906 0.0581872 0.00135206)
(-0.159015 0.0259275 0.00138792)
(-0.161829 -0.00119512 0.00141248)
(-0.163161 -0.0236625 0.0014241)
(-0.16317 -0.042054 0.0014242)
(-0.161878 -0.0568666 0.00141293)
(-0.159417 -0.0684995 0.00139148)
(-0.155849 -0.0772871 0.00136036)
(-0.151361 -0.083644 0.00132123)
(-0.146112 -0.0879429 0.00127526)
(-0.00223529 1.26715 1.95344e-05)
(-0.00468667 1.32583 4.09384e-05)
(-0.00908074 1.3447 7.92525e-05)
(-0.0130925 1.33622 0.000114127)
(-0.0194712 1.30738 0.000169889)
(-0.0259591 1.26075 0.000226466)
(-0.0333463 1.19681 0.000291069)
(-0.0392193 1.11979 0.000342394)
(-0.046225 1.0335 0.000403504)
(-0.0517124 0.941599 0.000451414)
(-0.0586633 0.847588 0.00051218)
(-0.0652168 0.752661 0.00056946)
(-0.0731574 0.65989 0.000638762)
(-0.0810398 0.570015 0.000707453)
(-0.0899314 0.485397 0.000784992)
(-0.0988553 0.406269 0.000862768)
(-0.10753 0.334044 0.000938689)
(-0.116778 0.268027 0.00101946)
(-0.124314 0.209175 0.00108518)
(-0.132437 0.156863 0.00115602)
(-0.138536 0.111262 0.00120922)
(-0.144189 0.0716618 0.00125852)
(-0.148279 0.0377657 0.00129422)
(-0.151226 0.00900028 0.00131993)
(-0.152774 -0.0150708 0.00133344)
(-0.153063 -0.0349737 0.00133598)
(-0.152106 -0.0511852 0.00132764)
(-0.150034 -0.0641012 0.00130957)
(-0.146903 -0.0740397 0.00128227)
(-0.142866 -0.0813745 0.00124707)
(-0.138093 -0.0865046 0.00120526)
(-0.00213349 1.27742 1.86301e-05)
(-0.00329489 1.33682 2.87615e-05)
(-0.00872491 1.35675 7.62055e-05)
(-0.00943936 1.3493 8.24041e-05)
(-0.0158588 1.32196 0.000138339)
(-0.017807 1.27647 0.000155366)
(-0.0248447 1.21335 0.000216783)