/*--------------------------------*- C++ -*----------------------------------*\
| =========                 |                                                 |
| \\      /  F ield         | OpenFOAM: The Open Source CFD Toolbox           |
|  \\    /   O peration     | Version:  v2012                                 |
|   \\  /    A nd           | Website:  www.openfoam.com                      |
|    \\/     M anipulation  |                                                 |
\*---------------------------------------------------------------------------*/
FoamFile
{
    version     2.0;
    format      ascii;
    class       volScalarField;
    location    "1";
    object      alpha.water;
}
// * * * * * * * * * * * * * * * * * * * * * * * * * * * * * * * * * * * * * //

dimensions      [0 0 0 0 0 0 0];


internalField   nonuniform List<scalar> 
3326
(
-1.83717e-25
-7.22764e-27
-1.28516e-28
-1.28511e-30
-7.49963e-33
-2.45022e-35
-4.02843e-38
-2.67962e-41
-4.16684e-45
-1.26691e-19
-6.40307e-21
-2.54438e-22
-7.14501e-24
-1.39075e-25
-1.8583e-27
-1.65904e-29
-9.4171e-32
-3.14575e-34
-5.46905e-37
-3.94972e-40
-6.81854e-44
2.24843e-14
3.77658e-14
3.77658e-14
3.76648e-14
3.60636e-14
7.5715e-15
7.15605e-16
9.74893e-16
1.84757e-15
1.08797e-14
1.43465e-14
2.47948e-15
2.42509e-15
2.42999e-15
2.31562e-15
2.31562e-15
3.25654e-15
1.59877e-15
-7.46319e-15
-3.2891e-14
-8.48359e-14
-1.62635e-13
-2.43812e-13
-2.89311e-13
-2.71889e-13
-2.018e-13
-1.17829e-13
-5.37776e-14
-1.89331e-14
-5.00431e-15
-9.52726e-16
-1.28381e-16
-1.23491e-17
-8.64502e-19
-4.46471e-20
-1.70122e-21
-4.72463e-23
-9.36079e-25
-1.28601e-26
-1.18107e-28
-6.89779e-31
-2.37931e-33
-4.30109e-36
-3.25825e-39
-5.94724e-43
3.43352e-14
3.7748e-14
3.77658e-14
3.7748e-14
2.44666e-14
1.40795e-15
7.11256e-16
1.55145e-15
1.64776e-15
8.27994e-15
1.91405e-14
1.68041e-14
3.03726e-15
2.33641e-15
2.31562e-15
2.5003e-15
2.31841e-15
9.22554e-16
-9.92416e-15
-4.18103e-14
-1.06502e-13
-2.04316e-13
-3.09055e-13
-3.71962e-13
-3.55717e-13
-2.69215e-13
-1.60507e-13
-7.4922e-14
-2.7099e-14
-7.47436e-15
-1.54372e-15
-2.35293e-16
-2.62039e-17
-2.11995e-18
-1.24028e-19
-5.2164e-21
-1.5634e-22
-3.29241e-24
-4.76925e-26
-4.60541e-28
-2.82968e-30
-1.02947e-32
-1.97001e-35
-1.58615e-38
-3.08539e-42
3.2408e-14
2.74884e-14
3.09581e-14
2.43629e-14
1.93908e-15
6.78067e-16
6.98479e-16
2.07032e-14
1.77109e-14
9.5186e-15
1.46492e-14
1.97042e-14
1.46948e-14
2.43974e-15
4.75031e-15
8.94172e-15
3.61965e-15
-1.90616e-35
-1.34266e-14
-5.30873e-14
-1.33269e-13
-2.55439e-13
-3.89049e-13
-4.738e-13
-4.59946e-13
-3.54064e-13
-2.15004e-13
-1.02372e-13
-3.78937e-14
-1.07686e-14
-2.31319e-15
-3.70309e-16
-4.36587e-17
-3.75745e-18
-2.34277e-19
-1.04941e-20
-3.34237e-22
-7.45853e-24
-1.14154e-25
-1.16193e-27
-7.51379e-30
-2.87568e-32
-5.79217e-35
-4.91509e-38
-1.0082e-41
8.69291e-15
9.69754e-16
2.25811e-15
1.21571e-15
7.24682e-16
1.40329e-15
6.14763e-15
2.67278e-14
2.50305e-14
1.82596e-14
1.45689e-14
1.59718e-14
1.72222e-14
7.56835e-15
7.22479e-15
1.05214e-14
1.08729e-14
1.33032e-15
-1.78763e-14
-6.75194e-14
-1.66566e-13
-3.18289e-13
-4.87058e-13
-5.98795e-13
-5.88595e-13
-4.59691e-13
-2.83578e-13
-1.37344e-13
-5.1828e-14
-1.50704e-14
-3.32673e-15
-5.49181e-16
-6.6884e-17
-5.94609e-18
-3.82426e-19
-1.76306e-20
-5.76392e-22
-1.31658e-23
-2.05705e-25
-2.13229e-27
-1.4014e-29
-5.4427e-32
-1.11135e-34
-9.55497e-38
-1.98368e-41
8.34762e-16
7.41351e-16
9.19024e-16
6.67171e-16
9.44289e-16
6.09095e-15
1.94999e-14
2.9215e-14
2.65663e-14
2.4261e-14
2.0555e-14
8.4841e-15
1.03222e-14
1.03257e-14
5.96058e-15
8.37708e-15
1.21847e-14
2.9217e-15
-2.39188e-14
-8.62602e-14
-2.08371e-13
-3.959e-13
-6.07234e-13
-7.5181e-13
-7.46409e-13
-5.89887e-13
-3.68684e-13
-1.81107e-13
-6.94256e-14
-2.05608e-14
-4.63826e-15
-7.84955e-16
-9.82068e-17
-8.97449e-18
-5.92871e-19
-2.80224e-20
-9.36696e-22
-2.18018e-23
-3.45733e-25
-3.62136e-27
-2.39338e-29
-9.29863e-32
-1.88889e-34
-1.60643e-37
-3.278e-41
7.32527e-16
1.0536e-15
2.01826e-15
1.85988e-15
1.16406e-15
5.97102e-15
1.94942e-14
2.71413e-14
2.74061e-14
1.93141e-14
2.05383e-14
1.09848e-14
2.458e-15
4.40012e-15
3.35233e-15
3.73864e-15
1.10142e-14
-1.34857e-24
-3.29512e-14
-1.10835e-13
-2.61295e-13
-4.92273e-13
-7.54892e-13
-9.38843e-13
-9.38997e-13
-7.48926e-13
-4.7294e-13
-2.34937e-13
-9.11835e-14
-2.74018e-14
-6.29537e-15
-1.09012e-15
-1.40228e-16
-1.32313e-17
-9.05436e-19
-4.44272e-20
-1.54348e-21
-3.73493e-23
-6.15472e-25
-6.69086e-27
-4.58054e-29
-1.83848e-31
-3.84516e-34
-3.35342e-37
-6.97775e-41
7.33556e-16
1.01681e-15
1.93208e-15
3.59776e-15
1.2527e-15
1.39221e-15
5.00964e-15
7.77729e-15
1.25813e-14
1.30294e-14
1.04409e-14
8.50429e-15
2.68333e-15
2.56595e-15
2.66768e-15
4.31704e-15
8.99905e-15
-3.7606e-15
-4.60458e-14
-1.43232e-13
-3.28733e-13
-6.12618e-13
-9.36836e-13
-1.16732e-12
-1.173e-12
-9.41588e-13
-5.99069e-13
-3.00051e-13
-1.1752e-13
-3.57043e-14
-8.32281e-15
-1.4705e-15
-1.9436e-16
-1.89829e-17
-1.35401e-18
-6.96672e-20
-2.55053e-21
-6.52857e-23
-1.14119e-24
-1.31842e-26
-9.60215e-29
-4.1013e-31
-9.12449e-34
-8.45252e-37
-1.86056e-40
6.95656e-16
6.46869e-16
6.93961e-16
2.11602e-15
2.24145e-14
1.7136e-14
5.65513e-15
5.70785e-15
7.66401e-15
1.61135e-14
5.26484e-15
2.62477e-15
2.4994e-15
2.43877e-15
2.51237e-15
1.84814e-14
9.75689e-15
-1.10111e-14
-6.45862e-14
-1.85952e-13
-4.15097e-13
-7.63702e-13
-1.16175e-12
-1.44643e-12
-1.45627e-12
-1.17316e-12
-7.49813e-13
-3.77506e-13
-1.48719e-13
-4.55027e-14
-1.07101e-14
-1.91923e-15
-2.58819e-16
-2.59647e-17
-1.91477e-18
-1.02452e-19
-3.91909e-21
-1.05198e-22
-1.9332e-24
-2.35169e-26
-1.80463e-28
-8.12036e-31
-1.90133e-33
-1.84937e-36
-4.25172e-40
6.4674e-16
6.46872e-16
6.46105e-16
6.46099e-16
3.03361e-14
1.17125e-13
7.52989e-14
4.93968e-15
4.15868e-15
1.91019e-14
4.9133e-14
3.15427e-14
2.3898e-14
1.72247e-14
1.88344e-14
2.05781e-14
4.01604e-15
-2.07468e-14
-8.94132e-14
-2.42066e-13
-5.26162e-13
-9.54323e-13
-1.44072e-12
-1.7875e-12
-1.798e-12
-1.44938e-12
-9.27793e-13
-4.68081e-13
-1.84861e-13
-5.67401e-14
-1.34152e-14
-2.42023e-15
-3.29614e-16
-3.35173e-17
-2.51504e-18
-1.37427e-19
-5.38583e-21
-1.48505e-22
-2.80912e-24
-3.52251e-26
-2.78862e-28
-1.29469e-30
-3.12559e-33
-3.12786e-36
-7.36066e-40
6.46582e-16
6.46545e-16
6.4651e-16
6.46099e-16
1.29288e-14
1.27016e-13
1.33962e-13
8.02723e-14
2.17762e-15
8.78092e-15
6.05008e-14
6.37645e-14
6.45222e-14
6.37918e-14
5.521e-14
5.18745e-15
-1.3063e-15
-3.40061e-14
-1.22617e-13
-3.15934e-13
-6.69697e-13
-1.196e-12
-1.78785e-12
-2.20446e-12
-2.20892e-12
-1.77636e-12
-1.13531e-12
-5.72122e-13
-2.25752e-13
-6.92516e-14
-1.63717e-14
-2.95515e-15
-4.02957e-16
-4.10533e-17
-3.08819e-18
-1.69244e-19
-6.65443e-21
-1.84116e-22
-3.49476e-24
-4.39663e-26
-3.49058e-28
-1.62398e-30
-3.92339e-33
-3.91894e-36
-9.15647e-40
7.14499e-16
6.46409e-16
6.46327e-16
6.46099e-16
6.46144e-16
3.46075e-14
1.35411e-13
1.38531e-13
7.14489e-14
4.04574e-15
2.54105e-14
6.56976e-14
6.58e-14
6.58e-14
5.36435e-14
1.83803e-15
-8.86612e-15
-5.22588e-14
-1.67514e-13
-4.13899e-13
-8.56316e-13
-1.50391e-12
-2.2211e-12
-2.71432e-12
-2.70129e-12
-2.16034e-12
-1.3741e-12
-6.89359e-13
-2.7084e-13
-8.27365e-14
-1.94821e-14
-3.5032e-15
-4.75831e-16
-4.82641e-17
-3.61077e-18
-1.96479e-19
-7.65367e-21
-2.09236e-22
-3.91181e-24
-4.82981e-26
-3.74792e-28
-1.69651e-30
-3.96659e-33
-3.80997e-36
-8.4814e-40
2.22244e-15
6.4693e-16
6.46337e-16
6.46144e-16
6.46779e-16
6.47698e-16
5.0151e-14
1.42861e-13
1.46515e-13
7.29792e-14
6.65347e-15
4.41066e-14
6.58e-14
6.56668e-14
2.88822e-14
-2.38662e-32
-1.545e-14
-7.5974e-14
-2.28436e-13
-5.44875e-13
-1.10051e-12
-1.89802e-12
-2.76326e-12
-3.33765e-12
-3.28897e-12
-2.60736e-12
-1.64491e-12
-8.18689e-13
-3.19124e-13
-9.67286e-14
-2.26052e-14
-4.03566e-15
-5.44402e-16
-5.48435e-17
-4.07314e-18
-2.1978e-19
-8.47397e-21
-2.28705e-22
-4.20707e-24
-5.08961e-26
-3.85046e-28
-1.68904e-30
-3.7997e-33
-3.48097e-36
-7.30883e-40
2.68951e-15
6.52238e-16
6.47367e-16
6.47346e-16
6.47698e-16
6.49876e-16
8.00418e-16
4.97187e-14
1.54048e-13
1.15253e-13
8.59508e-15
1.2418e-14
6.18256e-14
6.49409e-14
2.88317e-14
-1.19999e-35
-2.40552e-14
-1.09283e-13
-3.12971e-13
-7.21881e-13
-1.42218e-12
-2.40468e-12
-3.44317e-12
-4.09916e-12
-3.98712e-12
-3.12269e-12
-1.94711e-12
-9.5794e-13
-3.69089e-13
-1.10583e-13
-2.55526e-14
-4.51387e-15
-6.03154e-16
-6.02604e-17
-4.44331e-18
-2.38202e-19
-9.12649e-21
-2.44648e-22
-4.46438e-24
-5.34665e-26
-3.99221e-28
-1.72125e-30
-3.78473e-33
-3.36319e-36
-6.79752e-40
1.25131e-15
6.79877e-16
6.62453e-16
6.65272e-16
6.5997e-16
6.55951e-16
8.51186e-16
8.70238e-16
6.13846e-14
6.72156e-14
9.06476e-15
1.09524e-14
5.22583e-14
6.48784e-14
3.36329e-14
5.32732e-37
-3.90446e-14
-1.59803e-13
-4.32971e-13
-9.63456e-13
-1.84851e-12
-3.0586e-12
-4.29721e-12
-5.02808e-12
-4.81177e-12
-3.71005e-12
-2.27804e-12
-1.10362e-12
-4.18652e-13
-1.23482e-13
-2.80963e-14
-4.89108e-15
-6.44985e-16
-6.37193e-17
-4.65611e-18
-2.47902e-19
-9.45025e-21
-2.52362e-22
-4.58975e-24
-5.47582e-26
-4.06647e-28
-1.73847e-30
-3.77193e-33
-3.28534e-36
-6.5153e-40
5.36148e-16
8.38901e-14
9.63294e-14
1.37591e-13
1.1825e-13
6.41379e-15
8.67047e-16
8.93556e-16
9.10007e-16
5.56366e-14
1.59568e-13
1.24359e-13
4.75479e-14
4.79969e-14
2.21017e-14
-7.69149e-16
-6.76912e-14
-2.38676e-13
-6.05303e-13
-1.29554e-12
-2.4166e-12
-3.90557e-12
-5.37102e-12
-6.15838e-12
-5.77884e-12
-4.37042e-12
-2.63229e-12
-1.25069e-12
-4.65166e-13
-1.3448e-13
-2.99899e-14
-5.1189e-15
-6.6253e-16
-6.43433e-17
-4.63138e-18
-2.43426e-19
-9.1794e-21
-2.4287e-22
-4.38035e-24
-5.18212e-26
-3.81094e-28
-1.6085e-30
-3.42744e-33
-2.91599e-36
-5.6825e-40
4.23031e-16
1.67604e-13
3.25567e-13
3.62864e-13
3.76504e-13
3.50345e-13
2.71722e-14
9.10007e-16
7.9117e-14
3.91246e-13
4.10385e-13
2.1249e-13
3.62688e-14
3.61351e-14
1.86107e-14
-1.9374e-14
-1.21374e-13
-3.60747e-13
-8.53183e-13
-1.75421e-12
-3.17723e-12
-5.00594e-12
-6.72145e-12
-7.5286e-12
-6.90259e-12
-5.10047e-12
-3.00096e-12
-1.39241e-12
-5.05497e-13
-1.42576e-13
-3.10062e-14
-5.15985e-15
-6.51151e-16
-6.16829e-17
-4.33348e-18
-2.22477e-19
-8.19991e-21
-2.12123e-22
-3.73959e-24
-4.31931e-26
-3.09354e-28
-1.26622e-30
-2.59969e-33
-2.12024e-36
-3.98991e-40
4.20894e-16
1.18263e-13
3.31956e-13
2.8755e-13
3.3605e-13
6.54713e-13
7.49299e-13
2.97729e-13
3.36927e-13
4.20581e-13
4.1079e-13
1.11633e-13
3.74802e-14
5.58401e-14
2.593e-14
-4.75545e-14
-2.05166e-13
-5.42172e-13
-1.20746e-12
-2.38956e-12
-4.19995e-12
-6.43916e-12
-8.41849e-12
-9.18077e-12
-8.19306e-12
-5.89053e-12
-3.37075e-12
-1.5203e-12
-5.36179e-13
-1.46813e-13
-3.09725e-14
-4.99621e-15
-6.10693e-16
-5.59869e-17
-3.80306e-18
-1.88562e-19
-6.70183e-21
-1.66838e-22
-2.82244e-24
-3.1161e-26
-2.12175e-28
-8.19599e-31
-1.57632e-33
-1.19727e-36
-2.11334e-40
4.51556e-16
4.03932e-15
8.30111e-14
5.1924e-14
5.08286e-14
4.36118e-13
1.18862e-12
1.07149e-12
3.28872e-13
3.32136e-13
1.18821e-13
4.94742e-14
4.92037e-14
7.17461e-14
1.4994e-14
-9.64107e-14
-3.32358e-13
-8.07815e-13
-1.71318e-12
-3.27319e-12
-5.58091e-12
-8.30941e-12
-1.05467e-11
-1.11578e-11
-9.65219e-12
-6.72197e-12
-3.72329e-12
-1.62433e-12
-5.53688e-13
-1.46407e-13
-2.97992e-14
-4.6329e-15
-5.45158e-16
-4.80517e-17
-3.13343e-18
-1.48871e-19
-5.05855e-21
-1.20041e-22
-1.92835e-24
-2.01128e-26
-1.28489e-28
-4.61486e-31
-8.19395e-34
-5.73354e-37
-9.35746e-41
4.74605e-16
5.38811e-16
3.12383e-15
2.62044e-14
3.77691e-14
8.43687e-14
1.05501e-12
9.93973e-13
1.14583e-13
4.98164e-14
4.98164e-14
4.98164e-14
7.90565e-14
7.44176e-14
-6.15023e-15
-1.82098e-13
-5.27205e-13
-1.19831e-12
-2.43936e-12
-4.50986e-12
-7.45398e-12
-1.07525e-11
-1.32051e-11
-1.34984e-11
-1.12682e-11
-7.56427e-12
-4.03474e-12
-1.69347e-12
-5.54844e-13
-1.40876e-13
-2.75022e-14
-4.09597e-15
-4.61035e-16
-3.88054e-17
-2.41157e-18
-1.08926e-19
-3.50825e-21
-7.86142e-23
-1.18677e-24
-1.15583e-26
-6.83794e-29
-2.25586e-31
-3.64932e-34
-2.33633e-37
-3.46193e-41
4.80998e-16
4.81602e-16
4.69932e-16
2.49155e-14
4.71517e-14
5.64424e-14
1.66382e-13
4.49207e-13
7.39456e-14
4.98164e-14
5.40187e-14
1.34066e-13
2.13075e-13
7.07075e-14
-7.95802e-14
-3.3081e-13
-8.26425e-13
-1.77885e-12
-3.49356e-12
-6.25473e-12
-1.00057e-11
-1.39428e-11
-1.65046e-11
-1.62282e-11
-1.30077e-11
-8.37201e-12
-4.27603e-12
-1.71659e-12
-5.37335e-13
-1.30197e-13
-2.42255e-14
-3.43382e-15
-3.6722e-16
-2.93063e-17
-1.72249e-18
-7.33575e-20
-2.21925e-21
-4.64884e-23
-6.52045e-25
-5.85407e-27
-3.16109e-29
-9.43901e-32
-1.37584e-34
-7.93115e-38
-1.04713e-41
4.17087e-16
4.36355e-16
4.45843e-16
2.62234e-14
4.74737e-14
5.05588e-14
5.90226e-14
5.30743e-13
8.86765e-13
2.83513e-13
1.88707e-13
2.56995e-13
2.49292e-13
9.66921e-15
-1.80558e-13
-5.55993e-13
-1.28611e-12
-2.65489e-12
-5.04323e-12
-8.73727e-12
-1.34941e-11
-1.80988e-11
-2.05585e-11
-1.93452e-11
-1.48063e-11
-9.08246e-12
-4.41435e-12
-1.68403e-12
-5.00304e-13
-1.14908e-13
-2.02398e-14
-2.71167e-15
-2.73607e-16
-2.0556e-17
-1.13426e-18
-4.51929e-20
-1.2735e-21
-2.47098e-23
-3.18708e-25
-2.60725e-27
-1.27224e-29
-3.40404e-32
-4.43196e-35
-2.27323e-38
-2.63574e-42
4.17088e-16
4.36097e-16
5.15177e-16
1.23788e-15
1.13844e-14
4.80887e-14
4.97243e-14
6.43781e-13
1.67979e-12
5.11845e-13
2.14773e-13
2.5704e-13
8.92623e-14
-6.26906e-14
-3.55212e-13
-9.2162e-13
-2.00886e-12
-3.99775e-12
-7.34864e-12
-1.22955e-11
-1.82709e-11
-2.34824e-11
-2.54629e-11
-2.27974e-11
-1.65566e-11
-9.6153e-12
-4.41627e-12
-1.58955e-12
-4.44917e-13
-9.61483e-14
-1.59139e-14
-2.00072e-15
-1.89137e-16
-1.3288e-17
-6.83975e-19
-2.53403e-20
-6.61151e-22
-1.18098e-23
-1.39193e-25
-1.03166e-27
-4.52353e-30
-1.08323e-32
-1.25767e-35
-5.6837e-39
-5.75707e-43
4.36082e-16
5.15177e-16
1.09462e-15
8.36518e-15
2.67831e-14
4.44301e-14
7.11176e-13
3.28932e-12
2.36198e-12
1.04825e-13
1.58392e-13
1.64729e-13
2.4536e-35
-2.06915e-13
-6.4573e-13
-1.51803e-12
-3.1652e-12
-6.0897e-12
-1.08188e-11
-1.7426e-11
-2.48042e-11
-3.03844e-11
-3.12603e-11
-2.6452e-11
-1.80985e-11
-9.87626e-12
-4.25312e-12
-1.43271e-12
-3.74724e-13
-7.55656e-14
-1.16567e-14
-1.36437e-15
-1.19955e-16
-7.82909e-18
-3.7385e-19
-1.28235e-20
-3.0884e-22
-5.07067e-24
-5.46081e-26
-3.68249e-28
-1.46418e-30
-3.16805e-33
-3.31451e-36
-1.3336e-39
-1.19232e-43
7.56244e-16
1.0945e-15
2.95243e-13
1.29221e-11
8.36306e-12
1.13821e-12
4.30743e-12
4.22181e-12
2.41827e-12
5.36839e-14
1.27285e-15
-6.59851e-15
-1.33715e-13
-4.59204e-13
-1.15492e-12
-2.5269e-12
-5.05932e-12
-9.40319e-12
-1.60973e-11
-2.4849e-11
-3.36914e-11
-3.90817e-11
-3.78759e-11
-3.00563e-11
-1.92144e-11
-9.76752e-12
-3.90879e-12
-1.22108e-12
-2.95653e-13
-5.51076e-14
-7.84673e-15
-8.46732e-16
-6.8556e-17
-4.11574e-18
-1.80517e-19
-5.67585e-21
-1.24942e-22
-1.86748e-24
-1.82593e-26
-1.11393e-28
-4.00422e-31
-7.82261e-34
-7.33103e-37
-2.62146e-40
-2.06622e-44
1.73129e-15
6.19357e-15
2.09883e-11
3.18568e-11
1.78351e-11
3.08077e-12
4.84938e-12
3.05869e-12
6.72266e-13
8.32065e-13
1.65959e-13
-6.66717e-14
-3.4103e-13
-9.09965e-13
-2.06599e-12
-4.2753e-12
-8.22795e-12
-1.47329e-11
-2.41933e-11
-3.55831e-11
-4.56375e-11
-4.97396e-11
-4.50211e-11
-3.31982e-11
-1.96395e-11
-9.20754e-12
-3.38897e-12
-9.71498e-13
-2.15425e-13
-3.67077e-14
-4.76991e-15
-4.68879e-16
-3.45133e-17
-1.87923e-18
-7.45301e-20
-2.11099e-21
-4.16663e-23
-5.55994e-25
-4.83108e-27
-2.61737e-29
-8.32432e-32
-1.43172e-34
-1.16585e-37
-3.63071e-41
-2.4993e-45
-3.31022e-23
6.01369e-16
1.20248e-15
9.11778e-12
3.81779e-11
3.37011e-11
1.48009e-11
3.61509e-12
4.89421e-12
1.47416e-12
5.86308e-13
1.6583e-13
0
-2.62063e-13
-7.64145e-13
-1.77293e-12
-3.74094e-12
-7.37443e-12
-1.3633e-11
-2.34212e-11
-3.66697e-11
-5.10035e-11
-6.13487e-11
-6.22245e-11
-5.20617e-11
-3.52855e-11
-1.90978e-11
-8.16101e-12
-2.72964e-12
-7.09303e-13
-1.42267e-13
-2.18842e-14
-2.56219e-15
-2.26469e-16
-1.49547e-17
-7.28446e-19
-2.57607e-20
-6.48107e-22
-1.13181e-23
-1.33245e-25
-1.02052e-27
-4.85703e-30
-1.35303e-32
-2.01706e-35
-1.41521e-38
-3.78372e-42
-2.29682e-46
-1.50085e-13
1.58218e-30
1.75126e-13
4.30368e-11
4.31496e-11
1.88032e-11
7.966e-12
8.03555e-12
5.36064e-12
9.30061e-14
7.31186e-34
-1.37814e-14
-2.18289e-13
-6.81829e-13
-1.61663e-12
-3.44699e-12
-6.88623e-12
-1.29928e-11
-2.30252e-11
-3.77334e-11
-5.58784e-11
-7.28004e-11
-8.12419e-11
-7.57856e-11
-5.78777e-11
-3.55814e-11
-1.73793e-11
-6.67488e-12
-2.00005e-12
-4.64345e-13
-8.30223e-14
-1.13607e-14
-1.18081e-15
-9.24541e-17
-5.39469e-18
-2.31588e-19
-7.1961e-21
-1.58609e-22
-2.42361e-24
-2.49326e-26
-1.66754e-28
-6.90862e-31
-1.66297e-33
-2.12022e-36
-1.27441e-39
-2.88982e-43
-1.58209e-47
-1.60533e-22
6.13213e-14
4.72779e-12
4.52752e-11
3.09676e-11
1.00646e-11
9.94284e-12
9.48573e-12
2.13397e-12
1.12908e-31
0
-1.87384e-13
-6.31812e-13
-1.55463e-12
-3.36726e-12
-6.79237e-12
-1.29711e-11
-2.34396e-11
-3.96279e-11
-6.14375e-11
-8.51452e-11
-1.02633e-10
-1.04812e-10
-8.85988e-11
-6.08008e-11
-3.33557e-11
-1.44586e-11
-4.90663e-12
-1.29458e-12
-2.63916e-13
-4.13361e-14
-4.9444e-15
-4.48244e-16
-3.05472e-17
-1.54824e-18
-5.7597e-20
-1.54815e-21
-2.95116e-23
-3.89573e-25
-3.4666e-27
-2.0007e-29
-7.12304e-32
-1.45715e-34
-1.57573e-37
-8.03189e-41
-1.54843e-44
-7.82811e-49
5.79668e-13
4.07942e-13
3.077e-11
3.28752e-11
1.74167e-11
1.05654e-11
1.14792e-11
4.12235e-12
2.99624e-31
3.05043e-51
-1.60288e-13
-5.95548e-13
-1.55498e-12
-3.48034e-12
-7.13267e-12
-1.37573e-11
-2.5158e-11
-4.33697e-11
-6.93615e-11
-1.00538e-10
-1.28543e-10
-1.4104e-10
-1.29479e-10
-9.73073e-11
-5.88188e-11
-2.82095e-11
-1.06268e-11
-3.11981e-12
-7.09603e-13
-1.24362e-13
-1.67063e-14
-1.71072e-15
-1.32573e-16
-7.71241e-18
-3.33221e-19
-1.0568e-20
-2.42364e-22
-3.94117e-24
-4.44909e-26
-3.38066e-28
-1.66137e-30
-4.99221e-33
-8.5824e-36
-7.82802e-39
-3.34148e-42
-5.61293e-46
-2.64779e-50
4.43518e-12
2.92132e-12
5.66397e-11
2.12365e-11
1.97917e-11
2.23935e-11
1.08198e-11
3.61513e-16
9.33409e-35
-1.12543e-13
-5.53135e-13
-1.60816e-12
-3.81169e-12
-8.03799e-12
-1.57109e-11
-2.89747e-11
-5.04973e-11
-8.22732e-11
-1.22803e-10
-1.6362e-10
-1.89219e-10
-1.84862e-10
-1.48958e-10
-9.70487e-11
-5.03393e-11
-2.05512e-11
-6.55006e-12
-1.61949e-12
-3.09179e-13
-4.53766e-14
-5.09726e-15
-4.36026e-16
-2.82081e-17
-1.37003e-18
-4.95072e-20
-1.31447e-21
-2.52603e-23
-3.45132e-25
-3.27321e-27
-2.08586e-29
-8.54637e-32
-2.12811e-34
-3.051e-37
-2.32283e-40
-8.30227e-44
-1.25063e-47
-5.56615e-52
2.03775e-11
1.86614e-11
8.02707e-11
3.44576e-11
1.87954e-11
2.92663e-11
2.21379e-12
-2.7097e-21
-6.05691e-15
-4.84481e-13
-1.72369e-12
-4.47806e-12
-9.87755e-12
-1.96833e-11
-3.65612e-11
-6.40012e-11
-1.05082e-10
-1.59199e-10
-2.17212e-10
-2.5951e-10
-2.63888e-10
-2.22532e-10
-1.52246e-10
-8.30643e-11
-3.56869e-11
-1.19681e-11
-3.11544e-12
-6.26777e-13
-9.7156e-14
-1.15647e-14
-1.05343e-15
-7.31295e-17
-3.84692e-18
-1.52261e-19
-4.48761e-21
-9.73998e-23
-1.53508e-24
-1.72219e-26
-1.33894e-28
-6.97326e-31
-2.32123e-33
-4.74104e-36
-5.59665e-39
-3.51104e-42
-1.07676e-45
-1.49918e-49
-6.38742e-54
4.64684e-11
1.22224e-10
1.04662e-10
1.61465e-11
1.04189e-12
5.22048e-14
-2.94341e-31
-2.25989e-28
-4.06652e-13
-1.92592e-12
-5.71549e-12
-1.35362e-11
-2.77972e-11
-5.20057e-11
-9.08649e-11
-1.48782e-10
-2.25497e-10
-3.09329e-10
-3.73414e-10
-3.85104e-10
-3.29943e-10
-2.29288e-10
-1.26863e-10
-5.51554e-11
-1.86828e-11
-4.90557e-12
-9.95798e-13
-1.55957e-13
-1.8818e-14
-1.74565e-15
-1.24179e-16
-6.74783e-18
-2.78328e-19
-8.65603e-21
-2.01069e-22
-3.45063e-24
-4.30558e-26
-3.81622e-28
-2.3418e-30
-9.58894e-33
-2.53605e-35
-4.15357e-38
-3.97175e-41
-2.08214e-44
-5.78057e-48
-7.7587e-52
-3.29642e-56
4.27714e-05
9.40918e-06
5.31938e-10
1.4233e-09
4.69691e-10
9.93001e-13
3.91352e-14
0
-1.85896e-12
-7.95534e-12
-2.13071e-11
-4.61759e-11
-8.7223e-11
-1.50719e-10
-2.42732e-10
-3.61759e-10
-4.88024e-10
-5.78855e-10
-5.84909e-10
-4.88546e-10
-3.28786e-10
-1.7492e-10
-7.26638e-11
-2.34078e-11
-5.83021e-12
-1.12153e-12
-1.66664e-13
-1.91305e-14
-1.69519e-15
-1.15716e-16
-6.06863e-18
-2.4371e-19
-7.4526e-21
-1.72432e-22
-2.98423e-24
-3.81203e-26
-3.5462e-28
-2.34733e-30
-1.07909e-32
-3.35663e-35
-6.92481e-38
-9.12723e-41
-7.39001e-44
-3.6333e-47
-1.05433e-50
-1.50841e-54
-6.72215e-59
0.00012334
3.02113e-05
1.13377e-09
3.3747e-10
1.37626e-09
8.6793e-11
9.44025e-31
-1.41869e-17
-1.15719e-11
-3.96993e-11
-9.58e-11
-1.8578e-10
-3.12927e-10
-4.82871e-10
-6.88461e-10
-8.83665e-10
-9.85234e-10
-9.21144e-10
-6.9887e-10
-4.19149e-10
-1.95455e-10
-7.02975e-11
-1.94554e-11
-4.1454e-12
-6.81184e-13
-8.64843e-14
-8.49779e-15
-6.46562e-16
-3.80969e-17
-1.73715e-18
-6.11143e-20
-1.65187e-21
-3.41053e-23
-5.35246e-25
-6.33695e-27
-5.60933e-29
-3.67411e-31
-1.76017e-33
-6.1851e-36
-1.59617e-38
-2.97954e-41
-3.90226e-44
-3.47745e-47
-2.04401e-50
-7.25069e-54
-1.20227e-57
-5.59554e-62
1.0629e-09
4.33442e-07
7.97302e-08
2.43573e-11
4.5772e-13
1.87e-30
-2.04809e-46
-2.12445e-11
-9.58637e-11
-2.81213e-10
-5.90112e-10
-9.5378e-10
-1.30753e-09
-1.63679e-09
-1.85561e-09
-1.77332e-09
-1.33727e-09
-7.69182e-10
-3.34009e-10
-1.0966e-10
-2.73785e-11
-5.23599e-12
-7.72803e-13
-8.86892e-14
-7.97366e-15
-5.65955e-16
-3.19645e-17
-1.44597e-18
-5.26568e-20
-1.54639e-21
-3.65472e-23
-6.92289e-25
-1.04275e-26
-1.24066e-28
-1.15718e-30
-8.40786e-33
-4.75195e-35
-2.08373e-37
-7.08756e-40
-1.85859e-42
-3.7041e-45
-5.49244e-48
-5.91117e-51
-4.39592e-54
-1.97889e-57
-3.78114e-61
-1.68588e-65
1.70673e-09
7.29553e-07
3.91253e-08
9.17531e-13
3.0189e-14
5.62689e-34
-5.06021e-11
-3.48674e-10
-1.39798e-09
-3.59116e-09
-5.928e-09
-6.33975e-09
-4.49189e-09
-2.17552e-09
-7.49695e-10
-1.95099e-10
-4.23715e-11
-8.74568e-12
-1.81694e-12
-3.53691e-13
-5.85498e-14
-7.8194e-15
-8.26713e-16
-6.89725e-17
-4.55253e-18
-2.39081e-19
-1.0057e-20
-3.41046e-22
-9.37879e-24
-2.09708e-25
-3.81084e-27
-5.62389e-29
-6.70562e-31
-6.4448e-33
-4.98685e-35
-3.10774e-37
-1.56464e-39
-6.37827e-42
-2.09999e-44
-5.61682e-47
-1.20357e-49
-2.01428e-52
-2.64927e-55
-2.52193e-58
-1.42252e-61
-2.96349e-65
-1.07067e-69
2.40333e-28
5.1904e-28
1.84623e-30
-2.95742e-49
-1.61053e-55
1.90753e-41
2.04143e-44
2.24582e-48
1.59951e-53
5.08493e-22
1.41287e-22
2.62808e-26
9.49269e-27
6.53415e-28
-5.7796e-50
-6.56361e-53
2.05496e-37
4.71471e-40
5.77167e-43
3.33543e-46
5.68015e-50
1.57483e-15
7.059e-16
6.42702e-16
6.86218e-16
7.73697e-16
7.98751e-16
9.1049e-16
1.02773e-14
1.92077e-14
1.9217e-14
1.25402e-14
3.82716e-15
1.19215e-14
1.27034e-14
4.43084e-15
2.31562e-15
3.06759e-15
3.74881e-15
2.84383e-15
1.89888e-15
3.84976e-16
-1.4132e-15
-4.79743e-15
-7.80744e-15
-8.541e-15
-6.7387e-15
-3.84567e-15
-1.47322e-15
-2.52108e-16
1.90091e-16
4.90944e-17
2.56935e-38
2.3751e-24
2.145e-23
6.89005e-24
1.08041e-24
3.72324e-26
3.62268e-28
2.55541e-31
1.24925e-33
5.09615e-37
9.89814e-40
2.0805e-42
2.80145e-45
6.36892e-49
7.2996e-16
6.42702e-16
6.42702e-16
6.8432e-16
7.58485e-16
8.2387e-16
8.8756e-16
1.15525e-15
1.19201e-14
1.9515e-14
1.95213e-14
1.89573e-14
1.93891e-14
1.37602e-14
2.36712e-15
2.31697e-15
2.31923e-15
3.145e-15
4.4889e-15
2.20432e-15
-9.84496e-17
-3.2361e-15
-7.85348e-15
-1.19978e-14
-1.31186e-14
-1.06032e-14
-6.32981e-15
-2.69042e-15
-6.90592e-16
-6.32643e-17
5.92148e-18
1.20278e-18
1.68201e-20
-3.63216e-40
1.81307e-24
1.79803e-25
1.29995e-26
5.24695e-28
1.06507e-29
1.21908e-31
6.83455e-34
4.82286e-59
1.91394e-41
6.35479e-44
1.89006e-47
6.43096e-16
6.43075e-16
6.42702e-16
6.43443e-16
6.6293e-16
6.64502e-16
6.78067e-16
9.08124e-16
1.55031e-15
1.1496e-14
1.97042e-14
1.97042e-14
1.96686e-14
4.55812e-15
2.37573e-15
3.28541e-15
2.53183e-15
4.07127e-15
5.78977e-15
8.16878e-16
-1.18269e-15
-5.57768e-15
-1.20212e-14
-1.78414e-14
-1.95842e-14
-1.61727e-14
-1.00233e-14
-4.55564e-15
-1.39849e-15
-2.45579e-16
-1.36441e-17
7.02176e-19
7.66516e-21
1.01045e-22
3.0143e-24
1.44668e-25
8.23134e-27
3.49452e-28
9.27064e-30
1.40958e-31
1.17974e-33
4.63577e-36
3.3892e-62
-2.95062e-65
3.02319e-48
6.43417e-16
6.42909e-16
6.42702e-16
6.44853e-16
7.36013e-16
5.97022e-15
4.94433e-15
1.67326e-15
1.55091e-15
2.10032e-15
1.33998e-14
1.92914e-14
9.4038e-15
2.39955e-15
2.58554e-15
5.42882e-15
1.10662e-14
1.25094e-14
7.19444e-15
1.69077e-17
-2.41273e-15
-8.60025e-15
-1.76049e-14
-2.58078e-14
-2.85086e-14
-2.39845e-14
-1.53171e-14
-7.30474e-15
-2.47946e-15
-5.25475e-16
-4.53639e-17
3.97905e-18
8.24769e-19
6.62144e-22
-5.37545e-44
4.20756e-26
3.84255e-27
2.13931e-28
6.60867e-30
1.14835e-31
1.09964e-33
5.41682e-36
1.07578e-38
-1.22851e-60
4.92698e-69
6.44219e-16
6.4343e-16
9.77088e-16
6.6723e-16
1.53458e-15
5.25926e-14
6.26424e-14
4.94672e-14
1.30178e-14
2.11463e-15
3.24091e-15
5.12968e-15
3.02504e-15
2.39877e-15
2.49929e-15
4.58461e-15
1.37661e-14
1.27569e-14
1.37146e-15
-2.2859e-25
-3.77081e-15
-1.24973e-14
-2.50262e-14
-3.652e-14
-4.06074e-14
-3.46913e-14
-2.26876e-14
-1.12149e-14
-4.05588e-15
-9.73483e-16
-1.19674e-16
-7.11865e-19
1.11228e-18
3.22751e-20
-2.97167e-47
-5.51926e-25
-3.36299e-26
-6.77132e-28
-7.58349e-30
-5.01264e-32
-1.90724e-34
-3.84913e-37
-3.34431e-40
-1.99135e-44
3.43058e-47
1.88376e-14
1.13806e-14
1.53321e-15
6.67171e-16
1.55153e-15
5.57045e-14
7.48147e-14
7.48201e-14
7.17603e-14
3.65515e-14
2.66942e-15
2.44489e-15
2.39877e-15
2.39877e-15
2.39877e-15
9.85092e-15
1.73849e-14
3.12991e-15
9.57779e-36
-5.06014e-16
-5.80282e-15
-1.78254e-14
-3.49757e-14
-5.08185e-14
-5.67753e-14
-4.90796e-14
-3.26939e-14
-1.66026e-14
-6.27583e-15
-1.65708e-15
-2.67759e-16
-2.12563e-17
-6.82663e-19
-6.52343e-21
-2.78052e-22
-1.96603e-23
-6.03454e-25
-1.05043e-26
-1.1291e-28
-7.53305e-31
-3.01502e-33
-6.76642e-36
-7.5796e-39
-3.39536e-42
-3.4967e-46
1.52133e-13
2.17639e-14
6.66086e-16
6.72846e-16
6.89369e-16
3.58556e-15
6.16106e-14
7.49642e-14
7.49642e-14
6.9656e-14
8.31768e-15
2.449e-15
2.44889e-15
2.39877e-15
1.35408e-14
2.77377e-14
2.31335e-14
4.9889e-16
3.67124e-16
-1.38216e-15
-9.06582e-15
-2.53682e-14
-4.8416e-14
-6.98018e-14
-7.81178e-14
-6.80819e-14
-4.5977e-14
-2.38189e-14
-9.29175e-15
-2.62831e-15
-5.07242e-16
-6.44501e-17
-5.39102e-18
-3.072e-19
-1.24142e-20
-3.63943e-22
-7.71553e-24
-1.15406e-25
-1.17439e-27
-7.77994e-30
-3.1737e-32
-7.37223e-35
-8.62465e-38
-4.05794e-41
-4.41486e-45
1.60803e-13
2.08703e-15
6.52255e-16
6.90848e-16
6.83001e-16
6.83001e-16
5.61001e-15
6.5975e-14
7.39727e-14
5.24066e-14
4.64839e-15
3.09838e-15
2.4258e-15
2.39877e-15
2.50394e-14
2.77377e-14
1.42621e-14
1.74242e-18
-3.11467e-16
-3.53236e-15
-1.43275e-14
-3.61249e-14
-6.65895e-14
-9.48527e-14
-1.05973e-13
-9.27813e-14
-6.32492e-14
-3.32394e-14
-1.32598e-14
-3.91945e-15
-8.3438e-16
-1.25276e-16
-1.31116e-17
-9.52958e-19
-4.80595e-20
-1.67814e-21
-4.0335e-23
-6.59167e-25
-7.17383e-27
-5.03559e-29
-2.17171e-31
-5.33573e-34
-6.59526e-37
-3.24988e-40
-3.59788e-44
9.96592e-15
6.46489e-16
6.46104e-16
6.46099e-16
8.54402e-16
7.2713e-16
7.35892e-16
1.07121e-14
1.92539e-14
7.06409e-15
4.2875e-15
1.07224e-14
1.62717e-14
1.44222e-14
2.86642e-14
2.71212e-14
6.21389e-15
-1.50918e-33
-8.88492e-16
-6.58766e-15
-2.2076e-14
-5.12218e-14
-9.10419e-14
-1.27693e-13
-1.41951e-13
-1.2442e-13
-8.52806e-14
-4.52444e-14
-1.8325e-14
-5.56189e-15
-1.23854e-15
-1.98687e-16
-2.26412e-17
-1.81561e-18
-1.01727e-19
-3.95277e-21
-1.05517e-22
-1.90789e-24
-2.28763e-26
-1.76278e-28
-8.32779e-31
-2.24124e-33
-3.04257e-36
-1.65572e-39
-2.03889e-43
1.94141e-14
8.33285e-15
1.16001e-15
6.46099e-16
9.16001e-16
2.19265e-15
2.18648e-15
2.16989e-15
2.16989e-15
3.29108e-15
6.0929e-15
1.10433e-14
4.45194e-14
5.79356e-14
3.71716e-14
3.70251e-15
-7.46512e-34
-3.86804e-38
-1.50826e-15
-1.08426e-14
-3.3009e-14
-7.19792e-14
-1.2364e-13
-1.70423e-13
-1.8797e-13
-1.64402e-13
-1.12879e-13
-6.01909e-14
-2.46063e-14
-7.58374e-15
-1.72762e-15
-2.85682e-16
-3.3791e-17
-2.82925e-18
-1.66319e-19
-6.80726e-21
-1.92033e-22
-3.67971e-24
-4.68833e-26
-3.84993e-28
-1.94506e-30
-5.62519e-33
-8.26553e-36
-4.92341e-39
-6.74671e-43
2.75049e-13
2.3749e-13
1.16201e-13
1.02056e-15
6.46708e-16
2.51047e-15
1.35176e-14
3.92828e-14
1.18803e-14
3.31058e-15
4.84381e-15
5.88114e-15
2.61846e-14
6.51609e-14
3.70645e-14
7.84034e-17
6.07676e-33
3.01796e-15
-1.41264e-15
-1.66043e-14
-4.81224e-14
-1.0007e-13
-1.66672e-13
-2.2559e-13
-2.46291e-13
-2.14291e-13
-1.46858e-13
-7.838e-14
-3.21769e-14
-1.00057e-14
-2.31389e-15
-3.91059e-16
-4.75823e-17
-4.12166e-18
-2.51856e-19
-1.07562e-20
-3.17601e-22
-6.38592e-24
-8.55489e-26
-7.39889e-28
-3.94273e-30
-1.20429e-32
-1.87153e-35
-1.18049e-38
-1.71115e-42
3.22726e-13
3.22726e-13
2.18363e-13
3.59114e-15
6.47698e-16
6.49876e-16
1.39079e-14
1.16002e-13
1.25404e-13
3.65034e-14
4.90108e-15
5.51961e-15
6.80279e-15
3.95641e-14
4.17022e-14
5.6592e-15
5.57241e-15
1.21222e-14
1.16487e-16
-2.47415e-14
-6.90326e-14
-1.37776e-13
-2.23044e-13
-2.96311e-13
-3.19566e-13
-2.75793e-13
-1.8799e-13
-1.00015e-13
-4.10371e-14
-1.28054e-14
-2.98875e-15
-5.13355e-16
-6.39478e-17
-5.71027e-18
-3.61897e-19
-1.61129e-20
-4.9808e-22
-1.05192e-23
-1.4839e-25
-1.35373e-27
-7.61626e-30
-2.45642e-32
-4.02733e-35
-2.67334e-38
-4.05483e-42
3.22726e-13
3.15851e-13
9.04369e-14
6.65272e-16
6.52095e-16
6.53286e-16
1.70993e-15
6.80423e-14
1.55898e-13
1.64283e-13
1.02477e-13
1.85963e-14
1.06999e-14
3.02331e-14
3.99652e-14
1.15567e-14
1.22074e-14
1.21723e-14
-4.00455e-15
-3.85766e-14
-9.84948e-14
-1.8831e-13
-2.96561e-13
-3.86461e-13
-4.10901e-13
-3.50719e-13
-2.3694e-13
-1.2515e-13
-5.10866e-14
-1.59144e-14
-3.72853e-15
-6.47612e-16
-8.22621e-17
-7.55333e-18
-4.9602e-19
-2.30348e-20
-7.467e-22
-1.66067e-23
-2.4743e-25
-2.38842e-27
-1.42267e-29
-4.85433e-32
-8.39954e-35
-5.85508e-38
-9.26628e-42
1.55316e-13
8.89159e-14
1.37152e-15
1.2639e-15
6.92321e-16
6.686e-16
8.79007e-16
1.46718e-15
4.20589e-14
1.7132e-13
1.82402e-13
1.69908e-13
1.42703e-13
6.33376e-14
2.0122e-14
1.6258e-16
1.09498e-14
2.7828e-15
-1.65079e-14
-6.17144e-14
-1.40326e-13
-2.56151e-13
-3.9232e-13
-5.00946e-13
-5.23934e-13
-4.40933e-13
-2.94169e-13
-1.53625e-13
-6.20968e-14
-1.92085e-14
-4.49054e-15
-7.83779e-16
-1.00896e-16
-9.47197e-18
-6.41241e-19
-3.09194e-20
-1.04668e-21
-2.44133e-23
-3.82532e-25
-3.88808e-27
-2.43771e-29
-8.73624e-32
-1.58066e-34
-1.14385e-37
-1.87958e-41
2.23938e-15
1.90591e-15
1.30478e-15
1.30478e-15
3.52222e-14
2.84827e-14
1.48797e-15
1.27375e-15
1.1063e-15
9.30589e-14
1.82402e-13
1.8197e-13
1.81538e-13
7.71517e-14