/*--------------------------------*- C++ -*----------------------------------*\
| =========                 |                                                 |
| \\      /  F ield         | OpenFOAM: The Open Source CFD Toolbox           |
|  \\    /   O peration     | Version:  v2012                                 |
|   \\  /    A nd           | Website:  www.openfoam.com                      |
|    \\/     M anipulation  |                                                 |
\*---------------------------------------------------------------------------*/
FoamFile
{
    version     2.0;
    format      ascii;
    class       volScalarField;
    location    "1";
    object      p;
}
// * * * * * * * * * * * * * * * * * * * * * * * * * * * * * * * * * * * * * //

dimensions      [1 -1 -2 0 0 0 0];


internalField   nonuniform List<scalar> 
3326
(
3.50148e+06
3.50146e+06
3.50144e+06
3.50142e+06
3.50141e+06
3.5014e+06
3.50139e+06
3.50139e+06
3.50139e+06
3.50159e+06
3.50155e+06
3.50152e+06
3.5015e+06
3.50147e+06
3.50145e+06
3.50143e+06
3.50142e+06
3.50141e+06
3.5014e+06
3.5014e+06
3.5014e+06
3.50401e+06
3.50393e+06
3.50387e+06
3.50378e+06
3.50371e+06
3.50363e+06
3.50355e+06
3.50347e+06
3.50339e+06
3.5033e+06
3.50322e+06
3.50313e+06
3.50304e+06
3.50296e+06
3.50287e+06
3.50278e+06
3.50269e+06
3.50261e+06
3.50252e+06
3.50244e+06
3.50236e+06
3.50228e+06
3.50221e+06
3.50214e+06
3.50207e+06
3.502e+06
3.50194e+06
3.50188e+06
3.50183e+06
3.50178e+06
3.50173e+06
3.50168e+06
3.50164e+06
3.5016e+06
3.50157e+06
3.50154e+06
3.50151e+06
3.50148e+06
3.50146e+06
3.50145e+06
3.50143e+06
3.50142e+06
3.50142e+06
3.50141e+06
3.50142e+06
3.50423e+06
3.50414e+06
3.50406e+06
3.50397e+06
3.50388e+06
3.5038e+06
3.50371e+06
3.50362e+06
3.50353e+06
3.50344e+06
3.50335e+06
3.50325e+06
3.50316e+06
3.50306e+06
3.50296e+06
3.50287e+06
3.50277e+06
3.50268e+06
3.50259e+06
3.5025e+06
3.50242e+06
3.50233e+06
3.50225e+06
3.50218e+06
3.50211e+06
3.50204e+06
3.50197e+06
3.50191e+06
3.50185e+06
3.5018e+06
3.50175e+06
3.5017e+06
3.50166e+06
3.50162e+06
3.50158e+06
3.50155e+06
3.50152e+06
3.5015e+06
3.50148e+06
3.50146e+06
3.50144e+06
3.50143e+06
3.50143e+06
3.50142e+06
3.50143e+06
3.50444e+06
3.50435e+06
3.50427e+06
3.50418e+06
3.50408e+06
3.50399e+06
3.50389e+06
3.50379e+06
3.50369e+06
3.50359e+06
3.50348e+06
3.50338e+06
3.50327e+06
3.50317e+06
3.50306e+06
3.50296e+06
3.50285e+06
3.50275e+06
3.50266e+06
3.50256e+06
3.50247e+06
3.50238e+06
3.5023e+06
3.50222e+06
3.50214e+06
3.50207e+06
3.502e+06
3.50194e+06
3.50188e+06
3.50182e+06
3.50177e+06
3.50172e+06
3.50168e+06
3.50164e+06
3.5016e+06
3.50157e+06
3.50154e+06
3.50151e+06
3.50149e+06
3.50147e+06
3.50146e+06
3.50144e+06
3.50144e+06
3.50143e+06
3.50144e+06
3.50468e+06
3.50457e+06
3.50448e+06
3.50439e+06
3.50429e+06
3.50418e+06
3.50408e+06
3.50396e+06
3.50385e+06
3.50374e+06
3.50362e+06
3.50351e+06
3.50339e+06
3.50328e+06
3.50316e+06
3.50305e+06
3.50294e+06
3.50283e+06
3.50273e+06
3.50263e+06
3.50253e+06
3.50244e+06
3.50235e+06
3.50226e+06
3.50218e+06
3.50211e+06
3.50203e+06
3.50197e+06
3.5019e+06
3.50184e+06
3.50179e+06
3.50174e+06
3.50169e+06
3.50165e+06
3.50161e+06
3.50158e+06
3.50155e+06
3.50152e+06
3.5015e+06
3.50148e+06
3.50147e+06
3.50146e+06
3.50145e+06
3.50145e+06
3.50145e+06
3.50494e+06
3.50482e+06
3.50472e+06
3.50461e+06
3.50451e+06
3.50439e+06
3.50427e+06
3.50415e+06
3.50402e+06
3.5039e+06
3.50377e+06
3.50364e+06
3.50352e+06
3.50339e+06
3.50327e+06
3.50315e+06
3.50303e+06
3.50291e+06
3.5028e+06
3.50269e+06
3.50259e+06
3.50249e+06
3.50239e+06
3.5023e+06
3.50222e+06
3.50214e+06
3.50206e+06
3.50199e+06
3.50193e+06
3.50187e+06
3.50181e+06
3.50176e+06
3.50171e+06
3.50167e+06
3.50163e+06
3.50159e+06
3.50156e+06
3.50154e+06
3.50151e+06
3.50149e+06
3.50148e+06
3.50147e+06
3.50146e+06
3.50145e+06
3.50146e+06
3.50524e+06
3.5051e+06
3.50498e+06
3.50486e+06
3.50474e+06
3.50461e+06
3.50448e+06
3.50434e+06
3.50421e+06
3.50407e+06
3.50393e+06
3.50379e+06
3.50365e+06
3.50351e+06
3.50338e+06
3.50325e+06
3.50312e+06
3.50299e+06
3.50287e+06
3.50276e+06
3.50265e+06
3.50254e+06
3.50244e+06
3.50235e+06
3.50226e+06
3.50217e+06
3.50209e+06
3.50202e+06
3.50195e+06
3.50189e+06
3.50183e+06
3.50178e+06
3.50173e+06
3.50168e+06
3.50164e+06
3.50161e+06
3.50157e+06
3.50155e+06
3.50152e+06
3.5015e+06
3.50149e+06
3.50148e+06
3.50147e+06
3.50146e+06
3.50147e+06
3.50557e+06
3.50541e+06
3.50528e+06
3.50515e+06
3.50501e+06
3.50486e+06
3.50471e+06
3.50456e+06
3.5044e+06
3.50425e+06
3.50409e+06
3.50394e+06
3.50379e+06
3.50364e+06
3.5035e+06
3.50335e+06
3.50321e+06
3.50308e+06
3.50295e+06
3.50283e+06
3.50271e+06
3.5026e+06
3.50249e+06
3.50239e+06
3.5023e+06
3.50221e+06
3.50213e+06
3.50205e+06
3.50198e+06
3.50191e+06
3.50185e+06
3.5018e+06
3.50175e+06
3.5017e+06
3.50166e+06
3.50162e+06
3.50159e+06
3.50156e+06
3.50153e+06
3.50151e+06
3.5015e+06
3.50149e+06
3.50148e+06
3.50147e+06
3.50148e+06
3.50596e+06
3.50578e+06
3.50562e+06
3.50545e+06
3.50529e+06
3.50512e+06
3.50495e+06
3.50478e+06
3.50461e+06
3.50444e+06
3.50427e+06
3.5041e+06
3.50394e+06
3.50377e+06
3.50362e+06
3.50346e+06
3.50331e+06
3.50316e+06
3.50303e+06
3.50289e+06
3.50277e+06
3.50265e+06
3.50254e+06
3.50243e+06
3.50233e+06
3.50224e+06
3.50216e+06
3.50208e+06
3.502e+06
3.50193e+06
3.50187e+06
3.50181e+06
3.50176e+06
3.50171e+06
3.50167e+06
3.50163e+06
3.5016e+06
3.50157e+06
3.50154e+06
3.50152e+06
3.50151e+06
3.50149e+06
3.50149e+06
3.50148e+06
3.50148e+06
3.50636e+06
3.50616e+06
3.50598e+06
3.50579e+06
3.5056e+06
3.50541e+06
3.50522e+06
3.50503e+06
3.50484e+06
3.50465e+06
3.50446e+06
3.50427e+06
3.50409e+06
3.50391e+06
3.50374e+06
3.50357e+06
3.50341e+06
3.50325e+06
3.50311e+06
3.50296e+06
3.50283e+06
3.50271e+06
3.50259e+06
3.50248e+06
3.50237e+06
3.50228e+06
3.50219e+06
3.5021e+06
3.50203e+06
3.50196e+06
3.50189e+06
3.50183e+06
3.50178e+06
3.50173e+06
3.50168e+06
3.50165e+06
3.50161e+06
3.50158e+06
3.50155e+06
3.50153e+06
3.50152e+06
3.5015e+06
3.5015e+06
3.50149e+06
3.50149e+06
3.5068e+06
3.50658e+06
3.50637e+06
3.50616e+06
3.50595e+06
3.50573e+06
3.50551e+06
3.50529e+06
3.50508e+06
3.50487e+06
3.50466e+06
3.50445e+06
3.50426e+06
3.50406e+06
3.50387e+06
3.50369e+06
3.50351e+06
3.50335e+06
3.50319e+06
3.50304e+06
3.5029e+06
3.50276e+06
3.50264e+06
3.50252e+06
3.50241e+06
3.50231e+06
3.50222e+06
3.50213e+06
3.50205e+06
3.50198e+06
3.50191e+06
3.50185e+06
3.50179e+06
3.50174e+06
3.5017e+06
3.50166e+06
3.50162e+06
3.50159e+06
3.50156e+06
3.50154e+06
3.50153e+06
3.50151e+06
3.5015e+06
3.5015e+06
3.5015e+06
3.50728e+06
3.50704e+06
3.50681e+06
3.50657e+06
3.50632e+06
3.50607e+06
3.50582e+06
3.50558e+06
3.50534e+06
3.5051e+06
3.50487e+06
3.50465e+06
3.50443e+06
3.50421e+06
3.50401e+06
3.50381e+06
3.50362e+06
3.50344e+06
3.50327e+06
3.50311e+06
3.50296e+06
3.50282e+06
3.50269e+06
3.50256e+06
3.50245e+06
3.50234e+06
3.50225e+06
3.50216e+06
3.50207e+06
3.502e+06
3.50193e+06
3.50187e+06
3.50181e+06
3.50176e+06
3.50171e+06
3.50167e+06
3.50163e+06
3.5016e+06
3.50157e+06
3.50155e+06
3.50153e+06
3.50152e+06
3.50151e+06
3.50151e+06
3.50151e+06
3.50783e+06
3.50756e+06
3.50729e+06
3.50701e+06
3.50673e+06
3.50644e+06
3.50616e+06
3.50589e+06
3.50562e+06
3.50536e+06
3.5051e+06
3.50485e+06
3.50461e+06
3.50437e+06
3.50415e+06
3.50394e+06
3.50373e+06
3.50354e+06
3.50336e+06
3.50318e+06
3.50302e+06
3.50287e+06
3.50274e+06
3.50261e+06
3.50249e+06
3.50238e+06
3.50228e+06
3.50218e+06
3.5021e+06
3.50202e+06
3.50195e+06
3.50188e+06
3.50182e+06
3.50177e+06
3.50172e+06
3.50168e+06
3.50164e+06
3.50161e+06
3.50158e+06
3.50156e+06
3.50154e+06
3.50153e+06
3.50152e+06
3.50152e+06
3.50152e+06
3.5084e+06
3.5081e+06
3.5078e+06
3.50748e+06
3.50716e+06
3.50684e+06
3.50653e+06
3.50622e+06
3.50592e+06
3.50562e+06
3.50534e+06
3.50506e+06
3.5048e+06
3.50454e+06
3.5043e+06
3.50407e+06
3.50384e+06
3.50364e+06
3.50344e+06
3.50326e+06
3.50309e+06
3.50293e+06
3.50279e+06
3.50265e+06
3.50253e+06
3.50241e+06
3.50231e+06
3.50221e+06
3.50212e+06
3.50204e+06
3.50197e+06
3.5019e+06
3.50184e+06
3.50178e+06
3.50173e+06
3.50169e+06
3.50165e+06
3.50162e+06
3.50159e+06
3.50157e+06
3.50155e+06
3.50154e+06
3.50153e+06
3.50152e+06
3.50152e+06
3.50908e+06
3.50872e+06
3.50837e+06
3.508e+06
3.50764e+06
3.50727e+06
3.50692e+06
3.50657e+06
3.50624e+06
3.50591e+06
3.5056e+06
3.50529e+06
3.505e+06
3.50472e+06
3.50445e+06
3.5042e+06
3.50396e+06
3.50374e+06
3.50353e+06
3.50334e+06
3.50316e+06
3.50299e+06
3.50284e+06
3.50269e+06
3.50256e+06
3.50244e+06
3.50233e+06
3.50223e+06
3.50214e+06
3.50206e+06
3.50198e+06
3.50191e+06
3.50185e+06
3.5018e+06
3.50175e+06
3.5017e+06
3.50166e+06
3.50163e+06
3.5016e+06
3.50158e+06
3.50156e+06
3.50154e+06
3.50153e+06
3.50153e+06
3.50153e+06
3.50979e+06
3.50938e+06
3.50899e+06
3.50856e+06
3.50815e+06
3.50774e+06
3.50734e+06
3.50696e+06
3.50658e+06
3.50622e+06
3.50587e+06
3.50553e+06
3.50521e+06
3.5049e+06
3.50461e+06
3.50434e+06
3.50408e+06
3.50384e+06
3.50362e+06
3.50341e+06
3.50322e+06
3.50305e+06
3.50288e+06
3.50274e+06
3.5026e+06
3.50248e+06
3.50236e+06
3.50226e+06
3.50216e+06
3.50208e+06
3.502e+06
3.50193e+06
3.50186e+06
3.50181e+06
3.50176e+06
3.50171e+06
3.50167e+06
3.50164e+06
3.50161e+06
3.50158e+06
3.50157e+06
3.50155e+06
3.50154e+06
3.50154e+06
3.50154e+06
3.51075e+06
3.5102e+06
3.50972e+06
3.50921e+06
3.50872e+06
3.50826e+06
3.50781e+06
3.50737e+06
3.50695e+06
3.50655e+06
3.50616e+06
3.50578e+06
3.50543e+06
3.50509e+06
3.50478e+06
3.50448e+06
3.5042e+06
3.50395e+06
3.50371e+06
3.50349e+06
3.50329e+06
3.5031e+06
3.50293e+06
3.50278e+06
3.50264e+06
3.50251e+06
3.50239e+06
3.50228e+06
3.50218e+06
3.5021e+06
3.50202e+06
3.50194e+06
3.50188e+06
3.50182e+06
3.50177e+06
3.50172e+06
3.50168e+06
3.50165e+06
3.50162e+06
3.50159e+06
3.50157e+06
3.50156e+06
3.50155e+06
3.50154e+06
3.50154e+06
3.51164e+06
3.511e+06
3.51046e+06
3.50989e+06
3.50934e+06
3.50882e+06
3.50831e+06
3.50782e+06
3.50735e+06
3.50689e+06
3.50646e+06
3.50605e+06
3.50566e+06
3.50529e+06
3.50495e+06
3.50462e+06
3.50433e+06
3.50405e+06
3.5038e+06
3.50357e+06
3.50335e+06
3.50316e+06
3.50298e+06
3.50282e+06
3.50267e+06
3.50254e+06
3.50242e+06
3.5023e+06
3.5022e+06
3.50211e+06
3.50203e+06
3.50196e+06
3.50189e+06
3.50183e+06
3.50178e+06
3.50173e+06
3.50169e+06
3.50165e+06
3.50162e+06
3.5016e+06
3.50158e+06
3.50156e+06
3.50155e+06
3.50155e+06
3.50155e+06
3.51276e+06
3.51197e+06
3.51134e+06
3.51067e+06
3.51004e+06
3.50944e+06
3.50886e+06
3.50831e+06
3.50777e+06
3.50727e+06
3.50678e+06
3.50632e+06
3.50589e+06
3.50549e+06
3.50512e+06
3.50477e+06
3.50445e+06
3.50416e+06
3.50389e+06
3.50364e+06
3.50342e+06
3.50322e+06
3.50303e+06
3.50286e+06
3.50271e+06
3.50257e+06
3.50244e+06
3.50233e+06
3.50222e+06
3.50213e+06
3.50205e+06
3.50197e+06
3.5019e+06
3.50184e+06
3.50179e+06
3.50174e+06
3.5017e+06
3.50166e+06
3.50163e+06
3.50161e+06
3.50159e+06
3.50157e+06
3.50156e+06
3.50155e+06
3.50155e+06
3.51379e+06
3.51294e+06
3.51224e+06
3.5115e+06
3.5108e+06
3.51012e+06
3.50946e+06
3.50883e+06
3.50823e+06
3.50766e+06
3.50712e+06
3.50661e+06
3.50614e+06
3.5057e+06
3.5053e+06
3.50492e+06
3.50458e+06
3.50427e+06
3.50398e+06
3.50372e+06
3.50349e+06
3.50327e+06
3.50308e+06
3.5029e+06
3.50274e+06
3.5026e+06
3.50247e+06
3.50235e+06
3.50224e+06
3.50215e+06
3.50206e+06
3.50198e+06
3.50191e+06
3.50185e+06
3.5018e+06
3.50175e+06
3.5017e+06
3.50167e+06
3.50164e+06
3.50161e+06
3.50159e+06
3.50158e+06
3.50157e+06
3.50156e+06
3.50156e+06
3.51524e+06
3.5142e+06
3.51335e+06
3.51248e+06
3.51166e+06
3.51087e+06
3.51012e+06
3.5094e+06
3.50872e+06
3.50807e+06
3.50747e+06
3.50691e+06
3.5064e+06
3.50592e+06
3.50548e+06
3.50508e+06
3.50471e+06
3.50437e+06
3.50407e+06
3.5038e+06
3.50355e+06
3.50332e+06
3.50312e+06
3.50294e+06
3.50277e+06
3.50262e+06
3.50249e+06
3.50237e+06
3.50226e+06
3.50216e+06
3.50207e+06
3.50199e+06
3.50192e+06
3.50186e+06
3.5018e+06
3.50175e+06
3.50171e+06
3.50167e+06
3.50164e+06
3.50162e+06
3.5016e+06
3.50158e+06
3.50157e+06
3.50156e+06
3.50156e+06
3.51652e+06
3.51542e+06
3.51447e+06
3.51351e+06
3.51258e+06
3.51168e+06
3.51082e+06
3.51e+06
3.50923e+06
3.50851e+06
3.50784e+06
3.50723e+06
3.50666e+06
3.50614e+06
3.50566e+06
3.50523e+06
3.50484e+06
3.50448e+06
3.50416e+06
3.50387e+06
3.50361e+06
3.50338e+06
3.50316e+06
3.50297e+06
3.5028e+06
3.50265e+06
3.50251e+06
3.50239e+06
3.50228e+06
3.50218e+06
3.50209e+06
3.502e+06
3.50193e+06
3.50187e+06
3.50181e+06
3.50176e+06
3.50172e+06
3.50168e+06
3.50165e+06
3.50162e+06
3.5016e+06
3.50159e+06
3.50157e+06
3.50157e+06
3.50157e+06
3.51851e+06
3.51713e+06
3.51594e+06
3.51477e+06
3.51365e+06
3.51259e+06
3.51159e+06
3.51065e+06
3.50978e+06
3.50897e+06
3.50823e+06
3.50755e+06
3.50692e+06
3.50636e+06
3.50585e+06
3.50538e+06
3.50496e+06
3.50459e+06
3.50425e+06
3.50394e+06
3.50367e+06
3.50343e+06
3.50321e+06
3.50301e+06
3.50283e+06
3.50268e+06
3.50253e+06
3.50241e+06
3.50229e+06
3.50219e+06
3.5021e+06
3.50201e+06
3.50194e+06
3.50188e+06
3.50182e+06
3.50177e+06
3.50172e+06
3.50169e+06
3.50165e+06
3.50163e+06
3.50161e+06
3.50159e+06
3.50158e+06
3.50157e+06
3.50157e+06
3.52013e+06
3.51868e+06
3.51738e+06
3.51605e+06
3.51478e+06
3.51356e+06
3.51242e+06
3.51135e+06
3.51036e+06
3.50945e+06
3.50863e+06
3.50788e+06
3.5072e+06
3.50658e+06
3.50603e+06
3.50553e+06
3.50509e+06
3.50469e+06
3.50433e+06
3.50401e+06
3.50373e+06
3.50347e+06
3.50325e+06
3.50304e+06
3.50286e+06
3.5027e+06
3.50255e+06
3.50242e+06
3.50231e+06
3.5022e+06
3.50211e+06
3.50202e+06
3.50195e+06
3.50188e+06
3.50182e+06
3.50177e+06
3.50173e+06
3.50169e+06
3.50166e+06
3.50163e+06
3.50161e+06
3.50159e+06
3.50158e+06
3.50158e+06
3.50158e+06
3.523e+06
3.52108e+06
3.51936e+06
3.51768e+06
3.51611e+06
3.51466e+06
3.51332e+06
3.51209e+06
3.51097e+06
3.50995e+06
3.50903e+06
3.50821e+06
3.50747e+06
3.5068e+06
3.50621e+06
3.50568e+06
3.50521e+06
3.50479e+06
3.50441e+06
3.50408e+06
3.50378e+06
3.50352e+06
3.50328e+06
3.50308e+06
3.50289e+06
3.50272e+06
3.50257e+06
3.50244e+06
3.50232e+06
3.50221e+06
3.50212e+06
3.50203e+06
3.50196e+06
3.50189e+06
3.50183e+06
3.50178e+06
3.50173e+06
3.50169e+06
3.50166e+06
3.50164e+06
3.50161e+06
3.5016e+06
3.50159e+06
3.50158e+06
3.50158e+06
3.52503e+06
3.52301e+06
3.52112e+06
3.51923e+06
3.51744e+06
3.51578e+06
3.51425e+06
3.51285e+06
3.51159e+06
3.51046e+06
3.50945e+06
3.50854e+06
3.50774e+06
3.50702e+06
3.50639e+06
3.50583e+06
3.50533e+06
3.50488e+06
3.50449e+06
3.50414e+06
3.50384e+06
3.50356e+06
3.50332e+06
3.5031e+06
3.50291e+06
3.50274e+06
3.50259e+06
3.50245e+06
3.50233e+06
3.50222e+06
3.50213e+06
3.50204e+06
3.50196e+06
3.5019e+06
3.50184e+06
3.50178e+06
3.50174e+06
3.5017e+06
3.50167e+06
3.50164e+06
3.50162e+06
3.5016e+06
3.50159e+06
3.50158e+06
3.50158e+06
3.53481e+06
3.53186e+06
3.52907e+06
3.52624e+06
3.5237e+06
3.52128e+06
3.51908e+06
3.51707e+06
3.51528e+06
3.51367e+06
3.51225e+06
3.51098e+06
3.50986e+06
3.50888e+06
3.50801e+06
3.50724e+06
3.50656e+06
3.50596e+06
3.50544e+06
3.50497e+06
3.50457e+06
3.5042e+06
3.50389e+06
3.5036e+06
3.50335e+06
3.50313e+06
3.50293e+06
3.50276e+06
3.5026e+06
3.50247e+06
3.50234e+06
3.50223e+06
3.50213e+06
3.50205e+06
3.50197e+06
3.5019e+06
3.50184e+06
3.50179e+06
3.50174e+06
3.5017e+06
3.50167e+06
3.50164e+06
3.50162e+06
3.5016e+06
3.50159e+06
3.50159e+06
3.50158e+06
3.53733e+06
3.5343e+06
3.53152e+06
3.52853e+06
3.52577e+06
3.52308e+06
3.5206e+06
3.51832e+06
3.51629e+06
3.51449e+06
3.5129e+06
3.5115e+06
3.51027e+06
3.5092e+06
3.50827e+06
3.50744e+06
3.50673e+06
3.5061e+06
3.50554e+06
3.50506e+06
3.50463e+06
3.50426e+06
3.50393e+06
3.50364e+06
3.50338e+06
3.50316e+06
3.50295e+06
3.50278e+06
3.50262e+06
3.50248e+06
3.50235e+06
3.50224e+06
3.50214e+06
3.50205e+06
3.50198e+06
3.50191e+06
3.50184e+06
3.50179e+06
3.50175e+06
3.50171e+06
3.50167e+06
3.50164e+06
3.50162e+06
3.50161e+06
3.50159e+06
3.50159e+06
3.50159e+06
3.5471e+06
3.54177e+06
3.53733e+06
3.53294e+06
3.52914e+06
3.52562e+06
3.52253e+06
3.51979e+06
3.51742e+06
3.51535e+06
3.51356e+06
3.51202e+06
3.51068e+06
3.50952e+06
3.50851e+06
3.50764e+06
3.50688e+06
3.50622e+06
3.50564e+06
3.50514e+06
3.5047e+06
3.50431e+06
3.50397e+06
3.50367e+06
3.50341e+06
3.50318e+06
3.50297e+06
3.50279e+06
3.50263e+06
3.50249e+06
3.50236e+06
3.50225e+06
3.50215e+06
3.50206e+06
3.50198e+06
3.50191e+06
3.50185e+06
3.50179e+06
3.50175e+06
3.50171e+06
3.50167e+06
3.50165e+06
3.50162e+06
3.50161e+06
3.5016e+06
3.50159e+06
3.50159e+06
3.5503e+06
3.54478e+06
3.54038e+06
3.53562e+06
3.53151e+06
3.5276e+06
3.52417e+06
3.5211e+06
3.51845e+06
3.51616e+06
3.5142e+06
3.51251e+06
3.51106e+06
3.50981e+06
3.50874e+06
3.50782e+06
3.50702e+06
3.50633e+06
3.50573e+06
3.50521e+06
3.50475e+06
3.50435e+06
3.50401e+06
3.5037e+06
3.50343e+06
3.5032e+06
3.50299e+06
3.5028e+06
3.50264e+06
3.5025e+06
3.50237e+06
3.50225e+06
3.50215e+06
3.50206e+06
3.50198e+06
3.50191e+06
3.50185e+06
3.5018e+06
3.50175e+06
3.50171e+06
3.50168e+06
3.50165e+06
3.50163e+06
3.50161e+06
3.5016e+06
3.50159e+06
3.50159e+06
3.56534e+06
3.55586e+06
3.54861e+06
3.54145e+06
3.53574e+06
3.5306e+06
3.52634e+06
3.52267e+06
3.5196e+06
3.517e+06
3.51482e+06
3.51298e+06
3.51142e+06
3.51009e+06
3.50895e+06
3.50798e+06
3.50715e+06
3.50643e+06
3.50581e+06
3.50527e+06
3.5048e+06
3.50439e+06
3.50404e+06
3.50372e+06
3.50345e+06
3.50321e+06
3.503e+06
3.50281e+06
3.50265e+06
3.5025e+06
3.50237e+06
3.50226e+06
3.50216e+06
3.50207e+06
3.50199e+06
3.50192e+06
3.50185e+06
3.5018e+06
3.50175e+06
3.50171e+06
3.50168e+06
3.50165e+06
3.50163e+06
3.50161e+06
3.5016e+06
3.50159e+06
3.50159e+06
3.57007e+06
3.55971e+06
3.55224e+06
3.54434e+06
3.53822e+06
3.53257e+06
3.52792e+06
3.52389e+06
3.52055e+06
3.51773e+06
3.51537e+06
3.51339e+06
3.51173e+06
3.51033e+06
3.50914e+06
3.50812e+06
3.50725e+06
3.50651e+06
3.50587e+06
3.50532e+06
3.50484e+06
3.50442e+06
3.50406e+06
3.50374e+06
3.50347e+06
3.50322e+06
3.50301e+06
3.50282e+06
3.50266e+06
3.50251e+06
3.50238e+06
3.50226e+06
3.50216e+06
3.50207e+06
3.50199e+06
3.50192e+06
3.50185e+06
3.5018e+06
3.50175e+06
3.50171e+06
3.50168e+06
3.50165e+06
3.50163e+06
3.50161e+06
3.5016e+06
3.50159e+06
3.50159e+06
3.59157e+06
3.57535e+06
3.56277e+06
3.55136e+06
3.54301e+06
3.53574e+06
3.53007e+06
3.52536e+06
3.52156e+06
3.51844e+06
3.51588e+06
3.51377e+06
3.51201e+06
3.51053e+06
3.50929e+06
3.50824e+06
3.50734e+06
3.50658e+06
3.50592e+06
3.50536e+06
3.50487e+06
3.50445e+06
3.50408e+06
3.50376e+06
3.50348e+06
3.50323e+06
3.50302e+06
3.50283e+06
3.50266e+06
3.50251e+06
3.50238e+06
3.50226e+06
3.50216e+06
3.50207e+06
3.50199e+06
3.50192e+06
3.50185e+06
3.5018e+06
3.50175e+06
3.50171e+06
3.50168e+06
3.50165e+06
3.50163e+06
3.50161e+06
3.5016e+06
3.50159e+06
3.50159e+06
3.59178e+06
3.57842e+06
3.56637e+06
3.55412e+06
3.54528e+06
3.53738e+06
3.53133e+06
3.5263e+06
3.52227e+06
3.51896e+06
3.51627e+06
3.51405e+06
3.51222e+06
3.51069e+06
3.50941e+06
3.50833e+06
3.50741e+06
3.50663e+06
3.50596e+06
3.50539e+06
3.50489e+06
3.50446e+06
3.50409e+06
3.50377e+06
3.50349e+06
3.50324e+06
3.50302e+06
3.50283e+06
3.50266e+06
3.50251e+06
3.50238e+06
3.50227e+06
3.50216e+06
3.50207e+06
3.50199e+06
3.50192e+06
3.50185e+06
3.5018e+06
3.50175e+06
3.50171e+06
3.50168e+06
3.50165e+06
3.50163e+06
3.50161e+06
3.5016e+06
3.50159e+06
3.50159e+06
3.63737e+06
3.61084e+06
3.58093e+06
3.56245e+06
3.54988e+06
3.54005e+06
3.53298e+06
3.52734e+06
3.52295e+06
3.51942e+06
3.51659e+06
3.51427e+06
3.51238e+06
3.5108e+06
3.50949e+06
3.50839e+06
3.50745e+06
3.50666e+06
3.50598e+06
3.5054e+06
3.5049e+06
3.50447e+06
3.5041e+06
3.50377e+06
3.50349e+06
3.50324e+06
3.50302e+06
3.50283e+06
3.50266e+06
3.50251e+06
3.50238e+06
3.50226e+06
3.50216e+06
3.50207e+06
3.50199e+06
3.50192e+06
3.50185e+06
3.5018e+06
3.50175e+06
3.50171e+06
3.50168e+06
3.50165e+06
3.50163e+06
3.50161e+06
3.5016e+06
3.50159e+06
3.50159e+06
3.59527e+06
3.59761e+06
3.57519e+06
3.56055e+06
3.5497e+06
3.54028e+06
3.53335e+06
3.52767e+06
3.52321e+06
3.51961e+06
3.51672e+06
3.51437e+06
3.51244e+06
3.51085e+06
3.50952e+06
3.50841e+06
3.50746e+06
3.50667e+06
3.50599e+06
3.5054e+06
3.5049e+06
3.50447e+06
3.50409e+06
3.50377e+06
3.50349e+06
3.50324e+06
3.50302e+06
3.50283e+06
3.50266e+06
3.50251e+06
3.50238e+06
3.50226e+06
3.50216e+06
3.50207e+06
3.50199e+06
3.50191e+06
3.50185e+06
3.5018e+06
3.50175e+06
3.50171e+06
3.50168e+06
3.50165e+06
3.50163e+06
3.50161e+06
3.5016e+06
3.50159e+06
3.50159e+06
3.65036e+06
3.62381e+06
3.58458e+06
3.56569e+06
3.55177e+06
3.54129e+06
3.53383e+06
3.52791e+06
3.52332e+06
3.51965e+06
3.51673e+06
3.51436e+06
3.51242e+06
3.51082e+06
3.50949e+06
3.50838e+06
3.50744e+06
3.50664e+06
3.50596e+06
3.50538e+06
3.50489e+06
3.50445e+06
3.50408e+06
3.50376e+06
3.50348e+06
3.50323e+06
3.50301e+06
3.50282e+06
3.50265e+06
3.5025e+06
3.50237e+06
3.50226e+06
3.50215e+06
3.50206e+06
3.50198e+06
3.50191e+06
3.50185e+06
3.5018e+06
3.50175e+06
3.50171e+06
3.50168e+06
3.50165e+06
3.50163e+06
3.50161e+06
3.5016e+06
3.50159e+06
3.50159e+06
3.50148e+06
3.50146e+06
3.50144e+06
3.50142e+06
3.50141e+06
3.5014e+06
3.50139e+06
3.50139e+06
3.50139e+06
3.50159e+06
3.50155e+06
3.50152e+06
3.5015e+06
3.50147e+06
3.50145e+06
3.50143e+06
3.50142e+06
3.50141e+06
3.5014e+06
3.5014e+06
3.5014e+06
3.50401e+06
3.50393e+06
3.50387e+06
3.50378e+06
3.50371e+06
3.50363e+06
3.50355e+06
3.50347e+06
3.50339e+06
3.5033e+06
3.50322e+06
3.50313e+06
3.50304e+06
3.50296e+06
3.50287e+06
3.50278e+06
3.50269e+06
3.50261e+06
3.50252e+06
3.50244e+06
3.50236e+06
3.50228e+06
3.50221e+06
3.50214e+06
3.50207e+06
3.502e+06
3.50194e+06
3.50188e+06
3.50183e+06
3.50178e+06
3.50173e+06
3.50168e+06
3.50164e+06
3.5016e+06
3.50157e+06
3.50154e+06
3.50151e+06
3.50148e+06
3.50146e+06
3.50145e+06
3.50143e+06
3.50142e+06
3.50142e+06
3.50141e+06
3.50142e+06
3.50423e+06
3.50414e+06
3.50406e+06
3.50397e+06
3.50388e+06
3.5038e+06
3.50371e+06
3.50362e+06
3.50353e+06
3.50344e+06
3.50335e+06
3.50325e+06
3.50316e+06
3.50306e+06
3.50296e+06
3.50287e+06
3.50277e+06
3.50268e+06
3.50259e+06
3.5025e+06
3.50242e+06
3.50233e+06
3.50225e+06
3.50218e+06
3.50211e+06
3.50204e+06
3.50197e+06
3.50191e+06
3.50185e+06
3.5018e+06
3.50175e+06
3.5017e+06
3.50166e+06
3.50162e+06
3.50158e+06
3.50155e+06
3.50152e+06
3.5015e+06
3.50148e+06
3.50146e+06
3.50144e+06
3.50143e+06
3.50143e+06
3.50142e+06
3.50143e+06
3.50444e+06
3.50435e+06
3.50427e+06
3.50418e+06
3.50408e+06
3.50399e+06
3.50389e+06
3.50379e+06
3.50369e+06
3.50359e+06
3.50348e+06
3.50338e+06
3.50327e+06
3.50317e+06
3.50306e+06
3.50296e+06
3.50285e+06
3.50275e+06
3.50266e+06
3.50256e+06
3.50247e+06
3.50238e+06
3.5023e+06
3.50222e+06
3.50214e+06
3.50207e+06
3.502e+06
3.50194e+06
3.50188e+06
3.50182e+06
3.50177e+06
3.50172e+06
3.50168e+06
3.50164e+06
3.5016e+06
3.50157e+06
3.50154e+06
3.50151e+06
3.50149e+06
3.50147e+06
3.50146e+06
3.50144e+06
3.50144e+06
3.50143e+06
3.50144e+06
3.50468e+06
3.50457e+06
3.50448e+06
3.50439e+06
3.50429e+06
3.50418e+06
3.50408e+06
3.50396e+06
3.50385e+06
3.50374e+06
3.50362e+06
3.50351e+06
3.50339e+06
3.50328e+06
3.50316e+06
3.50305e+06
3.50294e+06
3.50283e+06
3.50273e+06
3.50263e+06
3.50253e+06
3.50244e+06
3.50235e+06
3.50226e+06
3.50218e+06
3.50211e+06
3.50203e+06
3.50197e+06
3.5019e+06
3.50184e+06
3.50179e+06
3.50174e+06
3.50169e+06
3.50165e+06
3.50161e+06
3.50158e+06
3.50155e+06
3.50152e+06
3.5015e+06
3.50148e+06
3.50147e+06
3.50146e+06
3.50145e+06
3.50145e+06
3.50145e+06
3.50494e+06
3.50482e+06
3.50472e+06
3.50461e+06
3.50451e+06
3.50439e+06
3.50427e+06
3.50415e+06
3.50402e+06
3.5039e+06
3.50377e+06
3.50364e+06
3.50352e+06
3.50339e+06
3.50327e+06
3.50315e+06
3.50303e+06
3.50291e+06
3.5028e+06
3.50269e+06
3.50259e+06
3.50249e+06
3.50239e+06
3.5023e+06
3.50222e+06
3.50214e+06
3.50206e+06
3.50199e+06
3.50193e+06
3.50187e+06
3.50181e+06
3.50176e+06
3.50171e+06
3.50167e+06
3.50163e+06
3.50159e+06
3.50156e+06
3.50154e+06
3.50151e+06
3.50149e+06
3.50148e+06
3.50147e+06
3.50146e+06
3.50145e+06
3.50146e+06
3.50524e+06
3.5051e+06
3.50498e+06
3.50486e+06
3.50474e+06
3.50461e+06
3.50448e+06
3.50434e+06
3.50421e+06
3.50407e+06
3.50393e+06
3.50379e+06
3.50365e+06
3.50351e+06
3.50338e+06
3.50325e+06
3.50312e+06
3.50299e+06
3.50287e+06
3.50276e+06
3.50265e+06
3.50254e+06
3.50244e+06
3.50235e+06
3.50226e+06
3.50217e+06
3.50209e+06
3.50202e+06
3.50195e+06
3.50189e+06
3.50183e+06
3.50178e+06
3.50173e+06
3.50168e+06
3.50164e+06
3.50161e+06
3.50157e+06
3.50155e+06
3.50152e+06
3.5015e+06
3.50149e+06
3.50148e+06
3.50147e+06
3.50146e+06
3.50147e+06
3.50557e+06
3.50541e+06
3.50528e+06
3.50515e+06
3.50501e+06
3.50486e+06
3.50471e+06
3.50456e+06
3.5044e+06
3.50425e+06
3.50409e+06
3.50394e+06
3.50379e+06
3.50364e+06
3.5035e+06
3.50335e+06
3.50321e+06
3.50308e+06
3.50295e+06
3.50283e+06
3.50271e+06
3.5026e+06
3.50249e+06
3.50239e+06
3.5023e+06
3.50221e+06
3.50213e+06
3.50205e+06
3.50198e+06
3.50191e+06
3.50185e+06
3.5018e+06
3.50175e+06
3.5017e+06
3.50166e+06
3.50162e+06
3.50159e+06
3.50156e+06
3.50153e+06
3.50151e+06
3.5015e+06
3.50149e+06
3.50148e+06
3.50147e+06
3.50148e+06
3.50596e+06
3.50578e+06
3.50562e+06
3.50545e+06
3.50529e+06
3.50512e+06
3.50495e+06
3.50478e+06
3.50461e+06
3.50444e+06
3.50427e+06
3.5041e+06
3.50394e+06
3.50377e+06
3.50362e+06
3.50346e+06
3.50331e+06
3.50316e+06
3.50303e+06
3.50289e+06
3.50277e+06
3.50265e+06
3.50254e+06
3.50243e+06
3.50233e+06
3.50224e+06
3.50216e+06
3.50208e+06
3.502e+06
3.50193e+06
3.50187e+06
3.50181e+06
3.50176e+06
3.50171e+06
3.50167e+06
3.50163e+06
3.5016e+06
3.50157e+06
3.50154e+06
3.50152e+06
3.50151e+06
3.50149e+06
3.50149e+06
3.50148e+06
3.50148e+06
3.50636e+06
3.50616e+06
3.50598e+06
3.50579e+06
3.5056e+06
3.50541e+06
3.50522e+06
3.50503e+06
3.50484e+06
3.50465e+06
3.50446e+06
3.50427e+06
3.50409e+06
3.50391e+06
3.50374e+06
3.50357e+06
3.50341e+06
3.50325e+06
3.50311e+06
3.50296e+06
3.50283e+06
3.50271e+06
3.50259e+06
3.50248e+06
3.50237e+06
3.50228e+06
3.50219e+06
3.5021e+06
3.50203e+06
3.50196e+06
3.50189e+06
3.50183e+06
3.50178e+06
3.50173e+06
3.50168e+06
3.50165e+06
3.50161e+06
3.50158e+06
3.50155e+06
3.50153e+06
3.50152e+06
3.5015e+06
3.5015e+06
3.50149e+06
3.50149e+06
3.5068e+06
3.50658e+06
3.50637e+06
3.50616e+06
3.50595e+06
3.50573e+06
3.50551e+06
3.50529e+06
3.50508e+06
3.50487e+06
3.50466e+06
3.50445e+06
3.50426e+06
3.50406e+06
3.50387e+06
3.50369e+06
3.50351e+06
3.50335e+06
3.50319e+06
3.50304e+06
3.5029e+06
3.50276e+06
3.50264e+06
3.50252e+06
3.50241e+06
3.50231e+06
3.50222e+06
3.50213e+06
3.50205e+06
3.50198e+06
3.50191e+06
3.50185e+06
3.50179e+06
3.50174e+06
3.5017e+06
3.50166e+06
3.50162e+06
3.50159e+06
3.50156e+06
3.50154e+06
3.50153e+06
3.50151e+06
3.5015e+06
3.5015e+06
3.5015e+06
3.50728e+06
3.50704e+06
3.50681e+06
3.50657e+06
3.50632e+06
3.50607e+06
3.50582e+06
3.50558e+06
3.50534e+06
3.5051e+06
3.50487e+06
3.50465e+06
3.50443e+06
3.50421e+06
3.50401e+06
3.50381e+06
3.50362e+06
3.50344e+06
3.50327e+06
3.50311e+06
3.50296e+06
3.50282e+06
3.50269e+06
3.50256e+06
3.50245e+06
3.50234e+06
3.50225e+06
3.50216e+06
3.50207e+06
3.502e+06
3.50193e+06
3.50187e+06
3.50181e+06
3.50176e+06
3.50171e+06
3.50167e+06
3.50163e+06
3.5016e+06
3.50157e+06
3.50155e+06
3.50153e+06
3.50152e+06
3.50151e+06
3.50151e+06
3.50151e+06
3.50783e+06
3.50756e+06
3.50729e+06
3.50701e+06
3.50673e+06
3.50644e+06
3.50616e+06
3.50589e+06
3.50562e+06
3.50536e+06
3.5051e+06
3.50485e+06
3.50461e+06
3.50437e+06
3.50415e+06
3.50394e+06
3.50373e+06
3.50354e+06
3.50336e+06
3.50318e+06
3.50302e+06
3.50287e+06
3.50274e+06
3.50261e+06
3.50249e+06
3.50238e+06
3.50228e+06
3.50218e+06
3.5021e+06
3.50202e+06
3.50195e+06
3.50188e+06
3.50182e+06
3.50177e+06
3.50172e+06
3.50168e+06
3.50164e+06
3.50161e+06
3.50158e+06
3.50156e+06
3.50154e+06
3.50153e+06
3.50152e+06
3.50152e+06
3.50152e+06
3.5084e+06
3.5081e+06
3.5078e+06
3.50748e+06
3.50716e+06
3.50684e+06
3.50653e+06
3.50622e+06
3.50592e+06
3.50562e+06
3.50534e+06
3.50506e+06
3.5048e+06
3.50454e+06
3.5043e+06
3.50407e+06
3.50384e+06
3.50364e+06
3.50344e+06
3.50326e+06
3.50309e+06
3.50293e+06
3.50279e+06
3.50265e+06
3.50253e+06
3.50241e+06
3.50231e+06
3.50221e+06
3.50212e+06
3.50204e+06
3.50197e+06
3.5019e+06
3.50184e+06
3.50178e+06
3.50173e+06
3.50169e+06
3.50165e+06
3.50162e+06
3.50159e+06
3.50157e+06
3.50155e+06
3.50154e+06
3.50153e+06
3.50152e+06
3.50152e+06
3.50908e+06
3.50872e+06
3.50837e+06
3.508e+06
3.50764e+06
3.50727e+06
3.50692e+06
3.50657e+06
3.50624e+06
3.50591e+06
3.5056e+06
3.50529e+06
3.505e+06
3.50472e+06
3.50445e+06
3.5042e+06
3.50396e+06
3.50374e+06
3.50353e+06
3.50334e+06
3.50316e+06
3.50299e+06
3.50284e+06
3.50269e+06
3.50256e+06
3.50244e+06
3.50233e+06
3.50223e+06
3.50214e+06
3.50206e+06
3.50198e+06
3.50191e+06
3.50185e+06
3.5018e+06
3.50175e+06
3.5017e+06
3.50166e+06
3.50163e+06
3.5016e+06
3.50158e+06
3.50156e+06
3.50154e+06
3.50153e+06
3.50153e+06
3.50153e+06
3.50979e+06
3.50938e+06
3.50899e+06
3.50856e+06
3.50815e+06
3.50774e+06
3.50734e+06
3.50696e+06
3.50658e+06
3.50622e+06
3.50587e+06
3.50553e+06
3.50521e+06
3.5049e+06
3.50461e+06
3.50434e+06
3.50408e+06
3.50384e+06
3.50362e+06
3.50341e+06
3.50322e+06
3.50305e+06
3.50288e+06
3.50274e+06
3.5026e+06
3.50248e+06
3.50236e+06
3.50226e+06
3.50216e+06
3.50208e+06
3.502e+06
3.50193e+06
3.50186e+06
3.50181e+06
3.50176e+06
3.50171e+06
3.50167e+06
3.50164e+06
3.50161e+06
3.50158e+06
3.50157e+06
3.50155e+06
3.50154e+06
3.50154e+06
3.50154e+06
3.51075e+06
3.5102e+06
3.50972e+06
3.50921e+06
3.50872e+06
3.50826e+06
3.50781e+06
3.50737e+06
3.50695e+06
3.50655e+06
3.50616e+06
3.50578e+06
3.50543e+06
3.50509e+06
3.50478e+06
3.50448e+06
3.5042e+06
3.50395e+06
3.50371e+06
3.50349e+06
3.50329e+06
3.5031e+06
3.50293e+06
3.50278e+06
3.50264e+06
3.50251e+06
3.50239e+06
3.50228e+06
3.50218e+06
3.5021e+06
3.50202e+06
3.50194e+06
3.50188e+06
3.50182e+06
3.50177e+06
3.50172e+06
3.50168e+06
3.50165e+06
3.50162e+06
3.50159e+06
3.50157e+06
3.50156e+06
3.50155e+06
3.50154e+06
3.50154e+06
3.51164e+06
3.511e+06
3.51046e+06
3.50989e+06
3.50934e+06
3.50882e+06
3.50831e+06
3.50782e+06
3.50735e+06
3.50689e+06
3.50646e+06
3.50605e+06
3.50566e+06
3.50529e+06
3.50495e+06
3.50462e+06
3.50433e+06
3.50405e+06
3.5038e+06
3.50357e+06
3.50335e+06
3.50316e+06
3.50298e+06
3.50282e+06
3.50267e+06
3.50254e+06
3.50242e+06
3.5023e+06
3.5022e+06
3.50211e+06
3.50203e+06
3.50196e+06
3.50189e+06
3.50183e+06
3.50178e+06
3.50173e+06
3.50169e+06
3.50165e+06
3.50162e+06
3.5016e+06
3.50158e+06
3.50156e+06
3.50155e+06
3.50155e+06
3.50155e+06