/*--------------------------------*- C++ -*----------------------------------*\
| =========                 |                                                 |
| \\      /  F ield         | OpenFOAM: The Open Source CFD Toolbox           |
|  \\    /   O peration     | Version:  v2012                                 |
|   \\  /    A nd           | Website:  www.openfoam.com                      |
|    \\/     M anipulation  |                                                 |
\*---------------------------------------------------------------------------*/
FoamFile
{
    version     2.0;
    format      ascii;
    class       volScalarField;
    location    "1";
    object      p_rgh;
}
// * * * * * * * * * * * * * * * * * * * * * * * * * * * * * * * * * * * * * //

dimensions      [1 -1 -2 0 0 0 0];


internalField   nonuniform List<scalar> 
3326
(
3.5015e+06
3.50148e+06
3.50146e+06
3.50144e+06
3.50143e+06
3.50142e+06
3.50142e+06
3.50141e+06
3.50142e+06
3.50161e+06
3.50158e+06
3.50155e+06
3.50152e+06
3.50149e+06
3.50147e+06
3.50146e+06
3.50144e+06
3.50143e+06
3.50143e+06
3.50143e+06
3.50143e+06
3.50403e+06
3.50396e+06
3.50389e+06
3.50381e+06
3.50373e+06
3.50365e+06
3.50357e+06
3.50349e+06
3.50341e+06
3.50333e+06
3.50324e+06
3.50316e+06
3.50307e+06
3.50298e+06
3.50289e+06
3.5028e+06
3.50272e+06
3.50263e+06
3.50255e+06
3.50247e+06
3.50239e+06
3.50231e+06
3.50223e+06
3.50216e+06
3.50209e+06
3.50203e+06
3.50196e+06
3.50191e+06
3.50185e+06
3.5018e+06
3.50175e+06
3.50171e+06
3.50166e+06
3.50163e+06
3.50159e+06
3.50156e+06
3.50153e+06
3.50151e+06
3.50149e+06
3.50147e+06
3.50146e+06
3.50145e+06
3.50144e+06
3.50144e+06
3.50144e+06
3.50426e+06
3.50416e+06
3.50409e+06
3.50399e+06
3.50391e+06
3.50382e+06
3.50374e+06
3.50365e+06
3.50356e+06
3.50346e+06
3.50337e+06
3.50327e+06
3.50318e+06
3.50308e+06
3.50299e+06
3.50289e+06
3.5028e+06
3.5027e+06
3.50261e+06
3.50253e+06
3.50244e+06
3.50236e+06
3.50228e+06
3.5022e+06
3.50213e+06
3.50206e+06
3.502e+06
3.50193e+06
3.50188e+06
3.50182e+06
3.50177e+06
3.50173e+06
3.50168e+06
3.50164e+06
3.50161e+06
3.50158e+06
3.50155e+06
3.50152e+06
3.5015e+06
3.50148e+06
3.50147e+06
3.50146e+06
3.50145e+06
3.50145e+06
3.50145e+06
3.50447e+06
3.50437e+06
3.50429e+06
3.5042e+06
3.50411e+06
3.50401e+06
3.50392e+06
3.50382e+06
3.50371e+06
3.50361e+06
3.50351e+06
3.5034e+06
3.5033e+06
3.50319e+06
3.50309e+06
3.50298e+06
3.50288e+06
3.50278e+06
3.50268e+06
3.50259e+06
3.5025e+06
3.50241e+06
3.50232e+06
3.50224e+06
3.50217e+06
3.5021e+06
3.50203e+06
3.50196e+06
3.5019e+06
3.50185e+06
3.50179e+06
3.50175e+06
3.5017e+06
3.50166e+06
3.50162e+06
3.50159e+06
3.50156e+06
3.50153e+06
3.50151e+06
3.50149e+06
3.50148e+06
3.50147e+06
3.50146e+06
3.50146e+06
3.50146e+06
3.50471e+06
3.5046e+06
3.50451e+06
3.50441e+06
3.50431e+06
3.50421e+06
3.5041e+06
3.50399e+06
3.50388e+06
3.50376e+06
3.50365e+06
3.50353e+06
3.50342e+06
3.5033e+06
3.50319e+06
3.50307e+06
3.50296e+06
3.50286e+06
3.50275e+06
3.50265e+06
3.50255e+06
3.50246e+06
3.50237e+06
3.50229e+06
3.50221e+06
3.50213e+06
3.50206e+06
3.50199e+06
3.50193e+06
3.50187e+06
3.50182e+06
3.50176e+06
3.50172e+06
3.50168e+06
3.50164e+06
3.5016e+06
3.50157e+06
3.50155e+06
3.50152e+06
3.50151e+06
3.50149e+06
3.50148e+06
3.50147e+06
3.50147e+06
3.50147e+06
3.50497e+06
3.50484e+06
3.50474e+06
3.50464e+06
3.50453e+06
3.50442e+06
3.5043e+06
3.50417e+06
3.50405e+06
3.50392e+06
3.5038e+06
3.50367e+06
3.50354e+06
3.50342e+06
3.50329e+06
3.50317e+06
3.50305e+06
3.50294e+06
3.50282e+06
3.50272e+06
3.50261e+06
3.50251e+06
3.50242e+06
3.50233e+06
3.50224e+06
3.50216e+06
3.50209e+06
3.50202e+06
3.50195e+06
3.50189e+06
3.50184e+06
3.50178e+06
3.50174e+06
3.50169e+06
3.50165e+06
3.50162e+06
3.50159e+06
3.50156e+06
3.50154e+06
3.50152e+06
3.5015e+06
3.50149e+06
3.50148e+06
3.50148e+06
3.50148e+06
3.50527e+06
3.50512e+06
3.50501e+06
3.50489e+06
3.50477e+06
3.50464e+06
3.50451e+06
3.50437e+06
3.50423e+06
3.50409e+06
3.50395e+06
3.50381e+06
3.50368e+06
3.50354e+06
3.50341e+06
3.50327e+06
3.50314e+06
3.50302e+06
3.5029e+06
3.50278e+06
3.50267e+06
3.50257e+06
3.50247e+06
3.50237e+06
3.50228e+06
3.5022e+06
3.50212e+06
3.50205e+06
3.50198e+06
3.50192e+06
3.50186e+06
3.5018e+06
3.50175e+06
3.50171e+06
3.50167e+06
3.50163e+06
3.5016e+06
3.50157e+06
3.50155e+06
3.50153e+06
3.50151e+06
3.5015e+06
3.50149e+06
3.50149e+06
3.50149e+06
3.5056e+06
3.50544e+06
3.50531e+06
3.50517e+06
3.50503e+06
3.50488e+06
3.50473e+06
3.50458e+06
3.50443e+06
3.50427e+06
3.50412e+06
3.50397e+06
3.50382e+06
3.50367e+06
3.50352e+06
3.50338e+06
3.50324e+06
3.5031e+06
3.50297e+06
3.50285e+06
3.50273e+06
3.50262e+06
3.50252e+06
3.50242e+06
3.50232e+06
3.50223e+06
3.50215e+06
3.50207e+06
3.502e+06
3.50194e+06
3.50188e+06
3.50182e+06
3.50177e+06
3.50172e+06
3.50168e+06
3.50165e+06
3.50161e+06
3.50158e+06
3.50156e+06
3.50154e+06
3.50152e+06
3.50151e+06
3.5015e+06
3.5015e+06
3.5015e+06
3.50599e+06
3.5058e+06
3.50564e+06
3.50548e+06
3.50532e+06
3.50515e+06
3.50498e+06
3.50481e+06
3.50464e+06
3.50447e+06
3.5043e+06
3.50413e+06
3.50396e+06
3.5038e+06
3.50364e+06
3.50349e+06
3.50334e+06
3.50319e+06
3.50305e+06
3.50292e+06
3.50279e+06
3.50268e+06
3.50256e+06
3.50246e+06
3.50236e+06
3.50227e+06
3.50218e+06
3.5021e+06
3.50203e+06
3.50196e+06
3.5019e+06
3.50184e+06
3.50179e+06
3.50174e+06
3.5017e+06
3.50166e+06
3.50162e+06
3.5016e+06
3.50157e+06
3.50155e+06
3.50153e+06
3.50152e+06
3.50151e+06
3.50151e+06
3.50151e+06
3.50638e+06
3.50618e+06
3.506e+06
3.50582e+06
3.50563e+06
3.50544e+06
3.50525e+06
3.50505e+06
3.50486e+06
3.50467e+06
3.50448e+06
3.5043e+06
3.50412e+06
3.50394e+06
3.50377e+06
3.5036e+06
3.50344e+06
3.50328e+06
3.50313e+06
3.50299e+06
3.50286e+06
3.50273e+06
3.50261e+06
3.5025e+06
3.5024e+06
3.5023e+06
3.50221e+06
3.50213e+06
3.50205e+06
3.50198e+06
3.50192e+06
3.50186e+06
3.5018e+06
3.50175e+06
3.50171e+06
3.50167e+06
3.50164e+06
3.50161e+06
3.50158e+06
3.50156e+06
3.50154e+06
3.50153e+06
3.50152e+06
3.50152e+06
3.50152e+06
3.50683e+06
3.50661e+06
3.5064e+06
3.50619e+06
3.50597e+06
3.50575e+06
3.50554e+06
3.50532e+06
3.5051e+06
3.50489e+06
3.50469e+06
3.50448e+06
3.50428e+06
3.50409e+06
3.5039e+06
3.50372e+06
3.50354e+06
3.50337e+06
3.50321e+06
3.50306e+06
3.50292e+06
3.50279e+06
3.50266e+06
3.50255e+06
3.50244e+06
3.50234e+06
3.50224e+06
3.50216e+06
3.50208e+06
3.502e+06
3.50194e+06
3.50188e+06
3.50182e+06
3.50177e+06
3.50172e+06
3.50168e+06
3.50165e+06
3.50162e+06
3.50159e+06
3.50157e+06
3.50155e+06
3.50154e+06
3.50153e+06
3.50153e+06
3.50153e+06
3.50731e+06
3.50706e+06
3.50683e+06
3.50659e+06
3.50635e+06
3.5061e+06
3.50585e+06
3.50561e+06
3.50537e+06
3.50513e+06
3.5049e+06
3.50467e+06
3.50445e+06
3.50424e+06
3.50403e+06
3.50384e+06
3.50365e+06
3.50347e+06
3.5033e+06
3.50314e+06
3.50299e+06
3.50284e+06
3.50271e+06
3.50259e+06
3.50248e+06
3.50237e+06
3.50227e+06
3.50218e+06
3.5021e+06
3.50202e+06
3.50196e+06
3.50189e+06
3.50184e+06
3.50178e+06
3.50174e+06
3.5017e+06
3.50166e+06
3.50163e+06
3.5016e+06
3.50158e+06
3.50156e+06
3.50155e+06
3.50154e+06
3.50153e+06
3.50154e+06
3.50786e+06
3.50758e+06
3.50732e+06
3.50704e+06
3.50675e+06
3.50647e+06
3.50619e+06
3.50591e+06
3.50564e+06
3.50538e+06
3.50513e+06
3.50488e+06
3.50464e+06
3.5044e+06
3.50418e+06
3.50396e+06
3.50376e+06
3.50356e+06
3.50338e+06
3.50321e+06
3.50305e+06
3.5029e+06
3.50276e+06
3.50263e+06
3.50251e+06
3.5024e+06
3.5023e+06
3.50221e+06
3.50212e+06
3.50205e+06
3.50197e+06
3.50191e+06
3.50185e+06
3.5018e+06
3.50175e+06
3.50171e+06
3.50167e+06
3.50164e+06
3.50161e+06
3.50159e+06
3.50157e+06
3.50156e+06
3.50155e+06
3.50154e+06
3.50154e+06
3.50843e+06
3.50812e+06
3.50783e+06
3.50751e+06
3.50719e+06
3.50687e+06
3.50655e+06
3.50624e+06
3.50594e+06
3.50565e+06
3.50537e+06
3.50509e+06
3.50483e+06
3.50457e+06
3.50433e+06
3.50409e+06
3.50387e+06
3.50366e+06
3.50347e+06
3.50329e+06
3.50312e+06
3.50296e+06
3.50281e+06
3.50268e+06
3.50255e+06
3.50244e+06
3.50233e+06
3.50224e+06
3.50215e+06
3.50207e+06
3.50199e+06
3.50193e+06
3.50186e+06
3.50181e+06
3.50176e+06
3.50172e+06
3.50168e+06
3.50165e+06
3.50162e+06
3.5016e+06
3.50158e+06
3.50156e+06
3.50155e+06
3.50155e+06
3.50155e+06
3.50911e+06
3.50874e+06
3.5084e+06
3.50803e+06
3.50767e+06
3.5073e+06
3.50695e+06
3.5066e+06
3.50627e+06
3.50594e+06
3.50562e+06
3.50532e+06
3.50503e+06
3.50475e+06
3.50448e+06
3.50423e+06
3.50399e+06
3.50377e+06
3.50356e+06
3.50336e+06
3.50318e+06
3.50302e+06
3.50286e+06
3.50272e+06
3.50259e+06
3.50247e+06
3.50236e+06
3.50226e+06
3.50217e+06
3.50209e+06
3.50201e+06
3.50194e+06
3.50188e+06
3.50182e+06
3.50177e+06
3.50173e+06
3.50169e+06
3.50166e+06
3.50163e+06
3.5016e+06
3.50159e+06
3.50157e+06
3.50156e+06
3.50156e+06
3.50156e+06
3.50982e+06
3.5094e+06
3.50901e+06
3.50859e+06
3.50818e+06
3.50777e+06
3.50737e+06
3.50699e+06
3.50661e+06
3.50625e+06
3.5059e+06
3.50556e+06
3.50524e+06
3.50493e+06
3.50464e+06
3.50437e+06
3.50411e+06
3.50387e+06
3.50365e+06
3.50344e+06
3.50325e+06
3.50307e+06
3.50291e+06
3.50276e+06
3.50263e+06
3.5025e+06
3.50239e+06
3.50229e+06
3.50219e+06
3.5021e+06
3.50203e+06
3.50196e+06
3.50189e+06
3.50184e+06
3.50178e+06
3.50174e+06
3.5017e+06
3.50167e+06
3.50164e+06
3.50161e+06
3.50159e+06
3.50158e+06
3.50157e+06
3.50156e+06
3.50156e+06
3.51078e+06
3.51023e+06
3.50974e+06
3.50923e+06
3.50875e+06
3.50828e+06
3.50784e+06
3.5074e+06
3.50698e+06
3.50657e+06
3.50618e+06
3.50581e+06
3.50546e+06
3.50512e+06
3.5048e+06
3.50451e+06
3.50423e+06
3.50397e+06
3.50374e+06
3.50352e+06
3.50332e+06
3.50313e+06
3.50296e+06
3.50281e+06
3.50266e+06
3.50253e+06
3.50242e+06
3.50231e+06
3.50221e+06
3.50212e+06
3.50204e+06
3.50197e+06
3.50191e+06
3.50185e+06
3.50179e+06
3.50175e+06
3.50171e+06
3.50167e+06
3.50164e+06
3.50162e+06
3.5016e+06
3.50159e+06
3.50158e+06
3.50157e+06
3.50157e+06
3.51167e+06
3.51103e+06
3.51049e+06
3.50992e+06
3.50937e+06
3.50885e+06
3.50834e+06
3.50785e+06
3.50738e+06
3.50692e+06
3.50649e+06
3.50608e+06
3.50568e+06
3.50532e+06
3.50497e+06
3.50465e+06
3.50436e+06
3.50408e+06
3.50383e+06
3.5036e+06
3.50338e+06
3.50319e+06
3.50301e+06
3.50285e+06
3.5027e+06
3.50257e+06
3.50244e+06
3.50233e+06
3.50223e+06
3.50214e+06
3.50206e+06
3.50198e+06
3.50192e+06
3.50186e+06
3.50181e+06
3.50176e+06
3.50172e+06
3.50168e+06
3.50165e+06
3.50163e+06
3.50161e+06
3.50159e+06
3.50158e+06
3.50158e+06
3.50158e+06
3.51279e+06
3.512e+06
3.51136e+06
3.5107e+06
3.51007e+06
3.50947e+06
3.50889e+06
3.50834e+06
3.5078e+06
3.50729e+06
3.50681e+06
3.50635e+06
3.50592e+06
3.50552e+06
3.50515e+06
3.5048e+06
3.50448e+06
3.50419e+06
3.50392e+06
3.50367e+06
3.50345e+06
3.50324e+06
3.50306e+06
3.50289e+06
3.50274e+06
3.5026e+06
3.50247e+06
3.50236e+06
3.50225e+06
3.50216e+06
3.50207e+06
3.502e+06
3.50193e+06
3.50187e+06
3.50181e+06
3.50177e+06
3.50173e+06
3.50169e+06
3.50166e+06
3.50163e+06
3.50161e+06
3.5016e+06
3.50159e+06
3.50158e+06
3.50158e+06
3.51382e+06
3.51297e+06
3.51227e+06
3.51153e+06
3.51083e+06
3.51014e+06
3.50949e+06
3.50886e+06
3.50826e+06
3.50769e+06
3.50715e+06
3.50664e+06
3.50617e+06
3.50573e+06
3.50533e+06
3.50495e+06
3.50461e+06
3.5043e+06
3.50401e+06
3.50375e+06
3.50351e+06
3.5033e+06
3.5031e+06
3.50293e+06
3.50277e+06
3.50262e+06
3.50249e+06
3.50238e+06
3.50227e+06
3.50217e+06
3.50209e+06
3.50201e+06
3.50194e+06
3.50188e+06
3.50182e+06
3.50178e+06
3.50173e+06
3.5017e+06
3.50167e+06
3.50164e+06
3.50162e+06
3.5016e+06
3.50159e+06
3.50159e+06
3.50159e+06
3.51527e+06
3.51423e+06
3.51338e+06
3.51251e+06
3.51169e+06
3.5109e+06
3.51014e+06
3.50942e+06
3.50874e+06
3.5081e+06
3.5075e+06
3.50694e+06
3.50643e+06
3.50595e+06
3.50551e+06
3.5051e+06
3.50474e+06
3.5044e+06
3.5041e+06
3.50383e+06
3.50358e+06
3.50335e+06
3.50315e+06
3.50297e+06
3.5028e+06
3.50265e+06
3.50252e+06
3.5024e+06
3.50229e+06
3.50219e+06
3.5021e+06
3.50202e+06
3.50195e+06
3.50189e+06
3.50183e+06
3.50178e+06
3.50174e+06
3.5017e+06
3.50167e+06
3.50165e+06
3.50163e+06
3.50161e+06
3.5016e+06
3.50159e+06
3.50159e+06
3.51655e+06
3.51545e+06
3.5145e+06
3.51354e+06
3.51261e+06
3.51171e+06
3.51085e+06
3.51003e+06
3.50926e+06
3.50854e+06
3.50787e+06
3.50726e+06
3.50669e+06
3.50617e+06
3.50569e+06
3.50526e+06
3.50487e+06
3.50451e+06
3.50419e+06
3.5039e+06
3.50364e+06
3.50341e+06
3.50319e+06
3.503e+06
3.50283e+06
3.50268e+06
3.50254e+06
3.50242e+06
3.50231e+06
3.5022e+06
3.50211e+06
3.50203e+06
3.50196e+06
3.5019e+06
3.50184e+06
3.50179e+06
3.50175e+06
3.50171e+06
3.50168e+06
3.50165e+06
3.50163e+06
3.50161e+06
3.5016e+06
3.5016e+06
3.5016e+06
3.51854e+06
3.51716e+06
3.51597e+06
3.5148e+06
3.51368e+06
3.51262e+06
3.51162e+06
3.51068e+06
3.50981e+06
3.509e+06
3.50826e+06
3.50758e+06
3.50695e+06
3.50639e+06
3.50587e+06
3.50541e+06
3.50499e+06
3.50462e+06
3.50428e+06
3.50397e+06
3.5037e+06
3.50346e+06
3.50324e+06
3.50304e+06
3.50286e+06
3.5027e+06
3.50256e+06
3.50244e+06
3.50232e+06
3.50222e+06
3.50213e+06
3.50204e+06
3.50197e+06
3.50191e+06
3.50185e+06
3.5018e+06
3.50175e+06
3.50172e+06
3.50168e+06
3.50166e+06
3.50164e+06
3.50162e+06
3.50161e+06
3.5016e+06
3.5016e+06
3.52016e+06
3.51871e+06
3.51741e+06
3.51608e+06
3.51481e+06
3.51359e+06
3.51245e+06
3.51138e+06
3.51039e+06
3.50948e+06
3.50866e+06
3.50791e+06
3.50723e+06
3.50661e+06
3.50606e+06
3.50556e+06
3.50512e+06
3.50472e+06
3.50436e+06
3.50404e+06
3.50376e+06
3.5035e+06
3.50328e+06
3.50307e+06
3.50289e+06
3.50273e+06
3.50258e+06
3.50245e+06
3.50234e+06
3.50223e+06
3.50214e+06
3.50205e+06
3.50198e+06
3.50191e+06
3.50185e+06
3.5018e+06
3.50176e+06
3.50172e+06
3.50169e+06
3.50166e+06
3.50164e+06
3.50162e+06
3.50161e+06
3.50161e+06
3.50161e+06
3.52303e+06
3.52111e+06
3.51939e+06
3.51771e+06
3.51614e+06
3.51469e+06
3.51335e+06
3.51212e+06
3.511e+06
3.50998e+06
3.50906e+06
3.50824e+06
3.5075e+06
3.50683e+06
3.50624e+06
3.50571e+06
3.50524e+06
3.50482e+06
3.50444e+06
3.50411e+06
3.50381e+06
3.50355e+06
3.50332e+06
3.50311e+06
3.50292e+06
3.50275e+06
3.5026e+06
3.50247e+06
3.50235e+06
3.50224e+06
3.50215e+06
3.50206e+06
3.50199e+06
3.50192e+06
3.50186e+06
3.50181e+06
3.50176e+06
3.50173e+06
3.50169e+06
3.50167e+06
3.50164e+06
3.50163e+06
3.50162e+06
3.50161e+06
3.50161e+06
3.52506e+06
3.52304e+06
3.52115e+06
3.51926e+06
3.51747e+06
3.51581e+06
3.51428e+06
3.51288e+06
3.51162e+06
3.51049e+06
3.50948e+06
3.50857e+06
3.50777e+06
3.50705e+06
3.50642e+06
3.50586e+06
3.50536e+06
3.50491e+06
3.50452e+06
3.50418e+06
3.50387e+06
3.50359e+06
3.50335e+06
3.50314e+06
3.50294e+06
3.50277e+06
3.50262e+06
3.50248e+06
3.50236e+06
3.50225e+06
3.50216e+06
3.50207e+06
3.50199e+06
3.50193e+06
3.50187e+06
3.50181e+06
3.50177e+06
3.50173e+06
3.5017e+06
3.50167e+06
3.50165e+06
3.50163e+06
3.50162e+06
3.50161e+06
3.50161e+06
3.53484e+06
3.53189e+06
3.5291e+06
3.52627e+06
3.52373e+06
3.52131e+06
3.51911e+06
3.5171e+06
3.51531e+06
3.5137e+06
3.51228e+06
3.51101e+06
3.50989e+06
3.50891e+06
3.50804e+06
3.50727e+06
3.50659e+06
3.506e+06
3.50547e+06
3.50501e+06
3.5046e+06
3.50424e+06
3.50392e+06
3.50363e+06
3.50338e+06
3.50316e+06
3.50297e+06
3.50279e+06
3.50264e+06
3.5025e+06
3.50237e+06
3.50226e+06
3.50217e+06
3.50208e+06
3.502e+06
3.50193e+06
3.50187e+06
3.50182e+06
3.50177e+06
3.50173e+06
3.5017e+06
3.50167e+06
3.50165e+06
3.50163e+06
3.50162e+06
3.50162e+06
3.50162e+06
3.53736e+06
3.53433e+06
3.53155e+06
3.52856e+06
3.5258e+06
3.52311e+06
3.52063e+06
3.51835e+06
3.51632e+06
3.51452e+06
3.51293e+06
3.51153e+06
3.51031e+06
3.50923e+06
3.5083e+06
3.50748e+06
3.50676e+06
3.50613e+06
3.50557e+06
3.50509e+06
3.50466e+06
3.50429e+06
3.50396e+06
3.50367e+06
3.50341e+06
3.50319e+06
3.50299e+06
3.50281e+06
3.50265e+06
3.50251e+06
3.50238e+06
3.50227e+06
3.50217e+06
3.50208e+06
3.50201e+06
3.50194e+06
3.50188e+06
3.50182e+06
3.50178e+06
3.50174e+06
3.5017e+06
3.50168e+06
3.50165e+06
3.50164e+06
3.50163e+06
3.50162e+06
3.50162e+06
3.54713e+06
3.5418e+06
3.53737e+06
3.53297e+06
3.52917e+06
3.52565e+06
3.52257e+06
3.51982e+06
3.51745e+06
3.51538e+06
3.51359e+06
3.51205e+06
3.51071e+06
3.50955e+06
3.50854e+06
3.50767e+06
3.50691e+06
3.50625e+06
3.50567e+06
3.50517e+06
3.50473e+06
3.50434e+06
3.504e+06
3.5037e+06
3.50344e+06
3.50321e+06
3.503e+06
3.50282e+06
3.50266e+06
3.50252e+06
3.50239e+06
3.50228e+06
3.50218e+06
3.50209e+06
3.50201e+06
3.50194e+06
3.50188e+06
3.50183e+06
3.50178e+06
3.50174e+06
3.50171e+06
3.50168e+06
3.50166e+06
3.50164e+06
3.50163e+06
3.50162e+06
3.50162e+06
3.55033e+06
3.54481e+06
3.54041e+06
3.53565e+06
3.53154e+06
3.52763e+06
3.5242e+06
3.52113e+06
3.51849e+06
3.51619e+06
3.51423e+06
3.51254e+06
3.51109e+06
3.50985e+06
3.50877e+06
3.50785e+06
3.50705e+06
3.50636e+06
3.50576e+06
3.50524e+06
3.50478e+06
3.50439e+06
3.50404e+06
3.50373e+06
3.50346e+06
3.50323e+06
3.50302e+06
3.50284e+06
3.50267e+06
3.50253e+06
3.5024e+06
3.50229e+06
3.50218e+06
3.50209e+06
3.50201e+06
3.50194e+06
3.50188e+06
3.50183e+06
3.50178e+06
3.50174e+06
3.50171e+06
3.50168e+06
3.50166e+06
3.50164e+06
3.50163e+06
3.50162e+06
3.50162e+06
3.56538e+06
3.55589e+06
3.54864e+06
3.54149e+06
3.53577e+06
3.53064e+06
3.52637e+06
3.5227e+06
3.51963e+06
3.51704e+06
3.51485e+06
3.51301e+06
3.51145e+06
3.51012e+06
3.50898e+06
3.50801e+06
3.50718e+06
3.50646e+06
3.50584e+06
3.5053e+06
3.50483e+06
3.50442e+06
3.50407e+06
3.50376e+06
3.50348e+06
3.50324e+06
3.50303e+06
3.50285e+06
3.50268e+06
3.50254e+06
3.50241e+06
3.50229e+06
3.50219e+06
3.5021e+06
3.50202e+06
3.50195e+06
3.50188e+06
3.50183e+06
3.50178e+06
3.50174e+06
3.50171e+06
3.50168e+06
3.50166e+06
3.50164e+06
3.50163e+06
3.50162e+06
3.50162e+06
3.5701e+06
3.55974e+06
3.55227e+06
3.54438e+06
3.53825e+06
3.5326e+06
3.52795e+06
3.52393e+06
3.52058e+06
3.51776e+06
3.5154e+06
3.51343e+06
3.51176e+06
3.51036e+06
3.50917e+06
3.50815e+06
3.50729e+06
3.50654e+06
3.5059e+06
3.50535e+06
3.50487e+06
3.50446e+06
3.50409e+06
3.50378e+06
3.5035e+06
3.50326e+06
3.50304e+06
3.50285e+06
3.50269e+06
3.50254e+06
3.50241e+06
3.50229e+06
3.50219e+06
3.5021e+06
3.50202e+06
3.50195e+06
3.50189e+06
3.50183e+06
3.50178e+06
3.50174e+06
3.50171e+06
3.50168e+06
3.50166e+06
3.50164e+06
3.50163e+06
3.50163e+06
3.50162e+06
3.5916e+06
3.57539e+06
3.5628e+06
3.5514e+06
3.54304e+06
3.53577e+06
3.53011e+06
3.52539e+06
3.5216e+06
3.51848e+06
3.51592e+06
3.5138e+06
3.51204e+06
3.51056e+06
3.50932e+06
3.50827e+06
3.50738e+06
3.50661e+06
3.50596e+06
3.50539e+06
3.5049e+06
3.50448e+06
3.50411e+06
3.50379e+06
3.50351e+06
3.50327e+06
3.50305e+06
3.50286e+06
3.50269e+06
3.50254e+06
3.50241e+06
3.5023e+06
3.50219e+06
3.5021e+06
3.50202e+06
3.50195e+06
3.50189e+06
3.50183e+06
3.50179e+06
3.50175e+06
3.50171e+06
3.50168e+06
3.50166e+06
3.50164e+06
3.50163e+06
3.50163e+06
3.50162e+06
3.59181e+06
3.57845e+06
3.5664e+06
3.55415e+06
3.54532e+06
3.53742e+06
3.53137e+06
3.52633e+06
3.5223e+06
3.519e+06
3.5163e+06
3.51409e+06
3.51225e+06
3.51072e+06
3.50944e+06
3.50836e+06
3.50744e+06
3.50666e+06
3.50599e+06
3.50542e+06
3.50493e+06
3.5045e+06
3.50413e+06
3.5038e+06
3.50352e+06
3.50327e+06
3.50306e+06
3.50286e+06
3.5027e+06
3.50255e+06
3.50241e+06
3.5023e+06
3.50219e+06
3.5021e+06
3.50202e+06
3.50195e+06
3.50189e+06
3.50183e+06
3.50179e+06
3.50175e+06
3.50171e+06
3.50168e+06
3.50166e+06
3.50164e+06
3.50163e+06
3.50163e+06
3.50162e+06
3.6374e+06
3.61087e+06
3.58096e+06
3.56248e+06
3.54992e+06
3.54008e+06
3.53302e+06
3.52737e+06
3.52298e+06
3.51945e+06
3.51662e+06
3.51431e+06
3.51241e+06
3.51084e+06
3.50952e+06
3.50842e+06
3.50749e+06
3.50669e+06
3.50602e+06
3.50544e+06
3.50494e+06
3.50451e+06
3.50413e+06
3.50381e+06
3.50352e+06
3.50327e+06
3.50306e+06
3.50286e+06
3.5027e+06
3.50255e+06
3.50241e+06
3.5023e+06
3.50219e+06
3.5021e+06
3.50202e+06
3.50195e+06
3.50189e+06
3.50183e+06
3.50179e+06
3.50175e+06
3.50171e+06
3.50168e+06
3.50166e+06
3.50164e+06
3.50163e+06
3.50163e+06
3.50162e+06
3.5953e+06
3.59764e+06
3.57522e+06
3.56059e+06
3.54973e+06
3.54031e+06
3.53338e+06
3.52771e+06
3.52324e+06
3.51964e+06
3.51676e+06
3.5144e+06
3.51248e+06
3.51088e+06
3.50955e+06
3.50844e+06
3.5075e+06
3.5067e+06
3.50602e+06
3.50544e+06
3.50494e+06
3.5045e+06
3.50413e+06
3.5038e+06
3.50352e+06
3.50327e+06
3.50305e+06
3.50286e+06
3.50269e+06
3.50254e+06
3.50241e+06
3.50229e+06
3.50219e+06
3.5021e+06
3.50202e+06
3.50195e+06
3.50189e+06
3.50183e+06
3.50178e+06
3.50174e+06
3.50171e+06
3.50168e+06
3.50166e+06
3.50164e+06
3.50163e+06
3.50163e+06
3.50162e+06
3.6504e+06
3.62384e+06
3.58461e+06
3.56572e+06
3.5518e+06
3.54132e+06
3.53387e+06
3.52794e+06
3.52335e+06
3.51969e+06
3.51676e+06
3.51439e+06
3.51245e+06
3.51085e+06
3.50952e+06
3.50841e+06
3.50747e+06
3.50668e+06
3.506e+06
3.50542e+06
3.50492e+06
3.50449e+06
3.50412e+06
3.50379e+06
3.50351e+06
3.50326e+06
3.50304e+06
3.50285e+06
3.50269e+06
3.50254e+06
3.50241e+06
3.50229e+06
3.50219e+06
3.5021e+06
3.50202e+06
3.50195e+06
3.50188e+06
3.50183e+06
3.50178e+06
3.50174e+06
3.50171e+06
3.50168e+06
3.50166e+06
3.50164e+06
3.50163e+06
3.50162e+06
3.50162e+06
3.5015e+06
3.50148e+06
3.50146e+06
3.50144e+06
3.50143e+06
3.50142e+06
3.50142e+06
3.50141e+06
3.50142e+06
3.50161e+06
3.50158e+06
3.50155e+06
3.50152e+06
3.50149e+06
3.50147e+06
3.50146e+06
3.50144e+06
3.50143e+06
3.50143e+06
3.50143e+06
3.50143e+06
3.50403e+06
3.50396e+06
3.50389e+06
3.50381e+06
3.50373e+06
3.50365e+06
3.50357e+06
3.50349e+06
3.50341e+06
3.50333e+06
3.50324e+06
3.50316e+06
3.50307e+06
3.50298e+06
3.50289e+06
3.5028e+06
3.50272e+06
3.50263e+06
3.50255e+06
3.50247e+06
3.50239e+06
3.50231e+06
3.50223e+06
3.50216e+06
3.50209e+06
3.50203e+06
3.50196e+06
3.50191e+06
3.50185e+06
3.5018e+06
3.50175e+06
3.50171e+06
3.50166e+06
3.50163e+06
3.50159e+06
3.50156e+06
3.50153e+06
3.50151e+06
3.50149e+06
3.50147e+06
3.50146e+06
3.50145e+06
3.50144e+06
3.50144e+06
3.50144e+06
3.50426e+06
3.50416e+06
3.50409e+06
3.50399e+06
3.50391e+06
3.50382e+06
3.50374e+06
3.50365e+06
3.50356e+06
3.50346e+06
3.50337e+06
3.50327e+06
3.50318e+06
3.50308e+06
3.50299e+06
3.50289e+06
3.5028e+06
3.5027e+06
3.50261e+06
3.50253e+06
3.50244e+06
3.50236e+06
3.50228e+06
3.5022e+06
3.50213e+06
3.50206e+06
3.502e+06
3.50193e+06
3.50188e+06
3.50182e+06
3.50177e+06
3.50173e+06
3.50168e+06
3.50164e+06
3.50161e+06
3.50158e+06
3.50155e+06
3.50152e+06
3.5015e+06
3.50148e+06
3.50147e+06
3.50146e+06
3.50145e+06
3.50145e+06
3.50145e+06
3.50447e+06
3.50437e+06
3.50429e+06
3.5042e+06
3.50411e+06
3.50401e+06
3.50392e+06
3.50382e+06
3.50371e+06
3.50361e+06
3.50351e+06
3.5034e+06
3.5033e+06
3.50319e+06
3.50309e+06
3.50298e+06
3.50288e+06
3.50278e+06
3.50268e+06
3.50259e+06
3.5025e+06
3.50241e+06
3.50232e+06
3.50224e+06
3.50217e+06
3.5021e+06
3.50203e+06
3.50196e+06
3.5019e+06
3.50185e+06
3.50179e+06
3.50175e+06
3.5017e+06
3.50166e+06
3.50162e+06
3.50159e+06
3.50156e+06
3.50153e+06
3.50151e+06
3.50149e+06
3.50148e+06
3.50147e+06
3.50146e+06
3.50146e+06
3.50146e+06
3.50471e+06
3.5046e+06
3.50451e+06
3.50441e+06
3.50431e+06
3.50421e+06
3.5041e+06
3.50399e+06
3.50388e+06
3.50376e+06
3.50365e+06
3.50353e+06
3.50342e+06
3.5033e+06
3.50319e+06
3.50307e+06
3.50296e+06
3.50286e+06
3.50275e+06
3.50265e+06
3.50255e+06
3.50246e+06
3.50237e+06
3.50229e+06
3.50221e+06
3.50213e+06
3.50206e+06
3.50199e+06
3.50193e+06
3.50187e+06
3.50182e+06
3.50176e+06
3.50172e+06
3.50168e+06
3.50164e+06
3.5016e+06
3.50157e+06
3.50155e+06
3.50152e+06
3.50151e+06
3.50149e+06
3.50148e+06
3.50147e+06
3.50147e+06
3.50147e+06
3.50497e+06
3.50484e+06
3.50474e+06
3.50464e+06
3.50453e+06
3.50442e+06
3.5043e+06
3.50417e+06
3.50405e+06
3.50392e+06
3.5038e+06
3.50367e+06
3.50354e+06
3.50342e+06
3.50329e+06
3.50317e+06
3.50305e+06
3.50294e+06
3.50282e+06
3.50272e+06
3.50261e+06
3.50251e+06
3.50242e+06
3.50233e+06
3.50224e+06
3.50216e+06
3.50209e+06
3.50202e+06
3.50195e+06
3.50189e+06
3.50184e+06
3.50178e+06
3.50174e+06
3.50169e+06
3.50165e+06
3.50162e+06
3.50159e+06
3.50156e+06
3.50154e+06
3.50152e+06
3.5015e+06
3.50149e+06
3.50148e+06
3.50148e+06
3.50148e+06
3.50527e+06
3.50512e+06
3.50501e+06
3.50489e+06
3.50477e+06
3.50464e+06
3.50451e+06
3.50437e+06
3.50423e+06
3.50409e+06
3.50395e+06
3.50381e+06
3.50368e+06
3.50354e+06
3.50341e+06
3.50327e+06
3.50314e+06
3.50302e+06
3.5029e+06
3.50278e+06
3.50267e+06
3.50257e+06
3.50247e+06
3.50237e+06
3.50228e+06
3.5022e+06
3.50212e+06
3.50205e+06
3.50198e+06
3.50192e+06
3.50186e+06
3.5018e+06
3.50175e+06
3.50171e+06
3.50167e+06
3.50163e+06
3.5016e+06
3.50157e+06
3.50155e+06
3.50153e+06
3.50151e+06
3.5015e+06
3.50149e+06
3.50149e+06
3.50149e+06
3.5056e+06
3.50544e+06
3.50531e+06
3.50517e+06
3.50503e+06
3.50488e+06
3.50473e+06
3.50458e+06
3.50443e+06
3.50427e+06
3.50412e+06
3.50397e+06
3.50382e+06
3.50367e+06
3.50352e+06
3.50338e+06
3.50324e+06
3.5031e+06
3.50297e+06
3.50285e+06
3.50273e+06
3.50262e+06
3.50252e+06
3.50242e+06
3.50232e+06
3.50223e+06
3.50215e+06
3.50207e+06
3.502e+06
3.50194e+06
3.50188e+06
3.50182e+06
3.50177e+06
3.50172e+06
3.50168e+06
3.50165e+06
3.50161e+06
3.50158e+06
3.50156e+06
3.50154e+06
3.50152e+06
3.50151e+06
3.5015e+06
3.5015e+06
3.5015e+06
3.50598e+06
3.5058e+06
3.50564e+06
3.50548e+06
3.50532e+06
3.50515e+06
3.50498e+06
3.50481e+06
3.50464e+06
3.50447e+06
3.5043e+06
3.50413e+06
3.50396e+06
3.5038e+06
3.50364e+06
3.50349e+06
3.50334e+06
3.50319e+06
3.50305e+06
3.50292e+06
3.50279e+06
3.50268e+06
3.50256e+06
3.50246e+06
3.50236e+06
3.50227e+06
3.50218e+06
3.5021e+06
3.50203e+06
3.50196e+06
3.5019e+06
3.50184e+06
3.50179e+06
3.50174e+06
3.5017e+06
3.50166e+06
3.50162e+06
3.5016e+06
3.50157e+06
3.50155e+06
3.50153e+06
3.50152e+06
3.50151e+06
3.50151e+06
3.50151e+06
3.50638e+06
3.50618e+06
3.506e+06
3.50582e+06
3.50563e+06
3.50544e+06
3.50525e+06
3.50505e+06
3.50486e+06
3.50467e+06
3.50448e+06
3.5043e+06
3.50412e+06
3.50394e+06
3.50377e+06
3.5036e+06
3.50344e+06
3.50328e+06
3.50313e+06
3.50299e+06
3.50286e+06
3.50273e+06
3.50261e+06
3.5025e+06
3.5024e+06
3.5023e+06
3.50221e+06
3.50213e+06
3.50205e+06
3.50198e+06
3.50192e+06
3.50186e+06
3.5018e+06
3.50175e+06
3.50171e+06
3.50167e+06
3.50164e+06
3.50161e+06
3.50158e+06
3.50156e+06
3.50154e+06
3.50153e+06
3.50152e+06
3.50152e+06
3.50152e+06
3.50683e+06
3.50661e+06
3.5064e+06
3.50619e+06
3.50597e+06
3.50575e+06
3.50554e+06
3.50532e+06
3.5051e+06
3.50489e+06
3.50469e+06
3.50448e+06
3.50428e+06
3.50409e+06
3.5039e+06
3.50372e+06
3.50354e+06
3.50337e+06
3.50321e+06
3.50306e+06
3.50292e+06
3.50279e+06
3.50266e+06
3.50255e+06
3.50244e+06
3.50234e+06
3.50224e+06
3.50216e+06
3.50208e+06
3.502e+06
3.50194e+06
3.50188e+06
3.50182e+06
3.50177e+06
3.50172e+06
3.50168e+06
3.50165e+06
3.50162e+06
3.50159e+06
3.50157e+06
3.50155e+06
3.50154e+06
3.50153e+06
3.50153e+06
3.50153e+06
3.50731e+06
3.50706e+06
3.50683e+06
3.50659e+06
3.50635e+06
3.5061e+06
3.50585e+06
3.50561e+06
3.50537e+06
3.50513e+06
3.5049e+06
3.50467e+06
3.50445e+06
3.50424e+06
3.50403e+06
3.50384e+06
3.50365e+06
3.50347e+06
3.5033e+06
3.50314e+06
3.50299e+06
3.50284e+06
3.50271e+06
3.50259e+06
3.50248e+06
3.50237e+06
3.50227e+06
3.50218e+06
3.5021e+06
3.50202e+06
3.50196e+06
3.50189e+06
3.50184e+06
3.50178e+06
3.50174e+06
3.5017e+06
3.50166e+06
3.50163e+06
3.5016e+06
3.50158e+06
3.50156e+06
3.50155e+06
3.50154e+06
3.50153e+06
3.50154e+06
3.50786e+06
3.50758e+06
3.50732e+06
3.50704e+06
3.50675e+06
3.50647e+06
3.50619e+06
3.50591e+06
3.50564e+06
3.50538e+06
3.50513e+06
3.50488e+06
3.50464e+06
3.5044e+06
3.50418e+06
3.50396e+06
3.50376e+06
3.50356e+06
3.50338e+06
3.50321e+06
3.50305e+06
3.5029e+06
3.50276e+06
3.50263e+06
3.50251e+06
3.5024e+06
3.5023e+06
3.50221e+06
3.50212e+06
3.50205e+06
3.50197e+06
3.50191e+06
3.50185e+06
3.5018e+06
3.50175e+06
3.50171e+06
3.50167e+06
3.50164e+06
3.50161e+06
3.50159e+06
3.50157e+06
3.50156e+06
3.50155e+06
3.50154e+06
3.50154e+06
3.50843e+06
3.50812e+06
3.50783e+06
3.50751e+06
3.50719e+06
3.50687e+06
3.50655e+06
3.50624e+06
3.50594e+06
3.50565e+06
3.50537e+06
3.50509e+06
3.50483e+06
3.50457e+06
3.50433e+06
3.50409e+06
3.50387e+06
3.50366e+06
3.50347e+06
3.50329e+06
3.50312e+06
3.50296e+06
3.50281e+06
3.50268e+06
3.50255e+06
3.50244e+06
3.50233e+06
3.50224e+06
3.50215e+06
3.50207e+06
3.50199e+06
3.50193e+06
3.50186e+06
3.50181e+06
3.50176e+06
3.50172e+06
3.50168e+06
3.50165e+06
3.50162e+06
3.5016e+06
3.50158e+06
3.50156e+06
3.50155e+06
3.50155e+06
3.50155e+06
3.50911e+06
3.50874e+06
3.5084e+06
3.50803e+06
3.50767e+06
3.5073e+06
3.50695e+06
3.5066e+06
3.50627e+06
3.50594e+06
3.50562e+06
3.50532e+06
3.50503e+06
3.50475e+06
3.50448e+06
3.50423e+06
3.50399e+06
3.50377e+06
3.50356e+06
3.50336e+06
3.50318e+06
3.50302e+06
3.50286e+06
3.50272e+06
3.50259e+06
3.50247e+06
3.50236e+06
3.50226e+06
3.50217e+06
3.50209e+06
3.50201e+06
3.50194e+06
3.50188e+06
3.50182e+06
3.50177e+06
3.50173e+06
3.50169e+06
3.50166e+06
3.50163e+06
3.5016e+06
3.50159e+06
3.50157e+06
3.50156e+06
3.50156e+06
3.50156e+06
3.50982e+06
3.5094e+06
3.50901e+06
3.50859e+06
3.50818e+06
3.50777e+06
3.50737e+06
3.50699e+06
3.50661e+06
3.50625e+06
3.5059e+06
3.50556e+06
3.50524e+06
3.50493e+06
3.50464e+06
3.50437e+06
3.50411e+06
3.50387e+06
3.50365e+06
3.50344e+06
3.50325e+06
3.50307e+06
3.50291e+06
3.50276e+06
3.50263e+06
3.5025e+06
3.50239e+06
3.50229e+06
3.50219e+06
3.5021e+06
3.50203e+06
3.50196e+06
3.50189e+06
3.50184e+06
3.50178e+06
3.50174e+06
3.5017e+06
3.50167e+06
3.50164e+06
3.50161e+06
3.50159e+06
3.50158e+06
3.50157e+06
3.50156e+06
3.50156e+06
3.51078e+06
3.51023e+06
3.50974e+06
3.50923e+06
3.50875e+06
3.50829e+06
3.50784e+06
3.5074e+06
3.50698e+06
3.50657e+06
3.50618e+06
3.50581e+06
3.50546e+06
3.50512e+06
3.5048e+06
3.50451e+06
3.50423e+06
3.50397e+06
3.50374e+06
3.50352e+06
3.50332e+06
3.50313e+06
3.50296e+06
3.50281e+06
3.50266e+06
3.50253e+06
3.50242e+06
3.50231e+06
3.50221e+06
3.50212e+06
3.50204e+06
3.50197e+06
3.50191e+06
3.50185e+06
3.50179e+06
3.50175e+06
3.50171e+06
3.50167e+06
3.50164e+06
3.50162e+06
3.5016e+06
3.50159e+06
3.50158e+06
3.50157e+06
3.50157e+06
3.51167e+06
3.51103e+06
3.51049e+06
3.50992e+06
3.50937e+06
3.50885e+06
3.50834e+06
3.50785e+06
3.50738e+06
3.50692e+06
3.50649e+06
3.50608e+06
3.50568e+06
3.50532e+06
3.50497e+06
3.50465e+06
3.50436e+06
3.50408e+06
3.50383e+06
3.5036e+06
3.50338e+06
3.50319e+06
3.50301e+06
3.50285e+06
3.5027e+06
3.50257e+06
3.50244e+06
3.50233e+06
3.50223e+06
3.50214e+06
3.50206e+06
3.50198e+06
3.50192e+06
3.50186e+06
3.50181e+06
3.50176e+06
3.50172e+06
3.50168e+06
3.50165e+06
3.50163e+06
3.50161e+06
3.50159e+06
3.50158e+06
3.50158e+06
3.50158e+06
3.51279e+06
3.512e+06