/*--------------------------------*- C++ -*----------------------------------*\
| =========                 |                                                 |
| \\      /  F ield         | OpenFOAM: The Open Source CFD Toolbox           |
|  \\    /   O peration     | Version:  v2012                                 |
|   \\  /    A nd           | Website:  www.openfoam.com                      |
|    \\/     M anipulation  |                                                 |
\*---------------------------------------------------------------------------*/
FoamFile
{
    version     2.0;
    format      ascii;
    class       surfaceScalarField;
    location    "0.75";
    object      alphaPhi0.water;
}
// * * * * * * * * * * * * * * * * * * * * * * * * * * * * * * * * * * * * * //

dimensions      [0 3 -1 0 0 0 0];
oriented        oriented;


internalField   nonuniform List<scalar> 
8145
(
-1.84921e-152
1.62123e-152
-1.01106e-161
-4.03279e-151
3.87149e-151
-9.64252e-160
-1.39384e-148
1.39004e-148
-1.90544e-157
-6.80443e-146
6.79076e-146
-5.36917e-155
-4.44035e-143
4.43371e-143
-7.71765e-153
-4.55308e-140
4.54861e-140
4.57233e-149
-1.13171e-136
1.13119e-136
-8.00648e-146
-1.98022e-133
3.11771e-133
-1.50389e-142
8.11313e-132
-9.55656e-141
-3.50756e-153
2.44071e-153
-1.84147e-161
-1.58893e-152
1.30112e-152
-4.828e-161
-1.63369e-151
1.49726e-151
-3.33517e-160
-3.31004e-149
3.29536e-149
-1.73862e-158
-1.03029e-146
1.02702e-146
-2.53215e-155
-3.96404e-144
3.95391e-144
-5.55839e-153
-1.94818e-141
1.9443e-141
-1.5506e-150
-1.27924e-138
1.27734e-138
-1.8984e-148
-1.32115e-135
1.31993e-135
1.45806e-144
-3.2619e-132
3.2604e-132
-2.18202e-141
-5.80555e-129
9.13343e-129
-3.88944e-138
2.27895e-127
-2.35049e-136
-5.59801e-14
-3.20769e-11
-4.40461e-18
-1.16571e-17
-1.77177e-13
-2.32841e-20
-1.39072e-24
-4.03369e-17
-4.65603e-24
-1.60934e-31
-3.53841e-24
-4.33816e-31
-1.84473e-40
-4.58766e-31
-4.35924e-38
-5.88451e-48
-5.02927e-40
-4.31334e-47
-5.93862e-54
-1.55299e-47
-1.21397e-54
-4.03302e-60
-1.44846e-53
-1.06554e-60
-2.80377e-74
-9.53914e-60
-6.311e-67
-2.4442e-78
-6.30198e-74
-8.97713e-81
-7.10996e-83
-5.28908e-78
-3.96482e-85
-3.3438e-86
-1.46548e-82
-8.41627e-90
-6.56692e-89
-6.54238e-86
-3.60344e-93
-4.55984e-92
-1.21318e-88
-5.19355e-96
-1.91182e-95
-7.57228e-92
-3.91606e-99
-1.33902e-98
-3.13239e-95
-1.47498e-102
-8.12682e-103
-2.38211e-98
-8.21786e-106
-9.37868e-107
-1.29236e-102
-4.9767e-110
-1.24877e-111
-1.31781e-106
-4.771e-114
-6.23846e-117
-1.61818e-111
-6.09264e-119
-2.76568e-122
-7.3364e-117
-2.41616e-124
-3.53627e-132
-2.73668e-122
-1.02662e-129
-2.38498e-138
-2.4856e-132
-1.17407e-139
-1.20873e-145
-2.39816e-138
-7.0666e-146
-1.18099e-153
-1.21246e-145
-3.17294e-153
-4.32079e-154
-1.72645e-154
-2.70685e-161
-4.45419e-154
4.28978e-155
-8.66666e-162
-5.21044e-154
1.19305e-154
-7.54901e-162
-6.91028e-154
2.37738e-154
-7.19726e-162
-1.05945e-153
4.66916e-154
-7.39531e-162
-1.96221e-153
1.0172e-153
-7.89628e-162
-4.65648e-153
2.80855e-153
-4.00522e-162
-1.54054e-152
1.13998e-152
-4.37336e-161
-1.03547e-151
9.0491e-152
-4.75117e-160
-1.36218e-149
1.35314e-149
-4.20102e-158
-3.02584e-147
3.0124e-147
-6.40241e-156
-7.9149e-145
7.88504e-145
-4.24025e-154
-2.48555e-142
2.47776e-142
-6.30184e-151
-9.63296e-140
9.6086e-140
-1.38705e-148
-4.76841e-137
4.75902e-137
-3.83311e-146
-3.15331e-134
3.14871e-134
-3.86461e-144
-3.3062e-131
3.30277e-131
3.93244e-140
-8.0104e-128
8.00675e-128
-5.07986e-137
-1.46051e-124
2.29567e-124
-8.40486e-134
5.48651e-123
-5.01551e-132
-6.32977e-14
-2.87135e-11
-4.13355e-18
-1.75965e-17
-1.89001e-13
-2.58694e-20
-1.31834e-24
-5.63882e-17
-6.84253e-24
-2.15123e-31
-3.30296e-24
-4.39027e-31
-2.56006e-40
-5.92292e-31
-6.1869e-38
-8.81195e-48
-6.75814e-40
-6.24416e-47
-8.43647e-54
-2.26897e-47
-1.85327e-54
-6.08858e-60
-1.99558e-53
-1.5311e-60
-4.82203e-74
-1.38923e-59
-9.6216e-67
-4.11e-78
-9.98545e-74
-1.34127e-80
-1.25046e-82
-8.68458e-78
-6.8397e-85
-6.15404e-86
-2.52042e-82
-1.51541e-89
-1.22268e-88
-1.1793e-85
-6.89116e-93
-9.59219e-92
-2.18566e-88
-1.08743e-95
-4.15101e-95
-1.73081e-91
-8.80263e-99
-3.77033e-98
-6.7091e-95
-3.3485e-102
-2.60008e-102
-5.99423e-98
-2.38819e-105
-2.87824e-106
-3.95699e-102
-1.65625e-109
-4.98265e-111
-3.67063e-106
-1.52326e-113
-3.67434e-116
-5.94678e-111
-2.53693e-118
-2.43068e-121
-3.99073e-116
-1.42296e-123
-2.95356e-131
-2.02502e-121
-9.17727e-129
-4.50136e-136
-2.09572e-131
-9.93946e-139
-4.07816e-143
-4.52533e-136
-1.34839e-143
-3.32932e-153
-4.09031e-143
-1.08076e-150
-2.20176e-153
-4.68888e-154
-7.62596e-161
-2.26068e-153
2.28658e-154
-4.44156e-161
-2.66212e-153
6.45532e-154
-3.87798e-161
-3.75477e-153
1.36703e-153
-3.80812e-161
-6.75505e-153
3.24649e-153
-4.3533e-161
-1.61507e-152
1.0208e-152
-6.01427e-161
-8.18899e-152
6.83719e-152
-7.69863e-161
-8.01225e-150
7.94175e-150
-2.61413e-158
-1.37802e-147
1.37011e-147
-7.09608e-156
-2.69168e-145
2.67807e-145
-8.69848e-154
-6.05039e-143
6.02384e-143
-1.3103e-151
-1.59574e-140
1.58979e-140
-8.76052e-150
-5.05233e-138
5.03668e-138
-1.32374e-146
-1.97408e-135
1.96915e-135
-2.92341e-144
-9.85123e-133
9.83209e-133
-8.00207e-142
-6.56676e-130
6.55732e-130
-6.20878e-140
-7.36069e-127
7.35275e-127
9.00645e-136
-1.64746e-123
1.64669e-123
-9.87849e-133
-3.11478e-120
4.89083e-120
-1.45375e-129
1.11831e-118
-8.65316e-128
-6.97207e-14
-2.54964e-11
-4.1198e-18
-2.45812e-17
-1.95803e-13
-2.83432e-20
-1.2926e-24
-7.30954e-17
-9.26745e-24
-2.88839e-31
-3.15689e-24
-4.16851e-31
-3.57061e-40
-7.68536e-31
-8.23701e-38
-1.34038e-47
-9.13116e-40
-8.85767e-47
-1.2059e-53
-3.3621e-47
-2.89402e-54
-9.09096e-60
-2.7739e-53
-2.25609e-60
-7.52002e-74
-2.00311e-59
-1.48041e-66
-7.00173e-78
-1.56311e-73
-2.25724e-80
-2.23815e-82
-1.44396e-77
-1.20955e-84
-1.1599e-85
-4.41174e-82
-2.78077e-89
-2.27413e-88
-2.17874e-85
-1.34184e-92
-2.58628e-91
-3.94207e-88
-2.22469e-95
-9.47604e-95
-4.96921e-91
-2.59178e-98
-8.74464e-98
-1.51833e-94
-8.22638e-102
-7.68275e-102
-1.2384e-97
-5.7779e-105
-8.24449e-106
-1.07582e-101
-5.03751e-109
-1.92072e-110
-9.88163e-106
-4.53593e-113
-2.16519e-115
-2.15573e-110
-1.00872e-117
-2.3374e-120
-2.20736e-115
-8.47966e-123
-3.04349e-129
-2.27482e-120
-8.9669e-128
-8.834e-134
-3.06582e-129
-1.03779e-136
-1.42928e-140
-8.87925e-134
-2.67577e-141
-1.03163e-152
-1.43338e-140
-3.82481e-148
-7.92763e-153
-3.13758e-153
-2.33686e-160
-8.29797e-153
9.12021e-154
-1.61153e-160
-1.08033e-152
2.94291e-153
-1.49238e-160
-1.76039e-152
7.93889e-153
-1.77069e-160
-6.9129e-152
5.45216e-152
-5.51131e-160
-5.70227e-150
5.6432e-150
-2.79905e-158
-8.19216e-148
8.13594e-148
-9.80962e-157
-1.28883e-145
1.28073e-145
-4.52252e-154
-2.24956e-143
2.23685e-143
-1.23629e-151
-4.43474e-141
4.41257e-141
-1.50823e-149
-1.00598e-138
1.00162e-138
-2.24164e-147
-2.67742e-136
2.66756e-136
-1.51469e-145
-8.55437e-134
8.52822e-134
-2.32029e-142
-3.37285e-131
3.36455e-131
-5.15274e-140
-1.69841e-128
1.69517e-128
-1.40252e-137
-1.14233e-125
1.14072e-125
-8.03989e-136
-1.34735e-122
1.34604e-122
1.8021e-131
-2.77023e-119
2.76898e-119
-1.58999e-128
-5.55999e-116
8.71994e-116
-2.04448e-125
1.90527e-114
-1.26988e-123
-7.44666e-14
-2.2448e-11
-4.06489e-18
-3.19359e-17
-1.96528e-13
-2.7941e-20
-1.29866e-24
-8.82081e-17
-1.12862e-23
-3.89758e-31
-3.12588e-24
-4.13256e-31
-5.00789e-40
-1.00287e-30
-1.09512e-37
-2.06015e-47
-1.24132e-39
-1.22025e-46
-1.74778e-53
-5.02261e-47
-4.3795e-54
-1.3496e-59
-3.92418e-53
-3.24237e-60
-1.16056e-73
-2.8785e-59
-2.19431e-66
-1.20764e-77
-2.43972e-73
-3.84e-80
-4.07816e-82
-2.42928e-77
-2.1393e-84
-2.24339e-85
-7.85889e-82
-5.14937e-89
-4.28172e-88
-4.13166e-85
-2.65464e-92
-7.69401e-91
-7.23357e-88
-4.4561e-95
-2.27655e-94
-1.44611e-90
-8.37521e-98
-1.78217e-97
-3.60359e-94
-2.16176e-101
-2.07234e-101
-2.30954e-97
-1.23627e-104
-2.52348e-105
-2.67925e-101
-1.39001e-108
-8.04831e-110
-3.08787e-105
-1.43115e-112
-1.44222e-114
-9.19756e-110
-4.36595e-117
-3.64859e-119
-1.51932e-114
-5.79103e-122
-4.24777e-127
-4.48729e-119
-1.42096e-126
-1.80621e-131
-4.28126e-127
-1.46661e-134
-5.21548e-138
-1.81509e-131
-5.52917e-139
-7.98614e-152
-5.22985e-138
-1.40856e-145
-2.0883e-152
-6.28952e-152
-1.89901e-159
-2.24871e-152
2.65176e-153
-4.28301e-160
-5.42285e-152
3.44456e-152
-1.38036e-159
-3.97335e-150
3.9269e-150
-7.18459e-158
-5.32475e-148
5.28568e-148
-5.25636e-156
-7.33593e-146
7.28346e-146
-3.84642e-154
-1.0718e-143
1.06456e-143
-1.46302e-152
-1.70352e-141
1.69297e-141
-6.43642e-150
-3.00352e-139
2.98677e-139
-1.75907e-147
-5.98077e-137
5.95128e-137
-2.14297e-145
-1.37033e-134
1.36447e-134
-3.16145e-143
-3.68381e-132
3.67044e-132
-2.14424e-141
-1.18883e-129
1.18525e-129
-3.33933e-138
-4.73464e-127
4.72318e-127
-7.45484e-136
-2.40817e-124
2.40366e-124
-2.01571e-133
-1.63593e-121
1.63367e-121
-6.83856e-132
-1.98465e-118
1.983e-118
2.92219e-127
-3.72364e-115
3.72197e-115
-2.02846e-124
-8.1967e-112
1.28377e-111
-2.10636e-121
2.67684e-110
-1.43403e-119
-7.71973e-14
-1.95868e-11
-3.59938e-18
-3.87338e-17
-1.9211e-13
-2.6918e-20
-1.61596e-24
-9.94741e-17
-1.31239e-23
-5.28851e-31
-4.70107e-24
-5.07634e-31
-7.06749e-40
-1.31688e-30
-1.48161e-37
-3.17907e-47
-1.69913e-39
-1.71768e-46
-2.59298e-53
-7.51403e-47
-6.75373e-54
-2.0099e-59
-5.7083e-53
-4.82265e-60
-1.88662e-73
-4.16677e-59
-3.2875e-66
-2.1079e-77
-3.87689e-73
-6.18654e-80
-7.56051e-82
-4.13407e-77
-3.83522e-84
-4.45302e-85
-1.42326e-81
-9.68204e-89
-8.32309e-88
-8.036e-85
-5.34245e-92
-2.10851e-90
-1.38199e-87
-8.81969e-95
-5.66312e-94
-3.65028e-90
-2.4311e-97
-3.6044e-97
-8.76049e-94
-5.77957e-101
-5.50876e-101
-4.56946e-97
-2.62033e-104
-9.5344e-105
-6.88212e-101
-3.76162e-108
-4.17552e-109
-1.25488e-104
-5.48535e-112
-1.23147e-113
-5.05123e-109
-2.35551e-116
-6.2281e-118
-1.35507e-113
-5.14228e-121
-6.18899e-125
-5.8598e-118
-2.45873e-125
-3.85532e-129
-6.23782e-125
-2.16111e-132
-1.98633e-135
-3.8735e-129
-1.1915e-136
-8.03134e-149
-1.99157e-135
-5.40884e-143
-7.63023e-150
-7.37684e-149
-1.91803e-156
-8.88711e-150
1.25982e-150
-1.57519e-157
-2.81825e-148
2.72996e-148
-1.06745e-155
-4.01068e-146
3.9831e-146
-7.6312e-154
-5.47976e-144
5.44038e-144
-5.70241e-152
-7.63513e-142
7.58136e-142
-4.25759e-150
-1.12795e-139
1.12046e-139
-1.7342e-148
-1.81262e-137
1.80156e-137
-7.32605e-146
-3.23107e-135
3.21333e-135
-2.00472e-143
-6.50462e-133
6.47306e-133
-2.45193e-141
-1.50675e-130
1.50042e-130
-3.60268e-139
-4.09524e-128
4.08063e-128
-2.47539e-137
-1.33625e-125
1.3323e-125
-3.89728e-134
-5.38094e-123
5.36819e-123
-8.76943e-132
-2.76741e-120
2.76235e-120
-2.36602e-129
-1.90087e-117
1.89832e-117
-3.45542e-128
-2.34328e-114
2.34156e-114
3.73581e-123
-3.95396e-111
3.95205e-111
-2.04077e-120
-9.84093e-108
1.53887e-107
-1.53175e-117
3.05789e-106
-1.28453e-115
-7.82232e-14
-1.69292e-11
-3.28461e-18
-4.40816e-17
-1.84735e-13
-2.57642e-20
-4.5783e-24
-1.05592e-16
-1.43838e-23
-7.21901e-31
-1.84989e-23
-1.36478e-30
-1.00435e-39
-1.74112e-30
-1.94896e-37
-4.89372e-47
-2.3439e-39
-2.38755e-46
-3.97707e-53
-1.11876e-46
-1.02826e-53
-3.04292e-59
-8.62378e-53
-7.3724e-60
-3.01175e-73
-6.1709e-59
-4.98356e-66
-3.72443e-77
-6.22199e-73
-9.8692e-80
-1.42439e-81
-7.12075e-77
-6.94097e-84
-9.05109e-85
-2.61653e-81
-1.85113e-88
-1.70985e-87
-1.5978e-84
-1.09653e-91
-4.9586e-90
-2.81916e-87
-1.76971e-94
-1.42719e-93
-7.76271e-90
-5.9192e-97
-8.71711e-97
-2.13203e-93
-1.5085e-100
-1.64554e-100
-1.21287e-96
-6.55797e-104
-4.33969e-104
-2.14068e-100
-1.1431e-107
-2.57339e-108
-5.70551e-104
-2.51589e-111
-1.22288e-112
-3.01288e-108
-1.49589e-115
-6.99529e-117
-1.22284e-112
-5.33653e-120
-9.43216e-123
-4.45471e-117
-2.79468e-124
-8.6095e-127
-9.50789e-123
-3.32671e-130
-7.9159e-133
-8.64839e-127
-2.68354e-134
-1.2095e-145
-7.93587e-133
-2.17153e-140
-6.1738e-146
-5.97574e-146
-2.90794e-153
-7.15981e-146
9.86394e-147
-1.28326e-153
-2.23942e-144
2.16837e-144
-8.85962e-152
-3.2241e-142
3.20235e-142
-6.43184e-150
-4.45859e-140
4.42713e-140
-4.8896e-148
-6.28734e-138
6.24384e-138
-3.72488e-146
-9.39997e-136
9.3386e-136
-1.60597e-144
-1.52865e-133
1.51949e-133
-6.59037e-142
-2.75744e-131
2.74258e-131
-1.79958e-139
-5.61753e-129
5.59079e-129
-2.22449e-137
-1.31688e-126
1.31146e-126
-3.27701e-135
-3.62239e-124
3.60974e-124
-2.26664e-133
-1.19632e-121
1.19287e-121
-3.62351e-130
-4.87638e-119
4.86513e-119
-8.21166e-128
-2.53874e-116
2.53423e-116
-2.2062e-125
-1.76523e-113
1.76295e-113
2.11379e-124
-2.26114e-110
2.25906e-110
3.78005e-119
-3.28384e-107
3.28204e-107
-1.56383e-116
-9.48177e-104
1.48002e-103
-3.44955e-114
2.79846e-102
-7.32969e-112
-7.8168e-14
-1.44885e-11
-2.51584e-18
-4.74992e-17
-1.75993e-13
-2.28193e-20
-2.06655e-23
-1.06835e-16
-1.5109e-23
-9.91754e-31
-8.0417e-23
-6.13482e-30
-1.43835e-39
-2.3193e-30
-2.65674e-37
-7.47531e-47
-3.26185e-39
-3.36071e-46
-6.35416e-53
-1.65023e-46
-1.54691e-53
-4.76666e-59
-1.36124e-52
-1.16714e-59
-5.47192e-73
-9.53681e-59
-7.78034e-66
-6.67085e-77
-1.04966e-72
-1.68974e-79
-2.72399e-81
-1.24384e-76
-1.26482e-83
-1.87602e-84
-4.87738e-81
-3.58553e-88
-3.7783e-87
-3.23134e-84
-2.28467e-91
-1.01933e-89
-6.22414e-87
-3.69523e-94
-3.60602e-93
-1.45388e-89
-1.23643e-96
-2.94201e-96
-5.17048e-93
-3.80007e-100
-6.09251e-100
-4.59844e-96
-2.22474e-103
-1.97572e-103
-8.42033e-100
-4.30853e-107
-1.6043e-107
-2.35238e-103
-1.16269e-110
-1.22321e-111
-1.67102e-107
-9.38264e-115
-7.69525e-116
-1.07389e-111
-5.53709e-119
-1.50679e-120
-7.28e-116
-3.10446e-123
-2.01611e-124
-1.5194e-120
-5.35916e-128
-3.30988e-130
-2.02484e-124
-6.32978e-132
-1.91049e-142
-3.31783e-130
-9.13848e-138
-1.87548e-142
-1.75411e-143
-4.62108e-150
-2.47842e-142
6.03303e-143
-8.14033e-150
-1.36108e-140
1.33677e-140
-5.70635e-148
-2.01238e-138
1.99933e-138
-4.20961e-146
-2.81918e-136
2.79973e-136
-3.25755e-144
-4.02694e-134
3.99969e-134
-2.53174e-142
-6.09835e-132
6.05938e-132
-1.15018e-140
-1.00454e-129
9.98655e-130
-4.5987e-138
-1.83549e-127
1.82581e-127
-1.25816e-135
-3.78789e-125
3.77027e-125
-1.57368e-133
-8.99574e-123
8.95959e-123
-2.3281e-131
-2.50708e-120
2.49856e-120
-1.6388e-129
-8.38988e-118
8.36637e-118
-2.64573e-126
-3.46571e-115
3.45797e-115
-6.05203e-124
-1.82869e-112
1.82557e-112
-1.62521e-121
-1.28874e-109
1.28715e-109
5.01186e-120
-1.94662e-106
1.94469e-106
3.06387e-115
-2.16036e-103
2.15881e-103
-9.2329e-113
-7.21967e-100
1.12457e-99
5.84449e-110
2.02007e-98
-2.17183e-108
-7.75063e-14
-1.22725e-11
-2.35537e-18
-4.90943e-17
-1.66023e-13
-2.26391e-20
-7.07216e-23
-1.04658e-16
-1.59493e-23
-1.37172e-30
-2.29963e-22
-2.02013e-29
-2.07783e-39
-3.11454e-30
-3.57453e-37
-1.12967e-46
-4.58475e-39
-4.80884e-46
-1.05875e-52
-2.40688e-46
-2.34111e-53
-7.8763e-59
-2.24017e-52
-1.95707e-59
-9.73872e-73
-1.56837e-58
-1.29534e-65
-1.21446e-76
-1.82293e-72
-3.03981e-79
-5.28754e-81
-2.21064e-76
-2.34393e-83
-3.94659e-84
-9.22175e-81
-7.09099e-88
-8.95751e-87
-6.61352e-84
-4.85313e-91
-1.96503e-89
-1.4665e-86
-8.27843e-94
-9.25076e-93
-2.63174e-89
-2.38684e-96
-1.17509e-95
-1.28036e-92
-9.55544e-100
-2.5773e-99
-1.77341e-95
-8.83543e-103
-8.34828e-103
-3.45206e-99
-1.84913e-106
-1.01438e-106
-8.93276e-103
-5.01412e-110
-1.42449e-110
-1.00326e-106
-5.87976e-114
-2.31258e-114
-1.40889e-110
-6.58718e-118
-2.52883e-118
-4.79776e-114
-9.39717e-122
-4.96285e-122
-2.55162e-118
-9.05173e-126
-1.45621e-127
-4.98344e-122
-1.56696e-129
-3.25382e-139
-1.45954e-127
-4.04157e-135
-2.90495e-139
-7.28417e-140
-7.78854e-147
-5.72278e-139
2.82034e-139
-3.94606e-146
-6.35857e-137
6.3045e-137
-2.81111e-144
-9.61534e-135
9.55547e-135
-2.10891e-142
-1.36566e-132
1.3565e-132
-1.66224e-140
-1.97777e-130
1.96474e-130
-1.31825e-138
-3.03675e-128
3.01785e-128
-6.2568e-137
-5.07199e-126
5.04304e-126
-2.4579e-134
-9.39724e-124
9.34905e-124
-6.75157e-132
-1.96663e-121
1.95774e-121
-8.55891e-130
-4.73684e-119
4.71839e-119
-1.27988e-127
-1.33909e-116
1.33469e-116
-9.0779e-126
-4.54625e-114
4.53398e-114
-1.49186e-122
-1.90554e-111
1.90146e-111
-3.44091e-120
-1.02036e-108
1.01871e-108
-9.20438e-118
-7.29791e-106
7.2895e-106
5.52051e-116
-1.26416e-102
1.26318e-102
2.19714e-111
-1.18347e-99
1.18247e-99
-4.062e-109
-4.27488e-96
6.64255e-96
9.74103e-106
1.13161e-94
1.27878e-104
-7.43146e-14
-1.02845e-11
-1.90071e-18
-4.93503e-17
-1.49495e-13
-2.03631e-20
-1.6308e-22
-1.00573e-16
-1.58411e-23
-1.91076e-30
-4.41019e-22
-4.60834e-29
-3.03098e-39
-4.21932e-30
-4.9039e-37
-1.68906e-46
-6.5178e-39
-6.88888e-46
-1.82518e-52
-3.47677e-46
-3.45232e-53
-1.39121e-58
-3.79747e-52
-3.34591e-59
-1.67835e-72
-2.76946e-58
-2.27872e-65
-2.25542e-76
-3.17053e-72
-5.30223e-79
-1.04392e-80
-4.01328e-76
-4.38723e-83
-8.40018e-84
-1.77361e-80
-1.42427e-87
-2.21463e-86
-1.36615e-83
-1.04605e-90
-4.00755e-89
-3.54384e-86
-1.99376e-93
-2.50252e-92
-5.40266e-89
-4.79094e-96
-4.14206e-95
-3.41282e-92
-2.55937e-99
-1.04565e-98
-5.40602e-95
-3.13874e-102
-3.71168e-102
-1.24292e-98
-7.54221e-106
-8.0293e-106
-3.95422e-102
-2.25959e-109
-2.54067e-109
-8.84853e-106
-4.63116e-113
-6.80938e-113
-3.25249e-109
-1.17883e-116
-4.4695e-116
-4.03337e-113
-2.77902e-120
-1.28752e-119
-4.51457e-116
-1.60632e-123
-6.76151e-125
-1.29266e-119
-4.08047e-127
-5.28572e-136
-6.77614e-125
-1.88361e-132
-4.17644e-136
-4.1802e-137
-1.25791e-143
-1.40453e-135
9.88239e-136
-1.43363e-142
-2.24367e-133
2.23126e-133
-1.03888e-140
-3.45007e-131
3.42954e-131
-7.9327e-139
-4.97214e-129
4.93999e-129
-6.37326e-137
-7.3077e-127
7.26119e-127
-5.15827e-135
-1.13883e-124
1.13198e-124
-2.55107e-133
-1.93068e-122
1.92003e-122
-9.88265e-131
-3.63126e-120
3.61329e-120
-2.73082e-128
-7.71541e-118
7.68183e-118
-3.5141e-126
-1.88701e-115
1.87995e-115
-5.31218e-124
-5.41779e-113
5.40075e-113
-3.83958e-122
-1.86846e-110
1.86366e-110
-6.39318e-119
-7.95711e-108
7.94104e-108
-1.49066e-116
-4.32994e-105
4.32339e-105
-3.98692e-114
-3.14751e-102
3.14421e-102
3.47277e-112
-5.92269e-99
5.91976e-99
1.16381e-107
-5.26962e-96
5.26743e-96
-1.43835e-105
-1.93545e-92
2.99898e-92
7.36054e-102
4.8361e-91
1.6621e-100
-6.74679e-14
-8.52667e-12
-1.66279e-18
-4.87594e-17
-1.27833e-13
-1.86182e-20
-2.71727e-22
-9.53344e-17
-1.55291e-23
-2.68177e-30
-6.28988e-22
-7.73627e-29
-4.47028e-39
-5.77151e-30
-6.9668e-37
-2.50909e-46
-9.38699e-39
-1.02972e-45
-3.2042e-52
-5.00488e-46
-5.19603e-53
-2.61817e-58
-6.50905e-52
-5.94558e-59
-3.0281e-72
-5.18726e-58
-4.33016e-65
-4.2878e-76
-5.58806e-72
-9.83732e-79
-2.10667e-80
-7.46697e-76
-8.43085e-83
-1.81041e-83
-3.49095e-80
-2.93664e-87
-5.49395e-86
-2.8541e-83
-2.3027e-90
-1.02816e-88
-8.43295e-86
-5.05429e-93
-7.49308e-92
-1.53682e-88
-1.18916e-95
-1.2153e-94
-1.02984e-91
-7.83474e-99
-3.96174e-98
-1.37481e-94
-9.40981e-102
-2.16749e-101
-4.27357e-98
-2.85227e-105
-8.86796e-105
-2.58799e-101
-1.31476e-108
-5.00638e-108
-1.02108e-104
-5.13032e-112
-3.54681e-111
-4.35709e-108
-2.35304e-115
-8.34036e-114
-2.82837e-111
-1.44929e-118
-3.53007e-117
-8.43861e-114
-3.0019e-121
-3.32398e-122
-3.5438e-117
-1.12056e-124
-7.32698e-133
-3.33077e-122
-9.27831e-130
-5.69314e-133
-1.66967e-133
-1.79306e-140
-3.11112e-132
2.54737e-132
-3.82679e-139
-5.83535e-130
5.81063e-130
-2.8238e-137
-9.11514e-128
9.06422e-128
-2.19678e-135
-1.33425e-125
1.32605e-125
-1.80051e-133
-1.99223e-123
1.98014e-123
-1.48791e-131
-3.15461e-121
3.1365e-121
-7.62825e-130
-5.43478e-119
5.40618e-119
-2.9384e-127
-1.03891e-116
1.03401e-116
-8.17731e-125
-2.24387e-114
2.23459e-114
-1.06973e-122
-5.57982e-112
5.56007e-112
-1.64328e-120
-1.6292e-109
1.62439e-109
-1.19252e-118
-5.71548e-107
5.70181e-107
-2.0362e-115
-2.4766e-104
2.472e-104
-4.79548e-113
-1.37157e-101
1.36971e-101
-1.27687e-110
-1.01488e-98
1.01396e-98
1.60256e-108
-2.01633e-95
2.01582e-95
4.38934e-104
-1.76041e-92
1.76105e-92
-3.65731e-102
-6.58301e-89
1.01677e-88
3.77656e-98
1.54881e-87
1.03114e-96
-5.82323e-14
-6.99785e-12
-1.63514e-18
-4.6846e-17
-1.04557e-13
-1.7437e-20
-3.56784e-22
-8.52909e-17
-1.47506e-23
-3.79488e-30
-7.31429e-22
-9.85383e-29
-6.67604e-39
-7.98127e-30
-9.57163e-37
-3.73748e-46
-1.37219e-38
-1.50097e-45
-5.62601e-52
-7.2659e-46
-7.59797e-53
-5.12633e-58
-1.10786e-51
-1.02963e-58
-5.3282e-72
-9.97995e-58
-8.39369e-65
-8.36011e-76
-9.75793e-72
-1.83059e-78
-4.38002e-80
-1.42502e-75
-1.6496e-82
-3.97787e-83
-7.09475e-80
-6.19815e-87
-1.33546e-85
-6.08392e-83
-5.1886e-90
-3.59394e-88
-1.9435e-85
-1.29884e-92
-2.52498e-91
-5.82471e-88
-4.03851e-95
-3.47756e-94
-3.45887e-91
-2.73842e-98
-1.67553e-97
-3.83086e-94
-2.75371e-101
-1.69378e-100
-1.91061e-97
-1.20042e-104
-1.02451e-103
-2.04791e-100
-1.01838e-107
-9.01349e-107
-1.0146e-103
-5.83387e-111
-5.07233e-109
-6.98129e-107
-4.25077e-114
-1.64776e-111
-5.27313e-109
-2.06841e-116
-1.02589e-114
-1.67146e-111
-5.92308e-119
-1.73595e-119
-1.02986e-114
-3.2541e-122
-1.04029e-129
-1.73929e-119
-4.84575e-127
-7.59382e-130
-2.85244e-130
-2.54812e-137
-5.62734e-129
4.88438e-129
-7.58577e-136
-1.12952e-126
1.12574e-126
-5.70646e-134
-1.79296e-124
1.78381e-124
-4.52773e-132
-2.66853e-122
2.65325e-122
-3.78905e-130
-4.05268e-120
4.0296e-120
-3.1985e-128
-6.52837e-118
6.49312e-118
-1.69632e-126
-1.14439e-115
1.13872e-115
-6.53002e-124
-2.22628e-113
2.21643e-113
-1.83646e-121
-4.89449e-111
4.87558e-111
-2.44274e-119
-1.2392e-108
1.23513e-108
-3.80544e-117
-3.68494e-106
3.6749e-106
-2.80638e-115
-1.31697e-103
1.3141e-103
-4.89488e-112
-5.81545e-101
5.80585e-101
-1.16775e-109
-3.28311e-98
3.27927e-98
-3.10727e-107
-2.47698e-95
2.47518e-95
5.06564e-105
-5.14467e-92
5.1443e-92
1.2165e-100
-4.31914e-89
4.61293e-89
-6.45124e-99
-1.65132e-85
2.54117e-85
1.28961e-94
3.64815e-84
3.69848e-93
-4.80387e-14
-5.69272e-12
-1.35831e-18
-4.08992e-17
-8.26136e-14
-1.44328e-20
-3.97505e-22
-6.99693e-17
-1.25121e-23
-5.42019e-30
-7.44409e-22
-1.14258e-28
-1.01139e-38
-1.11778e-29
-1.42552e-36
-5.66872e-46
-2.04042e-38
-2.3508e-45
-9.74791e-52
-1.0838e-45
-1.18302e-52
-1.00945e-57
-1.85189e-51
-1.82176e-58
-1.0325e-71
-1.90235e-57
-1.67809e-64
-1.66976e-75
-1.77812e-71
-3.52282e-78
-9.47505e-80
-2.78143e-75
-3.3579e-82
-9.03915e-83
-1.504e-79
-1.35952e-86
-3.20303e-85
-1.34552e-82
-1.2142e-89
-1.3797e-87
-4.42227e-85
-3.32534e-92
-9.14434e-91
-2.09387e-87
-1.54665e-94
-1.3119e-93
-1.18815e-90
-9.94841e-98
-9.99789e-97
-1.69055e-93
-1.03295e-100
-1.31935e-99
-1.27521e-96
-7.11909e-104
-1.1173e-102
-1.33989e-99
-7.9572e-107
-7.18169e-105
-8.1734e-103
-6.09647e-110
-7.93682e-107
-7.66251e-105
-3.31147e-112
-3.45672e-109
-8.34666e-107
-3.21922e-114
-3.17015e-112
-3.51999e-109
-1.23743e-116
-9.66577e-117
-3.18277e-112
-1.00234e-119
-1.33737e-126
-9.68323e-117
-2.69253e-124
-9.52302e-127
-3.89688e-127
-3.27281e-134
-9.58006e-126
8.66476e-126
-1.3891e-132
-2.02399e-123
2.01851e-123
-1.0668e-130
-3.26807e-121
3.25255e-121
-8.64366e-129
-4.95192e-119
4.92508e-119
-7.39338e-127
-7.65958e-117
7.61803e-117
-6.38039e-125
-1.25702e-114
1.25053e-114
-3.48868e-123
-2.24533e-112
2.23471e-112
-1.35154e-120
-4.45204e-110
4.43323e-110
-3.85333e-118
-9.97864e-108
9.94185e-108
-5.21698e-116
-2.57642e-105
2.56836e-105
-8.28529e-114
-7.81558e-103
7.79543e-103
-6.09204e-112
-2.85049e-100
2.84466e-100
-1.10392e-108
-1.28502e-97
1.28304e-97
-2.6645e-106
-7.40887e-95
7.40099e-95
-7.04538e-104
-5.71039e-92
5.70677e-92
1.52889e-101
-1.21515e-88
1.21515e-88
3.17411e-97
-1.21023e-85
1.38536e-85
-6.25883e-96
-2.99652e-82
4.59139e-82
3.12939e-91
6.1972e-81
9.21265e-90
-3.81723e-14
-4.6008e-12
-1.2601e-18
-3.33936e-17
-6.35238e-14
-1.22602e-20
-3.99817e-22
-5.49705e-17
-1.04534e-23
-7.82752e-30
-7.04524e-22
-1.1463e-28
-1.55762e-38
-1.58938e-29
-2.03962e-36
-8.94029e-46
-3.094e-38
-3.57412e-45
-1.66045e-51
-1.70108e-45
-1.84071e-52
-1.94578e-57
-3.0415e-51
-3.05983e-58
-1.93227e-71
-3.51138e-57
-3.19308e-64
-3.40155e-75
-3.25803e-71
-6.71135e-78
-2.15321e-79
-5.51841e-75
-6.94706e-82
-2.17118e-82
-3.35434e-79
-3.07742e-86
-7.91247e-85
-3.1619e-82
-2.9813e-89
-4.57598e-87
-1.05494e-84
-8.61509e-92
-3.39411e-90
-5.91882e-87
-5.20134e-94
-7.56243e-93
-4.08691e-90
-3.52672e-97
-7.38611e-96
-1.04296e-92
-5.66549e-100
-9.20444e-99
-8.27176e-96
-5.18857e-103
-3.97346e-101
-7.33445e-99
-5.5748e-106
-1.21775e-102
-3.80986e-101
-2.06614e-108
-1.32093e-104
-1.26803e-102
-4.2641e-110
-7.72449e-107
-1.40723e-104
-5.31152e-112
-1.04516e-109
-7.91093e-107
-2.74586e-114
-5.75989e-114
-1.04972e-109
-3.28571e-117
-1.33286e-123
-5.76961e-114
-1.59766e-121
-9.90477e-124
-3.46619e-124
-3.25244e-131
-1.12739e-122
1.03566e-122
-1.71164e-129
-2.44244e-120
2.43919e-120
-1.34361e-127
-4.01587e-118
4.00072e-118
-1.11285e-125
-6.2027e-116
6.17411e-116
-9.73742e-124
-9.78427e-114
9.73814e-114
-8.59379e-122
-1.63799e-111
1.63058e-111
-4.82928e-120
-2.98547e-109
2.97308e-109
-1.89635e-117
-6.04192e-107
6.0196e-107
-5.49503e-115
-1.38262e-104
1.3782e-104
-7.57719e-113
-3.64597e-102
3.63624e-102
-1.22301e-110
-1.13004e-99
1.12761e-99
-9.08475e-109
-4.2128e-97
4.20589e-97
-1.70495e-105
-1.94213e-94
1.93988e-94
-4.17516e-103
-1.14561e-91
1.1448e-91
-1.10085e-100
-9.03726e-89
9.03457e-89
2.99959e-98
-1.96968e-85
1.97015e-85
5.5711e-94
-2.20559e-82
2.60917e-82
1.76265e-92
-3.85486e-79
5.87763e-79
5.15065e-88
7.43759e-78
1.49622e-86
-2.93181e-14
-3.70534e-12
-1.08235e-18
-2.62622e-17
-4.76735e-14
-9.76662e-21
-3.78086e-22
-4.22694e-17
-8.75169e-24
-1.14591e-29
-5.88752e-22
-1.12081e-28
-2.44482e-38
-2.30219e-29
-3.06358e-36
-1.49859e-45
-4.79754e-38
-5.77004e-45
-2.8062e-51
-2.86901e-45
-3.17783e-52
-3.64069e-57
-4.9816e-51
-5.30914e-58
-3.70916e-71
-6.27189e-57
-6.09366e-64
-7.02874e-75
-6.09185e-71
-1.32215e-77
-5.17591e-79
-1.10568e-74
-1.49221e-81
-5.66332e-82
-7.9054e-79
-7.30577e-86
-2.17258e-84
-8.1117e-82
-7.85206e-89
-1.29853e-86
-2.896e-84
-2.38941e-91
-1.36039e-89
-1.45272e-86
-1.47804e-93
-4.58507e-92
-1.61843e-89
-1.32803e-96
-5.00573e-95
-5.31467e-92
-3.32404e-99
-1.29312e-97
-4.37269e-95
-3.43886e-102
-6.31645e-99
-1.22102e-97
-7.5959e-105
-1.88214e-100
-6.40135e-99
-2.13581e-106
-2.53113e-102
-1.94039e-100
-5.86398e-108
-1.84494e-104
-2.6497e-102
-9.30075e-110
-3.68959e-107
-1.90541e-104
-6.49404e-112
-3.68831e-111
-3.70881e-107
-1.1504e-114
-1.01367e-120
-3.6941e-111
-1.01644e-118
-7.78256e-121
-2.39623e-121
-2.46156e-128
-8.8819e-120
8.2022e-120
-1.39596e-126
-1.95232e-117
1.95418e-117
-1.12159e-124
-3.27348e-115
3.26642e-115
-9.50811e-123
-5.16156e-113
5.14448e-113
-8.51908e-121
-8.31583e-111
8.28586e-111
-7.69278e-119
-1.42236e-108
1.41732e-108
-4.42723e-117
-2.6495e-106
2.64085e-106
-1.77377e-114
-5.48172e-104
5.46591e-104
-5.24647e-112
-1.28289e-101
1.27975e-101
-7.37805e-110
-3.46114e-99
3.45431e-99
-1.21705e-107
-1.09802e-96
1.09638e-96
-8.9112e-106
-4.19199e-94
4.18766e-94
-1.77109e-102
-1.98012e-91
1.97896e-91
-4.39329e-100
-1.19742e-88
1.19722e-88
-1.14604e-97
-9.68852e-86
9.69054e-86
4.04666e-95
-2.17468e-82
2.17598e-82
6.67434e-91
-2.6553e-79
3.19611e-79
7.37511e-89
-3.44205e-76
5.21908e-76
5.87922e-85
6.17152e-75
1.67546e-83
-2.17764e-14
-2.9841e-12
-8.97933e-19
-2.01537e-17
-3.50547e-14
-7.46077e-21
-2.72932e-22
-3.20913e-17
-7.15005e-24
-1.70669e-29
-3.42575e-22
-8.16566e-29
-3.92252e-38
-3.41127e-29
-4.51462e-36
-2.69892e-45
-7.63008e-38
-9.04961e-45
-4.82174e-51
-5.21264e-45
-5.56833e-52
-6.71451e-57
-8.40263e-51
-8.84821e-58
-7.29614e-71
-1.11239e-56
-1.09253e-63
-1.46918e-74
-1.17431e-70
-2.5624e-77
-1.32073e-78
-2.23238e-74
-3.19489e-81
-1.64739e-81
-1.96966e-78
-1.79148e-85
-7.17608e-84
-2.32465e-81
-2.24274e-88
-3.89097e-86
-9.77387e-84
-7.64124e-91
-6.78835e-89
-4.49845e-86
-4.19264e-93
-2.32798e-91
-8.48187e-89
-6.47295e-96
-4.14406e-94
-2.21092e-91
-1.70205e-98
-1.38877e-95
-3.63157e-94
-2.74482e-101
-8.29571e-97
-1.36884e-95
-5.50688e-103
-2.98486e-98
-8.32387e-97
-2.55019e-104
-5.65776e-100
-3.04414e-98
-8.60741e-106
-4.72694e-102
-5.84938e-100
-1.73957e-107
-1.40008e-104
-4.94111e-102
-1.64305e-109
-2.54884e-108
-1.40974e-104
-4.31895e-112
-7.40689e-118
-2.55255e-108
-6.96316e-116
-5.16008e-118
-2.32244e-118
-1.7862e-125
-4.65152e-117
4.22409e-117
-7.39825e-124
-1.0139e-114
1.01887e-114
-6.0928e-122
-1.73673e-112
1.73782e-112
-5.29353e-120
-2.80041e-110
2.79727e-110
-4.86146e-118
-4.61589e-108
4.60773e-108
-4.49259e-116
-8.08009e-106
8.0644e-106
-2.6322e-114
-1.54088e-103
1.53805e-103
-1.08818e-111
-3.26495e-101
3.25977e-101
-3.29247e-109
-7.82847e-99
7.81863e-99
-4.72869e-107
-2.16487e-96
2.16298e-96
-7.94209e-105
-7.04323e-94
7.03988e-94
-5.81261e-103
-2.75917e-91
2.75896e-91
-1.22091e-99
-1.33819e-88
1.33861e-88
-3.07733e-97
-8.31422e-86
8.31985e-86
-7.96548e-95
-6.91448e-83
6.92158e-83
3.51073e-92
-1.60074e-79
1.60245e-79
5.361e-88
-2.1033e-76
2.5551e-76
1.09995e-85
-2.08643e-73
3.14383e-73
4.44688e-82
3.46085e-72
1.21868e-80
-1.57001e-14
-2.41144e-12
-7.20926e-19
-1.51835e-17
-2.54828e-14
-5.60297e-21
-1.46583e-22
-2.4184e-17
-5.67703e-24
-2.59783e-29
-1.67528e-22
-4.54582e-29
-6.45594e-38
-5.19522e-29
-7.05058e-36
-5.15593e-45
-1.24881e-37
-1.52645e-44
-8.76711e-51
-9.94246e-45
-1.09313e-51
-1.2727e-56
-1.53152e-50
-1.65101e-57
-1.48849e-70
-2.07225e-56
-2.11076e-63
-3.12226e-74
-2.35875e-70
-5.38106e-77
-3.59038e-78
-4.57389e-74
-7.13943e-81
-5.45418e-81
-5.19569e-78
-4.67038e-85
-2.87823e-83
-7.54138e-81
-7.12499e-88
-1.81308e-85
-3.85399e-83
-2.92647e-90
-4.28461e-88
-2.66943e-85
-1.66175e-92
-1.26845e-90
-4.96344e-88
-4.13501e-95
-1.68141e-92
-1.13349e-90
-9.46503e-98
-1.76472e-93
-1.66419e-92
-9.84939e-100
-1.11126e-94
-1.71926e-93
-5.86279e-101
-5.00512e-96
-1.10067e-94
-3.26186e-102
-1.2899e-97
-5.04671e-96
-1.354e-103
-1.3032e-99
-1.32196e-97
-3.4912e-105
-5.73477e-102
-1.35674e-99
-4.4618e-107
-1.90962e-105
-5.79276e-102
-1.74618e-109
-1.13215e-114
-1.91219e-105
-5.16039e-113
-9.90444e-115
-1.44073e-115
-2.70579e-122
-2.32215e-114
1.38395e-114
-2.49517e-121
-3.35047e-112
3.38389e-112
-2.10932e-119
-5.86452e-110
5.89756e-110
-1.88059e-117
-9.69003e-108
9.71654e-108
-1.77188e-115
-1.63716e-105
1.63948e-105
-1.67576e-113
-2.93842e-103
2.94076e-103
-9.94458e-112
-5.74739e-101
5.75074e-101
-4.2776e-109
-1.24953e-98
1.25027e-98
-1.33113e-106
-3.07544e-96
3.07768e-96
-1.95517e-104
-8.73457e-94
8.74293e-94
-3.36441e-102
-2.92022e-91
2.92378e-91
-2.38171e-100
-1.17636e-88
1.17813e-88
-5.44887e-97
-5.86951e-86
5.88115e-86
-1.39278e-94
-3.75537e-83
3.76252e-83
-3.5342e-92