/*--------------------------------*- C++ -*----------------------------------*\
| =========                 |                                                 |
| \\      /  F ield         | OpenFOAM: The Open Source CFD Toolbox           |
|  \\    /   O peration     | Version:  v2012                                 |
|   \\  /    A nd           | Website:  www.openfoam.com                      |
|    \\/     M anipulation  |                                                 |
\*---------------------------------------------------------------------------*/
FoamFile
{
    version     2.0;
    format      ascii;
    class       surfaceScalarField;
    location    "0.95";
    object      phi;
}
// * * * * * * * * * * * * * * * * * * * * * * * * * * * * * * * * * * * * * //

dimensions      [0 3 -1 0 0 0 0];
oriented        oriented;


internalField   nonuniform List<scalar> 
8135
(
3.84653e-11
-2.08862e-09
5.45488e-17
4.01463e-11
-2.22979e-09
7.68082e-17
4.16151e-11
-2.37223e-09
4.73837e-17
4.28206e-11
-2.51585e-09
7.82574e-17
4.37105e-11
-2.65796e-09
4.79779e-17
4.42314e-11
-2.79642e-09
8.48418e-17
4.43307e-11
-2.93059e-09
5.56959e-17
4.39598e-11
-3.05497e-09
9.88711e-17
4.30741e-11
-3.16788e-09
9.42405e-17
4.16387e-11
-3.26394e-09
1.36685e-16
3.96308e-11
-3.33847e-09
1.03924e-16
3.70434e-11
-3.38615e-09
1.39063e-16
3.38946e-11
-3.39786e-09
1.02027e-16
3.02311e-11
-3.36513e-09
1.29722e-16
2.61344e-11
-3.27637e-09
9.09946e-17
2.17177e-11
-3.11587e-09
1.09881e-16
1.71033e-11
-2.8651e-09
7.27275e-17
1.23815e-11
-2.50435e-09
8.32496e-17
7.62082e-12
-2.01508e-09
5.18165e-17
2.94544e-12
-1.3841e-09
5.31922e-17
-5.72371e-10
3.12767e-17
3.86894e-11
-2.09046e-09
9.27443e-17
4.03709e-11
-2.23147e-09
7.7215e-17
4.18384e-11
-2.37369e-09
7.31345e-17
4.30406e-11
-2.51705e-09
6.7967e-17
4.3925e-11
-2.65884e-09
7.20067e-17
4.44382e-11
-2.79693e-09
7.42914e-17
4.45271e-11
-2.93068e-09
8.87742e-17
4.41431e-11
-3.05459e-09
1.0517e-16
4.32419e-11
-3.16698e-09
1.41428e-16
4.17881e-11
-3.26249e-09
1.49318e-16
3.9759e-11
-3.33643e-09
1.5707e-16
3.71477e-11
-3.38353e-09
1.50468e-16
3.39724e-11
-3.39468e-09
1.50677e-16
3.028e-11
-3.36143e-09
1.3709e-16
2.61528e-11
-3.27223e-09
1.29969e-16
2.17055e-11
-3.11142e-09
1.10422e-16
1.70624e-11
-2.86045e-09
9.95076e-17
1.23147e-11
-2.4996e-09
7.85339e-17
7.53217e-12
-2.01029e-09
6.78671e-17
2.88093e-12
-1.37944e-09
4.64597e-17
-5.69484e-10
3.39773e-17
3.90924e-11
-2.09232e-09
9.76134e-17
4.07835e-11
-2.23316e-09
8.36289e-17
4.22566e-11
-2.37517e-09
6.58571e-17
4.34601e-11
-2.51825e-09
7.00806e-17
4.43407e-11
-2.65973e-09
6.2272e-17
4.48447e-11
-2.79743e-09
8.33718e-17
4.49187e-11
-2.93075e-09
9.26551e-17
4.45137e-11
-3.05418e-09
1.28297e-16
4.35851e-11
-3.16605e-09
1.63658e-16
4.20976e-11
-3.261e-09
1.96266e-16
4.00287e-11
-3.33436e-09
1.95836e-16
3.73715e-11
-3.38087e-09
2.13099e-16
3.41445e-11
-3.39145e-09
1.98245e-16
3.03952e-11
-3.35768e-09
2.01451e-16
2.62063e-11
-3.26804e-09
1.73042e-16
2.16941e-11
-3.10691e-09
1.63978e-16
1.69864e-11
-2.85574e-09
1.29756e-16
1.21816e-11
-2.49479e-09
1.16597e-16
7.37073e-12
-2.00548e-09
8.53722e-17
2.83625e-12
-1.37491e-09
7.09597e-17
-5.66646e-10
4.64879e-17
3.9664e-11
-2.0942e-09
1.0261e-16
4.13705e-11
-2.23487e-09
7.22462e-17
4.28536e-11
-2.37665e-09
6.57148e-17
4.40609e-11
-2.51946e-09
5.35169e-17
4.49383e-11
-2.66061e-09
6.44322e-17
4.54312e-11
-2.79793e-09
7.19484e-17
4.54856e-11
-2.93081e-09
1.09968e-16
4.50523e-11
-3.05375e-09
1.41094e-16
4.4086e-11
-3.16509e-09
1.97144e-16
4.25516e-11
-3.25946e-09
2.13167e-16
4.04266e-11
-3.33224e-09
2.37586e-16
3.77045e-11
-3.37815e-09
2.31213e-16
3.44044e-11
-3.38815e-09
2.38897e-16
3.05745e-11
-3.35385e-09
2.15725e-16
2.62983e-11
-3.26377e-09
2.05038e-16
2.1694e-11
-3.10231e-09
1.68278e-16
1.68947e-11
-2.85094e-09
1.47845e-16
1.20122e-11
-2.48991e-09
1.09891e-16
7.16552e-12
-2.00064e-09
9.0476e-17
2.69218e-12
-1.37044e-09
5.69306e-17
-5.63959e-10
3.77932e-17
4.04055e-11
-2.09611e-09
9.80354e-17
4.21326e-11
-2.23659e-09
7.57725e-17
4.36295e-11
-2.37815e-09
5.24447e-17
4.48423e-11
-2.52068e-09
5.5325e-17
4.57161e-11
-2.66148e-09
4.95335e-17
4.61953e-11
-2.79841e-09
8.06126e-17
4.6225e-11
-2.93084e-09
1.07135e-16
4.57554e-11
-3.05328e-09
1.61568e-16
4.4741e-11
-3.16407e-09
2.07282e-16
4.31463e-11
-3.25787e-09
2.50716e-16
4.09493e-11
-3.33004e-09
2.5903e-16
3.8144e-11
-3.37534e-09
2.80495e-16
3.47506e-11
-3.38476e-09
2.66225e-16
3.08182e-11
-3.34992e-09
2.64041e-16
2.64319e-11
-3.25938e-09
2.26408e-16
2.17126e-11
-3.09758e-09
2.04023e-16
1.68007e-11
-2.84603e-09
1.55805e-16
1.18259e-11
-2.48494e-09
1.28663e-16
6.94068e-12
-1.99575e-09
8.57433e-17
2.52915e-12
-1.36603e-09
6.13386e-17
-5.61433e-10
3.18265e-17
4.13154e-11
-2.09805e-09
1.09024e-16
4.30688e-11
-2.23835e-09
7.03054e-17
4.45833e-11
-2.37966e-09
5.9727e-17
4.58038e-11
-2.5219e-09
4.50277e-17
4.66741e-11
-2.66235e-09
5.78279e-17
4.71373e-11
-2.79887e-09
7.22221e-17
4.71377e-11
-2.93084e-09
1.24732e-16
4.66246e-11
-3.05277e-09
1.70374e-16
4.55518e-11
-3.16299e-09
2.34514e-16
4.38842e-11
-3.2562e-09
2.59046e-16
4.15999e-11
-3.32775e-09
2.91444e-16
3.86941e-11
-3.37243e-09
2.88161e-16
3.5188e-11
-3.38125e-09
2.95944e-16
3.11325e-11
-3.34586e-09
2.6697e-16
2.66149e-11
-3.25486e-09
2.4685e-16
2.17601e-11
-3.09273e-09
1.96793e-16
1.67178e-11
-2.84098e-09
1.62231e-16
1.16391e-11
-2.47986e-09
1.10341e-16
6.71432e-12
-1.99082e-09
7.92731e-17
2.37988e-12
-1.3617e-09
3.59671e-17
-5.59051e-10
1.32004e-17
4.23924e-11
-2.10003e-09
1.08843e-16
4.41775e-11
-2.24013e-09
8.21598e-17
4.57135e-11
-2.3812e-09
5.4269e-17
4.69439e-11
-2.52313e-09
5.63482e-17
4.78109e-11
-2.66322e-09
4.97732e-17
4.82562e-11
-2.79931e-09
8.68623e-17
4.82228e-11
-2.93081e-09
1.2168e-16
4.76592e-11
-3.0522e-09
1.87398e-16
4.65188e-11
-3.16185e-09
2.37405e-16
4.47663e-11
-3.25444e-09
2.90498e-16
4.23804e-11
-3.32536e-09
3.04923e-16
3.93574e-11
-3.36941e-09
3.31109e-16
3.57204e-11
-3.37761e-09
3.15596e-16
3.15225e-11
-3.34166e-09
3.09554e-16
2.68543e-11
-3.25019e-09
2.6175e-16
2.18458e-11
-3.08772e-09
2.28034e-16
1.66579e-11
-2.83579e-09
1.65171e-16
1.14656e-11
-2.47467e-09
1.25649e-16
6.49919e-12
-1.98586e-09
7.06265e-17
2.24324e-12
-1.35744e-09
3.77636e-17
-5.56808e-10
4.10157e-18
4.36365e-11
-2.10206e-09
1.21525e-16
4.54584e-11
-2.24196e-09
7.92554e-17
4.70198e-11
-2.38276e-09
6.72569e-17
4.82622e-11
-2.52437e-09
4.99542e-17
4.9126e-11
-2.66408e-09
6.32925e-17
4.95515e-11
-2.79974e-09
7.93011e-17
4.94802e-11
-2.93074e-09
1.38218e-16
4.88595e-11
-3.05158e-09
1.88812e-16
4.76423e-11
-3.16063e-09
2.58269e-16
4.57933e-11
-3.25259e-09
2.90032e-16
4.3292e-11
-3.32286e-09
3.30579e-16
4.0136e-11
-3.36625e-09
3.30654e-16
3.63507e-11
-3.37382e-09
3.39809e-16
3.19922e-11
-3.3373e-09
3.06468e-16
2.71551e-11
-3.24535e-09
2.79147e-16
2.19763e-11
-3.08253e-09
2.17807e-16
1.66292e-11
-2.83044e-09
1.71362e-16
1.13146e-11
-2.46935e-09
1.07228e-16
6.30256e-12
-1.98085e-09
6.62031e-17
2.11924e-12
-1.35326e-09
1.45409e-17
-5.5469e-10
-1.21116e-17
4.5048e-11
-2.10414e-09
1.18609e-16
4.6912e-11
-2.24382e-09
9.24191e-17
4.85025e-11
-2.38435e-09
6.17263e-17
4.9759e-11
-2.52563e-09
6.35122e-17
5.06199e-11
-2.66494e-09
5.4559e-17
5.10236e-11
-2.80014e-09
9.35716e-17
5.09103e-11
-2.93062e-09
1.29228e-16
5.02262e-11
-3.05089e-09
1.99128e-16
4.89235e-11
-3.15933e-09
2.51132e-16
4.69669e-11
-3.25063e-09
3.12756e-16
4.4337e-11
-3.32023e-09
3.32956e-16
4.10327e-11
-3.36294e-09
3.65048e-16
3.70823e-11
-3.36986e-09
3.49942e-16
3.25457e-11
-3.33276e-09
3.42815e-16
2.75227e-11
-3.24032e-09
2.87875e-16
2.21579e-11
-3.07717e-09
2.46379e-16
1.66392e-11
-2.82492e-09
1.72161e-16
1.11936e-11
-2.4639e-09
1.23458e-16
6.13006e-12
-1.97578e-09
5.89518e-17
2.00885e-12
-1.34914e-09
1.9937e-17
-5.52681e-10
-1.81545e-17
4.66276e-11
-2.10628e-09
1.30704e-16
4.85387e-11
-2.24573e-09
8.74002e-17
5.0162e-11
-2.38598e-09
7.53057e-17
5.14347e-11
-2.5269e-09
5.49654e-17
5.2293e-11
-2.6658e-09
6.78495e-17
5.26734e-11
-2.80052e-09
8.13465e-17
5.25141e-11
-2.93046e-09
1.41099e-16
5.17604e-11
-3.05014e-09
1.90821e-16
5.03638e-11
-3.15793e-09
2.63845e-16
4.8289e-11
-3.24856e-09
3.00141e-16
4.55174e-11
-3.31745e-09
3.4827e-16
4.20502e-11
-3.35947e-09
3.52077e-16
3.79187e-11
-3.36573e-09
3.64724e-16
3.31872e-11
-3.32802e-09
3.29567e-16
2.79617e-11
-3.23509e-09
2.98913e-16
2.23963e-11
-3.0716e-09
2.30034e-16
1.66938e-11
-2.81922e-09
1.76055e-16
1.11083e-11
-2.45832e-09
1.03311e-16
5.98565e-12
-1.97066e-09
5.59728e-17
1.91365e-12
-1.34506e-09
-1.36384e-18
-5.50769e-10
-3.10862e-17
4.83764e-11
-2.10848e-09
1.25672e-16
5.03398e-11
-2.24769e-09
1.01108e-16
5.19996e-11
-2.38764e-09
6.73369e-17
5.32905e-11
-2.52819e-09
6.8617e-17
5.41465e-11
-2.66666e-09
5.56262e-17
5.45018e-11
-2.80088e-09
9.35237e-17
5.42929e-11
-2.93025e-09
1.24791e-16
5.34636e-11
-3.04931e-09
1.94836e-16
5.19648e-11
-3.15643e-09
2.46246e-16
4.97613e-11
-3.24635e-09
3.13432e-16
4.68357e-11
-3.31452e-09
3.37337e-16
4.31913e-11
-3.35582e-09
3.75609e-16
3.8863e-11
-3.3614e-09
3.6199e-16
3.39205e-11
-3.32308e-09
3.56525e-16
2.84766e-11
-3.22965e-09
2.97667e-16
2.26959e-11
-3.06582e-09
2.52558e-16
1.67979e-11
-2.81332e-09
1.71048e-16
1.10629e-11
-2.45258e-09
1.17352e-16
5.87171e-12
-1.96547e-09
4.69397e-17
1.83404e-12
-1.34103e-09
5.11124e-18
-5.48935e-10
-3.58005e-17
5.02961e-11
-2.11076e-09
1.39097e-16
5.23166e-11
-2.24972e-09
9.37956e-17
5.40165e-11
-2.38934e-09
8.14054e-17
5.53277e-11
-2.5295e-09
5.7076e-17
5.61816e-11
-2.66751e-09
6.87121e-17
5.65102e-11
-2.80121e-09
7.65499e-17
5.62479e-11
-2.92999e-09
1.33399e-16
5.53373e-11
-3.0484e-09
1.7821e-16
5.37282e-11
-3.15482e-09
2.52719e-16
5.1386e-11
-3.24401e-09
2.89488e-16
4.82942e-11
-3.31143e-09
3.43055e-16
4.44586e-11
-3.35198e-09
3.49573e-16
3.99184e-11
-3.35685e-09
3.66665e-16
3.47489e-11
-3.3179e-09
3.31324e-16
2.9071e-11
-3.22397e-09
3.00498e-16
2.30609e-11
-3.0598e-09
2.27386e-16
1.69551e-11
-2.80721e-09
1.69959e-16
1.10603e-11
-2.44669e-09
9.21344e-17
5.78935e-12
-1.9602e-09
4.21221e-17
1.77003e-12
-1.33701e-09
-1.7879e-17
-5.47167e-10
-4.82388e-17
5.23886e-11
-2.11311e-09
1.31725e-16
5.44712e-11
-2.2518e-09
1.07928e-16
5.62146e-11
-2.39108e-09
7.02466e-17
5.75481e-11
-2.53084e-09
7.10546e-17
5.84001e-11
-2.66836e-09
5.29995e-17
5.87004e-11
-2.80151e-09
8.80975e-17
5.8381e-11
-2.92967e-09
1.11393e-16
5.73832e-11
-3.0474e-09
1.78787e-16
5.5656e-11
-3.15309e-09
2.27057e-16
5.31649e-11
-3.24151e-09
2.96509e-16
4.9895e-11
-3.30816e-09
3.21014e-16
4.58547e-11
-3.34794e-09
3.64515e-16
4.10877e-11
-3.35208e-09
3.5212e-16
3.56756e-11
-3.31249e-09
3.49835e-16
2.97484e-11
-3.21804e-09
2.89069e-16
2.34943e-11
-3.05355e-09
2.43488e-16
1.71682e-11
-2.80089e-09
1.57748e-16
1.1102e-11
-2.44062e-09
1.02368e-16
5.73899e-12
-1.95483e-09
2.88381e-17
1.72109e-12
-1.33299e-09
-1.28511e-17
-5.45447e-10
-5.42487e-17
5.46564e-11
-2.11555e-09
1.44785e-16
5.68057e-11
-2.25395e-09
9.64845e-17
5.85961e-11
-2.39287e-09
8.42331e-17
5.99537e-11
-2.5322e-09
5.5758e-17
6.0804e-11
-2.66922e-09
6.64667e-17
6.10742e-11
-2.80178e-09
6.70897e-17
6.06941e-11
-2.92929e-09
1.19158e-16
5.96033e-11
-3.04631e-09
1.56201e-16
5.77501e-11
-3.15124e-09
2.30811e-16
5.51004e-11
-3.23886e-09
2.64493e-16
5.16405e-11
-3.30469e-09
3.21064e-16
4.73821e-11
-3.34368e-09
3.28383e-16
4.23735e-11
-3.34707e-09
3.49768e-16
3.67035e-11
-3.30682e-09
3.14623e-16
3.05114e-11
-3.21184e-09
2.85511e-16
2.3999e-11
-3.04703e-09
2.10182e-16
1.74392e-11
-2.79432e-09
1.52093e-16
1.11893e-11
-2.43437e-09
7.1434e-17
5.72028e-12
-1.94937e-09
2.11956e-17
1.68657e-12
-1.32896e-09
-3.93449e-17
-5.43762e-10
-6.80545e-17
5.71023e-11
-2.11808e-09
1.31908e-16
5.9323e-11
-2.25617e-09
1.09553e-16
6.11637e-11
-2.39471e-09
6.83115e-17
6.2547e-11
-2.53358e-09
6.98058e-17
6.33957e-11
-2.67007e-09
4.68174e-17
6.36339e-11
-2.80202e-09
7.91968e-17
6.31892e-11
-2.92885e-09
9.28594e-17
6.19997e-11
-3.04512e-09
1.56263e-16
6.00127e-11
-3.14925e-09
1.99798e-16
5.71944e-11
-3.23604e-09
2.69271e-16
5.35329e-11
-3.30103e-09
2.91455e-16
4.9043e-11
-3.33919e-09
3.38822e-16
4.37782e-11
-3.3418e-09
3.2653e-16
3.78349e-11
-3.30087e-09
3.27925e-16
3.13625e-11
-3.20537e-09
2.66044e-16
2.45769e-11
-3.04025e-09
2.21883e-16
1.77697e-11
-2.78752e-09
1.33596e-16
1.13224e-11
-2.42792e-09
7.84774e-17
5.73267e-12
-1.94378e-09
3.25864e-18
1.66555e-12
-1.32489e-09
-3.64378e-17
-5.42098e-10
-7.66969e-17
5.97295e-11
-2.1207e-09
1.43002e-16
6.20261e-11
-2.25847e-09
9.21249e-17
6.39202e-11
-2.39661e-09
8.15955e-17
6.53309e-11
-2.53499e-09
4.97184e-17
6.61778e-11
-2.67091e-09
6.09192e-17
6.63821e-11
-2.80222e-09
5.43176e-17
6.5869e-11
-2.92834e-09
1.01681e-16
6.45747e-11
-3.04382e-09
1.29596e-16
6.2446e-11
-3.14712e-09
2.03995e-16
5.94493e-11
-3.23304e-09
2.32177e-16
5.55745e-11
-3.29715e-09
2.89868e-16
5.08397e-11
-3.33445e-09
2.95925e-16
4.53042e-11
-3.33627e-09
3.20923e-16
3.90722e-11
-3.29463e-09
2.85512e-16
3.23039e-11
-3.1986e-09
2.58996e-16
2.52297e-11
-3.03317e-09
1.82299e-16
1.81604e-11
-2.78045e-09
1.25081e-16
1.15015e-11
-2.42126e-09
4.25014e-17
5.77521e-12
-1.93805e-09
-6.80047e-18
1.65726e-12
-1.32078e-09
-6.68963e-17
-5.40443e-10
-9.25931e-17
6.25418e-11
-2.12342e-09
1.23194e-16
6.49187e-11
-2.26084e-09
1.03676e-16
6.68691e-11
-2.39856e-09
5.98312e-17
6.83086e-11
-2.53643e-09
6.38629e-17
6.91534e-11
-2.67176e-09
3.68115e-17
6.93216e-11
-2.80239e-09
6.7904e-17
6.87359e-11
-2.92775e-09
7.19081e-17
6.73309e-11
-3.04242e-09
1.31492e-16
6.50525e-11
-3.14484e-09
1.69585e-16
6.18673e-11
-3.22986e-09
2.38e-16
5.77674e-11
-3.29305e-09
2.55547e-16
5.27745e-11
-3.32946e-09
3.05522e-16
4.69536e-11
-3.33044e-09
2.9184e-16
4.04173e-11
-3.2881e-09
2.96817e-16
3.33374e-11
-3.19152e-09
2.33733e-16
2.59589e-11
-3.02579e-09
1.91899e-16
1.86123e-11
-2.7731e-09
1.01589e-16
1.17262e-11
-2.41438e-09
4.7518e-17
5.847e-12
-1.93217e-09
-2.91253e-17
1.66072e-12
-1.31659e-09
-6.60147e-17
-5.38784e-10
-1.04438e-16
6.55431e-11
-2.12625e-09
1.32147e-16
6.80046e-11
-2.26331e-09
7.94017e-17
7.00141e-11
-2.40057e-09
7.25973e-17
7.14837e-11
-2.5379e-09
3.83973e-17
7.23258e-11
-2.6726e-09
5.2088e-17
7.24556e-11
-2.80252e-09
3.91676e-17
7.1793e-11
-2.92709e-09
8.32975e-17
7.0271e-11
-3.0409e-09
1.01939e-16
6.78345e-11
-3.14241e-09
1.76608e-16
6.44508e-11
-3.22647e-09
1.97814e-16
6.01139e-11
-3.28871e-09
2.55431e-16
5.48493e-11
-3.32419e-09
2.58306e-16
4.87283e-11
-3.32432e-09
2.86064e-16
4.18722e-11
-3.28124e-09
2.49423e-16
3.44643e-11
-3.18411e-09
2.25692e-16
2.67654e-11
-3.01809e-09
1.4759e-16
1.91253e-11
-2.76546e-09
9.17954e-17
1.1996e-11
-2.40725e-09
7.19322e-18
5.9469e-12
-1.92613e-09
-4.09732e-17
1.67524e-12
-1.31232e-09
-1.00562e-16
-5.37112e-10
-1.2266e-16
6.87381e-11
-2.12919e-09
1.0483e-16
7.12881e-11
-2.26586e-09
8.99112e-17
7.33595e-11
-2.40264e-09
4.45651e-17
7.486e-11
-2.53941e-09
5.32557e-17
7.56987e-11
-2.67344e-09
2.32716e-17
7.57874e-11
-2.80261e-09
5.5221e-17
7.50434e-11
-2.92635e-09
5.04645e-17
7.33978e-11
-3.03925e-09
1.07445e-16
7.07948e-11
-3.1398e-09
1.39907e-16
6.72022e-11
-3.22288e-09
2.07034e-16
6.26162e-11
-3.28412e-09
2.1819e-16
5.70663e-11
-3.31864e-09
2.69786e-16
5.06302e-11
-3.31788e-09
2.53085e-16
4.34382e-11
-3.27404e-09
2.61214e-16
3.5686e-11
-3.17635e-09
1.96217e-16
2.765e-11
-3.01005e-09
1.56901e-16
1.96999e-11
-2.75751e-09
6.42218e-17
1.23104e-11
-2.39986e-09
1.11664e-17
6.07399e-12
-1.91989e-09
-6.7448e-17
1.69997e-12
-1.30795e-09
-1.01462e-16
-5.35415e-10
-1.37961e-16
7.21314e-11
-2.13225e-09
1.12624e-16
7.4774e-11
-2.2685e-09
5.85933e-17
7.69095e-11
-2.40478e-09
5.76024e-17
7.84418e-11
-2.54094e-09
2.21954e-17
7.9276e-11
-2.67428e-09
4.06114e-17
7.93207e-11
-2.80266e-09
2.26108e-17
7.84904e-11
-2.92552e-09
6.56743e-17
7.67144e-11
-3.03747e-09
7.55571e-17
7.39361e-11
-3.13702e-09
1.51429e-16
7.0124e-11
-3.21907e-09
1.64765e-16
6.52765e-11
-3.27928e-09
2.21689e-16
5.94273e-11
-3.31279e-09
2.19681e-16
5.2661e-11
-3.31111e-09
2.4936e-16
4.5117e-11
-3.2665e-09
2.10225e-16
3.70036e-11
-3.16824e-09
1.89023e-16
2.86134e-11
-3.00166e-09
1.08832e-16
2.03358e-11
-2.74923e-09
5.43236e-17
1.26688e-11
-2.39219e-09
-3.30945e-17
6.22719e-12
-1.91345e-09
-8.05331e-17
1.73437e-12
-1.30346e-09
-1.40155e-16
-5.33684e-10
-1.58507e-16
7.57285e-11
-2.13542e-09
7.76545e-17
7.84673e-11
-2.27124e-09
6.88766e-17
8.06692e-11
-2.40698e-09
2.30794e-17
8.22336e-11
-2.54251e-09
3.87158e-17
8.3062e-11
-2.67511e-09
6.95626e-18
8.30594e-11
-2.80265e-09
4.21674e-17
8.21375e-11
-2.9246e-09
2.98307e-17
8.0224e-11
-3.03556e-09
8.59442e-17
7.72613e-11
-3.13406e-09
1.1278e-16
7.32186e-11
-3.21503e-09
1.7893e-16
6.8097e-11
-3.27415e-09
1.82344e-16
6.19343e-11
-3.30663e-09
2.34877e-16
5.48222e-11
-3.304e-09
2.13536e-16
4.69098e-11
-3.25859e-09
2.2425e-16
3.84179e-11
-3.15975e-09
1.56238e-16
2.96558e-11
-2.9929e-09
1.19155e-16
2.1033e-11
-2.74061e-09
2.31759e-17
1.30703e-11
-2.38423e-09
-2.93927e-17
6.40568e-12
-1.90679e-09
-1.10985e-16
1.77769e-12
-1.29884e-09
-1.42483e-16
-5.3191e-10
-1.77292e-16
7.95348e-11
-2.13873e-09
8.45804e-17
8.23734e-11
-2.27408e-09
3.0016e-17
8.46435e-11
-2.40925e-09
3.72796e-17
8.62403e-11
-2.5441e-09
1.88309e-18
8.70611e-11
-2.67593e-09
2.73876e-17
8.70077e-11
-2.8026e-09
5.52343e-18
8.59886e-11
-2.92358e-09
4.98742e-17
8.39299e-11
-3.0335e-09
5.16797e-17
8.07732e-11
-3.13091e-09
1.29864e-16
7.64887e-11
-3.21074e-09
1.34749e-16
7.10799e-11
-3.26874e-09
1.90794e-16
6.45892e-11
-3.30013e-09
1.82408e-16
5.71155e-11
-3.29653e-09
2.13315e-16
4.88176e-11
-3.25029e-09
1.70311e-16
3.99297e-11
-3.15086e-09
1.51147e-16
3.07776e-11
-2.98375e-09
6.77961e-17
2.17912e-11
-2.73163e-09
1.40466e-17
1.35145e-11
-2.37596e-09
-7.73473e-17
6.60851e-12
-1.89989e-09
-1.24727e-16
1.82958e-12
-1.29406e-09
-1.8524e-16
-5.30084e-10
-1.99909e-16
8.35563e-11
-2.14217e-09
4.11119e-17
8.6498e-11
-2.27703e-09
4.08417e-17
8.8838e-11
-2.41159e-09
-4.02009e-18
9.04669e-11
-2.54574e-09
2.11211e-17
9.12781e-11
-2.67674e-09
-1.13342e-17
9.11697e-11
-2.80249e-09
2.95574e-17
9.00474e-11
-2.92246e-09
1.06859e-17
8.78355e-11
-3.03129e-09
6.77925e-17
8.4475e-11
-3.12755e-09
8.89487e-17
7.99368e-11
-3.2062e-09
1.54752e-16
7.42274e-11
-3.26304e-09
1.49337e-16
6.73937e-11
-3.2933e-09
2.02444e-16
5.95421e-11
-3.28867e-09
1.74931e-16
5.08416e-11
-3.24159e-09
1.87712e-16
4.15397e-11
-3.14156e-09
1.15404e-16
3.1979e-11
-2.97419e-09
8.0075e-17
2.26102e-11
-2.72226e-09
-2.04165e-17
1.40004e-11
-2.36735e-09
-7.31798e-17
6.83504e-12
-1.89273e-09
-1.58889e-16
1.88942e-12
-1.28912e-09
-1.88395e-16
-5.28199e-10
-2.2192e-16
8.77993e-11
-2.14574e-09
4.84012e-17
9.08471e-11
-2.28008e-09
-5.74565e-18
9.32582e-11
-2.414e-09
1.24517e-17
9.49188e-11
-2.5474e-09
-2.17471e-17
9.57179e-11
-2.67754e-09
1.32106e-17
9.555e-11
-2.80233e-09
-1.1548e-17
9.4318e-11
-2.92123e-09
3.6329e-17
9.19444e-11
-3.02892e-09
3.05784e-17
8.83695e-11
-3.12397e-09
1.12198e-16
8.35656e-11
-3.2014e-09
1.08136e-16
7.75415e-11
-3.25701e-09
1.63445e-16
7.03496e-11
-3.28611e-09
1.47412e-16
6.21034e-11
-3.28043e-09
1.79071e-16
5.29827e-11
-3.23246e-09
1.30875e-16
4.32482e-11
-3.13182e-09
1.13282e-16
3.326e-11
-2.9642e-09
2.5577e-17
2.34896e-11
-2.71249e-09
-2.80025e-17
1.45277e-11
-2.35839e-09
-1.2455e-16
7.08443e-12
-1.88529e-09
-1.72472e-16
1.95698e-12
-1.284e-09
-2.3482e-16
-5.26248e-10
-2.46006e-16
9.22702e-11
-2.14946e-09
-3.24198e-18
9.54269e-11
-2.28323e-09
6.96326e-18
9.79102e-11
-2.41649e-09
-3.58819e-17
9.96015e-11
-2.54909e-09
1.3046e-18
1.00386e-10
-2.67833e-09
-3.10397e-17
1.00153e-10
-2.8021e-09
1.77956e-17
9.88045e-11
-2.91989e-09
-6.9447e-18
9.62601e-11
-3.02638e-09
5.29109e-17
9.24601e-11
-3.12018e-09
6.81483e-17
8.73774e-11
-3.19632e-09
1.34398e-16
8.10245e-11
-3.25066e-09
1.19224e-16
7.34584e-11
-3.27854e-09
1.72872e-16
6.48007e-11
-3.27177e-09
1.37837e-16
5.52415e-11
-3.22291e-09
1.52385e-16
4.50557e-11
-3.12164e-09
7.45696e-17
3.46206e-11
-2.95377e-09
4.0597e-17
2.4429e-11
-2.7023e-09
-6.55483e-17
1.50955e-11
-2.34906e-09
-1.18987e-16
7.35622e-12
-1.87755e-09
-2.09749e-16
2.03176e-12
-1.27868e-09
-2.37767e-16
-5.24221e-10
-2.70601e-16
9.69761e-11
-2.15332e-09
5.83501e-18
1.00244e-10
-2.28651e-09
-4.75897e-17
1.028e-10
-2.41905e-09
-1.59745e-17
1.04521e-10
-2.55082e-09
-4.80872e-17
1.05286e-10
-2.6791e-09
-1.45998e-18
1.04984e-10
-2.8018e-09
-2.85448e-17
1.03511e-10
-2.91842e-09
2.48374e-17
1.00786e-10
-3.02365e-09
1.17112e-17
9.67495e-11
-3.11614e-09
9.7826e-17
9.13751e-11
-3.19095e-09
8.43096e-17
8.46783e-11
-3.24396e-09
1.39287e-16
7.67217e-11
-3.27059e-09
1.14553e-16
6.76349e-11
-3.26268e-09
1.46839e-16
5.76189e-11
-3.21289e-09
9.23313e-17
4.69624e-11
-3.11098e-09
7.61046e-17
3.60608e-11
-2.94287e-09
-1.69771e-17
2.5428e-11
-2.69167e-09
-7.06741e-17
1.57034e-11
-2.33934e-09
-1.73207e-16
7.64968e-12
-1.86951e-09
-2.21874e-16
2.11364e-12
-1.27315e-09
-2.86972e-16
-5.22113e-10
-2.95094e-16
1.01924e-10
-2.15733e-09
-5.43277e-17
1.05306e-10
-2.28989e-09
-3.17643e-17
1.07935e-10
-2.42168e-09
-7.18661e-17
1.09683e-10
-2.55257e-09
-2.01991e-17
1.10426e-10
-2.67984e-09
-5.20314e-17
1.10048e-10
-2.80142e-09
6.7765e-18
1.08442e-10
-2.91681e-09
-2.36504e-17
1.05527e-10
-3.02074e-09
4.05173e-17
1.01241e-10
-3.11186e-09
4.93688e-17
9.55608e-11
-3.18527e-09
1.16984e-16
8.85048e-11
-3.23691e-09
9.12441e-17
8.01408e-11
-3.26222e-09
1.45755e-16
7.0607e-11
-3.25315e-09
1.02145e-16
6.01152e-11
-3.2024e-09
1.1854e-16
4.89686e-11
-3.09984e-09
3.43035e-17
3.75803e-11
-2.93148e-09
1.68333e-18
2.64862e-11
-2.68058e-09
-1.10832e-16
1.63507e-11
-2.32921e-09
-1.64836e-16
7.96447e-12
-1.86112e-09
-2.61103e-16
2.2022e-12
-1.2674e-09
-2.88068e-16
-5.19918e-10
-3.21127e-16
1.07122e-10
-2.16149e-09
-4.2117e-17
1.10619e-10
-2.29339e-09
-9.4814e-17
1.1332e-10
-2.42438e-09
-4.74115e-17
1.15093e-10
-2.55434e-09
-7.68955e-17
1.1581e-10
-2.68056e-09
-1.66002e-17
1.15349e-10
-2.80096e-09
-4.5927e-17
1.13602e-10
-2.91507e-09
1.46504e-17
1.10485e-10
-3.01763e-09
-6.05747e-18
1.05938e-10
-3.10731e-09
8.55953e-17
9.99372e-11
-3.17927e-09
6.20923e-17
9.25058e-11
-3.22948e-09
1.17433e-16
8.37172e-11
-3.25344e-09
8.31983e-17
7.37179e-11
-3.24315e-09
1.16445e-16
6.2731e-11
-3.19141e-09
5.48745e-17
5.10742e-11
-3.08818e-09
4.03025e-17
3.9179e-11
-2.91959e-09
-5.87035e-17
2.7603e-11
-2.66901e-09
-1.12129e-16
1.7037e-11
-2.31865e-09
-2.20764e-16
8.29995e-12
-1.85239e-09
-2.69751e-16
2.2974e-12
-1.2614e-09
-3.38494e-16
-5.17627e-10
-3.44413e-16
1.12576e-10
-2.16581e-09
-1.11675e-16
1.1619e-10
-2.29701e-09
-7.47768e-17
1.18964e-10
-2.42716e-09
-1.11649e-16
1.20759e-10
-2.55614e-09
-4.3141e-17
1.21443e-10
-2.68125e-09
-7.45696e-17
1.20892e-10
-2.80041e-09
-4.04193e-18
1.18994e-10
-2.91317e-09
-4.04901e-17
1.15665e-10
-3.0143e-09
2.94198e-17
1.10842e-10
-3.10249e-09
3.12521e-17
1.04506e-10
-3.17294e-09
1.01343e-16
9.66831e-11
-3.22165e-09
6.44005e-17
8.74519e-11
-3.24421e-09
1.2053e-16
7.69682e-11
-3.23267e-09
6.76805e-17
6.54665e-11
-3.17991e-09
8.65553e-17
5.32792e-11
-3.076e-09
-4.49802e-18
4.08563e-11
-2.90717e-09
-3.50875e-17
2.87782e-11
-2.65694e-09
-1.53894e-16
1.77616e-11
-2.30764e-09
-2.07433e-16
8.65587e-12
-1.84329e-09
-3.08974e-16
2.39886e-12
-1.25515e-09
-3.35336e-16
-5.15235e-10
-3.70173e-16
1.18297e-10
-2.17029e-09
-9.59081e-17
1.22028e-10
-2.30074e-09
-1.47254e-16
1.24873e-10
-2.43001e-09
-8.1378e-17
1.26686e-10
-2.55796e-09
-1.08031e-16
1.27332e-10
-2.6819e-09
-3.24176e-17
1.26683e-10
-2.79977e-09
-6.44666e-17
1.24624e-10
-2.91112e-09
4.72046e-18
1.21069e-10
-3.01075e-09
-2.40882e-17
1.15958e-10
-3.09738e-09
7.42743e-17
1.09271e-10
-3.16625e-09
4.03181e-17
1.01038e-10
-3.21342e-09
9.71009e-17
9.13461e-11
-3.23452e-09
5.2899e-17
8.03584e-11
-3.22168e-09
8.80169e-17
6.83218e-11
-3.16788e-09
1.91498e-17
5.55833e-11
-3.06326e-09
7.22205e-18
4.2612e-11
-2.8942e-09
-9.75249e-17
3.00109e-11
-2.64434e-09
-1.49281e-16
1.8524e-11
-2.29616e-09
-2.63115e-16
9.03164e-12
-1.83381e-09
-3.11217e-16
2.50663e-12
-1.24863e-09
-3.8467e-16
-5.12736e-10
-3.90055e-16
1.24291e-10
-2.17493e-09
-1.75947e-16
1.2814e-10
-2.3046e-09
-1.21304e-16
1.31054e-10
-2.43292e-09
-1.54452e-16
1.32882e-10
-2.55979e-09
-6.69655e-17
1.33483e-10
-2.6825e-09
-9.88927e-17
1.32727e-10
-2.79901e-09
-1.52702e-17
1.30496e-10
-2.90889e-09
-5.86054e-17
1.26702e-10
-3.00696e-09
1.84538e-17
1.21287e-10
-3.09197e-09
1.26511e-17
1.14232e-10
-3.1592e-09
8.66808e-17
1.05572e-10
-3.20477e-09
3.81517e-17
9.54002e-11
-3.22435e-09
9.71899e-17
8.38889e-11
-3.21017e-09
3.49335e-17
7.12968e-11
-3.15529e-09
5.76033e-17
5.79864e-11
-3.04995e-09
-3.99888e-17
4.44454e-11
-2.88067e-09
-6.69421e-17
3.13007e-11
-2.6312e-09
-1.90898e-16
1.93236e-11
-2.28419e-09
-2.41761e-16
9.42707e-12
-1.82392e-09
-3.47599e-16
2.62032e-12
-1.24184e-09
-3.74119e-16
-5.10124e-10
-4.13336e-16
1.30567e-10
-2.17974e-09
-1.53728e-16
1.34535e-10
-2.30857e-09
-2.02731e-16
1.37514e-10
-2.43591e-09
-1.15967e-16
1.39352e-10
-2.56163e-09
-1.40536e-16
1.39901e-10
-2.68306e-09
-4.86463e-17
1.39028e-10
-2.79814e-09
-8.47068e-17
1.36613e-10
-2.90648e-09
-5.74651e-18
1.32567e-10
-3.00291e-09
-4.33846e-17
1.26832e-10
-3.08624e-09
6.32094e-17
1.19392e-10
-3.15176e-09
1.85517e-17
1.10287e-10
-3.19566e-09
7.83601e-17
9.96153e-11
-3.21368e-09
2.41327e-17
8.75598e-11
-3.19812e-09
6.27015e-17
7.43914e-11
-3.14212e-09
-1.31089e-17
6.04877e-11
-3.03605e-09
-2.05685e-17
4.63562e-11
-2.86654e-09
-1.29978e-16
3.26469e-11
-2.61749e-09
-1.77449e-16
2.016e-11
-2.27171e-09
-2.94387e-16
9.84158e-12
-1.81361e-09
-3.3967e-16
2.74005e-12
-1.23474e-09
-4.19456e-16
-5.07392e-10
-4.27221e-16
1.37135e-10
-2.18471e-09
-2.42186e-16
1.41219e-10
-2.31266e-09
-1.66912e-16
1.44262e-10
-2.43895e-09
-1.97255e-16
1.46103e-10
-2.56348e-09
-8.97641e-17
1.46592e-10
-2.68355e-09
-1.24358e-16
1.45592e-10
-2.79714e-09
-2.68731e-17
1.4298e-10
-2.90387e-09
-7.84881e-17
1.38667e-10
-2.9986e-09
7.25771e-18
1.32595e-10
-3.08017e-09
-6.6148e-18
1.24753e-10
-3.14392e-09
7.33105e-17
1.15183e-10
-3.1861e-09
1.31812e-17
1.03991e-10
-3.20249e-09
7.70132e-17
9.13711e-11
-3.1855e-09
5.71354e-18
7.7605e-11
-3.12836e-09
3.41957e-17
6.30868e-11
-3.02154e-09
-6.89164e-17
4.83432e-11
-2.8518e-09
-8.96556e-17
3.40488e-11
-2.60321e-09
-2.16433e-16
2.10323e-11
-2.2587e-09
-2.61165e-16
1.0275e-11
-1.80286e-09
-3.69768e-16
2.86541e-12
-1.22734e-09
-3.97962e-16
-5.04535e-10
-4.45628e-16
1.44003e-10
-2.18985e-09
-2.07848e-16
1.48203e-10
-2.31686e-09
-2.55008e-16
1.51304e-10
-2.44206e-09
-1.46593e-16
1.53142e-10
-2.56532e-09
-1.71742e-16
1.53562e-10
-2.68397e-09
-6.37511e-17
1.52423e-10
-2.79601e-09
-1.06104e-16
1.496e-10
-2.90106e-09
-1.63849e-17
1.45006e-10
-2.99401e-09
-6.36846e-17
1.3858e-10
-3.07374e-09
5.31477e-17
1.30315e-10
-3.13566e-09
-2.16068e-18
1.20261e-10
-3.17604e-09
6.28681e-17
1.08529e-10
-3.19076e-09
-1.04457e-18
9.53224e-11
-3.1723e-09
4.32153e-17
8.09372e-11
-3.11398e-09
-3.86602e-17
6.57827e-11
-3.00639e-09
-3.90392e-17
5.04059e-11
-2.83643e-09
-1.51184e-16
3.55055e-11
-2.58831e-09
-1.90556e-16
2.19402e-11
-2.24514e-09
-3.07402e-16
1.07268e-11
-1.79165e-09
-3.47538e-16
2.99658e-12
-1.21962e-09
-4.36312e-16
-5.01547e-10
-4.50966e-16
1.51181e-10
-2.19515e-09
-3.00261e-16
1.55494e-10
-2.32118e-09
-2.03048e-16
1.58649e-10
-2.44522e-09
-2.3419e-16
1.60477e-10
-2.56715e-09
-1.076e-16
1.60817e-10
-2.68432e-09
-1.48674e-16
1.59527e-10
-2.79472e-09
-3.72099e-17
1.56479e-10
-2.89801e-09
-9.8956e-17
1.51584e-10
-2.98912e-09
-2.74489e-18
1.44787e-10
-3.06695e-09
-2.49502e-17
1.36081e-10
-3.12696e-09
6.33765e-17
1.25521e-10
-3.16549e-09
-7.97469e-18
1.13227e-10
-3.17847e-09
6.30773e-17
9.94132e-11
-3.15849e-09
-1.64727e-17
8.43869e-11
-3.09895e-09
2.04103e-17
6.85747e-11
-2.99058e-09
-8.66584e-17
5.25431e-11
-2.8204e-09
-9.77869e-17
3.70162e-11
-2.57279e-09
-2.24074e-16
2.28828e-11
-2.23101e-09
-2.58263e-16
1.11967e-11
-1.77997e-09
-3.68025e-16
3.13312e-12
-1.21156e-09
-4.00633e-16
-4.98422e-10
-4.62484e-16
1.58677e-10
-2.20062e-09
-2.44013e-16
1.63101e-10
-2.32561e-09
-2.93248e-16
1.66304e-10
-2.44843e-09
-1.65556e-16
1.68113e-10
-2.56897e-09
-1.96719e-16
1.68363e-10
-2.68457e-09
-7.40972e-17
1.66907e-10
-2.79327e-09
-1.26043e-16
1.63618e-10
-2.89473e-09
-2.46193e-17
1.58407e-10
-2.98391e-09
-8.25025e-17
1.51218e-10
-3.05976e-09
4.69476e-17
1.4205e-10
-3.11779e-09
-1.87269e-17
1.30964e-10
-3.1544e-09
5.42921e-17
1.18087e-10
-3.1656e-09
-1.86977e-17
1.03642e-10
-3.14405e-09
3.39736e-17
8.79533e-11
-3.08327e-09
-5.28138e-17
7.14612e-11
-2.97409e-09
-4.30346e-17
5.47538e-11
-2.8037e-09
-1.55462e-16
3.85799e-11
-2.55662e-09
-1.82115e-16
2.38596e-11
-2.2163e-09
-2.95083e-16
1.16842e-11
-1.76781e-09
-3.27971e-16
3.27523e-12
-1.20316e-09
-4.29831e-16
-4.95155e-10
-4.57443e-16
1.66503e-10
-2.20626e-09
-3.31849e-16
1.71032e-10
-2.33015e-09
-2.16181e-16
1.74277e-10
-2.45168e-09
-2.56192e-16
1.76057e-10
-2.57075e-09
-1.14027e-16
1.76204e-10
-2.68472e-09
-1.67111e-16
1.74569e-10
-2.79164e-09
-4.21187e-17
1.71022e-10
-2.89119e-09
-1.16224e-16
1.65475e-10
-2.97837e-09
-7.56032e-18
1.57875e-10
-3.05217e-09
-3.84825e-17
1.48224e-10
-3.10815e-09
6.11661e-17
1.36589e-10
-3.14277e-09
-2.07854e-17
1.23106e-10
-3.15212e-09
6.02678e-17
1.08009e-10
-3.12895e-09
-2.66085e-17
9.16347e-11
-3.0669e-09
2.1466e-17
7.44411e-11
-2.9569e-09
-8.78932e-17
5.70364e-11
-2.7863e-09
-8.56954e-17
4.01955e-11
-2.53978e-09
-2.07826e-16
2.48695e-11
-2.20098e-09
-2.2683e-16
1.2189e-11
-1.75513e-09
-3.36809e-16
3.42244e-12
-1.19441e-09
-3.78067e-16
-4.91741e-10
-4.61196e-16
1.74667e-10
-2.21206e-09
-2.4068e-16
1.79298e-10
-2.33479e-09
-3.02293e-16
1.82576e-10
-2.45496e-09
-1.62143e-16
1.84316e-10
-2.5725e-09
-2.07966e-16
1.84347e-10
-2.68476e-09
-7.33538e-17
1.82516e-10
-2.78981e-09
-1.39155e-16
1.78693e-10
-2.88737e-09
-2.50349e-17
1.72791e-10
-2.97247e-09
-9.46856e-17
1.64758e-10
-3.04414e-09
4.97337e-17
1.54602e-10
-3.09799e-09
-2.60341e-17
1.42396e-10
-3.13057e-09
5.81167e-17
1.28284e-10
-3.13801e-09
-2.33579e-17
1.12512e-10
-3.11318e-09
4.05388e-17
9.54298e-11
-3.04982e-09
-5.02098e-17
7.75125e-11
-2.93899e-09
-2.72977e-17
5.93897e-11
-2.76818e-09
-1.37716e-16
4.18616e-11
-2.52226e-09
-1.47087e-16
2.5912e-11
-2.18503e-09
-2.52738e-16
1.27104e-11
-1.74194e-09
-2.77312e-16
3.57498e-12
-1.18528e-09
-3.97853e-16
-4.88174e-10
-4.45417e-16
1.83179e-10
-2.21802e-09