/*--------------------------------*- C++ -*----------------------------------*\
| =========                 |                                                 |
| \\      /  F ield         | OpenFOAM: The Open Source CFD Toolbox           |
|  \\    /   O peration     | Version:  v2012                                 |
|   \\  /    A nd           | Website:  www.openfoam.com                      |
|    \\/     M anipulation  |                                                 |
\*---------------------------------------------------------------------------*/
FoamFile
{
    version     2.0;
    format      ascii;
    class       surfaceScalarField;
    location    "0.25";
    object      phi;
}
// * * * * * * * * * * * * * * * * * * * * * * * * * * * * * * * * * * * * * //

dimensions      [0 3 -1 0 0 0 0];
oriented        oriented;


internalField   nonuniform List<scalar> 
8145
(
-2.38384e-08
8.46796e-08
-3.17372e-17
-2.02516e-08
8.90903e-08
-3.57296e-16
-1.65307e-08
9.14099e-08
-1.97376e-16
-1.27773e-08
9.1006e-08
-1.04125e-16
-9.12533e-09
8.71441e-08
-2.53266e-18
-5.75033e-09
7.89786e-08
1.68402e-16
-2.88389e-09
6.54689e-08
-1.07578e-16
-8.31455e-10
4.54587e-08
-5.23191e-17
1.75462e-08
-5.95158e-17
-3.29057e-08
6.11408e-08
-4.28112e-16
-3.01172e-08
6.87407e-08
-3.23656e-16
-2.70261e-08
7.55966e-08
-2.7428e-16
-2.36723e-08
8.13257e-08
-3.03526e-17
-2.01104e-08
8.55285e-08
-3.53298e-16
-1.64155e-08
8.77151e-08
-1.93414e-16
-1.26886e-08
8.72791e-08
-9.96089e-17
-9.06259e-09
8.35181e-08
2.16078e-18
-5.71157e-09
7.56276e-08
1.73638e-16
-2.86519e-09
6.26226e-08
-1.00414e-16
-8.26493e-10
4.342e-08
-4.73632e-17
1.67197e-08
-5.5148e-17
-6.64298e-09
-2.72037e-08
-4.26321e-15
-8.16645e-09
-2.96638e-08
-4.37563e-15
-9.75487e-09
-3.18002e-08
-4.71154e-15
-1.13872e-08
-3.36302e-08
-4.12646e-15
-1.30519e-08
-3.51891e-08
-3.92052e-15
-1.47442e-08
-3.65209e-08
-3.7494e-15
-1.64629e-08
-3.7661e-08
-3.52317e-15
-1.82079e-08
-3.86226e-08
-3.25683e-15
-1.9978e-08
-3.94134e-08
-3.0921e-15
-2.17698e-08
-4.00185e-08
-2.9175e-15
-2.35774e-08
-4.04189e-08
-2.78201e-15
-2.53923e-08
-4.05864e-08
-2.65047e-15
-2.72039e-08
-4.04847e-08
-2.54476e-15
-2.89994e-08
-4.00869e-08
-2.4311e-15
-3.07638e-08
-3.93509e-08
-2.30952e-15
-3.24807e-08
-3.82472e-08
-2.33935e-15
-3.4133e-08
-3.67431e-08
-2.17761e-15
-3.57019e-08
-3.48071e-08
-2.01741e-15
-3.71674e-08
-3.24125e-08
-1.85022e-15
-3.85093e-08
-2.95347e-08
-1.68348e-15
-3.97058e-08
-2.61544e-08
-1.52596e-15
-4.07352e-08
-2.22545e-08
-1.37785e-15
-4.15757e-08
-1.78257e-08
-1.235e-15
-4.22045e-08
-1.28638e-08
-1.09596e-15
-4.26e-08
-7.37182e-09
-9.57253e-16
-4.274e-08
-1.36762e-09
-8.25341e-16
-4.26043e-08
5.12736e-09
-6.99786e-16
-4.2173e-08
1.20753e-08
-5.71511e-16
-4.14292e-08
1.94199e-08
-4.40044e-16
-4.03585e-08
2.70833e-08
-3.06519e-16
-3.89485e-08
3.49907e-08
-1.72017e-16
-3.71938e-08
4.29943e-08
5.56592e-17
-3.50924e-08
5.09649e-08
-1.81863e-16
-3.26508e-08
5.86993e-08
-4.44925e-16
-2.98841e-08
6.59739e-08
-3.25617e-16
-2.68167e-08
7.25293e-08
-2.59639e-16
-2.34883e-08
7.79972e-08
-2.67765e-17
-1.99536e-08
8.19938e-08
-3.48625e-16
-1.62871e-08
8.40487e-08
-1.89717e-16
-1.25893e-08
8.35812e-08
-9.56775e-17
-8.99207e-09
7.99209e-08
6.13995e-18
-5.66777e-09
7.23032e-08
1.77867e-16
-2.8439e-09
5.97987e-08
-9.35106e-17
-8.20779e-10
4.13969e-08
-4.22027e-17
1.58989e-08
-5.06116e-17
-6.75834e-09
-2.58193e-08
-4.50098e-15
-8.23969e-09
-2.81824e-08
-4.43871e-15
-9.78962e-09
-3.02502e-08
-4.70409e-15
-1.13873e-08
-3.20326e-08
-4.25579e-15
-1.30204e-08
-3.35559e-08
-4.08815e-15
-1.46832e-08
-3.48582e-08
-3.90535e-15
-1.63735e-08
-3.59707e-08
-3.628e-15
-1.80905e-08
-3.69056e-08
-3.32842e-15
-1.98325e-08
-3.76714e-08
-3.13103e-15
-2.15963e-08
-3.82546e-08
-2.94188e-15
-2.33763e-08
-3.86389e-08
-2.79916e-15
-2.51644e-08
-3.87983e-08
-2.67148e-15
-2.69501e-08
-3.8699e-08
-2.57663e-15
-2.87212e-08
-3.83159e-08
-2.48837e-15
-3.04631e-08
-3.76091e-08
-2.40825e-15
-3.21597e-08
-3.65504e-08
-2.43792e-15
-3.37939e-08
-3.51087e-08
-2.2222e-15
-3.53473e-08
-3.32538e-08
-2.0399e-15
-3.67999e-08
-3.09599e-08
-1.8606e-15
-3.81314e-08
-2.82033e-08
-1.68649e-15
-3.93203e-08
-2.49655e-08
-1.5252e-15
-4.03446e-08
-2.123e-08
-1.37475e-15
-4.11825e-08
-1.69879e-08
-1.23217e-15
-4.18112e-08
-1.22349e-08
-1.09438e-15
-4.22089e-08
-6.97432e-09
-9.58665e-16
-4.23533e-08
-1.22304e-09
-8.28422e-16
-4.22241e-08
4.99808e-09
-7.02509e-16
-4.18015e-08
1.16528e-08
-5.7583e-16
-4.10683e-08
1.86867e-08
-4.46691e-16
-4.00102e-08
2.6025e-08
-3.15816e-16
-3.86147e-08
3.35956e-08
-1.82244e-16
-3.68766e-08
4.1256e-08
4.9259e-17
-3.47939e-08
4.88822e-08
-1.97546e-16
-3.23731e-08
5.62786e-08
-4.5626e-16
-2.96293e-08
6.323e-08
-3.24907e-16
-2.65871e-08
6.94871e-08
-2.44982e-16
-2.3286e-08
7.46961e-08
-1.89033e-17
-1.97806e-08
7.84884e-08
-3.43968e-16
-1.61452e-08
8.04133e-08
-1.86568e-16
-1.24792e-08
7.99153e-08
-9.26939e-17
-8.91351e-09
7.63552e-08
8.9509e-18
-5.61875e-09
6.90085e-08
1.80333e-16
-2.81992e-09
5.69998e-08
-8.77348e-17
-8.14275e-10
3.93912e-08
-3.78331e-17
1.50846e-08
-4.59864e-17
-6.87552e-09
-2.44796e-08
-4.5054e-15
-8.31412e-09
-2.67438e-08
-4.3845e-15
-9.82452e-09
-2.87398e-08
-4.64027e-15
-1.13862e-08
-3.04708e-08
-4.06509e-15
-1.29865e-08
-3.19556e-08
-3.891e-15
-1.46186e-08
-3.32261e-08
-3.77855e-15
-1.62795e-08
-3.43097e-08
-3.57372e-15
-1.79676e-08
-3.52175e-08
-3.33655e-15
-1.96811e-08
-3.59578e-08
-3.16185e-15
-2.14166e-08
-3.65191e-08
-2.97716e-15
-2.31686e-08
-3.68869e-08
-2.83752e-15
-2.49293e-08
-3.70375e-08
-2.71194e-15
-2.66888e-08
-3.69396e-08
-2.62501e-15
-2.84349e-08
-3.65698e-08
-2.55463e-15
-3.01536e-08
-3.58904e-08
-2.50552e-15
-3.18289e-08
-3.48749e-08
-2.57902e-15
-3.34442e-08
-3.34934e-08
-2.28043e-15
-3.49809e-08
-3.17171e-08
-2.06767e-15
-3.64194e-08
-2.95214e-08
-1.87257e-15
-3.77393e-08
-2.68835e-08
-1.6892e-15
-3.89191e-08
-2.37856e-08
-1.52282e-15
-3.9937e-08
-2.0212e-08
-1.36924e-15
-4.07709e-08
-1.6154e-08
-1.22589e-15
-4.1398e-08
-1.16076e-08
-1.08875e-15
-4.17966e-08
-6.57594e-09
-9.55047e-16
-4.19442e-08
-1.07524e-09
-8.26221e-16
-4.18206e-08
4.87434e-09
-7.01225e-16
-4.14057e-08
1.1238e-08
-5.75987e-16
-4.06826e-08
1.79636e-08
-4.49246e-16
-3.96367e-08
2.4979e-08
-3.21019e-16
-3.82558e-08
3.22149e-08
-1.88864e-16
-3.65345e-08
3.95346e-08
4.06619e-17
-3.44709e-08
4.68188e-08
-2.08147e-16
-3.20718e-08
5.38796e-08
-4.65974e-16
-2.93523e-08
6.05104e-08
-3.23499e-16
-2.63368e-08
6.64717e-08
-2.31442e-16
-2.30649e-08
7.14242e-08
-1.46866e-17
-1.95912e-08
7.50146e-08
-3.39202e-16
-1.59892e-08
7.68114e-08
-1.83678e-16
-1.23578e-08
7.62839e-08
-9.02217e-17
-8.82661e-09
7.2824e-08
1.09685e-17
-5.56428e-09
6.57461e-08
1.81475e-16
-2.79313e-09
5.42287e-08
-8.32018e-17
-8.06941e-10
3.74051e-08
-3.47265e-17
1.42777e-08
-4.29258e-17
-6.9961e-09
-2.31848e-08
-4.41999e-15
-8.39112e-09
-2.53488e-08
-4.20006e-15
-9.86072e-09
-2.72703e-08
-4.534e-15
-1.13849e-08
-2.89466e-08
-4.02553e-15
-1.29508e-08
-3.03898e-08
-3.89378e-15
-1.45507e-08
-3.16262e-08
-3.80533e-15
-1.61809e-08
-3.26795e-08
-3.59315e-15
-1.78392e-08
-3.35592e-08
-3.35211e-15
-1.95234e-08
-3.42736e-08
-3.16034e-15
-2.12299e-08
-3.48126e-08
-2.9676e-15
-2.29534e-08
-3.51634e-08
-2.82749e-15
-2.46864e-08
-3.53045e-08
-2.71163e-15
-2.6419e-08
-3.52069e-08
-2.64112e-15
-2.81396e-08
-3.48492e-08
-2.59566e-15
-2.98344e-08
-3.41957e-08
-2.58096e-15
-3.14878e-08
-3.32214e-08
-2.70465e-15
-3.30831e-08
-3.1898e-08
-2.3368e-15
-3.46021e-08
-3.01981e-08
-2.0926e-15
-3.60252e-08
-2.80982e-08
-1.88161e-15
-3.73323e-08
-2.55766e-08
-1.68929e-15
-3.85017e-08
-2.26161e-08
-1.51801e-15
-3.95116e-08
-1.92019e-08
-1.36169e-15
-4.03401e-08
-1.53255e-08
-1.21763e-15
-4.09644e-08
-1.09832e-08
-1.08117e-15
-4.13626e-08
-6.17797e-09
-9.49278e-16
-4.15122e-08
-9.25392e-10
-8.22153e-16
-4.13931e-08
4.7551e-09
-6.98347e-16
-4.09852e-08
1.08302e-08
-5.74855e-16
-4.02714e-08
1.72498e-08
-4.5044e-16
-3.92375e-08
2.39448e-08
-3.24809e-16
-3.7871e-08
3.08487e-08
-1.94435e-16
-3.61668e-08
3.78303e-08
3.2907e-17
-3.4123e-08
4.47751e-08
-2.17237e-16
-3.17465e-08
5.15031e-08
-4.73911e-16
-2.90524e-08
5.78162e-08
-3.21928e-16
-2.60652e-08
6.34846e-08
-2.20561e-16
-2.28246e-08
6.81836e-08
-1.27263e-17
-1.93847e-08
7.15747e-08
-3.34311e-16
-1.58188e-08
7.32455e-08
-1.80638e-16
-1.22248e-08
7.269e-08
-8.77393e-17
-8.73109e-09
6.93302e-08
1.28464e-17
-5.50415e-09
6.25192e-08
1.82101e-16
-2.76339e-09
5.14879e-08
-7.91243e-17
-7.98732e-10
3.54404e-08
-3.18327e-17
1.3479e-08
-4.0115e-17
-7.12106e-09
-2.19354e-08
-4.273e-15
-8.47151e-09
-2.39983e-08
-4.01374e-15
-9.89883e-09
-2.58429e-08
-4.39313e-15
-1.13838e-08
-2.74616e-08
-3.95445e-15
-1.29134e-08
-2.88602e-08
-3.83089e-15
-1.44794e-08
-3.00602e-08
-3.74154e-15
-1.60775e-08
-3.10813e-08
-3.55011e-15
-1.77048e-08
-3.19319e-08
-3.33822e-15
-1.93588e-08
-3.26197e-08
-3.15827e-15
-2.10356e-08
-3.31358e-08
-2.96974e-15
-2.27301e-08
-3.34689e-08
-2.83069e-15
-2.44347e-08
-3.35998e-08
-2.71927e-15
-2.614e-08
-3.35016e-08
-2.65884e-15
-2.78346e-08
-3.31547e-08
-2.62982e-15
-2.95048e-08
-3.25255e-08
-2.64069e-15
-3.11354e-08
-3.15907e-08
-2.80041e-15
-3.27098e-08
-3.03235e-08
-2.38213e-15
-3.421e-08
-2.86979e-08
-2.11029e-15
-3.56167e-08
-2.66915e-08
-1.88517e-15
-3.69095e-08
-2.42838e-08
-1.68491e-15
-3.80672e-08
-2.14584e-08
-1.50981e-15
-3.90679e-08
-1.8201e-08
-1.35147e-15
-3.98896e-08
-1.45037e-08
-1.20725e-15
-4.05096e-08
-1.0363e-08
-1.07164e-15
-4.09062e-08
-5.78169e-09
-9.4168e-16
-4.10567e-08
-7.74672e-10
-8.16316e-16
-4.0941e-08
4.63933e-09
-6.94033e-16
-4.05392e-08
1.04285e-08
-5.72479e-16
-3.98343e-08
1.65449e-08
-4.5045e-16
-3.88118e-08
2.29222e-08
-3.27467e-16
-3.74597e-08
2.94968e-08
-1.99372e-16
-3.57728e-08
3.61433e-08
2.61768e-17
-3.37494e-08
4.27518e-08
-2.25062e-16
-3.13964e-08
4.91502e-08
-4.80968e-16
-2.8729e-08
5.51487e-08
-3.20978e-16
-2.57718e-08
6.05276e-08
-2.11664e-16
-2.25644e-08
6.49761e-08
-9.27984e-18
-1.91607e-08
6.8171e-08
-3.29903e-16
-1.56335e-08
6.97183e-08
-1.7811e-16
-1.20799e-08
6.91364e-08
-8.57534e-17
-8.6266e-09
6.5877e-08
1.4136e-17
-5.43813e-09
5.93307e-08
1.81892e-16
-2.73057e-09
4.87803e-08
-7.57767e-17
-7.89601e-10
3.34995e-08
-2.93725e-17
1.26894e-08
-3.76303e-17
-7.25042e-09
-2.07321e-08
-4.07803e-15
-8.5552e-09
-2.26935e-08
-3.84452e-15
-9.93867e-09
-2.44595e-08
-4.24105e-15
-1.13826e-08
-2.60176e-08
-3.78455e-15
-1.28739e-08
-2.73689e-08
-3.6949e-15
-1.44043e-08
-2.85298e-08
-3.64069e-15
-1.59687e-08
-2.95169e-08
-3.47424e-15
-1.75638e-08
-3.03369e-08
-3.28286e-15
-1.91865e-08
-3.0997e-08
-3.10944e-15
-2.08329e-08
-3.14893e-08
-2.92822e-15
-2.24977e-08
-3.18042e-08
-2.79412e-15
-2.41735e-08
-3.19239e-08
-2.69323e-15
-2.58509e-08
-3.18242e-08
-2.64662e-15
-2.75188e-08
-3.14868e-08
-2.63563e-15
-2.91638e-08
-3.08806e-08
-2.66893e-15
-3.07708e-08
-2.99837e-08
-2.84999e-15
-3.23234e-08
-2.87708e-08
-2.40681e-15
-3.38039e-08
-2.72175e-08
-2.11618e-15
-3.51928e-08
-2.53026e-08
-1.8813e-15
-3.64703e-08
-2.30065e-08
-1.67569e-15
-3.76149e-08
-2.03138e-08
-1.49823e-15
-3.86049e-08
-1.72108e-08
-1.33886e-15
-3.94185e-08
-1.36902e-08
-1.19506e-15
-4.00329e-08
-9.74843e-09
-1.06067e-15
-4.04265e-08
-5.38841e-09
-9.32771e-16
-4.05766e-08
-6.24259e-10
-8.09394e-16
-4.04635e-08
4.52602e-09
-6.88935e-16
-4.00669e-08
1.00321e-08
-5.69475e-16
-3.93701e-08
1.58481e-08
-4.49876e-16
-3.83589e-08
2.19108e-08
-3.2965e-16
-3.70212e-08
2.81593e-08
-2.0435e-16
-3.53519e-08
3.44738e-08
1.82089e-17
-3.33494e-08
4.07494e-08
-2.33026e-16
-3.10208e-08
4.68217e-08
-4.86425e-16
-2.83815e-08
5.25092e-08
-3.20483e-16
-2.5456e-08
5.76022e-08
-2.05343e-16
-2.22838e-08
6.18039e-08
-6.77562e-18
-1.89187e-08
6.48058e-08
-3.25537e-16
-1.54328e-08
6.62325e-08
-1.75394e-16
-1.19224e-08
6.5626e-08
-8.36141e-17
-8.51283e-09
6.24674e-08
1.54786e-17
-5.36598e-09
5.61839e-08
1.81481e-16
-2.69453e-09
4.61089e-08
-7.25458e-17
-7.79496e-10
3.15844e-08
-2.68381e-17
1.19099e-08
-3.498e-17
-7.383e-09
-1.95756e-08
-3.83085e-15
-8.64095e-09
-2.14356e-08
-3.6498e-15
-9.97901e-09
-2.31214e-08
-4.10257e-15
-1.13801e-08
-2.46165e-08
-3.72862e-15
-1.28313e-08
-2.59176e-08
-3.64731e-15
-1.43243e-08
-2.70369e-08
-3.57184e-15
-1.58535e-08
-2.79877e-08
-3.41201e-15
-1.7415e-08
-2.87753e-08
-3.23569e-15
-1.90055e-08
-2.94065e-08
-3.07174e-15
-2.06207e-08
-2.98741e-08
-2.89664e-15
-2.22552e-08
-3.01697e-08
-2.76551e-15
-2.39016e-08
-3.02775e-08
-2.66934e-15
-2.55507e-08
-3.01751e-08
-2.62969e-15
-2.71914e-08
-2.98462e-08
-2.62809e-15
-2.88105e-08
-2.92616e-08
-2.67318e-15
-3.03931e-08
-2.8401e-08
-2.86259e-15
-3.1923e-08
-2.72407e-08
-2.40985e-15
-3.33827e-08
-2.57579e-08
-2.109e-15
-3.47528e-08
-2.39324e-08
-1.86919e-15
-3.60136e-08
-2.17458e-08
-1.66115e-15
-3.71438e-08
-1.91835e-08
-1.48312e-15
-3.81218e-08
-1.62327e-08
-1.32383e-15
-3.89258e-08
-1.28862e-08
-1.18111e-15
-3.95333e-08
-9.14082e-09
-1.04833e-15
-3.99225e-08
-4.9994e-09
-9.22689e-16
-4.00712e-08
-4.75339e-10
-8.01501e-16
-3.99594e-08
4.41412e-09
-6.83116e-16
-3.95673e-08
9.64018e-09
-5.65892e-16
-3.88782e-08
1.5159e-08
-4.48797e-16
-3.78778e-08
2.09103e-08
-3.31433e-16
-3.65544e-08
2.68361e-08
-2.09374e-16
-3.4903e-08
3.28223e-08
1.04447e-17
-3.29221e-08
3.87687e-08
-2.40278e-16
-3.0619e-08
4.45186e-08
-4.90967e-16
-2.80091e-08
4.98992e-08
-3.20371e-16
-2.5117e-08
5.47102e-08
-2.00584e-16
-2.19822e-08
5.8669e-08
-5.66754e-18
-1.8658e-08
6.14815e-08
-3.21601e-16
-1.52162e-08
6.27908e-08
-1.73065e-16
-1.17522e-08
6.2162e-08
-8.18461e-17
-8.38941e-09
5.91046e-08
1.63653e-17
-5.28741e-09
5.30819e-08
1.80429e-16
-2.6551e-09
4.34766e-08
-6.97481e-17
-7.6836e-10
2.96977e-08
-2.45931e-17
1.11415e-08
-3.2537e-17
-7.51633e-09
-1.84666e-08
-3.5334e-15
-8.72629e-09
-2.02256e-08
-3.39445e-15
-1.00175e-08
-2.18302e-08
-3.8281e-15
-1.13741e-08
-2.32599e-08
-3.5299e-15
-1.27836e-08
-2.45081e-08
-3.46703e-15
-1.42376e-08
-2.55829e-08
-3.41734e-15
-1.57302e-08
-2.64951e-08
-3.29274e-15
-1.72572e-08
-2.72484e-08
-3.14604e-15
-1.88145e-08
-2.78491e-08
-2.99977e-15
-2.03979e-08
-2.82907e-08
-2.83934e-15
-2.20015e-08
-2.8566e-08
-2.71325e-15
-2.3618e-08
-2.86609e-08
-2.62422e-15
-2.52383e-08
-2.85549e-08
-2.59084e-15
-2.68512e-08
-2.82333e-08
-2.59597e-15
-2.84438e-08
-2.76691e-08
-2.64592e-15
-3.00012e-08
-2.68434e-08
-2.83753e-15
-3.15076e-08
-2.57343e-08
-2.38824e-15
-3.29454e-08
-2.43201e-08
-2.08719e-15
-3.42956e-08
-2.25822e-08
-1.84815e-15
-3.55384e-08
-2.05031e-08
-1.64101e-15
-3.66529e-08
-1.80691e-08
-1.46436e-15
-3.76174e-08
-1.5268e-08
-1.30631e-15
-3.84105e-08
-1.20931e-08
-1.16537e-15
-3.90096e-08
-8.54156e-09
-1.03461e-15
-3.93932e-08
-4.61599e-09
-9.11434e-16
-3.95393e-08
-3.29098e-10
-7.92621e-16
-3.94279e-08
4.30261e-09
-6.76504e-16
-3.90394e-08
9.25183e-09
-5.61656e-16
-3.83572e-08
1.44768e-08
-4.47139e-16
-3.73675e-08
1.99203e-08
-3.32739e-16
-3.60584e-08
2.55273e-08
-2.1424e-16
-3.44252e-08
3.11889e-08
2.74189e-18
-3.24667e-08
3.68103e-08
-2.47627e-16
-3.01901e-08
4.22421e-08
-4.93599e-16
-2.7611e-08
4.732e-08
-3.20194e-16
-2.47541e-08
5.18535e-08
-1.97583e-16
-2.16588e-08
5.55736e-08
-5.33314e-18
-1.8378e-08
5.82008e-08
-3.17641e-16
-1.49833e-08
5.93961e-08
-1.70481e-16
-1.15686e-08
5.87474e-08
-7.98352e-17
-8.25596e-09
5.5792e-08
1.74132e-17
-5.20218e-09
5.00281e-08
1.79343e-16
-2.61213e-09
4.08865e-08
-6.67704e-17
-7.56133e-10
2.78417e-08
-2.21269e-17
1.03854e-08
-2.97716e-17
-7.64658e-09
-1.74062e-08
-3.2333e-15
-8.80753e-09
-1.90646e-08
-3.19488e-15
-1.00508e-08
-2.05869e-08
-3.68843e-15
-1.13616e-08
-2.1949e-08
-3.43678e-15
-1.27282e-08
-2.31415e-08
-3.38819e-15
-1.4142e-08
-2.41691e-08
-3.32814e-15
-1.5597e-08
-2.504e-08
-3.20792e-15
-1.70885e-08
-2.57569e-08
-3.06385e-15
-1.86121e-08
-2.63254e-08
-2.92435e-15
-2.01631e-08
-2.67397e-08
-2.7725e-15
-2.17354e-08
-2.69937e-08
-2.65222e-15
-2.33217e-08
-2.70746e-08
-2.56944e-15
-2.49126e-08
-2.69641e-08
-2.54027e-15
-2.64972e-08
-2.66487e-08
-2.54762e-15
-2.80626e-08
-2.61037e-08
-2.59458e-15
-2.95941e-08
-2.53117e-08
-2.77996e-15
-3.1076e-08
-2.42523e-08
-2.34511e-15
-3.24909e-08
-2.29053e-08
-2.05213e-15
-3.38199e-08
-2.12531e-08
-1.81882e-15
-3.50435e-08
-1.92796e-08
-1.61562e-15
-3.61408e-08
-1.69717e-08
-1.44215e-15
-3.70905e-08
-1.43181e-08
-1.28641e-15
-3.78712e-08
-1.13124e-08
-1.14788e-15
-3.84606e-08
-7.95204e-09
-1.01952e-15
-3.88373e-08
-4.23948e-09
-8.98997e-16
-3.89795e-08
-1.86724e-10
-7.8272e-16
-3.88675e-08
4.19047e-09
-6.69033e-16
-3.84818e-08
8.8663e-09
-5.56698e-16
-3.78061e-08
1.38011e-08
-4.44835e-16
-3.68267e-08
1.89407e-08
-3.33423e-16
-3.55319e-08
2.42328e-08
-2.18515e-16
-3.39174e-08
2.95743e-08
-1.16667e-17
-3.1982e-08
3.48749e-08
-2.53475e-16
-2.9733e-08
3.99933e-08
-4.95409e-16
-2.71863e-08
4.47732e-08
-3.19967e-16
-2.43666e-08
4.90338e-08
-1.95398e-16
-2.13129e-08
5.25199e-08
-5.98137e-18
-1.80783e-08
5.49662e-08
-3.13971e-16
-1.47333e-08
5.60512e-08
-1.68212e-16
-1.13712e-08
5.53853e-08
-7.8157e-17
-8.11212e-09
5.25329e-08
1.80382e-17
-5.10998e-09
4.70259e-08
1.77679e-16
-2.56543e-09
3.83419e-08
-6.40615e-17
-7.42749e-10
2.6019e-08
-1.99243e-17
9.64263e-09
-2.72424e-17
-7.76881e-09
-1.63952e-08
-3.09827e-15
-8.87996e-09
-1.79535e-08
-3.05224e-15
-1.00745e-08
-1.93924e-08
-3.55605e-15
-1.13389e-08
-2.06847e-08
-3.26788e-15
-1.26617e-08
-2.18186e-08
-3.22723e-15
-1.40348e-08
-2.27961e-08
-3.1918e-15
-1.54516e-08
-2.36232e-08
-3.1e-15
-1.69071e-08
-2.43014e-08
-2.97766e-15
-1.83966e-08
-2.48359e-08
-2.85458e-15
-1.99148e-08
-2.52215e-08
-2.71929e-15
-2.14556e-08
-2.54529e-08
-2.59667e-15
-2.30112e-08
-2.55189e-08
-2.51444e-15
-2.45724e-08
-2.54029e-08
-2.48267e-15
-2.61282e-08
-2.50929e-08
-2.48602e-15
-2.76658e-08
-2.45662e-08
-2.52222e-15
-2.91706e-08
-2.38067e-08
-2.69302e-15
-3.06271e-08
-2.27957e-08
-2.28309e-15
-3.2018e-08
-2.15144e-08
-2.00556e-15
-3.33246e-08
-1.99465e-08
-1.78227e-15
-3.45276e-08
-1.80767e-08
-1.58558e-15
-3.56064e-08
-1.58929e-08
-1.41673e-15
-3.65398e-08
-1.33845e-08
-1.26423e-15
-3.73066e-08
-1.05456e-08
-1.1287e-15
-3.78848e-08
-7.37369e-09
-1.00302e-15
-3.82533e-08
-3.87119e-09
-8.85343e-16
-3.83904e-08
-4.94057e-11
-7.7175e-16
-3.82768e-08
4.0767e-09
-6.60659e-16
-3.78931e-08
8.48281e-09
-5.5096e-16
-3.72234e-08
1.31314e-08
-4.41789e-16
-3.62541e-08
1.79712e-08
-3.33381e-16
-3.49739e-08
2.29528e-08
-2.21956e-16
-3.33784e-08
2.79787e-08
-2.48031e-17
-3.14669e-08
3.29635e-08
-2.58936e-16
-2.92469e-08
3.77733e-08
-4.95301e-16
-2.67341e-08
4.22604e-08
-3.19266e-16
-2.39534e-08
4.62532e-08
-1.94067e-16
-2.09438e-08
4.95103e-08
-7.11351e-18
-1.77579e-08
5.17803e-08
-3.10149e-16
-1.44658e-08
5.27591e-08
-1.65648e-16
-1.11596e-08
5.2079e-08
-7.61975e-17
-7.95748e-09
4.93307e-08
1.88779e-17
-5.01053e-09
4.4079e-08
1.7608e-16
-2.51483e-09
3.58462e-08
-6.0989e-17
-7.28141e-10
2.42323e-08
-1.7433e-17
8.91449e-09
-2.4348e-17
-7.87703e-09
-1.54343e-08
-3.03328e-15
-8.93803e-09
-1.68925e-08
-2.93581e-15
-1.00837e-08
-1.82467e-08
-3.38725e-15
-1.13015e-08
-1.94668e-08
-3.10946e-15
-1.25806e-08
-2.05395e-08
-3.11323e-15
-1.39128e-08
-2.14639e-08
-3.08954e-15
-1.52914e-08
-2.22445e-08
-2.99829e-15
-1.67109e-08
-2.28819e-08
-2.86599e-15
-1.81662e-08
-2.33806e-08
-2.74482e-15
-1.96516e-08
-2.37361e-08
-2.617e-15
-2.11606e-08
-2.39439e-08
-2.50865e-15
-2.26854e-08
-2.39941e-08
-2.43716e-15
-2.42165e-08
-2.38718e-08
-2.40852e-15
-2.5743e-08
-2.35664e-08
-2.40926e-15
-2.72521e-08
-2.30571e-08
-2.43204e-15
-2.87295e-08
-2.23293e-08
-2.57945e-15
-3.01595e-08
-2.13656e-08
-2.20651e-15
-3.15252e-08
-2.01487e-08
-1.95019e-15
-3.28082e-08
-1.86635e-08
-1.73997e-15
-3.39892e-08
-1.68957e-08
-1.55153e-15
-3.5048e-08
-1.48342e-08
-1.38842e-15
-3.59635e-08
-1.24688e-08
-1.23991e-15
-3.6715e-08
-9.79418e-09
-1.10781e-15
-3.72806e-08
-6.80795e-09
-9.85124e-16
-3.76396e-08
-3.51248e-09
-8.7044e-16
-3.77704e-08
8.16716e-11
-7.59658e-16
-3.76542e-08
3.96032e-09
-6.51315e-16
-3.72718e-08
8.10061e-09
-5.44362e-16
-3.66076e-08
1.24671e-08
-4.37935e-16
-3.56482e-08
1.70116e-08
-3.32493e-16
-3.43827e-08
2.16875e-08
-2.24242e-16
-3.28069e-08
2.64028e-08
-3.7527e-17
-3.09203e-08
3.1077e-08
-2.62317e-16
-2.87304e-08
3.55836e-08
-4.94547e-16
-2.62533e-08
3.97832e-08
-3.18258e-16
-2.35138e-08
4.35137e-08
-1.92976e-16
-2.05507e-08
4.65471e-08
-8.74519e-18
-1.74164e-08
4.86459e-08
-3.06403e-16
-1.41802e-08
4.9523e-08
-1.63301e-16
-1.09332e-08
4.8832e-08
-7.45325e-17
-7.79163e-09
4.61892e-08
1.93125e-17
-4.90352e-09
4.11908e-08
1.73943e-16
-2.46014e-09
3.34028e-08
-5.80986e-17
-7.12234e-10
2.24844e-08
-1.51999e-17
8.20225e-09
-2.17538e-17
-7.96463e-09
-1.45236e-08
-2.89729e-15
-8.97578e-09
-1.58813e-08
-2.86838e-15
-1.00733e-08
-1.71492e-08
-3.25784e-15
-1.12452e-08
-1.82949e-08
-3.03215e-15
-1.24812e-08
-1.93035e-08
-3.04612e-15
-1.37731e-08
-2.01721e-08
-3.02614e-15
-1.51139e-08
-2.09037e-08
-2.94095e-15
-1.64978e-08
-2.1498e-08
-2.81468e-15
-1.79191e-08
-2.19593e-08
-2.69521e-15
-1.93718e-08
-2.22834e-08
-2.56464e-15
-2.08491e-08
-2.24666e-08
-2.45649e-15
-2.23429e-08
-2.25003e-08
-2.3824e-15
-2.38436e-08
-2.23711e-08
-2.34367e-15
-2.53404e-08
-2.20697e-08
-2.33228e-15
-2.68203e-08
-2.15772e-08
-2.33331e-15
-2.82693e-08
-2.08802e-08
-2.44797e-15
-2.96718e-08
-1.9963e-08
-2.12017e-15
-3.10111e-08
-1.88094e-08
-1.88906e-15
-3.22691e-08
-1.74056e-08
-1.69356e-15
-3.34267e-08
-1.57382e-08
-1.5143e-15
-3.44639e-08
-1.3797e-08
-1.35756e-15
-3.536e-08
-1.15725e-08
-1.21358e-15
-3.60946e-08
-9.05962e-09
-1.08521e-15
-3.66461e-08
-6.25627e-09
-9.65785e-16
-3.69942e-08
-3.16467e-09
-8.54243e-16
-3.71176e-08
2.05331e-10
-7.46385e-16
-3.69978e-08
3.84034e-09
-6.4092e-16
-3.6616e-08
7.71899e-09
-5.3682e-16
-3.59569e-08
1.1808e-08
-4.33198e-16
-3.50074e-08
1.60619e-08
-3.30726e-16
-3.37569e-08
2.04372e-08
-2.25452e-16
-3.22014e-08
2.48473e-08
-4.75353e-17
-3.03407e-08
2.92163e-08
-2.65242e-16
-2.81825e-08
3.34255e-08
-4.91939e-16
-2.5743e-08
3.73435e-08
-3.16537e-16
-2.30468e-08
4.08176e-08
-1.92052e-16
-2.01328e-08
4.36331e-08
-1.06058e-17
-1.70529e-08
4.5566e-08
-3.02356e-16
-1.38759e-08
4.6346e-08
-1.60605e-16
-1.06915e-08
4.56477e-08
-7.25594e-17
-7.61418e-09
4.31118e-08
1.99965e-17
-4.78864e-09
3.83653e-08
1.71934e-16
-2.40115e-09
3.10153e-08
-5.47275e-17
-6.94951e-10
2.07782e-08
-1.26235e-17
7.5073e-09
-1.8764e-17
-8.0247e-09
-1.36626e-08
-3.18814e-15
-8.98723e-09
-1.49188e-08
-2.96708e-15
-1.0038e-08
-1.60984e-08
-3.1915e-15
-1.11656e-08
-1.71673e-08
-2.89615e-15
-1.236e-08
-1.81091e-08
-2.9216e-15
-1.36127e-08
-1.89193e-08
-2.90826e-15
-1.49168e-08
-1.95996e-08
-2.82232e-15
-1.62658e-08
-2.0149e-08
-2.69126e-15
-1.76537e-08
-2.05713e-08
-2.57215e-15
-1.90741e-08
-2.0863e-08
-2.45275e-15
-2.05198e-08
-2.10209e-08
-2.35879e-15
-2.19825e-08
-2.10375e-08
-2.29597e-15
-2.34525e-08
-2.09011e-08
-2.2585e-15
-2.49189e-08
-2.06034e-08
-2.24174e-15
-2.63689e-08
-2.01272e-08
-2.22491e-15
-2.77885e-08
-1.94606e-08
-2.30808e-15
-2.91624e-08
-1.8589e-08
-2.029e-15
-3.0474e-08
-1.74978e-08
-1.8244e-15
-3.17055e-08
-1.61741e-08
-1.64413e-15
-3.2838e-08
-1.46057e-08
-1.47445e-15
-3.3852e-08
-1.27829e-08
-1.32449e-15
-3.47272e-08
-1.06971e-08
-1.18535e-15
-3.54433e-08
-8.34353e-09
-1.06103e-15
-3.59793e-08
-5.72015e-09
-9.44985e-16
-3.63151e-08
-2.82913e-09
-8.36706e-16
-3.64299e-08
3.20412e-10
-7.31876e-16
-3.63056e-08
3.71587e-09
-6.29364e-16
-3.59238e-08
7.33732e-09
-5.28222e-16
-3.52694e-08
1.11536e-08
-4.27533e-16
-3.43298e-08
1.51222e-08
-3.28016e-16
-3.30947e-08
1.92023e-08
-2.25553e-16
-3.15604e-08
2.33128e-08
-5.80577e-17
-2.97268e-08
2.73828e-08
-2.66129e-16
-2.76019e-08
3.13007e-08
-4.88828e-16
-2.52018e-08
3.49433e-08
-3.14373e-16
-2.25514e-08
3.81673e-08
-1.91047e-16
-1.96892e-08
4.07708e-08
-1.25557e-17
-1.66667e-08
4.25436e-08
-2.98154e-16
-1.35522e-08
4.32315e-08
-1.58006e-16
-1.04341e-08
4.25295e-08
-7.08232e-17
-7.42473e-09
4.01025e-08
2.03038e-17
-4.6656e-09
3.56062e-08
1.69402e-16
-2.33768e-09
2.86874e-08
-5.15323e-17
-6.7621e-10
1.91168e-08
-1.03097e-17
6.83109e-09
-1.61358e-17
-8.05078e-09
-1.28496e-08
-3.26563e-15
-8.96696e-09
-1.40026e-08
-3.03023e-15
-9.9735e-09
-1.50919e-08
-3.19406e-15
-1.10591e-08
-1.60817e-08
-2.85793e-15
-1.22139e-08
-1.69544e-08
-2.87831e-15
-1.34293e-08
-1.77039e-08
-2.87728e-15
-1.46981e-08
-1.83308e-08
-2.79741e-15
-1.60133e-08
-1.88338e-08
-2.66867e-15
-1.73686e-08
-1.92161e-08
-2.54436e-15
-1.87571e-08
-1.94745e-08
-2.41316e-15
-2.01713e-08
-1.96066e-08
-2.31128e-15
-2.16028e-08
-1.9606e-08
-2.23964e-15
-2.30417e-08
-1.94621e-08
-2.18797e-15
-2.44772e-08
-1.9168e-08
-2.15685e-15
-2.58964e-08
-1.87079e-08
-2.11879e-15
-2.72855e-08
-1.80714e-08
-2.16763e-15
-2.86295e-08
-1.7245e-08
-1.93866e-15
-2.99119e-08
-1.62154e-08
-1.75847e-15
-3.11153e-08
-1.49708e-08
-1.5926e-15
-3.22212e-08
-1.34999e-08
-1.43238e-15
-3.32103e-08
-1.17938e-08
-1.28931e-15
-3.40628e-08
-9.84449e-09
-1.15525e-15
-3.47588e-08
-7.64755e-09
-1.0352e-15
-3.52777e-08
-5.20111e-09
-9.22661e-16
-3.55998e-08
-2.5072e-09
-8.17781e-16
-3.5705e-08
4.25777e-10
-7.16077e-16
-3.55753e-08
3.58601e-09
-6.16706e-16
-3.51928e-08
6.95502e-09
-5.18627e-16
-3.4543e-08
1.05037e-08
-4.20906e-16
-3.36134e-08
1.41925e-08
-3.24342e-16
-3.23942e-08
1.79834e-08
-2.2477e-16
-3.0882e-08
2.18005e-08
-6.11757e-17
-2.90769e-08
2.55778e-08
-2.66881e-16
-2.6987e-08
2.9211e-08
-4.8388e-16
-2.46286e-08
3.25848e-08
-3.11353e-16
-2.20265e-08
3.55652e-08
-1.89756e-16
-1.92189e-08
3.79632e-08
-1.4577e-17
-1.62572e-08
3.95818e-08
-2.93514e-16
-1.32086e-08
4.0183e-08
-1.55015e-16
-1.01604e-08
3.94813e-08
-6.87608e-17
-7.22286e-09
3.7165e-08
2.08678e-17
-4.53408e-09
3.29174e-08
1.67003e-16
-2.26952e-09
2.64229e-08
-4.78973e-17
-6.55928e-10
1.75032e-08
-7.6483e-18
6.17516e-09
-1.30845e-17
-8.03733e-09
-1.20814e-08
-3.27184e-15
-8.91058e-09
-1.31293e-08
-3.01716e-15
-9.87619e-09
-1.41263e-08
-3.16035e-15
-1.09229e-08
-1.5035e-08
-2.70035e-15
-1.20407e-08
-1.58365e-08
-2.67295e-15
-1.32211e-08
-1.65236e-08
-2.66102e-15
-1.44562e-08
-1.70957e-08
-2.59392e-15
-1.57389e-08
-1.7551e-08
-2.48883e-15
-1.70624e-08
-1.78925e-08
-2.39005e-15
-1.84195e-08
-1.81174e-08
-2.28412e-15
-1.98025e-08
-1.82236e-08
-2.19856e-15
-2.12026e-08
-1.82059e-08
-2.14036e-15
-2.261e-08
-1.80548e-08
-2.09115e-15
-2.40137e-08
-1.77643e-08
-2.05653e-15
-2.54011e-08
-1.73205e-08
-2.0068e-15
-2.67585e-08
-1.67139e-08
-2.03864e-15
-2.8071e-08
-1.59324e-08
-1.85108e-15
-2.93227e-08
-1.49638e-08
-1.69147e-15
-3.04962e-08
-1.37972e-08
-1.53881e-15
-3.15737e-08
-1.24225e-08
-1.38797e-15
-3.25361e-08
-1.08313e-08
-1.25192e-15
-3.33641e-08
-9.01632e-09
-1.12325e-15
-3.40384e-08
-6.97334e-09
-1.00768e-15
-3.45386e-08
-4.70068e-09
-8.98791e-16
-3.48458e-08
-2.20022e-09
-7.97436e-16
-3.49402e-08
5.20332e-10
-6.98964e-16
-3.48043e-08
3.44996e-09
-6.0286e-16
-3.44207e-08
6.57161e-09
-5.07947e-16
-3.37753e-08
9.85821e-09
-4.13292e-16
-3.2856e-08
1.32731e-08
-3.19785e-16
-3.16535e-08
1.6781e-08
-2.23057e-16
-3.01644e-08
2.03114e-08
-6.37846e-17
-2.83893e-08
2.38028e-08
-2.65782e-16
-2.63365e-08
2.71582e-08
-4.78451e-16
-2.40221e-08
3.02704e-08
-3.07811e-16
-2.1471e-08
3.30142e-08
-1.88254e-16
-1.87212e-08
3.52134e-08
-1.6391e-17
-1.58235e-08
3.66841e-08
-2.88515e-16
-1.28444e-08
3.72039e-08
-1.51991e-16
-9.86995e-09
3.65069e-08
-6.68719e-17
-7.00822e-09
3.43032e-08
2.1081e-17
-4.3938e-09
3.03029e-08
1.64057e-16
-2.19648e-09
2.42255e-08
-4.45559e-17
-6.34019e-10
1.59407e-08
-5.29187e-18
5.54114e-09
-1.04345e-17
-7.98069e-09
-1.13536e-08
-2.96188e-15
-8.8153e-09
-1.22947e-08
-2.81724e-15
-9.74395e-09
-1.31976e-08
-3.02177e-15
-1.07552e-08
-1.40237e-08
-2.68142e-15
-1.18392e-08
-1.47526e-08
-2.6781e-15
-1.29868e-08
-1.53759e-08
-2.67175e-15
-1.41902e-08
-1.58923e-08
-2.59893e-15
-1.54417e-08
-1.62995e-08
-2.48548e-15
-1.67343e-08
-1.65999e-08
-2.3697e-15
-1.80605e-08
-1.67912e-08
-2.24843e-15
-1.94121e-08
-1.6872e-08
-2.14789e-15
-2.07805e-08
-1.68374e-08
-2.07669e-15
-2.21557e-08
-1.66796e-08
-2.01094e-15
-2.35266e-08
-1.63934e-08
-1.96128e-15
-2.4881e-08
-1.59662e-08
-1.89337e-15
-2.62052e-08
-1.53896e-08
-1.92817e-15
-2.74847e-08
-1.46528e-08
-1.76741e-15
-2.87038e-08
-1.37447e-08
-1.6234e-15
-2.98457e-08
-1.26554e-08
-1.48263e-15
-3.08928e-08
-1.13755e-08
-1.3411e-15
-3.18266e-08
-9.89748e-09
-1.21238e-15
-3.26283e-08
-8.21445e-09
-1.08928e-15
-3.3279e-08
-6.32263e-09
-9.78429e-16
-3.37592e-08
-4.2204e-09
-8.73358e-16
-3.40501e-08
-1.90951e-09
-7.75677e-16
-3.41326e-08
6.03035e-10
-6.8054e-16
-3.39898e-08
3.30699e-09
-5.87797e-16
-3.36047e-08
6.18672e-09
-4.96152e-16
-3.29637e-08
9.21717e-09
-4.04679e-16
-3.20552e-08
1.23645e-08
-3.14342e-16
-3.08702e-08
1.55961e-08
-2.20578e-16
-2.94056e-08
1.88467e-08
-6.51737e-17
-2.76623e-08
2.20596e-08
-2.64618e-16
-2.56487e-08
2.51447e-08
-4.7115e-16
-2.3381e-08
2.80026e-08
-3.03329e-16
-2.08838e-08
3.05171e-08
-1.8617e-16
-1.81951e-08
3.25246e-08
-1.8208e-17
-1.53649e-08
3.3854e-08
-2.82991e-16
-1.24591e-08
3.42982e-08
-1.48554e-16
-9.56232e-09
3.36101e-08
-6.46504e-17
-6.78044e-09
3.15214e-08
2.15443e-17
-4.24448e-09
2.7767e-08
1.61204e-16
-2.11836e-09
2.20994e-08
-4.0892e-17
-6.10396e-10
1.44328e-08
-2.64339e-18
4.93075e-09
-7.34529e-18
-7.87928e-09
-1.0661e-08
-2.99716e-15
-8.68012e-09
-1.14938e-08
-2.82339e-15
-9.57615e-09
-1.23016e-08
-2.99198e-15
-1.05558e-08
-1.3044e-08
-2.53991e-15
-1.16088e-08
-1.36995e-08
-2.49483e-15
-1.27261e-08
-1.42586e-08
-2.47746e-15
-1.38995e-08
-1.47189e-08
-2.41643e-15
-1.51211e-08
-1.50778e-08
-2.32468e-15
-1.63835e-08
-1.53375e-08
-2.22805e-15
-1.76789e-08
-1.54958e-08
-2.12644e-15
-1.89991e-08
-1.55517e-08
-2.03844e-15
-2.03351e-08
-1.55013e-08
-1.97406e-15
-2.16771e-08
-1.53376e-08
-1.90521e-15
-2.30142e-08
-1.50564e-08
-1.84783e-15
-2.4334e-08
-1.46464e-08
-1.76827e-15
-2.56233e-08
-1.41002e-08
-1.83607e-15
-2.68679e-08
-1.34081e-08
-1.68232e-15
-2.80524e-08
-1.25602e-08
-1.55169e-15
-2.91605e-08
-1.15473e-08
-1.42304e-15
-3.01752e-08
-1.0361e-08
-1.29138e-15
-3.10784e-08
-8.99422e-09
-1.17043e-15
-3.18519e-08
-7.44078e-09
-1.05326e-15
-3.24774e-08
-5.69715e-09
-9.47391e-16
-3.29359e-08
-3.7618e-09
-8.46292e-16
-3.32093e-08
-1.63632e-09
-7.52498e-16
-3.3279e-08
6.72923e-10
-6.60816e-16
-3.31286e-08
3.1565e-09
-5.71505e-16
-3.27419e-08