/*--------------------------------*- C++ -*----------------------------------*\
| =========                 |                                                 |
| \\      /  F ield         | OpenFOAM: The Open Source CFD Toolbox           |
|  \\    /   O peration     | Version:  v2012                                 |
|   \\  /    A nd           | Website:  www.openfoam.com                      |
|    \\/     M anipulation  |                                                 |
\*---------------------------------------------------------------------------*/
FoamFile
{
    version     2.0;
    format      ascii;
    class       volScalarField;
    location    "0.35";
    object      alpha.water;
}
// * * * * * * * * * * * * * * * * * * * * * * * * * * * * * * * * * * * * * //

dimensions      [0 0 0 0 0 0 0];


internalField   nonuniform List<scalar> 
3332
(
2.5039e-28
1.19641e-37
2.16146e-45
5.95047e-52
3.31659e-60
2.17065e-63
4.65789e-67
1.09718e-69
2.18565e-72
2.34848e-75
2.56735e-78
1.09584e-81
1.30617e-85
1.40484e-89
1.91185e-95
1.47971e-95
8.24629e-95
1.55569e-94
1.83285e-94
9.3406e-95
9.36311e-15
5.35406e-20
2.6806e-28
1.30688e-37
2.38754e-45
6.811e-52
3.77421e-60
2.51601e-63
5.55127e-67
1.30812e-69
2.70175e-72
2.97851e-75
3.25963e-78
1.41605e-81
1.73602e-85
1.64197e-89
2.55084e-95
4.55032e-96
3.19934e-95
6.98083e-95
8.80064e-95
6.42624e-95
1
0.999979
0.999993
1
0.999999
0.999998
0.999998
0.932817
0.397997
0.0381469
7.04298e-05
8.2965e-06
6.99432e-07
4.00474e-08
9.14628e-10
9.42262e-15
5.30424e-20
2.91036e-28
1.44726e-37
2.66894e-45
7.91829e-52
4.35181e-60
2.95185e-63
6.70269e-67
1.58082e-69
3.36788e-72
3.84581e-75
4.17839e-78
1.86033e-81
2.33818e-85
2.09412e-89
5.1211e-95
1.08629e-96
1.09055e-95
3.00934e-95
4.28673e-95
4.11218e-95
1
0.999979
0.999994
1
0.999998
0.999998
0.999998
0.936698
0.41256
0.0431227
0.00258764
0.000379551
6.31367e-05
7.4514e-06
6.3201e-07
3.6621e-08
9.57974e-10
1.01576e-14
5.28837e-20
3.20494e-28
1.62507e-37
3.01978e-45
9.35026e-52
5.08562e-60
3.50626e-63
8.19953e-67
1.93753e-69
4.23364e-72
5.05258e-75
5.41037e-78
2.48716e-81
3.19413e-85
3.07774e-89
9.23561e-95
1.9465e-97
2.9712e-96
1.09515e-95
1.922e-95
2.10311e-95
1
0.999982
0.999993
1
0.999998
0.999998
0.999992
0.942175
0.432204
0.0477801
0.00273025
0.000352112
5.78958e-05
6.85514e-06
5.84828e-07
3.42897e-08
9.98846e-10
1.12966e-14
5.35314e-20
3.57912e-28
1.84992e-37
3.45803e-45
1.12119e-51
6.02406e-60
4.21707e-63
1.01618e-66
2.4097e-69
5.36694e-72
6.74772e-75
7.08131e-78
3.38621e-81
4.4298e-85
5.32715e-89
1.62886e-94
2.3502e-98
6.24258e-97
3.30787e-96
7.42869e-96
9.40103e-96
6.15869e-96
0.999992
0.999986
0.999994
1.00001
0.999998
0.999999
0.999968
0.950605
0.460194
0.0546491
0.00300495
0.000337809
5.42049e-05
6.44995e-06
5.5337e-07
3.28202e-08
1.03638e-09
1.30813e-14
5.4595e-20
4.0516e-28
2.13413e-37
4.00668e-45
1.36452e-51
7.23221e-60
5.13548e-63
1.27553e-66
3.04218e-69
6.86159e-72
9.14852e-75
9.3763e-78
4.69621e-81
6.24245e-85
1.03303e-88
2.68872e-94
1.64757e-99
8.76561e-98
7.56444e-97
2.34494e-96
3.53228e-96
3.43259e-96
0.999984
0.999988
0.999994
1
0.999999
0.999999
0.999992
0.960514
0.495331
0.0637795
0.00338537
0.000330822
5.17019e-05
6.19024e-06
5.34401e-07
3.20331e-08
1.07561e-09
1.59519e-14
5.61825e-20
4.64602e-28
2.49358e-37
4.6952e-45
1.68424e-51
8.7981e-60
6.33132e-63
1.62098e-66
3.89947e-69
8.84835e-72
1.25722e-74
1.25722e-77
6.63312e-81
8.94481e-85
2.06092e-88
4.1914e-94
4.00717e-100
6.70236e-99
1.12089e-97
5.442e-97
1.1401e-96
1.35613e-96
5.98289e-97
0.999977
0.99999
0.999993
1
0.999999
0.999998
0.999993
0.970407
0.537097
0.0758085
0.00393233
0.000329225
5.01412e-05
6.046e-06
5.24798e-07
3.17398e-08
1.12046e-09
2.03268e-14
5.82799e-20
5.39238e-28
2.94877e-37
5.56159e-45
2.10646e-51
1.08414e-59
7.90036e-63
2.0846e-66
5.0751e-69
1.15114e-71
1.74816e-74
1.70898e-77
9.53478e-81
1.30377e-84
3.97085e-88
6.22174e-94
5.93261e-100
1.29593e-100
8.96716e-99
8.17447e-98
2.56953e-97
3.79503e-97
3.31199e-97
0.999976
0.99999
0.999994
1
0.999999
0.999998
0.999966
0.979393
0.584761
0.091584
0.00471557
0.000337726
4.93536e-05
5.97777e-06
5.21663e-07
3.17472e-08
1.17393e-09
2.69427e-14
6.08819e-20
6.32872e-28
3.52622e-37
6.65501e-45
2.66666e-51
1.35255e-59
9.97482e-63
2.71124e-66
6.70556e-69
1.51133e-71
2.45523e-74
2.35792e-77
1.3931e-80
1.93296e-84
7.18307e-88
8.90341e-94
1.02243e-99
7.43736e-104
1.93662e-100
5.13272e-99
3.26055e-98
7.85412e-98
9.74247e-98
0.999973
0.999993
0.999992
1
0.999999
0.999998
0.999959
0.986707
0.63701
0.112083
0.00582592
0.000361801
4.90794e-05
5.95986e-06
5.24549e-07
3.26053e-08
1.23801e-09
3.68585e-14
6.39777e-20
7.50336e-28
4.26028e-37
8.03932e-45
3.41306e-51
1.70748e-59
1.27383e-62
3.56392e-66
8.9914e-69
2.00328e-71
3.47688e-74
3.30589e-77
2.06538e-80
2.91341e-84
1.21325e-87
1.24626e-93
1.54065e-99
1.00549e-105
1.46089e-103
5.38925e-101
1.17112e-99
6.66143e-99
1.40155e-98
0.999973
0.999992
0.999993
1
0.999998
0.999998
0.999958
0.992205
0.692353
0.138591
0.00740574
0.000400805
4.91325e-05
6.01711e-06
5.37553e-07
3.36178e-08
1.31078e-09
5.15574e-14
6.75475e-20
8.97778e-28
5.1956e-37
9.79793e-45
4.41123e-51
2.17988e-59
1.64474e-62
4.73157e-66
1.22287e-68
2.68242e-71
4.95672e-74
4.71471e-77
3.101e-80
4.45935e-84
1.9233e-87
1.73755e-93
2.12128e-99
9.38851e-106
1.60716e-105
1.2835e-103
7.53663e-102
1.09084e-100
5.4586e-100
0.99999
0.999989
0.999995
1
0.999997
0.999998
0.999981
0.995997
0.749093
0.172657
0.00967951
0.000460787
5.00512e-05
6.1339e-06
5.51823e-07
3.48945e-08
1.39272e-09
7.3108e-14
7.15599e-20
1.08304e-27
6.3903e-37
1.20404e-44
5.75028e-51
2.81261e-59
2.1463e-62
6.34006e-66
1.68567e-68
3.63108e-71
7.10428e-74
6.84428e-77
4.70516e-80
6.92099e-84
2.88853e-87
2.47054e-93
2.7792e-99
4.81553e-106
8.00168e-106
2.39184e-105
5.12035e-104
6.51915e-103
3.90893e-102
0.999996
0.999989
0.999995
1
0.999997
0.999999
0.999998
0.998397
0.805288
0.216074
0.013001
0.000551957
5.18448e-05
6.27336e-06
5.69871e-07
3.64537e-08
1.48425e-09
1.04302e-13
7.5971e-20
1.31616e-27
7.92038e-37
1.49117e-44
7.55131e-51
3.66526e-59
2.82956e-62
8.56829e-66
2.35282e-68
4.97331e-71
1.0226e-73
1.01156e-76
7.20017e-80
1.08715e-83
4.15709e-87
3.69213e-93
3.71232e-99
2.3832e-106
3.18221e-106
3.52754e-106
5.93566e-106
5.03589e-105
2.13326e-104
1
0.999988
0.999997
1
0.999997
1
0.999999
0.999447
0.85854
0.270632
0.0179273
0.000687272
5.47355e-05
6.46071e-06
5.91434e-07
3.82379e-08
1.58482e-09
1.48833e-13
8.07282e-20
1.61004e-27
9.8856e-37
1.86051e-44
9.97877e-51
4.8211e-59
3.76721e-62
1.16715e-65
3.32167e-68
6.89895e-71
1.47716e-73
1.52143e-76
1.10929e-79
1.72506e-83
5.81157e-87
5.99033e-93
5.75237e-99
1.31907e-106
1.29001e-106
1.51963e-106
6.86306e-107
2.85115e-107
1.38357e-106
1
0.999988
0.999996
1
0.999997
1
1
0.999775
0.905613
0.337613
0.0253259
0.000885876
5.92472e-05
6.7031e-06
6.16336e-07
4.02458e-08
1.6945e-09
2.11483e-13
8.57783e-20
1.98138e-27
1.24175e-36
2.33807e-44
1.3256e-50
6.39686e-59
5.06335e-62
1.60152e-65
4.73746e-68
9.7028e-71
2.14054e-73
2.32596e-76
1.71835e-79
2.76024e-83
8.03316e-87
1.07523e-92
1.27051e-98
1.14399e-106
4.32929e-107
6.39342e-107
5.12913e-107
6.2247e-108
1.05617e-108
1
0.99999
0.999996
1
0.999998
1
1
0.999937
0.943296
0.417028
0.0365144
0.00118701
6.6154e-05
7.01699e-06
6.45152e-07
4.24873e-08
1.81374e-09
2.98319e-13
9.10797e-20
2.45192e-27
1.56908e-36
2.95922e-44
1.76862e-50
8.55686e-59
6.86797e-62
2.21252e-65
6.81695e-68
1.38487e-70
3.11162e-73
3.60774e-76
2.67418e-79
4.44769e-83
1.12601e-86
2.10649e-92
3.92782e-98
2.3629e-106
1.21484e-107
2.20728e-107
2.31562e-107
8.66062e-108
1.04962e-108
0.999996
0.999989
0.999996
1
0.999998
1
0.999999
0.999988
0.969992
0.506832
0.0534363
0.00166745
7.67522e-05
7.4277e-06
6.78763e-07
4.49926e-08
1.94362e-09
4.16919e-13
9.66176e-20
3.05021e-27
1.99387e-36
3.77259e-44
2.36817e-50
1.15333e-58
9.39841e-62
3.07619e-65
9.88362e-68
2.00755e-70
4.53935e-73
5.66375e-76
4.18033e-79
7.21193e-83
1.66096e-86
4.3153e-92
1.22336e-97
4.73441e-106
2.41809e-108
6.17902e-108
7.76423e-108
5.92489e-108
1.05474e-108
0.999993
0.999993
0.999996
1
0.999999
1
0.999998
0.99999
0.986379
0.602736
0.0788525
0.00246624
9.27879e-05
7.97131e-06
7.18507e-07
4.78192e-08
2.08617e-09
5.7661e-13
1.02419e-19
3.81416e-27
2.54755e-36
4.84589e-44
3.18034e-50
1.56556e-58
1.29714e-61
4.30298e-65
1.44198e-67
2.95703e-70
6.65126e-73
8.97477e-76
6.56711e-79
1.17676e-82
2.70582e-86
8.83068e-92
3.15243e-97
9.08601e-106
3.0867e-109
1.15728e-108
1.82635e-108
2.00729e-108
7.57226e-109
0.999996
0.999992
0.999996
1
1
0.999999
0.999998
0.999989
0.994966
0.699042
0.116508
0.00382722
0.000116207
8.70581e-06
7.66424e-07
5.10592e-08
2.24473e-09
7.8876e-13
1.08566e-19
4.79455e-27
3.27283e-36
6.2745e-44
4.28162e-50
2.13927e-58
1.80509e-61
6.05441e-65
2.11439e-67
4.42544e-70
9.80093e-73
1.4315e-75
1.03793e-78
1.93351e-82
5.06018e-86
1.75598e-91
6.59087e-97
1.85079e-105
2.13676e-110
1.22694e-109
2.59654e-109
3.46681e-109
3.18021e-109
0.999996
0.999994
0.999997
1
0.999999
0.999999
0.999998
0.999998
0.998698
0.789751
0.17111
0.00616765
0.000152024
9.741e-06
8.2577e-07
5.4856e-08
2.42448e-09
1.06715e-12
1.15208e-19
6.06032e-27
4.22827e-36
8.19462e-44
5.77662e-50
2.9415e-58
2.532e-61
8.56816e-65
3.11255e-67
6.72477e-70
1.45488e-72
2.29252e-75
1.65321e-78
3.20347e-82
1.07345e-85
3.37342e-91
1.16569e-96
4.18888e-105
5.09792e-112
5.6687e-111
1.89613e-110
3.47061e-110
4.34327e-110
0.999996
0.999993
0.999996
1
0.999999
1
0.999998
0.999998
0.999728
0.868709
0.247623
0.0102723
0.00021403
1.13059e-05
9.01996e-07
5.94317e-08
2.6332e-09
1.42845e-12
1.2256e-19
7.7061e-27
5.49499e-36
1.08032e-43
7.80898e-50
4.06844e-58
3.57894e-61
1.21966e-64
4.5957e-67
1.03619e-69
2.18026e-72
3.67881e-75
2.65947e-78
5.36169e-82
2.41158e-85
6.33302e-91
1.84355e-96
1.07411e-104
4.55129e-114
6.8508e-113
4.3595e-112
1.12139e-111
1.87725e-111
0.999996
0.999995
0.999995
0.999999
0.999999
0.999999
0.999998
0.999999
0.99996
0.929618
0.349243
0.0178352
0.000335465
1.3847e-05
1.00444e-06
6.51287e-08
2.88244e-09
1.89296e-12
1.309e-19
9.86345e-27
7.1865e-36
1.43887e-43
1.05769e-49
5.65863e-58
5.09606e-61
1.74667e-64
6.80105e-67
1.61581e-69
3.30651e-72
5.90728e-75
4.33124e-78
9.08384e-82
5.31616e-85
1.18986e-90
2.7856e-96
2.90696e-104
2.41302e-114
4.28424e-116
1.87582e-114
5.66086e-114
1.48138e-113
0.999997
0.999995
0.999996
0.999999
1
0.999999
0.999999
0.999999
0.999998
0.968929
0.474246
0.0323505
0.000598888
1.81277e-05
1.1495e-06
7.2478e-08
3.18932e-09
2.48558e-12
1.40561e-19
1.27175e-26
9.46342e-36
1.93785e-43
1.43556e-49
7.91244e-58
7.30743e-61
2.51733e-64
1.00828e-66
2.54379e-69
5.08781e-72
9.48667e-75
7.15792e-78
1.56075e-81
1.09869e-84
2.30953e-90
4.43191e-96
7.60447e-104
6.93757e-114
5.20592e-117
5.16966e-117
1.46837e-116
3.44655e-116
1
0.999994
0.999996
0.999999
1
0.999999
0.999998
1
0.999994
0.989167
0.613397
0.0607099
0.00121399
2.57305e-05
1.36842e-06
8.23219e-08
3.57943e-09
3.23736e-12
1.52019e-19
1.65318e-26
1.2555e-35
2.64131e-43
1.95295e-49
1.11208e-57
1.05487e-60
3.65275e-64
1.49724e-66
4.03222e-69
7.96233e-72
1.52418e-74
1.20257e-77
2.72303e-81
2.09889e-84
4.77916e-90
8.69885e-96
1.8517e-103
2.27813e-113
1.11868e-115
3.91394e-119
1.74606e-118
4.51319e-118
1
0.999993
0.999997
0.999999
0.999999
0.999999
0.999999
1
0.999999
0.99712
0.750693
0.115303
0.0027156
4.19099e-05
1.72249e-06
9.60604e-08
4.09169e-09
4.18786e-12
1.66284e-19
2.16859e-26
1.67923e-35
3.64613e-43
2.66406e-49
1.57078e-57
1.53247e-60
5.3394e-64
2.22724e-66
6.41808e-69
1.26968e-71
2.45313e-74
2.05579e-77
4.82555e-81
3.72556e-84
1.07092e-89
2.38572e-95
4.2816e-103
6.7857e-113
1.93959e-115
1.47578e-119
1.32568e-119
1.32256e-119
1.00001
0.99999
0.999998
0.999997
0.999998
0.999999
0.999999
1
1
0.999501
0.866624
0.213889
0.00646967
8.36048e-05
2.32195e-06
1.16184e-07
4.78649e-09
5.3886e-12
1.86071e-19
2.87321e-26
2.26571e-35
5.10015e-43
3.64596e-49
2.22947e-57
2.23973e-60
7.86761e-64
3.32073e-66
1.02326e-68
2.06462e-71
3.96412e-74
3.57463e-77
8.67765e-81
6.24308e-84
2.56067e-89
7.7468e-95
9.95128e-103
1.99898e-112
1.01971e-115
3.59842e-116
5.38919e-118
2.52549e-120
1.00001
0.999989
0.999999
0.999997
0.999998
0.999999
0.999998
1
1
0.999966
0.944339
0.369627
0.0161259
0.000207123
3.4126e-06
1.47375e-07
5.75836e-09
6.90812e-12
2.19331e-19
3.84812e-26
3.08572e-35
7.23025e-43
5.00942e-49
3.17954e-57
3.29211e-60
1.16946e-63
4.96705e-66
1.6308e-68
3.42137e-71
6.45224e-74
6.31131e-77
1.58017e-80
1.0118e-83
6.27774e-89
2.28016e-94
2.48511e-102
6.55864e-112
5.12184e-116
2.982e-116
6.64071e-117
4.37123e-118
1.00001
0.999989
0.999999
0.999996
0.999998
0.999999
0.999998
1
1
1
0.98259
0.567655
0.0421987
0.000605114
5.93763e-06
1.97124e-07
7.15236e-09
8.83886e-12
2.90993e-19
5.21327e-26
4.24392e-35
1.03861e-42
6.9156e-49
4.5561e-57
4.86527e-60
1.75489e-63
7.46411e-66
2.59433e-68
5.76507e-71
1.06206e-73
1.12824e-76
2.90571e-80
1.64105e-83
1.51352e-88
5.53144e-94
6.88572e-102
2.4904e-111
2.91342e-116
1.45235e-116
7.11578e-117
1.06997e-117
1.00001
0.999989
1
0.999995
0.999998
0.999999
0.999998
1
1
1
0.995913
0.756694
0.110511
0.00197245
1.36031e-05
2.72559e-07
9.18425e-09
1.1306e-11
4.82827e-19
7.14707e-26
5.89611e-35
1.51077e-42
9.60225e-49
6.55997e-57
7.22769e-60
2.66043e-63
1.12903e-65
4.11677e-68
9.8417e-71
1.7758e-73
2.03505e-76
5.38142e-80
2.79255e-83
3.50123e-88
1.13982e-93
2.03658e-101
9.89652e-111
2.62405e-116
5.65643e-117
4.64815e-117
9.70505e-118
1.00001
0.999986
1
0.999993
0.999997
1
0.999997
1
1
1
0.999466
0.88799
0.255526
0.00707978
4.18971e-05
3.8527e-07
1.21942e-08
1.44776e-11
1.05528e-18
9.91576e-26
8.27508e-35
2.22274e-42
1.34258e-48
9.49152e-57
1.07919e-59
4.07733e-63
1.72317e-65
6.51737e-68
1.69443e-70
3.02892e-73
3.69157e-76
1.00205e-79
5.27023e-83
7.7424e-88
2.17063e-93
5.98006e-101
3.69128e-110
1.50255e-115
1.33891e-117
1.59501e-117
6.77985e-118
1.00001
0.999986
1
0.999991
0.999996
1
0.999997
1
1
1
1
0.95662
0.465918
0.0266895
0.000164115
5.78133e-07
1.67259e-08
1.85744e-11
2.75265e-18
1.39169e-25
1.17299e-34
3.30242e-42
1.89302e-48
1.38032e-56
1.61956e-59
6.32032e-63
2.66128e-65
1.03058e-67
2.92828e-70
5.28688e-73
6.71842e-76
1.87575e-79
1.14003e-82
1.65696e-87
4.34088e-93
1.68192e-100
1.31019e-109
7.39507e-115
2.05862e-118
3.15435e-118
2.81453e-118
1.00001
0.999985
1
0.999991
0.999996
1
0.999998
1
1
1
1
0.985882
0.670687
0.0867158
0.000780715
1.01928e-06
2.34351e-08
2.38736e-11
7.36906e-18
1.97431e-25
1.67842e-34
4.94503e-42
2.69634e-48
2.01821e-56
2.44324e-59
9.91202e-63
4.17197e-65
1.63149e-67
5.0587e-70
9.45293e-73
1.22564e-75
3.53588e-79
2.73478e-82
3.50825e-87
1.08268e-92
4.6341e-100
4.95218e-109
3.89019e-114
2.84498e-119
3.62894e-119
4.38037e-119
1.00001
0.999986
1
0.99999
0.999994
1
1
1
1
0.999999
1
0.996141
0.819379
0.201086
0.00378276
2.50814e-06
3.28762e-08
3.0701e-11
1.84139e-17
2.82747e-25
2.42245e-34
7.44606e-42
3.8875e-48
2.96823e-56
3.70641e-59
1.57269e-62
6.6588e-65
2.59505e-67
8.71024e-70
1.72817e-72
2.2436e-75
6.73566e-79
6.68095e-82
7.53423e-87
3.6261e-92
1.32452e-99
2.19473e-108
2.16337e-113
3.17152e-119
2.2471e-120
4.19364e-120
1.00002
0.999983
1
0.999991
0.999991
1
1
1
1
0.999999
0.999999
0.999216
0.906597
0.347905
0.0139597
9.90818e-06
4.54537e-08
3.94029e-11
4.13802e-17
4.08131e-25
3.52311e-34
1.12482e-41
5.68618e-48
4.39391e-56
5.65725e-59
2.52368e-62
1.08474e-64
4.16779e-67
1.49299e-69
3.21537e-72
4.13372e-75
1.3027e-78
1.54478e-81
1.67355e-86
1.32796e-91
4.10418e-99
1.0755e-107
1.30511e-112
1.39612e-117
8.44829e-121
8.24175e-121
1.00002
0.999983
1
0.999989
0.999995
1
1
1
1
0.999999
0.999998
0.999999
0.950844
0.489624
0.035556
5.13555e-05
6.10986e-08
5.02906e-11
8.31874e-17
5.92737e-25
5.15747e-34
1.70073e-41
8.45717e-48
6.55231e-56
8.69521e-59
4.09313e-62
1.80595e-64
6.80038e-67
2.54965e-69
6.04854e-72
7.70247e-75
2.56987e-78
3.28391e-81
3.86618e-86
4.23923e-91
1.3537e-98
5.09194e-107
8.59972e-112
4.61179e-116
3.87052e-120
1.19772e-120
1.00002
0.999982
1
0.999988
0.999998
1
1
1
1
0.999999
0.999997
1
0.971699
0.601983
0.0678365
0.000208362
7.95729e-08
6.35602e-11
1.50945e-16
8.6465e-25
7.59129e-34
2.5685e-41
1.28166e-47
9.85328e-56
1.34722e-58
6.70348e-62
3.0717e-64
1.13495e-66
4.35178e-69
1.1426e-71
1.45992e-74
5.18721e-78
6.4758e-81
9.18924e-86
1.12767e-90
4.45447e-98
2.30779e-106
6.07298e-111
1.50473e-114
2.66577e-118
2.92337e-119
1.00001
0.999982
0.999999
0.999988
1
1
1
1
1
0.999999
0.999996
1
0.981269
0.681284
0.105737
0.000564276
1.02034e-07
7.91875e-11
2.50621e-16
1.26498e-24
1.12238e-33
3.86774e-41
1.98168e-47
1.49598e-55
2.10682e-58
1.10736e-61
5.32543e-64
1.94974e-66
7.46535e-69
2.15603e-71
2.83027e-74
1.07145e-77
1.22698e-80
2.20629e-85
2.70513e-90
1.41115e-97
1.14712e-105
4.53316e-110
4.79028e-113
1.52954e-116
1.22999e-117
1.00002
0.999981
0.999998
0.999993
1
1
1
1
1
0.999998
0.999995
1
0.985837
0.734798
0.144132
0.0011574
1.34859e-07
9.68067e-11
3.86062e-16
1.85385e-24
1.66556e-33
5.79986e-41
3.12626e-47
2.29594e-55
3.32997e-58
1.84303e-61
9.37288e-64
3.46162e-66
1.29746e-68
4.05398e-71
5.63193e-74
2.25777e-77
2.36339e-80
5.28637e-85
6.77321e-90
4.45233e-97
7.10206e-105
3.61256e-109
1.45982e-111
1.29382e-114
4.23444e-116
1.00002
0.999981
0.999998
0.999995
1
1
1
1
1
0.999997
0.999995
1.00001
0.98823
0.771479
0.180238
0.00202826
2.01505e-07
1.15604e-10
5.58406e-16
2.7191e-24
2.47925e-33
8.65483e-41
5.02382e-47
3.56569e-55
5.32643e-58
3.08767e-61
1.66601e-63
6.35085e-66
2.30667e-68
7.60566e-71
1.1504e-73
4.82948e-77
4.97025e-80
1.26711e-84
2.08574e-89
1.51877e-96
4.9741e-104
3.08896e-108
3.68257e-110
2.9806e-112
6.56156e-114
1.00002
0.999982
1
0.999996
1
1
1
1
1
0.999996
0.999995
1.00001
0.989768
0.798177
0.213357
0.0032147
3.80257e-07
1.34333e-10
7.6548e-16
3.98908e-24
3.70037e-33
1.2852e-40
8.19504e-47
5.60752e-55
8.63062e-58
5.20417e-61
2.97461e-63
1.19773e-65
4.23545e-68
1.43134e-70
2.40313e-73
1.04431e-76
1.20303e-79
3.08771e-84
7.96857e-89
5.93624e-96
3.31855e-103
2.77187e-107
7.0082e-109
4.8019e-110
2.98347e-111
1.00002
0.999984
1
0.999993
1
1
1
1
1
0.999996
0.999995
1.00001
0.991038
0.819073
0.243674
0.00473721
8.6997e-07
1.51598e-10
1.00052e-15
5.85135e-24
5.53649e-33
1.90063e-40
1.35022e-46
8.93002e-55
1.41724e-57
8.82545e-61
5.31061e-63
2.29992e-65
8.08538e-68
2.7269e-70
5.10227e-73
2.28121e-76
3.26202e-79
7.8131e-84
3.05256e-88
2.55498e-95
2.208e-102
2.57946e-106
1.10051e-107
3.65436e-108
9.74924e-109
1
0.999996
0.999997
1
0.992208
0.836252
0.271367
0.00656503
1.98087e-06
1.66492e-10
1.24977e-15
8.58027e-24
8.30341e-33
2.80422e-40
2.23377e-46
1.43892e-54
2.35771e-57
1.50722e-60
9.4542e-63
4.44601e-65
1.60505e-67
5.32177e-70
1.0946e-72
5.0548e-76
8.96986e-79
2.07998e-83
1.01156e-87
1.1174e-94
1.8318e-101
2.63885e-105
8.96173e-107
4.71603e-107
4.25469e-107
2.50385e-28
1.19638e-37
2.16143e-45
5.95045e-52
3.31728e-60
2.18506e-63
4.78018e-67
1.10214e-69
2.18301e-72
2.36746e-75
2.6069e-78
1.09734e-81
1.30619e-85
1.40445e-89
1.51e-95
5.02603e-98
5.22904e-97
1.34079e-95
1.48853e-94
6.69715e-94
9.36308e-15
5.35403e-20
2.68055e-28
1.30684e-37
2.38751e-45
6.81098e-52
3.77412e-60
2.53111e-63
5.7045e-67
1.31498e-69
2.69921e-72
2.99891e-75
3.30948e-78
1.41804e-81
1.73605e-85
1.64145e-89
2.67392e-95
2.95669e-98
9.60142e-98
3.19322e-97
2.89712e-96
1.33305e-95
1
0.999986
0.999996
1
0.999999
0.999998
0.999998
0.932815
0.397997
0.038147
7.04309e-05
8.29667e-06
6.99449e-07
4.00484e-08
9.14629e-10
9.42259e-15
5.30421e-20
2.9103e-28
1.44722e-37
2.6689e-45
7.91827e-52
4.35067e-60
2.96761e-63
6.89629e-67
1.59043e-69
3.36564e-72
3.86753e-75
4.24164e-78
1.86301e-81
2.33823e-85
2.09347e-89
5.01728e-95
1.34727e-99
5.74074e-99
2.20723e-98
7.18876e-98
1.93216e-97
1
0.999988
0.999996
1
0.999999
0.999998
0.999998
0.936696
0.41256
0.0431228
0.00258765
0.000379554
6.31377e-05
7.45155e-06
6.32025e-07
3.66219e-08
9.57977e-10
1.01576e-14
5.28835e-20
3.20487e-28
1.62503e-37
3.01974e-45
9.35024e-52
5.08305e-60
3.52257e-63
8.44618e-67
1.95119e-69
4.23195e-72
5.07535e-75
5.49114e-78
2.4908e-81
3.19421e-85
3.077e-89
9.27526e-95
1.30849e-100
2.24038e-100
6.63717e-100
1.53738e-99
3.13586e-99
1
0.99999
0.999996
1
0.999999
0.999999
0.999992
0.942173
0.432204
0.0477802
0.00273025
0.000352114
5.78967e-05
6.85527e-06
5.84841e-07
3.42905e-08
9.98852e-10
1.12966e-14
5.35312e-20
3.57905e-28
1.84987e-37
3.45799e-45
1.12119e-51
6.01953e-60
4.23366e-63
1.04786e-66
2.42941e-69
5.36615e-72
6.77104e-75
7.18507e-78
3.3912e-81
4.42991e-85
5.32657e-89
1.62891e-94
1.03808e-100
4.98011e-101
2.166e-100
4.7391e-100
9.69957e-100
1.64255e-99
0.999995
0.999992
0.999996
1
0.999999
0.999999
0.999968
0.950603
0.460194
0.0546492
0.00300495
0.000337811
5.42056e-05
6.45007e-06
5.53382e-07
3.28209e-08
1.03639e-09
1.30812e-14
5.45947e-20
4.05151e-28
2.13407e-37
4.00662e-45
1.36452e-51
7.22499e-60
5.15185e-63
1.31654e-66
3.07102e-69
6.86216e-72
9.17158e-75
9.51036e-78
4.70313e-81
6.24262e-85
1.03305e-88
2.69042e-94
1.32619e-100
3.5681e-102
7.47358e-101
1.73157e-100
3.87896e-100
7.47297e-100
0.999989
0.999992
0.999996
1
0.999999
0.999999
0.999992
0.960512
0.495332
0.0637796
0.00338537
0.000330823
5.17026e-05
6.19035e-06
5.34412e-07
3.20337e-08
1.07562e-09
1.59518e-14
5.61823e-20
4.64593e-28
2.49351e-37
4.69513e-45
1.68424e-51
8.78714e-60
6.3466e-63
1.67446e-66
3.94222e-69
8.85099e-72
1.25937e-74
1.27463e-77
6.64281e-81
8.94505e-85
2.06115e-88
4.19279e-94
2.79843e-100
3.40466e-102
1.80382e-101
3.51991e-101
7.04727e-101
1.3987e-100
2.54971e-100
0.999986
0.999994
0.999996
1
0.999999
0.999999
0.999993
0.970407
0.537098
0.0758085
0.00393233
0.000329227
5.01418e-05
6.0461e-06
5.24808e-07
3.17405e-08
1.12047e-09
2.03268e-14
5.82797e-20
5.39227e-28
2.94869e-37
5.56152e-45
2.10646e-51
1.08252e-59
7.91306e-63
2.15481e-66
5.13918e-69
1.15172e-71
1.74998e-74
1.73171e-77
9.54846e-81
1.3038e-84
3.97142e-88
6.22297e-94
5.9101e-100
3.4076e-102
5.56939e-102
8.83114e-102
1.16681e-101
9.63974e-102
3.43475e-101
0.999983
0.999994
0.999996
1
0.999999
0.999998
0.999965
0.979393
0.584762
0.0915839
0.00471557
0.000337726
4.93541e-05
5.97786e-06
5.21673e-07
3.17478e-08
1.17395e-09
2.69426e-14
6.08816e-20
6.32858e-28
3.52612e-37
6.65492e-45
2.66665e-51
1.35021e-59
9.98249e-63
2.80397e-66
6.80251e-69
1.51243e-71
2.45641e-74
2.38771e-77
1.39505e-80
1.93302e-84
7.18407e-88
8.90394e-94
1.01846e-99
7.07646e-103
1.84668e-102
2.78232e-102
3.0776e-102
4.26336e-104
1.7458e-102
0.999984
0.999995
0.999995
1
0.999999
0.999998
0.999958
0.986706
0.637011
0.112083
0.00582591
0.000361801
4.90798e-05
5.95995e-06
5.24558e-07
3.26058e-08
1.23802e-09
3.68583e-14
6.39774e-20
7.5032e-28
4.26017e-37
8.03921e-45
3.41305e-51
1.70412e-59
1.2737e-62
3.68706e-66
9.13912e-69
2.00527e-71
3.47698e-74
3.3451e-77
2.06817e-80
2.91352e-84
1.21339e-87
1.2462e-93
1.54185e-99
1.15421e-103
6.43365e-103
1.12937e-102
1.60528e-102
1.99617e-104
5.77236e-105
0.999989
0.999995
0.999996
1
0.999999
0.999999
0.999956
0.992204
0.692354
0.13859
0.00740572
0.000400805
4.91328e-05
6.01718e-06
5.37561e-07
3.36184e-08
1.31079e-09
5.15572e-14
6.75472e-20
8.97759e-28
5.19545e-37
9.79779e-45
4.41122e-51
2.1751e-59
1.64307e-62
4.89583e-66
1.24549e-68
2.68604e-71
4.95499e-74
4.76647e-77
3.105e-80
4.45955e-84
1.92343e-87
1.73733e-93
2.11998e-99
1.15145e-104
1.17863e-103
3.33203e-103
4.74004e-103
3.98075e-103
1.26783e-105
0.999996
0.999993
0.999997
1
0.999998
0.999998
0.999981
0.995996
0.749094
0.172656
0.00967949
0.000460786
5.00515e-05
6.13396e-06
5.5183e-07
3.4895e-08
1.39273e-09
7.31077e-14
7.15595e-20
1.08302e-27
6.39012e-37
1.20402e-44
5.75028e-51
2.80582e-59
2.14207e-62
6.56e-66
1.7204e-68
3.63775e-71
7.09949e-74
6.91275e-77
4.71093e-80
6.92138e-84
2.88857e-87
2.47015e-93
2.7786e-99
8.76089e-106
1.38557e-104
6.1443e-104
1.29544e-103
1.61012e-103
6.1473e-104
0.999997
0.999993
0.999997
1
0.999998
0.999999
0.999998
0.998397
0.80529
0.216073
0.013001
0.000551956
5.18449e-05
6.27342e-06
5.69877e-07
3.64541e-08
1.48427e-09
1.04302e-13
7.59706e-20
1.31613e-27
7.92017e-37
1.49115e-44
7.55131e-51
3.65565e-59
2.82116e-62
8.86369e-66
2.40619e-68
4.9858e-71
1.0216e-73
1.02062e-76
7.20853e-80
1.08723e-83
4.15691e-87
3.69174e-93
3.71147e-99
1.20827e-106
1.00661e-105
7.4329e-105
2.37823e-104
3.67167e-104
3.48822e-104
1
0.999993
0.999999
1
0.999998
0.999999
0.999999
0.999447
0.858541
0.27063
0.0179273
0.000687271
5.47356e-05
6.46075e-06
5.9144e-07
3.82383e-08
1.58483e-09
1.48833e-13
8.07278e-20
1.61001e-27
9.88533e-37
1.86048e-44
9.97877e-51
4.80753e-59
3.75206e-62
1.20691e-65
3.4036e-68
6.92268e-71
1.47529e-73
1.5334e-76
1.11051e-79
1.72521e-83
5.81097e-87
5.9905e-93
5.75198e-99
9.27039e-107
7.19095e-107
4.72867e-106
2.23339e-105
5.98306e-105
8.22918e-105
1
0.999993
0.999998
1
0.999998
1
0.999999
0.999775
0.905613
0.33761
0.0253258
0.000885873
5.92472e-05
6.70313e-06
6.16341e-07
4.02462e-08
1.69451e-09
2.11481e-13
8.57779e-20
1.98134e-27
1.24172e-36
2.33803e-44
1.3256e-50
6.37771e-59
5.03737e-62
1.65511e-65
4.86282e-68
9.74811e-71
2.1372e-73
2.34171e-76
1.72012e-79
2.76052e-83
8.03187e-87
1.07547e-92
1.27064e-98
9.96041e-107
2.37791e-107
6.50506e-107
1.21894e-106
3.19957e-106
8.09851e-106
1
0.999994
0.999998
1
0.999999
1
1
0.999937
0.943294
0.417025
0.0365143
0.001187
6.61539e-05
7.01701e-06
6.45156e-07
4.24876e-08
1.81375e-09
2.98318e-13
9.10793e-20
2.45187e-27
1.56903e-36
2.95918e-44
1.76862e-50
8.52986e-59
6.82468e-62
2.28481e-65
7.0079e-68
1.39352e-70
3.10584e-73
3.62827e-76
2.67676e-79
4.44823e-83
1.12578e-86
2.1073e-92
3.92856e-98
2.41932e-106
6.54077e-108
1.88501e-107
2.6103e-107
2.80069e-107
2.55479e-107
0.999997
0.999993
0.999997
1
0.999999
1
1
0.999988
0.969988
0.506829
0.0534363
0.00166745
7.6752e-05
7.42771e-06
6.78765e-07
4.49928e-08
1.94362e-09
4.16917e-13
9.66171e-20
3.05015e-27
1.99381e-36
3.77254e-44
2.36817e-50
1.14952e-58
9.32753e-62
3.17367e-65
1.01727e-67
2.02393e-70
4.52962e-73
5.69006e-76
4.1841e-79
7.21292e-83
1.66059e-86
4.31721e-92
1.22358e-97
4.67441e-106
1.24387e-108
4.7939e-108
7.77316e-108
8.73104e-108
4.36899e-108
0.999996
0.999996
0.999998
1
0.999999
1
0.999998
0.99999
0.986375
0.602731
0.0788524
0.00246623
9.27876e-05
7.97131e-06
7.18508e-07
4.78194e-08
2.08617e-09
5.76607e-13
1.02418e-19
3.81408e-27
2.54749e-36
4.84582e-44
3.18034e-50
1.56019e-58
1.28565e-61
4.43429e-65
1.4854e-67
2.9878e-70
6.63535e-73
9.00745e-76
6.57261e-79
1.17693e-82
2.70535e-86
8.83408e-92
3.15293e-97
9.11861e-106
1.74946e-109
9.90445e-109
2.03758e-108
2.60568e-108
2.05372e-108
0.999997
0.999995
0.999998
1
0.999999
1
0.999999
0.999989
0.994962
0.699037
0.116508
0.00382722
0.000116206
8.70578e-06
7.66424e-07
5.10592e-08
2.24473e-09
7.88755e-13
1.08566e-19
4.79445e-27
3.27274e-36
6.27441e-44
4.28162e-50
2.1317e-58
1.78659e-61
6.2309e-65
2.17908e-67
4.48246e-70
9.77592e-73
1.43533e-75
1.03873e-78
1.93383e-82
5.05994e-86
1.7564e-91
6.59181e-97
1.84886e-105
1.38797e-110
1.33991e-109
4.15546e-109
6.82243e-109
7.27877e-109
0.999998
0.999996
0.999998
1
0.999999
0.999999
0.999999
0.999998
0.998696
0.789745
0.17111
0.00616764
0.000152024
9.74096e-06
8.25769e-07
5.4856e-08
2.42447e-09
1.06714e-12
1.15207e-19
6.0602e-27
4.22815e-36
8.19451e-44
5.77661e-50
2.93081e-58
2.50232e-61
8.80458e-65
3.20802e-67
6.82887e-70
1.45116e-72
2.29649e-75
1.65438e-78
3.20402e-82
1.07358e-85
3.37352e-91
1.16586e-96
4.18942e-105
8.75649e-112
9.67677e-111
5.20571e-110
1.28936e-109
1.72697e-109
0.999998
0.999996
0.999998
1
0.999999
1
0.999998
0.999998
0.999727
0.868703
0.247622
0.0102723
0.000214029
1.13059e-05
9.01992e-07
5.94316e-08
2.63319e-09
1.42844e-12
1.22559e-19
7.70594e-27
5.49483e-36
1.08031e-43
7.80898e-50
4.05334e-58
3.53137e-61
1.25117e-64
4.73517e-67
1.05487e-69
2.17515e-72
3.68173e-75
2.66115e-78
5.36264e-82
2.4122e-85
6.33178e-91
1.84384e-96
1.07401e-104
2.08175e-112
5.37037e-112
2.63886e-111
1.26794e-110
2.74767e-110
0.999997
0.999997
0.999997
1
0.999999
1
0.999998
0.999999
0.99996
0.929615
0.349242
0.0178352
0.000335463
1.38469e-05
1.00443e-06
6.51284e-08
2.88243e-09
1.89294e-12
1.30899e-19
9.86325e-27
7.18632e-36
1.43885e-43
1.05769e-49
5.63726e-58
5.01988e-61
1.78834e-64
7.0027e-67
1.64873e-69
3.3005e-72
5.90634e-75
4.33364e-78
9.08548e-82
5.31791e-85
1.18938e-90
2.7861e-96
2.90686e-104
7.10455e-113
1.12645e-112
1.41575e-112
3.84048e-112
1.81269e-111
0.999998
0.999997
0.999997
1
1
1
0.999999
0.999999
0.999998
0.968928
0.474245
0.0323505
0.000598886
1.81276e-05
1.1495e-06
7.24776e-08
3.1893e-09
2.48556e-12
1.4056e-19
1.27172e-26
9.46315e-36
1.93783e-43
1.43556e-49
7.88213e-58
7.18538e-61
2.57181e-64
1.03714e-66
2.60064e-69
5.08319e-72
9.47598e-75
7.16125e-78
1.56103e-81
1.09907e-84
2.30824e-90
4.43289e-96
7.60425e-104
2.58431e-113
2.92005e-113
3.25992e-113
2.48036e-113
3.04636e-113
1
0.999996
0.999998
1
1
1
0.999999
1
0.999993
0.989167
0.613396
0.0607099
0.00121399
2.57303e-05
1.36841e-06
8.23213e-08
3.57941e-09
3.23734e-12
1.52018e-19
1.65314e-26
1.25547e-35
2.64127e-43
1.95295e-49
1.10777e-57
1.0353e-60
3.72273e-64
1.53812e-66
4.12837e-69
7.96573e-72
1.52098e-74
1.20302e-77
2.72351e-81
2.09957e-84
4.77626e-90
8.70104e-96
1.85166e-103
1.97114e-113
5.10619e-114
7.95171e-114
7.229e-114
2.25983e-114
1
0.999995
0.999999
1
1
0.999999
0.999999
1
0.999999
0.99712
0.750693
0.115303
0.00271559
4.19096e-05
1.72247e-06
9.60596e-08
4.09165e-09
4.18784e-12
1.66283e-19
2.16855e-26
1.67919e-35
3.64609e-43
2.66406e-49
1.56464e-57
1.50106e-60
5.42678e-64
2.28462e-66
6.57732e-69
1.27244e-71
2.44565e-74
2.05635e-77
4.82639e-81
3.7266e-84
1.07035e-89
2.38622e-95
4.28152e-103
6.84426e-113
6.05819e-115
1.30748e-114
1.49964e-114
8.05428e-115
1.00001
0.999993
0.999999
0.999999
0.999999
0.999999
0.999999
1
1
0.999501
0.866624
0.213889
0.00646966
8.36043e-05
2.32193e-06
1.16183e-07
4.78644e-09
5.38857e-12
1.8607e-19
2.87315e-26
2.26565e-35
5.10008e-43
3.64595e-49
2.22069e-57
2.18927e-60
7.9716e-64
3.40062e-66
1.0491e-68
2.07339e-71
3.94867e-74
3.57522e-77
8.67914e-81
6.24444e-84
2.55973e-89
7.74756e-95
9.95111e-103
2.00225e-112
4.56443e-116
1.25967e-115
1.72986e-115
1.68417e-115
1.00001
0.999993
0.999999
0.999998
0.999999
0.999999
0.999999
1
1
0.999966
0.94434
0.369627
0.0161259
0.000207122
3.41256e-06
1.47373e-07
5.7583e-09
6.90808e-12
2.19329e-19
3.84804e-26
3.08563e-35
7.23015e-43
5.00941e-49
3.16694e-57
3.21095e-60
1.18076e-63
5.07757e-66