/*--------------------------------*- C++ -*----------------------------------*\
| =========                 |                                                 |
| \\      /  F ield         | OpenFOAM: The Open Source CFD Toolbox           |
|  \\    /   O peration     | Version:  v2012                                 |
|   \\  /    A nd           | Website:  www.openfoam.com                      |
|    \\/     M anipulation  |                                                 |
\*---------------------------------------------------------------------------*/
FoamFile
{
    version     2.0;
    format      ascii;
    class       volScalarField;
    location    "0.35";
    object      p;
}
// * * * * * * * * * * * * * * * * * * * * * * * * * * * * * * * * * * * * * //

dimensions      [1 -1 -2 0 0 0 0];


internalField   nonuniform List<scalar> 
3332
(
3.48227e+06
3.48331e+06
3.48418e+06
3.48492e+06
3.48555e+06
3.4861e+06
3.48658e+06
3.487e+06
3.48739e+06
3.48773e+06
3.48804e+06
3.48833e+06
3.4886e+06
3.48884e+06
3.48907e+06
3.48929e+06
3.48949e+06
3.48968e+06
3.48986e+06
3.49002e+06
3.47783e+06
3.47964e+06
3.48114e+06
3.48235e+06
3.48337e+06
3.48422e+06
3.48494e+06
3.48556e+06
3.4861e+06
3.48658e+06
3.487e+06
3.48738e+06
3.48772e+06
3.48803e+06
3.48831e+06
3.48857e+06
3.48881e+06
3.48904e+06
3.48925e+06
3.48945e+06
3.48963e+06
3.48981e+06
3.42749e+06
3.43447e+06
3.42827e+06
3.43305e+06
3.42256e+06
3.41746e+06
3.41504e+06
3.41136e+06
3.3986e+06
3.41494e+06
3.45323e+06
3.46126e+06
3.46629e+06
3.47072e+06
3.47386e+06
3.47649e+06
3.47851e+06
3.48018e+06
3.48153e+06
3.48266e+06
3.4836e+06
3.4844e+06
3.48508e+06
3.48567e+06
3.48619e+06
3.48664e+06
3.48705e+06
3.48741e+06
3.48774e+06
3.48804e+06
3.48831e+06
3.48856e+06
3.4888e+06
3.48902e+06
3.48922e+06
3.48942e+06
3.4896e+06
3.43419e+06
3.43835e+06
3.43495e+06
3.43599e+06
3.428e+06
3.42146e+06
3.42103e+06
3.41604e+06
3.40214e+06
3.41249e+06
3.42753e+06
3.44252e+06
3.45142e+06
3.45944e+06
3.46478e+06
3.46935e+06
3.47269e+06
3.47547e+06
3.47762e+06
3.47941e+06
3.48086e+06
3.48206e+06
3.48307e+06
3.48393e+06
3.48466e+06
3.48529e+06
3.48583e+06
3.48631e+06
3.48674e+06
3.48712e+06
3.48746e+06
3.48777e+06
3.48806e+06
3.48832e+06
3.48857e+06
3.48879e+06
3.489e+06
3.4892e+06
3.48939e+06
3.44648e+06
3.44381e+06
3.44688e+06
3.44157e+06
3.4385e+06
3.43037e+06
3.43274e+06
3.42603e+06
3.4108e+06
3.41353e+06
3.42859e+06
3.44185e+06
3.45093e+06
3.45854e+06
3.46399e+06
3.46853e+06
3.47195e+06
3.47477e+06
3.477e+06
3.47884e+06
3.48034e+06
3.4816e+06
3.48265e+06
3.48354e+06
3.4843e+06
3.48495e+06
3.48552e+06
3.48602e+06
3.48646e+06
3.48685e+06
3.48721e+06
3.48753e+06
3.48782e+06
3.48809e+06
3.48834e+06
3.48857e+06
3.48879e+06
3.48899e+06
3.48918e+06
3.48936e+06
3.46228e+06
3.45098e+06
3.46205e+06
3.4498e+06
3.45261e+06
3.44288e+06
3.4479e+06
3.4395e+06
3.42286e+06
3.41679e+06
3.43127e+06
3.44252e+06
3.45151e+06
3.45849e+06
3.46388e+06
3.46823e+06
3.47164e+06
3.47441e+06
3.47665e+06
3.47849e+06
3.48e+06
3.48127e+06
3.48233e+06
3.48324e+06
3.48401e+06
3.48467e+06
3.48525e+06
3.48576e+06
3.48621e+06
3.48661e+06
3.48697e+06
3.4873e+06
3.48759e+06
3.48787e+06
3.48812e+06
3.48836e+06
3.48858e+06
3.48879e+06
3.48898e+06
3.48917e+06
3.47887e+06
3.45959e+06
3.47788e+06
3.46001e+06
3.46797e+06
3.45742e+06
3.46427e+06
3.45501e+06
3.43714e+06
3.42193e+06
3.43527e+06
3.44433e+06
3.45299e+06
3.45919e+06
3.46439e+06
3.46844e+06
3.47173e+06
3.47439e+06
3.47656e+06
3.47835e+06
3.47984e+06
3.48108e+06
3.48213e+06
3.48303e+06
3.48379e+06
3.48445e+06
3.48503e+06
3.48554e+06
3.48599e+06
3.48639e+06
3.48675e+06
3.48708e+06
3.48738e+06
3.48766e+06
3.48792e+06
3.48816e+06
3.48838e+06
3.48859e+06
3.48879e+06
3.48898e+06
3.48915e+06
3.49395e+06
3.46953e+06
3.49227e+06
3.4715e+06
3.4828e+06
3.47237e+06
3.48013e+06
3.47119e+06
3.45223e+06
3.42839e+06
3.43988e+06
3.44702e+06
3.45515e+06
3.46054e+06
3.46543e+06
3.46912e+06
3.47221e+06
3.47469e+06
3.47674e+06
3.47843e+06
3.47985e+06
3.48104e+06
3.48205e+06
3.48291e+06
3.48365e+06
3.48429e+06
3.48486e+06
3.48535e+06
3.48579e+06
3.48619e+06
3.48655e+06
3.48688e+06
3.48718e+06
3.48746e+06
3.48772e+06
3.48796e+06
3.48819e+06
3.4884e+06
3.4886e+06
3.48879e+06
3.48896e+06
3.50492e+06
3.48032e+06
3.50318e+06
3.48345e+06
3.4953e+06
3.48621e+06
3.49382e+06
3.48586e+06
3.46652e+06
3.43542e+06
3.44454e+06
3.45032e+06
3.45776e+06
3.46244e+06
3.46692e+06
3.47021e+06
3.47304e+06
3.47528e+06
3.47717e+06
3.47872e+06
3.48003e+06
3.48113e+06
3.48207e+06
3.48288e+06
3.48358e+06
3.48419e+06
3.48473e+06
3.48521e+06
3.48563e+06
3.48602e+06
3.48637e+06
3.48669e+06
3.48699e+06
3.48727e+06
3.48752e+06
3.48777e+06
3.488e+06
3.48821e+06
3.48841e+06
3.4886e+06
3.48878e+06
3.51169e+06
3.49247e+06
3.50986e+06
3.49551e+06
3.50454e+06
3.49764e+06
3.50411e+06
3.49705e+06
3.47865e+06
3.44283e+06
3.44888e+06
3.45416e+06
3.46073e+06
3.46485e+06
3.46882e+06
3.4717e+06
3.4742e+06
3.47617e+06
3.47783e+06
3.4792e+06
3.48037e+06
3.48136e+06
3.48221e+06
3.48294e+06
3.48358e+06
3.48415e+06
3.48465e+06
3.4851e+06
3.4855e+06
3.48587e+06
3.48621e+06
3.48652e+06
3.48681e+06
3.48709e+06
3.48734e+06
3.48758e+06
3.48781e+06
3.48803e+06
3.48823e+06
3.48842e+06
3.4886e+06
3.51463e+06
3.50603e+06
3.51326e+06
3.50793e+06
3.51086e+06
3.50701e+06
3.51118e+06
3.50472e+06
3.48853e+06
3.45125e+06
3.45298e+06
3.45868e+06
3.46404e+06
3.46779e+06
3.47111e+06
3.47357e+06
3.47567e+06
3.47732e+06
3.47872e+06
3.47988e+06
3.48086e+06
3.48171e+06
3.48244e+06
3.48308e+06
3.48365e+06
3.48416e+06
3.48461e+06
3.48502e+06
3.4854e+06
3.48574e+06
3.48607e+06
3.48637e+06
3.48665e+06
3.48691e+06
3.48717e+06
3.4874e+06
3.48763e+06
3.48785e+06
3.48805e+06
3.48825e+06
3.48843e+06
3.51726e+06
3.52141e+06
3.51674e+06
3.52112e+06
3.5168e+06
3.51624e+06
3.51707e+06
3.51199e+06
3.49823e+06
3.46236e+06
3.45759e+06
3.46426e+06
3.46788e+06
3.47133e+06
3.47381e+06
3.47583e+06
3.47743e+06
3.47873e+06
3.47982e+06
3.48072e+06
3.4815e+06
3.48218e+06
3.48278e+06
3.48331e+06
3.48378e+06
3.48422e+06
3.48461e+06
3.48498e+06
3.48532e+06
3.48564e+06
3.48594e+06
3.48622e+06
3.48649e+06
3.48675e+06
3.487e+06
3.48723e+06
3.48746e+06
3.48767e+06
3.48788e+06
3.48807e+06
3.48826e+06
3.52404e+06
3.5379e+06
3.52445e+06
3.53521e+06
3.52593e+06
3.52772e+06
3.52555e+06
3.52282e+06
3.51138e+06
3.4776e+06
3.46382e+06
3.47128e+06
3.47245e+06
3.47553e+06
3.47695e+06
3.47846e+06
3.47948e+06
3.48038e+06
3.48111e+06
3.48173e+06
3.48227e+06
3.48276e+06
3.4832e+06
3.4836e+06
3.48397e+06
3.48432e+06
3.48465e+06
3.48497e+06
3.48526e+06
3.48555e+06
3.48583e+06
3.48609e+06
3.48635e+06
3.4866e+06
3.48684e+06
3.48707e+06
3.48729e+06
3.4875e+06
3.48771e+06
3.4879e+06
3.48809e+06
3.53729e+06
3.55393e+06
3.53871e+06
3.54984e+06
3.54039e+06
3.54274e+06
3.53937e+06
3.53934e+06
3.52985e+06
3.49699e+06
3.47247e+06
3.47966e+06
3.4779e+06
3.48038e+06
3.48052e+06
3.48144e+06
3.4818e+06
3.48225e+06
3.48257e+06
3.48288e+06
3.48316e+06
3.48343e+06
3.48369e+06
3.48395e+06
3.48421e+06
3.48447e+06
3.48472e+06
3.48498e+06
3.48523e+06
3.48548e+06
3.48573e+06
3.48597e+06
3.48622e+06
3.48645e+06
3.48668e+06
3.48691e+06
3.48713e+06
3.48734e+06
3.48754e+06
3.48774e+06
3.48792e+06
3.55631e+06
3.56829e+06
3.55797e+06
3.56434e+06
3.55913e+06
3.56058e+06
3.55811e+06
3.56047e+06
3.55245e+06
3.51946e+06
3.48354e+06
3.48895e+06
3.48417e+06
3.48571e+06
3.48448e+06
3.48471e+06
3.48435e+06
3.48431e+06
3.48418e+06
3.48415e+06
3.48414e+06
3.48418e+06
3.48425e+06
3.48436e+06
3.48449e+06
3.48465e+06
3.48482e+06
3.48501e+06
3.48521e+06
3.48543e+06
3.48564e+06
3.48586e+06
3.48609e+06
3.48631e+06
3.48653e+06
3.48675e+06
3.48697e+06
3.48718e+06
3.48738e+06
3.48757e+06
3.48776e+06
3.57652e+06
3.58064e+06
3.57794e+06
3.57847e+06
3.57831e+06
3.5787e+06
3.57803e+06
3.58224e+06
3.57527e+06
3.54293e+06
3.49618e+06
3.49838e+06
3.49103e+06
3.49129e+06
3.48876e+06
3.4882e+06
3.4871e+06
3.48652e+06
3.48593e+06
3.48553e+06
3.48521e+06
3.485e+06
3.48487e+06
3.48481e+06
3.4848e+06
3.48485e+06
3.48494e+06
3.48506e+06
3.48521e+06
3.48538e+06
3.48557e+06
3.48576e+06
3.48597e+06
3.48618e+06
3.48639e+06
3.4866e+06
3.48681e+06
3.48702e+06
3.48722e+06
3.48741e+06
3.4876e+06
3.596e+06
3.59225e+06
3.59479e+06
3.59118e+06
3.59437e+06
3.59386e+06
3.59409e+06
3.59958e+06
3.59245e+06
3.56395e+06
3.50908e+06
3.507e+06
3.49818e+06
3.49689e+06
3.49327e+06
3.49183e+06
3.49e+06
3.48885e+06
3.48777e+06
3.48698e+06
3.48634e+06
3.48587e+06
3.48552e+06
3.48528e+06
3.48514e+06
3.48508e+06
3.48507e+06
3.48512e+06
3.48522e+06
3.48534e+06
3.48549e+06
3.48566e+06
3.48585e+06
3.48605e+06
3.48625e+06
3.48645e+06
3.48666e+06
3.48686e+06
3.48706e+06
3.48726e+06
3.48744e+06
3.60925e+06
3.60134e+06
3.60753e+06
3.60176e+06
3.6064e+06
3.60451e+06
3.60427e+06
3.60963e+06
3.60154e+06
3.57984e+06
3.52227e+06
3.51433e+06
3.50555e+06
3.50238e+06
3.49798e+06
3.49555e+06
3.49303e+06
3.49126e+06
3.48969e+06
3.48849e+06
3.48752e+06
3.48677e+06
3.4862e+06
3.48578e+06
3.48549e+06
3.48531e+06
3.48521e+06
3.48519e+06
3.48523e+06
3.48531e+06
3.48543e+06
3.48557e+06
3.48574e+06
3.48592e+06
3.48611e+06
3.48631e+06
3.48651e+06
3.48671e+06
3.48691e+06
3.4871e+06
3.48729e+06
3.6218e+06
3.6104e+06
3.61914e+06
3.61108e+06
3.61631e+06
3.61221e+06
3.61143e+06
3.61415e+06
3.60685e+06
3.59146e+06
3.53803e+06
3.52084e+06
3.51354e+06
3.50786e+06
3.50295e+06
3.49937e+06
3.49619e+06
3.49375e+06
3.49167e+06
3.49004e+06
3.48872e+06
3.48768e+06
3.48688e+06
3.48628e+06
3.48584e+06
3.48554e+06
3.48536e+06
3.48526e+06
3.48524e+06
3.48527e+06
3.48536e+06
3.48548e+06
3.48562e+06
3.48579e+06
3.48597e+06
3.48616e+06
3.48636e+06
3.48656e+06
3.48675e+06
3.48695e+06
3.48714e+06
3.63528e+06
3.61959e+06
3.63207e+06
3.62092e+06
3.6269e+06
3.62051e+06
3.62024e+06
3.61879e+06
3.6154e+06
3.60404e+06
3.55807e+06
3.52793e+06
3.52257e+06
3.51359e+06
3.50826e+06
3.50332e+06
3.49947e+06
3.49629e+06
3.49369e+06
3.4916e+06
3.48992e+06
3.48859e+06
3.48756e+06
3.48677e+06
3.48618e+06
3.48577e+06
3.48549e+06
3.48532e+06
3.48524e+06
3.48524e+06
3.48529e+06
3.48538e+06
3.48551e+06
3.48567e+06
3.48584e+06
3.48602e+06
3.48621e+06
3.48641e+06
3.4866e+06
3.4868e+06
3.48699e+06
3.65074e+06
3.63051e+06
3.64677e+06
3.63249e+06
3.63937e+06
3.63188e+06
3.63299e+06
3.62881e+06
3.63063e+06
3.6212e+06
3.58124e+06
3.5369e+06
3.53238e+06
3.51978e+06
3.51386e+06
3.50741e+06
3.50283e+06
3.49885e+06
3.49571e+06
3.49315e+06
3.4911e+06
3.48948e+06
3.48821e+06
3.48723e+06
3.4865e+06
3.48597e+06
3.48561e+06
3.48537e+06
3.48524e+06
3.48519e+06
3.48521e+06
3.48529e+06
3.4854e+06
3.48554e+06
3.4857e+06
3.48588e+06
3.48607e+06
3.48626e+06
3.48646e+06
3.48665e+06
3.48684e+06
3.66496e+06
3.64332e+06
3.661e+06
3.64569e+06
3.65262e+06
3.64548e+06
3.64792e+06
3.64308e+06
3.64954e+06
3.63967e+06
3.60514e+06
3.54822e+06
3.54223e+06
3.52657e+06
3.5196e+06
3.51164e+06
3.50623e+06
3.50143e+06
3.4977e+06
3.49465e+06
3.49223e+06
3.49031e+06
3.48881e+06
3.48766e+06
3.48679e+06
3.48615e+06
3.4857e+06
3.4854e+06
3.48522e+06
3.48514e+06
3.48513e+06
3.48518e+06
3.48528e+06
3.48541e+06
3.48556e+06
3.48574e+06
3.48592e+06
3.48611e+06
3.48631e+06
3.4865e+06
3.48669e+06
3.67525e+06
3.65815e+06
3.67204e+06
3.6596e+06
3.66429e+06
3.6586e+06
3.66062e+06
3.65536e+06
3.6642e+06
3.65241e+06
3.62636e+06
3.56171e+06
3.55124e+06
3.53397e+06
3.52528e+06
3.516e+06
3.50958e+06
3.50396e+06
3.49962e+06
3.49607e+06
3.49328e+06
3.49106e+06
3.48934e+06
3.48802e+06
3.48702e+06
3.48629e+06
3.48576e+06
3.4854e+06
3.48518e+06
3.48507e+06
3.48504e+06
3.48507e+06
3.48515e+06
3.48528e+06
3.48543e+06
3.4856e+06
3.48578e+06
3.48597e+06
3.48616e+06
3.48636e+06
3.48655e+06
3.68144e+06
3.67535e+06
3.67971e+06
3.67395e+06
3.67397e+06
3.6707e+06
3.66956e+06
3.66417e+06
3.67067e+06
3.65868e+06
3.64219e+06
3.57899e+06
3.55901e+06
3.54215e+06
3.53078e+06
3.52046e+06
3.51282e+06
3.50639e+06
3.5014e+06
3.49736e+06
3.4942e+06
3.49171e+06
3.48979e+06
3.48831e+06
3.48719e+06
3.48637e+06
3.48578e+06
3.48538e+06
3.48512e+06
3.48498e+06
3.48493e+06
3.48495e+06
3.48502e+06
3.48514e+06
3.48528e+06
3.48545e+06
3.48563e+06
3.48582e+06
3.48602e+06
3.48621e+06
3.48641e+06
3.68682e+06
3.69521e+06
3.68595e+06
3.68915e+06
3.68346e+06
3.68332e+06
3.67814e+06
3.67465e+06
3.67462e+06
3.66917e+06
3.65785e+06
3.6036e+06
3.56677e+06
3.55157e+06
3.53621e+06
3.525e+06
3.51588e+06
3.50866e+06
3.50298e+06
3.49848e+06
3.49496e+06
3.49222e+06
3.49011e+06
3.4885e+06
3.48729e+06
3.4864e+06
3.48575e+06
3.48531e+06
3.48503e+06
3.48487e+06
3.48481e+06
3.48482e+06
3.48489e+06
3.485e+06
3.48514e+06
3.4853e+06
3.48549e+06
3.48568e+06
3.48587e+06
3.48607e+06
3.48626e+06
3.69029e+06
3.71304e+06
3.69197e+06
3.7034e+06
3.69339e+06
3.69607e+06
3.689e+06
3.68898e+06
3.68468e+06
3.68891e+06
3.67796e+06
3.6337e+06
3.57626e+06
3.5617e+06
3.54167e+06
3.52942e+06
3.51866e+06
3.51065e+06
3.50427e+06
3.49934e+06
3.49551e+06
3.49256e+06
3.49029e+06
3.48858e+06
3.48729e+06
3.48635e+06
3.48567e+06
3.48521e+06
3.48491e+06
3.48474e+06
3.48467e+06
3.48467e+06
3.48474e+06
3.48485e+06
3.48499e+06
3.48516e+06
3.48534e+06
3.48553e+06
3.48573e+06
3.48593e+06
3.48613e+06
3.69339e+06
3.72504e+06
3.69722e+06
3.71326e+06
3.70134e+06
3.70548e+06
3.69908e+06
3.70252e+06
3.6987e+06
3.70981e+06
3.69625e+06
3.66292e+06
3.58871e+06
3.57067e+06
3.54706e+06
3.53323e+06
3.52098e+06
3.51217e+06
3.50518e+06
3.49988e+06
3.49579e+06
3.49267e+06
3.49031e+06
3.48852e+06
3.4872e+06
3.48622e+06
3.48553e+06
3.48506e+06
3.48475e+06
3.48458e+06
3.48451e+06
3.48451e+06
3.48458e+06
3.48469e+06
3.48484e+06
3.485e+06
3.48519e+06
3.48539e+06
3.48559e+06
3.48579e+06
3.48599e+06
3.69301e+06
3.72755e+06
3.69814e+06
3.71588e+06
3.70395e+06
3.70823e+06
3.70384e+06
3.70972e+06
3.70871e+06
3.72119e+06
3.70712e+06
3.68565e+06
3.60587e+06
3.57663e+06
3.5522e+06
3.53586e+06
3.52263e+06
3.51302e+06
3.50558e+06
3.5e+06
3.49575e+06
3.49254e+06
3.49012e+06
3.48832e+06
3.48698e+06
3.48601e+06
3.48533e+06
3.48486e+06
3.48456e+06
3.48439e+06
3.48433e+06
3.48434e+06
3.48441e+06
3.48453e+06
3.48468e+06
3.48485e+06
3.48504e+06
3.48524e+06
3.48544e+06
3.48565e+06
3.48585e+06
3.68867e+06
3.72129e+06
3.69296e+06
3.71012e+06
3.699e+06
3.70289e+06
3.70153e+06
3.70955e+06
3.71282e+06
3.72331e+06
3.71382e+06
3.70036e+06
3.62887e+06
3.57886e+06
3.55657e+06
3.53685e+06
3.5233e+06
3.51296e+06
3.50533e+06
3.4996e+06
3.49532e+06
3.49211e+06
3.48972e+06
3.48795e+06
3.48665e+06
3.48571e+06
3.48505e+06
3.48461e+06
3.48433e+06
3.48418e+06
3.48413e+06
3.48415e+06
3.48423e+06
3.48436e+06
3.48451e+06
3.48469e+06
3.48489e+06
3.48509e+06
3.4853e+06
3.48551e+06
3.48572e+06
3.67506e+06
3.70353e+06
3.67953e+06
3.69488e+06
3.68479e+06
3.68822e+06
3.69119e+06
3.70262e+06
3.7117e+06
3.72178e+06
3.71788e+06
3.70826e+06
3.65173e+06
3.57877e+06
3.55851e+06
3.5359e+06
3.52257e+06
3.51181e+06
3.50429e+06
3.49862e+06
3.49447e+06
3.49137e+06
3.48909e+06
3.48741e+06
3.48619e+06
3.48531e+06
3.48471e+06
3.4843e+06
3.48406e+06
3.48394e+06
3.48391e+06
3.48395e+06
3.48404e+06
3.48418e+06
3.48435e+06
3.48453e+06
3.48473e+06
3.48494e+06
3.48516e+06
3.48537e+06
3.48558e+06
3.65366e+06
3.67639e+06
3.65808e+06
3.67024e+06
3.6605e+06
3.66347e+06
3.67161e+06
3.68809e+06
3.70361e+06
3.71496e+06
3.7158e+06
3.7054e+06
3.66496e+06
3.57885e+06
3.55535e+06
3.53284e+06
3.51987e+06
3.50943e+06
3.50234e+06
3.49701e+06
3.49316e+06
3.49031e+06
3.48823e+06
3.4867e+06
3.4856e+06
3.48483e+06
3.48429e+06
3.48395e+06
3.48375e+06
3.48367e+06
3.48366e+06
3.48373e+06
3.48384e+06
3.48399e+06
3.48417e+06
3.48437e+06
3.48458e+06
3.48479e+06
3.48501e+06
3.48523e+06
3.48545e+06
3.62555e+06
3.64187e+06
3.62935e+06
3.63812e+06
3.6281e+06
3.63159e+06
3.64357e+06
3.66493e+06
3.6848e+06
3.69551e+06
3.70098e+06
3.68663e+06
3.66319e+06
3.57835e+06
3.54566e+06
3.52727e+06
3.51482e+06
3.50571e+06
3.4994e+06
3.49475e+06
3.4914e+06
3.48893e+06
3.48714e+06
3.48583e+06
3.4849e+06
3.48425e+06
3.48382e+06
3.48355e+06
3.48341e+06
3.48337e+06
3.48341e+06
3.4835e+06
3.48363e+06
3.4838e+06
3.48399e+06
3.4842e+06
3.48442e+06
3.48465e+06
3.48487e+06
3.4851e+06
3.48532e+06
3.59656e+06
3.60671e+06
3.59894e+06
3.60438e+06
3.59387e+06
3.59937e+06
3.61138e+06
3.63359e+06
3.65299e+06
3.65959e+06
3.668e+06
3.6529e+06
3.64262e+06
3.57267e+06
3.53028e+06
3.51851e+06
3.50752e+06
3.50067e+06
3.49555e+06
3.4919e+06
3.48923e+06
3.48727e+06
3.48585e+06
3.48482e+06
3.4841e+06
3.4836e+06
3.48329e+06
3.48311e+06
3.48304e+06
3.48305e+06
3.48313e+06
3.48325e+06
3.48342e+06
3.4836e+06
3.48381e+06
3.48403e+06
3.48426e+06
3.4845e+06
3.48473e+06
3.48496e+06
3.48519e+06
3.57149e+06
3.57506e+06
3.57239e+06
3.57394e+06
3.56612e+06
3.56999e+06
3.58134e+06
3.59699e+06
3.61021e+06
3.61109e+06
3.6188e+06
3.60865e+06
3.60529e+06
3.55606e+06
3.51158e+06
3.50623e+06
3.49854e+06
3.49448e+06
3.49099e+06
3.48857e+06
3.48673e+06
3.48539e+06
3.4844e+06
3.48369e+06
3.48321e+06
3.48289e+06
3.48271e+06
3.48264e+06
3.48264e+06
3.48272e+06
3.48284e+06
3.483e+06
3.48319e+06
3.4834e+06
3.48363e+06
3.48386e+06
3.4841e+06
3.48435e+06
3.48459e+06
3.48483e+06
3.48506e+06
3.55376e+06
3.5497e+06
3.55313e+06
3.54934e+06
3.54889e+06
3.5463e+06
3.55505e+06
3.55994e+06
3.56356e+06
3.55943e+06
3.56404e+06
3.56104e+06
3.56152e+06
3.52907e+06
3.49306e+06
3.49159e+06
3.48892e+06
3.4876e+06
3.48606e+06
3.48497e+06
3.48405e+06
3.48336e+06
3.48285e+06
3.48249e+06
3.48226e+06
3.48213e+06
3.4821e+06
3.48213e+06
3.48222e+06
3.48236e+06
3.48254e+06
3.48274e+06
3.48296e+06
3.48319e+06
3.48344e+06
3.48369e+06
3.48394e+06
3.4842e+06
3.48445e+06
3.48469e+06
3.48493e+06
3.5411e+06
3.53181e+06
3.53907e+06
3.53189e+06
3.53633e+06
3.52985e+06
3.53108e+06
3.52664e+06
3.52172e+06
3.51482e+06
3.51649e+06
3.51881e+06
3.52243e+06
3.50069e+06
3.47759e+06
3.47737e+06
3.47984e+06
3.48075e+06
3.48118e+06
3.48132e+06
3.48132e+06
3.48128e+06
3.48125e+06
3.48124e+06
3.48127e+06
3.48135e+06
3.48146e+06
3.48161e+06
3.48179e+06
3.482e+06
3.48222e+06
3.48247e+06
3.48272e+06
3.48298e+06
3.48325e+06
3.48351e+06
3.48378e+06
3.48405e+06
3.48431e+06
3.48456e+06
3.4848e+06
3.52686e+06
3.51981e+06
3.52509e+06
3.52064e+06
3.52294e+06
3.51677e+06
3.50969e+06
3.50009e+06
3.49058e+06
3.4835e+06
3.48361e+06
3.48821e+06
3.49317e+06
3.47861e+06
3.46565e+06
3.46585e+06
3.47203e+06
3.47459e+06
3.47667e+06
3.47784e+06
3.47868e+06
3.47924e+06
3.47965e+06
3.47999e+06
3.48028e+06
3.48055e+06
3.48081e+06
3.48108e+06
3.48135e+06
3.48162e+06
3.48191e+06
3.48219e+06
3.48248e+06
3.48277e+06
3.48305e+06
3.48334e+06
3.48362e+06
3.4839e+06
3.48417e+06
3.48443e+06
3.48468e+06
3.51241e+06
3.51322e+06
3.51091e+06
3.51371e+06
3.50908e+06
3.50498e+06
3.49258e+06
3.4816e+06
3.47132e+06
3.46587e+06
3.46554e+06
3.47015e+06
3.47384e+06
3.46481e+06
3.45672e+06
3.45772e+06
3.46567e+06
3.46943e+06
3.47269e+06
3.4747e+06
3.47622e+06
3.47729e+06
3.47812e+06
3.47876e+06
3.4793e+06
3.47975e+06
3.48017e+06
3.48054e+06
3.4809e+06
3.48125e+06
3.48158e+06
3.48191e+06
3.48224e+06
3.48255e+06
3.48286e+06
3.48316e+06
3.48346e+06
3.48375e+06
3.48403e+06
3.4843e+06
3.48456e+06
3.49942e+06
3.50806e+06
3.4984e+06
3.50825e+06
3.49756e+06
3.49435e+06
3.48055e+06
3.47024e+06
3.46141e+06
3.45823e+06
3.45788e+06
3.46153e+06
3.46261e+06
3.45764e+06
3.45046e+06
3.45245e+06
3.46068e+06
3.46534e+06
3.4693e+06
3.47194e+06
3.474e+06
3.4755e+06
3.47667e+06
3.4776e+06
3.47835e+06
3.47898e+06
3.47953e+06
3.48002e+06
3.48046e+06
3.48087e+06
3.48126e+06
3.48164e+06
3.48199e+06
3.48234e+06
3.48267e+06
3.48299e+06
3.4833e+06
3.4836e+06
3.48389e+06
3.48417e+06
3.48444e+06
3.49056e+06
3.50097e+06
3.48979e+06
3.501e+06
3.48928e+06
3.4848e+06
3.47261e+06
3.46361e+06
3.457e+06
3.45571e+06
3.45527e+06
3.45806e+06
3.45687e+06
3.45435e+06
3.44634e+06
3.44907e+06
3.45688e+06
3.46215e+06
3.46648e+06
3.46959e+06
3.47203e+06
3.47388e+06
3.47534e+06
3.4765e+06
3.47745e+06
3.47823e+06
3.47891e+06
3.4795e+06
3.48002e+06
3.4805e+06
3.48095e+06
3.48136e+06
3.48175e+06
3.48212e+06
3.48248e+06
3.48282e+06
3.48314e+06
3.48346e+06
3.48376e+06
3.48404e+06
3.48432e+06
3.48544e+06
3.49007e+06
3.48428e+06
3.49073e+06
3.48267e+06
3.47618e+06
3.46708e+06
3.45944e+06
3.45494e+06
3.45473e+06
3.45428e+06
3.45623e+06
3.45407e+06
3.45259e+06
3.44367e+06
3.44671e+06
3.45397e+06
3.45966e+06
3.46416e+06
3.4676e+06
3.47032e+06
3.47244e+06
3.47413e+06
3.47549e+06
3.4766e+06
3.47753e+06
3.47832e+06
3.479e+06
3.4796e+06
3.48014e+06
3.48063e+06
3.48109e+06
3.48151e+06
3.48191e+06
3.48229e+06
3.48265e+06
3.48299e+06
3.48331e+06
3.48362e+06
3.48392e+06
3.4842e+06
3.45344e+06
3.45356e+06
3.45319e+06
3.45457e+06
3.45252e+06
3.45122e+06
3.44192e+06
3.44492e+06
3.45176e+06
3.45768e+06
3.46226e+06
3.46592e+06
3.46884e+06
3.47116e+06
3.47304e+06
3.47456e+06
3.47582e+06
3.47686e+06
3.47775e+06
3.47852e+06
3.47919e+06
3.47979e+06
3.48033e+06
3.48082e+06
3.48128e+06
3.4817e+06
3.4821e+06
3.48248e+06
3.48283e+06
3.48317e+06
3.48349e+06
3.4838e+06
3.48409e+06
3.48227e+06
3.48331e+06
3.48418e+06
3.48492e+06
3.48555e+06
3.4861e+06
3.48658e+06
3.487e+06
3.48739e+06
3.48773e+06
3.48804e+06
3.48833e+06
3.4886e+06
3.48884e+06
3.48907e+06
3.48929e+06
3.48949e+06
3.48968e+06
3.48986e+06
3.49002e+06
3.47783e+06
3.47964e+06
3.48114e+06
3.48235e+06
3.48337e+06
3.48422e+06
3.48494e+06
3.48556e+06
3.4861e+06
3.48658e+06
3.487e+06
3.48738e+06
3.48772e+06
3.48803e+06
3.48831e+06
3.48857e+06
3.48881e+06
3.48904e+06
3.48925e+06
3.48945e+06
3.48963e+06
3.48981e+06
3.42749e+06
3.43447e+06
3.42827e+06
3.43305e+06
3.42256e+06
3.41746e+06
3.41504e+06
3.41136e+06
3.3986e+06
3.41494e+06
3.45323e+06
3.46126e+06
3.46629e+06
3.47072e+06
3.47386e+06
3.47649e+06
3.47851e+06
3.48018e+06
3.48153e+06
3.48266e+06
3.4836e+06
3.4844e+06
3.48508e+06
3.48567e+06
3.48619e+06
3.48664e+06
3.48705e+06
3.48741e+06
3.48774e+06
3.48804e+06
3.48831e+06
3.48856e+06
3.4888e+06
3.48902e+06
3.48922e+06
3.48942e+06
3.4896e+06
3.43419e+06
3.43835e+06
3.43495e+06
3.43599e+06
3.428e+06
3.42146e+06
3.42103e+06
3.41604e+06
3.40214e+06
3.41249e+06
3.42753e+06
3.44252e+06
3.45142e+06
3.45944e+06
3.46478e+06
3.46935e+06
3.47269e+06
3.47547e+06
3.47762e+06
3.47941e+06
3.48086e+06
3.48206e+06
3.48307e+06
3.48393e+06
3.48466e+06
3.48529e+06
3.48583e+06
3.48631e+06
3.48674e+06
3.48712e+06
3.48746e+06
3.48777e+06
3.48806e+06
3.48832e+06
3.48857e+06
3.48879e+06
3.489e+06
3.4892e+06
3.48939e+06
3.44648e+06
3.44381e+06
3.44688e+06
3.44157e+06
3.4385e+06
3.43037e+06
3.43274e+06
3.42603e+06
3.4108e+06
3.41353e+06
3.42859e+06
3.44185e+06
3.45093e+06
3.45854e+06
3.46399e+06
3.46853e+06
3.47195e+06
3.47477e+06
3.477e+06
3.47884e+06
3.48034e+06
3.4816e+06
3.48265e+06
3.48354e+06
3.4843e+06
3.48495e+06
3.48552e+06
3.48602e+06
3.48646e+06
3.48685e+06
3.48721e+06
3.48753e+06
3.48782e+06
3.48809e+06
3.48834e+06
3.48857e+06
3.48879e+06
3.48899e+06
3.48918e+06
3.48936e+06
3.46228e+06
3.45098e+06
3.46205e+06
3.4498e+06
3.45261e+06
3.44288e+06
3.4479e+06
3.4395e+06
3.42286e+06
3.41679e+06
3.43127e+06
3.44252e+06
3.45151e+06
3.45849e+06
3.46388e+06
3.46823e+06
3.47164e+06
3.47441e+06
3.47665e+06
3.47849e+06
3.48e+06
3.48127e+06
3.48233e+06
3.48324e+06
3.48401e+06
3.48467e+06
3.48525e+06
3.48576e+06
3.48621e+06
3.48661e+06
3.48697e+06
3.4873e+06
3.48759e+06
3.48787e+06
3.48812e+06
3.48836e+06
3.48858e+06
3.48879e+06
3.48898e+06
3.48917e+06
3.47887e+06
3.45959e+06
3.47788e+06
3.46001e+06
3.46797e+06
3.45742e+06
3.46427e+06
3.45501e+06
3.43714e+06
3.42193e+06
3.43527e+06
3.44433e+06
3.45299e+06
3.45919e+06
3.46439e+06
3.46844e+06
3.47173e+06
3.47439e+06
3.47656e+06
3.47835e+06
3.47984e+06
3.48108e+06
3.48213e+06
3.48303e+06
3.48379e+06
3.48445e+06
3.48503e+06
3.48554e+06
3.48599e+06
3.48639e+06
3.48675e+06
3.48708e+06
3.48738e+06
3.48766e+06
3.48792e+06
3.48816e+06
3.48838e+06
3.48859e+06
3.48879e+06
3.48898e+06
3.48915e+06
3.49395e+06
3.46953e+06
3.49227e+06
3.4715e+06
3.4828e+06
3.47237e+06
3.48013e+06
3.47119e+06
3.45223e+06
3.42839e+06
3.43988e+06
3.44702e+06
3.45515e+06
3.46054e+06
3.46543e+06
3.46912e+06
3.47221e+06
3.47469e+06
3.47674e+06
3.47843e+06
3.47985e+06
3.48104e+06
3.48205e+06
3.48291e+06
3.48365e+06
3.48429e+06
3.48486e+06
3.48535e+06
3.48579e+06
3.48619e+06
3.48655e+06
3.48688e+06
3.48718e+06
3.48746e+06
3.48772e+06
3.48796e+06
3.48819e+06
3.4884e+06
3.4886e+06
3.48879e+06
3.48896e+06
3.50492e+06
3.48032e+06
3.50318e+06
3.48345e+06
3.4953e+06
3.48621e+06
3.49382e+06
3.48586e+06
3.46652e+06
3.43542e+06
3.44454e+06
3.45032e+06
3.45776e+06
3.46244e+06
3.46692e+06
3.47021e+06
3.47304e+06
3.47528e+06
3.47717e+06
3.47872e+06
3.48003e+06
3.48113e+06
3.48207e+06
3.48288e+06
3.48358e+06
3.48419e+06
3.48473e+06
3.48521e+06
3.48563e+06
3.48602e+06
3.48637e+06
3.48669e+06
3.48699e+06
3.48727e+06
3.48752e+06
3.48777e+06
3.488e+06
3.48821e+06
3.48841e+06
3.4886e+06
3.48878e+06
3.51169e+06
3.49247e+06
3.50986e+06
3.49551e+06
3.50454e+06
3.49764e+06
3.50411e+06
3.49705e+06
3.47865e+06
3.44283e+06
3.44888e+06
3.45416e+06
3.46073e+06
3.46485e+06
3.46882e+06
3.4717e+06
3.4742e+06
3.47617e+06
3.47783e+06
3.4792e+06
3.48037e+06
3.48136e+06
3.48221e+06
3.48294e+06
3.48358e+06
3.48415e+06
3.48465e+06
3.4851e+06
3.4855e+06
3.48587e+06
3.48621e+06
3.48652e+06
3.48681e+06
3.48709e+06
3.48734e+06
3.48758e+06
3.48781e+06
3.48803e+06
3.48823e+06
3.48842e+06
3.4886e+06
3.51463e+06
3.50603e+06
3.51326e+06
3.50793e+06
3.51086e+06
3.50701e+06
3.51118e+06
3.50472e+06
3.48853e+06
3.45125e+06
3.45298e+06
3.45868e+06
3.46404e+06
3.46779e+06
3.47111e+06
3.47357e+06
3.47567e+06
3.47732e+06
3.47872e+06
3.47988e+06
3.48086e+06
3.48171e+06
3.48244e+06
3.48308e+06
3.48365e+06
3.48416e+06
3.48461e+06
3.48502e+06
3.4854e+06
3.48574e+06
3.48607e+06
3.48637e+06
3.48665e+06
3.48691e+06
3.48717e+06
3.4874e+06
3.48763e+06
3.48785e+06
3.48805e+06
3.48825e+06
3.48843e+06
3.51726e+06
3.52141e+06
3.51674e+06
3.52112e+06
3.5168e+06
3.51624e+06
3.51707e+06
3.51199e+06
3.49823e+06
3.46236e+06
3.45759e+06
3.46426e+06
3.46788e+06
3.47133e+06
3.47381e+06
3.47583e+06
3.47743e+06
3.47873e+06
3.47982e+06
3.48072e+06
3.4815e+06
3.48218e+06
3.48278e+06
3.48331e+06
3.48378e+06
3.48422e+06
3.48461e+06
3.48498e+06
3.48532e+06
3.48564e+06
3.48594e+06
3.48622e+06
3.48649e+06
3.48675e+06
3.487e+06
3.48723e+06
3.48746e+06
3.48767e+06
3.48788e+06
3.48807e+06
3.48826e+06
3.52404e+06
3.5379e+06
3.52445e+06
3.53521e+06
3.52593e+06
3.52772e+06
3.52555e+06
3.52282e+06
3.51138e+06
3.4776e+06
3.46382e+06
3.47128e+06
3.47245e+06
3.47553e+06
3.47695e+06
3.47846e+06
3.47948e+06
3.48038e+06
3.48111e+06
3.48173e+06
3.48227e+06
3.48276e+06
3.4832e+06
3.4836e+06
3.48397e+06
3.48432e+06
3.48465e+06
3.48497e+06
3.48526e+06
3.48555e+06
3.48583e+06
3.48609e+06
3.48635e+06
3.4866e+06
3.48684e+06
3.48707e+06
3.48729e+06
3.4875e+06
3.48771e+06
3.4879e+06
3.48809e+06
3.53729e+06
3.55393e+06
3.53871e+06
3.54984e+06
3.54039e+06
3.54274e+06
3.53937e+06
3.53934e+06
3.52985e+06
3.49699e+06
3.47247e+06
3.47966e+06
3.4779e+06
3.48038e+06
3.48052e+06
3.48144e+06
3.4818e+06
3.48225e+06
3.48257e+06
3.48288e+06
3.48316e+06
3.48343e+06
3.48369e+06
3.48395e+06
3.48421e+06
3.48447e+06
3.48472e+06
3.48498e+06
3.48523e+06
3.48548e+06
3.48573e+06
3.48597e+06
3.48622e+06
3.48645e+06
3.48668e+06
3.48691e+06
3.48713e+06
3.48734e+06
3.48754e+06
3.48774e+06
3.48792e+06
3.55631e+06
3.56829e+06
3.55797e+06
3.56434e+06
3.55913e+06
3.56058e+06
3.55811e+06
3.56047e+06
3.55245e+06
3.51946e+06
3.48354e+06
3.48895e+06
3.48417e+06
3.48571e+06
3.48448e+06
3.48471e+06
3.48435e+06
3.48431e+06
3.48418e+06
3.48415e+06
3.48414e+06
3.48418e+06
3.48425e+06
3.48436e+06
3.48449e+06
3.48465e+06
3.48482e+06
3.48501e+06
3.48521e+06
3.48543e+06
3.48564e+06
3.48586e+06
3.48609e+06
3.48631e+06
3.48653e+06
3.48675e+06
3.48697e+06
3.48718e+06
3.48738e+06
3.48757e+06
3.48776e+06
3.57652e+06
3.58064e+06
3.57794e+06
3.57847e+06
3.57831e+06
3.5787e+06
3.57803e+06
3.58224e+06
3.57527e+06
3.54293e+06
3.49618e+06
3.49838e+06
3.49103e+06
3.49129e+06
3.48876e+06
3.4882e+06
3.4871e+06
3.48652e+06
3.48593e+06
3.48553e+06
3.48521e+06
3.485e+06
3.48487e+06
3.48481e+06
3.4848e+06
3.48485e+06
3.48494e+06
3.48506e+06
3.48521e+06
3.48538e+06
3.48557e+06
3.48576e+06
3.48597e+06
3.48618e+06
3.48639e+06
3.4866e+06
3.48681e+06
3.48702e+06
3.48722e+06
3.48741e+06
3.4876e+06
3.596e+06
3.59225e+06
3.59479e+06
3.59118e+06
3.59437e+06
3.59386e+06
3.59409e+06
3.59958e+06
3.59245e+06
3.56395e+06
3.50908e+06
3.507e+06
3.49818e+06
3.49689e+06
3.49327e+06
3.49183e+06
3.49e+06
3.48885e+06
3.48777e+06
3.48698e+06
3.48634e+06
3.48587e+06
3.48552e+06
3.48528e+06
3.48514e+06
3.48508e+06
3.48507e+06
3.48512e+06
3.48522e+06
3.48534e+06
3.48549e+06
3.48566e+06
3.48585e+06
3.48605e+06
3.48625e+06
3.48645e+06
3.48666e+06
3.48686e+06
3.48706e+06
3.48726e+06
3.48744e+06
3.60925e+06
3.60134e+06
3.60753e+06
3.60176e+06
3.6064e+06
3.60451e+06
3.60427e+06
3.60963e+06
3.60154e+06
3.57984e+06
3.52227e+06
3.51433e+06
3.50555e+06
3.50238e+06
3.49798e+06
3.49555e+06
3.49303e+06
3.49126e+06
3.48969e+06
3.48849e+06
3.48752e+06
3.48677e+06
3.4862e+06
3.48578e+06
3.48549e+06
3.48531e+06
3.48521e+06
3.48519e+06
3.48523e+06
3.48531e+06
3.48543e+06
3.48557e+06
3.48574e+06
3.48592e+06
3.48611e+06
3.48631e+06
3.48651e+06
3.48671e+06
3.48691e+06
3.4871e+06
3.48729e+06
3.6218e+06
3.6104e+06
3.61914e+06
3.61108e+06
3.61631e+06
3.61221e+06
3.61143e+06
3.61415e+06
3.60685e+06
3.59146e+06
3.53803e+06
3.52084e+06
3.51354e+06
3.50786e+06
3.50295e+06
3.49937e+06
3.49619e+06
3.49375e+06
3.49167e+06
3.49004e+06
3.48872e+06
3.48768e+06
3.48688e+06
3.48628e+06
3.48584e+06
3.48554e+06
3.48536e+06
3.48526e+06
3.48524e+06
3.48527e+06
3.48536e+06
3.48548e+06
3.48562e+06
3.48579e+06
3.48597e+06
3.48616e+06
3.48636e+06
3.48656e+06
3.48675e+06
3.48695e+06
3.48714e+06
3.63528e+06
3.61959e+06
3.63207e+06
3.62092e+06
3.6269e+06
3.62051e+06
3.62024e+06
3.61879e+06
3.6154e+06
3.60404e+06
3.55807e+06
3.52793e+06
3.52257e+06
3.51359e+06
3.50826e+06
3.50332e+06
3.49947e+06
3.49629e+06
3.49369e+06
3.4916e+06
3.48992e+06
3.48859e+06
3.48756e+06
3.48677e+06
3.48618e+06
3.48577e+06
3.48549e+06
3.48532e+06
3.48524e+06
3.48524e+06
3.48529e+06
3.48538e+06
3.48551e+06
3.48567e+06
3.48584e+06
3.48602e+06
3.48621e+06
3.48641e+06
3.4866e+06
3.4868e+06
3.48699e+06
3.65074e+06
3.63051e+06
3.64677e+06
3.63249e+06
3.63937e+06
3.63188e+06
3.63299e+06
3.62881e+06
3.63063e+06
3.6212e+06
3.58124e+06
3.5369e+06
3.53238e+06
3.51978e+06