/*--------------------------------*- C++ -*----------------------------------*\
| =========                 |                                                 |
| \\      /  F ield         | OpenFOAM: The Open Source CFD Toolbox           |
|  \\    /   O peration     | Version:  v2012                                 |
|   \\  /    A nd           | Website:  www.openfoam.com                      |
|    \\/     M anipulation  |                                                 |
\*---------------------------------------------------------------------------*/
FoamFile
{
    version     2.0;
    format      ascii;
    class       volScalarField;
    location    "0.65";
    object      p_rgh;
}
// * * * * * * * * * * * * * * * * * * * * * * * * * * * * * * * * * * * * * //

dimensions      [1 -1 -2 0 0 0 0];


internalField   nonuniform List<scalar> 
3332
(
3.49819e+06
3.4981e+06
3.49786e+06
3.49805e+06
3.49788e+06
3.49832e+06
3.49847e+06
3.49846e+06
3.49892e+06
3.49799e+06
3.49743e+06
3.49765e+06
3.49792e+06
3.49821e+06
3.49853e+06
3.4986e+06
3.49859e+06
3.49862e+06
3.49869e+06
3.49864e+06
3.49866e+06
3.4987e+06
3.49872e+06
3.49867e+06
3.49809e+06
3.49796e+06
3.49799e+06
3.49801e+06
3.49815e+06
3.49837e+06
3.49851e+06
3.49857e+06
3.49859e+06
3.49863e+06
3.49857e+06
3.4986e+06
3.49864e+06
3.49867e+06
3.49873e+06
3.49818e+06
3.49799e+06
3.49796e+06
3.49798e+06
3.49805e+06
3.4982e+06
3.49833e+06
3.49844e+06
3.49852e+06
3.49858e+06
3.4985e+06
3.49853e+06
3.49857e+06
3.49859e+06
3.49859e+06
3.49811e+06
3.49806e+06
3.49801e+06
3.49801e+06
3.49799e+06
3.49806e+06
3.4982e+06
3.49832e+06
3.49842e+06
3.4985e+06
3.49843e+06
3.49846e+06
3.4985e+06
3.49853e+06
3.49813e+06
3.4979e+06
3.49776e+06
3.49784e+06
3.49784e+06
3.49791e+06
3.49798e+06
3.49812e+06
3.4982e+06
3.4983e+06
3.49839e+06
3.49833e+06
3.49837e+06
3.49841e+06
3.49844e+06
3.4979e+06
3.49777e+06
3.49775e+06
3.49785e+06
3.49785e+06
3.49789e+06
3.4979e+06
3.49802e+06
3.49808e+06
3.49817e+06
3.49827e+06
3.49821e+06
3.49826e+06
3.49831e+06
3.49835e+06
3.49796e+06
3.49768e+06
3.49765e+06
3.49762e+06
3.49765e+06
3.49771e+06
3.49773e+06
3.49787e+06
3.49793e+06
3.49803e+06
3.49813e+06
3.49808e+06
3.49814e+06
3.49818e+06
3.49824e+06
3.49765e+06
3.49751e+06
3.49765e+06
3.4976e+06
3.49763e+06
3.49766e+06
3.49763e+06
3.49777e+06
3.49783e+06
3.49791e+06
3.49799e+06
3.49795e+06
3.49801e+06
3.49806e+06
3.49813e+06
3.49807e+06
3.49763e+06
3.49754e+06
3.49751e+06
3.49744e+06
3.49747e+06
3.49745e+06
3.49743e+06
3.49748e+06
3.49757e+06
3.49767e+06
3.49776e+06
3.49784e+06
3.49791e+06
3.49799e+06
3.49772e+06
3.49746e+06
3.49759e+06
3.49755e+06
3.49748e+06
3.49748e+06
3.49739e+06
3.49735e+06
3.49741e+06
3.49747e+06
3.49754e+06
3.49764e+06
3.49771e+06
3.49778e+06
3.49786e+06
3.49763e+06
3.49727e+06
3.49738e+06
3.4972e+06
3.49716e+06
3.49718e+06
3.49711e+06
3.49707e+06
3.49713e+06
3.49723e+06
3.49731e+06
3.49743e+06
3.49753e+06
3.49761e+06
3.49771e+06
3.49725e+06
3.49733e+06
3.49767e+06
3.49747e+06
3.49734e+06
3.49732e+06
3.49715e+06
3.49707e+06
3.49708e+06
3.49715e+06
3.49721e+06
3.49732e+06
3.49742e+06
3.49751e+06
3.4976e+06
3.49704e+06
3.497e+06
3.49672e+06
3.49678e+06
3.49673e+06
3.49668e+06
3.49658e+06
3.49673e+06
3.49673e+06
3.49683e+06
3.49694e+06
3.49706e+06
3.49721e+06
3.49731e+06
3.49743e+06
3.49671e+06
3.49724e+06
3.49731e+06
3.49723e+06
3.49705e+06
3.49693e+06
3.49675e+06
3.49686e+06
3.4968e+06
3.49687e+06
3.49696e+06
3.49704e+06
3.49716e+06
3.49724e+06
3.49733e+06
3.49635e+06
3.49648e+06
3.49647e+06
3.49624e+06
3.4961e+06
3.49616e+06
3.49608e+06
3.49624e+06
3.49625e+06
3.49643e+06
3.49662e+06
3.4967e+06
3.49686e+06
3.49696e+06
3.49707e+06
3.49604e+06
3.49679e+06
3.49727e+06
3.49699e+06
3.49685e+06
3.49679e+06
3.49659e+06
3.49663e+06
3.49657e+06
3.49669e+06
3.49682e+06
3.49679e+06
3.49688e+06
3.49688e+06
3.49694e+06
3.49973e+06
3.4967e+06
3.49604e+06
3.49568e+06
3.49548e+06
3.4954e+06
3.49529e+06
3.49552e+06
3.49557e+06
3.49576e+06
3.49607e+06
3.49595e+06
3.49611e+06
3.49627e+06
3.49643e+06
3.4999e+06
3.49751e+06
3.49751e+06
3.49719e+06
3.49701e+06
3.49674e+06
3.49643e+06
3.49644e+06
3.49632e+06
3.49635e+06
3.49653e+06
3.49621e+06
3.49624e+06
3.49627e+06
3.49634e+06
3.49795e+06
3.49488e+06
3.49487e+06
3.49438e+06
3.4943e+06
3.49427e+06
3.49424e+06
3.49446e+06
3.49457e+06
3.49488e+06
3.49534e+06
3.49518e+06
3.49542e+06
3.4956e+06
3.4958e+06
3.4989e+06
3.49816e+06
3.49901e+06
3.49811e+06
3.49748e+06
3.49702e+06
3.4965e+06
3.49635e+06
3.4961e+06
3.49606e+06
3.49621e+06
3.49577e+06
3.49579e+06
3.49577e+06
3.49584e+06
3.49481e+06
3.49684e+06
3.49396e+06
3.49271e+06
3.49216e+06
3.49207e+06
3.49203e+06
3.4925e+06
3.49269e+06
3.49322e+06
3.49389e+06
3.49389e+06
3.49432e+06
3.49461e+06
3.49493e+06
3.49825e+06
3.50305e+06
3.50134e+06
3.49936e+06
3.498e+06
3.49711e+06
3.49636e+06
3.49619e+06
3.49577e+06
3.49564e+06
3.49573e+06
3.49519e+06
3.49516e+06
3.49507e+06
3.49511e+06
3.4933e+06
3.49286e+06
3.49067e+06
3.48898e+06
3.48782e+06
3.48805e+06
3.48813e+06
3.48892e+06
3.48952e+06
3.49039e+06
3.49144e+06
3.49176e+06
3.49249e+06
3.493e+06
3.49353e+06
3.50069e+06
3.5015e+06
3.50148e+06
3.49948e+06
3.49794e+06
3.4976e+06
3.4968e+06
3.49643e+06
3.49597e+06
3.4955e+06
3.49532e+06
3.49458e+06
3.49442e+06
3.49416e+06
3.49415e+06
3.46668e+06
3.47988e+06
3.48025e+06
3.47882e+06
3.47885e+06
3.47958e+06
3.48078e+06
3.48199e+06
3.48352e+06
3.4849e+06
3.48684e+06
3.48796e+06
3.48942e+06
3.49041e+06
3.49142e+06
3.48187e+06
3.49503e+06
3.49801e+06
3.49757e+06
3.49809e+06
3.49786e+06
3.49743e+06
3.49646e+06
3.49609e+06
3.49496e+06
3.49471e+06
3.49376e+06
3.49352e+06
3.47106e+06
3.45793e+06
3.45672e+06
3.45898e+06
3.46283e+06
3.46393e+06
3.46782e+06
3.4699e+06
3.47391e+06
3.47627e+06
3.48e+06
3.48195e+06
3.48471e+06
3.49545e+06
3.48438e+06
3.49125e+06
3.49496e+06
3.49999e+06
3.49906e+06
3.49982e+06
3.49765e+06
3.49789e+06
3.49532e+06
3.49512e+06
3.49277e+06
3.49263e+06
3.28166e+06
3.37491e+06
3.41232e+06
3.41387e+06
3.42766e+06
3.43162e+06
3.44287e+06
3.44699e+06
3.45698e+06
3.46045e+06
3.46861e+06
3.47093e+06
3.47684e+06
3.36348e+06
3.45971e+06
3.48473e+06
3.49471e+06
3.50738e+06
3.50981e+06
3.51034e+06
3.5072e+06
3.50569e+06
3.49873e+06
3.49736e+06
3.49086e+06
3.49143e+06
3.25953e+06
3.25899e+06
3.31077e+06
3.31757e+06
3.34661e+06
3.36691e+06
3.38917e+06
3.402e+06
3.42146e+06
3.42908e+06
3.44547e+06
3.44887e+06
3.46326e+06
3.60691e+06
3.50975e+06
3.45242e+06
3.4546e+06
3.50049e+06
3.51952e+06
3.52531e+06
3.52922e+06
3.51481e+06
3.50096e+06
3.50027e+06
3.48705e+06
3.48959e+06
3.46057e+06
3.55895e+06
3.36211e+06
3.16084e+06
3.20591e+06
3.26546e+06
3.28039e+06
3.32306e+06
3.3283e+06
3.3534e+06
3.3939e+06
3.40517e+06
3.44086e+06
3.62236e+06
3.36886e+06
3.26759e+06
3.48252e+06
3.6702e+06
3.70589e+06
3.70959e+06
3.69477e+06
3.67725e+06
3.60975e+06
3.57726e+06
3.48548e+06
3.49394e+06
3.99985e+06
3.24267e+06
2.71571e+06
2.27031e+06
2.66402e+06
2.67859e+06
2.8561e+06
2.91414e+06
3.02317e+06
2.95605e+06
3.25534e+06
3.26126e+06
3.39434e+06
4.00109e+06
4.00088e+06
4.00069e+06
4.00058e+06
4.00055e+06
4.00045e+06
4.00024e+06
4e+06
3.99777e+06
3.99928e+06
3.82663e+06
3.3654e+06
3.51255e+06
4.00116e+06
4.00096e+06
4.00084e+06
4.00074e+06
4.0007e+06
4.00068e+06
4.00067e+06
4.00071e+06
4.00079e+06
4.00097e+06
4.00121e+06
4.00109e+06
4.00102e+06
4.00098e+06
4.00095e+06
4.00096e+06
4.00099e+06
4.00106e+06
4.00117e+06
4.00134e+06
4.00124e+06
4.00112e+06
4.00105e+06
4.00102e+06
4.00101e+06
4.00103e+06
4.00108e+06
4.00115e+06
4.00125e+06
4.00138e+06
4.00128e+06
4.00119e+06
4.00114e+06
4.00112e+06
4.00111e+06
4.00113e+06
4.00118e+06
4.00126e+06
4.00136e+06
4.02141e+06
4.05155e+06
4.04943e+06
4.04684e+06
4.04579e+06
4.04749e+06
4.05352e+06
4.0634e+06
4.07515e+06
4.08533e+06
4.08881e+06
4.17004e+06
4.17183e+06
4.17102e+06
4.17128e+06
4.17008e+06
4.1695e+06
4.16862e+06
4.16812e+06
4.16717e+06
4.16839e+06
4.23064e+06
4.23588e+06
4.23557e+06
4.23865e+06
4.23898e+06
4.2389e+06
4.23783e+06
4.23504e+06
4.23325e+06
4.23073e+06
4.34469e+06
4.35507e+06
4.35519e+06
4.3581e+06
4.35614e+06
4.35232e+06
4.34596e+06
4.33737e+06
4.32955e+06
4.32315e+06
4.35569e+06
4.40222e+06
4.41989e+06
4.43666e+06
4.43927e+06
4.43354e+06
4.42111e+06
4.39594e+06
4.37337e+06
4.34082e+06
4.4498e+06
4.50555e+06
4.55397e+06
4.56965e+06
4.57078e+06
4.56087e+06
4.54335e+06
4.5139e+06
4.48149e+06
4.40622e+06
4.489e+06
4.4991e+06
4.50195e+06
4.50166e+06
4.50156e+06
4.5013e+06
4.50106e+06
4.50055e+06
4.50108e+06
4.49068e+06
4.49951e+06
4.49921e+06
4.49894e+06
4.49888e+06
4.49887e+06
4.49895e+06
4.49911e+06
4.49928e+06
4.4995e+06
4.49971e+06
4.49945e+06
4.50002e+06
4.50025e+06
4.5003e+06
4.50031e+06
4.50011e+06
4.50002e+06
4.49958e+06
4.4996e+06
4.49869e+06
4.49947e+06
4.49937e+06
4.49933e+06
4.4993e+06
4.49932e+06
4.49932e+06
4.49937e+06
4.49939e+06
4.49944e+06
4.49949e+06
4.49988e+06
4.49991e+06
4.49988e+06
4.49986e+06
4.49986e+06
4.49975e+06
4.49973e+06
4.49959e+06
4.4996e+06
4.49949e+06
4.49957e+06
4.49953e+06
4.49947e+06
4.49945e+06
4.49948e+06
4.49945e+06
4.49949e+06
4.49948e+06
4.4995e+06
4.49951e+06
4.49986e+06
4.4998e+06
4.49976e+06
4.49971e+06
4.49971e+06
4.49965e+06
4.49966e+06
4.49961e+06
4.49961e+06
4.4996e+06
4.49969e+06
4.49961e+06
4.49956e+06
4.49951e+06
4.49953e+06
4.49951e+06
4.49954e+06
4.49954e+06
4.49954e+06
4.49955e+06
4.49977e+06
4.49972e+06
4.49971e+06
4.49963e+06
4.49966e+06
4.49962e+06
4.49962e+06
4.4996e+06
4.49961e+06
4.4996e+06
4.49971e+06
4.49965e+06
4.49962e+06
4.49953e+06
4.49956e+06
4.49954e+06
4.49956e+06
4.49956e+06
4.49956e+06
4.49956e+06
4.49983e+06
4.49974e+06
4.4997e+06
4.4996e+06
4.49962e+06
4.49959e+06
4.49961e+06
4.4996e+06
4.4996e+06
4.4996e+06
4.4998e+06
4.49972e+06
4.49966e+06
4.49956e+06
4.49958e+06
4.49955e+06
4.49957e+06
4.49957e+06
4.49957e+06
4.49957e+06
4.49963e+06
4.49977e+06
4.49967e+06
4.49959e+06
4.49961e+06
4.49957e+06
4.49959e+06
4.49959e+06
4.49959e+06
4.49959e+06
4.4996e+06
4.49972e+06
4.49961e+06
4.49954e+06
4.49957e+06
4.49955e+06
4.49957e+06
4.49957e+06
4.49957e+06
4.49957e+06
4.49965e+06
4.49967e+06
4.49964e+06
4.4996e+06
4.49959e+06
4.49957e+06
4.49958e+06
4.49958e+06
4.49959e+06
4.49959e+06
4.49967e+06
4.49966e+06
4.4996e+06
4.49957e+06
4.49956e+06
4.49956e+06
4.49957e+06
4.49958e+06
4.49958e+06
4.49958e+06
4.49968e+06
4.49968e+06
4.49963e+06
4.4996e+06
4.49961e+06
4.4996e+06
4.4996e+06
4.4996e+06
4.4996e+06
4.4996e+06
4.49971e+06
4.49969e+06
4.49963e+06
4.4996e+06
4.49962e+06
4.49961e+06
4.49961e+06
4.49961e+06
4.49961e+06
4.49961e+06
4.49973e+06
4.4997e+06
4.49965e+06
4.49962e+06
4.49965e+06
4.49965e+06
4.49966e+06
4.49966e+06
4.49967e+06
4.49967e+06
4.49969e+06
4.49963e+06
4.4996e+06
4.49959e+06
4.49962e+06
4.49962e+06
4.49963e+06
4.49963e+06
4.49962e+06
4.49962e+06
4.49926e+06
4.49955e+06
4.49964e+06
4.49966e+06
4.49975e+06
4.49969e+06
4.49941e+06
4.49936e+06
4.4994e+06
4.4994e+06
4.49911e+06
4.49936e+06
4.49953e+06
4.49959e+06
4.4997e+06
4.49964e+06
4.49936e+06
4.49932e+06
4.49935e+06
4.49935e+06
4.49935e+06
4.4994e+06
4.49931e+06
4.49942e+06
4.49976e+06
4.49975e+06
4.49944e+06
4.49939e+06
4.49942e+06
4.49942e+06
4.49921e+06
4.49921e+06
4.4992e+06
4.49935e+06
4.49971e+06
4.49971e+06
4.49942e+06
4.49938e+06
4.4994e+06
4.49941e+06
4.49933e+06
4.49935e+06
4.49939e+06
4.49945e+06
4.49948e+06
4.49948e+06
4.49946e+06
4.49944e+06
4.49945e+06
4.49945e+06
4.49928e+06
4.49926e+06
4.49932e+06
4.49938e+06
4.4994e+06
4.4994e+06
4.4994e+06
4.4994e+06
4.4994e+06
4.4994e+06
4.49939e+06
4.49938e+06
4.49945e+06
4.49949e+06
4.49951e+06
4.49951e+06
4.4995e+06
4.49949e+06
4.49949e+06
4.49948e+06
4.49937e+06
4.49937e+06
4.4994e+06
4.49942e+06
4.49943e+06
4.49943e+06
4.49941e+06
4.49939e+06
4.49938e+06
4.49936e+06
4.4995e+06
4.49951e+06
4.49955e+06
4.49958e+06
4.4996e+06
4.4996e+06
4.49959e+06
4.49957e+06
4.49957e+06
4.49955e+06
4.49947e+06
4.49948e+06
4.4995e+06
4.49951e+06
4.49952e+06
4.4995e+06
4.49948e+06
4.49941e+06
4.49937e+06
4.49923e+06
4.49968e+06
4.4997e+06
4.49971e+06
4.49973e+06
4.49976e+06
4.49976e+06
4.49978e+06
4.49977e+06
4.49983e+06
4.49974e+06
4.49999e+06
4.49993e+06
4.49998e+06
4.49998e+06
4.49999e+06
4.49999e+06
4.5e+06
4.49967e+06
4.49968e+06
4.49968e+06
4.4997e+06
4.49973e+06
4.49974e+06
4.49977e+06
4.49977e+06
4.49982e+06
4.49976e+06
4.49992e+06
4.49992e+06
4.49997e+06
4.49997e+06
4.49999e+06
4.49999e+06
4.49999e+06
4.49982e+06
4.49982e+06
4.49982e+06
4.49986e+06
4.49989e+06
4.49986e+06
4.49988e+06
4.49989e+06
4.49992e+06
4.49991e+06
4.49997e+06
4.49996e+06
4.49998e+06
4.49998e+06
4.49999e+06
4.49999e+06
4.49999e+06
4.49981e+06
4.4998e+06
4.4998e+06
4.49984e+06
4.49987e+06
4.49985e+06
4.49987e+06
4.49988e+06
4.49991e+06
4.49991e+06
4.49995e+06
4.49995e+06
4.49997e+06
4.49998e+06
4.49999e+06
4.49999e+06
4.49999e+06
4.49991e+06
4.49989e+06
4.49989e+06
4.49992e+06
4.49995e+06
4.49993e+06
4.49994e+06
4.49995e+06
4.49996e+06
4.49996e+06
4.49998e+06
4.49998e+06
4.49998e+06
4.49999e+06
4.49999e+06
4.49999e+06
4.49999e+06
4.49989e+06
4.49989e+06
4.49989e+06
4.49993e+06
4.49995e+06
4.49992e+06
4.49993e+06
4.49994e+06
4.49995e+06
4.49996e+06
4.49997e+06
4.49997e+06
4.49998e+06
4.49998e+06
4.49999e+06
4.49999e+06
4.49999e+06
4.49994e+06
4.49994e+06
4.49994e+06
4.49994e+06
4.49995e+06
4.49996e+06
4.49997e+06
4.49997e+06
4.49998e+06
4.49998e+06
4.49998e+06
4.49999e+06
4.49999e+06
4.49999e+06
4.49999e+06
4.49999e+06
4.49999e+06
4.49992e+06
4.49994e+06
4.49994e+06
4.49995e+06
4.49996e+06
4.49996e+06
4.49996e+06
4.49997e+06
4.49997e+06
4.49998e+06
4.49998e+06
4.49998e+06
4.49999e+06
4.49999e+06
4.49999e+06
4.49999e+06
4.49999e+06
4.49998e+06
4.49998e+06
4.49998e+06
4.49998e+06
4.49998e+06
4.49998e+06
4.49998e+06
4.49998e+06
4.49999e+06
4.49999e+06
4.49999e+06
4.49999e+06
4.49999e+06
4.49999e+06
4.49999e+06
4.49999e+06
4.5e+06
4.49998e+06
4.49997e+06
4.49997e+06
4.49998e+06
4.49998e+06
4.49998e+06
4.49998e+06
4.49998e+06
4.49998e+06
4.49999e+06
4.49999e+06
4.49999e+06
4.49999e+06
4.49999e+06
4.49999e+06
4.49999e+06
4.5e+06
4.49999e+06
4.49999e+06
4.49999e+06
4.49999e+06
4.49999e+06
4.49999e+06
4.49999e+06
4.49999e+06
4.49999e+06
4.49999e+06
4.49999e+06
4.49999e+06
4.49999e+06
4.49999e+06
4.5e+06
4.5e+06
4.5e+06
4.5e+06
4.5e+06
4.49998e+06
4.49998e+06
4.49999e+06
4.49999e+06
4.49999e+06
4.49999e+06
4.49999e+06
4.49999e+06
4.49999e+06
4.49999e+06
4.49999e+06
4.49999e+06
4.49999e+06
4.49999e+06
4.5e+06
4.5e+06
4.5e+06
4.5e+06
4.5e+06
4.49999e+06
4.49999e+06
4.49999e+06
4.49999e+06
4.49999e+06
4.49999e+06
4.49999e+06
4.49999e+06
4.49999e+06
4.49999e+06
4.5e+06
4.5e+06
4.5e+06
4.5e+06
4.5e+06
4.5e+06
4.5e+06
4.5e+06
4.5e+06
4.49999e+06
4.49999e+06
4.49999e+06
4.49999e+06
4.49999e+06
4.49999e+06
4.49999e+06
4.49999e+06
4.49999e+06
4.49999e+06
4.5e+06
4.5e+06
4.5e+06
4.5e+06
4.5e+06
4.5e+06
4.5e+06
4.5e+06
4.5e+06
4.5e+06
4.5e+06
4.5e+06
4.5e+06
4.5e+06
4.5e+06
4.5e+06
4.5e+06
4.5e+06
4.5e+06
4.5e+06
4.5e+06
4.5e+06
4.5e+06
4.5e+06
4.5e+06
4.5e+06
4.5e+06
4.5e+06
4.5e+06
4.5e+06
4.5e+06
4.5e+06
4.5e+06
4.5e+06
4.5e+06
4.5e+06
4.5e+06
4.5e+06
4.5e+06
4.5e+06
4.5e+06
4.5e+06
4.5e+06
4.5e+06
4.5e+06
4.5e+06
4.5e+06
4.5e+06
4.5e+06
4.5e+06
4.5e+06
4.5e+06
4.5e+06
4.5e+06
4.5e+06
4.5e+06
4.5e+06
4.5e+06
4.5e+06
4.5e+06
4.5e+06
4.5e+06
4.5e+06
4.5e+06
4.5e+06
4.5e+06
4.5e+06
4.5e+06
4.5e+06
4.5e+06
4.5e+06
4.5e+06
4.5e+06
4.5e+06
4.5e+06
4.5e+06
4.5e+06
4.5e+06
4.5e+06
4.5e+06
4.5e+06
4.5e+06
4.5e+06
4.5e+06
4.5e+06
4.5e+06
4.5e+06
4.5e+06
4.5e+06
4.5e+06
4.5e+06
4.5e+06
4.5e+06
4.5e+06
4.5e+06
4.5e+06
4.5e+06
4.5e+06
4.5e+06
4.5e+06
4.5e+06
4.5e+06
4.5e+06
4.5e+06
4.5e+06
4.5e+06
4.5e+06
4.5e+06
4.5e+06
4.5e+06
4.5e+06
4.5e+06
4.5e+06
4.5e+06
4.5e+06
4.5e+06
4.5e+06
4.5e+06
4.5e+06
4.5e+06
4.5e+06
4.5e+06
4.5e+06
4.5e+06
4.5e+06
4.5e+06
4.5e+06
4.5e+06
4.5e+06
4.5e+06
4.5e+06
4.5e+06
4.5e+06
4.5e+06
4.5e+06
4.5e+06
4.5e+06
4.5e+06
4.5e+06
4.5e+06
4.5e+06
4.5e+06
4.5e+06
4.5e+06
4.5e+06
4.5e+06
4.5e+06
4.5e+06
4.5e+06
4.5e+06
4.5e+06
4.5e+06
4.5e+06
4.5e+06
4.5e+06
4.5e+06
4.5e+06
4.5e+06
4.5e+06
4.5e+06
4.5e+06
4.5e+06
4.5e+06
4.5e+06
4.5e+06
4.5e+06
4.5e+06
4.5e+06
4.5e+06
4.5e+06
4.5e+06
4.5e+06
4.5e+06
4.5e+06
4.5e+06
4.5e+06
4.5e+06
4.5e+06
4.5e+06
4.5e+06
4.5e+06
4.5e+06
4.5e+06
4.5e+06
4.5e+06
4.5e+06
4.5e+06
4.5e+06
4.5e+06
4.5e+06
4.5e+06
4.5e+06
4.5e+06
4.5e+06
4.5e+06
4.5e+06
4.5e+06
4.5e+06
4.5e+06
4.5e+06
4.5e+06
4.5e+06
4.5e+06
4.5e+06
4.5e+06
4.5e+06
4.5e+06
4.5e+06
4.5e+06
4.5e+06
4.5e+06
4.5e+06
4.5e+06
4.5e+06
4.5e+06
4.5e+06
4.5e+06
4.5e+06
4.5e+06
4.5e+06
4.5e+06
4.5e+06
4.5e+06
4.5e+06
4.5e+06
4.5e+06
4.5e+06
4.5e+06
4.5e+06
4.5e+06
4.5e+06
4.5e+06
4.5e+06
4.5e+06
4.5e+06
4.5e+06
4.5e+06
4.5e+06
4.5e+06
4.5e+06
4.5e+06
4.5e+06
4.5e+06
4.5e+06
4.5e+06
4.5e+06
4.5e+06
4.5e+06
4.5e+06
4.5e+06
4.5e+06
4.5e+06
4.5e+06
4.5e+06
4.5e+06
4.5e+06
4.5e+06
4.5e+06
4.5e+06
4.5e+06
4.5e+06
4.5e+06
4.5e+06
4.5e+06
4.5e+06
4.5e+06
4.5e+06
4.5e+06
4.5e+06
4.5e+06
4.5e+06
4.5e+06
4.5e+06
4.5e+06
4.5e+06
4.5e+06
4.5e+06
4.5e+06
4.5e+06
4.5e+06
4.5e+06
4.5e+06
4.5e+06
4.5e+06
4.5e+06
4.5e+06
4.5e+06
4.5e+06
4.5e+06
4.5e+06
4.5e+06
4.5e+06
4.5e+06
4.5e+06
4.5e+06
4.5e+06
4.5e+06
4.5e+06
4.5e+06
4.5e+06
4.5e+06
4.5e+06
4.5e+06
4.5e+06
4.5e+06
4.5e+06
4.5e+06
4.5e+06
4.5e+06
4.5e+06
4.5e+06
4.5e+06
4.5e+06
4.5e+06
4.5e+06
4.5e+06
4.5e+06
4.5e+06
4.5e+06
4.5e+06
4.5e+06
4.5e+06
4.5e+06
4.5e+06
4.5e+06
4.5e+06
4.5e+06
4.5e+06
4.5e+06
4.5e+06
4.5e+06
4.5e+06
4.5e+06
4.5e+06
4.5e+06
4.5e+06
4.5e+06
4.5e+06
4.5e+06
4.5e+06
4.5e+06
4.5e+06
4.5e+06
4.5e+06
4.5e+06
4.5e+06
4.5e+06
4.5e+06
4.5e+06
4.5e+06
4.5e+06
4.5e+06
4.5e+06
4.5e+06
4.5e+06
4.5e+06
4.5e+06
4.5e+06
4.5e+06
4.5e+06
4.5e+06
4.5e+06
4.5e+06
4.5e+06
4.5e+06
4.5e+06
4.5e+06
4.5e+06
4.5e+06
4.5e+06
4.5e+06
4.5e+06
4.5e+06
4.5e+06
4.5e+06
4.5e+06
4.5e+06
4.5e+06
4.5e+06
4.5e+06
4.5e+06
4.5e+06
4.5e+06
4.5e+06
4.5e+06
4.5e+06
4.5e+06
4.5e+06
4.5e+06
4.5e+06
4.5e+06
4.5e+06
4.5e+06
4.5e+06
4.5e+06
4.5e+06
4.5e+06
4.5e+06
4.5e+06
4.5e+06
4.5e+06
4.5e+06
4.5e+06
4.5e+06
4.5e+06
4.5e+06
4.5e+06
4.5e+06
4.5e+06
4.5e+06
4.5e+06
4.5e+06
4.5e+06
4.5e+06
4.5e+06
4.5e+06
4.5e+06
4.5e+06
4.5e+06
4.5e+06
4.5e+06
4.5e+06
4.5e+06
4.5e+06
4.5e+06
4.5e+06
4.5e+06
4.5e+06
4.5e+06
4.5e+06
4.5e+06
4.5e+06
4.5e+06
4.5e+06
4.5e+06
4.5e+06
4.5e+06
4.5e+06
4.5e+06
4.5e+06
4.5e+06
4.5e+06
4.5e+06
4.5e+06
4.5e+06
4.5e+06
4.5e+06
4.5e+06
4.5e+06
4.5e+06
4.5e+06
4.5e+06
4.5e+06
4.5e+06
4.5e+06
4.5e+06
4.5e+06
4.5e+06
4.5e+06
4.5e+06
4.5e+06
4.5e+06
4.5e+06
4.5e+06
4.5e+06
4.5e+06
4.5e+06
4.5e+06
4.5e+06
4.5e+06
4.5e+06
4.5e+06
4.5e+06
4.5e+06
4.5e+06
4.5e+06
4.5e+06
4.5e+06
4.5e+06
4.5e+06
4.5e+06
4.5e+06
4.5e+06
4.5e+06
4.5e+06
4.5e+06
4.5e+06
4.5e+06
4.5e+06
4.5e+06
4.5e+06
4.5e+06
4.5e+06
4.5e+06
4.5e+06
4.5e+06
4.5e+06
4.5e+06
4.5e+06
4.5e+06
4.5e+06
4.5e+06
4.5e+06
3.49819e+06
3.4981e+06
3.49786e+06
3.49805e+06
3.49788e+06
3.49832e+06
3.49847e+06
3.49846e+06
3.49892e+06
3.49799e+06
3.49743e+06
3.49765e+06
3.49792e+06
3.49821e+06
3.49853e+06
3.4986e+06
3.49859e+06
3.49862e+06
3.49869e+06
3.49864e+06
3.49866e+06
3.4987e+06
3.49872e+06
3.49867e+06
3.49809e+06
3.49796e+06
3.49799e+06
3.49801e+06
3.49815e+06
3.49837e+06
3.49851e+06
3.49857e+06
3.49859e+06
3.49863e+06
3.49857e+06
3.4986e+06
3.49864e+06
3.49867e+06
3.49873e+06
3.49818e+06
3.49799e+06
3.49796e+06
3.49798e+06
3.49805e+06
3.4982e+06
3.49833e+06
3.49844e+06
3.49852e+06
3.49858e+06
3.4985e+06
3.49853e+06
3.49857e+06
3.49859e+06
3.49859e+06
3.49811e+06
3.49806e+06
3.49801e+06
3.49801e+06
3.49799e+06
3.49806e+06
3.4982e+06
3.49832e+06
3.49842e+06
3.4985e+06
3.49843e+06
3.49846e+06
3.4985e+06
3.49852e+06
3.49813e+06
3.4979e+06
3.49776e+06
3.49784e+06
3.49784e+06
3.49791e+06
3.49798e+06
3.49812e+06
3.4982e+06
3.4983e+06
3.49839e+06
3.49833e+06
3.49837e+06
3.49841e+06
3.49844e+06
3.4979e+06
3.49777e+06
3.49775e+06
3.49785e+06
3.49785e+06
3.49789e+06
3.4979e+06
3.49802e+06
3.49808e+06
3.49817e+06
3.49827e+06
3.49821e+06
3.49826e+06
3.49831e+06
3.49835e+06
3.49796e+06
3.49768e+06
3.49765e+06
3.49762e+06
3.49765e+06
3.49771e+06
3.49773e+06
3.49787e+06
3.49793e+06
3.49803e+06
3.49813e+06
3.49808e+06
3.49814e+06
3.49818e+06
3.49824e+06
3.49765e+06
3.49751e+06
3.49765e+06
3.4976e+06
3.49763e+06
3.49766e+06
3.49763e+06
3.49777e+06
3.49783e+06
3.49791e+06
3.49799e+06
3.49795e+06
3.49801e+06
3.49806e+06
3.49813e+06
3.49807e+06
3.49763e+06
3.49754e+06
3.49751e+06
3.49744e+06
3.49747e+06
3.49745e+06
3.49743e+06
3.49748e+06
3.49757e+06
3.49767e+06
3.49776e+06
3.49784e+06
3.49791e+06
3.49799e+06
3.49772e+06
3.49746e+06
3.49759e+06
3.49755e+06
3.49748e+06
3.49748e+06
3.49739e+06
3.49735e+06
3.49741e+06
3.49747e+06
3.49754e+06
3.49764e+06
3.49771e+06
3.49778e+06
3.49786e+06
3.49763e+06
3.49727e+06
3.49738e+06
3.4972e+06
3.49716e+06
3.49718e+06
3.49711e+06
3.49707e+06
3.49713e+06
3.49723e+06
3.49731e+06
3.49743e+06
3.49753e+06
3.49761e+06
3.49771e+06
3.49725e+06
3.49733e+06
3.49767e+06
3.49747e+06
3.49734e+06
3.49732e+06
3.49715e+06
3.49707e+06
3.49708e+06
3.49715e+06
3.49721e+06
3.49732e+06
3.49742e+06
3.49751e+06
3.4976e+06
3.49704e+06
3.497e+06
3.49672e+06
3.49678e+06
3.49673e+06
3.49668e+06
3.49658e+06
3.49673e+06
3.49673e+06
3.49683e+06
3.49694e+06
3.49706e+06
3.49721e+06
3.49731e+06
3.49743e+06
3.49671e+06
3.49724e+06
3.49731e+06
3.49723e+06
3.49705e+06
3.49693e+06
3.49675e+06
3.49685e+06
3.4968e+06
3.49687e+06
3.49696e+06
3.49704e+06
3.49716e+06
3.49724e+06
3.49733e+06
3.49635e+06
3.49648e+06
3.49647e+06
3.49624e+06
3.4961e+06
3.49616e+06
3.49608e+06
3.49624e+06
3.49625e+06
3.49643e+06
3.49662e+06
3.4967e+06
3.49686e+06
3.49696e+06
3.49707e+06
3.49604e+06
3.49679e+06
3.49727e+06
3.49699e+06
3.49685e+06
3.49679e+06
3.49659e+06
3.49663e+06
3.49657e+06
3.49669e+06
3.49682e+06
3.49679e+06
3.49688e+06
3.49688e+06
3.49694e+06
3.49973e+06
3.4967e+06
3.49604e+06
3.49568e+06
3.49548e+06
3.4954e+06
3.49529e+06
3.49552e+06
3.49557e+06
3.49576e+06
3.49607e+06
3.49595e+06
3.49612e+06
3.49627e+06
3.49643e+06
3.4999e+06
3.49751e+06
3.49751e+06
3.49719e+06
3.49701e+06
3.49674e+06
3.49643e+06
3.49644e+06
3.49632e+06
3.49635e+06
3.49653e+06
3.49621e+06
3.49624e+06
3.49627e+06
3.49634e+06
3.49795e+06
3.49488e+06
3.49487e+06
3.49438e+06
3.4943e+06
3.49427e+06
3.49424e+06
3.49446e+06
3.49457e+06
3.49488e+06
3.49533e+06
3.49518e+06
3.49542e+06
3.4956e+06
3.49581e+06
3.4989e+06
3.49816e+06
3.49901e+06
3.49811e+06
3.49748e+06
3.49702e+06
3.4965e+06
3.49635e+06
3.4961e+06
3.49606e+06
3.49621e+06
3.49577e+06
3.49579e+06
3.49577e+06
3.49584e+06
3.49481e+06
3.49684e+06
3.49396e+06
3.49271e+06
3.49216e+06
3.49207e+06
3.49203e+06
3.4925e+06
3.49269e+06
3.49322e+06
3.49388e+06
3.49389e+06
3.49432e+06
3.49461e+06
3.49493e+06
3.49825e+06
3.50305e+06
3.50134e+06
3.49936e+06
3.498e+06
3.49711e+06
3.49636e+06
3.49619e+06
3.49577e+06
3.49564e+06
3.49573e+06
3.49519e+06
3.49516e+06
3.49507e+06
3.49511e+06
3.4933e+06
3.49286e+06
3.49067e+06
3.48898e+06
3.48782e+06
3.48805e+06
3.48813e+06
3.48892e+06
3.48952e+06
3.49039e+06
3.49144e+06
3.49176e+06
3.49249e+06
3.493e+06
3.49353e+06
3.50069e+06
3.5015e+06
3.50148e+06
3.49948e+06
3.49794e+06
3.4976e+06
3.4968e+06
3.49643e+06
3.49597e+06
3.4955e+06
3.49531e+06
3.49458e+06
3.49442e+06
3.49416e+06
3.49415e+06
3.46668e+06
3.47988e+06
3.48025e+06
3.47882e+06
3.47885e+06
3.47958e+06
3.48078e+06
3.48199e+06
3.48352e+06
3.48491e+06
3.48684e+06
3.48796e+06
3.48942e+06
3.49041e+06
3.49142e+06
3.48187e+06
3.49503e+06
3.49801e+06
3.49757e+06
3.49809e+06
3.49786e+06
3.49743e+06
3.49646e+06
3.49609e+06
3.49496e+06
3.49471e+06
3.49376e+06
3.49352e+06
3.47106e+06
3.45793e+06
3.45672e+06
3.45898e+06
3.46283e+06
3.46393e+06
3.46782e+06
3.4699e+06
3.47392e+06
3.47627e+06
3.48e+06
3.48194e+06
3.48471e+06
3.49544e+06
3.48437e+06
3.49125e+06
3.49496e+06
3.49999e+06
3.49906e+06
3.49982e+06
3.49766e+06
3.4979e+06
3.49532e+06
3.49512e+06
3.49277e+06
3.49263e+06
3.28166e+06
3.37491e+06
3.41232e+06
3.41387e+06
3.42766e+06
3.43162e+06
3.44287e+06
3.44699e+06
3.45698e+06
3.46045e+06
3.46861e+06
3.47093e+06
3.47685e+06
3.36349e+06
3.45971e+06
3.48472e+06
3.49471e+06
3.50738e+06
3.50981e+06
3.51035e+06
3.5072e+06
3.50568e+06
3.49873e+06
3.49736e+06
3.49086e+06
3.49143e+06
3.25955e+06
3.25889e+06
3.31064e+06
3.31754e+06
3.34662e+06
3.36689e+06
3.38918e+06
3.402e+06
3.42146e+06
3.42904e+06
3.44547e+06
3.44887e+06
3.46326e+06
3.60703e+06
3.50933e+06
3.45179e+06
3.45445e+06
3.50049e+06
3.51939e+06
3.52532e+06
3.52922e+06
3.51481e+06
3.50059e+06
3.50026e+06
3.48706e+06
3.48959e+06
3.46065e+06
3.55739e+06
3.35963e+06
3.15984e+06
3.20586e+06
3.26473e+06
3.28051e+06
3.32312e+06
3.32831e+06
3.35104e+06
3.39387e+06
3.40504e+06
3.44083e+06
3.62253e+06
3.36853e+06
3.2674e+06
3.48239e+06
3.67019e+06
3.70581e+06
3.70964e+06
3.69479e+06
3.67726e+06
3.60972e+06
3.57728e+06
3.48467e+06
3.49375e+06
3.99992e+06
3.24079e+06
2.7139e+06
2.27001e+06
2.66394e+06
2.67851e+06
2.85616e+06
2.91419e+06
3.02318e+06
2.95609e+06
3.26175e+06
3.26129e+06
3.39433e+06
4.00109e+06
4.00087e+06
4.00072e+06
4.00046e+06
4.00038e+06
4.00026e+06
3.99982e+06
3.9997e+06
3.99882e+06
3.9995e+06
3.83427e+06
3.36544e+06
3.51255e+06
4.00115e+06
4.00096e+06
4.00084e+06
4.00074e+06
4.0007e+06
4.00067e+06
4.00067e+06
4.00071e+06
4.00079e+06
4.00097e+06
4.00121e+06
4.00109e+06
4.00102e+06
4.00098e+06
4.00096e+06
4.00096e+06
4.001e+06
4.00106e+06
4.00117e+06
4.00134e+06
4.00124e+06
4.00112e+06
4.00105e+06
4.00102e+06
4.00101e+06
4.00103e+06
4.00108e+06
4.00115e+06
4.00125e+06
4.00138e+06
4.00128e+06
4.00119e+06
4.00114e+06
4.00112e+06
4.00111e+06
4.00113e+06
4.00118e+06
4.00126e+06
4.00136e+06
4.02142e+06
4.05155e+06
4.04943e+06
4.04684e+06
4.0458e+06
4.04749e+06
4.05352e+06
4.0634e+06
4.07515e+06
4.08533e+06
4.08881e+06
4.17004e+06
4.17183e+06
4.17102e+06
4.17128e+06
4.17008e+06
4.16949e+06
4.16862e+06
4.16812e+06
4.16717e+06
4.16839e+06
4.23064e+06
4.23588e+06
4.23557e+06
4.23865e+06
4.23898e+06
4.2389e+06
4.23783e+06
4.23504e+06
4.23325e+06
4.23073e+06
4.34469e+06
4.35507e+06
4.35519e+06
4.3581e+06
4.35614e+06
4.35232e+06
4.34596e+06
4.33737e+06
4.32955e+06
4.32315e+06
4.35569e+06
4.40222e+06
4.41989e+06
4.43666e+06
4.43927e+06
4.43354e+06
4.42111e+06
4.39594e+06
4.37337e+06
4.34082e+06
4.4498e+06
4.50555e+06
4.55397e+06
4.56965e+06
4.57078e+06
4.56087e+06
4.54335e+06
4.5139e+06
4.48149e+06
4.40622e+06
4.489e+06
4.4991e+06
4.50195e+06
4.50166e+06
4.50156e+06
4.5013e+06
4.50106e+06
4.50055e+06
4.50108e+06
4.49068e+06
4.49951e+06
4.49921e+06
4.49894e+06
4.49888e+06
4.49887e+06
4.49895e+06
4.49911e+06
4.49928e+06
4.4995e+06
4.49971e+06
4.49945e+06
4.50002e+06
4.50025e+06
4.5003e+06
4.50031e+06
4.50011e+06
4.50002e+06
4.49958e+06
4.4996e+06
4.49869e+06
4.49947e+06
4.49937e+06
4.49933e+06
4.4993e+06
4.49932e+06
4.49932e+06
4.49937e+06
4.49939e+06
4.49944e+06
4.49949e+06
4.49988e+06
4.49991e+06
4.49988e+06
4.49986e+06
4.49986e+06
4.49975e+06
4.49973e+06
4.49959e+06
4.4996e+06
4.49949e+06
4.49957e+06
4.49953e+06
4.49947e+06
4.49945e+06
4.49948e+06
4.49945e+06
4.49949e+06
4.49948e+06
4.4995e+06
4.49951e+06
4.49986e+06
4.4998e+06
4.49976e+06
4.49971e+06
4.49971e+06
4.49965e+06
4.49966e+06
4.49961e+06
4.49961e+06
4.4996e+06
4.49969e+06
4.49961e+06
4.49956e+06
4.49951e+06
4.49953e+06
4.49951e+06
4.49954e+06
4.49954e+06
4.49954e+06
4.49955e+06
4.49977e+06
4.49972e+06
4.49971e+06
4.49963e+06
4.49966e+06
4.49962e+06
4.49962e+06
4.4996e+06
4.49961e+06
4.4996e+06
4.49971e+06
4.49965e+06
4.49962e+06
4.49953e+06
4.49956e+06
4.49954e+06
4.49956e+06
4.49956e+06
4.49956e+06
4.49956e+06
4.49983e+06
4.49974e+06
4.4997e+06
4.4996e+06
4.49962e+06
4.49959e+06
4.49961e+06
4.4996e+06
4.4996e+06
4.4996e+06
4.4998e+06
4.49972e+06
4.49966e+06
4.49956e+06
4.49958e+06
4.49955e+06
4.49957e+06
4.49957e+06
4.49957e+06
4.49957e+06
4.49963e+06
4.49977e+06
4.49967e+06
4.49959e+06
4.49961e+06
4.49957e+06
4.49959e+06
4.49959e+06
4.49959e+06
4.49959e+06
4.4996e+06
4.49972e+06
4.49961e+06
4.49954e+06
4.49957e+06
4.49955e+06
4.49957e+06
4.49957e+06
4.49957e+06
4.49957e+06
4.49965e+06
4.49967e+06
4.49964e+06
4.4996e+06
4.49959e+06
4.49957e+06
4.49958e+06
4.49958e+06
4.49959e+06
4.49959e+06
4.49967e+06
4.49966e+06
4.4996e+06
4.49957e+06
4.49956e+06
4.49956e+06
4.49957e+06
4.49958e+06
4.49958e+06
4.49958e+06
4.49968e+06
4.49968e+06
4.49963e+06
4.4996e+06
4.49961e+06
4.4996e+06
4.4996e+06
4.4996e+06
4.4996e+06
4.4996e+06
4.49971e+06
4.49969e+06
4.49963e+06
4.4996e+06
4.49962e+06
4.49961e+06
4.49961e+06
4.49961e+06
4.49961e+06
4.49961e+06
4.49973e+06
4.4997e+06
4.49965e+06
4.49962e+06
4.49965e+06
4.49965e+06
4.49966e+06
4.49966e+06
4.49967e+06
4.49967e+06
4.49969e+06
4.49963e+06
4.4996e+06
4.49959e+06
4.49962e+06
4.49962e+06
4.49963e+06
4.49963e+06
4.49962e+06
4.49962e+06
4.49926e+06
4.49955e+06
4.49964e+06
4.49966e+06
4.49975e+06
4.49969e+06
4.49941e+06
4.49936e+06
4.4994e+06
4.4994e+06
4.49911e+06
4.49936e+06
4.49953e+06
4.49959e+06
4.4997e+06
4.49964e+06
4.49936e+06
4.49932e+06
4.49935e+06
4.49935e+06
4.49935e+06
4.4994e+06
4.49931e+06
4.49942e+06
4.49976e+06
4.49975e+06
4.49944e+06
4.49939e+06
4.49942e+06
4.49942e+06
4.49921e+06
4.49921e+06
4.4992e+06
4.49935e+06
4.49971e+06
4.49971e+06
4.49942e+06
4.49938e+06
4.4994e+06
4.49941e+06
4.49933e+06
4.49935e+06
4.49939e+06
4.49945e+06
4.49948e+06
4.49948e+06
4.49946e+06
4.49944e+06
4.49945e+06
4.49945e+06
4.49928e+06
4.49926e+06
4.49932e+06
4.49938e+06
4.4994e+06
4.4994e+06
4.4994e+06
4.4994e+06
4.4994e+06
4.4994e+06
4.49939e+06
4.49938e+06
4.49945e+06
4.49949e+06
4.49951e+06
4.49951e+06
4.4995e+06
4.49949e+06
4.49949e+06
4.49948e+06
4.49937e+06
4.49937e+06
4.4994e+06
4.49942e+06
4.49943e+06
4.49943e+06
4.49941e+06
4.49939e+06
4.49938e+06
4.49936e+06
4.4995e+06
4.49951e+06
4.49955e+06
4.49958e+06
4.4996e+06
4.4996e+06
4.49959e+06
4.49957e+06
4.49957e+06
4.49955e+06
4.49947e+06
4.49948e+06
4.4995e+06
4.49951e+06
4.49952e+06
4.4995e+06
4.49948e+06
4.49941e+06
4.49937e+06
4.49923e+06
4.49968e+06
4.4997e+06
4.49971e+06
4.49973e+06
4.49976e+06
4.49976e+06
4.49978e+06
4.49977e+06
4.49983e+06
4.49974e+06
4.49999e+06
4.49993e+06
4.49998e+06
4.49998e+06
4.49999e+06
4.49999e+06
4.5e+06
4.49967e+06
4.49968e+06
4.49968e+06
4.4997e+06
4.49973e+06
4.49974e+06
4.49977e+06
4.49977e+06
4.49982e+06
4.49976e+06
4.49992e+06
4.49992e+06
4.49997e+06
4.49997e+06