/*--------------------------------*- C++ -*----------------------------------*\
| =========                 |                                                 |
| \\      /  F ield         | OpenFOAM: The Open Source CFD Toolbox           |
|  \\    /   O peration     | Version:  v2012                                 |
|   \\  /    A nd           | Website:  www.openfoam.com                      |
|    \\/     M anipulation  |                                                 |
\*---------------------------------------------------------------------------*/
FoamFile
{
    version     2.0;
    format      ascii;
    class       volVectorField;
    location    "0.65";
    object      U;
}
// * * * * * * * * * * * * * * * * * * * * * * * * * * * * * * * * * * * * * //

dimensions      [0 1 -1 0 0 0 0];


internalField   nonuniform List<vector> 
3332
(
(3.86027e-05 -0.0068631 -3.36959e-07)
(0.000362667 -0.0170448 -3.16554e-06)
(0.000986739 -0.0263546 -8.61159e-06)
(0.00184444 -0.0344526 -1.60978e-05)
(0.00291186 -0.0415663 -2.5413e-05)
(0.00415155 -0.0478769 -3.62326e-05)
(0.00558791 -0.053489 -4.87672e-05)
(0.00715436 -0.0585177 -6.24396e-05)
(4.40398e-05 -0.00749011 -3.84587e-07)
(0.000408737 -0.0184899 -3.56714e-06)
(0.00110718 -0.0284924 -9.66311e-06)
(0.00205269 -0.0371555 -1.79144e-05)
(0.00323637 -0.0447396 -2.8246e-05)
(0.00460841 -0.0514343 -4.02186e-05)
(0.00617571 -0.0573742 -5.38982e-05)
(0.00789685 -0.0626518 -6.89182e-05)
(0.00975837 -0.0673094 -8.51661e-05)
(0.011743 -0.0713978 -0.000102486)
(0.013823 -0.0749252 -0.000120641)
(0.0159856 -0.0779223 -0.000139513)
(0.0181931 -0.0803974 -0.000158782)
(0.0204333 -0.0823635 -0.000178333)
(0.0226795 -0.0838228 -0.000197937)
(5.13202e-05 -0.00818846 -4.4801e-07)
(0.000464285 -0.020097 -4.05236e-06)
(0.00124577 -0.0308712 -1.08718e-05)
(0.00230606 -0.0401662 -2.0126e-05)
(0.00362292 -0.0482704 -3.16176e-05)
(0.00514539 -0.0554026 -4.49063e-05)
(0.00687265 -0.0616996 -5.99797e-05)
(0.00876904 -0.0672649 -7.65319e-05)
(0.0108185 -0.0721514 -9.44168e-05)
(0.0129956 -0.0764097 -0.00011342)
(0.0152714 -0.0800593 -0.000133281)
(0.017625 -0.0831237 -0.000153822)
(0.0200219 -0.0856168 -0.000174742)
(0.0224431 -0.0875487 -0.000195875)
(0.0248614 -0.0889294 -0.00021698)
(5.85479e-05 -0.0089984 -5.11167e-07)
(0.000524056 -0.0219289 -4.5735e-06)
(0.00139929 -0.0335553 -1.22126e-05)
(0.0025831 -0.0435405 -2.25428e-05)
(0.00404777 -0.0522128 -3.53268e-05)
(0.00574041 -0.0598137 -5.0098e-05)
(0.00765163 -0.0664959 -6.67799e-05)
(0.00974295 -0.0723685 -8.50303e-05)
(0.0119978 -0.0774977 -0.000104711)
(0.0143876 -0.0819324 -0.000125567)
(0.0168841 -0.0857016 -0.000147357)
(0.0194538 -0.0888239 -0.000169783)
(0.0220599 -0.0913192 -0.00019253)
(0.0246812 -0.0931982 -0.000215408)
(0.0272862 -0.094474 -0.000238144)
(6.8918e-05 -0.00989716 -6.01497e-07)
(0.000599233 -0.023961 -5.23013e-06)
(0.0015852 -0.0365339 -1.38341e-05)
(0.00291494 -0.0472829 -2.54402e-05)
(0.00455217 -0.0565804 -3.97272e-05)
(0.00643948 -0.0646958 -5.62006e-05)
(0.00855939 -0.0717983 -7.47006e-05)
(0.0108715 -0.0780061 -9.48817e-05)
(0.0133582 -0.0833912 -0.000116583)
(0.0159841 -0.0880091 -0.000139502)
(0.0187198 -0.0918928 -0.000163377)
(0.0215262 -0.0950655 -0.000187871)
(0.0243599 -0.0975467 -0.000212604)
(0.0271969 -0.0993502 -0.000237365)
(0.03 -0.100492 -0.00026183)
(8.01025e-05 -0.0109592 -6.99266e-07)
(0.000679759 -0.0263113 -5.93232e-06)
(0.00178808 -0.0399402 -1.56061e-05)
(0.00327775 -0.0515321 -2.8605e-05)
(0.00510687 -0.0615128 -4.45702e-05)
(0.00721004 -0.0701847 -6.29238e-05)
(0.00956826 -0.0777354 -8.35073e-05)
(0.0121334 -0.0842948 -0.000105893)
(0.0148826 -0.0899435 -0.000129889)
(0.0177733 -0.0947422 -0.000155117)
(0.0207768 -0.0987289 -0.000181331)
(0.0238453 -0.101931 -0.000208111)
(0.0269327 -0.104371 -0.000235058)
(0.0300074 -0.106065 -0.000261894)
(0.0330273 -0.107034 -0.000288251)
(9.57432e-05 -0.0121304 -8.35522e-07)
(0.000784084 -0.0289121 -6.84354e-06)
(0.00204114 -0.0437145 -1.78131e-05)
(0.00372359 -0.0562409 -3.24977e-05)
(0.00577856 -0.0669768 -5.04303e-05)
(0.0081339 -0.0762585 -7.09889e-05)
(0.0107633 -0.0842975 -9.39346e-05)
(0.0136128 -0.0912374 -0.000118806)
(0.0166554 -0.0971681 -0.00014536)
(0.0198419 -0.102155 -0.000173172)
(0.0231395 -0.106241 -0.000201951)
(0.0264942 -0.109457 -0.00023123)
(0.029854 -0.111831 -0.000260554)
(0.0331824 -0.113383 -0.000289605)
(0.0364298 -0.114138 -0.000317948)
(0.000111235 -0.0135473 -9.7094e-07)
(0.000894297 -0.0319703 -7.80437e-06)
(0.00231632 -0.0480904 -2.02162e-05)
(0.00421077 -0.0616513 -3.67477e-05)
(0.00651436 -0.0732123 -5.68543e-05)
(0.0091519 -0.0831533 -7.98711e-05)
(0.0120854 -0.0917107 -0.000105476)
(0.0152572 -0.0990448 -0.000133156)
(0.0186335 -0.105257 -0.000162625)
(0.0221559 -0.110418 -0.000193366)
(0.0257873 -0.114577 -0.000225061)
(0.0294642 -0.117774 -0.000257151)
(0.0331292 -0.120037 -0.00028914)
(0.0367378 -0.121395 -0.000320635)
(0.0402338 -0.12188 -0.000351148)
(0.000135176 -0.0150956 -1.17953e-06)
(0.00104209 -0.0353347 -9.09533e-06)
(0.00266769 -0.0529217 -2.3281e-05)
(0.0048216 -0.0676361 -4.2081e-05)
(0.00742476 -0.0801129 -6.47972e-05)
(0.0103941 -0.0907825 -9.07147e-05)
(0.0136808 -0.0999086 -0.000119397)
(0.0172182 -0.107669 -0.000150273)
(0.0209686 -0.114178 -0.000183003)
(0.0248653 -0.119518 -0.000217015)
(0.02886 -0.123742 -0.000251878)
(0.0328844 -0.126898 -0.000287002)
(0.0368759 -0.129017 -0.00032184)
(0.0407792 -0.130133 -0.000355907)
(0.0445321 -0.130287 -0.000388664)
(0.000158046 -0.0170242 -1.37969e-06)
(0.00119386 -0.0393785 -1.04187e-05)
(0.00304013 -0.0586236 -2.65334e-05)
(0.00547814 -0.0746154 -4.78082e-05)
(0.00841248 -0.0880922 -7.34203e-05)
(0.0117505 -0.0995431 -0.000102551)
(0.0154363 -0.109266 -0.000134722)
(0.0193904 -0.11746 -0.000169228)
(0.0235659 -0.124254 -0.000205673)
(0.0278847 -0.12974 -0.000243366)
(0.0322916 -0.133982 -0.000281829)
(0.0367128 -0.137033 -0.000320415)
(0.0410764 -0.138934 -0.000358499)
(0.0453107 -0.139728 -0.000395457)
(0.0493449 -0.139464 -0.000430667)
(0.000195679 -0.0191024 -1.7076e-06)
(0.00140839 -0.0437856 -1.22924e-05)
(0.00353778 -0.0648787 -3.08741e-05)
(0.00632998 -0.0822976 -5.52458e-05)
(0.00966855 -0.0968918 -8.43797e-05)
(0.0134485 -0.109212 -0.000117373)
(0.0175994 -0.119594 -0.000153597)
(0.0220299 -0.128265 -0.000192268)
(0.0266856 -0.135367 -0.0002329)
(0.0314774 -0.141004 -0.000274722)
(0.036336 -0.145246 -0.000317126)
(0.0411803 -0.148157 -0.000359405)
(0.0459301 -0.149787 -0.000400862)
(0.0505027 -0.150192 -0.000440769)
(0.0548166 -0.14943 -0.000478424)
(0.000231355 -0.0217879 -2.01946e-06)
(0.00162326 -0.0492297 -1.41657e-05)
(0.00405472 -0.0724272 -3.53886e-05)
(0.0072264 -0.0914321 -6.30663e-05)
(0.011005 -0.10724 -9.60477e-05)
(0.0152742 -0.120483 -0.000133304)
(0.0199469 -0.131544 -0.000174089)
(0.0249189 -0.140677 -0.000217479)
(0.0301229 -0.148043 -0.0002629)
(0.0354567 -0.153762 -0.000309452)
(0.0408393 -0.157919 -0.000356429)
(0.0461715 -0.160587 -0.000402968)
(0.0513637 -0.161832 -0.000448282)
(0.0563179 -0.161721 -0.000491526)
(0.0609435 -0.160331 -0.000531894)
(0.000292322 -0.024626 -2.5507e-06)
(0.00194245 -0.0550768 -1.69535e-05)
(0.00477502 -0.0806184 -4.16715e-05)
(0.00843971 -0.101405 -7.36595e-05)
(0.0127723 -0.118576 -0.000111468)
(0.0176366 -0.132854 -0.000153926)
(0.0229287 -0.144674 -0.00020011)
(0.0285278 -0.154323 -0.000248979)
(0.0343534 -0.161981 -0.000299822)
(0.0402856 -0.167784 -0.000351596)
(0.0462305 -0.171832 -0.000403483)
(0.0520746 -0.174208 -0.000454486)
(0.0577154 -0.174995 -0.00050372)
(0.0630458 -0.174275 -0.000550239)
(0.0679623 -0.172142 -0.000593156)
(0.000349743 -0.0284628 -3.05262e-06)
(0.00224937 -0.0625536 -1.963e-05)
(0.00549504 -0.0907878 -4.79605e-05)
(0.0096723 -0.113551 -8.44119e-05)
(0.014605 -0.132198 -0.000127467)
(0.0201163 -0.147559 -0.000175564)
(0.0260975 -0.160133 -0.000227768)
(0.0324084 -0.170244 -0.000282846)
(0.0389508 -0.178101 -0.000339946)
(0.0455771 -0.183861 -0.000397778)
(0.0521826 -0.187646 -0.000455427)
(0.0586283 -0.189553 -0.000511686)
(0.0647952 -0.189692 -0.000565505)
(0.0705611 -0.188161 -0.000615835)
(0.0758056 -0.185085 -0.000661603)
(0.000451844 -0.0324127 -3.94241e-06)
(0.00273594 -0.0704205 -2.38797e-05)
(0.00656049 -0.101646 -5.72547e-05)
(0.0114343 -0.126635 -9.97948e-05)
(0.0171363 -0.146953 -0.000149555)
(0.023462 -0.163541 -0.000204768)
(0.0302792 -0.176975 -0.000264262)
(0.0374233 -0.187618 -0.000326616)
(0.0447755 -0.195712 -0.000390782)
(0.0521636 -0.201437 -0.000455261)
(0.0594656 -0.204928 -0.000518993)
(0.0665238 -0.206301 -0.000580589)
(0.0732001 -0.20569 -0.000638864)
(0.0793629 -0.203223 -0.000692646)
(0.0848738 -0.19905 -0.000740752)
(0.000543571 -0.0380487 -4.74421e-06)
(0.00318404 -0.0809132 -2.77864e-05)
(0.00758212 -0.115608 -6.61767e-05)
(0.0131589 -0.143071 -0.000114842)
(0.019664 -0.165181 -0.000171621)
(0.0268665 -0.183025 -0.000234478)
(0.0346045 -0.197267 -0.000302014)
(0.0426903 -0.208318 -0.000372583)
(0.0509727 -0.216464 -0.000444866)
(0.0592547 -0.221912 -0.00051715)
(0.0673997 -0.224835 -0.000588231)
(0.0752002 -0.225371 -0.000656317)
(0.0824939 -0.223699 -0.000719967)
(0.0891344 -0.219972 -0.000777933)
(0.0949579 -0.214391 -0.000828752)
(0.000718897 -0.0436632 -6.27249e-06)
(0.00394276 -0.0916332 -3.44129e-05)
(0.00918821 -0.130158 -8.01881e-05)
(0.0157626 -0.160417 -0.000137573)
(0.0233545 -0.184566 -0.000203826)
(0.0316937 -0.203854 -0.000276611)
(0.0405796 -0.219044 -0.000354162)
(0.0497865 -0.230609 -0.000434514)
(0.0591314 -0.238869 -0.000516073)
(0.0683851 -0.244057 -0.00059683)
(0.0773868 -0.246383 -0.000675399)
(0.0859029 -0.245995 -0.000749713)
(0.0937448 -0.243132 -0.000818165)
(0.100758 -0.23799 -0.000879369)
(0.106757 -0.230804 -0.000931735)
(0.000871767 -0.0521804 -7.60996e-06)
(0.00459977 -0.106692 -4.01422e-05)
(0.0106398 -0.149716 -9.28646e-05)
(0.01818 -0.18308 -0.000158665)
(0.026874 -0.209398 -0.000234549)
(0.0363967 -0.230115 -0.000317655)
(0.0465177 -0.246115 -0.000405986)
(0.056978 -0.257929 -0.000497278)
(0.0675599 -0.265944 -0.000589626)
(0.0779725 -0.270435 -0.000680506)
(0.0880471 -0.271672 -0.000768422)
(0.0974726 -0.269848 -0.000850695)
(0.105999 -0.265271 -0.000925095)
(0.1135 -0.258191 -0.000990581)
(0.119733 -0.248913 -0.00104497)
(0.00117609 -0.0603306 -1.02629e-05)
(0.00580258 -0.121476 -5.06467e-05)
(0.0131022 -0.169409 -0.000114348)
(0.0220983 -0.206275 -0.000192871)
(0.0323579 -0.235086 -0.000282406)
(0.0434961 -0.257484 -0.000379617)
(0.055221 -0.274499 -0.000481945)
(0.0672148 -0.28673 -0.000586614)
(0.0792071 -0.294625 -0.00069128)
(0.0908581 -0.298494 -0.00079295)
(0.101965 -0.298643 -0.000889898)
(0.112181 -0.295333 -0.000979043)
(0.121226 -0.288904 -0.001058)
(0.128975 -0.279681 -0.00112561)
(0.135161 -0.268062 -0.00117963)
(0.00143063 -0.073542 -1.24881e-05)
(0.00676842 -0.143559 -5.90683e-05)
(0.0151668 -0.197365 -0.000132377)
(0.0254856 -0.23815 -0.000222429)
(0.0372461 -0.269579 -0.000325073)
(0.0500024 -0.293563 -0.000436399)
(0.0634083 -0.311279 -0.000553392)
(0.0770935 -0.323412 -0.000672831)
(0.0907222 -0.330501 -0.000791758)
(0.103891 -0.332928 -0.000906694)
(0.11634 -0.331102 -0.00101533)
(0.127645 -0.32537 -0.001114)
(0.137469 -0.316186 -0.00119972)
(0.145657 -0.303967 -0.00127121)
(0.151917 -0.289233 -0.00132583)
(0.00194673 -0.0855436 -1.69875e-05)
(0.0086745 -0.164097 -7.57141e-05)
(0.0189723 -0.224191 -0.000165581)
(0.031467 -0.269388 -0.000274641)
(0.0455395 -0.303856 -0.000397451)
(0.0606455 -0.329765 -0.000529282)
(0.0763471 -0.3485 -0.000666317)
(0.0921665 -0.360828 -0.00080436)
(0.107692 -0.367366 -0.000939863)
(0.122433 -0.36854 -0.00106849)
(0.136079 -0.364836 -0.0011876)
(0.148161 -0.356672 -0.00129302)
(0.158326 -0.344615 -0.00138176)
(0.166427 -0.329189 -0.00145244)
(0.172184 -0.311057 -0.00150271)
(0.00233584 -0.106369 -2.03895e-05)
(0.010021 -0.197063 -8.74592e-05)
(0.0218321 -0.264919 -0.000190559)
(0.036146 -0.31514 -0.000315465)
(0.0523161 -0.352798 -0.00045659)
(0.0696414 -0.380409 -0.000607793)
(0.0876545 -0.399537 -0.000764976)
(0.105779 -0.41106 -0.000923162)
(0.123506 -0.415755 -0.00107783)
(0.140232 -0.414162 -0.00122383)
(0.155557 -0.406969 -0.00135754)
(0.168904 -0.39473 -0.00147405)
(0.179846 -0.378236 -0.00156951)
(0.188194 -0.358157 -0.00164241)
(0.19365 -0.335373 -0.00169001)
(0.00314104 -0.1239 -2.7409e-05)
(0.0129717 -0.225556 -0.000113227)
(0.027705 -0.301544 -0.000241804)
(0.0453541 -0.357389 -0.000395832)
(0.065052 -0.398793 -0.000567738)
(0.0859094 -0.428577 -0.000749747)
(0.107311 -0.448612 -0.000936525)
(0.128474 -0.459857 -0.00112117)
(0.148778 -0.463244 -0.00129839)
(0.167466 -0.459325 -0.00146144)
(0.184074 -0.44897 -0.0016064)
(0.197978 -0.432814 -0.00172771)
(0.208755 -0.411894 -0.0018218)
(0.216269 -0.387029 -0.00188736)
(0.22029 -0.359367 -0.0019225)
(0.00360032 -0.156541 -3.14271e-05)
(0.0146823 -0.275334 -0.00012814)
(0.0315363 -0.361966 -0.000275254)
(0.0517213 -0.424523 -0.000451398)
(0.0743571 -0.469925 -0.000648924)
(0.0983385 -0.501452 -0.000858211)
(0.12297 -0.52118 -0.00107312)
(0.147285 -0.530232 -0.00128533)
(0.170545 -0.529847 -0.00148826)
(0.191814 -0.520763 -0.0016739)
(0.210463 -0.504272 -0.0018366)
(0.225731 -0.481231 -0.00196989)
(0.237084 -0.45314 -0.00206893)
(0.244361 -0.421015 -0.0021325)
(0.247342 -0.386423 -0.0021585)
(0.00472144 -0.180939 -4.11984e-05)
(0.0191556 -0.31429 -0.000167201)
(0.0406578 -0.411909 -0.000354848)
(0.0661227 -0.48184 -0.00057707)
(0.0943292 -0.531928 -0.000823218)
(0.123782 -0.565757 -0.0010802)
(0.15358 -0.586045 -0.00134024)
(0.182297 -0.593845 -0.00159078)
(0.209078 -0.590793 -0.00182451)
(0.232687 -0.577518 -0.00203047)
(0.252443 -0.555782 -0.00220292)
(0.267534 -0.526458 -0.00233456)
(0.277519 -0.491614 -0.00242176)
(0.282405 -0.452408 -0.00246438)
(0.282143 -0.410948 -0.00246218)
(0.00520159 -0.230997 -4.54147e-05)
(0.0212006 -0.390211 -0.000185032)
(0.0457888 -0.503424 -0.000399626)
(0.0747895 -0.582856 -0.000652688)
(0.107238 -0.638156 -0.000935797)
(0.141 -0.673519 -0.00123042)
(0.175257 -0.691989 -0.00152927)
(0.208235 -0.694856 -0.00181707)
(0.238907 -0.684433 -0.00208462)
(0.265731 -0.661599 -0.00231874)
(0.287789 -0.629099 -0.00251115)
(0.304092 -0.588027 -0.00265349)
(0.314028 -0.541555 -0.00274016)
(0.317655 -0.490976 -0.00277192)
(0.314983 -0.439279 -0.0027486)
(0.00706869 -0.263335 -6.16846e-05)
(0.0285276 -0.443002 -0.000248996)
(0.060596 -0.571705 -0.000528824)
(0.098087 -0.660777 -0.000855935)
(0.139468 -0.721948 -0.00121703)
(0.181817 -0.759295 -0.00158646)
(0.224031 -0.777472 -0.00195483)
(0.26339 -0.777123 -0.00229814)
(0.298813 -0.761717 -0.00260728)
(0.328132 -0.731443 -0.002863)
(0.350489 -0.69037 -0.00305816)
(0.364806 -0.639137 -0.00318303)
(0.370725 -0.582523 -0.0032348)
(0.00789795 -0.34201 -6.89524e-05)
(0.0313471 -0.561417 -0.000273561)
(0.0680673 -0.713608 -0.000593962)
(0.110153 -0.816668 -0.000961164)
(0.157378 -0.884756 -0.00137309)
(0.205381 -0.92283 -0.00179193)
(0.253446 -0.936138 -0.00221114)
(0.298245 -0.92554 -0.00260204)
(0.338544 -0.896166 -0.00295348)
(0.371635 -0.848231 -0.00324228)
(0.39634 -0.788247 -0.00345772)
(0.41115 -0.716639 -0.0035871)
(0.415488 -0.641195 -0.00362493)
(0.0109571 -0.386122 -9.56023e-05)
(0.0434641 -0.633483 -0.000379283)
(0.0922668 -0.807428 -0.000805056)
(0.148145 -0.922011 -0.00129246)
(0.209702 -0.997166 -0.00182951)
(0.271124 -1.03534 -0.00236518)
(0.331483 -1.04679 -0.00289178)
(0.385508 -1.02904 -0.00336286)
(0.432221 -0.991078 -0.00377045)
(0.467512 -0.930076 -0.00407811)
(0.490569 -0.856499 -0.00427944)
(0.499391 -0.768336 -0.00435631)
(0.494157 -0.678154 -0.00431097)
(0.01294 -0.511969 -0.000112962)
(0.0472892 -0.821794 -0.000412573)
(0.103354 -1.03171 -0.000901534)
(0.164245 -1.16757 -0.00143265)
(0.233089 -1.25164 -0.00203293)
(0.300789 -1.28886 -0.00262344)
(0.367656 -1.28944 -0.00320636)
(0.427988 -1.25197 -0.00373258)
(0.480216 -1.18812 -0.00418774)
(0.51969 -1.09474 -0.0045322)
(0.544958 -0.987485 -0.00475238)
(0.552609 -0.862992 -0.00481962)
(0.542438 -0.742434 -0.00473093)
(0.0180654 -0.576186 -0.000157555)
(0.0672219 -0.920808 -0.000586222)
(0.141746 -1.16006 -0.00123605)
(0.224431 -1.3044 -0.00195709)
(0.31498 -1.39622 -0.00274671)
(0.402822 -1.42719 -0.00351241)
(0.48865 -1.42409 -0.0042608)
(0.562199 -1.37232 -0.0049015)
(0.624187 -1.29606 -0.00544197)
(0.665392 -1.18114 -0.00580068)
(0.686221 -1.05381 -0.005983)
(0.678989 -0.901347 -0.0059199)
(0.647413 -0.761022 -0.00564557)
(0.0231964 -0.78067 -0.000202259)
(0.0709261 -1.22161 -0.000617792)
(0.158044 -1.51384 -0.00137693)
(0.242177 -1.69242 -0.00211092)
(0.33705 -1.79397 -0.00293724)
(0.42835 -1.82436 -0.00373317)
(0.517287 -1.79951 -0.00450705)
(0.596418 -1.71589 -0.00519599)
(0.66285 -1.5923 -0.00577362)
(0.70949 -1.42034 -0.00618084)
(0.735347 -1.22956 -0.00640608)
(0.724273 -1.00851 -0.00631176)
(0.680424 -0.819291 -0.00593012)
(0.0282381 -0.877347 -0.00024568)
(0.100953 -1.34845 -0.00087823)
(0.211232 -1.6801 -0.00183874)
(0.326596 -1.84528 -0.00284494)
(0.448897 -1.95054 -0.00391071)
(0.567143 -1.96362 -0.00493983)
(0.686709 -1.9315 -0.00597915)
(0.785797 -1.82691 -0.00683864)
(0.873618 -1.69032 -0.00760369)
(0.924201 -1.49153 -0.00804344)
(0.94876 -1.27523 -0.00826186)
(0.899557 -0.999771 -0.00783441)
(0.80745 -0.79004 -0.00703543)
(0.0632764 -1.18316 -0.000550242)
(0.107848 -1.80125 -0.000933596)
(0.229805 -2.19606 -0.00199511)
(0.337553 -2.42673 -0.00293646)
(0.437444 -2.54949 -0.00380771)
(0.54873 -2.57254 -0.00477119)
(0.659412 -2.51577 -0.00572617)
(0.752303 -2.37501 -0.00653045)
(0.835692 -2.16424 -0.00725073)
(0.890651 -1.8608 -0.00773746)
(0.9484 -1.52073 -0.00824396)
(0.891325 -1.0922 -0.00775584)
(0.766201 -0.807361 -0.00666948)
(0.0144884 -1.45595 -0.000118373)
(0.0848678 -1.89416 -0.000720395)
(0.20576 -2.33705 -0.00176254)
(0.344958 -2.48773 -0.00299244)
(0.498863 -2.6062 -0.00434602)
(0.65584 -2.60019 -0.00570075)
(0.820041 -2.52243 -0.00711079)
(0.965518 -2.36285 -0.00835602)
(1.11826 -2.13495 -0.00969769)
(1.20288 -1.79446 -0.0104354)
(1.28366 -1.50499 -0.0111556)
(1.12924 -0.941615 -0.00982232)
(0.874957 -0.671089 -0.00761677)
(0.189217 -1.46726 -0.00164808)
(0.174275 -2.36221 -0.00150435)
(0.12125 -2.95 -0.0010191)
(0.284326 -3.29952 -0.00245084)
(0.367786 -3.49244 -0.00318797)
(0.519239 -3.55489 -0.00450674)
(0.654815 -3.5013 -0.00565903)
(0.76638 -3.3491 -0.00660311)
(0.890896 -3.06957 -0.00771473)
(0.837537 -2.6392 -0.00725583)
(0.979847 -1.93461 -0.00850678)
(0.902866 -0.879507 -0.00784875)
(0.562274 -0.551431 -0.00489065)
(0.0243159 -1.23756 -0.000212959)
(0.0854205 -2.09323 -0.000745606)
(0.15032 -2.67901 -0.00132083)
(0.2196 -3.10092 -0.00194454)
(0.31656 -3.25183 -0.00277863)
(0.440566 -3.27139 -0.00384803)
(0.580789 -3.15245 -0.00506748)
(0.743447 -2.90063 -0.00646382)
(0.92493 -2.47392 -0.00803845)
(1.20366 -1.91883 -0.0104769)
(1.66859 -1.41746 -0.0145442)
(1.20978 -0.506655 -0.0105435)
(0.464411 -0.259526 -0.00403725)
(0.0202475 -0.96709 -0.000178143)
(0.0540908 -1.51315 -0.000476723)
(0.0990018 -1.87864 -0.000869512)
(0.147162 -2.09037 -0.00127821)
(0.209318 -2.16385 -0.00182134)
(0.266307 -2.10897 -0.00233185)
(0.317605 -1.92816 -0.00279029)
(0.344401 -1.62052 -0.00302532)
(0.3154 -1.15384 -0.00275975)
(0.185302 -0.487668 -0.00161403)
(0.0149528 -0.839361 -0.000130799)
(0.0431979 -1.20933 -0.000377848)
(0.0707492 -1.45562 -0.000618559)
(0.0984551 -1.58703 -0.000860981)
(0.125268 -1.61267 -0.00109467)
(0.147092 -1.53614 -0.00128533)
(0.156768 -1.36022 -0.00137188)
(0.147218 -1.08655 -0.00128922)
(0.106508 -0.716211 -0.000933323)
(0.0226991 -0.265928 -0.000202686)
(0.0101923 -0.789309 -8.91016e-05)
(0.0283456 -1.05883 -0.000248062)
(0.0448004 -1.22526 -0.000391823)
(0.0587619 -1.30215 -0.000513539)
(0.0700387 -1.29803 -0.000612086)
(0.0759186 -1.21455 -0.000664168)
(0.0746007 -1.05362 -0.000653224)
(0.062934 -0.819251 -0.000551832)
(0.0393553 -0.520788 -0.000345029)
(0.00468193 -0.178128 -4.31486e-05)
(0.00535977 -0.789969 -4.6838e-05)
(0.0155925 -1.01717 -0.00013637)
(0.0241873 -1.14465 -0.000211529)
(0.0302612 -1.19368 -0.000264527)
(0.0332503 -1.17462 -0.000290616)
(0.0329276 -1.09065 -0.000287837)
(0.0287227 -0.943235 -0.000251422)
(0.020485 -0.73526 -0.00017952)
(0.00688599 -0.472189 -6.07763e-05)
(-0.00112749 -0.164043 9.67521e-06)
(0.00200544 -0.814832 -1.7525e-05)
(0.00690916 -1.04051 -6.04129e-05)
(0.0100696 -1.15756 -8.80925e-05)
(0.010389 -1.19577 -9.09124e-05)
(0.00807739 -1.16868 -7.07471e-05)
(0.00407917 -1.08122 -3.58909e-05)
(-0.000124806 -0.935403 7.95412e-07)
(-0.00301608 -0.733303 2.59825e-05)
(-0.00336797 -0.477616 2.91403e-05)
(-0.000989676 -0.170279 8.63935e-06)
(-0.000213206 -0.818263 1.87421e-06)
(0.000615353 -1.04825 -5.41958e-06)
(0.00157024 -1.16465 -1.37914e-05)
(0.00216546 -1.20043 -1.90296e-05)
(0.00226868 -1.17032 -1.99458e-05)
(0.00180248 -1.08008 -1.5893e-05)
(0.00103914 -0.932293 -9.24245e-06)
(0.000285631 -0.729259 -2.64744e-06)
(-0.000365693 -0.47426 3.08e-06)
(-0.000222638 -0.169823 1.93149e-06)
(-0.00283242 -0.815508 2.47179e-05)
(-0.00584228 -1.04534 5.09782e-05)
(-0.00709427 -1.16253 6.18707e-05)
(-0.00674819 -1.19923 5.88393e-05)
(-0.00493662 -1.17003 4.30115e-05)
(-0.00276979 -1.08072 2.41024e-05)
(-0.000355372 -0.933973 3.0287e-06)
(0.00117757 -0.731732 -1.03422e-05)
(0.00158599 -0.476975 -1.38918e-05)
(0.000501857 -0.171483 -4.46032e-06)
(-0.00672243 -0.788973 5.86733e-05)
(-0.0148297 -1.0267 0.000129421)
(-0.0181425 -1.15305 0.000158332)
(-0.0181072 -1.19728 0.000158008)
(-0.0153303 -1.17279 0.000133776)
(-0.0114658 -1.0853 0.000100042)
(-0.00673193 -0.937754 5.87337e-05)
(-0.00261483 -0.732115 2.2801e-05)
(0.000278472 -0.473361 -2.44569e-06)
(0.000581117 -0.166228 -5.09167e-06)
(-0.016971 -0.74338 0.000148101)
(-0.0340155 -0.989719 0.000296887)
(-0.0403366 -1.1313 0.000352043)
(-0.0431239 -1.18603 0.000376375)
(-0.0433045 -1.16917 0.000377942)
(-0.0422418 -1.08739 0.000368678)
(-0.037313 -0.944275 0.000325669)
(-0.029676 -0.741409 0.000259037)
(-0.0168595 -0.482415 0.000147194)
(-0.00447246 -0.171533 3.95031e-05)
(0.00151426 -0.616199 -1.32067e-05)
(-0.00371014 -0.904095 3.24264e-05)
(-0.0260684 -1.07938 0.00022757)
(-0.055262 -1.14857 0.000482282)
(-0.0883285 -1.14028 0.000770646)
(-0.118792 -1.06802 0.00103602)
(-0.139604 -0.937074 0.00121684)
(-0.144865 -0.748224 0.00126142)
(-0.118548 -0.502225 0.00103007)
(-0.0698571 -0.193326 0.000602659)
(0.302407 -0.739604 -0.00261665)
(0.35532 -0.92593 -0.00294133)
(0.167421 -1.02407 -0.00125556)
(-0.00832639 -1.07178 0.000156394)
(-0.155397 -1.06308 0.00116818)
(-0.27862 -1.0023 0.00184759)
(-0.381511 -0.889122 0.00225203)
(-0.465581 -0.728501 0.00242692)
(-0.484222 -0.513032 0.00197189)
(-0.525713 -0.289713 0.00158782)
(-0.00878246 -3.00119 7.66774e-05)
(0.00011587 -1.45085 -9.72728e-07)
(0.0186653 -0.658679 -0.000162887)
(0.0035483 -0.508186 -3.10002e-05)
(-0.00331219 -0.460172 2.88279e-05)
(-0.0285366 -0.409762 0.000248848)
(-0.0260431 -0.360355 0.000226768)
(-0.0338323 -0.31697 0.000294046)
(0.00952986 -0.422029 -8.61154e-05)
(0.0550186 -1.60165 -0.000484212)
(-0.263927 -0.698504 0.00230341)
(-0.318482 -0.980325 0.00277987)
(-0.152255 -1.06503 0.0013292)
(-0.0145492 -1.07469 0.000127303)
(0.123426 -1.05178 -0.00107694)
(0.211385 -0.99287 -0.00184465)
(0.3372 -0.893592 -0.00294273)
(0.371209 -0.765565 -0.00323962)
(0.514579 -0.578309 -0.00449114)
(0.287287 -0.28653 -0.00253186)
(0.0127095 -0.88835 -0.000110909)
(0.00732029 -0.94568 -6.38901e-05)
(0.0115245 -0.965694 -0.000100571)
(0.0226477 -0.966732 -0.00019764)
(0.0429606 -0.940639 -0.000374912)
(0.0551312 -0.899304 -0.00048113)
(0.0729836 -0.816825 -0.000636978)
(0.0716909 -0.735447 -0.000625763)
(0.0618245 -0.554969 -0.000539822)
(0.0245677 -0.386613 -0.000216315)
(-0.0192854 -0.77845 0.000168324)
(-0.0182755 -0.99803 0.000159538)
(0.00900451 -1.10639 -7.85432e-05)
(0.0340793 -1.14433 -0.000297387)
(0.0700908 -1.12573 -0.000611675)
(0.0884765 -1.05996 -0.000772168)
(0.111208 -0.940314 -0.000970603)
(0.10266 -0.771541 -0.000896072)
(0.0880527 -0.527238 -0.000768661)
(0.0372056 -0.208043 -0.000328087)
(0.00141959 -0.747782 -1.23841e-05)
(0.00306826 -0.961557 -2.67721e-05)
(0.00864552 -1.0714 -7.54515e-05)
(0.0126731 -1.10952 -0.000110607)
(0.0189079 -1.09062 -0.000165011)
(0.0201557 -1.02705 -0.000175909)
(0.0216202 -0.908017 -0.000188717)
(0.0172543 -0.746066 -0.000150619)
(0.0096096 -0.506483 -8.39113e-05)
(0.00279725 -0.208375 -2.47399e-05)
(0.00165078 -0.793551 -1.44013e-05)
(0.00618864 -1.01924 -5.40066e-05)
(0.0144707 -1.13365 -0.000126289)
(0.0203558 -1.17161 -0.000177658)
(0.0283905 -1.14821 -0.000247777)
(0.0301324 -1.07173 -0.00026299)
(0.0315853 -0.93978 -0.000275691)
(0.0260886 -0.754107 -0.000227724)
(0.0168012 -0.504245 -0.00014668)
(0.00593267 -0.189111 -5.23413e-05)
(0.000730192 -0.772649 -6.37025e-06)
(0.00203041 -1.00148 -1.77214e-05)
(0.00429092 -1.11741 -3.74523e-05)
(0.00529363 -1.15561 -4.62076e-05)
(0.00676144 -1.13217 -5.90163e-05)
(0.00596541 -1.0556 -5.20731e-05)
(0.00529629 -0.923116 -4.62445e-05)
(0.00362789 -0.738128 -3.16659e-05)
(0.0010666 -0.490358 -9.30636e-06)
(-0.000156576 -0.181742 1.26128e-06)
(0.00195492 -0.80261 -1.70589e-05)
(0.00433099 -1.03042 -3.78005e-05)
(0.00731168 -1.14435 -6.3819e-05)
(0.00874044 -1.17975 -7.62903e-05)
(0.0105305 -1.15322 -9.19229e-05)
(0.0106486 -1.07176 -9.29452e-05)
(0.0100626 -0.935385 -8.7832e-05)
(0.00755903 -0.744854 -6.59908e-05)
(0.00435138 -0.495364 -3.79951e-05)
(0.0013605 -0.183585 -1.19731e-05)
(0.00061627 -0.793771 -5.37784e-06)
(0.00115983 -1.02197 -1.01279e-05)
(0.00197656 -1.13605 -1.726e-05)
(0.00195075 -1.17146 -1.70336e-05)
(0.00221606 -1.14459 -1.93549e-05)
(0.00204312 -1.06272 -1.78359e-05)
(0.00162988 -0.926344 -1.42296e-05)
(0.000637906 -0.735689 -5.5761e-06)
(-8.38832e-05 -0.486719 7.30895e-07)
(-0.000371985 -0.177892 3.20087e-06)
(0.000837234 -0.808693 -7.30811e-06)
(0.00189502 -1.03528 -1.65446e-05)
(0.00328516 -1.14816 -2.86806e-05)
(0.00373977 -1.18212 -3.26486e-05)
(0.00428608 -1.15382 -3.7424e-05)
(0.00424389 -1.07013 -3.70496e-05)
(0.00377688 -0.932494 -3.29732e-05)
(0.00269219 -0.74049 -2.35094e-05)
(0.00162377 -0.491275 -1.41804e-05)
(0.000432685 -0.181198 -3.78719e-06)
(-4.89536e-05 -0.802983 4.26787e-07)
(0.000302694 -1.03084 -2.64785e-06)
(0.000979424 -1.1442 -8.55886e-06)
(0.000987828 -1.17802 -8.63181e-06)
(0.00115795 -1.14956 -1.01233e-05)
(0.00110298 -1.06541 -9.63559e-06)
(0.00081491 -0.927469 -7.12001e-06)
(0.000239838 -0.735149 -2.10199e-06)
(-4.30275e-05 -0.486083 3.72628e-07)
(-0.000284846 -0.177523 2.47262e-06)
(0.000284847 -0.809316 -2.48733e-06)
(0.000990481 -1.03744 -8.64454e-06)
(0.00193834 -1.15047 -1.69273e-05)
(0.00222266 -1.18353 -1.94089e-05)
(0.00248349 -1.15423 -2.16913e-05)
(0.00256074 -1.06919 -2.23583e-05)
(0.00213186 -0.930649 -1.86157e-05)
(0.00143356 -0.737935 -1.25236e-05)
(0.000857132 -0.488894 -7.48807e-06)
(0.000172084 -0.179769 -1.50048e-06)
(2.06526e-05 -0.806609 -1.82411e-07)
(0.000481964 -1.03594 -4.2112e-06)
(0.00117651 -1.14925 -1.02803e-05)
(0.0012577 -1.18225 -1.09886e-05)
(0.00138199 -1.15231 -1.20751e-05)
(0.00143882 -1.06677 -1.25672e-05)
(0.00104563 -0.927804 -9.13619e-06)
(0.000493926 -0.734797 -4.32136e-06)
(0.000129945 -0.485815 -1.13873e-06)
(-0.000174816 -0.177648 1.52032e-06)
(0.000196508 -0.810268 -1.71857e-06)
(0.000911058 -1.04028 -7.95571e-06)
(0.00180895 -1.15347 -1.57948e-05)
(0.00246629 -1.18584 -2.15372e-05)
(0.00275759 -1.15511 -2.40806e-05)
(0.00251994 -1.06878 -2.20071e-05)
(0.00200011 -0.92925 -1.74698e-05)
(0.00129347 -0.735995 -1.13006e-05)
(0.000646994 -0.487078 -5.65585e-06)
(0.000102353 -0.17878 -8.78849e-07)
(7.48145e-05 -0.809966 -6.56609e-07)
(0.000824157 -1.04119 -7.20164e-06)
(0.0017721 -1.15442 -1.54757e-05)
(0.00237919 -1.18615 -2.07766e-05)
(0.00258715 -1.15477 -2.25933e-05)
(0.00228484 -1.06766 -1.99563e-05)
(0.00169424 -0.927488 -1.48005e-05)
(0.000961639 -0.733947 -8.40336e-06)
(0.000317721 -0.485076 -2.7805e-06)
(-8.69709e-05 -0.177503 7.71938e-07)
(0.000307095 -0.812799 -2.68586e-06)
(0.00144697 -1.04535 -1.26353e-05)
(0.0027043 -1.15844 -2.36124e-05)
(0.00342603 -1.18923 -2.99149e-05)
(0.0036378 -1.15672 -3.17653e-05)
(0.00332567 -1.0686 -2.90393e-05)
(0.00257986 -0.927755 -2.25282e-05)
(0.00160056 -0.733939 -1.39798e-05)
(0.000716212 -0.48516 -6.26073e-06)
(0.000109806 -0.177789 -9.27925e-07)
(0.000493229 -0.815331 -4.3085e-06)
(0.001868 -1.0491 -1.63105e-05)
(0.00323622 -1.1617 -2.82562e-05)
(0.00389443 -1.19121 -3.40045e-05)
(0.00392031 -1.15731 -3.42319e-05)
(0.00343722 -1.06806 -3.00132e-05)
(0.00253979 -0.926541 -2.21796e-05)
(0.00148698 -0.732444 -1.29907e-05)
(0.000565433 -0.483808 -4.9481e-06)
(1.43821e-05 -0.177148 -4.49966e-08)
(0.00104219 -0.820147 -9.09844e-06)
(0.00292751 -1.05473 -2.55572e-05)
(0.00451425 -1.16629 -3.94092e-05)
(0.00513023 -1.19406 -4.47895e-05)
(0.00494833 -1.15848 -4.32049e-05)
(0.00418969 -1.0678 -3.6578e-05)
(0.00310936 -0.925328 -2.71447e-05)
(0.00201763 -0.730616 -1.76161e-05)
(0.000902512 -0.481853 -7.87137e-06)
(0.000173543 -0.175476 -1.56284e-06)
(0.00161706 -0.828192 -1.41134e-05)
(0.00382191 -1.06235 -3.33643e-05)
(0.00527296 -1.1718 -4.60332e-05)
(0.00561614 -1.19724 -4.90329e-05)
(0.00524689 -1.15995 -4.58125e-05)
(0.00436846 -1.06786 -3.81357e-05)
(0.00316713 -0.925419 -2.76381e-05)
(0.00203435 -0.730394 -1.77456e-05)
(0.000670508 -0.482222 -5.8298e-06)
(-4.59295e-05 -0.176608 2.72439e-07)
(0.00264518 -0.838083 -2.30868e-05)
(0.00538134 -1.07033 -4.69735e-05)
(0.00663798 -1.17655 -5.79462e-05)
(0.00628387 -1.19908 -5.4863e-05)
(0.00585671 -1.15991 -5.11256e-05)
(0.00414231 -1.06676 -3.61676e-05)
(0.00279274 -0.923744 -2.44222e-05)
(0.00271543 -0.728342 -2.37089e-05)
(0.000808542 -0.480119 -7.06683e-06)
(0.000121059 -0.175132 -9.55934e-07)
(0.00354206 -0.855086 -3.09171e-05)
(0.00631172 -1.0819 -5.50986e-05)
(0.0066996 -1.18316 -5.8485e-05)
(0.00538226 -1.20223 -4.69937e-05)
(0.00447307 -1.16073 -3.90521e-05)
(0.00285071 -1.06723 -2.48943e-05)
(0.0018608 -0.923236 -1.62801e-05)
(0.0021612 -0.727781 -1.88588e-05)