/*--------------------------------*- C++ -*----------------------------------*\
| =========                 |                                                 |
| \\      /  F ield         | OpenFOAM: The Open Source CFD Toolbox           |
|  \\    /   O peration     | Version:  v2012                                 |
|   \\  /    A nd           | Website:  www.openfoam.com                      |
|    \\/     M anipulation  |                                                 |
\*---------------------------------------------------------------------------*/
FoamFile
{
    version     2.0;
    format      ascii;
    class       surfaceScalarField;
    location    "0.8";
    object      alphaPhi0.water;
}
// * * * * * * * * * * * * * * * * * * * * * * * * * * * * * * * * * * * * * //

dimensions      [0 3 -1 0 0 0 0];
oriented        oriented;


internalField   nonuniform List<scalar> 
8145
(
-6.77479e-155
5.58901e-155
-2.42715e-164
-3.09064e-154
2.60955e-154
-1.12076e-162
-1.90571e-153
1.65646e-153
-3.50259e-162
-1.97982e-152
1.83334e-152
-1.3464e-161
-1.87574e-150
1.85866e-150
1.98621e-161
-1.93597e-147
1.93409e-147
2.2707e-156
-4.79413e-144
4.7919e-144
-2.8377e-153
-8.36773e-141
1.3339e-140
-1.62833e-150
3.49363e-139
-4.60324e-149
-5.0171e-155
3.44738e-155
-3.9604e-163
-1.44672e-154
1.05816e-154
-6.71029e-163
-4.9962e-154
3.7945e-154
-1.1456e-162
-2.26926e-153
1.80337e-153
-8.16912e-163
-1.64487e-152
1.45665e-152
-4.12147e-161
-3.98235e-151
3.83479e-151
-5.17988e-160
-1.80023e-148
1.79644e-148
-1.17677e-157
-1.19274e-145
1.19097e-145
2.32326e-156
-1.26316e-142
1.26199e-142
1.57667e-151
-3.10452e-139
3.10308e-139
-1.81094e-148
-5.50834e-136
8.77386e-136
-9.46518e-146
2.20408e-134
-1.77572e-144
-6.96955e-14
-8.87275e-11
-1.59324e-17
-7.14256e-18
-2.66593e-13
-4.12371e-20
-3.0461e-24
-3.11368e-17
-3.33614e-24
-1.81619e-31
-8.50606e-24
-1.33703e-30
-2.04797e-40
-5.69601e-31
-6.41631e-38
-6.29602e-48
-6.03617e-40
-6.04764e-47
-6.70872e-54
-1.75364e-47
-1.52688e-54
-4.50471e-60
-1.73195e-53
-1.37528e-60
-2.75002e-74
-1.12527e-59
-7.87282e-67
-1.85415e-78
-6.37547e-74
-6.93142e-81
-4.42669e-83
-4.09905e-78
-5.76375e-85
-2.19444e-86
-9.20697e-83
-9.20046e-90
-6.7619e-89
-4.31409e-86
-1.22872e-93
-8.44209e-92
-1.22937e-88
-3.45256e-96
-1.04776e-95
-1.58744e-91
-6.08199e-99
-2.62821e-99
-1.87454e-95
-7.6186e-103
-2.76775e-103
-3.87616e-99
-2.20914e-106
-3.10299e-107
-3.84613e-103
-1.70031e-110
-1.94291e-112
-4.61978e-107
-1.37885e-114
-8.04091e-118
-2.46123e-112
-9.33471e-120
-1.79564e-123
-9.37833e-118
-3.44832e-125
-2.36057e-133
-1.81925e-123
-6.70426e-131
-1.11261e-141
-1.9844e-133
-7.96514e-141
-9.97224e-151
-1.1184e-141
-3.40116e-149
-8.31263e-154
-1.10629e-150
-2.85131e-158
-1.78079e-155
-4.38405e-155
-2.02064e-161
-1.82953e-155
2.03555e-156
-3.91766e-163
-2.16401e-155
5.07335e-156
-3.54871e-163
-2.92044e-155
9.83235e-156
-3.61261e-163
-4.45611e-155
1.8938e-155
-3.95872e-163
-7.63296e-155
3.8529e-155
-4.30236e-163
-1.4684e-154
8.47201e-155
-2.49652e-163
-3.23321e-154
2.05841e-154
-1.54037e-162
-8.55119e-154
5.79438e-154
-6.42037e-162
-2.96061e-153
2.14012e-153
-1.20908e-161
-1.54957e-152
1.2849e-152
-2.81611e-161
-1.9424e-151
1.80532e-151
-6.00074e-161
-5.04797e-149
5.03002e-149
-1.22003e-157
-1.97134e-146
1.96634e-146
-2.65243e-155
-9.84361e-144
9.82411e-144
-6.64669e-153
-6.56754e-141
6.55785e-141
1.88598e-151
-7.08126e-138
7.07375e-138
9.24273e-147
-1.70254e-134
1.70174e-134
-9.91927e-144
-3.09215e-131
4.92077e-131
-4.45254e-141
1.18442e-129
-4.78818e-140
-8.33864e-14
-8.14359e-11
-1.58291e-17
-1.34689e-17
-2.9838e-13
-4.89331e-20
-2.74641e-24
-5.33043e-17
-5.98031e-24
-2.46621e-31
-7.26708e-24
-1.12935e-30
-2.88399e-40
-7.40964e-31
-8.24949e-38
-9.36403e-48
-8.17151e-40
-8.09743e-47
-9.70973e-54
-2.53211e-47
-2.1844e-54
-7.06604e-60
-2.41037e-53
-1.93872e-60
-4.80637e-74
-1.69174e-59
-1.22043e-66
-3.10483e-78
-1.01483e-73
-9.60609e-81
-7.5566e-83
-6.67919e-78
-9.60487e-85
-3.90509e-86
-1.52598e-82
-1.56455e-89
-1.1881e-88
-7.46967e-86
-2.27875e-93
-1.84817e-91
-2.09776e-88
-6.2699e-96
-2.73937e-95
-3.21634e-91
-1.32076e-98
-7.62452e-99
-4.71017e-95
-2.03832e-102
-7.04533e-103
-1.35417e-98
-6.08781e-106
-1.20129e-106
-9.83884e-103
-4.75763e-110
-8.27445e-112
-1.74169e-106
-5.72702e-114
-5.04209e-117
-1.02999e-111
-3.93016e-119
-1.72284e-122
-5.54927e-117
-2.17416e-124
-6.85799e-133
-1.40272e-122
-6.49642e-130
-2.24425e-139
-3.07274e-133
-2.32328e-140
-3.67958e-148
-2.25542e-139
-6.85251e-147
-1.22673e-153
-3.69065e-148
-1.01258e-155
-1.85944e-154
-8.34925e-155
-2.94905e-161
-1.92263e-154
2.10073e-155
-4.05559e-162
-2.26236e-154
5.2548e-155
-3.68641e-162
-2.99904e-154
1.01751e-154
-3.71933e-162
-4.46913e-154
1.94444e-154
-3.98915e-162
-7.62603e-154
3.94946e-154
-4.21092e-162
-1.56856e-153
9.12315e-154
-2.32593e-162
-4.23044e-153
2.73456e-153
-1.68351e-161
-1.64279e-152
1.25682e-152
-9.44408e-161
-1.53056e-151
1.38692e-151
-5.20409e-160
-2.68764e-149
2.67362e-149
-5.06767e-158
-7.13246e-147
7.10578e-147
-2.48405e-156
-2.27663e-144
2.26956e-144
-5.71908e-153
-8.96881e-142
8.94627e-142
-1.25253e-150
-4.51315e-139
4.5043e-139
-3.14405e-148
-3.03414e-136
3.0297e-136
1.22837e-146
-3.50226e-133
3.49864e-133
4.59444e-142
-7.76701e-130
7.76327e-130
-4.51154e-139
-1.46124e-126
2.32294e-126
-1.42176e-136
5.35134e-125
1.88785e-135
-9.80854e-14
-7.39446e-11
-1.46581e-17
-2.28146e-17
-3.27465e-13
-5.81839e-20
-2.5051e-24
-8.20139e-17
-1.0338e-23
-3.36097e-31
-6.45696e-24
-1.09701e-30
-4.07928e-40
-9.67131e-31
-1.22919e-37
-1.42237e-47
-1.11078e-39
-1.24003e-46
-1.40381e-53
-3.73062e-47
-3.53495e-54
-1.09115e-59
-3.35535e-53
-2.90595e-60
-7.51644e-74
-2.50211e-59
-1.92514e-66
-5.29117e-78
-1.58521e-73
-1.61417e-80
-1.30879e-82
-1.1069e-77
-1.63986e-84
-7.06054e-86
-2.56879e-82
-2.69971e-89
-2.12049e-88
-1.31321e-85
-4.3005e-93
-3.6956e-91
-3.64664e-88
-1.16117e-95
-6.88401e-95
-6.01068e-91
-2.65422e-98
-3.17757e-98
-1.12189e-94
-5.41086e-102
-2.01446e-102
-5.89431e-98
-2.31894e-105
-4.20385e-106
-2.82864e-102
-1.41345e-109
-3.59705e-111
-5.37504e-106
-2.24639e-113
-3.15665e-116
-4.2027e-111
-1.69512e-118
-1.65314e-121
-3.13644e-116
-1.36606e-123
-6.82891e-132
-1.43701e-121
-6.28622e-129
-4.73298e-137
-5.04961e-132
-2.3225e-139
-1.44521e-145
-4.75552e-137
-1.44531e-144
-2.52795e-153
-1.44891e-145
-3.96585e-153
-1.18506e-153
-2.33301e-154
-6.07472e-161
-1.22345e-153
1.38652e-154
-2.57232e-161
-1.42499e-153
3.47693e-154
-2.33641e-161
-1.89733e-153
6.84259e-154
-2.34628e-161
-3.03426e-153
1.39354e-153
-2.55802e-161
-6.34389e-153
3.52096e-153
-3.00051e-161
-1.81583e-152
1.25017e-152
-2.08284e-161
-1.5693e-151
1.41358e-151
-5.85516e-160
-2.17263e-149
2.15817e-149
-1.33102e-157
-4.30491e-147
4.28333e-147
-1.54566e-155
-9.83828e-145
9.79553e-145
-1.9397e-153
-2.63846e-142
2.6287e-142
-1.00579e-151
-8.49519e-140
8.46906e-140
-2.2188e-148
-3.37582e-137
3.36743e-137
-4.88948e-146
-1.71347e-134
1.71015e-134
-1.22963e-143
-1.16185e-131
1.16017e-131
6.20793e-142
-1.41338e-128
1.4121e-128
1.98914e-137
-2.87581e-125
2.87443e-125
-1.69076e-134
-5.73482e-122
9.10569e-122
-2.92552e-132
2.00528e-120
2.02582e-130
-1.12692e-13
-6.64062e-11
-1.35651e-17
-3.50247e-17
-3.4936e-13
-6.664e-20
-2.39085e-24
-1.14686e-16
-1.60642e-23
-4.59984e-31
-6.04118e-24
-9.725e-31
-5.79859e-40
-1.26743e-30
-1.55778e-37
-2.20029e-47
-1.517e-39
-1.6538e-46
-2.03984e-53
-5.58582e-47
-5.22861e-54
-1.66239e-59
-4.7053e-53
-4.09063e-60
-1.15438e-73
-3.65264e-59
-2.88303e-66
-9.17079e-78
-2.4636e-73
-2.85688e-80
-2.31007e-82
-1.86349e-77
-2.82751e-84
-1.29681e-85
-4.41157e-82
-4.72304e-89
-3.86953e-88
-2.34284e-85
-8.24351e-93
-7.02982e-91
-6.49048e-88
-2.20684e-95
-1.64458e-94
-1.08527e-90
-5.08019e-98
-1.25271e-97
-2.52945e-94
-1.3776e-101
-6.31821e-102
-2.08264e-97
-8.89421e-105
-1.24451e-105
-8.70734e-102
-4.39007e-109
-1.54994e-110
-1.38928e-105
-7.42531e-113
-2.08919e-115
-1.6931e-110
-7.45003e-118
-2.53024e-120
-2.03308e-115
-9.15877e-123
-9.19834e-130
-3.0553e-120
-9.69515e-128
-1.04587e-134
-9.25066e-130
-3.13985e-137
-5.96542e-143
-1.05062e-134
-3.19534e-142
-7.93922e-153
-5.97995e-143
-1.63396e-150
-5.03322e-153
-4.40228e-154
-1.84668e-160
-5.19071e-153
6.55964e-154
-1.08853e-160
-6.27635e-153
1.70713e-153
-1.0007e-160
-9.75229e-153
4.02692e-153
-1.10296e-160
-1.96213e-152
1.11782e-152
-1.5239e-160
-1.83082e-151
1.6678e-151
-1.01338e-159
-2.23903e-149
2.22194e-149
-2.89761e-158
-3.57186e-147
3.54962e-147
-1.41258e-155
-6.33708e-145
6.30159e-145
-3.97175e-153
-1.27036e-142
1.26407e-142
-4.6551e-151
-2.93105e-140
2.91846e-140
-6.02667e-149
-7.93606e-138
7.90704e-138
-3.28881e-147
-2.57984e-135
2.572e-135
-7.01416e-144
-1.03509e-132
1.03255e-132
-1.55653e-141
-5.30459e-130
5.29444e-130
-3.9258e-139
-3.63142e-127
3.62625e-127
2.43386e-137
-4.54929e-124
4.5456e-124
6.91807e-133
-8.43468e-121
8.43046e-121
-5.06441e-130
-1.84282e-117
2.92199e-117
6.91631e-129
6.14364e-116
1.13857e-125
-1.25424e-13
-5.89554e-11
-1.12521e-17
-4.91978e-17
-3.592e-13
-6.73837e-20
-2.36759e-24
-1.46949e-16
-2.18669e-23
-6.32608e-31
-5.76778e-24
-9.59466e-31
-8.28838e-40
-1.66881e-30
-2.14636e-37
-3.44745e-47
-2.08292e-39
-2.36089e-46
-3.0044e-53
-8.44495e-47
-8.23218e-54
-2.51241e-59
-6.71171e-53
-6.039e-60
-1.88824e-73
-5.29958e-59
-4.36899e-66
-1.61426e-77
-3.92512e-73
-4.61689e-80
-4.17159e-82
-3.18119e-77
-4.99441e-84
-2.41809e-85
-7.75706e-82
-8.46811e-89
-7.23358e-88
-4.23804e-85
-1.60656e-92
-1.33775e-90
-1.18219e-87
-4.31111e-95
-3.78883e-94
-2.0049e-90
-9.66692e-98
-3.8346e-97
-5.52801e-94
-3.32772e-101
-2.07227e-101
-5.48103e-97
-2.78318e-104
-3.52191e-105
-2.74925e-101
-1.42317e-108
-7.08988e-110
-3.73235e-105
-2.24212e-112
-1.76547e-114
-7.58824e-110
-3.59545e-117
-5.09745e-119
-1.86808e-114
-7.90769e-122
-1.42939e-127
-5.23533e-119
-1.9654e-126
-2.42713e-132
-1.43907e-127
-4.89286e-135
-2.59523e-140
-2.43763e-132
-7.41536e-140
-2.01144e-152
-2.60123e-140
-7.09357e-148
-1.48931e-152
-7.03076e-153
-4.617e-160
-1.61178e-152
2.23597e-153
-3.20741e-160
-2.16596e-152
7.46573e-153
-3.60114e-160
-2.0954e-151
1.91754e-151
-3.9633e-159
-2.47648e-149
2.45661e-149
-2.79357e-157
-3.44686e-147
3.42227e-147
-2.04148e-155
-5.10858e-145
5.07432e-145
-6.57107e-154
-8.24871e-143
8.19799e-143
-3.33712e-151
-1.47867e-140
1.47049e-140
-9.55758e-149
-2.99513e-138
2.98047e-138
-1.12595e-146
-6.98301e-136
6.95338e-136
-1.49877e-144
-1.91066e-133
1.90376e-133
-8.6013e-143
-6.27713e-131
6.25832e-131
-1.77846e-139
-2.54542e-128
2.53927e-128
-3.98092e-137
-1.31845e-125
1.31597e-125
-1.01051e-134
-9.12223e-123
9.1095e-123
7.0669e-133
-1.16218e-119
1.16131e-119
1.88381e-128
-1.93571e-116
1.93464e-116
-1.19817e-125
-4.7768e-113
7.56224e-113
2.34554e-123
1.51598e-111
3.85881e-121
-1.34509e-13
-5.17052e-11
-1.00868e-17
-6.36251e-17
-3.5518e-13
-6.63782e-20
-2.5146e-24
-1.7335e-16
-2.65994e-23
-8.74749e-31
-6.42104e-24
-9.47746e-31
-1.19209e-39
-2.20912e-30
-2.80185e-37
-5.43169e-47
-2.87754e-39
-3.27174e-46
-4.53348e-53
-1.27924e-46
-1.27318e-53
-3.80252e-59
-9.85272e-53
-9.01201e-60
-3.03611e-73
-7.72993e-59
-6.57739e-66
-2.88157e-77
-6.36844e-73
-7.35392e-80
-7.72616e-82
-5.4989e-77
-8.94557e-84
-4.57564e-85
-1.39871e-81
-1.55283e-88
-1.38073e-87
-7.77087e-85
-3.17093e-92
-2.69579e-90
-2.19107e-87
-8.59996e-95
-8.71998e-94
-4.02729e-90
-1.92865e-97
-9.40612e-97
-1.22531e-93
-7.77357e-101
-6.99865e-101
-1.17657e-96
-7.07561e-104
-1.23428e-104
-8.97253e-101
-4.93267e-108
-3.85003e-109
-1.47481e-104
-7.58125e-112
-1.95606e-113
-4.21989e-109
-2.06892e-116
-6.64238e-118
-2.03787e-113
-8.84463e-121
-2.33437e-125
-4.29828e-118
-2.57338e-125
-5.92973e-130
-2.34981e-125
-8.00602e-133
-1.19364e-137
-5.95408e-130
-1.81077e-137
-1.11862e-150
-1.19625e-137
-3.25483e-145
-5.89091e-151
-5.27896e-151
-2.71325e-158
-7.0389e-151
1.17373e-151
-1.26661e-158
-2.25427e-149
2.18461e-149
-8.61476e-157
-3.15998e-147
3.13759e-147
-6.47877e-155
-4.33534e-145
4.30393e-145
-5.0153e-153
-6.10806e-143
6.06505e-143
-3.71395e-151
-9.15313e-141
9.09252e-141
-1.22106e-149
-1.49448e-138
1.48541e-138
-6.22068e-147
-2.70924e-136
2.69445e-136
-1.81597e-144
-5.5501e-134
5.52332e-134
-2.15251e-142
-1.30881e-131
1.30334e-131
-2.93992e-140
-3.62254e-129
3.60966e-129
-1.76797e-138
-1.20401e-126
1.20046e-126
-3.55891e-135
-4.93979e-124
4.92804e-124
-8.05043e-133
-2.58892e-121
2.58414e-121
-2.0614e-130
-1.81244e-118
1.80997e-118
1.57889e-128
-2.4053e-115
2.40289e-115
4.00774e-124
-3.43728e-112
3.4351e-112
-2.18466e-121
-9.83345e-109
1.55394e-108
9.92401e-119
2.96579e-107
1.02215e-116
-1.39406e-13
-4.47524e-11
-8.19769e-18
-7.61179e-17
-3.40898e-13
-6.1854e-20
-4.80377e-24
-1.89283e-16
-3.05985e-23
-1.21671e-30
-1.80085e-23
-1.81641e-30
-1.72644e-39
-2.9419e-30
-3.90599e-37
-8.54086e-47
-4.00335e-39
-4.69371e-46
-7.0887e-53
-1.92711e-46
-1.9861e-53
-5.84628e-59
-1.5058e-52
-1.3987e-59
-5.75398e-73
-1.15263e-58
-1.0071e-65
-5.21491e-77
-1.10388e-72
-1.32166e-79
-1.46797e-81
-9.62669e-77
-1.62965e-83
-8.79158e-85
-2.58389e-81
-2.92485e-88
-2.67401e-87
-1.44575e-84
-6.35548e-92
-6.00965e-90
-4.10127e-87
-1.73941e-94
-2.10795e-93
-9.07499e-90
-4.23818e-97
-2.09984e-96
-2.92017e-93
-1.83951e-100
-2.49152e-100
-2.44237e-96
-1.61918e-103
-6.57513e-104
-3.12942e-100
-1.86088e-107
-2.54856e-108
-8.94366e-104
-3.53409e-111
-2.24475e-112
-2.75124e-108
-1.39228e-115
-6.64327e-117
-1.99717e-112
-1.00895e-119
-4.01578e-123
-4.8382e-117
-2.58206e-124
-1.52904e-127
-4.04197e-123
-1.37857e-130
-5.82311e-135
-1.53499e-127
-4.66443e-135
-3.22391e-147
-5.8351e-135
-1.58349e-142
-3.15837e-147
-1.92769e-148
-7.78942e-155
-4.65651e-147
1.49809e-147
-1.61155e-154
-2.92846e-145
2.88203e-145
-1.16404e-152
-4.21023e-143
4.18118e-143
-8.85604e-151
-5.84138e-141
5.79963e-141
-6.93858e-149
-8.32619e-139
8.26838e-139
-5.22464e-147
-1.26262e-136
1.25438e-136
-1.81423e-145
-2.08652e-134
2.07404e-134
-9.01363e-143
-3.82881e-132
3.80823e-132
-2.65719e-140
-7.94065e-130
7.90294e-130
-3.18966e-138
-1.89596e-127
1.88816e-127
-4.466e-136
-5.31397e-125
5.2954e-125
-2.78826e-134
-1.78876e-122
1.78359e-122
-5.51608e-131
-7.43376e-120
7.41644e-120
-1.2636e-128
-3.94675e-117
3.93963e-117
-3.27445e-126
-2.79911e-114
2.79539e-114
2.63713e-124
-4.38671e-111
4.38274e-111
6.77724e-120
-4.7741e-108
4.77012e-108
-3.05389e-117
-1.58156e-104
2.49405e-104
2.29963e-114
4.52483e-103
1.90642e-112
-1.41294e-13
-3.81866e-11
-8.44138e-18
-8.48769e-17
-3.22983e-13
-6.347e-20
-2.22012e-23
-1.9347e-16
-3.47539e-23
-1.7029e-30
-9.22037e-23
-7.78807e-30
-2.51971e-39
-3.9434e-30
-5.08921e-37
-1.33177e-46
-5.61473e-39
-6.5427e-46
-1.15865e-52
-2.87087e-46
-3.02363e-53
-9.30625e-59
-2.41258e-52
-2.25672e-59
-1.06354e-72
-1.79501e-58
-1.59187e-65
-9.58861e-77
-1.98372e-72
-2.48379e-79
-2.85624e-81
-1.71224e-76
-3.00099e-83
-1.71894e-84
-4.87674e-81
-5.61689e-88
-5.22742e-87
-2.73677e-84
-1.29035e-91
-1.47171e-89
-7.7203e-87
-3.53389e-94
-5.6093e-93
-2.20827e-89
-1.02749e-96
-5.19386e-96
-7.80541e-93
-4.63736e-100
-9.56713e-100
-6.3549e-96
-3.94176e-103
-4.06047e-103
-1.17568e-99
-7.38677e-107
-1.87583e-107
-5.01634e-103
-2.05491e-110
-2.55209e-111
-1.85116e-107
-1.01356e-114
-1.38496e-115
-2.18922e-111
-1.15218e-118
-7.29479e-121
-2.47167e-115
-5.39203e-123
-4.17287e-125
-7.34255e-121
-2.50427e-128
-3.02365e-132
-4.18821e-125
-1.27102e-132
-1.05406e-143
-3.0295e-132
-8.19713e-140
-9.72675e-144
-8.70477e-145
-2.53612e-151
-2.46581e-143
1.49315e-143
-1.62777e-150
-2.89975e-141
2.87528e-141
-1.1898e-148
-4.24317e-139
4.2145e-139
-9.16294e-147
-5.95775e-137
5.9158e-137
-7.2786e-145
-8.59881e-135
8.54005e-135
-5.59341e-143
-1.32077e-132
1.31229e-132
-2.07041e-141
-2.21119e-130
2.19819e-130
-9.94682e-139
-4.11143e-128
4.08972e-128
-2.95468e-136
-8.64135e-126
8.60106e-126
-3.60596e-134
-2.09134e-123
2.08291e-123
-5.16531e-132
-5.94243e-121
5.9221e-121
-3.33747e-130
-2.02828e-118
2.02254e-118
-6.52862e-127
-8.54849e-116
8.52908e-116
-1.51768e-124
-4.60353e-113
4.59546e-113
-3.98708e-122
-3.31186e-110
3.30761e-110
3.3693e-120
-5.95609e-107
5.95212e-107
9.98147e-116
-5.43817e-104
5.43279e-104
-3.26275e-113
-1.95359e-100
3.07326e-100
3.9716e-110
5.29139e-99
2.81627e-108
-1.41761e-13
-3.20916e-11
-6.80669e-18
-8.9445e-17
-3.03167e-13
-5.94422e-20
-9.37401e-23
-1.88727e-16
-3.52594e-23
-2.39888e-30
-3.24178e-22
-3.24361e-29
-3.70949e-39
-5.32332e-30
-7.08375e-37
-2.05147e-46
-7.9482e-39
-9.49574e-46
-1.98194e-52
-4.21867e-46
-4.60085e-53
-1.5657e-58
-4.04051e-52
-3.82423e-59
-1.91939e-72
-2.98066e-58
-2.66314e-65
-1.80126e-76
-3.59427e-72
-4.40258e-79
-5.67855e-81
-3.11593e-76
-5.63115e-83
-3.43345e-84
-9.38019e-81
-1.10424e-87
-1.03238e-86
-5.29456e-84
-2.67731e-91
-3.71687e-89
-1.46701e-86
-7.23921e-94
-1.65585e-92
-5.34119e-89
-2.59629e-96
-1.77632e-95
-2.29597e-92
-1.27994e-99
-3.93688e-99
-2.49859e-95
-1.23264e-102
-2.07067e-102
-4.65653e-99
-2.90537e-106
-1.49245e-106
-2.09318e-102
-1.10001e-109
-3.77698e-110
-1.40754e-106
-8.21228e-114
-4.16305e-114
-4.17526e-110
-1.7466e-117
-1.40293e-118
-6.09617e-114
-1.62109e-121
-1.20879e-122
-1.4124e-118
-4.81228e-126
-1.67734e-129
-1.21298e-122
-3.67488e-130
-3.71728e-140
-1.68038e-129
-4.5325e-137
-3.14951e-140
-5.83334e-141
-8.90503e-148
-1.4157e-139
1.10073e-139
-1.21708e-146
-2.13863e-137
2.12466e-137
-9.01084e-145
-3.16964e-135
3.14859e-135
-7.033e-143
-4.50747e-133
4.47628e-133
-5.67331e-141
-6.59353e-131
6.5493e-131
-4.46307e-139
-1.02683e-128
1.02036e-128
-1.76942e-137
-1.74341e-126
1.73337e-126
-8.21546e-135
-3.28825e-124
3.27124e-124
-2.44721e-132
-7.01197e-122
6.98e-122
-3.04633e-130
-1.72212e-119
1.71533e-119
-4.46374e-128
-4.96683e-117
4.95027e-117
-2.95349e-126
-1.72116e-114
1.71642e-114
-5.78235e-123
-7.36644e-112
7.35023e-112
-1.36657e-120
-4.02921e-109
4.0224e-109
-3.6492e-118
-2.9445e-106
2.94089e-106
3.16752e-116
-5.73563e-103
5.73282e-103
1.07217e-111
-4.98574e-100
4.983e-100
-2.82387e-109
-1.82037e-96
2.85568e-96
4.69303e-106
4.6577e-95
2.96722e-104
-1.38097e-13
-2.65394e-11
-5.76935e-18
-9.08286e-17
-2.72495e-13
-5.56629e-20
-2.54964e-22
-1.79515e-16
-3.37708e-23
-3.40213e-30
-7.05554e-22
-8.45468e-29
-5.5148e-39
-7.24141e-30
-9.75328e-37
-3.12167e-46
-1.13729e-38
-1.38252e-45
-3.51356e-52
-6.12553e-46
-6.88892e-53
-2.82203e-58
-6.97068e-52
-6.68471e-59
-3.65629e-72
-5.32199e-58
-4.73728e-65
-3.48952e-76
-6.61232e-72
-8.15666e-79
-1.15358e-80
-5.86478e-76
-1.06883e-82
-7.0429e-84
-1.84037e-80
-2.19883e-87
-2.0803e-86
-1.05247e-83
-5.66503e-91
-9.07412e-89
-2.8541e-86
-1.5074e-93
-5.15999e-92
-1.21419e-88
-6.37706e-96
-7.87683e-95
-6.8822e-92
-3.78366e-99
-1.71573e-98
-1.10636e-94
-4.85358e-102
-9.20402e-102
-1.93806e-98
-1.12646e-105
-1.47771e-105
-8.49248e-102
-5.11142e-109
-7.48163e-109
-1.6072e-105
-8.46732e-113
-4.47704e-113
-9.23829e-109
-3.40887e-116
-2.86456e-116
-2.23903e-113
-1.74126e-120
-3.72836e-120
-2.88523e-116
-9.81061e-124
-9.98044e-127
-3.7405e-120
-1.13103e-127
-1.36907e-136
-9.9973e-127
-2.688e-134
-1.08463e-136
-2.90226e-137
-3.26538e-144
-6.96823e-136
5.88358e-136
-6.5994e-143
-1.14581e-133
1.13899e-133
-4.95407e-141
-1.71899e-131
1.70779e-131
-3.92329e-139
-2.47811e-129
2.46132e-129
-3.21844e-137
-3.67767e-127
3.65354e-127
-2.59586e-135
-5.81312e-125
5.77736e-125
-1.10452e-133
-1.00208e-122
9.96448e-123
-4.95275e-131
-1.91942e-120
1.90975e-120
-1.48348e-128
-4.15776e-118
4.13932e-118
-1.88433e-126
-1.03755e-115
1.03358e-115
-2.81841e-124
-3.04137e-113
3.03155e-113
-1.9101e-122
-1.07146e-110
1.06862e-110
-3.76186e-119
-4.66339e-108
4.65354e-108
-9.05239e-117
-2.59453e-105
2.59035e-105
-2.45984e-114
-1.92894e-102
1.92672e-102
2.21772e-112
-3.93707e-99
3.93563e-99
8.03051e-108
-3.38042e-96
3.38055e-96
-1.92048e-105
-1.25578e-92
1.96368e-92
4.1611e-102
3.02808e-91
2.3971e-100
-1.27215e-13
-2.15836e-11
-5.2059e-18
-9.05439e-17
-2.30475e-13
-5.13793e-20
-4.68382e-22
-1.68583e-16
-3.24191e-23
-4.85951e-30
-1.06307e-21
-1.51218e-28
-8.29099e-39
-9.93453e-30
-1.34808e-36
-4.71513e-46
-1.64772e-38
-2.01991e-45
-6.33638e-52
-8.85222e-46
-1.0202e-52
-5.42114e-58
-1.21222e-51
-1.19277e-58
-6.82227e-72
-1.00629e-57
-9.0499e-65
-7.05639e-76
-1.20592e-71
-1.52811e-78
-2.40693e-80
-1.15659e-75
-2.10772e-82
-1.49232e-83
-3.70983e-80
-4.52429e-87
-4.35926e-86
-2.16142e-83
-1.24025e-90
-2.10702e-88
-5.81548e-86
-3.27714e-93
-1.59359e-91
-2.61283e-88
-1.49474e-95
-3.20179e-94
-1.97823e-91
-1.14231e-98
-8.07396e-98
-3.82499e-94
-1.83149e-101
-4.9782e-101
-8.80029e-98
-4.68227e-105
-1.927e-104
-5.3758e-101
-2.50921e-108
-1.09506e-107
-2.29864e-104
-1.03963e-111
-3.25874e-111
-7.52333e-108
-4.70384e-115
-6.22851e-114
-3.35503e-111
-1.26437e-118
-1.22854e-117
-6.27887e-114
-2.12848e-121
-6.39695e-124
-1.23229e-117
-3.71817e-125
-8.76789e-133
-6.40699e-124
-1.71722e-131
-3.96116e-133
-2.51521e-134
-1.78172e-140
-2.70347e-132
2.30744e-132
-2.62622e-139
-4.50842e-130
4.48224e-130
-2.00107e-137
-6.84927e-128
6.80567e-128
-1.60979e-135
-1.00197e-125
9.95349e-126
-1.34459e-133
-1.51026e-123
1.50062e-123
-1.11299e-131
-2.42578e-121
2.41127e-121
-5.03128e-130
-4.25073e-119
4.22753e-119
-2.21047e-127
-8.27915e-117
8.2387e-117
-6.65568e-125
-1.82414e-114
1.81631e-114
-8.63808e-123
-4.63154e-112
4.61445e-112
-1.32002e-120
-1.3818e-109
1.37751e-109
-9.07865e-119
-4.95627e-107
4.94368e-107
-1.81932e-115
-2.19699e-104
2.19259e-104
-4.46456e-113
-1.24528e-101
1.2434e-101
-1.23764e-110
-9.43439e-99
9.42438e-99
1.14246e-108
-1.99321e-95
1.99266e-95
4.34527e-104
-1.64022e-92
1.77548e-92
-1.01947e-101
-6.28888e-89
9.79772e-89
2.54378e-98
1.42537e-87
1.35163e-96
-1.101e-13
-1.72558e-11
-4.24437e-18
-8.68666e-17
-1.84291e-13
-4.23716e-20
-6.43465e-22
-1.47621e-16
-2.97053e-23
-6.99625e-30
-1.2424e-21
-2.05618e-28
-1.26271e-38
-1.37626e-29
-1.93835e-36
-7.14742e-46
-2.4222e-38
-3.07276e-45
-1.13918e-51
-1.29134e-45
-1.53643e-52
-1.08056e-57
-2.08309e-51
-2.11616e-58
-1.37433e-71
-1.94464e-57
-1.77087e-64
-1.50741e-75
-2.26815e-71
-2.86147e-78
-5.22211e-80
-2.41655e-75
-4.27384e-82
-3.28582e-83
-7.80061e-80
-9.61227e-87
-9.72119e-86
-4.60904e-83
-2.79798e-90
-4.85873e-88
-1.26942e-85
-7.59856e-93
-4.81675e-91
-5.71565e-88
-3.49019e-95
-1.04899e-93
-5.54563e-91
-3.46951e-98
-4.28058e-97
-1.04405e-93
-5.83642e-101
-4.10687e-100
-4.6308e-97
-2.35814e-104
-2.26529e-103
-4.8098e-100
-1.61944e-107
-1.23367e-106
-2.41686e-103
-1.04404e-110
-5.55675e-109
-8.17052e-107
-5.27663e-114
-1.44682e-111
-5.76424e-109
-2.14834e-116
-4.34025e-115
-1.46067e-111
-4.93058e-119
-4.43693e-121
-4.35269e-115
-1.31031e-122
-2.10112e-129
-4.44336e-121
-1.18722e-128
-7.33103e-130
-3.4302e-131
-4.25098e-137
-8.93692e-129
8.20509e-129
-9.48099e-136
-1.60876e-126
1.60025e-126
-7.34151e-134
-2.47842e-124
2.46301e-124
-6.00678e-132
-3.68354e-122
3.65977e-122
-5.11445e-130
-5.64625e-120
5.61104e-120
-4.34665e-128
-9.22782e-118
9.17396e-118
-2.07907e-126
-1.646e-115
1.63724e-115
-9.00224e-124
-3.26458e-113
3.24904e-113
-2.73769e-121
-7.32699e-111
7.2964e-111
-3.63189e-119
-1.89571e-108
1.88892e-108
-5.66289e-117
-5.76547e-106
5.74813e-106
-3.96628e-115
-2.10892e-103
2.10375e-103
-8.10825e-112
-9.53721e-101
9.51882e-101
-2.03216e-109
-5.51713e-98
5.50917e-98
-5.75205e-107
-4.26719e-95
4.26292e-95
5.54303e-105
-9.21618e-92
9.21403e-92
2.15604e-100
-9.00459e-89
1.04259e-88
-6.01639e-98
-2.23991e-85
3.47447e-85
1.12704e-94
4.75798e-84
5.58799e-93
-9.02617e-14
-1.3566e-11
-3.82755e-18
-7.56895e-17
-1.4125e-13
-3.53755e-20
-7.26515e-22
-1.178e-16
-2.50536e-23
-1.01668e-29
-1.24241e-21
-2.26686e-28
-1.95245e-38
-1.92897e-29
-2.74131e-36
-1.10724e-45
-3.62185e-38
-4.63037e-45
-2.01414e-51
-1.94386e-45
-2.33583e-52
-2.15731e-57
-3.50068e-51
-3.69075e-58
-2.69572e-71
-3.70276e-57
-3.49702e-64
-3.42781e-75
-4.29699e-71
-5.53064e-78
-1.20109e-79
-5.37329e-75
-9.23898e-82
-7.56772e-83
-1.74792e-79
-2.19857e-86
-2.34642e-85
-1.02636e-82
-6.61105e-90
-1.22316e-87
-2.99702e-85
-1.91716e-92
-1.51721e-90
-1.436e-87
-8.99613e-95
-3.25428e-93
-1.67643e-90
-1.11872e-97
-2.62125e-96
-3.12138e-93
-1.83002e-100
-3.44136e-99
-2.87102e-96
-1.48914e-103
-1.9223e-102
-3.25942e-99
-1.22839e-106
-1.02834e-104
-1.16732e-102
-7.947e-110
-1.01328e-106
-1.1126e-104
-4.50941e-112
-3.60299e-109
-1.06209e-106
-3.89945e-114
-1.65031e-112
-3.64621e-109
-1.22375e-116
-3.34673e-118
-1.65477e-112
-4.9688e-120
-2.69131e-126
-3.35119e-118
-8.926e-126
-6.14029e-127
-3.06111e-128
-5.61355e-134
-1.9887e-125
1.92793e-125
-2.26369e-132
-3.7962e-123
3.77792e-123
-1.78346e-130
-5.93572e-121
5.90033e-121
-1.48584e-128
-8.97312e-119
8.91763e-119
-1.29085e-126
-1.40048e-116
1.39212e-116
-1.12663e-124
-2.33198e-114
2.31898e-114
-5.64809e-123
-4.24002e-112
4.21854e-112
-2.44218e-120
-8.57544e-110
8.53673e-110
-7.51834e-118
-1.96346e-107
1.95572e-107
-1.02078e-115
-5.18459e-105
5.16715e-105
-1.62722e-113
-1.60994e-102
1.60544e-102
-1.15281e-111
-6.01546e-100
6.00189e-100
-2.42626e-108
-2.78014e-97
2.7753e-97
-6.21945e-106
-1.64435e-94
1.64227e-94
-1.80194e-103
-1.30084e-91
1.29976e-91
1.79146e-101
-2.86833e-88
2.86804e-88
7.12601e-97
-3.15756e-85
3.77378e-85
-2.20697e-94
-5.55372e-82
8.57186e-82
3.36476e-91
1.10207e-80
1.56061e-89
-7.09165e-14
-1.05014e-11
-3.10883e-18
-6.10898e-17
-1.04658e-13
-2.78061e-20
-7.34956e-22
-8.91967e-17
-1.98484e-23
-1.49477e-29
-1.16038e-21
-2.34556e-28
-3.07337e-38
-2.74347e-29
-4.11444e-36
-1.79641e-45
-5.5247e-38
-7.32054e-45
-3.49732e-51
-3.10323e-45
-3.76334e-52
-4.20892e-57
-5.77545e-51
-6.30868e-58
-5.46114e-71
-6.81622e-57
-6.68165e-64
-8.30059e-75
-8.4045e-71
-1.09663e-77
-2.99457e-79
-1.26663e-74
-2.10454e-81
-1.84079e-82
-4.26346e-79
-5.49309e-86
-6.15094e-85
-2.40883e-82
-1.63805e-89
-3.73991e-87
-7.59662e-85
-5.23029e-92
-5.58656e-90
-4.54595e-87
-2.85476e-94
-1.37285e-92
-6.21697e-90
-4.24414e-97
-1.76645e-95
-1.60629e-92
-8.17797e-100
-2.25359e-98
-1.7938e-95
-1.03678e-102
-6.77779e-101
-1.50179e-98
-9.02376e-106
-1.97766e-102
-5.81172e-101
-3.29806e-108
-1.98275e-104
-2.06046e-102
-6.75535e-110
-9.65495e-107
-2.10696e-104
-7.58647e-112
-6.78171e-110
-9.80814e-107
-3.26591e-114
-2.75992e-115
-6.79912e-110
-2.03553e-117
-2.94962e-123
-2.76329e-115
-7.33564e-123
-3.7127e-124
-1.89935e-125
-6.49235e-131
-2.97706e-122
2.94196e-122
-3.51393e-129
-5.82375e-120
5.79821e-120
-2.82065e-127
-9.25157e-118
9.19989e-118
-2.39585e-125
-1.42446e-115
1.4162e-115
-2.12571e-123
-2.26693e-113
2.25427e-113
-1.90525e-121
-3.85163e-111
3.83158e-111
-9.97011e-120
-7.14946e-109
7.11578e-109
-4.33024e-117
-1.47689e-106
1.47073e-106
-1.3592e-114
-3.45541e-104
3.44291e-104
-1.88858e-112
-9.32786e-102
9.2994e-102
-3.07603e-110
-2.96268e-99
2.95526e-99
-2.21881e-108
-1.13286e-96
1.13063e-96
-4.80684e-105
-5.36104e-94
5.35316e-94
-1.26189e-102
-3.24851e-91
3.24524e-91
-3.74451e-100
-2.63409e-88
2.63256e-88
3.94333e-98
-5.93583e-85
5.93634e-85
1.56967e-93
-7.17194e-82
8.71405e-82
-5.11077e-91
-9.37384e-79
1.43856e-78
6.97855e-88
1.73137e-77
3.04509e-86
-5.3661e-14
-8.02406e-12
-2.49488e-18
-4.7276e-17
-7.51247e-14
-2.10145e-20
-6.7781e-22
-6.5852e-17
-1.48885e-23
-2.23152e-29
-8.763e-22
-2.11877e-28
-4.94139e-38
-3.9757e-29
-6.05948e-36
-3.12607e-45
-8.62606e-38
-1.15784e-44
-6.04881e-51
-5.36728e-45
-6.44352e-52
-8.01094e-57
-9.55504e-51
-1.07192e-57
-1.15792e-70
-1.22293e-56
-1.25007e-63
-2.13135e-74
-1.73996e-70
-2.31968e-77
-8.2413e-79
-3.14428e-74
-5.15031e-81
-4.80849e-82
-1.14591e-78
-1.54996e-85
-1.74978e-84
-6.05983e-82
-4.35594e-89
-1.401e-86
-2.05632e-84
-1.53356e-91
-2.60335e-89
-1.67364e-86
-1.10737e-93
-9.14956e-92
-2.91937e-89
-2.01037e-96
-1.16808e-94
-1.07766e-91
-5.79344e-99
-2.69305e-97
-9.62763e-95
-6.82712e-102
-1.30706e-98
-2.20733e-97
-1.40658e-104
-3.59146e-100
-1.32479e-98
-4.22863e-106
-4.17088e-102
-3.70609e-100
-1.09165e-107
-2.79533e-104
-4.37655e-102
-1.58465e-109
-3.02528e-107
-2.85671e-104
-9.40787e-112
-2.50266e-112
-3.03288e-107
-9.04596e-115
-3.06881e-120
-2.50544e-112
-6.6261e-120
-3.78391e-121
-6.09868e-123
-6.65369e-128
-2.89069e-119
2.85696e-119
-3.47581e-126
-5.69148e-117
5.66994e-117
-2.8469e-124
-9.19773e-115
9.15194e-115
-2.46879e-122
-1.44452e-112
1.43699e-112
-2.23922e-120
-2.34771e-110
2.33594e-110
-2.06169e-118
-4.0767e-108
4.05772e-108
-1.11687e-116
-7.73837e-106
7.70599e-106
-4.93424e-114
-1.63555e-103
1.62955e-103
-1.58537e-111
-3.9172e-101
3.90493e-101
-2.2566e-109
-1.08305e-98
1.08025e-98
-3.7662e-107
-3.52524e-96
3.51799e-96
-2.75412e-105
-1.38224e-93
1.3801e-93
-6.18425e-102
-6.71167e-91
6.70455e-91
-1.66596e-99
-4.17561e-88
4.17307e-88
-5.07756e-97
-3.47836e-85
3.47767e-85
5.59959e-95
-8.06284e-82
8.06589e-82
2.26079e-90
-1.0494e-78
1.28581e-78
-7.61457e-88
-1.05215e-75
1.6042e-75
9.43009e-85
1.80132e-74
3.86215e-83
-3.91747e-14
-6.0734e-12
-1.99563e-18
-3.5724e-17
-5.2515e-14
-1.5629e-20
-4.46847e-22
-4.78151e-17
-1.15479e-23
-3.39938e-29
-4.48187e-22
-1.38943e-28
-8.14718e-38
-5.90154e-29
-9.18128e-36
-5.88048e-45
-1.38392e-37
-1.89702e-44
-1.07574e-50
-1.00176e-44
-1.20534e-51
-1.52757e-56
-1.65162e-50
-1.88883e-57
-2.63079e-70
-2.22644e-56
-2.35011e-63
-5.80028e-74
-3.89146e-70
-5.27866e-77
-2.52854e-78
-8.23137e-74
-1.33495e-80
-1.3883e-81
-3.40028e-78
-4.91273e-85
-5.52685e-84
-1.68242e-81
-1.27015e-88
-5.72795e-86
-6.14111e-84
-4.91195e-91
-1.46898e-88
-6.0831e-86
-4.59063e-93
-5.83224e-91
-1.56887e-88
-1.13267e-95
-8.86919e-94
-5.16038e-91
-3.76633e-98
-3.4343e-95
-6.38356e-94
-5.20096e-101
-2.01692e-96
-3.37351e-95
-1.25562e-102
-6.78854e-98
-2.02528e-96
-5.93037e-104
-1.15666e-99
-6.92758e-98
-1.90256e-105
-8.78226e-102
-1.19626e-99
-3.57533e-107
-1.47208e-104
-9.05925e-102
-2.93722e-109
-2.5109e-109
-1.47592e-104
-4.38093e-112
-3.73925e-117
-2.51342e-109
-6.61689e-117
-9.8668e-118
1.01697e-119
-7.52555e-125
-1.81883e-116
1.72537e-116
-2.1414e-123
-3.46279e-114
3.45292e-114
-1.79258e-121
-5.70044e-112
5.67806e-112
-1.5894e-119
-9.14662e-110
9.10796e-110
-1.47541e-117
-1.52071e-107
1.51449e-107
-1.39575e-115
-2.70349e-105
2.69327e-105
-7.79865e-114
-5.25722e-103
5.23962e-103
-3.53448e-111
-1.13897e-100
1.1357e-100
-1.16729e-108
-2.7978e-98
2.79117e-98
-1.70364e-106
-7.93855e-96
7.92384e-96
-2.91495e-104
-2.65344e-93
2.64985e-93
-2.18008e-102
-1.06913e-90
1.0682e-90
-5.06181e-99
-5.33857e-88
5.33641e-88
-1.40169e-96