/*--------------------------------*- C++ -*----------------------------------*\
| =========                 |                                                 |
| \\      /  F ield         | OpenFOAM: The Open Source CFD Toolbox           |
|  \\    /   O peration     | Version:  v2012                                 |
|   \\  /    A nd           | Website:  www.openfoam.com                      |
|    \\/     M anipulation  |                                                 |
\*---------------------------------------------------------------------------*/
FoamFile
{
    version     2.0;
    format      ascii;
    class       volScalarField;
    location    "0.15";
    object      alpha.water;
}
// * * * * * * * * * * * * * * * * * * * * * * * * * * * * * * * * * * * * * //

dimensions      [0 0 0 0 0 0 0];


internalField   nonuniform List<scalar> 
3326
(
4.1699e-66
1.01054e-63
6.16621e-62
5.59998e-59
3.01246e-53
7.31963e-51
1.18e-49
3.26738e-49
7.09667e-57
1.53459e-72
2.26836e-70
3.84823e-68
1.48359e-65
3.56619e-63
5.40574e-61
2.00464e-58
1.22543e-52
1.27554e-50
1.38094e-49
3.15384e-49
3.86217e-58
0.000372972
3.14577e-06
8.99076e-10
5.6308e-17
2.55166e-24
2.73273e-33
3.19745e-35
4.74691e-37
7.8524e-39
1.35758e-40
2.3878e-42
4.1903e-44
7.25856e-46
1.23291e-47
2.01427e-49
3.07309e-51
4.09067e-53
3.47953e-55
1.11957e-57
1.97862e-60
1.30784e-63
2.09329e-66
5.53441e-70
4.51404e-71
1.14699e-70
2.24652e-70
3.01091e-70
1.21858e-70
9.90174e-72
1.16141e-75
2.8804e-76
6.55976e-76
3.67839e-74
8.55191e-72
1.25893e-69
2.13435e-67
4.27594e-65
1.03015e-62
1.56959e-60
5.87705e-58
3.81367e-52
2.05461e-50
1.56854e-49
3.03598e-49
1.99018e-59
0.000347695
3.39612e-06
1.19115e-09
5.61741e-17
3.45178e-24
3.71078e-33
4.42954e-35
6.87655e-37
1.18711e-38
2.1279e-40
3.86689e-42
7.00271e-44
1.25425e-45
2.20728e-47
3.75317e-49
5.9698e-51
8.18424e-53
7.34821e-55
2.33689e-57
4.34037e-60
3.62169e-63
5.98585e-66
1.35506e-69
1.72719e-71
4.05072e-73
5.86975e-73
9.42827e-73
1.05311e-72
1.34128e-74
1.58105e-75
8.73145e-76
3.10009e-75
2.58241e-73
3.32509e-71
4.91727e-69
8.43967e-67
1.70778e-64
1.02676e-62
6.39557e-60
9.55567e-55
9.98417e-52
3.10037e-50
1.73725e-49
2.91853e-49
1.19012e-59
0.000322599
3.58215e-06
1.48821e-09
5.86829e-17
4.70672e-24
5.07527e-33
6.18751e-35
1.01013e-36
1.81872e-38
3.3731e-40
6.32024e-42
1.1804e-43
2.18751e-45
3.99574e-47
7.08445e-49
1.18121e-50
1.67755e-52
1.60248e-54
5.02967e-57
9.77982e-60
1.26098e-62
1.66521e-65
3.25657e-69
3.9742e-71
4.94538e-73
4.9466e-75
7.36061e-75
4.39949e-75
2.63586e-75
2.52176e-75
2.62528e-75
1.36258e-74
1.28635e-72
1.67638e-70
2.50531e-68
4.3445e-66
8.87981e-64
1.12407e-61
3.38367e-59
9.86039e-54
2.29719e-51
4.42723e-50
1.88554e-49
2.79939e-49
9.59769e-60
0.000297806
3.70642e-06
1.75974e-09
8.9021e-17
6.47272e-24
6.99709e-33
8.72226e-35
1.50334e-36
2.81696e-38
5.39103e-40
1.04003e-41
2.00537e-43
3.85816e-45
7.33856e-47
1.35663e-48
2.37374e-50
3.5304e-52
3.61557e-54
1.11973e-56
2.28084e-59
4.98759e-62
4.86963e-65
1.01076e-68
7.60794e-71
1.1533e-72
4.93169e-75
4.93429e-75
4.38243e-75
3.58162e-75
3.59291e-75
4.02572e-75
4.87526e-74
5.27405e-72
6.95732e-70
1.05102e-67
1.84209e-65
3.77369e-63
4.85464e-61
1.48159e-58
5.20589e-53
4.78912e-51
6.04366e-50
1.99996e-49
2.62346e-49
6.67875e-60
0.000273471
3.7842e-06
1.98133e-09
3.16405e-16
8.98183e-24
9.73174e-33
1.24167e-34
2.2616e-36
4.39399e-38
8.65659e-40
1.72095e-41
3.44842e-43
6.97909e-45
1.39412e-46
2.6759e-48
4.84951e-50
7.63954e-52
8.39857e-54
2.58237e-56
5.55731e-59
1.92893e-61
1.65214e-64
4.21324e-68
1.54576e-70
2.15263e-72
3.19893e-74
4.93169e-75
5.1616e-75
4.4743e-75
4.03476e-75
5.44417e-75
1.52712e-73
1.75609e-71
2.34489e-69
3.58401e-67
6.35584e-65
6.83244e-63
1.71198e-60
1.02256e-57
2.02698e-52
9.18533e-51
7.8834e-50
2.07165e-49
2.49348e-49
3.26913e-60
0.000249757
3.82935e-06
2.14397e-09
1.33436e-15
1.25818e-23
1.36655e-32
1.78604e-34
3.42759e-36
6.87181e-38
1.39321e-39
2.87604e-41
6.13655e-43
1.3232e-44
2.77676e-46
5.5154e-48
1.02245e-49
1.69941e-51
1.99024e-53
6.16697e-56
1.43285e-58
6.94951e-61
7.23914e-64
2.79068e-67
3.06825e-70
2.69594e-72
6.38591e-74
9.87468e-75
7.58752e-75
6.35384e-75
5.45414e-75
1.50514e-74
1.04125e-72
1.2406e-70
1.68021e-68
2.60431e-66
4.68365e-64
5.10795e-62
1.30134e-59
1.97848e-54
6.52463e-52
1.62472e-50
9.79638e-50
2.14685e-49
2.62054e-49
9.17388e-61
0.000226802
3.84805e-06
2.25432e-09
4.03517e-15
1.77995e-23
1.93893e-32
2.59707e-34
5.21433e-36
1.07422e-37
2.25352e-39
4.97334e-41
1.1477e-42
2.63984e-44
5.79237e-46
1.18465e-47
2.24065e-49
3.87244e-51
4.77563e-53
1.52383e-55
3.97588e-58
2.47053e-60
4.46854e-63
3.81767e-66
3.05835e-70
3.52138e-72
7.31624e-74
1.71576e-73
5.43412e-74
3.42035e-74
1.51264e-74
7.5002e-74
6.57721e-72
7.97103e-70
1.09473e-67
1.72044e-65
2.86804e-63
3.46391e-61
8.9559e-59
1.9727e-53
1.77862e-51
2.5728e-50
1.13074e-49
2.5006e-49
5.03342e-49
1.12044e-61
0.000204694
3.79221e-06
2.32416e-09
8.59278e-15
2.5443e-23
2.78182e-32
3.81901e-34
7.94266e-36
1.68082e-37
3.73813e-39
9.04027e-41
2.27265e-42
5.55242e-44
1.26584e-45
2.65312e-47
5.10366e-49
9.00726e-51
1.15937e-52
3.90129e-55
1.20801e-57
9.63448e-60
3.98483e-62
1.21381e-64
3.32998e-67
3.5486e-70
9.17271e-72
3.0641e-72
3.83832e-73
2.14388e-73
7.53868e-74
4.61523e-73
4.30456e-71
5.30143e-69
7.39239e-67
1.17954e-64
1.12045e-62
2.44581e-60
1.3998e-55
1.06812e-52
3.80081e-51
3.37538e-50
1.32184e-49
5.88492e-49
3.34607e-48
4.13608e-63
0.00018354
3.5173e-06
2.35842e-09
1.39263e-14
3.67717e-23
4.03891e-32
5.68163e-34
1.2121e-35
2.66374e-37
6.49446e-39
1.75167e-40
4.78677e-42
1.23199e-43
2.89909e-45
6.20287e-47
1.21094e-48
2.16109e-50
2.86503e-52
1.0391e-54
4.05947e-57
4.55812e-59
4.88737e-61
6.0108e-63
1.07341e-64
1.41442e-65
4.93474e-66
1.34372e-66
3.6499e-67
1.24794e-67
5.58111e-68
3.04405e-68
5.3365e-69
5.70218e-68
7.40112e-66
1.20003e-63
1.16095e-61
2.5777e-59
3.66545e-54
3.62367e-52
6.38739e-51
4.07321e-50
2.0423e-49
3.95501e-48
3.03091e-47
3.13206e-65
0.000163623
3.15516e-06
2.36406e-09
1.85256e-14
5.37886e-23
5.93956e-32
8.55616e-34
1.86305e-35
4.37562e-37
1.20586e-38
3.64932e-40
1.07386e-41
2.88474e-43
6.96797e-45
1.51762e-46
3.00285e-48
5.41575e-50
7.26855e-52
2.89149e-54
1.50001e-56
2.86176e-58
8.45263e-60
3.21834e-61
3.28539e-62
9.58666e-63
3.64369e-63
1.49088e-63
6.12508e-64
2.51931e-64
1.0649e-64
4.87188e-65
2.54204e-65
7.46415e-66
7.26749e-65
1.08295e-62
1.06782e-60
5.72519e-56
2.31872e-53
7.91195e-52
8.18839e-51
4.78863e-50
7.86363e-49
3.24755e-47
2.37986e-46
3.30662e-68
0.000145252
2.74228e-06
2.19513e-09
2.14883e-14
7.97611e-23
8.85722e-32
1.30516e-33
2.91868e-35
7.59696e-37
2.42908e-38
8.20491e-40
2.56737e-41
7.13971e-43
1.76286e-44
3.90084e-46
7.81645e-48
1.42391e-49
1.9039e-51
8.42781e-54
5.8974e-56
2.73644e-57
3.28117e-58
3.22856e-59
4.77059e-60
1.42342e-60
5.81832e-61
2.70968e-61
1.47133e-61
9.49198e-62
7.07755e-62
5.6318e-62
4.265e-62
2.7997e-62
1.09675e-62
1.48363e-61
1.39492e-59
1.50312e-54
9.61248e-53
1.53757e-51
1.06278e-50
5.58788e-50
5.76139e-48
2.29308e-46
1.50023e-45
7.15113e-69
0.000128763
2.32336e-06
1.90272e-09
2.27998e-14
1.20186e-22
1.34146e-31
2.01875e-33
4.72173e-35
1.42356e-36
5.36174e-38
1.99393e-39
6.55492e-41
1.87541e-42
4.71933e-44
1.05938e-45
2.14801e-47
3.94899e-49
5.16899e-51
2.59094e-53
2.3048e-55
2.93014e-56
8.43315e-57
1.65113e-57
3.36388e-58
1.01197e-58
4.65103e-59
2.68785e-59
1.84896e-59
1.50649e-59
1.40843e-59
1.64519e-59
2.08705e-59
3.6653e-59
1.18415e-58
6.70179e-57
4.11216e-55
1.4463e-53
2.72224e-52
2.33056e-51
1.05896e-50
1.36236e-49
3.82236e-47
1.21421e-45
6.97696e-45
1.64837e-71
0.000114493
1.93015e-06
1.61911e-09
2.30611e-14
1.84646e-22
2.06798e-31
3.17153e-33
7.96857e-35
2.93053e-36
1.30242e-37
5.25062e-39
1.79746e-40
5.26893e-42
1.34824e-43
3.06538e-45
6.28096e-47
1.1636e-48
1.4726e-50
8.62943e-53
8.56655e-55
1.94568e-55
9.90927e-56
3.6877e-56
1.22564e-56
4.42756e-57
2.178e-57
1.4157e-57
1.05927e-57
8.92324e-58
8.4011e-58
1.16638e-57
2.43343e-57
9.56436e-57
6.47442e-56
6.92855e-55
9.94571e-54
1.24417e-52
8.47955e-52
2.22689e-51
2.3251e-51
1.92764e-48
2.1136e-46
3.94989e-45
1.69521e-44
1.64837e-71
0.000102684
1.57791e-06
1.3605e-09
1.97806e-14
2.90505e-22
3.25451e-31
5.07198e-33
1.42503e-34
6.72115e-36
3.48814e-37
1.50797e-38
5.3524e-40
1.60366e-41
4.16424e-43
9.56907e-45
1.97679e-46
3.68001e-48
4.54801e-50
3.31081e-52
3.45445e-54
8.07294e-55
5.62204e-55
3.41116e-55
1.86882e-55
9.88557e-56
5.64886e-56
3.89864e-56
3.16487e-56
2.92813e-56
3.46028e-56
5.63012e-56
1.3355e-55
4.41136e-55
2.00801e-54
1.26963e-53
8.78227e-53
3.93079e-52
8.01638e-52
9.12763e-52
8.94136e-50
2.61252e-47
9.70193e-46
8.60661e-45
1.95157e-44
3.29921e-71
9.3353e-05
1.27619e-06
1.13706e-09
1.24729e-14
4.70463e-22
5.24809e-31
8.27467e-33
2.74651e-34
1.72276e-35
1.03056e-36
4.77729e-38
1.76117e-39
5.39136e-41
1.4179e-42
3.28364e-44
6.81549e-46
1.26925e-47
1.60686e-49
1.61497e-51
2.18938e-53
3.01946e-54
2.09769e-54
1.55918e-54
1.16398e-54
8.78903e-55
6.75309e-55
5.47147e-55
4.90697e-55
4.80611e-55
6.76945e-55
1.09416e-54
2.36728e-54
6.57185e-54
2.22996e-53
7.86793e-53
2.15454e-52
3.68446e-52
4.71904e-52
4.63705e-51
3.97045e-48
2.08447e-46
3.01326e-45
1.28896e-44
1.85648e-44
4.93048e-72
8.62223e-05
1.03035e-06
9.51822e-10
7.11194e-15
7.88341e-22
8.70837e-31
1.37871e-32
5.77446e-34
4.88968e-35
3.3591e-36
1.69549e-37
6.56207e-39
2.05921e-40
5.47828e-42
1.27442e-43
2.64703e-45
4.91247e-47
6.95056e-49
1.14304e-50
3.10037e-52
3.12808e-53
1.0139e-53
6.05243e-54
4.43414e-54
3.49879e-54
2.91911e-54
2.60077e-54
2.50303e-54
2.93214e-54
3.96095e-54
6.43828e-54
1.2707e-53
2.87296e-53
6.54572e-53
1.27411e-52
1.90973e-52
2.37329e-52
2.39542e-52
7.68859e-49
4.59436e-47
9.08661e-46
6.41937e-45
1.6032e-44
1.14646e-44
6.1325e-73
8.08598e-05
8.39994e-07
8.09612e-10
4.64513e-15
1.37259e-21
1.49348e-30
2.3425e-32
1.32191e-33
1.50766e-34
1.20552e-35
6.84998e-37
2.85443e-38
9.29357e-40
2.50723e-41
5.84601e-43
1.21146e-44
2.25755e-46
4.06595e-48
1.41244e-49
2.06506e-50
4.46869e-51
1.09936e-51
3.3398e-52
1.27673e-52
6.06684e-53
3.4768e-53
2.30277e-53
1.79315e-53
1.62823e-53
1.62295e-53
2.2005e-53
3.42157e-53
5.73296e-53
9.61671e-53
1.4593e-52
2.04594e-52
2.75623e-52
2.19316e-49
1.28642e-47
3.02884e-46
3.25843e-45
1.55016e-44
3.14737e-44
2.83269e-45
5.1182e-73
7.68641e-05
7.00562e-07
7.19555e-10
4.00447e-15
2.48885e-21
2.65814e-30
4.03546e-32
3.21952e-33
4.91555e-34
4.72391e-35
3.17973e-36
1.4956e-37
5.21383e-39
1.44696e-40
3.39302e-42
7.02299e-44
1.36955e-45
3.92964e-47
4.89924e-48
1.32696e-48
3.87319e-49
1.225e-49
4.34538e-50
1.76298e-50
8.24716e-51
4.41526e-51
2.64095e-51
1.78056e-51
1.3647e-51
1.18712e-51
1.14253e-51
1.37198e-51
1.82143e-51
2.94948e-51
6.19786e-51
2.19421e-50
2.07735e-49
5.43471e-48
1.37339e-46
2.16146e-45
1.94368e-44
9.29516e-44
2.07996e-43
1.66618e-46
2.73748e-74
7.3954e-05
6.08793e-07
6.85719e-10
4.01699e-15
4.70346e-21
4.9289e-30
6.98149e-32
7.98007e-33
1.63416e-33
1.97898e-34
1.68058e-35
9.60489e-37
3.83033e-38
1.14235e-39
2.75025e-41
5.74414e-43
1.27321e-44
8.32989e-46
2.00857e-46
6.17028e-47
2.16387e-47
8.18783e-48
3.37076e-48
1.52835e-48
7.70976e-49
4.34454e-49
2.71196e-49
1.89176e-49
1.48582e-49
1.31309e-49
1.27303e-49
1.57389e-49
2.16745e-49
3.74701e-49
8.35711e-49
2.72178e-48
1.46476e-47
1.33386e-46
1.6038e-45
1.80423e-44
1.49268e-43
7.31279e-43
1.66421e-42
1.32448e-48
6.06989e-76
7.21547e-05
5.64553e-07
6.85799e-10
5.78798e-15
9.28309e-21
9.56861e-30
1.2028e-31
1.90097e-32
5.26974e-33
8.50022e-34
9.70548e-35
7.39059e-36
3.75647e-37
1.33044e-38
3.51506e-40
7.63125e-42
2.01087e-43
2.57905e-44
8.30083e-45
2.64112e-45
9.89138e-46
4.10692e-46
1.85371e-46
9.11356e-47
4.88008e-47
2.85369e-47
1.83025e-47
1.30777e-47
1.04656e-47
9.34914e-48
9.09126e-48
1.1016e-47
1.46745e-47
2.41783e-47
4.9828e-47
1.38633e-46
5.5387e-46
3.1178e-45
2.15353e-44
1.47135e-43
8.07225e-43
2.94315e-42
5.95811e-42
1.01501e-51
4.90583e-76
7.1722e-05
5.56582e-07
7.14703e-10
1.26754e-14
1.92975e-20
1.96231e-29
2.07362e-31
4.11503e-32
1.54559e-32
3.4981e-33
5.64779e-34
6.24686e-35
4.58655e-36
2.26484e-37
7.739e-39
1.96245e-40
5.76307e-42
9.3904e-43
3.60684e-43
1.23949e-43
4.6165e-44
1.94132e-44
8.96198e-45
4.52125e-45
2.48639e-45
1.48435e-45
9.60661e-46
6.83079e-46
5.36989e-46
4.6797e-46
4.46632e-46
5.06277e-46
6.70994e-46
1.00251e-45
1.85848e-45
4.25194e-45
1.27118e-44
4.88385e-44
2.18421e-43
9.4561e-43
3.15596e-42
6.5178e-42
7.73189e-42
2.04317e-55
5.74947e-77
7.27177e-05
5.70567e-07
7.78985e-10
2.71667e-14
4.31028e-20
4.32553e-29
3.70918e-31
7.79699e-32
3.84719e-32
1.26299e-32
2.9633e-33
5.02427e-34
5.84666e-35
4.673e-36
2.5777e-37
1.01838e-38
3.74736e-40
4.4823e-41
1.67024e-41
6.49971e-42
2.46904e-42
1.02384e-42
4.67085e-43
2.32206e-43
1.25102e-43
7.28485e-44
4.58738e-44
3.15705e-44
2.39105e-44
2.006e-44
1.86219e-44
1.8513e-44
2.32775e-44
3.10196e-44
4.93637e-44
9.49426e-44
2.17333e-43
5.81388e-43
1.68337e-42
4.61797e-42
1.00402e-41
1.45956e-41
7.06321e-42
8.92986e-59
2.48958e-77
7.60622e-05
6.11331e-07
9.12464e-10
5.61891e-14
1.06804e-19
1.05503e-28
7.48304e-31
1.29079e-31
7.70793e-32
3.65935e-32
1.25014e-32
3.28096e-33
6.2616e-34
8.64964e-35
8.64676e-36
6.43192e-37
4.07247e-38
3.73863e-39
9.15119e-40
3.53294e-40
1.41985e-40
5.92387e-41
2.67219e-41
1.31348e-41
6.98956e-42
3.99641e-42
2.44936e-42
1.61996e-42
1.16128e-42
9.05139e-43
7.71162e-43
7.19431e-43
7.15961e-43
8.92864e-43
1.20465e-42
1.82106e-42
3.21323e-42
6.36609e-42
1.32365e-41
2.52627e-41
3.78418e-41
4.22887e-41
4.42756e-42
2.32414e-62
1.45283e-77
8.31248e-05
6.88153e-07
1.21923e-09
1.29427e-13
3.04219e-19
2.96497e-28
1.90876e-30
1.96195e-31
1.22858e-31
7.96848e-32
3.87711e-32
1.52785e-32
4.68548e-33
1.1045e-33
1.99424e-34
2.79763e-35
3.26298e-36
3.85964e-37
6.71918e-38
2.01367e-38
7.92692e-39
3.38795e-39
1.53492e-39
7.46455e-40
3.9133e-40
2.20128e-40
1.32316e-40
8.51312e-41
5.88196e-41
4.37492e-41
3.50782e-41
3.03142e-41
2.8124e-41
2.75773e-41
3.05271e-41
3.87422e-41
5.21554e-41
7.58598e-41
1.13003e-40
1.59372e-40
1.94043e-40
1.36878e-40
1.36413e-42
1.70742e-62
5.68686e-78
9.49248e-05
8.51288e-07
1.84238e-09
3.50981e-13
1.02478e-18
1.01421e-27
6.66571e-30
3.13443e-31
1.62946e-31
1.28071e-31
8.44086e-32
4.7038e-32
2.18107e-32
8.24433e-33
2.53014e-33
6.3065e-34
1.30958e-34
2.45791e-35
4.8268e-36
1.20736e-36
4.10928e-37
1.71107e-37
7.87478e-38
3.8807e-38
2.04521e-38
1.15055e-38
6.86452e-39
4.32975e-39
2.88914e-39
2.0422e-39
1.53004e-39
1.21643e-39
1.02974e-39
9.3356e-40
9.03022e-40
9.0844e-40
9.78111e-40
1.08511e-39
1.17805e-39
1.17857e-39
9.17395e-40
4.03175e-40
1.05201e-43
2.60034e-64
1.18932e-78
0.0446987
0.00289521
0.000113984
1.19283e-06
2.95169e-09
1.05152e-12
4.22398e-18
4.65215e-27
3.39286e-29
7.52452e-31
1.97108e-31
1.60095e-31
1.3033e-31
9.45256e-32
6.08106e-32
3.36817e-32
1.60567e-32
6.53026e-33
2.26579e-33
6.9144e-34
1.96392e-34
5.6577e-35
1.838e-35
7.13119e-36
3.2174e-36
1.60448e-36
8.59057e-37
4.8849e-37
2.92469e-37
1.83198e-37
1.19932e-37
8.21289e-38
5.88212e-38
4.40529e-38
3.4478e-38
2.81495e-38
2.38787e-38
2.08762e-38
1.85626e-38
1.63613e-38
1.35782e-38
9.54405e-39
4.5628e-39
8.39367e-40
1.02985e-45
4.19821e-69
1.27714e-79
0.0669222
0.0039615
0.000143528
1.79915e-06
5.10415e-09
3.25124e-12
2.31532e-17
3.42588e-26
2.97833e-28
6.23456e-30
2.43869e-31
1.74195e-31
1.5509e-31
1.31086e-31
1.0531e-31
7.70491e-32
5.1277e-32
3.05943e-32
1.61914e-32
7.61597e-33
3.28768e-33
1.3211e-33
5.20352e-34
2.13586e-34
9.57989e-35
4.771e-35
2.59463e-35
1.50305e-35
9.10754e-36
5.71542e-36
3.7053e-36
2.48261e-36
1.717e-36
1.22389e-36
8.96853e-37
6.72686e-37
5.12765e-37
3.92523e-37
2.9582e-37
2.12202e-37
1.36558e-37
7.06192e-38
2.28608e-38
1.01454e-39
7.44824e-49
1.16827e-69
5.42072e-81
0.0971905
0.00573403
0.000191211
2.86044e-06
1.01432e-08
1.00937e-11
1.91217e-16
4.80055e-25
5.48593e-27
8.56587e-29
3.764e-31
1.74439e-31
1.59953e-31
1.4383e-31
1.2651e-31
1.08965e-31
9.01366e-32
6.9972e-32
5.04184e-32
3.32245e-32
2.05224e-32
1.17466e-32
6.33415e-33
3.28326e-33
1.68514e-33
8.89765e-34
4.98353e-34
2.96387e-34
1.83663e-34
1.16628e-34
7.55679e-35
4.99823e-35
3.36726e-35
2.30443e-35
1.59543e-35
1.11021e-35
7.68777e-36
5.21377e-36
3.37529e-36
1.99836e-36
1.0032e-36
3.68558e-37
6.94391e-38
6.95554e-40
5.94595e-53
9.19255e-74
8.88107e-83
0.13227
0.00850163
0.000271689
4.86862e-06
2.27911e-08
3.21476e-11
2.24717e-15
1.16479e-23
1.56222e-25
8.71948e-28
7.07223e-30
4.98317e-31
1.73982e-31
1.29845e-31
1.25419e-31
1.14986e-31
1.03941e-31
9.19877e-32
7.88641e-32
6.58225e-32
5.12439e-32
3.84542e-32
2.74448e-32
1.8676e-32
1.22219e-32
7.75201e-33
4.87484e-33
3.10462e-33
2.01231e-33
1.3165e-33
8.66058e-34
5.72968e-34
3.80238e-34
2.52186e-34
1.66212e-34
1.07915e-34
6.81118e-35
4.09347e-35
2.26618e-35
1.0931e-35
4.15313e-36
1.00902e-36
8.66036e-38
1.1781e-40
9.56493e-57
2.87631e-75
6.0917e-85
0.169584
0.0126579
0.000415126
8.6978e-06
5.67848e-08
1.15226e-10
2.59898e-14
5.4835e-22
7.23487e-24
5.28042e-26
1.13753e-27
6.00722e-29
3.04665e-30
2.51551e-31
1.24187e-31
8.12463e-32
8.00881e-32
7.9025e-32
8.01479e-32
7.73992e-32
6.50982e-32
5.58764e-32
4.62018e-32
3.69817e-32
2.90116e-32
2.22794e-32
1.66495e-32
1.20884e-32
8.5795e-33
5.99137e-33
4.12324e-33
2.79366e-33
1.859e-33
1.20918e-33
7.63037e-34
4.61693e-34
2.63174e-34
1.3752e-34
6.31327e-35
2.38105e-35
6.68609e-36
1.12781e-36
5.76178e-38
2.01421e-42
2.11076e-60
3.20316e-76
7.24072e-87
0.210014
0.0190836
0.000694339
1.63595e-05
1.53508e-07
4.80887e-10
2.49478e-13
7.93166e-20
9.2049e-22
7.34098e-24
2.40824e-25
1.38084e-26
7.27438e-28
3.38217e-29
1.44981e-30
1.24016e-31
3.64695e-32
2.56224e-32
2.55918e-32
2.88805e-32
3.30278e-32
3.52149e-32
3.58713e-32
3.3313e-32
2.79807e-32
2.35611e-32
1.91807e-32
1.50001e-32
1.13893e-32
8.42801e-33
6.06561e-33
4.22928e-33
2.84373e-33
1.83188e-33
1.12038e-33
6.42234e-34
3.38881e-34
1.60421e-34
6.56259e-35
2.18427e-35
5.13549e-36
6.37477e-37
1.01536e-38
1.58852e-45
3.47777e-64
9.50468e-79
4.25693e-89
0.25842
0.029765
0.00129397
3.39536e-05
4.4693e-07
2.14466e-09
2.69246e-12
5.56211e-17
2.39672e-19
1.79472e-21
6.68946e-23
4.15746e-24
2.38574e-25
1.21344e-26
5.29185e-28
1.91938e-29
5.78555e-31
3.63027e-32
1.95027e-33
1.90213e-33
1.90176e-33
3.14038e-33
4.04857e-33
5.01512e-33
5.83472e-33
6.39562e-33
6.62425e-33
6.58651e-33
5.61119e-33
4.47446e-33
3.47842e-33
2.54954e-33
1.75863e-33
1.14045e-33
6.88164e-34
3.80537e-34
1.88531e-34
8.07712e-35
2.82367e-35
7.27435e-36
1.17014e-36
7.57835e-38
1.60951e-40
4.54035e-50
2.86155e-66
2.45514e-83
1.02196e-88
0.319361
0.0482548
0.00267137
7.9222e-05
1.37849e-06
1.00532e-08
2.93975e-11
5.68806e-14
8.32852e-16
1.31296e-17
4.27855e-19
9.01436e-21
1.79452e-22
9.50037e-24
4.40213e-25
1.72581e-26
5.47605e-28
1.30152e-29
9.81431e-32
4.13118e-34
1.60294e-35
1.33474e-35
1.33474e-35
1.91305e-35
5.98357e-35
1.12117e-34
1.85539e-34
2.60409e-34
3.09941e-34
3.25965e-34
3.20318e-34
2.61359e-34
1.9542e-34
1.31827e-34
7.89723e-35
4.13306e-35
1.83397e-35
6.57779e-36
1.76281e-36
3.10913e-37
2.82142e-38
7.02737e-40
8.70168e-44
2.64072e-54
9.52225e-71
1.48524e-88
1.48065e-92
0.385679
0.0761492
0.00560166
0.000195558
4.24313e-06
5.1912e-08
6.18585e-10
2.12566e-11
1.47794e-12
1.24683e-13
1.0572e-14
8.47985e-16
6.24071e-17
4.11801e-18
2.38077e-19
1.1718e-20
4.70637e-22
1.41764e-23
1.10743e-25
1.73792e-28
8.8314e-31
8.10933e-33
7.32949e-35
9.97908e-37
4.29628e-38
4.29628e-38
6.02157e-38
2.44735e-37
5.41608e-37
9.1979e-37
1.21664e-36
1.29121e-36
1.14499e-36
8.37262e-37
5.10613e-37
2.52911e-37
9.80993e-38
2.80546e-38
5.36116e-39
5.78351e-40
2.47397e-41
1.82104e-43
1.01104e-48
1.77392e-58
7.36365e-76
7.21326e-93
7.21326e-93
0.413163
0.0998388
0.00986061
0.000441653
1.23097e-05
3.64633e-07
2.48332e-08
3.04216e-09
3.79541e-10
4.48845e-11
5.01933e-12
5.16946e-13
4.77644e-14
3.88351e-15
2.7183e-16
1.58528e-17
7.24683e-19
2.26654e-20
1.0367e-22
1.99157e-25
1.14053e-27
1.06356e-29
8.23084e-32
6.22685e-34
5.92066e-36
9.37451e-38
1.63602e-39
3.82688e-41
9.66411e-42
2.83059e-41
5.59836e-41
8.23695e-41
9.4834e-41
7.95747e-41
5.10372e-41
2.41999e-41
8.12128e-42
1.79115e-42
2.29519e-43
1.36624e-44
2.54954e-46
1.3221e-48
2.65684e-53
5.67488e-63
1.15251e-80
2.97786e-85
5.19297e-90
0.318099
0.0832706
0.0103545
0.000626713
2.71243e-05
2.03738e-06
3.16433e-07
5.24427e-08
7.80321e-09
1.08378e-09
1.39612e-10
1.63728e-11
1.7037e-12
1.54594e-13
1.19826e-14
7.67174e-16
3.78764e-17
1.22301e-18
4.42542e-21
9.47085e-24
5.96215e-26
6.0074e-28
4.81341e-30
2.94301e-32
1.42455e-34
6.33504e-37
4.7866e-39
8.43271e-41
1.99769e-42
7.37424e-44
7.47795e-45
5.89783e-45
3.94576e-45
2.17479e-45
9.47544e-46
3.10914e-46
7.21374e-47
1.08793e-47
9.58517e-49
6.05352e-50
1.95819e-51
1.34129e-53
3.05768e-58
4.77499e-68
5.32182e-86
4.52183e-89
1.70949e-92
4.16994e-66
1.01055e-63
6.16634e-62
5.60003e-59
3.0125e-53
7.31964e-51
1.18e-49
3.26738e-49
7.10043e-57
1.5346e-72
2.26838e-70
3.84826e-68
1.4836e-65
3.56621e-63
5.40578e-61
2.00465e-58
1.22544e-52
1.27554e-50
1.38094e-49
3.15384e-49
3.87895e-58
0.000372972
3.14575e-06
8.99073e-10
5.63084e-17
2.54959e-24
2.73814e-33
3.19817e-35
4.74792e-37
7.8539e-39
1.35786e-40
2.38831e-42
4.1913e-44
7.26056e-46
1.23329e-47
2.01468e-49
3.07416e-51
4.09199e-53
3.48045e-55
1.12008e-57
1.97946e-60
1.30997e-63
2.13247e-66
6.60394e-70
1.9214e-70
7.02305e-70
1.43936e-69
1.83801e-69
9.37669e-70
1.37982e-70
5.70826e-75
2.88042e-76
6.5598e-76
3.67839e-74
8.55196e-72
1.25894e-69
2.13437e-67
4.27596e-65
1.03016e-62
1.5696e-60
5.87708e-58
3.81369e-52
2.05461e-50
1.56854e-49
3.03598e-49
1.95848e-59
0.000347695
3.3961e-06
1.19115e-09
5.61745e-17
3.44899e-24
3.71819e-33
4.43057e-35
6.87807e-37
1.18735e-38
2.12835e-40
3.86774e-42
7.00435e-44
1.25457e-45
2.20789e-47
3.75379e-49
5.97172e-51
8.18677e-53
7.3502e-55
2.33797e-57
4.34248e-60
3.62039e-63
5.97843e-66
1.37645e-69
2.92353e-71
7.29331e-72
6.90111e-72
9.12048e-72
9.9058e-72
1.20135e-72
6.51859e-75
8.7296e-76
3.0998e-75
2.58243e-73
3.32512e-71
4.91732e-69
8.43975e-67
1.70779e-64
1.02667e-62
6.39563e-60
9.55582e-55
9.98421e-52
3.10037e-50
1.73725e-49
2.91853e-49
1.07674e-59
0.000322598
3.58214e-06
1.4882e-09
5.86833e-17
4.70292e-24
5.08549e-33
6.18899e-35
1.01036e-36
1.81911e-38
3.37387e-40
6.32172e-42
1.18069e-43
2.18808e-45
3.99681e-47
7.08543e-49
1.18157e-50
1.67806e-52
1.60291e-54
5.032e-57
9.78509e-60
1.26079e-62
1.66579e-65
3.24039e-69
4.41757e-71
2.89357e-72
1.09724e-72
3.23787e-73
6.55747e-74
1.3303e-74
6.24074e-75
3.13031e-75
1.41205e-74
1.28684e-72
1.6764e-70
2.50533e-68
4.34454e-66
8.87988e-64
1.12408e-61
3.3837e-59
9.86048e-54
2.2972e-51
4.42724e-50
1.88555e-49
2.79939e-49
8.3025e-60
0.000297805
3.7064e-06
1.75974e-09
8.90214e-17
6.46752e-24
7.01129e-33
8.72438e-35
1.50369e-36
2.81758e-38
5.39237e-40
1.04029e-41
2.0059e-43
3.85921e-45
7.34056e-47
1.3568e-48
2.37444e-50
3.53147e-52
3.61651e-54
1.12025e-56
2.28212e-59
4.98742e-62
4.8704e-65
1.0127e-68
7.78674e-71
2.16678e-72
5.5366e-73
2.2011e-73
5.46041e-74
1.7073e-74
1.00111e-74
1.04354e-74
5.51161e-74
5.28038e-72
6.95743e-70
1.05103e-67
1.8421e-65
3.77374e-63
4.85467e-61
1.4816e-58
5.20593e-53
4.78913e-51
6.04366e-50
1.99996e-49
2.62346e-49
5.81909e-60
0.00027347
3.78418e-06
1.98132e-09
3.16406e-16
8.97464e-24
9.75167e-33
1.24197e-34
2.26214e-36
4.39503e-38
8.6589e-40
1.72143e-41
3.4494e-43
6.98102e-45
1.39449e-46
2.67622e-48
4.85093e-50
7.64186e-52
8.40065e-54
2.58355e-56
5.56039e-59
1.92937e-61
1.65232e-64
4.214e-68
1.55499e-70
2.52936e-72
2.50947e-73
1.29575e-73
5.8985e-74
3.04522e-74
2.34939e-74
2.49378e-74
1.72195e-73
1.75804e-71
2.34492e-69
3.58404e-67
6.35587e-65
6.83248e-63
1.71199e-60
1.02259e-57
2.02699e-52
9.18535e-51
7.8834e-50
2.07165e-49
2.49348e-49
3.39603e-60
0.000249756
3.82933e-06
2.14397e-09
1.33436e-15
1.25718e-23
1.36938e-32
1.78649e-34
3.42845e-36
6.87355e-38
1.39361e-39
2.87688e-41
6.13828e-43
1.32356e-44
2.7775e-46
5.51603e-48
1.02274e-49
1.69993e-51
1.99071e-53
6.16969e-56
1.43358e-58
6.95249e-61
7.24011e-64
2.7912e-67
3.07281e-70
3.04575e-72
2.36562e-73
1.32001e-73
8.80613e-74
6.44967e-74
5.01914e-74
5.99878e-74
1.08633e-72
1.24106e-70
1.68023e-68
2.60433e-66
4.68369e-64
5.10799e-62
1.30135e-59
1.9785e-54
6.52465e-52
1.62473e-50
9.79639e-50
2.14685e-49
2.62054e-49
1.47856e-60
0.000226801
3.84804e-06
2.25433e-09
4.03518e-15
1.77854e-23
1.94297e-32
2.59774e-34
5.21571e-36
1.07451e-37
2.25419e-39
4.97475e-41
1.14801e-42
2.64054e-44
5.7939e-46
1.18479e-47
2.24129e-49
3.87362e-51
4.77678e-53
1.52446e-55
3.97761e-58
2.47177e-60
4.46945e-63
3.81857e-66
3.06186e-70
3.87041e-72
2.4647e-73
3.1489e-73
1.76846e-73
1.36818e-73
7.69966e-74
1.38254e-73
6.64186e-72
7.97173e-70
1.09474e-67
1.72046e-65
2.86811e-63
3.46393e-61
8.95595e-59
1.97272e-53
1.77862e-51
2.5728e-50
1.13074e-49
2.50061e-49
5.03345e-49
3.52437e-61
0.000204693
3.7922e-06
2.32416e-09
8.5928e-15
2.54229e-23
2.78768e-32
3.82003e-34
7.94487e-36
1.68129e-37
3.7392e-39
9.04263e-41
2.27322e-42
5.55382e-44
1.26616e-45
2.65342e-47
5.10513e-49
9.01006e-51
1.15966e-52
3.90274e-55
1.20841e-57
9.63863e-60
3.98572e-62
1.21409e-64
3.3312e-67
3.55211e-70
9.3847e-72
3.27491e-72
5.37081e-73
3.43662e-73
1.38749e-73
5.26516e-73
4.31121e-71
5.30147e-69
7.39236e-67
1.17953e-64
1.12044e-62
2.4458e-60
1.39977e-55
1.06813e-52
3.80082e-51
3.37538e-50
1.32184e-49
5.88496e-49
3.3461e-48
2.82432e-62
0.000183539
3.51729e-06
2.35842e-09
1.39264e-14
3.67427e-23
4.04749e-32
5.68319e-34
1.21245e-35
2.66448e-37
6.49614e-39
1.75206e-40
4.78779e-42
1.23227e-43
2.89977e-45
6.20349e-47
1.21128e-48
2.16176e-50
2.8658e-52
1.03942e-54
4.06042e-57
4.55939e-59
4.88812e-61
6.01157e-63
1.07354e-64
1.41447e-65
4.93485e-66
1.34375e-66
3.64995e-67
1.24795e-67
5.5812e-68
3.04411e-68
5.33654e-69
5.70217e-68
7.40112e-66
1.20003e-63
1.16094e-61
2.57769e-59
3.66545e-54
3.62368e-52
6.3874e-51
4.07321e-50
2.04231e-49
3.95505e-48
3.03094e-47
3.8144e-64
0.000163622
3.15517e-06
2.36406e-09
1.85257e-14
5.37464e-23
5.95232e-32
8.55858e-34
1.86362e-35
4.37677e-37
1.20612e-38
3.64997e-40
1.07404e-41
2.88527e-43
6.96935e-45
1.51773e-46
3.00362e-48
5.41733e-50
7.27068e-52
2.89226e-54
1.50023e-56
2.86213e-58
8.45311e-60
3.21839e-61
3.28534e-62
9.58638e-63
3.64353e-63
1.4908e-63
6.12467e-64
2.51912e-64
1.06482e-64
4.87144e-65
2.5418e-65
7.46415e-66
7.26748e-65
1.08295e-62
1.06782e-60
5.72515e-56
2.31872e-53
7.91197e-52
8.1884e-51
4.78863e-50
7.8637e-49
3.24759e-47
2.37989e-46
5.65984e-65
0.000145251
2.74228e-06
2.19514e-09
2.14884e-14
7.96987e-23
8.87646e-32
1.30554e-33
2.91957e-35
7.59881e-37
2.42953e-38
8.20606e-40
2.5677e-41
7.1407e-43
1.76313e-44
3.90094e-46
7.81816e-48
1.42428e-49
1.9045e-51
8.42983e-54
5.89791e-56
2.73647e-57
3.28111e-58
3.22851e-59
4.77049e-60
1.42339e-60
5.81818e-61
2.70961e-61
1.47128e-61
9.49161e-62
7.07713e-62
5.63131e-62
4.26449e-62
2.79933e-62
1.09675e-62
1.48363e-61
1.39492e-59
1.50312e-54
9.61249e-53
1.53757e-51
1.06278e-50
5.5879e-50
5.76145e-48
2.29311e-46
1.50025e-45
3.55605e-69
0.000128763
2.32337e-06
1.90273e-09
2.27999e-14
1.20092e-22
1.3444e-31
2.01936e-33
4.72319e-35
1.42389e-36
5.36265e-38
1.99418e-39
6.55562e-41
1.87561e-42
4.71986e-44
1.05936e-45
2.14838e-47
3.94987e-49
5.17068e-51
2.5916e-53
2.30493e-55
2.9301e-56
8.433e-57
1.6511e-57
3.3638e-58
1.01194e-58
4.65087e-59
2.68775e-59
1.84889e-59
1.50643e-59
1.40837e-59
1.64512e-59
2.08697e-59
3.66515e-59
1.18407e-58
6.7019e-57
4.11223e-55
1.44631e-53
2.72224e-52
2.33055e-51
1.05896e-50
1.36239e-49
3.82239e-47
1.21422e-45
6.97704e-45
2.44186e-69
0.000114493
1.93015e-06
1.61911e-09
2.30612e-14
1.84503e-22
2.07257e-31
3.17253e-33
7.97103e-35
2.93118e-36
1.30266e-37
5.25139e-39
1.79769e-40
5.26951e-42
1.34838e-43
3.06526e-45
6.28186e-47
1.16381e-48
1.47308e-50
8.63191e-53
8.56699e-55
1.94566e-55
9.90909e-56
3.68764e-56
1.22561e-56
4.42746e-57
2.17794e-57
1.41566e-57
1.05924e-57
8.92296e-58
8.40085e-58
1.16635e-57
2.43333e-57
9.56412e-57
6.47441e-56
6.92864e-55
9.94579e-54
1.24417e-52
8.47953e-52
2.22688e-51
2.32507e-51
1.92768e-48
2.11362e-46
3.94993e-45
1.69522e-44
1.87215e-70
0.000102684
1.57792e-06
1.3605e-09
1.97807e-14
2.90281e-22
3.26182e-31
5.07365e-33
1.42547e-34
6.72273e-36
3.48893e-37
1.50828e-38
5.35338e-40
1.60392e-41
4.16481e-43
9.56887e-45
1.97708e-46
3.68064e-48
4.54941e-50
3.31185e-52
3.45467e-54
8.07284e-55
5.62193e-55
3.4111e-55
1.86878e-55
9.88535e-56
5.64874e-56
3.89855e-56
3.16479e-56
2.92806e-56
3.46017e-56
5.62996e-56
1.33547e-55
4.41133e-55
2.00802e-54
1.26963e-53
8.78223e-53
3.93077e-52
8.01633e-52
9.12748e-52
8.94163e-50
2.61256e-47
9.702e-46
8.60665e-45
1.95157e-44
1.23839e-71
9.33532e-05
1.27619e-06
1.13706e-09
1.2473e-14
4.70104e-22
5.26002e-31
8.27754e-33
2.74732e-34
1.72319e-35
1.03084e-36
4.77861e-38
1.76164e-39
5.39268e-41
1.4182e-42
3.28377e-44
6.81675e-46
1.2695e-47
1.60731e-49
1.61546e-51
2.18956e-53
3.01944e-54
2.09765e-54
1.55914e-54
1.16395e-54
8.78882e-55
6.75292e-55
5.47132e-55
4.90683e-55
4.80598e-55
6.76929e-55
1.09414e-54
2.36724e-54
6.57179e-54
2.22995e-53
7.86788e-53
2.15452e-52
3.68443e-52
4.71897e-52
4.63721e-51
3.9705e-48
2.08449e-46
3.01327e-45
1.28896e-44
1.85648e-44
1.23884e-71
8.62225e-05
1.03036e-06
9.51828e-10
7.11198e-15
7.87745e-22
8.72842e-31
1.37921e-32
5.77598e-34
4.89088e-35
3.3601e-36
1.69604e-37
6.56426e-39
2.05989e-40
5.47992e-42
1.27457e-43
2.64768e-45
4.91362e-47
6.9523e-49
1.14328e-50
3.10065e-52
3.12804e-53
1.01388e-53
6.05231e-54
4.43405e-54
3.49871e-54
2.91904e-54
2.60069e-54
2.50296e-54
2.93205e-54
3.96084e-54
6.43813e-54
1.27068e-53
2.87291e-53
6.54562e-53
1.27409e-52
1.90971e-52
2.37326e-52
2.39538e-52
7.68864e-49
4.59438e-47
9.08665e-46
6.41939e-45
1.60321e-44
1.14646e-44
1.04133e-72
8.086e-05
8.39999e-07
8.09617e-10
4.64516e-15
1.37157e-21
1.49697e-30
2.34341e-32
1.32217e-33
1.50797e-34
1.20585e-35
6.85211e-37
2.85541e-38
9.29691e-40
2.5081e-41
5.84701e-43
1.21182e-44
2.25817e-46
4.06688e-48
1.4125e-49
2.06493e-50
4.46852e-51
1.09933e-51
3.33974e-52
1.27671e-52
6.06676e-53
3.47675e-53
2.30274e-53
1.79312e-53
1.6282e-53
1.62292e-53
2.20046e-53
3.4215e-53
5.73285e-53
9.61655e-53
1.45929e-52
2.04592e-52
2.75494e-52
2.19311e-49
1.28642e-47
3.02887e-46
3.25847e-45
1.55019e-44
3.14744e-44
2.83269e-45
1.07595e-73
7.68643e-05
7.00566e-07
7.19561e-10
4.00449e-15
2.48702e-21