/*--------------------------------*- C++ -*----------------------------------*\
| =========                 |                                                 |
| \\      /  F ield         | OpenFOAM: The Open Source CFD Toolbox           |
|  \\    /   O peration     | Version:  v2012                                 |
|   \\  /    A nd           | Website:  www.openfoam.com                      |
|    \\/     M anipulation  |                                                 |
\*---------------------------------------------------------------------------*/
FoamFile
{
    version     2.0;
    format      ascii;
    class       surfaceScalarField;
    location    "0.15";
    object      alphaPhi0.water;
}
// * * * * * * * * * * * * * * * * * * * * * * * * * * * * * * * * * * * * * //

dimensions      [0 3 -1 0 0 0 0];
oriented        oriented;


internalField   nonuniform List<scalar> 
8145
(
-5.35365e-71
6.93813e-71
5.44897e-80
-1.63549e-68
2.13058e-68
-4.21306e-77
-8.99284e-66
1.13461e-65
-8.42917e-75
-4.21509e-63
5.72919e-63
2.88905e-73
-3.11097e-60
4.74362e-60
4.29532e-69
-2.5922e-58
7.3931e-58
2.50779e-66
-9.47867e-58
8.2369e-57
1.35146e-65
-5.95503e-66
1.41849e-56
3.96471e-65
1.58776e-65
6.31136e-73
-2.22537e-77
2.04316e-77
-1.35392e-85
-4.2137e-75
3.91566e-75
-1.17376e-83
-9.25322e-73
8.63495e-73
-4.81221e-82
-1.55638e-70
2.23592e-70
1.75854e-79
-4.80736e-68
6.91264e-68
-1.48376e-76
-2.87965e-65
4.00702e-65
-3.28079e-74
-8.92293e-63
1.4622e-62
8.22057e-73
-9.56636e-60
1.6376e-59
1.63446e-68
-3.67509e-58
1.19183e-57
4.33093e-66
-9.07714e-58
9.06893e-57
1.53111e-65
-3.22577e-67
1.3039e-56
3.69773e-65
6.26047e-67
3.23117e-74
-3.36652e-14
-9.89466e-12
-1.62357e-18
-1.08045e-17
-9.73971e-14
-1.31901e-20
-7.55635e-25
-3.32884e-17
-3.94192e-24
-3.80623e-32
-1.9133e-24
-2.25113e-31
-4.4952e-41
-1.05371e-31
-9.66595e-39
-5.76597e-43
-1.18403e-40
-1.01341e-47
-9.33351e-45
-1.45198e-42
-1.12218e-49
-1.67414e-46
-2.26388e-44
-1.56287e-51
-3.12232e-48
-3.90887e-46
-2.44518e-53
-5.89621e-50
-6.99041e-48
-4.00092e-55
-1.10608e-51
-1.2617e-49
-6.6365e-57
-2.03972e-53
-2.25481e-51
-1.10414e-58
-3.67375e-55
-3.95026e-53
-1.79926e-60
-6.33996e-57
-6.73652e-55
-2.88388e-62
-1.01783e-58
-1.09702e-56
-4.28928e-64
-1.41985e-60
-1.65088e-58
-6.81709e-66
-1.26117e-62
-2.13317e-60
-8.27566e-68
-4.21652e-65
-1.75097e-62
-6.55312e-70
-7.71746e-68
-5.24798e-65
-1.93496e-72
-5.27755e-71
-8.64677e-68
-3.11975e-75
-8.65639e-74
-5.13044e-71
-1.87724e-78
-2.33879e-77
-7.7494e-74
-2.73659e-81
-1.94978e-78
-1.59719e-77
-7.5877e-85
-3.3192e-78
-2.61616e-79
-1.97697e-85
-8.83896e-78
-3.86725e-81
-6.29512e-85
-1.3505e-77
-4.05446e-81
-1.09059e-84
-9.11354e-78
1.92179e-80
-1.17587e-84
-1.04116e-78
6.34829e-80
-4.9495e-85
-4.91001e-83
5.53094e-81
-5.76612e-86
-2.39869e-83
3.64585e-83
-1.59576e-90
-4.77486e-83
2.96722e-83
-7.80245e-92
-2.45368e-81
2.17747e-81
3.60876e-90
-3.72918e-79
3.32772e-79
-1.02762e-87
-3.70598e-77
5.69553e-77
-3.63531e-85
-7.08157e-75
1.09247e-74
-3.18606e-83
-1.56393e-72
2.41175e-72
-1.68751e-81
-4.04372e-70
6.24998e-70
4.70199e-79
-1.26145e-67
1.94689e-67
-4.29599e-76
-8.32713e-65
1.2322e-64
-1.02069e-73
-2.25513e-62
3.7099e-62
1.65931e-72
-2.39005e-59
4.5421e-59
4.92557e-68
-4.88431e-58
1.78286e-57
6.88594e-66
-8.66028e-58
9.69814e-57
1.67313e-65
-1.64932e-68
1.19332e-56
3.40302e-65
1.82411e-67
1.53179e-75
-3.6095e-14
-8.81401e-12
-1.61912e-18
-1.4167e-17
-9.94323e-14
-1.45054e-20
-7.46617e-25
-4.10917e-17
-5.2734e-24
-5.0795e-32
-1.84542e-24
-2.32296e-31
-6.01517e-41
-1.37062e-31
-1.354e-38
-7.8659e-43
-1.54631e-40
-1.42046e-47
-1.33093e-44
-1.93645e-42
-1.60148e-49
-2.49067e-46
-3.16726e-44
-2.32749e-51
-4.81555e-48
-5.70948e-46
-3.78845e-53
-9.39581e-50
-1.05817e-47
-6.41166e-55
-1.81915e-51
-1.97165e-49
-1.09697e-56
-3.46954e-53
-3.63377e-51
-1.8844e-58
-6.47643e-55
-6.57904e-53
-3.18347e-60
-1.16359e-56
-1.16266e-54
-5.30971e-62
-1.9483e-58
-1.97292e-56
-8.24281e-64
-2.8005e-60
-3.1052e-58
-1.35431e-65
-2.62695e-62
-4.13397e-60
-1.69454e-67
-8.68364e-65
-3.59046e-62
-1.41475e-69
-1.67089e-67
-1.06286e-64
-4.12195e-72
-1.44733e-70
-1.83511e-67
-6.96641e-75
-2.44416e-73
-1.49185e-70
-5.27916e-78
-5.64872e-77
-2.05832e-73
-7.76289e-81
-7.32508e-79
-3.43949e-77
-1.59129e-84
-1.736e-80
-3.77221e-79
-2.97492e-86
-2.54587e-80
-4.57727e-81
-6.52348e-87
-4.71571e-80
-1.69477e-83
-5.25169e-87
-5.28516e-80
3.44315e-83
-6.31502e-87
-5.08451e-81
1.76725e-82
-5.75987e-87
-8.14493e-83
4.97896e-83
-6.06546e-88
-4.98463e-83
4.60727e-83
-1.79332e-90
-1.12156e-82
1.00774e-82
-2.62967e-91
-6.53616e-81
8.58476e-81
1.36593e-89
-9.991e-79
1.3201e-78
-3.61275e-87
-1.71272e-76
2.26435e-76
-1.33886e-84
-3.32754e-74
4.39054e-74
-1.20479e-82
-7.43939e-72
9.79853e-72
-7.80235e-81
-1.95194e-69
2.56677e-69
1.81999e-78
-7.31618e-67
9.23572e-67
-1.74854e-75
-3.77609e-64
5.00211e-64
-4.51249e-73
-1.60031e-61
2.29618e-61
7.80983e-72
-5.16146e-59
1.08e-58
1.26368e-67
-6.14576e-58
2.50345e-57
1.02458e-65
-8.2424e-58
1.01157e-56
1.76904e-65
-9.66219e-69
1.08857e-56
3.1429e-65
1.44323e-67
8.4366e-76
-3.77335e-14
-7.81184e-12
-1.39953e-18
-1.7487e-17
-9.92568e-14
-1.43697e-20
-7.821e-25
-4.78293e-17
-6.5063e-24
-6.82041e-32
-2.00682e-24
-2.3543e-31
-8.0933e-41
-1.79623e-31
-1.75564e-38
-1.08025e-42
-2.03305e-40
-1.87589e-47
-1.92147e-44
-2.60276e-42
-2.17298e-49
-3.74955e-46
-4.48901e-44
-3.32929e-51
-7.50078e-48
-8.43795e-46
-5.66778e-53
-1.50922e-49
-1.61647e-47
-9.98277e-55
-3.01447e-51
-3.10203e-49
-1.77347e-56
-5.95128e-53
-5.88926e-51
-3.17061e-58
-1.15353e-54
-1.10159e-52
-5.59024e-60
-2.1617e-56
-2.0199e-54
-9.76083e-62
-3.79512e-58
-3.5772e-56
-1.59264e-63
-5.65436e-60
-5.9276e-58
-2.72649e-65
-5.64571e-62
-8.20284e-60
-3.53978e-67
-1.84262e-64
-7.61121e-62
-3.14323e-69
-3.71342e-67
-2.21916e-64
-9.02556e-72
-4.97752e-70
-4.00076e-67
-1.59363e-74
-6.71479e-73
-5.4217e-70
-1.86337e-77
-1.34318e-76
-5.39202e-73
-2.18592e-80
-1.662e-78
-8.35688e-77
-3.77972e-84
-2.09624e-80
-7.19563e-79
-4.5116e-86
-3.64286e-82
-6.73953e-81
-2.58955e-87
-3.6011e-82
-1.64473e-83
-8.38772e-88
-3.11936e-82
1.3531e-83
-2.09378e-88
-1.4367e-82
4.04844e-83
-4.25151e-89
-1.07079e-82
4.46188e-83
-6.87787e-90
-1.00184e-82
7.24532e-83
-1.72897e-90
-3.50359e-82
3.86894e-82
-1.14832e-90
-3.26309e-80
4.09035e-80
6.8782e-89
-5.09402e-78
6.37881e-78
-1.69418e-86
-8.85941e-76
1.10668e-75
-6.45761e-84
-1.73938e-73
2.1686e-73
-5.92637e-82
-3.92933e-71
4.89071e-71
-4.37525e-80
-1.04174e-68
1.29459e-68
8.20654e-78
-4.25605e-66
5.16892e-66
-1.06058e-74
-1.69711e-63
2.19371e-63
-2.32201e-72
-1.03692e-60
1.4706e-60
4.74363e-71
-9.93684e-59
2.27829e-58
2.86452e-67
-7.40814e-58
3.33222e-57
1.44318e-65
-7.81825e-58
1.03185e-56
1.8322e-65
-7.70488e-69
9.84382e-57
2.9237e-65
1.12023e-67
6.45966e-76
-3.86018e-14
-6.88754e-12
-1.34917e-18
-2.03869e-17
-9.74834e-14
-1.43674e-20
-1.22135e-24
-5.27335e-17
-7.56429e-24
-9.2176e-32
-4.18145e-24
-3.68403e-31
-1.09558e-40
-2.37289e-31
-2.41218e-38
-1.49445e-42
-2.6931e-40
-2.60954e-47
-2.80565e-44
-3.52829e-42
-3.09998e-49
-5.69738e-46
-6.43531e-44
-5.01571e-51
-1.17622e-47
-1.25763e-45
-8.88349e-53
-2.43753e-49
-2.48259e-47
-1.61485e-54
-5.02956e-51
-4.89744e-49
-2.956e-56
-1.04689e-52
-9.57738e-51
-5.4653e-58
-2.13498e-54
-1.86937e-52
-1.00262e-59
-4.14084e-56
-3.58747e-54
-1.82829e-61
-7.50206e-58
-6.60918e-56
-3.11954e-63
-1.17111e-59
-1.14312e-57
-5.56599e-65
-1.25413e-61
-1.6701e-59
-7.57102e-67
-4.04102e-64
-1.66611e-61
-7.20001e-69
-8.53628e-67
-4.789e-64
-2.03697e-71
-1.93804e-69
-9.02507e-67
-3.76072e-74
-1.94022e-72
-2.08377e-69
-7.4286e-77
-4.12726e-76
-1.5131e-72
-6.44987e-80
-3.14026e-78
-2.50096e-76
-1.19103e-83
-4.94099e-80
-1.36046e-78
-7.97759e-86
-2.87508e-82
-1.44804e-80
-1.93849e-87
-2.09469e-82
-8.98833e-83
-4.24109e-88
-2.04252e-82
1.26301e-83
-1.40936e-88
-1.5861e-82
3.84086e-83
-2.84103e-89
-1.46272e-82
6.13372e-83
-6.84788e-90
-1.37772e-82
9.55209e-83
-2.82118e-90
-8.86905e-82
1.17219e-81
-4.44189e-90
-1.13196e-79
1.53359e-79
2.7314e-88
-1.79771e-77
2.42466e-77
-6.65149e-86
-3.16552e-75
4.25402e-75
-2.60079e-83
-6.29168e-73
8.42832e-73
-2.4219e-81
-1.43861e-70
1.92163e-70
-2.0317e-79
-3.8725e-68
5.15143e-68
3.27421e-77
-1.78428e-65
2.2976e-65
-5.06331e-74
-4.414e-63
6.59244e-63
-8.61302e-72
-4.1306e-60
6.42004e-60
2.40822e-70
-1.75635e-58
4.37559e-58
5.91255e-67
-8.67683e-58
4.23707e-57
1.94348e-65
-7.23679e-58
1.02528e-56
1.85655e-65
-5.29627e-69
8.69489e-57
2.6677e-65
6.47811e-68
4.30731e-76
-3.88582e-14
-6.04034e-12
-1.2135e-18
-2.25759e-17
-9.47553e-14
-1.39797e-20
-4.21853e-24
-5.5523e-17
-8.23726e-24
-1.25416e-31
-1.76269e-23
-1.24976e-30
-1.49301e-40
-3.16125e-31
-3.25867e-38
-2.08375e-42
-3.59705e-40
-3.57486e-47
-4.13328e-44
-4.82673e-42
-4.35845e-49
-8.70324e-46
-9.30346e-44
-7.45044e-51
-1.85027e-47
-1.88147e-45
-1.36873e-52
-3.9557e-49
-3.81674e-47
-2.56832e-54
-8.76165e-51
-7.73741e-49
-4.86625e-56
-1.94893e-52
-1.59116e-50
-9.40374e-58
-4.16516e-54
-3.29115e-52
-1.82405e-59
-8.31056e-56
-6.63863e-54
-3.51006e-61
-1.53287e-57
-1.26826e-55
-6.25216e-63
-2.49166e-59
-2.25445e-57
-1.1481e-64
-2.86524e-61
-3.49345e-59
-1.65492e-66
-9.17277e-64
-3.73553e-61
-1.68857e-68
-2.04875e-66
-1.06848e-63
-4.73933e-71
-7.37096e-69
-2.12721e-66
-9.23333e-74
-6.51292e-72
-7.41093e-69
-2.88466e-76
-1.71203e-75
-5.0269e-72
-2.20567e-79
-6.28368e-78
-9.86186e-76
-5.01415e-83
-8.87868e-80
-3.00451e-78
-1.59261e-85
-1.51115e-81
-1.86353e-80
-2.26078e-87
-2.19746e-82
-1.41171e-82
-1.91856e-88
-2.14103e-82
1.182e-83
-8.32155e-89
-1.96644e-82
4.77128e-83
-3.07139e-89
-1.71325e-82
7.41496e-83
-1.22284e-89
-1.54452e-82
1.16403e-82
-6.70638e-90
-2.47853e-81
3.53847e-81
-1.3652e-89
-3.53141e-79
5.03807e-79
8.79519e-88
-5.68159e-77
8.06385e-77
-2.18083e-85
-1.01258e-74
1.43105e-74
-8.54662e-83
-2.03665e-72
2.86753e-72
-8.12139e-81
-4.7123e-70
6.61195e-70
-7.41684e-79
-1.50651e-67
2.01631e-67
1.04521e-76
-6.69375e-65
8.97801e-65
-1.99799e-73
-1.70359e-62
2.36332e-62
-2.28037e-71
-1.3039e-59
2.20526e-59
9.08237e-70
-2.86162e-58
7.73175e-58
1.12216e-66
-9.57829e-58
5.13032e-57
2.49929e-65
-6.7849e-58
1.0003e-56
1.842e-65
-2.55761e-69
8.02331e-57
2.47923e-65
2.23545e-68
2.04356e-76
-3.86464e-14
-5.26867e-12
-1.09438e-18
-2.39571e-17
-9.13373e-14
-1.36871e-20
-1.68296e-23
-5.64746e-17
-8.68488e-24
-1.71823e-31
-6.44442e-23
-4.90391e-30
-2.04937e-40
-4.24887e-31
-4.42644e-38
-2.92936e-42
-4.84786e-40
-4.91219e-47
-6.12184e-44
-6.66636e-42
-6.16659e-49
-1.33053e-45
-1.35103e-43
-1.11425e-50
-2.91303e-47
-2.81166e-45
-2.11852e-52
-6.71383e-49
-5.85237e-47
-4.10544e-54
-1.61545e-50
-1.2478e-48
-8.11301e-56
-3.81873e-52
-2.7528e-50
-1.67565e-57
-8.47646e-54
-6.07255e-52
-3.47397e-59
-1.73184e-55
-1.28426e-53
-7.04515e-61
-3.24029e-57
-2.53286e-55
-1.30593e-62
-5.44397e-59
-4.60038e-57
-2.43305e-64
-6.67134e-61
-7.48902e-59
-3.69927e-66
-2.1541e-63
-8.48997e-61
-4.01837e-68
-5.20003e-66
-2.46099e-63
-1.13611e-70
-2.61293e-68
-5.31525e-66
-2.38838e-73
-2.83065e-71
-2.44354e-68
-1.04065e-75
-1.15233e-74
-2.20318e-71
-9.7402e-79
-1.30063e-77
-6.62567e-75
-3.42406e-82
-1.26594e-79
-4.21655e-78
-3.32592e-85
-3.52511e-81
-2.7764e-80
-3.08937e-87
-6.60162e-82
-2.14485e-82
-1.83347e-88
-3.75209e-82
3.30108e-83
-8.4643e-89
-2.78115e-82
7.79687e-83
-4.58486e-89
-2.34217e-82
1.1347e-82
-2.5941e-89
-3.61755e-82
3.01277e-82
-1.5308e-89
-2.09883e-80
2.43462e-80
-8.11845e-89
-3.1176e-78
3.61236e-78
5.83755e-87
-5.07289e-76
5.86137e-76
-1.50897e-84
-9.14504e-74
1.05429e-73
-6.0016e-82
-1.86092e-71
2.1414e-71
-5.85401e-80
-4.35692e-69
5.00551e-69
-5.85316e-78
-1.54104e-66
1.73885e-66
8.44486e-76
-5.14823e-64
6.03337e-64
-1.68744e-72
-2.36539e-61
3.09537e-61
-2.80247e-70
-3.48058e-59
6.37845e-59
3.36468e-69
-4.2073e-58
1.24829e-57
1.96941e-66
-9.72253e-58
5.8522e-57
3.06027e-65
-7.02361e-58
9.88915e-57
1.83094e-65
-7.07262e-70
8.29737e-57
2.54675e-65
3.53876e-69
5.56589e-77
-3.80226e-14
-4.56935e-12
-9.61437e-19
-2.46192e-17
-8.71135e-14
-1.33024e-20
-4.88995e-23
-5.61456e-17
-8.97338e-24
-2.37051e-31
-1.5988e-22
-1.45178e-29
-2.83479e-40
-5.76354e-31
-6.22115e-38
-4.15284e-42
-6.59729e-40
-6.88966e-47
-9.0812e-44
-9.29843e-42
-8.84437e-49
-2.02939e-45
-1.96328e-43
-1.67226e-50
-4.73011e-47
-4.18441e-45
-3.2703e-52
-1.20346e-48
-9.07913e-47
-6.576e-54
-3.14181e-50
-2.09192e-48
-1.39362e-55
-7.82352e-52
-5.01124e-50
-3.12065e-57
-1.7918e-53
-1.17748e-51
-6.9162e-59
-3.73463e-55
-2.59623e-53
-1.46965e-60
-7.09001e-57
-5.2595e-55
-2.81391e-62
-1.21719e-58
-9.72876e-57
-5.31763e-64
-1.57138e-60
-1.63219e-58
-8.40939e-66
-5.22934e-63
-1.94493e-60
-9.61835e-68
-1.4195e-65
-5.84876e-63
-2.80109e-70
-9.14792e-68
-1.43454e-65
-6.61523e-73
-1.73846e-70
-8.15283e-68
-3.6937e-75
-1.67797e-73
-1.37945e-70
-6.06002e-78
-1.63275e-76
-1.10387e-73
-5.04674e-81
-9.74641e-78
-1.6371e-76
-4.21896e-84
-2.00145e-79
-9.49266e-78
-1.38619e-85
-7.23458e-81
-1.91122e-79
-2.94929e-87
-2.98923e-81
6.80874e-82
-2.01262e-88
-1.59876e-81
7.10913e-82
-9.19081e-89
-9.66276e-82
7.73109e-82
-5.50787e-89
-1.86081e-81
1.4303e-81
-2.99005e-89
-1.21466e-79
1.45121e-79
-4.89723e-88
-1.83215e-77
2.19107e-77
3.51635e-86
-3.02603e-75
3.60547e-75
-9.69032e-84
-5.53622e-73
6.57604e-73
-3.81748e-81
-1.14322e-70
1.35433e-70
-3.83397e-79
-2.80336e-68
3.29597e-68
-4.03201e-77
-1.10799e-65
1.27956e-65
6.07175e-75
-2.41049e-63
3.00442e-63
-1.0053e-71
-1.64076e-60
2.27937e-60
-2.25044e-69
-7.77941e-59
1.54113e-58
1.00183e-68
-4.95601e-58
1.74743e-57
3.09013e-66
-8.42989e-58
6.30653e-57
3.47865e-65
-1.32732e-57
1.18885e-56
2.04964e-65
-8.50866e-71
2.06166e-56
4.79692e-65
1.76047e-70
6.6589e-78
-3.65332e-14
-3.93846e-12
-8.2924e-19
-2.47112e-17
-7.97292e-14
-1.27727e-20
-1.00759e-22
-5.48978e-17
-8.93714e-24
-3.29352e-31
-2.8427e-22
-2.91513e-29
-3.95311e-40
-7.89414e-31
-8.38137e-38
-5.93748e-42
-9.07146e-40
-9.39129e-47
-1.34561e-43
-1.31018e-41
-1.2451e-48
-3.11981e-45
-2.84963e-43
-2.45381e-50
-8.06191e-47
-6.23627e-45
-4.95281e-52
-2.28793e-48
-1.45422e-46
-1.06198e-53
-6.43663e-50
-3.70194e-48
-2.48038e-55
-1.67418e-51
-9.65785e-50
-6.07838e-57
-3.93549e-53
-2.40163e-51
-1.43682e-58
-8.34663e-55
-5.48379e-53
-3.18209e-60
-1.60558e-56
-1.13599e-54
-6.26291e-62
-2.80706e-58
-2.13403e-56
-1.19864e-63
-3.74121e-60
-3.63257e-58
-1.93805e-65
-1.31409e-62
-4.50276e-60
-2.31384e-67
-4.23949e-65
-1.43824e-62
-7.11148e-70
-3.51763e-67
-4.25707e-65
-1.99531e-72
-1.54653e-69
-3.04024e-67
-1.43404e-74
-5.61197e-72
-1.19464e-69
-5.44277e-77
-3.99462e-74
-4.07106e-72
-1.70373e-79
-3.82107e-75
-2.43347e-74
-1.04205e-81
-2.65689e-76
-3.56872e-75
-5.11234e-83
-1.22062e-79
-2.65509e-76
-2.91758e-84
-2.03533e-80
1.16992e-80
-2.08321e-87
-1.00629e-80
5.02822e-81
-2.78093e-88
-5.59119e-81
4.95051e-81
-1.38457e-88
-1.17321e-80
8.8472e-81
-9.30145e-89
-8.13858e-79
9.5725e-79
-3.19964e-87
-1.1946e-76
1.41523e-76
2.12948e-85
-1.99422e-74
2.35483e-74
-6.37322e-83
-3.70427e-72
4.35899e-72
-2.54876e-80
-7.76632e-70
9.11178e-70
-2.62077e-78
-2.27627e-67
2.60065e-67
-2.99557e-76
-6.98784e-65
8.25112e-65
4.86283e-74
-1.89668e-62
2.91255e-62
-7.21068e-71
-6.74462e-60
1.02901e-59
-1.1248e-68
-1.20343e-58
2.86156e-58
2.59077e-68
-4.09518e-58
2.05401e-57
4.02693e-66
-9.8009e-58
7.20044e-57
4.00412e-65
-8.66535e-57
3.5466e-56
4.64799e-65
-3.10564e-72
1.57212e-55
3.12356e-64
1.78887e-72
9.58432e-79
-3.29127e-14
-3.37544e-12
-7.29052e-19
-2.43023e-17
-6.95201e-14
-1.16905e-20
-1.57964e-22
-5.25507e-17
-8.94108e-24
-4.60893e-31
-3.95732e-22
-4.65668e-29
-5.55938e-40
-1.09248e-30
-1.19033e-37
-8.56197e-42
-1.26117e-39
-1.33393e-46
-1.99236e-43
-1.86544e-41
-1.81078e-48
-4.97729e-45
-4.13916e-43
-3.6753e-50
-1.46401e-46
-9.49547e-45
-7.72625e-52
-4.62774e-48
-2.45545e-46
-1.82133e-53
-1.38774e-49
-6.99313e-48
-4.74845e-55
-3.74122e-51
-1.97538e-49
-1.26405e-56
-8.99251e-53
-5.15172e-51
-3.1463e-58
-1.93776e-54
-1.21056e-52
-7.18769e-60
-3.77506e-56
-2.55538e-54
-1.44491e-61
-6.66593e-58
-4.86651e-56
-2.79261e-63
-9.05789e-60
-8.37105e-58
-4.5718e-65
-3.43193e-62
-1.06224e-59
-5.6248e-67
-1.39875e-64
-3.67568e-62
-1.86572e-69
-1.64516e-66
-1.4036e-64
-6.6153e-72
-1.916e-68
-1.37171e-66
-6.74229e-74
-2.80883e-70
-1.31677e-68
-6.78296e-76
-1.11113e-71
-1.76179e-70
-8.58137e-78
-1.86997e-72
-6.19877e-72
-2.1867e-79
-4.21783e-73
-7.84988e-73
-2.61136e-80
-8.26484e-74
-8.4904e-74
-5.03422e-81
-2.15273e-74
4.95354e-75
-8.50142e-82
-6.84683e-75
4.86047e-75
-1.88004e-82
-2.80957e-75
2.9301e-75
-4.97057e-83
-1.37195e-75
1.90043e-75
-1.55385e-83
-6.38496e-76
1.37924e-75
-4.51235e-84
-2.03699e-75
1.67183e-75
2.2849e-84
-2.05494e-73
2.28018e-73
-6.34509e-82
-3.83595e-71
4.26363e-71
-2.5308e-79
-8.16719e-69
9.0598e-69
-2.66493e-77
-2.80393e-66
3.05762e-66
-3.61106e-75
-5.60132e-64
6.40274e-64
4.6738e-73
-3.10693e-61
3.94331e-61
-1.04729e-69
-1.71882e-59
2.91022e-59
-3.65143e-68
-1.34046e-58
4.06332e-58
4.92666e-68
-3.56975e-58
2.28474e-57
4.8198e-66
-3.07866e-57
1.23705e-56
6.10518e-65
-7.69145e-56
2.58082e-55
3.02034e-64
-2.39586e-74
1.34113e-54
2.77828e-63
2.70474e-75
2.22683e-80
-2.85017e-14
-2.88041e-12
-6.47917e-19
-2.34551e-17
-5.8618e-14
-1.03773e-20
-2.02494e-22
-4.88687e-17
-8.68685e-24
-6.49862e-31
-4.64418e-22
-5.94849e-29
-7.88757e-40
-1.52924e-30
-1.67025e-37
-1.24542e-41
-1.77414e-39
-1.88417e-46
-2.98509e-43
-2.68477e-41
-2.61231e-48
-8.38446e-45
-6.07299e-43
-5.41408e-50
-2.85604e-46
-1.50601e-44
-1.21644e-51
-9.95868e-48
-4.44648e-46
-3.25086e-53
-3.14735e-49
-1.41819e-47
-9.54666e-55
-8.74265e-51
-4.2885e-49
-2.74656e-56
-2.1436e-52
-1.16238e-50
-7.16268e-58
-4.68973e-54
-2.79681e-52
-1.68365e-59
-9.25226e-56
-6.00149e-54
-3.45409e-61
-1.65045e-57
-1.15745e-55
-6.7401e-63
-2.24893e-59
-2.01093e-57
-1.1175e-64
-9.3541e-62
-2.57134e-59
-1.39357e-66
-5.06497e-64
-9.77619e-62
-5.08004e-69
-1.17621e-65
-5.10206e-64
-2.39524e-71
-5.13531e-67
-9.70221e-66
-4.21121e-73
-2.43679e-68
-3.82818e-67
-1.23484e-74
-2.5974e-69
-1.59398e-68
-4.84328e-76
-6.55381e-70
-1.26669e-69
-4.36843e-77
-2.17124e-70
-2.16472e-70
-9.84059e-78
-8.16312e-71
-2.88228e-71
-2.88426e-78
-3.32009e-71
5.12719e-72
-9.31559e-79
-1.3466e-71
7.6604e-72
-3.11986e-79
-5.50191e-72
5.56652e-72
-9.93265e-80
-2.3641e-72
3.41739e-72
-2.94379e-80
-1.07981e-72
2.06402e-72
-7.1931e-81
-5.45336e-73
1.35387e-72
1.6639e-81
-2.59881e-72
2.41202e-72
-6.62315e-81
-3.26102e-70
3.67686e-70
-2.24548e-78
-7.02435e-68
7.92105e-68
-2.40983e-76
-2.028e-65
2.329e-65
-3.93926e-74
-6.1033e-63
8.5445e-63
4.90743e-72
-1.45831e-60
2.01945e-60
-5.99811e-69
-2.64745e-59
5.54058e-59
-7.61693e-68
-1.04615e-58
4.726e-58
7.5541e-68
-3.86649e-58
2.52999e-57
5.65078e-66
-2.22649e-56
5.66421e-56
2.32135e-64
-5.90563e-55
1.98313e-54
2.40614e-63
-3.22667e-77
9.56911e-54
2.13962e-62
3.70943e-76
3.15583e-81
-2.374e-14
-2.45332e-12
-5.77994e-19
-2.08651e-17
-4.80468e-14
-8.83317e-21
-2.25044e-22
-4.14875e-17
-7.77396e-24
-9.23982e-31
-4.86319e-22
-6.55803e-29
-1.12959e-39
-2.1687e-30
-2.34048e-37
-1.82779e-41
-2.52788e-39
-2.68254e-46
-4.61987e-43
-3.9076e-41
-3.84594e-48
-1.51626e-44
-9.11771e-43
-8.31642e-50
-6.016e-46
-2.53859e-44
-2.08548e-51
-2.27995e-47
-8.74447e-46
-6.47298e-53
-7.52042e-49
-3.09278e-47
-2.11653e-54
-2.14371e-50
-9.88256e-49
-6.44371e-56
-5.35387e-52
-2.76308e-50
-1.73287e-57
-1.18873e-53
-6.78281e-52
-4.1486e-59
-2.37512e-55
-1.4771e-53
-8.63547e-61
-4.28002e-57
-2.88294e-55
-1.6955e-62
-5.75837e-59
-5.05617e-57
-2.84438e-64
-2.66776e-61
-6.39548e-59
-3.53902e-66
-1.9466e-63
-2.70052e-61
-1.4393e-68
-1.47877e-64
-1.92028e-63
-9.15947e-71
-2.12686e-65
-1.17371e-64
-3.93493e-72
-2.19421e-66
-1.61186e-65
-4.40534e-73
-3.12092e-67
-1.42853e-66
-4.04137e-74
-8.41363e-68
-1.45181e-67
-5.25917e-75
-3.15152e-68
-2.4e-68
-1.30194e-75
-1.35654e-68
-3.80238e-69
-4.37629e-76
-6.90623e-69
8.68221e-70
-1.66782e-76
-4.14979e-69
1.72207e-69
-7.38711e-77
-2.92422e-69
1.96461e-69
-3.68866e-77
-2.26321e-69
2.12884e-69
-1.93136e-77
-1.71115e-69
2.23888e-69
-8.29047e-78
-1.06489e-69
2.11241e-69
2.53297e-78
-5.83342e-70
1.68347e-69
-4.5903e-78
-5.30254e-69
5.3172e-69
-3.20181e-77
-9.43376e-67
1.01943e-66
-3.08047e-75
-2.36224e-64
2.58753e-64
-4.34448e-73
-1.159e-61
1.37695e-61
8.5326e-71
-4.70144e-60
7.12773e-60
-2.37644e-68
-4.04061e-59
9.36363e-59
-1.42367e-67
-1.08318e-58
5.11959e-58
1.10316e-67
-5.9005e-58
3.03836e-57
6.76268e-66
-1.72428e-55
4.06553e-55
1.66788e-63
-3.63222e-54
1.26354e-53
1.65835e-62
-4.97356e-78
5.36934e-53
1.32673e-61
1.83668e-79
1.31888e-84
-1.90853e-14
-2.09355e-12
-5.21236e-19
-1.71713e-17
-3.85332e-14
-7.09411e-21
-2.27048e-22
-3.39227e-17
-6.55351e-24
-1.32659e-30
-4.71024e-22
-6.96435e-29
-1.63435e-39
-3.12346e-30
-3.54049e-37
-2.70804e-41
-3.65341e-39
-4.04138e-46
-7.45857e-43
-5.75732e-41
-5.81461e-48
-2.98474e-44
-1.41342e-42
-1.3014e-49
-1.37062e-45
-4.63311e-44
-3.7499e-51
-5.56162e-47
-1.87981e-45
-1.36495e-52
-1.90144e-48
-7.25669e-47
-4.90915e-54
-5.54783e-50
-2.42263e-48
-1.5726e-55
-1.40984e-51
-6.94881e-50
-4.36427e-57
-3.17511e-53
-1.73574e-51
-1.06674e-58
-6.42298e-55
-3.83066e-53
-2.25667e-60
-1.1684e-56
-7.56002e-55
-4.45328e-62
-1.52659e-58
-1.33732e-56
-7.5731e-64
-8.01902e-61
-1.63741e-58
-9.25044e-66
-7.4262e-63
-7.79597e-61
-4.27574e-68
-1.53688e-63
-6.61494e-63
-3.46075e-70
-4.71409e-64
-1.0878e-63
-4.01499e-71
-9.87954e-65
-3.41573e-64
-1.04773e-71
-1.9903e-65
-6.46425e-65
-1.86017e-72
-5.49342e-66
-1.01953e-65
-3.379e-73
-2.28528e-66
-1.72348e-66
-8.75643e-74
-1.21056e-66
-2.89259e-67
-3.38268e-74
-7.70544e-67
8.0033e-68
-1.62378e-74
-5.7733e-67
2.01533e-67
-9.11968e-75
-5.05992e-67
2.90298e-67
-5.75082e-75
-5.20883e-67
3.94352e-67
-3.779e-75
-5.858e-67
6.0938e-67
-2.39321e-75
-7.36165e-67
9.66637e-67
1.11723e-75
-1.0935e-66
2.0487e-66
-5.77947e-75
-2.82115e-66
8.94735e-66
-5.38334e-74
-2.72959e-64
5.4963e-64
-1.65625e-72
-2.04817e-62
3.37982e-62
-4.91843e-71
-7.82919e-61
1.13196e-60
8.06772e-70
-1.10647e-59
1.8237e-59
-6.47016e-68
-3.63238e-59
1.05985e-58
-2.05212e-67
-8.46694e-59
4.7625e-58
1.28536e-67
-4.00323e-57
1.01182e-56
1.74462e-65
-1.03595e-54
2.45349e-54
1.0821e-62
-1.64387e-53
5.76573e-53
8.61515e-62
-1.25933e-80
2.05728e-52
6.06044e-61
1.41755e-79
1.32535e-85
-1.48395e-14
-1.79851e-12
-4.43407e-19
-1.3711e-17
-3.03394e-14
-5.28548e-21
-2.15896e-22
-2.72713e-17
-5.31178e-24
-1.92761e-30
-4.27845e-22
-6.54398e-29
-2.39253e-39
-4.5836e-30
-4.99922e-37
-4.05537e-41
-5.3663e-39
-5.82806e-46
-1.27144e-42
-8.60036e-41
-8.68988e-48
-6.44744e-44
-2.29099e-42
-2.13409e-49
-3.37963e-45
-9.31422e-44
-7.55858e-51
-1.45304e-46
-4.42943e-45
-3.24992e-52
-5.12971e-48
-1.83717e-46
-1.26249e-53
-1.52945e-49
-6.35683e-48
-4.18556e-55
-3.94999e-51
-1.8635e-49
-1.18469e-56
-9.01232e-53
-4.7261e-51
-2.93305e-58
-1.84357e-54
-1.0552e-52
-6.26952e-60
-3.37977e-56
-2.10243e-54
-1.22875e-61
-4.24326e-58
-3.74456e-56
-2.12603e-63
-2.61106e-60
-4.38705e-58
-2.52163e-65
-2.6993e-62
-2.42758e-60
-1.36931e-67
-8.82148e-63
-2.06278e-62
-1.24049e-69
-4.61139e-63
-5.04626e-63
-2.55045e-70
-1.88712e-63
-2.78558e-63
-1.1697e-70
-6.45106e-64
-1.08834e-63
-3.90644e-71
-2.22683e-64
-3.2695e-64
-1.1546e-71
-9.95786e-65
-7.92711e-65
-3.65043e-72
-5.99564e-65
-1.3871e-65
-1.53511e-72
-4.22888e-65
3.89029e-66
-8.3635e-73
-3.32565e-65
1.06621e-65
-5.11292e-73
-2.95485e-65
1.58875e-65
-3.33187e-73
-3.08985e-65
2.18006e-65
-2.20542e-73
-4.42324e-65
4.01238e-65
-1.66477e-73
-9.89138e-65
1.0506e-64
1.24207e-73
-3.89484e-64
4.96779e-64
-1.48547e-72
-2.59789e-63
3.9015e-63
-2.48452e-71
-3.10023e-62
4.64272e-62
-1.49687e-70
-5.37181e-61
6.94276e-61
-1.08559e-69
-7.17587e-60
8.07449e-60
6.92692e-69
-2.87501e-59
3.52117e-59
-1.94006e-67
-2.95787e-59
9.01286e-59
-1.87288e-67
2.35349e-58
1.48651e-58
4.77334e-68
-6.48079e-56
1.45921e-55
2.2836e-64
-4.5741e-54
1.21744e-53
5.83781e-62
-3.87538e-53
1.55631e-52
2.76774e-61
-1.08023e-80
3.03931e-52
1.44979e-60
1.01634e-79
8.80741e-88
-1.11394e-14
-1.56171e-12
-3.94035e-19
-1.06548e-17
-2.35197e-14
-4.04643e-21
-1.7271e-22
-2.1689e-17
-4.40128e-24
-2.84397e-30
-2.87077e-22
-5.86793e-29
-3.55179e-39
-6.88166e-30
-8.17912e-37
-6.14931e-41
-8.03214e-39
-9.27768e-46
-2.32609e-42
-1.30504e-40
-1.36313e-47
-1.53112e-43
-3.94774e-42
-3.68072e-49
-9.03707e-45
-2.08383e-43
-1.64981e-50
-4.1075e-46
-1.14498e-44
-8.23536e-52
-1.49682e-47
-5.05557e-46
-3.42919e-53
-4.55514e-49
-1.80614e-47
-1.17997e-54
-1.19337e-50
-5.39735e-49
-3.42357e-56
-2.75205e-52
-1.38653e-50
-8.62529e-58
-5.67756e-54
-3.12415e-52
-1.8713e-59
-1.04509e-55
-6.26664e-54
-3.61477e-61
-1.2779e-57
-1.11922e-55
-6.36668e-63
-9.80488e-60
-1.2769e-57
-7.41257e-65
-1.0748e-61
-8.6767e-60
-5.03601e-67
-3.18014e-62
-7.45369e-62
-4.85242e-69
-2.22852e-62
-1.3795e-62
-1.01789e-69
-1.45482e-62
-9.58244e-63
-6.36989e-70
-8.3563e-63
-5.92996e-63
-3.46055e-70
-4.45281e-63
-3.14648e-63
-1.6839e-70
-2.42541e-63
-1.38144e-63
-7.81915e-71
-1.55777e-63
-3.72499e-64
-3.85603e-71
-1.17663e-63
9.75339e-65
-2.24351e-71
-1.02285e-63
2.90304e-64
-1.48856e-71
-1.03824e-63
4.75795e-64
-1.06488e-71
-1.30679e-63
8.2274e-64
-8.8275e-72
-2.28363e-63
1.77128e-63
-7.77679e-72
-5.52824e-63
5.22869e-63
6.47454e-72
-1.79184e-62
2.0526e-62
-6.48428e-71
-8.55912e-62
1.0653e-61
-7.42228e-70
-6.51402e-61
7.22897e-61
-2.61895e-69
-4.73383e-60
4.69967e-60
-9.14419e-69
-1.28217e-59
1.45036e-59
2.30565e-68
-1.28568e-59
2.94299e-59
-1.76896e-67
1.2499e-59
3.96493e-59
-8.00972e-68
-2.45973e-57
7.84004e-57
1.58376e-66
-8.06065e-55
1.73609e-54
2.97226e-63
-1.80927e-53
4.84567e-53
2.6118e-61
-4.31834e-53
2.73038e-52
5.97251e-61
-2.0884e-80
3.19188e-52
1.64071e-60
2.73859e-80
1.73173e-87
-8.07858e-15
-1.37249e-12
-3.91033e-19
-8.09539e-18
-1.80567e-14
-3.43033e-21
-1.00459e-22
-1.71334e-17
-3.55955e-24
-4.2788e-30
-1.53524e-22
-3.49682e-29
-5.36441e-39
-1.06183e-29
-1.24049e-36
-9.45937e-41
-1.22906e-38
-1.41981e-45
-4.61921e-42
-2.01471e-40
-2.13297e-47
-3.97226e-43
-7.35255e-42
-6.90707e-49
-2.62998e-44
-5.1812e-43
-4.13674e-50
-1.27583e-45
-3.24879e-44
-2.372e-51
-4.82032e-47
-1.53143e-45
-1.05402e-52
-1.49646e-48
-5.65869e-47
-3.74098e-54
-3.96616e-50
-1.72106e-48
-1.10423e-55
-9.21113e-52
-4.46482e-50
-2.81487e-57
-1.90834e-53
-1.01166e-51
-6.2277e-59
-3.50445e-55
-2.03449e-53
-1.18151e-60
-4.40308e-57
-3.61389e-55
-2.07415e-62
-4.7049e-59
-4.22301e-57
-2.4846e-64
-7.06354e-61
-3.88779e-59
-2.35839e-66
-1.229e-61
-4.57639e-61
-3.1226e-68
-7.96932e-62
-5.01888e-62
-3.88139e-69
-5.89343e-62
-2.63007e-62
-2.31366e-69
-4.45819e-62
-1.57366e-62
-1.52621e-69
-3.39402e-62
-9.04403e-63
-1.01108e-69
-2.58795e-62
-4.59042e-63
-6.70572e-70
-2.01782e-62
-1.48828e-63
-4.45956e-70
-1.71169e-62
1.17272e-63
-3.05332e-70
-1.63742e-62
3.86513e-63
-2.23816e-70
-1.81145e-62
6.8032e-63
-1.69361e-70
-2.5244e-62
1.38974e-62
-1.66641e-70
-4.31946e-62
2.96637e-62
-1.44682e-70
-9.59344e-62
7.90442e-62
1.16995e-70
-2.76769e-61
2.55303e-61
-9.28948e-70
-9.98729e-61
9.3528e-61
-7.90563e-69
-3.39518e-60
3.10185e-60
-1.55123e-68
-6.45023e-60
6.86958e-60
-2.09088e-68
-6.82255e-60
1.19025e-59
2.25536e-68
-5.1203e-60
1.56092e-59
-1.02661e-67
4.29279e-59
5.35876e-58
-5.94222e-67
-1.35881e-55
2.74536e-55
6.75151e-65
-5.44984e-54
1.17967e-53
2.31644e-62
-3.99771e-53
1.25231e-52
7.90315e-61
-3.96187e-53
3.3861e-52
8.89018e-61
-3.00854e-81
2.62882e-52
1.53653e-60
5.8634e-81
6.42114e-88
-5.69995e-15
-1.21914e-12
-3.08403e-19
-6.04971e-18
-1.38519e-14
-2.68895e-21
-5.20297e-23
-1.35425e-17
-2.71117e-24
-6.59701e-30
-8.44419e-23
-1.98351e-29
-8.27716e-39
-1.69072e-29
-2.03818e-36
-1.4777e-40
-1.9295e-38
-2.24933e-45
-9.95268e-42
-3.16397e-40
-3.33096e-47
-1.1117e-42
-1.4935e-41
-1.35756e-48
-8.36067e-44
-1.41418e-42
-1.09659e-49
-4.43781e-45
-1.01254e-43
-7.20302e-51
-1.76145e-46
-5.19446e-45
-3.50795e-52
-5.59104e-48
-2.00663e-46
-1.31177e-53
-1.49448e-49
-6.217e-48
-3.98672e-55
-3.47844e-51
-1.62242e-49
-1.03492e-56
-7.20016e-53
-3.67808e-51
-2.37665e-58
-1.31258e-54
-7.37849e-53
-4.36722e-60
-1.86199e-56
-1.29164e-54
-7.56375e-62
-3.3904e-58
-1.66276e-56
-1.01937e-63
-1.73359e-59
-2.51763e-58
-1.63347e-65
-2.48595e-60
-1.22497e-59
-5.29623e-67
-6.26344e-61
-1.62392e-60
-6.04688e-68
-2.75699e-61
-3.16223e-61
-1.49276e-68
-1.74732e-61
-9.3768e-62
-6.50259e-69
-1.30186e-61
-3.86647e-62
-3.871e-69
-1.04787e-61
-1.7198e-62
-2.605e-69
-8.95653e-62
-5.30213e-63
-1.86468e-69
-8.37188e-62
5.10025e-63
-1.40103e-69
-8.69139e-62
1.77358e-62
-1.10251e-69
-1.04851e-61
3.65043e-62
-9.94586e-70
-1.4685e-61
6.92985e-62
-9.34804e-70
-2.48422e-61
1.45266e-61
-8.04969e-70
-5.06865e-61
3.41213e-61
6.43915e-70
-1.15289e-60
8.5141e-61
-3.80266e-69
-2.43051e-60
1.98866e-60
-2.23918e-68
-3.7785e-60
3.77556e-60
-2.4133e-68
-4.39117e-60
5.6197e-60
-1.76425e-68
-3.91191e-60
7.55166e-60
1.55733e-68
-5.11055e-59
5.87245e-59
-2.66804e-67
-2.62102e-56
5.17618e-56
-5.61042e-65
-1.39685e-54
2.70321e-54
8.51238e-64
-1.90858e-53
4.42633e-53
9.92201e-62
-6.63348e-53
2.37355e-52
1.63813e-60
-3.03072e-53
3.90527e-52
1.09798e-60
-3.58617e-82
1.0114e-52
9.308e-61
2.66406e-81
5.30878e-89
-3.95181e-15
-1.09165e-12
-3.44321e-19
-4.50863e-18
-1.07233e-14
-2.67182e-21
-3.03996e-23
-1.09347e-17
-2.28094e-24
-1.04681e-29
-6.1176e-23
-1.2743e-29
-1.31071e-38
-2.78495e-29
-3.51932e-36
-2.34089e-40
-3.11836e-38
-3.79589e-45
-2.28707e-41
-5.03523e-40
-5.51171e-47
-3.2974e-42
-3.28166e-41
-3.00214e-48
-2.90332e-43
-4.15224e-42
-3.23217e-49
-1.75918e-44
-3.46114e-43
-2.46491e-50
-7.5584e-46
-2.00811e-44
-1.35055e-51
-2.48273e-47
-8.3345e-46
-5.43122e-53
-6.69073e-49
-2.65638e-47
-1.71329e-54
-1.55262e-50
-6.9561e-49
-4.5173e-56
-3.19661e-52
-1.56695e-50
-1.04613e-57
-5.88141e-54
-3.11788e-52
-1.88121e-59
-1.12373e-55
-5.43808e-54
-3.27373e-61
-6.35757e-57
-8.97757e-56
-5.71882e-63
-1.19836e-57
-4.34623e-57
-2.1151e-64
-2.70797e-58
-7.83094e-58
-3.11984e-65
-6.72565e-59
-1.64455e-58
-6.35892e-66
-1.94953e-59
-3.64073e-59
-1.4303e-66
-6.77947e-60
-8.84884e-60
-3.78845e-67
-2.86096e-60
-2.34998e-60
-1.21353e-67
-1.45292e-60
-6.37057e-61
-4.71831e-68
-8.66012e-61
-1.24972e-61
-2.1972e-68
-6.21615e-61
4.58071e-62
-1.19244e-68
-5.23783e-61
1.26783e-61
-7.5837e-69
-5.12757e-61
1.9809e-61
-5.28711e-69
-5.54203e-61
2.76139e-61
-3.64818e-69
-7.73674e-61
4.78831e-61