/*--------------------------------*- C++ -*----------------------------------*\
| =========                 |                                                 |
| \\      /  F ield         | OpenFOAM: The Open Source CFD Toolbox           |
|  \\    /   O peration     | Version:  v2012                                 |
|   \\  /    A nd           | Website:  www.openfoam.com                      |
|    \\/     M anipulation  |                                                 |
\*---------------------------------------------------------------------------*/
FoamFile
{
    version     2.0;
    format      ascii;
    class       volScalarField;
    location    "0.15";
    object      p_rgh;
}
// * * * * * * * * * * * * * * * * * * * * * * * * * * * * * * * * * * * * * //

dimensions      [1 -1 -2 0 0 0 0];


internalField   nonuniform List<scalar> 
3326
(
3.48687e+06
3.4869e+06
3.48689e+06
3.48686e+06
3.48679e+06
3.4867e+06
3.48656e+06
3.48639e+06
3.48614e+06
3.48661e+06
3.48671e+06
3.48678e+06
3.48683e+06
3.48685e+06
3.48685e+06
3.48681e+06
3.48675e+06
3.48666e+06
3.48651e+06
3.48635e+06
3.4861e+06
3.46978e+06
3.47263e+06
3.47382e+06
3.47532e+06
3.47631e+06
3.47727e+06
3.47805e+06
3.47874e+06
3.47935e+06
3.4799e+06
3.48039e+06
3.48085e+06
3.48127e+06
3.48166e+06
3.48203e+06
3.48238e+06
3.48272e+06
3.48304e+06
3.48334e+06
3.48364e+06
3.48392e+06
3.4842e+06
3.48446e+06
3.48472e+06
3.48496e+06
3.4852e+06
3.48542e+06
3.48563e+06
3.48582e+06
3.48601e+06
3.48617e+06
3.48632e+06
3.48646e+06
3.48657e+06
3.48666e+06
3.48674e+06
3.48678e+06
3.48681e+06
3.4868e+06
3.48677e+06
3.48671e+06
3.48662e+06
3.48648e+06
3.48632e+06
3.48606e+06
3.47212e+06
3.4747e+06
3.47563e+06
3.4769e+06
3.47768e+06
3.47846e+06
3.47907e+06
3.47962e+06
3.4801e+06
3.48053e+06
3.48093e+06
3.4813e+06
3.48165e+06
3.48198e+06
3.4823e+06
3.4826e+06
3.48289e+06
3.48318e+06
3.48346e+06
3.48373e+06
3.48399e+06
3.48425e+06
3.4845e+06
3.48474e+06
3.48497e+06
3.4852e+06
3.48541e+06
3.48561e+06
3.4858e+06
3.48598e+06
3.48614e+06
3.48629e+06
3.48642e+06
3.48653e+06
3.48663e+06
3.4867e+06
3.48675e+06
3.48677e+06
3.48677e+06
3.48673e+06
3.48667e+06
3.48658e+06
3.48644e+06
3.48628e+06
3.48603e+06
3.47471e+06
3.47692e+06
3.47757e+06
3.47857e+06
3.47913e+06
3.4797e+06
3.48013e+06
3.48053e+06
3.48087e+06
3.48119e+06
3.48149e+06
3.48177e+06
3.48204e+06
3.48231e+06
3.48257e+06
3.48282e+06
3.48307e+06
3.48332e+06
3.48357e+06
3.48382e+06
3.48406e+06
3.4843e+06
3.48453e+06
3.48476e+06
3.48498e+06
3.4852e+06
3.4854e+06
3.4856e+06
3.48578e+06
3.48596e+06
3.48612e+06
3.48626e+06
3.48639e+06
3.4865e+06
3.48659e+06
3.48666e+06
3.48671e+06
3.48673e+06
3.48673e+06
3.4867e+06
3.48664e+06
3.48654e+06
3.48641e+06
3.48625e+06
3.48601e+06
3.4776e+06
3.47932e+06
3.47967e+06
3.48036e+06
3.48066e+06
3.481e+06
3.48124e+06
3.48147e+06
3.48167e+06
3.48186e+06
3.48205e+06
3.48224e+06
3.48244e+06
3.48264e+06
3.48284e+06
3.48304e+06
3.48326e+06
3.48347e+06
3.48369e+06
3.48391e+06
3.48413e+06
3.48435e+06
3.48457e+06
3.48478e+06
3.48499e+06
3.4852e+06
3.4854e+06
3.48559e+06
3.48577e+06
3.48594e+06
3.48609e+06
3.48624e+06
3.48636e+06
3.48647e+06
3.48656e+06
3.48663e+06
3.48668e+06
3.4867e+06
3.4867e+06
3.48667e+06
3.4866e+06
3.48651e+06
3.48638e+06
3.48622e+06
3.48598e+06
3.48081e+06
3.48192e+06
3.48193e+06
3.48225e+06
3.48227e+06
3.48236e+06
3.48239e+06
3.48244e+06
3.48248e+06
3.48255e+06
3.48263e+06
3.48272e+06
3.48284e+06
3.48297e+06
3.48311e+06
3.48327e+06
3.48344e+06
3.48362e+06
3.4838e+06
3.484e+06
3.4842e+06
3.4844e+06
3.4846e+06
3.4848e+06
3.485e+06
3.4852e+06
3.48539e+06
3.48558e+06
3.48575e+06
3.48592e+06
3.48607e+06
3.48621e+06
3.48634e+06
3.48644e+06
3.48653e+06
3.4866e+06
3.48665e+06
3.48667e+06
3.48667e+06
3.48664e+06
3.48658e+06
3.48649e+06
3.48635e+06
3.4862e+06
3.48596e+06
3.48434e+06
3.48472e+06
3.48435e+06
3.48425e+06
3.48397e+06
3.48378e+06
3.48358e+06
3.48343e+06
3.48332e+06
3.48324e+06
3.48321e+06
3.48321e+06
3.48324e+06
3.4833e+06
3.48338e+06
3.48349e+06
3.48362e+06
3.48376e+06
3.48392e+06
3.48409e+06
3.48427e+06
3.48445e+06
3.48464e+06
3.48483e+06
3.48502e+06
3.48521e+06
3.48539e+06
3.48557e+06
3.48574e+06
3.4859e+06
3.48605e+06
3.48619e+06
3.48631e+06
3.48642e+06
3.48651e+06
3.48657e+06
3.48662e+06
3.48664e+06
3.48664e+06
3.48661e+06
3.48655e+06
3.48646e+06
3.48633e+06
3.48618e+06
3.48595e+06
3.48819e+06
3.48774e+06
3.48694e+06
3.48636e+06
3.48574e+06
3.48525e+06
3.4848e+06
3.48445e+06
3.48416e+06
3.48395e+06
3.48379e+06
3.48369e+06
3.48364e+06
3.48363e+06
3.48365e+06
3.48371e+06
3.4838e+06
3.48391e+06
3.48403e+06
3.48418e+06
3.48433e+06
3.4845e+06
3.48467e+06
3.48485e+06
3.48503e+06
3.48521e+06
3.48539e+06
3.48556e+06
3.48573e+06
3.48589e+06
3.48603e+06
3.48617e+06
3.48629e+06
3.48639e+06
3.48648e+06
3.48655e+06
3.48659e+06
3.48662e+06
3.48661e+06
3.48659e+06
3.48653e+06
3.48644e+06
3.48631e+06
3.48616e+06
3.48593e+06
3.49232e+06
3.49097e+06
3.48967e+06
3.48857e+06
3.48758e+06
3.48676e+06
3.48605e+06
3.48548e+06
3.48502e+06
3.48465e+06
3.48437e+06
3.48417e+06
3.48403e+06
3.48395e+06
3.48392e+06
3.48393e+06
3.48397e+06
3.48405e+06
3.48415e+06
3.48427e+06
3.4844e+06
3.48455e+06
3.48471e+06
3.48488e+06
3.48505e+06
3.48522e+06
3.48539e+06
3.48556e+06
3.48572e+06
3.48587e+06
3.48602e+06
3.48615e+06
3.48627e+06
3.48637e+06
3.48646e+06
3.48653e+06
3.48657e+06
3.4866e+06
3.48659e+06
3.48657e+06
3.48651e+06
3.48642e+06
3.4863e+06
3.48615e+06
3.48592e+06
3.49672e+06
3.4944e+06
3.49253e+06
3.49087e+06
3.48947e+06
3.4883e+06
3.48732e+06
3.48652e+06
3.48587e+06
3.48535e+06
3.48495e+06
3.48464e+06
3.48442e+06
3.48427e+06
3.48418e+06
3.48414e+06
3.48414e+06
3.48418e+06
3.48425e+06
3.48435e+06
3.48447e+06
3.4846e+06
3.48475e+06
3.4849e+06
3.48506e+06
3.48523e+06
3.48539e+06
3.48555e+06
3.48571e+06
3.48586e+06
3.486e+06
3.48614e+06
3.48625e+06
3.48636e+06
3.48644e+06
3.48651e+06
3.48655e+06
3.48658e+06
3.48657e+06
3.48655e+06
3.48649e+06
3.48641e+06
3.48628e+06
3.48614e+06
3.48592e+06
3.50134e+06
3.49801e+06
3.49549e+06
3.49324e+06
3.4914e+06
3.48985e+06
3.48858e+06
3.48755e+06
3.48671e+06
3.48603e+06
3.48551e+06
3.4851e+06
3.48479e+06
3.48457e+06
3.48442e+06
3.48434e+06
3.4843e+06
3.48431e+06
3.48436e+06
3.48443e+06
3.48453e+06
3.48465e+06
3.48478e+06
3.48492e+06
3.48508e+06
3.48523e+06
3.48539e+06
3.48555e+06
3.4857e+06
3.48585e+06
3.48599e+06
3.48612e+06
3.48624e+06
3.48634e+06
3.48643e+06
3.48649e+06
3.48654e+06
3.48656e+06
3.48656e+06
3.48653e+06
3.48648e+06
3.48639e+06
3.48627e+06
3.48613e+06
3.48592e+06
3.50616e+06
3.50177e+06
3.49852e+06
3.49564e+06
3.49333e+06
3.4914e+06
3.48983e+06
3.48855e+06
3.48752e+06
3.4867e+06
3.48605e+06
3.48554e+06
3.48515e+06
3.48486e+06
3.48466e+06
3.48453e+06
3.48446e+06
3.48444e+06
3.48445e+06
3.48451e+06
3.48459e+06
3.48469e+06
3.48481e+06
3.48495e+06
3.48509e+06
3.48524e+06
3.4854e+06
3.48555e+06
3.4857e+06
3.48585e+06
3.48598e+06
3.48611e+06
3.48623e+06
3.48633e+06
3.48641e+06
3.48648e+06
3.48652e+06
3.48655e+06
3.48655e+06
3.48652e+06
3.48646e+06
3.48638e+06
3.48626e+06
3.48613e+06
3.48592e+06
3.51113e+06
3.50565e+06
3.50157e+06
3.49804e+06
3.49523e+06
3.49291e+06
3.49104e+06
3.48953e+06
3.48831e+06
3.48733e+06
3.48656e+06
3.48595e+06
3.48549e+06
3.48514e+06
3.48488e+06
3.48471e+06
3.4846e+06
3.48455e+06
3.48455e+06
3.48458e+06
3.48464e+06
3.48473e+06
3.48484e+06
3.48497e+06
3.48511e+06
3.48525e+06
3.4854e+06
3.48555e+06
3.4857e+06
3.48584e+06
3.48598e+06
3.4861e+06
3.48622e+06
3.48632e+06
3.4864e+06
3.48647e+06
3.48651e+06
3.48654e+06
3.48653e+06
3.48651e+06
3.48645e+06
3.48638e+06
3.48626e+06
3.48613e+06
3.48592e+06
3.51621e+06
3.50959e+06
3.50458e+06
3.50039e+06
3.49706e+06
3.49436e+06
3.49219e+06
3.49044e+06
3.48904e+06
3.48792e+06
3.48704e+06
3.48634e+06
3.4858e+06
3.48539e+06
3.48509e+06
3.48487e+06
3.48474e+06
3.48466e+06
3.48463e+06
3.48464e+06
3.48469e+06
3.48477e+06
3.48487e+06
3.48499e+06
3.48512e+06
3.48526e+06
3.4854e+06
3.48555e+06
3.48569e+06
3.48584e+06
3.48597e+06
3.4861e+06
3.48621e+06
3.48631e+06
3.48639e+06
3.48646e+06
3.4865e+06
3.48653e+06
3.48653e+06
3.4865e+06
3.48645e+06
3.48637e+06
3.48626e+06
3.48613e+06
3.48593e+06
3.52125e+06
3.51348e+06
3.50744e+06
3.50261e+06
3.49878e+06
3.49571e+06
3.49325e+06
3.49129e+06
3.48972e+06
3.48847e+06
3.48747e+06
3.48669e+06
3.48609e+06
3.48562e+06
3.48527e+06
3.48503e+06
3.48486e+06
3.48475e+06
3.48471e+06
3.4847e+06
3.48474e+06
3.48481e+06
3.4849e+06
3.48501e+06
3.48513e+06
3.48527e+06
3.48541e+06
3.48555e+06
3.48569e+06
3.48583e+06
3.48597e+06
3.48609e+06
3.48621e+06
3.48631e+06
3.48639e+06
3.48645e+06
3.4865e+06
3.48652e+06
3.48652e+06
3.4865e+06
3.48644e+06
3.48637e+06
3.48626e+06
3.48613e+06
3.48594e+06
3.5257e+06
3.51703e+06
3.51001e+06
3.50462e+06
3.50031e+06
3.49691e+06
3.4942e+06
3.49204e+06
3.49032e+06
3.48895e+06
3.48786e+06
3.48701e+06
3.48634e+06
3.48583e+06
3.48544e+06
3.48516e+06
3.48496e+06
3.48484e+06
3.48477e+06
3.48476e+06
3.48478e+06
3.48484e+06
3.48492e+06
3.48502e+06
3.48514e+06
3.48527e+06
3.48541e+06
3.48555e+06
3.48569e+06
3.48583e+06
3.48597e+06
3.48609e+06
3.4862e+06
3.4863e+06
3.48639e+06
3.48645e+06
3.4865e+06
3.48652e+06
3.48652e+06
3.48649e+06
3.48644e+06
3.48637e+06
3.48626e+06
3.48614e+06
3.48595e+06
3.5292e+06
3.51995e+06
3.51214e+06
3.50631e+06
3.50161e+06
3.49793e+06
3.495e+06
3.49268e+06
3.49083e+06
3.48936e+06
3.48819e+06
3.48727e+06
3.48656e+06
3.486e+06
3.48558e+06
3.48527e+06
3.48506e+06
3.48491e+06
3.48483e+06
3.4848e+06
3.48482e+06
3.48486e+06
3.48494e+06
3.48504e+06
3.48515e+06
3.48528e+06
3.48542e+06
3.48556e+06
3.4857e+06
3.48583e+06
3.48597e+06
3.48609e+06
3.4862e+06
3.4863e+06
3.48639e+06
3.48645e+06
3.4865e+06
3.48652e+06
3.48652e+06
3.48649e+06
3.48644e+06
3.48637e+06
3.48627e+06
3.48615e+06
3.48597e+06
3.53183e+06
3.52213e+06
3.51378e+06
3.50761e+06
3.50262e+06
3.49874e+06
3.49564e+06
3.49319e+06
3.49124e+06
3.48969e+06
3.48846e+06
3.48749e+06
3.48673e+06
3.48615e+06
3.4857e+06
3.48537e+06
3.48513e+06
3.48497e+06
3.48488e+06
3.48484e+06
3.48485e+06
3.48489e+06
3.48496e+06
3.48505e+06
3.48516e+06
3.48529e+06
3.48542e+06
3.48556e+06
3.4857e+06
3.48584e+06
3.48597e+06
3.48609e+06
3.48621e+06
3.48631e+06
3.48639e+06
3.48645e+06
3.4865e+06
3.48652e+06
3.48652e+06
3.4865e+06
3.48645e+06
3.48638e+06
3.48628e+06
3.48616e+06
3.48599e+06
3.53369e+06
3.52351e+06
3.51489e+06
3.5085e+06
3.50333e+06
3.49931e+06
3.4961e+06
3.49356e+06
3.49154e+06
3.48994e+06
3.48867e+06
3.48766e+06
3.48687e+06
3.48626e+06
3.48579e+06
3.48544e+06
3.48519e+06
3.48502e+06
3.48492e+06
3.48487e+06
3.48487e+06
3.4849e+06
3.48497e+06
3.48506e+06
3.48517e+06
3.48529e+06
3.48542e+06
3.48556e+06
3.4857e+06
3.48584e+06
3.48597e+06
3.4861e+06
3.48621e+06
3.48631e+06
3.48639e+06
3.48646e+06
3.4865e+06
3.48653e+06
3.48653e+06
3.4865e+06
3.48645e+06
3.48638e+06
3.48629e+06
3.48618e+06
3.48601e+06
3.53457e+06
3.52409e+06
3.51546e+06
3.50895e+06
3.50371e+06
3.49963e+06
3.49637e+06
3.49379e+06
3.49174e+06
3.4901e+06
3.4888e+06
3.48778e+06
3.48697e+06
3.48634e+06
3.48586e+06
3.4855e+06
3.48524e+06
3.48506e+06
3.48495e+06
3.48489e+06
3.48489e+06
3.48492e+06
3.48498e+06
3.48507e+06
3.48518e+06
3.4853e+06
3.48543e+06
3.48557e+06
3.48571e+06
3.48584e+06
3.48598e+06
3.4861e+06
3.48622e+06
3.48632e+06
3.4864e+06
3.48647e+06
3.48651e+06
3.48653e+06
3.48653e+06
3.48651e+06
3.48646e+06
3.48639e+06
3.4863e+06
3.48619e+06
3.48603e+06
3.53453e+06
3.52394e+06
3.51547e+06
3.50897e+06
3.50377e+06
3.4997e+06
3.49645e+06
3.49387e+06
3.49181e+06
3.49018e+06
3.48887e+06
3.48784e+06
3.48702e+06
3.48639e+06
3.4859e+06
3.48553e+06
3.48527e+06
3.48508e+06
3.48497e+06
3.48491e+06
3.4849e+06
3.48493e+06
3.48499e+06
3.48507e+06
3.48518e+06
3.4853e+06
3.48543e+06
3.48557e+06
3.48571e+06
3.48585e+06
3.48599e+06
3.48611e+06
3.48623e+06
3.48633e+06
3.48641e+06
3.48648e+06
3.48652e+06
3.48654e+06
3.48654e+06
3.48652e+06
3.48647e+06
3.48641e+06
3.48631e+06
3.48621e+06
3.48606e+06
3.53361e+06
3.52312e+06
3.51495e+06
3.50857e+06
3.50351e+06
3.49953e+06
3.49634e+06
3.49381e+06
3.49178e+06
3.49016e+06
3.48887e+06
3.48785e+06
3.48704e+06
3.4864e+06
3.48592e+06
3.48555e+06
3.48528e+06
3.48509e+06
3.48497e+06
3.48491e+06
3.4849e+06
3.48493e+06
3.48499e+06
3.48508e+06
3.48518e+06
3.48531e+06
3.48544e+06
3.48558e+06
3.48572e+06
3.48586e+06
3.48599e+06
3.48612e+06
3.48624e+06
3.48634e+06
3.48642e+06
3.48649e+06
3.48653e+06
3.48656e+06
3.48656e+06
3.48653e+06
3.48649e+06
3.48642e+06
3.48633e+06
3.48623e+06
3.48609e+06
3.5318e+06
3.52164e+06
3.5139e+06
3.50778e+06
3.50295e+06
3.49911e+06
3.49605e+06
3.49361e+06
3.49164e+06
3.49007e+06
3.48881e+06
3.48781e+06
3.48701e+06
3.48639e+06
3.48591e+06
3.48554e+06
3.48527e+06
3.48509e+06
3.48497e+06
3.48491e+06
3.4849e+06
3.48493e+06
3.48499e+06
3.48508e+06
3.48518e+06
3.48531e+06
3.48544e+06
3.48558e+06
3.48573e+06
3.48587e+06
3.48601e+06
3.48613e+06
3.48625e+06
3.48635e+06
3.48644e+06
3.4865e+06
3.48655e+06
3.48657e+06
3.48657e+06
3.48655e+06
3.4865e+06
3.48643e+06
3.48634e+06
3.48625e+06
3.48611e+06
3.52908e+06
3.51953e+06
3.51235e+06
3.50661e+06
3.5021e+06
3.49849e+06
3.4956e+06
3.49328e+06
3.49141e+06
3.4899e+06
3.48869e+06
3.48772e+06
3.48695e+06
3.48634e+06
3.48587e+06
3.48552e+06
3.48525e+06
3.48507e+06
3.48496e+06
3.4849e+06
3.48489e+06
3.48492e+06
3.48499e+06
3.48507e+06
3.48518e+06
3.48531e+06
3.48545e+06
3.48559e+06
3.48574e+06
3.48588e+06
3.48602e+06
3.48615e+06
3.48627e+06
3.48637e+06
3.48646e+06
3.48652e+06
3.48657e+06
3.48659e+06
3.48659e+06
3.48656e+06
3.48652e+06
3.48645e+06
3.48636e+06
3.48627e+06
3.48614e+06
3.52543e+06
3.51682e+06
3.51034e+06
3.50512e+06
3.501e+06
3.49768e+06
3.49501e+06
3.49284e+06
3.49109e+06
3.48967e+06
3.48852e+06
3.4876e+06
3.48686e+06
3.48627e+06
3.48582e+06
3.48547e+06
3.48522e+06
3.48505e+06
3.48494e+06
3.48488e+06
3.48488e+06
3.48491e+06
3.48498e+06
3.48507e+06
3.48518e+06
3.48531e+06
3.48545e+06
3.4856e+06
3.48575e+06
3.48589e+06
3.48603e+06
3.48617e+06
3.48629e+06
3.48639e+06
3.48648e+06
3.48654e+06
3.48659e+06
3.48661e+06
3.48661e+06
3.48658e+06
3.48653e+06
3.48647e+06
3.48638e+06
3.48629e+06
3.48618e+06
3.52097e+06
3.5136e+06
3.50796e+06
3.50337e+06
3.49971e+06
3.49672e+06
3.4943e+06
3.49232e+06
3.4907e+06
3.48938e+06
3.4883e+06
3.48743e+06
3.48673e+06
3.48618e+06
3.48574e+06
3.48541e+06
3.48517e+06
3.48501e+06
3.48491e+06
3.48486e+06
3.48486e+06
3.4849e+06
3.48497e+06
3.48506e+06
3.48518e+06
3.48531e+06
3.48546e+06
3.48561e+06
3.48576e+06
3.48591e+06
3.48605e+06
3.48618e+06
3.48631e+06
3.48641e+06
3.4865e+06
3.48657e+06
3.48661e+06
3.48664e+06
3.48663e+06
3.48661e+06
3.48656e+06
3.48649e+06
3.4864e+06
3.48631e+06
3.48621e+06
3.53363e+06
3.52349e+06
3.51602e+06
3.51007e+06
3.50534e+06
3.50144e+06
3.49828e+06
3.49566e+06
3.49351e+06
3.49173e+06
3.49026e+06
3.48905e+06
3.48805e+06
3.48724e+06
3.48659e+06
3.48606e+06
3.48565e+06
3.48534e+06
3.48511e+06
3.48496e+06
3.48487e+06
3.48483e+06
3.48483e+06
3.48488e+06
3.48495e+06
3.48505e+06
3.48518e+06
3.48531e+06
3.48546e+06
3.48561e+06
3.48577e+06
3.48592e+06
3.48607e+06
3.48621e+06
3.48633e+06
3.48644e+06
3.48653e+06
3.4866e+06
3.48664e+06
3.48666e+06
3.48666e+06
3.48663e+06
3.48658e+06
3.48651e+06
3.48642e+06
3.48634e+06
3.48624e+06
3.52464e+06
3.51665e+06
3.51102e+06
3.50643e+06
3.50264e+06
3.49945e+06
3.49679e+06
3.49455e+06
3.49268e+06
3.4911e+06
3.48979e+06
3.48869e+06
3.48778e+06
3.48703e+06
3.48642e+06
3.48593e+06
3.48555e+06
3.48525e+06
3.48504e+06
3.4849e+06
3.48482e+06
3.48479e+06
3.4848e+06
3.48485e+06
3.48493e+06
3.48504e+06
3.48517e+06
3.48531e+06
3.48546e+06
3.48562e+06
3.48578e+06
3.48594e+06
3.48609e+06
3.48623e+06
3.48636e+06
3.48647e+06
3.48656e+06
3.48663e+06
3.48667e+06
3.48669e+06
3.48669e+06
3.48666e+06
3.4866e+06
3.48653e+06
3.48644e+06
3.48636e+06
3.48627e+06
3.51679e+06
3.51007e+06
3.50628e+06
3.50288e+06
3.5e+06
3.49747e+06
3.49531e+06
3.49343e+06
3.49183e+06
3.49046e+06
3.48929e+06
3.48831e+06
3.48748e+06
3.4868e+06
3.48623e+06
3.48578e+06
3.48543e+06
3.48516e+06
3.48496e+06
3.48483e+06
3.48476e+06
3.48474e+06
3.48476e+06
3.48482e+06
3.48491e+06
3.48503e+06
3.48516e+06
3.48531e+06
3.48547e+06
3.48563e+06
3.4858e+06
3.48596e+06
3.48611e+06
3.48626e+06
3.48639e+06
3.4865e+06
3.48659e+06
3.48666e+06
3.4867e+06
3.48672e+06
3.48672e+06
3.48668e+06
3.48663e+06
3.48655e+06
3.48647e+06
3.48638e+06
3.4863e+06
3.5101e+06
3.50438e+06
3.50209e+06
3.49966e+06
3.49758e+06
3.49563e+06
3.4939e+06
3.49236e+06
3.49101e+06
3.48983e+06
3.4888e+06
3.48792e+06
3.48718e+06
3.48655e+06
3.48604e+06
3.48562e+06
3.48529e+06
3.48504e+06
3.48487e+06
3.48475e+06
3.4847e+06
3.48469e+06
3.48472e+06
3.48479e+06
3.48489e+06
3.48501e+06
3.48515e+06
3.48531e+06
3.48547e+06
3.48564e+06
3.48581e+06
3.48598e+06
3.48614e+06
3.48629e+06
3.48642e+06
3.48653e+06
3.48663e+06
3.4867e+06
3.48674e+06
3.48676e+06
3.48675e+06
3.48671e+06
3.48665e+06
3.48658e+06
3.48649e+06
3.48641e+06
3.48633e+06
3.5043e+06
3.49967e+06
3.49842e+06
3.49683e+06
3.4954e+06
3.49394e+06
3.4926e+06
3.49136e+06
3.49023e+06
3.48921e+06
3.48832e+06
3.48754e+06
3.48687e+06
3.4863e+06
3.48583e+06
3.48545e+06
3.48515e+06
3.48492e+06
3.48476e+06
3.48467e+06
3.48462e+06
3.48462e+06
3.48467e+06
3.48475e+06
3.48486e+06
3.48499e+06
3.48514e+06
3.4853e+06
3.48548e+06
3.48565e+06
3.48583e+06
3.486e+06
3.48617e+06
3.48632e+06
3.48645e+06
3.48657e+06
3.48667e+06
3.48674e+06
3.48678e+06
3.4868e+06
3.48679e+06
3.48675e+06
3.48668e+06
3.4866e+06
3.48651e+06
3.48643e+06
3.48635e+06
3.49983e+06
3.49622e+06
3.49554e+06
3.49456e+06
3.49359e+06
3.49251e+06
3.49147e+06
3.49045e+06
3.48951e+06
3.48864e+06
3.48785e+06
3.48716e+06
3.48656e+06
3.48604e+06
3.48561e+06
3.48526e+06
3.48499e+06
3.48479e+06
3.48465e+06
3.48457e+06
3.48454e+06
3.48456e+06
3.48461e+06
3.4847e+06
3.48482e+06
3.48497e+06
3.48513e+06
3.4853e+06
3.48548e+06
3.48567e+06
3.48585e+06
3.48603e+06
3.4862e+06
3.48635e+06
3.48649e+06
3.48661e+06
3.48671e+06
3.48678e+06
3.48682e+06
3.48684e+06
3.48682e+06
3.48678e+06
3.48671e+06
3.48663e+06
3.48653e+06
3.48644e+06
3.48637e+06
3.49603e+06
3.49338e+06
3.49305e+06
3.49259e+06
3.49199e+06
3.49124e+06
3.49044e+06
3.48963e+06
3.48884e+06
3.48809e+06
3.4874e+06
3.48678e+06
3.48624e+06
3.48577e+06
3.48538e+06
3.48506e+06
3.48482e+06
3.48464e+06
3.48452e+06
3.48446e+06
3.48445e+06
3.48448e+06
3.48455e+06
3.48465e+06
3.48479e+06
3.48494e+06
3.48511e+06
3.4853e+06
3.48549e+06
3.48568e+06
3.48587e+06
3.48606e+06
3.48623e+06
3.48639e+06
3.48653e+06
3.48666e+06
3.48676e+06
3.48683e+06
3.48687e+06
3.48688e+06
3.48687e+06
3.48682e+06
3.48675e+06
3.48665e+06
3.48655e+06
3.48646e+06
3.48639e+06
3.49383e+06
3.49185e+06
3.49147e+06
3.49125e+06
3.49081e+06
3.49024e+06
3.48959e+06
3.48891e+06
3.48823e+06
3.48757e+06
3.48696e+06
3.48641e+06
3.48591e+06
3.48549e+06
3.48513e+06
3.48485e+06
3.48463e+06
3.48447e+06
3.48438e+06
3.48434e+06
3.48434e+06
3.48439e+06
3.48448e+06
3.4846e+06
3.48474e+06
3.48491e+06
3.4851e+06
3.48529e+06
3.48549e+06
3.48569e+06
3.48589e+06
3.48608e+06
3.48627e+06
3.48643e+06
3.48658e+06
3.48671e+06
3.48681e+06
3.48688e+06
3.48692e+06
3.48693e+06
3.48691e+06
3.48686e+06
3.48678e+06
3.48668e+06
3.48657e+06
3.48648e+06
3.48641e+06
3.49081e+06
3.48971e+06
3.48961e+06
3.48972e+06
3.48956e+06
3.4892e+06
3.48873e+06
3.48819e+06
3.48762e+06
3.48705e+06
3.48651e+06
3.48601e+06
3.48557e+06
3.48519e+06
3.48487e+06
3.48461e+06
3.48442e+06
3.48429e+06
3.48422e+06
3.4842e+06
3.48423e+06
3.4843e+06
3.4844e+06
3.48454e+06
3.4847e+06
3.48488e+06
3.48508e+06
3.48528e+06
3.48549e+06
3.48571e+06
3.48592e+06
3.48612e+06
3.4863e+06
3.48648e+06
3.48663e+06
3.48676e+06
3.48686e+06
3.48693e+06
3.48697e+06
3.48698e+06
3.48696e+06
3.4869e+06
3.48682e+06
3.48671e+06
3.48659e+06
3.48649e+06
3.48641e+06
3.48927e+06
3.48863e+06
3.48859e+06
3.48877e+06
3.48867e+06
3.48841e+06
3.48802e+06
3.48755e+06
3.48705e+06
3.48654e+06
3.48606e+06
3.4856e+06
3.4852e+06
3.48485e+06
3.48457e+06
3.48435e+06
3.48419e+06
3.48408e+06
3.48404e+06
3.48404e+06
3.48409e+06
3.48418e+06
3.48431e+06
3.48446e+06
3.48464e+06
3.48484e+06
3.48505e+06
3.48527e+06
3.4855e+06
3.48572e+06
3.48594e+06
3.48615e+06
3.48635e+06
3.48653e+06
3.48668e+06
3.48682e+06
3.48692e+06
3.487e+06
3.48704e+06
3.48704e+06
3.48701e+06
3.48695e+06
3.48686e+06
3.48674e+06
3.48661e+06
3.48649e+06
3.48641e+06
3.4839e+06
3.48478e+06
3.4861e+06
3.48695e+06
3.48726e+06
3.48726e+06
3.48706e+06
3.48674e+06
3.48635e+06
3.48593e+06
3.48551e+06
3.48512e+06
3.48477e+06
3.48447e+06
3.48422e+06
3.48404e+06
3.48392e+06
3.48385e+06
3.48384e+06
3.48387e+06
3.48395e+06
3.48406e+06
3.48421e+06
3.48439e+06
3.48459e+06
3.4848e+06
3.48503e+06
3.48527e+06
3.4855e+06
3.48574e+06
3.48597e+06
3.48619e+06
3.48639e+06
3.48657e+06
3.48674e+06
3.48687e+06
3.48698e+06
3.48705e+06
3.48709e+06
3.4871e+06
3.48707e+06
3.487e+06
3.48689e+06
3.48677e+06
3.48663e+06
3.4865e+06
3.48641e+06
3.48687e+06
3.4869e+06
3.48689e+06
3.48686e+06
3.48679e+06
3.4867e+06
3.48656e+06
3.48639e+06
3.48614e+06
3.48661e+06
3.48671e+06
3.48678e+06
3.48683e+06
3.48685e+06
3.48685e+06
3.48681e+06
3.48675e+06
3.48666e+06
3.48651e+06
3.48635e+06
3.4861e+06
3.46978e+06
3.47263e+06
3.47382e+06
3.47532e+06
3.47631e+06
3.47727e+06
3.47805e+06
3.47874e+06
3.47935e+06
3.4799e+06
3.48039e+06
3.48085e+06
3.48127e+06
3.48166e+06
3.48203e+06
3.48238e+06
3.48272e+06
3.48304e+06
3.48334e+06
3.48364e+06
3.48392e+06
3.4842e+06
3.48446e+06
3.48472e+06
3.48496e+06
3.4852e+06
3.48542e+06
3.48563e+06
3.48582e+06
3.48601e+06
3.48617e+06
3.48632e+06
3.48646e+06
3.48657e+06
3.48666e+06
3.48674e+06
3.48678e+06
3.48681e+06
3.4868e+06
3.48677e+06
3.48671e+06
3.48662e+06
3.48648e+06
3.48632e+06
3.48606e+06
3.47212e+06
3.4747e+06
3.47563e+06
3.4769e+06
3.47768e+06
3.47846e+06
3.47907e+06
3.47962e+06
3.4801e+06
3.48053e+06
3.48093e+06
3.4813e+06
3.48165e+06
3.48198e+06
3.4823e+06
3.4826e+06
3.48289e+06
3.48318e+06
3.48346e+06
3.48373e+06
3.48399e+06
3.48425e+06
3.4845e+06
3.48474e+06
3.48497e+06
3.4852e+06
3.48541e+06
3.48561e+06
3.4858e+06
3.48598e+06
3.48614e+06
3.48629e+06
3.48642e+06
3.48653e+06
3.48663e+06
3.4867e+06
3.48675e+06
3.48677e+06
3.48677e+06
3.48673e+06
3.48667e+06
3.48658e+06
3.48644e+06
3.48628e+06
3.48603e+06
3.47471e+06
3.47692e+06
3.47757e+06
3.47857e+06
3.47913e+06
3.4797e+06
3.48013e+06
3.48053e+06
3.48087e+06
3.48119e+06
3.48149e+06
3.48177e+06
3.48204e+06
3.48231e+06
3.48257e+06
3.48282e+06
3.48307e+06
3.48332e+06
3.48357e+06
3.48382e+06
3.48406e+06
3.4843e+06
3.48453e+06
3.48476e+06
3.48498e+06
3.4852e+06
3.4854e+06
3.4856e+06
3.48578e+06
3.48596e+06
3.48612e+06
3.48626e+06
3.48639e+06
3.4865e+06
3.48659e+06
3.48666e+06
3.48671e+06
3.48673e+06
3.48673e+06
3.4867e+06
3.48664e+06
3.48654e+06
3.48641e+06
3.48625e+06
3.48601e+06
3.4776e+06
3.47932e+06
3.47967e+06
3.48036e+06
3.48066e+06
3.481e+06
3.48124e+06
3.48147e+06
3.48167e+06
3.48186e+06
3.48205e+06
3.48224e+06
3.48244e+06
3.48264e+06
3.48284e+06
3.48304e+06
3.48326e+06
3.48347e+06
3.48369e+06
3.48391e+06
3.48413e+06
3.48435e+06
3.48457e+06
3.48478e+06
3.48499e+06
3.4852e+06
3.4854e+06
3.48559e+06
3.48577e+06
3.48594e+06
3.48609e+06
3.48624e+06
3.48636e+06
3.48647e+06
3.48656e+06
3.48663e+06
3.48668e+06
3.4867e+06
3.4867e+06
3.48667e+06
3.4866e+06
3.48651e+06
3.48638e+06
3.48622e+06
3.48598e+06
3.48081e+06
3.48192e+06
3.48193e+06
3.48225e+06
3.48227e+06
3.48236e+06
3.48239e+06
3.48244e+06
3.48248e+06
3.48255e+06
3.48263e+06
3.48272e+06
3.48284e+06
3.48297e+06
3.48311e+06
3.48327e+06
3.48344e+06
3.48362e+06
3.4838e+06
3.484e+06
3.4842e+06
3.4844e+06
3.4846e+06
3.4848e+06
3.485e+06
3.4852e+06
3.48539e+06
3.48558e+06
3.48575e+06
3.48592e+06
3.48607e+06
3.48621e+06
3.48634e+06
3.48644e+06
3.48653e+06
3.4866e+06
3.48665e+06
3.48667e+06
3.48667e+06
3.48664e+06
3.48658e+06
3.48649e+06
3.48635e+06
3.4862e+06
3.48596e+06
3.48434e+06
3.48472e+06
3.48435e+06
3.48425e+06
3.48397e+06
3.48378e+06
3.48358e+06
3.48343e+06
3.48332e+06
3.48324e+06
3.48321e+06
3.48321e+06
3.48324e+06
3.4833e+06
3.48338e+06
3.48349e+06
3.48362e+06
3.48376e+06
3.48392e+06
3.48409e+06
3.48427e+06
3.48445e+06
3.48464e+06
3.48483e+06
3.48502e+06
3.48521e+06
3.48539e+06
3.48557e+06
3.48574e+06
3.4859e+06
3.48605e+06
3.48619e+06
3.48631e+06
3.48642e+06
3.48651e+06
3.48657e+06
3.48662e+06
3.48664e+06
3.48664e+06
3.48661e+06
3.48655e+06
3.48646e+06
3.48633e+06
3.48618e+06
3.48595e+06
3.48819e+06
3.48774e+06
3.48694e+06
3.48636e+06
3.48574e+06
3.48525e+06
3.4848e+06
3.48445e+06
3.48416e+06
3.48395e+06
3.48379e+06
3.48369e+06
3.48364e+06
3.48363e+06
3.48365e+06
3.48371e+06
3.4838e+06
3.48391e+06
3.48403e+06
3.48418e+06
3.48433e+06
3.4845e+06
3.48467e+06
3.48485e+06
3.48503e+06
3.48521e+06
3.48539e+06
3.48556e+06
3.48573e+06
3.48589e+06
3.48603e+06
3.48617e+06
3.48629e+06
3.48639e+06
3.48648e+06
3.48655e+06
3.48659e+06
3.48662e+06
3.48661e+06
3.48659e+06
3.48653e+06
3.48644e+06
3.48631e+06
3.48616e+06
3.48593e+06
3.49232e+06
3.49097e+06
3.48967e+06
3.48857e+06
3.48758e+06
3.48676e+06
3.48605e+06
3.48548e+06
3.48502e+06
3.48465e+06
3.48437e+06
3.48417e+06
3.48403e+06
3.48395e+06
3.48392e+06
3.48393e+06
3.48397e+06
3.48405e+06
3.48415e+06
3.48427e+06
3.4844e+06
3.48455e+06
3.48471e+06
3.48488e+06
3.48505e+06
3.48522e+06
3.48539e+06
3.48556e+06
3.48572e+06
3.48587e+06
3.48602e+06
3.48615e+06
3.48627e+06
3.48637e+06
3.48646e+06
3.48653e+06
3.48657e+06
3.4866e+06
3.48659e+06
3.48657e+06
3.48651e+06
3.48642e+06
3.4863e+06
3.48615e+06
3.48592e+06
3.49672e+06
3.4944e+06
3.49253e+06
3.49087e+06
3.48947e+06
3.4883e+06
3.48732e+06
3.48652e+06
3.48587e+06
3.48535e+06
3.48495e+06
3.48464e+06
3.48442e+06
3.48427e+06
3.48418e+06
3.48414e+06
3.48414e+06
3.48418e+06
3.48425e+06
3.48435e+06
3.48447e+06
3.4846e+06
3.48475e+06
3.4849e+06
3.48506e+06
3.48523e+06
3.48539e+06
3.48555e+06
3.48571e+06
3.48586e+06
3.486e+06
3.48614e+06
3.48625e+06
3.48636e+06
3.48644e+06
3.48651e+06
3.48655e+06
3.48658e+06
3.48657e+06
3.48655e+06
3.48649e+06
3.48641e+06
3.48628e+06
3.48614e+06
3.48592e+06
3.50134e+06
3.49801e+06
3.49549e+06
3.49324e+06
3.4914e+06
3.48985e+06
3.48858e+06
3.48755e+06
3.48671e+06
3.48603e+06
3.48551e+06
3.4851e+06
3.48479e+06
3.48457e+06
3.48442e+06
3.48434e+06
3.4843e+06
3.48431e+06
3.48436e+06
3.48443e+06
3.48453e+06
3.48465e+06
3.48478e+06
3.48492e+06
3.48508e+06
3.48523e+06
3.48539e+06
3.48555e+06
3.4857e+06
3.48585e+06
3.48599e+06
3.48612e+06
3.48624e+06
3.48634e+06
3.48643e+06
3.48649e+06
3.48654e+06
3.48656e+06
3.48656e+06
3.48653e+06
3.48648e+06
3.48639e+06
3.48627e+06
3.48613e+06
3.48592e+06
3.50616e+06
3.50177e+06
3.49852e+06
3.49564e+06
3.49333e+06
3.4914e+06
3.48983e+06
3.48855e+06
3.48752e+06
3.4867e+06
3.48605e+06
3.48554e+06
3.48515e+06
3.48486e+06
3.48466e+06
3.48453e+06
3.48446e+06
3.48444e+06
3.48445e+06
3.48451e+06
3.48459e+06
3.48469e+06
3.48481e+06
3.48495e+06
3.48509e+06
3.48524e+06
3.4854e+06
3.48555e+06
3.4857e+06
3.48585e+06
3.48598e+06
3.48611e+06
3.48623e+06
3.48633e+06
3.48641e+06
3.48648e+06
3.48652e+06
3.48655e+06
3.48655e+06
3.48652e+06
3.48646e+06
3.48638e+06
3.48626e+06
3.48613e+06
3.48592e+06
3.51113e+06
3.50565e+06
3.50157e+06
3.49804e+06
3.49523e+06
3.49291e+06
3.49104e+06
3.48953e+06
3.48831e+06
3.48733e+06
3.48656e+06
3.48595e+06
3.48549e+06
3.48514e+06
3.48488e+06
3.48471e+06
3.4846e+06
3.48455e+06
3.48455e+06
3.48458e+06
3.48464e+06
3.48473e+06
3.48484e+06
3.48497e+06
3.48511e+06
3.48525e+06
3.4854e+06
3.48555e+06
3.4857e+06
3.48584e+06
3.48598e+06
3.4861e+06
3.48622e+06
3.48632e+06
3.4864e+06
3.48647e+06
3.48651e+06
3.48654e+06
3.48653e+06
3.48651e+06
3.48645e+06
3.48638e+06
3.48626e+06
3.48613e+06
3.48592e+06
3.51621e+06
3.50959e+06
3.50458e+06
3.50039e+06
3.49706e+06
3.49436e+06
3.49219e+06
3.49044e+06
3.48904e+06
3.48792e+06
3.48704e+06
3.48634e+06
3.4858e+06
3.48539e+06
3.48509e+06
3.48487e+06
3.48474e+06
3.48466e+06
3.48463e+06
3.48464e+06
3.48469e+06
3.48477e+06
3.48487e+06
3.48499e+06
3.48512e+06
3.48526e+06
3.4854e+06
3.48555e+06
3.48569e+06
3.48584e+06
3.48597e+06
3.4861e+06
3.48621e+06
3.48631e+06
3.48639e+06
3.48646e+06
3.4865e+06
3.48653e+06
3.48653e+06
3.4865e+06
3.48645e+06
3.48637e+06
3.48626e+06
3.48613e+06
3.48593e+06
3.52125e+06
3.51348e+06
3.50744e+06
3.50261e+06
3.49878e+06
3.49571e+06
3.49325e+06
3.49129e+06
3.48972e+06
3.48847e+06
3.48747e+06
3.48669e+06
3.48609e+06
3.48562e+06
3.48527e+06
3.48503e+06
3.48486e+06
3.48475e+06
3.48471e+06
3.4847e+06
3.48474e+06
3.48481e+06
3.4849e+06
3.48501e+06
3.48513e+06
3.48527e+06
3.48541e+06
3.48555e+06
3.48569e+06
3.48583e+06
3.48597e+06
3.48609e+06
3.48621e+06
3.48631e+06
3.48639e+06
3.48645e+06
3.4865e+06
3.48652e+06
3.48652e+06
3.4865e+06
3.48644e+06
3.48637e+06
3.48626e+06
3.48613e+06
3.48594e+06
3.5257e+06
3.51703e+06
3.51001e+06
3.50462e+06
3.50031e+06
3.49691e+06
3.4942e+06
3.49204e+06
3.49032e+06
3.48895e+06
3.48786e+06
3.48701e+06
3.48634e+06
3.48583e+06
3.48544e+06
3.48516e+06
3.48496e+06
3.48484e+06
3.48477e+06
3.48476e+06
3.48478e+06
3.48484e+06
3.48492e+06
3.48502e+06
3.48514e+06
3.48527e+06
3.48541e+06
3.48555e+06
3.48569e+06
3.48583e+06
3.48597e+06
3.48609e+06
3.4862e+06
3.4863e+06
3.48639e+06
3.48645e+06
3.4865e+06
3.48652e+06
3.48652e+06
3.48649e+06
3.48644e+06
3.48637e+06
3.48626e+06
3.48614e+06
3.48595e+06
3.5292e+06
3.51995e+06
3.51214e+06
3.50631e+06
3.50161e+06
3.49793e+06
3.495e+06
3.49268e+06
3.49083e+06
3.48936e+06
3.48819e+06
3.48727e+06
3.48656e+06
3.486e+06
3.48558e+06
3.48527e+06
3.48506e+06
3.48491e+06
3.48483e+06
3.4848e+06
3.48482e+06
3.48486e+06
3.48494e+06
3.48504e+06
3.48515e+06
3.48528e+06
3.48542e+06
3.48556e+06
3.4857e+06
3.48583e+06
3.48597e+06
3.48609e+06
3.4862e+06
3.4863e+06
3.48639e+06
3.48645e+06
3.4865e+06
3.48652e+06
3.48652e+06
3.48649e+06
3.48644e+06
3.48637e+06
3.48627e+06
3.48615e+06
3.48597e+06
3.53183e+06
3.52213e+06
3.51378e+06
3.50761e+06
3.50262e+06
3.49874e+06
3.49564e+06
3.49319e+06
3.49124e+06
3.48969e+06
3.48846e+06
3.48749e+06
3.48673e+06
3.48615e+06
3.4857e+06
3.48537e+06
3.48513e+06
3.48497e+06
3.48488e+06
3.48484e+06
3.48485e+06
3.48489e+06
3.48496e+06
3.48505e+06
3.48516e+06
3.48529e+06
3.48542e+06
3.48556e+06
3.4857e+06
3.48584e+06
3.48597e+06
3.48609e+06
3.48621e+06
3.48631e+06
3.48639e+06
3.48645e+06
3.4865e+06
3.48652e+06
3.48652e+06
3.4865e+06
3.48645e+06
3.48638e+06
3.48628e+06
3.48616e+06
3.48599e+06
3.53369e+06
3.52351e+06
3.51489e+06