/*--------------------------------*- C++ -*----------------------------------*\
| =========                 |                                                 |
| \\      /  F ield         | OpenFOAM: The Open Source CFD Toolbox           |
|  \\    /   O peration     | Version:  v2012                                 |
|   \\  /    A nd           | Website:  www.openfoam.com                      |
|    \\/     M anipulation  |                                                 |
\*---------------------------------------------------------------------------*/
FoamFile
{
    version     2.0;
    format      ascii;
    class       surfaceScalarField;
    location    "0.7";
    object      phi;
}
// * * * * * * * * * * * * * * * * * * * * * * * * * * * * * * * * * * * * * //

dimensions      [0 3 -1 0 0 0 0];
oriented        oriented;


internalField   nonuniform List<scalar> 
8048
(
1.10353e-13
-1.37808e-12
-3.88253e-17
8.52203e-13
-9.86528e-12
-2.03472e-17
2.72054e-12
-2.58011e-11
-5.25461e-16
6.13813e-12
-4.86396e-11
-3.32216e-15
1.155e-11
-7.82323e-11
-1.87345e-15
1.92514e-11
-1.14575e-10
-1.15628e-14
2.97166e-11
-1.57783e-10
-1.11973e-14
-2.07903e-10
1.54885e-14
1.24515e-13
-1.50233e-12
2.32369e-17
9.52294e-13
-1.06919e-11
1.02505e-16
3.01881e-12
-2.78752e-11
-9.14798e-16
6.81142e-12
-5.24281e-11
5.16083e-16
1.2798e-11
-8.41719e-11
5.476e-15
2.13029e-11
-1.23099e-10
-2.30544e-15
3.27364e-11
-1.69307e-10
-1.06617e-14
4.76017e-11
-2.22794e-10
-4.24685e-15
6.61119e-11
-2.83747e-10
-7.21779e-15
8.86384e-11
-3.51962e-10
-8.15367e-15
1.15639e-10
-4.27662e-10
4.16882e-14
1.46672e-10
-5.10176e-10
-2.12972e-14
1.8253e-10
-5.99951e-10
1.81932e-14
2.22866e-10
-6.95821e-10
5.12308e-15
-7.97723e-10
-7.23672e-17
1.41315e-13
-1.64333e-12
3.5103e-17
1.07213e-12
-1.16211e-11
1.94503e-16
3.3864e-12
-3.01958e-11
-7.80567e-16
7.61874e-12
-5.66624e-11
-2.81537e-16
1.42631e-11
-9.07966e-11
2.21653e-15
2.37082e-11
-1.32569e-10
-2.88844e-15
3.64476e-11
-1.8202e-10
3.08016e-15
5.2925e-11
-2.39192e-10
8.58089e-15
7.31944e-11
-3.0411e-10
-1.1461e-14
9.78496e-11
-3.76725e-10
-1.35212e-14
1.27251e-10
-4.56954e-10
1.98488e-14
1.61134e-10
-5.44378e-10
-3.92104e-14
2.00269e-10
-6.38931e-10
1.32762e-14
2.44165e-10
-7.39713e-10
2.2563e-15
-8.46326e-10
1.61839e-15
1.59692e-13
-1.80266e-12
3.80901e-17
1.20328e-12
-1.26629e-11
1.90251e-16
3.78879e-12
-3.27878e-11
-7.87841e-16
8.50278e-12
-6.13765e-11
-3.88814e-17
1.58658e-11
-9.8155e-11
4.99322e-16
2.63452e-11
-1.43059e-10
-1.3203e-15
4.04609e-11
-1.96098e-10
4.34042e-15
5.86152e-11
-2.57304e-10
4.74515e-15
8.10544e-11
-3.26634e-10
-1.09845e-14
1.08251e-10
-4.04004e-10
-1.09765e-14
1.40599e-10
-4.89182e-10
1.99729e-14
1.77678e-10
-5.81779e-10
-3.95072e-14
2.20382e-10
-6.81482e-10
1.24593e-14
2.68116e-10
-7.87447e-10
1.77658e-15
-8.99022e-10
1.78587e-15
1.82676e-13
-1.98488e-12
5.46812e-17
1.36271e-12
-1.38414e-11
1.76991e-16
4.27144e-12
-3.57035e-11
-8.49778e-16
9.55398e-12
-6.66579e-11
1.02283e-16
1.77765e-11
-1.06373e-10
4.19622e-16
2.94523e-11
-1.5475e-10
-1.94684e-15
4.51342e-11
-2.11753e-10
3.19031e-15
6.52321e-11
-2.77371e-10
3.31923e-15
9.00501e-11
-3.51491e-10
-5.53291e-15
1.20002e-10
-4.3401e-10
-7.40271e-15
1.5554e-10
-5.24556e-10
2.51866e-14
1.96205e-10
-6.22721e-10
-3.42504e-14
2.42852e-10
-7.27973e-10
1.30255e-14
2.94842e-10
-8.39421e-10
3.52737e-15
-9.56208e-10
1.43592e-15
2.06939e-13
-2.19189e-12
-1.664e-17
1.53686e-12
-1.51691e-11
2.30155e-16
4.80506e-12
-3.89751e-11
-4.2118e-16
1.07142e-11
-7.25695e-11
-3.30427e-16
1.98911e-11
-1.15553e-10
-4.778e-16
3.29067e-11
-1.67772e-10
-7.92518e-16
5.0353e-11
-2.29153e-10
5.5639e-15
7.26367e-11
-2.99624e-10
3.28875e-15
1.00118e-10
-3.79012e-10
-5.70031e-15
1.33197e-10
-4.67143e-10
-7.30816e-15
1.72327e-10
-5.63518e-10
2.58651e-14
2.16996e-10
-6.67674e-10
-3.51886e-14
2.68033e-10
-7.78854e-10
1.31648e-14
3.24713e-10
-8.96089e-10
3.09305e-15
-1.01831e-09
1.50747e-15
2.39164e-13
-2.43089e-12
1.70566e-17
1.75412e-12
-1.66824e-11
1.85078e-16
5.45364e-12
-4.26795e-11
-5.82799e-16
1.21119e-11
-7.92289e-11
-1.71702e-16
2.24215e-11
-1.25855e-10
7.75696e-16
3.69913e-11
-1.82344e-10
-2.75454e-16
5.64502e-11
-2.48579e-10
3.87812e-15
8.12666e-11
-3.24408e-10
3.41349e-15
1.11764e-10
-4.09601e-10
-1.17454e-14
1.48383e-10
-5.03856e-10
-1.23205e-14
1.91539e-10
-6.06544e-10
2.12211e-14
2.4066e-10
-7.17121e-10
-3.99486e-14
2.96537e-10
-8.34572e-10
1.31263e-14
3.58353e-10
-9.57901e-10
2.35251e-15
-1.08574e-09
2.26783e-15
2.73134e-13
-2.70388e-12
1.42059e-17
1.98877e-12
-1.83957e-11
2.54063e-16
6.16486e-12
-4.68572e-11
-2.38485e-16
1.36515e-11
-8.67225e-11
-9.21527e-16
2.52229e-11
-1.37424e-10
2.57815e-16
4.15351e-11
-1.9866e-10
-6.17051e-16
6.32689e-11
-2.70279e-10
3.98057e-15
9.08896e-11
-3.51989e-10
4.3732e-15
1.24748e-10
-4.4357e-10
-1.38495e-14
1.65289e-10
-5.44516e-10
-1.48658e-14
2.12899e-10
-6.54027e-10
2.1792e-14
2.67064e-10
-7.71604e-10
-3.92518e-14
3.28354e-10
-8.95704e-10
1.38884e-14
3.95908e-10
-1.02545e-09
2.62349e-15
-1.15907e-09
2.76561e-15
3.1908e-13
-3.02266e-12
3.65251e-17
2.29026e-12
-2.03658e-11
1.11821e-16
7.05392e-12
-5.16231e-11
-3.04299e-16
1.55463e-11
-9.522e-11
-7.09478e-16
2.86235e-11
-1.50484e-10
1.86819e-15
4.69886e-11
-2.17046e-10
-2.61765e-15
7.12928e-11
-2.9469e-10
-1.30162e-14
1.02227e-10
-3.82883e-10
4.1465e-15
1.4007e-10
-4.81458e-10
-4.90279e-15
1.85204e-10
-5.89696e-10
-4.19311e-15
2.37972e-10
-7.06528e-10
4.03682e-14
2.97723e-10
-8.31546e-10
-2.29465e-14
3.64876e-10
-9.62689e-10
1.51851e-14
4.38605e-10
-1.09916e-09
4.31877e-15
-1.23872e-09
1.88204e-15
3.65819e-13
-3.38881e-12
-5.06727e-17
2.60739e-12
-2.26074e-11
-2.05456e-17
8.01164e-12
-5.70238e-11
3.84653e-16
1.76143e-11
-1.04829e-10
-8.66094e-16
3.23059e-11
-1.65217e-10
-5.06233e-15
5.30145e-11
-2.37697e-10
6.15702e-15
8.0416e-11
-3.2193e-10
2.16879e-14
1.14893e-10
-4.1742e-10
-7.80297e-15
1.57035e-10
-5.23666e-10
-1.05926e-14
2.07257e-10
-6.39885e-10
1.72402e-15
2.65444e-10
-7.6489e-10
-2.29803e-14
3.31585e-10
-8.97775e-10
-1.20586e-14
4.0543e-10
-1.03657e-09
-3.39393e-15
4.86127e-10
-1.17987e-09
-1.95686e-15
-1.32547e-09
-3.22152e-15
4.33084e-13
-3.82206e-12
-2.69141e-17
3.03559e-12
-2.52115e-11
-2.03793e-16
9.25471e-12
-6.32395e-11
3.71702e-16
2.02332e-11
-1.15812e-10
-6.93067e-16
3.69609e-11
-1.81972e-10
-3.4572e-15
6.04264e-11
-2.61116e-10
4.57034e-15
9.12707e-11
-3.52752e-10
4.86317e-15
1.30089e-10
-4.56301e-10
-8.19424e-15
1.77378e-10
-5.70966e-10
-2.84633e-15
2.33475e-10
-6.95884e-10
1.11988e-14
2.98184e-10
-8.29632e-10
-4.81619e-15
3.71304e-10
-9.70863e-10
3.71788e-15
4.52389e-10
-1.11767e-09
-1.75173e-15
5.40564e-10
-1.26805e-09
1.75043e-16
-1.41969e-09
-3.84657e-15
5.00336e-13
-4.32257e-12
-2.73339e-17
3.47713e-12
-2.81891e-11
-1.15382e-16
1.0561e-11
-7.03171e-11
6.62416e-16
2.30255e-11
-1.28289e-10
-1.72482e-15
4.19934e-11
-2.00961e-10
-2.7732e-15
6.84836e-11
-2.87581e-10
2.26741e-15
1.03229e-10
-3.87482e-10
4.14229e-15
1.46853e-10
-4.99979e-10
-7.29564e-15
1.99826e-10
-6.23941e-10
-1.60638e-15
2.62419e-10
-7.58411e-10
8.32835e-15
3.34366e-10
-9.01594e-10
-1.29395e-15
4.15401e-10
-1.05186e-09
4.30827e-15
5.04751e-10
-1.20704e-09
-3.15919e-16
6.01359e-10
-1.36466e-09
2.11859e-16
-1.52222e-09
-3.4675e-15
6.01612e-13
-4.92405e-12
6.24633e-18
4.10074e-12
-3.16893e-11
-1.3285e-16
1.23384e-11
-7.8545e-11
1.15281e-15
2.67274e-11
-1.4268e-10
-4.039e-16
4.84812e-11
-2.22737e-10
-3.13859e-15
7.87476e-11
-3.17791e-10
5.96411e-15
1.18253e-10
-4.26957e-10
6.68374e-15
1.67579e-10
-5.49417e-10
-1.34255e-14
2.27209e-10
-6.83608e-10
-5.75907e-15
2.97289e-10
-8.28494e-10
4.22328e-16
3.77441e-10
-9.81782e-10
-3.95476e-15
4.67181e-10
-1.1416e-09
4.85291e-16
5.65522e-10
-1.30538e-09
8.85001e-16
6.71152e-10
-1.4703e-09
3.56345e-16
-1.63351e-09
-2.48465e-15
6.9786e-13
-5.62295e-12
-1.16171e-16
4.71826e-12
-3.57092e-11
3.57174e-17
1.41378e-11
-8.79587e-11
3.93048e-16
3.05514e-11
-1.59102e-10
-1.40058e-15
5.53025e-11
-2.47523e-10
-2.94604e-15
8.96485e-11
-3.52081e-10
5.97533e-15
1.34273e-10
-4.71654e-10
-9.93923e-15
1.90125e-10
-6.05141e-10
1.45406e-14
2.57221e-10
-7.5078e-10
-8.77919e-15
3.35797e-10
-9.07033e-10
4.40748e-15
4.25251e-10
-1.07131e-09
-8.49144e-15
5.24945e-10
-1.2413e-09
2.33097e-16
6.33502e-10
-1.41395e-09
8.43688e-16
7.49271e-10
-1.58608e-09
3.09099e-16
-1.75448e-09
-1.497e-17
8.54574e-13
-6.47798e-12
-5.13341e-17
5.64536e-12
-4.04996e-11
3.22725e-17
1.67274e-11
-9.90277e-11
1.26417e-15
3.58699e-11
-1.78247e-10
-7.87508e-16
6.45319e-11
-2.76232e-10
-4.46303e-15
1.04067e-10
-3.9156e-10
6.16046e-15
1.55185e-10
-5.22836e-10
-8.24207e-15
2.18701e-10
-6.68597e-10
7.34549e-15
2.94641e-10
-8.26775e-10
-6.2793e-15
3.82984e-10
-9.95364e-10
2.16502e-15
4.82943e-10
-1.17131e-09
-2.91301e-15
5.93525e-10
-1.35185e-09
5.0636e-15
7.13009e-10
-1.53343e-09
4.92426e-15
8.39439e-10
-1.7125e-09
4.54161e-15
-1.88544e-09
7.49037e-16
9.97705e-13
-7.47663e-12
-1.1837e-16
6.52168e-12
-4.60232e-11
-4.02716e-17
1.92367e-11
-1.11739e-10
3.87554e-16
4.11652e-11
-2.00168e-10
6.88148e-16
7.39682e-11
-3.09031e-10
-4.67644e-17
1.18996e-10
-4.36565e-10
2.69377e-15
1.77204e-10
-5.81049e-10
-7.62964e-16
2.49205e-10
-7.40586e-10
1.84063e-15
3.35093e-10
-9.12676e-10
-7.54062e-16
4.34514e-10
-1.09481e-09
-1.11545e-15
5.4647e-10
-1.28326e-09
2.68452e-15
6.69661e-10
-1.475e-09
4.4656e-15
8.01765e-10
-1.66554e-09
7.15449e-16
9.40311e-10
-1.85105e-09
3.81434e-16
-2.02754e-09
-4.41191e-15
1.24595e-12
-8.72278e-12
-2.62725e-17
7.9281e-12
-5.27076e-11
-3.67351e-16
2.30761e-11
-1.26882e-10
4.70972e-16
4.89299e-11
-2.26022e-10
-2.3273e-16
8.73148e-11
-3.47412e-10
3.51997e-16
1.39597e-10
-4.88845e-10
3.00792e-16
2.06757e-10
-6.48232e-10
-2.50813e-15
2.8926e-10
-8.23096e-10
-2.23088e-16
3.87024e-10
-1.01044e-09
1.37373e-15
4.99334e-10
-1.20715e-09
-1.25903e-15
6.24786e-10
-1.40875e-09
-1.40708e-15
7.61502e-10
-1.61179e-09
-7.38617e-15
9.06652e-10
-1.81095e-09
-3.11257e-14
1.05739e-09
-2.002e-09
-2.67519e-14
-2.18067e-09
-1.64311e-14
1.46011e-12
-1.01842e-11
-2.0394e-16
9.17968e-12
-6.04308e-11
-5.65791e-16
2.66258e-11
-1.44321e-10
7.54343e-16
5.6347e-11
-2.55738e-10
4.12923e-16
1.00392e-10
-3.91465e-10
-1.00141e-15
1.60299e-10
-5.4874e-10
1.41313e-15
2.3707e-10
-7.25013e-10
-6.92567e-16
3.3106e-10
-9.171e-10
-4.76317e-16
4.42053e-10
-1.12142e-09
3.75705e-15
5.68843e-10
-1.33395e-09
1.21335e-15
7.09594e-10
-1.54967e-09
-2.54532e-14
8.62224e-10
-1.76403e-09
5.22309e-14
1.02285e-09
-1.97143e-09
3.31224e-14
1.18775e-09
-2.16676e-09
2.51001e-14
-2.34556e-09
8.03951e-14
1.86004e-12
-1.20444e-11
-5.58221e-17
1.13527e-11
-6.99296e-11
-8.90964e-16
3.24243e-11
-1.65389e-10
2.00083e-16
6.79044e-11
-2.91216e-10
8.87104e-18
1.20013e-10
-4.43574e-10
-1.10738e-16
1.90298e-10
-6.19011e-10
2.05917e-15
2.79673e-10
-8.14394e-10
-6.33875e-17
3.88201e-10
-1.02565e-09
-1.89204e-16
5.15296e-10
-1.24847e-09
8.58528e-15
6.59125e-10
-1.47779e-09
3.72982e-15
8.17191e-10
-1.70793e-09
-2.69014e-14
9.86554e-10
-1.93309e-09
4.37556e-14
1.16259e-09
-2.14754e-09
5.66973e-15
1.341e-09
-2.34525e-09
1.74514e-15
-2.52158e-09
6.98421e-14
2.18208e-12
-1.42267e-11
-6.89132e-17
1.3151e-11
-8.09025e-11
-6.81562e-16
3.74448e-11
-1.89676e-10
5.7484e-16
7.83209e-11
-3.32095e-10
-6.77503e-16
1.38332e-10
-5.03591e-10
-5.37224e-16
2.19155e-10
-6.99834e-10
8.0177e-16
3.21752e-10
-9.16982e-10
2.39835e-15
4.45905e-10
-1.14983e-09
-1.34109e-15
5.90699e-10
-1.39322e-09
1.06908e-14
7.53618e-10
-1.64074e-09
2.73598e-15
9.31413e-10
-1.88592e-09
-2.23873e-14
1.12026e-09
-2.12164e-09
4.36155e-14
1.3144e-09
-2.34178e-09
3.24188e-15
1.50846e-09
-2.53941e-09
-2.81968e-15
-2.70997e-09
7.2645e-14
2.82395e-12
-1.70499e-11
3.58915e-17
1.65328e-11
-9.46166e-11
-7.80108e-16
4.63199e-11
-2.19456e-10
7.13275e-16
9.58046e-11
-3.81577e-10
2.52468e-16
1.67722e-10
-5.75502e-10
1.19457e-15
2.63678e-10
-7.95775e-10
3.31312e-15
3.84352e-10
-1.03765e-09
3.26323e-15
5.28932e-10
-1.29445e-09
9.08944e-16
6.95747e-10
-1.55996e-09
1.58193e-14
8.81222e-10
-1.82623e-09
8.44627e-15
1.08106e-09
-2.08587e-09
-1.09179e-14
1.2902e-09
-2.33041e-09
5.70709e-14
1.50183e-09
-2.55347e-09
1.23537e-14
1.70966e-09
-2.74729e-09
1.1009e-14
-2.90771e-09
7.4823e-14
3.27632e-12
-2.03308e-11
-6.10382e-16
1.90335e-11
-1.10381e-10
-1.45291e-15
5.33165e-11
-2.53729e-10
1.05083e-15
1.1038e-10
-4.38642e-10
3.62389e-16
1.93399e-10
-6.58529e-10
9.39063e-17
3.04071e-10
-9.0645e-10
1.75878e-15
4.43038e-10
-1.17662e-09
3.90689e-15
6.0896e-10
-1.46041e-09
2.533e-15
7.99507e-10
-1.75044e-09
1.80731e-14
1.00993e-09
-2.03668e-09
9.6809e-15
1.23472e-09
-2.31083e-09
-1.10463e-14
1.46725e-09
-2.56258e-09
6.10921e-14
1.69933e-09
-2.78563e-09
1.80442e-14
1.92317e-09
-2.97117e-09
1.39694e-14
-3.11611e-09
8.18335e-14
4.27248e-12
-2.46062e-11
-4.05356e-16
2.42625e-11
-1.30377e-10
-1.26244e-15
6.69862e-11
-2.9644e-10
1.6592e-15
1.37188e-10
-5.08841e-10
1.49911e-15
2.3821e-10
-7.59551e-10
1.53878e-15
3.71453e-10
-1.03969e-09
4.24304e-15
5.36899e-10
-1.34206e-09
7.54922e-15
7.31962e-10
-1.65551e-09
6.5143e-15
9.52927e-10
-1.97131e-09
2.63361e-14
1.19314e-09
-2.27689e-09
2.03447e-14
1.44543e-09
-2.56322e-09
1.97279e-15
1.70131e-09
-2.81802e-09
7.94929e-14
1.95126e-09
-3.03563e-09
2.77492e-14
2.18627e-09
-3.20617e-09
3.31092e-14
-3.32854e-09
8.349e-14
4.84615e-12
-2.94549e-11
-3.72336e-16
2.75906e-11
-1.53122e-10
-4.62268e-16
7.65793e-11
-3.45421e-10
1.03954e-15
1.57502e-10
-5.89752e-10
2.48499e-15
2.74243e-10
-8.76281e-10
6.5312e-15
4.28206e-10
-1.19366e-09
6.775e-15
6.19019e-10
-1.53286e-09
1.08551e-14
8.43163e-10
-1.87969e-09
1.2509e-14
1.09565e-09
-2.22369e-09
3.55417e-14
1.36789e-09
-2.54911e-09
3.00659e-14
1.65088e-09
-2.84634e-09
9.54891e-15
1.93354e-09
-3.10023e-09
8.61764e-14
2.20476e-09
-3.30695e-09
3.65543e-14
2.45349e-09
-3.45492e-09
3.22679e-14
-3.54651e-09
9.28552e-14
6.33806e-12
-3.57896e-11
3.35796e-16
3.56766e-11
-1.82462e-10
-5.12523e-16
9.79186e-11
-4.07667e-10
2.45541e-16
1.9939e-10
-6.91226e-10
2.28924e-15
3.44055e-10
-1.02093e-09
9.70718e-15
5.32401e-10
-1.38202e-09
1.01183e-14
7.62724e-10
-1.76314e-09
2.28487e-14
1.02898e-09
-2.14598e-09
2.12658e-14
1.32359e-09
-2.51827e-09
3.59522e-14
1.63474e-09
-2.8603e-09
3.52736e-14
1.95066e-09
-3.1626e-09
-6.66912e-15
2.25755e-09
-3.40681e-09
8.75122e-14
2.54299e-09
-3.59254e-09
3.61401e-14
2.7944e-09
-3.7064e-09
5.32535e-14
-3.75638e-09
1.04217e-13
7.00756e-12
-4.28079e-11
-1.56339e-15
4.00651e-11
-2.15523e-10
-4.66127e-16
1.11217e-10
-4.78812e-10
2.62141e-15
2.27946e-10
-8.07956e-10
5.5863e-15
3.95004e-10
-1.18799e-09
1.07141e-14
6.1223e-10
-1.59928e-09
1.53116e-14
8.7741e-10
-2.02828e-09
3.26425e-14
1.18233e-09
-2.45089e-09
4.06091e-14
1.51762e-09
-2.85337e-09
7.32703e-14
1.86817e-09
-3.21071e-09
7.32989e-14
2.21975e-09
-3.51403e-09
8.93675e-14
2.55421e-09
-3.74111e-09
8.29147e-14
2.85797e-09
-3.89629e-09
8.18621e-14
3.11584e-09
7.25763e-14
1.35264e-13
9.45674e-12
-5.22637e-11
-5.50595e-17
5.32285e-11
-2.59297e-10
2.03481e-16
1.45693e-10
-5.71298e-10
1.13097e-15
2.95172e-10
-9.57464e-10
6.86106e-15
5.06136e-10
-1.39894e-09
2.20535e-14
7.76408e-10
-1.86958e-09
2.90587e-14
1.101e-09
-2.35282e-09
5.20765e-14
1.46712e-09
-2.817e-09
6.08688e-14
1.86071e-09
-3.24691e-09
7.55007e-14
2.26096e-09
-3.61094e-09
8.78912e-14
2.64958e-09
-3.9027e-09
8.13377e-14
3.00365e-09
-4.09521e-09
9.55626e-14
-4.20212e-09
1.24883e-13
1.04497e-11
-6.27198e-11
-7.76946e-16
5.95616e-11
-3.08391e-10
4.10699e-15
1.6485e-10
-6.76601e-10
6.31147e-15
3.35889e-10
-1.12852e-09
1.63104e-14
5.78067e-10
-1.64107e-09
3.97485e-14
8.8731e-10
-2.17892e-09
4.16266e-14
1.25768e-09
-2.72313e-09
7.95103e-14
1.67253e-09
-3.23182e-09
9.02381e-14
2.11531e-09
-3.68961e-09
1.17096e-13
2.55983e-09
-4.05537e-09
1.22567e-13
2.98522e-09
-4.3282e-09
1.15614e-13
3.36147e-09
-4.47147e-09
1.13989e-13
-4.51636e-09
1.79569e-13
1.45026e-11
-7.72022e-11
2.83524e-15
8.11825e-11
-3.75055e-10
6.25372e-15
2.20826e-10
-8.16302e-10
8.55907e-15
4.44072e-10
-1.35185e-09
2.26665e-14
7.54679e-10
-1.95164e-09
6.30627e-14
1.14557e-09
-2.56989e-09
7.1484e-14
1.60494e-09
-3.18249e-09
1.09138e-13
2.10879e-09
-3.73566e-09
1.37079e-13
2.63249e-09
-4.21331e-09
1.45262e-13
3.13936e-09
-4.5622e-09
1.72667e-13
3.60283e-09
-4.79182e-09
1.38859e-13
3.98226e-09
-4.85094e-09
1.68857e-13
-4.80504e-09
1.78768e-13
1.60788e-11
-9.33449e-11
-7.03392e-15
9.04039e-11
-4.49396e-10
8.74861e-15
2.48135e-10
-9.74048e-10
2.41096e-14
4.99723e-10
-1.60345e-09
2.39379e-14
8.50881e-10
-2.30273e-09
1.00106e-13
1.28957e-09
-3.00858e-09
9.95219e-14
1.80319e-09
-3.69604e-09
1.85552e-13
2.36104e-09
-4.29341e-09
1.96309e-13
2.93687e-09
-4.78907e-09
2.23464e-13
3.48538e-09
-5.11057e-09
2.21126e-13
3.98065e-09
-5.28739e-09
2.02261e-13
4.36446e-09
-5.23478e-09
1.84024e-13
-5.08153e-09
2.28008e-13
2.28058e-11
-1.16134e-10
1.10775e-15
1.25411e-10
-5.52004e-10
1.98281e-14
3.35477e-10
-1.18412e-09
7.55071e-14
6.67289e-10
-1.93511e-09
-6.48253e-14
1.11818e-09
-2.75342e-09
8.89377e-14
1.67941e-09
-3.56975e-09
1.3035e-13
2.32294e-09
-4.33946e-09
2.78126e-13
3.01105e-09
-4.98144e-09
2.96221e-13
3.70409e-09
-5.48207e-09
2.28632e-13
4.33664e-09
-5.74297e-09
3.24449e-13
4.87305e-09
-5.82403e-09
2.20999e-13
5.21995e-09
-5.58171e-09
2.9896e-13
-5.27509e-09
2.19758e-13
2.56037e-11
-1.41617e-10
1.65833e-14
1.38509e-10
-6.6378e-10
2.30266e-13
3.69158e-10
-1.41474e-09
1.96698e-13
7.29864e-10
-2.29499e-09
-2.42108e-13
1.22181e-09
-3.24473e-09
4.36888e-14
1.8295e-09
-4.17746e-09
2.98644e-13
2.51908e-09
-5.02868e-09
4.57961e-13
3.24534e-09
-5.70731e-09
2.9415e-13
3.97631e-09
-6.21302e-09
3.91792e-13
4.63273e-09
-6.39934e-09
2.64706e-13
5.19877e-09
-6.39041e-09
4.19707e-13
5.50848e-09
-5.89123e-09
2.90334e-13
-5.41961e-09
3.72598e-13
3.49601e-11
-1.75967e-10
1.6291e-13
1.93189e-10
-8.12218e-10
1.62674e-13
4.89998e-10
-1.71143e-09
1.0923e-13
9.54825e-10
-2.75724e-09
-9.87188e-13
1.56245e-09
-3.85164e-09
2.10701e-13
2.33954e-09
-4.94812e-09
2.21792e-12
3.21404e-09
-5.90216e-09
9.26802e-13
4.13497e-09
-6.62692e-09
1.36369e-13
5.07068e-09
-7.1447e-09
-1.36511e-12
5.89352e-09
-7.2219e-09
5.82464e-13
6.54975e-09
-7.04609e-09
6.13704e-13
6.70952e-09
-6.05019e-09
7.43596e-13
-5.34114e-09
3.82008e-13
4.94399e-11
-2.24098e-10
1.56612e-13
2.07389e-10
-9.68935e-10
-2.32238e-13
5.04618e-10
-2.00802e-09
7.73895e-14
9.63693e-10
-3.19708e-09
-9.22302e-12
1.57664e-09
-4.45841e-09
2.53526e-12
2.39305e-09
-5.69664e-09
9.4427e-12
3.2561e-09
-6.75998e-09
2.71766e-12
4.11802e-09
-7.48446e-09
1.9056e-12
5.03353e-09
-8.01476e-09
-1.46786e-11
5.8308e-09
-8.00704e-09
1.17011e-12
6.58066e-09
-7.79646e-09
1.69605e-12
6.57589e-09
-6.04454e-09
9.47822e-13
-5.1151e-09
8.72937e-13
2.73714e-11
-2.5016e-10
2.84846e-13
1.78281e-10
-1.11804e-09
4.26297e-13
5.24042e-10
-2.35328e-09
-2.32562e-13
1.08313e-09
-3.75582e-09
-1.74542e-14
1.7534e-09
-5.12706e-09
8.55975e-13
2.72773e-09
-6.6573e-09
1.6787e-12
3.93692e-09
-7.96704e-09
2.57733e-12
4.98566e-09
-8.52914e-09
2.15719e-12
6.43415e-09
-9.45618e-09
4.77226e-12
7.84552e-09
-9.418e-09
3.88387e-12
8.90802e-09
-8.85959e-09
2.46813e-12
8.19214e-09
-5.32975e-09
2.18205e-12
-4.19598e-09
1.28587e-12
1.0493e-10
-2.34413e-10
-1.09905e-12
2.53203e-10
-1.15012e-09
8.75628e-13
4.06256e-10
-2.50213e-09
-1.91526e-12
7.93739e-10
-4.13374e-09
-4.24632e-12
1.44052e-09
-5.76469e-09
8.10933e-13
2.38917e-09
-7.57725e-09
6.97458e-12
3.48457e-09
-9.04099e-09
8.376e-12
4.41154e-09
-9.43874e-09
9.07966e-12
5.24636e-09
-1.02774e-08
2.7145e-12
5.84888e-09
-1.00166e-08
4.20032e-12
7.29962e-09
-9.13499e-09
-3.62073e-11
6.20036e-09
-4.19851e-09
3.65497e-12
-2.9949e-09
-5.50088e-12
2.87176e-11
-1.89652e-10
-1.62398e-13
1.77298e-10
-9.278e-10
-2.35555e-14
5.88684e-10
-2.02055e-09
-1.67105e-13
1.01661e-09
-3.36493e-09
2.4725e-13
9.97592e-10
-4.81811e-09
1.88576e-14
2.11004e-09
-6.13227e-09
1.23001e-09
3.74417e-09
-7.1378e-09
-1.75086e-09
2.03044e-09
-7.68528e-09
-6.98353e-13
4.08384e-09
-6.69701e-09
-8.37841e-10
8.59226e-09
-5.0944e-09
-2.23599e-12
1.1272e-08
-5.31564e-11
7.07599e-09
2.5015e-13
-1.58497e-11
1.92806e-11
-1.52872e-10
-2.6832e-14
9.32211e-11
-6.99729e-10
-1.5576e-13
2.44612e-10
-1.48506e-09
1.46336e-13
4.7985e-10
-2.40088e-09
-2.66667e-13
7.72839e-10
-3.35309e-09
-2.31761e-13
1.16111e-09
-4.1381e-09
-5.06954e-13
1.5908e-09
-4.62016e-09
-3.6724e-13
1.75711e-09
-4.5753e-09
-1.00106e-12
1.42882e-09
-3.56411e-09
-4.81553e-13
-1.64313e-09
-9.09671e-14
1.43848e-11
-1.35739e-10
-1.54293e-14
6.60009e-11
-5.78275e-10
-6.41179e-15
1.5832e-10
-1.18418e-09
-1.189e-13
2.9031e-10
-1.87061e-09
-2.38013e-14
4.53623e-10
-2.54745e-09
-1.87733e-13
6.25907e-10
-3.09829e-09
-1.07907e-13
7.48894e-10
-3.37348e-09
-3.14523e-13
7.12711e-10
-3.20044e-09
-4.91848e-13
4.09083e-10
-2.43164e-09
-5.95258e-13
-1.00873e-09
-1.99556e-13
9.75754e-12
-1.30246e-10
-3.68497e-15
4.21239e-11
-5.25143e-10
-2.55369e-14
9.44272e-11
-1.04025e-09
-4.31543e-15
1.63473e-10
-1.60546e-09
-7.00996e-14
2.40489e-10
-2.14661e-09
-1.59891e-14
3.08733e-10
-2.57169e-09
-7.62324e-14
3.38336e-10
-2.76734e-09
-2.11994e-14
2.91402e-10
-2.60611e-09
-9.79923e-14
1.43359e-10
-1.9716e-09
-8.50399e-14
-7.94352e-10
-4.78569e-14
5.29882e-12
-1.31863e-10
-2.02102e-15
2.26925e-11
-5.18133e-10
-4.95528e-15
4.85686e-11
-1.00647e-09
-2.11143e-14
7.87165e-11
-1.53118e-09
-1.11133e-14
1.0662e-10
-2.0257e-09
-4.19976e-14
1.23746e-10
-2.41047e-09
-1.25744e-14
1.19015e-10
-2.58954e-09
-4.12237e-14
7.71972e-11
-2.45359e-09
-1.45547e-14
1.61505e-11
-1.88757e-09
-3.78444e-14
-7.78239e-10
8.24904e-15
2.3797e-12
-1.34242e-10
-8.70075e-16
9.81984e-12
-5.25573e-10
-3.68373e-15
1.78847e-11
-1.01453e-09
-8.88704e-15
2.16298e-11
-1.53493e-09
-7.47428e-15
1.74481e-11
-2.02151e-09
-2.13039e-14
4.98679e-12
-2.39802e-09
-1.12229e-14
-1.11328e-11
-2.57342e-09
-1.57717e-14
-2.12773e-11
-2.44343e-09
-1.76703e-14
-1.57853e-11
-1.89309e-09
3.67637e-15
-7.9401e-10
-1.21997e-14
9.33086e-14
-1.34336e-10
-3.42723e-16
1.14892e-12
-5.26628e-10
-1.7431e-15
2.87301e-12
-1.01626e-09
-3.67365e-15
4.47497e-12
-1.53653e-09
-6.95022e-15
4.91068e-12
-2.02195e-09
-5.38537e-15
3.52582e-12
-2.39663e-09
-1.26013e-14
7.22327e-13
-2.57062e-09
-5.58562e-15
-2.29783e-12
-2.44041e-09
-8.60175e-15
-3.03231e-12
-1.89235e-09
-7.4424e-15
-7.97047e-10
1.01609e-15
-2.3224e-12
-1.32013e-10
-9.4503e-17
-7.77217e-12
-5.21179e-10
-8.36649e-16
-1.31102e-11
-1.01092e-09
-1.82928e-15
-1.5602e-11
-1.53404e-09
-2.62634e-15
-1.39792e-11
-2.02357e-09
-5.22439e-15
-8.51067e-12
-2.4021e-09
-2.62952e-15
-8.23784e-13
-2.57831e-09
-7.16478e-15
5.0779e-12
-2.44632e-09
-1.90354e-15
5.49139e-12
-1.89276e-09
-2.87874e-15
-7.91555e-10
-9.04398e-16
-5.68823e-12
-1.26325e-10
1.96374e-18
-1.94555e-11
-5.07411e-10
-3.06904e-16
-3.32167e-11
-9.97158e-10
-8.61018e-16
-4.21097e-11
-1.52515e-09
-1.58709e-15
-4.3452e-11
-2.02223e-09
-1.47391e-15
-3.66692e-11
-2.40888e-09
-3.43113e-15
-2.30152e-11
-2.59196e-09
-9.77047e-16
-7.47956e-12
-2.46185e-09
-3.63473e-15
2.31071e-12
-1.90255e-09
-2.8175e-16
-7.89243e-10
-9.65772e-16
-1.36048e-11
-1.1272e-10
2.83339e-17
-4.39769e-11
-4.77039e-10
-9.65221e-17
-7.6374e-11
-9.6476e-10
-3.91917e-16
-1.08046e-10
-1.49347e-09
-6.42784e-16
-1.3638e-10
-1.99389e-09
-1.28893e-15
-1.55267e-10
-2.39e-09
-8.47002e-16
-1.55193e-10
-2.59204e-09
-2.10047e-15
-1.26261e-10
-2.49078e-09
-4.01988e-16
-6.58268e-11
-1.96299e-09
-1.72976e-15
-8.55072e-10
6.43885e-17
-1.06089e-12
-1.11659e-10
4.55895e-17
-1.85298e-11
-4.5957e-10
-4.23079e-17
-7.50738e-11
-9.08216e-10
-2.19075e-16
-1.78346e-10
-1.3902e-09
-4.18865e-16
-3.26278e-10
-1.84596e-09
-6.64213e-16
-4.969e-10
-2.21937e-09
-9.22047e-16
-6.49798e-10
-2.43914e-09
-6.93519e-16
-7.03012e-10
-2.43756e-09
-9.73509e-16
-5.75639e-10
-2.09036e-09
-8.99814e-17
-1.43071e-09
-2.17576e-16
1.75448e-10
-2.87106e-10
1.63612e-16
3.03027e-10
-5.87111e-10
4.64435e-15
1.43413e-10
-7.48517e-10
1.03439e-14
-2.01182e-10
-1.04529e-09
3.68063e-14
-6.77086e-10
-1.37034e-09
-3.44898e-14
-1.26203e-09
-1.63441e-09
1.55475e-15
-1.91778e-09
-1.78365e-09
-3.1076e-14
-2.59109e-09
-1.76409e-09
1.85018e-14
-2.91309e-09
-1.76811e-09
2.99014e-14
-4.34363e-09
1.90675e-14
-1.64114e-12
-2.8547e-10
-1.49e-16
1.18749e-11
-6.00571e-10
7.21244e-15
2.27755e-11
-7.59295e-10
1.59753e-14
3.51514e-12
-1.02547e-09
6.61925e-14
-4.53348e-11
-1.32206e-09
-6.57904e-14
-1.02611e-10
-1.57679e-09
4.00492e-14
-1.32668e-10
-1.75421e-09
-7.43293e-14
-6.75451e-11
-1.8289e-09
3.78873e-14
1.84366e-10
-2.01922e-09
9.73467e-14
-4.15912e-09
2.68005e-14
-1.55538e-10
-1.29933e-10
3.30062e-16
-2.74115e-10
-4.81945e-10
6.154e-15
-1.48605e-10
-8.84649e-10
1.94336e-14
1.31136e-10
-1.30469e-09
6.16517e-14
5.23967e-10
-1.71554e-09
-7.59494e-14
1.03762e-09
-2.08946e-09
1.13342e-13
1.62428e-09
-2.34277e-09
-2.19318e-13
2.29663e-09
-2.50142e-09
-1.55784e-14
2.52567e-09
-2.24786e-09
4.79575e-14
-1.63077e-09
3.11661e-13
5.46527e-12
-1.35398e-10
1.45076e-16
1.07889e-11
-4.87201e-10
8.38728e-15
3.10902e-11
-9.04832e-10
1.54955e-14
8.04354e-11
-1.35382e-09
2.49661e-14
1.53892e-10
-1.7896e-09
-6.99646e-14
2.46259e-10
-2.179e-09
3.30387e-13
3.30571e-10
-2.43079e-09
-4.37037e-13
3.53895e-10
-2.52427e-09
2.71982e-14
2.64135e-10
-2.16212e-09
-4.84324e-13
-1.37418e-09
-9.08616e-13
-9.79372e-12
-1.25606e-10
-6.9098e-17
-4.44441e-12
-4.92545e-10
6.82119e-16
4.10189e-11
-9.5008e-10
2.72486e-14
1.29695e-10
-1.44142e-09
1.3018e-13
2.50427e-10
-1.91151e-09
-1.4157e-13
3.78518e-10
-2.31029e-09
-3.91344e-13
4.92748e-10
-2.54085e-09
5.05099e-13
5.01098e-10
-2.53173e-09
1.32107e-13
3.93426e-10
-2.05184e-09
3.16117e-13
-9.73038e-10
9.20731e-13
1.22647e-12
-1.26833e-10
-2.4758e-16
6.80312e-12
-4.98095e-10
3.38979e-15
1.95449e-11
-9.62638e-10
2.4414e-14
3.93967e-11
-1.46061e-09
8.04321e-14
6.18531e-11
-1.93499e-09
-1.20314e-13
7.9966e-11
-2.33005e-09
-2.09745e-13
9.07059e-11
-2.549e-09
3.17788e-13
7.17982e-11
-2.51168e-09
1.31244e-13
3.79292e-11
-2.01991e-09
-2.2553e-13
-9.37051e-10
-2.20549e-13
2.10963e-12
-1.28945e-10
-1.67866e-16
1.21533e-11
-5.08129e-10
9.87838e-16
3.20473e-11
-9.82248e-10
3.50226e-14
6.09163e-11
-1.48853e-09
1.15836e-13
9.27438e-11
-1.96851e-09
-2.00843e-13
1.19501e-10
-2.35778e-09
-1.3111e-13
1.34285e-10
-2.5633e-09
7.13901e-14
1.14245e-10
-2.49105e-09
6.5821e-14
7.08841e-11
-1.97872e-09
-2.56471e-13
-8.65975e-10
7.54453e-15
7.55248e-13
-1.29698e-10
1.10064e-16
3.6333e-12
-5.10996e-10
1.95424e-15
8.97482e-12
-9.87306e-10
3.63693e-14
1.57947e-11
-1.49451e-09
1.02871e-13
1.97033e-11
-1.97388e-09
-1.78708e-13
1.99304e-11
-2.35949e-09
-1.95764e-13
1.97311e-11
-2.56028e-09
3.40526e-13
1.25976e-11
-2.48035e-09
4.1275e-13
3.00954e-12
-1.96803e-09
1.33173e-13
-8.61355e-10
1.78624e-13
1.6583e-12
-1.31368e-10
-1.53159e-15
6.67586e-12
-5.15986e-10
3.58686e-15
1.46361e-11
-9.95e-10
3.32914e-14
2.48228e-11
-1.50396e-09
8.03186e-14
3.34277e-11
-1.98399e-09
-1.7006e-13
4.11823e-11
-2.36627e-09
1.25487e-13
4.27005e-11
-2.5628e-09
-1.20743e-13
3.13557e-11
-2.47255e-09
-4.06915e-13
1.77142e-11
-1.9553e-09
-1.14129e-13
-8.45302e-10
-1.84225e-13
4.50808e-13
-1.31826e-10
-1.22032e-15
1.69004e-12
-5.17186e-10
5.58196e-15
3.78826e-12
-9.9681e-10
3.69336e-14
6.54509e-12
-1.50608e-09
6.95712e-14
6.35016e-12
-1.98507e-09
-1.49168e-13
5.72137e-12
-2.3655e-09
2.25033e-14
5.3262e-12
-2.56144e-09
1.05622e-13
8.47736e-13
-2.46858e-09
-5.42633e-14
-9.11714e-13
-1.95149e-09
2.35923e-13
-8.46079e-10
2.12614e-14
7.13966e-13
-1.32548e-10
-1.24956e-15
2.92672e-12
-5.19365e-10
4.63402e-15
6.559e-12
-1.00013e-09
3.97039e-14
1.11186e-11
-1.50985e-09
8.70782e-14
1.29488e-11
-1.98851e-09
-1.87963e-13
1.47352e-11
-2.36707e-09
3.24028e-14
1.46993e-11
-2.56109e-09
2.59269e-14
1.02995e-11
-2.46486e-09
-7.84594e-14
6.75197e-12
-1.94583e-09
2.42248e-13
-8.39475e-10
-1.45262e-14
6.57584e-14
-1.32615e-10
-7.18321e-16
6.23029e-13
-5.19882e-10
5.92474e-15
1.94428e-12
-1.00109e-09
4.48699e-14
3.82048e-12
-1.51102e-09
7.67526e-14
3.14096e-12
-1.98928e-09
-1.69229e-13
3.033e-12
-2.36697e-09
6.24509e-15
2.33683e-12
-2.56028e-09
3.63172e-15
-6.66109e-13
-2.46319e-09
-1.54485e-13
-6.90417e-13
-1.94457e-09
1.4114e-13
-8.40899e-10
-8.19704e-14
3.03851e-13
-1.32926e-10
-2.92103e-16
1.56704e-12
-5.21099e-10
5.41995e-15
3.87146e-12
-1.00327e-09
1.71145e-14
7.21137e-12
-1.5135e-09
9.60556e-14
7.47565e-12
-1.99106e-09
-1.76103e-13
7.7504e-12
-2.36761e-09
-3.78728e-14
8.12764e-12
-2.55941e-09
1.37998e-13
4.83258e-12
-2.46057e-09
-7.44138e-14
3.40875e-12
-1.94105e-09
2.4376e-13
-8.36855e-10
8.02794e-14
1.1926e-13
-1.33024e-10
2.29391e-15
8.1308e-13
-5.21722e-10
8.79627e-15
2.03679e-12
-1.00438e-09
1.57346e-14
4.27964e-12
-1.51445e-09
1.45771e-13
3.18529e-12
-1.99248e-09
-2.95837e-13
3.55804e-12
-2.36843e-09
-4.78903e-14
3.25271e-12
-2.55915e-09
-1.38958e-14
3.68987e-13
-2.45931e-09
-1.89292e-13
-3.72955e-14
-1.93998e-09
7.42609e-14
-8.37779e-10
-1.00321e-13
2.76521e-13
-1.33309e-10
-7.6041e-16
1.54482e-12
-5.22998e-10
-1.56684e-15
3.84146e-12
-1.00669e-09
-2.52047e-15
6.05705e-12
-1.51734e-09
-7.94966e-14
8.61101e-12
-1.99395e-09
1.29385e-13
8.77754e-12
-2.36837e-09
2.95336e-14
7.53599e-12
-2.55754e-09
4.049e-14
4.78756e-12
-2.45674e-09
-2.07917e-14
2.52624e-12
-1.93696e-09
8.83734e-14
-8.35428e-10
-1.88678e-14
2.41629e-13
-1.33539e-10
1.20846e-15
1.51594e-12
-5.24247e-10
3.11566e-15
3.53229e-12
-1.00874e-09
-4.91703e-15
5.34621e-12
-1.51943e-09
-3.43412e-14
7.18303e-12
-1.99566e-09
1.69352e-14
7.65298e-12
-2.36867e-09
2.33233e-14
5.70311e-12
-2.55638e-09
-9.56977e-14
2.92337e-12
-2.45446e-09
-5.72012e-14
6.23417e-13
-1.93461e-09
4.71194e-15
-8.3506e-10
-2.9126e-14
4.63334e-13
-1.34001e-10
1.11716e-16
2.37608e-12
-5.26156e-10
2.1328e-16
5.35558e-12
-1.01174e-09
-2.22177e-15
8.24542e-12
-1.52245e-09
-1.64982e-14
1.04764e-11
-1.99778e-09
1.22825e-14
1.04397e-11
-2.36906e-09
-4.94752e-14
9.25877e-12
-2.55465e-09
6.05138e-14
5.6511e-12
-2.45155e-09
-8.31394e-14
2.40272e-12
-1.93154e-09
-2.22144e-14
-8.3325e-10
-6.97952e-14
6.20545e-13
-1.34619e-10
1.18272e-16
2.91135e-12
-5.28434e-10
1.35151e-15
6.23502e-12
-1.01507e-09
-1.64489e-15
9.11641e-12
-1.52559e-09
-3.12567e-14
1.11022e-11
-1.99954e-09
2.66342e-14
1.05175e-11
-2.36889e-09
-4.83194e-14
8.52264e-12
-2.55248e-09
1.92937e-14
4.77508e-12
-2.44781e-09
-4.53577e-15
1.14672e-12
-1.928e-09