/*--------------------------------*- C++ -*----------------------------------*\
| =========                 |                                                 |
| \\      /  F ield         | OpenFOAM: The Open Source CFD Toolbox           |
|  \\    /   O peration     | Version:  v2012                                 |
|   \\  /    A nd           | Website:  www.openfoam.com                      |
|    \\/     M anipulation  |                                                 |
\*---------------------------------------------------------------------------*/
FoamFile
{
    version     2.0;
    format      ascii;
    class       surfaceScalarField;
    location    "0.4";
    object      phi;
}
// * * * * * * * * * * * * * * * * * * * * * * * * * * * * * * * * * * * * * //

dimensions      [0 3 -1 0 0 0 0];
oriented        oriented;


internalField   nonuniform List<scalar> 
6449
(
1.11747e-10
-6.72748e-09
-3.58997e-12
4.68082e-10
-2.15712e-08
6.68263e-12
4.54454e-10
-3.91673e-08
3.77596e-13
-2.00511e-10
-4.41811e-08
-1.01106e-12
-3.04404e-08
-1.28612e-12
7.28352e-11
-6.78759e-09
-4.18112e-12
4.63053e-10
-2.1971e-08
6.31391e-12
9.09933e-12
-3.87103e-08
8.75493e-13
-1.79166e-10
-4.39946e-08
-1.94364e-13
-3.06184e-08
3.8513e-13
6.16116e-11
-6.84225e-09
-2.11072e-12
4.35016e-10
-2.23512e-08
4.70726e-12
-1.09803e-10
-3.81628e-08
-5.98309e-13
2.39432e-10
-4.43434e-08
-1.20072e-13
-3.03733e-08
6.82821e-13
1.02469e-10
-6.92844e-09
-5.80489e-12
3.42248e-10
-2.2604e-08
7.61773e-12
-8.71149e-12
-3.78094e-08
1.81381e-13
6.95527e-10
-4.50453e-08
-1.67511e-13
-2.9678e-08
-1.6472e-13
9.19518e-11
-7.00575e-09
-6.04556e-12
2.56376e-10
-2.2781e-08
8.10388e-12
1.68636e-10
-3.77194e-08
-1.70865e-12
8.88272e-10
-4.57645e-08
-4.31557e-13
-2.87845e-08
3.77418e-13
6.30034e-11
-7.06283e-09
-2.97264e-12
2.57745e-10
-2.29796e-08
2.88173e-12
2.19245e-10
-3.76815e-08
-2.45108e-13
8.56039e-10
-4.64024e-08
-1.27902e-12
-2.79265e-08
-7.68671e-14
6.71494e-11
-7.13203e-09
1.10439e-12
3.02955e-10
-2.32137e-08
-1.00268e-12
2.13355e-10
-3.75899e-08
-1.14763e-12
8.31817e-10
-4.70223e-08
-1.08319e-12
-2.70939e-08
-4.85585e-13
1.08224e-10
-7.24104e-09
2.41995e-13
3.06843e-10
-2.34099e-08
-6.03095e-13
2.16013e-10
-3.74954e-08
-4.71755e-13
8.0563e-10
-4.7616e-08
-1.49921e-12
-2.62894e-08
-8.83815e-13
1.26255e-10
-7.3704e-09
1.31782e-12
2.13235e-10
-2.34923e-08
-3.0183e-12
1.59378e-10
-3.74413e-08
-6.70622e-13
7.71015e-10
-4.82265e-08
-1.50377e-13
-2.55132e-08
-2.05457e-13
8.72884e-11
-7.4705e-09
4.68692e-12
-5.83934e-11
-2.33369e-08
-6.32106e-12
3.35247e-11
-3.75316e-08
-9.82293e-13
9.38074e-10
-4.9134e-08
-3.38685e-13
-2.45735e-08
-4.58e-13
2.92288e-11
-7.51339e-09
5.94831e-12
-4.27352e-10
-2.28657e-08
-9.47932e-12
1.28963e-10
-3.80927e-08
1.45961e-12
1.4982e-09
-5.05069e-08
-4.39229e-13
-2.3077e-08
-5.18302e-13
-2.8386e-11
-7.49662e-09
5.87048e-12
-6.92065e-10
-2.21948e-08
-5.28248e-12
5.93029e-10
-3.93759e-08
-1.93136e-12
2.00422e-09
-5.19204e-08
-3.47754e-14
-2.10778e-08
-7.07335e-13
-1.29383e-10
-7.37679e-09
3.93209e-12
-6.81587e-10
-2.1632e-08
-7.16921e-12
9.86671e-10
-4.10473e-08
1.83114e-12
1.78809e-09
-5.27235e-08
-3.86965e-13
-1.9292e-08
-1.97215e-13
-2.23676e-10
-7.1766e-09
1.11243e-11
-3.7423e-10
-2.14608e-08
-1.22335e-11
6.16104e-10
-4.20378e-08
1.57253e-13
3.96333e-10
-5.25047e-08
-1.65768e-13
-1.8896e-08
-5.68509e-14
-4.09835e-10
-6.77559e-09
3.9236e-12
-7.64671e-10
-2.10993e-08
-3.88168e-12
-1.48498e-09
-4.13193e-08
-2.96954e-13
-1.73675e-09
-5.22558e-08
-4.00089e-13
-2.06352e-08
-1.87966e-13
-5.69687e-10
-6.20452e-09
-6.84895e-13
-1.64615e-09
-2.00256e-08
3.04573e-13
-4.91207e-09
-3.80544e-08
4.29349e-14
-6.71509e-09
-5.046e-08
-7.52615e-13
-2.73652e-08
-1.45101e-12
-1.10797e-09
-5.10083e-09
1.54773e-12
-4.29563e-09
-1.68383e-08
-2.0894e-12
-1.07411e-08
-3.16193e-08
-1.02664e-12
-1.58635e-08
-4.53205e-08
2.00734e-12
-4.32159e-08
1.04788e-12
-1.86828e-09
-3.23298e-09
-8.44618e-14
-8.61525e-09
-1.00906e-08
-4.41446e-14
-2.22475e-08
-1.79842e-08
3.20576e-13
-4.2079e-08
-2.54863e-08
3.56711e-13
-5.99866e-08
-2.53054e-08
3.13014e-13
-4.99379e-08
-1.00416e-08
8.07639e-13
-3.94558e-08
-1.04999e-08
-2.03913e-12
-3.22902e-08
-7.14836e-09
2.05833e-12
-2.64548e-08
-5.84376e-09
-1.03175e-12
-2.19903e-08
-4.46678e-09
-1.77258e-13
-1.83411e-08
-3.62419e-09
2.78093e-12
-1.54603e-08
-2.89537e-09
-1.54426e-12
-1.30868e-08
-2.3802e-09
-8.60038e-13
-1.11379e-08
-1.94825e-09
5.12466e-14
-9.5229e-09
-1.6148e-09
2.35829e-14
-8.18946e-09
-1.33694e-09
-4.54983e-13
-7.07357e-09
-1.1135e-09
3.28666e-13
-6.14059e-09
-9.28739e-10
4.97311e-13
-5.36136e-09
-7.7754e-10
2.20247e-13
-4.70679e-09
-6.53273e-10
1.43433e-13
-4.15299e-09
-5.51396e-10
2.90732e-13
-3.68278e-09
-4.67818e-10
2.89302e-13
-3.28132e-09
-3.99156e-10
2.84299e-13
-2.93582e-09
-3.42688e-10
3.34542e-13
-2.638e-09
-2.96088e-10
2.09766e-13
-2.37864e-09
-2.57502e-10
2.14107e-13
-2.15127e-09
-2.25414e-10
2.26634e-13
-1.95062e-09
-1.986e-10
2.42937e-13
-1.77182e-09
-1.76138e-10
3.15247e-13
-1.61178e-09
-1.57214e-10
3.29995e-13
-1.41213e-10
2.31274e-13
-1.13386e-09
-2.09934e-09
-2.24405e-14
-4.97156e-09
-6.25289e-09
-1.29295e-13
-1.22709e-08
-1.06824e-08
2.31266e-13
-2.29176e-08
-1.48377e-08
2.44228e-13
-3.17952e-08
-1.6432e-08
-4.74489e-13
-2.94873e-08
-1.23582e-08
-9.86067e-13
-2.86751e-08
-1.13026e-08
1.08141e-12
-2.71065e-08
-8.7214e-09
-4.11991e-13
-2.52025e-08
-7.7561e-09
-1.06912e-12
-2.33486e-08
-6.32869e-09
-8.68472e-13
-2.14302e-08
-5.5264e-09
1.79319e-12
-1.9667e-08
-4.67501e-09
-1.76984e-12
-1.79897e-08
-4.06684e-09
-1.12138e-12
-1.6434e-08
-3.50175e-09
2.15205e-13
-1.49979e-08
-3.04931e-09
1.69263e-13
-1.36903e-08
-2.64901e-09
-5.47794e-13
-1.24899e-08
-2.31211e-09
2.6912e-13
-1.13961e-08
-2.01865e-09
4.62856e-13
-1.04055e-08
-1.76714e-09
1.47603e-13
-9.50845e-09
-1.54963e-09
8.48612e-14
-8.69543e-09
-1.36241e-09
2.55724e-13
-7.95998e-09
-1.20112e-09
2.69831e-13
-7.29481e-09
-1.06219e-09
2.74356e-13
-6.69216e-09
-9.42616e-10
3.33272e-13
-6.14699e-09
-8.39598e-10
2.09763e-13
-5.65186e-09
-7.50803e-10
2.18194e-13
-5.20113e-09
-6.74183e-10
2.34015e-13
-4.78976e-09
-6.07931e-10
2.51062e-13
-4.41253e-09
-5.50677e-10
3.2746e-13
-4.06585e-09
-5.01035e-10
3.41148e-13
-4.57964e-10
2.34743e-13
-6.54456e-10
-1.44487e-09
-5.46247e-14
-2.46705e-09
-4.44052e-09
-1.17018e-13
-5.62615e-09
-7.52305e-09
-2.88495e-14
-1.06457e-08
-9.82315e-09
-6.09691e-13
-1.65136e-08
-1.05573e-08
8.24547e-13
-1.94301e-08
-9.43964e-09
2.50081e-13
-2.10785e-08
-9.6632e-09
-1.01619e-12
-2.13261e-08
-8.45651e-09
2.12687e-12
-2.11348e-08
-7.94772e-09
-1.31583e-13
-2.04987e-08
-6.98145e-09
-1.808e-12
-1.96747e-08
-6.33336e-09
1.82379e-12
-1.87601e-08
-5.6041e-09
-1.52367e-12
-1.78034e-08
-5.02955e-09
-8.09071e-13
-1.6829e-08
-4.47728e-09
-1.28836e-13
-1.58657e-08
-4.01152e-09
1.06108e-13
-1.49325e-08
-3.588e-09
-6.98088e-13
-1.40232e-08
-3.2196e-09
2.71766e-13
-1.31481e-08
-2.88988e-09
4.61817e-13
-1.23152e-08
-2.5992e-09
1.3951e-13
-1.15236e-08
-2.34054e-09
8.50682e-14
-1.07728e-08
-2.11125e-09
2.50473e-13
-1.0064e-08
-1.90778e-09
2.68061e-13
-9.3968e-09
-1.72724e-09
2.73873e-13
-8.76936e-09
-1.56733e-09
3.31954e-13
-8.18168e-09
-1.42563e-09
2.09295e-13
-7.6305e-09
-1.30018e-09
2.16464e-13
-7.11364e-09
-1.18914e-09
2.30749e-13
-6.62882e-09
-1.09077e-09
2.45785e-13
-6.17303e-09
-1.00385e-09
3.20392e-13
-5.74441e-09
-9.26879e-10
3.31277e-13
-8.5878e-10
2.2576e-13
-5.80075e-10
-8.64769e-10
-4.46508e-14
-2.37515e-09
-2.64568e-09
-7.93941e-14
-5.39675e-09
-4.50087e-09
1.23332e-14
-8.92735e-09
-6.29593e-09
-4.35715e-13
-1.18894e-08
-7.59072e-09
5.36064e-13
-1.35245e-08
-7.80551e-09
-9.97699e-14
-1.51173e-08
-8.06861e-09
2.28518e-13
-1.59349e-08
-7.62708e-09
1.49187e-12
-1.65063e-08
-7.37989e-09
-5.06845e-13
-1.66952e-08
-6.80682e-09
-1.60743e-12
-1.665e-08
-6.37107e-09
7.89462e-13
-1.64277e-08
-5.83678e-09
-1.09526e-12
-1.6077e-08
-5.38428e-09
-5.3803e-13
-1.56262e-08
-4.92691e-09
1.33465e-13
-1.5112e-08
-4.52305e-09
2.87613e-13
-1.45625e-08
-4.14275e-09
-6.36171e-13
-1.39786e-08
-3.80104e-09
3.47648e-13
-1.33787e-08
-3.48632e-09
4.2375e-13
-1.27758e-08
-3.20156e-09
9.33907e-14
-1.21737e-08
-2.94198e-09
6.47516e-14
-1.1577e-08
-2.70626e-09
2.29506e-13
-1.09905e-08
-2.49228e-09
2.48707e-13
-1.04177e-08
-2.29806e-09
2.5383e-13
-9.86029e-09
-2.12224e-09
3.11254e-13
-9.32138e-09
-1.96307e-09
1.92444e-13
-8.8007e-09
-1.81922e-09
2.01241e-13
-8.2987e-09
-1.68936e-09
2.16251e-13
-7.81549e-09
-1.57214e-09
2.31184e-13
-7.35014e-09
-1.46672e-09
3.05301e-13
-6.9026e-09
-1.37176e-09
3.14997e-13
-1.2864e-09
2.12839e-13
-2.56423e-10
-6.0831e-10
-4.2407e-14
-1.02145e-09
-1.88061e-09
5.28057e-15
-2.33917e-09
-3.1816e-09
1.48432e-13
-4.27895e-09
-4.36047e-09
-5.56824e-13
-6.60035e-09
-5.26653e-09
3.14499e-13
-8.6538e-09
-5.7553e-09
-3.84662e-13
-1.04811e-08
-6.24295e-09
-1.7477e-13
-1.18205e-08
-6.28604e-09
3.22898e-13
-1.28607e-08
-6.34459e-09
-7.0027e-13
-1.35427e-08
-6.14141e-09
-1.87326e-12
-1.3956e-08
-5.94818e-09
1.03384e-12
-1.41617e-08
-5.64097e-09
-9.95277e-13
-1.42037e-08
-5.34713e-09
-6.80864e-13
-1.411e-08
-5.02226e-09
-2.00098e-13
-1.3918e-08
-4.71367e-09
1.35462e-13
-1.36584e-08
-4.40868e-09
-7.7332e-13
-1.33331e-08
-4.12228e-09
5.25332e-13
-1.29655e-08
-3.85051e-09
4.43026e-13
-1.25686e-08
-3.59756e-09
1.35121e-13
-1.21481e-08
-3.36142e-09
1.28882e-13
-1.17102e-08
-3.14219e-09
2.52313e-13
-1.12613e-08
-2.93918e-09
2.57912e-13
-1.08061e-08
-2.75128e-09
2.55676e-13
-1.03478e-08
-2.57812e-09
3.08935e-13
-9.89074e-09
-2.41861e-09
1.92176e-13
-9.43625e-09
-2.27209e-09
1.98074e-13
-8.98614e-09
-2.13774e-09
2.09221e-13
-8.5419e-09
-2.01462e-09
2.19944e-13
-8.10389e-09
-1.90233e-09
2.9348e-13
-7.67335e-09
-1.79976e-09
2.99363e-13
-1.70633e-09
1.99519e-13
-2.47264e-10
-3.61161e-10
-4.45349e-15
-9.71337e-10
-1.15509e-09
1.88314e-13
-2.14762e-09
-2.0063e-09
-1.60311e-13
-3.65198e-09
-2.85967e-09
-4.58311e-13
-5.23865e-09
-3.67632e-09
4.00837e-13
-6.69435e-09
-4.30338e-09
-4.43875e-13
-8.0882e-09
-4.85015e-09
-1.02278e-13
-9.23156e-09
-5.13383e-09
1.15414e-12
-1.02327e-08
-5.3464e-09
-4.4921e-13
-1.10205e-08
-5.36703e-09
-1.48443e-12
-1.16109e-08
-5.34087e-09
1.85721e-12
-1.20529e-08
-5.21182e-09
-1.28201e-12
-1.23454e-08
-5.06021e-09
-7.57005e-13
-1.25052e-08
-4.86317e-09
-1.17054e-13
-1.2558e-08
-4.65971e-09
9.82301e-14
-1.2528e-08
-4.44467e-09
-7.57009e-13
-1.24153e-08
-4.23103e-09
5.12527e-13
-1.22431e-08
-4.02041e-09
3.01475e-13
-1.20239e-08
-3.81682e-09
2.04863e-14
-1.17641e-08
-3.62074e-09
6.34426e-14
-1.1471e-08
-3.43367e-09
2.07339e-13
-1.11518e-08
-3.25653e-09
2.32129e-13
-1.08122e-08
-3.08913e-09
2.39527e-13
-1.04558e-08
-2.93211e-09
2.92431e-13
-1.0088e-08
-2.78507e-09
1.79088e-13
-9.71057e-09
-2.648e-09
1.8309e-13
-9.32615e-09
-2.52058e-09
1.90033e-13
-8.93688e-09
-2.40228e-09
2.03214e-13
-8.54384e-09
-2.29313e-09
2.75334e-13
-8.14899e-09
-2.19223e-09
2.79696e-13
-2.09928e-09
1.82716e-13
-1.26576e-10
-2.34589e-10
-4.68373e-15
-5.13429e-10
-7.68746e-10
-6.0699e-14
-1.16683e-09
-1.3507e-09
2.47755e-13
-2.0821e-09
-1.94286e-09
1.55333e-13
-3.21664e-09
-2.54656e-09
-5.90195e-13
-4.43242e-09
-3.08834e-09
-9.42549e-14
-5.6814e-09
-3.6036e-09
-2.67669e-13
-6.8299e-09
-3.97565e-09
1.26057e-12
-7.89481e-09
-4.28429e-09
-4.41486e-13
-8.80787e-09
-4.46e-09
-6.62604e-13
-9.55347e-09
-4.57738e-09
1.99596e-12
-1.01725e-08
-4.60375e-09
-1.11071e-12
-1.06446e-08
-4.5873e-09
-3.34761e-14
-1.09901e-08
-4.51969e-09
-2.10073e-13
-1.12229e-08
-4.42563e-09
1.40255e-13
-1.13645e-08
-4.30658e-09
-4.35776e-13
-1.14163e-08
-4.17462e-09
6.06207e-13
-1.13986e-08
-4.03449e-09
4.76393e-13
-1.13238e-08
-3.89025e-09
2.03512e-13
-1.1198e-08
-3.74462e-09
2.17626e-13
-1.10291e-08
-3.60027e-09
3.01596e-13
-1.0824e-08
-3.45933e-09
2.92167e-13
-1.05886e-08
-3.32244e-09
2.76617e-13
-1.0327e-08
-3.19123e-09
3.10434e-13
-1.00446e-08
-3.066e-09
1.91933e-13
-9.74365e-09
-2.9474e-09
1.8573e-13
-9.42706e-09
-2.83563e-09
1.841e-13
-9.09727e-09
-2.73054e-09
1.93124e-13
-8.75573e-09
-2.63255e-09
2.61552e-13
-8.40474e-09
-2.54097e-09
2.63048e-13
-2.45575e-09
1.67628e-13
-1.14881e-10
-1.19717e-10
-6.0364e-15
-4.58964e-10
-4.25091e-10
-4.96478e-14
-1.01917e-09
-7.89489e-10
9.76554e-14
-1.76439e-09
-1.19699e-09
4.91455e-14
-2.65053e-09
-1.66398e-09
-4.41507e-13
-3.59715e-09
-2.13945e-09
2.62172e-13
-4.59056e-09
-2.61491e-09
-5.23904e-13
-5.53836e-09
-3.01407e-09
1.71553e-12
-6.46514e-09
-3.36593e-09
-1.08288e-12
-7.30537e-09
-3.62857e-09
-9.64283e-13
-8.03217e-09
-3.8365e-09
1.56209e-12
-8.68151e-09
-3.96835e-09
-1.46384e-12
-9.22009e-09
-4.05287e-09
-5.81174e-13
-9.65571e-09
-4.08779e-09
-4.1082e-13
-9.99504e-09
-4.08674e-09
-1.84873e-14
-1.02509e-08
-4.05395e-09
-3.87612e-13
-1.04218e-08
-3.99958e-09
5.70848e-13
-1.05215e-08
-3.93017e-09
6.05222e-13
-1.05612e-08
-3.84878e-09
2.79236e-13
-1.05454e-08
-3.75847e-09
2.59837e-13
-1.04805e-08
-3.66252e-09
3.43639e-13
-1.03731e-08
-3.56404e-09
3.34005e-13
-1.02287e-08
-3.46432e-09
3.11339e-13
-1.00516e-08
-3.36571e-09
3.24382e-13
-9.84702e-09
-3.26908e-09
1.95297e-13
-9.61731e-09
-3.17564e-09
1.80455e-13
-9.36543e-09
-3.08607e-09
1.71838e-13
-9.09398e-09
-3.00059e-09
1.77212e-13
-8.80455e-09
-2.92001e-09
2.44087e-13
-8.49962e-09
-2.84381e-09
2.44947e-13
-2.77217e-09
1.52148e-13
-7.1194e-11
-4.85239e-11
-4.65751e-15
-2.90429e-10
-2.06269e-10
-4.44726e-14
-6.53844e-10
-4.25056e-10
1.06616e-13
-1.15703e-09
-6.92748e-10
1.04351e-13
-1.7943e-09
-1.02945e-09
-3.42199e-13
-2.53669e-09
-1.40284e-09
-6.79657e-13
-3.35682e-09
-1.79266e-09
2.56835e-13
-4.20744e-09
-2.16067e-09
4.66852e-13
-5.07603e-09
-2.50427e-09
-9.31663e-13
-5.89973e-09
-2.80596e-09
-6.70582e-14
-6.64158e-09
-3.07357e-09
2.3515e-12
-7.33134e-09
-3.28746e-09
-8.7417e-13
-7.93264e-09
-3.45733e-09
-7.30936e-13
-8.43718e-09
-3.57875e-09
4.59338e-13
-8.85751e-09
-3.66374e-09
2.94996e-13
-9.20038e-09
-3.71384e-09
-3.80517e-13
-9.46386e-09
-3.73647e-09
3.29158e-15
-9.65534e-09
-3.73704e-09
1.83216e-13
-9.78583e-09
-3.71841e-09
-1.15719e-14
-9.85943e-09
-3.68505e-09
-3.50121e-14
-9.881e-09
-3.64019e-09
1.01429e-13
-9.85639e-09
-3.5875e-09
1.47132e-13
-9.7905e-09
-3.52874e-09
1.95977e-13
-9.68731e-09
-3.46686e-09
2.53869e-13
-9.55184e-09
-3.40329e-09
1.63896e-13
-9.38647e-09
-3.33969e-09
1.64198e-13
-9.19408e-09
-3.27713e-09
1.59388e-13
-8.97726e-09
-3.21612e-09
1.64874e-13
-8.73765e-09
-3.15776e-09
2.30408e-13
-8.47778e-09
-3.10171e-09
2.30659e-13
-3.04832e-09
1.40095e-13
-5.95112e-11
1.09869e-11
-2.55479e-15
-2.43246e-10
-2.2888e-11
-2.9287e-14
-5.46727e-10
-1.20282e-10
1.5031e-13
-9.66317e-10
-2.72111e-10
1.21736e-13
-1.49549e-09
-5.02339e-10
-2.71616e-13
-2.11286e-09
-7.89943e-10
-5.56094e-13
-2.79846e-09
-1.1106e-09
-3.81894e-13
-3.49858e-09
-1.43822e-09
2.67983e-12
-4.24698e-09
-1.77147e-09
-1.85471e-12
-4.96783e-09
-2.08814e-09
-3.5529e-13
-5.64685e-09
-2.38978e-09
5.88507e-13
-6.29308e-09
-2.64751e-09
-6.49003e-13
-6.88446e-09
-2.87435e-09
-1.00763e-12
-7.40363e-09
-3.05687e-09
2.41614e-13
-7.85758e-09
-3.20801e-09
1.92787e-13
-8.24896e-09
-3.32642e-09
-4.84206e-13
-8.57214e-09
-3.41477e-09
-1.18407e-13
-8.82862e-09
-3.47814e-09
2.57604e-13
-9.02835e-09
-3.51918e-09
-3.48539e-14
-9.1728e-09
-3.54142e-09
-9.68319e-14
-9.26487e-09
-3.5477e-09
5.93132e-14
-9.30932e-09
-3.54201e-09
1.28298e-13
-9.31017e-09
-3.5264e-09
1.89211e-13
-9.27095e-09
-3.50412e-09
2.41401e-13
-9.19617e-09
-3.47688e-09
1.54086e-13
-9.08804e-09
-3.44662e-09
1.48528e-13
-8.94928e-09
-3.4147e-09
1.41306e-13
-8.7824e-09
-3.38186e-09
1.46604e-13
-8.58901e-09
-3.34946e-09
2.1149e-13
-8.37163e-09
-3.31728e-09
2.12216e-13
-3.28582e-09
1.25319e-13
-3.61557e-11
4.71546e-11
-6.52593e-16
-1.54243e-10
9.49648e-11
-1.84269e-14
-3.60727e-10
8.66076e-11
5.48617e-14
-6.62965e-10
3.08848e-11
9.45365e-14
-1.06907e-09
-9.59732e-11
2.34373e-14
-1.57089e-09
-2.90488e-10
-3.07186e-13
-2.1501e-09
-5.40512e-10
-1.08051e-12
-2.76412e-09
-8.21795e-10
3.89971e-13
-3.41422e-09
-1.12318e-09
-3.36362e-13
-4.07221e-09
-1.43305e-09
-2.47411e-13
-4.70543e-09
-1.73893e-09
1.91821e-12
-5.33799e-09
-2.02634e-09
-1.15684e-12
-5.92437e-09
-2.28934e-09
-2.81486e-13
-6.46306e-09
-2.52248e-09
-4.4008e-13
-6.94508e-09
-2.72646e-09
-2.66628e-14
-7.37233e-09
-2.90103e-09
-2.29001e-13
-7.74081e-09
-3.04749e-09
-6.16358e-14
-8.04785e-09
-3.16769e-09
3.89311e-13
-8.30169e-09
-3.26444e-09
1.40769e-13
-8.50254e-09
-3.34006e-09
6.37427e-14
-8.65213e-09
-3.39689e-09
1.59599e-13
-8.75399e-09
-3.43862e-09
1.87165e-13
-8.8113e-09
-3.46737e-09
2.18621e-13
-8.82696e-09
-3.48642e-09
2.50192e-13
-8.80495e-09
-3.49766e-09
1.59248e-13
-8.74719e-09
-3.50319e-09
1.45744e-13
-8.65619e-09
-3.50459e-09
1.32233e-13
-8.53427e-09
-3.50274e-09
1.34031e-13
-8.383e-09
-3.49916e-09
1.95807e-13
-8.20484e-09
-3.49377e-09
1.95935e-13
-3.48715e-09
1.1274e-13
-3.1064e-11
7.82304e-11
7.5414e-16
-1.33857e-10
1.97396e-10
-3.76348e-14
-3.12431e-10
2.65769e-10
7.36882e-14
-5.69362e-10
2.88549e-10
9.36594e-14
-9.12108e-10
2.46421e-10
-4.15193e-14
-1.33415e-09
1.29258e-10
-2.8115e-13
-1.8193e-09
-5.56156e-11
-3.86638e-14
-2.34123e-09
-2.94989e-10
6.56377e-13
-2.90386e-09
-5.704e-10
-1.21864e-12
-3.47849e-09
-8.62209e-10
-4.26051e-13
-4.04822e-09
-1.16372e-09
6.23812e-13
-4.62339e-09
-1.45919e-09
-8.27475e-13
-5.17342e-09
-1.74284e-09
-4.86352e-13
-5.69162e-09
-2.00609e-09
-2.45182e-13
-6.1696e-09
-2.248e-09
2.67972e-14
-6.60643e-09
-2.4663e-09
-2.79835e-13
-6.99533e-09
-2.65957e-09
-7.74216e-14
-7.33294e-09
-2.82813e-09
2.19909e-13
-7.62318e-09
-2.97381e-09
5.81699e-14
-7.86504e-09
-3.09805e-09
1.49179e-14
-8.05885e-09
-3.20234e-09
9.74643e-14
-8.20664e-09
-3.28978e-09
1.32746e-13
-8.31045e-09
-3.36229e-09
1.68004e-13
-8.37233e-09
-3.42292e-09
2.04405e-13
-8.39552e-09
-3.47353e-09
1.25714e-13
-8.38155e-09
-3.51623e-09
1.18068e-13
-8.33258e-09
-3.55265e-09
1.08595e-13
-8.25071e-09
-3.58375e-09
1.13912e-13
-8.13735e-09
-3.61112e-09
1.76311e-13
-7.99487e-09
-3.63473e-09
1.78067e-13
-3.65521e-09
1.00135e-13
-2.33239e-11
1.01568e-10
4.75141e-16
-1.00783e-10
2.74467e-10
-4.42502e-14
-2.34977e-10
4.00526e-10
6.61563e-14
-4.29211e-10
4.82684e-10
-9.23383e-15
-6.90336e-10
5.06324e-10
-1.44827e-13
-1.01494e-09
4.57412e-10
4.02752e-13
-1.41316e-09
3.36335e-10
-7.19806e-13
-1.85695e-09
1.53868e-10
7.05831e-13
-2.35087e-09
-7.60555e-11
-8.23884e-14
-2.88075e-09
-3.42042e-10
-1.08753e-12
-3.41003e-09
-6.28167e-10
6.58447e-13
-3.95435e-09
-9.2265e-10
-8.19336e-13
-4.48218e-09
-1.21607e-09
-2.01142e-13
-4.99018e-09
-1.50067e-09
-2.71448e-13
-5.46697e-09
-1.77092e-09
3.90957e-14
-5.91046e-09
-2.02366e-09
-1.05141e-13
-6.31339e-09
-2.25585e-09
1.35539e-13
-6.6731e-09
-2.46642e-09
2.56679e-13
-6.99031e-09
-2.65579e-09
1.25516e-13
-7.26312e-09
-2.82424e-09
1.22181e-13
-7.4914e-09
-2.97289e-09
1.50516e-13
-7.6759e-09
-3.104e-09
1.58765e-13
-7.81776e-09
-3.21913e-09
1.69533e-13
-7.9182e-09
-3.32091e-09
1.95198e-13
-7.97973e-09
-3.41108e-09
1.19925e-13
-8.00346e-09
-3.49164e-09
1.10142e-13
-7.99114e-09
-3.56414e-09
9.80396e-14
-7.94458e-09
-3.62953e-09
1.02276e-13
-7.86502e-09
-3.6894e-09
1.62678e-13
-7.75468e-09
-3.74366e-09
1.65151e-13
-3.79297e-09
9.1968e-14
-1.9755e-11
1.21334e-10
-2.60803e-16
-8.51777e-11
3.39446e-10
-4.3456e-14
-1.99288e-10
5.1543e-10
9.30555e-14
-3.64918e-10
6.4997e-10
2.01634e-13
-5.90484e-10
7.28322e-10
-4.23248e-13
-8.7048e-10
7.38651e-10
1.3976e-13
-1.21203e-09
6.76353e-10
-1.73645e-13
-1.59801e-09
5.43729e-10
5.60065e-13
-2.03399e-09
3.5264e-10
-9.37802e-13
-2.50022e-09
1.16108e-10
-9.05592e-13
-2.97055e-09
-1.50975e-10
7.44829e-13
-3.46226e-09
-4.37265e-10
-6.46435e-13
-3.94774e-09
-7.32487e-10
-2.73244e-13
-4.42312e-09
-1.02649e-09
-1.62355e-13
-4.87903e-09
-1.31515e-09
-3.0062e-14
-5.31131e-09
-1.59223e-09
-1.3768e-13
-5.7126e-09
-1.85398e-09
8.15583e-14
-6.07991e-09
-2.09874e-09
6.32005e-14
-6.41126e-09
-2.32473e-09
-1.77627e-14
-6.70389e-09
-2.53154e-09
1.01632e-14
-6.95661e-09
-2.71987e-09
4.91202e-14
-7.16886e-09
-2.89114e-09
8.20627e-14
-7.34073e-09
-3.04647e-09
1.09144e-13
-7.47258e-09
-3.18793e-09
1.46458e-13
-7.56608e-09
-3.31695e-09
8.71483e-14
-7.62181e-09
-3.43525e-09
8.52076e-14
-7.64109e-09
-3.54421e-09
7.84898e-14
-7.62536e-09
-3.64461e-09
8.68326e-14
-7.57564e-09
-3.73795e-09
1.4755e-13
-7.49397e-09
-3.82404e-09
1.51521e-13
-3.90344e-09
8.37382e-14
-1.5525e-11
1.36854e-10
-4.80312e-16
-6.6422e-11
3.90032e-10
-3.04193e-14
-1.56868e-10
6.06482e-10
7.70938e-14
-2.91898e-10
7.85244e-10
2.2025e-14
-4.77236e-10
9.11073e-10
-2.99605e-13
-7.10366e-10
9.7312e-10
1.54941e-13
-9.98281e-10
9.61824e-10
-2.90379e-13
-1.32629e-09
8.77678e-10
7.96374e-13
-1.7054e-09
7.29843e-10
-3.2732e-13
-2.11823e-09
5.27181e-10
-2.03013e-13
-2.54422e-09
2.84138e-10
1.02838e-12
-2.99814e-09
1.32417e-11
-3.40239e-13
-3.45167e-09
-2.76098e-10
2.5235e-13
-3.90553e-09
-5.74994e-10
-2.52807e-13
-4.3454e-09
-8.74719e-10
7.32492e-14
-4.76813e-09
-1.169e-09
4.76859e-14
-5.16746e-09
-1.45391e-09
1.2771e-13
-5.53798e-09
-1.72634e-09
2.47645e-13
-5.87804e-09
-1.98331e-09
1.82842e-13
-6.18429e-09
-2.2238e-09
1.78233e-13
-6.4548e-09
-2.44814e-09
1.57664e-13
-6.68807e-09
-2.65669e-09
1.48514e-13
-6.88345e-09
-2.85001e-09
1.43409e-13
-7.04055e-09
-3.02958e-09
1.58963e-13
-7.16034e-09
-3.19645e-09
9.66725e-14
-7.2429e-09
-3.35201e-09
8.74717e-14
-7.2891e-09
-3.49737e-09
7.57765e-14
-7.3e-09
-3.6331e-09
8.14191e-14
-7.27638e-09
-3.76047e-09
1.38588e-13
-7.22008e-09
-3.87913e-09
1.4201e-13
-3.9895e-09
7.84398e-14
-1.3288e-11
1.5014e-10
-3.15219e-16
-5.6688e-11
4.3309e-10
-3.42641e-14
-1.3441e-10
6.84887e-10
8.6958e-14
-2.51884e-10
9.02773e-10
3.58256e-15
-4.13574e-10
1.07168e-09
-1.18752e-13
-6.17632e-10
1.17935e-09
2.52786e-13
-8.70071e-10
1.21145e-09
-3.27057e-13
-1.15137e-09
1.17168e-09
1.56198e-12
-1.48835e-09
1.06002e-09
-8.50935e-13
-1.85319e-09
8.89299e-10
-2.85403e-13
-2.23232e-09
6.71334e-10
9.1555e-13
-2.64429e-09
4.16849e-10
-8.59202e-13
-3.0598e-09
1.37438e-10
-2.46228e-13
-3.47954e-09
-1.57586e-10
-2.54428e-13
-3.89333e-09
-4.60556e-10
8.55157e-14
-4.29753e-09
-7.6429e-10
8.17947e-14
-4.68649e-09
-1.06467e-09
1.06879e-13
-5.05172e-09
-1.35772e-09
4.30401e-13
-5.39315e-09
-1.64026e-09
2.50193e-13
-5.70628e-09
-1.90952e-09
1.68186e-13
-5.98796e-09
-2.16543e-09
1.50599e-13
-6.23596e-09
-2.40756e-09
1.46057e-13
-6.44887e-09
-2.63602e-09
1.43338e-13
-6.62567e-09
-2.85158e-09
1.48859e-13
-6.7666e-09
-3.05486e-09
8.88112e-14
-6.87127e-09
-3.24674e-09
7.74794e-14
-6.94007e-09
-3.42801e-09
6.62347e-14
-6.97369e-09
-3.59892e-09
7.33639e-14
-6.97266e-09
-3.76047e-09
1.29307e-13
-6.93857e-09
-3.91207e-09
1.33048e-13
-4.05393e-09
7.38519e-14
-1.12577e-11
1.61382e-10
-1.2728e-15
-4.81142e-11
4.69763e-10
-1.79553e-14
-1.14573e-10
7.51502e-10
2.31477e-14
-2.13982e-10
1.00319e-09
1.16798e-13
-3.51624e-10
1.20883e-09
-4.78515e-14
-5.3068e-10
1.35392e-09
-5.20351e-13
-7.42802e-10
1.42491e-09
1.38383e-13
-9.88107e-10
1.41977e-09
4.41086e-13
-1.28029e-09
1.34511e-09
-9.36103e-13
-1.59757e-09
1.20691e-09
4.0722e-14
-1.93589e-09
1.01729e-09
8.63945e-13
-2.30821e-09
7.86471e-10
-2.88187e-13
-2.69263e-09
5.22231e-10
-3.55801e-14
-3.0861e-09
2.34532e-10
-1.77774e-13
-3.47991e-09
-6.79169e-11
-1.72571e-13
-3.86948e-09
-3.77608e-10
-3.72628e-13
-4.24991e-09
-6.89606e-10
-6.14152e-13
-4.60985e-09
-9.98741e-10
-1.60265e-13
-4.94999e-09
-1.30157e-09
-1.75637e-13
-5.26639e-09
-1.59502e-09
-2.30571e-13
-5.55488e-09
-1.87821e-09
-1.46473e-13
-5.81291e-09
-2.15017e-09
-7.22306e-14
-6.03847e-09
-2.41046e-09
9.82416e-15
-6.23019e-09
-2.65936e-09
6.93069e-14
-6.38766e-09
-2.89699e-09
5.56865e-14
-6.51013e-09
-3.12378e-09
6.25483e-14
-6.59756e-09
-3.34007e-09
5.89208e-14
-6.65029e-09
-3.54568e-09
6.85032e-14
-6.66855e-09
-3.74122e-09
1.22792e-13
-6.65372e-09
-3.92581e-09
1.26515e-13
-4.09936e-09
7.11044e-14
-9.72339e-12
1.71116e-10
1.40713e-15
-4.15437e-11
5.01045e-10
-6.03017e-14
-9.73803e-11
8.08488e-10
1.40852e-13
-1.8099e-10
1.08888e-09
2.57923e-13
-3.01836e-10
1.32578e-09
-4.68884e-13
-4.54067e-10
1.5068e-09
1.1311e-14
-6.42858e-10
1.61222e-09
-1.16017e-13
-8.53074e-10
1.64386e-09
1.71917e-12
-1.11365e-09
1.59624e-09
-1.15908e-12
-1.39436e-09
1.48871e-09
1.44422e-13
-1.69738e-09
1.32755e-09
8.18228e-13
-2.03749e-09
1.11836e-09
-8.69659e-13
-2.3925e-09
8.72169e-10
-6.12263e-13
-2.75688e-09
5.98014e-10
-1.37617e-13
-3.12703e-09
3.01208e-10
-1.31912e-13
-3.497e-09
-9.1406e-12
-2.03643e-13
-3.86369e-09
-3.27384e-10
-5.0715e-13
-4.21365e-09
-6.47813e-10
5.08734e-14
-4.54838e-09
-9.6699e-10
-1.99638e-14
-4.8637e-09
-1.28097e-09
-1.54089e-13
-5.1547e-09
-1.58801e-09
-9.68084e-14
-5.41846e-09
-1.88673e-09
-4.32463e-14
-5.6525e-09
-2.17623e-09
2.4316e-14
-5.85503e-09
-2.45629e-09
6.57814e-14
-6.02511e-09
-2.72654e-09
4.96801e-14
-6.1616e-09
-2.98688e-09
5.23889e-14
-6.26411e-09
-3.23714e-09
4.84493e-14
-6.33262e-09
-3.47673e-09
5.87795e-14
-6.36713e-09
-3.70582e-09
1.11266e-13
-6.36879e-09
-3.92316e-09
1.14834e-13
-4.12832e-09
6.32595e-14
-8.21712e-12
1.79325e-10
1.06063e-16
-3.40535e-11
5.26888e-10
2.81173e-15
-7.99433e-11
8.5421e-10
-1.55289e-14
-1.48045e-10
1.15728e-09
4.05021e-14
-2.44071e-10
1.42135e-09
-5.55849e-14
-3.68599e-10
1.63135e-09
-2.91506e-15
-5.29684e-10
1.76865e-09
-5.68354e-13
-7.19709e-10
1.83355e-09
-2.79674e-14
-9.45584e-10
1.82209e-09
-5.91672e-14
-1.19965e-09
1.74538e-09
3.01883e-13
-1.47991e-09
1.61108e-09
3.94614e-13
-1.791e-09
1.42729e-09
-2.40453e-13
-2.12002e-09
1.20025e-09
-1.43127e-13
-2.46204e-09
9.39025e-10
-1.07083e-13
-2.81198e-09
6.50811e-10
-1.28439e-14
-3.1638e-09
3.43444e-10
8.94668e-14
-3.51698e-09
2.21518e-11
-3.81404e-13
-3.85653e-09
-3.06084e-10
2.15886e-13
-4.18413e-09
-6.3822e-10
1.55414e-13
-4.49564e-09
-9.69538e-10
-2.04212e-15
-4.78607e-09
-1.29757e-09
5.99439e-15
-5.05217e-09
-1.62044e-09
2.0543e-14
-5.29117e-09
-1.93677e-09
5.63504e-14
-5.50094e-09
-2.24589e-09
7.76401e-14
-5.68008e-09
-2.54694e-09
5.85102e-14
-5.82719e-09
-2.83933e-09
5.43184e-14
-5.94152e-09
-3.12241e-09
4.54225e-14
-6.02277e-09
-3.39508e-09
5.20794e-14
-6.07072e-09
-3.65707e-09
9.98046e-14
-6.08629e-09
-3.90669e-09
1.01822e-13
-4.14315e-09
5.35109e-14
-7.09375e-12
1.86413e-10
2.57712e-16
-2.93775e-11
5.491e-10
-7.09605e-15
-6.76788e-11
8.92682e-10
2.38506e-14
-1.23401e-10
1.21371e-09
9.05007e-14
-2.02958e-10
1.49938e-09
-1.79003e-13
-3.04988e-10
1.73517e-09
2.11127e-13
-4.4008e-10
1.90399e-09
3.22604e-14
-6.06353e-10
2.00072e-09
1.28186e-13
-8.10111e-10
2.02118e-09
-5.60308e-13
-1.04125e-09
1.97701e-09
5.52796e-14
-1.29793e-09
1.87003e-09
2.64676e-13
-1.58481e-09
1.70892e-09
-5.61813e-13
-1.89042e-09
1.50104e-09
-5.65596e-13
-2.20837e-09
1.25693e-09
-5.20062e-14
-2.53759e-09
9.7928e-10
-9.09929e-14
-2.87076e-09
6.77025e-10
2.62681e-14
-3.20828e-09
3.55784e-10
-4.37529e-13
-3.53602e-09
2.25845e-11
6.99963e-14
-3.85454e-09
-3.19102e-10
7.47304e-14
-4.15995e-09
-6.64584e-10
-5.1183e-14
-4.44726e-09
-1.01068e-09
-4.43839e-14
-4.71291e-09
-1.35498e-09
-2.21409e-14
-4.95393e-09
-1.69567e-09
1.54929e-14
-5.16788e-09
-2.03165e-09
4.02533e-14
-5.35304e-09
-2.36159e-09
3.05526e-14
-5.50775e-09
-2.68441e-09
3.06417e-14
-5.63099e-09
-2.99895e-09
2.55836e-14
-5.72223e-09
-3.30362e-09
3.46293e-14
-5.78103e-09
-3.59763e-09
8.13973e-14
-5.80815e-09
-3.87885e-09
8.38225e-14
-4.14606e-09
3.96108e-14
-6.14045e-12
1.92548e-10
5.97537e-17
-2.57684e-11
5.68648e-10
-8.60531e-15
-5.90912e-11
9.25856e-10
-1.61526e-14
-1.05719e-10
1.26161e-09
1.57769e-13
-1.72277e-10
1.56511e-09
-9.28981e-14
-2.56988e-10
1.82336e-09
4.08751e-13
-3.74623e-10
2.01851e-09
-3.49206e-13
-5.1926e-10
2.14697e-09
2.25991e-13
-6.97075e-10
2.20031e-09
1.06605e-13
-9.0803e-10
2.18562e-09
-2.72203e-13
-1.14393e-09
2.10543e-09
-6.39654e-14
-1.40673e-09
1.96923e-09
-3.03411e-13
-1.68737e-09
1.7825e-09
8.18396e-14
-1.98591e-09
1.55394e-09
-1.478e-13
-2.29622e-09
1.28843e-09
-1.07589e-13
-2.61133e-09
9.93952e-10
2.10855e-13
-2.93308e-09
6.75305e-10
-2.27809e-13
-3.24824e-09
3.39627e-10
2.03342e-13
-3.55671e-09
-9.31737e-12
1.77733e-13
-3.85439e-09
-3.66466e-10
6.23254e-14
-4.13662e-09
-7.28322e-10
2.24811e-14
-4.39955e-09
-1.0919e-09
1.86834e-14
-4.6401e-09
-1.45492e-09
2.81449e-14
-4.85561e-09
-1.81581e-09
4.07693e-14
-5.04409e-09
-2.17287e-09
3.1194e-14
-5.20373e-09
-2.52456e-09
2.7301e-14
-5.33329e-09
-2.86921e-09
1.83547e-14
-5.43202e-09
-3.20472e-09
2.40223e-14
-5.49934e-09
-3.52977e-09
6.6434e-14
-5.53583e-09
-3.84175e-09
6.77586e-14
-4.13899e-09
2.64117e-14
-5.32654e-12
1.97872e-10
-4.51554e-16
-2.32393e-11
5.86231e-10
-3.8621e-14
-5.2995e-11
9.56082e-10
6.13034e-14
-9.3917e-11
1.30437e-09
2.25613e-13
-1.53419e-10
1.6219e-09
-3.19837e-13
-2.27594e-10
1.89904e-09
1.80708e-13
-3.28285e-10
2.11844e-09
-8.17314e-14
-4.57442e-10
2.27372e-09
-2.44208e-13
-6.15361e-10
2.35677e-09
-2.09699e-13
-8.05414e-10
2.37148e-09
-4.77099e-13
-1.01859e-09
2.31959e-09
9.60102e-14
-1.25838e-09
2.20787e-09
-1.23409e-13
-1.5166e-09
2.04219e-09
1.66219e-13
-1.79439e-09
1.83049e-09
-1.39894e-13
-2.08526e-09
1.57784e-09
-1.67566e-13
-2.38269e-09
1.29237e-09
9.62553e-14
-2.68833e-09
9.78189e-10
-3.12529e-13
-2.9902e-09
6.42055e-10
4.43784e-14
-3.28755e-09
2.88313e-10
4.25864e-14
-3.57636e-09
-7.80512e-11
-4.06079e-14
-3.85202e-09
-4.5326e-10
-6.23918e-14
-4.11047e-09
-8.33832e-10
-4.39449e-14
-4.34854e-09
-1.2171e-09
-2.29793e-14
-4.56344e-09
-1.60097e-09
-1.50999e-15
-4.75298e-09
-1.98339e-09
3.38358e-17
-4.91524e-09
-2.36234e-09
8.93258e-16
-5.04882e-09
-2.73567e-09
-4.2115e-15
-5.15282e-09
-3.10075e-09
3.33534e-15
-5.22655e-09
-3.45571e-09
4.47986e-14
-5.27044e-09
-3.79746e-09
4.66334e-14
-4.12383e-09
8.96232e-15
-4.48352e-12
2.02351e-10
-4.23294e-16
-2.00527e-11
6.01613e-10
-2.03254e-14
-4.7363e-11
9.83371e-10
-2.29482e-15
-8.57019e-11
1.34335e-09
7.38997e-14
-1.38233e-10
1.67414e-09
-2.39728e-14
-2.04676e-10
1.96709e-09
1.93573e-13
-2.94811e-10
2.20729e-09
-1.45256e-13
-4.09948e-10
2.38639e-09
-2.48642e-13
-5.51326e-10
2.49765e-09
-1.0397e-13
-7.21816e-10
2.53963e-09
-2.7798e-13
-9.16179e-10
2.51364e-09
-2.82142e-14
-1.13479e-09
2.42702e-09
4.02557e-14
-1.3723e-09
2.28254e-09
3.50467e-13
-1.63023e-09
2.08823e-09
2.17125e-15
-1.90163e-09
1.84965e-09
6.91277e-14
-2.18195e-09
1.57417e-09
1.92313e-13
-2.4718e-09
1.26571e-09