/*--------------------------------*- C++ -*----------------------------------*\
| =========                 |                                                 |
| \\      /  F ield         | OpenFOAM: The Open Source CFD Toolbox           |
|  \\    /   O peration     | Version:  v2012                                 |
|   \\  /    A nd           | Website:  www.openfoam.com                      |
|    \\/     M anipulation  |                                                 |
\*---------------------------------------------------------------------------*/
FoamFile
{
    version     2.0;
    format      ascii;
    class       volVectorField;
    location    "0.4";
    object      U;
}
// * * * * * * * * * * * * * * * * * * * * * * * * * * * * * * * * * * * * * //

dimensions      [0 1 -1 0 0 0 0];


internalField   nonuniform List<vector> 
2650
(
(0.346036 -42.3478 -0.00296983)
(-0.103198 -43.242 0.000929647)
(1.03524 -45.4598 -0.00902166)
(-0.703188 -34.8979 0.00614593)
(0.636119 -17.6067 -0.00554186)
(0.274585 -42.9583 -0.00235903)
(-0.138106 -43.9998 0.0012272)
(1.01476 -45.0766 -0.0088515)
(-1.14589 -34.5309 0.0100004)
(1.11635 -17.7805 -0.00974468)
(0.169472 -43.112 -0.00144584)
(0.0159916 -44.86 -0.00012434)
(0.725235 -44.4083 -0.00633039)
(-0.903794 -34.6127 0.00788179)
(1.17661 -17.8315 -0.0102789)
(0.150259 -43.645 -0.0012751)
(0.222509 -45.5322 -0.0019373)
(0.295994 -43.8041 -0.00258923)
(-0.284464 -35.0894 0.00247234)
(0.875192 -17.5095 -0.00765171)
(0.0576891 -44.2113 -0.000489719)
(0.336655 -45.8927 -0.00293993)
(0.00587183 -43.5994 -6.35617e-05)
(0.249769 -35.7141 -0.00219742)
(0.450936 -17.0159 -0.00394829)
(-0.133319 -44.6237 0.00116843)
(0.537471 -46.2436 -0.00469311)
(-0.22996 -43.6003 0.00198692)
(0.569335 -36.2271 -0.00499501)
(0.0752139 -16.4865 -0.000669189)
(-0.283667 -44.9364 0.00247786)
(0.811492 -46.7018 -0.00708806)
(-0.455926 -43.5103 0.00395219)
(0.794209 -36.7138 -0.00696023)
(-0.180012 -16.0094 0.00155464)
(-0.250772 -45.4956 0.00218671)
(0.922905 -47.1747 -0.00806696)
(-0.557001 -43.3782 0.00483062)
(0.881607 -37.1993 -0.00771643)
(-0.277845 -15.5189 0.00240343)
(-0.12417 -46.3241 0.00106382)
(0.777969 -47.5111 -0.00681168)
(-0.514829 -43.2965 0.00446291)
(0.737644 -37.6402 -0.00644743)
(-0.13704 -15.0602 0.00117234)
(0.0584973 -47.1343 -0.000531967)
(0.286559 -47.5011 -0.00252425)
(-0.410181 -43.2558 0.00355587)
(0.472505 -38.161 -0.00412232)
(0.299762 -14.6225 -0.00263945)
(0.274717 -47.5959 -0.00240824)
(-0.342334 -46.8874 0.00296337)
(-0.337436 -43.5132 0.00293199)
(0.521214 -39.0676 -0.00454337)
(0.719982 -13.9658 -0.0063051)
(0.415508 -47.6708 -0.00362399)
(-0.865049 -45.5801 0.00752489)
(-0.185741 -44.5339 0.00161748)
(0.884784 -40.3198 -0.00771912)
(0.767208 -12.8726 -0.00671346)
(0.300304 -47.3925 -0.00263699)
(-1.12906 -44.2068 0.0098372)
(0.173999 -46.5169 -0.00151904)
(0.919203 -41.3337 -0.00802312)
(0.533337 -11.7424 -0.00466798)
(-0.080817 -46.1422 0.000695368)
(-0.883704 -43.2513 0.00770954)
(0.412199 -48.3121 -0.00359872)
(0.193628 -41.4417 -0.00169188)
(0.166499 -10.5025 -0.00145319)
(-0.67719 -44.8735 0.00592049)
(-0.691163 -43.6261 0.00603344)
(-0.596094 -49.0668 0.00520136)
(-1.09291 -41.4735 0.0095396)
(-0.299232 -12.1912 0.00261239)
(-1.19836 -41.0162 0.0104629)
(-0.552544 -41.5464 0.00482113)
(-2.4594 -46.0224 0.0214623)
(-2.93281 -39.7439 0.0255971)
(-2.60516 -9.67993 0.0228131)
(-1.69197 -37.6968 0.014767)
(-2.20948 -39.7246 0.0192829)
(-5.32195 -42.7644 0.0464458)
(-6.13532 -41.3928 0.0535522)
(-8.27855 -26.7809 0.0723104)
(-2.04885 -26.9378 0.0178782)
(-5.15876 -28.0459 0.0450209)
(-9.73416 -29.3253 0.084951)
(-15.0525 -27.7538 0.131366)
(-20.2834 -18.8513 0.176985)
(-16.4329 -1.90126 0.143483)
(-9.81061 -2.98597 0.0856431)
(-7.35913 -1.46239 0.0642217)
(-4.9281 -0.978802 0.0430117)
(-3.74536 -0.608796 0.0326863)
(-2.69517 -0.396599 0.0235222)
(-2.07239 -0.259736 0.0180863)
(-1.56336 -0.173585 0.0136443)
(-1.21869 -0.116824 0.010636)
(-0.946702 -0.0794254 0.00826247)
(-0.748794 -0.0542487 0.00653519)
(-0.594826 -0.0372683 0.0051915)
(-0.477732 -0.0257375 0.00416958)
(-0.386379 -0.0178542 0.00337232)
(-0.315407 -0.0124823 0.00275292)
(-0.25938 -0.0087926 0.00226395)
(-0.214904 -0.00625495 0.00187579)
(-0.179281 -0.0044973 0.00156488)
(-0.150511 -0.00327143 0.00131378)
(-0.127106 -0.00240901 0.00110949)
(-0.107926 -0.00179557 0.000942082)
(-0.0920678 -0.00135446 0.00080367)
(-0.0788628 -0.00103388 0.000688414)
(-0.0677796 -0.000798361 0.000591677)
(-0.0584133 -0.000623609 0.000509923)
(-0.0504712 -0.000492542 0.000440557)
(-1.25525 -14.0814 0.0109529)
(-3.10909 -12.9332 0.0271321)
(-5.48393 -12.7372 0.0478588)
(-8.22329 -13.1791 0.0717686)
(-10.6337 -11.9324 0.0928087)
(-9.12391 -6.83476 0.0796402)
(-6.5353 -4.50891 0.0570489)
(-5.86811 -2.73157 0.0512215)
(-4.46049 -1.91955 0.0389379)
(-3.8005 -1.27759 0.0331748)
(-3.03601 -0.925323 0.0265029)
(-2.53959 -0.658435 0.0221689)
(-2.08487 -0.487825 0.0181999)
(-1.74342 -0.360278 0.0152191)
(-1.45201 -0.271008 0.0126754)
(-1.22016 -0.204167 0.0106514)
(-1.02669 -0.15523 0.00896265)
(-0.868046 -0.118418 0.00757775)
(-0.735958 -0.0908797 0.00642469)
(-0.626474 -0.070081 0.00546895)
(-0.534939 -0.0543575 0.00466989)
(-0.458276 -0.0424106 0.00400065)
(-0.393822 -0.0333019 0.00343799)
(-0.339437 -0.0263238 0.00296323)
(-0.293402 -0.0209513 0.00256134)
(-0.254297 -0.0167912 0.00221998)
(-0.220928 -0.0135512 0.00192868)
(-0.192347 -0.0110127 0.00167918)
(-0.167759 -0.00901208 0.00146454)
(-0.146521 -0.0074258 0.00127913)
(-0.128132 -0.00616012 0.00111853)
(-0.804693 -12.5313 0.00702084)
(-1.65151 -12.3069 0.0144117)
(-2.58976 -11.8427 0.0226003)
(-3.66871 -10.0121 0.0320177)
(-5.09962 -7.2878 0.0445079)
(-5.35973 -4.51455 0.0467809)
(-4.82941 -3.76371 0.0421537)
(-4.37407 -2.55701 0.0381798)
(-3.71083 -2.00727 0.0323917)
(-3.24316 -1.4545 0.0283094)
(-2.74953 -1.12264 0.0240011)
(-2.37682 -0.84623 0.0207475)
(-2.03381 -0.655943 0.0177536)
(-1.75778 -0.50656 0.0153441)
(-1.51513 -0.396625 0.013226)
(-1.313 -0.31131 0.0114616)
(-1.13845 -0.246249 0.00993802)
(-0.989661 -0.195495 0.00863918)
(-0.861464 -0.15601 0.00752014)
(-0.75146 -0.124995 0.00655989)
(-0.656446 -0.100584 0.0057305)
(-0.57433 -0.0812745 0.00501368)
(-0.503214 -0.0659585 0.00439288)
(-0.441508 -0.0537661 0.00385422)
(-0.387887 -0.0440286 0.00338613)
(-0.34121 -0.0362238 0.00297868)
(-0.30047 -0.0299458 0.00262304)
(-0.264837 -0.0248775 0.00231199)
(-0.233589 -0.0207706 0.00203921)
(-0.206122 -0.0174298 0.00179941)
(-0.181946 -0.0147008 0.00158828)
(-0.687162 -5.79392 0.00599571)
(-1.51114 -5.68135 0.0131869)
(-2.5888 -5.6148 0.0225921)
(-3.40695 -5.5359 0.0297339)
(-3.86522 -5.09823 0.0337353)
(-3.67331 -4.04155 0.032062)
(-3.4148 -3.29898 0.0298058)
(-3.19857 -2.51469 0.0279187)
(-2.8454 -1.99692 0.0248368)
(-2.59153 -1.53249 0.0226208)
(-2.2907 -1.21022 0.0199954)
(-2.05001 -0.944996 0.0178944)
(-1.81319 -0.750542 0.0158275)
(-1.61219 -0.595648 0.0140729)
(-1.42745 -0.477613 0.0124605)
(-1.26719 -0.384159 0.0110616)
(-1.12402 -0.311082 0.00981186)
(-0.997888 -0.252845 0.00871085)
(-0.886099 -0.206513 0.00773506)
(-0.787503 -0.169313 0.00687441)
(-0.700139 -0.139358 0.00611181)
(-0.622765 -0.115119 0.0054364)
(-0.554186 -0.0954452 0.00483776)
(-0.49335 -0.0794209 0.00430671)
(-0.439362 -0.0663301 0.00383544)
(-0.391416 -0.0556028 0.00341691)
(-0.348768 -0.046787 0.00304462)
(-0.310793 -0.0395217 0.00271314)
(-0.276927 -0.0335173 0.0024175)
(-0.246685 -0.0285404 0.00215347)
(-0.219666 -0.024402 0.00191755)
(-0.304345 -5.17051 0.00265544)
(-0.666509 -5.01105 0.00581617)
(-1.09251 -4.77169 0.00953364)
(-1.51073 -4.33346 0.0131838)
(-1.99039 -3.71503 0.017371)
(-2.22446 -3.01826 0.019415)
(-2.30849 -2.57679 0.0201489)
(-2.29497 -2.06991 0.0200311)
(-2.18361 -1.72531 0.0190596)
(-2.06095 -1.39091 0.0179892)
(-1.89741 -1.14353 0.016562)
(-1.74436 -0.927662 0.0152262)
(-1.58601 -0.760254 0.0138442)
(-1.44154 -0.621309 0.0125832)
(-1.30354 -0.51091 0.0113787)
(-1.1789 -0.42078 0.0102907)
(-1.0642 -0.348145 0.00928953)
(-0.960213 -0.288844 0.00838185)
(-0.86591 -0.240554 0.00755871)
(-0.780849 -0.200965 0.00681622)
(-0.703915 -0.168435 0.00614468)
(-0.634434 -0.141602 0.00553818)
(-0.5717 -0.11941 0.00499058)
(-0.515047 -0.101003 0.00449605)
(-0.463905 -0.0856961 0.00404962)
(-0.41773 -0.0729349 0.00364656)
(-0.376001 -0.0622703 0.00328231)
(-0.338275 -0.0533376 0.002953)
(-0.304138 -0.0458379 0.002655)
(-0.273227 -0.0395261 0.00238513)
(-0.245243 -0.0341997 0.0021408)
(-0.292022 -2.54364 0.00254866)
(-0.644678 -2.5994 0.00562655)
(-1.0268 -2.5953 0.00896065)
(-1.35885 -2.54001 0.0118586)
(-1.61782 -2.4342 0.0141196)
(-1.7257 -2.21042 0.015062)
(-1.77787 -1.98982 0.0155175)
(-1.77656 -1.71524 0.0155062)
(-1.72179 -1.48048 0.0150283)
(-1.65805 -1.24675 0.0144722)
(-1.5633 -1.05366 0.0136454)
(-1.46894 -0.880664 0.012822)
(-1.36594 -0.738724 0.0119231)
(-1.26644 -0.617686 0.0110545)
(-1.16698 -0.518163 0.0101864)
(-1.07344 -0.43503 0.00937002)
(-0.984367 -0.366317 0.00859254)
(-0.901063 -0.309149 0.00786543)
(-0.823584 -0.261657 0.00718915)
(-0.752042 -0.222026 0.00656468)
(-0.685987 -0.1889 0.00598811)
(-0.625197 -0.161137 0.00545749)
(-0.569362 -0.137815 0.00497011)
(-0.518123 -0.118181 0.00452285)
(-0.471163 -0.101615 0.00411294)
(-0.42815 -0.087608 0.00373749)
(-0.38874 -0.0757394 0.00339348)
(-0.352635 -0.0656632 0.00307832)
(-0.319546 -0.057091 0.00278947)
(-0.289216 -0.0497824 0.00252469)
(-0.261436 -0.0435357 0.00228214)
(-0.147245 -2.03573 0.00128489)
(-0.334251 -2.07089 0.00291709)
(-0.54953 -2.03764 0.00479562)
(-0.748664 -1.94721 0.00653316)
(-0.952884 -1.83461 0.00831597)
(-1.10468 -1.67854 0.00964141)
(-1.21786 -1.53845 0.0106296)
(-1.28328 -1.36447 0.0112005)
(-1.30638 -1.21163 0.0114022)
(-1.30394 -1.05351 0.0113812)
(-1.2711 -0.91653 0.0110948)
(-1.22564 -0.788945 0.0106981)
(-1.16712 -0.679283 0.0101874)
(-1.10356 -0.582298 0.00963272)
(-1.03532 -0.499436 0.00903711)
(-0.967302 -0.428027 0.00844344)
(-0.899726 -0.367194 0.00785363)
(-0.834264 -0.31534 0.00728225)
(-0.771653 -0.271214 0.00673577)
(-0.712425 -0.233623 0.0062188)
(-0.656586 -0.201601 0.00573141)
(-0.604233 -0.174305 0.00527444)
(-0.555336 -0.151009 0.00484763)
(-0.509773 -0.131109 0.00444991)
(-0.467419 -0.114086 0.00408022)
(-0.42811 -0.0995041 0.0037371)
(-0.391637 -0.0869931 0.00341874)
(-0.357823 -0.0762425 0.00312358)
(-0.326478 -0.0669882 0.00284995)
(-0.29743 -0.0590062 0.00259637)
(-0.270545 -0.0521055 0.00236164)
(-0.133706 -0.939077 0.00116674)
(-0.303203 -1.03928 0.0026461)
(-0.485901 -1.08795 0.00424018)
(-0.646892 -1.1119 0.00564501)
(-0.793361 -1.1345 0.00692385)
(-0.900977 -1.12517 0.00786357)
(-0.983604 -1.09615 0.0085851)
(-1.03695 -1.03067 0.00905052)
(-1.06387 -0.954664 0.00928539)
(-1.07414 -0.864496 0.00937526)
(-1.06178 -0.776469 0.00926753)
(-1.03841 -0.688672 0.0090637)
(-1.00405 -0.608051 0.00876394)
(-0.963196 -0.533802 0.00840738)
(-0.9164 -0.46747 0.00799898)
(-0.867482 -0.40841 0.00757204)
(-0.816928 -0.356582 0.00713081)
(-0.76623 -0.311344 0.00668832)
(-0.716341 -0.271927 0.00625288)
(-0.667979 -0.237635 0.00583077)
(-0.621384 -0.207857 0.00542407)
(-0.576846 -0.182031 0.00503532)
(-0.534528 -0.159632 0.00466595)
(-0.494485 -0.140215 0.00431642)
(-0.456739 -0.123378 0.00398695)
(-0.421253 -0.10877 0.00367721)
(-0.38793 -0.0960846 0.00338635)
(-0.356688 -0.0850582 0.00311364)
(-0.327416 -0.0754603 0.00285812)
(-0.300014 -0.0670915 0.00261891)
(-0.274409 -0.0597786 0.00239536)
(-0.0814086 -0.578884 0.000710338)
(-0.190454 -0.679477 0.00166214)
(-0.308962 -0.7357 0.00269617)
(-0.418309 -0.767161 0.00365026)
(-0.527056 -0.798261 0.00459964)
(-0.621939 -0.809275 0.00542811)
(-0.706718 -0.806073 0.00616858)
(-0.773403 -0.777725 0.00675035)
(-0.823231 -0.739577 0.00718495)
(-0.856429 -0.689651 0.00747487)
(-0.869039 -0.637543 0.00758509)
(-0.868613 -0.581754 0.00758151)
(-0.856785 -0.527196 0.00747837)
(-0.835826 -0.474206 0.00729551)
(-0.807042 -0.424607 0.00704433)
(-0.774146 -0.378645 0.00675726)
(-0.737941 -0.336839 0.00644128)
(-0.699818 -0.299225 0.00610856)
(-0.66086 -0.265502 0.00576855)
(-0.621994 -0.235439 0.00542932)
(-0.583628 -0.208747 0.00509445)
(-0.546179 -0.185144 0.00476759)
(-0.509934 -0.164311 0.00445122)
(-0.475078 -0.145965 0.00414699)
(-0.441744 -0.129826 0.00385603)
(-0.409995 -0.115638 0.00357891)
(-0.379824 -0.103165 0.00331556)
(-0.351222 -0.0921973 0.0030659)
(-0.324146 -0.0825441 0.00282956)
(-0.298556 -0.0740362 0.00260616)
(-0.274426 -0.066523 0.0023955)
(-0.0678793 -0.0364554 0.000592386)
(-0.159488 -0.155058 0.00139211)
(-0.258725 -0.247673 0.002258)
(-0.349602 -0.32332 0.00305094)
(-0.439604 -0.401569 0.00383614)
(-0.518226 -0.463741 0.00452265)
(-0.588837 -0.504017 0.00513968)
(-0.643239 -0.522823 0.00561434)
(-0.686445 -0.526822 0.00599124)
(-0.718202 -0.517459 0.00626847)
(-0.735292 -0.500134 0.00641774)
(-0.741899 -0.473721 0.0064755)
(-0.739658 -0.443322 0.00645601)
(-0.72955 -0.409772 0.00636783)
(-0.712307 -0.376027 0.00621737)
(-0.690672 -0.342848 0.00602858)
(-0.665281 -0.311093 0.00580701)
(-0.637138 -0.281332 0.00556139)
(-0.607223 -0.25371 0.0053003)
(-0.576475 -0.22837 0.00503194)
(-0.545297 -0.205285 0.00475983)
(-0.514161 -0.184418 0.00448807)
(-0.48342 -0.165635 0.00421975)
(-0.453345 -0.148806 0.00395724)
(-0.42414 -0.13377 0.00370233)
(-0.395943 -0.120363 0.00345623)
(-0.368816 -0.108422 0.00321945)
(-0.34281 -0.097792 0.00299246)
(-0.317938 -0.088327 0.00277534)
(-0.294205 -0.0798916 0.00256817)
(-0.271632 -0.0723613 0.0023711)
(-0.0400053 0.175802 0.000349135)
(-0.0990536 0.0626748 0.000864643)
(-0.166679 -0.0299977 0.00145485)
(-0.235107 -0.10345 0.00205198)
(-0.307061 -0.181535 0.00267975)
(-0.378578 -0.25016 0.00330378)
(-0.445481 -0.304343 0.00388769)
(-0.502131 -0.340623 0.00438236)
(-0.547611 -0.364267 0.00477955)
(-0.582959 -0.376611 0.00508809)
(-0.608157 -0.380071 0.00530806)
(-0.623987 -0.373863 0.0054463)
(-0.632396 -0.361625 0.00551975)
(-0.63266 -0.344295 0.0055221)
(-0.626044 -0.324377 0.00546439)
(-0.614167 -0.302901 0.00536076)
(-0.597936 -0.280798 0.00521913)
(-0.578309 -0.25886 0.00504785)
(-0.556144 -0.237572 0.00485441)
(-0.532404 -0.217281 0.00464722)
(-0.507507 -0.198181 0.00442993)
(-0.481972 -0.180435 0.00420706)
(-0.456179 -0.164082 0.00398194)
(-0.430458 -0.149127 0.00375744)
(-0.405063 -0.135522 0.00353578)
(-0.380185 -0.123192 0.00331865)
(-0.355938 -0.112046 0.00310701)
(-0.332422 -0.101988 0.00290176)
(-0.309693 -0.0929172 0.00270336)
(-0.287798 -0.0847344 0.00251223)
(-0.266792 -0.0773441 0.00232885)
(-0.0342869 0.422105 0.000299236)
(-0.0852931 0.321247 0.000744496)
(-0.145355 0.229896 0.00126867)
(-0.202631 0.151334 0.00176858)
(-0.262851 0.068907 0.00229407)
(-0.321992 -0.0141602 0.00281014)
(-0.377446 -0.0905412 0.00329408)
(-0.424772 -0.154533 0.00370729)
(-0.464649 -0.204505 0.00405555)
(-0.496585 -0.240196 0.00433424)
(-0.521258 -0.263896 0.00454958)
(-0.538537 -0.276803 0.00470044)
(-0.549994 -0.281146 0.00480049)
(-0.554833 -0.27868 0.00484276)
(-0.553814 -0.271387 0.0048339)
(-0.54809 -0.260693 0.00478397)
(-0.538212 -0.247696 0.00469779)
(-0.52492 -0.233309 0.00458179)
(-0.508854 -0.21828 0.00444159)
(-0.490829 -0.203122 0.00428428)
(-0.47121 -0.188191 0.00411306)
(-0.450502 -0.173802 0.00393233)
(-0.429062 -0.160136 0.00374521)
(-0.407238 -0.147313 0.00355473)
(-0.385302 -0.135387 0.00336327)
(-0.363479 -0.124365 0.0031728)
(-0.341915 -0.114228 0.00298459)
(-0.320747 -0.104934 0.00279983)
(-0.300064 -0.0964287 0.0026193)
(-0.279946 -0.0886508 0.00244368)
(-0.260476 -0.0815345 0.0022737)
(-0.0256189 0.569887 0.000223557)
(-0.0642701 0.477193 0.000560917)
(-0.109254 0.384643 0.000953513)
(-0.15265 0.30252 0.0013323)
(-0.198336 0.21848 0.00173099)
(-0.243661 0.132406 0.00212651)
(-0.289689 0.0506691 0.0025282)
(-0.33305 -0.0215323 0.00290674)
(-0.372471 -0.0814547 0.00325102)
(-0.406912 -0.128782 0.00355157)
(-0.435729 -0.164735 0.00380305)
(-0.457396 -0.190191 0.00399219)
(-0.473727 -0.206824 0.00413478)
(-0.483795 -0.215989 0.00422269)
(-0.488346 -0.21927 0.00426244)
(-0.488192 -0.218007 0.00426112)
(-0.483783 -0.21323 0.00422267)
(-0.475867 -0.205904 0.00415361)
(-0.464968 -0.196869 0.0040585)
(-0.451799 -0.186741 0.00394358)
(-0.436702 -0.176003 0.00381183)
(-0.420179 -0.165073 0.00366763)
(-0.402564 -0.154239 0.00351389)
(-0.384209 -0.143718 0.00335369)
(-0.36539 -0.133647 0.00318944)
(-0.34635 -0.124109 0.00302326)
(-0.32726 -0.115147 0.00285665)
(-0.30828 -0.106772 0.00269099)
(-0.289525 -0.0989748 0.00252729)
(-0.271099 -0.0917292 0.00236644)
(-0.253109 -0.0850006 0.00220938)
(-0.0217777 0.718007 0.000190081)
(-0.0543169 0.632787 0.000474215)
(-0.092163 0.541172 0.000804312)
(-0.130007 0.456085 0.00113465)
(-0.168932 0.369919 0.00147437)
(-0.208872 0.280895 0.00182291)
(-0.248234 0.193927 0.00216637)
(-0.286129 0.112972 0.00249718)
(-0.321399 0.041661 0.00280525)
(-0.352587 -0.0189432 0.00307741)
(-0.378791 -0.0679631 0.00330607)
(-0.399402 -0.106196 0.00348598)
(-0.415959 -0.134682 0.00363053)
(-0.427449 -0.1547 0.00373085)
(-0.434347 -0.167769 0.00379109)
(-0.437239 -0.175168 0.00381636)
(-0.436294 -0.178009 0.00380814)
(-0.432148 -0.177338 0.00377198)
(-0.42512 -0.174018 0.00371065)
(-0.415778 -0.168757 0.00362914)
(-0.404386 -0.162154 0.00352972)
(-0.391387 -0.154699 0.00341628)
(-0.377065 -0.146769 0.00329129)
(-0.36175 -0.13865 0.00315763)
(-0.345706 -0.130556 0.0030176)
(-0.329177 -0.12263 0.00287334)
(-0.312346 -0.114971 0.00272645)
(-0.295384 -0.107639 0.00257841)
(-0.278426 -0.100664 0.00243039)
(-0.261593 -0.0940568 0.00228346)
(-0.24501 -0.0878111 0.00213869)
(-0.0172208 0.820539 0.000150317)
(-0.0424496 0.740128 0.000370619)
(-0.071824 0.650293 0.000626981)
(-0.103298 0.565484 0.000901747)
(-0.135589 0.477751 0.00118334)
(-0.169963 0.388564 0.0014833)
(-0.203323 0.299668 0.00177439)
(-0.236538 0.214601 0.00206433)
(-0.268012 0.13743 0.00233928)
(-0.29714 0.0698561 0.00259345)
(-0.322685 0.013077 0.00281636)
(-0.344034 -0.0332149 0.0030027)
(-0.362023 -0.0700381 0.00315975)
(-0.375684 -0.0982791 0.00327901)
(-0.38527 -0.119184 0.0033627)
(-0.391069 -0.133818 0.00341335)
(-0.393252 -0.143274 0.00343243)
(-0.392358 -0.148558 0.00342465)
(-0.388575 -0.150474 0.00339165)
(-0.382455 -0.149783 0.00333826)
(-0.374204 -0.14715 0.00326625)
(-0.364218 -0.143101 0.00317912)
(-0.352745 -0.138071 0.00307899)
(-0.340089 -0.132397 0.00296854)
(-0.326503 -0.126348 0.00284996)
(-0.312223 -0.12012 0.00272534)
(-0.297437 -0.113857 0.00259629)
(-0.282324 -0.107662 0.00246439)
(-0.267027 -0.101601 0.00233087)
(-0.251681 -0.0957173 0.00219692)
(-0.236424 -0.0900332 0.00206373)
(-0.014829 0.914798 0.000129442)
(-0.0361908 0.837273 0.000315986)
(-0.0612899 0.751653 0.00053505)
(-0.0888945 0.668671 0.000776072)
(-0.117177 0.582052 0.00102262)
(-0.147692 0.492711 0.00128888)
(-0.176995 0.401205 0.00154457)
(-0.205785 0.312737 0.00179589)
(-0.233161 0.229984 0.00203508)
(-0.259586 0.155668 0.00226567)
(-0.282648 0.0912151 0.00246691)
(-0.302619 0.0368616 0.00264122)
(-0.320073 -0.00797266 0.00279359)
(-0.333846 -0.0439668 0.00291383)
(-0.344205 -0.0720815 0.00300427)
(-0.351445 -0.093337 0.00306748)
(-0.355571 -0.108868 0.00310352)
(-0.356916 -0.119636 0.00311528)
(-0.355537 -0.126467 0.00310327)
(-0.351956 -0.130115 0.00307202)
(-0.346268 -0.131302 0.00302239)
(-0.338796 -0.130574 0.00295719)
(-0.329744 -0.128412 0.00287821)
(-0.319389 -0.125192 0.00278783)
(-0.307958 -0.121226 0.00268807)
(-0.295677 -0.11675 0.0025809)
(-0.282729 -0.111948 0.0024679)
(-0.269294 -0.106959 0.00235064)
(-0.255521 -0.101882 0.00223043)
(-0.241553 -0.0967904 0.00210851)
(-0.227536 -0.0917317 0.00198614)
(-0.0124799 0.989018 0.000108935)
(-0.0307493 0.914373 0.000268452)
(-0.052116 0.831532 0.000454973)
(-0.0756418 0.750432 0.000660387)
(-0.0995752 0.66484 0.000868921)
(-0.126254 0.575013 0.00110167)
(-0.151573 0.482148 0.0013226)
(-0.176114 0.390984 0.00153688)
(-0.200283 0.304883 0.00174811)
(-0.223414 0.226342 0.00194997)
(-0.244281 0.15704 0.00213207)
(-0.263225 0.0973407 0.00229741)
(-0.280506 0.0469463 0.00244825)
(-0.294969 0.0053015 0.00257451)
(-0.306512 -0.0284281 0.00267528)
(-0.315343 -0.0551239 0.00275237)
(-0.321364 -0.0758271 0.00280494)
(-0.324743 -0.0913935 0.00283445)
(-0.32544 -0.102643 0.00284056)
(-0.323986 -0.110284 0.00282787)
(-0.320454 -0.115041 0.00279706)
(-0.315104 -0.117475 0.00275038)
(-0.308117 -0.118086 0.00268942)
(-0.299741 -0.117276 0.00261632)
(-0.290188 -0.115386 0.00253296)
(-0.279669 -0.112682 0.00244116)
(-0.268361 -0.109378 0.00234247)
(-0.25644 -0.105642 0.00223843)
(-0.244056 -0.1016 0.00213034)
(-0.231355 -0.0973516 0.00201948)
(-0.21849 -0.0929683 0.00190717)
(-0.0108302 1.05734 9.45382e-05)
(-0.0265797 0.985466 0.000232062)
(-0.0446273 0.905801 0.000389578)
(-0.0640709 0.826389 0.000559322)
(-0.0847253 0.741152 0.000739474)
(-0.108259 0.651407 0.000944745)
(-0.130126 0.556714 0.0011353)
(-0.152611 0.463005 0.00133164)
(-0.173407 0.373316 0.00151348)
(-0.194668 0.291318 0.00169905)
(-0.213622 0.218281 0.00186447)
(-0.231562 0.154195 0.00202106)
(-0.248411 0.0989863 0.00216813)
(-0.262807 0.0523421 0.00229378)
(-0.274637 0.0134643 0.00239706)
(-0.284199 -0.0182577 0.00248053)
(-0.291326 -0.0437296 0.00254275)
(-0.296068 -0.0637235 0.00258415)
(-0.298295 -0.0790639 0.0026036)
(-0.298499 -0.0904414 0.00260539)
(-0.296703 -0.098565 0.00258974)
(-0.293105 -0.10401 0.00255835)
(-0.287858 -0.107291 0.00251257)
(-0.281178 -0.108832 0.00245427)
(-0.273255 -0.108992 0.00238514)
(-0.264283 -0.108059 0.00230684)
(-0.25443 -0.10627 0.00222086)
(-0.243866 -0.103814 0.00212866)
(-0.232739 -0.100841 0.00203155)
(-0.221198 -0.0974723 0.00193081)
(-0.209396 -0.0938017 0.00182778)
(-0.0092807 1.11246 8.10154e-05)
(-0.0221186 1.04103 0.000193101)
(-0.0365625 0.962939 0.000319186)
(-0.0523707 0.884982 0.000457191)
(-0.0690623 0.801435 0.000602809)
(-0.087241 0.712992 0.000761386)
(-0.10656 0.618098 0.000929858)
(-0.126952 0.523999 0.00110789)
(-0.146724 0.432117 0.00128058)
(-0.166577 0.347813 0.00145385)
(-0.185061 0.272024 0.00161518)
(-0.2028 0.204719 0.00177002)
(-0.219286 0.145902 0.00191392)
(-0.233829 0.095391 0.00204086)
(-0.246159 0.0524461 0.00214849)
(-0.256381 0.0166048 0.00223771)
(-0.264422 -0.0129413 0.00230791)
(-0.270276 -0.0368361 0.00235902)
(-0.273753 -0.0558934 0.00238938)
(-0.275291 -0.0707308 0.00240282)
(-0.274906 -0.0820176 0.00239947)
(-0.272754 -0.0903277 0.00238071)
(-0.268964 -0.0961795 0.00234764)
(-0.263723 -0.100007 0.00230191)
(-0.257202 -0.102181 0.002245)
(-0.249575 -0.103005 0.00217845)
(-0.241003 -0.102731 0.00210365)
(-0.231647 -0.101568 0.002022)
(-0.221652 -0.0996843 0.00193476)
(-0.211165 -0.0972196 0.00184322)
(-0.200341 -0.0942875 0.00174873)
(-0.00790377 1.16142 6.89946e-05)
(-0.0192847 1.08989 0.000168356)
(-0.0312357 1.01175 0.000272689)
(-0.0440618 0.934019 0.000384684)
(-0.0572689 0.852002 0.000499904)
(-0.0723127 0.764615 0.000631128)
(-0.088142 0.671759 0.00076927)
(-0.106131 0.578196 0.000926297)
(-0.12456 0.486389 0.00108713)
(-0.143768 0.400873 0.00125477)
(-0.161506 0.322609 0.0014096)
(-0.178741 0.25242 0.00156003)
(-0.194834 0.19025 0.00170049)
(-0.209151 0.136237 0.00182546)
(-0.2215 0.0896034 0.00193325)
(-0.232021 0.0500079 0.00202508)
(-0.240603 0.0167309 0.00210001)
(-0.24721 -0.0107567 0.00215768)
(-0.251628 -0.0332421 0.00219626)
(-0.254203 -0.0513047 0.00221874)
(-0.254945 -0.0655702 0.00222523)
(-0.253974 -0.0766019 0.00221677)
(-0.251393 -0.0849151 0.00219426)
(-0.247365 -0.0909509 0.00215911)
(-0.242039 -0.0950871 0.00211265)
(-0.235577 -0.0976364 0.00205625)
(-0.228125 -0.0988644 0.00199123)
(-0.219837 -0.0989918 0.00191891)
(-0.210854 -0.0982038 0.0018405)
(-0.20132 -0.0966555 0.00175729)
(-0.191389 -0.0944775 0.00167058)
(-0.00673318 1.20234 5.87684e-05)
(-0.0168651 1.13092 0.000147214)
(-0.0274886 1.05179 0.000239964)
(-0.0381191 0.973751 0.000332802)
(-0.0487661 0.892549 0.000425715)
(-0.0610147 0.806996 0.000532567)
(-0.0746224 0.716194 0.000651333)
(-0.0904768 0.62441 0.000789712)
(-0.106853 0.533464 0.000932602)
(-0.124559 0.447647 0.00108714)
(-0.141601 0.367865 0.00123588)
(-0.158127 0.295546 0.00138011)
(-0.173458 0.230822 0.00151392)
(-0.187411 0.174007 0.0016357)
(-0.199847 0.124309 0.00174425)
(-0.210522 0.0815296 0.00183744)
(-0.219444 0.0450169 0.00191532)
(-0.226571 0.0143182 0.00197753)
(-0.231696 -0.011278 0.00202227)
(-0.235073 -0.0323106 0.00205176)
(-0.236707 -0.0493615 0.00206603)
(-0.236689 -0.0629655 0.00206589)
(-0.235099 -0.073626 0.00205203)
(-0.232081 -0.0817837 0.0020257)
(-0.227766 -0.08782 0.00198805)
(-0.2223 -0.0920535 0.00194036)
(-0.21582 -0.0947576 0.00188382)
(-0.208471 -0.0961629 0.00181969)
(-0.200388 -0.0964664 0.00174914)
(-0.191712 -0.0958368 0.00167341)
(-0.182593 -0.0944192 0.0015938)
(-0.00560058 1.23921 4.88946e-05)
(-0.0150894 1.16889 0.000131745)
(-0.0247672 1.08849 0.000216186)
(-0.0340594 1.00922 0.000297348)
(-0.0434309 0.927939 0.00037915)
(-0.0541874 0.843994 0.000473014)
(-0.0656474 0.755285 0.000573032)
(-0.0794146 0.665518 0.000693188)
(-0.0941822 0.575905 0.000822045)
(-0.11018 0.490096 0.000961659)
(-0.125808 0.409501 0.00109805)
(-0.141123 0.335648 0.00123171)
(-0.155545 0.268845 0.00135758)
(-0.168896 0.209459 0.0014741)
(-0.181048 0.157035 0.00158017)
(-0.191643 0.111435 0.00167265)
(-0.2007 0.0720188 0.00175172)
(-0.208132 0.038398 0.00181658)
(-0.213747 0.0099465 0.0018656)
(-0.217721 -0.0138339 0.0019003)
(-0.220051 -0.03349 0.00192064)
(-0.220795 -0.0495226 0.00192715)
(-0.220013 -0.0624172 0.00192034)
(-0.217829 -0.0726075 0.0019013)
(-0.214362 -0.0804762 0.00187105)
(-0.209743 -0.0863444 0.00183074)
(-0.2041 -0.0904904 0.00178151)
(-0.197571 -0.0931513 0.00172453)
(-0.190283 -0.094533 0.00166093)
(-0.182375 -0.0948153 0.0015919)
(-0.173992 -0.0941561 0.00151872)
(-0.00464385 1.26985 4.05453e-05)
(-0.0128026 1.20208 0.000111789)
(-0.0216746 1.12158 0.000189209)
(-0.0310073 1.04094 0.0002707)
(-0.0394588 0.959084 0.00034446)
(-0.0487281 0.875978 0.00042537)
(-0.059074 0.78911 0.000515679)
(-0.0710912 0.700953 0.000620561)
(-0.0843999 0.612949 0.000736687)
(-0.0986856 0.527723 0.000861359)
(-0.112924 0.446933 0.000985613)
(-0.12708 0.372165 0.00110914)
(-0.140505 0.303783 0.00122631)
(-0.153124 0.242353 0.00133644)
(-0.164803 0.187634 0.00143838)
(-0.175132 0.139578 0.00152854)
(-0.184176 0.0975967 0.00160749)
(-0.191733 0.0613651 0.00167345)
(-0.197639 0.0303305 0.001725)
(-0.202024 0.00403037 0.00176328)
(-0.204869 -0.0180453 0.00178813)
(-0.206203 -0.0363596 0.00179978)
(-0.206067 -0.0513746 0.00179861)
(-0.204565 -0.0635073 0.00178551)
(-0.2018 -0.0731372 0.00176139)
(-0.197893 -0.0805854 0.0017273)
(-0.192966 -0.0861323 0.00168431)
(-0.187146 -0.0900188 0.00163353)
(-0.180559 -0.0924576 0.00157604)
(-0.173335 -0.0936375 0.00151299)
(-0.165618 -0.0937275 0.00144562)
(-0.00395434 1.296 3.45259e-05)
(-0.0112715 1.23108 9.84234e-05)
(-0.0193538 1.15164 0.000168967)
(-0.0283487 1.0705 0.000247495)
(-0.0363713 0.988642 0.000317511)
(-0.0450902 0.905677 0.000393613)
(-0.0546678 0.82018 0.000477221)
(-0.0650516 0.733659 0.00056785)
(-0.0767366 0.64691 0.000669804)
(-0.0896514 0.562317 0.000782507)
(-0.102289 0.481327 0.000892783)
(-0.115147 0.405795 0.00100499)
(-0.12763 0.336187 0.00111393)
(-0.139421 0.273107 0.00121684)
(-0.150503 0.216416 0.00131356)
(-0.160484 0.166175 0.00140069)
(-0.169413 0.12189 0.00147863)
(-0.176994 0.0833249 0.0015448)
(-0.183077 0.0499382 0.0015979)
(-0.187754 0.0213119 0.00163873)
(-0.190992 -0.00303012 0.001667)
(-0.19279 -0.0235042 0.00168271)
(-0.193174 -0.0405432 0.00168607)
(-0.192226 -0.0545397 0.00167781)
(-0.19004 -0.0658647 0.00165874)
(-0.186728 -0.0748382 0.00162985)
(-0.182409 -0.0817416 0.00159216)
(-0.177201 -0.0868187 0.00154672)
(-0.171226 -0.0902874 0.00149458)
(-0.164611 -0.0923442 0.00143684)
(-0.157494 -0.0931681 0.0013747)
(-0.0034546 1.31921 3.01625e-05)
(-0.0101507 1.2577 8.86314e-05)
(-0.0178436 1.17944 0.0001558)
(-0.0263726 1.09827 0.000230261)
(-0.0340098 1.01596 0.0002969)
(-0.0421295 0.932952 0.000367755)
(-0.0508164 0.847699 0.000443584)
(-0.0598792 0.762418 0.000522691)
(-0.0704694 0.676851 0.000615107)
(-0.0817122 0.593085 0.000713222)
(-0.0929761 0.5123 0.000811512)
(-0.104482 0.436319 0.000911915)
(-0.115956 0.365815 0.00101205)
(-0.127142 0.301414 0.00110968)
(-0.137803 0.243124 0.00120273)
(-0.147483 0.191035 0.00128722)
(-0.156251 0.144774 0.00136376)
(-0.163787 0.104138 0.00142953)
(-0.169978 0.0686277 0.00148358)
(-0.174851 0.0378733 0.00152612)
(-0.178368 0.0114397 0.00155682)
(-0.180505 -0.0110536 0.00157548)
(-0.181285 -0.0300033 0.0015823)
(-0.180773 -0.0457747 0.00157784)
(-0.179052 -0.0587218 0.00156283)
(-0.176229 -0.0691601 0.0015382)
(-0.172418 -0.0773704 0.00150495)
(-0.167734 -0.0835976 0.00146408)
(-0.162292 -0.0880634 0.00141659)
(-0.156216 -0.0909708 0.00136356)
(-0.149639 -0.0925079 0.00130614)
(-0.00294412 1.34 2.57065e-05)
(-0.00889604 1.28224 7.76823e-05)
(-0.0158846 1.20584 0.000138677)
(-0.0239382 1.12457 0.000208994)
(-0.031198 1.04206 0.000272339)
(-0.0396498 0.958237 0.000346099)
(-0.0476309 0.873626 0.000415738)
(-0.0551144 0.788828 0.000481063)
(-0.0644699 0.703643 0.000562721)
(-0.0745625 0.620651 0.000650807)
(-0.0846833 0.540323 0.000739128)
(-0.0952133 0.464221 0.000831023)
(-0.105964 0.393073 0.000924849)
(-0.116509 0.327613 0.00101689)
(-0.126656 0.268019 0.00110545)
(-0.135989 0.214355 0.00118691)
(-0.144539 0.166383 0.00126154)
(-0.151979 0.12388 0.00132648)
(-0.158185 0.0864375 0.00138065)
(-0.163149 0.0537239 0.00142397)
(-0.166838 0.0253517 0.00145618)
(-0.169218 0.000966417 0.00147696)
(-0.170299 -0.0197891 0.00148641)
(-0.17013 -0.0372513 0.00148494)
(-0.168784 -0.051751 0.0014732)
(-0.166362 -0.0635945 0.00145207)
(-0.162976 -0.0730606 0.00142253)
(-0.158737 -0.0803944 0.00138555)
(-0.153759 -0.0858205 0.00134211)
(-0.148161 -0.0895477 0.00129324)
(-0.14207 -0.0917728 0.00124007)
(-0.00250287 1.35725 2.18561e-05)
(-0.00747179 1.30312 6.52351e-05)
(-0.0137603 1.22914 0.000120139)
(-0.0210436 1.1488 0.000183724)
(-0.0283965 1.06612 0.000247866)