/*--------------------------------*- C++ -*----------------------------------*\
| =========                 |                                                 |
| \\      /  F ield         | OpenFOAM: The Open Source CFD Toolbox           |
|  \\    /   O peration     | Version:  v2012                                 |
|   \\  /    A nd           | Website:  www.openfoam.com                      |
|    \\/     M anipulation  |                                                 |
\*---------------------------------------------------------------------------*/
FoamFile
{
    version     2.0;
    format      ascii;
    class       volScalarField;
    location    "0.05";
    object      alpha.water;
}
// * * * * * * * * * * * * * * * * * * * * * * * * * * * * * * * * * * * * * //

dimensions      [0 0 0 0 0 0 0];


internalField   nonuniform List<scalar> 
15860
(
0
0
0
0
0
0
0
0
0
0
0
0
0
0
0
0
0
0
0
0
-7.26885e-192
-9.64212e-186
-1.8534e-182
-1.87413e-170
-2.05049e-168
-3.86094e-167
-2.17768e-166
-4.93043e-166
-1.25407e-162
-2.52323e-158
-4.914e-156
-1.2948e-154
-1.04707e-153
-3.57755e-153
-6.06206e-153
-5.74565e-153
-3.24949e-153
-1.14339e-153
-2.60396e-154
-3.97338e-155
-4.16471e-156
-3.05821e-157
-1.597e-158
-6.00108e-160
-1.63713e-161
-3.26026e-163
-4.75768e-165
-5.09195e-167
-3.99202e-169
-2.28386e-171
-9.46997e-174
-2.819e-176
-5.94317e-179
-8.71023e-182
-8.65242e-185
-5.62275e-188
-2.26866e-191
-5.23105e-195
-5.9279e-199
-2.25558e-203
0
0
0
0
0
0
0
0
0
0
0
0
0
0
0
0
0
0
0
0
-1.55505e-187
-3.26717e-182
-2.95285e-179
-1.81802e-167
-1.38585e-165
-1.96655e-164
-8.81211e-164
-1.6458e-163
-2.70525e-160
-4.60777e-156
-7.69909e-154
-1.76541e-152
-1.25953e-151
-3.84532e-151
-5.89163e-151
-5.10284e-151
-2.6631e-151
-8.73168e-152
-1.86938e-152
-2.70357e-153
-2.70639e-154
-1.91156e-155
-9.66492e-157
-3.53779e-158
-9.45398e-160
-1.85358e-161
-2.67523e-163
-2.84329e-165
-2.22146e-167
-1.27038e-169
-5.27843e-172
-1.5775e-174
-3.34331e-177
-4.92896e-180
-4.925e-183
-3.21648e-186
-1.30177e-189
-3.00016e-193
-3.37332e-197
-1.24448e-201
0
0
0
0
0
0
0
0
0
0
0
0
0
0
0
0
0
0
0
0
-1.85683e-183
-9.04254e-179
-4.10807e-176
-1.59007e-164
-8.61245e-163
-9.33478e-162
-3.35635e-161
-5.21126e-161
-5.51802e-158
-7.99711e-154
-1.15129e-151
-2.30582e-150
-1.45618e-149
-3.98437e-149
-5.53528e-149
-4.39228e-149
-2.12031e-149
-6.4921e-150
-1.30922e-150
-1.79787e-151
-1.7217e-152
-1.17142e-153
-5.74211e-155
-2.0499e-156
-5.37162e-158
-1.03788e-159
-1.48282e-161
-1.56629e-163
-1.22049e-165
-6.9818e-168
-2.90895e-170
-8.73387e-173
-1.86186e-175
-2.76235e-178
-2.77669e-181
-1.82169e-184
-7.38398e-188
-1.69464e-191
-1.87474e-195
-6.60845e-200
0
0
0
0
0
0
0
0
0
0
0
0
0
0
0
0
0
0
0
0
-1.49973e-179
-2.1076e-175
-5.06132e-173
-1.26308e-161
-4.9405e-160
-4.13832e-159
-1.20469e-158
-1.56629e-158
-1.0644e-155
-1.31906e-151
-1.64293e-149
-2.88443e-148
-1.61768e-147
-3.9789e-147
-5.02601e-147
-3.66319e-147
-1.63958e-147
-4.69827e-148
-8.94246e-149
-1.16813e-149
-1.07187e-150
-7.03537e-152
-3.34782e-153
-1.16695e-154
-3.00168e-156
-5.72077e-158
-8.09755e-160
-8.50745e-162
-6.61638e-164
-3.78872e-166
-1.58399e-168
-4.78086e-171
-1.02575e-173
-1.53229e-176
-1.54995e-179
-1.02141e-182
-4.14314e-186
-9.44858e-190
-1.0239e-193
-3.43227e-198
0
0
0
0
0
0
0
0
0
0
0
0
0
0
0
0
0
0
0
0
-8.77041e-176
-4.19378e-172
-5.56649e-170
-9.15876e-159
-2.62415e-157
-1.7166e-156
-4.07922e-156
-4.47116e-156
-1.94182e-153
-2.0675e-149
-2.23694e-147
-3.45499e-146
-1.72635e-145
-3.82844e-145
-4.4092e-145
-2.95931e-145
-1.231e-145
-3.30843e-146
-5.95511e-147
-7.41296e-148
-6.5282e-149
-4.13957e-150
-1.9147e-151
-6.52398e-153
-1.64893e-154
-3.10264e-156
-4.3545e-158
-4.55374e-160
-3.53712e-162
-2.02885e-164
-8.51679e-167
-2.58576e-169
-5.58703e-172
-8.40791e-175
-8.56209e-178
-5.66863e-181
-2.30042e-184
-5.20783e-188
-5.51707e-192
-1.75499e-196
0
0
0
0
0
0
0
0
0
0
0
0
0
0
0
0
0
0
0
4.48742e-190
-3.875e-172
-7.18267e-169
-5.48908e-167
-6.08002e-156
-1.293e-154
-6.67031e-154
-1.30394e-153
-1.21262e-153
-3.34994e-151
-3.0787e-147
-2.90513e-145
-3.96136e-144
-1.7692e-143
-3.54801e-143
-3.73593e-143
-2.31491e-143
-8.97083e-144
-2.26615e-144
-3.86511e-145
-4.59308e-146
-3.88822e-147
-2.38533e-148
-1.07377e-149
-3.58039e-151
-8.90073e-153
-1.6549e-154
-2.30476e-156
-2.40076e-158
-1.86371e-160
-1.07147e-162
-4.51901e-165
-1.38096e-167
-3.00675e-170
-4.56114e-173
-4.67863e-176
-3.11329e-179
-1.26426e-182
-2.84074e-186
-2.94096e-190
-8.87524e-195
0
0
0
0
0
0
0
0
0
0
0
0
0
0
0
0
0
0
0
2.39555e-185
-1.33044e-168
-1.0643e-165
-4.86482e-164
-3.70139e-153
-5.91686e-152
-2.42969e-151
-3.93615e-151
-3.12488e-151
-5.46367e-149
-4.35386e-145
-3.59735e-143
-4.34587e-142
-1.74045e-141
-3.1658e-141
-3.05613e-141
-1.75277e-141
-6.34291e-142
-1.50931e-142
-2.44404e-143
-2.77755e-144
-2.26383e-145
-1.34551e-146
-5.90218e-148
-1.92802e-149
-4.71879e-151
-8.67688e-153
-1.20004e-154
-1.24597e-156
-9.67299e-159
-5.57733e-161
-2.36475e-163
-7.27795e-166
-1.59779e-168
-2.4448e-171
-2.5277e-174
-1.69163e-177
-6.87801e-181
-1.53482e-184
-1.55419e-188
-4.45718e-193
0
0
0
0
0
0
0
0
0
0
0
0
0
0
0
0
0
0
0
4.1902e-181
-3.62583e-165
-1.36955e-162
-3.87993e-161
-2.06803e-150
-2.51568e-149
-8.29803e-149
-1.1221e-148
-7.65049e-149
-8.42121e-147
-5.84455e-143
-4.24513e-141
-4.55969e-140
-1.64278e-139
-2.71844e-139
-2.41262e-139
-1.28404e-139
-4.34959e-140
-9.77035e-141
-1.50505e-141
-1.63864e-142
-1.28792e-143
-7.42654e-145
-3.17838e-146
-1.01826e-147
-2.4559e-149
-4.46983e-151
-6.14352e-153
-6.36221e-155
-4.94252e-157
-2.85977e-159
-1.21964e-161
-3.78267e-164
-8.37861e-167
-1.294e-169
-1.3495e-172
-9.0904e-176
-3.7041e-179
-8.21821e-183
-8.15491e-187
-2.22968e-191
0
0
0
0
0
0
0
0
0
0
0
0
0
0
0
0
0
0
0
3.83664e-177
-7.97101e-162
-1.53493e-159
-2.7864e-158
-1.06073e-147
-9.93821e-147
-2.65687e-146
-3.02021e-146
-1.7789e-146
-1.22599e-144
-7.44269e-141
-4.77128e-139
-4.57275e-138
-1.48697e-137
-2.24531e-137
-1.83713e-137
-9.0969e-138
-2.89146e-138
-6.14461e-139
-9.02196e-140
-9.42715e-141
-7.15627e-142
-4.00909e-143
-1.67607e-144
-5.2718e-146
-1.25415e-147
-2.26116e-149
-3.09074e-151
-3.19454e-153
-2.4848e-155
-1.44355e-157
-6.19606e-160
-1.93762e-162
-4.33286e-165
-6.75889e-168
-7.11568e-171
-4.82913e-174
-1.97435e-177
-4.3623e-181
-4.25274e-185
-1.11341e-189
0
0
0
0
0
0
0
0
0
0
0
0
0
0
0
0
0
0
0
2.1913e-173
-1.43217e-158
-1.50198e-156
-1.80237e-155
-4.99463e-145
-3.64699e-144
-7.97209e-144
-7.67184e-144
-3.92649e-144
-1.6849e-142
-8.98455e-139
-5.10415e-137
-4.38055e-136
-1.28994e-135
-1.78284e-135
-1.34864e-135
-6.22945e-136
-1.86244e-136
-3.75252e-137
-5.26199e-138
-5.28619e-139
-3.88182e-140
-2.11571e-141
-8.65076e-143
-2.67422e-144
-6.28094e-146
-1.12267e-147
-1.5272e-149
-1.5764e-151
-1.22839e-153
-7.16908e-156
-3.09856e-158
-9.77556e-161
-2.20822e-163
-3.48166e-166
-3.70335e-169
-2.53481e-172
-1.04125e-175
-2.29556e-179
-2.20544e-183
-5.55744e-188
0
0
0
0
0
0
0
0
0
0
0
0
0
0
0
0
0
0
9.53478e-188
8.55865e-170
-2.12486e-155
-1.28584e-153
-1.05013e-152
-2.15867e-142
-1.24266e-141
-2.24052e-141
-1.83805e-141
-8.2218e-142
-2.18465e-140
-1.02729e-136
-5.19311e-135
-4.00579e-134
-1.07178e-133
-1.36008e-133
-9.53922e-134
-4.12109e-134
-1.16176e-134
-2.22419e-135
-2.98455e-136
-2.88771e-137
-2.05454e-138
-1.09092e-139
-4.36788e-141
-1.32845e-142
-3.08322e-144
-5.46793e-146
-7.40751e-148
-7.64063e-150
-5.96793e-152
-3.50076e-154
-1.52437e-156
-4.85435e-159
-1.10837e-161
-1.76757e-164
-1.9012e-167
-1.31391e-170
-5.43106e-174
-1.19732e-177
-1.13753e-181
-2.77465e-186
0
0
0
0
0
0
0
0
0
0
0
0
0
0
0
0
0
0
3.59465e-183
2.41959e-166
-2.62603e-152
-9.64849e-151
-5.51078e-150
-8.56172e-140
-3.9295e-139
-5.89404e-139
-4.15045e-139
-1.63196e-139
-2.67114e-138
-1.11152e-134
-5.02097e-133
-3.49402e-132
-8.52326e-132
-9.96216e-132
-6.49712e-132
-2.63226e-132
-7.01415e-133
-1.27881e-133
-1.64533e-134
-1.53596e-135
-1.06045e-136
-5.49326e-138
-2.15629e-139
-6.459e-141
-1.48269e-142
-2.61093e-144
-3.52488e-146
-3.63533e-148
-2.84769e-150
-1.6798e-152
-7.37272e-155
-2.37111e-157
-5.47529e-160
-8.83787e-163
-9.62108e-166
-6.72121e-169
-2.80011e-172
-6.18734e-176
-5.83431e-180
-1.38582e-184
0
0
0
0
0
0
0
0
0
0
0
0
0
0
0
0
0
0
3.76631e-179
5.14498e-163
-2.72241e-149
-6.35578e-148
-2.60433e-147
-3.11566e-137
-1.15255e-136
-1.45031e-136
-8.82614e-137
-3.06805e-137
-3.0789e-136
-1.13696e-132
-4.60912e-131
-2.90462e-130
-6.48252e-130
-7.00124e-130
-4.25833e-130
-1.6223e-130
-4.09638e-131
-7.12801e-132
-8.81095e-133
-7.9501e-134
-5.33478e-135
-2.69971e-136
-1.0402e-137
-3.07193e-139
-6.98087e-141
-1.22157e-142
-1.64458e-144
-1.69687e-146
-1.33376e-148
-7.91541e-151
-3.50341e-153
-1.13844e-155
-2.66018e-158
-4.34904e-161
-4.79592e-164
-3.39071e-167
-1.42607e-170
-3.16605e-174
-2.9741e-178
-6.92167e-183
0
0
0
0
0
0
0
0
0
0
0
0
0
0
0
0
4.38421e-300
2.95322e-299
1.91376e-175
8.46013e-160
-2.38184e-146
-3.68098e-145
-1.1082e-144
-1.04014e-134
-3.13397e-134
-3.33562e-134
-1.7661e-134
-5.45793e-135
-3.34599e-134
-1.0983e-130
-4.01334e-129
-2.29934e-128
-4.7117e-128
-4.71749e-128
-2.68392e-128
-9.64132e-129
-2.31269e-129
-3.84941e-130
-4.58063e-131
-4.00198e-132
-2.61418e-133
-1.29419e-134
-4.90052e-136
-1.42832e-137
-3.21608e-139
-5.59667e-141
-7.51868e-143
-7.76565e-145
-6.12776e-147
-3.66044e-149
-1.63453e-151
-5.36922e-154
-1.27025e-156
-2.10474e-159
-2.35315e-162
-1.68565e-165
-7.16888e-169
-1.60297e-172
-1.50568e-176
-3.45439e-181
0
0
0
0
0
0
0
0
0
0
0
0
0
0
4.93491e-299
2.15043e-297
5.00885e-296
9.52594e-178
5.68871e-172
1.09868e-156
-1.76756e-143
-1.87694e-142
-4.24527e-142
-3.18548e-132
-7.89676e-132
-7.16562e-132
-3.32243e-132
-9.17891e-133
-3.43105e-132
-1.00083e-128
-3.31147e-127
-1.73172e-126
-3.26999e-126
-3.04526e-126
-1.62553e-126
-5.52135e-127
-1.26135e-127
-2.01279e-128
-2.31038e-129
-1.95799e-130
-1.24703e-131
-6.04786e-133
-2.25328e-134
-6.48844e-136
-1.44888e-137
-2.50935e-139
-3.36615e-141
-3.48222e-143
-2.75989e-145
-1.66017e-147
-7.48241e-150
-2.48574e-152
-5.95709e-155
-1.00102e-157
-1.13559e-160
-8.25143e-164
-3.55423e-167
-8.02316e-171
-7.56301e-175
-1.72064e-179
0
0
0
0
0
0
0
0
0
1.65233e-300
5.18342e-299
1.37e-298
4.24139e-298
3.38607e-296
2.06837e-294
8.48436e-293
1.79569e-291
3.24377e-173
1.07875e-168
1.14555e-153
-1.11747e-140
-8.43804e-140
-1.46389e-139
-8.95025e-130
-1.84318e-129
-1.43684e-129
-5.87114e-130
-1.45789e-130
-3.32593e-130
-8.5934e-127
-2.5865e-125
-1.23966e-124
-2.16506e-124
-1.88176e-124
-9.4534e-125
-3.04469e-125
-6.64124e-126
-1.01832e-126
-1.1298e-127
-9.30448e-129
-5.78702e-130
-2.75325e-131
-1.01054e-132
-2.87789e-134
-6.37889e-136
-1.10036e-137
-1.47486e-139
-1.52898e-141
-1.21776e-143
-7.37976e-146
-3.35848e-148
-1.12886e-150
-2.74175e-153
-4.67514e-156
-5.38569e-159
-3.97382e-162
-1.73632e-165
-3.96593e-169
-3.76481e-173
-8.54175e-178
0
0
0
0
0
0
1.12981e-300
1.1472e-298
6.22972e-297
2.36027e-295
7.26725e-294
1.42575e-293
2.15283e-293
1.63301e-291
9.60768e-290
3.78009e-288
7.56699e-287
2.58988e-169
1.36248e-165
9.71975e-151
-6.041e-138
-3.34942e-137
-4.54373e-137
-2.30758e-127
-3.98422e-127
-2.68774e-127
-9.73768e-128
-2.18474e-128
-3.05847e-128
-6.94413e-125
-1.91037e-123
-8.42664e-123
-1.36635e-122
-1.11215e-122
-5.27477e-123
-1.61549e-123
-3.37319e-124
-4.98123e-125
-5.35276e-126
-4.29157e-127
-2.61078e-128
-1.22022e-129
-4.41741e-131
-1.24549e-132
-2.74271e-134
-4.7159e-136
-6.3198e-138
-6.56943e-140
-5.26042e-142
-3.21297e-144
-1.47704e-146
-5.02518e-149
-1.23752e-151
-2.14249e-154
-2.50816e-157
-1.88116e-160
-8.35008e-164
-1.93399e-167
-1.8549e-171
-4.21914e-176
0
0
0
0
6.53735e-300
1.08425e-297
1.44483e-295
1.38336e-293
6.94882e-292
2.35882e-290
7.01215e-289
1.38452e-288
7.41542e-289
5.02339e-287
2.83894e-285
1.07763e-283
1.23594e-170
9.72252e-166
1.16191e-162
6.7898e-148
-2.80229e-135
-1.17599e-134
-1.26967e-134
-5.46123e-125
-7.97499e-125
-4.68794e-125
-1.51469e-125
-3.08599e-126
-2.68358e-126
-5.27461e-123
-1.33279e-121
-5.43372e-121
-8.21131e-121
-6.28118e-121
-2.82152e-121
-8.24099e-122
-1.65149e-122
-2.35413e-123
-2.4552e-124
-1.91985e-125
-1.14422e-126
-5.26095e-128
-1.88083e-129
-5.2557e-131
-1.1509e-132
-1.97401e-134
-2.64666e-136
-2.76017e-138
-2.22315e-140
-1.36913e-142
-6.36046e-145
-2.19118e-147
-5.47362e-150
-9.62659e-153
-1.14604e-155
-8.74557e-159
-3.94903e-162
-9.29346e-166
-9.03277e-170
-2.06983e-174
0
0
1.53829e-299
6.05941e-297
1.41205e-294
2.21178e-292
2.78517e-290
2.50259e-288
1.16487e-286
3.42412e-285
1.01618e-283
3.29386e-283
1.8885e-284
4.93161e-283
2.5844e-281
9.50844e-280
4.75012e-165
2.14316e-162
6.58385e-160
3.94803e-145
-1.11918e-132
-3.66011e-132
-3.1956e-132
-1.18695e-122
-1.47822e-122
-7.62138e-123
-2.20816e-123
-4.10491e-124
-2.26605e-124
-3.76132e-121
-8.77312e-120
-3.32037e-119
-4.69473e-119
-3.38696e-119
-1.44562e-119
-4.03844e-120
-7.7876e-121
-1.07405e-121
-1.08942e-122
-8.32371e-124
-4.86803e-125
-2.205e-126
-7.79444e-128
-2.16091e-129
-4.7098e-131
-8.06458e-133
-1.0825e-134
-1.13324e-136
-9.18546e-139
-5.70621e-141
-2.67987e-143
-9.35185e-146
-2.37066e-148
-4.23749e-151
-5.13335e-154
-3.98926e-157
-1.83476e-160
-4.39533e-164
-4.34123e-168
-1.00659e-172
1.05417e-300
1.33574e-297
8.26589e-295
3.54352e-292
7.93807e-290
1.51797e-287
2.05761e-285
2.07955e-283
1.22219e-281
5.26571e-280
1.4944e-278
3.80642e-278
1.44788e-279
5.07236e-279
1.46136e-277
5.19217e-276
4.65722e-161
3.11774e-159
2.31602e-157
1.93092e-142
-3.86255e-130
-1.01285e-129
-7.25188e-130
-2.37047e-120
-2.53775e-120
-1.15465e-120
-3.01526e-121
-5.13749e-122
-1.86224e-122
-2.51488e-119
-5.44256e-118
-1.92073e-117
-2.55112e-117
-1.74207e-117
-7.08818e-118
-1.89947e-118
-3.53399e-119
-4.72678e-120
-4.67254e-121
-3.49479e-122
-2.0089e-123
-8.97712e-125
-3.14154e-126
-8.65032e-128
-1.87827e-129
-3.21325e-131
-4.32091e-133
-4.54327e-135
-3.70769e-137
-2.32434e-139
-1.10395e-141
-3.90377e-144
-1.00461e-146
-1.82589e-149
-2.25209e-152
-1.78372e-155
-8.36562e-159
-2.04344e-162
-2.05609e-166
-4.84307e-171
2.19539e-295
2.68622e-292
1.7518e-289
7.67996e-287
1.68404e-284
2.96905e-282
3.75929e-280
4.78745e-278
2.80029e-276
1.38737e-274
3.65533e-273
4.13984e-273
1.58433e-274
2.4076e-274
8.75679e-274
6.56063e-164
1.60837e-157
3.2188e-156
3.61057e-155
8.02983e-140
-1.15716e-127
-2.50247e-127
-1.4866e-127
-4.3529e-118
-4.03651e-118
-1.63007e-118
-3.85488e-119
-6.04498e-120
-1.50773e-120
-1.57456e-117
-3.17838e-116
-1.0507e-115
-1.31626e-115
-8.53875e-116
-3.32294e-116
-8.5674e-117
-1.542e-117
-2.00485e-118
-1.93553e-119
-1.41979e-120
-8.03482e-122
-3.54734e-123
-1.2305e-124
-3.36885e-126
-7.29414e-128
-1.2477e-129
-1.68197e-131
-1.77729e-133
-1.46101e-135
-9.24653e-138
-4.44293e-140
-1.59259e-142
-4.1621e-145
-7.69501e-148
-9.66875e-151
-7.81048e-154
-3.73921e-157
-9.32712e-161
-9.58178e-165
-2.30079e-169
7.05878e-290
1.01099e-286
9.80097e-284
7.87117e-281
4.99906e-278
3.48316e-275
8.05691e-273
6.87135e-273
4.16316e-271
1.67384e-269
4.25398e-268
5.39541e-268
1.90671e-269
2.23638e-269
1.11767e-269
1.93254e-157
2.80077e-154
2.46258e-153
1.09155e-153
2.87502e-137
-3.02809e-125
-5.55283e-125
-2.76157e-125
-7.35498e-116
-5.95128e-116
-2.14464e-116
-4.61281e-117
-6.68266e-118
-1.21453e-118
-9.21932e-116
-1.74522e-114
-5.42935e-114
-6.44163e-114
-3.98451e-114
-1.48801e-114
-3.7022e-115
-6.46357e-116
-8.1883e-117
-7.73683e-118
-5.57641e-119
-3.11203e-120
-1.35941e-121
-4.68009e-123
-1.27538e-124
-2.75616e-126
-4.71784e-128
-6.38002e-130
-6.77884e-132
-5.61595e-134
-3.58966e-136
-1.74558e-138
-6.34482e-141
-1.68449e-143
-3.1692e-146
-4.05853e-149
-3.34597e-152
-1.63664e-155
-4.17445e-159
-4.38695e-163
-1.07711e-167
2.64278e-283
3.25632e-280
2.10488e-277
7.03547e-275
1.46473e-272
1.90299e-270
1.07876e-268
1.41307e-267
8.86711e-266
3.56122e-264
8.74474e-263
9.44658e-263
3.45742e-264
3.23051e-264
5.61287e-265
1.66953e-153
2.82781e-151
1.40486e-150
8.35168e-152
8.9875e-135
-6.98378e-123
-1.11528e-122
-4.67127e-123
-1.14435e-113
-8.13779e-114
-2.63033e-114
-5.16586e-115
-6.93732e-116
-9.76999e-117
-5.04146e-114
-8.99956e-113
-2.64729e-112
-2.98708e-112
-1.76839e-112
-6.35864e-113
-1.53127e-113
-2.60033e-114
-3.21742e-115
-2.98162e-116
-2.11561e-117
-1.16623e-118
-5.04785e-120
-1.727e-121
-4.68968e-123
-1.01251e-124
-1.73576e-126
-2.35636e-128
-2.51896e-130
-2.10413e-132
-1.35889e-134
-6.68994e-137
-2.46651e-139
-6.65446e-142
-1.27446e-144
-1.66413e-147
-1.40099e-150
-7.00718e-154
-1.82965e-157
-1.97029e-161
-4.9594e-166
6.25069e-279
6.79125e-276
3.90018e-273
1.5577e-270
4.01117e-268
8.55865e-266
1.32961e-263
1.76929e-261
1.08259e-259
5.34283e-258
1.30447e-256
2.81841e-257
9.28199e-259
4.49238e-259
8.9384e-155
4.76287e-150
1.80773e-148
5.77771e-148
1.9593e-148
2.48967e-132
-1.43753e-120
-2.04728e-120
-7.24473e-121
-1.64071e-111
-1.03268e-111
-3.00859e-112
-5.41477e-113
-6.76054e-114
-7.81594e-115
-2.57127e-112
-4.35304e-111
-1.21662e-110
-1.3111e-110
-7.45691e-111
-2.59037e-111
-6.05617e-112
-1.0031e-112
-1.21512e-113
-1.1068e-114
-7.74591e-116
-4.22486e-117
-1.81465e-118
-6.1776e-120
-1.6735e-121
-3.61319e-123
-6.20865e-125
-8.46688e-127
-9.11182e-129
-7.67806e-131
-5.01218e-133
-2.499e-135
-9.34856e-138
-2.56378e-140
-4.99995e-143
-6.65936e-146
-5.7278e-149
-2.9314e-152
-7.84354e-156
-8.66757e-160
-2.2416e-164
4.3794e-273
4.21567e-270
2.17976e-267
7.40871e-265
1.79021e-262
3.45952e-260
5.15671e-258
5.56591e-256
3.81698e-254
1.7624e-252
4.18672e-251
8.18728e-252
2.66848e-253
6.6569e-254
6.36393e-150
6.24805e-147
7.86789e-146
1.2234e-145
6.47711e-146
6.19177e-130
-2.68282e-118
-3.47006e-118
-1.03917e-118
-2.16923e-109
-1.21691e-109
-3.21099e-110
-5.31361e-111
-6.18389e-112
-6.15595e-113
-1.22145e-110
-1.97258e-109
-5.26408e-109
-5.44125e-109
-2.9845e-109
-1.00498e-109
-2.28808e-110
-3.70677e-111
-4.40663e-112
-3.95369e-113
-2.73439e-114
-1.47819e-115
-6.30983e-117
-2.1402e-118
-5.79041e-120
-1.25143e-121
-2.15721e-123
-2.95736e-125
-3.20588e-127
-2.72651e-129
-1.7998e-131
-9.09111e-134
-3.45178e-136
-9.62514e-139
-1.91199e-141
-2.59838e-144
-2.2843e-147
-1.19694e-150
-3.28463e-154
-3.72927e-158
-9.92769e-163
9.04959e-268
8.59195e-265
4.55513e-262
1.60498e-259
3.90995e-257
6.94091e-255
9.66961e-253
1.08742e-250
7.24803e-249
3.71195e-247
5.29296e-244
1.13622e-242
2.61649e-244
4.23928e-246
2.64512e-146
3.50583e-144
3.88105e-144
1.66421e-145
2.85598e-135
1.39387e-127
-4.61197e-116
-5.47678e-116
-1.39144e-116
-2.64661e-107
-1.33241e-107
-3.19951e-108
-4.88373e-109
-5.30966e-110
-4.71591e-111
-5.39691e-109
-8.36379e-108
-2.14192e-107
-2.13286e-107
-1.13255e-107
-3.70937e-108
-8.2496e-109
-1.31085e-109
-1.53301e-110
-1.35779e-111
-9.29788e-113
-4.99028e-114
-2.12019e-115
-7.17456e-117
-1.94088e-118
-4.20305e-120
-7.27442e-122
-1.00325e-123
-1.09617e-125
-9.41394e-128
-6.28656e-130
-3.21818e-132
-1.24054e-134
-3.51818e-137
-7.1204e-140
-9.87631e-143
-8.8776e-146
-4.76499e-149
-1.34201e-152
-1.56704e-156
-4.30061e-161
2.39164e-262
2.16162e-259
1.12891e-256
3.84314e-254
9.23782e-252
1.65119e-249
2.44962e-247
2.81776e-245
1.9561e-243
1.05213e-241
3.51809e-240
5.09515e-239
2.02643e-240
2.12629e-145
4.77043e-144
1.20958e-142
7.06732e-141
3.88532e-143
2.32406e-132
2.84421e-125
-7.37532e-114
-8.07927e-114
-1.75228e-114
-2.98205e-105
-1.35619e-105
-2.97798e-106
-4.20604e-107
-4.28064e-108
-3.47572e-109
-2.21491e-107
-3.31398e-106
-8.18641e-106
-7.88759e-106
-4.07054e-106
-1.30118e-106
-2.83558e-107
-4.4318e-108
-5.11087e-109
-4.47844e-110
-3.04241e-111
-1.62398e-112
-6.87787e-114
-2.32508e-115
-6.29646e-117
-1.36763e-118
-2.37863e-120
-3.30262e-122
-3.63935e-124
-3.15771e-126
-2.13414e-128
-1.10758e-130
-4.33588e-133
-1.25093e-135
-2.58005e-138
-3.65343e-141
-3.35878e-144
-1.84744e-147
-5.34303e-151
-6.42179e-155
-1.81912e-159
8.00974e-257
6.7463e-254
3.28177e-251
1.1259e-248
2.48486e-246
4.93843e-244
6.81852e-242
8.0332e-240
5.43585e-238
2.8976e-236
9.6064e-235
1.40116e-233
6.10225e-235
4.24201e-144
1.31552e-140
3.80663e-138
1.49906e-136
7.59149e-139
9.575e-130
5.23667e-123
-1.09529e-111
-1.11124e-111
-2.08141e-112
-3.10598e-103
-1.28384e-103
-2.59019e-104
-3.39594e-105
-3.24153e-106
-2.44428e-107
-8.43194e-106
-1.2255e-104
-2.93549e-104
-2.74889e-104
-1.38413e-104
-4.33318e-105
-9.28247e-106
-1.43096e-106
-1.63119e-107
-1.41724e-108
-9.57032e-110
-5.08937e-111
-2.15194e-112
-7.27719e-114
-1.97511e-115
-4.30738e-117
-7.53496e-119
-1.05404e-120
-1.17217e-122
-1.02808e-124
-7.03509e-127
-3.70279e-129
-1.4725e-131
-4.3228e-134
-9.08782e-137
-1.31403e-139
-1.23588e-142
-6.96823e-146
-2.07042e-149
-2.56298e-153
-7.50107e-158
6.55563e-252
4.96894e-249
2.18402e-246
7.52722e-244
1.63788e-241
3.10422e-239
4.29317e-237
5.18888e-235
3.42431e-233
1.91091e-231
8.49069e-230
1.71309e-228
4.78094e-144
2.36239e-139
6.58177e-136
9.83966e-134
2.93957e-132
1.34512e-134
3.23084e-127
8.62799e-121
-1.49008e-109
-1.41403e-109
-2.32451e-110
-2.99446e-101
-1.13093e-101
-2.10594e-102
-2.57139e-103
-2.30655e-104
-1.63113e-105
-2.97383e-104
-4.22397e-103
-9.86374e-103
-9.0178e-103
-4.44785e-103
-1.36854e-103
-2.90514e-104
-4.40796e-105
-4.9787e-106
-4.29862e-107
-2.8911e-108
-1.5344e-109
-6.48737e-111
-2.19759e-112
-5.98496e-114
-1.31186e-115
-2.31021e-117
-3.25842e-119
-3.65922e-121
-3.24592e-123
-2.24992e-125
-1.2014e-127
-4.85468e-130
-1.45051e-132
-3.10884e-135
-4.59088e-138
-4.41811e-141
-2.55416e-144
-7.79918e-148
-9.94864e-152
-3.01043e-156
2.10084e-247
1.47503e-244
6.56797e-242
2.16054e-239
4.76872e-237
9.16612e-235
1.63732e-232
3.35425e-230
1.01453e-228
5.29754e-227
1.92696e-225
9.8735e-233
4.80469e-144
7.30417e-134
3.03427e-131
3.12013e-129
8.3376e-128
1.44852e-127
1.05054e-124
1.25717e-118
-1.8193e-107
-1.64731e-107
-2.42019e-108
-2.6773e-99
-9.27755e-100
-1.60093e-100
-1.82637e-101
-1.54269e-102
-1.0294e-103
-9.70706e-103
-1.35513e-101
-3.102e-101
-2.78142e-101
-1.34919e-101
-4.11408e-102
-8.59969e-103
-1.29319e-103
-1.45162e-104
-1.24832e-105
-8.37869e-107
-4.44587e-108
-1.88248e-109
-6.39665e-111
-1.75017e-112
-3.85982e-114
-6.84895e-116
-9.74752e-118
-1.10614e-119
-9.92912e-122
-6.97458e-124
-3.77965e-126
-1.55236e-128
-4.72172e-131
-1.03189e-133
-1.55649e-136
-1.53293e-139
-9.08813e-143
-2.85261e-146
-3.75087e-150
-1.17411e-154
4.12555e-243
2.96743e-240
1.28678e-237
4.14387e-235
9.2245e-233
1.71435e-230
2.63568e-228
2.59508e-226
1.94465e-224
1.05102e-222
3.86414e-221
-1.74036e-148
4.81233e-144
3.40532e-129
5.93471e-127
3.80013e-125
7.53193e-124
3.70346e-123
1.87967e-122
1.59084e-116
-1.95076e-105
-1.73876e-105
-2.32304e-106
-2.22564e-97
-7.09638e-98
-1.13832e-98
-1.21686e-99
-9.69959e-101
-6.13146e-102
-2.9312e-101
-4.04098e-100
-9.11878e-100
-8.05633e-100
-3.85875e-100
-1.16477e-100
-2.41529e-101
-3.61124e-102
-4.03889e-103
-3.46711e-104
-2.32703e-105
-1.23669e-106
-5.25249e-108
-1.79282e-109
-4.93414e-111
-1.09603e-112
-1.96143e-114
-2.81905e-116
-3.23475e-118
-2.93991e-120
-2.0937e-122
-1.15191e-124
-4.81004e-127
-1.48968e-129
-3.32012e-132
-5.11603e-135
-5.15689e-138
-3.13565e-141
-1.01187e-144
-1.37178e-148
-4.44345e-153
3.72885e-238
2.62403e-235
1.41843e-232
7.98801e-230
6.86084e-227
1.25656e-225
1.68019e-223
1.87522e-221
1.34278e-219
7.60574e-218
2.76099e-216
-1.13971e-142
-7.42163e-133
1.7776e-127
2.08475e-125
1.06247e-123
1.83273e-122
2.21711e-119
2.5177e-119
1.70192e-114
-1.80066e-103
-1.64823e-103
-2.0327e-104
-1.72579e-95
-5.07074e-96
-7.57568e-97
-7.60581e-98
-5.73248e-99
-3.44242e-100
-8.19441e-100
-1.11844e-98
-2.50245e-98
-2.18867e-98
-1.03932e-98
-3.11673e-99
-6.43168e-100
-9.58839e-101
-1.07118e-101
-9.19982e-103
-6.18687e-104
-3.29905e-105
-1.40772e-106
-4.83337e-108
-1.3397e-109
-3.00065e-111
-5.42086e-113
-7.87415e-115
-9.14239e-117
-8.41766e-119
-6.08057e-121
-3.39762e-123
-1.44283e-125
-4.55076e-128
-1.0345e-130
-1.62862e-133
-1.68028e-136
-1.04794e-139
-3.4769e-143
-4.86032e-147
-1.62942e-151
2.46012e-233
1.31285e-230
5.23758e-228
1.51965e-225
3.76517e-223
6.40544e-221
-2.37429e-162
-2.09136e-157
-7.05526e-153
-6.82095e-148
-7.65157e-146
1.93541e-142
7.14661e-121
2.87138e-118
1.63139e-116
5.01564e-115
5.89584e-114
4.36853e-118
1.22786e-115
1.49238e-112
-1.40465e-101
-1.39323e-101
-1.6053e-102
-1.25257e-93
-3.39358e-94
-4.72505e-95
-4.46074e-96
-3.18383e-97
-1.81994e-98
-2.12797e-98
-2.86887e-97
-6.4025e-97
-5.56992e-97
-2.63307e-97
-7.87296e-98
-1.62198e-98
-2.41788e-99
-2.70496e-100
-2.32958e-101
-1.57292e-102
-8.43079e-104
-3.62006e-105
-1.25208e-106
-3.49961e-108
-7.91225e-110
-1.44433e-111
-2.12209e-113
-2.49481e-115
-2.32839e-117
-1.7068e-119
-9.68945e-122
-4.1857e-124
-1.34478e-126
-3.11847e-129
-5.01615e-132
-5.29729e-135
-3.38859e-138
-1.15593e-141
-1.66617e-145
-5.78145e-150
2.8652e-229
1.70346e-226
6.58309e-224
2.15782e-221
4.40577e-219
7.12238e-217
-4.33335e-164
-2.96892e-159
-7.06766e-155
-1.7943e-151
-9.16234e-140
5.51027e-123
3.8187e-116
7.13248e-114
3.2062e-112
8.46541e-111
9.80478e-110
8.59897e-110
2.22832e-114
1.01904e-110
-9.08966e-100
-1.04376e-99
-1.13432e-100
-8.5353e-92
-2.13349e-92
-2.76739e-93
-2.45663e-94
-1.66152e-95
-9.05236e-97
-5.17827e-97
-6.80935e-96
-1.52509e-95
-1.32614e-95
-6.26677e-96
-1.87515e-96
-3.86919e-97
-5.78387e-98
-6.4963e-99
-5.62308e-100
-3.81971e-101
-2.0617e-102
-8.92274e-104
-3.11329e-105
-8.78595e-107
-2.00735e-108
-3.70616e-110
-5.51242e-112
-6.56654e-114
-6.21576e-116
-4.62594e-118
-2.6691e-120
-1.17323e-122
-3.84025e-125
-9.08545e-128
-1.49327e-130
-1.61414e-133
-1.05902e-136
-3.71398e-140
-5.51952e-144
-1.98212e-148
3.02168e-225
1.65298e-222
6.36724e-220
2.0854e-217
4.24169e-215
7.19961e-213
-3.66099e-166
-1.87122e-161
-2.90887e-157
-6.6646e-156
1.59072e-132
2.00277e-115
9.69448e-112
1.12745e-109
3.90018e-108
8.4779e-107
8.48399e-106
1.49614e-105
2.98434e-106
2.02595e-120
-4.77619e-98
-6.88499e-98
-7.11052e-99
-5.4694e-90
-1.26336e-90
-1.52571e-91
-1.27214e-92
-8.14889e-94
-4.23304e-95
-1.20348e-95
-1.49316e-94
-3.37747e-94
-2.95004e-94
-1.39943e-94
-4.20591e-95
-8.72026e-96
-1.31096e-96
-1.4821e-97
-1.29233e-98
-8.85013e-100
-4.81922e-101
-2.10565e-102
-7.42239e-104
-2.11763e-105
-4.8947e-107
-9.14924e-109
-1.37876e-110
-1.66538e-112
-1.5998e-114
-1.20937e-116
-7.09468e-119
-3.17411e-121
-1.05871e-123
-2.55566e-126
-4.29212e-129
-4.74879e-132
-3.19522e-135
-1.15187e-138
-1.76469e-142
-6.55725e-147
2.34913e-221
1.21115e-218
4.78652e-216
1.49887e-213
2.98904e-211
4.76052e-209
-1.87819e-168
-6.77102e-164
-2.00098e-160
-6.27852e-133
5.77868e-117
3.53649e-110
1.84168e-107
1.49684e-105
4.13676e-104
7.57298e-103
6.66887e-102
1.0313e-101
5.36435e-102
-2.13382e-113
-1.98417e-96
-3.96771e-96
-3.91515e-97
-3.29429e-88
-7.05582e-89
-7.93566e-90
-6.20582e-91
-3.75882e-92
-1.86011e-93
-2.76665e-94
-3.01996e-93
-6.94375e-93
-6.12314e-93
-2.92834e-93
-8.87307e-94
-1.85459e-94
-2.81211e-95
-3.20837e-96
-2.82476e-97
-1.95423e-98
-1.07557e-99
-4.75224e-101
-1.69484e-102
-4.89477e-104
-1.14589e-105
-2.17065e-107
-3.31702e-109
-4.06551e-111
-3.96573e-113
-3.04659e-115
-1.81786e-117
-8.28017e-120
-2.81481e-122
-6.9336e-125
-1.18991e-127
-1.34743e-130
-9.29666e-134
-3.44444e-137
-5.43851e-141
-2.09039e-145
2.07438e-175
6.63662e-172
4.63279e-167
4.5005e-148
1.28624e-143
2.46702e-154
3.96365e-132
2.50242e-126
-8.92674e-124
-4.95163e-128
3.48628e-112
1.15129e-105
2.79107e-103
1.69874e-101
3.86082e-100
6.06583e-99
4.76806e-98
6.50895e-98
3.03064e-98
-3.79053e-109
-6.34276e-95
-1.98321e-94
-1.87003e-95
-1.8601e-86
-3.7134e-87
-3.89785e-88
-2.85679e-89
-1.63265e-90
-7.68144e-92
-6.6101e-93
-5.6246e-92
-1.32324e-91
-1.18419e-91
-5.73441e-92
-1.75844e-92
-3.71741e-93
-5.70198e-94
-6.58236e-95
-5.8653e-96
-4.1078e-97
-2.28938e-98
-1.0246e-99
-3.7025e-101
-1.08384e-102
-2.57282e-104
-4.94395e-106
-7.66759e-108
-9.54299e-110
-9.45825e-112
-7.38772e-114
-4.48533e-116
-2.08058e-118
-7.20986e-121
-1.81241e-123
-3.1783e-126
-3.68327e-129
-2.60548e-132
-9.91895e-136
-1.61358e-139
-6.41305e-144
1.33604e-159
6.21026e-156
1.02252e-150
3.29242e-146
2.09068e-144
1.47839e-152
9.74561e-135
5.29365e-131
3.36137e-126
7.62278e-111
4.49569e-106
2.29802e-101
3.49167e-99
1.66807e-97
3.19152e-96
4.3743e-95
3.10899e-94
3.76733e-94
1.57381e-94
-5.83417e-106
-1.6823e-93
-8.64691e-93
-7.64654e-94
-9.80694e-85
-1.83542e-85
-1.80555e-86
-1.24161e-87
-6.685e-89
-2.98243e-90
-1.71018e-91
-9.6328e-91
-2.33358e-90
-2.13077e-90
-1.04945e-90
-3.26936e-91
-7.01399e-92
-1.09154e-92
-1.27835e-93
-1.15557e-94
-8.21023e-96
-4.64221e-97
-2.10795e-98
-7.72968e-100
-2.2965e-101
-5.5341e-103
-1.07986e-104
-1.7012e-106
-2.15158e-108
-2.16804e-110
-1.72262e-112
-1.06458e-114
-5.03031e-117
-1.77724e-119
-4.55962e-122
-8.17041e-125
-9.68907e-128
-7.02564e-131
-2.74743e-134
-4.60316e-138
-1.89083e-142
8.44622e-161
3.26137e-157
3.25038e-152
3.71847e-147
4.93326e-145
-1.14232e-140
4.02781e-135
1.3985e-135
3.64945e-124
2.37039e-106
2.71567e-100
3.42138e-97
3.68717e-95
1.43142e-93
2.35075e-92
2.85086e-91
1.85346e-90
2.00263e-90
7.51978e-91
-6.23238e-102
-7.18492e-92
-3.50605e-91
-2.67413e-92
-4.80909e-83
-8.47621e-84
-7.85471e-85
-5.08469e-86
-2.57994e-87
-1.08909e-88
-4.79298e-90
-1.5156e-89
-3.80194e-89
-3.56171e-89
-1.79239e-89
-5.69511e-90
-1.24414e-90
-1.97035e-91
-2.34731e-92
-2.15768e-93
-1.55851e-94
-8.95701e-96
-4.13363e-97
-1.54043e-98
-4.65113e-100
-1.13914e-101
-2.25942e-103
-3.61881e-105
-4.65444e-107
-4.77117e-109
-3.8582e-111
-2.42795e-113
-1.16897e-115
-4.21149e-118
-1.10281e-120
-2.01918e-123
-2.44995e-126
-1.82059e-129
-7.31099e-133
-1.26103e-136
-5.35072e-141
-1.58383e-160
-2.74176e-157
-5.74377e-152
-6.9198e-147
-1.34428e-143
-2.36501e-138
3.49806e-140
-3.5686e-121
2.67915e-105
8.3922e-102
1.04546e-95
4.07545e-93
3.3392e-91
1.08228e-89
1.55058e-88
1.68465e-87
1.01176e-86
9.80454e-87
3.29762e-87
-6.74165e-99
-5.7923e-90
-1.62882e-89
-8.51141e-91
-2.18848e-81
-3.6374e-82
-3.18868e-83
-1.95213e-84
-9.35866e-86
-3.73663e-87
-1.39902e-88
-2.19176e-88
-5.71203e-88
-5.52191e-88
-2.85272e-88
-9.28228e-89
-2.07198e-89
-3.34962e-90
-4.07021e-91
-3.81376e-92
-2.80653e-93
-1.64261e-94
-7.71747e-96
-2.92718e-97
-8.99407e-99
-2.24143e-100
-4.52357e-102
-7.37247e-104
-9.65019e-106
-1.00696e-107
-8.29129e-110
-5.31507e-112
-2.60817e-114
-9.58332e-117
-2.56143e-119
-4.79181e-122
-5.94781e-125
-4.52847e-128
-1.86673e-131
-3.31317e-135
-1.45129e-139
-3.84009e-161
-3.14945e-157