/*--------------------------------*- C++ -*----------------------------------*\
| =========                 |                                                 |
| \\      /  F ield         | OpenFOAM: The Open Source CFD Toolbox           |
|  \\    /   O peration     | Version:  v2012                                 |
|   \\  /    A nd           | Website:  www.openfoam.com                      |
|    \\/     M anipulation  |                                                 |
\*---------------------------------------------------------------------------*/
FoamFile
{
    version     2.0;
    format      ascii;
    class       surfaceScalarField;
    location    "0.05";
    object      phi;
}
// * * * * * * * * * * * * * * * * * * * * * * * * * * * * * * * * * * * * * //

dimensions      [0 3 -1 0 0 0 0];
oriented        oriented;


internalField   nonuniform List<scalar> 
39020
(
-2.7819e-16
3.08675e-13
-1.68855e-17
2.70061e-15
1.52313e-12
3.66356e-17
9.48924e-16
3.16809e-12
-3.44124e-17
-2.22079e-14
5.02754e-12
-3.05894e-17
-6.76055e-15
6.87312e-12
-1.16269e-16
-9.13147e-16
8.77141e-12
3.56809e-16
1.02728e-14
1.05662e-11
-1.94939e-16
2.05372e-14
1.22315e-11
-1.39707e-16
3.01494e-14
1.37289e-11
-2.41404e-16
4.92852e-14
1.49782e-11
1.87473e-16
6.89e-14
1.59682e-11
1.01696e-16
1.05136e-13
1.66218e-11
-5.95955e-17
1.4916e-13
1.69013e-11
6.0073e-17
2.10408e-13
1.6756e-11
1.43148e-17
2.94887e-13
1.61318e-11
7.56915e-17
4.20264e-13
1.49684e-11
-1.56679e-18
6.1644e-13
1.32107e-11
2.48897e-17
9.48956e-13
1.077e-11
3.98412e-17
1.47809e-12
7.51261e-12
5.92637e-17
2.41423e-12
3.20981e-12
7.05627e-17
3.66827e-12
-1.85775e-12
9.05622e-17
4.97847e-12
-7.54439e-12
1.00569e-16
6.40543e-12
-1.43213e-11
1.02892e-16
7.89915e-12
-2.22178e-11
1.12266e-16
9.47734e-12
-3.12635e-11
1.12357e-16
1.11387e-11
-4.15135e-11
1.21456e-16
1.28853e-11
-5.30138e-11
1.23004e-16
1.47141e-11
-6.58035e-11
1.3187e-16
1.66201e-11
-7.99285e-11
1.35568e-16
1.85948e-11
-9.54009e-11
1.42239e-16
2.0627e-11
-1.12241e-10
1.45921e-16
2.2703e-11
-1.30448e-10
1.52286e-16
2.48054e-11
-1.50001e-10
1.63713e-16
2.69142e-11
-1.70869e-10
1.87175e-16
2.9006e-11
-1.92998e-10
2.10279e-16
3.10547e-11
-2.1632e-10
2.24539e-16
3.30309e-11
-2.40733e-10
2.37358e-16
3.49031e-11
-2.66125e-10
2.49571e-16
3.66366e-11
-2.92345e-10
2.5917e-16
3.81952e-11
-3.19145e-10
2.67303e-16
3.9541e-11
-3.46495e-10
2.74421e-16
4.06361e-11
-3.73938e-10
2.79398e-16
4.14418e-11
-4.01387e-10
2.82916e-16
4.19212e-11
-4.28355e-10
2.84199e-16
4.20393e-11
-4.54443e-10
2.8387e-16
4.17635e-11
-4.79513e-10
2.81571e-16
4.10671e-11
-5.02645e-10
2.76723e-16
3.99276e-11
-5.23557e-10
2.68217e-16
3.83308e-11
-5.41379e-10
2.60427e-16
3.62711e-11
-5.55375e-10
2.50054e-16
3.37519e-11
-5.64736e-10
2.3756e-16
3.07908e-11
-5.6806e-10
2.22402e-16
2.7418e-11
-5.64128e-10
2.05651e-16
2.368e-11
-5.51319e-10
1.86114e-16
1.96436e-11
-5.27461e-10
1.64112e-16
1.53993e-11
-4.89895e-10
1.39533e-16
1.10657e-11
-4.35203e-10
1.12366e-16
6.81751e-12
-3.58288e-10
8.32016e-17
2.86373e-12
-2.51866e-10
5.11564e-17
-1.02722e-10
1.71626e-17
-5.40115e-16
3.09256e-13
-1.04455e-17
-3.41864e-15
1.52573e-12
-3.6115e-17
3.39135e-15
3.16167e-12
2.00578e-16
2.929e-14
5.002e-12
2.65328e-17
4.90492e-14
6.8516e-12
-3.45123e-16
3.45249e-14
8.78637e-12
7.8337e-17
5.03551e-14
1.05558e-11
7.05615e-16
6.30507e-14
1.22149e-11
-5.38331e-16
9.69198e-14
1.36921e-11
-3.72138e-16
1.49355e-13
1.49269e-11
3.68881e-16
2.14829e-13
1.59062e-11
4.20881e-16
3.06328e-13
1.65325e-11
-6.74722e-17
4.17105e-13
1.67912e-11
1.98457e-16
5.63355e-13
1.66105e-11
2.88086e-17
7.56277e-13
1.59396e-11
1.15745e-16
1.01749e-12
1.4707e-11
-1.68485e-17
1.37786e-12
1.28505e-11
4.39132e-17
1.88466e-12
1.02631e-11
5.08184e-18
2.56133e-12
6.83614e-12
6.08971e-17
3.37477e-12
2.39682e-12
6.8498e-17
4.33655e-12
-2.81897e-12
1.06081e-16
5.50986e-12
-8.71698e-12
1.19757e-16
6.83312e-12
-1.56438e-11
1.3516e-16
8.26378e-12
-2.36477e-11
1.3386e-16
9.79887e-12
-3.27979e-11
1.41956e-16
1.1432e-11
-4.3146e-11
1.36622e-16
1.31598e-11
-5.47412e-11
1.42653e-16
1.49763e-11
-6.76196e-11
1.40006e-16
1.68744e-11
-8.18263e-11
1.46003e-16
1.8844e-11
-9.73703e-11
1.41925e-16
2.08729e-11
-1.1427e-10
1.44339e-16
2.29466e-11
-1.32522e-10
1.43956e-16
2.50473e-11
-1.52102e-10
1.56689e-16
2.71545e-11
-1.72977e-10
1.80607e-16
2.92448e-11
-1.95088e-10
2.07958e-16
3.12912e-11
-2.18367e-10
2.2438e-16
3.32643e-11
-2.42707e-10
2.39856e-16
3.51323e-11
-2.67993e-10
2.54306e-16
3.68603e-11
-2.94073e-10
2.65344e-16
3.84121e-11
-3.20696e-10
2.74718e-16
3.97497e-11
-3.47833e-10
2.82665e-16
4.08352e-11
-3.75023e-10
2.87931e-16
4.16298e-11
-4.02181e-10
2.91143e-16
4.20968e-11
-4.28822e-10
2.91837e-16
4.22011e-11
-4.54547e-10
2.90754e-16
4.19102e-11
-4.79222e-10
2.8744e-16
4.11976e-11
-5.01932e-10
2.81974e-16
4.00409e-11
-5.224e-10
2.74207e-16
3.84261e-11
-5.39765e-10
2.65605e-16
3.63477e-11
-5.53297e-10
2.54138e-16
3.38092e-11
-5.62197e-10
2.40979e-16
3.08284e-11
-5.65079e-10
2.25269e-16
2.74355e-11
-5.60735e-10
2.08059e-16
2.36773e-11
-5.47561e-10
1.8789e-16
1.96204e-11
-5.23404e-10
1.65592e-16
1.53551e-11
-4.85629e-10
1.40745e-16
1.09997e-11
-4.30847e-10
1.13547e-16
6.72844e-12
-3.54017e-10
8.42742e-17
2.75562e-12
-2.47893e-10
5.2057e-17
-9.99664e-11
1.782e-17
-5.19201e-16
3.0976e-13
1.04469e-17
7.64409e-16
1.52478e-12
3.54707e-17
-1.19739e-14
3.17452e-12
-3.20545e-16
-2.92781e-14
5.01602e-12
-2.23526e-16
-3.87125e-14
6.86263e-12
8.34001e-16
5.58261e-16
8.74451e-12
-8.06438e-16
3.48412e-14
1.05234e-11
1.65254e-16
7.20251e-14
1.21762e-11
-1.04042e-16
1.52032e-13
1.36172e-11
4.59186e-16
2.33664e-13
1.48413e-11
-5.05636e-16
3.4676e-13
1.57911e-11
-2.20169e-16
4.87244e-13
1.63895e-11
1.22422e-16
6.70807e-13
1.66099e-11
2.15561e-16
9.06708e-13
1.63754e-11
-1.3091e-17
1.20154e-12
1.56456e-11
1.50755e-16
1.578e-12
1.43307e-11
7.99047e-17
2.0552e-12
1.23743e-11
1.1934e-16
2.65065e-12
9.66795e-12
8.1141e-17
3.35584e-12
6.13122e-12
7.17785e-17
4.10378e-12
1.64884e-12
3.41038e-17
4.95373e-12
-3.66886e-12
4.90196e-17
6.0161e-12
-9.77916e-12
9.12384e-17
7.25076e-12
-1.68782e-11
1.03251e-16
8.62867e-12
-2.50254e-11
1.21697e-16
1.01326e-11
-3.43016e-11
1.2391e-16
1.17499e-11
-4.47632e-11
1.34002e-16
1.34719e-11
-5.64631e-11
1.34427e-16
1.52897e-11
-6.94372e-11
1.45472e-16
1.71936e-11
-8.37302e-11
1.48853e-16
1.91723e-11
-9.93489e-11
1.54555e-16
2.12122e-11
-1.1631e-10
1.54385e-16
2.32976e-11
-1.34607e-10
1.57258e-16
2.54102e-11
-1.54215e-10
1.66013e-16
2.75287e-11
-1.75095e-10
1.85808e-16
2.9629e-11
-1.97188e-10
2.08931e-16
3.16835e-11
-2.20421e-10
2.2831e-16
3.36623e-11
-2.44685e-10
2.45567e-16
3.55332e-11
-2.69863e-10
2.61889e-16
3.72609e-11
-2.958e-10
2.74159e-16
3.8809e-11
-3.22244e-10
2.85001e-16
4.01393e-11
-3.49163e-10
2.93931e-16
4.12136e-11
-3.76097e-10
2.99504e-16
4.19934e-11
-4.02961e-10
3.0246e-16
4.24417e-11
-4.2927e-10
3.02316e-16
4.25237e-11
-4.54628e-10
3.00194e-16
4.22071e-11
-4.78906e-10
2.9567e-16
4.14656e-11
-5.0119e-10
2.89632e-16
4.02771e-11
-5.21212e-10
2.8198e-16
3.8628e-11
-5.38115e-10
2.72005e-16
3.65131e-11
-5.51182e-10
2.59182e-16
3.39364e-11
-5.5962e-10
2.45015e-16
3.09158e-11
-5.62058e-10
2.28316e-16
2.74821e-11
-5.57301e-10
2.10524e-16
2.36824e-11
-5.43761e-10
1.89702e-16
1.95834e-11
-5.19305e-10
1.67032e-16
1.52761e-11
-4.81322e-10
1.41775e-16
1.08796e-11
-4.26451e-10
1.14396e-16
6.57301e-12
-3.4971e-10
8.48928e-17
2.60914e-12
-2.4393e-10
5.25647e-17
-9.73573e-11
1.81583e-17
-8.27758e-16
3.10625e-13
1.54375e-17
-3.90528e-15
1.52771e-12
-8.04751e-18
6.70354e-16
3.17059e-12
-1.944e-16
2.35637e-14
4.98997e-12
-1.59229e-16
2.1503e-14
6.86617e-12
6.90012e-16
4.90086e-14
8.7174e-12
-4.2925e-16
9.85343e-14
1.04822e-11
1.09559e-15
1.34535e-13
1.21353e-11
-3.32625e-16
2.41983e-13
1.3514e-11
5.66086e-16
3.35961e-13
1.47486e-11
6.52064e-17
4.83272e-13
1.5647e-11
4.65639e-16
6.59492e-13
1.62123e-11
8.35245e-17
8.89669e-13
1.63825e-11
3.7459e-16
1.17956e-12
1.60866e-11
-9.9744e-17
1.53836e-12
1.52875e-11
2.21188e-16
1.98223e-12
1.38866e-11
-2.65336e-17
2.52225e-12
1.18349e-11
1.13204e-16
3.16323e-12
9.02659e-12
-2.51268e-17
3.89539e-12
5.3987e-12
2.83342e-17
4.68186e-12
8.62464e-13
3.81206e-17
5.55669e-12
-4.54353e-12
8.70511e-17
6.59398e-12
-1.08163e-11
7.5802e-17
7.78666e-12
-1.80708e-11
9.35913e-17
9.12698e-12
-2.63656e-11
9.58305e-17
1.06025e-11
-3.57771e-11
1.08763e-16
1.22024e-11
-4.63631e-11
1.05616e-16
1.39165e-11
-5.81774e-11
1.15183e-16
1.57341e-11
-7.12551e-11
1.19284e-16
1.76442e-11
-8.56404e-11
1.31999e-16
1.96334e-11
-1.01338e-10
1.35813e-16
2.1687e-11
-1.18364e-10
1.42317e-16
2.3788e-11
-1.36709e-10
1.44797e-16
2.59168e-11
-1.56344e-10
1.57312e-16
2.8051e-11
-1.7723e-10
1.78559e-16
3.01658e-11
-1.99303e-10
2.07207e-16
3.22326e-11
-2.22488e-10
2.30679e-16
3.42207e-11
-2.46674e-10
2.51387e-16
3.60973e-11
-2.7174e-10
2.69647e-16
3.78264e-11
-2.97529e-10
2.83208e-16
3.93713e-11
-3.23788e-10
2.95126e-16
4.06932e-11
-3.50485e-10
3.05047e-16
4.17539e-11
-3.77157e-10
3.10801e-16
4.25145e-11
-4.03721e-10
3.13437e-16
4.29382e-11
-4.29693e-10
3.12399e-16
4.29902e-11
-4.5468e-10
3.09357e-16
4.26384e-11
-4.78554e-10
3.03486e-16
4.1857e-11
-5.00408e-10
2.95896e-16
4.06242e-11
-5.19979e-10
2.86669e-16
3.89267e-11
-5.36418e-10
2.75561e-16
3.67601e-11
-5.49015e-10
2.61316e-16
3.41289e-11
-5.56989e-10
2.46098e-16
3.10515e-11
-5.58981e-10
2.28324e-16
2.75595e-11
-5.53809e-10
2.09832e-16
2.37005e-11
-5.39902e-10
1.88318e-16
1.95423e-11
-5.15146e-10
1.65282e-16
1.51771e-11
-4.76957e-10
1.39682e-16
1.07281e-11
-4.22002e-10
1.12214e-16
6.38493e-12
-3.45367e-10
8.2636e-17
2.45599e-12
-2.40001e-10
5.03657e-17
-9.49013e-11
1.59098e-17
-9.09601e-16
3.11532e-13
1.03726e-17
-2.06849e-15
1.52892e-12
2.73662e-17
-2.57281e-16
3.16903e-12
-2.42849e-16
2.23771e-14
4.96567e-12
1.35695e-17
1.25318e-14
6.87666e-12
6.40504e-16
2.29306e-14
8.70349e-12
-1.02333e-15
5.04577e-14
1.04592e-11
4.37398e-16
-4.49156e-14
1.22298e-11
-7.70024e-16
2.05928e-13
1.32609e-11
3.90469e-16
3.40908e-13
1.46164e-11
2.34963e-16
5.56944e-13
1.54352e-11
4.03645e-16
7.78127e-13
1.59888e-11
1.00529e-16
1.06854e-12
1.60947e-11
1.8659e-16
1.41279e-12
1.57442e-11
1.42807e-16
1.8299e-12
1.48714e-11
1.40101e-16
2.32781e-12
1.33886e-11
7.79615e-17
2.9155e-12
1.12474e-11
1.98885e-17
3.59212e-12
8.34977e-12
4.20901e-17
4.35106e-12
4.63942e-12
1.38833e-17
5.17348e-12
3.96984e-14
1.73994e-17
6.08335e-12
-5.45362e-12
2.43966e-17
7.12841e-12
-1.18616e-11
4.83046e-17
8.31564e-12
-1.92582e-11
4.84275e-17
9.64773e-12
-2.76979e-11
7.31181e-17
1.11179e-11
-3.72476e-11
7.46832e-17
1.27181e-11
-4.79636e-11
8.70642e-17
1.44385e-11
-5.98981e-11
8.97914e-17
1.6268e-11
-7.30849e-11
1.0615e-16
1.81946e-11
-8.75673e-11
1.15778e-16
2.02039e-11
-1.03348e-10
1.28911e-16
2.228e-11
-1.2044e-10
1.34776e-16
2.44047e-11
-1.38834e-10
1.43474e-16
2.65573e-11
-1.58497e-10
1.55941e-16
2.87143e-11
-1.79387e-10
1.79134e-16
3.08496e-11
-2.01438e-10
2.08367e-16
3.29338e-11
-2.24572e-10
2.36912e-16
3.49354e-11
-2.48675e-10
2.5966e-16
3.68206e-11
-2.73625e-10
2.79466e-16
3.85527e-11
-2.99261e-10
2.9362e-16
4.00944e-11
-3.25329e-10
3.0639e-16
4.14066e-11
-3.51797e-10
3.17016e-16
4.24506e-11
-3.782e-10
3.22845e-16
4.31874e-11
-4.04458e-10
3.25119e-16
4.35803e-11
-4.30086e-10
3.2317e-16
4.35945e-11
-4.54693e-10
3.19051e-16
4.31982e-11
-4.78157e-10
3.11965e-16
4.23659e-11
-4.99576e-10
3.03636e-16
4.10766e-11
-5.18689e-10
2.93623e-16
3.93176e-11
-5.34659e-10
2.81443e-16
3.7085e-11
-5.46782e-10
2.65956e-16
3.43842e-11
-5.54288e-10
2.49848e-16
3.12345e-11
-5.55831e-10
2.31176e-16
2.76685e-11
-5.50243e-10
2.12181e-16
2.37348e-11
-5.35969e-10
1.90101e-16
1.9503e-11
-5.10915e-10
1.66758e-16
1.50682e-11
-4.72522e-10
1.40814e-16
1.05599e-11
-4.17493e-10
1.13205e-16
6.18397e-12
-3.40991e-10
8.34772e-17
2.30533e-12
-2.36122e-10
5.11968e-17
-9.2596e-11
1.65583e-17
-1.25094e-15
3.12827e-13
1.94107e-17
-5.4514e-15
1.53274e-12
-2.8658e-17
-1.7131e-14
3.18119e-12
-1.90686e-16
-1.73341e-14
4.96459e-12
2.10431e-16
7.28295e-15
6.85236e-12
1.12541e-15
1.1817e-13
8.59341e-12
1.09346e-16
3.49824e-13
1.02344e-11
6.84964e-16
5.18252e-13
1.2057e-11
-2.10677e-15
7.06372e-13
1.30662e-11
-1.35368e-15
6.45684e-13
1.46739e-11
-1.43725e-16
7.82145e-13
1.52949e-11
-3.0579e-16
9.66571e-13
1.58033e-11
-2.90798e-17
1.25594e-12
1.5806e-11
2.10613e-16
1.61719e-12
1.53843e-11
-1.13476e-16
2.06472e-12
1.44235e-11
1.31277e-16
2.5996e-12
1.28534e-11
-2.97866e-17
3.2255e-12
1.06209e-11
1.52275e-17
3.93986e-12
7.63536e-12
9.22207e-18
4.73811e-12
3.8407e-12
2.98202e-17
5.61127e-12
-8.3364e-13
2.50428e-17
6.5733e-12
-6.41583e-12
6.3719e-17
7.65317e-12
-1.29416e-11
4.19109e-17
8.86212e-12
-2.04672e-11
7.03913e-17
1.02083e-11
-2.90441e-11
7.51479e-17
1.16905e-11
-3.873e-11
8.8184e-17
1.33044e-11
-4.95777e-11
8.47344e-17
1.5042e-11
-6.1636e-11
9.5345e-17
1.68928e-11
-7.4936e-11
1.02802e-16
1.88444e-11
-8.95192e-11
1.18382e-16
2.08819e-11
-1.05386e-10
1.27347e-16
2.29881e-11
-1.22547e-10
1.37408e-16
2.51439e-11
-1.4099e-10
1.45068e-16
2.73272e-11
-1.60681e-10
1.60354e-16
2.95133e-11
-1.81574e-10
1.83698e-16
3.1675e-11
-2.036e-10
2.15487e-16
3.37817e-11
-2.26679e-10
2.46703e-16
3.58008e-11
-2.50694e-10
2.71008e-16
3.76973e-11
-2.75521e-10
2.90997e-16
3.94341e-11
-3.00998e-10
3.05279e-16
4.09729e-11
-3.26868e-10
3.18455e-16
4.2274e-11
-3.53098e-10
3.29535e-16
4.32986e-11
-3.79224e-10
3.35273e-16
4.40072e-11
-4.05166e-10
3.37045e-16
4.43632e-11
-4.30441e-10
3.34132e-16
4.43321e-11
-4.54662e-10
3.29062e-16
4.38823e-11
-4.77708e-10
3.20626e-16
4.2989e-11
-4.98682e-10
3.10955e-16
4.16316e-11
-5.17331e-10
3.00195e-16
3.97983e-11
-5.32825e-10
2.86909e-16
3.74864e-11
-5.4447e-10
2.70038e-16
3.47019e-11
-5.51504e-10
2.5287e-16
3.14656e-11
-5.52594e-10
2.33096e-16
2.78112e-11
-5.46588e-10
2.13322e-16
2.37891e-11
-5.31947e-10
1.90446e-16
1.94714e-11
-5.06597e-10
1.66607e-16
1.49576e-11
-4.68008e-10
1.40201e-16
1.03862e-11
-4.12922e-10
1.12391e-16
5.98235e-12
-3.36587e-10
8.24841e-17
2.1622e-12
-2.32302e-10
5.01953e-17
-9.04338e-11
1.54038e-17
-1.07083e-15
3.13926e-13
1.13012e-17
-2.81552e-15
1.53475e-12
3.46068e-17
1.00652e-14
3.16724e-12
-1.57839e-16
2.03744e-14
4.94933e-12
-7.49986e-16
4.29043e-14
6.84004e-12
6.64253e-16
-1.93264e-15
8.63504e-12
-1.6408e-15
-9.14326e-14
1.03401e-11
2.02384e-16
-1.14171e-13
1.20597e-11
3.52927e-15
-6.38788e-14
1.30071e-11
9.4965e-16
3.18244e-13
1.42964e-11
-4.58773e-15
6.00372e-13
1.50081e-11
1.11183e-15
9.38076e-13
1.5463e-11
-2.35039e-17
1.30632e-12
1.54393e-11
1.11867e-16
1.74036e-12
1.4953e-11
2.06334e-16
2.24217e-12
1.39217e-11
5.31577e-17
2.82385e-12
1.22733e-11
2.57568e-16
3.49197e-12
9.95302e-12
4.09892e-17
4.2458e-12
6.88203e-12
1.15339e-16
5.08627e-12
3.00018e-12
5.49414e-17
6.00999e-12
-1.75739e-12
6.50789e-17
7.0268e-12
-7.43273e-12
5.43803e-17
8.1544e-12
-1.40693e-11
7.19432e-17
9.4041e-12
-2.1717e-11
6.66123e-17
1.07849e-11
-3.0425e-11
9.34935e-17
1.22986e-11
-4.02439e-11
8.98902e-17
1.39434e-11
-5.12227e-11
9.94201e-17
1.57129e-11
-6.34058e-11
1.01156e-16
1.75977e-11
-7.68211e-11
1.16711e-16
1.95855e-11
-9.15072e-11
1.26723e-16
2.16609e-11
-1.07462e-10
1.3996e-16
2.38061e-11
-1.24693e-10
1.46892e-16
2.6001e-11
-1.43185e-10
1.56817e-16
2.82223e-11
-1.62902e-10
1.70925e-16
3.0444e-11
-1.83796e-10
1.95893e-16
3.26377e-11
-2.05793e-10
2.28134e-16
3.47717e-11
-2.28813e-10
2.61151e-16
3.6812e-11
-2.52734e-10
2.85318e-16
3.87227e-11
-2.77431e-10
3.04556e-16
4.04655e-11
-3.0274e-10
3.18312e-16
4.20014e-11
-3.28403e-10
3.31423e-16
4.32902e-11
-3.54386e-10
3.4269e-16
4.42924e-11
-3.80225e-10
3.48075e-16
4.49687e-11
-4.05842e-10
3.49267e-16
4.52821e-11
-4.30754e-10
3.45298e-16
4.51984e-11
-4.54577e-10
3.39083e-16
4.46866e-11
-4.77195e-10
3.29404e-16
4.37224e-11
-4.97717e-10
3.1886e-16
4.2286e-11
-5.15895e-10
3.07084e-16
4.03668e-11
-5.30906e-10
2.92689e-16
3.79628e-11
-5.42065e-10
2.74543e-16
3.50816e-11
-5.48623e-10
2.56435e-16
3.17454e-11
-5.49258e-10
2.3573e-16
2.79896e-11
-5.42833e-10
2.15387e-16
2.38669e-11
-5.27824e-10
1.91873e-16
1.94528e-11
-5.02183e-10
1.6765e-16
1.48524e-11
-4.63408e-10
1.40826e-16
1.02156e-11
-4.08285e-10
1.12816e-16
5.78849e-12
-3.3216e-10
8.27258e-17
2.03037e-12
-2.28544e-10
5.03683e-17
-8.84035e-11
1.55117e-17
-1.90691e-15
3.15913e-13
1.75994e-17
-2.55671e-15
1.53513e-12
-1.75212e-17
-8.53839e-15
3.17262e-12
-1.03245e-16
-2.0215e-14
4.95848e-12
-3.2791e-16
3.12696e-14
6.79654e-12
9.25711e-16
8.65352e-14
8.57342e-12
-1.44747e-15
1.90632e-13
1.02403e-11
-1.15117e-15
4.46091e-13
1.17978e-11
4.21041e-15
4.36578e-13
1.30179e-11
8.42855e-16
6.18041e-13
1.41201e-11
-4.20317e-15
8.15597e-13
1.48056e-11
1.27851e-15
1.10458e-12
1.51725e-11
-1.46192e-16
1.46135e-12
1.50834e-11
2.33341e-16
1.90054e-12
1.4515e-11
-1.58344e-16
2.42137e-12
1.33985e-11
-8.58562e-17
3.03149e-12
1.16652e-11
2.11504e-16
3.73319e-12
9.25107e-12
6.76687e-17
4.5262e-12
6.08984e-12
1.17077e-16
5.41197e-12
2.1145e-12
9.65496e-17
6.38875e-12
-2.73385e-12
9.20857e-17
7.46355e-12
-8.50733e-12
1.11834e-16
8.64804e-12
-1.52537e-11
8.48577e-17
9.95151e-12
-2.30203e-11
1.14178e-16
1.13821e-11
-3.18554e-11
1.15941e-16
1.29428e-11
-4.18046e-11
1.2557e-16
1.46331e-11
-5.29131e-11
1.20337e-16
1.64481e-11
-6.52209e-11
1.28878e-16
1.8379e-11
-7.87521e-11
1.35961e-16
2.04138e-11
-9.35421e-11
1.49251e-16
2.25371e-11
-1.09585e-10
1.57859e-16
2.47303e-11
-1.26886e-10
1.66358e-16
2.69724e-11
-1.45427e-10
1.74257e-16
2.9239e-11
-1.65169e-10
1.89119e-16
3.15029e-11
-1.86059e-10
2.13815e-16
3.37342e-11
-2.08024e-10
2.46568e-16
3.59e-11
-2.30979e-10
2.79584e-16
3.79651e-11
-2.54799e-10
3.02575e-16
3.98923e-11
-2.79358e-10
3.20075e-16
4.16423e-11
-3.0449e-10
3.32652e-16
4.31753e-11
-3.29935e-10
3.45368e-16
4.44503e-11
-3.5566e-10
3.56439e-16
4.54273e-11
-3.81202e-10
3.6135e-16
4.60669e-11
-4.06481e-10
3.6174e-16
4.6332e-11
-4.31018e-10
3.56686e-16
4.61889e-11
-4.54433e-10
3.49437e-16
4.56068e-11
-4.76613e-10
3.38396e-16
4.45623e-11
-4.96672e-10
3.26521e-16
4.30367e-11
-5.14369e-10
3.14175e-16
4.10202e-11
-5.28889e-10
2.98683e-16
3.85125e-11
-5.39557e-10
2.79181e-16
3.55225e-11
-5.45632e-10
2.60023e-16
3.20742e-11
-5.45809e-10
2.38216e-16
2.82052e-11
-5.38963e-10
2.17071e-16
2.39712e-11
-5.2359e-10
1.92725e-16
1.94517e-11
-4.97663e-10
1.67953e-16
1.47588e-11
-4.58715e-10
1.40613e-16
1.00552e-11
-4.03582e-10
1.12338e-16
5.60807e-12
-3.27713e-10
8.20127e-17
1.91186e-12
-2.24848e-10
4.96125e-17
-8.64917e-11
1.4539e-17
-1.85042e-15
3.17854e-13
5.83262e-17
-9.9777e-15
1.54309e-12
-1.45538e-16
-1.43322e-14
3.17591e-12
-5.97448e-17
3.80018e-14
4.90099e-12
-5.31917e-16
3.46291e-14
6.81252e-12
1.42388e-15
7.28199e-14
8.52497e-12
-2.07378e-15
1.43085e-13
1.01916e-11
6.94861e-16
2.49681e-13
1.16785e-11
2.54979e-15
3.73031e-13
1.28979e-11
1.68117e-15
5.76037e-13
1.39149e-11
-5.02391e-15
8.28311e-13
1.45484e-11
1.17901e-15
1.14806e-12
1.48487e-11
-2.24836e-16
1.54167e-12
1.4689e-11
-3.47074e-17
2.01213e-12
1.40456e-11
-2.67361e-17
2.56782e-12
1.28403e-11
-1.64161e-16
3.21354e-12
1.10213e-11
2.92041e-16
3.95386e-12
8.51017e-12
7.37309e-18
4.78929e-12
5.25536e-12
1.91731e-16
5.72328e-12
1.18075e-12
1.13602e-16
6.75606e-12
-3.76623e-12
1.19929e-16
7.89302e-12
-9.64388e-12
1.26984e-16
9.14121e-12
-1.65015e-11
1.45193e-16
1.05082e-11
-2.43868e-11
1.40637e-16
1.20006e-11
-3.33474e-11
1.62649e-16
1.36216e-11
-4.34252e-11
1.55078e-16
1.53709e-11
-5.46622e-11
1.58525e-16
1.72442e-11
-6.70941e-11
1.57697e-16
1.92333e-11
-8.07411e-11
1.68657e-16
2.13264e-11
-9.56351e-11
1.76164e-16
2.35076e-11
-1.11766e-10
1.85771e-16
2.5758e-11
-1.29137e-10
1.91304e-16
2.80554e-11
-1.47725e-10
1.9915e-16
3.03746e-11
-1.67488e-10
2.12723e-16
3.26869e-11
-1.88372e-10
2.37392e-16
3.49613e-11
-2.10298e-10
2.69591e-16
3.71634e-11
-2.3318e-10
3.01654e-16
3.92565e-11
-2.56892e-10
3.22627e-16
4.12024e-11
-2.81303e-10
3.37304e-16
4.29606e-11
-3.06247e-10
3.48396e-16
4.44903e-11
-3.31463e-10
3.60105e-16
4.57497e-11
-3.56919e-10
3.70856e-16
4.66987e-11
-3.8215e-10
3.74943e-16
4.72972e-11
-4.07079e-10
3.74516e-16
4.75085e-11
-4.31229e-10
3.68236e-16
4.72991e-11
-4.54223e-10
3.59788e-16
4.66388e-11
-4.75952e-10
3.47466e-16
4.55051e-11
-4.95537e-10
3.34708e-16
4.38803e-11
-5.12744e-10
3.21415e-16
4.17561e-11
-5.26764e-10
3.04803e-16
3.91337e-11
-5.36934e-10
2.84026e-16
3.60236e-11
-5.42522e-10
2.63903e-16
3.2452e-11
-5.42237e-10
2.41142e-16
2.84592e-11
-5.3497e-10
2.1938e-16
2.41042e-11
-5.19235e-10
1.94346e-16
1.94717e-11
-4.93031e-10
1.69112e-16
1.46814e-11
-4.53925e-10
1.41283e-16
9.90978e-12
-3.9881e-10
1.12722e-16
5.44463e-12
-3.23248e-10
8.21409e-17
1.80732e-12
-2.21211e-10
4.9579e-17
-8.46845e-11
1.44656e-17
-1.53756e-15
3.1922e-13
1.07043e-16
-1.37308e-15
1.54363e-12
-1.76781e-17
-1.436e-14
3.18871e-12
-7.94833e-16
-6.2495e-14
4.94017e-12
-4.3408e-16
-5.58401e-14
6.82064e-12
1.81361e-15
4.2012e-14
8.42739e-12
-7.13149e-16
1.43259e-13
1.0106e-11
3.99957e-17
2.78099e-13
1.15305e-11
2.70627e-15
4.23723e-13
1.27516e-11
1.28215e-15
6.42853e-13
1.36967e-11
-4.72749e-15
9.06628e-13
1.4279e-11
1.18445e-15
1.23756e-12
1.45114e-11
-4.64077e-16
1.65091e-12
1.42727e-11
-3.12417e-16
2.14317e-12
1.35542e-11
-8.66455e-17
2.72674e-12
1.22545e-11
-1.14178e-16
3.40295e-12
1.03459e-11
1.4879e-16
4.17923e-12
7.73242e-12
-6.97552e-17
5.05738e-12
4.37794e-12
1.57078e-16
6.04073e-12
1.97464e-13
1.09304e-16
7.12954e-12
-4.85454e-12
1.50599e-16
8.32898e-12
-1.08427e-11
1.8034e-16
9.64482e-12
-1.78166e-11
1.64672e-16
1.10822e-11
-2.58234e-11
1.92066e-16
1.26459e-11
-3.49103e-11
1.94811e-16
1.4338e-11
-4.51167e-11
1.98705e-16
1.61579e-11
-5.64817e-11
1.91276e-16
1.81013e-11
-6.90372e-11
1.95009e-16
2.01599e-11
-8.27994e-11
1.99691e-16
2.23218e-11
-9.77966e-11
2.08128e-16
2.45708e-11
-1.14015e-10
2.14797e-16
2.68872e-11
-1.31453e-10
2.20584e-16
2.92481e-11
-1.50086e-10
2.27645e-16
3.1627e-11
-1.69867e-10
2.40764e-16
3.3994e-11
-1.90738e-10
2.65173e-16
3.63166e-11
-2.1262e-10
2.96142e-16
3.85591e-11
-2.35422e-10
3.27022e-16
4.06833e-11
-2.59015e-10
3.44788e-16
4.26497e-11
-2.83268e-10
3.56292e-16
4.44167e-11
-3.08014e-10
3.65076e-16
4.59425e-11
-3.32988e-10
3.75762e-16
4.71846e-11
-3.58161e-10
3.8568e-16
4.81023e-11
-3.83066e-10
3.88968e-16
4.86554e-11
-4.07631e-10
3.87446e-16
4.88073e-11
-4.3138e-10
3.79967e-16
4.85249e-11
-4.53939e-10
3.70394e-16
4.77786e-11
-4.75206e-10
3.5672e-16
4.65471e-11
-4.94305e-10
3.42612e-16
4.48137e-11
-5.1101e-10
3.28868e-16
4.25718e-11
-5.24522e-10
3.1116e-16
3.98242e-11
-5.34186e-10
2.8903e-16
3.65837e-11
-5.39281e-10
2.67856e-16
3.28786e-11
-5.38532e-10
2.43985e-16
2.87524e-11
-5.30844e-10
2.21386e-16
2.4268e-11
-5.14751e-10
1.95472e-16
1.95156e-11
-4.88278e-10
1.69624e-16
1.46239e-11
-4.49033e-10
1.41207e-16
9.783e-12
-3.93969e-10
1.12304e-16
5.30019e-12
-3.18765e-10
8.14217e-17
1.71661e-12
-2.17627e-10
4.875e-17
-8.2968e-11
1.33898e-17
-2.09848e-15
3.21292e-13
5.04224e-17
-1.16521e-14
1.55229e-12
1.16316e-16
1.15371e-14
3.16304e-12
1.27657e-15
5.9943e-14
4.89602e-12
-8.1108e-16
1.31126e-13
6.75131e-12
-2.14494e-15
1.30724e-13
8.42501e-12
1.30183e-15
2.16435e-13
1.00199e-11
-2.44473e-15
3.41946e-13
1.14022e-11
4.11543e-15
4.68862e-13
1.26136e-11
3.13947e-16
6.99713e-13
1.34829e-11
-2.98143e-15
9.66062e-13
1.40166e-11
2.23831e-15
1.31262e-12
1.41677e-11
1.25783e-16
1.73909e-12
1.38434e-11
-2.03797e-16
2.24993e-12
1.30444e-11
8.03025e-17
2.86301e-12
1.16393e-11
-1.42351e-16
3.57422e-12
9.63697e-12
2.83792e-16
4.39209e-12
6.91319e-12
-7.109e-17
5.31838e-12
3.45383e-12
2.79535e-16
6.35646e-12
-8.39686e-13
1.69887e-16
7.50789e-12
-6.00548e-12
1.78063e-16
8.77698e-12
-1.21113e-11
1.95285e-16
1.01667e-11
-1.92056e-11
2.00603e-16
1.16813e-11
-2.73371e-11
2.06037e-16
1.33242e-11
-3.65523e-11
2.28316e-16
1.50965e-11
-4.68883e-11
2.25434e-16
1.6997e-11
-5.83815e-11
2.26515e-16
1.90208e-11
-7.10605e-11
2.27349e-16
2.11592e-11
-8.49372e-11
2.34399e-16
2.33999e-11
-1.00037e-10
2.40789e-16
2.5726e-11
-1.1634e-10
2.47176e-16
2.81171e-11
-1.33844e-10
2.52617e-16
3.05493e-11
-1.52518e-10
2.58754e-16
3.29948e-11
-1.72312e-10
2.71923e-16
3.54224e-11
-1.93166e-10
2.95202e-16
3.77982e-11
-2.14995e-10
3.25605e-16
4.00848e-11
-2.37708e-10
3.54021e-16
4.22428e-11
-2.61172e-10
3.6895e-16
4.42313e-11
-2.85256e-10
3.76129e-16
4.60074e-11
-3.09789e-10
3.82892e-16
4.75284e-11
-3.34508e-10
3.91865e-16
4.87511e-11
-3.59383e-10
4.01075e-16
4.96342e-11
-3.83948e-10
4.03157e-16
5.01374e-11
-4.08133e-10
4.00632e-16
5.02242e-11
-4.31466e-10
3.91784e-16
4.98621e-11
-4.53576e-10
3.80979e-16
4.90223e-11
-4.74365e-10
3.65993e-16
4.76845e-11
-4.92966e-10
3.51028e-16
4.58336e-11
-5.09158e-10
3.36459e-16
4.34645e-11
-5.22153e-10
3.17634e-16
4.05821e-11
-5.31303e-10
2.94241e-16
3.72013e-11
-5.359e-10
2.72088e-16
3.33535e-11
-5.34684e-10
2.47248e-16
2.90851e-11
-5.26576e-10
2.23983e-16
2.44637e-11
-5.10129e-10
1.97326e-16
1.95856e-11
-4.834e-10
1.7094e-16
1.45888e-11
-4.44036e-10
1.41965e-16
9.67717e-12
-3.89058e-10
1.12703e-16
5.17562e-12
-3.14264e-10
8.15015e-17
1.63912e-12
-2.14091e-10
4.86043e-17
-8.1329e-11
1.31854e-17
-2.02986e-15
3.2326e-13
1.06651e-17
-3.24985e-15
1.55363e-12
1.00905e-16
-1.54364e-14
3.17231e-12
8.87975e-16
-4.8225e-14
4.93062e-12
-8.87309e-16
1.51932e-14
6.69538e-12
-1.19013e-15
5.67529e-14
8.38469e-12
1.70384e-15
1.28372e-13
9.94333e-12
-3.40381e-15
2.78031e-13
1.12525e-11
3.82209e-15
3.92292e-13
1.24862e-11
-1.07278e-16
6.64638e-13
1.32136e-11
-4.71754e-15
9.56302e-13
1.37166e-11
8.69158e-16
1.35361e-12
1.37713e-11
1.58732e-17
1.81906e-12
1.33733e-11
-4.35908e-16
2.37211e-12
1.24906e-11
-2.40105e-17
3.02296e-12
1.09847e-11
-3.84056e-16
3.77419e-12
8.88752e-12
2.82692e-16
4.6338e-12
6.05155e-12
-1.50695e-16
5.60812e-12
2.48171e-12
3.1866e-16
6.70044e-12
-1.93118e-12
1.82285e-16
7.91304e-12
-7.217e-12
2.32443e-16
9.25043e-12
-1.34475e-11
2.31805e-16
1.0716e-11
-2.06701e-11
2.3018e-16
1.23123e-11
-2.89323e-11
2.5302e-16
1.40409e-11
-3.82799e-11
2.54834e-16
1.59015e-11
-4.87479e-11
2.54896e-16
1.78915e-11
-6.03706e-11
2.52346e-16
2.00051e-11
-7.31733e-11
2.55173e-16
2.22329e-11
-8.71642e-11
2.62231e-16
2.45616e-11
-1.02365e-10
2.6821e-16
2.69738e-11
-1.18752e-10
2.76538e-16
2.94478e-11
-1.36317e-10
2.81869e-16
3.19586e-11
-1.55028e-10
2.90494e-16
3.44773e-11
-1.7483e-10
3.0296e-16
3.69711e-11
-1.95659e-10
3.27462e-16
3.94045e-11
-2.17428e-10
3.5555e-16
4.17388e-11
-2.40041e-10
3.82679e-16
4.3933e-11
-2.63366e-10
3.93382e-16
4.59447e-11
-2.87266e-10
3.97051e-16
4.77299e-11
-3.11573e-10
4.0096e-16
4.92449e-11
-3.36021e-10
4.08667e-16
5.04456e-11
-3.60582e-10
4.16604e-16
5.12906e-11
-3.84792e-10
4.17663e-16
5.17392e-11
-4.08581e-10
4.13824e-16
5.17553e-11
-4.31481e-10
4.03709e-16
5.13069e-11
-4.53126e-10
3.91724e-16
5.0366e-11
-4.73424e-10
3.75419e-16
4.89138e-11
-4.91513e-10
3.59102e-16
4.69367e-11
-5.07181e-10
3.44228e-16
4.44314e-11
-5.19647e-10
3.2432e-16
4.1405e-11
-5.28276e-10
2.99595e-16
3.7875e-11
-5.3237e-10
2.76396e-16
3.38757e-11
-5.30684e-10
2.50424e-16
2.94573e-11
-5.22157e-10
2.26276e-16
2.46922e-11
-5.05364e-10
1.98678e-16
1.96833e-11
-4.78391e-10
1.71597e-16
1.4578e-11
-4.38931e-10
1.4196e-16
9.59368e-12
-3.84073e-10
1.12285e-16
5.07107e-12
-3.09741e-10
8.07322e-17
1.57398e-12
-2.10594e-10
4.76819e-17
-7.97551e-11
1.19862e-17
-2.21692e-15
3.25453e-13
2.41492e-17
-8.37662e-15
1.55951e-12
5.3893e-17
-1.18882e-14
3.17383e-12
9.74968e-16
-3.66934e-14
4.95717e-12
-8.58692e-16
5.78919e-14
6.60451e-12
-1.54369e-15
1.46115e-13
8.29926e-12
2.13696e-15
2.92267e-13
9.79855e-12
-1.83866e-15
7.61034e-13
1.07699e-11
4.5784e-15
6.26791e-13
1.26166e-11
-9.89693e-16
8.93371e-13
1.2951e-11
-3.87279e-15
1.10685e-12
1.34937e-11
5.62649e-16
1.49653e-12
1.33842e-11
2.57647e-16
1.93928e-12
1.29249e-11
-4.54573e-16
2.50592e-12
1.19229e-11
-1.92219e-16
3.1765e-12
1.03103e-11
-2.77374e-16
3.96436e-12
8.10064e-12
1.36628e-16
4.86922e-12
5.14438e-12
-1.22757e-16
5.89775e-12
1.45428e-12
1.9689e-16
7.0518e-12
-3.08459e-12
1.60599e-16
8.33471e-12
-8.49928e-12
1.8689e-16
9.74932e-12
-1.48616e-11
1.84533e-16
1.12978e-11
-2.22181e-11
1.89952e-16
1.2982e-11
-3.06159e-11
2.0884e-16
1.48028e-11
-4.00999e-11
2.31393e-16
1.67586e-11
-5.0703e-11
2.43805e-16
1.88459e-11
-6.24571e-11
2.54037e-16
2.10577e-11
-7.53844e-11
2.67922e-16
2.33834e-11
-8.94891e-11
2.79233e-16
2.58089e-11
-1.04789e-10
2.91948e-16
2.83153e-11
-1.21257e-10
3.00613e-16
3.08799e-11
-1.38881e-10
3.11113e-16
3.34764e-11
-1.57624e-10
3.19184e-16
3.60744e-11
-1.77427e-10
3.34935e-16
3.86396e-11
-1.98223e-10
3.58059e-16
4.11349e-11
-2.19922e-10
3.86511e-16
4.35199e-11
-2.42425e-10
4.10341e-16
4.57521e-11
-2.65597e-10
4.18589e-16
4.77878e-11
-2.89301e-10
4.1763e-16
4.95816e-11
-3.13366e-10
4.19743e-16
5.10889e-11
-3.37527e-10
4.25437e-16
5.22651e-11
-3.61758e-10
4.32532e-16
5.3068e-11
-3.85593e-10
4.3211e-16
5.34571e-11
-4.08969e-10
4.2717e-16
5.33966e-11
-4.31419e-10
4.15606e-16
5.28552e-11
-4.52584e-10
4.02398e-16
5.18059e-11
-4.72374e-10
3.84782e-16
5.02313e-11
-4.89938e-10
3.67656e-16
4.81195e-11
-5.05068e-10
3.52139e-16
4.54695e-11
-5.16996e-10
3.31158e-16
4.22905e-11
-5.25096e-10
3.05208e-16
3.86029e-11
-5.28682e-10
2.81022e-16
3.44442e-11
-5.26525e-10
2.54069e-16
2.98687e-11
-5.17581e-10
2.29192e-16
2.49537e-11
-5.00449e-10
2.00775e-16
1.98094e-11
-4.73247e-10
1.73061e-16
1.45924e-11
-4.33714e-10
1.42778e-16
9.53316e-12
-3.79014e-10
1.12665e-16
4.98612e-12
-3.05194e-10
8.07431e-17
1.52022e-12
-2.07128e-10
4.74388e-17
-7.8235e-11
1.16645e-17
-1.89405e-15
3.273e-13
8.4974e-18
-3.37179e-15
1.56113e-12
8.64837e-17
1.70976e-14
3.15066e-12
8.3539e-16
3.58088e-14
4.94333e-12
-1.35828e-15
5.62125e-14
6.58802e-12
-3.26459e-15
-4.69799e-14
8.40295e-12
4.46065e-16
-2.86107e-13
1.00414e-11
-2.07718e-15
-3.44349e-13
1.08099e-11
8.43875e-15
-3.21538e-13
1.25927e-11
2.06271e-15
3.87927e-13
1.22572e-11
-4.0096e-15
8.3185e-13
1.30524e-11
2.27906e-15
1.39658e-12
1.28178e-11
-3.61621e-16
1.95051e-12
1.23652e-11
-4.33853e-16
2.60708e-12
1.12661e-11
-2.73251e-17
3.34352e-12
9.5711e-12
-2.47717e-16
4.18796e-12
7.25665e-12
1.56482e-16
5.14459e-12
4.18508e-12
-2.38536e-16
6.22888e-12
3.70059e-13
1.29938e-16
7.44412e-12
-4.30001e-12
7.51618e-17
8.79556e-12
-9.85022e-12
1.93219e-16
1.02865e-11
-1.6352e-11
1.88669e-16