/*--------------------------------*- C++ -*----------------------------------*\
| =========                 |                                                 |
| \\      /  F ield         | OpenFOAM: The Open Source CFD Toolbox           |
|  \\    /   O peration     | Version:  v2012                                 |
|   \\  /    A nd           | Website:  www.openfoam.com                      |
|    \\/     M anipulation  |                                                 |
\*---------------------------------------------------------------------------*/
FoamFile
{
    version     2.0;
    format      ascii;
    class       volVectorField;
    location    "0.05";
    object      U;
}
// * * * * * * * * * * * * * * * * * * * * * * * * * * * * * * * * * * * * * //

dimensions      [0 1 -1 0 0 0 0];


internalField   nonuniform List<vector> 
15860
(
(-4.37897e-06 0.00195598 3.83973e-08)
(-2.7119e-06 0.00308191 2.34754e-08)
(1.00885e-05 0.00365511 -8.79577e-08)
(-8.50578e-06 0.00392916 7.41434e-08)
(-6.46688e-06 0.00400496 5.63571e-08)
(1.21367e-07 0.00397156 -1.18226e-09)
(5.24937e-07 0.0038545 -4.71788e-09)
(3.25332e-06 0.00367823 -2.83186e-08)
(5.13505e-06 0.00346549 -4.4927e-08)
(5.42374e-06 0.00321907 -4.74714e-08)
(7.378e-06 0.00295133 -6.44768e-08)
(1.13347e-05 0.00266947 -9.88551e-08)
(1.36637e-05 0.0023753 -1.19173e-07)
(1.83078e-05 0.00207498 -1.59722e-07)
(2.29707e-05 0.00177058 -2.00364e-07)
(2.98032e-05 0.00146521 -2.59962e-07)
(3.98215e-05 0.00116152 -3.47327e-07)
(5.41848e-05 0.000860757 -4.72604e-07)
(8.17657e-05 0.000558483 -7.13019e-07)
(0.000110197 0.000252106 -9.60685e-07)
(0.000186927 -4.71838e-05 -1.63033e-06)
(0.000237164 -0.000331795 -2.06877e-06)
(0.000297205 -0.000613801 -2.59245e-06)
(0.000349531 -0.000891751 -3.0491e-06)
(0.000399942 -0.00116032 -3.48894e-06)
(0.000447211 -0.00141875 -3.90139e-06)
(0.000492097 -0.00166565 -4.29306e-06)
(0.000534535 -0.00190016 -4.66337e-06)
(0.000574559 -0.00212138 -5.01263e-06)
(0.000612048 -0.00232846 -5.3398e-06)
(0.000646849 -0.0025206 -5.6435e-06)
(0.000678756 -0.00269709 -5.92195e-06)
(0.000707537 -0.00285727 -6.17315e-06)
(0.00073293 -0.00300056 -6.39478e-06)
(0.000754661 -0.00312651 -6.58448e-06)
(0.000772467 -0.00323473 -6.73993e-06)
(0.00078608 -0.0033249 -6.85873e-06)
(0.000795241 -0.00339682 -6.93876e-06)
(0.000799711 -0.00345037 -6.97786e-06)
(0.000799284 -0.00348551 -6.97423e-06)
(0.000793794 -0.00350229 -6.92643e-06)
(0.000783121 -0.00350081 -6.83341e-06)
(0.000767205 -0.00348123 -6.69463e-06)
(0.000746045 -0.00344377 -6.51008e-06)
(0.000719715 -0.00338867 -6.28043e-06)
(0.00068836 -0.00331615 -6.00692e-06)
(0.000652203 -0.00322644 -5.69151e-06)
(0.000611558 -0.00311971 -5.33692e-06)
(0.000566818 -0.00299608 -4.94657e-06)
(0.000518469 -0.00285553 -4.52473e-06)
(0.000467075 -0.00269791 -4.0763e-06)
(0.000413293 -0.00252285 -3.60702e-06)
(0.000357871 -0.00232976 -3.12342e-06)
(0.000301639 -0.00211765 -2.63273e-06)
(0.000245521 -0.00188503 -2.14301e-06)
(0.000190544 -0.00162964 -1.66324e-06)
(0.000137879 -0.00134793 -1.20361e-06)
(8.87767e-05 -0.001034 -7.75052e-07)
(4.52747e-05 -0.000678043 -3.95514e-07)
(8.26456e-06 -0.0002593 -7.78759e-08)
(3.79871e-06 0.00195842 -3.18426e-08)
(-7.8679e-06 0.00308669 6.87203e-08)
(-1.61168e-05 0.00366308 1.40752e-07)
(2.60651e-05 0.00395529 -2.27497e-07)
(8.50112e-06 0.00399099 -7.43846e-08)
(1.62834e-05 0.00397883 -1.42342e-07)
(7.21464e-06 0.00385208 -6.30021e-08)
(1.14157e-05 0.00367486 -9.97733e-08)
(1.47152e-05 0.00345976 -1.28239e-07)
(1.73032e-05 0.00320898 -1.51017e-07)
(2.51523e-05 0.00294462 -2.19553e-07)
(3.22605e-05 0.00265883 -2.81485e-07)
(3.98352e-05 0.0023635 -3.47547e-07)
(4.97532e-05 0.00206067 -4.3408e-07)
(6.04986e-05 0.00175305 -5.27727e-07)
(7.4861e-05 0.00144229 -6.53048e-07)
(9.32158e-05 0.00113019 -8.13179e-07)
(0.000116862 0.000814992 -1.01948e-06)
(0.000150282 0.000495255 -1.31114e-06)
(0.000186251 0.000164451 -1.62493e-06)
(0.000227567 -0.000146693 -1.98521e-06)
(0.000270772 -0.000430584 -2.362e-06)
(0.000321009 -0.000710401 -2.80026e-06)
(0.000368539 -0.000982989 -3.21498e-06)
(0.000415429 -0.00124709 -3.62409e-06)
(0.000460369 -0.0015011 -4.01621e-06)
(0.000503605 -0.00174377 -4.39346e-06)
(0.00054485 -0.00197407 -4.75335e-06)
(0.000583974 -0.00219105 -5.09474e-06)
(0.00062076 -0.00239382 -5.41575e-06)
(0.000654984 -0.00258158 -5.7144e-06)
(0.000686402 -0.0027536 -5.98856e-06)
(0.000714752 -0.00290926 -6.23597e-06)
(0.000739752 -0.00304798 -6.45416e-06)
(0.000761116 -0.00316933 -6.64063e-06)
(0.000778569 -0.00327293 -6.79298e-06)
(0.000791836 -0.0033585 -6.90874e-06)
(0.000800648 -0.00342587 -6.9857e-06)
(0.000804767 -0.00347495 -7.02172e-06)
(0.000803984 -0.00350572 -7.01497e-06)
(0.000798135 -0.00351826 -6.96402e-06)
(0.0007871 -0.00351271 -6.86783e-06)
(0.000770819 -0.00348928 -6.72586e-06)
(0.000749294 -0.00344819 -6.53813e-06)
(0.000722601 -0.00338971 -6.30532e-06)
(0.000690888 -0.0033141 -6.0287e-06)
(0.000654381 -0.00322159 -5.71024e-06)
(0.000613394 -0.0031124 -5.35269e-06)
(0.000568324 -0.00298662 -4.95949e-06)
(0.000519659 -0.00284429 -4.53492e-06)
(0.000467964 -0.00268524 -4.0839e-06)
(0.000413896 -0.00250912 -3.61216e-06)
(0.000358206 -0.00231533 -3.12626e-06)
(0.000301723 -0.00210289 -2.63342e-06)
(0.00024537 -0.0018703 -2.14171e-06)
(0.000190172 -0.00161533 -1.66005e-06)
(0.000137299 -0.00133442 -1.19867e-06)
(8.79804e-05 -0.00102176 -7.68295e-07)
(4.42941e-05 -0.000667521 -3.87349e-07)
(7.29025e-06 -0.000252454 -7.19922e-08)
(-1.13995e-06 0.00196171 1.06735e-08)
(-2.60727e-06 0.00307955 2.26489e-08)
(2.0894e-05 0.0036677 -1.82402e-07)
(-3.13759e-05 0.00394847 2.73295e-07)
(-5.31227e-05 0.00398544 4.63454e-07)
(4.48267e-05 0.0039688 -3.91206e-07)
(-1.11218e-05 0.00383951 9.67047e-08)
(1.50836e-05 0.00366251 -1.3133e-07)
(1.7695e-05 0.00344411 -1.54439e-07)
(2.88071e-05 0.00319441 -2.51096e-07)
(4.18107e-05 0.00292777 -3.64893e-07)
(4.96066e-05 0.00264066 -4.32843e-07)
(6.39243e-05 0.00234334 -5.57917e-07)
(8.04788e-05 0.00203776 -7.02103e-07)
(9.70558e-05 0.00172728 -8.46667e-07)
(0.000118016 0.0014127 -1.02953e-06)
(0.000142443 0.00109641 -1.24262e-06)
(0.000170722 0.000777255 -1.48932e-06)
(0.000204237 0.000456189 -1.78174e-06)
(0.000236539 0.000131967 -2.06358e-06)
(0.00026643 -0.000179968 -2.32435e-06)
(0.000301938 -0.000472953 -2.63407e-06)
(0.000344183 -0.000757528 -3.00258e-06)
(0.000387272 -0.00103234 -3.37853e-06)
(0.000431208 -0.00129738 -3.76186e-06)
(0.000474325 -0.00155149 -4.13806e-06)
(0.000516393 -0.00179373 -4.50513e-06)
(0.000556884 -0.00202318 -4.85844e-06)
(0.00059552 -0.00223893 -5.19557e-06)
(0.000631976 -0.00244016 -5.51371e-06)
(0.000665968 -0.00262607 -5.81033e-06)
(0.000697198 -0.00279596 -6.08286e-06)
(0.000725376 -0.00294922 -6.32876e-06)
(0.000750193 -0.00308531 -6.54535e-06)
(0.000771347 -0.00320379 -6.72999e-06)
(0.000788552 -0.00330433 -6.88017e-06)
(0.000801527 -0.00338668 -6.99338e-06)
(0.000809998 -0.00345069 -7.06736e-06)
(0.000813724 -0.0034963 -7.09995e-06)
(0.000812499 -0.00352354 -7.08934e-06)
(0.000806161 -0.00353254 -7.03411e-06)
(0.000794596 -0.00352347 -6.93328e-06)
(0.000777749 -0.00349658 -6.78636e-06)
(0.000755627 -0.00345213 -6.59342e-06)
(0.000728316 -0.00339044 -6.3552e-06)
(0.000695969 -0.00331181 -6.07303e-06)
(0.00065882 -0.00321651 -5.74897e-06)
(0.000617193 -0.00310477 -5.38582e-06)
(0.000571488 -0.00297675 -4.98708e-06)
(0.000522203 -0.00283248 -4.55709e-06)
(0.000469906 -0.00267182 -4.10082e-06)
(0.000415261 -0.00249446 -3.62405e-06)
(0.000359021 -0.0022998 -3.13335e-06)
(0.000302019 -0.00208687 -2.63599e-06)
(0.000245179 -0.00185421 -2.14004e-06)
(0.000189528 -0.00159956 -1.65444e-06)
(0.000136239 -0.00131943 -1.18944e-06)
(8.65507e-05 -0.00100806 -7.55859e-07)
(4.26151e-05 -0.000655684 -3.72787e-07)
(6.34746e-06 -0.000244937 -6.3986e-08)
(-9.88706e-07 0.00196656 9.83266e-09)
(-4.72819e-06 0.00308789 4.11301e-08)
(1.83264e-05 0.0036616 -1.59747e-07)
(-1.43761e-05 0.00392019 1.24811e-07)
(-3.09486e-05 0.00400105 2.7005e-07)
(6.01386e-05 0.00396162 -5.25064e-07)
(2.53933e-06 0.00384139 -2.21615e-08)
(2.74744e-05 0.00366531 -2.39531e-07)
(3.04939e-05 0.00342883 -2.65946e-07)
(4.40901e-05 0.00317913 -3.84773e-07)
(5.80388e-05 0.00290445 -5.06378e-07)
(6.87203e-05 0.00261412 -5.9969e-07)
(8.55893e-05 0.00231428 -7.46823e-07)
(0.000105443 0.00200412 -9.19868e-07)
(0.000125487 0.00169014 -1.09461e-06)
(0.000149836 0.00137064 -1.30714e-06)
(0.000177165 0.00104953 -1.54552e-06)
(0.000207106 0.00072549 -1.80676e-06)
(0.000240017 0.000401317 -2.09395e-06)
(0.00027186 7.76156e-05 -2.3718e-06)
(0.000301854 -0.000235028 -2.63345e-06)
(0.000335172 -0.000532153 -2.92407e-06)
(0.000372897 -0.000818554 -3.25316e-06)
(0.000412372 -0.00109364 -3.59754e-06)
(0.000453251 -0.00135785 -3.9542e-06)
(0.000494164 -0.00161044 -4.31117e-06)
(0.000534629 -0.00185075 -4.66423e-06)
(0.000574003 -0.00207795 -5.00779e-06)
(0.000611857 -0.00229122 -5.3381e-06)
(0.000647769 -0.00248978 -5.65149e-06)
(0.000681365 -0.00267285 -5.94467e-06)
(0.000712291 -0.00283977 -6.21454e-06)
(0.000740204 -0.00298992 -6.45814e-06)
(0.000764762 -0.00312279 -6.67248e-06)
(0.000785633 -0.00323796 -6.85465e-06)
(0.000802514 -0.00333509 -7.00201e-06)
(0.000815108 -0.00341398 -7.1119e-06)
(0.000823136 -0.00347449 -7.18202e-06)
(0.00082635 -0.00351659 -7.21014e-06)
(0.000824543 -0.00354033 -7.19446e-06)
(0.000817556 -0.00354587 -7.13358e-06)
(0.000805279 -0.00353341 -7.02654e-06)
(0.000787664 -0.00350322 -6.87293e-06)
(0.000764727 -0.00345562 -6.67287e-06)
(0.000736563 -0.00339094 -6.42721e-06)
(0.000703335 -0.00330951 -6.13735e-06)
(0.000665289 -0.00321163 -5.80546e-06)
(0.000622757 -0.00309757 -5.43442e-06)
(0.000576153 -0.00296749 -5.02783e-06)
(0.000525983 -0.00282145 -4.59011e-06)
(0.000472825 -0.00265935 -4.12632e-06)
(0.00041735 -0.00248086 -3.6423e-06)
(0.000360318 -0.00228542 -3.14469e-06)
(0.000302568 -0.00207207 -2.6408e-06)
(0.000245032 -0.00183934 -2.13876e-06)
(0.000188743 -0.00158501 -1.6476e-06)
(0.00013489 -0.0013056 -1.17767e-06)
(8.47675e-05 -0.000995438 -7.40287e-07)
(4.06493e-05 -0.000644926 -3.55597e-07)
(5.52607e-06 -0.000238472 -5.61821e-08)
(-1.34606e-06 0.00197195 1.2747e-08)
(-3.96327e-06 0.00308922 3.46785e-08)
(1.9761e-05 0.00366201 -1.72343e-07)
(-1.5827e-05 0.00391237 1.37644e-07)
(-3.1912e-05 0.00396841 2.78545e-07)
(5.51812e-05 0.00390671 -4.81637e-07)
(-3.30143e-06 0.0037663 2.90453e-08)
(2.09516e-06 0.00359 -1.79847e-08)
(4.54728e-06 0.00336961 -3.94646e-08)
(4.76788e-05 0.00313942 -4.15974e-07)
(6.16494e-05 0.00286691 -5.37933e-07)
(8.11716e-05 0.0025787 -7.0802e-07)
(0.000102212 0.00227663 -8.91951e-07)
(0.000126306 0.00196462 -1.10169e-06)
(0.000150258 0.00164775 -1.31072e-06)
(0.000177144 0.00132536 -1.54531e-06)
(0.000206701 0.00100169 -1.80318e-06)
(0.000237402 0.000676045 -2.07103e-06)
(0.000270129 0.0003517 -2.35662e-06)
(0.00030161 2.99618e-05 -2.63132e-06)
(0.000332299 -0.000282761 -2.89908e-06)
(0.000364885 -0.000582985 -3.18335e-06)
(0.000400502 -0.000871889 -3.49407e-06)
(0.000437959 -0.00114871 -3.82085e-06)
(0.00047696 -0.00141365 -4.16112e-06)
(0.000516416 -0.00166611 -4.50537e-06)
(0.000555783 -0.0019056 -4.84886e-06)
(0.00059437 -0.00213143 -5.18555e-06)
(0.000631676 -0.00234288 -5.51108e-06)
(0.000667203 -0.00253924 -5.8211e-06)
(0.00070052 -0.00271981 -6.11184e-06)
(0.000731217 -0.00288396 -6.37971e-06)
(0.000758911 -0.00303112 -6.6214e-06)
(0.000783226 -0.00316081 -6.83362e-06)
(0.000803806 -0.00327264 -7.01325e-06)
(0.000820324 -0.00336633 -7.15745e-06)
(0.000832474 -0.00344167 -7.26346e-06)
(0.000839966 -0.00349858 -7.32891e-06)
(0.000842552 -0.00353706 -7.35154e-06)
(0.000840021 -0.0035572 -7.32955e-06)
(0.000832221 -0.00355919 -7.26157e-06)
(0.000819047 -0.00354325 -7.14671e-06)
(0.00080046 -0.00350971 -6.98462e-06)
(0.000776487 -0.0034589 -6.77552e-06)
(0.000747236 -0.0033912 -6.52038e-06)
(0.000712884 -0.00330696 -6.22071e-06)
(0.00067369 -0.00320651 -5.87881e-06)
(0.000630002 -0.00309013 -5.49767e-06)
(0.000582246 -0.00295802 -5.08102e-06)
(0.000530942 -0.00281027 -4.63341e-06)
(0.000476679 -0.00264676 -4.15998e-06)
(0.00042014 -0.00246719 -3.66668e-06)
(0.000362096 -0.00227102 -3.16022e-06)
(0.000303395 -0.00205729 -2.64803e-06)
(0.00024498 -0.00182454 -2.13832e-06)
(0.000187903 -0.00157057 -1.64028e-06)
(0.000133381 -0.00129192 -1.16451e-06)
(8.28072e-05 -0.00098304 -7.23176e-07)
(3.8614e-05 -0.000634592 -3.37796e-07)
(4.78648e-06 -0.000232618 -4.908e-08)
(-1.81187e-06 0.00197893 1.67778e-08)
(-5.67344e-06 0.00309662 4.94986e-08)
(1.47809e-05 0.00367169 -1.28872e-07)
(-3.08132e-05 0.00390165 2.6873e-07)
(-4.40033e-05 0.00401838 3.84198e-07)
(6.49857e-05 0.0039478 -5.67125e-07)
(4.26824e-05 0.003814 -3.72478e-07)
(9.2133e-05 0.00371261 -8.04439e-07)
(0.000104315 0.00332194 -9.10857e-07)
(0.0001147 0.00315324 -1.0004e-06)
(9.3847e-05 0.00284002 -8.18789e-07)
(0.000106539 0.0025518 -9.29799e-07)
(0.000121796 0.00223807 -1.06257e-06)
(0.000146487 0.0019223 -1.27783e-06)
(0.000170511 0.00160082 -1.48727e-06)
(0.000198831 0.00127495 -1.73449e-06)
(0.000229803 0.000948553 -2.00467e-06)
(0.000261514 0.000621269 -2.28136e-06)
(0.000295063 0.0002964 -2.57412e-06)
(0.000327558 -2.45695e-05 -2.85768e-06)
(0.000359968 -0.00033709 -3.14046e-06)
(0.000393256 -0.000638492 -3.43088e-06)
(0.000428417 -0.000928417 -3.73763e-06)
(0.000465034 -0.00120597 -4.05709e-06)
(0.000502968 -0.00147101 -4.38806e-06)
(0.000541487 -0.001723 -4.72414e-06)
(0.000580078 -0.00196148 -5.06085e-06)
(0.000618095 -0.0021858 -5.39258e-06)
(0.000654993 -0.00239534 -5.71455e-06)
(0.000690239 -0.00258943 -6.02212e-06)
(0.000723348 -0.00276743 -6.31105e-06)
(0.000753867 -0.00292874 -6.57737e-06)
(0.00078137 -0.00307284 -6.8174e-06)
(0.00080545 -0.00319929 -7.02756e-06)
(0.000825723 -0.00330772 -7.20452e-06)
(0.000841843 -0.00339788 -7.34525e-06)
(0.000853487 -0.0034696 -7.44684e-06)
(0.000860359 -0.00352284 -7.50688e-06)
(0.000862204 -0.00355763 -7.52306e-06)
(0.000858816 -0.00357408 -7.49359e-06)
(0.000850046 -0.00357244 -7.41714e-06)
(0.000835797 -0.00355296 -7.2929e-06)
(0.000816042 -0.003516 -7.12061e-06)
(0.000790821 -0.00346192 -6.90063e-06)
(0.000760259 -0.00339115 -6.63404e-06)
(0.000724548 -0.00330405 -6.32253e-06)
(0.000683967 -0.00320099 -5.96851e-06)
(0.00063888 -0.00308227 -5.57517e-06)
(0.00058973 -0.00294812 -5.14635e-06)
(0.000537053 -0.00279864 -4.68677e-06)
(0.000481456 -0.00263372 -4.20169e-06)
(0.000423633 -0.0024531 -3.69718e-06)
(0.000364371 -0.00225621 -3.1801e-06)
(0.000304532 -0.00204212 -2.65797e-06)
(0.000245076 -0.00180938 -2.13917e-06)
(0.000187083 -0.00155581 -1.63313e-06)
(0.000131813 -0.00127798 -1.15084e-06)
(8.07928e-05 -0.000970495 -7.05595e-07)
(3.66251e-05 -0.000624357 -3.20404e-07)
(4.12577e-06 -0.000227103 -4.27773e-08)
(-1.73737e-06 0.00198688 1.60031e-08)
(-6.99738e-07 0.00309929 6.43759e-09)
(-2.10781e-06 0.00367099 1.86845e-08)
(9.14531e-06 0.00389446 -8.01411e-08)
(1.53739e-05 0.00400565 -1.34259e-07)
(-9.09069e-06 0.00393087 7.89797e-08)
(8.28377e-05 0.00379018 -7.24332e-07)
(-0.000108727 0.00368458 9.48726e-07)
(-0.00012823 0.00328775 1.11826e-06)
(0.000151752 0.0031165 -1.32499e-06)
(3.41756e-05 0.00279877 -2.97939e-07)
(0.000105175 0.00250813 -9.17817e-07)
(0.000119192 0.00219087 -1.03999e-06)
(0.000157661 0.00187256 -1.3749e-06)
(0.00018461 0.0015484 -1.61034e-06)
(0.000216118 0.00122056 -1.88522e-06)
(0.000249435 0.000892503 -2.17593e-06)
(0.000282438 0.000564582 -2.46386e-06)
(0.00031729 0.000239661 -2.768e-06)
(0.000351065 -8.05422e-05 -3.06273e-06)
(0.000385303 -0.000392795 -3.36148e-06)
(0.00041984 -0.000694781 -3.66281e-06)
(0.000455616 -0.000985391 -3.97495e-06)
(0.000492407 -0.00126353 -4.29593e-06)
(0.000530213 -0.00152872 -4.62579e-06)
(0.000568508 -0.00178035 -4.95993e-06)
(0.000606868 -0.00201793 -5.29463e-06)
(0.0006447 -0.00224085 -5.62474e-06)
(0.000681469 -0.00244855 -5.94559e-06)
(0.000716626 -0.00264039 -6.25239e-06)
(0.000749661 -0.00281581 -6.54067e-06)
(0.000780088 -0.00297424 -6.80619e-06)
(0.000807451 -0.00311522 -7.045e-06)
(0.000831314 -0.00323833 -7.25328e-06)
(0.000851273 -0.00334326 -7.4275e-06)
(0.000866958 -0.00342979 -7.56443e-06)
(0.000878034 -0.00349779 -7.66107e-06)
(0.000884199 -0.00354725 -7.71494e-06)
(0.000885195 -0.00357824 -7.72371e-06)
(0.000880816 -0.00359093 -7.6856e-06)
(0.000870921 -0.00358556 -7.59934e-06)
(0.000855423 -0.00356247 -7.4642e-06)
(0.00083431 -0.00352202 -7.28006e-06)
(0.000807637 -0.00346462 -7.04741e-06)
(0.000775547 -0.00339073 -6.76749e-06)
(0.000738254 -0.00330074 -6.44217e-06)
(0.000696057 -0.00319504 -6.07405e-06)
(0.000649339 -0.00307397 -5.66647e-06)
(0.000598565 -0.00293777 -5.22348e-06)
(0.000544291 -0.00278655 -4.74996e-06)
(0.000487142 -0.00262024 -4.25134e-06)
(0.000427831 -0.00243856 -3.73384e-06)
(0.00036716 -0.00224097 -3.20446e-06)
(0.000306012 -0.00202655 -2.67091e-06)
(0.000245369 -0.00179386 -2.14175e-06)
(0.000186352 -0.00154074 -1.62676e-06)
(0.000130274 -0.00126381 -1.13741e-06)
(7.88183e-05 -0.000957841 -6.88361e-07)
(3.47541e-05 -0.000614252 -3.04043e-07)
(3.54939e-06 -0.000221903 -3.72625e-08)
(-3.62893e-06 0.00199579 3.26404e-08)
(-3.19371e-06 0.0031111 2.78773e-08)
(-1.47287e-06 0.00365663 1.29905e-08)
(-1.05047e-05 0.00389156 9.17539e-08)
(3.83071e-06 0.00393617 -3.37414e-08)
(-1.47956e-06 0.00385915 1.2827e-08)
(0.00012593 0.00370155 -1.10083e-06)
(-2.05509e-05 0.00351597 1.78531e-07)
(-2.92687e-05 0.00327646 2.53856e-07)
(0.000219025 0.00303929 -1.91148e-06)
(6.50154e-05 0.00275078 -5.66919e-07)
(0.000128972 0.00245398 -1.12583e-06)
(0.000135481 0.00214009 -1.18184e-06)
(0.000174027 0.001819 -1.51772e-06)
(0.000200164 0.00149269 -1.74588e-06)
(0.000232599 0.00116311 -2.02896e-06)
(0.000267156 0.000833242 -2.33045e-06)
(0.000301475 0.000504575 -2.62992e-06)
(0.000337844 0.000179337 -2.94728e-06)
(0.000373319 -0.000140502 -3.25686e-06)
(0.000409455 -0.000452432 -3.57216e-06)
(0.000445697 -0.000754408 -3.88839e-06)
(0.000482739 -0.00104507 -4.21158e-06)
(0.000520429 -0.00132323 -4.54043e-06)
(0.000558783 -0.00158817 -4.87508e-06)
(0.000597441 -0.00183918 -5.21239e-06)
(0.000636034 -0.0020757 -5.54913e-06)
(0.000674048 -0.00229713 -5.88084e-06)
(0.000710961 -0.0025029 -6.20294e-06)
(0.000746233 -0.00269243 -6.51075e-06)
(0.000779338 -0.00286518 -6.79965e-06)
(0.000809771 -0.00302065 -7.06523e-06)
(0.000837051 -0.0031584 -7.30332e-06)
(0.000860722 -0.00327807 -7.50992e-06)
(0.000880358 -0.00337938 -7.68132e-06)
(0.000895573 -0.00346215 -7.81416e-06)
(0.000906019 -0.0035263 -7.9053e-06)
(0.000911389 -0.00357186 -7.95224e-06)
(0.000911424 -0.00359893 -7.95263e-06)
(0.000905922 -0.00360774 -7.90471e-06)
(0.000894749 -0.00359856 -7.80731e-06)
(0.000877832 -0.00357175 -7.65978e-06)
(0.000855173 -0.00352774 -7.46216e-06)
(0.000826848 -0.00346696 -7.21509e-06)
(0.000793021 -0.00338989 -6.92002e-06)
(0.000753929 -0.00329697 -6.57899e-06)
(0.000709895 -0.00318861 -6.19484e-06)
(0.000661325 -0.00306517 -5.77111e-06)
(0.000608709 -0.00292691 -5.31204e-06)
(0.000552626 -0.00277397 -4.82273e-06)
(0.000493721 -0.00260627 -4.30878e-06)
(0.000432729 -0.00242355 -3.77661e-06)
(0.000370474 -0.0022253 -3.2334e-06)
(0.000307862 -0.00201058 -2.68707e-06)
(0.000245903 -0.00177798 -2.14643e-06)
(0.000185767 -0.00152537 -1.62167e-06)
(0.000128833 -0.00124943 -1.12485e-06)
(7.69525e-05 -0.000945126 -6.72077e-07)
(3.30429e-05 -0.000604315 -2.89076e-07)
(3.05533e-06 -0.000217017 -3.25154e-08)
(5.90132e-06 0.0020086 -4.89384e-08)
(1.01474e-06 0.00310593 -7.39516e-09)
(-2.77018e-05 0.00368447 2.41292e-07)
(1.21128e-05 0.00390333 -1.05778e-07)
(1.8529e-05 0.00396143 -1.61377e-07)
(-8.50561e-06 0.00388505 7.38003e-08)
(0.000125537 0.00373561 -1.09685e-06)
(-4.90972e-05 0.0035404 4.27333e-07)
(-5.97041e-05 0.0032744 5.19781e-07)
(0.000218297 0.00301082 -1.90503e-06)
(5.9447e-05 0.002711 -5.18228e-07)
(0.000134378 0.00240618 -1.17259e-06)
(0.000141917 0.00208704 -1.23803e-06)
(0.000183764 0.00176222 -1.60245e-06)
(0.000212369 0.00143287 -1.85232e-06)
(0.000246573 0.00110174 -2.15077e-06)
(0.000283105 0.000770341 -2.46956e-06)
(0.000319166 0.000441234 -2.78422e-06)
(0.000357306 0.000115792 -3.11705e-06)
(0.000394735 -0.000203639 -3.44365e-06)
(0.000433059 -0.000515193 -3.77806e-06)
(0.000471293 -0.000816899 -4.11169e-06)
(0.000510078 -0.00110733 -4.4501e-06)
(0.000549184 -0.0013852 -4.79131e-06)
(0.000588651 -0.00164963 -5.13568e-06)
(0.000628177 -0.00189982 -5.48057e-06)
(0.000667453 -0.00213512 -5.82328e-06)
(0.000706007 -0.00235493 -6.15971e-06)
(0.000743351 -0.00255866 -6.48558e-06)
(0.000778952 -0.00274577 -6.79627e-06)
(0.000812284 -0.00291574 -7.08715e-06)
(0.000842828 -0.00306812 -7.35371e-06)
(0.00087009 -0.00320252 -7.59164e-06)
(0.000893594 -0.0033186 -7.79679e-06)
(0.0009129 -0.00341615 -7.96532e-06)
(0.000927608 -0.00349502 -8.09373e-06)
(0.000937359 -0.00355518 -8.17882e-06)
(0.000941845 -0.00359669 -8.21804e-06)
(0.000940806 -0.00361972 -8.20906e-06)
(0.000934046 -0.00362451 -8.15017e-06)
(0.000921441 -0.0036114 -8.04027e-06)
(0.000902934 -0.00358078 -7.87888e-06)
(0.000878545 -0.00353312 -7.66616e-06)
(0.000848373 -0.00346888 -7.40297e-06)
(0.000812605 -0.00338858 -7.09096e-06)
(0.000771504 -0.00329268 -6.7324e-06)
(0.00072542 -0.00318163 -6.33036e-06)
(0.000674787 -0.00305581 -5.88862e-06)
(0.00062012 -0.00291549 -5.41166e-06)
(0.000562026 -0.00276082 -4.90479e-06)
(0.000501173 -0.00259175 -4.37385e-06)
(0.000438322 -0.00240803 -3.82545e-06)
(0.000374319 -0.00220914 -3.26699e-06)
(0.000310102 -0.00199417 -2.70664e-06)
(0.000246712 -0.00176171 -2.15351e-06)
(0.000185375 -0.00150968 -1.61827e-06)
(0.000127546 -0.00123485 -1.11362e-06)
(7.52439e-05 -0.000932361 -6.57164e-07)
(3.15128e-05 -0.000594542 -2.75696e-07)
(2.63666e-06 -0.000212408 -2.84754e-08)
(-1.16228e-05 0.00201988 1.01889e-07)
(9.74133e-06 0.00311476 -8.51075e-08)
(2.8097e-05 0.00366934 -2.43566e-07)
(-6.11172e-05 0.00383826 5.33294e-07)
(-3.88484e-06 0.00396781 3.40498e-08)
(-3.35898e-05 0.00382919 2.93503e-07)
(0.000126184 0.00369433 -1.10306e-06)
(-4.65824e-05 0.00348 4.05863e-07)
(-5.24058e-05 0.00323119 4.55737e-07)
(0.000228559 0.00296116 -1.99481e-06)
(6.82783e-05 0.00266031 -5.95163e-07)
(0.000145726 0.00235364 -1.27163e-06)
(0.000152288 0.00203116 -1.32834e-06)
(0.00019612 0.00170409 -1.71013e-06)
(0.00022579 0.00137149 -1.96931e-06)
(0.000261476 0.00103852 -2.28074e-06)
(0.000299386 0.000705108 -2.61154e-06)
(0.000337227 0.000375146 -2.94175e-06)
(0.000377114 4.91012e-05 -3.28979e-06)
(0.000416621 -0.000270282 -3.63455e-06)
(0.000456956 -0.000581566 -3.98652e-06)
(0.000497332 -0.000882868 -4.33885e-06)
(0.000538103 -0.0011728 -4.69459e-06)
(0.000579007 -0.00145006 -5.05151e-06)
(0.000619997 -0.00171367 -5.40917e-06)
(0.000660808 -0.00196277 -5.76529e-06)
(0.000701139 -0.00219664 -6.11721e-06)
(0.000740559 -0.00241462 -6.4612e-06)
(0.000778596 -0.00261614 -6.79312e-06)
(0.000814732 -0.00280067 -7.10849e-06)
(0.000848442 -0.00296771 -7.40268e-06)
(0.000879203 -0.00311684 -7.67113e-06)
(0.000906507 -0.00324771 -7.90943e-06)
(0.000929868 -0.00336005 -8.11335e-06)
(0.000948834 -0.00345366 -8.27891e-06)
(0.000962994 -0.00352846 -8.40255e-06)
(0.000971984 -0.00358446 -8.48099e-06)
(0.000975492 -0.00362177 -8.51169e-06)
(0.000973262 -0.0036406 -8.49232e-06)
(0.000965107 -0.00364124 -8.42126e-06)
(0.000950916 -0.00362408 -8.29753e-06)
(0.000930649 -0.00358954 -8.12077e-06)
(0.000904347 -0.00353812 -7.89136e-06)
(0.000872134 -0.00347035 -7.61036e-06)
(0.000834224 -0.00338675 -7.27966e-06)
(0.00079091 -0.00328783 -6.90179e-06)
(0.000742571 -0.00317406 -6.48008e-06)
(0.000689671 -0.00304583 -6.01855e-06)
(0.000632755 -0.00290345 -5.52196e-06)
(0.000572459 -0.00274706 -4.99587e-06)
(0.000509478 -0.00257664 -4.44635e-06)
(0.000444599 -0.00239194 -3.88026e-06)
(0.0003787 -0.00219245 -3.30525e-06)
(0.000312747 -0.00197727 -2.72976e-06)
(0.000247823 -0.00174503 -2.16323e-06)
(0.000185214 -0.00149367 -1.61688e-06)
(0.000126453 -0.00122006 -1.10409e-06)
(7.37241e-05 -0.000919546 -6.439e-07)
(3.01709e-05 -0.000584921 -2.63957e-07)
(2.28513e-06 -0.000208043 -2.50781e-08)
(-7.60541e-07 0.00203045 7.58939e-09)
(-2.14086e-06 0.00313896 1.98784e-08)
(-5.12139e-05 0.00365741 4.47502e-07)
(5.45999e-05 0.00384279 -4.73623e-07)
(0.000124358 0.00395581 -1.08299e-06)
(-9.03814e-05 0.00382011 7.87979e-07)
(0.000175501 0.00367877 -1.53233e-06)
(-4.71599e-05 0.003456 4.10734e-07)
(-3.58561e-05 0.00320288 3.11536e-07)
(0.000234506 0.00292044 -2.04712e-06)
(7.49831e-05 0.00261396 -6.53406e-07)
(0.000155422 0.00229924 -1.35603e-06)
(0.000160869 0.00197148 -1.40283e-06)
(0.000205925 0.00164141 -1.79555e-06)
(0.00023704 0.0013051 -2.0674e-06)
(0.000274621 0.000970655 -2.39534e-06)
(0.000314451 0.00063549 -2.74292e-06)
(0.000354652 0.000304959 -3.09371e-06)
(0.000396576 -2.15096e-05 -3.45952e-06)
(0.000438583 -0.000340722 -3.82607e-06)
(0.000481412 -0.000651664 -4.19985e-06)
(0.000524211 -0.000952439 -4.57334e-06)
(0.000567261 -0.00124168 -4.94898e-06)
(0.000610236 -0.0015181 -5.32397e-06)
(0.000653068 -0.00178064 -5.69772e-06)
(0.000695479 -0.00202839 -6.0678e-06)
(0.000737174 -0.00226057 -6.43164e-06)
(0.000777734 -0.00247652 -6.78558e-06)
(0.000816698 -0.00267562 -7.12561e-06)
(0.000853557 -0.00285736 -7.44729e-06)
(0.000887787 -0.00302127 -7.74602e-06)
(0.000918861 -0.00316696 -8.0172e-06)
(0.000946264 -0.00329412 -8.25638e-06)
(0.000969501 -0.00340251 -8.45922e-06)
(0.000988112 -0.003492 -8.62169e-06)
(0.00100168 -0.00356254 -8.74016e-06)
(0.00100983 -0.0036142 -8.81132e-06)
(0.00101227 -0.00364713 -8.83263e-06)
(0.00100873 -0.00366159 -8.80182e-06)
(0.000999034 -0.00365793 -8.71736e-06)
(0.0009831 -0.00363657 -8.57842e-06)
(0.0009609 -0.00359798 -8.38481e-06)
(0.000932503 -0.00354271 -8.13711e-06)
(0.000898057 -0.00347131 -7.83663e-06)
(0.000857809 -0.00338435 -7.48552e-06)
(0.000812081 -0.00328236 -7.0866e-06)
(0.000761288 -0.00316583 -6.64346e-06)
(0.000705925 -0.00303518 -6.16045e-06)
(0.00064657 -0.00289072 -5.64257e-06)
(0.00058389 -0.00273263 -5.09567e-06)
(0.00051861 -0.00256088 -4.52609e-06)
(0.000451549 -0.00237523 -3.94095e-06)
(0.000383614 -0.00217519 -3.34817e-06)
(0.000315809 -0.00195987 -2.7565e-06)
(0.000249257 -0.00172791 -2.17576e-06)
(0.000185311 -0.00147732 -1.61774e-06)
(0.000125582 -0.00120505 -1.09651e-06)
(7.24122e-05 -0.000906679 -6.3245e-07)
(2.90153e-05 -0.000575436 -2.53851e-07)
(1.9924e-06 -0.000203885 -2.22402e-08)
(-2.54409e-06 0.00204297 2.28144e-08)
(1.28704e-07 0.00313765 -2.65094e-10)
(-4.39397e-05 0.00367332 3.84255e-07)
(1.66429e-05 0.00388605 -1.4201e-07)
(7.95815e-05 0.00389428 -6.92652e-07)
(-0.000114773 0.00379178 1.00125e-06)
(0.000153892 0.0036124 -1.34439e-06)
(-6.14918e-05 0.00337841 5.36437e-07)
(-4.81559e-05 0.00315106 4.19072e-07)
(0.000224352 0.00285657 -1.95764e-06)
(7.29795e-05 0.00255678 -6.35838e-07)
(0.000156483 0.00223869 -1.36492e-06)
(0.000168316 0.00190736 -1.4678e-06)
(0.000216583 0.0015764 -1.88855e-06)
(0.000249953 0.0012361 -2.18013e-06)
(0.000290356 0.000900359 -2.53259e-06)
(0.00033164 0.000562909 -2.89288e-06)
(0.00037422 0.000231517 -3.26442e-06)
(0.000417972 -9.56961e-05 -3.64617e-06)
(0.000462358 -0.000414964 -4.03349e-06)
(0.000507303 -0.000725666 -4.4257e-06)
(0.000552523 -0.00102586 -4.8203e-06)
(0.000597928 -0.00131429 -5.21651e-06)
(0.000643174 -0.00158965 -5.61134e-06)
(0.000688086 -0.00185088 -6.00325e-06)
(0.000732361 -0.00209702 -6.3896e-06)
(0.000775675 -0.00232726 -6.76758e-06)
(0.00081761 -0.00254091 -7.13353e-06)
(0.000857705 -0.00273736 -7.48343e-06)
(0.000895451 -0.00291608 -7.81286e-06)
(0.000930325 -0.00307663 -8.11722e-06)
(0.000961796 -0.00321866 -8.39188e-06)
(0.000989345 -0.00334187 -8.63233e-06)
(0.00101247 -0.0034461 -8.83419e-06)
(0.0010307 -0.00353124 -8.99337e-06)
(0.00104362 -0.00359731 -9.10621e-06)
(0.00105086 -0.00364442 -9.16937e-06)
(0.00105211 -0.00367277 -9.18038e-06)
(0.00104713 -0.00368269 -9.13704e-06)
(0.00103576 -0.00367456 -9.03791e-06)
(0.00101792 -0.00364885 -8.88235e-06)
(0.000993618 -0.00360608 -8.67037e-06)
(0.00096294 -0.00354685 -8.40278e-06)
(0.000926071 -0.00347173 -8.08115e-06)
(0.00088329 -0.00338133 -7.70794e-06)
(0.000834954 -0.00327621 -7.28625e-06)
(0.000781512 -0.00315689 -6.82e-06)
(0.000723497 -0.0030238 -6.31384e-06)
(0.00066152 -0.00287727 -5.77308e-06)
(0.000596284 -0.00271749 -5.20388e-06)
(0.000528546 -0.00254443 -4.61284e-06)
(0.000459156 -0.00235787 -4.00738e-06)
(0.000389058 -0.00215733 -3.39571e-06)
(0.000319291 -0.00194192 -2.78692e-06)
(0.000251027 -0.00171033 -2.19123e-06)
(0.000185684 -0.00146061 -1.62101e-06)
(0.000124954 -0.00118983 -1.09103e-06)
(7.13174e-05 -0.000893756 -6.22897e-07)
(2.80386e-05 -0.000566066 -2.45308e-07)
(1.75062e-06 -0.000199904 -1.98954e-08)
(-1.48201e-06 0.00205653 1.3431e-08)
(-2.74709e-06 0.0031491 2.46635e-08)
(-4.9402e-05 0.00366992 4.32036e-07)
(2.34576e-05 0.00388152 -2.01639e-07)
(8.88564e-05 0.00392874 -7.73902e-07)
(-9.95133e-05 0.00385024 8.68058e-07)
(0.000179452 0.00369862 -1.56782e-06)
(8.30428e-06 0.00345451 -7.29712e-08)
(3.08499e-05 0.00317855 -2.70082e-07)
(0.000245357 0.00283469 -2.14074e-06)
(0.000105894 0.00251837 -9.23056e-07)
(0.000171104 0.00218374 -1.49292e-06)
(0.00018336 0.00184587 -1.59878e-06)
(0.000229695 0.00150806 -2.00319e-06)
(0.000262452 0.00116383 -2.2891e-06)
(0.000305448 0.000825686 -2.66427e-06)
(0.00034799 0.000486195 -3.03549e-06)
(0.000393711 0.000153844 -3.43445e-06)
(0.000439553 -0.000174033 -3.83444e-06)
(0.000486871 -0.00049342 -4.24731e-06)
(0.000534519 -0.000803843 -4.66313e-06)
(0.000582464 -0.0011034 -5.08152e-06)
(0.000630455 -0.00139088 -5.5003e-06)
(0.000678153 -0.001665 -5.91653e-06)
(0.000725336 -0.00192468 -6.32826e-06)
(0.00077167 -0.00216895 -6.73258e-06)
(0.000816803 -0.00239699 -7.12644e-06)
(0.000860302 -0.00260807 -7.50605e-06)
(0.000901693 -0.00280159 -7.86727e-06)
(0.000940466 -0.00297703 -8.20567e-06)
(0.000976088 -0.00313397 -8.51656e-06)
(0.00100803 -0.00327207 -8.7953e-06)
(0.00103575 -0.00339109 -9.03731e-06)
(0.00105876 -0.0034909 -9.23818e-06)
(0.00107658 -0.00357146 -9.39378e-06)
(0.0010888 -0.00363282 -9.50043e-06)
(0.00109503 -0.00367515 -9.55484e-06)