/*--------------------------------*- C++ -*----------------------------------*\
| =========                 |                                                 |
| \\      /  F ield         | OpenFOAM: The Open Source CFD Toolbox           |
|  \\    /   O peration     | Version:  v2012                                 |
|   \\  /    A nd           | Website:  www.openfoam.com                      |
|    \\/     M anipulation  |                                                 |
\*---------------------------------------------------------------------------*/
FoamFile
{
    version     2.0;
    format      ascii;
    class       surfaceScalarField;
    location    "0.7";
    object      phi;
}
// * * * * * * * * * * * * * * * * * * * * * * * * * * * * * * * * * * * * * //

dimensions      [0 3 -1 0 0 0 0];
oriented        oriented;


internalField   nonuniform List<scalar> 
8162
(
3.28081e-11
-3.90238e-10
-1.02307e-16
3.83795e-11
-4.42052e-10
-1.569e-16
4.45501e-11
-4.98415e-10
4.23902e-17
5.13347e-11
-5.59441e-10
2.12212e-16
5.87426e-11
-6.25373e-10
4.09498e-16
6.67719e-11
-6.96295e-10
4.78478e-16
7.54132e-11
-7.72364e-10
6.3083e-16
8.46433e-11
-8.53664e-10
7.50206e-16
9.44262e-11
-9.4015e-10
8.75542e-16
1.0471e-10
-1.03198e-09
9.34703e-16
1.15427e-10
-1.12892e-09
9.818e-16
1.2649e-10
-1.23096e-09
9.99825e-16
1.37794e-10
-1.33789e-09
9.86703e-16
1.49216e-10
-1.44943e-09
9.56833e-16
1.60611e-10
-1.56524e-09
8.91204e-16
1.71815e-10
-1.68488e-09
8.34938e-16
1.82645e-10
-1.80789e-09
7.59558e-16
1.92903e-10
-1.93357e-09
7.23047e-16
2.02378e-10
-2.06125e-09
6.71429e-16
-2.19008e-09
6.63888e-16
2.48742e-11
-3.03515e-10
-8.10871e-18
2.95951e-11
-3.47457e-10
1.83213e-16
3.48934e-11
-3.95533e-10
2.35805e-16
4.07977e-11
-4.47953e-10
2.56404e-16
4.73311e-11
-5.04944e-10
4.15838e-16
5.45086e-11
-5.66613e-10
5.2346e-16
6.23385e-11
-6.33197e-10
6.63412e-16
7.08174e-11
-7.04768e-10
6.65755e-16
7.99335e-11
-7.81473e-10
7.65281e-16
8.96609e-11
-8.63384e-10
8.30524e-16
9.99594e-11
-9.5044e-10
9.20237e-16
1.10773e-10
-1.04279e-09
9.43687e-16
1.22027e-10
-1.14017e-09
9.76219e-16
1.33629e-10
-1.24255e-09
9.71275e-16
1.45467e-10
-1.34972e-09
9.61064e-16
1.57409e-10
-1.46136e-09
9.14282e-16
1.69301e-10
-1.57713e-09
8.64366e-16
1.80971e-10
-1.69655e-09
7.92451e-16
1.92227e-10
-1.81914e-09
7.40043e-16
2.0286e-10
-1.94419e-09
6.82474e-16
2.1265e-10
-2.07104e-09
6.55419e-16
-2.19878e-09
6.16044e-16
3.31329e-15
-2.61675e-13
-1.08012e-18
2.98512e-14
-1.96718e-12
-2.42732e-17
1.03752e-13
-5.30112e-12
-6.27851e-17
2.47857e-13
-1.02222e-11
-3.00916e-16
4.90328e-13
-1.67621e-11
-1.1342e-16
8.55571e-13
-2.49949e-11
-9.57512e-17
1.3671e-12
-3.50214e-11
-2.62521e-16
2.06656e-12
-4.69667e-11
1.35825e-15
2.97242e-12
-6.09663e-11
1.77111e-15
-7.71639e-11
-1.4226e-15
9.37721e-12
-1.40716e-10
-1.27398e-15
1.18688e-11
-1.67475e-10
2.42818e-16
1.4785e-11
-1.9739e-10
-1.60317e-16
1.81679e-11
-2.30621e-10
-8.34904e-17
2.20559e-11
-2.67407e-10
-4.59978e-17
2.6486e-11
-3.07945e-10
-1.27885e-17
3.14943e-11
-3.52465e-10
-9.97041e-17
3.71125e-11
-4.01151e-10
4.89394e-18
4.33685e-11
-4.54209e-10
4.65654e-17
5.02854e-11
-5.11859e-10
2.24433e-16
5.78779e-11
-5.74203e-10
3.60832e-16
6.6153e-11
-6.41468e-10
5.22008e-16
7.51055e-11
-7.13715e-10
5.70256e-16
8.47212e-11
-7.91083e-10
6.89941e-16
9.49706e-11
-8.73627e-10
7.91285e-16
1.05809e-10
-9.61271e-10
8.87945e-16
1.17176e-10
-1.05415e-09
9.37693e-16
1.28991e-10
-1.15198e-09
9.66476e-16
1.41153e-10
-1.25471e-09
9.80396e-16
1.53544e-10
-1.36211e-09
9.58284e-16
1.66023e-10
-1.47383e-09
9.29107e-16
1.78426e-10
-1.58952e-09
8.62332e-16
1.90573e-10
-1.70869e-09
8.1153e-16
2.02262e-10
-1.83082e-09
7.38195e-16
2.13273e-10
-1.9552e-09
7.0609e-16
2.23377e-10
-2.08113e-09
6.51711e-16
-2.20773e-09
6.32307e-16
3.60616e-15
-2.6524e-13
5.0807e-18
3.23583e-14
-1.99577e-12
2.23135e-17
1.12176e-13
-5.38057e-12
4.78569e-17
2.68326e-13
-1.03783e-11
-8.73979e-19
5.29921e-13
-1.70227e-11
1.25223e-16
9.19061e-13
-2.53882e-11
-4.73929e-16
1.46845e-12
-3.55769e-11
-7.34506e-16
2.22418e-12
-4.77133e-11
1.06374e-15
3.20086e-12
-6.19343e-11
1.24995e-15
4.44492e-12
-7.83983e-11
3.32412e-16
5.97551e-12
-9.72667e-11
2.49685e-15
7.80842e-12
-1.18704e-10
-2.80933e-15
1.00283e-11
-1.4294e-10
-6.90285e-16
1.26742e-11
-1.70119e-10
1.60108e-16
1.57699e-11
-2.00487e-10
-1.65783e-16
1.93678e-11
-2.34217e-10
1.22316e-16
2.34973e-11
-2.71536e-10
1.07823e-16
2.82034e-11
-3.12649e-10
2.32438e-16
3.35177e-11
-3.57778e-10
1.33666e-16
3.94755e-11
-4.07107e-10
2.5864e-16
4.6104e-11
-4.60834e-10
3.2231e-16
5.34268e-11
-5.19177e-10
5.2177e-16
6.14574e-11
-5.82227e-10
6.37746e-16
7.02018e-11
-6.50205e-10
7.86619e-16
7.96529e-11
-7.23159e-10
7.97646e-16
8.97935e-11
-8.01215e-10
8.88524e-16
1.0059e-10
-8.84415e-10
9.39806e-16
1.11995e-10
-9.72666e-10
1.0076e-15
1.2394e-10
-1.06608e-09
1.01843e-15
1.36338e-10
-1.16436e-09
1.03398e-15
1.49083e-10
-1.26744e-09
1.01801e-15
1.62046e-10
-1.37506e-09
9.96781e-16
1.75078e-10
-1.48686e-09
9.41757e-16
1.88007e-10
-1.60244e-09
8.87751e-16
2.00641e-10
-1.72131e-09
8.11876e-16
2.12768e-10
-1.84294e-09
7.60709e-16
2.2416e-10
-1.96659e-09
7.00909e-16
2.34575e-10
-2.09154e-09
6.74115e-16
-2.21691e-09
6.15903e-16
3.87222e-15
-2.69098e-13
1.39724e-18
3.50223e-14
-2.02654e-12
4.55207e-17
1.20733e-13
-5.46605e-12
2.63241e-17
2.87189e-13
-1.05463e-11
-1.77436e-16
5.67948e-13
-1.73011e-11
2.6487e-16
9.83447e-13
-2.58068e-11
-3.96761e-16
1.56962e-12
-3.61665e-11
-4.12115e-16
2.37138e-12
-4.85076e-11
9.69877e-16
3.40706e-12
-6.29663e-11
6.0375e-16
4.73041e-12
-7.97067e-11
1.19664e-15
6.36779e-12
-9.88911e-11
1.61782e-15
8.32886e-12
-1.2069e-10
-2.49296e-15
1.07034e-11
-1.45317e-10
-5.03052e-16
1.35234e-11
-1.72938e-10
2.33433e-16
1.68196e-11
-2.03785e-10
-2.34403e-16
2.0647e-11
-2.38039e-10
4.09174e-16
2.50352e-11
-2.75923e-10
1.32441e-16
3.00334e-11
-3.17644e-10
4.55896e-16
3.56728e-11
-3.63415e-10
2.54776e-16
4.199e-11
-4.13421e-10
3.25406e-16
4.90129e-11
-4.67854e-10
3.46381e-16
5.67649e-11
-5.26925e-10
5.19072e-16
6.52584e-11
-5.90715e-10
6.22386e-16
7.4498e-11
-6.59438e-10
7.69324e-16
8.44743e-11
-7.33129e-10
8.08841e-16
9.51668e-11
-8.119e-10
9.03627e-16
1.06538e-10
-8.95779e-10
9.72453e-16
1.18534e-10
-9.84653e-10
1.03187e-15
1.31083e-10
-1.07862e-09
1.05741e-15
1.44089e-10
-1.17736e-09
1.05754e-15
1.57438e-10
-1.28078e-09
1.05282e-15
1.70994e-10
-1.38861e-09
1.00898e-15
1.84596e-10
-1.50045e-09
9.67158e-16
1.98064e-10
-1.6159e-09
8.86411e-16
2.11195e-10
-1.73443e-09
8.30242e-16
2.23765e-10
-1.8555e-09
7.48906e-16
2.35537e-10
-1.97835e-09
7.15182e-16
2.46261e-10
-2.10226e-09
6.50543e-16
2.55672e-10
-2.22632e-09
6.0694e-16
-2.34902e-09
5.55767e-16
4.19181e-15
-2.73276e-13
1.53587e-18
3.76425e-14
-2.05978e-12
2.58679e-17
1.29749e-13
-5.55799e-12
2.12387e-17
3.09375e-13
-1.07264e-11
-5.55881e-17
6.10552e-13
-1.76001e-11
2.55969e-16
1.05656e-12
-2.62568e-11
-4.88504e-16
1.68602e-12
-3.68e-11
-4.53874e-16
2.5435e-12
-4.93602e-11
6.13459e-16
3.6519e-12
-6.40767e-11
-5.38614e-17
5.0654e-12
-8.11116e-11
3.81862e-16
6.81018e-12
-1.00628e-10
1.06556e-15
8.90061e-12
-1.22805e-10
-2.5369e-15
1.14303e-11
-1.47853e-10
-8.34395e-16
1.44326e-11
-1.7594e-10
-4.1968e-17
1.79405e-11
-2.07298e-10
-5.11661e-16
2.2012e-11
-2.42107e-10
3.04444e-16
2.66765e-11
-2.80588e-10
5.46305e-18
3.19856e-11
-3.22949e-10
4.31723e-16
3.79705e-11
-3.69399e-10
1.7185e-16
4.46693e-11
-4.20117e-10
3.11849e-16
5.21099e-11
-4.75291e-10
3.99817e-16
6.03156e-11
-5.35125e-10
6.41539e-16
6.92977e-11
-5.9969e-10
7.58812e-16
7.90591e-11
-6.69191e-10
9.26629e-16
8.9588e-11
-7.43649e-10
9.58673e-16
1.0086e-10
-8.23163e-10
1.04967e-15
1.12834e-10
-9.07743e-10
1.08488e-15
1.25449e-10
-9.97258e-10
1.13065e-15
1.38627e-10
-1.09179e-09
1.12409e-15
1.52266e-10
-1.19099e-09
1.11902e-15
1.66242e-10
-1.29475e-09
1.08238e-15
1.80409e-10
-1.40277e-09
1.04239e-15
1.94599e-10
-1.51463e-09
9.68043e-16
2.08618e-10
-1.62991e-09
9.01694e-16
2.22253e-10
-1.74806e-09
8.1191e-16
2.35272e-10
-1.86851e-09
7.54553e-16
2.47423e-10
-1.9905e-09
6.83213e-16
2.58449e-10
-2.11328e-09
6.48296e-16
2.68075e-10
-2.23594e-09
5.54325e-16
-2.35697e-09
4.85492e-16
4.53005e-15
-2.77797e-13
8.47559e-19
4.0624e-14
-2.09558e-12
3.45746e-17
1.39572e-13
-5.65691e-12
1.11864e-18
3.32375e-13
-1.092e-11
-9.97552e-17
6.55057e-13
-1.79208e-11
2.42905e-16
1.13561e-12
-2.67378e-11
-5.29982e-17
1.80801e-12
-3.74784e-11
-7.17484e-16
2.71994e-12
-5.02729e-11
-8.10115e-17
3.91126e-12
-6.52605e-11
1.02512e-15
5.41602e-12
-8.26115e-11
-4.60752e-17
7.27872e-12
-1.02484e-10
8.69025e-16
9.51045e-12
-1.25064e-10
-2.77137e-15
1.22081e-11
-1.50557e-10
-1.00098e-15
1.54063e-11
-1.79139e-10
1.5666e-17
1.91404e-11
-2.11036e-10
-5.59857e-16
2.34705e-11
-2.46433e-10
3.23094e-16
2.84285e-11
-2.85546e-10
-4.59937e-19
3.4067e-11
-3.28583e-10
4.76254e-16
4.04185e-11
-3.75748e-10
1.95129e-16
4.75218e-11
-4.27218e-10
2.94962e-16
5.54049e-11
-4.83171e-10
3.3656e-16
6.40907e-11
-5.43806e-10
5.50876e-16
7.35892e-11
-6.09183e-10
6.63858e-16
8.39012e-11
-6.79495e-10
8.41732e-16
9.50119e-11
-7.54752e-10
9.1798e-16
1.06893e-10
-8.35035e-10
1.02401e-15
1.19498e-10
-9.20338e-10
1.0859e-15
1.32761e-10
-1.01051e-09
1.12726e-15
1.46596e-10
-1.10561e-09
1.13998e-15
1.60892e-10
-1.20528e-09
1.11828e-15
1.75517e-10
-1.30936e-09
1.09527e-15
1.90316e-10
-1.41756e-09
1.02841e-15
2.05109e-10
-1.52941e-09
9.70119e-16
2.19691e-10
-1.64449e-09
8.71457e-16
2.33839e-10
-1.7622e-09
8.05647e-16
2.47307e-10
-1.88198e-09
7.11682e-16
2.59836e-10
-2.00302e-09
6.71128e-16
2.71155e-10
-2.12459e-09
5.9334e-16
2.80984e-10
-2.24576e-09
5.33168e-16
2.89043e-10
-2.36502e-09
4.01426e-16
-2.48261e-09
3.39e-16
4.91584e-15
-2.82691e-13
2.84401e-18
4.37768e-14
-2.13422e-12
2.57932e-17
1.50188e-13
-5.76339e-12
-9.63093e-18
3.57634e-13
-1.1128e-11
-5.72138e-17
7.03667e-13
-1.82649e-11
2.2589e-16
1.21814e-12
-2.72542e-11
-2.17791e-16
1.93935e-12
-3.8204e-11
-5.2609e-16
2.91492e-12
-5.12479e-11
6.92559e-17
4.18779e-12
-6.65269e-11
9.34161e-16
5.79422e-12
-8.42137e-11
-1.12907e-16
7.78127e-12
-1.04465e-10
8.00796e-16
1.01644e-11
-1.27473e-10
-2.63842e-15
1.30402e-11
-1.53441e-10
-1.0781e-15
1.64477e-11
-1.82546e-10
8.27999e-18
2.04235e-11
-2.15017e-10
-5.74148e-16
2.50296e-11
-2.51036e-10
3.04627e-16
3.03006e-11
-2.90818e-10
-3.8861e-19
3.62895e-11
-3.34568e-10
4.68994e-16
4.30307e-11
-3.82487e-10
2.01053e-16
5.0563e-11
-4.34747e-10
3.42004e-16
5.89148e-11
-4.91519e-10
3.93486e-16
6.81082e-11
-5.52994e-10
6.27682e-16
7.81516e-11
-6.1922e-10
7.28323e-16
8.90438e-11
-6.90379e-10
9.09482e-16
1.00767e-10
-7.66466e-10
9.7378e-16
1.13287e-10
-8.47546e-10
1.07841e-15
1.26554e-10
-9.33595e-10
1.11516e-15
1.40493e-10
-1.02444e-09
1.15448e-15
1.55012e-10
-1.12012e-09
1.14242e-15
1.69992e-10
-1.22025e-09
1.12643e-15
1.85289e-10
-1.32465e-09
1.07367e-15
2.00739e-10
-1.433e-09
1.01948e-15
2.1615e-10
-1.54482e-09
9.26722e-16
2.31306e-10
-1.65964e-09
8.50757e-16
2.45972e-10
-1.77686e-09
7.47784e-16
2.59892e-10
-1.89589e-09
6.8732e-16
2.72793e-10
-2.01592e-09
6.04635e-16
2.84396e-10
-2.13619e-09
5.67411e-16
2.94411e-10
-2.25577e-09
4.60798e-16
3.02552e-10
-2.37316e-09
3.78494e-16
-2.48859e-09
2.53121e-16
5.2987e-15
-2.8799e-13
-8.10815e-19
4.71197e-14
-2.17586e-12
2.12355e-17
1.61798e-13
-5.87785e-12
2.71066e-17
3.84334e-13
-1.13515e-11
-1.16492e-16
7.55679e-13
-1.86341e-11
2.53304e-16
1.30804e-12
-2.78074e-11
-9.42639e-17
2.0798e-12
-3.89816e-11
-6.93539e-16
3.12349e-12
-5.22914e-11
3.7431e-17
4.48557e-12
-6.78814e-11
1.07127e-15
6.20484e-12
-8.59252e-11
3.08738e-16
8.32441e-12
-1.06579e-10
8.14246e-16
1.08692e-11
-1.30042e-10
-2.50646e-15
1.39344e-11
-1.56514e-10
-1.10461e-15
1.75642e-11
-1.86176e-10
-1.95811e-17
2.17973e-11
-2.19255e-10
-5.85978e-16
2.66968e-11
-2.55932e-10
2.4591e-16
3.23004e-11
-2.96422e-10
-8.3557e-19
3.86615e-11
-3.40926e-10
4.21257e-16
4.58163e-11
-3.89641e-10
1.28042e-16
5.38039e-11
-4.42732e-10
2.62738e-16
6.26524e-11
-5.00364e-10
3.11474e-16
7.2383e-11
-5.62719e-10
5.4026e-16
8.30023e-11
-6.29833e-10
6.51233e-16
9.45064e-11
-7.01876e-10
8.32701e-16
1.06873e-10
-7.78825e-10
9.23906e-16
1.20065e-10
-8.60729e-10
1.02584e-15
1.34024e-10
-9.47545e-10
1.07988e-15
1.48671e-10
-1.03908e-09
1.10499e-15
1.63903e-10
-1.13534e-09
1.10935e-15
1.79591e-10
-1.23592e-09
1.07096e-15
1.95584e-10
-1.34064e-09
1.03497e-15
2.11704e-10
-1.44911e-09
9.50667e-16
2.27747e-10
-1.56085e-09
8.81281e-16
2.43488e-10
-1.67537e-09
7.70712e-16
2.58677e-10
-1.79204e-09
7.02572e-16
2.73046e-10
-1.91025e-09
6.04201e-16
2.86313e-10
-2.02918e-09
5.65742e-16
2.98188e-10
-2.14806e-09
4.84302e-16
3.08371e-10
-2.26595e-09
4.31035e-16
3.1657e-10
-2.38135e-09
3.08535e-16
-2.49452e-09
2.46145e-16
5.74884e-15
-2.93727e-13
1.10103e-18
5.08018e-14
-2.22083e-12
9.7212e-18
1.74223e-13
-6.00113e-12
1.75372e-17
4.13345e-13
-1.15916e-11
-1.243e-16
8.11908e-13
-1.90301e-11
3.03737e-16
1.40517e-12
-2.83999e-11
9.25618e-17
2.23185e-12
-3.98146e-11
-7.63747e-16
3.34786e-12
-5.34082e-11
-9.51442e-17
4.80159e-12
-6.93262e-11
1.21871e-15
6.6358e-12
-8.77502e-11
4.91218e-16
8.89869e-12
-1.08834e-10
9.70486e-16
1.16185e-11
-1.32786e-10
-2.47172e-15
1.48893e-11
-1.59791e-10
-9.13806e-16
1.87588e-11
-1.90045e-10
5.49341e-17
2.32676e-11
-2.23768e-10
-4.6504e-16
2.84808e-11
-2.61142e-10
2.74725e-16
3.44388e-11
-3.02379e-10
6.41894e-17
4.11959e-11
-3.47679e-10
4.8029e-16
4.87904e-11
-3.97232e-10
3.099e-16
5.72611e-11
-4.51199e-10
4.68199e-16
6.66357e-11
-5.09734e-10
4.80524e-16
7.69344e-11
-5.73012e-10
6.69296e-16
8.81617e-11
-6.41054e-10
7.30891e-16
1.00311e-10
-7.14017e-10
8.77529e-16
1.13355e-10
-7.91861e-10
9.31279e-16
1.27252e-10
-8.74617e-10
1.01436e-15
1.41936e-10
-9.6222e-10
1.03611e-15
1.5732e-10
-1.05445e-09
1.05857e-15
1.73294e-10
-1.15131e-09
1.03601e-15
1.89718e-10
-1.25234e-09
1.00933e-15
2.06428e-10
-1.35734e-09
9.42767e-16
2.23237e-10
-1.46591e-09
8.80911e-16
2.39927e-10
-1.57754e-09
7.75874e-16
2.5626e-10
-1.69169e-09
7.00472e-16
2.71975e-10
-1.80775e-09
5.94309e-16
2.86792e-10
-1.92506e-09
5.45273e-16
3.00415e-10
-2.0428e-09
4.64446e-16
3.12546e-10
-2.16018e-09
4.41013e-16
3.22876e-10
-2.27628e-09
3.41534e-16
3.31107e-10
-2.38958e-09
2.92769e-16
-2.50035e-09
1.86688e-16
6.21917e-15
-2.99942e-13
-3.45283e-20
5.48758e-14
-2.26929e-12
2.24695e-17
1.87594e-13
-6.13375e-12
1.11094e-17
4.44817e-13
-1.18497e-11
-9.78323e-17
8.71787e-13
-1.94558e-11
1.46178e-16
1.50597e-12
-2.90365e-11
-3.01085e-16
2.39255e-12
-4.07081e-11
-8.01834e-16
3.59123e-12
-5.46016e-11
6.92935e-16
5.14934e-12
-7.08794e-11
7.05649e-16
7.12105e-12
-8.97072e-11
1.02864e-15
9.53381e-12
-1.11238e-10
1.22381e-15
1.24383e-11
-1.35713e-10
-2.28111e-15
1.59233e-11
-1.63281e-10
-8.1832e-16
2.00443e-11
-1.94166e-10
-2.9365e-18
2.48444e-11
-2.28572e-10
-5.13242e-16
3.03907e-11
-2.66686e-10
1.92359e-16
3.67255e-11
-3.08715e-10
-6.9575e-17
4.3904e-11
-3.54855e-10
2.54292e-16
5.19652e-11
-4.05294e-10
-2.20167e-17
6.09486e-11
-4.60181e-10
1.27421e-16
7.0881e-11
-5.19665e-10
1.78553e-16
8.1781e-11
-5.83909e-10
4.09959e-16
9.36507e-11
-6.52919e-10
5.3641e-16
1.0648e-10
-7.2684e-10
7.1566e-16
1.20237e-10
-8.0561e-10
8.16128e-16
1.34873e-10
-8.89245e-10
9.0233e-16
1.50316e-10
-9.77655e-10
9.46324e-16
1.6647e-10
-1.0706e-09
9.49934e-16
1.83215e-10
-1.16804e-09
9.43788e-16
2.00401e-10
-1.26952e-09
8.87976e-16
2.17852e-10
-1.37478e-09
8.42439e-16
2.35367e-10
-1.48342e-09
7.46174e-16
2.52717e-10
-1.59488e-09
6.74206e-16
2.6965e-10
-1.70862e-09
5.61979e-16
2.85892e-10
-1.82398e-09
5.05217e-16
3.01149e-10
-1.94032e-09
4.17977e-16
3.15117e-10
-2.05676e-09
3.99643e-16
3.27487e-10
-2.17255e-09
3.31289e-16
3.3794e-10
-2.28673e-09
3.03041e-16
3.46173e-10
-2.39781e-09
2.11378e-16
-2.50607e-09
1.86671e-16
6.75535e-15
-3.06671e-13
3.00114e-18
5.91952e-14
-2.32164e-12
9.00759e-18
2.0217e-13
-6.27674e-12
-3.75603e-18
4.78503e-13
-1.21275e-11
-1.75241e-16
9.37363e-13
-1.99123e-11
2.7358e-16
1.62023e-12
-2.97172e-11
2.49447e-16
2.57137e-12
-4.16636e-11
-4.68898e-16
3.85802e-12
-5.5875e-11
1.67258e-15
5.51308e-12
-7.25235e-11
1.3974e-15
7.59867e-12
-9.17828e-11
2.51632e-16
1.01749e-11
-1.13807e-10
9.02799e-16
1.32886e-11
-1.38841e-10
-1.2537e-15
1.70122e-11
-1.67009e-10
-6.54891e-16
2.14111e-11
-1.98563e-10
1.84193e-16
2.65285e-11
-2.33692e-10
-3.70523e-16
3.24335e-11
-2.72587e-10
2.66091e-16
3.91717e-11
-3.15453e-10
6.47303e-17
4.67993e-11
-3.62479e-10
3.78308e-16
5.53575e-11
-4.13849e-10
2.70356e-16
6.48853e-11
-4.69705e-10
4.28572e-16
7.54088e-11
-5.30184e-10
4.2579e-16
8.69448e-11
-5.95439e-10
5.89384e-16
9.94929e-11
-6.65461e-10
6.43065e-16
1.13038e-10
-7.40378e-10
7.59567e-16
1.27545e-10
-8.2011e-10
8.01085e-16
1.42956e-10
-9.04649e-10
8.50502e-16
1.59194e-10
-9.93885e-10
8.49081e-16
1.76151e-10
-1.08754e-09
8.44328e-16
1.93697e-10
-1.18558e-09
8.02883e-16
2.11671e-10
-1.28748e-09
7.61656e-16
2.29884e-10
-1.39299e-09
6.80591e-16
2.48123e-10
-1.50165e-09
6.16026e-16
2.66145e-10
-1.6129e-09
5.04948e-16
2.83682e-10
-1.72615e-09
4.4169e-16
3.0045e-10
-1.84075e-09
3.44461e-16
3.16141e-10
-1.956e-09
3.24474e-16
3.30439e-10
-2.07106e-09
2.6218e-16
3.43025e-10
-2.18513e-09
2.71211e-16
3.53574e-10
-2.29728e-09
1.91555e-16
3.61776e-10
-2.406e-09
1.88738e-16
-2.51162e-09
1.09853e-16
7.30064e-15
-3.13968e-13
-5.60388e-19
6.38212e-14
-2.37814e-12
1.47379e-18
2.17618e-13
-6.43051e-12
2.22799e-18
5.16064e-13
-1.24258e-11
1.31668e-17
1.00674e-12
-2.04032e-11
-3.0343e-17
1.73985e-12
-3.04513e-11
-1.01612e-16
2.76051e-12
-4.26886e-11
-4.56908e-16
4.13872e-12
-5.72534e-11
-4.7254e-16
5.91496e-12
-7.43096e-11
-1.02598e-15
8.15553e-12
-9.40297e-11
-2.68148e-16
1.09105e-11
-1.16568e-10
-6.98019e-16
1.42358e-11
-1.42171e-10
-5.86436e-16
1.82095e-11
-1.70989e-10
-7.39191e-16
2.28933e-11
-2.03245e-10
2.01301e-16
2.83425e-11
-2.39145e-10
-3.4779e-16
3.46258e-11
-2.78868e-10
2.19429e-16
4.1792e-11
-3.22618e-10
1.04915e-16
4.98969e-11
-3.70582e-10
3.0116e-16
5.89828e-11
-4.22934e-10
8.86551e-17
6.90885e-11
-4.79809e-10
2.41435e-16
8.02388e-11
-5.41332e-10
2.61935e-16
9.24482e-11
-6.07645e-10
4.40707e-16
1.05713e-10
-6.78721e-10
5.20019e-16
1.20013e-10
-7.54673e-10
6.36035e-16
1.35308e-10
-8.35398e-10
7.01111e-16
1.51533e-10
-9.20868e-10
7.30641e-16
1.686e-10
-1.01095e-09
7.38043e-16
1.86394e-10
-1.10533e-09
6.97363e-16
2.04772e-10
-1.20396e-09
6.66981e-16
2.23561e-10
-1.30627e-09
5.84781e-16
2.42559e-10
-1.41198e-09
5.28028e-16
2.61537e-10
-1.52062e-09
4.21428e-16
2.8024e-10
-1.63159e-09
3.53571e-16
2.98386e-10
-1.7443e-09
2.48228e-16
3.15675e-10
-1.85803e-09
2.15622e-16
3.31788e-10
-1.97211e-09
1.53592e-16
3.46398e-10
-2.08567e-09
1.72621e-16
3.59176e-10
-2.19791e-09
1.32184e-16
3.69789e-10
-2.30789e-09
1.40641e-16
3.77924e-10
-2.41414e-09
8.30681e-17
-2.51697e-09
9.67482e-17
7.93663e-15
-3.21872e-13
3.47829e-18
6.89387e-14
-2.43917e-12
-3.23266e-18
2.34754e-13
-6.59642e-12
-1.18169e-17
5.55446e-13
-1.27471e-11
-8.50134e-17
1.08264e-12
-2.09296e-11
9.62259e-17
1.87054e-12
-3.12365e-11
3.5458e-16
2.96591e-12
-4.37849e-11
-1.51722e-17
4.44577e-12
-5.8724e-11
6.78132e-16
6.33638e-12
-7.62027e-11
-1.86493e-16
8.71324e-12
-9.64152e-11
-7.4923e-16
1.16563e-11
-1.1952e-10
-1.12492e-15
1.52198e-11
-1.45732e-10
1.95199e-16
1.94667e-11
-1.75241e-10
-5.88954e-16
2.44682e-11
-2.08243e-10
4.12096e-16
3.02798e-11
-2.44957e-10
-1.04111e-16
3.69718e-11
-2.85556e-10
3.35216e-16
4.4597e-11
-3.30241e-10
2.89301e-16
5.32112e-11
-3.79192e-10
4.46866e-16
6.28595e-11
-4.32578e-10
4.27788e-16
7.35793e-11
-4.90523e-10
5.80625e-16
8.53941e-11
-5.53142e-10
5.42486e-16
9.83161e-11
-6.20561e-10
6.39223e-16
1.12337e-10
-6.92736e-10
6.30606e-16
1.27434e-10
-7.69763e-10
6.68557e-16
1.43556e-10
-8.51514e-10
6.63922e-16
1.60634e-10
-9.3794e-10
6.48302e-16
1.78569e-10
-1.02888e-09
5.99882e-16
1.97234e-10
-1.12399e-09
5.48205e-16
2.16475e-10
-1.22319e-09
4.73073e-16
2.36105e-10
-1.32589e-09
4.09285e-16
2.55908e-10
-1.43178e-09
3.09311e-16
2.75641e-10
-1.54036e-09
2.44059e-16
2.95033e-10
-1.65098e-09
1.3026e-16
3.13788e-10
-1.76305e-09
8.80086e-17
3.31592e-10
-1.87583e-09
8.21354e-18
3.48114e-10
-1.98864e-09
3.1027e-17
3.63014e-10
-2.10057e-09
-6.78802e-19
3.75955e-10
-2.21085e-09
5.53008e-17
3.86597e-10
-2.31853e-09
1.95201e-18
3.94623e-10
-2.42216e-09
4.65999e-17
-2.52208e-09
-1.1058e-17
8.59984e-15
-3.30446e-13
2.93239e-18
7.45369e-14
-2.50517e-12
-1.0879e-17
2.53241e-13
-6.77522e-12
-1.55725e-17
5.99137e-13
-1.30928e-11
2.61496e-17
1.16561e-12
-2.14973e-11
-1.56824e-16
2.01433e-12
-3.20833e-11
2.37246e-16
3.18725e-12
-4.4963e-11
-4.97372e-16
4.77432e-12
-6.03025e-11
6.56929e-16
6.80568e-12
-7.8237e-11
-3.05784e-16
9.36008e-12
-9.89751e-11
-4.74426e-16
1.25035e-11
-1.22668e-10
-5.4942e-16
1.63109e-11
-1.49533e-10
5.82e-16
2.08408e-11
-1.79775e-10
-4.31556e-16
2.61728e-11
-2.13572e-10
2.8684e-16
3.23658e-11
-2.51151e-10
-1.82196e-16
3.9491e-11
-2.92679e-10
1.48651e-16
4.7604e-11
-3.38353e-10
9.58462e-17
5.67605e-11
-3.88348e-10
1.15305e-16
6.70064e-11
-4.42824e-10
2.00445e-18
7.83784e-11
-5.01894e-10
1.7231e-16
9.08983e-11
-5.65659e-10
2.01742e-16
1.04575e-10
-6.34234e-10
3.51422e-16
1.19396e-10
-7.07553e-10
4.04713e-16
1.3533e-10
-7.85693e-10
4.70187e-16
1.52324e-10
-8.68503e-10
5.15113e-16
1.70295e-10
-9.55906e-10
4.8925e-16
1.89135e-10
-1.04771e-09
4.57873e-16
2.08707e-10
-1.14356e-09
3.64283e-16
2.28842e-10
-1.24332e-09
3.03052e-16
2.49339e-10
-1.34639e-09
1.88469e-16
2.69967e-10
-1.45241e-09
1.19386e-16
2.90468e-10
-1.56086e-09
2.76572e-18
3.10555e-10
-1.67107e-09
-5.61735e-17
3.29918e-10
-1.78241e-09
-1.49443e-16
3.48227e-10
-1.89414e-09
-1.49147e-16
3.65139e-10
-2.00555e-09
-1.77664e-16
3.80304e-10
-2.11574e-09
-1.09963e-16
3.93375e-10
-2.22392e-09
-1.13833e-16
4.04007e-10
-2.32917e-09
-6.19933e-17
4.11879e-10
-2.43003e-09
-8.8508e-17
-2.52689e-09
-4.17679e-17
9.33614e-15
-3.39778e-13
7.64199e-19
8.05898e-14
-2.57707e-12
-8.13627e-17
2.73323e-13
-6.96762e-12
3.70003e-17
6.453e-13
-1.34643e-11
8.35503e-17
1.25261e-12
-2.21043e-11
3.31049e-17
2.15888e-12
-3.29875e-11
2.25326e-16
3.4191e-12
-4.62216e-11
2.65425e-16
5.11601e-12
-6.19898e-11
7.82757e-16
7.29192e-12
-8.04092e-11
4.81971e-16
1.00267e-11
-1.01712e-10
-4.07005e-17
1.33899e-11
-1.26035e-10
-4.90399e-16
1.74629e-11
-1.53602e-10
4.45637e-16
2.23062e-11
-1.84618e-10
1.12222e-16
2.79984e-11
-2.1926e-10
5.56846e-16
3.46033e-11
-2.57755e-10
1.02269e-16
4.21936e-11
-3.00266e-10
2.79605e-16
5.08284e-11
-3.46986e-10
2.75767e-16
6.05635e-11
-3.98081e-10
2.53887e-16
7.14462e-11
-4.53703e-10
3.07425e-16
8.35115e-11
-5.13954e-10
4.69358e-16
9.6779e-11
-5.78922e-10
4.42854e-16
1.11254e-10
-6.48704e-10
5.10164e-16
1.26919e-10
-7.23214e-10
4.77144e-16
1.43737e-10
-8.02507e-10
4.64284e-16
1.61645e-10
-8.86406e-10
4.36535e-16
1.80552e-10
-9.74809e-10
3.67802e-16
2.00338e-10
-1.0675e-09
2.76184e-16
2.20851e-10
-1.16407e-09
1.77295e-16
2.41912e-10
-1.26438e-09
6.49434e-17
2.63301e-10
-1.36777e-09
-2.20077e-17
2.84773e-10
-1.47388e-09
-1.42207e-16
3.06054e-10
-1.58214e-09
-2.04813e-16
3.2684e-10
-1.69186e-09
-3.19254e-16
3.46805e-10
-1.80238e-09
-3.33847e-16
3.65606e-10
-1.91295e-09
-3.92183e-16
3.82887e-10
-2.02283e-09
-3.18233e-16
3.98286e-10
-2.13114e-09
-3.14305e-16
4.1145e-10
-2.23708e-09
-2.02904e-16
4.22027e-10
-2.33975e-09
-2.28355e-16
4.29695e-10
-2.43769e-09
-1.37304e-16
-2.53134e-09
-1.8213e-16
1.00298e-14
-3.49847e-13
-1.81877e-18
9.29017e-14
-2.65343e-12
8.11297e-16
2.9559e-13
-7.17563e-12
-6.58687e-16
6.97537e-13
-1.38661e-11
-4.14657e-17
1.35133e-12
-2.27608e-11
-4.17766e-16
2.33253e-12
-3.39633e-11
8.94125e-16
3.68368e-12
-4.75851e-11
-1.3424e-15
5.50785e-12
-6.38034e-11
7.4647e-16
7.84273e-12
-8.27403e-11
5.35392e-16
1.07707e-11
-1.04642e-10
-6.57681e-17
1.43673e-11
-1.29632e-10
-9.81904e-17
1.87204e-11
-1.57947e-10
8.45898e-16
2.38922e-11
-1.89788e-10
2.78205e-16
2.99664e-11
-2.25329e-10
6.1244e-16
3.70099e-11
-2.64797e-10
1.72644e-16
4.50964e-11
-3.0835e-10
2.6365e-16
5.42884e-11
-3.56175e-10
3.32628e-16
6.46408e-11
-4.08432e-10
2.14539e-16
7.62013e-11
-4.65262e-10
1.49246e-16
8.90037e-11
-5.26754e-10
3.0058e-16
1.03065e-10
-5.9298e-10
2.9183e-16
1.18385e-10
-6.64021e-10
3.70064e-16
1.34942e-10
-7.39767e-10
3.64253e-16
1.52691e-10
-8.20252e-10
3.38916e-16
1.71559e-10
-9.05271e-10
3.26848e-16
1.91445e-10
-9.94693e-10
2.1777e-16
2.12217e-10
-1.08827e-09
1.30625e-16
2.33709e-10
-1.18556e-09
-2.68189e-17
2.55726e-10
-1.2864e-09
-1.23546e-16
2.78033e-10
-1.39008e-09
-2.72857e-16
3.00366e-10
-1.49622e-09
-3.5245e-16
3.22435e-10
-1.60421e-09
-4.77493e-16
3.4392e-10
-1.71335e-09
-5.22781e-16
3.64479e-10
-1.82294e-09
-6.00936e-16
3.83755e-10
-1.93222e-09
-5.62277e-16
4.01378e-10
-2.04046e-09
-5.54524e-16
4.16977e-10
-2.14674e-09
-4.32826e-16
4.30191e-10
-2.2503e-09
-3.97873e-16
4.40664e-10
-2.35022e-09
-2.99601e-16
4.48075e-10
-2.4451e-09
-2.99858e-16
-2.53539e-09
-2.25053e-16
1.08456e-14
-3.6083e-13
-1.87869e-17
1.00218e-13
-2.73662e-12
7.68129e-16
3.19317e-13
-7.40407e-12
-1.17541e-15
7.53634e-13
-1.43108e-11
-1.27698e-15
1.45227e-12
-2.34674e-11
-1.00998e-15
2.50419e-12
-3.50102e-11
8.32164e-16
3.94999e-12
-4.90394e-11
-9.46357e-16
5.89546e-12
-6.57435e-11
2.99257e-17
8.39955e-12
-8.52396e-11
5.31283e-16
1.15403e-11
-1.07789e-10
-4.55484e-16
1.53955e-11
-1.33488e-10
-9.36012e-17
2.00573e-11
-1.62601e-10
8.42564e-16
2.55895e-11
-1.95316e-10
5.35717e-16
3.20784e-11
-2.31811e-10
8.32962e-16
3.95952e-11
-2.7231e-10
4.56699e-16
4.82148e-11
-3.16965e-10
4.05976e-16
5.8003e-11
-3.65958e-10
5.46269e-16
6.90144e-11
-4.1944e-10
4.0121e-16
8.12976e-11
-4.77541e-10
4.95292e-16
9.48837e-11
-5.40335e-10
6.13441e-16
1.09786e-10
-6.07878e-10
5.21935e-16
1.26002e-10
-6.80232e-10
4.90401e-16
1.435e-10
-7.57261e-10
3.89983e-16
1.6223e-10
-8.38978e-10
2.84154e-16
1.82106e-10
-9.25145e-10
1.9528e-16
2.03017e-10
-1.0156e-09
5.16853e-17
2.24817e-10
-1.11007e-09
-9.65033e-17
2.47324e-10
-1.20807e-09
-2.45569e-16
2.70327e-10
-1.3094e-09
-3.97321e-16
2.93575e-10
-1.41333e-09
-5.0364e-16
3.16785e-10
-1.51944e-09
-6.42591e-16
3.39649e-10
-1.62708e-09
-6.96742e-16
3.61831e-10
-1.73554e-09
-8.09885e-16
3.82972e-10
-1.84409e-09
-7.90976e-16
4.02701e-10
-1.95196e-09
-8.2708e-16
4.20634e-10
-2.0584e-09
-6.97684e-16
4.36393e-10
-2.16251e-09
-6.58987e-16
4.4961e-10
-2.26352e-09
-4.88803e-16
4.59925e-10
-2.36054e-09
-4.88699e-16
4.67017e-10
-2.45219e-09
-3.52812e-16
-2.53897e-09
-3.9293e-16
1.21137e-14
-3.72733e-13
3.06935e-17
1.00972e-13
-2.82677e-12
-1.42394e-16
3.44543e-13
-7.64248e-12
7.63303e-16
8.63836e-13
-1.47638e-11
8.00404e-15
1.56761e-12
-2.4226e-11
-6.78905e-15
2.71194e-12
-3.61358e-11
2.30821e-15
4.25424e-12
-5.06136e-11
-3.86147e-15
6.36566e-12
-6.78316e-11
2.83744e-15
9.03813e-12
-8.7929e-11
-1.8588e-15
1.24121e-11
-1.11147e-10
1.7738e-15
1.65373e-11
-1.37617e-10
-3.99157e-16
2.15208e-11
-1.67575e-10
1.0942e-15
2.74318e-11
-2.01224e-10
3.40652e-16
3.43601e-11
-2.38734e-10
5.70515e-16
4.2381e-11
-2.80329e-10
2.59607e-16
5.15695e-11
-3.26152e-10
1.0096e-16
6.19946e-11
-3.7638e-10
3.46905e-16
7.37095e-11
-4.31155e-10
7.62807e-17
8.67625e-11
-4.90593e-10
7.14812e-17
1.01182e-10
-5.54753e-10
2.07482e-16
1.16979e-10
-6.23672e-10
1.86364e-16
1.34142e-10
-6.97393e-10
2.14928e-16
1.52635e-10
-7.75753e-10
2.00442e-16
1.72397e-10
-8.58738e-10
1.13865e-16
1.93332e-10
-9.46079e-10
6.02648e-17
2.15314e-10
-1.03759e-09
-1.20755e-16
2.38183e-10
-1.13294e-09
-2.5501e-16
2.61743e-10
-1.23163e-09
-4.68908e-16
2.85762e-10
-1.33343e-09
-5.94133e-16
3.09972e-10
-1.43755e-09
-7.7268e-16
3.34072e-10
-1.54354e-09
-8.55985e-16
3.57736e-10
-1.65075e-09
-9.85319e-16
3.80608e-10
-1.75842e-09
-1.0111e-15
4.02314e-10
-1.86581e-09
-1.07211e-15
4.22468e-10
-1.97212e-09
-9.91399e-16
4.40676e-10
-2.07661e-09
-9.48663e-16
4.56549e-10
-2.17839e-09
-7.71851e-16
4.69715e-10
-2.27669e-09
-7.01117e-16
4.79812e-10
-2.37065e-09
-5.56229e-16
4.86522e-10
-2.4589e-09
-5.36336e-16
-2.542e-09
-4.3732e-16
1.31241e-14
-3.85679e-13
2.18037e-17
1.09632e-13
-2.92422e-12
-1.0297e-16
3.72554e-13
-7.90457e-12
2.13133e-16
9.29692e-13
-1.52653e-11
6.7128e-15
1.6885e-12
-2.50465e-11
-7.58655e-15
2.92168e-12
-3.73499e-11
2.37556e-15
4.57131e-12
-5.23007e-11
-4.54719e-15
6.82797e-12
-7.00721e-11
1.898e-15
9.69571e-12
-9.08176e-11
-2.4577e-15
1.33169e-11
-1.14757e-10
1.25552e-15
1.77406e-11
-1.42046e-10
-5.73342e-16
2.30804e-11
-1.72905e-10
1.02955e-15
2.94068e-11
-2.07546e-10
4.98292e-16
3.68133e-11
-2.46134e-10
7.55817e-16
4.53786e-11
-2.8889e-10
4.94916e-16
5.51791e-11
-3.3595e-10
2.26353e-16
6.62867e-11
-3.87483e-10
5.38675e-16
7.87533e-11
-4.4362e-10
2.12894e-16
9.26275e-11
-5.04463e-10
3.38427e-16
1.07934e-10
-5.70055e-10
4.08882e-16
1.24679e-10
-6.40414e-10
2.89941e-16
1.42846e-10
-7.15558e-10
2.0483e-16
1.62389e-10
-7.95295e-10
1.04272e-16
1.83237e-10
-8.79585e-10
-4.26627e-17
2.05282e-10
-9.68125e-10
-1.61095e-16
2.28384e-10
-1.06069e-09
-3.50691e-16
2.52367e-10
-1.15692e-09
-5.37243e-16
2.77014e-10
-1.25629e-09
-7.17302e-16
3.02079e-10
-1.3585e-09
-8.97706e-16
3.27272e-10
-1.46275e-09
-1.01009e-15
3.52272e-10
-1.56856e-09
-1.16128e-15
3.76734e-10
-1.67523e-09
-1.19726e-15
4.00286e-10
-1.78198e-09
-1.30631e-15
4.22536e-10
-1.88807e-09
-1.24773e-15
4.43083e-10
-1.99267e-09
-1.26295e-15
4.61524e-10
-2.09506e-09
-1.07629e-15
4.77459e-10
-2.19433e-09
-1.00808e-15
4.90514e-10
-2.28975e-09
-7.79547e-16
5.00327e-10
-2.38047e-09
-7.59767e-16
5.06583e-10
-2.46516e-09
-5.81306e-16
-2.54442e-09
-6.24665e-16
1.43283e-14
-3.99782e-13
2.75531e-17
1.18668e-13
-3.03006e-12
-1.71596e-16
4.03636e-13
-8.1881e-12
2.79728e-16
9.99047e-13
-1.58081e-11
6.37559e-15
1.82381e-12
-2.5929e-11
-7.13512e-15
3.15427e-12
-3.86544e-11
3.15221e-15
4.93399e-12
-5.41154e-11
-4.20733e-15
7.36686e-12
-7.24819e-11
2.67012e-15
1.04442e-11
-9.39131e-11
-2.09001e-15
1.43302e-11
-1.18627e-10
1.7574e-15
1.90676e-11
-1.46788e-10
-5.09634e-16
2.47843e-11
-1.78611e-10
1.1596e-15
3.15509e-11
-2.1431e-10
4.49749e-16
3.94669e-11
-2.54044e-10
6.94897e-16
4.86136e-11
-2.98032e-10
5.09599e-16
5.90685e-11
-3.46402e-10
2.10009e-16
7.0906e-11
-3.99315e-10
6.13394e-16
8.41758e-11
-4.56888e-10
1.97822e-16
9.89257e-11
-5.1921e-10
2.6099e-16
1.15177e-10
-5.86303e-10
3.37069e-16
1.32929e-10
-6.58163e-10
2.3786e-16
1.52158e-10
-7.34785e-10