/*--------------------------------*- C++ -*----------------------------------*\
| =========                 |                                                 |
| \\      /  F ield         | OpenFOAM: The Open Source CFD Toolbox           |
|  \\    /   O peration     | Version:  v2012                                 |
|   \\  /    A nd           | Website:  www.openfoam.com                      |
|    \\/     M anipulation  |                                                 |
\*---------------------------------------------------------------------------*/
FoamFile
{
    version     2.0;
    format      ascii;
    class       surfaceScalarField;
    location    "0.6";
    object      phi;
}
// * * * * * * * * * * * * * * * * * * * * * * * * * * * * * * * * * * * * * //

dimensions      [0 3 -1 0 0 0 0];
oriented        oriented;


internalField   nonuniform List<scalar> 
49380
(
4.66105e-12
-6.90295e-09
-1.52867e-15
6.73188e-12
-2.11675e-08
-7.9505e-15
-7.48229e-11
-3.61199e-08
-1.32859e-14
-2.9069e-11
-5.29589e-08
-5.09335e-15
4.18513e-10
-7.91366e-08
-3.18614e-15
-2.64978e-10
-9.32528e-08
-4.33413e-15
-1.45447e-09
-9.63534e-08
-6.99736e-15
-1.67786e-09
-9.77998e-08
-2.96291e-14
-5.94152e-10
-9.61258e-08
4.24219e-15
1.26445e-09
-8.73306e-08
5.35828e-15
1.67937e-09
-8.12226e-08
1.96356e-14
1.65108e-09
-8.96564e-08
1.07419e-15
1.6511e-09
-9.92976e-08
-1.29439e-16
1.67401e-09
-1.07864e-07
-5.50829e-16
1.70556e-09
-1.15156e-07
-8.98039e-16
1.73008e-09
-1.21227e-07
-1.05854e-15
1.73538e-09
-1.26516e-07
-9.23947e-16
1.71766e-09
-1.3131e-07
-1.32866e-15
1.67502e-09
-1.35742e-07
-8.65564e-16
1.60653e-09
-1.39833e-07
-8.49133e-16
1.51152e-09
-1.43555e-07
-1.11061e-15
1.38962e-09
-1.46852e-07
-1.2693e-15
1.24085e-09
-1.49617e-07
-1.34353e-15
1.06554e-09
-1.51775e-07
-1.43086e-15
8.64473e-10
-1.5321e-07
-1.44228e-15
6.38909e-10
-1.53829e-07
-1.45575e-15
3.90647e-10
-1.53532e-07
-1.45777e-15
1.22174e-10
-1.52205e-07
-1.44604e-15
-1.63318e-10
-1.49779e-07
-1.43121e-15
-4.61676e-10
-1.46134e-07
-1.49021e-15
-7.67704e-10
-1.41195e-07
-1.35822e-15
-1.07493e-09
-1.34874e-07
-1.25428e-15
-1.37531e-09
-1.27087e-07
-1.19973e-15
-1.6589e-09
-1.17759e-07
-1.1392e-15
-1.9133e-09
-1.06822e-07
-1.07114e-15
-2.12281e-09
-9.422e-08
-9.93917e-16
-2.2668e-09
-7.99041e-08
-9.0716e-16
-2.31768e-09
-6.38508e-08
-8.08294e-16
-2.23113e-09
-4.60542e-08
-6.97528e-16
-1.95524e-09
-2.65716e-08
-5.66316e-16
-1.25555e-09
-5.54439e-09
-4.12165e-16
-6.15433e-10
1.7204e-08
-1.19112e-16
-4.66594e-10
4.15687e-08
-5.77123e-17
-4.03975e-10
6.71004e-08
-2.81769e-17
-3.76981e-10
9.36839e-08
-7.98847e-18
-3.58596e-10
1.21202e-07
8.65297e-18
-3.41621e-10
1.49191e-07
1.71631e-17
-3.23147e-10
1.77264e-07
1.05428e-17
-3.02081e-10
2.04774e-07
2.26529e-17
-2.77983e-10
2.31002e-07
3.52603e-17
-2.50791e-10
2.55095e-07
4.23948e-17
-2.20725e-10
2.75797e-07
4.90887e-17
-1.88232e-10
2.9176e-07
5.07822e-17
-1.53991e-10
3.01273e-07
5.75606e-17
-1.18967e-10
3.02142e-07
6.30923e-17
-8.4451e-11
2.91725e-07
6.74053e-17
-5.22097e-11
2.66852e-07
6.79578e-17
-2.46552e-11
2.23515e-07
5.78762e-17
-5.65876e-12
1.57027e-07
4.27016e-17
6.16219e-08
2.55035e-17
6.99624e-12
-6.90995e-09
-9.3367e-17
1.44388e-11
-2.11749e-08
-3.05524e-15
-1.57926e-10
-3.59475e-08
-9.99774e-15
8.01071e-12
-5.31249e-08
-8.57943e-15
5.06097e-10
-7.96348e-08
-1.34496e-14
-9.38626e-10
-9.18081e-08
-1.37919e-14
-2.44843e-09
-9.48436e-08
-1.39211e-14
-2.32961e-09
-9.79186e-08
-1.23637e-14
-7.76595e-10
-9.76788e-08
9.39377e-15
1.60532e-09
-8.97125e-08
2.56981e-14
1.93399e-09
-8.15513e-08
-1.94659e-16
1.7814e-09
-8.95038e-08
-5.58858e-16
1.71515e-09
-9.92313e-08
-4.7508e-16
1.70663e-09
-1.07856e-07
-1.04405e-15
1.73014e-09
-1.1518e-07
-9.23386e-16
1.75681e-09
-1.21254e-07
-8.56576e-16
1.76382e-09
-1.26523e-07
-1.19459e-15
1.74469e-09
-1.31291e-07
-8.33389e-16
1.69772e-09
-1.35695e-07
-9.85682e-16
1.62297e-09
-1.39759e-07
-1.79392e-15
1.52075e-09
-1.43453e-07
-1.76527e-15
1.3914e-09
-1.46723e-07
-1.67788e-15
1.23537e-09
-1.49461e-07
-1.64095e-15
1.05321e-09
-1.51593e-07
-1.66984e-15
8.45774e-10
-1.53002e-07
-1.58719e-15
6.14307e-10
-1.53598e-07
-1.54468e-15
3.60551e-10
-1.53278e-07
-1.50063e-15
8.69114e-11
-1.51931e-07
-1.46288e-15
-2.035e-10
-1.49489e-07
-1.43716e-15
-5.06617e-10
-1.45831e-07
-1.39931e-15
-8.17331e-10
-1.40884e-07
-1.26563e-15
-1.12928e-09
-1.34562e-07
-1.26123e-15
-1.43458e-09
-1.26781e-07
-1.21208e-15
-1.72353e-09
-1.1747e-07
-1.15259e-15
-1.98416e-09
-1.06561e-07
-1.08447e-15
-2.20162e-09
-9.40025e-08
-1.00431e-15
-2.35706e-09
-7.97487e-08
-9.13449e-16
-2.42688e-09
-6.3781e-08
-8.08719e-16
-2.37876e-09
-4.61023e-08
-6.94286e-16
-2.19121e-09
-2.67591e-08
-5.64872e-16
-1.85545e-09
-5.88012e-09
-4.26626e-16
-1.51172e-09
1.68602e-08
-2.63386e-16
-1.31049e-09
4.13674e-08
-1.56349e-16
-1.19316e-09
6.69831e-08
-7.82572e-17
-1.1265e-09
9.36172e-08
-2.1691e-17
-1.07511e-09
1.2115e-07
2.73617e-17
-1.02523e-09
1.49141e-07
5.54516e-17
-9.70192e-10
1.77209e-07
2.89543e-17
-9.07123e-10
2.04711e-07
6.93366e-17
-8.34838e-10
2.3093e-07
1.10919e-16
-7.53188e-10
2.55014e-07
1.35456e-16
-6.62864e-10
2.75707e-07
1.60748e-16
-5.65226e-10
2.91662e-07
1.7328e-16
-4.62355e-10
3.0117e-07
2.0637e-16
-3.57181e-10
3.02037e-07
2.39615e-16
-2.53664e-10
2.91621e-07
2.71228e-16
-1.57145e-10
2.66755e-07
2.87207e-16
-7.50112e-11
2.23433e-07
2.5587e-16
-1.80984e-11
1.5697e-07
1.93633e-16
6.16038e-08
1.09667e-16
7.23976e-12
-6.9172e-09
-2.2596e-15
2.48215e-11
-2.11925e-08
-4.36445e-15
-1.67156e-10
-3.57555e-08
-4.27044e-15
1.56933e-10
-5.34491e-08
-7.2914e-15
2.72736e-10
-7.97506e-08
-1.28232e-14
-1.22455e-09
-9.03108e-08
-1.03935e-14
-1.89658e-09
-9.41715e-08
-8.14078e-15
-1.2983e-09
-9.85168e-08
-1.47947e-15
2.35666e-11
-9.90007e-08
6.43887e-15
1.86595e-09
-9.15549e-08
1.41046e-14
2.15977e-09
-8.18452e-08
-3.71528e-15
1.96199e-09
-8.9306e-08
-5.36428e-16
1.83413e-09
-9.91035e-08
-5.39843e-16
1.77287e-09
-1.07794e-07
-9.80159e-16
1.76318e-09
-1.1517e-07
-8.55688e-16
1.77386e-09
-1.21265e-07
-1.12301e-15
1.77509e-09
-1.26524e-07
-1.39609e-15
1.75442e-09
-1.31271e-07
-1.27341e-15
1.7068e-09
-1.35647e-07
-1.2867e-15
1.63068e-09
-1.39683e-07
-1.3694e-15
1.52572e-09
-1.43348e-07
-1.37902e-15
1.39217e-09
-1.46589e-07
-1.39643e-15
1.2306e-09
-1.49299e-07
-1.39579e-15
1.04178e-09
-1.51404e-07
-1.49752e-15
8.26807e-10
-1.52787e-07
-1.45311e-15
5.87115e-10
-1.53358e-07
-1.45104e-15
3.24597e-10
-1.53016e-07
-1.43747e-15
4.17648e-11
-1.51648e-07
-1.41836e-15
-2.5821e-10
-1.49189e-07
-1.40955e-15
-5.71236e-10
-1.45517e-07
-1.41301e-15
-8.92231e-10
-1.40563e-07
-1.28514e-15
-1.21492e-09
-1.3424e-07
-1.25975e-15
-1.53162e-09
-1.26465e-07
-1.21512e-15
-1.83301e-09
-1.17169e-07
-1.15943e-15
-2.10784e-09
-1.06286e-07
-1.09305e-15
-2.34263e-09
-9.37677e-08
-1.01158e-15
-2.5213e-09
-7.957e-08
-9.18306e-16
-2.62598e-09
-6.36763e-08
-8.09832e-16
-2.63764e-09
-4.60907e-08
-6.94747e-16
-2.5562e-09
-2.68406e-08
-5.70127e-16
-2.41929e-09
-6.01701e-09
-4.49518e-16
-2.25301e-09
1.6694e-08
-3.33533e-16
-2.08517e-09
4.11996e-08
-2.14886e-16
-1.95668e-09
6.68546e-08
-1.23827e-16
-1.86627e-09
9.35268e-08
-5.96912e-17
-1.78779e-09
1.21072e-07
-1.22217e-18
-1.70737e-09
1.4906e-07
3.55369e-17
-1.61681e-09
1.77118e-07
-8.56879e-18
-1.51221e-09
2.04607e-07
2.65588e-17
-1.39194e-09
2.3081e-07
7.24787e-17
-1.25589e-09
2.54878e-07
9.89744e-17
-1.10527e-09
2.75557e-07
1.29494e-16
-9.42428e-10
2.915e-07
1.39951e-16
-7.70874e-10
3.00999e-07
1.8509e-16
-5.95577e-10
3.01862e-07
2.34022e-16
-4.23239e-10
2.91449e-07
2.85208e-16
-2.62877e-10
2.66595e-07
3.20041e-16
-1.26822e-10
2.23297e-07
2.89847e-16
-3.2461e-11
1.56875e-07
2.2191e-16
6.15714e-08
1.18429e-16
9.10237e-12
-6.9263e-09
4.93409e-16
3.23385e-11
-2.12158e-08
-6.31366e-15
-1.77615e-10
-3.55455e-08
-1.11396e-14
3.05963e-10
-5.39327e-08
4.54874e-16
2.39387e-10
-7.96841e-08
-8.48711e-15
-9.65631e-10
-8.91057e-08
-1.04155e-14
-1.08407e-09
-9.40531e-08
-1.50822e-14
-4.47846e-10
-9.91531e-08
-1.24789e-14
6.00503e-10
-1.00049e-07
1.68567e-14
2.0948e-09
-9.30492e-08
1.14761e-14
2.36128e-09
-8.21116e-08
-8.76518e-16
2.11205e-09
-8.90567e-08
-1.01857e-15
1.94363e-09
-9.8935e-08
-9.62037e-16
1.84866e-09
-1.07699e-07
-8.89804e-16
1.81486e-09
-1.15136e-07
-1.0318e-15
1.81104e-09
-1.21261e-07
-1.45666e-15
1.80356e-09
-1.26516e-07
-1.33148e-15
1.77661e-09
-1.31244e-07
-1.31839e-15
1.7233e-09
-1.35594e-07
-1.26659e-15
1.64112e-09
-1.396e-07
-1.68463e-15
1.52932e-09
-1.43236e-07
-1.84045e-15
1.38806e-09
-1.46448e-07
-1.7816e-15
1.21792e-09
-1.49129e-07
-1.65915e-15
1.01976e-09
-1.51206e-07
-1.67792e-15
7.94714e-10
-1.52562e-07
-1.57331e-15
5.44272e-10
-1.53108e-07
-1.53543e-15
2.70365e-10
-1.52742e-07
-1.49199e-15
-2.44713e-11
-1.51353e-07
-1.45069e-15
-3.37061e-10
-1.48876e-07
-1.43082e-15
-6.63329e-10
-1.45191e-07
-1.42441e-15
-9.98249e-10
-1.40228e-07
-1.29269e-15
-1.33568e-09
-1.33902e-07
-1.26876e-15
-1.66817e-09
-1.26132e-07
-1.22435e-15
-1.98689e-09
-1.1685e-07
-1.16945e-15
-2.28143e-09
-1.05992e-07
-1.10333e-15
-2.53989e-09
-9.35093e-08
-1.02051e-15
-2.74908e-09
-7.93608e-08
-9.25536e-16
-2.8963e-09
-6.35291e-08
-8.14757e-16
-2.97228e-09
-4.60147e-08
-7.00457e-16
-2.98514e-09
-2.68277e-08
-5.79308e-16
-2.97632e-09
-6.02579e-09
-4.64898e-16
-2.92493e-09
1.66426e-08
-3.63541e-16
-2.8097e-09
4.10844e-08
-2.50821e-16
-2.69429e-09
6.67392e-08
-1.65273e-16
-2.59387e-09
9.34264e-08
-1.0774e-16
-2.49503e-09
1.20973e-07
-5.13123e-17
-2.3872e-09
1.48953e-07
-9.95876e-18
-2.26262e-09
1.76994e-07
-7.02823e-17
-2.11721e-09
2.04461e-07
-5.61882e-17
-1.94928e-09
2.30642e-07
-1.85645e-17
-1.75893e-09
2.54687e-07
-6.32596e-19
-1.54803e-09
2.75346e-07
2.33877e-17
-1.31992e-09
2.91271e-07
1.94416e-17
-1.07964e-09
3.00758e-07
6.3952e-17
-8.34217e-10
3.01616e-07
1.15776e-16
-5.93163e-10
2.91208e-07
1.76694e-16
-3.69192e-10
2.66371e-07
2.28268e-16
-1.795e-10
2.23107e-07
2.12227e-16
-4.74626e-11
1.56743e-07
1.66737e-16
6.15239e-08
7.90559e-17
9.54052e-12
-6.93585e-09
-3.89724e-16
3.58072e-11
-2.1242e-08
-2.11896e-15
-1.63509e-10
-3.53462e-08
-1.03215e-14
4.75629e-10
-5.45718e-08
-2.28015e-15
3.05913e-10
-7.95144e-08
-4.51902e-15
-4.82745e-10
-8.8317e-08
-2.01121e-15
-2.49486e-10
-9.42863e-08
-8.27408e-15
2.08192e-10
-9.96108e-08
-8.68271e-15
8.78422e-10
-1.00719e-07
1.04346e-14
2.08522e-09
-9.42559e-08
8.76687e-15
2.514e-09
-8.25405e-08
-1.12871e-14
2.23537e-09
-8.87781e-08
-3.83267e-15
2.03903e-09
-9.87387e-08
-1.37964e-15
1.92042e-09
-1.07581e-07
-1.11987e-15
1.86671e-09
-1.15082e-07
-1.2107e-15
1.84902e-09
-1.21243e-07
-1.33788e-15
1.83215e-09
-1.265e-07
-1.3591e-15
1.7982e-09
-1.3121e-07
-1.50366e-15
1.73873e-09
-1.35535e-07
-1.41931e-15
1.65012e-09
-1.39512e-07
-1.30183e-15
1.53102e-09
-1.43117e-07
-1.36024e-15
1.38123e-09
-1.46298e-07
-1.39901e-15
1.20126e-09
-1.48949e-07
-1.40723e-15
9.91974e-10
-1.50996e-07
-1.51075e-15
7.54607e-10
-1.52325e-07
-1.47254e-15
4.90746e-10
-1.52844e-07
-1.48337e-15
2.02422e-10
-1.52453e-07
-1.47156e-15
-1.07752e-10
-1.51043e-07
-1.44738e-15
-4.36545e-10
-1.48548e-07
-1.43846e-15
-7.79865e-10
-1.44848e-07
-1.43547e-15
-1.13272e-09
-1.39875e-07
-1.3009e-15
-1.48908e-09
-1.33546e-07
-1.2768e-15
-1.84178e-09
-1.2578e-07
-1.2323e-15
-2.18243e-09
-1.16509e-07
-1.17803e-15
-2.50152e-09
-1.05673e-07
-1.11248e-15
-2.78863e-09
-9.32221e-08
-1.02953e-15
-3.03313e-09
-7.91163e-08
-9.34697e-16
-3.22616e-09
-6.33361e-08
-8.24108e-16
-3.36416e-09
-4.58767e-08
-7.13066e-16
-3.4565e-09
-2.67354e-08
-5.96686e-16
-3.53505e-09
-5.94719e-09
-4.83418e-16
-3.56235e-09
1.66699e-08
-3.83945e-16
-3.50168e-09
4.10238e-08
-2.80711e-16
-3.41035e-09
6.66479e-08
-2.04048e-16
-3.30959e-09
9.33257e-08
-1.55171e-16
-3.19633e-09
1.2086e-07
-1.04196e-16
-3.06432e-09
1.48821e-07
-6.07631e-17
-2.90739e-09
1.76837e-07
-1.32421e-16
-2.72202e-09
2.04276e-07
-1.42753e-16
-2.50682e-09
2.30427e-07
-1.17976e-16
-2.26234e-09
2.54443e-07
-1.13288e-16
-1.99117e-09
2.75074e-07
-1.02792e-16
-1.69777e-09
2.90978e-07
-1.30743e-16
-1.3887e-09
3.00449e-07
-9.88818e-17
-1.07314e-09
3.01301e-07
-5.75334e-17
-7.63413e-10
2.90898e-07
6.85395e-19
-4.75955e-10
2.66083e-07
6.22576e-17
-2.32725e-10
2.22864e-07
6.41504e-17
-6.28128e-11
1.56573e-07
5.68962e-17
6.14611e-08
6.25947e-18
1.07869e-11
-6.94664e-09
-8.83594e-16
3.99909e-11
-2.12712e-08
-4.46933e-15
-1.32266e-10
-3.51739e-08
-7.55612e-15
6.30004e-10
-5.53341e-08
-4.25269e-15
4.8221e-10
-7.93667e-08
-4.96991e-15
2.76152e-11
-8.78623e-08
-7.10708e-15
1.89367e-10
-9.4448e-08
-4.85558e-15
2.53584e-10
-9.9675e-08
-5.61409e-15
5.89781e-10
-1.01055e-07
1.70151e-14
1.77441e-09
-9.54406e-08
-6.45929e-16
2.59313e-09
-8.33591e-08
-2.86449e-15
2.32918e-09
-8.85141e-08
-3.5095e-15
2.11516e-09
-9.85247e-08
-1.2745e-15
1.98091e-09
-1.07446e-07
-1.53749e-15
1.91313e-09
-1.15015e-07
-1.65748e-15
1.88503e-09
-1.21215e-07
-1.56372e-15
1.85997e-09
-1.26474e-07
-1.52223e-15
1.8187e-09
-1.31169e-07
-1.59747e-15
1.75188e-09
-1.35468e-07
-1.38928e-15
1.65534e-09
-1.39415e-07
-1.69379e-15
1.52733e-09
-1.42989e-07
-1.83096e-15
1.36746e-09
-1.46138e-07
-1.78409e-15
1.17609e-09
-1.48758e-07
-1.70552e-15
9.54052e-10
-1.50774e-07
-1.71383e-15
7.02576e-10
-1.52073e-07
-1.61596e-15
4.23285e-10
-1.52564e-07
-1.58378e-15
1.18265e-10
-1.52148e-07
-1.54181e-15
-2.0981e-10
-1.50715e-07
-1.49621e-15
-5.57654e-10
-1.482e-07
-1.47528e-15
-9.21139e-10
-1.44484e-07
-1.46241e-15
-1.29528e-09
-1.39501e-07
-1.31735e-15
-1.67414e-09
-1.33167e-07
-1.28864e-15
-2.05076e-09
-1.25403e-07
-1.24102e-15
-2.4172e-09
-1.16143e-07
-1.18575e-15
-2.7647e-09
-1.05325e-07
-1.12026e-15
-3.08408e-09
-9.29028e-08
-1.03804e-15
-3.36665e-09
-7.88337e-08
-9.45003e-16
-3.60603e-09
-6.30967e-08
-8.36834e-16
-3.80123e-09
-4.56814e-08
-7.31067e-16
-3.95955e-09
-2.6577e-08
-6.21512e-16
-4.10078e-09
-5.80592e-09
-5.10478e-16
-4.18523e-09
1.67543e-08
-4.0963e-16
-4.17421e-09
4.10128e-08
-3.12646e-16
-4.11054e-09
6.65843e-08
-2.40188e-16
-4.01532e-09
9.32304e-08
-1.95108e-16
-3.89217e-09
1.20737e-07
-1.48196e-16
-3.73878e-09
1.48667e-07
-1.02561e-16
-3.55111e-09
1.76649e-07
-1.74955e-16
-3.32663e-09
2.04051e-07
-2.0145e-16
-3.06459e-09
2.30165e-07
-1.84775e-16
-2.76614e-09
2.54144e-07
-1.89377e-16
-2.43474e-09
2.74743e-07
-1.90637e-16
-2.076e-09
2.90619e-07
-2.43909e-16
-1.69809e-09
3.00071e-07
-2.29877e-16
-1.31235e-09
3.00915e-07
-2.07852e-16
-9.33971e-10
2.9052e-07
-1.63902e-16
-5.83068e-10
2.65732e-07
-1.0305e-16
-2.86308e-10
2.22567e-07
-8.91087e-17
-7.83644e-11
1.56365e-07
-5.74686e-17
6.13827e-08
-6.79653e-17
1.15077e-11
-6.95814e-09
1.12117e-15
4.06331e-11
-2.13003e-08
-1.91738e-15
-9.47878e-11
-3.50384e-08
-6.17398e-15
7.45115e-10
-5.6174e-08
-8.60654e-15
6.67489e-10
-7.92891e-08
-3.86679e-15
2.58273e-10
-8.74531e-08
-7.83297e-15
-5.43027e-11
-9.41355e-08
-8.39946e-15
-4.11472e-10
-9.93178e-08
-9.2665e-15
-2.30659e-10
-1.01236e-07
8.44812e-15
1.19452e-09
-9.68658e-08
-1.04442e-14
2.59215e-09
-8.47568e-08
-1.2245e-14
2.39369e-09
-8.83156e-08
-3.98872e-15
2.17045e-09
-9.83015e-08
-1.51997e-15
2.02503e-09
-1.07301e-07
-1.68475e-15
1.94642e-09
-1.14936e-07
-1.73097e-15
1.91033e-09
-1.21179e-07
-1.88299e-15
1.87869e-09
-1.26443e-07
-1.86075e-15
1.83108e-09
-1.31121e-07
-1.88402e-15
1.75739e-09
-1.35394e-07
-1.75323e-15
1.65297e-09
-1.39311e-07
-1.69298e-15
1.51577e-09
-1.42852e-07
-1.71829e-15
1.34516e-09
-1.45968e-07
-1.67774e-15
1.14142e-09
-1.48554e-07
-1.65559e-15
9.05328e-10
-1.50538e-07
-1.68205e-15
6.38127e-10
-1.51806e-07
-1.61502e-15
3.41494e-10
-1.52268e-07
-1.59778e-15
1.7585e-11
-1.51824e-07
-1.56385e-15
-3.30839e-10
-1.50367e-07
-1.52086e-15
-7.00413e-10
-1.4783e-07
-1.50116e-15
-1.08694e-09
-1.44098e-07
-1.48473e-15
-1.4854e-09
-1.39102e-07
-1.33078e-15
-1.88991e-09
-1.32762e-07
-1.29769e-15
-2.29366e-09
-1.24999e-07
-1.24695e-15
-2.68905e-09
-1.15747e-07
-1.19079e-15
-3.06791e-09
-1.04946e-07
-1.1258e-15
-3.42201e-09
-9.25487e-08
-1.04537e-15
-3.7439e-09
-7.85118e-08
-9.55513e-16
-4.02854e-09
-6.2812e-08
-8.51252e-16
-4.2754e-09
-4.54346e-08
-7.5142e-16
-4.48856e-09
-2.63639e-08
-6.49266e-16
-4.67746e-09
-5.61696e-09
-5.42258e-16
-4.80556e-09
1.68825e-08
-4.40833e-16
-4.83709e-09
4.10444e-08
-3.46646e-16
-4.80051e-09
6.65477e-08
-2.73382e-16
-4.71367e-09
9.31436e-08
-2.26607e-16
-4.58361e-09
1.20607e-07
-1.80377e-16
-4.41103e-09
1.48495e-07
-1.30044e-16
-4.19399e-09
1.76432e-07
-1.85088e-16
-3.93116e-09
2.03789e-07
-2.1171e-16
-3.62266e-09
2.29856e-07
-1.9319e-16
-3.27039e-09
2.53792e-07
-1.98812e-16
-2.87878e-09
2.74351e-07
-2.05014e-16
-2.45466e-09
2.90195e-07
-2.79049e-16
-2.00785e-09
2.99625e-07
-2.81164e-16
-1.55188e-09
3.00459e-07
-2.80288e-16
-1.10482e-09
2.90073e-07
-2.56318e-16
-6.90461e-10
2.65318e-07
-2.05392e-16
-3.4012e-10
2.22217e-07
-1.91232e-16
-9.40121e-11
1.56119e-07
-1.33153e-16
6.12887e-08
-1.16164e-16
1.23917e-11
-6.97055e-09
-1.02498e-15
4.09748e-11
-2.13289e-08
-4.51123e-15
-5.6762e-11
-3.49407e-08
-5.91493e-15
8.09356e-10
-5.70402e-08
-1.09492e-14
7.39995e-10
-7.92197e-08
-1.73085e-15
1.82504e-11
-8.67314e-08
-1.13988e-14
-9.42787e-10
-9.31745e-08
-9.25987e-15
-1.55793e-09
-9.87027e-08
-1.61456e-14
-1.28079e-09
-1.01513e-07
4.99492e-15
5.37388e-10
-9.8684e-08
-1.94757e-14
2.53964e-09
-8.67591e-08
-6.72568e-15
2.43628e-09
-8.82123e-08
-1.08623e-15
2.20911e-09
-9.80743e-08
-1.49575e-15
2.05421e-09
-1.07146e-07
-1.90074e-15
1.96616e-09
-1.14848e-07
-1.91511e-15
1.92332e-09
-1.21136e-07
-2.11513e-15
1.88608e-09
-1.26406e-07
-2.06449e-15
1.83271e-09
-1.31068e-07
-2.01879e-15
1.75237e-09
-1.35314e-07
-1.86671e-15
1.64002e-09
-1.39198e-07
-1.93738e-15
1.49331e-09
-1.42705e-07
-1.96596e-15
1.31146e-09
-1.45786e-07
-1.88614e-15
1.09461e-09
-1.48337e-07
-1.83911e-15
8.43467e-10
-1.50287e-07
-1.82111e-15
5.59282e-10
-1.51522e-07
-1.73079e-15
2.43762e-10
-1.51952e-07
-1.68702e-15
-1.00862e-10
-1.5148e-07
-1.63032e-15
-4.71725e-10
-1.49996e-07
-1.56887e-15
-8.65347e-10
-1.47437e-07
-1.53722e-15
-1.27742e-09
-1.43686e-07
-1.51093e-15
-1.70284e-09
-1.38677e-07
-1.34501e-15
-2.13571e-09
-1.3233e-07
-1.30627e-15
-2.56927e-09
-1.24566e-07
-1.25163e-15
-2.99615e-09
-1.15321e-07
-1.19415e-15
-3.40858e-09
-1.04534e-07
-1.12963e-15
-3.79888e-09
-9.21584e-08
-1.05148e-15
-4.16031e-09
-7.81504e-08
-9.6558e-16
-4.48826e-09
-6.24841e-08
-8.65985e-16
-4.7815e-09
-4.51413e-08
-7.7179e-16
-5.04074e-09
-2.61047e-08
-6.76109e-16
-5.26777e-09
-5.38987e-09
-5.73573e-16
-5.43053e-09
1.70452e-08
-4.72862e-16
-5.49745e-09
4.11114e-08
-3.79827e-16
-5.48527e-09
6.65356e-08
-3.03542e-16
-5.40747e-09
9.30658e-08
-2.52153e-16
-5.27209e-09
1.20472e-07
-2.03703e-16
-5.08179e-09
1.48304e-07
-1.44671e-16
-4.83638e-09
1.76187e-07
-1.75047e-16
-4.53582e-09
2.03488e-07
-1.92146e-16
-4.18116e-09
2.29502e-07
-1.62536e-16
-3.77519e-09
2.53386e-07
-1.58684e-16
-3.32337e-09
2.739e-07
-1.58235e-16
-2.83381e-09
2.89706e-07
-2.41782e-16
-2.31801e-09
2.99109e-07
-2.50672e-16
-1.79174e-09
2.99933e-07
-2.64525e-16
-1.27594e-09
2.89557e-07
-2.58463e-16
-7.98079e-10
2.6484e-07
-2.21138e-16
-3.94078e-10
2.21813e-07
-2.17178e-16
-1.09696e-10
1.55835e-07
-1.48946e-16
6.1179e-08
-1.20076e-16
1.30567e-11
-6.98361e-09
1.4669e-16
4.01611e-11
-2.1356e-08
3.90332e-16
-2.62128e-11
-3.48743e-08
-2.07303e-15
8.12596e-10
-5.7879e-08
-1.40523e-14
5.93466e-10
-7.90006e-08
-3.50145e-15
-6.82261e-10
-8.54557e-08
-1.75092e-14
-2.15517e-09
-9.17016e-08
-1.38635e-14
-2.75062e-09
-9.81073e-08
-1.28146e-14
-2.1536e-09
-1.0211e-07
5.49205e-15
2.96305e-11
-1.00867e-07
-1.53294e-14
2.48877e-09
-8.92182e-08
-1.88624e-15
2.46963e-09
-8.81931e-08
9.99374e-16
2.2369e-09
-9.78416e-08
-1.65975e-15
2.07105e-09
-1.0698e-07
-2.5511e-15
1.97275e-09
-1.1475e-07
-2.49463e-15
1.92278e-09
-1.21086e-07
-2.34124e-15
1.88004e-09
-1.26363e-07
-2.24563e-15
1.82119e-09
-1.31009e-07
-2.26865e-15
1.73449e-09
-1.35227e-07
-2.05326e-15
1.61435e-09
-1.39078e-07
-2.0702e-15
1.45809e-09
-1.42549e-07
-2.02333e-15
1.2647e-09
-1.45592e-07
-1.91932e-15
1.03418e-09
-1.48106e-07
-1.88468e-15
7.67147e-10
-1.5002e-07
-1.85621e-15
4.64846e-10
-1.5122e-07
-1.77304e-15
1.29028e-10
-1.51616e-07
-1.72745e-15
-2.37981e-10
-1.51113e-07
-1.66765e-15
-6.33185e-10
-1.49601e-07
-1.60199e-15
-1.05295e-09
-1.47017e-07
-1.56636e-15
-1.4928e-09
-1.43246e-07
-1.53403e-15
-1.9475e-09
-1.38222e-07
-1.35755e-15
-2.41104e-09
-1.31866e-07
-1.31346e-15
-2.87666e-09
-1.241e-07
-1.25499e-15
-3.33702e-09
-1.1486e-07
-1.19621e-15
-3.78455e-09
-1.04086e-07
-1.13234e-15
-4.21185e-09
-9.17311e-08
-1.05675e-15
-4.6124e-09
-7.77498e-08
-9.75101e-16
-4.98138e-09
-6.21151e-08
-8.8038e-16
-5.3163e-09
-4.48064e-08
-7.91121e-16
-5.61485e-09
-2.58061e-08
-7.00422e-16
-5.87355e-09
-5.1311e-09
-6.01642e-16
-6.06458e-09
1.72363e-08
-5.02265e-16
-6.16043e-09
4.12073e-08
-4.09974e-16
-6.16905e-09
6.65442e-08
-3.30853e-16
-6.09948e-09
9.29963e-08
-2.74542e-16
-5.95922e-09
1.20331e-07
-2.22515e-16
-5.75194e-09
1.48097e-07
-1.53808e-16
-5.47881e-09
1.75914e-07
-1.60441e-16
-5.1409e-09
2.0315e-07
-1.6499e-16
-4.74028e-09
2.29101e-07
-1.19615e-16
-4.28065e-09
2.52927e-07
-9.92167e-17
-3.76857e-09
2.73388e-07
-8.2609e-17
-3.21348e-09
2.89151e-07
-1.64743e-16
-2.62861e-09
2.98524e-07
-1.69026e-16
-2.03195e-09
2.99336e-07
-1.86968e-16
-1.44733e-09
2.88972e-07
-1.90641e-16
-9.05885e-10
2.64299e-07
-1.63958e-16
-4.48124e-10
2.21355e-07
-1.75265e-16
-1.25377e-10
1.55512e-07
-1.10189e-16
6.10536e-08
-8.50799e-17
1.36756e-11
-6.99729e-09
3.59469e-16
3.92005e-11
-2.13816e-08
-4.33862e-15
-5.4791e-12
-3.48296e-08
-3.72864e-15
7.52273e-10
-5.86368e-08
-1.49202e-14
2.02707e-10
-7.8451e-08
-2.07928e-15
-1.62002e-09
-8.36329e-08
-7.64378e-15
-3.24731e-09
-9.00743e-08
-2.40452e-14
-3.55623e-09
-9.77983e-08
-1.25297e-14
-2.54944e-09
-1.03117e-07
-5.25463e-15
-1.71191e-10
-1.03245e-07
-1.76309e-14
2.48758e-09
-9.1877e-08
4.24191e-15
2.50574e-09
-8.82113e-08
3.7459e-15
2.2594e-09
-9.75953e-08
-2.07111e-15
2.07926e-09
-1.068e-07
-2.72997e-15
1.96855e-09
-1.14639e-07
-2.75097e-15
1.90997e-09
-1.21028e-07
-2.566e-15
1.86094e-09
-1.26314e-07
-2.46854e-15
1.79624e-09
-1.30944e-07
-2.51856e-15
1.70299e-09
-1.35134e-07
-2.29953e-15
1.57492e-09
-1.3895e-07
-2.14096e-15
1.4089e-09
-1.42383e-07
-2.04333e-15
1.20362e-09
-1.45387e-07
-1.95912e-15
9.58857e-10
-1.47862e-07
-1.95418e-15
6.75142e-10
-1.49736e-07
-1.93014e-15
3.53674e-10
-1.50898e-07
-1.85259e-15
-3.7471e-12
-1.51259e-07
-1.79725e-15
-3.94683e-10
-1.50722e-07
-1.72387e-15
-8.1597e-10
-1.49179e-07
-1.64442e-15
-1.26378e-09
-1.46569e-07
-1.59809e-15
-1.73341e-09
-1.42776e-07
-1.55723e-15
-2.21942e-09
-1.37736e-07
-1.37e-15
-2.71562e-09
-1.3137e-07
-1.32091e-15
-3.2151e-09
-1.23601e-07
-1.25887e-15
-3.71047e-09
-1.14365e-07
-1.1987e-15
-4.19415e-09
-1.03603e-07
-1.13532e-15
-4.65873e-09
-9.12665e-08
-1.06206e-15
-5.09755e-09
-7.7311e-08
-9.8438e-16
-5.50523e-09
-6.17075e-08
-8.94265e-16
-5.87779e-09
-4.44338e-08
-8.09155e-16
-6.21043e-09
-2.54735e-08
-7.22087e-16
-6.4961e-09
-4.84535e-09
-6.26047e-16
-6.71057e-09
1.74508e-08
-5.28001e-16
-6.82975e-09
4.13265e-08
-4.36441e-16
-6.85528e-09
6.65698e-08
-3.55581e-16
-6.79219e-09
9.29332e-08
-2.95411e-16
-6.64663e-09
1.20186e-07
-2.39672e-16
-6.42249e-09
1.47873e-07
-1.61061e-16
-6.12185e-09
1.75613e-07
-1.54005e-16
-5.74676e-09
2.02775e-07
-1.50977e-16
-5.30022e-09
2.28654e-07
-9.16765e-17
-4.7869e-09
2.52413e-07
-5.30627e-17
-4.21447e-09
2.72815e-07
-1.51881e-17
-3.59375e-09
2.8853e-07
-8.81399e-17
-2.93968e-09
2.9787e-07
-7.82904e-17
-2.27251e-09
2.98669e-07
-8.9642e-17
-1.61898e-09
2.88319e-07
-9.24199e-17
-1.01386e-09
2.63694e-07
-6.8354e-17
-5.02228e-10
2.20843e-07
-9.34803e-17
-1.41039e-10
1.55151e-07
-3.79132e-17
6.09126e-08
-2.51702e-17
1.41238e-11
-7.01142e-09
-1.35214e-16
3.82616e-11
-2.14057e-08
-9.23384e-17
6.02456e-12
-3.47973e-08
-9.53872e-17
6.33446e-10
-5.92643e-08
-1.45096e-14
-3.47714e-10
-7.74698e-08
-1.14764e-15
-2.47833e-09
-8.15023e-08
-1.02684e-14
-3.87997e-09
-8.86728e-08
-3.10711e-14
-3.75614e-09
-9.79221e-08
-1.28333e-14
-2.39532e-09
-1.04478e-07
-8.14897e-15
-4.75764e-11
-1.05593e-07
-9.71279e-15
2.55916e-09
-9.44837e-08
4.18235e-15
2.55315e-09
-8.82052e-08
-1.05842e-15
2.28057e-09
-9.73227e-08
-3.28362e-15
2.08163e-09
-1.06601e-07
-3.33116e-15
1.95568e-09
-1.14513e-07
-3.22794e-15
1.88633e-09
-1.20958e-07
-3.11335e-15
1.82967e-09
-1.26257e-07
-2.89811e-15
1.7583e-09
-1.30873e-07
-2.75686e-15
1.65801e-09
-1.35034e-07
-2.51261e-15
1.52164e-09
-1.38814e-07
-2.40043e-15
1.34546e-09
-1.42207e-07
-2.19239e-15
1.12778e-09
-1.45169e-07
-2.05088e-15
8.68092e-10
-1.47602e-07
-2.02222e-15
5.66794e-10
-1.49435e-07
-1.97602e-15
2.2504e-10
-1.50556e-07
-1.8985e-15
-1.55316e-10
-1.50879e-07
-1.83865e-15
-5.71701e-10
-1.50306e-07
-1.76123e-15
-1.02075e-09
-1.4873e-07
-1.67707e-15
-1.49838e-09
-1.46091e-07
-1.62579e-15
-1.99962e-09
-1.42275e-07
-1.57908e-15
-2.51874e-09
-1.37217e-07
-1.38338e-15
-3.04928e-09
-1.30839e-07
-1.32981e-15
-3.58412e-09
-1.23066e-07
-1.26444e-15
-4.11565e-09
-1.13833e-07
-1.20278e-15
-4.63611e-09
-1.03082e-07
-1.13968e-15
-5.13788e-09
-9.07647e-08
-1.06826e-15
-5.61391e-09
-7.68349e-08
-9.93886e-16
-6.05803e-09
-6.12633e-08
-9.07706e-16
-6.46477e-09
-4.4027e-08
-8.25928e-16
-6.82736e-09
-2.51109e-08
-7.41478e-16
-7.13639e-09
-4.53624e-09
-6.47376e-16
-7.37043e-09
1.76848e-08
-5.50424e-16
-7.50812e-09
4.14643e-08
-4.59567e-16
-7.54669e-09
6.66084e-08
-3.7796e-16
-7.48781e-09
9.28743e-08
-3.15171e-16
-7.33585e-09
1.20034e-07
-2.56194e-16
-7.09444e-09
1.47632e-07
-1.72102e-16
-6.76614e-09
1.75285e-07
-1.63367e-16
-6.35378e-09
2.02363e-07
-1.61462e-16
-5.86123e-09
2.28162e-07
-9.32783e-17
-5.29409e-09
2.51846e-07
-3.96534e-17
-4.66117e-09
2.72182e-07
1.87121e-17
-3.97465e-09
2.87843e-07
-4.28115e-17
-3.25124e-09
2.97146e-07
-1.39233e-17
-2.51344e-09
2.97931e-07
-1.08144e-17
-1.79088e-09
2.87596e-07
-2.95547e-18
-1.12197e-09
2.63025e-07
2.78482e-17
-5.5637e-10
2.20278e-07
-5.13246e-18
-1.56675e-10
1.54751e-07
4.07737e-17
6.07559e-08
3.87248e-17
1.45108e-11
-7.02593e-09
1.00719e-15
3.77827e-11
-2.1429e-08
-3.34438e-15
9.60129e-12
-3.47691e-08
-4.50716e-15
4.72571e-10
-5.97273e-08
-1.06148e-14
-8.96113e-10
-7.61011e-08
4.97308e-16
-3.02792e-09
-7.93705e-08
-1.01586e-14
-3.95787e-09
-8.77429e-08
-2.68666e-14
-3.39576e-09
-9.84841e-08
-1.19039e-14
-1.82026e-09
-1.06053e-07
-6.13273e-15
3.20646e-10
-1.07734e-07
1.4152e-15
2.69613e-09
-9.68592e-08
-1.89022e-15
2.61505e-09
-8.81241e-08
-5.94093e-15
2.30285e-09
-9.70105e-08
-2.89159e-15
2.08043e-09
-1.06379e-07
-3.53396e-15
1.93639e-09
-1.14369e-07
-3.3129e-15
1.85396e-09
-1.20876e-07
-3.0309e-15
1.78801e-09
-1.26191e-07
-3.1845e-15
1.70882e-09
-1.30793e-07
-2.88666e-15
1.60065e-09
-1.34925e-07
-2.74435e-15
1.45525e-09
-1.38668e-07
-2.49333e-15
1.26822e-09
-1.42019e-07
-2.22433e-15
1.03733e-09
-1.44938e-07
-2.09442e-15
7.61792e-10
-1.47326e-07
-2.0818e-15
4.41809e-10
-1.49115e-07
-2.03795e-15
7.84931e-11
-1.50193e-07
-1.96511e-15
-3.26239e-10
-1.50474e-07
-1.8964e-15
-7.69649e-10
-1.49862e-07
-1.80858e-15
-1.24813e-09
-1.48252e-07
-1.7141e-15
-1.7573e-09
-1.45582e-07
-1.65456e-15
-2.29186e-09
-1.41741e-07
-1.60201e-15
-2.84571e-09
-1.36663e-07
-1.39866e-15
-3.41206e-09
-1.30273e-07
-1.34116e-15
-3.98345e-09
-1.22494e-07
-1.27302e-15
-4.55197e-09
-1.13265e-07
-1.20979e-15
-5.10954e-09
-1.02525e-07
-1.14655e-15
-5.64814e-09
-9.02261e-08
-1.07615e-15
-6.16018e-09
-7.63229e-08
-1.00407e-15
-6.63861e-09
-6.07849e-08
-9.20836e-16
-7.07658e-09
-4.3589e-08
-8.4153e-16
-7.46573e-09
-2.47217e-08
-7.58967e-16
-7.79515e-09
-4.20673e-09
-6.66299e-16
-8.04551e-09
1.79352e-08
-5.7022e-16
-8.19755e-09
4.16164e-08
-4.7996e-16
-8.24547e-09
6.66564e-08
-3.98176e-16
-8.18821e-09
9.28171e-08
-3.33737e-16
-8.02829e-09
1.19874e-07
-2.7244e-16
-7.76875e-09
1.47372e-07
-1.84563e-16
-7.41231e-09
1.74928e-07
-1.84073e-16
-6.96236e-09
2.01913e-07
-1.90885e-16
-6.42355e-09
2.27623e-07
-1.20682e-16
-5.80237e-09
2.51225e-07
-5.84498e-17
-5.10874e-09
2.71489e-07
1.52431e-17
-4.35624e-09
2.87091e-07
-3.82834e-17
-3.56332e-09
2.96354e-07
8.35083e-18
-2.75476e-09
2.97123e-07
2.77251e-17
-1.96304e-09
2.86805e-07
5.1403e-17
-1.23023e-09
2.62292e-07
9.5719e-17
-6.10542e-10
2.19658e-07
6.2371e-17
-1.72282e-10
1.54313e-07
1.03339e-16
6.05836e-08
9.04591e-17
1.47481e-11
-7.04068e-09
-3.02711e-16
3.84311e-11
-2.14526e-08
1.43717e-15
6.64904e-12
-3.47373e-08
-1.67702e-15
2.9473e-10
-6.00154e-08
-1.01511e-14
-1.31327e-09
-7.44931e-08
2.89128e-15
-3.21847e-09
-7.74653e-08
-5.20452e-15
-3.61481e-09
-8.73465e-08
-2.41024e-14
-2.70022e-09
-9.93987e-08
-1.09807e-14
-1.05247e-09
-1.07701e-07
-6.98424e-15
8.05442e-10
-1.09592e-07
2.67043e-16
2.86862e-09
-9.89223e-08
-2.42229e-15
2.68985e-09
-8.79453e-08
-6.07666e-15
2.32758e-09
-9.66482e-08
-4.10407e-15
2.07745e-09
-1.06129e-07
-4.00993e-15
1.91287e-09
-1.14204e-07
-3.77257e-15
1.81515e-09
-1.20778e-07
-3.57044e-15
1.73815e-09
-1.26114e-07
-3.6347e-15
1.64978e-09
-1.30705e-07
-3.12034e-15
1.53261e-09
-1.34808e-07
-2.94427e-15
1.37715e-09
-1.38513e-07
-2.73209e-15
1.1782e-09
-1.41821e-07
-2.3309e-15
9.32968e-10
-1.44693e-07
-2.14205e-15
6.40316e-10
-1.47034e-07
-2.11031e-15
3.00252e-10
-1.48775e-07
-2.06004e-15
-8.61518e-11
-1.49807e-07
-1.99793e-15
-5.16892e-10
-1.50043e-07
-1.9294e-15
-9.89034e-10
-1.4939e-07
-1.84012e-15
-1.49868e-09
-1.47742e-07
-1.74261e-15
-2.04111e-09
-1.4504e-07
-1.67928e-15
-2.61061e-09
-1.41171e-07
-1.62658e-15
-3.20069e-09
-1.36073e-07
-1.41592e-15
-3.80412e-09
-1.29669e-07
-1.35564e-15
-4.41303e-09
-1.21885e-07
-1.28536e-15
-5.01911e-09
-1.12659e-07
-1.2205e-15
-5.61385e-09
-1.0193e-07
-1.15666e-15
-6.18874e-09
-8.96512e-08
-1.08631e-15
-6.73553e-09
-7.5776e-08
-1.01535e-15
-7.24627e-09
-6.02742e-08
-9.33868e-16
-7.71286e-09
-4.31224e-08
-8.5612e-16
-8.12571e-09
-2.43089e-08
-7.74833e-16
-8.47293e-09
-3.85941e-09
-6.83273e-16
-8.73675e-09
1.81991e-08
-5.87901e-16
-8.89949e-09
4.17792e-08
-4.98136e-16
-8.95329e-09
6.67103e-08
-4.16413e-16
-8.89495e-09
9.27587e-08
-3.50856e-16
-8.72522e-09
1.19705e-07
-2.87802e-16
-8.44635e-09
1.47093e-07
-1.98882e-16
-8.06098e-09
1.74543e-07
-2.11472e-16
-7.57292e-09
2.01425e-07
-2.31611e-16
-6.98744e-09
2.27038e-07
-1.6391e-16
-6.31189e-09
2.5055e-07
-9.96061e-17
-5.55728e-09
2.70734e-07
-1.75896e-17