/*--------------------------------*- C++ -*----------------------------------*\
| =========                 |                                                 |
| \\      /  F ield         | OpenFOAM: The Open Source CFD Toolbox           |
|  \\    /   O peration     | Version:  v2006                                 |
|   \\  /    A nd           | Website:  www.openfoam.com                      |
|    \\/     M anipulation  |                                                 |
\*---------------------------------------------------------------------------*/
FoamFile
{
    version     2.0;
    format      ascii;
    class       volScalarField;
    location    "0.02";
    object      p;
}
// * * * * * * * * * * * * * * * * * * * * * * * * * * * * * * * * * * * * * //

dimensions      [1 -1 -2 0 0 0 0];


internalField   nonuniform List<scalar> 
3591
(
105877
102916
103142
102764
100824
111804
102806
102653
102876
121162
102683
101615
114857
120014
106984
109845
103267
90197
113670
94730.9
97444
95629.1
102815
102816
102848
102807
101799
51790.5
101589
102716
102687
102387
102701
102888
102886
102830
102844
102863
102857
103428
102872
102566
104179
99857.1
101987
103502
102156
102873
103898
103235
102448
102811
102722
102844
102908
56266.9
102872
99380
102227
102206
92480.2
103394
63193.1
102862
104518
103336
102800
103089
102890
123717
101935
101169
102988
102849
102903
102821
102679
102734
122358
103065
103844
104299
113423
101964
102077
102900
102635
101828
101947
101966
101970
102684
88390.7
102826
101958
102819
102022
102008
83846.6
102802
102684
96224.6
100747
102905
124445
102595
102690
102546
110707
102680
102910
102933
102779
102929
102916
102814
103031
102908
102785
102705
103021
103500
102730
102854
96943.2
98090.8
101168
119425
102915
114310
102692
101807
116398
102600
70430
102800
102996
74669.3
98831.8
79026.7
101766
76696.3
102191
102374
80880.5
102228
68599.4
102898
102895
102900
63638.2
102859
61639.4
87872.9
102928
102657
102900
102910
125268
53283.3
102903
102874
103954
102702
102845
102847
102845
102221
102707
102782
102837
102960
104223
102748
102733
102916
104276
104091
102741
102820
104192
102722
102730
102841
103010
102773
102855
63190.6
102865
102852
102905
87722.3
129476
102817
60377.6
109949
102907
102889
102676
103278
103042
103035
103779
103402
102136
110889
103298
103401
94160.6
115730
103177
74654.7
73837.7
100420
105261
101584
102571
102324
107726
103039
102948
102982
102870
102853
102858
102847
102675
69972.6
102362
98086.6
62916.8
67682.8
102876
73850.7
101763
107230
103070
102907
102722
102912
79672
102925
102936
102906
102926
101913
102797
102855
49696.4
102893
51005.9
52278.9
102872
102868
102849
102876
51532.1
102143
102078
102885
102045
102830
90580.2
102943
111474
102843
102917
102860
102988
102900
102994
105356
103801
101938
102214
102525
102913
102632
103007
95879.8
102592
102962
102926
94999.2
102838
103651
101114
107803
106390
102825
102721
102656
108301
108198
84181.3
109582
102435
102504
112882
124625
101849
102881
102884
102937
101291
102726
101843
102705
102701
102718
102884
101963
103129
103161
103398
102714
103025
102852
102730
102901
101566
96864.3
102091
97645.4
62161.2
90338.1
101936
60941.1
101499
86218.3
102167
102909
102178
102816
102289
102881
102751
102886
102935
102928
102889
102672
102791
102722
110812
111058
106563
107402
108936
123204
102712
102746
102719
102458
103071
102484
102470
102456
102695
92891.8
62344.8
102403
101418
102700
95604.4
102725
103393
104211
103225
102957
103307
103351
94822.2
102723
102843
76522
58697.6
103369
95018
102361
103383
103319
102837
103005
102837
103057
102994
102818
103205
102865
102864
102858
102897
101975
102918
101715
103000
102913
102738
99127
90349.9
103110
90984.7
100629
102884
102841
102830
102915
102751
102886
102854
102665
102834
57560.4
102984
79119.2
102697
102016
101720
102785
102715
102998
103959
102872
56583.9
103675
102586
102813
54329.3
100099
104313
102709
102716
102905
111720
102180
102705
106775
114723
97652.5
102766
103007
108210
115921
102280
102724
102355
102233
102316
102826
102872
102758
102684
102493
102688
104028
102780
102772
102706
102712
95125.5
102749
105705
102750
102726
102709
102787
102759
102689
67689.5
102735
102674
102683
106085
102453
110979
104331
104010
103837
102319
103250
104209
103607
102235
130715
102281
95801.9
102611
102647
102827
102673
102848
102801
102262
102264
102988
103560
103478
103448
102900
102771
102238
103019
103854
97934.8
102140
125383
101992
81312.1
55136.3
52209.7
66704.6
86950
102096
101756
102058
102299
102044
102114
102889
102917
102919
102910
100306
101985
102924
103060
103039
102892
102850
102937
106399
102890
115570
102959
102844
102786
102694
102722
103277
102896
102880
101228
102013
101960
103101
102797
102759
102888
102772
102006
102283
104629
102471
102404
102686
101696
102696
102702
102654
98293.5
108731
102664
90060.7
103257
76294.5
102912
95041.8
102644
101663
103294
103227
103560
102625
102677
102692
90110.2
102628
102942
102941
102867
97803.5
102937
102789
102942
102789
102055
101901
101762
101987
102793
102807
101903
102872
102831
100821
106918
102719
102855
102724
102421
102975
102183
102393
109981
110572
102227
112787
103998
103829
110677
111423
102815
102617
103018
101682
102851
102870
102835
102835
102816
102844
102833
102540
103778
103044
101918
102927
103098
70236.9
103187
102826
56799.2
123284
102892
102998
102870
102947
102426
102411
102444
102576
102767
103793
102758
102774
102783
102710
102760
102604
102602
102502
92148.6
50678.5
102768
102775
102918
106764
104709
104988
104274
103274
102888
102635
100700
102886
102996
103331
102447
102727
101697
92372.6
101251
102425
102925
101520
101270
102920
102920
124952
103865
104206
104434
102909
104745
102874
102734
102906
125197
102821
100106
102912
102912
102853
102086
102290
102957
104292
102438
102884
103085
102879
101523
102641
102474
102303
102891
102841
102702
70823.6
101255
98773.2
102380
102604
101071
98029.4
106259
105619
102834
102829
102846
101881
61426.7
102820
102813
103398
102903
103766
101632
108202
103009
103095
102887
102915
101935
102230
102225
102667
102902
102913
102993
102951
102907
102811
102734
104861
102761
101302
100410
98888.3
102418
102783
102867
102895
102874
102898
103034
102757
102873
102745
103080
103044
102693
103040
102938
97096.3
101939
99350.9
91061.6
102606
102528
90160.1
53656.6
102571
101827
101809
102323
102641
101196
103202
102942
101954
101639
102934
102764
103013
101590
102398
100025
99682.4
103025
102799
102954
102879
102867
102943
103188
103293
103259
102782
101045
102849
102863
102761
102392
102771
102719
102856
112547
102904
102871
102777
101803
102373
102420
103060
102848
102865
101089
71895
102884
102886
102889
102895
102799
102738
102712
102812
102781
103059
102792
113080
102922
103091
102930
103003
102677
102758
102928
103812
103011
108852
111117
102766
102908
102752
103832
106762
124834
71214.2
98017.9
100217
102759
101365
102680
102765
102020
102219
102184
102888
101459
102245
102348
101594
102814
102950
88065.2
87207.1
102732
102762
102772
102747
102775
105838
98405.3
113356
111993
131183
118286
102635
102643
102814
102809
102801
102825
102905
91643.3
104269
102490
111501
96261.8
110931
102482
102536
102723
102759
102758
102749
102903
102729
102791
101716
102103
102900
101180
102510
101836
101625
123541
102801
102656
116746
102148
86306.7
103966
104351
86097.7
124888
117397
102181
112558
102151
112141
111842
102904
111471
114284
102899
102893
102886
83309.1
87835.3
97613.5
80353.7
72600.5
101770
102123
102605
102907
102807
68387.6
102771
59311.3
102795
102816
102807
81500.3
80944
102161
102374
102875
102829
102780
105612
102620
77103.4
76454.8
76206.1
94210.3
102835
75358.8
77413.7
91698
92303.7
102914
103502
102848
102840
103853
102851
102843
102921
102860
99506.2
125111
125617
104891
90869.9
104377
102916
101438
102835
102855
102781
101833
103205
102381
103427
90102.7
87135.2
97208
76382.3
93175.1
102873
102889
102894
102423
102849
102882
102871
102846
102899
118083
102904
102882
102876
102666
102762
102459
103006
102987
102942
103792
93040.3
102999
103459
103123
96677.3
103014
102964
102962
102959
102753
95669.9
103007
102969
102836
91515
102848
101230
102105
55365.7
102698
102806
102906
102921
102773
75619.4
102896
102918
102793
102795
102927
102934
102918
98194.4
103513
102071
102863
102743
116711
102588
102999
103182
103112
103162
103159
103416
105186
103963
105441
92525.1
70999
102576
102609
102814
104284
100329
102912
102924
103044
102896
73045.7
102891
102707
102949
70638
103075
103156
103275
116508
102345
103210
102913
102985
102975
102861
77371.2
102959
79242.7
102471
102787
102809
102865
102913
102890
102877
102731
102710
103056
100520
63914.8
101566
102876
102899
102516
102894
102886
102824
102798
102770
102743
102768
79721.9
81210.1
84490.3
87355.3
103024
113392
103094
104192
114373
102946
102167
102780
102630
102908
101209
101670
101685
101993
103065
103126
102072
101638
102927
102564
102513
104288
102900
102852
102906
103523
103270
102834
103516
102570
102525
102624
61079.3
102675
108188
102302
107081
102316
102567
102594
103028
103131
102963
102987
102950
102957
102866
102580
99230.2
102702
102931
101012
101982
102737
101936
102774
102744
103185
102717
102881
102738
117574
102729
102803
102739
93583.9
102750
102389
102837
102467
102814
102901
99641.3
109019
111924
103125
102808
102983
102803
102896
102839
102814
102861
102757
102720
102753
102873
102753
103252
103191
103148
102884
102872
102905
101995
102616
103203
103102
108472
103005
103154
102750
104198
106629
106065
52482.2
106869
69102.7
130064
82084.3
108205
64217
101937
101843
102028
102102
101996
101960
102782
101664
102915
102936
102919
102924
104885
102302
102926
101279
96662
97964.6
91917.2
102724
99614.1
127653
102839
102923
83271.2
104273
102553
102559
102827
88666.3
104675
89814.2
102529
104820
103371
102676
103117
103330
103225
103278
105471
103563
106386
106566
102966
103248
63582.4
99930
100155
102686
102918
102789
102267
102106
103151
102698
103008
103018
103066
103110
103084
102960
102691
102715
102705
102724
102872
102697
102986
80896.5
104079
78298.4
82853.2
84175.4
98058.7
123688
124926
79119
102015
102132
101824
93712.6
102108
102065
102148
102119
102902
102911
102710
102906
94710.3
101798
92615.2
103368
103710
102901
96843.5
102898
102262
102277
102040
102887
102717
102817
102874
102716
102698
102678
102812
102418
102650
99534.2
98220
123997
102655
98703.2
103174
102909
110457
103801
103680
102948
103131
103078
101890
98511.5
102101
102247
103207
101871
102867
102860
102778
102863
102831
102916
105485
102851
101389
102711
102675
102988
103478
102852
101426
102606
102784
102848
102270
102449
109048
106849
94817.7
101707
109039
104434
103163
103180
103262
98768.4
95225.8
101918
81049.4
87710.2
102176
102190
50223.3
49303.9
74530.1
102183
102044
102078
102048
102791
102775
102906
102902
108015
102898
102761
101357
102727
102739
102769
102965
102899
106730
105213
90963.9
102711
104919
76479.4
102070
102072
102975
102021
103284
102907
102912
102688
105242
102724
102785
102782
119445
79351.1
102817
102845
85711.5
102920
102924
102732
102006
101759
101980
102803
101840
101998
102612
114999
102575
105040
102585
94720.6
102604
102589
102957
102904
102906
102519
102905
102922
103143
103055
102891
104767
102444
102823
101537
99814
101492
102306
102473
102881
102822
102842
102721
114172
102897
102786
102748
102501
80848.8
102431
102141
102866
102859
102860
102853
102769
102859
103039
103033
102900
103109
102699
102737
102845
102241
102016
100707
77983.7
102891
87594.1
58854.7
100279
102741
102746
101927
75736
102732
71840.4
99954.6
102767
102685
97019.4
102682
103029
102787
103027
106129
103439
114547
103163
109742
112716
113344
99426.1
100045
102329
90310.1
63225.8
99993.9
101959
101997
102034
107915
103150
115535
103029
102817
121827
122491
102883
102904
119749
102758
102737
102850
102819
101992
101958
101991
101906
102911
102919
102910
102912
58761.3
55468.7
99844.9
100228
102926
103102
102835
104074
99277.3
103790
104012
104487
87568.4
50979.4
67128
75520.4
74639
102637
102112
102127
102139
102092
102119
102045
104110
102797
104063
102916
102930
102912
92509.5
102706
102771
102187
103179
104380
115283
103977
102508
102517
102447
102351
102358
102366
102541
102421
102572
102375
102417
102819
102816
102800
101763
102934
102699
103179
103692
102780
102800
103716
103422
103352
103330
103241
102847
103345
102778
108700
109717
102871
102822
102781
102776
56854.4
49459
103392
102831
101855
102798
57770.6
102944
102905
102920
103063
103366
103656
102020
102763
98062.1
102791
102831
55169.5
58521.1
63670.4
63396.8
91254.3
74543
76191.9
59317.8
73073.8
126150
74542.5
100647
96697.4
97461.6
53546.2
51133.9
97423
99419.2
102894
102904
102951
102908
102225
102906
100731
102120
102863
102888
102872
102753
103415
103171
102859
103239
103034
101382
101440
101508
102724
102825
102931
102960
102934
102813
102723
99272.6
102631
102659
102654
102643
102756
102768
102671
103238
102845
102993
102935
102840
102849
102942
102869
102789
99925.2
108247
101945
101473
93275
102082
103122
103101
101788
101470
101872
101991
101302
101286
100954
101578
101003
102153
102848
102839
121793
103599
103132
102735
103537
102832
102822
99956.5
85183
102246
102759
102792
97432.6
102220
102308
54101.1
68496.1
74231.2
101152
84864.2
78530.3
102696
102745
102712
102880
102912
102916
102832
102922
102930
102920
102825
102895
102699
102889
103031
103030
102943
102899
102173
101925
102980
102645
101792
102193
98846.1
102214
101635
99982.2
101919
101809
101901
103632
103201
101857
102977
102744
109039
102892
102807
102844
102694
102845
102825
102841
102690
95016
59491.8
102405
102399
102860
102891
111839
101285
100953
99358.6
101560
102869
102902
102879
102772
88502.2
102677
93772.4
96092.9
90997.9
102012
103118
64727.2
103856
102027
95571.7
101991
99782
95129.9
101664
102741
102914
102883
102821
102769
102897
102803
102710
102712
102911
102690
102919
102787
67746.2
101972
101953
102912
102900
102913
102952
102905
102908
103443
103613
103683
103533
103552
96592.1
102693
88625.2
91844
103091
102834
102804
102795
102789
90175
102529
103602
103797
103060
103219
91766.1
114720
103242
103281
103216
103234
86771.4
102667
100308
100113
102660
101884
102652
102299
102707
102865
102827
103031
55968.8
102900
102687
102691
70914.3
53780.3
59611.7
102878
102736
102916
102894
102805
102706
102921
102857
102912
102778
103005
112578
69589.4
101784
100406
103281
103119
103203
106813
107530
108055
104804
103099
104190
102885
102885
102898
102870
102879
102995
68381.4
70994.3
97455.8
102927
102926
102895
102903
104541
91895.7
107473
103033
102238
62501.7
98587.2
102485
102911
102952
102909
102825
102780
102801
101378
101634
102403
102991
102444
111784
111599
116474
51810.7
102433
102470
85123.9
102760
64433.4
101739
61884.5
64945.7
66759.7
64904
102767
102746
102501
102477
101757
101542
101950
102995
101967
102498
98663.4
64144.6
102306
102745
103616
106319
106394
105176
96340.6
109766
102915
89157.2
108578
102973
101704
58699.2
102959
102988
102848
102981
102844
102848
101255
102999
105004
103007
102892
102019
101843
85338.7
102468
102287
102383
102697
102910
102980
102889
102842
102697
102743
102723
102782
102708
102709
103239
103335
103091
102834
102819
102787
50643.9
102944
50587.3
100222
55651.2
52783.5
51420.2
52297
65807.2
57109.2
53546.3
92264.4
102743
58197.7
62432.2
102951
102958
103195
102952
100050
86403.4
49648.9
102413
102698
103240
102193
103243
102374
103312
103100
101901
102329
103182
102810
105003
102875
102797
79915.2
102852
102919
102750
70789.7
75640
68937.5
102715
102709
60072.7
75762.5
102929
102911
102916
102917
102918
102840
103066
103640
102336
110893
109701
99220.7
102986
72313.1
102241
101200
102692
102909
103051
103132
102712
102852
103059
102175
102963
102980
102961
102985
102744
102934
102978
102919
102972
100769
102760
101158
103526
103463
102913
103107
103049
103018
102906
100925
102923
86087.9
102833
102055
102809
102860
102982
102887
102865
103259
103230
103023
103247
103087
103662
102939
101584
101779
101974
101992
102706
102103
102180
102726
102728
102875
102874
102883
101654
102473
105192
101541
104627
102699
102939
102686
102905
101928
101554
101669
102784
102777
103690
102895
102758
102907
102968
102529
101987
86787.5
102774
65033.9
92154.9
71304.8
100285
100556
102814
102942
102792
103136
102911
100496
97569.4
100256
102853
102829
101833
101652
102882
102899
102889
102884
102772
102873
102991
102982
102701
102937
103260
102022
102725
102296
102447
103367
69824
101016
96323.9
102905
102909
98252.9
102311
100376
94694
101360
95540.4
132239
102879
103045
103049
102562
102935
109433
102563
102590
102265
102704
102779
102729
102729
102785
102719
103959
105862
103740
102776
102804
102998
103011
102956
102283
111270
55083.7
86692.2
86889.1
58760.7
101143
101943
101995
102927
102915
102902
102896
101398
101104
101068
102919
102945
103018
102984
102708
67932.4
75466.3
80074.2
89027.2
78802.2
110981
102893
102655
102792
102801
102293
102232
116803
102347
102828
122339
102301
102867
116259
102876
102877
105714
102721
106494
105979
102958
102874
102885
107143
106569
103190
103153
97623.6
115510
103214
73330
102738
102993
102965
103059
103428
103190
120372
103054
103098
103069
103071
103064
100475
64067.5
110626
102101
102032
87764.7
115475
103648
95590.8
112348
123555
102643
102793
102835
102860
52057.4
102939
55682.3
102943
102924
102938
102882
102879
127019
102596
102755
102556
103001
102510
102562
102525
102462
102490
118290
102621
102750
96197.9
102429
102353
102356
128263
102885
128059
102550
102670
102670
102715
104291
70074
101396
103335
89677.9
100576
101989
103040
94026.1
102971
102911
102872
102884
102899
102910
104929
99076.5
102988
103102
102673
103187
103154
103098
103087
101353
102877
93305.4
102781
102791
106076
103020
103242
102983
106383
102823
102754
102730
102821
102856
102772
102889
102882
102873
102925
102950
103113
103185
102862
102951
102955
103064
102958
101899
102867
102734
102751
103012
102882
102949
102779
102820
102950
102806
103093
103039
100275
102739
52272.1
64230.1
101706
102861
102050
87478.4
101963
102617
102863
69686.1
85164.7
59845.5
102828
102740
96476.6
101742
97507.8
89100.5
88845.9
97597.8
100540
102229
102370
102238
102427
102213
102515
102444
102549
102491
102825
102934
103155
103079
102489
102911
100490
102915
102822
121974
102724
102998
102829
101969
89525.1
103622
101378
102717
102739
102834
102833
102727
116977
124084
126055
112103
101983
100337
101939
102502
102606
102513
102525
101192
105771
102897
102899
100429
102893
102895
102864
102872
102857
102843
102862
102884
102868
102179
102329
90124.4
70615.6
71087.7
100770
101910
102375
102893
102910
85729.5
102767
102754
102767
101164
102652
102759
102874
102689
103186
102736
102682
102743
102104
102974
103255
106416
99540.8
103569
103542
103796
103511
96728.8
103129
103119
103109
103099
103725
102948
102965
102952
103068
103690
105972
78531.6
55612
67201.6
101160
91352.9
104593
91170.2
105042
104171
101565
102705
115183
102808
102933
102921
102971
103001
102966
102916
102808
102811
103006
102908
102949
103669
66472.5
72444.4
72007.4
103442
66570.5
71078
102678
77458.6
102328
103791
102779
102785
102766
103025
103029
102745
102750
103011
103013
102953
83265.8
102880
102900
102927
102935
106965
57006.7
109644
102718
102696
102891
103452
103496
103347
103295
103764
103574
103551
66651.9
68515.1
86470.1
90883
102720
92615.2
102616
102935
102795
102808
102731
102738
102918
102990
102998
103019
102889
102991
102235
102683
72067.5
74077.8
102195
86142.2
102696
103862
102801
104274
104362
110444
103891
105636
105620
102968
102898
103099
102943
103293
103348
103198
103298
102792
103035
103305
102152
103030
103042
109164
103650
103049
74901.4
75060.6
79607
55405
101050
83317.6
77519.8
102161
102081
92439.5
84924.8
101953
101285
103029
120128
106325
103253
102057
102552
109914
102554
102956
82685.7
102881
102817
91521.6
102160
102747
102883
102904
103096
103086
102899
103094
103212
102784
102681
102902
103344
103137
103145
102128
103080
101544
101121
101805
104637
102178
102170
101614
101165
101128
101170
101145
103985
120774
61307.5
102332
102797
102738
102894
102760
90133.2
92589.6
101939
102706
102692
102908
102915
102903
102769
102778
123277
117612
102980
101654
103505
103687
103662
103031
103612
103658
103027
102677
101593
82053
101662
123225
101516
68491.7
102170
102642
102719
102651
102896
102907
102908
102902
102627
102664
102765
102955
102950
102809
102813
102828
102820
103128
103066
103095
103171
103194
71141.8
101891
98911.5
103260
96445
92936.1
99704.3
113654
103426
103072
102787
102960
102027
101987
101951
94873.3
77638.3
84413.5
87938.5
110301
109417
102904
102011
101937
102143
102625
102522
101492
102730
102579
101446
102921
102514
102902
102906
102892
102832
102754
102859
102797
102463
102663
102470
102902
102913
102818
102904
102910
102913
113421
111508
97384.7
99810
98473.3
102253
102259
82654.8
101647
87527.6
102815
102849
102883
102886
102702
97742.5
102964
78209.3
84173.1
79004.3
102364
102662
101746
102873
102866
102860
102849
102743
102909
103079
103022
102897
104473
66029.3
101813
49139.7
113307
117205
103042
122442
103016
99200.7
100177
67691.1
102265
102139
102133
102112
102759
102775
102765
102900
101421
103040
103693
102901
102905
116940
110745
103404
102743
101438
102755
101916
101946
102631
102742
102825
102323
48337.2
101508
101291
101208
101461
102840
117704
102228
102770
102970
102964
102970
102964
92132.5
115867
115390
107397
120673
100533
120554
101787
102435
102483
102852
103156
120699
105415
102915
99532.7
81696.4
105826
107491
102771
99135.7
116666
111848
102359
104543
111924
87427.7
101883
113357
101859
102574
102527
102908
102827
102790
102798
65137.9
58502.9
61004.3
102039
103029
93369.6
101937
102016
102777
102900
102893
102891
101341
102905
101994
102413
53439.1
102942
53951.9
51743.9
102795
59804.1
58913.4
102748
102760
102655
102727
103765
103536
111153
111549
111090
111827
102716
98788.6
103370
102086
103650
103017
101626
103324
102734
102193
101297
101772
101077
102936
102630
102795
102830
102899
102999
102824
102838
102993
100745
100699
80226.5
107675
54420.1
101510
112622
116078
113249
98624.4
102851
102830
102288
102830
102909
102800
104013
102856
101746
102329
102285
73162.2
102312
102602
102478
101128
102800
102879
102859
103000
103009
102877
102836
102892
95770.5
104068
103054
102928
103142
103173
102600
101842
102867
98829.3
102891
101181
102586
104797
102353
101260
102932
102943
102081
102891
101508
102828
102861
101488
98303.1
99851.9
94995.7
102467
102730
102506
102939
102787
118704
102961
102971
102966
102850
102653
102874
102778
102751
102790
102785
102859
102865
101891
101738
102623
93140.3
102617
103928
104844
102747
99030.7
101960
96526.2
102883
102913
102732
79461.9
102376
102390
102545
102758
102601
102540
102603
100766
103197
102428
102850
102137
85155.7
103155
102864
103021
92201.4
102828
102864
100249
102859
77963.5
102588
102462
102912
102985
102999
102826
102752
102866
102904
102710
102681
102945
102794
102841
102817
102896
117482
103085
104382
72540.4
102693
76164.8
101957
102180
101868
88442.5
87216.2
102948
80481
102707
102526
103648
102818
102889
102917
103024
101683
102873
102980
98219.3
111660
101710
102004
103587
106053
71733.3
70697
102613
102686
102722
55970.8
102841
67525.3
102889
78873.1
102894
102892
103419
82865.8
102818
102831
102804
103057
102819
102853
102862
102849
101685
103707
102698
105073
102766
102781
102768
103015
96755.8
98187.9
102638
102940
102875
102856
105482
102822
102815
102838
102835
111508
103308
103104
102929
111515
112283
102500
102645
102901
101895
102592
102610
102826
102815
100236
103053
102993
98206.7
102903
102898
102955
102715
102906
102816
55094.4
102692
102512
102001
102550
66469
101869
57920.3
53262.8
103188
101934
103379
102792
102770
104345
102785
103048
102925
102919
102916
102928
102739
102763
102765
102670
102648
102679
100739
96490.3
113943
102822
103016
120495
103111
103144
102631
102773
102892
102750
102902
102715
109613
103048
108981
102832
102802
102843
102815
103426
102929
103175
102972
103862
85124.4
68794.1
124853
101222
95113.2
108950
105052
124809
103009
102603
102711
102715
68108.9
67312.2
64408.9
55881
102898
102868
102891
102759
102854
102878
103293
102817
102807
102800
102809
102802
91908.9
97019.5
93324.9
95158.1
92945.8
103288
102736
102794
102324
103109
102863
102805
102796
102805
102358
102716
103209
103456
102726
102737
102748
102728
103027
102770
102903
102908
102877
108746
103071
104431
103447
102893
102374
102362
102542
102924
102872
103668
103582
125209
118975
126416
122570
102336
102222
102876
102906
103061
102906
102897
122329
107758
67826.1
49736.1
102494
102513
102631
102605
48660.4
50885.7
56637.8
102786
102810
101999
102788
100025
92829.9
102983
102893
102911
102910
102909
102902
95779.6
101915
89753.2
92443
102825
86585
102954
83240.3
102989
102772
102924
102930
103072
102737
102751
102767
101935
103137
103170
96940.2
101979
102689
102644
102595
102652
102125
102868
102875
111613
122286
102945
76183.9
102954
102943
101978
101949
102968
102903
102904
118507
104080
93886.9
81070.9
98242.7
102915
102914
101570
102121
102153
101968
101971
103261
121456
122959
123161
106190
102599
104439
105419
102593
102586
125952
103005
102603
102751
102758
102455
103309
115384
86202.7
103328
102900
102936
102867
103621
102863
103200
101667
103255
103102
99712.8
109630
103038
102500
102435
109162
110799
105701
102792
102754
102795
102803
102844
102845
103334
102859
101759
101736
102411
103218
103312
102034
102203
101939
99430
101570
48618.2
103522
103351
102869
102858
102736
102731
103026
102928
102928
103560
102966
102911
102794
102833
102787
102986
102978
102951
102949
101332
101369
101324
102860
101483
102837
102886
100232
101240
50700.7
95027.7
102107
101676
102828
103003
102992
100323
99582.3
84261.9
79109.4
79729.2
69609.4
70000
114980
92474.8
62855
90380.9
66351.3
103156
101935
102905
102861
102950
102850
102808
102938
102942
102942
100997
102987
103473
103730
103389
103538
103599
115097
102506
102586
82806.2
102223
101794
102344
102805
102785
102752
102754
103635
103857
104023
103891
97177.2
100767
90714.2
101976
102003
102846
102973
103061
102077
101932
103172
102047
102072
102237
102909
103312
103478
101796
101625
103399
101289
103585
102736
102744
102982
103146
102748
102751
102883
101617
100844
102904
103283
102836
122040
102985
102807
102985
97252
101251
)
;

boundaryField
{
    Inlet
    {
        type            calculated;
        value           nonuniform List<scalar> 0();
    }
    Outlet
    {
        type            calculated;
        value           nonuniform List<scalar> 0();
    }
    Symmetric
    {
        type            symmetry;
    }
    Wall
    {
        type            calculated;
        value           nonuniform List<scalar> 
251
(
125383
127653
112103
89525.2
91521.8
99426.3
100475
101743
101999
102105
102222
102362
102492
102607
102698
102777
102833
102872
102893
102902
102898
102883
102862
102836
102807
102770
102738
102699
124854
126416
113943
92589.5
90580.2
100308
100420
101638
101966
102045
102234
102355
102501
102600
102706
102780
102836
102877
102900
102908
102904
102896
102875
102849
102807
102778
102734
102705
125209
131183
130064
129476
123541
98293.2
98058.8
89678.4
91514.7
87722.4
94872.8
98473
96224.9
96262.3
100256
100430
100306
101491
101180
101520
101909
101939
101961
102015
102051
102078
102151
102162
102167
102299
102293
102337
102444
102427
102458
102571
102553
102587
102675
102655
102682
102758
102738
102765
102825
102809
102830
102869
102853
102863
102898
102883
102891
102910
102899
102914
102911
102902
102901
102898
102891
102889
102879
102874
102872
102853
102849
102848
102825
102822
102825
102792
102789
102780
102756
102754
102753
102718
102717
102706
102679
102679
102670
95225.5
118705
124926
102472
123688
83266.3
100576
97018.9
90380.9
99857.7
97384.6
100731
100496
101834
100953
101953
101849
102132
102008
102237
102143
102387
102280
102524
102435
102636
102550
102731
102652
102798
102746
102855
102813
102880
102858
102910
102891
102904
102903
102910
102911
102884
102900
102861
102888
102833
102864
102808
102829
102772
102795
102736
102754
102702
102722
102687
110300
91169.8
100228
100490
101824
101963
102081
102225
102375
102512
102625
102718
102797
102849
102886
102905
102912
102906
102889
102866
102840
102808
102772
102738
102699
80895.6
82653.8
114722
123276
125381
124852
74076.8
90123.4
92154
101646
86096.7
111507
123224
125110
124623
73329.1
58853.7
91697
85123
98016.9
106761
122286
120773
121161
79108.2
115509
79728.3
118082
78801.1
115474
104918
)
;
    }
    procBoundary1to0
    {
        type            processor;
        value           nonuniform List<scalar> 
28
(
114181
113386
106748
113152
60835.5
110486
111649
78830.5
72591
65482.7
98388.5
114215
69481.7
64713.1
68396.8
109016
83634.8
78265.4
113122
87122.2
62917.9
74371.2
97353.6
103396
112629
71975.8
96475.7
68063.1
)
;
    }
    procBoundary1to3
    {
        type            processor;
        value           nonuniform List<scalar> 
32
(
102549
102671
102671
102369
102724
102706
102675
102674
102679
102664
102662
102660
102695
102689
102670
102709
118269
102664
102631
102633
102707
102499
102686
102593
102699
102556
102680
102558
102677
102705
102516
102590
)
;
    }
}


// ************************************************************************* //
