/*--------------------------------*- C++ -*----------------------------------*\
| =========                 |                                                 |
| \\      /  F ield         | OpenFOAM: The Open Source CFD Toolbox           |
|  \\    /   O peration     | Version:  v2006                                 |
|   \\  /    A nd           | Website:  www.openfoam.com                      |
|    \\/     M anipulation  |                                                 |
\*---------------------------------------------------------------------------*/
FoamFile
{
    version     2.0;
    format      ascii;
    class       volScalarField;
    location    "0.02";
    object      p_rgh;
}
// * * * * * * * * * * * * * * * * * * * * * * * * * * * * * * * * * * * * * //

dimensions      [1 -1 -2 0 0 0 0];


internalField   nonuniform List<scalar> 
3591
(
98007.8
99571.3
99765.8
99611.9
99669
98877.9
95514.7
95978.8
99437.3
99563.3
94665.1
97544.5
98812.1
99053.4
98925.3
93724.2
100972
99613.7
99110.1
99610.8
99610.2
99617.3
99593.2
99593
99577.7
99595.6
99645.7
99572.7
99649.2
99400.4
99441
99667.8
99415.4
99560.4
99562.8
99590
99583.3
99439.2
99427.8
101442
99439.2
98793.6
101081
99621.6
99690.8
101190
99685.7
99442.7
101429
101369
99663.6
99599
99399.5
99393.8
99527
99567.1
99578.6
98329
99678.6
99678.3
97854.5
99658.7
99529.3
99446.4
101091
98384.2
99599.3
99508.5
99467.5
99564.9
100984
99789.3
99564.7
99404.2
98539.5
98356.5
97262.5
99279
99564
97582.1
96876.3
100231
97614.2
99669.2
99664.1
99537.2
99770.4
99648.2
99663.2
99666.6
99667.9
99433.3
99588.3
99587.5
99677.5
99591.6
99676.6
99671.3
99541.6
98596.7
99443.5
99607.9
99648.6
99538
99570.3
99645.3
99422.1
99658.7
115928
99629
99540.6
99540.5
99363.7
99533.4
99550.5
99378.3
100453
99521.8
98748.1
99424
100810
98976.5
99617.1
99422
101477
101523
101602
102228
99519.4
102135
99414.2
99653.9
100883
99643.2
99623.8
101613
101629
99577.9
99634.1
99636.7
99654
99581
99690.8
99669.9
99582.1
99702.8
99574.7
99546.5
99478.5
99543.8
99602
99576
99575.9
99655
99561.6
99640
99549.7
99439
99566.6
99581.1
99456.7
99445.4
98005.9
99373
99580.4
99409
99581.1
99675.9
99395.8
98956.6
99584.7
99542.7
96136.6
99358.5
99353.8
99052.4
96421.3
95937.3
99622
99379.6
97522.1
99344
99372.7
99402.9
99677.6
99371.2
99574
99572.8
99570.8
99357.4
99599.9
99591.5
99569.9
99589.9
99564.1
101877
99510.5
99467.4
94520.2
100912
100173
99582.5
96350.4
100820
100876
99469.7
100414
101042
99568.3
100584
101476
99565.8
99568.4
99636.4
99567.8
99761.8
99685.6
99684.4
99431.6
99531.1
99552.7
99552.9
99426.7
99392.6
99416
99046
99628
99593.4
99671.2
99569.4
99567.5
99569.6
99443.5
99524.9
99692.4
98994.7
100334
99537.7
99620.8
99530
99522.8
99521.8
99548.3
99549.6
99481.9
99700.8
99604.1
99578.9
99561.1
99456.1
99554.5
99554
99573.1
99572.2
99583.8
99450.8
99577.5
99676.7
99673
98894.5
99674.8
99393.6
99601
100876
100418
97490.4
98819.5
98457.9
100307
99551.6
99914.6
100094
98488.4
99661.4
99684.2
99669.3
99540.1
99778.2
99552.9
99238.3
96757.6
99556.7
99492.9
99628.4
99345.6
100292
100052
100319
100782
99376.6
99244.9
96151.3
100715
100294
99586
100880
99664
99660
102155
99565.4
99660.4
99467.6
99462.2
99510.9
99742.4
99618.3
99716.7
99411.2
99385.4
99360.2
99456.9
99658.5
100087
100087
100256
99385
100296
99624.3
99340.4
99553.5
99753.6
96916.2
99702.1
99653.6
99535.2
99648.7
99688.7
99603.9
99698.3
99598.8
99772.5
99506.5
99702.2
99606.6
99679.3
99456.5
99297.2
99403.3
99507.4
99501.3
99462.2
95290.1
99245.1
99393.3
99653.1
99896
100049
99994.1
100023
99285.9
96331.6
99614.7
99621.5
99666.4
100419
99663
99666
99670.4
99625.2
99625.3
99607.9
99677.8
99650.6
96382.7
99629
96862.5
99172.3
95797.6
99372.4
99541.7
99293.4
99212.3
99628.8
99618.3
99409.8
99576.8
99590.8
100523
99668.1
99691.6
100807
100971
99410.4
99556.5
99403.8
99636.8
99546.5
99024.1
99565.3
99419
99422.1
99418.6
99469.9
99660.4
99568.3
99761.5
99914.5
99487.3
99390.3
99623.5
99636.9
99491.6
99635
99341.4
99578.9
99593.1
99598
99514.8
94075.2
99576.9
98304.6
99644
99399.9
99541.5
99551
99615.8
99415
99672.6
99751.4
98612.5
99306.7
99629.6
99105.5
99566.7
99537.9
98352.5
99649.1
99207.8
99590.3
97955.2
98911.3
99366.8
99347.1
99383.6
99433.3
99688.3
99383.7
99949.5
99557.6
99563.1
99343.7
99629.2
99782.4
99559.8
99674.3
99323.8
99671.1
99676.3
99673.6
99589.2
99453.1
94834.3
99424.8
101217
99430
101020
99332.8
99325.3
99418.5
99621.8
99004.6
99616.9
96845.2
99617.6
99621.8
99632.1
99624.4
99625.7
99674.2
99590.3
99626.7
99641.3
99636.4
96755.2
99877.8
99383.1
95693.1
98702.8
98951.7
99677.2
99358.9
95653.7
98871.6
99687.1
99568.2
99679.3
99580
99643.1
99635.6
99246.3
99632
99426.9
96997.6
99712.3
99682.7
99558.3
99913.7
100084
99985.7
99577.1
99636.5
99677.1
99582.5
101411
100691
99868.1
99565.9
99665.2
99580.3
99595
99590.2
99613.1
99581.2
99687
99696.5
99685.4
99672.7
99681.8
99678.5
99478.8
99525.1
99511.6
99483
99630.5
99667.4
99522.8
100590
99570.7
99581.3
99646.2
99533.6
100394
99418.7
100408
99590.7
99602
99619.1
99645.3
99638.7
99505.2
99493.1
99446.8
99642.9
99646.5
99663.1
100562
99298.6
99359.5
99457.5
99337.9
100093
100170
96011.6
100279
100261
94324.5
99708.2
95407.9
95663.3
96454.7
99581.8
99574.3
95725.9
99652
100221
99634.1
99051.6
99655.1
99637.2
99801.6
101481
100713
100711
99638.9
99630.2
99627.9
99643.2
99640.4
99525.6
99521.7
99571.2
100879
99514.6
99387.9
99523.5
99380.5
99683.2
99692
99703.4
99670.9
99380.9
99395
99658.4
99439.7
99585.4
99682.9
100753
99400.6
99576.2
99386
99676.9
99647.7
99698.2
99668.3
99560.4
99561.4
99697.2
99515.1
99021.9
99296.9
99339.8
99272.4
96182.2
97217.9
99989.7
99872.4
99582.9
99575
99585.9
99414.3
99393.7
99415.9
99405.2
99655.9
102195
99551.6
99867.4
97800
99688.6
99530.2
99702.2
99413.5
99584.5
97177.4
99435.9
100146
99436.6
99535.2
99670.8
99704.4
99667.2
99649.5
99229.1
97875.8
99232.6
99247.9
99246.9
99393.9
99196.1
97580.7
97090.8
97329.7
99570.5
99593.5
99187.4
99183.9
99554.8
99556.6
96091.2
96085
95922.8
99870.7
98633.1
96518.2
99694.7
99467.5
100303
100357
99672.1
93918.9
99706.4
99659.5
99729.2
100215
99552.3
99648.1
99757.7
99559.3
99561.3
99566.1
100444
100454
100620
99535.2
100622
99329.9
99394.2
99562.6
99565.5
99392.8
101431
99516.6
99560.6
99416.9
99707.3
99722
100264
98042.9
99665.9
99588.6
100607
99563.3
99705.7
99667.7
99690.7
99750.5
99552.4
99400.5
99424
99613.7
99703.7
99666.1
99687.3
100204
99742
99684.4
99865.5
99958
95657.2
95101.8
96494.5
99707.3
99606.2
95954.7
99595.3
99506.4
99490.3
98254.3
99663.5
100404
99779.7
99512.9
99556.3
99527.5
99678.5
99680.3
99675.6
99632.1
99514.6
99498.6
99876.3
99534.9
99483.7
99281.3
99397.7
100028
99619.9
99751
99656
103500
100145
97241.1
99302.8
99311.3
99165.3
99312.6
100134
95964.2
96865.7
94842.2
99954.3
99644.7
98922.9
99685.6
99580.6
99612.9
99654
99689.1
99579.2
99645.7
99655
99610.9
99563.5
99647.9
99698.9
99709.1
99733.4
99642.4
99775.4
99900.3
99553.7
99703.2
99719.4
99524.6
99616.9
96209.6
97393.5
99671.1
96387
99681.8
99562
99627.8
99559.3
99603.7
99611.9
99574.2
99476.4
99326.4
99340.4
97768.1
99627.9
98965
99026.6
99812.6
99768.9
99716
99732.4
98882.8
99660.6
99553.3
99020.9
99612.6
99661.5
99682.6
99721.4
100311
99582.5
99572.2
99768.8
99586
99467.1
99468.9
99461.3
99472.5
99135.3
98635.6
99410.5
98962.8
99099.7
99727.4
99636
99723.6
99440.2
99782.3
99507.9
99577
99658.3
99306
99511.8
97451
99745.6
99787.8
99467.3
99300.9
99339.6
99331.1
99556
99551.3
99565
99521.8
99553.9
99627.8
99323.3
99645.8
99447.6
99321.1
99811.4
99649
99823.6
99551.6
99844.3
99697.8
99681.4
99832
99594
99533.9
99586.3
99593.3
99615.7
99371.7
99381.1
99390.4
99373.7
99575.9
99577.2
99572.4
99571.5
99568.2
99570.2
99640
99637.8
99383.1
99379.5
99394
99389.4
99528.8
96067.6
100202
101543
99517
99612.7
99560
99662.6
99653.8
99620.6
99608.9
99614.5
99384.7
99538
99396.7
98903.3
98897.3
99677.3
99546.8
99643.2
96951.7
99658.1
97893.9
99571.8
95031.7
95788.7
99347.3
99677.1
99590.3
96169.3
96424.9
99546
99570.8
99572.5
99676.9
96926.4
99676.8
97303.1
98184.6
99511.1
99000
97918.4
99508.2
99483.9
99475.9
99574.3
99575.4
99572
99566.5
99583.1
99696.8
99657.8
99646.5
99523.7
99378.2
99577.6
99376
99545.1
99381.6
99388.7
99386.3
99589.9
99637.6
99678
99669.4
99442
99402.8
99376.2
98511.2
99642.1
99530.6
99546.7
99546.1
99550.2
99399.8
99549.5
99588.7
99539
99348.3
99319.1
101167
99339.8
99329.7
96989.4
99324.1
99314.1
100221
99424.7
99451.4
99565.5
99565.9
101177
99604.9
101511
99420.1
99798.5
99409.8
99429.3
99378.6
99641.8
100887
99669.2
101495
99569
99630.8
99661.5
99621.9
99617.1
99383.6
99446.4
99450.3
99697.6
99579.1
99570.2
99573.5
99582.9
99561.4
99561.1
99529.1
99411.6
99449.7
99631.5
99608.8
99661.9
99549
99548.7
99545
97990.4
99405.7
101419
101648
100520
99632.7
99539.3
99555.6
99555.5
99555.5
99383.6
99678.9
99540.1
99553.8
99418.7
99596.6
99432.5
99769.2
99674.3
99604.5
99625.2
99597.3
99504.5
99534.3
99371.5
99591.3
99550.9
99519.1
99617.7
99608.9
99566.7
99564.4
99434.4
100528
100501
100490
100381
99165.6
100097
99965.3
99547.9
100504
100630
100435
100821
101603
101105
100878
100560
99592.2
99617.5
99648.8
99654.6
99370.6
98037.4
101534
99557.8
99548.8
99542.4
99468.8
99617.7
99483.1
99624.1
99528.5
99525.2
99593.5
99642.7
99625.7
100953
99704.6
99716.4
99568.8
100035
99913.6
99400.8
99584.1
99673
99575.9
99576
99602
99595
99445.6
99492
99462.5
99460.7
99365.5
99407.1
100283
97975
99598.6
99907
98916.2
99236.1
99665.3
99160.2
99558.9
99389.6
99365.6
99383.4
99376.8
95211.6
99587.2
99636.7
99647.5
99649.9
100935
99992.7
100238
103206
101433
100114
99676.3
94988.6
99646.4
98623.7
99742.2
99879.8
99784.4
99979.7
99528.8
99755.4
99691.5
99653.2
99518.7
99699.5
99705.7
98435.3
99448.7
99411.3
99478.8
98909.5
99387
99274.8
100024
99712
99719.6
99683.7
99531.1
99671.9
103703
99684.7
100087
99692.5
99655.8
99646.3
99841.9
99968.7
99544.7
99552.2
99556.7
99555.7
99385.2
99654
99650.8
99352.2
99475.1
99711.7
99677.5
98926
99787.7
99276.4
99852.2
100046
99626.2
99443.8
98754.2
97982.8
99386.4
98432.7
99364.4
99638.8
100022
99750.9
100153
100002
99598.7
99515.4
101574
99608.5
97886.2
99575.1
99620.1
99543.8
99063.9
99420.4
99181.2
99314.1
99368.4
99262.6
99400.4
99144.8
99399.7
99374.8
99669.8
100040
99699.8
99422.2
99577.2
99508.2
99652
99704
100903
100838
99570.2
100716
100558
100317
99587.9
99605.2
99678.3
99582.2
99669.1
99617.5
99568.5
99561.7
99674.9
99585.1
99744.2
99743
99730.8
99728.4
99681.9
99667.9
99602.4
99707.1
99469
99498.7
99481.5
99539.4
100269
99674.2
99536.4
97032.9
97011.2
97009.6
100393
99622.4
99637
99567.4
99383.5
99536.1
99563.9
99636.3
99653.3
99652.2
99589.3
99563.7
99566.2
99566.6
99565.2
101404
101190
98266.2
99508.1
99305.7
99417.8
99377.3
99706.8
99695.5
99775.2
99710.4
99639
99436.9
99544.9
99627.7
99640.2
99630.9
99470.4
99104
99733.8
99744.4
99541.3
99631.2
99534.8
99528.1
99500.2
99479.3
99495.8
99570.1
98834.2
99157
99626.8
98939.7
99587.6
99628.2
101041
99519.9
99753.6
99540.3
99536.3
99536.5
99578.3
99570.1
99566.2
99535.6
99673.3
99676.2
99656.2
99647.9
99676
99675.1
99677
99676.2
99503
99502.7
99626.2
99490.7
97668.6
99968.5
100402
99540.3
98038.9
99493.2
99623.9
99501.5
99676.9
99676.5
99673.5
99559.5
99783.4
99625.3
99460.9
93965.4
99428.4
99441.3
96875.3
97097.5
97423.5
96078.6
98331.9
100173
96129.5
96043.9
96654.6
96251.5
99458.9
101885
98008.9
99534.3
100336
99736.1
99660.9
99615.3
99682.6
99675.6
99644.4
99673.1
99566
99437
99357.3
99437.5
99586
99900.3
99822.8
99577.6
99807
99409.9
99452.9
99597
99621.6
99578.1
99719.1
99661.2
99606.2
96498.3
99733.4
99155.9
99532.7
100992
102217
97448.4
99973
95952.5
100881
99555.1
101555
99699.6
99604.7
99221.8
99599
99585.8
99681.4
99683.3
99586.5
99565.2
99610
99679.3
99677.4
99674.4
99674.8
99602
99605.5
99505.6
99491.4
99518.7
99477
99372.3
99736.7
99378.3
99382.9
99373.9
99547.2
99482.4
99555
99553.4
99548.2
100620
99553.3
99548.6
99677.9
99676.9
99551.9
99679.4
99702.6
99512.7
99510
97204.6
96204.3
98808.8
99145
99274.2
99562.3
99570.7
98630.3
99402.9
99571.5
99508
99485
99670
99666.7
99665.3
99660.5
93939.3
99670.2
99668
99644.8
97560.8
99651
96555.3
99649.6
95954.4
99647.6
99671.1
99556.4
99524.5
99532.3
101664
99449.1
99510.5
99485.7
99531.9
99404.2
100693
99665
99213.4
99637.7
99637.7
99640.1
99631
99661.7
99564.2
99404.3
99408
99381.1
99558.7
99538.6
99388
99380.7
99659.1
99513.7
99666
99759.5
99431
99428.4
99432.2
99430.9
99652.6
99435.2
99986.4
99587
99574
99473.1
98458.4
99330.2
96905.2
99681.7
99674.7
99660.8
99551.3
99556.5
99545.7
99511.7
99639.8
99617.8
99614.5
99656.1
99516.7
99377.8
99515.3
99618.7
101184
94043
101395
101108
100915
94429.9
100863
98473.9
96577.9
101630
96529.5
101616
99921.8
99949.2
99616.3
99624.2
99676.9
99625.5
99589.8
99624.3
99681.7
99698.3
99695.3
100233
100623
99565.1
99537.5
99592.9
99564.2
99562.5
99457.2
99493.7
99563.9
99337.3
99345.4
99425.9
98489.9
99672.9
99673.8
99674.1
99677.4
99514.9
99527.9
99521.4
99517.9
99557.6
99563.2
99618.9
99621.7
99039.8
100692
99586.1
95708.1
96292.3
100299
96120.4
97578.5
99562
99592.5
99615.5
99629.2
99631.3
97577.6
99689.8
99691.7
99696.3
99696
99706.3
99702.4
95682.1
99602.6
95641.5
99490.2
99731.5
99482.1
96941.5
99414.6
98918.2
100946
97424.3
97959
106588
96014.3
99659.9
99658.7
99663.9
99672.1
99671.4
99674.3
99657.5
99666.4
99652.9
99671.3
99669.5
99383.7
99381.7
99374.4
99686.7
99496.9
99405.4
99832.1
97981.6
99603.1
99598.7
98461.3
99237.1
99730.7
99649.5
99888.9
99423.6
99328.8
99378
100288
99711.4
100125
99395.1
99376.5
99343.3
99580.1
99578.6
100153
99397.2
99725.3
99603.4
99589.6
99555.5
99474.5
99489.3
100829
100813
100961
100943
98980.5
100847
99220.1
99381.5
99592
99596.3
99592.6
99596.1
99595.7
99559.4
99557
99552.5
99555.1
99565.9
99573.7
99645.4
99638.6
99637.1
99552.3
99560.1
99642.7
99647.5
99558.5
99556.3
99557.4
99558.5
99675.8
99555.7
99639.4
99702.4
99571.3
99482.4
99442.9
98682.6
99272.7
99916.1
98712.4
99739.9
98540.6
99784.9
99728.6
99734.8
99632.6
99602.5
99511.8
99544
97544.4
94909.9
99399.4
100599
98675.2
99634.9
99638.5
99638.9
99376.4
99610.9
99635.1
99428.9
99585.6
99555
99527.2
99579.8
99577.6
99528.2
99722.4
99601.6
97382.5
99933.7
99676.4
99818.4
99648
99679.2
99788.1
99745.5
99704.2
99880.9
99938.9
99684.7
99848.8
99797.7
99828.3
99798.8
99786.7
99679.8
99613.7
99610.6
101180
101241
99552.1
93698.8
99436.2
99590
99594.9
99627.7
99617
99688.7
99024.6
99039.7
99620.7
99692.3
99688.2
99580.1
99604.8
99608.2
99842.9
99601.7
99606.4
101428
99701.6
99373.8
99575.8
99524.2
99520.6
99585.7
99545.4
99529.2
99528
99587.8
99569
99419
99452.8
99653
99633.2
99521
99465
99843
99906.1
100509
100050
99895.2
100013
99936.4
99899
99703.5
99612.6
99686.4
99690.3
99683.9
98487.4
99514.3
99685.8
99548.7
99345.9
99864.4
99462.1
99362.3
99362
99406.8
99381.2
99371.1
99367.8
99418.4
99574
99579.5
99669.3
99668.6
99572.3
99472.5
99247.3
99642.2
99645.1
99633.2
99650.4
99568.7
99541.1
99562.5
99014.2
97528.1
99441.6
99642.4
99646.6
99621.8
99737.8
101025
99561.7
99559.3
99651.5
99609.9
99678.2
99631.3
99614
99676
99616.8
99547.4
99562.3
99589.1
99355.3
99434.8
99380.3
99400.5
99392.4
99543.8
99432.2
99535.9
95124.1
99526.4
99662.3
99669.2
99509.7
99494.9
99510.5
99534.6
99496.5
99516.7
99069.1
98480
98124.9
98875.6
98622.4
97934.7
99431.4
97069.7
107929
100464
99363.5
99347.4
99336.7
99329.2
98425.3
99375.3
101469
97815.2
96400.7
100888
97636.5
96636.9
100376
100347
100157
100158
97044
95763.9
99618.6
99633.9
96470
99690.6
96495.3
99676.2
99621
99571.6
99589.4
99590
99542.9
99479.9
96235.7
99424.6
99589.8
99594.5
99609
99566.1
99615.1
99515.8
99556.3
96172.7
99424.9
99486.7
98435.2
99339.2
99146.6
99588.9
99546.9
99558.8
99682.2
99686.3
101085
101038
101158
99854.7
99789.2
99731
100202
100486
100126
99559.6
99559.4
99555.3
99569
99565.3
99579.3
99530.9
99529.1
96688.1
99654
99524.5
99482.4
99488.7
96680.2
100846
100314
100726
96724.4
99559.3
99674
99666.5
99502.1
99538.7
99502.8
99402.1
99366.3
99322.8
99728.3
99723.2
99683
99589.8
99692
96926.1
100897
97016.8
99591.3
99681.9
99675.7
99532.9
94610.4
99535.9
97723.1
99539.9
99545.9
99537.6
99541.3
97743.1
97174
99672.1
99670.9
100948
99849.9
99946.5
100523
99670.4
99665.7
99636
99615.6
99705.5
99224.1
100872
101006
101048
101007
100989
100242
99447.8
99621.9
99931.9
99551.7
99719.4
99542
99541.1
99576.4
99589.2
99561.5
99586.9
99586.3
99756.7
99906
99798.4
99922.6
99389.5
99652.3
99656.4
99604.2
99664
99692.9
99940.5
99417.9
99489.5
99576.5
99462.4
99395.2
99396.2
99379.9
99199.7
100454
99309.8
99406.7
101102
100277
100425
99593.9
99598.6
99605.4
99568.8
99562.5
99561.8
99639.2
99559.3
99562.9
99566.8
99567.3
99610.5
99603.5
99598.3
99661.3
99303.6
99607.3
99612
99549.5
99543.8
99418.6
99532.8
99710.5
99590.3
99575.6
99800.4
99418.7
99818.8
99572.7
99974.7
99678.6
100149
99463.8
99681.8
99673.6
100864
99961.1
100638
99568.3
99601.5
99639.1
99417.7
99530.7
98218
99623
99629.4
99623.2
99329.3
99332.3
99548.7
99628.6
99503.8
99497
99503.5
99495.6
99499
98271.8
99839.6
100119
99912.3
99570.4
99726.9
100584
99553.7
99527.1
99721.5
99794.9
99640.5
99577
99766.7
100575
99270.7
96220.5
100090
99712.9
99593.3
99575.8
99551.8
99589.7
96149
99491.7
99614.6
99461.6
99588.3
99728.9
94204.5
99725.9
100215
99071.6
99564
99497.1
99525.1
99590.8
99547.5
99732.5
99563.5
99619.2
100121
99676.4
99603
99597.4
99547.8
99457.6
99410.4
100911
100702
100262
100864
100151
99624.5
100337
99892.6
99998.1
99706.7
99715.7
99685.7
99720
99720.9
99277.1
99246.3
99443.4
99436.4
99449.5
99679.5
99805.5
100508
99841.9
99984
99423
99551.3
99405.6
99539.1
99674.2
99717.7
99746.7
99614.6
99743.2
100349
99566.2
99633.7
99545.5
99553
99095.4
99569.2
99638.7
99354.2
99592.9
99543.2
99539.1
99633.2
99630.8
99602.9
99561.8
99613.6
99466.6
99567.2
99627.5
97423.7
99630.7
99576.6
99588.9
99656
99646.3
99562.4
99547.7
99563.3
99564
99609.1
99567.3
99560.4
99554.8
99421.7
99519
99943.8
99913.6
100212
101624
100999
101127
99529.1
99757.7
99670.9
99503
99493.5
99658.7
99679.9
99577.4
99581.5
99761
99579.4
99569
99314.9
99959.9
99683
99651.5
99622.5
100052
99650.7
99646.1
99690.6
98678.2
99393.9
97556.7
98101.5
99382.3
98555.6
99501.1
99468.2
97589.6
99389.6
99397
99657.1
99715.7
99550.6
99685.1
99494
99553.9
99548.3
99607.2
99596.9
99645.9
99651
99656.8
99546.8
99532.1
99499.9
99472.5
99728.5
99746
99713.8
99575.2
99564.3
99537
99551.7
99625.6
99538.7
99542
99554.4
99583.1
99528.6
99569.9
99473.6
99635.3
99372
99387.8
99675
99677.2
97762.8
99673.4
95843.1
97932.2
98411.6
99443.3
108220
99452.6
99446
100201
99618.9
100254
100293
99541.1
99576
99462.7
100414
100471
100602
100468
99692.9
99559.6
101609
99537.5
100463
100561
100502
100621
100827
100844
96639.3
100447
100844
100753
100617
100555
99634.3
99526.8
100450
99675
99674.1
99593.9
99559.7
98715
99549
99165.5
97988.3
97688.1
99313.4
99390.1
99339.6
99584.5
99559.4
99549.2
99559.8
99565.6
99561.3
99436.9
99428.4
99567.7
99652.6
99614.1
99652.1
99563.9
99682.1
99668
99674.3
99684.3
99677.4
96603.3
99876.8
99888.2
99676.5
99672.8
99676.6
100051
99567.4
99874.8
99568.9
99652.4
99456.6
97790.7
98274.4
97212
99528.3
99762.7
99379.2
99581.5
99579.5
99670.2
99799.8
99415.5
99552
99512
99419.1
99384.6
99459.3
99473.2
95994.8
100017
99545.3
99562.6
99686.7
100980
99604.6
99532.7
100901
99752.2
99564.9
101492
94041
94464.5
99996.7
99601
99510.4
99702.3
101016
95777.2
98511.7
98988.9
96456.9
97672.2
94038.4
99438.1
99427.2
99415.8
99474.2
99565.8
100229
100504
99387.9
99744
99816
100019
99687.9
99730.2
99400.8
99632
99612.5
100225
99557.7
99529.2
99371.1
99384.8
100144
99133.1
100098
100051
99636.9
99646.1
99571.3
99615.9
99919.8
99681.5
99671
99601.7
99669.3
99641.9
99574.8
99599.9
99644.8
99610.3
99594.7
99389.9
99664.4
99651.5
99671.1
99652.5
99651.5
99615.3
99621.8
99712.5
99669.7
99675.1
99666.2
99677.5
99656.4
99662.3
99654.4
99660.2
99384.9
99566.4
99590.6
99626
100139
99471
99639.7
99480.6
99394.9
100119
99359.8
100102
99406
99667.5
99584.3
101189
101325
99403.1
99385.8
99404.2
99420.7
99152.2
99567.3
99568
99567.2
99573.4
99654.9
99642.2
99658.8
99657.4
99645
99655.5
99654
99730.4
98263.1
99549.9
99545.7
99625.2
99552.2
99548.6
99427.7
99582.1
99587.9
99596.6
99589.8
99580.9
99586.6
99951.3
100009
99533.6
99538.2
99536
99641.9
99662.9
99668
99545.1
99526.9
99569.2
99374.5
99388.1
99375.3
100094
99633.1
99611.2
99449.7
96118.7
99668
99386
99444.4
99324.4
99402.7
99553.2
101579
97211.8
101075
98720.1
98787.1
98330.9
100777
99678.7
99670.7
99528.8
99349.4
100199
100139
100439
97995
99112.2
100593
100032
100169
99612.1
99599.2
99608
99767.6
99598
99852.8
99588.5
100424
99820.1
99642.5
98798.7
99622.9
99596.7
99553.2
99517.8
99557
99563.7
99554.5
99547.6
99300.7
99351.4
99601.5
99488
99531.7
99796.1
99608.1
99617.4
99603.5
99452.5
99600
99599.3
98504.8
99602.3
99698.6
100015
99606.4
99604
99610.1
99531
99522.4
99367.7
99370
99537.1
99532.9
99558.4
99588.4
99463.3
99486.2
99491.2
99507.3
100500
99536.7
99608.4
99063
99042.2
101321
101201
99458.2
100913
101194
100895
100490
100503
99542.5
99534.8
99621.6
99595.4
94673.7
99656.8
99655.3
99521.5
99363.3
99382.6
99201.3
99046.1
99970.4
99584.3
99719.2
99907.8
99357.8
99624.1
99750
99635.7
99528.4
99520.2
100969
99639.3
99387.8
101410
98738.5
101049
101089
99651
100760
100695
100630
99665
99477.6
99593.7
99529.4
100904
101259
101213
100967
99182.2
99553.9
101110
99676.3
99564.1
99564
99694.8
98626.9
99555.6
99598.1
99613.3
99628
99576.7
99742.8
99633.7
99617.8
99676.1
99675.5
97382.1
99626.2
99655.8
99670.7
99558
97862.4
98944.1
100012
99673.4
99663.3
104287
99660.6
99546.8
99550.9
98355.4
99355.1
99599.8
99676.1
99612.3
99475.8
99505.4
99630.8
99579.9
99626.4
99550.1
99391.6
99222.7
99631.4
99567.3
100152
99453.6
99501.2
99662.6
99648.3
99876.3
99803.3
99938.9
99637.2
99875.3
99832
99785.1
99806.7
99806.9
99830.9
99828.2
96383.9
99561.9
99528.9
99674.6
99597.6
99615.7
99477.2
99120.3
99583.3
99585.8
99664.4
99624.8
99626.4
99525
99523.5
99532.7
99150.5
99383.7
99564.6
99560.9
99549.6
99650.8
99915.4
98526.5
98503.8
99542.6
99942.7
99954.4
99546.8
99443.1
99692.3
99577.6
99676.7
99564.1
99679.6
99586.8
99676.6
99658.2
99618.5
99649.5
99474.2
99508.7
99506.1
99528.6
99649.3
99651.2
99386.1
99543.6
99547.5
99324.4
99338.2
99349.8
99343.4
99470.5
99557.6
99532.3
99452.3
99425.8
99516.8
100964
99713.5
100863
101065
100865
99448.1
100039
101326
100640
99658.6
99735.1
101506
99668.2
99668.9
99597.8
99531.4
99583.1
99601.9
99576.2
99574.8
99516.2
99674
99660.8
99683.7
99642.6
99657.9
99648.5
99662.2
99660.1
99648.6
99541.1
99657.6
99525.6
99520.7
99552.2
99394.2
99376.1
99422.7
99381.4
99662.4
99631.9
99760
99518.9
99521.2
99399.3
99522.4
99524.8
99522.4
99558.5
99556.8
99609.6
99683.8
99612.9
99675.8
99677.5
99542.3
99550.6
99538.7
99594.5
99411.6
99468.3
99457.8
99403.5
99685.9
99545.2
99595.7
99632.2
99614
99670.8
99635.9
99864.6
99449.1
99431.3
99439
99410.9
99278.9
99527.3
100680
100062
101506
101504
99523.2
101375
99566.2
99568.4
99568.9
101200
99564.5
101336
99620.4
99625.8
99595.3
99703.3
99678.1
99679.1
99679.7
99609.1
99605.8
99609.7
99485.9
99748.2
99626.5
99489.4
99489.1
99496.9
102155
99329.8
101355
99373.3
99758
99376.3
99674.3
99679.1
99644.2
99622.2
99299.2
100010
99573.8
99685.7
99689.8
99697.8
99699.3
96674.5
97171.6
100490
99065.5
99550.3
99547
99551.8
99550.9
99890.7
102914
101420
100030
100408
97919.5
99629.4
99683.5
99391.2
98670.4
99595.9
101389
102117
100942
99507
100346
99586.2
100998
100943
99366.3
100982
99762.9
100153
100452
101026
99563.6
99577
99676.7
97108.3
99681
99649.4
99660.7
99540.2
99392.2
99369.4
99384
99583.5
99571.5
99585.7
99672.3
99738.5
101129
99885.6
99768.5
99605.6
99487
99482
99489.5
99722.8
99582.6
99827.8
99690
99546.5
99537.1
99548.9
99556.3
99383
99535.1
99532.6
99378.1
99377.9
95047.7
93881
97314.4
98841.1
99347.8
99129.6
97925.4
98149.2
94304.9
96641.5
99355.8
99672
98859.1
99574.3
99697.9
99406.8
99626.7
99734.2
99721.6
99689.1
99786.7
99557
99639.6
99264.3
99336.2
99535.6
99554.3
99095.9
99209.4
99659.5
99639.9
99555.2
99558.6
99565
99545.7
99654.9
99561.4
99561.2
99565.9
99546.6
99414.4
99395.9
99674.6
98878.8
99380.3
97594.2
97093
99603
99701.9
99672.6
99675.4
99627.2
99674.1
99952
99733.9
99846.9
99668.5
99456.9
99580
99559.5
99559.5
99452.9
99252.3
99473.9
99572.6
99935.7
99839.6
99470.9
100681
100891
100228
99838.4
98510.5
99697.1
99648.5
99785.4
97212.7
99746.1
99786.9
99715.1
99568.4
99580.2
100074
99585.5
99711.5
99185.4
99315.7
99712
99675.2
99681.5
99675.6
99700.6
99641.4
99696.9
99532.3
99303.2
99571.4
99553.2
99552.6
99552.4
99376
99638.9
99363.8
99310.2
99356.1
99285
99347.1
99250.6
99336.5
102011
102190
96783
99177
99813.2
100805
101059
99379
99596.9
99672.1
99633.6
99556.3
99553.5
99389.2
99524.8
99673.7
99673.2
99654.5
99381
98363
98752.7
97480.1
99727.8
99726.5
99727.9
99416.9
98361.6
99626.5
100702
99434.6
100528
99663.4
94962.1
99429.9
99714.2
99429.2
99621.9
99675.8
99710.9
99543.7
99552.7
99551.2
99269.3
99613.5
99365.9
99435.6
99624.8
99628.8
99525.3
99370.1
99417.9
99391.1
99387.4
99011.1
99860
96010.1
99557.3
99631.2
99522.9
99669
99678.2
99755.4
99581.4
99595.1
100669
99572.9
100893
100627
101496
98910.7
99158.2
101006
99814.5
100431
99775.1
99800.8
100427
100849
99688.1
99667.7
99460.4
99567.6
99551.3
99548.4
99642.4
99662.9
99655.8
99553.6
99639.7
99546.9
99565.8
99627.7
99571.5
99567.5
99605.2
99643.2
99295.1
99320.3
99265.1
99619.6
99124.8
99301.5
99167.3
99234.7
101498
99544.4
99648.5
101112
98121.7
98088.4
98456.1
99549.1
97809.8
97662.3
96316.7
99407.8
98802.1
99203.8
98102.1
98263.1
97198.7
98346.5
98516.4
99811.8
99320
99572.4
99598.2
99606
98602.8
99781.4
97894.5
99538.2
99805.7
99812.3
99648.2
98998.2
99046.2
99707.2
99577.4
99565.9
99690.1
99477.2
99475.9
99549.4
96609
99014.5
97162.3
99572.1
97926.5
99739.3
99693.7
99725.6
99521.8
99699.4
99555.8
99598.5
99595.1
99693.1
99216.1
99608.3
99612.4
95695
99608.6
99571.6
99506.7
99503.2
99496.5
99513.7
99385.4
99365.7
99363.1
99635.5
99646
99630.5
99574.2
99576.1
99574.3
99330.4
99657.6
99571.4
99974.4
99861.5
99639.2
99297.6
99364.4
99268.6
99414.3
99196.2
100128
99614.6
99413.7
99406.5
99373.5
99412.3
99388.7
99394.8
99555.6
100873
99573.7
96508.8
99642.7
99565
99565.7
99742.3
99845.4
100879
101577
99565.8
99577.8
98595
99030
97907.9
99556.4
99552.3
99550.5
99543
99575.4
99581.7
99564.5
99612.3
99585.8
99579.2
99440.4
99260.6
99180.1
99183.6
99236.7
99220
99607.9
99606.3
99604
99606.3
99604
99840.2
99911.7
99598.4
100171
99687.1
99574.5
99596.6
99601.2
99599.9
99834.7
99398.4
99452.5
99195.2
99390.8
99388.9
99614
99397.4
100784
99607.2
99569.3
99449.9
99568.6
92845.8
99506.2
98628.7
99592.5
100807
99713.6
99723.7
99679.9
97503.2
97252.2
99729.2
99460.6
99566.2
99562.8
99567.1
99563.3
99674
99676.4
99453.7
99501.7
99551.3
99489.2
99488.9
99567.1
99561.9
99581.5
99582.7
99659.5
99657
99641.4
99663.3
99579.8
99589.2
99603.3
99376
99390.1
99665.6
99379.7
99561.1
99560
99553.8
99552.6
99519.3
99534.6
99537.9
99539.7
99557.2
99716.4
99557.6
99555.5
99607.5
99554
99551
99556.1
99555.2
98789.5
99499.3
99543.4
99505.1
99246.4
99242.6
99282.5
99666.8
99468.1
99429.9
101324
99665.3
99704.3
99717.9
99650
100068
99682.5
99260.8
99234.5
99303.8
99563.3
99523.3
99562.5
99539
99521.4
99664.2
99663.3
99557.3
99535.4
99525.6
100271
101348
100319
99594.1
100409
99533.2
99529.6
99659.2
99655.5
99657.9
99670.9
99672.6
99448.8
99566.7
99566.6
99566.3
100391
101489
101181
100397
97869.6
97918.2
99565.6
100439
98156.3
99186.2
93692.8
99663.6
99996.1
102017
99596.1
99981.4
99481
99685
99429.2
98807.3
99423.4
99829.8
99813
99978.3
101003
99650.6
99949.6
100729
99660.5
99666.3
100882
100506
101463
99344.1
99342.2
99353.9
99357.4
99419.2
99420.8
100113
99425
99732.3
99725.5
99932.1
100581
101208
99685.7
99681.1
99677.4
99689.2
99702.2
99573.2
101025
100559
99568.2
99575.1
99313.7
99306
99572.3
99557.6
99559.8
99397.8
99553.7
99495.6
99378.6
99375.3
99362.4
100098
100026
99335.9
99496.7
99859.7
99860.1
99871.6
99582.3
99865.7
99590.4
99571.9
99671.9
99668.4
99584.2
99667.5
99665.8
99668.1
100303
100745
101136
99663.3
99657.5
99592.9
99528.1
99546
99541
99534.2
92854.4
99602.1
99567.7
99592.9
99556.6
101485
99659.8
99536.8
99575.4
99539.6
99424.5
99380.2
99541.5
99540.5
99547.3
100723
99749.3
99286.9
100385
99139
98944.1
100029
102078
99662.1
99688.9
99588.1
100140
99878
99900.5
94019.6
93742.5
93656.9
93690.2
98305.3
98150.1
96742.3
97325.1
99685.8
99694.9
99560.9
99751.4
99723.2
99271
99568.2
99546.5
99791
99764
100194
99743.6
99716.6
99766.1
99423.9
99269.3
98938.7
99781.3
99736.7
99139.4
99786
99621.6
99122.9
99128.2
99754.5
100342
99037.2
98990.5
99594.9
98707.3
99705.5
99571.1
100496
99587.3
99358.2
99564.4
99399.8
99560.9
99110.7
99710.1
)
;

boundaryField
{
    Inlet
    {
        type            prghTotalPressure;
        p0              nonuniform List<scalar> 0();
        value           nonuniform List<scalar> 0();
    }
    Outlet
    {
        type            fixedValue;
        value           nonuniform List<scalar> 0();
    }
    Symmetric
    {
        type            symmetry;
    }
    Wall
    {
        type            fixedFluxPressure;
        gradient        uniform 0;
        value           nonuniform List<scalar> 
251
(
99565.9
99567.4
99573.4
99584.3
99599.8
99616.3
99634.3
99651.5
99665.6
99674.3
99676.4
99671.2
99660.2
99645
99625.2
99605.6
99585.7
99566.7
99545.1
99525.6
99501.5
99475.8
99446.4
99418.7
99395
99383.4
99390.3
99419
99565.7
99567.1
99574.3
99585.8
99601
99618.6
99636.4
99653.2
99666.6
99674.8
99676.3
99671.1
99660.5
99643.2
99624.8
99603.1
99587.3
99564.9
99546.8
99525
99505.4
99472.5
99442
99411.6
99399.8
99383.7
99397.7
99424
99566.2
99568.2
99568.5
99569.9
99571.8
99581.8
99578.3
99581.5
99596.6
99591.5
99597.8
99612.9
99607.9
99612.7
99630.7
99625.2
99630.5
99648.5
99643.2
99648.1
99662.9
99658.8
99663.1
99673.3
99671
99673
99676.3
99676.1
99676.3
99672.7
99675
99674
99662.3
99666.2
99661.9
99647.9
99653.3
99649.1
99628
99635.3
99631.4
99608.9
99615.7
99611.9
99587.8
99595
99585.4
99568.7
99576.6
99571.3
99546.5
99556.3
99556.5
99526.9
99535.6
99523.5
99502.7
99514.6
99515.4
99477
99489.5
99482.4
99446.8
99460.9
99453.1
99416.9