/*--------------------------------*- C++ -*----------------------------------*\
| =========                 |                                                 |
| \\      /  F ield         | OpenFOAM: The Open Source CFD Toolbox           |
|  \\    /   O peration     | Version:  v2006                                 |
|   \\  /    A nd           | Website:  www.openfoam.com                      |
|    \\/     M anipulation  |                                                 |
\*---------------------------------------------------------------------------*/
FoamFile
{
    version     2.0;
    format      ascii;
    class       volScalarField;
    location    "0.02";
    object      p_rgh;
}
// * * * * * * * * * * * * * * * * * * * * * * * * * * * * * * * * * * * * * //

dimensions      [1 -1 -2 0 0 0 0];


internalField   nonuniform List<scalar> 
3591
(
105749
102788
102981
102643
100778
111764
102592
102428
102692
121161
102457
101388
114732
119891
106865
109817
103092
90159.1
113638
94694.3
97407.3
95589.7
102687
102688
102713
102681
101746
51768
101536
102495
102459
102294
102478
102745
102745
102701
102710
102679
102671
103345
102688
102326
104101
99815.9
101910
103423
102074
102690
103817
103154
102352
102686
102502
102652
102752
56236.8
102740
99174.2
102143
102123
92269.1
103191
63181.2
102680
104411
103124
102675
102951
102714
123715
101878
101095
102866
102658
102700
102586
102466
102516
122356
102855
103707
104248
113389
101898
102016
102747
102535
101774
101884
101901
101904
102456
88365.8
102696
101889
102690
101950
101939
83843.8
102592
102455
96189.3
100695
102753
124434
102488
102463
102443
110674
102567
102760
102780
102572
102773
102769
102615
102837
102750
102574
102481
102830
103365
102612
102665
96778
97926.7
101001
119260
102754
114143
102464
101749
116207
102493
70388.1
102711
102904
74649.1
98785
78982.3
101709
76674.5
102105
102282
80858.7
102139
68579.8
102752
102722
102750
63604.5
102723
61618.4
87824.8
102789
102546
102753
102725
125263
53257.6
102722
102693
103827
102478
102712
102655
102711
102138
102483
102571
102705
102791
104094
102534
102515
102714
104150
103949
102624
102622
104068
102502
102511
102649
102836
102563
102721
63171
102851
102659
102787
87695.2
129465
102688
60360.5
109857
102745
102713
102447
103110
102860
102879
103634
103242
102070
110850
103225
103319
94148.6
115649
103090
74640.4
73822.3
100372
105250
101505
102468
102232
107691
102900
102801
102835
102685
102662
102670
102646
102562
69943.8
102272
98073.6
62899
67665.3
102694
73848.5
101696
107111
102889
102755
102605
102757
79668.9
102763
102786
102759
102744
101836
102672
102722
49674
102713
50984.6
52255.7
102736
102731
102718
102696
51507.4
102066
102007
102683
101972
102633
90548.8
102756
111439
102636
102713
102656
102795
102755
102891
105240
103679
101877
102129
102424
102762
102389
102859
95639.5
102364
102831
102748
94956.6
102642
103495
100871
107750
106328
102628
102500
102424
108241
108143
84157.4
109526
102340
102405
112816
124623
101788
102705
102707
102762
101222
102608
101765
102482
102476
102498
102706
101904
102959
102993
103242
102492
102835
102738
102512
102756
101488
96814.8
102007
97594.3
62148.3
90289.1
101863
60906.5
101434
86187.1
102077
102744
102090
102696
102200
102702
102537
102699
102760
102753
102711
102444
102583
102503
110764
111009
106505
107346
108882
122998
102495
102627
102603
102361
102888
102385
102372
102358
102580
92848.7
62306.4
102308
101366
102474
95560.2
102502
103259
104071
103095
102786
103177
103220
94777.9
102606
102652
76486.9
58662.4
103210
94969.6
102267
103222
103154
102645
102855
102644
102895
102855
102614
103055
102678
102677
102671
102720
101917
102786
101633
102816
102739
102522
99084.7
90303.4
102975
90938.6
100388
102755
102716
102707
102754
102531
102755
102646
102555
102641
57536
102844
79080.2
102471
101946
101640
102573
102493
102825
103841
102732
56565.6
103532
102482
102610
54295.5
99975
104194
102486
102494
102714
111684
102095
102482
106720
114722
97644.1
102555
102836
108159
115920
102194
102503
102265
102152
102228
102697
102692
102534
102455
102396
102459
103920
102572
102564
102481
102595
95006.1
102631
105576
102632
102609
102595
102672
102644
102582
67662.3
102620
102564
102570
105958
102360
110945
104200
103890
103718
102230
103125
104077
103462
102148
130707
102193
95781.8
102504
102536
102627
102561
102660
102590
102170
102177
102832
103406
103324
103296
102773
102658
102154
102860
103776
97854
102051
125381
101928
81291.5
55105.1
52180
66666.4
86929
102016
101687
101980
102211
101969
102037
102717
102760
102754
102743
100260
101919
102765
102974
102885
102767
102739
102779
106289
102704
115387
102774
102723
102669
102584
102610
103129
102729
102699
101177
101961
101898
102919
102592
102548
102710
102563
101929
102206
104493
102388
102323
102459
101624
102469
102476
102421
98272.3
108716
102433
90014.4
103151
76250.3
102709
94991.2
102535
101601
103123
103059
103404
102516
102564
102578
90062
102519
102776
102771
102729
97721.7
102765
102586
102773
102585
101978
101828
101689
101920
102589
102608
101844
102689
102700
100761
106857
102497
102720
102504
102325
102792
102096
102300
109941
110531
102139
112754
103846
103676
110643
111391
102591
102381
102833
101601
102719
102735
102704
102643
102619
102654
102640
102438
103607
102898
101833
102698
102987
70231.7
103075
102633
56772.9
123061
102709
102807
102687
102762
102330
102315
102347
102471
102555
103650
102545
102564
102575
102487
102546
102367
102367
102269
92134.4
50646.7
102556
102564
102773
106762
104576
104858
104131
103117
102685
102403
100644
102710
102800
103169
102349
102505
101627
92323.1
101187
102351
102778
101466
101198
102778
102780
124948
103794
104138
104364
102756
104677
102681
102518
102766
125195
102625
100015
102753
102771
102664
102002
102197
102860
104164
102343
102762
102984
102738
101459
102534
102375
102210
102747
102648
102476
70785.1
101194
98718.7
102286
102532
101014
97979.5
106204
105561
102624
102617
102637
101803
61391
102608
102685
103283
102733
103641
101576
108144
102829
102956
102743
102760
101867
102145
102141
102555
102741
102747
102806
102775
102733
102609
102519
104800
102645
101232
100357
98835.6
102333
102568
102673
102703
102678
102704
102837
102539
102666
102524
102908
102880
102466
102872
102745
97058.9
101883
99296
91041.7
102500
102427
90123.5
53628.1
102466
101753
101734
102229
102531
101125
103040
102797
101875
101567
102771
102646
102794
101372
102304
99894.4
99633.8
102906
102684
102828
102762
102751
102821
103044
103157
103126
102568
101001
102648
102664
102660
102298
102665
102615
102655
112511
102759
102671
102657
101746
102279
102323
102988
102715
102727
101022
71870.3
102710
102711
102713
102720
102592
102519
102490
102606
102570
102891
102679
113047
102731
102925
102758
102841
102569
102545
102761
103681
102958
108802
111074
102555
102715
102539
103830
106761
124831
71206.3
98016.9
100172
102547
101311
102449
102555
101932
102165
102094
102742
101379
102156
102256
101512
102686
102785
88041
87179.2
102614
102551
102564
102533
102566
105822
98387.6
113343
111980
131175
118274
102527
102533
102614
102607
102601
102628
102750
91499
104202
102395
111462
96224.7
110927
102384
102434
102606
102637
102638
102538
102750
102511
102581
101480
102028
102752
101128
102279
101777
101392
123528
102579
102434
116505
102070
86280.8
103826
104223
86096.7
124876
117384
102100
112514
102072
112100
111801
102741
111427
114241
102735
102722
102713
83291.8
87817.8
97598.9
80339.9
72577.4
101700
102066
102498
102749
102606
68366.7
102562
59296.4
102592
102617
102607
81474.1
80898.5
102082
102282
102693
102635
102573
105490
102512
77101.3
76447.5
76200
94207.5
102641
75351.4
77387.9
91697
92059.3
102715
103315
102653
102644
103721
102656
102646
102827
102674
99391
125110
125615
104789
90836.2
104282
102727
101359
102644
102669
102576
101631
103024
102290
103328
90089.5
87090.6
97155.6
76340.9
93135.7
102683
102708
102713
102326
102715
102745
102736
102714
102758
118082
102750
102695
102696
102554
102640
102362
102863
102851
102790
103667
92845.9
102900
103369
103019
96631.3
102876
102826
102826
102820
102542
95619.6
102870
102827
102646
91485.3
102662
101165
102032
55329.3
102583
102680
102742
102767
102563
75592.2
102751
102757
102676
102675
102793
102804
102731
98004.1
103317
101877
102668
102526
116511
102523
102857
102988
103022
103059
102981
103251
105109
103888
105376
92485.9
70959.1
102472
102503
102615
104252
100299
102769
102775
102902
102720
73005.8
102719
102592
102770
70631.4
102920
103002
103124
116402
102250
103054
102778
102794
102785
102672
77348.1
102769
79224.1
102455
102663
102681
102684
102746
102714
102700
102514
102486
102873
100398
63878.1
101492
102676
102702
102415
102697
102744
102627
102596
102563
102529
102543
79697.1
81166
84444.1
87309
102835
113358
102917
104135
114330
102746
102087
102564
102522
102705
101143
101602
101603
101922
102945
103016
101993
101581
102763
102462
102413
104167
102717
102662
102731
103397
103148
102635
103405
102468
102426
102519
61062.7
102568
108147
102211
107021
102223
102462
102489
102850
102964
102798
102843
102807
102814
102676
102475
99178.7
102477
102745
100960
101912
102519
101850
102564
102645
103079
102602
102699
102519
117341
102511
102593
102523
93540.1
102655
102293
102744
102377
102689
102738
99585.6
108976
111886
102974
102692
102852
102596
102710
102639
102613
102669
102544
102499
102537
102684
102541
103098
103025
102990
102699
102738
102742
101940
102512
103025
102916
108431
102910
103056
102661
104157
106587
106019
52450.3
106823
69062.6
130056
82073.8
108159
64182.4
101853
101761
101942
102015
101922
101895
102657
101613
102734
102755
102740
102771
104820
102215
102772
101063
96446.8
97750.4
91822.9
102608
99565.4
127647
102646
102769
83259.8
104120
102450
102455
102698
88656.3
104666
89803.4
102519
104735
103288
102446
102975
103191
103087
103140
105423
103515
106335
106518
102854
103129
63554.7
99885.5
100107
102573
102737
102580
102174
102017
103035
102584
102875
102889
102937
102978
102950
102780
102463
102493
102591
102503
102748
102583
102893
80895.6
103963
78296.5
82850.1
84173.5
98040
123677
124922
79116
101944
102057
101765
93663.1
102033
101991
102071
102043
102736
102748
102595
102738
94582.7
101719
92445.8
103220
103570
102734
96801.4
102733
102177
102191
101969
102745
102616
102703
102697
102491
102472
102450
102585
102190
102418
99395.1
98013.1
123749
102514
98563
103030
102766
110409
103639
103533
102788
102957
102912
101829
98473.4
102024
102162
103054
101807
102728
102677
102571
102680
102700
102854
105431
102717
101324
102488
102445
102818
103329
102719
101356
102500
102662
102637
102071
102210
109009
106784
94740.1
101487
108987
104294
102981
103031
103098
98587.5
95192
101766
81018.2
87686.5
102094
102107
50192.2
49278.9
74493.6
102101
101971
102006
101977
102666
102652
102743
102734
107977
102726
102551
101287
102508
102523
102561
102808
102728
106729
105211
90962
102519
104918
76474.5
101996
101998
102815
101948
103130
102745
102751
102460
105110
102503
102576
102574
119443
79335.2
102610
102654
85696
102753
102744
102624
101944
101698
101921
102589
101777
101935
102504
114866
102471
104903
102479
94584.5
102497
102485
102824
102748
102752
102358
102723
102756
103003
102914
102703
104698
102347
102621
101489
99765.2
101443
102260
102375
102741
102627
102651
102501
114170
102747
102581
102536
102402
80846.8
102336
102052
102681
102672
102675
102668
102659
102675
102935
102919
102770
102982
102472
102521
102637
102155
101946
100652
77977.6
102745
87592.2
58853.7
100228
102622
102627
101869
75733
102514
71838.4
99914.3
102667
102459
96930.3
102584
102926
102568
102926
106005
103303
114450
103028
109642
112681
113312
99386.6
100003
102238
90267.2
63198.4
99951.3
101886
101918
101953
107858
103074
115528
102889
102689
121824
122489
102704
102735
119744
102546
102521
102662
102611
101923
101891
101922
101838
102750
102763
102750
102752
58744.9
55450.4
99804
100186
102726
102912
102702
103935
99145.4
103679
103870
104363
87559.3
50946.8
67088
75477.6
74595.3
102401
102031
102044
102055
102010
102033
101963
103974
102673
103928
102742
102734
102736
92290.1
102484
102558
102009
102958
104258
115247
103840
102407
102416
102350
102260
102267
102274
102438
102326
102467
102282
102321
102621
102616
102597
101696
102754
102474
103017
103544
102656
102674
103570
103279
103199
103179
103081
102659
103203
102569
108648
109670
102802
102626
102574
102568
56829.9
49432.6
103237
102635
101775
102675
57742
102800
102729
102743
102884
103190
103477
101843
102549
97888.6
102584
102635
55139.4
58489.7
63641.4
63366.2
91225.2
74531.9
76182.2
59302.8
73062.7
126143
74524.5
100597
96649.8
97414.1
53521.2
51108.5
97373.9
99368.2
102752
102760
102810
102765
102142
102762
100681
102035
102725
102717
102690
102536
103294
103064
102653
103127
102827
101304
101367
101434
102610
102704
102762
102794
102726
102598
102502
99083.5
102395
102548
102544
102533
102542
102648
102560
103097
102714
102842
102773
102707
102715
102778
102762
102665
99877.8
108195
101876
101393
93229.9
102006
102959
102938
101713
101397
101802
101917
101224
101209
100881
101497
100934
102073
102732
102721
121604
103439
102983
102513
103390
102704
102695
99912.5
85143.6
102158
102544
102582
97391.8
102134
102218
54068.8
68461.8
74195.5
101079
84831.7
78495.4
102611
102639
102490
102747
102754
102757
102701
102772
102772
102762
102695
102758
102476
102709
102863
102865
102755
102720
102083
101842
102888
102552
101711
102108
98598.6
102126
101567
99826.4
101847
101739
101831
103499
103055
101788
102843
102529
108987
102714
102607
102650
102468
102653
102628
102647
102463
94999.9
59468.5
102311
102305
102723
102717
111807
101234
100900
99311.8
101505
102730
102752
102737
102560
88453.8
102448
93724.2
96043.3
90956.2
101829
102935
64712.1
103851
101974
95535.6
101920
99736.1
95092
101603
102622
102765
102741
102692
102559
102713
102601
102488
102491
102762
102462
102766
102571
67735.7
101912
101886
102749
102733
102749
102788
102738
102747
103306
103471
103544
103392
103414
96443.6
102466
88575.7
91799.7
102993
102638
102601
102591
102584
89938.9
102288
103433
103653
102927
103041
91705.1
114578
103076
103117
103050
103071
86724
102437
100268
100066
102428
101812
102419
102211
102591
102727
102696
102873
55951.8
102727
102458
102464
70877.7
53745.9
59573.5
102739
102617
102754
102750
102593
102480
102725
102654
102717
102567
102841
112541
69576.8
101722
100348
103099
102938
103029
106760
107478
108006
104740
102919
104126
102742
102742
102753
102732
102738
102830
68371.2
70986.6
97232.3
102730
102766
102724
102733
104395
91734.6
107412
102946
102014
62486.6
98532.1
102386
102744
102793
102744
102630
102574
102598
101309
101559
102307
102823
102346
111749
111555
116437
51778.1
102336
102371
85123
102542
64422.1
101511
61872.1
64933.6
66750
64893.2
102550
102527
102401
102378
101572
101462
101868
102906
101900
102398
98616
64104.8
102213
102529
103538
106255
106328
105107
96242.1
109704
102730
89115.4
108524
102812
101628
58683.9
102797
102821
102721
102817
102714
102719
101190
102800
104950
102807
102703
101965
101784
85304.9
102370
102196
102295
102472
102738
102811
102711
102649
102470
102528
102502
102699
102485
102486
103153
103228
102991
102708
102695
102664
50616.3
102812
50565.5
100173
55633.5
52763.2
51398.6
52276.3
65770
57073.9
53512.8
92216
102527
58160.8
62393.8
102769
102784
103060
102782
99994.1
86377.8
49620.5
102319
102473
103131
102178
103135
102281
103205
102984
101833
102240
103074
102712
104891
102736
102672
79869.7
102664
102762
102532
70748
75596.5
68895.7
102493
102486
60058.1
75719.1
102756
102743
102749
102745
102748
102634
102894
103574
102271
110848
109653
99147.2
102837
72306.6
102150
101134
102580
102784
102879
102954
102490
102644
102880
102087
102782
102809
102786
102813
102524
102749
102799
102735
102794
100710
102542
101101
103417
103323
102774
102968
102912
102858
102758
100864
102785
86047.6
102737
101982
102686
102739
102855
102708
102677
103086
103059
102834
103076
102911
103548
102864
101509
101702
101894
101909
102600
102016
102090
102506
102508
102693
102691
102702
101596
102378
105139
101474
104567
102473
102791
102459
102753
101866
101483
101590
102665
102673
103621
102756
102645
102759
102799
102288
101948
86743.3
102566
64997.9
92154
71299.6
100238
100510
102692
102809
102673
103002
102775
100452
97422
100210
102717
102699
101775
101599
102740
102752
102749
102743
102650
102735
102833
102824
102477
102769
103197
101954
102635
102136
102273
103206
69818.6
100949
96275.9
102740
102739
98206.9
102222
100358
94673.2
101297
95520.8
132230
102686
102867
102883
102459
102822
109381
102459
102484
102177
102479
102575
102507
102507
102579
102496
103840
105741
103607
102570
102604
102822
102835
102779
102194
111231
55057.4
86689.4
86853.8
58724.6
101090
101888
101937
102777
102761
102736
102723
101343
101042
101006
102795
102820
102893
102859
102593
67924.9
75461.3
80067
89005.4
78801.1
110969
102719
102544
102587
102600
102208
102149
116586
102258
102609
122125
102090
102685
116228
102697
102696
105653
102604
106434
105917
102797
102741
102708
107083
106507
103016
102979
97441.7
115509
103156
73329.1
102657
102911
102887
102980
103350
103014
120233
102868
102913
102881
102886
102877
100427
64054
110543
102027
101960
87736.3
115474
103524
95588.9
112316
123324
102409
102588
102641
102667
52029.7
102800
55665.9
102805
102789
102802
102699
102694
127011
102490
102636
102453
102846
102409
102458
102424
102364
102390
118142
102525
102651
96147.6
102333
102262
102285
128256
102783
128049
102447
102440
102439
102492
104251
70070.9
101320
103215
89657.5
100558
101921
102865
93823.4
102805
102750
102685
102694
102719
102732
104794
98919.6
102859
102952
102568
103102
103040
102953
102900
101279
102737
93219.4
102565
102577
106018
102857
103095
102800
106314
102612
102536
102510
102611
102651
102554
102706
102697
102687
102742
102761
102939
103013
102672
102758
102761
102888
102848
101817
102678
102620
102631
102913
102739
102771
102572
102624
102852
102601
102991
102938
100226
102628
52242.7
64190.5
101627
102752
101982
87445.8
101896
102509
102727
69648.3
85117.7
59807.6
102702
102523
96424.6
101686
97454.3
89052.4
88797.2
97559.3
100499
102139
102279
102154
102333
102131
102415
102348
102446
102393
102628
102806
103004
102921
102402
102732
100439
102738
102626
121776
102505
102809
102634
101766
89502.2
103518
101276
102497
102521
102641
102641
102507
116968
124075
126047
112089
101927
100286
101878
102403
102500
102412
102424
101127
105730
102749
102750
100386
102747
102747
102677
102744
102730
102720
102737
102756
102742
102093
102242
90123.4
70610.4
71081.4
100719
101847
102283
102745
102755
85715
102557
102543
102558
100920
102541
102638
102693
102468
103031
102519
102453
102527
101951
102812
103089
106289
99441.3
103442
103407
103648
103434
96675.8
102972
102973
102908
102901
103613
102751
102760
102749
102974
103576
105857
78494.3
55578.9
67165.6
101090
91322.7
104536
91144.7
104928
104114
101514
102480
115025
102682
102786
102758
102803
102845
102826
102767
102605
102611
102841
102737
102783
103613
66433.5
72403.7
71973.9
103295
66538.5
71046.5
102448
77425.5
102236
103728
102657
102662
102644
102891
102896
102531
102537
102877
102882
102823
83241.3
102703
102729
102749
102758
106905
56986.9
109601
102495
102470
102802
103346
103380
103185
103129
103608
103416
103394
66642.3
68507.5
86428.9
90854.2
102497
92564.8
102510
102770
102591
102608
102511
102519
102817
102874
102819
102838
102698
102816
102144
102571
72064.4
74076.8
102131
86095.8
102470
103776
102592
104202
104287
110399
103818
105570
105556
102782
102726
102945
102780
103123
103174
103025
103125
102584
102887
103224
102072
102879
102891
109118
103500
102901
74863.1
75020.3
79564.3
55381.2
100990
83272.7
77478.9
102084
102005
92211.8
84882.5
101898
101227
102879
119997
106205
103095
101997
102448
109858
102451
102803
82680.8
102673
102618
91490.4
102081
102627
102709
102739
102940
102933
102786
102947
103080
102575
102569
102765
103186
103006
103002
102069
102920
101474
101048
101731
104594
102113
102108
101553
101090
101059
101095
101075
103841
120773
61289.4
102243
102672
102619
102721
102546
90111.7
92566.6
101876
102590
102578
102751
102759
102749
102556
102571
123276
117610
102842
101599
103354
103539
103513
102889
103460
103505
102884
102448
101530
82034.1
101603
123224
101455
68466.2
102091
102534
102601
102542
102722
102744
102744
102746
102519
102555
102555
102799
102798
102607
102612
102631
102622
103006
102949
102977
103049
103070
71136.6
101705
98714
103075
96347.6
92833.4
99590.1
113538
103257
102882
102677
102853
101933
101921
101884
94843.4
77636.2
84391.2
87906.5
110284
109401
102744
101941
101875
102062
102516
102422
101437
102621
102474
101392
102769
102413
102745
102748
102744
102638
102540
102672
102596
102366
102551
102374
102742
102754
102621
102745
102752
102755
113419
111507
97349.1
99754.9
98435.4
102170
102174
82653.8
101646
87525.7
102688
102659
102708
102708
102478
97543.9
102805
78179.6
84128.4
78966.2
102273
102551
101663
102692
102681
102677
102660
102526
102710
102887
102837
102801
104380
66017.3
101711
49116.5
113297
117194
102952
122438
102925
99159.9
100134
67661.1
102174
102060
102054
102035
102637
102653
102643
102730
101365
102877
103539
102733
102738
116876
110709
103328
102527
101379
102542
101851
101874
102523
102626
102625
102254
48310.4
101447
101232
101146
101398
102625
117480
102034
102567
102816
102808
102818
102813
91954.8
115828
115344
107341
120492
100383
120399
101721
102194
102246
102730
102994
120527
105346
102749
99460.3
81659.5
105757
107421
102562
98963.2
116593
111773
102285
104473
111918
87409.4
101819
113208
101793
102469
102425
102757
102631
102585
102597
65113.5
58483
60978.6
101969
102855
93183.6
101851
101929
102654
102730
102723
102722
101275
102783
101907
102317
53420.2
102785
53933.9
51723.2
102592
59788
58892.8
102534
102548
102426
102504
103629
103404
111108
111506
111050
111789
102492
98566.1
103225
102025
103504
102861
101559
103179
102618
102102
101236
101706
101006
102793
102520
102590
102632
102747
102850
102622
102638
102947
100701
100697
80217.1
107667
54397.9
101456
112618
116076
113241
98587.9
102660
102636
102202
102626
102718
102589
103886
102737
101674
102241
102198
73119.6
102224
102508
102381
101058
102691
102700
102727
102847
102857
102697
102637
102718
95732.5
104008
102995
102736
102964
102990
102514
101757
102663
98774.8
102780
101117
102547
104746
102294
101195
102806
102822
102001
102767
101442
102627
102667
101420
98249.9
99795.3
94944.1
102369
102618
102406
102779
102580
118692
102814
102821
102818
102658
102543
102683
102570
102538
102584
102579
102663
102672
101722
101569
102390
92987.6
102558
103856
104770
102534
98990.3
101895
96480.1
102739
102768
102514
79459.8
102283
102296
102443
102545
102362
102301
102368
100712
103146
102374
102661
101927
85112.6
102979
102680
102828
92151.9
102617
102678
100191
102673
77922.1
102484
102364
102762
102840
102853
102626
102632
102675
102719
102594
102568
102773
102591
102652
102620
102707
117274
102916
104245
72508.4
102580
76159.4
101892
102099
101784
88405
87177.2
102837
80445.7
102601
102416
103554
102612
102692
102822
102918
101575
102768
102875
98112.5
111552
101646
101944
103469
106013
71723.4
70687.2
102505
102578
102613
55954.4
102729
67514.3
102750
78829.9
102759
102754
103270
82819.7
102617
102633
102600
102897
102616
102657
102665
102651
101652
103669
102588
105007
102550
102568
102553
102894
96523.9
97957.1
102407
102739
102674
102658
105358
102614
102605
102632
102630
111461
103185
102989
102812
111468
112237
102403
102411
102749
101809
102493
102503
102623
102610
100182
102898
102833
98154.4
102728
102724
102804
102501
102669
102605
55072.8
102464
102413
101923
102449
66455
101794
57892.4
53228.6
103074
101859
103242
102671
102650
104212
102664
102895
102756
102750
102746
102762
102523
102552
102554
102558
102538
102566
100723
96473.3
113928
102623
102845
120483
102941
102980
102521
102564
102701
102536
102715
102492
109560
102935
108946
102639
102600
102653
102615
103308
102784
102985
102854
103727
85077.4
68778.3
124852
101159
95043.9
108892
104965
124807
102849
102363
102487
102490
68096.4
67300.8
64396.4
55857.9
102769
102738
102751
102638
102725
102747
103176
102614
102602
102594
102605
102596
91873.6
96985.4
93292
95123.8
92912.5
103177
102639
102669
102242
102949
102726
102678
102671
102678
102265
102495
103068
103312
102507
102519
102628
102511
102923
102648
102767
102725
102739
108718
102944
104312
103334
102786
102279
102267
102440
102718
102666
103553
103466
125206
118971
126410
122568
102249
102141
102696
102742
102915
102736
102727
122321
107753
67803.2
49708
102394
102413
102522
102499
48632.2
50855.5
56601.3
102580
102612
101934
102584
100019
92823
102829
102747
102752
102759
102759
102752
95775
101834
89747.3
92438.3
102706
86579.1
102805
83233.2
102837
102559
102751
102779
102948
102519
102536
102556
101872
103012
103043
96850.1
101915
102584
102541
102489
102583
102045
102673
102679
111580
122286
102771
76171.9
102782
102769
101916
101887
102795
102750
102747
118393
103976
93775.9
81042.2
98136.9
102760
102759
101513
102065
102098
101903
101904
103116
121449
122954
123155
106079
102501
104336
105307
102357
102349
125947
102810
102364
102535
102539
102360
103151
115209
86173
103173
102727
102827
102682
103499
102676
103041
101585
103095
103015
99668.1
109579
102953
102402
102341
109106
110749
105623
102587
102540
102592
102601
102655
102657
103268
102671
101680
101658
102320
103048
103148
101957
102120
101876
99373.2
101520
48592.4
103364
103189
102730
102722
102519
102512
102871
102785
102787
103412
102820
102742
102590
102638
102582
102791
102784
102752
102751
101257
101291
101249
102729
101405
102709
102751
100176
101184
50669.6
94976
102049
101618
102737
102910
102898
100268
99529.5
84234
79108.2
79728.3
69603
69993.6
114951
92442.2
62823.7
90353.7
66321.1
103070
101876
102754
102724
102792
102663
102607
102784
102787
102791
100914
102879
103354
103620
103263
103414
103487
115008
102406
102483
82781.1
102149
101711
102253
102590
102569
102534
102534
103504
103734
103895
103764
97125
100709
90677.9
101890
101919
102649
102800
102916
101988
101847
103003
101960
101987
102145
102721
103184
103350
101712
101548
103271
101213
103471
102517
102527
102795
102974
102532
102535
102763
101382
100786
102771
103118
102704
121801
102822
102608
102824
97012.8
101191
)
;

boundaryField
{
    Inlet
    {
        type            prghTotalPressure;
        p0              nonuniform List<scalar> 0();
        value           nonuniform List<scalar> 0();
    }
    Outlet
    {
        type            fixedValue;
        value           nonuniform List<scalar> 0();
    }
    Symmetric
    {
        type            symmetry;
    }
    Wall
    {
        type            fixedFluxPressure;
        gradient        uniform 0;
        value           nonuniform List<scalar> 
251
(
125381
127647
112089
89502.2
91490.4
99386.6
100427
101686
101934
102032
102141
102272
102393
102500
102583
102654
102701
102732
102745
102745
102733
102709
102680
102646
102608
102563
102522
102476
124852
126410
113928
92566.6
90548.8
100268
100372
101581
101901
101972
102152
102265
102402
102493
102590
102656
102704
102737
102752
102751
102739
102723
102693
102659
102608
102571
102519
102481
125206
131175
130056
129465
123528
98272.3
98040
89657.5
91485.3
87695.2
94843.4
98435.4
96189.3
96224.7
100210
100386
100260
101437
101128
101466
101847
101878
101898
101944
101982
102007
102072
102084
102087
102211
102208
102249
102348
102333
102362
102466
102450
102482
102562
102544
102569
102637
102619
102643
102695
102681
102700
102730
102717
102725
102752
102739
102745
102755
102747
102759
102748
102741
102738
102726
102722
102717
102699
102697
102692
102664
102662
102660
102628
102627
102628
102587
102586
102575
102542
102542
102540
102497
102497
102484
102449
102450
102440
95192
118692
124922
102455
123677
83241.3
100558
96985.4
90353.7
99815.9
97349.1
100681
100452
101775
100900
101886
101788
102057
101939
102154
102066
102294
102194
102424
102341
102527
102447
102614
102541
102672
102627
102721
102685
102738
102722
102759
102747
102745
102750
102743
102750
102708
102730
102677
102710
102641
102677
102607
102634
102563
102592
102519
102543
102476
102502
102459
110284
91144.7
100186
100439
101765
101896
102005
102141
102283
102412
102516
102601
102672
102715
102744
102754
102753
102738
102713
102681
102648
102607
102563
102521
102473
80895.6
82653.8
114722
123276
125381
124852
74076.8
90123.4
92154
101646
86096.7
111507
123224
125110
124623
73329.1
58853.7
91697
85123
98016.9
106761
122286
120773
121161
79108.2
115509
79728.3
118082
78801.1
115474
104918
)
;
    }
    procBoundary1to0
    {
        type            processor;
        value           nonuniform List<scalar> 
28
(
114155
113356
106715
113121
60812.3
110455
111621
78798.6
72584.2
65465.8
98355.3
114189
69454
64688.1
68384.3
108983
83631.7
78264.4
113092
87089.4
62898.7
74340.9
97325.9
103362
112602
71970.5
96450.9
68052.4
)
;
    }
    procBoundary1to3
    {
        type            processor;
        value           nonuniform List<scalar> 
32
(
102306
102441
102440
102124
102479
102481
102445
102444
102450
102432
102429
102428
102468
102461
102439
102486
118019
102433
102394
102396
102483
102249
102458
102352
102474
102313
102451
102314
102446
102480
102271
102349
)
;
    }
}


// ************************************************************************* //
