/*--------------------------------*- C++ -*----------------------------------*\
| =========                 |                                                 |
| \\      /  F ield         | OpenFOAM: The Open Source CFD Toolbox           |
|  \\    /   O peration     | Version:  v2006                                 |
|   \\  /    A nd           | Website:  www.openfoam.com                      |
|    \\/     M anipulation  |                                                 |
\*---------------------------------------------------------------------------*/
FoamFile
{
    version     2.0;
    format      ascii;
    class       surfaceScalarField;
    location    "0.02";
    object      phi;
}
// * * * * * * * * * * * * * * * * * * * * * * * * * * * * * * * * * * * * * //

dimensions      [0 3 -1 0 0 0 0];
oriented        oriented;


internalField   nonuniform List<scalar> 
5866
(
2.34292e-06
-3.59243e-08
-2.30699e-06
-1.83495e-08
2.03661e-08
-3.10946e-08
2.90781e-08
-1.29036e-08
-7.58653e-08
8.87689e-08
7.71958e-09
-7.86894e-09
1.49367e-10
1.64891e-06
-5.54871e-07
-1.09404e-06
-1.31736e-08
2.75728e-07
-2.62555e-07
-9.93261e-08
6.84757e-08
3.08504e-08
6.7683e-08
-5.14756e-08
-1.62074e-08
9.77479e-08
-9.6858e-08
1.03278e-08
-1.12178e-08
2.40898e-07
-2.34102e-07
-6.79651e-09
1.71024e-08
-9.21559e-08
-1.33856e-08
8.84394e-08
-2.06369e-06
-2.51307e-08
2.05762e-06
3.12026e-08
-1.3685e-06
-5.77377e-09
1.37428e-06
-1.34572e-06
-2.27819e-08
-7.47694e-07
7.2042e-07
2.72739e-08
-4.0168e-07
-1.0198e-07
2.88958e-07
-2.44656e-07
2.5283e-07
-2.97132e-07
-4.30367e-06
3.06717e-06
1.2365e-06
8.62457e-09
-1.72236e-07
1.10595e-07
9.76081e-07
-7.88142e-07
3.49091e-06
-3.67885e-06
-9.90925e-07
2.03044e-07
7.87882e-07
9.70771e-07
-4.05824e-06
3.08747e-06
-2.41065e-08
3.72925e-10
2.37336e-08
5.15418e-09
6.25558e-09
-1.14098e-08
1.07223e-08
4.98625e-09
-6.2344e-09
-9.47423e-09
9.06408e-09
-1.00949e-08
6.18497e-09
3.55158e-07
-1.1201e-06
7.64942e-07
1.03319e-06
-1.04749e-06
1.43054e-08
-1.2433e-06
1.35968e-06
9.35929e-07
-1.05231e-06
2.9769e-09
-1.10512e-11
-2.96587e-09
-2.38569e-09
2.3857e-09
4.51926e-10
1.18774e-08
-1.23293e-08
-1.61225e-08
6.65933e-10
-8.24744e-10
1.62813e-08
7.87515e-09
-7.3813e-09
-4.93839e-10
3.00996e-08
9.72921e-09
-3.98288e-08
-4.87388e-09
2.26799e-08
-1.7806e-08
-8.47468e-09
-1.31917e-10
8.60658e-09
-3.2062e-09
2.88588e-09
1.50858e-10
1.6944e-10
-6.30057e-09
-3.7336e-08
7.44591e-09
3.61906e-08
-5.63673e-07
-8.04089e-08
6.44082e-07
2.06418e-09
-3.017e-09
2.52499e-08
-2.42971e-08
3.81153e-08
-9.03521e-08
6.27835e-08
5.22918e-07
-5.85702e-07
4.87965e-07
-6.50807e-07
1.62842e-07
-8.79615e-08
6.98038e-08
1.81577e-08
3.30741e-07
-3.15116e-07
4.71583e-08
-8.28092e-08
-1.88882e-08
1.01697e-07
-1.39062e-09
2.48595e-10
-6.522e-08
3.95961e-07
-1.05975e-07
4.24497e-08
-2.75631e-09
-4.03962e-08
7.02758e-10
-1.87566e-08
-7.27473e-09
2.60313e-08
2.00978e-09
-2.00979e-09
-7.63178e-08
-8.84178e-09
7.74033e-08
7.75629e-09
9.22025e-09
1.06446e-09
5.63065e-10
-1.08478e-08
4.30925e-07
-1.76991e-06
1.70914e-06
-3.70162e-07
-1.78526e-08
4.87503e-08
1.60619e-08
-4.69595e-08
2.16724e-08
9.58661e-07
-9.80334e-07
9.54305e-08
-8.62251e-08
-9.20544e-09
8.90333e-08
6.39724e-09
1.62883e-06
-1.62883e-06
2.12956e-06
-2.0923e-06
-3.72547e-08
2.4862e-06
1.26346e-07
-2.61255e-06
2.16313e-09
-2.16314e-09
5.00975e-07
-4.44678e-07
-5.62969e-08
-3.49185e-08
-2.07229e-06
2.10721e-06
6.22615e-09
2.83791e-09
-9.27781e-08
3.79585e-08
5.48196e-08
2.07705e-09
-4.06822e-08
3.86052e-08
-1.82605e-07
-5.14966e-08
2.34102e-07
-2.5497e-06
1.86064e-08
2.53109e-06
-4.22723e-07
4.9303e-07
-7.03067e-08
7.91302e-08
1.09902e-07
-1.08002e-07
-8.10306e-08
-1.1526e-07
3.89426e-08
-1.41497e-08
-1.17137e-07
1.31286e-07
7.54481e-09
-3.30801e-08
2.55354e-08
2.99469e-08
-2.19051e-08
-4.29603e-08
1.13622e-07
-1.13104e-07
-4.6421e-09
4.12466e-09
3.07892e-07
-4.30093e-08
-2.64883e-07
6.17991e-09
2.3767e-08
3.96642e-08
1.04213e-07
-8.4364e-08
-5.95127e-08
-4.31682e-09
2.59088e-06
3.06705e-08
-2.61724e-06
2.5407e-06
1.9439e-08
-2.56014e-06
3.75628e-08
-1.18471e-07
1.2631e-07
-4.54016e-08
3.18888e-07
7.25071e-09
-3.26138e-07
-1.1771e-08
8.19206e-12
1.27366e-08
-9.73736e-10
1.35684e-07
-2.35413e-07
9.97288e-08
2.77293e-07
-1.5814e-08
9.36785e-08
-1.44259e-07
6.36102e-09
1.26526e-07
1.13715e-08
3.29936e-08
-3.29936e-08
1.19125e-07
8.46711e-09
-9.00293e-08
4.39872e-08
-1.8761e-09
-4.21111e-08
3.63656e-06
-3.52377e-06
-1.26961e-07
1.41715e-08
2.25645e-08
2.77113e-09
-2.53357e-08
5.73434e-08
-6.07589e-08
8.22226e-08
-7.88072e-08
-1.67901e-08
1.5248e-08
-1.0557e-07
1.31157e-07
-2.55875e-08
-1.75323e-08
1.75323e-08
-8.8349e-08
3.77656e-06
2.72223e-07
-3.96043e-06
9.42223e-08
-2.01607e-08
-9.55485e-08
2.14869e-08
-1.378e-09
4.08882e-10
-9.90925e-07
1.68384e-06
-1.59245e-06
-4.90264e-07
3.98873e-07
1.09868e-08
-5.81787e-09
-5.16896e-09
-1.05023e-06
3.64317e-07
-1.85912e-06
2.54504e-06
-3.71121e-09
-5.28887e-08
5.65999e-08
-1.23791e-09
5.50213e-08
-5.37834e-08
-2.12801e-08
-2.70242e-08
4.83043e-08
1.0565e-06
-1.02083e-06
-3.56631e-08
4.06566e-08
-3.13991e-08
-9.25752e-09
1.08201e-09
-3.64008e-09
1.12041e-09
1.43762e-09
1.259e-08
7.47456e-08
-7.27046e-08
-1.46311e-08
-3.40007e-09
-7.39979e-08
7.7398e-08
-7.6159e-08
9.65287e-08
-2.03697e-08
1.00408e-08
4.00547e-08
-5.00955e-08
-8.25624e-08
-1.00905e-08
9.26529e-08
1.06178e-07
-1.36945e-07
3.07675e-08
2.819e-10
-9.11155e-09
-5.91711e-11
8.88883e-09
2.31352e-08
-2.58889e-08
-1.04855e-07
1.07609e-07
2.88348e-09
-2.88348e-09
-1.72945e-07
4.35918e-08
1.29353e-07
1.42665e-08
9.36157e-08
1.33523e-09
-1.09218e-07
2.72838e-08
6.45194e-10
7.127e-10
-2.86417e-08
1.46157e-09
-9.27564e-10
-5.33998e-10
4.71867e-09
2.23138e-06
-2.2361e-06
-1.06079e-06
2.23831e-08
1.0384e-06
2.3719e-09
-1.05844e-06
1.51317e-06
-1.49078e-06
-3.60363e-08
-2.57572e-08
6.17935e-08
1.51554e-06
1.00903e-07
-9.98824e-08
1.0833e-09
-2.10378e-09
-2.1857e-08
-9.29823e-08
1.14839e-07
1.57879e-06
-1.43275e-09
-1.57735e-06
-1.09821e-08
1.09821e-08
7.89366e-07
7.96043e-07
-1.58541e-06
6.22405e-07
5.72608e-08
-8.64583e-08
-5.93208e-07
-6.66633e-08
6.89069e-07
2.23426e-06
-2.32862e-08
-2.21097e-06
1.57533e-06
3.10991e-06
-3.28487e-06
-1.40037e-06
-1.87212e-06
2.68177e-07
1.60395e-06
-7.11451e-08
-1.90918e-07
2.40206e-07
-4.07812e-07
2.64207e-06
9.00931e-08
-6.21801e-08
5.65157e-08
-8.44286e-08
1.781e-09
7.4723e-08
-7.6504e-08
-3.50549e-06
3.65251e-06
-5.54834e-07
1.00039e-07
3.26358e-08
-3.2593e-08
-1.00082e-07
-1.35181e-06
2.49821e-06
-1.1464e-06
7.48113e-09
-7.32093e-09
-1.60204e-10
-7.46634e-09
-4.85616e-08
5.6028e-08
-4.39626e-10
1.53421e-08
-1.38205e-08
2.26916e-06
-1.61078e-06
-6.58376e-07
1.55106e-08
-9.96741e-09
-5.54314e-09
-1.99799e-06
2.0964e-07
1.78835e-06
2.04587e-06
-2.09189e-06
4.60231e-08
2.0093e-08
-5.53738e-08
-2.02727e-08
5.55535e-08
-3.09534e-08
2.5111e-08
5.84235e-09
-2.79557e-08
2.2156e-08
5.79973e-09
-3.54754e-08
-1.00711e-07
3.70574e-08
9.91294e-08
-1.00373e-07
-6.46653e-08
1.65038e-07
-1.25737e-06
2.30411e-07
1.02696e-06
1.4838e-08
7.16277e-08
-8.64657e-08
-5.5303e-08
6.15331e-08
-6.23011e-09
2.32663e-06
4.28541e-08
-2.65725e-08
2.94154e-09
-1.19991e-07
-3.07255e-09
1.20122e-07
2.87712e-09
7.84519e-09
-2.29356e-09
5.87305e-09
4.20331e-10
-3.99982e-09
-2.07095e-08
2.11243e-08
2.4623e-09
-1.39828e-08
-3.61152e-10
1.43439e-08
-2.76914e-09
-8.23037e-08
8.50729e-08
-7.4957e-08
6.91635e-08
-7.28442e-08
7.86377e-08
-7.44332e-09
1.52885e-08
-6.23987e-08
9.83433e-08
-3.59445e-08
-2.25736e-07
2.99824e-07
-7.40877e-08
1.00936e-07
-3.55716e-09
3.13119e-09
-1.0051e-07
4.85631e-09
-5.01027e-09
-9.55779e-08
9.57319e-08
1.12423e-07
-1.03221e-08
-1.02101e-07
-2.2396e-07
5.88403e-08
-6.06165e-08
-7.94166e-07
-9.75604e-08
8.91726e-07
1.9178e-08
-1.71981e-08
2.35052e-08
-2.54851e-08
-5.4984e-09
3.72495e-09
-8.07889e-08
-2.86678e-07
6.27183e-08
3.43297e-09
-1.15013e-07
1.15277e-07
-3.69687e-09
-9.70045e-08
2.6455e-09
9.73301e-08
-2.9711e-09
8.61157e-08
-3.71068e-08
-4.90089e-08
1.09455e-07
-6.79628e-08
-4.14926e-08
-2.09274e-09
2.3564e-09
-2.63661e-10
-3.85891e-10
-8.0888e-09
-2.06157e-06
-1.28823e-06
-1.35314e-06
3.16757e-06
-1.81443e-06
8.19451e-08
-9.31469e-08
1.12018e-08
1.03674e-07
2.6052e-08
-1.99835e-08
-1.09743e-07
1.23122e-06
-1.23122e-06
7.03282e-07
-7.03282e-07
5.2321e-11
9.74257e-09
-9.7949e-09
1.83444e-06
-1.17491e-06
-6.59529e-07
-6.18566e-09
1.25978e-06
-1.25359e-06
-2.27435e-08
1.19514e-08
-5.65416e-09
1.64461e-08
7.99124e-08
-7.35002e-09
-7.25623e-08
6.67014e-08
-1.30299e-08
-6.99976e-08
1.63263e-08
-1.53661e-07
2.60698e-07
1.92957e-07
-2.99994e-07
1.5146e-07
-9.70569e-08
-5.44028e-08
5.50871e-08
-6.94173e-08
1.43302e-08
-6.05154e-07
3.22847e-08
6.01867e-07
-2.89976e-08
1.19971e-07
-1.22577e-07
1.16809e-07
-1.14204e-07
2.50891e-06
-2.51242e-06
3.51545e-09
5.11847e-07
-8.56284e-07
3.44437e-07
-2.57313e-07
-2.21091e-07
4.78404e-07
1.08132e-07
-5.4814e-07
4.40008e-07
-2.35594e-06
2.55986e-06
2.04269e-06
-2.24662e-06
-2.18601e-08
-1.20406e-06
1.22592e-06
3.79248e-07
-3.71299e-07
-5.08743e-08
4.29246e-08
1.49591e-06
4.82938e-07
-6.19055e-07
-1.35979e-06
1.65197e-07
1.33071e-06
7.79425e-08
-7.79425e-08
-3.67713e-06
1.32119e-06
-1.23102e-07
-8.6638e-08
2.0974e-07
9.82521e-10
4.08115e-09
5.44337e-08
-5.94974e-08
-7.45409e-08
2.46834e-08
4.98574e-08
-1.52754e-06
8.79106e-07
1.63179e-08
5.25661e-08
-6.88841e-08
-4.68182e-08
1.70258e-08
-1.84478e-08
4.82401e-08
4.30748e-08
2.97617e-08
-7.28365e-08
9.02753e-08
7.47263e-09
-9.23693e-08
8.35275e-08
-9.08146e-08
-2.44458e-08
-2.90282e-08
-8.2019e-08
1.11047e-07
4.98383e-10
1.11591e-08
-1.16574e-08
-3.08399e-06
2.45164e-09
3.08154e-06
1.31648e-08
-1.31649e-08
1.20672e-06
1.89637e-06
1.47311e-06
-1.53504e-06
7.7896e-08
-8.13073e-08
3.41121e-09
-2.30865e-06
1.77346e-06
1.96484e-06
-1.42964e-06
2.92901e-07
-3.28244e-07
4.5575e-07
-4.20407e-07
-5.24472e-07
4.98822e-07
2.56501e-08
1.49846e-07
-3.82543e-08
-1.11592e-07
-8.97836e-09
3.57279e-08
-2.67496e-08
7.93113e-09
-1.14063e-08
-2.50028e-08
2.8478e-08
-4.04933e-08
3.37391e-08
6.75417e-09
-4.06693e-06
2.44893e-06
-6.90652e-07
6.12523e-08
-1.39457e-08
-5.94532e-08
1.21467e-08
-6.12096e-08
1.37629e-08
4.74466e-08
-3.75539e-08
3.96302e-08
7.96454e-09
2.13396e-08
-1.12883e-07
9.15439e-08
-3.33162e-08
-5.38797e-08
8.7196e-08
-8.13608e-09
7.80345e-09
3.32623e-10
3.13194e-08
-1.56634e-08
-1.5656e-08
-8.88558e-08
-6.39942e-07
7.28797e-07
7.33538e-08
8.16429e-09
-7.1176e-08
-1.03421e-08
-9.30425e-07
-1.43412e-07
9.84982e-07
-4.52991e-07
-4.77434e-07
-9.88717e-09
1.74018e-08
7.99594e-09
-3.32174e-08
2.33303e-08
1.22768e-08
-3.25073e-08
2.02306e-08
-6.01118e-08
4.80873e-09
3.10679e-07
-5.34862e-07
1.53652e-08
-1.53653e-08
-1.58609e-09
-1.59462e-08
-2.34264e-08
-1.31174e-07
1.26839e-07
2.77617e-08
-1.44412e-08
1.44412e-08
-1.40235e-09
-8.52449e-09
1.49051e-11
9.91193e-09
-1.11661e-06
1.11661e-06
4.1773e-08
-1.72538e-08
-1.19005e-07
9.44855e-08
8.32419e-09
3.00494e-10
-1.58225e-08
1.14977e-07
-9.91545e-08
9.73448e-09
-1.41716e-07
1.31981e-07
3.20121e-08
1.04162e-07
-2.76844e-08
-1.0849e-07
-9.79666e-08
-3.79149e-08
1.35881e-07
4.31487e-09
2.59583e-09
-3.72201e-09
-3.18867e-09
-2.15716e-07
2.35632e-07
-3.14532e-07
2.94616e-07
-4.24208e-08
-7.05273e-07
-2.28794e-07
1.95768e-07
2.40845e-08
8.94099e-09
1.70802e-07
-8.09101e-09
-1.62711e-07
-1.74598e-08
9.61396e-08
-7.86798e-08
5.25742e-08
-3.91526e-08
-1.34216e-08
4.57194e-08
-9.46212e-09
-4.52357e-08
2.689e-08
-9.67899e-09
-1.27597e-08
5.58394e-08
-4.30797e-08
-2.01631e-06
8.51551e-09
2.00779e-06
2.79047e-08
3.97784e-08
4.77489e-08
-4.70274e-08
5.34105e-08
-5.4132e-08
-1.06804e-07
8.51119e-08
2.16919e-08
2.23357e-06
-2.57246e-06
3.38886e-07
-1.79252e-08
-1.01036e-07
1.18961e-07
4.99147e-08
2.47847e-07
-2.97761e-07
2.90578e-08
1.31407e-07
-7.98969e-08
-1.37653e-07
8.61434e-08
-1.77133e-07
-8.14952e-08
1.99442e-07
5.91864e-08
8.88877e-08
-8.87322e-08
-4.85222e-09
4.69672e-09
-4.86261e-09
9.81466e-08
-9.3284e-08
7.69768e-08
-1.02754e-08
-1.94328e-07
1.71955e-08
3.40017e-08
-1.88494e-07
1.54492e-07
-1.09248e-08
-3.23745e-06
3.24837e-06
-6.29206e-08
1.38412e-10
1.28255e-08
-1.29639e-08
-2.30837e-09
-3.86657e-08
-1.69359e-10
4.11435e-08
-1.17583e-06
-2.14997e-09
1.17798e-06
-1.28666e-07
-5.39385e-08
-4.77312e-08
4.77312e-08
1.43886e-09
-1.63129e-08
1.69511e-08
5.9778e-08
-7.46778e-09
-5.23102e-08
5.7364e-08
1.98285e-08
-7.71925e-08
2.51453e-07
1.52161e-07
-4.03614e-07
-2.6368e-08
3.42991e-08
1.18894e-08
-8.42691e-08
7.23796e-08
4.16913e-08
7.80749e-10
-4.2472e-08
-9.40312e-08
9.69727e-08
9.61938e-08
-9.27608e-08
-1.48811e-09
1.15433e-09
6.93007e-08
1.01501e-07
-1.08199e-07
9.06967e-09
9.91296e-08
1.05227e-07
-1.04444e-07
-1.08982e-07
-1.21202e-07
6.0279e-08
6.09229e-08
8.07854e-08
-1.03552e-07
2.27664e-08
5.92439e-08
-1.57211e-07
3.50721e-08
5.63338e-08
-9.14059e-08
-1.10156e-07
8.3062e-09
-4.58601e-08
-7.74952e-08
8.419e-08
-1.29797e-07
1.13118e-06
-1.1202e-06
-1.09774e-08
-5.53277e-08
5.91593e-08
8.216e-08
-8.59916e-08
2.27088e-06
-2.20456e-06
-6.63245e-08
2.08604e-06
4.00161e-07
1.95449e-06
-3.03071e-06
1.07622e-06
-4.77032e-08
-2.62414e-08
7.39446e-08
1.81392e-06
-9.07304e-07
1.36255e-06
1.046e-06
-8.07262e-07
-2.3874e-07
1.59815e-06
3.11385e-06
-4.712e-06
5.01543e-08
1.77802e-08
-6.79346e-08
-8.44704e-09
-4.95527e-08
5.07671e-08
7.23267e-09
2.71866e-08
7.28525e-08
-3.88124e-08
4.02239e-08
-1.41155e-09
-8.67236e-08
9.22166e-08
8.02595e-08
-8.57525e-08
-8.09433e-08
7.94552e-08
-9.32427e-08
9.90656e-08
-5.82289e-09
-9.3612e-08
1.15905e-07
-2.22934e-08
5.15315e-08
-1.00971e-07
8.21286e-08
-6.23002e-08
-8.49871e-09
-6.32365e-08
8.03389e-08
9.72049e-08
-8.63022e-09
-8.85747e-08
4.25014e-08
-4.84635e-08
5.96208e-09
1.45674e-07
-8.43439e-08
-6.13299e-08
-2.17442e-08
3.47846e-08
1.32633e-07
4.93287e-08
4.2902e-07
-4.78349e-07
-5.27286e-07
1.62924e-07
4.1369e-07
2.68374e-07
-2.8018e-07
1.18063e-08
-1.60343e-06
1.6251e-06
-3.241e-08
7.66834e-08
-4.42734e-08
1.06063e-08
-2.66988e-08
-1.02755e-08
3.76881e-08
-4.95342e-09
2.60355e-09
-3.53383e-08
-1.33413e-08
9.32175e-09
5.90252e-08
-5.50057e-08
9.31742e-08
-1.84249e-07
9.10751e-08
5.03422e-08
-5.62892e-08
6.33404e-08
-5.73935e-08
-1.9015e-08
6.93572e-08
-2.46526e-08
-5.73178e-08
6.29554e-08
-7.02514e-09
4.47132e-08
2.3197e-06
1.88613e-06
-4.20583e-06
-2.04429e-06
-1.23183e-06
1.93257e-06
1.34355e-06
-6.31392e-08
2.64814e-08
6.9429e-08
-3.27712e-08
-9.03627e-07
2.58746e-06
-8.10465e-08
-2.81175e-09
8.38582e-08
-1.82973e-06
-2.01089e-06
3.84062e-06
-8.93669e-08
8.32041e-09
-7.36845e-08
8.7951e-08
-7.83897e-07
8.3106e-08
-9.33743e-08
-5.55885e-08
1.04077e-07
-4.84888e-08
1.95445e-08
-8.31276e-08
6.35831e-08
-4.08787e-08
1.06335e-07
-1.21045e-07
-1.14563e-07
2.18476e-06
-1.69479e-06
1.9241e-09
3.01995e-08
-4.8398e-09
-3.48353e-09
-2.94267e-08
3.06167e-08
-2.41772e-06
-1.82071e-06
1.82849e-06
2.40995e-06
3.75806e-07
1.48085e-06
-1.85665e-06
-1.2306e-09
2.80542e-08
-2.03947e-06
2.01142e-06
5.39488e-08
4.91166e-08
-1.03065e-07
-3.15618e-07
1.93041e-07
4.78365e-08
-2.01497e-07
3.85124e-08
-4.19959e-08
3.53245e-08
-3.62837e-08
-3.47727e-08
3.57318e-08
6.30227e-08
4.35887e-09
-6.73816e-08
5.928e-08
-8.13339e-08
9.03588e-08
-6.83049e-08
5.43032e-08
-1.49681e-08
-3.93352e-08
3.48564e-08
-3.31626e-08
-2.42441e-08
2.25502e-08
2.0429e-08
4.19483e-08
-6.23773e-08
1.01634e-08
-1.07028e-08
8.42381e-08
-7.40747e-08
-2.39982e-08
8.37905e-08
8.60635e-09
8.47266e-08
-9.3333e-08
-5.53141e-07
4.20054e-07
1.33087e-07
5.35288e-08
-2.52566e-08
-2.82722e-08
-2.0257e-08
2.61686e-08
-9.25497e-08
-7.66865e-08
-5.16819e-08
1.28368e-07
1.62375e-08
8.13295e-08
-1.76686e-08
-7.98984e-08
2.16131e-09
-2.16133e-09
-4.19892e-06
1.68682e-06
2.5121e-06
-2.52199e-06
2.86536e-06
-3.43368e-07
-7.91313e-08
7.01425e-08
-8.37893e-08
-1.13511e-06
1.17632e-06
-2.56321e-06
2.66959e-09
-9.19259e-07
9.25105e-07
5.56686e-08
-2.493e-08
-5.3519e-08
2.27803e-08
-4.52632e-08
3.22055e-08
1.30576e-08
-1.4483e-09
-4.38149e-08
-1.38345e-08
-8.90896e-09
1.07027e-07
-9.51053e-08
-1.19222e-08
2.6433e-08
2.92356e-08
-7.71252e-08
-6.83209e-09
8.39573e-08
3.46706e-08
-5.22504e-08
1.75798e-08
6.83133e-08
8.08252e-08
-8.71866e-07
9.70661e-07
3.1401e-08
2.29021e-08
1.3132e-06
2.13419e-06
-3.44739e-06
-8.27619e-08
8.1524e-08
-6.57065e-08
7.92662e-08
-1.76106e-08
4.05095e-09
-6.33238e-08
4.30668e-08
1.17358e-07
1.35139e-07
-1.59531e-08
-1.19186e-07
-4.56347e-08
4.7426e-08
4.50004e-08
-4.67917e-08
1.95515e-08
2.04686e-07
-2.24238e-07
8.40718e-09
-8.4072e-09
3.31335e-07
-1.83587e-06
1.50454e-06
9.61824e-08
-9.45645e-08
-1.61788e-09
2.59842e-10
-1.0412e-08
1.01521e-08
-1.0313e-07
9.31278e-08
1.00017e-08
7.31044e-07
-7.35747e-07
4.70228e-09
-2.64961e-09
2.32928e-06
2.54085e-07
2.72696e-08
-2.61803e-07
-9.78306e-08
-2.21599e-08
1.7446e-08
7.37134e-08
-4.80771e-08
-7.52976e-08
4.96612e-08
4.94162e-07
-6.77303e-07
1.8314e-07
7.26332e-08
-9.68003e-08
-2.40159e-07
-2.87126e-07
-1.03875e-06
1.03875e-06
-7.68921e-07
2.96317e-06
-2.19425e-06
-9.42409e-08
9.00846e-08
4.15631e-09
5.42433e-08
-9.9878e-08
5.12575e-07
-3.7265e-07
-1.39925e-07
-1.87571e-06
-1.43724e-07
-1.99423e-07
2.21886e-06
9.83049e-09
-9.8305e-09
9.57388e-08
-9.94356e-08
-1.26513e-08
1.26513e-08
1.16663e-08
-1.16663e-08
4.44462e-10
-4.32752e-08
4.34592e-08
-6.28525e-10
-7.23003e-11
6.32786e-09
3.06935e-09
-2.9078e-09
-1.6156e-10
1.48715e-08
2.99651e-09
3.11436e-07
7.26004e-08
-3.84037e-07
-8.26073e-08
2.59352e-09
-4.76023e-08
-6.88628e-07
7.36231e-07
9.84169e-08
1.2258e-08
-1.10675e-07
5.698e-09
9.87893e-08
-6.07037e-09
4.22904e-08
-4.40114e-10
-1.58995e-10
2.93456e-08
-1.34572e-06
2.22853e-08
-3.10732e-09
-2.50799e-08
5.11475e-07
-5.2232e-07
-1.01476e-08
1.99604e-08
1.24724e-08
6.53187e-09
-1.79382e-08
1.86301e-08
1.54448e-08
-3.40749e-08
4.45893e-08
4.33992e-08
-4.72746e-08
-4.07139e-08
3.32359e-08
1.13533e-08
1.14545e-07
-5.35478e-08
-6.09976e-08
-3.46947e-07
2.30705e-07
-2.96775e-06
3.33534e-08
2.15932e-08
-3.63166e-08
1.16616e-08
-7.94447e-09
2.71065e-08
7.44605e-07
-7.69685e-07
4.0457e-08
1.14086e-07
-1.54543e-07
-3.08788e-08
5.42726e-07
7.14698e-08
-2.36203e-07
1.64734e-07
-5.73865e-09
3.25932e-08
1.77832e-07
-2.34533e-07
-9.38086e-08
7.08503e-09
-1.49411e-07
6.68357e-08
8.25749e-08
2.08487e-07
9.13366e-08
-2.36993e-08
-5.86434e-08
8.23427e-08
1.91164e-08
-8.12966e-08
3.5996e-07
2.13423e-07
-1.56052e-06
9.8714e-07
8.5156e-08
7.06064e-09
1.35743e-06
-1.38484e-06
2.74147e-08
-3.49394e-08
-2.26372e-09
3.70635e-08
1.39631e-10
-4.66808e-08
-4.69015e-09
5.1371e-08
7.27962e-08
-8.44161e-08
1.16199e-08
-4.48025e-09
2.36783e-09
-4.45684e-08
-2.0156e-10
1.66313e-09
9.58057e-08
-1.18535e-08
1.43259e-08
-9.8278e-08
-4.43221e-08
-4.61133e-08
9.04354e-08
9.93759e-08
8.30305e-08
-2.76808e-08
-5.53498e-08
-3.29977e-08
1.59465e-07
-1.26467e-07
-1.61561e-08
4.34374e-08
3.41496e-08
-5.03057e-08
-5.91804e-08
4.08308e-08
-1.16478e-08
-8.62057e-08
7.94278e-08
1.84257e-08
-7.1605e-08
2.48679e-09
6.91182e-08
-2.10726e-08
-5.54825e-08
7.65551e-08
-1.16179e-06
-4.32125e-08
1.205e-06
-1.18365e-06
-1.11229e-07
7.52449e-08
3.59845e-08
9.05876e-16
8.37657e-09
-3.35104e-08
3.94488e-07
-3.89997e-06
-9.32748e-07
-7.86915e-07
1.71966e-06
-1.06116e-07
-9.23998e-07
9.73667e-08
8.03283e-07
-2.02074e-06
1.21745e-06
-3.70287e-06
3.05077e-07
3.79228e-06
1.36058e-07
-6.24991e-08
-7.35594e-08
5.23085e-08
2.40593e-07
1.41009e-08
1.21958e-07
1.36093e-08
-1.21917e-07
1.05246e-07
1.66713e-08
1.10696e-07
-1.03044e-07
-7.65206e-09
-3.51733e-08
-4.76889e-09
3.52429e-08
4.69927e-09
-1.1829e-08
1.3513e-08
3.6345e-09
-5.31854e-09
-6.50143e-08
5.65673e-08
-1.40037e-10
4.70696e-09
-4.56696e-09
2.24021e-07
1.01028e-07
-3.25049e-07
-3.49895e-08
4.34566e-08
6.25933e-08
-5.99694e-08
-3.86601e-08
9.44117e-08
4.68471e-07
-5.62883e-07
-4.29628e-08
-3.77033e-08
8.0666e-08
-1.88851e-09
-5.72919e-08
-6.91236e-08
8.64361e-08
-1.6993e-07
1.52618e-07
1.39379e-08
-6.84928e-08
5.4555e-08
2.50163e-08
4.75959e-07
1.48904e-08
-1.65355e-08
-9.19669e-08
-9.56145e-10
-1.55573e-06
1.55668e-06
-1.17526e-07
5.50139e-08
6.25121e-08
-3.91325e-08
4.60249e-08
-4.57049e-08
5.10781e-08
-5.31819e-08
3.53396e-08
-2.08881e-08
6.49551e-08
2.73069e-08
-7.1374e-08
2.58848e-08
-4.67729e-08
2.07052e-08
3.10091e-08
-5.17144e-08
-2.94159e-08
2.92468e-08
3.8315e-09
-3.66246e-09
2.4697e-09
-3.06585e-10
2.83575e-06
-1.64632e-06
-1.18942e-06
-4.13702e-08
1.09137e-07
7.12527e-08
-1.8039e-07
1.63225e-08
-1.10735e-07
9.44124e-08
-9.9828e-08
9.60343e-08
3.79379e-09
3.06934e-09
-8.85429e-08
2.32023e-07
-2.8855e-07
3.08133e-07
-2.51605e-07
4.71515e-07
-2.39493e-07
-8.10857e-07
2.69592e-08
-3.04208e-07
1.27084e-07
3.31731e-07
-1.54607e-07
1.67307e-07
-9.81718e-08
8.51419e-08
-5.92467e-08
-1.49776e-07
2.09023e-07
-2.49024e-10
7.78916e-08
-7.76426e-08
9.20775e-08
-9.51383e-08
-7.06222e-08
6.85913e-08
-7.96087e-09
9.99174e-09
1.59139e-08
1.34151e-06
3.09516e-06
-2.84312e-06
1.62858e-07
-4.14894e-07
7.26942e-09
-2.13238e-06
2.16043e-06
-4.69981e-07
1.15832e-07
-8.30995e-08
4.37248e-07
-1.89018e-06
1.85265e-06
-1.83459e-06
-9.93462e-08
5.63347e-08
4.30116e-08
1.9852e-06
2.24017e-06
3.5098e-08
2.24232e-10
-3.52072e-08
-1.15111e-10
-3.37203e-07
1.14607e-06
-1.46685e-06
6.57988e-07
4.44567e-08
-4.64124e-07
3.54762e-07
6.49049e-08
1.23434e-07
1.37264e-07
-9.65759e-07
2.0416e-08
9.95258e-07
-3.19853e-10
-1.1164e-08
1.14839e-08
-3.29807e-08
6.34756e-10
3.28443e-08
-3.28314e-08
-4.47539e-12
-1.4479e-10
2.17844e-06
-2.27763e-06
9.91883e-08
-1.61243e-10
-2.69308e-08
-6.54854e-08
9.24162e-08
7.78627e-08
-5.92712e-08
-1.85915e-08
3.14794e-09
1.47828e-09
-4.62622e-09
-2.45076e-06
2.4514e-06
-6.45675e-10
2.62509e-08
7.88998e-08
-2.72879e-08
1.22599e-09
-1.226e-09
1.64232e-08
-7.56944e-08
2.94398e-11
1.19654e-09
-1.02516e-07
-1.94015e-08
-2.01375e-08
4.62332e-08
-7.3799e-08
-4.49589e-08
-7.4649e-09
-6.82295e-09
-1.51749e-07
3.32775e-08
1.0727e-08
-9.81164e-09
-8.85964e-10
-7.69517e-11
7.69521e-11
2.06487e-08
-1.70557e-07
2.19209e-07
2.1278e-09
-2.68268e-09
6.2088e-08
9.02412e-09
-4.1757e-10
-8.60658e-09
6.45662e-07
-1.21944e-06
-5.20009e-07
1.09379e-06
3.07402e-07
-3.88897e-07
2.35257e-10
2.74163e-09
-1.57233e-08
-8.0473e-08
6.22161e-09
8.02984e-08
-6.047e-09
-3.2858e-08
-3.02812e-08
4.96046e-08
-4.85213e-08
-1.18609e-07
-8.57617e-08
6.01944e-08
2.55673e-08
-4.46312e-08
4.42522e-08
8.30872e-10
-3.79487e-07
-4.76797e-07
6.38673e-07
-6.08408e-07
-3.02651e-08
-8.21851e-08
2.361e-08
3.87595e-07
-4.58359e-07
7.07636e-08
2.17065e-08
-6.94938e-07
6.73231e-07
-9.95769e-07
3.00092e-08
5.70181e-07
-7.15846e-07
-3.30067e-07
4.26685e-09
-1.46702e-08
1.04034e-08
2.02991e-08
-9.21277e-08
7.18287e-08
1.4939e-07
-7.46172e-08
2.24907e-07
-2.91406e-07
6.64994e-08
-9.61025e-09
1.17775e-08
-9.61063e-09
-1.18654e-08
-9.68255e-09
5.26992e-09
2.42112e-10
3.61014e-10
-3.52634e-08
3.3861e-08
-1.08177e-08
-1.8609e-08
4.28712e-08
5.63152e-08
-6.23568e-08
6.04155e-09
-2.20463e-06
2.24908e-06
8.15599e-08
-3.39443e-08
-4.76156e-08
-1.16651e-07
8.55149e-08
-8.00933e-08
-3.37895e-08
-2.0299e-06
-2.13181e-07
2.26757e-07
-1.35753e-08
-1.31402e-06
-5.83638e-08
1.37238e-06
-2.65908e-07
-1.87175e-07
2.39901e-07
7.07641e-09
7.13115e-10
-2.51961e-09
-1.47815e-06
1.47974e-06
2.28828e-07
-1.65528e-06
1.6768e-06
-2.15279e-08
-8.8938e-08
8.97335e-08
-1.48076e-08
1.40122e-08
5.58949e-08
-1.69566e-07
1.13671e-07
8.00238e-08
1.08767e-07
-5.37527e-08
-5.60158e-08
2.96535e-08
-3.01842e-08
5.65465e-08
7.78232e-08
-1.25735e-07
4.79121e-08
4.16953e-10
-3.62406e-08
3.60835e-08
9.74932e-08
-9.04872e-08
-7.00603e-09
-1.91835e-07
1.77684e-07
1.10334e-07
-1.92905e-08
1.98163e-08
9.69675e-08
-9.68037e-08
6.31652e-09
1.42424e-08
-1.38412e-08
-7.85281e-08
7.70098e-08
-1.21195e-07
1.01905e-07
-5.49741e-08
5.3128e-08
2.21452e-08
2.20027e-08
-3.49831e-08
6.76167e-08
-3.26336e-08
1.75766e-06
-1.89368e-06
1.34274e-06
3.02717e-07
3.40662e-07
-6.43378e-07
-1.21287e-07
-6.91451e-09
-4.22612e-08
-7.90253e-08
4.41283e-08
-4.24531e-08
1.30385e-08
-1.47138e-08
-2.92503e-07
2.83528e-06
-3.44583e-06
9.03049e-07
-7.45938e-07
-6.49182e-08
7.01367e-08
2.39642e-08
-6.29118e-07
6.50011e-09
6.05712e-08
-6.70713e-08
-1.14149e-07
9.07225e-08
-1.04766e-07
3.23471e-08
7.24185e-08
6.52087e-08
-1.41805e-06
1.35284e-06
4.81301e-09
-5.71232e-08
1.40932e-07
-1.73464e-07
3.25319e-08
3.52326e-08
1.08909e-07
-1.44141e-07
-5.75107e-08
1.89335e-09
-8.22131e-08
8.03197e-08
-1.90609e-07
1.56861e-07
-1.16029e-07
-1.09374e-06
2.70441e-06
-1.61067e-06
-1.82993e-07
-7.0101e-07
8.84003e-07
-1.83407e-07
2.20303e-07
-2.76389e-07
6.62235e-08
-2.20952e-08
9.2667e-08
-9.78055e-08
5.13849e-09
-2.0893e-07
2.77078e-07
-6.81477e-08
-5.52643e-08
1.53636e-08
3.99006e-08
2.14422e-08
-5.38537e-08
-2.28528e-08
-6.5847e-07
1.23016e-07
8.83653e-08
4.47089e-07
-2.04623e-07
1.93897e-07
-2.46587e-07
2.29086e-07
-4.33709e-07
-3.21762e-07
5.15658e-07
8.88169e-09
1.54804e-09
5.5706e-10
-2.56657e-07
1.63982e-07
1.0095e-07
-1.27967e-07
2.70175e-08
-1.48203e-08
4.52611e-10
1.50702e-08
-7.02537e-10
5.78028e-08
-3.63606e-08
-8.06446e-07
1.93093e-08
-8.28136e-10
7.26926e-10
1.01213e-10
-1.17616e-06
1.16944e-06
5.36713e-10
-5.19322e-09
5.47512e-09
1.4993e-08
5.81734e-08
-1.38937e-09
-1.68114e-10
1.55748e-09
-7.17972e-08
1.64695e-08
-8.21625e-08
1.37493e-07
-5.53303e-08
-3.54668e-07
-3.14775e-08
3.86146e-07
-1.08865e-06
1.1315e-06
-2.04311e-09
-1.34066e-08
-3.61861e-08
4.95927e-08
3.92256e-07
-3.85126e-07
-7.13029e-09
-1.19847e-10
7.995e-09
-6.60424e-07
1.12091e-06
5.85519e-07
2.44921e-08
-1.10523e-07
8.60307e-08
7.06542e-08
-1.3624e-08
-5.70301e-08
5.0751e-08
-1.74893e-07
1.72731e-07
-4.85896e-08
-7.3813e-09
9.69041e-10
-7.26926e-10
-2.55897e-09
1.73276e-10
2.57836e-06
-1.26516e-06
1.01434e-06
-1.09765e-06
-1.13027e-06
1.21357e-06
1.00614e-06
1.71288e-06
-2.71902e-06
4.80595e-08
4.1533e-08
-3.56438e-08
2.8136e-07
-4.64767e-07
-1.97706e-06
5.78606e-07
1.65533e-06
-2.56877e-07
-2.63207e-06
1.15186e-06
1.48021e-06
3.02702e-07
-7.51971e-07
4.49269e-07
-2.81548e-07
5.8425e-07
9.65519e-08
3.41294e-09
-9.99648e-08
6.52309e-09
-2.05219e-09
9.2081e-08
1.21507e-07
9.64167e-09
-1.27736e-07
3.53829e-08
-5.68097e-08
9.96183e-07
8.17733e-07
1.2803e-07
9.34689e-09
-9.34691e-09
-1.31397e-07
-1.11017e-07
2.42414e-07
6.47203e-08
8.43761e-09
-7.31579e-08
1.03981e-08
1.8537e-07
-1.79629e-06
2.83036e-07
1.51325e-06
-1.77344e-07
1.00736e-07
1.10609e-07
-1.25839e-07
1.25596e-07
7.41018e-08
-7.38592e-08
3.46729e-08
4.95685e-08
-4.62829e-08
7.86214e-09
-3.54724e-09
4.21251e-10
-2.97203e-09
7.36313e-08
-1.62879e-08
-1.05852e-07
-1.15537e-08
1.17406e-07
-9.68646e-11
-1.38859e-08
3.61763e-08
-5.19322e-09
-1.12711e-08
2.87181e-10
1.09838e-08
8.57766e-08
6.36138e-08
-7.57082e-08
-3.76436e-08
7.47985e-08
3.85533e-08
-7.64488e-08
9.26863e-08
7.39216e-09
-8.65694e-08
8.74632e-08
-8.28588e-09
-2.33246e-09
2.33245e-09
4.17034e-07
-5.98259e-07
1.81225e-07
3.06294e-08
2.04487e-08
-6.25815e-07
6.68338e-07
-2.46971e-06
2.30667e-06
-1.93772e-06
2.10076e-06
1.13118e-06
-1.26306e-07
3.6818e-07
1.03828e-07
-3.45702e-07
8.12276e-08
1.45781e-08
-3.24625e-08
3.30373e-08
1.00375e-07
-4.12169e-08
1.1493e-07
-1.21985e-07
8.80015e-08
3.39832e-08
-4.05222e-08
-1.22679e-07
1.08809e-07
-2.63161e-09
-9.77415e-09
9.10018e-08
-1.08008e-07
8.04338e-09
-1.00477e-07
2.81219e-09
9.76649e-08
8.46973e-08
2.35164e-08
-1.08214e-07
5.08178e-08
8.46229e-09
4.92765e-09
-1.01006e-07
-4.43662e-09
-6.58108e-08
6.54091e-08
-8.78825e-08
8.82844e-08
-7.1572e-08
1.20137e-07
-4.85656e-08
-1.24641e-07
-2.33219e-06
2.67868e-06
-2.21849e-07
-7.78974e-08
1.45153e-09
7.64458e-08
2.29102e-07
-2.60462e-06
2.44073e-06
-6.27301e-08
-3.64014e-06
-6.72437e-09
4.81965e-08
-4.51833e-08
-3.81332e-08
3.6942e-08
4.36861e-10
7.54293e-10
-3.32759e-06
8.26814e-07
-3.95889e-07
1.20404e-08
-1.16235e-08
-6.50964e-08
-1.06395e-08
4.60224e-08
9.34647e-08
-4.27137e-08
3.76968e-09
2.77554e-08
-6.41415e-09
-4.53016e-07
3.07371e-07
-1.85186e-08
7.88193e-08
-6.03006e-08
-7.03282e-08
2.351e-08
1.3772e-08
-7.05817e-08
2.48175e-07
8.43142e-08
-1.23466e-07
2.66644e-08
-5.73014e-08
5.80942e-08
-2.74571e-08
2.81937e-08
-3.20856e-08
3.89189e-09
2.74156e-08
-2.17468e-08
-5.66878e-09
2.07939e-06
3.23805e-08
-2.08436e-06
-8.86787e-08
1.1896e-08
7.67827e-08
-1.11221e-06
2.35561e-08
-1.39945e-07
-1.7696e-06
1.90954e-06
-1.0133e-07
-1.38157e-07
1.30436e-07
1.09052e-07
4.07939e-08
-5.24417e-08
5.69817e-09
-5.18514e-08
4.61532e-08
1.56165e-08
8.80576e-08
6.11241e-08
5.05556e-08
3.93633e-08
-8.99189e-08
3.10182e-08
4.26452e-08
-7.36633e-08
-8.18393e-08
1.00799e-07
-1.89597e-08
2.44955e-08
1.03205e-07
-1.05261e-07
1.66338e-08
-7.66266e-07
3.03622e-06
-2.26996e-06
-1.35048e-07
-2.73231e-08
1.33343e-07
-4.70462e-08
-1.98565e-07
2.21744e-07
-2.31792e-08
1.67751e-07
-1.53959e-07
-1.30316e-07
1.16524e-07
7.20349e-08
2.06798e-07
-2.22645e-07
-5.61875e-08
2.07719e-07
-1.06699e-07
7.93755e-08
4.12025e-07
-4.25198e-07
-2.59257e-08
6.27622e-09
-4.41777e-08
-1.09567e-07
3.18324e-09
2.50105e-08
-1.52128e-06
-1.96441e-06
1.6894e-06
-8.5402e-08
-1.33551e-08
9.87571e-08
3.4618e-07
-2.85911e-07
2.05094e-08
6.14843e-10
-2.04101e-08
-3.22139e-10
2.02806e-10
2.05294e-08
2.57904e-07
2.39153e-07
-2.81736e-07
-2.15321e-07
-2.66203e-06
6.35426e-07
2.0266e-06
-3.42958e-09
-2.45589e-10
3.67512e-09
2.72308e-10
6.53877e-10
-1.08237e-09
1.56118e-10
-3.15728e-09
2.67227e-09
-2.26402e-09
1.02009e-07
-8.93436e-08
-1.26658e-08
1.06919e-08
1.07939e-07
-1.18631e-07
-1.6095e-08
2.07776e-10
1.00846e-07
-6.59895e-08
-1.00481e-07
6.07431e-08
3.97375e-08
-9.14304e-08
2.56196e-08
-2.32357e-08
-6.297e-08
3.37524e-07
1.1312e-07
-1.19293e-07
6.90216e-08
-6.28486e-08
7.97383e-08
-9.09423e-08
1.12041e-08
-7.12142e-08
9.74651e-08
4.0573e-08
-7.39214e-08
3.33485e-08
5.77858e-08
-6.04694e-08
2.71757e-08
-9.82315e-08
4.98877e-09
-1.4793e-08
7.60566e-08
-6.12635e-08
4.42563e-08
1.04439e-07
-1.61465e-08
-1.32549e-07
4.03977e-07
1.26389e-06
-1.66786e-06
3.24984e-07
1.87592e-07
8.3588e-08
-3.52531e-07
2.68943e-07
1.18162e-08
-9.85073e-08
-1.15404e-08
7.25978e-08
-1.1075e-07
1.06085e-07
4.66487e-09
-1.33126e-06
1.39631e-06
-1.39631e-06
-8.88809e-07
3.08667e-08
2.57512e-06
-5.02165e-08
6.5055e-08
1.50789e-07
5.52657e-08
-2.06055e-07
-1.10606e-07
4.84406e-09