/*--------------------------------*- C++ -*----------------------------------*\
| =========                 |                                                 |
| \\      /  F ield         | OpenFOAM: The Open Source CFD Toolbox           |
|  \\    /   O peration     | Version:  v2006                                 |
|   \\  /    A nd           | Website:  www.openfoam.com                      |
|    \\/     M anipulation  |                                                 |
\*---------------------------------------------------------------------------*/
FoamFile
{
    version     2.0;
    format      ascii;
    class       surfaceScalarField;
    location    "0.02";
    object      phi;
}
// * * * * * * * * * * * * * * * * * * * * * * * * * * * * * * * * * * * * * //

dimensions      [0 3 -1 0 0 0 0];
oriented        oriented;


internalField   nonuniform List<scalar> 
5866
(
1.88587e-06
-2.69113e-08
-1.85895e-06
-7.18109e-08
7.31274e-08
-2.71306e-08
2.58141e-08
-1.14391e-07
2.37993e-09
1.12011e-07
3.15893e-09
-2.9591e-09
-1.99819e-10
1.38139e-06
-7.17345e-07
-6.64047e-07
-1.4423e-07
2.54199e-07
-1.0997e-07
-7.41324e-08
4.45363e-08
2.95961e-08
5.08421e-08
-3.1825e-08
-1.90171e-08
1.11193e-07
-1.11212e-07
7.76033e-10
-7.56739e-10
9.22145e-08
-8.68489e-08
-5.36553e-09
1.81751e-08
-6.3483e-08
-1.62814e-08
6.15891e-08
-1.67951e-06
-2.20005e-08
1.67808e-06
2.34277e-08
-1.27186e-06
-6.27072e-09
1.27813e-06
-1.25096e-06
-2.08997e-08
-2.29559e-07
2.24806e-07
4.75304e-09
-3.16064e-07
-6.67719e-08
6.04866e-08
2.69301e-08
-2.68876e-08
-6.0529e-08
-3.39367e-06
2.14395e-06
1.24972e-06
-4.22621e-09
-1.09549e-07
1.01611e-07
9.42593e-07
-6.55432e-07
2.09798e-06
-2.38514e-06
-4.75554e-07
1.5181e-07
3.23744e-07
9.19317e-07
-2.57733e-06
1.65801e-06
9.4676e-09
2.73324e-09
-1.22008e-08
-3.6636e-08
4.89821e-08
-1.23461e-08
-3.08034e-08
4.82905e-09
-6.54364e-09
3.2518e-08
-3.35971e-08
-1.48354e-08
1.17965e-08
7.61236e-08
-2.7263e-07
1.96507e-07
1.00563e-06
-9.18228e-07
-8.74066e-08
-4.36273e-07
5.2583e-07
2.43507e-07
-3.33064e-07
6.14993e-09
-4.00365e-11
-6.10988e-09
-5.21366e-09
5.21366e-09
-3.06264e-10
1.53469e-08
-1.50407e-08
-2.20212e-08
2.60915e-10
-3.73703e-10
2.2134e-08
-1.33982e-09
1.79458e-09
-4.54765e-10
7.41168e-08
9.4105e-09
-8.35273e-08
-5.05208e-08
7.285e-08
-2.23292e-08
-1.80856e-10
-3.62357e-10
5.43227e-10
-2.05911e-08
2.06133e-08
-2.0165e-11
-2.09679e-12
-1.32821e-08
-5.20571e-08
1.56659e-08
4.96734e-08
-4.95442e-07
-3.09264e-08
5.26368e-07
4.27282e-10
-1.0952e-09
4.29224e-08
-4.22544e-08
3.24628e-08
-6.95296e-08
4.43788e-08
4.76275e-07
-5.20654e-07
1.36896e-07
-2.11835e-07
7.49386e-08
-1.5383e-07
9.50103e-08
5.88199e-08
2.87466e-07
-2.81811e-07
3.8724e-08
-8.12169e-08
-5.31161e-08
1.34333e-07
-2.03367e-08
1.72917e-10
-3.20744e-08
3.1954e-07
-5.12409e-08
4.51509e-08
-8.25455e-09
-3.87116e-08
1.81531e-09
-2.00529e-08
-5.02572e-08
7.03101e-08
5.56773e-09
-5.56772e-09
-9.05123e-08
-2.52581e-10
9.01535e-08
6.11427e-10
-1.2706e-08
3.68043e-10
-3.74654e-11
1.23754e-08
2.15585e-07
-1.67244e-06
1.59091e-06
-1.34049e-07
-1.64541e-08
9.595e-08
1.5382e-08
-9.48779e-08
2.06537e-08
7.63158e-07
-7.83811e-07
1.26166e-07
-9.95816e-08
-2.65845e-08
1.11012e-07
1.51537e-08
1.53056e-06
-1.53056e-06
1.72967e-06
-1.69767e-06
-3.20066e-08
2.11763e-06
9.47579e-08
-2.21239e-06
-5.37698e-09
5.37699e-09
2.39646e-07
-2.62408e-07
2.27624e-08
-3.01585e-08
-1.6818e-06
1.71196e-06
9.45453e-09
-4.30516e-08
-1.2967e-07
8.82801e-08
4.13898e-08
-4.95014e-10
-6.35012e-08
6.39962e-08
-9.48202e-08
7.97124e-09
8.68489e-08
-2.03471e-06
1.87495e-08
2.01596e-06
-1.15504e-07
4.3865e-08
7.16387e-08
1.23018e-07
8.56576e-08
-8.23721e-08
-1.26303e-07
-1.22249e-07
3.1737e-08
1.99138e-08
-9.39065e-08
7.39927e-08
2.20042e-08
-4.44079e-08
2.24037e-08
4.53431e-08
-3.72838e-08
-3.82178e-08
1.01956e-07
-1.02066e-07
1.86872e-09
-1.75853e-09
9.27039e-08
-7.0663e-08
-2.2041e-08
2.44821e-08
2.08611e-08
1.19717e-07
-6.43517e-09
1.20898e-08
-1.25372e-07
-1.76463e-09
2.06578e-06
2.08059e-08
-2.08482e-06
2.0156e-06
1.88724e-08
-2.03447e-06
1.04142e-08
-1.74829e-07
1.76853e-07
-1.24382e-08
-7.79084e-08
-3.59783e-08
1.13887e-07
1.2481e-08
1.62866e-10
-1.27024e-08
5.85747e-11
2.0906e-07
-1.97497e-07
-1.15638e-08
1.71561e-08
1.01419e-07
-4.24519e-08
-1.19618e-07
1.95034e-09
1.14411e-07
3.25596e-09
2.98883e-08
-2.98883e-08
1.15963e-07
6.80247e-10
-1.0623e-07
4.32001e-08
-5.27794e-10
-4.26723e-08
2.47605e-06
-2.37228e-06
-9.92222e-08
-4.54611e-09
-1.83781e-08
3.25223e-09
1.51259e-08
1.21233e-07
-1.40005e-07
1.7255e-07
-1.53777e-07
1.81413e-08
-2.70517e-08
-1.58712e-07
1.80506e-07
-2.17935e-08
-2.13165e-08
2.13165e-08
-8.90112e-08
2.69772e-06
2.76e-07
-2.88471e-06
6.40167e-08
4.65481e-09
-6.3268e-08
-5.40356e-09
-2.04714e-10
-5.55987e-10
-4.75554e-07
8.46632e-07
-7.31317e-07
-1.55953e-07
4.06386e-08
4.38766e-08
-3.98456e-08
-4.03101e-09
-7.50843e-07
2.4413e-07
-1.04619e-06
1.5529e-06
-1.17396e-08
-2.55509e-08
3.72905e-08
4.46563e-10
5.12751e-08
-5.17216e-08
2.9159e-08
-4.24991e-08
1.33401e-08
9.99703e-07
-9.66766e-07
-3.29351e-08
1.20621e-08
2.10621e-09
-1.41683e-08
1.49591e-09
-2.88835e-09
-3.54082e-08
3.68007e-08
7.17855e-09
1.07474e-07
-1.07199e-07
-7.45368e-09
-3.6957e-11
-7.49539e-08
7.49908e-08
-1.26037e-07
1.35776e-07
-9.73976e-09
7.48483e-09
7.77816e-08
-8.52664e-08
-8.10188e-08
-1.42752e-08
9.5294e-08
7.97639e-08
-5.56331e-08
-2.41307e-08
-3.19621e-11
1.28829e-08
2.84105e-10
-1.3135e-08
3.34082e-08
-3.75955e-08
-6.98681e-08
7.40555e-08
5.92953e-09
-5.92953e-09
-3.82571e-08
-2.72977e-08
6.55548e-08
3.78316e-08
1.42418e-07
-3.04268e-08
-1.49823e-07
8.80529e-09
5.88277e-10
1.0292e-09
-1.04228e-08
-4.14411e-09
4.20963e-09
-6.55201e-11
6.13929e-09
1.80047e-06
-1.8066e-06
-8.40654e-07
2.15876e-08
8.19066e-07
3.85277e-09
-8.38367e-07
1.40997e-06
-1.38838e-06
-3.79409e-08
-5.69974e-08
9.49383e-08
1.41382e-06
8.81591e-08
-8.77148e-08
-1.21936e-09
7.75076e-10
-1.79872e-08
-5.54177e-08
7.34048e-08
1.48147e-06
-2.20994e-09
-1.47926e-06
-8.40938e-09
8.40938e-09
1.0485e-06
7.31755e-07
-1.78025e-06
5.04888e-07
2.22993e-08
-3.56782e-08
-4.91509e-07
-1.56698e-08
5.20558e-07
1.99385e-06
2.88456e-08
-2.02269e-06
9.33563e-07
1.43762e-06
-1.6363e-06
-7.34887e-07
-1.89288e-06
5.71014e-07
1.32187e-06
-5.22766e-08
-1.36145e-07
1.70435e-07
-3.22637e-07
2.31648e-06
1.04547e-07
-2.547e-08
1.65978e-08
-9.56748e-08
7.85673e-09
7.4911e-08
-8.27677e-08
-2.78837e-06
2.90205e-06
-4.36319e-07
1.19397e-07
8.35108e-08
-9.28129e-08
-1.10095e-07
-1.21085e-06
2.32121e-06
-1.11036e-06
-2.09745e-09
2.27217e-09
-1.74717e-10
-1.75422e-09
-7.42887e-08
7.60429e-08
2.57418e-10
-1.20571e-08
1.32956e-08
2.35542e-06
-1.46486e-06
-8.90563e-07
5.72258e-08
-9.80564e-09
-4.74201e-08
-1.84025e-06
1.12246e-07
1.728e-06
1.55605e-06
-1.87406e-06
3.18006e-07
1.54256e-08
-8.99922e-08
-1.56742e-08
9.02408e-08
-5.21088e-08
-9.39238e-09
6.15012e-08
-6.63298e-08
6.1114e-08
5.21581e-09
-1.30035e-08
-8.37476e-08
1.46868e-08
8.20644e-08
-1.22321e-07
1.30311e-07
-7.99078e-09
-1.27891e-06
7.37181e-08
1.20519e-06
5.57104e-10
8.60147e-08
-8.65718e-08
-7.45982e-08
7.6015e-08
-1.4168e-09
1.87725e-06
2.9757e-08
-2.11376e-08
-5.68057e-10
-1.04785e-07
1.21946e-09
1.04133e-07
3.15796e-09
-3.39613e-08
-5.16588e-10
1.96257e-08
1.78047e-10
-1.92872e-08
1.63674e-08
-1.57765e-08
2.56708e-09
-2.30262e-08
-1.35029e-09
2.43765e-08
-1.70386e-10
-7.55966e-08
7.5767e-08
-4.48682e-08
6.54659e-08
-6.99295e-08
4.93318e-08
-1.07324e-08
-2.32289e-08
-9.95829e-08
1.09886e-07
-1.03028e-08
-1.71113e-07
1.3642e-07
3.46928e-08
9.09822e-08
7.15305e-10
-4.4405e-10
-9.12535e-08
8.83145e-09
-8.76362e-09
-8.46936e-08
8.46257e-08
5.95112e-08
2.23655e-08
-8.18766e-08
-1.71321e-07
-4.71482e-08
4.73563e-08
-8.58852e-08
-7.43479e-09
9.332e-08
7.41546e-08
-7.20778e-08
2.74791e-08
-2.95559e-08
2.8572e-10
-1.07189e-09
-8.02327e-08
-1.05021e-07
-6.62994e-08
-4.35425e-10
-1.03677e-07
1.02981e-07
1.13151e-09
-8.63329e-08
-3.55455e-10
8.62094e-08
4.78849e-10
9.10643e-08
-3.22191e-08
-5.88452e-08
9.1119e-08
4.90747e-09
-9.60264e-08
-6.16703e-09
6.45618e-09
-2.89146e-10
-2.74746e-10
9.3898e-11
-1.90458e-06
-1.14652e-06
-1.23049e-06
2.51281e-06
-1.28232e-06
8.50286e-08
-8.41052e-08
-9.23366e-10
8.26084e-08
-3.00916e-08
3.41948e-08
-8.67116e-08
7.56826e-07
-7.56826e-07
3.8991e-07
-3.8991e-07
-5.82087e-10
2.19327e-09
-1.61117e-09
1.61466e-06
-9.40229e-07
-6.74435e-07
-4.90917e-09
1.17668e-06
-1.17177e-06
-5.58764e-08
4.69312e-08
-3.63953e-08
4.53406e-08
9.43128e-08
3.23109e-09
-9.7544e-08
4.32238e-08
-1.62165e-08
-4.46844e-08
1.76771e-08
-9.69296e-08
-2.21531e-08
9.46382e-08
2.44445e-08
8.29655e-08
1.81338e-08
-1.01099e-07
9.20918e-08
-8.20758e-08
-1.0016e-08
3.76774e-08
2.6947e-08
-2.67029e-08
-3.79216e-08
-1.22441e-08
1.37297e-08
1.12227e-07
-1.13712e-07
2.00049e-06
-2.00589e-06
5.39063e-09
2.93838e-07
-6.44521e-07
3.50683e-07
-3.26661e-07
-3.68468e-08
3.63507e-07
2.75001e-08
-3.5409e-07
3.2659e-07
-2.00441e-06
2.25896e-06
1.7804e-06
-2.03495e-06
-1.90361e-08
-1.12915e-06
1.14819e-06
3.00203e-07
-3.00697e-07
-3.48593e-08
3.53535e-08
1.46259e-06
3.36714e-07
-4.59113e-07
-1.34019e-06
2.30675e-07
1.23191e-06
-7.37648e-08
7.37648e-08
-3.08102e-06
1.07661e-06
1.8648e-07
2.95648e-08
-2.16044e-07
-1.00797e-07
1.02244e-07
6.87934e-08
-7.02396e-08
-5.09489e-08
5.91032e-08
-8.1543e-09
-1.14844e-06
7.71985e-07
1.92104e-09
9.76475e-08
-9.95686e-08
-9.32532e-08
1.12993e-08
-1.19263e-08
9.38803e-08
9.66846e-08
2.12974e-08
-1.17982e-07
8.53772e-08
2.58159e-08
-9.06694e-08
9.04169e-08
-8.52432e-08
-3.70061e-08
9.01279e-09
-8.24226e-08
7.34098e-08
-3.55257e-10
6.69182e-09
-6.33656e-09
-2.69117e-06
-1.63995e-07
2.85516e-06
1.88169e-08
-1.88169e-08
1.02847e-06
1.6739e-06
1.43471e-06
-1.49395e-06
8.60334e-08
-1.00034e-07
1.40002e-08
-1.7272e-06
1.31015e-06
1.48279e-06
-1.06574e-06
9.40909e-09
-7.92008e-08
1.57717e-07
-8.79253e-08
-1.46881e-07
1.26537e-07
2.03439e-08
6.54926e-08
-8.54711e-08
1.99786e-08
-6.77651e-09
7.14532e-08
-6.46767e-08
1.15257e-08
-1.51117e-08
2.48707e-08
-2.12846e-08
-7.33094e-08
6.97382e-08
3.57118e-09
-3.03377e-06
1.81067e-06
-5.04104e-07
9.81606e-08
-4.65774e-09
-9.84413e-08
4.93839e-09
-9.3291e-08
9.21584e-09
8.40752e-08
-8.0916e-08
8.17201e-08
6.68069e-09
-1.04658e-08
-1.00419e-07
1.10885e-07
-1.71401e-07
-2.77281e-08
1.99129e-07
-1.90785e-09
2.3475e-09
-4.39647e-10
7.81919e-08
-6.26317e-08
-1.55602e-08
-5.04974e-08
-5.4808e-07
5.98577e-07
9.00969e-08
-9.3427e-09
-8.96434e-08
8.88914e-09
-7.67635e-07
-9.41335e-08
8.11271e-07
-4.368e-07
-3.30835e-07
-1.03516e-08
5.88754e-08
8.70199e-09
-7.96627e-08
6.93111e-08
1.28863e-08
-7.49946e-08
6.21083e-08
-7.58932e-08
1.29508e-09
4.10786e-07
-6.84064e-07
2.55982e-08
-2.55982e-08
1.16817e-10
-2.14333e-08
1.42968e-08
-7.17288e-08
7.18e-08
-1.4368e-08
-2.24196e-08
2.24196e-08
5.22278e-10
-2.15451e-08
-3.02166e-10
2.1325e-08
-6.28545e-07
6.28545e-07
3.42912e-08
-4.42887e-08
3.93381e-08
-2.93405e-08
-1.42161e-08
9.98976e-09
1.20945e-08
6.71756e-08
-7.92701e-08
-1.91842e-08
-8.1679e-08
1.00863e-07
-7.46374e-09
5.78413e-08
7.47007e-09
-5.78477e-08
-8.57853e-08
2.52277e-08
6.05577e-08
-3.75199e-08
2.02443e-09
-3.32572e-09
3.88212e-08
-1.4831e-07
1.70502e-07
-2.35554e-07
2.13362e-07
1.00653e-07
-3.30212e-07
-1.90722e-07
1.8125e-07
6.831e-08
-5.88386e-08
1.60808e-07
2.93849e-08
-1.90193e-07
-4.82092e-08
1.17731e-07
-6.95218e-08
6.20747e-09
-5.67387e-08
5.05312e-08
8.62049e-08
-6.03802e-09
-8.69434e-08
2.27522e-08
7.45187e-09
6.10572e-09
8.24979e-08
-8.86036e-08
-1.64837e-06
1.36099e-08
1.63476e-06
1.40065e-08
3.68356e-08
4.13572e-08
-4.02497e-08
8.69759e-08
-8.80833e-08
-1.05441e-07
1.09568e-07
-4.12759e-09
1.638e-06
-2.21384e-06
5.7584e-07
4.63182e-10
-1.07261e-07
1.06798e-07
6.98361e-09
8.01397e-08
-8.71233e-08
2.13431e-08
1.36406e-07
-9.67815e-08
-1.08481e-07
6.88572e-08
-1.92492e-07
-6.79635e-08
2.12704e-07
4.77507e-08
8.72038e-08
-8.77711e-08
5.08559e-09
-4.51825e-09
1.92584e-09
8.02517e-08
-8.21775e-08
5.69783e-08
-1.37545e-08
-2.08145e-07
1.56535e-08
1.52818e-07
-2.97242e-07
1.44423e-07
-4.58775e-08
-2.5012e-06
2.54707e-06
-7.17393e-08
-8.77113e-10
1.61111e-08
-1.5234e-08
-7.25307e-09
-3.5264e-08
9.96583e-10
4.15204e-08
-1.10545e-06
-1.20677e-09
1.10665e-06
-8.78869e-08
-6.93332e-09
-3.23315e-08
3.23315e-08
2.71142e-10
-4.21106e-08
4.13444e-08
7.64648e-08
-1.43371e-09
-7.50311e-08
7.90569e-08
1.19424e-09
-8.02511e-08
9.16961e-08
7.7869e-08
-1.69565e-07
8.87016e-09
2.6555e-09
1.70864e-07
-9.43236e-08
-7.65399e-08
4.18963e-08
1.95334e-09
-4.38496e-08
-8.48397e-08
8.42717e-08
8.46691e-08
-8.51046e-08
6.47349e-09
-5.90191e-09
3.22154e-08
1.28593e-07
-9.60144e-08
1.02103e-07
-6.08817e-09
-7.77502e-09
-9.76499e-08
9.41043e-09
9.83603e-08
-8.85219e-08
-9.83841e-09
7.11473e-08
-9.42217e-08
2.30743e-08
-2.19744e-08
-6.38109e-08
9.33406e-08
3.62757e-08
-1.29616e-07
-9.48459e-08
6.17191e-09
-8.70879e-08
3.48346e-08
-3.18201e-08
1.83465e-07
1.0645e-06
-1.05385e-06
-1.06591e-08
-1.33252e-07
1.26235e-07
1.14285e-07
-1.07268e-07
1.77012e-06
-1.76812e-06
-2.00833e-09
1.76164e-06
3.55991e-07
1.66111e-06
-2.47117e-06
8.10061e-07
-1.56372e-07
-1.60261e-08
1.72398e-07
1.97792e-06
-8.09283e-07
1.18679e-06
4.26576e-07
-2.45983e-07
-1.80593e-07
1.41064e-06
2.16342e-06
-3.57406e-06
1.18228e-07
-1.7732e-07
5.90926e-08
-3.47435e-09
-8.35034e-08
8.40066e-08
2.97111e-09
9.48339e-08
2.45632e-08
-3.60157e-08
8.80134e-08
-5.19977e-08
-7.43852e-08
1.02617e-07
6.4209e-08
-9.24403e-08
-9.41927e-08
1.00666e-07
-8.69995e-08
8.56163e-08
1.38322e-09
-1.07077e-07
1.01656e-07
5.42023e-09
7.17338e-08
-9.81174e-08
8.67392e-08
-8.55449e-08
-1.31358e-09
-4.27749e-08
6.095e-08
8.1649e-08
1.73506e-09
-8.33841e-08
4.35823e-08
-5.08889e-08
7.30655e-09
1.53197e-07
-2.43096e-07
8.98997e-08
9.97482e-08
-6.6947e-08
1.20395e-07
-1.17821e-07
4.64541e-07
-3.46719e-07
-4.07418e-07
-2.04935e-08
3.1009e-07
3.78387e-07
-2.3167e-07
-1.46717e-07
-1.50557e-06
1.52622e-06
-2.92729e-08
5.48246e-08
-2.55517e-08
6.31101e-09
8.59006e-09
-6.03089e-09
5.86155e-09
-7.67385e-09
4.25498e-09
-2.44265e-09
-2.7466e-08
2.21648e-08
3.03397e-08
-2.50384e-08
-1.88655e-08
-8.50798e-08
1.03945e-07
1.3911e-08
-2.30034e-08
4.63621e-08
-3.72697e-08
-3.7291e-08
5.12019e-08
-4.38909e-08
-1.15431e-08
1.8143e-08
-8.64249e-09
1.4504e-08
1.55318e-06
1.7279e-06
-3.28108e-06
-1.98051e-06
-1.47443e-06
1.91122e-06
1.54372e-06
-4.03015e-08
-3.9987e-08
5.34808e-08
2.68078e-08
-4.19753e-07
1.26639e-06
-6.27954e-08
7.6466e-09
5.51488e-08
-1.47588e-06
-1.37922e-06
2.85511e-06
-5.78088e-08
-4.98659e-09
-8.83407e-08
1.26172e-07
-7.11282e-08
-9.10631e-09
-5.6507e-09
-5.54534e-08
1.32263e-07
-7.68097e-08
1.70599e-09
-9.18642e-08
9.01582e-08
-4.85708e-08
1.35944e-07
-1.42826e-07
-1.36911e-07
1.25039e-06
-1.1731e-06
1.60015e-09
1.172e-08
-4.51479e-09
-1.04268e-09
-4.38611e-08
4.43872e-08
-2.35677e-06
-1.45303e-06
1.54016e-06
2.26964e-06
7.09839e-07
1.07345e-06
-1.78329e-06
8.61162e-08
-2.88381e-07
-1.45366e-06
1.74204e-06
9.5992e-08
-3.82923e-08
-5.76996e-08
-7.96456e-08
9.33753e-08
-1.26735e-07
2.98053e-08
5.04557e-08
-5.14984e-08
1.96009e-08
-1.97175e-08
-7.13257e-08
7.14424e-08
7.4477e-08
1.28804e-09
-7.5765e-08
1.07398e-07
-8.70891e-08
9.76988e-08
-1.18007e-07
8.5769e-08
-5.39577e-10
-8.52294e-08
4.92927e-08
-4.94771e-08
5.90865e-09
-5.72425e-09
1.02683e-07
1.5092e-08
-1.17775e-07
2.21262e-10
-8.7241e-11
8.85263e-08
-8.8305e-08
-3.76326e-08
8.91528e-08
-3.62992e-09
1.06969e-07
-1.03339e-07
-1.4225e-07
-7.07528e-08
2.13003e-07
9.26477e-08
-6.89476e-08
-2.37001e-08
1.26453e-07
-1.247e-07
2.78112e-08
1.71903e-08
-8.23012e-08
6.5111e-08
-1.28381e-10
9.11416e-08
2.78747e-10
-9.1292e-08
5.91462e-09
-5.91461e-09
-2.90432e-06
1.42442e-06
1.4799e-06
-2.16497e-06
2.40042e-06
-2.35443e-07
-1.33991e-07
1.21976e-07
-1.17655e-07
-8.55022e-07
7.97822e-07
-2.10777e-06
3.82072e-09
-7.32044e-07
7.41833e-07
1.06088e-07
-2.27379e-08
-1.05056e-07
2.17053e-08
-9.79896e-08
3.59178e-08
6.20719e-08
-5.19985e-08
-4.59911e-08
-2.24868e-08
-3.33896e-08
8.21493e-08
-6.58689e-08
-1.62803e-08
2.61094e-08
7.9979e-08
-3.63112e-08
-2.10907e-08
5.74019e-08
5.3572e-08
-7.65722e-09
-4.59148e-08
7.69027e-08
8.86386e-08
-7.62745e-07
7.54728e-07
6.90021e-08
1.67669e-08
1.49326e-06
1.70118e-06
-3.19443e-06
-7.43026e-08
7.47492e-08
-9.50455e-08
1.00825e-07
-6.95783e-09
1.17816e-09
4.79544e-08
7.84989e-08
9.74249e-08
1.18216e-07
-1.99929e-08
-9.82236e-08
-8.9435e-08
4.45799e-09
8.87479e-08
-3.77094e-09
-8.58698e-08
1.67687e-07
-8.18171e-08
-7.90808e-10
7.90819e-10
2.93332e-07
-1.50293e-06
1.2096e-06
3.72816e-09
-1.10042e-07
1.06313e-07
-2.9294e-10
-8.95066e-09
9.24361e-09
-8.41023e-08
8.58207e-08
-1.7184e-09
6.76374e-07
-9.52442e-07
2.76068e-07
5.50849e-09
1.87174e-06
1.81805e-07
-9.48406e-08
-1.72834e-07
-8.20515e-08
-2.27333e-08
2.09297e-08
8.53513e-08
-1.2661e-08
-8.74754e-08
1.47851e-08
3.85451e-07
-4.21899e-07
3.64476e-08
5.63379e-08
-8.50101e-08
-3.21409e-07
-8.60093e-08
-5.66088e-07
5.66088e-07
-5.29094e-07
2.46503e-06
-1.93593e-06
-8.57068e-08
8.66744e-08
-9.67586e-10
1.39677e-09
-9.08317e-08
4.48618e-07
-1.7219e-07
-2.76428e-07
-1.08002e-06
-1.6068e-07
-7.00234e-08
1.31073e-06
1.5526e-08
-1.5526e-08
8.61499e-08
-8.50184e-08
-1.74816e-08
1.74816e-08
1.96086e-08
-1.96086e-08
1.212e-09
-5.9473e-08
5.84248e-08
-1.63735e-10
4.15915e-08
7.39062e-09
-5.463e-09
5.65635e-09
-1.9334e-10
1.86662e-08
7.47524e-10
1.75224e-07
5.93978e-09
-1.81164e-07
-7.35298e-08
5.89932e-10
7.67393e-08
-4.42578e-07
3.65839e-07
9.564e-08
4.34504e-09
-9.99851e-08
-7.60729e-10
9.55794e-08
8.21347e-10
4.17523e-08
7.83547e-10
-6.39539e-10
-5.01833e-09
-1.25096e-06
2.16804e-08
5.24742e-08
-1.33818e-08
3.06581e-08
-4.41872e-08
-5.77045e-08
1.90211e-08
6.03639e-08
-3.65566e-08
2.14449e-08
7.11737e-08
-3.13866e-08
-3.97871e-08
4.48149e-08
1.0317e-07
-4.53717e-08
-1.02613e-07
8.61558e-08
-4.13408e-08
1.01448e-07
-1.21017e-07
1.95695e-08
-4.28367e-07
3.4963e-07
-2.61243e-06
4.09592e-08
7.28403e-08
-4.26257e-08
6.61855e-08
-6.47222e-08
3.47989e-08
1.18416e-07
-1.31797e-07
4.49371e-08
2.36307e-07
-2.81244e-07
-1.23049e-07
4.16887e-07
-2.08989e-08
-9.34579e-08
1.14357e-07
8.31283e-08
-7.67841e-08
1.61343e-07
-1.07593e-07
-9.81395e-08
2.37543e-08
-1.4808e-07
4.97794e-08
9.83009e-08
1.53551e-07
-1.71314e-08
1.27129e-07
-1.30329e-07
3.19989e-09
6.16043e-08
-8.70743e-08
2.53154e-07
1.34554e-07
-9.01499e-07
5.13791e-07
7.79641e-08
2.46525e-08
8.67071e-07
-8.72366e-07
5.29501e-09
-2.17459e-08
-6.12096e-09
2.68271e-08
1.03972e-09
-1.51566e-08
-1.00671e-08
2.52238e-08
7.03318e-08
-6.82556e-08
-2.07616e-09
-8.90514e-09
5.56316e-09
-1.18146e-08
1.27555e-10
-4.27166e-09
5.85278e-08
6.7982e-09
-7.38857e-09
-5.79375e-08
4.77604e-08
-1.00927e-07
5.31663e-08
1.25813e-07
1.10183e-07
-3.91423e-09
-1.06269e-07
-1.124e-08
1.18472e-07
-1.07232e-07
-1.09448e-08
-8.88172e-08
-1.22773e-07
1.11828e-07
-1.14341e-07
4.25301e-08
5.32267e-08
-8.09979e-08
7.84664e-08
-5.06953e-08
-9.77735e-08
9.21444e-09
8.85591e-08
1.69178e-08
-1.11543e-07
9.46248e-08
-9.10851e-07
-3.21663e-08
9.43017e-07
-9.29887e-07
-2.0049e-07
3.63652e-07
-1.63161e-07
-3.70888e-15
4.92875e-10
-4.14705e-09
3.49439e-07
-3.13781e-06
-8.88434e-07
-1.04747e-06
1.9359e-06
-3.26298e-07
-9.02309e-07
3.40173e-07
6.85468e-07
-2.18957e-06
1.5041e-06
-2.81879e-06
2.3071e-07
2.93752e-06
1.93784e-07
-1.28519e-07
-6.52645e-08
-6.38248e-08
7.32339e-08
3.68538e-08
1.5693e-07
2.00289e-08
-1.8144e-07
1.51276e-07
3.01636e-08
1.6131e-07
-1.44937e-07
-1.63726e-08
-6.35873e-08
-1.97269e-09
6.35857e-08
1.97436e-09
-4.28531e-08
4.36485e-08
3.05271e-09
-3.84814e-09
-8.8891e-08
8.54166e-08
2.6554e-11
-4.92102e-09
4.89449e-09
7.1528e-09
4.31555e-08
-5.03083e-08
-3.54529e-08
3.61331e-08
8.88882e-08
-8.95948e-08
-3.72344e-08
-7.39612e-08
3.60991e-07
-2.8703e-07
-1.0636e-07
-7.66968e-09
1.1403e-07
-4.62761e-08
-6.80649e-08
1.185e-08
-4.69024e-09
-1.23397e-07
1.16237e-07
5.71261e-09
-9.33941e-08
8.76814e-08
1.89881e-08
2.20658e-07
-8.31628e-10
1.25766e-09
-1.07503e-07
-2.67273e-09
-1.45678e-06
1.45946e-06
-7.29956e-08
-9.83935e-09
8.2835e-08
-3.60308e-08
9.23996e-08
-9.23845e-08
5.37335e-08
-5.40776e-08
8.64999e-08
3.50288e-08
8.07521e-08
-2.99901e-08
-8.57907e-08
8.30378e-08
-4.80089e-08
8.98352e-08
1.56342e-08
-1.05469e-07
-5.99334e-08
6.0355e-08
7.62943e-10
-1.18447e-09
-5.50888e-09
1.31903e-10
1.16759e-06
-7.00335e-07
-4.67256e-07
-3.03812e-08
-2.05763e-08
8.76449e-08
-6.70686e-08
3.90556e-09
-9.59511e-08
9.20456e-08
-9.264e-08
9.25253e-08
1.14601e-10
-5.46299e-09
-8.64675e-08
-6.92876e-08
5.68346e-08
3.96687e-07
-3.84234e-07
2.77952e-07
-3.4724e-07
-1.01897e-07
3.07685e-08
-3.74488e-07
-1.29967e-07
3.56814e-07
1.4764e-07
-9.65351e-08
-7.12491e-08
5.50326e-08
-4.84249e-08
8.53456e-08
-3.69206e-08
-8.47503e-09
5.78604e-08
-4.93853e-08
6.09175e-08
-6.17459e-08
-4.52176e-08
4.48336e-08
-1.37012e-08
1.40853e-08
1.23107e-08
8.5476e-07
2.031e-06
-1.78647e-06
1.28537e-07
-3.73074e-07
1.26427e-08
-1.92497e-06
1.63659e-06
-2.19059e-07
1.0182e-07
-8.74671e-08
2.04706e-07
-1.9563e-06
1.6693e-06
-1.60588e-06
-6.13517e-08
1.74082e-08
4.39434e-08
1.62526e-06
1.80597e-06
2.29515e-08
1.09724e-09
-2.10817e-08
-2.96698e-09
-9.80786e-08
7.4148e-07
-9.55976e-07
3.12574e-07
3.2278e-08
3.41491e-08
-2.59149e-08
-4.05124e-08
7.44746e-08
-9.66277e-08
-3.78773e-08
-2.07321e-08
6.5593e-08
-8.01498e-10
-7.39028e-09
8.19179e-09
-1.74261e-08
8.53895e-10
1.6217e-08
-1.54435e-08
7.06778e-10
-2.6894e-09
1.83782e-06
-1.90261e-06
6.47824e-08
4.04091e-10
-8.12524e-09
-1.0247e-07
1.10595e-07
8.81259e-08
-8.57054e-08
-2.42057e-09
3.60128e-09
-4.122e-08
3.76187e-08
-1.9607e-06
1.95723e-06
3.47104e-09
4.59385e-09
8.76085e-08
-4.0764e-09
6.3701e-09
-6.3701e-09
2.65982e-09
-8.83652e-08
9.60115e-11
6.2741e-09
-1.34733e-07
-4.67065e-08
-1.40839e-07
1.41951e-07
-1.57484e-07
-5.2908e-08
-6.65822e-08
7.10653e-08
-1.90914e-07
1.60854e-08
2.06788e-08
-2.10776e-08
4.94795e-10
-6.11623e-09
6.11624e-09
9.68564e-09
-1.29403e-07
1.51933e-07
9.40949e-09
-9.10683e-09
7.57124e-08
7.75212e-10
-2.31966e-10
-5.43227e-10
3.21461e-07
-5.79837e-07
-2.83527e-07
5.41903e-07
3.57503e-07
-4.25466e-07
3.36578e-10
5.81336e-09
2.11965e-08
-7.40249e-08
8.01225e-09
7.37217e-08
-7.7091e-09
1.67351e-08
-5.70367e-08
-2.35057e-08
2.35494e-08
-7.30393e-08
-8.34942e-08
1.38937e-08
6.96006e-08
-5.10379e-08
4.87003e-08
2.03135e-09
-4.38801e-07
-2.0572e-07
3.87867e-07
-5.45534e-07
1.57667e-07
-7.31185e-08
8.44582e-08
2.93973e-07
-2.89237e-07
-4.73617e-09
2.49568e-08
-7.73864e-09
-1.72182e-08
-8.47526e-08
4.68752e-08
4.99606e-07
-6.19236e-07
-1.53208e-07
-5.58572e-10
-2.5363e-08
2.59215e-08
2.05152e-08
-6.80061e-08
4.74908e-08
8.19481e-08
1.82077e-08
-1.77081e-07
-1.17116e-07
2.94197e-07
-5.21587e-08
5.39638e-08
-1.25375e-08
-1.12765e-08
-1.05672e-08
1.95411e-08
-1.7711e-10
2.61743e-10
-4.58473e-08
4.63696e-08
-1.20228e-08
-3.18383e-08
5.17437e-08
1.53913e-08
-3.28293e-08
1.7438e-08
-1.78118e-06
1.81346e-06
1.25912e-07
-9.54503e-08
-3.04619e-08
-2.2499e-07
-2.1424e-07
2.3874e-07
-2.89536e-08
-1.65056e-06
-1.30517e-07
1.86586e-07
-5.6069e-08
-1.14298e-06
-5.96869e-08
1.20267e-06
-1.93099e-07
-1.14903e-07
1.77485e-07
2.14877e-08
8.69056e-10
-2.81565e-09
-1.37114e-06
1.38936e-06
5.5496e-08
-1.55736e-06
1.57822e-06
-2.08628e-08
-8.55224e-08
8.56215e-08
9.61864e-09
-9.71775e-09
-1.92311e-08
-8.1115e-08
1.00346e-07
9.54429e-08
7.00262e-08
-7.98655e-08
-2.37359e-08
4.29143e-08
-4.49508e-08
2.57724e-08
1.26657e-07
-4.48506e-08
-8.1806e-08
9.85853e-10
-2.8737e-08
2.74582e-08
8.16064e-08
-8.33072e-08
1.70077e-09
-1.36629e-07
1.29824e-07
1.05334e-08
-6.52107e-09
7.42169e-09
8.07058e-08
-8.13921e-08
-1.91508e-09
3.88283e-10
-1.31368e-10
-7.36025e-08
6.91531e-08
-9.90074e-08
9.24864e-08
-3.56889e-08
3.49435e-08
2.12607e-08
2.12893e-08
-2.53651e-08
5.35519e-08
-2.81867e-08
1.51565e-06
-1.66139e-06
1.17421e-06
5.41758e-07
2.96023e-07
-8.37781e-07
-9.8966e-08
1.6593e-09
-2.44662e-08
-7.44997e-08
8.58363e-08
-8.51394e-08
1.00523e-08
-1.07492e-08
-2.45312e-07
1.80528e-06
-2.31656e-06
7.56593e-07
-1.17344e-07
1.54475e-08
-1.98275e-08
2.14174e-08
1.626e-08
-1.10658e-07
1.05348e-07
5.31014e-09
-5.7995e-08
7.22917e-08
-7.92662e-08
2.86269e-08
5.06393e-08
-9.68266e-08
-8.24204e-07
9.2103e-07
1.53886e-09
-7.657e-08
1.05529e-07
-8.34156e-08
-2.21136e-08
1.04248e-07
-1.16327e-07
1.20788e-08
-2.71557e-08
9.68641e-09
-5.97386e-08
5.00522e-08
5.61341e-08
2.93187e-08
-1.07171e-10
-1.18136e-06
2.25516e-06
-1.0738e-06
-7.42379e-08
-4.37354e-07
5.11592e-07
-3.23334e-07
-1.34657e-08
-1.04402e-08
1.0397e-07
-1.8134e-08
9.63776e-08
-7.84918e-08
-1.78858e-08
-4.89089e-08
5.09048e-08
-1.99593e-09
-9.14098e-08
1.19757e-08
7.94341e-08
1.72622e-08
-9.10222e-08
-1.76498e-08
-1.52033e-07
-2.04739e-08
-8.7157e-08
2.59664e-07
-2.95994e-07
6.8608e-08
-9.92744e-08
1.10966e-07
-4.0696e-07
-3.72249e-07
4.40857e-07
4.11045e-08
-1.23888e-08
1.51609e-08
-3.39566e-07
7.8283e-08
1.05651e-07
-1.0603e-07
3.78756e-10
-2.25359e-08
3.62105e-10
2.21114e-08
6.241e-11
9.73283e-08
-8.00661e-08
-2.67428e-07
2.75086e-08
5.97908e-09
-5.71188e-09
-2.67196e-10
-9.19611e-07
9.18435e-07
-3.73355e-09
3.60493e-09
-3.6369e-09
1.16047e-08
9.76993e-08
5.71094e-09
-1.98602e-10
-5.51234e-09
-3.10975e-08
-1.02155e-07
-1.96554e-07
1.17822e-07
7.87323e-08
-1.33484e-07
-1.10717e-07
2.44201e-07
-8.54944e-07
8.84701e-07
-6.76406e-09
-6.8096e-08
-2.06764e-08
8.87724e-08
1.79415e-07
-1.13599e-07
-6.58157e-08
-3.81766e-10
-9.5805e-10
-2.58982e-07
4.95216e-07
1.90342e-07
1.06986e-07
-1.03214e-07
-3.77218e-09
1.16272e-08
6.63104e-08
-7.79377e-08
1.1652e-07
-9.61076e-08
1.02098e-07
-1.2251e-07
1.79458e-09
-5.88899e-09
5.71188e-09
-5.42536e-09
2.11709e-10
2.62244e-06
-1.12919e-06
5.90261e-07
-5.71057e-07
-7.13247e-07
6.94044e-07
5.77878e-07
1.02233e-06
-1.60021e-06
9.09359e-08
-2.33937e-08
2.84498e-08
6.41197e-08
-3.87454e-07
-1.33785e-06
2.35379e-07
1.14376e-06
-4.12849e-08
-2.07393e-06
1.15726e-06
9.16661e-07
4.23324e-07
-6.05884e-07
1.8256e-07
-2.8883e-08
4.52207e-07
5.73034e-08
1.87683e-08
-7.60717e-08
1.81189e-08
-1.72907e-08
5.64752e-08
7.75768e-08
2.0037e-08
-7.88457e-08
5.16829e-08
-5.22205e-08
9.00199e-07
1.07772e-06
9.56957e-08
1.30723e-09
-1.30722e-09
-9.19171e-08
-9.63018e-08
1.88219e-07
9.46198e-08
4.1998e-09
-9.88196e-08
5.38826e-08
1.27368e-07
-7.63304e-07
2.26094e-07
5.3721e-07
-1.50586e-07
2.02849e-07
1.00555e-07
-8.47403e-08
8.32079e-08
-1.07191e-08
1.22515e-08
8.51382e-08
5.07194e-08
-4.75775e-08
-3.45463e-08
-2.97355e-09
-4.23817e-10
1.98801e-10
1.94596e-07
-7.3363e-08
-1.34256e-07
1.76379e-09
1.32492e-07
-1.35704e-09
-2.16691e-08
3.15693e-09
3.60494e-09
-4.14385e-08
2.10801e-11
4.14175e-08
9.76183e-08
-1.56702e-08
-1.10482e-07
-1.54371e-08
1.08666e-07
1.72537e-08
-1.03679e-07
1.0355e-07
-7.31287e-09
-8.38498e-08
8.39984e-08
7.16426e-09
-6.10752e-09
6.10753e-09
4.33658e-07
-4.1418e-07
-1.9478e-08
8.61125e-08
-3.2379e-08
-2.02806e-07
2.45593e-07
-1.43661e-06
1.20526e-06
-1.03558e-06
1.26693e-06
1.0645e-06
1.93219e-07
3.76759e-07
-1.69995e-07
-3.99982e-07
6.24972e-08
-3.96941e-09
-1.19464e-08
1.38089e-08
1.03788e-07
9.40989e-09
7.59414e-08
-9.07494e-08
9.38739e-08
-3.12451e-09
9.83939e-09
-9.11789e-08
5.37062e-08
2.60576e-08
4.89474e-09
5.76024e-08
-6.02408e-08
-1.58308e-08
-6.39961e-08
-8.23696e-09
7.22331e-08
-7.11748e-09
8.42227e-08
-7.71052e-08
2.27006e-08
8.4697e-08
1.3807e-08
-7.25195e-08
-1.4478e-08
1.73681e-10
1.10194e-09
-1.01073e-07
9.97974e-08
-7.85774e-08
6.02717e-08
1.83057e-08
-1.00913e-07
-1.0956e-06
1.32074e-06
-1.24225e-07
-1.06639e-07
1.4418e-07
-3.75406e-08
-1.25478e-08
-1.80603e-06
1.72175e-06
4.67433e-09
-2.82346e-06
-1.75139e-08
2.06034e-08
-1.4829e-08
-3.26817e-08
2.99383e-08
1.34029e-09
1.4031e-09
-2.45108e-06
7.4538e-07
-5.29796e-07
1.02174e-08
-9.23151e-09
-1.93747e-07
1.23673e-07
-7.19903e-08
3.24836e-08
8.40361e-08
-4.72767e-08
-6.21939e-09
4.41037e-08
-1.57575e-07
9.29763e-08
1.06947e-07
-4.50353e-09
-1.02444e-07
-1.12005e-07
1.87516e-08
8.34224e-08
-1.35643e-07
-2.22656e-09
-8.35643e-08
4.88702e-08
1.54165e-08
-8.82063e-08
8.79786e-08
-1.51889e-08
7.66161e-08
-3.33317e-08
-4.32844e-08
2.33851e-08
-3.74404e-08
1.40554e-08
1.69418e-06
2.41351e-08
-1.69493e-06
-7.3254e-08
2.52702e-08
4.79838e-08
-8.76739e-07
2.17951e-08
1.37305e-07
-1.52261e-06
1.3853e-06
-7.67256e-08
-1.56695e-07
1.49172e-07
8.4248e-08
8.79543e-08
-3.47276e-08
5.11844e-08
-1.00504e-07
4.93192e-08
-4.93258e-08
1.31934e-07
6.3249e-08
9.82673e-08
2.15851e-08
-1.19852e-07
8.63926e-08
2.82068e-08
-1.14599e-07
-1.23468e-07
1.51187e-07
-2.77193e-08
1.2476e-08
6.7995e-08
-6.75819e-08
-4.3825e-09
-3.79602e-07
1.46304e-06
-1.08344e-06
-9.70544e-08
9.13483e-09
9.69324e-08
-3.18049e-09
-2.29832e-07
1.83129e-07
4.67031e-08
2.60071e-07
-2.72924e-07
-5.05642e-08
6.34179e-08
-3.22161e-08
2.06958e-07
-2.10734e-07
3.59922e-08
1.76844e-07
-6.24554e-08
7.15902e-08
1.93463e-07
-3.37692e-07
-6.47873e-08
4.62941e-09
-1.71158e-09
-6.39243e-08
4.95684e-08
2.70477e-08
-5.60549e-07
-7.85738e-07
5.82983e-07
-9.0384e-08
8.18473e-08
8.53673e-09
4.21272e-07
-3.93999e-07
-1.74289e-08
1.65243e-09
5.63408e-09
1.55749e-10
1.41395e-10
-5.9312e-09
9.19163e-08
1.54974e-07
-1.58872e-07
-8.80177e-08
-2.33768e-06
4.78256e-07
1.85942e-06
5.36748e-09
-3.55936e-10
-5.01151e-09
-2.82985e-10
-2.06832e-08
2.06585e-08
3.07667e-10
5.0845e-09
-1.99253e-08
-1.11373e-09
8.70477e-08
-6.26148e-08
-2.44329e-08
-4.27669e-09
8.94019e-08
-8.51252e-08
-2.17855e-08
1.0088e-10
8.24637e-08
-3.3171e-08
-8.54671e-08
6.31567e-08
2.23104e-08
-8.51402e-08
8.53139e-08
4.63703e-08
-1.27368e-07
2.61838e-07
6.6702e-08
-6.96139e-08
5.53372e-09
-2.62177e-09
1.25262e-08
-1.09619e-07
9.7093e-08
-1.02793e-07
1.07387e-07
8.55427e-08
-9.21206e-08
6.57791e-09
5.9486e-08
-5.97457e-08
1.07246e-07
-8.56246e-08
-1.37496e-09
-3.08184e-09
9.18806e-08
-8.87988e-08
-3.1108e-08
1.61259e-07
3.9518e-08
-1.69669e-07
4.89912e-07
8.00066e-07
-1.28998e-06
1.25843e-07
3.22775e-07
-7.51731e-08
-2.20978e-07
2.96151e-07
1.69848e-09
-8.59453e-08
-1.37777e-09
7.65414e-08
-9.71553e-08
9.85222e-08
-1.36697e-09
-8.11401e-07
8.96159e-07
-8.96159e-07
-3.00207e-07
4.07499e-08
2.17555e-06
-2.06369e-08
8.47582e-08
7.73156e-08
-2.6456e-08
-5.08596e-08
-9.72779e-08
-1.25234e-09