/*--------------------------------*- C++ -*----------------------------------*\
| =========                 |                                                 |
| \\      /  F ield         | OpenFOAM: The Open Source CFD Toolbox           |
|  \\    /   O peration     | Version:  v2006                                 |
|   \\  /    A nd           | Website:  www.openfoam.com                      |
|    \\/     M anipulation  |                                                 |
\*---------------------------------------------------------------------------*/
FoamFile
{
    version     2.0;
    format      ascii;
    class       volVectorField;
    location    "0.02";
    object      U;
}
// * * * * * * * * * * * * * * * * * * * * * * * * * * * * * * * * * * * * * //

dimensions      [0 1 -1 0 0 0 0];


internalField   nonuniform List<vector> 
3591
(
(-0.881784 -0.289126 33.2572)
(0.159413 0.00896131 -0.136775)
(0.276611 0.0153425 -0.191047)
(-0.00840829 0.00553033 0.0656064)
(-6.05858 -0.301684 4.95295)
(-2.03682 -0.142722 0.889772)
(-0.23353 -0.00187475 -0.877256)
(-0.0782422 0.0302302 -0.485734)
(0.0465913 0.000387369 -0.262754)
(-2.14288 0.459827 0.540355)
(-0.0993952 -0.0121992 -0.746964)
(-0.325026 -0.172122 29.5133)
(-0.553961 0.260676 -33.8016)
(-1.96893 0.144783 -37.643)
(-0.718229 -0.0502612 -7.3793)
(-1.25206 -0.417602 11.7858)
(2.36599 -0.122056 -2.20016)
(-4.60655 -0.0293417 -11.5282)
(-1.73834 0.0330226 0.658941)
(-3.44174 -0.655391 -12.0176)
(-1.63941 -0.924105 -7.90035)
(-4.06764 -0.641479 -11.0527)
(0.00358658 0.00222013 0.0852433)
(0.0415371 0.000436631 -0.014774)
(0.0179504 -0.0102711 0.0209404)
(0.0334636 0.0014799 0.00453511)
(-1.83462 -0.236971 -2.43937)
(2.40057 0.273587 -1.63011)
(-4.3027 -0.124612 -4.30914)
(-0.0014153 -0.00102585 -0.0313122)
(-2.25772e-05 -0.000508754 -0.0159024)
(0.0112674 -0.0131558 0.0926779)
(6.49377e-05 0.00805199 -0.0666415)
(0.00146138 0.00190405 0.067613)
(0.0419098 0.00474314 -0.0907364)
(0.05078 0.00427716 -0.0447669)
(0.00176661 -0.00260448 0.0774569)
(0.00200301 0.00485684 -0.00255485)
(0.0170787 -0.00994164 -0.123238)
(-0.803446 -0.0193753 -6.20826)
(0.0038595 0.0131794 -0.074811)
(-0.25866 -0.0159223 -0.545604)
(-1.23791 -0.0612622 -5.43435)
(-0.285213 -1.00711 -3.68419)
(0.0713148 0.00342273 0.245793)
(-0.720949 0.174006 -3.55383)
(0.0683799 0.000922614 0.278233)
(0.0104351 0.0123235 -0.0086681)
(-0.890271 0.0279917 -8.05556)
(-0.999719 -0.0686445 -6.38848)
(0.00507285 0.00529036 0.168754)
(0.0737434 0.00168681 -0.0635406)
(0.000100646 0.000386417 -0.0127655)
(0.0371353 0.00357491 -0.271768)
(0.00700185 -0.0017851 0.0490767)
(-1.17445 0.0211316 4.30433)
(0.075437 0.00506049 -0.111902)
(0.646291 -0.269297 23.2294)
(0.0246809 -0.00149464 0.302472)
(0.0229691 -0.00062318 0.303246)
(-2.74515 -0.0418986 -56.5204)
(-0.531631 -0.239335 30.3998)
(9.08918 0.560879 1.94545)
(-0.000178549 0.000161407 0.0174566)
(-0.676301 0.0297289 -9.99429)
(-0.589863 -0.245655 30.093)
(0.0279719 0.00602261 0.0206873)
(0.171676 0.00592704 -0.217742)
(0.00911685 -0.00280255 -0.102137)
(-0.846176 0.323087 0.625292)
(0.274832 -0.104825 41.7665)
(-1.38108 -0.114257 -0.172992)
(0.337614 0.0228151 -0.198369)
(0.0401214 0.00384415 -0.267606)
(0.0753066 0.00536827 -0.774933)
(-0.307184 0.020557 0.75441)
(-0.547913 0.0461837 0.391207)
(0.0228345 0.00197525 -0.331844)
(1.56021 0.649957 -1.42154)
(-0.241535 0.0264145 0.748583)
(-0.555131 -0.00490855 -0.729978)
(-0.0675835 -0.200054 37.2413)
(-1.12426 0.0836702 38.1607)
(0.158323 0.033889 0.46106)
(-0.403259 -0.186356 -0.699501)
(0.000707539 -0.00220778 0.048031)
(0.756302 0.0253451 0.0136456)
(-0.410742 -0.235434 -0.697689)
(0.0985105 -0.0126299 0.487947)
(0.0290606 -0.0019404 0.21068)
(0.125773 0.0303845 0.417102)
(-0.000828682 0.0046941 -0.148774)
(-0.632734 1.06621 -13.4763)
(0.0165321 0.00740008 0.0808721)
(0.0772738 -0.00113886 0.267108)
(0.0152181 0.00469566 0.0629169)
(0.0870992 -0.0101725 0.379098)
(0.00180605 0.00607009 0.141668)
(20.1294 2.05611 -0.693546)
(0.069843 0.00493981 -0.396482)
(-0.000851226 0.0103017 -0.138767)
(-0.917072 -1.00543 -6.17903)
(-6.49265 -0.248451 -5.09209)
(0.015263 -0.00344359 -0.0393002)
(3.04696 -0.488649 -9.76132)
(0.0123556 -0.000928064 0.17694)
(0.00243772 -0.00414213 -0.191337)
(0.103208 -0.00117572 0.0952514)
(-1.8152 -0.4134 -25.6816)
(0.0288523 -0.00534717 0.115475)
(0.00565122 0.0162938 0.00726931)
(0.060656 0.00792969 -0.180165)
(0.0152758 0.00313583 -0.240843)
(0.0581787 0.00528182 -0.193328)
(0.0452583 0.00175401 -0.145059)
(0.0158862 0.00462638 -0.239182)
(0.224242 0.00719345 -1.21824)
(0.00195298 0.00196433 0.0420938)
(0.0595365 0.00204769 -0.382582)
(0.00064017 -7.91695e-05 -0.0124972)
(0.382311 0.0496838 -1.4473)
(0.0349569 -0.0073328 -0.484249)
(0.00611411 0.000437096 0.107154)
(0.00338473 7.98753e-05 0.0103765)
(-0.0564521 -0.107895 36.2966)
(0.543584 -0.256861 25.5828)
(0.790879 -0.181905 28.7149)
(-2.1038 0.142172 -41.6934)
(0.0424024 0.00417851 -0.155082)
(-0.612924 0.255573 -37.5097)
(0.00866135 0.00708081 -0.271368)
(0.141614 0.0275383 0.855072)
(-0.728921 0.250664 -39.578)
(0.00904634 0.00723676 0.0720115)
(-6.95902 -0.215517 0.460003)
(-0.860573 -0.0813728 -7.04923)
(-0.677491 -0.00977055 -6.76087)
(1.68584 -0.204078 -7.67241)
(-5.38398 0.0470482 -7.31875)
(-8.26238 -0.341637 2.92239)
(0.336941 0.130743 0.944452)
(0.763503 -0.203563 -9.56796)
(0.0853764 0.00341069 0.237332)
(0.00676096 0.000585842 0.234025)
(0.623386 0.073381 -12.189)
(0.154112 0.00420147 0.234666)
(2.40539 0.106699 -5.70559)
(0.00595487 0.00342208 0.0493024)
(0.0250865 -0.00186924 -0.171138)
(0.0017908 0.00351283 0.0586642)
(-2.73091 0.163294 -6.28321)
(0.034196 -0.00207663 -0.044631)
(2.43709 0.0749809 -5.41563)
(-10.34 -0.152887 2.36756)
(0.0947578 0.00277168 -0.156776)
(0.116293 0.00602418 0.0200257)
(0.0311799 -0.00724319 -0.0755139)
(0.114459 0.00677333 -0.310629)
(-2.17002 -0.43882 0.350261)
(0.36147 0.323646 -2.76287)
(0.0760678 0.000766337 -0.281793)
(0.0198307 -0.00280386 -0.189771)
(-0.505388 -0.258288 32.8275)
(0.0136911 0.000701412 -0.313025)
(0.0132005 0.000571516 0.0345087)
(0.0112387 0.0115882 -0.0213665)
(0.0110104 0.00682199 0.0614453)
(0.00962659 0.00752899 0.12992)
(0.0128738 0.00147654 -0.278195)
(0.0543922 0.00136761 -0.361994)
(0.0240856 0.0068634 0.024036)
(0.104152 0.00595099 -0.244475)
(-0.509206 -0.0168681 -1.8306)
(0.0143822 0.00492052 -0.272477)
(0.0142627 -0.00141689 -0.298083)
(0.0823321 -0.00278988 -0.860919)
(-0.482142 0.00387022 -1.89803)
(-0.817532 -0.0252158 -8.17239)
(0.106193 0.00544231 -0.0188376)
(0.0214386 0.00952715 -0.239283)
(-0.3499 -0.0428175 -2.08214)
(0.016156 0.000451268 -0.314111)
(0.0116576 0.00494738 -0.272845)
(0.0277049 -0.00149706 -0.235238)
(0.227521 0.0152676 -0.291631)
(-0.00197126 0.00446012 -0.0166664)
(0.00791989 -0.00432824 0.059478)
(3.11706 0.17494 -4.79886)
(4.0595 -0.467898 -10.4431)
(0.0593728 0.000828942 -0.307997)
(0.34007 0.00703161 -0.129905)
(-0.434729 -1.41961 -9.34537)
(1.09084 0.102144 -4.34287)
(-0.00128164 0.000571267 0.0855624)
(4.58795 0.00198574 -2.23271)
(-0.586357 0.251381 -30.6545)
(0.0155792 -0.00656421 -0.0476611)
(0.0331506 0.004683 -0.210443)
(-0.0893155 0.000486104 -0.590746)
(1.93045 0.375917 0.314296)
(0.42627 0.0295291 -0.522123)
(0.150795 0.0023537 -0.199274)
(-0.451718 0.245599 -6.8512)
(0.828402 0.193488 -0.139)
(0.156076 -0.0771216 41.222)
(-2.68948 -0.0405178 3.45563)
(-1.32447 -0.0314686 -2.90148)
(-0.847666 -0.0641798 -3.85773)
(5.13002 -1.61686 -7.52857)
(-1.89308 0.141391 -33.3471)
(-0.654538 0.190791 -4.10388)
(5.5018 0.00342729 -3.66392)
(4.13636 -0.0365095 -4.30709)
(-0.4371 -0.199264 -0.525948)
(6.39659 0.169281 -9.09681)
(-0.439819 -0.0305277 0.135991)
(0.297437 0.0178854 0.11769)
(0.103831 0.00602997 0.191382)
(-2.68365 -0.203842 5.45992)
(0.151898 0.00490025 -0.177414)
(0.0839023 0.00436417 -0.181314)
(0.109021 0.00680791 -0.189677)
(0.0472806 0.00356319 -0.266135)
(0.0410865 0.00112358 -0.285997)
(0.0448148 0.00464038 -0.264919)
(0.0950038 0.00120453 -0.371977)
(0.00993715 0.00973687 0.0764027)
(-1.46144 0.0161907 -9.64277)
(-0.0123133 0.00710647 0.0852788)
(4.06394 -1.29721 -7.60909)
(4.44778 0.0576199 -3.28199)
(4.00421 -0.0518638 -4.51163)
(0.030883 0.00129715 -0.220498)
(19.4257 0.769932 0.871033)
(-1.15545 0.109178 -0.584402)
(-0.0239871 0.167581 -5.62488)
(0.528554 0.0109509 -0.584326)
(0.0256656 -0.00979164 -0.101048)
(0.0420071 -0.00306933 0.0600651)
(0.0356855 -0.00624312 -0.119371)
(21.8616 0.156892 0.816004)
(0.0583661 0.00375299 -0.20399)
(0.067077 0.00160573 -0.181891)
(0.0380515 0.000952146 -0.116108)
(0.116144 0.0089933 -0.300424)
(0.041914 0.00378103 0.19527)
(-0.00706834 0.00642614 0.0640177)
(0.0468685 0.00678184 -0.0723086)
(2.01262 0.415696 0.782743)
(0.0573973 5.57721e-05 -0.264911)
(3.16374 0.262854 1.58179)
(2.47086 -0.170019 2.15786)
(0.030682 -0.00726085 -0.0413489)
(0.0428147 0.00493361 -0.0736336)
(0.0576026 0.00260878 -0.0842624)
(0.0238468 -0.00599033 -0.172201)
(1.09232 0.29607 -2.41227)
(0.00333998 -0.000496716 0.0879837)
(-0.0116443 0.0201391 0.137667)
(0.117647 0.00864367 -0.567191)
(0.015496 0.0107554 0.105232)
(0.00632796 -0.00381513 -0.0377187)
(-0.0251361 -0.0586159 -8.36018)
(-0.657035 0.132885 -1.48453)
(0.966095 0.0726283 -0.15764)
(0.070213 0.00568639 -0.560207)
(0.0457754 0.00570537 -1.00701)
(0.105945 0.00290452 -0.492988)
(0.247479 -0.000818286 -0.94038)
(0.00633579 0.0108982 0.0161288)
(0.915823 0.0047289 -1.05705)
(-0.507361 0.0110903 -7.32867)
(0.0366078 -0.00733569 -1.27687)
(0.19083 -0.0143796 0.553021)
(0.0623343 0.00157733 0.263732)
(0.164093 0.00512725 0.101168)
(0.0349547 -0.00628095 -0.127017)
(-0.415961 0.00819326 0.402275)
(0.123531 0.00200028 -0.191308)
(0.0478022 -0.0868639 32.4323)
(-0.575153 -0.0115234 -0.522514)
(0.170042 0.00740585 -0.159585)
(0.0971184 0.00622157 -0.276212)
(-6.48217 -0.44389 6.76866)
(0.0540403 0.00387689 -0.305862)
(-0.177589 -0.154573 -3.586)
(-0.224803 -0.1664 28.8275)
(-1.45764 0.150961 -2.16369)
(-0.890424 0.15963 -2.30936)
(0.0277605 0.000966029 -0.269347)
(0.0252726 0.000235262 -0.341603)
(-0.0769764 0.000643486 -0.543723)
(-0.311571 0.128214 -0.838691)
(-1.24435 -0.0586116 -1.36672)
(-0.0755604 -0.213944 -13.899)
(-1.4391 0.0938046 -4.08785)
(0.00454208 0.00500934 0.121109)
(0.00674512 0.0126229 0.164125)
(-0.432446 0.242406 -28.0211)
(-0.841787 0.851204 0.287314)
(0.0659442 0.0344629 0.358598)
(0.0111925 0.0103123 -0.0598783)
(0.0256591 -0.00215736 -0.183366)
(0.104272 0.00427577 -0.263377)
(-2.15171 -0.0579091 -0.284893)
(0.0232615 -0.00134452 0.0955062)
(-0.0565484 0.00763753 0.173538)
(0.00217972 0.00485968 -0.147345)
(0.0105787 -0.00115339 -0.300338)
(0.0136735 -0.000801987 -0.303535)
(0.024033 -0.0069833 -0.175143)
(0.258076 0.00971422 0.57145)
(0.463743 0.0377153 -0.280631)
(0.496174 0.0334093 -0.256066)
(0.357912 0.0329058 0.614118)
(0.0123138 0.000278643 -0.276701)
(0.361854 0.00650886 -0.915964)
(0.368856 0.0129724 -0.0908915)
(0.015852 0.00130206 -0.31183)
(0.0374631 0.00362813 -0.107465)
(-0.467669 -0.00287245 0.084289)
(-1.28715 -0.369643 -26.8272)
(0.094303 0.00787954 0.236581)
(-9.74919 -0.142879 -2.76978)
(8.90643 0.587577 1.77872)
(-10.6614 -0.793978 -1.41998)
(0.0304901 0.0191903 0.194152)
(-3.11137 -0.0019573 -4.72863)
(-2.6817 -0.158423 -0.880418)
(-2.27757 0.179322 -13.0548)
(0.252994 -0.00373418 0.274844)
(0.0326475 0.000206124 -0.169619)
(0.143 0.00681317 0.238728)
(0.187996 0.0037974 -0.0777344)
(0.0482292 0.00206507 0.249213)
(0.0315312 0.00406215 -0.206568)
(0.0245544 -8.78743e-05 -0.322729)
(0.0836195 0.00647416 -0.305842)
(0.11297 0.00708793 -0.272398)
(0.0909834 0.00149491 -0.262212)
(0.0328268 0.00567431 -0.208489)
(-0.135633 -0.00468864 -0.754291)
(0.0414072 0.000601125 -0.329136)
(-0.00153505 0.00123772 -0.149436)
(-1.20028 -0.0677577 -0.104496)
(-1.30864 0.0330809 -0.571107)
(-2.50204 -0.162189 -0.830397)
(-2.4687 -0.0648045 -0.428214)
(-1.76251 -0.140271 -0.787396)
(-2.17303 0.139687 -45.3689)
(-0.295875 -0.00804349 -0.579444)
(0.0209411 -0.00265733 0.0943558)
(0.0146173 0.00641873 0.122849)
(0.0429571 0.00877591 0.203086)
(0.511786 0.0406563 -0.782019)
(0.0545402 0.00335358 0.176262)
(0.0689789 0.00591238 0.171958)
(0.093548 0.00686675 0.148268)
(0.0113402 0.00265064 0.128042)
(-7.16786 -0.133569 -8.37407)
(-5.27617 -0.447373 2.48323)
(0.101898 0.00111769 0.163818)
(-7.5565 -0.119975 -4.75162)
(0.0159093 -0.000807521 -0.437237)
(-7.75011 -0.539505 -7.86483)
(0.0340833 0.000831831 -0.439227)
(0.0844098 -0.00247927 -0.429995)
(-0.906278 -0.111004 -8.73598)
(0.215898 -0.000181895 -0.347374)
(0.114462 0.000257041 -0.25816)
(0.192096 0.00249614 -0.407549)
(0.152883 0.00878043 -0.468768)
(-7.41096 -0.265146 -8.52463)
(0.0108663 0.00355875 0.119244)
(0.00813066 0.0106303 -0.0906205)
(-3.76172 0.035934 6.77386)
(-3.23529 -0.151987 3.98947)
(0.766968 0.0533636 0.663915)
(-8.36108 -0.231329 4.34979)
(0.170004 0.0113748 0.188597)
(1.15048 -0.0708925 -1.57446)
(1.55776 0.013694 -0.921975)
(0.0201883 -0.00594885 -0.134463)
(0.118694 0.00436648 -0.200041)
(0.0194781 -0.00249021 -0.187976)
(0.186497 0.00495741 -0.207803)
(0.130835 0.00536237 -0.178458)
(0.0720268 0.00920479 -0.363683)
(0.16564 0.00961046 -0.179804)
(0.0463769 0.00526562 -0.266894)
(0.0413043 0.00156722 -0.258554)
(0.0384059 0.00183067 -0.248814)
(0.047332 0.00432883 -0.244382)
(-2.17045 -0.204085 -1.47069)
(0.13177 0.00333057 -0.142044)
(-0.225425 -0.0202641 0.209904)
(0.311199 0.0057214 -0.461323)
(0.0631494 -0.000512037 -0.249576)
(0.00251822 -0.00367593 -0.0115478)
(-6.3063 -0.0705964 -10.2965)
(-9.46625 -0.735779 -4.62204)
(0.171647 0.00793508 -0.228041)
(-9.06028 -0.533344 -6.21306)
(0.953462 -0.212566 24.3904)
(0.113885 0.00858587 -0.121027)
(0.123467 0.00905883 -0.0948211)
(0.142068 0.00992426 -0.0872265)
(0.0208358 -0.00048372 -0.0715609)
(-0.0809791 -0.00245927 -0.735393)
(0.106525 0.00902214 -0.124864)
(-0.00912511 0.0368987 -0.690669)
(0.166414 0.0119581 0.0229847)
(0.0243167 -0.00622532 -0.218575)
(2.29321 -0.269213 4.2323)
(0.122315 0.00414422 -0.178528)
(-5.3877 0.00644406 -7.45694)
(0.0090477 0.00583607 -0.237452)
(0.055289 0.00781703 0.315906)
(-0.173019 0.00177068 0.199158)
(0.0621376 0.00478485 -0.392618)
(0.0198959 0.00173773 -0.332358)
(0.179962 0.0128942 -0.259152)
(-0.0404578 0.00369641 -1.72892)
(-0.00624865 0.00354971 0.05649)
(5.10966 0.37224 2.74632)
(-0.508984 -0.00454011 -0.422585)
(-0.0108207 0.00818871 0.0768346)
(0.0566496 0.000512841 -0.338495)
(-2.44612 -0.394329 2.47493)
(-0.225586 -0.0973793 38.4744)
(-0.220241 0.0126417 -2.0015)
(0.0153497 0.000531307 -0.309507)
(0.0171489 0.000739325 -0.316334)
(0.12419 0.00746997 -0.34686)
(-2.40486 -0.152739 3.09768)
(0.0787079 0.00251057 0.248234)
(0.0117469 -0.00161224 -0.294251)
(-2.77523 -0.0988061 0.0489247)
(9.45036 1.02069 -1.17689)
(9.39753 0.758798 -4.96462)
(0.0194709 0.00120661 -0.290016)
(0.176737 0.00450817 -0.251647)
(-2.999 -0.250119 1.15764)
(9.43042 -0.478324 -1.97941)
(-0.000873535 0.000340086 0.0766403)
(0.0173473 0.000293563 -0.324852)
(-0.000527901 -0.000774154 0.0740088)
(-0.00910791 -0.00726801 0.0807738)
(0.0016377 -0.00630432 0.148536)
(0.0309736 0.00138364 -0.00707959)
(-0.000932557 -0.000706273 0.0185993)
(-0.105585 -0.0029105 -0.759128)
(0.00615371 0.00221805 -0.266806)
(-0.482703 -0.0280212 -3.83371)
(0.00193007 -0.00691628 -0.244347)
(-0.586394 0.00366425 -7.24337)
(0.0248536 0.00160014 -0.301404)
(0.0259802 0.000221289 -0.305391)
(-0.00144054 0.00972327 -0.136526)
(0.0236222 -0.00106309 0.10906)
(-2.5407 -0.0458065 -48.0263)
(0.0931553 0.0100342 -0.0265672)
(-0.504118 0.22127 -5.87868)
(0.0763416 0.000509553 -0.0125095)
(0.0554859 -0.00237383 0.0341663)
(0.14345 0.00197444 -0.0129573)
(0.232054 0.0164505 -0.0507808)
(0.203793 0.00537818 -0.0408502)
(0.400875 0.0293917 0.0371957)
(-0.660283 0.116858 -9.074)
(0.131752 0.00211534 -0.0233335)
(0.140843 -0.000844293 0.0143105)
(0.134279 -0.000591838 0.000745027)
(-0.702859 -0.053492 -7.62804)
(0.42283 0.00888313 -0.383996)
(-2.18415 -0.0673044 3.82042)
(-0.55045 -0.0472212 -2.43766)
(-0.116697 0.00609727 -1.60324)
(0.0880101 0.00240126 -1.51975)
(0.0326489 0.000361193 0.248535)
(0.324505 0.0213473 -0.494467)
(-0.553393 -0.0632551 -2.08559)
(-0.408639 -0.0366875 -0.0387222)
(0.0774425 0.00376133 0.237825)
(2.41509 -1.24642 -4.55805)
(0.037563 0.00121064 0.26156)
(0.0234885 -1.11181 -13.8569)
(0.00284625 -0.00341414 0.140118)
(0.0150851 -0.0009692 0.154497)
(0.0635606 -0.000127971 -0.333454)
(0.0139521 0.000686435 0.144398)
(-3.31432e-05 -0.00141723 0.0110291)
(0.0670342 0.00185001 -0.471643)
(0.208707 0.00534459 0.239049)
(0.0616276 0.00218122 0.253985)
(0.106592 0.00826495 -0.2128)
(-0.249379 -0.0119486 -0.823545)
(-0.15877 0.0310023 0.373169)
(-0.0773292 -0.0153753 0.356733)
(0.160351 0.011592 -0.127134)
(0.294349 0.00951469 -0.0398471)
(0.00712336 -0.00418862 0.260501)
(0.136934 0.00837709 -0.217229)
(0.131503 -0.0946797 41.1002)
(0.384951 -0.227227 30.4114)
(0.0205968 0.0129278 -0.432472)
(-0.147245 -0.0610129 0.13069)
(0.119737 -0.00500028 0.490071)
(1.03108 -0.283198 -12.0118)
(-1.55741 -0.214676 -3.57881)
(-0.782302 -0.0548222 -2.68933)
(-5.03982 -0.278008 -3.87539)
(0.451083 -0.146755 -13.2108)
(0.0743069 0.00348672 0.28516)
(-0.942966 0.119495 -0.534205)
(0.0781081 0.00375419 0.296943)
(0.0118182 0.0110736 0.0898498)
(0.0684852 0.00140085 0.333764)
(0.041688 0.000807321 0.328977)
(0.0134457 -0.0128305 -0.104505)
(0.0183191 -0.00591525 -0.039354)
(0.0375882 0.000122318 -0.193843)
(0.00343697 -0.001843 0.0303937)
(-0.285429 -0.364293 -1.55237)
(0.0554969 0.0117676 0.326471)
(0.0489817 -0.00584445 -0.177381)
(-0.598909 -0.0342706 -3.25244)
(0.138369 0.00848676 -0.197815)
(0.180467 0.013584 -0.120912)
(0.497886 0.0442834 -0.0982527)
(0.0680121 0.000383222 -0.206314)
(-0.0329829 0.166841 -5.27727)
(0.0814647 0.00714157 -0.299819)
(-0.674261 0.252499 -38.8568)
(0.20038 0.00298 -0.368064)
(0.202787 0.00847959 -0.0872686)
(0.187952 0.00565529 -0.053219)
(0.219417 0.00932641 0.00316326)
(0.221916 0.00784235 -0.0162752)
(0.130128 0.00547166 -0.187172)
(0.0116089 -0.011846 -0.0907207)
(0.00280799 -0.00109663 0.0165177)
(-5.6675 -0.375902 -5.63375)
(-5.85048 -0.209488 -5.38356)
(-0.0109663 0.0455784 0.345856)
(0.705063 0.00148503 -0.866372)
(0.0368106 0.00293501 -0.317157)
(0.0149621 0.00255478 -0.263696)
(0.00318014 0.000719579 0.0239033)
(0.0242742 0.000310388 -0.296184)
(-1.25302 -0.0244149 -2.00902)
(-1.14367 -0.0317109 -2.31226)
(-0.767319 -0.0577601 -8.00873)
(-0.735852 -0.0474144 -2.57857)
(-0.904883 -0.0224337 -2.57194)
(-0.0602912 -0.0035635 -0.551394)
(-0.47817 -0.00434764 -0.142905)
(-0.00694861 0.000801438 -0.47558)
(0.00537367 -0.000622071 -0.457955)
(-0.0355048 -0.000541933 -0.457747)
(-0.778912 -1.43809 -11.523)
(1.65546 0.0823657 -13.1816)
(-0.0300202 -0.00202929 -0.4737)
(-9.10573 -0.246247 4.88016)
(0.525488 0.0348153 -2.45406)
(-8.30568 -0.454673 1.9086)
(-0.596426 -0.0170143 -0.810822)
(-10.3306 -0.406956 -1.676)
(-0.000948785 0.000111052 0.138808)
(-4.06999 -0.0897217 0.36541)
(-0.595103 0.352682 -4.38926)
(1.56449 0.0964705 0.301479)
(-0.777153 -0.0744924 -10.6375)
(0.00978414 0.0102309 0.0784146)
(0.00254021 0.00169506 0.117217)
(-0.00380411 0.00243573 0.130666)
(-10.0078 -0.163076 -2.96126)
(0.00177559 -0.000132263 0.12251)
(0.0774541 0.00618069 -0.229759)
(0.0894008 0.00182082 -0.247098)
(0.0122833 -0.00371227 0.017139)
(-0.0455575 -0.0876544 40.6039)
(0.0890374 0.00106973 -0.24994)
(0.00185973 -0.00329493 -0.00508981)
(0.0853023 0.00187094 -0.241478)
(-0.00163365 -0.00116393 -0.0150619)
(0.0682955 -0.00148092 0.320145)
(-0.0127124 0.0483505 0.189447)
(-0.270931 0.031292 -0.0630349)
(0.112073 0.00871911 0.436919)
(0.00425341 0.00246731 -0.0512285)
(0.000550631 -0.00411148 0.00359455)
(0.227517 -0.0300156 0.685524)
(0.0188378 -0.010428 -0.179079)
(0.00816998 -0.00670686 0.062144)
(-5.569 -0.173781 -1.42909)
(-1.56552 -0.0500652 -3.52762)
(-0.00361269 -0.00421555 -0.0196321)
(0.0168621 0.00148616 0.0527841)
(0.00617655 -0.00700766 -0.23861)
(0.122884 0.00171889 0.149245)
(0.221517 0.0074134 -0.362324)
(0.121539 0.000316273 0.229412)
(0.00371341 7.95295e-05 0.159017)
(-2.94117 -0.0705018 3.60138)
(-2.78176 -0.218735 2.60462)
(0.130603 0.00227792 0.221158)
(-2.02386 -0.0512187 2.45064)
(-0.0655619 0.162015 -8.09239)
(-1.22106 -0.0528571 -9.64699)
(-2.13553 -0.165998 4.64207)
(-1.83942 -0.171138 4.04146)
(-0.0290734 0.0137777 -0.326545)
(-0.103298 -0.00690824 -0.484546)
(0.350071 0.0297635 -0.537708)
(-0.891537 -0.0372418 -0.872731)
(0.0298374 -0.00498689 -0.0243007)
(0.0448245 0.00634655 -0.074588)
(0.0311445 -0.00182266 -0.0260052)
(0.00373389 0.0047922 -0.0116868)
(0.00823179 0.00866812 -0.097826)
(0.00805882 0.00288847 -0.0938306)
(0.0139024 -0.00736594 -0.147537)
(0.0406896 0.00143503 0.163352)
(-0.76952 -0.240638 31.5926)
(0.146501 0.0108677 -0.191862)
(-0.291832 -0.0145565 -0.458369)
(-0.599855 -0.242876 29.4304)
(0.808457 0.0568426 -0.641436)
(13.6581 -0.580633 -0.559534)
(0.825206 0.0201734 -0.825363)
(0.00126863 0.00609999 -0.028849)
(0.399535 -0.0491903 -4.90444)
(-2.20366 0.140839 -46.9401)
(0.0775211 0.00170255 -0.29125)
(0.287186 0.0218264 -0.812506)
(0.0257952 -0.000797194 -0.20795)
(0.187846 0.00325934 -0.34651)
(0.0635269 0.0058706 0.19219)
(0.279149 0.025505 0.207404)
(0.060706 0.00375854 0.190191)
(0.00273639 -0.00230614 0.124595)
(0.0342958 3.44319e-05 -0.332612)
(-0.784897 -0.0220006 -1.73119)
(0.031818 -0.000704513 -0.333692)
(0.0337891 0.000101121 -0.329609)
(0.0383119 0.000503572 -0.329346)
(0.0125215 -0.00277572 -0.255871)
(0.0333101 0.00260201 -0.340155)
(-0.127176 -0.00473273 -0.503451)
(-0.121372 -0.00491461 -0.532267)
(-0.277468 -0.00209586 -0.4513)
(4.06328 -1.04136 -8.43652)
(-0.918458 -0.238536 -1.70791)
(0.0374549 0.00208126 -0.339654)
(0.0411268 0.00298798 -0.33906)
(0.0619587 0.00317323 -0.15573)
(16.8335 0.81146 -2.52647)
(-0.569418 -0.0102589 -7.68908)
(-0.761396 -0.109461 -8.29628)
(-0.023805 0.15115 -7.25233)
(0.296128 0.0148265 -0.115735)
(0.113766 0.00293631 -0.618137)
(-0.212465 -0.0143959 -0.683897)
(-8.19256 -0.123284 0.449809)
(0.0244572 -0.00627992 -0.164792)
(0.196033 0.0170198 -1.15077)
(0.767503 0.0103401 0.32483)
(0.119026 0.00193775 0.138453)
(0.00107085 -0.00189754 -0.521037)
(-0.679662 0.0455438 -0.197372)
(-10.0387 -0.543087 1.69415)
(-4.17847 -0.0916751 -0.269492)
(-1.35934 -0.0885156 -2.25849)
(0.0651487 0.00389155 -0.162956)
(-0.0505577 -0.0467461 0.710803)
(-1.27363 -0.0189225 -0.20424)
(0.0752866 0.00055934 -0.16009)
(0.080759 0.00161777 -0.155061)
(1.26157 0.323419 -1.40352)
(-1.46134 -0.0754595 -2.79682)
(-1.62855 -0.0220973 -2.60297)
(-1.31574 -0.0836042 -3.07584)
(0.0197023 -0.00434486 -0.0314575)
(-1.37929 -0.0350013 -2.84946)
(0.0893471 0.0061804 -0.329076)
(-9.07868e-05 -0.0113913 -0.0639419)
(0.0686869 0.00445754 -0.144077)
(2.07185 -0.0248089 -0.270349)
(-0.00396694 -0.00178333 0.00396725)
(0.561942 -0.132511 32.9137)
(0.00432527 0.00159706 0.0380313)
(0.0669304 0.000702869 -0.144958)
(0.0011644 -0.00244071 0.0105625)
(0.0982234 0.00557804 0.234382)
(0.262176 0.0201285 0.260527)
(0.255224 -0.010307 -2.36838)
(0.0526241 -0.0914371 38.8549)
(0.00343334 0.0135087 0.177879)
(0.224341 0.00720137 -0.1205)
(0.187875 -0.00210251 -3.04858)
(-0.00538998 0.0040075 0.0544684)
(-3.37695 -0.0807296 -0.761258)
(0.319192 0.0186596 0.0547444)
(0.261995 0.0125241 0.14804)
(0.392721 0.00366439 0.297481)
(0.00705594 0.0038869 0.0513849)
(0.000560276 -0.00341573 0.00605003)
(-0.00279532 0.00252515 -0.019481)
(-5.26804 -0.120841 -5.64782)
(-6.0368 -0.303985 -0.316892)
(-9.16061 -0.504156 -1.85889)
(0.145778 0.00393791 0.17531)
(-1.55619 -0.0251515 -2.12764)
(-6.34195 -0.415647 1.40441)
(-8.61836 -0.688586 3.97247)
(-3.54106 -0.271798 0.882626)
(-3.05763 -0.193998 0.095666)
(-0.0144567 -0.00252189 -0.790307)
(-0.0282749 0.00172336 -0.760766)
(-0.0369265 -0.00926406 -0.974613)
(-0.0413913 0.0285435 0.152362)
(-3.6412 -0.0191539 -3.9893)
(-0.0505035 -0.00325395 -0.92214)
(0.0010182 -0.000654387 0.0554035)
(0.566235 0.0407392 -1.0663)
(0.0306814 0.00501314 -0.18146)
(0.0390033 -0.00328089 -1.141)
(-5.52987 -0.23387 -2.59706)
(-1.10584 -0.130904 -1.60705)
(0.290401 0.0234008 -0.377274)
(0.157529 0.0117224 -0.21146)
(0.00567056 0.00298432 0.0103016)
(0.00748321 -0.00397056 0.0441673)
(0.0439555 -0.0026317 0.244653)
(0.0401887 0.00176478 0.281883)
(0.0118463 0.0151372 0.0965746)
(0.0271266 -0.00442842 0.132061)
(-0.00401953 0.00178571 0.0392822)
(-0.0013516 0.012413 -0.0249906)
(0.286307 0.0225584 -0.54322)
(0.139238 0.00619756 -0.279839)
(0.0538697 0.00416142 -0.241297)
(0.0474341 0.00123888 -0.32357)
(0.00181417 0.00264949 -0.012621)
(-2.74137 -0.0231267 -0.720058)
(0.16442 0.0103929 -0.0450786)
(-1.71337 -0.077773 -0.281339)
(-8.69523 -0.239895 -3.96256)
(-2.39233 -0.220992 -40.3442)
(-0.559816 -0.00209137 -2.23313)
(0.0605565 0.00145805 -0.45864)
(0.0887855 0.0065944 -0.334686)
(0.125479 0.00343191 -0.359634)
(0.116868 0.00881147 -0.38054)
(0.137362 0.0103378 -0.38338)
(0.0464573 0.00217552 -1.10964)
(0.0465405 -0.000331115 -0.460256)
(0.0423086 0.00201968 -0.781707)
(0.0354248 0.00277809 -0.481465)
(0.371275 0.000632862 -0.298774)
(0.194916 0.0151899 -0.211854)
(0.0215165 0.00206304 -0.378878)
(0.218654 0.0106692 -0.250103)
(0.202043 0.00234749 -0.499873)
(-2.13412 0.103907 -8.94278)
(-0.00487173 0.0336215 0.166982)
(-8.70694 -0.392185 1.00039)
(0.736729 -0.417687 -13.2107)
(0.0246548 -0.00233314 0.164571)
(0.00735875 0.000941108 0.13745)
(-3.79741 -0.128506 -11.9285)
(-0.48556 -0.271286 3.00805)
(0.0109364 0.00937906 0.0811088)
(-0.0815001 0.0194288 0.0956482)
(-0.161376 0.0217243 0.061907)
(0.335127 0.00371977 0.26886)
(0.0963246 0.00420412 0.0389981)
(-1.635 -0.0709766 -0.159828)
(0.384763 0.0291231 -0.117127)
(0.0845395 0.00685185 -0.176144)
(0.0462061 0.00850908 0.200315)
(-0.687585 0.0246135 -0.0938546)
(0.0672069 0.00394504 -0.219917)
(0.138606 0.00325598 -0.0484287)
(-0.343648 0.0172484 0.47404)
(-0.305824 -0.178696 29.8051)
(0.0368005 0.0027527 0.227239)
(0.375255 -0.238423 27.8083)
(-7.592 -0.24262 4.50945)
(0.414539 0.0137905 -0.244573)
(0.289238 0.00822901 -0.0588648)
(0.216743 0.00232534 -0.164912)
(0.315369 0.0164238 -0.108105)
(0.342212 0.000696371 -0.112985)
(0.282498 0.00784466 -0.157564)
(0.157388 0.00493022 -0.221214)
(0.117322 0.00956161 -0.32825)
(0.182585 0.00881202 -0.361339)
(0.0620615 0.00418717 -0.435603)
(-4.56051 0.66025 -7.52899)
(0.0990235 0.00778093 -0.389437)
(0.112047 0.00870135 -0.391688)
(0.834335 0.00493958 -0.27153)
(0.480865 0.0528936 0.226029)
(0.685332 0.0392452 -0.037864)
(0.687757 0.0226393 0.0398938)
(0.102751 0.000968051 -0.413052)
(-2.25089 -0.158023 1.76832)
(0.0274795 -0.0100437 -0.0734351)
(0.118229 -0.0008198 -0.4098)
(0.12228 0.00356525 -0.0536051)
(-5.0025 0.0411895 -3.12289)
(0.11755 0.00243998 0.174874)
(0.386766 0.0122172 0.223964)
(-1.426 -0.0364392 -2.59444)
(0.00315146 0.0114942 0.0770947)
(0.00102304 -9.73602e-05 0.0752294)
(-2.26171 -0.184992 -0.14469)
(-0.206561 -0.0134329 -9.63585)
(0.00373246 0.00128072 0.0276716)
(0.00269538 0.0050333 0.0108933)
(0.00344452 0.000365165 0.0228456)
(0.0103696 0.0116174 0.00501844)
(0.0535682 0.00377626 -0.346063)
(0.0406299 0.00309557 -0.388742)
(-0.000873796 0.00417022 -0.0472167)
(0.0701756 0.00611507 -0.370777)
(0.0462404 0.00359217 -0.348322)
(0.245446 0.00185203 -0.233449)
(0.336151 0.0233299 -0.0500424)
(-2.14648 -0.11031 1.9186)
(0.169632 0.00731055 -0.393732)
(0.289551 0.0236917 -0.210616)
(0.0787576 0.00584916 -0.247253)
(0.130346 0.00645896 -0.219738)
(0.294587 0.013454 0.0330308)
(0.0240732 -0.000104027 -0.318928)
(0.064674 0.00164993 -0.233166)
(-0.168762 -0.0273883 -0.814711)
(-5.84484 0.125666 2.46416)
(-2.48364 -0.213014 0.787852)
(-1.93348 -0.0612616 1.2113)
(0.0272058 -0.000142943 -0.319023)
(0.143852 0.00275786 -0.397832)
(0.0197659 0.00170022 -0.308169)
(14.343 0.875363 -0.522903)
(12.4103 0.41039 -1.13775)
(3.50176 -0.326385 -1.20104)
(10.6517 0.807053 1.9154)
(11.9076 1.20121 -0.185575)
(-0.765848 -0.136315 -1.07872)
(0.022515 0.00210753 -0.308826)
(-0.111822 0.0672643 1.15239)
(-0.00388772 -0.00487778 -0.0242873)
(0.0262957 0.00179111 -0.307875)
(0.107202 -0.105936 0.186062)
(-1.70106 -0.0363307 -2.1037)
(0.295956 0.00180703 0.0757366)
(0.000753008 0.00219332 0.0654122)
(-0.73192 -0.0723728 -0.198119)
(0.136676 0.00209347 0.212497)
(0.0827624 -0.00125639 0.19559)
(-0.523891 -0.0385506 -0.104198)
(-0.000818677 -0.00343976 0.0968083)
(0.0873232 0.00237188 -0.234249)
(-0.52481 -1.33648 -13.9767)
(-1.13884 1.34519 -14.0367)
(0.0101113 -0.00548567 0.0679035)
(0.0150575 -0.00388786 -0.185078)
(0.00482255 0.00433385 -0.0477154)
(0.00263497 -0.00252926 -0.0460934)
(0.00353621 0.00284975 -0.163654)
(0.775272 0.457538 -12.4944)
(0.894191 1.18682 -13.8049)
(2.18247 0.630027 -11.7407)
(3.54721 0.375458 -12.5766)
(0.964155 -1.19556 -1.1558)
(4.18976 0.284425 -10.9324)
(-0.00976846 0.00962964 0.0793587)
(-0.00127126 0.00369136 0.101676)
(0.00578014 -0.00986034 -0.0392721)
(-0.000701602 0.00221257 -0.000420892)
(-0.00287235 0.000496855 -0.00329185)
(-3.97798e-05 -0.00788496 0.00143467)
(0.0099918 -0.00514669 -0.0392477)
(-2.75564 -0.0528254 -50.314)
(-1.89884 -0.124544 -1.95115)
(0.0862419 -0.0920683 40.4704)
(-2.28639 -0.0814714 1.9939)
(-0.220249 -0.579555 -6.08744)
(14.9828 1.32603 -4.9453)
(0.0272153 0.00065551 0.214546)
(0.016543 -0.00240402 0.197405)
(0.0106339 -0.00210279 0.0936932)
(0.00894129 0.00796143 0.0715649)
(0.0589297 0.00223037 0.00769123)
(-0.000972623 -0.00968588 -0.0605042)
(-0.00527025 -0.00220215 0.0413763)
(0.00206039 -0.00277503 -0.0479119)
(0.0582336 0.00431227 -0.370106)
(0.38485 -0.0836116 33.269)
(0.0166917 -0.00477558 0.322425)
(0.000471371 0.000309879 0.0441069)
(-0.168886 0.0631577 0.826664)
(-0.299155 -0.0286967 -0.510047)
(0.112604 0.0142246 0.5797)
(0.863495 -0.20718 24.8456)
(0.252885 -0.374583 -8.52432)
(-0.1903 0.0113117 -0.702384)
(-0.0709155 0.0160004 -0.468306)
(-0.826597 0.25467 -44.0177)
(0.0161852 0.00625713 0.212131)
(-0.637076 1.80893 -14.395)
(-0.758034 -0.0775351 -2.07099)