/*--------------------------------*- C++ -*----------------------------------*\
| =========                 |                                                 |
| \\      /  F ield         | OpenFOAM: The Open Source CFD Toolbox           |
|  \\    /   O peration     | Version:  v2012                                 |
|   \\  /    A nd           | Website:  www.openfoam.com                      |
|    \\/     M anipulation  |                                                 |
\*---------------------------------------------------------------------------*/
FoamFile
{
    version     2.0;
    format      ascii;
    class       volScalarField;
    location    "0.45";
    object      alpha.water;
}
// * * * * * * * * * * * * * * * * * * * * * * * * * * * * * * * * * * * * * //

dimensions      [0 0 0 0 0 0 0];


internalField   nonuniform List<scalar> 
2642
(
-8.20508e-76
-2.59826e-77
-6.93885e-79
-1.56437e-80
-2.97692e-82
-4.78092e-84
-6.47165e-86
-7.37263e-88
-7.05343e-90
-5.6467e-92
-3.7691e-94
-2.08665e-96
-9.52243e-99
-3.55402e-101
-1.07396e-103
-2.59569e-106
-4.93912e-109
-7.24829e-112
-7.98381e-115
-6.35827e-118
-3.46724e-121
-1.18855e-124
-2.19585e-128
-1.4868e-132
-1.04349e-74
-3.38296e-76
-9.24785e-78
-2.1337e-79
-4.15409e-81
-6.82299e-83
-9.44165e-85
-1.09903e-86
-1.07376e-88
-8.7732e-91
-5.97275e-93
-3.37019e-95
-1.56637e-97
-5.94925e-100
-1.82792e-102
-4.48799e-105
-8.66649e-108
-1.28925e-110
-1.43763e-113
-1.15718e-116
-6.36349e-120
-2.19193e-123
-4.03914e-127
-2.66252e-131
-1.29483e-73
-4.302e-75
-1.20507e-76
-2.84846e-78
-5.67987e-80
-9.55149e-82
-1.35268e-83
-1.61063e-85
-1.60876e-87
-1.34298e-89
-9.33505e-92
-5.37408e-94
-2.54623e-96
-9.85001e-99
-3.07951e-101
-7.68526e-104
-1.50661e-106
-2.27203e-109
-2.56369e-112
-2.08315e-115
-1.15235e-118
-3.96923e-122
-7.22521e-126
-4.56613e-130
-1.56575e-72
-5.33626e-74
-1.53315e-75
-3.7163e-77
-7.59718e-79
-1.30934e-80
-1.89961e-82
-2.31604e-84
-2.36742e-86
-2.02124e-88
-1.4359e-90
-8.44176e-93
-4.08107e-95
-1.60934e-97
-5.12352e-100
-1.30047e-102
-2.58931e-105
-3.95918e-108
-4.51988e-111
-3.70485e-114
-2.05831e-117
-7.06803e-121
-1.26413e-124
-7.61843e-129
-1.84285e-71
-6.44812e-73
-1.90182e-74
-4.73165e-76
-9.92574e-78
-1.75482e-79
-2.61059e-81
-3.26217e-83
-3.41572e-85
-2.98534e-87
-2.1695e-89
-1.30371e-91
-6.43643e-94
-2.58945e-96
-8.40091e-99
-2.17015e-101
-4.39074e-104
-6.80928e-107
-7.86511e-110
-6.50091e-113
-3.6238e-116
-1.23827e-119
-2.1699e-123
-1.24382e-127
-2.10855e-70
-7.58065e-72
-2.29714e-73
-5.87092e-75
-1.26483e-76
-2.29584e-78
-3.50526e-80
-4.4932e-82
-4.82346e-84
-4.3194e-86
-3.21387e-88
-1.97575e-90
-9.9697e-93
-4.09524e-95
-1.35493e-97
-3.56453e-100
-7.33261e-103
-1.15384e-105
-1.34872e-108
-1.12405e-111
-6.28381e-115
-2.13472e-118
-3.66097e-122
-1.9943e-126
-2.34252e-69
-8.65984e-71
-2.69814e-72
-7.08918e-74
-1.56978e-75
-2.92776e-77
-4.5913e-79
-6.04215e-81
-6.65548e-83
-6.11158e-85
-4.65966e-87
-2.93291e-89
-1.51384e-91
-6.35405e-94
-2.14551e-96
-5.75222e-99
-1.20383e-101
-1.92308e-104
-2.2757e-107
-1.91274e-110
-1.07236e-113
-3.62127e-117
-6.07862e-121
-3.15017e-125
-2.52388e-68
-9.60073e-70
-3.07783e-71
-8.31956e-73
-1.89486e-74
-3.63397e-76
-5.85773e-78
-7.9202e-80
-8.95863e-82
-8.44231e-84
-6.60077e-86
-4.25709e-88
-2.24937e-90
-9.65452e-93
-3.32943e-95
-9.10332e-98
-1.93949e-100
-3.14721e-103
-3.77232e-106
-3.19906e-109
-1.79937e-112
-6.04302e-116
-9.93972e-120
-4.91317e-124
-2.634e-67
-1.0317e-68
-3.40541e-70
-9.47645e-72
-2.22154e-73
-4.38396e-75
-7.26885e-77
-1.01049e-78
-1.17453e-80
-1.13669e-82
-9.12064e-85
-6.03165e-87
-3.26489e-89
-1.43401e-91
-5.05434e-94
-1.41034e-96
-3.06106e-99
-5.04896e-102
-6.1338e-105
-5.25165e-108
-2.96564e-111
-9.9151e-115
-1.60104e-118
-7.57594e-123
-2.65953e-66
-1.0733e-67
-3.64999e-69
-1.04632e-70
-2.5263e-72
-5.1332e-74
-8.76038e-76
-1.25295e-77
-1.49757e-79
-1.48943e-81
-1.22729e-83
-8.32815e-86
-4.62133e-88
-2.0786e-90
-7.49309e-93
-2.1353e-95
-4.72465e-98
-7.92692e-101
-9.76786e-104
-8.45021e-107
-4.79557e-110
-1.59833e-113
-2.53982e-117
-1.15569e-121
-2.59482e-65
-1.07962e-66
-3.78497e-68
-1.11841e-69
-2.78289e-71
-5.82579e-73
-1.02398e-74
-1.50772e-76
-1.85422e-78
-1.89637e-80
-1.60573e-82
-1.1188e-84
-6.36859e-87
-2.93534e-89
-1.08298e-91
-3.15399e-94
-7.11947e-97
-1.21595e-99
-1.52101e-102
-1.33078e-105
-7.59873e-109
-2.52899e-112
-3.96578e-116
-1.74408e-120
-2.44337e-64
-1.04873e-65
-3.79256e-67
-1.15582e-68
-2.96561e-70
-6.40003e-72
-1.15925e-73
-1.75821e-75
-2.22618e-77
-2.34264e-79
-2.03959e-81
-1.46003e-83
-8.53097e-86
-4.03184e-88
-1.52344e-90
-4.53734e-93
-1.04563e-95
-1.81935e-98
-2.31223e-101
-2.04815e-104
-1.17824e-107
-3.9232e-111
-6.08962e-115
-2.60204e-119
-2.21772e-63
-9.82534e-65
-3.66731e-66
-1.15338e-67
-3.05331e-69
-6.79656e-71
-1.26934e-72
-1.98418e-74
-2.58796e-76
-2.80371e-78
-2.51131e-80
-1.84803e-82
-1.10904e-84
-5.37782e-87
-2.0824e-89
-6.34696e-92
-1.49432e-94
-2.65088e-97
-3.42606e-100
-3.07578e-103
-1.78518e-106
-5.95897e-110
-9.18541e-114
-3.834e-118
-1.93777e-62
-8.86685e-64
-3.41783e-65
-1.1099e-66
-3.03316e-68
-6.96783e-70
-1.34249e-71
-2.16397e-73
-2.90898e-75
-3.24619e-77
-2.99298e-79
-2.26537e-81
-1.39708e-83
-6.95476e-86
-2.76145e-88
-8.61874e-91
-2.07455e-93
-3.7551e-96
-4.93983e-99
-4.49977e-102
-2.63885e-105
-8.84905e-109
-1.35896e-112
-5.57092e-117
-1.62782e-61
-7.69764e-63
-3.06598e-64
-1.02862e-65
-2.90343e-67
-6.88692e-69
-1.36958e-70
-2.27763e-72
-3.1572e-74
-3.63085e-76
-3.44761e-78
-2.68534e-80
-1.70275e-82
-8.70667e-85
-3.54693e-87
-1.13431e-89
-2.79325e-92
-5.16286e-95
-6.9193e-98
-6.4025e-101
-3.79946e-104
-1.2827e-107
-1.96892e-111
-7.96896e-116
-1.3129e-60
-6.4199e-62
-2.64377e-63
-9.16863e-65
-2.67448e-66
-6.55371e-68
-1.34591e-69
-2.31033e-71
-3.30394e-73
-3.91757e-75
-3.83276e-77
-3.07361e-79
-2.00485e-81
-1.05353e-83
-4.40581e-86
-1.44455e-88
-3.64155e-91
-6.8782e-94
-9.39972e-97
-8.84499e-100
-5.31937e-103
-1.81172e-106
-2.78822e-110
-1.11975e-114
-1.01522e-59
-5.13662e-61
-2.18834e-62
-7.8494e-64
-2.36746e-65
-5.99638e-67
-1.27231e-68
-2.25541e-70
-3.32905e-72
-4.07174e-74
-4.10634e-76
-3.3919e-78
-2.27698e-80
-1.23025e-82
-5.28413e-85
-1.77723e-87
-4.58929e-90
-8.86442e-93
-1.23632e-95
-1.18435e-98
-7.22875e-102
-2.48881e-105
-3.85149e-109
-1.54198e-113
-7.51544e-59
-3.9371e-60
-1.73631e-61
-6.44526e-63
-2.01112e-64
-5.26776e-66
-1.15537e-67
-2.11605e-69
-3.22517e-71
-4.07076e-73
-4.23367e-75
-3.60363e-77
-2.49074e-79
-1.38428e-81
-6.10959e-84
-2.10898e-86
-5.58176e-89
-1.10328e-91
-1.57167e-94
-1.53435e-97
-9.51785e-101
-3.31891e-104
-5.17881e-108
-2.07593e-112
-5.31795e-58
-2.88648e-59
-1.31859e-60
-5.06853e-62
-1.6371e-63
-4.43684e-65
-1.00641e-66
-1.90526e-68
-2.99988e-70
-3.90906e-72
-4.19429e-74
-3.68039e-76
-2.62018e-78
-1.49855e-80
-6.7992e-83
-2.40999e-85
-6.54103e-88
-1.32387e-90
-1.92775e-93
-1.91979e-96
-1.21187e-99
-4.28764e-103
-6.76324e-107
-2.72511e-111
-3.59101e-57
-2.02098e-58
-9.56964e-60
-3.81153e-61
-1.2751e-62
-3.57758e-64
-8.39676e-66
-1.64388e-67
-2.67507e-69
-3.60024e-71
-3.98688e-73
-3.60786e-75
-2.64668e-77
-1.55832e-79
-7.27143e-82
-2.6477e-84
-7.37304e-87
-1.52891e-89
-2.27733e-92
-2.31566e-95
-1.4893e-98
-5.35488e-102
-8.55829e-106
-3.47858e-110
-2.30997e-56
-1.34902e-57
-6.6262e-59
-2.73651e-60
-9.48772e-62
-2.75741e-63
-6.69998e-65
-1.35712e-66
-2.28344e-68
-3.17535e-70
-3.63061e-72
-3.38952e-74
-2.5631e-76
-1.55416e-78
-7.46103e-81
-2.79199e-83
-7.98065e-86
-1.69645e-88
-2.58646e-91
-2.68759e-94
-1.76297e-97
-6.45149e-101
-1.04687e-104
-4.30581e-109
-1.41283e-55
-8.56933e-57
-4.36973e-58
-1.87255e-59
-6.73301e-61
-2.02818e-62
-5.10464e-64
-1.07032e-65
-1.86289e-67
-2.6778e-69
-3.16242e-71
-3.04705e-73
-2.37592e-75
-1.48418e-77
-7.33301e-80
-2.82115e-82
-8.28088e-85
-1.80532e-87
-2.81907e-90
-2.99563e-93
-2.0062e-96
-7.48182e-100
-1.23489e-103
-5.15373e-108
-8.19892e-55
-5.16991e-56
-2.73929e-57
-1.21903e-58
-4.54899e-60
-1.42119e-61
-3.70726e-63
-8.05071e-65
-1.45016e-66
-2.15567e-68
-2.63057e-70
-2.61678e-72
-2.10471e-74
-1.35491e-76
-6.89196e-79
-2.72686e-81
-8.22242e-84
-1.83926e-86
-2.94312e-89
-3.20039e-92
-2.19009e-95
-8.3333e-99
-1.40126e-102
-5.94799e-107
-4.50397e-54
-2.95578e-55
-1.62896e-56
-7.53481e-58
-2.92043e-59
-9.46968e-61
-2.56187e-62
-5.76526e-64
-1.07531e-65
-1.65375e-67
-2.08611e-69
-2.14323e-71
-1.77873e-73
-1.18041e-75
-6.18344e-78
-2.51687e-80
-7.79881e-83
-1.79061e-85
-2.93751e-88
-3.27065e-91
-2.28871e-94
-8.89405e-98
-1.5257e-101
-6.60012e-106
-2.33591e-53
-1.5975e-54
-9.1677e-56
-4.41215e-57
-1.77784e-58
-5.98803e-60
-1.68126e-61
-3.92331e-63
-7.58121e-65
-1.20686e-66
-1.57438e-68
-1.67118e-70
-1.43162e-72
-9.79675e-75
-5.28651e-77
-2.21427e-79
-7.05274e-82
-1.6627e-84
-2.79751e-87
-3.19074e-90
-2.28466e-93
-9.07511e-97
-1.58995e-100
-7.02114e-105
-1.14028e-52
-8.13894e-54
-4.87019e-55
-2.44162e-56
-1.02387e-57
-3.5854e-59
-1.04562e-60
-2.53195e-62
-5.07204e-64
-8.36213e-66
-1.12864e-67
-1.23828e-69
-1.0953e-71
-7.73133e-74
-4.29883e-76
-1.85335e-78
-6.06953e-81
-1.46966e-83
-2.53685e-86
-2.9652e-89
-2.17362e-92
-8.83154e-96
-1.58172e-99
-7.13959e-104
-5.22034e-52
-3.89603e-53
-2.43474e-54
-1.27331e-55
-5.56366e-57
-2.02783e-58
-6.14845e-60
-1.5462e-61
-3.21322e-63
-5.48973e-65
-7.67001e-67
-8.70157e-69
-7.9503e-71
-5.79031e-73
-3.31835e-75
-1.47291e-77
-4.96084e-80
-1.23402e-82
-2.18591e-85
-2.61924e-88
-1.96646e-91
-8.17698e-95
-1.49819e-98
-6.91952e-103
-2.23177e-51
-1.74548e-52
-1.14141e-53
-6.23763e-55
-2.84418e-56
-1.08036e-57
-3.40946e-59
-8.91302e-61
-1.92309e-62
-3.40712e-64
-4.93048e-66
-5.7868e-68
-5.46343e-70
-4.10699e-72
-2.42653e-74
-1.10915e-76
-3.84272e-79
-9.82189e-82
-1.78577e-84
-2.19411e-87
-1.68765e-90
-7.18495e-94
-1.34745e-97
-6.3727e-102
-9.00358e-50
-8.86345e-51
-7.28452e-52
-4.99692e-53
-2.8596e-54
-1.36317e-55
-5.4049e-57
-1.77776e-58
-4.83666e-60
-1.08453e-61
-1.99413e-63
-2.99091e-65
-3.6336e-67
-3.54648e-69
-2.75264e-71
-1.67717e-73
-7.89635e-76
-2.81468e-78
-7.3934e-81
-1.37995e-83
-1.73885e-86
-1.37054e-89
-5.9757e-93
-1.1475e-96
-5.56025e-101
-2.49314e-48
-3.1177e-49
-3.2469e-50
-2.81556e-51
-2.0327e-52
-1.22148e-53
-6.1015e-55
-2.53007e-56
-8.68743e-58
-2.46316e-59
-5.74654e-61
-1.09764e-62
-1.70764e-64
-2.14878e-66
-2.16924e-68
-1.73911e-70
-1.09308e-72
-5.30228e-75
-1.94487e-77
-5.25073e-80
-1.00618e-82
-1.30043e-85
-1.05046e-88
-4.69136e-92
-9.22638e-96
-4.58178e-100
-7.3335e-48
-9.81224e-49
-1.08841e-49
-1.00111e-50
-7.63886e-52
-4.83661e-53
-2.53873e-54
-1.10356e-55
-3.96358e-57
-1.1731e-58
-2.85149e-60
-5.66451e-62
-9.14949e-64
-1.19339e-65
-1.24684e-67
-1.033e-69
-6.70007e-72
-3.34937e-74
-1.26443e-76
-3.50904e-79
-6.90421e-82
-9.15294e-85
-7.57763e-88
-3.46655e-91
-6.98275e-95
-3.55415e-99
-1.91107e-47
-2.77119e-48
-3.30504e-49
-3.2474e-50
-2.6333e-51
-1.76442e-52
-9.76661e-54
-4.4635e-55
-1.68094e-56
-5.20388e-58
-1.32012e-59
-2.73115e-61
-4.58531e-63
-6.20498e-65
-6.7143e-67
-5.75177e-69
-3.85138e-71
-1.98471e-73
-7.71284e-76
-2.2005e-78
-4.4457e-81
-6.04539e-84
-5.12936e-87
-2.40353e-90
-4.95845e-94
-2.5866e-98
-4.30319e-47
-6.90174e-48
-8.97352e-49
-9.51155e-50
-8.25631e-51
-5.88717e-52
-3.45182e-53
-1.66458e-54
-6.59272e-56
-2.14015e-57
-5.6777e-59
-1.22541e-60
-2.14138e-62
-3.00977e-64
-3.376e-66
-2.99231e-68
-2.06958e-70
-1.09979e-72
-4.40056e-75
-1.29087e-77
-2.67797e-80
-3.73519e-83
-3.24771e-86
-1.55857e-89
-3.29234e-93
-1.75977e-97
-8.05481e-47
-1.4795e-47
-2.14196e-48
-2.48351e-49
-2.33027e-50
-1.78111e-51
-1.11244e-52
-5.68614e-54
-2.37718e-55
-8.11643e-57
-2.25748e-58
-5.09334e-60
-9.27964e-62
-1.35652e-63
-1.57894e-65
-1.4492e-67
-1.03592e-69
-5.67922e-72
-2.34038e-74
-7.0597e-77
-1.50395e-79
-2.15146e-82
-1.91672e-85
-9.41826e-89
-2.03659e-92
-1.11495e-96
-1.16744e-46
-2.63132e-47
-4.3927e-48
-5.68722e-49
-5.84635e-50
-4.83578e-51
-3.24045e-52
-1.76554e-53
-7.82678e-55
-2.82113e-56
-8.25162e-58
-1.95107e-59
-3.71364e-61
-5.6553e-63
-6.83953e-65
-6.50709e-67
-4.81092e-69
-2.72237e-71
-1.15582e-73
-3.58585e-76
-7.84473e-79
-1.15089e-81
-1.05036e-84
-5.28307e-88
-1.16897e-91
-6.55129e-96
-1.06606e-46
-3.62527e-47
-7.47396e-48
-1.11736e-48
-1.28329e-49
-1.1636e-50
-8.44357e-52
-4.93871e-53
-2.33466e-54
-8.92445e-56
-2.75528e-57
-6.84804e-59
-1.36506e-60
-2.1698e-62
-2.73082e-64
-2.69633e-66
-2.06368e-68
-1.20613e-70
-5.27785e-73
-1.68446e-75
-3.7845e-78
-5.69355e-81
-5.32187e-84
-2.73901e-87
-6.1985e-91
-3.55388e-95
2.95951e-67
-3.13651e-47
-9.83616e-48
-1.81962e-48
-2.41194e-49
-2.44289e-50
-1.94379e-51
-1.23175e-52
-6.25326e-54
-2.54926e-55
-8.34488e-57
-2.18808e-58
-4.58114e-60
-7.61837e-62
-9.99603e-64
-1.02574e-65
-8.13567e-68
-4.91475e-70
-2.21771e-72
-7.28322e-75
-1.68061e-77
-2.59248e-80
-2.4812e-83
-1.30615e-86
-3.02147e-90
-1.77091e-94
7.24314e-46
3.62276e-49
-7.8772e-48
-2.28147e-48
-3.74996e-49
-4.38073e-50
-3.8933e-51
-2.70615e-52
-1.48883e-53
-6.5182e-55
-2.27474e-56
-6.31965e-58
-1.39448e-59
-2.4327e-61
-3.33475e-63
-3.56206e-65
-2.9313e-67
-1.83188e-69
-8.52872e-72
-2.88307e-74
-6.83334e-77
-1.0807e-79
-1.05874e-82
-5.69791e-86
-1.34646e-89
-8.06032e-94
2.43467e-42
2.09259e-45
9.74716e-49
-1.72608e-48
-4.49003e-49
-6.49301e-50
-6.6502e-51
-5.16288e-52
-3.11586e-53
-1.47796e-54
-5.53535e-56
-1.6377e-57
-3.82353e-59
-7.01847e-61
-1.00748e-62
-1.12217e-64
-9.59365e-67
-6.20793e-69
-2.98382e-71
-1.03856e-73
-2.52858e-76
-4.09934e-79
-4.10943e-82
-2.25978e-85
-5.4509e-89
-3.32948e-93
2.52431e-40
6.02178e-43
4.22952e-46
1.73084e-49
-3.36911e-49
-7.49679e-50
-9.42274e-51
-8.41121e-52
-5.66437e-53
-2.94419e-54
-1.19289e-55
-3.78048e-57
-9.37908e-59
-1.81733e-60
-2.73832e-62
-3.18606e-64
-2.83329e-66
-1.9e-68
-9.43303e-71
-3.3815e-73
-8.45708e-76
-1.40515e-78
-1.44074e-81
-8.09e-85
-1.99021e-88
-1.23897e-92
3.5106e-39
5.0066e-41
5.90814e-44
3.28653e-47
9.07645e-51
-5.88509e-50
-1.06516e-50
-1.14893e-51
-8.84725e-53
-5.11237e-54
-2.26179e-55
-7.72648e-57
-2.04581e-58
-4.19718e-60
-6.65267e-62
-8.09768e-64
-7.49802e-66
-5.21412e-68
-2.67477e-70
-9.87564e-73
-2.53669e-75
-4.31785e-78
-4.52552e-81
-2.59276e-84
-6.49854e-88
-4.11786e-92
8.86033e-39
7.2683e-40
3.06063e-42
2.65848e-45
1.46742e-48
-9.26095e-51
-9.00658e-51
-1.29262e-51
-1.17886e-52
-7.70726e-54
-3.76035e-55
-1.39287e-56
-3.95045e-58
-8.60086e-60
-1.43602e-61
-1.83005e-63
-1.7651e-65
-1.27297e-67
-6.74642e-70
-2.56468e-72
-6.76251e-75
-1.17845e-77
-1.2615e-80
-7.36654e-84
-1.87881e-87
-1.21001e-91
2.24245e-39
1.5186e-39
1.52426e-39
3.81679e-41
1.00428e-43
8.55261e-47
4.21135e-50
-4.614e-51
-1.16445e-51
-1.3348e-52
-1.00925e-53
-5.48332e-55
-2.2123e-56
-6.73428e-58
-1.55698e-59
-2.73821e-61
-3.65199e-63
-3.66674e-65
-2.74039e-67
-1.49916e-69
-5.86253e-72
-1.58524e-74
-2.82505e-77
-3.0849e-80
-1.83363e-83
-4.75147e-87
-3.10466e-91
9.56243e-18
8.29145e-18
6.58977e-18
4.22606e-18
1.63419e-18
2.23799e-19
5.70999e-21
2.19736e-23
2.98038e-26
2.74941e-29
1.81952e-32
8.17888e-36
3.64917e-39
1.18524e-40
8.5453e-43
1.19586e-45
8.98794e-49
3.85929e-52
-7.57707e-52
-1.26251e-52
-1.14411e-53
-7.00342e-55
-3.08871e-56
-1.00938e-57
-2.47545e-59
-4.57797e-61
-6.37798e-63
-6.65372e-65
-5.14388e-67
-2.89968e-69
-1.16449e-71
-3.22377e-74
-5.86549e-77
-6.52276e-80
-3.93937e-83
-1.03516e-86
-6.84764e-91
1.13365e-17
1.02162e-17
8.93423e-18
7.12179e-18
4.38517e-18
1.43348e-18
1.33404e-19
1.94057e-21
5.07902e-24
6.56435e-27
6.30108e-30
4.69055e-33
2.70602e-36
1.35262e-39
1.93369e-42
4.57022e-45
6.16116e-48
4.89275e-51
-2.93588e-52
-9.5862e-53
-1.09795e-53
-7.71545e-55
-3.74139e-56
-1.31335e-57
-3.41093e-59
-6.61663e-61
-9.60267e-63
-1.03802e-64
-8.27908e-67
-4.79722e-69
-1.97384e-71
-5.58214e-74
-1.03472e-76
-1.16934e-79
-7.16018e-83
-1.90364e-86
-1.2717e-90
1.29517e-17
1.16735e-17
1.05015e-17
9.17742e-18
7.14679e-18
3.94833e-18
9.54843e-19
5.11361e-20
3.91576e-22
7.66111e-25
9.48259e-28
9.14974e-31
7.12404e-34
4.53571e-37
2.41945e-40
1.22064e-43
8.0956e-47
7.51587e-50
5.311e-53
-4.72178e-53
-8.29213e-54
-7.01358e-55
-3.79435e-56
-1.43683e-57
-3.95276e-59
-8.031e-61
-1.21145e-62
-1.35351e-64
-1.11091e-66
-6.6001e-69
-2.77566e-71
-8.0003e-74
-1.50738e-76
-1.72723e-79
-1.06984e-82
-2.87078e-86
-1.93159e-90
1.48574e-17
1.31368e-17
1.17261e-17
1.05104e-17
9.0728e-18
6.63018e-18
2.96978e-18
4.4879e-19
1.17766e-20
4.82993e-23
7.87099e-26
9.34696e-29
8.94219e-32
7.08332e-35
4.76441e-38
2.89316e-41
1.88913e-44
1.58145e-47
1.30007e-50
6.68861e-54
-3.7446e-54
-4.70656e-55
-2.9848e-56
-1.23937e-57
-3.63419e-59
-7.7511e-61
-1.21579e-62
-1.40325e-64
-1.184e-66
-7.20317e-69
-3.09174e-71
-9.06806e-74
-1.73381e-76
-2.01074e-79
-1.25737e-82
-3.39795e-86
-2.29691e-90
1.73134e-17
1.49687e-17
1.3031e-17
1.15452e-17
1.02904e-17
8.59106e-18
5.4998e-18
1.72128e-18
1.33924e-19
1.53981e-21
3.87513e-24
5.58912e-27
6.23521e-30
5.64326e-33
4.25655e-36
2.78071e-39
1.70451e-42
1.10694e-45
7.12739e-49
3.47869e-52
7.25046e-56
-1.98515e-55
-1.65584e-56
-7.72177e-58
-2.43401e-59
-5.47167e-61
-8.9444e-63
-1.06789e-64
-9.27007e-67
-5.77733e-69
-2.53103e-71
-7.55233e-74
-1.46457e-76
-1.71764e-79
-1.08309e-82
-2.94307e-86
-1.99449e-90
2.03604e-17
1.73214e-17
1.47092e-17
1.26506e-17
1.11817e-17
9.8313e-18
7.60498e-18
3.79331e-18
6.80587e-19
2.25331e-20
1.14572e-22
2.07404e-25
2.56559e-28
2.45489e-31
1.87886e-34
1.17185e-37
5.99934e-41
2.55482e-44
8.84125e-48
2.49271e-51
5.78386e-55
-5.072e-56
-5.71948e-57
-3.01402e-58
-1.0253e-59
-2.43899e-61
-4.17269e-63
-5.17502e-65
-4.63952e-67
-2.97186e-69
-1.33249e-71
-4.05328e-74
-7.98326e-77
-9.47496e-80
-6.02496e-83
-1.64515e-86
-1.11621e-90
2.39877e-17
2.01799e-17
1.68516e-17
1.40782e-17
1.2064e-17
1.06663e-17
9.02693e-18
5.94378e-18
1.92708e-18
1.57813e-19
1.95387e-21
5.12901e-24
7.10998e-27
7.20319e-30
5.56408e-33
3.23912e-36
1.34582e-39
3.63231e-43
4.24584e-47
2.59434e-53
2.86765e-59
-4.65528e-75
-3.83522e-58
-3.23963e-59
-1.4046e-60
-3.9362e-62
-7.6053e-64
-1.036e-65
-9.99768e-68
-6.78761e-70
-3.18633e-72
-1.00467e-74
-2.03401e-77
-2.46364e-80
-1.58868e-83
-4.37396e-87
-2.97573e-91
-4.78697e-76
-1.51813e-77
-4.06019e-79
-9.16678e-81
-1.74683e-82
-2.80922e-84
-3.80774e-86
-4.34348e-88
-4.1607e-90
-3.33502e-92
-2.22878e-94
-1.23536e-96
-5.64405e-99
-2.10889e-101
-6.3797e-104
-1.5436e-106
-2.9403e-109
-4.31943e-112
-4.76257e-115
-3.79665e-118
-2.07237e-121
-7.11075e-125
-1.31493e-128
-8.91146e-133
-6.07987e-75
-1.97407e-76
-5.40447e-78
-1.24876e-79
-2.43467e-81
-4.00444e-83
-5.54885e-85
-6.46757e-87
-6.32701e-89
-5.17603e-91
-3.52816e-93
-1.9932e-95
-9.27472e-98
-3.5267e-100
-1.0848e-102
-2.66639e-105
-5.15444e-108
-7.67594e-111
-8.5682e-114
-6.90369e-117
-3.80019e-120
-1.31025e-123
-2.41674e-127
-1.59454e-131
-7.53409e-74
-2.50706e-75
-7.03341e-77
-1.66499e-78
-3.32484e-80
-5.59912e-82
-7.94043e-84
-9.46743e-86
-9.46885e-88
-7.91469e-90
-5.50843e-92
-3.17503e-94
-1.50612e-96
-5.83321e-99
-1.82578e-101
-4.56155e-104
-8.95217e-107
-1.35147e-109
-1.52656e-112
-1.24169e-115
-6.87568e-119
-2.37062e-122
-4.31941e-126
-2.73231e-130
-9.09794e-73
-3.10561e-74
-8.93657e-76
-2.16949e-77
-4.44164e-79
-7.66606e-81
-1.11378e-82
-1.3598e-84
-1.39184e-86
-1.18987e-88
-8.46377e-91
-4.98213e-93
-2.41149e-95
-9.52086e-98
-3.0346e-100
-7.7113e-103
-1.53708e-105
-2.35283e-108
-2.68889e-111
-2.20633e-114
-1.22703e-117
-4.21769e-121
-7.55079e-125
-4.55494e-129
-1.0693e-71
-3.74755e-73
-1.10707e-74
-2.75863e-76
-5.79565e-78
-1.02615e-79
-1.52878e-81
-1.91304e-83
-2.00583e-85
-1.75544e-87
-1.27738e-89
-7.68587e-92
-3.79923e-94
-1.53033e-96
-4.97071e-99
-1.28554e-101
-2.60391e-104
-4.04268e-107
-4.6746e-110
-3.86789e-113
-2.15832e-116
-7.38258e-120
-1.29498e-123
-7.43027e-128
-1.22171e-70
-4.39959e-72
-1.33536e-73
-3.41829e-75
-7.37578e-77
-1.34083e-78
-2.05017e-80
-2.63177e-82
-2.82917e-84
-2.53697e-86
-1.89016e-88
-1.1635e-90
-5.87848e-93
-2.41768e-95
-8.0087e-98
-2.1094e-100
-4.34426e-103
-6.8437e-106
-8.00845e-109
-6.68157e-112
-3.73917e-115
-1.27157e-118
-2.18291e-122
-1.19031e-126
-1.35528e-69
-5.01872e-71
-1.56629e-72
-4.12201e-74
-9.14197e-76
-1.70768e-77
-2.682e-79
-3.53469e-81
-3.89905e-83
-3.58539e-85
-2.73733e-87
-1.72522e-89
-8.91636e-92
-3.74718e-94
-1.26683e-96
-3.40052e-99
-7.12499e-102
-1.1395e-104
-1.34995e-107
-1.13589e-110
-6.37512e-114
-2.15508e-117
-3.62122e-121
-1.87854e-125
-1.458e-68
-5.55587e-70
-1.78415e-71
-4.83071e-73
-1.10202e-74
-2.1168e-76
-3.41739e-78
-4.62756e-80
-5.24191e-82
-4.94682e-84
-3.87312e-86
-2.50129e-88
-1.32338e-90
-5.68735e-93
-1.96379e-95
-5.37595e-98
-1.14673e-100
-1.86297e-103
-2.23556e-106
-1.89795e-109
-1.0687e-112
-3.59297e-116
-5.916e-120
-2.92725e-124
-1.51927e-67
-5.96143e-69
-1.97118e-70
-5.49466e-72
-1.29023e-73
-2.55025e-75
-4.23509e-77
-5.89647e-79
-6.86391e-81
-6.65243e-83
-5.34534e-85
-3.53984e-87
-1.91866e-89
-8.43821e-92
-2.97795e-94
-8.31992e-97
-1.80798e-99
-2.98566e-102
-3.63139e-105
-3.11266e-108
-1.7597e-111
-5.88963e-115
-9.52039e-119
-4.50963e-123
-1.53158e-66
-6.19233e-68
-2.10961e-69
-6.05805e-71
-1.46517e-72
-2.98201e-74
-5.09731e-76
-7.30181e-78
-8.74063e-80
-8.70598e-82
-7.18408e-84
-4.88183e-86
-2.71266e-88
-1.22174e-90
-4.40994e-93
-1.2583e-95
-2.78761e-98
-4.68266e-101
-5.77699e-104
-5.00347e-107
-2.84273e-110
-9.48509e-114
-1.50886e-117
-6.873e-122
-1.49191e-65
-6.21905e-67
-2.1843e-68
-6.46585e-70
-1.61167e-71
-3.37962e-73
-5.95004e-75
-8.77484e-77
-1.08083e-78
-1.10707e-80
-9.38781e-83
-6.55033e-85
-3.73389e-87
-1.72333e-89
-6.36658e-92
-1.85655e-94
-4.19607e-97
-7.17539e-100
-8.98639e-103
-7.87178e-106
-4.49994e-109
-1.49934e-112
-2.35375e-116
-1.03625e-120
-1.40251e-64
-6.03142e-66
-2.18527e-67
-6.67204e-69
-1.71497e-70
-3.70745e-72
-6.72666e-74
-1.02189e-75
-1.29593e-77
-1.36584e-79
-1.19094e-81
-8.53772e-84
-4.99571e-86
-2.36431e-88
-8.94571e-91
-2.66786e-93
-6.15602e-96
-1.07246e-98
-1.36468e-101
-1.21027e-104
-6.97047e-108
-2.32363e-111
-3.61079e-115
-1.54455e-119
-1.27083e-63
-5.64146e-65
-2.10975e-66
-6.64769e-68
-1.76304e-69
-3.93142e-71
-7.35507e-73
-1.15164e-74
-1.50451e-76
-1.63252e-78
-1.46451e-80
-1.07932e-82
-6.48663e-85
-3.14986e-87
-1.22138e-89
-3.72765e-92
-8.78783e-95
-1.56093e-97
-2.01991e-100
-1.81561e-103
-1.05504e-106
-3.52584e-110
-5.44108e-114
-2.27365e-118
-1.10849e-62
-5.08257e-64
-1.96302e-65
-6.387e-67
-1.74872e-68
-4.0245e-70
-7.76769e-72
-1.25422e-73
-1.68883e-75
-1.88764e-77
-1.74314e-79
-1.32138e-81
-8.1612e-84
-4.06858e-86
-1.61774e-88
-5.05607e-91
-1.21863e-93
-2.2087e-96
-2.90925e-99
-2.65338e-102
-1.55794e-105
-5.23056e-109
-8.04198e-113
-3.30046e-117
-9.2953e-62
-4.40477e-63
-1.758e-64
-5.90971e-66
-1.67131e-67
-3.97172e-69
-7.91273e-71
-1.3182e-72
-1.83038e-74
-2.10845e-76
-2.00526e-78
-1.56433e-80
-9.93432e-83
-5.08721e-85
-2.07541e-87
-6.64648e-90
-1.63893e-92
-3.03333e-95
-4.07056e-98
-3.77131e-101
-2.2408e-104
-7.57406e-108
-1.16398e-111
-4.71651e-116
-7.48328e-61
-3.66713e-62
-1.51332e-63
-5.25891e-65
-1.53705e-66
-3.77369e-68
-7.76422e-70
-1.33518e-71
-1.91272e-73
-2.2718e-75
-2.22628e-77
-1.78816e-79
-1.16819e-81
-6.14794e-84
-2.57482e-86
-8.45422e-89
-2.13419e-91
-4.03654e-94
-5.52362e-97
-5.20435e-100
-3.13384e-103
-1.06867e-106
-1.64664e-110
-6.6207e-115
-5.7757e-60
-2.92878e-61
-1.25044e-62
-4.4946e-64
-1.35837e-65
-3.44729e-67
-7.32839e-69
-1.30149e-70
-1.92446e-72
-2.35787e-74
-2.38191e-76
-1.9707e-78
-1.32503e-80
-7.17009e-83
-3.0843e-85
-1.03887e-87
-2.68644e-90
-5.19617e-93
-7.25687e-96
-6.96095e-99
-4.25413e-102
-1.4665e-105
-2.27223e-109
-9.10796e-114
-4.26736e-59
-2.24065e-60
-9.90351e-62
-3.68416e-63
-1.15197e-64
-3.02348e-66
-6.64432e-68
-1.2192e-69
-1.86165e-71
-2.35391e-73
-2.45233e-75
-2.09087e-77
-1.4475e-79
-8.05742e-82
-3.56162e-84
-1.23127e-86
-3.26349e-89
-6.45965e-92
-9.21474e-95
-9.008e-98
-5.59513e-101
-1.95354e-104
-3.05208e-108
-1.22492e-112
-3.01358e-58
-1.63957e-59
-7.50704e-61
-2.89204e-62
-9.36115e-64
-2.54232e-65
-5.77832e-67
-1.09604e-68
-1.72898e-70
-2.25709e-72
-2.42605e-74
-2.13244e-76
-1.52066e-78
-8.71109e-81
-3.95856e-83
-1.40525e-85
-3.81968e-88
-7.74194e-91
-1.12893e-93
-1.1258e-96
-7.11613e-100
-2.52099e-103
-3.98161e-107
-1.6063e-111
-2.03075e-57
-1.14568e-58
-5.4378e-60
-2.17081e-61
-7.27825e-63
-2.04646e-64
-4.81307e-66
-9.44166e-68
-1.53939e-69
-2.07566e-71
-2.30273e-73
-2.08746e-75
-1.53393e-77
-9.04642e-80
-4.22798e-82
-1.5419e-84
-4.3002e-87
-8.9302e-90
-1.33207e-92
-1.35638e-95
-8.73534e-99
-3.14502e-102
-5.03294e-106
-2.04826e-110
-1.30352e-56
-7.63177e-58
-3.7578e-59
-1.55559e-60
-5.4057e-62
-1.57453e-63
-3.83396e-65
-7.78189e-67
-1.31195e-68
-1.82789e-70
-2.09384e-72
-1.95831e-74
-1.48341e-76
-9.00996e-79
-4.33246e-81
-1.62383e-83
-4.64872e-86
-9.89662e-89
-1.51108e-91
-1.57239e-94
-1.03287e-97
-3.78484e-101
-6.1497e-105
-2.53264e-109
-7.95482e-56
-4.83753e-57
-2.47305e-58
-1.06237e-59
-3.82895e-61
-1.15602e-62
-2.91595e-64
-6.127e-66
-1.06858e-67
-1.53906e-69
-1.82106e-71
-1.75785e-73
-1.37311e-75
-8.59231e-78
-4.25238e-80
-1.63863e-82
-4.81743e-85
-1.05186e-87
-1.64497e-90
-1.75053e-93
-1.17401e-96
-4.38432e-100
-7.24616e-104
-3.02809e-108
-4.60554e-55
-2.91198e-56
-1.54699e-57
-6.90191e-59
-2.58188e-60
-8.08533e-62
-2.11391e-63
-4.60062e-65
-8.30452e-67
-1.23698e-68
-1.51244e-70
-1.50736e-72
-1.2146e-74
-7.83288e-77
-3.99113e-79
-1.58175e-81
-4.7772e-84
-1.07028e-86
-1.71523e-89
-1.86793e-92
-1.28011e-95
-4.87767e-99
-8.2131e-103
-3.49093e-107
-2.52374e-54
-1.66094e-55
-9.17879e-57
-4.25695e-58
-1.65418e-59
-5.37694e-61
-1.45808e-62
-3.2887e-64
-6.1473e-66
-9.47393e-68
-1.19749e-69
-1.23268e-71
-1.02496e-73
-6.81421e-76
-3.57581e-78
-1.45795e-80
-4.52509e-83
-1.04063e-85
-1.70982e-88
-1.9066e-91
-1.33615e-94
-5.19982e-98
-8.93231e-102
-3.86935e-106
-1.30545e-53
-8.95441e-55
-5.15354e-56
-2.48714e-57
-1.00485e-58
-3.39313e-60
-9.5503e-62
-2.23385e-63
-4.32633e-65
-6.90207e-67
-9.02268e-69
-9.5966e-71
-8.23681e-73
-5.64708e-75
-3.05276e-77
-1.28089e-79
-4.08669e-82
-9.65026e-85
-1.62625e-87
-1.85771e-90
-1.33217e-93
-5.2994e-97
-9.2977e-101
-4.11154e-105
-6.35442e-53
-4.54985e-54
-2.73082e-55
-1.37307e-56
-5.77392e-58
-2.02734e-59
-5.92755e-61
-1.43886e-62
-2.8891e-64
-4.77389e-66
-6.45723e-68
-7.09918e-70
-6.29198e-72
-4.44979e-74
-2.47879e-76
-1.07059e-78
-3.51215e-81
-8.51849e-84
-1.47281e-86
-1.72422e-89
-1.26587e-92
-5.15099e-96
-9.23881e-100
-4.17613e-104
-2.90007e-52
-2.17163e-53
-1.36149e-54
-7.1423e-56
-3.13001e-57
-1.14403e-58
-3.47807e-60
-8.76902e-62
-1.82678e-63
-3.12833e-65
-4.38054e-67
-4.98036e-69
-4.55972e-71
-3.32748e-73
-1.91057e-75
-8.49604e-78
-2.86658e-80
-7.14296e-83
-1.26739e-85
-1.5211e-88
-1.1438e-91
-4.76342e-95
-8.7405e-99
-4.04273e-103
-1.23553e-51
-9.6981e-53
-6.36378e-54
-3.48917e-55
-1.59595e-56
-6.08031e-58
-1.9243e-59
-5.04408e-61
-1.09112e-62
-1.93784e-64
-2.81081e-66
-3.30634e-68
-3.12823e-70
-2.35637e-72
-1.39495e-74
-6.38829e-77
-2.21731e-79
-5.6774e-82
-1.034e-84
-1.27254e-87
-9.80381e-91
-4.18035e-94
-7.85162e-98
-3.71888e-102
-4.94453e-50
-4.88773e-51
-4.03291e-52
-2.77682e-53
-1.59474e-54
-7.62775e-56
-3.03399e-57
-1.00093e-58
-2.73096e-60
-6.14022e-62
-1.1319e-63
-1.70184e-65
-2.07233e-67
-2.02713e-69
-1.57672e-71
-9.62638e-74
-4.54111e-76
-1.62174e-78
-4.2676e-81
-7.97929e-84
-1.00716e-86
-7.95144e-90
-3.47243e-93
-6.67837e-97
-3.24091e-101
-1.35562e-48
-1.70359e-49
-1.78248e-50
-1.55247e-51
-1.12544e-52
-6.78916e-54
-3.40363e-55
-1.4162e-56
-4.87844e-58
-1.38739e-59
-3.24607e-61
-6.21708e-63
-9.69703e-65
-1.22318e-66
-1.23768e-68
-9.94458e-71
-6.26366e-73
-3.04451e-75
-1.11889e-77
-3.02642e-80
-5.80988e-83
-7.52203e-86
-6.0864e-89
-2.72263e-92
-5.36302e-96
-2.66736e-100
-3.96011e-48
-5.32976e-49
-5.94396e-50
-5.49444e-51
-4.2118e-52
-2.67814e-53
-1.41136e-54
-6.15786e-56
-2.21936e-57
-6.59009e-59
-1.60677e-60
-3.20107e-62
-5.18452e-64
-6.77965e-66
-7.10055e-68
-5.89636e-70
-3.8328e-72
-1.92005e-74
-7.26299e-77
-2.01952e-79
-3.9809e-82
-5.28696e-85
-4.38461e-88
-2.0092e-91
-4.05375e-95
-2.06658e-99
-1.02308e-47
-1.49438e-48
-1.79378e-49
-1.7727e-50
-1.445e-51
-9.72844e-53
-5.40872e-54
-2.48195e-55
-9.38234e-57
-2.91486e-58
-7.41878e-60
-1.53958e-61
-2.59229e-63
-3.51752e-65
-3.81601e-67
-3.2769e-69
-2.19926e-71
-1.13582e-73
-4.42318e-76
-1.26448e-78
-2.55955e-81
-3.48699e-84
-2.9639e-87
-1.39123e-90
-2.87486e-94
-1.50211e-98
-2.27786e-47
-3.68851e-48
-4.83417e-49
-5.15934e-50
-4.50563e-51
-3.2302e-52
-1.9033e-53
-9.21979e-55
-3.66678e-56
-1.19491e-57
-3.18136e-59
-6.88914e-61
-1.20761e-62
-1.70226e-64
-1.9146e-66
-1.70137e-68
-1.17957e-70
-6.28277e-73
-2.51939e-75
-7.40583e-78
-1.53944e-80
-2.15129e-83
-1.87397e-86
-9.00908e-90
-1.90635e-93
-1.02064e-97
-4.19803e-47
-7.81655e-48
-1.14343e-48
-1.33699e-49
-1.26349e-50
-9.71788e-52
-6.10344e-53
-3.13549e-54
-1.31689e-55
-4.51532e-57
-1.26079e-58
-2.85491e-60
-5.2189e-62
-7.65296e-64
-8.93378e-66
-8.22216e-68
-5.8925e-70
-3.23827e-72
-1.33753e-74
-4.04342e-77
-8.6317e-80
-1.23725e-82
-1.10436e-85
-5.43646e-89
-1.17765e-92
-6.45813e-97
-5.93423e-47
-1.36854e-47
-2.31806e-48
-3.03377e-49
-3.14585e-50
-2.6212e-51
-1.76772e-52
-9.68635e-54
-4.31619e-55
-1.56307e-56
-4.59161e-58
-1.08999e-59
-2.08227e-61
-3.18174e-63
-3.86011e-65
-3.68326e-67
-2.73063e-69
-1.54917e-71
-6.59309e-74
-2.05015e-76
-4.49484e-79
-6.60798e-82
-6.04269e-85
-3.04509e-88
-6.75007e-92
-3.78962e-96
-5.13151e-47
-1.83813e-47
-3.88238e-48
-5.89201e-49
-6.84184e-50
-6.25857e-51
-4.57541e-52
-2.69367e-53
-1.2808e-54
-4.92178e-56
-1.52682e-57
-3.81146e-59
-7.62827e-61
-1.21703e-62
-1.53695e-64
-1.52235e-66
-1.16859e-68
-6.84862e-71
-3.00458e-73
-9.61248e-76
-2.16459e-78
-3.26355e-81
-3.0568e-84
-1.57634e-87
-3.57407e-91
-2.0529e-95
0
-1.50749e-47
-4.97714e-48
-9.44184e-49
-1.27093e-49
-1.30162e-50
-1.04496e-51
-6.67209e-53
-3.40985e-54
-1.3984e-55
-4.60231e-57
-1.21268e-58
-2.55033e-60
-4.25853e-62
-5.60857e-64
-5.77512e-66
-4.59514e-68
-2.78413e-70
-1.25975e-72
-4.14784e-75
-9.59433e-78
-1.48338e-80
-1.42278e-83
-7.50516e-87
-1.73955e-90
-1.02149e-94
7.51782e-46
3.91078e-49
-3.75274e-48
-1.1512e-48
-1.94303e-49
-2.30589e-50
-2.07256e-51
-1.45375e-52
-8.0605e-54
-3.55324e-55
-1.24765e-56
-3.48546e-58
-7.72959e-60
-1.3546e-61
-1.8646e-63
-1.99926e-65
-1.65097e-67
-1.03506e-69
-4.83324e-72
-1.63834e-74
-3.89314e-77
-6.17194e-80
-6.06027e-83
-3.26854e-86
-7.73963e-90