/*--------------------------------*- C++ -*----------------------------------*\
| =========                 |                                                 |
| \\      /  F ield         | OpenFOAM: The Open Source CFD Toolbox           |
|  \\    /   O peration     | Version:  v2012                                 |
|   \\  /    A nd           | Website:  www.openfoam.com                      |
|    \\/     M anipulation  |                                                 |
\*---------------------------------------------------------------------------*/
FoamFile
{
    version     2.0;
    format      ascii;
    class       surfaceScalarField;
    location    "0.95";
    object      alphaPhi0.water;
}
// * * * * * * * * * * * * * * * * * * * * * * * * * * * * * * * * * * * * * //

dimensions      [0 3 -1 0 0 0 0];
oriented        oriented;


internalField   nonuniform List<scalar> 
8134
(
-3.57064e-08
-8.0219e-09
-3.11907e-15
-2.88357e-08
-6.87069e-09
-2.82472e-15
-2.29122e-08
-5.92342e-09
-2.64672e-15
-1.77953e-08
-5.11697e-09
-2.34412e-15
-1.33787e-08
-4.41662e-09
-2.16892e-15
-9.58045e-09
-3.79822e-09
-2.03474e-15
-6.33215e-09
-3.24829e-09
-1.95926e-15
-3.57473e-09
-2.75743e-09
-1.82719e-15
-1.25466e-09
-2.32006e-09
-1.52079e-15
6.785e-10
-1.93316e-09
-1.30962e-15
2.27077e-09
-1.59226e-09
-1.17227e-15
3.56408e-09
-1.29331e-09
-1.06095e-15
4.59685e-09
-1.03276e-09
-1.44097e-15
5.40458e-09
-8.07748e-10
1.61723e-16
6.01904e-09
-6.14472e-10
-5.35236e-16
6.46827e-09
-4.49223e-10
-5.26478e-16
6.77682e-09
-3.08552e-10
-5.23133e-16
6.9661e-09
-1.89261e-10
-5.14642e-16
7.05462e-09
-8.85285e-11
-5.3315e-16
7.05774e-09
-3.15157e-12
-5.09143e-16
6.98962e-09
6.81244e-11
-4.8475e-16
6.8612e-09
1.28391e-10
-4.27437e-16
6.68184e-09
1.794e-10
-3.76437e-16
6.45862e-09
2.23187e-10
-3.18963e-16
6.19722e-09
2.61424e-10
-2.75088e-16
5.90126e-09
2.95933e-10
-2.36714e-16
5.57312e-09
3.28147e-10
-2.22723e-16
5.21384e-09
3.59308e-10
-1.91143e-16
4.82324e-09
3.90566e-10
-1.70575e-16
4.40143e-09
4.21829e-10
-2.28579e-16
3.94873e-09
4.52691e-10
-1.97292e-16
3.46755e-09
4.81169e-10
-1.88838e-16
2.96346e-09
5.04099e-10
-2.40404e-16
2.4463e-09
5.17151e-10
-2.42168e-16
1.93131e-09
5.14999e-10
-2.89276e-16
1.43795e-09
4.93362e-10
-2.21666e-16
9.87704e-10
4.50238e-10
-1.36448e-16
6.00241e-10
3.87462e-10
-2.00628e-17
2.89617e-10
3.10623e-10
8.31978e-17
6.26925e-11
2.26924e-10
-1.73245e-16
-7.22886e-11
1.34983e-10
-5.34617e-16
-9.70764e-11
2.47904e-11
-5.1877e-16
-9.70763e-11
3.21697e-16
-4.53874e-08
-1.54629e-08
-6.79075e-15
-3.85278e-08
-1.37302e-08
-6.34005e-15
-3.21784e-08
-1.22728e-08
-5.92648e-15
-2.62858e-08
-1.10096e-08
-5.36657e-15
-2.08114e-08
-9.89092e-09
-4.98633e-15
-1.57322e-08
-8.87742e-09
-4.69197e-15
-1.10345e-08
-7.94603e-09
-4.51853e-15
-6.71256e-09
-7.07935e-09
-4.18707e-15
-2.76464e-09
-6.26799e-09
-3.69072e-15
8.09401e-10
-5.5072e-09
-3.32884e-15
4.01065e-09
-4.79351e-09
-3.0357e-15
6.84202e-09
-4.12468e-09
-2.74538e-15
9.30938e-09
-3.5001e-09
-2.93734e-15
1.14227e-08
-2.92112e-09
-1.07587e-15
1.31962e-08
-2.38796e-09
-1.47503e-15
1.46473e-08
-1.90037e-09
-1.35496e-15
1.57966e-08
-1.45779e-09
-1.27306e-15
1.66664e-08
-1.05906e-09
-1.24126e-15
1.72803e-08
-7.02449e-10
-1.25926e-15
1.76625e-08
-3.85411e-10
-1.24289e-15
1.78358e-08
-1.05181e-10
-1.18722e-15
1.78226e-08
1.41573e-10
-1.09484e-15
1.76431e-08
3.5902e-10
-1.00788e-15
1.73139e-08
5.52211e-10
-9.18376e-16
1.68498e-08
7.25615e-10
-8.43882e-16
1.6261e-08
8.84658e-10
-7.73602e-16
1.55551e-08
1.0341e-09
-7.15621e-16
1.47361e-08
1.17839e-09
-6.60381e-16
1.38046e-08
1.32197e-09
-5.79051e-16
1.27611e-08
1.4653e-09
-6.65668e-16
1.16061e-08
1.60769e-09
-5.39484e-16
1.03445e-08
1.74276e-09
-4.46423e-16
8.98925e-09
1.85938e-09
-5.11493e-16
7.56505e-09
1.94133e-09
-4.65755e-16
6.11267e-09
1.96739e-09
-5.34168e-16
4.6873e-09
1.91874e-09
-4.00077e-16
3.35358e-09
1.78395e-09
-4.59594e-16
2.17542e-09
1.56562e-09
-3.30287e-16
1.20355e-09
1.28249e-09
-2.44044e-17
4.69868e-10
9.60604e-10
-5.41983e-17
2.47934e-13
6.04604e-10
-1.38058e-16
-1.55301e-10
1.80343e-10
-8.8207e-16
-2.52377e-10
1.61947e-17
-4.37532e-08
-2.1493e-08
-7.40529e-15
-3.79614e-08
-1.9522e-08
-7.03949e-15
-3.24094e-08
-1.78248e-08
-6.98332e-15
-2.70866e-08
-1.63324e-08
-6.66171e-15
-2.19816e-08
-1.49959e-08
-6.39414e-15
-1.70866e-08
-1.37724e-08
-6.11615e-15
-1.23984e-08
-1.26343e-08
-5.92787e-15
-7.91995e-09
-1.15578e-08
-5.56443e-15
-3.65933e-09
-1.05286e-08
-5.05504e-15
3.69683e-10
-9.53621e-09
-4.67558e-15
4.15345e-09
-8.57727e-09
-4.35649e-15
7.6724e-09
-7.64362e-09
-3.98698e-15
1.09091e-08
-6.73683e-09
-3.96793e-15
1.38468e-08
-5.85886e-09
-1.98943e-15
1.64717e-08
-5.01284e-09
-2.27964e-15
1.87737e-08
-4.20237e-09
-2.14663e-15
2.07474e-08
-3.43152e-09
-2.02147e-15
2.23925e-08
-2.70407e-09
-1.96588e-15
2.37133e-08
-2.0233e-09
-1.98965e-15
2.4719e-08
-1.39115e-09
-1.97642e-15
2.54224e-08
-8.08568e-10
-1.90901e-15
2.58385e-08
-2.74655e-10
-1.7924e-15
2.59844e-08
2.13226e-10
-1.67834e-15
2.58767e-08
6.5978e-10
-1.56086e-15
2.55313e-08
1.0711e-09
-1.45872e-15
2.49605e-08
1.45538e-09
-1.36086e-15
2.41738e-08
1.82083e-09
-1.27728e-15
2.31765e-08
2.17579e-09
-1.19336e-15
2.19691e-08
2.52928e-09
-1.05354e-15
2.05512e-08
2.88325e-09
-1.20646e-15
1.89214e-08
3.23747e-09
-9.98234e-16
1.7084e-08
3.58004e-09
-8.23004e-16
1.50549e-08
3.88853e-09
-9.13286e-16
1.2868e-08
4.1282e-09
-8.08539e-16
1.05841e-08
4.2513e-09
-9.00476e-16
8.29082e-09
4.21205e-09
-6.59218e-16
6.0965e-09
3.97824e-09
-6.33727e-16
4.11487e-09
3.54725e-09
-7.00783e-16
2.44284e-09
2.95452e-09
-2.68506e-16
1.14695e-09
2.2565e-09
-2.62914e-16
2.74638e-10
1.47692e-09
-3.85872e-16
-1.05728e-10
5.6071e-10
-2.20931e-16
-3.58104e-10
-3.16295e-16
-4.00611e-08
-2.62335e-08
-7.88208e-15
-3.53004e-08
-2.42826e-08
-7.62611e-15
-3.05824e-08
-2.25429e-08
-7.41524e-15
-2.59406e-08
-2.09742e-08
-6.91156e-15
-2.13929e-08
-1.95435e-08
-6.59996e-15
-1.69496e-08
-1.82158e-08
-6.37342e-15
-1.2616e-08
-1.69678e-08
-6.28752e-15
-8.39791e-09
-1.57759e-08
-6.0463e-15
-4.30189e-09
-1.46246e-08
-5.65249e-15
-3.37574e-10
-1.35005e-08
-5.33796e-15
3.48349e-09
-1.23983e-08
-5.05077e-15
7.14564e-09
-1.13058e-08
-4.68595e-15
1.06307e-08
-1.02219e-08
-4.4939e-15
1.39181e-08
-9.14629e-09
-2.48738e-15
1.6986e-08
-8.0807e-09
-2.84195e-15
1.98119e-08
-7.02829e-09
-2.77673e-15
2.23743e-08
-5.99393e-09
-2.66319e-15
2.46536e-08
-4.98331e-09
-2.61262e-15
2.66331e-08
-4.00278e-09
-2.64413e-15
2.82999e-08
-3.05812e-09
-2.6367e-15
2.9646e-08
-2.15463e-09
-2.56754e-15
3.0667e-08
-1.29576e-09
-2.43666e-15
3.1363e-08
-4.82588e-10
-2.30216e-15
3.17364e-08
2.86202e-10
-2.16424e-15
3.17924e-08
1.01517e-09
-2.04083e-15
3.15356e-08
1.71207e-09
-1.92057e-15
3.09696e-08
2.3869e-09
-1.81431e-15
3.00946e-08
3.05089e-09
-1.70602e-15
2.89062e-08
3.71749e-09
-1.50586e-15
2.73988e-08
4.39075e-09
-1.72268e-15
2.55647e-08
5.07157e-09
-1.4393e-15
2.34022e-08
5.74248e-09
-1.18345e-15
2.09232e-08
6.36759e-09
-1.29907e-15
1.81632e-08
6.88813e-09
-1.12965e-15
1.51954e-08
7.21913e-09
-1.24619e-15
1.21343e-08
7.27319e-09
-9.09415e-16
9.13122e-09
6.98126e-09
-8.79466e-16
6.355e-09
6.32347e-09
-7.39565e-16
3.95896e-09
5.35056e-09
-5.39472e-16
2.05499e-09
4.16048e-09
-4.14155e-16
7.16756e-10
2.81515e-09
-7.48349e-16
2.83545e-11
1.24911e-09
5.78786e-17
-3.29749e-10
2.14208e-17
-3.59765e-08
-2.98597e-08
-7.19983e-15
-3.21545e-08
-2.81046e-08
-7.23763e-15
-2.82257e-08
-2.64716e-08
-7.30714e-15
-2.42513e-08
-2.49487e-08
-7.00571e-15
-2.02732e-08
-2.35216e-08
-6.80303e-15
-1.63201e-08
-2.21689e-08
-6.5824e-15
-1.24112e-08
-2.08767e-08
-6.46024e-15
-8.56027e-09
-1.96269e-08
-6.2149e-15
-4.7774e-09
-1.84075e-08
-5.86091e-15
-1.07107e-09
-1.72068e-08
-5.5826e-15
2.54877e-09
-1.60182e-08
-5.32648e-15
6.0744e-09
-1.48314e-08
-4.98267e-15
9.49436e-09
-1.36419e-08
-4.66967e-15
1.27952e-08
-1.24471e-08
-2.79225e-15
1.5961e-08
-1.12465e-08
-3.23054e-15
1.89731e-08
-1.00404e-08
-3.26026e-15
2.18105e-08
-8.83126e-09
-3.1948e-15
2.44499e-08
-7.6227e-09
-3.17349e-15
2.68671e-08
-6.41995e-09
-3.21486e-15
2.90373e-08
-5.22848e-09
-3.20847e-15
3.09371e-08
-4.05444e-09
-3.13746e-15
3.25442e-08
-2.90302e-09
-3.0028e-15
3.38394e-08
-1.77757e-09
-2.86079e-15
3.48055e-08
-6.80051e-10
-2.71283e-15
3.5428e-08
3.9282e-10
-2.57661e-15
3.56933e-08
1.44666e-09
-2.44113e-15
3.55895e-08
2.49069e-09
-2.31777e-15
3.5103e-08
3.53751e-09
-2.19243e-15
3.42163e-08
4.60396e-09
-1.93936e-15
3.29107e-08
5.69654e-09
-2.19848e-15
3.11643e-08
6.81783e-09
-1.8683e-15
2.89612e-08
7.94552e-09
-1.54188e-15
2.62994e-08
9.02954e-09
-1.67974e-15
2.32045e-08
9.98292e-09
-1.44342e-15
1.97503e-08
1.06733e-08
-1.58125e-15
1.60685e-08
1.0955e-08
-1.15241e-15
1.2349e-08
1.07008e-08
-1.13009e-15
8.81836e-09
9.85408e-09
-9.3784e-16
5.69655e-09
8.47237e-09
-7.59648e-16
3.15323e-09
6.70381e-09
-7.51498e-16
1.29671e-09
4.67167e-09
-8.07223e-16
2.25091e-10
2.32072e-09
1.11466e-17
-1.04658e-10
1.38435e-16
-3.18252e-08
-3.25365e-08
-7.46277e-15
-2.88411e-08
-3.10886e-08
-7.45184e-15
-2.56447e-08
-2.96681e-08
-7.31046e-15
-2.23089e-08
-2.82845e-08
-6.86332e-15
-1.88894e-08
-2.69411e-08
-6.62861e-15
-1.54284e-08
-2.56299e-08
-6.43521e-15
-1.19567e-08
-2.43483e-08
-6.37213e-15
-8.49781e-09
-2.30858e-08
-6.19326e-15
-5.06858e-09
-2.18367e-08
-5.90394e-15
-1.68153e-09
-2.05939e-08
-5.6684e-15
1.65223e-09
-1.93519e-08
-5.43383e-15
4.92641e-09
-1.81056e-08
-5.1003e-15
8.13373e-09
-1.68492e-08
-4.69179e-15
1.12671e-08
-1.55805e-08
-3.03459e-15
1.43184e-08
-1.42979e-08
-3.54797e-15
1.72777e-08
-1.29997e-08
-3.65097e-15
2.01321e-08
-1.16858e-08
-3.63263e-15
2.28661e-08
-1.03566e-08
-3.64049e-15
2.54601e-08
-9.01395e-09
-3.68446e-15
2.78913e-08
-7.65979e-09
-3.67157e-15
3.01341e-08
-6.29728e-09
-3.59824e-15
3.21601e-08
-4.92911e-09
-3.46841e-15
3.39394e-08
-3.5567e-09
-3.32991e-15
3.54414e-08
-2.18221e-09
-3.18282e-15
3.6635e-08
-8.00655e-10
-3.04344e-15
3.74876e-08
5.93883e-10
-2.9018e-15
3.79664e-08
2.01195e-09
-2.76946e-15
3.80376e-08
3.46652e-09
-2.63458e-15
3.76635e-08
4.97783e-09
-2.34296e-15
3.6804e-08
6.55615e-09
-2.62812e-15
3.54146e-08
8.2071e-09
-2.27185e-15
3.34541e-08
9.90596e-09
-1.89232e-15
3.0894e-08
1.15898e-08
-2.04701e-15
2.77351e-08
1.31416e-08
-1.74783e-15
2.4035e-08
1.43735e-08
-1.90345e-15
1.99265e-08
1.50635e-08
-1.39107e-15
1.56271e-08
1.50001e-08
-1.37712e-15
1.14193e-08
1.40619e-08
-1.14801e-15
7.59718e-09
1.22945e-08
-9.57924e-16
4.40156e-09
9.89943e-09
-1.02806e-15
1.98753e-09
7.08572e-09
-5.31833e-16
4.75063e-10
3.83318e-09
-6.50201e-16
3.70405e-10
1.86966e-16
-2.78516e-08
-3.44602e-08
-7.13187e-15
-2.55706e-08
-3.33696e-08
-7.2303e-15
-2.3017e-08
-3.22217e-08
-7.11009e-15
-2.02624e-08
-3.10391e-08
-6.77173e-15
-1.73657e-08
-2.98378e-08
-6.63536e-15
-1.43752e-08
-2.86204e-08
-6.46736e-15
-1.13289e-08
-2.73946e-08
-6.38454e-15
-8.25706e-09
-2.61576e-08
-6.19518e-15
-5.18302e-09
-2.49108e-08
-5.91913e-15
-2.12441e-09
-2.36525e-08
-5.69669e-15
9.04261e-10
-2.23806e-08
-5.47218e-15
3.89448e-09
-2.10958e-08
-5.14837e-15
6.83893e-09
-1.97936e-08
-4.68969e-15
9.73279e-09
-1.84744e-08
-3.28579e-15
1.25721e-08
-1.71372e-08
-3.84798e-15
1.5353e-08
-1.57806e-08
-3.98466e-15
1.80707e-08
-1.44034e-08
-3.99075e-15
2.07185e-08
-1.30043e-08
-4.01069e-15
2.32867e-08
-1.15822e-08
-4.04463e-15
2.57617e-08
-1.01349e-08
-4.01914e-15
2.81256e-08
-8.66113e-09
-3.94416e-15
3.0355e-08
-7.15867e-09
-3.82376e-15
3.2422e-08
-5.6235e-09
-3.69632e-15
3.42938e-08
-4.0542e-09
-3.55837e-15
3.59334e-08
-2.4401e-09
-3.42435e-15
3.72986e-08
-7.71476e-10
-3.28569e-15
3.83418e-08
9.68733e-10
-3.15353e-15
3.90101e-08
2.79841e-09
-3.01709e-15
3.92449e-08
4.7428e-09
-2.7054e-15
3.89815e-08
6.8197e-09
-3.011e-15
3.81469e-08
9.04164e-09
-2.63896e-15
3.66659e-08
1.13868e-08
-2.22508e-15
3.44714e-08
1.37845e-08
-2.39115e-15
3.15226e-08
1.60903e-08
-2.03979e-15
2.78398e-08
1.80564e-08
-2.21021e-15
2.35347e-08
1.93685e-08
-1.62818e-15
1.88334e-08
1.97014e-08
-1.62184e-15
1.40643e-08
1.8831e-08
-1.35849e-15
9.59791e-09
1.67609e-08
-1.16164e-15
5.75881e-09
1.37385e-08
-1.24989e-15
2.76358e-09
1.0081e-08
-8.16758e-16
7.65907e-10
5.83085e-09
-1.15915e-15
1.13631e-09
-5.70688e-17
-2.41625e-08
-3.57978e-08
-7.14765e-15
-2.24554e-08
-3.50766e-08
-7.29056e-15
-2.04486e-08
-3.42284e-08
-7.14574e-15
-1.82058e-08
-3.3282e-08
-6.77294e-15
-1.57828e-08
-3.22608e-08
-6.60257e-15
-1.32283e-08
-3.1175e-08
-6.40477e-15
-1.05828e-08
-3.00401e-08
-6.32383e-15
-7.88024e-09
-2.88601e-08
-6.16704e-15
-5.14821e-09
-2.76428e-08
-5.92096e-15
-2.4085e-09
-2.63922e-08
-5.72218e-15
3.20778e-10
-2.51099e-08
-5.50896e-15
3.02841e-09
-2.38034e-08
-5.19467e-15
5.70432e-09
-2.24695e-08
-4.7198e-15
8.34313e-09
-2.11133e-08
-3.55551e-15
1.09414e-08
-1.97356e-08
-4.12765e-15
1.34976e-08
-1.83367e-08
-4.26333e-15
1.60109e-08
-1.69168e-08
-4.27111e-15
1.84809e-08
-1.54743e-08
-4.28557e-15
2.09059e-08
-1.40072e-08
-4.30029e-15
2.32817e-08
-1.25108e-08
-4.26054e-15
2.56009e-08
-1.09803e-08
-4.1851e-15
2.78507e-08
-9.40861e-09
-4.07559e-15
3.00128e-08
-7.78539e-09
-3.96199e-15
3.20622e-08
-6.10373e-09
-3.83733e-15
3.39665e-08
-4.34433e-09
-3.7147e-15
3.56857e-08
-2.49082e-09
-3.58574e-15
3.71704e-08
-5.15887e-10
-3.46155e-15
3.83591e-08
1.60981e-09
-3.3305e-15
3.91795e-08
3.92226e-09
-3.01786e-15
3.9547e-08
6.4523e-09
-3.32326e-15
3.93621e-08
9.22642e-09
-2.95826e-15
3.8514e-08
1.22348e-08
-2.53014e-15
3.68891e-08
1.54094e-08
-2.70254e-15
3.43917e-08
1.85876e-08
-2.31322e-15
3.09835e-08
2.14647e-08
-2.49635e-15
2.67283e-08
2.36237e-08
-1.86236e-15
2.18336e-08
2.45961e-08
-1.86156e-15
1.66541e-08
2.40105e-08
-1.56724e-15
1.16313e-08
2.17836e-08
-1.36002e-15
7.18171e-09
1.81882e-08
-1.43121e-15
3.59932e-09
1.36634e-08
-1.08104e-15
1.08696e-09
8.3432e-09
-1.36921e-15
2.22328e-09
-4.81231e-16
-2.08266e-08
-3.66968e-08
-6.91031e-15
-1.95726e-08
-3.63306e-08
-6.93716e-15
-1.80167e-08
-3.57843e-08
-6.75362e-15
-1.62112e-08
-3.50875e-08
-6.58694e-15
-1.42052e-08
-3.42667e-08
-6.58194e-15
-1.20438e-08
-3.33365e-08
-6.43588e-15
-9.76642e-09
-3.23174e-08
-6.34709e-15
-7.40785e-09
-3.12187e-08
-6.19482e-15
-4.99739e-09
-3.00533e-08
-5.93752e-15
-2.55942e-09
-2.88301e-08
-5.73923e-15
-1.14475e-10
-2.75548e-08
-5.53138e-15
2.32351e-09
-2.62414e-08
-5.23563e-15
4.74188e-09
-2.48879e-08
-4.78159e-15
7.13325e-09
-2.35047e-08
-3.83527e-15
9.49296e-09
-2.20953e-08
-4.37645e-15
1.1819e-08
-2.06627e-08
-4.48386e-15
1.41116e-08
-1.92094e-08
-4.4783e-15
1.63726e-08
-1.77353e-08
-4.47595e-15
1.86047e-08
-1.62392e-08
-4.46833e-15
2.081e-08
-1.47162e-08
-4.41572e-15
2.29894e-08
-1.31597e-08
-4.34062e-15
2.51403e-08
-1.15596e-08
-4.24128e-15
2.72556e-08
-9.90057e-09
-4.14094e-15
2.93225e-08
-8.17073e-09
-4.03056e-15
3.132e-08
-6.34174e-09
-3.9218e-15
3.32182e-08
-4.38915e-09
-3.80668e-15
3.49763e-08
-2.27396e-09
-3.695e-15
3.65392e-08
4.70641e-11
-3.5737e-15
3.78326e-08
2.6287e-09
-3.27628e-15
3.87644e-08
5.52055e-09
-3.57423e-15
3.92187e-08
8.77205e-09
-3.22479e-15
3.90558e-08
1.23976e-08
-2.79911e-15
3.81184e-08
1.6347e-08
-2.97475e-15
3.62495e-08
2.04564e-08
-2.56442e-15
3.33362e-08
2.43781e-08
-2.75874e-15
2.93684e-08
2.75916e-08
-2.09291e-15
2.45023e-08
2.9462e-08
-2.09471e-15
1.909e-08
2.94228e-08
-1.77353e-15
1.36276e-08
2.7246e-08
-1.55245e-15
8.6253e-09
2.31905e-08
-1.59197e-15
4.46892e-09
1.78198e-08
-1.24413e-15
1.42797e-09
1.13841e-08
-1.23247e-15
3.65125e-09
-7.3977e-16
-1.78585e-08
-6.54178e-15
-1.69561e-08
-6.85122e-15
-1.57648e-08
-3.69756e-08
-6.83007e-15
-1.43255e-08
-3.65268e-08
-6.66839e-15
-1.26789e-08
-3.59133e-08
-6.59045e-15
-1.08645e-08
-3.51508e-08
-6.37812e-15
-8.91871e-09
-3.42632e-08
-6.27267e-15
-6.87462e-09
-3.32628e-08
-6.15392e-15
-4.76141e-09
-3.21665e-08
-5.91754e-15
-2.60429e-09
-3.09873e-08
-5.74277e-15
-4.2465e-10
-2.97345e-08
-5.55132e-15
1.76015e-09
-2.84262e-08
-5.28071e-15
3.93703e-09
-2.70647e-08
-4.87581e-15
6.0962e-09
-2.56639e-08
-4.11238e-15
8.23121e-09
-2.42303e-08
-4.58325e-15
1.03386e-08
-2.27701e-08
-4.64455e-15
1.24175e-08
-2.12884e-08
-4.62183e-15
1.447e-08
-1.97877e-08
-4.59942e-15
1.64997e-08
-1.82689e-08
-4.57108e-15
1.85116e-08
-1.67281e-08
-4.50816e-15
2.05113e-08
-1.51594e-08
-4.43375e-15
2.25031e-08
-1.35515e-08
-4.34257e-15
2.4489e-08
-1.18863e-08
-4.25327e-15
2.64673e-08
-1.01492e-08
-4.15605e-15
2.843e-08
-8.30433e-09
-4.06085e-15
3.0361e-08
-6.32027e-09
-3.96023e-15
3.22335e-08
-4.1465e-09
-3.86304e-15
3.4006e-08
-1.72525e-09
-3.75319e-15
3.56186e-08
1.01592e-09
-3.48197e-15
3.69836e-08
4.15559e-09
-3.75884e-15
3.7984e-08
7.77164e-09
-3.43803e-15
3.8466e-08
1.19155e-08
-3.02772e-15
3.82402e-08
1.65729e-08
-3.20358e-15
3.70942e-08
2.16022e-08
-2.78834e-15
3.48348e-08
2.66376e-08
-2.99255e-15
3.13573e-08
3.10692e-08
-2.31513e-15
2.67348e-08
3.40844e-08
-2.31761e-15
2.12802e-08
3.48774e-08
-1.97699e-15
1.5518e-08
3.30082e-08
-1.74747e-15
1.00441e-08
2.86645e-08
-1.7683e-15
5.34632e-09
2.25176e-08
-1.42471e-15
1.77873e-09
1.49517e-08
-1.2481e-15
5.42999e-09
-9.34535e-16
-1.37159e-08
-3.78775e-08
-6.52832e-15
-1.25777e-08
-3.76651e-08
-6.46404e-15
-1.12354e-08
-3.72555e-08
-6.49213e-15
-9.72229e-09
-3.6664e-08
-6.33753e-15
-8.07013e-09
-3.59154e-08
-6.26435e-15
-6.30913e-09
-3.50238e-08
-6.15489e-15
-4.46686e-09
-3.40087e-08
-5.91648e-15
-2.56798e-09
-3.28861e-08
-5.74548e-15
-6.34145e-10
-3.16683e-08
-5.5614e-15
1.31641e-09
-3.03767e-08
-5.31587e-15
3.26933e-09
-2.90177e-08
-4.96856e-15
5.21337e-09
-2.76079e-08
-4.3621e-15
7.14053e-09
-2.61575e-08
-4.74603e-15
9.04568e-09
-2.46752e-08
-4.75985e-15
1.09266e-08
-2.31693e-08
-4.71767e-15
1.27839e-08
-2.1645e-08
-4.67577e-15
1.46207e-08
-2.01057e-08
-4.63007e-15
1.64422e-08
-1.85498e-08
-4.55935e-15
1.82557e-08
-1.69729e-08
-4.48532e-15
2.00689e-08
-1.53647e-08
-4.40022e-15
2.18893e-08
-1.37066e-08
-4.3193e-15
2.37231e-08
-1.19831e-08
-4.23284e-15
2.5573e-08
-1.01541e-08
-4.14923e-15
2.74358e-08
-8.18319e-09
-4.06129e-15
2.93e-08
-6.01066e-09
-3.97734e-15
3.11414e-08
-3.56653e-09
-3.87865e-15
3.29189e-08
-7.61819e-10
-3.63889e-15
3.45635e-08
2.5111e-09
-3.9035e-15
3.59707e-08
6.36438e-09
-3.60037e-15
3.69905e-08
1.08956e-08
-3.21504e-15
3.74201e-08
1.61435e-08
-3.38917e-15
3.70073e-08
2.20149e-08
-2.98397e-15
3.54856e-08
2.81594e-08
-3.19659e-15
3.26474e-08
3.39074e-08
-2.526e-15
2.8456e-08
3.82757e-08
-2.52846e-15
2.31473e-08
4.01861e-08
-2.1792e-15
1.72388e-08
3.89167e-08
-1.95082e-15
1.13939e-08
3.45094e-08
-1.9673e-15
6.20574e-09
2.77058e-08
-1.64934e-15
2.12906e-09
1.90284e-08
-1.49154e-15
7.55905e-09
-1.12243e-15
-1.18765e-08
-3.85526e-08
-6.6211e-15
-1.09825e-08
-3.85591e-08
-6.48493e-15
-9.89445e-09
-3.83436e-08
-6.42722e-15
-8.63911e-09
-3.79193e-08
-6.23111e-15
-7.24343e-09
-3.7311e-08
-6.17179e-15
-5.73393e-09
-3.65333e-08
-6.08581e-15
-4.13563e-09
-3.5607e-08
-5.87928e-15
-2.47167e-09
-3.45501e-08
-5.73356e-15
-7.63013e-10
-3.3377e-08
-5.56638e-15
9.72137e-10
-3.21119e-08
-5.34487e-15
2.71874e-09
-3.07643e-08
-5.04811e-15
4.46471e-09
-2.93539e-08
-4.57424e-15
6.20091e-09
-2.78937e-08
-4.86676e-15
7.9209e-09
-2.63952e-08
-4.83903e-15
9.62098e-09
-2.48694e-08
-4.77942e-15
1.13002e-08
-2.33242e-08
-4.72136e-15
1.29603e-08
-2.17658e-08
-4.66255e-15
1.46056e-08
-2.01951e-08
-4.58588e-15
1.62429e-08
-1.86101e-08
-4.51189e-15
1.78807e-08
-1.70026e-08
-4.4309e-15
1.95289e-08
-1.53547e-08
-4.35602e-15
2.11983e-08
-1.36526e-08
-4.27772e-15
2.28981e-08
-1.18538e-08
-4.203e-15
2.46353e-08
-9.92051e-09
-4.12501e-15
2.64113e-08
-7.78666e-09
-4.05158e-15
2.82183e-08
-5.37333e-09
-3.96225e-15
3.0035e-08
-2.57878e-09
-3.75431e-15
3.18163e-08
7.29963e-10
-3.9857e-15
3.34809e-08
4.6997e-09
-3.71643e-15
3.48979e-08
9.47848e-09
-3.36162e-15
3.58711e-08
1.51704e-08
-3.53223e-15
3.61313e-08
2.17546e-08
-3.14891e-15
3.53567e-08
2.8934e-08
-3.3678e-15
3.32422e-08
3.60218e-08
-2.7204e-15
2.96263e-08
4.18916e-08
-2.72448e-15
2.46339e-08
4.51786e-08
-2.3825e-15
1.87353e-08
4.48152e-08
-2.16623e-15
1.26338e-08
4.06108e-08
-2.18796e-15
7.02243e-09
3.33172e-08
-1.90683e-15
2.4689e-09
2.35819e-08
-1.77598e-15
1.0028e-08
-1.34102e-15
-1.02424e-08
-3.90523e-08
-6.31394e-15
-9.54446e-09
-3.92571e-08
-6.40592e-15
-8.66631e-09
-3.92217e-08
-6.42724e-15
-7.62905e-09
-3.89566e-08
-6.27042e-15
-6.45483e-09
-3.84852e-08
-6.22671e-15
-5.16625e-09
-3.78219e-08
-6.12537e-15
-3.78533e-09
-3.6988e-08
-5.90755e-15
-2.33301e-09
-3.60024e-08
-5.75003e-15
-8.28894e-10
-3.48811e-08
-5.57733e-15
7.0953e-10
-3.36503e-08
-5.36617e-15
2.26716e-09
-3.23219e-08
-5.10015e-15
3.83156e-09
-3.09183e-08
-4.73849e-15
5.39293e-09
-2.94551e-08
-4.9527e-15
6.94391e-09
-2.79462e-08
-4.89331e-15
8.47962e-09
-2.64051e-08
-4.81958e-15
9.99776e-09
-2.48423e-08
-4.74857e-15
1.14985e-08
-2.32666e-08
-4.68026e-15
1.29847e-08
-2.16814e-08
-4.59906e-15
1.44619e-08
-2.00873e-08
-4.52474e-15
1.5938e-08
-1.84787e-08
-4.44645e-15
1.74229e-08
-1.68396e-08
-4.37566e-15
1.8929e-08
-1.51587e-08
-4.3032e-15
2.04691e-08
-1.33939e-08
-4.2349e-15
2.20563e-08
-1.15078e-08
-4.16412e-15
2.37012e-08
-9.43157e-09
-4.09837e-15
2.54091e-08
-7.08108e-09
-4.01612e-15
2.71762e-08
-4.34607e-09
-3.83748e-15
2.89805e-08
-1.07416e-09
-4.0388e-15
3.07686e-08
2.91147e-09
-3.79388e-15
3.24385e-08
7.80853e-09
-3.47305e-15
3.38175e-08
1.37915e-08
-3.63696e-15
3.46423e-08
2.09297e-08
-3.28444e-15
3.45617e-08
2.90148e-08
-3.507e-15
3.31908e-08
3.73927e-08
-2.89714e-15
3.02425e-08
4.48398e-08
-2.90578e-15
2.57059e-08
4.97152e-08
-2.58877e-15
1.99652e-08
5.0556e-08
-2.39611e-15
1.37283e-08
4.68477e-08
-2.42899e-15
7.77357e-09
3.92719e-08
-2.19204e-15
2.78862e-09
2.85668e-08
-2.08338e-15
1.28166e-08
-1.60102e-15
-8.80283e-09
-3.94177e-08
-6.38418e-15
-8.26068e-09
-3.97992e-08
-6.48656e-15
-7.55437e-09
-3.9928e-08
-6.45766e-15
-6.6999e-09
-3.98111e-08
-6.25426e-15
-5.71506e-09
-3.94701e-08
-6.19451e-15
-4.61869e-09
-3.89182e-08
-6.08284e-15
-3.42966e-09
-3.8177e-08
-5.88059e-15
-2.16641e-09
-3.72656e-08
-5.73587e-15
-8.46693e-10
-3.62008e-08
-5.57305e-15
5.13202e-10
-3.50102e-08
-5.37581e-15
1.89866e-09
-3.37073e-08
-5.13244e-15
3.29729e-09
-3.2317e-08
-4.8587e-15
4.69903e-09
-3.08568e-08
-5.00984e-15
6.09598e-09
-2.93431e-08
-4.92937e-15
7.48246e-09
-2.77916e-08
-4.84542e-15
8.85507e-09
-2.62149e-08
-4.76502e-15
1.02127e-08
-2.46242e-08
-4.68997e-15
1.15567e-08
-2.30254e-08
-4.60572e-15
1.2891e-08
-2.14216e-08
-4.53094e-15
1.4222e-08
-1.98098e-08
-4.45431e-15
1.55589e-08
-1.81764e-08
-4.38619e-15
1.69136e-08
-1.65135e-08
-4.3178e-15
1.83e-08
-1.47802e-08
-4.25379e-15
1.97339e-08
-1.29418e-08
-4.18785e-15
2.12316e-08
-1.09292e-08
-4.12723e-15
2.28072e-08
-8.65661e-09
-4.04998e-15
2.44705e-08
-6.00946e-09
-3.89636e-15
2.62185e-08
-2.82212e-09
-4.06936e-15
2.80249e-08
1.10501e-09
-3.84238e-15
2.982e-08
6.01334e-09
-3.55391e-15
3.14654e-08
1.21462e-08
-3.70805e-15
3.27232e-08
1.96719e-08
-3.39101e-15
3.32393e-08
2.84987e-08
-3.61257e-15
3.25761e-08
3.80559e-08
-3.05976e-15
3.03336e-08
4.70823e-08
-3.0727e-15
2.63538e-08
5.36949e-08
-2.79854e-15
2.09007e-08
5.6009e-08
-2.64272e-15
1.46488e-08
5.30997e-08
-2.69085e-15
8.4392e-09
4.54816e-08
-2.50259e-15
3.07935e-09
3.39266e-08
-2.42872e-15
1.58959e-08
-1.94021e-15
-7.54292e-09
-3.96812e-08
-6.30154e-15
-7.12372e-09
-4.02184e-08
-6.30084e-15
-6.55705e-09
-4.04947e-08
-6.35136e-15
-5.85467e-09
-4.05135e-08
-6.20095e-15
-5.03053e-09
-4.02942e-08
-6.19495e-15
-4.10001e-09
-3.98487e-08
-6.09431e-15
-3.079e-09
-3.9198e-08
-5.89201e-15
-1.98338e-09
-3.83612e-08
-5.74271e-15
-8.28774e-10
-3.73554e-08
-5.57581e-15
3.70049e-10
-3.6209e-08
-5.38414e-15
1.5994e-09
-3.49367e-08
-5.15139e-15
2.84726e-09
-3.35648e-08
-4.93999e-15
4.10364e-09
-3.21132e-08
-5.04666e-15
5.36041e-09
-3.05999e-08
-4.95383e-15
6.61142e-09
-2.90426e-08
-4.86269e-15
7.8525e-09
-2.74559e-08
-4.77565e-15
9.08149e-09
-2.58532e-08
-4.69591e-15
1.02984e-08
-2.42424e-08
-4.60958e-15
1.15059e-08
-2.26291e-08
-4.53422e-15
1.27086e-08
-2.10126e-08
-4.45867e-15
1.39142e-08
-1.93819e-08
-4.39233e-15
1.51333e-08
-1.77326e-08
-4.32662e-15
1.63793e-08
-1.60262e-08
-4.26528e-15
1.76685e-08
-1.42311e-08
-4.20237e-15
1.90196e-08
-1.22803e-08
-4.14473e-15
2.04519e-08
-1.00888e-08
-4.07063e-15
2.19841e-08
-7.54177e-09
-3.93718e-15
2.36277e-08
-4.46573e-09
-4.08511e-15
2.53786e-08
-6.45949e-10
-3.86841e-15
2.71982e-08
4.1937e-09
-3.60914e-15
2.89862e-08
1.03583e-08
-3.75114e-15
3.05428e-08
1.81151e-08
-3.47198e-15
3.1535e-08
2.75065e-08
-3.68778e-15
3.15019e-08
3.8089e-08
-3.20183e-15
2.99547e-08
4.86294e-08
-3.22724e-15
2.65907e-08
5.70589e-08
-3.01404e-15
2.15298e-08
6.107e-08
-2.90844e-15
1.53754e-08
5.92542e-08
-2.98194e-15
9.00312e-09
5.18538e-08
-2.8549e-15
3.33335e-09
3.95964e-08
-2.82411e-15
1.92293e-08
-2.34602e-15
-6.44601e-09
-3.98681e-08
-6.39945e-15
-6.12323e-09
-4.05412e-08
-6.34298e-15
-5.66942e-09
-4.09485e-08
-6.38535e-15
-5.09286e-09
-4.109e-08
-6.1996e-15
-4.40422e-09
-4.09829e-08
-6.1732e-15
-3.61586e-09
-4.06371e-08
-6.06261e-15
-2.74095e-09
-4.00729e-08
-5.86338e-15
-1.79292e-09
-3.93093e-08
-5.72222e-15
-7.85234e-10
-3.83631e-08
-5.56302e-15
2.69049e-10
-3.72633e-08
-5.38444e-15
1.3575e-09
-3.60251e-08
-5.16461e-15
2.46875e-09
-3.46761e-08
-5.00013e-15
3.59312e-09
-3.32376e-08
-5.07032e-15
4.72251e-09
-3.17293e-08
-4.96963e-15
5.85057e-09
-3.01706e-08
-4.874e-15
6.97265e-09
-2.8578e-08
-4.78273e-15
8.08586e-09
-2.69665e-08
-4.69985e-15
9.18923e-09
-2.53458e-08
-4.61236e-15
1.0284e-08
-2.37238e-08
-4.53633e-15
1.13735e-08
-2.21021e-08
-4.46174e-15
1.24636e-08
-2.0472e-08
-4.39651e-15
1.35634e-08
-1.88325e-08
-4.3325e-15
1.46847e-08
-1.71475e-08
-4.27268e-15
1.58431e-08
-1.53895e-08
-4.21134e-15
1.70574e-08
-1.34945e-08
-4.15466e-15
1.8349e-08
-1.13804e-08
-4.08283e-15
1.97418e-08
-8.9347e-09
-3.9649e-15
2.1257e-08
-5.98084e-09
-4.08352e-15
2.29068e-08
-2.29579e-09
-3.87748e-15
2.46789e-08
2.42159e-09
-3.64379e-15
2.65096e-08
8.52766e-09
-3.76813e-15
2.82435e-08
1.63812e-08
-3.52855e-15
2.95853e-08
2.61648e-08
-3.73589e-15
3.00793e-08
3.7595e-08
-3.33344e-15
2.91778e-08
4.95309e-08
-3.37027e-15
2.64484e-08
5.97883e-08
-3.2365e-15
2.18548e-08
6.56636e-08
-3.19561e-15
1.5897e-08
6.5212e-08
-3.32583e-15
9.45347e-09
5.82973e-08
-3.26042e-15
3.54436e-09
4.55055e-08
-3.28169e-15
2.27737e-08
-2.82147e-15
-5.49501e-09
-3.9998e-08
-6.43158e-15
-5.24741e-09
-4.07888e-08
-6.3821e-15
-4.88441e-09
-4.13115e-08
-6.38012e-15
-4.4115e-09
-4.1563e-08
-6.24605e-15
-3.83657e-09
-4.15578e-08
-6.22387e-15
-3.1694e-09
-4.13043e-08
-6.11539e-15
-2.42077e-09
-4.08215e-08
-5.89716e-15
-1.60189e-09
-4.01281e-08
-5.74073e-15
-7.24195e-10
-3.92408e-08
-5.56971e-15
2.0104e-10
-3.81886e-08
-5.39228e-15
1.16284e-09
-3.69869e-08
-5.18152e-15
2.15072e-09
-3.5664e-08
-5.04181e-15
3.15553e-09
-3.42424e-08
-5.08647e-15
4.1694e-09
-3.27432e-08
-4.98023e-15
5.18595e-09
-3.11872e-08
-4.88161e-15
6.20031e-09
-2.95923e-08
-4.78759e-15
7.20911e-09
-2.79753e-08
-4.70349e-15
8.21063e-09
-2.63473e-08
-4.61478e-15
9.20506e-09
-2.47183e-08
-4.53847e-15
1.01945e-08
-2.30916e-08
-4.46447e-15
1.11833e-08
-2.14608e-08
-4.39981e-15
1.21788e-08
-1.9828e-08
-4.33688e-15
1.31911e-08
-1.81597e-08
-4.27779e-15
1.4234e-08
-1.64325e-08
-4.21708e-15
1.53253e-08
-1.45858e-08
-4.16041e-15
1.64865e-08
-1.25416e-08
-4.08963e-15
1.77434e-08
-1.01917e-08
-3.98305e-15
1.91227e-08
-7.36006e-09
-4.07248e-15
2.06476e-08
-3.82082e-09
-3.87245e-15
2.2326e-08
7.43226e-10
-3.65482e-15
2.4126e-08
6.72772e-09
-3.75559e-15
2.5936e-08
1.45711e-08
-3.55877e-15
2.75086e-08
2.45923e-08
-3.74883e-15
2.84161e-08
3.66874e-08
-3.43841e-15
2.80835e-08
4.98635e-08
-3.50363e-15
2.59726e-08
6.18991e-08
-3.46731e-15
2.18912e-08
6.9745e-08
-3.50656e-15
1.62115e-08
7.08917e-08
-3.7092e-15
9.78318e-09
6.47257e-08
-3.72678e-15
3.70784e-09
5.15808e-08
-3.81533e-15
2.64815e-08
-3.39598e-15
-4.67318e-09
-4.0086e-08
-6.41253e-15
-4.48394e-09
-4.09781e-08
-6.38911e-15
-4.19378e-09
-4.16016e-08
-6.33414e-15
-3.80599e-09
-4.19508e-08
-6.19671e-15
-3.32617e-09
-4.20376e-08
-6.17217e-15
-2.76189e-09
-4.18685e-08
-6.04508e-15
-2.12187e-09
-4.14616e-08
-5.84695e-15
-1.41542e-09
-4.08346e-08
-5.70509e-15
-6.52107e-10
-4.00041e-08
-5.54568e-15
1.5848e-10
-3.89991e-08
-5.38384e-15
1.0069e-09
-3.78354e-08
-5.19658e-15
1.88373e-09
-3.65408e-08
-5.0633e-15
2.78054e-09
-3.51392e-08
-5.09337e-15
3.68981e-09
-3.36524e-08
-4.98629e-15
4.60533e-09
-3.21027e-08
-4.88626e-15
5.52217e-09
-3.05092e-08
-4.79083e-15
6.43669e-09
-2.88898e-08
-4.70572e-15
7.34665e-09
-2.72573e-08
-4.61699e-15
8.25148e-09
-2.56231e-08
-4.54073e-15
9.1522e-09
-2.39923e-08
-4.467e-15
1.00519e-08
-2.23604e-08
-4.40268e-15
1.09563e-08
-2.07325e-08
-4.34034e-15
1.18737e-08
-1.90771e-08
-4.28149e-15
1.28161e-08
-1.73749e-08
-4.22076e-15
1.37992e-08
-1.55689e-08
-4.16356e-15
1.48435e-08
-1.35858e-08
-4.09295e-15
1.59744e-08
-1.13227e-08
-3.9941e-15
1.7221e-08
-8.60655e-09
-4.05418e-15
1.86129e-08
-5.21286e-09
-3.85119e-15
2.01719e-08
-8.15791e-10
-3.63414e-15
2.18916e-08
5.00814e-09
-3.71287e-15
2.36999e-08
1.27626e-08
-3.53932e-15
2.54004e-08
2.28919e-08
-3.74753e-15
2.66094e-08
3.54784e-08
-3.51447e-15
2.67532e-08
4.97196e-08
-3.6278e-15
2.52174e-08
6.34349e-08
-3.70713e-15
2.16651e-08
7.32973e-08
-3.84343e-15
1.63252e-08
7.62316e-08
-4.13582e-15
9.98992e-09
7.10611e-08
-4.26397e-15
3.82114e-09
5.77495e-08
-4.44194e-15
3.03027e-08
-4.111e-15
-3.96478e-09
-4.01434e-08
-6.42087e-15
-3.82063e-09
-4.11222e-08
-6.38287e-15
-3.58876e-09
-4.18335e-08
-6.31836e-15
-3.27073e-09
-4.22688e-08
-6.16796e-15
-2.8703e-09
-4.2438e-08
-6.16825e-15
-2.39313e-09
-4.23457e-08
-6.04317e-15
-1.84619e-09
-4.20085e-08
-5.8491e-15
-1.23715e-09
-4.14436e-08
-5.70352e-15
-5.74014e-10
-4.06673e-08
-5.54192e-15
1.35205e-10
-3.97084e-08
-5.38427e-15
8.82507e-10
-3.85827e-08
-5.21417e-15
1.6597e-09
-3.7318e-08
-5.07882e-15
2.45918e-09
-3.59387e-08
-5.09706e-15
3.27395e-09
-3.44672e-08
-4.98962e-15
4.09804e-09
-3.29268e-08
-4.88886e-15
4.92662e-09
-3.13377e-08
-4.7929e-15
5.75594e-09
-2.97191e-08
-4.70645e-15
6.58344e-09
-2.80848e-08
-4.6189e-15
7.40799e-09
-2.64476e-08
-4.543e-15
8.22981e-09
-2.48142e-08
-4.46935e-15
9.05094e-09
-2.31815e-08
-4.4052e-15
9.87564e-09
-2.15572e-08
-4.3432e-15
1.07106e-08
-1.9912e-08
-4.28416e-15
1.15658e-08
-1.82301e-08