/*--------------------------------*- C++ -*----------------------------------*\
| =========                 |                                                 |
| \\      /  F ield         | OpenFOAM: The Open Source CFD Toolbox           |
|  \\    /   O peration     | Version:  v2012                                 |
|   \\  /    A nd           | Website:  www.openfoam.com                      |
|    \\/     M anipulation  |                                                 |
\*---------------------------------------------------------------------------*/
FoamFile
{
    version     2.0;
    format      ascii;
    class       surfaceScalarField;
    location    "0.95";
    object      phi;
}
// * * * * * * * * * * * * * * * * * * * * * * * * * * * * * * * * * * * * * //

dimensions      [0 3 -1 0 0 0 0];
oriented        oriented;


internalField   nonuniform List<scalar> 
8134
(
-3.56818e-08
-8.01896e-09
-2.92755e-15
-2.88136e-08
-6.86818e-09
-2.474e-15
-2.28923e-08
-5.92127e-09
-2.20109e-15
-1.77772e-08
-5.1151e-09
-2.18018e-15
-1.33622e-08
-4.415e-09
-1.99287e-15
-9.56541e-09
-3.79681e-09
-1.75114e-15
-6.31835e-09
-3.24706e-09
-1.62322e-15
-3.562e-09
-2.75635e-09
-1.53304e-15
-1.24288e-09
-2.31911e-09
-1.34522e-15
6.89437e-10
-1.93232e-09
-1.25053e-15
2.28095e-09
-1.59151e-09
-1.13589e-15
3.57358e-09
-1.29263e-09
-1.0961e-15
4.60572e-09
-1.03214e-09
-1.50498e-15
5.41287e-09
-8.07176e-10
1.36192e-16
6.0268e-09
-6.13941e-10
-6.56656e-16
6.47553e-09
-4.48729e-10
-6.18633e-16
6.78362e-09
-3.0809e-10
-5.83045e-16
6.97247e-09
-1.88828e-10
-5.24676e-16
7.06059e-09
-8.81251e-11
-5.09026e-16
7.0633e-09
-2.74568e-12
-4.73504e-16
6.99482e-09
6.84861e-11
-4.52227e-16
6.86605e-09
1.2874e-10
-4.29018e-16
6.68636e-09
1.79733e-10
-4.12163e-16
6.46282e-09
2.23505e-10
-4.04798e-16
6.20111e-09
2.61727e-10
-3.97382e-16
5.90486e-09
2.96223e-10
-3.92431e-16
5.57644e-09
3.28425e-10
-3.93412e-16
5.21689e-09
3.59573e-10
-3.68236e-16
4.82604e-09
3.9082e-10
-3.40435e-16
4.40398e-09
4.22072e-10
-3.65708e-16
3.95105e-09
4.52923e-10
-2.97111e-16
3.46965e-09
4.81392e-10
-2.28905e-16
2.96535e-09
5.04313e-10
-2.32101e-16
2.44798e-09
5.17357e-10
-1.87776e-16
1.93279e-09
5.15197e-10
-1.96992e-16
1.43924e-09
4.93554e-10
-1.09336e-16
9.88809e-10
4.50425e-10
-1.77911e-17
6.01165e-10
3.87645e-10
8.93981e-17
2.90362e-10
3.10804e-10
1.70584e-16
6.32588e-11
2.27105e-10
-1.17072e-16
-7.19065e-11
1.35168e-10
-5.80202e-16
-9.68778e-11
2.4974e-11
-4.46387e-16
-9.68775e-11
3.33186e-16
-4.53608e-08
-1.54576e-08
-6.13416e-15
-3.85032e-08
-1.37256e-08
-5.5646e-15
-3.21557e-08
-1.22688e-08
-5.18476e-15
-2.62647e-08
-1.10061e-08
-5.09167e-15
-2.07919e-08
-9.88782e-09
-4.81541e-15
-1.5714e-08
-8.87468e-09
-4.45857e-15
-1.10175e-08
-7.9436e-09
-4.23687e-15
-6.69662e-09
-7.07719e-09
-3.92448e-15
-2.74969e-09
-6.26604e-09
-3.52333e-15
8.23438e-10
-5.50545e-09
-3.27176e-15
4.02385e-09
-4.79192e-09
-2.99961e-15
6.85446e-09
-4.12322e-09
-2.78271e-15
9.3211e-09
-3.49876e-09
-3.00937e-15
1.14337e-08
-2.91987e-09
-1.19593e-15
1.32066e-08
-2.38679e-09
-1.59395e-15
1.46571e-08
-1.89927e-09
-1.44709e-15
1.58058e-08
-1.45676e-09
-1.33417e-15
1.66751e-08
-1.05808e-09
-1.25213e-15
1.72885e-08
-7.01515e-10
-1.23586e-15
1.76702e-08
-3.84514e-10
-1.20991e-15
1.7843e-08
-1.04329e-10
-1.15722e-15
1.78293e-08
1.42385e-10
-1.10044e-15
1.76493e-08
3.598e-10
-1.04742e-15
1.73198e-08
5.52958e-10
-1.00883e-15
1.68552e-08
7.2633e-10
-9.71884e-16
1.6266e-08
8.85344e-10
-9.36157e-16
1.55597e-08
1.03476e-09
-8.93699e-16
1.47403e-08
1.17902e-09
-8.44323e-16
1.38085e-08
1.32258e-09
-7.5571e-16
1.27647e-08
1.46588e-09
-8.07927e-16
1.16094e-08
1.60825e-09
-6.41686e-16
1.03474e-08
1.74329e-09
-4.8562e-16
8.99189e-09
1.85989e-09
-5.00634e-16
7.5674e-09
1.94182e-09
-4.08046e-16
6.11474e-09
1.96787e-09
-4.39832e-16
4.6891e-09
1.9192e-09
-2.83053e-16
3.35512e-09
1.7844e-09
-3.37573e-16
2.17671e-09
1.56606e-09
-2.24382e-16
1.20459e-09
1.28292e-09
7.39363e-17
4.70662e-10
9.61036e-10
3.04935e-18
7.89624e-13
6.05042e-10
-2.98969e-16
-1.55023e-10
1.8079e-10
-6.33711e-16
-2.519e-10
2.73337e-17
-4.37283e-08
-2.14858e-08
-7.55857e-15
-3.79382e-08
-1.95156e-08
-7.12279e-15
-3.23878e-08
-1.78192e-08
-6.61139e-15
-2.70666e-08
-1.63274e-08
-6.40556e-15
-2.19629e-08
-1.49915e-08
-6.09634e-15
-1.70691e-08
-1.37684e-08
-5.78366e-15
-1.2382e-08
-1.26307e-08
-5.61892e-15
-7.90463e-09
-1.15546e-08
-5.31673e-15
-3.64499e-09
-1.05257e-08
-4.90893e-15
3.83165e-10
-9.5336e-09
-4.63324e-15
4.16606e-09
-8.57482e-09
-4.3319e-15
7.68425e-09
-7.6414e-09
-4.02593e-15
1.09203e-08
-6.73478e-09
-4.03616e-15
1.38573e-08
-5.85695e-09
-2.09761e-15
1.64815e-08
-5.01105e-09
-2.3887e-15
1.87829e-08
-4.20069e-09
-2.2316e-15
2.07561e-08
-3.42993e-09
-2.08038e-15
2.24007e-08
-2.70257e-09
-1.97833e-15
2.3721e-08
-2.02186e-09
-1.97083e-15
2.47262e-08
-1.38978e-09
-1.94941e-15
2.54291e-08
-8.07263e-10
-1.88626e-15
2.58448e-08
-2.73408e-10
-1.80497e-15
2.59903e-08
2.14421e-10
-1.72422e-15
2.58822e-08
6.60926e-10
-1.65655e-15
2.55365e-08
1.0722e-09
-1.59021e-15
2.49653e-08
1.45644e-09
-1.52515e-15
2.41782e-08
1.82184e-09
-1.45598e-15
2.31806e-08
2.17677e-09
-1.37645e-15
2.19728e-08
2.53021e-09
-1.22877e-15
2.05546e-08
2.88415e-09
-1.34723e-15
1.89245e-08
3.23833e-09
-1.09761e-15
1.70868e-08
3.58087e-09
-8.59175e-16
1.50575e-08
3.88932e-09
-9.00301e-16
1.28703e-08
4.12897e-09
-7.49429e-16
1.05861e-08
4.25204e-09
-8.04265e-16
8.29255e-09
4.21276e-09
-5.40833e-16
6.09799e-09
3.97894e-09
-5.1063e-16
4.11612e-09
3.54793e-09
-5.89534e-16
2.44385e-09
2.9552e-09
-1.7409e-16
1.14771e-09
2.25717e-09
-2.02059e-16
2.75159e-10
1.4776e-09
-4.06705e-16
-1.05457e-10
5.61408e-10
-1.76121e-16
-3.57355e-10
-3.06864e-16
-4.00382e-08
-2.62249e-08
-7.30423e-15
-3.52789e-08
-2.42749e-08
-6.85483e-15
-3.05621e-08
-2.2536e-08
-6.53501e-15
-2.59216e-08
-2.0968e-08
-6.61699e-15
-2.13751e-08
-1.95379e-08
-6.515e-15
-1.69329e-08
-1.82107e-08
-6.31778e-15
-1.26004e-08
-1.69632e-08
-6.20068e-15
-8.38325e-09
-1.57717e-08
-5.91835e-15
-4.28816e-09
-1.46208e-08
-5.55201e-15
-3.24744e-10
-1.3497e-08
-5.29169e-15
3.49553e-09
-1.23951e-08
-5.01173e-15
7.15693e-09
-1.13028e-08
-4.70526e-15
1.06413e-08
-1.02192e-08
-4.54205e-15
1.3928e-08
-9.14373e-09
-2.57803e-15
1.69953e-08
-8.0783e-09
-2.93362e-15
1.98206e-08
-7.02603e-09
-2.85171e-15
2.23825e-08
-5.9918e-09
-2.71921e-15
2.46613e-08
-4.9813e-09
-2.62915e-15
2.66403e-08
-4.00087e-09
-2.63421e-15
2.83067e-08
-3.0563e-09
-2.62073e-15
2.96523e-08
-2.1529e-09
-2.55668e-15
3.06729e-08
-1.2941e-09
-2.45919e-15
3.13685e-08
-4.81003e-10
-2.35555e-15
3.17415e-08
2.87721e-10
-2.26411e-15
3.17972e-08
1.01663e-09
-2.17347e-15
3.15401e-08
1.71347e-09
-2.08325e-15
3.09737e-08
2.38824e-09
-1.98939e-15
3.00984e-08
3.05218e-09
-1.88431e-15
2.89097e-08
3.71872e-09
-1.67589e-15
2.7402e-08
4.39194e-09
-1.85883e-15
2.55676e-08
5.07272e-09
-1.5328e-15
2.34048e-08
5.74358e-09
-1.21548e-15
2.09255e-08
6.36864e-09
-1.28389e-15
1.81653e-08
6.88915e-09
-1.07006e-15
1.51973e-08
7.22012e-09
-1.15054e-15
1.21359e-08
7.27414e-09
-7.92592e-16
9.13262e-09
6.98219e-09
-7.57878e-16
6.35617e-09
6.32438e-09
-6.32293e-16
3.95991e-09
5.35146e-09
-4.51408e-16
2.05571e-09
4.16138e-09
-3.51255e-16
7.17248e-10
2.81606e-09
-7.25951e-16
2.86052e-11
1.25005e-09
8.74849e-17
-3.2875e-10
3.04878e-17
-3.59557e-08
-2.98503e-08
-7.73236e-15
-3.21346e-08
-2.80959e-08
-7.19756e-15
-2.82068e-08
-2.64637e-08
-6.70288e-15
-2.42335e-08
-2.49414e-08
-6.6289e-15
-2.02563e-08
-2.3515e-08
-6.45484e-15
-1.63042e-08
-2.21628e-08
-6.30631e-15
-1.23962e-08
-2.08711e-08
-6.26927e-15
-8.54617e-09
-1.96218e-08
-6.05597e-15
-4.76414e-09
-1.84028e-08
-5.75974e-15
-1.05862e-09
-1.72025e-08
-5.53735e-15
2.56046e-09
-1.60142e-08
-5.2902e-15
6.08537e-09
-1.48277e-08
-4.99349e-15
9.50466e-09
-1.36384e-08
-4.69838e-15
1.28048e-08
-1.24439e-08
-2.85915e-15
1.597e-08
-1.12435e-08
-3.30062e-15
1.89816e-08
-1.00376e-08
-3.32246e-15
2.18184e-08
-8.8286e-09
-3.24668e-15
2.44574e-08
-7.62018e-09
-3.19506e-15
2.68741e-08
-6.41757e-09
-3.21647e-15
2.90438e-08
-5.22621e-09
-3.20701e-15
3.09432e-08
-4.05228e-09
-3.14174e-15
3.255e-08
-2.90096e-09
-3.03773e-15
3.38448e-08
-1.77561e-09
-2.9232e-15
3.48105e-08
-6.78167e-10
-2.81703e-15
3.54326e-08
3.94625e-10
-2.70948e-15
3.56976e-08
1.44839e-09
-2.60036e-15
3.55934e-08
2.49235e-09
-2.48691e-15
3.51067e-08
3.5391e-09
-2.36339e-15
3.42197e-08
4.60549e-09
-2.10172e-15
3.29138e-08
5.69802e-09
-2.32786e-15
3.11671e-08
6.81924e-09
-1.9543e-15
2.89638e-08
7.94689e-09
-1.56905e-15
2.63017e-08
9.03085e-09
-1.66241e-15
2.32065e-08
9.98419e-09
-1.38393e-15
1.97521e-08
1.06746e-08
-1.4873e-15
1.60701e-08
1.09562e-08
-1.03827e-15
1.23503e-08
1.07019e-08
-1.0116e-15
8.8195e-09
9.85522e-09
-8.32018e-16
5.69747e-09
8.47349e-09
-6.73432e-16
3.15393e-09
6.70493e-09
-6.94311e-16
1.29719e-09
4.67281e-09
-7.74385e-16
2.2534e-10
2.32189e-09
2.97436e-17
-1.03409e-10
1.47542e-16
-3.18065e-08
-3.25265e-08
-7.38646e-15
-2.8823e-08
-3.10793e-08
-6.83931e-15
-2.56273e-08
-2.96595e-08
-6.4923e-15
-2.22923e-08
-2.82765e-08
-6.57204e-15
-1.88735e-08
-2.69337e-08
-6.48711e-15
-1.54133e-08
-2.56231e-08
-6.38536e-15
-1.19425e-08
-2.43419e-08
-6.35375e-15
-8.4843e-09
-2.30799e-08
-6.11881e-15
-5.05581e-09
-2.18313e-08
-5.82071e-15
-1.66948e-09
-2.05888e-08
-5.59814e-15
1.66359e-09
-1.93472e-08
-5.36666e-15
4.93711e-09
-1.81012e-08
-5.07837e-15
8.14379e-09
-1.68451e-08
-4.68843e-15
1.12765e-08
-1.55767e-08
-3.07152e-15
1.43273e-08
-1.42943e-08
-3.59454e-15
1.7286e-08
-1.29963e-08
-3.69993e-15
2.014e-08
-1.16826e-08
-3.68004e-15
2.28734e-08
-1.03536e-08
-3.66758e-15
2.5467e-08
-9.0111e-09
-3.69899e-15
2.78977e-08
-7.65709e-09
-3.6864e-15
3.01402e-08
-6.29471e-09
-3.61949e-15
3.21657e-08
-4.92666e-09
-3.51704e-15
3.39447e-08
-3.55435e-09
-3.40203e-15
3.54463e-08
-2.17997e-09
-3.29123e-15
3.66396e-08
-7.98505e-10
-3.17581e-15
3.74919e-08
5.95945e-10
-3.05631e-15
3.79703e-08
2.01393e-09
-2.93101e-15
3.80412e-08
3.46842e-09
-2.79641e-15
3.76668e-08
4.97965e-09
-2.49586e-15
3.6807e-08
6.5579e-09
-2.74964e-15
3.54174e-08
8.20879e-09
-2.34894e-15
3.34566e-08
9.90758e-09
-1.91433e-15
3.08962e-08
1.15913e-08
-2.02808e-15
2.77372e-08
1.31432e-08
-1.68991e-15
2.40368e-08
1.4375e-08
-1.81328e-15
1.99281e-08
1.50649e-08
-1.28179e-15
1.56285e-08
1.50015e-08
-1.26352e-15
1.14205e-08
1.40632e-08
-1.04608e-15
7.59809e-09
1.22959e-08
-8.74466e-16
4.40226e-09
9.90077e-09
-9.71242e-16
1.988e-09
7.08707e-09
-4.97144e-16
4.75309e-10
3.83458e-09
-6.33198e-16
3.71901e-10
1.96924e-16
-2.78349e-08
-3.445e-08
-7.51861e-15
-2.55542e-08
-3.33599e-08
-6.96111e-15
-2.30011e-08
-3.22126e-08
-6.62011e-15
-2.0247e-08
-3.10306e-08
-6.60648e-15
-1.73509e-08
-2.98298e-08
-6.43662e-15
-1.4361e-08
-2.8613e-08
-6.32471e-15
-1.13154e-08
-2.73876e-08
-6.30968e-15
-8.24419e-09
-2.61511e-08
-6.10112e-15
-5.17079e-09
-2.49047e-08
-5.83474e-15
-2.11281e-09
-2.36468e-08
-5.62557e-15
9.15247e-10
-2.23753e-08
-5.40596e-15
3.90487e-09
-2.10908e-08
-5.11567e-15
6.84874e-09
-1.9789e-08
-4.66528e-15
9.74204e-09
-1.84701e-08
-3.29551e-15
1.25808e-08
-1.71332e-08
-3.86995e-15
1.53612e-08
-1.57767e-08
-4.01869e-15
1.80784e-08
-1.43998e-08
-4.03246e-15
2.07258e-08
-1.30009e-08
-4.04296e-15
2.32936e-08
-1.15789e-08
-4.07234e-15
2.57681e-08
-1.01317e-08
-4.0507e-15
2.81316e-08
-8.65815e-09
-3.98295e-15
3.03606e-08
-7.15583e-09
-3.88646e-15
3.24272e-08
-5.62078e-09
-3.7782e-15
3.42987e-08
-4.0516e-09
-3.67053e-15
3.59379e-08
-2.43761e-09
-3.55534e-15
3.73028e-08
-7.69088e-10
-3.43425e-15
3.83457e-08
9.71025e-10
-3.30606e-15
3.90137e-08
2.80062e-09
-3.16839e-15
3.92482e-08
4.74492e-09
-2.84752e-15
3.89845e-08
6.82173e-09
-3.12274e-15
3.81496e-08
9.0436e-09
-2.70653e-15
3.66684e-08
1.13887e-08
-2.24188e-15
3.44736e-08
1.37863e-08
-2.37074e-15
3.15246e-08
1.60921e-08
-1.98349e-15
2.78416e-08
1.80581e-08
-2.12403e-15
2.35363e-08
1.93702e-08
-1.52413e-15
1.88347e-08
1.9703e-08
-1.51355e-15
1.40654e-08
1.88326e-08
-1.26108e-15
9.59881e-09
1.67624e-08
-1.08196e-15
5.7595e-09
1.37401e-08
-1.19428e-15
2.76405e-09
1.00825e-08
-7.8424e-16
7.6615e-10
5.83247e-09
-1.14001e-15
1.13805e-09
-4.70283e-17
-2.41476e-08
-3.57876e-08
-7.22121e-15
-2.24407e-08
-3.50668e-08
-6.75965e-15
-2.04342e-08
-3.42191e-08
-6.50554e-15
-1.81917e-08
-3.32731e-08
-6.5304e-15
-1.57691e-08
-3.22523e-08
-6.39121e-15
-1.3215e-08
-3.1167e-08
-6.30987e-15
-1.057e-08
-3.00326e-08
-6.2997e-15
-7.86805e-09
-2.88531e-08
-6.09564e-15
-5.13656e-09
-2.76362e-08
-5.8273e-15
-2.39739e-09
-2.6386e-08
-5.61657e-15
3.31371e-10
-2.51041e-08
-5.40807e-15
3.03844e-09
-2.37979e-08
-5.12675e-15
5.71383e-09
-2.24643e-08
-4.66381e-15
8.35213e-09
-2.11084e-08
-3.53618e-15
1.09499e-08
-1.9731e-08
-4.12606e-15
1.35056e-08
-1.83324e-08
-4.28344e-15
1.60185e-08
-1.69127e-08
-4.30738e-15
1.84881e-08
-1.54704e-08
-4.32272e-15
2.09126e-08
-1.40035e-08
-4.34045e-15
2.3288e-08
-1.25072e-08
-4.30814e-15
2.56068e-08
-1.09769e-08
-4.24076e-15
2.78563e-08
-9.40539e-09
-4.15167e-15
3.0018e-08
-7.78231e-09
-4.05287e-15
3.2067e-08
-6.10078e-09
-3.95226e-15
3.3971e-08
-4.34151e-09
-3.84318e-15
3.56899e-08
-2.4881e-09
-3.72711e-15
3.71742e-08
-5.13286e-10
-3.60377e-15
3.83627e-08
1.61231e-09
-3.46999e-15
3.91827e-08
3.92465e-09
-3.14806e-15
3.955e-08
6.45461e-09
-3.42524e-15
3.93648e-08
9.22864e-09
-3.0154e-15
3.85164e-08
1.2237e-08
-2.54168e-15
3.68913e-08
1.54115e-08
-2.68117e-15
3.43937e-08
1.85896e-08
-2.25981e-15
3.09852e-08
2.14667e-08
-2.41574e-15
2.67298e-08
2.36256e-08
-1.76526e-15
2.18349e-08
2.45979e-08
-1.76007e-15
1.66552e-08
2.40123e-08
-1.47541e-15
1.16322e-08
2.17854e-08
-1.28431e-15
7.18239e-09
1.81899e-08
-1.37796e-15
3.59979e-09
1.36652e-08
-1.048e-15
1.08721e-09
8.34504e-09
-1.35032e-15
2.22526e-09
-4.72775e-16
-2.08135e-08
-3.66868e-08
-7.16956e-15
-1.95595e-08
-3.63208e-08
-6.84862e-15
-1.80037e-08
-3.57749e-08
-6.71785e-15
-1.61984e-08
-3.50784e-08
-6.65297e-15
-1.41926e-08
-3.42581e-08
-6.40606e-15
-1.20315e-08
-3.33282e-08
-6.27341e-15
-9.75452e-09
-3.23096e-08
-6.24137e-15
-7.39637e-09
-3.12112e-08
-6.07649e-15
-4.98636e-09
-3.00462e-08
-5.82574e-15
-2.54884e-09
-2.88235e-08
-5.62672e-15
-1.04389e-10
-2.75485e-08
-5.43061e-15
2.33316e-09
-2.62354e-08
-5.15913e-15
4.75107e-09
-2.48822e-08
-4.70984e-15
7.14198e-09
-2.34993e-08
-3.794e-15
9.50124e-09
-2.20903e-08
-4.35313e-15
1.18268e-08
-2.06579e-08
-4.48953e-15
1.4119e-08
-1.92048e-08
-4.50796e-15
1.63796e-08
-1.7731e-08
-4.51653e-15
1.86113e-08
-1.62351e-08
-4.51928e-15
2.08162e-08
-1.47122e-08
-4.4775e-15
2.29952e-08
-1.31559e-08
-4.4115e-15
2.51457e-08
-1.1556e-08
-4.32918e-15
2.72607e-08
-9.89714e-09
-4.23937e-15
2.93272e-08
-8.16744e-09
-4.14687e-15
3.13244e-08
-6.33859e-09
-4.04648e-15
3.32223e-08
-4.38612e-09
-3.93959e-15
3.49801e-08
-2.27106e-09
-3.82575e-15
3.65427e-08
4.98752e-11
-3.70046e-15
3.78358e-08
2.63138e-09
-3.39372e-15
3.87674e-08
5.52313e-09
-3.66508e-15
3.92214e-08
8.77453e-09
-3.27169e-15
3.90583e-08
1.24e-08
-2.80539e-15
3.81206e-08
1.63493e-08
-2.95239e-15
3.62514e-08
2.04586e-08
-2.51364e-15
3.3338e-08
2.43802e-08
-2.68325e-15
2.93699e-08
2.75937e-08
-2.0025e-15
2.45036e-08
2.94641e-08
-1.99996e-15
1.90911e-08
2.94248e-08
-1.6875e-15
1.36285e-08
2.7248e-08
-1.48109e-15
8.62596e-09
2.31925e-08
-1.5417e-15
4.46938e-09
1.78218e-08
-1.2122e-15
1.42821e-09
1.13862e-08
-1.21519e-15
3.65347e-09
-7.32663e-16
-1.78471e-08
-7.19779e-15
-1.69444e-08
-6.7557e-15
-1.57531e-08
-3.69662e-08
-6.57084e-15
-1.43138e-08
-3.65177e-08
-6.50531e-15
-1.26673e-08
-3.59045e-08
-6.31933e-15
-1.08531e-08
-3.51424e-08
-6.24415e-15
-8.90763e-09
-3.42551e-08
-6.22439e-15
-6.86385e-09
-3.3255e-08
-6.07442e-15
-4.75099e-09
-3.21591e-08
-5.82029e-15
-2.59424e-09
-3.09802e-08
-5.61744e-15
-4.14988e-10
-2.97278e-08
-5.4301e-15
1.76941e-09
-2.84198e-08
-5.17901e-15
3.94588e-09
-2.70587e-08
-4.78132e-15
6.10464e-09
-2.56581e-08
-4.04914e-15
8.23924e-09
-2.42249e-08
-4.5409e-15
1.03462e-08
-2.27649e-08
-4.63732e-15
1.24248e-08
-2.12834e-08
-4.6453e-15
1.44768e-08
-1.9783e-08
-4.6423e-15
1.65061e-08
-1.82644e-08
-4.63061e-15
1.85176e-08
-1.67238e-08
-4.58156e-15
2.0517e-08
-1.51553e-08
-4.51723e-15
2.25084e-08
-1.35475e-08
-4.43993e-15
2.4494e-08
-1.18826e-08
-4.3572e-15
2.64719e-08
-1.01455e-08
-4.27197e-15
2.84343e-08
-8.30085e-09
-4.18024e-15
3.0365e-08
-6.31693e-09
-4.08347e-15
3.22372e-08
-4.14329e-09
-3.98132e-15
3.40094e-08
-1.72216e-09
-3.86636e-15
3.56217e-08
1.01888e-09
-3.58604e-15
3.69865e-08
4.15844e-09
-3.83899e-15
3.79866e-08
7.77437e-09
-3.47407e-15
3.84684e-08
1.19181e-08
-3.02876e-15
3.82424e-08
1.65754e-08
-3.18076e-15
3.70961e-08
2.16047e-08
-2.74126e-15
3.48365e-08
2.66399e-08
-2.92352e-15
3.13588e-08
3.10715e-08
-2.23277e-15
2.67361e-08
3.40867e-08
-2.23081e-15
2.12813e-08
3.48796e-08
-1.89761e-15
1.55189e-08
3.30103e-08
-1.68103e-15
1.00448e-08
2.86666e-08
-1.72095e-15
5.34677e-09
2.25198e-08
-1.39379e-15
1.77897e-09
1.4954e-08
-1.2308e-15
5.43244e-09
-9.2919e-16
-1.37055e-08
-3.78683e-08
-6.63743e-15
-1.25671e-08
-3.76561e-08
-6.56577e-15
-1.12249e-08
-3.72467e-08
-6.34447e-15
-9.71183e-09
-3.66554e-08
-6.24139e-15
-8.05984e-09
-3.59071e-08
-6.1967e-15
-6.29906e-09
-3.50158e-08
-6.05842e-15
-4.45706e-09
-3.40011e-08
-5.82019e-15
-2.55848e-09
-3.28788e-08
-5.62568e-15
-6.24962e-10
-3.16613e-08
-5.44752e-15
1.32525e-09
-3.03701e-08
-5.21285e-15
3.27781e-09
-2.90113e-08
-4.86759e-15
5.2215e-09
-2.76018e-08
-4.28544e-15
7.14828e-09
-2.61517e-08
-4.68821e-15
9.05306e-09
-2.46697e-08
-4.74028e-15
1.09336e-08
-2.3164e-08
-4.73409e-15
1.27906e-08
-2.16399e-08
-4.71889e-15
1.4627e-08
-2.01008e-08
-4.69531e-15
1.64482e-08
-1.85451e-08
-4.64113e-15
1.82613e-08
-1.69684e-08
-4.57814e-15
2.00741e-08
-1.53604e-08
-4.50412e-15
2.18942e-08
-1.37025e-08
-4.4262e-15
2.37277e-08
-1.19792e-08
-4.34635e-15
2.55772e-08
-1.01503e-08
-4.26182e-15
2.74397e-08
-8.17955e-09
-4.17373e-15
2.93036e-08
-6.00716e-09
-4.0824e-15
3.11448e-08
-3.56315e-09
-3.97772e-15
3.2922e-08
-7.58585e-10
-3.72926e-15
3.45664e-08
2.51421e-09
-3.97162e-15
3.59733e-08
6.36737e-09
-3.62633e-15
3.69928e-08
1.08984e-08
-3.21112e-15
3.74222e-08
1.61462e-08
-3.36582e-15
3.70092e-08
2.20176e-08
-2.9402e-15
3.54872e-08
2.81619e-08
-3.13347e-15
3.26488e-08
3.39099e-08
-2.45102e-15
2.84572e-08
3.82782e-08
-2.44925e-15
2.31484e-08
4.01885e-08
-2.1064e-15
1.72397e-08
3.8919e-08
-1.88955e-15
1.13946e-08
3.45117e-08
-1.9231e-15
6.20618e-09
2.77082e-08
-1.61959e-15
2.12929e-09
1.90309e-08
-1.47366e-15
7.56173e-09
-1.122e-15
-1.18671e-08
-3.85437e-08
-6.40278e-15
-1.0973e-08
-3.85502e-08
-6.40389e-15
-9.88486e-09
-3.83349e-08
-6.27381e-15
-8.62951e-09
-3.79108e-08
-6.22722e-15
-7.23392e-09
-3.73027e-08
-6.19019e-15
-5.72455e-09
-3.65252e-08
-6.04684e-15
-4.12645e-09
-3.55992e-08
-5.81352e-15
-2.46271e-09
-3.45425e-08
-5.61624e-15
-7.54314e-10
-3.33697e-08
-5.44334e-15
9.80553e-10
-3.21049e-08
-5.22636e-15
2.72685e-09
-3.07576e-08
-4.933e-15
4.47251e-09
-2.93475e-08
-4.48384e-15
6.20837e-09
-2.78875e-08
-4.79604e-15
7.92803e-09
-2.63893e-08
-4.80914e-15
9.62777e-09
-2.48637e-08
-4.78916e-15
1.13067e-08
-2.33188e-08
-4.76323e-15
1.29664e-08
-2.17606e-08
-4.73059e-15
1.46114e-08
-2.01901e-08
-4.67253e-15
1.62483e-08
-1.86053e-08
-4.61042e-15
1.78858e-08
-1.6998e-08
-4.53804e-15
1.95337e-08
-1.53503e-08
-4.46311e-15
2.12027e-08
-1.36483e-08
-4.38664e-15
2.29023e-08
-1.18497e-08
-4.30721e-15
2.46392e-08
-9.91657e-09
-4.22569e-15
2.64149e-08
-7.78287e-09
-4.14283e-15
2.82216e-08
-5.36968e-09
-4.04698e-15
3.00381e-08
-2.57528e-09
-3.83084e-15
3.18191e-08
7.3333e-10
-4.04303e-15
3.34834e-08
4.70294e-09
-3.73212e-15
3.49002e-08
9.4816e-09
-3.3532e-15
3.58732e-08
1.51734e-08
-3.50902e-15
3.61331e-08
2.17575e-08
-3.10945e-15
3.53583e-08
2.89368e-08
-3.31192e-15
3.32437e-08
3.60245e-08
-2.65391e-15
2.96276e-08
4.18942e-08
-2.65381e-15
2.46349e-08
4.51812e-08
-2.31684e-15
1.87361e-08
4.48178e-08
-2.11035e-15
1.26345e-08
4.06134e-08
-2.14679e-15
7.02286e-09
3.33198e-08
-1.87804e-15
2.46912e-09
2.35846e-08
-1.75774e-15
1.00309e-08
-1.3545e-15
-1.02341e-08
-3.90437e-08
-6.44603e-15
-9.53592e-09
-3.92484e-08
-6.4356e-15
-8.65762e-09
-3.92131e-08
-6.27248e-15
-7.62028e-09
-3.89481e-08
-6.2071e-15
-6.44605e-09
-3.84769e-08
-6.14049e-15
-5.15754e-09
-3.78137e-08
-6.00411e-15
-3.77674e-09
-3.698e-08
-5.79948e-15
-2.32459e-09
-3.59946e-08
-5.61488e-15
-8.20678e-10
-3.48736e-08
-5.45085e-15
7.17516e-10
-3.36431e-08
-5.24555e-15
2.27489e-09
-3.23149e-08
-4.98365e-15
3.83902e-09
-3.09116e-08
-4.64224e-15
5.4001e-09
-2.94486e-08
-4.87312e-15
6.95078e-09
-2.794e-08
-4.85427e-15
8.48619e-09
-2.63991e-08
-4.82218e-15
1.0004e-08
-2.48366e-08
-4.78715e-15
1.15045e-08
-2.32611e-08
-4.74796e-15
1.29903e-08
-2.1676e-08
-4.68695e-15
1.44672e-08
-2.00822e-08
-4.62526e-15
1.59429e-08
-1.84737e-08
-4.55348e-15
1.74276e-08
-1.68349e-08
-4.48009e-15
1.89333e-08
-1.51542e-08
-4.40548e-15
2.04732e-08
-1.33895e-08
-4.32928e-15
2.20601e-08
-1.15036e-08
-4.25222e-15
2.37047e-08
-9.4275e-09
-4.17549e-15
2.54124e-08
-7.07717e-09
-4.0865e-15
2.71792e-08
-4.34231e-09
-3.9004e-15
2.89832e-08
-1.07054e-09
-4.08485e-15
3.07711e-08
2.91495e-09
-3.80065e-15
3.24407e-08
7.81188e-09
-3.46073e-15
3.38195e-08
1.37947e-08
-3.61403e-15
3.46441e-08
2.09328e-08
-3.24893e-15
3.45632e-08
2.90178e-08
-3.45767e-15
3.31922e-08
3.73956e-08
-2.83845e-15
3.02437e-08
4.48427e-08
-2.84313e-15
2.57069e-08
4.97179e-08
-2.53004e-15
1.9966e-08
5.05587e-08
-2.3458e-15
1.37289e-08
4.68505e-08
-2.3911e-15
7.77399e-09
3.92747e-08
-2.16451e-15
2.78884e-09
2.85697e-08
-2.06542e-15
1.28197e-08
-1.6427e-15
-8.79545e-09
-3.94094e-08
-6.30432e-15
-8.25303e-09
-3.97909e-08
-6.28706e-15
-7.54652e-09
-3.99196e-08
-6.15289e-15
-6.69191e-09
-3.98027e-08
-6.12448e-15
-5.707e-09
-3.94618e-08
-6.07449e-15
-4.61062e-09
-3.891e-08
-5.94833e-15
-3.42165e-09
-3.8169e-08
-5.76933e-15
-2.15852e-09
-3.72578e-08
-5.5946e-15
-8.38952e-10
-3.61932e-08
-5.43917e-15
5.20759e-10
-3.50028e-08
-5.24623e-15
1.90601e-09
-3.37002e-08
-5.01099e-15
3.30441e-09
-3.231e-08
-4.7564e-15
4.70589e-09
-3.08501e-08
-4.92334e-15
6.10258e-09
-2.93367e-08
-4.88281e-15
7.48878e-09
-2.77853e-08
-4.84123e-15
8.8611e-09
-2.62089e-08
-4.79901e-15
1.02184e-08
-2.46184e-08
-4.75473e-15
1.15621e-08
-2.30198e-08
-4.69153e-15
1.28961e-08
-2.14162e-08
-4.62987e-15
1.42269e-08
-1.98046e-08
-4.55798e-15
1.55635e-08
-1.81714e-08
-4.48529e-15
1.69179e-08
-1.65086e-08
-4.41143e-15
1.8304e-08
-1.47756e-08
-4.33712e-15
1.97376e-08
-1.29373e-08
-4.26279e-15
2.1235e-08
-1.09249e-08
-4.19008e-15
2.28104e-08
-8.65243e-09
-4.10619e-15
2.44734e-08
-6.00543e-09
-3.94598e-15
2.62212e-08
-2.81825e-09
-4.10495e-15
2.80273e-08
1.10873e-09
-3.84059e-15
2.98222e-08
6.01692e-09
-3.53836e-15
3.14674e-08
1.21496e-08
-3.68617e-15
3.27249e-08
1.96752e-08
-3.3604e-15
3.32409e-08
2.85019e-08
-3.57088e-15
3.25775e-08
3.8059e-08
-3.00966e-15
3.03348e-08
4.70853e-08
-3.01878e-15
2.63548e-08
5.36979e-08
-2.74717e-15
2.09015e-08
5.6012e-08
-2.59805e-15
1.46494e-08
5.31027e-08
-2.65628e-15
8.43961e-09
4.54846e-08
-2.47628e-15
3.07956e-09
3.39297e-08
-2.40988e-15
1.58993e-08
-1.95991e-15
-7.53635e-09
-3.96732e-08
-6.47435e-15
-7.11688e-09
-4.02103e-08
-6.33552e-15
-6.54997e-09
-4.04865e-08
-6.24534e-15
-5.84741e-09
-4.05053e-08
-6.17751e-15
-5.02314e-09
-4.02861e-08
-6.07346e-15
-4.09257e-09
-3.98406e-08
-5.93674e-15
-3.07156e-09
-3.919e-08
-5.76315e-15
-1.976e-09
-3.83533e-08
-5.59381e-15
-8.21498e-10
-3.73477e-08
-5.44279e-15
3.77184e-10
-3.62015e-08
-5.25729e-15
1.60636e-09
-3.49294e-08
-5.03549e-15
2.85404e-09
-3.35577e-08
-4.83929e-15
4.1102e-09
-3.21063e-08
-4.95737e-15
5.36674e-09
-3.05932e-08
-4.90143e-15
6.6175e-09
-2.90361e-08
-4.85186e-15
7.85831e-09
-2.74497e-08
-4.80373e-15
9.08703e-09
-2.58472e-08
-4.75538e-15
1.03037e-08
-2.42365e-08
-4.69033e-15
1.15109e-08
-2.26234e-08
-4.6284e-15
1.27133e-08
-2.10071e-08
-4.55615e-15
1.39187e-08
-1.93766e-08
-4.48372e-15
1.51375e-08
-1.77275e-08
-4.40998e-15
1.63832e-08
-1.60212e-08
-4.33659e-15
1.76721e-08
-1.42263e-08
-4.26376e-15
1.90229e-08
-1.22757e-08
-4.19351e-15
2.0455e-08
-1.00844e-08
-4.11313e-15
2.19869e-08
-7.5375e-09
-3.97419e-15
2.36304e-08
-4.46162e-09
-4.1105e-15
2.5381e-08
-6.41992e-10
-3.85982e-15
2.72004e-08
4.19751e-09
-3.59127e-15
2.89881e-08
1.0362e-08
-3.73057e-15
3.05445e-08
1.81187e-08
-3.44592e-15
3.15365e-08
2.75099e-08
-3.65309e-15
3.15032e-08
3.80923e-08
-3.15972e-15
2.99558e-08
4.86327e-08
-3.18143e-15
2.65917e-08
5.7062e-08
-2.9697e-15
2.15305e-08
6.10731e-08
-2.86945e-15
1.53759e-08
5.92573e-08
-2.95085e-15
9.00352e-09
5.1857e-08
-2.8301e-15
3.33356e-09
3.95997e-08
-2.80479e-15
1.92328e-08
-2.33855e-15
-6.44018e-09
-3.98605e-08
-6.46345e-15
-6.1171e-09
-4.05334e-08
-6.20839e-15
-5.66304e-09
-4.09406e-08
-6.12732e-15
-5.08627e-09
-4.10821e-08
-6.07894e-15
-4.39747e-09
-4.09749e-08
-5.99328e-15
-3.609e-09
-4.06291e-08
-5.87836e-15
-2.73405e-09
-4.00649e-08
-5.72825e-15
-1.78603e-09
-3.93013e-08
-5.57321e-15
-7.78409e-10
-3.83553e-08
-5.4315e-15
2.75771e-10
-3.72557e-08
-5.25796e-15
1.36408e-09
-3.60177e-08
-5.05224e-15
2.47518e-09
-3.46688e-08
-4.89961e-15
3.59936e-09
-3.32305e-08
-4.97946e-15
4.72856e-09
-3.17224e-08
-4.91255e-15
5.85639e-09
-3.01639e-08
-4.85705e-15
6.97824e-09
-2.85715e-08
-4.80417e-15
8.0912e-09
-2.69601e-08
-4.75241e-15
9.19431e-09
-2.53396e-08
-4.68577e-15
1.02888e-08
-2.37179e-08
-4.62331e-15
1.1378e-08
-2.20963e-08
-4.55072e-15
1.24679e-08
-2.04664e-08
-4.4783e-15
1.35674e-08
-1.88271e-08
-4.40434e-15
1.46885e-08
-1.71423e-08
-4.33128e-15
1.58466e-08
-1.53845e-08
-4.25915e-15
1.70606e-08
-1.34897e-08
-4.18972e-15
1.83521e-08
-1.13757e-08
-4.11231e-15
1.97446e-08
-8.93019e-09
-3.99004e-15
2.12596e-08
-5.9765e-09
-4.09988e-15
2.29091e-08
-2.29161e-09
-3.86274e-15
2.4681e-08
2.42562e-09
-3.62442e-15
2.65115e-08
8.53154e-09
-3.74967e-15
2.82452e-08
1.63849e-08
-3.50788e-15
2.95868e-08
2.61684e-08
-3.70905e-15
3.00806e-08
3.75985e-08
-3.29949e-15
2.91789e-08
4.95343e-08
-3.33304e-15
2.64493e-08
5.97916e-08
-3.19943e-15
2.18555e-08
6.56669e-08
-3.16232e-15
1.58975e-08
6.52153e-08
-3.29763e-15
9.45386e-09
5.83007e-08
-3.23686e-15
3.54456e-09
4.55089e-08
-3.26186e-15
2.27774e-08
-2.80639e-15
-5.4898e-09
-3.99907e-08
-6.61728e-15
-5.24192e-09
-4.07813e-08
-6.33746e-15
-4.87866e-09
-4.13038e-08
-6.16792e-15
-4.40553e-09
-4.15552e-08
-6.10881e-15
-3.83041e-09
-4.155e-08
-5.97509e-15
-3.16311e-09
-4.12964e-08
-5.86195e-15
-2.41438e-09
-4.08136e-08
-5.71444e-15
-1.59548e-09
-4.01202e-08
-5.56806e-15
-7.17807e-10
-3.9233e-08
-5.43199e-15
2.07361e-10
-3.81809e-08
-5.26771e-15
1.16906e-09
-3.69794e-08
-5.07683e-15
2.15681e-09
-3.56566e-08
-4.93481e-15
3.16147e-09
-3.42351e-08
-4.9976e-15
4.17516e-09
-3.27361e-08
-4.92032e-15
5.19151e-09
-3.11803e-08
-4.85923e-15
6.20566e-09
-2.95856e-08
-4.80211e-15
7.21424e-09
-2.79687e-08
-4.74795e-15
8.21552e-09
-2.6341e-08
-4.67934e-15
9.20971e-09
-2.47121e-08
-4.61634e-15
1.01989e-08
-2.30856e-08
-4.54329e-15
1.11875e-08
-2.1455e-08
-4.47065e-15
1.21827e-08
-1.98224e-08
-4.39639e-15
1.31947e-08
-1.81542e-08
-4.32342e-15
1.42374e-08
-1.64272e-08
-4.25145e-15
1.53284e-08
-1.45807e-08
-4.18232e-15
1.64894e-08
-1.25367e-08
-4.1069e-15
1.77461e-08
-1.01869e-08
-3.9973e-15
1.91251e-08
-7.35549e-09
-4.08052e-15
2.06499e-08
-3.81642e-09
-3.85342e-15
2.2328e-08
7.47468e-10
-3.63508e-15
2.41278e-08
6.73181e-09
-3.73963e-15
2.59376e-08
1.4575e-08
-3.54325e-15
2.751e-08
2.45961e-08
-3.72687e-15
2.84174e-08
3.66911e-08
-3.4158e-15
2.80846e-08
4.9867e-08
-3.47432e-15
2.59735e-08
6.19027e-08
-3.43717e-15
2.1892e-08
6.97485e-08
-3.47891e-15
1.62121e-08
7.08952e-08
-3.68437e-15
9.78356e-09
6.47293e-08
-3.70488e-15
3.70803e-09
5.15844e-08
-3.79575e-15
2.64855e-08
-3.37893e-15
-4.66852e-09
-4.0079e-08
-6.60944e-15
-4.479e-09
-4.09709e-08
-6.29251e-15
-4.18859e-09
-4.15942e-08
-6.07262e-15
-3.80057e-09
-4.19432e-08
-6.04413e-15
-3.32056e-09
-4.203e-08
-5.92888e-15
-2.75612e-09
-4.18608e-08
-5.8181e-15
-2.11598e-09
-4.14538e-08
-5.69397e-15
-1.40946e-09
-4.08267e-08
-5.55863e-15
-6.46141e-10
-3.99963e-08
-5.4278e-15
1.64412e-10
-3.89914e-08
-5.27231e-15
1.01276e-09
-3.78277e-08
-5.10349e-15
1.88948e-09
-3.65333e-08
-4.95312e-15
2.78617e-09
-3.51318e-08
-5.00676e-15
3.69529e-09
-3.36452e-08
-4.92453e-15
4.61063e-09
-3.20956e-08
-4.85931e-15
5.52728e-09
-3.05023e-08
-4.79863e-15
6.4416e-09
-2.8883e-08
-4.74187e-15
7.35135e-09
-2.72507e-08
-4.67187e-15
8.25595e-09
-2.56167e-08
-4.60852e-15
9.15644e-09
-2.39861e-08
-4.53474e-15
1.00559e-08
-2.23544e-08
-4.46189e-15
1.09601e-08
-2.07266e-08
-4.38727e-15
1.18773e-08
-1.90714e-08
-4.31428e-15
1.28194e-08
-1.73694e-08
-4.24229e-15
1.38023e-08
-1.55636e-08
-4.17315e-15
1.48463e-08
-1.35806e-08
-4.099e-15
1.5977e-08
-1.13177e-08
-3.99846e-15
1.72234e-08
-8.60177e-09
-4.055e-15
1.86151e-08
-5.20824e-09
-3.8286e-15
2.01739e-08
-8.11342e-10
-3.61472e-15
2.18933e-08
5.01242e-09
-3.70012e-15
2.37015e-08
1.27668e-08
-3.5296e-15
2.54018e-08
2.28959e-08
-3.73564e-15
2.66106e-08
3.54823e-08
-3.49656e-15
2.67542e-08
4.97234e-08
-3.60653e-15
2.52183e-08
6.34386e-08
-3.68388e-15
2.16658e-08
7.3301e-08
-3.82117e-15
1.63258e-08
7.62353e-08
-4.11412e-15
9.99029e-09
7.10648e-08
-4.24351e-15
3.82133e-09
5.77534e-08
-4.42248e-15
3.03068e-08
-4.09259e-15
-3.9606e-09
-4.01367e-08
-6.77649e-15
-3.81618e-09
-4.11153e-08
-6.44974e-15
-3.58406e-09
-4.18263e-08
-6.18373e-15
-3.26581e-09
-4.22615e-08
-6.08161e-15
-2.86518e-09
-4.24306e-08
-5.93732e-15
-2.38785e-09
-4.23381e-08
-5.81152e-15
-1.84077e-09
-4.20009e-08
-5.68854e-15
-1.23164e-09
-4.14359e-08
-5.55654e-15
-5.68457e-10
-4.06595e-08
-5.43046e-15
1.4076e-10
-3.97006e-08
-5.2814e-15
8.88013e-10
-3.8575e-08
-5.14386e-15
1.66512e-09
-3.73104e-08
-4.98148e-15
2.4645e-09
-3.59312e-08
-5.01399e-15
3.27914e-09
-3.44598e-08
-4.92775e-15
4.10309e-09
-3.29196e-08
-4.85865e-15
4.9315e-09
-3.13306e-08
-4.79474e-15
5.76063e-09
-2.97122e-08
-4.73463e-15
6.58794e-09
-2.80781e-08
-4.66418e-15
7.41228e-09
-2.6441e-08
-4.60048e-15
8.23388e-09
-2.48077e-08
-4.52574e-15
9.05479e-09
-2.31753e-08
-4.45265e-15
9.87928e-09
-2.15511e-08
-4.37772e-15
1.0714e-08
-1.99061e-08
-4.3046e-15
1.1569e-08
-1.82244e-08
-4.23251e-15
1.2458e-08