/*--------------------------------*- C++ -*----------------------------------*\
| =========                 |                                                 |
| \\      /  F ield         | OpenFOAM: The Open Source CFD Toolbox           |
|  \\    /   O peration     | Version:  v2012                                 |
|   \\  /    A nd           | Website:  www.openfoam.com                      |
|    \\/     M anipulation  |                                                 |
\*---------------------------------------------------------------------------*/
FoamFile
{
    version     2.0;
    format      ascii;
    class       volScalarField;
    location    "0.8";
    object      p;
}
// * * * * * * * * * * * * * * * * * * * * * * * * * * * * * * * * * * * * * //

dimensions      [1 -1 -2 0 0 0 0];


internalField   nonuniform List<scalar> 
3326
(
3.50287e+06
3.50285e+06
3.50282e+06
3.5028e+06
3.50278e+06
3.50277e+06
3.50276e+06
3.50276e+06
3.50275e+06
3.503e+06
3.50297e+06
3.50293e+06
3.5029e+06
3.50287e+06
3.50285e+06
3.50283e+06
3.50281e+06
3.50279e+06
3.50278e+06
3.50278e+06
3.50278e+06
3.50045e+06
3.50078e+06
3.5011e+06
3.50141e+06
3.50169e+06
3.50197e+06
3.50222e+06
3.50244e+06
3.50264e+06
3.50282e+06
3.50298e+06
3.50311e+06
3.50323e+06
3.50332e+06
3.50339e+06
3.50344e+06
3.50348e+06
3.50351e+06
3.50352e+06
3.50352e+06
3.50351e+06
3.5035e+06
3.50347e+06
3.50344e+06
3.50341e+06
3.50337e+06
3.50333e+06
3.50329e+06
3.50324e+06
3.5032e+06
3.50316e+06
3.50311e+06
3.50307e+06
3.50303e+06
3.503e+06
3.50296e+06
3.50293e+06
3.5029e+06
3.50287e+06
3.50285e+06
3.50283e+06
3.50282e+06
3.50281e+06
3.5028e+06
3.5028e+06
3.50029e+06
3.50067e+06
3.50103e+06
3.50137e+06
3.50169e+06
3.50199e+06
3.50226e+06
3.5025e+06
3.50272e+06
3.50291e+06
3.50307e+06
3.50321e+06
3.50332e+06
3.50342e+06
3.50349e+06
3.50354e+06
3.50358e+06
3.5036e+06
3.50361e+06
3.5036e+06
3.50359e+06
3.50357e+06
3.50354e+06
3.50351e+06
3.50347e+06
3.50343e+06
3.50338e+06
3.50334e+06
3.50329e+06
3.50324e+06
3.5032e+06
3.50315e+06
3.50311e+06
3.50307e+06
3.50303e+06
3.50299e+06
3.50296e+06
3.50293e+06
3.5029e+06
3.50288e+06
3.50286e+06
3.50284e+06
3.50283e+06
3.50282e+06
3.50282e+06
3.50014e+06
3.50056e+06
3.50097e+06
3.50135e+06
3.5017e+06
3.50203e+06
3.50232e+06
3.50258e+06
3.50281e+06
3.50301e+06
3.50318e+06
3.50332e+06
3.50344e+06
3.50353e+06
3.5036e+06
3.50365e+06
3.50368e+06
3.5037e+06
3.5037e+06
3.50369e+06
3.50367e+06
3.50365e+06
3.50361e+06
3.50357e+06
3.50353e+06
3.50348e+06
3.50344e+06
3.50339e+06
3.50334e+06
3.50328e+06
3.50324e+06
3.50319e+06
3.50314e+06
3.5031e+06
3.50306e+06
3.50302e+06
3.50298e+06
3.50295e+06
3.50292e+06
3.5029e+06
3.50288e+06
3.50286e+06
3.50285e+06
3.50284e+06
3.50284e+06
3.50003e+06
3.50048e+06
3.50093e+06
3.50136e+06
3.50174e+06
3.50209e+06
3.50241e+06
3.50268e+06
3.50293e+06
3.50313e+06
3.50331e+06
3.50345e+06
3.50357e+06
3.50366e+06
3.50372e+06
3.50377e+06
3.5038e+06
3.50381e+06
3.5038e+06
3.50379e+06
3.50376e+06
3.50373e+06
3.50369e+06
3.50364e+06
3.5036e+06
3.50354e+06
3.50349e+06
3.50344e+06
3.50338e+06
3.50333e+06
3.50328e+06
3.50322e+06
3.50318e+06
3.50313e+06
3.50309e+06
3.50305e+06
3.50301e+06
3.50298e+06
3.50295e+06
3.50292e+06
3.5029e+06
3.50288e+06
3.50287e+06
3.50286e+06
3.50286e+06
3.49997e+06
3.50045e+06
3.50093e+06
3.5014e+06
3.50181e+06
3.50219e+06
3.50252e+06
3.50282e+06
3.50307e+06
3.50328e+06
3.50346e+06
3.5036e+06
3.50372e+06
3.5038e+06
3.50386e+06
3.5039e+06
3.50392e+06
3.50392e+06
3.50391e+06
3.50389e+06
3.50386e+06
3.50382e+06
3.50377e+06
3.50372e+06
3.50366e+06
3.5036e+06
3.50355e+06
3.50349e+06
3.50343e+06
3.50337e+06
3.50331e+06
3.50326e+06
3.50321e+06
3.50316e+06
3.50312e+06
3.50307e+06
3.50304e+06
3.503e+06
3.50297e+06
3.50294e+06
3.50292e+06
3.5029e+06
3.50289e+06
3.50288e+06
3.50288e+06
3.5e+06
3.50049e+06
3.501e+06
3.50149e+06
3.50193e+06
3.50233e+06
3.50268e+06
3.50298e+06
3.50324e+06
3.50346e+06
3.50364e+06
3.50378e+06
3.50389e+06
3.50396e+06
3.50402e+06
3.50405e+06
3.50406e+06
3.50405e+06
3.50403e+06
3.504e+06
3.50396e+06
3.50391e+06
3.50385e+06
3.50379e+06
3.50373e+06
3.50367e+06
3.5036e+06
3.50354e+06
3.50348e+06
3.50341e+06
3.50335e+06
3.5033e+06
3.50324e+06
3.50319e+06
3.50315e+06
3.5031e+06
3.50306e+06
3.50303e+06
3.50299e+06
3.50297e+06
3.50294e+06
3.50293e+06
3.50291e+06
3.5029e+06
3.5029e+06
3.50013e+06
3.50063e+06
3.50114e+06
3.50165e+06
3.5021e+06
3.50251e+06
3.50288e+06
3.50319e+06
3.50345e+06
3.50367e+06
3.50384e+06
3.50398e+06
3.50408e+06
3.50415e+06
3.50419e+06
3.50421e+06
3.5042e+06
3.50419e+06
3.50415e+06
3.50411e+06
3.50406e+06
3.504e+06
3.50394e+06
3.50387e+06
3.5038e+06
3.50373e+06
3.50366e+06
3.50359e+06
3.50352e+06
3.50346e+06
3.50339e+06
3.50333e+06
3.50328e+06
3.50322e+06
3.50317e+06
3.50313e+06
3.50309e+06
3.50305e+06
3.50302e+06
3.50299e+06
3.50296e+06
3.50295e+06
3.50293e+06
3.50292e+06
3.50292e+06
3.50035e+06
3.50086e+06
3.50137e+06
3.50188e+06
3.50234e+06
3.50276e+06
3.50313e+06
3.50344e+06
3.5037e+06
3.50392e+06
3.50408e+06
3.5042e+06
3.50429e+06
3.50435e+06
3.50437e+06
3.50438e+06
3.50436e+06
3.50433e+06
3.50429e+06
3.50423e+06
3.50417e+06
3.5041e+06
3.50403e+06
3.50395e+06
3.50387e+06
3.5038e+06
3.50372e+06
3.50364e+06
3.50357e+06
3.5035e+06
3.50343e+06
3.50337e+06
3.50331e+06
3.50325e+06
3.5032e+06
3.50315e+06
3.50311e+06
3.50307e+06
3.50304e+06
3.50301e+06
3.50298e+06
3.50296e+06
3.50295e+06
3.50294e+06
3.50294e+06
3.50065e+06
3.50116e+06
3.50168e+06
3.50218e+06
3.50265e+06
3.50307e+06
3.50344e+06
3.50374e+06
3.504e+06
3.5042e+06
3.50435e+06
3.50446e+06
3.50453e+06
3.50457e+06
3.50458e+06
3.50457e+06
3.50454e+06
3.50449e+06
3.50443e+06
3.50436e+06
3.50429e+06
3.5042e+06
3.50412e+06
3.50403e+06
3.50395e+06
3.50386e+06
3.50378e+06
3.5037e+06
3.50362e+06
3.50354e+06
3.50347e+06
3.50341e+06
3.50334e+06
3.50328e+06
3.50323e+06
3.50318e+06
3.50314e+06
3.5031e+06
3.50306e+06
3.50303e+06
3.503e+06
3.50298e+06
3.50297e+06
3.50296e+06
3.50296e+06
3.50105e+06
3.50155e+06
3.50206e+06
3.50257e+06
3.50304e+06
3.50345e+06
3.50381e+06
3.5041e+06
3.50434e+06
3.50453e+06
3.50466e+06
3.50475e+06
3.5048e+06
3.50482e+06
3.50481e+06
3.50477e+06
3.50472e+06
3.50466e+06
3.50458e+06
3.5045e+06
3.50441e+06
3.50431e+06
3.50422e+06
3.50412e+06
3.50402e+06
3.50393e+06
3.50384e+06
3.50375e+06
3.50367e+06
3.50359e+06
3.50351e+06
3.50344e+06
3.50338e+06
3.50331e+06
3.50326e+06
3.50321e+06
3.50316e+06
3.50312e+06
3.50308e+06
3.50305e+06
3.50302e+06
3.503e+06
3.50299e+06
3.50298e+06
3.50297e+06
3.50151e+06
3.502e+06
3.50252e+06
3.50303e+06
3.50349e+06
3.5039e+06
3.50424e+06
3.50452e+06
3.50474e+06
3.5049e+06
3.50501e+06
3.50507e+06
3.50509e+06
3.50509e+06
3.50505e+06
3.50499e+06
3.50492e+06
3.50484e+06
3.50474e+06
3.50464e+06
3.50453e+06
3.50442e+06
3.50432e+06
3.50421e+06
3.5041e+06
3.504e+06
3.5039e+06
3.50381e+06
3.50372e+06
3.50363e+06
3.50355e+06
3.50348e+06
3.50341e+06
3.50334e+06
3.50328e+06
3.50323e+06
3.50318e+06
3.50314e+06
3.5031e+06
3.50307e+06
3.50304e+06
3.50302e+06
3.503e+06
3.50299e+06
3.50299e+06
3.50207e+06
3.50256e+06
3.50307e+06
3.50358e+06
3.50404e+06
3.50443e+06
3.50475e+06
3.50501e+06
3.50519e+06
3.50532e+06
3.5054e+06
3.50543e+06
3.50542e+06
3.50538e+06
3.50532e+06
3.50523e+06
3.50513e+06
3.50503e+06
3.50491e+06
3.50479e+06
3.50466e+06
3.50454e+06
3.50442e+06
3.5043e+06
3.50418e+06
3.50407e+06
3.50396e+06
3.50386e+06
3.50376e+06
3.50367e+06
3.50359e+06
3.50351e+06
3.50344e+06
3.50337e+06
3.50331e+06
3.50325e+06
3.5032e+06
3.50316e+06
3.50312e+06
3.50309e+06
3.50306e+06
3.50304e+06
3.50302e+06
3.50301e+06
3.50301e+06
3.5027e+06
3.50319e+06
3.50372e+06
3.50423e+06
3.50467e+06
3.50505e+06
3.50534e+06
3.50556e+06
3.50571e+06
3.5058e+06
3.50583e+06
3.50582e+06
3.50578e+06
3.5057e+06
3.5056e+06
3.50549e+06
3.50536e+06
3.50522e+06
3.50508e+06
3.50494e+06
3.5048e+06
3.50466e+06
3.50452e+06
3.50439e+06
3.50426e+06
3.50414e+06
3.50402e+06
3.50391e+06
3.50381e+06
3.50372e+06
3.50363e+06
3.50355e+06
3.50347e+06
3.5034e+06
3.50334e+06
3.50328e+06
3.50323e+06
3.50318e+06
3.50314e+06
3.5031e+06
3.50308e+06
3.50305e+06
3.50304e+06
3.50303e+06
3.50302e+06
3.50349e+06
3.50398e+06
3.5045e+06
3.505e+06
3.50542e+06
3.50576e+06
3.50602e+06
3.50619e+06
3.50629e+06
3.50633e+06
3.50631e+06
3.50626e+06
3.50616e+06
3.50605e+06
3.50591e+06
3.50576e+06
3.5056e+06
3.50543e+06
3.50527e+06
3.5051e+06
3.50494e+06
3.50478e+06
3.50463e+06
3.50448e+06
3.50434e+06
3.50421e+06
3.50409e+06
3.50397e+06
3.50386e+06
3.50376e+06
3.50367e+06
3.50358e+06
3.5035e+06
3.50343e+06
3.50336e+06
3.5033e+06
3.50325e+06
3.5032e+06
3.50316e+06
3.50312e+06
3.50309e+06
3.50307e+06
3.50305e+06
3.50304e+06
3.50304e+06
3.50439e+06
3.50489e+06
3.50542e+06
3.5059e+06
3.50629e+06
3.50658e+06
3.50678e+06
3.5069e+06
3.50694e+06
3.50691e+06
3.50684e+06
3.50673e+06
3.50658e+06
3.50642e+06
3.50624e+06
3.50605e+06
3.50585e+06
3.50565e+06
3.50546e+06
3.50527e+06
3.50508e+06
3.50491e+06
3.50474e+06
3.50458e+06
3.50442e+06
3.50428e+06
3.50415e+06
3.50402e+06
3.50391e+06
3.5038e+06
3.5037e+06
3.50361e+06
3.50353e+06
3.50345e+06
3.50338e+06
3.50332e+06
3.50327e+06
3.50322e+06
3.50318e+06
3.50314e+06
3.50311e+06
3.50308e+06
3.50307e+06
3.50306e+06
3.50305e+06
3.50559e+06
3.50606e+06
3.50654e+06
3.50698e+06
3.50731e+06
3.50753e+06
3.50766e+06
3.50769e+06
3.50766e+06
3.50756e+06
3.50742e+06
3.50724e+06
3.50704e+06
3.50681e+06
3.50658e+06
3.50635e+06
3.50611e+06
3.50588e+06
3.50566e+06
3.50544e+06
3.50523e+06
3.50503e+06
3.50485e+06
3.50467e+06
3.50451e+06
3.50435e+06
3.50421e+06
3.50408e+06
3.50395e+06
3.50384e+06
3.50374e+06
3.50364e+06
3.50356e+06
3.50348e+06
3.50341e+06
3.50334e+06
3.50329e+06
3.50324e+06
3.50319e+06
3.50316e+06
3.50312e+06
3.5031e+06
3.50308e+06
3.50307e+06
3.50307e+06
3.50699e+06
3.50741e+06
3.50785e+06
3.50822e+06
3.50847e+06
3.50861e+06
3.50864e+06
3.50858e+06
3.50845e+06
3.50827e+06
3.50804e+06
3.50779e+06
3.50752e+06
3.50724e+06
3.50695e+06
3.50667e+06
3.50639e+06
3.50612e+06
3.50586e+06
3.50561e+06
3.50538e+06
3.50516e+06
3.50496e+06
3.50477e+06
3.50459e+06
3.50442e+06
3.50427e+06
3.50413e+06
3.504e+06
3.50388e+06
3.50377e+06
3.50368e+06
3.50359e+06
3.5035e+06
3.50343e+06
3.50337e+06
3.50331e+06
3.50325e+06
3.50321e+06
3.50317e+06
3.50314e+06
3.50311e+06
3.50309e+06
3.50308e+06
3.50308e+06
3.50889e+06
3.50917e+06
3.50947e+06
3.50972e+06
3.50984e+06
3.50984e+06
3.50975e+06
3.50957e+06
3.50933e+06
3.50904e+06
3.50872e+06
3.50838e+06
3.50803e+06
3.50768e+06
3.50733e+06
3.50699e+06
3.50667e+06
3.50636e+06
3.50607e+06
3.50579e+06
3.50553e+06
3.50529e+06
3.50507e+06
3.50486e+06
3.50467e+06
3.50449e+06
3.50433e+06
3.50418e+06
3.50405e+06
3.50392e+06
3.50381e+06
3.50371e+06
3.50361e+06
3.50353e+06
3.50345e+06
3.50338e+06
3.50332e+06
3.50327e+06
3.50322e+06
3.50319e+06
3.50315e+06
3.50313e+06
3.50311e+06
3.5031e+06
3.50309e+06
3.51105e+06
3.51118e+06
3.51133e+06
3.51142e+06
3.51138e+06
3.51123e+06
3.51098e+06
3.51066e+06
3.51029e+06
3.50988e+06
3.50945e+06
3.50901e+06
3.50857e+06
3.50814e+06
3.50773e+06
3.50733e+06
3.50696e+06
3.50661e+06
3.50628e+06
3.50597e+06
3.50569e+06
3.50542e+06
3.50518e+06
3.50495e+06
3.50475e+06
3.50456e+06
3.50439e+06
3.50423e+06
3.50409e+06
3.50396e+06
3.50384e+06
3.50373e+06
3.50364e+06
3.50355e+06
3.50347e+06
3.5034e+06
3.50334e+06
3.50329e+06
3.50324e+06
3.5032e+06
3.50317e+06
3.50314e+06
3.50312e+06
3.50311e+06
3.5031e+06
3.51399e+06
3.51378e+06
3.51364e+06
3.51347e+06
3.51318e+06
3.51281e+06
3.51236e+06
3.51186e+06
3.51133e+06
3.51078e+06
3.51022e+06
3.50967e+06
3.50914e+06
3.50863e+06
3.50814e+06
3.50768e+06
3.50726e+06
3.50686e+06
3.50649e+06
3.50615e+06
3.50584e+06
3.50555e+06
3.50529e+06
3.50505e+06
3.50483e+06
3.50463e+06
3.50445e+06
3.50428e+06
3.50413e+06
3.504e+06
3.50387e+06
3.50376e+06
3.50366e+06
3.50357e+06
3.50349e+06
3.50342e+06
3.50336e+06
3.5033e+06
3.50325e+06
3.50321e+06
3.50318e+06
3.50315e+06
3.50313e+06
3.50312e+06
3.50311e+06
3.51717e+06
3.51666e+06
3.51621e+06
3.51575e+06
3.51519e+06
3.51456e+06
3.51388e+06
3.51317e+06
3.51245e+06
3.51174e+06
3.51104e+06
3.51037e+06
3.50973e+06
3.50913e+06
3.50856e+06
3.50804e+06
3.50756e+06
3.50711e+06
3.5067e+06
3.50633e+06
3.50599e+06
3.50568e+06
3.5054e+06
3.50514e+06
3.50491e+06
3.50469e+06
3.5045e+06
3.50433e+06
3.50417e+06
3.50403e+06
3.5039e+06
3.50379e+06
3.50369e+06
3.50359e+06
3.50351e+06
3.50344e+06
3.50337e+06
3.50332e+06
3.50327e+06
3.50322e+06
3.50319e+06
3.50316e+06
3.50314e+06
3.50313e+06
3.50312e+06
3.52144e+06
3.52033e+06
3.51936e+06
3.51844e+06
3.51749e+06
3.51653e+06
3.51555e+06
3.51459e+06
3.51366e+06
3.51276e+06
3.5119e+06
3.51109e+06
3.51034e+06
3.50964e+06
3.50899e+06
3.5084e+06
3.50786e+06
3.50736e+06
3.50692e+06
3.50651e+06
3.50614e+06
3.5058e+06
3.5055e+06
3.50523e+06
3.50498e+06
3.50476e+06
3.50456e+06
3.50437e+06
3.50421e+06
3.50407e+06
3.50393e+06
3.50382e+06
3.50371e+06
3.50361e+06
3.50353e+06
3.50346e+06
3.50339e+06
3.50333e+06
3.50328e+06
3.50324e+06
3.5032e+06
3.50317e+06
3.50315e+06
3.50314e+06
3.50313e+06
3.5257e+06
3.52412e+06
3.52268e+06
3.52133e+06
3.51997e+06
3.51865e+06
3.51735e+06
3.51611e+06
3.51494e+06
3.51383e+06
3.5128e+06
3.51184e+06
3.51096e+06
3.51016e+06
3.50942e+06
3.50876e+06
3.50816e+06
3.50762e+06
3.50713e+06
3.50668e+06
3.50628e+06
3.50593e+06
3.5056e+06
3.50531e+06
3.50505e+06
3.50482e+06
3.50461e+06
3.50442e+06
3.50425e+06
3.5041e+06
3.50396e+06
3.50384e+06
3.50373e+06
3.50363e+06
3.50355e+06
3.50347e+06
3.5034e+06
3.50334e+06
3.50329e+06
3.50325e+06
3.50321e+06
3.50318e+06
3.50316e+06
3.50315e+06
3.50314e+06
3.53156e+06
3.52903e+06
3.52677e+06
3.52475e+06
3.52282e+06
3.52102e+06
3.51932e+06
3.51774e+06
3.51628e+06
3.51494e+06
3.51372e+06
3.5126e+06
3.51159e+06
3.51068e+06
3.50986e+06
3.50912e+06
3.50846e+06
3.50786e+06
3.50733e+06
3.50685e+06
3.50643e+06
3.50604e+06
3.5057e+06
3.5054e+06
3.50512e+06
3.50488e+06
3.50466e+06
3.50446e+06
3.50428e+06
3.50413e+06
3.50399e+06
3.50386e+06
3.50375e+06
3.50365e+06
3.50356e+06
3.50348e+06
3.50341e+06
3.50335e+06
3.5033e+06
3.50326e+06
3.50322e+06
3.50319e+06
3.50317e+06
3.50316e+06
3.50315e+06
3.53699e+06
3.53383e+06
3.5309e+06
3.52827e+06
3.52578e+06
3.52349e+06
3.52137e+06
3.51943e+06
3.51768e+06
3.51609e+06
3.51466e+06
3.51337e+06
3.51223e+06
3.5112e+06
3.51028e+06
3.50947e+06
3.50875e+06
3.5081e+06
3.50753e+06
3.50702e+06
3.50656e+06
3.50616e+06
3.5058e+06
3.50547e+06
3.50519e+06
3.50493e+06
3.5047e+06
3.5045e+06
3.50432e+06
3.50416e+06
3.50401e+06
3.50388e+06
3.50377e+06
3.50367e+06
3.50358e+06
3.5035e+06
3.50343e+06
3.50336e+06
3.50331e+06
3.50327e+06
3.50323e+06
3.5032e+06
3.50318e+06
3.50316e+06
3.50316e+06
3.55579e+06
3.55026e+06
3.54492e+06
3.54035e+06
3.53613e+06
3.53247e+06
3.52914e+06
3.5262e+06
3.52356e+06
3.52121e+06
3.51911e+06
3.51725e+06
3.5156e+06
3.51414e+06
3.51285e+06
3.51171e+06
3.5107e+06
3.50981e+06
3.50903e+06
3.50833e+06
3.50772e+06
3.50717e+06
3.50669e+06
3.50626e+06
3.50588e+06
3.50555e+06
3.50525e+06
3.50498e+06
3.50475e+06
3.50454e+06
3.50435e+06
3.50418e+06
3.50403e+06
3.5039e+06
3.50379e+06
3.50368e+06
3.50359e+06
3.50351e+06
3.50344e+06
3.50337e+06
3.50332e+06
3.50327e+06
3.50324e+06
3.50321e+06
3.50319e+06
3.50317e+06
3.50316e+06
3.56313e+06
3.55735e+06
3.55126e+06
3.54602e+06
3.54091e+06
3.53648e+06
3.53244e+06
3.52891e+06
3.52575e+06
3.52299e+06
3.52055e+06
3.51841e+06
3.51654e+06
3.5149e+06
3.51346e+06
3.51221e+06
3.5111e+06
3.51014e+06
3.50929e+06
3.50855e+06
3.5079e+06
3.50732e+06
3.50681e+06
3.50636e+06
3.50597e+06
3.50562e+06
3.50531e+06
3.50503e+06
3.50479e+06
3.50457e+06
3.50438e+06
3.50421e+06
3.50406e+06
3.50392e+06
3.5038e+06
3.5037e+06
3.5036e+06
3.50352e+06
3.50345e+06
3.50338e+06
3.50333e+06
3.50328e+06
3.50324e+06
3.50321e+06
3.50319e+06
3.50318e+06
3.50317e+06
3.58016e+06
3.57109e+06
3.56177e+06
3.55426e+06
3.54719e+06
3.54137e+06
3.5362e+06
3.53185e+06
3.52806e+06
3.52481e+06
3.52199e+06
3.51956e+06
3.51745e+06
3.51563e+06
3.51405e+06
3.51268e+06
3.51149e+06
3.51045e+06
3.50954e+06
3.50875e+06
3.50806e+06
3.50746e+06
3.50692e+06
3.50646e+06
3.50604e+06
3.50568e+06
3.50536e+06
3.50507e+06
3.50482e+06
3.5046e+06
3.5044e+06
3.50423e+06
3.50407e+06
3.50394e+06
3.50382e+06
3.50371e+06
3.50361e+06
3.50353e+06
3.50346e+06
3.50339e+06
3.50334e+06
3.50329e+06
3.50325e+06
3.50322e+06
3.5032e+06
3.50318e+06
3.50318e+06
3.58775e+06
3.57885e+06
3.56836e+06
3.5602e+06
3.55209e+06
3.5455e+06
3.53954e+06
3.53457e+06
3.53023e+06
3.52655e+06
3.52337e+06
3.52066e+06
3.51833e+06
3.51632e+06
3.5146e+06
3.51312e+06
3.51184e+06
3.51074e+06
3.50978e+06
3.50894e+06
3.50822e+06
3.50758e+06
3.50703e+06
3.50654e+06
3.50611e+06
3.50573e+06
3.5054e+06
3.50511e+06
3.50485e+06
3.50463e+06
3.50443e+06
3.50425e+06
3.50409e+06
3.50395e+06
3.50383e+06
3.50372e+06
3.50362e+06
3.50354e+06
3.50346e+06
3.5034e+06
3.50334e+06
3.50329e+06
3.50326e+06
3.50323e+06
3.5032e+06
3.50319e+06
3.50318e+06
3.61177e+06
3.59763e+06
3.58166e+06
3.57017e+06
3.55918e+06
3.55081e+06
3.54343e+06
3.53752e+06
3.53246e+06
3.52826e+06
3.5247e+06
3.5217e+06
3.51914e+06
3.51697e+06
3.51511e+06
3.51353e+06
3.51217e+06
3.51099e+06
3.50998e+06
3.50911e+06
3.50835e+06
3.50769e+06
3.50712e+06
3.50661e+06
3.50617e+06
3.50578e+06
3.50544e+06
3.50514e+06
3.50488e+06
3.50465e+06
3.50444e+06
3.50426e+06
3.5041e+06
3.50396e+06
3.50384e+06
3.50373e+06
3.50363e+06
3.50354e+06
3.50347e+06
3.5034e+06
3.50335e+06
3.5033e+06
3.50326e+06
3.50323e+06
3.50321e+06
3.50319e+06
3.50318e+06
3.61656e+06
3.60421e+06
3.58675e+06
3.57521e+06
3.56324e+06
3.55437e+06
3.5463e+06
3.53988e+06
3.53434e+06
3.52976e+06
3.52588e+06
3.52263e+06
3.51987e+06
3.51754e+06
3.51557e+06
3.51388e+06
3.51245e+06
3.51122e+06
3.51017e+06
3.50926e+06
3.50847e+06
3.50779e+06
3.50719e+06
3.50667e+06
3.50622e+06
3.50583e+06
3.50548e+06
3.50517e+06
3.50491e+06
3.50467e+06
3.50446e+06
3.50428e+06
3.50412e+06
3.50397e+06
3.50385e+06
3.50374e+06
3.50364e+06
3.50355e+06
3.50347e+06
3.50341e+06
3.50335e+06
3.5033e+06
3.50326e+06
3.50323e+06
3.50321e+06
3.5032e+06
3.50319e+06
3.64754e+06
3.62844e+06
3.60206e+06
3.58619e+06
3.57038e+06
3.5595e+06
3.54983e+06
3.54245e+06
3.53621e+06
3.53117e+06
3.52695e+06
3.52345e+06
3.52051e+06
3.51804e+06
3.51595e+06
3.51419e+06
3.51269e+06
3.51141e+06
3.51032e+06
3.50938e+06
3.50857e+06
3.50787e+06
3.50726e+06
3.50673e+06
3.50626e+06
3.50586e+06
3.50551e+06
3.5052e+06
3.50492e+06
3.50468e+06
3.50447e+06
3.50429e+06
3.50412e+06
3.50398e+06
3.50385e+06
3.50374e+06
3.50364e+06
3.50355e+06
3.50348e+06
3.50341e+06
3.50335e+06
3.50331e+06
3.50327e+06
3.50324e+06
3.50321e+06
3.5032e+06
3.50319e+06
3.64529e+06
3.63335e+06
3.60389e+06
3.58905e+06
3.57261e+06
3.5618e+06
3.55173e+06
3.54409e+06
3.53752e+06
3.53223e+06
3.52778e+06
3.5241e+06
3.52102e+06
3.51844e+06
3.51627e+06
3.51443e+06
3.51288e+06
3.51157e+06
3.51044e+06
3.50948e+06
3.50864e+06
3.50793e+06
3.50731e+06
3.50677e+06
3.5063e+06
3.50589e+06
3.50553e+06
3.50521e+06
3.50494e+06
3.5047e+06
3.50448e+06
3.5043e+06
3.50413e+06
3.50399e+06
3.50386e+06
3.50375e+06
3.50365e+06
3.50356e+06
3.50348e+06
3.50341e+06
3.50336e+06
3.50331e+06
3.50327e+06
3.50324e+06
3.50321e+06
3.5032e+06
3.50319e+06
3.67905e+06
3.66156e+06
3.61776e+06
3.59872e+06
3.5783e+06
3.56571e+06
3.55422e+06
3.54582e+06
3.53873e+06
3.53311e+06
3.52844e+06
3.5246e+06
3.5214e+06
3.51873e+06
3.51649e+06
3.51461e+06
3.51302e+06
3.51167e+06
3.51053e+06
3.50954e+06
3.5087e+06
3.50797e+06
3.50734e+06
3.50679e+06
3.50632e+06
3.5059e+06
3.50554e+06
3.50522e+06
3.50495e+06
3.5047e+06
3.50449e+06
3.5043e+06
3.50414e+06
3.50399e+06
3.50386e+06
3.50375e+06
3.50365e+06
3.50356e+06
3.50348e+06
3.50342e+06
3.50336e+06
3.50331e+06
3.50327e+06
3.50324e+06
3.50322e+06
3.5032e+06
3.50319e+06
3.64677e+06
3.65952e+06
3.61317e+06
3.59802e+06
3.57819e+06
3.56623e+06
3.5548e+06
3.54642e+06
3.53925e+06
3.53355e+06
3.5288e+06
3.52488e+06
3.52162e+06
3.5189e+06
3.51662e+06
3.51471e+06
3.5131e+06
3.51174e+06
3.51057e+06
3.50958e+06
3.50873e+06
3.50799e+06
3.50736e+06
3.50681e+06
3.50633e+06
3.50591e+06
3.50555e+06
3.50523e+06
3.50495e+06
3.50471e+06
3.50449e+06
3.5043e+06
3.50414e+06
3.50399e+06
3.50386e+06
3.50375e+06
3.50365e+06
3.50356e+06
3.50348e+06
3.50342e+06
3.50336e+06
3.50331e+06
3.50327e+06
3.50324e+06
3.50322e+06
3.5032e+06
3.50319e+06
3.68858e+06
3.68958e+06
3.62246e+06
3.60308e+06
3.58038e+06
3.56733e+06
3.55534e+06
3.54671e+06
3.53943e+06
3.53367e+06
3.52888e+06
3.52495e+06
3.52167e+06
3.51894e+06
3.51665e+06
3.51474e+06
3.51312e+06
3.51175e+06
3.51058e+06
3.50959e+06
3.50873e+06
3.508e+06
3.50736e+06
3.50681e+06
3.50633e+06
3.50591e+06
3.50555e+06
3.50523e+06
3.50495e+06
3.50471e+06
3.50449e+06
3.5043e+06
3.50414e+06
3.50399e+06
3.50386e+06
3.50375e+06
3.50365e+06
3.50356e+06
3.50348e+06
3.50342e+06
3.50336e+06
3.50331e+06
3.50327e+06
3.50324e+06
3.50322e+06
3.5032e+06
3.50319e+06
3.50287e+06
3.50285e+06
3.50282e+06
3.5028e+06
3.50278e+06
3.50277e+06
3.50276e+06
3.50276e+06
3.50275e+06
3.503e+06
3.50297e+06
3.50293e+06
3.5029e+06
3.50287e+06
3.50285e+06
3.50283e+06
3.50281e+06
3.50279e+06
3.50278e+06
3.50278e+06
3.50278e+06
3.50045e+06
3.50078e+06
3.5011e+06
3.50141e+06
3.50169e+06
3.50197e+06
3.50222e+06
3.50244e+06
3.50264e+06
3.50282e+06
3.50298e+06
3.50311e+06
3.50323e+06
3.50332e+06
3.50339e+06
3.50344e+06
3.50348e+06
3.50351e+06
3.50352e+06
3.50352e+06
3.50351e+06
3.5035e+06
3.50347e+06
3.50344e+06
3.50341e+06
3.50337e+06
3.50333e+06
3.50329e+06
3.50324e+06
3.5032e+06
3.50316e+06
3.50311e+06
3.50307e+06
3.50303e+06
3.503e+06
3.50296e+06
3.50293e+06
3.5029e+06
3.50287e+06
3.50285e+06
3.50283e+06
3.50282e+06
3.50281e+06
3.5028e+06
3.5028e+06
3.50029e+06
3.50067e+06
3.50103e+06
3.50137e+06
3.50169e+06
3.50199e+06
3.50226e+06
3.5025e+06
3.50272e+06
3.50291e+06
3.50307e+06
3.50321e+06
3.50332e+06
3.50342e+06
3.50349e+06
3.50354e+06
3.50358e+06
3.5036e+06
3.50361e+06
3.5036e+06
3.50359e+06
3.50357e+06
3.50354e+06
3.50351e+06
3.50347e+06
3.50343e+06
3.50338e+06
3.50334e+06
3.50329e+06
3.50324e+06
3.5032e+06
3.50315e+06
3.50311e+06
3.50307e+06
3.50303e+06
3.50299e+06
3.50296e+06
3.50293e+06
3.5029e+06
3.50288e+06
3.50286e+06
3.50284e+06
3.50283e+06
3.50282e+06
3.50282e+06
3.50014e+06
3.50056e+06
3.50097e+06
3.50135e+06
3.5017e+06
3.50203e+06
3.50232e+06
3.50258e+06
3.50281e+06
3.50301e+06
3.50318e+06
3.50332e+06
3.50344e+06
3.50353e+06
3.5036e+06
3.50365e+06
3.50368e+06
3.5037e+06
3.5037e+06
3.50369e+06
3.50367e+06
3.50365e+06
3.50361e+06
3.50357e+06
3.50353e+06
3.50348e+06
3.50344e+06
3.50339e+06
3.50334e+06
3.50328e+06
3.50324e+06
3.50319e+06
3.50314e+06
3.5031e+06
3.50306e+06
3.50302e+06
3.50298e+06
3.50295e+06
3.50292e+06
3.5029e+06
3.50288e+06
3.50286e+06
3.50285e+06
3.50284e+06
3.50284e+06
3.50003e+06
3.50048e+06
3.50093e+06
3.50136e+06
3.50174e+06
3.50209e+06
3.50241e+06
3.50268e+06
3.50293e+06
3.50313e+06
3.50331e+06
3.50345e+06
3.50357e+06
3.50366e+06
3.50372e+06
3.50377e+06
3.5038e+06
3.50381e+06
3.5038e+06
3.50379e+06
3.50376e+06
3.50373e+06
3.50369e+06
3.50364e+06
3.5036e+06
3.50354e+06
3.50349e+06
3.50344e+06
3.50338e+06
3.50333e+06
3.50328e+06
3.50322e+06
3.50318e+06
3.50313e+06
3.50309e+06
3.50305e+06
3.50301e+06
3.50298e+06
3.50295e+06
3.50292e+06
3.5029e+06
3.50288e+06
3.50287e+06
3.50286e+06
3.50286e+06
3.49997e+06
3.50045e+06
3.50093e+06
3.5014e+06
3.50181e+06
3.50219e+06
3.50252e+06
3.50282e+06
3.50307e+06
3.50328e+06
3.50346e+06
3.5036e+06
3.50372e+06
3.5038e+06
3.50386e+06
3.5039e+06
3.50392e+06
3.50392e+06
3.50391e+06
3.50389e+06
3.50386e+06
3.50382e+06
3.50377e+06
3.50372e+06
3.50366e+06
3.5036e+06
3.50355e+06
3.50349e+06
3.50343e+06
3.50337e+06
3.50331e+06
3.50326e+06
3.50321e+06
3.50316e+06
3.50312e+06
3.50307e+06
3.50304e+06
3.503e+06
3.50297e+06
3.50294e+06
3.50292e+06
3.5029e+06
3.50289e+06
3.50288e+06
3.50288e+06
3.5e+06
3.50049e+06
3.501e+06
3.50149e+06
3.50193e+06
3.50233e+06
3.50268e+06
3.50298e+06
3.50324e+06
3.50346e+06
3.50364e+06
3.50378e+06
3.50389e+06
3.50396e+06
3.50402e+06
3.50405e+06
3.50406e+06
3.50405e+06
3.50403e+06
3.504e+06
3.50396e+06
3.50391e+06
3.50385e+06
3.50379e+06
3.50373e+06
3.50367e+06
3.5036e+06
3.50354e+06
3.50348e+06
3.50341e+06
3.50335e+06
3.5033e+06
3.50324e+06
3.50319e+06
3.50315e+06
3.5031e+06
3.50306e+06
3.50303e+06
3.50299e+06
3.50297e+06
3.50294e+06
3.50293e+06
3.50291e+06
3.5029e+06
3.5029e+06
3.50013e+06
3.50063e+06
3.50114e+06
3.50165e+06
3.5021e+06
3.50251e+06
3.50288e+06
3.50319e+06
3.50345e+06
3.50367e+06
3.50384e+06
3.50398e+06
3.50408e+06
3.50415e+06
3.50419e+06
3.50421e+06
3.5042e+06
3.50419e+06
3.50415e+06
3.50411e+06
3.50406e+06
3.504e+06
3.50394e+06
3.50387e+06
3.5038e+06
3.50373e+06
3.50366e+06
3.50359e+06
3.50352e+06
3.50346e+06
3.50339e+06
3.50333e+06
3.50328e+06
3.50322e+06
3.50317e+06
3.50313e+06
3.50309e+06
3.50305e+06
3.50302e+06
3.50299e+06
3.50296e+06
3.50295e+06
3.50293e+06
3.50292e+06
3.50292e+06
3.50035e+06
3.50086e+06
3.50137e+06
3.50188e+06
3.50234e+06
3.50276e+06
3.50313e+06
3.50344e+06
3.5037e+06
3.50392e+06
3.50408e+06
3.5042e+06
3.50429e+06
3.50435e+06
3.50437e+06
3.50438e+06
3.50436e+06
3.50433e+06
3.50429e+06
3.50423e+06
3.50417e+06
3.5041e+06
3.50403e+06
3.50395e+06
3.50387e+06
3.5038e+06
3.50372e+06
3.50364e+06
3.50357e+06
3.5035e+06
3.50343e+06
3.50337e+06
3.50331e+06
3.50325e+06
3.5032e+06
3.50315e+06
3.50311e+06
3.50307e+06
3.50304e+06
3.50301e+06
3.50298e+06
3.50296e+06
3.50295e+06
3.50294e+06
3.50294e+06
3.50065e+06
3.50116e+06
3.50168e+06
3.50218e+06
3.50265e+06
3.50307e+06
3.50344e+06
3.50374e+06
3.504e+06
3.5042e+06
3.50435e+06
3.50446e+06
3.50453e+06
3.50457e+06
3.50458e+06
3.50457e+06
3.50454e+06
3.50449e+06
3.50443e+06
3.50436e+06
3.50429e+06
3.5042e+06
3.50412e+06
3.50403e+06
3.50395e+06
3.50386e+06
3.50378e+06
3.5037e+06
3.50362e+06
3.50354e+06
3.50347e+06
3.50341e+06
3.50334e+06
3.50328e+06
3.50323e+06
3.50318e+06
3.50314e+06
3.5031e+06
3.50306e+06
3.50303e+06
3.503e+06
3.50298e+06
3.50297e+06
3.50296e+06
3.50296e+06
3.50105e+06
3.50155e+06
3.50206e+06
3.50257e+06
3.50303e+06
3.50345e+06
3.50381e+06
3.5041e+06
3.50434e+06
3.50453e+06
3.50466e+06
3.50475e+06
3.5048e+06
3.50482e+06
3.50481e+06
3.50477e+06
3.50472e+06
3.50466e+06
3.50458e+06
3.5045e+06
3.50441e+06
3.50431e+06
3.50422e+06
3.50412e+06
3.50402e+06
3.50393e+06
3.50384e+06
3.50375e+06
3.50367e+06
3.50359e+06
3.50351e+06
3.50344e+06
3.50338e+06
3.50331e+06
3.50326e+06
3.50321e+06
3.50316e+06
3.50312e+06
3.50308e+06
3.50305e+06
3.50302e+06
3.503e+06
3.50299e+06
3.50298e+06
3.50297e+06
3.50151e+06
3.502e+06
3.50252e+06
3.50303e+06
3.50349e+06
3.5039e+06
3.50424e+06
3.50452e+06
3.50474e+06
3.5049e+06
3.50501e+06
3.50507e+06
3.50509e+06
3.50509e+06
3.50505e+06
3.50499e+06
3.50492e+06
3.50484e+06
3.50474e+06
3.50464e+06
3.50453e+06
3.50442e+06
3.50432e+06
3.50421e+06
3.5041e+06
3.504e+06
3.5039e+06
3.50381e+06
3.50372e+06
3.50363e+06
3.50355e+06
3.50348e+06
3.50341e+06
3.50334e+06
3.50328e+06
3.50323e+06
3.50318e+06
3.50314e+06
3.5031e+06
3.50307e+06
3.50304e+06
3.50302e+06
3.503e+06
3.50299e+06
3.50299e+06
3.50207e+06
3.50256e+06
3.50307e+06
3.50358e+06
3.50404e+06
3.50443e+06
3.50475e+06
3.50501e+06
3.50519e+06
3.50532e+06
3.5054e+06
3.50543e+06
3.50542e+06
3.50538e+06
3.50532e+06
3.50523e+06
3.50513e+06
3.50503e+06
3.50491e+06
3.50479e+06
3.50466e+06
3.50454e+06
3.50442e+06
3.5043e+06
3.50418e+06
3.50407e+06
3.50396e+06
3.50386e+06
3.50376e+06
3.50367e+06
3.50359e+06
3.50351e+06
3.50344e+06
3.50337e+06
3.50331e+06
3.50325e+06
3.5032e+06
3.50316e+06
3.50312e+06
3.50309e+06
3.50306e+06
3.50304e+06
3.50302e+06
3.50301e+06
3.50301e+06
3.5027e+06
3.50319e+06
3.50372e+06
3.50423e+06
3.50467e+06
3.50505e+06
3.50534e+06
3.50556e+06
3.50571e+06
3.5058e+06
3.50583e+06
3.50582e+06
3.50578e+06
3.5057e+06
3.5056e+06
3.50549e+06
3.50536e+06
3.50522e+06
3.50508e+06
3.50494e+06
3.5048e+06
3.50466e+06
3.50452e+06
3.50439e+06
3.50426e+06
3.50414e+06
3.50402e+06
3.50391e+06
3.50381e+06
3.50372e+06
3.50363e+06
3.50355e+06
3.50347e+06
3.5034e+06
3.50334e+06
3.50328e+06
3.50323e+06
3.50318e+06
3.50314e+06
3.5031e+06
3.50308e+06
3.50305e+06
3.50304e+06
3.50303e+06
3.50302e+06
3.50349e+06
3.50398e+06
3.5045e+06
3.505e+06
3.50542e+06
3.50576e+06
3.50602e+06
3.50619e+06
3.50629e+06
3.50633e+06
3.50631e+06
3.50626e+06
3.50616e+06
3.50605e+06
3.50591e+06
3.50576e+06
3.5056e+06
3.50543e+06
3.50527e+06
3.5051e+06
3.50494e+06
3.50478e+06
3.50463e+06
3.50448e+06
3.50434e+06
3.50421e+06
3.50409e+06
3.50397e+06
3.50386e+06
3.50376e+06
3.50367e+06
3.50358e+06
3.5035e+06
3.50343e+06
3.50336e+06
3.5033e+06
3.50325e+06
3.5032e+06
3.50316e+06
3.50312e+06
3.50309e+06
3.50307e+06
3.50305e+06
3.50304e+06
3.50304e+06
3.50439e+06
3.50489e+06
3.50542e+06
3.5059e+06
3.50629e+06
3.50658e+06
3.50678e+06
3.5069e+06
3.50694e+06
3.50691e+06
3.50684e+06
3.50673e+06
3.50658e+06
3.50642e+06
3.50624e+06
3.50605e+06
3.50585e+06
3.50565e+06
3.50546e+06
3.50527e+06
3.50508e+06
3.50491e+06
3.50474e+06
3.50458e+06
3.50442e+06
3.50428e+06
3.50415e+06
3.50402e+06
3.50391e+06
3.5038e+06
3.5037e+06
3.50361e+06
3.50353e+06
3.50345e+06
3.50338e+06
3.50332e+06
3.50327e+06
3.50322e+06
3.50318e+06
3.50314e+06
3.50311e+06
3.50308e+06
3.50307e+06
3.50306e+06
3.50305e+06
3.50559e+06
3.50606e+06
3.50654e+06
3.50698e+06
3.50731e+06
3.50753e+06
3.50766e+06
3.50769e+06
3.50766e+06
3.50756e+06
3.50742e+06
3.50724e+06
3.50704e+06
3.50681e+06
3.50658e+06
3.50635e+06
3.50611e+06
3.50588e+06
3.50566e+06
3.50544e+06
3.50523e+06
3.50503e+06
3.50485e+06
3.50467e+06
3.50451e+06
3.50435e+06
3.50421e+06
3.50408e+06
3.50395e+06
3.50384e+06
3.50374e+06
3.50364e+06
3.50356e+06
3.50348e+06
3.50341e+06
3.50334e+06
3.50329e+06
3.50324e+06
3.50319e+06
3.50316e+06
3.50312e+06
3.5031e+06
3.50308e+06
3.50307e+06
3.50307e+06
3.50699e+06
3.50741e+06
3.50785e+06
3.50822e+06
3.50847e+06
3.50861e+06
3.50864e+06
3.50858e+06
3.50845e+06
3.50827e+06
3.50804e+06
3.50779e+06
3.50752e+06
3.50724e+06
3.50695e+06
3.50667e+06
3.50639e+06
3.50612e+06
3.50586e+06
3.50561e+06
3.50538e+06
3.50516e+06
3.50496e+06
3.50477e+06
3.50459e+06
3.50442e+06
3.50427e+06
3.50413e+06
3.504e+06
3.50388e+06
3.50377e+06
3.50368e+06
3.50359e+06
3.5035e+06
3.50343e+06
3.50337e+06
3.50331e+06
3.50325e+06
3.50321e+06
3.50317e+06
3.50314e+06
3.50311e+06
3.50309e+06
3.50308e+06
3.50308e+06
3.50889e+06
3.50917e+06
3.50947e+06
3.50972e+06
3.50984e+06