/*--------------------------------*- C++ -*----------------------------------*\
| =========                 |                                                 |
| \\      /  F ield         | OpenFOAM: The Open Source CFD Toolbox           |
|  \\    /   O peration     | Version:  v2012                                 |
|   \\  /    A nd           | Website:  www.openfoam.com                      |
|    \\/     M anipulation  |                                                 |
\*---------------------------------------------------------------------------*/
FoamFile
{
    version     2.0;
    format      ascii;
    class       volVectorField;
    location    "0.6";
    object      U;
}
// * * * * * * * * * * * * * * * * * * * * * * * * * * * * * * * * * * * * * //

dimensions      [0 1 -1 0 0 0 0];


internalField   nonuniform List<vector> 
2625
(
(5.87175e-06 -0.0037645 -5.13461e-08)
(1.68018e-05 -0.00389337 -1.4741e-07)
(2.69217e-05 -0.00399329 -2.35592e-07)
(3.76379e-05 -0.00406836 -3.27454e-07)
(5.25693e-05 -0.00413282 -4.59782e-07)
(6.18588e-05 -0.0041826 -5.4e-07)
(8.09025e-05 -0.0042262 -7.04888e-07)
(9.06679e-05 -0.00426269 -7.91874e-07)
(0.000110381 -0.00429229 -9.63021e-07)
(0.000123943 -0.00431834 -1.08219e-06)
(0.000142596 -0.00433738 -1.24524e-06)
(0.00015923 -0.00435247 -1.39006e-06)
(0.000177562 -0.00436257 -1.55037e-06)
(0.000196841 -0.0043678 -1.71862e-06)
(0.000216188 -0.00436892 -1.88747e-06)
(0.000236634 -0.00436497 -2.06585e-06)
(0.000257136 -0.00435671 -2.24476e-06)
(0.000278217 -0.00434348 -2.42872e-06)
(0.000299372 -0.00432554 -2.61327e-06)
(0.000320674 -0.00430252 -2.79916e-06)
(0.00034185 -0.00427443 -2.98392e-06)
(0.000362844 -0.00424104 -3.16712e-06)
(0.000383486 -0.00420225 -3.34725e-06)
(0.000403637 -0.00415792 -3.5231e-06)
(0.000423156 -0.00410792 -3.69345e-06)
(0.000441884 -0.00405214 -3.85688e-06)
(0.00045967 -0.0039905 -4.01212e-06)
(0.000476346 -0.00392293 -4.15766e-06)
(0.000491752 -0.0038494 -4.29212e-06)
(0.00050571 -0.0037699 -4.41396e-06)
(0.000518053 -0.00368448 -4.5217e-06)
(0.000528606 -0.00359322 -4.61381e-06)
(0.000537204 -0.00349625 -4.68887e-06)
(0.000543684 -0.00339376 -4.74545e-06)
(0.000547898 -0.00328599 -4.78226e-06)
(0.000549706 -0.00317322 -4.79806e-06)
(8.69491e-06 -0.00383841 -7.58794e-08)
(1.99537e-05 -0.00397072 -1.73539e-07)
(3.11743e-05 -0.00406853 -2.74269e-07)
(4.94108e-05 -0.00414887 -4.32149e-07)
(6.04234e-05 -0.00420794 -5.24784e-07)
(7.78493e-05 -0.00426363 -6.80385e-07)
(9.07416e-05 -0.00430178 -7.92383e-07)
(0.000107782 -0.00434341 -9.39558e-07)
(0.000123878 -0.00436833 -1.08116e-06)
(0.000140061 -0.00439799 -1.22226e-06)
(0.00015889 -0.00441427 -1.38731e-06)
(0.000174974 -0.00443137 -1.52776e-06)
(0.000194793 -0.00443882 -1.7006e-06)
(0.000212678 -0.00444434 -1.85684e-06)
(0.000232517 -0.00444346 -2.03004e-06)
(0.000251808 -0.00443853 -2.1983e-06)
(0.000271792 -0.00442841 -2.37277e-06)
(0.000291828 -0.00441351 -2.54753e-06)
(0.000312087 -0.00439353 -2.72433e-06)
(0.000332416 -0.0043684 -2.90166e-06)
(0.000352727 -0.00433801 -3.07889e-06)
(0.000372919 -0.00430221 -3.25507e-06)
(0.00039283 -0.00426088 -3.42881e-06)
(0.000412332 -0.00421388 -3.599e-06)
(0.000431263 -0.0041611 -3.7642e-06)
(0.000449469 -0.00410244 -3.92307e-06)
(0.000466777 -0.00403784 -4.07411e-06)
(0.000483022 -0.00396724 -4.21588e-06)
(0.000498024 -0.00389062 -4.34681e-06)
(0.00051161 -0.003808 -4.46539e-06)
(0.000523598 -0.00371943 -4.57002e-06)
(0.000533815 -0.00362501 -4.65918e-06)
(0.000542087 -0.0035249 -4.73138e-06)
(0.000548252 -0.00341929 -4.7852e-06)
(0.000552157 -0.00330844 -4.8193e-06)
(0.000553663 -0.00319266 -4.83247e-06)
(4.88913e-06 -0.00385841 -4.27658e-08)
(2.29661e-05 -0.00399022 -2.00377e-07)
(2.89926e-05 -0.00408679 -2.48711e-07)
(4.71761e-05 -0.0041689 -4.09718e-07)
(5.64525e-05 -0.00422812 -4.97243e-07)
(7.38012e-05 -0.00428429 -6.42951e-07)
(9.03701e-05 -0.00432405 -7.89446e-07)
(0.000102677 -0.00436587 -8.95998e-07)
(0.000125702 -0.00439247 -1.09605e-06)
(0.000137543 -0.00442208 -1.20023e-06)
(0.00016094 -0.00443947 -1.40449e-06)
(0.000175842 -0.00445704 -1.53507e-06)
(0.000197637 -0.00446557 -1.72533e-06)
(0.000215002 -0.00447217 -1.87721e-06)
(0.000235642 -0.00447224 -2.05711e-06)
(0.000255482 -0.00446842 -2.23052e-06)
(0.000276006 -0.00445918 -2.40949e-06)
(0.00029673 -0.00444511 -2.59042e-06)
(0.000317565 -0.00442578 -2.77212e-06)
(0.000338477 -0.00440114 -2.95462e-06)
(0.000359215 -0.00437105 -3.13554e-06)
(0.00037981 -0.00433536 -3.31526e-06)
(0.000400045 -0.00429394 -3.49182e-06)
(0.000419805 -0.00424666 -3.66425e-06)
(0.000438934 -0.0041934 -3.83118e-06)
(0.000457272 -0.00413408 -3.99121e-06)
(0.000474665 -0.00406861 -4.14301e-06)
(0.000490941 -0.00399695 -4.28504e-06)
(0.000505931 -0.0039191 -4.41587e-06)
(0.000519457 -0.00383508 -4.53392e-06)
(0.000531343 -0.00374495 -4.63766e-06)
(0.000541412 -0.00364883 -4.72554e-06)
(0.000549498 -0.00354689 -4.79612e-06)
(0.000555436 -0.00343935 -4.84796e-06)
(0.000559079 -0.00332648 -4.87976e-06)
(0.000560287 -0.0032086 -4.89033e-06)
(7.51869e-06 -0.00392877 -6.55397e-08)
(2.41996e-05 -0.00405948 -2.11016e-07)
(3.5093e-05 -0.0041593 -3.02837e-07)
(5.53184e-05 -0.00423814 -4.81403e-07)
(6.43853e-05 -0.00429873 -5.63796e-07)
(8.73311e-05 -0.00435347 -7.61727e-07)
(9.98387e-05 -0.004393 -8.71974e-07)
(0.000117225 -0.00443506 -1.02165e-06)
(0.000136991 -0.00445959 -1.19434e-06)
(0.000150511 -0.00449019 -1.3131e-06)
(0.000173182 -0.00450396 -1.5113e-06)
(0.000187714 -0.00452199 -1.63832e-06)
(0.000210499 -0.00452735 -1.83794e-06)
(0.000226862 -0.00453339 -1.98029e-06)
(0.000248783 -0.00453085 -2.17215e-06)
(0.000267909 -0.00452568 -2.33884e-06)
(0.000288931 -0.00451429 -2.5225e-06)
(0.000309244 -0.00449848 -2.69958e-06)
(0.000330089 -0.00447719 -2.88152e-06)
(0.000350753 -0.00445071 -3.06175e-06)
(0.000371386 -0.00441869 -3.2418e-06)
(0.000391814 -0.00438107 -3.42002e-06)
(0.000411921 -0.00433768 -3.59547e-06)
(0.000431564 -0.00428842 -3.76687e-06)
(0.000450587 -0.00423314 -3.93288e-06)
(0.000468828 -0.00417177 -4.09206e-06)
(0.000486116 -0.00410421 -4.24293e-06)
(0.000502279 -0.00403043 -4.38398e-06)
(0.000517132 -0.00395042 -4.51361e-06)
(0.000530497 -0.0038642 -4.63026e-06)
(0.000542187 -0.00377184 -4.7323e-06)
(0.000552027 -0.00367347 -4.81817e-06)
(0.000559841 -0.00356926 -4.88638e-06)
(0.000565467 -0.00345944 -4.93549e-06)
(0.000568753 -0.00334428 -4.96419e-06)
(0.000569564 -0.00322414 -4.97129e-06)
(5.81049e-06 -0.00396397 -5.0446e-08)
(2.51404e-05 -0.0040959 -2.18769e-07)
(3.22998e-05 -0.00419459 -2.78786e-07)
(5.40751e-05 -0.004274 -4.71229e-07)
(6.33594e-05 -0.00433675 -5.55513e-07)
(8.35397e-05 -0.0043917 -7.28485e-07)
(0.000100681 -0.00443174 -8.79371e-07)
(0.00011494 -0.00447423 -1.00152e-06)
(0.000138741 -0.00449897 -1.21102e-06)
(0.000151423 -0.00452943 -1.31986e-06)
(0.000177018 -0.00454391 -1.54554e-06)
(0.000191228 -0.00456272 -1.66928e-06)
(0.000216265 -0.00456879 -1.88775e-06)
(0.000232613 -0.00457571 -2.03108e-06)
(0.000255992 -0.00457349 -2.23468e-06)
(0.000275676 -0.00456888 -2.407e-06)
(0.000297698 -0.00455758 -2.59884e-06)
(0.000318812 -0.00454185 -2.78328e-06)
(0.000340436 -0.00452036 -2.97181e-06)
(0.000361857 -0.00449352 -3.15876e-06)
(0.000383099 -0.00446092 -3.34404e-06)
(0.000404087 -0.00442254 -3.52718e-06)
(0.000424641 -0.00437819 -3.70651e-06)
(0.000444653 -0.00432777 -3.88114e-06)
(0.00046396 -0.00427117 -4.04962e-06)
(0.000482406 -0.0042083 -4.21058e-06)
(0.000499829 -0.0041391 -4.36263e-06)
(0.000516052 -0.00406354 -4.50421e-06)
(0.000530901 -0.00398162 -4.63379e-06)
(0.000544189 -0.00389338 -4.74977e-06)
(0.000555736 -0.00379891 -4.85056e-06)
(0.000565362 -0.00369835 -4.93457e-06)
(0.000572896 -0.00359188 -5.00033e-06)
(0.000578173 -0.00347976 -5.0464e-06)
(0.000581046 -0.00336229 -5.0715e-06)
(0.000581381 -0.00323983 -5.07444e-06)
(6.04266e-06 -0.0040308 -5.2567e-08)
(2.93143e-05 -0.00415996 -2.55611e-07)
(3.33391e-05 -0.00426158 -2.86846e-07)
(6.41306e-05 -0.00433971 -5.57538e-07)
(6.66072e-05 -0.0043989 -5.85398e-07)
(9.68177e-05 -0.00445643 -8.41213e-07)
(0.00010844 -0.00449482 -9.46579e-07)
(0.000128012 -0.00453582 -1.11781e-06)
(0.000149934 -0.00456162 -1.30803e-06)
(0.000162941 -0.00458998 -1.42298e-06)
(0.000188666 -0.00460437 -1.64535e-06)
(0.000202192 -0.00462183 -1.76513e-06)
(0.000228517 -0.00462656 -1.99516e-06)
(0.000243938 -0.00463257 -2.1295e-06)
(0.000268997 -0.00462874 -2.34867e-06)
(0.000288064 -0.00462297 -2.5147e-06)
(0.000311298 -0.00461012 -2.71784e-06)
(0.000332345 -0.004593 -2.90125e-06)
(0.000354641 -0.00456999 -3.0959e-06)
(0.000376289 -0.00454164 -3.28468e-06)
(0.000397971 -0.00450749 -3.47388e-06)
(0.000419258 -0.00446753 -3.65959e-06)
(0.000440144 -0.00442153 -3.84183e-06)
(0.000460426 -0.00436941 -4.0188e-06)
(0.000479973 -0.00431102 -4.18937e-06)
(0.000498608 -0.00424629 -4.35199e-06)
(0.000516165 -0.00417515 -4.5052e-06)
(0.000532462 -0.00409757 -4.64743e-06)
(0.000547313 -0.00401354 -4.77704e-06)
(0.000560533 -0.00392313 -4.89242e-06)
(0.000571932 -0.00382642 -4.99191e-06)
(0.000581331 -0.00372356 -5.07394e-06)
(0.000588554 -0.00361476 -5.13699e-06)
(0.00059344 -0.00350027 -5.17965e-06)
(0.00059584 -0.00338041 -5.20062e-06)
(0.000595623 -0.00325557 -5.19875e-06)
(9.30455e-06 -0.00407677 -8.10658e-08)
(2.45135e-05 -0.00420856 -2.13634e-07)
(3.94108e-05 -0.00431075 -3.44217e-07)
(5.62782e-05 -0.0043927 -4.91209e-07)
(7.37729e-05 -0.00444881 -6.42254e-07)
(9.09468e-05 -0.00450839 -7.96989e-07)
(0.000109446 -0.0045456 -9.5716e-07)
(0.000127873 -0.0045867 -1.11478e-06)
(0.000146893 -0.00461327 -1.27663e-06)
(0.000169899 -0.00464103 -1.4828e-06)
(0.000191323 -0.00465638 -1.6723e-06)
(0.000209791 -0.00467313 -1.82994e-06)
(0.000236586 -0.00467834 -2.06554e-06)
(0.00025333 -0.00468381 -2.21186e-06)
(0.000279961 -0.00467992 -2.44386e-06)
(0.000299683 -0.00467366 -2.61655e-06)
(0.000324104 -0.00466036 -2.82931e-06)
(0.000345955 -0.00464256 -3.02022e-06)
(0.000369114 -0.00461875 -3.22211e-06)
(0.000391583 -0.00458943 -3.41821e-06)
(0.00041396 -0.00455416 -3.61341e-06)
(0.000435921 -0.00451289 -3.80503e-06)
(0.000457373 -0.00446546 -3.99219e-06)
(0.000478155 -0.00441176 -4.17354e-06)
(0.00049811 -0.00435165 -4.34767e-06)
(0.000517071 -0.00428508 -4.51313e-06)
(0.000534867 -0.00421198 -4.66842e-06)
(0.000551311 -0.00413232 -4.81193e-06)
(0.000566219 -0.00404612 -4.94204e-06)
(0.000579398 -0.00395345 -5.05707e-06)
(0.000590661 -0.00385442 -5.15537e-06)
(0.000599823 -0.00374917 -5.23534e-06)
(0.000606711 -0.00363794 -5.29547e-06)
(0.000611162 -0.00352099 -5.33433e-06)
(0.00061303 -0.00339867 -5.35066e-06)
(0.000612188 -0.00327138 -5.34334e-06)
(8.96427e-06 -0.00414514 -7.77313e-08)
(2.7618e-05 -0.00427346 -2.3989e-07)
(4.18066e-05 -0.00437553 -3.64628e-07)
(6.35619e-05 -0.00444888 -5.53801e-07)
(7.83174e-05 -0.00451737 -6.83565e-07)
(0.000102514 -0.004565 -8.95509e-07)
(0.000118652 -0.00461287 -1.03654e-06)
(0.000140606 -0.00464593 -1.22783e-06)
(0.000159658 -0.00467693 -1.38652e-06)
(0.0001826 -0.00469993 -1.59605e-06)
(0.00020429 -0.0047168 -1.78366e-06)
(0.000222464 -0.00473109 -1.94093e-06)
(0.000250123 -0.0047368 -2.18403e-06)
(0.00026647 -0.00474078 -2.32588e-06)
(0.000294623 -0.00473655 -2.57227e-06)
(0.000314099 -0.0047291 -2.74189e-06)
(0.000339874 -0.00471487 -2.96717e-06)
(0.000361983 -0.00469585 -3.15992e-06)
(0.000386103 -0.00467076 -3.37044e-06)
(0.000409123 -0.00464004 -3.57124e-06)
(0.000432254 -0.00460326 -3.77307e-06)
(0.000454807 -0.00456039 -3.96982e-06)
(0.000476853 -0.00451125 -4.1622e-06)
(0.000498141 -0.00445573 -4.34796e-06)
(0.000518544 -0.00439371 -4.526e-06)
(0.000537869 -0.00432512 -4.69464e-06)
(0.000555943 -0.0042499 -4.85237e-06)
(0.000572572 -0.00416803 -4.99749e-06)
(0.000587562 -0.00407954 -5.12831e-06)
(0.000600717 -0.00398449 -5.24313e-06)
(0.000611842 -0.00388301 -5.34024e-06)
(0.000620755 -0.00377526 -5.41803e-06)
(0.000627278 -0.00366149 -5.47498e-06)
(0.000631251 -0.00354199 -5.50967e-06)
(0.000632527 -0.0034171 -5.52083e-06)
(0.000630986 -0.00328726 -5.50741e-06)
(1.10282e-05 -0.0041991 -9.57506e-08)
(2.63963e-05 -0.00433432 -2.28099e-07)
(4.35836e-05 -0.00443572 -3.78846e-07)
(6.42197e-05 -0.00451693 -5.61364e-07)
(7.89151e-05 -0.00457834 -6.88911e-07)
(0.000105377 -0.00462971 -9.19891e-07)
(0.000118287 -0.00467414 -1.03448e-06)
(0.000146755 -0.00470752 -1.27974e-06)
(0.000160423 -0.00473937 -1.39592e-06)
(0.000190572 -0.00476111 -1.664e-06)
(0.000209549 -0.00477971 -1.83046e-06)
(0.000231782 -0.00479142 -2.02218e-06)
(0.000259918 -0.004798 -2.26904e-06)
(0.000278262 -0.00479959 -2.42933e-06)
(0.000307822 -0.00479528 -2.68696e-06)
(0.000328622 -0.00478611 -2.86885e-06)
(0.000355683 -0.00477113 -3.1049e-06)
(0.00037894 -0.00475069 -3.30796e-06)
(0.000404101 -0.00472444 -3.52741e-06)
(0.000428129 -0.00469227 -3.73709e-06)
(0.00045213 -0.00465402 -3.94648e-06)
(0.000475508 -0.00460951 -4.15048e-06)
(0.00049827 -0.00455861 -4.34909e-06)
(0.000520197 -0.00450121 -4.54044e-06)
(0.00054114 -0.00443719 -4.72319e-06)
(0.000560909 -0.00436647 -4.89571e-06)
(0.000579321 -0.00428901 -5.05639e-06)
(0.000596177 -0.00420481 -5.2035e-06)
(0.000611277 -0.00411388 -5.33529e-06)
(0.00062442 -0.00401632 -5.45001e-06)
(0.000635408 -0.00391227 -5.54592e-06)
(0.000644054 -0.0038019 -5.62138e-06)
(0.000650181 -0.00368546 -5.67488e-06)
(0.000653627 -0.00356328 -5.70497e-06)
(0.000654251 -0.00343573 -5.71045e-06)
(0.000651935 -0.00330324 -5.69026e-06)
(1.01566e-05 -0.00427122 -8.89329e-08)
(2.97878e-05 -0.00439772 -2.61184e-07)
(4.97665e-05 -0.00450607 -4.28307e-07)
(6.70204e-05 -0.00456971 -5.82503e-07)
(8.49003e-05 -0.00465096 -7.47169e-07)
(0.000112016 -0.00468406 -9.75495e-07)
(0.00012814 -0.00474603 -1.11821e-06)
(0.0001563 -0.00476541 -1.36547e-06)
(0.000173186 -0.00480745 -1.50506e-06)
(0.000203943 -0.00481978 -1.78253e-06)
(0.000224124 -0.00484396 -1.95721e-06)
(0.000247801 -0.00485054 -2.16157e-06)
(0.000276016 -0.00485996 -2.40953e-06)
(0.000295374 -0.00485924 -2.57835e-06)
(0.000325109 -0.00485561 -2.83794e-06)
(0.000346563 -0.00484528 -3.02529e-06)
(0.000374337 -0.00482971 -3.26764e-06)
(0.000398324 -0.00480809 -3.477e-06)
(0.000424347 -0.00478058 -3.70406e-06)
(0.000449212 -0.00474692 -3.92103e-06)
(0.000474075 -0.00470703 -4.13796e-06)
(0.000498263 -0.00466075 -4.34903e-06)
(0.000521788 -0.00460794 -4.55432e-06)
(0.000544394 -0.00454849 -4.75159e-06)
(0.000565928 -0.0044823 -4.93951e-06)
(0.000586186 -0.00440931 -5.1163e-06)
(0.000604977 -0.00432946 -5.2803e-06)
(0.000622092 -0.00424277 -5.42967e-06)
(0.000637321 -0.00414926 -5.56259e-06)
(0.000650459 -0.00404905 -5.67727e-06)
(0.000661302 -0.00394227 -5.77192e-06)
(0.000669661 -0.00382913 -5.84487e-06)
(0.000675355 -0.00370991 -5.89459e-06)
(0.000678225 -0.00358492 -5.91967e-06)
(0.000678133 -0.00345457 -5.91889e-06)
(0.000674965 -0.00331932 -5.89128e-06)
(1.82116e-05 -0.00433418 -1.58907e-07)
(2.27859e-05 -0.00446722 -1.98859e-07)
(5.23216e-05 -0.00457659 -4.65599e-07)
(6.75672e-05 -0.00464645 -5.94399e-07)
(9.22285e-05 -0.00472059 -7.97064e-07)
(0.000117554 -0.0047598 -1.02946e-06)
(0.000129889 -0.00481554 -1.13345e-06)
(0.00016729 -0.00483783 -1.45921e-06)
(0.000173678 -0.00487845 -1.51158e-06)
(0.000214715 -0.00489012 -1.87503e-06)
(0.000227808 -0.00491505 -1.99035e-06)
(0.000258419 -0.004919 -2.25402e-06)
(0.000284469 -0.00492912 -2.48343e-06)
(0.000308567 -0.00492522 -2.69299e-06)
(0.000338935 -0.00492147 -2.9588e-06)
(0.000363056 -0.00490861 -3.16898e-06)
(0.000392379 -0.00489208 -3.4251e-06)
(0.000418124 -0.00486851 -3.64963e-06)
(0.000445528 -0.00483956 -3.88887e-06)
(0.000471686 -0.0048041 -4.11708e-06)
(0.000497666 -0.00476243 -4.34382e-06)
(0.000522862 -0.00471419 -4.56367e-06)
(0.000547281 -0.00465933 -4.77677e-06)
(0.000570665 -0.00459769 -4.98084e-06)
(0.000592867 -0.00452919 -5.1746e-06)
(0.000613671 -0.00445376 -5.35616e-06)
(0.000632885 -0.00437137 -5.52385e-06)
(0.000650286 -0.00428203 -5.67572e-06)
(0.000665661 -0.00418578 -5.80992e-06)
(0.000678795 -0.00408275 -5.92458e-06)
(0.000689482 -0.00397309 -6.01786e-06)
(0.000697526 -0.00385704 -6.08807e-06)
(0.000702748 -0.00373487 -6.13368e-06)
(0.000704988 -0.00360693 -6.15326e-06)
(0.000704112 -0.00347366 -6.14564e-06)
(0.000700012 -0.00333552 -6.10989e-06)
(1.5881e-05 -0.00440912 -1.38993e-07)
(2.99556e-05 -0.0045415 -2.61669e-07)
(5.28205e-05 -0.00464327 -4.67537e-07)
(7.17669e-05 -0.00471835 -6.2962e-07)
(9.70896e-05 -0.00478825 -8.45348e-07)
(0.000120532 -0.00483167 -1.053e-06)
(0.000141417 -0.00488524 -1.23265e-06)
(0.00017483 -0.00490714 -1.5276e-06)
(0.0001887 -0.00494845 -1.6431e-06)
(0.000229406 -0.00495736 -2.00388e-06)
(0.000245045 -0.00498445 -2.14005e-06)
(0.000278149 -0.00498559 -2.42676e-06)
(0.00030342 -0.00499731 -2.64799e-06)
(0.00033017 -0.0049914 -2.88247e-06)
(0.000359147 -0.00498802 -3.13433e-06)
(0.000385233 -0.00497366 -3.36276e-06)
(0.000414241 -0.00495641 -3.61552e-06)
(0.000441331 -0.00493141 -3.85228e-06)
(0.000469243 -0.00490102 -4.09565e-06)
(0.000496535 -0.00486384 -4.33393e-06)
(0.00052339 -0.0048203 -4.56822e-06)
(0.000549584 -0.00477002 -4.79684e-06)
(0.000574872 -0.00471296 -5.01752e-06)
(0.000599075 -0.00464898 -5.22875e-06)
(0.000621976 -0.00457801 -5.42862e-06)
(0.000643369 -0.00449998 -5.61533e-06)
(0.000663034 -0.00441486 -5.78697e-06)
(0.000680745 -0.00432269 -5.94155e-06)
(0.000696275 -0.00422353 -6.0771e-06)
(0.000709402 -0.00411751 -6.1917e-06)
(0.000719913 -0.0040048 -6.28346e-06)
(0.000727612 -0.00388566 -6.35066e-06)
(0.000732316 -0.00376038 -6.39175e-06)
(0.000733868 -0.00362934 -6.40532e-06)
(0.000732135 -0.00349299 -6.39024e-06)
(0.00072702 -0.00335184 -6.34563e-06)
(2.00457e-05 -0.00448124 -1.75921e-07)
(2.67925e-05 -0.00461602 -2.3483e-07)
(6.01098e-05 -0.0047214 -5.3064e-07)
(7.48304e-05 -0.00479922 -6.55127e-07)
(0.000103447 -0.00486452 -8.98561e-07)
(0.000131467 -0.00491176 -1.14891e-06)
(0.00014568 -0.0049634 -1.26945e-06)
(0.00018654 -0.00498527 -1.6301e-06)
(0.000193986 -0.00502655 -1.68527e-06)
(0.000239908 -0.00503415 -2.09894e-06)
(0.000252475 -0.00506191 -2.20261e-06)
(0.000289839 -0.00506074 -2.52818e-06)
(0.000314001 -0.00507253 -2.74132e-06)
(0.000345014 -0.005064 -3.01055e-06)
(0.000374667 -0.00506026 -3.27072e-06)
(0.000404013 -0.00504349 -3.52578e-06)
(0.000434664 -0.0050251 -3.79418e-06)
(0.000464013 -0.00499796 -4.04985e-06)
(0.000493597 -0.00496588 -4.30829e-06)
(0.000522492 -0.00492662 -4.5603e-06)
(0.000550713 -0.00488101 -4.80668e-06)
(0.000578096 -0.00482847 -5.04561e-06)
(0.000604453 -0.00476904 -5.27566e-06)
(0.000629563 -0.00470253 -5.4948e-06)
(0.000653248 -0.0046289 -5.70152e-06)
(0.000675274 -0.00454808 -5.89376e-06)
(0.000695427 -0.00446006 -6.06966e-06)
(0.000713464 -0.00436488 -6.22709e-06)
(0.000729153 -0.00426261 -6.36404e-06)
(0.000742262 -0.0041534 -6.47849e-06)
(0.000752576 -0.00403746 -6.56853e-06)
(0.000759891 -0.00391504 -6.63239e-06)
(0.000764027 -0.00378647 -6.66852e-06)
(0.000764825 -0.00365217 -6.67552e-06)
(0.000762159 -0.00351259 -6.65229e-06)
(0.00075594 -0.00336827 -6.59805e-06)
(2.0471e-05 -0.00456373 -1.79121e-07)
(2.92414e-05 -0.00470155 -2.55832e-07)
(6.58165e-05 -0.00480116 -5.82149e-07)
(7.35798e-05 -0.00488124 -6.46395e-07)
(0.000115207 -0.00495052 -9.98599e-07)
(0.00012999 -0.00499191 -1.14365e-06)
(0.000159241 -0.00504518 -1.38939e-06)
(0.00019334 -0.00506589 -1.68509e-06)
(0.000207885 -0.00510546 -1.8086e-06)
(0.000255965 -0.00511403 -2.2314e-06)
(0.000269766 -0.00513927 -2.3589e-06)
(0.000311537 -0.00513864 -2.71677e-06)
(0.000334695 -0.00514941 -2.9209e-06)
(0.000369724 -0.00513954 -3.22719e-06)
(0.000397499 -0.00513507 -3.46873e-06)
(0.000430048 -0.00511644 -3.75402e-06)
(0.000459688 -0.00509676 -4.01181e-06)
(0.00049104 -0.00506776 -4.28602e-06)
(0.000520847 -0.00503383 -4.54583e-06)
(0.000551182 -0.00499245 -4.81076e-06)
(0.000580301 -0.00494461 -5.06479e-06)
(0.000608861 -0.00488968 -5.31409e-06)
(0.000636192 -0.0048277 -5.55261e-06)
(0.000662244 -0.00475849 -5.78e-06)
(0.00068672 -0.00468202 -5.99363e-06)
(0.000709414 -0.00459821 -6.1917e-06)
(0.000730073 -0.00450708 -6.37202e-06)
(0.000748449 -0.00440867 -6.53242e-06)
(0.000764294 -0.00430309 -6.67074e-06)
(0.000777372 -0.0041905 -6.78491e-06)
(0.000787457 -0.00407111 -6.87297e-06)
(0.000794345 -0.00394522 -6.9331e-06)
(0.000797854 -0.00381319 -6.96376e-06)
(0.000797827 -0.00367544 -6.96357e-06)
(0.000794145 -0.00353246 -6.93148e-06)
(0.000786728 -0.00338482 -6.86678e-06)
(1.66951e-05 -0.00464728 -1.45951e-07)
(3.55009e-05 -0.00478371 -3.09767e-07)
(6.12381e-05 -0.00488472 -5.33741e-07)
(8.84267e-05 -0.00496145 -7.71863e-07)
(0.000109565 -0.00503505 -9.60879e-07)
(0.000144665 -0.00507489 -1.25568e-06)
(0.000166797 -0.00512908 -1.45179e-06)
(0.000201596 -0.00515 -1.76303e-06)
(0.000227357 -0.00518812 -1.99368e-06)
(0.000260368 -0.00519724 -2.27221e-06)
(0.000287147 -0.00522071 -2.49968e-06)
(0.00032284 -0.00522015 -2.82003e-06)
(0.000350426 -0.00522958 -3.05782e-06)
(0.000386839 -0.00521904 -3.37549e-06)
(0.000416218 -0.00521324 -3.63316e-06)
(0.00045198 -0.00519324 -3.94416e-06)
(0.000483253 -0.00517194 -4.21815e-06)
(0.000517185 -0.00514112 -4.51371e-06)
(0.000548815 -0.00510518 -4.7901e-06)
(0.000580948 -0.00506164 -5.07034e-06)
(0.000611552 -0.0050114 -5.33755e-06)
(0.000641435 -0.00495389 -5.59831e-06)
(0.000669976 -0.00488915 -5.84744e-06)
(0.000697049 -0.00481704 -6.08372e-06)
(0.000722407 -0.0047375 -6.30506e-06)
(0.000745805 -0.00465049 -6.50929e-06)
(0.000766997 -0.00455603 -6.69427e-06)
(0.000785718 -0.00445418 -6.85768e-06)
(0.000801712 -0.00434506 -6.9973e-06)
(0.000814734 -0.00422886 -7.111e-06)
(0.000824554 -0.00410582 -7.19674e-06)
(0.000830963 -0.00397625 -7.2527e-06)
(0.000833779 -0.00384054 -7.27732e-06)
(0.00083285 -0.00369915 -7.26925e-06)
(0.000828062 -0.0035526 -7.22751e-06)
(0.000819345 -0.00340148 -7.15148e-06)
(1.7728e-05 -0.00473444 -1.5499e-07)
(3.91155e-05 -0.00487627 -3.42764e-07)
(6.46185e-05 -0.00497844 -5.64252e-07)
(9.06349e-05 -0.00506251 -7.92653e-07)
(0.000119935 -0.00512182 -1.04869e-06)
(0.000145989 -0.0051765 -1.27398e-06)
(0.000179513 -0.00521717 -1.56494e-06)
(0.000210656 -0.0052483 -1.83732e-06)
(0.000241279 -0.00527889 -2.1183e-06)
(0.000277287 -0.00529178 -2.4129e-06)
(0.000305192 -0.005312 -2.66236e-06)
(0.000345219 -0.00531129 -3.01407e-06)
(0.000372784 -0.00531738 -3.25199e-06)
(0.000413259 -0.00530591 -3.60735e-06)
(0.000441464 -0.00529718 -3.85221e-06)
(0.000480728 -0.00527568 -4.19611e-06)
(0.000511328 -0.00525183 -4.46244e-06)
(0.000547553 -0.00521894 -4.77908e-06)
(0.000579618 -0.00518054 -5.05868e-06)
(0.000613429 -0.00513451 -5.3539e-06)
(0.000645167 -0.0050816 -5.63083e-06)
(0.000676389 -0.00502128 -5.90335e-06)
(0.000706023 -0.00495357 -6.162e-06)
(0.000734143 -0.00487833 -6.40744e-06)
(0.000760378 -0.0047955 -6.63644e-06)
(0.000784504 -0.00470506 -6.84702e-06)
(0.000806236 -0.00460703 -7.03671e-06)
(0.0008253 -0.0045015 -7.20313e-06)
(0.000841427 -0.0043886 -7.34392e-06)
(0.000854363 -0.00426855 -7.45687e-06)
(0.000863872 -0.00414162 -7.5399e-06)
(0.000869743 -0.00400815 -7.59117e-06)
(0.000871793 -0.00386856 -7.6091e-06)
(0.000869875 -0.00372332 -7.59241e-06)
(0.000863883 -0.00357301 -7.54017e-06)
(0.00085376 -0.00341823 -7.45186e-06)
(1.79167e-05 -0.00483098 -1.56725e-07)
(4.2199e-05 -0.00496504 -3.70658e-07)
(6.87996e-05 -0.00506901 -6.02563e-07)
(9.67593e-05 -0.00514667 -8.4362e-07)
(0.000129125 -0.00521355 -1.12747e-06)
(0.000154752 -0.00526389 -1.35213e-06)
(0.000192982 -0.00530716 -1.68055e-06)
(0.000218383 -0.005338 -1.90744e-06)
(0.00025753 -0.00536604 -2.25435e-06)
(0.000288367 -0.00538062 -2.51359e-06)
(0.000322216 -0.00539676 -2.80854e-06)
(0.000361817 -0.00539906 -3.15863e-06)
(0.000392133 -0.00540224 -3.42189e-06)
(0.0004346 -0.00539272 -3.79209e-06)
(0.000464581 -0.00538163 -4.05507e-06)
(0.000506549 -0.00536025 -4.42066e-06)
(0.000539095 -0.00533427 -4.70524e-06)
(0.00057764 -0.00530004 -5.04134e-06)
(0.000611714 -0.00525926 -5.33894e-06)
(0.00064735 -0.00521094 -5.64982e-06)
(0.000680674 -0.00515525 -5.94074e-06)
(0.000713308 -0.005092 -6.22552e-06)
(0.000744249 -0.00502112 -6.49561e-06)
(0.000773483 -0.00494252 -6.75076e-06)
(0.000800671 -0.00485616 -6.98808e-06)
(0.00082555 -0.00476203 -7.20523e-06)
(0.000847835 -0.00466018 -7.39976e-06)
(0.000867235 -0.0045507 -7.56911e-06)
(0.000883472 -0.00443378 -7.71087e-06)
(0.000896283 -0.00430963 -7.82273e-06)
(0.000905427 -0.00417856 -7.90258e-06)
(0.00091069 -0.00404095 -7.94854e-06)
(0.000911891 -0.00389724 -7.95908e-06)
(0.000908889 -0.00374795 -7.93293e-06)
(0.000901587 -0.00359367 -7.86926e-06)
(0.000889941 -0.00343506 -7.76767e-06)
(1.92054e-05 -0.00492748 -1.67643e-07)
(4.39808e-05 -0.00507452 -3.83673e-07)
(6.89898e-05 -0.0051715 -6.07462e-07)
(0.000103922 -0.00526664 -9.09018e-07)
(0.000138286 -0.00531408 -1.20201e-06)
(0.000163545 -0.00538299 -1.43023e-06)
(0.000206155 -0.00540653 -1.79848e-06)
(0.000232932 -0.00545359 -2.0317e-06)
(0.000274829 -0.00546851 -2.40876e-06)
(0.000306837 -0.00549382 -2.67307e-06)
(0.000341887 -0.00549961 -2.98049e-06)
(0.000383098 -0.00550728 -3.3451e-06)
(0.000415191 -0.00550172 -3.62247e-06)
(0.000460291 -0.00549309 -4.01723e-06)
(0.000491625 -0.00547686 -4.29037e-06)
(0.000536352 -0.00545369 -4.68109e-06)
(0.000570016 -0.00542411 -4.97484e-06)
(0.000610783 -0.00538723 -5.33075e-06)
(0.000646207 -0.00534325 -5.63986e-06)
(0.00068364 -0.00529182 -5.96657e-06)
(0.00071853 -0.00523295 -6.27108e-06)
(0.000752647 -0.00516638 -6.56884e-06)
(0.000784866 -0.00509203 -6.85007e-06)
(0.000815238 -0.0050098 -7.11517e-06)
(0.000843379 -0.00491963 -7.3608e-06)
(0.000869021 -0.00482154 -7.58462e-06)
(0.000891855 -0.00471558 -7.78394e-06)
(0.000911573 -0.00460189 -7.95608e-06)
(0.000927887 -0.00448066 -8.0985e-06)
(0.000940524 -0.00435214 -8.20886e-06)
(0.000949239 -0.00421668 -8.28496e-06)
(0.000953815 -0.00407467 -8.32494e-06)
(0.000954075 -0.0039266 -8.32726e-06)
(0.000949883 -0.00377303 -8.29074e-06)
(0.000941156 -0.00361458 -8.21462e-06)
(0.000927863 -0.00345194 -8.09867e-06)
(1.20642e-05 -0.00503548 -1.0528e-07)
(5.61388e-05 -0.00517549 -4.90017e-07)
(7.00215e-05 -0.00527218 -6.03394e-07)
(0.000113848 -0.00536135 -9.89846e-07)
(0.000136101 -0.0054166 -1.19598e-06)
(0.000174824 -0.00547821 -1.52376e-06)
(0.000217855 -0.00550834 -1.90069e-06)
(0.000239699 -0.00555156 -2.09295e-06)
(0.000292029 -0.00556722 -2.55701e-06)
(0.00032143 -0.00559294 -2.80221e-06)
(0.000364551 -0.00559608 -3.17791e-06)
(0.000405627 -0.00560557 -3.54165e-06)
(0.000443629 -0.00559671 -3.87055e-06)
(0.000486865 -0.00559007 -4.24927e-06)
(0.000521924 -0.00557094 -4.55486e-06)
(0.000567594 -0.00554805 -4.95371e-06)
(0.000603497 -0.00551583 -5.2671e-06)
(0.000645954 -0.00547744 -5.63769e-06)
(0.000683427 -0.00543067 -5.96467e-06)
(0.000722432 -0.00537662 -6.3051e-06)
(0.000758797 -0.00531448 -6.6225e-06)
(0.000794344 -0.00524448 -6.93274e-06)
(0.000827899 -0.00516642 -7.22562e-06)
(0.000859447 -0.00508029 -7.50099e-06)
(0.000888577 -0.00498603 -7.75525e-06)
(0.000914992 -0.00488369 -7.98582e-06)
(0.000938364 -0.00477334 -8.18985e-06)
(0.000958376 -0.00465514 -8.36455e-06)
(0.000974724 -0.00452931 -8.50727e-06)
(0.000987128 -0.00439614 -8.6156e-06)
(0.000995338 -0.00425599 -8.6873e-06)
(0.000999137 -0.00410932 -8.7205e-06)
(0.000998352 -0.00395664 -8.71371e-06)
(0.000992855 -0.00379855 -8.6658e-06)
(0.000982576 -0.00363571 -8.57615e-06)
(0.000967503 -0.00346884 -8.44466e-06)
(1.60378e-05 -0.00514607 -1.39706e-07)
(5.43994e-05 -0.00528939 -4.74763e-07)
(7.78466e-05 -0.00539613 -6.73577e-07)
(0.000120302 -0.00548127 -1.04748e-06)
(0.000148143 -0.00553999 -1.29524e-06)
(0.000189547 -0.00559853 -1.65403e-06)
(0.000231378 -0.00562922 -2.0202e-06)
(0.000258076 -0.00567271 -2.25093e-06)
(0.000308787 -0.00568367 -2.70263e-06)
(0.00034082 -0.00571147 -2.97081e-06)
(0.000385236 -0.00570961 -3.35909e-06)
(0.000426752 -0.00571929 -3.7256e-06)
(0.000467995 -0.0057071 -4.08376e-06)
(0.000512086 -0.00569906 -4.46839e-06)
(0.00055126 -0.00567604 -4.81153e-06)
(0.000598518 -0.00565087 -5.22334e-06)
(0.000637699 -0.00561495 -5.56576e-06)
(0.000682018 -0.00557365 -5.95226e-06)
(0.00072193 -0.00552355 -6.30079e-06)
(0.000762847 -0.00546616 -6.65779e-06)
(0.000801351 -0.00540042 -6.9939e-06)
(0.000838508 -0.0053266 -7.31815e-06)
(0.00087349 -0.00524453 -7.62351e-06)
(0.000906233 -0.00515418 -7.90929e-06)
(0.000936368 -0.00505553 -8.17234e-06)
(0.000963549 -0.00494862 -8.4096e-06)
(0.000987445 -0.00483356 -8.61819e-06)
(0.00100771 -0.00471053 -8.79513e-06)
(0.00102404 -0.00457978 -8.93769e-06)
(0.00103614 -0.00444165 -9.04337e-06)
(0.00104376 -0.00429653 -9.10992e-06)
(0.00104668 -0.00414492 -9.13545e-06)
(0.00104473 -0.00398736 -9.11854e-06)
(0.0010378 -0.0038245 -9.05813e-06)
(0.00102584 -0.00365704 -8.95374e-06)
(0.00100884 -0.00348573 -8.80546e-06)
(1.35243e-05 -0.00526707 -1.17176e-07)
(6.26547e-05 -0.00540807 -5.46134e-07)
(7.665e-05 -0.00551212 -6.63438e-07)
(0.000129561 -0.00559387 -1.1293e-06)
(0.00015354 -0.00565838 -1.34456e-06)
(0.000196865 -0.00571214 -1.7171e-06)
(0.000245256 -0.00574561 -2.14116e-06)
(0.00027044 -0.00578795 -2.35867e-06)
(0.000328793 -0.00579829 -2.88125e-06)
(0.000360975 -0.00582594 -3.14315e-06)
(0.000411726 -0.00582121 -3.59239e-06)
(0.000453944 -0.00583143 -3.96348e-06)
(0.000500041 -0.00581645 -4.36235e-06)
(0.000544547 -0.00580837 -4.75308e-06)
(0.000587064 -0.00578236 -5.12301e-06)
(0.000635309 -0.00575647 -5.54517e-06)
(0.000676738 -0.00571748 -5.906e-06)
(0.000722196 -0.00567419 -6.30321e-06)
(0.000764139 -0.00562078 -6.66903e-06)
(0.000806641 -0.0055601 -7.04007e-06)
(0.000846714 -0.00549058 -7.38975e-06)
(0.000885384 -0.0054128 -7.72728e-06)
(0.000921751 -0.00532645 -8.04468e-06)
(0.000955723 -0.00523161 -8.34121e-06)
(0.000986857 -0.00512823 -8.61297e-06)
(0.0010148 -0.00501643 -8.85688e-06)
(0.00103919 -0.00489632 -9.06975e-06)
(0.00105966 -0.00476813 -9.24853e-06)
(0.00107591 -0.00463214 -9.39035e-06)
(0.00108762 -0.00448871 -9.49266e-06)
(0.00109455 -0.00433831 -9.55317e-06)
(0.00109647 -0.00418145 -9.57004e-06)
(0.00109324 -0.00401873 -9.54187e-06)
(0.00108474 -0.00385084 -9.46775e-06)