/*--------------------------------*- C++ -*----------------------------------*\
| =========                 |                                                 |
| \\      /  F ield         | OpenFOAM: The Open Source CFD Toolbox           |
|  \\    /   O peration     | Version:  v2012                                 |
|   \\  /    A nd           | Website:  www.openfoam.com                      |
|    \\/     M anipulation  |                                                 |
\*---------------------------------------------------------------------------*/
FoamFile
{
    version     2.0;
    format      ascii;
    class       volVectorField;
    location    "0.95";
    object      U;
}
// * * * * * * * * * * * * * * * * * * * * * * * * * * * * * * * * * * * * * //

dimensions      [0 1 -1 0 0 0 0];


internalField   nonuniform List<vector> 
2642
(
(0.000399408 -0.00213098 -3.48615e-06)
(0.000394779 -0.00201902 -3.44582e-06)
(0.000388269 -0.00190706 -3.38906e-06)
(0.000380011 -0.00179503 -3.31702e-06)
(0.000370059 -0.00168237 -3.23015e-06)
(0.000358345 -0.0015686 -3.12787e-06)
(0.000344723 -0.0014541 -3.00895e-06)
(0.000329123 -0.00134049 -2.87282e-06)
(0.000311702 -0.00123006 -2.72087e-06)
(0.000292844 -0.00112444 -2.55641e-06)
(0.000272971 -0.00102351 -2.383e-06)
(0.000252265 -0.000925846 -2.20225e-06)
(0.000230693 -0.000830659 -2.0139e-06)
(0.000208313 -0.0007388 -1.81854e-06)
(0.000185389 -0.000651403 -1.61847e-06)
(0.000162241 -0.000569046 -1.41645e-06)
(0.000139147 -0.000491801 -1.21488e-06)
(0.000116352 -0.00041949 -1.0159e-06)
(9.41098e-05 -0.000351826 -8.21741e-07)
(7.27028e-05 -0.00028834 -6.34866e-07)
(5.24639e-05 -0.000228202 -4.58177e-07)
(3.37497e-05 -0.0001699 -2.94789e-07)
(1.72272e-05 -0.000110832 -1.50578e-07)
(3.16749e-06 -4.46316e-05 -2.97786e-08)
(0.000402177 -0.00214183 -3.5102e-06)
(0.000396943 -0.0020278 -3.46461e-06)
(0.000389945 -0.00191361 -3.40361e-06)
(0.000381529 -0.00179936 -3.33019e-06)
(0.000371766 -0.0016848 -3.24494e-06)
(0.000360367 -0.0015697 -3.14537e-06)
(0.000346843 -0.00145448 -3.02728e-06)
(0.000330891 -0.00134041 -2.8881e-06)
(0.000312753 -0.00122931 -2.72995e-06)
(0.000293198 -0.00112249 -2.55945e-06)
(0.000273022 -0.00102006 -2.38343e-06)
(0.000252419 -0.000921144 -2.20356e-06)
(0.000231021 -0.000825258 -2.01671e-06)
(0.000208653 -0.000733091 -1.82146e-06)
(0.000185616 -0.00064553 -1.62041e-06)
(0.000162334 -0.000563058 -1.41724e-06)
(0.000139138 -0.000485759 -1.21479e-06)
(0.000116272 -0.000413492 -1.01521e-06)
(9.39722e-05 -0.000345984 -8.20562e-07)
(7.2511e-05 -0.000282767 -6.33229e-07)
(5.22171e-05 -0.000223008 -4.56077e-07)
(3.34386e-05 -0.000165221 -2.92149e-07)
(1.6856e-05 -0.000106811 -1.47488e-07)
(2.7912e-06 -4.20001e-05 -2.75311e-08)
(0.000406869 -0.00215088 -3.55117e-06)
(0.000400987 -0.00203523 -3.49993e-06)
(0.000393408 -0.00191922 -3.43388e-06)
(0.000384693 -0.00180311 -3.35784e-06)
(0.000374954 -0.00168691 -3.27279e-06)
(0.000363726 -0.00157066 -3.17469e-06)
(0.000350191 -0.00145477 -3.05648e-06)
(0.00033379 -0.00134025 -2.91337e-06)
(0.000314807 -0.00122844 -2.74786e-06)
(0.000294382 -0.00112043 -2.5698e-06)
(0.000273727 -0.00101651 -2.38962e-06)
(0.000253095 -0.000916343 -2.20947e-06)
(0.000231781 -0.000819728 -2.02333e-06)
(0.000209337 -0.000727191 -1.8274e-06)
(0.000186085 -0.000639392 -1.62449e-06)
(0.000162567 -0.00055673 -1.41926e-06)
(0.000139176 -0.000479313 -1.21512e-06)
(0.00011616 -0.000407038 -1.01423e-06)
(9.37353e-05 -0.000339648 -8.18496e-07)
(7.21593e-05 -0.000276675 -6.30164e-07)
(5.17555e-05 -0.000217285 -4.52059e-07)
(3.28723e-05 -0.000160026 -2.87223e-07)
(1.62173e-05 -0.000102327 -1.41951e-07)
(2.42619e-06 -3.9145e-05 -2.44863e-08)
(0.000413364 -0.00215961 -3.60786e-06)
(0.000406857 -0.00204232 -3.55118e-06)
(0.000398677 -0.00192446 -3.47989e-06)
(0.000389503 -0.00180645 -3.39986e-06)
(0.000379483 -0.0016886 -3.31235e-06)
(0.000368064 -0.00157127 -3.21255e-06)
(0.000354262 -0.00145492 -3.09198e-06)
(0.000337377 -0.0013402 -2.94465e-06)
(0.000317698 -0.0012279 -2.7731e-06)
(0.000296545 -0.00111875 -2.58871e-06)
(0.000275354 -0.00101331 -2.40387e-06)
(0.000254444 -0.000911836 -2.22128e-06)
(0.000232955 -0.000814507 -2.03358e-06)
(0.00021028 -0.000721668 -1.83563e-06)
(0.000186738 -0.000633699 -1.63019e-06)
(0.000162928 -0.000550891 -1.42242e-06)
(0.00013928 -0.000473374 -1.21604e-06)
(0.000116048 -0.000401094 -1.01326e-06)
(9.34383e-05 -0.000333814 -8.15906e-07)
(7.16986e-05 -0.000271068 -6.26144e-07)
(5.11497e-05 -0.000212021 -4.46771e-07)
(3.21544e-05 -0.000155253 -2.80954e-07)
(1.54641e-05 -9.82615e-05 -1.35365e-07)
(2.1186e-06 -3.66979e-05 -2.15509e-08)
(0.000421581 -0.0021684 -3.67958e-06)
(0.000414487 -0.00204944 -3.61778e-06)
(0.000405701 -0.00192968 -3.5412e-06)
(0.000395925 -0.00180968 -3.45592e-06)
(0.000385309 -0.00169011 -3.36321e-06)
(0.000373311 -0.00157166 -3.25837e-06)
(0.000358961 -0.00145486 -3.13302e-06)
(0.000341555 -0.00134 -2.98113e-06)
(0.000321359 -0.00122728 -2.80505e-06)
(0.000299662 -0.00111705 -2.61592e-06)
(0.000277908 -0.00101007 -2.42616e-06)
(0.000256468 -0.000907252 -2.23895e-06)
(0.000234524 -0.000809193 -2.04729e-06)
(0.000211457 -0.000716066 -1.84592e-06)
(0.000187556 -0.00062796 -1.63734e-06)
(0.000163409 -0.000545037 -1.42663e-06)
(0.000139454 -0.000467445 -1.21756e-06)
(0.000115949 -0.000395175 -1.0124e-06)
(9.31027e-05 -0.000328019 -8.12981e-07)
(7.11613e-05 -0.000265511 -6.21458e-07)
(5.0447e-05 -0.000206817 -4.4064e-07)
(3.13506e-05 -0.000150561 -2.73936e-07)
(1.46779e-05 -9.43453e-05 -1.28488e-07)
(1.84233e-06 -3.4467e-05 -1.88907e-08)
(0.000431429 -0.00217711 -3.76554e-06)
(0.000423787 -0.00205646 -3.69895e-06)
(0.000414401 -0.00193481 -3.61712e-06)
(0.000403892 -0.00181284 -3.52545e-06)
(0.000392386 -0.00169153 -3.42499e-06)
(0.000379437 -0.00157189 -3.31188e-06)
(0.000364259 -0.00145453 -3.17931e-06)
(0.000346284 -0.00133943 -3.02245e-06)
(0.000325734 -0.00122628 -2.84324e-06)
(0.000303677 -0.00111504 -2.65093e-06)
(0.000281347 -0.00100662 -2.45614e-06)
(0.000259146 -0.000902523 -2.26232e-06)
(0.000236481 -0.000803732 -2.06439e-06)
(0.000212862 -0.000710303 -1.8582e-06)
(0.000188534 -0.000622056 -1.64588e-06)
(0.000164011 -0.000539033 -1.43188e-06)
(0.000139702 -0.000461383 -1.21973e-06)
(0.000115874 -0.000389141 -1.01175e-06)
(9.27477e-05 -0.00032212 -8.09887e-07)
(7.05751e-05 -0.000259864 -6.16345e-07)
(4.96848e-05 -0.000201544 -4.3399e-07)
(3.05061e-05 -0.000145834 -2.66564e-07)
(1.39019e-05 -9.0481e-05 -1.21701e-07)
(1.59449e-06 -3.23689e-05 -1.65185e-08)
(0.000442827 -0.00218567 -3.86504e-06)
(0.000434656 -0.0020633 -3.79381e-06)
(0.000424664 -0.0019398 -3.70668e-06)
(0.00041331 -0.00181596 -3.60763e-06)
(0.000400664 -0.00169295 -3.49724e-06)
(0.000386442 -0.00157203 -3.37307e-06)
(0.000370181 -0.00145389 -3.2311e-06)
(0.000351568 -0.00133831 -3.06865e-06)
(0.000330772 -0.00122461 -2.88724e-06)
(0.000308493 -0.00111246 -2.69292e-06)
(0.00028558 -0.00100284 -2.49301e-06)
(0.000262431 -0.000897636 -2.29096e-06)
(0.000238816 -0.000798161 -2.08479e-06)
(0.000214498 -0.0007044 -1.87251e-06)
(0.000189672 -0.000615991 -1.65584e-06)
(0.000164731 -0.000532871 -1.43818e-06)
(0.000140029 -0.000455184 -1.22258e-06)
(0.000115835 -0.000382991 -1.01141e-06)
(9.23913e-05 -0.000316124 -8.06781e-07)
(6.9965e-05 -0.000254135 -6.11024e-07)
(4.8895e-05 -0.000196211 -4.271e-07)
(2.96553e-05 -0.000141089 -2.59138e-07)
(1.31624e-05 -8.66801e-05 -1.15234e-07)
(1.37767e-06 -3.03963e-05 -1.44372e-08)
(0.000455704 -0.00219401 -3.97745e-06)
(0.000446983 -0.00206989 -3.90139e-06)
(0.000436352 -0.00194465 -3.80866e-06)
(0.000424055 -0.00181907 -3.70138e-06)
(0.000410087 -0.00169445 -3.57949e-06)
(0.00039436 -0.00157214 -3.44224e-06)
(0.000376814 -0.0014529 -3.2891e-06)
(0.000357463 -0.00133648 -3.12022e-06)
(0.000336436 -0.00122202 -2.93672e-06)
(0.000313985 -0.00110907 -2.7408e-06)
(0.000290466 -0.000998576 -2.53557e-06)
(0.000266238 -0.000892551 -2.32414e-06)
(0.000241507 -0.000792485 -2.10829e-06)
(0.000216369 -0.000698366 -1.88888e-06)
(0.000190976 -0.000609758 -1.66724e-06)
(0.000165571 -0.000526542 -1.44551e-06)
(0.000140434 -0.000448842 -1.22612e-06)
(0.000115838 -0.000376726 -1.01144e-06)
(9.20483e-05 -0.000310035 -8.03792e-07)
(6.93523e-05 -0.000248335 -6.05682e-07)
(4.81038e-05 -0.000190836 -4.20197e-07)
(2.88239e-05 -0.000136345 -2.5188e-07)
(1.2475e-05 -8.29571e-05 -1.09222e-07)
(1.19135e-06 -2.85453e-05 -1.26389e-08)
(0.000469992 -0.0022021 -4.10218e-06)
(0.000460646 -0.00207622 -4.02064e-06)
(0.000449303 -0.00194934 -3.92166e-06)
(0.000435986 -0.00182221 -3.80547e-06)
(0.0004206 -0.00169607 -3.67124e-06)
(0.000403249 -0.00157225 -3.51988e-06)
(0.000384284 -0.00145155 -3.35442e-06)
(0.000364066 -0.00133384 -3.17796e-06)
(0.000342702 -0.00121837 -2.99145e-06)
(0.000320007 -0.00110472 -2.79331e-06)
(0.00029583 -0.000993715 -2.58229e-06)
(0.000270458 -0.000887216 -2.36092e-06)
(0.000244524 -0.000786687 -2.13463e-06)
(0.00021848 -0.000692191 -1.90734e-06)
(0.00019245 -0.000603345 -1.68014e-06)
(0.000166528 -0.000520028 -1.45388e-06)
(0.000140917 -0.000442342 -1.23034e-06)
(0.000115888 -0.000370334 -1.01188e-06)
(9.173e-05 -0.000303849 -8.01018e-07)
(6.87542e-05 -0.000242464 -6.00465e-07)
(4.73312e-05 -0.000185423 -4.13456e-07)
(2.80298e-05 -0.000131612 -2.44948e-07)
(1.18475e-05 -7.93145e-05 -1.03733e-07)
(1.03295e-06 -2.68052e-05 -1.11028e-08)
(0.00048563 -0.00220995 -4.23868e-06)
(0.000475525 -0.00208228 -4.15051e-06)
(0.000463356 -0.00195386 -4.0443e-06)
(0.000448958 -0.00182534 -3.91866e-06)
(0.000432146 -0.00169778 -3.77201e-06)
(0.000413172 -0.00157234 -3.60654e-06)
(0.000392728 -0.00144985 -3.42822e-06)
(0.000371483 -0.00133042 -3.2428e-06)
(0.000349556 -0.00121368 -3.05132e-06)
(0.000326417 -0.00109939 -2.84923e-06)
(0.000301489 -0.000988214 -2.63162e-06)
(0.000274968 -0.000881581 -2.40024e-06)
(0.00024783 -0.000780731 -2.16349e-06)
(0.000220836 -0.000685854 -1.92793e-06)
(0.000194102 -0.000596739 -1.69458e-06)
(0.000167604 -0.00051332 -1.46328e-06)
(0.000141477 -0.000435672 -1.23523e-06)
(0.000115987 -0.000363807 -1.01275e-06)
(9.14448e-05 -0.000297558 -7.98533e-07)
(6.81837e-05 -0.00023652 -5.9549e-07)
(4.65924e-05 -0.000179975 -4.0701e-07)
(2.72846e-05 -0.000126895 -2.38442e-07)
(1.12825e-05 -7.57504e-05 -9.8791e-08)
(8.99329e-07 -2.51635e-05 -9.80181e-09)
(0.000502557 -0.00221759 -4.38645e-06)
(0.000491514 -0.00208809 -4.29007e-06)
(0.00047837 -0.00195817 -4.17534e-06)
(0.000462842 -0.00182838 -4.03983e-06)
(0.000444667 -0.00169945 -3.8813e-06)
(0.000424169 -0.00157233 -3.70256e-06)
(0.000402252 -0.0014478 -3.51141e-06)
(0.000379804 -0.00132635 -3.3155e-06)
(0.000356992 -0.00120813 -3.11626e-06)
(0.000333099 -0.00109323 -2.90754e-06)
(0.000307285 -0.000982112 -2.68217e-06)
(0.000279657 -0.000875608 -2.44115e-06)
(0.000251383 -0.000774562 -2.19451e-06)
(0.000223431 -0.000679319 -1.95061e-06)
(0.000195931 -0.000589925 -1.71057e-06)
(0.000168794 -0.000506411 -1.47368e-06)
(0.000142108 -0.000428827 -1.24075e-06)
(0.000116135 -0.000357138 -1.01404e-06)
(9.11983e-05 -0.000291161 -7.96387e-07)
(6.76503e-05 -0.000230503 -5.90838e-07)
(4.58977e-05 -0.000174494 -4.00948e-07)
(2.65952e-05 -0.000122195 -2.32424e-07)
(1.07791e-05 -7.22617e-05 -9.43874e-08)
(7.87368e-07 -2.3609e-05 -8.70742e-09)
(0.000520725 -0.00222508 -4.54503e-06)
(0.000508534 -0.00209367 -4.43864e-06)
(0.000494241 -0.00196223 -4.31388e-06)
(0.000477537 -0.00183117 -4.1681e-06)
(0.000458101 -0.00170091 -3.99856e-06)
(0.000436235 -0.00157208 -3.80788e-06)
(0.000412898 -0.00144544 -3.60434e-06)
(0.00038907 -0.00132183 -3.39641e-06)
(0.000364999 -0.00120202 -3.18619e-06)
(0.000339979 -0.0010865 -2.96762e-06)
(0.000313112 -0.000975521 -2.73304e-06)
(0.000284441 -0.000869273 -2.48291e-06)
(0.000255144 -0.000768117 -2.22735e-06)
(0.000226254 -0.000672544 -1.97526e-06)
(0.000197935 -0.000582886 -1.72807e-06)
(0.000170094 -0.000499296 -1.48504e-06)
(0.000142808 -0.000421804 -1.24687e-06)
(0.000116332 -0.000350325 -1.01577e-06)
(9.09939e-05 -0.000284653 -7.94608e-07)
(6.71603e-05 -0.000224413 -5.86565e-07)
(4.52538e-05 -0.000168984 -3.95329e-07)
(2.5965e-05 -0.000117517 -2.26921e-07)
(1.03344e-05 -6.88441e-05 -9.04972e-08)
(6.941e-07 -2.21308e-05 -7.79212e-09)
(0.000540088 -0.00223246 -4.71405e-06)
(0.000526537 -0.00209904 -4.59581e-06)
(0.000510913 -0.00196597 -4.45943e-06)
(0.000492975 -0.00183356 -4.30288e-06)
(0.000472374 -0.00170195 -4.12315e-06)
(0.000449306 -0.00157145 -3.92195e-06)
(0.000424617 -0.00144279 -3.7066e-06)
(0.000399254 -0.00131711 -3.48527e-06)
(0.000373561 -0.00119573 -3.26094e-06)
(0.000347033 -0.00107951 -3.02925e-06)
(0.000318933 -0.000968592 -2.78392e-06)
(0.000289278 -0.000862568 -2.52517e-06)
(0.000259078 -0.000761333 -2.2617e-06)
(0.000229281 -0.000665482 -2.00168e-06)
(0.000200097 -0.000575606 -1.74695e-06)
(0.000171496 -0.000491974 -1.49729e-06)
(0.000143571 -0.000414603 -1.25354e-06)
(0.000116575 -0.000343365 -1.01791e-06)
(9.08331e-05 -0.000278034 -7.93211e-07)
(6.67172e-05 -0.000218252 -5.82701e-07)
(4.4664e-05 -0.000163447 -3.90183e-07)
(2.53944e-05 -0.000112861 -2.21939e-07)
(9.9443e-06 -6.54927e-05 -8.70842e-08)
(6.16804e-07 -2.07192e-05 -7.03049e-09)
(0.000560607 -0.00223975 -4.89316e-06)
(0.000545507 -0.00210419 -4.76142e-06)
(0.000528376 -0.00196932 -4.6119e-06)
(0.000509126 -0.00183539 -4.4439e-06)
(0.00048741 -0.00170235 -4.2544e-06)
(0.00046326 -0.00157029 -4.04371e-06)
(0.000437275 -0.00143986 -3.81702e-06)
(0.000410256 -0.00131238 -3.58125e-06)
(0.000382648 -0.00118955 -3.34026e-06)
(0.000354288 -0.00107256 -3.09265e-06)
(0.000324783 -0.000961472 -2.83508e-06)
(0.000294172 -0.000855492 -2.56795e-06)
(0.000263161 -0.000754152 -2.29735e-06)
(0.000232482 -0.00065809 -2.02962e-06)
(0.000202398 -0.000568066 -1.76703e-06)
(0.000172987 -0.00048444 -1.51031e-06)
(0.000144392 -0.000407224 -1.26072e-06)
(0.000116864 -0.000336258 -1.02043e-06)
(9.07156e-05 -0.000271303 -7.92192e-07)
(6.63219e-05 -0.000212019 -5.79255e-07)
(4.41291e-05 -0.000157884 -3.85515e-07)
(2.48818e-05 -0.000108228 -2.17464e-07)
(9.60396e-06 -6.22023e-05 -8.41065e-08)
(5.53043e-07 -1.93654e-05 -6.39956e-09)
(0.000582246 -0.00224697 -5.08203e-06)
(0.000565449 -0.00210915 -4.93551e-06)
(0.000546656 -0.00197225 -4.77152e-06)
(0.000525987 -0.00183656 -4.59113e-06)
(0.00050313 -0.00170198 -4.39163e-06)
(0.000477931 -0.00156848 -4.17173e-06)
(0.000450669 -0.00143661 -3.93385e-06)
(0.000421918 -0.00130773 -3.68298e-06)
(0.000392212 -0.00118369 -3.42374e-06)
(0.000361804 -0.00106584 -3.15833e-06)
(0.000330752 -0.000954265 -2.8873e-06)
(0.000299164 -0.00084805 -2.6116e-06)
(0.000267374 -0.000746537 -2.33414e-06)
(0.000235819 -0.000650333 -2.05873e-06)
(0.000204807 -0.000560253 -1.78806e-06)
(0.000174552 -0.000476691 -1.52399e-06)
(0.000145264 -0.000399666 -1.26834e-06)
(0.000117194 -0.000329004 -1.02332e-06)
(9.06395e-05 -0.000264461 -7.91534e-07)
(6.59734e-05 -0.000205718 -5.76216e-07)
(4.36476e-05 -0.000152298 -3.81313e-07)
(2.44241e-05 -0.000103616 -2.13467e-07)
(9.30835e-06 -5.89673e-05 -8.152e-08)
(5.00676e-07 -1.80614e-05 -5.87909e-09)
(0.000604965 -0.00225411 -5.28034e-06)
(0.000586377 -0.00211389 -5.1182e-06)
(0.000565799 -0.00197474 -4.93867e-06)
(0.000543577 -0.00183703 -4.74472e-06)
(0.000519463 -0.00170077 -4.53422e-06)
(0.000493139 -0.00156592 -4.30445e-06)
(0.000464561 -0.00143297 -4.05503e-06)
(0.000434048 -0.00130314 -3.78878e-06)
(0.000402192 -0.00117816 -3.51083e-06)
(0.00036965 -0.00105938 -3.2269e-06)
(0.000336955 -0.000946999 -2.94156e-06)
(0.000304315 -0.000840241 -2.65664e-06)
(0.000271706 -0.000738469 -2.37197e-06)
(0.000239251 -0.000642194 -2.08868e-06)
(0.000207291 -0.000552152 -1.80974e-06)
(0.000176174 -0.000468723 -1.53815e-06)
(0.000146178 -0.000391928 -1.27633e-06)
(0.00011756 -0.000321603 -1.02653e-06)
(9.06013e-05 -0.00025751 -7.91208e-07)
(6.56687e-05 -0.000199349 -5.7356e-07)
(4.32165e-05 -0.00014669 -3.77552e-07)
(2.40173e-05 -9.90258e-05 -2.09914e-07)
(9.0524e-06 -5.57824e-05 -7.92804e-08)
(4.57848e-07 -1.68001e-05 -5.45139e-09)
(0.000628724 -0.00226113 -5.48772e-06)
(0.000608299 -0.0021184 -5.30958e-06)
(0.00058585 -0.00197679 -5.11373e-06)
(0.000561919 -0.00183683 -4.90487e-06)
(0.000536351 -0.00169873 -4.68166e-06)
(0.00050872 -0.00156259 -4.44043e-06)
(0.000478722 -0.00142885 -4.17858e-06)
(0.00044645 -0.00129845 -3.89697e-06)
(0.000412511 -0.0011728 -3.6009e-06)
(0.000377884 -0.00105306 -3.29883e-06)
(0.000343499 -0.000939622 -2.99878e-06)
(0.000309685 -0.000832058 -2.70358e-06)
(0.000276145 -0.000729952 -2.41074e-06)
(0.000242738 -0.000633668 -2.11912e-06)
(0.000209816 -0.000543758 -1.83178e-06)
(0.000177832 -0.000460528 -1.55263e-06)
(0.000147125 -0.000384008 -1.28461e-06)
(0.000117956 -0.000314056 -1.03e-06)
(9.05963e-05 -0.000250452 -7.91171e-07)
(6.54034e-05 -0.000192916 -5.71248e-07)
(4.28314e-05 -0.000141062 -3.74191e-07)
(2.36564e-05 -9.44552e-05 -2.06763e-07)
(8.83119e-06 -5.26426e-05 -7.73448e-08)
(4.22963e-07 -1.55755e-05 -5.1012e-09)
(0.000653475 -0.00226797 -5.70376e-06)
(0.000631208 -0.00212263 -5.50955e-06)
(0.000606831 -0.00197841 -5.29689e-06)
(0.00058103 -0.00183602 -5.07173e-06)
(0.000553751 -0.00169594 -4.83357e-06)
(0.000524546 -0.00155851 -4.57858e-06)
(0.000492969 -0.00142413 -4.30292e-06)
(0.000458955 -0.00129342 -4.00609e-06)
(0.000423089 -0.00116731 -3.69322e-06)
(0.000386527 -0.00104665 -3.37429e-06)
(0.000350454 -0.000932013 -3.05954e-06)
(0.000315315 -0.000823488 -2.75277e-06)
(0.000280679 -0.000721005 -2.45034e-06)
(0.000246243 -0.000624766 -2.14972e-06)
(0.000212349 -0.000535066 -1.85389e-06)
(0.000179506 -0.0004521 -1.56725e-06)
(0.000148092 -0.000375903 -1.29306e-06)
(0.000118376 -0.000306363 -1.03367e-06)
(9.06182e-05 -0.000243289 -7.91368e-07)
(6.51721e-05 -0.000186421 -5.69232e-07)
(4.24871e-05 -0.000135414 -3.71186e-07)
(2.33362e-05 -8.99034e-05 -2.03967e-07)
(8.64002e-06 -4.95432e-05 -7.56721e-08)
(3.94662e-07 -1.43822e-05 -4.81542e-09)
(0.000679164 -0.00227455 -5.92799e-06)
(0.00065507 -0.00212654 -5.71784e-06)
(0.000628733 -0.00197963 -5.48808e-06)
(0.000600907 -0.00183469 -5.24525e-06)
(0.000571637 -0.00169252 -4.98973e-06)
(0.000540546 -0.00155373 -4.71828e-06)
(0.000507188 -0.00141871 -4.42707e-06)
(0.000471444 -0.00128778 -4.11512e-06)
(0.000433844 -0.00116131 -3.7871e-06)
(0.000395552 -0.00103982 -3.45307e-06)
(0.000357828 -0.000924007 -3.12391e-06)
(0.000321208 -0.000814509 -2.80423e-06)
(0.000285289 -0.000711658 -2.4906e-06)
(0.000249736 -0.000615507 -2.18022e-06)
(0.000214861 -0.000526076 -1.87583e-06)
(0.000181175 -0.000443432 -1.58183e-06)
(0.000149066 -0.000367607 -1.30157e-06)
(0.000118808 -0.000298527 -1.03745e-06)
(9.06593e-05 -0.000236025 -7.91732e-07)
(6.49681e-05 -0.000179869 -5.67455e-07)
(4.21774e-05 -0.00012975 -3.68484e-07)
(2.30513e-05 -8.53694e-05 -2.01479e-07)
(8.4745e-06 -4.64801e-05 -7.42237e-08)
(3.71787e-07 -1.32156e-05 -4.58283e-09)
(0.000705737 -0.00228079 -6.15994e-06)
(0.000679825 -0.00213005 -5.93391e-06)
(0.000651505 -0.00198044 -5.68684e-06)
(0.000621518 -0.00183294 -5.42516e-06)
(0.000589993 -0.00168862 -5.14998e-06)
(0.000556705 -0.00154833 -4.85938e-06)
(0.00052135 -0.00141253 -4.55075e-06)
(0.000483861 -0.00128126 -4.22356e-06)
(0.000444701 -0.00115444 -3.88188e-06)
(0.000404884 -0.00103225 -3.53451e-06)
(0.000365563 -0.000915431 -3.1914e-06)
(0.000327326 -0.000805098 -2.85762e-06)
(0.000289949 -0.000701944 -2.53129e-06)
(0.000253191 -0.000605914 -2.21041e-06)
(0.000217329 -0.00051679 -1.8974e-06)
(0.000182819 -0.000434518 -1.59619e-06)
(0.000150032 -0.000359118 -1.31001e-06)
(0.000119242 -0.000290546 -1.04124e-06)
(9.07106e-05 -0.000228665 -7.92185e-07)
(6.47842e-05 -0.000173262 -5.65852e-07)
(4.1896e-05 -0.000124072 -3.66029e-07)
(2.2796e-05 -8.08524e-05 -1.9925e-07)
(8.33051e-06 -4.34495e-05 -7.29637e-08)
(3.53355e-07 -1.20719e-05 -4.3939e-09)
(0.000733137 -0.0022866 -6.39911e-06)
(0.000705391 -0.00213311 -6.15706e-06)
(0.00067506 -0.00198083 -5.89242e-06)
(0.0006428 -0.00183083 -5.61091e-06)
(0.000608805 -0.00168432 -5.31422e-06)
(0.000573054 -0.00154239 -5.00216e-06)
(0.000535494 -0.00140555 -4.6743e-06)
(0.00049621 -0.0012737 -4.33143e-06)
(0.000455597 -0.00114644 -3.97702e-06)
(0.000414407 -0.00102367 -3.6176e-06)
(0.00037354 -0.000906139 -3.26097e-06)
(0.000333591 -0.000795228 -2.91229e-06)
(0.000294621 -0.000691887 -2.57209e-06)
(0.000256591 -0.000596008 -2.24012e-06)
(0.000219736 -0.000507214 -1.91843e-06)
(0.000184421 -0.000425354 -1.61018e-06)
(0.000150972 -0.000350434 -1.31822e-06)
(0.000119663 -0.000282425 -1.04493e-06)
(9.07619e-05 -0.000221211 -7.92638e-07)
(6.46121e-05 -0.000166606 -5.64353e-07)
(4.16361e-05 -0.000118381 -3.63762e-07)
(2.25649e-05 -7.6352e-05 -1.97232e-07)
(8.20426e-06 -4.04486e-05 -7.18588e-08)
(3.38537e-07 -1.09477e-05 -4.2405e-09)
(0.000761314 -0.00229192 -6.64508e-06)
(0.000731673 -0.00213563 -6.38646e-06)
(0.000699279 -0.00198075 -6.10381e-06)
(0.000664663 -0.00182835 -5.80174e-06)
(0.000628055 -0.00167969 -5.48225e-06)
(0.00058965 -0.00153596 -5.14709e-06)
(0.000549712 -0.00139777 -4.79851e-06)
(0.000508539 -0.001265 -4.43915e-06)
(0.000466484 -0.00113715 -4.07209e-06)
(0.000423985 -0.00101393 -3.70117e-06)
(0.0003816 -0.000896038 -3.33126e-06)
(0.000339897 -0.000784877 -2.96729e-06)
(0.000299263 -0.000681498 -2.61262e-06)
(0.000259918 -0.000585801 -2.2692e-06)
(0.000222067 -0.00049735 -1.9388e-06)
(0.000185961 -0.000415942 -1.62364e-06)
(0.000151869 -0.000341555 -1.32606e-06)
(0.000120059 -0.000274165 -1.04838e-06)
(9.08022e-05 -0.000213669 -7.92994e-07)
(6.44435e-05 -0.000159904 -5.62884e-07)
(4.13909e-05 -0.00011268 -3.61622e-07)
(2.23525e-05 -7.18681e-05 -1.95377e-07)
(8.09223e-06 -3.74749e-05 -7.08786e-08)
(3.26629e-07 -9.84053e-06 -4.11572e-09)
(0.000790223 -0.00229669 -6.89743e-06)
(0.000758573 -0.00213755 -6.62126e-06)
(0.000724035 -0.00198014 -6.31987e-06)
(0.000687 -0.00182545 -5.99669e-06)
(0.000647707 -0.0016747 -5.6538e-06)
(0.00060655 -0.00152906 -5.29466e-06)
(0.000564107 -0.00138923 -4.92426e-06)
(0.00052092 -0.00125521 -4.54731e-06)
(0.000477329 -0.00112657 -4.16679e-06)
(0.000433476 -0.00100303 -3.78399e-06)
(0.000389573 -0.000885104 -3.40079e-06)
(0.000346125 -0.000774029 -3.02162e-06)
(0.000303825 -0.000670775 -2.65246e-06)
(0.000263159 -0.000575296 -2.29751e-06)
(0.000224309 -0.000487203 -1.9584e-06)
(0.000187422 -0.000406282 -1.63641e-06)
(0.000152704 -0.000332485 -1.33335e-06)
(0.000120411 -0.000265772 -1.05147e-06)
(9.08198e-05 -0.000206044 -7.9315e-07)
(6.42693e-05 -0.000153162 -5.61366e-07)
(4.11533e-05 -0.000106972 -3.59549e-07)
(2.21535e-05 -6.74011e-05 -1.9364e-07)
(7.99122e-06 -3.45267e-05 -6.99945e-08)
(3.17038e-07 -8.74825e-06 -4.0137e-09)
(0.00081982 -0.00230086 -7.1558e-06)
(0.000785997 -0.00213879 -6.86064e-06)
(0.0007492 -0.00197889 -6.53952e-06)
(0.000709694 -0.00182202 -6.19477e-06)
(0.000667708 -0.00166926 -5.82839e-06)
(0.000623786 -0.00152167 -5.44515e-06)
(0.000578766 -0.00137999 -5.05229e-06)
(0.000533418 -0.00124445 -4.65649e-06)
(0.000488106 -0.00111486 -4.26092e-06)
(0.000442759 -0.000991057 -3.86501e-06)
(0.000397299 -0.000873374 -3.4682e-06)
(0.000352161 -0.000762675 -3.07429e-06)
(0.000308258 -0.000659697 -2.69117e-06)
(0.000266294 -0.000564486 -2.32491e-06)
(0.000226449 -0.000476775 -1.9771e-06)
(0.000188786 -0.000396382 -1.64833e-06)
(0.000153458 -0.00032323 -1.33995e-06)
(0.000120706 -0.000257251 -1.05404e-06)
(9.08022e-05 -0.000198342 -7.93e-07)
(6.40804e-05 -0.000146383 -5.5972e-07)
(4.09162e-05 -0.000101261 -3.57479e-07)
(2.19627e-05 -6.2952e-05 -1.91974e-07)
(7.89823e-06 -3.16029e-05 -6.91808e-08)
(3.09261e-07 -7.66931e-06 -3.92945e-09)
(0.000850068 -0.00230437 -7.41985e-06)
(0.000813868 -0.00213929 -7.10394e-06)
(0.000774662 -0.00197689 -6.76178e-06)
(0.000732632 -0.00181791 -6.39498e-06)
(0.000687984 -0.00166322 -6.00538e-06)
(0.000641347 -0.00151369 -5.59846e-06)
(0.00059373 -0.00137009 -5.18295e-06)
(0.000546071 -0.00123288 -4.76699e-06)
(0.000498799 -0.00110225 -4.3543e-06)
(0.000451743 -0.000978217 -3.94345e-06)
(0.00040466 -0.000860939 -3.53245e-06)
(0.00035791 -0.000750811 -3.12447e-06)
(0.000312514 -0.000648238 -2.72833e-06)
(0.000269302 -0.000553354 -2.35118e-06)
(0.000228469 -0.000466066 -1.99475e-06)
(0.000190035 -0.000386249 -1.65924e-06)
(0.000154114 -0.000313799 -1.34568e-06)
(0.000120927 -0.000248609 -1.05598e-06)
(9.07372e-05 -0.000190568 -7.92436e-07)
(6.38674e-05 -0.000139574 -5.57862e-07)
(4.06724e-05 -9.5549e-05 -3.55352e-07)
(2.17751e-05 -5.85222e-05 -1.90335e-07)
(7.81053e-06 -2.8703e-05 -6.84131e-08)
(3.02872e-07 -6.60266e-06 -3.85869e-09)
(0.00088093 -0.00230721 -7.68926e-06)
(0.00084213 -0.00213899 -7.35065e-06)
(0.000800339 -0.00197403 -6.98592e-06)
(0.000755711 -0.00181295 -6.59644e-06)
(0.00070844 -0.00165639 -6.18394e-06)
(0.00065917 -0.00150502 -5.75404e-06)
(0.000608971 -0.00135955 -5.316e-06)
(0.000558872 -0.0012207 -4.87875e-06)
(0.000509384 -0.00108901 -4.44673e-06)
(0.000460377 -0.000964742 -4.01886e-06)
(0.000411583 -0.000847914 -3.59292e-06)
(0.000363309 -0.000738441 -3.17162e-06)
(0.000316549 -0.000636362 -2.76356e-06)
(0.000272154 -0.000541881 -2.37609e-06)
(0.000230347 -0.000455079 -2.01116e-06)
(0.000191148 -0.000375895 -1.66897e-06)
(0.000154651 -0.000304202 -1.35038e-06)
(0.000121058 -0.000239855 -1.05712e-06)
(9.06125e-05 -0.00018273 -7.9135e-07)
(6.36207e-05 -0.000132739 -5.5571e-07)
(4.0415e-05 -8.98411e-05 -3.53104e-07)
(2.15859e-05 -5.41136e-05 -1.88683e-07)
(7.72555e-06 -2.58272e-05 -6.76693e-08)
(2.97508e-07 -5.54763e-06 -3.79774e-09)
(0.000912375 -0.00230933 -7.96376e-06)
(0.000870746 -0.00213785 -7.60047e-06)
(0.000826173 -0.0019702 -7.21146e-06)
(0.000778848 -0.00180697 -6.79843e-06)
(0.000728968 -0.00164859 -6.36314e-06)
(0.000677145 -0.0014955 -5.91092e-06)
(0.000624397 -0.00134837 -5.45063e-06)
(0.000571756 -0.00120802 -4.99121e-06)
(0.000519831 -0.00107536 -4.53795e-06)
(0.000468646 -0.000950851 -4.09109e-06)
(0.00041805 -0.000834413 -3.64943e-06)
(0.000368325 -0.000725572 -3.21545e-06)
(0.000320324 -0.000624039 -2.79653e-06)
(0.000274815 -0.000530048 -2.39933e-06)
(0.000232057 -0.000443813 -2.02609e-06)
(0.000192104 -0.00036533 -1.67732e-06)
(0.000155054 -0.000294451 -1.3539e-06)
(0.000121084 -0.000230998 -1.05736e-06)
(9.04158e-05 -0.000174835 -7.89637e-07)
(6.3331e-05 -0.000125884 -5.53182e-07)
(4.01367e-05 -8.41416e-05 -3.50675e-07)
(2.13903e-05 -4.97291e-05 -1.86974e-07)
(7.64092e-06 -2.29762e-05 -6.69285e-08)
(2.92858e-07 -4.50399e-06 -3.74344e-09)
(0.000944378 -0.00231072 -8.24313e-06)
(0.000899697 -0.00213582 -7.85322e-06)
(0.000852136 -0.00196534 -7.43813e-06)
(0.000801978 -0.00179985 -7.00037e-06)
(0.000749459 -0.00163966 -6.54202e-06)
(0.000695123 -0.00148502 -6.06783e-06)
(0.000639856 -0.00133648 -5.58554e-06)
(0.000584615 -0.00119493 -5.10343e-06)
(0.000530095 -0.00106146 -4.62756e-06)
(0.000476559 -0.000936698 -4.16023e-06)
(0.000424083 -0.000820521 -3.70217e-06)
(0.000372955 -0.000712214 -3.25591e-06)
(0.000323806 -0.000611249 -2.82694e-06)
(0.000277247 -0.000517843 -2.42056e-06)
(0.000233565 -0.000432273 -2.03926e-06)
(0.000192879 -0.000354566 -1.6841e-06)
(0.000155303 -0.000284559 -1.35608e-06)
(0.000120991 -0.00022205 -1.05656e-06)
(9.01355e-05 -0.00016689 -7.87193e-07)
(6.29888e-05 -0.000119017 -5.50195e-07)
(3.98307e-05 -7.84556e-05 -3.48003e-07)
(2.11838e-05 -4.53716e-05 -1.85169e-07)
(7.55444e-06 -2.01515e-05 -6.61713e-08)
(2.88653e-07 -3.47181e-06 -3.693e-09)
(0.00102127 -0.00249392 -8.9142e-06)
(0.00097691 -0.00231131 -8.52712e-06)
(0.000928974 -0.00213286 -8.10881e-06)
(0.000878214 -0.00195939 -7.66581e-06)
(0.000825056 -0.00179152 -7.20186e-06)
(0.000769808 -0.00162949 -6.71967e-06)
(0.00071294 -0.00147344 -6.22335e-06)
(0.000655162 -0.00132379 -5.7191e-06)
(0.0005973 -0.0011814 -5.21412e-06)
(0.000540113 -0.00104735 -4.71502e-06)
(0.000484136 -0.000922345 -4.22643e-06)
(0.000429728 -0.00080628 -3.75153e-06)
(0.000377211 -0.000698372 -3.29313e-06)
(0.000326968 -0.000597984 -2.85456e-06)
(0.000279408 -0.000505261 -2.43942e-06)
(0.000234838 -0.000420464 -2.05037e-06)
(0.00019345 -0.000343613 -1.68909e-06)
(0.000155382 -0.000274538 -1.35678e-06)
(0.000120766 -0.000213019 -1.0546e-06)
(8.97602e-05 -0.000158906 -7.83919e-07)
(6.2585e-05 -0.000112145 -5.4667e-07)
(3.94902e-05 -7.2789e-05 -3.45029e-07)
(2.09619e-05 -4.10451e-05 -1.83231e-07)
(7.46402e-06 -1.73549e-05 -6.53797e-08)
(2.8466e-07 -2.45149e-06 -3.64397e-09)
(0.00110072 -0.00268817 -9.60758e-06)
(0.00105767 -0.00249776 -9.23192e-06)
(0.00100993 -0.00231102 -8.81539e-06)
(0.000958553 -0.00212891 -8.36703e-06)
(0.000904396 -0.00195234 -7.8944e-06)
(0.00084805 -0.00178195 -7.40262e-06)
(0.000789925 -0.00161803 -6.8953e-06)
(0.000730438 -0.00146068 -6.37609e-06)
(0.000670121 -0.00131021 -5.84965e-06)
(0.000609646 -0.00116731 -5.32186e-06)
(0.000549809 -0.00103294 -4.79965e-06)
(0.00049139 -0.00090775 -4.28981e-06)
(0.000435034 -0.000791681 -3.79792e-06)
(0.000381113 -0.000684053 -3.32724e-06)
(0.000329783 -0.000584251 -2.87915e-06)
(0.000281254 -0.000492309 -2.45554e-06)
(0.000235839 -0.000408393 -2.05911e-06)
(0.000193792 -0.000332483 -1.69209e-06)
(0.000155273 -0.000264399 -1.35584e-06)
(0.000120395 -0.000203919 -1.05136e-06)
(8.92788e-05 -0.000150893 -7.79719e-07)
(6.21108e-05 -0.000105277 -5.4253e-07)
(3.91086e-05 -6.71483e-05 -3.41696e-07)
(2.07206e-05 -3.67541e-05 -1.81122e-07)
(7.36776e-06 -1.45888e-05 -6.45368e-08)
(2.80672e-07 -1.4437e-06 -3.59419e-09)
(0.00114114 -0.00269571 -9.96045e-06)
(0.00109464 -0.00250065 -9.55463e-06)
(0.00104337 -0.00230974 -9.10728e-06)
(0.00098839 -0.00212394 -8.62749e-06)
(0.000930658 -0.00194416 -8.12368e-06)
(0.00087093 -0.00177116 -7.60239e-06)
(0.000809736 -0.00160529 -7.06828e-06)
(0.000747481 -0.00144671 -6.52488e-06)
(0.000684556 -0.00129563 -5.97564e-06)
(0.000621493 -0.00115252 -5.42526e-06)
(0.000559092 -0.00101808 -4.88069e-06)
(0.000498315 -0.000892788 -4.35029e-06)
(0.000440029 -0.000776669 -3.84159e-06)
(0.000384669 -0.000669259 -3.35832e-06)
(0.000332224 -0.000570069 -2.90048e-06)
(0.000282746 -0.000479004 -2.46856e-06)
(0.000236533 -0.000396072 -2.06517e-06)
(0.000193881 -0.000321186 -1.69287e-06)
(0.000154961 -0.000254154 -1.35312e-06)