/*--------------------------------*- C++ -*----------------------------------*\
| =========                 |                                                 |
| \\      /  F ield         | OpenFOAM: The Open Source CFD Toolbox           |
|  \\    /   O peration     | Version:  v2012                                 |
|   \\  /    A nd           | Website:  www.openfoam.com                      |
|    \\/     M anipulation  |                                                 |
\*---------------------------------------------------------------------------*/
FoamFile
{
    version     2.0;
    format      ascii;
    class       volScalarField;
    location    "0.75";
    object      alpha.water;
}
// * * * * * * * * * * * * * * * * * * * * * * * * * * * * * * * * * * * * * //

dimensions      [0 0 0 0 0 0 0];


internalField   nonuniform List<scalar> 
15860
(
-5.52507e-68
-6.90024e-68
-2.82674e-68
-1.22553e-68
-2.27956e-69
-3.69674e-70
-5.17065e-71
-7.91134e-72
-9.81892e-73
-1.01576e-73
-9.07806e-75
-7.66349e-76
-5.88997e-77
-4.08222e-78
-2.61268e-79
-1.57706e-80
-9.5724e-82
-3.00958e-79
-4.23929e-75
-1.00612e-70
-3.23944e-66
-1.35712e-61
-1.31247e-56
-4.30527e-54
-8.96474e-54
-9.08983e-54
-5.93103e-54
-2.78161e-54
-9.93481e-55
-2.795e-55
-6.3303e-56
-1.17183e-56
-1.79235e-57
-2.28283e-58
-2.43447e-59
-2.1819e-60
-1.64643e-61
-1.04897e-62
-5.64322e-64
-2.56442e-65
-9.83647e-67
-3.18285e-68
-8.67396e-70
-1.98737e-71
-3.81944e-73
-6.13479e-75
-8.20573e-77
-9.09305e-79
-8.2977e-81
-6.18788e-83
-3.73422e-85
-1.80209e-87
-6.84819e-90
-2.00838e-92
-4.42593e-95
-7.06435e-98
-7.73924e-101
-5.34693e-104
-1.99851e-107
-2.75063e-111
-3.0945e-67
-3.67713e-67
-1.47285e-67
-6.22006e-68
-1.14072e-68
-1.81195e-69
-2.49237e-70
-3.7388e-71
-4.59213e-72
-4.66042e-73
-4.14723e-74
-3.52207e-75
-2.66913e-76
-1.82025e-77
-1.15227e-78
-6.88354e-80
-4.07372e-81
-1.11127e-78
-1.91366e-74
-5.0644e-70
-1.71145e-65
-7.32258e-61
-5.45729e-56
-1.7736e-53
-3.78796e-53
-3.94259e-53
-2.64243e-53
-1.27369e-53
-4.67773e-54
-1.3535e-54
-3.15308e-55
-6.00399e-56
-9.44742e-57
-1.23806e-57
-1.35864e-58
-1.25312e-59
-9.73104e-61
-6.37932e-62
-3.53046e-63
-1.64982e-64
-6.50487e-66
-2.16238e-67
-6.05033e-69
-1.42226e-70
-2.80224e-72
-4.61052e-74
-6.31144e-76
-7.15121e-78
-6.66601e-80
-5.07282e-82
-3.1207e-84
-1.53354e-86
-5.92723e-89
-1.76574e-91
-3.94696e-94
-6.37896e-97
-7.05961e-100
-4.90912e-103
-1.83311e-106
-2.4599e-110
-1.65695e-66
-1.87243e-66
-7.26737e-67
-2.99165e-67
-5.44698e-68
-8.44853e-69
-1.14277e-69
-1.70117e-70
-2.06007e-71
-2.04844e-72
-1.78448e-73
-1.51821e-74
-1.13293e-75
-7.60823e-77
-4.76165e-78
-2.81532e-79
-1.64214e-80
-5.22331e-78
-1.05101e-73
-2.88281e-69
-9.80376e-65
-4.07617e-60
-2.17311e-55
-7.02948e-53
-1.54121e-52
-1.64812e-52
-1.13569e-52
-5.63153e-53
-2.12876e-53
-6.341e-54
-1.52074e-54
-2.9813e-55
-4.83038e-56
-6.51914e-57
-7.36893e-58
-7.00163e-59
-5.6013e-60
-3.78255e-61
-2.15594e-62
-1.0373e-63
-4.20905e-65
-1.43922e-66
-4.13958e-68
-9.99617e-70
-2.02161e-71
-3.4112e-73
-4.78469e-75
-5.54941e-77
-5.28959e-79
-4.11165e-81
-2.58057e-83
-1.29212e-85
-5.08147e-88
-1.53778e-90
-3.48514e-93
-5.69642e-96
-6.35263e-99
-4.42461e-102
-1.63482e-105
-2.10671e-109
-8.50049e-66
-9.21589e-66
-3.44284e-66
-1.3599e-66
-2.47363e-67
-3.76559e-68
-5.02066e-69
-7.39289e-70
-8.85231e-71
-8.63559e-72
-7.37588e-73
-6.14998e-74
-4.54919e-75
-3.0106e-76
-1.86201e-77
-1.08654e-78
-6.28083e-80
-2.60648e-77
-5.58827e-73
-1.53103e-68
-5.14807e-64
-2.0391e-59
-8.27106e-55
-2.67688e-52
-6.03117e-52
-6.63302e-52
-4.70396e-52
-2.40198e-52
-9.35461e-53
-2.87119e-53
-7.09498e-54
-1.43319e-54
-2.39297e-55
-3.32886e-56
-3.87928e-57
-3.80065e-58
-3.13545e-59
-2.18336e-60
-1.28303e-61
-6.36269e-63
-2.66003e-64
-9.36646e-66
-2.77258e-67
-6.88554e-69
-1.43098e-70
-2.47914e-72
-3.56692e-74
-4.23925e-76
-4.1361e-78
-3.28698e-80
-2.10646e-82
-1.07543e-84
-4.30544e-87
-1.32391e-89
-3.04165e-92
-5.02433e-95
-5.63703e-98
-3.92044e-101
-1.42546e-104
-1.75422e-108
-4.17211e-65
-4.34786e-65
-1.56304e-65
-5.93805e-66
-1.06853e-66
-1.58604e-67
-2.09906e-68
-3.05933e-69
-3.60155e-70
-3.43264e-71
-2.86183e-72
-2.34332e-73
-1.70242e-74
-1.1088e-75
-6.76405e-77
-3.89269e-78
-2.22956e-79
-1.12874e-76
-2.45106e-72
-6.65162e-68
-2.19905e-63
-8.30424e-59
-3.00243e-54
-9.7834e-52
-2.26739e-51
-2.56715e-51
-1.8755e-51
-9.87174e-52
-3.96494e-52
-1.25508e-52
-3.19821e-53
-6.66186e-54
-1.14716e-54
-1.64618e-55
-1.97943e-56
-2.00146e-57
-1.70431e-58
-1.22498e-59
-7.42915e-61
-3.8013e-62
-1.63909e-63
-5.94985e-65
-1.81454e-66
-4.63948e-68
-9.91907e-70
-1.76628e-71
-2.60948e-73
-3.18123e-75
-3.18014e-77
-2.5862e-79
-1.69368e-81
-8.82294e-84
-3.59784e-86
-1.12453e-88
-2.61924e-91
-4.37091e-94
-4.92874e-97
-3.41646e-100
-1.21894e-103
-1.42872e-107
-1.94862e-64
-1.95887e-64
-6.75573e-65
-2.45838e-65
-4.38561e-66
-6.31745e-67
-8.35435e-68
-1.2079e-68
-1.39049e-69
-1.28568e-70
-1.04794e-71
-8.40995e-73
-5.97559e-74
-3.81769e-75
-2.28881e-76
-1.29343e-77
-7.25885e-79
-3.63803e-76
-8.02425e-72
-2.16739e-67
-7.21336e-63
-2.7651e-58
-1.03697e-53
-3.42653e-51
-8.17773e-51
-9.54196e-51
-7.18913e-51
-3.90456e-51
-1.61899e-51
-5.29011e-52
-1.39119e-52
-2.99038e-53
-5.31453e-54
-7.873e-55
-9.77592e-56
-1.02101e-56
-8.98221e-58
-6.66991e-59
-4.17879e-60
-2.20834e-61
-9.83112e-63
-3.68269e-64
-1.15832e-65
-3.05233e-67
-6.7203e-69
-1.23125e-70
-1.86975e-72
-2.34044e-74
-2.39945e-76
-1.99861e-78
-1.33868e-80
-7.12091e-83
-2.95958e-85
-9.40695e-88
-2.22185e-90
-3.74554e-93
-4.24297e-96
-2.92859e-99
-1.02408e-102
-1.14225e-106
-8.6611e-64
-8.38131e-64
-2.76196e-64
-9.57348e-65
-1.68942e-65
-2.38308e-66
-3.11239e-67
-4.42607e-68
-5.00337e-69
-4.48232e-70
-3.56632e-71
-2.79415e-72
-1.93049e-73
-1.20501e-74
-7.06592e-76
-3.90745e-77
-2.11142e-78
-7.40192e-76
-1.72057e-71
-4.90642e-67
-1.75527e-62
-7.49676e-58
-3.40086e-53
-1.14827e-50
-2.82534e-50
-3.40129e-50
-2.64567e-50
-1.4843e-50
-6.36038e-51
-2.14723e-51
-5.83193e-52
-1.29451e-52
-2.37603e-53
-3.63632e-54
-4.66622e-55
-5.03804e-56
-4.58286e-57
-3.51904e-58
-2.27972e-59
-1.24547e-60
-5.73008e-62
-2.21723e-63
-7.19962e-65
-1.95725e-66
-4.44211e-68
-8.38197e-70
-1.30963e-71
-1.68482e-73
-1.7731e-75
-1.51405e-77
-1.03809e-79
-5.64299e-82
-2.39204e-84
-7.7362e-87
-1.85369e-89
-3.15746e-92
-3.59323e-95
-2.46918e-98
-8.46323e-102
-8.99262e-106
-3.65105e-63
-3.4084e-63
-1.07661e-63
-3.60517e-64
-6.18087e-65
-8.59872e-66
-1.10457e-66
-1.49367e-67
-1.67444e-68
-1.4541e-69
-1.12876e-70
-8.57785e-72
-5.71997e-73
-3.46428e-74
-1.97256e-75
-1.05767e-76
-5.43969e-78
-9.03003e-76
-2.3051e-71
-7.07876e-67
-2.90712e-62
-1.56081e-57
-1.05681e-52
-3.67501e-50
-9.33453e-50
-1.16083e-49
-9.33318e-50
-5.41516e-50
-2.40075e-50
-8.38122e-51
-2.3527e-51
-5.39632e-52
-1.02361e-52
-1.61951e-53
-2.1493e-54
-2.40084e-55
-2.2601e-56
-1.79619e-57
-1.20429e-58
-6.80809e-60
-3.24008e-61
-1.29631e-62
-4.34972e-64
-1.22109e-65
-2.85954e-67
-5.56244e-69
-8.95043e-71
-1.18452e-72
-1.28081e-74
-1.12218e-76
-7.88266e-79
-4.38238e-81
-1.89609e-83
-6.24376e-86
-1.51861e-88
-2.6149e-91
-2.99067e-94
-2.04702e-97
-6.88482e-101
-6.98692e-105
-1.45092e-62
-1.30134e-62
-3.93378e-63
-1.28267e-63
-2.16715e-64
-2.90857e-65
-3.6948e-66
-4.72519e-67
-5.17475e-68
-4.37173e-69
-3.28327e-70
-2.38394e-71
-1.52116e-72
-8.8644e-74
-4.84079e-75
-2.47673e-76
-1.19858e-77
-5.81937e-76
-1.69123e-71
-5.68188e-67
-2.88509e-62
-2.24557e-57
-3.10568e-52
-1.12099e-49
-2.94348e-49
-3.78636e-49
-3.15079e-49
-1.89295e-49
-8.69309e-50
-3.14114e-50
-9.11953e-51
-2.16277e-51
-4.24246e-52
-6.94385e-53
-9.5378e-54
-1.10314e-54
-1.07561e-55
-8.85514e-57
-6.15022e-58
-3.60106e-59
-1.77447e-60
-7.34741e-62
-2.55003e-63
-7.3993e-65
-1.78956e-66
-3.59194e-68
-5.95773e-70
-8.11833e-72
-9.02729e-74
-8.12244e-76
-5.85028e-78
-3.32915e-80
-1.47132e-82
-4.93683e-85
-1.21968e-87
-2.12451e-90
-2.44376e-93
-1.66778e-96
-5.51439e-100
-5.36428e-104
-5.36637e-62
-4.61263e-62
-1.33804e-62
-4.23891e-63
-7.0621e-64
-9.09111e-65
-1.1354e-65
-1.37694e-66
-1.46495e-67
-1.19916e-68
-8.66524e-70
-5.88444e-71
-3.55002e-72
-1.95426e-73
-9.99774e-75
-4.68971e-76
-2.06997e-77
-2.01785e-76
-6.78426e-72
-2.50362e-67
-1.49407e-62
-1.84189e-57
-8.61288e-52
-3.25119e-49
-8.83945e-49
-1.17794e-48
-1.01597e-48
-6.32903e-49
-3.01466e-49
-1.12848e-49
-3.39067e-50
-8.31934e-51
-1.68864e-51
-2.86124e-52
-4.07067e-53
-4.87886e-54
-4.93144e-55
-4.20944e-56
-3.03134e-57
-1.84002e-58
-9.3967e-60
-4.03047e-61
-1.4482e-62
-4.34739e-64
-1.0869e-65
-2.25307e-67
-3.85557e-69
-5.41431e-71
-6.1967e-73
-5.73077e-75
-4.23596e-77
-2.46937e-79
-1.11569e-81
-3.81756e-84
-9.58814e-87
-1.69093e-89
-1.95818e-92
-1.33434e-95
-4.34768e-99
-4.07186e-103
-1.84587e-61
-1.47086e-61
-4.18158e-62
-1.28049e-62
-2.11426e-63
-2.60854e-64
-3.19042e-65
-3.67519e-66
-3.71539e-67
-2.91458e-68
-1.99322e-69
-1.22819e-70
-6.89507e-72
-3.42077e-73
-1.54158e-74
-5.76116e-76
-2.07361e-77
-5.22712e-77
-2.42425e-72
-1.00565e-67
-6.41378e-63
-1.53053e-57
-2.24707e-51
-8.94091e-49
-2.52168e-48
-3.48712e-48
-3.12238e-48
-2.01997e-48
-9.99412e-49
-3.87901e-49
-1.20691e-49
-3.0654e-50
-6.44248e-51
-1.13088e-51
-1.66777e-52
-2.07316e-53
-2.17426e-54
-1.92608e-55
-1.43949e-56
-9.06691e-58
-4.80325e-59
-2.13618e-60
-7.95377e-62
-2.47244e-63
-6.39555e-65
-1.37042e-66
-2.42162e-68
-3.50757e-70
-4.13542e-72
-3.93427e-74
-2.98686e-76
-1.78522e-78
-8.25267e-81
-2.8821e-83
-7.36545e-86
-1.31645e-88
-1.5367e-91
-1.04731e-94
-3.37218e-98
-3.05557e-102
-5.9228e-61
-4.39455e-61
-1.20872e-61
-3.56501e-62
-5.6595e-63
-6.72409e-64
-7.87296e-65
-8.87662e-66
-8.35785e-67
-6.06522e-68
-3.80279e-69
-2.07306e-70
-9.75013e-72
-3.7466e-73
-6.6862e-75
0
-1.05012e-87
0
-1.18115e-72
-7.36507e-68
-6.20198e-63
-3.02112e-57
-5.48908e-51
-2.32385e-48
-6.81377e-48
-9.79711e-48
-9.12395e-48
-6.14048e-48
-3.16087e-48
-1.27309e-48
-4.10391e-49
-1.07957e-49
-2.35081e-50
-4.27826e-51
-6.54594e-52
-8.44719e-53
-9.20103e-54
-8.46717e-55
-6.57404e-56
-4.30102e-57
-2.36589e-58
-1.09203e-59
-4.21734e-61
-1.35875e-62
-3.63977e-64
-8.069e-66
-1.47362e-67
-2.20342e-69
-2.67839e-71
-2.62343e-73
-2.04736e-75
-1.25568e-77
-5.94426e-80
-2.12067e-82
-5.5198e-85
-1.00097e-87
-1.17942e-90
-8.05492e-94
-2.57073e-97
-2.26541e-101
-1.80124e-60
-1.22352e-60
-3.25831e-61
-9.11339e-62
-1.39851e-62
-1.57732e-63
-1.72446e-64
-1.87143e-65
-1.60062e-66
-1.01975e-67
-5.39391e-69
-2.1973e-70
-4.86448e-95
-2.95726e-108
-7.33719e-119
-2.14985e-97
-1.17704e-93
-2.51733e-100
-5.43354e-85
-4.47006e-68
-6.55633e-63
-5.73307e-57
-1.24895e-50
-5.68627e-48
-1.73786e-47
-2.60419e-47
-2.52792e-47
-1.77344e-47
-9.51556e-48
-3.9799e-48
-1.32971e-48
-3.62468e-49
-8.18377e-50
-1.54551e-50
-2.45576e-51
-3.29322e-52
-3.72951e-53
-3.56911e-54
-2.88187e-55
-1.96046e-56
-1.12092e-57
-5.37503e-59
-2.15512e-60
-7.20321e-62
-2.00001e-63
-4.59122e-65
-8.67322e-67
-1.33989e-68
-1.6806e-70
-1.69618e-72
-1.36185e-74
-8.5779e-77
-4.16191e-79
-1.51819e-81
-4.02881e-84
-7.42137e-87
-8.83959e-90
-6.06218e-93
-1.92384e-96
-1.65765e-100
-5.03602e-60
-3.06682e-60
-8.00955e-61
-2.10553e-61
-3.03863e-62
-3.2348e-63
-3.1887e-64
-3.20523e-65
-2.32538e-66
-1.09079e-67
-6.64891e-70
0
-3.8987e-88
-3.66039e-95
3.13451e-74
6.18314e-74
2.27136e-74
1.37338e-74
-9.60284e-106
-1.44689e-68
-7.44014e-63
-9.60342e-57
-2.63031e-50
-1.3036e-47
-4.16642e-47
-6.52522e-47
-6.61932e-47
-4.85211e-47
-2.7196e-47
-1.18178e-47
-4.0931e-48
-1.15677e-48
-2.71023e-49
-5.31672e-50
-8.78355e-51
-1.22552e-51
-1.44472e-52
-1.43952e-53
-1.21021e-54
-8.56999e-56
-5.0987e-57
-2.54267e-58
-1.0595e-59
-3.67725e-61
-1.05925e-62
-2.52018e-64
-4.9288e-66
-7.87354e-68
-1.01987e-69
-1.06149e-71
-8.77523e-74
-5.6812e-76
-2.82761e-78
-1.05564e-80
-2.85903e-83
-5.3563e-86
-6.45938e-89
-4.4578e-92
-1.41129e-95
-1.19541e-99
-1.29968e-59
-6.73759e-60
-1.7571e-60
-4.22078e-61
-5.49714e-62
-5.57203e-63
-4.63529e-64
-3.50756e-65
-1.6113e-66
-2.66201e-96
-2.49857e-91
-5.61709e-91
1.72755e-70
1.47718e-70
1.93493e-70
9.02556e-71
5.33238e-71
9.02606e-72
-3.496e-101
-1.78232e-77
-6.65244e-63
-1.37639e-56
-5.08336e-50
-2.78279e-47
-9.34045e-47
-1.53434e-46
-1.63174e-46
-1.25337e-46
-7.35747e-47
-3.32189e-47
-1.19262e-47
-3.49625e-48
-8.50915e-49
-1.73624e-49
-2.9865e-50
-4.34162e-51
-5.33528e-52
-5.54252e-53
-4.85786e-54
-3.58546e-55
-2.2223e-56
-1.15382e-57
-5.00184e-59
-1.80449e-60
-5.39778e-62
-1.33221e-63
-2.69972e-65
-4.46325e-67
-5.9753e-69
-6.41865e-71
-5.46798e-73
-3.64164e-75
-1.86088e-77
-7.11678e-80
-1.96922e-82
-3.75681e-85
-4.59421e-88
-3.19754e-91
-1.01313e-94
-8.48046e-99
-3.07082e-59
-1.3349e-59
-3.41986e-60
-7.23579e-61
-8.48081e-62
-6.89123e-63
-3.82471e-64
0
-1.37173e-90
-4.53476e-84
-3.40505e-114
-7.06891e-74
-1.27765e-90
-1.59374e-123
-1.11445e-127
-2.85946e-150
-1.6368e-88
-7.5074e-112
-3.61311e-75
-1.29094e-82
-2.4577e-75
-1.60077e-56
-8.90164e-50
-5.48568e-47
-1.94493e-46
-3.36673e-46
-3.76885e-46
-3.0444e-46
-1.87755e-46
-8.80196e-47
-3.27418e-47
-9.96285e-48
-2.52224e-48
-5.36218e-49
-9.62057e-50
-1.45981e-50
-1.87317e-51
-2.03205e-52
-1.85958e-53
-1.43251e-54
-9.2619e-56
-5.01271e-57
-2.26326e-58
-8.49612e-60
-2.64177e-61
-6.76997e-63
-1.42282e-64
-2.43645e-66
-3.37408e-68
-3.74373e-70
-3.28908e-72
-2.25522e-74
-1.18421e-76
-4.64368e-79
-1.31411e-81
-2.55611e-84
-3.17486e-87
-2.23326e-90
-7.10399e-94
-5.90595e-98
-6.4406e-59
-2.26771e-59
-5.69653e-60
-1.03491e-60
-8.75548e-62
-1.45246e-64
-2.09296e-73
-6.72436e-104
-2.36812e-73
2.58773e-64
1.60727e-63
5.06511e-63
1.01808e-62
2.7602e-62
4.18549e-62
3.47008e-62
2.42121e-62
1.14621e-62
3.21125e-63
1.02619e-63
-3.03249e-70
-1.28148e-56
-1.38315e-49
-9.86757e-47
-3.72702e-46
-6.84284e-46
-8.10716e-46
-6.91887e-46
-4.50076e-46
-2.18635e-46
-8.41848e-47
-2.66122e-47
-7.02188e-48
-1.55905e-48
-2.92457e-49
-4.64239e-50
-6.233e-51
-7.07431e-52
-6.77111e-53
-5.45277e-54
-3.68295e-55
-2.08058e-56
-9.79606e-58
-3.83082e-59
-1.23947e-60
-3.30129e-62
-7.20218e-64
-1.27856e-65
-1.83303e-67
-2.10249e-69
-1.90651e-71
-1.34694e-73
-7.27396e-76
-2.92735e-78
-8.48113e-81
-1.68405e-83
-2.1278e-86
-1.51588e-89
-4.85566e-93
-4.02833e-97
-1.11607e-58
-2.95282e-59
-7.23731e-60
-8.98959e-61
-3.21407e-91
-3.54916e-92
2.52376e-64
7.5373e-63
3.73059e-62
1.08454e-60
1.47115e-60
1.13182e-59
6.30202e-59
2.98463e-59
7.45468e-59
1.27447e-58
1.10957e-58
6.99185e-59
3.20612e-59
1.2695e-59
-4.02772e-99
-7.47946e-70
-1.8313e-49
-1.58923e-46
-6.48377e-46
-1.27503e-45
-1.61115e-45
-1.46189e-45
-1.00826e-45
-5.05217e-46
-2.01041e-46
-6.61239e-47
-1.82391e-47
-4.24353e-48
-8.34984e-49
-1.39065e-49
-1.95876e-50
-2.33129e-51
-2.3386e-52
-1.97235e-53
-1.39398e-54
-8.23214e-56
-4.04738e-57
-1.65083e-58
-5.56421e-60
-1.5419e-61
-3.49516e-63
-6.43813e-65
-9.56371e-67
-1.13491e-68
-1.06303e-70
-7.74466e-73
-4.30498e-75
-1.77964e-77
-5.28396e-80
-1.07235e-82
-1.38038e-85
-9.97985e-89
-3.2282e-92
-2.68441e-96
-1.46258e-58
-2.03028e-59
-1.51589e-60
9.12873e-96
5.0082e-63
3.85662e-61
9.70123e-60
1.61874e-58
1.13593e-57
-7.87269e-115
-1.93462e-82
-8.89088e-115
-3.52194e-110
-7.06032e-110
-3.74174e-154
-4.29543e-114
-3.44365e-97
-2.54048e-136
-5.41618e-112
-1.13887e-79
-3.11629e-73
2.15094e-57
-1.86915e-49
-2.21274e-46
-1.00131e-45
-2.14417e-45
-2.92453e-45
-2.84722e-45
-2.09693e-45
-1.07367e-45
-4.4053e-46
-1.51206e-46
-4.38128e-47
-1.07355e-47
-2.22592e-48
-3.90503e-49
-5.78964e-50
-7.2466e-51
-7.63737e-52
-6.76043e-53
-5.0092e-54
-3.0976e-55
-1.59271e-56
-6.78488e-58
-2.38522e-59
-6.88435e-61
-1.62309e-62
-3.1051e-64
-4.78341e-66
-5.87758e-68
-5.69134e-70
-4.27922e-72
-2.4504e-74
-1.04144e-76
-3.17202e-79
-6.58712e-82
-8.6511e-85
-6.35936e-88
-2.08283e-91
-1.74305e-95
-1.07801e-58
-1.00714e-83
-1.07166e-76
4.69344e-60
1.24771e-58
-6.95776e-168
-3.30089e-82
-1.13802e-122
-1.92068e-98
2.00818e-52
1.17797e-51
4.47559e-51
1.28253e-50
2.61873e-50
4.32709e-50
4.31845e-50
3.3239e-50
1.87735e-50
6.61112e-51
1.36238e-51
9.89658e-53
-4.01877e-77
-8.49178e-50
-2.45523e-46
-1.31475e-45
-3.16779e-45
-4.76322e-45
-5.04904e-45
-4.01277e-45
-2.05877e-45
-8.68828e-46
-3.13211e-46
-9.61432e-47
-2.50059e-47
-5.49988e-48
-1.02191e-48
-1.60185e-49
-2.11608e-50
-2.3501e-51
-2.18889e-52
-1.70411e-53
-1.1056e-54
-5.95532e-56
-2.65365e-57
-9.7431e-59
-2.93247e-60
-7.19858e-62
-1.43167e-63
-2.28924e-65
-2.91505e-67
-2.9204e-69
-2.26794e-71
-1.33893e-73
-5.85552e-76
-1.83127e-78
-3.8956e-81
-5.22709e-84
-3.91375e-87
-1.30108e-90
-1.0998e-94
-1.23484e-70
-1.42649e-80
-2.81332e-106
-3.39266e-76
-1.77018e-76
0
1.02396e-51
1.32424e-50
1.07376e-49
1.49413e-48
8.36021e-48
3.2196e-47
9.1589e-47
2.05817e-46
3.44399e-46
3.38477e-46
2.59239e-46
1.37921e-46
4.62521e-47
9.03486e-48
8.97819e-49
-5.82831e-57
-1.09845e-57
-1.64861e-46
-1.31645e-45
-3.8803e-45
-6.74159e-45
-7.99404e-45
-6.97477e-45
-3.43315e-45
-1.48968e-45
-5.72855e-46
-1.89262e-46
-5.29286e-47
-1.24741e-47
-2.47399e-48
-4.12459e-49
-5.77725e-50
-6.78602e-51
-6.67084e-52
-5.47102e-53
-3.73247e-54
-2.11034e-55
-9.85301e-57
-3.78391e-58
-1.18918e-59
-3.04298e-61
-6.29811e-63
-1.04629e-64
-1.38191e-66
-1.43355e-68
-1.15076e-70
-7.0099e-73
-3.1571e-75
-1.01475e-77
-2.21361e-80
-3.03846e-83
-2.3211e-86
-7.84942e-90
-6.72394e-94
3.89415e-58
-1.77862e-185
-3.05263e-108
4.92008e-52
1.50191e-50
4.25028e-52
7.41152e-48
8.18648e-47
6.60082e-46
2.29904e-49
2.29934e-49
2.29978e-49
2.30015e-49
2.30056e-49
2.30095e-49
2.30135e-49
2.30175e-49
2.30215e-49
2.30254e-49
2.30294e-49
2.30334e-49
6.59476e-47
-1.88426e-58
-1.06877e-55
-4.69699e-46
-3.24514e-45
-7.70681e-45
-1.0897e-44
-1.07837e-44
-4.55324e-45
-2.0564e-45
-8.82202e-46
-3.24456e-46
-9.98344e-47
-2.5626e-47
-5.48844e-48
-9.81355e-49
-1.46629e-49
-1.82995e-50
-1.90559e-51
-1.65151e-52
-1.18797e-53
-7.06674e-55
-3.46403e-56
-1.39384e-57
-4.58068e-59
-1.22341e-60
-2.63806e-62
-4.55779e-64
-6.24948e-66
-6.71863e-68
-5.57939e-70
-3.50956e-72
-1.62911e-74
-5.3862e-77
-1.20608e-79
-1.69557e-82
-1.32349e-85
-4.56207e-89
-3.97169e-93
-1.01902e-169
4.9631e-52
4.05317e-50
3.31403e-48
8.97677e-47
8.60624e-51
8.60624e-51
8.60624e-51
8.60624e-51
8.60624e-51
3.03197e-40
1.13273e-39
3.22237e-39
6.79012e-39
1.1752e-38
1.22255e-38
9.43871e-39
5.10379e-39
1.89596e-39
3.67482e-40
4.24785e-41
3.74919e-44
-1.48223e-72
2.75897e-47
-4.08894e-54
-1.27604e-56
-5.57758e-45
-1.17486e-44
-1.42572e-44
-3.29707e-45
-1.78413e-45
-1.02293e-45
-4.57388e-46
-1.62388e-46
-4.67358e-47
-1.10126e-47
-2.1377e-48
-3.43503e-49
-4.58119e-50
-5.07631e-51
-4.66667e-52
-3.55099e-53
-2.22869e-54
-1.14974e-55
-4.85698e-57
-1.67197e-58
-4.66753e-60
-1.04986e-61
-1.8884e-63
-2.69066e-65
-3.00037e-67
-2.57967e-69
-1.67691e-71
-8.02917e-74
-2.73291e-76
-6.2875e-79
-9.06326e-82
-7.23846e-85
-2.54776e-88
-2.25996e-92
3.46532e-50
3.16589e-48
2.66361e-46
8.60624e-51
8.60624e-51
8.60624e-51
2.85388e-40
2.827e-39
2.1796e-38
2.18927e-37
1.23114e-36
4.23121e-36
1.1166e-35
1.8783e-35
2.08466e-35
1.68309e-35
1.56389e-35
1.12011e-35
5.63532e-36
1.12909e-36
1.44342e-37
0
1.85098e-42
1.23881e-43
-2.12607e-64
-2.97671e-64
-1.06392e-61
-7.4673e-45
-1.4672e-44
-1.2459e-58
-5.67797e-58
-5.36392e-46
-4.49252e-46
-2.12568e-46
-7.30907e-47
-1.95984e-47
-4.20966e-48
-7.3582e-49
-1.05651e-49
-1.25269e-50
-1.22734e-51
-9.92038e-53
-6.59283e-54
-3.59017e-55
-1.59623e-56
-5.76743e-58
-1.68569e-59
-3.96056e-61
-7.4254e-63
-1.10053e-64
-1.27406e-66
-1.13506e-68
-7.63104e-71
-3.77173e-73
-1.32271e-75
-3.12936e-78
-4.62985e-81
-3.7881e-84
-1.36359e-87
-1.23508e-91
2.49942e-46
8.60624e-51
8.60624e-51
8.60624e-51
3.01603e-39
5.96454e-38
1.13844e-36
9.72553e-36
2.64623e-35
2.46634e-37
5.9185e-37
7.25399e-37
2.36097e-36
2.27323e-36
3.05973e-36
2.27882e-36
2.29716e-36
-1.3692e-151
-1.3042e-87
1.13076e-37
5.88589e-38
0
4.31477e-43
1.22804e-43
8.32173e-42
6.88718e-44
-6.79037e-56
-6.76495e-55
-7.91912e-45
2.71336e-43
-2.39138e-91
-3.6064e-55
-2.26738e-57
-1.78363e-46
-9.07948e-47
-2.9912e-47
-7.3535e-48
-1.42222e-48
-2.22038e-49
-2.83721e-50
-2.98083e-51
-2.57351e-52
-1.8197e-53
-1.0502e-54
-4.93007e-56
-1.87441e-57
-5.74735e-59
-1.41281e-60
-2.76453e-62
-4.26683e-64
-5.13307e-66
-4.74261e-68
-3.3002e-70
-1.68508e-72
-6.0932e-75
-1.48363e-77
-2.25498e-80
-1.8922e-83
-6.97548e-87
-6.46321e-91
2.0615e-46
1.06625e-40
7.98614e-39
4.83677e-37
1.02034e-35
6.8341e-38
4.34225e-37
5.54334e-37
2.28184e-37
1.07623e-37
-9.579e-71
-1.75785e-94
-3.84177e-58
-1.14237e-77
-3.37681e-77
-1.4504e-72
-1.4445e-76
-1.33244e-34
-4.42282e-35
-1.26803e-58
-5.71174e-76
-1.92964e-63
1.14725e-43
1.1097e-43
9.61693e-42
3.07534e-40
1.10556e-42
-1.71744e-96
-1.98535e-68
1.10104e-42
1.53194e-42
-1.42539e-143
-3.39305e-95
-4.45091e-58
-6.95375e-47
-3.64356e-47
-1.10335e-47
-2.4295e-48
-4.18331e-49
-5.81653e-50
-6.60871e-51
-6.14236e-52
-4.65286e-53
-2.86187e-54
-1.42473e-55
-5.71898e-57
-1.84429e-58
-4.75255e-60
-9.72093e-62
-1.56435e-63
-1.95769e-65
-1.8775e-67
-1.35334e-69
-7.14387e-72
-2.66548e-74
-6.68459e-77
-1.04462e-79
-8.99863e-83
-3.40121e-86
-3.2288e-90
7.23035e-39
5.40128e-37
2.61402e-35
4.84984e-37
3.8355e-37
2.3773e-38
1.04772e-38
-3.85849e-96
-1.06877e-97
-2.35768e-79
-1.20552e-45
-1.61081e-63
-1.52931e-41
-6.14926e-49
-1.2525e-48
0
0
-4.20106e-33
-5.07643e-35
-3.50653e-34
-5.61407e-50
-1.87214e-35
-3.2178e-64
-4.28313e-64
1.86748e-42
2.92916e-40
4.63028e-39
8.07547e-42
-3.01759e-104
1.04165e-42
1.42281e-41
5.57813e-42
-7.55733e-85
-6.34331e-89
-6.07011e-58
-2.83912e-47
-1.32993e-47
-3.53524e-48
-6.8765e-49
-1.05574e-49
-1.31396e-50
-1.33057e-51
-1.09103e-52
-7.21135e-54
-3.83095e-55
-1.63098e-56
-5.55027e-58
-1.503e-59
-3.21948e-61
-5.40976e-63
-7.05056e-65
-7.02544e-67
-5.25005e-69
-2.8672e-71
-1.10464e-73
-2.85525e-76
-4.59111e-79
-4.06346e-82
-1.57629e-85
-1.53509e-89
2.73512e-35
5.38101e-37
6.44651e-37
-1.68974e-81
-4.33894e-34
-5.35282e-62
-8.642e-47
-3.5195e-33
0
-1.25347e-54
-5.53125e-53
-1.75762e-34
-1.71196e-50
-1.85991e-34
-1.00563e-39
-1.97504e-33
-9.4779e-34
-6.39923e-34
-1.55235e-76
-6.08292e-35
8.21818e-60
-1.09768e-33
-2.61909e-111
-6.2784e-66
-4.3459e-35
-7.01795e-58
1.02926e-41
8.12771e-42
3.17424e-41
1.15259e-42
2.09169e-41
6.1112e-41
1.92014e-41
-2.19724e-61
-4.1918e-56
-7.1051e-60
-1.04764e-47
-4.03676e-48
-9.37181e-49
-1.63369e-49
-2.27722e-50
-2.56295e-51
-2.3128e-52
-1.66356e-53
-9.51654e-55
-4.32465e-56
-1.55996e-57
-4.45326e-59
-1.00125e-60
-1.75969e-62
-2.39159e-64
-2.47858e-66
-1.9219e-68
-1.08672e-70
-4.32614e-73
-1.15327e-75
-1.90936e-78
-1.73756e-81
-6.92347e-85
-6.92391e-89
1.40519e-35
5.32112e-37
-5.7255e-78
-9.30928e-33
0
-1.22614e-40
-4.54554e-33
-1.47376e-33
-3.40706e-60
-5.51951e-50
-1.71133e-33
-2.77417e-65
0
0
-1.53486e-43
0
-3.33698e-49
-3.96415e-33
-1.57311e-56
-4.35076e-39
-1.6903e-113
-1.15957e-148
0
-1.19786e-33
0
0
-2.08816e-82
7.62482e-42
3.1367e-41
7.06646e-41
2.17665e-41
9.8242e-41
1.35868e-40
3.24127e-41
-3.11864e-97
-7.97772e-71
-3.33977e-59
-2.74336e-48
-9.37848e-49
-2.00338e-49
-3.28036e-50
-4.25703e-51
-4.34635e-52
-3.46898e-53
-2.16529e-54
-1.0596e-55
-4.07538e-57
-1.23142e-58
-2.91425e-60
-5.3679e-62
-7.61929e-64
-8.22243e-66
-6.62172e-68
-3.87961e-70
-1.5969e-72
-4.39324e-75
-7.49339e-78
-7.01571e-81
-2.87338e-84
-2.9532e-88
-4.35202e-52
-1.70054e-34
0
-2.46159e-40
0
-1.41209e-33
-1.23175e-32
-5.82421e-44
-3.4235e-32
4.96921e-21
7.84842e-20
1.64805e-19
2.48883e-19
3.17088e-19
3.66992e-19
3.67351e-19
3.49026e-19
3.02026e-19
2.31732e-19
1.50212e-19
7.17441e-20
1.01111e-20
5.37811e-69
-4.51304e-34
-1.25364e-34
-7.13599e-34
-9.67084e-35
-3.97e-63
2.87475e-42
6.32544e-41
1.219e-40
9.94795e-41
2.08423e-40
1.47019e-40
-1.32944e-54
-3.6284e-54
-5.60587e-55
-5.46411e-59
-3.60256e-49
-1.59319e-49
-3.58637e-50
-5.82164e-51
-7.06381e-52
-6.44624e-53
-4.47171e-54
-2.38368e-55
-9.848e-57
-3.16506e-58
-7.91075e-60
-1.53074e-61
-2.27307e-63
-2.55757e-65
-2.14128e-67
-1.30097e-69
-5.54056e-72
-1.57393e-74
-2.76725e-77
-2.66688e-80
-1.12329e-83
-1.18717e-87
-2.29599e-34
-2.9802e-33
-2.19432e-32
-9.64515e-32
-2.41995e-32
-4.27884e-53
6.14631e-20
2.38653e-19
4.66645e-19
7.16833e-19
8.96741e-19
1.04058e-18
1.14433e-18
1.2074e-18
1.23297e-18
1.21732e-18
1.17166e-18
1.09298e-18
9.8102e-19
8.37681e-19
6.66679e-19
4.75063e-19
2.55913e-19
8.03845e-20
-2.43725e-39
-2.44088e-74
-1.2516e-40
-1.33457e-78
-4.67557e-43
-6.41496e-38
-1.05971e-60
9.8613e-41
2.08441e-40
2.05583e-40
2.05285e-39
-3.54811e-66
-1.99399e-53
-2.09411e-54
-3.26522e-58
5.88187e-56
-2.28221e-50
-6.07363e-51
-9.65984e-52
-1.05458e-52
-8.32423e-54
-4.89892e-55
-2.19203e-56
-7.53348e-58
-1.9958e-59
-4.06738e-61
-6.33045e-63
-7.43668e-65
-6.47977e-67
-4.08591e-69
-1.80161e-71
-5.28755e-74
-9.58714e-77
-9.51455e-80
-4.12295e-83
-4.48248e-87
0
-1.48236e-48
-5.02588e-31
1.0241e-20
2.58556e-19
6.3288e-19
1.02243e-18
1.33686e-18
1.60209e-18
1.8118e-18
1.96488e-18
2.06729e-18
2.1253e-18
2.14458e-18
2.12987e-18
2.08751e-18
2.01505e-18
1.91526e-18
1.78765e-18
1.63071e-18
1.44221e-18
1.21855e-18
9.56214e-19
6.5767e-19
3.35683e-19
6.76197e-20
-6.26623e-56
-2.85601e-61
-1.05826e-33
-4.70942e-43
-7.80484e-95
2.71704e-85
9.42687e-41
2.18186e-40
1.10043e-38
1.17345e-39
-3.58332e-69
-1.19059e-54
-9.78342e-112
6.97158e-50
1.19974e-56
-3.99713e-51
-1.08129e-51
-1.51319e-52
-1.3957e-53
-9.18631e-55
-4.48487e-56
-1.6561e-57
-4.66595e-59
-1.00394e-60
-1.6407e-62
-2.01517e-64
-1.82934e-66
-1.19818e-68
-5.47345e-71
-1.66051e-73
-3.10618e-76
-3.17547e-79
-1.41603e-82
-1.58402e-86
0
2.05646e-20
4.27388e-19
1.04408e-18
1.5478e-18
1.9751e-18
2.31691e-18
2.58042e-18
2.77124e-18
2.89814e-18
2.97136e-18
3.00382e-18
3.00049e-18
2.97124e-18
2.91558e-18
2.83663e-18
2.73591e-18
2.61464e-18
2.47372e-18
2.31264e-18
2.12964e-18
1.92057e-18
1.6771e-18
1.38581e-18
1.03219e-18
6.20546e-19
1.96584e-19
7.04513e-87
-7.52546e-35
-1.03976e-33
-1.32193e-35
-7.41726e-57
-7.98739e-69
7.89484e-41
6.40747e-39
5.77361e-38
1.24763e-38
-1.17462e-54
-6.26823e-67
3.34174e-50
-1.30902e-75
-2.00023e-95
-9.35948e-52
-1.91725e-52
-2.12338e-53
-1.57728e-54
-8.43942e-56
-3.35832e-57
-1.00858e-58
-2.29549e-60
-3.94533e-62
-5.07293e-64
-4.80277e-66
-3.27018e-68
-1.54864e-70
-4.8587e-73
-9.38011e-76
-9.8804e-79
-4.53469e-82
-5.21948e-86
4.99528e-19
1.24253e-18
1.96281e-18
2.55708e-18
3.00807e-18
3.33493e-18
3.56642e-18
3.72567e-18
3.82026e-18
3.86478e-18
3.87028e-18
3.84792e-18
3.7997e-18
3.72675e-18
3.63118e-18
3.5148e-18
3.37958e-18
3.22732e-18
3.05983e-18
2.87878e-18
2.68503e-18
2.47799e-18
2.25385e-18
2.00256e-18
1.70399e-18
1.32678e-18
8.4637e-19
3.131e-19
-1.04087e-33
-6.14747e-35
-2.03518e-35
-2.97141e-44
-6.27205e-64
-4.79982e-76
3.23611e-39
1.21708e-37
6.72988e-38
3.29981e-39
-2.16937e-79
1.34686e-50
7.18892e-48
-2.14874e-75
-4.25386e-52
-2.1633e-52
-2.96474e-53
-2.49419e-54
-1.46325e-55
-6.27831e-57
-2.0118e-58
-4.84908e-60
-8.77561e-62
-1.18258e-63
-1.16875e-65
-8.27916e-68
-4.06688e-70
-1.32009e-72
-2.63096e-75
-2.85581e-78
-1.34902e-81
-1.59753e-85
2.28771e-18
2.97523e-18
3.60847e-18
4.05947e-18
4.36652e-18
4.57325e-18
4.71072e-18
4.79171e-18
4.81847e-18
4.81058e-18
4.77851e-18
4.71935e-18
4.63365e-18
4.52234e-18
4.38666e-18
4.22842e-18
4.0499e-18
3.85366e-18
3.64274e-18
3.42031e-18
3.18993e-18
2.95469e-18
2.71633e-18
2.47271e-18
2.21343e-18
1.9128e-18
1.52192e-18
9.83884e-19
3.56785e-19
-9.75042e-34
-2.51845e-40
-7.67493e-42
-1.44586e-50
5.38328e-31
2.44206e-39
9.58334e-38
9.45268e-38
1.3241e-38
-2.80263e-59
5.02895e-51
3.23558e-47
1.62001e-50
-1.23686e-64
-2.17183e-52
-3.82491e-53
-3.6414e-54
-2.33623e-55
-1.07975e-56
-3.69245e-58
-9.43333e-60
-1.7995e-61
-2.5441e-63
-2.62717e-65
-1.93757e-67
-9.87795e-70
-3.31853e-72
-6.82915e-75
-7.63924e-78
-3.7137e-81
-4.52348e-85
4.16083e-18
4.68175e-18
5.13238e-18
5.44305e-18
5.65135e-18
5.79214e-18
5.88195e-18
5.91728e-18
5.90858e-18
5.87838e-18
5.81903e-18
5.72836e-18
5.60598e-18
5.45306e-18
5.2714e-18
5.06339e-18
4.83169e-18
4.57939e-18
4.31008e-18
4.02794e-18
3.73798e-18
3.44579e-18
3.15742e-18
2.87796e-18
2.60805e-18
2.33715e-18
2.03223e-18
1.62164e-18
1.01531e-18
3.04246e-19
0
-1.65927e-51
-1.3247e-36
9.34164e-40
2.38738e-39
6.11081e-38
7.91434e-38
1.5514e-38
-4.59528e-67
2.50988e-51
1.03307e-49
1.9378e-49
3.11192e-75
-2.13302e-52
-4.56907e-53
-4.87245e-54
-3.41074e-55
-1.69818e-56
-6.20459e-58
-1.6826e-59
-3.38827e-61
-5.03211e-63
-5.43523e-65
-4.1767e-67
-2.21114e-69
-7.69078e-72
-1.63438e-74
-1.88397e-77
-9.42302e-81
-1.18002e-84
5.88502e-18
6.26859e-18
6.61193e-18
6.86043e-18
7.03531e-18
7.1581e-18
7.22547e-18
7.23103e-18
7.21103e-18
7.15816e-18
7.06835e-18
6.93921e-18
6.77153e-18
6.56757e-18
6.33001e-18
6.06197e-18
5.76658e-18
5.44735e-18
5.10832e-18
4.75404e-18
4.38996e-18
4.02241e-18
3.65896e-18
3.30856e-18
2.98051e-18
2.67957e-18
2.39479e-18
2.07987e-18
1.62985e-18
9.3049e-19
1.84108e-19
-2.18571e-39
-4.0106e-35
-1.18878e-108
2.43484e-39
2.09831e-39
2.14008e-39
6.69008e-39
4.57713e-40
2.50945e-51
2.50952e-51
5.35005e-49
7.15734e-53
-1.76981e-52
-4.88084e-53
-5.85273e-54
-4.49046e-55
-2.4195e-56
-9.4815e-58
-2.73783e-59
-5.83367e-61
-9.11741e-63
-1.03134e-64
-8.26487e-67
-4.54585e-69
-1.63738e-71
-3.59327e-74
-4.26732e-77
-2.19505e-80
-2.82412e-84
7.5868e-18
7.9317e-18
8.25775e-18
8.50476e-18
8.68119e-18
8.79818e-18
8.83804e-18
8.82686e-18
8.78745e-18
8.70217e-18
8.56899e-18
8.38819e-18
8.16262e-18
7.89527e-18
7.58927e-18
7.2482e-18
6.87579e-18
6.47639e-18
6.05481e-18
5.61634e-18
5.16695e-18
4.71313e-18
4.26239e-18
3.82367e-18
3.40812e-18
3.0293e-18
2.69772e-18
2.40013e-18
2.06421e-18
1.53955e-18
7.29301e-19
6.40664e-20
-4.65497e-52
-5.82983e-35
-4.33424e-68
5.85542e-31
2.8811e-43
5.01472e-43
1.0292e-42
1.2172e-42
3.47987e-45
9.87818e-52
9.87818e-52
-3.60822e-53
-4.24143e-53
-6.09929e-54
-5.2452e-55
-3.09566e-56
-1.31085e-57
-4.04958e-59
-9.15858e-61
-1.50933e-62
-1.7903e-64
-1.49726e-66
-8.55893e-69
-3.19258e-71
-7.23337e-74
-8.84605e-77
-4.67638e-80
-6.17564e-84
9.54416e-18
9.91559e-18
1.02682e-17
1.05311e-17
1.07099e-17
1.08057e-17
1.08114e-17
1.07853e-17
1.07096e-17
1.05749e-17
1.03822e-17
1.01337e-17
9.83401e-18
9.48644e-18
9.09433e-18
8.66178e-18
8.19329e-18
7.69438e-18
7.17122e-18
6.63055e-18
6.07959e-18
5.52557e-18
4.97623e-18
4.44017e-18
3.92703e-18
3.449e-18
3.0236e-18
2.6691e-18
2.36095e-18
1.9806e-18
1.33172e-18
4.46705e-19
9.66373e-22
-4.2767e-63
-1.53233e-60
1.82854e-28