/*--------------------------------*- C++ -*----------------------------------*\
| =========                 |                                                 |
| \\      /  F ield         | OpenFOAM: The Open Source CFD Toolbox           |
|  \\    /   O peration     | Version:  v2012                                 |
|   \\  /    A nd           | Website:  www.openfoam.com                      |
|    \\/     M anipulation  |                                                 |
\*---------------------------------------------------------------------------*/
FoamFile
{
    version     2.0;
    format      ascii;
    class       surfaceScalarField;
    location    "0.75";
    object      phi;
}
// * * * * * * * * * * * * * * * * * * * * * * * * * * * * * * * * * * * * * //

dimensions      [0 3 -1 0 0 0 0];
oriented        oriented;


internalField   nonuniform List<scalar> 
39020
(
5.91884e-15
-6.8571e-13
8.72373e-19
2.47267e-14
-2.18623e-12
2.49632e-18
5.74751e-14
-3.87217e-12
3.08772e-18
1.06058e-13
-5.74379e-12
2.98385e-18
1.72181e-13
-7.80848e-12
4.66513e-18
2.58273e-13
-1.00729e-11
3.29621e-18
3.66732e-13
-1.25468e-11
5.22064e-18
5.00453e-13
-1.52395e-11
3.81728e-18
6.62323e-13
-1.81587e-11
6.09864e-18
8.55492e-13
-2.13166e-11
5.16141e-18
1.08294e-12
-2.47183e-11
3.24617e-18
1.3477e-12
-2.83731e-11
5.14176e-19
1.65257e-12
-3.2292e-11
3.35739e-18
2.00003e-12
-3.64757e-11
-9.51722e-19
2.39228e-12
-4.09349e-11
3.08911e-18
2.83111e-12
-4.56681e-11
-9.65479e-19
3.3179e-12
-5.06791e-11
2.58577e-18
3.85361e-12
-5.59675e-11
-1.06291e-18
4.43879e-12
-6.15308e-11
1.74361e-18
5.07347e-12
-6.73602e-11
7.38928e-19
5.75719e-12
-7.34461e-11
2.84327e-18
6.48894e-12
-7.97806e-11
1.9865e-18
7.26703e-12
-8.63338e-11
3.52938e-18
8.08909e-12
-9.30947e-11
2.98845e-18
8.95194e-12
-1.00025e-10
4.02984e-18
9.85154e-12
-1.07098e-10
3.71092e-18
1.07829e-11
-1.14273e-10
4.4392e-18
1.174e-11
-1.21492e-10
4.36982e-18
1.27157e-11
-1.28724e-10
4.85519e-18
1.37019e-11
-1.35886e-10
5.12086e-18
1.46892e-11
-1.42926e-10
5.38903e-18
1.56672e-11
-1.4977e-10
5.25656e-18
1.66246e-11
-1.56336e-10
5.42364e-18
1.7549e-11
-1.62543e-10
5.43985e-18
1.84271e-11
-1.68301e-10
5.49372e-18
1.92451e-11
-1.73525e-10
5.59742e-18
1.99884e-11
-1.78115e-10
5.71974e-18
2.06427e-11
-1.81983e-10
5.82932e-18
2.11933e-11
-1.85035e-10
5.9303e-18
2.1626e-11
-1.87141e-10
6.01863e-18
2.19271e-11
-1.88323e-10
6.08143e-18
2.20842e-11
-1.88385e-10
6.12048e-18
2.20859e-11
-1.87369e-10
6.1274e-18
2.19225e-11
-1.85146e-10
6.1034e-18
2.15867e-11
-1.81683e-10
6.04e-18
2.10724e-11
-1.77083e-10
5.94196e-18
2.03772e-11
-1.71194e-10
5.72084e-18
1.95004e-11
-1.64163e-10
5.67473e-18
1.84447e-11
-1.55986e-10
5.70971e-18
1.72157e-11
-1.46774e-10
5.51731e-18
1.58216e-11
-1.36671e-10
5.23326e-18
1.42749e-11
-1.25747e-10
4.79262e-18
1.25912e-11
-1.14192e-10
4.61163e-18
1.07904e-11
-1.02172e-10
4.21328e-18
8.8983e-12
-8.98074e-11
3.70984e-18
6.94828e-12
-7.71801e-11
3.13702e-18
4.98334e-12
-6.4251e-11
2.42804e-18
3.07015e-12
-5.06392e-11
1.92172e-18
1.29201e-12
-3.5397e-11
1.21129e-18
-1.56028e-11
4.19931e-19
7.50894e-15
-6.93218e-13
6.92232e-19
3.12414e-14
-2.20996e-12
2.33023e-18
7.22972e-14
-3.91323e-12
2.95519e-18
1.32441e-13
-5.80393e-12
3.44722e-18
2.13e-13
-7.88904e-12
3.77046e-18
3.15845e-13
-1.01758e-11
4.03656e-18
4.42639e-13
-1.26736e-11
4.16082e-18
5.95414e-13
-1.53923e-11
4.6585e-18
7.76154e-13
-1.83395e-11
4.86566e-18
9.87118e-13
-2.15276e-11
6.07591e-18
1.23052e-12
-2.49618e-11
2.18258e-18
1.50883e-12
-2.86514e-11
2.81067e-18
1.82445e-12
-3.26076e-11
2.91531e-18
2.17982e-12
-3.68311e-11
2.81008e-18
2.57725e-12
-4.13324e-11
3.3302e-18
3.01885e-12
-4.61097e-11
2.90476e-18
3.50643e-12
-5.11667e-11
2.90318e-18
4.04145e-12
-5.65026e-11
2.30608e-18
4.62491e-12
-6.21142e-11
3.28361e-18
5.25725e-12
-6.79925e-11
2.30078e-18
5.93831e-12
-7.41272e-11
1.66738e-18
6.6673e-12
-8.05096e-11
2.32098e-18
7.44268e-12
-8.71091e-11
2.51728e-18
8.26214e-12
-9.39142e-11
3.24224e-18
9.12248e-12
-1.00886e-10
3.39067e-18
1.00196e-11
-1.07995e-10
3.98427e-18
1.09485e-11
-1.15202e-10
4.25397e-18
1.19031e-11
-1.22446e-10
4.73334e-18
1.28762e-11
-1.29697e-10
4.9821e-18
1.38595e-11
-1.36869e-10
5.22861e-18
1.48436e-11
-1.4391e-10
5.40758e-18
1.58181e-11
-1.50745e-10
5.71852e-18
1.67715e-11
-1.5729e-10
5.79235e-18
1.76914e-11
-1.63463e-10
5.71961e-18
1.85644e-11
-1.69175e-10
5.62016e-18
1.93767e-11
-1.74338e-10
5.71603e-18
2.01138e-11
-1.78852e-10
5.83254e-18
2.07614e-11
-1.82631e-10
5.93227e-18
2.13046e-11
-1.85578e-10
6.02996e-18
2.17295e-11
-1.87566e-10
6.10754e-18
2.20223e-11
-1.88616e-10
6.16438e-18
2.21707e-11
-1.88534e-10
6.18892e-18
2.21634e-11
-1.87362e-10
6.184e-18
2.1991e-11
-1.84974e-10
6.14317e-18
2.1646e-11
-1.81338e-10
6.06448e-18
2.11225e-11
-1.76559e-10
5.95274e-18
2.04184e-11
-1.70489e-10
5.77764e-18
1.95328e-11
-1.63277e-10
5.78908e-18
1.84687e-11
-1.54922e-10
5.767e-18
1.72318e-11
-1.45537e-10
5.49138e-18
1.58301e-11
-1.3527e-10
5.20121e-18
1.42762e-11
-1.24193e-10
4.82721e-18
1.25857e-11
-1.12502e-10
4.65857e-18
1.07785e-11
-1.00365e-10
4.18279e-18
8.87996e-12
-8.79089e-11
3.67731e-18
6.92331e-12
-7.52234e-11
3.10815e-18
4.95111e-12
-6.22788e-11
2.44849e-18
3.02936e-12
-4.87175e-11
1.95023e-18
1.24304e-12
-3.36106e-11
1.19257e-18
-1.43598e-11
4.0464e-19
7.20333e-15
-7.00422e-13
9.84335e-19
2.98399e-14
-2.2326e-12
1.80554e-18
6.93574e-14
-3.95274e-12
2.9249e-18
1.27484e-13
-5.86206e-12
3.04721e-18
2.0596e-13
-7.96752e-12
3.65005e-18
3.06894e-13
-1.02767e-11
3.88474e-18
4.32406e-13
-1.27991e-11
3.84095e-18
5.84934e-13
-1.55448e-11
4.5048e-18
7.6688e-13
-1.85214e-11
4.14385e-18
9.80838e-13
-2.17415e-11
4.78091e-18
1.22929e-12
-2.52102e-11
5.36517e-18
1.51476e-12
-2.89368e-11
7.40336e-18
1.83951e-12
-3.29324e-11
1.72082e-18
2.20582e-12
-3.71974e-11
2.47916e-18
2.61566e-12
-4.17422e-11
2.49361e-18
3.07073e-12
-4.65648e-11
1.58822e-18
3.57246e-12
-5.16684e-11
2.21365e-18
4.12193e-12
-5.70521e-11
6.2617e-19
4.71985e-12
-6.27121e-11
2.55873e-18
5.36642e-12
-6.86391e-11
3.38208e-18
6.06133e-12
-7.48221e-11
3.72952e-18
6.80368e-12
-8.1252e-11
3.43994e-18
7.59184e-12
-8.78973e-11
3.77518e-18
8.42345e-12
-9.47458e-11
3.75041e-18
9.29525e-12
-1.01758e-10
3.97111e-18
1.02031e-11
-1.08903e-10
4.09448e-18
1.11418e-11
-1.16141e-10
4.47413e-18
1.21053e-11
-1.2341e-10
4.74368e-18
1.30862e-11
-1.30678e-10
5.09923e-18
1.40761e-11
-1.37859e-10
5.37256e-18
1.50654e-11
-1.44899e-10
5.63797e-18
1.60436e-11
-1.51723e-10
5.8499e-18
1.69992e-11
-1.58245e-10
5.9571e-18
1.79194e-11
-1.64383e-10
5.83793e-18
1.87912e-11
-1.70046e-10
5.69121e-18
1.96002e-11
-1.75147e-10
5.79047e-18
2.03323e-11
-1.79584e-10
5.91438e-18
2.09729e-11
-1.83271e-10
6.02309e-18
2.15073e-11
-1.86113e-10
6.11889e-18
2.19218e-11
-1.8798e-10
6.19885e-18
2.22025e-11
-1.88897e-10
6.2474e-18
2.23375e-11
-1.88669e-10
6.26673e-18
2.23155e-11
-1.8734e-10
6.24786e-18
2.21275e-11
-1.84785e-10
6.19561e-18
2.17661e-11
-1.80976e-10
6.09892e-18
2.12259e-11
-1.76019e-10
5.97489e-18
2.05049e-11
-1.69768e-10
5.77587e-18
1.96025e-11
-1.62375e-10
5.77941e-18
1.85219e-11
-1.53841e-10
5.75246e-18
1.7269e-11
-1.44284e-10
5.47314e-18
1.5852e-11
-1.33853e-10
5.18254e-18
1.42834e-11
-1.22625e-10
4.81196e-18
1.2579e-11
-1.10797e-10
4.64803e-18
1.07582e-11
-9.8544e-11
4.16891e-18
8.84656e-12
-8.59972e-11
3.66457e-18
6.87671e-12
-7.32536e-11
3.09642e-18
4.89117e-12
-6.02932e-11
2.44005e-18
2.95737e-12
-4.67836e-11
1.94783e-18
1.17662e-12
-3.18299e-11
1.18629e-18
-1.31832e-11
3.99605e-19
8.423e-15
-7.08845e-13
6.76966e-19
3.48252e-14
-2.259e-12
2.30974e-18
8.07498e-14
-3.99867e-12
2.59151e-18
1.47843e-13
-5.92916e-12
2.47075e-18
2.37634e-13
-8.0573e-12
3.93219e-18
3.51827e-13
-1.03909e-11
3.07058e-18
4.92035e-13
-1.29393e-11
3.69593e-18
6.60082e-13
-1.57128e-11
4.30059e-18
8.57739e-13
-1.87191e-11
3.61172e-18
1.08701e-12
-2.19708e-11
5.03786e-18
1.34991e-12
-2.54731e-11
4.49351e-18
1.64861e-12
-2.92355e-11
7.44686e-18
1.98524e-12
-3.32691e-11
1.02079e-18
2.3621e-12
-3.75743e-11
3.00684e-18
2.78138e-12
-4.21615e-11
2.22746e-18
3.24506e-12
-4.70285e-11
2.30189e-18
3.75491e-12
-5.21783e-11
2.19742e-18
4.31236e-12
-5.76095e-11
1.63593e-18
4.91838e-12
-6.33182e-11
2.59359e-18
5.57339e-12
-6.92941e-11
2.38657e-18
6.27721e-12
-7.55259e-11
2.63024e-18
7.02896e-12
-8.20037e-11
3.583e-18
7.82696e-12
-8.86953e-11
3.86779e-18
8.66875e-12
-9.55876e-11
4.13705e-18
9.55089e-12
-1.0264e-10
4.05306e-18
1.0469e-11
-1.09822e-10
4.31157e-18
1.14178e-11
-1.1709e-10
4.495e-18
1.23908e-11
-1.24383e-10
4.84295e-18
1.33805e-11
-1.31667e-10
5.08086e-18
1.43781e-11
-1.38856e-10
5.38101e-18
1.53737e-11
-1.45895e-10
5.60622e-18
1.63568e-11
-1.52706e-10
5.85844e-18
1.73153e-11
-1.59204e-10
5.97917e-18
1.82365e-11
-1.65305e-10
5.91143e-18
1.91069e-11
-1.70916e-10
5.78442e-18
1.99123e-11
-1.75952e-10
5.8796e-18
2.06381e-11
-1.8031e-10
6.0047e-18
2.12699e-11
-1.83903e-10
6.11119e-18
2.17931e-11
-1.86636e-10
6.21195e-18
2.21939e-11
-1.88381e-10
6.28564e-18
2.24586e-11
-1.89161e-10
6.33161e-18
2.25755e-11
-1.88786e-10
6.33935e-18
2.25335e-11
-1.87298e-10
6.30983e-18
2.2324e-11
-1.84576e-10
6.24192e-18
2.19401e-11
-1.80592e-10
6.12922e-18
2.13765e-11
-1.75456e-10
5.98861e-18
2.06317e-11
-1.69023e-10
5.77367e-18
1.97055e-11
-1.61449e-10
5.74816e-18
1.86015e-11
-1.52737e-10
5.72271e-18
1.73257e-11
-1.43008e-10
5.44329e-18
1.58867e-11
-1.32414e-10
5.14836e-18
1.42971e-11
-1.21035e-10
4.76803e-18
1.25726e-11
-1.09073e-10
4.60705e-18
1.07327e-11
-9.67042e-11
4.13685e-18
8.8027e-12
-8.40672e-11
3.6355e-18
6.8152e-12
-7.12661e-11
3.06914e-18
4.81352e-12
-5.82915e-11
2.40913e-18
2.86909e-12
-4.48392e-11
1.92008e-18
1.10745e-12
-3.00683e-11
1.16652e-18
-1.20757e-11
3.80439e-19
8.20047e-15
-7.17046e-13
8.60874e-19
3.39512e-14
-2.28475e-12
1.75756e-18
7.89637e-14
-4.04368e-12
1.92493e-18
1.45061e-13
-5.99526e-12
2.77535e-18
2.3414e-13
-8.14638e-12
2.7879e-18
3.48255e-13
-1.0505e-11
3.05216e-18
4.89525e-13
-1.30806e-11
3.29294e-18
6.60218e-13
-1.58835e-11
3.59356e-18
8.62576e-13
-1.89214e-11
3.82299e-18
1.09894e-12
-2.22072e-11
3.88208e-18
1.37157e-12
-2.57457e-11
5.09308e-18
1.68266e-12
-2.95465e-11
6.42394e-18
2.03425e-12
-3.36207e-11
1.66788e-18
2.42834e-12
-3.79684e-11
1.98246e-18
2.86672e-12
-4.25999e-11
2.77965e-18
3.35091e-12
-4.75127e-11
1.6293e-18
3.88221e-12
-5.27096e-11
2.41065e-18
4.46162e-12
-5.81889e-11
1.20332e-18
5.08977e-12
-6.39463e-11
2.45294e-18
5.7668e-12
-6.99712e-11
2.06684e-18
6.49233e-12
-7.62514e-11
3.02156e-18
7.26533e-12
-8.27767e-11
3.61447e-18
8.08402e-12
-8.95139e-11
4.12509e-18
8.94581e-12
-9.64494e-11
4.0736e-18
9.84717e-12
-1.03541e-10
4.15646e-18
1.07836e-11
-1.10758e-10
4.2452e-18
1.17495e-11
-1.18056e-10
4.54449e-18
1.27384e-11
-1.25372e-10
4.80088e-18
1.37423e-11
-1.32671e-10
5.09101e-18
1.47523e-11
-1.39866e-10
5.33955e-18
1.57584e-11
-1.46901e-10
5.58436e-18
1.67494e-11
-1.53697e-10
5.82433e-18
1.77134e-11
-1.60168e-10
5.9811e-18
1.86371e-11
-1.66228e-10
5.98281e-18
1.9507e-11
-1.71786e-10
5.90193e-18
2.03087e-11
-1.76754e-10
5.9898e-18
2.10274e-11
-1.81029e-10
6.09542e-18
2.16489e-11
-1.84525e-10
6.20255e-18
2.21583e-11
-1.87145e-10
6.29645e-18
2.2542e-11
-1.88764e-10
6.37324e-18
2.27867e-11
-1.89406e-10
6.40828e-18
2.28809e-11
-1.8888e-10
6.41128e-18
2.28138e-11
-1.87231e-10
6.3665e-18
2.25771e-11
-1.84339e-10
6.28594e-18
2.21645e-11
-1.80179e-10
6.15556e-18
2.15711e-11
-1.74862e-10
6.00269e-18
2.0796e-11
-1.68248e-10
5.7646e-18
1.98395e-11
-1.60492e-10
5.73043e-18
1.87055e-11
-1.51603e-10
5.69999e-18
1.74005e-11
-1.41703e-10
5.41919e-18
1.59334e-11
-1.30947e-10
5.1228e-18
1.43171e-11
-1.19419e-10
4.74047e-18
1.25673e-11
-1.07323e-10
4.58163e-18
1.07036e-11
-9.48405e-11
4.11436e-18
8.75117e-12
-8.21148e-11
3.6139e-18
6.74315e-12
-6.9258e-11
3.04883e-18
4.72468e-12
-5.62731e-11
2.38542e-18
2.77324e-12
-4.28878e-11
1.89864e-18
1.03891e-12
-2.8334e-11
1.14998e-18
-1.10368e-11
3.668e-19
9.14848e-15
-7.26195e-13
8.78981e-19
3.78296e-14
-2.31343e-12
1.18403e-18
8.78543e-14
-4.09371e-12
2.01757e-18
1.61024e-13
-6.06843e-12
1.49145e-18
2.59118e-13
-8.24448e-12
3.00318e-18
3.83959e-13
-1.06298e-11
2.73351e-18
5.37344e-13
-1.3234e-11
2.72659e-18
7.21183e-13
-1.60674e-11
4.44169e-18
9.37347e-13
-1.91376e-11
2.46933e-18
1.18787e-12
-2.24577e-11
5.03099e-18
1.47474e-12
-2.60326e-11
3.6221e-18
1.80009e-12
-2.98718e-11
7.37644e-18
2.16593e-12
-3.39866e-11
3.92815e-19
2.57441e-12
-3.83769e-11
2.24678e-18
3.0275e-12
-4.3053e-11
1.54783e-18
3.52699e-12
-4.80122e-11
1.70033e-18
4.07438e-12
-5.3257e-11
1.4095e-18
4.67085e-12
-5.87854e-11
1.48691e-18
5.31708e-12
-6.45926e-11
1.86224e-18
6.01323e-12
-7.06673e-11
1.61297e-18
6.7588e-12
-7.6997e-11
2.5354e-18
7.55262e-12
-8.35706e-11
3.64772e-18
8.39263e-12
-9.0354e-11
4.02854e-18
9.27599e-12
-9.73327e-11
4.13243e-18
1.01988e-11
-1.04464e-10
4.09882e-18
1.11563e-11
-1.11715e-10
4.2703e-18
1.21425e-11
-1.19042e-10
4.53275e-18
1.31504e-11
-1.26379e-10
4.83482e-18
1.41718e-11
-1.33693e-10
5.11123e-18
1.51973e-11
-1.40892e-10
5.35984e-18
1.62165e-11
-1.4792e-10
5.59981e-18
1.7218e-11
-1.54698e-10
5.82411e-18
1.81892e-11
-1.61139e-10
6.00695e-18
1.91169e-11
-1.67156e-10
6.05062e-18
1.99869e-11
-1.72656e-10
6.02959e-18
2.07848e-11
-1.77552e-10
6.0925e-18
2.14957e-11
-1.8174e-10
6.19429e-18
2.21052e-11
-1.85134e-10
6.28445e-18
2.25986e-11
-1.87639e-10
6.38484e-18
2.29623e-11
-1.89128e-10
6.45209e-18
2.31833e-11
-1.89627e-10
6.48629e-18
2.32504e-11
-1.88947e-10
6.47717e-18
2.31532e-11
-1.87134e-10
6.42271e-18
2.28839e-11
-1.8407e-10
6.32562e-18
2.24368e-11
-1.79732e-10
6.18061e-18
2.18077e-11
-1.74233e-10
6.01109e-18
2.0996e-11
-1.67436e-10
5.76406e-18
2.00029e-11
-1.59499e-10
5.71313e-18
1.88328e-11
-1.50433e-10
5.67894e-18
1.74928e-11
-1.40363e-10
5.38859e-18
1.59921e-11
-1.29446e-10
5.08591e-18
1.43438e-11
-1.1777e-10
4.70058e-18
1.2564e-11
-1.05543e-10
4.54533e-18
1.06723e-11
-9.29489e-11
4.07811e-18
8.69439e-12
-8.01368e-11
3.5788e-18
6.66407e-12
-6.72277e-11
3.0155e-18
4.6294e-12
-5.42384e-11
2.35149e-18
2.67512e-12
-4.09335e-11
1.86787e-18
9.73102e-13
-2.6632e-11
1.12346e-18
-1.00637e-11
3.41699e-19
9.15654e-15
-7.35351e-13
1.61412e-19
3.79203e-14
-2.3422e-12
1.39128e-18
8.82283e-14
-4.14401e-12
6.79716e-19
1.62081e-13
-6.14228e-12
1.90616e-18
2.61558e-13
-8.34395e-12
1.69351e-18
3.88819e-13
-1.07571e-11
1.71011e-18
5.4609e-13
-1.33912e-11
2.42479e-18
7.35641e-13
-1.62569e-11
7.47894e-19
9.59788e-13
-1.93617e-11
4.25949e-18
1.22079e-12
-2.27187e-11
3.11916e-18
1.52084e-12
-2.63326e-11
4.7506e-18
1.86209e-12
-3.0213e-11
5.74186e-18
2.24646e-12
-3.4371e-11
2.2936e-18
2.67585e-12
-3.88063e-11
2.4289e-18
3.15193e-12
-4.35291e-11
3.14853e-18
3.67608e-12
-4.85364e-11
2.48348e-18
4.24945e-12
-5.38304e-11
1.99006e-18
4.87287e-12
-5.94088e-11
1.7282e-18
5.54673e-12
-6.52665e-11
2.05749e-18
6.27091e-12
-7.13915e-11
1.34921e-18
7.04474e-12
-7.77708e-11
2.60414e-18
7.86682e-12
-8.43927e-11
3.62226e-18
8.73493e-12
-9.12221e-11
4.06079e-18
9.646e-12
-9.82438e-11
4.09704e-18
1.05959e-11
-1.05414e-10
4.07632e-18
1.15796e-11
-1.12699e-10
4.25356e-18
1.25907e-11
-1.20053e-10
4.52576e-18
1.36219e-11
-1.27411e-10
4.86325e-18
1.46646e-11
-1.34735e-10
5.13203e-18
1.57091e-11
-1.41936e-10
5.40753e-18
1.67444e-11
-1.48955e-10
5.62444e-18
1.77587e-11
-1.55713e-10
5.86693e-18
1.8739e-11
-1.62119e-10
6.03313e-18
1.96717e-11
-1.68089e-10
6.13255e-18
2.05425e-11
-1.73527e-10
6.12519e-18
2.13365e-11
-1.78346e-10
6.19961e-18
2.20388e-11
-1.82443e-10
6.27524e-18
2.26348e-11
-1.8573e-10
6.37179e-18
2.31099e-11
-1.88114e-10
6.46054e-18
2.34508e-11
-1.89468e-10
6.53362e-18
2.36445e-11
-1.89821e-10
6.55538e-18
2.36803e-11
-1.88982e-10
6.54297e-18
2.35483e-11
-1.87002e-10
6.47244e-18
2.32414e-11
-1.83763e-10
6.36478e-18
2.27543e-11
-1.79245e-10
6.20275e-18
2.20836e-11
-1.73563e-10
6.02105e-18
2.12297e-11
-1.66582e-10
5.75275e-18
2.01943e-11
-1.58464e-10
5.69931e-18
1.89824e-11
-1.49221e-10
5.66144e-18
1.76018e-11
-1.38982e-10
5.36711e-18
1.60623e-11
-1.27907e-10
5.06253e-18
1.43774e-11
-1.16085e-10
4.67469e-18
1.25634e-11
-1.03729e-10
4.52334e-18
1.06405e-11
-9.1026e-11
4.05677e-18
8.63458e-12
-7.81309e-11
3.55692e-18
6.58104e-12
-6.51742e-11
2.99341e-18
4.53147e-12
-5.21888e-11
2.32902e-18
2.57839e-12
-3.89804e-11
1.84747e-18
9.11705e-13
-2.49653e-11
1.10523e-18
-9.15202e-12
3.28331e-19
9.92559e-15
-7.45277e-13
7.09438e-19
4.11216e-14
-2.37339e-12
2.82627e-19
9.56435e-14
-4.19854e-12
1.0083e-18
1.75509e-13
-6.22214e-12
5.67069e-19
2.82759e-13
-8.4512e-12
1.7728e-18
4.19455e-13
-1.08938e-11
1.36613e-18
5.87664e-13
-1.35595e-11
1.76664e-18
7.89497e-13
-1.64588e-11
1.10634e-18
1.02709e-12
-1.95993e-11
2.71678e-18
1.30259e-12
-2.29941e-11
3.45107e-18
1.6181e-12
-2.66481e-11
3.03262e-18
1.97579e-12
-3.05707e-11
5.98045e-18
2.37766e-12
-3.47729e-11
8.93279e-19
2.82576e-12
-3.92544e-11
2.26169e-18
3.32191e-12
-4.40253e-11
2.10187e-18
3.86766e-12
-4.90822e-11
2.24627e-18
4.46423e-12
-5.4427e-11
1.23219e-18
5.11249e-12
-6.00571e-11
1.47255e-18
5.81277e-12
-6.59668e-11
1.66755e-18
6.56481e-12
-7.21436e-11
1.13536e-18
7.36769e-12
-7.85737e-11
2.51823e-18
8.21972e-12
-8.52447e-11
3.55931e-18
9.11833e-12
-9.21207e-11
4.12243e-18
1.00601e-11
-9.91855e-11
4.06343e-18
1.10403e-11
-1.06394e-10
4.13116e-18
1.20537e-11
-1.13712e-10
4.22348e-18
1.30933e-11
-1.21093e-10
4.58861e-18
1.41513e-11
-1.28469e-10
4.86651e-18
1.52186e-11
-1.35803e-10
5.21642e-18
1.6285e-11
-1.43003e-10
5.43543e-18
1.7339e-11
-1.50009e-10
5.70856e-18
1.83682e-11
-1.56742e-10
5.89418e-18
1.93593e-11
-1.6311e-10
6.09953e-18
2.02982e-11
-1.69028e-10
6.17774e-18
2.11702e-11
-1.74399e-10
6.22128e-18
2.19602e-11
-1.79136e-10
6.27362e-18
2.2653e-11
-1.83135e-10
6.36554e-18
2.32339e-11
-1.86311e-10
6.44078e-18
2.36885e-11
-1.88569e-10
6.54081e-18
2.40036e-11
-1.89783e-10
6.60116e-18
2.41665e-11
-1.89984e-10
6.62518e-18
2.4167e-11
-1.88983e-10
6.60017e-18
2.39958e-11
-1.86831e-10
6.52276e-18
2.36463e-11
-1.83413e-10
6.39918e-18
2.31141e-11
-1.78713e-10
6.22354e-18
2.23966e-11
-1.72845e-10
6.02729e-18
2.14949e-11
-1.65681e-10
5.75044e-18
2.04117e-11
-1.5738e-10
5.68256e-18
1.91528e-11
-1.47963e-10
5.6439e-18
1.77267e-11
-1.37556e-10
5.34063e-18
1.61436e-11
-1.26324e-10
5.03079e-18
1.44179e-11
-1.1436e-10
4.63806e-18
1.25662e-11
-1.01877e-10
4.4901e-18
1.06092e-11
-8.90689e-11
4.02313e-18
8.57364e-12
-7.60954e-11
3.52538e-18
6.49662e-12
-6.30971e-11
2.963e-18
4.43381e-12
-5.0126e-11
2.2996e-18
2.48549e-12
-3.70321e-11
1.82079e-18
8.55603e-13
-2.33354e-11
1.08231e-18
-8.29642e-12
3.061e-19
1.02223e-14
-7.55498e-13
-8.43527e-19
4.22233e-14
-2.4054e-12
2.39839e-19
9.81536e-14
-4.25446e-12
1.69124e-19
1.80248e-13
-6.30424e-12
5.3354e-19
2.90816e-13
-8.56177e-12
2.05749e-19
4.32212e-13
-1.10352e-11
1.55997e-18
6.0684e-13
-1.37341e-11
6.23177e-19
8.17112e-13
-1.66691e-11
8.8366e-19
1.06547e-12
-1.98476e-11
2.13541e-18
1.35428e-12
-2.32829e-11
3.06207e-18
1.6858e-12
-2.69796e-11
2.68578e-18
2.06221e-12
-3.09471e-11
5.57273e-18
2.48549e-12
-3.51962e-11
4.96853e-19
2.95749e-12
-3.97264e-11
1.92716e-18
3.47985e-12
-4.45476e-11
1.69466e-18
4.05384e-12
-4.96562e-11
2.05609e-18
4.68043e-12
-5.50536e-11
7.61886e-19
5.36021e-12
-6.07369e-11
1.40166e-18
6.09326e-12
-6.66998e-11
1.41051e-18
6.87908e-12
-7.29294e-11
1.06862e-18
7.71649e-12
-7.94111e-11
2.138e-18
8.60357e-12
-8.61318e-11
3.57799e-18
9.53742e-12
-9.30545e-11
3.90904e-18
1.05143e-11
-1.00162e-10
4.11554e-18
1.15292e-11
-1.07409e-10
3.9895e-18
1.25761e-11
-1.14759e-10
4.28357e-18
1.36479e-11
-1.22164e-10
4.50918e-18
1.47362e-11
-1.29557e-10
4.94117e-18
1.58314e-11
-1.36898e-10
5.19252e-18
1.69225e-11
-1.44094e-10
5.51991e-18
1.79976e-11
-1.51085e-10
5.71827e-18
1.90437e-11
-1.57788e-10
5.9701e-18
2.00471e-11
-1.64114e-10
6.11434e-18
2.09931e-11
-1.69974e-10
6.24816e-18
2.18666e-11
-1.75272e-10
6.26609e-18
2.26521e-11
-1.79921e-10
6.35901e-18
2.33345e-11
-1.83818e-10
6.42606e-18
2.38988e-11
-1.86875e-10
6.51862e-18
2.43307e-11
-1.89001e-10
6.60142e-18
2.46172e-11
-1.9007e-10
6.6716e-18
2.47459e-11
-1.90113e-10
6.68191e-18
2.47072e-11
-1.88944e-10
6.6561e-18
2.44923e-11
-1.86616e-10
6.56434e-18
2.40955e-11
-1.83017e-10
6.43253e-18
2.35133e-11
-1.7813e-10
6.24054e-18
2.27439e-11
-1.72076e-10
6.03417e-18
2.17894e-11
-1.64726e-10
5.7365e-18
2.06533e-11
-1.56244e-10
5.66836e-18
1.93424e-11
-1.46652e-10
5.62768e-18
1.78662e-11
-1.3608e-10
5.32189e-18
1.62355e-11
-1.24693e-10
5.00913e-18
1.44653e-11
-1.12589e-10
4.61488e-18
1.25728e-11
-9.99847e-11
4.47216e-18
1.05794e-11
-8.70756e-11
4.00437e-18
8.51309e-12
-7.4029e-11
3.50708e-18
6.41279e-12
-6.09968e-11
2.94594e-18
4.33856e-12
-4.80518e-11
2.28152e-18
2.39796e-12
-3.50915e-11
1.80628e-18
8.05073e-13
-2.17425e-11
1.06938e-18
-7.49135e-12
2.96729e-19
1.09007e-14
-7.66399e-13
3.21418e-19
4.5126e-14
-2.43962e-12
-6.03593e-19
1.04945e-13
-4.31428e-12
-8.08386e-19
1.92658e-13
-6.39196e-12
-9.40127e-19
3.10608e-13
-8.67972e-12
1.34774e-18
4.61141e-13
-1.11858e-11
-1.36485e-18
6.46633e-13
-1.39196e-11
1.99643e-18
8.69455e-13
-1.68919e-11
-2.07439e-18
1.13201e-12
-2.01102e-11
2.61318e-18
1.43666e-12
-2.35876e-11
5.4556e-19
1.78567e-12
-2.73286e-11
2.68377e-18
2.18132e-12
-3.13427e-11
3.58568e-18
2.62565e-12
-3.56406e-11
2.92769e-19
3.12067e-12
-4.02215e-11
4.31057e-19
3.6681e-12
-4.50951e-11
1.71597e-18
4.26929e-12
-5.02574e-11
8.34209e-19
4.92522e-12
-5.57096e-11
8.40008e-19
5.63644e-12
-6.14482e-11
4.63099e-19
6.40287e-12
-6.74663e-11
1.30749e-18
7.22377e-12
-7.37504e-11
5.88503e-19
8.09768e-12
-8.0285e-11
2.37103e-18
9.02229e-12
-8.70564e-11
3.29988e-18
9.9943e-12
-9.40265e-11
4.10771e-18
1.10094e-11
-1.01177e-10
3.91181e-18
1.20623e-11
-1.08462e-10
4.12597e-18
1.31462e-11
-1.15843e-10
4.1407e-18
1.42536e-11
-1.23272e-10
4.61044e-18
1.53753e-11
-1.30679e-10
4.8542e-18
1.65011e-11
-1.38024e-10
5.28497e-18
1.76196e-11
-1.45212e-10
5.48239e-18
1.87179e-11
-1.52183e-10
5.80541e-18
1.97828e-11
-1.58853e-10
5.95819e-18
2.07997e-11
-1.65131e-10
6.17882e-18
2.17534e-11
-1.70927e-10
6.25234e-18
2.26285e-11
-1.76147e-10
6.33307e-18
2.34092e-11
-1.80702e-10
6.39668e-18
2.408e-11
-1.84489e-10
6.5018e-18
2.4626e-11
-1.87421e-10
6.56818e-18
2.50329e-11
-1.89408e-10
6.66969e-18
2.52879e-11
-1.90324e-10
6.72369e-18
2.53791e-11
-1.90204e-10
6.73992e-18
2.52973e-11
-1.88862e-10
6.70059e-18
2.50346e-11
-1.86354e-10
6.60493e-18
2.4586e-11
-1.82568e-10
6.45855e-18
2.39491e-11
-1.77493e-10
6.25563e-18
2.31229e-11
-1.7125e-10
6.0355e-18
2.21107e-11
-1.63714e-10
5.73022e-18
2.0917e-11
-1.55051e-10
5.65106e-18
1.95498e-11
-1.45285e-10
5.61102e-18
1.80192e-11
-1.34549e-10
5.29654e-18
1.63371e-11
-1.23011e-10
4.97905e-18
1.45191e-11
-1.10771e-10
4.57989e-18
1.25834e-11
-9.80489e-11
4.4417e-18
1.05519e-11
-8.50441e-11
3.9755e-18
8.45407e-12
-7.19312e-11
3.47836e-18
6.33106e-12
-5.88738e-11
2.91987e-18
4.24723e-12
-4.59679e-11
2.25689e-18
2.31662e-12
-3.31608e-11
1.78729e-18
7.60031e-13
-2.01859e-11
1.05289e-18
-6.73133e-12
2.81376e-19
1.12885e-14
-7.77689e-13
-2.91452e-19
4.67874e-14
-2.47512e-12
-2.0211e-18
1.08944e-13
-4.37644e-12
-9.89576e-19
2.00239e-13
-6.48324e-12
2.54494e-19
3.23215e-13
-8.8027e-12
-2.2175e-18
4.80472e-13
-1.1343e-11
1.61638e-18
6.74632e-13
-1.41138e-11
-2.04811e-18
9.08327e-13
-1.71256e-11
9.62367e-19
1.1842e-12
-2.0386e-11
5.45339e-19
1.50478e-12
-2.39081e-11
4.67582e-18
1.87248e-12
-2.76963e-11
1.44031e-18
2.28964e-12
-3.17598e-11
8.01359e-18
2.75825e-12
-3.61092e-11
-1.70513e-18
3.28027e-12
-4.07435e-11
2.76904e-18
3.85728e-12
-4.56721e-11
7.56056e-19
4.49045e-12
-5.08905e-11
2.74252e-18
5.18058e-12
-5.63997e-11
7.5204e-19
5.92798e-12
-6.21955e-11
2.42417e-18
6.73234e-12
-6.82707e-11
1.28437e-18
7.59266e-12
-7.46107e-11
7.63053e-19
8.5072e-12
-8.11995e-11
1.4002e-18
9.47329e-12
-8.80225e-11
3.30026e-18
1.04872e-11
-9.50404e-11
3.5282e-18
1.15443e-11
-1.02235e-10
3.98556e-18
1.26386e-11
-1.09556e-10
3.78169e-18
1.3763e-11
-1.16968e-10
4.21757e-18
1.49091e-11
-1.24418e-10
4.39173e-18
1.60671e-11
-1.31837e-10
4.92198e-18
1.72264e-11
-1.39183e-10
5.155e-18
1.83745e-11
-1.4636e-10
5.54841e-18
1.94981e-11
-1.53307e-10
5.74023e-18
2.05832e-11
-1.59938e-10
6.01758e-18
2.16146e-11
-1.66162e-10
6.14298e-18
2.25766e-11
-1.71889e-10
6.302e-18
2.34533e-11
-1.77024e-10
6.33094e-18
2.42285e-11
-1.81477e-10
6.45983e-18
2.48865e-11
-1.85147e-10
6.53476e-18
2.54123e-11
-1.87947e-10
6.63225e-18
2.57918e-11
-1.89787e-10
6.71083e-18
2.60124e-11
-1.90545e-10
6.78028e-18
2.60626e-11
-1.90255e-10
6.78116e-18
2.5934e-11
-1.88733e-10
6.7455e-18
2.56194e-11
-1.86039e-10
6.63462e-18
2.51147e-11
-1.82063e-10
6.48221e-18
2.44184e-11
-1.76797e-10
6.26564e-18
2.35308e-11
-1.70362e-10
6.03635e-18
2.24564e-11
-1.62639e-10
5.71166e-18
2.12008e-11
-1.53795e-10
5.63543e-18
1.9773e-11
-1.43857e-10
5.59501e-18
1.81843e-11
-1.3296e-10
5.27738e-18
1.64474e-11
-1.21274e-10
4.95803e-18
1.4579e-11
-1.08903e-10
4.55796e-18
1.25978e-11
-9.60677e-11
4.42566e-18
1.05271e-11
-8.29734e-11
3.959e-18
8.39744e-12
-6.98015e-11
3.46334e-18
6.25251e-12
-5.67289e-11
2.90588e-18
4.16079e-12
-4.38762e-11
2.24382e-18
2.24185e-12
-3.12419e-11
1.77833e-18
7.20191e-13
-1.86643e-11
1.04584e-18
-6.01114e-12
2.79015e-19
1.20046e-14
-7.89692e-13
-1.07721e-18
4.97524e-14
-2.51287e-12
-9.5127e-19
1.15832e-13
-4.44252e-12
-2.00736e-18
2.12829e-13
-6.58025e-12
-1.07092e-18
3.43391e-13
-8.93326e-12
4.30605e-21
5.10161e-13
-1.15098e-11
-2.69934e-18
7.15843e-13
-1.43194e-11
1.7033e-18
9.63083e-13
-1.73729e-11
-4.64242e-18
1.2546e-12
-2.06775e-11
3.87944e-18
1.59295e-12
-2.42465e-11
-6.30769e-19
1.98066e-12
-2.8084e-11
4.04722e-18
2.42012e-12
-3.21992e-11
3.74742e-18
2.91346e-12
-3.66026e-11
1.10665e-19
3.46269e-12
-4.12927e-11
-4.79673e-19
4.06947e-12
-4.62789e-11
2.08385e-18
4.735e-12
-5.15561e-11
3.32109e-19
5.46002e-12
-5.71247e-11
1.46993e-18
6.24472e-12
-6.29803e-11
5.47868e-19
7.0886e-12
-6.91146e-11
1.60251e-18
7.9904e-12
-7.55125e-11
5.27572e-19
8.948e-12
-8.21571e-11
2.50274e-18
9.95831e-12
-8.90328e-11
2.89593e-18
1.10172e-11
-9.60993e-11
3.88866e-18
1.21193e-11
-1.03337e-10
3.58108e-18
1.32582e-11
-1.10695e-10
3.98147e-18
1.4426e-11
-1.18136e-10
3.92803e-18
1.56137e-11
-1.25606e-10
4.50684e-18
1.68109e-11
-1.33034e-10
4.71243e-18
1.8006e-11
-1.40378e-10
5.22884e-18
1.91859e-11
-1.4754e-10
5.40922e-18
2.03366e-11
-1.54457e-10
5.80025e-18
2.14431e-11
-1.61045e-10
5.93198e-18
2.24898e-11
-1.67209e-10
6.18266e-18
2.34604e-11
-1.7286e-10
6.25264e-18
2.43383e-11
-1.77902e-10
6.37189e-18
2.51071e-11
-1.82246e-10
6.45961e-18
2.57509e-11
-1.85791e-10
6.59187e-18
2.62546e-11
-1.88451e-10
6.65789e-18
2.66041e-11
-1.90137e-10
6.76404e-18
2.67873e-11
-1.90728e-10
6.81333e-18
2.67932e-11
-1.90261e-10
6.82543e-18
2.6614e-11
-1.88554e-10
6.77422e-18
2.62433e-11
-1.85668e-10
6.66382e-18
2.56782e-11
-1.81498e-10
6.49735e-18
2.49183e-11
-1.76037e-10
6.2726e-18
2.3965e-11
-1.69409e-10
6.03106e-18
2.28241e-11
-1.61498e-10
5.70011e-18
2.15025e-11
-1.52473e-10
5.61383e-18
2.00104e-11
-1.42365e-10
5.57608e-18
1.83601e-11
-1.3131e-10
5.25138e-18
1.65656e-11
-1.1948e-10
4.9277e-18
1.46443e-11
-1.06982e-10
4.52361e-18
1.2616e-11
-9.40395e-11
4.39697e-18
1.05051e-11
-8.08625e-11
3.93078e-18
8.34372e-12
-6.76401e-11
3.43791e-18
6.17785e-12
-5.4563e-11
2.88327e-18
4.07979e-12
-4.17781e-11
2.22101e-18
2.17365e-12
-2.93358e-11
1.7626e-18
6.85158e-13
-1.71758e-11
1.03588e-18
-5.32598e-12
2.70597e-19
1.25611e-14
-8.02253e-13
-9.2634e-19
5.20798e-14
-2.55238e-12
-2.00556e-18
1.21309e-13
-4.51175e-12
-7.08483e-19
2.23022e-13
-6.68195e-12
-1.75745e-18
3.60067e-13
-9.07031e-12
-1.53098e-18
5.35317e-13
-1.1685e-11
-3.19018e-19
7.5168e-13
-1.45358e-11
-2.72283e-18
1.01205e-12
-1.76333e-11
-2.96128e-19
1.31929e-12
-2.09848e-11
-1.66993e-18
1.6762e-12
-2.46034e-11
3.999e-18
2.08536e-12
-2.84931e-11
-1.00247e-18
2.54926e-12
-3.2663e-11
7.46187e-18
3.07004e-12
-3.71234e-11
-3.52959e-18
3.64969e-12
-4.18724e-11
2.49278e-18
4.28976e-12
-4.6919e-11
-6.22795e-19
4.99134e-12
-5.22577e-11
2.43533e-18
5.75499e-12
-5.78884e-11
-8.88739e-19
6.58073e-12
-6.3806e-11
1.62881e-18
7.4678e-12
-7.00016e-11
3.73581e-19
8.41464e-12
-7.64594e-11
9.43488e-19
9.41877e-12
-8.31612e-11
1.20872e-18
1.04767e-11
-9.00908e-11
3.05696e-18
1.15838e-11
-9.72063e-11
3.08312e-18
1.27342e-11
-1.04487e-10
3.72852e-18
1.39207e-11
-1.11882e-10
3.469e-18
1.5135e-11
-1.1935e-10
4.03065e-18
1.63671e-11
-1.26838e-10
4.15163e-18
1.7606e-11
-1.34273e-10
4.77243e-18
1.88391e-11
-1.41611e-10
4.98312e-18
2.00527e-11
-1.48754e-10
5.44909e-18
2.12318e-11
-1.55637e-10
5.64358e-18
2.23609e-11
-1.62174e-10
5.96287e-18
2.34235e-11
-1.68271e-10
6.07976e-18
2.44025e-11
-1.73839e-10
6.27525e-18
2.52812e-11
-1.78781e-10
6.32203e-18
2.60426e-11
-1.83007e-10
6.50048e-18
2.66705e-11
-1.86419e-10
6.593e-18
2.71499e-11
-1.8893e-10
6.70487e-18
2.74668e-11
-1.90454e-10
6.78353e-18
2.76096e-11
-1.9087e-10
6.85418e-18
2.75676e-11
-1.90219e-10
6.84847e-18
2.7334e-11
-1.8832e-10
6.80423e-18
2.69033e-11
-1.85238e-10
6.6788e-18
2.62736e-11
-1.80868e-10
6.51025e-18
2.54458e-11
-1.75209e-10
6.27238e-18
2.44226e-11
-1.68386e-10
6.02447e-18
2.32112e-11
-1.60287e-10
5.6747e-18
2.18198e-11
-1.51082e-10
5.5932e-18
2.02598e-11
-1.40805e-10
5.55782e-18
1.8545e-11
-1.29595e-10
5.2309e-18
1.66902e-11
-1.17625e-10
4.90529e-18
1.47141e-11
-1.05005e-10
4.4999e-18
1.26376e-11
-9.19629e-11
4.38166e-18
1.0486e-11
-7.8711e-11
3.91617e-18
8.29318e-12
-6.54473e-11
3.42449e-18
6.10743e-12
-5.23773e-11
2.87139e-18
4.00445e-12
-3.96751e-11
2.21267e-18
2.11181e-12
-2.74431e-11
1.75608e-18
6.54482e-13
-1.57185e-11
1.03515e-18
-4.6715e-12
2.74695e-19
1.33835e-14
-8.15637e-13
-9.23339e-19
5.53714e-14
-2.59437e-12
-1.68306e-18
1.28815e-13
-4.58519e-12
-1.88011e-18
2.36655e-13
-6.78979e-12
-2.96266e-19
3.81877e-13
-9.21553e-12
-1.84306e-18
5.67479e-13
-1.18707e-11
-2.29136e-18
7.96495e-13
-1.47648e-11
-1.16378e-19
1.07189e-12
-1.79087e-11
-6.08595e-18
1.39668e-12
-2.13095e-11
2.41684e-18
1.7737e-12
-2.49804e-11
-1.9754e-18
2.20568e-12
-2.89251e-11
2.96148e-18
2.69517e-12
-3.31525e-11
1.91833e-18
3.24443e-12
-3.76727e-11
-7.66236e-19
3.85549e-12
-4.24834e-11
-2.63501e-18
4.52995e-12
-4.75934e-11
7.2468e-19
5.26885e-12
-5.29966e-11
-8.76976e-19
6.07268e-12
-5.86923e-11