/*--------------------------------*- C++ -*----------------------------------*\
| =========                 |                                                 |
| \\      /  F ield         | OpenFOAM: The Open Source CFD Toolbox           |
|  \\    /   O peration     | Version:  v2012                                 |
|   \\  /    A nd           | Website:  www.openfoam.com                      |
|    \\/     M anipulation  |                                                 |
\*---------------------------------------------------------------------------*/
FoamFile
{
    version     2.0;
    format      ascii;
    class       volScalarField;
    location    "0.65";
    object      alpha.water;
}
// * * * * * * * * * * * * * * * * * * * * * * * * * * * * * * * * * * * * * //

dimensions      [0 0 0 0 0 0 0];


internalField   nonuniform List<scalar> 
2642
(
-1.09016e-64
-5.81308e-66
-2.6158e-67
-9.93911e-69
-3.18731e-70
-8.62305e-72
-1.96528e-73
-3.76713e-75
-6.05989e-77
-8.15155e-79
-9.13687e-81
-8.49002e-83
-6.50072e-85
-4.07038e-87
-2.06377e-89
-8.37292e-92
-2.67647e-94
-6.60603e-97
-1.22571e-99
-1.64757e-102
-1.51993e-105
-8.83609e-109
-2.77346e-112
-3.1985e-116
-7.76686e-64
-4.25607e-65
-1.96762e-66
-7.67838e-68
-2.5278e-69
-7.01697e-71
-1.63994e-72
-3.22139e-74
-5.30659e-76
-7.3042e-78
-8.37057e-80
-7.94539e-82
-6.20903e-84
-3.96408e-86
-2.04732e-88
-8.45207e-91
-2.74617e-93
-6.88107e-96
-1.29434e-98
-1.76082e-101
-1.64025e-104
-9.59387e-108
-3.00724e-111
-3.37864e-115
-5.39365e-63
-3.04065e-64
-1.44584e-65
-5.80133e-67
-1.96291e-68
-5.59745e-70
-1.34307e-71
-2.70681e-73
-4.57148e-75
-6.44609e-77
-7.56116e-79
-7.33941e-81
-5.85947e-83
-3.81781e-85
-2.01006e-87
-8.44913e-90
-2.79136e-92
-7.10084e-95
-1.35347e-97
-1.86121e-100
-1.7463e-103
-1.02268e-106
-3.17069e-110
-3.41801e-114
-3.64601e-62
-2.11666e-63
-1.03626e-64
-4.27968e-66
-1.48986e-67
-4.36905e-69
-1.07745e-70
-2.23036e-72
-3.8661e-74
-5.59063e-76
-6.71922e-78
-6.67641e-80
-5.45061e-82
-3.62762e-84
-1.94854e-86
-8.34487e-89
-2.80456e-91
-7.24456e-94
-1.39902e-96
-1.94325e-99
-1.83348e-102
-1.07177e-105
-3.26915e-109
-3.36497e-113
-2.39582e-61
-1.43366e-62
-7.23344e-64
-3.07784e-65
-1.10351e-66
-3.33125e-68
-8.45206e-70
-1.79888e-71
-3.20364e-73
-4.75575e-75
-5.86239e-77
-5.96856e-79
-4.98743e-81
-3.39352e-83
-1.8611e-85
-8.12608e-88
-2.77968e-90
-7.29349e-93
-1.42703e-95
-2.00138e-98
-1.897e-101
-1.10483e-104
-3.30629e-108
-3.24132e-112
-1.52825e-60
-9.43469e-62
-4.91021e-63
-2.15458e-64
-7.96337e-66
-2.47703e-67
-6.47218e-69
-1.41766e-70
-2.59644e-72
-3.96059e-74
-5.01217e-76
-5.23353e-78
-4.4802e-80
-3.11915e-82
-1.74796e-84
-7.7866e-87
-2.7126e-89
-7.2328e-92
-1.43412e-94
-2.03066e-97
-1.93266e-100
-1.12041e-103
-3.28584e-107
-3.06581e-111
-9.45024e-60
-6.02393e-61
-3.23668e-62
-1.4659e-63
-5.59024e-65
-1.79334e-66
-4.82993e-68
-1.08979e-69
-2.05452e-71
-3.22327e-73
-4.19148e-75
-4.49261e-77
-3.94343e-79
-2.81153e-81
-1.61123e-83
-7.32818e-86
-2.60159e-88
-7.05296e-91
-1.41774e-93
-2.02716e-96
-1.93723e-99
-1.11771e-102
-3.21267e-106
-2.85612e-110
-5.65702e-59
-3.72633e-60
-2.06875e-61
-9.67878e-63
-3.81161e-64
-1.26215e-65
-3.50692e-67
-8.15809e-69
-1.58452e-70
-2.55898e-72
-3.4223e-74
-3.76864e-76
-3.39469e-78
-2.48059e-80
-1.4549e-82
-6.76113e-85
-2.44776e-87
-6.75121e-90
-1.37653e-92
-1.98843e-95
-1.90871e-98
-1.09651e-101
-3.09241e-105
-2.62633e-109
-3.27347e-58
-2.22998e-59
-1.28022e-60
-6.19241e-62
-2.52039e-63
-8.62186e-65
-2.47351e-66
-5.93743e-68
-1.18908e-69
-1.97845e-71
-2.72346e-73
-3.08377e-75
-2.85293e-77
-2.13837e-79
-1.28459e-81
-6.1042e-84
-2.25528e-86
-6.33282e-89
-1.31059e-91
-1.91384e-94
-1.84662e-97
-1.0573e-100
-2.93106e-104
-2.38675e-108
-1.82838e-57
-1.28912e-58
-7.65915e-60
-3.83324e-61
-1.61378e-62
-5.70767e-64
-1.69208e-65
-4.19447e-67
-8.6685e-69
-1.48714e-70
-2.1088e-72
-2.45718e-74
-2.3366e-76
-1.79784e-78
-1.10707e-80
-5.38333e-83
-2.03131e-85
-5.81143e-88
-1.22166e-90
-1.80492e-93
-1.75225e-96
-1.00128e-99
-2.73497e-103
-2.14476e-107
-9.84221e-57
-7.18785e-58
-4.42315e-59
-2.29232e-60
-9.99013e-62
-3.65605e-63
-1.12089e-64
-2.87166e-66
-6.12903e-68
-1.085e-69
-1.58613e-71
-1.90333e-73
-1.8618e-75
-1.47167e-77
-9.29627e-80
-4.62944e-82
-1.78543e-84
-5.20844e-87
-1.11312e-89
-1.66544e-92
-1.6287e-95
-9.30398e-99
-2.5109e-102
-1.90559e-106
-5.09787e-56
-3.85941e-57
-2.4618e-58
-1.32223e-59
-5.96992e-61
-2.26246e-62
-7.17898e-64
-1.9023e-65
-4.19625e-67
-7.67108e-69
-1.15695e-70
-1.43083e-72
-1.4408e-74
-1.17089e-76
-7.59301e-79
-3.87535e-81
-1.52882e-83
-4.55135e-86
-9.8977e-89
-1.50126e-91
-1.4809e-94
-8.47288e-98
-2.26599e-101
-1.67303e-105
-2.53637e-55
-1.9922e-56
-1.31835e-57
-7.34442e-59
-3.43829e-60
-1.35044e-61
-4.43843e-63
-1.21738e-64
-2.77754e-66
-5.24729e-68
-8.17077e-70
-1.0422e-71
-1.08112e-73
-9.03929e-76
-6.0222e-78
-3.15252e-80
-1.27315e-82
-3.87123e-85
-8.5746e-88
-1.31996e-90
-1.31524e-93
-7.5521e-97
-2.00782e-100
-1.44986e-104
-1.20995e-54
-9.86876e-56
-6.78127e-57
-3.92187e-58
-1.90534e-59
-7.76222e-61
-2.64461e-62
-7.51413e-64
-1.77455e-65
-3.46708e-67
-5.57794e-69
-7.34317e-71
-7.85283e-73
-6.75998e-75
-4.63022e-77
-2.48791e-79
-1.02938e-81
-3.19964e-84
-7.22532e-87
-1.13014e-89
-1.13921e-92
-6.57858e-96
-1.74423e-99
-1.23844e-103
-5.52328e-54
-4.68258e-55
-3.34427e-56
-2.00976e-57
-1.01417e-58
-4.28927e-60
-1.51614e-61
-4.46604e-63
-1.09256e-64
-2.20922e-66
-3.67488e-68
-4.99668e-70
-5.51245e-72
-4.88907e-74
-3.44529e-76
-1.90155e-78
-8.06681e-81
-2.56541e-83
-5.91192e-86
-9.40691e-89
-9.60748e-92
-5.59137e-95
-1.4831e-98
-1.04076e-102
-2.40748e-53
-2.12377e-54
-1.57815e-55
-9.86497e-57
-5.17575e-58
-2.2746e-59
-8.34878e-61
-2.5517e-62
-6.47146e-64
-1.35533e-65
-2.33269e-67
-3.27816e-69
-3.73347e-71
-3.41393e-73
-2.47685e-75
-1.40522e-77
-6.11679e-80
-1.99192e-82
-4.68902e-85
-7.59896e-88
-7.87532e-91
-4.62877e-94
-1.23207e-97
-8.5874e-102
-9.9961e-53
-9.18659e-54
-7.11101e-55
-4.62885e-56
-2.52769e-57
-1.15544e-58
-4.40792e-60
-1.39908e-61
-3.6815e-63
-7.99189e-65
-1.42426e-66
-2.07016e-68
-2.4356e-70
-2.29775e-72
-1.71748e-74
-1.00231e-76
-4.48018e-79
-1.49519e-81
-3.59879e-84
-5.94683e-87
-6.26322e-90
-3.72532e-93
-9.97989e-97
-6.94086e-101
-3.94322e-52
-3.78057e-53
-3.05247e-54
-2.07174e-55
-1.17889e-56
-5.61133e-58
-2.22719e-59
-7.34814e-61
-2.0079e-62
-4.52169e-64
-8.35023e-66
-1.25622e-67
-1.52788e-69
-1.48811e-71
-1.14673e-73
-6.88871e-76
-3.16419e-78
-1.08309e-80
-2.66796e-83
-4.50042e-86
-4.82378e-89
-2.90914e-92
-7.86527e-96
-5.48181e-100
-1.47343e-51
-1.47614e-52
-1.24512e-53
-8.82401e-55
-5.23922e-56
-2.5999e-57
-1.07482e-58
-3.68982e-60
-1.04799e-61
-2.4503e-63
-4.69263e-65
-7.31242e-67
-9.20044e-69
-9.25765e-71
-7.35957e-73
-4.55401e-75
-2.15109e-77
-7.55794e-80
-1.90704e-82
-3.28737e-85
-3.59089e-88
-2.19979e-91
-6.01767e-95
-4.21949e-99
-5.19753e-51
-5.4518e-52
-4.81286e-53
-3.56739e-54
-2.21346e-55
-1.14671e-56
-4.94373e-58
-1.76788e-59
-5.22428e-61
-1.26937e-62
-2.52319e-64
-4.07572e-66
-5.30875e-68
-5.52241e-70
-4.5321e-72
-2.89066e-74
-1.4051e-76
-5.07131e-79
-1.31187e-81
-2.31334e-84
-2.57853e-87
-1.60729e-90
-4.45919e-94
-3.15675e-98
-1.72413e-50
-1.89799e-51
-1.75743e-52
-1.3651e-53
-8.86678e-55
-4.80297e-56
-2.16239e-57
-8.06486e-59
-2.48238e-60
-6.27417e-62
-1.29559e-63
-2.17113e-65
-2.92981e-67
-3.15302e-69
-2.67307e-71
-1.75855e-73
-8.80245e-76
-3.26591e-78
-8.66852e-81
-1.56521e-83
-1.78241e-86
-1.13228e-89
-3.19269e-93
-2.28908e-97
-5.35408e-50
-6.20418e-51
-6.04128e-52
-4.92902e-53
-3.35831e-54
-1.90547e-55
-8.97275e-57
-3.49501e-58
-1.12187e-59
-2.95273e-61
-6.34016e-63
-1.10321e-64
-1.54354e-66
-1.71977e-68
-1.50719e-70
-1.0234e-72
-5.27871e-75
-2.01475e-77
-5.49125e-80
-1.01619e-82
-1.18357e-85
-7.67336e-89
-2.20322e-92
-1.60428e-96
-1.54825e-49
-1.8956e-50
-1.94737e-51
-1.6735e-52
-1.1989e-53
-7.14e-55
-3.52286e-56
-1.43532e-57
-4.81118e-59
-1.32019e-60
-2.95074e-62
-5.33617e-64
-7.74744e-66
-8.9435e-68
-8.10813e-70
-5.68628e-72
-3.02433e-74
-1.18826e-76
-3.32807e-79
-6.31742e-82
-7.53334e-85
-4.99094e-88
-1.46169e-91
-1.08352e-95
-4.14259e-49
-5.38498e-50
-5.85965e-51
-5.3218e-52
-4.02026e-53
-2.51913e-54
-1.30501e-55
-5.57136e-57
-1.95311e-58
-5.59482e-60
-1.30314e-61
-2.45168e-63
-3.69698e-65
-4.42525e-67
-4.15322e-69
-3.01034e-71
-1.65205e-73
-6.68624e-76
-1.92575e-78
-3.7526e-81
-4.58577e-84
-3.1082e-87
-9.29879e-91
-7.03169e-95
-1.01761e-48
-1.41327e-49
-1.6371e-50
-1.5779e-51
-1.26132e-52
-8.33993e-54
-4.54715e-55
-2.03825e-56
-7.48561e-58
-2.24177e-59
-5.44818e-61
-1.06751e-62
-1.67348e-64
-2.07884e-66
-2.02131e-68
-1.51527e-70
-8.58595e-73
-3.58183e-75
-1.06158e-77
-2.12512e-80
-2.66354e-83
-1.84884e-86
-5.6574e-90
-4.37178e-94
-2.27195e-48
-3.39891e-49
-4.2182e-50
-4.33776e-51
-3.68535e-52
-2.5806e-53
-1.48516e-54
-7.00632e-56
-2.70094e-57
-8.47022e-59
-2.15088e-60
-4.3944e-62
-7.16909e-64
-9.25046e-66
-9.32575e-68
-7.23568e-70
-4.23602e-72
-1.82267e-74
-5.56235e-77
-1.14469e-79
-1.47261e-82
-1.04775e-85
-3.28285e-89
-2.59615e-93
-4.54591e-48
-7.40547e-49
-9.92828e-50
-1.09723e-50
-9.96838e-52
-7.42774e-53
-4.52894e-54
-2.2551e-55
-9.14626e-57
-3.00922e-58
-7.99668e-60
-1.7058e-61
-2.89931e-63
-3.88966e-65
-4.06919e-67
-3.27013e-69
-1.97932e-71
-8.78972e-74
-2.76372e-76
-5.85044e-79
-7.73056e-82
-5.64218e-85
-1.81182e-88
-1.46805e-92
-7.97112e-48
-1.43411e-48
-2.10022e-49
-2.52247e-50
-2.47416e-51
-1.97606e-52
-1.2832e-53
-6.76949e-55
-2.89676e-56
-1.00209e-57
-2.79171e-59
-6.22671e-61
-1.10397e-62
-1.54152e-64
-1.67498e-66
-1.3953e-68
-8.73756e-71
-4.00708e-73
-1.29889e-75
-2.82999e-78
-3.84318e-81
-2.87924e-84
-9.48304e-88
-7.87996e-92
-4.20593e-47
-1.17286e-47
-2.37527e-48
-3.86082e-49
-5.14592e-50
-5.54925e-51
-4.81197e-52
-3.35593e-53
-1.88599e-54
-8.54661e-56
-3.11708e-57
-9.12257e-59
-2.13106e-60
-3.9466e-62
-5.74222e-64
-6.48667e-66
-5.60577e-68
-3.63446e-70
-1.72239e-72
-5.759e-75
-1.29214e-77
-1.80439e-80
-1.38839e-83
-4.69298e-87
-4.00225e-91
1.03315e-47
-3.10553e-47
-1.30112e-47
-3.06612e-48
-5.67487e-49
-8.83001e-50
-1.0914e-50
-1.05486e-51
-8.02222e-53
-4.84528e-54
-2.33778e-55
-9.021e-57
-2.78054e-58
-6.8161e-60
-1.32055e-61
-2.00458e-63
-2.35668e-65
-2.1147e-67
-1.42055e-69
-6.96103e-72
-2.40217e-74
-5.55312e-77
-7.97766e-80
-6.30744e-83
-2.18908e-86
-1.91701e-90
1.47751e-44
5.30342e-48
-7.1029e-48
-2.32397e-48
-5.14675e-49
-1.1136e-49
-1.76914e-50
-2.02172e-51
-1.72665e-52
-1.1378e-53
-5.89311e-55
-2.41777e-56
-7.87393e-58
-2.03016e-59
-4.12204e-61
-6.53733e-63
-8.00767e-65
-7.4679e-67
-5.20168e-69
-2.63737e-71
-9.3984e-74
-2.23955e-76
-3.31128e-79
-2.69112e-82
-9.59329e-86
-8.62949e-90
1.1707e-42
1.78901e-45
2.44192e-48
2.42897e-50
1.3121e-50
-6.6022e-50
-2.0815e-50
-3.23324e-51
-3.27695e-52
-2.41486e-53
-1.35919e-54
-5.96894e-56
-2.06242e-57
-5.60885e-59
-1.19596e-60
-1.98481e-62
-2.53632e-64
-2.46083e-66
-1.77879e-68
-9.33797e-71
-3.43813e-73
-8.44877e-76
-1.28613e-78
-1.07475e-81
-3.93613e-85
-3.63761e-89
1.85215e-40
1.44946e-41
1.06892e-43
6.1657e-46
1.05419e-47
3.13401e-50
-1.3533e-50
-4.08127e-51
-5.37465e-52
-4.58235e-53
-2.84702e-54
-1.34957e-55
-4.97252e-57
-1.43119e-58
-3.21255e-60
-5.58938e-62
-7.46184e-64
-7.54042e-66
-5.66135e-68
-3.0793e-70
-1.17205e-72
-2.97142e-75
-4.65849e-78
-4.00359e-81
-1.50656e-84
-1.43045e-88
1.86113e-38
4.07961e-39
9.83407e-41
3.43892e-43
9.84089e-46
2.08778e-48
1.77896e-51
-3.89651e-51
-7.60195e-52
-7.74703e-53
-5.38909e-54
-2.78001e-55
-1.0981e-56
-3.35748e-58
-7.95567e-60
-1.45413e-61
-2.03131e-63
-2.14061e-65
-1.67094e-67
-9.42356e-70
-3.70997e-72
-9.70755e-75
-1.56781e-77
-1.38591e-80
-5.35866e-84
-5.22668e-88
1.78281e-37
8.8484e-38
5.67007e-39
2.91496e-41
3.86057e-44
4.32832e-47
3.95375e-50
-2.72741e-51
-9.60712e-52
-1.17728e-52
-9.20965e-54
-5.19627e-55
-2.21059e-56
-7.2074e-58
-1.80823e-59
-3.48019e-61
-5.09621e-63
-5.60804e-65
-4.55602e-67
-2.66623e-69
-1.08632e-71
-2.93477e-74
-4.88367e-77
-4.44067e-80
-1.76405e-83
-1.76707e-87
2.83892e-37
3.30003e-37
4.38438e-38
3.9749e-40
4.91184e-43
3.91404e-46
2.75015e-49
6.95328e-53
-1.06264e-51
-1.60989e-52
-1.41742e-53
-8.77227e-55
-4.03588e-56
-1.40875e-57
-3.75457e-59
-7.62899e-61
-1.17341e-62
-1.35043e-64
-1.14309e-66
-6.94702e-69
-2.93085e-71
-8.17766e-74
-1.40232e-76
-1.31157e-79
-5.3518e-83
-5.50357e-87
1.82942e-37
4.16588e-37
7.7676e-38
1.19043e-39
1.86439e-42
1.45125e-45
9.31582e-49
3.80285e-52
-1.08339e-51
-1.95137e-52
-1.93993e-53
-1.32574e-54
-6.63792e-56
-2.49349e-57
-7.08816e-59
-1.52514e-60
-2.46946e-62
-2.97709e-64
-2.6287e-66
-1.66038e-68
-7.25695e-71
-2.09177e-73
-3.6965e-76
-3.55548e-79
-1.48968e-82
-1.57172e-86
6.29972e-38
4.45444e-38
4.45426e-38
1.73944e-39
3.66944e-42
3.11295e-45
2.10478e-48
1.01909e-51
-9.16091e-52
-2.01134e-52
-2.30946e-53
-1.77194e-54
-9.76302e-56
-3.976e-57
-1.21156e-58
-2.77008e-60
-4.73299e-62
-5.98708e-64
-5.52063e-66
-3.62669e-68
-1.64274e-70
-4.89211e-73
-8.90774e-76
-8.80809e-79
-3.78719e-82
-4.09611e-86
4.45719e-36
7.45919e-38
5.25344e-40
3.53462e-40
6.35124e-42
1.55205e-44
1.1896e-47
5.61733e-51
-4.5521e-52
-1.64901e-52
-2.34412e-53
-2.08024e-54
-1.28028e-55
-5.7e-57
-1.87132e-58
-4.56124e-60
-8.24162e-62
-1.09544e-63
-1.05575e-65
-7.21648e-68
-3.38801e-70
-1.04223e-72
-1.95455e-75
-1.98558e-78
-8.75357e-82
-9.69444e-86
1.72301e-33
1.39704e-33
8.91685e-37
1.59987e-41
1.58794e-41
4.02574e-43
3.7415e-46
1.59332e-49
5.8415e-53
-9.85923e-53
-2.04281e-53
-2.17108e-54
-1.50896e-55
-7.37988e-57
-2.61745e-58
-6.81324e-60
-1.30332e-61
-1.82138e-63
-1.83517e-65
-1.30512e-67
-6.34846e-70
-2.01608e-72
-3.89081e-75
-4.05643e-78
-1.83124e-81
-2.07355e-85
1.09504e-26
7.1472e-30
4.61001e-33
3.02467e-36
2.20095e-39
1.94479e-42
2.0007e-45
1.87028e-48
1.32407e-51
-2.4993e-53
-1.54986e-53
-2.04757e-54
-1.61639e-55
-8.69108e-57
-3.33009e-58
-9.2557e-60
-1.87399e-61
-2.75237e-63
-2.89745e-65
-2.14209e-67
-1.07846e-69
-3.53125e-72
-7.00297e-75
-7.48072e-78
-3.45187e-81
-3.98798e-85
1.86668e-24
2.23089e-27
2.18373e-30
1.819e-33
1.30964e-36
8.17682e-40
4.46571e-43
2.08277e-46
8.40882e-50
2.66047e-53
-8.6437e-54
-1.67785e-54
-1.55722e-55
-9.28927e-57
-3.85467e-58
-1.14433e-59
-2.45085e-61
-3.77923e-63
-4.15119e-65
-3.18542e-67
-1.65701e-69
-5.58338e-72
-1.13544e-74
-1.23991e-77
-5.83371e-81
-6.85799e-85
1.28292e-20
7.59719e-23
1.35527e-25
1.68296e-28
1.71096e-31
1.43497e-34
9.85633e-38
5.6265e-41
2.63778e-44
1.03343e-47
3.35445e-51
7.37036e-55
-9.94378e-55
-1.28364e-55
-8.82899e-57
-4.0183e-58
-1.27981e-59
-2.90258e-61
-4.69662e-63
-5.37552e-65
-4.27346e-67
-2.29181e-69
-7.92752e-72
-1.64878e-74
-1.83538e-77
-8.77805e-81
-1.04655e-84
9.3525e-18
8.07228e-18
6.90128e-18
5.84634e-18
4.91741e-18
4.17425e-18
3.63359e-18
3.07552e-18
2.11895e-18
7.85322e-19
8.07113e-20
1.27065e-21
3.70249e-24
5.54025e-27
6.49883e-30
6.25602e-33
4.91846e-36
3.20439e-39
1.70967e-42
7.57995e-46
2.77676e-49
8.27282e-53
1.09508e-56
-7.69325e-56
-7.04692e-57
-3.65734e-58
-1.2685e-59
-3.06491e-61
-5.21423e-63
-6.21795e-65
-5.1148e-67
-2.8224e-69
-9.99789e-72
-2.12071e-74
-2.39904e-77
-1.16241e-80
-1.4003e-84
1.09318e-17
9.37236e-18
7.95324e-18
6.68709e-18
5.56876e-18
4.61997e-18
3.92702e-18
3.39484e-18
2.6613e-18
1.40619e-18
2.83874e-19
1.11551e-20
6.54371e-23
1.25423e-25
1.68439e-28
1.82875e-31
1.61209e-34
1.17103e-37
6.93211e-41
3.39629e-44
1.36727e-47
4.52774e-51
1.20465e-54
-2.01465e-56
-4.23648e-57
-2.73351e-58
-1.06728e-59
-2.78926e-61
-5.02528e-63
-6.263e-65
-5.33479e-67
-3.027e-69
-1.09632e-71
-2.36629e-74
-2.71272e-77
-1.32727e-80
-1.60954e-84
1.27835e-17
1.0889e-17
9.17065e-18
7.64664e-18
6.31782e-18
5.16766e-18
4.26682e-18
3.65441e-18
3.04628e-18
2.00422e-18
6.58948e-19
5.58191e-20
7.27488e-22
2.02809e-24
3.16303e-27
3.85753e-30
3.79344e-33
3.05662e-36
1.99645e-39
1.07428e-42
4.72501e-46
1.70258e-49
5.09188e-53
1.14582e-56
-1.47748e-57
-1.51258e-58
-7.11268e-60
-2.06896e-61
-4.00501e-63
-5.25699e-65
-4.65502e-67
-2.72014e-69
-1.00727e-71
-2.20977e-74
-2.56223e-77
-1.26254e-80
-1.53611e-84
1.49552e-17
1.26532e-17
1.05795e-17
8.74581e-18
7.16291e-18
5.80521e-18
4.68446e-18
3.91005e-18
3.32657e-18
2.48833e-18
1.14828e-18
1.78641e-19
5.02463e-21
2.35153e-23
4.40591e-26
6.0141e-29
6.54627e-32
5.79857e-35
4.13582e-38
2.41571e-41
1.14735e-44
4.43683e-48
1.41979e-51
3.64687e-55
6.14813e-59
-5.01423e-59
-3.39769e-60
-1.1584e-61
-2.46539e-63
-3.45022e-65
-3.19761e-67
-1.93115e-69
-7.32214e-72
-1.63273e-74
-1.91274e-77
-9.4736e-81
-1.15331e-84
1.75176e-17
1.47048e-17
1.22032e-17
1.0005e-17
8.11641e-18
6.52128e-18
5.18326e-18
4.19884e-18
3.55406e-18
2.85032e-18
1.65208e-18
4.09124e-19
2.25743e-20
1.9389e-22
4.64082e-25
7.0789e-28
8.4256e-31
8.08903e-34
6.20536e-37
3.87193e-40
1.9533e-43
7.97293e-47
2.68261e-50
7.23952e-54
1.55715e-57
2.01407e-62
-1.02203e-60
-4.51158e-62
-1.08753e-63
-1.64378e-65
-1.60403e-67
-1.00365e-69
-3.8982e-72
-8.82825e-75
-1.04317e-77
-5.18119e-81
-6.29276e-85
2.0564e-17
1.71039e-17
1.4072e-17
1.14412e-17
9.19322e-18
7.31582e-18
5.7525e-18
4.54044e-18
3.76551e-18
3.11978e-18
2.09756e-18
7.35007e-19
7.10734e-20
1.13354e-21
3.75535e-24
6.43212e-27
8.27818e-30
8.52011e-33
6.96408e-36
4.6042e-39
2.44905e-42
1.04869e-45
3.68413e-49
1.03414e-52
2.33859e-56
4.02514e-60
-1.32229e-61
-9.97633e-63
-2.90833e-64
-4.86698e-66
-5.05465e-68
-3.29253e-70
-1.31242e-72
-3.01957e-75
-3.59653e-78
-1.78899e-81
-2.16342e-85
2.41941e-17
1.99287e-17
1.62311e-17
1.30738e-17
1.04052e-17
8.19508e-18
6.38201e-18
4.93869e-18
3.98474e-18
3.33055e-18
2.45833e-18
1.11069e-18
1.69146e-19
4.80065e-21
2.37073e-23
4.66458e-26
6.51288e-29
7.22482e-32
6.34181e-35
4.48572e-38
2.543e-41
1.1561e-44
4.29048e-48
1.26711e-51
3.00323e-55
5.60546e-59
7.79933e-63
-4.24273e-64
-2.15034e-65
-4.51723e-67
-5.35625e-69
-3.81295e-71
-1.61977e-73
-3.90674e-76
-4.81952e-79
-2.45912e-82
-3.02167e-86
-6.11602e-65
-3.26643e-66
-1.47216e-67
-5.60241e-69
-1.79936e-70
-4.87539e-72
-1.11279e-73
-2.13613e-75
-3.4411e-77
-4.63523e-79
-5.20254e-81
-4.8406e-83
-3.71116e-85
-2.32664e-87
-1.1811e-89
-4.7976e-92
-1.53539e-94
-3.79396e-97
-7.04736e-100
-9.48331e-103
-8.75802e-106
-5.09678e-109
-1.60141e-112
-1.84869e-116
-4.35147e-64
-2.38836e-65
-1.10594e-66
-4.32263e-68
-1.42528e-69
-3.96255e-71
-9.27485e-73
-1.82458e-74
-3.00996e-76
-4.14886e-78
-4.76112e-80
-4.52534e-82
-3.54101e-84
-2.26361e-86
-1.17054e-88
-4.83831e-91
-1.57389e-93
-3.94828e-96
-7.43523e-99
-1.01262e-101
-9.44306e-105
-5.52914e-108
-1.73494e-111
-1.95119e-115
-3.01767e-63
-1.704e-64
-8.11583e-66
-3.2617e-67
-1.10537e-68
-3.15704e-70
-7.58674e-72
-1.53133e-73
-2.59003e-75
-3.65736e-77
-4.29605e-79
-4.17575e-81
-3.33818e-83
-2.17786e-85
-1.14809e-87
-4.83191e-90
-1.59826e-92
-4.07057e-95
-7.76778e-98
-1.06938e-100
-1.00447e-103
-5.88881e-107
-1.82767e-110
-1.97227e-114
-2.03698e-62
-1.18454e-63
-5.80888e-65
-2.40298e-66
-8.37902e-68
-2.4611e-69
-6.07884e-71
-1.26027e-72
-2.18783e-74
-3.16838e-76
-3.81343e-78
-3.79442e-80
-3.10196e-82
-2.06723e-84
-1.11183e-86
-4.76756e-89
-1.60426e-91
-4.14901e-94
-8.02171e-97
-1.1155e-99
-1.05367e-102
-6.16604e-106
-1.88279e-109
-1.94001e-113
-1.33656e-61
-8.01164e-63
-4.04911e-64
-1.72581e-65
-6.19791e-67
-1.87407e-68
-4.76253e-70
-1.01522e-71
-1.81078e-73
-2.69209e-75
-3.32337e-77
-3.38837e-79
-2.8353e-81
-1.93178e-83
-1.06084e-85
-4.63787e-88
-1.58846e-90
-4.17299e-93
-8.17457e-96
-1.1478e-98
-1.08918e-101
-6.35053e-105
-1.90252e-108
-1.86711e-112
-8.51286e-61
-5.26458e-62
-2.74467e-63
-1.20643e-64
-4.46657e-66
-1.39166e-67
-3.64221e-69
-7.99067e-71
-1.46578e-72
-2.2393e-74
-2.83809e-76
-2.96773e-78
-2.54413e-80
-1.77368e-82
-9.95303e-85
-4.43956e-87
-1.54857e-89
-4.13421e-92
-8.20725e-95
-1.16349e-97
-1.10863e-100
-6.43428e-104
-1.88907e-107
-1.76447e-111
-5.25589e-60
-3.35625e-61
-1.80653e-62
-8.19626e-64
-3.1311e-65
-1.00617e-66
-2.71443e-68
-6.13471e-70
-1.15839e-71
-1.8202e-73
-2.37056e-75
-2.54464e-77
-2.2368e-79
-1.597e-81
-9.16466e-84
-4.17382e-86
-1.48368e-88
-4.02738e-91
-8.10559e-94
-1.16038e-96
-1.11021e-99
-6.41283e-103
-1.84534e-106
-1.64234e-110
-3.14117e-59
-2.07287e-60
-1.15289e-61
-5.40362e-63
-2.1318e-64
-7.07148e-66
-1.96821e-67
-4.58631e-69
-8.92245e-71
-1.44327e-72
-1.93319e-74
-2.13206e-76
-1.92333e-78
-1.40745e-80
-8.26642e-83
-3.84675e-85
-1.3945e-87
-3.85116e-90
-7.86217e-93
-1.1371e-95
-1.09282e-98
-6.28535e-102
-1.77464e-105
-1.50885e-109
-1.81462e-58
-1.23846e-59
-7.1232e-61
-3.45186e-62
-1.40752e-63
-4.82359e-65
-1.38627e-66
-3.33335e-68
-6.68689e-70
-1.11442e-71
-1.53651e-73
-1.74249e-75
-1.61449e-77
-1.21189e-79
-7.29063e-82
-3.46922e-84
-1.28348e-86
-3.60876e-89
-7.47801e-92
-1.09337e-94
-1.05626e-97
-6.05487e-101
-1.68049e-104
-1.36996e-108
-1.01178e-57
-7.14727e-59
-4.25456e-60
-2.13337e-61
-8.99829e-63
-3.18843e-64
-9.46941e-66
-2.35152e-67
-4.86815e-69
-8.36567e-71
-1.18822e-72
-1.38671e-74
-1.3207e-76
-1.01771e-78
-6.27598e-81
-3.05614e-83
-1.15477e-85
-3.30817e-88
-6.96344e-91
-1.03011e-93
-1.00129e-96
-5.72858e-100
-1.56659e-103
-1.22993e-107
-5.43652e-57
-3.97809e-58
-2.45278e-59
-1.27366e-60
-5.56144e-62
-2.03917e-63
-6.26346e-65
-1.60758e-66
-3.43718e-68
-6.09521e-70
-8.9254e-72
-1.07278e-73
-1.05103e-75
-8.32072e-78
-5.26391e-80
-2.62518e-82
-1.01388e-84
-2.96173e-87
-6.33812e-90
-9.49533e-93
-9.29767e-96
-5.31785e-99
-1.43687e-102
-1.09176e-106
-2.81052e-56
-2.13201e-57
-1.3627e-58
-7.33381e-60
-3.31785e-61
-1.25985e-62
-4.00531e-64
-1.06333e-65
-2.34986e-67
-4.30336e-69
-6.50156e-71
-8.0541e-73
-8.12338e-75
-6.61199e-77
-4.29434e-79
-2.19502e-81
-8.67184e-84
-2.58526e-86
-5.62975e-89
-8.55044e-92
-8.44533e-95
-4.83803e-98
-1.29547e-101
-9.57612e-106
-1.39552e-55
-1.09839e-56
-7.2838e-58
-4.06622e-59
-1.90752e-60
-7.50728e-62
-2.47228e-63
-6.79418e-65
-1.55306e-66
-2.93939e-68
-4.58518e-70
-5.85856e-72
-6.08752e-74
-5.09805e-76
-3.40178e-78
-1.78349e-80
-7.21331e-83
-2.19648e-85
-4.87189e-88
-7.50987e-91
-7.49289e-94
-4.30793e-97
-1.14674e-100
-8.29077e-105
-6.64303e-55
-5.42988e-56
-3.73919e-57
-2.16719e-58
-1.05512e-59
-4.30754e-61
-1.47061e-62
-4.1868e-64
-9.90692e-66
-1.93925e-67
-3.12565e-69
-4.12212e-71
-4.41579e-73
-3.8076e-75
-2.61221e-77
-1.40579e-79
-5.82529e-82
-1.81335e-84
-4.10071e-87
-6.42298e-90
-6.48327e-93
-3.74877e-96
-9.95206e-100
-7.07491e-104
-3.0256e-54
-2.57077e-55
-1.84016e-56
-1.10834e-57
-5.60539e-59
-2.37588e-60
-8.41603e-62
-2.48422e-63
-6.08958e-65
-1.23376e-66
-2.05617e-68
-2.80087e-70
-3.09546e-72
-2.75012e-74
-1.94121e-76
-1.07313e-78
-4.55954e-81
-1.45221e-83
-3.35149e-86
-5.34038e-89
-5.46177e-92
-3.1829e-95
-8.45359e-99
-5.93974e-103
-1.3156e-53
-1.16325e-54
-8.66431e-56
-5.42875e-57
-2.85485e-58
-1.25748e-59
-4.62576e-61
-1.41686e-62
-3.60088e-64
-7.55668e-66
-1.30315e-67
-1.83481e-69
-2.09348e-71
-1.91769e-73
-1.39369e-75
-7.92008e-78
-3.45306e-80
-1.12623e-82
-2.65514e-85
-4.30914e-88
-4.47216e-91
-2.63214e-94
-7.01548e-98
-4.89601e-102
-5.4483e-53
-5.01926e-54
-3.8948e-55
-2.54152e-56
-1.39122e-57
-6.37461e-59
-2.4375e-60
-7.75411e-62
-2.04484e-63
-4.44835e-65
-7.94371e-67
-1.15689e-68
-1.36369e-70
-1.28886e-72
-9.65076e-75
-5.64174e-77
-2.52593e-79
-8.44334e-82
-2.03538e-84
-3.36838e-87
-3.55273e-90
-2.1161e-93
-5.67661e-97
-3.95321e-101
-2.14317e-52
-2.06005e-53
-1.66763e-54
-1.13477e-55
-6.4737e-57
-3.08907e-58
-1.22906e-59
-4.06457e-61
-1.11318e-62
-2.51234e-64
-4.64939e-66
-7.00889e-68
-8.54131e-70
-8.33478e-72
-6.43445e-74
-3.87218e-76
-1.78163e-78
-6.10847e-81
-1.50708e-83
-2.5461e-86
-2.7331e-89
-1.65065e-92
-4.469e-96
-3.11894e-100
-7.98372e-52
-8.02032e-53
-6.7838e-54
-4.82077e-55
-2.87003e-56
-1.42796e-57
-5.9184e-59
-2.03678e-60
-5.79866e-62
-1.35889e-63
-2.60821e-65
-4.07294e-67
-5.13503e-69
-5.17712e-71
-4.12346e-73
-2.55621e-75
-1.20955e-77
-4.25699e-80
-1.07589e-82
-1.85756e-85
-2.03217e-88
-1.24675e-91
-3.41545e-95
-2.39817e-99
-2.80683e-51
-2.95281e-52
-2.61445e-53
-1.94355e-54
-1.20937e-55
-6.28267e-57
-2.71591e-58
-9.73734e-60
-2.88468e-61
-7.02589e-63
-1.3998e-64
-2.26612e-66
-2.95796e-68
-3.08331e-70
-2.53537e-72
-1.62017e-74
-7.88964e-77
-2.85254e-79
-7.39156e-82
-1.30554e-84
-1.45749e-87
-9.09887e-91
-2.52806e-94
-1.79221e-98
-9.27638e-51
-1.02446e-51
-9.51621e-53
-7.415e-54
-4.83099e-55
-2.62459e-56
-1.18501e-57
-4.43174e-59
-1.36769e-60
-3.46553e-62
-7.17348e-64
-1.20491e-65
-1.62956e-67
-1.75745e-69
-1.49298e-71
-9.84128e-74
-4.93536e-76
-1.83445e-78
-4.8776e-81
-8.82195e-84
-1.00624e-86
-6.40219e-90
-1.80796e-93
-1.29815e-97
-2.86884e-50
-3.33615e-51
-3.25986e-52
-2.6687e-53
-1.82424e-54
-1.03832e-55
-4.90422e-57
-1.9158e-58
-6.16666e-60
-1.62736e-61
-3.50319e-63
-6.11048e-65
-8.56926e-67
-9.5689e-69
-8.40394e-71
-5.71808e-73
-2.95517e-75
-1.13003e-77
-3.08551e-80
-5.71987e-83
-6.67319e-86
-4.33337e-89
-1.24616e-92
-9.08753e-97
-8.25767e-50
-1.01506e-50
-1.04679e-51
-9.02898e-53
-6.49131e-54
-3.87896e-55
-1.92006e-56
-7.84706e-58
-2.63806e-59
-7.25919e-61
-1.62683e-62
-2.9495e-64
-4.29273e-66
-4.96699e-68
-4.51308e-70
-3.1718e-72
-1.69041e-74
-6.65462e-77
-1.86733e-79
-3.55099e-82
-4.24181e-85
-2.81494e-88
-8.25736e-92
-6.13044e-96
-2.19796e-49
-2.87016e-50
-3.13656e-51
-2.86024e-52
-2.16905e-53
-1.36412e-54
-7.09125e-56
-3.03736e-57
-1.06812e-58
-3.06877e-60
-7.16796e-62
-1.35218e-63
-2.04421e-65
-2.45288e-67
-2.30747e-69
-1.67623e-71
-9.21857e-74
-3.73858e-76
-1.07888e-78
-2.10629e-81
-2.57856e-84
-1.75075e-87
-5.24642e-91
-3.97365e-95
-5.36695e-49
-7.49317e-50
-8.72205e-51
-8.44471e-52
-6.77902e-53
-4.50021e-54
-2.46283e-55
-1.10785e-56
-4.08222e-58
-1.22639e-59
-2.98941e-61
-5.87403e-63
-9.23324e-65
-1.14992e-66
-1.12082e-68
-8.42183e-71
-4.78267e-73
-1.99945e-75
-5.93798e-78
-1.19102e-80
-1.49556e-83
-1.03997e-86
-3.18776e-90
-2.46742e-94
-1.18987e-48
-1.79125e-49
-2.23535e-50
-2.31046e-51
-1.97227e-52
-1.38712e-53
-8.0156e-55
-3.7958e-56
-1.46851e-57
-4.62077e-59
-1.17709e-60
-2.41211e-62
-3.94633e-64
-5.1058e-66
-5.16058e-68
-4.01379e-70
-2.35529e-72
-1.01569e-74
-3.1062e-77
-6.40529e-80
-8.25628e-83
-5.8852e-86
-1.84727e-89
-1.46336e-93
-2.36063e-48
-3.87449e-49
-5.22757e-50
-5.81149e-51
-5.3086e-52
-3.9753e-53
-2.43487e-54
-1.21745e-55
-4.95677e-57
-1.6367e-58
-4.36407e-60
-9.33878e-62
-1.59206e-63
-2.14197e-65
-2.24688e-67
-1.8103e-69
-1.09841e-71
-4.88912e-74
-1.54068e-76
-3.26834e-79
-4.32742e-82
-3.1645e-85
-1.01807e-88
-8.26371e-93
-4.09362e-48
-7.43261e-49
-1.09638e-49
-1.32626e-50
-1.30963e-51
-1.05222e-52
-6.86867e-54
-3.64043e-55
-1.56437e-56
-5.43276e-58
-1.51898e-59
-3.39945e-61
-6.04631e-63
-8.46811e-65
-9.22748e-67
-7.70749e-69
-4.83893e-71
-2.22457e-73
-7.22769e-76
-1.57824e-78
-2.14782e-81
-1.61236e-84
-5.32071e-88
-4.42943e-92
-2.07836e-47
-5.92478e-48
-1.21412e-48
-1.98848e-49
-2.67532e-50
-2.91231e-51
-2.54563e-52
-1.78698e-53
-1.00976e-54
-4.59761e-56
-1.68397e-57
-4.94762e-59
-1.15997e-60
-2.15548e-62
-3.14619e-64
-3.56479e-66
-3.08947e-68
-2.00845e-70
-9.54252e-73
-3.19844e-75
-7.19299e-78
-1.00668e-80
-7.76225e-84
-2.62905e-87
-2.24641e-91
1.04876e-47
-1.44773e-47
-6.37057e-48
-1.53147e-48
-2.8511e-49
-4.49661e-50
-5.64726e-51
-5.52767e-52
-4.24281e-53
-2.58049e-54
-1.25205e-55
-4.85459e-57
-1.50273e-58
-3.69816e-60
-7.19081e-62
-1.09526e-63
-1.29175e-65
-1.16261e-67
-7.83208e-70
-3.84828e-72
-1.3314e-74
-3.08532e-77
-4.44268e-80
-3.52031e-83
-1.22435e-86
-1.07434e-90
1.48625e-44
5.53475e-48
-2.86738e-48
-1.10586e-48
-2.45398e-49
-5.42311e-50
-8.91419e-51
-1.0432e-51
-9.04432e-53
-6.01902e-54
-3.1397e-55
-1.29539e-56
-4.23895e-58
-1.09762e-59
-2.23732e-61
-3.56116e-63
-4.37694e-65
-4.09495e-67
-2.86088e-69
-1.45467e-71
-5.19778e-74
-1.24176e-76
-1.84048e-79
-1.49924e-82
-5.35628e-86
-4.82829e-90
1.17879e-42
1.7968e-45
2.44487e-48
2.44902e-50
1.72107e-50
-2.69364e-50
-9.9257e-51
-1.62548e-51
-1.69214e-52
-1.26607e-53
-7.19509e-55
-3.18174e-56
-1.10547e-57
-3.0207e-59
-6.4684e-61
-1.07769e-62
-1.38215e-64
-1.34558e-66
-9.75748e-69
-5.13777e-71
-1.89706e-73
-4.67439e-76
-7.13394e-79
-5.97599e-82
-2.19368e-85
-2.03178e-89
1.85729e-40
1.45153e-41
1.06967e-43
6.18472e-46
1.09673e-47
3.55206e-50
-5.39108e-51
-1.96526e-51
-2.71934e-52
-2.37432e-53
-1.49523e-54
-7.15071e-56
-2.65206e-57
-7.67437e-59
-1.73076e-60
-3.02407e-62
-4.05294e-64
-4.11054e-66
-3.0967e-68
-1.68975e-70
-6.45098e-73
-1.64015e-75
-2.57833e-78
-2.22155e-81
-8.38012e-85
-7.97518e-89
1.86324e-38
4.08321e-39
9.8397e-41
3.43933e-43
9.84453e-46
2.12049e-48
2.09594e-51
-1.74097e-51
-3.7464e-52
-3.9576e-53
-2.80398e-54
-1.4627e-55
-5.8233e-57
-1.79154e-58
-4.26744e-60
-7.83639e-62
-1.09934e-63
-1.16303e-65
-9.11161e-68
-5.15624e-70
-2.03649e-72
-5.34487e-75
-8.65691e-78
-7.67328e-81
-2.97452e-84
-2.90834e-88
1.78359e-37
8.8519e-38
5.67219e-39
2.91594e-41
3.86147e-44
4.33094e-47
4.03331e-50
-6.3511e-52
-4.54905e-52
-5.92281e-53
-4.74352e-54
-2.71259e-55
-1.16469e-56
-3.82442e-58
-9.65174e-60
-1.86722e-61
-2.74697e-63
-3.03573e-65
-2.47596e-67
-1.45428e-69
-5.94561e-72
-1.61144e-74
-2.68973e-77
-2.45278e-80
-9.77015e-84
-9.81212e-88
2.83794e-37
3.30036e-37
4.38525e-38
3.97617e-40
4.91386e-43
3.91582e-46
2.78173e-49
1.0773e-52
-4.87504e-52
-7.9551e-53
-7.21751e-54
-4.53891e-55
-2.11065e-56
-7.42749e-58
-1.99284e-59
-4.07271e-61
-6.29641e-63
-7.28009e-65
-6.18871e-67
-3.77605e-69
-1.59895e-71
-4.47684e-74
-7.70197e-77
-7.2256e-80
-2.9569e-83
-3.04907e-87
1.82913e-37
4.16582e-37
7.76807e-38
1.19079e-39
1.86522e-42
1.45194e-45
9.34995e-49
4.4391e-52
-4.91804e-52
-9.50847e-53
-9.75674e-54
-6.7893e-55
-3.44141e-56
-1.30491e-57
-3.73791e-59
-8.09545e-61
-1.31832e-62
-1.59753e-64
-1.4172e-66
-8.99019e-69
-3.94503e-71
-1.14137e-73
-2.02404e-76
-1.95321e-79
-8.20882e-83
-8.68614e-87
6.30168e-38
4.45444e-38
4.45426e-38
1.74026e-39
3.67164e-42
3.11441e-45
2.10821e-48
1.06623e-51
-3.98901e-52
-9.60126e-53
-1.14291e-53
-8.95767e-55
-5.00842e-56
-2.06246e-57
-6.3411e-59
-1.46073e-60
-2.51207e-62
-3.19602e-64
-2.96232e-66
-1.95526e-68
-8.8952e-71
-2.65972e-73
-4.86117e-76
-4.82373e-79
-2.08091e-82
-2.25765e-86
4.46203e-36
7.46607e-38
5.19699e-40
3.53514e-40
6.35743e-42
1.55296e-44
1.19077e-47
5.66556e-51
-1.37455e-52
-7.54498e-53
-1.13329e-53
-1.03438e-54
-6.48471e-56
-2.92643e-57
-9.70993e-59
-2.38744e-60
-4.34589e-62
-5.81385e-64
-5.63553e-66
-3.87225e-68
-1.82663e-70
-5.64386e-73
-1.06275e-75
-1.08373e-78