/*--------------------------------*- C++ -*----------------------------------*\
| =========                 |                                                 |
| \\      /  F ield         | OpenFOAM: The Open Source CFD Toolbox           |
|  \\    /   O peration     | Version:  v2012                                 |
|   \\  /    A nd           | Website:  www.openfoam.com                      |
|    \\/     M anipulation  |                                                 |
\*---------------------------------------------------------------------------*/
FoamFile
{
    version     2.0;
    format      ascii;
    class       surfaceScalarField;
    location    "0.65";
    object      phi;
}
// * * * * * * * * * * * * * * * * * * * * * * * * * * * * * * * * * * * * * //

dimensions      [0 3 -1 0 0 0 0];
oriented        oriented;


internalField   nonuniform List<scalar> 
6431
(
2.26372e-11
-2.18423e-10
-2.34906e-17
2.35051e-11
-2.26757e-10
-1.55834e-17
2.42655e-11
-2.34527e-10
-1.24472e-17
2.49003e-11
-2.41572e-10
-1.25161e-17
2.53911e-11
-2.47916e-10
-1.10835e-17
2.57205e-11
-2.53291e-10
-1.18156e-17
2.58715e-11
-2.57726e-10
-1.12129e-17
2.5829e-11
-2.61006e-10
-1.20043e-17
2.55797e-11
-2.63023e-10
-1.12144e-17
2.51118e-11
-2.63847e-10
-1.22305e-17
2.44179e-11
-2.63148e-10
-1.20499e-17
2.34921e-11
-2.61e-10
-3.62131e-18
2.23333e-11
-2.57215e-10
-1.62139e-18
2.09444e-11
-2.51733e-10
-1.18064e-19
1.9332e-11
-2.44507e-10
1.87869e-18
1.75093e-11
-2.35288e-10
3.354e-18
1.54948e-11
-2.2397e-10
4.55835e-18
1.33138e-11
-2.10323e-10
5.37709e-18
1.10006e-11
-1.93939e-10
5.62821e-18
8.60085e-12
-1.74252e-10
5.94467e-18
6.17301e-12
-1.50414e-10
5.71383e-18
3.80486e-12
-1.20982e-10
5.86471e-18
1.60243e-12
-8.3786e-11
5.48777e-18
-3.43193e-11
4.60631e-18
2.27822e-11
-2.19375e-10
-1.89166e-17
2.36444e-11
-2.27619e-10
-7.58679e-18
2.43983e-11
-2.35281e-10
-4.44459e-18
2.5026e-11
-2.42199e-10
-5.96456e-18
2.55089e-11
-2.48399e-10
-4.4206e-18
2.58297e-11
-2.53612e-10
-7.00901e-18
2.59716e-11
-2.57868e-10
-6.82086e-18
2.59196e-11
-2.60953e-10
-9.4866e-18
2.56604e-11
-2.62763e-10
-8.74202e-18
2.51824e-11
-2.63369e-10
-1.26443e-17
2.44781e-11
-2.62443e-10
-1.32817e-17
2.3542e-11
-2.60064e-10
-4.63627e-18
2.23729e-11
-2.56046e-10
-5.13047e-18
2.09737e-11
-2.50334e-10
-6.86734e-18
1.93513e-11
-2.42885e-10
-6.24872e-18
1.75188e-11
-2.33455e-10
-5.542e-18
1.54946e-11
-2.21945e-10
-4.87578e-18
1.33042e-11
-2.08132e-10
-4.03064e-18
1.09816e-11
-1.91617e-10
-3.68368e-18
8.57211e-12
-1.71842e-10
-2.6647e-18
6.13402e-12
-1.47976e-10
-2.48882e-18
3.75444e-12
-1.18603e-10
-1.60999e-18
1.54144e-12
-8.15732e-11
-1.704e-18
-3.27781e-11
-2.49357e-18
2.30339e-11
-2.20325e-10
-2.00411e-18
2.38919e-11
-2.28477e-10
6.48462e-18
2.46396e-11
-2.36028e-10
8.18599e-18
2.52588e-11
-2.42818e-10
3.52455e-18
2.57312e-11
-2.48871e-10
5.07769e-18
2.60397e-11
-2.5392e-10
-3.26451e-19
2.61674e-11
-2.57995e-10
-8.67965e-19
2.60996e-11
-2.60886e-10
-6.14094e-18
2.58233e-11
-2.62487e-10
-5.70897e-18
2.5327e-11
-2.62873e-10
-1.33898e-17
2.46036e-11
-2.6172e-10
-1.88025e-17
2.36477e-11
-2.59108e-10
-7.33198e-18
2.24585e-11
-2.54857e-10
-1.08141e-17
2.10391e-11
-2.48915e-10
-1.45786e-17
1.93965e-11
-2.41242e-10
-1.39622e-17
1.75441e-11
-2.31603e-10
-1.31277e-17
1.55002e-11
-2.19902e-10
-1.27078e-17
1.32902e-11
-2.05922e-10
-1.18537e-17
1.09482e-11
-1.89275e-10
-1.19871e-17
8.51943e-12
-1.69414e-10
-1.08614e-17
6.06213e-12
-1.45519e-10
-1.12208e-17
3.66562e-12
-1.16207e-10
-1.02388e-17
1.45852e-12
-7.93665e-11
-1.05157e-17
-3.132e-11
-1.06009e-17
2.33875e-11
-2.21272e-10
1.67365e-17
2.42407e-11
-2.29329e-10
2.33005e-17
2.49806e-11
-2.36768e-10
2.19837e-17
2.55891e-11
-2.43426e-10
1.43512e-17
2.60479e-11
-2.4933e-10
1.54265e-17
2.63399e-11
-2.54212e-10
7.3752e-18
2.64485e-11
-2.58104e-10
5.78669e-18
2.63592e-11
-2.60796e-10
-2.14824e-18
2.60593e-11
-2.62187e-10
-2.38941e-18
2.55377e-11
-2.62352e-10
-1.42197e-17
2.47874e-11
-2.60969e-10
-2.12513e-17
2.38038e-11
-2.58125e-10
-9.78099e-18
2.25861e-11
-2.5364e-10
-1.71945e-17
2.11378e-11
-2.47467e-10
-2.56273e-17
1.94664e-11
-2.39571e-10
-2.7305e-17
1.75852e-11
-2.29722e-10
-2.80067e-17
1.55131e-11
-2.1783e-10
-2.87365e-17
1.32753e-11
-2.03685e-10
-2.80836e-17
1.09062e-11
-1.86906e-10
-2.84622e-17
8.45112e-12
-1.66959e-10
-2.67015e-17
5.96985e-12
-1.43038e-10
-2.69782e-17
3.55719e-12
-1.13795e-10
-2.52825e-17
1.37238e-12
-7.71825e-11
-2.5178e-17
-2.99483e-11
-2.50822e-17
2.38394e-11
-2.22218e-10
3.65807e-17
2.46872e-11
-2.30177e-10
4.06681e-17
2.54179e-11
-2.37498e-10
3.62641e-17
2.60133e-11
-2.44021e-10
2.47688e-17
2.64552e-11
-2.49771e-10
2.55934e-17
2.67266e-11
-2.54483e-10
1.47175e-17
2.68113e-11
-2.58188e-10
1.22395e-17
2.66948e-11
-2.60679e-10
1.66312e-18
2.6365e-11
-2.61856e-10
7.96231e-19
2.5811e-11
-2.61798e-10
-1.47978e-17
2.50266e-11
-2.60185e-10
-2.6578e-17
2.40074e-11
-2.57105e-10
-1.18665e-17
2.27533e-11
-2.52386e-10
-2.26624e-17
2.12682e-11
-2.45982e-10
-3.36422e-17
1.95599e-11
-2.37863e-10
-3.62102e-17
1.76422e-11
-2.27805e-10
-3.77051e-17
1.55343e-11
-2.15723e-10
-3.95757e-17
1.32617e-11
-2.01413e-10
-3.96914e-17
1.08591e-11
-1.84505e-10
-4.11962e-17
8.37283e-12
-1.64474e-10
-3.98543e-17
5.86556e-12
-1.40532e-10
-4.1071e-17
3.4402e-12
-1.1137e-10
-3.95864e-17
1.28722e-12
-7.50306e-11
-3.98898e-17
-2.86621e-11
-3.8653e-17
2.43852e-11
-2.23163e-10
6.00229e-17
2.52272e-11
-2.31018e-10
5.97902e-17
2.59473e-11
-2.38218e-10
5.05197e-17
2.65275e-11
-2.446e-10
3.52447e-17
2.69494e-11
-2.50193e-10
3.53703e-17
2.71964e-11
-2.54729e-10
2.19532e-17
2.72523e-11
-2.58244e-10
1.85267e-17
2.71033e-11
-2.6053e-10
5.50876e-18
2.67375e-11
-2.6149e-10
3.96647e-18
2.61447e-11
-2.61205e-10
-1.55089e-17
2.53191e-11
-2.5936e-10
-2.82897e-17
2.42572e-11
-2.56044e-10
-1.37479e-17
2.29591e-11
-2.51088e-10
-2.81283e-17
2.14297e-11
-2.44453e-10
-4.38574e-17
1.9677e-11
-2.36111e-10
-4.92189e-17
1.77156e-11
-2.25844e-10
-5.28266e-17
1.5565e-11
-2.13573e-10
-5.64862e-17
1.32514e-11
-1.99101e-10
-5.74474e-17
1.08101e-11
-1.82064e-10
-5.97775e-17
8.28911e-12
-1.61954e-10
-5.83302e-17
5.7553e-12
-1.37999e-10
-5.98785e-17
3.32139e-12
-1.08938e-10
-5.80333e-17
1.20576e-12
-7.29164e-11
-5.82129e-17
-2.74577e-11
-5.66759e-17
2.5021e-11
-2.24106e-10
8.97105e-17
2.58567e-11
-2.31853e-10
8.02904e-17
2.65649e-11
-2.38925e-10
6.56552e-17
2.71276e-11
-2.45162e-10
4.56348e-17
2.75266e-11
-2.50592e-10
4.52339e-17
2.77454e-11
-2.54947e-10
2.90078e-17
2.77683e-11
-2.58266e-10
2.47925e-17
2.75816e-11
-2.60343e-10
9.37713e-18
2.71742e-11
-2.61083e-10
7.32593e-18
2.65363e-11
-2.60568e-10
-1.5457e-17
2.5663e-11
-2.58486e-10
-3.26657e-17
2.45513e-11
-2.54932e-10
-1.48768e-17
2.32024e-11
-2.49739e-10
-3.21216e-17
2.16215e-11
-2.42872e-10
-4.99603e-17
1.98177e-11
-2.34308e-10
-5.63119e-17
1.7806e-11
-2.23833e-10
-6.09572e-17
1.56066e-11
-2.11374e-10
-6.61213e-17
1.32464e-11
-1.96742e-10
-6.82674e-17
1.07621e-11
-1.79581e-10
-7.21532e-17
8.20396e-12
-1.59397e-10
-7.15582e-17
5.64395e-12
-1.35441e-10
-7.43999e-17
3.20544e-12
-1.06501e-10
-7.30999e-17
1.13011e-12
-7.08427e-11
-7.39252e-17
-2.63292e-11
-7.13737e-17
2.57433e-11
-2.25048e-10
1.24109e-16
2.65719e-11
-2.3268e-10
1.02634e-16
2.72669e-11
-2.3962e-10
8.11018e-17
2.781e-11
-2.45705e-10
5.65703e-17
2.81833e-11
-2.50964e-10
5.51528e-17
2.83703e-11
-2.55134e-10
3.62772e-17
2.83557e-11
-2.58251e-10
3.11248e-17
2.81264e-11
-2.60114e-10
1.34321e-17
2.76719e-11
-2.60628e-10
1.08184e-17
2.69831e-11
-2.59879e-10
-1.5334e-17
2.60558e-11
-2.57559e-10
-3.2791e-17
2.48881e-11
-2.53764e-10
-1.61413e-17
2.34817e-11
-2.48333e-10
-3.6395e-17
2.18429e-11
-2.41234e-10
-5.86111e-17
1.99815e-11
-2.32447e-10
-6.78062e-17
1.79135e-11
-2.21766e-10
-7.46354e-17
1.56598e-11
-2.09122e-10
-8.17137e-17
1.32485e-11
-1.94332e-10
-8.48498e-17
1.07178e-11
-1.77052e-10
-8.97363e-17
8.12071e-12
-1.56801e-10
-8.92509e-17
5.53528e-12
-1.32857e-10
-9.25836e-17
3.09548e-12
-1.04063e-10
-9.10845e-17
1.06143e-12
-6.88107e-11
-9.19048e-17
-2.52698e-11
-8.91983e-17
2.65488e-11
-2.25988e-10
1.63321e-16
2.73696e-11
-2.335e-10
1.25833e-16
2.80498e-11
-2.40299e-10
9.74692e-17
2.85711e-11
-2.46225e-10
6.77231e-17
2.89157e-11
-2.51308e-10
6.55362e-17
2.90674e-11
-2.55285e-10
4.37168e-17
2.90112e-11
-2.58195e-10
3.77348e-17
2.87346e-11
-2.59837e-10
1.77287e-17
2.82278e-11
-2.6012e-10
1.46964e-17
2.74825e-11
-2.59134e-10
-1.418e-17
2.64953e-11
-2.56572e-10
-3.57968e-17
2.52654e-11
-2.52534e-10
-1.67983e-17
2.37955e-11
-2.46864e-10
-3.95078e-17
2.20927e-11
-2.39532e-10
-6.33038e-17
2.0168e-11
-2.30524e-10
-7.34675e-17
1.80382e-11
-2.19638e-10
-8.13517e-17
1.57255e-11
-2.0681e-10
-8.99786e-17
1.3259e-11
-1.91867e-10
-9.43345e-17
1.06791e-11
-1.74474e-10
-1.00812e-16
8.04198e-12
-1.54166e-10
-1.01235e-16
5.43207e-12
-1.30249e-10
-1.05857e-16
2.99347e-12
-1.01626e-10
-1.04902e-16
1.00009e-12
-6.68196e-11
-1.06342e-16
-2.42719e-11
-1.02722e-16
2.74343e-11
-2.26928e-10
2.05216e-16
2.82464e-11
-2.3431e-10
1.50126e-16
2.89103e-11
-2.40962e-10
1.13838e-16
2.94077e-11
-2.46721e-10
7.9394e-17
2.97207e-11
-2.5162e-10
7.60817e-17
2.98334e-11
-2.55397e-10
5.15502e-17
2.97315e-11
-2.58092e-10
4.46029e-17
2.9403e-11
-2.59508e-10
2.23806e-17
2.88389e-11
-2.59556e-10
1.88275e-17
2.80316e-11
-2.58327e-10
-1.28703e-17
2.6979e-11
-2.5552e-10
-3.39623e-17
2.56812e-11
-2.51237e-10
-1.78859e-17
2.4142e-11
-2.45325e-10
-4.32194e-17
2.23698e-11
-2.3776e-10
-7.11092e-17
2.03764e-11
-2.28531e-10
-8.42364e-17
1.818e-11
-2.17442e-10
-9.4343e-17
1.58039e-11
-2.04436e-10
-1.04859e-16
1.3279e-11
-1.89343e-10
-1.10111e-16
1.06476e-11
-1.71844e-10
-1.17469e-16
7.96977e-12
-1.5149e-10
-1.17885e-16
5.33627e-12
-1.27618e-10
-1.22813e-16
2.90052e-12
-9.91929e-11
-1.21489e-16
9.46e-13
-6.48677e-11
-1.22751e-16
-2.33283e-11
-1.18971e-16
2.8397e-11
-2.27865e-10
2.48617e-16
2.91995e-11
-2.35111e-10
1.73788e-16
2.98454e-11
-2.41606e-10
1.30407e-16
3.03164e-11
-2.47191e-10
9.09733e-17
3.05948e-11
-2.51898e-10
8.69895e-17
3.06652e-11
-2.55466e-10
5.96002e-17
3.05135e-11
-2.5794e-10
5.1855e-17
3.01285e-11
-2.59122e-10
2.73962e-17
2.95021e-11
-2.58929e-10
2.34505e-17
2.86278e-11
-2.57452e-10
-1.03614e-17
2.75045e-11
-2.54396e-10
-3.54127e-17
2.61334e-11
-2.49866e-10
-1.85482e-17
2.45196e-11
-2.43712e-10
-4.61298e-17
2.26727e-11
-2.35914e-10
-7.52086e-17
2.06058e-11
-2.26466e-10
-8.94285e-17
1.83385e-11
-2.15176e-10
-1.00683e-16
1.58953e-11
-2.01994e-10
-1.12749e-16
1.3309e-11
-1.86759e-10
-1.19111e-16
1.06245e-11
-1.69162e-10
-1.27871e-16
7.90551e-12
-1.48774e-10
-1.28984e-16
5.24918e-12
-1.24964e-10
-1.34887e-16
2.81711e-12
-9.67635e-11
-1.33812e-16
8.98826e-13
-6.29522e-11
-1.35396e-16
-2.24322e-11
-1.30595e-16
2.94344e-11
-2.288e-10
2.90298e-16
3.0226e-11
-2.35901e-10
1.96553e-16
3.0852e-11
-2.42231e-10
1.45982e-16
3.12942e-11
-2.47632e-10
1.02592e-16
3.1535e-11
-2.52138e-10
9.78409e-17
3.15594e-11
-2.5549e-10
6.80059e-17
3.13538e-11
-2.57734e-10
5.94275e-17
3.09079e-11
-2.58676e-10
3.28634e-17
3.02146e-11
-2.58235e-10
2.84032e-17
2.92683e-11
-2.56506e-10
-7.69827e-18
2.80691e-11
-2.53197e-10
-3.15203e-17
2.66196e-11
-2.48416e-10
-1.99389e-17
2.49263e-11
-2.42019e-10
-4.99177e-17
2.3e-11
-2.33989e-10
-8.29447e-17
2.08552e-11
-2.24322e-10
-1.00393e-16
1.8513e-11
-2.12835e-10
-1.13984e-16
1.59996e-11
-1.99482e-10
-1.27894e-16
1.33496e-11
-1.84111e-10
-1.34952e-16
1.06105e-11
-1.66425e-10
-1.44289e-16
7.85015e-12
-1.46016e-10
-1.45048e-16
5.17152e-12
-1.22288e-10
-1.50806e-16
2.7433e-12
-9.43381e-11
-1.48933e-16
8.58079e-13
-6.107e-11
-1.49921e-16
-2.1577e-11
-1.4481e-16
3.0544e-11
-2.29732e-10
3.30157e-16
3.13233e-11
-2.36678e-10
2.17097e-16
3.19274e-11
-2.42834e-10
1.60852e-16
3.23381e-11
-2.48041e-10
1.1365e-16
3.25382e-11
-2.52337e-10
1.08805e-16
3.25129e-11
-2.55463e-10
7.65878e-17
3.22494e-11
-2.5747e-10
6.74354e-17
3.17383e-11
-2.58164e-10
3.87992e-17
3.09733e-11
-2.57469e-10
3.39162e-17
2.99501e-11
-2.55483e-10
-3.71681e-18
2.86702e-11
-2.51918e-10
-3.1423e-17
2.71375e-11
-2.46884e-10
-2.11482e-17
2.536e-11
-2.40242e-10
-5.3339e-17
2.33499e-11
-2.3198e-10
-8.7286e-17
2.11234e-11
-2.22097e-10
-1.06063e-16
1.87029e-11
-2.10417e-10
-1.20934e-16
1.61165e-11
-1.96898e-10
-1.36333e-16
1.34008e-11
-1.81397e-10
-1.44268e-16
1.06061e-11
-1.63633e-10
-1.54617e-16
7.80423e-12
-1.43217e-10
-1.55624e-16
5.10364e-12
-1.19591e-10
-1.61773e-16
2.67884e-12
-9.19164e-11
-1.59602e-16
8.23205e-13
-5.92176e-11
-1.60415e-16
-2.07569e-11
-1.54071e-16
3.17237e-11
-2.3066e-10
3.6632e-16
3.2489e-11
-2.37441e-10
2.35711e-16
3.30689e-11
-2.43412e-10
1.74059e-16
3.34454e-11
-2.48416e-10
1.24342e-16
3.36014e-11
-2.52492e-10
1.19535e-16
3.35227e-11
-2.55383e-10
8.5526e-17
3.31972e-11
-2.57143e-10
7.58615e-17
3.26163e-11
-2.57582e-10
4.5313e-17
3.17751e-11
-2.56627e-10
3.98334e-17
3.06703e-11
-2.54378e-10
3.50824e-19
2.93051e-11
-2.50552e-10
-2.56336e-17
2.76847e-11
-2.45263e-10
-2.34635e-17
2.58186e-11
-2.38376e-10
-5.79873e-17
2.37208e-11
-2.29883e-10
-9.58167e-17
2.14089e-11
-2.19786e-10
-1.18115e-16
1.89071e-11
-2.07916e-10
-1.35413e-16
1.62453e-11
-1.94238e-10
-1.52493e-16
1.34624e-11
-1.78617e-10
-1.6077e-16
1.06113e-11
-1.60784e-10
-1.71156e-16
7.76793e-12
-1.40376e-10
-1.7124e-16
5.04549e-12
-1.16871e-10
-1.76516e-16
2.6233e-12
-8.94974e-11
-1.72898e-16
7.93625e-13
-5.73914e-11
-1.72537e-16
-1.99665e-11
-1.65681e-16
3.29713e-11
-2.31582e-10
3.97587e-16
3.37207e-11
-2.38188e-10
2.50799e-16
3.42741e-11
-2.43963e-10
1.85821e-16
3.46133e-11
-2.48753e-10
1.34185e-16
3.47217e-11
-2.52599e-10
1.30273e-16
3.45857e-11
-2.55246e-10
9.47522e-17
3.41939e-11
-2.5675e-10
8.48932e-17
3.35389e-11
-2.56927e-10
5.24796e-17
3.26169e-11
-2.55704e-10
4.63953e-17
3.14261e-11
-2.53187e-10
5.79157e-18
2.9971e-11
-2.49097e-10
-2.4253e-17
2.82585e-11
-2.43551e-10
-2.59709e-17
2.62998e-11
-2.36418e-10
-6.28552e-17
2.41106e-11
-2.27695e-10
-1.0142e-16
2.17101e-11
-2.17388e-10
-1.25269e-16
1.91245e-11
-2.05333e-10
-1.43886e-16
1.63854e-11
-1.91501e-10
-1.62202e-16
1.35339e-11
-1.75768e-10
-1.70902e-16
1.06261e-11
-1.57879e-10
-1.81618e-16
7.74112e-12
-1.37494e-10
-1.81232e-16
4.99682e-12
-1.1413e-10
-1.86025e-16
2.57609e-12
-8.70801e-11
-1.81341e-16
7.68767e-13
-5.55877e-11
-1.80172e-16
-1.92011e-11
-1.71873e-16
3.42851e-11
-2.32497e-10
4.20994e-16
3.50164e-11
-2.38917e-10
2.6222e-16
3.55403e-11
-2.44486e-10
1.95298e-16
3.5839e-11
-2.4905e-10
1.43494e-16
3.58962e-11
-2.52655e-10
1.40874e-16
3.56988e-11
-2.55047e-10
1.04572e-16
3.52366e-11
-2.56287e-10
9.46181e-17
3.45029e-11
-2.56192e-10
6.04516e-17
3.34956e-11
-2.54696e-10
5.34415e-17
3.22142e-11
-2.51906e-10
1.11645e-17
3.0665e-11
-2.47548e-10
-1.70793e-17
2.88562e-11
-2.41742e-10
-3.00768e-17
2.68012e-11
-2.34364e-10
-6.942e-17
2.45172e-11
-2.25412e-10
-1.11812e-16
2.20254e-11
-2.14897e-10
-1.39356e-16
1.93536e-11
-2.02663e-10
-1.60322e-16
1.65356e-11
-1.88686e-10
-1.79893e-16
1.36148e-11
-1.7285e-10
-1.88334e-16
1.06498e-11
-1.54917e-10
-1.98263e-16
7.72342e-12
-1.34571e-10
-1.96115e-16
4.95713e-12
-1.11368e-10
-1.99048e-16
2.53654e-12
-8.46631e-11
-1.92063e-16
7.48086e-13
-5.38029e-11
-1.89056e-16
-1.84564e-11
-1.8012e-16
3.56633e-11
-2.33403e-10
4.36397e-16
3.63739e-11
-2.39625e-10
2.69132e-16
3.68654e-11
-2.44975e-10
2.03033e-16
3.712e-11
-2.49303e-10
1.5216e-16
3.7122e-11
-2.52655e-10
1.5179e-16
3.68591e-11
-2.54783e-10
1.15136e-16
3.63219e-11
-2.55749e-10
1.05319e-16
3.55052e-11
-2.55374e-10
6.93734e-17
3.4408e-11
-2.53598e-10
6.12018e-17
3.30317e-11
-2.50529e-10
1.78382e-17
3.13841e-11
-2.459e-10
-1.50385e-17
2.94752e-11
-2.39834e-10
-3.48727e-17
2.73203e-11
-2.3221e-10
-7.69067e-17
2.49386e-11
-2.23031e-10
-1.19881e-16
2.23529e-11
-2.12314e-10
-1.49034e-16
1.95931e-11
-1.99905e-10
-1.71125e-16
1.6695e-11
-1.8579e-10
-1.91357e-16
1.37042e-11
-1.69862e-10
-1.99473e-16
1.0682e-11
-1.51899e-10
-2.08724e-16
7.71428e-12
-1.31607e-10
-2.05116e-16
4.9258e-12
-1.08583e-10
-2.06425e-16
2.50394e-12
-8.22449e-11
-1.97438e-16
7.31064e-13
-5.20338e-11
-1.92945e-16
-1.77288e-11
-1.82499e-16
3.71041e-11
-2.34298e-10
4.43536e-16
3.77912e-11
-2.40309e-10
2.72568e-16
3.82469e-11
-2.45429e-10
2.09024e-16
3.84537e-11
-2.49508e-10
1.6091e-16
3.83963e-11
-2.52596e-10
1.63253e-16
3.80635e-11
-2.54449e-10
1.26949e-16
3.74468e-11
-2.55131e-10
1.17227e-16
3.65424e-11
-2.54469e-10
7.94267e-17
3.53509e-11
-2.52405e-10
6.94764e-17
3.38752e-11
-2.49053e-10
2.41385e-17
3.21252e-11
-2.4415e-10
-7.47084e-18
3.01126e-11
-2.37822e-10
-4.17919e-17
2.78546e-11
-2.29953e-10
-8.65683e-17
2.53723e-11
-2.2055e-10
-1.33235e-16
2.26906e-11
-2.09634e-10
-1.65986e-16
1.98413e-11
-1.97058e-10
-1.9005e-16
1.68621e-11
-1.82814e-10
-2.10785e-16
1.3801e-11
-1.66804e-10
-2.17772e-16
1.07217e-11
-1.48823e-10
-2.25126e-16
7.71295e-12
-1.28602e-10
-2.18706e-16
4.9021e-12
-1.05776e-10
-2.16968e-16
2.47757e-12
-7.98241e-11
-2.04751e-16
7.17225e-13
-5.02772e-11
-1.97792e-16
-1.70151e-11
-1.8678e-16
3.86062e-11
-2.35179e-10
4.43225e-16
3.92665e-11
-2.40967e-10
2.72713e-16
3.96826e-11
-2.45843e-10
2.14363e-16
3.98374e-11
-2.49661e-10
1.70243e-16
3.97163e-11
-2.52473e-10
1.76022e-16
3.93089e-11
-2.5404e-10
1.40434e-16
3.8608e-11
-2.54428e-10
1.30691e-16
3.76113e-11
-2.53471e-10
9.07814e-17
3.63209e-11
-2.51113e-10
7.84311e-17
3.47416e-11
-2.47473e-10
3.14697e-17
3.28853e-11
-2.42293e-10
-5.80682e-18
3.07653e-11
-2.35702e-10
-4.98661e-17
2.84012e-11
-2.2759e-10
-9.77447e-17
2.5816e-11
-2.17967e-10
-1.44784e-16
2.30364e-11
-2.06857e-10
-1.78924e-16
2.00963e-11
-1.94121e-10
-2.03597e-16
1.70355e-11
-1.79756e-10
-2.2408e-16
1.3904e-11
-1.63676e-10
-2.29724e-16
1.0768e-11
-1.45691e-10
-2.35143e-16
7.71856e-12
-1.25556e-10
-2.26102e-16
4.8852e-12
-1.02946e-10
-2.21478e-16
2.45669e-12
-7.73994e-11
-2.06314e-16
7.06128e-13
-4.85304e-11
-1.97323e-16
-1.63125e-11
-1.84972e-16
4.01679e-11
-2.36043e-10
4.35752e-16
4.07978e-11
-2.41594e-10
2.71056e-16
4.11702e-11
-2.46213e-10
2.19826e-16
4.12686e-11
-2.49757e-10
1.81351e-16
4.1079e-11
-2.52282e-10
1.90726e-16
4.05923e-11
-2.53551e-10
1.56241e-16
3.98023e-11
-2.53637e-10
1.46008e-16
3.87084e-11
-2.52376e-10
1.03575e-16
3.73147e-11
-2.49718e-10
8.7795e-17
3.56276e-11
-2.45786e-10
3.79719e-17
3.3661e-11
-2.40326e-10
8.14454e-19
3.14304e-11
-2.33472e-10
-6.03843e-17
2.89574e-11
-2.25118e-10
-1.11283e-16
2.62671e-11
-2.15278e-10
-1.61687e-16
2.33881e-11
-2.0398e-10
-1.98977e-16
2.03564e-11
-1.91092e-10
-2.2493e-16
1.72137e-11
-1.76617e-10
-2.44881e-16
1.4012e-11
-1.60478e-10
-2.4836e-16
1.08198e-11
-1.42502e-10
-2.50651e-16
7.73016e-12
-1.2247e-10
-2.37716e-16
4.87424e-12
-1.00094e-10
-2.28881e-16
2.44058e-12
-7.49695e-11
-2.09657e-16
6.9737e-13
-4.6791e-11
-1.97814e-16
-1.56185e-11
-1.85252e-16
4.17879e-11
-2.36887e-10
4.22732e-16
4.23832e-11
-2.42187e-10
2.6875e-16
4.27074e-11
-2.46535e-10
2.27037e-16
4.27446e-11
-2.49792e-10
1.95277e-16
4.24816e-11
-2.52017e-10
2.08294e-16
4.19103e-11
-2.52977e-10
1.74905e-16
4.10262e-11
-2.52751e-10
1.63439e-16
3.98304e-11
-2.51178e-10
1.17893e-16
3.83287e-11
-2.48215e-10
9.76417e-17
3.65295e-11
-2.43986e-10
4.50937e-17
3.44491e-11
-2.38245e-10
9.60482e-19
3.21047e-11
-2.31129e-10
-7.21359e-17
2.95202e-11
-2.22535e-10
-1.26406e-16
2.67229e-11
-2.12483e-10
-1.76859e-16
2.37434e-11
-2.01004e-10
-2.15022e-16
2.06194e-11
-1.87971e-10
-2.40805e-16
1.73948e-11
-1.73396e-10
-2.59397e-16
1.41235e-11
-1.57211e-10
-2.60423e-16
1.08758e-11
-1.39259e-10
-2.59513e-16
7.7467e-12
-1.19345e-10
-2.42869e-16
4.86832e-12
-9.72198e-11
-2.30027e-16
2.42852e-12
-7.25335e-11
-2.07137e-16
6.90583e-13
-4.50567e-11
-1.93037e-16
-1.49313e-11
-1.79613e-16
4.34646e-11
-2.37706e-10
4.06136e-16
4.40209e-11
-2.42741e-10
2.68081e-16
4.4292e-11
-2.46804e-10
2.37421e-16
4.42627e-11
-2.4976e-10
2.13367e-16
4.39208e-11
-2.51673e-10
2.29395e-16
4.32597e-11
-2.52314e-10
1.96867e-16
4.22764e-11
-2.51766e-10
1.83115e-16
4.09735e-11
-2.49874e-10
1.33681e-16
3.93593e-11
-2.46599e-10
1.07658e-16
3.7444e-11
-2.4207e-10
5.09588e-17
3.52461e-11
-2.36047e-10
5.49544e-18
3.2785e-11
-2.28668e-10
-8.6042e-17
3.00868e-11
-2.19838e-10
-1.43379e-16
2.71809e-11
-2.09579e-10
-1.96649e-16
2.40998e-11
-1.97926e-10
-2.37231e-16
2.08834e-11
-1.84758e-10
-2.63435e-16
1.75772e-11
-1.70094e-10
-2.80429e-16
1.4237e-11
-1.53875e-10
-2.78335e-16
1.09348e-11
-1.35961e-10
-2.73259e-16
7.76707e-12
-1.16182e-10
-2.51873e-16
4.86651e-12
-9.43232e-11
-2.33979e-16
2.41983e-12
-7.00905e-11
-2.06583e-16
6.8543e-13
-4.33259e-11
-1.8966e-16
-1.42491e-11
-1.76704e-16
4.51966e-11
-2.38496e-10
3.88051e-16
4.57088e-11
-2.4325e-10
2.70602e-16
4.59214e-11
-2.47014e-10
2.52453e-16
4.58201e-11
-2.49656e-10
2.36386e-16
4.53937e-11
-2.51244e-10
2.54467e-16
4.46372e-11
-2.51555e-10
2.2221e-16
4.35491e-11
-2.50675e-10
2.04898e-16
4.21343e-11
-2.48457e-10
1.50806e-16
4.04028e-11
-2.44866e-10
1.17885e-16
3.83673e-11
-2.40034e-10
5.7175e-17
3.60485e-11
-2.33728e-10
3.69365e-18
3.34679e-11
-2.26089e-10
-1.00451e-16
3.06539e-11
-2.17026e-10
-1.61103e-16
2.7638e-11
-2.06566e-10
-2.14022e-16
2.44548e-11
-1.94746e-10
-2.54839e-16
2.1146e-11
-1.81453e-10
-2.80083e-16
1.77589e-11
-1.66711e-10
-2.9473e-16
1.43509e-11
-1.50471e-10
-2.89299e-16
1.09955e-11
-1.3261e-10
-2.80099e-16
7.79015e-12
-1.1298e-10
-2.54289e-16
4.86789e-12
-9.1405e-11
-2.31738e-16
2.41385e-12
-6.76401e-11
-2.0044e-16
6.81604e-13
-4.1597e-11
-1.81526e-16
-1.35706e-11
-1.68477e-16
4.69823e-11
-2.39251e-10
3.69443e-16
4.74448e-11
-2.4371e-10
2.77464e-16
4.75931e-11
-2.4716e-10
2.7258e-16
4.74138e-11
-2.49474e-10
2.64495e-16
4.6897e-11
-2.50724e-10
2.83248e-16
4.60391e-11
-2.50694e-10
2.50463e-16
4.48408e-11
-2.49475e-10
2.28412e-16
4.33087e-11
-2.46923e-10
1.68883e-16
4.14554e-11
-2.43011e-10
1.28054e-16
3.92956e-11
-2.37874e-10
6.2077e-17
3.68526e-11
-2.31284e-10
6.1779e-18
3.41499e-11
-2.23387e-10
-1.15789e-16
3.12183e-11
-2.14097e-10
-1.79221e-16
2.80916e-11
-2.03442e-10
-2.34319e-16
2.4806e-11
-1.91463e-10
-2.76803e-16
2.14051e-11
-1.78056e-10
-3.01749e-16
1.7938e-11
-1.63248e-10
-3.14072e-16
1.44635e-11
-1.47001e-10
-3.04991e-16
1.10563e-11
-1.29207e-10
-2.91126e-16
7.81475e-12
-1.09743e-10
-2.60293e-16
4.87153e-12
-8.84657e-11
-2.32475e-16
2.40995e-12
-6.5182e-11
-1.9682e-16
6.78822e-13
-3.98692e-11
-1.75654e-16
-1.28948e-11
-1.6399e-16
4.882e-11
-2.39967e-10
3.50632e-16
4.92269e-11
-2.44114e-10
2.88018e-16
4.93045e-11
-2.47235e-10
2.97159e-16
4.90408e-11
-2.49207e-10
2.96508e-16
4.84271e-11
-2.50107e-10
3.14655e-16
4.74619e-11
-2.49725e-10
2.80542e-16
4.61474e-11
-2.48157e-10
2.52847e-16
4.44929e-11
-2.45266e-10
1.87433e-16
4.25131e-11
-2.41029e-10
1.38237e-16
4.02252e-11
-2.35585e-10
6.74885e-17
3.76547e-11
-2.28713e-10
3.50071e-18
3.48276e-11
-2.20562e-10
-1.29997e-16
3.17769e-11
-2.11048e-10
-1.96338e-16
2.85385e-11
-2.00206e-10
-2.50828e-16
2.51505e-11
-1.88079e-10
-2.93094e-16
2.16583e-11
-1.74568e-10
-3.16606e-16
1.81124e-11
-1.59707e-10
-3.26106e-16
1.45731e-11
-1.43466e-10
-3.13365e-16
1.1116e-11
-1.25754e-10
-2.95122e-16
7.83969e-12
-1.06471e-10
-2.59797e-16
4.8765e-12
-8.55064e-11
-2.27407e-16
2.4075e-12
-6.27164e-11
-1.88284e-16
6.76826e-13
-3.81417e-11
-1.65929e-16
-1.22209e-11
-1.55092e-16
5.0708e-11
-2.40636e-10
3.32105e-16
5.10526e-11
-2.44456e-10
3.0104e-16
5.10528e-11
-2.47232e-10
3.24047e-16
5.06978e-11
-2.48848e-10
3.30117e-16
4.99806e-11
-2.49387e-10
3.46692e-16
4.89015e-11
-2.48643e-10
3.10662e-16
4.74651e-11
-2.46718e-10
2.77155e-16
4.56828e-11
-2.43481e-10
2.05745e-16
4.35718e-11
-2.38916e-10
1.48245e-16
4.11519e-11
-2.33164e-10
7.2075e-17
3.8451e-11
-2.26012e-10
5.59495e-18
3.54973e-11
-2.17609e-10
-1.43205e-16
3.23263e-11
-2.07879e-10
-2.11783e-16
2.89757e-11
-1.96858e-10
-2.67962e-16
2.54857e-11
-1.84593e-10
-3.11427e-16
2.19032e-11
-1.7099e-10
-3.34386e-16
1.82802e-11
-1.56088e-10
-3.41493e-16
1.4678e-11
-1.39869e-10
-3.25257e-16
1.11729e-11
-1.22254e-10
-3.0265e-16
7.86379e-12
-1.03166e-10
-2.6276e-16
4.88191e-12
-8.25283e-11
-2.25697e-16
2.40594e-12
-6.02437e-11
-1.83072e-16
6.75378e-13
-3.64141e-11
-1.59535e-16
-1.15483e-11
-1.51082e-16
5.26444e-11
-2.41253e-10
3.1599e-16
5.29194e-11
-2.44727e-10
3.14149e-16
5.28348e-11
-2.47144e-10
3.50254e-16
5.23813e-11
-2.4839e-10
3.61819e-16
5.15535e-11
-2.48555e-10
3.76657e-16
5.03539e-11
-2.47439e-10
3.38651e-16
4.87894e-11
-2.4515e-10
2.9996e-16
4.6874e-11
-2.41563e-10
2.231e-16
4.46273e-11
-2.36667e-10
1.58154e-16
4.20716e-11
-2.30607e-10
7.76832e-17
3.92375e-11
-2.23177e-10
4.43238e-18
3.61553e-11
-2.14529e-10
-1.53307e-16
3.28629e-11
-2.0459e-10
-2.24213e-16
2.94002e-11
-1.93399e-10
-2.79847e-16
2.58088e-11
-1.81006e-10
-3.23071e-16
2.21374e-11
-1.67323e-10
-3.44682e-16
1.84392e-11
-1.52395e-10
-3.49202e-16
1.47763e-11
-1.36211e-10
-3.29696e-16
1.12257e-11
-1.18708e-10
-3.03259e-16
7.88585e-12
-9.98304e-11
-2.5958e-16
4.88686e-12
-7.95331e-11
-2.18817e-16
2.4047e-12
-5.77647e-11
-1.73828e-16
6.74258e-13
-3.46866e-11
-1.50327e-16
-1.08768e-11
-1.43575e-16
5.46269e-11
-2.41808e-10
3.06392e-16
5.48246e-11
-2.44922e-10
3.24987e-16
5.46474e-11
-2.46963e-10
3.71857e-16
5.40877e-11
-2.47826e-10
3.87875e-16
5.31418e-11
-2.47605e-10
4.01605e-16
5.1815e-11
-2.46108e-10
3.62157e-16
5.01162e-11
-2.43448e-10
3.19925e-16
4.80621e-11
-2.39506e-10
2.38663e-16
4.56751e-11
-2.34278e-10
1.67725e-16
4.298e-11
-2.27911e-10
8.30927e-17
4.001e-11
-2.20207e-10
8.4422e-18
3.67978e-11
-2.11318e-10
-1.6065e-16
3.33834e-11
-2.01178e-10
-2.33188e-16
2.98087e-11
-1.89827e-10
-2.90295e-16
2.6117e-11
-1.77318e-10
-3.34665e-16
2.23585e-11
-1.63569e-10
-3.56014e-16
1.85873e-11
-1.48629e-10
-3.5877e-16
1.48664e-11
-1.32495e-10
-3.36635e-16
1.12728e-11
-1.15119e-10
-3.06889e-16
7.90469e-12
-9.64665e-11
-2.5983e-16
4.89049e-12
-7.65226e-11
-2.15733e-16
2.40324e-12
-5.52805e-11
-1.68696e-16
6.73262e-13
-3.29595e-11
-1.45396e-16
-1.02062e-11
-1.41889e-16
5.61639e-11
-2.38534e-10
2.60758e-16
5.66532e-11
-2.42295e-10
2.83988e-16
5.67652e-11
-2.45031e-10
3.28769e-16
5.6487e-11
-2.46681e-10
3.85399e-16
5.58129e-11
-2.47147e-10
4.04741e-16
5.47413e-11
-2.4653e-10
4.18931e-16
5.328e-11
-2.44643e-10
3.79263e-16
5.14406e-11
-2.41605e-10
3.35759e-16
4.92424e-11
-2.37305e-10
2.51751e-16
4.67107e-11
-2.31743e-10
1.76833e-16
4.38727e-11
-2.25072e-10
8.97081e-17
4.07645e-11
-2.17098e-10
1.0746e-17
3.74208e-11
-2.07976e-10
-1.63685e-16
3.38841e-11
-1.97644e-10
-2.37942e-16
3.0198e-11
-1.86144e-10
-2.94874e-16
2.64075e-11
-1.73532e-10
-3.39346e-16
2.25639e-11
-1.5973e-10
-3.59909e-16
1.87223e-11
-1.44792e-10
-3.60883e-16
1.49463e-11
-1.28724e-10
-3.36467e-16
1.13128e-11
-1.1149e-10
-3.04064e-16
7.91914e-12
-9.30769e-11
-2.54517e-16
4.89194e-12
-7.34989e-11
-2.08203e-16
2.40106e-12
-5.27926e-11
-1.60376e-16
6.72201e-13
-3.12334e-11
-1.38501e-16
-9.53675e-12
-1.37349e-16
5.75201e-11
-2.34948e-10
1.4638e-16
5.83089e-11
-2.39321e-10
1.8826e-16
5.87205e-11
-2.42704e-10
2.61214e-16
5.87379e-11
-2.45045e-10
3.23655e-16
5.83498e-11
-2.4629e-10
3.87909e-16
5.75527e-11
-2.46346e-10
4.10354e-16
5.63474e-11
-2.4532e-10
4.26963e-16
5.47443e-11
-2.43035e-10
3.8871e-16
5.27578e-11
-2.39615e-10
3.46612e-16
5.04101e-11
-2.34955e-10
2.61729e-16
4.77292e-11
-2.2906e-10
1.84994e-16
4.47452e-11
-2.22087e-10
9.6084e-17
4.14966e-11
-2.13848e-10
1.74774e-17
3.80205e-11
-2.04502e-10
-1.63504e-16
3.43615e-11
-1.93987e-10
-2.38777e-16
3.05649e-11
-1.82351e-10
-2.97104e-16
2.66773e-11
-1.69648e-10
-3.42853e-16
2.27511e-11
-1.55808e-10
-3.63732e-16
1.88422e-11
-1.40888e-10
-3.63926e-16
1.50143e-11
-1.24901e-10
-3.38163e-16
1.13442e-11
-1.07824e-10
-3.03935e-16
7.92805e-12
-8.96649e-11
-2.52638e-16
4.8904e-12
-7.04648e-11
-2.0475e-16
2.39767e-12
-5.03028e-11
-1.5665e-16
6.709e-13
-2.95093e-11
-1.36364e-16
-8.8686e-12
-1.39014e-16
5.97815e-11
-2.36042e-10
6.98903e-17
6.05016e-11
-2.4004e-10
1.38221e-16
6.08258e-11
-2.43026e-10
2.34616e-16
6.07389e-11
-2.44955e-10
3.0793e-16
6.02316e-11
-2.45779e-10
3.78768e-16
5.93025e-11
-2.45412e-10
4.04222e-16
5.79552e-11
-2.43969e-10
4.25324e-16
5.62029e-11
-2.41279e-10
3.90279e-16
5.40628e-11
-2.37471e-10
3.52003e-16
5.15601e-11
-2.32449e-10
2.68223e-16
4.87259e-11
-2.26223e-10
1.91784e-16
4.55927e-11
-2.18953e-10
1.02816e-16
4.22019e-11
-2.10457e-10
2.2672e-17
3.85927e-11
-2.00894e-10
-1.5947e-16
3.48117e-11
-1.90209e-10
-2.35786e-16
3.09061e-11
-1.78449e-10
-2.94301e-16
2.69236e-11
-1.6567e-10
-3.40495e-16
2.29177e-11
-1.51807e-10
-3.61204e-16
1.89448e-11
-1.3692e-10
-3.60541e-16
1.50686e-11
-1.21029e-10
-3.33673e-16
1.13655e-11
-1.04126e-10
-2.98154e-16
7.9303e-12
-8.62336e-11
-2.45916e-16
4.88507e-12
-6.7423e-11
-1.97509e-16
2.39261e-12
-4.78132e-11
-1.50307e-16
6.69194e-13
-2.77886e-11
-1.32674e-16
-8.2022e-12
-1.37982e-16
6.20979e-11
-2.37077e-10
3.09816e-17
6.27391e-11
-2.4068e-10
1.02659e-16
6.29657e-11
-2.4325e-10
2.05963e-16
6.27644e-11
-2.4475e-10
2.83246e-16
6.21278e-11
-2.45139e-10
3.58898e-16
6.10575e-11
-2.44337e-10
3.87856e-16
5.95596e-11
-2.42467e-10
4.14963e-16
5.76503e-11
-2.39365e-10
3.84642e-16
5.53501e-11
-2.35167e-10
3.52045e-16
5.26872e-11
-2.29783e-10
2.70995e-16
4.96956e-11
-2.23229e-10
1.96492e-16
4.64105e-11
-2.15667e-10
1.08181e-16
4.28759e-11
-2.06921e-10
2.99483e-17
3.91333e-11
-1.97153e-10
-1.53545e-16
3.52312e-11
-1.86309e-10
-2.30112e-16
3.12183e-11
-1.74439e-10
-2.89724e-16
2.71435e-11
-1.61599e-10
-3.37044e-16
2.30611e-11
-1.47729e-10
-3.58459e-16
1.90279e-11
-1.32891e-10
-3.57824e-16
1.51075e-11
-1.17114e-10
-3.30816e-16
1.13754e-11
-1.00398e-10
-2.94885e-16
7.9248e-12
-8.27869e-11
-2.42539e-16
4.87518e-12
-6.43768e-11
-1.94309e-16
2.38545e-12
-4.53262e-11
-1.48527e-16
6.6693e-13
-2.60729e-11
-1.3356e-16
-7.53815e-12
-1.42857e-16
6.44669e-11
-2.38043e-10
2.62048e-17
6.50185e-11
-2.4123e-10
8.12641e-17
6.51365e-11
-2.43367e-10
1.76004e-16
6.48098e-11
-2.44421e-10
2.51308e-16
6.40336e-11
-2.44359e-10
3.30947e-16
6.28123e-11
-2.43112e-10
3.63934e-16
6.11549e-11
-2.40806e-10
3.97862e-16
5.90811e-11
-2.37287e-10
3.73273e-16
5.66143e-11
-2.32697e-10
3.47204e-16
5.3786e-11
-2.26951e-10
2.70059e-16
5.06331e-11
-2.20073e-10
1.98572e-16
4.71937e-11
-2.12226e-10
1.12095e-16
4.35142e-11
-2.03241e-10
3.44907e-17
3.96382e-11
-1.93279e-10
-1.45792e-16
3.56162e-11
-1.8229e-10
-2.22501e-16
3.14982e-11
-1.70324e-10
-2.82269e-16
2.73341e-11
-1.57439e-10