/*--------------------------------*- C++ -*----------------------------------*\
| =========                 |                                                 |
| \\      /  F ield         | OpenFOAM: The Open Source CFD Toolbox           |
|  \\    /   O peration     | Version:  v2012                                 |
|   \\  /    A nd           | Website:  www.openfoam.com                      |
|    \\/     M anipulation  |                                                 |
\*---------------------------------------------------------------------------*/
FoamFile
{
    version     2.0;
    format      ascii;
    class       volVectorField;
    location    "0.9";
    object      U;
}
// * * * * * * * * * * * * * * * * * * * * * * * * * * * * * * * * * * * * * //

dimensions      [0 1 -1 0 0 0 0];


internalField   nonuniform List<vector> 
2650
(
(-2.51321 -9.46328 0.0219383)
(-1.41803 -7.97613 0.0123812)
(-0.552001 -6.3516 0.00481927)
(-0.415933 -4.31809 0.00363098)
(0.037473 -1.5432 -0.000325805)
(-0.0117799 -10.069 0.000102441)
(-0.0584667 -8.16213 0.000510137)
(0.00882917 -6.72572 -7.69438e-05)
(0.023769 -4.5649 -0.000207414)
(0.0434872 -1.76472 -0.000379619)
(-1.30195 -9.29421 0.0113631)
(-0.697368 -7.92244 0.00608847)
(-0.294826 -6.57026 0.00257389)
(-0.249807 -4.48927 0.00218073)
(0.022003 -1.61369 -0.000191441)
(-0.0383117 -9.87979 0.000334373)
(-0.0171067 -8.22679 0.000149404)
(-0.00663146 -6.92268 5.79645e-05)
(0.0104246 -4.8088 -9.09351e-05)
(0.0217936 -1.96151 -0.000190067)
(-0.117347 -9.06875 0.00102418)
(-0.0929955 -7.95105 0.000811827)
(-0.0858515 -6.65242 0.000749439)
(-0.0603791 -4.62169 0.000527164)
(-1.54555e-05 -1.69426 9.79213e-08)
(-0.0371885 -9.07042 0.000324596)
(-0.0421835 -8.04071 0.000368279)
(-0.0264267 -6.82123 0.000230764)
(-0.00749901 -4.83772 6.55266e-05)
(0.00762142 -1.94674 -6.6228e-05)
(-0.0498333 -8.77971 0.000434956)
(-0.0592556 -7.88404 0.000517295)
(-0.0502641 -6.70216 0.000438837)
(-0.027651 -4.72314 0.000241474)
(-0.00310054 -1.7835 2.69926e-05)
(-0.0393946 -8.67269 0.000343856)
(-0.047877 -7.89254 0.000417983)
(-0.0328069 -6.78219 0.000286468)
(-0.0118092 -4.84525 0.000103164)
(0.00360931 -1.91713 -3.12085e-05)
(-0.0440735 -8.46444 0.000384694)
(-0.0576171 -7.79393 0.000503002)
(-0.0475191 -6.73892 0.000414896)
(-0.0204707 -4.81163 0.000178811)
(-0.00265316 -1.86434 2.30841e-05)
(-0.0391793 -8.3068 0.000341983)
(-0.0497708 -7.74561 0.000434524)
(-0.0373726 -6.76122 0.000326336)
(-0.00834484 -4.86076 7.29452e-05)
(0.00374094 -1.88686 -3.23793e-05)
(-0.0444563 -8.14502 0.000388041)
(-0.060914 -7.69022 0.00053179)
(-0.0548896 -6.78032 0.000479249)
(-0.0128938 -4.90933 0.00011271)
(0.000906302 -1.93905 -8.10716e-06)
(-0.0401242 -7.92996 0.000350238)
(-0.0541506 -7.57638 0.000472763)
(-0.0485756 -6.74922 0.000424138)
(0.00122961 -4.89405 -1.05868e-05)
(0.0121134 -1.82998 -0.000105529)
(-0.0507203 -7.80952 0.000442717)
(-0.0765288 -7.55849 0.000668085)
(-0.0840955 -6.84212 0.000734189)
(-0.00920891 -5.05965 8.0632e-05)
(0.0202548 -2.01067 -0.000177391)
(-0.0515444 -7.48038 0.000449912)
(-0.085448 -7.32193 0.000745925)
(-0.105091 -6.72642 0.000917415)
(-0.0215711 -4.9893 0.000188517)
(0.0430507 -1.70261 -0.000375594)
(-0.0811566 -7.33549 0.000708351)
(-0.148778 -7.2718 0.00129866)
(-0.217 -6.86504 0.00189418)
(-0.107226 -5.36934 0.000936346)
(0.0482112 -2.13458 -0.000421505)
(-0.121044 -6.68893 0.00105646)
(-0.244581 -6.69082 0.00213476)
(-0.414936 -6.46551 0.00362162)
(-0.34487 -5.22597 0.00301042)
(-0.116327 -1.59562 0.00101987)
(-0.191658 -6.10056 0.00167273)
(-0.369514 -6.14284 0.00322511)
(-0.727018 -6.20831 0.00634529)
(-0.714304 -5.67519 0.00623484)
(-0.649843 -3.09685 0.00567553)
(-0.321074 -4.772 0.00280217)
(-0.749801 -4.73005 0.00654399)
(-1.38857 -4.80566 0.0121186)
(-1.95902 -4.54506 0.0170973)
(-2.51676 -3.22407 0.0219609)
(-1.7775 -0.409285 0.0155176)
(-1.0208 -0.227569 0.0089098)
(-0.759312 -0.131305 0.00662712)
(-0.452182 -0.0797439 0.00394675)
(-0.341205 -0.0460287 0.00297785)
(-0.213057 -0.0270924 0.00185958)
(-0.161081 -0.0155816 0.00140582)
(-0.106901 -0.00888688 0.000933061)
(-0.0811202 -0.0051833 0.000708003)
(-0.0574193 -0.00292502 0.000501195)
(-0.0441175 -0.00177553 0.000385078)
(-0.0330411 -0.00103706 0.000288419)
(-0.0258973 -0.000670675 0.000226058)
(-0.0202493 -0.000423294 0.000176765)
(-0.0162294 -0.000292579 0.000141674)
(-0.0130903 -0.000200776 0.000114273)
(-0.0107136 -0.00014603 9.35255e-05)
(-0.00884011 -0.000106616 7.71715e-05)
(-0.00736662 -8.03759e-05 6.43086e-05)
(-0.00618517 -6.11574e-05 5.3995e-05)
(-0.00523184 -4.74287e-05 4.56729e-05)
(-0.00445355 -3.71896e-05 3.88787e-05)
(-0.00381313 -2.95569e-05 3.3288e-05)
(-0.00328148 -2.3742e-05 2.86469e-05)
(-0.00283679 -1.92775e-05 2.47649e-05)
(-0.00246208 -1.58027e-05 2.14938e-05)
(-0.230958 -2.54352 0.00201569)
(-0.499684 -2.30781 0.00436109)
(-0.953896 -2.14917 0.00832512)
(-1.32764 -1.94651 0.011587)
(-1.82053 -1.64248 0.0158893)
(-1.53799 -0.940938 0.0134251)
(-1.00835 -0.691828 0.00880251)
(-0.847356 -0.418456 0.00739672)
(-0.584687 -0.302737 0.00510423)
(-0.481848 -0.190299 0.00420623)
(-0.346503 -0.134197 0.00302498)
(-0.279719 -0.0867079 0.00244184)
(-0.208267 -0.0599657 0.00181821)
(-0.166237 -0.0397219 0.00145122)
(-0.127554 -0.0273516 0.00111357)
(-0.101826 -0.0186196 0.000888945)
(-0.0802015 -0.0129823 0.000700177)
(-0.0646121 -0.00911122 0.00056407)
(-0.0520513 -0.0065084 0.000454419)
(-0.0425209 -0.00471212 0.000371214)
(-0.034922 -0.00346238 0.000304876)
(-0.0289621 -0.00257995 0.000252844)
(-0.0241795 -0.001947 0.000211092)
(-0.0203399 -0.00148753 0.000177571)
(-0.0172182 -0.00114904 0.000150318)
(-0.0146655 -0.000896975 0.000128033)
(-0.0125596 -0.00070701 0.000109648)
(-0.0108104 -0.000562476 9.4377e-05)
(-0.00934678 -0.000451434 8.15994e-05)
(-0.008114 -0.000365404 7.08373e-05)
(-0.00706891 -0.000298209 6.17133e-05)
(-0.115748 -2.31894 0.00101021)
(-0.238774 -2.12116 0.002084)
(-0.423633 -1.97106 0.00369736)
(-0.536738 -1.71586 0.00468452)
(-0.715521 -1.40579 0.00624495)
(-0.716259 -0.828596 0.0062518)
(-0.641153 -0.658438 0.00559639)
(-0.587785 -0.427624 0.00513065)
(-0.483947 -0.334977 0.00422443)
(-0.424878 -0.230598 0.0037088)
(-0.342431 -0.176208 0.00298923)
(-0.29153 -0.125013 0.00254487)
(-0.234758 -0.0936324 0.00204937)
(-0.195996 -0.0675585 0.00171097)
(-0.158885 -0.0500913 0.00138704)
(-0.131547 -0.036611 0.00114838)
(-0.107661 -0.0271554 0.000939876)
(-0.0891987 -0.0201143 0.0007787)
(-0.0737845 -0.0150488 0.000644143)
(-0.061528 -0.0113147 0.000537142)
(-0.0514603 -0.00858131 0.000449254)
(-0.0433117 -0.00655668 0.000378115)
(-0.0366205 -0.00505166 0.000319702)
(-0.0311322 -0.00392356 0.000271788)
(-0.0265934 -0.00307219 0.000232165)
(-0.0228259 -0.0024248 0.000199274)
(-0.0196786 -0.00192889 0.000171798)
(-0.017036 -0.00154628 0.000148727)
(-0.0148042 -0.001249 0.000129243)
(-0.0129092 -0.00101644 0.0001127)
(-0.0112913 -0.000833336 9.85762e-05)
(-0.109216 -1.34696 0.000953197)
(-0.226087 -1.14548 0.00197326)
(-0.398011 -1.03935 0.00347374)
(-0.498484 -0.923613 0.00435069)
(-0.625832 -0.817498 0.00546223)
(-0.608762 -0.641361 0.00531356)
(-0.550724 -0.545527 0.00480706)
(-0.509804 -0.413844 0.00444994)
(-0.432467 -0.339768 0.003775)
(-0.388171 -0.256343 0.00338832)
(-0.325004 -0.204258 0.00283703)
(-0.284174 -0.154233 0.0024806)
(-0.237727 -0.120223 0.00207522)
(-0.204016 -0.0909857 0.00178093)
(-0.171015 -0.070029 0.0014929)
(-0.145284 -0.0532008 0.00126827)
(-0.122198 -0.0407924 0.00106676)
(-0.103523 -0.0311811 0.000903728)
(-0.0874942 -0.0239876 0.000763811)
(-0.0742976 -0.0184944 0.000648608)
(-0.0631789 -0.0143427 0.000551548)
(-0.0539383 -0.0111757 0.000470879)
(-0.0461856 -0.00876036 0.0004032)
(-0.0396962 -0.00690713 0.00034655)
(-0.034236 -0.00547994 0.000298882)
(-0.0296325 -0.00437494 0.000258694)
(-0.0257344 -0.00351512 0.000224664)
(-0.022422 -0.00284253 0.000195747)
(-0.0195952 -0.00231361 0.000171069)
(-0.0171728 -0.00189547 0.000149922)
(-0.0150878 -0.00156321 0.00013172)
(-0.0580824 -1.18701 0.000506931)
(-0.112888 -1.02113 0.000985309)
(-0.18717 -0.927715 0.00163362)
(-0.235872 -0.819631 0.0020587)
(-0.294805 -0.727193 0.00257306)
(-0.315167 -0.575758 0.00275085)
(-0.324222 -0.494247 0.00282991)
(-0.323098 -0.384702 0.00282016)
(-0.303878 -0.32228 0.00265245)
(-0.288814 -0.251986 0.00252098)
(-0.260523 -0.206684 0.00227409)
(-0.238743 -0.162414 0.00208398)
(-0.210886 -0.130938 0.00184087)
(-0.188188 -0.103061 0.00164273)
(-0.164311 -0.0820831 0.00143434)
(-0.144129 -0.0646069 0.00125816)
(-0.125035 -0.0511163 0.00109151)
(-0.108669 -0.0402628 0.000948643)
(-0.0940246 -0.0318099 0.000820808)
(-0.0814493 -0.0251282 0.000711033)
(-0.0705003 -0.0199099 0.000615456)
(-0.0611156 -0.0158126 0.000533531)
(-0.0530391 -0.0126052 0.000463026)
(-0.0461221 -0.0100868 0.000402644)
(-0.0401874 -0.00810752 0.000350835)
(-0.0350966 -0.00654727 0.000306394)
(-0.030721 -0.00531389 0.000268195)
(-0.0269533 -0.00433555 0.000235304)
(-0.0237004 -0.00355669 0.000206907)
(-0.0208842 -0.00293427 0.000182322)
(-0.0184384 -0.00243493 0.00016097)
(-0.0552471 -0.765363 0.000482183)
(-0.10715 -0.62843 0.000935228)
(-0.173548 -0.56205 0.00151472)
(-0.2163 -0.508267 0.00188788)
(-0.26403 -0.467417 0.00230447)
(-0.280842 -0.409605 0.00245127)
(-0.286543 -0.368356 0.00250106)
(-0.284855 -0.31265 0.00248636)
(-0.269273 -0.273152 0.00235039)
(-0.256731 -0.227433 0.00224093)
(-0.234701 -0.193484 0.00204867)
(-0.217131 -0.159186 0.00189531)
(-0.195211 -0.132544 0.00170401)
(-0.176727 -0.108121 0.00154267)
(-0.157285 -0.0886388 0.00137298)
(-0.14032 -0.0718557 0.00122489)
(-0.124038 -0.0583384 0.00108278)
(-0.109669 -0.0471152 0.00095735)
(-0.0965375 -0.0380739 0.00084273)
(-0.0849582 -0.0307191 0.000741653)
(-0.0746465 -0.0248115 0.000651641)
(-0.065597 -0.0200548 0.000572645)
(-0.0576429 -0.0162427 0.000503211)
(-0.0506916 -0.0131852 0.00044253)
(-0.0446175 -0.0107352 0.000389506)
(-0.0393191 -0.00876978 0.000343253)
(-0.0346958 -0.00719147 0.000302894)
(-0.0306605 -0.00592172 0.000267667)
(-0.0271342 -0.00489803 0.000236883)
(-0.0240479 -0.00407066 0.000209941)
(-0.0213414 -0.00340018 0.000186314)
(-0.0382427 -0.634183 0.000333778)
(-0.069822 -0.53756 0.000609439)
(-0.103485 -0.488851 0.000903248)
(-0.128605 -0.445316 0.0011225)
(-0.154832 -0.411982 0.00135141)
(-0.171551 -0.363874 0.00149735)
(-0.184407 -0.328979 0.00160957)
(-0.191917 -0.28313 0.00167514)
(-0.192479 -0.249611 0.00168006)
(-0.191477 -0.211781 0.00167133)
(-0.184082 -0.182768 0.0016068)
(-0.176728 -0.153703 0.00154263)
(-0.165344 -0.130397 0.00144328)
(-0.154436 -0.108861 0.00134807)
(-0.141792 -0.0911422 0.00123772)
(-0.129801 -0.0755883 0.00113306)
(-0.117581 -0.062683 0.0010264)
(-0.10617 -0.0517104 0.000926796)
(-0.0952877 -0.042623 0.000831812)
(-0.0853025 -0.0350475 0.000744651)
(-0.0761211 -0.0288089 0.000664508)
(-0.0678246 -0.0236701 0.000592087)
(-0.0603496 -0.019461 0.000526835)
(-0.0536693 -0.0160169 0.000468522)
(-0.0477169 -0.0132055 0.00041656)
(-0.0424326 -0.0109116 0.000370431)
(-0.0377489 -0.00904071 0.000329545)
(-0.0336031 -0.00751427 0.000293354)
(-0.0299344 -0.00626785 0.000261327)
(-0.026687 -0.00524881 0.00023298)
(-0.0238104 -0.0044144 0.000207867)
(-0.0358797 -0.394686 0.000313154)
(-0.0662833 -0.338145 0.000578549)
(-0.0970423 -0.312611 0.000847013)
(-0.119965 -0.293673 0.00104709)
(-0.142126 -0.280138 0.00124051)
(-0.156623 -0.260761 0.00136707)
(-0.166716 -0.244344 0.00145517)
(-0.172646 -0.221599 0.00150694)
(-0.172743 -0.202295 0.0015078)
(-0.171478 -0.179357 0.00149677)
(-0.165458 -0.159721 0.00144424)
(-0.159271 -0.139134 0.00139024)
(-0.15023 -0.121327 0.00131134)
(-0.14138 -0.104216 0.0012341)
(-0.131274 -0.0893812 0.00114589)
(-0.121508 -0.0759161 0.00106066)
(-0.111502 -0.0643098 0.000973327)
(-0.101972 -0.054152 0.00089014)
(-0.092743 -0.0454849 0.000809588)
(-0.0840957 -0.0380744 0.000734108)
(-0.0759906 -0.0318193 0.000663361)
(-0.0685141 -0.0265513 0.000598099)
(-0.0616463 -0.0221447 0.00053815)
(-0.0553915 -0.018469 0.000483552)
(-0.0497193 -0.015414 0.000434038)
(-0.0446002 -0.0128799 0.000389352)
(-0.039994 -0.0107815 0.000349142)
(-0.0358599 -0.00904536 0.000313054)
(-0.0321552 -0.00760951 0.000280713)
(-0.0288383 -0.00642188 0.000251759)
(-0.0258696 -0.00543912 0.000225843)
(-0.0282611 -0.284204 0.000246662)
(-0.0506903 -0.263224 0.000442456)
(-0.0699959 -0.255559 0.000610961)
(-0.0854763 -0.246831 0.000746081)
(-0.0995169 -0.239522 0.000868632)
(-0.11091 -0.225925 0.000968078)
(-0.120106 -0.213597 0.00104834)
(-0.127268 -0.195995 0.00111086)
(-0.131274 -0.180413 0.00114583)
(-0.133872 -0.162061 0.00116851)
(-0.133293 -0.14584 0.00116348)
(-0.13172 -0.128934 0.00114975)
(-0.127722 -0.113931 0.00111487)
(-0.123025 -0.0994504 0.00107388)
(-0.11687 -0.0866052 0.00102016)
(-0.110325 -0.0747943 0.000963038)
(-0.103141 -0.0643878 0.000900337)
(-0.0958889 -0.0551165 0.000837036)
(-0.0885541 -0.0470346 0.000773017)
(-0.0814138 -0.0399882 0.000710692)
(-0.0745134 -0.0339178 0.000650462)
(-0.0679728 -0.0287062 0.000593369)
(-0.0618238 -0.0242639 0.000539696)
(-0.0561058 -0.020492 0.000489784)
(-0.0508236 -0.0173038 0.000443675)
(-0.0459757 -0.0146172 0.000401357)
(-0.0415468 -0.0123594 0.000362695)
(-0.0375163 -0.0104657 0.000327513)
(-0.0338587 -0.00887966 0.000295584)
(-0.0305463 -0.0075525 0.000266669)
(-0.0275504 -0.00644254 0.000240516)
(-0.0260334 -0.123223 0.000227219)
(-0.047564 -0.139017 0.000415168)
(-0.0658101 -0.151894 0.000574425)
(-0.0804528 -0.158518 0.000702234)
(-0.0929335 -0.16256 0.000811172)
(-0.103061 -0.161342 0.00089957)
(-0.110695 -0.158579 0.000966205)
(-0.116596 -0.151672 0.00101772)
(-0.119677 -0.144193 0.00104462)
(-0.121543 -0.134079 0.00106091)
(-0.120921 -0.124057 0.00105548)
(-0.119446 -0.112846 0.00104261)
(-0.116189 -0.102125 0.00101419)
(-0.112341 -0.0912719 0.000980615)
(-0.107423 -0.0811402 0.000937689)
(-0.102144 -0.0714842 0.00089162)
(-0.0963467 -0.0626605 0.00084102)
(-0.0904121 -0.0545727 0.000789222)
(-0.0843377 -0.0473246 0.000736204)
(-0.0783218 -0.0408545 0.000683696)
(-0.0724106 -0.0351541 0.0006321)
(-0.0667048 -0.0301602 0.000582297)
(-0.0612462 -0.0258215 0.00053465)
(-0.0560818 -0.0220721 0.000489571)
(-0.0512324 -0.0188498 0.000447241)
(-0.0467125 -0.0160922 0.000407786)
(-0.0425234 -0.013741 0.000371219)
(-0.03866 -0.0117423 0.000337495)
(-0.0351106 -0.0100473 0.000306511)
(-0.0318597 -0.00861247 0.000278133)
(-0.0288887 -0.00739964 0.000252198)
(-0.0210032 -0.0317281 0.000183318)
(-0.0385403 -0.0750628 0.000336408)
(-0.0524648 -0.103332 0.000457948)
(-0.063819 -0.119336 0.000557056)
(-0.0730242 -0.1293 0.000637405)
(-0.0811308 -0.132735 0.000708164)
(-0.0875593 -0.133366 0.000764277)
(-0.0931616 -0.129859 0.000813177)
(-0.0970189 -0.125093 0.000846848)
(-0.100049 -0.117923 0.000873296)
(-0.10136 -0.110361 0.00088475)
(-0.101828 -0.101704 0.000888836)
(-0.100838 -0.0931524 0.000880198)
(-0.0990758 -0.0843747 0.000864823)
(-0.09625 -0.0759882 0.000840163)
(-0.0928286 -0.0678745 0.000810303)
(-0.0887517 -0.0603082 0.000774722)
(-0.0843147 -0.0532537 0.000735997)
(-0.0795668 -0.0468086 0.000694557)
(-0.0746883 -0.0409517 0.000651976)
(-0.0697538 -0.0356958 0.000608906)
(-0.06487 -0.03101 0.000566278)
(-0.0600974 -0.0268685 0.00052462)
(-0.0554953 -0.0232303 0.000484449)
(-0.0511 -0.0200543 0.000446083)
(-0.0469393 -0.0172957 0.000409764)
(-0.0430279 -0.0149104 0.000375621)
(-0.0393732 -0.012856 0.000343719)
(-0.0359749 -0.0110921 0.000314055)
(-0.0328276 -0.00958188 0.000286582)
(-0.0299219 -0.0082917 0.000261217)
(-0.019588 0.0808976 0.000170966)
(-0.0364366 0.0115547 0.000318045)
(-0.0496777 -0.0326337 0.000433621)
(-0.0604632 -0.0599554 0.000527765)
(-0.0689022 -0.078121 0.000601428)
(-0.0762571 -0.0889272 0.000665626)
(-0.0818199 -0.0955293 0.000714184)
(-0.086586 -0.0979432 0.000755786)
(-0.0897214 -0.0981138 0.000783157)
(-0.0921131 -0.0957539 0.000804034)
(-0.0930832 -0.0921903 0.000812505)
(-0.0933497 -0.0872227 0.000814834)
(-0.0924967 -0.0817054 0.000807392)
(-0.0910285 -0.0755821 0.00079458)
(-0.0887562 -0.0693518 0.00077475)
(-0.0859999 -0.0630434 0.000750694)
(-0.0827201 -0.0569203 0.00072207)
(-0.0791136 -0.0510297 0.000690593)
(-0.0752146 -0.0454934 0.000656563)
(-0.071149 -0.0403409 0.000621077)
(-0.0669752 -0.0356148 0.000584648)
(-0.0627774 -0.0313182 0.000548007)
(-0.05861 -0.0274509 0.000511633)
(-0.0545285 -0.0239962 0.000476007)
(-0.0505722 -0.0209325 0.000441473)
(-0.0467737 -0.0182319 0.000408317)
(-0.0431553 -0.0158642 0.000376732)
(-0.0397322 -0.0137982 0.000346852)
(-0.0365122 -0.0120028 0.000318744)
(-0.0334978 -0.010448 0.000292432)
(-0.0306871 -0.00910565 0.000267895)
(-0.0165189 0.160002 0.000144181)
(-0.0308738 0.0680064 0.000269493)
(-0.0419246 0.0101311 0.000365952)
(-0.0510419 -0.0256859 0.000445536)
(-0.0580292 -0.0493965 0.000506527)
(-0.0642897 -0.0643274 0.000561174)
(-0.0691169 -0.0740079 0.00060331)
(-0.0734862 -0.0791241 0.000641449)
(-0.0766831 -0.0815205 0.000669355)
(-0.0793819 -0.0813224 0.000692912)
(-0.0810314 -0.079654 0.000707312)
(-0.0820938 -0.0765582 0.000716587)
(-0.082239 -0.0727194 0.000717857)
(-0.0817787 -0.0682 0.000713843)
(-0.0805715 -0.0633966 0.000703308)
(-0.0788302 -0.0583865 0.000688112)
(-0.0765397 -0.053388 0.000668122)
(-0.0738504 -0.0484702 0.000644651)
(-0.0708083 -0.0437463 0.000618099)
(-0.0675227 -0.0392626 0.000589422)
(-0.0640573 -0.0350708 0.000559176)
(-0.0604919 -0.0311916 0.000528056)
(-0.056884 -0.02764 0.000496565)
(-0.0532898 -0.0244158 0.000465193)
(-0.0497525 -0.0215125 0.000434317)
(-0.0463086 -0.018916 0.000404255)
(-0.0429854 -0.0166084 0.000375248)
(-0.0398037 -0.0145688 0.000347475)
(-0.0367774 -0.0127749 0.000321058)
(-0.0339148 -0.0112039 0.000296071)
(-0.0312198 -0.00983323 0.000272545)
(-0.0150674 0.242973 0.000131512)
(-0.0287192 0.132443 0.000250686)
(-0.0394548 0.062696 0.000344394)
(-0.0482992 0.0183994 0.000421596)
(-0.0549315 -0.0116683 0.000479489)
(-0.0607503 -0.0319347 0.000530281)
(-0.0651038 -0.0459594 0.000568284)
(-0.0689589 -0.0550176 0.000601935)
(-0.0716895 -0.0607835 0.000625771)
(-0.0739422 -0.0637212 0.000645434)
(-0.0752795 -0.064773 0.000657109)
(-0.0761153 -0.0641701 0.000664406)
(-0.0762117 -0.062485 0.000665249)
(-0.075821 -0.0598847 0.00066184)
(-0.0748455 -0.0567218 0.000653328)
(-0.0734398 -0.0531338 0.00064106)
(-0.0715912 -0.0493348 0.000624927)
(-0.0694015 -0.0454311 0.000605816)
(-0.0669005 -0.0415476 0.000583987)
(-0.064164 -0.0377561 0.000560103)
(-0.061239 -0.0341241 0.000534573)
(-0.0581863 -0.0306914 0.000507929)
(-0.0550539 -0.0274885 0.000480588)
(-0.0518901 -0.0245304 0.000452973)
(-0.048735 -0.0218241 0.000425433)
(-0.0456244 -0.0193679 0.000398282)
(-0.042587 -0.0171547 0.000371769)
(-0.0396462 -0.0151733 0.000346099)
(-0.0368194 -0.0134095 0.000321424)
(-0.0341191 -0.0118473 0.000297854)
(-0.0315533 -0.0104701 0.000275456)
(-0.0131489 0.309368 0.000114768)
(-0.0252645 0.181961 0.000220533)
(-0.0347175 0.101064 0.000303046)
(-0.0425024 0.0492076 0.000371)
(-0.0483108 0.013918 0.000421703)
(-0.0534932 -0.010163 0.00046694)
(-0.0574326 -0.0270455 0.000501328)
(-0.061009 -0.0384692 0.000532546)
(-0.0636756 -0.046191 0.000555823)
(-0.0659852 -0.0509004 0.000575983)
(-0.067562 -0.0535158 0.000589748)
(-0.0687222 -0.0543892 0.000599876)
(-0.0692595 -0.0540493 0.000604568)
(-0.0693503 -0.0527185 0.000605361)
(-0.0689098 -0.0507136 0.000601518)
(-0.0680464 -0.0481922 0.000593984)
(-0.0667522 -0.0453478 0.000582689)
(-0.0651058 -0.0422943 0.000568319)
(-0.0631373 -0.0391502 0.000551139)
(-0.0609113 -0.0359938 0.000531711)
(-0.0584729 -0.0328961 0.000510428)
(-0.0558764 -0.0299056 0.000487764)
(-0.053167 -0.0270609 0.000464116)
(-0.0503897 -0.0243874 0.000439875)
(-0.0475831 -0.0219015 0.000415377)
(-0.0447821 -0.0196114 0.000390928)
(-0.0420157 -0.017519 0.000366781)
(-0.0393088 -0.0156212 0.000343153)
(-0.0366808 -0.0139113 0.000320213)
(-0.0341468 -0.0123797 0.000298094)
(-0.0317176 -0.0110152 0.00027689)
(-0.0118679 0.373864 0.000103588)
(-0.0232195 0.232819 0.000202683)
(-0.032313 0.142585 0.000282058)
(-0.039886 0.0840037 0.000348163)
(-0.0455754 0.0436839 0.000397827)
(-0.0505663 0.0154843 0.000441393)
(-0.0542859 -0.00480525 0.000473862)
(-0.057574 -0.0192111 0.000502565)
(-0.0599706 -0.0294868 0.000523486)
(-0.0620021 -0.0364877 0.000541218)
(-0.0633634 -0.0411096 0.000553102)
(-0.0643509 -0.0437969 0.000561723)
(-0.0648091 -0.0450566 0.000565723)
(-0.0648949 -0.0451611 0.000566473)
(-0.0645469 -0.0444182 0.000563436)
(-0.0638511 -0.0430141 0.000557365)
(-0.0628 -0.0411443 0.000548191)
(-0.0614492 -0.0389404 0.000536401)
(-0.0598178 -0.036528 0.000522163)
(-0.0579511 -0.0339979 0.00050587)
(-0.0558816 -0.0314298 0.000487808)
(-0.0536506 -0.0288822 0.000468336)
(-0.0512944 -0.0264027 0.00044777)
(-0.0488505 -0.0240257 0.000426438)
(-0.0463526 -0.0217762 0.000404635)
(-0.0438324 -0.0196706 0.000382637)
(-0.0413178 -0.0177185 0.000360688)
(-0.0388329 -0.0159243 0.000338997)
(-0.0363979 -0.0142875 0.000317743)
(-0.0340293 -0.0128047 0.000297068)
(-0.0317398 -0.0114697 0.000277083)
(-0.01055 0.428648 9.20854e-05)
(-0.020851 0.275447 0.000182009)
(-0.0291575 0.176605 0.000254516)
(-0.0360912 0.111815 0.000315041)
(-0.0412932 0.0669257 0.000360451)
(-0.0458592 0.0352116 0.000400308)
(-0.0493001 0.0122123 0.000430345)
(-0.0523871 -0.00437761 0.000457292)
(-0.05471 -0.0164417 0.000477569)
(-0.0567285 -0.0249989 0.000495189)
(-0.0581727 -0.0309826 0.000507796)
(-0.0592919 -0.0349127 0.000517566)
(-0.059948 -0.0373001 0.000523293)
(-0.0602646 -0.038451 0.000526058)
(-0.0601864 -0.0386675 0.000525377)
(-0.0597794 -0.0381482 0.000521825)
(-0.0590371 -0.0370822 0.000515347)
(-0.0580043 -0.0356052 0.000506333)
(-0.0566989 -0.0338401 0.000494939)
(-0.0551594 -0.0318807 0.000481502)
(-0.0534154 -0.0298079 0.00046628)
(-0.0515028 -0.027685 0.000449587)
(-0.0494541 -0.025564 0.000431705)
(-0.0473026 -0.0234851 0.000412926)
(-0.0450791 -0.0214794 0.000393518)
(-0.0428126 -0.0195695 0.000373734)
(-0.0405291 -0.0177715 0.000353802)
(-0.038252 -0.0160957 0.000333926)
(-0.0360013 -0.0145473 0.000314281)
(-0.033794 -0.0131281 0.000295014)
(-0.0316437 -0.0118365 0.000276243)
(-0.00957012 0.480468 8.35331e-05)
(-0.0191873 0.317207 0.000167488)
(-0.0271068 0.211026 0.000236617)
(-0.0337916 0.140747 0.000294969)
(-0.0388659 0.091644 0.000339264)
(-0.0433036 0.0565195 0.000378001)
(-0.0466487 0.0307269 0.000407202)
(-0.049594 0.0117389 0.000432913)
(-0.0517803 -0.00238949 0.000451998)
(-0.0536407 -0.0127697 0.000468238)
(-0.054956 -0.0203487 0.00047972)
(-0.0559642 -0.0257021 0.000488521)
(-0.0565584 -0.0293502 0.000493708)
(-0.0568556 -0.0316313 0.000496303)
(-0.0568148 -0.0328539 0.000495947)
(-0.056494 -0.0332346 0.000493148)
(-0.0558878 -0.0329684 0.000487858)
(-0.0550307 -0.0322018 0.000480377)
(-0.0539346 -0.0310631 0.00047081)
(-0.0526276 -0.0296534 0.000459403)
(-0.0511313 -0.0280589 0.000446343)
(-0.0494733 -0.0263485 0.000431872)
(-0.0476795 -0.0245794 0.000416215)
(-0.0457774 -0.0227971 0.000399612)
(-0.0437932 -0.0210381 0.000382293)
(-0.0417525 -0.0193305 0.00036448)
(-0.0396787 -0.0176956 0.000346379)
(-0.0375937 -0.0161488 0.00032818)
(-0.0355166 -0.0147003 0.000310049)
(-0.033464 -0.0133564 0.000292132)
(-0.0314497 -0.01212 0.00027455)
(-0.00861441 0.526097 7.51919e-05)
(-0.0174583 0.353922 0.000152397)
(-0.0248247 0.241047 0.000216698)
(-0.0310781 0.165713 0.000271285)
(-0.035852 0.112728 0.000312958)
(-0.0400266 0.0745236 0.000349399)
(-0.0431973 0.0462716 0.000377077)
(-0.0459979 0.0252601 0.000401525)
(-0.0481143 0.00945965 0.00042)
(-0.0499392 -0.00234542 0.00043593)
(-0.0512786 -0.0111546 0.000447622)
(-0.0523387 -0.0176046 0.000456876)
(-0.0530235 -0.0222369 0.000462855)
(-0.053433 -0.0254165 0.000466429)
(-0.0535306 -0.0274589 0.000467282)
(-0.0533652 -0.0285916 0.000465839)
(-0.0529326 -0.0290111 0.000462063)
(-0.0522624 -0.0288681 0.000456214)
(-0.0513657 -0.0282916 0.000448388)
(-0.0502674 -0.0273849 0.000438802)
(-0.0489868 -0.0262357 0.000427624)
(-0.0475479 -0.0249156 0.000415065)
(-0.0459734 -0.0234846 0.000401322)
(-0.0442874 -0.0219919 0.000386606)
(-0.0425131 -0.0204778 0.000371118)
(-0.040673 -0.0189745 0.000355058)
(-0.0387887 -0.0175076 0.000338609)
(-0.0368799 -0.0160968 0.000321948)
(-0.0349646 -0.0147565 0.00030523)
(-0.0330587 -0.0134971 0.000288594)
(-0.0311759 -0.012325 0.000272159)
(-0.00782315 0.568694 6.82859e-05)
(-0.0160805 0.389083 0.00014037)
(-0.0230933 0.270433 0.000201585)
(-0.0291072 0.190605 0.000254081)
(-0.0337555 0.134065 0.000294658)
(-0.0378176 0.0929475 0.000330118)
(-0.0409215 0.0622879 0.000357213)
(-0.0436387 0.0392307 0.000380933)
(-0.0456907 0.0216841 0.000398846)
(-0.0474356 0.00835227 0.000414077)
(-0.0487086 -0.00179417 0.00042519)
(-0.0497061 -0.00942986 0.000433899)
(-0.0503543 -0.0151117 0.000439557)
(-0.0507494 -0.0192288 0.000443006)
(-0.0508653 -0.0221082 0.000444018)
(-0.0507478 -0.023992 0.000442993)
(-0.0503947 -0.0250844 0.000439912)
(-0.0498314 -0.0255447 0.000434994)
(-0.0490662 -0.0255072 0.000428317)
(-0.0481188 -0.0250804 0.000420047)
(-0.0470041 -0.024356 0.000410318)
(-0.0457412 -0.0234095 0.000399294)
(-0.0443485 -0.0223043 0.000387139)
(-0.0428461 -0.0210932 0.000374025)
(-0.0412536 -0.0198198 0.000360124)
(-0.0395906 -0.01852 0.000345609)
(-0.0378761 -0.0172231 0.000330643)
(-0.0361279 -0.0159523 0.000315383)
(-0.0343624 -0.0147259 0.000299973)
(-0.0325946 -0.0135575 0.000284542)
(-0.0308374 -0.0124571 0.000269203)
(-0.0070749 0.606837 6.17553e-05)
(-0.0147235 0.420792 0.000128526)
(-0.0213192 0.296962 0.0001861)
(-0.0270174 0.213027 0.000235841)
(-0.0314634 0.153208 0.000274652)
(-0.035353 0.10941 0.000308605)
(-0.0383509 0.0765554 0.000334776)
(-0.0409755 0.0516636 0.000357687)
(-0.0429806 0.032577 0.000375191)
(-0.0446924 0.0179264 0.000390134)
(-0.0459674 0.00664307 0.000401264)
(-0.0469831 -0.00199131 0.000410131)
(-0.0476738 -0.00855913 0.00041616)
(-0.0481249 -0.0134742 0.000420099)
(-0.0483139 -0.0170754 0.000421749)
(-0.0482818 -0.0196162 0.000421469)
(-0.0480283 -0.0213062 0.000419256)
(-0.0475763 -0.0223098 0.000415311)
(-0.0469347 -0.022764 0.000409711)
(-0.0461212 -0.0227803 0.000402611)
(-0.0451498 -0.0224523 0.000394132)
(-0.0440374 -0.0218579 0.000384423)
(-0.0428004 -0.0210629 0.000373626)
(-0.0414564 -0.0201225 0.000361894)
(-0.0400224 -0.0190831 0.000349377)
(-0.0385159 -0.0179835 0.000336227)
(-0.0369534 -0.016856 0.000322589)
(-0.0353511 -0.015727 0.000308603)
(-0.0337238 -0.0146178 0.000294398)
(-0.032085 -0.0135451 0.000280094)
(-0.030447 -0.0125217 0.000265795)
(-0.00644043 0.642204 5.62177e-05)
(-0.013584 0.450812 0.00011858)
(-0.0198586 0.322503 0.000173351)
(-0.0253334 0.234907 0.000221142)
(-0.0296589 0.172089 0.000258901)
(-0.0334487 0.125782 0.000291983)
(-0.0363938 0.0908218 0.000317693)
(-0.0389607 0.064132 0.0003401)
(-0.0409293 0.0435053 0.000357286)
(-0.0425978 0.0275157 0.000371851)
(-0.0438424 0.0150645 0.000382716)
(-0.0448282 0.00539956 0.000391322)
(-0.0455025 -0.00208008 0.000397208)
(-0.045948 -0.00780736 0.000401097)
(-0.0461497 -0.0121331 0.000402859)
(-0.0461476 -0.0153234 0.00040284)
(-0.0459435 -0.0175962 0.000401059)
(-0.0455589 -0.0191236 0.000397702)
(-0.0450018 -0.0200483 0.00039284)
(-0.0442877 -0.0204865 0.000386607)
(-0.0434284 -0.0205353 0.000379106)
(-0.0424382 -0.020276 0.000370464)
(-0.0413311 -0.0197771 0.0003608)
(-0.0401219 -0.0190966 0.000350246)
(-0.0388254 -0.0182835 0.000338929)
(-0.0374567 -0.0173793 0.000326981)
(-0.0360302 -0.016419 0.00031453)
(-0.0345601 -0.0154316 0.000301697)
(-0.0330597 -0.014441 0.0002886)
(-0.0315411 -0.0134668 0.000275346)
(-0.0300157 -0.0125243 0.00026203)
(-0.00585953 0.674248 5.11477e-05)
(-0.012509 0.478285 0.000109197)
(-0.0184419 0.346002 0.000160986)
(-0.0236641 0.255082 0.000206571)
(-0.0278342 0.189506 0.000242974)
(-0.0314963 0.140877 0.000274942)
(-0.0343694 0.103968 0.000300023)
(-0.0368735 0.0756218 0.000321882)
(-0.0388124 0.0535855 0.000338809)
(-0.0404576 0.0363808 0.00035317)
(-0.0417 0.0228771 0.000364016)
(-0.0426908 0.0122891 0.000372666)
(-0.0433851 0.00399467 0.000378727)
(-0.0438589 -0.00245914 0.000382863)
(-0.0441002 -0.0074367 0.00038497)
(-0.0441463 -0.0112154 0.000385373)
(-0.0440006 -0.0140206 0.000384101)
(-0.0436837 -0.0160301 0.000381335)
(-0.0432044 -0.0173908 0.000377152)
(-0.0425776 -0.0182222 0.000371681)
(-0.0418148 -0.0186244 0.000365022)
(-0.0409291 -0.018681 0.000357292)
(-0.0399334 -0.018463 0.0003486)
(-0.0388408 -0.0180304 0.000339063)
(-0.0376645 -0.0174348 0.000328795)
(-0.0364175 -0.0167199 0.000317911)
(-0.0351128 -0.0159229 0.000306522)
(-0.0337627 -0.0150753 0.000294737)
(-0.0323788 -0.0142036 0.000282657)
(-0.0309721 -0.0133293 0.000270379)
(-0.0295526 -0.0124702 0.000257987)
(-0.00535343 0.703945 4.67305e-05)
(-0.0115737 0.504192 0.000101034)
(-0.017217 0.368463 0.000150294)
(-0.0222315 0.274575 0.000194067)
(-0.0262831 0.206477 0.000229435)
(-0.0298519 0.155682 0.000260588)
(-0.0326765 0.11692 0.000285246)
(-0.0351348 0.0869735 0.000306706)
(-0.0370497 0.0635548 0.000323423)
(-0.038669 0.0451447 0.000337558)
(-0.039897 0.030588 0.000348279)
(-0.0408742 0.0190729 0.000356809)
(-0.0415641 0.0099601 0.000362832)
(-0.042039 0.00277922 0.000366978)
(-0.0422916 -0.00284594 0.000369184)
(-0.0423587 -0.00720362 0.00036977)
(-0.0422459 -0.0105273 0.000368785)
(-0.0419733 -0.0130022 0.000366406)
(-0.0415501 -0.0147807 0.000362712)
(-0.0409904 -0.0159872 0.000357827)
(-0.0403049 -0.0167254 0.000351843)
(-0.0395056 -0.0170822 0.000344867)
(-0.038604 -0.0171312 0.000336996)
(-0.0376118 -0.0169353 0.000328336)
(-0.0365405 -0.016548 0.000318984)
(-0.0354015 -0.0160155 0.000309042)
(-0.0342061 -0.0153772 0.000298607)
(-0.0329649 -0.0146668 0.000287773)
(-0.0316882 -0.0139127 0.000276629)
(-0.0303855 -0.0131387 0.000265258)
(-0.0290656 -0.0123644 0.000253736)
(-0.00490046 0.731052 4.2777e-05)
(-0.0107163 0.52811 9.35496e-05)
(-0.016072 0.389344 0.0001403)
(-0.0208725 0.292773 0.000182205)
(-0.0247929 0.222358 0.000216427)
(-0.0282578 0.169556 0.000246674)
(-0.0310249 0.12907 0.00027083)