/*--------------------------------*- C++ -*----------------------------------*\
| =========                 |                                                 |
| \\      /  F ield         | OpenFOAM: The Open Source CFD Toolbox           |
|  \\    /   O peration     | Version:  v2012                                 |
|   \\  /    A nd           | Website:  www.openfoam.com                      |
|    \\/     M anipulation  |                                                 |
\*---------------------------------------------------------------------------*/
FoamFile
{
    version     2.0;
    format      ascii;
    class       surfaceScalarField;
    location    "0.7";
    object      phi;
}
// * * * * * * * * * * * * * * * * * * * * * * * * * * * * * * * * * * * * * //

dimensions      [0 3 -1 0 0 0 0];
oriented        oriented;


internalField   nonuniform List<scalar> 
8135
(
3.53359e-11
-2.15604e-09
-6.76893e-19
3.69978e-11
-2.30807e-09
2.66853e-18
3.84724e-11
-2.46217e-09
-1.82639e-18
3.97102e-11
-2.6183e-09
-2.69504e-19
4.06596e-11
-2.77377e-09
-6.03538e-18
4.1267e-11
-2.92647e-09
-7.04966e-18
4.14778e-11
-3.07599e-09
-1.94422e-17
4.12399e-11
-3.21691e-09
-2.83428e-17
4.05027e-11
-3.34797e-09
-6.7185e-17
3.92234e-11
-3.46425e-09
-7.04846e-17
3.73696e-11
-3.56178e-09
-7.98109e-17
3.49247e-11
-3.63615e-09
-7.83133e-17
3.18998e-11
-3.67882e-09
-8.25001e-17
2.83402e-11
-3.68152e-09
-7.61987e-17
2.43343e-11
-3.63141e-09
-7.51948e-17
2.00144e-11
-3.50876e-09
-6.62966e-17
1.5541e-11
-3.28653e-09
-6.25516e-17
1.10705e-11
-2.92964e-09
-5.32808e-17
6.77193e-12
-2.39396e-09
-4.77123e-17
2.91406e-12
-1.63175e-09
-3.87302e-17
-5.88536e-10
-3.07064e-17
3.55306e-11
-2.15784e-09
4.52335e-17
3.71934e-11
-2.30973e-09
4.51498e-17
3.86673e-11
-2.46364e-09
4.19055e-17
3.99026e-11
-2.61954e-09
3.80926e-17
4.08474e-11
-2.77471e-09
3.32175e-17
4.1448e-11
-2.92707e-09
2.12894e-17
4.16496e-11
-3.0762e-09
1.99917e-18
4.13999e-11
-3.21666e-09
-2.97417e-17
4.06485e-11
-3.34722e-09
-5.17716e-17
3.93522e-11
-3.46295e-09
-6.35954e-17
3.74788e-11
-3.55991e-09
-6.68559e-17
3.50116e-11
-3.63368e-09
-6.8328e-17
3.19615e-11
-3.67577e-09
-6.65417e-17
2.83741e-11
-3.67794e-09
-6.37747e-17
2.43388e-11
-3.62737e-09
-5.76004e-17
1.99895e-11
-3.50441e-09
-5.24307e-17
1.54886e-11
-3.28203e-09
-4.43133e-17
1.09952e-11
-2.92515e-09
-3.84667e-17
6.67339e-12
-2.38964e-09
-2.9281e-17
2.77311e-12
-1.62785e-09
-2.12005e-17
-5.85769e-10
-7.53975e-18
3.59057e-11
-2.15966e-09
1.037e-16
3.75786e-11
-2.31141e-09
1.03543e-16
3.90587e-11
-2.46512e-09
9.68925e-17
4.02958e-11
-2.62077e-09
9.28342e-17
4.12377e-11
-2.77566e-09
8.32154e-17
4.183e-11
-2.92766e-09
6.48353e-17
4.20177e-11
-3.07638e-09
2.8748e-17
4.17481e-11
-3.21639e-09
-1.06381e-18
4.09708e-11
-3.34644e-09
-2.74166e-17
3.96428e-11
-3.46163e-09
-4.08797e-17
3.77317e-11
-3.558e-09
-5.73588e-17
3.52212e-11
-3.63117e-09
-6.43519e-17
3.21227e-11
-3.67268e-09
-6.97316e-17
2.84821e-11
-3.67429e-09
-6.76008e-17
2.43895e-11
-3.62328e-09
-6.33805e-17
1.99804e-11
-3.5e-09
-5.51938e-17
1.54203e-11
-3.27747e-09
-4.58086e-17
1.08739e-11
-2.9206e-09
-3.54129e-17
6.51099e-12
-2.38528e-09
-2.33506e-17
2.55534e-12
-1.6239e-09
-8.87327e-18
-5.83214e-10
6.39031e-18
3.64498e-11
-2.1615e-09
1.62953e-16
3.81401e-11
-2.31309e-09
1.60054e-16
3.96323e-11
-2.46661e-09
1.53249e-16
4.08754e-11
-2.62201e-09
1.45983e-16
4.18162e-11
-2.77659e-09
1.358e-16
4.23997e-11
-2.92825e-09
1.08463e-16
4.257e-11
-3.07655e-09
6.39109e-17
4.22741e-11
-3.21609e-09
1.43539e-17
4.14618e-11
-3.34563e-09
1.04344e-17
4.00896e-11
-3.46025e-09
-8.39427e-18
3.81257e-11
-3.55604e-09
-2.06898e-17
3.55543e-11
-3.6286e-09
-2.90089e-17
3.23872e-11
-3.66951e-09
-3.03942e-17
2.86713e-11
-3.67058e-09
-3.03023e-17
2.44977e-11
-3.61911e-09
-2.23147e-17
2.00035e-11
-3.49551e-09
-1.63691e-17
1.53585e-11
-3.27283e-09
-3.5322e-18
1.07367e-11
-2.91597e-09
4.65656e-18
6.32546e-12
-2.38087e-09
2.01678e-17
2.40492e-12
-1.61997e-09
3.47368e-17
-5.80804e-10
5.71854e-17
3.71599e-11
-2.16337e-09
2.18555e-16
3.88739e-11
-2.31481e-09
2.15764e-16
4.0383e-11
-2.46812e-09
2.05629e-16
4.16351e-11
-2.62326e-09
1.99331e-16
4.25758e-11
-2.77753e-09
1.85184e-16
4.31492e-11
-2.92882e-09
1.54788e-16
4.32984e-11
-3.0767e-09
9.66321e-17
4.297e-11
-3.21576e-09
5.20212e-17
4.21133e-11
-3.34477e-09
4.16106e-17
4.06851e-11
-3.45883e-09
2.42023e-17
3.86539e-11
-3.55401e-09
1.02584e-18
3.60047e-11
-3.62595e-09
-9.37126e-18
3.27503e-11
-3.66625e-09
-1.61392e-17
2.89388e-11
-3.66677e-09
-1.37728e-17
2.46625e-11
-3.61483e-09
-6.34055e-18
2.00612e-11
-3.49091e-09
4.73162e-18
1.53104e-11
-3.26807e-09
1.93713e-17
1.05966e-11
-2.91126e-09
3.31311e-17
6.13282e-12
-2.3764e-09
5.14438e-17
2.26719e-12
-1.6161e-09
7.2843e-17
-5.78534e-10
9.39803e-17
3.80353e-11
-2.16527e-09
2.719e-16
3.97795e-11
-2.31655e-09
2.65729e-16
4.13103e-11
-2.46965e-09
2.55858e-16
4.25744e-11
-2.62453e-09
2.4703e-16
4.35161e-11
-2.77847e-09
2.33871e-16
4.40781e-11
-2.92938e-09
1.97818e-16
4.42025e-11
-3.07682e-09
1.36089e-16
4.38351e-11
-3.21539e-09
7.35303e-17
4.29251e-11
-3.34386e-09
7.96114e-17
4.14292e-11
-3.45733e-09
5.67117e-17
3.93166e-11
-3.55189e-09
3.87014e-17
3.65731e-11
-3.62321e-09
2.80948e-17
3.32132e-11
-3.66289e-09
2.6649e-17
2.92862e-11
-3.66284e-09
2.85596e-17
2.48869e-11
-3.61043e-09
4.13073e-17
2.01583e-11
-3.48618e-09
5.1786e-17
1.52831e-11
-3.2632e-09
7.11906e-17
1.04637e-11
-2.90644e-09
8.3921e-17
5.94246e-12
-2.37188e-09
1.06299e-16
2.12135e-12
-1.61228e-09
1.27939e-16
-5.76409e-10
1.54962e-16
3.90753e-11
-2.16722e-09
3.19004e-16
4.08558e-11
-2.31833e-09
3.12251e-16
4.24133e-11
-2.4712e-09
2.99247e-16
4.36926e-11
-2.6258e-09
2.92172e-16
4.46365e-11
-2.77941e-09
2.76332e-16
4.51861e-11
-2.92992e-09
2.40978e-16
4.52824e-11
-3.07692e-09
1.71067e-16
4.48702e-11
-3.21498e-09
1.16244e-16
4.38984e-11
-3.34288e-09
1.11108e-16
4.23237e-11
-3.45575e-09
8.88289e-17
4.01161e-11
-3.54968e-09
5.99364e-17
3.72626e-11
-3.62035e-09
4.74284e-17
3.37794e-11
-3.65941e-09
4.04719e-17
2.97183e-11
-3.65878e-09
4.49807e-17
2.51766e-11
-3.60589e-09
5.71201e-17
2.0302e-11
-3.4813e-09
7.32401e-17
1.5286e-11
-3.25818e-09
9.45484e-17
1.03495e-11
-2.9015e-09
1.13327e-16
5.76646e-12
-2.36729e-09
1.38255e-16
1.98396e-12
-1.60849e-09
1.66445e-16
-5.74421e-10
1.91663e-16
4.02793e-11
-2.16922e-09
3.61788e-16
4.21023e-11
-2.32015e-09
3.51147e-16
4.36913e-11
-2.47279e-09
3.39035e-16
4.4989e-11
-2.6271e-09
3.29935e-16
4.59363e-11
-2.78036e-09
3.16649e-16
4.64727e-11
-2.93046e-09
2.78856e-16
4.65377e-11
-3.07698e-09
2.10906e-16
4.60753e-11
-3.21452e-09
1.41836e-16
4.50335e-11
-3.34184e-09
1.49685e-16
4.33695e-11
-3.45409e-09
1.21144e-16
4.10539e-11
-3.54737e-09
9.69391e-17
3.80753e-11
-3.61737e-09
8.28606e-17
3.44521e-11
-3.65578e-09
8.01967e-17
3.02388e-11
-3.65456e-09
8.3091e-17
2.55364e-11
-3.60118e-09
9.98525e-17
2.04983e-11
-3.47626e-09
1.14712e-16
1.53265e-11
-3.253e-09
1.40402e-16
1.02622e-11
-2.89643e-09
1.57694e-16
5.61221e-12
-2.36264e-09
1.86205e-16
1.86464e-12
-1.60474e-09
2.13894e-16
-5.72551e-10
2.4498e-16
4.16475e-11
-2.17128e-09
3.96521e-16
4.35192e-11
-2.32201e-09
3.85683e-16
4.51443e-11
-2.47441e-09
3.7092e-16
4.64634e-11
-2.62841e-09
3.64494e-16
4.74154e-11
-2.78131e-09
3.49571e-16
4.79379e-11
-2.93098e-09
3.15854e-16
4.79687e-11
-3.07701e-09
2.44615e-16
4.74505e-11
-3.214e-09
1.87045e-16
4.63311e-11
-3.34072e-09
1.82239e-16
4.45675e-11
-3.45232e-09
1.54551e-16
4.21314e-11
-3.54493e-09
1.1923e-16
3.90131e-11
-3.61425e-09
1.02612e-16
3.52337e-11
-3.652e-09
9.29502e-17
3.08509e-11
-3.65018e-09
9.72637e-17
2.59704e-11
-3.5963e-09
1.1172e-16
2.07522e-11
-3.47104e-09
1.31091e-16
1.54104e-11
-3.24766e-09
1.5715e-16
1.02077e-11
-2.89123e-09
1.79497e-16
5.48409e-12
-2.35791e-09
2.09121e-16
1.76344e-12
-1.60101e-09
2.42332e-16
-5.70781e-10
2.71226e-16
4.31807e-11
-2.17341e-09
4.26442e-16
4.51069e-11
-2.32394e-09
4.12105e-16
4.67727e-11
-2.47607e-09
3.99248e-16
4.81163e-11
-2.62975e-09
3.91276e-16
4.90743e-11
-2.78226e-09
3.80252e-16
4.95821e-11
-2.93148e-09
3.46524e-16
4.95757e-11
-3.077e-09
2.81924e-16
4.89968e-11
-3.21341e-09
2.14005e-16
4.77921e-11
-3.33951e-09
2.21601e-16
4.5919e-11
-3.45045e-09
1.88019e-16
4.33502e-11
-3.54236e-09
1.57566e-16
4.0078e-11
-3.61098e-09
1.38155e-16
3.61265e-11
-3.64805e-09
1.31641e-16
3.15575e-11
-3.64561e-09
1.3261e-16
2.64819e-11
-3.59122e-09
1.50295e-16
2.10676e-11
-3.46562e-09
1.66774e-16
1.55421e-11
-3.24213e-09
1.95892e-16
1.01904e-11
-2.88587e-09
2.15287e-16
5.38451e-12
-2.3531e-09
2.47196e-16
1.6794e-12
-1.5973e-09
2.78448e-16
-5.69096e-10
3.12675e-16
4.488e-11
-2.1756e-09
4.48147e-16
4.68665e-11
-2.32592e-09
4.34788e-16
4.85775e-11
-2.47778e-09
4.19919e-16
4.99486e-11
-2.63112e-09
4.15545e-16
5.09138e-11
-2.78322e-09
4.03467e-16
5.14062e-11
-2.93197e-09
3.76265e-16
5.13599e-11
-3.07695e-09
3.11833e-16
5.0715e-11
-3.21277e-09
2.58832e-16
4.94178e-11
-3.33821e-09
2.53848e-16
4.74256e-11
-3.44845e-09
2.22479e-16
4.47122e-11
-3.53964e-09
1.8142e-16
4.12723e-11
-3.60754e-09
1.59589e-16
3.71333e-11
-3.64391e-09
1.45013e-16
3.23616e-11
-3.64083e-09
1.46501e-16
2.70742e-11
-3.58593e-09
1.60136e-16
2.14482e-11
-3.45999e-09
1.79847e-16
1.57251e-11
-3.2364e-09
2.07448e-16
1.0213e-11
-2.88035e-09
2.30567e-16
5.3148e-12
-2.34819e-09
2.61776e-16
1.61182e-12
-1.59359e-09
2.97145e-16
-5.67477e-10
3.28143e-16
4.67472e-11
-2.17788e-09
4.65858e-16
4.87997e-11
-2.32797e-09
4.50018e-16
5.05603e-11
-2.47953e-09
4.38219e-16
5.19618e-11
-2.63252e-09
4.32536e-16
5.29352e-11
-2.78419e-09
4.25265e-16
5.34115e-11
-2.93244e-09
3.99278e-16
5.33225e-11
-3.07686e-09
3.44611e-16
5.26068e-11
-3.21205e-09
2.84118e-16
5.12097e-11
-3.33681e-09
2.91921e-16
4.90888e-11
-3.44633e-09
2.55638e-16
4.62193e-11
-3.53677e-09
2.20511e-16
4.2598e-11
-3.60391e-09
1.95502e-16
3.82563e-11
-3.63956e-09
1.83811e-16
3.32657e-11
-3.63584e-09
1.80787e-16
2.77503e-11
-3.58041e-09
1.96755e-16
2.1897e-11
-3.45414e-09
2.12134e-16
1.59624e-11
-3.23046e-09
2.41656e-16
1.02777e-11
-2.87466e-09
2.6036e-16
5.27548e-12
-2.34318e-09
2.92602e-16
1.5599e-12
-1.58987e-09
3.24392e-16
-5.6591e-10
3.59654e-16
4.87846e-11
-2.18024e-09
4.76559e-16
5.09086e-11
-2.33009e-09
4.63136e-16
5.27231e-11
-2.48134e-09
4.49676e-16
5.41577e-11
-2.63395e-09
4.4825e-16
5.51405e-11
-2.78517e-09
4.39875e-16
5.55999e-11
-2.93289e-09
4.21763e-16
5.54652e-11
-3.07672e-09
3.68923e-16
5.46737e-11
-3.21125e-09
3.25544e-16
5.31695e-11
-3.3353e-09
3.21095e-16
5.09106e-11
-3.44407e-09
2.88775e-16
4.78734e-11
-3.53373e-09
2.44034e-16
4.40573e-11
-3.60009e-09
2.17581e-16
3.94979e-11
-3.635e-09
1.97525e-16
3.42725e-11
-3.63061e-09
1.94912e-16
2.85127e-11
-3.57465e-09
2.05669e-16
2.24165e-11
-3.44804e-09
2.23555e-16
1.62561e-11
-3.2243e-09
2.50048e-16
1.03857e-11
-2.86879e-09
2.71515e-16
5.26646e-12
-2.33806e-09
3.01484e-16
1.52268e-12
-1.58612e-09
3.36099e-16
-5.6438e-10
3.66819e-16
5.09949e-11
-2.1827e-09
4.85597e-16
5.31959e-11
-2.33228e-09
4.69968e-16
5.50684e-11
-2.48321e-09
4.60205e-16
5.65387e-11
-2.63541e-09
4.57173e-16
5.75319e-11
-2.78616e-09
4.54025e-16
5.79734e-11
-2.93333e-09
4.37179e-16
5.77902e-11
-3.07653e-09
3.95664e-16
5.69178e-11
-3.21037e-09
3.46154e-16
5.52994e-11
-3.33368e-09
3.55007e-16
5.28931e-11
-3.44166e-09
3.18748e-16
4.96767e-11
-3.53051e-09
2.81503e-16
4.56524e-11
-3.59607e-09
2.52128e-16
4.08605e-11
-3.63021e-09
2.3556e-16
3.53843e-11
-3.62513e-09
2.27951e-16
2.93638e-11
-3.56863e-09
2.40896e-16
2.30087e-11
-3.44168e-09
2.53543e-16
1.66076e-11
-3.21789e-09
2.81398e-16
1.05377e-11
-2.86271e-09
2.97395e-16
5.28724e-12
-2.3328e-09
3.27577e-16
1.49918e-12
-1.58233e-09
3.57196e-16
-5.62873e-10
3.9107e-16
5.33814e-11
-2.18525e-09
4.88941e-16
5.56647e-11
-2.33456e-09
4.7622e-16
5.75992e-11
-2.48514e-09
4.64389e-16
5.91077e-11
-2.63692e-09
4.65894e-16
6.01121e-11
-2.78716e-09
4.61029e-16
6.05346e-11
-2.93375e-09
4.52543e-16
6.02999e-11
-3.07629e-09
4.1297e-16
5.93415e-11
-3.20941e-09
3.81625e-16
5.76016e-11
-3.33194e-09
3.78313e-16
5.50384e-11
-3.43909e-09
3.47766e-16
5.16313e-11
-3.5271e-09
3.01986e-16
4.73856e-11
-3.59182e-09
2.72693e-16
4.23462e-11
-3.62516e-09
2.48011e-16
3.66032e-11
-3.61938e-09
2.41425e-16
3.03057e-11
-3.56232e-09
2.48597e-16
2.36754e-11
-3.43504e-09
2.63679e-16
1.70182e-11
-3.21123e-09
2.87533e-16
1.07339e-11
-2.85642e-09
3.05892e-16
5.3371e-12
-2.3274e-09
3.3266e-16
1.48839e-12
-1.57847e-09
3.64179e-16
-5.61377e-10
3.92297e-16
5.59478e-11
-2.18791e-09
4.9182e-16
5.83187e-11
-2.33693e-09
4.76516e-16
6.0319e-11
-2.48714e-09
4.68641e-16
6.1868e-11
-2.63846e-09
4.6785e-16
6.28841e-11
-2.78817e-09
4.68368e-16
6.32865e-11
-2.93415e-09
4.6038e-16
6.2997e-11
-3.076e-09
4.32602e-16
6.19473e-11
-3.20836e-09
3.95251e-16
6.00785e-11
-3.33006e-09
4.05708e-16
5.73489e-11
-3.43635e-09
3.71929e-16
5.37397e-11
-3.52348e-09
3.35394e-16
4.92592e-11
-3.58733e-09
3.03743e-16
4.39573e-11
-3.61986e-09
2.83755e-16
3.79314e-11
-3.61335e-09
2.72184e-16
3.13401e-11
-3.55573e-09
2.82038e-16
2.44181e-11
-3.42812e-09
2.91469e-16
1.74886e-11
-3.2043e-09
3.16721e-16
1.09742e-11
-2.8499e-09
3.29e-16
5.41517e-12
-2.32183e-09
3.55664e-16
1.48939e-12
-1.57454e-09
3.81107e-16
-5.5988e-10
4.11513e-16
5.86986e-11
-2.19068e-09
4.89064e-16
6.11619e-11
-2.33939e-09
4.7707e-16
6.32317e-11
-2.4892e-09
4.66416e-16
6.48234e-11
-2.64005e-09
4.70376e-16
6.58516e-11
-2.78919e-09
4.6828e-16
6.62324e-11
-2.93452e-09
4.68726e-16
6.58847e-11
-3.07565e-09
4.4201e-16
6.47382e-11
-3.20721e-09
4.2316e-16
6.27328e-11
-3.32805e-09
4.21265e-16
5.98273e-11
-3.43344e-09
3.94807e-16
5.60042e-11
-3.51966e-09
3.50648e-16
5.12753e-11
-3.5826e-09
3.20878e-16
4.56959e-11
-3.61427e-09
2.93293e-16
3.93708e-11
-3.60702e-09
2.83856e-16
3.24688e-11
-3.54882e-09
2.87799e-16
2.5238e-11
-3.42088e-09
3.00151e-16
1.80195e-11
-3.19707e-09
3.20895e-16
1.12585e-11
-2.84314e-09
3.3566e-16
5.52056e-12
-2.31609e-09
3.58184e-16
1.50131e-12
-1.57051e-09
3.85037e-16
-5.58371e-10
4.08736e-16
6.16382e-11
-2.19357e-09
4.86587e-16
6.4199e-11
-2.34195e-09
4.71381e-16
6.63418e-11
-2.49134e-09
4.64912e-16
6.7978e-11
-2.64168e-09
4.65763e-16
6.90186e-11
-2.79023e-09
4.69244e-16
6.9376e-11
-2.93487e-09
4.69033e-16
6.89664e-11
-3.07524e-09
4.54086e-16
6.77174e-11
-3.20595e-09
4.28582e-16
6.55676e-11
-3.3259e-09
4.40938e-16
6.24762e-11
-3.43035e-09
4.11626e-16
5.84274e-11
-3.5156e-09
3.78483e-16
5.34364e-11
-3.5776e-09
3.46979e-16
4.75641e-11
-3.6084e-09
3.25643e-16
4.09233e-11
-3.60038e-09
3.11499e-16
3.36932e-11
-3.54159e-09
3.1908e-16
2.61362e-11
-3.41332e-09
3.25706e-16
1.86112e-11
-3.18954e-09
3.48374e-16
1.15864e-11
-2.8361e-09
3.56803e-16
5.65236e-12
-2.31015e-09
3.79343e-16
1.52337e-12
-1.56637e-09
3.99371e-16
-5.56839e-10
4.24823e-16
6.4772e-11
-2.19659e-09
4.77897e-16
6.7435e-11
-2.34461e-09
4.66448e-16
6.96541e-11
-2.49356e-09
4.56413e-16
7.13365e-11
-2.64336e-09
4.62397e-16
7.23893e-11
-2.79128e-09
4.62313e-16
7.27214e-11
-2.9352e-09
4.70605e-16
7.22459e-11
-3.07476e-09
4.55386e-16
7.08883e-11
-3.20459e-09
4.48475e-16
6.8586e-11
-3.32359e-09
4.48077e-16
6.52985e-11
-3.42706e-09
4.27587e-16
6.10118e-11
-3.51131e-09
3.87459e-16
5.57447e-11
-3.57233e-09
3.59722e-16
4.9564e-11
-3.60221e-09
3.31342e-16
4.25907e-11
-3.5934e-09
3.20734e-16
3.50149e-11
-3.53401e-09
3.22499e-16
2.71135e-11
-3.40541e-09
3.32934e-16
1.92641e-11
-3.18169e-09
3.50915e-16
1.19576e-11
-2.82879e-09
3.62361e-16
5.80974e-12
-2.30399e-09
3.80348e-16
1.55488e-12
-1.56211e-09
4.01691e-16
-5.55276e-10
4.19754e-16
6.81056e-11
-2.19973e-09
4.69706e-16
7.08753e-11
-2.34737e-09
4.54642e-16
7.31738e-11
-2.49585e-09
4.49278e-16
7.49039e-11
-2.64509e-09
4.51357e-16
7.59685e-11
-2.79234e-09
4.57267e-16
7.62729e-11
-2.9355e-09
4.63669e-16
7.57271e-11
-3.07421e-09
4.60179e-16
7.42545e-11
-3.20311e-09
4.45598e-16
7.17914e-11
-3.32112e-09
4.60053e-16
6.82971e-11
-3.42356e-09
4.36824e-16
6.37601e-11
-3.50677e-09
4.09462e-16
5.82026e-11
-3.56677e-09
3.80519e-16
5.16977e-11
-3.5957e-09
3.6011e-16
4.43746e-11
-3.58607e-09
3.45143e-16
3.64351e-11
-3.52606e-09
3.51795e-16
2.81708e-11
-3.39714e-09
3.56614e-16
1.99782e-11
-3.17349e-09
3.7739e-16
1.23715e-11
-2.82118e-09
3.82455e-16
5.99191e-12
-2.29761e-09
4.00893e-16
1.59526e-12
-1.55771e-09
4.14927e-16
-5.53673e-10
4.3452e-16
7.16448e-11
-2.20301e-09
4.54831e-16
7.45257e-11
-2.35025e-09
4.44384e-16
7.69065e-11
-2.49823e-09
4.34643e-16
7.86854e-11
-2.64686e-09
4.42448e-16
7.97612e-11
-2.79341e-09
4.43856e-16
8.00353e-11
-2.93577e-09
4.59067e-16
7.94145e-11
-3.07358e-09
4.53869e-16
7.78201e-11
-3.20151e-09
4.58092e-16
7.51871e-11
-3.31849e-09
4.59233e-16
7.14753e-11
-3.41984e-09
4.46321e-16
6.66751e-11
-3.50196e-09
4.1233e-16
6.08126e-11
-3.5609e-09
3.89039e-16
5.39671e-11
-3.58885e-09
3.62015e-16
4.62768e-11
-3.57838e-09
3.52137e-16
3.7955e-11
-3.51773e-09
3.53124e-16
2.93087e-11
-3.38849e-09
3.62901e-16
2.07539e-11
-3.16493e-09
3.78983e-16
1.28278e-11
-2.81324e-09
3.87862e-16
6.19819e-12
-2.29097e-09
4.0151e-16
1.64398e-12
-1.55314e-09
4.17076e-16
-5.52021e-10
4.2883e-16
7.53962e-11
-2.20643e-09
4.41699e-16
7.83926e-11
-2.35324e-09
4.26974e-16
8.08583e-11
-2.50069e-09
4.22414e-16
8.26868e-11
-2.64869e-09
4.25419e-16
8.37727e-11
-2.79449e-09
4.33481e-16
8.40134e-11
-2.93601e-09
4.45601e-16
8.33126e-11
-3.07288e-09
4.5236e-16
8.15892e-11
-3.19978e-09
4.47801e-16
7.87769e-11
-3.31567e-09
4.64582e-16
7.48363e-11
-3.41589e-09
4.48861e-16
6.97595e-11
-3.49688e-09
4.29396e-16
6.35769e-11
-3.55472e-09
4.05245e-16
5.63743e-11
-3.58164e-09
3.87976e-16
4.82988e-11
-3.5703e-09
3.74024e-16
3.95758e-11
-3.50901e-09
3.81314e-16
3.05279e-11
-3.37943e-09
3.85625e-16
2.1591e-11
-3.15598e-09
4.0558e-16
1.33262e-11
-2.80497e-09
4.08096e-16
6.42792e-12
-2.28406e-09
4.22804e-16
1.70061e-12
-1.54841e-09
4.30753e-16
-5.50312e-10
4.44105e-16
7.93665e-11
-2.20999e-09
4.21685e-16
8.24824e-11
-2.35635e-09
4.12324e-16
8.50354e-11
-2.50324e-09
4.02349e-16
8.69141e-11
-2.65056e-09
4.11813e-16
8.80086e-11
-2.79558e-09
4.144e-16
8.82125e-11
-2.9362e-09
4.35946e-16
8.7426e-11
-3.07208e-09
4.39617e-16
8.55658e-11
-3.19792e-09
4.54395e-16
8.25646e-11
-3.31266e-09
4.57151e-16
7.83833e-11
-3.41171e-09
4.5334e-16
7.30163e-11
-3.49151e-09
4.27343e-16
6.64981e-11
-3.54819e-09
4.10702e-16
5.89212e-11
-3.57406e-09
3.87032e-16
5.04421e-11
-3.56181e-09
3.79767e-16
4.12985e-11
-3.49986e-09
3.81477e-16
3.1829e-11
-3.36996e-09
3.9203e-16
2.24898e-11
-3.14664e-09
4.07305e-16
1.38662e-11
-2.79634e-09
4.14551e-16
6.6806e-12
-2.27687e-09
4.24261e-16
1.76477e-12
-1.54348e-09
4.34205e-16
-5.48538e-10
4.39471e-16
8.35628e-11
-2.21371e-09
4.04454e-16
8.68022e-11
-2.35959e-09
3.9023e-16
8.94445e-11
-2.50588e-09
3.86166e-16
9.13736e-11
-2.65249e-09
3.8984e-16
9.24749e-11
-2.79668e-09
3.99973e-16
9.2638e-11
-2.93636e-09
4.17243e-16
9.17596e-11
-3.0712e-09
4.3347e-16
8.97546e-11
-3.19591e-09
4.38357e-16
8.65541e-11
-3.30946e-09
4.57738e-16
8.21197e-11
-3.40727e-09
4.50917e-16
7.64482e-11
-3.48583e-09
4.41255e-16
6.95784e-11
-3.54132e-09
4.23885e-16
6.16097e-11
-3.56609e-09
4.11757e-16
5.27081e-11
-3.5529e-09
4.00545e-16
4.3124e-11
-3.49027e-09
4.10036e-16
3.32125e-11
-3.36004e-09
4.15192e-16
2.34503e-11
-3.13687e-09
4.35488e-16
1.44476e-11
-2.78733e-09
4.36295e-16
6.95573e-12
-2.26937e-09
4.47722e-16
1.83616e-12
-1.53836e-09
4.49848e-16
-5.46694e-10
4.57084e-16
8.79927e-11
-2.21759e-09
3.80106e-16
9.1359e-11
-2.36295e-09
3.72584e-16
9.40926e-11
-2.50861e-09
3.62071e-16
9.60719e-11
-2.65446e-09
3.7314e-16
9.71776e-11
-2.79778e-09
3.7672e-16
9.72955e-11
-2.93648e-09
4.04313e-16
9.63187e-11
-3.07022e-09
4.16121e-16
9.41599e-11
-3.19374e-09
4.41269e-16
9.07492e-11
-3.30604e-09
4.45706e-16
8.60488e-11
-3.40256e-09
4.52537e-16
8.00581e-11
-3.47983e-09
4.36198e-16
7.28202e-11
-3.53407e-09
4.28165e-16
6.44416e-11
-3.5577e-09
4.09572e-16
5.50983e-11
-3.54356e-09
4.06628e-16
4.50534e-11
-3.48022e-09
4.10446e-16
3.46789e-11
-3.34966e-09
4.23151e-16
2.44725e-11
-3.12665e-09
4.38643e-16
1.50701e-11
-2.77792e-09
4.45066e-16
7.25293e-12
-2.26154e-09
4.51177e-16
1.91451e-12
-1.53301e-09
4.55972e-16
-5.4477e-10
4.55116e-16
9.26639e-11
-2.22163e-09
3.60661e-16
9.61607e-11
-2.36645e-09
3.477e-16
9.89868e-11
-2.51143e-09
3.44039e-16
1.01016e-10
-2.65649e-09
3.4813e-16
1.02123e-10
-2.79888e-09
3.60306e-16
1.02191e-10
-2.93654e-09
3.82337e-16
1.01108e-10
-3.06914e-09
4.07646e-16
9.87864e-11
-3.19142e-09
4.21769e-16
9.5154e-11
-3.3024e-09
4.43994e-16
9.01741e-11
-3.39758e-09
4.4746e-16
8.38488e-11
-3.4735e-09
4.49337e-16
7.62257e-11
-3.52645e-09
4.40452e-16
6.74188e-11
-3.54889e-09
4.35164e-16
5.76138e-11
-3.53374e-09
4.28164e-16
4.70874e-11
-3.46968e-09
4.41217e-16
3.62285e-11
-3.33879e-09
4.48382e-16
2.55564e-11
-3.11597e-09
4.69966e-16
1.57334e-11
-2.76809e-09
4.69605e-16
7.57183e-12
-2.25337e-09
4.78007e-16
1.99961e-12
-1.52743e-09
4.7488e-16
-5.42762e-10
4.76752e-16
9.75847e-11
-2.22584e-09
3.34677e-16
1.01215e-10
-2.37008e-09
3.29833e-16
1.04135e-10
-2.51435e-09
3.18439e-16
1.06212e-10
-2.65856e-09
3.30913e-16
1.07318e-10
-2.79999e-09
3.35184e-16
1.0733e-10
-2.93655e-09
3.68611e-16
1.06134e-10
-3.06794e-09
3.88109e-16
1.03639e-10
-3.18892e-09
4.23776e-16
9.97725e-11
-3.29853e-09
4.29846e-16
9.4499e-11
-3.3923e-09
4.48844e-16
8.78231e-11
-3.46682e-09
4.43624e-16
7.97971e-11
-3.51841e-09
4.45873e-16
7.05428e-11
-3.53963e-09
4.33728e-16
6.02559e-11
-3.52345e-09
4.36511e-16
4.92268e-11
-3.45865e-09
4.43517e-16
3.78618e-11
-3.32742e-09
4.59438e-16
2.67022e-11
-3.10481e-09
4.75781e-16
1.64374e-11
-2.75782e-09
4.81715e-16
7.91215e-12
-2.24484e-09
4.84248e-16
2.09127e-12
-1.5216e-09
4.84704e-16
-5.40661e-10
4.78822e-16
1.02763e-10
-2.23022e-09
3.16658e-16
1.0653e-10
-2.37384e-09
3.05462e-16
1.09544e-10
-2.51736e-09
3.01853e-16
1.11668e-10
-2.66069e-09
3.05723e-16
1.12769e-10
-2.80108e-09
3.19663e-16
1.12718e-10
-2.93649e-09
3.45968e-16
1.11401e-10
-3.06662e-09
3.80167e-16
1.08722e-10
-3.18623e-09
4.03537e-16
1.04609e-10
-3.29442e-09
4.28705e-16
9.90268e-11
-3.38671e-09
4.43739e-16
9.19836e-11
-3.45977e-09
4.58678e-16
8.35366e-11
-3.50996e-09
4.59657e-16
7.38152e-11
-3.5299e-09
4.62531e-16
6.30257e-11
-3.51266e-09
4.60836e-16
5.14722e-11
-3.44709e-09
4.78424e-16
3.95789e-11
-3.31552e-09
4.88304e-16
2.79097e-11
-3.09313e-09
5.11546e-16
1.71817e-11
-2.74708e-09
5.09891e-16
8.27361e-12
-2.23592e-09
5.15089e-16
2.18935e-12
-1.5155e-09
5.0766e-16
-5.38462e-10
5.05811e-16
1.08209e-10
-2.23478e-09
2.9368e-16
1.12114e-10
-2.37774e-09
2.91689e-16
1.15223e-10
-2.52046e-09
2.78391e-16
1.17392e-10
-2.66285e-09
2.91448e-16
1.18482e-10
-2.80217e-09
2.95663e-16
1.18363e-10
-2.93637e-09
3.34502e-16
1.16914e-10
-3.06516e-09
3.61279e-16
1.1404e-10
-3.18335e-09
4.07758e-16
1.09667e-10
-3.29004e-09
4.15206e-16
1.03761e-10
-3.3808e-09
4.47719e-16
9.6333e-11
-3.45234e-09
4.54798e-16
8.74461e-11
-3.50107e-09
4.68659e-16
7.72375e-11
-3.51969e-09
4.63915e-16
6.59241e-11
-3.50134e-09
4.7341e-16
5.38242e-11
-3.43498e-09
4.84184e-16
4.13801e-11
-3.30307e-09
5.03792e-16
2.91789e-11
-3.08092e-09
5.20837e-16
1.79662e-11
-2.73586e-09
5.25756e-16
8.656e-12
-2.2266e-09
5.24181e-16
2.2937e-12
-1.50913e-09
5.21578e-16
-5.36159e-10
5.12841e-16
1.13931e-10
-2.23952e-09
2.83331e-16
1.17976e-10
-2.38179e-09
2.7263e-16
1.21179e-10
-2.52366e-09
2.67504e-16
1.2339e-10
-2.66506e-09
2.6957e-16
1.24465e-10
-2.80324e-09
2.84442e-16
1.2427e-10
-2.93617e-09
3.14174e-16
1.2268e-10
-3.06357e-09
3.57023e-16
1.19598e-10
-3.18027e-09
3.89631e-16
1.1495e-10
-3.28539e-09
4.1767e-16
1.08704e-10
-3.37455e-09
4.45245e-16
1.00874e-10
-3.4445e-09
4.74447e-16
9.15275e-11
-3.49172e-09
4.86264e-16
8.08109e-11
-3.50896e-09
4.98188e-16
6.8952e-11
-3.48947e-09
5.02395e-16
5.62832e-11
-3.4223e-09
5.24897e-16
4.32656e-11
-3.29004e-09
5.37442e-16
3.05096e-11
-3.06815e-09
5.61737e-16
1.87907e-11
-2.72413e-09
5.57583e-16
9.05907e-12
-2.21686e-09
5.58767e-16
2.40424e-12
-1.50246e-09
5.4857e-16
-5.33744e-10
5.45925e-16
1.19937e-10
-2.24445e-09
2.69819e-16
1.24125e-10
-2.38597e-09
2.68126e-16
1.27421e-10
-2.52696e-09
2.50242e-16
1.29671e-10
-2.66731e-09
2.61998e-16
1.30725e-10
-2.8043e-09
2.64753e-16
1.30445e-10
-2.93589e-09
3.08188e-16
1.28703e-10
-3.06183e-09
3.41651e-16
1.254e-10
-3.17696e-09
3.99138e-16
1.20462e-10
-3.28044e-09
4.07559e-16
1.13859e-10
-3.36794e-09
4.54539e-16
1.05608e-10
-3.43625e-09
4.74687e-16
9.57823e-11
-3.48188e-09
5.01074e-16
8.45365e-11
-3.49771e-09
5.04203e-16
7.21099e-11
-3.47703e-09
5.20851e-16
5.88495e-11
-3.40903e-09
5.3528e-16
4.52352e-11
-3.27642e-09
5.58157e-16
3.19019e-11
-3.05481e-09
5.74567e-16
1.96549e-11
-2.71187e-09
5.76681e-16
9.48264e-12
-2.20668e-09
5.69772e-16
2.52083e-12
-1.49549e-09
5.66135e-16
-5.31212e-10
5.58203e-16
1.26239e-10
-2.24956e-09
2.73123e-16
1.3057e-10
-2.3903e-09
2.58844e-16
1.33958e-10
-2.53034e-09
2.49059e-16
1.36242e-10
-2.66959e-09
2.46695e-16
1.37268e-10
-2.80532e-09
2.61096e-16
1.36894e-10
-2.93551e-09
2.92963e-16
1.34988e-10
-3.05992e-09
3.43997e-16
1.31451e-10
-3.17342e-09
3.85594e-16
1.26208e-10
-3.2752e-09
4.16427e-16
1.1923e-10
-3.36096e-09
4.56999e-16
1.10538e-10
-3.42755e-09
5.0122e-16
1.00212e-10
-3.47155e-09
5.24376e-16
8.84153e-11
-3.4859e-09
5.45749e-16
7.53984e-11
-3.46401e-09
5.55835e-16
6.15232e-11
-3.39515e-09
5.82865e-16
4.72891e-11
-3.26217e-09
5.9698e-16
3.33553e-11
-3.04086e-09
6.20352e-16
2.05585e-11
-2.69906e-09
6.11067e-16
9.92648e-12
-2.19603e-09
6.06721e-16
2.64342e-12
-1.4882e-09
5.96214e-16
-5.28557e-10
5.97392e-16
1.32846e-10
-2.25486e-09
2.73843e-16
1.37321e-10
-2.39478e-09
2.67598e-16
1.40798e-10
-2.53382e-09
2.4111e-16
1.43111e-10
-2.6719e-09
2.4887e-16
1.44102e-10
-2.80631e-09
2.48276e-16
1.43624e-10
-2.93503e-09
2.95118e-16
1.41542e-10
-3.05783e-09
3.34365e-16
1.37756e-10
-3.16963e-09
4.02769e-16
1.3219e-10
-3.26963e-09
4.11929e-16
1.24818e-10
-3.35358e-09
4.73794e-16
1.15665e-10
-3.41839e-09
5.07255e-16
1.04818e-10
-3.4607e-09
5.466e-16
9.2448e-11
-3.47353e-09
5.57551e-16
7.88177e-11
-3.45037e-09
5.81165e-16
6.43043e-11
-3.38063e-09
5.98286e-16
4.94268e-11
-3.24729e-09
6.22869e-16
3.48696e-11
-3.0263e-09
6.35788e-16
2.15013e-11
-2.68568e-09
6.31785e-16
1.03904e-11
-2.18491e-09
6.17664e-16
2.77188e-12
-1.48057e-09
6.16137e-16
-5.25773e-10
6.14525e-16
1.39769e-10
-2.26036e-09
2.94845e-16
1.44386e-10
-2.39939e-09
2.70712e-16
1.4795e-10
-2.53738e-09
2.52119e-16
1.50287e-10
-2.67424e-09
2.42085e-16
1.51234e-10
-2.80725e-09
2.54342e-16
1.50641e-10
-2.93443e-09
2.86713e-16
1.48369e-10
-3.05556e-09
3.45194e-16
1.44318e-10
-3.16557e-09
3.95154e-16
1.38411e-10
-3.26372e-09
4.29205e-16
1.30626e-10
-3.34579e-09
4.82643e-16
1.20992e-10
-3.40875e-09
5.42123e-16
1.09601e-10
-3.4493e-09
5.76595e-16
9.66349e-11
-3.46055e-09
6.07301e-16
8.23679e-11
-3.4361e-09
6.22559e-16
6.71926e-11
-3.36544e-09
6.52846e-16
5.16481e-11
-3.23173e-09
6.66206e-16
3.64444e-11
-3.01108e-09
6.85099e-16
2.2483e-11
-2.67171e-09
6.66503e-16
1.08742e-11
-2.17329e-09
6.54607e-16
2.90618e-12
-1.47258e-09
6.47562e-16
-5.22854e-10
6.5913e-16
1.47017e-10
-2.26605e-09
3.11447e-16
1.51776e-10
-2.40415e-09
2.93952e-16
1.55422e-10
-2.54102e-09
2.5428e-16
1.57777e-10
-2.67659e-09
2.55156e-16
1.58671e-10
-2.80815e-09
2.49236e-16
1.5795e-10
-2.93371e-09
2.98136e-16
1.55474e-10
-3.05308e-09
3.41986e-16
1.51141e-10
-3.16123e-09
4.20901e-16
1.44875e-10
-3.25745e-09
4.31436e-16
1.36657e-10
-3.33757e-09
5.08089e-16
1.26519e-10
-3.3986e-09
5.54558e-16
1.14562e-10
-3.43734e-09
6.06789e-16
1.00976e-10
-3.44696e-09
6.24988e-16
8.60488e-11
-3.42116e-09
6.54704e-16
7.01877e-11
-3.34957e-09
6.72671e-16
5.39524e-11
-3.21548e-09
6.9618e-16
3.80793e-11
-2.9952e-09
7.01189e-16
2.3503e-11
-2.65712e-09
6.86319e-16
1.13776e-11
-2.16115e-09
6.62832e-16
3.0462e-12
-1.46424e-09
6.68059e-16
-5.19794e-10
6.80212e-16
1.54601e-10
-2.27194e-09
3.48681e-16
1.59501e-10
-2.40905e-09
3.07835e-16
1.63225e-10
-2.54474e-09
2.76818e-16
1.65589e-10
-2.67895e-09
2.56213e-16
1.6642e-10
-2.80898e-09
2.64965e-16
1.65558e-10
-2.93284e-09
2.96185e-16
1.62862e-10
-3.05038e-09
3.61262e-16
1.58229e-10
-3.1566e-09
4.1868e-16
1.51585e-10
-3.2508e-09
4.57724e-16
1.42911e-10
-3.32889e-09
5.23452e-16
1.32248e-10
-3.38793e-09
5.97925e-16
1.19702e-10
-3.42478e-09
6.43144e-16
1.05472e-10
-3.43272e-09
6.8257e-16
8.98599e-11
-3.40554e-09
7.01615e-16
7.32889e-11
-3.33299e-09
7.33081e-16
5.63391e-11
-3.19852e-09
7.42222e-16
3.97734e-11
-2.97862e-09
7.51681e-16
2.4561e-11
-2.6419e-09
7.18402e-16
1.19003e-11
-2.14848e-09
6.97011e-16
3.19188e-12
-1.45552e-09
6.98841e-16
-5.16588e-10
7.29123e-16
1.62534e-10
-2.27803e-09
3.74978e-16
1.67571e-10
-2.41408e-09
3.41318e-16
1.71367e-10
-2.54853e-09
2.85808e-16
1.73732e-10
-2.68132e-09
2.78146e-16
1.74487e-10
-2.80973e-09
2.65643e-16
1.7347e-10
-2.93182e-09
3.15559e-16
1.70538e-10
-3.04745e-09
3.62851e-16
1.65586e-10
-3.15164e-09
4.51785e-16
1.58542e-10
-3.24375e-09
4.66173e-16
1.49391e-10
-3.31973e-09
5.57252e-16
1.38179e-10
-3.37671e-09
6.1591e-16
1.25019e-10
-3.41161e-09
6.80438e-16
1.10122e-10
-3.41781e-09
7.04804e-16
9.38006e-11
-3.3892e-09
7.39173e-16
7.64954e-11
-3.31567e-09
7.55452e-16
5.88073e-11
-3.18082e-09
7.74188e-16
4.15263e-11
-2.96132e-09
7.65774e-16
2.56564e-11
-2.62601e-09
7.34528e-16
1.2442e-11
-2.13525e-09
7.00012e-16
3.34309e-12
-1.44641e-09
7.18326e-16
-5.1323e-10
7.53103e-16
1.70825e-10
-2.28431e-09
4.18009e-16
1.75996e-10
-2.41925e-09
3.57931e-16
1.79858e-10
-2.55239e-09
3.14596e-16
1.82213e-10
-2.68367e-09
2.82658e-16
1.8288e-10
-2.81039e-09
2.87933e-16
1.81693e-10
-2.93063e-09
3.16962e-16
1.78505e-10
-3.04426e-09
3.88122e-16
1.73214e-10
-3.14634e-09
4.52191e-16
1.65749e-10
-3.23628e-09
5.00357e-16
1.56098e-10
-3.31007e-09
5.77642e-16
1.44313e-10
-3.36492e-09
6.66359e-16
1.30515e-10
-3.39781e-09
7.21186e-16
1.14925e-10
-3.40221e-09
7.68255e-16
9.78698e-11
-3.37214e-09
7.8919e-16
7.98059e-11
-3.2976e-09
8.19299e-16
6.13559e-11
-3.16236e-09
8.2014e-16
4.33368e-11
-2.94329e-09
8.14615e-16
2.67885e-11
-2.60945e-09
7.61117e-16
1.30025e-11
-2.12145e-09
7.29288e-16
3.49978e-12
-1.43689e-09
7.47021e-16
-5.09715e-10
8.05201e-16
1.79486e-10
-2.29078e-09
4.38849e-16
1.84787e-10
-2.42455e-09
3.91133e-16
1.88705e-10
-2.55631e-09
3.22333e-16
1.9104e-10
-2.686e-09
3.07703e-16
1.91605e-10
-2.81095e-09
2.89342e-16
1.9023e-10
-2.92925e-09
3.40364e-16
1.86768e-10