/*--------------------------------*- C++ -*----------------------------------*\
| =========                 |                                                 |
| \\      /  F ield         | OpenFOAM: The Open Source CFD Toolbox           |
|  \\    /   O peration     | Version:  v2012                                 |
|   \\  /    A nd           | Website:  www.openfoam.com                      |
|    \\/     M anipulation  |                                                 |
\*---------------------------------------------------------------------------*/
FoamFile
{
    version     2.0;
    format      ascii;
    class       surfaceScalarField;
    location    "0.15";
    object      phi;
}
// * * * * * * * * * * * * * * * * * * * * * * * * * * * * * * * * * * * * * //

dimensions      [0 3 -1 0 0 0 0];
oriented        oriented;


internalField   nonuniform List<scalar> 
6434
(
-3.42845e-10
-4.29327e-09
3.2791e-11
-1.23093e-09
-1.15734e-08
2.73642e-11
-2.24678e-09
-7.52121e-09
2.3192e-11
-2.77106e-09
5.56133e-09
9.60572e-12
1.5871e-08
-6.00537e-11
-2.53003e-10
-4.42878e-09
2.96106e-11
-4.6605e-10
-1.15734e-08
2.35455e-11
-1.34621e-09
-7.67542e-09
1.3763e-11
-2.12418e-09
3.448e-09
2.19985e-12
1.12999e-08
-4.24242e-11
-1.93697e-10
-4.55618e-09
8.54691e-13
1.72209e-09
-1.10289e-08
3.55714e-11
3.45895e-09
-8.79502e-09
1.97726e-11
5.28895e-10
1.67492e-09
9.21515e-12
1.07995e-08
-4.47544e-11
-5.6358e-11
-4.70358e-09
-1.50562e-11
2.49554e-09
-1.09719e-08
3.41221e-11
5.72137e-09
-1.07194e-08
1.57575e-11
2.94438e-09
1.73362e-10
6.61611e-12
1.28095e-08
-2.91444e-11
3.38964e-11
-4.88144e-09
3.28757e-11
-3.26967e-10
-1.18928e-08
1.27829e-11
1.75746e-10
-1.30822e-08
7.3504e-12
1.0592e-09
2.23699e-11
-1.00628e-11
1.94552e-08
-2.26634e-11
-1.31442e-10
-5.06487e-09
2.63683e-11
-9.07632e-10
-1.28253e-08
6.2172e-12
7.75321e-11
-1.53501e-08
-3.97824e-12
1.56379e-09
-4.95658e-10
-1.22445e-11
2.65605e-08
-2.27824e-12
-3.21356e-11
-5.22748e-09
1.59047e-11
1.12236e-09
-1.33953e-08
7.96318e-12
4.90821e-09
-1.65766e-08
1.77888e-11
5.1007e-09
-3.48409e-09
1.393e-11
2.8485e-08
-4.20176e-11
2.98473e-10
-5.3561e-09
-2.00141e-12
2.12075e-09
-1.41224e-08
-1.88781e-12
5.16243e-09
-1.7043e-08
1.22501e-11
5.58459e-09
-5.39844e-09
9.59733e-12
2.89326e-08
-1.72942e-11
1.30152e-10
-5.47927e-09
1.15442e-11
4.51368e-10
-1.49492e-08
1.40719e-11
-1.70432e-11
-1.79672e-08
4.23312e-12
7.83217e-10
-3.9952e-09
-6.34884e-12
3.21996e-08
-1.53871e-11
2.50626e-10
-5.60199e-09
6.24467e-13
7.51348e-10
-1.5527e-08
4.6702e-12
5.58723e-10
-1.88969e-08
-6.3059e-12
1.06556e-09
-2.74137e-09
-6.86181e-12
3.54028e-08
8.91808e-12
3.00617e-10
-5.73014e-09
-9.8184e-12
1.60604e-09
-1.61276e-08
1.43214e-11
3.96764e-09
-1.98142e-08
1.5699e-11
3.78329e-09
-5.17759e-09
1.6928e-11
3.45684e-08
-3.36598e-11
6.88979e-10
-5.87554e-09
-1.84616e-11
2.84446e-09
-1.72536e-08
2.10748e-12
5.39363e-09
-2.31387e-08
9.35939e-12
5.20185e-09
-1.51707e-08
1.54096e-11
2.03979e-08
-3.60348e-12
4.03904e-10
-6.0264e-09
-1.87354e-11
1.51232e-09
-1.84219e-08
-1.22812e-11
3.99318e-09
-2.73413e-08
1.15397e-11
3.4275e-09
-2.59832e-08
3.95672e-11
7.93958e-10
-1.86613e-11
-1.44522e-10
-6.16798e-09
-9.95149e-12
-4.91527e-10
-1.86272e-08
-9.66421e-13
9.52296e-10
-2.79535e-08
3.86192e-12
-1.09998e-09
-2.50081e-08
9.02599e-12
-2.13723e-09
2.98587e-13
-1.40664e-10
-6.35965e-09
-1.58114e-11
-1.06631e-09
-1.89965e-08
1.13707e-11
5.46386e-10
-2.72313e-08
6.60356e-12
-1.14577e-09
-1.93706e-08
-1.0286e-12
7.12314e-09
-1.52573e-12
7.43419e-10
-6.29359e-09
2.89704e-12
4.0375e-10
-1.84773e-08
8.81467e-12
3.63242e-09
-2.84146e-08
-5.92397e-12
2.84562e-09
-1.91618e-08
3.00358e-12
7.49691e-09
-3.27703e-12
1.88593e-10
-6.48039e-09
7.25366e-13
7.44563e-10
-1.90015e-08
2.94814e-12
1.47811e-08
-2.71276e-08
-1.67929e-11
6.27155e-09
-2.20136e-08
-3.67937e-12
2.23185e-09
7.63048e-12
7.38426e-11
-6.54442e-09
-2.2172e-12
7.25482e-10
-1.9649e-08
6.35377e-12
6.08049e-09
-3.03238e-08
2.31444e-11
7.67695e-09
-2.65479e-08
-6.17008e-12
-4.50217e-10
-3.91354e-12
1.51129e-10
-6.61276e-09
5.98188e-13
9.85341e-10
-2.00359e-08
1.15335e-12
4.11598e-09
-2.90224e-08
3.39679e-12
4.74675e-09
-2.7188e-08
1.48116e-11
4.36356e-09
-1.56446e-11
-6.76705e-10
-6.61525e-09
1.53013e-11
8.10787e-10
-1.95792e-08
-9.13206e-12
7.65159e-10
-2.89089e-08
-1.12823e-11
9.15749e-10
-2.7353e-08
1.30234e-11
5.24731e-09
-1.05604e-11
1.28557e-10
-6.73383e-09
1.14942e-12
4.03308e-10
-1.98448e-08
3.6983e-12
6.17054e-10
-2.91203e-08
-6.3195e-14
-2.73541e-10
-2.64631e-08
6.06621e-13
4.96038e-09
2.28605e-12
2.2442e-11
-6.75895e-09
-1.66171e-12
2.05322e-10
-2.00314e-08
3.73843e-12
9.5462e-10
-2.98822e-08
-6.93344e-14
7.16702e-10
-2.62509e-08
2.10246e-12
5.71318e-09
-2.44592e-12
-1.80325e-09
-6.86042e-09
1.20628e-11
-4.15548e-09
-1.98403e-08
-5.97926e-12
-5.12163e-09
-2.89198e-08
-1.13417e-12
-2.67595e-09
-2.87024e-08
-3.54512e-12
3.01208e-09
2.36989e-12
-8.75986e-11
-6.91672e-09
9.5444e-12
-3.91522e-09
-2.18693e-08
-6.31878e-12
-1.18825e-08
-3.32746e-08
5.23864e-12
-8.07346e-09
-3.33229e-08
1.74798e-12
-5.13866e-09
1.73766e-12
-1.30035e-11
-6.94159e-09
1.08111e-11
-1.57702e-10
-2.22298e-08
-8.42516e-12
-2.20825e-09
-3.65721e-08
2.05473e-12
-6.17831e-09
-4.41341e-08
-1.32295e-13
-2.19955e-08
7.17476e-13
9.58569e-12
-6.98395e-09
5.36648e-12
-7.22849e-12
-2.22783e-08
-2.60801e-12
-8.73334e-11
-3.67389e-08
7.31439e-13
7.80438e-12
-4.74818e-08
1.56962e-12
-3.16401e-08
1.73508e-12
1.14902e-10
-7.00957e-09
-1.5745e-12
2.24432e-10
-2.22373e-08
3.66116e-12
1.85201e-10
-3.68447e-08
9.11183e-13
2.08586e-10
-4.80159e-08
1.88219e-13
-3.24708e-08
1.13237e-13
2.0743e-10
-7.02493e-09
3.41712e-12
4.92352e-10
-2.21615e-08
-1.13389e-12
2.80346e-10
-3.70601e-08
-1.41009e-13
2.91762e-10
-4.83477e-08
8.14446e-13
-3.22418e-08
6.06392e-13
6.57019e-11
-7.07186e-09
2.85856e-13
5.07476e-11
-2.21134e-08
2.16334e-12
2.7665e-10
-3.72534e-08
2.8103e-13
5.10233e-10
-4.86606e-08
3.34005e-13
-3.18537e-08
5.01734e-14
6.42216e-11
-7.14967e-09
-4.2358e-13
-2.98725e-11
-2.20292e-08
2.57128e-12
2.33327e-10
-3.75096e-08
-4.33004e-13
5.95785e-10
-4.90223e-08
4.9161e-13
-3.13294e-08
5.84006e-13
7.2209e-11
-7.242e-09
1.28191e-12
-9.48772e-13
-2.19005e-08
1.12185e-12
3.36942e-10
-3.79373e-08
2.27931e-13
7.76115e-10
-4.93634e-08
1.59868e-13
-3.06802e-08
-2.79071e-14
6.82572e-11
-7.34944e-09
-4.9115e-13
2.14532e-10
-2.18746e-08
1.69159e-12
6.08531e-10
-3.84614e-08
1.01946e-12
9.62207e-10
-4.96346e-08
-1.10369e-13
-2.98129e-08
3.60101e-13
7.48656e-11
-7.43194e-09
8.53884e-13
2.50604e-10
-2.20637e-08
1.08279e-12
7.86576e-10
-3.90376e-08
7.02276e-13
1.08586e-09
-4.99414e-08
-9.86405e-14
-2.88797e-08
-4.56661e-15
2.13492e-11
1.68304e-12
3.23788e-10
2.92517e-13
9.42107e-10
4.40723e-13
1.17708e-09
9.84977e-14
-1.76085e-13
-1.66631e-09
-1.52836e-10
-4.17832e-14
-1.5269e-09
-1.39646e-10
-3.61963e-14
-1.39881e-09
-1.28237e-10
-2.10736e-14
-1.2806e-09
-1.18295e-10
-1.51335e-14
-1.1711e-09
-1.09572e-10
-1.24053e-14
-1.06933e-09
-1.01809e-10
-1.14393e-14
-9.74563e-10
-9.48247e-11
-1.0119e-14
-8.86133e-10
-8.84605e-11
-9.73765e-15
-8.03606e-10
-8.25832e-11
-7.78615e-15
-7.26505e-10
-7.7133e-11
-8.48088e-15
-6.54562e-10
-7.1989e-11
-7.49021e-15
-5.87447e-10
-6.71418e-11
-8.06652e-15
-5.2495e-10
-6.25321e-11
-6.29615e-15
-4.66861e-10
-5.81165e-11
-6.47164e-15
-4.12895e-10
-5.39837e-11
-5.75073e-15
-3.62898e-10
-5.00079e-11
-8.25749e-15
-3.16616e-10
-4.6319e-11
-4.24552e-15
-2.73823e-10
-4.28151e-11
-9.4237e-15
-2.34285e-10
-3.95577e-11
-7.55524e-15
-1.97746e-10
-3.65495e-11
-7.31585e-15
-1.64015e-10
-3.37415e-11
-4.5443e-15
-1.32869e-10
-3.1154e-11
-6.21425e-15
-1.04292e-10
-2.85834e-11
-3.95044e-15
-7.81574e-11
-2.61394e-11
-3.50552e-15
-5.46608e-11
-2.3499e-11
-1.82857e-15
-3.41821e-11
-2.0477e-11
-9.16362e-16
-1.75706e-11
-1.66044e-11
1.03603e-16
-5.83076e-12
-1.17338e-11
3.0885e-15
-5.84067e-12
1.1124e-14
-3.93956e-09
-4.7985e-10
-3.63322e-14
-3.63518e-09
-4.44275e-10
-2.86752e-14
-3.35062e-09
-4.12969e-10
-1.27561e-14
-3.08382e-09
-3.85198e-10
-7.19816e-15
-2.83312e-09
-3.60363e-10
-4.96288e-15
-2.5971e-09
-3.37874e-10
-4.56994e-15
-2.37472e-09
-3.1728e-10
-3.53246e-15
-2.16503e-09
-2.98186e-10
-3.57478e-15
-1.96747e-09
-2.80222e-10
-1.47368e-15
-1.78134e-09
-2.63296e-10
-2.65261e-15
-1.60634e-09
-2.47048e-10
-1.67964e-15
-1.44201e-09
-2.31508e-10
-2.66603e-15
-1.2881e-09
-2.16492e-10
-9.23876e-16
-1.14428e-09
-2.01977e-10
-8.54522e-16
-1.01013e-09
-1.88148e-10
3.59752e-16
-8.85387e-10
-1.74777e-10
-2.59702e-15
-7.69643e-10
-1.62111e-10
1.63818e-15
-6.6243e-10
-1.5006e-10
-6.69223e-15
-5.63322e-10
-1.38695e-10
-3.96011e-15
-4.71787e-10
-1.28102e-10
-3.22171e-15
-3.87476e-10
-1.18072e-10
6.16269e-16
-3.10032e-10
-1.08614e-10
-3.7508e-15
-2.39252e-10
-9.93752e-11
-1.25671e-15
-1.75262e-10
-9.01395e-11
-7.59298e-16
-1.18594e-10
-8.01745e-11
1.08436e-15
-7.04938e-11
-6.85795e-11
2.25616e-15
-3.31559e-11
-5.39387e-11
2.02647e-15
-9.3135e-12
-3.55732e-11
5.02242e-15
-1.5166e-11
1.22744e-14
-5.62137e-09
-8.99007e-10
-3.71687e-14
-5.22393e-09
-8.41953e-10
-2.98496e-14
-4.84612e-09
-7.90934e-10
-1.42186e-14
-4.4865e-09
-7.44929e-10
-7.98268e-15
-4.14387e-09
-7.03075e-10
-5.50153e-15
-3.81725e-09
-6.64527e-10
-4.56854e-15
-3.50599e-09
-6.28614e-10
-3.41203e-15
-3.20946e-09
-5.94742e-10
-3.05308e-15
-2.92745e-09
-5.62316e-10
-5.06381e-16
-2.65949e-09
-5.31284e-10
-1.56936e-15
-2.40558e-09
-5.01025e-10
-3.65186e-16
-2.16544e-09
-4.71675e-10
-1.32308e-15
-1.93905e-09
-4.42937e-10
3.83033e-16
-1.72623e-09
-4.14842e-10
9.96249e-16
-1.52665e-09
-3.87743e-10
2.69629e-15
-1.34013e-09
-3.61323e-10
-5.32412e-16
-1.16627e-09
-3.36019e-10
3.27953e-15
-1.00459e-09
-3.11768e-10
-6.37309e-15
-8.5461e-10
-2.88713e-10
-2.38929e-15
-7.15744e-10
-2.66988e-10
-9.89449e-16
-5.8755e-10
-2.46291e-10
3.43012e-15
-4.69642e-10
-2.26541e-10
-2.035e-15
-3.61841e-10
-2.07193e-10
8.53175e-16
-2.64492e-10
-1.87503e-10
1.55846e-15
-1.7852e-10
-1.66158e-10
3.71998e-15
-1.05911e-10
-1.41195e-10
5.12635e-15
-4.9787e-11
-1.10063e-10
4.07688e-15
-1.39853e-11
-7.13754e-11
6.81895e-15
-2.91662e-11
1.37839e-14
-6.79861e-09
-1.35293e-09
-3.39432e-14
-6.36044e-09
-1.28034e-09
-2.8652e-14
-5.93709e-09
-1.21443e-09
-1.38158e-14
-5.52806e-09
-1.15405e-09
-7.87013e-15
-5.13302e-09
-1.09819e-09
-5.48602e-15
-4.75174e-09
-1.04584e-09
-4.34085e-15
-4.38423e-09
-9.96189e-10
-3.33963e-15
-4.03048e-09
-9.48512e-10
-2.77347e-15
-3.69084e-09
-9.02036e-10
2.70026e-16
-3.36532e-09
-8.56829e-10
-1.31741e-15
-3.05439e-09
-8.1202e-10
-3.16466e-16
-2.75816e-09
-7.67931e-10
-1.20715e-15
-2.47696e-09
-7.24175e-10
9.41251e-16
-2.21097e-09
-6.80877e-10
1.24639e-15
-1.96008e-09
-6.38646e-10
3.20869e-15
-1.72435e-09
-5.97082e-10
1.32719e-16
-1.50352e-09
-5.56891e-10
2.81425e-15
-1.29725e-09
-5.18065e-10
-7.67455e-15
-1.10513e-09
-4.80866e-10
-3.24397e-15
-9.26624e-10
-4.45513e-10
-1.21817e-15
-7.61339e-10
-4.116e-10
3.42743e-15
-6.08962e-10
-3.78937e-10
-2.52759e-15
-4.6948e-10
-3.4669e-10
7.64034e-16
-3.43393e-10
-3.13605e-10
1.89824e-15
-2.32076e-10
-2.77487e-10
4.54437e-15
-1.38136e-10
-2.35142e-10
5.99761e-15
-6.55142e-11
-1.82686e-10
4.76417e-15
-1.87907e-11
-1.181e-10
7.42999e-15
-4.79727e-11
1.42035e-14
-7.59071e-09
-1.80608e-09
-2.96223e-14
-7.14573e-09
-1.72552e-09
-2.57476e-14
-6.70898e-09
-1.65132e-09
-1.2134e-14
-6.28087e-09
-1.58226e-09
-6.47205e-15
-5.86186e-09
-1.51727e-09
-4.44111e-15
-5.45248e-09
-1.45523e-09
-3.23936e-15
-5.05346e-09
-1.39527e-09
-2.52229e-15
-4.66543e-09
-1.33656e-09
-1.9793e-15
-4.28935e-09
-1.2782e-09
1.47809e-15
-3.92576e-09
-1.22044e-09
-6.31705e-16
-3.57566e-09
-1.16218e-09
2.61774e-16
-3.23962e-09
-1.10399e-09
-6.64665e-16
-2.91843e-09
-1.04541e-09
1.49124e-15
-2.61264e-09
-9.86712e-10
1.81567e-15
-2.32246e-09
-9.28828e-10
3.85025e-15
-2.04829e-09
-8.71276e-10
9.66551e-17
-1.79011e-09
-8.15112e-10
2.63095e-15
-1.54779e-09
-7.60406e-10
-8.75192e-15
-1.32111e-09
-7.07584e-10
-3.8562e-15
-1.10965e-09
-6.56984e-10
-1.33587e-15
-9.13186e-10
-6.08089e-10
3.34126e-15
-7.31538e-10
-5.60603e-10
-2.75458e-15
-5.64868e-10
-5.13375e-10
7.10689e-16
-4.13997e-10
-4.6449e-10
2.13103e-15
-2.80617e-10
-4.10879e-10
5.11379e-15
-1.67909e-10
-3.47857e-10
6.49322e-15
-8.04425e-11
-2.70154e-10
5.20162e-15
-2.35055e-11
-1.75039e-10
7.82605e-15
-7.14945e-11
1.45e-14
-8.10221e-09
-2.23837e-09
-2.57244e-14
-7.67061e-09
-2.15729e-09
-2.26039e-14
-7.24051e-09
-2.08154e-09
-1.01432e-14
-6.81299e-09
-2.00987e-09
-4.8313e-15
-6.38917e-09
-1.94116e-09
-3.22061e-15
-5.97018e-09
-1.87422e-09
-2.00814e-15
-5.55736e-09
-1.80814e-09
-1.50253e-15
-5.15188e-09
-1.74204e-09
-9.32185e-16
-4.75527e-09
-1.67489e-09
2.90288e-15
-4.36854e-09
-1.60718e-09
5.76538e-16
-3.99321e-09
-1.53757e-09
1.20388e-15
-3.63029e-09
-1.46693e-09
2.14885e-16
-3.28098e-09
-1.39476e-09
2.34726e-15
-2.94628e-09
-1.32146e-09
2.68829e-15
-2.62672e-09
-1.24838e-09
4.56725e-15
-2.32306e-09
-1.17496e-09
6.95964e-16
-2.03557e-09
-1.10264e-09
2.5159e-15
-1.76439e-09
-1.03161e-09
-9.41502e-15
-1.50952e-09
-9.62484e-10
-4.70398e-15
-1.27076e-09
-8.95756e-10
-1.85361e-15
-1.04807e-09
-8.30795e-10
2.67048e-15
-8.41489e-10
-7.67201e-10
-3.52762e-15
-6.51393e-10
-7.03483e-10
5.78246e-17
-4.78893e-10
-6.37002e-10
1.73767e-15
-3.26307e-10
-5.63476e-10
5.03905e-15
-1.96446e-10
-4.77724e-10
6.38682e-15
-9.52286e-11
-3.71372e-10
5.10768e-15
-2.83454e-11
-2.41923e-10
7.7088e-15
-9.98552e-11
1.40566e-14
-8.40687e-09
-2.63951e-09
-2.03459e-14
-7.99984e-09
-2.56449e-09
-1.91478e-14
-7.5882e-09
-2.4933e-09
-8.20385e-15
-7.1735e-09
-2.42465e-09
-3.3226e-15
-6.7573e-09
-2.35742e-09
-1.99053e-15
-6.34119e-09
-2.29033e-09
-7.18578e-16
-5.92695e-09
-2.22243e-09
-3.98074e-16
-5.51619e-09
-2.1528e-09
1.91539e-16
-5.11086e-09
-2.08031e-09
4.26636e-15
-4.71237e-09
-2.00567e-09
1.76916e-15
-4.32268e-09
-1.92734e-09
2.25266e-15
-3.94315e-09
-1.84647e-09
1.19711e-15
-3.5754e-09
-1.76254e-09
3.28381e-15
-3.22077e-09
-1.67614e-09
3.60499e-15
-2.88014e-09
-1.58901e-09
5.19992e-15
-2.55461e-09
-1.50051e-09
7.07419e-16
-2.24473e-09
-1.41256e-09
2.78112e-15
-1.95095e-09
-1.32542e-09
-9.44699e-15
-1.67351e-09
-1.23995e-09
-4.47136e-15
-1.41244e-09
-1.15683e-09
-1.48851e-15
-1.16796e-09
-1.0753e-09
2.90332e-15
-9.4032e-10
-9.94861e-10
-3.21635e-15
-7.30142e-10
-9.13672e-10
3.60039e-16
-5.38814e-10
-8.28343e-10
2.12737e-15
-3.68731e-10
-7.3357e-10
5.38292e-15
-2.23893e-10
-6.22568e-10
6.7446e-15
-1.09869e-10
-4.85397e-10
5.48998e-15
-3.32736e-11
-3.1852e-10
7.95791e-15
-1.33144e-10
1.41753e-14
-8.55627e-09
-3.00499e-09
-1.66227e-14
-8.17935e-09
-2.94155e-09
-1.62874e-14
-7.79262e-09
-2.88013e-09
-6.57345e-15
-7.39792e-09
-2.81943e-09
-1.91745e-15
-6.99708e-09
-2.75829e-09
-7.91917e-16
-6.59203e-09
-2.69537e-09
5.49896e-16
-6.18484e-09
-2.62967e-09
6.93051e-16
-5.77742e-09
-2.56022e-09
1.28314e-15
-5.37204e-09
-2.48578e-09
5.47336e-15
-4.97041e-09
-2.4073e-09
2.78944e-15
-4.57479e-09
-2.32302e-09
3.27025e-15
-4.18685e-09
-2.23441e-09
2.14671e-15
-3.80853e-09
-2.1409e-09
4.16682e-15
-3.44146e-09
-2.04325e-09
4.39244e-15
-3.08682e-09
-1.94364e-09
6.25472e-15
-2.746e-09
-1.84136e-09
1.46435e-15
-2.41982e-09
-1.73876e-09
2.86435e-15
-2.10901e-09
-1.63624e-09
-9.42619e-15
-1.81409e-09
-1.53491e-09
-4.79054e-15
-1.53531e-09
-1.43561e-09
-1.75465e-15
-1.27313e-09
-1.33749e-09
2.39876e-15
-1.02805e-09
-1.23996e-09
-3.69455e-15
-8.00946e-10
-1.14079e-09
-7.06686e-17
-5.93468e-10
-1.03583e-09
1.84473e-15
-4.08328e-10
-9.18719e-10
5.13354e-15
-2.49871e-10
-7.8103e-10
6.57787e-15
-1.23994e-10
-6.11275e-10
5.42738e-15
-3.81094e-11
-4.04404e-10
7.81571e-15
-1.71268e-10
1.36713e-14
-8.5885e-09
-3.33381e-09
-1.15328e-14
-8.24377e-09
-3.2864e-09
-1.31509e-14
-7.88494e-09
-3.23905e-09
-4.8387e-15
-7.51403e-09
-3.19042e-09
-5.74548e-16
-7.13306e-09
-3.13929e-09
2.98791e-16
-6.74415e-09
-3.08426e-09
1.70751e-15
-6.34958e-09
-3.02429e-09
1.68568e-15
-5.95144e-09
-2.95834e-09
2.27207e-15
-5.55222e-09
-2.88508e-09
6.46778e-15
-5.15382e-09
-2.80568e-09
3.58735e-15
-4.75873e-09
-2.71817e-09
4.17971e-15
-4.36884e-09
-2.62431e-09
2.99223e-15
-3.98628e-09
-2.52349e-09
4.93353e-15
-3.61295e-09
-2.41662e-09
5.0178e-15
-3.25023e-09
-2.30635e-09
7.14557e-15
-2.89977e-09
-2.19184e-09
1.26823e-15
-2.56263e-09
-2.07593e-09
3.28142e-15
-2.23977e-09
-1.95912e-09
-9.08234e-15
-1.93195e-09
-1.84276e-09
-4.24886e-15
-1.63966e-09
-1.72791e-09
-1.14265e-15
-1.36359e-09
-1.61357e-09
2.87486e-15
-1.10448e-09
-1.49908e-09
-3.06103e-15
-8.63445e-10
-1.38184e-09
5.01815e-16
-6.42387e-10
-1.2569e-09
2.3943e-15
-4.44297e-10
-1.11682e-09
5.57144e-15
-2.73774e-10
-9.51558e-10
7.01745e-15
-1.37211e-10
-7.4784e-10
5.87383e-15
-4.26656e-11
-4.9895e-10
8.11274e-15
-2.13948e-10
1.38731e-14
-8.53252e-09
-3.62676e-09
-8.27918e-15
-8.22002e-09
-3.59901e-09
-1.05028e-14
-7.88992e-09
-3.56922e-09
-3.32587e-15
-7.5444e-09
-3.53601e-09
6.30275e-16
-7.18558e-09
-3.49813e-09
1.2968e-15
-6.81572e-09
-3.4541e-09
2.7706e-15
-6.4372e-09
-3.40284e-09
2.57953e-15
-6.05226e-09
-3.34327e-09
3.14341e-15
-5.66349e-09
-3.27393e-09
7.21806e-15
-5.27294e-09
-3.19623e-09
4.27714e-15
-4.88319e-09
-3.10797e-09
4.93717e-15
-4.49629e-09
-3.01121e-09
3.70045e-15
-4.11453e-09
-2.90528e-09
5.62955e-15
-3.73994e-09
-2.79126e-09
6.1182e-15
-3.37407e-09
-2.67221e-09
7.38179e-15
-3.01876e-09
-2.54718e-09
2.02935e-15
-2.67524e-09
-2.41947e-09
3.18018e-15
-2.34469e-09
-2.28968e-09
-8.92405e-15
-2.02806e-09
-2.15942e-09
-4.44838e-15
-1.72607e-09
-2.02991e-09
-1.44446e-15
-1.43961e-09
-1.90005e-09
2.31972e-15
-1.16963e-09
-1.76907e-09
-3.55323e-15
-9.17479e-10
-1.634e-09
4.09737e-17
-6.85286e-10
-1.4891e-09
2.02987e-15
-4.7629e-10
-1.32582e-09
5.2203e-15
-2.95346e-10
-1.13251e-09
6.75298e-15
-1.49241e-10
-8.93945e-10
5.71318e-15
-4.68128e-11
-6.01378e-10
7.90688e-15
-2.60775e-10
1.32998e-14
-8.41053e-09
-3.88574e-09
-2.41244e-15
-8.12909e-09
-3.88053e-09
-6.89047e-15
-7.82728e-09
-3.87109e-09
-1.52352e-15
-7.50734e-09
-3.85601e-09
1.79645e-15
-7.1715e-09
-3.83399e-09
2.15717e-15
-6.82208e-09
-3.80349e-09
3.65188e-15
-6.46156e-09
-3.76339e-09
3.29444e-15
-6.09224e-09
-3.71257e-09
3.84085e-15
-5.71676e-09
-3.64948e-09
7.6714e-15
-5.33725e-09
-3.57573e-09
4.92187e-15
-4.95635e-09
-3.48892e-09
5.57078e-15
-4.57618e-09
-3.39138e-09
4.29274e-15
-4.19909e-09
-3.2824e-09
6.41368e-15
-3.82722e-09
-3.16318e-09
6.6702e-15
-3.46222e-09
-3.0372e-09
7.52956e-15
-3.10604e-09
-2.90338e-09
1.65558e-15
-2.76005e-09
-2.76548e-09
3.46039e-15
-2.42558e-09
-2.62417e-09
-8.49666e-15
-2.10375e-09
-2.48127e-09
-3.82439e-15
-1.79543e-09
-2.33823e-09
-7.63942e-16
-1.50174e-09
-2.19376e-09
2.88639e-15
-1.22379e-09
-2.04703e-09
-2.81779e-15
-9.63129e-10
-1.89467e-09
6.91716e-16
-7.22093e-10
-1.73015e-09
2.60698e-15
-5.04138e-10
-1.54379e-09
5.6706e-15
-3.14355e-10
-1.3223e-09
7.13459e-15
-1.59924e-10
-1.04838e-09
6.10153e-15
-5.04772e-11
-7.10825e-10
8.16958e-15
-3.11266e-10
1.35331e-14
-8.23941e-09
-4.11308e-09
9.21352e-16
-7.98726e-09
-4.13272e-09
-4.01421e-15
-7.71253e-09
-4.14586e-09
-1.28673e-16
-7.41754e-09
-4.15104e-09
2.67994e-15
-7.10457e-09
-4.14696e-09
2.81453e-15
-6.77602e-09
-4.13201e-09
4.35315e-15
-6.43439e-09
-4.10504e-09
3.81934e-15
-6.08203e-09
-4.0649e-09
4.41721e-15
-5.72162e-09
-4.00997e-09
7.76732e-15
-5.35528e-09
-3.94204e-09
5.5248e-15
-4.9857e-09
-3.85855e-09
6.57759e-15
-4.61499e-09
-3.76208e-09
5.2646e-15
-4.24554e-09
-3.65187e-09
6.84133e-15
-3.87951e-09
-3.52925e-09
7.30197e-15
-3.51859e-09
-3.3981e-09
7.57729e-15
-3.16481e-09
-3.25719e-09
2.44024e-15
-2.81961e-09
-3.1107e-09
3.79055e-15
-2.48443e-09
-2.95936e-09
-8.29429e-15
-2.16051e-09
-2.80522e-09
-4.04336e-15
-1.84887e-09
-2.64987e-09
-1.18876e-15
-1.55075e-09
-2.49189e-09
2.20273e-15
-1.26745e-09
-2.33034e-09
-3.43461e-15
-1.00066e-09
-2.16146e-09
1.0624e-16
-7.52908e-10
-1.97792e-09
2.10185e-15
-5.27823e-10
-1.76888e-09
5.18568e-15
-3.30725e-10
-1.5194e-09
6.69678e-15
-1.69341e-10
-1.20976e-09
5.77929e-15
-5.36268e-11
-8.26539e-10
7.84415e-15
-3.64905e-10
1.28343e-14
-8.03204e-09
-4.31143e-09
7.70562e-15
-7.80711e-09
-4.35768e-09
-1.21405e-16
-7.55787e-09
-4.39511e-09
1.71688e-15
-7.2867e-09
-4.42225e-09
4.20567e-15
-6.99594e-09
-4.43772e-09
3.6027e-15
-6.68801e-09
-4.43989e-09
5.71996e-15
-6.36548e-09
-4.42759e-09
4.61168e-15
-6.0307e-09
-4.39966e-09
5.49918e-15
-5.68635e-09
-4.35439e-09
8.71041e-15
-5.33455e-09
-4.29382e-09
6.45013e-15
-4.97796e-09
-4.21519e-09
6.94818e-15
-4.61867e-09
-4.12136e-09
5.60738e-15
-4.25905e-09
-4.01151e-09
7.11939e-15
-3.90125e-09
-3.8871e-09
8.15357e-15
-3.54696e-09
-3.75237e-09
7.84068e-15
-3.19822e-09
-3.60595e-09
1.89518e-15
-2.85651e-09
-3.45242e-09
4.17937e-15
-2.52332e-09
-3.29255e-09
-7.83034e-15
-2.19998e-09
-3.12858e-09
-3.37683e-15
-1.88761e-09
-2.96225e-09
-4.74702e-16
-1.58755e-09
-2.79197e-09
2.83354e-15
-1.30123e-09
-2.61668e-09
-2.63163e-15
-1.03048e-09
-2.43221e-09
7.98412e-16
-7.77951e-10
-2.23046e-09
2.68457e-15
-5.4744e-10
-1.9994e-09
5.62098e-15
-3.44463e-10
-1.72238e-09
7.02301e-15
-1.76964e-10
-1.37726e-09
6.10055e-15
-5.62531e-11
-9.4725e-10
8.03159e-15
-4.21171e-10
1.30709e-14
-7.79822e-09
-4.48333e-09
9.18961e-15
-7.59832e-09
-4.55756e-09
1.89503e-15
-7.37281e-09
-4.62063e-09
2.60898e-15
-7.12408e-09
-4.671e-09
4.91704e-15
-6.85453e-09
-4.70726e-09
3.99693e-15
-6.56663e-09
-4.72774e-09
6.24326e-15
-6.26295e-09
-4.73128e-09
4.90084e-15
-5.94586e-09
-4.71671e-09
5.86397e-15
-5.61802e-09
-4.68229e-09
8.97835e-15
-5.28154e-09
-4.63027e-09
6.74359e-15
-4.93902e-09
-4.55775e-09
7.21091e-15
-4.59251e-09
-4.46785e-09
5.88309e-15
-4.24433e-09
-4.35971e-09
7.32809e-15
-3.89656e-09
-4.2349e-09
8.25889e-15
-3.55088e-09
-4.09803e-09
7.97682e-15
-3.20928e-09
-3.94756e-09
2.73485e-15
-2.87326e-09
-3.78845e-09
4.01785e-15
-2.54432e-09
-3.6215e-09
-7.65311e-15
-2.22382e-09
-3.4491e-09
-3.67623e-15
-1.91294e-09
-3.27313e-09
-1.0252e-15
-1.61312e-09
-3.09181e-09
2.04755e-15
-1.32585e-09
-2.90395e-09
-3.35285e-15
-1.05307e-09
-2.705e-09
8.86094e-17
-7.97528e-10
-2.486e-09
2.04589e-15
-5.6316e-10
-2.23377e-09
5.00389e-15
-3.55665e-10
-1.92988e-09
6.44473e-15
-1.83361e-10
-1.54957e-09
5.63973e-15
-5.83785e-11
-1.07223e-09
7.57634e-15
-4.79561e-10
1.22438e-14
-7.54546e-09
-4.63137e-09
1.36251e-14
-7.36842e-09
-4.73458e-09
4.56872e-15
-7.16479e-09
-4.82426e-09
3.70453e-15
-6.93702e-09
-4.89879e-09
5.40887e-15
-6.68752e-09
-4.95674e-09
4.31093e-15
-6.4188e-09
-4.99641e-09
6.5772e-15
-6.13345e-09
-5.01664e-09
5.13691e-15
-5.83385e-09
-5.01629e-09
6.10772e-15
-5.52261e-09
-4.99359e-09
9.15171e-15
-5.20182e-09
-4.95103e-09
6.95962e-15
-4.87402e-09
-4.88559e-09
7.41379e-15
-4.54119e-09
-4.80066e-09
6.10311e-15
-4.20557e-09
-4.69535e-09
7.46595e-15
-3.86918e-09
-4.57133e-09
8.25967e-15
-3.53362e-09
-4.43357e-09
8.30716e-15
-3.20083e-09
-4.28036e-09
2.01811e-15
-2.87227e-09
-4.11702e-09
4.35736e-15
-2.54942e-09
-3.94435e-09
-7.19592e-15
-2.23366e-09
-3.76488e-09
-2.98713e-15
-1.92617e-09
-3.58061e-09
-2.68749e-16
-1.62845e-09
-3.38954e-09
2.77464e-15
-1.34205e-09
-3.19037e-09
-2.46424e-15
-1.06895e-09
-2.97809e-09
8.27081e-16
-8.12e-10
-2.74296e-09
2.64709e-15
-5.75212e-10
-2.47057e-09
5.4385e-15
-3.64464e-10
-2.14063e-09
6.74502e-15
-1.88431e-10
-1.7256e-09
5.90629e-15
-6.00322e-11
-1.20063e-09
7.72514e-15
-5.39605e-10
1.24747e-14
-7.27957e-09
-4.75801e-09
1.37424e-14
-7.12325e-09
-4.89086e-09
5.66154e-15
-6.93968e-09
-5.00781e-09
4.08124e-15
-6.73134e-09
-5.10714e-09
5.62144e-15
-6.50067e-09
-5.18739e-09
4.53072e-15
-6.25019e-09
-5.24683e-09
6.8508e-15
-5.9825e-09
-5.28433e-09
5.34846e-15
-5.69996e-09
-5.29879e-09
6.3184e-15
-5.40517e-09
-5.28843e-09
9.27082e-15
-5.10016e-09
-5.25601e-09
7.12873e-15
-4.78741e-09
-5.19838e-09
7.54889e-15
-4.46882e-09
-5.11923e-09
6.25863e-15
-4.14654e-09
-5.01765e-09
7.5309e-15
-3.82248e-09
-4.89542e-09
8.07893e-15
-3.49817e-09
-4.75785e-09
8.8882e-15
-3.17548e-09
-4.60307e-09
2.8924e-15
-2.85578e-09
-4.43673e-09
4.26674e-15
-2.54052e-09
-4.2596e-09
-7.0327e-15
-2.23106e-09
-4.07436e-09
-3.3667e-15
-1.92858e-09
-3.88309e-09
-9.31454e-16
-1.63456e-09
-3.68357e-09
1.89619e-15
-1.3506e-09
-3.47434e-09
-3.27244e-15
-1.07871e-09
-3.24998e-09
8.81398e-18
-8.21765e-10
-2.99991e-09
1.89516e-15
-5.83862e-10
-2.70847e-09
4.7151e-15
-3.71024e-10
-2.35347e-09
6.06068e-15
-1.92268e-10
-1.90435e-09
5.33811e-15
-6.12531e-11
-1.33164e-09
7.18272e-15
-6.00869e-10
1.15339e-14
-7.00503e-09
-4.86566e-09
1.80144e-14
-6.86738e-09
-5.02849e-09
7.6118e-15
-6.70212e-09
-5.17306e-09
4.71643e-15
-6.51172e-09
-5.29756e-09
5.8268e-15
-6.29863e-09
-5.40046e-09
4.65337e-15
-6.0654e-09
-5.48001e-09
6.99756e-15
-5.8146e-09
-5.53512e-09
5.4561e-15
-5.54861e-09
-5.56474e-09
6.44447e-15
-5.26996e-09
-5.56713e-09
9.3042e-15
-4.98064e-09
-5.54529e-09
7.23248e-15
-4.68305e-09
-5.49601e-09
7.61262e-15
-4.379e-09
-5.42326e-09
6.35012e-15
-4.07054e-09
-5.32612e-09
7.53327e-15
-3.75948e-09
-5.20651e-09
7.97174e-15
-3.44726e-09
-5.07005e-09
8.85468e-15
-3.13563e-09
-4.91472e-09
2.07075e-15
-2.82589e-09
-4.74647e-09
4.61534e-15
-2.51943e-09
-4.56606e-09
-6.54557e-15
-2.21754e-09
-4.37626e-09
-2.64983e-15
-1.92139e-09
-4.17924e-09
-1.29292e-16
-1.63244e-09
-3.97253e-09
2.68961e-15
-1.35228e-09
-3.75452e-09
-2.2964e-15
-1.08292e-09
-3.51934e-09
8.03445e-16
-8.27244e-10
-3.25559e-09
2.52745e-15
-5.89403e-10
-2.94632e-09
5.16755e-15
-3.75537e-10
-2.56734e-09
6.36314e-15
-1.94982e-10
-2.08491e-09
5.59303e-15
-6.20863e-11
-1.46454e-09
7.31331e-15
-6.62966e-10
1.17632e-14
-6.72536e-09
-4.95646e-09
1.60162e-14
-6.60445e-09
-5.14937e-09
7.45789e-15
-6.45581e-09
-5.32169e-09
4.52675e-15
-6.28191e-09
-5.47147e-09
5.71907e-15
-6.0852e-09
-5.59714e-09
4.66302e-15
-5.86823e-09
-5.69693e-09
7.07504e-15
-5.63355e-09
-5.76979e-09
5.51403e-15
-5.38351e-09
-5.81474e-09
6.51428e-15
-5.12059e-09
-5.83009e-09
9.26548e-15
-4.84675e-09
-5.8191e-09
7.27131e-15
-4.56426e-09
-5.77852e-09
7.6076e-15
-4.27488e-09
-5.71261e-09
6.38028e-15
-3.98053e-09
-5.62048e-09
7.4787e-15
-3.68291e-09
-5.50416e-09
7.8823e-15
-3.38335e-09
-5.36959e-09
8.53253e-15
-3.08349e-09
-5.21459e-09
2.99733e-15
-2.78455e-09
-5.04541e-09
4.4568e-15
-2.48782e-09
-4.86278e-09
-6.38526e-15
-2.19454e-09
-4.66956e-09
-3.09414e-15
-1.90581e-09
-4.46796e-09
-8.93981e-16
-1.62306e-09
-4.25528e-09
1.70827e-15
-1.34784e-09
-4.02974e-09
-3.18059e-15
-1.08216e-09
-3.78503e-09
-1.02437e-16
-8.28873e-10
-3.50888e-09
1.68134e-15
-5.92142e-10
-3.18306e-09
4.35957e-15
-3.78209e-10
-2.78127e-09
5.60125e-15
-1.96693e-10
-2.26642e-09
4.95238e-15
-6.2581e-11
-1.59865e-09
6.7071e-15
-7.25555e-10
1.07282e-14
-6.44335e-09
-5.0325e-09
1.82519e-14
-6.33735e-09
-5.25532e-09
8.6012e-15
-6.20375e-09
-5.45527e-09
4.84963e-15
-6.04499e-09
-5.63023e-09
5.7221e-15
-5.86351e-09
-5.77859e-09
4.62859e-15
-5.66184e-09
-5.89855e-09
7.04786e-15
-5.4425e-09
-5.98912e-09
5.4788e-15
-5.20781e-09
-6.0494e-09
6.50222e-15
-4.96018e-09
-6.07776e-09
9.14804e-15
-4.70151e-09
-6.07773e-09
7.24683e-15
-4.43398e-09
-6.04607e-09
7.54183e-15
-4.15924e-09
-5.98732e-09
6.35686e-15
-3.87911e-09
-5.90061e-09
7.37308e-15
-3.59518e-09
-5.78812e-09
7.78596e-15
-3.30866e-09
-5.65608e-09
8.40967e-15
-3.02108e-09
-5.50218e-09
2.00829e-15
-2.73355e-09
-5.33294e-09
4.7794e-15
-2.44727e-09
-5.14905e-09
-5.88516e-15
-2.1634e-09
-4.95345e-09
-2.33771e-15
-1.88297e-09
-4.74838e-09
-4.01638e-17
-1.60736e-09
-4.53091e-09
2.56185e-15
-1.33805e-09
-4.29905e-09
-2.12023e-15
-1.07702e-09
-4.04606e-09
7.60584e-16
-8.27091e-10
-3.75882e-09
2.35612e-15
-5.92398e-10
-3.41775e-09
4.84109e-15
-3.79257e-10
-2.99442e-09
5.9234e-15
-1.97533e-10
-2.44815e-09
5.21371e-15
-6.27886e-11
-1.73339e-09
6.83911e-15
-7.88354e-10
1.0962e-14
-6.1612e-09
-5.09566e-09
1.6577e-14
-6.06843e-09
-5.34804e-09
8.67496e-15
-5.9484e-09
-5.57527e-09
4.75208e-15
-5.80351e-09
-5.77512e-09
5.57605e-15
-5.63618e-09
-5.94589e-09
4.55669e-15
-5.4489e-09
-6.08577e-09
6.99548e-15
-5.24415e-09
-6.19385e-09
5.42265e-15
-5.0242e-09
-6.26931e-09
6.45433e-15
-4.79139e-09
-6.3106e-09
8.97755e-15
-4.54754e-09
-6.32155e-09
7.17126e-15
-4.29473e-09
-6.2989e-09
7.42266e-15
-4.03453e-09
-6.2475e-09
6.28598e-15
-3.76863e-09
-6.16652e-09
7.22296e-15
-3.49849e-09
-6.05828e-09
7.6193e-15
-3.22523e-09
-5.92931e-09
7.87613e-15
-2.95025e-09
-5.77717e-09
3.00047e-15
-2.67455e-09
-5.60863e-09
4.54619e-15
-2.39925e-09
-5.42435e-09
-5.71861e-15
-2.12539e-09
-5.22732e-09
-2.83834e-15
-1.85395e-09
-5.01981e-09
-8.93462e-16
-1.58622e-09
-4.79864e-09
1.48584e-15
-1.32363e-09
-4.56164e-09
-3.07514e-15
-1.06809e-09
-4.30161e-09
-2.23181e-16
-8.22339e-10
-4.00457e-09
1.43304e-15
-5.90497e-10
-3.6496e-09
3.96445e-15
-3.78905e-10
-3.20601e-09
5.10096e-15
-1.97634e-10
-2.62942e-09
4.51589e-15
-6.27624e-11
-1.86826e-09
6.18854e-15
-8.51124e-10
9.84705e-15
-5.88072e-09
-5.14775e-09
2.08602e-14
-5.79962e-09
-5.42908e-09
1.05372e-14
-5.69179e-09
-5.68306e-09
5.37795e-15
-5.5596e-09
-5.90731e-09
5.66926e-15
-5.40542e-09
-6.10004e-09
4.50606e-15
-5.23168e-09
-6.25945e-09
6.87933e-15
-5.04082e-09
-6.38469e-09
5.29963e-15
-4.83502e-09
-6.47506e-09
6.34465e-15
-4.61655e-09
-6.5291e-09
8.75005e-15
-4.38715e-09
-6.55091e-09
7.04979e-15
-4.14879e-09
-6.53727e-09
7.26017e-15
-3.90294e-09
-6.49332e-09
6.17661e-15
-3.65116e-09
-6.4183e-09
7.03658e-15
-3.39481e-09
-6.31465e-09
7.45165e-15
-3.13489e-09
-6.1892e-09
7.73125e-15
-2.87269e-09
-6.03938e-09
1.92164e-15
-2.60909e-09
-5.87222e-09
4.84101e-15
-2.3451e-09
-5.68833e-09
-5.21634e-15
-2.0817e-09
-5.49073e-09
-2.04267e-15
-1.81977e-09
-5.28174e-09
1.83399e-17
-1.56051e-09
-5.0579e-09
2.4184e-15
-1.30529e-09
-4.81687e-09
-1.92851e-15
-1.05591e-09
-4.55099e-09
6.99538e-16
-8.15051e-10
-4.24543e-09
2.15535e-15
-5.8676e-10
-3.87789e-09
4.47852e-15
-3.77379e-10
-3.41539e-09
5.44603e-15
-1.97133e-10
-2.80966e-09
4.78891e-15
-6.25569e-11
-2.00283e-09
6.33263e-15
-9.13689e-10
1.00938e-14
-5.60336e-09
-5.19033e-09
1.8233e-14
-5.53251e-09
-5.49985e-09
1.0367e-14
-5.43565e-09
-5.77988e-09
5.20942e-15
-5.31509e-09
-6.02786e-09
5.58632e-15
-5.17313e-09
-6.24195e-09
4.43623e-15
-5.01216e-09
-6.42037e-09
6.76578e-15
-4.83452e-09
-6.56231e-09
5.18084e-15
-4.64232e-09
-6.66721e-09
6.21681e-15
-4.43774e-09
-6.73371e-09
8.49279e-15
-4.2224e-09
-6.76621e-09
6.89511e-15