/*--------------------------------*- C++ -*----------------------------------*\
| =========                 |                                                 |
| \\      /  F ield         | OpenFOAM: The Open Source CFD Toolbox           |
|  \\    /   O peration     | Version:  v2012                                 |
|   \\  /    A nd           | Website:  www.openfoam.com                      |
|    \\/     M anipulation  |                                                 |
\*---------------------------------------------------------------------------*/
FoamFile
{
    version     2.0;
    format      ascii;
    class       volVectorField;
    location    "0.15";
    object      U;
}
// * * * * * * * * * * * * * * * * * * * * * * * * * * * * * * * * * * * * * //

dimensions      [0 1 -1 0 0 0 0];


internalField   nonuniform List<vector> 
2660
(
(-0.181293 -26.805 0.00168804)
(-1.28123 -23.0532 0.0112927)
(-0.723472 -8.93369 0.00643072)
(-1.82869 5.24755 0.016126)
(-0.322984 11.5382 0.00295046)
(-0.225302 -27.6349 0.00201929)
(-0.789089 -23.7551 0.00697852)
(0.106941 -8.45124 -0.000836754)
(-1.7208 3.48999 0.0151347)
(0.10323 6.91681 -0.000797712)
(-0.376154 -28.5229 0.00332889)
(-0.258194 -23.0538 0.00234309)
(3.56654 -9.29329 -0.0310455)
(-0.0179512 1.93433 0.000239058)
(0.442225 6.22881 -0.00379413)
(-0.344288 -29.2505 0.00305139)
(0.325459 -21.5527 -0.00276022)
(4.29441 -11.0397 -0.037424)
(1.82757 0.701016 -0.0159144)
(0.439392 6.34334 -0.00379814)
(0.185178 -30.3921 -0.00154559)
(-0.160122 -22.8189 0.00147776)
(-0.414071 -13.7338 0.00366728)
(0.688658 -0.44062 -0.00598147)
(0.127146 8.54459 -0.00110983)
(0.222927 -31.5055 -0.00190409)
(-0.993057 -25.2806 0.0087304)
(-0.472899 -16.5084 0.00415451)
(0.643485 0.477619 -0.00560705)
(0.614282 14.0861 -0.00540469)
(0.169163 -32.7182 -0.00144646)
(-0.441844 -26.5923 0.00390951)
(2.65621 -18.9797 -0.0231631)
(2.76575 -1.2475 -0.0241158)
(1.26467 16.8274 -0.0110265)
(0.333734 -33.5675 -0.00290633)
(0.81056 -27.5839 -0.00704351)
(2.97767 -19.3399 -0.025985)
(2.68227 -4.23114 -0.0234301)
(1.7957 16.3208 -0.0156669)
(0.198236 -34.3489 -0.0017023)
(0.262919 -29.5307 -0.00225906)
(0.527779 -20.0508 -0.00459074)
(-0.650008 -4.25994 0.00565625)
(1.42193 17.316 -0.0124285)
(0.345832 -35.1295 -0.00298482)
(0.567385 -30.9308 -0.00491828)
(0.713581 -21.4837 -0.0062395)
(-0.179662 -2.02107 0.00154382)
(1.13108 20.1453 -0.00991746)
(0.438337 -35.9049 -0.00378492)
(0.639837 -31.8671 -0.00554596)
(2.2198 -22.2052 -0.0193915)
(2.15178 -2.3229 -0.0187779)
(0.824717 20.9525 -0.00719954)
(0.759555 -36.7547 -0.00660356)
(1.88871 -33.3598 -0.0164649)
(2.95929 -23.5912 -0.0258609)
(3.05604 -5.73504 -0.0266889)
(1.04784 19.3441 -0.00905462)
(0.725638 -37.7482 -0.00630013)
(0.624568 -36.4068 -0.0054404)
(2.0145 -29.8133 -0.0175963)
(2.37489 -17.8641 -0.0207392)
(0.601036 5.09326 -0.00510336)
(0.43265 -38.6677 -0.0037361)
(-1.41817 -38.1137 0.0124039)
(0.835719 -33.4821 -0.00727376)
(0.168546 -23.2928 -0.00145693)
(-1.14487 -4.74012 0.0100044)
(0.631778 -39.5439 -0.00546632)
(-1.74058 -37.2404 0.0152143)
(0.150094 -31.2205 -0.00126942)
(0.491139 -16.2405 -0.00425647)
(-1.5571 2.44995 0.0135211)
(2.04345 -40.4334 -0.0177975)
(-0.0647204 -38.1401 0.000577279)
(0.827546 -31.671 -0.00718014)
(3.37975 -14.1496 -0.0294721)
(-1.36875 5.99155 0.0119506)
(2.55689 -40.7059 -0.022284)
(1.71482 -38.9562 -0.0149528)
(4.44829 -32.6181 -0.0388017)
(6.23244 -15.8942 -0.0543994)
(-1.80174 2.81192 0.0156928)
(1.9775 -41.0919 -0.017233)
(0.568056 -38.345 -0.0049363)
(3.3967 -33.0733 -0.0296215)
(5.01424 -18.0218 -0.0437568)
(-3.5963 0.998951 0.0313112)
(1.80152 -41.5613 -0.0156898)
(-0.37175 -39.6263 0.00328732)
(2.30852 -34.8906 -0.0201472)
(4.55619 -23.1345 -0.0397546)
(-4.1452 -1.24064 0.0362448)
(0.233715 -41.9424 -0.0019964)
(-2.53064 -40.2721 0.0221324)
(1.14256 -33.0773 -0.00996918)
(2.68418 -22.0011 -0.0234342)
(-3.24177 2.52982 0.0283229)
(0.347245 -42.4981 -0.00297463)
(0.539294 -40.7073 -0.0046722)
(-0.0707794 -33.4851 0.000646844)
(0.506257 -20.5074 -0.00439526)
(-0.47881 4.31522 0.00417752)
(-0.297004 -42.6269 0.00263163)
(0.0773181 -39.6632 -0.000637739)
(0.349885 -34.7356 -0.00302779)
(0.780998 -21.0461 -0.00680296)
(0.346606 2.24632 -0.0030314)
(-0.949946 -43.162 0.0083201)
(-4.17168 -39.2551 0.0364465)
(-5.14577 -31.8122 0.0449416)
(-1.14903 -19.0808 0.0100594)
(-0.165974 5.38651 0.00153763)
(-0.098109 -43.8342 0.000882587)
(-0.63794 -43.0246 0.00560547)
(-5.71905 -36.2271 0.0499299)
(-6.39277 -24.1178 0.0558106)
(-2.06554 0.470235 0.0181842)
(-0.134683 -43.8694 0.0012232)
(0.163193 -44.8429 -0.00138627)
(-0.683225 -41.5569 0.00597806)
(-1.9237 -31.6327 0.0167963)
(-1.96867 -9.1023 0.0172496)
(-0.0501914 -44.1513 0.000481456)
(0.130939 -45.0452 -0.00110995)
(-0.18605 -42.4633 0.00163996)
(0.115463 -36.8553 -0.00100002)
(-0.0825543 -17.0943 0.000736596)
(0.129402 -44.4068 -0.00108652)
(0.310193 -45.0572 -0.00267809)
(0.0364697 -42.4517 -0.000302674)
(0.178947 -37.5832 -0.00155288)
(-0.0228845 -18.9093 0.000204075)
(0.142525 -44.4762 -0.00120928)
(0.71777 -44.8797 -0.00623568)
(0.0361621 -42.7175 -0.000302096)
(0.28774 -37.8798 -0.00250355)
(-0.075136 -18.8371 0.000661637)
(0.0748369 -44.6012 -0.000614234)
(0.176138 -44.7496 -0.00150792)
(-0.12426 -42.954 0.00109515)
(0.474987 -38.1127 -0.00413844)
(-0.0970492 -18.6688 0.000852128)
(0.122085 -45.0715 -0.00102765)
(0.0875091 -44.6858 -0.000737797)
(-0.165379 -43.1613 0.00145163)
(0.470621 -38.3709 -0.00410057)
(-0.0173744 -18.3893 0.000154962)
(0.155135 -45.5879 -0.00131428)
(0.0671515 -44.4094 -0.00056628)
(-0.0839455 -43.5466 0.000737998)
(0.496431 -38.6819 -0.00432608)
(0.11149 -18.0577 -0.000971117)
(0.0581674 -46.2422 -0.000467748)
(0.215285 -44.1654 -0.00186058)
(0.138638 -44.15 -0.0012037)
(0.559344 -38.9067 -0.00487663)
(0.200915 -17.6351 -0.00175381)
(0.0936495 -46.9504 -0.000774837)
(0.186183 -44.3037 -0.00160762)
(0.240066 -44.7589 -0.00208969)
(0.655729 -39.108 -0.00571921)
(0.197397 -17.0478 -0.00172339)
(-0.0575764 -47.2882 0.000543313)
(0.198629 -44.9312 -0.00171549)
(0.362207 -45.4813 -0.00315617)
(0.698892 -39.3889 -0.00609751)
(0.226804 -16.5497 -0.00198231)
(-0.0542953 -0.00062807 0.000473926)
(-0.0473029 -0.000516629 0.000412902)
(-0.0412442 -0.00042776 0.000360019)
(-0.0359734 -0.000356767 0.000314016)
(-0.031371 -0.000299803 0.000273838)
(-0.0273406 -0.000253329 0.000238653)
(-0.0238024 -0.000215034 0.000207774)
(-0.020691 -0.000183197 0.00018061)
(-0.017952 -0.000156592 0.000156713)
(-0.0155394 -0.000134108 0.000135643)
(-0.0134141 -0.000115005 0.000117099)
(-0.0115428 -9.8696e-05 0.000100759)
(-0.00989658 -8.47197e-05 8.63928e-05)
(-0.00845033 -7.26032e-05 7.37727e-05)
(-0.00718124 -6.25922e-05 6.26896e-05)
(-0.00606931 -5.37708e-05 5.2993e-05)
(-0.00509675 -4.64366e-05 4.4492e-05)
(-0.00424737 -3.99869e-05 3.70713e-05)
(-0.00350634 -3.45342e-05 3.06095e-05)
(-0.00286073 -2.99037e-05 2.49733e-05)
(-0.0022989 -2.59882e-05 2.00733e-05)
(-0.00181095 -2.27634e-05 1.58088e-05)
(-0.00138821 -1.96942e-05 1.21189e-05)
(-0.00102376 -1.73229e-05 8.93911e-06)
(-0.000713305 -1.50976e-05 6.22951e-06)
(-0.000453986 -1.30845e-05 3.96659e-06)
(-0.00024846 -1.089e-05 2.1704e-06)
(-9.79292e-05 -8.5884e-06 8.54964e-07)
(-1.57277e-05 -5.26844e-06 1.42013e-07)
(-0.127884 -0.00596385 0.00111634)
(-0.112238 -0.00503156 0.000979782)
(-0.0984968 -0.00426898 0.000859839)
(-0.0863957 -0.00364016 0.000754209)
(-0.0757126 -0.00311784 0.000660947)
(-0.0662639 -0.00268001 0.000578461)
(-0.0578946 -0.00231013 0.000505408)
(-0.0504751 -0.00199526 0.000440635)
(-0.043896 -0.00172548 0.000383215)
(-0.038063 -0.00149289 0.000332284)
(-0.0328947 -0.00129148 0.000287177)
(-0.0283207 -0.00111648 0.000247243)
(-0.0242787 -0.00096412 0.000211964)
(-0.0207141 -0.000831258 0.000180852)
(-0.0175761 -0.000716207 0.000153455)
(-0.0148198 -0.000615808 0.000129408)
(-0.0124045 -0.000529155 0.000108298)
(-0.0102927 -0.000454021 8.98468e-05)
(-0.00845022 -0.000389345 7.37747e-05)
(-0.00684608 -0.00033383 5.97732e-05)
(-0.00545287 -0.000285981 4.76191e-05)
(-0.00424671 -0.000244874 3.70768e-05)
(-0.00320731 -0.00020849 2.80047e-05)
(-0.00231857 -0.000176561 2.02492e-05)
(-0.00157056 -0.000146876 1.37204e-05)
(-0.000957743 -0.000117976 8.37222e-06)
(-0.00048737 -8.76083e-05 4.26045e-06)
(-0.000164271 -5.52882e-05 1.43769e-06)
(-1.27109e-05 -2.36898e-05 1.28322e-07)
(-0.181846 -0.0141119 0.0015874)
(-0.16078 -0.0120685 0.00140354)
(-0.142047 -0.010367 0.00124002)
(-0.12536 -0.00894035 0.00109435)
(-0.110472 -0.00773589 0.000964393)
(-0.0971783 -0.00671137 0.00084834)
(-0.0852994 -0.00583371 0.000744652)
(-0.074684 -0.00507691 0.00065198)
(-0.0652013 -0.00442052 0.000569215)
(-0.0567371 -0.00384838 0.000495315)
(-0.0491904 -0.0033478 0.000429446)
(-0.0424732 -0.00290883 0.000370803)
(-0.0365054 -0.00252336 0.000318714)
(-0.0312165 -0.00218497 0.000272551)
(-0.0265395 -0.00188852 0.000231721)
(-0.0224143 -0.00162898 0.000195725)
(-0.0187857 -0.0014029 0.000164015)
(-0.0156024 -0.00120626 0.000136201)
(-0.0128167 -0.00103582 0.000111898)
(-0.0103852 -0.000888639 9.06771e-05)
(-0.00826928 -0.000761101 7.22155e-05)
(-0.00643482 -0.000650495 5.61834e-05)
(-0.00485308 -0.000553043 4.23772e-05)
(-0.00350127 -0.000465844 3.058e-05)
(-0.00236542 -0.000384662 2.06657e-05)
(-0.00143822 -0.000305039 1.25732e-05)
(-0.000729964 -0.000222184 6.38214e-06)
(-0.000247557 -0.000135021 2.1679e-06)
(-1.91393e-05 -5.21459e-05 1.98553e-07)
(-0.219219 -0.0234975 0.00191363)
(-0.195176 -0.0203309 0.00170379)
(-0.173546 -0.0176537 0.00151498)
(-0.154068 -0.0153758 0.00134496)
(-0.136518 -0.0134254 0.00119176)
(-0.120702 -0.0117441 0.00105369)
(-0.106448 -0.0102857 0.000929277)
(-0.0936101 -0.00901327 0.000817204)
(-0.0820581 -0.00789745 0.000716375)
(-0.0716764 -0.00691493 0.000625739)
(-0.0623617 -0.00604719 0.000544437)
(-0.0540218 -0.00527963 0.000471629)
(-0.0465715 -0.00460024 0.000406599)
(-0.0399345 -0.00399959 0.00034867)
(-0.0340372 -0.00346955 0.000297187)
(-0.0288122 -0.00300289 0.000251591)
(-0.0241971 -0.00259371 0.000211262)
(-0.0201325 -0.00223602 0.000175751)
(-0.0165632 -0.00192439 0.000144609)
(-0.0134379 -0.00165369 0.000117333)
(-0.0107107 -0.00141815 9.35362e-05)
(-0.00834101 -0.00121265 7.28286e-05)
(-0.00629432 -0.00103098 5.49637e-05)
(-0.0045435 -0.000867272 3.96836e-05)
(-0.00307201 -0.000714301 2.68396e-05)
(-0.00187171 -0.000563729 1.63629e-05)
(-0.00095499 -0.000408127 8.35004e-06)
(-0.000330013 -0.000245642 2.89052e-06)
(-2.71761e-05 -9.29144e-05 2.82483e-07)
(-0.244035 -0.0331284 0.00213025)
(-0.218666 -0.0289615 0.00190883)
(-0.195599 -0.0253909 0.00170749)
(-0.174623 -0.022313 0.00152439)
(-0.155546 -0.0196437 0.00135787)
(-0.138205 -0.0173148 0.00120648)
(-0.12245 -0.0152711 0.00106896)
(-0.108152 -0.0134683 0.000944148)
(-0.0951944 -0.011871 0.000831054)
(-0.0834723 -0.0104511 0.000728718)
(-0.0728891 -0.00918579 0.000636344)
(-0.0633576 -0.00805732 0.000553136)
(-0.0547954 -0.00705089 0.000478401)
(-0.047128 -0.00615485 0.000411477)
(-0.0402813 -0.0053589 0.000351708)
(-0.0341868 -0.00465399 0.000298519)
(-0.0287799 -0.00403228 0.000251275)
(-0.0239983 -0.00348598 0.000209502)
(-0.0197833 -0.00300765 0.000172725)
(-0.0160798 -0.00258996 0.000140401)
(-0.0128377 -0.00222491 0.00011211)
(-0.0100129 -0.00190474 8.74278e-05)
(-0.00756754 -0.00162045 6.60828e-05)
(-0.00547207 -0.00136298 4.77945e-05)
(-0.0037085 -0.00112153 3.24008e-05)
(-0.00226868 -0.000883481 1.9833e-05)
(-0.0011665 -0.000638398 1.01997e-05)
(-0.000410859 -0.000384084 3.59896e-06)
(-3.51108e-05 -0.000145427 3.65389e-07)
(-0.259777 -0.0424705 0.00226765)
(-0.234129 -0.0374761 0.0020438)
(-0.210587 -0.0331439 0.00183831)
(-0.188984 -0.0293647 0.00164975)
(-0.169172 -0.0260488 0.0014768)
(-0.151016 -0.0231227 0.00131832)
(-0.134397 -0.0205269 0.00117325)
(-0.119206 -0.0182133 0.00104065)
(-0.105348 -0.0161435 0.000919693)
(-0.0927307 -0.0142865 0.000809543)
(-0.0812704 -0.0126178 0.000709513)
(-0.0708895 -0.0111176 0.000618893)
(-0.0615135 -0.00976991 0.000537054)
(-0.0530734 -0.00856186 0.000463386)
(-0.0454993 -0.00748194 0.000397267)
(-0.0387254 -0.00651998 0.000338145)
(-0.0326885 -0.00566684 0.000285399)
(-0.0273267 -0.00491332 0.000238562)
(-0.0225813 -0.00425031 0.000197154)
(-0.018396 -0.0036685 0.000160626)
(-0.0147194 -0.00315769 0.000128542)
(-0.0115059 -0.0027075 0.000100466)
(-0.00871645 -0.00230599 7.61164e-05)
(-0.0063203 -0.00194061 5.52034e-05)
(-0.00429905 -0.00159648 3.75603e-05)
(-0.00264506 -0.00125811 2.31226e-05)
(-0.00137343 -0.00090931 1.20091e-05)
(-0.00049364 -0.00054925 4.32428e-06)
(-4.34728e-05 -0.00020972 4.52766e-07)
(-0.26889 -0.0512293 0.0023472)
(-0.243613 -0.0455911 0.00212658)
(-0.220212 -0.0406452 0.00192233)
(-0.198565 -0.0362822 0.00173338)
(-0.178558 -0.0324119 0.00155874)
(-0.160091 -0.02896 0.00139753)
(-0.143069 -0.0258661 0.00124896)
(-0.127409 -0.0230813 0.00111225)
(-0.113032 -0.0205667 0.000986771)
(-0.0998646 -0.0182911 0.000871821)
(-0.0878364 -0.0162293 0.000766835)
(-0.0768816 -0.0143618 0.000671205)
(-0.0669352 -0.0126723 0.000584388)
(-0.0579365 -0.011148 0.000505845)
(-0.0498217 -0.00977701 0.000435006)
(-0.0425302 -0.00854889 0.000371364)
(-0.0360027 -0.00745383 0.000314334)
(-0.03018 -0.00648179 0.000263473)
(-0.0250055 -0.00562236 0.00021832)
(-0.0204237 -0.0048646 0.000178331)
(-0.0163841 -0.0041963 0.000143078)
(-0.0128413 -0.00360455 0.000112126)
(-0.00975619 -0.00307448 8.51964e-05)
(-0.00709834 -0.00258998 6.1999e-05)
(-0.00484999 -0.00213201 4.23735e-05)
(-0.00300382 -0.00168209 2.62579e-05)
(-0.00157616 -0.00121826 1.37815e-05)
(-0.000577768 -0.000740702 5.06132e-06)
(-5.22047e-05 -0.000286215 5.44013e-07)
(-0.273074 -0.0592661 0.0023837)
(-0.248561 -0.0531585 0.00216976)
(-0.225693 -0.0477431 0.00197016)
(-0.204383 -0.042915 0.00178416)
(-0.184553 -0.0385872 0.00161106)
(-0.166127 -0.0346877 0.00145022)
(-0.149037 -0.0311583 0.00130105)
(-0.13322 -0.0279517 0.00116298)
(-0.118616 -0.0250305 0.00103551)
(-0.105167 -0.0223648 0.000918111)
(-0.0928174 -0.019931 0.000810318)
(-0.0815122 -0.0177105 0.000711631)
(-0.0711971 -0.0156883 0.000621596)
(-0.06182 -0.0138523 0.000539749)
(-0.0533246 -0.0121914 0.000465588)
(-0.0456564 -0.0106955 0.000398657)
(-0.0387615 -0.00935476 0.000338419)
(-0.0325848 -0.00815884 0.000284468)
(-0.0270729 -0.00709654 0.00023637)
(-0.0221732 -0.00615557 0.000193606)
(-0.017837 -0.005322 0.000155763)
(-0.0140204 -0.00458058 0.000122423)
(-0.0106857 -0.00391361 9.33139e-05)
(-0.00780343 -0.00330149 6.81572e-05)
(-0.00535713 -0.00272137 4.68039e-05)
(-0.00334024 -0.00215009 2.91977e-05)
(-0.00177045 -0.00156261 1.54801e-05)
(-0.000660272 -0.000957629 5.78405e-06)
(-6.08017e-05 -0.000374961 6.34009e-07)
(-0.27357 -0.0665328 0.00238802)
(-0.250051 -0.0601131 0.00218276)
(-0.227956 -0.0543609 0.00198991)
(-0.207231 -0.0491791 0.00180901)
(-0.187823 -0.0444869 0.0016396)
(-0.169683 -0.0402174 0.00148126)
(-0.152764 -0.0363164 0.00133358)
(-0.13702 -0.0327403 0.00119615)
(-0.122409 -0.0294549 0.00106862)
(-0.108887 -0.0264331 0.00095058)
(-0.0964096 -0.0236537 0.000841677)
(-0.0849346 -0.0211007 0.000741507)
(-0.0744166 -0.0187609 0.000649702)
(-0.0648123 -0.016624 0.000565873)
(-0.0560729 -0.0146802 0.000489581)
(-0.0481505 -0.0129205 0.00042043)
(-0.0409967 -0.0113357 0.000357933)
(-0.0345616 -0.00991534 0.000301727)
(-0.028796 -0.00864802 0.000251413)
(-0.0236505 -0.00752046 0.000206505)
(-0.0190796 -0.00651726 0.000166613)
(-0.0150419 -0.0056211 0.000131342)
(-0.0115015 -0.00481159 0.000100438)
(-0.00843075 -0.00406576 7.3636e-05)
(-0.00581498 -0.00335705 5.08033e-05)
(-0.00364884 -0.00265757 3.18942e-05)
(-0.00195163 -0.00193932 1.70638e-05)
(-0.000738159 -0.0011986 6.46629e-06)
(-6.87615e-05 -0.000475456 7.17678e-07)
(-0.271314 -0.0730331 0.00236832)
(-0.248914 -0.0664398 0.00217282)
(-0.227733 -0.0604691 0.00198795)
(-0.207744 -0.0550344 0.00181348)
(-0.188919 -0.0500634 0.00164917)
(-0.17123 -0.0454963 0.00149476)
(-0.154648 -0.0412848 0.00135002)
(-0.139143 -0.0373904 0.00121468)
(-0.124688 -0.0337836 0.00108851)
(-0.11125 -0.0304411 0.000971208)
(-0.0987969 -0.0273454 0.000862515)
(-0.0872954 -0.0244834 0.000762115)
(-0.0767091 -0.0218448 0.000669715)
(-0.0670027 -0.0194217 0.000584994)
(-0.0581344 -0.0172062 0.000507577)
(-0.0500626 -0.0151907 0.000437122)
(-0.0427447 -0.0133671 0.000373192)
(-0.0361358 -0.0117255 0.000315469)
(-0.0301912 -0.0102545 0.000263595)
(-0.0248658 -0.00894015 0.000217115)
(-0.0201172 -0.0077659 0.000175672)
(-0.0159072 -0.00671257 0.000138897)
(-0.0122025 -0.00575728 0.000106559)
(-0.00897759 -0.00487385 7.84117e-05)
(-0.00621989 -0.0040321 5.43402e-05)
(-0.0039257 -0.00319969 3.43131e-05)
(-0.00211623 -0.00234505 1.85026e-05)
(-0.000809316 -0.00146169 7.08953e-06)
(-7.57621e-05 -0.000586816 7.91745e-07)
(-0.267015 -0.0787988 0.00233079)
(-0.245791 -0.0721527 0.00214555)
(-0.225598 -0.0660673 0.00196931)
(-0.206434 -0.0604688 0.00180204)
(-0.188292 -0.0552956 0.00164368)
(-0.171162 -0.0504964 0.00149416)
(-0.15503 -0.0460306 0.00135335)
(-0.139881 -0.041866 0.00122112)
(-0.1257 -0.0379787 0.00109734)
(-0.112464 -0.0343503 0.000981802)
(-0.10015 -0.0309677 0.000874329)
(-0.0887347 -0.0278215 0.000774679)
(-0.0781879 -0.0249047 0.000682622)
(-0.0684813 -0.0222122 0.000597901)
(-0.0595795 -0.0197386 0.000520192)
(-0.0514468 -0.017478 0.000449205)
(-0.044046 -0.0154238 0.000384552)
(-0.0373369 -0.0135669 0.000325956)
(-0.0312797 -0.0118963 0.000273097)
(-0.0258331 -0.0103975 0.00022556)
(-0.0209586 -0.00905318 0.000183018)
(-0.0166212 -0.00784249 0.000145132)
(-0.0127906 -0.00674028 0.000111695)
(-0.0094438 -0.00571732 8.24832e-05)
(-0.0065704 -0.00473991 5.74016e-05)
(-0.00416871 -0.00377141 3.64361e-05)
(-0.00226223 -0.00277635 1.97787e-05)
(-0.000872485 -0.00174471 7.64278e-06)
(-8.16482e-05 -0.000707901 8.54601e-07)
(-0.261212 -0.0838764 0.00228012)
(-0.241175 -0.0772819 0.00210526)
(-0.222002 -0.0711721 0.00193791)
(-0.203708 -0.0654879 0.00177824)
(-0.186306 -0.0601797 0.00162634)
(-0.169802 -0.0552068 0.00148228)
(-0.154195 -0.050537 0.00134606)
(-0.139483 -0.0461458 0.00121764)
(-0.125659 -0.0420159 0.00109699)
(-0.112712 -0.0381345 0.000983966)
(-0.100626 -0.0344933 0.000878476)
(-0.0893826 -0.0310873 0.000780332)
(-0.07896 -0.0279133 0.000689361)
(-0.0693353 -0.0249694 0.000605354)
(-0.0604783 -0.0222526 0.000528037)
(-0.0523585 -0.0197594 0.000457161)
(-0.0449434 -0.0174846 0.000392386)
(-0.0381977 -0.0154204 0.00033347)
(-0.0320855 -0.0135561 0.000280132)
(-0.0265698 -0.0118773 0.000231991)
(-0.0216157 -0.0103659 0.000188754)
(-0.0171916 -0.00899953 0.000150112)
(-0.0132703 -0.00775103 0.000115883)
(-0.00983128 -0.00658831 8.58669e-05)
(-0.00686678 -0.00547422 5.99902e-05)
(-0.0043772 -0.00436793 3.82574e-05)
(-0.00238871 -0.00322952 2.08841e-05)
(-0.000927098 -0.00204546 8.12107e-06)
(-8.63684e-05 -0.000837458 9.05655e-07)
(-0.254309 -0.0883188 0.00221986)
(-0.235447 -0.0818657 0.00205524)
(-0.217294 -0.0758094 0.00189681)
(-0.199888 -0.0701071 0.00174489)
(-0.183255 -0.0647227 0.0015997)
(-0.167415 -0.059627 0.00146144)
(-0.152381 -0.0547978 0.00133021)
(-0.138159 -0.0502191 0.00120607)
(-0.124752 -0.0458807 0.00108906)
(-0.112156 -0.0417764 0.000979104)
(-0.100361 -0.0379032 0.000876162)
(-0.0893564 -0.0342609 0.000780101)
(-0.0791242 -0.0308502 0.000690792)
(-0.0696465 -0.0276728 0.000608069)
(-0.0608977 -0.0247284 0.000531696)
(-0.0528516 -0.0220159 0.000461463)
(-0.0454799 -0.0195319 0.000397068)
(-0.0387512 -0.0172697 0.000338302)
(-0.0326339 -0.0152193 0.000284919)
(-0.0270945 -0.0133664 0.000236572)
(-0.0221018 -0.0116923 0.000192997)
(-0.0176274 -0.0101735 0.000153917)
(-0.0136472 -0.00878085 0.000119174)
(-0.0101434 -0.00747957 8.85921e-05)
(-0.00711058 -0.0062292 6.21193e-05)
(-0.00455155 -0.00498469 3.97803e-05)
(-0.00249566 -0.00370138 2.18188e-05)
(-0.000973116 -0.00236121 8.52411e-06)
(-8.99108e-05 -0.000974181 9.44753e-07)
(-0.246615 -0.092181 0.00215269)
(-0.228895 -0.0859457 0.00199804)
(-0.211748 -0.0800099 0.00184839)
(-0.195228 -0.0743477 0.0017042)
(-0.179373 -0.0689378 0.00156581)
(-0.164216 -0.0637637 0.00143351)
(-0.149781 -0.0588141 0.00130752)
(-0.136083 -0.0540821 0.00118796)
(-0.123133 -0.0495658 0.00107493)
(-0.110932 -0.0452657 0.000968421)
(-0.099477 -0.041185 0.00086844)
(-0.0887604 -0.0373283 0.000774895)
(-0.0787695 -0.0337005 0.000687692)
(-0.06949 -0.0303071 0.000606699)
(-0.0609002 -0.0271508 0.000531715)
(-0.0529773 -0.0242326 0.000462558)
(-0.0456967 -0.0215511 0.000398959)
(-0.0390304 -0.0191011 0.000340739)
(-0.0329504 -0.0168732 0.000287681)
(-0.0274266 -0.0148532 0.000239471)
(-0.0224311 -0.0130222 0.000195872)
(-0.0179388 -0.0113554 0.000156636)
(-0.0139282 -0.00982192 0.000121628)
(-0.0103843 -0.00838451 9.06962e-05)
(-0.00730425 -0.00699942 6.38105e-05)
(-0.00469303 -0.00561738 4.1016e-05)
(-0.00258353 -0.00418885 2.25868e-05)
(-0.00101071 -0.0026893 8.85338e-06)
(-9.24014e-05 -0.00111678 9.73094e-07)
(-0.238364 -0.0955172 0.00208066)
(-0.221744 -0.0895644 0.00193561)
(-0.205576 -0.0838058 0.0017945)
(-0.189925 -0.0782335 0.00165791)
(-0.174845 -0.0728417 0.00152628)
(-0.160378 -0.0676274 0.0014)
(-0.146556 -0.062591 0.00127936)
(-0.133403 -0.0577358 0.00116455)
(-0.120935 -0.0530686 0.00105573)
(-0.109159 -0.0485971 0.000952943)
(-0.0980777 -0.0443308 0.000856221)
(-0.0876861 -0.0402798 0.000765513)
(-0.0779751 -0.0364535 0.000680754)
(-0.0689337 -0.0328608 0.00060184)
(-0.0605431 -0.0295076 0.000528594)
(-0.0527834 -0.0263974 0.000460863)
(-0.0456329 -0.0235307 0.000398401)
(-0.0390668 -0.0209034 0.000341056)
(-0.0330599 -0.0185072 0.000288637)
(-0.0275854 -0.016328 0.000240856)
(-0.0226183 -0.0143465 0.000197506)
(-0.0181364 -0.0125372 0.00015836)
(-0.0141208 -0.0108673 0.000123309)
(-0.0105592 -0.00929717 9.22225e-05)
(-0.00745086 -0.00777991 6.50906e-05)
(-0.00480344 -0.00626195 4.19801e-05)
(-0.00265328 -0.00468852 2.31962e-05)
(-0.00104034 -0.00302757 9.11284e-06)
(-9.39556e-05 -0.00126405 9.9181e-07)
(-0.229737 -0.0983802 0.00200534)
(-0.214167 -0.0927637 0.00186947)
(-0.198942 -0.0872299 0.00173659)
(-0.18414 -0.0817894 0.00160739)
(-0.169822 -0.0764526 0.00148242)
(-0.156041 -0.0712308 0.00136213)
(-0.142836 -0.0661367 0.00124688)
(-0.130237 -0.0611843 0.00113691)
(-0.118267 -0.0563896 0.00103244)
(-0.106938 -0.0517683 0.000933544)
(-0.0962531 -0.0473364 0.000840289)
(-0.0862131 -0.0431095 0.000752652)
(-0.0768111 -0.0391015 0.000670589)
(-0.0680383 -0.0353254 0.000594019)
(-0.0598783 -0.03179 0.000522788)
(-0.0523137 -0.0285011 0.00045676)
(-0.0453251 -0.0254611 0.000395712)
(-0.0388902 -0.0226674 0.000339514)
(-0.0329865 -0.0201125 0.000287995)
(-0.0275898 -0.0177825 0.000240894)
(-0.0226778 -0.0156578 0.000198024)
(-0.0182308 -0.0137119 0.000159184)
(-0.0142327 -0.0119107 0.000124285)
(-0.0106731 -0.0102122 9.32174e-05)
(-0.00755391 -0.00856614 6.59902e-05)
(-0.00488493 -0.00691467 4.26915e-05)
(-0.00270613 -0.00519736 2.3658e-05)
(-0.00106263 -0.00337385 9.30798e-06)
(-9.4692e-05 -0.00141486 1.00205e-06)
(-0.220872 -0.100821 0.00192795)
(-0.206299 -0.0955842 0.00180078)
(-0.191978 -0.0903142 0.00167579)
(-0.177995 -0.0850402 0.00155376)
(-0.164422 -0.0797894 0.00143528)
(-0.151317 -0.0745875 0.0013209)
(-0.138727 -0.0694604 0.00121101)
(-0.126687 -0.0644333 0.00110591)
(-0.115223 -0.0595317 0.00100586)
(-0.104352 -0.0547796 0.000910967)
(-0.0940804 -0.0501998 0.000821319)
(-0.0844111 -0.0458136 0.000736917)
(-0.0753393 -0.0416398 0.000657737)
(-0.0668581 -0.0376951 0.000583713)
(-0.058953 -0.0339912 0.000514707)
(-0.0516085 -0.0305365 0.0004506)
(-0.0448071 -0.0273352 0.000391189)
(-0.0385287 -0.0243859 0.000336357)
(-0.0327529 -0.0216818 0.000285954)
(-0.0274579 -0.0192096 0.000239741)
(-0.0226237 -0.0169493 0.00019755)
(-0.0182329 -0.0148736 0.000159202)
(-0.0142717 -0.0129469 0.000124626)
(-0.0107319 -0.0111248 9.37295e-05)
(-0.00761717 -0.009354 6.65422e-05)
(-0.00493994 -0.0075721 4.31716e-05)
(-0.00274356 -0.00571261 2.39849e-05)
(-0.0010783 -0.00372609 9.44518e-06)
(-9.47343e-05 -0.00156819 1.00505e-06)
(-0.211877 -0.102887 0.00184943)
(-0.198246 -0.0980643 0.00173048)
(-0.184787 -0.0930893 0.00161302)
(-0.171594 -0.08801 0.00149787)
(-0.158743 -0.0828705 0.00138571)
(-0.146301 -0.0777116 0.0012771)
(-0.134318 -0.0725723 0.00117252)
(-0.122834 -0.0674896 0.00107228)
(-0.11188 -0.0624989 0.000976679)
(-0.101474 -0.0576326 0.000885844)
(-0.0916264 -0.0529208 0.000799893)
(-0.0823406 -0.0483906 0.000718839)
(-0.0736141 -0.0440654 0.000642673)
(-0.0654413 -0.0399657 0.000571341)
(-0.0578095 -0.0361064 0.00050472)
(-0.0507043 -0.0324982 0.000442704)
(-0.0441101 -0.0291471 0.000385102)
(-0.0380083 -0.0260528 0.000331813)
(-0.0323805 -0.0232094 0.000282703)
(-0.0272069 -0.0206038 0.000237549)
(-0.0224696 -0.0182157 0.000196203)
(-0.0181532 -0.0160171 0.000158505)
(-0.0142457 -0.013971 0.000124398)
(-0.010741 -0.0120307 9.38085e-05)
(-0.0076446 -0.0101398 6.67812e-05)
(-0.0049711 -0.00823114 4.34432e-05)
(-0.00276717 -0.00623175 2.41911e-05)
(-0.00108814 -0.00408241 9.5314e-06)
(-9.42076e-05 -0.00172314 1.00205e-06)
(-0.202837 -0.104624 0.00177052)
(-0.190094 -0.10024 0.00165932)
(-0.177454 -0.0955841 0.001549)
(-0.165017 -0.0907217 0.00144046)
(-0.152866 -0.0857138 0.0013344)
(-0.141069 -0.0806165 0.00123143)
(-0.129683 -0.0754824 0.00113206)
(-0.118751 -0.0703603 0.00103664)
(-0.108306 -0.0652959 0.000945471)
(-0.0983677 -0.0603303 0.000858722)
(-0.0889488 -0.0555006 0.000776515)
(-0.0800547 -0.05084 0.00069888)
(-0.0716836 -0.0463767 0.000625817)
(-0.0638312 -0.0421349 0.000557282)
(-0.0564859 -0.0381325 0.000493163)
(-0.0496346 -0.0343825 0.000433361)
(-0.0432627 -0.0308926 0.000377703)
(-0.0373534 -0.0276636 0.000326095)
(-0.0318897 -0.0246905 0.000278416)
(-0.0268535 -0.0219602 0.000234462)
(-0.0222287 -0.0194523 0.000194099)
(-0.0180018 -0.0171381 0.000157183)
(-0.0141625 -0.014979 0.000123671)
(-0.0107062 -0.0129263 9.35044e-05)
(-0.00764025 -0.0109203 6.67426e-05)
(-0.00498115 -0.00888899 4.35304e-05)
(-0.00277867 -0.0067525 2.42913e-05)
(-0.00109301 -0.00444114 9.574e-06)
(-9.32375e-05 -0.00187893 9.94314e-07)
(-0.193821 -0.106072 0.00169182)
(-0.18191 -0.102145 0.00158787)
(-0.170046 -0.0978257 0.00148434)
(-0.158332 -0.0931968 0.0013821)
(-0.146855 -0.0883361 0.00128193)
(-0.135686 -0.0833153 0.00118444)
(-0.124885 -0.0782006 0.00109017)
(-0.114497 -0.0730527 0.0009995)
(-0.104557 -0.0679278 0.000912742)
(-0.0950861 -0.0628758 0.000830072)
(-0.0860984 -0.057941 0.000751628)
(-0.0776001 -0.0531625 0.00067745)
(-0.0695907 -0.0485732 0.000607543)
(-0.0620665 -0.0442013 0.000541872)
(-0.0550168 -0.0400675 0.000480335)
(-0.0484296 -0.0361868 0.000422839)
(-0.0422914 -0.0325687 0.000369222)
(-0.0365864 -0.0292151 0.000319399)
(-0.0312992 -0.0261215 0.00027326)
(-0.0264132 -0.0232752 0.000230616)
(-0.0219137 -0.0206555 0.000191347)
(-0.0177888 -0.0182329 0.000155323)
(-0.0140297 -0.0159675 0.000122511)
(-0.0106333 -0.0138084 9.28666e-05)
(-0.00760822 -0.0116927 6.64622e-05)
(-0.0049729 -0.00954315 4.34577e-05)
(-0.00277981 -0.00727284 2.4301e-05)
(-0.00109377 -0.00480082 9.58059e-06)
(-9.19509e-05 -0.00203491 9.83133e-07)
(-0.184881 -0.10727 0.00161378)
(-0.173749 -0.103812 0.00151664)
(-0.16262 -0.0998394 0.00141951)
(-0.151596 -0.0954552 0.0013233)
(-0.140768 -0.0907532 0.00122879)
(-0.130208 -0.0858202 0.00113662)
(-0.119978 -0.0807362 0.00104733)
(-0.110125 -0.0755739 0.000961329)
(-0.100683 -0.0704 0.000878925)
(-0.0916769 -0.0652729 0.000800309)
(-0.0831196 -0.0602445 0.000725621)
(-0.0750185 -0.0553594 0.00065491)
(-0.0673736 -0.0506556 0.000588185)
(-0.0601819 -0.0461647 0.000525417)
(-0.0534335 -0.0419103 0.000466509)
(-0.0471172 -0.0379095 0.000411378)
(-0.0412203 -0.0341733 0.00035987)
(-0.0357283 -0.0307047 0.000311907)
(-0.0306268 -0.0274999 0.000267389)
(-0.0259006 -0.024546 0.00022614)
(-0.0215364 -0.0218223 0.000188052)
(-0.0175236 -0.0192986 0.000153006)
(-0.0138546 -0.0169336 0.000120982)
(-0.0105277 -0.0146742 9.19439e-05)
(-0.00755256 -0.0124543 6.59753e-05)
(-0.00494918 -0.0101915 4.32498e-05)
(-0.00277239 -0.007791 2.42359e-05)
(-0.0010913 -0.00516023 9.55891e-06)
(-9.04742e-05 -0.00219056 9.69784e-07)
(-0.176061 -0.108253 0.00153679)
(-0.165658 -0.105267 0.00144601)
(-0.155222 -0.101648 0.00135493)
(-0.144857 -0.0975153 0.00126446)
(-0.134652 -0.0929795 0.00117539)
(-0.124682 -0.0881425 0.00108838)
(-0.115009 -0.083098 0.00100395)
(-0.10568 -0.0779307 0.00092252)
(-0.0967294 -0.0727175 0.000844407)
(-0.0881821 -0.0675255 0.000769798)
(-0.0800521 -0.0624137 0.00069884)
(-0.0723468 -0.0574327 0.000631584)
(-0.0650666 -0.0526248 0.000568042)
(-0.0582089 -0.0480254 0.000508189)
(-0.0517644 -0.0436607 0.000451935)
(-0.0457226 -0.0395499 0.000399201)
(-0.0400719 -0.0357054 0.000349843)
(-0.0347984 -0.0321311 0.000303788)
(-0.029889 -0.0288236 0.000260947)
(-0.0253296 -0.0257705 0.000221154)
(-0.0211082 -0.0229505 0.000184312)
(-0.0172153 -0.0203328 0.000150314)
(-0.0136445 -0.0178749 0.000119146)
(-0.0103948 -0.0155215 9.07834e-05)
(-0.00747726 -0.0132031 6.53169e-05)
(-0.0049128 -0.010832 4.29312e-05)
(-0.0027582 -0.00830546 2.41116e-05)
(-0.00108651 -0.00551833 9.51685e-06)
(-8.8936e-05 -0.00234553 9.55578e-07)
(-0.167396 -0.109053 0.00146115)
(-0.157675 -0.106538 0.00137632)
(-0.147893 -0.103273 0.00129095)
(-0.138155 -0.0993937 0.00120596)
(-0.128549 -0.0950281 0.00112212)
(-0.11915 -0.0902926 0.00104009)
(-0.110019 -0.0852942 0.00096039)
(-0.101202 -0.0801295 0.00088343)
(-0.0927341 -0.0748853 0.000809527)
(-0.0846393 -0.0696375 0.000738869)
(-0.0769316 -0.0644519 0.000671598)
(-0.0696186 -0.0593847 0.000607765)
(-0.0627008 -0.0544827 0.000547386)
(-0.0561759 -0.0497846 0.000490438)
(-0.0500353 -0.0453194 0.000436838)
(-0.0442692 -0.0411082 0.00038651)
(-0.0388666 -0.0371645 0.000339319)
(-0.0338146 -0.0334933 0.0002952)
(-0.0291011 -0.0300917 0.000254068)
(-0.0247132 -0.0269472 0.000215771)
(-0.0206398 -0.0240385 0.000180221)
(-0.0168726 -0.0213338 0.000147321)
(-0.013406 -0.0187896 0.000117063)
(-0.01024 -0.0163484 8.94307e-05)
(-0.00738618 -0.0139374 6.45208e-05)