/*--------------------------------*- C++ -*----------------------------------*\
| =========                 |                                                 |
| \\      /  F ield         | OpenFOAM: The Open Source CFD Toolbox           |
|  \\    /   O peration     | Version:  v2012                                 |
|   \\  /    A nd           | Website:  www.openfoam.com                      |
|    \\/     M anipulation  |                                                 |
\*---------------------------------------------------------------------------*/
FoamFile
{
    version     2.0;
    format      ascii;
    class       volVectorField;
    location    "0.95";
    object      U;
}
// * * * * * * * * * * * * * * * * * * * * * * * * * * * * * * * * * * * * * //

dimensions      [0 1 -1 0 0 0 0];


internalField   nonuniform List<vector> 
3332
(
(0.00215778 -0.0257589 -1.88306e-05)
(0.00234905 -0.0262176 -2.04998e-05)
(0.00254376 -0.0266276 -2.2199e-05)
(0.00274052 -0.0269876 -2.39161e-05)
(0.00293813 -0.027297 -2.56408e-05)
(0.00313497 -0.0275543 -2.73586e-05)
(0.00332951 -0.0277585 -2.90564e-05)
(0.00351984 -0.0279083 -3.07175e-05)
(0.00370414 -0.0280025 -3.2326e-05)
(0.00388022 -0.0280399 -3.38628e-05)
(0.00404606 -0.0280196 -3.53103e-05)
(0.00419926 -0.0279405 -3.66475e-05)
(0.0043377 -0.0278021 -3.78557e-05)
(0.00445889 -0.0276037 -3.89136e-05)
(0.00456071 -0.0273452 -3.98025e-05)
(0.00464079 -0.0270265 -4.05016e-05)
(0.00469718 -0.0266481 -4.09941e-05)
(0.00472777 -0.0262103 -4.12614e-05)
(0.00473101 -0.0257141 -4.12901e-05)
(0.00470532 -0.0251607 -4.10664e-05)
(0.00190017 -0.0250389 -1.65824e-05)
(0.00209184 -0.0255967 -1.82551e-05)
(0.00228903 -0.0261051 -1.9976e-05)
(0.0024908 -0.0265639 -2.17368e-05)
(0.00269593 -0.0269722 -2.35269e-05)
(0.00290312 -0.0273292 -2.53351e-05)
(0.00311086 -0.0276337 -2.71481e-05)
(0.00331763 -0.0278847 -2.89527e-05)
(0.00352156 -0.0280807 -3.07324e-05)
(0.00372089 -0.0282208 -3.2472e-05)
(0.0039134 -0.0283035 -3.41521e-05)
(0.00409706 -0.0283279 -3.57551e-05)
(0.00426944 -0.028293 -3.72597e-05)
(0.00442835 -0.0281979 -3.86467e-05)
(0.00457121 -0.0280421 -3.98937e-05)
(0.0046958 -0.0278251 -4.09812e-05)
(0.00479955 -0.0275469 -4.18869e-05)
(0.00488035 -0.0272078 -4.25924e-05)
(0.00493587 -0.026808 -4.30773e-05)
(0.00496431 -0.0263486 -4.33258e-05)
(0.00496374 -0.0258304 -4.33213e-05)
(0.00493296 -0.025255 -4.30532e-05)
(4.99721e-06 -0.0035313 -4.362e-08)
(2.72215e-05 -0.00639147 -2.37582e-07)
(6.72985e-05 -0.00878841 -5.87367e-07)
(0.000120681 -0.0107938 -1.05329e-06)
(0.000187619 -0.012531 -1.63749e-06)
(0.000264908 -0.0140728 -2.31198e-06)
(0.000354691 -0.0154635 -3.09545e-06)
(0.000454997 -0.0167353 -3.97092e-06)
(0.000567252 -0.0179051 -4.95057e-06)
(0.000687502 -0.0189896 -5.99973e-06)
(0.00111771 -0.021823 -9.75404e-06)
(0.00128127 -0.0226451 -1.11814e-05)
(0.00145287 -0.0234122 -1.2679e-05)
(0.00163355 -0.0241264 -1.42557e-05)
(0.00182197 -0.0247888 -1.59e-05)
(0.0020179 -0.0254004 -1.76098e-05)
(0.00222033 -0.0259612 -1.93765e-05)
(0.00242858 -0.0264712 -2.11938e-05)
(0.0026413 -0.0269297 -2.30502e-05)
(0.00285747 -0.0273362 -2.49367e-05)
(0.00307547 -0.0276896 -2.68392e-05)
(0.00329391 -0.0279888 -2.87455e-05)
(0.00351092 -0.0282326 -3.06394e-05)
(0.00372475 -0.0284199 -3.25056e-05)
(0.00393325 -0.0285492 -3.43253e-05)
(0.00413438 -0.0286197 -3.60806e-05)
(0.00432567 -0.02863 -3.77502e-05)
(0.00450489 -0.0285795 -3.93145e-05)
(0.00466937 -0.0284672 -4.07502e-05)
(0.00481681 -0.0282929 -4.2037e-05)
(0.00494449 -0.0280561 -4.31515e-05)
(0.00505014 -0.0277571 -4.40739e-05)
(0.0051312 -0.0273961 -4.47817e-05)
(0.00518567 -0.0269739 -4.52574e-05)
(0.00521132 -0.0264915 -4.54816e-05)
(0.00520663 -0.0259502 -4.54411e-05)
(0.00516999 -0.0253516 -4.5122e-05)
(5.32759e-06 -0.00358204 -4.65038e-08)
(2.93696e-05 -0.0064881 -2.56327e-07)
(7.1708e-05 -0.00892401 -6.25834e-07)
(0.000128876 -0.0109627 -1.12477e-06)
(0.000199634 -0.0127283 -1.74227e-06)
(0.000282967 -0.0142963 -2.46947e-06)
(0.000379017 -0.0157101 -3.30771e-06)
(0.000486044 -0.0170025 -4.24182e-06)
(0.000605939 -0.0181914 -5.28813e-06)
(0.000733447 -0.0192938 -6.40082e-06)
(0.0008742 -0.0203186 -7.62906e-06)
(0.0010286 -0.0212743 -8.97637e-06)
(0.00118989 -0.0221665 -1.03839e-05)
(0.00136294 -0.0229994 -1.18941e-05)
(0.00154486 -0.0237759 -1.34817e-05)
(0.00173612 -0.0244979 -1.51508e-05)
(0.00193561 -0.0251667 -1.68917e-05)
(0.00214278 -0.0257829 -1.86996e-05)
(0.00235676 -0.0263468 -2.05669e-05)
(0.00257656 -0.0268581 -2.24852e-05)
(0.00280098 -0.0273163 -2.44437e-05)
(0.00302867 -0.0277205 -2.64307e-05)
(0.00325817 -0.0280699 -2.84335e-05)
(0.00348769 -0.0283631 -3.04366e-05)
(0.00371554 -0.0285992 -3.24251e-05)
(0.00393954 -0.0287767 -3.438e-05)
(0.00415772 -0.0288946 -3.62841e-05)
(0.00436757 -0.0289516 -3.81157e-05)
(0.00456686 -0.0289469 -3.9855e-05)
(0.00475284 -0.0288795 -4.14784e-05)
(0.00492313 -0.028749 -4.29647e-05)
(0.00507488 -0.0285547 -4.42893e-05)
(0.0052057 -0.0282969 -4.54312e-05)
(0.00531282 -0.0279756 -4.63663e-05)
(0.00539401 -0.0275916 -4.70753e-05)
(0.00544681 -0.0271456 -4.75365e-05)
(0.0054694 -0.026639 -4.7734e-05)
(0.00545981 -0.0260733 -4.76508e-05)
(0.00541691 -0.0254506 -4.72769e-05)
(5.84337e-06 -0.0036367 -5.10049e-08)
(3.14443e-05 -0.00659147 -2.7444e-07)
(7.7095e-05 -0.00906916 -6.72851e-07)
(0.000138025 -0.0111426 -1.2046e-06)
(0.000213592 -0.012939 -1.86406e-06)
(0.000302365 -0.0145329 -2.63875e-06)
(0.000404359 -0.0159715 -3.52884e-06)
(0.000518422 -0.0172851 -4.52426e-06)
(0.000645546 -0.0184943 -5.63375e-06)
(0.000781412 -0.0196146 -6.81944e-06)
(0.000930982 -0.0206559 -8.1246e-06)
(0.00109506 -0.0216265 -9.55631e-06)
(0.00126633 -0.0225318 -1.1051e-05)
(0.00145003 -0.0233762 -1.26541e-05)
(0.00164282 -0.0241624 -1.43365e-05)
(0.00184547 -0.0248924 -1.6105e-05)
(0.00205658 -0.0255676 -1.79473e-05)
(0.00227569 -0.0261885 -1.98595e-05)
(0.00250171 -0.0267553 -2.18319e-05)
(0.00273383 -0.0272677 -2.38576e-05)
(0.00297046 -0.027725 -2.59226e-05)
(0.0032104 -0.0281266 -2.80166e-05)
(0.00345181 -0.0284712 -3.01234e-05)
(0.00369309 -0.0287579 -3.22291e-05)
(0.00393209 -0.0289853 -3.43148e-05)
(0.00416682 -0.0291523 -3.63634e-05)
(0.00439485 -0.0292575 -3.83535e-05)
(0.00461387 -0.0293002 -4.02651e-05)
(0.00482114 -0.0292791 -4.20741e-05)
(0.00501419 -0.0291938 -4.37591e-05)
(0.00519007 -0.0290434 -4.52943e-05)
(0.00534626 -0.0288282 -4.66576e-05)
(0.00547982 -0.0285478 -4.78235e-05)
(0.00558833 -0.028203 -4.87708e-05)
(0.00566907 -0.0277944 -4.94758e-05)
(0.00571996 -0.0273233 -4.99203e-05)
(0.00573871 -0.0267912 -5.00844e-05)
(0.00572384 -0.0261999 -4.99551e-05)
(0.00567377 -0.0255516 -4.95187e-05)
(0.00558784 -0.0248489 -4.877e-05)
(6.23637e-06 -0.00369541 -5.44349e-08)
(3.38404e-05 -0.00670226 -2.95352e-07)
(8.27419e-05 -0.00922389 -7.2214e-07)
(0.000147936 -0.0113348 -1.29109e-06)
(0.000228363 -0.0131633 -1.99297e-06)
(0.000323049 -0.0147864 -2.81925e-06)
(0.000431471 -0.0162503 -3.76541e-06)
(0.000553088 -0.0175874 -4.82673e-06)
(0.000688564 -0.0188175 -6.00911e-06)
(0.000833033 -0.0199568 -7.26988e-06)
(0.000992231 -0.0210151 -8.6591e-06)
(0.00116609 -0.022001 -1.01762e-05)
(0.00134807 -0.0229199 -1.17643e-05)
(0.00154278 -0.0237761 -1.34635e-05)
(0.00174725 -0.0245724 -1.52479e-05)
(0.00196186 -0.0253108 -1.71208e-05)
(0.00218537 -0.0259926 -1.90713e-05)
(0.00241706 -0.0266181 -2.10931e-05)
(0.00265594 -0.0271877 -2.31778e-05)
(0.00290093 -0.0277009 -2.53158e-05)
(0.00315053 -0.0281571 -2.74941e-05)
(0.00340321 -0.0285554 -2.96991e-05)
(0.00365727 -0.0288948 -3.19163e-05)
(0.00391067 -0.0291741 -3.41279e-05)
(0.00416146 -0.029392 -3.63165e-05)
(0.00440717 -0.0295474 -3.84609e-05)
(0.00464556 -0.0296391 -4.05414e-05)
(0.00487382 -0.029666 -4.25337e-05)
(0.00508946 -0.0296275 -4.44157e-05)
(0.00528942 -0.0295226 -4.61611e-05)
(0.0054711 -0.0293513 -4.77469e-05)
(0.00563137 -0.0291133 -4.91458e-05)
(0.00576767 -0.0288091 -5.03356e-05)
(0.00587702 -0.0284391 -5.12903e-05)
(0.00595711 -0.0280047 -5.19896e-05)
(0.00600533 -0.027507 -5.24109e-05)
(0.0060199 -0.026948 -5.25385e-05)
(0.00599883 -0.0263297 -5.23551e-05)
(0.00594111 -0.0256548 -5.18519e-05)
(0.00584565 -0.0249258 -5.10195e-05)
(6.78681e-06 -0.00375864 -5.92397e-08)
(3.65108e-05 -0.00682095 -3.18664e-07)
(8.89248e-05 -0.00938987 -7.76089e-07)
(0.000158213 -0.0115405 -1.38078e-06)
(0.000244097 -0.0134037 -2.1303e-06)
(0.00034528 -0.0150569 -3.01327e-06)
(0.000460901 -0.0165483 -4.02223e-06)
(0.000590174 -0.0179095 -5.1504e-06)
(0.00073418 -0.0191619 -6.40717e-06)
(0.000888263 -0.020321 -7.7518e-06)
(0.0010574 -0.0213973 -9.22776e-06)
(0.00124201 -0.0223993 -1.08387e-05)
(0.00143523 -0.0233324 -1.25249e-05)
(0.00164179 -0.0242009 -1.43275e-05)
(0.00185852 -0.0250077 -1.62189e-05)
(0.00208592 -0.0257547 -1.82033e-05)
(0.00232248 -0.026443 -2.02678e-05)
(0.00256759 -0.0270733 -2.24068e-05)
(0.00281996 -0.0276455 -2.46091e-05)
(0.00307865 -0.0281592 -2.68667e-05)
(0.00334179 -0.0286138 -2.91631e-05)
(0.00360799 -0.0290084 -3.14862e-05)
(0.00387516 -0.0293418 -3.38178e-05)
(0.00414142 -0.0296129 -3.61415e-05)
(0.00440431 -0.0298203 -3.84358e-05)
(0.0046616 -0.0299631 -4.06812e-05)
(0.00491049 -0.0300399 -4.28535e-05)
(0.00514845 -0.03005 -4.49303e-05)
(0.00537237 -0.0299924 -4.68846e-05)
(0.00557954 -0.0298668 -4.8693e-05)
(0.00576671 -0.0296728 -5.03267e-05)
(0.00593115 -0.0294108 -5.1762e-05)
(0.00606967 -0.0290809 -5.29712e-05)
(0.00617973 -0.0286844 -5.39321e-05)
(0.00625843 -0.0282224 -5.46193e-05)
(0.00630367 -0.0276967 -5.50147e-05)
(0.00631312 -0.0271092 -5.50976e-05)
(0.00628538 -0.0264627 -5.4856e-05)
(0.00621895 -0.0257597 -5.42768e-05)
(0.00611338 -0.0250035 -5.33561e-05)
(0.00596822 -0.0241971 -5.20906e-05)
(7.27675e-06 -0.00382664 -6.35161e-08)
(3.9171e-05 -0.00694815 -3.41881e-07)
(9.53268e-05 -0.00956733 -8.31969e-07)
(0.000169626 -0.0117602 -1.48038e-06)
(0.000261491 -0.0136596 -2.28209e-06)
(0.000369286 -0.0153451 -3.22276e-06)
(0.000492447 -0.0168652 -4.29754e-06)
(0.000630155 -0.0182525 -5.4993e-06)
(0.000783412 -0.0195283 -6.83679e-06)
(0.000947393 -0.0207085 -8.26779e-06)
(0.00112727 -0.0218038 -9.83751e-06)
(0.00132311 -0.0228227 -1.15465e-05)
(0.0015284 -0.0237707 -1.33379e-05)
(0.00174745 -0.0246521 -1.52496e-05)
(0.00197732 -0.0254697 -1.72556e-05)
(0.00221817 -0.0262255 -1.93575e-05)
(0.00246866 -0.0269207 -2.15434e-05)
(0.00272787 -0.0275555 -2.38054e-05)
(0.0029946 -0.0281302 -2.61332e-05)
(0.00326761 -0.0286441 -2.85156e-05)
(0.00354514 -0.0290966 -3.09376e-05)
(0.0038254 -0.0294867 -3.33834e-05)
(0.00410646 -0.0298134 -3.58363e-05)
(0.00438597 -0.0300753 -3.82756e-05)
(0.00466166 -0.0302714 -4.06817e-05)
(0.00493075 -0.0304002 -4.30301e-05)
(0.00519071 -0.0304611 -4.52988e-05)
(0.00543836 -0.0304527 -4.74603e-05)
(0.00567095 -0.0303748 -4.94903e-05)
(0.00588509 -0.0302267 -5.13595e-05)
(0.00607792 -0.0300086 -5.30426e-05)
(0.00624605 -0.0297207 -5.45101e-05)
(0.00638674 -0.0293638 -5.57383e-05)
(0.00649679 -0.0289388 -5.66992e-05)
(0.00657384 -0.0284478 -5.73721e-05)
(0.00661518 -0.0278923 -5.77333e-05)
(0.00661907 -0.027275 -5.77678e-05)
(0.00658357 -0.0265986 -5.74585e-05)
(0.00650785 -0.0258664 -5.67982e-05)
(0.00639098 -0.0250815 -5.57789e-05)
(0.00623324 -0.0242478 -5.44031e-05)
(7.95161e-06 -0.00389983 -6.9408e-08)
(4.21435e-05 -0.00708461 -3.67824e-07)
(0.000102066 -0.00975734 -8.90789e-07)
(0.000181729 -0.0119951 -1.58601e-06)
(0.0002799 -0.0139335 -2.44272e-06)
(0.000394863 -0.0156532 -3.44596e-06)
(0.000526107 -0.0172039 -4.59129e-06)
(0.00067288 -0.0186185 -5.87215e-06)
(0.000835934 -0.019919 -7.29513e-06)
(0.00101065 -0.0211214 -8.81979e-06)
(0.0012019 -0.0222367 -1.04888e-05)
(0.00140985 -0.0232732 -1.23033e-05)
(0.00162787 -0.0242367 -1.4206e-05)
(0.00186032 -0.0251315 -1.62346e-05)
(0.00210405 -0.0259603 -1.83615e-05)
(0.00235928 -0.0267252 -2.05888e-05)
(0.00262442 -0.0274271 -2.29027e-05)
(0.00289866 -0.0280665 -2.52959e-05)
(0.00318046 -0.0286433 -2.77551e-05)
(0.00346873 -0.0291571 -3.02707e-05)
(0.00376127 -0.029607 -3.28237e-05)
(0.00405648 -0.029992 -3.54e-05)
(0.00435193 -0.030311 -3.79784e-05)
(0.00464547 -0.0305629 -4.05401e-05)
(0.00493427 -0.0307462 -4.30606e-05)
(0.00521581 -0.0308601 -4.55177e-05)
(0.00548691 -0.0309033 -4.78838e-05)
(0.00574474 -0.0308752 -5.0134e-05)
(0.00598583 -0.0307752 -5.22382e-05)
(0.0062072 -0.0306031 -5.41705e-05)
(0.00640527 -0.030359 -5.58994e-05)
(0.00657712 -0.0300436 -5.73994e-05)
(0.00671929 -0.0296576 -5.86406e-05)
(0.00682915 -0.0292027 -5.95997e-05)
(0.00690363 -0.0286806 -6.02502e-05)
(0.00694066 -0.0280939 -6.05739e-05)
(0.00693788 -0.027445 -6.05502e-05)
(0.00689405 -0.0267375 -6.01683e-05)
(0.00680779 -0.0259744 -5.9416e-05)
(0.00667895 -0.0251598 -5.82923e-05)
(0.00650733 -0.0242974 -5.67953e-05)
(8.53744e-06 -0.00397864 -7.45214e-08)
(4.52123e-05 -0.00723114 -3.94606e-07)
(0.000109448 -0.00996057 -9.55223e-07)
(0.00019487 -0.0122461 -1.70069e-06)
(0.000299914 -0.0142255 -2.61739e-06)
(0.000422611 -0.0159816 -3.68811e-06)
(0.000562537 -0.0175646 -4.90918e-06)
(0.000718918 -0.0190083 -6.2739e-06)
(0.000892413 -0.020335 -7.78803e-06)
(0.0010785 -0.0215609 -9.41195e-06)
(0.00128188 -0.0226972 -1.11867e-05)
(0.00150266 -0.0237523 -1.31133e-05)
(0.00173435 -0.0247321 -1.51352e-05)
(0.00198097 -0.0256407 -1.72874e-05)
(0.0022395 -0.0264813 -1.95435e-05)
(0.00250989 -0.0272554 -2.19031e-05)
(0.00279067 -0.0279643 -2.43534e-05)
(0.00308071 -0.028608 -2.68845e-05)
(0.00337856 -0.0291868 -2.94838e-05)
(0.00368275 -0.0296999 -3.21384e-05)
(0.00399126 -0.0301466 -3.48307e-05)
(0.00430198 -0.0305256 -3.75424e-05)
(0.00461269 -0.0308362 -4.0254e-05)
(0.00492066 -0.0310767 -4.29417e-05)
(0.00522333 -0.0312462 -4.55831e-05)
(0.0055175 -0.0313435 -4.81505e-05)
(0.00580033 -0.0313678 -5.06189e-05)
(0.00606825 -0.0313181 -5.29573e-05)
(0.00631821 -0.0311944 -5.51389e-05)
(0.00654647 -0.0309964 -5.71313e-05)
(0.00674991 -0.0307246 -5.89071e-05)
(0.00692485 -0.0303795 -6.04341e-05)
(0.00706839 -0.0299628 -6.16872e-05)
(0.00717714 -0.0294759 -6.26368e-05)
(0.0072487 -0.0289212 -6.32618e-05)
(0.00728029 -0.0283013 -6.35381e-05)
(0.00727029 -0.0276194 -6.34514e-05)
(0.00721684 -0.0268789 -6.29855e-05)
(0.00711937 -0.0260838 -6.21354e-05)
(0.00697718 -0.025238 -6.08951e-05)
(0.00679093 -0.024346 -5.92706e-05)
(9.24043e-06 -0.00406343 -8.06567e-08)
(4.88956e-05 -0.00738815 -4.2676e-07)
(0.00011768 -0.0101784 -1.02705e-06)
(0.000208609 -0.0125147 -1.82058e-06)
(0.000320832 -0.014538 -2.79994e-06)
(0.000452017 -0.0163326 -3.94473e-06)
(0.000601249 -0.01795 -5.24701e-06)
(0.000768026 -0.0194242 -6.70247e-06)
(0.000952747 -0.0207784 -8.31456e-06)
(0.00115122 -0.0220289 -1.00466e-05)
(0.00136757 -0.0231874 -1.19345e-05)
(0.00160206 -0.0242622 -1.39807e-05)
(0.00184818 -0.0252588 -1.61286e-05)
(0.00210995 -0.026182 -1.84129e-05)
(0.00238411 -0.0270345 -2.08054e-05)
(0.00267072 -0.0278182 -2.33066e-05)
(0.00296798 -0.0285338 -2.59007e-05)
(0.00327489 -0.029182 -2.8579e-05)
(0.00358959 -0.0297622 -3.13253e-05)
(0.00391079 -0.0302742 -3.41283e-05)
(0.00423594 -0.0307168 -3.69659e-05)
(0.00456315 -0.0310892 -3.98215e-05)
(0.00488962 -0.03139 -4.26706e-05)
(0.00521288 -0.0316182 -4.54918e-05)
(0.00552969 -0.0317724 -4.82567e-05)
(0.00583718 -0.0318517 -5.09403e-05)
(0.00613176 -0.0318552 -5.35112e-05)
(0.00641026 -0.0317825 -5.59419e-05)
(0.00666882 -0.031633 -5.81986e-05)
(0.00690418 -0.0314073 -6.02531e-05)
(0.00711241 -0.0311055 -6.20707e-05)
(0.0072904 -0.0307292 -6.36243e-05)
(0.00743444 -0.0302795 -6.48818e-05)
(0.0075418 -0.0297588 -6.58193e-05)
(0.0076093 -0.0291693 -6.64089e-05)
(0.00763495 -0.0285145 -6.66333e-05)
(0.00761639 -0.0277976 -6.6472e-05)
(0.00755264 -0.0270228 -6.59163e-05)
(0.00744249 -0.0261939 -6.49556e-05)
(0.00728617 -0.0253158 -6.3592e-05)
(0.00708381 -0.0243928 -6.18269e-05)
(9.94088e-06 -0.00415489 -8.67707e-08)
(5.24827e-05 -0.00755677 -4.58063e-07)
(0.000126287 -0.0104119 -1.10216e-06)
(0.000223784 -0.0128021 -1.95301e-06)
(0.000343808 -0.0148719 -3.00046e-06)
(0.000483957 -0.0167071 -4.22348e-06)
(0.000643217 -0.018361 -5.61328e-06)
(0.000821195 -0.0198674 -7.1665e-06)
(0.00101762 -0.0212523 -8.8807e-06)
(0.00122884 -0.0225293 -1.07238e-05)
(0.00145878 -0.0237093 -1.27304e-05)
(0.00170835 -0.0248048 -1.49083e-05)
(0.00197019 -0.0258191 -1.71933e-05)
(0.0022479 -0.0267573 -1.96168e-05)
(0.00253882 -0.0276223 -2.21555e-05)
(0.00284257 -0.0284155 -2.48063e-05)
(0.00315743 -0.0291381 -2.75539e-05)
(0.00348208 -0.0297902 -3.0387e-05)
(0.00381473 -0.0303717 -3.329e-05)
(0.00415365 -0.0308818 -3.62477e-05)
(0.00449651 -0.0313198 -3.92398e-05)
(0.00484081 -0.0316843 -4.22445e-05)
(0.00518402 -0.0319745 -4.52397e-05)
(0.00552297 -0.0321887 -4.81978e-05)
(0.00585474 -0.0323262 -5.10932e-05)
(0.00617568 -0.0323858 -5.38942e-05)
(0.0064826 -0.0323669 -5.65729e-05)
(0.0067715 -0.0322688 -5.90944e-05)
(0.00703901 -0.0320919 -6.14292e-05)
(0.00728098 -0.0318361 -6.35414e-05)
(0.00749408 -0.0315027 -6.54015e-05)
(0.00767429 -0.0310925 -6.69746e-05)
(0.00781861 -0.030608 -6.82346e-05)
(0.00792346 -0.030051 -6.91501e-05)
(0.00798645 -0.0294251 -6.97004e-05)
(0.00800477 -0.0287333 -6.9861e-05)
(0.007977 -0.0279798 -6.96192e-05)
(0.00790141 -0.0271686 -6.89602e-05)
(0.00777779 -0.0263048 -6.7882e-05)
(0.00760575 -0.0253928 -6.63813e-05)
(0.00738642 -0.0244379 -6.44681e-05)
(1.08144e-05 -0.00425322 -9.43952e-08)
(5.67408e-05 -0.00773758 -4.95236e-07)
(0.000135859 -0.0106618 -1.18571e-06)
(0.000240232 -0.0131096 -2.09656e-06)
(0.00036839 -0.0152289 -3.21495e-06)
(0.000517928 -0.0171075 -4.51994e-06)
(0.000688249 -0.0188 -6.00627e-06)
(0.000876662 -0.0203408 -7.65042e-06)
(0.00108529 -0.0217565 -9.47103e-06)
(0.00131517 -0.0230609 -1.14771e-05)
(0.00155986 -0.0242654 -1.36125e-05)
(0.0018225 -0.0253822 -1.59044e-05)
(0.00210105 -0.0264151 -1.83352e-05)
(0.00239564 -0.027369 -2.0906e-05)
(0.00270421 -0.0282466 -2.35987e-05)
(0.00302632 -0.0290497 -2.64097e-05)
(0.00335971 -0.0297791 -2.93191e-05)
(0.00370331 -0.0304351 -3.23176e-05)
(0.0040548 -0.0310172 -3.5385e-05)
(0.00441267 -0.031525 -3.8508e-05)
(0.00477396 -0.0319572 -4.1661e-05)
(0.00513646 -0.032313 -4.48244e-05)
(0.00549691 -0.0325909 -4.79702e-05)
(0.00585248 -0.03279 -5.10733e-05)
(0.00619945 -0.0329089 -5.41014e-05)
(0.00653457 -0.0329471 -5.70261e-05)
(0.00685376 -0.0329036 -5.9812e-05)
(0.00715353 -0.0327785 -6.24283e-05)
(0.00742956 -0.0325716 -6.48376e-05)
(0.00767832 -0.0322838 -6.7009e-05)
(0.00789551 -0.031916 -6.89049e-05)
(0.00807784 -0.0314701 -7.04964e-05)
(0.00822133 -0.0309481 -7.17492e-05)
(0.00832326 -0.0303531 -7.26393e-05)
(0.00838034 -0.0296882 -7.31381e-05)
(0.00839071 -0.0289576 -7.32293e-05)
(0.00835213 -0.0281653 -7.28932e-05)
(0.0082639 -0.0273165 -7.21239e-05)
(0.00812511 -0.0264157 -7.09134e-05)
(0.00793645 -0.0254687 -6.92677e-05)
(0.00769846 -0.0244805 -6.71916e-05)
(1.16673e-05 -0.00435945 -1.01841e-07)
(6.09475e-05 -0.00793195 -5.31943e-07)
(0.000145921 -0.0109301 -1.27352e-06)
(0.000257772 -0.0134389 -2.24962e-06)
(0.000394919 -0.0156111 -3.44647e-06)
(0.000554715 -0.0175354 -4.84098e-06)
(0.00073662 -0.0192688 -6.4284e-06)
(0.000937933 -0.0208458 -8.18515e-06)
(0.00116008 -0.0222931 -1.01236e-05)
(0.00140471 -0.0236258 -1.22584e-05)
(0.00166497 -0.0248578 -1.45297e-05)
(0.00194456 -0.0259968 -1.69696e-05)
(0.00224092 -0.0270493 -1.95558e-05)
(0.00255383 -0.0280194 -2.22864e-05)
(0.00288137 -0.0289103 -2.51447e-05)
(0.00322287 -0.0297232 -2.81249e-05)
(0.0035761 -0.0304595 -3.12074e-05)
(0.00393963 -0.0311188 -3.43798e-05)
(0.00431122 -0.0317011 -3.76226e-05)
(0.00468882 -0.0322055 -4.09178e-05)
(0.00506974 -0.0326312 -4.4242e-05)
(0.00545105 -0.0329768 -4.75697e-05)
(0.00582982 -0.0332413 -5.08753e-05)
(0.00620239 -0.0334233 -5.41268e-05)
(0.00656543 -0.0335221 -5.72952e-05)
(0.00691478 -0.0335366 -6.03441e-05)
(0.00724686 -0.0334667 -6.32425e-05)
(0.00755719 -0.0333119 -6.5951e-05)
(0.00784206 -0.033073 -6.84374e-05)
(0.00809691 -0.0327505 -7.06621e-05)
(0.00831818 -0.0323462 -7.25936e-05)
(0.00850155 -0.0318618 -7.41941e-05)
(0.0086439 -0.0313003 -7.54371e-05)
(0.00874151 -0.0306646 -7.62895e-05)
(0.00879209 -0.0299588 -7.67316e-05)
(0.00879285 -0.029187 -7.67389e-05)
(0.00874265 -0.0283543 -7.63015e-05)
(0.00863998 -0.0274656 -7.54063e-05)
(0.00848509 -0.0265267 -7.40553e-05)
(0.00827799 -0.0255429 -7.22486e-05)
(0.00802039 -0.0245204 -7.00014e-05)
(1.27352e-05 -0.00447358 -1.11157e-07)
(6.57273e-05 -0.00814024 -5.73664e-07)
(0.000156979 -0.0112171 -1.37e-06)
(0.000277136 -0.013791 -2.41862e-06)
(0.000423422 -0.0160193 -3.69523e-06)
(0.000594619 -0.0179925 -5.18922e-06)
(0.000788406 -0.0197694 -6.88027e-06)
(0.00100337 -0.0213852 -8.75619e-06)
(0.00123996 -0.0228671 -1.08208e-05)
(0.00150123 -0.0242305 -1.31007e-05)
(0.00177825 -0.0254896 -1.55182e-05)
(0.0020758 -0.026652 -1.81148e-05)
(0.00239084 -0.0277246 -2.0864e-05)
(0.00272337 -0.0287115 -2.37659e-05)
(0.003071 -0.0296157 -2.67995e-05)
(0.00343327 -0.0304387 -2.99609e-05)
(0.00380743 -0.0311814 -3.32261e-05)
(0.00419227 -0.0318439 -3.65844e-05)
(0.00458496 -0.0324256 -4.00113e-05)
(0.00498367 -0.032926 -4.34908e-05)
(0.00538502 -0.0333437 -4.69933e-05)
(0.00578635 -0.033678 -5.04957e-05)
(0.00618394 -0.0339272 -5.39656e-05)
(0.00657452 -0.0340906 -5.73743e-05)
(0.00695381 -0.034167 -6.06845e-05)
(0.00731814 -0.034156 -6.38641e-05)
(0.00766291 -0.034057 -6.68732e-05)
(0.00798423 -0.0338705 -6.96777e-05)
(0.00827734 -0.0335967 -7.2236e-05)
(0.00853839 -0.0332372 -7.45149e-05)
(0.00876273 -0.0327935 -7.64731e-05)
(0.0089469 -0.0322683 -7.80808e-05)
(0.00908672 -0.0316643 -7.93017e-05)
(0.00917948 -0.0309857 -8.01118e-05)
(0.00922185 -0.0302363 -8.04823e-05)
(0.00921222 -0.0294214 -8.0399e-05)
(0.0091485 -0.0285459 -7.98436e-05)
(0.00903044 -0.0276159 -7.88141e-05)
(0.00885748 -0.0266368 -7.73054e-05)
(0.00863091 -0.0256153 -7.53289e-05)
(0.00835177 -0.0245569 -7.28938e-05)
(1.37919e-05 -0.00459718 -1.20375e-07)
(7.03836e-05 -0.00836512 -6.14272e-07)
(0.000168039 -0.0115248 -1.46653e-06)
(0.00029688 -0.0141691 -2.59089e-06)
(0.000453638 -0.016458 -3.95887e-06)
(0.000636356 -0.0184822 -5.5534e-06)
(0.000843748 -0.0203056 -7.36326e-06)
(0.00107335 -0.0219615 -9.36686e-06)
(0.00132615 -0.02348 -1.15729e-05)
(0.00160447 -0.0248753 -1.40016e-05)
(0.00189979 -0.0261629 -1.65788e-05)
(0.00221693 -0.0273498 -1.93464e-05)
(0.00255213 -0.0284435 -2.22715e-05)
(0.00290539 -0.0294477 -2.53542e-05)
(0.0032745 -0.0303658 -2.85753e-05)
(0.0036587 -0.0311988 -3.19281e-05)
(0.00405524 -0.0319479 -3.53885e-05)
(0.00446248 -0.0326128 -3.89424e-05)
(0.00487767 -0.0331934 -4.25656e-05)
(0.00529836 -0.0336885 -4.62369e-05)
(0.00572145 -0.0340973 -4.99291e-05)
(0.00614347 -0.0344184 -5.36121e-05)
(0.00656106 -0.0346509 -5.72565e-05)
(0.00696998 -0.0347934 -6.08253e-05)
(0.00736644 -0.0348455 -6.42854e-05)
(0.0077457 -0.0348062 -6.75954e-05)
(0.00810377 -0.034676 -7.07205e-05)
(0.00843561 -0.0344547 -7.36168e-05)
(0.0087372 -0.0341437 -7.62492e-05)
(0.00900351 -0.033744 -7.8574e-05)
(0.0092308 -0.0332584 -8.0558e-05)
(0.00941441 -0.0326893 -8.21609e-05)
(0.00955124 -0.0320406 -8.33556e-05)
(0.00963741 -0.031316 -8.41083e-05)
(0.00967083 -0.030521 -8.44007e-05)
(0.00964881 -0.0296603 -8.42094e-05)
(0.00957061 -0.0287402 -8.35277e-05)
(0.00943505 -0.0277665 -8.23454e-05)
(0.00924295 -0.026746 -8.06698e-05)
(0.00899481 -0.0256848 -7.8505e-05)
(0.00869308 -0.0245898 -7.58728e-05)
(1.47681e-05 -0.00472998 -1.2891e-07)
(7.70771e-05 -0.00860599 -6.72686e-07)
(0.000182066 -0.0118541 -1.58891e-06)
(0.000315148 -0.0145719 -2.75038e-06)
(0.000487865 -0.0169241 -4.25741e-06)
(0.000684034 -0.019005 -5.96929e-06)
(0.000905111 -0.0208771 -7.89873e-06)
(0.00115 -0.0225767 -1.00359e-05)
(0.00141923 -0.0241339 -1.23851e-05)
(0.00171648 -0.0255634 -1.49791e-05)
(0.00203074 -0.0268808 -1.77215e-05)
(0.00236845 -0.0280935 -2.06686e-05)
(0.0027249 -0.0292093 -2.37792e-05)
(0.00310062 -0.0302315 -2.70579e-05)
(0.0034926 -0.0311635 -3.04785e-05)
(0.00390035 -0.0320067 -3.40368e-05)
(0.00432054 -0.0327618 -3.77036e-05)
(0.00475172 -0.0334288 -4.14664e-05)
(0.00519054 -0.034007 -4.52959e-05)
(0.00563476 -0.0344959 -4.91724e-05)
(0.00608045 -0.034894 -5.30619e-05)
(0.00652449 -0.0352005 -5.69371e-05)
(0.00696257 -0.035414 -6.07603e-05)
(0.00739092 -0.0355338 -6.44986e-05)
(0.00780464 -0.0355588 -6.81093e-05)
(0.00819959 -0.0354891 -7.15563e-05)
(0.00857058 -0.0353244 -7.47942e-05)
(0.00891333 -0.0350659 -7.77858e-05)
(0.00922255 -0.0347142 -8.04848e-05)
(0.00949415 -0.0342719 -8.28557e-05)
(0.00972305 -0.0337409 -8.48539e-05)
(0.00990574 -0.0331253 -8.64487e-05)
(0.0100378 -0.0324285 -8.76021e-05)
(0.0101167 -0.0316558 -8.82913e-05)
(0.0101391 -0.030812 -8.84875e-05)
(0.0101037 -0.0299035 -8.81798e-05)
(0.0100088 -0.0289362 -8.73522e-05)
(0.00985464 -0.0279174 -8.60075e-05)
(0.00964111 -0.0268533 -8.41448e-05)
(0.00937026 -0.0257514 -8.1782e-05)
(0.00904374 -0.0246182 -7.89335e-05)
(1.60255e-05 -0.00487391 -1.3987e-07)
(8.36433e-05 -0.0088641 -7.29951e-07)
(0.000196259 -0.0122118 -1.71274e-06)
(0.000336002 -0.0150101 -2.93231e-06)
(0.000517625 -0.0174248 -4.51715e-06)
(0.000729197 -0.0195669 -6.36337e-06)
(0.000968097 -0.0214918 -8.44832e-06)
(0.00123006 -0.0232365 -1.07345e-05)
(0.00151831 -0.0248331 -1.32497e-05)
(0.00183581 -0.0262983 -1.60203e-05)
(0.00217134 -0.0276472 -1.89484e-05)
(0.00253141 -0.0288867 -2.20906e-05)
(0.0029109 -0.0300254 -2.54022e-05)
(0.00331049 -0.031066 -2.88892e-05)
(0.00372695 -0.0320124 -3.25235e-05)
(0.00415963 -0.0328655 -3.62993e-05)
(0.00460512 -0.0336264 -4.01869e-05)
(0.00506152 -0.0342945 -4.41698e-05)
(0.00552555 -0.0348697 -4.82192e-05)
(0.00599423 -0.0353507 -5.23094e-05)
(0.00646398 -0.0357368 -5.64088e-05)
(0.00693073 -0.0360265 -6.04822e-05)
(0.00739057 -0.0362191 -6.44953e-05)
(0.00783862 -0.0363133 -6.84055e-05)
(0.00827056 -0.036309 -7.21752e-05)
(0.008681 -0.0362055 -7.57574e-05)
(0.0090655 -0.0360039 -7.91133e-05)
(0.00941844 -0.0357045 -8.21938e-05)
(0.00973546 -0.0353095 -8.49609e-05)
(0.0100111 -0.0348207 -8.73669e-05)
(0.0102414 -0.0342418 -8.93772e-05)
(0.0104214 -0.033576 -9.09488e-05)
(0.0105481 -0.0328286 -9.20552e-05)
(0.0106175 -0.0320042 -9.26623e-05)
(0.010628 -0.0311094 -9.27542e-05)
(0.0105769 -0.0301502 -9.23093e-05)
(0.0104641 -0.029134 -9.13258e-05)
(0.0102888 -0.0280674 -8.97971e-05)
(0.0100527 -0.0269584 -8.77368e-05)
(0.00975669 -0.025814 -8.51548e-05)
(0.00940422 -0.0246418 -8.20799e-05)
(1.81769e-05 -0.00502896 -1.58638e-07)
(8.77698e-05 -0.00914338 -7.66001e-07)
(0.00020328 -0.0125936 -1.77414e-06)
(0.000368214 -0.0154764 -3.21339e-06)
(0.000565063 -0.0179631 -4.93104e-06)
(0.000778098 -0.0201678 -6.79032e-06)
(0.00104038 -0.0221477 -9.07917e-06)
(0.00132271 -0.023941 -1.15428e-05)
(0.00162906 -0.0255805 -1.42162e-05)
(0.00196569 -0.0270836 -1.71538e-05)
(0.00232332 -0.0284653 -2.02746e-05)
(0.00270687 -0.0297331 -2.36216e-05)
(0.00311065 -0.0308953 -2.71453e-05)
(0.00353602 -0.0319551 -3.08572e-05)
(0.00397854 -0.0329158 -3.47189e-05)
(0.00443798 -0.0337788 -3.87283e-05)
(0.00491024 -0.0345447 -4.28495e-05)
(0.00539363 -0.0352134 -4.70679e-05)
(0.00588412 -0.035784 -5.13483e-05)
(0.00637903 -0.0362561 -5.56672e-05)
(0.00687376 -0.036628 -5.99847e-05)
(0.00736467 -0.0368991 -6.42689e-05)
(0.00784673 -0.0370679 -6.84759e-05)
(0.0083156 -0.0371343 -7.25679e-05)
(0.00876571 -0.0370973 -7.64962e-05)
(0.00919239 -0.0369576 -8.02201e-05)
(0.0095898 -0.0367152 -8.36887e-05)
(0.00995326 -0.0363721 -8.6861e-05)
(0.0102769 -0.0359298 -8.96861e-05)
(0.0105564 -0.0353916 -9.21262e-05)
(0.0107864 -0.0347606 -9.41335e-05)
(0.0109632 -0.0340419 -9.56771e-05)
(0.0110823 -0.03324 -9.67177e-05)
(0.0111415 -0.0323615 -9.72347e-05)
(0.0111374 -0.0314124 -9.72005e-05)
(0.0110695 -0.0304003 -9.66083e-05)
(0.0109361 -0.0293322 -9.54457e-05)
(0.0107385 -0.0282165 -9.37218e-05)
(0.010477 -0.0270604 -9.14408e-05)
(0.0101547 -0.0258724 -8.86285e-05)
(0.0097738 -0.0246596 -8.53056e-05)
(1.9639e-05 -0.00519669 -1.71391e-07)
(9.57172e-05 -0.00944519 -8.35336e-07)
(0.000220663 -0.0130028 -1.9258e-06)
(0.000393759 -0.0159736 -3.43628e-06)
(0.000601241 -0.0185415 -5.2468e-06)
(0.000832299 -0.0208102 -7.26327e-06)
(0.00111472 -0.0228481 -9.72775e-06)
(0.00141697 -0.0246932 -1.23653e-05)
(0.00174486 -0.0263795 -1.52267e-05)
(0.00210491 -0.0279223 -1.83686e-05)
(0.00248691 -0.0293388 -2.17021e-05)
(0.0028962 -0.0306361 -2.52738e-05)
(0.00332633 -0.0318229 -2.90273e-05)
(0.00377899 -0.0329021 -3.29774e-05)
(0.00424942 -0.0338776 -3.70827e-05)
(0.00473717 -0.0347501 -4.1339e-05)
(0.00523806 -0.0355207 -4.57101e-05)
(0.00574985 -0.0361886 -5.01763e-05)
(0.00626858 -0.0367538 -5.47031e-05)
(0.00679073 -0.0372147 -5.92598e-05)
(0.00731206 -0.0375708 -6.38095e-05)
(0.00782781 -0.0378205 -6.83104e-05)
(0.00833345 -0.0379635 -7.27232e-05)
(0.00882333 -0.0379985 -7.69987e-05)
(0.0092926 -0.0379262 -8.10942e-05)
(0.00973512 -0.0377461 -8.49564e-05)
(0.010146 -0.03746 -8.85424e-05)
(0.0105189 -0.037069 -9.17974e-05)
(0.0108492 -0.0365762 -9.46807e-05)
(0.011131 -0.0359843 -9.71405e-05)
(0.0113602 -0.0352983 -9.91411e-05)
(0.0115316 -0.0345224 -0.000100638)
(0.0116423 -0.0336633 -0.000101605)
(0.0116885 -0.0327268 -0.000102009)
(0.0116689 -0.0317209 -0.000101839)
(0.0115812 -0.0306527 -0.000101074)
(0.011426 -0.0295309 -9.9721e-05)
(0.0112031 -0.0283633 -9.77767e-05)
(0.010915 -0.0271588 -9.52632e-05)
(0.0105635 -0.0259254 -9.21965e-05)
(0.0101529 -0.0246713 -8.86147e-05)
(2.1473e-05 -0.00537796 -1.87392e-07)
(0.000103016 -0.00976907 -8.99032e-07)
(0.00023759 -0.0134453 -2.07351e-06)
(0.000424344 -0.0165132 -3.70319e-06)
(0.000647962 -0.0191632 -5.65445e-06)
(0.000895507 -0.0215014 -7.81482e-06)
(0.00119682 -0.0236016 -1.04443e-05)
(0.00152113 -0.0255012 -1.32743e-05)
(0.00187108 -0.0272354 -1.63281e-05)
(0.0022559 -0.02882 -1.96862e-05)
(0.00266339 -0.0302727 -2.32421e-05)
(0.0031 -0.0316007 -2.70522e-05)
(0.00355825 -0.0328128 -3.1051e-05)
(0.00404037 -0.0339121 -3.52583e-05)
(0.0045406 -0.0349022 -3.96235e-05)
(0.00505882 -0.035784 -4.41458e-05)
(0.00559004 -0.0365582 -4.87815e-05)
(0.00613226 -0.0372245 -5.35133e-05)