/*--------------------------------*- C++ -*----------------------------------*\
| =========                 |                                                 |
| \\      /  F ield         | OpenFOAM: The Open Source CFD Toolbox           |
|  \\    /   O peration     | Version:  v2012                                 |
|   \\  /    A nd           | Website:  www.openfoam.com                      |
|    \\/     M anipulation  |                                                 |
\*---------------------------------------------------------------------------*/
FoamFile
{
    version     2.0;
    format      ascii;
    class       volScalarField;
    location    "0.45";
    object      alpha.water;
}
// * * * * * * * * * * * * * * * * * * * * * * * * * * * * * * * * * * * * * //

dimensions      [0 0 0 0 0 0 0];


internalField   nonuniform List<scalar> 
3352
(
-2.34657e-206
-2.02242e-196
-3.18619e-188
-2.60209e-159
-5.3444e-153
-5.47212e-144
-2.68964e-138
-1.50889e-129
-3.2339e-124
-3.50363e-119
-2.00948e-115
-5.29807e-111
-2.35569e-106
-5.24703e-102
-3.6396e-98
-1.87519e-95
-5.37226e-90
-1.22405e-86
-5.17695e-84
-1.02118e-82
-5.71067e-82
-1.57808e-81
-2.62138e-81
-2.91896e-81
-1.5904e-80
-5.32034e-79
-3.70128e-77
-3.83481e-76
-1.42936e-75
-2.81948e-75
-6.84437e-75
-5.99728e-74
-1.24063e-73
-1.17753e-73
-6.39651e-74
-2.20388e-74
-5.11251e-75
-8.29558e-76
-9.65927e-77
-1.80796e-203
-5.82412e-194
-3.69816e-186
-1.77833e-157
-3.39049e-151
-2.56193e-142
-1.04808e-136
-7.55061e-128
-1.51002e-122
-1.39345e-117
-6.87953e-114
-1.58323e-109
-6.07359e-105
-1.14066e-100
-7.32594e-97
-3.4908e-94
-9.12357e-89
-1.96369e-85
-7.91384e-83
-1.49176e-81
-8.01025e-81
-2.13546e-80
-3.43553e-80
-3.70423e-80
-1.6132e-79
-5.10972e-78
-3.55689e-76
-3.63652e-75
-1.33485e-74
-2.59574e-74
-6.48133e-74
-5.85312e-73
-1.21131e-72
-1.15007e-72
-6.26043e-73
-2.16591e-73
-5.05559e-74
-8.27114e-75
-9.7306e-76
-1.25553e-200
-1.56628e-191
-3.99805e-184
-1.12973e-155
-2.17572e-149
-1.09218e-140
-3.8686e-135
-3.65997e-126
-6.97239e-121
-5.48035e-116
-2.33737e-112
-4.72158e-108
-1.5632e-103
-2.4576e-99
-1.46213e-95
-6.44514e-93
-1.52888e-87
-3.10834e-84
-1.19362e-81
-2.15025e-80
-1.10889e-79
-2.85252e-79
-4.44558e-79
-4.64593e-79
-1.62602e-78
-4.8366e-77
-3.36906e-75
-3.39964e-74
-1.22922e-73
-2.35706e-73
-6.06496e-73
-5.64283e-72
-1.16845e-71
-1.11e-71
-6.05639e-72
-2.10448e-72
-4.94387e-73
-8.15733e-74
-9.69852e-75
-6.72384e-198
-3.71398e-189
-4.00926e-182
-6.71485e-154
-1.41583e-147
-4.19753e-139
-1.34879e-133
-1.72237e-124
-3.18347e-119
-2.13116e-114
-7.8803e-111
-1.40416e-106
-4.01572e-102
-5.25015e-98
-2.89444e-94
-1.18058e-91
-2.52742e-86
-4.8536e-83
-1.77584e-80
-3.05754e-79
-1.51468e-78
-3.76053e-78
-5.67863e-78
-5.75699e-78
-1.63082e-77
-4.51095e-76
-3.14449e-74
-3.13234e-73
-1.11589e-72
-2.11051e-72
-5.6068e-72
-5.37265e-71
-1.11334e-70
-1.05849e-70
-5.79021e-71
-2.02128e-71
-4.78018e-72
-7.95637e-73
-9.5622e-74
-2.07915e-195
-7.24284e-187
-3.70806e-180
-3.71169e-152
-9.22357e-146
-1.43743e-137
-4.42741e-132
-7.88681e-123
-1.43699e-117
-8.1927e-113
-2.63595e-109
-4.16063e-105
-1.0293e-100
-1.1127e-96
-5.68538e-93
-2.14615e-90
-4.12097e-85
-7.47472e-82
-2.60567e-79
-4.28804e-78
-2.04103e-77
-4.89175e-77
-7.15899e-77
-7.04565e-77
-1.62992e-76
-4.14466e-75
-2.89116e-73
-2.84364e-72
-9.98359e-72
-1.86293e-71
-5.1193e-71
-5.05087e-70
-1.04765e-69
-9.9708e-70
-5.46971e-70
-1.91868e-70
-4.56899e-71
-7.6733e-72
-9.32418e-73
-1.14018e-193
-1.06468e-184
-3.1465e-178
-1.84156e-150
-5.87513e-144
-4.33368e-136
-1.36399e-130
-3.52218e-121
-6.41234e-116
-3.11308e-111
-8.74682e-108
-1.22719e-103
-2.63087e-99
-2.34078e-95
-1.10842e-91
-3.87276e-89
-6.62571e-84
-1.13505e-80
-3.76964e-78
-5.92982e-77
-2.71253e-76
-6.27731e-76
-8.90539e-76
-8.51349e-76
-1.6257e-75
-3.75066e-74
-2.61785e-72
-2.54287e-71
-8.80045e-71
-1.62062e-70
-4.61517e-70
-4.68735e-69
-9.73394e-69
-9.27614e-69
-5.10431e-69
-1.79965e-69
-4.31627e-70
-7.31581e-71
-8.9903e-72
-1.63514e-191
-1.05092e-182
-2.43436e-176
-7.55788e-149
-3.55827e-142
-1.13817e-134
-3.93031e-129
-1.5366e-119
-2.82824e-114
-1.16905e-109
-2.87875e-106
-3.59964e-102
-6.70069e-98
-4.89079e-94
-2.14551e-90
-6.93851e-88
-1.05023e-82
-1.69913e-79
-5.37583e-77
-8.08381e-76
-3.5546e-75
-7.94466e-75
-1.09282e-74
-1.01536e-74
-1.62038e-74
-3.34222e-73
-2.33365e-71
-2.23914e-70
-7.64087e-70
-1.38902e-69
-4.10691e-69
-4.29303e-68
-8.92775e-68
-8.52127e-68
-4.70457e-68
-1.66761e-68
-4.0292e-69
-6.8939e-70
-8.56948e-71
-1.75414e-190
-6.68449e-181
-1.70872e-174
-2.21383e-147
-1.99514e-140
-2.59987e-133
-1.05558e-127
-6.55414e-118
-1.23286e-112
-4.33804e-108
-9.39539e-105
-1.04903e-100
-1.69908e-96
-1.01545e-92
-4.12403e-89
-1.23431e-86
-1.64075e-81
-2.50678e-78
-7.55515e-76
-1.0861e-74
-4.59182e-74
-9.91423e-74
-1.32258e-73
-1.19486e-73
-1.61576e-73
-2.93217e-72
-2.04738e-70
-1.9409e-69
-6.53223e-69
-1.17258e-68
-3.6062e-68
-3.87941e-67
-8.08117e-67
-7.72754e-67
-4.28172e-67
-1.52624e-67
-3.71585e-68
-6.4194e-69
-8.07338e-70
-7.39808e-188
-4.48491e-179
-1.08448e-172
-3.36063e-146
-1.00981e-138
-5.28589e-132
-2.632e-126
-2.73218e-116
-5.31059e-111
-1.59035e-106
-3.04004e-103
-3.0345e-99
-4.28515e-95
-2.09612e-91
-7.87287e-88
-2.18016e-85
-2.52585e-80
-3.64399e-77
-1.04611e-74
-1.43774e-73
-5.84578e-73
-1.21958e-72
-1.57822e-72
-1.38697e-72
-1.613e-72
-2.53222e-71
-1.76718e-69
-1.65555e-68
-5.49686e-68
-9.74643e-68
-3.1235e-67
-3.45792e-66
-7.21736e-66
-6.91633e-66
-3.84707e-66
-1.37935e-66
-3.38475e-67
-5.90543e-68
-7.5158e-69
-2.10126e-185
-8.57753e-178
-6.23914e-171
-5.53031e-160
-4.50078e-137
-1.0236e-130
-6.06564e-125
-1.11153e-114
-2.26022e-109
-5.75908e-105
-9.74947e-102
-8.70493e-98
-1.07379e-93
-4.30339e-90
-1.49265e-86
-3.82279e-84
-3.83051e-79
-5.21779e-76
-1.42667e-73
-1.87468e-72
-7.33227e-72
-1.47844e-71
-1.85635e-71
-1.58755e-71
-1.61242e-71
-2.15241e-70
-1.50013e-68
-1.38913e-67
-4.55143e-67
-7.97376e-67
-2.66768e-66
-3.0394e-65
-6.35829e-65
-6.10799e-65
-3.41153e-65
-1.23069e-65
-3.04453e-66
-5.36577e-67
-6.9121e-68
-1.91284e-183
-5.12019e-176
-3.2978e-169
-4.62115e-158
-1.71948e-135
-2.0528e-129
-1.28448e-123
-4.40205e-113
-9.50288e-108
-2.05963e-103
-3.09806e-100
-2.47431e-96
-2.6707e-92
-8.7891e-89
-2.81018e-85
-6.65228e-83
-5.72101e-78
-7.35732e-75
-1.91581e-72
-2.40701e-71
-9.0582e-71
-1.76568e-70
-2.15166e-70
-1.79126e-70
-1.61349e-70
-1.80069e-69
-1.2519e-67
-1.14614e-66
-3.70681e-66
-6.41858e-66
-2.24573e-65
-2.63365e-64
-5.52385e-64
-5.32101e-64
-2.98514e-64
-1.08375e-64
-2.70353e-65
-4.81425e-66
-6.27843e-67
-3.33362e-181
-7.29217e-175
-1.6526e-167
-3.62339e-156
-5.45835e-134
-4.25018e-128
-2.4802e-122
-1.69164e-111
-3.94618e-106
-7.27287e-102
-9.75118e-99
-6.96309e-95
-6.58612e-91
-1.78583e-87
-5.25214e-84
-1.14832e-81
-8.41249e-77
-1.02127e-73
-2.53238e-71
-3.04221e-70
-1.10183e-69
-2.07683e-69
-2.4568e-69
-1.99167e-69
-1.61479e-69
-1.48273e-68
-1.02668e-66
-9.29517e-66
-2.96827e-65
-5.08169e-65
-1.86269e-64
-2.249e-63
-4.73104e-63
-4.57134e-63
-2.57668e-63
-9.41694e-64
-2.36944e-64
-4.2641e-65
-5.63098e-66
-2.13977e-179
-4.07388e-173
-8.22838e-166
-2.65253e-154
-1.38972e-132
-8.2982e-127
-4.31966e-121
-6.28272e-110
-1.61815e-104
-2.53527e-100
-3.0389e-97
-1.93854e-93
-1.60876e-89
-3.60931e-86
-9.74034e-83
-1.9652e-80
-1.21752e-75
-1.39513e-72
-3.29385e-70
-3.78372e-69
-1.3192e-68
-2.40504e-68
-2.76254e-68
-2.18147e-68
-1.61413e-68
-1.2019e-67
-8.27062e-66
-7.40659e-65
-2.33603e-64
-3.95546e-64
-1.5216e-63
-1.89209e-62
-3.99351e-62
-3.87188e-62
-2.19338e-62
-8.07171e-63
-2.04902e-63
-3.72745e-64
-4.98532e-65
-1.11525e-177
-2.13079e-171
-4.22786e-164
-1.80319e-152
-2.74747e-131
-1.4337e-125
-6.67194e-120
-2.2446e-108
-6.55033e-103
-8.72226e-99
-9.37318e-96
-5.33526e-92
-3.88861e-88
-7.25331e-85
-1.7914e-81
-3.3319e-79
-1.73375e-74
-1.87493e-71
-4.21431e-69
-4.62923e-68
-1.5541e-67
-2.74111e-67
-3.05799e-67
-2.35286e-67
-1.60882e-67
-9.59415e-67
-6.54169e-65
-5.79606e-64
-1.80609e-63
-3.0257e-63
-1.22361e-62
-1.56773e-61
-3.32124e-61
-3.23219e-61
-1.84076e-61
-6.82295e-62
-1.74787e-62
-3.21484e-63
-4.35565e-64
-6.42177e-176
-1.24183e-169
-2.23851e-162
-1.13241e-150
-4.22302e-130
-2.15986e-124
-8.85555e-119
-7.6723e-107
-2.61702e-101
-2.96081e-97
-2.86007e-94
-1.45059e-90
-9.2926e-87
-1.4485e-83
-3.26502e-80
-5.59201e-78
-2.42827e-73
-2.47798e-70
-5.30193e-68
-5.56923e-67
-1.80074e-66
-3.07364e-66
-3.33116e-66
-2.49804e-66
-1.59588e-66
-7.54599e-66
-5.07797e-64
-4.45248e-63
-1.37118e-62
-2.27354e-62
-9.68213e-62
-1.27885e-60
-2.72048e-60
-2.65845e-60
-1.52256e-60
-5.68589e-61
-1.47029e-61
-2.7349e-62
-3.75439e-63
-3.65191e-174
-9.00334e-168
-1.18186e-160
-6.55012e-149
-5.50291e-129
-2.7861e-123
-9.30144e-118
-2.49397e-105
-1.03166e-99
-9.91401e-96
-8.62938e-93
-3.89364e-89
-2.19353e-85
-2.87228e-82
-5.89244e-79
-9.28211e-77
-3.34386e-72
-3.21946e-69
-6.55624e-67
-6.58573e-66
-2.05144e-65
-3.38944e-65
-3.56957e-65
-2.60964e-65
-1.57239e-65
-5.85274e-65
-3.8666e-63
-3.35598e-62
-1.02174e-61
-1.67738e-61
-7.53487e-61
-1.02668e-59
-2.19404e-59
-2.15364e-59
-1.24081e-59
-4.66988e-60
-1.21926e-60
-2.29416e-61
-3.19167e-62
-3.03663e-172
-7.46868e-166
-6.02699e-159
-3.51142e-147
-6.48546e-128
-3.00895e-122
-5.03843e-117
-7.65765e-104
-4.01161e-98
-3.2735e-94
-2.57322e-91
-1.03112e-87
-5.1104e-84
-5.64999e-81
-1.05202e-77
-1.52235e-75
-4.5255e-71
-4.11021e-68
-7.96536e-66
-7.65157e-65
-2.29677e-64
-3.67428e-64
-3.76113e-64
-2.6814e-64
-1.53587e-64
-4.48169e-64
-2.88664e-62
-2.48066e-61
-7.46896e-61
-1.21451e-60
-5.7642e-60
-8.10848e-59
-1.74155e-58
-1.71783e-58
-9.95965e-59
-3.77878e-59
-9.96427e-60
-1.89701e-60
-2.67516e-61
-2.53442e-170
-6.16774e-164
-2.92279e-157
-1.81063e-145
-6.03165e-127
-2.66534e-121
9.74973e-116
-2.20439e-102
-1.53822e-96
-1.06553e-92
-7.57939e-90
-2.69232e-86
-1.17416e-82
-1.10131e-79
-1.85632e-76
-2.46454e-74
-6.01685e-70
-5.15408e-67
-9.50371e-65
-8.73052e-64
-2.526e-63
-3.91377e-63
-3.89505e-63
-2.70863e-63
-1.48453e-63
-3.39343e-63
-2.11179e-61
-1.79729e-60
-5.35345e-60
-8.62574e-60
-4.33247e-59
-6.29742e-58
-1.36005e-57
-1.34861e-57
-7.87108e-58
-3.01151e-58
-8.02236e-59
-1.54571e-59
-2.20999e-60
-2.55603e-168
-4.63503e-162
-1.34709e-155
-1.00854e-143
-3.96415e-126
-2.26802e-120
4.72063e-114
-5.90073e-101
-5.8141e-95
-3.41788e-91
-2.20398e-88
-6.92688e-85
-2.65848e-81
-2.12471e-78
-3.23395e-75
-3.9343e-73
-7.85528e-69
-6.34517e-66
-1.11305e-63
-9.77837e-63
-2.72774e-62
-4.09441e-62
-3.96276e-62
-2.68871e-62
-1.41753e-62
-2.54563e-62
-1.5131e-60
-1.27566e-59
-3.76035e-59
-6.00605e-59
-3.19763e-58
-4.8075e-57
-1.04454e-56
-1.04166e-56
-6.12228e-57
-2.3629e-57
-6.3608e-58
-1.24066e-58
-1.79882e-59
-1.94118e-166
-2.97906e-160
-5.97385e-154
-7.37419e-142
-1.55339e-125
-5.63966e-119
1.2747e-112
-1.45584e-99
-2.16546e-93
-1.08002e-89
-6.32324e-87
-1.75498e-83
-5.92724e-80
-4.05213e-77
-5.55662e-74
-6.18672e-72
-1.00655e-67
-7.66527e-65
-1.27894e-62
-1.07451e-61
-2.89073e-61
-4.20482e-61
-3.95876e-61
-2.62139e-61
-1.3351e-61
-1.89636e-61
-1.06121e-59
-8.86484e-59
-2.58701e-58
-4.0977e-58
-2.31617e-57
-3.6059e-56
-7.88609e-56
-7.9127e-56
-4.685e-56
-1.8246e-56
-4.96489e-57
-9.80562e-58
-1.44206e-58
-1.62702e-164
-1.57716e-158
-2.60258e-152
-7.49092e-140
-3.83985e-125
-3.74858e-117
2.39015e-111
-3.28033e-98
-7.94414e-92
-3.36067e-88
-1.7888e-85
-4.37573e-82
-1.30038e-78
-7.62986e-76
-9.40641e-73
-9.57337e-71
-1.26525e-66
-9.0819e-64
-1.44102e-61
-1.15782e-60
-3.00482e-60
-4.23678e-60
-3.88126e-60
-2.50891e-60
-1.23862e-60
-1.40644e-60
-7.28108e-59
-6.02785e-58
-1.74216e-57
-2.73778e-57
-1.64553e-56
-2.65609e-55
-5.85026e-55
-5.9087e-55
-3.52569e-55
-1.38604e-55
-3.81352e-56
-7.62838e-57
-1.13819e-57
-8.94869e-163
-7.00179e-157
-1.12658e-150
-9.08948e-138
-1.33294e-127
-2.56526e-115
2.31896e-111
-6.69046e-97
-2.86937e-90
-1.02933e-86
-4.98646e-84
-1.07299e-80
-2.80529e-77
-1.41662e-74
-1.56715e-71
-1.45624e-69
-1.55937e-65
-1.05476e-62
-1.59123e-60
-1.22268e-59
-3.06191e-59
-4.18614e-59
-3.73248e-59
-2.35595e-59
-1.13046e-59
-1.04113e-59
-4.88414e-58
-4.00808e-57
-1.14771e-56
-1.79021e-56
-1.14596e-55
-1.92041e-54
-4.26245e-54
-4.33544e-54
-2.60811e-54
-1.03534e-54
-2.88125e-55
-5.83911e-56
-8.84103e-57
-3.06129e-161
-2.86287e-155
-4.7401e-149
-1.16311e-135
-1.08471e-125
-1.62976e-113
-3.08397e-108
-1.22633e-95
-1.01991e-88
-3.10192e-85
-1.36879e-82
-2.58595e-79
-5.9465e-76
-2.59035e-73
-2.56693e-70
-2.17532e-68
-1.88325e-64
-1.20005e-61
-1.72099e-59
-1.26464e-58
-3.05683e-58
-4.05349e-58
-3.5187e-58
-2.16932e-58
-1.01385e-58
-7.70974e-59
-3.20118e-57
-2.6044e-56
-7.39165e-56
-1.14492e-55
-7.81759e-55
-1.36219e-53
-3.0486e-53
-3.12423e-53
-1.89565e-53
-7.60153e-54
-2.14034e-54
-4.39574e-55
-6.75567e-56
-5.007e-160
-1.0135e-153
-1.83237e-147
-1.50413e-133
-8.68346e-124
-9.74928e-112
-2.39985e-106
-2.01403e-94
-3.56586e-87
-9.19268e-84
-3.69735e-81
-6.12106e-78
-1.23768e-74
-4.65914e-72
-4.1293e-69
-3.18783e-67
-2.22735e-63
-1.33674e-60
-1.82194e-58
-1.28035e-57
-2.98805e-57
-3.84426e-57
-3.24983e-57
-1.95746e-57
-8.92547e-58
-5.71964e-58
-2.04872e-56
-1.65262e-55
-4.65078e-55
-7.15697e-55
-5.22071e-54
-9.47402e-53
-2.13929e-52
-2.21005e-52
-1.35309e-52
-5.48305e-53
-1.56256e-53
-3.25309e-54
-5.07599e-55
-1.93543e-158
-2.74402e-152
-6.06393e-146
-1.94767e-131
-6.83885e-122
-5.58178e-110
-1.44118e-104
-2.9757e-93
-1.2256e-85
-2.67773e-82
-9.82036e-80
-1.42202e-76
-2.52753e-73
-8.23346e-71
-6.51699e-68
-4.57841e-66
-2.57821e-62
-1.45684e-59
-1.88673e-57
-1.268e-56
-2.85795e-56
-3.56848e-56
-2.93868e-56
-1.7298e-56
-7.70552e-57
-4.25284e-57
-1.27947e-55
-1.02333e-54
-2.85674e-54
-4.36974e-54
-3.4106e-53
-6.45709e-52
-1.47208e-51
-1.53386e-51
-9.48012e-52
-3.8836e-52
-1.12055e-52
-2.36556e-53
-3.74853e-54
-3.73276e-157
-7.04601e-151
-1.58715e-144
-2.52106e-129
-5.29789e-120
-3.10005e-108
-7.96103e-103
-3.99623e-92
-4.13879e-84
-7.66239e-81
-2.56277e-78
-3.23993e-75
-5.06049e-72
-1.42787e-69
-1.00804e-66
-6.43797e-65
-2.91879e-61
-1.55238e-58
-1.90988e-56
-1.22753e-55
-2.67286e-55
-3.23999e-55
-2.59993e-55
-1.49603e-55
-6.51744e-56
-3.1668e-56
-7.79244e-55
-6.17883e-54
-1.71178e-53
-2.60395e-53
-2.17798e-52
-4.31002e-51
-9.9274e-51
-1.04388e-50
-6.51613e-51
-2.6997e-51
-7.88962e-52
-1.68942e-52
-2.71946e-53
-9.81706e-156
-2.09059e-149
-2.95151e-143
-3.25975e-127
-4.03575e-118
-1.68383e-106
-4.23879e-101
-4.89205e-91
-1.37233e-82
-2.15266e-79
-6.56569e-77
-7.23403e-74
-9.92548e-71
-2.42736e-68
-1.52659e-65
-8.85455e-64
-3.22949e-60
-1.61615e-57
-1.88843e-55
-1.16079e-54
-2.44252e-54
-2.87531e-54
-2.24898e-54
-1.26538e-54
-5.39588e-55
-2.35683e-55
-4.62529e-54
-3.63488e-53
-9.99793e-53
-1.51329e-52
-1.35852e-51
-2.8157e-50
-6.55721e-50
-6.96223e-50
-4.39152e-50
-1.84092e-50
-5.45109e-51
-1.18437e-51
-1.9372e-52
-2.54859e-154
-2.83985e-148
-4.22871e-142
-4.20536e-125
-3.02206e-116
-8.97123e-105
-2.20608e-99
-5.27096e-90
-4.46488e-81
-5.93352e-78
-1.64992e-75
-1.58155e-72
-1.90551e-69
-4.0405e-67
-2.26117e-64
-1.18997e-62
-3.48969e-59
-1.64263e-56
-1.82246e-54
-1.07141e-53
-2.1793e-53
-2.49221e-53
-1.90064e-53
-1.04596e-53
-4.36889e-54
-1.74799e-54
-2.67407e-53
-2.08162e-52
-5.68714e-52
-8.56969e-52
-8.2701e-51
-1.79915e-49
-4.23945e-49
-4.54801e-49
-2.90028e-49
-1.2307e-49
-3.69388e-50
-8.14634e-51
-1.35431e-51
-2.43488e-161
-1.68701e-154
-3.1303e-140
-5.4052e-123
-2.22412e-114
-4.6891e-103
-1.12617e-97
-4.42009e-89
-1.42434e-79
-1.60353e-76
-4.06308e-74
-3.38272e-71
-3.57758e-68
-6.57825e-66
-3.27232e-63
-1.56104e-61
-3.67978e-58
-1.62863e-55
-1.71526e-53
-9.64491e-53
-1.89701e-52
-2.10816e-52
-1.56807e-52
-8.44287e-53
-3.45635e-53
-1.28748e-53
-1.50504e-52
-1.15944e-51
-3.14784e-51
-4.7248e-51
-4.90937e-50
-1.12362e-48
-2.68117e-48
-2.90803e-48
-1.87589e-48
-8.0616e-49
-2.45367e-49
-5.4945e-50
-9.28722e-51
-2.4261e-159
-1.64355e-152
-6.6009e-138
-6.90879e-121
-1.60853e-112
-2.40305e-101
-5.64032e-96
-1.4592e-88
-4.4517e-78
-4.24554e-75
-9.79564e-73
-7.07172e-70
-6.56261e-67
-1.04634e-64
-4.622e-62
-1.99691e-60
-3.78337e-57
-1.57386e-54
-1.57306e-52
-8.46094e-52
-1.60968e-51
-1.73895e-51
-1.26192e-51
-6.64957e-52
-2.66939e-52
-9.38295e-53
-8.24308e-52
-6.27516e-51
-1.6938e-50
-2.53384e-50
-2.8394e-49
-6.85377e-48
-1.65756e-47
-1.81887e-47
-1.18755e-47
-5.17116e-48
-1.59676e-48
-3.63203e-49
-6.24384e-50
-1.67886e-157
-2.49007e-150
-1.38196e-135
-8.7642e-119
-1.14316e-110
-1.2066e-99
-2.77008e-94
5.43706e-87
-1.36207e-76
-1.10035e-73
-2.30967e-71
-1.44355e-68
-1.17501e-65
-1.62413e-63
-6.36472e-61
-2.48834e-59
-3.78952e-56
-1.48112e-53
-1.4045e-51
-7.22669e-51
-1.3303e-50
-1.39752e-50
-9.89752e-51
-5.10566e-51
-2.01071e-51
-6.74183e-52
-4.3924e-51
-3.29689e-50
-8.8514e-50
-1.32048e-49
-1.59852e-48
-4.08011e-47
-1.00102e-46
-1.1121e-46
-7.3536e-47
-3.24631e-47
-1.01742e-47
-2.35171e-48
-4.11318e-49
-1.12549e-155
-6.85881e-148
-2.86882e-133
-1.10103e-116
-7.98462e-109
-5.93189e-98
-1.33322e-92
2.40151e-85
-4.07633e-75
-2.78929e-72
-5.32027e-70
-2.87427e-67
-2.05127e-64
-2.45723e-62
-8.53508e-60
-3.0171e-58
-3.69439e-55
-1.35609e-52
-1.2197e-50
-6.00422e-50
-1.06978e-49
-1.09324e-49
-7.55864e-50
-3.81824e-50
-1.47575e-50
-4.75999e-51
-2.27724e-50
-1.67974e-49
-4.48762e-49
-6.68042e-49
-8.75159e-48
-2.36867e-46
-5.90091e-46
-6.64237e-46
-4.45107e-46
-1.9932e-46
-6.3436e-47
-1.49064e-47
-2.65348e-48
-5.21638e-154
-2.33821e-145
-5.89708e-131
-1.36688e-114
-5.48313e-107
-2.85326e-96
-6.28436e-91
8.1925e-84
-1.19224e-73
-6.90927e-71
-1.19589e-68
-5.57606e-66
-3.48761e-63
-3.61921e-61
-1.11326e-58
-3.55545e-57
-3.50216e-54
-1.20679e-51
-1.02922e-49
-4.84771e-49
-8.36275e-49
-8.31625e-49
-5.61505e-49
-2.7784e-49
-1.05425e-49
-3.29236e-50
-1.14921e-49
-8.29038e-49
-2.20497e-48
-3.27742e-48
-4.65478e-47
-1.33988e-45
-3.39287e-45
-3.87275e-45
-2.63172e-45
-1.19614e-45
-3.86777e-46
-9.2437e-47
-1.67533e-47
-5.71217e-152
-8.02716e-143
-1.19863e-128
-1.67328e-112
-3.70413e-105
-1.34187e-94
-2.89936e-89
2.65023e-82
-3.4049e-72
-1.67086e-69
-2.62003e-67
-1.05273e-64
-5.76824e-62
-5.18286e-60
-1.41057e-57
-4.0672e-56
-3.22495e-53
-1.04271e-50
-8.42987e-49
-3.79934e-48
-6.348e-48
-6.14503e-48
-4.05306e-48
-1.96504e-48
-7.32251e-49
-2.22482e-49
-5.65069e-49
-3.95932e-48
-1.04876e-47
-1.55751e-47
-2.40269e-46
-7.37857e-45
-1.90118e-44
-2.20236e-44
-1.51878e-44
-7.01064e-45
-2.30445e-45
-5.60404e-46
-1.03452e-46
-1.87788e-149
-2.66844e-140
-2.40574e-126
-2.01571e-110
-2.46373e-103
-6.16613e-93
-1.30843e-87
8.17852e-81
-9.48662e-71
-3.94103e-68
-5.58791e-66
-1.93175e-63
-9.26893e-61
-7.2067e-59
-1.7339e-56
-4.51052e-55
-2.88153e-52
-8.73727e-50
-6.69415e-48
-2.88708e-47
-4.67354e-47
-4.40546e-47
-2.83933e-47
-1.34919e-47
-4.93886e-48
-1.46517e-48
-2.7116e-48
-1.82761e-47
-4.82293e-47
-7.16107e-47
-1.20225e-45
-3.95183e-44
-1.03727e-43
-1.22054e-43
-8.54804e-44
-4.00987e-44
-1.34064e-44
-3.31898e-45
-6.24311e-46
-6.82514e-147
-8.53803e-138
-4.76133e-124
-2.38491e-108
-1.61518e-101
-2.7668e-91
-5.77203e-86
2.36711e-79
-2.57639e-69
-9.05798e-67
-1.15872e-64
-3.4409e-62
-1.44522e-59
-9.71673e-58
-2.06479e-55
-4.84275e-54
-2.49527e-51
-7.09131e-49
-5.14737e-47
-2.12441e-46
-3.33293e-46
-3.06038e-46
-1.92796e-46
-8.98144e-47
-3.23053e-47
-9.38211e-48
-1.27301e-47
-8.14402e-47
-2.1416e-46
-3.1814e-46
-5.82445e-45
-2.05627e-43
-5.50466e-43
-6.58553e-43
-4.6876e-43
-2.2362e-43
-7.60883e-44
-1.91861e-44
-3.679e-45
-2.28407e-144
-2.62311e-135
-9.27939e-122
-2.76651e-106
-1.04501e-99
-1.21158e-89
-2.48728e-84
6.21033e-78
-6.81438e-68
-2.02673e-65
-2.33316e-63
-5.94163e-61
-2.18374e-58
-1.26859e-56
-2.3786e-54
-5.02647e-53
-2.09143e-50
-5.56709e-48
-3.82741e-46
-1.51172e-45
-2.29932e-45
-2.05731e-45
-1.26721e-45
-5.78897e-46
-2.04648e-46
-5.8293e-47
-5.86583e-47
-3.49898e-46
-9.16948e-46
-1.36377e-45
-2.72835e-44
-1.03828e-42
-2.8384e-42
-3.45587e-42
-2.50217e-42
-1.21473e-42
-4.20903e-43
-1.08157e-43
-2.11513e-44
-7.30295e-142
-7.7198e-133
-1.77814e-119
-3.1411e-104
-6.68193e-98
-5.17469e-88
-1.04616e-82
1.35515e-76
-1.75374e-66
-4.4105e-64
-4.55621e-62
-9.93281e-60
-3.19355e-57
-1.60153e-55
-2.64677e-53
-5.03611e-52
-1.69429e-49
-4.22145e-47
-2.7481e-45
-1.0389e-44
-1.53245e-44
-1.33653e-44
-8.05155e-45
-3.60785e-45
-1.25379e-45
-3.50749e-46
-2.6632e-46
-1.44752e-45
-3.77965e-45
-5.63213e-45
-1.23396e-43
-5.08126e-42
-1.42047e-41
-1.76194e-41
-1.29876e-41
-6.42129e-42
-2.26725e-42
-5.94039e-43
-1.18533e-43
-2.47716e-139
-2.17082e-130
-3.34435e-117
-3.48486e-102
-4.22815e-96
-2.15444e-86
-4.29117e-81
1.69157e-75
-4.38737e-65
-9.32535e-63
-8.61784e-61
-1.60542e-58
-4.51437e-56
-1.95246e-54
-2.84072e-52
-4.8634e-51
-1.32466e-48
-3.08745e-46
-1.90257e-44
-6.88624e-44
-9.85415e-44
-8.38009e-44
-4.9388e-44
-2.17125e-44
-7.41878e-45
-2.04019e-45
-1.1963e-45
-5.75879e-45
-1.4974e-44
-2.23716e-44
-5.38033e-43
-2.40725e-41
-6.89166e-41
-8.71858e-41
-6.54884e-41
-3.30018e-41
-1.1882e-41
-3.17616e-42
-6.46967e-43
-8.61419e-137
-5.81599e-128
-6.16189e-115
-3.7709e-100
-2.65059e-94
-8.73876e-85
-1.71491e-79
-4.78976e-74
-1.06577e-63
-1.91353e-61
-1.57673e-59
-2.50531e-57
-6.16027e-55
-2.29549e-53
-2.93647e-51
-4.5202e-50
-9.98014e-48
-2.17484e-45
-1.26826e-43
-4.39679e-43
-6.10572e-43
-5.06452e-43
-2.92077e-43
-1.26008e-43
-4.2338e-44
-1.14524e-44
-5.33574e-45
-2.20069e-44
-5.69193e-44
-8.53236e-44
-2.25827e-42
-1.10269e-40
-3.23815e-40
-4.18314e-40
-3.20504e-40
-1.64761e-40
-6.05337e-41
-1.65187e-41
-3.43664e-42
-2.59221e-134
-1.47969e-125
-1.10997e-112
-3.97174e-98
-1.64698e-92
-3.45123e-83
-6.66966e-78
-5.19638e-72
-2.51049e-62
-3.80546e-60
-2.7865e-58
-3.76943e-56
-8.10326e-54
-2.59905e-52
-2.91926e-50
-4.03749e-49
-7.23486e-47
-1.47344e-44
-8.1288e-43
-2.70011e-42
-3.63981e-42
-2.94564e-42
-1.66275e-42
-7.04069e-43
-2.32646e-43
-6.19217e-44
-2.36748e-44
-8.07078e-44
-2.07229e-43
-3.11907e-43
-9.1102e-42
-4.8778e-40
-1.47182e-39
-1.94401e-39
-1.52087e-39
-7.98276e-40
-2.99514e-40
-8.34909e-41
-1.77504e-41
-5.62135e-132
-3.56108e-123
-1.95156e-110
-4.06349e-96
-1.01399e-90
-1.32623e-81
-2.52078e-76
-2.88822e-70
-5.72472e-61
-7.32209e-59
-4.74899e-57
-5.45933e-55
-1.02572e-52
-2.82947e-51
-2.78654e-49
-3.46032e-48
-5.03883e-46
-9.58523e-44
-5.00139e-42
-1.59115e-41
-2.08272e-41
-1.64492e-41
-9.09004e-42
-3.77827e-42
-1.22781e-42
-3.216e-43
-1.04367e-43
-2.83804e-43
-7.21088e-43
-1.0905e-42
-3.52522e-41
-2.07984e-39
-6.46012e-39
-8.73574e-39
-6.98596e-39
-3.74734e-39
-1.43697e-39
-4.09446e-40
-8.90042e-41
-8.85657e-130
-8.07171e-121
-3.34439e-108
-4.03107e-94
-6.17796e-89
-4.95493e-80
-9.24216e-75
-1.30354e-68
-1.26091e-59
-1.36002e-57
-7.79e-56
-7.59689e-54
-1.24663e-51
-2.95563e-50
-2.54864e-48
-2.84e-47
-3.36576e-45
-5.97273e-43
-2.94685e-41
-7.10346e-139
-1.71418e-118
-5.56786e-106
-3.86677e-92
-3.71531e-87
-1.79836e-78
-3.28048e-73
-5.2348e-67
-2.67457e-58
-2.43111e-56
-1.22683e-54
-1.01322e-52
-1.45006e-50
-2.95338e-49
-2.22678e-47
-2.22559e-46
-2.15066e-44
-1.8487e-53
-1.29079e-51
-2.0909e-206
-1.94033e-196
-3.09785e-188
-2.2507e-159
-4.63266e-153
-5.15265e-144
-2.54645e-138
-1.50979e-129
-3.23937e-124
-3.45605e-119
-1.8114e-115
-3.95328e-111
-1.99407e-106
-4.99584e-102
-3.38298e-98
-1.69442e-95
-5.36725e-90
-1.22415e-86
-5.15281e-84
-1.01584e-82
-5.67937e-82
-1.56906e-81
-2.60577e-81
-2.90335e-81
-1.59273e-80
-5.32412e-79
-3.6355e-77
-3.76638e-76
-1.40537e-75
-2.77549e-75
-6.79465e-75
-5.98466e-74
-1.23865e-73
-1.17597e-73
-6.38933e-74
-2.20188e-74
-5.1092e-75
-8.29268e-76
-9.65885e-77
-1.61813e-203
-5.58892e-194
-3.59237e-186
-1.53885e-157
-2.95113e-151
-2.41245e-142
-9.91038e-137
-7.55622e-128
-1.5129e-122
-1.37364e-117
-6.15322e-114
-1.15329e-109
-5.03808e-105
-1.07637e-100
-6.73199e-97
-3.10571e-94
-9.11485e-89
-1.96388e-85
-7.87669e-83
-1.4839e-81
-7.9661e-81
-2.12319e-80
-3.41499e-80
-3.6837e-80
-1.6151e-79
-5.11354e-78
-3.4929e-76
-3.57099e-75
-1.31223e-74
-2.55484e-74
-6.43559e-74
-5.84148e-73
-1.20949e-72
-1.14864e-72
-6.25387e-73
-2.1641e-73
-5.05268e-74
-8.2689e-75
-9.73102e-76
-1.12654e-200
-1.50252e-191
-3.87912e-184
-9.78124e-156
-1.90543e-149
-1.02835e-140
-3.65355e-135
-3.66323e-126
-6.98733e-121
-5.3989e-116
-2.07367e-112
-3.36126e-108
-1.27e-103
-2.29501e-99
-1.32637e-95
-5.63483e-93
-1.52737e-87
-3.10866e-84
-1.18797e-81
-2.13886e-80
-1.10275e-79
-2.83606e-79
-4.41891e-79
-4.61942e-79
-1.62738e-78
-4.84038e-77
-3.30771e-75
-3.33779e-74
-1.2082e-73
-2.31956e-73
-6.02344e-73
-5.63223e-72
-1.1668e-71
-1.1087e-71
-6.05048e-72
-2.10287e-72
-4.94138e-73
-8.15573e-74
-9.69974e-75
-6.03349e-198
-3.56112e-189
-3.88395e-182
-5.81756e-154
-1.24912e-147
-3.95109e-139
-1.27223e-133
-1.72415e-124
-3.19106e-119
-2.09807e-114
-6.93249e-111
-9.78301e-107
-3.195e-102
-4.844e-98
-2.58802e-94
-1.01223e-91
-2.52485e-86
-4.85415e-83
-1.76739e-80
-3.04124e-79
-1.50624e-78
-3.73874e-78
-5.64444e-78
-5.72337e-78
-1.63153e-77
-4.51463e-76
-3.08653e-74
-3.07481e-73
-1.09663e-72
-2.07661e-72
-5.56963e-72
-5.36314e-71
-1.11186e-70
-1.05733e-70
-5.78496e-71
-2.01986e-71
-4.77809e-72
-7.95537e-73
-9.56416e-74
-1.85718e-195
-6.94233e-187
-3.58455e-180
-3.21805e-152
-8.19772e-146
-1.35224e-137
-4.17073e-132
-7.89611e-123
-1.44078e-117
-8.05996e-113
-2.29877e-109
-2.84176e-105
-8.02212e-101
-1.01249e-96
-5.00269e-93
-1.80089e-90
-4.11663e-85
-7.47564e-82
-2.59318e-79
-4.26503e-78
-2.02959e-77
-4.86327e-77
-7.11572e-77
-7.00373e-77
-1.62989e-76
-4.14817e-75
-2.83723e-73
-2.79092e-72
-9.80971e-72
-1.83272e-71
-5.08648e-71
-5.04244e-70
-1.04635e-69
-9.96065e-70
-5.46511e-70
-1.91746e-70
-4.56728e-71
-7.67285e-72
-9.32679e-73
-9.46552e-194
-1.02055e-184
-3.03258e-178
-1.59783e-150
-5.25499e-144
-4.07239e-136
-1.28312e-130
-3.52679e-121
-6.43091e-116
-3.0605e-111
-7.55978e-108
-8.23197e-104
-2.00989e-99
-2.09662e-95
-9.58306e-92
-3.17412e-89
-6.61843e-84
-1.1352e-80
-3.75144e-78
-5.8978e-77
-2.69724e-76
-6.2406e-76
-8.85136e-76
-8.46207e-76
-1.62483e-75
-3.75395e-74
-2.56845e-72
-2.49528e-71
-8.64579e-71
-1.59409e-70
-4.58661e-70
-4.67999e-69
-9.72255e-69
-9.26734e-69
-5.10033e-69
-1.79861e-69
-4.31491e-70
-7.31586e-71
-8.99346e-72
-1.32692e-191
-1.00847e-182
-2.33598e-176
-6.56243e-149
-3.1984e-142
-1.06742e-134
-3.69157e-129
-1.53879e-119
-2.8372e-114
-1.14848e-109
-2.46529e-106
-2.3759e-102
-5.02281e-98
-4.30347e-94
-1.81982e-90
-5.54403e-88
-1.04902e-82
-1.69937e-79
-5.34971e-77
-8.0399e-76
-3.53446e-75
-7.89797e-75
-1.08616e-74
-1.00915e-74
-1.61861e-74
-3.34524e-73
-2.2891e-71
-2.19685e-70
-7.50538e-70
-1.36606e-69
-4.0824e-69
-4.28671e-68
-8.91797e-68
-8.51374e-68
-4.70119e-68
-1.66673e-68
-4.02817e-69
-6.89436e-70
-8.57307e-71
-1.93071e-190
-6.43466e-181
-1.62882e-174
-1.9238e-147
-1.79971e-140
-2.42959e-133
-9.89708e-128
-6.56416e-118
-1.23712e-112
-4.25859e-108
-7.97083e-105
-6.82533e-101
-1.25121e-96
-8.7601e-93
-3.42698e-89
-9.59861e-87
-1.63878e-81
-2.50717e-78
-7.51819e-76
-1.08016e-74
-4.56566e-74
-9.85569e-74
-1.3145e-73
-1.18747e-73
-1.61304e-73
-2.93489e-72
-2.00784e-70
-1.90391e-69
-6.41536e-69
-1.15302e-68
-3.58548e-68
-3.87405e-67
-8.07291e-67
-7.72121e-67
-4.27888e-67
-1.52552e-67
-3.71509e-68
-6.4202e-69
-8.07727e-70
-8.80301e-188
-4.30743e-179
-1.02309e-172
-2.92333e-146
-9.13059e-139
-4.91027e-132
-2.46277e-126
-2.73658e-116
-5.33045e-111
-1.56006e-106
-2.55464e-103
-1.94956e-99
-3.10435e-95
-1.76944e-91
-6.40165e-88
-1.64771e-85
-2.52264e-80
-3.64459e-77
-1.04096e-74
-1.42984e-73
-5.81229e-73
-1.21234e-72
-1.56853e-72
-1.37832e-72
-1.60929e-72
-2.53461e-71
-1.73267e-69
-1.62371e-68
-5.39764e-68
-9.58233e-68
-3.10625e-67
-3.45344e-66
-7.21048e-66
-6.91108e-66
-3.84473e-66
-1.37877e-66
-3.38423e-67
-5.90647e-68
-7.51988e-69
-2.5438e-185
-8.14612e-178
-5.78923e-171
-3.69227e-160
-4.07532e-137
-9.43111e-131
-5.66247e-125
-1.11339e-114
-2.26934e-109
-5.64511e-105
-8.11418e-102
-5.53106e-98
-7.66386e-94
-3.54833e-90
-1.1865e-86
-2.80492e-84
-3.82536e-79
-5.21869e-76
-1.4196e-73
-1.86431e-72
-7.29002e-72
-1.46962e-71
-1.84491e-71
-1.57757e-71
-1.60774e-71
-2.15446e-70
-1.47049e-68
-1.36218e-67
-4.46856e-67
-7.83826e-67
-2.65353e-66
-3.03572e-65
-6.35265e-65
-6.1037e-65
-3.40963e-65
-1.23023e-65
-3.0442e-66
-5.36699e-67
-6.91624e-68
-1.95145e-183
-4.83847e-176
-2.98102e-169
-3.08729e-158
-1.55792e-135
-1.87742e-129
-1.19595e-123
-4.40962e-113
-9.54416e-108
-2.01731e-103
-2.55352e-100
-1.55702e-96
-1.88064e-92
-7.06794e-89
-2.18229e-85
-4.73555e-83
-5.71283e-78
-7.35867e-75
-1.90625e-72
-2.3936e-71
-9.00571e-71
-1.7551e-70
-2.13834e-70
-1.77993e-70
-1.60786e-70
-1.8024e-69
-1.2269e-67
-1.1237e-66
-3.63873e-66
-6.30851e-66
-2.23431e-65
-2.63067e-64
-5.51929e-64
-5.31757e-64
-2.98363e-64
-1.0834e-64
-2.70336e-65
-4.81557e-66
-6.28251e-67
-3.28563e-181
-6.90912e-175
-1.43789e-167
-2.42443e-156
-4.94482e-134
-3.87105e-128
-2.30237e-122
-1.69457e-111
-3.96458e-106
-7.11781e-102
-7.95933e-99
-4.34469e-95
-4.58211e-91
-1.399e-87
-3.98329e-84
-7.92913e-82
-8.39963e-77
-1.02147e-73
-2.51965e-71
-3.02517e-70
-1.09541e-69
-2.06432e-69
-2.44153e-69
-1.97898e-69
-1.60826e-69
-1.48411e-68
-1.00595e-66
-9.11159e-66
-2.91328e-65
-4.99374e-65
-1.85362e-64
-2.24662e-63
-4.72743e-63
-4.56862e-63
-2.57549e-63
-9.41426e-64
-2.36939e-64
-4.26546e-65
-5.63492e-66
-2.05724e-179
-3.76511e-173
-6.83635e-166
-1.78088e-154
-1.25767e-132
-7.53762e-127
-3.99614e-121
-6.29352e-110
-1.62622e-104
-2.47923e-100
-2.45646e-97
-1.20058e-93
-1.10724e-89
-2.75241e-86
-7.21476e-83
-1.31651e-80
-1.21553e-75
-1.39541e-72
-3.27718e-70
-3.76239e-69
-1.31147e-68
-2.39049e-68
-2.74529e-68
-2.16749e-68
-1.60681e-68
-1.20298e-67
-8.10177e-66
-7.25903e-65
-2.29238e-64
-3.88638e-64
-1.5145e-63
-1.89023e-62
-3.99069e-62
-3.86977e-62
-2.19246e-62
-8.06974e-63
-2.04905e-63
-3.72879e-64
-4.98902e-65
-1.04268e-177
-1.8731e-171
-3.37715e-164
-1.22006e-152
-2.48055e-131
-1.29801e-125
-6.14584e-120
-2.24837e-108
-6.5852e-103
-8.52245e-99
-7.50361e-96
-3.28248e-92
-2.65066e-88
-5.38301e-85
-1.29644e-81
-2.16696e-79
-1.73068e-74
-1.87533e-71
-4.19284e-69
-4.60298e-68
-1.54494e-67
-2.72445e-67
-3.03882e-67
-2.33771e-67
-1.60081e-67
-9.6021e-67
-6.40668e-65
-5.67957e-64
-1.77205e-63
-2.97237e-63
-1.21816e-62
-1.56629e-61
-3.31907e-61
-3.23057e-61
-1.84006e-61
-6.82154e-62
-1.74796e-62
-3.21611e-63
-4.35907e-64
-5.65666e-176