/*--------------------------------*- C++ -*----------------------------------*\
| =========                 |                                                 |
| \\      /  F ield         | OpenFOAM: The Open Source CFD Toolbox           |
|  \\    /   O peration     | Version:  v2012                                 |
|   \\  /    A nd           | Website:  www.openfoam.com                      |
|    \\/     M anipulation  |                                                 |
\*---------------------------------------------------------------------------*/
FoamFile
{
    version     2.0;
    format      ascii;
    class       volScalarField;
    location    "0.7";
    object      alpha.water;
}
// * * * * * * * * * * * * * * * * * * * * * * * * * * * * * * * * * * * * * //

dimensions      [0 0 0 0 0 0 0];


internalField   nonuniform List<scalar> 
3352
(
-1.27961e-154
-6.86139e-146
-3.82217e-138
-3.55051e-130
-2.72919e-123
-5.66705e-114
-1.13751e-106
-1.12696e-98
-4.51125e-91
-5.25955e-88
-2.97975e-85
-1.93979e-82
-2.20601e-79
-3.04369e-77
-1.47437e-74
-8.81423e-73
-7.38242e-70
-5.88169e-67
-1.12349e-64
-1.16622e-63
-4.39913e-63
-9.15906e-63
-1.23722e-62
-1.17588e-62
-8.25468e-63
-4.5069e-63
-1.11101e-62
-1.03181e-61
-3.83164e-61
-7.68402e-61
-1.17842e-59
-4.26742e-58
-1.34006e-57
-1.84103e-57
-1.46077e-57
-7.5272e-58
-2.68117e-58
-6.85696e-59
-1.29076e-59
-5.70738e-152
-1.26032e-143
-4.58961e-136
-1.96964e-128
-1.18574e-121
-1.87588e-112
-3.23123e-105
-2.72627e-97
-8.56841e-90
-8.86869e-87
-4.53041e-84
-2.66031e-81
-2.77807e-78
-3.50343e-76
-1.56188e-73
-8.70829e-72
-6.50137e-69
-4.9197e-66
-8.98911e-64
-8.9953e-63
-3.29705e-62
-6.69671e-62
-8.8518e-62
-8.25529e-62
-5.70062e-62
-3.05889e-62
-6.33037e-62
-5.61708e-61
-2.06518e-60
-4.11461e-60
-6.52714e-59
-2.43574e-57
-7.70072e-57
-1.06494e-56
-8.51415e-57
-4.42696e-57
-1.59356e-57
-4.1249e-58
-7.87106e-59
-2.33962e-149
-2.15752e-141
-5.14953e-134
-1.07746e-126
-5.08919e-120
-6.12355e-111
-9.05559e-104
-6.51791e-96
-1.60387e-88
-1.47347e-85
-6.78312e-83
-3.592e-80
-3.44456e-77
-3.9705e-75
-1.62862e-72
-8.46808e-71
-5.63704e-68
-4.05097e-65
-7.07975e-63
-6.83045e-62
-2.43304e-61
-4.82182e-61
-6.23782e-61
-5.70948e-61
-3.87907e-61
-2.04723e-61
-3.57232e-61
-3.00849e-60
-1.09502e-59
-2.168e-59
-3.55844e-58
-1.36955e-56
-4.36104e-56
-6.07281e-56
-4.89378e-56
-2.56836e-56
-9.34589e-57
-2.44926e-57
-4.73905e-58
-8.54358e-147
-3.42346e-139
-5.37408e-132
-5.81538e-125
-2.15814e-118
-1.97148e-109
-2.50373e-102
-1.53866e-94
-2.95819e-87
-2.41155e-84
-9.9985e-82
-4.77342e-79
-4.20377e-76
-4.42906e-74
-1.67097e-71
-8.10198e-70
-4.81049e-67
-3.28259e-64
-5.48692e-62
-5.10442e-61
-1.7673e-60
-3.41803e-60
-4.32845e-60
-3.88907e-60
-2.6002e-60
-1.35064e-60
-1.99813e-60
-1.58495e-59
-5.71019e-59
-1.1237e-58
-1.90889e-57
-7.58394e-56
-2.43326e-55
-3.41308e-55
-2.77321e-55
-1.46952e-55
-5.40726e-56
-1.43512e-56
-2.81648e-57
-2.64532e-144
-4.99497e-137
-5.18632e-130
-3.09624e-123
-9.03928e-117
-6.25815e-108
-6.82744e-101
-3.58428e-93
-5.37485e-86
-3.88707e-83
-1.45063e-80
-6.24193e-78
-5.04854e-75
-4.86191e-73
-1.68657e-70
-7.62527e-69
-4.03942e-66
-2.61702e-63
-4.18353e-61
-3.75318e-60
-1.26326e-59
-2.38476e-59
-2.95677e-59
-2.60832e-59
-1.71649e-59
-8.7806e-60
-1.10868e-59
-8.21151e-59
-2.92757e-58
-5.72752e-58
-1.00729e-56
-4.13481e-55
-1.33723e-54
-1.89009e-54
-1.54897e-54
-8.29004e-55
-3.08548e-55
-8.29582e-56
-1.65182e-56
-6.48752e-142
-6.64751e-135
-4.60541e-128
-1.62691e-121
-3.74006e-115
-1.95882e-106
-1.8362e-99
-8.23739e-92
-9.61867e-85
-6.16904e-82
-2.07099e-79
-8.0291e-77
-5.96448e-74
-5.25035e-72
-1.67408e-69
-7.0571e-68
-3.33649e-65
-2.05202e-62
-3.13699e-60
-2.71436e-59
-8.88317e-59
-1.63713e-58
-1.98773e-58
-1.72194e-58
-1.1156e-58
-5.623e-59
-6.10722e-59
-4.1829e-58
-1.47521e-57
-2.86991e-57
-5.22679e-56
-2.21887e-54
-7.2364e-54
-1.03103e-53
-8.52523e-54
-4.60976e-54
-1.73597e-54
-4.72963e-55
-9.55736e-56
-1.15722e-139
-7.98335e-133
-3.74247e-126
-8.43539e-120
-1.52821e-113
-6.04413e-105
-4.86942e-98
-1.86723e-90
-1.69502e-83
-9.63814e-81
-2.9087e-78
-1.01572e-75
-6.9304e-73
-5.57643e-71
-1.63368e-68
-6.42079e-67
-2.71008e-64
-1.58202e-61
-2.31264e-59
-1.93028e-58
-6.14327e-58
-1.10551e-57
-1.31468e-57
-1.11863e-57
-7.13627e-58
-3.54578e-58
-3.34232e-58
-2.09458e-57
-7.3037e-57
-1.4132e-56
-2.66612e-55
-1.17163e-53
-3.85482e-53
-5.53851e-53
-4.62219e-53
-2.52591e-53
-9.62742e-54
-2.65871e-54
-5.45391e-55
-1.56282e-137
-8.55179e-131
-2.77191e-124
-4.31681e-118
-6.16677e-112
-1.83851e-103
-1.27322e-96
-4.17421e-89
-2.94076e-82
-1.48199e-79
-4.01789e-77
-1.26328e-74
-7.91735e-72
-5.82329e-70
-1.56686e-67
-5.74102e-66
-2.16391e-63
-1.1988e-60
-1.67562e-58
-1.3493e-57
-4.17679e-57
-7.34068e-57
-8.55198e-57
-7.14858e-57
-4.4915e-57
-2.20087e-57
-1.81829e-57
-1.03089e-56
-3.55154e-56
-6.83611e-56
-1.33638e-54
-6.0853e-53
-2.02076e-52
-2.92893e-52
-2.46796e-52
-1.36347e-52
-5.26139e-53
-1.4732e-53
-3.06863e-54
-2.73138e-135
-8.05326e-129
-1.86488e-122
-2.17997e-116
-2.45689e-110
-5.5119e-102
-3.28174e-95
-9.20102e-88
-5.02183e-81
-2.24218e-78
-5.45711e-76
-1.54429e-73
-8.89031e-71
-5.97734e-69
-1.4765e-66
-5.04306e-65
-1.69794e-62
-8.92562e-60
-1.1928e-57
-9.26798e-57
-2.79093e-56
-4.79134e-56
-5.46946e-56
-4.49234e-56
-2.78048e-56
-1.34415e-56
-9.8366e-57
-4.98612e-56
-1.69557e-55
-3.2473e-55
-6.57988e-54
-3.10785e-52
-1.0421e-51
-1.52433e-51
-1.2973e-51
-7.2482e-52
-2.83257e-52
-8.04394e-53
-1.70183e-53
-3.94969e-133
-6.55991e-127
-1.13731e-120
-1.08638e-114
-9.66306e-109
-1.62851e-100
-8.33749e-94
-1.99948e-86
-8.43878e-80
-3.33695e-77
-7.28549e-75
-1.85488e-72
-9.80889e-70
-6.02874e-68
-1.36652e-65
-4.35054e-64
-1.30878e-61
-6.52714e-59
-8.33909e-57
-6.253e-56
-1.83214e-55
-3.07302e-55
-3.43793e-55
-2.77516e-55
-1.69238e-55
-8.07417e-56
-5.29205e-56
-2.36983e-55
-7.94454e-55
-1.51413e-54
-3.18109e-53
-1.56015e-51
-5.28488e-51
-7.8048e-51
-6.71134e-51
-3.79342e-51
-1.50181e-51
-4.32668e-52
-9.30003e-53
-4.61479e-131
-4.53938e-125
-6.27336e-119
-5.34102e-113
-3.75087e-107
-4.7408e-99
-2.08744e-92
-4.28293e-85
-1.39508e-78
-4.88389e-76
-9.55779e-74
-2.18837e-71
-1.06304e-68
-5.97291e-67
-1.24173e-64
-3.68451e-63
-9.90633e-61
-4.68636e-58
-5.72347e-56
-4.14241e-55
-1.18115e-54
-1.93595e-54
-2.12305e-54
-1.68461e-54
-1.01242e-54
-4.76837e-55
-2.83072e-55
-1.1068e-54
-3.65178e-54
-6.92704e-54
-1.50945e-52
-7.69549e-51
-2.63473e-50
-3.93007e-50
-3.41587e-50
-1.9539e-50
-7.83894e-51
-2.29182e-51
-5.00622e-52
-4.23316e-129
-2.63166e-123
-3.12263e-117
-2.59018e-111
-1.43666e-105
-1.35961e-97
-5.14932e-91
-9.04094e-84
-2.26823e-77
-7.02704e-75
-1.23171e-72
-2.53499e-70
-1.13119e-67
-5.81067e-66
-1.10738e-63
-3.06218e-62
-7.36007e-60
-3.30215e-57
-3.85489e-55
-2.69341e-54
-7.47508e-54
-1.19749e-53
-1.28753e-53
-1.00446e-53
-5.95023e-54
-2.76743e-54
-1.50461e-54
-5.07989e-54
-1.64605e-53
-3.108e-53
-7.02684e-52
-3.72817e-50
-1.29077e-49
-1.94553e-49
-1.70986e-49
-9.90138e-50
-4.02683e-50
-1.19508e-50
-2.65368e-51
-2.83535e-127
-1.28792e-121
-1.4022e-115
-1.23868e-109
-5.4282e-104
-3.84036e-96
-1.25125e-89
-1.88027e-82
-3.62606e-76
-9.9367e-74
-1.55873e-71
-2.88223e-69
-1.18147e-66
-5.54866e-65
-9.68834e-63
-2.49644e-61
-5.3653e-59
-2.28256e-56
-2.54676e-54
-1.71811e-53
-4.64198e-53
-7.26966e-53
-7.66492e-53
-5.88041e-53
-3.43425e-53
-1.57771e-53
-7.94019e-54
-2.29166e-53
-7.27279e-53
-1.36697e-52
-3.20774e-51
-1.77323e-49
-6.21156e-49
-9.46475e-49
-8.41445e-49
-4.93462e-49
-2.03507e-49
-6.13277e-50
-1.38469e-50
-1.2334e-125
-5.63975e-120
-5.71822e-114
-5.83992e-108
-2.02269e-102
-1.06815e-94
-2.99444e-88
-3.85182e-81
-5.6975e-75
-1.38044e-72
-1.93628e-70
-3.21509e-68
-1.21065e-65
-5.19869e-64
-8.31183e-62
-1.99553e-60
-3.83577e-58
-1.54708e-55
-1.64964e-53
-1.07475e-52
-2.82732e-52
-4.32939e-52
-4.47731e-52
-3.37852e-52
-1.94564e-52
-8.83119e-53
-4.15557e-53
-1.01648e-52
-3.14842e-52
-5.89075e-52
-1.43526e-50
-8.27665e-49
-2.93503e-48
-4.52315e-48
-4.06941e-48
-2.41776e-48
-1.01145e-48
-3.09601e-49
-7.1099e-50
-6.77269e-124
-2.328e-118
-2.1414e-112
-2.71349e-106
-7.43091e-101
-2.92468e-93
-7.05595e-87
-7.76998e-80
-8.79584e-74
-1.88338e-71
-2.36011e-69
-3.51711e-67
-1.2166e-64
-4.77708e-63
-6.98944e-61
-1.5633e-59
-2.68815e-57
-1.02769e-54
-1.04715e-52
-6.58964e-52
-1.68822e-51
-2.52817e-51
-2.56497e-51
-1.90409e-51
-1.08149e-51
-4.85112e-52
-2.15402e-52
-4.43515e-52
-1.33484e-51
-2.48594e-51
-6.29125e-50
-3.78939e-48
-1.36112e-47
-2.12254e-47
-1.93333e-47
-1.16415e-47
-4.94195e-48
-1.537e-48
-3.59109e-49
-2.66185e-122
-8.02145e-117
-7.51175e-111
-1.2422e-104
-2.69067e-99
-7.8815e-92
-1.63671e-85
-1.54294e-78
-1.33365e-72
-2.52247e-70
-2.82145e-68
-3.77139e-66
-1.19838e-63
-4.30325e-62
-5.75806e-60
-1.19968e-58
-1.84579e-56
-6.68734e-54
-6.51075e-52
-3.95824e-51
-9.87748e-51
-1.4469e-50
-1.44042e-50
-1.05215e-50
-5.89513e-51
-2.61382e-51
-1.10422e-51
-1.90489e-51
-5.54026e-51
-1.0268e-50
-2.70017e-49
-1.701e-47
-6.19245e-47
-9.77614e-47
-9.01916e-47
-5.50636e-47
-2.37284e-47
-7.50075e-48
-1.78351e-48
-9.3883e-121
-2.43154e-115
-2.71032e-109
-5.60079e-103
-9.59928e-98
-2.08983e-90
-3.73649e-84
-3.01514e-77
-1.98518e-71
-3.31514e-69
-3.30665e-67
-3.96215e-65
-1.15651e-62
-3.79831e-61
-4.64491e-59
-9.01361e-58
-1.24112e-55
-4.26045e-53
-3.96297e-51
-2.3281e-50
-5.65985e-50
-8.11146e-50
-7.92529e-50
-5.69734e-50
-3.14957e-50
-1.38066e-50
-5.58973e-51
-8.06034e-51
-2.25015e-50
-4.14877e-50
-1.13411e-48
-7.48251e-47
-2.76252e-46
-4.41755e-46
-4.12979e-46
-2.5574e-46
-1.11912e-46
-3.59683e-47
-8.70647e-48
-2.65051e-119
-6.69264e-114
-1.13454e-107
-2.48625e-101
-3.3731e-96
-5.45112e-89
-8.39361e-83
-5.79613e-76
-2.89971e-70
-4.27332e-68
-3.79726e-66
-4.0761e-64
-1.0929e-61
-3.28342e-60
-3.66701e-58
-6.62689e-57
-8.16771e-55
-2.65598e-52
-2.36013e-50
-1.34005e-49
-3.17443e-49
-4.45195e-49
-4.26992e-49
-3.02155e-49
-1.64837e-49
-7.14556e-50
-2.78985e-50
-3.36368e-50
-8.93941e-50
-1.63883e-49
-4.65893e-48
-3.22384e-46
-1.20785e-45
-1.95748e-45
-1.85522e-45
-1.1658e-45
-5.18256e-46
-1.69411e-46
-4.17588e-47
-3.60368e-118
-2.43981e-112
-5.50316e-106
-1.08622e-99
-1.16699e-94
-1.39842e-87
-1.85501e-81
-1.09565e-74
-4.15431e-69
-5.40022e-67
-4.27066e-65
-4.10398e-63
-1.01077e-60
-2.77825e-59
-2.83161e-57
-4.76483e-56
-5.25769e-54
-1.61922e-51
-1.37443e-49
-7.54406e-49
-1.74172e-48
-2.39079e-48
-2.25141e-48
-1.56857e-48
-8.4461e-49
-3.6213e-49
-1.37078e-49
-1.38603e-49
-3.4727e-49
-6.32516e-49
-1.87078e-47
-1.35972e-45
-5.17335e-45
-8.50164e-45
-8.17272e-45
-5.21364e-45
-2.35546e-45
-7.83396e-46
-1.96703e-46
-3.02011e-116
-1.44567e-110
-2.5957e-104
-4.66876e-98
-3.97362e-93
-3.52781e-86
-4.03265e-80
-2.03573e-73
-5.83464e-68
-6.68678e-66
-4.70138e-64
-4.04163e-62
-9.14341e-60
-2.29975e-58
-2.13737e-56
-3.34848e-55
-3.30847e-53
-9.64782e-51
-7.82189e-49
-4.15136e-48
-9.3428e-48
-1.25547e-47
-1.16106e-47
-7.96574e-48
-4.23434e-48
-1.79599e-48
-6.6208e-49
-5.64652e-49
-1.31874e-48
-2.38374e-48
-7.33829e-47
-5.61093e-45
-2.16944e-44
-3.61727e-44
-3.52882e-44
-2.28637e-44
-1.0502e-44
-3.55505e-45
-9.09575e-46
-3.04968e-114
-6.91602e-109
-1.00442e-102
-1.97341e-96
-1.33106e-91
-8.75103e-85
-8.62263e-79
-3.71612e-72
-8.02907e-67
-8.10864e-65
-5.06306e-63
-3.89073e-61
-8.0849e-59
-1.86122e-57
-1.57607e-55
-2.29843e-54
-2.03384e-52
-5.61446e-50
-4.34727e-48
-2.2315e-47
-4.89648e-47
-6.44278e-47
-5.85253e-47
-3.95476e-47
-2.0757e-47
-8.71101e-48
-3.13902e-48
-2.27705e-48
-4.89436e-48
-8.76631e-48
-2.81008e-46
-2.26397e-44
-8.90229e-44
-1.50696e-43
-1.49267e-43
-9.82718e-44
-4.59119e-44
-1.58245e-44
-4.12698e-45
-1.82584e-112
-2.11352e-107
-2.82063e-101
-8.19945e-95
-4.38427e-90
-2.13473e-83
-1.81329e-77
-6.66153e-71
-1.08194e-65
-9.62401e-64
-5.33082e-62
-3.65884e-60
-6.98342e-58
-1.4718e-56
-1.13458e-54
-1.53994e-53
-1.22057e-51
-3.1889e-49
-2.35798e-47
-1.17093e-46
-2.50557e-46
-3.22882e-46
-2.88155e-46
-1.91819e-46
-9.94252e-47
-4.12914e-47
-1.45892e-47
-9.09918e-48
-1.77512e-47
-3.14383e-47
-1.04978e-45
-8.92677e-44
-3.57259e-43
-6.1436e-43
-6.18213e-43
-4.13772e-43
-1.96707e-43
-6.90596e-44
-1.83648e-44
-3.71517e-111
-2.91271e-106
-4.84038e-100
-3.34745e-93
-1.41932e-88
-5.12273e-82
-3.75043e-76
-1.17207e-69
-1.42681e-64
-1.11733e-62
-5.48392e-61
-3.3589e-59
-5.88827e-57
-1.13644e-55
-7.96798e-54
-1.00637e-52
-7.1458e-51
-1.7665e-48
-1.24729e-46
-5.99342e-46
-1.25093e-45
-1.5791e-45
-1.38483e-45
-9.08303e-46
-4.65017e-46
-1.91144e-46
-6.63838e-47
-3.60545e-47
-6.2918e-47
-1.09873e-46
-3.82318e-45
-3.43734e-43
-1.4013e-42
-2.44961e-42
-2.5056e-42
-1.70574e-42
-8.25519e-43
-2.95328e-43
-8.0109e-44
-9.12969e-137
-3.53304e-129
-3.32754e-99
-1.3422e-91
-4.51345e-87
-1.21002e-80
-7.6298e-75
-2.02301e-68
-1.84025e-63
-1.26809e-61
-5.50824e-60
-3.00798e-58
-4.843e-56
-8.56237e-55
-5.45504e-53
-6.41e-52
-4.07803e-50
-9.53646e-48
-6.4293e-46
-2.99024e-45
-6.08892e-45
-7.53093e-45
-6.49118e-45
-4.19575e-45
-2.12204e-45
-8.63458e-46
-2.95354e-46
-1.41679e-46
-2.17988e-46
-3.73952e-46
-1.35634e-44
-1.2917e-42
-5.36866e-42
-9.54688e-42
-9.93188e-42
-6.88076e-42
-3.39165e-42
-1.23693e-42
-3.42369e-43
-4.488e-135
-2.98811e-127
-2.59158e-103
-5.28314e-90
-1.40922e-85
-2.81622e-79
-1.527e-73
-3.42335e-67
-2.31974e-62
-1.40595e-60
-5.39827e-59
-2.6257e-57
-3.88253e-55
-6.29024e-54
-3.63787e-52
-3.97617e-51
-2.2668e-49
-5.01317e-47
-3.22687e-45
-1.45305e-44
-2.88725e-44
-3.49957e-44
-2.96531e-44
-1.88923e-44
-9.44066e-45
-3.80318e-45
-1.28337e-45
-5.5185e-46
-7.38576e-46
-1.2386e-45
-4.68361e-44
-4.73374e-42
-2.00771e-41
-3.63445e-41
-3.84799e-41
-2.71444e-41
-1.36341e-41
-5.07107e-42
-1.43282e-42
-7.58216e-150
-2.48173e-125
-1.45453e-101
-2.04032e-88
-4.31802e-84
-6.46873e-78
-3.00716e-72
-5.67591e-66
-2.8559e-61
-1.52173e-59
-5.15812e-58
-2.23232e-56
-3.03132e-54
-4.5023e-53
-2.36125e-51
-2.40001e-50
-1.22622e-48
-2.564e-46
-1.57562e-44
-6.87117e-44
-1.33261e-43
-1.58325e-43
-1.31908e-43
-8.28503e-44
-4.0912e-44
-1.63196e-44
-5.43965e-45
-2.1281e-45
-2.44886e-45
-3.9897e-45
-1.5729e-43
-1.69053e-41
-7.32374e-41
-1.35065e-40
-1.45627e-40
-1.04659e-40
-5.35935e-41
-2.03387e-41
-5.86848e-42
-1.06355e-147
-2.02304e-123
-8.01972e-100
-7.72681e-87
-1.29783e-82
-1.46965e-76
-5.82939e-71
-9.21461e-65
-3.43141e-60
-1.60668e-58
-4.8016e-57
-1.8469e-55
-2.303e-53
-3.13719e-52
-1.49043e-50
-1.40838e-49
-6.44952e-48
-1.27471e-45
-7.47799e-44
-3.15921e-43
-5.98161e-43
-6.96744e-43
-5.70887e-43
-3.53553e-43
-1.72549e-43
-6.81609e-44
-2.24643e-44
-8.11009e-45
-7.95349e-45
-1.24897e-44
-5.13269e-43
-5.87859e-41
-2.60401e-40
-4.89634e-40
-5.37983e-40
-3.94141e-40
-2.05876e-40
-7.97546e-41
-2.35098e-41
-1.6473e-145
-1.61766e-121
-4.34092e-98
-2.86767e-85
-3.82431e-81
-3.31226e-75
-1.11288e-69
-1.46388e-63
-4.02041e-59
-1.65348e-57
-4.35087e-56
-1.48564e-54
-1.701e-52
-2.12625e-51
-9.14043e-50
-8.02744e-49
-3.2952e-47
-6.15438e-45
-3.44648e-43
-1.41098e-42
-2.60874e-42
-2.97979e-42
-2.40162e-42
-1.46678e-42
-7.07591e-43
-2.76831e-43
-9.02831e-44
-3.04729e-44
-2.53341e-44
-3.79745e-44
-1.62593e-42
-1.98882e-40
-9.01773e-40
-1.73025e-39
-1.93872e-39
-1.44882e-39
-7.72371e-40
-3.05582e-40
-9.2066e-41
-2.50485e-143
-1.26807e-119
-2.30517e-96
-1.04242e-83
-1.10426e-79
-7.43276e-74
-2.09328e-68
-2.27402e-62
-4.58951e-58
-1.65732e-56
-3.83433e-55
-1.1608e-53
-1.22023e-51
-1.40043e-50
-5.44122e-49
-4.43977e-48
-1.6338e-46
-2.88272e-44
-1.54097e-42
-6.11552e-42
-1.10438e-41
-1.23728e-41
-9.81101e-42
-5.91017e-42
-2.81859e-42
-1.09222e-42
-3.52691e-43
-1.12588e-43
-7.92519e-44
-1.12075e-43
-4.99504e-42
-6.54048e-40
-3.0391e-39
-5.95564e-39
-6.81027e-39
-5.19476e-39
-2.82804e-39
-1.1433e-39
-3.52213e-40
-3.69193e-141
-9.73834e-118
-1.20003e-94
-3.70894e-82
-3.12259e-78
-1.66741e-72
-3.88119e-67
-3.45166e-61
-5.09999e-57
-1.61649e-55
-3.28346e-54
-8.80114e-53
-8.49307e-51
-8.95498e-50
-3.14103e-48
-2.38022e-47
-7.85281e-46
-1.30861e-43
-6.67713e-42
-2.56966e-41
-4.53361e-41
-4.98288e-41
-3.88806e-41
-2.31054e-41
-1.08945e-41
-4.18179e-42
-1.33759e-42
-4.07859e-43
-2.43829e-43
-3.20916e-43
-1.48661e-41
-2.08887e-39
-9.95907e-39
-1.99518e-38
-2.3302e-38
-1.81549e-38
-1.00992e-38
-4.17414e-39
-1.31549e-39
-5.2589e-139
-7.32152e-116
-6.11955e-93
-1.29078e-80
-8.6427e-77
-3.75418e-71
-7.09573e-66
-5.11508e-60
-5.51164e-56
-1.53285e-54
-2.72954e-53
-6.46852e-52
-5.72934e-50
-5.55371e-49
-1.75647e-47
-1.23558e-46
-3.65492e-45
-5.75083e-43
-2.80083e-41
-1.04562e-40
-1.80275e-40
-1.94425e-40
-1.49312e-40
-8.75454e-41
-4.08161e-41
-1.55196e-41
-4.91869e-42
-1.44445e-42
-7.38683e-43
-8.91198e-43
-4.28136e-41
-6.47262e-39
-3.17054e-38
-6.49998e-38
-7.75996e-38
-6.17982e-38
-3.51493e-38
-1.48609e-38
-4.79355e-39
-7.22656e-137
-5.38467e-114
-3.05438e-91
-4.3906e-79
-2.34005e-75
-8.50848e-70
-1.27931e-64
-7.3944e-59
-5.78729e-55
-1.41183e-53
-2.20057e-52
-4.60337e-51
-3.74168e-49
-3.33698e-48
-9.50461e-47
-6.20328e-46
-1.64533e-44
-2.44375e-42
-1.13602e-40
-4.11566e-40
-6.93596e-40
-7.34164e-40
-5.55015e-40
-3.21114e-40
-1.48046e-40
-5.57634e-41
-1.75145e-41
-4.98666e-42
-2.2052e-42
-2.39974e-42
-1.19171e-40
-1.94385e-38
-9.79669e-38
-2.05749e-37
-2.51309e-37
-2.04725e-37
-1.19139e-37
-5.15565e-38
-1.70298e-38
-9.56451e-135
-3.8709e-112
-1.49089e-89
-1.45854e-77
-6.19437e-74
-1.94343e-68
-2.27417e-63
-1.04182e-57
-5.89804e-54
-1.26178e-52
-1.71874e-51
-3.16841e-50
-2.36276e-48
-1.94033e-47
-4.97105e-46
-3.00834e-45
-7.15496e-44
-1.00289e-41
-4.45001e-40
-1.56512e-39
-2.5789e-39
-2.67967e-39
-1.99451e-39
-1.13884e-39
-5.19237e-40
-1.93738e-40
-6.03069e-41
-1.67344e-41
-6.48685e-42
-6.26533e-42
-3.20182e-40
-5.65176e-38
-2.93514e-37
-6.32215e-37
-7.90794e-37
-6.59517e-37
-3.92965e-37
-1.74164e-37
-5.89431e-38
-1.21721e-132
-2.71764e-110
-7.11081e-88
-4.728e-76
-1.60224e-72
-4.46878e-67
-3.98367e-62
-1.42924e-56
-5.82785e-53
-1.09309e-51
-1.2991e-50
-2.10652e-49
-1.4408e-47
-1.09049e-46
-2.50992e-45
-1.40741e-44
-3.00175e-43
-3.96974e-41
-1.68133e-39
-5.7431e-39
-9.25487e-39
-9.44207e-39
-6.92048e-39
-3.90014e-39
-1.7586e-39
-6.49963e-40
-2.00505e-40
-5.44414e-41
-1.87829e-41
-1.58629e-41
-8.2918e-40
-1.58903e-37
-8.51777e-37
-1.88396e-36
-2.41565e-36
-2.06428e-36
-1.26029e-36
-5.72438e-37
-1.98609e-37
-1.48682e-130
-1.86181e-108
-3.31118e-86
-1.49428e-74
-4.04763e-71
-1.03101e-65
-6.8693e-61
-1.90725e-55
-5.57686e-52
-9.16919e-51
-9.4915e-50
-1.35108e-48
-8.4728e-47
-5.91609e-46
-1.22184e-44
-6.34309e-44
-1.21323e-42
-1.51351e-40
-6.11894e-39
-2.03074e-38
-3.20135e-38
-3.20749e-38
-2.31534e-38
-1.288e-38
-5.74371e-39
-2.10256e-39
-6.4268e-40
-1.71245e-40
-5.34192e-41
-3.89605e-41
-2.06662e-39
-4.3148e-37
-2.39158e-36
-5.43893e-36
-7.15662e-36
-6.27209e-36
-3.9267e-36
-1.82912e-36
-6.50978e-37
-1.73981e-128
-1.24356e-106
-1.50411e-84
-4.60054e-73
-9.98246e-70
-2.37476e-64
-1.1643e-59
-2.47296e-54
-5.16219e-51
-7.43892e-50
-6.69534e-49
-8.34821e-48
-4.7979e-46
-3.09393e-45
-5.72708e-44
-2.74992e-43
-4.71703e-42
-5.54994e-40
-2.14194e-38
-6.90963e-38
-1.06588e-37
-1.04896e-37
-7.45847e-38
-4.09581e-38
-1.80633e-38
-6.54819e-39
-1.98271e-39
-5.19467e-40
-1.48747e-40
-9.28651e-41
-4.94879e-39
-1.13001e-36
-6.4892e-36
-1.51958e-35
-2.05423e-35
-1.8482e-35
-1.18753e-35
-5.67714e-36
-2.07388e-36
-1.94615e-126
-8.0913e-105
-6.65977e-83
-1.37863e-71
-2.40278e-68
-5.42905e-63
-1.9361e-58
-3.11188e-53
-4.61636e-50
-5.83011e-49
-4.55425e-48
-4.96217e-47
-2.61217e-45
-1.55744e-44
-2.58109e-43
-1.14496e-42
-1.76136e-41
-1.95437e-39
-7.20096e-38
-2.25889e-37
-3.41069e-37
-3.29755e-37
-2.3098e-37
-1.2522e-37
-5.46118e-38
-1.96017e-38
-5.87691e-39
-1.51574e-39
-4.03866e-40
-2.14888e-40
-1.13643e-38
-2.85005e-36
-1.69937e-35
-4.10395e-35
-5.70694e-35
-5.27658e-35
-3.48275e-35
-1.71007e-35
-6.41637e-36
-2.07632e-124
-5.1242e-103
-2.87198e-81
-4.0179e-70
-5.64378e-67
-1.22465e-61
-3.15178e-57
-3.7956e-52
-3.983e-49
-4.40843e-48
-2.98338e-47
-2.83304e-46
-1.36508e-44
-7.53442e-44
-1.1168e-42
-4.57058e-42
-6.30571e-41
-6.59821e-39
-2.32128e-37
-7.08406e-37
-1.04723e-36
-9.94862e-37
-6.86565e-37
-3.67443e-37
-1.5846e-37
-5.62984e-38
-1.67045e-38
-4.24304e-39
-1.06416e-39
-4.82707e-40
-2.49728e-38
-6.91156e-36
-4.28923e-35
-1.07009e-34
-1.53279e-34
-1.45806e-34
-9.8955e-35
-4.99458e-35
-1.9262e-35
-2.10763e-122
-3.15588e-101
-1.20535e-79
-1.13796e-68
-1.29366e-65
-2.71089e-60
-5.01101e-56
-4.48158e-51
-3.31096e-48
-3.21182e-47
-1.8796e-46
-1.55107e-45
-6.83502e-44
-3.49689e-43
-4.63198e-42
-1.74612e-41
-2.16027e-40
-2.13201e-38
-7.16269e-37
-2.12753e-36
-3.08009e-36
-2.87555e-36
-1.95526e-36
-1.03303e-36
-4.40446e-37
-1.54841e-37
-4.54361e-38
-1.13636e-38
-2.70705e-39
-1.05173e-39
-5.23838e-38
-1.60871e-35
-1.04187e-34
-2.6903e-34
-3.97533e-34
-3.89532e-34
-2.72113e-34
-1.41307e-34
-5.60562e-35
-2.03024e-120
-1.88841e-99
-4.91895e-78
-3.12952e-67
-2.89421e-64
-5.86027e-59
-7.76166e-55
-5.11579e-50
-2.64786e-47
-2.25147e-46
-1.13729e-45
-8.12954e-45
-3.27267e-43
-1.55418e-42
-1.83843e-41
-6.37146e-41
-7.06771e-40
-6.58076e-38
-2.11177e-36
-6.10777e-36
-8.66189e-36
-7.94804e-36
-5.32503e-36
-2.77709e-36
-1.17038e-36
-4.06954e-37
-1.17994e-37
-2.90312e-38
-6.61132e-39
-2.21791e-39
-1.04581e-37
-3.58658e-35
-2.43149e-34
-6.51213e-34
-9.94294e-34
-1.00495e-33
-7.23408e-34
-3.86867e-34
-1.5799e-34
-1.85079e-118
-1.09659e-97
-1.94975e-76
-8.34899e-66
-6.32023e-63
-1.23175e-57
-1.16818e-53
-5.6386e-49
-2.0342e-46
-1.51637e-45
-6.59919e-45
-4.07152e-44
-1.49531e-42
-6.60117e-42
-6.97005e-41
-2.21581e-40
-2.20321e-39
-1.93646e-37
-5.93737e-36
-1.67289e-35
-2.32456e-35
-2.0966e-35
-1.38403e-35
-7.12365e-36
-2.96661e-36
-1.01968e-36
-2.91809e-37
-7.05215e-38
-1.54102e-38
-4.50862e-39
-1.97996e-37
-7.64164e-35
-5.44188e-34
-1.51529e-33
-2.39495e-33
-2.50051e-33
-1.85706e-33
-1.02379e-33
-4.3078e-34
-1.5919e-116
-6.16915e-96
-7.49415e-75
-2.15767e-64
-1.34673e-61
-2.50663e-56
-1.70339e-52
-5.99241e-48
-1.49905e-45
-9.79804e-45
-3.66657e-44
-1.9447e-43
-6.50488e-42
-2.67356e-41
-2.51942e-40
-7.3271e-40
-6.52729e-39
-5.42046e-37
-1.58862e-35
-4.36189e-35
-5.93988e-35
-5.26612e-35
-3.42482e-35
-1.73927e-35
-7.15408e-36
-2.42901e-36
-6.85151e-37
-1.62267e-37
-3.40544e-38
-8.77612e-39
-3.538e-37
-1.55158e-34
-1.16539e-33
-3.38287e-33
-5.5459e-33
-5.99101e-33
-4.59647e-33
-2.61505e-33
-1.13471e-33
-1.28727e-114
-3.3549e-94
-2.78769e-73
-5.39091e-63
-2.79753e-60
-4.91851e-55
-2.398e-51
-6.12906e-47
-1.058e-44
-6.06461e-44
-1.9477e-43
-8.84023e-43
-2.68757e-41
-1.03005e-40
-8.66472e-40
-2.29785e-39
-1.83256e-38
-1.43969e-36
-4.03559e-35
-9.7418e-113
-1.76044e-92
-1.00225e-71
-1.29978e-61
-5.66038e-59
-9.27594e-54
-3.24741e-50
-6.017e-46
-7.13634e-44
-3.58849e-43
-9.87673e-43
-3.81638e-42
-1.05151e-40
-3.76424e-40
-2.82851e-39
-6.81392e-39
-4.85894e-38
-4.77188e-42
-1.56064e-41
-1.1144e-154
-5.89807e-146
-3.30765e-138
-3.11518e-130
-3.83788e-123
-3.46665e-114
-6.45538e-107
-9.1905e-99
-4.52687e-91
-4.46529e-88
-1.83556e-85
-9.99119e-83
-1.22778e-79
-1.59083e-77
-8.14093e-75
-4.15827e-73
-7.18883e-70
-5.88067e-67
-1.11683e-64
-1.15861e-63
-4.36932e-63
-9.09524e-63
-1.22836e-62
-1.16722e-62
-8.19207e-63
-4.47233e-63
-1.08673e-62
-1.00783e-61
-3.74743e-61
-7.52436e-61
-1.17611e-59
-4.26674e-58
-1.34004e-57
-1.84114e-57
-1.46093e-57
-7.52857e-58
-2.68195e-58
-6.86001e-59
-1.29159e-59
-4.98136e-152
-1.08286e-143
-3.96925e-136
-1.72054e-128
-1.65472e-121
-1.1526e-112
-1.82932e-105
-2.24388e-97
-8.59049e-90
-7.49861e-87
-2.78512e-84
-1.36653e-81
-1.54109e-78
-1.82652e-76
-8.60789e-74
-4.10134e-72
-6.3224e-69
-4.91865e-66
-8.93565e-64
-8.93643e-63
-3.27464e-62
-6.64989e-62
-8.78818e-62
-8.19429e-62
-5.65723e-62
-3.03524e-62
-6.19445e-62
-5.48598e-61
-2.01956e-60
-4.02865e-60
-6.51466e-59
-2.43537e-57
-7.70067e-57
-1.06501e-56
-8.51521e-57
-4.4278e-57
-1.59403e-57
-4.12673e-58
-7.87604e-59
-2.04575e-149
-1.85272e-141
-4.4501e-134
-9.36987e-127
-7.04303e-120
-3.77938e-111
-5.11616e-104
-5.41221e-96
-1.60649e-88
-1.24064e-85
-4.16153e-83
-1.84008e-80
-1.90443e-77
-2.06475e-75
-8.95864e-73
-3.98152e-71
-5.47419e-68
-4.04994e-65
-7.03751e-63
-6.78562e-62
-2.41645e-61
-4.788e-61
-6.19283e-61
-5.66714e-61
-3.84943e-61
-2.0313e-61
-3.49728e-61
-2.938e-60
-1.07071e-59
-2.12246e-59
-3.55178e-58
-1.36936e-56
-4.36105e-56
-6.0733e-56
-4.89444e-56
-2.56887e-56
-9.34869e-57
-2.45035e-57
-4.74202e-58
-7.47933e-147
-2.93796e-139
-4.63996e-132
-5.03456e-125
-2.95998e-118
-1.22232e-109
-1.41214e-102
-1.2882e-94
-2.96009e-87
-2.02183e-84
-6.12178e-82
-2.43853e-79
-2.31627e-76
-2.29728e-74
-9.17399e-72
-3.80305e-70
-4.66467e-67
-3.28161e-64
-5.45409e-62
-5.07082e-61
-1.75521e-60
-3.39398e-60
-4.29713e-60
-3.86012e-60
-2.58026e-60
-1.34006e-60
-1.95725e-60
-1.54768e-59
-5.58275e-59
-1.09996e-58
-1.90539e-57
-7.58292e-56
-2.43328e-55
-3.41339e-55
-2.77361e-55
-1.46983e-55
-5.4089e-56
-1.43576e-56
-2.81823e-57
-2.31609e-144
-4.28349e-137
-4.47306e-130
-2.66874e-123
-1.22797e-116
-3.89811e-108
-3.84567e-101
-3.02342e-93
-5.37266e-86
-3.2447e-83
-8.8638e-81
-3.1798e-78
-2.77209e-75
-2.51522e-73
-9.24166e-71
-3.57337e-69
-3.91098e-66
-2.61612e-63
-4.15842e-61
-3.72841e-60
-1.2546e-59
-2.36792e-59
-2.93529e-59
-2.58884e-59
-1.70328e-59
-8.71144e-60
-1.0867e-59
-8.01778e-59
-2.8619e-58
-5.60587e-58
-1.00548e-56
-4.13428e-55
-1.33726e-54
-1.89028e-54
-1.54921e-54
-8.29182e-55
-3.08643e-55
-8.2995e-56
-1.65283e-56
-5.66988e-142
-5.69586e-135
-3.96701e-128
-1.39635e-121
-5.0297e-115
-1.22595e-106
-1.03329e-99
-6.99505e-92
-9.60409e-85
-5.1267e-82
-1.26288e-79
-4.07865e-77
-3.26343e-74
-2.70898e-72
-9.15513e-70
-3.30168e-68
-3.22523e-65
-2.05121e-62
-3.1181e-60
-2.69639e-59
-8.82205e-59
-1.62554e-58
-1.97325e-58
-1.70904e-58
-1.10698e-58
-5.57847e-59
-5.9905e-59
-4.08392e-58
-1.44195e-57
-2.80861e-57
-5.21758e-56
-2.2186e-54
-7.2366e-54
-1.03115e-53
-8.52662e-54
-4.61078e-54
-1.73651e-54
-4.73173e-55
-9.56318e-56
-1.0053e-139
-6.83385e-133
-3.21898e-126
-7.21082e-120
-2.03353e-113
-3.80154e-105
-2.73864e-98
-1.59486e-90
-1.69047e-83
-7.97336e-81
-1.77013e-78
-5.14488e-76
-3.77825e-73
-2.86951e-71
-8.91641e-69
-2.99909e-67
-2.61532e-64
-1.58131e-61
-2.29868e-59
-1.91746e-58
-6.10087e-58
-1.09765e-57
-1.30507e-57
-1.11021e-57
-7.08094e-58
-3.51756e-58
-3.28105e-58
-2.0449e-57
-7.13816e-57
-1.38284e-56
-2.6615e-55
-1.17149e-53
-3.85496e-53
-5.53917e-53
-4.62299e-53
-2.52649e-53
-9.63048e-54
-2.65989e-54
-5.45721e-55
-1.34001e-137
-7.31238e-131
-2.38026e-124
-3.67627e-118
-8.11617e-112
-1.16234e-103
-7.1596e-97
-3.58279e-89
-2.92923e-82
-1.22034e-79
-2.44022e-77
-6.38027e-75
-4.30042e-72
-2.98838e-70
-8.5344e-68
-2.67723e-66
-2.08459e-63
-1.1982e-60
-1.66547e-58
-1.34032e-57
-4.14788e-57
-7.28835e-57
-8.48922e-57
-7.0946e-57
-4.45655e-57
-2.18327e-57
-1.78649e-57
-1.00639e-56
-3.47063e-56
-6.68844e-56
-1.3341e-54
-6.0846e-53
-2.02084e-52
-2.9293e-52
-2.46841e-52
-1.3638e-52
-5.26309e-53
-1.47386e-53
-3.07047e-54
-2.33768e-135
-6.87753e-129
-1.59858e-122
-1.85004e-116
-3.19707e-110
-3.50377e-102
-1.84586e-95
-7.92825e-88
-4.99561e-81
-1.83764e-78
-3.30766e-76
-7.77663e-74
-4.81077e-71
-3.05896e-69
-8.02569e-67
-2.34795e-65
-1.63271e-62
-8.92061e-60
-1.18555e-57
-9.20612e-57
-2.77155e-56
-4.75706e-56
-5.42918e-56
-4.4583e-56
-2.75876e-56
-1.33335e-56
-9.67311e-57
-4.86751e-56
-1.65674e-55
-3.17674e-55
-6.56885e-54
-3.10751e-52
-1.04215e-51
-1.52454e-51
-1.29755e-51
-7.25e-52
-2.83351e-52
-8.04753e-53
-1.70284e-53
-3.37251e-133
-5.59439e-127
-9.73202e-121
-9.18994e-115
-1.24289e-108
-1.04125e-100
-4.6927e-94
-1.72785e-86
-8.38313e-80
-2.72178e-77
-4.40701e-75
-9.31288e-73
-5.28748e-70
-3.07659e-68
-7.41238e-66
-2.02228e-64
-1.25609e-61
-6.52307e-59
-8.28826e-57
-6.21115e-56
-1.81938e-55
-3.05096e-55
-3.41253e-55
-2.75405e-55
-1.67911e-55
-8.00901e-56
-5.20878e-56
-2.31346e-55
-7.76167e-55
-1.48104e-54
-3.17582e-53
-1.55998e-51
-5.28518e-51
-7.80595e-51
-6.7127e-51
-3.79439e-51
-1.50231e-51
-4.32862e-52
-9.30552e-53
-3.92997e-131
-3.86516e-125
-5.35947e-119
-4.50469e-113
-4.76767e-107
-3.05034e-99
-1.17621e-92
-3.70773e-85
-1.38386e-78
-3.96409e-76
-5.76996e-74
-1.09541e-71
-5.70785e-69
-3.03938e-67
-6.72119e-65
-1.70996e-63
-9.48852e-61
-4.68313e-58
-5.68847e-56
-4.11461e-55
-1.1729e-54
-1.92201e-54
-2.1073e-54
-1.67175e-54
-1.00445e-54
-4.72972e-55
-2.78867e-55
-1.08051e-54
-3.56729e-54
-6.77477e-54
-1.50698e-52
-7.69463e-51
-2.6349e-50
-3.93069e-50
-3.4166e-50
-1.95442e-50
-7.84162e-51
-2.29285e-51
-5.00917e-52
-3.59631e-129
-2.23662e-123
-2.66399e-117
-2.17855e-111
-1.80437e-105
-8.80872e-98
-2.90608e-91
-7.83187e-84
-2.24656e-77
-5.67528e-75
-7.42089e-73
-1.26506e-70
-6.04949e-68
-2.94821e-66
-5.98102e-64
-1.41888e-62
-7.03491e-60
-3.29965e-57
-3.83124e-55
-2.67528e-54
-7.42268e-54
-1.18884e-53
-1.27795e-53
-9.96767e-54
-5.90324e-54
-2.74491e-54
-1.48352e-54
-4.95954e-54
-1.60777e-53
-3.03927e-53
-7.01546e-52
-3.72775e-50
-1.29086e-49
-1.94585e-49
-1.71024e-49
-9.90411e-50
-4.02823e-50
-1.19562e-50
-2.65523e-51
-2.40422e-127
-1.09215e-121
-1.19484e-115
-1.03911e-109
-6.73589e-104
-2.50735e-96
-7.07628e-90
-1.62796e-82
-3.58562e-76
-7.98467e-74
-9.37244e-72
-1.43391e-69
-6.29251e-67
-2.80693e-65
-5.22121e-63
-1.15492e-61
-5.11705e-59
-2.28066e-56
-2.53108e-54
-1.70651e-53
-4.60934e-53
-7.21697e-53
-7.60768e-53
-5.83518e-53
-3.40703e-53
-1.56482e-53
-7.83518e-54
-2.23763e-53
-7.10283e-53
-1.33656e-52
-3.20259e-51
-1.77302e-49
-6.21201e-49
-9.46638e-49
-8.41641e-49
-4.93602e-49
-2.03579e-49
-6.13556e-50
-1.38549e-50
-1.04125e-125
-4.77235e-120
-4.86814e-114
-4.88675e-108
-2.47996e-102
-7.03487e-95
-1.69788e-88
-3.32911e-81
-5.6244e-75
-1.10355e-72
-1.16196e-70
-1.59451e-68
-6.421e-66
-2.62194e-64
-4.46933e-62
-9.21735e-61
-3.64993e-58
-1.54568e-55
-1.63946e-53
-1.06747e-52
-2.80738e-52
-4.2979e-52
-4.44375e-52
-3.35244e-52
-1.93016e-52
-8.75874e-53
-4.10361e-53
-9.9269e-53
-3.07449e-52
-5.75891e-52
-1.43297e-50
-8.27564e-49
-2.93525e-48
-4.52397e-48
-4.0704e-48
-2.41848e-48
-1.01182e-48
-3.09743e-49
-7.11403e-50
-5.70956e-124
-1.96811e-118
-1.82164e-112
-2.26507e-106
-9.00281e-101
-1.94553e-93
-4.01355e-87
-6.69524e-80
-8.66748e-74
-1.49775e-71
-1.4135e-69
-1.73879e-67
-6.42488e-65
-2.40187e-63
-3.74966e-61
-7.20964e-60
-2.5518e-57
-1.02668e-54
-1.04067e-52