/*--------------------------------*- C++ -*----------------------------------*\
| =========                 |                                                 |
| \\      /  F ield         | OpenFOAM: The Open Source CFD Toolbox           |
|  \\    /   O peration     | Version:  v2012                                 |
|   \\  /    A nd           | Website:  www.openfoam.com                      |
|    \\/     M anipulation  |                                                 |
\*---------------------------------------------------------------------------*/
FoamFile
{
    version     2.0;
    format      ascii;
    class       volScalarField;
    location    "0.2";
    object      p_rgh;
}
// * * * * * * * * * * * * * * * * * * * * * * * * * * * * * * * * * * * * * //

dimensions      [1 -1 -2 0 0 0 0];


internalField   nonuniform List<scalar> 
3326
(
3.49863e+06
3.49866e+06
3.49868e+06
3.4987e+06
3.49872e+06
3.49873e+06
3.49874e+06
3.49875e+06
3.49876e+06
3.49853e+06
3.49856e+06
3.49859e+06
3.49862e+06
3.49864e+06
3.49866e+06
3.49868e+06
3.4987e+06
3.49872e+06
3.49873e+06
3.49874e+06
3.49875e+06
3.49618e+06
3.49631e+06
3.49642e+06
3.49653e+06
3.49664e+06
3.49673e+06
3.49683e+06
3.49692e+06
3.49701e+06
3.4971e+06
3.49718e+06
3.49726e+06
3.49734e+06
3.49742e+06
3.49749e+06
3.49756e+06
3.49763e+06
3.4977e+06
3.49776e+06
3.49783e+06
3.49789e+06
3.49795e+06
3.49801e+06
3.49806e+06
3.49812e+06
3.49817e+06
3.49822e+06
3.49827e+06
3.49831e+06
3.49835e+06
3.4984e+06
3.49844e+06
3.49847e+06
3.49851e+06
3.49854e+06
3.49857e+06
3.4986e+06
3.49863e+06
3.49865e+06
3.49867e+06
3.49869e+06
3.49871e+06
3.49872e+06
3.49873e+06
3.49874e+06
3.496e+06
3.49615e+06
3.49627e+06
3.49638e+06
3.4965e+06
3.4966e+06
3.4967e+06
3.4968e+06
3.4969e+06
3.49699e+06
3.49708e+06
3.49717e+06
3.49726e+06
3.49734e+06
3.49742e+06
3.49749e+06
3.49757e+06
3.49764e+06
3.49771e+06
3.49778e+06
3.49784e+06
3.4979e+06
3.49796e+06
3.49802e+06
3.49808e+06
3.49813e+06
3.49819e+06
3.49824e+06
3.49828e+06
3.49833e+06
3.49837e+06
3.49841e+06
3.49845e+06
3.49849e+06
3.49852e+06
3.49856e+06
3.49859e+06
3.49861e+06
3.49864e+06
3.49866e+06
3.49868e+06
3.49869e+06
3.49871e+06
3.49872e+06
3.49873e+06
3.49582e+06
3.49598e+06
3.49611e+06
3.49622e+06
3.49635e+06
3.49646e+06
3.49657e+06
3.49668e+06
3.49678e+06
3.49689e+06
3.49698e+06
3.49708e+06
3.49717e+06
3.49726e+06
3.49734e+06
3.49742e+06
3.4975e+06
3.49758e+06
3.49765e+06
3.49772e+06
3.49779e+06
3.49786e+06
3.49792e+06
3.49798e+06
3.49804e+06
3.4981e+06
3.49815e+06
3.49821e+06
3.49826e+06
3.4983e+06
3.49835e+06
3.49839e+06
3.49843e+06
3.49847e+06
3.49851e+06
3.49854e+06
3.49857e+06
3.4986e+06
3.49862e+06
3.49864e+06
3.49866e+06
3.49868e+06
3.49869e+06
3.49871e+06
3.49871e+06
3.49562e+06
3.49581e+06
3.49595e+06
3.49606e+06
3.49618e+06
3.49631e+06
3.49643e+06
3.49655e+06
3.49666e+06
3.49677e+06
3.49688e+06
3.49698e+06
3.49708e+06
3.49717e+06
3.49726e+06
3.49735e+06
3.49743e+06
3.49751e+06
3.49759e+06
3.49767e+06
3.49774e+06
3.49781e+06
3.49788e+06
3.49794e+06
3.498e+06
3.49806e+06
3.49812e+06
3.49818e+06
3.49823e+06
3.49828e+06
3.49833e+06
3.49837e+06
3.49841e+06
3.49845e+06
3.49849e+06
3.49852e+06
3.49855e+06
3.49858e+06
3.49861e+06
3.49863e+06
3.49865e+06
3.49867e+06
3.49868e+06
3.49869e+06
3.4987e+06
3.4954e+06
3.49562e+06
3.49577e+06
3.49588e+06
3.49601e+06
3.49615e+06
3.49628e+06
3.49641e+06
3.49653e+06
3.49665e+06
3.49677e+06
3.49688e+06
3.49698e+06
3.49708e+06
3.49718e+06
3.49727e+06
3.49736e+06
3.49745e+06
3.49753e+06
3.49761e+06
3.49769e+06
3.49776e+06
3.49783e+06
3.4979e+06
3.49797e+06
3.49803e+06
3.49809e+06
3.49815e+06
3.4982e+06
3.49825e+06
3.4983e+06
3.49835e+06
3.49839e+06
3.49843e+06
3.49847e+06
3.49851e+06
3.49854e+06
3.49857e+06
3.49859e+06
3.49862e+06
3.49864e+06
3.49866e+06
3.49867e+06
3.49868e+06
3.49869e+06
3.49518e+06
3.49541e+06
3.49557e+06
3.49569e+06
3.49583e+06
3.49598e+06
3.49612e+06
3.49626e+06
3.4964e+06
3.49652e+06
3.49665e+06
3.49677e+06
3.49688e+06
3.49699e+06
3.49709e+06
3.49719e+06
3.49729e+06
3.49738e+06
3.49747e+06
3.49755e+06
3.49763e+06
3.49771e+06
3.49779e+06
3.49786e+06
3.49793e+06
3.49799e+06
3.49806e+06
3.49812e+06
3.49817e+06
3.49823e+06
3.49828e+06
3.49833e+06
3.49837e+06
3.49842e+06
3.49845e+06
3.49849e+06
3.49852e+06
3.49855e+06
3.49858e+06
3.49861e+06
3.49863e+06
3.49864e+06
3.49866e+06
3.49867e+06
3.49868e+06
3.49499e+06
3.49521e+06
3.49537e+06
3.49549e+06
3.49564e+06
3.4958e+06
3.49595e+06
3.49611e+06
3.49625e+06
3.49639e+06
3.49652e+06
3.49665e+06
3.49677e+06
3.49689e+06
3.497e+06
3.49711e+06
3.49721e+06
3.4973e+06
3.4974e+06
3.49749e+06
3.49758e+06
3.49766e+06
3.49774e+06
3.49781e+06
3.49789e+06
3.49796e+06
3.49802e+06
3.49809e+06
3.49815e+06
3.4982e+06
3.49826e+06
3.49831e+06
3.49835e+06
3.4984e+06
3.49844e+06
3.49848e+06
3.49851e+06
3.49854e+06
3.49857e+06
3.49859e+06
3.49861e+06
3.49863e+06
3.49865e+06
3.49866e+06
3.49867e+06
3.49469e+06
3.49495e+06
3.49513e+06
3.49528e+06
3.49545e+06
3.49561e+06
3.49578e+06
3.49594e+06
3.4961e+06
3.49625e+06
3.49639e+06
3.49653e+06
3.49666e+06
3.49678e+06
3.4969e+06
3.49702e+06
3.49712e+06
3.49723e+06
3.49733e+06
3.49742e+06
3.49752e+06
3.4976e+06
3.49769e+06
3.49777e+06
3.49785e+06
3.49792e+06
3.49799e+06
3.49805e+06
3.49812e+06
3.49818e+06
3.49823e+06
3.49828e+06
3.49833e+06
3.49838e+06
3.49842e+06
3.49846e+06
3.49849e+06
3.49853e+06
3.49856e+06
3.49858e+06
3.4986e+06
3.49862e+06
3.49864e+06
3.49865e+06
3.49866e+06
3.49445e+06
3.49472e+06
3.49489e+06
3.49505e+06
3.49523e+06
3.49541e+06
3.49559e+06
3.49576e+06
3.49593e+06
3.49609e+06
3.49625e+06
3.49639e+06
3.49654e+06
3.49667e+06
3.4968e+06
3.49692e+06
3.49704e+06
3.49715e+06
3.49726e+06
3.49736e+06
3.49746e+06
3.49755e+06
3.49764e+06
3.49772e+06
3.4978e+06
3.49788e+06
3.49795e+06
3.49802e+06
3.49809e+06
3.49815e+06
3.49821e+06
3.49826e+06
3.49831e+06
3.49836e+06
3.4984e+06
3.49844e+06
3.49848e+06
3.49851e+06
3.49854e+06
3.49857e+06
3.49859e+06
3.49861e+06
3.49862e+06
3.49864e+06
3.49864e+06
3.49413e+06
3.49443e+06
3.49463e+06
3.49481e+06
3.49501e+06
3.4952e+06
3.49539e+06
3.49557e+06
3.49575e+06
3.49593e+06
3.49609e+06
3.49625e+06
3.49641e+06
3.49655e+06
3.49669e+06
3.49682e+06
3.49695e+06
3.49707e+06
3.49718e+06
3.49729e+06
3.49739e+06
3.49749e+06
3.49759e+06
3.49768e+06
3.49776e+06
3.49784e+06
3.49792e+06
3.49799e+06
3.49806e+06
3.49812e+06
3.49818e+06
3.49824e+06
3.49829e+06
3.49834e+06
3.49839e+06
3.49843e+06
3.49847e+06
3.4985e+06
3.49853e+06
3.49856e+06
3.49858e+06
3.4986e+06
3.49861e+06
3.49863e+06
3.49863e+06
3.49386e+06
3.49416e+06
3.49437e+06
3.49455e+06
3.49476e+06
3.49496e+06
3.49517e+06
3.49537e+06
3.49556e+06
3.49575e+06
3.49593e+06
3.49611e+06
3.49627e+06
3.49643e+06
3.49657e+06
3.49671e+06
3.49685e+06
3.49698e+06
3.4971e+06
3.49722e+06
3.49733e+06
3.49743e+06
3.49753e+06
3.49763e+06
3.49772e+06
3.4978e+06
3.49788e+06
3.49796e+06
3.49803e+06
3.4981e+06
3.49816e+06
3.49822e+06
3.49827e+06
3.49832e+06
3.49837e+06
3.49841e+06
3.49845e+06
3.49849e+06
3.49852e+06
3.49855e+06
3.49857e+06
3.49859e+06
3.4986e+06
3.49861e+06
3.49862e+06
3.49346e+06
3.49381e+06
3.49405e+06
3.49425e+06
3.49449e+06
3.49471e+06
3.49493e+06
3.49515e+06
3.49536e+06
3.49556e+06
3.49576e+06
3.49595e+06
3.49612e+06
3.49629e+06
3.49645e+06
3.4966e+06
3.49675e+06
3.49689e+06
3.49702e+06
3.49714e+06
3.49726e+06
3.49737e+06
3.49748e+06
3.49758e+06
3.49767e+06
3.49776e+06
3.49785e+06
3.49793e+06
3.498e+06
3.49807e+06
3.49814e+06
3.4982e+06
3.49825e+06
3.49831e+06
3.49835e+06
3.4984e+06
3.49844e+06
3.49847e+06
3.49851e+06
3.49853e+06
3.49856e+06
3.49858e+06
3.49859e+06
3.4986e+06
3.49861e+06
3.49313e+06
3.49349e+06
3.4937e+06
3.49392e+06
3.49419e+06
3.49443e+06
3.49467e+06
3.49491e+06
3.49514e+06
3.49536e+06
3.49557e+06
3.49578e+06
3.49597e+06
3.49615e+06
3.49632e+06
3.49649e+06
3.49664e+06
3.49679e+06
3.49693e+06
3.49706e+06
3.49719e+06
3.49731e+06
3.49742e+06
3.49753e+06
3.49763e+06
3.49772e+06
3.49781e+06
3.49789e+06
3.49797e+06
3.49805e+06
3.49811e+06
3.49818e+06
3.49824e+06
3.49829e+06
3.49834e+06
3.49838e+06
3.49843e+06
3.49846e+06
3.4985e+06
3.49852e+06
3.49855e+06
3.49857e+06
3.49858e+06
3.49859e+06
3.4986e+06
3.4926e+06
3.49304e+06
3.4933e+06
3.49357e+06
3.49386e+06
3.49412e+06
3.49438e+06
3.49465e+06
3.4949e+06
3.49514e+06
3.49537e+06
3.49559e+06
3.4958e+06
3.496e+06
3.49618e+06
3.49636e+06
3.49653e+06
3.49669e+06
3.49684e+06
3.49698e+06
3.49712e+06
3.49724e+06
3.49736e+06
3.49748e+06
3.49758e+06
3.49768e+06
3.49777e+06
3.49786e+06
3.49794e+06
3.49802e+06
3.49809e+06
3.49816e+06
3.49822e+06
3.49827e+06
3.49832e+06
3.49837e+06
3.49841e+06
3.49845e+06
3.49848e+06
3.49851e+06
3.49854e+06
3.49856e+06
3.49857e+06
3.49858e+06
3.49859e+06
3.49235e+06
3.49277e+06
3.49292e+06
3.49319e+06
3.49351e+06
3.49378e+06
3.49408e+06
3.49436e+06
3.49464e+06
3.4949e+06
3.49516e+06
3.4954e+06
3.49562e+06
3.49584e+06
3.49604e+06
3.49623e+06
3.49641e+06
3.49658e+06
3.49674e+06
3.4969e+06
3.49704e+06
3.49718e+06
3.4973e+06
3.49742e+06
3.49753e+06
3.49764e+06
3.49774e+06
3.49783e+06
3.49791e+06
3.49799e+06
3.49807e+06
3.49813e+06
3.4982e+06
3.49826e+06
3.49831e+06
3.49836e+06
3.4984e+06
3.49844e+06
3.49847e+06
3.4985e+06
3.49853e+06
3.49855e+06
3.49856e+06
3.49858e+06
3.49858e+06
3.49158e+06
3.49211e+06
3.49231e+06
3.4927e+06
3.49309e+06
3.49339e+06
3.49373e+06
3.49405e+06
3.49436e+06
3.49465e+06
3.49492e+06
3.49518e+06
3.49543e+06
3.49566e+06
3.49588e+06
3.49609e+06
3.49629e+06
3.49647e+06
3.49665e+06
3.49681e+06
3.49696e+06
3.49711e+06
3.49724e+06
3.49737e+06
3.49749e+06
3.4976e+06
3.4977e+06
3.49779e+06
3.49788e+06
3.49797e+06
3.49804e+06
3.49811e+06
3.49818e+06
3.49824e+06
3.49829e+06
3.49834e+06
3.49839e+06
3.49843e+06
3.49846e+06
3.49849e+06
3.49852e+06
3.49854e+06
3.49856e+06
3.49857e+06
3.49857e+06
3.49111e+06
3.49166e+06
3.49177e+06
3.49223e+06
3.49265e+06
3.49298e+06
3.49336e+06
3.49371e+06
3.49405e+06
3.49437e+06
3.49467e+06
3.49495e+06
3.49522e+06
3.49548e+06
3.49572e+06
3.49594e+06
3.49616e+06
3.49636e+06
3.49654e+06
3.49672e+06
3.49688e+06
3.49704e+06
3.49718e+06
3.49731e+06
3.49744e+06
3.49755e+06
3.49766e+06
3.49776e+06
3.49785e+06
3.49794e+06
3.49802e+06
3.49809e+06
3.49816e+06
3.49822e+06
3.49828e+06
3.49833e+06
3.49838e+06
3.49842e+06
3.49845e+06
3.49848e+06
3.49851e+06
3.49853e+06
3.49855e+06
3.49856e+06
3.49856e+06
3.49025e+06
3.49086e+06
3.49105e+06
3.49163e+06
3.49213e+06
3.49251e+06
3.49293e+06
3.49333e+06
3.49371e+06
3.49406e+06
3.49439e+06
3.49471e+06
3.495e+06
3.49528e+06
3.49554e+06
3.49579e+06
3.49602e+06
3.49623e+06
3.49644e+06
3.49662e+06
3.4968e+06
3.49696e+06
3.49712e+06
3.49726e+06
3.49739e+06
3.49751e+06
3.49762e+06
3.49773e+06
3.49783e+06
3.49791e+06
3.498e+06
3.49807e+06
3.49814e+06
3.49821e+06
3.49826e+06
3.49832e+06
3.49836e+06
3.49841e+06
3.49844e+06
3.49847e+06
3.4985e+06
3.49852e+06
3.49854e+06
3.49855e+06
3.49855e+06
3.48966e+06
3.49027e+06
3.49041e+06
3.49103e+06
3.49158e+06
3.492e+06
3.49247e+06
3.49292e+06
3.49333e+06
3.49372e+06
3.49409e+06
3.49444e+06
3.49477e+06
3.49507e+06
3.49536e+06
3.49562e+06
3.49587e+06
3.49611e+06
3.49632e+06
3.49653e+06
3.49672e+06
3.49689e+06
3.49705e+06
3.4972e+06
3.49734e+06
3.49747e+06
3.49759e+06
3.4977e+06
3.4978e+06
3.49789e+06
3.49797e+06
3.49805e+06
3.49813e+06
3.49819e+06
3.49825e+06
3.4983e+06
3.49835e+06
3.4984e+06
3.49843e+06
3.49847e+06
3.49849e+06
3.49851e+06
3.49853e+06
3.49854e+06
3.49855e+06
3.4883e+06
3.48916e+06
3.48946e+06
3.49022e+06
3.49089e+06
3.4914e+06
3.49194e+06
3.49245e+06
3.49292e+06
3.49335e+06
3.49377e+06
3.49415e+06
3.49451e+06
3.49484e+06
3.49516e+06
3.49545e+06
3.49572e+06
3.49598e+06
3.49621e+06
3.49643e+06
3.49663e+06
3.49681e+06
3.49699e+06
3.49714e+06
3.49729e+06
3.49742e+06
3.49755e+06
3.49766e+06
3.49777e+06
3.49786e+06
3.49795e+06
3.49803e+06
3.49811e+06
3.49818e+06
3.49824e+06
3.49829e+06
3.49834e+06
3.49839e+06
3.49842e+06
3.49846e+06
3.49849e+06
3.49851e+06
3.49852e+06
3.49853e+06
3.49854e+06
3.48739e+06
3.48829e+06
3.48861e+06
3.48944e+06
3.49018e+06
3.49075e+06
3.49136e+06
3.49193e+06
3.49246e+06
3.49295e+06
3.49341e+06
3.49384e+06
3.49423e+06
3.4946e+06
3.49495e+06
3.49527e+06
3.49556e+06
3.49584e+06
3.49609e+06
3.49632e+06
3.49654e+06
3.49674e+06
3.49692e+06
3.49709e+06
3.49724e+06
3.49738e+06
3.49751e+06
3.49763e+06
3.49774e+06
3.49784e+06
3.49793e+06
3.49802e+06
3.49809e+06
3.49816e+06
3.49822e+06
3.49828e+06
3.49833e+06
3.49838e+06
3.49842e+06
3.49845e+06
3.49848e+06
3.4985e+06
3.49852e+06
3.49853e+06
3.49853e+06
3.48547e+06
3.48674e+06
3.48733e+06
3.48837e+06
3.48927e+06
3.48998e+06
3.49069e+06
3.49135e+06
3.49195e+06
3.4925e+06
3.49302e+06
3.49349e+06
3.49394e+06
3.49435e+06
3.49473e+06
3.49507e+06
3.4954e+06
3.49569e+06
3.49597e+06
3.49622e+06
3.49645e+06
3.49666e+06
3.49685e+06
3.49703e+06
3.49719e+06
3.49734e+06
3.49747e+06
3.4976e+06
3.49771e+06
3.49782e+06
3.49791e+06
3.498e+06
3.49808e+06
3.49815e+06
3.49821e+06
3.49827e+06
3.49832e+06
3.49837e+06
3.49841e+06
3.49844e+06
3.49847e+06
3.49849e+06
3.49851e+06
3.49852e+06
3.49852e+06
3.48433e+06
3.48564e+06
3.48627e+06
3.48738e+06
3.48836e+06
3.48917e+06
3.48997e+06
3.49071e+06
3.49139e+06
3.49201e+06
3.49259e+06
3.49313e+06
3.49362e+06
3.49407e+06
3.49449e+06
3.49487e+06
3.49523e+06
3.49555e+06
3.49584e+06
3.49611e+06
3.49636e+06
3.49658e+06
3.49678e+06
3.49697e+06
3.49714e+06
3.4973e+06
3.49744e+06
3.49757e+06
3.49768e+06
3.49779e+06
3.49789e+06
3.49798e+06
3.49806e+06
3.49813e+06
3.4982e+06
3.49826e+06
3.49831e+06
3.49836e+06
3.4984e+06
3.49844e+06
3.49846e+06
3.49849e+06
3.4985e+06
3.49851e+06
3.49852e+06
3.48155e+06
3.4835e+06
3.48453e+06
3.48596e+06
3.48717e+06
3.48817e+06
3.48912e+06
3.48998e+06
3.49076e+06
3.49148e+06
3.49213e+06
3.49273e+06
3.49328e+06
3.49378e+06
3.49424e+06
3.49466e+06
3.49505e+06
3.4954e+06
3.49571e+06
3.496e+06
3.49626e+06
3.4965e+06
3.49672e+06
3.49691e+06
3.49709e+06
3.49725e+06
3.4974e+06
3.49754e+06
3.49766e+06
3.49777e+06
3.49787e+06
3.49796e+06
3.49805e+06
3.49812e+06
3.49819e+06
3.49825e+06
3.4983e+06
3.49835e+06
3.49839e+06
3.49843e+06
3.49846e+06
3.49848e+06
3.4985e+06
3.49851e+06
3.49851e+06
3.47976e+06
3.48207e+06
3.48315e+06
3.48468e+06
3.486e+06
3.48714e+06
3.48821e+06
3.4892e+06
3.49008e+06
3.49089e+06
3.49163e+06
3.49231e+06
3.49292e+06
3.49348e+06
3.49399e+06
3.49445e+06
3.49486e+06
3.49524e+06
3.49558e+06
3.49589e+06
3.49617e+06
3.49642e+06
3.49665e+06
3.49686e+06
3.49704e+06
3.49721e+06
3.49737e+06
3.49751e+06
3.49763e+06
3.49775e+06
3.49785e+06
3.49795e+06
3.49803e+06
3.49811e+06
3.49818e+06
3.49824e+06
3.4983e+06
3.49834e+06
3.49839e+06
3.49842e+06
3.49845e+06
3.49848e+06
3.49849e+06
3.4985e+06
3.49851e+06
3.47067e+06
3.47423e+06
3.47578e+06
3.47916e+06
3.48081e+06
3.48279e+06
3.48444e+06
3.48587e+06
3.48714e+06
3.4883e+06
3.48932e+06
3.49025e+06
3.49109e+06
3.49185e+06
3.49254e+06
3.49316e+06
3.49372e+06
3.49422e+06
3.49468e+06
3.49509e+06
3.49545e+06
3.49578e+06
3.49608e+06
3.49634e+06
3.49658e+06
3.4968e+06
3.497e+06
3.49717e+06
3.49733e+06
3.49748e+06
3.49761e+06
3.49773e+06
3.49783e+06
3.49793e+06
3.49802e+06
3.4981e+06
3.49817e+06
3.49823e+06
3.49829e+06
3.49834e+06
3.49838e+06
3.49842e+06
3.49845e+06
3.49847e+06
3.49849e+06
3.4985e+06
3.4985e+06
3.46787e+06
3.47275e+06
3.47369e+06
3.47736e+06
3.47904e+06
3.48119e+06
3.48295e+06
3.48459e+06
3.48602e+06
3.48734e+06
3.48851e+06
3.48957e+06
3.49052e+06
3.49138e+06
3.49214e+06
3.49283e+06
3.49345e+06
3.494e+06
3.49449e+06
3.49493e+06
3.49532e+06
3.49567e+06
3.49599e+06
3.49627e+06
3.49652e+06
3.49675e+06
3.49695e+06
3.49713e+06
3.4973e+06
3.49745e+06
3.49758e+06
3.49771e+06
3.49782e+06
3.49792e+06
3.49801e+06
3.49809e+06
3.49816e+06
3.49822e+06
3.49828e+06
3.49833e+06
3.49838e+06
3.49841e+06
3.49844e+06
3.49847e+06
3.49849e+06
3.4985e+06
3.4985e+06
3.45796e+06
3.46626e+06
3.46781e+06
3.47325e+06
3.47572e+06
3.47869e+06
3.48091e+06
3.48297e+06
3.48469e+06
3.48626e+06
3.48762e+06
3.48884e+06
3.48991e+06
3.49088e+06
3.49173e+06
3.49249e+06
3.49317e+06
3.49377e+06
3.4943e+06
3.49477e+06
3.49519e+06
3.49557e+06
3.4959e+06
3.49619e+06
3.49646e+06
3.4967e+06
3.49691e+06
3.4971e+06
3.49727e+06
3.49742e+06
3.49756e+06
3.49769e+06
3.4978e+06
3.4979e+06
3.49799e+06
3.49808e+06
3.49815e+06
3.49822e+06
3.49827e+06
3.49833e+06
3.49837e+06
3.49841e+06
3.49844e+06
3.49846e+06
3.49848e+06
3.49849e+06
3.49849e+06
3.45505e+06
3.46469e+06
3.46509e+06
3.47116e+06
3.47342e+06
3.47673e+06
3.47906e+06
3.48142e+06
3.48335e+06
3.48514e+06
3.48668e+06
3.48807e+06
3.48928e+06
3.49036e+06
3.49131e+06
3.49215e+06
3.49289e+06
3.49354e+06
3.49412e+06
3.49462e+06
3.49507e+06
3.49546e+06
3.49581e+06
3.49612e+06
3.4964e+06
3.49665e+06
3.49687e+06
3.49706e+06
3.49724e+06
3.4974e+06
3.49754e+06
3.49767e+06
3.49779e+06
3.49789e+06
3.49798e+06
3.49807e+06
3.49814e+06
3.49821e+06
3.49827e+06
3.49832e+06
3.49837e+06
3.4984e+06
3.49844e+06
3.49846e+06
3.49848e+06
3.49849e+06
3.49849e+06
3.43777e+06
3.45488e+06
3.45621e+06
3.46552e+06
3.46878e+06
3.47345e+06
3.47642e+06
3.47942e+06
3.48174e+06
3.48387e+06
3.48567e+06
3.48725e+06
3.48863e+06
3.48984e+06
3.49089e+06
3.49181e+06
3.49262e+06
3.49332e+06
3.49394e+06
3.49448e+06
3.49495e+06
3.49537e+06
3.49573e+06
3.49606e+06
3.49635e+06
3.4966e+06
3.49683e+06
3.49703e+06
3.49721e+06
3.49738e+06
3.49752e+06
3.49765e+06
3.49777e+06
3.49788e+06
3.49797e+06
3.49806e+06
3.49814e+06
3.4982e+06
3.49826e+06
3.49832e+06
3.49836e+06
3.4984e+06
3.49843e+06
3.49846e+06
3.49848e+06
3.49849e+06
3.49849e+06
3.43646e+06
3.45522e+06
3.45367e+06
3.46368e+06
3.46617e+06
3.47127e+06
3.47429e+06
3.47764e+06
3.48022e+06
3.48263e+06
3.48465e+06
3.48644e+06
3.48798e+06
3.48932e+06
3.49048e+06
3.49148e+06
3.49236e+06
3.49311e+06
3.49377e+06
3.49434e+06
3.49484e+06
3.49528e+06
3.49566e+06
3.496e+06
3.4963e+06
3.49656e+06
3.49679e+06
3.497e+06
3.49719e+06
3.49736e+06
3.49751e+06
3.49764e+06
3.49776e+06
3.49787e+06
3.49796e+06
3.49805e+06
3.49813e+06
3.4982e+06
3.49826e+06
3.49831e+06
3.49836e+06
3.4984e+06
3.49843e+06
3.49846e+06
3.49848e+06
3.49849e+06
3.49849e+06
3.40779e+06
3.4415e+06
3.44026e+06
3.45598e+06
3.45987e+06
3.4671e+06
3.47103e+06
3.47529e+06
3.4784e+06
3.48125e+06
3.48358e+06
3.48561e+06
3.48733e+06
3.48882e+06
3.49008e+06
3.49117e+06
3.49211e+06
3.49292e+06
3.49361e+06
3.49422e+06
3.49474e+06
3.4952e+06
3.4956e+06
3.49594e+06
3.49625e+06
3.49652e+06
3.49676e+06
3.49698e+06
3.49717e+06
3.49734e+06
3.49749e+06
3.49763e+06
3.49775e+06
3.49786e+06
3.49796e+06
3.49804e+06
3.49812e+06
3.49819e+06
3.49825e+06
3.49831e+06
3.49836e+06
3.4984e+06
3.49843e+06
3.49846e+06
3.49847e+06
3.49848e+06
3.49849e+06
3.41031e+06
3.44638e+06
3.4381e+06
3.4549e+06
3.45714e+06
3.46483e+06
3.46873e+06
3.47342e+06
3.47682e+06
3.48e+06
3.48259e+06
3.48485e+06
3.48674e+06
3.48836e+06
3.48973e+06
3.4909e+06
3.49189e+06
3.49275e+06
3.49348e+06
3.49411e+06
3.49465e+06
3.49513e+06
3.49554e+06
3.4959e+06
3.49621e+06
3.49649e+06
3.49674e+06
3.49696e+06
3.49715e+06
3.49732e+06
3.49748e+06
3.49762e+06
3.49774e+06
3.49785e+06
3.49795e+06
3.49804e+06
3.49812e+06
3.49819e+06
3.49825e+06
3.49831e+06
3.49835e+06
3.49839e+06
3.49843e+06
3.49845e+06
3.49847e+06
3.49848e+06
3.49849e+06
3.3629e+06
3.42677e+06
3.41955e+06
3.44511e+06
3.44937e+06
3.45995e+06
3.46512e+06
3.47094e+06
3.47502e+06
3.4787e+06
3.48163e+06
3.48413e+06
3.4862e+06
3.48795e+06
3.48942e+06
3.49066e+06
3.49171e+06
3.4926e+06
3.49337e+06
3.49402e+06
3.49458e+06
3.49507e+06
3.49549e+06
3.49586e+06
3.49618e+06
3.49647e+06
3.49672e+06
3.49694e+06
3.49714e+06
3.49731e+06
3.49747e+06
3.49761e+06
3.49773e+06
3.49784e+06
3.49794e+06
3.49803e+06
3.49811e+06
3.49819e+06
3.49825e+06
3.4983e+06
3.49835e+06
3.49839e+06
3.49843e+06
3.49845e+06
3.49847e+06
3.49848e+06
3.49849e+06
3.37799e+06
3.44074e+06
3.4167e+06
3.44444e+06
3.44641e+06
3.45761e+06
3.46297e+06
3.46926e+06
3.47371e+06
3.47771e+06
3.48089e+06
3.48357e+06
3.48578e+06
3.48764e+06
3.48918e+06
3.49048e+06
3.49157e+06
3.49249e+06
3.49328e+06
3.49395e+06
3.49453e+06
3.49503e+06
3.49546e+06
3.49583e+06
3.49616e+06
3.49645e+06
3.4967e+06
3.49692e+06
3.49712e+06
3.4973e+06
3.49746e+06
3.4976e+06
3.49773e+06
3.49784e+06
3.49794e+06
3.49803e+06
3.49811e+06
3.49818e+06
3.49825e+06
3.4983e+06
3.49835e+06
3.49839e+06
3.49843e+06
3.49846e+06
3.49847e+06
3.49849e+06
3.49849e+06
3.35485e+06
3.42218e+06
3.40139e+06
3.43438e+06
3.43946e+06
3.45305e+06
3.45998e+06
3.46729e+06
3.4724e+06
3.47682e+06
3.48028e+06
3.48315e+06
3.48548e+06
3.48741e+06
3.48902e+06
3.49035e+06
3.49148e+06
3.49242e+06
3.49322e+06
3.49391e+06
3.49449e+06
3.495e+06
3.49543e+06
3.49581e+06
3.49614e+06
3.49643e+06
3.49669e+06
3.49692e+06
3.49712e+06
3.49729e+06
3.49745e+06
3.4976e+06
3.49772e+06
3.49784e+06
3.49794e+06
3.49803e+06
3.49811e+06
3.49818e+06
3.49825e+06
3.4983e+06
3.49835e+06
3.49839e+06
3.49843e+06
3.49846e+06
3.49848e+06
3.49849e+06
3.49849e+06
3.49863e+06
3.49866e+06
3.49868e+06
3.4987e+06
3.49872e+06
3.49873e+06
3.49874e+06
3.49875e+06
3.49876e+06
3.49853e+06
3.49856e+06
3.49859e+06
3.49862e+06
3.49864e+06
3.49866e+06
3.49868e+06
3.4987e+06
3.49872e+06
3.49873e+06
3.49874e+06
3.49875e+06
3.49618e+06
3.49631e+06
3.49642e+06
3.49653e+06
3.49664e+06
3.49673e+06
3.49683e+06
3.49692e+06
3.49701e+06
3.4971e+06
3.49718e+06
3.49726e+06
3.49734e+06
3.49742e+06
3.49749e+06
3.49756e+06
3.49763e+06
3.4977e+06
3.49776e+06
3.49783e+06
3.49789e+06
3.49795e+06
3.49801e+06
3.49806e+06
3.49812e+06
3.49817e+06
3.49822e+06
3.49827e+06
3.49831e+06
3.49835e+06
3.4984e+06
3.49844e+06
3.49847e+06
3.49851e+06
3.49854e+06
3.49857e+06
3.4986e+06
3.49863e+06
3.49865e+06
3.49867e+06
3.49869e+06
3.49871e+06
3.49872e+06
3.49873e+06
3.49874e+06
3.496e+06
3.49615e+06
3.49627e+06
3.49638e+06
3.4965e+06
3.4966e+06
3.4967e+06
3.4968e+06
3.4969e+06
3.49699e+06
3.49708e+06
3.49717e+06
3.49726e+06
3.49734e+06
3.49742e+06
3.49749e+06
3.49757e+06
3.49764e+06
3.49771e+06
3.49778e+06
3.49784e+06
3.4979e+06
3.49796e+06
3.49802e+06
3.49808e+06
3.49813e+06
3.49819e+06
3.49824e+06
3.49828e+06
3.49833e+06
3.49837e+06
3.49841e+06
3.49845e+06
3.49849e+06
3.49852e+06
3.49856e+06
3.49859e+06
3.49861e+06
3.49864e+06
3.49866e+06
3.49868e+06
3.49869e+06
3.49871e+06
3.49872e+06
3.49873e+06
3.49582e+06
3.49598e+06
3.49611e+06
3.49622e+06
3.49635e+06
3.49646e+06
3.49657e+06
3.49668e+06
3.49678e+06
3.49689e+06
3.49698e+06
3.49708e+06
3.49717e+06
3.49726e+06
3.49734e+06
3.49742e+06
3.4975e+06
3.49758e+06
3.49765e+06
3.49772e+06
3.49779e+06
3.49786e+06
3.49792e+06
3.49798e+06
3.49804e+06
3.4981e+06
3.49815e+06
3.49821e+06
3.49826e+06
3.4983e+06
3.49835e+06
3.49839e+06
3.49843e+06
3.49847e+06
3.49851e+06
3.49854e+06
3.49857e+06
3.4986e+06
3.49862e+06
3.49864e+06
3.49866e+06
3.49868e+06
3.49869e+06
3.49871e+06
3.49871e+06
3.49562e+06
3.49581e+06
3.49595e+06
3.49606e+06
3.49618e+06
3.49631e+06
3.49643e+06
3.49655e+06
3.49666e+06
3.49677e+06
3.49688e+06
3.49698e+06
3.49708e+06
3.49717e+06
3.49726e+06
3.49735e+06
3.49743e+06
3.49751e+06
3.49759e+06
3.49767e+06
3.49774e+06
3.49781e+06
3.49788e+06
3.49794e+06
3.498e+06
3.49806e+06
3.49812e+06
3.49818e+06
3.49823e+06
3.49828e+06
3.49833e+06
3.49837e+06
3.49841e+06
3.49845e+06
3.49849e+06
3.49852e+06
3.49855e+06
3.49858e+06
3.49861e+06
3.49863e+06
3.49865e+06
3.49867e+06
3.49868e+06
3.49869e+06
3.4987e+06
3.4954e+06
3.49562e+06
3.49577e+06
3.49588e+06
3.49601e+06
3.49615e+06
3.49628e+06
3.49641e+06
3.49653e+06
3.49665e+06
3.49677e+06
3.49688e+06
3.49698e+06
3.49708e+06
3.49718e+06
3.49727e+06
3.49736e+06
3.49745e+06
3.49753e+06
3.49761e+06
3.49769e+06
3.49776e+06
3.49783e+06
3.4979e+06
3.49797e+06
3.49803e+06
3.49809e+06
3.49815e+06
3.4982e+06
3.49825e+06
3.4983e+06
3.49835e+06
3.49839e+06
3.49843e+06
3.49847e+06
3.49851e+06
3.49854e+06
3.49857e+06
3.49859e+06
3.49862e+06
3.49864e+06
3.49866e+06
3.49867e+06
3.49868e+06
3.49869e+06
3.49518e+06
3.49541e+06
3.49557e+06
3.49569e+06
3.49583e+06
3.49598e+06
3.49612e+06
3.49626e+06
3.4964e+06
3.49652e+06
3.49665e+06
3.49677e+06
3.49688e+06
3.49699e+06
3.49709e+06
3.49719e+06
3.49729e+06
3.49738e+06
3.49747e+06
3.49755e+06
3.49763e+06
3.49771e+06
3.49779e+06
3.49786e+06
3.49793e+06
3.49799e+06
3.49806e+06
3.49812e+06
3.49817e+06
3.49823e+06
3.49828e+06
3.49833e+06
3.49837e+06
3.49842e+06
3.49845e+06
3.49849e+06
3.49852e+06
3.49855e+06
3.49858e+06
3.49861e+06
3.49863e+06
3.49864e+06
3.49866e+06
3.49867e+06
3.49868e+06
3.49499e+06
3.49521e+06
3.49537e+06
3.49549e+06
3.49564e+06
3.4958e+06
3.49595e+06
3.49611e+06
3.49625e+06
3.49639e+06
3.49652e+06
3.49665e+06
3.49677e+06
3.49689e+06
3.497e+06
3.49711e+06
3.49721e+06
3.4973e+06
3.4974e+06
3.49749e+06
3.49758e+06
3.49766e+06
3.49774e+06
3.49781e+06
3.49789e+06
3.49796e+06
3.49802e+06
3.49809e+06
3.49815e+06
3.4982e+06
3.49826e+06
3.49831e+06
3.49835e+06
3.4984e+06
3.49844e+06
3.49848e+06
3.49851e+06
3.49854e+06
3.49857e+06
3.49859e+06
3.49861e+06
3.49863e+06
3.49865e+06
3.49866e+06
3.49867e+06
3.49469e+06
3.49495e+06
3.49513e+06
3.49528e+06
3.49545e+06
3.49561e+06
3.49578e+06
3.49594e+06
3.4961e+06
3.49625e+06
3.49639e+06
3.49653e+06
3.49666e+06
3.49678e+06
3.4969e+06
3.49702e+06
3.49712e+06
3.49723e+06
3.49733e+06
3.49742e+06
3.49752e+06
3.4976e+06
3.49769e+06
3.49777e+06
3.49785e+06
3.49792e+06
3.49799e+06
3.49805e+06
3.49812e+06
3.49818e+06
3.49823e+06
3.49828e+06
3.49833e+06
3.49838e+06
3.49842e+06
3.49846e+06
3.49849e+06
3.49853e+06
3.49856e+06
3.49858e+06
3.4986e+06
3.49862e+06
3.49864e+06
3.49865e+06
3.49866e+06
3.49445e+06
3.49472e+06
3.49489e+06
3.49505e+06
3.49523e+06
3.49541e+06
3.49559e+06
3.49576e+06
3.49593e+06
3.49609e+06
3.49625e+06
3.49639e+06
3.49654e+06
3.49667e+06
3.4968e+06
3.49692e+06
3.49704e+06
3.49715e+06
3.49726e+06
3.49736e+06
3.49746e+06
3.49755e+06
3.49764e+06
3.49772e+06
3.4978e+06
3.49788e+06
3.49795e+06
3.49802e+06
3.49809e+06
3.49815e+06
3.49821e+06
3.49826e+06
3.49831e+06
3.49836e+06
3.4984e+06
3.49844e+06
3.49848e+06
3.49851e+06
3.49854e+06
3.49857e+06
3.49859e+06
3.49861e+06
3.49862e+06
3.49864e+06
3.49864e+06
3.49413e+06
3.49443e+06
3.49463e+06
3.49481e+06
3.49501e+06
3.4952e+06
3.49539e+06
3.49557e+06
3.49575e+06
3.49593e+06
3.49609e+06
3.49625e+06
3.49641e+06
3.49655e+06
3.49669e+06
3.49682e+06
3.49695e+06
3.49707e+06
3.49718e+06
3.49729e+06
3.49739e+06
3.49749e+06
3.49759e+06
3.49768e+06
3.49776e+06
3.49784e+06
3.49792e+06
3.49799e+06
3.49806e+06
3.49812e+06
3.49818e+06
3.49824e+06
3.49829e+06
3.49834e+06
3.49839e+06
3.49843e+06
3.49847e+06
3.4985e+06
3.49853e+06
3.49856e+06
3.49858e+06
3.4986e+06
3.49861e+06
3.49863e+06
3.49863e+06
3.49386e+06
3.49416e+06
3.49436e+06
3.49455e+06
3.49476e+06
3.49496e+06
3.49517e+06
3.49537e+06
3.49556e+06
3.49575e+06
3.49593e+06
3.49611e+06
3.49627e+06
3.49643e+06
3.49657e+06
3.49671e+06
3.49685e+06
3.49698e+06
3.4971e+06
3.49722e+06
3.49733e+06
3.49743e+06
3.49753e+06
3.49763e+06
3.49772e+06
3.4978e+06
3.49788e+06
3.49796e+06
3.49803e+06
3.4981e+06
3.49816e+06
3.49822e+06
3.49827e+06
3.49832e+06
3.49837e+06
3.49841e+06
3.49845e+06
3.49849e+06
3.49852e+06
3.49855e+06
3.49857e+06
3.49859e+06
3.4986e+06
3.49861e+06
3.49862e+06
3.49346e+06
3.49381e+06
3.49405e+06
3.49425e+06
3.49449e+06
3.49471e+06
3.49493e+06
3.49515e+06
3.49536e+06
3.49556e+06
3.49576e+06
3.49595e+06
3.49612e+06
3.49629e+06
3.49645e+06
3.4966e+06
3.49675e+06
3.49689e+06
3.49702e+06
3.49714e+06
3.49726e+06
3.49737e+06
3.49748e+06
3.49758e+06
3.49767e+06
3.49776e+06
3.49785e+06
3.49793e+06
3.498e+06
3.49807e+06
3.49814e+06
3.4982e+06
3.49825e+06
3.49831e+06
3.49835e+06
3.4984e+06
3.49844e+06
3.49847e+06
3.49851e+06
3.49853e+06
3.49856e+06
3.49858e+06
3.49859e+06
3.4986e+06
3.49861e+06
3.49313e+06
3.49349e+06
3.4937e+06
3.49392e+06
3.49419e+06
3.49443e+06
3.49467e+06
3.49491e+06
3.49514e+06
3.49536e+06
3.49557e+06
3.49578e+06
3.49597e+06
3.49615e+06
3.49632e+06
3.49649e+06
3.49664e+06
3.49679e+06
3.49693e+06
3.49706e+06
3.49719e+06
3.49731e+06
3.49742e+06
3.49753e+06
3.49763e+06
3.49772e+06
3.49781e+06
3.49789e+06
3.49797e+06
3.49805e+06
3.49811e+06
3.49818e+06
3.49824e+06
3.49829e+06
3.49834e+06
3.49838e+06
3.49843e+06
3.49846e+06
3.4985e+06
3.49852e+06
3.49855e+06
3.49857e+06
3.49858e+06
3.49859e+06
3.4986e+06
3.4926e+06
3.49304e+06
3.4933e+06
3.49357e+06
3.49386e+06
3.49412e+06
3.49438e+06
3.49465e+06
3.4949e+06
3.49514e+06
3.49537e+06
3.49559e+06
3.4958e+06
3.496e+06
3.49618e+06
3.49636e+06
3.49653e+06
3.49669e+06
3.49684e+06
3.49698e+06
3.49712e+06
3.49724e+06
3.49736e+06
3.49748e+06
3.49758e+06
3.49768e+06
3.49777e+06
3.49786e+06
3.49794e+06
3.49802e+06
3.49809e+06
3.49816e+06
3.49822e+06
3.49827e+06
3.49832e+06
3.49837e+06
3.49841e+06
3.49845e+06
3.49848e+06
3.49851e+06
3.49854e+06
3.49856e+06
3.49857e+06
3.49858e+06
3.49859e+06
3.49235e+06
3.49277e+06
3.49292e+06
3.49319e+06
3.49351e+06
3.49378e+06
3.49408e+06
3.49436e+06
3.49464e+06
3.4949e+06
3.49516e+06
3.4954e+06
3.49562e+06
3.49584e+06
3.49604e+06
3.49623e+06
3.49641e+06
3.49658e+06
3.49674e+06
3.4969e+06
3.49704e+06
3.49718e+06
3.4973e+06
3.49742e+06
3.49753e+06
3.49764e+06
3.49774e+06
3.49783e+06
3.49791e+06
3.49799e+06
3.49807e+06
3.49813e+06
3.4982e+06
3.49826e+06
3.49831e+06
3.49836e+06
3.4984e+06
3.49844e+06
3.49847e+06
3.4985e+06
3.49853e+06
3.49855e+06
3.49856e+06
3.49858e+06
3.49858e+06
3.49158e+06
3.49211e+06
3.49231e+06
3.4927e+06
3.49309e+06
3.49339e+06
3.49373e+06
3.49405e+06
3.49436e+06
3.49465e+06
3.49492e+06
3.49518e+06
3.49543e+06
3.49566e+06
3.49588e+06
3.49609e+06
3.49629e+06
3.49647e+06
3.49665e+06
3.49681e+06
3.49696e+06
3.49711e+06
3.49724e+06
3.49737e+06
3.49749e+06
3.4976e+06
3.4977e+06
3.49779e+06
3.49788e+06
3.49797e+06
3.49804e+06
3.49811e+06
3.49818e+06
3.49824e+06
3.49829e+06
3.49834e+06
3.49839e+06
3.49843e+06
3.49846e+06
3.49849e+06
3.49852e+06
3.49854e+06
3.49856e+06
3.49857e+06
3.49857e+06
3.49111e+06
3.49166e+06
3.49177e+06
3.49223e+06
3.49265e+06
3.49298e+06
3.49336e+06
3.49371e+06
3.49405e+06
3.49437e+06
3.49467e+06
3.49495e+06
3.49522e+06
3.49548e+06
3.49572e+06
3.49594e+06
3.49616e+06
3.49636e+06
3.49654e+06
3.49672e+06
3.49688e+06
3.49704e+06
3.49718e+06
3.49731e+06
3.49744e+06
3.49755e+06
3.49766e+06
3.49776e+06
3.49785e+06
3.49794e+06
3.49802e+06
3.49809e+06
3.49816e+06
3.49822e+06
3.49828e+06
3.49833e+06
3.49838e+06
3.49842e+06
3.49845e+06
3.49848e+06
3.49851e+06
3.49853e+06
3.49855e+06
3.49856e+06