/*--------------------------------*- C++ -*----------------------------------*\
| =========                 |                                                 |
| \\      /  F ield         | OpenFOAM: The Open Source CFD Toolbox           |
|  \\    /   O peration     | Version:  v2012                                 |
|   \\  /    A nd           | Website:  www.openfoam.com                      |
|    \\/     M anipulation  |                                                 |
\*---------------------------------------------------------------------------*/
FoamFile
{
    version     2.0;
    format      ascii;
    class       volVectorField;
    location    "0.2";
    object      U;
}
// * * * * * * * * * * * * * * * * * * * * * * * * * * * * * * * * * * * * * //

dimensions      [0 1 -1 0 0 0 0];


internalField   nonuniform List<vector> 
3326
(
(0.0120962 -0.0201714 -0.000105624)
(0.00960355 -0.0171661 -8.38634e-05)
(0.00733965 -0.0141403 -6.40994e-05)
(0.0053332 -0.0111257 -4.65821e-05)
(0.00361197 -0.00818058 -3.15537e-05)
(0.00219896 -0.0054041 -1.92152e-05)
(0.00111831 -0.00296019 -9.777e-06)
(0.000378953 -0.00109061 -3.3206e-06)
(9.4645e-06 -2.17487e-05 -1.51211e-07)
(0.0209503 -0.0281364 -0.000182913)
(0.0178716 -0.0252526 -0.000156038)
(0.0149419 -0.0223555 -0.000130465)
(0.0121936 -0.0194356 -0.000106472)
(0.00965764 -0.0164928 -8.43345e-05)
(0.00736316 -0.0135392 -6.43037e-05)
(0.00533714 -0.0106051 -4.66157e-05)
(0.00360549 -0.00774708 -3.14966e-05)
(0.00218926 -0.00506285 -1.91301e-05)
(0.00111031 -0.00271438 -9.70697e-06)
(0.000375144 -0.000941531 -3.28721e-06)
(9.13587e-06 2.92114e-05 -1.47982e-07)
(0.0147618 -0.0513777 -0.000128824)
(0.0176827 -0.0565215 -0.000154318)
(0.0207851 -0.0615322 -0.000181394)
(0.0241509 -0.0663093 -0.000210764)
(0.0276657 -0.0707802 -0.00024144)
(0.0313172 -0.0748651 -0.000273308)
(0.0350329 -0.0784911 -0.000305736)
(0.0387529 -0.0815972 -0.000338204)
(0.04241 -0.0841306 -0.000370124)
(0.045931 -0.0860529 -0.000400856)
(0.0492444 -0.0873396 -0.000429778)
(0.0522813 -0.0879817 -0.000456286)
(0.0549768 -0.0879861 -0.000479816)
(0.0572745 -0.0873748 -0.000499876)
(0.0591271 -0.0861839 -0.000516052)
(0.0604985 -0.0844617 -0.000528028)
(0.061365 -0.0822664 -0.000535595)
(0.0617151 -0.0796635 -0.000538658)
(0.06155 -0.0767229 -0.000537224)
(0.0608828 -0.0735158 -0.000531407)
(0.0597369 -0.0701123 -0.000521412)
(0.058145 -0.0665785 -0.000507523)
(0.0561469 -0.0629746 -0.00049009)
(0.053788 -0.0593533 -0.000469506)
(0.0511176 -0.0557589 -0.000446203)
(0.0481866 -0.0522253 -0.000420625)
(0.0450465 -0.048777 -0.000393226)
(0.041748 -0.0454288 -0.00036444)
(0.0383404 -0.0421862 -0.000334699)
(0.0348712 -0.0390471 -0.000304421)
(0.0313843 -0.0360012 -0.000273987)
(0.0279213 -0.0330332 -0.000243761)
(0.0245216 -0.0301242 -0.000214087)
(0.0212219 -0.0272533 -0.000185281)
(0.0180567 -0.0244002 -0.000157653)
(0.0150584 -0.0215476 -0.000131481)
(0.0122577 -0.0186844 -0.000107032)
(0.00968381 -0.0158087 -8.4563e-05)
(0.007364 -0.0129311 -6.43111e-05)
(0.00532346 -0.0100805 -4.64962e-05)
(0.00358614 -0.00731209 -3.13276e-05)
(0.00217102 -0.00472186 -1.89707e-05)
(0.0010975 -0.00246982 -9.595e-06)
(0.000369468 -0.00079385 -3.23751e-06)
(8.68633e-06 7.94439e-05 -1.43411e-07)
(0.0168431 -0.0561551 -0.000146989)
(0.0201048 -0.061636 -0.000175461)
(0.0235656 -0.0669196 -0.00020566)
(0.027286 -0.0719142 -0.000238126)
(0.0311538 -0.0765325 -0.000271883)
(0.0351433 -0.0806928 -0.0003067)
(0.0391743 -0.0843178 -0.000341882)
(0.0431748 -0.0873445 -0.000376798)
(0.0470698 -0.0897225 -0.000410794)
(0.0507774 -0.091417 -0.000443156)
(0.0542209 -0.0924104 -0.000473213)
(0.0573268 -0.0927024 -0.000500324)
(0.0600289 -0.09231 -0.000523913)
(0.0622711 -0.0912668 -0.000543489)
(0.0640089 -0.0896207 -0.000558664)
(0.0652109 -0.087432 -0.000569161)
(0.0658594 -0.0847704 -0.000574827)
(0.0659508 -0.0817117 -0.000575632)
(0.0654947 -0.0783347 -0.000571657)
(0.0645128 -0.0747183 -0.000563095)
(0.0630376 -0.0709379 -0.000550226)
(0.0611101 -0.0670637 -0.000533408)
(0.0587778 -0.0631582 -0.000513058)
(0.0560929 -0.059275 -0.000489629)
(0.0531105 -0.0554579 -0.000463602)
(0.0498859 -0.0517393 -0.000435461)
(0.046474 -0.0481418 -0.000405685)
(0.0429278 -0.0446774 -0.000374735)
(0.0392978 -0.0413487 -0.000343054)
(0.0356321 -0.0381508 -0.00031106)
(0.0319741 -0.0350703 -0.000279133)
(0.0283647 -0.0320893 -0.000247629)
(0.024842 -0.0291864 -0.000216882)
(0.0214411 -0.0263383 -0.000187195)
(0.0181949 -0.0235228 -0.000158859)
(0.0151337 -0.0207207 -0.000132138)
(0.0122864 -0.0179192 -0.000107283)
(0.0096804 -0.015115 -8.45336e-05)
(0.00734095 -0.0123173 -6.411e-05)
(0.0052913 -0.0095533 -4.62156e-05)
(0.00355333 -0.00687682 -3.10411e-05)
(0.00214385 -0.00438218 -1.87335e-05)
(0.00107967 -0.00222736 -9.43915e-06)
(0.000361835 -0.000648157 -3.1707e-06)
(8.11584e-06 0.000128734 -1.37439e-07)
(0.0192313 -0.0615051 -0.000167833)
(0.0228933 -0.067348 -0.000199794)
(0.0267561 -0.0729257 -0.000233505)
(0.0308848 -0.0781366 -0.000269535)
(0.0351423 -0.0828919 -0.000306693)
(0.0395003 -0.0871023 -0.000344727)
(0.0438652 -0.0906899 -0.000382823)
(0.0481546 -0.0935901 -0.00042026)
(0.0522843 -0.0957576 -0.000456305)
(0.0561654 -0.0971635 -0.000490182)
(0.0597157 -0.0977995 -0.000521172)
(0.0628591 -0.0976761 -0.000548612)
(0.0655287 -0.0968232 -0.000571917)
(0.0676706 -0.0952875 -0.000590619)
(0.0692445 -0.0931308 -0.000604364)
(0.0702257 -0.0904266 -0.000612934)
(0.0706044 -0.0872566 -0.000616246)
(0.0703863 -0.0837076 -0.00061435)
(0.0695907 -0.0798673 -0.000607413)
(0.0682496 -0.0758217 -0.000595715)
(0.066405 -0.0716514 -0.000579622)
(0.0641069 -0.0674298 -0.00055957)
(0.0614108 -0.0632207 -0.000536044)
(0.0583758 -0.0590775 -0.000509559)
(0.0550624 -0.0550429 -0.000480643)
(0.05153 -0.051147 -0.000449815)
(0.0478365 -0.0474094 -0.00041758)
(0.0440367 -0.0438388 -0.000384417)
(0.0401817 -0.0404345 -0.000350771)
(0.0363194 -0.037188 -0.000317061)
(0.0324925 -0.034083 -0.000283659)
(0.0287405 -0.0310984 -0.000250911)
(0.0250998 -0.0282101 -0.000219133)
(0.0216035 -0.0253925 -0.000188614)
(0.0182825 -0.0226215 -0.000159625)
(0.015165 -0.019876 -0.000132412)
(0.0122777 -0.0171416 -0.000107208)
(0.00964589 -0.0144135 -8.42327e-05)
(0.00729291 -0.0116992 -6.36909e-05)
(0.00523988 -0.00902488 -4.57667e-05)
(0.00350655 -0.00644256 -3.06327e-05)
(0.00210744 -0.00404497 -1.84154e-05)
(0.00105662 -0.00198794 -9.23779e-06)
(0.000352175 -0.000505116 -3.08614e-06)
(7.41952e-06 0.000176814 -1.30007e-07)
(0.0220514 -0.0676035 -0.000192441)
(0.0261606 -0.0738139 -0.000228307)
(0.0304847 -0.0796757 -0.000266045)
(0.0350527 -0.0850881 -0.00030591)
(0.0397296 -0.0899489 -0.000346727)
(0.0444744 -0.0941661 -0.000388138)
(0.0491845 -0.0976615 -0.000429248)
(0.0537635 -0.100372 -0.000469213)
(0.0581175 -0.10226 -0.000507217)
(0.0621506 -0.103304 -0.000542421)
(0.0657758 -0.103507 -0.000574065)
(0.0689153 -0.102894 -0.000601473)
(0.0715036 -0.10151 -0.000624069)
(0.0734908 -0.0994158 -0.000641421)
(0.0748431 -0.0966893 -0.000653233)
(0.0755442 -0.0934182 -0.000659359)
(0.0755945 -0.0896972 -0.000659805)
(0.0750106 -0.0856238 -0.000654716)
(0.0738231 -0.0812948 -0.00064436)
(0.0720752 -0.0768026 -0.000629111)
(0.0698193 -0.0722321 -0.000609428)
(0.0671148 -0.0676588 -0.000585829)
(0.0640254 -0.063147 -0.00055887)
(0.0606167 -0.0587489 -0.000529123)
(0.0569545 -0.0545046 -0.000497162)
(0.0531018 -0.0504414 -0.000463539)
(0.0491187 -0.0465748 -0.000428776)
(0.0450612 -0.0429098 -0.000393363)
(0.0409803 -0.0394417 -0.000357745)
(0.0369233 -0.0361583 -0.000322335)
(0.0329313 -0.0330394 -0.000287491)
(0.029042 -0.0300612 -0.000253544)
(0.0252896 -0.0271966 -0.00022079)
(0.0217048 -0.0244177 -0.0001895)
(0.0183163 -0.0216983 -0.000159921)
(0.0151497 -0.0190155 -0.000132279)
(0.0122295 -0.0163535 -0.000106788)
(0.0095789 -0.0137057 -8.36482e-05)
(0.00721889 -0.0110787 -6.30448e-05)
(0.00516853 -0.00849679 -4.5144e-05)
(0.00344534 -0.00601071 -3.00982e-05)
(0.0020615 -0.00371143 -1.80142e-05)
(0.00102821 -0.00175255 -8.98959e-06)
(0.000340422 -0.000365415 -2.98325e-06)
(6.58453e-06 0.000223396 -1.21034e-07)
(0.0253826 -0.0744878 -0.000221512)
(0.0299896 -0.081075 -0.000261721)
(0.0348143 -0.087224 -0.000303829)
(0.0398694 -0.0928184 -0.000347945)
(0.0450021 -0.0977513 -0.000392742)
(0.0501577 -0.101926 -0.000437739)
(0.0552206 -0.105267 -0.000481929)
(0.0600828 -0.107716 -0.000524367)
(0.0646407 -0.109243 -0.000564151)
(0.0687932 -0.109841 -0.000600397)
(0.0724493 -0.109527 -0.000632313)
(0.075532 -0.108341 -0.000659225)
(0.0779787 -0.106347 -0.000680587)
(0.0797462 -0.103624 -0.000696021)
(0.0808093 -0.100265 -0.000705311)
(0.0811628 -0.0963745 -0.000708404)
(0.0808191 -0.0920598 -0.000705412)
(0.0798077 -0.0874296 -0.000696592)
(0.0781719 -0.0825888 -0.000682323)
(0.0759671 -0.0776355 -0.000663087)
(0.0732567 -0.0726579 -0.000639437)
(0.0701098 -0.0677323 -0.000611976)
(0.0665982 -0.062922 -0.000581331)
(0.0627936 -0.0582771 -0.000548129)
(0.0587665 -0.0538341 -0.000512983)
(0.054583 -0.0496159 -0.000476471)
(0.0503045 -0.0456338 -0.00043913)
(0.0459873 -0.041888 -0.000401449)
(0.0416818 -0.0383693 -0.000363871)
(0.0374338 -0.0350614 -0.000326793)
(0.0332822 -0.0319404 -0.000290557)
(0.0292624 -0.028979 -0.00025547)
(0.025406 -0.0261475 -0.000221808)
(0.0217409 -0.0234156 -0.000189816)
(0.018293 -0.0207551 -0.000159719)
(0.0150855 -0.0181412 -0.000131719)
(0.0121403 -0.0155567 -0.000106009)
(0.00947821 -0.0129938 -8.27695e-05)
(0.00711808 -0.0104574 -6.21649e-05)
(0.00507671 -0.00797063 -4.43423e-05)
(0.00336937 -0.0055827 -2.94348e-05)
(0.00200582 -0.00338279 -1.75279e-05)
(0.000994331 -0.0015222 -8.69352e-06)
(0.000326528 -0.000229768 -2.86161e-06)
(5.60655e-06 0.00026818 -1.1046e-07)
(0.0292929 -0.0823289 -0.000255635)
(0.0344771 -0.0892918 -0.000300883)
(0.0398671 -0.0957072 -0.000347927)
(0.0454501 -0.101445 -0.00039665)
(0.0510667 -0.106395 -0.00044567)
(0.0566467 -0.110455 -0.000494372)
(0.062062 -0.113558 -0.000541638)
(0.0671921 -0.115652 -0.000586415)
(0.0719237 -0.116722 -0.000627717)
(0.0761513 -0.116773 -0.00066462)
(0.0797822 -0.115844 -0.000696316)
(0.0827421 -0.113994 -0.000722158)
(0.0849745 -0.111304 -0.00074165)
(0.0864455 -0.107876 -0.000754499)
(0.0871418 -0.103821 -0.000760587)
(0.0870714 -0.0992575 -0.000759981)
(0.0862613 -0.0943078 -0.000752918)
(0.0847555 -0.0890906 -0.000739784)
(0.0826116 -0.0837183 -0.00072108)
(0.0798977 -0.0782934 -0.000697401)
(0.0766891 -0.0729057 -0.000669402)
(0.0730643 -0.0676312 -0.00063777)
(0.0691027 -0.0625308 -0.000603198)
(0.064882 -0.0576506 -0.000566363)
(0.0604763 -0.0530228 -0.000527912)
(0.0559538 -0.0486649 -0.000488441)
(0.0513766 -0.0445828 -0.000448492)
(0.0468004 -0.0407715 -0.00040855)
(0.0422739 -0.0372168 -0.000369042)
(0.0378408 -0.033898 -0.000330348)
(0.0335372 -0.0307872 -0.000292784)
(0.0293955 -0.0278538 -0.000256633)
(0.0254441 -0.0250651 -0.000222142)
(0.0217079 -0.0223886 -0.000189529)
(0.0182099 -0.0197941 -0.000158994)
(0.0149703 -0.0172553 -0.000130714)
(0.0120085 -0.0147535 -0.000104859)
(0.00934284 -0.0122795 -8.15879e-05)
(0.0069898 -0.00983709 -6.10451e-05)
(0.004964 -0.00744805 -4.33583e-05)
(0.00327837 -0.00515999 -2.86402e-05)
(0.00194027 -0.00306033 -1.69553e-05)
(0.000954892 -0.00129791 -8.34888e-06)
(0.000310454 -9.88949e-05 -2.72089e-06)
(4.48043e-06 0.000310864 -9.82247e-08)
(0.0339719 -0.0912292 -0.00029647)
(0.0397761 -0.0985633 -0.000347127)
(0.0457711 -0.10522 -0.000399452)
(0.0519239 -0.111048 -0.000453149)
(0.0580525 -0.115943 -0.000506639)
(0.0640674 -0.119802 -0.000559137)
(0.0698232 -0.122567 -0.000609376)
(0.0751907 -0.124197 -0.000656226)
(0.0800483 -0.124696 -0.000698628)
(0.0842891 -0.124089 -0.000735648)
(0.087821 -0.122435 -0.000766482)
(0.090576 -0.119818 -0.000790536)
(0.0925065 -0.116342 -0.000807395)
(0.0935915 -0.11213 -0.000816875)
(0.093832 -0.107311 -0.000818986)
(0.0932526 -0.102023 -0.000813938)
(0.0918968 -0.0963997 -0.000802113)
(0.089825 -0.090569 -0.000784039)
(0.0871102 -0.0846499 -0.000760352)
(0.0838342 -0.0787475 -0.000731766)
(0.0800837 -0.0729518 -0.000699038)
(0.0759468 -0.0673365 -0.000662935)
(0.0715098 -0.0619585 -0.000624214)
(0.0668553 -0.0568587 -0.000583591)
(0.0620602 -0.0520633 -0.000541742)
(0.0571937 -0.0475836 -0.000499268)
(0.0523175 -0.0434192 -0.000456708)
(0.0474856 -0.0395594 -0.000414534)
(0.0427444 -0.0359847 -0.000373151)
(0.0381343 -0.0326694 -0.000332913)
(0.0336882 -0.0295818 -0.000294104)
(0.0294348 -0.0266877 -0.000256978)
(0.025399 -0.0239519 -0.00022175)
(0.0216023 -0.0213393 -0.000188608)
(0.0180643 -0.018818 -0.000157724)
(0.0148023 -0.0163603 -0.000129248)
(0.011833 -0.013946 -0.000103327)
(0.00917199 -0.011565 -8.00966e-05)
(0.00683361 -0.00921979 -5.96815e-05)
(0.00483015 -0.00693077 -4.21896e-05)
(0.00317223 -0.0047441 -2.77133e-05)
(0.00186477 -0.00274532 -1.62958e-05)
(0.000909864 -0.00108071 -7.95541e-06)
(0.000292184 2.6477e-05 -2.56093e-06)
(3.20214e-06 0.000351143 -8.42943e-08)
(0.0394658 -0.101382 -0.000344418)
(0.0459967 -0.109062 -0.000401422)
(0.0526729 -0.115904 -0.000459689)
(0.059438 -0.121747 -0.00051873)
(0.0660926 -0.126489 -0.000576809)
(0.0725359 -0.130032 -0.000633047)
(0.0786059 -0.132332 -0.000686029)
(0.0841655 -0.133368 -0.000734557)
(0.0890862 -0.133162 -0.000777511)
(0.0932617 -0.131766 -0.000813963)
(0.0966043 -0.129266 -0.000843146)
(0.0990557 -0.12577 -0.000864552)
(0.100582 -0.121411 -0.00087788)
(0.101177 -0.116332 -0.00088309)
(0.100862 -0.110685 -0.000880352)
(0.0996796 -0.104622 -0.000870042)
(0.0976926 -0.0982893 -0.000852708)
(0.0949794 -0.0918238 -0.000829036)
(0.0916292 -0.0853481 -0.000799803)
(0.0877377 -0.0789683 -0.000765845)
(0.0834031 -0.0727724 -0.000728018)
(0.0787221 -0.0668296 -0.000687166)
(0.0737872 -0.0611913 -0.000644098)
(0.0686846 -0.0558915 -0.000599565)
(0.063493 -0.0509491 -0.000554252)
(0.058281 -0.0463682 -0.000508763)
(0.0531089 -0.0421416 -0.000463619)
(0.0480279 -0.038252 -0.000419271)
(0.0430809 -0.0346742 -0.000376092)
(0.0383046 -0.0313778 -0.000334401)
(0.0337277 -0.0283269 -0.00029445)
(0.0293746 -0.0254839 -0.000256454)
(0.0252665 -0.0228108 -0.000220594)
(0.021421 -0.0202706 -0.000187026)
(0.0178541 -0.0178296 -0.00015589)
(0.0145801 -0.0154588 -0.000127309)
(0.0116127 -0.0131369 -0.000101405)
(0.00896517 -0.0108527 -7.82912e-05)
(0.00664924 -0.00860746 -5.80719e-05)
(0.00467506 -0.00642055 -4.08354e-05)
(0.00305093 -0.00433654 -2.6654e-05)
(0.00177935 -0.00243906 -1.55497e-05)
(0.000859264 -0.000871645 -7.51323e-06)
(0.000271717 0.000145619 -2.38174e-06)
(1.76771e-06 0.000388705 -6.8623e-08)
(0.0461025 -0.112932 -0.000402342)
(0.0533875 -0.120919 -0.000465922)
(0.0607743 -0.127872 -0.000530393)
(0.0681732 -0.133627 -0.000594968)
(0.0753591 -0.138094 -0.000657686)
(0.08221 -0.141182 -0.00071748)
(0.0885464 -0.142871 -0.00077279)
(0.0942278 -0.143157 -0.000822381)
(0.0991217 -0.142096 -0.000865104)
(0.103128 -0.139766 -0.000900082)
(0.106168 -0.136285 -0.000926619)
(0.108196 -0.131793 -0.000944335)
(0.109197 -0.126448 -0.00095308)
(0.109185 -0.12042 -0.000952993)
(0.108203 -0.113881 -0.000944432)
(0.106315 -0.106997 -0.000927968)
(0.103606 -0.0999261 -0.000904331)
(0.100173 -0.0928109 -0.000874377)
(0.0961224 -0.0857759 -0.000839029)
(0.0915633 -0.0789256 -0.000799244)
(0.0866048 -0.0723435 -0.000755971)
(0.0813512 -0.0660926 -0.000710121)
(0.0759 -0.0602163 -0.000662546)
(0.0703394 -0.0547403 -0.000614014)
(0.0647482 -0.0496751 -0.000565214)
(0.0591934 -0.0450165 -0.000516731)
(0.0537323 -0.0407496 -0.000469065)
(0.0484122 -0.0368504 -0.000422629)
(0.0432716 -0.0332878 -0.000377758)
(0.0383423 -0.0300262 -0.000334733)
(0.0336484 -0.0270258 -0.00029376)
(0.0292097 -0.0242457 -0.000255015)
(0.0250427 -0.0216454 -0.000218642)
(0.0211612 -0.0191859 -0.000184759)
(0.0175775 -0.016832 -0.000153476)
(0.0143026 -0.0145537 -0.000124887)
(0.0113473 -0.0123287 -9.90873e-05)
(0.00872214 -0.0101447 -7.61695e-05)
(0.0064367 -0.00800216 -5.62162e-05)
(0.00449883 -0.00591918 -3.92967e-05)
(0.0029146 -0.00393887 -2.54635e-05)
(0.00168412 -0.00214284 -1.47179e-05)
(0.000803161 -0.000671744 -7.02296e-06)
(0.000249076 0.000257808 -2.18349e-06)
(1.75072e-07 0.000423245 -5.12033e-08)
(0.0539321 -0.126133 -0.00047067)
(0.0620956 -0.134337 -0.000541922)
(0.0702602 -0.14129 -0.000613182)
(0.0783119 -0.146817 -0.000683456)
(0.0860069 -0.150847 -0.000750616)
(0.0932175 -0.153305 -0.000813552)
(0.0997502 -0.154199 -0.000870576)
(0.105461 -0.153554 -0.000920429)
(0.110218 -0.151462 -0.000961952)
(0.11393 -0.148035 -0.000994361)
(0.11653 -0.143428 -0.00101707)
(0.117997 -0.137814 -0.00102988)
(0.118334 -0.131381 -0.00103284)
(0.117584 -0.124322 -0.00102631)
(0.115812 -0.116831 -0.00101086)
(0.11311 -0.109086 -0.000987283)
(0.109584 -0.101256 -0.000956514)
(0.105351 -0.0934841 -0.000919583)
(0.100536 -0.0858954 -0.000877559)
(0.0952596 -0.0785893 -0.000831515)
(0.0896414 -0.0716425 -0.000782483)
(0.0837916 -0.0651089 -0.000731429)
(0.0778106 -0.0590223 -0.000679229)
(0.0717872 -0.0533985 -0.000626657)
(0.0657985 -0.048238 -0.000574386)
(0.0599083 -0.0435277 -0.000522975)
(0.0541693 -0.0392445 -0.000472883)
(0.0486239 -0.0353573 -0.000424479)
(0.0433049 -0.0318287 -0.000378051)
(0.0382387 -0.0286185 -0.000333831)
(0.0334439 -0.0256826 -0.000291976)
(0.0289352 -0.0229772 -0.00025262)
(0.0247244 -0.0204595 -0.000215864)
(0.0208209 -0.0180888 -0.000181789)
(0.0172333 -0.0158287 -0.000150471)
(0.0139691 -0.0136482 -0.000121976)
(0.0110364 -0.0115241 -9.63732e-05)
(0.008443 -0.00944351 -7.37326e-05)
(0.00619621 -0.00740598 -5.41165e-05)
(0.00430177 -0.00542848 -3.75759e-05)
(0.00276354 -0.00355261 -2.41443e-05)
(0.0015793 -0.00185793 -1.38023e-05)
(0.000741686 -0.00048202 -6.48573e-06)
(0.000224304 0.000362336 -1.96661e-06)
(-1.5769e-06 0.000454455 -3.20231e-08)
(0.0634143 -0.141143 -0.000553424)
(0.0724519 -0.149456 -0.000632302)
(0.0813879 -0.156269 -0.000710298)
(0.0900788 -0.161388 -0.000786152)
(0.0982441 -0.16479 -0.000857424)
(0.105743 -0.166411 -0.000922872)
(0.112366 -0.166299 -0.000980691)
(0.117977 -0.164518 -0.00102967)
(0.122447 -0.161199 -0.0010687)
(0.125705 -0.156499 -0.00109714)
(0.127703 -0.150611 -0.00111459)
(0.128443 -0.143745 -0.00112107)
(0.12796 -0.13612 -0.00111687)
(0.126325 -0.127954 -0.00110261)
(0.123632 -0.119458 -0.00107912)
(0.12 -0.110823 -0.00104743)
(0.115559 -0.10222 -0.00100868)
(0.110449 -0.0937957 -0.000964085)
(0.104807 -0.0856684 -0.00091485)
(0.0987689 -0.0779304 -0.000862155)
(0.0924607 -0.0706479 -0.0008071)
(0.0859971 -0.0638639 -0.000750687)
(0.0794793 -0.0576003 -0.0006938)
(0.0729944 -0.0518612 -0.000637199)
(0.066616 -0.0466365 -0.000581527)
(0.0604029 -0.041903 -0.000527296)
(0.0544018 -0.0376292 -0.000474916)
(0.0486487 -0.0337765 -0.000424698)
(0.04317 -0.0303017 -0.000376876)
(0.0379857 -0.0271594 -0.000331624)
(0.0331084 -0.0243022 -0.000289049)
(0.0285472 -0.0216832 -0.000249234)
(0.0243089 -0.0192576 -0.000212238)
(0.0203985 -0.0169835 -0.000178102)
(0.0168207 -0.0148233 -0.00014687)
(0.0135796 -0.0127453 -0.000118576)
(0.0106803 -0.010726 -9.32645e-05)
(0.00812817 -0.0087516 -7.0984e-05)
(0.00592831 -0.00682105 -5.17775e-05)
(0.00408439 -0.00495024 -3.56778e-05)
(0.00259819 -0.00317929 -2.27002e-05)
(0.00146523 -0.00158559 -1.28058e-05)
(0.000675032 -0.000303456 -5.90324e-06)
(0.000197475 0.000458514 -1.73169e-06)
(-3.48701e-06 0.000482042 -1.111e-08)
(0.074598 -0.158282 -0.000651025)
(0.084628 -0.166522 -0.000738575)
(0.0943776 -0.17298 -0.000823671)
(0.103684 -0.177457 -0.000904896)
(0.112235 -0.179981 -0.000979535)
(0.119912 -0.18051 -0.00104654)
(0.126488 -0.179142 -0.00110395)
(0.131839 -0.175987 -0.00115066)
(0.135846 -0.171225 -0.00118565)
(0.138463 -0.16506 -0.0012085)
(0.139668 -0.15773 -0.00121903)
(0.139498 -0.149481 -0.00121757)
(0.13802 -0.140564 -0.00120469)
(0.13534 -0.131222 -0.00118131)
(0.131587 -0.121678 -0.00114856)
(0.126906 -0.112133 -0.00110772)
(0.121454 -0.102759 -0.00106014)
(0.115389 -0.0936973 -0.00100722)
(0.108865 -0.0850578 -0.000950283)
(0.102027 -0.0769213 -0.000890603)
(0.0950062 -0.069341 -0.000829326)
(0.0879187 -0.0623457 -0.000767468)
(0.0808645 -0.0559438 -0.000705897)
(0.0739265 -0.0501263 -0.000645341)
(0.0671727 -0.0448714 -0.000586391)
(0.0606549 -0.0401455 -0.000529499)
(0.0544123 -0.0359081 -0.00047501)
(0.0484733 -0.0321134 -0.000423171)
(0.042857 -0.0287123 -0.000374146)
(0.0375763 -0.0256549 -0.000328051)
(0.032637 -0.0228901 -0.000284936)
(0.0280426 -0.0203688 -0.000244831)
(0.0237946 -0.0180446 -0.000207749)
(0.0198934 -0.0158742 -0.000173693)
(0.0163397 -0.0138196 -0.000142671)
(0.0131344 -0.0118486 -0.000114689)
(0.0102796 -0.00993725 -8.97667e-05)
(0.00777848 -0.00807149 -6.79309e-05)
(0.00563382 -0.00624951 -4.92062e-05)
(0.00384746 -0.00448627 -3.36089e-05)
(0.00241917 -0.00282039 -2.11367e-05)
(0.00134234 -0.00132702 -1.17323e-05)
(0.000603465 -0.000136996 -5.2778e-06)
(0.000168687 0.000545688 -1.47963e-06)
(-5.55259e-06 0.000505718 1.15046e-08)
(0.088165 -0.17768 -0.000769434)
(0.0990908 -0.185653 -0.000864793)
(0.109575 -0.191511 -0.00095631)
(0.119402 -0.195067 -0.00104208)
(0.128218 -0.196422 -0.00111903)
(0.135916 -0.195567 -0.00118623)
(0.142254 -0.192659 -0.00124156)
(0.147132 -0.187867 -0.00128414)
(0.150451 -0.181426 -0.00131313)
(0.152199 -0.173594 -0.0013284)
(0.152389 -0.164656 -0.00133008)
(0.151098 -0.154897 -0.00131883)
(0.148434 -0.144598 -0.00129559)
(0.144541 -0.134021 -0.00126163)
(0.139581 -0.123402 -0.00121835)
(0.133732 -0.112943 -0.00116731)
(0.127175 -0.102812 -0.00111009)
(0.120086 -0.0931419 -0.00104822)
(0.112632 -0.0840286 -0.000983169)
(0.104964 -0.0755377 -0.000916249)
(0.097217 -0.0677059 -0.000848633)
(0.0895051 -0.0605457 -0.000781322)
(0.0819236 -0.0540496 -0.000715149)
(0.0745489 -0.0481947 -0.000650779)
(0.067441 -0.0429464 -0.000588737)
(0.0606427 -0.0382606 -0.000529397)
(0.0541844 -0.0340878 -0.000473025)
(0.0480858 -0.030375 -0.00041979)
(0.0423573 -0.0270676 -0.000369787)
(0.0370045 -0.0241115 -0.000323062)
(0.0320261 -0.0214527 -0.000279604)
(0.0274193 -0.01904 -0.000239391)
(0.0231805 -0.0168256 -0.000202389)
(0.0193054 -0.0147656 -0.000168561)
(0.0157909 -0.0128217 -0.00013788)
(0.0126344 -0.0109615 -0.000110324)
(0.00983557 -0.00916097 -8.58902e-05)
(0.0073951 -0.00740572 -6.45838e-05)
(0.00531389 -0.00569348 -4.64128e-05)
(0.00359198 -0.00403832 -3.13779e-05)
(0.00222728 -0.00247736 -1.94609e-05)
(0.00121122 -0.00108339 -1.05869e-05)
(0.000527324 1.64692e-05 -4.6124e-06)
(0.000138072 0.000623238 -1.21156e-06)
(-7.76803e-06 0.000525215 3.5745e-08)
(0.104031 -0.199739 -0.000907907)
(0.115973 -0.207094 -0.00101214)
(0.127185 -0.211999 -0.00111)
(0.137427 -0.214272 -0.0011994)
(0.146331 -0.214106 -0.00127712)
(0.153847 -0.21152 -0.00134273)
(0.159714 -0.20675 -0.00139396)
(0.163868 -0.200028 -0.00143023)
(0.166242 -0.191656 -0.00145096)
(0.166863 -0.181948 -0.0014564)
(0.16579 -0.171238 -0.00144706)
(0.163149 -0.15985 -0.00142403)
(0.159093 -0.148091 -0.00138864)
(0.153808 -0.136239 -0.00134253)
(0.147496 -0.124533 -0.00128745)
(0.140363 -0.113174 -0.00122521)
(0.132614 -0.102319 -0.00115758)
(0.124441 -0.0920845 -0.00108625)
(0.11602 -0.0825494 -0.00101275)
(0.107505 -0.0737594 -0.000938435)
(0.0990297 -0.0657314 -0.000864463)
(0.0907034 -0.0584592 -0.000791789)
(0.0826137 -0.0519183 -0.000721178)
(0.0748274 -0.0460703 -0.000653215)
(0.0673941 -0.0408679 -0.000588332)
(0.0603461 -0.036256 -0.000526812)
(0.0537033 -0.0321765 -0.000468828)
(0.0474754 -0.0285697 -0.000414464)
(0.0416639 -0.0253758 -0.000363735)
(0.0362659 -0.0225371 -0.000316615)
(0.0312731 -0.019997 -0.000273032)
(0.0266765 -0.017703 -0.000232907)
(0.0224669 -0.0156062 -0.000196159)
(0.0186355 -0.0136627 -0.000162713)
(0.0151755 -0.0118339 -0.000132508)
(0.0120813 -0.0100877 -0.000105496)
(0.00934981 -0.00840016 -8.16493e-05)
(0.00697969 -0.00675684 -6.09568e-05)
(0.00497001 -0.00515509 -4.34101e-05)
(0.00331921 -0.00360813 -2.8996e-05)
(0.00202355 -0.00215158 -1.76816e-05)
(0.00107259 -0.000855775 -9.37584e-06)
(0.000447033 0.000156114 -3.91071e-06)
(0.000105796 0.000690599 -9.28953e-07)
(-1.01253e-05 0.000540281 6.15216e-08)
(0.123256 -0.22445 -0.00107572)
(0.135874 -0.230867 -0.00118581)
(0.14759 -0.234467 -0.00128809)
(0.158031 -0.235051 -0.00137923)
(0.166781 -0.23296 -0.00145562)
(0.173853 -0.228254 -0.00151734)
(0.17895 -0.221263 -0.00156186)
(0.18207 -0.212298 -0.0015891)
(0.183184 -0.201731 -0.00159885)
(0.182377 -0.189937 -0.00159183)
(0.179761 -0.1773 -0.00156902)
(0.175519 -0.164179 -0.00153201)
(0.169854 -0.150902 -0.00148258)
(0.162999 -0.137754 -0.00142277)
(0.155191 -0.124974 -0.00135463)
(0.146667 -0.11275 -0.00128025)
(0.137651 -0.101222 -0.00120156)
(0.128347 -0.0904848 -0.00112035)
(0.118935 -0.0805939 -0.00103821)
(0.10957 -0.0715714 -0.000956469)
(0.100378 -0.0634113 -0.000876241)
(0.0914601 -0.0560867 -0.000798401)
(0.0828923 -0.0495546 -0.000723616)
(0.0747291 -0.043761 -0.000652362)
(0.0670074 -0.0386453 -0.00058496)
(0.059747 -0.034142 -0.000521585)
(0.0529561 -0.0301847 -0.000462308)
(0.0466335 -0.0267076 -0.000407117)
(0.0407712 -0.0236464 -0.000355944)
(0.0353576 -0.0209403 -0.000308688)
(0.030377 -0.0185309 -0.00026521)
(0.0258142 -0.0163646 -0.000225381)
(0.0216548 -0.0143925 -0.00018907)
(0.0178855 -0.0125705 -0.000156165)
(0.0144958 -0.0108605 -0.000126574)
(0.0114773 -0.00923088 -0.000100223)
(0.00882456 -0.00765791 -7.70634e-05)
(0.0065343 -0.00612739 -5.70681e-05)
(0.00460402 -0.00463637 -4.02144e-05)
(0.00303073 -0.00319732 -2.64768e-05)
(0.00180919 -0.00184434 -1.58094e-05)
(0.000927298 -0.000645178 -8.10664e-06)
(0.000363105 0.000281194 -3.17724e-06)
(7.20639e-05 0.000747264 -6.3359e-07)
(-1.26126e-05 0.000550694 8.86927e-08)
(0.145181 -0.252408 -0.00126709)
(0.158675 -0.257363 -0.00138488)
(0.170861 -0.259048 -0.0014912)
(0.181328 -0.257426 -0.00158259)
(0.189642 -0.252901 -0.00165515)
(0.195949 -0.24562 -0.00171021)
(0.199928 -0.23601 -0.00174496)
(0.201657 -0.224463 -0.00176008)
(0.201163 -0.21143 -0.00175579)
(0.198598 -0.197347 -0.00173343)
(0.194139 -0.182644 -0.00169453)
(0.188033 -0.167707 -0.00164126)
(0.180539 -0.152879 -0.00157586)
(0.171937 -0.138444 -0.0015008)
(0.1625 -0.124628 -0.00141845)
(0.152491 -0.111598 -0.0013311)
(0.142149 -0.0994696 -0.00124083)
(0.131685 -0.0883088 -0.00114951)
(0.121278 -0.0781428 -0.00105867)
(0.111077 -0.0689655 -0.00096963)
(0.101196 -0.0607458 -0.000883384)
(0.0917224 -0.0534341 -0.000800697)
(0.0827185 -0.0469683 -0.000722104)
(0.0742231 -0.0412786 -0.000647949)
(0.0662582 -0.0362915 -0.000578425)
(0.0588295 -0.0319315 -0.000513579)
(0.0519323 -0.0281249 -0.000453373)
(0.0455538 -0.0248003 -0.000397694)
(0.039676 -0.0218898 -0.000346385)
(0.0342786 -0.0193305 -0.00029927)
(0.0293385 -0.0170626 -0.000256146)
(0.0248344 -0.0150323 -0.000216828)
(0.0207467 -0.0131907 -0.000181143)
(0.017058 -0.0114944 -0.000148942)
(0.0137546 -0.00990604 -0.000120104)
(0.0108253 -0.0083947 -9.45307e-05)
(0.00826259 -0.00693729 -7.21571e-05)
(0.0060615 -0.00551985 -5.29399e-05)
(0.00421815 -0.00413933 -3.68451e-05)
(0.00272838 -0.00280747 -2.38365e-05)
(0.00158564 -0.00155684 -1.3857e-05)
(0.000776377 -0.000452496 -6.78823e-06)
(0.000276147 0.00039106 -2.41729e-06)
(3.71231e-05 0.000792802 -3.27649e-07)
(-1.52145e-05 0.000556259 1.17088e-07)
(0.171612 -0.283251 -0.00149788)
(0.185331 -0.286271 -0.00161749)
(0.197583 -0.285515 -0.00172443)
(0.207624 -0.28118 -0.0018121)
(0.215095 -0.273693 -0.00187732)
(0.220208 -0.263367 -0.00192195)
(0.222632 -0.250718 -0.00194315)
(0.222542 -0.236248 -0.00194238)
(0.220033 -0.220484 -0.00192051)
(0.215339 -0.203927 -0.00187957)
(0.208712 -0.187044 -0.00182176)
(0.200471 -0.170242 -0.00174984)
(0.190929 -0.153864 -0.00166657)
(0.180414 -0.138183 -0.00157481)
(0.169232 -0.123399 -0.00147723)
(0.157666 -0.109651 -0.00137628)
(0.145962 -0.097018 -0.00127413)
(0.134332 -0.085532 -0.00117262)
(0.122947 -0.0751856 -0.00107325)
(0.111942 -0.0659419 -0.000977191)
(0.101416 -0.0577422 -0.000885319)
(0.0914396 -0.0505135 -0.000798235)
(0.0820544 -0.0441743 -0.000716313)
(0.0732821 -0.0386392 -0.00063974)
(0.0651276 -0.0338226 -0.00056856)
(0.0575812 -0.0296402 -0.000502685)
(0.0506245 -0.0260115 -0.000441959)
(0.0442327 -0.022861 -0.000386163)
(0.0383774 -0.020118 -0.000335051)
(0.03303 -0.017718 -0.000288371)
(0.02816 -0.0156011 -0.000245858)
(0.0237402 -0.0137135 -0.000207276)
(0.0197463 -0.0120072 -0.00017241)
(0.0161572 -0.0104398 -0.000141078)
(0.0129559 -0.008975 -0.000113131)
(0.0101291 -0.00758292 -8.8452e-05)
(0.00766734 -0.00624129 -6.696e-05)
(0.00556433 -0.00493662 -4.8599e-05)
(0.00381504 -0.00366584 -3.33252e-05)
(0.00241433 -0.00244001 -2.1094e-05)
(0.0013546 -0.00129015 -1.18391e-05)
(0.000621015 -0.000278508 -5.431e-06)
(0.000186874 0.000485172 -1.63711e-06)
(1.2685e-06 0.000826865 -1.36978e-08)
(-1.79102e-05 0.000556821 1.46472e-07)
(0.201154 -0.317872 -0.0017557)
(0.215296 -0.31805 -0.00187905)
(0.227453 -0.314084 -0.00198512)
(0.23678 -0.306279 -0.0020666)
(0.243016 -0.29517 -0.00212102)
(0.246469 -0.281233 -0.00215119)
(0.24687 -0.265087 -0.00215471)
(0.244493 -0.247337 -0.002134)
(0.239537 -0.228591 -0.00209076)
(0.232325 -0.2094 -0.00202786)
(0.223202 -0.19026 -0.00194824)
(0.212555 -0.171583 -0.00185534)
(0.200762 -0.153699 -0.00175243)
(0.188191 -0.136851 -0.00164271)
(0.175173 -0.121204 -0.0015291)
(0.162004 -0.106854 -0.00141416)
(0.148931 -0.093836 -0.00130006)
(0.136156 -0.0821409 -0.00118856)
(0.123835 -0.0717227 -0.00108101)
(0.112083 -0.0625103 -0.000978433)
(0.100977 -0.0544163 -0.000881496)
(0.090565 -0.0473441 -0.000790606)
(0.0808666 -0.0411931 -0.000705949)
(0.071883 -0.0358632 -0.000627531)
(0.0636008 -0.0312583 -0.000555234)
(0.0559935 -0.0272861 -0.000488828)
(0.0490287 -0.023861 -0.000428031)
(0.0426695 -0.0209042 -0.000372519)
(0.0368774 -0.0183435 -0.000321957)
(0.0316152 -0.0161138 -0.000276021)
(0.0268458 -0.0141557 -0.000234386)
(0.0225366 -0.0124162 -0.000196768)
(0.0186587 -0.0108487 -0.000162916)
(0.0151878 -0.00941223 -0.000132615)
(0.0121044 -0.00807191 -0.000105697)
(0.00939306 -0.0067992 -8.2026e-05)