/*--------------------------------*- C++ -*----------------------------------*\
| =========                 |                                                 |
| \\      /  F ield         | OpenFOAM: The Open Source CFD Toolbox           |
|  \\    /   O peration     | Version:  v2012                                 |
|   \\  /    A nd           | Website:  www.openfoam.com                      |
|    \\/     M anipulation  |                                                 |
\*---------------------------------------------------------------------------*/
FoamFile
{
    version     2.0;
    format      ascii;
    class       surfaceScalarField;
    location    "0.6";
    object      phi;
}
// * * * * * * * * * * * * * * * * * * * * * * * * * * * * * * * * * * * * * //

dimensions      [0 3 -1 0 0 0 0];
oriented        oriented;


internalField   nonuniform List<scalar> 
6434
(
1.8064e-10
-3.67335e-09
-2.82897e-13
6.44341e-10
-9.98571e-09
8.22856e-12
7.32317e-10
-8.01199e-09
1.57263e-12
9.19974e-11
3.98844e-09
2.87957e-12
1.30752e-08
7.97446e-13
1.4431e-10
-3.81915e-09
-2.33003e-13
4.01186e-10
-1.02567e-08
5.39389e-12
4.45864e-10
-8.13439e-09
2.05661e-12
2.05842e-10
4.05592e-09
2.99099e-12
1.29903e-08
1.21919e-12
1.57196e-10
-3.97385e-09
-9.1933e-13
4.50135e-10
-1.05049e-08
5.58792e-12
8.89634e-10
-8.49872e-09
2.14888e-12
7.16784e-10
3.79155e-09
2.69746e-12
1.32558e-08
9.05943e-13
1.90378e-10
-4.11979e-09
-9.22921e-12
3.82056e-10
-1.07878e-08
1.24337e-11
1.10169e-09
-9.07914e-09
1.46008e-12
1.39739e-09
2.73605e-09
2.98512e-12
1.39577e-08
1.3456e-12
1.49684e-10
-4.28394e-09
4.76718e-12
3.65878e-10
-1.12661e-08
1.39406e-12
1.25669e-09
-1.102e-08
1.53413e-12
1.68536e-09
-2.07033e-10
1.30152e-12
1.11335e-08
1.25941e-12
1.20545e-10
-4.43748e-09
-1.2672e-12
1.69504e-10
-1.21633e-08
4.8435e-12
1.65791e-09
-1.4562e-08
9.60461e-13
1.17933e-09
-7.49711e-09
1.32629e-12
-1.5359e-09
1.60383e-12
-4.38925e-10
-4.59811e-09
-1.42205e-13
-6.90412e-10
-1.25203e-08
4.28735e-12
3.70572e-10
-1.56761e-08
1.44015e-12
2.02672e-09
-9.16322e-09
1.0773e-12
-6.02838e-10
2.55347e-13
-2.05966e-11
-4.70847e-09
-5.30789e-12
1.57237e-10
-1.27112e-08
8.75572e-12
1.18623e-09
-1.67035e-08
6.99236e-13
1.75974e-09
-9.73727e-09
2.13423e-12
1.15955e-09
1.05741e-12
1.57233e-10
-4.8745e-09
5.17339e-12
5.65761e-10
-1.31151e-08
3.68033e-13
1.70352e-09
-1.7838e-08
2.88661e-13
2.00063e-09
-1.00353e-08
2.93035e-13
3.16142e-09
6.01243e-13
1.3765e-10
-5.0259e-09
-1.56754e-12
5.54755e-10
-1.35588e-08
3.27486e-12
1.33846e-09
-1.86225e-08
2.8082e-12
1.47066e-09
-1.01683e-08
3.20903e-13
4.63234e-09
7.88358e-13
-6.34055e-11
-5.15726e-09
2.68515e-12
-1.07892e-09
-1.46706e-08
1.34947e-12
2.68681e-10
-1.99669e-08
-3.64553e-13
6.07817e-10
-1.05078e-08
2.41452e-12
5.24115e-09
5.73285e-14
1.06408e-10
-5.2365e-09
-1.23246e-11
7.26121e-10
-1.53173e-08
1.48673e-11
1.83456e-09
-2.10746e-08
1.90954e-12
2.06272e-09
-1.07383e-08
2.06701e-12
7.30427e-09
4.37699e-13
1.08191e-11
-5.30443e-09
1.06102e-11
3.52448e-10
-1.57735e-08
-5.97205e-12
9.64665e-10
-2.16842e-08
1.10857e-12
1.8283e-09
-1.16009e-08
1.59376e-12
9.13412e-09
4.51299e-13
-1.66817e-10
-5.37869e-09
6.03323e-12
-1.70718e-09
-1.64398e-08
-3.76798e-12
-1.10871e-09
-2.22858e-08
2.29971e-12
4.33297e-11
-1.27546e-08
1.54073e-12
9.17603e-09
7.84988e-13
2.63899e-11
-5.40792e-09
2.15587e-12
1.18274e-10
-1.65318e-08
2.09289e-12
6.78497e-10
-2.28446e-08
2.95291e-13
1.92291e-09
-1.39993e-08
1.08504e-12
1.10987e-08
1.05247e-12
-8.6304e-10
-5.54056e-09
-4.74995e-12
-6.81306e-10
-1.67242e-08
6.9587e-12
-5.02516e-10
-2.30427e-08
1.85517e-12
8.58408e-11
-1.52688e-08
1.22727e-12
1.1183e-08
7.61582e-13
-8.55719e-12
-5.6774e-09
1.58679e-12
1.08961e-09
-1.78237e-08
2.13195e-12
5.77968e-10
-2.78816e-08
5.16015e-13
-8.92984e-09
-3.03077e-08
1.06354e-12
-7.15128e-09
1.96503e-12
3.45609e-11
-5.79279e-09
-2.04453e-12
4.62831e-10
-1.84708e-08
4.71461e-12
1.23433e-09
-3.02563e-08
7.88756e-13
1.32183e-09
-3.64723e-08
7.1125e-13
-2.21576e-08
1.14544e-12
5.65268e-11
-5.89756e-09
-3.43301e-12
8.20058e-12
-1.87495e-08
6.65903e-12
8.91499e-10
-3.10146e-08
4.44139e-13
1.74431e-09
-3.82859e-08
1.97835e-13
-2.43342e-08
5.51071e-13
1.03417e-10
-5.96706e-09
-5.92007e-12
4.3512e-11
-1.87315e-08
7.45864e-12
8.55973e-10
-3.22548e-08
6.12509e-13
2.11961e-09
-3.961e-08
6.69119e-13
-2.37331e-08
3.79538e-13
1.51905e-10
-6.00952e-09
2.81653e-12
1.70403e-10
-1.85471e-08
1.66279e-13
9.12955e-10
-3.41295e-08
6.03672e-13
1.94559e-09
-3.99995e-08
2.30406e-13
-2.17579e-08
3.1919e-13
5.33725e-11
-6.03639e-09
1.97773e-12
3.3444e-10
-1.85166e-08
-1.68859e-12
1.02272e-09
-3.59087e-08
1.55098e-12
9.45142e-10
-3.88918e-08
1.20897e-12
-1.87016e-08
3.96475e-13
1.51171e-11
-6.0502e-09
-4.56288e-12
5.51233e-10
-1.8866e-08
8.35458e-12
9.38987e-10
-3.65677e-08
-3.27577e-14
-4.75403e-10
-3.65593e-08
7.03265e-13
-1.57403e-08
5.44123e-13
3.81459e-11
-6.0643e-09
-3.46721e-12
6.25295e-10
-1.94626e-08
4.85206e-12
2.93875e-10
-3.62349e-08
2.5734e-12
-1.48382e-09
-3.48588e-08
1.28359e-12
-1.40975e-08
6.42433e-13
9.14754e-11
-6.10465e-09
-5.86561e-12
5.44628e-10
-2.00303e-08
1.0376e-11
-2.49222e-10
-3.59357e-08
6.45826e-13
-3.31716e-10
-3.54723e-08
8.54444e-13
-1.39772e-08
3.51788e-13
1.14852e-10
-6.19018e-09
-5.3165e-12
2.60746e-10
-2.0428e-08
7.65132e-12
-1.56108e-10
-3.61791e-08
2.14511e-12
2.1717e-09
-3.78273e-08
1.45416e-12
-1.46399e-08
7.3064e-13
1.67021e-10
-6.33963e-09
-9.21667e-12
3.69319e-10
-2.05817e-08
1.49338e-11
8.3658e-10
-3.65831e-08
-5.20939e-13
2.15539e-09
-3.98701e-08
9.61768e-13
-1.54909e-08
9.08566e-13
2.72849e-12
-6.48553e-09
-4.42351e-13
1.13515e-10
-2.06367e-08
1.60057e-12
1.15315e-09
-3.68212e-08
5.01724e-12
1.10237e-09
-4.02887e-08
1.30573e-12
-1.60043e-08
8.97543e-13
2.03288e-10
-6.54089e-09
-5.44471e-12
2.90086e-10
-2.07425e-08
8.47573e-12
8.52836e-10
-3.71054e-08
4.28913e-13
1.67966e-10
-3.96447e-08
1.51094e-12
-1.4958e-08
1.08088e-12
5.66317e-11
-6.55702e-09
-5.90041e-12
2.18619e-10
-2.0923e-08
4.25848e-12
6.07816e-10
-3.76558e-08
2.24467e-12
-7.58333e-11
-3.92203e-08
1.49307e-12
-1.28627e-08
1.15394e-12
1.68424e-11
-6.56896e-09
-5.19198e-12
2.18256e-10
-2.11481e-08
9.38676e-12
5.10326e-10
-3.83653e-08
6.1515e-13
2.87964e-10
-3.92953e-08
1.59877e-12
-1.10859e-08
1.28788e-12
4.78803e-12
-6.57901e-09
-1.03052e-12
2.4715e-10
-2.13958e-08
4.44579e-12
4.16799e-10
-3.89933e-08
1.27473e-12
5.07009e-10
-3.96398e-08
1.66066e-12
-1.04547e-08
1.13275e-12
1.78941e-11
-6.59503e-09
-2.36944e-12
2.70443e-10
-2.16552e-08
5.00193e-12
2.54275e-10
-3.94572e-08
1.56351e-12
4.42267e-10
-4.04211e-08
7.21454e-13
-1.08835e-08
1.33442e-12
3.82624e-12
-7.57385e-13
2.72533e-10
3.75067e-12
2.84687e-10
-1.62443e-12
1.81177e-09
1.79072e-12
1.16797e-12
-1.57043e-09
-1.51924e-10
-1.19451e-15
-1.43281e-09
-1.37632e-10
-2.65979e-16
-1.30756e-09
-1.25247e-10
3.52281e-16
-1.19304e-09
-1.14532e-10
5.21993e-16
-1.08781e-09
-1.05229e-10
4.06622e-16
-9.90651e-10
-9.71545e-11
1.12823e-16
-9.00632e-10
-9.00228e-11
2.68552e-17
-8.16966e-10
-8.36659e-11
-1.34564e-16
-7.39038e-10
-7.79354e-11
-2.3998e-16
-6.66438e-10
-7.25991e-11
-1.84313e-16
-5.98725e-10
-6.77174e-11
-1.37937e-16
-5.35557e-10
-6.3169e-11
-3.92051e-17
-4.76693e-10
-5.88661e-11
1.25477e-16
-4.21911e-10
-5.47874e-11
1.36041e-16
-3.7096e-10
-5.09509e-11
3.54108e-16
-3.23666e-10
-4.72981e-11
1.65142e-15
-2.7982e-10
-4.38457e-11
-1.82621e-16
-2.39274e-10
-4.05461e-11
-2.00499e-15
-2.0183e-10
-3.74464e-11
-8.42497e-16
-1.67313e-10
-3.45169e-11
-4.95596e-16
-1.35624e-10
-3.16897e-11
4.01775e-16
-1.06666e-10
-2.89583e-11
-1.35767e-15
-8.04391e-11
-2.6227e-11
-5.52346e-16
-5.69971e-11
-2.3442e-11
-3.1139e-16
-3.6726e-11
-2.02714e-11
9.9975e-17
-2.01212e-11
-1.66054e-11
6.8748e-16
-8.08151e-12
-1.20407e-11
2.76769e-16
-1.32912e-12
-6.75336e-12
5.10169e-16
-1.32934e-12
1.91379e-16
-3.8927e-09
-4.83678e-10
-1.27229e-15
-3.58556e-09
-4.44776e-10
8.45222e-16
-3.30017e-09
-4.10636e-10
1.43613e-15
-3.03413e-09
-3.80584e-10
1.58004e-15
-2.78535e-09
-3.54008e-10
1.22249e-15
-2.55214e-09
-3.30362e-10
8.26122e-16
-2.33307e-09
-3.09091e-10
7.20002e-16
-2.12698e-09
-2.89756e-10
3.68959e-16
-1.933e-09
-2.71928e-10
3.33241e-16
-1.75024e-09
-2.5535e-10
3.58761e-16
-1.57823e-09
-2.39737e-10
4.37238e-16
-1.41642e-09
-2.24983e-10
5.91909e-16
-1.26443e-09
-2.10855e-10
9.71669e-16
-1.12194e-09
-1.97283e-10
1.03121e-15
-9.8855e-10
-1.84342e-10
1.61746e-15
-8.64007e-10
-1.71847e-10
3.63311e-15
-7.47956e-10
-1.59895e-10
-1.41655e-16
-6.40098e-10
-1.48403e-10
-3.36919e-15
-5.40123e-10
-1.37424e-10
-1.8043e-15
-4.47712e-10
-1.26927e-10
-7.23849e-16
-3.6265e-10
-1.16754e-10
1.00228e-15
-2.84808e-10
-1.068e-10
-2.38816e-15
-2.14192e-10
-9.68424e-11
-1.19884e-15
-1.51395e-10
-8.6239e-11
-6.73144e-16
-9.7184e-11
-7.44825e-11
-1.8914e-17
-5.3115e-11
-6.0675e-11
9.33642e-16
-2.14224e-11
-4.37343e-11
-1.6402e-16
-3.89135e-12
-2.42852e-11
2.25258e-16
-5.22089e-12
7.65695e-17
-5.59589e-09
-9.07993e-10
-1.69715e-16
-5.19547e-09
-8.45198e-10
1.64228e-15
-4.81681e-09
-7.89298e-10
2.37505e-15
-4.45808e-09
-7.39332e-10
2.41284e-15
-4.11764e-09
-6.94449e-10
2.11115e-15
-3.79417e-09
-6.53822e-10
1.34034e-15
-3.48657e-09
-6.16693e-10
1.368e-15
-3.19393e-09
-5.8239e-10
9.84038e-16
-2.91565e-09
-5.50224e-10
9.78994e-16
-2.65103e-09
-5.19966e-10
1.04927e-15
-2.39981e-09
-4.90969e-10
1.15586e-15
-2.16158e-09
-4.63199e-10
1.35642e-15
-1.93619e-09
-4.36257e-10
1.74009e-15
-1.72343e-09
-4.10048e-10
1.99861e-15
-1.52299e-09
-3.84778e-10
2.75454e-15
-1.33476e-09
-3.60087e-10
4.79292e-15
-1.15841e-09
-3.36237e-10
-1.66145e-16
-9.9371e-10
-3.13105e-10
-4.16566e-15
-8.40363e-10
-2.90776e-10
-2.26832e-15
-6.98051e-10
-2.69236e-10
-8.93719e-16
-5.66618e-10
-2.48189e-10
1.17571e-15
-4.46015e-10
-2.27403e-10
-2.90481e-15
-3.36508e-10
-2.06348e-10
-1.75234e-15
-2.38794e-10
-1.83953e-10
-9.73438e-16
-1.5438e-10
-1.58897e-10
-1.28054e-16
-8.57067e-11
-1.29348e-10
1.00903e-15
-3.60747e-11
-9.33672e-11
-5.09413e-16
-7.81005e-12
-5.25507e-11
-5.4231e-17
-1.30311e-11
-6.78166e-17
-6.79175e-09
-1.36565e-09
1.27763e-15
-6.35185e-09
-1.2851e-09
2.54267e-15
-5.92876e-09
-1.2124e-09
3.39296e-15
-5.52163e-09
-1.14648e-09
2.90472e-15
-5.12969e-09
-1.08639e-09
2.94907e-15
-4.75234e-09
-1.03115e-09
1.98461e-15
-4.38916e-09
-9.79881e-10
1.99673e-15
-4.03978e-09
-9.3175e-10
1.67027e-15
-3.70417e-09
-8.85866e-10
1.69849e-15
-3.38202e-09
-8.42096e-10
1.79506e-15
-3.07355e-09
-7.99457e-10
1.90404e-15
-2.77869e-09
-7.58049e-10
2.15937e-15
-2.49763e-09
-7.17321e-10
2.48635e-15
-2.23051e-09
-6.77187e-10
2.89509e-15
-1.97722e-09
-6.38057e-10
3.72542e-15
-1.73793e-09
-5.99383e-10
5.55985e-15
-1.51251e-09
-5.61658e-10
-1.88324e-16
-1.30088e-09
-5.24733e-10
-4.69426e-15
-1.1029e-09
-4.88752e-10
-2.62427e-15
-9.18392e-10
-4.53746e-10
-1.04747e-15
-7.4734e-10
-4.19243e-10
1.19311e-15
-5.89875e-10
-3.84869e-10
-3.22214e-15
-4.465e-10
-3.49721e-10
-2.05466e-15
-3.18313e-10
-3.1214e-10
-1.19791e-15
-2.07364e-10
-2.69846e-10
-2.04681e-16
-1.16832e-10
-2.19881e-10
1.0264e-15
-5.0833e-11
-1.59367e-10
-8.02472e-16
-1.22439e-11
-9.11405e-11
-2.52328e-16
-2.52751e-11
-1.74348e-16
-7.5956e-09
-1.82034e-09
2.30605e-15
-7.15081e-09
-1.7299e-09
3.48482e-15
-6.71599e-09
-1.64722e-09
4.27537e-15
-6.29125e-09
-1.57124e-09
3.51878e-15
-5.87663e-09
-1.50101e-09
3.60572e-15
-5.47232e-09
-1.43544e-09
2.62062e-15
-5.07859e-09
-1.37362e-09
2.60583e-15
-4.6957e-09
-1.31462e-09
2.32507e-15
-4.3242e-09
-1.2574e-09
2.39723e-15
-3.96431e-09
-1.20197e-09
2.52079e-15
-3.61674e-09
-1.14704e-09
2.63105e-15
-3.28186e-09
-1.09292e-09
2.92006e-15
-2.96029e-09
-1.0389e-09
3.20336e-15
-2.65254e-09
-9.84951e-10
3.71823e-15
-2.35884e-09
-9.31745e-10
4.54067e-15
-2.07968e-09
-8.78545e-10
6.06998e-15
-1.81521e-09
-8.26132e-10
-1.94626e-16
-1.5656e-09
-7.74339e-10
-5.01646e-15
-1.33095e-09
-7.23405e-10
-2.84615e-15
-1.11127e-09
-6.73423e-10
-1.14447e-15
-9.06788e-10
-6.23728e-10
1.16934e-15
-7.1787e-10
-5.73788e-10
-3.41028e-15
-5.45308e-10
-5.2228e-10
-2.25965e-15
-3.90602e-10
-4.66846e-10
-1.34461e-15
-2.56317e-10
-4.04131e-10
-2.43727e-16
-1.46285e-10
-3.29914e-10
1.03138e-15
-6.52757e-11
-2.40377e-10
-9.36729e-16
-1.67861e-11
-1.39631e-10
-4.32894e-16
-4.20614e-11
-2.49628e-16
-8.10931e-09
-2.25172e-09
3.15824e-15
-7.68011e-09
-2.15911e-09
4.28245e-15
-7.25391e-09
-2.07342e-09
4.97984e-15
-6.83152e-09
-1.99365e-09
4.05423e-15
-6.41367e-09
-1.91886e-09
4.0977e-15
-6.00115e-09
-1.84793e-09
3.16577e-15
-5.59485e-09
-1.77993e-09
3.14346e-15
-5.19559e-09
-1.71387e-09
2.89961e-15
-4.80444e-09
-1.64858e-09
3.02091e-15
-4.42211e-09
-1.58428e-09
3.17313e-15
-4.04978e-09
-1.51939e-09
3.30599e-15
-3.68825e-09
-1.45444e-09
3.59569e-15
-3.33854e-09
-1.38861e-09
3.88545e-15
-3.00159e-09
-1.32193e-09
4.43284e-15
-2.67793e-09
-1.25538e-09
5.20036e-15
-2.36844e-09
-1.18805e-09
6.36931e-15
-2.07354e-09
-1.12103e-09
-1.86956e-16
-1.79371e-09
-1.05416e-09
-5.14753e-15
-1.52934e-09
-9.87789e-10
-2.95472e-15
-1.28066e-09
-9.22093e-10
-1.1756e-15
-1.04819e-09
-8.56201e-10
1.15646e-15
-8.32573e-10
-7.89408e-10
-3.52624e-15
-6.34908e-10
-7.19942e-10
-2.37123e-15
-4.57096e-10
-6.44658e-10
-1.40941e-15
-3.02176e-10
-5.59051e-10
-2.30087e-16
-1.7455e-10
-4.57541e-10
1.0518e-15
-7.96332e-11
-3.35295e-10
-1.00975e-15
-2.14037e-11
-1.97861e-10
-5.62782e-16
-6.34652e-11
-2.87487e-16
-8.41121e-09
-2.64952e-09
3.4322e-15
-8.00878e-09
-2.56154e-09
4.74221e-15
-7.60304e-09
-2.47917e-09
5.47807e-15
-7.19526e-09
-2.40145e-09
4.4586e-15
-6.78665e-09
-2.32748e-09
4.47781e-15
-6.37847e-09
-2.25609e-09
3.59183e-15
-5.97206e-09
-2.18635e-09
3.57573e-15
-5.56866e-09
-2.11725e-09
3.38173e-15
-5.16979e-09
-2.04749e-09
3.54048e-15
-4.77654e-09
-1.9775e-09
3.71858e-15
-4.39051e-09
-1.90544e-09
3.86486e-15
-4.01285e-09
-1.83208e-09
4.16866e-15
-3.64496e-09
-1.7565e-09
4.46313e-15
-3.28812e-09
-1.67879e-09
5.01513e-15
-2.94319e-09
-1.60029e-09
5.70331e-15
-2.61138e-09
-1.51987e-09
6.55067e-15
-2.2934e-09
-1.439e-09
-1.81376e-16
-1.99006e-09
-1.3575e-09
-5.16501e-15
-1.70199e-09
-1.27586e-09
-2.98437e-15
-1.42973e-09
-1.19435e-09
-1.16066e-15
-1.17406e-09
-1.11187e-09
1.15256e-15
-9.35931e-10
-1.02754e-09
-3.56104e-15
-7.16754e-10
-9.39116e-10
-2.41455e-15
-5.1881e-10
-8.42603e-10
-1.41694e-15
-3.45574e-10
-7.32287e-10
-1.83833e-16
-2.01947e-10
-6.01168e-10
1.08618e-15
-9.39124e-11
-4.4333e-10
-1.04308e-15
-2.60956e-11
-2.65678e-10
-6.46985e-16
-8.95611e-11
-3.00348e-16
-8.55783e-09
-3.00937e-09
3.69915e-15
-8.18763e-09
-2.93175e-09
5.06641e-15
-7.80868e-09
-2.85813e-09
5.7986e-15
-7.42259e-09
-2.78757e-09
4.73538e-15
-7.03086e-09
-2.7192e-09
4.73349e-15
-6.63508e-09
-2.65184e-09
3.90741e-15
-6.23691e-09
-2.58453e-09
3.89036e-15
-5.83791e-09
-2.51623e-09
3.75598e-15
-5.4399e-09
-2.44554e-09
3.95298e-15
-5.04429e-09
-2.37308e-09
4.15582e-15
-4.65297e-09
-2.29679e-09
4.3085e-15
-4.26739e-09
-2.21765e-09
4.63059e-15
-3.88925e-09
-2.13464e-09
4.9377e-15
-3.52009e-09
-2.04797e-09
5.45978e-15
-3.16109e-09
-1.95928e-09
6.06062e-15
-2.81371e-09
-1.86727e-09
6.69723e-15
-2.47895e-09
-1.77375e-09
-1.79409e-16
-2.15788e-09
-1.67856e-09
-5.14008e-15
-1.85143e-09
-1.58233e-09
-2.96398e-15
-1.56037e-09
-1.4854e-09
-1.11214e-15
-1.2858e-09
-1.38645e-09
1.16822e-15
-1.02892e-09
-1.28442e-09
-3.5192e-15
-7.91476e-10
-1.17656e-09
-2.3973e-15
-5.76088e-10
-1.05799e-09
-1.37153e-15
-3.86628e-10
-9.21747e-10
-1.03499e-16
-2.28438e-10
-7.59359e-10
1.14187e-15
-1.0803e-10
-5.6374e-10
-1.03057e-15
-3.08136e-11
-3.42895e-10
-6.81429e-16
-1.20375e-10
-2.8691e-16
-8.58937e-09
-3.33029e-09
3.88242e-15
-8.25339e-09
-3.26774e-09
5.22822e-15
-7.90413e-09
-3.20739e-09
5.9026e-15
-7.54341e-09
-3.14832e-09
4.88903e-15
-7.17293e-09
-3.08968e-09
4.87439e-15
-6.7945e-09
-3.03024e-09
4.09127e-15
-6.40999e-09
-2.96905e-09
4.09945e-15
-6.02117e-09
-2.90502e-09
4.01125e-15
-5.63009e-09
-2.83665e-09
4.2557e-15
-5.23837e-09
-2.76478e-09
4.48516e-15
-4.8481e-09
-2.68707e-09
4.64468e-15
-4.46095e-09
-2.60478e-09
4.9772e-15
-4.07884e-09
-2.51677e-09
5.26943e-15
-3.70353e-09
-2.4233e-09
5.77595e-15
-3.33639e-09
-2.3264e-09
6.29282e-15
-2.97914e-09
-2.22453e-09
6.76734e-15
-2.633e-09
-2.11989e-09
-1.83548e-16
-2.29927e-09
-2.01228e-09
-5.07404e-15
-1.97913e-09
-1.90248e-09
-2.9146e-15
-1.67359e-09
-1.79093e-09
-1.04911e-15
-1.38399e-09
-1.67605e-09
1.19378e-15
-1.11182e-09
-1.55659e-09
-3.45442e-15
-8.59108e-10
-1.42927e-09
-2.34871e-15
-6.28788e-10
-1.28831e-09
-1.29922e-15
-4.2508e-10
-1.12546e-09
-1.41553e-17
-2.53726e-10
-9.30714e-10
1.20465e-15
-1.21748e-10
-6.95719e-10
-9.93723e-16
-3.54328e-11
-4.2921e-10
-6.8293e-16
-1.55808e-10
-2.6646e-16
-8.53474e-09
-3.61318e-09
3.96145e-15
-8.23294e-09
-3.56954e-09
5.34948e-15
-7.91416e-09
-3.52617e-09
5.93836e-15
-7.58033e-09
-3.48218e-09
4.93027e-15
-7.2333e-09
-3.4367e-09
4.92217e-15
-6.87502e-09
-3.38849e-09
4.17026e-15
-6.50751e-09
-3.33658e-09
4.2043e-15
-6.13267e-09
-3.27984e-09
4.15303e-15
-5.7527e-09
-3.21667e-09
4.44472e-15
-5.36934e-09
-3.14811e-09
4.7021e-15
-4.98483e-09
-3.0716e-09
4.8832e-15
-4.60098e-09
-2.98862e-09
5.21227e-15
-4.21984e-09
-2.89791e-09
5.47796e-15
-3.84333e-09
-2.79984e-09
5.97507e-15
-3.47297e-09
-2.69674e-09
6.43036e-15
-3.11065e-09
-2.58687e-09
6.80236e-15
-2.75776e-09
-2.47277e-09
-1.89495e-16
-2.41579e-09
-2.35425e-09
-5.00707e-15
-2.08611e-09
-2.23218e-09
-2.84788e-15
-1.76995e-09
-2.10708e-09
-9.74666e-16
-1.46888e-09
-1.97713e-09
1.2308e-15
-1.18462e-09
-1.84085e-09
-3.37627e-15
-9.19445e-10
-1.69444e-09
-2.26661e-15
-6.76574e-10
-1.53118e-09
-1.1946e-15
-4.60532e-10
-1.3415e-09
9.05599e-17
-2.77424e-10
-1.11382e-09
1.28104e-15
-1.34777e-10
-8.38368e-10
-9.2906e-16
-3.9834e-11
-5.24153e-10
-6.50381e-16
-1.95643e-10
-2.38724e-16
-8.41534e-09
-3.85998e-09
3.93258e-15
-8.14653e-09
-3.83836e-09
5.36675e-15
-7.85772e-09
-3.81499e-09
5.90104e-15
-7.55094e-09
-3.78899e-09
4.88308e-15
-7.22813e-09
-3.7595e-09
4.89213e-15
-6.89135e-09
-3.72524e-09
4.16476e-15
-6.5427e-09
-3.68524e-09
4.21512e-15
-6.18419e-09
-3.63833e-09
4.19004e-15
-5.81808e-09
-3.58282e-09
4.5278e-15
-5.44621e-09
-3.51996e-09
4.81038e-15
-5.07089e-09
-3.44694e-09
5.01534e-15
-4.69401e-09
-3.36549e-09
5.34855e-15
-4.31769e-09
-3.27424e-09
5.58513e-15
-3.94394e-09
-3.17361e-09
6.07581e-15
-3.57437e-09
-3.06628e-09
6.4871e-15
-3.21098e-09
-2.95027e-09
6.80033e-15
-2.85528e-09
-2.82846e-09
-1.94014e-16
-2.5089e-09
-2.70062e-09
-4.92946e-15
-2.17336e-09
-2.56773e-09
-2.77438e-15
-1.85005e-09
-2.43038e-09
-8.99213e-16
-1.54073e-09
-2.28646e-09
1.26901e-15
-1.24732e-09
-2.13426e-09
-3.29414e-15
-9.72298e-10
-1.96946e-09
-2.17732e-15
-7.19136e-10
-1.78434e-09
-1.08069e-15
-4.92617e-10
-1.56802e-09
1.91058e-16
-2.99182e-10
-1.30726e-09
1.35242e-15
-1.4686e-10
-9.90692e-10
-8.60231e-16
-4.39193e-11
-6.27094e-10
-6.06289e-16
-2.39563e-10
-2.18641e-16
-8.24734e-09
-4.07312e-09
3.86613e-15
-8.00968e-09
-4.07602e-09
5.31289e-15
-7.74959e-09
-4.07508e-09
5.8505e-15
-7.46917e-09
-4.06944e-09
4.77425e-15
-7.17045e-09
-4.05822e-09
4.80797e-15
-6.85554e-09
-4.04013e-09
4.07112e-15
-6.52661e-09
-4.01417e-09
4.17245e-15
-6.18573e-09
-3.97919e-09
4.13881e-15
-5.8352e-09
-3.93339e-09
4.51748e-15
-5.47692e-09
-3.87821e-09
4.81956e-15
-5.11322e-09
-3.81066e-09
5.04164e-15
-4.74601e-09
-3.73268e-09
5.38376e-15
-4.37745e-09
-3.6428e-09
5.60919e-15
-4.00957e-09
-3.54151e-09
6.09551e-15
-3.64403e-09
-3.4318e-09
6.47771e-15
-3.28288e-09
-3.31144e-09
6.74619e-15
-2.92769e-09
-3.18365e-09
-1.90305e-16
-2.58019e-09
-3.04812e-09
-4.82251e-15
-2.24198e-09
-2.90595e-09
-2.67969e-15
-1.9146e-09
-2.75776e-09
-8.13514e-16
-1.59993e-09
-2.60113e-09
1.30321e-15
-1.30005e-09
-2.43414e-09
-3.18981e-15
-1.01762e-09
-2.25188e-09
-2.06784e-15
-7.56293e-10
-2.04567e-09
-9.41896e-16
-5.21088e-10
-1.80322e-09
2.99361e-16
-3.18747e-10
-1.5096e-09
1.42831e-15
-1.5781e-10
-1.15163e-09
-7.77095e-16
-4.76075e-11
-7.37297e-10
-5.47132e-16
-2.87171e-10
-1.79023e-16
-8.04318e-09
-4.25531e-09
3.85691e-15
-7.83451e-09
-4.28469e-09
5.19999e-15
-7.60148e-09
-4.30812e-09
5.68706e-15
-7.34624e-09
-4.3247e-09
4.61549e-15
-7.07088e-09
-4.33358e-09
4.69503e-15
-6.77757e-09
-4.33342e-09
3.92337e-15
-6.46853e-09
-4.32323e-09
4.04375e-15
-6.14585e-09
-4.30184e-09
4.02265e-15
-5.81189e-09
-4.2674e-09
4.42736e-15
-5.46852e-09
-4.22155e-09
4.74312e-15
-5.11809e-09
-4.16111e-09
4.97115e-15
-4.76251e-09
-4.08825e-09
5.3306e-15
-4.4039e-09
-4.00141e-09
5.57398e-15
-4.0443e-09
-3.90114e-09
6.05164e-15
-3.68537e-09
-3.79071e-09
6.41981e-15
-3.32914e-09
-3.66768e-09
6.64447e-15
-2.97723e-09
-3.53556e-09
-1.74894e-16
-2.63138e-09
-3.39397e-09
-4.69308e-15
-2.29327e-09
-3.24406e-09
-2.57485e-15
-1.96451e-09
-3.08652e-09
-7.26627e-16
-1.64707e-09
-2.91858e-09
1.33773e-15
-1.34315e-09
-2.73806e-09
-3.08252e-15
-1.05553e-09
-2.5395e-09
-1.96098e-15
-7.88028e-10
-2.31317e-09
-8.01594e-16
-5.45835e-10
-2.04542e-09
3.98082e-16
-3.35983e-10
-1.71946e-09
1.49454e-15
-1.67517e-10
-1.3201e-09
-7.00272e-16
-5.08554e-11
-8.53959e-10
-4.90828e-16
-3.38028e-10
-1.43597e-16
-7.8125e-09
-4.40927e-09
3.87668e-15
-7.63053e-09
-4.46666e-09
5.15431e-15
-7.42269e-09
-4.51596e-09
5.51248e-15
-7.19117e-09
-4.55624e-09
4.41686e-15
-6.93812e-09
-4.58663e-09
4.49015e-15
-6.66574e-09
-4.60577e-09
3.72442e-15
-6.3763e-09
-4.61268e-09
3.838e-15
-6.07191e-09
-4.60619e-09
3.84049e-15
-5.75493e-09
-4.58442e-09
4.27141e-15
-5.42724e-09
-4.54922e-09
4.59605e-15
-5.09116e-09
-4.49722e-09
4.82589e-15
-4.74855e-09
-4.43085e-09
5.22369e-15
-4.40151e-09
-4.34846e-09
5.49695e-15
-4.05202e-09
-4.25065e-09
5.96509e-15
-3.7017e-09
-4.14101e-09
6.32845e-15
-3.35256e-09
-4.01683e-09
6.56618e-15
-3.00618e-09
-3.88193e-09
-1.58033e-16
-2.66432e-09
-3.73582e-09
-4.54488e-15
-2.32866e-09
-3.57973e-09
-2.45878e-15
-2.00085e-09
-3.41432e-09
-6.26043e-16
-1.68292e-09
-3.23652e-09
1.39783e-15
-1.37712e-09
-3.04386e-09
-2.96209e-15
-1.08633e-09
-2.83028e-09
-1.84194e-15
-8.14468e-10
-2.58504e-09
-6.4609e-16
-5.66881e-10
-2.293e-09
5.03638e-16
-3.50857e-10
-1.93548e-09
1.56456e-15
-1.75946e-10
-1.49501e-09
-6.03338e-16
-5.36496e-11
-9.76256e-10
-4.33042e-16
-3.91678e-10
-1.03428e-16
-7.56287e-09
-4.53775e-09
3.85121e-15
-7.40526e-09
-4.62428e-09
5.03832e-15
-7.22065e-09
-4.70057e-09
5.37603e-15
-7.01126e-09
-4.76565e-09
4.22455e-15
-6.77927e-09
-4.81862e-09
4.26943e-15
-6.52693e-09
-4.85809e-09
3.50801e-15
-6.25651e-09
-4.8831e-09
3.61492e-15
-5.97017e-09
-4.89251e-09
3.64184e-15
-5.67023e-09
-4.8844e-09
4.06895e-15
-5.35857e-09
-4.86085e-09
4.40628e-15
-5.03746e-09
-4.81835e-09
4.65716e-15
-4.70873e-09
-4.75957e-09
5.10225e-15
-4.37439e-09
-4.68279e-09
5.37676e-15
-4.03637e-09
-4.5887e-09
5.82567e-15
-3.69621e-09
-4.48115e-09
6.18015e-15
-3.35586e-09
-4.3572e-09
6.45875e-15
-3.01685e-09
-4.22093e-09
-1.33721e-16
-2.6809e-09
-4.07177e-09
-4.38132e-15
-2.34967e-09
-3.91096e-09
-2.33845e-15
-2.02481e-09
-3.73918e-09
-5.25962e-16
-1.70835e-09
-3.55299e-09
1.44782e-15
-1.40258e-09
-3.34963e-09
-2.82992e-15
-1.11042e-09
-3.12244e-09
-1.71656e-15
-8.3586e-10
-2.8596e-09
-5.1038e-16
-5.84354e-10
-2.54451e-09
5.97249e-16
-3.63425e-10
-2.15641e-09
1.62137e-15
-1.83116e-10
-1.67532e-09
-5.12007e-16
-5.6e-11
-1.10337e-09
-3.87189e-16
-4.47679e-10
-6.94274e-17
-7.30021e-09
-4.64338e-09
3.85816e-15
-7.16466e-09
-4.75982e-09
4.9463e-15
-7.00133e-09
-4.86391e-09
5.22989e-15
-6.81243e-09
-4.95457e-09
4.04311e-15
-6.60017e-09
-5.03087e-09
4.0884e-15
-6.36682e-09
-5.09141e-09
3.29874e-15
-6.11469e-09
-5.13524e-09
3.411e-15
-5.84593e-09
-5.16126e-09
3.43682e-15
-5.56284e-09
-5.16753e-09
3.85023e-15
-5.26728e-09
-5.15638e-09
4.19359e-15
-4.96147e-09
-5.12418e-09
4.47803e-15
-4.64716e-09
-5.07386e-09
4.91156e-15
-4.32631e-09
-5.00365e-09
5.19161e-15
-4.00073e-09
-4.9143e-09
5.65816e-15
-3.67189e-09
-4.80996e-09
6.03384e-15
-3.34165e-09
-4.68745e-09
6.33568e-15
-3.01147e-09
-4.5511e-09
-9.71196e-17
-2.68299e-09
-4.40024e-09
-4.20548e-15
-2.35784e-09
-4.23613e-09
-2.21006e-15
-2.03761e-09
-4.05941e-09
-4.14204e-16
-1.72431e-09
-3.86629e-09
1.5068e-15
-1.42024e-09
-3.6537e-09
-2.6893e-15
-1.12831e-09
-3.41436e-09
-1.55707e-15
-8.52539e-10
-3.13538e-09
-3.75913e-16
-5.98463e-10
-2.79859e-09
6.9734e-16
-3.73808e-10
-2.38107e-09
1.68168e-15
-1.89095e-10
-1.86004e-09
-4.31134e-16
-5.79349e-11
-1.23453e-09
-3.52225e-16
-5.05615e-10
-3.07766e-17
-7.02921e-09
-4.72872e-09
3.83268e-15
-6.9135e-09
-4.87554e-09
4.84496e-15
-6.76951e-09
-5.0079e-09
5.07642e-15
-6.59947e-09
-5.12463e-09
3.86787e-15
-6.40559e-09
-5.22475e-09
3.88907e-15
-6.19016e-09
-5.30682e-09
3.08504e-15
-5.95548e-09
-5.36993e-09
3.18462e-15
-5.7037e-09
-5.41301e-09
3.2114e-15
-5.43711e-09
-5.43417e-09
3.60627e-15
-5.15753e-09
-5.43593e-09
3.94912e-15
-4.8671e-09
-5.41463e-09
4.25385e-15
-4.56752e-09
-5.37343e-09
4.69914e-15
-4.26064e-09
-5.31054e-09
4.98156e-15
-3.94818e-09
-5.22679e-09
5.4778e-15
-3.63151e-09
-5.12661e-09
5.86717e-15
-3.31239e-09
-5.00659e-09
6.17926e-15
-2.99217e-09
-4.87131e-09
-4.791e-17
-2.67242e-09
-4.71999e-09
-3.99891e-15
-2.35468e-09
-4.55388e-09
-2.07741e-15
-2.04049e-09
-4.3736e-09
-3.05115e-16
-1.7318e-09
-4.17498e-09
1.55855e-15
-1.43086e-09
-3.95464e-09
-2.53623e-15
-1.14056e-09
-3.70466e-09
-1.42432e-15
-8.64899e-10
-3.41104e-09
-2.66003e-16
-6.09474e-10
-3.05401e-09
7.82436e-16
-3.82178e-10
-2.60837e-09
1.72681e-15
-1.93981e-10
-2.04824e-09
-3.76681e-16
-5.94949e-11
-1.36902e-09
-3.39671e-16
-5.65111e-10
-1.62786e-19
-6.75356e-09
-4.79619e-09
3.83517e-15
-6.65555e-09
-4.97354e-09
4.76236e-15
-6.52906e-09
-5.13439e-09
4.93596e-15
-6.3763e-09
-5.27742e-09
3.72132e-15
-6.19947e-09
-5.40158e-09
3.6995e-15
-6.00085e-09
-5.50541e-09
2.88859e-15
-5.78276e-09
-5.58803e-09
2.96436e-15
-5.54732e-09
-5.64843e-09
2.98879e-15
-5.29677e-09
-5.68475e-09
3.35806e-15
-5.03291e-09
-5.69977e-09
3.7001e-15
-4.75779e-09
-5.68976e-09
4.0231e-15
-4.47304e-09
-5.65816e-09
4.47601e-15
-4.18041e-09
-5.60318e-09
4.75846e-15
-3.88151e-09
-5.52571e-09
5.28615e-15
-3.57762e-09
-5.43048e-09
5.68985e-15
-3.27035e-09
-5.31387e-09
6.04281e-15
-2.96097e-09
-5.18069e-09
1.84949e-17
-2.65092e-09
-5.03003e-09
-3.78026e-15
-2.34167e-09
-4.86314e-09
-1.93898e-15
-2.03467e-09
-4.6806e-09
-1.87737e-16
-1.73179e-09
-4.47786e-09
1.61789e-15
-1.4352e-09
-4.25123e-09
-2.38425e-15
-1.14774e-09
-3.99212e-09
-1.23878e-15
-8.73373e-10
-3.68541e-09
-1.35887e-16
-6.17692e-10
-3.3097e-09
8.73129e-16
-3.88736e-10
-2.83732e-09
1.77431e-15
-1.97894e-10
-2.23908e-09
-3.59605e-16
-6.07288e-11
-1.50619e-09
-2.80734e-16
-6.25841e-10
3.49599e-17
-6.47621e-09
-4.8481e-09
3.82767e-15
-6.39388e-09
-5.05588e-09
4.68054e-15
-6.28312e-09
-5.24515e-09
4.79117e-15
-6.14611e-09
-5.41445e-09
3.60329e-15
-5.98505e-09
-5.56264e-09
3.52393e-15
-5.80219e-09
-5.68824e-09
2.71602e-15
-5.59981e-09
-5.79041e-09
2.76077e-15
-5.38003e-09
-5.8682e-09
2.78483e-15
-5.14502e-09
-5.91979e-09
3.1189e-15
-4.89653e-09
-5.94823e-09
3.45749e-15
-4.63655e-09
-5.94977e-09
3.79819e-15
-4.3666e-09
-5.9281e-09
4.23509e-15
-4.08834e-09
-5.88145e-09
4.5272e-15
-3.80325e-09
-5.81082e-09
5.08416e-15
-3.51251e-09
-5.7212e-09
5.50505e-15
-3.21762e-09
-5.60878e-09
5.9107e-15
-2.91971e-09
-5.47859e-09
9.78163e-17
-2.62013e-09
-5.3296e-09
-3.57147e-15
-2.32022e-09
-5.16306e-09
-1.79624e-15
-2.02133e-09
-4.97949e-09
-7.64784e-17
-1.72525e-09
-4.77395e-09
1.66269e-15
-1.43405e-09
-4.54243e-09
-2.21997e-15
-1.15047e-09
-4.27569e-09
-1.0634e-15
-8.78411e-10
-3.95747e-09
-2.39636e-17
-6.23442e-10
-3.56467e-09
9.46391e-16
-3.93707e-10
-3.06706e-09
1.80283e-15
-2.00969e-10
-2.43182e-09
-2.82793e-16
-6.16921e-11
-1.64546e-09
-2.16876e-16
-6.87535e-10
6.06135e-17
-6.19946e-09
-4.88657e-09
3.86148e-15
-6.13092e-09
-5.12442e-09
4.62662e-15
-6.03425e-09
-5.34183e-09
4.66238e-15
-5.91157e-09
-5.53714e-09
3.50785e-15
-5.76505e-09
-5.70916e-09
3.37017e-15
-5.59692e-09
-5.85635e-09
2.57374e-15
-5.40942e-09
-5.97791e-09
2.58079e-15
-5.20461e-09
-6.07299e-09
2.59945e-15
-4.98462e-09
-6.13982e-09
2.89741e-15
-4.75112e-09
-6.18171e-09
3.22967e-15
-4.50601e-09
-6.1949e-09
3.5729e-15
-4.25073e-09
-6.18337e-09
3.9987e-15
-3.98682e-09
-6.14536e-09
4.29402e-15
-3.71566e-09
-6.082e-09
4.87406e-15
-3.4383e-09
-5.99854e-09
5.31708e-15
-3.15612e-09
-5.89098e-09
5.8326e-15
-2.87013e-09
-5.76457e-09
1.90333e-16
-2.58156e-09
-5.61817e-09
-3.35458e-15
-2.29163e-09
-5.453e-09
-1.65724e-15
-2.00159e-09
-5.26952e-09
4.97315e-17
-1.71311e-09
-5.06244e-09
1.71328e-15
-1.42814e-09
-4.82739e-09
-2.05506e-15
-1.14933e-09
-4.5545e-09
-8.8327e-16
-8.80466e-10
-4.22634e-09
9.52004e-17
-6.27062e-10
-3.81807e-09
1.02481e-15
-3.97327e-10
-3.2968e-09
1.83369e-15
-2.0335e-10
-2.6258e-09
-2.01268e-16
-6.24427e-11
-1.78637e-09
-1.51793e-16
-7.49979e-10
9.20048e-17
-5.92519e-09
-4.91358e-09
3.92855e-15
-5.86868e-09
-5.18092e-09
4.5871e-15
-5.78456e-09
-5.42595e-09
4.54189e-15
-5.67488e-09
-5.64684e-09
3.44105e-15
-5.54178e-09
-5.84226e-09
3.24249e-15
-5.38742e-09
-6.01068e-09
2.46543e-15
-5.21399e-09
-6.15135e-09
2.43037e-15
-5.0235e-09
-6.26346e-09
2.44077e-15
-4.81799e-09
-6.34537e-09
2.70207e-15
-4.59906e-09
-6.40061e-09
3.02286e-15
-4.36851e-09
-6.42546e-09
3.35273e-15
-4.12769e-09
-6.42417e-09
3.77172e-15
-3.87803e-09
-6.39503e-09
4.06481e-15
-3.62078e-09
-6.33927e-09
4.66018e-15
-3.35689e-09
-6.26241e-09
5.11541e-15
-3.0876e-09
-6.16029e-09
5.60179e-15
-2.81382e-09
-6.03835e-09
2.83426e-16
-2.53663e-09
-5.89535e-09
-3.13011e-15
-2.25716e-09
-5.73249e-09
-1.52973e-15
-1.97651e-09
-5.55016e-09
1.65956e-16
-1.69626e-09
-5.34271e-09
1.75719e-15
-1.41822e-09
-5.10543e-09
-1.89608e-15
-1.14491e-09
-4.82781e-09
-7.42629e-16
-8.79991e-10
-4.49127e-09
1.9576e-16
-6.28889e-10
-4.06917e-09
1.08274e-15
-3.99833e-10
-3.52586e-09
1.84331e-15
-2.05186e-10
-2.82045e-09
-1.31165e-16
-6.30407e-11
-1.92852e-09
-9.58997e-17
-8.13021e-10
1.13768e-16
-5.65485e-09
-4.9309e-09
3.94672e-15
-5.6088e-09
-5.22698e-09
4.54439e-15
-5.53582e-09
-5.49893e-09
4.43851e-15
-5.43793e-09
-5.74474e-09
3.40037e-15
-5.3172e-09
-5.963e-09
3.14301e-15
-5.17572e-09
-6.15214e-09
2.38511e-15
-5.01561e-09
-6.31146e-09
2.31288e-15
-4.8388e-09
-6.44026e-09
2.2925e-15
-4.64724e-09
-6.53696e-09
2.53646e-15
-4.44245e-09
-6.60538e-09
2.84011e-15
-4.22612e-09
-6.64181e-09
3.15194e-15