/*--------------------------------*- C++ -*----------------------------------*\
| =========                 |                                                 |
| \\      /  F ield         | OpenFOAM: The Open Source CFD Toolbox           |
|  \\    /   O peration     | Version:  v2012                                 |
|   \\  /    A nd           | Website:  www.openfoam.com                      |
|    \\/     M anipulation  |                                                 |
\*---------------------------------------------------------------------------*/
FoamFile
{
    version     2.0;
    format      ascii;
    class       volScalarField;
    location    "0.45";
    object      alpha.water;
}
// * * * * * * * * * * * * * * * * * * * * * * * * * * * * * * * * * * * * * //

dimensions      [0 0 0 0 0 0 0];


internalField   nonuniform List<scalar> 
20000
(
-2.34657e-206
-2.02242e-196
-3.18619e-188
-2.60209e-159
-5.3444e-153
-5.47212e-144
-2.68964e-138
-1.50889e-129
-3.2339e-124
-3.50363e-119
-2.00948e-115
-5.29807e-111
-2.35569e-106
-5.24703e-102
-3.6396e-98
-1.87519e-95
-5.37226e-90
-1.22405e-86
-5.17695e-84
-1.02118e-82
-5.71067e-82
-1.57808e-81
-2.62138e-81
-2.91896e-81
-1.5904e-80
-5.32034e-79
-3.70128e-77
-3.83481e-76
-1.42936e-75
-2.81948e-75
-6.84437e-75
-5.99728e-74
-1.24063e-73
-1.17753e-73
-6.39651e-74
-2.20388e-74
-5.11251e-75
-8.29558e-76
-9.65927e-77
-7.60745e-78
-4.92822e-79
-2.35837e-80
-8.359e-82
-2.20377e-83
-4.32743e-85
-6.31351e-87
-6.81541e-89
-5.40716e-91
-3.1274e-93
-1.30591e-95
-3.89198e-98
-8.17338e-101
-1.19114e-103
-1.18211e-106
-7.79857e-110
-3.31021e-113
-8.62155e-117
-1.2772e-120
-9.32521e-125
-2.34378e-129
-1.80796e-203
-5.82412e-194
-3.69816e-186
-1.77833e-157
-3.39049e-151
-2.56193e-142
-1.04808e-136
-7.55061e-128
-1.51002e-122
-1.39345e-117
-6.87953e-114
-1.58323e-109
-6.07359e-105
-1.14066e-100
-7.32594e-97
-3.4908e-94
-9.12357e-89
-1.96369e-85
-7.91384e-83
-1.49176e-81
-8.01025e-81
-2.13546e-80
-3.43553e-80
-3.70423e-80
-1.6132e-79
-5.10972e-78
-3.55689e-76
-3.63652e-75
-1.33485e-74
-2.59574e-74
-6.48133e-74
-5.85312e-73
-1.21131e-72
-1.15007e-72
-6.26043e-73
-2.16591e-73
-5.05559e-74
-8.27114e-75
-9.7306e-76
-7.76671e-77
-5.10365e-78
-2.48247e-79
-8.96157e-81
-2.41106e-82
-4.84061e-84
-7.23322e-86
-8.00982e-88
-6.52732e-90
-3.88142e-92
-1.66711e-94
-5.10979e-97
-1.10267e-99
-1.64851e-102
-1.67396e-105
-1.12595e-108
-4.85047e-112
-1.27474e-115
-1.89133e-119
-1.36715e-123
-3.29325e-128
-1.25553e-200
-1.56628e-191
-3.99805e-184
-1.12973e-155
-2.17572e-149
-1.09218e-140
-3.8686e-135
-3.65997e-126
-6.97239e-121
-5.48035e-116
-2.33737e-112
-4.72158e-108
-1.5632e-103
-2.4576e-99
-1.46213e-95
-6.44514e-93
-1.52888e-87
-3.10834e-84
-1.19362e-81
-2.15025e-80
-1.10889e-79
-2.85252e-79
-4.44558e-79
-4.64593e-79
-1.62602e-78
-4.8366e-77
-3.36906e-75
-3.39964e-74
-1.22922e-73
-2.35706e-73
-6.06496e-73
-5.64283e-72
-1.16845e-71
-1.11e-71
-6.05639e-72
-2.10448e-72
-4.94387e-73
-8.15733e-74
-9.69852e-75
-7.8473e-76
-5.23199e-77
-2.58744e-78
-9.51617e-80
-2.61365e-81
-5.36709e-83
-8.21789e-85
-9.34027e-87
-7.82335e-89
-4.78671e-91
-2.11674e-93
-6.68e-96
-1.48314e-98
-2.27775e-101
-2.36981e-104
-1.62706e-107
-7.11763e-111
-1.88621e-114
-2.79428e-118
-1.98436e-122
-4.49255e-127
-6.72384e-198
-3.71398e-189
-4.00926e-182
-6.71485e-154
-1.41583e-147
-4.19753e-139
-1.34879e-133
-1.72237e-124
-3.18347e-119
-2.13116e-114
-7.8803e-111
-1.40416e-106
-4.01572e-102
-5.25015e-98
-2.89444e-94
-1.18058e-91
-2.52742e-86
-4.8536e-83
-1.77584e-80
-3.05754e-79
-1.51468e-78
-3.76053e-78
-5.67863e-78
-5.75699e-78
-1.63082e-77
-4.51095e-76
-3.14449e-74
-3.13234e-73
-1.11589e-72
-2.11051e-72
-5.6068e-72
-5.37265e-71
-1.11334e-70
-1.05849e-70
-5.79021e-71
-2.02128e-71
-4.78018e-72
-7.95637e-73
-9.5622e-74
-7.84513e-75
-5.30826e-76
-2.66972e-77
-1.00062e-78
-2.80638e-80
-5.89642e-82
-9.25498e-84
-1.08017e-85
-9.30465e-88
-5.86194e-90
-2.6712e-92
-8.68829e-95
-1.98715e-97
-3.13922e-100
-3.3512e-103
-2.35175e-106
-1.04573e-109
-2.79493e-113
-4.12848e-117
-2.86984e-121
-6.13469e-126
-2.07915e-195
-7.24284e-187
-3.70806e-180
-3.71169e-152
-9.22357e-146
-1.43743e-137
-4.42741e-132
-7.88681e-123
-1.43699e-117
-8.1927e-113
-2.63595e-109
-4.16063e-105
-1.0293e-100
-1.1127e-96
-5.68538e-93
-2.14615e-90
-4.12097e-85
-7.47472e-82
-2.60567e-79
-4.28804e-78
-2.04103e-77
-4.89175e-77
-7.15899e-77
-7.04565e-77
-1.62992e-76
-4.14466e-75
-2.89116e-73
-2.84364e-72
-9.98359e-72
-1.86293e-71
-5.1193e-71
-5.05087e-70
-1.04765e-69
-9.9708e-70
-5.46971e-70
-1.91868e-70
-4.56899e-71
-7.6733e-72
-9.32418e-73
-7.75866e-74
-5.32892e-75
-2.72623e-76
-1.04156e-77
-2.98383e-79
-6.41653e-81
-1.03278e-82
-1.2383e-84
-1.09757e-86
-7.12439e-89
-3.34799e-91
-1.12344e-93
-2.64992e-96
-4.31186e-99
-4.72982e-102
-3.39763e-105
-1.53771e-108
-4.14832e-112
-6.10875e-116
-4.15051e-120
-8.38984e-125
-1.14018e-193
-1.06468e-184
-3.1465e-178
-1.84156e-150
-5.87513e-144
-4.33368e-136
-1.36399e-130
-3.52218e-121
-6.41234e-116
-3.11308e-111
-8.74682e-108
-1.22719e-103
-2.63087e-99
-2.34078e-95
-1.10842e-91
-3.87276e-89
-6.62571e-84
-1.13505e-80
-3.76964e-78
-5.92982e-77
-2.71253e-76
-6.27731e-76
-8.90539e-76
-8.51349e-76
-1.6257e-75
-3.75066e-74
-2.61785e-72
-2.54287e-71
-8.80045e-71
-1.62062e-70
-4.61517e-70
-4.68735e-69
-9.73394e-69
-9.27614e-69
-5.10431e-69
-1.79965e-69
-4.31627e-70
-7.31581e-71
-8.9903e-72
-7.58904e-73
-5.29212e-74
-2.75457e-75
-1.07298e-76
-3.14051e-78
-6.91398e-80
-1.14154e-81
-1.40661e-83
-1.28345e-85
-8.58841e-88
-4.16515e-90
-1.44315e-92
-3.5144e-95
-5.89769e-98
-6.65739e-101
-4.90307e-104
-2.26216e-107
-6.16828e-111
-9.06296e-115
-6.01932e-119
-1.14928e-123
-1.63514e-191
-1.05092e-182
-2.43436e-176
-7.55788e-149
-3.55827e-142
-1.13817e-134
-3.93031e-129
-1.5366e-119
-2.82824e-114
-1.16905e-109
-2.87875e-106
-3.59964e-102
-6.70069e-98
-4.89079e-94
-2.14551e-90
-6.93851e-88
-1.05023e-82
-1.69913e-79
-5.37583e-77
-8.08381e-76
-3.5546e-75
-7.94466e-75
-1.09282e-74
-1.01536e-74
-1.62038e-74
-3.34222e-73
-2.33365e-71
-2.23914e-70
-7.64087e-70
-1.38902e-69
-4.10691e-69
-4.29303e-68
-8.92775e-68
-8.52127e-68
-4.70457e-68
-1.66761e-68
-4.0292e-69
-6.8939e-70
-8.56948e-71
-7.34011e-72
-5.19781e-73
-2.75316e-74
-1.09363e-75
-3.27109e-77
-7.37443e-79
-1.2493e-80
-1.58254e-82
-1.48707e-84
-1.02637e-86
-5.14017e-89
-1.84047e-91
-4.63191e-94
-8.02654e-97
-9.3375e-100
-7.06252e-103
-3.32788e-106
-9.18878e-110
-1.34941e-113
-8.77458e-118
-1.58372e-122
-1.75414e-190
-6.68449e-181
-1.70872e-174
-2.21383e-147
-1.99514e-140
-2.59987e-133
-1.05558e-127
-6.55414e-118
-1.23286e-112
-4.33804e-108
-9.39539e-105
-1.04903e-100
-1.69908e-96
-1.01545e-92
-4.12403e-89
-1.23431e-86
-1.64075e-81
-2.50678e-78
-7.55515e-76
-1.0861e-74
-4.59182e-74
-9.91423e-74
-1.32258e-73
-1.19486e-73
-1.61576e-73
-2.93217e-72
-2.04738e-70
-1.9409e-69
-6.53223e-69
-1.17258e-68
-3.6062e-68
-3.87941e-67
-8.08117e-67
-7.72754e-67
-4.28172e-67
-1.52624e-67
-3.71585e-68
-6.4194e-69
-8.07338e-70
-7.01836e-71
-5.04788e-72
-2.72134e-73
-1.10257e-74
-3.37073e-76
-7.78319e-78
-1.35325e-79
-1.76276e-81
-1.70644e-83
-1.21532e-85
-6.28883e-88
-2.32866e-90
-6.06233e-93
-1.08607e-95
-1.30399e-98
-1.01467e-101
-4.89282e-105
-1.37115e-108
-2.01761e-112
-1.28812e-116
-2.20435e-121
-7.39808e-188
-4.48491e-179
-1.08448e-172
-3.36063e-146
-1.00981e-138
-5.28589e-132
-2.632e-126
-2.73218e-116
-5.31059e-111
-1.59035e-106
-3.04004e-103
-3.0345e-99
-4.28515e-95
-2.09612e-91
-7.87287e-88
-2.18016e-85
-2.52585e-80
-3.64399e-77
-1.04611e-74
-1.43774e-73
-5.84578e-73
-1.21958e-72
-1.57822e-72
-1.38697e-72
-1.613e-72
-2.53222e-71
-1.76718e-69
-1.65555e-68
-5.49686e-68
-9.74643e-68
-3.1235e-67
-3.45792e-66
-7.21736e-66
-6.91633e-66
-3.84707e-66
-1.37935e-66
-3.38475e-67
-5.90543e-68
-7.5158e-69
-6.63258e-70
-4.84604e-71
-2.65946e-72
-1.09919e-73
-3.43528e-75
-8.12595e-77
-1.45032e-78
-1.94318e-80
-1.93849e-82
-1.42514e-84
-7.62356e-87
-2.92124e-89
-7.87365e-92
-1.45993e-94
-1.81165e-97
-1.45282e-100
-7.18465e-104
-2.04873e-107
-3.03005e-111
-1.90674e-115
-3.10907e-120
-2.10126e-185
-8.57753e-178
-6.23914e-171
-5.53031e-160
-4.50078e-137
-1.0236e-130
-6.06564e-125
-1.11153e-114
-2.26022e-109
-5.75908e-105
-9.74947e-102
-8.70493e-98
-1.07379e-93
-4.30339e-90
-1.49265e-86
-3.82279e-84
-3.83051e-79
-5.21779e-76
-1.42667e-73
-1.87468e-72
-7.33227e-72
-1.47844e-71
-1.85635e-71
-1.58755e-71
-1.61242e-71
-2.15241e-70
-1.50013e-68
-1.38913e-67
-4.55143e-67
-7.97376e-67
-2.66768e-66
-3.0394e-65
-6.35829e-65
-6.10799e-65
-3.41153e-65
-1.23069e-65
-3.04453e-66
-5.36577e-67
-6.9121e-68
-6.1935e-69
-4.59773e-70
-2.56892e-71
-1.0833e-72
-3.46159e-74
-8.38948e-76
-1.53734e-77
-2.11906e-79
-2.179e-81
-1.65421e-83
-9.15168e-86
-3.6311e-88
-1.01406e-90
-1.94809e-93
-2.50192e-96
-2.07135e-99
-1.05286e-102
-3.06347e-106
-4.5702e-110
-2.8479e-114
-4.45282e-119
-1.91284e-183
-5.12019e-176
-3.2978e-169
-4.62115e-158
-1.71948e-135
-2.0528e-129
-1.28448e-123
-4.40205e-113
-9.50288e-108
-2.05963e-103
-3.09806e-100
-2.47431e-96
-2.6707e-92
-8.7891e-89
-2.81018e-85
-6.65228e-83
-5.72101e-78
-7.35732e-75
-1.91581e-72
-2.40701e-71
-9.0582e-71
-1.76568e-70
-2.15166e-70
-1.79126e-70
-1.61349e-70
-1.80069e-69
-1.2519e-67
-1.14614e-66
-3.70681e-66
-6.41858e-66
-2.24573e-65
-2.63365e-64
-5.52385e-64
-5.32101e-64
-2.98514e-64
-1.08375e-64
-2.70353e-65
-4.81425e-66
-6.27843e-67
-5.7133e-68
-4.3099e-69
-2.45207e-70
-1.05513e-71
-3.44772e-73
-8.56247e-75
-1.61118e-76
-2.28516e-78
-2.42263e-80
-1.89968e-82
-1.08734e-84
-4.46946e-87
-1.29422e-89
-2.57845e-92
-3.43165e-95
-2.93813e-98
-1.53843e-101
-4.58092e-105
-6.91991e-109
-4.29253e-113
-6.48286e-118
-3.33362e-181
-7.29217e-175
-1.6526e-167
-3.62339e-156
-5.45835e-134
-4.25018e-128
-2.4802e-122
-1.69164e-111
-3.94618e-106
-7.27287e-102
-9.75118e-99
-6.96309e-95
-6.58612e-91
-1.78583e-87
-5.25214e-84
-1.14832e-81
-8.41249e-77
-1.02127e-73
-2.53238e-71
-3.04221e-70
-1.10183e-69
-2.07683e-69
-2.4568e-69
-1.99167e-69
-1.61479e-69
-1.48273e-68
-1.02668e-66
-9.29517e-66
-2.96827e-65
-5.08169e-65
-1.86269e-64
-2.249e-63
-4.73104e-63
-4.57134e-63
-2.57668e-63
-9.41694e-64
-2.36944e-64
-4.2641e-65
-5.63098e-66
-5.205e-67
-3.99062e-68
-2.31218e-69
-1.01537e-70
-3.3931e-72
-8.63621e-74
-1.66892e-75
-2.43594e-77
-2.66299e-79
-2.15737e-81
-1.27798e-83
-5.44453e-86
-1.63573e-88
-3.38262e-91
-4.67093e-94
-4.14254e-97
-2.23934e-100
-6.84404e-104
-1.05107e-107
-6.52671e-112
-9.5976e-117
-2.13977e-179
-4.07388e-173
-8.22838e-166
-2.65253e-154
-1.38972e-132
-8.2982e-127
-4.31966e-121
-6.28272e-110
-1.61815e-104
-2.53527e-100
-3.0389e-97
-1.93854e-93
-1.60876e-89
-3.60931e-86
-9.74034e-83
-1.9652e-80
-1.21752e-75
-1.39513e-72
-3.29385e-70
-3.78372e-69
-1.3192e-68
-2.40504e-68
-2.76254e-68
-2.18147e-68
-1.61413e-68
-1.2019e-67
-8.27062e-66
-7.40659e-65
-2.33603e-64
-3.95546e-64
-1.5216e-63
-1.89209e-62
-3.99351e-62
-3.87188e-62
-2.19338e-62
-8.07171e-63
-2.04902e-63
-3.72745e-64
-4.98532e-65
-4.68186e-66
-3.64872e-67
-2.15323e-68
-9.65098e-70
-3.29864e-71
-8.60525e-73
-1.70799e-74
-2.56583e-76
-2.89283e-78
-2.42171e-80
-1.48509e-82
-6.56001e-85
-2.04597e-87
-4.39513e-90
-6.30392e-93
-5.8002e-96
-3.24389e-99
-1.02058e-102
-1.59993e-106
-1.00028e-110
-1.44433e-115
-1.11525e-177
-2.13079e-171
-4.22786e-164
-1.80319e-152
-2.74747e-131
-1.4337e-125
-6.67194e-120
-2.2446e-108
-6.55033e-103
-8.72226e-99
-9.37318e-96
-5.33526e-92
-3.88861e-88
-7.25331e-85
-1.7914e-81
-3.3319e-79
-1.73375e-74
-1.87493e-71
-4.21431e-69
-4.62923e-68
-1.5541e-67
-2.74111e-67
-3.05799e-67
-2.35286e-67
-1.60882e-67
-9.59415e-67
-6.54169e-65
-5.79606e-64
-1.80609e-63
-3.0257e-63
-1.22361e-62
-1.56773e-61
-3.32124e-61
-3.23219e-61
-1.84076e-61
-6.82295e-62
-1.74787e-62
-3.21484e-63
-4.35565e-64
-4.15679e-65
-3.29341e-66
-1.97975e-67
-9.05758e-69
-3.1667e-70
-8.46788e-72
-1.7264e-73
-2.66952e-75
-3.10436e-77
-2.68584e-79
-1.70543e-81
-7.81348e-84
-2.53098e-86
-5.65199e-89
-8.42885e-92
-8.05738e-95
-4.6716e-98
-1.51729e-101
-2.43781e-105
-1.5434e-109
-2.20728e-114
-6.42177e-176
-1.24183e-169
-2.23851e-162
-1.13241e-150
-4.22302e-130
-2.15986e-124
-8.85555e-119
-7.6723e-107
-2.61702e-101
-2.96081e-97
-2.86007e-94
-1.45059e-90
-9.2926e-87
-1.4485e-83
-3.26502e-80
-5.59201e-78
-2.42827e-73
-2.47798e-70
-5.30193e-68
-5.56923e-67
-1.80074e-66
-3.07364e-66
-3.33116e-66
-2.49804e-66
-1.59588e-66
-7.54599e-66
-5.07797e-64
-4.45248e-63
-1.37118e-62
-2.27354e-62
-9.68213e-62
-1.27885e-60
-2.72048e-60
-2.65845e-60
-1.52256e-60
-5.68589e-61
-1.47029e-61
-2.7349e-62
-3.75439e-63
-3.64176e-64
-2.93377e-65
-1.7966e-66
-8.39098e-68
-3.00104e-69
-8.22642e-71
-1.72287e-72
-2.74235e-74
-3.28956e-76
-2.94174e-78
-1.93446e-80
-9.1948e-83
-3.09467e-85
-7.18842e-88
-1.11564e-90
-1.10947e-93
-6.68123e-97
-2.2462e-100
-3.71311e-104
-2.394e-108
-3.42032e-113
-3.65191e-174
-9.00334e-168
-1.18186e-160
-6.55012e-149
-5.50291e-129
-2.7861e-123
-9.30144e-118
-2.49397e-105
-1.03166e-99
-9.91401e-96
-8.62938e-93
-3.89364e-89
-2.19353e-85
-2.87228e-82
-5.89244e-79
-9.28211e-77
-3.34386e-72
-3.21946e-69
-6.55624e-67
-6.58573e-66
-2.05144e-65
-3.38944e-65
-3.56957e-65
-2.60964e-65
-1.57239e-65
-5.85274e-65
-3.8666e-63
-3.35598e-62
-1.02174e-61
-1.67738e-61
-7.53487e-61
-1.02668e-59
-2.19404e-59
-2.15364e-59
-1.24081e-59
-4.66988e-60
-1.21926e-60
-2.29416e-61
-3.19167e-62
-3.14736e-63
-2.57838e-64
-1.60871e-65
-7.67067e-67
-2.80665e-68
-7.88719e-70
-1.69691e-71
-2.78053e-73
-3.44069e-75
-3.18057e-77
-2.1663e-79
-1.06848e-81
-3.73778e-84
-9.03586e-87
-1.46061e-89
-1.51289e-92
-9.47921e-96
-3.30712e-99
-5.64521e-103
-3.72658e-107
-5.36337e-112
-3.03663e-172
-7.46868e-166
-6.02699e-159
-3.51142e-147
-6.48546e-128
-3.00895e-122
-5.03843e-117
-7.65765e-104
-4.01161e-98
-3.2735e-94
-2.57322e-91
-1.03112e-87
-5.1104e-84
-5.64999e-81
-1.05202e-77
-1.52235e-75
-4.5255e-71
-4.11021e-68
-7.96536e-66
-7.65157e-65
-2.29677e-64
-3.67428e-64
-3.76113e-64
-2.6814e-64
-1.53587e-64
-4.48169e-64
-2.88664e-62
-2.48066e-61
-7.46896e-61
-1.21451e-60
-5.7642e-60
-8.10848e-59
-1.74155e-58
-1.71783e-58
-9.95965e-59
-3.77878e-59
-9.96427e-60
-1.89701e-60
-2.67516e-61
-2.68241e-62
-2.23496e-63
-1.42085e-64
-6.91721e-66
-2.58946e-67
-7.46032e-69
-1.64894e-70
-2.78154e-72
-3.55074e-74
-3.39308e-76
-2.39389e-78
-1.22542e-80
-4.45688e-83
-1.12181e-85
-1.88998e-88
-2.04115e-91
-1.33274e-94
-4.83629e-98
-8.55378e-102
-5.81054e-106
-8.49097e-111
-2.53442e-170
-6.16774e-164
-2.92279e-157
-1.81063e-145
-6.03165e-127
-2.66534e-121
9.74973e-116
-2.20439e-102
-1.53822e-96
-1.06553e-92
-7.57939e-90
-2.69232e-86
-1.17416e-82
-1.10131e-79
-1.85632e-76
-2.46454e-74
-6.01685e-70
-5.15408e-67
-9.50371e-65
-8.73052e-64
-2.526e-63
-3.91377e-63
-3.89505e-63
-2.70863e-63
-1.48453e-63
-3.39343e-63
-2.11179e-61
-1.79729e-60
-5.35345e-60
-8.62574e-60
-4.33247e-59
-6.29742e-58
-1.36005e-57
-1.34861e-57
-7.87108e-58
-3.01151e-58
-8.02236e-59
-1.54571e-59
-2.20999e-60
-2.25375e-61
-1.91009e-62
-1.23742e-63
-6.15117e-65
-2.35603e-66
-6.95925e-68
-1.58027e-69
-2.74428e-71
-3.61395e-73
-3.57012e-75
-2.60924e-77
-1.38638e-79
-5.24343e-82
-1.37466e-84
-2.41529e-87
-2.72227e-90
-1.8549e-93
-7.01587e-97
-1.28969e-100
-9.0569e-105
-1.35368e-109
-2.55603e-168
-4.63503e-162
-1.34709e-155
-1.00854e-143
-3.96415e-126
-2.26802e-120
4.72063e-114
-5.90073e-101
-5.8141e-95
-3.41788e-91
-2.20398e-88
-6.92688e-85
-2.65848e-81
-2.12471e-78
-3.23395e-75
-3.9343e-73
-7.85528e-69
-6.34517e-66
-1.11305e-63
-9.77837e-63
-2.72774e-62
-4.09441e-62
-3.96276e-62
-2.68871e-62
-1.41753e-62
-2.54563e-62
-1.5131e-60
-1.27566e-59
-3.76035e-59
-6.00605e-59
-3.19763e-58
-4.8075e-57
-1.04454e-56
-1.04166e-56
-6.12228e-57
-2.3629e-57
-6.3608e-58
-1.24066e-58
-1.79882e-59
-1.86611e-60
-1.60897e-61
-1.06227e-62
-5.39216e-64
-2.11326e-65
-6.39999e-67
-1.49305e-68
-2.66925e-70
-3.62626e-72
-3.70328e-74
-2.80381e-76
-1.54644e-78
-6.08309e-81
-1.66158e-83
-3.04613e-86
-3.58594e-89
-2.55294e-92
-1.00834e-95
-1.93187e-99
-1.40838e-103
-2.16739e-108
-1.94118e-166
-2.97906e-160
-5.97385e-154
-7.37419e-142
-1.55339e-125
-5.63966e-119
1.2747e-112
-1.45584e-99
-2.16546e-93
-1.08002e-89
-6.32324e-87
-1.75498e-83
-5.92724e-80
-4.05213e-77
-5.55662e-74
-6.18672e-72
-1.00655e-67
-7.66527e-65
-1.27894e-62
-1.07451e-61
-2.89073e-61
-4.20482e-61
-3.95876e-61
-2.62139e-61
-1.3351e-61
-1.89636e-61
-1.06121e-59
-8.86484e-59
-2.58701e-58
-4.0977e-58
-2.31617e-57
-3.6059e-56
-7.88609e-56
-7.9127e-56
-4.685e-56
-1.8246e-56
-4.96489e-57
-9.80562e-58
-1.44206e-58
-1.52218e-59
-1.33535e-60
-8.9856e-62
-4.65789e-63
-1.86795e-64
-5.80024e-66
-1.39018e-67
-2.55855e-69
-3.58568e-71
-3.78543e-73
-2.96897e-75
-1.69989e-77
-6.95531e-80
-1.97984e-82
-3.78865e-85
-4.66146e-88
-3.47114e-91
-1.434e-94
-2.8705e-98
-2.18052e-102
-3.47566e-107
-1.62702e-164
-1.57716e-158
-2.60258e-152
-7.49092e-140
-3.83985e-125
-3.74858e-117
2.39015e-111
-3.28033e-98
-7.94414e-92
-3.36067e-88
-1.7888e-85
-4.37573e-82
-1.30038e-78
-7.62986e-76
-9.40641e-73
-9.57337e-71
-1.26525e-66
-9.0819e-64
-1.44102e-61
-1.15782e-60
-3.00482e-60
-4.23678e-60
-3.88126e-60
-2.50891e-60
-1.23862e-60
-1.40644e-60
-7.28108e-59
-6.02785e-58
-1.74216e-57
-2.73778e-57
-1.64553e-56
-2.65609e-55
-5.85026e-55
-5.9087e-55
-3.52569e-55
-1.38604e-55
-3.81352e-56
-7.62838e-57
-1.13819e-57
-1.22272e-58
-1.09154e-59
-7.4867e-61
-3.96346e-62
-1.6265e-63
-5.17843e-65
-1.27511e-66
-2.41587e-68
-3.49254e-70
-3.81137e-72
-3.09661e-74
-1.84048e-76
-7.83351e-79
-2.3241e-81
-4.6438e-84
-5.97496e-87
-4.65789e-90
-2.01554e-93
-4.2244e-97
-3.3546e-101
-5.56725e-106
-8.94869e-163
-7.00179e-157
-1.12658e-150
-9.08948e-138
-1.33294e-127
-2.56526e-115
2.31896e-111
-6.69046e-97
-2.86937e-90
-1.02933e-86
-4.98646e-84
-1.07299e-80
-2.80529e-77
-1.41662e-74
-1.56715e-71
-1.45624e-69
-1.55937e-65
-1.05476e-62
-1.59123e-60
-1.22268e-59
-3.06191e-59
-4.18614e-59
-3.73248e-59
-2.35595e-59
-1.13046e-59
-1.04113e-59
-4.88414e-58
-4.00808e-57
-1.14771e-56
-1.79021e-56
-1.14596e-55
-1.92041e-54
-4.26245e-54
-4.33544e-54
-2.60811e-54
-1.03534e-54
-2.88125e-55
-5.83911e-56
-8.84103e-57
-9.66835e-58
-8.78431e-59
-6.14184e-60
-3.32086e-61
-1.3946e-62
-4.55265e-64
-1.15169e-65
-2.2462e-67
-3.34955e-69
-3.77831e-71
-3.17974e-73
-1.96179e-75
-8.68584e-78
-2.6862e-80
-5.60562e-83
-7.54573e-86
-6.16288e-89
-2.79657e-92
-6.14846e-96
-5.11839e-100
-8.8841e-105
-3.06129e-161
-2.86287e-155
-4.7401e-149
-1.16311e-135
-1.08471e-125
-1.62976e-113
-3.08397e-108
-1.22633e-95
-1.01991e-88
-3.10192e-85
-1.36879e-82
-2.58595e-79
-5.9465e-76
-2.59035e-73
-2.56693e-70
-2.17532e-68
-1.88325e-64
-1.20005e-61
-1.72099e-59
-1.26464e-58
-3.05683e-58
-4.05349e-58
-3.5187e-58
-2.16932e-58
-1.01385e-58
-7.70974e-59
-3.20118e-57
-2.6044e-56
-7.39165e-56
-1.14492e-55
-7.81759e-55
-1.36219e-53
-3.0486e-53
-3.12423e-53
-1.89565e-53
-7.60153e-54
-2.14034e-54
-4.39574e-55
-6.75567e-56
-7.52253e-57
-6.95707e-58
-4.95903e-59
-2.7387e-60
-1.17702e-61
-3.93977e-63
-1.0239e-64
-2.0556e-66
-3.16169e-68
-3.68613e-70
-3.21307e-72
-2.05764e-74
-9.47662e-77
-3.0551e-79
-6.6596e-82
-9.38184e-85
-8.03268e-88
-3.82625e-91
-8.83806e-95
-7.7313e-99
-1.40888e-103
-5.007e-160
-1.0135e-153
-1.83237e-147
-1.50413e-133
-8.68346e-124
-9.74928e-112
-2.39985e-106
-2.01403e-94
-3.56586e-87
-9.19268e-84
-3.69735e-81
-6.12106e-78
-1.23768e-74
-4.65914e-72
-4.1293e-69
-3.18783e-67
-2.22735e-63
-1.33674e-60
-1.82194e-58
-1.28035e-57
-2.98805e-57
-3.84426e-57
-3.24983e-57
-1.95746e-57
-8.92547e-58
-5.71964e-58
-2.04872e-56
-1.65262e-55
-4.65078e-55
-7.15697e-55
-5.22071e-54
-9.47402e-53
-2.13929e-52
-2.21005e-52
-1.35309e-52
-5.48305e-53
-1.56256e-53
-3.25309e-54
-5.07599e-55
-5.75673e-56
-5.42017e-57
-3.93917e-58
-2.22217e-59
-9.77391e-61
-3.35457e-62
-8.95636e-64
-1.85081e-65
-2.936e-67
-3.53759e-69
-3.19355e-71
-2.12262e-73
-1.01684e-75
-3.4172e-78
-7.78158e-81
-1.14756e-83
-1.03049e-86
-5.15677e-90
-1.25303e-93
-1.15413e-97
-2.2152e-102
-1.93543e-158
-2.74402e-152
-6.06393e-146
-1.94767e-131
-6.83885e-122
-5.58178e-110
-1.44118e-104
-2.9757e-93
-1.2256e-85
-2.67773e-82
-9.82036e-80
-1.42202e-76
-2.52753e-73
-8.23346e-71
-6.51699e-68
-4.57841e-66
-2.57821e-62
-1.45684e-59
-1.88673e-57
-1.268e-56
-2.85795e-56
-3.56848e-56
-2.93868e-56
-1.7298e-56
-7.70552e-57
-4.25284e-57
-1.27947e-55
-1.02333e-54
-2.85674e-54
-4.36974e-54
-3.4106e-53
-6.45709e-52
-1.47208e-51
-1.53386e-51
-9.48012e-52
-3.8836e-52
-1.12055e-52
-2.36556e-53
-3.74853e-54
-4.33108e-55
-4.15218e-56
-3.07703e-57
-1.77321e-58
-7.98221e-60
-2.80915e-61
-7.70494e-63
-1.63881e-64
-2.68103e-66
-3.3382e-68
-3.12065e-70
-2.15251e-72
-1.07247e-74
-3.75685e-77
-8.93738e-80
-1.37992e-82
-1.30008e-85
-6.83911e-89
-1.75002e-92
-1.69999e-96
-3.44578e-101
-3.73276e-157
-7.04601e-151
-1.58715e-144
-2.52106e-129
-5.29789e-120
-3.10005e-108
-7.96103e-103
-3.99623e-92
-4.13879e-84
-7.66239e-81
-2.56277e-78
-3.23993e-75
-5.06049e-72
-1.42787e-69
-1.00804e-66
-6.43797e-65
-2.91879e-61
-1.55238e-58
-1.90988e-56
-1.22753e-55
-2.67286e-55
-3.23999e-55
-2.59993e-55
-1.49603e-55
-6.51744e-56
-3.1668e-56
-7.79244e-55
-6.17883e-54
-1.71178e-53
-2.60395e-53
-2.17798e-52
-4.31002e-51
-9.9274e-51
-1.04388e-50
-6.51613e-51
-2.6997e-51
-7.88962e-52
-1.68942e-52
-2.71946e-53
-3.20202e-54
-3.1262e-55
-2.36256e-56
-1.39091e-57
-6.40846e-59
-2.31257e-60
-6.51597e-62
-1.4264e-63
-2.40636e-65
-3.09588e-67
-2.99661e-69
-2.14475e-71
-1.11127e-73
-4.05736e-76
-1.00834e-78
-1.63013e-81
-1.61172e-84
-8.91712e-88
-2.40483e-91
-2.46703e-95
-5.29219e-100
-9.81706e-156
-2.09059e-149
-2.95151e-143
-3.25975e-127
-4.03575e-118
-1.68383e-106
-4.23879e-101
-4.89205e-91
-1.37233e-82
-2.15266e-79
-6.56569e-77
-7.23403e-74
-9.92548e-71
-2.42736e-68
-1.52659e-65
-8.85455e-64
-3.22949e-60
-1.61615e-57
-1.88843e-55
-1.16079e-54
-2.44252e-54
-2.87531e-54
-2.24898e-54
-1.26538e-54
-5.39588e-55
-2.35683e-55
-4.62529e-54
-3.63488e-53
-9.99793e-53
-1.51329e-52
-1.35852e-51
-2.8157e-50
-6.55721e-50
-6.96223e-50
-4.39152e-50
-1.84092e-50
-5.45109e-51
-1.18437e-51
-1.9372e-52
-2.32514e-53
-2.31221e-54
-1.78219e-55
-1.07199e-56
-5.05545e-58
-1.87067e-59
-5.41455e-61
-1.21985e-62
-2.12193e-64
-2.82046e-66
-2.82631e-68
-2.09869e-70
-1.13066e-72
-4.30217e-75
-1.11685e-77
-1.89054e-80
-1.96185e-83
-1.14197e-86
-3.24792e-90
-3.5224e-94
-8.0105e-99
-2.54859e-154
-2.83985e-148
-4.22871e-142
-4.20536e-125
-3.02206e-116
-8.97123e-105
-2.20608e-99
-5.27096e-90
-4.46488e-81
-5.93352e-78
-1.64992e-75
-1.58155e-72
-1.90551e-69
-4.0405e-67
-2.26117e-64
-1.18997e-62
-3.48969e-59
-1.64263e-56
-1.82246e-54
-1.07141e-53
-2.1793e-53
-2.49221e-53
-1.90064e-53
-1.04596e-53
-4.36889e-54
-1.74799e-54
-2.67407e-53
-2.08162e-52
-5.68714e-52
-8.56969e-52
-8.2701e-51
-1.79915e-49
-4.23945e-49
-4.54801e-49
-2.90028e-49
-1.2307e-49
-3.69388e-50
-8.14634e-51
-1.35431e-51
-1.6575e-52
-1.67916e-53
-1.32017e-54
-8.11391e-56
-3.91683e-57
-1.4862e-58
-4.41889e-60
-1.02451e-61
-1.83742e-63
-2.52294e-65
-2.61698e-67
-2.01576e-69
-1.129e-71
-4.47624e-74
-1.21371e-76
-2.15107e-79
-2.34301e-82
-1.43521e-85
-4.3068e-89
-4.94168e-93
-1.19298e-97
-2.43488e-161
-1.68701e-154
-3.1303e-140
-5.4052e-123
-2.22412e-114
-4.6891e-103
-1.12617e-97
-4.42009e-89
-1.42434e-79
-1.60353e-76
-4.06308e-74
-3.38272e-71
-3.57758e-68
-6.57825e-66
-3.27232e-63
-1.56104e-61
-3.67978e-58
-1.62863e-55
-1.71526e-53
-9.64491e-53
-1.89701e-52
-2.10816e-52
-1.56807e-52
-8.44287e-53
-3.45635e-53
-1.28748e-53
-1.50504e-52
-1.15944e-51
-3.14784e-51
-4.7248e-51
-4.90937e-50
-1.12362e-48
-2.68117e-48
-2.90803e-48
-1.87589e-48
-8.0616e-49
-2.45367e-49
-5.4945e-50
-9.28722e-51
-1.15936e-51
-1.1967e-52
-9.59813e-54
-6.02827e-55
-2.97894e-56
-1.15909e-57
-3.54013e-59
-8.44607e-61
-1.56162e-62
-2.2148e-64
-2.37768e-66
-1.89946e-68
-1.10579e-70
-4.56751e-73
-1.29331e-75
-2.39967e-78
-2.74346e-81
-1.76863e-84
-5.60146e-88
-6.80395e-92
-1.74538e-96
-2.4261e-159
-1.64355e-152
-6.6009e-138
-6.90879e-121
-1.60853e-112
-2.40305e-101
-5.64032e-96
-1.4592e-88
-4.4517e-78
-4.24554e-75
-9.79564e-73
-7.07172e-70
-6.56261e-67
-1.04634e-64
-4.622e-62
-1.99691e-60
-3.78337e-57
-1.57386e-54
-1.57306e-52
-8.46094e-52
-1.60968e-51
-1.73895e-51
-1.26192e-51
-6.64957e-52
-2.66939e-52
-9.38295e-53
-8.24308e-52
-6.27516e-51
-1.6938e-50
-2.53384e-50
-2.8394e-49
-6.85377e-48
-1.65756e-47
-1.81887e-47
-1.18755e-47
-5.17116e-48
-1.59676e-48
-3.63203e-49
-6.24384e-50
-7.95262e-51
-8.36507e-52
-6.84532e-53
-4.39391e-54
-2.22288e-55
-8.86945e-57
-2.78265e-58
-6.83134e-60
-1.30202e-61
-1.90713e-63
-2.11864e-65
-1.75506e-67
-1.06179e-69
-4.56816e-72
-1.35054e-74
-2.62297e-77
-3.14725e-80
-2.13539e-83
-7.13902e-87
-9.18351e-91
-2.50509e-95
-1.67886e-157
-2.49007e-150
-1.38196e-135
-8.7642e-119
-1.14316e-110
-1.2066e-99
-2.77008e-94
5.43706e-87
-1.36207e-76
-1.10035e-73
-2.30967e-71
-1.44355e-68
-1.17501e-65
-1.62413e-63
-6.36472e-61
-2.48834e-59
-3.78952e-56
-1.48112e-53
-1.4045e-51
-7.22669e-51
-1.3303e-50
-1.39752e-50
-9.89752e-51
-5.10566e-51
-2.01071e-51
-6.74183e-52
-4.3924e-51
-3.29689e-50
-8.8514e-50
-1.32048e-49
-1.59852e-48
-4.08011e-47
-1.00102e-46
-1.1121e-46
-7.3536e-47
-3.24631e-47
-1.01742e-47
-2.35171e-48
-4.11318e-49
-5.34677e-50
-5.73198e-51
-4.78638e-52
-3.14028e-53
-1.62653e-54
-6.65558e-56
-2.14489e-57
-5.41804e-59
-1.0644e-60
-1.60996e-62
-1.85047e-64
-1.58925e-66
-9.98963e-69
-4.47563e-71
-1.38123e-73
-2.80741e-76
-3.53484e-79
-2.52403e-82
-8.90798e-86
-1.21384e-89
-3.52262e-94
-1.12549e-155
-6.85881e-148
-2.86882e-133
-1.10103e-116
-7.98462e-109
-5.93189e-98
-1.33322e-92
2.40151e-85
-4.07633e-75
-2.78929e-72
-5.32027e-70
-2.87427e-67
-2.05127e-64
-2.45723e-62
-8.53508e-60
-3.0171e-58
-3.69439e-55
-1.35609e-52
-1.2197e-50
-6.00422e-50
-1.06978e-49
-1.09324e-49
-7.55864e-50
-3.81824e-50
-1.47575e-50
-4.75999e-51
-2.27724e-50
-1.67974e-49
-4.48762e-49
-6.68042e-49
-8.75159e-48
-2.36867e-46
-5.90091e-46
-6.64237e-46
-4.45107e-46
-1.9932e-46
-6.3436e-47
-1.49064e-47
-2.65348e-48
-3.52139e-49
-3.848e-50
-3.27925e-51
-2.19936e-52
-1.16643e-53
-4.89491e-55
-1.62039e-56
-4.2114e-58
-8.52713e-60
-1.33171e-61
-1.58341e-63
-1.40959e-65
-9.20377e-68
-4.29307e-70
-1.38268e-72
-2.94044e-75
-3.88435e-78
-2.91851e-81
-1.0873e-84
-1.56958e-88
-4.84733e-93
-5.21638e-154
-2.33821e-145
-5.89708e-131
-1.36688e-114
-5.48313e-107
-2.85326e-96
-6.28436e-91
8.1925e-84
-1.19224e-73
-6.90927e-71
-1.19589e-68
-5.57606e-66
-3.48761e-63
-3.61921e-61
-1.11326e-58
-3.55545e-57
-3.50216e-54
-1.20679e-51
-1.02922e-49
-4.84771e-49
-8.36275e-49
-8.31625e-49
-5.61505e-49
-2.7784e-49
-1.05425e-49
-3.29236e-50
-1.14921e-49
-8.29038e-49
-2.20497e-48
-3.27742e-48
-4.65478e-47
-1.33988e-45
-3.39287e-45
-3.87275e-45
-2.63172e-45
-1.19614e-45
-3.86777e-46
-9.2437e-47
-1.67533e-47
-2.27048e-48
-2.52927e-49
-2.20005e-50
-1.5086e-51
-8.19319e-53
-3.52632e-54
-1.1991e-55
-3.20638e-57
-6.69065e-59
-1.07873e-60
-1.32662e-62
-1.22391e-64
-8.29923e-67
-4.02929e-69
-1.35397e-71
-3.01189e-74
-4.17331e-77
-3.2988e-80
-1.29717e-83
-1.98366e-87
-6.52003e-92
-5.71217e-152
-8.02716e-143
-1.19863e-128
-1.67328e-112
-3.70413e-105
-1.34187e-94
-2.89936e-89
2.65023e-82
-3.4049e-72
-1.67086e-69
-2.62003e-67
-1.05273e-64
-5.76824e-62
-5.18286e-60
-1.41057e-57
-4.0672e-56
-3.22495e-53
-1.04271e-50
-8.42987e-49
-3.79934e-48
-6.348e-48
-6.14503e-48
-4.05306e-48
-1.96504e-48
-7.32251e-49
-2.22482e-49
-5.65069e-49
-3.95932e-48
-1.04876e-47
-1.55751e-47
-2.40269e-46
-7.37857e-45
-1.90118e-44
-2.20236e-44
-1.51878e-44
-7.01064e-45
-2.30445e-45
-5.60404e-46
-1.03452e-46
-1.43229e-47
-1.62671e-48
-1.44446e-49
-1.01282e-50
-5.63348e-52
-2.48689e-53
-8.68669e-55
-2.38974e-56
-5.13864e-58
-8.55226e-60
-1.08765e-61
-1.0397e-63
-7.32e-66
-3.69807e-68
-1.29617e-70
-3.01513e-73
-4.3809e-76
-3.64219e-79
-1.51136e-82
-2.44807e-86
-8.56357e-91
-1.87788e-149
-2.66844e-140
-2.40574e-126
-2.01571e-110
-2.46373e-103
-6.16613e-93
-1.30843e-87
8.17852e-81
-9.48662e-71
-3.94103e-68
-5.58791e-66
-1.93175e-63
-9.26893e-61
-7.2067e-59
-1.7339e-56
-4.51052e-55
-2.88153e-52
-8.73727e-50
-6.69415e-48
-2.88708e-47
-4.67354e-47
-4.40546e-47
-2.83933e-47
-1.34919e-47
-4.93886e-48
-1.46517e-48
-2.7116e-48
-1.82761e-47
-4.82293e-47
-7.16107e-47
-1.20225e-45
-3.95183e-44
-1.03727e-43
-1.22054e-43
-8.54804e-44
-4.00987e-44
-1.34064e-44
-3.31898e-45
-6.24311e-46
-8.83403e-47
-1.02302e-47
-9.27493e-49
-6.65112e-50
-3.78927e-51
-1.71585e-52
-6.15672e-54
-1.7425e-55
-3.86082e-57
-6.63205e-59
-8.72091e-61
-8.63595e-63
-6.31135e-65
-3.31699e-67
-1.21229e-69
-2.94803e-72
-4.49026e-75
-3.92524e-78
-1.71839e-81
-2.94763e-85
-1.09721e-89
-6.82514e-147
-8.53803e-138
-4.76133e-124
-2.38491e-108
-1.61518e-101
-2.7668e-91
-5.77203e-86
2.36711e-79
-2.57639e-69
-9.05798e-67
-1.15872e-64
-3.4409e-62
-1.44522e-59
-9.71673e-58
-2.06479e-55
-4.84275e-54
-2.49527e-51
-7.09131e-49
-5.14737e-47
-2.12441e-46
-3.33293e-46
-3.06038e-46
-1.92796e-46
-8.98144e-47
-3.23053e-47
-9.38211e-48
-1.27301e-47
-8.14402e-47
-2.1416e-46
-3.1814e-46
-5.82445e-45
-2.05627e-43
-5.50466e-43
-6.58553e-43
-4.6876e-43
-2.2362e-43
-7.60883e-44
-1.91861e-44
-3.679e-45
-5.32337e-46
-6.28667e-47
-5.82036e-48
-4.26939e-49
-2.49173e-50
-1.15745e-51
-4.26638e-53
-1.24222e-54
-2.83588e-56
-5.02739e-58
-6.83429e-60
-7.00942e-62
-5.31618e-64
-2.90575e-66
-1.10704e-68
-2.81339e-71
-4.49061e-74
-4.12623e-77
-1.90512e-80
-3.45977e-84
-1.37007e-88
-2.28407e-144
-2.62311e-135
-9.27939e-122
-2.76651e-106
-1.04501e-99
-1.21158e-89
-2.48728e-84
6.21033e-78
-6.81438e-68
-2.02673e-65
-2.33316e-63
-5.94163e-61
-2.18374e-58
-1.26859e-56
-2.3786e-54
-5.02647e-53
-2.09143e-50
-5.56709e-48
-3.82741e-46
-1.51172e-45
-2.29932e-45
-2.05731e-45
-1.26721e-45
-5.78897e-46
-2.04648e-46
-5.8293e-47
-5.86583e-47
-3.49898e-46
-9.16948e-46
-1.36377e-45
-2.72835e-44
-1.03828e-42
-2.8384e-42
-3.45587e-42
-2.50217e-42
-1.21473e-42
-4.20903e-43
-1.08157e-43
-2.11513e-44
-3.13171e-45
-3.7722e-46
-3.5671e-47
-2.67698e-48
-1.60073e-49
-7.62843e-51
-2.88864e-52
-8.65256e-54
-2.03511e-55
-3.72289e-57
-5.23119e-59
-5.55576e-61
-4.37181e-63
-2.48447e-65
-9.86392e-68
-2.61883e-70
-4.37889e-73
-4.22773e-76
-2.05796e-79
-3.95536e-83
-1.66579e-87
-7.30295e-142
-7.7198e-133
-1.77814e-119
-3.1411e-104
-6.68193e-98
-5.17469e-88
-1.04616e-82
1.35515e-76
-1.75374e-66