/*--------------------------------*- C++ -*----------------------------------*\
| =========                 |                                                 |
| \\      /  F ield         | OpenFOAM: The Open Source CFD Toolbox           |
|  \\    /   O peration     | Version:  v2012                                 |
|   \\  /    A nd           | Website:  www.openfoam.com                      |
|    \\/     M anipulation  |                                                 |
\*---------------------------------------------------------------------------*/
FoamFile
{
    version     2.0;
    format      ascii;
    class       volVectorField;
    location    "0.45";
    object      U;
}
// * * * * * * * * * * * * * * * * * * * * * * * * * * * * * * * * * * * * * //

dimensions      [0 1 -1 0 0 0 0];


internalField   nonuniform List<vector> 
20000
(
(3.18178e-07 -0.000335457 -2.77025e-09)
(2.25401e-06 -0.00128826 -1.96681e-08)
(5.60656e-06 -0.00244392 -4.89332e-08)
(9.72303e-06 -0.00363095 -8.48619e-08)
(1.46317e-05 -0.00480596 -1.27712e-07)
(2.01719e-05 -0.00595268 -1.76058e-07)
(2.63901e-05 -0.00706462 -2.30334e-07)
(3.33716e-05 -0.0081391 -2.91262e-07)
(4.10673e-05 -0.00917558 -3.58421e-07)
(4.96535e-05 -0.0101742 -4.3335e-07)
(5.90499e-05 -0.0111355 -5.15357e-07)
(6.93803e-05 -0.0120603 -6.0551e-07)
(8.06744e-05 -0.0129493 -7.0407e-07)
(9.29378e-05 -0.0138032 -8.11093e-07)
(0.000106223 -0.0146226 -9.27037e-07)
(0.000120493 -0.0154078 -1.05157e-06)
(0.000135772 -0.0161593 -1.18491e-06)
(0.000152047 -0.0168771 -1.32694e-06)
(0.000169308 -0.0175613 -1.47758e-06)
(0.000187537 -0.0182119 -1.63667e-06)
(0.000206705 -0.0188285 -1.80396e-06)
(0.000226787 -0.0194108 -1.97922e-06)
(0.000247731 -0.0199584 -2.162e-06)
(0.000269484 -0.0204705 -2.35185e-06)
(0.000291972 -0.0209463 -2.54811e-06)
(0.000315106 -0.021385 -2.75001e-06)
(0.000338776 -0.0217856 -2.95659e-06)
(0.000362852 -0.0221468 -3.16673e-06)
(0.00038718 -0.0224673 -3.37905e-06)
(0.000411579 -0.0227459 -3.59202e-06)
(0.000435842 -0.0229809 -3.80379e-06)
(0.000459735 -0.0231708 -4.01233e-06)
(0.000482993 -0.0233138 -4.21533e-06)
(0.000505324 -0.0234082 -4.41026e-06)
(0.000526407 -0.023452 -4.5943e-06)
(0.000545899 -0.0234434 -4.76446e-06)
(0.000563429 -0.0233805 -4.9175e-06)
(0.000578613 -0.0232611 -5.05008e-06)
(0.000591051 -0.0230834 -5.15872e-06)
(0.000600336 -0.0228453 -5.24054e-06)
(0.00060607 -0.022545 -5.29069e-06)
(0.000607867 -0.0221805 -5.30645e-06)
(0.000605366 -0.0217501 -5.28471e-06)
(0.00059825 -0.021252 -5.22267e-06)
(0.000586258 -0.0206845 -5.11808e-06)
(0.000569207 -0.020046 -4.96933e-06)
(0.000547006 -0.0193344 -4.77561e-06)
(0.000519686 -0.0185479 -4.53721e-06)
(0.000487418 -0.017684 -4.25559e-06)
(0.000450536 -0.0167396 -3.93368e-06)
(0.000409552 -0.0157104 -3.57594e-06)
(0.000365172 -0.0145908 -3.18855e-06)
(0.000318287 -0.013374 -2.77925e-06)
(0.00026989 -0.012052 -2.35674e-06)
(0.000220925 -0.0106185 -1.92927e-06)
(0.000172099 -0.00907219 -1.50301e-06)
(0.000123771 -0.00741915 -1.08107e-06)
(7.67602e-05 -0.00566035 -6.7062e-07)
(3.45537e-05 -0.00373881 -3.02303e-07)
(2.84455e-06 -0.00144543 -3.73219e-08)
(1.67941e-07 -0.000343435 -1.45792e-09)
(1.80104e-06 -0.00130426 -1.56887e-08)
(4.96497e-06 -0.00246524 -4.33156e-08)
(9.32067e-06 -0.00365579 -8.13441e-08)
(1.45642e-05 -0.00483347 -1.27104e-07)
(2.07114e-05 -0.00598245 -1.80764e-07)
(2.75351e-05 -0.00709636 -2.40316e-07)
(3.52229e-05 -0.00817268 -3.07413e-07)
(4.35419e-05 -0.00921093 -3.8002e-07)
(5.26998e-05 -0.0102112 -4.59947e-07)
(6.25869e-05 -0.0111742 -5.46235e-07)
(7.3239e-05 -0.0121005 -6.39201e-07)
(8.47549e-05 -0.0129909 -7.39699e-07)
(9.71341e-05 -0.0138462 -8.47736e-07)
(0.000110425 -0.0146667 -9.63733e-07)
(0.000124651 -0.0154531 -1.08788e-06)
(0.000139847 -0.0162055 -1.2205e-06)
(0.000156012 -0.0169241 -1.36158e-06)
(0.000173153 -0.017609 -1.51117e-06)
(0.000191271 -0.01826 -1.6693e-06)
(0.000210339 -0.018877 -1.8357e-06)
(0.000230335 -0.0194596 -2.01022e-06)
(0.00025122 -0.0200072 -2.19249e-06)
(0.000272937 -0.0205191 -2.38202e-06)
(0.000295414 -0.0209947 -2.57819e-06)
(0.000318555 -0.0214329 -2.78014e-06)
(0.000342251 -0.0218328 -2.98695e-06)
(0.000366364 -0.0221932 -3.19739e-06)
(0.00039074 -0.0225128 -3.41014e-06)
(0.000415194 -0.0227901 -3.62357e-06)
(0.000439516 -0.0230238 -3.83585e-06)
(0.000463467 -0.0232121 -4.04488e-06)
(0.00048678 -0.0233533 -4.24836e-06)
(0.000509158 -0.0234457 -4.44368e-06)
(0.000530279 -0.0234875 -4.62804e-06)
(0.000549794 -0.0234766 -4.79837e-06)
(0.00056733 -0.0234111 -4.95146e-06)
(0.0005825 -0.0232892 -5.08388e-06)
(0.000594902 -0.0231087 -5.19219e-06)
(0.000604127 -0.0228678 -5.27347e-06)
(0.000609774 -0.0225646 -5.32284e-06)
(0.000611456 -0.0221971 -5.33758e-06)
(0.000608813 -0.0217637 -5.31458e-06)
(0.000601524 -0.0212626 -5.25103e-06)
(0.000589333 -0.0206922 -5.14469e-06)
(0.000572053 -0.0200508 -4.99393e-06)
(0.000549596 -0.0193366 -4.79799e-06)
(0.000521997 -0.0185476 -4.55716e-06)
(0.000489427 -0.0176815 -4.27293e-06)
(0.000452224 -0.0167352 -3.94824e-06)
(0.000410904 -0.0157045 -3.5876e-06)
(0.000366179 -0.0145838 -3.19724e-06)
(0.00031895 -0.0133662 -2.78499e-06)
(0.000270223 -0.0120439 -2.35964e-06)
(0.00022096 -0.0106103 -1.9296e-06)
(0.000171879 -0.00906414 -1.50115e-06)
(0.000123323 -0.00741142 -1.07728e-06)
(7.60672e-05 -0.00565385 -6.64717e-07)
(3.36206e-05 -0.00373569 -2.94615e-07)
(2.85598e-06 -0.00144836 -3.52708e-08)
(6.16208e-08 -0.000341406 -5.29471e-10)
(1.17379e-06 -0.00130258 -1.0213e-08)
(3.48654e-06 -0.00246517 -3.04068e-08)
(7.00663e-06 -0.00365753 -6.11316e-08)
(1.15194e-05 -0.00483703 -1.00525e-07)
(1.70555e-05 -0.00598749 -1.48843e-07)
(2.35015e-05 -0.0071029 -2.05098e-07)
(3.08786e-05 -0.00818049 -2.69478e-07)
(3.89821e-05 -0.00922007 -3.40208e-07)
(4.81454e-05 -0.0102216 -4.2018e-07)
(5.80687e-05 -0.0111859 -5.06784e-07)
(6.89436e-05 -0.0121135 -6.01695e-07)
(8.07532e-05 -0.0130053 -7.0476e-07)
(9.35064e-05 -0.0138619 -8.16062e-07)
(0.000107242 -0.0146838 -9.35939e-07)
(0.000121937 -0.0154716 -1.06418e-06)
(0.000137629 -0.0162254 -1.20113e-06)
(0.000154297 -0.0169454 -1.3466e-06)
(0.000171943 -0.0176317 -1.5006e-06)
(0.000190565 -0.0182841 -1.66312e-06)
(0.000210124 -0.0189024 -1.83383e-06)
(0.000230613 -0.0194862 -2.01265e-06)
(0.000251983 -0.0200349 -2.19915e-06)
(0.000274186 -0.0205478 -2.39293e-06)
(0.000297145 -0.0210243 -2.5933e-06)
(0.000320767 -0.0214633 -2.79946e-06)
(0.000344939 -0.0218638 -3.01043e-06)
(0.000369525 -0.0222245 -3.22501e-06)
(0.000394366 -0.0225443 -3.44181e-06)
(0.000419275 -0.0228217 -3.65922e-06)
(0.000444036 -0.0230551 -3.87535e-06)
(0.000468409 -0.0232429 -4.08806e-06)
(0.000492118 -0.0233835 -4.29501e-06)
(0.000514864 -0.0234749 -4.49355e-06)
(0.000536317 -0.0235155 -4.6808e-06)
(0.000556121 -0.0235031 -4.85368e-06)
(0.0005739 -0.0234359 -5.00888e-06)
(0.000589259 -0.023312 -5.14296e-06)
(0.000601792 -0.0231293 -5.25241e-06)
(0.000611084 -0.0228859 -5.33428e-06)
(0.00061673 -0.0225801 -5.38365e-06)
(0.00061834 -0.0222098 -5.39777e-06)
(0.000615551 -0.0217735 -5.37349e-06)
(0.000608043 -0.0212694 -5.30802e-06)
(0.000595556 -0.0206959 -5.19909e-06)
(0.000577907 -0.0200514 -5.04511e-06)
(0.000555011 -0.0193342 -4.84533e-06)
(0.000526906 -0.0185424 -4.60009e-06)
(0.000493771 -0.0176737 -4.31091e-06)
(0.000455949 -0.016725 -3.98083e-06)
(0.000413965 -0.0156922 -3.6144e-06)
(0.000368545 -0.0145699 -3.21797e-06)
(0.0003206 -0.0133511 -2.79948e-06)
(0.000271163 -0.0120281 -2.36795e-06)
(0.000221226 -0.0105941 -1.93204e-06)
(0.000171566 -0.00904787 -1.49854e-06)
(0.000122583 -0.00739526 -1.07092e-06)
(7.51154e-05 -0.00563837 -6.56516e-07)
(3.25696e-05 -0.00372233 -2.8516e-07)
(3.37715e-06 -0.00144005 -3.39363e-08)
(2.59113e-08 -0.00034657 -2.17648e-10)
(1.17537e-06 -0.00131371 -1.02337e-08)
(3.72969e-06 -0.00248074 -3.25162e-08)
(7.32661e-06 -0.0036764 -6.3918e-08)
(1.19396e-05 -0.00485855 -1.04188e-07)
(1.76777e-05 -0.0060112 -1.54271e-07)
(2.4164e-05 -0.00712847 -2.10872e-07)
(3.18093e-05 -0.00820767 -2.77603e-07)
(4.00181e-05 -0.00924863 -3.49244e-07)
(4.93877e-05 -0.0102513 -4.31015e-07)
(5.93824e-05 -0.0112167 -5.18245e-07)
(7.03595e-05 -0.0121452 -6.1405e-07)
(8.22011e-05 -0.0130378 -7.17395e-07)
(9.4976e-05 -0.013895 -8.28887e-07)
(0.000108713 -0.0147176 -9.48775e-07)
(0.000123411 -0.0155059 -1.07705e-06)
(0.000139137 -0.0162602 -1.21429e-06)
(0.000155872 -0.0169806 -1.36034e-06)
(0.000173642 -0.0176673 -1.51542e-06)
(0.000192423 -0.01832 -1.67933e-06)
(0.000212193 -0.0189385 -1.85187e-06)
(0.000232952 -0.0195224 -2.03304e-06)
(0.000254652 -0.0200712 -2.22243e-06)
(0.000277232 -0.0205841 -2.41949e-06)
(0.000300612 -0.0210605 -2.62354e-06)
(0.000324691 -0.0214993 -2.83369e-06)
(0.000349355 -0.0218995 -3.04894e-06)
(0.000374456 -0.0222598 -3.26802e-06)
(0.000399831 -0.0225791 -3.48949e-06)
(0.000425284 -0.0228557 -3.71164e-06)
(0.000450592 -0.0230883 -3.93253e-06)
(0.000475502 -0.0232752 -4.14994e-06)
(0.000499733 -0.0234146 -4.36144e-06)
(0.000522974 -0.0235047 -4.56429e-06)
(0.000544884 -0.0235437 -4.75554e-06)
(0.000565099 -0.0235296 -4.932e-06)
(0.000583231 -0.0234605 -5.09028e-06)
(0.000598874 -0.0233345 -5.22686e-06)
(0.000611616 -0.0231496 -5.33813e-06)
(0.000621031 -0.0229039 -5.42109e-06)
(0.000626707 -0.0225955 -5.47073e-06)
(0.000628248 -0.0222226 -5.48424e-06)
(0.000625285 -0.0217835 -5.45845e-06)
(0.000617494 -0.0212766 -5.39051e-06)
(0.000604616 -0.0207003 -5.27818e-06)
(0.000586468 -0.0200531 -5.11984e-06)
(0.000562967 -0.0193331 -4.91479e-06)
(0.000534159 -0.0185387 -4.6634e-06)
(0.000500229 -0.0176676 -4.36729e-06)
(0.000461532 -0.0167167 -4.02957e-06)
(0.000418605 -0.0156821 -3.65491e-06)
(0.000372188 -0.0145582 -3.24978e-06)
(0.000323214 -0.0133384 -2.8223e-06)
(0.000272742 -0.0120146 -2.38174e-06)
(0.000221815 -0.0105803 -1.93719e-06)
(0.000171296 -0.00903397 -1.49618e-06)
(0.000121705 -0.00738148 -1.06326e-06)
(7.40102e-05 -0.00562532 -6.46841e-07)
(3.15152e-05 -0.00371157 -2.75927e-07)
(2.8884e-06 -0.00143406 -3.0275e-08)
(-7.30909e-08 -0.000345097 6.58251e-10)
(3.62533e-07 -0.00131285 -3.14076e-09)
(2.2374e-06 -0.00248154 -1.951e-08)
(5.27561e-06 -0.00367963 -4.60063e-08)
(9.22515e-06 -0.00486397 -8.04997e-08)
(1.43326e-05 -0.00601883 -1.25066e-07)
(2.03621e-05 -0.0071382 -1.77687e-07)
(2.75976e-05 -0.00821939 -2.40841e-07)
(3.56018e-05 -0.00926226 -3.10693e-07)
(4.49045e-05 -0.0102668 -3.91877e-07)
(5.49283e-05 -0.011234 -4.7936e-07)
(6.61454e-05 -0.0121642 -5.77259e-07)
(7.82863e-05 -0.0130585 -6.83218e-07)
(9.1502e-05 -0.0139175 -7.98556e-07)
(0.000105736 -0.0147416 -9.22777e-07)
(0.000120998 -0.0155315 -1.05598e-06)
(0.000137329 -0.0162872 -1.1985e-06)
(0.000154701 -0.017009 -1.35011e-06)
(0.000173126 -0.017697 -1.51091e-06)
(0.000192582 -0.0183509 -1.68072e-06)
(0.000213046 -0.0189704 -1.85931e-06)
(0.000234514 -0.0195553 -2.04668e-06)
(0.00025693 -0.0201049 -2.24231e-06)
(0.000280243 -0.0206185 -2.44577e-06)
(0.000304366 -0.0210953 -2.6563e-06)
(0.000329203 -0.0215344 -2.87307e-06)
(0.000354634 -0.0219348 -3.09502e-06)
(0.000380511 -0.0222951 -3.32087e-06)
(0.000406663 -0.0226141 -3.54911e-06)
(0.000432889 -0.0228903 -3.77802e-06)
(0.000458958 -0.0231222 -4.00554e-06)
(0.000484608 -0.0233082 -4.22942e-06)
(0.000509549 -0.0234465 -4.4471e-06)
(0.000533457 -0.0235353 -4.65578e-06)
(0.000555981 -0.0235727 -4.85239e-06)
(0.000576744 -0.023557 -5.03364e-06)
(0.000595347 -0.023486 -5.19602e-06)
(0.000611372 -0.0233578 -5.33593e-06)
(0.000624393 -0.0231706 -5.44965e-06)
(0.000633977 -0.0229224 -5.5341e-06)
(0.0006397 -0.0226114 -5.58414e-06)
(0.000641158 -0.0222358 -5.59694e-06)
(0.000637975 -0.0217939 -5.56923e-06)
(0.000629825 -0.0212841 -5.49816e-06)
(0.000616446 -0.0207049 -5.38146e-06)
(0.000597657 -0.0200549 -5.21753e-06)
(0.000573378 -0.0193322 -5.00568e-06)
(0.000543664 -0.0185352 -4.74639e-06)
(0.000508711 -0.0176617 -4.44135e-06)
(0.000468888 -0.0167088 -4.0938e-06)
(0.000424747 -0.0156724 -3.70855e-06)
(0.000377051 -0.0145471 -3.29224e-06)
(0.000326756 -0.0133263 -2.85324e-06)
(0.00027496 -0.012002 -2.40111e-06)
(0.000222762 -0.0105675 -1.94546e-06)
(0.000171139 -0.0090212 -1.49481e-06)
(0.000120762 -0.00736903 -1.05502e-06)
(7.27915e-05 -0.00561384 -6.36204e-07)
(3.0458e-05 -0.00370265 -2.66735e-07)
(2.36998e-06 -0.00143009 -2.56852e-08)
(-2.70873e-08 -0.000348486 2.3924e-10)
(1.04833e-06 -0.0013205 -9.11499e-09)
(2.85294e-06 -0.0024925 -2.48908e-08)
(5.6211e-06 -0.00369328 -4.90311e-08)
(1.00233e-05 -0.00488018 -8.74407e-08)
(1.493e-05 -0.00603722 -1.30296e-07)
(2.08044e-05 -0.00715858 -1.81543e-07)
(2.80636e-05 -0.00824153 -2.44899e-07)
(3.58728e-05 -0.00928597 -3.13053e-07)
(4.51588e-05 -0.0102919 -3.94097e-07)
(5.50838e-05 -0.0112603 -4.80719e-07)
(6.62782e-05 -0.0121917 -5.78413e-07)
(7.83814e-05 -0.0130871 -6.84043e-07)
(9.16156e-05 -0.013947 -7.99542e-07)
(0.000105912 -0.0147721 -9.24314e-07)
(0.000121295 -0.0155628 -1.05856e-06)
(0.000137827 -0.0163193 -1.20283e-06)
(0.000155477 -0.0170419 -1.35688e-06)
(0.000174275 -0.0177306 -1.52094e-06)
(0.00019418 -0.0183851 -1.69465e-06)
(0.000215174 -0.0190053 -1.87788e-06)
(0.000237249 -0.0195907 -2.07053e-06)
(0.000260346 -0.0201407 -2.27211e-06)
(0.000284398 -0.0206547 -2.48202e-06)
(0.000309318 -0.0211318 -2.69951e-06)
(0.000334994 -0.021571 -2.9236e-06)
(0.000361302 -0.0219713 -3.1532e-06)
(0.00038808 -0.0223315 -3.38691e-06)
(0.00041515 -0.0226501 -3.62318e-06)
(0.000442299 -0.0229258 -3.86013e-06)
(0.000469283 -0.023157 -4.09565e-06)
(0.000495829 -0.023342 -4.32734e-06)
(0.000521632 -0.0234792 -4.55256e-06)
(0.000546354 -0.0235667 -4.76834e-06)
(0.000569629 -0.0236026 -4.97151e-06)
(0.000591066 -0.023585 -5.15862e-06)
(0.000610248 -0.023512 -5.32608e-06)
(0.000626743 -0.0233817 -5.47009e-06)
(0.000640113 -0.023192 -5.58685e-06)
(0.000649908 -0.0229413 -5.67316e-06)
(0.000655693 -0.0226275 -5.72376e-06)
(0.000657055 -0.0222491 -5.73571e-06)
(0.00065361 -0.0218043 -5.70571e-06)
(0.000645025 -0.0212915 -5.63085e-06)
(0.000631039 -0.0207094 -5.50885e-06)
(0.00061147 -0.0200564 -5.33811e-06)
(0.000586245 -0.0193309 -5.11802e-06)
(0.000555428 -0.0185313 -4.8491e-06)
(0.00051923 -0.0176553 -4.5332e-06)
(0.000478036 -0.0167002 -4.17367e-06)
(0.000432422 -0.0156619 -3.77556e-06)
(0.000383173 -0.0145352 -3.34571e-06)
(0.000331281 -0.0133134 -2.89277e-06)
(0.000277888 -0.0119885 -2.42669e-06)
(0.000224163 -0.0105538 -1.95771e-06)
(0.000171208 -0.00900765 -1.49543e-06)
(0.000119877 -0.00735594 -1.04731e-06)
(7.15557e-05 -0.00560188 -6.25419e-07)
(2.943e-05 -0.00369339 -2.57722e-07)
(2.04147e-06 -0.00142599 -2.28714e-08)
(-5.40012e-08 -0.00034766 4.76088e-10)
(6.43064e-07 -0.00132043 -5.5764e-09)
(1.94661e-06 -0.00249445 -1.69938e-08)
(3.81149e-06 -0.00369793 -3.32373e-08)
(7.62623e-06 -0.00488648 -6.65004e-08)
(1.22364e-05 -0.00604663 -1.06763e-07)
(1.7902e-05 -0.00716967 -1.56229e-07)
(2.48812e-05 -0.00825508 -2.1713e-07)
(3.26087e-05 -0.00930147 -2.84561e-07)
(4.18608e-05 -0.0103096 -3.65311e-07)
(5.18426e-05 -0.01128 -4.52424e-07)
(6.32442e-05 -0.0122133 -5.51926e-07)
(7.56072e-05 -0.0131105 -6.59822e-07)
(8.9249e-05 -0.0139722 -7.78879e-07)
(0.00010401 -0.014799 -9.07699e-07)
(0.000119947 -0.0155912 -1.04678e-06)
(0.00013709 -0.0163493 -1.1964e-06)
(0.000155412 -0.0170732 -1.35631e-06)
(0.000174929 -0.0177631 -1.52663e-06)
(0.000195608 -0.0184188 -1.70711e-06)
(0.000217429 -0.01904 -1.89755e-06)
(0.00024037 -0.0196262 -2.09777e-06)
(0.000264374 -0.020177 -2.30726e-06)
(0.000289377 -0.0206915 -2.52547e-06)
(0.000315284 -0.021169 -2.75157e-06)
(0.000341984 -0.0216085 -2.9846e-06)
(0.000369344 -0.0220089 -3.22338e-06)
(0.000397197 -0.0223689 -3.46647e-06)
(0.000425353 -0.0226872 -3.71221e-06)
(0.000453589 -0.0229624 -3.95866e-06)
(0.000481649 -0.0231929 -4.20357e-06)
(0.000509245 -0.023377 -4.44442e-06)
(0.000536057 -0.023513 -4.67844e-06)
(0.000561731 -0.023599 -4.90254e-06)
(0.000585885 -0.0236333 -5.11337e-06)
(0.000608108 -0.0236139 -5.30736e-06)
(0.000627966 -0.0235388 -5.48072e-06)
(0.000645011 -0.0234062 -5.62953e-06)
(0.000658786 -0.0232141 -5.74982e-06)
(0.000668826 -0.0229606 -5.83831e-06)
(0.000674683 -0.0226441 -5.88952e-06)
(0.000675929 -0.0222627 -5.90048e-06)
(0.000672174 -0.0218149 -5.86777e-06)
(0.000663077 -0.0212991 -5.78845e-06)
(0.000648375 -0.0207139 -5.66019e-06)
(0.000627889 -0.0200579 -5.48146e-06)
(0.000601552 -0.0193294 -5.25165e-06)
(0.00056944 -0.018527 -4.97144e-06)
(0.00053178 -0.0176485 -4.64277e-06)
(0.00048898 -0.0166912 -4.26924e-06)
(0.000441641 -0.015651 -3.85607e-06)
(0.000390582 -0.0145228 -3.41042e-06)
(0.000336831 -0.0132999 -2.94125e-06)
(0.000281586 -0.0119745 -2.45901e-06)
(0.000226096 -0.0105396 -1.97461e-06)
(0.000171604 -0.00899364 -1.49891e-06)
(0.000119156 -0.00734253 -1.04103e-06)
(7.03918e-05 -0.00558975 -6.15252e-07)
(2.84715e-05 -0.00368407 -2.49382e-07)
(1.80365e-06 -0.00142187 -2.05019e-08)
(-2.01492e-07 -0.00034987 1.76386e-09)
(4.16794e-07 -0.00132571 -3.6112e-09)
(1.27544e-06 -0.00250237 -1.11081e-08)
(4.82971e-06 -0.00370811 -4.21694e-08)
(8.51172e-06 -0.00489874 -7.43445e-08)
(1.26347e-05 -0.00606105 -1.102e-07)
(1.90061e-05 -0.00718624 -1.65802e-07)
(2.51842e-05 -0.00827382 -2.19825e-07)
(3.28486e-05 -0.00932198 -2.86639e-07)
(4.18213e-05 -0.010332 -3.64954e-07)
(5.17311e-05 -0.0113039 -4.51446e-07)
(6.30576e-05 -0.0122389 -5.5029e-07)
(7.54641e-05 -0.0131375 -6.5857e-07)
(8.92019e-05 -0.0140006 -7.78461e-07)
(0.000104154 -0.0148286 -9.08956e-07)
(0.000120362 -0.0156222 -1.0504e-06)
(0.000137887 -0.0163814 -1.20335e-06)
(0.000156687 -0.0171065 -1.36742e-06)
(0.000176796 -0.0177974 -1.54292e-06)
(0.000198158 -0.0184541 -1.72936e-06)
(0.000220763 -0.0190761 -1.92663e-06)
(0.000244574 -0.0196632 -2.13444e-06)
(0.000269533 -0.0202146 -2.35227e-06)
(0.000295561 -0.0207297 -2.57943e-06)
(0.000322559 -0.0212076 -2.81506e-06)
(0.000350403 -0.0216473 -3.05806e-06)
(0.000378948 -0.0220477 -3.30719e-06)
(0.000408016 -0.0224076 -3.56089e-06)
(0.000437405 -0.0227256 -3.81739e-06)
(0.000466876 -0.0230003 -4.07462e-06)
(0.00049616 -0.02323 -4.33021e-06)
(0.000524951 -0.0234131 -4.58148e-06)
(0.00055291 -0.0235479 -4.82553e-06)
(0.000579666 -0.0236325 -5.05907e-06)
(0.000604817 -0.0236651 -5.2786e-06)
(0.000627931 -0.0236437 -5.48037e-06)
(0.000648556 -0.0235665 -5.66042e-06)
(0.00066622 -0.0234315 -5.81463e-06)
(0.00068045 -0.0232368 -5.93891e-06)
(0.000690763 -0.0229806 -6.02979e-06)
(0.000696692 -0.0226611 -6.08165e-06)
(0.000697798 -0.0222767 -6.09137e-06)
(0.000693678 -0.0218257 -6.05549e-06)
(0.000683987 -0.0213067 -5.97098e-06)
(0.000668458 -0.0207183 -5.83553e-06)
(0.000646915 -0.0200592 -5.64757e-06)
(0.0006193 -0.0193277 -5.40661e-06)
(0.000585702 -0.0185225 -5.11341e-06)
(0.000546367 -0.0176413 -4.77013e-06)
(0.000501728 -0.0166817 -4.38055e-06)
(0.000452419 -0.0156396 -3.95019e-06)
(0.000399297 -0.0145099 -3.48653e-06)
(0.000343437 -0.0132859 -2.99894e-06)
(0.000286097 -0.0119599 -2.49842e-06)
(0.000228619 -0.0105249 -1.99667e-06)
(0.000172395 -0.00897928 -1.50584e-06)
(0.000118674 -0.00732893 -1.03684e-06)
(6.93554e-05 -0.00557766 -6.06219e-07)
(2.75976e-05 -0.00367496 -2.41691e-07)
(1.60447e-06 -0.00141798 -1.86453e-08)
(-1.29145e-07 -0.000349646 1.13243e-09)
(4.22012e-07 -0.00132655 -3.65782e-09)
(8.79264e-07 -0.00250515 -7.6667e-09)
(3.76123e-06 -0.00371256 -3.28816e-08)
(6.57161e-06 -0.00490629 -5.74283e-08)
(1.01496e-05 -0.006071 -8.84684e-08)
(1.63417e-05 -0.00719784 -1.42444e-07)
(2.27266e-05 -0.00828852 -1.98353e-07)
(3.06296e-05 -0.00933837 -2.67312e-07)
(3.96327e-05 -0.0103507 -3.45856e-07)
(4.97999e-05 -0.0113247 -4.34596e-07)
(6.13544e-05 -0.0122617 -5.35418e-07)
(7.4055e-05 -0.0131623 -6.46264e-07)
(8.81915e-05 -0.0140273 -7.69636e-07)
(0.00010361 -0.0148572 -9.04194e-07)
(0.000120386 -0.0156524 -1.0506e-06)
(0.000138559 -0.0164132 -1.2092e-06)
(0.000158091 -0.0171398 -1.37967e-06)
(0.000179007 -0.0178321 -1.56221e-06)
(0.000201262 -0.01849 -1.75644e-06)
(0.00022484 -0.0191132 -1.96221e-06)
(0.000249694 -0.0197012 -2.17912e-06)
(0.000275764 -0.0202534 -2.40664e-06)
(0.00030297 -0.0207691 -2.64409e-06)
(0.000331205 -0.0212475 -2.8905e-06)
(0.000360338 -0.0216875 -3.14476e-06)
(0.000390215 -0.0220881 -3.40551e-06)
(0.000420646 -0.0224479 -3.67111e-06)
(0.000451415 -0.0227656 -3.93965e-06)
(0.000482268 -0.0230397 -4.20894e-06)
(0.000512919 -0.0232686 -4.47646e-06)
(0.000543043 -0.0234507 -4.73938e-06)
(0.000572283 -0.0235842 -4.99459e-06)
(0.000600245 -0.0236673 -5.23866e-06)
(0.000626504 -0.0236981 -5.46787e-06)
(0.000650609 -0.0236747 -5.67829e-06)
(0.000672081 -0.0235952 -5.86574e-06)
(0.00069043 -0.0234576 -6.02593e-06)
(0.000705158 -0.0232602 -6.15456e-06)
(0.000715763 -0.0230011 -6.24803e-06)
(0.00072176 -0.0226786 -6.30047e-06)
(0.000722694 -0.022291 -6.30871e-06)
(0.000718152 -0.0218367 -6.26914e-06)
(0.000707781 -0.0213144 -6.17871e-06)
(0.000691311 -0.0207227 -6.03503e-06)
(0.00066857 -0.0200603 -5.83663e-06)
(0.000639509 -0.0193257 -5.58304e-06)
(0.000604232 -0.0185175 -5.27521e-06)
(0.000563009 -0.0176337 -4.91544e-06)
(0.000516303 -0.0166716 -4.50782e-06)
(0.000464783 -0.0156276 -4.05816e-06)
(0.000409351 -0.0144963 -3.57434e-06)
(0.000351137 -0.0132713 -3.0662e-06)
(0.00029147 -0.0119447 -2.54536e-06)
(0.000231791 -0.0105097 -2.02439e-06)
(0.000173648 -0.00896445 -1.51681e-06)
(0.000118499 -0.00731504 -1.03533e-06)
(6.84997e-05 -0.00556547 -5.98744e-07)
(2.68241e-05 -0.00366593 -2.34964e-07)
(1.42971e-06 -0.00141422 -1.68677e-08)
(-1.14939e-07 -0.000351103 1.00783e-09)
(4.70242e-07 -0.00133041 -4.08146e-09)
(9.74577e-07 -0.00251126 -8.50958e-09)
(4.05925e-06 -0.00372099 -3.54055e-08)
(6.00218e-06 -0.00491665 -5.22625e-08)
(1.19974e-05 -0.00608336 -1.04834e-07)
(1.71105e-05 -0.00721194 -1.49571e-07)
(2.30181e-05 -0.00830473 -2.00704e-07)
(3.17762e-05 -0.00935693 -2.77189e-07)
(3.98569e-05 -0.0103715 -3.47924e-07)
(5.00805e-05 -0.0113475 -4.36991e-07)
(6.15793e-05 -0.0122865 -5.37383e-07)
(7.43706e-05 -0.0131889 -6.49013e-07)
(8.87315e-05 -0.0140557 -7.74339e-07)
(0.000104482 -0.0148872 -9.11798e-07)
(0.000121696 -0.0156841 -1.06202e-06)
(0.000140435 -0.0164465 -1.22557e-06)
(0.000160636 -0.0171745 -1.40187e-06)
(0.000182344 -0.0178682 -1.59133e-06)
(0.000205492 -0.0185274 -1.79334e-06)
(0.000230076 -0.0191517 -2.00789e-06)
(0.000256031 -0.0197407 -2.23441e-06)
(0.000283299 -0.0202937 -2.47239e-06)
(0.000311785 -0.0208102 -2.721e-06)
(0.000341377 -0.0212891 -2.97927e-06)
(0.000371928 -0.0217294 -3.2459e-06)
(0.000403273 -0.0221301 -3.51947e-06)
(0.000435206 -0.0224898 -3.79817e-06)
(0.000467497 -0.0228072 -4.08e-06)
(0.000499874 -0.0230807 -4.36259e-06)
(0.000532031 -0.0233088 -4.64326e-06)
(0.000563623 -0.0234898 -4.91898e-06)
(0.000594271 -0.023622 -5.18649e-06)
(0.000623557 -0.0237035 -5.44211e-06)
(0.000651033 -0.0237324 -5.68195e-06)
(0.000676221 -0.0237069 -5.90182e-06)
(0.000698619 -0.023625 -6.09735e-06)
(0.00071771 -0.0234848 -6.26402e-06)
(0.000732974 -0.0232846 -6.39733e-06)
(0.000743885 -0.0230224 -6.49351e-06)
(0.00074994 -0.0226967 -6.54647e-06)
(0.000750667 -0.0223057 -6.5529e-06)
(0.000745639 -0.021848 -6.50911e-06)
(0.000734497 -0.0213222 -6.41193e-06)
(0.000716969 -0.0207271 -6.25903e-06)
(0.000692886 -0.0200613 -6.0489e-06)
(0.000662209 -0.0193234 -5.78123e-06)
(0.000625061 -0.0185122 -5.45706e-06)
(0.000581738 -0.0176255 -5.07897e-06)
(0.000532736 -0.016661 -4.6513e-06)
(0.000478767 -0.0156149 -4.18027e-06)
(0.000420782 -0.014482 -3.67416e-06)
(0.000359974 -0.0132559 -3.14339e-06)
(0.000297752 -0.0119288 -2.60024e-06)
(0.000235664 -0.0104938 -2.05825e-06)
(0.00017542 -0.00894909 -1.53231e-06)
(0.000118686 -0.0073008 -1.03699e-06)
(6.78695e-05 -0.00555317 -5.9326e-07)
(2.61676e-05 -0.00365697 -2.29193e-07)
(1.2782e-06 -0.00141057 -1.54429e-08)
(-1.61072e-07 -0.000351116 1.4074e-09)
(3.77658e-07 -0.00133155 -3.27686e-09)
(8.22595e-07 -0.0025142 -7.1888e-09)
(3.74648e-06 -0.00372602 -3.27002e-08)
(5.13141e-06 -0.00492416 -4.46616e-08)
(1.09034e-05 -0.00609226 -9.53088e-08)
(1.53986e-05 -0.00722519 -1.34683e-07)
(2.0689e-05 -0.00831997 -1.8035e-07)
(2.95839e-05 -0.00937319 -2.57856e-07)
(3.83321e-05 -0.010391 -3.34574e-07)
(4.9205e-05 -0.0113689 -4.29388e-07)
(6.10275e-05 -0.0123102 -5.32552e-07)
(7.42768e-05 -0.0132149 -6.48203e-07)
(8.91259e-05 -0.0140837 -7.77772e-07)
(0.000105414 -0.0149173 -9.19923e-07)
(0.000123278 -0.0157161 -1.07582e-06)
(0.000142756 -0.0164803 -1.24581e-06)
(0.000163805 -0.0172101 -1.42951e-06)
(0.000186459 -0.0179053 -1.62723e-06)
(0.000210658 -0.0185659 -1.83842e-06)
(0.00023639 -0.0191915 -2.06299e-06)
(0.000263588 -0.0197816 -2.30036e-06)
(0.000292188 -0.0203357 -2.54996e-06)
(0.000322092 -0.0208529 -2.81095e-06)
(0.000353174 -0.0213324 -3.08222e-06)
(0.000385281 -0.0217731 -3.36243e-06)
(0.000418233 -0.022174 -3.65002e-06)
(0.00045181 -0.0225336 -3.94307e-06)
(0.000485764 -0.0228506 -4.23941e-06)
(0.000519805 -0.0231236 -4.53652e-06)
(0.000553604 -0.0233509 -4.83153e-06)
(0.000586797 -0.0235307 -5.12123e-06)
(0.000618977 -0.0236615 -5.4021e-06)
(0.000649702 -0.0237413 -5.67029e-06)
(0.000678497 -0.0237682 -5.92164e-06)
(0.000704857 -0.0237404 -6.15175e-06)
(0.000728252 -0.023656 -6.35597e-06)
(0.000748138 -0.0235131 -6.5296e-06)
(0.00076397 -0.0233098 -6.66786e-06)
(0.000775197 -0.0230445 -6.76684e-06)
(0.000781295 -0.0227153 -6.82018e-06)
(0.000781774 -0.0223209 -6.82445e-06)
(0.000776193 -0.0218596 -6.77583e-06)
(0.000764186 -0.0213301 -6.67112e-06)
(0.000745477 -0.0207314 -6.50791e-06)
(0.000719905 -0.020062 -6.28479e-06)
(0.000687439 -0.0193208 -6.0015e-06)
(0.000648227 -0.0185064 -5.65932e-06)
(0.00060259 -0.0176168 -5.26103e-06)
(0.000551064 -0.0166497 -4.81134e-06)
(0.000494408 -0.0156015 -4.31685e-06)
(0.00043363 -0.0144669 -3.78636e-06)
(0.000369991 -0.0132397 -3.23087e-06)
(0.000304989 -0.0119121 -2.66346e-06)
(0.000240287 -0.0104772 -2.09864e-06)
(0.00017776 -0.00893317 -1.55277e-06)
(0.000119283 -0.0072862 -1.04222e-06)
(6.75002e-05 -0.00554073 -5.90037e-07)
(2.56415e-05 -0.00364806 -2.24616e-07)
(1.14798e-06 -0.00140702 -1.4152e-08)
(-1.45106e-07 -0.000352188 1.26808e-09)
(3.44569e-07 -0.00133452 -3.00174e-09)
(7.97823e-07 -0.00251929 -6.94666e-09)
(3.51427e-06 -0.00373341 -3.06531e-08)
(5.79543e-06 -0.00493387 -5.06493e-08)
(1.07502e-05 -0.0061042 -9.38004e-08)
(1.44755e-05 -0.00723921 -1.25964e-07)
(2.40175e-05 -0.00833605 -2.09874e-07)
(3.16694e-05 -0.00939155 -2.76842e-07)
(3.82105e-05 -0.0104115 -3.33227e-07)
(5.05526e-05 -0.0113917 -4.41014e-07)
(6.18069e-05 -0.0123352 -5.39454e-07)
(7.54082e-05 -0.013242 -6.58018e-07)
(9.06742e-05 -0.014113 -7.91289e-07)
(0.000107441 -0.0149487 -9.37608e-07)
(0.000125937 -0.0157495 -1.09902e-06)
(0.000146163 -0.0165155 -1.27554e-06)
(0.000168079 -0.017247 -1.46681e-06)
(0.000191731 -0.0179439 -1.67323e-06)
(0.000217037 -0.0186061 -1.89408e-06)
(0.000244001 -0.019233 -2.1294e-06)
(0.000272535 -0.0198244 -2.37842e-06)
(0.000302578 -0.0203795 -2.64063e-06)
(0.000334017 -0.0208976 -2.915e-06)
(0.000366719 -0.0213777 -3.20041e-06)
(0.000400515 -0.0218189 -3.49537e-06)
(0.000435212 -0.0222199 -3.79819e-06)
(0.000470572 -0.0225794 -4.1068e-06)
(0.00050633 -0.0228962 -4.41889e-06)
(0.000542173 -0.0231685 -4.73173e-06)
(0.000577751 -0.0233949 -5.04226e-06)
(0.000612672 -0.0235736 -5.34704e-06)
(0.000646506 -0.0237028 -5.64237e-06)
(0.000678782 -0.0237808 -5.92409e-06)
(0.000708996 -0.0238057 -6.18782e-06)
(0.000736613 -0.0237755 -6.42889e-06)
(0.000761072 -0.0236884 -6.64242e-06)
(0.000781802 -0.0235426 -6.82341e-06)
(0.000798229 -0.0233361 -6.96688e-06)
(0.000809777 -0.0230674 -7.0687e-06)
(0.000815897 -0.0227347 -7.12224e-06)
(0.000816082 -0.0223365 -7.12394e-06)
(0.000809876 -0.0218715 -7.06988e-06)
(0.000796904 -0.0213382 -6.95674e-06)
(0.00077689 -0.0207356 -6.78215e-06)
(0.000749675 -0.0200626 -6.54469e-06)
(0.000715248 -0.0193178 -6.24429e-06)
(0.000673773 -0.0185 -5.88236e-06)
(0.000625608 -0.0176075 -5.46201e-06)
(0.000571329 -0.0166377 -4.98828e-06)
(0.000511747 -0.0155873 -4.46826e-06)
(0.000447934 -0.0144511 -3.91128e-06)
(0.000381228 -0.0132228 -3.32902e-06)
(0.000313222 -0.0118946 -2.73538e-06)
(0.000245701 -0.0104599 -2.14595e-06)
(0.00018071 -0.00891665 -1.57856e-06)
(0.000120324 -0.00727118 -1.05133e-06)
(6.74183e-05 -0.00552811 -5.89343e-07)
(2.52564e-05 -0.00363915 -2.21234e-07)
(1.03812e-06 -0.00140355 -1.31152e-08)
(-1.81312e-07 -0.000352363 1.58468e-09)
(2.89032e-07 -0.00133591 -2.52241e-09)
(6.62707e-07 -0.00252238 -5.77701e-09)
(3.34209e-06 -0.00373843 -2.91437e-08)
(5.59861e-06 -0.0049408 -4.88927e-08)
(1.08644e-05 -0.00611379 -9.48267e-08)
(1.41563e-05 -0.00725058 -1.23326e-07)
(2.28053e-05 -0.00834955 -1.99304e-07)
(3.0421e-05 -0.00940945 -2.65732e-07)
(3.77117e-05 -0.0104311 -3.28837e-07)
(5.0724e-05 -0.0114142 -4.42541e-07)
(6.24225e-05 -0.0123602 -5.44813e-07)
(7.65926e-05 -0.0132695 -6.68364e-07)
(9.24652e-05 -0.0141428 -8.06912e-07)
(0.000109909 -0.0149808 -9.59142e-07)
(0.0001292 -0.0157837 -1.12749e-06)
(0.000150322 -0.0165519 -1.31183e-06)
(0.000173254 -0.0172854 -1.51196e-06)
(0.000198041 -0.0179841 -1.72829e-06)
(0.000224594 -0.0186479 -1.96003e-06)
(0.000252918 -0.0192764 -2.20722e-06)
(0.000282925 -0.0198691 -2.46909e-06)
(0.000314543 -0.0204253 -2.74504e-06)
(0.000347655 -0.0209443 -3.03402e-06)
(0.000382113 -0.0214252 -3.33475e-06)
(0.000417739 -0.0218668 -3.64568e-06)
(0.000454322 -0.022268 -3.96496e-06)
(0.000491608 -0.0226276 -4.29039e-06)
(0.00052931 -0.0229439 -4.61944e-06)
(0.000567094 -0.0232156 -4.94922e-06)
(0.000604585 -0.0234411 -5.27644e-06)
(0.000641364 -0.0236185 -5.59745e-06)
(0.000676972 -0.0237462 -5.90824e-06)
(0.000710908 -0.0238223 -6.20447e-06)
(0.000742637 -0.0238449 -6.48142e-06)
(0.000771591 -0.0238122 -6.73417e-06)
(0.000797179 -0.0237223 -6.95755e-06)
(0.000818798 -0.0235733 -7.1463e-06)
(0.000835842 -0.0233635 -7.29516e-06)
(0.00084771 -0.0230912 -7.39983e-06)
(0.000853827 -0.0227548 -7.45334e-06)
(0.000853666 -0.0223527 -7.45204e-06)
(0.000846757 -0.0218837 -7.39183e-06)
(0.000832716 -0.0213464 -7.26938e-06)
(0.000811266 -0.0207398 -7.08225e-06)
(0.000782255 -0.0200629 -6.82913e-06)
(0.000745685 -0.0193144 -6.51002e-06)
(0.00070175 -0.0184932 -6.12662e-06)