/*--------------------------------*- C++ -*----------------------------------*\
| =========                 |                                                 |
| \\      /  F ield         | OpenFOAM: The Open Source CFD Toolbox           |
|  \\    /   O peration     | Version:  v2012                                 |
|   \\  /    A nd           | Website:  www.openfoam.com                      |
|    \\/     M anipulation  |                                                 |
\*---------------------------------------------------------------------------*/
FoamFile
{
    version     2.0;
    format      ascii;
    class       volScalarField;
    location    "0.35";
    object      alpha.water;
}
// * * * * * * * * * * * * * * * * * * * * * * * * * * * * * * * * * * * * * //

dimensions      [0 0 0 0 0 0 0];


internalField   nonuniform List<scalar> 
2625
(
-1.33422e-99
-2.89091e-97
-3.03856e-96
-1.01037e-95
-5.7858e-96
-2.02001e-96
-4.34397e-97
-8.70437e-98
-1.20973e-98
-9.66477e-100
-6.67512e-101
-4.34544e-102
-2.50876e-103
-1.16653e-104
-5.1095e-106
-2.22975e-107
-3.42932e-104
-5.63389e-100
-9.4806e-96
-1.78221e-91
-6.31777e-87
-4.43737e-82
-4.07044e-77
-4.20769e-72
-3.38828e-72
-1.29658e-72
-3.12779e-73
-5.32613e-74
-6.7977e-75
-6.74519e-76
-5.33049e-77
-3.4114e-78
-1.78941e-79
-7.76119e-81
-2.80174e-82
-8.45869e-84
-7.52217e-98
-1.27971e-95
-1.10797e-94
-3.21643e-94
-1.69168e-94
-5.5702e-95
-1.13627e-95
-2.11373e-96
-2.85518e-97
-2.23287e-98
-1.51749e-99
-9.65027e-101
-5.4545e-102
-2.47977e-103
-1.07191e-104
-4.47798e-106
-2.74903e-103
-4.52467e-99
-7.64032e-95
-1.51245e-90
-6.75051e-86
-6.18013e-81
-6.25509e-76
-6.5495e-71
-5.35355e-71
-2.08142e-71
-5.1057e-72
-8.84729e-73
-1.14983e-73
-1.1625e-74
-9.36532e-76
-6.11279e-77
-3.27142e-78
-1.44813e-79
-5.33659e-81
-1.64501e-82
-4.04728e-96
-5.1816e-94
-3.91059e-93
-1.02091e-92
-4.74119e-93
-1.44638e-93
-2.84675e-94
-5.1431e-95
-6.64907e-96
-5.04677e-97
-3.35281e-98
-2.11686e-99
-1.13865e-100
-5.08525e-102
-2.16558e-103
-8.86096e-105
-1.90525e-102
-3.15669e-98
-5.40227e-94
-1.16196e-89
-7.51599e-85
-8.89432e-80
-9.55271e-75
-9.84567e-70
-8.17501e-70
-3.23166e-70
-8.06697e-71
-1.42359e-71
-1.88549e-72
-1.94388e-73
-1.59778e-74
-1.06453e-75
-5.81775e-77
-2.6307e-78
-9.90571e-80
-3.12056e-81
-2.08143e-94
-2.04709e-92
-1.30308e-91
-2.92676e-91
-1.27597e-91
-3.66358e-92
-6.85887e-93
-1.20514e-93
-1.4905e-94
-1.09961e-95
-7.08455e-97
-4.30227e-98
-2.29098e-99
-1.00791e-100
-4.23579e-102
-1.69998e-103
-1.11925e-101
-1.88308e-97
-3.31958e-93
-8.17473e-89
-9.06471e-84
-1.30076e-78
-1.43232e-73
-1.42847e-68
-1.20572e-68
-4.84991e-69
-1.23293e-69
-2.21751e-70
-2.99544e-71
-3.15158e-72
-2.64508e-73
-1.80033e-74
-1.00554e-75
-4.64858e-77
-1.79003e-78
-5.76796e-80
-1.01664e-92
-7.74054e-91
-4.16377e-90
-8.15466e-90
-3.31744e-90
-8.83445e-91
-1.59922e-91
-2.72386e-92
-3.18333e-93
-2.31454e-94
-1.45485e-95
-8.54251e-97
-4.43584e-98
-1.92713e-99
-7.98127e-101
-3.15421e-102
-5.43629e-101
-9.43911e-97
-1.76206e-92
-5.42081e-88
-1.17365e-82
-1.87416e-77
-2.07275e-72
-1.9989e-67
-1.71636e-67
-7.03e-68
-1.82137e-68
-3.34119e-69
-4.60652e-70
-4.94983e-71
-4.24514e-72
-2.95399e-73
-1.68751e-74
-7.98196e-76
-3.14572e-77
-1.03764e-78
-4.70121e-91
-2.78882e-89
-1.27441e-88
-2.14571e-88
-8.23853e-89
-2.02569e-89
-3.52826e-90
-5.87044e-91
-6.48278e-92
-4.68191e-93
-2.86776e-94
-1.62733e-95
-8.20546e-97
-3.54218e-98
-1.44625e-99
-5.65144e-101
-2.11805e-100
-3.89958e-96
-8.09436e-92
-3.56991e-87
-1.54795e-81
-2.57408e-76
-2.84262e-71
-2.69564e-66
-2.3563e-66
-9.83445e-67
-2.59861e-67
-4.86555e-68
-6.85165e-69
-7.52449e-70
-6.59909e-71
-4.6981e-72
-2.74704e-73
-1.33043e-74
-5.37028e-76
-1.81475e-77
-2.06589e-89
-9.53387e-88
-3.67994e-87
-5.33495e-87
-1.96166e-87
-4.58975e-88
-7.64352e-89
-1.3385e-89
-1.29183e-90
-9.11409e-92
-5.43789e-93
-2.97637e-94
-1.46543e-95
-6.2958e-97
-2.53331e-98
-9.73322e-100
-6.53457e-100
-1.30925e-95
-3.28064e-91
-2.48954e-86
-1.96057e-80
-3.27622e-75
-3.63451e-70
-3.50032e-65
-3.11696e-65
-1.32657e-65
-3.57749e-66
-6.84175e-67
-9.84759e-68
-1.10607e-68
-9.92662e-70
-7.23543e-71
-4.3333e-72
-2.15039e-73
-8.89652e-75
-3.08206e-76
-8.54455e-88
-3.1052e-86
-1.03237e-85
-1.27036e-85
-4.4694e-86
-9.73691e-87
-1.57013e-87
-2.53719e-88
-2.44703e-89
-1.69214e-90
-9.84046e-92
-5.23074e-93
-2.49695e-94
-1.06727e-95
-4.23774e-97
-1.6066e-98
-1.87841e-99
-3.60786e-95
-1.21961e-90
-1.89288e-85
-2.27948e-79
-3.77564e-74
-4.27871e-69
-4.37208e-64
-3.96903e-64
-1.72376e-64
-4.74783e-65
-9.28087e-66
-1.36633e-66
-1.57066e-67
-1.44348e-68
-1.07795e-69
-6.61693e-71
-3.3668e-72
-1.42861e-73
-5.07723e-75
-3.35932e-86
-9.57228e-85
-2.6961e-84
-2.96519e-84
-9.89616e-85
-1.9335e-85
-3.08682e-86
-4.80619e-87
-4.4146e-88
-3.00782e-89
-1.7028e-90
-8.83713e-92
-4.09505e-93
-1.73854e-94
-6.81893e-96
-2.53441e-97
-1.07017e-98
-8.76863e-95
-4.28669e-90
-1.50587e-84
-2.35597e-78
-3.86166e-73
-4.612e-68
-5.24761e-63
-4.86009e-63
-2.15549e-63
-6.068e-64
-1.21325e-64
-1.82822e-65
-2.15242e-66
-2.02705e-67
-1.5519e-68
-9.77047e-70
-5.10061e-71
-2.22122e-72
-8.10356e-74
-1.24989e-84
-2.80137e-83
-6.69824e-83
-6.62523e-83
-2.06271e-83
-3.8265e-84
-5.73798e-85
-8.78906e-86
-7.57396e-87
-5.06532e-88
-2.81959e-89
-1.43442e-90
-6.44556e-92
-2.71404e-93
-1.05166e-94
-3.82057e-96
-1.33433e-97
-2.10504e-94
-1.37841e-89
-1.1528e-83
-2.10795e-77
-3.43671e-72
-4.5852e-67
-6.04495e-62
-5.71607e-62
-2.59081e-62
-7.46004e-63
-1.52679e-63
-2.35654e-64
-2.84347e-65
-2.74593e-66
-2.1567e-67
-1.39353e-68
-7.46875e-70
-3.34012e-71
-1.25166e-72
-4.33996e-83
-7.70077e-82
-1.56522e-81
-1.39972e-81
-4.0986e-82
-7.28254e-83
-1.02184e-83
-1.50149e-84
-1.23557e-85
-8.17614e-87
-4.48062e-88
-2.19982e-89
-9.73405e-91
-4.01492e-92
-1.53611e-93
-5.5009e-95
-1.86005e-96
-4.80007e-94
-3.65185e-89
-7.80463e-83
-1.58958e-76
-2.60432e-71
-4.34989e-66
-6.67527e-61
-6.44959e-61
-2.98978e-61
-8.81207e-62
-1.84743e-62
-2.92278e-63
-3.61702e-64
-3.58419e-65
-2.8899e-66
-1.91764e-67
-1.05584e-68
-4.85203e-70
-1.86874e-71
-1.42235e-81
-1.99802e-80
-3.45335e-80
-2.82596e-80
-7.74032e-81
-1.34306e-81
-1.7498e-82
-2.44183e-83
-1.92256e-84
-1.25294e-85
-6.7442e-87
-3.28461e-88
-1.41451e-89
-5.69819e-91
-2.13405e-92
-7.5098e-94
-2.49244e-95
-8.12076e-94
-6.92283e-89
-4.32789e-82
-9.78267e-76
-1.63648e-70
-4.24507e-65
-7.05649e-60
-6.97207e-60
-3.30817e-60
-9.98853e-61
-2.14672e-61
-3.48388e-62
-4.42499e-63
-4.50251e-64
-3.72932e-65
-2.54305e-66
-1.43931e-67
-6.8008e-69
-2.69368e-70
-4.4049e-80
-4.93797e-79
-7.21716e-79
-5.38584e-79
-1.37311e-79
-2.21232e-80
-2.71845e-81
-3.71473e-82
-2.83437e-83
-1.80538e-84
-9.62491e-86
-4.56572e-87
-1.94323e-88
-7.64175e-90
-2.80096e-91
-9.68411e-93
-3.14389e-94
-7.37804e-94
-7.76169e-89
-1.80645e-81
-4.7022e-75
-8.23201e-70
-4.67201e-64
-7.13112e-59
-7.21109e-59
-3.50512e-59
-1.08503e-59
-2.39246e-60
-3.98585e-61
-5.1998e-62
-5.43677e-63
-4.62911e-64
-3.246e-65
-1.88971e-66
-9.18636e-68
-3.74406e-69
-1.27103e-78
-1.14479e-77
-1.42921e-77
-1.04384e-77
-2.36847e-78
-3.45177e-79
-4.14978e-80
-5.64726e-81
-4.07328e-82
-2.54403e-83
-1.32757e-84
-6.14989e-86
-2.56703e-87
-9.80867e-89
-3.50956e-90
-1.18234e-91
-3.74475e-93
-2.50439e-94
-3.42606e-89
-4.99233e-81
-1.65023e-74
-3.15035e-69
-5.92437e-63
-6.8789e-58
-7.12534e-58
-3.55103e-58
-1.12794e-58
-2.55371e-59
-4.37103e-60
-5.86136e-61
-6.30209e-62
-5.51987e-63
-3.98289e-64
-2.38656e-65
-1.19434e-66
-5.01183e-68
-3.43665e-77
-2.53965e-76
-2.61489e-76
-1.68608e-76
-3.72877e-77
-5.06958e-78
-5.91312e-79
-7.05271e-80
-5.31888e-81
-3.26263e-82
-1.64797e-83
-7.5178e-85
-3.20124e-86
-1.18565e-87
-4.2139e-89
-1.4245e-90
-4.14818e-92
-1.19436e-93
-3.17079e-95
-6.81522e-81
-3.74772e-74
-8.45241e-69
-8.07893e-62
-6.32397e-57
-6.71595e-57
-3.4347e-57
-1.12045e-57
-2.60695e-58
-4.58816e-59
-6.32917e-60
-7.00317e-61
-6.31454e-62
-4.6917e-63
-2.89545e-64
-1.49264e-65
-6.4528e-67
-8.68545e-76
-5.13086e-75
-4.57872e-75
-2.65895e-75
-5.50643e-76
-7.28543e-77
-8.02273e-78
-9.42894e-79
-6.70543e-80
-4.04127e-81
-2.00612e-82
-9.01191e-84
-3.72271e-85
-1.32116e-86
-4.55736e-88
-1.50023e-89
-4.28293e-91
-1.19394e-92
-3.03725e-94
-4.81043e-96
-4.11727e-74
-1.36207e-68
-1.09879e-60
-5.53157e-56
-6.02835e-56
-3.16674e-56
-1.06189e-56
-2.54134e-57
-4.60295e-58
-6.5373e-59
-7.44994e-60
-6.92038e-61
-5.29844e-62
-3.37009e-63
-1.79076e-64
-7.98031e-66
-2.0405e-74
-9.95708e-74
-7.55778e-74
-4.01031e-74
-7.85105e-75
-9.9724e-76
-1.0197e-76
-1.13391e-77
-7.83719e-79
-4.66555e-80
-2.28387e-81
-9.86446e-83
-4.00302e-84
-1.37656e-85
-4.58457e-87
-1.47563e-88
-4.04706e-90
-1.08826e-91
-2.64016e-93
-2.53982e-95
2.2022e-83
-8.38178e-69
-1.43297e-59
-4.59538e-55
-5.14425e-55
-2.77836e-55
-9.58596e-56
-2.36192e-56
-4.40653e-57
-6.44895e-58
-7.57546e-59
-7.25534e-60
-5.72835e-61
-3.7578e-62
-2.05957e-63
-9.46707e-65
-4.53317e-73
-1.73913e-72
-1.20817e-72
-5.64972e-73
-1.04656e-73
-1.28016e-74
-1.22915e-75
-1.28277e-76
-8.76453e-78
-5.12278e-79
-2.46942e-80
-1.0233e-81
-4.02313e-83
-1.34179e-84
-4.27009e-86
-1.33049e-87
-3.47927e-89
-8.92902e-91
-2.03079e-92
0
-4.97751e-109
9.19162e-69
-1.76604e-58
-3.61913e-54
-4.16571e-54
-2.31548e-54
-8.22812e-55
-2.08929e-55
-4.01885e-56
-6.06624e-57
-7.3516e-58
-7.26541e-59
-5.92001e-60
-4.00826e-61
-2.26747e-62
-1.07576e-63
-9.06909e-72
-2.94953e-71
-1.74015e-71
-7.51233e-72
-1.41875e-72
-1.48079e-73
-1.43557e-74
-1.32113e-75
-9.01215e-77
-5.06385e-78
-2.33757e-79
-9.69287e-81
-3.77528e-82
-1.20086e-83
-3.66242e-85
-1.08193e-86
-2.65946e-88
-6.41365e-90
-1.3279e-91
1.05418e-93
0
9.66493e-68
-2.04557e-57
-2.69664e-53
-3.19481e-53
-1.82954e-53
-6.703e-54
-1.75584e-54
-3.48571e-55
-5.43189e-56
-6.79756e-57
-6.93805e-58
-5.83909e-59
-4.08359e-60
-2.38606e-61
-1.16918e-62
-1.72493e-70
-4.4773e-70
-2.29466e-70
-9.18839e-71
-1.5895e-71
-1.5825e-72
-1.50903e-73
-1.32162e-74
-8.55308e-76
-4.66986e-77
-2.12472e-78
-8.35806e-80
-3.13863e-81
-9.70917e-83
-2.81862e-84
-7.74562e-86
-1.75283e-87
-3.88816e-89
-6.88334e-91
1.33954e-88
4.30414e-96
9.53744e-67
-2.21905e-56
-1.89697e-52
-2.31575e-52
-1.36777e-52
-5.17233e-53
-1.39923e-53
-2.86985e-54
-4.62171e-55
-5.97814e-56
-6.30746e-57
-5.48759e-58
-3.96728e-59
-2.39614e-60
-1.21349e-61
-3.07401e-69
-6.53994e-69
-2.91794e-69
-1.048e-69
-1.70297e-70
-1.6338e-71
-1.49971e-72
-1.24244e-73
-7.71329e-75
-3.99707e-76
-1.758e-77
-6.68388e-79
-2.39611e-80
-6.96383e-82
-1.89742e-83
-4.74596e-85
-9.34448e-87
-1.81751e-88
-2.24789e-90
1.00736e-84
1.9604e-92
8.82199e-66
-2.24649e-55
-1.25697e-51
-1.58291e-51
-9.65403e-52
-3.77256e-52
-1.05518e-52
-2.23846e-53
-3.72946e-54
-4.99135e-55
-5.44921e-56
-4.90545e-57
-3.66923e-58
-2.29254e-59
-1.20084e-60
-4.92217e-68
-9.38886e-68
-3.40589e-68
-1.15417e-68
-1.74987e-69
-1.5284e-70
-1.37699e-71
-1.01853e-72
-6.10187e-74
-3.09663e-75
-1.27361e-76
-4.63e-78
-1.58821e-79
-4.26477e-81
-1.06177e-82
-2.33169e-84
-3.28046e-86
-4.77289e-88
1.49973e-106
1.16639e-82
7.21962e-89
7.60976e-65
-2.11399e-54
-7.82621e-51
-1.0179e-50
-6.41832e-51
-2.59502e-51
-7.51374e-52
-1.65063e-52
-2.8484e-53
-3.94874e-54
-4.46533e-55
-4.16332e-56
-3.22491e-57
-2.08615e-58
-1.13108e-59
-7.35307e-67
-1.07882e-66
-3.67747e-67
-1.15341e-67
-1.49981e-68
-1.34529e-69
-1.03307e-70
-8.04306e-72
-4.59959e-73
-2.26249e-74
-8.77843e-76
-2.90616e-77
-8.21672e-79
-1.95843e-80
-3.77031e-82
-6.12411e-84
-2.23349e-108
5.30968e-91
1.30392e-90
1.0295e-81
2.70526e-85
6.06771e-64
-1.84082e-53
-4.56659e-50
-6.14197e-50
-4.00923e-50
-1.67938e-50
-5.04032e-51
-1.14811e-51
-2.05459e-52
-2.95381e-53
-3.4637e-54
-3.34827e-55
-2.68845e-56
-1.8022e-57
-1.01224e-58
-9.99633e-66
-1.23889e-65
-3.76087e-66
-9.42652e-67
-1.18698e-67
-1.13534e-68
-7.81306e-70
-5.27386e-71
-3.02532e-72
-1.37284e-73
-4.87211e-75
-1.43674e-76
-3.51695e-78
-5.84029e-80
-1.18947e-104
4.78125e-86
1.63258e-85
2.04572e-85
1.53333e-84
1.27321e-81
6.49572e-82
4.41829e-63
-1.47575e-52
-2.49001e-49
-3.46783e-49
-2.34667e-49
-1.01982e-49
-3.17717e-50
-7.51443e-51
-1.39641e-51
-2.08459e-52
-2.53783e-53
-2.54639e-54
-2.12159e-55
-1.47518e-56
-8.5909e-58
-1.25794e-64
-1.29949e-64
-3.51229e-65
-8.13378e-66
-9.50104e-67
-8.40964e-68
-5.62249e-69
-3.45301e-70
-1.81025e-71
-7.56783e-73
-2.26155e-74
-5.5755e-76
-9.43689e-78
-4.26932e-101
4.30171e-82
1.2794e-81
7.66396e-82
7.32345e-82
4.22002e-81
6.57015e-82
3.54929e-80
2.89769e-62
-1.08275e-51
-1.26476e-48
-1.8265e-48
-1.28326e-48
-5.79474e-49
-1.87681e-49
-4.61591e-50
-8.9202e-51
-1.38463e-51
-1.75235e-52
-1.82722e-53
-1.58151e-54
-1.14178e-55
-6.90068e-57
-1.43252e-63
-1.23872e-63
-2.97199e-64
-6.49584e-65
-6.86486e-66
-5.4841e-67
-3.37437e-68
-1.99738e-69
-8.90773e-71
-3.07832e-72
-6.77759e-74
-8.02264e-76
-2.52399e-98
2.09549e-78
5.09473e-78
8.69276e-78
5.73193e-78
4.38608e-78
5.75449e-77
3.54929e-80
2.10496e-70
1.69316e-61
-7.21982e-51
-5.96338e-48
-8.94404e-48
-6.53487e-48
-3.07136e-48
-1.03588e-48
-2.65359e-49
-5.34115e-50
-8.63359e-51
-1.13746e-51
-1.2342e-52
-1.11107e-53
-8.33774e-55
-5.23501e-56
-1.48403e-62
-1.05138e-62
-2.27302e-63
-4.41088e-64
-4.4053e-65
-3.50412e-66
-1.8922e-67
-9.873e-69
-3.56893e-70
-9.32463e-72
1.68848e-91
3.42458e-78
2.05033e-75
7.1571e-75
1.70058e-74
2.87103e-74
1.52956e-74
1.84707e-74
3.19854e-72
1.52065e-76
1.33296e-67
8.85393e-61
-4.33822e-50
-2.59967e-47
-4.05651e-47
-3.08791e-47
-1.51331e-47
-5.32458e-48
-1.42324e-48
-2.98888e-49
-5.03933e-50
-6.92219e-51
-7.827e-52
-7.33839e-53
-5.73076e-54
-3.74213e-55
-1.39388e-61
-8.15943e-62
-1.53964e-62
-2.68858e-63
-2.44541e-64
-1.84536e-65
-9.1519e-67
-3.7687e-68
-9.11126e-70
-3.85399e-93
1.54649e-73
1.17942e-72
6.84686e-72
2.59323e-71
6.41215e-71
1.12265e-70
7.87634e-71
5.97642e-71
2.69281e-69
1.74228e-72
1.83115e-66
4.29023e-60
-2.32395e-49
-1.04289e-46
-1.69665e-46
-1.34846e-46
-6.9051e-47
-2.53973e-47
-7.09745e-48
-1.55805e-48
-2.74492e-49
-3.93782e-50
-4.64719e-51
-4.54442e-52
-3.6978e-53
-2.51428e-54
-1.19594e-60
-5.76151e-61
-9.5492e-62
-1.449e-62
-1.20843e-63
-7.8813e-65
-3.32284e-66
-9.65797e-68
-5.53185e-87
1.48058e-69
1.68563e-68
1.08719e-67
6.36169e-67
2.46732e-66
6.10927e-66
1.06425e-65
7.47661e-66
3.73929e-67
4.35588e-67
4.89343e-67
2.38845e-65
1.96559e-59
-1.09393e-48
-3.82744e-46
-6.51055e-46
-5.41676e-46
-2.90527e-46
-1.11959e-46
-3.27835e-47
-7.5384e-48
-1.39046e-48
-2.08711e-49
-2.57522e-50
-2.63078e-51
-2.23352e-52
-9.0573e-60
-3.606e-60
-5.15018e-61
-7.02467e-62
-5.17062e-63
-2.62133e-64
-7.91896e-66
-2.76127e-68
2.51692e-67
5.31378e-66
5.95322e-65
3.9315e-64
2.07749e-63
7.26737e-63
1.68887e-62
2.85243e-62
1.67272e-62
3.0727e-62
8.96427e-64
1.53774e-63
4.21474e-64
6.56597e-59
-4.42757e-48
-1.27502e-45
-2.27728e-45
-1.99048e-45
-1.12154e-45
-4.54048e-46
-1.39661e-46
-3.37147e-47
-6.52461e-48
-1.02679e-48
-1.32717e-49
-1.41893e-50
-5.86305e-59
-1.93676e-59
-2.29694e-60
-2.34529e-61
-1.50531e-62
-5.91545e-64
-3.2741e-67
2.52728e-67
1.91704e-65
3.08884e-64
3.54794e-63
2.51942e-62
1.25762e-61
4.04197e-61
8.81662e-61
1.44226e-60
7.59676e-61
5.0767e-59
6.85092e-59
9.65107e-60
1.05033e-62
5.68674e-58
-1.48231e-47
-3.8116e-45
-7.1977e-45
-6.64451e-45
-3.94893e-45
-1.68503e-45
-5.46053e-46
-1.38716e-46
-2.82292e-47
-4.66822e-48
-6.3346e-49
-7.10253e-50
-3.10308e-58
-8.87994e-59
-8.93134e-60
-7.27701e-61
-2.93712e-62
-1.59696e-66
0
2.83497e-66
1.31769e-64
1.57088e-63
1.97065e-62
1.44293e-61
7.31115e-61
2.02274e-60
4.14453e-60
6.31419e-60
2.65344e-60
1.98204e-57
1.11713e-55
3.8792e-56
2.86463e-59
8.23375e-54
-3.75374e-47
-1.00404e-44
-2.02925e-44
-1.99593e-44
-1.25875e-44
-5.68608e-45
-1.9483e-45
-5.21996e-46
-1.11962e-46
-1.95054e-47
-2.78592e-48
-3.28393e-49
-1.46887e-57
4.48522e-57
4.15449e-54
6.74712e-53
1.10435e-55
4.19313e-49
-5.11041e-47
-2.25565e-44
-4.99655e-44
-5.31884e-44
-3.59607e-44
-1.73089e-44
-6.30036e-45
-1.78264e-45
-4.03824e-46
-7.43437e-47
-1.12136e-47
-1.39404e-48
1.15138e-53
6.62835e-49
1.58277e-50
3.65974e-46
9.43652e-47
-4.02569e-44
-1.03357e-43
-1.22738e-43
-9.06914e-44
-4.70287e-44
-1.8309e-44
-5.45895e-45
-1.30792e-45
-2.55567e-46
-4.09106e-47
-5.3882e-48
1.01128e-45
5.3054e-47
1.50064e-44
1.57665e-45
-4.55164e-44
-1.64883e-43
-2.33998e-43
-1.96703e-43
-1.12274e-43
-4.7279e-44
-1.46453e-44
-3.71436e-45
-7.771e-46
-1.3323e-46
-1.87319e-47
2.54175e-42
5.87142e-43
1.33947e-44
1.34842e-45
-1.06953e-53
-1.54145e-43
-3.30292e-43
-3.4746e-43
-2.29265e-43
-1.06738e-43
-3.24045e-44
-8.73695e-45
-2.01087e-45
-3.7715e-46
-5.74495e-47
1.5173e-38
1.73679e-39
3.26327e-42
8.18392e-44
2.25043e-45
-2.8121e-52
-2.21845e-43
-4.21544e-43
-3.77484e-43
-2.05072e-43
-4.73953e-44
-1.39432e-44
-4.0337e-45
-8.81743e-46
-1.50471e-46
4.67639e-35
3.30253e-36
1.07301e-38
2.83814e-40
8.17003e-42
5.15603e-44
-2.14205e-51
-1.11946e-53
-4.08044e-43
-3.16681e-43
1.28629e-45
5.04026e-47
-4.56555e-45
-1.51734e-45
-3.17397e-46
6.94405e-32
8.95815e-33
4.41062e-35
9.76313e-37
2.89326e-38
1.88623e-40
4.1377e-43
2.19891e-45
-2.79246e-53
-3.2545e-43
4.19707e-41
1.21208e-42
7.03891e-46
-1.37129e-45
-4.78663e-46
2.35376e-27
3.63928e-28
1.81255e-29
1.46592e-32
9.99457e-35
6.73954e-37
1.53463e-39
8.48958e-42
1.72139e-45
-7.75577e-54
7.69392e-39
4.8146e-40
1.11113e-42
3.27441e-46
-3.71708e-46
3.76812e-23
8.82147e-24
8.76567e-25
1.61878e-26
1.57839e-28
2.35226e-33
5.56775e-36
3.21254e-38
7.04913e-42
1.72139e-45
9.74009e-38
2.86739e-38
5.95484e-40
6.2828e-43
2.01807e-46
1.18407e-20
4.78424e-21
1.21119e-21
1.49951e-22
5.32791e-24
1.04484e-26
1.97646e-32
1.19182e-34
2.84129e-38
7.04913e-42
1.94141e-37
3.95706e-37
5.22316e-38
2.86162e-40
3.58195e-44
4.2782e-19
2.46323e-19
1.0569e-19
2.89422e-20
3.7997e-21
1.25739e-22
6.81124e-29
4.33442e-31
1.1279e-34
2.84129e-38
7.64347e-38
1.1162e-36
5.63588e-37
1.76372e-38
-1.7361e-96
-4.83603e-94
-3.82416e-93
-5.83823e-93
-3.49678e-93
-1.18133e-93
-2.59662e-94
-4.21015e-95
-5.44799e-96
-5.57455e-97
-4.79931e-98
-3.5832e-99
-2.36245e-100
-1.3916e-101
-7.3645e-103
-3.5286e-104
-2.20287e-104
-3.38574e-100
-5.69206e-96
-1.07053e-91
-3.77437e-87
-2.63434e-82
-2.41103e-77
-2.49171e-72
-2.00719e-72
-7.6867e-73
-1.85619e-73
-3.16457e-74
-4.04414e-75
-4.01835e-76
-3.17994e-77
-2.03792e-78
-1.07045e-79
-4.64921e-81
-1.6806e-82
-5.08064e-84
-9.80574e-95
-2.1025e-92
-1.38702e-91
-1.87189e-91
-1.02898e-91
-3.25752e-92
-6.76638e-93
-1.0483e-93
-1.30881e-94
-1.29717e-95
-1.08615e-96
-7.92463e-98
-5.12112e-99
-2.96111e-100
-1.54229e-101
-7.28338e-103
-1.95507e-103
-2.71964e-99
-4.58759e-95
-9.07848e-91
-4.0193e-86
-3.65716e-81
-3.69659e-76
-3.87243e-71
-3.16641e-71
-1.23202e-71
-3.02529e-72
-5.2487e-73
-6.83046e-74
-6.91538e-75
-5.57903e-76
-3.64666e-77
-1.95438e-78
-8.66346e-80
-3.19706e-81
-9.86841e-83
-5.29094e-93
-8.70153e-91
-4.85076e-90
-5.79854e-90
-2.92222e-90
-8.60862e-91
-1.69949e-91
-2.52071e-92
-3.03043e-93
-2.91459e-94
-2.37438e-95
-1.69304e-96
-1.07086e-97
-6.07566e-99
-3.11389e-100
-1.44963e-101
-1.75215e-102
-1.89785e-98
-3.24379e-94
-6.96589e-90
-4.45357e-85
-5.24728e-80
-5.63328e-75
-5.81197e-70
-4.82735e-70
-1.90978e-70
-4.77232e-71
-8.43231e-72
-1.11835e-72
-1.15463e-73
-9.50434e-75
-6.34162e-76
-3.4708e-77
-1.57171e-78
-5.9266e-80
-1.86965e-81
-2.71575e-91
-3.4455e-89
-1.61702e-88
-1.7125e-88
-7.96975e-89
-2.18783e-89
-4.10047e-90
-5.83381e-91
-6.74726e-92
-6.30959e-93
-4.99902e-94
-3.48717e-95
-2.161e-96
-1.20466e-97
-6.07759e-99
-2.79001e-100
-1.83528e-101
-1.13251e-97
-1.99297e-93
-4.8889e-89
-5.34261e-84
-7.65528e-79
-8.43034e-74
-8.41845e-69
-7.10793e-69
-2.86133e-69
-7.28187e-70
-1.31138e-70
-1.7739e-71
-1.86911e-72
-1.57106e-73
-1.07093e-74
-5.99046e-76
-2.77348e-77
-1.06955e-78
-3.45131e-80
-1.32219e-89
-1.29866e-87
-5.16049e-87
-4.85054e-87
-2.08941e-87
-5.35998e-88
-9.54142e-89
-1.30844e-89
-1.44637e-90
-1.31889e-91
-1.01575e-92
-6.92968e-94
-4.20729e-95
-2.30348e-96
-1.14353e-97
-5.17551e-99
-2.46153e-100
-5.67919e-97
-1.05748e-92
-3.22647e-88
-6.8869e-83
-1.10111e-77
-1.21793e-72
-1.17602e-67
-1.01008e-67
-4.14042e-68
-1.07391e-68
-1.97261e-69
-2.72356e-70
-2.93097e-71
-2.51755e-72
-1.75456e-73
-1.00386e-74
-4.75555e-76
-1.87699e-77
-6.20055e-79
-6.10557e-88
-4.66568e-86
-1.5761e-85
-1.31741e-85
-5.22715e-86
-1.25058e-86
-2.10905e-87
-2.77647e-88
-2.96395e-89
-2.64933e-90
-1.9804e-91
-1.32322e-92
-7.86978e-94
-4.23657e-95
-2.07098e-96
-9.24582e-98
-3.89636e-99
-2.34752e-96
-4.85368e-92
-2.10599e-87
-9.05718e-82
-1.51067e-76
-1.66765e-71
-1.58316e-66
-1.38423e-66
-5.78192e-67
-1.52951e-67
-2.86767e-68
-4.04422e-69
-4.44827e-70
-3.90737e-71
-2.78621e-72
-1.63172e-73
-7.91506e-75
-3.19984e-76
-1.08294e-77
-2.67074e-86
-1.59503e-84
-4.56763e-84
-3.41926e-84
-1.25746e-84
-2.83135e-85
-4.56867e-86
-5.75994e-87
-5.92317e-88
-5.11356e-89
-3.73413e-90
-2.43543e-91
-1.42062e-92
-7.51554e-94
-3.614e-95
-1.5903e-96
-6.43902e-98
-7.88773e-96
-1.96415e-91
-1.44872e-86
-1.14524e-80
-1.92141e-75
-2.12839e-70
-2.05205e-65
-1.82775e-65
-7.78503e-66
-2.10189e-66
-4.02531e-67
-5.80258e-68
-6.52782e-69
-5.86805e-70
-4.2842e-71
-2.56999e-72
-1.27741e-73
-5.29325e-75
-1.83662e-76
-1.10566e-84
-5.16982e-83
-1.27005e-82
-8.49217e-83
-2.88875e-83
-6.09095e-84
-9.37695e-85
-1.12292e-85
-1.12715e-86
-9.39948e-88
-6.72231e-89
-4.28053e-90
-2.45285e-91
-1.27599e-92
-6.04383e-94
-2.62238e-95
-1.04329e-96
-2.1776e-95
-7.28564e-91
-1.08464e-85
-1.33024e-79
-2.21334e-74
-2.49928e-69
-2.55836e-64
-2.32301e-64
-1.0097e-64
-2.78433e-65
-5.45043e-66
-8.03669e-67
-9.25375e-68
-8.51876e-69
-6.37229e-70
-3.91818e-71
-1.99694e-72
-8.4873e-74
-3.02118e-75
-4.32749e-83
-1.59521e-81
-3.35691e-81
-1.99058e-81
-6.38209e-82
-1.25022e-82
-1.84954e-83
-2.11646e-84
-2.05889e-85
-1.66698e-86
-1.16385e-87
-7.24479e-89
-4.07203e-90
-2.08162e-91
-9.70438e-93
-4.14829e-94
-1.62773e-95
-5.34155e-95
-2.55521e-90
-8.52044e-85
-1.37403e-78
-2.26313e-73
-2.68226e-68
-3.0648e-63
-2.83901e-63
-1.26013e-63
-3.55172e-64
-7.11179e-65
-1.07338e-65
-1.26588e-66
-1.19421e-67
-9.1587e-69
-5.77615e-70
-3.02056e-71
-1.3176e-72
-4.81484e-74
-1.5993e-81
-4.66727e-80
-8.44653e-80
-4.52739e-80
-1.3422e-80
-2.46009e-81
-3.48616e-82
-3.82291e-83
-3.60391e-84
-2.82615e-85
-1.92798e-86
-1.17256e-87
-6.46352e-89
-3.24578e-90
-1.48916e-91
-6.27043e-93
-2.42698e-94
-1.35421e-94
-8.20624e-90
-6.47057e-84
-1.2288e-77
-2.01375e-72
-2.64458e-67
-3.52352e-62
-3.33233e-62
-1.5116e-62
-4.35788e-63
-8.93231e-64
-1.38096e-64
-1.66923e-65
-1.61484e-66
-1.27061e-67
-8.22459e-69
-4.4158e-70
-1.97822e-71
-7.42562e-73
-5.57389e-80
-1.29948e-78
-1.99268e-78
-9.71924e-79
-2.6514e-79
-4.63701e-80
-6.23189e-81
-6.57068e-82
-6.00976e-83
-4.57282e-84
-3.04981e-85
-1.81042e-86
-9.78669e-88
-4.82677e-89
-2.18055e-90
-9.04076e-92
-3.44955e-93
-4.10503e-94
-2.17339e-89
-4.36184e-83
-9.26238e-77
-1.52589e-71
-2.46907e-66
-3.883e-61
-3.75216e-61
-1.74076e-61
-5.13716e-62
-1.07865e-62
-1.70945e-63
-2.11932e-64
-2.10395e-65
-1.69954e-66
-1.12984e-67
-6.2321e-69
-2.86903e-70
-1.10692e-71
-1.83023e-78
-3.40988e-77
-4.51034e-77
-2.00956e-77
-5.02243e-78
-8.38394e-79
-1.07262e-79
-1.08713e-80
-9.63941e-82
-7.11255e-83
-4.63e-84
-2.68456e-85
-1.4201e-86
-6.86229e-88
-3.04422e-89
-1.24074e-90
-4.65991e-92
-2.10548e-93
-4.12024e-89
-2.41382e-82
-5.69779e-76
-9.58875e-71
-2.34608e-65
-4.09613e-60
-4.04743e-60
-1.92201e-60
-5.81069e-61
-1.25081e-61
-2.03351e-62
-2.58766e-63
-2.63801e-64
-2.1892e-65
-1.49567e-66
-8.48105e-68
-4.01468e-69
-1.593e-70
-5.65107e-77
-8.46286e-76
-9.6264e-76
-3.9235e-76
-8.97385e-77
-1.42332e-77
-1.73243e-78
-1.68015e-79
-1.465e-80
-1.03788e-81
-6.63788e-83
-3.74613e-84
-1.94581e-85
-9.21155e-87
-4.01579e-88
-1.60967e-89
-5.95138e-91
-2.07698e-92
-4.61961e-89
-1.00664e-81
-2.73738e-75
-4.82466e-70
-2.50067e-64
-4.13048e-59
-4.17692e-59
-2.03193e-59
-6.29821e-60
-1.39101e-60
-2.32166e-61
-3.03462e-62
-3.17918e-63
-2.71226e-64
-1.90562e-65
-1.11154e-66
-5.41369e-68
-2.21052e-69
-1.63815e-75
-1.97906e-74
-1.94087e-74
-7.23963e-75
-1.54038e-75
-2.33641e-76
-2.73451e-77
-2.55848e-78
-2.15459e-79
-1.48229e-80
-9.18748e-82
-5.04617e-83
-2.55542e-84
-1.18273e-85
-5.04648e-87
-1.9808e-88
-7.18473e-90
-2.41101e-91
-2.04006e-89
-2.78106e-81
-9.6011e-75
-1.84756e-69
-3.09493e-63
-3.97546e-58
-4.11779e-58
-2.05382e-58
-6.53244e-59
-1.48148e-59
-2.54054e-60
-3.41357e-61
-3.67774e-62
-3.22787e-63
-2.33383e-64
-1.40123e-65
-7.02613e-67
-2.954e-68
-4.45548e-74
-4.35459e-73
-3.73331e-73
-1.26146e-73
-2.49563e-74
-3.5513e-75
-3.91895e-76
-3.53445e-77
-2.85766e-78
-1.91815e-79
-1.16513e-80
-6.28656e-82
-3.12529e-83
-1.41664e-84
-5.92632e-86
-2.28117e-87
-8.11523e-89
-2.67084e-90
-8.06282e-92
-3.79616e-81
-2.17883e-74
-4.96473e-69
-4.1671e-62
-3.64628e-57
-3.872e-57
-1.98182e-57
-6.47382e-58
-1.50889e-58
-2.66079e-59
-3.67806e-60
-4.07836e-61
-3.68515e-62
-2.74383e-63
-1.69684e-64
-8.76509e-66
-3.79668e-67
-1.13184e-72
-9.02261e-72
-6.72059e-72
-2.06795e-72
-3.84049e-73
-5.18499e-74
-5.47853e-75
-4.79214e-76
-3.70924e-77
-2.42922e-78
-1.43441e-79
-7.55437e-81
-3.65713e-82
-1.61588e-83
-6.59289e-85
-2.47424e-86
-8.58585e-88
-2.75893e-89
-8.10423e-91
-2.09517e-92
-2.39143e-74
-8.04152e-69
-5.63119e-61
-3.18176e-56
-3.46703e-56
-1.8227e-56
-6.12056e-57
-1.46741e-57
-2.6632e-58
-3.79052e-59
-4.32918e-60
-4.03032e-61
-3.09247e-62
-1.97118e-63
-1.04962e-64
-4.687e-66
-2.68528e-71
-1.74975e-70
-1.13829e-70
-3.23403e-71
-5.53568e-72
-7.12562e-73
-7.1079e-74
-6.01857e-75
-4.42664e-76
-2.84853e-77
-1.62723e-78
-8.39141e-80
-3.95349e-81
-1.70538e-82
-6.78375e-84
-2.48194e-85
-8.38907e-87
-2.62441e-88
-7.46098e-90
-1.8099e-91
2.48163e-88
-5.21022e-69
-7.31089e-60
-2.63671e-55
-2.95103e-55
-1.59506e-55
-5.51123e-56
-1.36044e-56
-2.54344e-57
-3.73064e-58
-4.3923e-59
-4.21633e-60
-3.33647e-61
-2.19358e-62
-1.20486e-63
-5.54993e-65
-5.93774e-70
-3.1778e-69
-1.80989e-69
-4.68328e-70
-7.51997e-71
-9.23402e-72
-8.75465e-73
-7.15623e-74
-5.06992e-75
-3.17146e-76
-1.75846e-77
-8.8131e-79
-4.03525e-80
-1.68814e-81
-6.5067e-83
-2.30554e-84
-7.54289e-86
-2.28183e-87
-6.21678e-89
-1.37419e-90
-2.30849e-92
3.01295e-69
-8.9723e-59
-2.07123e-54
-2.38337e-54
-1.3258e-54
-4.71815e-55
-1.20033e-55
-2.31391e-56
-3.50081e-57
-4.25265e-58
-4.21279e-59
-3.44074e-60
-2.33498e-61
-1.32386e-62
-6.29449e-64
-1.21943e-68
-5.36929e-68
-2.71992e-68
-6.41463e-69
-9.70587e-70
-1.11815e-70
-1.0181e-71
-7.98058e-73
-5.4387e-74
-3.29803e-75
-1.76638e-76
-8.59197e-78
-3.81581e-79
-1.53989e-80
-5.7228e-82
-1.95108e-83
-6.13786e-85
-1.78092e-86
-4.58202e-88
-8.77274e-90
-1.01806e-91
3.41124e-68
-1.03473e-57
-1.53919e-53
-1.82286e-53
-1.04467e-53
-3.83313e-54
-1.00606e-54
-2.00176e-55
-3.12692e-56
-3.92274e-57
-4.01372e-58
-3.38621e-59
-2.37382e-60
-1.39026e-61
-6.82766e-63
-2.32044e-67
-8.4785e-67
-3.78785e-67
-8.12294e-68
-1.16253e-68
-1.25297e-69
-1.09624e-70
-8.23367e-72
-5.39051e-73
-3.16577e-74
-1.63298e-75
-7.70007e-77
-3.2955e-78
-1.28085e-79
-4.56378e-81
-1.48352e-82
-4.44196e-84
-1.22023e-85
-2.88966e-87
-4.32079e-89
2.34333e-108
3.60643e-67
-1.11734e-56
-1.07976e-52
-1.31753e-52
-7.78752e-53
-2.94941e-53
-7.99508e-54
-1.64365e-54
-2.65364e-55
-3.44129e-56
-3.64022e-57
-3.1751e-58
-2.30115e-59
-1.39319e-60
-7.07211e-62
-4.08201e-66
-1.24246e-65
-4.92956e-66
-9.66382e-67
-1.30913e-67
-1.33521e-68
-1.11563e-69
-8.11397e-71
-5.10513e-72
-2.8649e-73
-1.42455e-74
-6.42512e-76
-2.6276e-77
-9.71633e-79
-3.27334e-80
-9.9561e-82
-2.77973e-83
-7.05755e-85
-1.45275e-86
-1.21553e-88
0
3.54107e-66
-1.12565e-55
-7.13419e-52
-8.97918e-52
-5.48018e-52
-2.14485e-52
-6.0118e-53
-1.27845e-53
-2.13558e-54
-2.86583e-55
-3.13712e-56
-2.83155e-57
-2.12345e-58
-1.33006e-59
-6.98379e-61
-6.61497e-65
-1.68853e-64
-5.96343e-65
-1.07017e-65
-1.36292e-66
-1.30044e-67
-1.02331e-68
-7.10037e-70
-4.23778e-71
-2.32267e-72
-1.09464e-73
-4.7373e-75
-1.83163e-76
-6.39971e-78
-2.01504e-79
-5.61454e-81
-1.41123e-82
-3.1736e-84
-4.7662e-86
2.74589e-88
8.12178e-89
3.20675e-65
-1.05372e-54
-4.42867e-51
-5.75626e-51
-3.63205e-51
-1.47082e-51
-4.26797e-52
-9.39972e-53
-1.62649e-53
-2.26112e-54
-2.56409e-55
-2.39728e-56
-1.86193e-57
-1.2076e-58
-6.56389e-60
-9.83816e-64
-2.1198e-63
-6.63675e-64
-1.09998e-64
-1.30758e-65
-1.18764e-66
-9.00182e-68
-6.0243e-69
-3.44181e-70
-1.79967e-71
-7.98005e-73
-3.2315e-74
-1.15175e-75
-3.67431e-77
-1.04368e-78
-2.51359e-80
-4.98465e-82
-8.79513e-84
-1.53323e-108
4.87155e-87
4.40427e-87
2.65575e-64
-9.12392e-54
-2.57608e-50
-3.46215e-50
-2.2614e-50
-9.48782e-51
-2.854e-51
-6.51813e-52
-1.16978e-52
-1.68667e-53
-1.98363e-54
-1.92306e-55
-1.54842e-56
-1.0408e-57
-5.86118e-59
-1.33936e-62
-2.44949e-62
-6.83908e-63
-1.04726e-63
-1.15661e-64
-9.89178e-66
-7.01492e-67
-4.31952e-68
-2.35363e-69
-1.14723e-70
-4.86344e-72
-1.81869e-73
-5.88101e-75
-1.61448e-76
-3.8282e-78
-6.93261e-80
6.29007e-100
1.98292e-86
5.40772e-84
6.75965e-87
7.71804e-84
1.99187e-63
-7.26962e-53
-1.40007e-49
-1.94819e-49
-1.31914e-49
-5.74218e-50
-1.7931e-50
-4.25259e-51
-7.92619e-52
-1.18687e-52
-1.44935e-53
-1.45863e-54
-1.21886e-55
-8.49897e-57
-4.96297e-58
-1.6612e-61
-2.59667e-61
-6.48083e-62
-9.11956e-63
-9.40687e-64
-7.59449e-65
-5.08038e-66
-2.95651e-67
-1.51788e-68
-6.9084e-70
-2.66864e-71
-8.89731e-73
-2.41575e-74
-4.68948e-76
-3.72046e-78
-3.3258e-101
3.25879e-82
7.29478e-82
4.18575e-81
7.71804e-84
3.46766e-80
1.34027e-62
-5.29779e-52
-7.08703e-49
-1.0225e-48
-7.18796e-49
-3.25126e-49
-1.05557e-49
-2.60356e-50
-5.04707e-51
-7.85943e-52
-9.9787e-53
-1.04379e-53
-9.06204e-55
-6.56172e-56
-3.97705e-57
-1.86859e-60
-2.51336e-60
-5.61626e-61
-7.2806e-62
-6.98409e-63
-5.25212e-64
-3.27871e-65
-1.77446e-66
-8.43531e-68
-3.46254e-69
-1.16267e-70
-3.17193e-72
-5.9537e-74
7.95727e-98
9.32804e-79
8.48915e-78
5.72838e-78
4.38543e-78
5.74818e-77
3.46766e-80
3.31695e-70
8.05143e-62
-3.50608e-51
-3.3294e-48
-4.98843e-48
-3.64676e-48
-1.71688e-48
-5.80498e-49
-1.49151e-49
-3.01195e-50
-4.88503e-51
-6.45771e-52
-7.03016e-53
-6.34912e-54
-4.77926e-55
-3.00965e-56
-1.89687e-59
-2.21336e-59
-4.42232e-60
-5.26457e-61
-4.66777e-62
-3.25646e-63
-1.8875e-64
-9.39833e-66
-4.05834e-67
-1.42307e-68
-3.45697e-70
-4.94885e-72
1.15943e-95
6.65029e-75
1.69878e-74
2.86994e-74
1.53e-74
1.8467e-74
3.19702e-72
1.52736e-76
7.15472e-68
4.35233e-61
-2.08873e-50
-1.44576e-47
-2.25361e-47
-1.71643e-47
-8.42648e-48
-2.97254e-48
-7.97038e-49
-1.67957e-49
-2.84185e-50