/*--------------------------------*- C++ -*----------------------------------*\
| =========                 |                                                 |
| \\      /  F ield         | OpenFOAM: The Open Source CFD Toolbox           |
|  \\    /   O peration     | Version:  v2012                                 |
|   \\  /    A nd           | Website:  www.openfoam.com                      |
|    \\/     M anipulation  |                                                 |
\*---------------------------------------------------------------------------*/
FoamFile
{
    version     2.0;
    format      ascii;
    class       volScalarField;
    location    "0.95";
    object      alpha.water;
}
// * * * * * * * * * * * * * * * * * * * * * * * * * * * * * * * * * * * * * //

dimensions      [0 0 0 0 0 0 0];


internalField   nonuniform List<scalar> 
20000
(
0.999978
0.999991
1.00001
0.999995
1
0.999998
1
0.967968
0.699596
0.29942
0.212397
0.2175
0.160679
0.0499763
0.0049341
0.000117647
5.50511e-07
8.95523e-10
1.61993e-13
1.05936e-16
2.38804e-19
4.37589e-22
6.35872e-25
7.05975e-28
5.64241e-31
2.91715e-34
7.6296e-38
2.42367e-42
-2.32343e-59
9.19575e-97
5.86961e-102
1.45889e-106
6.93444e-111
1.87081e-117
6.39043e-125
6.55018e-133
3.38253e-135
3.00669e-138
9.17442e-118
2.19827e-115
2.2398e-114
1.34239e-283
0
0
0
0
0
0
0
0
0
0
0
0
0
0
0
0
0
0
0.999978
0.999991
1.00001
0.999995
1
0.999998
1
0.967375
0.690282
0.281861
0.185625
0.200406
0.126702
0.0369761
0.00345685
8.34327e-05
4.33508e-07
6.79713e-10
2.61263e-13
1.18278e-16
2.79149e-19
5.31444e-22
7.96629e-25
9.05627e-28
7.34455e-31
3.79909e-34
9.60821e-38
1.61323e-42
-3.30014e-58
1.05966e-96
6.06328e-102
1.40429e-106
6.62284e-111
3.7693e-117
4.67814e-125
6.56063e-133
3.19661e-143
1.07047e-141
7.58754e-151
5.17445e-137
4.47285e-150
1.01932e-260
0
0
0
0
0
0
0
0
0
0
0
0
0
0
0
0
0
0
0.99998
0.99999
1.00001
0.999995
1
0.999998
1
0.966879
0.68411
0.271689
0.172416
0.161921
0.110558
0.031487
0.00288027
7.08721e-05
3.87006e-07
5.2125e-10
1.96408e-13
1.34531e-16
3.34758e-19
6.68173e-22
1.04399e-24
1.22913e-27
1.02398e-30
5.37099e-34
1.33296e-37
6.86469e-43
1.59463e-58
1.1322e-96
6.17107e-102
1.40329e-106
6.59631e-111
5.12499e-117
3.88674e-125
6.78836e-133
6.26392e-145
3.565e-157
3.54886e-163
5.16162e-162
4.05468e-161
4.21495e-259
0
0
0
0
0
0
0
0
0
0
0
0
0
0
0
0
0
0
0.999981
0.99999
1.00001
0.999996
1
0.999998
1
0.966162
0.675931
0.259356
0.157533
0.145973
0.0943567
0.0258547
0.00231581
5.85593e-05
3.37534e-07
3.62275e-10
4.58924e-14
1.479e-16
3.86052e-19
8.0353e-22
1.30089e-24
1.57504e-27
1.33518e-30
6.99249e-34
1.64056e-37
-2.11137e-50
-1.19784e-65
1.18296e-96
6.28561e-102
1.45611e-106
6.62346e-111
6.33401e-117
3.11919e-125
6.62462e-133
6.20512e-145
3.70188e-157
2.27304e-164
3.13465e-163
2.25053e-162
7.58447e-258
0
0
0
0
0
0
0
0
0
0
0
0
0
0
0
0
0
0
0.999982
0.99999
1.00001
0.999996
1
0.999998
1
0.965452
0.667876
0.247533
0.144004
0.128424
0.0803725
0.0213128
0.00187458
4.90121e-05
2.97322e-07
2.46477e-10
4.41366e-14
1.47262e-16
3.99399e-19
8.61705e-22
1.43866e-24
1.78131e-27
1.52286e-30
7.82773e-34
1.64997e-37
-6.6019e-44
-8.25253e-67
1.33464e-96
6.38463e-102
1.66103e-106
6.90987e-111
7.11032e-117
2.50027e-125
5.97459e-133
5.74684e-145
3.85929e-157
1.95206e-167
4.63737e-171
2.89005e-170
8.24283e-257
0
0
0
0
0
0
0
0
0
0
0
0
0
0
0
0
0
0
0.999985
0.999989
1
0.999996
1
0.999998
1
0.964677
0.659415
0.235643
0.13107
0.113119
0.068063
0.0174417
0.00151046
4.10963e-05
2.6028e-07
1.54185e-10
-4.61838e-14
-7.67587e-16
-2.40167e-18
-5.39863e-21
-9.34787e-24
-1.26252e-26
-1.27837e-29
-9.10001e-33
-4.04244e-36
-7.29986e-40
4.33284e-93
1.33345e-96
6.46881e-102
2.01552e-106
7.3921e-111
7.46567e-117
1.98645e-125
4.99499e-133
5.51123e-145
4.04295e-157
2.08551e-167
2.45516e-180
1.34838e-190
6.24121e-256
0
0
0
0
0
0
0
0
0
0
0
0
0
0
0
0
0
0
0.999986
0.999989
1
0.999998
1
0.999998
1
0.963909
0.65096
0.22402
0.118931
0.0990945
0.057351
0.0142111
0.00121483
3.45942e-05
2.26689e-07
9.145e-11
-4.47474e-14
-7.36598e-16
-2.47805e-18
-6.00947e-21
-1.12081e-23
-1.60112e-26
-1.69473e-29
-1.23726e-32
-5.318e-36
-7.392e-40
4.09397e-93
1.40855e-96
6.53547e-102
2.45156e-106
7.78047e-111
7.55216e-117
1.56703e-125
3.98788e-133
5.43238e-145
4.25908e-157
2.24772e-167
2.79479e-180
4.1894e-194
3.57063e-255
0
0
0
0
0
0
0
0
0
0
0
0
0
0
0
0
0
0
0.999987
0.999987
1
0.999999
0.999999
0.999999
1
0.96311
0.64237
0.212621
0.107549
0.0864905
0.0480979
0.011526
0.000975145
2.91944e-05
1.95493e-07
5.39631e-11
-8.00965e-14
-6.40239e-16
-2.23827e-18
-5.69883e-21
-1.11321e-23
-1.65082e-26
-1.78364e-29
-1.28802e-32
-5.07118e-36
-3.40817e-40
4.62209e-93
1.43009e-96
6.58368e-102
2.91818e-106
7.9682e-111
7.53887e-117
1.22661e-125
3.11024e-133
5.58987e-145
4.51487e-157
2.44582e-167
3.23755e-180
1.69106e-199
1.62683e-254
0
0
0
0
0
0
0
0
0
0
0
0
0
0
0
0
0
0
0.999989
0.999987
1
0.999999
1
1
1
0.962296
0.633726
0.201513
0.0969347
0.0751915
0.0401572
0.00931
0.000781586
2.46747e-05
1.66765e-07
4.03832e-11
-7.40189e-14
-5.19138e-16
-1.82915e-18
-4.77946e-21
-9.53792e-24
-1.42909e-26
-1.52707e-29
-1.04331e-32
-3.39861e-36
3.08877e-67
4.31848e-93
1.43781e-96
6.6126e-102
3.38903e-106
8.01198e-111
7.2818e-117
9.52334e-126
2.42832e-133
6.94035e-145
4.81885e-157
2.6889e-167
3.8202e-180
4.64473e-216
6.12494e-254
0
0
0
0
0
0
0
0
0
0
0
0
0
0
0
0
0
0
0.99999
0.999986
1
0.999999
1
1
1
0.961451
0.62496
0.190695
0.0870788
0.0651254
0.0333891
0.00749395
0.000625947
2.08603e-05
1.40535e-07
3.45319e-11
-5.92237e-14
-4.08942e-16
-1.42216e-18
-3.65144e-21
-7.16307e-24
-1.05558e-26
-1.07352e-29
-6.49379e-33
-1.46344e-36
2.88619e-88
4.36256e-93
1.43791e-96
6.62285e-102
3.84491e-106
7.99691e-111
6.71488e-117
7.33024e-126
1.95706e-133
9.28965e-145
5.18144e-157
2.98874e-167
4.59578e-180
7.86663e-219
1.95847e-253
0
0
0
0
0
0
0
0
0
0
0
0
0
0
0
0
0
0
0.999991
0.999986
1
0.999999
1
1
1
0.960583
0.616116
0.180213
0.0779736
0.0562033
0.0276571
0.00601518
0.000501215
1.76188e-05
1.17089e-07
2.84904e-11
-5.76541e-14
-3.64202e-16
-1.17414e-18
-2.88522e-21
-5.43261e-24
-7.42882e-27
-6.80459e-30
-3.37852e-33
-2.77689e-37
2.85726e-88
4.34711e-93
1.42665e-96
6.62195e-102
4.26455e-106
7.85345e-111
5.99825e-117
5.59133e-126
1.67952e-133
1.11399e-144
5.61567e-157
3.36082e-167
5.64214e-180
3.54496e-221
5.43209e-253
0
0
0
0
0
0
0
0
0
0
0
0
0
0
0
0
0
0
0.999992
0.999985
1
1
1
1
1
0.959705
0.607234
0.17012
0.0696069
0.0483363
0.0228339
0.00481892
0.000401584
1.48536e-05
9.65968e-08
2.28923e-11
-4.35478e-14
-2.66522e-16
-8.29514e-19
-1.94187e-21
-3.41888e-24
-4.27219e-27
-3.34039e-30
-1.14765e-33
4.47751e-65
2.85511e-88
4.34151e-93
1.39943e-96
6.60976e-102
4.62125e-106
7.5501e-111
5.27643e-117
4.2256e-126
1.55587e-133
1.19443e-144
6.13805e-157
3.82586e-167
7.07557e-180
1.59098e-223
1.32907e-252
0
0
0
0
0
0
0
0
0
0
0
0
0
0
0
0
0
0
0.999993
0.999986
1
1
1
1
1
0.95883
0.598453
0.160508
0.0619645
0.041435
0.0188007
0.00385679
0.000322178
1.2493e-05
7.91317e-08
1.79566e-11
-3.48003e-14
-1.83157e-16
-5.40652e-19
-1.18175e-21
-1.89516e-24
-2.06282e-27
-1.26626e-30
-2.05601e-34
3.8756e-88
2.84245e-88
4.34183e-93
1.35959e-96
6.59e-102
4.8822e-106
7.11764e-111
4.64328e-117
3.16402e-126
1.5254e-133
1.20929e-144
6.76975e-157
4.41183e-167
9.0729e-180
6.85816e-226
2.90795e-252
0
0
0
0
0
0
0
0
0
0
0
0
0
0
0
0
0
0
0.999995
0.999985
1
1
1
1
1
0.958034
0.589943
0.151488
0.0550285
0.0354117
0.0154486
0.00308695
0.000258982
1.04823e-05
6.45734e-08
1.38022e-11
-2.45234e-14
-1.1858e-16
-3.25913e-19
-6.50357e-22
-9.19929e-25
-8.25655e-28
-3.44571e-31
-3.03405e-56
1.57169e-83
2.83947e-88
4.36865e-93
1.31053e-96
6.56896e-102
5.02338e-106
6.59045e-111
4.16056e-117
2.34799e-126
1.57567e-133
1.18725e-144
7.53822e-157
5.15702e-167
1.19083e-179
2.75558e-228
5.75442e-252
0
0
0
0
0
0
0
0
0
0
0
0
0
0
0
0
0
0
0.999996
0.999985
1
1
1
1
1
0.957294
0.581989
0.143192
0.0487772
0.030181
0.012678
0.00247341
0.0002087
8.77657e-06
5.26558e-08
1.04312e-11
-1.62652e-14
-7.30655e-17
-1.82714e-19
-3.23302e-22
-3.87093e-25
-2.64114e-28
-5.17469e-32
3.56404e-80
1.60887e-83
2.84218e-88
4.40481e-93
1.25491e-96
6.55221e-102
5.06368e-106
6.0018e-111
3.85924e-117
1.72796e-126
2.06921e-133
1.10296e-144
8.47941e-157
6.11447e-167
1.60155e-179
1.00761e-230
1.03973e-251
0
0
0
0
0
0
0
0
0
0
0
0
0
0
0
0
0
0
0.999997
0.999985
1
1
1
1
1
0.956864
0.574816
0.135762
0.0431838
0.025661
0.0103992
0.00198572
0.00016866
7.33608e-06
4.30129e-08
7.77816e-12
-1.11711e-14
-4.43831e-17
-9.75329e-20
-1.478e-22
-1.41501e-25
-6.28863e-29
-3.6706e-54
3.5654e-80
1.6243e-83
2.86139e-88
4.46123e-93
1.19518e-96
6.54404e-102
5.06066e-106
5.38506e-111
3.72694e-117
1.26233e-126
3.07493e-133
1.0136e-144
9.64077e-157
7.35857e-167
2.20952e-179
3.30798e-233
1.72923e-251
0
0
0
0
0
0
0
0
0
0
0
0
0
0
0
0
0
0
0.999996
0.999985
1
0.999999
1
1
1
0.956436
0.568924
0.129326
0.0382165
0.0217736
0.00853192
0.00159847
0.000136714
6.12428e-06
3.52494e-08
5.73943e-12
-7.02461e-15
-2.5123e-17
-4.79721e-20
-6.00765e-23
-4.22916e-26
-8.04027e-30
1.48512e-78
3.5704e-80
1.65408e-83
2.88625e-88
4.53827e-93
1.13376e-96
6.55545e-102
4.992e-106
4.77202e-111
3.69648e-117
9.16682e-127
4.17533e-133
9.67487e-145
1.10855e-156
8.99508e-167
3.13055e-179
9.84031e-236
2.66572e-251
0
0
0
0
0
0
0
0
0
0
0
0
0
0
0
0
0
0
0.999998
0.999985
1
0.999999
1
1
1
0.95634
0.564341
0.124001
0.0338381
0.0184454
0.00700585
0.0012908
0.00011115
5.10743e-06
2.89888e-08
4.20202e-12
-4.42214e-15
-1.3607e-17
-2.19904e-20
-2.16049e-23
-9.49799e-27
-6.83444e-54
1.48153e-78
3.5747e-80
1.68841e-83
2.92577e-88
4.63902e-93
1.073e-96
6.59564e-102
4.8447e-106
4.19156e-111
3.89821e-117
6.62937e-127
5.09798e-133
9.57102e-145
1.28987e-156
1.11763e-166
4.56057e-179
2.80839e-238
3.83188e-251
0
0
0
0
0
0
0
0
0
0
0
0
0
0
0
0
0
0
0.999998
0.999985
1
0.999999
1
1
1
0.95664
0.561547
0.119848
0.0300074
0.0156072
0.0057599
0.00104581
9.06101e-05
4.25508e-06
2.39038e-08
3.06141e-12
-2.65792e-15
-7.10221e-18
-9.42241e-21
-6.7086e-24
-1.12861e-27
4.76478e-59
1.50396e-78
3.58547e-80
1.732e-83
2.97892e-88
4.76627e-93
1.01524e-96
6.6729e-102
4.64281e-106
3.6691e-111
5.23485e-117
4.78582e-127
5.80195e-133
1.0587e-144
1.51957e-156
1.41251e-166
6.83927e-179
8.71701e-241
5.16319e-251
0
0
0
0
0
0
0
0
0
0
0
0
0
0
0
0
0
0
1
0.999985
1
0.999999
1
1
1
0.957302
0.560195
0.116874
0.0266799
0.0131955
0.00474213
0.000849995
7.4028e-05
3.54042e-06
1.97279e-08
2.22798e-12
-1.56798e-15
-3.62523e-18
-3.79612e-21
-1.68356e-24
-1.97385e-40
5.12331e-59
1.51e-78
3.59785e-80
1.78425e-83
3.0487e-88
4.92329e-93
9.62775e-97
6.7985e-102
4.41246e-106
3.22679e-111
8.16666e-117
3.45926e-127
6.36362e-133
1.57754e-144
1.8135e-156
1.81717e-166
1.05711e-178
3.40325e-243
6.55126e-251
0
0
0
0
0
0
0
0
0
0
0
0
0
0
0
0
0
0
1
0.999985
1
0.999999
1
1
1
0.958172
0.560091
0.115208
0.0238095
0.0111519
0.00390915
0.000692697
6.05671e-05
2.94051e-06
1.62563e-08
1.62836e-12
-9.54278e-16
-1.85878e-18
-1.45307e-21
-2.62188e-25
2.41448e-52
5.31429e-59
1.51732e-78
3.6139e-80
1.84638e-83
3.13708e-88
5.11369e-93
9.17992e-97
6.9851e-102
4.17778e-106
2.88324e-111
1.22838e-116
2.51378e-127
6.91523e-133
2.36634e-144
2.1936e-156
2.38141e-166
1.68609e-178
1.89859e-245
7.85927e-251
0
0
0
0
0
0
0
0
0
0
0
0
0
0
0
0
0
0
1
0.999983
0.999998
0.999999
1
1
1
0.959347
0.563316
0.114297
0.0213503
0.00942396
0.00322536
0.000565575
4.95769e-05
2.43616e-06
1.33394e-08
1.20104e-12
-5.80894e-16
-9.66873e-19
-5.21112e-22
-1.79527e-36
2.46811e-52
5.54062e-59
3.63477e-80
3.63422e-80
1.91913e-83
3.24671e-88
5.34167e-93
8.83269e-97
7.24743e-102
3.96205e-106
2.65113e-111
1.70883e-116
1.84705e-127
7.64686e-133
3.03019e-144
2.69066e-156
3.18148e-166
2.77855e-178
2.16082e-247
8.94613e-251
0
0
0
0
0
0
0
0
0
0
0
0
0
0
0
0
0
0
1
0.999983
0.999995
1
1
1
1
0.960715
0.567213
0.114026
0.0192563
0.00796514
0.00266203
0.000462177
4.05533e-05
2.01157e-06
1.08718e-08
1.13424e-12
-3.75865e-16
-5.3013e-19
-1.66928e-22
-3.33305e-38
2.49336e-52
5.76073e-59
1.17494e-77
3.65753e-80
2.00359e-83
3.3806e-88
5.61207e-93
8.60672e-97
7.60279e-102
3.78732e-106
2.53003e-111
2.21698e-116
1.38405e-127
8.82269e-133
3.40092e-144
3.34836e-156
4.33613e-166
4.73649e-178
1.13477e-248
9.69288e-251
0
0
0
0
0
0
0
0
0
0
0
0
0
0
0
0
0
0
1
0.999982
0.999994
1
1
1
1
0.962237
0.57252
0.115152
0.0174827
0.00673462
0.00219629
0.000377544
3.31081e-05
1.65393e-06
8.78132e-09
1.85446e-12
-2.61794e-16
-3.15556e-19
-3.40201e-23
1.04705e-45
2.52299e-52
5.98333e-59
9.7174e-79
3.68029e-80
2.10095e-83
3.54227e-88
5.93063e-93
8.50148e-97
8.07171e-102
3.67172e-106
2.49357e-111
2.70952e-116
1.07121e-127
1.0688e-132
3.52012e-144
4.22944e-156
6.03354e-166
8.36193e-178
2.78938e-249
1.00241e-250
0
0
0
0
0
0
0
0
0
0
0
0
0
0
0
0
0
0
1
0.999982
0.999993
1
1
1
1
0.963869
0.578851
0.117336
0.0159859
0.00569711
0.00181006
0.000307891
2.69429e-05
1.35288e-06
7.01755e-09
1.84992e-12
-1.95118e-16
-2.00734e-19
-6.16845e-34
1.09956e-45
2.55069e-52
6.20469e-59
3.73596e-80
3.73598e-80
2.21265e-83
3.73597e-88
6.30414e-93
8.47449e-97
8.67868e-102
3.6197e-106
2.52317e-111
3.14284e-116
8.71114e-128
1.32654e-132
3.52821e-144
5.42521e-156
8.57732e-166
1.5306e-177
1.38329e-249
9.91965e-251
0
0
0
0
0
0
0
0
0
0
0
0
0
0
0
0
0
0
1
0.999981
0.999992
1
1
1
1
0.965568
0.585834
0.119647
0.0147234
0.00482223
0.00148911
0.000250338
2.18282e-05
1.10003e-06
5.54049e-09
1.43941e-12
-1.56913e-16
-1.34888e-19
-2.37247e-35
1.12679e-45
2.57849e-52
6.42453e-59
1.69608e-77
3.76479e-80
2.34043e-83
3.96678e-88
6.7408e-93
8.71078e-97
9.45298e-102
3.60845e-106
3.01848e-111
3.48378e-116
7.57291e-128
1.62581e-132
3.51083e-144
7.07031e-156
1.24665e-165
2.90794e-177
8.53451e-250
9.4136e-251
0
0
0
0
0
0
0
0
0
0
0
0
0
0
0
0
0
0
1
0.999981
0.999991
1
1
0.999999
1
0.967305
0.593222
0.12236
0.0136548
0.0040839
0.0012221
0.00020268
1.75857e-05
8.88488e-07
4.31761e-09
9.19842e-13
-1.31478e-16
-9.17057e-20
3.51677e-38
1.15153e-45
2.60643e-52
6.64234e-59
1.86344e-78
3.81069e-80
2.48641e-83
4.24087e-88
7.25057e-93
9.55045e-97
1.04297e-101
3.79141e-106
4.3117e-111
3.71721e-116
7.07336e-128
1.91866e-132
3.62413e-144
9.36606e-156
1.85369e-165
5.73995e-177
5.79512e-250
8.58371e-251
0
0
0
0
0
0
0
0
0
0
0
0
0
0
0
0
0
0
1
0.99998
0.99999
1
1
0.999999
1
0.969037
0.600818
0.125246
0.0127386
0.00345976
0.000999987
0.00016322
1.40756e-05
7.12539e-07
3.3221e-09
5.16255e-13
-1.14212e-16
-5.76717e-20
8.81397e-38
1.17602e-45
2.63541e-52
6.85848e-59
1.89102e-78
3.86584e-80
2.65322e-83
4.56582e-88
7.84566e-93
1.08331e-96
1.16509e-101
4.41927e-106
6.25145e-111
3.84722e-116
6.93843e-128
2.16413e-132
5.25255e-144
1.26177e-155
2.82168e-165
1.17819e-176
4.13061e-250
7.53368e-251
0
0
0
0
0
0
0
0
0
0
0
0
0
0
0
0
0
0
1
0.999981
0.999989
1
1
0.999999
1
0.970735
0.608006
0.128036
0.0119306
0.0029307
0.000815382
0.000130622
1.11853e-05
5.67292e-07
2.53111e-09
2.6909e-13
-9.17986e-17
-2.472e-20
8.81141e-38
1.19852e-45
2.6665e-52
7.07417e-59
1.91077e-78
3.93747e-80
2.84414e-83
4.95098e-88
8.54123e-93
1.27069e-96
1.3167e-101
5.45672e-106
8.71263e-111
3.89488e-116
7.34469e-128
2.34732e-132
1.12537e-143
1.72953e-155
4.39953e-165
2.51677e-176
2.99074e-250
6.37409e-251
0
0
0
0
0
0
0
0
0
0
0
0
0
0
0
0
0
3.05766e-299
1
0.99998
0.999989
1
1
0.999999
1
0.972261
0.61507
0.130394
0.0111845
0.00248048
0.000662239
0.000103814
8.82223e-06
4.48483e-07
1.9235e-09
1.76172e-13
-7.37595e-17
2.20688e-28
8.75887e-38
1.22009e-45
2.70116e-52
7.29165e-59
1.94273e-78
4.02941e-80
3.06329e-83
5.40799e-88
9.35628e-93
1.55109e-96
1.50389e-101
7.07332e-106
1.1646e-110
3.89863e-116
1.88168e-127
2.48271e-132
2.2324e-143
2.41332e-155
7.03e-165
5.59828e-176
2.16035e-250
5.20589e-251
0
0
0
0
0
0
0
0
0
0
0
0
0
0
0
0
1.55133e-299
3.13992e-297
1
0.99998
0.999988
1
1
0.999999
1
0.973647
0.619577
0.131915
0.010452
0.00209552
0.000535544
8.19148e-05
6.90762e-06
3.52315e-07
1.47746e-09
1.31909e-13
-5.5475e-17
2.17439e-28
8.72311e-38
1.24098e-45
2.74132e-52
7.5144e-59
1.98314e-78
4.1495e-80
3.31593e-83
5.95143e-88
1.03148e-92
1.95271e-96
1.73399e-101
9.55941e-106
1.49172e-110
3.8841e-116
1.8337e-126
2.60811e-132
3.5111e-143
3.42986e-155
1.15173e-164
1.29731e-175
1.54372e-250
4.10915e-251
0
0
0
0
0
0
0
0
0
0
0
0
0
0
0
1.83105e-299
1.72853e-297
3.35875e-295
1
0.99998
0.999988
1
1
0.999998
1
0.974483
0.62416
0.13263
0.009688
0.00176483
0.000431135
6.41801e-05
5.37301e-06
2.75356e-07
1.16901e-09
9.61666e-14
-3.34008e-17
2.12592e-28
8.6849e-38
1.26193e-45
2.7894e-52
7.74731e-59
2.03674e-78
4.30594e-80
3.6087e-83
6.59973e-88
1.14473e-92
2.50678e-96
2.01598e-101
1.31428e-105
1.82863e-110
3.87401e-116
2.17237e-125
2.79473e-132
4.5563e-143
4.96764e-155
1.93532e-164
3.13271e-175
1.08577e-250
3.1379e-251
0
0
0
0
0
0
0
0
0
0
0
0
0
0
3.82178e-299
2.21458e-297
2.00995e-295
3.75301e-293
1
0.99998
0.999988
1
1
0.999999
1
0.975233
0.625423
0.131686
0.00885593
0.00147981
0.000345527
4.99654e-05
4.15743e-06
2.14495e-07
9.72102e-10
6.90151e-14
-9.1498e-18
2.08209e-28
8.65465e-38
1.28386e-45
2.84841e-52
7.99685e-59
2.10589e-78
4.50968e-80
3.95014e-83
7.37632e-88
1.27933e-92
3.25291e-96
2.36094e-101
1.80283e-105
2.14877e-110
3.93932e-116
1.9612e-124
3.20158e-132
5.22047e-143
7.33633e-155
3.33642e-164
7.88312e-175
7.49245e-251
2.3203e-251
0
0
0
0
0
0
0
0
0
0
0
0
4.16892e-300
1.26012e-298
5.02066e-297
2.80059e-295
2.44591e-293
4.39246e-291
0.999999
0.99998
0.999988
1
0.999999
0.999999
1
0.975393
0.623226
0.128165
0.0079394
0.00123422
0.000275797
3.87038e-05
3.20636e-06
1.66927e-07
8.59917e-10
4.6164e-14
6.52359e-20
2.04158e-28
8.63867e-38
1.30796e-45
2.92208e-52
8.27137e-59
2.19333e-78
4.77514e-80
4.35122e-83
8.31121e-88
1.44038e-92
4.23408e-96
2.78272e-101
2.44032e-105
2.42962e-110
4.22102e-116
1.15342e-123
4.12112e-132
5.6239e-143
1.10534e-154
5.90214e-164
2.06675e-174
5.06142e-251
1.66265e-251
0
0
0
0
0
0
0
0
0
0
1.45827e-300
2.69316e-299
6.17556e-298
1.79954e-296
6.90994e-295
3.71349e-293
3.12337e-291
5.39902e-289
0.999999
0.999979
0.999989
1
0.999999
0.999998
1
0.974935
0.617375
0.122754
0.00695458
0.00102384
0.000219469
2.98912e-05
2.47126e-06
1.30173e-07
8.07677e-10
2.38974e-14
6.14526e-20
2.00674e-28
8.64744e-38
1.33569e-45
3.01502e-52
8.58137e-59
2.30535e-78
5.12154e-80
4.82613e-83
9.44311e-88
1.63457e-92
5.4955e-96
3.29898e-101
3.23923e-105
2.65584e-110
4.97915e-116
4.40807e-123
5.86488e-132
6.06226e-143
1.69983e-154
1.07144e-163
5.6428e-174
3.34206e-251
1.15528e-251
0
0
0
0
0
0
0
0
1.38574e-300
1.668e-299
2.43224e-298
4.33624e-297
9.59591e-296
2.69776e-294
9.99119e-293
5.17699e-291
4.1966e-289
6.98783e-287
0.999997
0.99998
0.99999
1
0.999999
0.999998
1
0.974093
0.607847
0.115187
0.00594684
0.000845769
0.000174416
2.30816e-05
1.90961e-06
1.02057e-07
7.96052e-10
1.16611e-14
5.66068e-20
1.97938e-28
8.69533e-38
1.36883e-45
3.13291e-52
8.93985e-59
2.38965e-78
5.57572e-80
5.39328e-83
1.08223e-87
1.87074e-92
7.08539e-96
3.93256e-101
4.20597e-105
2.82151e-110
6.70596e-116
1.18638e-122
8.48048e-132
7.67503e-143
2.66896e-154
1.9959e-163
1.60327e-173
2.15458e-251
7.78811e-252
0
0
0
0
0
0
3.35938e-300
2.69252e-299
2.59886e-298
3.02404e-297
4.26125e-296
7.33919e-295
1.56855e-293
4.25762e-292
1.52193e-290
7.60883e-289
5.94877e-287
9.5484e-285
0.999998
0.99998
0.999991
1
0.999999
0.999998
0.999999
0.972751
0.594722
0.105947
0.00498516
0.00069765
0.000138783
1.78826e-05
1.48512e-06
8.07963e-08
8.0503e-10
1.0333e-14
5.25192e-20
1.96121e-28
8.79205e-38
1.40948e-45
3.2828e-52
9.36293e-59
6.18125e-80
6.17285e-80
6.07676e-83
1.25146e-87
2.16068e-92
9.05501e-96
4.71364e-101
5.34254e-105
2.93169e-110
1.02024e-115
2.47472e-122
1.15681e-131
1.67406e-142
4.27913e-154
3.81457e-163
4.73583e-173
1.35501e-251
5.09594e-252
0
0
1.4166e-300
4.84349e-300
2.08047e-299
1.10006e-298
7.07265e-298
5.48914e-297
5.12761e-296
5.77194e-295
7.86534e-294
1.3096e-292
2.70501e-291
7.0939e-290
2.44918e-288
1.18223e-286
8.92048e-285
1.38114e-282
0.999997
0.999981
0.999991
1
0.999998
0.999998
0.999999
0.971076
0.578855
0.0957732
0.00414285
0.000577002
0.000110923
1.39603e-05
1.16712e-06
6.47856e-08
7.87766e-10
9.34563e-15
4.87891e-20
1.95387e-28
8.95262e-38
1.46015e-45
3.47354e-52
9.87047e-59
2.23005e-77
6.91878e-80
6.90815e-83
1.46067e-87
2.52022e-92
1.14599e-95
5.6828e-101
6.64831e-105
3.00185e-110
1.65443e-115
4.33099e-122
1.43985e-131
4.87041e-142
7.00455e-154
7.47748e-163
1.45252e-172
8.30722e-252
3.23747e-252
7.21745e-299
1.36832e-298
3.52667e-298
1.17456e-297
4.90409e-297
2.51699e-296
1.56923e-295
1.18014e-294
1.06765e-293
1.16342e-292
1.53416e-291
2.47109e-290
4.93609e-289
1.25149e-287
4.17591e-286
1.94742e-284
1.41905e-282
2.12062e-280
0.999997
0.999981
0.999991
1
0.999998
0.999998
0.999999
0.969267
0.56134
0.0855036
0.00347225
0.000480662
8.9409e-05
1.10249e-05
9.32303e-07
5.2292e-08
7.56836e-10
8.56704e-15
4.55188e-20
1.96829e-28
9.19395e-38
1.52382e-45
3.71635e-52
1.04872e-58
4.30662e-78
7.78658e-80
7.92928e-83
1.72136e-87
2.97091e-92
1.43624e-95
6.89576e-101
8.12313e-105
3.05454e-110
2.68769e-115
6.7386e-122
1.627e-131
1.13388e-141
1.17016e-153
1.50274e-162
4.61883e-172
4.96191e-252
1.99745e-252
1.97062e-296
3.67381e-296
9.25917e-296
3.0057e-295
1.22066e-294
6.08519e-294
3.68135e-293
2.68453e-292
2.35363e-291
2.4844e-290
3.17229e-289
4.9461e-288
9.56071e-287
2.34493e-285
7.56659e-284
3.41112e-282
2.40182e-280
3.46636e-278
0.999998
0.999981
0.999991
1
0.999998
0.999998
0.999999
0.967528
0.544231
0.0764417
0.00300762
0.000405648
7.2896e-05
8.87563e-06
7.53358e-07
4.2455e-08
7.37356e-10
7.9922e-15
4.27141e-20
1.99911e-28
9.5361e-38
1.60406e-45
4.02559e-52
1.12441e-58
5.19621e-78
8.92038e-80
9.19577e-83
2.04888e-87
3.54225e-92
1.78345e-95
8.4305e-101
9.77118e-105
3.1209e-110
4.21124e-115
9.72393e-122
1.69802e-131
1.98897e-141
1.99391e-153
3.09455e-162
1.52008e-171
2.88598e-252
1.19701e-252
5.69089e-294
1.04354e-293
2.57306e-293
8.1459e-293
3.21974e-292
1.56004e-291
9.1638e-291
6.48374e-290
5.5124e-289
5.6399e-288
6.97754e-287
1.05371e-285
1.97214e-284
4.68189e-283
1.4618e-281
6.37404e-280
4.33913e-278
6.05123e-276
0.999997
0.999981
0.999991
1
0.999997
0.999998
0.999999
0.96615
0.529242
0.0687591
0.0027328
0.000347704
6.05221e-05
7.25915e-06
6.14312e-07
3.50398e-08
7.24533e-10
7.63417e-15
4.03787e-20
2.0549e-28
1.0003e-37
1.70518e-45
4.41985e-52
1.21806e-58
5.87372e-78
1.03672e-79
1.07822e-82
2.46393e-87
4.27513e-92
2.19625e-95
1.03985e-100
1.16064e-104
3.26816e-110
6.26878e-115
1.34613e-121
1.70317e-131
2.86864e-141
3.46324e-153
6.52546e-162
5.16742e-171
1.63372e-252
6.96784e-253
1.74519e-291
3.14833e-291
7.59815e-291
2.34722e-290
9.03496e-290
4.25738e-289
2.42971e-288
1.669e-287
1.37682e-286
1.36619e-285
1.63859e-284
2.3981e-283
4.34821e-282
9.99715e-281
3.02183e-279
1.27514e-277
8.39687e-276
1.13211e-273
1
0.999981
0.999991
1
0.999997
0.999998
0.999999
0.965395
0.518795
0.0653118
0.0026645
0.000307573
5.09127e-05
6.01995e-06
5.10713e-07
2.94985e-08
7.16879e-10
7.45277e-15
3.84985e-20
2.13861e-28
1.0624e-37
1.83244e-45
4.92347e-52
1.33471e-58
6.89361e-78
1.2233e-79
1.27892e-82
2.99454e-87
5.22676e-92
2.68527e-95
1.29624e-100
1.36614e-104
3.69254e-110
8.85024e-115
1.84454e-121
1.65965e-131
3.77083e-141
6.12824e-153
1.40802e-161
1.81061e-170
8.99688e-253
3.93977e-253
5.7081e-289
1.01328e-288
2.3946e-288
7.2221e-288
2.70879e-287
1.24207e-286
6.89104e-286
4.59826e-285
3.6827e-284
3.54605e-283
4.12549e-282
5.85438e-281
1.02892e-279
2.29221e-278
6.71114e-277
2.74196e-275
1.74745e-273
2.27885e-271
0.999999
0.999981
0.999992
1
0.999997
0.999998
0.999998
0.965265
0.513735
0.062568
0.00274381
0.000276613
4.33323e-05
5.10166e-06
4.34224e-07
2.53999e-08
7.09097e-10
7.39647e-15
3.70547e-20
2.25639e-28
1.14354e-37
1.99238e-45
5.56853e-52
1.48094e-58
8.48611e-78
1.46468e-79
1.53539e-82
3.67901e-87
6.478e-92
3.26396e-95
1.63646e-100
1.60017e-104
5.00784e-110
1.19056e-114
2.58517e-121
1.59631e-131
5.11392e-141
1.10432e-152
3.10627e-161
6.52419e-170
4.81754e-253
2.16358e-253
2.00101e-286
3.49605e-286
8.09342e-286
2.38434e-285
8.7188e-285
3.89245e-284
2.10056e-283
1.36235e-282
1.05987e-281
9.90855e-281
1.11876e-279
1.54019e-278
2.62514e-277
5.66947e-276
1.60857e-274
6.36631e-273
3.92839e-271
4.95751e-269
1
0.999981
0.999991
1
0.999997
0.999998
0.999998
0.966958
0.512999
0.062734
0.00296288
0.000253189
3.7733e-05
4.43058e-06
3.78269e-07
2.2411e-08
6.94689e-10
7.72178e-15
3.60451e-20
2.41521e-28
1.2483e-37
2.19318e-45
6.39769e-52
1.66542e-58
1.68555e-77
1.77861e-79
1.86637e-82
4.5701e-87
8.14427e-92
3.95e-95
2.09739e-100
1.87526e-104
9.00842e-110
1.53767e-114
3.83442e-121
1.56739e-131
8.85231e-141
2.02613e-152
7.00027e-161
2.4118e-169
2.50704e-253
1.1538e-253
7.55943e-284
1.30014e-283
2.94965e-283
8.49221e-283
3.02911e-282
1.31738e-281
6.91877e-281
4.36378e-280
3.29947e-279
2.99642e-278
3.28506e-277
4.38959e-276
7.25909e-275
1.52053e-273
4.18259e-272
1.60422e-270
9.58881e-269
1.17149e-266
1
0.999981
0.999991
1
0.999996
0.999996
0.999997
0.969123
0.527366
0.0700087
0.0033007
0.000241216
3.36745e-05
3.94585e-06
3.37981e-07
2.02703e-08
6.7948e-10
8.61687e-15
3.54613e-20
2.62388e-28
1.38248e-37
2.44515e-45
7.468e-52
1.8997e-58
1.16425e-77
2.18902e-79
2.29777e-82
5.74096e-87
1.0392e-91
4.76765e-95
2.73629e-100
2.21504e-104
2.00405e-109
1.92467e-114
6.17299e-121
1.60342e-131
2.22842e-140
3.7844e-152
1.60996e-160
9.12444e-169
1.26729e-253
5.97375e-254
3.09634e-281
5.24329e-281
1.1662e-280
3.28277e-280
1.14277e-279
4.84407e-279
2.47718e-278
1.52018e-277
1.11766e-276
9.86465e-276
1.05061e-274
1.36323e-273
2.18828e-272
4.4476e-271
1.18663e-269
4.41255e-268
2.55587e-266
3.02418e-264
0.999986
0.999987
0.99999
1
0.999997
0.999996
0.999997
0.972463
0.546217
0.0780317
0.00372389
0.00023632
3.08244e-05
3.60296e-06
3.09704e-07
1.87874e-08
6.67822e-10
9.89267e-15
3.52473e-20
2.89349e-28
1.55352e-37
2.76146e-45
8.85613e-52
2.19939e-58
1.57448e-77
2.72849e-79
2.86562e-82
7.29396e-87
1.34635e-91
5.75183e-95
3.64371e-100
2.66461e-104
4.6249e-109
2.36181e-114
1.07674e-120
3.46069e-131
5.90353e-140
7.19416e-152
3.77462e-160
3.52415e-168
6.21916e-254
3.00184e-254
1.38412e-278
2.30814e-278
5.03477e-278
1.38631e-277
4.71205e-277
1.94776e-276
9.70352e-276
5.79667e-275
4.14609e-274
3.55816e-273
3.68301e-272
4.64262e-271
7.23704e-270
1.42782e-268
3.69638e-267
1.33314e-265
7.48579e-264
8.58156e-262
0.99998
0.99999
0.999989
1
0.999997
0.999996
0.99998
0.977029
0.575066
0.0889927
0.00433413
0.000236005
2.89419e-05
3.36939e-06
2.90715e-07
1.78181e-08
6.6235e-10
1.18934e-14
3.54611e-20
3.23815e-28
1.77101e-37
3.15894e-45
1.06655e-51
2.58579e-58
1.862e-77
3.44159e-79
3.62037e-82
9.37351e-87
1.77146e-91
6.9558e-95
4.96516e-100
3.313e-104
9.92579e-109
2.88548e-114
1.96686e-120
1.89614e-130
1.26146e-139
1.39109e-151
9.01147e-160
1.38621e-167
2.96129e-254
1.46351e-254
6.79826e-276
1.1166e-275
2.38956e-275
6.43869e-275
2.13788e-274
8.62158e-274
4.18634e-273
2.43557e-272
1.69552e-271
1.41546e-270
1.42455e-269
1.74524e-268
2.64295e-267
5.06361e-266
1.27245e-264
4.45266e-263
2.42466e-261
2.69394e-259
0.999975
0.999992
0.999989
1
0.999997
0.999996
0.999957
0.98235
0.610467
0.103662
0.00521043
0.000251952
2.79431e-05
3.22001e-06
2.79141e-07
1.7281e-08
6.63195e-10
1.49776e-14
3.6067e-20
3.67585e-28
2.04732e-37
3.65932e-45
1.30362e-51
3.08823e-58
2.09554e-77
4.38934e-79
4.63322e-82
1.21851e-86
2.36721e-91
8.4653e-95
6.93754e-100
4.34225e-104
1.91944e-108
3.59056e-114
3.59404e-120
7.65876e-130
2.18027e-139
2.73293e-151
2.18811e-159
5.53994e-167
1.3673e-254
6.91972e-255
3.69244e-273
5.97455e-273
1.2548e-272
3.31005e-272
1.07411e-271
4.22796e-271
2.00184e-270
1.13477e-269
7.69203e-269
6.24924e-268
6.11769e-267
7.28702e-266
1.07247e-264
1.99605e-263
4.87057e-262
1.6542e-260
8.73837e-259
9.4127e-257
0.999975
0.999992
0.999989
1
0.999998
0.999997
0.999952
0.987459
0.651992
0.122735
0.00643438
0.000283203
2.75019e-05
3.13991e-06
2.7317e-07
1.70376e-08
6.73871e-10
1.9553e-14
3.70627e-20
4.22956e-28
2.39851e-37
4.29072e-45
1.6158e-51
3.74759e-58
3.11148e-77
5.66811e-79
6.00533e-82
1.60236e-86
3.21226e-91
1.04259e-94
9.94984e-100
6.13432e-104
3.35667e-108
4.71764e-114
6.34952e-120
2.02265e-129
3.42456e-139
5.44594e-151
5.3977e-159
2.24442e-166
6.11798e-255
3.17145e-255
2.22983e-270
3.55494e-270
7.32988e-270
1.8937e-269
6.00819e-269
2.30936e-268
1.06667e-267
5.89396e-267
3.8918e-266
3.07823e-265
2.93229e-264
3.39715e-263
4.86074e-262
8.79133e-261
2.08369e-259
6.87077e-258
3.52197e-256
3.6791e-254
0.999975
0.99999
0.999989
1
0.999997
0.999997
0.999948
0.991869
0.698342
0.147457
0.00815971
0.000329034
2.74315e-05
3.10496e-06
2.71175e-07
1.69948e-08
6.92833e-10
2.62863e-14
3.84161e-20
4.9287e-28
2.84549e-37
5.08974e-45
2.02891e-51
4.62129e-58
4.03904e-77
7.3703e-79
7.88142e-82
2.13166e-86
4.42472e-91
1.30971e-94
1.46434e-99
9.49061e-104
5.38289e-108
6.89886e-114
1.06869e-119
4.15448e-129
6.04028e-139
1.09856e-150
1.3514e-158
9.19845e-166
2.65105e-255
1.40823e-255
1.50264e-267
2.36084e-267
4.78042e-267
1.21005e-266
3.75518e-266
1.41004e-265
6.35611e-265
3.42484e-264
2.20376e-263
1.69763e-262
1.57417e-261
1.77441e-260
2.4691e-259
4.34102e-258
9.99697e-257
3.20132e-255
1.59282e-253
1.61401e-251
0.999992
0.999987
0.999991
1
0.999997
0.999998
0.999973
0.995345
0.747811
0.179147
0.0106155
0.000395999
2.82849e-05
3.10137e-06
2.72955e-07
1.74409e-08
7.20778e-10
3.6108e-14
4.0131e-20
5.81101e-28
3.41551e-37
6.10427e-45
2.57802e-51
5.79077e-58
1.39477e-76
9.70855e-79
1.047e-81
2.86893e-86
6.18313e-91
1.69638e-94
2.20746e-99
1.60399e-103
8.03359e-108
1.1799e-113
1.71548e-119
8.23095e-129
1.78846e-138
2.23905e-150
3.43123e-158
3.80623e-165
1.11173e-255
6.05458e-256
1.13146e-264
1.75221e-264
3.48546e-264
8.64733e-264
2.62591e-263
9.63617e-263
4.24093e-262
2.22921e-261
1.39836e-260
1.04949e-259
9.47631e-259
1.03963e-257
1.40732e-256
2.40586e-255
5.38476e-254
1.67505e-252
8.09152e-251
7.95527e-249
1
0.999985
0.999992
1
0.999998
0.999998
0.999994
0.997803
0.798627
0.219439
0.0141553
0.000492484
3.03033e-05
3.18018e-06
2.81356e-07
1.80284e-08
7.56326e-10
5.02889e-14
4.21915e-20
6.92499e-28
4.14423e-37
7.39725e-45
3.31089e-51
7.37245e-58
1.34202e-78
1.32246e-78
1.40733e-81
3.90653e-86
8.75864e-91
2.29676e-94
3.39752e-99
2.88937e-103
1.13052e-107
2.34662e-113
2.65777e-119
2.16615e-128
8.75307e-138
4.60558e-150
8.82937e-158
1.5874e-164
4.50867e-256
2.51894e-256