/*--------------------------------*- C++ -*----------------------------------*\
| =========                 |                                                 |
| \\      /  F ield         | OpenFOAM: The Open Source CFD Toolbox           |
|  \\    /   O peration     | Version:  v2012                                 |
|   \\  /    A nd           | Website:  www.openfoam.com                      |
|    \\/     M anipulation  |                                                 |
\*---------------------------------------------------------------------------*/
FoamFile
{
    version     2.0;
    format      ascii;
    class       surfaceScalarField;
    location    "0.95";
    object      phi;
}
// * * * * * * * * * * * * * * * * * * * * * * * * * * * * * * * * * * * * * //

dimensions      [0 3 -1 0 0 0 0];
oriented        oriented;


internalField   nonuniform List<scalar> 
49380
(
4.39202e-12
-6.90214e-09
9.17295e-17
4.42357e-12
-2.11503e-08
-6.07997e-16
-1.1236e-10
-3.49976e-08
-8.84352e-15
-1.14918e-10
-4.90519e-08
-8.05347e-15
1.51718e-10
-6.21608e-08
-1.19865e-14
7.6417e-10
-7.67809e-08
-1.05492e-14
1.17049e-09
-7.39333e-08
-6.50686e-15
1.3129e-09
-7.87343e-08
-1.91528e-15
1.44769e-09
-9.00359e-08
-8.34951e-16
1.59153e-09
-9.94089e-08
-1.36202e-17
1.71193e-09
-1.04389e-07
-3.71015e-17
1.79728e-09
-1.04443e-07
-3.49846e-17
1.87557e-09
-1.03188e-07
-2.07436e-16
1.93455e-09
-1.0451e-07
-5.70284e-16
1.96072e-09
-1.08705e-07
-7.39283e-16
1.94817e-09
-1.14491e-07
-9.21464e-16
1.90909e-09
-1.20899e-07
-1.08263e-15
1.84604e-09
-1.27304e-07
-1.20671e-15
1.76128e-09
-1.33327e-07
-1.42753e-15
1.65509e-09
-1.38748e-07
-1.49398e-15
1.52765e-09
-1.4346e-07
-1.49412e-15
1.37882e-09
-1.4742e-07
-1.54592e-15
1.20854e-09
-1.50573e-07
-1.57113e-15
1.01678e-09
-1.52914e-07
-1.60028e-15
8.03838e-10
-1.54389e-07
-1.58275e-15
5.70347e-10
-1.54963e-07
-1.5742e-15
3.17484e-10
-1.54577e-07
-1.56261e-15
4.71249e-11
-1.53149e-07
-1.5488e-15
-2.38084e-10
-1.50631e-07
-1.53122e-15
-5.34458e-10
-1.46914e-07
-1.58774e-15
-8.37178e-10
-1.41932e-07
-1.45275e-15
-1.14006e-09
-1.35598e-07
-1.34838e-15
-1.43529e-09
-1.27825e-07
-1.29236e-15
-1.71305e-09
-1.18538e-07
-1.22859e-15
-1.96104e-09
-1.07664e-07
-1.15588e-15
-2.16362e-09
-9.51437e-08
-1.0742e-15
-2.3002e-09
-8.09232e-08
-9.82231e-16
-2.34328e-09
-6.49753e-08
-8.78218e-16
-2.24869e-09
-4.72907e-08
-7.58864e-16
-1.96493e-09
-2.7923e-08
-6.1327e-16
-1.25833e-09
-7.01087e-09
-4.29068e-16
-6.13229e-10
1.56258e-08
-1.00171e-16
-4.61778e-10
3.98674e-08
-4.58836e-17
-3.97561e-10
6.52628e-08
-3.1334e-17
-3.6958e-10
9.16969e-08
-2.38416e-17
-3.50559e-10
1.19051e-07
-1.9378e-17
-3.33179e-10
1.46861e-07
-1.3906e-17
-3.14463e-10
1.74738e-07
-1.65893e-17
-2.93272e-10
2.02033e-07
-2.16258e-17
-2.69142e-10
2.28026e-07
-2.21938e-17
-2.42003e-10
2.51866e-07
-2.26505e-17
-2.12097e-10
2.72305e-07
-2.26307e-17
-1.7993e-10
2.88013e-07
-2.75377e-17
-1.46292e-10
2.97315e-07
-2.88376e-17
-1.12306e-10
2.98074e-07
-3.01044e-17
-7.94476e-11
2.87733e-07
-3.05444e-17
-4.95807e-11
2.63231e-07
-2.8589e-17
-2.48801e-11
2.20667e-07
-2.8149e-17
-7.65222e-12
1.55375e-07
-2.25e-17
6.13334e-08
-1.6179e-17
8.28333e-12
-6.91041e-09
2.27942e-16
7.34585e-12
-2.11493e-08
-3.3251e-15
-1.56231e-10
-3.4834e-08
-1.15836e-14
-1.4277e-10
-4.90654e-08
-4.17851e-15
1.81776e-10
-6.24854e-08
-7.3279e-15
9.72923e-10
-7.7572e-08
-1.05266e-14
1.35019e-09
-7.43106e-08
-8.39831e-15
1.55069e-09
-7.89348e-08
-1.60055e-15
1.77649e-09
-9.02617e-08
-1.17973e-15
1.95745e-09
-9.95899e-08
-6.88035e-16
2.03032e-09
-1.04462e-07
-5.8746e-16
2.06615e-09
-1.04479e-07
-5.89128e-16
2.14764e-09
-1.0327e-07
-9.90877e-16
2.21607e-09
-1.04578e-07
-9.74213e-16
2.22475e-09
-1.08713e-07
-1.02051e-15
2.17921e-09
-1.14446e-07
-1.18763e-15
2.09937e-09
-1.20819e-07
-1.26786e-15
1.99676e-09
-1.27202e-07
-1.39995e-15
1.87668e-09
-1.33207e-07
-1.36112e-15
1.74092e-09
-1.38612e-07
-1.34526e-15
1.58943e-09
-1.43309e-07
-1.41187e-15
1.42131e-09
-1.47252e-07
-1.50918e-15
1.23552e-09
-1.50388e-07
-1.52747e-15
1.03113e-09
-1.5271e-07
-1.55897e-15
8.07652e-10
-1.54166e-07
-1.54493e-15
5.65154e-10
-1.54721e-07
-1.56139e-15
3.04383e-10
-1.54316e-07
-1.5577e-15
2.69132e-11
-1.52871e-07
-1.5525e-15
-2.64829e-10
-1.50339e-07
-1.53668e-15
-5.67326e-10
-1.46612e-07
-1.50404e-15
-8.75902e-10
-1.41623e-07
-1.36644e-15
-1.18452e-09
-1.35289e-07
-1.35861e-15
-1.48555e-09
-1.27524e-07
-1.30628e-15
-1.76946e-09
-1.18254e-07
-1.24232e-15
-2.02438e-09
-1.07409e-07
-1.16895e-15
-2.23555e-09
-9.49325e-08
-1.08585e-15
-2.38417e-09
-8.07745e-08
-9.92156e-16
-2.44674e-09
-6.49127e-08
-8.8658e-16
-2.39106e-09
-4.73464e-08
-7.66395e-16
-2.19597e-09
-2.81181e-08
-6.21023e-16
-1.85287e-09
-7.35394e-09
-4.39459e-16
-1.50167e-09
1.52746e-08
-2.12986e-16
-1.29474e-09
3.96604e-08
-1.28631e-16
-1.17342e-09
6.51414e-08
-9.18782e-17
-1.10406e-09
9.16275e-08
-7.10835e-17
-1.05088e-09
1.18997e-07
-5.84488e-17
-9.99858e-10
1.4681e-07
-4.41052e-17
-9.44153e-10
1.74682e-07
-6.16855e-17
-8.80772e-10
2.0197e-07
-8.24677e-17
-8.08465e-10
2.27954e-07
-8.85826e-17
-7.27069e-10
2.51784e-07
-9.39947e-17
-6.37338e-10
2.72215e-07
-9.75499e-17
-5.40798e-10
2.87917e-07
-1.17127e-16
-4.39824e-10
2.97214e-07
-1.24926e-16
-3.3776e-10
2.97972e-07
-1.32578e-16
-2.39011e-10
2.87634e-07
-1.36635e-16
-1.4908e-10
2.63141e-07
-1.30769e-16
-7.45186e-11
2.20592e-07
-1.27989e-16
-2.22727e-11
1.55323e-07
-1.04909e-16
6.13112e-08
-7.89137e-17
7.72912e-12
-6.91813e-09
1.04325e-15
6.20195e-12
-2.11478e-08
-4.46091e-15
-8.65798e-11
-3.47413e-08
-1.5556e-14
-3.48733e-12
-4.91485e-08
-4.36133e-15
2.89588e-10
-6.27784e-08
-8.00004e-15
1.05757e-09
-7.834e-08
-1.13572e-14
1.48554e-09
-7.47386e-08
-8.50143e-15
1.78415e-09
-7.92334e-08
-1.97988e-15
2.0521e-09
-9.05296e-08
-1.02672e-15
2.19236e-09
-9.97302e-08
-8.78921e-16
2.17137e-09
-1.04441e-07
-7.47277e-16
2.14478e-09
-1.04452e-07
-7.89962e-16
2.23011e-09
-1.03355e-07
-1.1125e-15
2.33582e-09
-1.04684e-07
-9.49966e-16
2.37453e-09
-1.08752e-07
-9.87473e-16
2.34583e-09
-1.14417e-07
-1.23532e-15
2.26571e-09
-1.20739e-07
-1.19923e-15
2.15145e-09
-1.27087e-07
-1.36901e-15
2.01326e-09
-1.33069e-07
-1.43999e-15
1.85694e-09
-1.38456e-07
-1.53885e-15
1.6847e-09
-1.43136e-07
-1.61075e-15
1.49683e-09
-1.47064e-07
-1.69157e-15
1.2927e-09
-1.50183e-07
-1.65704e-15
1.07139e-09
-1.52488e-07
-1.66867e-15
8.32279e-10
-1.53927e-07
-1.62486e-15
5.75181e-10
-1.54464e-07
-1.61766e-15
3.00614e-10
-1.54042e-07
-1.59262e-15
9.94151e-12
-1.52581e-07
-1.57519e-15
-2.94593e-10
-1.50035e-07
-1.55187e-15
-6.09632e-10
-1.46297e-07
-1.55035e-15
-9.30665e-10
-1.41302e-07
-1.40308e-15
-1.25186e-09
-1.34968e-07
-1.3668e-15
-1.56584e-09
-1.2721e-07
-1.31365e-15
-1.86353e-09
-1.17957e-07
-1.25035e-15
-2.13386e-09
-1.07139e-07
-1.1775e-15
-2.36345e-09
-9.47029e-08
-1.09477e-15
-2.53633e-09
-8.06016e-08
-1.00178e-15
-2.63471e-09
-6.48144e-08
-8.98003e-16
-2.63969e-09
-4.73414e-08
-7.8205e-16
-2.55136e-09
-2.82064e-08
-6.44803e-16
-2.40721e-09
-7.49806e-09
-4.80722e-16
-2.23286e-09
1.51002e-08
-3.01843e-16
-2.05776e-09
3.94854e-08
-2.03152e-16
-1.92365e-09
6.50073e-08
-1.4893e-16
-1.8292e-09
9.15331e-08
-1.15863e-16
-1.74795e-09
1.18916e-07
-9.46699e-17
-1.66573e-09
1.46728e-07
-7.31657e-17
-1.57413e-09
1.7459e-07
-9.8077e-17
-1.46908e-09
2.01865e-07
-1.25585e-16
-1.34886e-09
2.27834e-07
-1.30358e-16
-1.21333e-09
2.51649e-07
-1.35182e-16
-1.06383e-09
2.72066e-07
-1.37003e-16
-9.02926e-10
2.87756e-07
-1.65118e-16
-7.34573e-10
2.97045e-07
-1.73032e-16
-5.64318e-10
2.97801e-07
-1.81393e-16
-3.99437e-10
2.87469e-07
-1.8493e-16
-2.49015e-10
2.62991e-07
-1.7478e-16
-1.23932e-10
2.20467e-07
-1.73079e-16
-3.61307e-11
1.55235e-07
-1.41659e-16
6.1275e-08
-1.07849e-16
8.75263e-12
-6.92688e-09
-1.01238e-16
6.18729e-12
-2.11452e-08
1.81761e-16
-5.50816e-11
-3.468e-08
-1.03004e-14
5.19349e-11
-4.92555e-08
-7.97513e-15
3.41129e-10
-6.30676e-08
-9.26224e-15
1.15417e-09
-7.9153e-08
-1.32621e-14
1.52817e-09
-7.51126e-08
-6.1103e-15
1.84989e-09
-7.95551e-08
-2.22394e-15
2.14949e-09
-9.08292e-08
-6.97114e-16
2.29599e-09
-9.98767e-08
-4.67907e-16
2.26861e-09
-1.04414e-07
-5.32906e-16
2.23404e-09
-1.04418e-07
-8.33055e-16
2.32867e-09
-1.0345e-07
-9.47482e-16
2.46266e-09
-1.04818e-07
-9.52876e-16
2.53322e-09
-1.08823e-07
-1.1064e-15
2.52136e-09
-1.14405e-07
-1.35095e-15
2.443e-09
-1.20661e-07
-1.17924e-15
2.31788e-09
-1.26962e-07
-1.38089e-15
2.16124e-09
-1.32912e-07
-1.40887e-15
1.98283e-09
-1.38278e-07
-1.5516e-15
1.78761e-09
-1.42941e-07
-1.57119e-15
1.57735e-09
-1.46853e-07
-1.63838e-15
1.35204e-09
-1.49958e-07
-1.61141e-15
1.11091e-09
-1.52247e-07
-1.64837e-15
8.5315e-10
-1.53669e-07
-1.6205e-15
5.78342e-10
-1.54189e-07
-1.62708e-15
2.86736e-10
-1.5375e-07
-1.60446e-15
-2.05421e-11
-1.52273e-07
-1.58931e-15
-3.41461e-10
-1.49714e-07
-1.56569e-15
-6.72856e-10
-1.45965e-07
-1.5616e-15
-1.01041e-09
-1.40964e-07
-1.41194e-15
-1.34852e-09
-1.3463e-07
-1.37806e-15
-1.68018e-09
-1.26879e-07
-1.32465e-15
-1.99684e-09
-1.1764e-07
-1.26141e-15
-2.28835e-09
-1.06847e-07
-1.18866e-15
-2.54296e-09
-9.44483e-08
-1.10611e-15
-2.74763e-09
-8.0397e-08
-1.01376e-15
-2.88976e-09
-6.46722e-08
-9.11893e-16
-2.96018e-09
-4.72709e-08
-8.00447e-16
-2.96708e-09
-2.81995e-08
-6.71693e-16
-2.95164e-09
-7.51346e-09
-5.23855e-16
-2.89238e-09
1.5041e-08
-3.71292e-16
-2.76938e-09
3.93624e-08
-2.67882e-16
-2.64746e-09
6.48854e-08
-2.01754e-16
-2.54209e-09
9.14277e-08
-1.58418e-16
-2.43975e-09
1.18814e-07
-1.29386e-16
-2.32962e-09
1.46618e-07
-9.95707e-17
-2.20373e-09
1.74465e-07
-1.24433e-16
-2.05782e-09
2.01719e-07
-1.52653e-16
-1.89008e-09
2.27666e-07
-1.52548e-16
-1.70062e-09
2.51459e-07
-1.53971e-16
-1.49142e-09
2.71857e-07
-1.51063e-16
-1.26616e-09
2.87531e-07
-1.84438e-16
-1.03038e-09
2.9681e-07
-1.89161e-16
-7.91823e-10
2.97563e-07
-1.95342e-16
-5.60611e-10
2.87238e-07
-1.968e-16
-3.49381e-10
2.6278e-07
-1.82897e-16
-1.7338e-10
2.20291e-07
-1.86032e-16
-4.98666e-11
1.55111e-07
-1.52495e-16
6.12252e-08
-1.16074e-16
1.01594e-11
-6.93703e-09
1.76755e-15
5.91197e-12
-2.1141e-08
-5.47024e-15
1.85448e-11
-3.46927e-08
-1.02932e-14
1.50718e-10
-4.93877e-08
-8.39998e-15
4.19886e-10
-6.33368e-08
-1.03017e-14
1.26056e-09
-7.99937e-08
-1.38151e-14
1.60903e-09
-7.5461e-08
-5.754e-15
1.93184e-09
-7.98779e-08
-2.13766e-15
2.2351e-09
-9.11324e-08
-3.61992e-16
2.37933e-09
-1.00021e-07
-1.41346e-16
2.34624e-09
-1.0438e-07
-1.39099e-16
2.31229e-09
-1.04384e-07
-5.32328e-16
2.41185e-09
-1.03549e-07
-8.32536e-16
2.55517e-09
-1.04961e-07
-9.57587e-16
2.64124e-09
-1.08909e-07
-1.17877e-15
2.64412e-09
-1.14408e-07
-1.38752e-15
2.5739e-09
-1.20591e-07
-1.20517e-15
2.44851e-09
-1.26837e-07
-1.48802e-15
2.28412e-09
-1.32748e-07
-1.46641e-15
2.09243e-09
-1.38086e-07
-1.59807e-15
1.88043e-09
-1.42729e-07
-1.5879e-15
1.65145e-09
-1.46625e-07
-1.65271e-15
1.40654e-09
-1.49713e-07
-1.62739e-15
1.14553e-09
-1.51986e-07
-1.67486e-15
8.67896e-10
-1.53391e-07
-1.65183e-15
5.73317e-10
-1.53894e-07
-1.6594e-15
2.62011e-10
-1.53439e-07
-1.63165e-15
-6.49795e-11
-1.51946e-07
-1.6128e-15
-4.05731e-10
-1.49373e-07
-1.58559e-15
-7.57202e-10
-1.45614e-07
-1.58057e-15
-1.11523e-09
-1.40606e-07
-1.42478e-15
-1.47445e-09
-1.3427e-07
-1.3907e-15
-1.82818e-09
-1.26525e-07
-1.3368e-15
-2.16844e-09
-1.173e-07
-1.27355e-15
-2.48601e-09
-1.0653e-07
-1.20096e-15
-2.77068e-09
-9.41637e-08
-1.11879e-15
-3.012e-09
-8.01556e-08
-1.02726e-15
-3.20125e-09
-6.4483e-08
-9.27375e-16
-3.33493e-09
-4.71372e-08
-8.20166e-16
-3.42238e-09
-2.8112e-08
-6.98999e-16
-3.4952e-09
-7.4406e-09
-5.63647e-16
-3.51532e-09
1.50611e-08
-4.27909e-16
-3.44705e-09
3.92942e-08
-3.24243e-16
-3.34894e-09
6.47873e-08
-2.5032e-16
-3.24278e-09
9.13216e-08
-1.98648e-16
-3.12559e-09
1.18697e-07
-1.62278e-16
-2.99096e-09
1.46483e-07
-1.23312e-16
-2.83258e-09
1.74306e-07
-1.39047e-16
-2.64675e-09
2.01533e-07
-1.61869e-16
-2.43197e-09
2.27451e-07
-1.52705e-16
-2.18881e-09
2.51216e-07
-1.47372e-16
-1.92001e-09
2.71588e-07
-1.36535e-16
-1.6304e-09
2.87241e-07
-1.71819e-16
-1.32715e-09
2.96506e-07
-1.70009e-16
-1.02019e-09
2.97256e-07
-1.71266e-16
-7.22469e-10
2.8694e-07
-1.69266e-16
-4.50175e-10
2.62508e-07
-1.52627e-16
-2.22965e-10
2.20064e-07
-1.64315e-16
-6.35971e-11
1.54952e-07
-1.34311e-16
6.11616e-08
-1.00664e-16
1.08825e-11
-6.9479e-09
7.98293e-16
4.01032e-12
-2.11341e-08
-1.62891e-15
1.08002e-10
-3.47967e-08
-9.40308e-15
2.39332e-10
-4.9519e-08
-9.66811e-15
4.89156e-10
-6.35866e-08
-1.4358e-14
1.35139e-09
-8.0856e-08
-1.33825e-14
1.6335e-09
-7.57431e-08
-7.21891e-15
1.95052e-09
-8.0195e-08
-1.68382e-15
2.26339e-09
-9.14453e-08
-2.78867e-16
2.42187e-09
-1.00179e-07
-1.4584e-16
2.41297e-09
-1.04372e-07
-1.72676e-16
2.39903e-09
-1.0437e-07
-5.26863e-16
2.50258e-09
-1.03653e-07
-8.3229e-16
2.64811e-09
-1.05107e-07
-1.02699e-15
2.73908e-09
-1.09e-07
-1.27769e-15
2.74746e-09
-1.14417e-07
-1.45607e-15
2.67995e-09
-1.20523e-07
-1.29576e-15
2.55247e-09
-1.26709e-07
-1.58328e-15
2.38104e-09
-1.32576e-07
-1.55014e-15
2.17812e-09
-1.37883e-07
-1.7073e-15
1.95175e-09
-1.42503e-07
-1.70311e-15
1.70625e-09
-1.46379e-07
-1.76419e-15
1.44341e-09
-1.4945e-07
-1.72313e-15
1.1635e-09
-1.51706e-07
-1.75e-15
8.66268e-10
-1.53094e-07
-1.70976e-15
5.51492e-10
-1.5358e-07
-1.7049e-15
2.19425e-10
-1.53107e-07
-1.66664e-15
-1.28902e-10
-1.51598e-07
-1.64191e-15
-4.91605e-10
-1.4901e-07
-1.61055e-15
-8.65698e-10
-1.4524e-07
-1.60391e-15
-1.24712e-09
-1.40225e-07
-1.44059e-15
-1.63066e-09
-1.33887e-07
-1.40555e-15
-2.00993e-09
-1.26146e-07
-1.35039e-15
-2.37744e-09
-1.16932e-07
-1.28665e-15
-2.72477e-09
-1.06182e-07
-1.21404e-15
-3.04303e-09
-9.38454e-08
-1.13233e-15
-3.32369e-09
-7.9875e-08
-1.04178e-15
-3.56055e-09
-6.42461e-08
-9.43896e-16
-3.75265e-09
-4.69451e-08
-8.40591e-16
-3.90721e-09
-2.79575e-08
-7.2594e-16
-4.04372e-09
-7.30405e-09
-6.00463e-16
-4.12194e-09
1.51394e-08
-4.75955e-16
-4.10394e-09
3.92762e-08
-3.73657e-16
-4.03369e-09
6.47171e-08
-2.94901e-16
-3.933e-09
9.12209e-08
-2.36828e-16
-3.80576e-09
1.1857e-07
-1.93915e-16
-3.64967e-09
1.46327e-07
-1.45028e-16
-3.46055e-09
1.74117e-07
-1.49409e-16
-3.23576e-09
2.01308e-07
-1.6476e-16
-2.97446e-09
2.2719e-07
-1.44872e-16
-2.67784e-09
2.5092e-07
-1.30907e-16
-2.34954e-09
2.7126e-07
-1.0981e-16
-1.9956e-09
2.86887e-07
-1.44059e-16
-1.62483e-09
2.96136e-07
-1.32351e-16
-1.24936e-09
2.9688e-07
-1.25428e-16
-8.84967e-10
2.86576e-07
-1.17614e-16
-5.51395e-10
2.62174e-07
-9.76591e-17
-2.72747e-10
2.19785e-07
-1.19566e-16
-7.73725e-11
1.54757e-07
-9.63902e-17
6.10842e-08
-6.90395e-17
1.17265e-11
-6.95962e-09
1.18014e-15
5.09712e-12
-2.11275e-08
-4.39681e-15
2.23116e-10
-3.50147e-08
-8.10468e-15
3.28722e-10
-4.96246e-08
-1.02487e-14
5.70077e-10
-6.3828e-08
-1.47084e-14
1.45744e-09
-8.17433e-08
-9.49918e-15
1.6894e-09
-7.59751e-08
-6.51939e-15
1.98767e-09
-8.04932e-08
-1.38866e-15
2.29417e-09
-9.17518e-08
-4.98871e-16
2.45538e-09
-1.00341e-07
-3.88316e-16
2.45978e-09
-1.04376e-07
-4.44907e-16
2.46123e-09
-1.04371e-07
-7.66819e-16
2.56846e-09
-1.0376e-07
-1.06495e-15
2.71125e-09
-1.0525e-07
-1.26346e-15
2.80117e-09
-1.0909e-07
-1.4676e-15
2.81095e-09
-1.14426e-07
-1.68685e-15
2.74488e-09
-1.20457e-07
-1.48589e-15
2.61679e-09
-1.26581e-07
-1.75031e-15
2.44154e-09
-1.32401e-07
-1.72053e-15
2.2313e-09
-1.37673e-07
-1.79853e-15
1.99438e-09
-1.42266e-07
-1.74849e-15
1.73559e-09
-1.4612e-07
-1.80235e-15
1.45723e-09
-1.49172e-07
-1.76637e-15
1.16e-09
-1.51409e-07
-1.79355e-15
8.43927e-10
-1.52778e-07
-1.75423e-15
5.08997e-10
-1.53245e-07
-1.74687e-15
1.55576e-10
-1.52753e-07
-1.704e-15
-2.15228e-10
-1.51227e-07
-1.67551e-15
-6.01491e-10
-1.48624e-07
-1.64068e-15
-1.00021e-09
-1.44841e-07
-1.63253e-15
-1.40735e-09
-1.39818e-07
-1.45964e-15
-1.81779e-09
-1.33476e-07
-1.42259e-15
-2.22535e-09
-1.25738e-07
-1.36539e-15
-2.62291e-09
-1.16535e-07
-1.3007e-15
-3.00269e-09
-1.05803e-07
-1.22786e-15
-3.35672e-09
-9.34914e-08
-1.14664e-15
-3.67781e-09
-7.95539e-08
-1.05711e-15
-3.96103e-09
-6.39629e-08
-9.61194e-16
-4.20591e-09
-4.67002e-08
-8.61358e-16
-4.41639e-09
-2.7747e-08
-7.52108e-16
-4.60161e-09
-7.11877e-09
-6.34219e-16
-4.72455e-09
1.52623e-08
-5.17647e-16
-4.74997e-09
3.93017e-08
-4.17253e-16
-4.70734e-09
6.46745e-08
-3.35752e-16
-4.61529e-09
9.11289e-08
-2.72946e-16
-4.48126e-09
1.18436e-07
-2.24323e-16
-4.30607e-09
1.46152e-07
-1.66701e-16
-4.08773e-09
1.73899e-07
-1.61267e-16
-3.82487e-09
2.01045e-07
-1.70136e-16
-3.51753e-09
2.26883e-07
-1.39453e-16
-3.16768e-09
2.5057e-07
-1.16134e-16
-2.77998e-09
2.70872e-07
-8.36344e-17
-2.36171e-09
2.86469e-07
-1.15306e-16
-1.92336e-09
2.95697e-07
-9.18216e-17
-1.47928e-09
2.96436e-07
-7.47091e-17
-1.04807e-09
2.86145e-07
-5.92204e-17
-6.53035e-10
2.61779e-07
-3.46863e-17
-3.2276e-10
2.19455e-07
-6.62671e-17
-9.12321e-11
1.54525e-07
-4.99343e-17
6.0993e-08
-2.98434e-17
1.22568e-11
-6.97188e-09
9.14791e-16
9.6159e-12
-2.11249e-08
-2.22482e-15
3.4991e-10
-3.5355e-08
-5.4083e-15
3.9633e-10
-4.9671e-08
-9.5997e-15
6.47765e-10
-6.40794e-08
-1.71648e-14
1.55519e-09
-8.26508e-08
-9.51975e-15
1.73392e-09
-7.61538e-08
-7.66749e-15
2.01302e-09
-8.07724e-08
-2.95966e-15
2.31364e-09
-9.20524e-08
-1.20026e-15
2.47753e-09
-1.00505e-07
-1.03878e-15
2.49552e-09
-1.04394e-07
-1.08618e-15
2.51128e-09
-1.04387e-07
-1.30973e-15
2.61973e-09
-1.03869e-07
-1.47946e-15
2.75638e-09
-1.05386e-07
-1.63267e-15
2.84058e-09
-1.09174e-07
-1.74256e-15
2.84703e-09
-1.14433e-07
-1.9219e-15
2.77875e-09
-1.20389e-07
-1.67654e-15
2.64806e-09
-1.26451e-07
-1.8995e-15
2.46862e-09
-1.32222e-07
-1.85015e-15
2.25195e-09
-1.37456e-07
-1.95678e-15
2.00612e-09
-1.4202e-07
-1.89296e-15
1.73595e-09
-1.4585e-07
-1.92477e-15
1.44389e-09
-1.4888e-07
-1.86925e-15
1.13079e-09
-1.51096e-07
-1.87364e-15
7.96864e-10
-1.52444e-07
-1.81824e-15
4.42208e-10
-1.5289e-07
-1.79831e-15
6.73134e-11
-1.52379e-07
-1.74612e-15
-3.26602e-10
-1.50833e-07
-1.71191e-15
-7.37518e-10
-1.48213e-07
-1.67336e-15
-1.16234e-09
-1.44416e-07
-1.66454e-15
-1.59699e-09
-1.39383e-07
-1.47957e-15
-2.03633e-09
-1.33037e-07
-1.441e-15
-2.47429e-09
-1.253e-07
-1.38149e-15
-2.90396e-09
-1.16105e-07
-1.31553e-15
-3.31799e-09
-1.05389e-07
-1.24232e-15
-3.70899e-09
-9.31004e-08
-1.16156e-15
-4.07045e-09
-7.91924e-08
-1.07308e-15
-4.39789e-09
-6.36355e-08
-9.79061e-16
-4.69009e-09
-4.6408e-08
-8.82309e-16
-4.94761e-09
-2.74895e-08
-7.77433e-16
-5.17195e-09
-6.89437e-09
-6.65289e-16
-5.33063e-09
1.5421e-08
-5.54415e-16
-5.39243e-09
3.93635e-08
-4.56021e-16
-5.37496e-09
6.46571e-08
-3.73079e-16
-5.29245e-09
9.10464e-08
-3.06841e-16
-5.15344e-09
1.18297e-07
-2.53422e-16
-4.96081e-09
1.45959e-07
-1.88459e-16
-4.71442e-09
1.73653e-07
-1.78001e-16
-4.41421e-09
2.00745e-07
-1.83666e-16
-4.06122e-09
2.2653e-07
-1.44336e-16
-3.65835e-09
2.50167e-07
-1.13091e-16
-3.2113e-09
2.70425e-07
-7.01354e-17
-2.72869e-09
2.85986e-07
-9.95919e-17
-2.2227e-09
2.95191e-07
-6.41264e-17
-1.70991e-09
2.95923e-07
-3.60596e-17
-1.21174e-09
2.85647e-07
-1.16315e-17
-7.55082e-10
2.61322e-07
1.91651e-17
-3.73013e-10
2.19073e-07
-2.00203e-17
-1.05191e-10
1.54257e-07
-8.27181e-18
6.08878e-08
6.35301e-18
1.26912e-11
-6.98457e-09
7.54744e-16
1.91235e-11
-2.11313e-08
-5.15267e-15
4.71016e-10
-3.58069e-08
-4.72628e-15
4.24636e-10
-4.96245e-08
-1.17742e-14
7.15424e-10
-6.43702e-08
-1.86735e-14
1.64509e-09
-8.35804e-08
-6.63126e-15
1.79565e-09
-7.63043e-08
-6.82422e-15
2.05262e-09
-8.10293e-08
-4.24744e-15
2.34026e-09
-9.234e-08
-2.40129e-15
2.49856e-09
-1.00663e-07
-2.12522e-15
2.52064e-09
-1.04416e-07
-2.10019e-15
2.54224e-09
-1.04409e-07
-2.11812e-15
2.6463e-09
-1.03973e-07
-2.07632e-15
2.77256e-09
-1.05512e-07
-2.09882e-15
2.84773e-09
-1.09249e-07
-2.11039e-15
2.8484e-09
-1.14434e-07
-2.19781e-15
2.77654e-09
-1.20317e-07
-1.89619e-15
2.64304e-09
-1.26317e-07
-2.10248e-15
2.46019e-09
-1.32039e-07
-2.02416e-15
2.23854e-09
-1.37235e-07
-2.08325e-15
1.98558e-09
-1.41767e-07
-1.98673e-15
1.70587e-09
-1.4557e-07
-2.00528e-15
1.40175e-09
-1.48576e-07
-1.94764e-15
1.0741e-09
-1.50768e-07
-1.94223e-15
7.23198e-10
-1.52093e-07
-1.87887e-15
3.49242e-10
-1.52516e-07
-1.851e-15
-4.71586e-11
-1.51982e-07
-1.79152e-15
-4.64651e-10
-1.50416e-07
-1.75191e-15
-9.01068e-10
-1.47777e-07
-1.70938e-15
-1.35317e-09
-1.43964e-07
-1.6988e-15
-1.81673e-09
-1.3892e-07
-1.50167e-15
-2.28654e-09
-1.32567e-07
-1.46049e-15
-2.75649e-09
-1.2483e-07
-1.39825e-15
-3.21975e-09
-1.15642e-07
-1.33084e-15
-3.66913e-09
-1.04939e-07
-1.25717e-15
-4.09753e-09
-9.2672e-08
-1.17686e-15
-4.49863e-09
-7.87913e-08
-1.08944e-15
-4.86775e-09
-6.32664e-08
-9.97242e-16
-5.20236e-09
-4.60734e-08
-9.0327e-16
-5.50001e-09
-2.71918e-08
-8.0197e-16
-5.75691e-09
-6.63741e-09
-6.94131e-16
-5.94487e-09
1.5609e-08
-5.87406e-16
-6.03664e-09
3.94553e-08
-4.90778e-16
-6.04085e-09
6.46613e-08
-4.07106e-16
-5.96725e-09
9.09728e-08
-3.38311e-16
-5.8239e-09
1.18153e-07
-2.80844e-16
-5.61473e-09
1.4575e-07
-2.10814e-16
-5.34105e-09
1.73379e-07
-2.00564e-16
-5.004e-09
2.00408e-07
-2.06975e-16
-4.60566e-09
2.26131e-07
-1.61381e-16
-4.14989e-09
2.49711e-07
-1.24054e-16
-3.64352e-09
2.69919e-07
-7.23319e-17
-3.09652e-09
2.85439e-07
-1.01157e-16
-2.52282e-09
2.94618e-07
-5.50477e-17
-1.9412e-09
2.95342e-07
-1.69096e-17
-1.37595e-09
2.85081e-07
1.64108e-17
-8.57517e-10
2.60804e-07
5.45668e-17
-4.23509e-10
2.18639e-07
1.03492e-17
-1.19256e-10
1.53953e-07
2.10529e-17
6.07685e-08
3.30922e-17
1.29501e-11
-6.99751e-09
1.05351e-15
3.30939e-11
-2.11515e-08
-1.56878e-15
5.61229e-10
-3.63351e-08
-3.22943e-15
3.94522e-10
-4.94578e-08
-1.2838e-14
7.55444e-10
-6.47311e-08
-1.67833e-14
1.70466e-09
-8.45296e-08
-2.20384e-15
1.85124e-09
-7.64509e-08
-8.06563e-15
2.08951e-09
-8.12676e-08
-5.3452e-15
2.36333e-09
-9.26139e-08
-4.03967e-15
2.51253e-09
-1.00812e-07
-3.65279e-15
2.53369e-09
-1.04437e-07
-3.46727e-15
2.55559e-09
-1.04431e-07
-3.09278e-15
2.65097e-09
-1.04068e-07
-2.81812e-15
2.76375e-09
-1.05625e-07
-2.59111e-15
2.82731e-09
-1.09312e-07
-2.47758e-15
2.82e-09
-1.14426e-07
-2.46331e-15
2.74295e-09
-1.2024e-07
-2.11594e-15
2.60572e-09
-1.2618e-07
-2.27955e-15
2.41927e-09
-1.31852e-07
-2.16392e-15
2.19309e-09
-1.37008e-07
-2.22528e-15
1.93389e-09
-1.41508e-07
-2.10933e-15
1.64572e-09
-1.45282e-07
-2.10667e-15
1.33063e-09
-1.48261e-07
-2.03321e-15
9.89344e-10
-1.50427e-07
-2.00978e-15
6.22099e-10
-1.51726e-07
-1.93475e-15
2.29131e-10
-1.52123e-07
-1.8969e-15
-1.88851e-10
-1.51564e-07
-1.8308e-15
-6.30345e-10
-1.49974e-07
-1.78718e-15
-1.093e-09
-1.47314e-07
-1.74222e-15
-1.57336e-09
-1.43484e-07
-1.73166e-15
-2.06699e-09
-1.38426e-07
-1.52388e-15
-2.5685e-09
-1.32066e-07
-1.4797e-15
-3.07163e-09
-1.24327e-07
-1.41502e-15
-3.56948e-09
-1.15144e-07
-1.34626e-15
-4.05481e-09
-1.04454e-07
-1.27218e-15
-4.52051e-09
-9.22063e-08
-1.19232e-15
-4.96011e-09
-7.83516e-08
-1.10593e-15
-5.36829e-09
-6.28582e-08
-1.01546e-15
-5.74105e-09
-4.57006e-08
-9.24025e-16
-6.07342e-09
-2.68595e-08
-8.25702e-16
-6.35805e-09
-6.3527e-09
-7.21138e-16
-6.57039e-09
1.58213e-08
-6.17435e-16
-6.68649e-09
3.95715e-08
-5.22217e-16
-6.70854e-09
6.46834e-08
-4.38104e-16
-6.64223e-09
9.09065e-08
-3.67294e-16
-6.49423e-09
1.18005e-07
-3.06447e-16
-6.26879e-09
1.45525e-07
-2.32648e-16
-5.96817e-09
1.73078e-07
-2.26336e-16
-5.59454e-09
2.00035e-07
-2.3642e-16
-5.15099e-09
2.25688e-07
-1.87069e-16
-4.64236e-09
2.49203e-07
-1.46186e-16
-4.07664e-09
2.69353e-07
-8.83934e-17
-3.46519e-09
2.84828e-07
-1.19385e-16
-2.82368e-09
2.93976e-07
-6.529e-17
-2.17313e-09
2.94691e-07
-1.93293e-17
-1.54067e-09
2.84449e-07
2.15635e-17
-9.60321e-10
2.60223e-07
6.72271e-17
-4.74239e-10
2.18153e-07
2.00507e-17
-1.33423e-10
1.53612e-07
3.30028e-17
6.06351e-08
4.56801e-17
1.30825e-11
-7.0106e-09
1.03952e-16
4.9714e-11
-2.11881e-08
-3.91927e-15
5.96511e-10
-3.68819e-08
-4.82606e-15
2.98425e-10
-4.91597e-08
-1.54532e-14
7.5401e-10
-6.51866e-08
-1.669e-14
1.72276e-09
-8.54983e-08
1.71235e-15
1.9011e-09
-7.66292e-08
-7.74536e-15
2.12447e-09
-8.1491e-08
-6.43536e-15
2.38144e-09
-9.28708e-08
-5.9371e-15
2.51593e-09
-1.00947e-07
-5.42297e-15
2.52955e-09
-1.04451e-07
-5.01097e-15
2.5454e-09
-1.04446e-07
-4.30952e-15
2.62791e-09
-1.04151e-07
-3.63412e-15
2.72479e-09
-1.05722e-07
-3.15957e-15
2.77541e-09
-1.09363e-07
-2.8958e-15
2.75938e-09
-1.1441e-07
-2.7957e-15
2.6769e-09
-1.20158e-07
-2.36223e-15
2.53614e-09
-1.26039e-07
-2.48382e-15
2.34666e-09
-1.31663e-07
-2.34824e-15
2.11676e-09
-1.36778e-07
-2.36176e-15
1.85226e-09
-1.41243e-07
-2.21768e-15
1.55655e-09
-1.44986e-07
-2.19896e-15
1.23129e-09
-1.47935e-07
-2.11757e-15
8.76967e-10
-1.50073e-07
-2.08148e-15
4.93713e-10
-1.51343e-07
-1.9973e-15
8.1775e-11
-1.51711e-07
-1.94954e-15
-3.58039e-10
-1.51124e-07
-1.87571e-15
-8.24054e-10
-1.49508e-07
-1.82636e-15
-1.31369e-09
-1.46824e-07
-1.77734e-15
-1.82323e-09
-1.42974e-07
-1.7649e-15
-2.34794e-09
-1.37901e-07
-1.54771e-15
-2.88217e-09
-1.31532e-07
-1.49916e-15
-3.41939e-09
-1.2379e-07
-1.43188e-15
-3.95246e-09
-1.14611e-07
-1.36177e-15
-4.47397e-09
-1.03932e-07
-1.28725e-15
-4.97652e-09
-9.17037e-08
-1.20781e-15
-5.45322e-09
-7.78749e-08
-1.12236e-15
-5.89795e-09
-6.24135e-08
-1.03349e-15
-6.30518e-09
-4.52933e-08
-9.44343e-16
-6.66794e-09
-2.64967e-08
-8.48543e-16
-6.97656e-09
-6.044e-09
-7.46531e-16
-7.20929e-09
1.60541e-08
-6.45058e-16
-7.34484e-09
3.97071e-08
-5.50891e-16
-7.38088e-09
6.47195e-08
-4.6639e-16
-7.31964e-09
9.08452e-08
-3.93843e-16
-7.166e-09
1.17852e-07
-3.30022e-16
-6.92398e-09
1.45283e-07
-2.5349e-16
-6.59638e-09
1.72751e-07
-2.53067e-16
-6.18618e-09
1.99624e-07
-2.6849e-16
-5.69741e-09
2.25199e-07
-2.16853e-16
-5.13587e-09
2.48641e-07
-1.74154e-16
-4.51071e-09
2.68728e-07
-1.12457e-16
-3.8347e-09
2.84152e-07
-1.48182e-16
-3.12526e-09
2.93267e-07
-8.89101e-17
-2.40566e-09
2.93972e-07
-3.78965e-17
-1.70586e-09
2.83749e-07
8.45838e-18
-1.06347e-09
2.59581e-07
6.07091e-17
-5.2519e-10
2.17615e-07
1.19337e-17
-1.47688e-10
1.53235e-07
2.92724e-17
6.04874e-08
4.51456e-17
1.31379e-11
-7.02373e-09
8.6963e-16
6.66082e-11
-2.12416e-08
-5.68819e-16
5.63423e-10
-3.73787e-08
-3.00824e-15
1.46252e-10
-4.87425e-08
-1.93975e-14
7.01556e-10
-6.57419e-08
-1.42119e-14
1.68812e-09
-8.64849e-08
4.62373e-15
1.92852e-09
-7.68696e-08
-8.98846e-15
2.14314e-09
-8.17056e-08
-9.12799e-15
2.38257e-09
-9.31103e-08
-8.17545e-15
2.49896e-09
-1.01063e-07
-7.44963e-15
2.50124e-09
-1.04453e-07
-6.73689e-15
2.50752e-09
-1.04453e-07
-5.61239e-15
2.57537e-09
-1.04219e-07
-4.63634e-15
2.65584e-09
-1.05803e-07
-3.85221e-15
2.69356e-09
-1.09401e-07
-3.33547e-15
2.66901e-09
-1.14386e-07
-3.15677e-15
2.58141e-09
-1.2007e-07
-2.60734e-15
2.43752e-09
-1.25895e-07
-2.68584e-15
2.24551e-09
-1.31471e-07
-2.5006e-15
2.01244e-09
-1.36545e-07
-2.50321e-15
1.74319e-09
-1.40974e-07
-2.33788e-15
1.44044e-09
-1.44684e-07
-2.29706e-15
1.10538e-09
-1.476e-07
-2.19889e-15
7.3819e-10
-1.49706e-07
-2.14607e-15
3.38876e-10
-1.50944e-07
-2.05074e-15
-9.2318e-11
-1.5128e-07
-1.99357e-15
-5.54474e-10
-1.50662e-07
-1.91336e-15
-1.04571e-09
-1.49017e-07
-1.85975e-15
-1.56318e-09
-1.46307e-07
-1.80814e-15
-2.10283e-09
-1.42434e-07
-1.79558e-15
-2.65958e-09
-1.37345e-07
-1.57058e-15
-3.2274e-09
-1.30964e-07
-1.51786e-15
-3.7994e-09
-1.23218e-07
-1.44844e-15
-4.36811e-09
-1.14042e-07
-1.37721e-15
-4.92574e-09
-1.03375e-07
-1.30233e-15
-5.46447e-09
-9.1165e-08
-1.22323e-15
-5.9768e-09
-7.73626e-08
-1.1386e-15
-6.45571e-09
-6.19346e-08
-1.05115e-15
-6.89424e-09
-4.48548e-08
-9.6404e-16
-7.28383e-09
-2.61071e-08
-8.7039e-16
-7.61331e-09
-5.71444e-09
-7.70416e-16
-7.86305e-09
1.63038e-08
-6.70623e-16
-8.01382e-09
3.9858e-08
-5.77211e-16
-8.06013e-09
6.47658e-08
-4.92275e-16
-8.0014e-09
9.07865e-08
-4.18128e-16
-7.84063e-09
1.17691e-07
-3.517e-16
-7.58126e-09
1.45023e-07
-2.72745e-16
-7.22628e-09
1.72396e-07
-2.78168e-16
-6.77929e-09
1.99178e-07
-2.99062e-16
-6.24512e-09
2.24665e-07
-2.45659e-16
-5.63051e-09
2.48027e-07
-2.02192e-16
-4.94577e-09
2.68043e-07
-1.38271e-16
-4.20505e-09
2.83411e-07
-1.80993e-16
-3.42755e-09
2.92489e-07
-1.19227e-16
-2.63876e-09
2.93183e-07
-6.60548e-17
-1.87149e-09
2.82982e-07
-1.68089e-17
-1.16694e-09
2.58877e-07
4.04741e-17
-5.76345e-10
2.17024e-07
-1.01006e-17
-1.62042e-10
1.5282e-07
1.273e-17
6.03254e-08
3.29966e-17
1.31662e-11
-7.0369e-09
1.67866e-16
8.04894e-11
-2.13089e-08
-3.16395e-15
4.61338e-10
-3.77596e-08
-5.54195e-15
-3.88983e-11
-4.82423e-08
-2.21296e-14
5.96534e-10
-6.63774e-08
-1.28138e-14
1.60076e-09
-8.74891e-08
3.49629e-15
1.92682e-09
-7.71956e-08
-8.75489e-15
2.13803e-09
-8.19168e-08
-9.94165e-15
2.35867e-09
-9.33309e-08
-1.01334e-14
2.4537e-09
-1.01158e-07
-9.42024e-15
2.44171e-09
-1.04441e-07
-8.36552e-15
2.43637e-09
-1.04447e-07
-6.89032e-15
2.48938e-09
-1.04272e-07
-5.52467e-15
2.55452e-09
-1.05868e-07
-4.44585e-15
2.58089e-09
-1.09427e-07
-3.76786e-15
2.54932e-09
-1.14354e-07
-3.48186e-15
2.45796e-09
-1.19979e-07
-2.85172e-15
2.31208e-09
-1.25749e-07
-2.8902e-15
2.11845e-09
-1.31277e-07
-2.66978e-15
1.88294e-09
-1.3631e-07
-2.63198e-15
1.60942e-09
-1.40701e-07
-2.44036e-15
1.29989e-09
-1.44374e-07
-2.38297e-15
9.55026e-10
-1.47256e-07
-2.27353e-15
5.74741e-10
-1.49325e-07
-2.20917e-15
1.58906e-10
-1.50528e-07
-2.10528e-15
-2.92209e-10
-1.50829e-07
-2.04062e-15
-7.77538e-10
-1.50177e-07
-1.95397e-15
-1.29496e-09
-1.485e-07
-1.89509e-15
-1.84128e-09
-1.45761e-07
-1.83938e-15
-2.41206e-09
-1.41864e-07
-1.82438e-15
-3.0018e-09
-1.36755e-07
-1.59234e-15
-3.60402e-09
-1.30362e-07
-1.53624e-15
-4.21138e-09
-1.2261e-07
-1.46499e-15
-4.81595e-09
-1.13438e-07
-1.39272e-15
-5.40946e-09
-1.02781e-07
-1.31745e-15
-5.98355e-09
-9.05909e-08
-1.23857e-15
-6.53002e-09
-7.68161e-08
-1.15461e-15
-7.04089e-09
-6.14237e-08
-1.06836e-15
-7.50794e-09
-4.43877e-08
-9.82997e-16
-7.92136e-09
-2.56937e-08
-8.91163e-16
-8.26898e-09
-5.36673e-09
-7.92846e-16
-8.53276e-09
1.65676e-08
-6.94341e-16
-8.69499e-09
4.00203e-08
-6.01463e-16
-8.74805e-09
6.4819e-08
-5.16025e-16
-8.68913e-09
9.07276e-08
-4.40327e-16
-8.51941e-09
1.17522e-07
-3.71487e-16
-8.24155e-09
1.44745e-07
-2.90067e-16
-7.85849e-09
1.72013e-07
-3.0004e-16
-7.37424e-09
1.98693e-07
-3.2573e-16
-6.79434e-09
2.24085e-07
-2.70283e-16
-6.1264e-09
2.47359e-07
-2.26259e-16
-5.38185e-09
2.67298e-07
-1.60832e-16
-4.57625e-09
2.82606e-07
-2.11838e-16