/*--------------------------------*- C++ -*----------------------------------*\
| =========                 |                                                 |
| \\      /  F ield         | OpenFOAM: The Open Source CFD Toolbox           |
|  \\    /   O peration     | Version:  v2012                                 |
|   \\  /    A nd           | Website:  www.openfoam.com                      |
|    \\/     M anipulation  |                                                 |
\*---------------------------------------------------------------------------*/
FoamFile
{
    version     2.0;
    format      ascii;
    class       volVectorField;
    location    "0.95";
    object      U;
}
// * * * * * * * * * * * * * * * * * * * * * * * * * * * * * * * * * * * * * //

dimensions      [0 1 -1 0 0 0 0];


internalField   nonuniform List<vector> 
20000
(
(-0.0184573 -43.7326 0.000161068)
(0.0530758 -42.7703 -0.000463322)
(-0.0586521 -40.5858 0.000511536)
(-0.0626927 -38.5542 0.000547005)
(-0.0351574 -36.0126 0.000306933)
(0.145044 -34.5061 -0.00126566)
(0.261452 -26.818 -0.00227574)
(0.25324 -23.6193 -0.00220211)
(0.24292 -22.6723 -0.00211758)
(0.23507 -21.3 -0.00205026)
(0.230707 -19.2497 -0.00201203)
(0.216242 -16.7268 -0.00188616)
(0.206615 -14.4548 -0.00180116)
(0.193761 -12.8889 -0.00169054)
(0.182423 -11.8677 -0.00159222)
(0.167456 -11.1175 -0.00146172)
(0.152499 -10.4831 -0.00133119)
(0.137346 -9.89179 -0.00119893)
(0.122562 -9.3127 -0.0010699)
(0.10811 -8.73667 -0.000943765)
(0.0940559 -8.16429 -0.0008211)
(0.0803919 -7.59937 -0.000701838)
(0.0671183 -7.046 -0.000585985)
(0.0542351 -6.50739 -0.000473537)
(0.0417491 -5.98562 -0.000364556)
(0.0296788 -5.48187 -0.000259201)
(0.0180555 -4.99659 -0.000157747)
(0.00692583 -4.52986 -6.05996e-05)
(-0.00364831 -4.08148 3.1701e-05)
(-0.013589 -3.65116 0.000118476)
(-0.0228021 -3.23861 0.000198903)
(-0.0311772 -2.84354 0.000272017)
(-0.0385861 -2.46576 0.000336704)
(-0.0448811 -2.10513 0.000391671)
(-0.0498909 -1.7616 0.000435426)
(-0.0534103 -1.43518 0.00046618)
(-0.0551945 -1.12595 0.000481796)
(-0.0548893 -0.83409 0.000479197)
(-0.0521267 -0.559803 0.000455151)
(-0.0456297 -0.303904 0.00039874)
(-0.036743 -0.0666699 0.000321134)
(-0.0128693 0.150708 0.000112181)
(-0.00973815 0.347408 8.48107e-05)
(-0.00739838 0.525579 6.46009e-05)
(-0.00649813 0.684097 5.67254e-05)
(-0.00587991 0.82313 5.13359e-05)
(-0.00536828 0.941923 4.68693e-05)
(-0.00488132 1.0398 4.26186e-05)
(-0.0043963 1.116 3.83847e-05)
(-0.00390452 1.16967 3.4092e-05)
(-0.00340576 1.19984 2.97383e-05)
(-0.00290382 1.20537 2.53569e-05)
(-0.00240551 1.18497 2.1007e-05)
(-0.00191985 1.13715 1.67674e-05)
(-0.00145782 1.06015 1.27338e-05)
(-0.00103285 0.951977 9.02333e-06)
(-0.000659312 0.81025 5.76153e-06)
(-0.000354727 0.632163 3.10107e-06)
(-0.00013282 0.414251 1.1625e-06)
(-9.55035e-06 0.152267 1.00339e-07)
(-0.0243349 -43.7879 0.000212375)
(0.0824287 -42.7693 -0.000719476)
(-0.0946149 -40.3153 0.000825329)
(-0.067045 -38.539 0.000585063)
(-0.0566759 -36.2848 0.000494747)
(0.196769 -34.9977 -0.00171705)
(0.305134 -27.0451 -0.00265445)
(0.29359 -23.6902 -0.00255069)
(0.293586 -22.7368 -0.0025587)
(0.293772 -21.3584 -0.00256193)
(0.278201 -19.291 -0.00242593)
(0.251703 -16.7503 -0.00219317)
(0.234775 -14.4727 -0.0020461)
(0.223146 -12.9011 -0.00194679)
(0.207889 -11.8716 -0.0018145)
(0.188891 -11.1144 -0.00164882)
(0.168976 -10.4766 -0.00147501)
(0.149668 -9.88316 -0.00130649)
(0.131416 -9.30283 -0.00114719)
(0.114329 -8.72596 -0.000998043)
(0.0982974 -8.15302 -0.000858118)
(0.0831875 -7.58773 -0.000726235)
(0.0688566 -7.03416 -0.000601152)
(0.0551973 -6.49547 -0.000481931)
(0.0421334 -5.97376 -0.000367907)
(0.0296254 -5.47018 -0.000258734)
(0.0176641 -4.98519 -0.000154333)
(0.00626874 -4.51886 -5.487e-05)
(-0.00451785 -4.071 3.92804e-05)
(-0.0146311 -3.6413 0.000127555)
(-0.0239867 -3.22948 0.00020922)
(-0.0324822 -2.83526 0.000283378)
(-0.0399968 -2.45843 0.000348978)
(-0.0463901 -2.09886 0.000404793)
(-0.0515007 -1.7565 0.000449416)
(-0.0551373 -1.43137 0.000481177)
(-0.0570822 -1.12359 0.000498176)
(-0.0570268 -0.833363 0.000497726)
(-0.0547431 -0.561011 0.000477812)
(-0.0493067 -0.307256 0.000430463)
(-0.0426937 -0.072887 0.000372817)
(-0.0307722 0.144549 0.000268758)
(-0.0258683 0.3453 0.000225935)
(-0.0216278 0.524645 0.000188873)
(-0.0193586 0.683684 0.000169013)
(-0.0176135 0.822864 0.00015378)
(-0.0161055 0.941698 0.000140613)
(-0.0146537 1.03958 0.00012794)
(-0.0132019 1.11577 0.000115268)
(-0.0117277 1.16943 0.000102399)
(-0.0102314 1.19958 8.9338e-05)
(-0.00872504 1.20511 7.61887e-05)
(-0.00722921 1.18472 6.3131e-05)
(-0.00577115 1.1369 5.04024e-05)
(-0.00438374 1.05993 3.82899e-05)
(-0.00310698 0.951782 2.71426e-05)
(-0.00198358 0.810093 1.73332e-05)
(-0.00106551 0.63205 9.31491e-06)
(-0.000393918 0.414184 3.4498e-06)
(-2.36022e-05 0.152242 2.65763e-07)
(-0.0251507 -43.8377 0.000219498)
(0.0812756 -42.7676 -0.000709407)
(-0.0946063 -40.2086 0.000825291)
(0.0150604 -38.5857 -0.00013148)
(-0.0285365 -36.4196 0.000249105)
(0.234299 -35.2755 -0.00204459)
(0.319403 -27.1533 -0.00277715)
(0.334937 -23.7525 -0.00291011)
(0.341287 -22.7889 -0.0029748)
(0.337086 -21.3799 -0.0029401)
(0.302829 -19.2789 -0.00264162)
(0.263591 -16.7409 -0.00229724)
(0.241363 -14.4805 -0.00210473)
(0.234037 -12.9079 -0.00204217)
(0.220599 -11.8711 -0.00192547)
(0.202918 -11.1094 -0.00177125)
(0.18235 -10.4693 -0.00159177)
(0.161525 -9.87526 -0.00141001)
(0.141317 -9.29483 -0.00123363)
(0.122287 -8.71807 -0.00106753)
(0.104486 -8.14523 -0.000912162)
(0.0878568 -7.58 -0.00076701)
(0.0722498 -7.02641 -0.000630785)
(0.0575317 -6.48769 -0.000502318)
(0.043589 -5.96594 -0.00038062)
(0.030348 -5.46234 -0.000265046)
(0.0177696 -4.97739 -0.000155256)
(0.00584949 -4.51117 -5.121e-05)
(-0.00538832 -4.06349 4.68812e-05)
(-0.0158939 -3.63406 0.000138583)
(-0.0255948 -3.22261 0.000223263)
(-0.034399 -2.82886 0.000300118)
(-0.0421961 -2.45261 0.000368184)
(-0.0488575 -2.09374 0.00042634)
(-0.0542378 -1.75221 0.000473317)
(-0.0581695 -1.42803 0.000507654)
(-0.0604776 -1.12134 0.000527821)
(-0.0609297 -0.832353 0.000531795)
(-0.0594529 -0.561404 0.000518925)
(-0.0555612 -0.308983 0.000485048)
(-0.0510479 -0.0757675 0.000445709)
(-0.0447602 0.142073 0.000390818)
(-0.0400114 0.343597 0.000349354)
(-0.0352094 0.523576 0.000307427)
(-0.0319848 0.683052 0.000279246)
(-0.0292673 0.822391 0.000255525)
(-0.0268187 0.941267 0.000234147)
(-0.0244253 1.03914 0.000213255)
(-0.0220169 1.1153 0.000192232)
(-0.0195647 1.16893 0.000170826)
(-0.0170725 1.19907 0.000149073)
(-0.0145621 1.20458 0.000127159)
(-0.0120685 1.18418 0.00010539)
(-0.00963719 1.13638 8.41656e-05)
(-0.00732298 1.05944 6.39619e-05)
(-0.00519207 0.951337 4.53571e-05)
(-0.00331491 0.809712 2.89661e-05)
(-0.00177746 0.631752 1.55391e-05)
(-0.000648917 0.413987 5.68473e-06)
(-3.25077e-05 0.152165 3.88872e-07)
(-0.0306001 -43.8856 0.000267066)
(0.0950131 -42.7624 -0.000829303)
(-0.110983 -40.0997 0.000968235)
(0.0701024 -38.6626 -0.000611875)
(-0.040371 -36.6094 0.000352309)
(0.278333 -35.6633 -0.00242891)
(0.327271 -27.3212 -0.00284484)
(0.344181 -23.8616 -0.00298961)
(0.357641 -22.8703 -0.0031172)
(0.352899 -21.4174 -0.00307796)
(0.317619 -19.2817 -0.00277071)
(0.273843 -16.7402 -0.00238813)
(0.251885 -14.4953 -0.00219674)
(0.244911 -12.9258 -0.00213712)
(0.234381 -11.8791 -0.00204574)
(0.217538 -11.1083 -0.00189886)
(0.196564 -10.4625 -0.00171583)
(0.174225 -9.86556 -0.00152087)
(0.152031 -9.28394 -0.00132716)
(0.13093 -8.70688 -0.00114298)
(0.111199 -8.13414 -0.000970766)
(0.0928764 -7.56915 -0.000810837)
(0.075828 -7.01586 -0.000662031)
(0.0598989 -6.47743 -0.000522994)
(0.0449392 -5.95597 -0.000392419)
(0.0308387 -5.45267 -0.000269343)
(0.0175264 -4.96805 -0.000153146)
(0.00497201 -4.5022 -4.35638e-05)
(-0.00682065 -4.05494 5.93707e-05)
(-0.0178176 -3.626 0.000155362)
(-0.0279596 -3.21511 0.000243893)
(-0.0371661 -2.82198 0.000324259)
(-0.0453384 -2.44644 0.000395601)
(-0.0523615 -2.08834 0.000456916)
(-0.0581087 -1.74767 0.000507096)
(-0.0624403 -1.42443 0.000544924)
(-0.0652263 -1.11876 0.000569263)
(-0.0663132 -0.830831 0.000578777)
(-0.0657421 -0.560946 0.000573815)
(-0.0633358 -0.309354 0.000552915)
(-0.0605368 -0.0763723 0.000528503)
(-0.0570876 0.141153 0.000498378)
(-0.0529762 0.342294 0.000462507)
(-0.0481744 0.522513 0.000420603)
(-0.0443217 0.682285 0.000386952)
(-0.0408005 0.821745 0.000356215)
(-0.0374848 0.940645 0.000327269)
(-0.0341838 1.03849 0.000298455)
(-0.0308344 1.11461 0.000269218)
(-0.0274113 1.16819 0.000239338)
(-0.0239265 1.19829 0.000208919)
(-0.020413 1.20379 0.000178249)
(-0.0169214 1.18339 0.00014777)
(-0.0135161 1.13561 0.000118042)
(-0.0102738 1.05871 8.97355e-05)
(-0.00728666 0.95068 6.36552e-05)
(-0.00465268 0.809154 4.06558e-05)
(-0.00249182 0.631319 2.17841e-05)
(-0.000902109 0.413703 7.90272e-06)
(-4.07151e-05 0.152057 4.98897e-07)
(-0.029888 -43.9488 0.000260857)
(0.099114 -42.7578 -0.000865097)
(-0.113397 -40.0682 0.00098937)
(0.155389 -38.7581 -0.00135626)
(-0.0449066 -36.7641 0.00039177)
(0.328435 -36.0262 -0.00286617)
(0.340554 -27.4446 -0.00296047)
(0.361051 -23.9504 -0.00313663)
(0.372287 -22.941 -0.00324501)
(0.3665 -21.4435 -0.00319666)
(0.328329 -19.2699 -0.0028643)
(0.283384 -16.7308 -0.00247151)
(0.260752 -14.5076 -0.00227441)
(0.25374 -12.9418 -0.00221427)
(0.24366 -11.8871 -0.00212675)
(0.227559 -11.1075 -0.00198632)
(0.206746 -10.4559 -0.0018047)
(0.183926 -9.85583 -0.00160555)
(0.160723 -9.27283 -0.00140304)
(0.138321 -8.69539 -0.00120751)
(0.117182 -8.12275 -0.001023)
(0.0974765 -7.55803 -0.000851002)
(0.0791388 -7.00505 -0.000690941)
(0.0620438 -6.46691 -0.000541726)
(0.0460453 -5.94573 -0.000402083)
(0.0310245 -5.44272 -0.000270973)
(0.0168962 -4.9584 -0.000147653)
(0.00361568 -4.4929 -3.17321e-05)
(-0.00882723 -4.04604 7.68784e-05)
(-0.0204107 -3.61757 0.000177989)
(-0.0310862 -3.20721 0.000271177)
(-0.0407842 -2.8147 0.000355833)
(-0.0494172 -2.43985 0.000431196)
(-0.0568844 -2.08254 0.000496386)
(-0.0630782 -1.74271 0.000550464)
(-0.0678865 -1.42039 0.000592451)
(-0.0712203 -1.11567 0.00062157)
(-0.0729928 -0.828711 0.000637064)
(-0.073312 -0.559722 0.000639872)
(-0.0721752 -0.308789 0.000630056)
(-0.0706574 -0.0759728 0.000616823)
(-0.068693 0.141047 0.000599672)
(-0.0652292 0.341467 0.000569463)
(-0.0606418 0.521612 0.000529433)
(-0.0563836 0.681481 0.000492253)
(-0.0522019 0.820977 0.000455753)
(-0.0480929 0.939855 0.000419884)
(-0.0439222 1.03764 0.000383479)
(-0.0396502 1.11369 0.000346189)
(-0.0352652 1.16721 0.000307914)
(-0.0307916 1.19726 0.000268863)
(-0.0262764 1.20273 0.00022945)
(-0.0217869 1.18233 0.000190259)
(-0.0174069 1.13458 0.000152022)
(-0.0132351 1.05774 0.000115601)
(-0.00938986 0.949805 8.20285e-05)
(-0.00599642 0.80841 5.23977e-05)
(-0.003209 0.630742 2.80539e-05)
(-0.00115521 0.413326 1.012e-05)
(-4.85331e-05 0.151916 6.05125e-07)
(-0.0249241 -44.0142 0.000217539)
(0.0916783 -42.7449 -0.000800208)
(-0.10259 -40.128 0.000895168)
(0.241681 -38.868 -0.00210948)
(-0.0568761 -36.9182 0.00049607)
(0.3789 -36.4172 -0.00330658)
(0.343718 -27.5646 -0.00298787)
(0.364545 -24.0528 -0.00316689)
(0.376351 -23.0227 -0.00328041)
(0.371826 -21.4789 -0.00324311)
(0.335617 -19.2688 -0.00292797)
(0.29358 -16.7287 -0.00256075)
(0.270907 -14.5228 -0.00236326)
(0.262983 -12.9607 -0.00229502)
(0.252507 -11.8975 -0.00220397)
(0.23619 -11.1086 -0.00206166)
(0.215097 -10.4502 -0.0018776)
(0.191681 -9.84604 -0.00167324)
(0.167602 -9.26102 -0.00146309)
(0.144128 -8.68284 -0.0012582)
(0.12183 -8.11014 -0.00106358)
(0.10096 -7.54568 -0.000881414)
(0.0815039 -6.99308 -0.000711596)
(0.0633641 -6.45534 -0.000553262)
(0.0464025 -5.93455 -0.000405211)
(0.030499 -5.43193 -0.000266397)
(0.0155626 -4.94801 -0.000136023)
(0.00154083 -4.48292 -1.36323e-05)
(-0.0115837 -4.03653 0.000100928)
(-0.0237964 -3.60857 0.000207531)
(-0.0350556 -3.1988 0.000305814)
(-0.0452991 -2.80694 0.000395232)
(-0.0544485 -2.43281 0.000475103)
(-0.062415 -2.07628 0.00054465)
(-0.0691073 -1.73729 0.000603079)
(-0.0744375 -1.41586 0.000649621)
(-0.0783487 -1.11205 0.000683778)
(-0.0808027 -0.825975 0.000705218)
(-0.0819352 -0.557776 0.000715123)
(-0.0818226 -0.307431 0.000714255)
(-0.0812142 -0.074866 0.00070896)
(-0.0800401 0.141545 0.000698719)
(-0.0770917 0.341105 0.000673011)
(-0.0727543 0.520932 0.000635166)
(-0.0682187 0.680701 0.000595574)
(-0.0634814 0.820125 0.000554225)
(-0.0586427 0.938918 0.000511989)
(-0.0536382 1.0366 0.000468307)
(-0.0484626 1.11256 0.00042313)
(-0.0431251 1.16599 0.000376541)
(-0.0376669 1.19598 0.000328897)
(-0.0321516 1.20141 0.000280753)
(-0.0266643 1.18101 0.000232851)
(-0.0213088 1.13329 0.000186099)
(-0.0162062 1.05652 0.000141552)
(-0.0115011 0.94871 0.000100472)
(-0.00734584 0.807478 6.41892e-05)
(-0.00392926 0.630018 3.43506e-05)
(-0.00140909 0.412854 1.23441e-05)
(-5.62241e-05 0.151741 7.10883e-07)
(-0.0111619 -44.0867 9.74298e-05)
(0.0690887 -42.7301 -0.00060306)
(-0.0658791 -40.309 0.000574923)
(0.325976 -38.9659 -0.0028453)
(-0.0637595 -37.0569 0.000555985)
(0.430375 -36.811 -0.00375576)
(0.354935 -27.6556 -0.00308582)
(0.373431 -24.1424 -0.0032446)
(0.38173 -23.0991 -0.00332743)
(0.376573 -21.5118 -0.00328458)
(0.340743 -19.267 -0.0029728)
(0.30074 -16.7267 -0.00262343)
(0.278372 -14.537 -0.00242861)
(0.269558 -12.978 -0.00235248)
(0.258233 -11.9071 -0.00225397)
(0.241537 -11.1093 -0.00210833)
(0.220187 -10.4443 -0.00192203)
(0.196452 -9.83608 -0.00171489)
(0.171887 -9.24891 -0.0015005)
(0.147761 -8.66983 -0.00128992)
(0.124683 -8.09696 -0.00108849)
(0.10296 -7.5327 -0.000898888)
(0.082625 -6.98043 -0.000721391)
(0.063611 -6.44308 -0.000555427)
(0.0458009 -5.92268 -0.00039997)
(0.0290851 -5.42046 -0.000254066)
(0.0133771 -4.93695 -0.000116957)
(-0.00137425 -4.47231 1.18021e-05)
(-0.0151872 -4.0264 0.000132371)
(-0.0280485 -3.599 0.000244636)
(-0.0399193 -3.18983 0.000348257)
(-0.050741 -2.79865 0.000442722)
(-0.0604412 -2.42525 0.0005274)
(-0.0689397 -2.06951 0.000601591)
(-0.0761583 -1.73136 0.000664614)
(-0.0820275 -1.4108 0.000715859)
(-0.0865127 -1.10787 0.000755025)
(-0.0896062 -0.822633 0.000782046)
(-0.0914442 -0.555169 0.000798108)
(-0.0921247 -0.305404 0.000804174)
(-0.0921394 -0.0732062 0.00080432)
(-0.0913815 0.142513 0.000797718)
(-0.0887866 0.341152 0.000775095)
(-0.0846453 0.520481 0.000738966)
(-0.0798888 0.679979 0.000697451)
(-0.0746621 0.819218 0.000651833)
(-0.0691421 0.937853 0.000603654)
(-0.0633343 1.03539 0.000552961)
(-0.057272 1.11121 0.000500045)
(-0.0509909 1.16453 0.000445219)
(-0.0445522 1.19444 0.000389017)
(-0.0380382 1.19982 0.000332155)
(-0.031553 1.17942 0.000275543)
(-0.0252212 1.13174 0.000220267)
(-0.0191866 1.05507 0.000167584)
(-0.0136198 0.947395 0.00011898)
(-0.00870066 0.806357 7.60278e-05)
(-0.00465272 0.629146 4.06753e-05)
(-0.0016643 0.412285 1.458e-05)
(-6.40756e-05 0.151532 8.1839e-07)
(0.0121785 -44.1628 -0.000106274)
(0.0280977 -42.7181 -0.000245318)
(0.000999002 -40.6317 -8.60097e-06)
(0.388357 -39.0332 -0.00338987)
(-0.064704 -37.1976 0.000564106)
(0.4743 -37.2186 -0.00413905)
(0.366384 -27.7305 -0.00318577)
(0.379435 -24.2312 -0.00329712)
(0.385264 -23.1771 -0.00335834)
(0.379472 -21.5479 -0.00330992)
(0.344389 -19.2702 -0.00300472)
(0.306488 -16.729 -0.00267379)
(0.284375 -14.5527 -0.00248119)
(0.274486 -12.9957 -0.00239556)
(0.262078 -11.917 -0.00228755)
(0.244712 -11.1103 -0.00213605)
(0.222933 -10.4386 -0.001946)
(0.198845 -9.8261 -0.00173578)
(0.173892 -9.23653 -0.001518)
(0.149295 -8.65638 -0.00130332)
(0.12566 -8.0832 -0.00109703)
(0.103309 -7.51904 -0.00090194)
(0.0822964 -6.96707 -0.000718532)
(0.062577 -6.43008 -0.000546411)
(0.0440496 -5.91008 -0.000384694)
(0.026617 -5.40827 -0.000232532)
(0.0102015 -4.92519 -8.92487e-05)
(-0.00524133 -4.46102 4.55455e-05)
(-0.0197246 -4.01563 0.000171965)
(-0.0332315 -3.58879 0.000289865)
(-0.0457209 -3.18025 0.000398886)
(-0.0571339 -2.78976 0.000498512)
(-0.0674 -2.41712 0.000588129)
(-0.0764439 -2.06218 0.000667082)
(-0.0841959 -1.72489 0.000734759)
(-0.0905985 -1.40519 0.00079066)
(-0.0956302 -1.10312 0.000834595)
(-0.0992986 -0.818708 0.000866634)
(-0.101724 -0.551971 0.000887825)
(-0.102997 -0.302818 0.000899069)
(-0.103419 -0.0711097 0.000902777)
(-0.102858 0.143852 0.0008979)
(-0.100464 0.341546 0.000877027)
(-0.0964275 0.520246 0.000841816)
(-0.0914569 0.679328 0.000798438)
(-0.085774 0.818273 0.000748841)
(-0.0796049 0.936671 0.000694998)
(-0.0730165 1.03401 0.000637493)
(-0.0660811 1.10965 0.000576957)
(-0.0588636 1.16284 0.000513959)
(-0.0514478 1.19264 0.000449226)
(-0.043936 1.19798 0.000383655)
(-0.0364527 1.17757 0.00031833)
(-0.0291436 1.12994 0.000254524)
(-0.0221756 1.05337 0.000193691)
(-0.0157455 0.945857 0.00013755)
(-0.0100606 0.805046 8.79113e-05)
(-0.00537938 0.628125 4.7028e-05)
(-0.00192105 0.411619 1.68292e-05)
(-7.21889e-05 0.151288 9.28515e-07)
(0.0456103 -44.2422 -0.000398056)
(-0.0301755 -42.7194 0.000263255)
(0.0980545 -41.0957 -0.000855523)
(0.410006 -39.0392 -0.00357898)
(-0.0556434 -37.35 0.000484996)
(0.503692 -37.6339 -0.00439548)
(0.384849 -27.7877 -0.00334698)
(0.388499 -24.3106 -0.00337643)
(0.390728 -23.2508 -0.00340616)
(0.382778 -21.5822 -0.00333886)
(0.347233 -19.2738 -0.00302965)
(0.310242 -16.7319 -0.00270674)
(0.287865 -14.5675 -0.00251182)
(0.276643 -13.0118 -0.00241446)
(0.263049 -11.9256 -0.00229604)
(0.244997 -11.1106 -0.00213855)
(0.222862 -10.4325 -0.00194539)
(0.198575 -9.81582 -0.00173343)
(0.173449 -9.22387 -0.00151414)
(0.148625 -8.64257 -0.00129747)
(0.124679 -8.069 -0.00108847)
(0.101928 -7.50487 -0.000889891)
(0.0804374 -6.95312 -0.000702313)
(0.0601774 -6.41645 -0.000525474)
(0.0410631 -5.89682 -0.000358635)
(0.023012 -5.39539 -0.000201076)
(0.00595965 -4.91274 -5.22339e-05)
(-0.0101271 -4.44904 8.81803e-05)
(-0.0252514 -4.00417 0.000220196)
(-0.0393882 -3.57792 0.000343594)
(-0.0524899 -3.17003 0.000457958)
(-0.064493 -2.78025 0.000562735)
(-0.0753253 -2.40838 0.000657294)
(-0.0849123 -2.05428 0.000740987)
(-0.0931879 -1.71784 0.000813235)
(-0.100101 -1.39902 0.000873592)
(-0.105635 -1.09782 0.000921913)
(-0.109802 -0.814231 0.000958303)
(-0.112699 -0.548242 0.000983607)
(-0.114394 -0.299759 0.000998552)
(-0.115059 -0.0686558 0.00100438)
(-0.114553 0.145492 0.000999985)
(-0.112225 0.342226 0.000979691)
(-0.108191 0.5202 0.000944506)
(-0.102982 0.678748 0.000899052)
(-0.0968501 0.817297 0.000845537)
(-0.0900482 0.935382 0.000786172)
(-0.0826932 1.03246 0.000721978)
(-0.0748941 1.10789 0.000653903)
(-0.0667454 1.16091 0.000582776)
(-0.0583545 1.1906 0.000509533)
(-0.0498453 1.19587 0.000435256)
(-0.0413632 1.17545 0.000361212)
(-0.0330758 1.12787 0.000288864)
(-0.0251728 1.05142 0.00021987)
(-0.0178778 0.944099 0.000156178)
(-0.0114254 0.803546 9.98372e-05)
(-0.00610918 0.626957 5.34081e-05)
(-0.00217942 0.410857 1.90928e-05)
(-8.06069e-05 0.15101 1.04162e-06)
(0.0864298 -44.3236 -0.000754315)
(-0.101145 -42.7443 0.000882634)
(0.216956 -41.6763 -0.00189317)
(0.373499 -38.9599 -0.00326057)
(-0.0364141 -37.5354 0.000317259)
(0.509082 -38.0598 -0.00444243)
(0.405666 -27.8394 -0.00352861)
(0.396411 -24.3854 -0.00344564)
(0.395931 -23.3221 -0.00345172)
(0.385217 -21.6158 -0.00336025)
(0.348834 -19.2783 -0.00304375)
(0.312076 -16.7358 -0.00272293)
(0.289104 -14.5818 -0.00252279)
(0.276375 -13.0268 -0.00241218)
(0.261567 -11.9334 -0.00228313)
(0.242814 -11.1104 -0.00211951)
(0.220364 -10.4261 -0.00192359)
(0.195963 -9.80533 -0.00171064)
(0.170796 -9.21099 -0.00149098)
(0.145908 -8.62848 -0.00127376)
(0.12183 -8.05443 -0.00106361)
(0.0988556 -7.49023 -0.00086308)
(0.0770504 -6.93863 -0.000672755)
(0.0563915 -6.40223 -0.000492437)
(0.0368074 -5.88291 -0.000321497)
(0.0182301 -5.38184 -0.000159346)
(0.000610253 -4.8996 -5.55135e-06)
(-0.0160705 -4.43636 0.000140047)
(-0.0318015 -3.99201 0.000277358)
(-0.0465456 -3.56635 0.000406056)
(-0.0602444 -3.15913 0.000525633)
(-0.0728265 -2.77009 0.000635463)
(-0.0842139 -2.39902 0.000734868)
(-0.0943295 -2.04576 0.000823174)
(-0.103106 -1.71021 0.000899796)
(-0.110495 -1.39229 0.0009643)
(-0.116476 -1.09198 0.00101653)
(-0.121061 -0.809236 0.00105656)
(-0.124319 -0.544037 0.00108502)
(-0.126294 -0.296293 0.00110243)
(-0.127073 -0.0658997 0.00110925)
(-0.126516 0.14738 0.00110442)
(-0.124139 0.343141 0.0010837)
(-0.120007 0.520314 0.00104766)
(-0.114517 0.67823 0.000999746)
(-0.107923 0.816292 0.000942206)
(-0.100491 0.933989 0.00087734)
(-0.092375 1.03075 0.000806507)
(-0.0837166 1.10593 0.000730932)
(-0.074639 1.15875 0.000651698)
(-0.0652737 1.1883 0.000569949)
(-0.0557665 1.19349 0.000486961)
(-0.0462845 1.17307 0.000404189)
(-0.0370173 1.12555 0.000323287)
(-0.0281779 1.04923 0.000246118)
(-0.0200163 0.942118 0.00017486)
(-0.0127948 0.801855 0.000111803)
(-0.00684197 0.625639 5.98143e-05)
(-0.0024394 0.409997 2.13704e-05)
(-8.93259e-05 0.150696 1.15769e-06)
(0.1304 -44.4063 -0.00113808)
(-0.176024 -42.8007 0.00153613)
(0.340967 -42.3167 -0.00297547)
(0.272315 -38.7772 -0.00237768)
(-0.00847828 -37.7702 7.36493e-05)
(0.484606 -38.4939 -0.00422875)
(0.428518 -27.8955 -0.00372792)
(0.403571 -24.454 -0.00350828)
(0.400793 -23.3889 -0.00349432)
(0.386377 -21.6463 -0.00337051)
(0.348569 -19.2816 -0.00304156)
(0.311277 -16.7389 -0.00271613)
(0.287422 -14.5943 -0.00250825)
(0.273112 -13.0397 -0.00238376)
(0.257207 -11.9396 -0.00224509)
(0.237892 -11.1093 -0.00207655)
(0.215307 -10.4192 -0.00187946)
(0.19098 -9.79452 -0.00166715)
(0.165969 -9.19785 -0.00144886)
(0.141211 -8.61411 -0.00123277)
(0.117186 -8.03953 -0.00102307)
(0.0941555 -7.47518 -0.00082206)
(0.0721823 -6.92366 -0.00063027)
(0.0512484 -6.38744 -0.000447551)
(0.0312953 -5.86837 -0.000273393)
(0.0122713 -5.36762 -0.000107343)
(-0.00585532 -4.88576 5.08738e-05)
(-0.0230848 -4.42296 0.000201262)
(-0.0393896 -3.97914 0.000343579)
(-0.0547163 -3.55408 0.000477363)
(-0.068993 -3.14754 0.000601984)
(-0.0821367 -2.75925 0.000716715)
(-0.0940604 -2.38901 0.000820802)
(-0.104681 -2.03662 0.000913515)
(-0.113927 -1.70198 0.000994234)
(-0.121746 -1.385 0.0010625)
(-0.128115 -1.0856 0.00111811)
(-0.133035 -0.803757 0.00116107)
(-0.136552 -0.539404 0.00119179)
(-0.138688 -0.292473 0.00121062)
(-0.139474 -0.0628836 0.00121751)
(-0.138783 0.149477 0.0012115)
(-0.136256 0.344244 0.00118947)
(-0.131931 0.520555 0.00115174)
(-0.126105 0.677759 0.00110091)
(-0.119024 0.815252 0.00103911)
(-0.110952 0.932491 0.00096867)
(-0.102073 1.02888 0.000891177)
(-0.0925549 1.10377 0.000808099)
(-0.0825479 1.15636 0.000720753)
(-0.072207 1.18575 0.000630489)
(-0.0617005 1.19086 0.000538777)
(-0.0512168 1.17042 0.000447261)
(-0.040968 1.12297 0.00035779)
(-0.0311905 1.04679 0.000272431)
(-0.0221607 0.939914 0.000193593)
(-0.0141684 0.799974 0.000123806)
(-0.00757757 0.624172 6.62451e-05)
(-0.00270091 0.40904 2.36614e-05)
(-9.83229e-05 0.150347 1.27653e-06)
(0.170457 -44.4895 -0.00148768)
(-0.242277 -42.8925 0.00211436)
(0.449195 -42.9405 -0.0039201)
(0.116404 -38.4912 -0.00101714)
(0.0239011 -38.0655 -0.00020867)
(0.429329 -38.9368 -0.00374628)
(0.448582 -27.9695 -0.0039028)
(0.406961 -24.5196 -0.00353798)
(0.40304 -23.4517 -0.00351411)
(0.384569 -21.6735 -0.00335487)
(0.345288 -19.2833 -0.00301307)
(0.307181 -16.7409 -0.00268054)
(0.282512 -14.6049 -0.00246552)
(0.266792 -13.0507 -0.00232865)
(0.250062 -11.9444 -0.00218275)
(0.230414 -11.1073 -0.0020113)
(0.207918 -10.4118 -0.00181497)
(0.18386 -9.78346 -0.00160501)
(0.159189 -9.18453 -0.00138968)
(0.134728 -8.59954 -0.00117619)
(0.110906 -8.02434 -0.000968267)
(0.0879548 -7.45977 -0.000767941)
(0.0659294 -6.90822 -0.000575697)
(0.0448169 -6.3721 -0.00039142)
(0.0245729 -5.85322 -0.000214724)
(0.00516348 -5.35273 -4.53114e-05)
(-0.0134227 -4.87121 0.000116916)
(-0.0311651 -4.40883 0.00027178)
(-0.0480159 -3.96552 0.000418863)
(-0.0639029 -3.54107 0.000557537)
(-0.0787371 -3.13523 0.000687025)
(-0.0924216 -2.74772 0.000806476)
(-0.104858 -2.37833 0.000915035)
(-0.115953 -2.02686 0.0010119)
(-0.12563 -1.69317 0.00109638)
(-0.13383 -1.37715 0.00116796)
(-0.140522 -1.07873 0.00122639)
(-0.145696 -0.797824 0.00127158)
(-0.149378 -0.534382 0.00130374)
(-0.151572 -0.288341 0.00132309)
(-0.152275 -0.0596415 0.00132925)
(-0.151375 0.151747 0.00132142)
(-0.148611 0.345497 0.00129733)
(-0.144004 0.520894 0.00125714)
(-0.137783 0.677317 0.00120286)
(-0.130179 0.814169 0.0011365)
(-0.12145 0.930885 0.00106032)
(-0.111799 1.02685 0.000976089)
(-0.101416 1.1014 0.000885463)
(-0.0904758 1.15374 0.000789973)
(-0.0791565 1.18295 0.00069117)
(-0.067648 1.18796 0.000590711)
(-0.0561603 1.1675 0.000490431)
(-0.0449278 1.12012 0.000392373)
(-0.0342103 1.04411 0.000298806)
(-0.0243106 0.937487 0.000212374)
(-0.0155461 0.797901 0.000135844)
(-0.0083158 0.622555 7.26988e-05)
(-0.00296383 0.407984 2.59647e-05)
(-0.000107569 0.149963 1.39781e-06)
(0.199558 -44.5729 -0.00174167)
(-0.287231 -43.0168 0.00250669)
(0.51948 -43.4653 -0.00453364)
(-0.0694192 -38.1214 0.000604534)
(0.0530222 -38.4167 -0.000462542)
(0.349507 -39.3876 -0.00304964)
(0.462193 -28.0713 -0.00402134)
(0.405405 -24.5831 -0.00352461)
(0.40123 -23.5097 -0.00349851)
(0.37855 -21.6962 -0.00330251)
(0.337927 -19.2825 -0.00294895)
(0.299015 -16.7409 -0.00260942)
(0.273844 -14.6133 -0.00238998)
(0.257104 -13.0596 -0.00224413)
(0.23999 -11.9478 -0.00209485)
(0.220372 -11.1045 -0.00192365)
(0.198281 -10.404 -0.00173085)
(0.174746 -9.77217 -0.00152545)
(0.150627 -9.17105 -0.00131495)
(0.126635 -8.58478 -0.00110555)
(0.103158 -8.00891 -0.000900641)
(0.0803992 -7.444 -0.000701995)
(0.0584118 -6.89233 -0.000510084)
(0.0371908 -6.35622 -0.000324862)
(0.0167094 -5.83745 -0.000146094)
(-0.00304535 -5.33716 2.63308e-05)
(-0.022061 -4.85592 0.000192306)
(-0.0402933 -4.39394 0.000351445)
(-0.057671 -3.95114 0.000503127)
(-0.0741006 -3.5273 0.000646536)
(-0.0894739 -3.12217 0.000780729)
(-0.103678 -2.73548 0.000904711)
(-0.116599 -2.36698 0.00101751)
(-0.128136 -2.01646 0.00111822)
(-0.138201 -1.68377 0.00120609)
(-0.146728 -1.36877 0.00128053)
(-0.153676 -1.07137 0.0013412)
(-0.159027 -0.791468 0.00138793)
(-0.162788 -0.529007 0.00142078)
(-0.164948 -0.283933 0.00143985)
(-0.165486 -0.0562024 0.00144458)
(-0.164309 0.154163 0.00143434)
(-0.161228 0.346864 0.00140747)
(-0.156258 0.521301 0.00136412)
(-0.149582 0.676883 0.00130587)
(-0.141414 0.813031 0.00123458)
(-0.132001 0.929165 0.00115244)
(-0.121563 1.02466 0.00106134)
(-0.110306 1.09883 0.000963082)
(-0.0984266 1.15088 0.000859394)
(-0.0861242 1.1799 0.000752009)
(-0.0736098 1.1848 0.000642771)
(-0.0611152 1.16432 0.0005337)
(-0.0488965 1.11702 0.000427033)
(-0.0372369 1.04118 0.000325242)
(-0.0264657 0.934838 0.0002312)
(-0.0169274 0.795637 0.000147914)
(-0.00905644 0.620788 7.91737e-05)
(-0.00322803 0.406831 2.82792e-05)
(-0.000117032 0.149543 1.52128e-06)
(0.210865 -44.6565 -0.00184036)
(-0.299862 -43.1649 0.00261694)
(0.534367 -43.8211 -0.00466374)
(-0.252349 -37.7049 0.00220103)
(0.068432 -38.8051 -0.000596786)
(0.257145 -39.8463 -0.00224358)
(0.464331 -28.2073 -0.00403978)
(0.397048 -24.6465 -0.00345199)
(0.393449 -23.563 -0.00343081)
(0.366947 -21.7142 -0.00320142)
(0.325484 -19.2789 -0.00284047)
(0.286238 -16.7392 -0.00249804)
(0.261191 -14.6198 -0.00227963)
(0.244065 -13.0667 -0.00213036)
(0.227154 -11.9501 -0.00198282)
(0.208018 -11.1012 -0.00181583)
(0.186686 -10.396 -0.00162965)
(0.163937 -9.76079 -0.00143111)
(0.140567 -9.15749 -0.00122714)
(0.117189 -8.5699 -0.0010231)
(0.0941647 -7.99323 -0.000822142)
(0.0716745 -7.42788 -0.000625845)
(0.049779 -6.87597 -0.000434738)
(0.0284861 -6.33977 -0.000248889)
(0.00779097 -5.82102 -6.82576e-05)
(-0.0122939 -5.32086 0.000107048)
(-0.0317292 -4.83987 0.000276685)
(-0.0504435 -4.37826 0.00044003)
(-0.0683399 -3.93596 0.000596239)
(-0.0853012 -3.51274 0.000744289)
(-0.101198 -3.10836 0.000883054)
(-0.1159 -2.72251 0.00101138)
(-0.129279 -2.35494 0.00112817)
(-0.14122 -2.00543 0.00123242)
(-0.151627 -1.67378 0.00132327)
(-0.160425 -1.35986 0.00140008)
(-0.167564 -1.06354 0.00146241)
(-0.173016 -0.784715 0.00151002)
(-0.176773 -0.523309 0.00154284)
(-0.178816 -0.279279 0.00156091)
(-0.179117 -0.0525925 0.00156357)
(-0.177598 0.156697 0.00155034)
(-0.174126 0.348316 0.00152007)
(-0.168718 0.521749 0.00147289)
(-0.161525 0.676438 0.00141013)
(-0.152747 0.811824 0.00133352)
(-0.142622 0.927321 0.00124516)
(-0.131376 1.02229 0.00114701)
(-0.119232 1.09605 0.00104101)
(-0.106404 1.14779 0.000929048)
(-0.093112 1.17659 0.000813024)
(-0.0795871 1.18137 0.000694965)
(-0.0660817 1.16088 0.000577071)
(-0.052874 1.11365 0.00046177)
(-0.0402702 1.03801 0.000351736)
(-0.0286256 0.931964 0.000250068)
(-0.0183122 0.793181 0.000160014)
(-0.00979929 0.618871 8.56678e-05)
(-0.00349338 0.405579 3.06039e-05)
(-0.000126683 0.149087 1.6466e-06)
(0.200847 -44.7405 -0.00175292)
(-0.274883 -43.3205 0.00239894)
(0.484092 -43.961 -0.00422516)
(-0.401537 -37.2826 0.00350313)
(0.0598959 -39.2042 -0.000522089)
(0.165925 -40.3119 -0.00144749)
(0.451413 -28.3774 -0.00392697)
(0.381113 -24.711 -0.00331347)
(0.378496 -23.6113 -0.00330056)
(0.34894 -21.7272 -0.00304444)
(0.307351 -19.2725 -0.00268233)
(0.268584 -16.7357 -0.00234405)
(0.244492 -14.6246 -0.00213395)
(0.227799 -13.0726 -0.00198841)
(0.211774 -11.9517 -0.00184859)
(0.193644 -11.0975 -0.00169037)
(0.173452 -10.3879 -0.00151414)
(0.151756 -9.74942 -0.00132479)
(0.129317 -9.14392 -0.00112895)
(0.10667 -8.5549 -0.000931285)
(0.0841676 -7.97733 -0.000734885)
(0.0619838 -7.4114 -0.000541263)
(0.040195 -6.85912 -0.000351088)
(0.0188301 -6.32271 -0.000164613)
(-0.00208724 -5.80389 1.79563e-05)
(-0.0225146 -5.30379 0.00019625)
(-0.0423815 -4.82301 0.000369653)
(-0.0615869 -4.36176 0.000537284)
(-0.0800058 -3.91995 0.000698053)
(-0.0974958 -3.49737 0.000850718)
(-0.113906 -3.09375 0.000993959)
(-0.129085 -2.70879 0.00112646)
(-0.142893 -2.34221 0.00124699)
(-0.1552 -1.99375 0.00135443)
(-0.165901 -1.66322 0.00144785)
(-0.174912 -1.35044 0.00152652)
(-0.182175 -1.05527 0.00158993)
(-0.187653 -0.777591 0.00163778)
(-0.191329 -0.517317 0.0016699)
(-0.19318 -0.274407 0.0016863)
(-0.193173 -0.0488356 0.00168628)
(-0.191249 0.159326 0.00166951)
(-0.187317 0.349825 0.00163523)
(-0.181401 0.522211 0.00158361)