/*--------------------------------*- C++ -*----------------------------------*\
| =========                 |                                                 |
| \\      /  F ield         | OpenFOAM: The Open Source CFD Toolbox           |
|  \\    /   O peration     | Version:  v2012                                 |
|   \\  /    A nd           | Website:  www.openfoam.com                      |
|    \\/     M anipulation  |                                                 |
\*---------------------------------------------------------------------------*/
FoamFile
{
    version     2.0;
    format      ascii;
    class       surfaceScalarField;
    location    "0.45";
    object      phi;
}
// * * * * * * * * * * * * * * * * * * * * * * * * * * * * * * * * * * * * * //

dimensions      [0 3 -1 0 0 0 0];
oriented        oriented;


internalField   nonuniform List<scalar> 
49380
(
5.8944e-16
-5.35407e-14
-4.57144e-18
4.481e-15
-6.4102e-13
-9.47907e-18
1.36483e-14
-2.12373e-12
-1.74037e-17
2.96196e-14
-4.63609e-12
-1.02737e-17
5.42497e-14
-8.28612e-12
5.63789e-17
8.85188e-14
-1.31793e-11
-1.79839e-19
1.35095e-13
-1.94258e-11
6.83476e-17
1.95691e-13
-2.71445e-11
6.75035e-17
2.73452e-13
-3.6458e-11
1.33514e-16
3.70268e-13
-4.75083e-11
3.76139e-17
4.89972e-13
-6.04313e-11
5.37312e-17
6.35751e-13
-7.53834e-11
3.61668e-17
8.11059e-13
-9.25386e-11
8.50302e-18
1.02028e-12
-1.12055e-10
7.70592e-17
1.26684e-12
-1.34134e-10
4.67828e-17
1.55526e-12
-1.58951e-10
5.67683e-17
1.88982e-12
-1.86716e-10
4.83551e-17
2.27517e-12
-2.17641e-10
4.89531e-17
2.71592e-12
-2.51948e-10
9.09587e-18
3.21688e-12
-2.89853e-10
-1.40908e-17
3.78306e-12
-3.31588e-10
9.07777e-19
4.41929e-12
-3.77416e-10
3.68505e-18
5.13034e-12
-4.27519e-10
9.41359e-18
5.92081e-12
-4.82191e-10
1.34017e-17
6.79487e-12
-5.41618e-10
1.98379e-17
7.75619e-12
-6.06058e-10
2.21874e-17
8.80772e-12
-6.75723e-10
2.3609e-17
9.95139e-12
-7.50743e-10
2.35984e-17
1.1188e-11
-8.31423e-10
2.30443e-17
1.25167e-11
-9.17759e-10
2.28135e-17
1.39347e-11
-1.00994e-09
2.12937e-17
1.54373e-11
-1.10802e-09
1.98412e-17
1.70172e-11
-1.21197e-09
1.7542e-17
1.86639e-11
-1.32173e-09
1.50482e-17
2.03639e-11
-1.43713e-09
1.15643e-17
2.20999e-11
-1.55797e-09
7.36015e-18
2.38508e-11
-1.68384e-09
2.61176e-18
2.55915e-11
-1.81429e-09
-2.12199e-18
2.72921e-11
-1.94865e-09
-5.02752e-18
2.89187e-11
-2.08564e-09
-6.86365e-18
3.04333e-11
-2.22541e-09
-8.37108e-18
3.17941e-11
-2.36533e-09
-9.74119e-18
3.29558e-11
-2.50517e-09
-8.26961e-18
3.3871e-11
-2.64213e-09
-7.63915e-18
3.44912e-11
-2.77401e-09
-4.28119e-18
3.47683e-11
-2.90013e-09
-4.17987e-18
3.46577e-11
-3.01506e-09
-6.48771e-19
3.41195e-11
-3.1172e-09
4.30094e-18
3.3123e-11
-3.20136e-09
9.5514e-18
3.16505e-11
-3.26309e-09
7.99572e-18
2.9699e-11
-3.29735e-09
9.35465e-18
2.72869e-11
-3.29545e-09
6.08098e-18
2.44508e-11
-3.24965e-09
6.89018e-18
2.12405e-11
-3.14995e-09
3.64833e-18
1.77044e-11
-2.98422e-09
3.90434e-18
1.38747e-11
-2.74063e-09
1.01708e-18
9.79456e-12
-2.40878e-09
1.20976e-18
5.665e-12
-1.97438e-09
-4.68904e-19
2.00531e-12
-1.40144e-09
-3.33691e-19
-5.82671e-10
-1.93236e-18
4.50631e-16
-5.40084e-14
-1.66839e-18
3.79867e-15
-6.44552e-13
-2.13292e-17
1.26835e-14
-2.13285e-12
-2.68349e-17
2.90805e-14
-4.65273e-12
-2.81351e-17
5.4747e-14
-8.31221e-12
-5.17148e-17
9.18752e-14
-1.32164e-11
5.61656e-18
1.41808e-13
-1.9476e-11
-3.08172e-17
2.07066e-13
-2.72096e-11
1.39385e-17
2.89885e-13
-3.65405e-11
3.65616e-17
3.92985e-13
-4.76102e-11
1.42654e-16
5.1803e-13
-6.05559e-11
5.49533e-17
6.69591e-13
-7.55335e-11
1.69766e-16
8.49763e-13
-9.27178e-11
1.09286e-16
1.06343e-12
-1.12267e-10
1.66039e-16
1.31362e-12
-1.34383e-10
1.29959e-16
1.60535e-12
-1.59241e-10
1.59296e-16
1.94277e-12
-1.87052e-10
1.64398e-16
2.3305e-12
-2.18027e-10
1.42274e-16
2.77377e-12
-2.52389e-10
1.85443e-16
3.27717e-12
-2.90355e-10
1.80078e-16
3.84585e-12
-3.32156e-10
1.56137e-16
4.4849e-12
-3.78054e-10
1.3345e-16
5.19928e-12
-4.28232e-10
1.24547e-16
5.9936e-12
-4.82984e-10
1.16049e-16
6.87208e-12
-5.42496e-10
1.08426e-16
7.8384e-12
-6.07023e-10
9.80236e-17
8.89549e-12
-6.7678e-10
8.76214e-17
1.00453e-11
-7.51892e-10
7.96354e-17
1.12886e-11
-8.32666e-10
7.25257e-17
1.26244e-11
-9.19094e-10
6.79342e-17
1.405e-11
-1.01137e-09
6.26894e-17
1.55605e-11
-1.10953e-09
5.85634e-17
1.71485e-11
-1.21356e-09
5.26854e-17
1.88034e-11
-1.32338e-09
4.56887e-17
2.05115e-11
-1.43884e-09
3.69305e-17
2.22553e-11
-1.55972e-09
2.57891e-17
2.40135e-11
-1.6856e-09
1.3357e-17
2.57608e-11
-1.81603e-09
1.23182e-18
2.74672e-11
-1.95035e-09
-6.86254e-18
2.90984e-11
-2.08727e-09
-1.11838e-17
3.06162e-11
-2.22693e-09
-1.58577e-17
3.19785e-11
-2.36669e-09
-1.77721e-17
3.31399e-11
-2.50633e-09
-1.6107e-17
3.40526e-11
-2.64305e-09
-1.15957e-17
3.4668e-11
-2.77462e-09
-5.59129e-18
3.49377e-11
-2.9004e-09
-7.09401e-19
3.4817e-11
-3.01494e-09
6.29091e-18
3.42659e-11
-3.11665e-09
2.65423e-17
3.32537e-11
-3.20035e-09
3.48977e-17
3.17625e-11
-3.2616e-09
3.68179e-17
2.97896e-11
-3.29537e-09
3.63733e-17
2.73537e-11
-3.29302e-09
3.40852e-17
2.44923e-11
-3.24679e-09
3.03583e-17
2.12566e-11
-3.14671e-09
2.5675e-17
1.76966e-11
-2.98066e-09
1.98224e-17
1.38447e-11
-2.73678e-09
1.46432e-17
9.74058e-12
-2.40468e-09
8.87648e-18
5.58368e-12
-1.97023e-09
4.43953e-18
1.9442e-12
-1.3978e-09
-1.38011e-18
-5.80727e-10
-6.08862e-18
2.76116e-16
-5.42564e-14
3.49155e-18
2.60763e-15
-6.46904e-13
-1.82925e-18
9.31761e-15
-2.13961e-12
-5.4608e-18
2.25048e-14
-4.66609e-12
-1.92719e-17
4.42585e-14
-8.33431e-12
-3.96716e-17
7.72003e-14
-1.32492e-11
1.25878e-17
1.22755e-13
-1.95219e-11
-4.3729e-17
1.83628e-13
-2.72708e-11
-3.14651e-17
2.62366e-13
-3.66196e-11
-3.63057e-17
3.61872e-13
-4.77098e-11
-7.4844e-18
4.84357e-13
-6.06791e-11
-8.59187e-17
6.34259e-13
-7.56835e-11
-7.65769e-18
8.13961e-13
-9.2898e-11
-5.24842e-17
1.02841e-12
-1.12481e-10
5.78934e-17
1.28045e-12
-1.34634e-10
4.93562e-17
1.57532e-12
-1.59535e-10
1.38947e-16
1.91676e-12
-1.87392e-10
1.55637e-16
2.3097e-12
-2.18419e-10
1.59822e-16
2.75904e-12
-2.52837e-10
1.83959e-16
3.26953e-12
-2.90864e-10
1.87851e-16
3.84629e-12
-3.32731e-10
1.7272e-16
4.49449e-12
-3.78701e-10
1.48917e-16
5.21915e-12
-4.28955e-10
1.43937e-16
6.02493e-12
-4.83789e-10
1.34908e-16
6.91612e-12
-5.43386e-10
1.33191e-16
7.89643e-12
-6.08002e-10
1.23545e-16
8.96883e-12
-6.77851e-10
1.17548e-16
1.01353e-11
-7.53058e-10
1.10363e-16
1.13964e-11
-8.33926e-10
1.0634e-16
1.27514e-11
-9.20448e-10
1.024e-16
1.41971e-11
-1.01281e-09
9.87432e-17
1.57288e-11
-1.11106e-09
9.32693e-17
1.73386e-11
-1.21517e-09
8.65057e-17
1.90158e-11
-1.32506e-09
7.54676e-17
2.07463e-11
-1.44057e-09
6.25995e-17
2.25123e-11
-1.56148e-09
4.39921e-17
2.42919e-11
-1.68737e-09
2.39884e-17
2.60595e-11
-1.8178e-09
3.32159e-18
2.77844e-11
-1.95208e-09
-9.84957e-18
2.9432e-11
-2.08892e-09
-1.80446e-17
3.09633e-11
-2.22846e-09
-2.54521e-17
3.23356e-11
-2.36807e-09
-2.92722e-17
3.3503e-11
-2.5075e-09
-2.63243e-17
3.44171e-11
-2.64396e-09
-1.86171e-17
3.50286e-11
-2.77523e-09
-7.51468e-18
3.52888e-11
-2.90066e-09
1.50617e-18
3.51526e-11
-3.0148e-09
1.64784e-17
3.45796e-11
-3.11607e-09
5.06156e-17
3.35389e-11
-3.19931e-09
6.56636e-17
3.20125e-11
-3.26007e-09
6.99319e-17
2.9998e-11
-3.29336e-09
7.13501e-17
2.75144e-11
-3.29053e-09
6.7997e-17
2.46005e-11
-3.24387e-09
6.27302e-17
2.13093e-11
-3.14342e-09
5.36203e-17
1.7695e-11
-2.97705e-09
4.35897e-17
1.37958e-11
-2.73288e-09
3.2126e-17
9.65795e-12
-2.40054e-09
2.09862e-17
5.48701e-12
-1.96606e-09
9.48788e-18
1.90641e-12
-1.39422e-09
-2.2944e-18
-5.78821e-10
-1.23385e-17
2.5646e-16
-5.45467e-14
-3.45903e-18
2.80275e-15
-6.49409e-13
5.24721e-18
9.7252e-15
-2.14664e-12
-1.2013e-17
2.34875e-14
-4.67994e-12
-1.13243e-17
4.58467e-14
-8.35708e-12
-4.8842e-17
7.95901e-14
-1.3283e-11
-2.12956e-18
1.26362e-13
-1.95689e-11
-2.93336e-17
1.88902e-13
-2.73333e-11
-1.85315e-18
2.69232e-13
-3.67001e-11
-2.81151e-17
3.70434e-13
-4.78109e-11
8.94737e-18
4.94933e-13
-6.08037e-11
-1.80546e-17
6.46337e-13
-7.58346e-11
2.78937e-17
8.27749e-13
-9.30792e-11
2.9064e-17
1.04346e-12
-1.12696e-10
8.45009e-17
1.29696e-12
-1.34887e-10
6.53867e-17
1.59346e-12
-1.5983e-10
1.31854e-16
1.93694e-12
-1.87734e-10
1.24937e-16
2.33289e-12
-2.18813e-10
1.72711e-16
2.78626e-12
-2.53289e-10
1.9625e-16
3.3015e-12
-2.91379e-10
8.73615e-17
3.8847e-12
-3.33313e-10
8.76967e-17
4.54111e-12
-3.79356e-10
1.09706e-16
5.2758e-12
-4.29689e-10
1.32627e-16
6.09357e-12
-4.84606e-10
1.425e-16
6.99881e-12
-5.4429e-10
1.48974e-16
7.99532e-12
-6.08997e-10
1.46819e-16
9.08611e-12
-6.78941e-10
1.42878e-16
1.02731e-11
-7.54244e-10
1.39453e-16
1.15571e-11
-8.35209e-10
1.35573e-16
1.29369e-11
-9.21826e-10
1.3365e-16
1.44094e-11
-1.01428e-09
1.29213e-16
1.59696e-11
-1.11262e-09
1.24022e-16
1.76093e-11
-1.2168e-09
1.15042e-16
1.93174e-11
-1.32677e-09
1.01779e-16
2.10795e-11
-1.44233e-09
8.45131e-17
2.2877e-11
-1.56328e-09
6.04928e-17
2.46876e-11
-1.68918e-09
3.33093e-17
2.64848e-11
-1.8196e-09
6.0394e-18
2.82374e-11
-1.95383e-09
-1.20415e-17
2.99096e-11
-2.09059e-09
-2.32707e-17
3.14618e-11
-2.23001e-09
-3.41424e-17
3.28504e-11
-2.36945e-09
-3.9498e-17
3.40284e-11
-2.50868e-09
-3.62966e-17
3.49465e-11
-2.64488e-09
-2.53443e-17
3.55548e-11
-2.77584e-09
-1.04832e-17
3.58035e-11
-2.90091e-09
3.39224e-18
3.5647e-11
-3.01465e-09
2.31055e-17
3.50444e-11
-3.11547e-09
6.67694e-17
3.39645e-11
-3.19823e-09
8.57322e-17
3.23891e-11
-3.2585e-09
9.36275e-17
3.0316e-11
-3.29128e-09
9.58306e-17
2.77648e-11
-3.28798e-09
9.36217e-17
2.47755e-11
-3.24088e-09
8.56604e-17
2.1404e-11
-3.14005e-09
7.48199e-17
1.77101e-11
-2.97335e-09
5.92433e-17
1.37426e-11
-2.72891e-09
4.40197e-17
9.56121e-12
-2.39636e-09
2.60703e-17
5.37965e-12
-1.96187e-09
1.01186e-17
1.82275e-12
-1.39066e-09
-7.79275e-18
-5.76996e-10
-1.99225e-17
4.75212e-17
-5.46978e-14
-1.41874e-17
1.43653e-15
-6.51132e-13
-3.48171e-17
6.5686e-15
-2.15178e-12
-4.98163e-18
1.76915e-14
-4.6909e-12
1.88342e-17
3.64159e-14
-8.37597e-12
-1.70049e-17
6.5924e-14
-1.33125e-11
7.10532e-18
1.08165e-13
-1.96113e-11
-1.62394e-17
1.66167e-13
-2.73913e-11
-1.42804e-18
2.42313e-13
-3.67765e-11
-2.84348e-17
3.39839e-13
-4.79087e-11
-2.78204e-17
4.61797e-13
-6.09259e-11
-3.39135e-17
6.11717e-13
-7.59847e-11
-2.82875e-17
7.93136e-13
-9.32609e-11
-3.28737e-17
1.0102e-12
-1.12914e-10
-1.71421e-17
1.2667e-12
-1.35144e-10
-3.57317e-17
1.56765e-12
-1.60131e-10
9.4628e-18
1.91719e-12
-1.88084e-10
4.10988e-18
2.32085e-12
-2.19216e-10
5.19069e-17
2.78328e-12
-2.53751e-10
5.94033e-17
3.30964e-12
-2.91904e-10
7.3844e-17
3.90565e-12
-3.33908e-10
1.15632e-16
4.57675e-12
-3.80026e-10
1.37624e-16
5.32815e-12
-4.30439e-10
1.55535e-16
6.16479e-12
-4.85441e-10
1.57448e-16
7.09121e-12
-5.45215e-10
1.61061e-16
8.11134e-12
-6.10016e-10
1.55699e-16
9.22827e-12
-6.80056e-10
1.53436e-16
1.0444e-11
-7.55458e-10
1.50919e-16
1.17592e-11
-8.36523e-10
1.50579e-16
1.31727e-11
-9.23239e-10
1.50873e-16
1.46812e-11
-1.01579e-09
1.49682e-16
1.62793e-11
-1.11422e-09
1.45684e-16
1.79587e-11
-1.21848e-09
1.38006e-16
1.97077e-11
-1.32851e-09
1.23531e-16
2.15113e-11
-1.44413e-09
1.04753e-16
2.33503e-11
-1.56512e-09
7.63671e-17
2.52016e-11
-1.69104e-09
4.43961e-17
2.70378e-11
-1.82143e-09
1.13631e-17
2.88266e-11
-1.95562e-09
-9.80409e-18
3.05315e-11
-2.0923e-09
-2.42915e-17
3.21113e-11
-2.23159e-09
-3.85622e-17
3.35214e-11
-2.37086e-09
-4.67198e-17
3.47136e-11
-2.50987e-09
-4.34374e-17
3.56376e-11
-2.6458e-09
-3.10289e-17
3.62421e-11
-2.77645e-09
-1.24083e-17
3.64765e-11
-2.90115e-09
4.2165e-18
3.62944e-11
-3.01446e-09
2.90656e-17
3.56541e-11
-3.11483e-09
7.8228e-17
3.45242e-11
-3.1971e-09
1.01599e-16
3.28863e-11
-3.25686e-09
1.11217e-16
3.07385e-11
-3.28913e-09
1.16045e-16
2.81011e-11
-3.28534e-09
1.13264e-16
2.50158e-11
-3.23779e-09
1.05374e-16
2.15419e-11
-3.13657e-09
9.12721e-17
1.77466e-11
-2.96955e-09
7.33563e-17
1.36919e-11
-2.72486e-09
5.30307e-17
9.45619e-12
-2.39212e-09
3.14381e-17
5.26512e-12
-1.95768e-09
1.02716e-17
1.73842e-12
-1.38713e-09
-1.0127e-17
-5.75257e-10
-2.35397e-17
1.60923e-16
-5.49e-14
-6.2628e-18
2.40006e-15
-6.52964e-13
4.68635e-17
7.16513e-15
-2.15732e-12
-8.0654e-17
1.95441e-14
-4.70245e-12
9.16855e-17
3.81647e-14
-8.39492e-12
-3.59931e-17
6.82014e-14
-1.33424e-11
1.43821e-17
1.10118e-13
-1.96535e-11
-3.45468e-17
1.68095e-13
-2.74493e-11
3.58002e-18
2.43911e-13
-3.68524e-11
-8.74001e-18
3.41324e-13
-4.8006e-11
8.46569e-18
4.62911e-13
-6.10477e-11
-2.54991e-17
6.1261e-13
-7.61346e-11
-2.73839e-17
7.94161e-13
-9.34426e-11
-1.88144e-17
1.01166e-12
-1.13131e-10
-1.74395e-17
1.26936e-12
-1.35402e-10
-3.73631e-17
1.57242e-12
-1.60434e-10
-3.54111e-18
1.92549e-12
-1.88437e-10
-6.16705e-18
2.3344e-12
-2.19625e-10
5.22004e-17
2.80419e-12
-2.5422e-10
6.02032e-17
3.33994e-12
-2.9244e-10
-1.51512e-17
3.94798e-12
-3.34516e-10
4.57227e-18
4.63392e-12
-3.80712e-10
4.24986e-17
5.40313e-12
-4.31207e-10
7.68619e-17
6.26072e-12
-4.86298e-10
9.8365e-17
7.21133e-12
-5.46164e-10
1.14772e-16
8.25899e-12
-6.11063e-10
1.24337e-16
9.40684e-12
-6.81203e-10
1.31453e-16
1.06569e-11
-7.56707e-10
1.40031e-16
1.20097e-11
-8.37874e-10
1.46035e-16
1.3464e-11
-9.24691e-10
1.53988e-16
1.50163e-11
-1.01734e-09
1.56761e-16
1.66609e-11
-1.11586e-09
1.57492e-16
1.83888e-11
-1.22021e-09
1.51673e-16
2.01879e-11
-1.33031e-09
1.39124e-16
2.20424e-11
-1.44598e-09
1.19906e-16
2.39324e-11
-1.56701e-09
9.02379e-17
2.58338e-11
-1.69294e-09
5.48613e-17
2.7718e-11
-1.82332e-09
1.87421e-17
2.95517e-11
-1.95745e-09
-4.70312e-18
3.12968e-11
-2.09404e-09
-2.11281e-17
3.29109e-11
-2.23321e-09
-3.93699e-17
3.43479e-11
-2.3723e-09
-4.99434e-17
3.5558e-11
-2.51108e-09
-4.80479e-17
3.64897e-11
-2.64674e-09
-3.43526e-17
3.70903e-11
-2.77705e-09
-1.40151e-17
3.73079e-11
-2.90136e-09
5.86461e-18
3.7095e-11
-3.01425e-09
3.31348e-17
3.64094e-11
-3.11414e-09
8.68193e-17
3.52192e-11
-3.19591e-09
1.12689e-16
3.3506e-11
-3.25514e-09
1.25542e-16
3.12681e-11
-3.2869e-09
1.31188e-16
2.8527e-11
-3.2826e-09
1.30032e-16
2.53266e-11
-3.23459e-09
1.20382e-16
2.17303e-11
-3.13297e-09
1.05718e-16
1.7814e-11
-2.96564e-09
8.37298e-17
1.36548e-11
-2.7207e-09
6.12062e-17
9.35327e-12
-2.38782e-09
3.47002e-17
5.15118e-12
-1.95348e-09
1.15151e-17
1.66512e-12
-1.38365e-09
-1.16284e-17
-5.73593e-10
-2.41497e-17
6.99856e-17
-5.50101e-14
-7.83819e-18
1.64807e-15
-6.54291e-13
3.22796e-17
4.60685e-15
-2.16159e-12
-1.38152e-16
1.46601e-14
-4.71173e-12
8.04262e-17
3.00699e-14
-8.41149e-12
-1.50685e-16
5.76607e-14
-1.33696e-11
5.3543e-17
9.61386e-14
-1.96923e-11
-4.1279e-17
1.51169e-13
-2.75044e-11
-6.83898e-18
2.23993e-13
-3.69254e-11
-1.60038e-17
3.19029e-13
-4.81012e-11
-1.2943e-17
4.38861e-13
-6.11679e-11
-4.13613e-17
5.87866e-13
-7.62841e-11
-6.09708e-17
7.70055e-13
-9.36251e-11
-3.71161e-17
9.89634e-13
-1.13351e-10
-5.59504e-17
1.25109e-12
-1.35664e-10
-6.80465e-17
1.55961e-12
-1.60743e-10
-5.46662e-17
1.9201e-12
-1.88798e-10
-5.17444e-17
2.33842e-12
-2.20043e-10
-1.09182e-17
2.81981e-12
-2.54701e-10
2.70204e-18
3.36987e-12
-2.9299e-10
1.16177e-17
3.99476e-12
-3.35141e-10
4.70378e-17
4.70036e-12
-3.81417e-10
7.07324e-17
5.49232e-12
-4.31998e-10
9.16348e-17
6.37598e-12
-4.8718e-10
9.98253e-17
7.35619e-12
-5.47144e-10
1.08741e-16
8.43714e-12
-6.12143e-10
1.12109e-16
9.62209e-12
-6.82387e-10
1.18361e-16
1.09131e-11
-7.57997e-10
1.26757e-16
1.23106e-11
-8.39271e-10
1.35908e-16
1.38133e-11
-9.26193e-10
1.46815e-16
1.54173e-11
-1.01894e-09
1.54166e-16
1.71166e-11
-1.11756e-09
1.58421e-16
1.89018e-11
-1.22199e-09
1.56679e-16
2.076e-11
-1.33217e-09
1.46547e-16
2.26747e-11
-1.4479e-09
1.2962e-16
2.46249e-11
-1.56896e-09
9.99811e-17
2.65853e-11
-1.6949e-09
6.39995e-17
2.85263e-11
-1.82526e-09
2.61104e-17
3.04129e-11
-1.95934e-09
2.4764e-18
3.22055e-11
-2.09584e-09
-1.56952e-17
3.38602e-11
-2.23486e-09
-3.68736e-17
3.53291e-11
-2.37377e-09
-5.06149e-17
3.65608e-11
-2.51231e-09
-4.9902e-17
3.75018e-11
-2.64768e-09
-3.66723e-17
3.80982e-11
-2.77764e-09
-1.45593e-17
3.82964e-11
-2.90156e-09
6.40988e-18
3.8048e-11
-3.014e-09
3.68739e-17
3.73098e-11
-3.1134e-09
9.31846e-17
3.60494e-11
-3.19464e-09
1.23274e-16
3.42486e-11
-3.25334e-09
1.37845e-16
3.19063e-11
-3.28455e-09
1.46267e-16
2.90453e-11
-3.27974e-09
1.44824e-16
2.57121e-11
-3.23126e-09
1.36059e-16
2.19753e-11
-3.12923e-09
1.19056e-16
1.79201e-11
-2.96158e-09
9.61192e-17
1.36408e-11
-2.71642e-09
6.992e-17
9.26193e-12
-2.38344e-09
4.16941e-17
5.04423e-12
-1.94926e-09
1.55384e-17
1.60063e-12
-1.3802e-09
-7.24776e-18
-5.71993e-10
-1.96693e-17
-4.58645e-17
-5.51654e-14
-2.16833e-17
1.26e-15
-6.55768e-13
-2.23178e-17
5.07902e-15
-2.16617e-12
-1.22945e-16
1.5574e-14
-4.72111e-12
1.78177e-16
3.31832e-14
-8.42826e-12
1.41477e-16
6.10617e-14
-1.33965e-11
4.21831e-17
9.87548e-14
-1.97302e-11
-1.59648e-18
1.52907e-13
-2.75587e-11
-1.84969e-17
2.24482e-13
-3.69971e-11
-2.35766e-17
3.18525e-13
-4.81952e-11
8.54553e-18
4.37685e-13
-6.12873e-11
-3.11156e-17
5.86456e-13
-7.6433e-11
-2.16655e-17
7.69151e-13
-9.38078e-11
-5.44839e-18
9.90082e-13
-1.13572e-10
-2.5081e-17
1.25422e-12
-1.35929e-10
-4.77156e-17
1.56688e-12
-1.61056e-10
-5.70058e-17
1.93364e-12
-1.89165e-10
-5.56879e-17
2.36053e-12
-2.2047e-10
-1.80164e-17
2.85336e-12
-2.55194e-10
-1.59236e-18
3.41776e-12
-2.93555e-10
-4.92125e-17
4.06039e-12
-3.35784e-10
-3.56724e-17
4.78741e-12
-3.82144e-10
-8.18547e-18
5.60468e-12
-4.32816e-10
1.76221e-17
6.51776e-12
-4.88093e-10
3.6429e-17
7.53168e-12
-5.48157e-10
5.18131e-17
8.65076e-12
-6.13261e-10
6.56047e-17
9.87831e-12
-6.83614e-10
7.82248e-17
1.12164e-11
-7.59334e-10
9.58576e-17
1.26654e-11
-8.40719e-10
1.10564e-16
1.42237e-11
-9.2775e-10
1.29044e-16
1.58873e-11
-1.0206e-09
1.41003e-16
1.76496e-11
-1.11932e-09
1.51267e-16
1.95007e-11
-1.22384e-09
1.53335e-16
2.14268e-11
-1.33409e-09
1.47726e-16
2.34106e-11
-1.44988e-09
1.33444e-16
2.54299e-11
-1.57097e-09
1.06165e-16
2.74582e-11
-1.69692e-09
7.05521e-17
2.94643e-11
-1.82726e-09
3.31815e-17
3.14117e-11
-1.96129e-09
9.96911e-18
3.3259e-11
-2.09768e-09
-8.60836e-18
3.49604e-11
-2.23657e-09
-3.28394e-17
3.64659e-11
-2.37528e-09
-4.89321e-17
3.77223e-11
-2.51357e-09
-5.05991e-17
3.86743e-11
-2.64863e-09
-3.76143e-17
3.9266e-11
-2.77824e-09
-1.56558e-17
3.94423e-11
-2.90174e-09
7.23989e-18
3.91534e-11
-3.01371e-09
3.87915e-17
3.83554e-11
-3.11261e-09
9.77962e-17
3.70153e-11
-3.1933e-09
1.30191e-16
3.51151e-11
-3.25144e-09
1.48131e-16
3.26544e-11
-3.28209e-09
1.57297e-16
2.9658e-11
-3.27674e-09
1.57847e-16
2.61753e-11
-3.22777e-09
1.47879e-16
2.2281e-11
-3.12534e-09
1.31349e-16
1.80706e-11
-2.95737e-09
1.05539e-16
1.36566e-11
-2.712e-09
7.87082e-17
9.1885e-12
-2.37897e-09
4.72822e-17
4.94788e-12
-1.94502e-09
2.11444e-17
1.543e-12
-1.3768e-09
-2.53272e-18
-5.7045e-10
-1.36602e-17
-3.9124e-18
-5.52634e-14
-1.22683e-17
1.03527e-15
-6.56961e-13
-1.72249e-17
3.73627e-15
-2.17022e-12
-1.79209e-16
1.18921e-14
-4.72965e-12
1.14491e-17
2.6248e-14
-8.44307e-12
-1.68231e-17
5.13758e-14
-1.34194e-11
1.3208e-16
8.73999e-14
-1.9766e-11
2.70254e-17
1.40406e-13
-2.76113e-11
1.02678e-16
2.1086e-13
-3.70675e-11
-7.52902e-18
3.04577e-13
-4.8289e-11
8.79651e-18
4.23682e-13
-6.14069e-11
-6.58932e-17
5.73214e-13
-7.6583e-11
-6.01172e-17
7.57747e-13
-9.39927e-11
-3.65774e-17
9.82012e-13
-1.13797e-10
-5.59736e-17
1.2512e-12
-1.36198e-10
-6.67866e-17
1.57097e-12
-1.61377e-10
-7.63987e-17
1.94715e-12
-1.89542e-10
-6.72445e-17
2.38602e-12
-2.2091e-10
-4.63212e-17
2.89364e-12
-2.55702e-10
-3.28171e-17
3.47623e-12
-2.94138e-10
-3.08535e-17
4.14051e-12
-3.36448e-10
-6.76979e-18
4.89297e-12
-3.82896e-10
9.3594e-18
5.73981e-12
-4.33662e-10
2.48949e-17
6.6869e-12
-4.8904e-10
3.24472e-17
7.73948e-12
-5.49209e-10
4.1542e-17
8.90208e-12
-6.14423e-10
4.89232e-17
1.01781e-11
-6.84889e-10
5.95094e-17
1.15696e-11
-7.60725e-10
7.51897e-17
1.3077e-11
-8.42225e-10
9.12273e-17
1.46984e-11
-9.2937e-10
1.11045e-16
1.64294e-11
-1.02233e-09
1.26377e-16
1.8263e-11
-1.12115e-09
1.39749e-16
2.01884e-11
-1.22577e-09
1.46097e-16
2.21913e-11
-1.3361e-09
1.44077e-16
2.4253e-11
-1.45194e-09
1.3374e-16
2.63504e-11
-1.57307e-09
1.09023e-16
2.84552e-11
-1.69903e-09
7.55447e-17
3.05346e-11
-1.82934e-09
3.92918e-17
3.25505e-11
-1.9633e-09
1.79923e-17
3.44593e-11
-2.09959e-09
-1.04947e-18
3.62131e-11
-2.23832e-09
-2.72252e-17
3.77599e-11
-2.37682e-09
-4.62863e-17
3.90442e-11
-2.51485e-09
-4.97476e-17
4.00085e-11
-2.6496e-09
-3.85871e-17
4.05949e-11
-2.77882e-09
-1.6343e-17
4.07467e-11
-2.90189e-09
6.36968e-18
4.04126e-11
-3.01338e-09
3.97927e-17
3.95476e-11
-3.11174e-09
9.87544e-17
3.81185e-11
-3.19187e-09
1.34755e-16
3.61072e-11
-3.24942e-09
1.54266e-16
3.35147e-11
-3.27949e-09
1.66418e-16
3.03679e-11
-3.27359e-09
1.66922e-16
2.672e-11
-3.22412e-09
1.58603e-16
2.26521e-11
-3.12127e-09
1.4056e-16
1.82713e-11
-2.95299e-09
1.15129e-16
1.37084e-11
-2.70744e-09
8.59728e-17
9.13888e-12
-2.3744e-09
5.45671e-17
4.86574e-12
-1.94075e-09
2.69919e-17
1.49215e-12
-1.37343e-09
4.87294e-18
-5.68958e-10
-6.41967e-18
2.62736e-17
-5.53787e-14
-9.79422e-18
9.42189e-16
-6.58176e-13
-3.61826e-17
3.84798e-15
-2.17388e-12
-9.21474e-17
1.32081e-14
-4.73767e-12
1.26448e-16
2.86172e-14
-8.45908e-12
-1.64668e-16
5.15683e-14
-1.34448e-11
-1.68383e-17
9.31651e-14
-1.98043e-11
3.93678e-16
1.44324e-13
-2.76645e-11
-4.76503e-16
2.14616e-13
-3.71368e-11
2.46804e-16
3.06645e-13
-4.83819e-11
-1.48328e-16
4.25647e-13
-6.15256e-11
5.39211e-17
5.7537e-13
-7.67332e-11
-4.56879e-17
7.61685e-13
-9.41791e-11
-9.47524e-18
9.89163e-13
-1.14025e-10
-1.48021e-17
1.2633e-12
-1.36473e-10
-5.56568e-17
1.59023e-12
-1.61704e-10
-3.82321e-17
1.9761e-12
-1.89928e-10
-3.98753e-17
2.42756e-12
-2.21361e-10
-1.44765e-17
2.95116e-12
-2.56226e-10
-1.40772e-17
3.55333e-12
-2.94741e-10
-6.07252e-17
4.24133e-12
-3.37137e-10
-6.06566e-17
5.02199e-12
-3.83677e-10
-4.45174e-17
5.90182e-12
-4.34542e-10
-2.78336e-17
6.88695e-12
-4.90025e-10
-1.35166e-17
7.98287e-12
-5.50305e-10
-1.56249e-18
9.19426e-12
-6.15635e-10
1.21568e-17
1.05246e-11
-6.8622e-10
2.52294e-17
1.1976e-11
-7.62176e-10
4.63181e-17
1.35487e-11
-8.43797e-10
6.49431e-17
1.52406e-11
-9.31061e-10
8.97007e-17
1.70469e-11
-1.02414e-09
1.07876e-16
1.89599e-11
-1.12307e-09
1.25968e-16
2.09683e-11
-1.22777e-09
1.35672e-16
2.30566e-11
-1.33818e-09
1.38252e-16
2.52052e-11
-1.45409e-09
1.31317e-16
2.73892e-11
-1.57525e-09
1.10294e-16
2.95791e-11
-1.70122e-09
7.90124e-17
3.17401e-11
-1.8315e-09
4.5209e-17
3.3832e-11
-1.9654e-09
2.58185e-17
3.58091e-11
-2.10157e-09
7.31754e-18
3.7621e-11
-2.24013e-09
-2.11456e-17
3.92136e-11
-2.37842e-09
-4.22406e-17
4.05286e-11
-2.51617e-09
-4.85797e-17
4.15065e-11
-2.65057e-09
-3.86519e-17
4.20871e-11
-2.7794e-09
-1.79919e-17
4.22117e-11
-2.90202e-09
5.6201e-18
4.18275e-11
-3.01299e-09
3.86991e-17
4.08885e-11
-3.1108e-09
9.7331e-17
3.93609e-11
-3.19034e-09
1.34084e-16
3.72274e-11
-3.24729e-09
1.56555e-16
3.449e-11
-3.27675e-09
1.69174e-16
3.11782e-11
-3.27027e-09
1.71982e-16
2.73498e-11
-3.22029e-09
1.62903e-16
2.3093e-11
-3.11701e-09
1.46301e-16
1.8527e-11
-2.94842e-09
1.1908e-16
1.38017e-11
-2.70271e-09
9.07861e-17
9.11803e-12
-2.36972e-09
5.76509e-17
4.80098e-12
-1.93643e-09
3.14987e-17
1.44887e-12
-1.37007e-09
9.07871e-18
-5.67509e-10
-1.14808e-18
-9.13096e-18
-5.54652e-14
-1.20554e-17
8.05096e-16
-6.59207e-13
-2.55704e-17
3.5392e-15
-2.17754e-12
-1.02194e-16
1.14882e-14
-4.74603e-12
-6.62291e-17
2.54298e-14
-8.47398e-12
-1.92608e-16
4.64216e-14
-1.34674e-11
1.18463e-16
8.47369e-14
-1.9839e-11
4.33238e-16
1.31281e-13
-2.77126e-11
-5.97996e-16
2.04663e-13
-3.72037e-11
8.0065e-16
2.97885e-13
-4.84753e-11
1.72787e-17
4.19869e-13
-6.16454e-11
2.3544e-16
5.72532e-13
-7.68859e-11
1.16119e-17
7.62984e-13
-9.43695e-11
9.50537e-18
9.95886e-13
-1.14258e-10
-3.44601e-17
1.27724e-12
-1.36755e-10
-7.77693e-17
1.61381e-12
-1.62041e-10
-5.97707e-17
2.01203e-12
-1.90327e-10
-5.30214e-17
2.47904e-12
-2.21828e-10
-3.16217e-17
3.02164e-12
-2.56769e-10
-2.81044e-17
3.64687e-12
-2.95366e-10
-3.96153e-17
4.36224e-12
-3.37852e-10
-3.13281e-17
5.17502e-12
-3.8449e-10
-2.46307e-17
6.09207e-12
-4.35459e-10
-1.67954e-17
7.11988e-12
-4.91053e-10
-1.24395e-17
8.2642e-12
-5.5145e-10
-5.62441e-18
9.52993e-12
-6.169e-10
1.96191e-18
1.09207e-11
-6.8761e-10
1.26202e-17
1.24385e-11
-7.63693e-10
3.05389e-17
1.40836e-11
-8.45442e-10
4.89917e-17
1.58535e-11
-9.32831e-10
7.32848e-17
1.7743e-11
-1.02603e-09
9.31033e-17
1.97438e-11
-1.12506e-09
1.12878e-16
2.18437e-11
-1.22987e-09
1.25742e-16
2.40263e-11
-1.34036e-09
1.31395e-16
2.62705e-11
-1.45633e-09
1.28204e-16
2.855e-11
-1.57753e-09
1.10277e-16
3.08334e-11
-1.7035e-09
8.19787e-17
3.30841e-11
-1.83375e-09
5.04865e-17
3.52594e-11
-1.96757e-09
3.38457e-17
3.73114e-11
-2.10362e-09
1.55436e-17
3.91872e-11
-2.24201e-09
-1.4219e-17
4.08297e-11
-2.38006e-09
-3.7979e-17
4.21784e-11
-2.51752e-09
-4.6294e-17
4.3171e-11
-2.65157e-09
-3.90556e-17
4.37451e-11
-2.77998e-09
-1.91441e-17
4.38397e-11
-2.90211e-09
3.16848e-18
4.34006e-11
-3.01255e-09
3.66793e-17
4.23805e-11
-3.10978e-09
9.1963e-17
4.07453e-11
-3.18871e-09
1.3058e-16
3.84783e-11
-3.24502e-09
1.53686e-16
3.55831e-11
-3.27386e-09
1.69105e-16
3.20922e-11
-3.26678e-09
1.71771e-16
2.80683e-11
-3.21626e-09
1.64848e-16
2.36076e-11
-3.11255e-09
1.4726e-16
1.8842e-11
-2.94365e-09
1.21495e-16
1.39408e-11
-2.69781e-09
9.19079e-17
9.12988e-12
-2.3649e-09
6.01543e-17
4.7561e-12
-1.93205e-09
3.34337e-17
1.41371e-12
-1.36673e-09
1.29452e-17
-5.66095e-10
2.31839e-18
2.8562e-18
-5.55625e-14
-1.06033e-17
6.83307e-16
-6.60281e-13
-4.75458e-17
3.39404e-15
-2.18097e-12
-8.78085e-17
1.19413e-14
-4.75362e-12
1.14709e-16
2.50269e-14
-8.48784e-12
-1.00619e-16
4.83823e-14
-1.34908e-11
-1.3048e-16
8.91429e-14
-1.98764e-11
2.71407e-16
1.40544e-13
-2.77658e-11
4.83461e-16
2.13192e-13
-3.72774e-11
-2.03383e-16
3.03454e-13
-4.85689e-11
-7.12586e-16
4.26949e-13
-6.17682e-11
2.4376e-16
5.80848e-13
-7.70414e-11
-2.71334e-16
7.75655e-13
-9.45635e-11
1.2651e-16
1.01412e-12
-1.14497e-10
-4.03721e-17
1.30339e-12
-1.37045e-10
-7.08646e-17
1.65054e-12
-1.62388e-10
-5.77423e-17
2.06234e-12
-1.90739e-10
-6.3844e-17
2.54651e-12
-2.22313e-10
-2.63808e-17
3.11024e-12
-2.57332e-10
-2.6418e-17
3.76089e-12
-2.96017e-10
-7.38779e-17
4.50658e-12
-3.38598e-10
-7.55252e-17
5.35495e-12
-3.85339e-10
-6.10932e-17
6.31323e-12
-4.36418e-10
-4.98393e-17
7.38829e-12
-4.92128e-10
-3.88181e-17
8.58613e-12
-5.52648e-10
-3.05573e-17
9.91185e-12
-6.18226e-10
-1.89889e-17
1.13692e-11
-6.89068e-10
-8.37132e-18
1.29601e-11
-7.65284e-10
1.2097e-17
1.46848e-11
-8.47166e-10
3.07121e-17
1.65403e-11
-9.34686e-10
5.74223e-17
1.85211e-11
-1.02801e-09
7.81591e-17
2.06182e-11
-1.12716e-09
1.00781e-16
2.28184e-11
-1.23207e-09
1.15732e-16
2.5104e-11
-1.34265e-09
1.24842e-16
2.74527e-11
-1.45868e-09
1.24467e-16
2.98365e-11
-1.57992e-09
1.0995e-16
3.2222e-11
-1.70589e-09
8.41267e-17
3.45703e-11
-1.8361e-09
5.5521e-17
3.68365e-11
-1.96984e-09
4.11635e-17
3.897e-11
-2.10575e-09
2.38347e-17
4.0915e-11
-2.24395e-09
-7.65711e-18
4.26118e-11
-2.38176e-09
-3.29862e-17
4.39969e-11
-2.51891e-09
-4.42475e-17
4.50053e-11
-2.65258e-09
-3.8669e-17
4.55719e-11
-2.78054e-09
-2.12995e-17
4.56338e-11
-2.90217e-09
1.11917e-18
4.51348e-11
-3.01205e-09
3.28835e-17
4.40265e-11
-3.10867e-09
8.52164e-17
4.22747e-11
-3.18695e-09
1.22482e-16
3.98631e-11
-3.24261e-09
1.47578e-16
3.67972e-11
-3.27079e-09
1.62681e-16
3.31132e-11
-3.26309e-09
1.67558e-16
2.8879e-11
-3.21203e-09
1.59856e-16
2.41997e-11
-3.10787e-09
1.4426e-16
1.92202e-11
-2.93867e-09
1.17312e-16
1.41293e-11
-2.69272e-09
8.96152e-17
9.17752e-12
-2.35995e-09
5.702e-17
4.73301e-12
-1.92761e-09
3.25101e-17
1.38717e-12
-1.36338e-09
1.17478e-17
-5.64708e-10
2.18903e-18
-3.38605e-17
-5.56429e-14
-1.38957e-17
5.86403e-16
-6.61226e-13
-3.9187e-17
3.19102e-15
-2.18428e-12
-8.15125e-17
1.14027e-14
-4.76118e-12
7.62241e-17
2.46999e-14
-8.5018e-12
-8.3873e-17
4.82206e-14
-1.35143e-11
-3.97743e-17
8.59609e-14
-1.99109e-11
2.89211e-16
1.33018e-13
-2.7815e-11
2.36502e-16
2.09393e-13
-3.73498e-11
3.0034e-16
3.0181e-13
-4.86642e-11
-5.92145e-16
4.2972e-13
-6.18938e-11
4.05882e-16
5.88336e-13
-7.72015e-11
-2.39404e-16
7.89429e-13
-9.47637e-11
1.25013e-16
1.03592e-12
-1.14744e-10
-7.16404e-17
1.3353e-12
-1.37345e-10
-1.10124e-16
1.69552e-12
-1.62749e-10
-8.84967e-17
2.12351e-12
-1.91168e-10
-9.53674e-17
2.62774e-12
-2.22817e-10
-5.76483e-17
3.21561e-12
-2.57921e-10
-5.75061e-17
3.8952e-12
-2.96697e-10
-6.45123e-17
4.67493e-12
-3.39379e-10
-5.41093e-17
5.56299e-12
-3.86227e-10
-4.45627e-17
6.56703e-12
-4.37422e-10
-3.83532e-17
7.69428e-12
-4.93256e-10
-3.36936e-17
8.95105e-12
-5.53905e-10
-2.81789e-17
1.03427e-11
-6.19618e-10
-2.14983e-17
1.1873e-11
-6.90598e-10
-1.2778e-17
1.3544e-11
-7.66955e-10
4.26312e-18
1.53555e-11
-8.48978e-10
2.20242e-17
1.73046e-11
-9.36634e-10
4.71397e-17
1.93849e-11
-1.03009e-09
6.81772e-17
2.15868e-11
-1.12936e-09
9.11152e-17
2.3896e-11
-1.23438e-09
1.07806e-16
2.62937e-11
-1.34504e-09
1.18818e-16
2.87558e-11
-1.46114e-09
1.21085e-16
3.12527e-11
-1.58241e-09
1.09057e-16
3.37487e-11
-1.70838e-09
8.58576e-17
3.62028e-11
-1.83855e-09
5.95688e-17
3.85673e-11
-1.9722e-09
4.78692e-17
4.07887e-11
-2.10797e-09
3.10134e-17
4.28084e-11
-2.24597e-09
-1.17291e-18
4.45636e-11
-2.38351e-09
-2.86839e-17
4.59877e-11
-2.52033e-09
-4.16356e-17
4.70128e-11
-2.6536e-09
-3.90421e-17
4.75712e-11
-2.7811e-09
-2.28744e-17
4.75974e-11
-2.9022e-09
-2.57245e-18
4.70335e-11
-3.01149e-09
2.86436e-17
4.58299e-11
-3.10747e-09
7.56025e-17
4.39522e-11
-3.18508e-09
1.13225e-16
4.13849e-11
-3.24004e-09
1.37711e-16
3.81357e-11
-3.26754e-09
1.55087e-16
3.42445e-11
-3.2592e-09
1.59293e-16
2.97854e-11
-3.20757e-09
1.53829e-16
2.48726e-11
-3.10295e-09
1.37268e-16
1.96647e-11
-2.93346e-09
1.12354e-16
1.43701e-11
-2.68742e-09
8.38102e-17
9.26326e-12
-2.35484e-09
5.33578e-17
4.73309e-12
-1.92308e-09
2.85382e-17
1.36955e-12
-1.36002e-09
9.75343e-18
-5.63339e-10
-2.56651e-19
1.13708e-17
-5.57302e-14
-8.70255e-18
5.91864e-16
-6.62244e-13
-5.27761e-17
3.34542e-15
-2.18772e-12
-8.18583e-17
1.16236e-14
-4.7689e-12
6.82887e-17
2.5311e-14
-8.5162e-12
-8.78437e-17
4.89502e-14
-1.35382e-11
-5.63782e-17
8.84758e-14
-1.99476e-11
2.13825e-16
1.38478e-13
-2.78677e-11
1.18384e-16
2.15946e-13
-3.74232e-11
3.81166e-16
3.10521e-13
-4.87618e-11