/*--------------------------------*- C++ -*----------------------------------*\
| =========                 |                                                 |
| \\      /  F ield         | OpenFOAM: The Open Source CFD Toolbox           |
|  \\    /   O peration     | Version:  v2012                                 |
|   \\  /    A nd           | Website:  www.openfoam.com                      |
|    \\/     M anipulation  |                                                 |
\*---------------------------------------------------------------------------*/
FoamFile
{
    version     2.0;
    format      ascii;
    class       volScalarField;
    location    "0.55";
    object      alpha.water;
}
// * * * * * * * * * * * * * * * * * * * * * * * * * * * * * * * * * * * * * //

dimensions      [0 0 0 0 0 0 0];


internalField   nonuniform List<scalar> 
3352
(
-1.01433e-173
-2.64958e-165
-7.49968e-158
-3.67705e-150
-1.27437e-143
-4.75264e-134
-5.65523e-125
-2.99697e-117
-3.24977e-108
-3.48155e-104
-7.63624e-101
-3.81033e-97
-2.18428e-93
-2.05614e-90
-4.77369e-87
-9.48006e-85
-1.77033e-80
-2.58132e-77
-7.88427e-75
-1.16056e-73
-5.28512e-73
-1.25047e-72
-1.84366e-72
-1.84592e-72
-1.3885e-72
-3.19787e-72
-2.33913e-70
-2.50111e-69
-9.16291e-69
-1.77164e-68
-1.00977e-67
-1.69062e-66
-4.10379e-66
-4.46831e-66
-2.80071e-66
-1.12644e-66
-3.0884e-67
-5.99623e-68
-8.45638e-69
-2.29026e-171
-1.95374e-163
-2.52431e-156
-2.24041e-148
-4.29967e-142
-2.79e-132
-1.32494e-123
-6.42938e-116
-1.0092e-106
-9.42822e-103
-1.88703e-99
-8.38572e-96
-4.32643e-92
-3.63343e-89
-7.67517e-86
-1.40712e-83
-2.23579e-79
-3.08807e-76
-9.00084e-74
-1.27094e-72
-5.593e-72
-1.28421e-71
-1.84375e-71
-1.80306e-71
-1.31575e-71
-2.52982e-71
-1.75244e-69
-1.85203e-68
-6.70539e-68
-1.28348e-67
-7.61346e-67
-1.30579e-65
-3.17924e-65
-3.47287e-65
-2.18705e-65
-8.85366e-66
-2.44779e-66
-4.80106e-67
-6.85252e-68
-4.37349e-169
-1.41866e-161
-7.59109e-155
-1.30257e-146
-1.37301e-140
-1.48493e-130
-2.83776e-122
-1.33385e-114
-3.0933e-105
-2.52027e-101
-4.6011e-98
-1.82025e-94
-8.45243e-91
-6.33626e-88
-1.21746e-84
-2.06003e-82
-2.78374e-78
-3.64174e-75
-1.01286e-72
-1.37198e-71
-5.83553e-71
-1.30056e-70
-1.81864e-70
-1.73747e-70
-1.23248e-70
-1.99124e-70
-1.29272e-68
-1.35046e-67
-4.83318e-67
-9.16086e-67
-5.66018e-66
-9.95073e-65
-2.43091e-64
-2.66486e-64
-1.68661e-64
-6.87423e-65
-1.91698e-65
-3.79943e-66
-5.4898e-67
-6.84469e-167
-9.55665e-160
-2.02351e-153
-6.82964e-145
-4.02456e-139
-7.05703e-129
-5.50713e-121
-2.6846e-113
-9.35698e-104
-6.64894e-100
-1.10668e-96
-3.89604e-93
-1.62834e-89
-1.09003e-86
-1.90458e-83
-2.97361e-81
-3.4161e-77
-4.23242e-74
-1.12315e-71
-1.45954e-70
-6.00137e-70
-1.29854e-69
-1.76893e-69
-1.65135e-69
-1.1406e-69
-1.56119e-69
-9.38679e-68
-9.69426e-67
-3.43037e-66
-6.44023e-66
-4.14806e-65
-7.47989e-64
-1.83412e-63
-2.01841e-63
-1.28424e-63
-5.27133e-64
-1.48311e-64
-2.97117e-65
-4.34717e-66
-1.82676e-164
-5.32924e-158
-4.70824e-152
-3.06193e-143
-1.05208e-137
-2.93511e-127
-9.59076e-120
-5.2734e-112
-2.79277e-102
-1.73084e-98
-2.62517e-95
-8.22074e-92
-3.09254e-88
-1.84928e-85
-2.93755e-82
-4.23089e-80
-4.13095e-76
-4.84657e-73
-1.22704e-70
-1.5298e-69
-6.08213e-69
-1.27792e-68
-1.69626e-68
-1.54766e-68
-1.04236e-68
-1.22054e-68
-6.70766e-67
-6.84889e-66
-2.39676e-65
-4.45824e-65
-2.99571e-64
-5.54484e-63
-1.3652e-62
-1.50867e-62
-9.65287e-63
-3.99132e-63
-1.13331e-63
-2.29545e-64
-3.40172e-65
-4.98644e-163
-2.92822e-156
-9.2899e-151
-1.10537e-141
-2.38336e-136
-1.04031e-125
-1.48941e-118
-1.02364e-110
-8.22402e-101
-4.44528e-97
-6.1399e-94
-1.70955e-90
-5.78856e-87
-3.09288e-84
-4.46537e-81
-5.93139e-79
-4.92112e-75
-5.46667e-72
-1.32034e-69
-1.57936e-68
-6.07264e-68
-1.23928e-67
-1.60319e-67
-1.42992e-67
-9.40227e-68
-9.52302e-68
-4.71567e-66
-4.76065e-65
-1.64799e-64
-3.03804e-64
-2.13137e-63
-4.05252e-62
-1.00224e-61
-1.11257e-61
-7.16049e-62
-2.98341e-62
-8.55141e-63
-1.7516e-63
-2.62983e-64
-6.10472e-161
-7.95756e-155
-1.47197e-149
-2.94846e-140
-4.52556e-135
-3.02485e-124
-2.08952e-117
-2.01425e-109
-2.38893e-99
-1.12615e-95
-1.4156e-92
-3.50294e-89
-1.0676e-85
-5.09782e-83
-6.68776e-80
-8.19075e-78
-5.77391e-74
-6.07217e-71
-1.39895e-68
-1.60561e-67
-5.97173e-67
-1.18394e-66
-1.49302e-66
-1.30207e-66
-8.36714e-67
-7.41943e-67
-3.26068e-65
-3.25472e-64
-1.11478e-63
-2.03731e-63
-1.49343e-62
-2.91933e-61
-7.25504e-61
-8.09278e-61
-5.24081e-61
-2.2009e-61
-6.36996e-62
-1.31985e-62
-2.00809e-63
-9.58333e-161
-1.99167e-154
-1.71897e-148
-4.99953e-139
-6.92194e-134
-6.82616e-123
-2.90904e-116
-4.21183e-108
-6.84444e-98
-2.81371e-94
-3.2165e-91
-7.07047e-88
-1.93954e-84
-8.27775e-82
-9.86496e-79
-1.11371e-76
-6.67022e-73
-6.63998e-70
-1.45907e-67
-1.60687e-66
-5.78222e-66
-1.11393e-65
-1.36966e-65
-1.16821e-65
-7.34285e-66
-5.77319e-66
-2.21687e-64
-2.18782e-63
-7.41627e-63
-1.34403e-62
-1.03021e-61
-2.07225e-60
-5.177e-60
-5.80481e-60
-3.78363e-60
-1.60202e-60
-4.68309e-61
-9.818e-62
-1.5141e-62
-3.44147e-159
-1.5682e-153
-1.33495e-147
-3.75208e-138
-8.25156e-133
-1.10577e-121
-5.2957e-115
-9.97789e-107
-1.93371e-96
-6.93197e-93
-7.20084e-90
-1.40545e-86
-3.46999e-83
-1.32375e-80
-1.4327e-77
-1.49058e-75
-7.585e-72
-7.14604e-69
-1.49754e-66
-1.5826e-65
-5.51099e-65
-1.03187e-64
-1.23735e-64
-1.03238e-64
-6.35199e-65
-4.48541e-65
-1.48152e-63
-1.44547e-62
-4.85052e-62
-8.7196e-62
-6.99399e-61
-1.44899e-59
-3.6405e-59
-4.10466e-59
-2.69373e-59
-1.15026e-59
-3.39711e-60
-7.20797e-61
-1.12699e-61
-5.44739e-159
-6.23548e-153
-6.55819e-147
-5.39288e-140
-8.99989e-132
-1.2736e-120
-1.55002e-113
-2.7938e-105
-5.38676e-95
-1.68367e-91
-1.5879e-88
-2.75044e-85
-6.11166e-82
-2.08402e-79
-2.04786e-76
-1.96296e-74
-8.48749e-71
-7.56658e-68
-1.51204e-65
-1.53346e-64
-5.16847e-64
-9.40779e-64
-1.10045e-63
-8.98365e-64
-5.41415e-64
-3.47728e-64
-9.72941e-63
-9.38292e-62
-3.11771e-61
-5.56113e-61
-4.67113e-60
-9.97738e-59
-2.52206e-58
-2.86045e-58
-1.89064e-58
-8.14452e-59
-2.43079e-59
-5.22124e-60
-8.27868e-61
-4.97221e-174
-1.84973e-167
-2.57863e-156
-1.5876e-138
-2.24855e-130
-2.25162e-119
-5.88416e-112
-9.05888e-104
-1.47923e-93
-4.03069e-90
-3.44815e-87
-5.29776e-84
-1.05942e-80
-3.22889e-78
-2.87985e-75
-2.5426e-73
-9.34277e-70
-7.88e-67
-1.50137e-64
-1.46128e-63
-4.76811e-63
-8.4392e-63
-9.63155e-63
-7.69507e-63
-4.54511e-63
-2.68704e-63
-6.27698e-62
-5.98175e-61
-1.9686e-60
-3.48529e-60
-3.06794e-59
-6.76315e-58
-1.72077e-57
-1.96393e-57
-1.3078e-57
-5.68518e-58
-1.7152e-58
-3.7306e-59
-5.99996e-60
-1.62379e-172
-2.48085e-165
-3.55608e-154
-1.25779e-136
-1.2972e-128
-9.93353e-118
-2.35539e-110
-3.20207e-102
-4.0041e-92
-9.50809e-89
-7.3716e-86
-1.00401e-82
-1.80678e-79
-4.92144e-77
-3.98282e-74
-3.23804e-72
-1.01133e-68
-8.06845e-66
-1.46552e-63
-1.36898e-62
-4.32538e-62
-7.44575e-62
-8.29305e-62
-6.48584e-62
-3.75636e-62
-2.0669e-62
-3.97725e-61
-3.7437e-60
-1.2206e-59
-2.1456e-59
-1.9807e-58
-4.51138e-57
-1.15588e-56
-1.32803e-56
-8.91277e-57
-3.91108e-57
-1.19311e-57
-2.62842e-58
-4.28896e-59
-4.63148e-170
-3.40235e-163
-4.84634e-152
-1.07663e-134
-8.25627e-127
-4.35063e-116
-9.39761e-109
-1.17055e-100
-1.06791e-90
-2.20953e-87
-1.55087e-84
-1.87153e-81
-3.03056e-78
-7.37654e-76
-5.41489e-73
-4.05274e-71
-1.07617e-67
-8.11953e-65
-1.40576e-62
-1.26038e-61
-3.85684e-61
-6.4587e-61
-7.022e-61
-5.3771e-61
-3.05502e-61
-1.58016e-61
-2.47444e-60
-2.29914e-59
-7.42837e-59
-1.2969e-58
-1.25647e-57
-2.96031e-56
-7.64144e-56
-8.84163e-56
-5.98245e-56
-2.65084e-56
-8.17913e-57
-1.82552e-57
-3.02296e-58
-4.34876e-168
-4.33793e-161
-6.52662e-150
-9.16209e-133
-5.21431e-125
-1.89391e-114
-3.70896e-107
-4.29598e-99
-2.80541e-89
-5.05681e-86
-3.2098e-83
-3.43011e-80
-4.99747e-77
-1.08681e-74
-7.23398e-72
-4.98296e-70
-1.1253e-66
-8.0274e-64
-1.32455e-61
-1.13991e-60
-3.37904e-60
-5.50601e-60
-5.84471e-60
-4.38316e-60
-2.44394e-60
-1.19867e-60
-1.51127e-59
-1.38492e-58
-4.4353e-58
-7.69335e-58
-7.82806e-57
-1.91013e-55
-4.96987e-55
-5.79353e-55
-3.95357e-55
-1.76951e-55
-5.52392e-56
-1.24942e-56
-2.10015e-57
-7.6272e-166
-5.10136e-159
-8.68342e-148
-7.69706e-131
-3.25834e-123
-8.20272e-113
-1.44715e-105
-1.56147e-97
-7.25734e-88
-1.13941e-84
-6.53306e-82
-6.17891e-79
-8.09888e-76
-1.57331e-73
-9.49213e-71
-6.01597e-69
-1.15579e-65
-7.79365e-63
-1.22541e-60
-1.01233e-59
-2.90755e-59
-4.61105e-59
-4.7801e-59
-3.51155e-59
-1.9222e-59
-9.00715e-60
-9.05979e-59
-8.17849e-58
-2.5969e-57
-4.47686e-57
-4.78763e-56
-1.21146e-54
-3.17874e-54
-3.73489e-54
-2.57149e-54
-1.16294e-54
-3.6741e-55
-8.42386e-56
-1.43766e-56
-1.43602e-163
-5.48038e-157
-1.14118e-145
-6.38377e-129
-2.01318e-121
-3.53845e-111
-5.58303e-104
-5.59103e-96
-1.84822e-86
-2.52675e-83
-1.30711e-80
-1.0935e-77
-1.28932e-74
-2.23686e-72
-1.22276e-69
-7.12846e-68
-1.16555e-64
-7.42738e-62
-1.11264e-59
-8.82381e-59
-2.45604e-58
-3.79175e-58
-3.83962e-58
-2.7637e-58
-1.48571e-58
-6.69345e-59
-5.33057e-58
-4.73255e-57
-1.49028e-56
-2.55427e-56
-2.87303e-55
-7.54905e-54
-1.99861e-53
-2.3679e-53
-1.6455e-53
-7.52189e-54
-2.40579e-54
-5.59293e-55
-9.69378e-56
-1.25491e-161
-5.31283e-155
-1.48096e-143
-5.2263e-127
-1.22936e-119
-1.52174e-109
-2.12982e-102
-1.9682e-94
-4.63204e-85
-5.51258e-82
-2.56974e-79
-1.90041e-76
-2.01543e-73
-3.12195e-71
-1.5456e-68
-8.286e-67
-1.1535e-63
-6.94472e-61
-9.91007e-59
-7.54519e-58
-2.0357e-57
-3.06021e-57
-3.0277e-57
-2.13579e-57
-1.12793e-57
-4.91148e-58
-3.07843e-57
-2.68205e-56
-8.37797e-56
-1.42813e-55
-1.69079e-54
-4.61974e-53
-1.23474e-52
-1.47578e-52
-1.03551e-52
-4.78627e-53
-1.55025e-53
-3.65536e-54
-6.4358e-55
-1.13352e-159
-4.57502e-153
-1.89742e-141
-4.22363e-125
-7.41711e-118
-6.53021e-108
-8.03472e-101
-6.80755e-93
-1.14201e-83
-1.18272e-80
-4.96192e-78
-3.24185e-75
-3.09204e-72
-4.27527e-70
-1.91606e-67
-9.44333e-66
-1.11979e-62
-6.36767e-60
-8.65429e-58
-6.32625e-57
-1.6548e-56
-2.4228e-56
-2.34258e-56
-1.61989e-56
-8.40658e-57
-3.55339e-57
-1.74529e-56
-1.48783e-55
-4.61132e-55
-7.82064e-55
-9.75306e-54
-2.77511e-52
-7.49213e-52
-9.03788e-52
-6.40585e-52
-2.99494e-52
-9.82678e-53
-2.35077e-53
-4.20546e-54
-9.01298e-158
-3.42709e-151
-2.39923e-139
-3.36927e-123
-4.41958e-116
-2.79796e-106
-2.99762e-99
-2.31298e-91
-2.76869e-82
-2.49432e-79
-9.40555e-77
-5.42548e-74
-4.65342e-71
-5.74151e-69
-2.32831e-66
-1.05463e-64
-1.06575e-61
-5.72248e-59
-7.40605e-57
-5.19821e-56
-1.31856e-55
-1.88066e-55
-1.77748e-55
-1.20515e-55
-6.14767e-56
-2.53139e-56
-9.71747e-56
-8.07449e-55
-2.48357e-54
-4.1922e-54
-5.51125e-53
-1.63556e-51
-4.46284e-51
-5.43622e-51
-3.89375e-51
-1.84211e-51
-6.12494e-52
-1.48698e-52
-2.70366e-53
-7.06097e-156
-2.17003e-149
-2.99321e-137
-2.65314e-121
-2.59991e-114
-1.19738e-104
-1.10609e-97
-7.71949e-90
-6.59779e-81
-5.16842e-78
-1.74932e-75
-8.90335e-73
-6.86627e-70
-7.55756e-68
-2.77169e-65
-1.15351e-63
-9.93901e-61
-5.03757e-58
-6.20721e-56
-4.18361e-55
-1.02929e-54
-1.4305e-54
-1.32191e-54
-8.79004e-55
-4.4087e-55
-1.77345e-55
-5.31685e-55
-4.28452e-54
-1.30807e-53
-2.1984e-53
-3.04905e-52
-9.4526e-51
-2.60844e-50
-3.21002e-50
-2.32451e-50
-1.11322e-50
-3.75218e-51
-9.24744e-52
-1.70935e-52
-8.64035e-154
-1.11415e-147
-3.68299e-135
-2.06233e-119
-1.50939e-112
-5.11771e-103
-4.03666e-96
-2.53048e-88
-1.54469e-79
-1.05168e-76
-3.19058e-74
-1.43185e-71
-9.92768e-69
-9.745e-67
-3.23043e-64
-1.23489e-62
-9.07705e-60
-4.34146e-57
-5.09217e-55
-3.29596e-54
-7.86685e-54
-1.0656e-53
-9.63019e-54
-6.28169e-54
-3.09858e-54
-1.22046e-54
-2.86128e-54
-2.22156e-53
-6.73301e-53
-1.1271e-52
-1.65051e-51
-5.35426e-50
-1.49515e-49
-1.85987e-49
-1.36224e-49
-6.60668e-50
-2.25817e-50
-5.65156e-51
-1.06233e-51
-1.00709e-152
-4.34401e-146
-4.46777e-133
-1.58258e-117
-8.64447e-111
-2.18366e-101
-1.45704e-94
-8.14647e-87
-3.55135e-78
-2.10036e-75
-5.70339e-73
-2.25533e-70
-1.4057e-67
-1.23018e-65
-3.68396e-63
-1.29314e-61
-8.11323e-59
-3.66063e-56
-4.08633e-54
-2.54027e-53
-5.88334e-53
-7.76905e-53
-6.86807e-53
-4.39575e-53
-2.13302e-53
-8.24147e-54
-1.51635e-53
-1.12492e-52
-3.38473e-52
-5.64576e-52
-8.73646e-51
-2.97072e-49
-8.40023e-49
-1.0568e-48
-7.83278e-49
-3.84863e-49
-1.33448e-49
-3.39265e-50
-6.48688e-51
-6.17e-151
-1.14184e-144
-5.34134e-131
-1.199e-115
-4.88188e-109
-9.29343e-100
-5.20121e-93
-2.57517e-85
-8.01356e-77
-4.11478e-74
-9.98605e-72
-3.4771e-69
-1.94799e-66
-1.51939e-64
-4.10791e-62
-1.32369e-60
-7.09265e-58
-3.01783e-55
-3.20552e-53
-1.91407e-52
-4.30253e-52
-5.54017e-52
-4.79205e-52
-3.0101e-52
-1.43723e-52
-5.45532e-53
-7.92572e-53
-5.55944e-52
-1.66063e-51
-2.76112e-51
-4.5188e-50
-1.61354e-48
-4.62327e-48
-5.88573e-48
-4.4166e-48
-2.19952e-48
-7.73983e-49
-1.99949e-49
-3.89001e-50
-2.38884e-149
-1.51528e-143
-6.29107e-129
-8.97061e-114
-2.7177e-107
-3.94037e-98
-1.83599e-91
-7.99129e-84
-1.77381e-75
-7.90282e-73
-1.71148e-70
-5.24361e-68
-2.6402e-65
-1.83483e-63
-4.47587e-61
-1.32357e-59
-6.06027e-57
-2.43082e-54
-2.45639e-52
-1.40904e-51
-3.07472e-51
-3.86159e-51
-3.2689e-51
-2.01569e-51
-9.47238e-52
-3.53627e-52
-4.09329e-52
-2.67991e-51
-7.94572e-51
-1.31744e-50
-2.28231e-49
-8.57386e-48
-2.49115e-47
-3.21112e-47
-2.44079e-47
-1.23257e-47
-4.4034e-48
-1.15635e-48
-2.28974e-49
-5.50186e-157
-5.02095e-148
-7.29651e-127
-6.62915e-112
-1.49055e-105
-1.66184e-96
-6.40692e-90
-2.43367e-82
-3.84929e-74
-1.48705e-71
-2.86923e-69
-7.72932e-67
-3.49734e-64
-2.16494e-62
-4.76175e-60
-1.29185e-58
-5.05741e-56
-1.91166e-53
-1.83743e-51
-1.01266e-50
-2.14565e-50
-2.62898e-50
-2.17854e-50
-1.31902e-50
-6.1021e-51
-2.24268e-51
-2.09301e-51
-1.25932e-50
-3.70485e-50
-6.12812e-50
-1.12478e-48
-4.45419e-47
-1.31333e-46
-1.71515e-46
-1.32126e-46
-6.76893e-47
-2.4561e-47
-6.55872e-48
-1.32226e-48
-1.79032e-155
-6.9389e-146
-8.33006e-125
-4.84061e-110
-8.05114e-104
-6.95937e-95
-2.20957e-88
-7.27079e-81
-8.18447e-73
-2.73964e-70
-4.70179e-68
-1.11282e-65
-4.52447e-63
-2.49403e-61
-4.94256e-59
-1.22983e-57
-4.11896e-55
-1.46668e-52
-1.34062e-50
-7.09986e-50
-1.46102e-49
-1.74687e-49
-1.41738e-49
-8.42827e-50
-3.83936e-50
-1.3902e-50
-1.06169e-50
-5.76544e-50
-1.68203e-49
-2.77663e-49
-5.40466e-48
-2.26076e-46
-6.76994e-46
-8.96319e-46
-7.00173e-46
-3.64078e-46
-1.34233e-46
-3.64641e-47
-7.48693e-48
-1.75214e-153
-9.32613e-144
-9.35725e-123
-3.49384e-108
-4.28113e-102
-2.88876e-93
-7.52698e-87
-2.1301e-79
-1.70401e-71
-4.93846e-69
-7.52555e-67
-1.56365e-64
-5.71196e-62
-2.80304e-60
-5.00128e-58
-1.14103e-56
-3.2713e-54
-1.09692e-51
-9.53297e-50
-4.85219e-49
-9.69962e-49
-1.13199e-48
-8.99541e-49
-5.25461e-49
-2.35749e-49
-8.41522e-50
-5.35157e-50
-2.57036e-49
-7.42941e-49
-1.22442e-48
-2.52998e-47
-1.12027e-45
-3.40988e-45
-4.57992e-45
-3.63e-45
-1.91679e-45
-7.18404e-46
-1.986e-46
-4.1544e-47
-1.97985e-151
-1.21707e-141
-1.03381e-120
-2.4941e-106
-2.24022e-100
-1.18635e-91
-2.53095e-85
-6.11563e-78
-3.47165e-70
-8.70351e-68
-1.17556e-65
-2.14252e-63
-7.03128e-61
-3.07096e-59
-4.92926e-57
-1.03085e-55
-2.53139e-53
-7.99022e-51
-6.60099e-49
-3.22971e-48
-6.27325e-48
-7.14779e-48
-5.56429e-48
-3.19371e-48
-1.41152e-48
-4.96953e-49
-2.68341e-49
-1.11544e-48
-3.18966e-48
-5.2501e-48
-1.15277e-46
-5.4155e-45
-1.67697e-44
-2.28662e-44
-1.83996e-44
-9.87154e-45
-3.76282e-45
-1.05902e-45
-2.25774e-46
-1.9746e-149
-1.5411e-139
-1.12288e-118
-1.76177e-104
-1.15319e-98
-4.81102e-90
-8.39487e-84
-1.72006e-76
-6.91649e-69
-1.49858e-66
-1.7907e-64
-2.8602e-62
-8.43216e-60
-3.27695e-58
-4.72782e-56
-9.06042e-55
-1.90684e-52
-5.66365e-50
-4.44692e-48
-2.09193e-47
-3.94902e-47
-4.3941e-47
-3.35175e-47
-1.89069e-47
-8.23348e-48
-2.86024e-48
-1.33873e-48
-4.71054e-48
-1.32984e-47
-2.18684e-47
-5.10804e-46
-2.55189e-44
-8.04681e-44
-1.11471e-43
-9.11205e-44
-4.96984e-44
-1.92759e-44
-5.52548e-45
-1.20099e-45
-1.63891e-147
-1.89252e-137
-1.19852e-116
-1.23218e-102
-5.83832e-97
-1.92322e-88
-2.7442e-82
-4.73591e-75
-1.34646e-67
-2.51884e-65
-2.65762e-63
-3.71669e-61
-9.84256e-59
-3.40274e-57
-4.40865e-55
-7.74009e-54
-1.39693e-51
-3.9028e-49
-2.91184e-47
-1.31731e-46
-2.41739e-46
-2.62746e-46
-1.96429e-46
-1.08921e-46
-4.67448e-47
-1.60282e-47
-6.63901e-48
-1.93571e-47
-5.37903e-47
-8.8397e-47
-2.19908e-45
-1.17121e-43
-3.76441e-43
-5.30202e-43
-4.4058e-43
-2.44428e-43
-9.65139e-44
-2.81904e-44
-6.24938e-45
-1.09396e-145
-2.25393e-135
-1.25655e-114
-8.53733e-101
-2.90651e-95
-7.56602e-87
-8.83219e-81
-1.27569e-73
-2.55926e-66
-4.12948e-64
-3.83943e-62
-4.69664e-60
-1.11721e-57
-3.43519e-56
-3.99286e-54
-6.4203e-53
-9.94287e-51
-2.61195e-48
-1.85142e-46
-8.05684e-46
-1.43762e-45
-1.5267e-45
-1.11891e-45
-6.10022e-46
-2.58053e-46
-8.73597e-47
-3.26645e-47
-7.74197e-47
-2.10873e-46
-3.4639e-46
-9.18901e-45
-5.23088e-43
-1.71552e-42
-2.4587e-42
-2.07835e-42
-1.17357e-42
-4.72004e-43
-1.40545e-43
-3.179e-44
-6.11161e-144
-2.60512e-133
-1.29338e-112
-5.8624e-99
-1.42274e-93
-2.92475e-85
-2.79592e-79
-3.35949e-72
-4.74535e-65
-6.59731e-63
-5.39421e-61
-5.76571e-59
-1.23193e-56
-3.36835e-55
-3.50869e-53
-5.16564e-52
-6.86857e-50
-1.69594e-47
-1.14187e-45
-4.78123e-45
-8.29745e-45
-8.61154e-45
-6.18863e-45
-3.31804e-45
-1.38376e-45
-4.62604e-46
-1.58994e-46
-3.0155e-46
-8.00398e-46
-1.31434e-45
-3.72294e-44
-2.27141e-42
-7.60958e-42
-1.11074e-41
-9.55812e-42
-5.49678e-42
-2.25312e-42
-6.84261e-43
-1.57987e-43
-2.94236e-142
-2.92787e-131
-1.30629e-110
-3.99029e-97
-6.84789e-92
-1.10936e-83
-8.69595e-78
-8.6436e-71
-8.57519e-64
-1.02611e-61
-7.36288e-60
-6.86905e-58
-1.31832e-55
-3.20477e-54
-2.98825e-52
-4.02697e-51
-4.60001e-49
-1.06716e-46
-6.82386e-45
-2.75013e-44
-4.64293e-44
-4.71046e-44
-3.32008e-44
-1.75088e-44
-7.19977e-45
-2.37733e-45
-7.63015e-46
-1.14505e-45
-2.93839e-45
-4.8234e-45
-1.46089e-43
-9.58053e-42
-3.28259e-41
-4.88439e-41
-4.28211e-41
-2.50975e-41
-1.04907e-41
-3.25115e-42
-7.66571e-43
-7.14992e-141
-3.21236e-129
-1.29377e-108
-2.69186e-95
-3.24122e-90
-4.12331e-82
-2.65438e-76
-2.17129e-69
-1.50864e-62
-1.55208e-60
-9.75352e-59
-7.93296e-57
-1.36761e-54
-2.95553e-53
-2.46382e-51
-3.03825e-50
-2.98322e-48
-6.5003e-46
-3.94686e-44
-1.53154e-43
-2.51599e-43
-2.49587e-43
-1.72575e-43
-8.95324e-44
-3.6307e-44
-1.18424e-44
-3.59688e-45
-4.24559e-45
-1.04227e-44
-1.70983e-44
-5.54583e-43
-3.92136e-41
-1.37589e-40
-2.08905e-40
-1.86741e-40
-1.11625e-40
-4.76111e-41
-1.50651e-41
-3.62917e-42
-3.21695e-144
-3.46457e-127
-1.25568e-106
-1.79878e-93
-1.50884e-88
-1.49989e-80
-7.94255e-75
-5.32181e-68
-2.58114e-61
-2.28047e-59
-1.25249e-57
-8.87065e-56
-1.37373e-53
-2.63908e-52
-1.96427e-50
-2.21585e-49
-1.8712e-47
-3.82819e-45
-2.2068e-43
-8.24822e-43
-1.31884e-42
-1.27953e-42
-8.68096e-43
-4.43139e-43
-1.77235e-43
-5.71103e-44
-1.65931e-44
-1.54042e-44
-3.56853e-44
-5.84705e-44
-2.03429e-42
-1.55598e-40
-5.59851e-40
-8.68281e-40
-7.92091e-40
-4.83258e-40
-2.10467e-40
-6.80344e-41
-1.67534e-41
-4.33893e-142
-3.71306e-125
-1.19341e-104
-1.18953e-91
-6.90915e-87
-5.33298e-79
-2.32692e-73
-1.27184e-66
-4.28952e-60
-3.25077e-58
-1.55719e-56
-9.59181e-55
-1.33439e-52
-2.27895e-51
-1.51234e-49
-1.5602e-48
-1.13372e-46
-2.17702e-44
-1.19129e-42
-4.2905e-42
-6.67882e-42
-6.33876e-42
-4.22056e-42
-2.12018e-42
-8.36415e-43
-2.6627e-43
-7.4637e-44
-5.48343e-44
-1.17822e-43
-1.92621e-43
-7.20138e-42
-5.97908e-40
-2.20938e-39
-3.50403e-39
-3.26518e-39
-2.03488e-39
-9.05543e-40
-2.99226e-40
-7.53598e-41
-5.25248e-140
-4.01312e-123
-1.10984e-102
-7.77446e-90
-3.11244e-85
-1.85105e-77
-6.66596e-72
-2.9617e-65
-6.91593e-59
-4.48996e-57
-1.87193e-55
-1.00155e-53
-1.25171e-51
-1.90076e-50
-1.12295e-48
-1.05914e-47
-6.62611e-46
-1.19384e-43
-6.2007e-42
-2.15269e-41
-3.26318e-41
-3.03031e-41
-1.98053e-41
-9.79189e-42
-3.81048e-42
-1.19842e-42
-3.26204e-43
-1.92021e-43
-3.7483e-43
-6.10402e-43
-2.45695e-41
-2.22252e-39
-8.44769e-39
-1.37169e-38
-1.30691e-38
-8.32668e-39
-3.78898e-39
-1.28066e-39
-3.30049e-40
-6.03868e-138
-4.44637e-121
-1.00916e-100
-5.01384e-88
-1.37944e-83
-6.26359e-76
-1.86464e-70
-6.71522e-64
-1.08045e-57
-6.00096e-56
-2.17264e-54
-1.00837e-52
-1.13218e-50
-1.52906e-49
-8.02959e-48
-6.92191e-47
-3.73035e-45
-6.30387e-43
-3.10739e-41
-1.04025e-40
-1.53592e-40
-1.39588e-40
-8.95649e-41
-4.35854e-41
-1.67311e-41
-5.19825e-42
-1.38066e-42
-6.63005e-43
-1.1482e-42
-1.85778e-42
-8.06733e-41
-7.98174e-39
-3.126e-38
-5.20321e-38
-5.074e-38
-3.30792e-38
-1.54035e-38
-5.32888e-39
-1.40615e-39
-8.45703e-136
-5.11469e-119
-8.96613e-99
-3.18499e-86
-6.01502e-82
-2.06343e-74
-5.08545e-69
-1.48122e-62
-1.6336e-56
-7.7509e-55
-2.431e-53
-9.77329e-52
-9.85921e-50
-1.18464e-48
-5.52027e-47
-4.3481e-46
-2.01975e-44
-3.19998e-42
-1.49693e-40
-4.83379e-40
-6.9533e-40
-6.18554e-40
-3.89692e-40
-1.86665e-40
-7.06808e-41
-2.16908e-41
-5.64115e-42
-2.25973e-42
-3.38505e-42
-5.42113e-42
-2.54519e-40
-2.76565e-38
-1.1181e-37
-1.9103e-37
-1.90871e-37
-1.27444e-37
-6.07773e-38
-2.15359e-38
-5.8219e-39
-2.04125e-133
-6.12833e-117
-7.77907e-97
-1.9892e-84
-2.58049e-80
-6.60882e-73
-1.35023e-67
-3.17546e-61
-2.38733e-55
-9.66183e-54
-2.61822e-52
-9.10337e-51
-8.25223e-49
-8.8256e-48
-3.64273e-46
-2.62075e-45
-1.04993e-43
-1.55889e-41
-6.92016e-40
-2.15631e-39
-3.02261e-39
-2.63235e-39
-1.62848e-39
-7.67818e-40
-2.86753e-40
-8.69025e-41
-2.21828e-41
-7.59864e-42
-9.602e-42
-1.51381e-41
-7.70191e-40
-9.23195e-38
-3.86039e-37
-6.77964e-37
-6.9486e-37
-4.75637e-37
-2.32496e-37
-8.44401e-38
-2.34002e-38
-7.14778e-131
-7.58925e-115
-6.58678e-95
-1.21909e-82
-1.08903e-78
-2.05522e-71
-3.48481e-66
-6.61004e-60
-3.36766e-54
-1.16078e-52
-2.71002e-51
-8.13484e-50
-6.62814e-48
-6.3128e-47
-2.30323e-45
-1.51292e-44
-5.23047e-43
-7.27502e-41
-3.06458e-39
-9.2191e-39
-1.25955e-38
-1.074e-38
-6.52464e-39
-3.02791e-39
-1.11513e-39
-3.33629e-40
-8.37112e-41
-2.51457e-41
-2.62088e-41
-4.03665e-41
-2.23115e-39
-2.96423e-37
-1.28483e-36
-2.32295e-36
-2.44519e-36
-1.71766e-36
-8.61343e-37
-3.20883e-37
-9.12135e-38
-2.65602e-128
-9.57119e-113
-5.44014e-93
-7.31753e-81
-4.51987e-77
-6.19777e-70
-8.73097e-65
-1.33462e-58
-4.57903e-53
-1.34211e-51
-2.69145e-50
-6.96153e-49
-5.09998e-47
-4.32847e-46
-1.39292e-44
-8.34956e-44
-2.49234e-42
-3.24652e-40
-1.29774e-38
-3.77155e-38
-5.0232e-38
-4.19405e-38
-2.50204e-38
-1.1427e-38
-4.14892e-39
-1.22489e-39
-3.02326e-40
-8.15388e-41
-6.88758e-41
-1.02561e-40
-6.17521e-39
-9.141e-37
-4.11687e-36
-7.67535e-36
-8.30852e-36
-5.99615e-36
-3.08759e-36
-1.18078e-36
-3.4452e-37
-9.48071e-126
-1.20981e-110
-4.37997e-91
-4.29295e-79
-1.8439e-75
-1.81057e-68
-2.12056e-63
-2.61188e-57
-5.99269e-52
-1.49127e-50
-2.56055e-49
-5.69472e-48
-3.75276e-46
-2.84053e-45
-8.04308e-44
-4.39685e-43
-1.13375e-41
-1.38292e-39
-5.24571e-38
-3.18789e-123
-1.51151e-108
-3.4323e-89
-2.45434e-77
-7.38137e-74
-5.11442e-67
-4.98229e-62
-4.94929e-56
-7.53637e-51
-1.59005e-49
-2.32949e-48
-4.44449e-47
-2.63615e-45
-1.78126e-44
-4.42659e-43
-2.20507e-42
-4.91396e-41
-2.0232e-47
-3.30298e-46
-8.01865e-174
-2.13957e-165
-6.65669e-158
-2.56402e-150
-9.42646e-144
-1.45847e-134
-1.74133e-125
-2.81155e-117
-3.29079e-108
-3.32454e-104
-5.2833e-101
-2.18022e-97
-1.36499e-93
-1.21126e-90
-2.89749e-87
-4.99614e-85
-1.76286e-80
-2.58203e-77
-7.84202e-75
-1.15367e-73
-5.25263e-73
-1.24257e-72
-1.83169e-72
-1.83361e-72
-1.37954e-72
-3.19643e-72
-2.28921e-70
-2.44939e-69
-8.98507e-69
-1.7394e-68
-1.00596e-67
-1.68952e-66
-4.10199e-66
-4.46692e-66
-2.80012e-66
-1.12636e-66
-3.08888e-67
-5.99895e-68
-8.4632e-69
-1.81048e-171
-1.58286e-163
-2.21919e-156
-1.52947e-148
-3.08018e-142
-8.52784e-133
-4.08005e-124
-6.06972e-116
-1.02215e-106
-8.99092e-103
-1.30005e-99
-4.78475e-96
-2.69473e-92
-2.12555e-89
-4.62978e-86
-7.35326e-84
-2.22563e-79
-3.08893e-76
-8.95239e-74
-1.26337e-72
-5.55846e-72
-1.27606e-71
-1.83174e-71
-1.79099e-71
-1.30711e-71
-2.52784e-71
-1.71475e-69
-1.81348e-68
-6.5744e-68
-1.25996e-67
-7.58573e-67
-1.30498e-65
-3.17795e-65
-3.47188e-65
-2.18664e-65
-8.85321e-66
-2.4482e-66
-4.8033e-67
-6.85813e-68
-3.46308e-169
-1.15014e-161
-6.56513e-155
-8.79509e-147
-9.60493e-141
-4.53077e-131
-8.74075e-123
-1.26523e-114
-3.13359e-105
-2.39997e-101
-3.15661e-98
-1.03566e-94
-5.24722e-91
-3.68271e-88
-7.30166e-85
-1.06813e-82
-2.7701e-78
-3.64275e-75
-1.00738e-72
-1.36376e-71
-5.79934e-71
-1.29228e-70
-1.80674e-70
-1.72579e-70
-1.22427e-70
-1.98891e-70
-1.26469e-68
-1.32217e-67
-4.73814e-67
-8.99186e-67
-5.64031e-66
-9.94497e-65
-2.42999e-64
-2.66417e-64
-1.68633e-64
-6.874e-65
-1.91733e-65
-3.80124e-66
-5.49435e-67
-5.53618e-167
-7.7275e-160
-1.70308e-153
-4.58481e-145
-2.76702e-139
-2.15283e-129
-1.69746e-121
-2.54735e-113
-9.48067e-104
-6.32208e-100
-7.56114e-97
-2.21034e-93
-1.0075e-89
-6.29711e-87
-1.13614e-83
-1.53066e-81
-3.39804e-77
-4.2336e-74
-1.11705e-71
-1.45076e-70
-5.96399e-70
-1.29023e-69
-1.75731e-69
-1.64021e-69
-1.13291e-69
-1.55869e-69
-9.18175e-68
-9.48984e-67
-3.36247e-66
-6.32059e-66
-4.13403e-65
-7.47584e-64
-1.83348e-63
-2.01793e-63
-1.28405e-63
-5.27125e-64
-1.48341e-64
-2.97262e-65
-4.3508e-66
-1.65545e-164
-4.27708e-158
-3.79169e-152
-2.04855e-143
-7.13888e-138
-8.96786e-128
-2.96256e-120
-4.95561e-112
-2.83021e-102
-1.64315e-98
-1.78628e-95
-4.65034e-92
-1.90705e-88
-1.06227e-85
-1.74357e-82
-2.16323e-80
-4.10739e-76
-4.84793e-73
-1.22035e-70
-1.52056e-69
-6.04409e-69
-1.26972e-68
-1.68508e-68
-1.53717e-68
-1.03526e-68
-1.21799e-68
-6.56004e-67
-6.70354e-66
-2.34901e-65
-4.37485e-65
-2.98595e-64
-5.54203e-63
-1.36476e-62
-1.50835e-62
-9.65165e-63
-3.99133e-63
-1.13355e-63
-2.29659e-64
-3.40457e-65
-4.9342e-163
-2.28234e-156
-6.96374e-151
-7.37782e-142
-1.59994e-136
-3.19252e-126
-4.63466e-119
-9.32776e-111
-8.33573e-101
-4.213e-97
-4.16105e-94
-9.64215e-91
-3.55754e-87
-1.76715e-84
-2.63801e-81
-3.01379e-79
-4.89082e-75
-5.46819e-72
-1.3131e-69
-1.56978e-68
-6.0345e-68
-1.23128e-67
-1.59257e-67
-1.42019e-67
-9.33759e-68
-9.4983e-68
-4.61111e-66
-4.65896e-65
-1.61494e-64
-2.98082e-64
-2.12469e-63
-4.05059e-62
-1.00195e-61
-1.11236e-61
-7.15972e-62
-2.98345e-62
-8.5533e-63
-1.75249e-63
-2.63204e-64
-4.59565e-161
-5.61074e-155
-9.74374e-150
-1.96362e-140
-3.01071e-135
-9.38246e-125
-6.67475e-118
-1.7062e-109
-2.42179e-99
-1.06541e-95
-9.55545e-93
-1.96982e-89
-6.53892e-86
-2.89804e-83
-3.93359e-80
-4.13765e-78
-5.73551e-74
-6.07384e-71
-1.39124e-68
-1.59583e-67
-5.93406e-67
-1.17627e-66
-1.48309e-66
-1.29318e-66
-8.30911e-67
-7.39622e-67
-3.18786e-65
-3.18474e-64
-1.09228e-63
-1.99867e-63
-1.48892e-62
-2.91804e-61
-7.25307e-61
-8.09141e-61
-5.24033e-61
-2.20096e-61
-6.37143e-62
-1.32052e-62
-2.00979e-63
-6.52749e-161
-1.30561e-154
-8.81759e-149
-3.32003e-139
-4.58535e-134
-2.17907e-123
-1.01172e-116
-3.07675e-108
-6.93969e-98
-2.65696e-94
-2.16263e-91
-3.96393e-88
-1.18386e-84
-4.68329e-82
-5.77838e-79
-5.59562e-77
-6.62229e-73
-6.64178e-70
-1.45099e-67
-1.59704e-66
-5.74559e-66
-1.10668e-65
-1.36052e-65
-1.1602e-65
-7.29153e-66
-5.75201e-66
-2.16701e-64
-2.14048e-63
-7.2656e-63
-1.31836e-62
-1.02721e-61
-2.07139e-60
-5.17572e-60
-5.80395e-60
-3.78335e-60
-1.60209e-60
-4.68422e-61
-9.82304e-62
-1.51538e-62
-1.58262e-159
-6.22955e-154
-3.37652e-148
-2.47768e-138
-5.61223e-133
-3.87815e-122
-2.17533e-115
-5.69209e-107
-1.96091e-96
-6.53278e-93
-4.82267e-90
-7.85516e-87
-2.11065e-83
-7.45521e-81
-8.35928e-78
-7.45132e-76
-7.5261e-72
-7.14794e-69
-1.48921e-66
-1.57288e-65
-5.47592e-65
-1.02513e-64
-1.22906e-64
-1.02527e-64
-6.30729e-65
-4.46659e-65
-1.44797e-63
-1.41399e-62
-4.75133e-62
-8.55193e-62
-6.97442e-61
-1.44843e-59
-3.63969e-59
-4.10412e-59
-2.69358e-59
-1.15033e-59
-3.39796e-60
-7.21169e-61
-1.12794e-61
-7.26873e-163
-8.29645e-157
-8.78655e-151
-4.17975e-140
-7.46897e-132
-6.23225e-121
-7.27448e-114
-1.17712e-105
-5.46329e-95
-1.58337e-91
-1.05937e-88
-1.53245e-85
-3.70435e-82
-1.16857e-79
-1.19042e-76
-9.76624e-75
-8.41625e-71
-7.56853e-68
-1.5036e-65
-1.52399e-64
-5.13544e-64
-9.34607e-64
-1.09304e-63
-8.92154e-64
-5.37581e-64
-3.46094e-64
-9.50764e-63
-9.17726e-62
-3.05353e-61
-5.45345e-61
-4.65855e-60
-9.9738e-59
-2.52155e-58
-2.86013e-58
-1.89056e-58
-8.14509e-59
-2.43141e-59
-5.22395e-60
-8.28562e-61
-7.07277e-174
-2.42145e-167
-2.75142e-156
-2.69061e-138
-2.54837e-130
-1.71095e-119
-2.93656e-112
-3.02136e-104
-1.50044e-93
-3.78211e-90
-2.29165e-87
-2.94237e-84
-6.3983e-81
-1.80293e-78
-1.66815e-75
-1.25938e-73
-9.258e-70
-7.88196e-67
-1.49295e-64
-1.45222e-63
-4.7375e-63
-8.38359e-63
-9.56642e-63
-7.64164e-63
-4.51273e-63
-2.67315e-63
-6.13301e-62
-5.8498e-61
-1.92781e-60
-3.41733e-60
-3.05998e-59
-6.76089e-58
-1.72046e-57
-1.96374e-57
-1.30777e-57
-5.68564e-58
-1.71565e-58
-3.73253e-59
-6.00497e-60
-2.55153e-172
-3.21213e-165
-3.73724e-154
-2.23168e-136
-1.54871e-128
-7.38953e-118
-1.22099e-110
-9.76655e-103
-4.06194e-92
-8.9006e-89
-4.88058e-86
-5.55831e-83
-1.08724e-79
-2.73683e-77
-2.29926e-74
-1.59712e-72
-1.00141e-68
-8.07036e-66
-1.45727e-63
-1.36046e-62
-4.2975e-62
-7.39647e-62
-8.23672e-62
-6.4406e-62
-3.72946e-62
-2.05534e-62
-3.88551e-61
-3.66058e-60
-1.19514e-59
-2.10347e-59
-1.97576e-58
-4.50998e-57
-1.15569e-56
-1.32793e-56
-8.91268e-57
-3.91144e-57
-1.19343e-57
-2.62978e-58
-4.29251e-59
-5.62731e-170
-4.37595e-163
-5.01674e-152
-1.91648e-134
-9.88632e-127
-3.16152e-116
-5.03698e-109
-3.6188e-101
-1.08344e-90
-2.06318e-87
-1.02293e-84
-1.03271e-81
-1.81693e-78
-4.0859e-76
-3.11584e-73
-1.99102e-71
-1.06476e-67
-8.12134e-65
-1.39781e-62
-1.2525e-61
-3.83187e-61
-6.41576e-61
-6.97409e-61
-5.33943e-61
-3.03301e-61
-1.57073e-61
-2.41707e-60
-2.24776e-59
-7.27239e-59
-1.27125e-58
-1.25345e-57
-2.95946e-56
-7.64034e-56
-8.8411e-56
-5.98248e-56
-2.65111e-56
-8.18137e-57
-1.82646e-57
-3.02545e-58
-5.35732e-168
-5.54464e-161
-6.65493e-150
-1.63053e-132
-6.25063e-125
-1.34149e-114
-2.05178e-107
-1.40074e-99
-2.84642e-89
-4.70932e-86
-2.10922e-83
-1.88643e-80
-2.98495e-77
-5.99662e-75
-4.14953e-72
-2.43879e-70
-1.1124e-66
-8.02906e-64
-1.31703e-61
-1.13276e-60
-3.35707e-60
-5.46924e-60
-5.80465e-60
-4.35231e-60
-2.42624e-60
-1.19112e-60
-1.47608e-59
-1.35377e-58
-4.34155e-58
-7.54015e-58
-7.80996e-57
-1.90962e-55
-4.96925e-55
-5.79328e-55
-3.95364e-55
-1.76971e-55
-5.52546e-56
-1.25006e-56
-2.10186e-57
-1.0276e-165
-6.48378e-159
-8.72201e-148
-1.36925e-130
-3.9057e-123
-5.65155e-113
-8.24816e-106