/*--------------------------------*- C++ -*----------------------------------*\
| =========                 |                                                 |
| \\      /  F ield         | OpenFOAM: The Open Source CFD Toolbox           |
|  \\    /   O peration     | Version:  v2012                                 |
|   \\  /    A nd           | Website:  www.openfoam.com                      |
|    \\/     M anipulation  |                                                 |
\*---------------------------------------------------------------------------*/
FoamFile
{
    version     2.0;
    format      ascii;
    class       volScalarField;
    location    "0.1";
    object      alpha.water;
}
// * * * * * * * * * * * * * * * * * * * * * * * * * * * * * * * * * * * * * //

dimensions      [0 0 0 0 0 0 0];


internalField   nonuniform List<scalar> 
3326
(
2.22277e-61
5.14606e-59
7.47415e-57
2.65493e-54
1.06478e-48
5.64864e-46
1.50422e-44
6.23386e-44
4.47897e-62
2.2584e-62
1.32776e-63
8.37184e-63
1.90771e-60
4.41475e-58
6.44863e-56
2.32004e-53
1.28284e-47
1.73907e-45
2.47598e-44
6.30846e-44
3.4515e-62
8.15332e-05
1.53314e-06
6.79804e-10
1.40161e-17
3.31149e-25
2.87988e-25
2.4568e-25
1.14047e-25
3.1567e-26
6.94679e-27
1.15845e-27
1.52861e-28
1.619e-29
1.39108e-30
9.7635e-32
5.70874e-33
2.83066e-34
1.2067e-35
4.47139e-37
1.51418e-38
1.25782e-39
8.06363e-40
7.32034e-40
4.98154e-40
3.60101e-40
2.9188e-40
2.55069e-40
2.23663e-40
1.23599e-40
4.64071e-41
8.51603e-42
6.82913e-43
7.43341e-53
5.36604e-61
1.12997e-62
6.94003e-62
1.13654e-59
2.56981e-57
3.89407e-55
1.41446e-52
8.63166e-47
4.30446e-45
3.334e-44
5.83539e-44
1.70963e-62
7.65704e-05
1.59228e-06
7.80848e-10
3.71914e-17
3.26456e-25
2.8384e-25
2.68327e-25
1.53613e-25
4.78612e-26
1.15971e-26
2.12602e-27
3.04513e-28
3.44721e-29
3.15018e-30
2.32488e-31
1.41801e-32
7.28941e-34
3.21347e-35
1.23007e-36
4.14104e-38
1.52522e-39
4.31319e-40
3.90467e-40
3.14343e-40
1.85716e-40
1.20085e-40
7.26158e-41
4.28113e-41
2.40454e-41
1.01984e-41
2.73113e-42
3.66903e-43
1.31724e-51
1.1772e-59
7.01088e-62
9.90937e-61
1.82013e-58
2.20323e-56
6.38294e-54
1.67105e-48
4.00624e-46
8.98844e-45
3.79683e-44
4.0098e-44
9.89313e-63
7.19377e-05
1.64307e-06
8.68252e-10
1.55588e-16
3.24115e-25
2.75228e-25
2.77903e-25
1.95593e-25
7.04921e-26
1.89701e-26
3.84941e-27
6.03694e-28
7.39181e-29
7.25046e-30
5.68396e-31
3.64661e-32
1.95223e-33
8.9143e-35
3.52739e-36
1.22353e-37
3.87672e-39
2.845e-40
1.83154e-40
1.72754e-40
1.04705e-40
6.07249e-41
3.43342e-41
1.6713e-41
7.59641e-42
3.02969e-42
9.14993e-43
1.51794e-43
2.04542e-50
5.36577e-58
1.77271e-58
1.83968e-58
1.6884e-57
1.85495e-55
5.42643e-53
1.78536e-47
1.32469e-45
1.61454e-44
4.73131e-44
1.47871e-44
1.8827e-63
6.76473e-05
1.68505e-06
9.41697e-10
5.5255e-16
3.28907e-25
2.61713e-25
2.78352e-25
2.31587e-25
9.98873e-26
3.02234e-26
6.84516e-27
1.18303e-27
1.58941e-28
1.68612e-29
1.4216e-30
9.70346e-32
5.45519e-33
2.59135e-34
1.06158e-35
3.80681e-37
1.20934e-38
3.94686e-40
8.19404e-41
7.11669e-41
6.00815e-41
3.0281e-41
1.63448e-41
7.7375e-42
3.06061e-42
1.05909e-42
2.89731e-43
4.63644e-44
3.58544e-49
9.16034e-56
6.92938e-56
5.29142e-56
6.16647e-56
1.03942e-54
1.20436e-51
1.02692e-46
4.11094e-45
3.75323e-44
1.01996e-43
2.02727e-45
5.79732e-64
6.36817e-05
1.7093e-06
1.00345e-09
1.43044e-15
3.38471e-25
2.41466e-25
2.78352e-25
2.5113e-25
1.35253e-25
4.6697e-26
1.19213e-26
2.28825e-27
3.41328e-28
3.94231e-29
3.62185e-30
2.66319e-31
1.59074e-32
7.92392e-34
3.3747e-35
1.25326e-36
4.11174e-38
1.20862e-39
5.15196e-41
2.51007e-41
2.5451e-41
1.60389e-41
7.2367e-42
3.39849e-42
1.25708e-42
3.68234e-43
8.21583e-44
1.07035e-44
6.33455e-48
1.30969e-53
1.67388e-53
1.53642e-53
1.99271e-54
1.20495e-53
1.16536e-48
5.58982e-46
1.70102e-44
1.52982e-43
4.57223e-43
6.62368e-47
6.19011e-67
5.99947e-05
1.71112e-06
1.05496e-09
2.79543e-15
3.59095e-25
2.11519e-25
2.7799e-25
2.55756e-25
1.7365e-25
6.99921e-26
2.02539e-26
4.37562e-27
7.27987e-28
9.25016e-29
9.37706e-30
7.51092e-31
4.82822e-32
2.54997e-33
1.13825e-34
4.39886e-36
1.49908e-37
4.56137e-39
1.2859e-40
9.86021e-42
6.93084e-42
6.92818e-42
3.45382e-42
1.40253e-42
5.2476e-43
1.39096e-43
2.58041e-44
2.71214e-45
3.45766e-47
7.69075e-52
1.64577e-51
2.74439e-51
3.92212e-51
3.23731e-51
2.13974e-47
3.71594e-45
9.67586e-44
8.44183e-43
2.52017e-42
3.7339e-49
3.73044e-69
5.65164e-05
1.64555e-06
1.09261e-09
4.39851e-15
4.00446e-25
1.69794e-25
2.50742e-25
2.55361e-25
2.05663e-25
1.01921e-25
3.34183e-26
8.26574e-27
1.53555e-27
2.18717e-28
2.47277e-29
2.17565e-30
1.52204e-31
8.6254e-33
4.08147e-34
1.65609e-35
5.89523e-37
1.87105e-38
5.35706e-40
1.46942e-41
1.92664e-42
1.5821e-42
1.46504e-42
5.89429e-43
2.17696e-43
6.22382e-44
1.14377e-44
1.24881e-45
4.36126e-47
4.30324e-50
8.9632e-50
1.65897e-49
5.2241e-49
3.78701e-48
3.58826e-46
2.55921e-44
5.61305e-43
4.50501e-42
1.26833e-41
5.29609e-52
9.25382e-70
5.32589e-05
1.52261e-06
1.10941e-09
5.90038e-15
4.77534e-25
1.25382e-25
2.24635e-25
2.46409e-25
2.1687e-25
1.40919e-25
5.34931e-26
1.53091e-26
3.2142e-27
5.25963e-28
6.68112e-29
6.50031e-30
4.99152e-31
3.06994e-32
1.55893e-33
6.7254e-35
2.52765e-36
8.4407e-38
2.54495e-39
7.01982e-41
1.9035e-42
2.98727e-43
2.56944e-43
2.0197e-43
7.38253e-44
2.48436e-44
5.12146e-45
5.89729e-46
4.00859e-47
2.02586e-48
4.46027e-48
9.07287e-48
3.38197e-47
2.87233e-46
6.40265e-45
1.71826e-43
2.59759e-42
1.79323e-41
4.83714e-41
1.20238e-54
4.46455e-70
5.03476e-05
1.39465e-06
1.10589e-09
7.0527e-15
6.08704e-25
8.28934e-26
1.84602e-25
2.19697e-25
2.19652e-25
1.7343e-25
8.30025e-26
2.74815e-26
6.74845e-27
1.29135e-27
1.85203e-28
2.01268e-29
1.71239e-30
1.15666e-31
6.37822e-33
2.96736e-34
1.19504e-35
4.26146e-37
1.37294e-38
4.07613e-40
1.14884e-41
3.60666e-43
4.88884e-44
3.02947e-44
1.67445e-44
6.90362e-45
2.08078e-45
4.62462e-46
1.04194e-46
7.7161e-47
1.71144e-46
3.64666e-46
1.29846e-45
8.77192e-45
9.89349e-44
1.20753e-42
1.00173e-41
4.37231e-41
8.93285e-41
1.97727e-55
2.26162e-70
4.7945e-05
1.25082e-06
1.0039e-09
7.74753e-15
8.1973e-25
4.75642e-26
1.37726e-25
1.96548e-25
2.14502e-25
1.83758e-25
1.21225e-25
4.7341e-26
1.42341e-26
3.18002e-27
5.19755e-28
6.43841e-29
6.17325e-30
4.65466e-31
2.82667e-32
1.43916e-33
6.32364e-35
2.46366e-36
8.72012e-38
2.88907e-39
9.42043e-41
3.44362e-42
2.28155e-43
5.46606e-44
2.42931e-44
1.10824e-44
5.17863e-45
2.98007e-45
2.43735e-45
2.47855e-45
4.97078e-45
1.08051e-44
3.31011e-44
1.65353e-43
1.13139e-42
7.67123e-42
3.59686e-41
8.66511e-41
9.60208e-41
2.58496e-55
8.37463e-71
4.63463e-05
1.10232e-06
8.93625e-10
8.00159e-15
1.14934e-24
2.47448e-26
8.91726e-26
1.58036e-25
1.86549e-25
1.86527e-25
1.53819e-25
7.69792e-26
2.91784e-26
7.5396e-27
1.43649e-27
2.09409e-28
2.32982e-29
2.01012e-30
1.37519e-31
7.79462e-33
3.81653e-34
1.67485e-35
6.80492e-37
2.68576e-38
1.13237e-39
6.35514e-41
6.87467e-42
1.58377e-42
5.63939e-43
2.55722e-43
1.42438e-43
9.66874e-44
7.9199e-44
7.50984e-44
1.12553e-43
2.43995e-43
6.25439e-43
2.27433e-42
1.01253e-41
4.27466e-41
1.28141e-40
2.18005e-40
8.9282e-41
8.42307e-56
6.77446e-71
4.58108e-05
9.61882e-07
7.95128e-10
7.86814e-15
1.65921e-24
1.31809e-26
4.67386e-26
1.15289e-25
1.64776e-25
1.83404e-25
1.61863e-25
1.13562e-25
5.41995e-26
1.6507e-26
3.79524e-27
6.74327e-28
9.04432e-29
9.23874e-30
7.37266e-31
4.76764e-32
2.66841e-33
1.36545e-34
6.72735e-36
3.42701e-37
2.06473e-38
1.82084e-39
2.72382e-40
6.51131e-41
2.1645e-41
9.22839e-42
4.89089e-42
3.15849e-42
2.45564e-42
2.24186e-42
2.38753e-42
4.43005e-42
9.60691e-42
2.60278e-41
8.10449e-41
2.3528e-40
5.19614e-40
7.4209e-40
7.18628e-41
6.04517e-56
1.30729e-71
4.62321e-05
8.3371e-07
7.03175e-10
5.88501e-15
2.45528e-24
9.40446e-27
1.89142e-26
7.20867e-26
1.27736e-25
1.58262e-25
1.62481e-25
1.43993e-25
8.51573e-26
3.24875e-26
9.35773e-27
2.08179e-27
3.49291e-28
4.39186e-29
4.25494e-30
3.25975e-31
2.15262e-32
1.32767e-33
8.30858e-35
5.73879e-36
4.94651e-37
6.04246e-38
1.07329e-38
2.62271e-39
8.3164e-40
3.295e-40
1.60774e-40
9.60543e-41
6.96098e-41
5.95742e-41
5.72167e-41
7.34751e-41
1.31613e-40
2.69305e-40
6.20307e-40
1.34447e-39
2.23122e-39
2.62279e-39
4.52045e-41
4.31703e-57
8.29134e-72
4.77517e-05
7.21408e-07
6.21156e-10
3.53011e-15
3.72339e-24
8.72184e-27
5.54434e-27
3.61875e-26
8.76385e-26
1.35057e-25
1.55629e-25
1.52557e-25
1.1031e-25
5.60526e-26
2.10252e-26
5.94462e-27
1.27803e-27
2.04926e-28
2.49809e-29
2.38633e-30
1.93238e-31
1.47659e-32
1.19225e-33
1.10676e-34
1.2758e-35
1.93872e-36
3.86853e-37
9.79855e-38
3.06704e-38
1.16216e-38
5.26925e-39
2.84853e-39
1.84325e-39
1.43227e-39
1.3088e-39
1.31773e-39
1.76194e-39
2.75943e-39
4.61285e-39
7.39021e-39
9.82875e-39
7.64764e-39
1.46873e-41
1.53369e-57
2.58548e-72
5.02283e-05
6.27129e-07
5.5161e-10
2.13038e-15
5.7952e-24
1.15751e-26
1.43611e-27
1.37965e-26
4.80971e-26
9.73877e-26
1.34799e-25
1.46363e-25
1.21069e-25
8.17068e-26
4.15428e-26
1.50567e-26
4.17207e-27
8.75587e-28
1.39089e-28
1.74747e-29
1.81194e-30
1.7499e-31
1.79565e-32
2.1498e-33
3.11118e-34
5.56635e-35
1.22592e-35
3.25415e-36
1.02682e-36
3.81272e-37
1.65315e-37
8.33447e-38
4.87842e-38
3.31598e-38
2.62872e-38
2.41817e-38
2.47038e-38
2.92294e-38
3.60787e-38
4.22028e-38
3.88192e-38
1.86078e-38
1.44018e-42
1.60792e-58
4.81453e-73
5.33804e-05
5.51378e-07
5.00917e-10
1.57351e-15
9.27402e-24
1.83018e-26
3.89571e-28
3.77694e-27
1.96139e-26
5.27193e-26
9.18876e-26
1.16134e-25
1.21013e-25
9.78734e-26
6.8197e-26
3.20234e-26
1.14592e-26
3.19852e-27
6.88076e-28
1.18167e-28
1.63876e-29
2.03095e-30
2.59446e-31
3.83529e-32
6.68346e-33
1.37325e-33
3.32047e-34
9.31625e-35
3.00772e-35
1.11277e-35
4.6947e-36
2.25092e-36
1.2238e-36
7.5287e-37
5.22652e-37
4.06756e-37
3.492e-37
3.21799e-37
3.0109e-37
2.53625e-37
1.48942e-37
3.69885e-38
2.4938e-44
2.99941e-60
8.66989e-74
5.72165e-05
4.96066e-07
4.77442e-10
1.46696e-15
1.52933e-23
3.02862e-26
2.29891e-28
6.77009e-28
5.88277e-27
2.20849e-26
5.16304e-26
8.27946e-26
9.92218e-26
9.9167e-26
8.73415e-26
5.34694e-26
2.53589e-26
9.4493e-27
2.82356e-27
6.74768e-28
1.29551e-28
2.11187e-29
3.36189e-30
5.9303e-31
1.20899e-31
2.82088e-32
7.48123e-33
2.23312e-33
7.46017e-34
2.78751e-34
1.16133e-34
5.37893e-35
2.76171e-35
1.56533e-35
9.73525e-36
6.57368e-36
4.73044e-36
3.50954e-36
2.52498e-36
1.55481e-36
6.16204e-37
5.35535e-38
5.55904e-47
4.4865e-63
1.2727e-74
6.27137e-05
4.69208e-07
4.75272e-10
1.59515e-15
2.60619e-23
5.1846e-26
2.2313e-28
7.68252e-29
1.28007e-27
6.88812e-27
2.2096e-26
4.7908e-26
7.53333e-26
9.02882e-26
8.88656e-26
6.74506e-26
4.38271e-26
2.15602e-26
8.89795e-27
2.96869e-27
7.96117e-28
1.78451e-28
3.64363e-29
7.58979e-30
1.77649e-30
4.67769e-31
1.36268e-31
4.35073e-32
1.51726e-32
5.78803e-33
2.41057e-33
1.09315e-33
5.3783e-34
2.85426e-34
1.61961e-34
9.68535e-35
5.95958e-35
3.62349e-35
2.02837e-35
9.17887e-36
2.51826e-36
5.48684e-38
3.63195e-50
3.43351e-66
1.59495e-75
7.08199e-05
4.79364e-07
4.89599e-10
2.79175e-15
4.61216e-23
9.19518e-26
4.67135e-28
9.80224e-30
1.89696e-28
1.54596e-27
6.83446e-27
1.96243e-26
3.97739e-26
5.96295e-26
6.92421e-26
6.92379e-26
5.71113e-26
3.65586e-26
2.03165e-26
9.30553e-27
3.4113e-27
1.09274e-27
2.98048e-28
7.60311e-29
2.04658e-29
6.05273e-30
1.9437e-30
6.67526e-31
2.44841e-31
9.62132e-32
4.04585e-32
1.8162e-32
8.66703e-33
4.3649e-33
2.29414e-33
1.23592e-33
6.62981e-34
3.37409e-34
1.49599e-34
4.92126e-35
8.5161e-36
3.60522e-38
4.47111e-53
3.84979e-67
2.3563e-76
8.16454e-05
5.62328e-07
5.26946e-10
6.03393e-15
8.55463e-23
1.69226e-25
9.06019e-28
4.27436e-30
1.66464e-29
2.30321e-28
1.41533e-27
5.4495e-27
1.44655e-26
2.85675e-26
4.43939e-26
5.54675e-26
5.70157e-26
4.5552e-26
3.30903e-26
1.95895e-26
9.57528e-27
4.31099e-27
1.61955e-27
5.45959e-28
1.75435e-28
5.86106e-29
2.08691e-29
7.77267e-30
3.02239e-30
1.23383e-30
5.28485e-31
2.37011e-31
1.10776e-31
5.35035e-32
2.63511e-32
1.29541e-32
6.14351e-33
2.65809e-33
9.50571e-34
2.28955e-34
1.93729e-35
8.01153e-39
1.51242e-55
5.38062e-68
6.49061e-77
9.55486e-05
7.05126e-07
6.37189e-10
1.18835e-14
1.69039e-22
3.25584e-25
1.90122e-27
4.12594e-30
7.60619e-31
2.11691e-29
1.78654e-28
9.30122e-28
3.38844e-27
9.10576e-27
1.84922e-26
2.9214e-26
3.75814e-26
4.14577e-26
3.97117e-26
2.70354e-26
1.76036e-26
1.01696e-26
5.25964e-27
2.44928e-27
1.00776e-27
3.97342e-28
1.593e-28
6.5263e-29
2.72287e-29
1.16673e-29
5.13908e-30
2.32306e-30
1.07249e-30
5.00933e-31
2.33135e-31
1.05483e-31
4.46018e-32
1.6507e-32
4.75443e-33
8.32434e-34
2.41907e-35
3.22181e-40
1.62077e-57
2.59199e-69
3.10493e-77
0.000113148
8.99607e-07
9.42785e-10
2.2717e-14
3.64931e-22
6.63991e-25
4.36837e-27
1.64029e-29
5.44998e-32
8.84867e-31
1.29873e-29
9.97967e-29
5.00385e-28
1.79234e-27
4.85363e-27
1.02537e-26
1.71877e-26
2.34391e-26
2.69773e-26
2.73774e-26
2.26381e-26
1.47844e-26
9.96378e-27
5.94555e-27
3.27025e-27
1.64667e-27
7.78756e-28
3.61247e-28
1.65692e-28
7.58882e-29
3.48715e-29
1.60737e-29
7.39924e-30
3.36741e-30
1.48944e-30
6.22456e-31
2.34711e-31
7.38023e-32
1.662e-32
1.80432e-33
1.83071e-35
1.37835e-42
8.3662e-60
3.26998e-71
1.69888e-77
0.000135923
1.14621e-06
1.48403e-09
4.75853e-14
8.90095e-22
1.47135e-24
1.14646e-26
5.27542e-29
4.40542e-32
6.67945e-33
3.47248e-31
4.55274e-30
3.35294e-29
1.6655e-28
6.07706e-28
1.71747e-27
3.89381e-27
7.23042e-27
1.12382e-26
1.48518e-26
1.59022e-26
1.59062e-26
1.23917e-26
7.90627e-27
5.34009e-27
3.39283e-27
1.99412e-27
1.09961e-27
5.79062e-28
2.93987e-28
1.44912e-28
6.95229e-29
3.2364e-29
1.44665e-29
6.08983e-30
2.3345e-30
7.69869e-31
1.97423e-31
3.20444e-32
2.01093e-33
4.84793e-36
6.70669e-46
9.56051e-63
3.86984e-72
8.04131e-78
0.000166701
1.472e-06
2.39009e-09
1.15988e-13
2.55626e-21
3.67331e-24
3.45414e-26
1.91208e-28
3.28805e-31
1.1025e-33
2.38763e-35
3.88985e-33
2.64317e-31
4.09794e-30
2.88342e-29
1.25446e-28
3.99116e-28
1.00816e-27
2.09847e-27
3.67733e-27
5.49845e-27
6.96419e-27
7.49932e-27
7.57366e-27
5.55073e-27
3.64968e-27
2.42752e-27
1.54173e-27
9.25829e-28
5.28267e-28
2.8606e-28
1.46049e-28
6.98477e-29
3.08889e-29
1.23436e-29
4.28672e-30
1.21843e-30
2.56598e-31
3.31711e-32
1.53767e-33
2.2039e-37
3.3459e-49
5.42712e-66
2.37379e-72
2.72779e-78
0.000210701
1.96525e-06
3.95267e-09
3.19228e-13
9.17262e-21
1.08591e-23
1.2023e-25
8.12674e-28
1.98556e-30
1.01361e-32
5.12845e-36
3.95328e-36
2.76153e-36
4.19864e-38
2.10733e-33
1.81386e-31
3.22502e-30
2.37245e-29
1.00529e-28
2.95648e-28
6.64018e-28
1.19573e-27
1.77982e-27
2.24773e-27
2.48189e-27
2.5074e-27
1.94158e-27
1.30748e-27
8.50785e-28
5.14024e-28
2.89518e-28
1.52078e-28
7.38044e-29
3.25354e-29
1.27133e-29
4.2494e-30
1.13989e-30
2.1867e-31
2.34161e-32
5.0112e-34
9.3997e-40
2.98284e-52
8.11762e-68
1.44631e-72
5.69314e-79
0.210209
0.0142081
0.000291894
2.7444e-06
6.67003e-09
9.18417e-13
4.57073e-20
4.1321e-23
5.49888e-25
5.49323e-27
1.71606e-29
5.09575e-32
1.71659e-34
2.45124e-36
6.10218e-38
2.40924e-38
2.34695e-38
1.46756e-39
8.44336e-40
2.5112e-34
3.01474e-32
6.6332e-31
5.6503e-30
2.60992e-29
8.0093e-29
1.82533e-28
3.22431e-28
4.46974e-28
5.0483e-28
5.08561e-28
4.02067e-28
2.74884e-28
1.73059e-28
9.72542e-29
4.87577e-29
2.15651e-29
8.18244e-30
2.54058e-30
5.96471e-31
9.14636e-32
6.45385e-33
3.2457e-35
3.44192e-43
2.36926e-55
4.04705e-68
5.82947e-73
6.27506e-80
0.254532
0.0199307
0.000405717
3.954e-06
1.18666e-08
2.81537e-12
3.7199e-19
2.37633e-22
4.27252e-24
5.73618e-26
1.5033e-28
5.11976e-31
2.4461e-33
7.88682e-35
2.03764e-36
6.06896e-38
1.47796e-39
8.48184e-40
8.3932e-40
6.87489e-40
5.57128e-40
1.36622e-38
1.46553e-34
7.74071e-33
1.23092e-31
9.42862e-31
4.24624e-30
1.23977e-29
2.52111e-29
3.75065e-29
4.24756e-29
4.02578e-29
3.00806e-29
1.92175e-29
1.0376e-29
4.66387e-30
1.69053e-30
4.66928e-31
8.87796e-32
9.52424e-33
3.61243e-34
2.01687e-37
1.04117e-46
1.51234e-58
2.52199e-68
1.01897e-73
3.16624e-81
0.294129
0.0267181
0.000576283
5.99437e-06
2.27566e-08
1.11351e-11
5.47151e-18
2.58246e-21
5.36108e-23
5.13758e-25
2.01291e-27
8.45404e-30
3.33859e-31
1.21085e-32
3.40756e-34
7.11977e-36
1.01071e-37
1.48027e-39
6.88205e-40
5.58636e-40
5.55998e-40
5.25367e-40
4.55032e-40
8.77866e-38
7.15101e-36
2.16885e-34
3.17771e-33
2.39932e-32
1.03761e-31
2.84228e-31
5.25006e-31
7.07332e-31
7.3646e-31
5.65873e-31
3.41264e-31
1.58829e-31
5.46575e-32
1.29783e-32
1.86234e-33
1.24264e-34
2.17068e-36
8.16163e-41
6.27319e-50
7.67646e-62
9.64984e-69
4.9074e-75
6.65108e-83
0.327546
0.0343494
0.00083142
9.67278e-06
4.7297e-08
4.69105e-11
1.2707e-16
5.62262e-20
7.45683e-22
6.37324e-24
6.16082e-26
1.23587e-27
5.86383e-29
2.30182e-30
7.04958e-32
1.6093e-33
2.50857e-35
1.78392e-37
3.6428e-39
6.89277e-40
5.52626e-40
4.98286e-40
4.54762e-40
4.32609e-40
1.0338e-39
4.44797e-38
8.26156e-37
7.63281e-36
4.3243e-35
1.67795e-34
4.6154e-34
8.96296e-34
1.23726e-33
1.28733e-33
8.69914e-34
4.26271e-34
1.38943e-34
2.77305e-35
2.86786e-36
1.11935e-37
9.16181e-40
1.1926e-44
3.20874e-53
1.03664e-64
1.1134e-69
4.79828e-77
5.74053e-85
0.356683
0.0432363
0.0012355
1.66551e-05
1.0631e-07
1.85208e-10
4.66709e-15
2.12887e-18
2.83492e-20
5.74684e-22
4.2427e-24
2.49361e-25
1.27706e-26
5.41818e-28
1.80455e-29
4.5115e-31
7.76922e-33
6.1295e-35
1.15193e-36
5.83932e-38
1.77326e-39
5.18289e-40
6.0745e-40
3.01908e-40
2.68566e-40
2.68566e-40
3.10622e-40
2.29397e-39
1.3636e-38
4.66003e-38
1.02767e-37
1.56119e-37
1.77765e-37
1.84301e-37
1.12583e-37
5.12613e-38
1.4562e-38
2.33426e-39
1.79514e-40
6.00563e-42
1.00363e-43
4.41834e-48
1.21967e-56
1.09063e-65
1.85211e-71
1.18552e-79
7.87854e-87
0.386403
0.0550676
0.00195646
3.11335e-05
2.60615e-07
7.4547e-10
2.94075e-13
1.94306e-16
4.40429e-18
7.90762e-20
1.01499e-21
6.44749e-23
3.55267e-24
1.62807e-25
5.89311e-27
1.61277e-28
3.06576e-30
2.6946e-32
5.69751e-34
3.26868e-35
7.95957e-37
1.5904e-38
1.01616e-39
1.17924e-38
3.01102e-39
7.99026e-40
2.21211e-40
1.0042e-40
8.43985e-41
6.46759e-41
3.53747e-41
4.71357e-41
4.25567e-41
2.24258e-41
4.36364e-42
8.7109e-44
3.13745e-44
6.59649e-45
7.03854e-46
2.99762e-47
2.60901e-47
1.38906e-51
3.34851e-60
3.62896e-67
2.26285e-74
1.34895e-82
4.69689e-89
0.424069
0.0733411
0.00342857
6.62575e-05
7.49071e-07
3.91044e-09
8.43557e-12
4.29182e-14
1.27592e-15
1.96055e-17
3.31905e-19
2.23526e-20
1.31451e-21
6.50323e-23
2.55701e-24
7.65688e-26
1.60577e-27
1.69512e-29
5.09232e-31
5.93427e-32
2.59412e-33
2.93965e-33
2.32921e-34
1.49621e-35
1.03954e-36
7.21891e-38
8.05661e-39
1.36525e-39
2.51553e-40
4.82235e-41
9.14975e-42
1.66243e-42
2.92059e-43
6.15586e-44
5.42343e-45
3.70358e-46
2.07485e-47
1.62295e-48
1.60605e-49
6.68378e-51
5.76235e-51
3.28779e-55
8.92831e-64
9.7232e-70
1.42396e-78
5.19566e-86
2.50333e-90
0.474515
0.103731
0.00687155
0.000180732
3.38766e-06
6.22818e-08
1.70267e-09
7.32989e-11
3.50395e-12
1.76548e-13
7.69239e-15
2.04955e-16
1.33584e-18
6.6417e-20
2.71354e-21
8.80133e-23
2.21711e-24
3.05697e-24
2.96891e-25
3.43215e-26
1.4045e-27
3.76357e-29
9.48306e-31
2.46856e-32
8.05573e-34
2.84809e-35
1.0694e-36
5.64305e-38
4.69454e-39
4.74094e-40
5.02183e-41
5.46101e-42
5.92142e-43
6.12259e-44
5.39435e-45
3.53084e-46
1.40454e-47
1.45277e-49
2.70798e-53
9.06813e-55
1.25998e-54
6.31976e-59
2.52732e-67
7.54312e-74
6.54009e-83
4.31518e-90
1.00508e-93
0.531687
0.149532
0.0156669
0.000822841
5.09146e-05
5.46414e-06
6.96759e-07
8.53926e-08
9.9016e-09
1.0697e-09
1.04235e-10
8.85377e-12
6.3934e-13
3.84567e-14
1.88677e-15
7.31147e-17
2.11011e-18
2.63582e-20
4.64732e-22
2.10797e-23
5.62474e-25
1.09157e-26
1.51014e-28
2.2334e-30
3.78804e-32
8.65747e-34
2.9856e-35
1.23553e-36
5.103e-38
2.1205e-39
9.81628e-41
5.49878e-42
3.68538e-43
2.58259e-44
1.57227e-45
6.76076e-47
1.65334e-48
6.79122e-51
4.50238e-54
4.48747e-57
1.74822e-58
7.37039e-63
1.95469e-71
1.34759e-78
3.42683e-87
1.99822e-94
7.90194e-98
0.552246
0.197249
0.0386616
0.00635105
0.00134886
0.000317755
6.82509e-05
1.30605e-05
2.23888e-06
3.38052e-07
4.42302e-08
4.89388e-09
4.45671e-10
3.2702e-11
1.88666e-12
8.12554e-14
2.22224e-15
1.13888e-17
4.73943e-20
6.46391e-22
1.13747e-23
1.82077e-25
1.44955e-27
1.23944e-29
9.19952e-32
1.10507e-33
1.95524e-35
4.34591e-37
1.256e-38
4.17368e-40
1.40813e-41
4.6753e-43
1.64501e-44
6.59053e-46
2.45996e-47
6.25752e-49
6.75365e-51
4.8396e-54
8.02857e-57
1.49725e-60
1.20023e-62
4.13308e-67
7.19936e-76
3.90928e-83
8.5773e-92
4.609e-96
5.29001e-100
0.454009
0.200136
0.0698334
0.0240452
0.00858858
0.00282487
0.000801032
0.000196033
4.14409e-05
7.48762e-06
1.14294e-06
1.45233e-07
1.49442e-08
1.21966e-09
7.70162e-11
3.54555e-12
9.5152e-14
3.60508e-16
5.76333e-19
9.71036e-22
4.79935e-24
3.87065e-26
2.46912e-28
1.19509e-30
4.55558e-33
1.51748e-35
6.15978e-38
7.4009e-40
2.05086e-41
6.79018e-43
1.71622e-44
3.18768e-46
5.59803e-48
1.14233e-49
2.34145e-51
3.24443e-53
1.22536e-55
1.40511e-59
1.80046e-62
2.75911e-65
2.24172e-67
6.29999e-72
8.52238e-81
3.43747e-88
5.45519e-97
1.02828e-100
2.50533e-103
2.22283e-61
5.14619e-59
7.47434e-57
2.65499e-54
1.06482e-48
5.64869e-46
1.50423e-44
6.23386e-44
1.21838e-60
2.25834e-62
1.32779e-63
8.37198e-63
1.90774e-60
4.41483e-58
6.44876e-56
2.32008e-53
1.28287e-47
1.73909e-45
2.47599e-44
6.30846e-44
2.28991e-61
8.15339e-05
1.53317e-06
6.79821e-10
1.40173e-17
3.31328e-25
2.87971e-25
2.45673e-25
1.14037e-25
3.1565e-26
6.94627e-27
1.15836e-27
1.52848e-28
1.61886e-29
1.39095e-30
9.76243e-32
5.70897e-33
2.83073e-34
1.20672e-35
4.47149e-37
1.5142e-38
1.2575e-39
8.06122e-40
7.31876e-40
4.98074e-40
3.60059e-40
2.91858e-40
2.55057e-40
2.23657e-40
1.23596e-40
4.6406e-41
8.51577e-42
6.82868e-43
7.43324e-53
5.36584e-61
1.13e-62
6.94013e-62
1.13656e-59
2.56983e-57
3.89413e-55
1.41448e-52
8.63178e-47
4.30449e-45
3.33401e-44
5.83539e-44
1.01653e-61
7.65711e-05
1.59231e-06
7.80868e-10
3.71933e-17
3.2669e-25
2.83838e-25
2.68323e-25
1.53599e-25
4.78583e-26
1.15963e-26
2.12585e-27
3.04487e-28
3.44691e-29
3.14989e-30
2.32462e-31
1.41805e-32
7.28945e-34
3.21347e-35
1.23008e-36
4.14114e-38
1.52516e-39
4.31163e-40
3.9033e-40
3.14277e-40
1.85681e-40
1.20069e-40
7.26086e-41
4.28079e-41
2.40439e-41
1.01978e-41
2.73097e-42
3.66874e-43
1.31725e-51
1.17715e-59
7.01098e-62
9.90954e-61
1.82016e-58
2.20327e-56
6.38306e-54
1.67108e-48
4.00628e-46
8.98848e-45
3.79684e-44
4.0098e-44
2.89867e-65
7.19385e-05
1.6431e-06
8.68276e-10
1.55594e-16
3.24392e-25
2.75224e-25
2.77901e-25
1.95576e-25
7.04884e-26
1.89688e-26
3.84911e-27
6.03641e-28
7.39114e-29
7.24976e-30
5.68333e-31
3.64666e-32
1.9522e-33
8.91413e-35
3.52736e-36
1.22354e-37
3.87675e-39
2.84402e-40
1.83075e-40
1.72695e-40
1.04678e-40
6.07115e-41
3.43288e-41
1.67109e-41
7.59559e-42
3.0294e-42
9.14911e-43
1.5178e-43
2.04555e-50
5.36556e-58
1.77264e-58
1.83971e-58
1.68842e-57
1.85497e-55
5.4265e-53
1.78538e-47
1.3247e-45
1.61455e-44
4.73132e-44
1.47871e-44
2.89156e-65
6.76481e-05
1.68508e-06
9.41724e-10
5.5257e-16
3.29269e-25
2.61709e-25
2.78351e-25
2.31571e-25
9.98832e-26
3.02214e-26
6.84464e-27
1.18293e-27
1.58927e-28
1.68596e-29
1.42144e-30
9.70343e-32
5.45501e-33
2.59125e-34
1.06155e-35
3.8068e-37
1.20937e-38
3.94682e-40
8.19048e-41
7.11318e-41
6.00587e-41
3.02708e-41
1.63404e-41
7.73592e-42
3.06009e-42
1.05894e-42
2.89695e-43
4.63591e-44
3.58632e-49
9.15997e-56
6.92897e-56
5.29107e-56
6.16613e-56
1.03942e-54
1.20437e-51
1.02692e-46
4.11096e-45
3.75324e-44
1.01996e-43
2.02727e-45
6.31875e-66
6.36825e-05
1.70933e-06
1.00348e-09
1.4305e-15
3.38941e-25
2.4146e-25
2.78352e-25
2.51118e-25
1.35248e-25
4.66943e-26
1.19205e-26
2.28807e-27
3.41299e-28
3.94196e-29
3.62146e-30
2.66314e-31
1.59066e-32
7.92348e-34
3.37456e-35
1.25324e-36
4.11177e-38
1.20865e-39
5.15057e-41
2.5087e-41
2.54366e-41
1.60316e-41
7.23347e-42
3.39726e-42
1.2567e-42
3.6814e-43
8.21405e-44
1.07014e-44
6.33612e-48
1.30966e-53
1.67379e-53
1.53631e-53
1.99272e-54
1.20495e-53
1.16534e-48
5.58985e-46
1.70103e-44
1.52983e-43
4.57228e-43
6.6237e-47
8.60454e-69
5.99956e-05
1.71116e-06
1.05499e-09
2.79554e-15
3.59706e-25
2.11512e-25
2.77979e-25
2.55752e-25
1.73643e-25
6.99887e-26
2.02526e-26
4.37532e-27
7.27933e-28
9.24943e-29
9.37613e-30
7.51072e-31
4.82792e-32
2.54979e-33
1.13819e-34
4.39871e-36
1.49907e-37
4.56145e-39
1.28592e-40
9.85523e-42
6.92633e-42
6.92377e-42
3.45183e-42
1.40172e-42
5.24491e-43
1.3903e-43
2.57927e-44
2.71099e-45
3.45709e-47
7.69067e-52
1.64573e-51
2.74426e-51
3.92184e-51
3.23702e-51
2.1397e-47
3.71596e-45
9.67596e-44
8.44196e-43
2.52021e-42
3.7339e-49
2.1463e-69
5.65173e-05
1.64559e-06
1.09265e-09
4.39869e-15
4.01249e-25
1.6979e-25
2.50737e-25
2.55359e-25
2.05655e-25
1.01916e-25
3.34166e-26
8.26525e-27
1.53545e-27
2.18702e-28
2.47256e-29
2.17558e-30
1.52194e-31
8.62475e-33
4.08121e-34
1.65601e-35
5.8951e-37
1.87106e-38
5.35721e-40
1.46943e-41
1.92538e-42
1.58091e-42
1.46399e-42
5.89003e-43
2.17537e-43
6.2196e-44
1.14301e-44
1.24801e-45
4.35907e-47
4.30318e-50
8.96294e-50
1.65891e-49
5.22384e-49
3.78671e-48
3.5882e-46
2.55923e-44
5.61313e-43
4.50511e-42
1.26836e-41
5.30428e-52
1.01013e-69
5.32598e-05
1.52266e-06
1.10945e-09
5.90064e-15
4.786e-25
1.25378e-25
2.24628e-25
2.46403e-25
2.16865e-25
1.40913e-25
5.34908e-26
1.53083e-26
3.21402e-27
5.25931e-28
6.68062e-29
6.50007e-30
4.99116e-31
3.06971e-32
1.55882e-33
6.72504e-35
2.52757e-36
8.44061e-38
2.54498e-39
7.02002e-41
1.90351e-42
2.98528e-43
2.5673e-43
2.01792e-43
7.37573e-44
2.48219e-44
5.11693e-45
5.89166e-46
4.00651e-47
2.02583e-48
4.46016e-48
9.07257e-48
3.38183e-47
2.87222e-46
6.40258e-45
1.71827e-43
2.59763e-42
1.79327e-41
4.83727e-41
1.00052e-54
4.99832e-70
5.03484e-05
1.39469e-06
1.10593e-09
7.05302e-15
6.10119e-25
8.2892e-26
1.84595e-25
2.19693e-25
2.19647e-25
1.73426e-25
8.29991e-26
2.74801e-26
6.74805e-27
1.29126e-27
1.8519e-28
2.01259e-29
1.71226e-30
1.15658e-31
6.37777e-33
2.96717e-34
1.19499e-35
4.26135e-37
1.37293e-38
4.07615e-40
1.14884e-41
3.60637e-43
4.88628e-44
3.02722e-44
1.67314e-44
6.89829e-45
2.07936e-45
4.6226e-46
1.04175e-46
7.71602e-47
1.71141e-46
3.64657e-46
1.29842e-45
8.77167e-45
9.89339e-44
1.20753e-42
1.00174e-41
4.37237e-41
8.93293e-41
3.09432e-55
1.75804e-70
4.79459e-05
1.25086e-06
1.00395e-09
7.7479e-15
8.21656e-25
4.75671e-26
1.37718e-25
1.96543e-25
2.14498e-25
1.83755e-25
1.2122e-25
4.73385e-26
1.42331e-26
3.17977e-27
5.19714e-28
6.43805e-29
6.17279e-30
4.65431e-31
2.82646e-32
1.43906e-33
6.32326e-35
2.46355e-36
8.71986e-38
2.88901e-39
9.42019e-41
3.44345e-42
2.28132e-43
5.46495e-44
2.4286e-44
1.10792e-44
5.17766e-45
2.9799e-45
2.43732e-45
2.47853e-45
4.97071e-45
1.08049e-44
3.31003e-44
1.65349e-43
1.13138e-42
7.67119e-42
3.59686e-41
8.66512e-41
9.60208e-41
1.14394e-55
1.48383e-70
4.63473e-05
1.10236e-06
8.93663e-10
8.00196e-15
1.15196e-24
2.47528e-26
8.91631e-26
1.58033e-25
1.86547e-25
1.86524e-25
1.53815e-25
7.69751e-26
2.9176e-26
7.53896e-27
1.43637e-27
2.09396e-28
2.32965e-29
2.00997e-30
1.37508e-31
7.794e-33
3.81625e-34
1.67474e-35
6.80454e-37
2.68562e-38
1.1323e-39
6.35477e-41
6.87445e-42
1.58376e-42
5.63939e-43
2.55721e-43
1.42437e-43
9.66874e-44
7.9199e-44
7.50982e-44
1.12552e-43
2.43991e-43
6.25426e-43
2.27428e-42
1.01251e-41
4.27458e-41
1.28139e-40
2.18001e-40
8.92823e-41
1.13572e-55
3.36807e-71
4.58118e-05
9.61918e-07
7.95164e-10
7.86852e-15
1.66285e-24
1.31928e-26
4.67302e-26
1.15288e-25
1.64772e-25
1.834e-25
1.61861e-25
1.13556e-25
5.41957e-26
1.65057e-26
3.79493e-27
6.74281e-28
9.04365e-29
9.23802e-30
7.37206e-31
4.76724e-32
2.66818e-33
1.36534e-34
6.72683e-36
3.42675e-37
2.06457e-38
1.82073e-39
2.72375e-40
6.51129e-41
2.16451e-41
9.22844e-42
4.89091e-42
3.1585e-42
2.45564e-42
2.24185e-42
2.38751e-42
4.43e-42
9.60676e-42
2.60273e-41
8.10429e-41
2.35274e-40
5.19598e-40
7.42066e-40
7.18632e-41
2.7927e-56
2.29085e-71
4.62332e-05
8.33744e-07
7.03209e-10
5.88534e-15
2.4604e-24
9.41739e-27
1.891e-26
7.20853e-26
1.27733e-25
1.58259e-25
1.62481e-25
1.43985e-25
8.51535e-26
3.24854e-26
9.35705e-27
2.08164e-27
3.49264e-28
4.39152e-29
4.25459e-30
3.25948e-31
2.15243e-32
1.32755e-33
8.30783e-35
5.73828e-36
4.94612e-37
6.04211e-38
1.07326e-38
2.62269e-39
8.31643e-40
3.29502e-40
1.60775e-40
9.60548e-41
6.961e-41
5.95743e-41
5.72167e-41
7.34746e-41
1.31612e-40
2.69301e-40
6.20293e-40
1.34443e-39
2.23114e-39
2.62267e-39
4.52047e-41
4.14161e-57
8.88444e-72
4.77529e-05
7.2144e-07
6.21188e-10
3.53036e-15
3.73071e-24
8.73395e-27
5.54456e-27
3.61864e-26
8.76354e-26
1.35052e-25
1.55622e-25
1.52552e-25
1.10307e-25
5.60498e-26
2.10238e-26
5.94415e-27
1.27792e-27
2.0491e-28
2.49789e-29
2.38613e-30
1.9322e-31
1.47645e-32
1.19213e-33
1.10666e-34
1.27571e-35
1.93861e-36
3.8684e-37
9.79841e-38
3.06704e-38
1.16217e-38
5.26929e-39
2.84855e-39
1.84326e-39
1.43227e-39
1.3088e-39
1.31773e-39
1.76193e-39
2.7594e-39
4.61277e-39
7.39001e-39
9.82842e-39
7.64726e-39
1.46872e-41
2.42198e-58
2.05033e-72
5.02296e-05
6.27158e-07
5.51641e-10
2.1306e-15
5.80579e-24
1.15969e-26
1.43634e-27
1.37958e-26
4.80951e-26
9.7383e-26
1.34793e-25
1.46358e-25
1.21067e-25
8.17039e-26
4.154e-26
1.50554e-26
4.17168e-27
8.75516e-28
1.39079e-28
1.74733e-29
1.81178e-30
1.74973e-31
1.79548e-32
2.14961e-33
3.11095e-34
5.56602e-35
1.22587e-35
3.25408e-36
1.02681e-36
3.81274e-37
1.65316e-37
8.33455e-38
4.87846e-38
3.31601e-38
2.62873e-38
2.41817e-38
2.47038e-38
2.92293e-38
3.60784e-38
4.22022e-38
3.88181e-38
1.86069e-38
1.44015e-42
2.90803e-60
4.77094e-73
5.33819e-05
5.51406e-07
5.00949e-10
1.57373e-15
9.2896e-24
1.83348e-26
3.899e-28
3.77662e-27
1.96133e-26
5.2717e-26
9.18838e-26
1.1613e-25
1.21011e-25
9.78718e-26
6.8192e-26
3.20208e-26
1.14582e-26
3.19826e-27
6.88029e-28
1.18157e-28
1.63863e-29
2.03076e-30
2.59423e-31
3.83497e-32
6.68296e-33
1.37316e-33
3.32032e-34
9.31597e-35
3.00767e-35
1.11277e-35
4.69473e-36
2.25094e-36
1.22381e-36
7.52878e-37
5.22656e-37
4.06757e-37
3.49201e-37
3.21799e-37
3.01089e-37
2.53624e-37
1.48939e-37
3.69869e-38
2.49372e-44
5.23804e-61
8.87319e-74
5.72182e-05
4.96093e-07
4.77479e-10
1.46719e-15
1.53165e-23
3.03374e-26
2.30245e-28
6.76881e-28
5.88264e-27
2.20842e-26
5.16285e-26
8.27921e-26
9.92198e-26
9.91661e-26
8.73361e-26
5.34661e-26
2.5357e-26
9.44857e-27
2.82337e-27
6.74721e-28
1.29541e-28
2.11169e-29
3.3616e-30
5.92981e-31
1.2089e-31
2.82071e-32
7.48086e-33
2.23304e-33
7.46e-34
2.78749e-34
1.16133e-34
5.37898e-35
2.76174e-35
1.56535e-35
9.73536e-36
6.57373e-36
4.73047e-36
3.50955e-36
2.52498e-36
1.55481e-36
6.162e-37
5.35516e-38
5.55874e-47
1.0314e-63
1.27922e-74
6.27157e-05
4.69236e-07
4.75311e-10
1.59544e-15
2.60968e-23
5.1929e-26
2.23477e-28