/*--------------------------------*- C++ -*----------------------------------*\
| =========                 |                                                 |
| \\      /  F ield         | OpenFOAM: The Open Source CFD Toolbox           |
|  \\    /   O peration     | Version:  v2012                                 |
|   \\  /    A nd           | Website:  www.openfoam.com                      |
|    \\/     M anipulation  |                                                 |
\*---------------------------------------------------------------------------*/
FoamFile
{
    version     2.0;
    format      ascii;
    class       volScalarField;
    location    "0.4";
    object      p_rgh;
}
// * * * * * * * * * * * * * * * * * * * * * * * * * * * * * * * * * * * * * //

dimensions      [1 -1 -2 0 0 0 0];


internalField   nonuniform List<scalar> 
3326
(
3.49858e+06
3.4986e+06
3.49862e+06
3.49864e+06
3.49866e+06
3.49867e+06
3.49868e+06
3.49869e+06
3.49869e+06
3.49848e+06
3.49851e+06
3.49854e+06
3.49856e+06
3.49859e+06
3.49861e+06
3.49863e+06
3.49865e+06
3.49866e+06
3.49867e+06
3.49868e+06
3.49868e+06
3.49675e+06
3.49679e+06
3.49684e+06
3.49688e+06
3.49692e+06
3.49697e+06
3.49702e+06
3.49707e+06
3.49712e+06
3.49717e+06
3.49722e+06
3.49728e+06
3.49734e+06
3.4974e+06
3.49745e+06
3.49751e+06
3.49757e+06
3.49763e+06
3.49769e+06
3.49776e+06
3.49782e+06
3.49787e+06
3.49793e+06
3.49799e+06
3.49805e+06
3.4981e+06
3.49815e+06
3.4982e+06
3.49825e+06
3.4983e+06
3.49834e+06
3.49838e+06
3.49842e+06
3.49846e+06
3.49849e+06
3.49852e+06
3.49855e+06
3.49857e+06
3.4986e+06
3.49862e+06
3.49863e+06
3.49865e+06
3.49866e+06
3.49867e+06
3.49867e+06
3.49659e+06
3.49663e+06
3.49668e+06
3.49673e+06
3.49678e+06
3.49683e+06
3.49689e+06
3.49694e+06
3.497e+06
3.49706e+06
3.49712e+06
3.49718e+06
3.49724e+06
3.49731e+06
3.49737e+06
3.49744e+06
3.4975e+06
3.49757e+06
3.49763e+06
3.4977e+06
3.49776e+06
3.49782e+06
3.49789e+06
3.49795e+06
3.49801e+06
3.49806e+06
3.49812e+06
3.49817e+06
3.49822e+06
3.49827e+06
3.49832e+06
3.49836e+06
3.4984e+06
3.49844e+06
3.49847e+06
3.49851e+06
3.49853e+06
3.49856e+06
3.49858e+06
3.4986e+06
3.49862e+06
3.49864e+06
3.49865e+06
3.49865e+06
3.49866e+06
3.4964e+06
3.49645e+06
3.49652e+06
3.49657e+06
3.49664e+06
3.49669e+06
3.49675e+06
3.49681e+06
3.49688e+06
3.49694e+06
3.49701e+06
3.49707e+06
3.49714e+06
3.49721e+06
3.49728e+06
3.49735e+06
3.49742e+06
3.49749e+06
3.49757e+06
3.49764e+06
3.49771e+06
3.49777e+06
3.49784e+06
3.49791e+06
3.49797e+06
3.49803e+06
3.49809e+06
3.49814e+06
3.4982e+06
3.49825e+06
3.4983e+06
3.49834e+06
3.49838e+06
3.49842e+06
3.49846e+06
3.49849e+06
3.49852e+06
3.49855e+06
3.49857e+06
3.49859e+06
3.49861e+06
3.49862e+06
3.49863e+06
3.49864e+06
3.49865e+06
3.49621e+06
3.49627e+06
3.49634e+06
3.4964e+06
3.49647e+06
3.49654e+06
3.4966e+06
3.49667e+06
3.49674e+06
3.49681e+06
3.49689e+06
3.49696e+06
3.49704e+06
3.49711e+06
3.49719e+06
3.49727e+06
3.49734e+06
3.49742e+06
3.4975e+06
3.49757e+06
3.49765e+06
3.49772e+06
3.49779e+06
3.49786e+06
3.49793e+06
3.49799e+06
3.49805e+06
3.49811e+06
3.49817e+06
3.49822e+06
3.49827e+06
3.49832e+06
3.49836e+06
3.4984e+06
3.49844e+06
3.49847e+06
3.49851e+06
3.49853e+06
3.49856e+06
3.49858e+06
3.4986e+06
3.49861e+06
3.49862e+06
3.49863e+06
3.49864e+06
3.496e+06
3.49607e+06
3.49615e+06
3.49622e+06
3.4963e+06
3.49637e+06
3.49644e+06
3.49652e+06
3.4966e+06
3.49668e+06
3.49676e+06
3.49684e+06
3.49692e+06
3.49701e+06
3.49709e+06
3.49717e+06
3.49726e+06
3.49734e+06
3.49743e+06
3.49751e+06
3.49759e+06
3.49767e+06
3.49774e+06
3.49782e+06
3.49789e+06
3.49796e+06
3.49802e+06
3.49808e+06
3.49814e+06
3.4982e+06
3.49825e+06
3.4983e+06
3.49834e+06
3.49839e+06
3.49842e+06
3.49846e+06
3.49849e+06
3.49852e+06
3.49855e+06
3.49857e+06
3.49859e+06
3.4986e+06
3.49861e+06
3.49862e+06
3.49862e+06
3.49579e+06
3.49586e+06
3.49594e+06
3.49602e+06
3.4961e+06
3.49619e+06
3.49627e+06
3.49635e+06
3.49644e+06
3.49653e+06
3.49662e+06
3.49671e+06
3.4968e+06
3.49689e+06
3.49699e+06
3.49708e+06
3.49717e+06
3.49726e+06
3.49735e+06
3.49744e+06
3.49753e+06
3.49761e+06
3.49769e+06
3.49777e+06
3.49785e+06
3.49792e+06
3.49799e+06
3.49805e+06
3.49811e+06
3.49817e+06
3.49823e+06
3.49828e+06
3.49832e+06
3.49837e+06
3.49841e+06
3.49844e+06
3.49848e+06
3.49851e+06
3.49853e+06
3.49855e+06
3.49857e+06
3.49859e+06
3.4986e+06
3.49861e+06
3.49861e+06
3.49554e+06
3.49563e+06
3.49572e+06
3.49581e+06
3.4959e+06
3.49599e+06
3.49608e+06
3.49618e+06
3.49627e+06
3.49637e+06
3.49647e+06
3.49657e+06
3.49667e+06
3.49677e+06
3.49688e+06
3.49698e+06
3.49708e+06
3.49718e+06
3.49727e+06
3.49737e+06
3.49746e+06
3.49755e+06
3.49764e+06
3.49772e+06
3.4978e+06
3.49788e+06
3.49795e+06
3.49802e+06
3.49809e+06
3.49815e+06
3.4982e+06
3.49826e+06
3.49831e+06
3.49835e+06
3.49839e+06
3.49843e+06
3.49846e+06
3.49849e+06
3.49852e+06
3.49854e+06
3.49856e+06
3.49858e+06
3.49859e+06
3.4986e+06
3.4986e+06
3.4953e+06
3.49538e+06
3.49548e+06
3.49558e+06
3.49567e+06
3.49578e+06
3.49588e+06
3.49598e+06
3.49609e+06
3.4962e+06
3.49631e+06
3.49642e+06
3.49653e+06
3.49665e+06
3.49676e+06
3.49687e+06
3.49698e+06
3.49709e+06
3.49719e+06
3.4973e+06
3.4974e+06
3.49749e+06
3.49759e+06
3.49768e+06
3.49776e+06
3.49784e+06
3.49792e+06
3.49799e+06
3.49806e+06
3.49812e+06
3.49818e+06
3.49824e+06
3.49829e+06
3.49833e+06
3.49838e+06
3.49842e+06
3.49845e+06
3.49848e+06
3.49851e+06
3.49853e+06
3.49855e+06
3.49857e+06
3.49858e+06
3.49859e+06
3.49859e+06
3.495e+06
3.4951e+06
3.49521e+06
3.49532e+06
3.49543e+06
3.49554e+06
3.49566e+06
3.49577e+06
3.49589e+06
3.49601e+06
3.49614e+06
3.49626e+06
3.49639e+06
3.49651e+06
3.49664e+06
3.49676e+06
3.49688e+06
3.497e+06
3.49711e+06
3.49722e+06
3.49733e+06
3.49743e+06
3.49753e+06
3.49763e+06
3.49772e+06
3.4978e+06
3.49788e+06
3.49796e+06
3.49803e+06
3.4981e+06
3.49816e+06
3.49822e+06
3.49827e+06
3.49832e+06
3.49836e+06
3.4984e+06
3.49844e+06
3.49847e+06
3.4985e+06
3.49852e+06
3.49854e+06
3.49856e+06
3.49857e+06
3.49858e+06
3.49858e+06
3.49469e+06
3.4948e+06
3.49492e+06
3.49504e+06
3.49516e+06
3.49528e+06
3.49541e+06
3.49554e+06
3.49568e+06
3.49581e+06
3.49595e+06
3.49609e+06
3.49623e+06
3.49637e+06
3.49651e+06
3.49664e+06
3.49677e+06
3.4969e+06
3.49702e+06
3.49715e+06
3.49726e+06
3.49737e+06
3.49748e+06
3.49758e+06
3.49767e+06
3.49776e+06
3.49785e+06
3.49793e+06
3.498e+06
3.49807e+06
3.49814e+06
3.4982e+06
3.49825e+06
3.4983e+06
3.49835e+06
3.49839e+06
3.49842e+06
3.49846e+06
3.49849e+06
3.49851e+06
3.49853e+06
3.49855e+06
3.49856e+06
3.49857e+06
3.49857e+06
3.49432e+06
3.49445e+06
3.49459e+06
3.49473e+06
3.49486e+06
3.495e+06
3.49515e+06
3.49529e+06
3.49544e+06
3.4956e+06
3.49575e+06
3.49591e+06
3.49606e+06
3.49622e+06
3.49637e+06
3.49652e+06
3.49666e+06
3.4968e+06
3.49693e+06
3.49707e+06
3.49719e+06
3.49731e+06
3.49742e+06
3.49753e+06
3.49763e+06
3.49772e+06
3.49781e+06
3.4979e+06
3.49798e+06
3.49805e+06
3.49811e+06
3.49818e+06
3.49823e+06
3.49828e+06
3.49833e+06
3.49837e+06
3.49841e+06
3.49844e+06
3.49847e+06
3.4985e+06
3.49852e+06
3.49854e+06
3.49855e+06
3.49856e+06
3.49856e+06
3.49394e+06
3.49408e+06
3.49423e+06
3.49438e+06
3.49453e+06
3.49469e+06
3.49485e+06
3.49502e+06
3.49519e+06
3.49536e+06
3.49554e+06
3.49571e+06
3.49589e+06
3.49606e+06
3.49622e+06
3.49638e+06
3.49654e+06
3.4967e+06
3.49684e+06
3.49698e+06
3.49712e+06
3.49724e+06
3.49736e+06
3.49748e+06
3.49758e+06
3.49769e+06
3.49778e+06
3.49787e+06
3.49795e+06
3.49802e+06
3.49809e+06
3.49816e+06
3.49821e+06
3.49827e+06
3.49832e+06
3.49836e+06
3.4984e+06
3.49843e+06
3.49846e+06
3.49849e+06
3.49851e+06
3.49853e+06
3.49854e+06
3.49855e+06
3.49855e+06
3.49345e+06
3.49363e+06
3.4938e+06
3.49398e+06
3.49416e+06
3.49434e+06
3.49452e+06
3.49472e+06
3.49491e+06
3.49511e+06
3.49531e+06
3.4955e+06
3.49569e+06
3.49588e+06
3.49607e+06
3.49625e+06
3.49642e+06
3.49659e+06
3.49675e+06
3.4969e+06
3.49704e+06
3.49718e+06
3.49731e+06
3.49743e+06
3.49754e+06
3.49765e+06
3.49774e+06
3.49784e+06
3.49792e+06
3.498e+06
3.49807e+06
3.49814e+06
3.4982e+06
3.49825e+06
3.4983e+06
3.49835e+06
3.49839e+06
3.49842e+06
3.49845e+06
3.49848e+06
3.4985e+06
3.49852e+06
3.49853e+06
3.49854e+06
3.49855e+06
3.49296e+06
3.49315e+06
3.49334e+06
3.49354e+06
3.49374e+06
3.49395e+06
3.49416e+06
3.49438e+06
3.49461e+06
3.49483e+06
3.49505e+06
3.49527e+06
3.49549e+06
3.4957e+06
3.49591e+06
3.4961e+06
3.49629e+06
3.49647e+06
3.49665e+06
3.49681e+06
3.49696e+06
3.49711e+06
3.49725e+06
3.49737e+06
3.49749e+06
3.49761e+06
3.49771e+06
3.4978e+06
3.49789e+06
3.49797e+06
3.49805e+06
3.49812e+06
3.49818e+06
3.49824e+06
3.49829e+06
3.49833e+06
3.49838e+06
3.49841e+06
3.49844e+06
3.49847e+06
3.49849e+06
3.49851e+06
3.49852e+06
3.49853e+06
3.49854e+06
3.49231e+06
3.49254e+06
3.49279e+06
3.49302e+06
3.49326e+06
3.49351e+06
3.49376e+06
3.49402e+06
3.49427e+06
3.49453e+06
3.49478e+06
3.49503e+06
3.49527e+06
3.49551e+06
3.49573e+06
3.49595e+06
3.49616e+06
3.49636e+06
3.49654e+06
3.49672e+06
3.49689e+06
3.49704e+06
3.49719e+06
3.49732e+06
3.49745e+06
3.49757e+06
3.49767e+06
3.49777e+06
3.49787e+06
3.49795e+06
3.49803e+06
3.4981e+06
3.49816e+06
3.49822e+06
3.49827e+06
3.49832e+06
3.49836e+06
3.4984e+06
3.49843e+06
3.49846e+06
3.49848e+06
3.4985e+06
3.49852e+06
3.49852e+06
3.49853e+06
3.4917e+06
3.49194e+06
3.49221e+06
3.49246e+06
3.49274e+06
3.49303e+06
3.49332e+06
3.49361e+06
3.49391e+06
3.4942e+06
3.49449e+06
3.49477e+06
3.49504e+06
3.4953e+06
3.49555e+06
3.49579e+06
3.49602e+06
3.49623e+06
3.49644e+06
3.49663e+06
3.49681e+06
3.49697e+06
3.49713e+06
3.49727e+06
3.4974e+06
3.49753e+06
3.49764e+06
3.49774e+06
3.49784e+06
3.49793e+06
3.49801e+06
3.49808e+06
3.49815e+06
3.49821e+06
3.49826e+06
3.49831e+06
3.49835e+06
3.49839e+06
3.49842e+06
3.49845e+06
3.49848e+06
3.49849e+06
3.49851e+06
3.49852e+06
3.49852e+06
3.49082e+06
3.49113e+06
3.49148e+06
3.49179e+06
3.49213e+06
3.49248e+06
3.49282e+06
3.49317e+06
3.49351e+06
3.49384e+06
3.49417e+06
3.49449e+06
3.49479e+06
3.49508e+06
3.49536e+06
3.49563e+06
3.49587e+06
3.49611e+06
3.49633e+06
3.49653e+06
3.49672e+06
3.4969e+06
3.49707e+06
3.49722e+06
3.49736e+06
3.49749e+06
3.49761e+06
3.49771e+06
3.49781e+06
3.49791e+06
3.49799e+06
3.49806e+06
3.49813e+06
3.49819e+06
3.49825e+06
3.4983e+06
3.49834e+06
3.49838e+06
3.49842e+06
3.49844e+06
3.49847e+06
3.49849e+06
3.4985e+06
3.49851e+06
3.49851e+06
3.49e+06
3.49033e+06
3.49071e+06
3.49108e+06
3.49148e+06
3.49188e+06
3.49228e+06
3.49268e+06
3.49307e+06
3.49346e+06
3.49383e+06
3.49419e+06
3.49453e+06
3.49485e+06
3.49516e+06
3.49545e+06
3.49572e+06
3.49598e+06
3.49622e+06
3.49644e+06
3.49664e+06
3.49683e+06
3.497e+06
3.49717e+06
3.49731e+06
3.49745e+06
3.49757e+06
3.49769e+06
3.49779e+06
3.49788e+06
3.49797e+06
3.49805e+06
3.49812e+06
3.49818e+06
3.49824e+06
3.49829e+06
3.49833e+06
3.49837e+06
3.49841e+06
3.49844e+06
3.49846e+06
3.49848e+06
3.49849e+06
3.4985e+06
3.49851e+06
3.48875e+06
3.48922e+06
3.48973e+06
3.49021e+06
3.4907e+06
3.49119e+06
3.49166e+06
3.49213e+06
3.49259e+06
3.49303e+06
3.49346e+06
3.49386e+06
3.49425e+06
3.49461e+06
3.49495e+06
3.49527e+06
3.49557e+06
3.49585e+06
3.4961e+06
3.49634e+06
3.49656e+06
3.49676e+06
3.49694e+06
3.49711e+06
3.49727e+06
3.49741e+06
3.49754e+06
3.49766e+06
3.49776e+06
3.49786e+06
3.49795e+06
3.49803e+06
3.4981e+06
3.49817e+06
3.49823e+06
3.49828e+06
3.49832e+06
3.49836e+06
3.4984e+06
3.49843e+06
3.49845e+06
3.49847e+06
3.49849e+06
3.49849e+06
3.4985e+06
3.4877e+06
3.48819e+06
3.48876e+06
3.4893e+06
3.48987e+06
3.49044e+06
3.49099e+06
3.49154e+06
3.49207e+06
3.49258e+06
3.49306e+06
3.49352e+06
3.49395e+06
3.49436e+06
3.49473e+06
3.49508e+06
3.49541e+06
3.49571e+06
3.49599e+06
3.49624e+06
3.49647e+06
3.49669e+06
3.49688e+06
3.49706e+06
3.49722e+06
3.49737e+06
3.49751e+06
3.49763e+06
3.49774e+06
3.49784e+06
3.49793e+06
3.49801e+06
3.49809e+06
3.49815e+06
3.49821e+06
3.49827e+06
3.49831e+06
3.49836e+06
3.49839e+06
3.49842e+06
3.49845e+06
3.49847e+06
3.49848e+06
3.49849e+06
3.49849e+06
3.4859e+06
3.48665e+06
3.48742e+06
3.48815e+06
3.48887e+06
3.48957e+06
3.49023e+06
3.49088e+06
3.49149e+06
3.49208e+06
3.49263e+06
3.49315e+06
3.49364e+06
3.49409e+06
3.49451e+06
3.49489e+06
3.49525e+06
3.49557e+06
3.49587e+06
3.49614e+06
3.49639e+06
3.49662e+06
3.49682e+06
3.49701e+06
3.49718e+06
3.49733e+06
3.49747e+06
3.4976e+06
3.49772e+06
3.49782e+06
3.49791e+06
3.498e+06
3.49807e+06
3.49814e+06
3.4982e+06
3.49826e+06
3.49831e+06
3.49835e+06
3.49838e+06
3.49841e+06
3.49844e+06
3.49846e+06
3.49847e+06
3.49848e+06
3.49849e+06
3.48459e+06
3.48536e+06
3.48618e+06
3.487e+06
3.48782e+06
3.48863e+06
3.48941e+06
3.49016e+06
3.49087e+06
3.49155e+06
3.49218e+06
3.49276e+06
3.49331e+06
3.49381e+06
3.49427e+06
3.49469e+06
3.49508e+06
3.49543e+06
3.49575e+06
3.49604e+06
3.49631e+06
3.49655e+06
3.49676e+06
3.49696e+06
3.49714e+06
3.4973e+06
3.49744e+06
3.49757e+06
3.49769e+06
3.4978e+06
3.4979e+06
3.49798e+06
3.49806e+06
3.49813e+06
3.49819e+06
3.49825e+06
3.4983e+06
3.49834e+06
3.49838e+06
3.49841e+06
3.49843e+06
3.49845e+06
3.49847e+06
3.49848e+06
3.49848e+06
3.48193e+06
3.48316e+06
3.48436e+06
3.48548e+06
3.48653e+06
3.48754e+06
3.48848e+06
3.48937e+06
3.4902e+06
3.49097e+06
3.49169e+06
3.49236e+06
3.49296e+06
3.49352e+06
3.49403e+06
3.49449e+06
3.49491e+06
3.49529e+06
3.49563e+06
3.49594e+06
3.49622e+06
3.49648e+06
3.49671e+06
3.49691e+06
3.4971e+06
3.49726e+06
3.49741e+06
3.49755e+06
3.49767e+06
3.49778e+06
3.49788e+06
3.49797e+06
3.49805e+06
3.49812e+06
3.49818e+06
3.49824e+06
3.49829e+06
3.49833e+06
3.49837e+06
3.4984e+06
3.49843e+06
3.49845e+06
3.49846e+06
3.49847e+06
3.49847e+06
3.48038e+06
3.4816e+06
3.48283e+06
3.48405e+06
3.48524e+06
3.48639e+06
3.48748e+06
3.48852e+06
3.48947e+06
3.49036e+06
3.49118e+06
3.49193e+06
3.49261e+06
3.49322e+06
3.49378e+06
3.49429e+06
3.49474e+06
3.49515e+06
3.49552e+06
3.49585e+06
3.49614e+06
3.49641e+06
3.49665e+06
3.49686e+06
3.49706e+06
3.49723e+06
3.49739e+06
3.49753e+06
3.49765e+06
3.49776e+06
3.49787e+06
3.49796e+06
3.49804e+06
3.49811e+06
3.49817e+06
3.49823e+06
3.49828e+06
3.49833e+06
3.49836e+06
3.4984e+06
3.49842e+06
3.49844e+06
3.49846e+06
3.49847e+06
3.49847e+06
3.47637e+06
3.47842e+06
3.48027e+06
3.48199e+06
3.48355e+06
3.48501e+06
3.48634e+06
3.48757e+06
3.48869e+06
3.48971e+06
3.49064e+06
3.49148e+06
3.49224e+06
3.49292e+06
3.49353e+06
3.49408e+06
3.49457e+06
3.49501e+06
3.4954e+06
3.49575e+06
3.49606e+06
3.49634e+06
3.49659e+06
3.49682e+06
3.49702e+06
3.4972e+06
3.49736e+06
3.4975e+06
3.49763e+06
3.49775e+06
3.49785e+06
3.49794e+06
3.49803e+06
3.4981e+06
3.49817e+06
3.49822e+06
3.49828e+06
3.49832e+06
3.49836e+06
3.49839e+06
3.49842e+06
3.49844e+06
3.49845e+06
3.49846e+06
3.49847e+06
3.47098e+06
3.4729e+06
3.4746e+06
3.47655e+06
3.47839e+06
3.48025e+06
3.48198e+06
3.48364e+06
3.48516e+06
3.48658e+06
3.48786e+06
3.48903e+06
3.49008e+06
3.49102e+06
3.49186e+06
3.49261e+06
3.49328e+06
3.49388e+06
3.4944e+06
3.49487e+06
3.49529e+06
3.49566e+06
3.49599e+06
3.49628e+06
3.49654e+06
3.49677e+06
3.49698e+06
3.49717e+06
3.49733e+06
3.49748e+06
3.49761e+06
3.49773e+06
3.49784e+06
3.49793e+06
3.49802e+06
3.49809e+06
3.49816e+06
3.49822e+06
3.49827e+06
3.49831e+06
3.49835e+06
3.49839e+06
3.49841e+06
3.49843e+06
3.49845e+06
3.49846e+06
3.49846e+06
3.46054e+06
3.4649e+06
3.46839e+06
3.47186e+06
3.47475e+06
3.47747e+06
3.47979e+06
3.48192e+06
3.48379e+06
3.48548e+06
3.48698e+06
3.48831e+06
3.4895e+06
3.49055e+06
3.49148e+06
3.49231e+06
3.49303e+06
3.49367e+06
3.49424e+06
3.49474e+06
3.49518e+06
3.49557e+06
3.49591e+06
3.49622e+06
3.49649e+06
3.49673e+06
3.49695e+06
3.49714e+06
3.49731e+06
3.49746e+06
3.4976e+06
3.49772e+06
3.49783e+06
3.49792e+06
3.49801e+06
3.49808e+06
3.49815e+06
3.49821e+06
3.49826e+06
3.49831e+06
3.49835e+06
3.49838e+06
3.49841e+06
3.49843e+06
3.49845e+06
3.49846e+06
3.49846e+06
3.46091e+06
3.46415e+06
3.46671e+06
3.46989e+06
3.47262e+06
3.47547e+06
3.47796e+06
3.48035e+06
3.48246e+06
3.48438e+06
3.48608e+06
3.48759e+06
3.48891e+06
3.49008e+06
3.49111e+06
3.492e+06
3.49279e+06
3.49348e+06
3.49408e+06
3.49461e+06
3.49507e+06
3.49548e+06
3.49584e+06
3.49616e+06
3.49644e+06
3.49669e+06
3.49691e+06
3.49711e+06
3.49729e+06
3.49744e+06
3.49758e+06
3.4977e+06
3.49781e+06
3.49791e+06
3.498e+06
3.49808e+06
3.49815e+06
3.49821e+06
3.49826e+06
3.49831e+06
3.49835e+06
3.49838e+06
3.49841e+06
3.49843e+06
3.49844e+06
3.49845e+06
3.49846e+06
3.44303e+06
3.45112e+06
3.45698e+06
3.46294e+06
3.46747e+06
3.47175e+06
3.47518e+06
3.47827e+06
3.48086e+06
3.48315e+06
3.48512e+06
3.48684e+06
3.48832e+06
3.48961e+06
3.49073e+06
3.49171e+06
3.49255e+06
3.49329e+06
3.49393e+06
3.49449e+06
3.49498e+06
3.4954e+06
3.49578e+06
3.49611e+06
3.4964e+06
3.49666e+06
3.49689e+06
3.49709e+06
3.49727e+06
3.49742e+06
3.49757e+06
3.49769e+06
3.4978e+06
3.4979e+06
3.49799e+06
3.49807e+06
3.49814e+06
3.4982e+06
3.49825e+06
3.4983e+06
3.49834e+06
3.49838e+06
3.4984e+06
3.49842e+06
3.49844e+06
3.49845e+06
3.49845e+06
3.44626e+06
3.45217e+06
3.45599e+06
3.46127e+06
3.46528e+06
3.46963e+06
3.47319e+06
3.47657e+06
3.47944e+06
3.482e+06
3.4842e+06
3.48611e+06
3.48775e+06
3.48916e+06
3.49038e+06
3.49143e+06
3.49233e+06
3.49311e+06
3.49379e+06
3.49437e+06
3.49488e+06
3.49533e+06
3.49572e+06
3.49606e+06
3.49636e+06
3.49663e+06
3.49686e+06
3.49706e+06
3.49725e+06
3.49741e+06
3.49755e+06
3.49768e+06
3.49779e+06
3.4979e+06
3.49798e+06
3.49806e+06
3.49813e+06
3.4982e+06
3.49825e+06
3.4983e+06
3.49834e+06
3.49837e+06
3.4984e+06
3.49842e+06
3.49844e+06
3.49845e+06
3.49845e+06
3.41683e+06
3.43154e+06
3.44113e+06
3.45128e+06
3.45823e+06
3.46487e+06
3.46981e+06
3.4742e+06
3.47771e+06
3.48072e+06
3.48324e+06
3.48538e+06
3.48719e+06
3.48873e+06
3.49004e+06
3.49116e+06
3.49212e+06
3.49295e+06
3.49366e+06
3.49427e+06
3.4948e+06
3.49526e+06
3.49567e+06
3.49602e+06
3.49633e+06
3.4966e+06
3.49684e+06
3.49705e+06
3.49723e+06
3.4974e+06
3.49754e+06
3.49767e+06
3.49779e+06
3.49789e+06
3.49798e+06
3.49806e+06
3.49813e+06
3.49819e+06
3.49825e+06
3.4983e+06
3.49834e+06
3.49837e+06
3.4984e+06
3.49842e+06
3.49844e+06
3.49845e+06
3.49845e+06
3.42447e+06
3.43553e+06
3.44144e+06
3.45049e+06
3.45632e+06
3.46292e+06
3.46788e+06
3.47256e+06
3.47634e+06
3.47964e+06
3.48238e+06
3.48472e+06
3.48668e+06
3.48834e+06
3.48974e+06
3.49093e+06
3.49194e+06
3.4928e+06
3.49354e+06
3.49418e+06
3.49473e+06
3.49521e+06
3.49562e+06
3.49598e+06
3.4963e+06
3.49657e+06
3.49682e+06
3.49703e+06
3.49722e+06
3.49738e+06
3.49753e+06
3.49766e+06
3.49778e+06
3.49788e+06
3.49797e+06
3.49805e+06
3.49813e+06
3.49819e+06
3.49824e+06
3.49829e+06
3.49833e+06
3.49837e+06
3.4984e+06
3.49842e+06
3.49844e+06
3.49845e+06
3.49845e+06
3.38101e+06
3.40606e+06
3.42102e+06
3.43757e+06
3.44764e+06
3.45745e+06
3.46422e+06
3.47015e+06
3.47467e+06
3.47848e+06
3.48154e+06
3.4841e+06
3.48622e+06
3.48799e+06
3.48947e+06
3.49072e+06
3.49178e+06
3.49268e+06
3.49345e+06
3.49411e+06
3.49467e+06
3.49516e+06
3.49558e+06
3.49595e+06
3.49627e+06
3.49655e+06
3.4968e+06
3.49702e+06
3.49721e+06
3.49738e+06
3.49752e+06
3.49766e+06
3.49777e+06
3.49788e+06
3.49797e+06
3.49805e+06
3.49812e+06
3.49819e+06
3.49824e+06
3.49829e+06
3.49833e+06
3.49837e+06
3.4984e+06
3.49842e+06
3.49843e+06
3.49844e+06
3.49845e+06
3.39202e+06
3.41159e+06
3.42172e+06
3.43737e+06
3.44606e+06
3.45588e+06
3.46262e+06
3.46882e+06
3.47358e+06
3.47763e+06
3.4809e+06
3.48361e+06
3.48585e+06
3.48771e+06
3.48926e+06
3.49056e+06
3.49166e+06
3.49259e+06
3.49337e+06
3.49405e+06
3.49463e+06
3.49512e+06
3.49555e+06
3.49593e+06
3.49625e+06
3.49654e+06
3.49679e+06
3.49701e+06
3.4972e+06
3.49737e+06
3.49752e+06
3.49765e+06
3.49777e+06
3.49787e+06
3.49797e+06
3.49805e+06
3.49812e+06
3.49819e+06
3.49824e+06
3.49829e+06
3.49833e+06
3.49837e+06
3.4984e+06
3.49842e+06
3.49843e+06
3.49844e+06
3.49845e+06
3.34249e+06
3.37953e+06
3.40168e+06
3.42526e+06
3.43844e+06
3.45135e+06
3.4598e+06
3.46708e+06
3.47245e+06
3.47688e+06
3.48038e+06
3.48325e+06
3.48558e+06
3.48752e+06
3.48912e+06
3.49045e+06
3.49158e+06
3.49252e+06
3.49332e+06
3.49401e+06
3.4946e+06
3.4951e+06
3.49554e+06
3.49591e+06
3.49624e+06
3.49653e+06
3.49678e+06
3.497e+06
3.49719e+06
3.49736e+06
3.49752e+06
3.49765e+06
3.49777e+06
3.49787e+06
3.49797e+06
3.49805e+06
3.49812e+06
3.49818e+06
3.49824e+06
3.49829e+06
3.49833e+06
3.49837e+06
3.4984e+06
3.49842e+06
3.49843e+06
3.49844e+06
3.49845e+06
3.34584e+06
3.37912e+06
3.39912e+06
3.42373e+06
3.43674e+06
3.45013e+06
3.45883e+06
3.46636e+06
3.47192e+06
3.47649e+06
3.4801e+06
3.48305e+06
3.48544e+06
3.48741e+06
3.48904e+06
3.4904e+06
3.49153e+06
3.49249e+06
3.4933e+06
3.49399e+06
3.49458e+06
3.49509e+06
3.49553e+06
3.49591e+06
3.49624e+06
3.49652e+06
3.49678e+06
3.497e+06
3.49719e+06
3.49736e+06
3.49751e+06
3.49765e+06
3.49777e+06
3.49787e+06
3.49797e+06
3.49805e+06
3.49812e+06
3.49818e+06
3.49824e+06
3.49829e+06
3.49833e+06
3.49837e+06
3.4984e+06
3.49842e+06
3.49844e+06
3.49845e+06
3.49845e+06
3.49858e+06
3.4986e+06
3.49862e+06
3.49864e+06
3.49866e+06
3.49867e+06
3.49868e+06
3.49869e+06
3.49869e+06
3.49848e+06
3.49851e+06
3.49854e+06
3.49856e+06
3.49859e+06
3.49861e+06
3.49863e+06
3.49865e+06
3.49866e+06
3.49867e+06
3.49868e+06
3.49868e+06
3.49675e+06
3.49679e+06
3.49684e+06
3.49688e+06
3.49692e+06
3.49697e+06
3.49702e+06
3.49707e+06
3.49712e+06
3.49717e+06
3.49722e+06
3.49728e+06
3.49734e+06
3.4974e+06
3.49745e+06
3.49751e+06
3.49757e+06
3.49763e+06
3.49769e+06
3.49776e+06
3.49782e+06
3.49787e+06
3.49793e+06
3.49799e+06
3.49805e+06
3.4981e+06
3.49815e+06
3.4982e+06
3.49825e+06
3.4983e+06
3.49834e+06
3.49838e+06
3.49842e+06
3.49846e+06
3.49849e+06
3.49852e+06
3.49855e+06
3.49857e+06
3.4986e+06
3.49862e+06
3.49863e+06
3.49865e+06
3.49866e+06
3.49867e+06
3.49867e+06
3.49659e+06
3.49663e+06
3.49668e+06
3.49673e+06
3.49678e+06
3.49683e+06
3.49689e+06
3.49694e+06
3.497e+06
3.49706e+06
3.49712e+06
3.49718e+06
3.49724e+06
3.49731e+06
3.49737e+06
3.49744e+06
3.4975e+06
3.49757e+06
3.49763e+06
3.4977e+06
3.49776e+06
3.49782e+06
3.49789e+06
3.49795e+06
3.49801e+06
3.49806e+06
3.49812e+06
3.49817e+06
3.49822e+06
3.49827e+06
3.49832e+06
3.49836e+06
3.4984e+06
3.49844e+06
3.49847e+06
3.49851e+06
3.49853e+06
3.49856e+06
3.49858e+06
3.4986e+06
3.49862e+06
3.49864e+06
3.49865e+06
3.49865e+06
3.49866e+06
3.4964e+06
3.49645e+06
3.49652e+06
3.49657e+06
3.49663e+06
3.49669e+06
3.49675e+06
3.49681e+06
3.49688e+06
3.49694e+06
3.49701e+06
3.49707e+06
3.49714e+06
3.49721e+06
3.49728e+06
3.49735e+06
3.49742e+06
3.49749e+06
3.49757e+06
3.49764e+06
3.49771e+06
3.49777e+06
3.49784e+06
3.49791e+06
3.49797e+06
3.49803e+06
3.49809e+06
3.49814e+06
3.4982e+06
3.49825e+06
3.4983e+06
3.49834e+06
3.49838e+06
3.49842e+06
3.49846e+06
3.49849e+06
3.49852e+06
3.49855e+06
3.49857e+06
3.49859e+06
3.49861e+06
3.49862e+06
3.49863e+06
3.49864e+06
3.49865e+06
3.49621e+06
3.49627e+06
3.49634e+06
3.4964e+06
3.49647e+06
3.49654e+06
3.4966e+06
3.49667e+06
3.49674e+06
3.49681e+06
3.49689e+06
3.49696e+06
3.49704e+06
3.49711e+06
3.49719e+06
3.49727e+06
3.49734e+06
3.49742e+06
3.4975e+06
3.49757e+06
3.49765e+06
3.49772e+06
3.49779e+06
3.49786e+06
3.49793e+06
3.49799e+06
3.49805e+06
3.49811e+06
3.49817e+06
3.49822e+06
3.49827e+06
3.49832e+06
3.49836e+06
3.4984e+06
3.49844e+06
3.49847e+06
3.49851e+06
3.49853e+06
3.49856e+06
3.49858e+06
3.4986e+06
3.49861e+06
3.49862e+06
3.49863e+06
3.49864e+06
3.496e+06
3.49607e+06
3.49615e+06
3.49622e+06
3.4963e+06
3.49637e+06
3.49644e+06
3.49652e+06
3.4966e+06
3.49668e+06
3.49676e+06
3.49684e+06
3.49692e+06
3.49701e+06
3.49709e+06
3.49717e+06
3.49726e+06
3.49734e+06
3.49743e+06
3.49751e+06
3.49759e+06
3.49767e+06
3.49774e+06
3.49782e+06
3.49789e+06
3.49796e+06
3.49802e+06
3.49808e+06
3.49814e+06
3.4982e+06
3.49825e+06
3.4983e+06
3.49834e+06
3.49839e+06
3.49842e+06
3.49846e+06
3.49849e+06
3.49852e+06
3.49855e+06
3.49857e+06
3.49859e+06
3.4986e+06
3.49861e+06
3.49862e+06
3.49862e+06
3.49579e+06
3.49586e+06
3.49594e+06
3.49602e+06
3.4961e+06
3.49619e+06
3.49627e+06
3.49635e+06
3.49644e+06
3.49653e+06
3.49662e+06
3.49671e+06
3.4968e+06
3.49689e+06
3.49699e+06
3.49708e+06
3.49717e+06
3.49726e+06
3.49735e+06
3.49744e+06
3.49753e+06
3.49761e+06
3.49769e+06
3.49777e+06
3.49785e+06
3.49792e+06
3.49799e+06
3.49805e+06
3.49811e+06
3.49817e+06
3.49823e+06
3.49828e+06
3.49832e+06
3.49837e+06
3.49841e+06
3.49844e+06
3.49848e+06
3.49851e+06
3.49853e+06
3.49855e+06
3.49857e+06
3.49859e+06
3.4986e+06
3.49861e+06
3.49861e+06
3.49554e+06
3.49563e+06
3.49572e+06
3.49581e+06
3.4959e+06
3.49599e+06
3.49608e+06
3.49618e+06
3.49627e+06
3.49637e+06
3.49647e+06
3.49657e+06
3.49667e+06
3.49677e+06
3.49688e+06
3.49698e+06
3.49708e+06
3.49718e+06
3.49727e+06
3.49737e+06
3.49746e+06
3.49755e+06
3.49764e+06
3.49772e+06
3.4978e+06
3.49788e+06
3.49795e+06
3.49802e+06
3.49809e+06
3.49815e+06
3.4982e+06
3.49826e+06
3.49831e+06
3.49835e+06
3.49839e+06
3.49843e+06
3.49846e+06
3.49849e+06
3.49852e+06
3.49854e+06
3.49856e+06
3.49858e+06
3.49859e+06
3.4986e+06
3.4986e+06
3.4953e+06
3.49538e+06
3.49548e+06
3.49558e+06
3.49567e+06
3.49578e+06
3.49588e+06
3.49598e+06
3.49609e+06
3.4962e+06
3.49631e+06
3.49642e+06
3.49653e+06
3.49665e+06
3.49676e+06
3.49687e+06
3.49698e+06
3.49709e+06
3.49719e+06
3.4973e+06
3.4974e+06
3.49749e+06
3.49759e+06
3.49768e+06
3.49776e+06
3.49784e+06
3.49792e+06
3.49799e+06
3.49806e+06
3.49812e+06
3.49818e+06
3.49824e+06
3.49829e+06
3.49833e+06
3.49838e+06
3.49842e+06
3.49845e+06
3.49848e+06
3.49851e+06
3.49853e+06
3.49855e+06
3.49857e+06
3.49858e+06
3.49859e+06
3.49859e+06
3.495e+06
3.4951e+06
3.49521e+06
3.49532e+06
3.49543e+06
3.49554e+06
3.49566e+06
3.49577e+06
3.49589e+06
3.49601e+06
3.49614e+06
3.49626e+06
3.49639e+06
3.49651e+06
3.49664e+06
3.49676e+06
3.49688e+06
3.497e+06
3.49711e+06
3.49722e+06
3.49733e+06
3.49743e+06
3.49753e+06
3.49763e+06
3.49772e+06
3.4978e+06
3.49788e+06
3.49796e+06
3.49803e+06
3.4981e+06
3.49816e+06
3.49822e+06
3.49827e+06
3.49832e+06
3.49836e+06
3.4984e+06
3.49844e+06
3.49847e+06
3.4985e+06
3.49852e+06
3.49854e+06
3.49856e+06
3.49857e+06
3.49858e+06
3.49858e+06
3.49469e+06
3.4948e+06
3.49492e+06
3.49504e+06
3.49516e+06
3.49528e+06
3.49541e+06
3.49554e+06
3.49568e+06
3.49581e+06
3.49595e+06
3.49609e+06
3.49623e+06
3.49637e+06
3.49651e+06
3.49664e+06
3.49677e+06
3.4969e+06
3.49702e+06
3.49715e+06
3.49726e+06
3.49737e+06
3.49748e+06
3.49758e+06
3.49767e+06
3.49776e+06
3.49785e+06
3.49793e+06
3.498e+06
3.49807e+06
3.49814e+06
3.4982e+06
3.49825e+06
3.4983e+06
3.49835e+06
3.49839e+06
3.49842e+06
3.49846e+06
3.49849e+06
3.49851e+06
3.49853e+06
3.49855e+06
3.49856e+06
3.49857e+06
3.49857e+06
3.49432e+06
3.49445e+06
3.49459e+06
3.49473e+06
3.49486e+06
3.495e+06
3.49515e+06
3.49529e+06
3.49544e+06
3.4956e+06
3.49575e+06
3.49591e+06
3.49606e+06
3.49622e+06
3.49637e+06
3.49652e+06
3.49666e+06
3.4968e+06
3.49693e+06
3.49707e+06
3.49719e+06
3.49731e+06
3.49742e+06
3.49753e+06
3.49763e+06
3.49772e+06
3.49781e+06
3.4979e+06
3.49798e+06
3.49805e+06
3.49811e+06
3.49818e+06
3.49823e+06
3.49828e+06
3.49833e+06
3.49837e+06
3.49841e+06
3.49844e+06
3.49847e+06
3.4985e+06
3.49852e+06
3.49854e+06
3.49855e+06
3.49856e+06
3.49856e+06
3.49394e+06
3.49408e+06
3.49423e+06
3.49438e+06
3.49453e+06
3.49469e+06
3.49485e+06
3.49502e+06
3.49519e+06
3.49536e+06
3.49554e+06
3.49571e+06
3.49589e+06
3.49606e+06
3.49622e+06
3.49638e+06
3.49654e+06
3.4967e+06
3.49684e+06
3.49698e+06
3.49712e+06
3.49724e+06
3.49736e+06
3.49748e+06
3.49758e+06
3.49769e+06
3.49778e+06
3.49787e+06
3.49795e+06
3.49802e+06
3.49809e+06
3.49816e+06
3.49821e+06
3.49827e+06
3.49832e+06
3.49836e+06
3.4984e+06
3.49843e+06
3.49846e+06
3.49849e+06
3.49851e+06
3.49853e+06
3.49854e+06
3.49855e+06
3.49855e+06
3.49345e+06
3.49363e+06
3.4938e+06
3.49398e+06
3.49416e+06
3.49434e+06
3.49452e+06
3.49472e+06
3.49491e+06
3.49511e+06
3.49531e+06
3.4955e+06
3.49569e+06
3.49588e+06
3.49607e+06
3.49625e+06
3.49642e+06
3.49659e+06
3.49675e+06
3.4969e+06
3.49704e+06
3.49718e+06
3.49731e+06
3.49743e+06
3.49754e+06
3.49765e+06
3.49774e+06
3.49784e+06
3.49792e+06
3.498e+06
3.49807e+06
3.49814e+06
3.4982e+06
3.49825e+06
3.4983e+06
3.49835e+06
3.49839e+06
3.49842e+06
3.49845e+06
3.49848e+06
3.4985e+06
3.49852e+06
3.49853e+06
3.49854e+06
3.49855e+06
3.49296e+06
3.49315e+06
3.49334e+06
3.49354e+06
3.49374e+06
3.49395e+06
3.49416e+06
3.49438e+06
3.49461e+06
3.49483e+06
3.49505e+06
3.49527e+06
3.49549e+06
3.4957e+06
3.49591e+06
3.4961e+06
3.49629e+06
3.49647e+06
3.49665e+06
3.49681e+06
3.49696e+06
3.49711e+06
3.49725e+06
3.49737e+06
3.49749e+06
3.49761e+06
3.49771e+06
3.4978e+06
3.49789e+06
3.49797e+06
3.49805e+06
3.49812e+06
3.49818e+06
3.49824e+06
3.49829e+06
3.49833e+06
3.49838e+06
3.49841e+06
3.49844e+06
3.49847e+06
3.49849e+06
3.49851e+06
3.49852e+06
3.49853e+06
3.49854e+06
3.49231e+06
3.49254e+06
3.49279e+06
3.49302e+06
3.49326e+06
3.49351e+06
3.49376e+06
3.49402e+06
3.49427e+06
3.49453e+06
3.49478e+06
3.49503e+06
3.49527e+06
3.49551e+06
3.49573e+06
3.49595e+06
3.49616e+06
3.49636e+06
3.49654e+06
3.49672e+06
3.49689e+06
3.49704e+06
3.49719e+06
3.49732e+06
3.49745e+06
3.49757e+06
3.49767e+06
3.49777e+06
3.49787e+06
3.49795e+06
3.49803e+06
3.4981e+06
3.49816e+06
3.49822e+06
3.49827e+06
3.49832e+06
3.49836e+06
3.4984e+06
3.49843e+06
3.49846e+06
3.49848e+06
3.4985e+06
3.49852e+06
3.49852e+06
3.49853e+06
3.4917e+06
3.49194e+06
3.49221e+06
3.49246e+06
3.49274e+06
3.49303e+06
3.49332e+06
3.49361e+06
3.49391e+06
3.4942e+06
3.49449e+06
3.49477e+06
3.49504e+06
3.4953e+06
3.49555e+06
3.49579e+06
3.49602e+06
3.49623e+06
3.49644e+06
3.49663e+06
3.49681e+06
3.49697e+06
3.49713e+06
3.49727e+06
3.4974e+06
3.49753e+06
3.49764e+06
3.49774e+06
3.49784e+06
3.49793e+06
3.49801e+06
3.49808e+06
3.49815e+06
3.49821e+06
3.49826e+06
3.49831e+06
3.49835e+06
3.49839e+06
3.49842e+06
3.49845e+06
3.49848e+06
3.49849e+06
3.49851e+06
3.49852e+06
3.49852e+06
3.49082e+06
3.49113e+06
3.49148e+06
3.49179e+06
3.49213e+06
3.49248e+06
3.49282e+06
3.49317e+06
3.49351e+06
3.49384e+06
3.49417e+06
3.49449e+06
3.49479e+06
3.49508e+06
3.49536e+06
3.49563e+06
3.49587e+06
3.49611e+06
3.49633e+06
3.49653e+06
3.49672e+06
3.4969e+06
3.49707e+06
3.49722e+06
3.49736e+06
3.49749e+06
3.49761e+06
3.49771e+06
3.49781e+06
3.49791e+06
3.49799e+06
3.49806e+06
3.49813e+06
3.49819e+06
3.49825e+06
3.4983e+06
3.49834e+06
3.49838e+06
3.49842e+06
3.49844e+06
3.49847e+06
3.49849e+06
3.4985e+06
3.49851e+06
3.49851e+06