/*--------------------------------*- C++ -*----------------------------------*\
| =========                 |                                                 |
| \\      /  F ield         | OpenFOAM: The Open Source CFD Toolbox           |
|  \\    /   O peration     | Version:  v2012                                 |
|   \\  /    A nd           | Website:  www.openfoam.com                      |
|    \\/     M anipulation  |                                                 |
\*---------------------------------------------------------------------------*/
FoamFile
{
    version     2.0;
    format      ascii;
    class       volScalarField;
    location    "0.3";
    object      p;
}
// * * * * * * * * * * * * * * * * * * * * * * * * * * * * * * * * * * * * * //

dimensions      [1 -1 -2 0 0 0 0];


internalField   nonuniform List<scalar> 
3326
(
3.48584e+06
3.48589e+06
3.48591e+06
3.48589e+06
3.48584e+06
3.48576e+06
3.48563e+06
3.48547e+06
3.48522e+06
3.48546e+06
3.48559e+06
3.48569e+06
3.48577e+06
3.48582e+06
3.48584e+06
3.48583e+06
3.48578e+06
3.4857e+06
3.48557e+06
3.48542e+06
3.48517e+06
3.43848e+06
3.44458e+06
3.45052e+06
3.45506e+06
3.45909e+06
3.46241e+06
3.46528e+06
3.4677e+06
3.46978e+06
3.47157e+06
3.47312e+06
3.47446e+06
3.47564e+06
3.47667e+06
3.47759e+06
3.4784e+06
3.47913e+06
3.47979e+06
3.48039e+06
3.48094e+06
3.48145e+06
3.48191e+06
3.48234e+06
3.48274e+06
3.48311e+06
3.48346e+06
3.48378e+06
3.48408e+06
3.48435e+06
3.4846e+06
3.48483e+06
3.48504e+06
3.48522e+06
3.48538e+06
3.48552e+06
3.48563e+06
3.48571e+06
3.48576e+06
3.48578e+06
3.48577e+06
3.48572e+06
3.48564e+06
3.48551e+06
3.48536e+06
3.48512e+06
3.43828e+06
3.44434e+06
3.45025e+06
3.45477e+06
3.4588e+06
3.46212e+06
3.46499e+06
3.46742e+06
3.46952e+06
3.47132e+06
3.47288e+06
3.47424e+06
3.47543e+06
3.47648e+06
3.47741e+06
3.47823e+06
3.47898e+06
3.47965e+06
3.48026e+06
3.48081e+06
3.48132e+06
3.4818e+06
3.48223e+06
3.48264e+06
3.48301e+06
3.48336e+06
3.48369e+06
3.48399e+06
3.48427e+06
3.48452e+06
3.48476e+06
3.48497e+06
3.48515e+06
3.48531e+06
3.48545e+06
3.48556e+06
3.48564e+06
3.4857e+06
3.48572e+06
3.48571e+06
3.48567e+06
3.48559e+06
3.48546e+06
3.48531e+06
3.48507e+06
3.43816e+06
3.44418e+06
3.45007e+06
3.45457e+06
3.45858e+06
3.46189e+06
3.46476e+06
3.4672e+06
3.4693e+06
3.47111e+06
3.47268e+06
3.47405e+06
3.47525e+06
3.47631e+06
3.47724e+06
3.47808e+06
3.47883e+06
3.47951e+06
3.48013e+06
3.48069e+06
3.48121e+06
3.48169e+06
3.48213e+06
3.48254e+06
3.48292e+06
3.48327e+06
3.4836e+06
3.48391e+06
3.48419e+06
3.48445e+06
3.48468e+06
3.4849e+06
3.48508e+06
3.48525e+06
3.48539e+06
3.4855e+06
3.48558e+06
3.48564e+06
3.48566e+06
3.48566e+06
3.48561e+06
3.48554e+06
3.48541e+06
3.48527e+06
3.48503e+06
3.4381e+06
3.4441e+06
3.44996e+06
3.45444e+06
3.45844e+06
3.46173e+06
3.46459e+06
3.46702e+06
3.46912e+06
3.47094e+06
3.47251e+06
3.47389e+06
3.47509e+06
3.47616e+06
3.4771e+06
3.47794e+06
3.4787e+06
3.47939e+06
3.48001e+06
3.48058e+06
3.4811e+06
3.48158e+06
3.48203e+06
3.48244e+06
3.48283e+06
3.48319e+06
3.48352e+06
3.48383e+06
3.48411e+06
3.48437e+06
3.48461e+06
3.48483e+06
3.48502e+06
3.48519e+06
3.48533e+06
3.48544e+06
3.48553e+06
3.48559e+06
3.48561e+06
3.48561e+06
3.48557e+06
3.48549e+06
3.48537e+06
3.48522e+06
3.48499e+06
3.43809e+06
3.44408e+06
3.44991e+06
3.45438e+06
3.45836e+06
3.46163e+06
3.46448e+06
3.4669e+06
3.469e+06
3.4708e+06
3.47238e+06
3.47375e+06
3.47496e+06
3.47603e+06
3.47697e+06
3.47782e+06
3.47858e+06
3.47927e+06
3.4799e+06
3.48047e+06
3.481e+06
3.48148e+06
3.48193e+06
3.48235e+06
3.48274e+06
3.4831e+06
3.48344e+06
3.48375e+06
3.48404e+06
3.4843e+06
3.48455e+06
3.48476e+06
3.48496e+06
3.48513e+06
3.48527e+06
3.48539e+06
3.48548e+06
3.48553e+06
3.48556e+06
3.48556e+06
3.48552e+06
3.48545e+06
3.48533e+06
3.48518e+06
3.48495e+06
3.43813e+06
3.44412e+06
3.44993e+06
3.45438e+06
3.45833e+06
3.46159e+06
3.46442e+06
3.46683e+06
3.46891e+06
3.47071e+06
3.47227e+06
3.47364e+06
3.47485e+06
3.47591e+06
3.47686e+06
3.47771e+06
3.47847e+06
3.47916e+06
3.47979e+06
3.48037e+06
3.4809e+06
3.48139e+06
3.48184e+06
3.48226e+06
3.48266e+06
3.48302e+06
3.48336e+06
3.48368e+06
3.48397e+06
3.48424e+06
3.48448e+06
3.4847e+06
3.4849e+06
3.48507e+06
3.48522e+06
3.48534e+06
3.48543e+06
3.48549e+06
3.48552e+06
3.48551e+06
3.48548e+06
3.48541e+06
3.48529e+06
3.48515e+06
3.48492e+06
3.43821e+06
3.44423e+06
3.45002e+06
3.45445e+06
3.45837e+06
3.46161e+06
3.46441e+06
3.4668e+06
3.46886e+06
3.47065e+06
3.4722e+06
3.47356e+06
3.47476e+06
3.47582e+06
3.47677e+06
3.47761e+06
3.47838e+06
3.47907e+06
3.4797e+06
3.48028e+06
3.48081e+06
3.4813e+06
3.48176e+06
3.48218e+06
3.48258e+06
3.48295e+06
3.48329e+06
3.48361e+06
3.4839e+06
3.48418e+06
3.48442e+06
3.48465e+06
3.48485e+06
3.48502e+06
3.48517e+06
3.48529e+06
3.48538e+06
3.48544e+06
3.48547e+06
3.48547e+06
3.48544e+06
3.48537e+06
3.48526e+06
3.48512e+06
3.48489e+06
3.43837e+06
3.44442e+06
3.45017e+06
3.45459e+06
3.45848e+06
3.46168e+06
3.46445e+06
3.46681e+06
3.46885e+06
3.47062e+06
3.47216e+06
3.47351e+06
3.47469e+06
3.47575e+06
3.47669e+06
3.47753e+06
3.47829e+06
3.47898e+06
3.47961e+06
3.48019e+06
3.48072e+06
3.48122e+06
3.48168e+06
3.4821e+06
3.4825e+06
3.48287e+06
3.48322e+06
3.48354e+06
3.48384e+06
3.48412e+06
3.48437e+06
3.48459e+06
3.48479e+06
3.48497e+06
3.48512e+06
3.48524e+06
3.48534e+06
3.4854e+06
3.48544e+06
3.48544e+06
3.4854e+06
3.48534e+06
3.48523e+06
3.48509e+06
3.48487e+06
3.43861e+06
3.4447e+06
3.45041e+06
3.4548e+06
3.45864e+06
3.46181e+06
3.46455e+06
3.46687e+06
3.46889e+06
3.47063e+06
3.47214e+06
3.47347e+06
3.47465e+06
3.47569e+06
3.47662e+06
3.47746e+06
3.47821e+06
3.4789e+06
3.47953e+06
3.48011e+06
3.48064e+06
3.48114e+06
3.4816e+06
3.48203e+06
3.48243e+06
3.48281e+06
3.48316e+06
3.48348e+06
3.48378e+06
3.48406e+06
3.48431e+06
3.48454e+06
3.48475e+06
3.48493e+06
3.48508e+06
3.4852e+06
3.4853e+06
3.48536e+06
3.4854e+06
3.4854e+06
3.48537e+06
3.48531e+06
3.4852e+06
3.48506e+06
3.48485e+06
3.43898e+06
3.44509e+06
3.45073e+06
3.45509e+06
3.45888e+06
3.462e+06
3.46469e+06
3.46698e+06
3.46895e+06
3.47066e+06
3.47216e+06
3.47346e+06
3.47462e+06
3.47565e+06
3.47657e+06
3.47739e+06
3.47815e+06
3.47883e+06
3.47946e+06
3.48003e+06
3.48057e+06
3.48106e+06
3.48153e+06
3.48196e+06
3.48236e+06
3.48274e+06
3.48309e+06
3.48342e+06
3.48373e+06
3.48401e+06
3.48426e+06
3.48449e+06
3.4847e+06
3.48488e+06
3.48504e+06
3.48516e+06
3.48526e+06
3.48533e+06
3.48537e+06
3.48537e+06
3.48534e+06
3.48528e+06
3.48517e+06
3.48504e+06
3.48483e+06
3.43949e+06
3.44562e+06
3.45117e+06
3.45547e+06
3.45919e+06
3.46226e+06
3.46489e+06
3.46713e+06
3.46906e+06
3.47073e+06
3.47219e+06
3.47348e+06
3.47461e+06
3.47562e+06
3.47653e+06
3.47734e+06
3.47809e+06
3.47877e+06
3.47939e+06
3.47996e+06
3.4805e+06
3.48099e+06
3.48146e+06
3.48189e+06
3.4823e+06
3.48268e+06
3.48303e+06
3.48337e+06
3.48367e+06
3.48396e+06
3.48422e+06
3.48445e+06
3.48466e+06
3.48484e+06
3.485e+06
3.48513e+06
3.48523e+06
3.4853e+06
3.48534e+06
3.48534e+06
3.48532e+06
3.48526e+06
3.48515e+06
3.48503e+06
3.48482e+06
3.44018e+06
3.4463e+06
3.45172e+06
3.45595e+06
3.45959e+06
3.46258e+06
3.46515e+06
3.46732e+06
3.46921e+06
3.47083e+06
3.47226e+06
3.47351e+06
3.47462e+06
3.47561e+06
3.4765e+06
3.4773e+06
3.47804e+06
3.47871e+06
3.47933e+06
3.4799e+06
3.48043e+06
3.48093e+06
3.48139e+06
3.48183e+06
3.48224e+06
3.48262e+06
3.48298e+06
3.48331e+06
3.48362e+06
3.48391e+06
3.48417e+06
3.48441e+06
3.48462e+06
3.48481e+06
3.48497e+06
3.4851e+06
3.4852e+06
3.48527e+06
3.48531e+06
3.48532e+06
3.48529e+06
3.48524e+06
3.48513e+06
3.48501e+06
3.48481e+06
3.44107e+06
3.44714e+06
3.4524e+06
3.45654e+06
3.46006e+06
3.46297e+06
3.46545e+06
3.46756e+06
3.46939e+06
3.47096e+06
3.47234e+06
3.47356e+06
3.47464e+06
3.47561e+06
3.47648e+06
3.47727e+06
3.47799e+06
3.47866e+06
3.47927e+06
3.47984e+06
3.48037e+06
3.48087e+06
3.48133e+06
3.48177e+06
3.48218e+06
3.48257e+06
3.48293e+06
3.48326e+06
3.48358e+06
3.48387e+06
3.48413e+06
3.48437e+06
3.48459e+06
3.48478e+06
3.48494e+06
3.48507e+06
3.48517e+06
3.48525e+06
3.48529e+06
3.4853e+06
3.48527e+06
3.48522e+06
3.48512e+06
3.485e+06
3.4848e+06
3.4422e+06
3.44816e+06
3.45323e+06
3.45724e+06
3.46063e+06
3.46343e+06
3.46582e+06
3.46785e+06
3.4696e+06
3.47112e+06
3.47245e+06
3.47363e+06
3.47468e+06
3.47562e+06
3.47647e+06
3.47725e+06
3.47796e+06
3.47861e+06
3.47922e+06
3.47978e+06
3.48031e+06
3.48081e+06
3.48127e+06
3.48171e+06
3.48213e+06
3.48251e+06
3.48288e+06
3.48322e+06
3.48353e+06
3.48383e+06
3.4841e+06
3.48434e+06
3.48456e+06
3.48475e+06
3.48491e+06
3.48505e+06
3.48515e+06
3.48523e+06
3.48527e+06
3.48528e+06
3.48526e+06
3.4852e+06
3.48511e+06
3.48499e+06
3.4848e+06
3.44358e+06
3.44937e+06
3.4542e+06
3.45805e+06
3.46128e+06
3.46395e+06
3.46623e+06
3.46817e+06
3.46984e+06
3.4713e+06
3.47258e+06
3.47372e+06
3.47473e+06
3.47564e+06
3.47647e+06
3.47723e+06
3.47793e+06
3.47857e+06
3.47917e+06
3.47973e+06
3.48026e+06
3.48075e+06
3.48122e+06
3.48166e+06
3.48207e+06
3.48247e+06
3.48283e+06
3.48318e+06
3.4835e+06
3.48379e+06
3.48406e+06
3.48431e+06
3.48453e+06
3.48472e+06
3.48489e+06
3.48503e+06
3.48513e+06
3.48521e+06
3.48525e+06
3.48526e+06
3.48524e+06
3.48519e+06
3.4851e+06
3.48499e+06
3.4848e+06
3.44523e+06
3.45077e+06
3.45532e+06
3.45897e+06
3.46202e+06
3.46455e+06
3.4667e+06
3.46853e+06
3.47012e+06
3.47151e+06
3.47273e+06
3.47381e+06
3.47479e+06
3.47567e+06
3.47648e+06
3.47722e+06
3.4779e+06
3.47853e+06
3.47913e+06
3.47968e+06
3.48021e+06
3.4807e+06
3.48117e+06
3.48161e+06
3.48203e+06
3.48242e+06
3.48279e+06
3.48314e+06
3.48346e+06
3.48376e+06
3.48403e+06
3.48428e+06
3.48451e+06
3.4847e+06
3.48487e+06
3.48501e+06
3.48512e+06
3.48519e+06
3.48524e+06
3.48525e+06
3.48523e+06
3.48518e+06
3.48509e+06
3.48499e+06
3.48481e+06
3.44716e+06
3.45237e+06
3.45659e+06
3.46e+06
3.46284e+06
3.4652e+06
3.46721e+06
3.46893e+06
3.47042e+06
3.47173e+06
3.47289e+06
3.47392e+06
3.47486e+06
3.47571e+06
3.47649e+06
3.47721e+06
3.47788e+06
3.4785e+06
3.47909e+06
3.47964e+06
3.48016e+06
3.48065e+06
3.48112e+06
3.48156e+06
3.48198e+06
3.48238e+06
3.48275e+06
3.4831e+06
3.48343e+06
3.48373e+06
3.48401e+06
3.48426e+06
3.48449e+06
3.48468e+06
3.48485e+06
3.48499e+06
3.4851e+06
3.48518e+06
3.48523e+06
3.48524e+06
3.48523e+06
3.48518e+06
3.48509e+06
3.48499e+06
3.48481e+06
3.44936e+06
3.45415e+06
3.458e+06
3.46113e+06
3.46373e+06
3.4659e+06
3.46776e+06
3.46935e+06
3.47074e+06
3.47197e+06
3.47306e+06
3.47404e+06
3.47493e+06
3.47575e+06
3.4765e+06
3.4772e+06
3.47786e+06
3.47847e+06
3.47905e+06
3.47959e+06
3.48011e+06
3.4806e+06
3.48107e+06
3.48152e+06
3.48194e+06
3.48234e+06
3.48271e+06
3.48307e+06
3.4834e+06
3.4837e+06
3.48398e+06
3.48424e+06
3.48447e+06
3.48467e+06
3.48484e+06
3.48498e+06
3.48509e+06
3.48517e+06
3.48522e+06
3.48524e+06
3.48522e+06
3.48518e+06
3.48509e+06
3.48499e+06
3.48482e+06
3.45182e+06
3.4561e+06
3.45954e+06
3.46235e+06
3.46468e+06
3.46665e+06
3.46834e+06
3.4698e+06
3.47108e+06
3.47222e+06
3.47324e+06
3.47416e+06
3.47501e+06
3.47579e+06
3.47652e+06
3.4772e+06
3.47784e+06
3.47844e+06
3.47901e+06
3.47955e+06
3.48007e+06
3.48056e+06
3.48103e+06
3.48147e+06
3.4819e+06
3.4823e+06
3.48268e+06
3.48304e+06
3.48337e+06
3.48368e+06
3.48397e+06
3.48422e+06
3.48446e+06
3.48466e+06
3.48483e+06
3.48498e+06
3.48509e+06
3.48517e+06
3.48522e+06
3.48524e+06
3.48522e+06
3.48517e+06
3.48509e+06
3.485e+06
3.48484e+06
3.45448e+06
3.45819e+06
3.46118e+06
3.46364e+06
3.46569e+06
3.46744e+06
3.46894e+06
3.47026e+06
3.47143e+06
3.47247e+06
3.47342e+06
3.47429e+06
3.47509e+06
3.47584e+06
3.47653e+06
3.47719e+06
3.47782e+06
3.47841e+06
3.47897e+06
3.47951e+06
3.48002e+06
3.48052e+06
3.48099e+06
3.48143e+06
3.48186e+06
3.48227e+06
3.48265e+06
3.48301e+06
3.48335e+06
3.48366e+06
3.48395e+06
3.48421e+06
3.48445e+06
3.48465e+06
3.48483e+06
3.48497e+06
3.48509e+06
3.48517e+06
3.48522e+06
3.48524e+06
3.48522e+06
3.48518e+06
3.4851e+06
3.485e+06
3.48485e+06
3.45729e+06
3.46039e+06
3.46289e+06
3.46497e+06
3.46673e+06
3.46824e+06
3.46956e+06
3.47073e+06
3.47178e+06
3.47273e+06
3.4736e+06
3.47441e+06
3.47517e+06
3.47588e+06
3.47655e+06
3.47719e+06
3.4778e+06
3.47838e+06
3.47893e+06
3.47947e+06
3.47998e+06
3.48047e+06
3.48094e+06
3.4814e+06
3.48183e+06
3.48223e+06
3.48262e+06
3.48299e+06
3.48333e+06
3.48365e+06
3.48394e+06
3.4842e+06
3.48444e+06
3.48465e+06
3.48483e+06
3.48497e+06
3.48509e+06
3.48517e+06
3.48522e+06
3.48524e+06
3.48522e+06
3.48518e+06
3.48511e+06
3.48502e+06
3.48487e+06
3.46018e+06
3.46265e+06
3.46464e+06
3.46634e+06
3.46778e+06
3.46905e+06
3.47018e+06
3.4712e+06
3.47212e+06
3.47298e+06
3.47378e+06
3.47453e+06
3.47524e+06
3.47591e+06
3.47656e+06
3.47718e+06
3.47777e+06
3.47834e+06
3.4789e+06
3.47943e+06
3.47994e+06
3.48043e+06
3.48091e+06
3.48136e+06
3.48179e+06
3.48221e+06
3.4826e+06
3.48297e+06
3.48331e+06
3.48363e+06
3.48393e+06
3.4842e+06
3.48444e+06
3.48465e+06
3.48483e+06
3.48498e+06
3.48509e+06
3.48518e+06
3.48523e+06
3.48525e+06
3.48523e+06
3.48519e+06
3.48512e+06
3.48503e+06
3.48489e+06
3.46311e+06
3.46493e+06
3.4664e+06
3.4677e+06
3.46883e+06
3.46986e+06
3.47079e+06
3.47165e+06
3.47246e+06
3.47322e+06
3.47394e+06
3.47464e+06
3.4753e+06
3.47594e+06
3.47656e+06
3.47716e+06
3.47775e+06
3.47831e+06
3.47886e+06
3.47939e+06
3.4799e+06
3.48039e+06
3.48087e+06
3.48133e+06
3.48176e+06
3.48218e+06
3.48258e+06
3.48295e+06
3.4833e+06
3.48363e+06
3.48393e+06
3.4842e+06
3.48444e+06
3.48465e+06
3.48484e+06
3.48499e+06
3.4851e+06
3.48519e+06
3.48524e+06
3.48526e+06
3.48524e+06
3.4852e+06
3.48513e+06
3.48504e+06
3.48492e+06
3.466e+06
3.46718e+06
3.46813e+06
3.46903e+06
3.46985e+06
3.47063e+06
3.47137e+06
3.47208e+06
3.47277e+06
3.47344e+06
3.47409e+06
3.47473e+06
3.47535e+06
3.47597e+06
3.47656e+06
3.47715e+06
3.47772e+06
3.47827e+06
3.47882e+06
3.47934e+06
3.47986e+06
3.48035e+06
3.48083e+06
3.48129e+06
3.48174e+06
3.48216e+06
3.48256e+06
3.48294e+06
3.48329e+06
3.48362e+06
3.48393e+06
3.4842e+06
3.48445e+06
3.48466e+06
3.48485e+06
3.485e+06
3.48512e+06
3.4852e+06
3.48525e+06
3.48527e+06
3.48525e+06
3.48521e+06
3.48514e+06
3.48506e+06
3.48494e+06
3.46882e+06
3.46936e+06
3.46981e+06
3.47032e+06
3.47083e+06
3.47137e+06
3.47192e+06
3.47249e+06
3.47306e+06
3.47364e+06
3.47423e+06
3.47481e+06
3.47539e+06
3.47598e+06
3.47655e+06
3.47712e+06
3.47768e+06
3.47823e+06
3.47877e+06
3.4793e+06
3.47981e+06
3.48031e+06
3.4808e+06
3.48126e+06
3.48171e+06
3.48214e+06
3.48254e+06
3.48293e+06
3.48329e+06
3.48362e+06
3.48393e+06
3.48421e+06
3.48446e+06
3.48468e+06
3.48486e+06
3.48502e+06
3.48513e+06
3.48522e+06
3.48527e+06
3.48528e+06
3.48527e+06
3.48523e+06
3.48516e+06
3.48508e+06
3.48497e+06
3.47222e+06
3.47209e+06
3.47153e+06
3.47145e+06
3.47139e+06
3.47153e+06
3.47174e+06
3.47205e+06
3.47242e+06
3.47285e+06
3.47332e+06
3.47381e+06
3.47433e+06
3.47487e+06
3.47542e+06
3.47597e+06
3.47653e+06
3.47709e+06
3.47764e+06
3.47819e+06
3.47873e+06
3.47926e+06
3.47977e+06
3.48028e+06
3.48076e+06
3.48123e+06
3.48169e+06
3.48212e+06
3.48253e+06
3.48292e+06
3.48329e+06
3.48363e+06
3.48394e+06
3.48422e+06
3.48447e+06
3.48469e+06
3.48488e+06
3.48504e+06
3.48515e+06
3.48524e+06
3.48529e+06
3.4853e+06
3.48528e+06
3.48524e+06
3.48517e+06
3.4851e+06
3.48499e+06
3.47661e+06
3.47545e+06
3.47408e+06
3.4734e+06
3.47287e+06
3.47264e+06
3.47258e+06
3.47267e+06
3.47287e+06
3.47317e+06
3.47353e+06
3.47395e+06
3.47442e+06
3.47491e+06
3.47543e+06
3.47596e+06
3.4765e+06
3.47705e+06
3.4776e+06
3.47814e+06
3.47868e+06
3.47921e+06
3.47973e+06
3.48024e+06
3.48073e+06
3.48121e+06
3.48167e+06
3.48211e+06
3.48252e+06
3.48292e+06
3.48329e+06
3.48363e+06
3.48395e+06
3.48424e+06
3.48449e+06
3.48472e+06
3.48491e+06
3.48506e+06
3.48518e+06
3.48526e+06
3.48531e+06
3.48532e+06
3.4853e+06
3.48526e+06
3.48519e+06
3.48511e+06
3.48502e+06
3.4808e+06
3.47855e+06
3.47643e+06
3.47516e+06
3.4742e+06
3.47363e+06
3.47331e+06
3.4732e+06
3.47325e+06
3.47343e+06
3.4737e+06
3.47406e+06
3.47447e+06
3.47493e+06
3.47542e+06
3.47593e+06
3.47646e+06
3.477e+06
3.47754e+06
3.47809e+06
3.47863e+06
3.47916e+06
3.47969e+06
3.4802e+06
3.4807e+06
3.48118e+06
3.48165e+06
3.48209e+06
3.48252e+06
3.48292e+06
3.4833e+06
3.48364e+06
3.48397e+06
3.48426e+06
3.48452e+06
3.48474e+06
3.48493e+06
3.48509e+06
3.48521e+06
3.48529e+06
3.48534e+06
3.48535e+06
3.48533e+06
3.48528e+06
3.48521e+06
3.48513e+06
3.48505e+06
3.48485e+06
3.48142e+06
3.47859e+06
3.47674e+06
3.47537e+06
3.47449e+06
3.47393e+06
3.47364e+06
3.47355e+06
3.47363e+06
3.47382e+06
3.47412e+06
3.47449e+06
3.47492e+06
3.47539e+06
3.47589e+06
3.47641e+06
3.47694e+06
3.47749e+06
3.47803e+06
3.47858e+06
3.47912e+06
3.47965e+06
3.48017e+06
3.48067e+06
3.48116e+06
3.48163e+06
3.48209e+06
3.48252e+06
3.48293e+06
3.48331e+06
3.48366e+06
3.48399e+06
3.48428e+06
3.48454e+06
3.48477e+06
3.48497e+06
3.48512e+06
3.48524e+06
3.48532e+06
3.48537e+06
3.48538e+06
3.48535e+06
3.4853e+06
3.48523e+06
3.48515e+06
3.48507e+06
3.48834e+06
3.4838e+06
3.48038e+06
3.47803e+06
3.47633e+06
3.47517e+06
3.47442e+06
3.47397e+06
3.47377e+06
3.47376e+06
3.4739e+06
3.47414e+06
3.47448e+06
3.47488e+06
3.47534e+06
3.47583e+06
3.47634e+06
3.47688e+06
3.47742e+06
3.47797e+06
3.47852e+06
3.47907e+06
3.47961e+06
3.48013e+06
3.48065e+06
3.48114e+06
3.48162e+06
3.48208e+06
3.48252e+06
3.48293e+06
3.48332e+06
3.48368e+06
3.48401e+06
3.48431e+06
3.48458e+06
3.48481e+06
3.485e+06
3.48516e+06
3.48528e+06
3.48536e+06
3.4854e+06
3.48541e+06
3.48538e+06
3.48532e+06
3.48525e+06
3.48517e+06
3.48509e+06
3.49141e+06
3.48582e+06
3.48193e+06
3.4791e+06
3.47711e+06
3.47572e+06
3.47479e+06
3.47421e+06
3.47392e+06
3.47383e+06
3.47392e+06
3.47413e+06
3.47444e+06
3.47482e+06
3.47527e+06
3.47575e+06
3.47627e+06
3.47681e+06
3.47736e+06
3.47791e+06
3.47847e+06
3.47902e+06
3.47956e+06
3.4801e+06
3.48062e+06
3.48113e+06
3.48162e+06
3.48208e+06
3.48253e+06
3.48295e+06
3.48334e+06
3.48371e+06
3.48404e+06
3.48435e+06
3.48462e+06
3.48485e+06
3.48504e+06
3.4852e+06
3.48532e+06
3.4854e+06
3.48544e+06
3.48544e+06
3.48541e+06
3.48535e+06
3.48527e+06
3.48519e+06
3.48511e+06
3.4934e+06
3.48701e+06
3.48295e+06
3.4798e+06
3.47763e+06
3.47606e+06
3.47502e+06
3.47434e+06
3.47398e+06
3.47384e+06
3.47389e+06
3.47407e+06
3.47437e+06
3.47474e+06
3.47518e+06
3.47567e+06
3.47618e+06
3.47673e+06
3.47728e+06
3.47784e+06
3.47841e+06
3.47897e+06
3.47952e+06
3.48007e+06
3.4806e+06
3.48111e+06
3.48161e+06
3.48209e+06
3.48254e+06
3.48297e+06
3.48337e+06
3.48374e+06
3.48408e+06
3.48439e+06
3.48466e+06
3.48489e+06
3.48509e+06
3.48525e+06
3.48537e+06
3.48544e+06
3.48548e+06
3.48548e+06
3.48544e+06
3.48537e+06
3.48529e+06
3.48521e+06
3.48513e+06
3.49534e+06
3.48822e+06
3.4839e+06
3.4804e+06
3.47805e+06
3.4763e+06
3.47514e+06
3.47439e+06
3.47396e+06
3.47379e+06
3.47381e+06
3.47398e+06
3.47426e+06
3.47464e+06
3.47508e+06
3.47557e+06
3.47609e+06
3.47664e+06
3.4772e+06
3.47778e+06
3.47835e+06
3.47892e+06
3.47949e+06
3.48004e+06
3.48058e+06
3.48111e+06
3.48161e+06
3.48209e+06
3.48256e+06
3.48299e+06
3.4834e+06
3.48377e+06
3.48412e+06
3.48443e+06
3.48471e+06
3.48494e+06
3.48514e+06
3.4853e+06
3.48542e+06
3.48549e+06
3.48553e+06
3.48552e+06
3.48547e+06
3.4854e+06
3.48531e+06
3.48522e+06
3.48515e+06
3.49595e+06
3.48858e+06
3.48424e+06
3.48059e+06
3.47816e+06
3.47632e+06
3.47511e+06
3.47431e+06
3.47386e+06
3.47366e+06
3.47367e+06
3.47384e+06
3.47413e+06
3.47451e+06
3.47495e+06
3.47545e+06
3.47599e+06
3.47655e+06
3.47712e+06
3.4777e+06
3.47829e+06
3.47887e+06
3.47945e+06
3.48001e+06
3.48056e+06
3.4811e+06
3.48161e+06
3.48211e+06
3.48258e+06
3.48302e+06
3.48343e+06
3.48382e+06
3.48417e+06
3.48448e+06
3.48476e+06
3.485e+06
3.4852e+06
3.48536e+06
3.48548e+06
3.48555e+06
3.48558e+06
3.48556e+06
3.48551e+06
3.48543e+06
3.48533e+06
3.48523e+06
3.48516e+06
3.49825e+06
3.48987e+06
3.48487e+06
3.48084e+06
3.4782e+06
3.47625e+06
3.47497e+06
3.47413e+06
3.47367e+06
3.47347e+06
3.47348e+06
3.47366e+06
3.47396e+06
3.47435e+06
3.47481e+06
3.47532e+06
3.47587e+06
3.47644e+06
3.47703e+06
3.47763e+06
3.47823e+06
3.47882e+06
3.47941e+06
3.47999e+06
3.48055e+06
3.4811e+06
3.48162e+06
3.48213e+06
3.4826e+06
3.48305e+06
3.48348e+06
3.48387e+06
3.48422e+06
3.48454e+06
3.48482e+06
3.48507e+06
3.48527e+06
3.48543e+06
3.48554e+06
3.48561e+06
3.48563e+06
3.48561e+06
3.48556e+06
3.48547e+06
3.48535e+06
3.48524e+06
3.48516e+06
3.49802e+06
3.4896e+06
3.48454e+06
3.48039e+06
3.47774e+06
3.4758e+06
3.47455e+06
3.47374e+06
3.47331e+06
3.47315e+06
3.4732e+06
3.4734e+06
3.47373e+06
3.47415e+06
3.47463e+06
3.47517e+06
3.47574e+06
3.47633e+06
3.47694e+06
3.47755e+06
3.47817e+06
3.47878e+06
3.47938e+06
3.47997e+06
3.48054e+06
3.4811e+06
3.48163e+06
3.48215e+06
3.48263e+06
3.48309e+06
3.48352e+06
3.48392e+06
3.48428e+06
3.4846e+06
3.48489e+06
3.48513e+06
3.48533e+06
3.48549e+06
3.4856e+06
3.48567e+06
3.48569e+06
3.48566e+06
3.4856e+06
3.48549e+06
3.48537e+06
3.48525e+06
3.48515e+06
3.48584e+06
3.48589e+06
3.48591e+06
3.48589e+06
3.48584e+06
3.48576e+06
3.48563e+06
3.48547e+06
3.48522e+06
3.48546e+06
3.48559e+06
3.48569e+06
3.48577e+06
3.48582e+06
3.48584e+06
3.48583e+06
3.48578e+06
3.4857e+06
3.48557e+06
3.48542e+06
3.48517e+06
3.43848e+06
3.44458e+06
3.45052e+06
3.45506e+06
3.45909e+06
3.46241e+06
3.46528e+06
3.4677e+06
3.46978e+06
3.47157e+06
3.47312e+06
3.47446e+06
3.47564e+06
3.47667e+06
3.47759e+06
3.4784e+06
3.47913e+06
3.47979e+06
3.48039e+06
3.48094e+06
3.48145e+06
3.48191e+06
3.48234e+06
3.48274e+06
3.48311e+06
3.48346e+06
3.48378e+06
3.48408e+06
3.48435e+06
3.4846e+06
3.48483e+06
3.48504e+06
3.48522e+06
3.48538e+06
3.48552e+06
3.48563e+06
3.48571e+06
3.48576e+06
3.48578e+06
3.48577e+06
3.48572e+06
3.48564e+06
3.48551e+06
3.48536e+06
3.48512e+06
3.43828e+06
3.44434e+06
3.45025e+06
3.45477e+06
3.4588e+06
3.46212e+06
3.46499e+06
3.46742e+06
3.46952e+06
3.47132e+06
3.47288e+06
3.47424e+06
3.47543e+06
3.47648e+06
3.47741e+06
3.47823e+06
3.47898e+06
3.47965e+06
3.48026e+06
3.48081e+06
3.48132e+06
3.4818e+06
3.48223e+06
3.48264e+06
3.48301e+06
3.48336e+06
3.48369e+06
3.48399e+06
3.48427e+06
3.48452e+06
3.48476e+06
3.48497e+06
3.48515e+06
3.48531e+06
3.48545e+06
3.48556e+06
3.48564e+06
3.4857e+06
3.48572e+06
3.48571e+06
3.48567e+06
3.48559e+06
3.48546e+06
3.48531e+06
3.48507e+06
3.43816e+06
3.44418e+06
3.45007e+06
3.45457e+06
3.45858e+06
3.46189e+06
3.46476e+06
3.4672e+06
3.4693e+06
3.47111e+06
3.47268e+06
3.47405e+06
3.47525e+06
3.47631e+06
3.47724e+06
3.47808e+06
3.47883e+06
3.47951e+06
3.48013e+06
3.48069e+06
3.48121e+06
3.48169e+06
3.48213e+06
3.48254e+06
3.48292e+06
3.48327e+06
3.4836e+06
3.48391e+06
3.48419e+06
3.48445e+06
3.48468e+06
3.4849e+06
3.48508e+06
3.48525e+06
3.48539e+06
3.4855e+06
3.48558e+06
3.48564e+06
3.48566e+06
3.48566e+06
3.48561e+06
3.48554e+06
3.48541e+06
3.48527e+06
3.48503e+06
3.4381e+06
3.4441e+06
3.44996e+06
3.45444e+06
3.45844e+06
3.46173e+06
3.46459e+06
3.46702e+06
3.46912e+06
3.47094e+06
3.47251e+06
3.47389e+06
3.47509e+06
3.47616e+06
3.4771e+06
3.47794e+06
3.4787e+06
3.47939e+06
3.48001e+06
3.48058e+06
3.4811e+06
3.48158e+06
3.48203e+06
3.48244e+06
3.48283e+06
3.48319e+06
3.48352e+06
3.48383e+06
3.48411e+06
3.48437e+06
3.48461e+06
3.48483e+06
3.48502e+06
3.48519e+06
3.48533e+06
3.48544e+06
3.48553e+06
3.48559e+06
3.48561e+06
3.48561e+06
3.48557e+06
3.48549e+06
3.48537e+06
3.48522e+06
3.48499e+06
3.43809e+06
3.44408e+06
3.44991e+06
3.45438e+06
3.45836e+06
3.46163e+06
3.46448e+06
3.4669e+06
3.469e+06
3.4708e+06
3.47238e+06
3.47375e+06
3.47496e+06
3.47603e+06
3.47697e+06
3.47782e+06
3.47858e+06
3.47927e+06
3.4799e+06
3.48047e+06
3.481e+06
3.48148e+06
3.48193e+06
3.48235e+06
3.48274e+06
3.4831e+06
3.48344e+06
3.48375e+06
3.48404e+06
3.4843e+06
3.48455e+06
3.48476e+06
3.48496e+06
3.48513e+06
3.48527e+06
3.48539e+06
3.48548e+06
3.48553e+06
3.48556e+06
3.48556e+06
3.48552e+06
3.48545e+06
3.48533e+06
3.48518e+06
3.48495e+06
3.43813e+06
3.44412e+06
3.44993e+06
3.45438e+06
3.45833e+06
3.46159e+06
3.46442e+06
3.46683e+06
3.46891e+06
3.47071e+06
3.47227e+06
3.47364e+06
3.47485e+06
3.47591e+06
3.47686e+06
3.47771e+06
3.47847e+06
3.47916e+06
3.47979e+06
3.48037e+06
3.4809e+06
3.48139e+06
3.48184e+06
3.48226e+06
3.48266e+06
3.48302e+06
3.48336e+06
3.48368e+06
3.48397e+06
3.48424e+06
3.48448e+06
3.4847e+06
3.4849e+06
3.48507e+06
3.48522e+06
3.48534e+06
3.48543e+06
3.48549e+06
3.48552e+06
3.48551e+06
3.48548e+06
3.48541e+06
3.48529e+06
3.48515e+06
3.48492e+06
3.43821e+06
3.44423e+06
3.45002e+06
3.45445e+06
3.45837e+06
3.46161e+06
3.46441e+06
3.4668e+06
3.46886e+06
3.47065e+06
3.4722e+06
3.47356e+06
3.47476e+06
3.47582e+06
3.47677e+06
3.47761e+06
3.47838e+06
3.47907e+06
3.4797e+06
3.48028e+06
3.48081e+06
3.4813e+06
3.48176e+06
3.48218e+06
3.48258e+06
3.48295e+06
3.48329e+06
3.48361e+06
3.4839e+06
3.48418e+06
3.48442e+06
3.48465e+06
3.48485e+06
3.48502e+06
3.48517e+06
3.48529e+06
3.48538e+06
3.48544e+06
3.48547e+06
3.48547e+06
3.48544e+06
3.48537e+06
3.48526e+06
3.48512e+06
3.48489e+06
3.43837e+06
3.44442e+06
3.45017e+06
3.45459e+06
3.45848e+06
3.46168e+06
3.46445e+06
3.46681e+06
3.46885e+06
3.47062e+06
3.47216e+06
3.47351e+06
3.47469e+06
3.47575e+06
3.47669e+06
3.47753e+06
3.47829e+06
3.47898e+06
3.47961e+06
3.48019e+06
3.48072e+06
3.48122e+06
3.48168e+06
3.4821e+06
3.4825e+06
3.48287e+06
3.48322e+06
3.48354e+06
3.48384e+06
3.48412e+06
3.48437e+06
3.48459e+06
3.48479e+06
3.48497e+06
3.48512e+06
3.48524e+06
3.48534e+06
3.4854e+06
3.48544e+06
3.48544e+06
3.4854e+06
3.48534e+06
3.48523e+06
3.48509e+06
3.48487e+06
3.43861e+06
3.4447e+06
3.45041e+06
3.4548e+06
3.45864e+06
3.46181e+06
3.46455e+06
3.46687e+06
3.46889e+06
3.47063e+06
3.47214e+06
3.47347e+06
3.47465e+06
3.47569e+06
3.47662e+06
3.47746e+06
3.47821e+06
3.4789e+06
3.47953e+06
3.48011e+06
3.48064e+06
3.48114e+06
3.4816e+06
3.48203e+06
3.48243e+06
3.48281e+06
3.48316e+06
3.48348e+06
3.48378e+06
3.48406e+06
3.48431e+06
3.48454e+06
3.48475e+06
3.48493e+06
3.48508e+06
3.4852e+06
3.4853e+06
3.48536e+06
3.4854e+06
3.4854e+06
3.48537e+06
3.48531e+06
3.4852e+06
3.48506e+06
3.48485e+06
3.43898e+06
3.44509e+06
3.45073e+06
3.45509e+06
3.45888e+06
3.462e+06
3.46469e+06
3.46698e+06
3.46895e+06
3.47066e+06
3.47216e+06
3.47346e+06
3.47462e+06
3.47565e+06
3.47657e+06
3.47739e+06
3.47815e+06
3.47883e+06
3.47946e+06
3.48003e+06
3.48057e+06
3.48106e+06
3.48153e+06
3.48196e+06
3.48236e+06
3.48274e+06
3.48309e+06
3.48342e+06
3.48373e+06
3.48401e+06
3.48426e+06
3.48449e+06
3.4847e+06
3.48488e+06
3.48504e+06
3.48516e+06
3.48526e+06
3.48533e+06
3.48537e+06
3.48537e+06
3.48534e+06
3.48528e+06
3.48517e+06
3.48504e+06
3.48483e+06
3.43949e+06
3.44562e+06
3.45117e+06
3.45547e+06
3.45919e+06
3.46226e+06
3.46489e+06
3.46713e+06
3.46906e+06
3.47073e+06
3.47219e+06
3.47348e+06
3.47461e+06
3.47562e+06
3.47653e+06
3.47734e+06
3.47809e+06
3.47877e+06
3.47939e+06
3.47996e+06
3.4805e+06
3.48099e+06
3.48146e+06
3.48189e+06
3.4823e+06
3.48268e+06
3.48303e+06
3.48337e+06
3.48367e+06
3.48396e+06
3.48422e+06
3.48445e+06
3.48466e+06
3.48484e+06
3.485e+06
3.48513e+06
3.48523e+06
3.4853e+06
3.48534e+06
3.48534e+06
3.48532e+06
3.48526e+06
3.48515e+06
3.48503e+06
3.48482e+06
3.44018e+06
3.4463e+06
3.45172e+06
3.45595e+06
3.45959e+06
3.46258e+06
3.46515e+06
3.46732e+06
3.46921e+06
3.47083e+06
3.47226e+06
3.47351e+06
3.47462e+06
3.47561e+06
3.4765e+06
3.4773e+06
3.47804e+06
3.47871e+06
3.47933e+06
3.4799e+06
3.48043e+06
3.48093e+06
3.48139e+06
3.48183e+06
3.48224e+06
3.48262e+06
3.48298e+06
3.48331e+06
3.48362e+06
3.48391e+06
3.48417e+06
3.48441e+06
3.48462e+06
3.48481e+06
3.48497e+06
3.4851e+06
3.4852e+06
3.48527e+06
3.48531e+06
3.48532e+06
3.48529e+06
3.48524e+06
3.48513e+06
3.48501e+06
3.48481e+06
3.44107e+06
3.44714e+06
3.4524e+06
3.45654e+06
3.46006e+06
3.46297e+06
3.46545e+06
3.46756e+06
3.46939e+06
3.47096e+06
3.47234e+06
3.47356e+06
3.47464e+06
3.47561e+06
3.47648e+06
3.47727e+06
3.47799e+06
3.47866e+06
3.47927e+06
3.47984e+06
3.48037e+06
3.48087e+06
3.48133e+06
3.48177e+06
3.48218e+06
3.48257e+06
3.48293e+06
3.48326e+06
3.48358e+06
3.48387e+06
3.48413e+06
3.48437e+06
3.48459e+06
3.48478e+06
3.48494e+06
3.48507e+06
3.48517e+06
3.48525e+06
3.48529e+06
3.4853e+06
3.48527e+06
3.48522e+06
3.48512e+06
3.485e+06
3.4848e+06
3.4422e+06
3.44816e+06
3.45323e+06
3.45724e+06
3.46063e+06
3.46343e+06
3.46582e+06
3.46785e+06
3.4696e+06
3.47112e+06
3.47245e+06
3.47363e+06
3.47468e+06
3.47562e+06
3.47647e+06
3.47725e+06
3.47796e+06
3.47861e+06
3.47922e+06
3.47978e+06
3.48031e+06
3.48081e+06
3.48127e+06
3.48171e+06
3.48213e+06
3.48251e+06
3.48288e+06
3.48322e+06
3.48353e+06
3.48383e+06
3.4841e+06
3.48434e+06
3.48456e+06
3.48475e+06
3.48491e+06
3.48505e+06
3.48515e+06
3.48523e+06
3.48527e+06
3.48528e+06
3.48526e+06
3.4852e+06
3.48511e+06
3.48499e+06
3.4848e+06
3.44358e+06
3.44937e+06
3.4542e+06
3.45805e+06
3.46128e+06
3.46395e+06
3.46623e+06
3.46817e+06
3.46984e+06
3.4713e+06
3.47258e+06
3.47372e+06
3.47473e+06
3.47564e+06
3.47647e+06
3.47723e+06
3.47793e+06
3.47857e+06
3.47917e+06
3.47973e+06
3.48026e+06
3.48075e+06
3.48122e+06
3.48166e+06
3.48207e+06
3.48247e+06
3.48283e+06
3.48318e+06
3.4835e+06
3.48379e+06
3.48406e+06
3.48431e+06
3.48453e+06
3.48472e+06
3.48489e+06
3.48503e+06
3.48513e+06
3.48521e+06
3.48525e+06
3.48526e+06
3.48524e+06
3.48519e+06
3.4851e+06
3.48499e+06
3.4848e+06
3.44523e+06
3.45077e+06
3.45532e+06
3.45897e+06
3.46202e+06
3.46455e+06
3.4667e+06
3.46853e+06
3.47012e+06
3.47151e+06
3.47273e+06
3.47381e+06
3.47479e+06
3.47567e+06
3.47648e+06
3.47722e+06
3.4779e+06
3.47853e+06
3.47913e+06
3.47968e+06
3.48021e+06
3.4807e+06
3.48117e+06
3.48161e+06
3.48203e+06
3.48242e+06
3.48279e+06
3.48314e+06
3.48346e+06
3.48376e+06
3.48403e+06
3.48428e+06
3.48451e+06
3.4847e+06
3.48487e+06
3.48501e+06
3.48512e+06
3.48519e+06
3.48524e+06
3.48525e+06
3.48523e+06
3.48518e+06
3.48509e+06
3.48499e+06
3.48481e+06
3.44716e+06
3.45237e+06
3.45659e+06
3.46e+06
3.46284e+06
3.4652e+06
3.46721e+06
3.46893e+06
3.47042e+06
3.47173e+06
3.47289e+06
3.47392e+06
3.47486e+06
3.47571e+06
3.47649e+06
3.47721e+06
3.47788e+06
3.4785e+06
3.47909e+06
3.47964e+06
3.48016e+06
3.48065e+06
3.48112e+06
3.48156e+06
3.48198e+06
3.48238e+06
3.48275e+06
3.4831e+06
3.48343e+06
3.48373e+06
3.48401e+06
3.48426e+06
3.48449e+06
3.48468e+06
3.48485e+06
3.48499e+06
3.4851e+06
3.48518e+06
3.48523e+06
3.48524e+06
3.48523e+06
3.48518e+06
3.48509e+06
3.48499e+06
3.48481e+06
3.44936e+06