/*--------------------------------*- C++ -*----------------------------------*\
| =========                 |                                                 |
| \\      /  F ield         | OpenFOAM: The Open Source CFD Toolbox           |
|  \\    /   O peration     | Version:  v2012                                 |
|   \\  /    A nd           | Website:  www.openfoam.com                      |
|    \\/     M anipulation  |                                                 |
\*---------------------------------------------------------------------------*/
FoamFile
{
    version     2.0;
    format      ascii;
    class       surfaceScalarField;
    location    "0.5";
    object      phi;
}
// * * * * * * * * * * * * * * * * * * * * * * * * * * * * * * * * * * * * * //

dimensions      [0 3 -1 0 0 0 0];
oriented        oriented;


internalField   nonuniform List<scalar> 
39020
(
6.19001e-15
-5.08807e-13
-2.0759e-16
2.62866e-14
-1.68542e-12
-3.44307e-16
5.63539e-14
-3.08092e-12
6.05772e-16
9.28124e-14
-4.64328e-12
5.01223e-16
1.66627e-13
-6.47099e-12
-1.75919e-15
2.55294e-13
-8.45946e-12
1.04428e-15
3.74968e-13
-1.07011e-11
-5.53879e-16
5.2571e-13
-1.31688e-11
1.04574e-15
7.07747e-13
-1.58929e-11
-1.50989e-15
9.23737e-13
-1.88854e-11
1.78925e-15
1.17239e-12
-2.21579e-11
-2.16703e-15
1.46539e-12
-2.57202e-11
1.72425e-15
1.79954e-12
-2.96017e-11
-1.65088e-15
2.17997e-12
-3.37975e-11
1.04821e-15
2.60525e-12
-3.83398e-11
-7.48973e-16
3.08321e-12
-4.32311e-11
2.96891e-16
3.61015e-12
-4.84904e-11
-1.67413e-16
4.19472e-12
-5.41269e-11
-9.01506e-17
4.83197e-12
-6.01523e-11
1.10042e-16
5.52885e-12
-6.65717e-11
-2.22074e-16
6.28066e-12
-7.33912e-11
1.64965e-16
7.09252e-12
-8.0619e-11
-2.35982e-16
7.95988e-12
-8.82426e-11
1.12737e-16
8.88488e-12
-9.62692e-11
-1.90338e-16
9.86274e-12
-1.0468e-10
4.64646e-17
1.08925e-11
-1.13466e-10
-1.41515e-16
1.19684e-11
-1.22608e-10
-3.07008e-18
1.30863e-11
-1.32067e-10
-1.12927e-16
1.42388e-11
-1.41834e-10
-4.05598e-17
1.54184e-11
-1.51842e-10
-9.99405e-17
1.6615e-11
-1.6206e-10
-6.41237e-17
1.78184e-11
-1.72431e-10
-9.24937e-17
1.90158e-11
-1.82886e-10
-7.40859e-17
2.01935e-11
-1.93356e-10
-8.5157e-17
2.13364e-11
-2.03761e-10
-7.47442e-17
2.24276e-11
-2.1402e-10
-7.59763e-17
2.34496e-11
-2.24032e-10
-6.678e-17
2.4384e-11
-2.33704e-10
-6.2261e-17
2.52113e-11
-2.42927e-10
-5.29486e-17
2.59121e-11
-2.51537e-10
-4.52673e-17
2.64666e-11
-2.59559e-10
-3.58324e-17
2.68558e-11
-2.66714e-10
-2.73977e-17
2.70611e-11
-2.7303e-10
-1.8902e-17
2.70655e-11
-2.78274e-10
-1.15406e-17
2.68537e-11
-2.82325e-10
-5.1143e-18
2.6412e-11
-2.85245e-10
-8.14164e-20
2.57306e-11
-2.86659e-10
3.31454e-18
2.48018e-11
-2.86622e-10
5.23997e-18
2.36224e-11
-2.84891e-10
5.96686e-18
2.21936e-11
-2.81344e-10
5.18888e-18
2.05205e-11
-2.75858e-10
3.24709e-18
1.86152e-11
-2.6806e-10
3.64723e-19
1.64957e-11
-2.5771e-10
-2.47756e-18
1.41878e-11
-2.44409e-10
-5.49142e-18
1.17277e-11
-2.27537e-10
-7.98179e-18
9.16524e-12
-2.06293e-10
-9.56255e-18
6.56789e-12
-1.79557e-10
-9.89442e-18
4.03778e-12
-1.45487e-10
-8.53359e-18
1.69606e-12
-1.01286e-10
-5.81617e-18
-4.14392e-11
-2.14491e-18
6.66996e-15
-5.16089e-13
3.44164e-16
2.72916e-14
-1.70928e-12
1.22772e-15
7.28181e-14
-3.12323e-12
-1.4293e-15
1.44044e-13
-4.7097e-12
-1.82517e-15
2.25145e-13
-6.55854e-12
3.46833e-15
3.33675e-13
-8.56441e-12
-2.25917e-15
4.73627e-13
-1.08389e-11
1.41554e-16
6.39208e-13
-1.33385e-11
9.11282e-17
8.40851e-13
-1.60949e-11
-9.33663e-16
1.07635e-12
-1.91206e-11
5.39842e-16
1.34202e-12
-2.24252e-11
-1.31995e-15
1.64431e-12
-2.60256e-11
1.02618e-15
1.98858e-12
-2.9944e-11
-1.44166e-15
2.36826e-12
-3.41799e-11
1.06078e-15
2.79867e-12
-3.87681e-11
-1.17789e-15
3.27267e-12
-4.37075e-11
9.49363e-16
3.80199e-12
-4.90181e-11
-1.04661e-15
4.38064e-12
-5.47074e-11
8.23555e-16
5.01832e-12
-6.07884e-11
-8.2145e-16
5.70988e-12
-6.72645e-11
6.3128e-16
6.46188e-12
-7.41419e-11
-6.00516e-16
7.2696e-12
-8.14276e-11
4.17417e-16
8.13669e-12
-8.91088e-11
-4.18507e-16
9.05878e-12
-9.71919e-11
2.29586e-16
1.00363e-11
-1.05657e-10
-2.7361e-16
1.10641e-11
-1.14494e-10
1.08218e-16
1.21396e-11
-1.23683e-10
-1.75952e-16
1.32561e-11
-1.33184e-10
2.36659e-17
1.44078e-11
-1.42985e-10
-1.29107e-16
1.5586e-11
-1.5302e-10
-3.24375e-17
1.67814e-11
-1.63255e-10
-1.081e-16
1.79829e-11
-1.73632e-10
-6.10743e-17
1.91782e-11
-1.84081e-10
-9.39582e-17
2.03532e-11
-1.94531e-10
-7.13651e-17
2.14927e-11
-2.04901e-10
-8.38798e-17
2.25799e-11
-2.15107e-10
-7.07317e-17
2.35973e-11
-2.25049e-10
-7.08402e-17
2.45263e-11
-2.34633e-10
-6.02689e-17
2.53475e-11
-2.43748e-10
-5.43315e-17
2.60415e-11
-2.52231e-10
-4.39518e-17
2.65884e-11
-2.60106e-10
-3.54375e-17
2.69695e-11
-2.67095e-10
-2.58011e-17
2.7166e-11
-2.73226e-10
-1.75631e-17
2.7161e-11
-2.78269e-10
-9.80865e-18
2.69394e-11
-2.82103e-10
-3.48112e-18
2.64875e-11
-2.84793e-10
1.57037e-18
2.57957e-11
-2.85967e-10
4.86089e-18
2.48564e-11
-2.85683e-10
6.87965e-18
2.36664e-11
-2.83701e-10
7.40199e-18
2.22269e-11
-2.79904e-10
6.34895e-18
2.05433e-11
-2.74174e-10
4.19303e-18
1.86276e-11
-2.66144e-10
1.18481e-18
1.64978e-11
-2.55581e-10
-1.88473e-18
1.41797e-11
-2.42091e-10
-5.18695e-18
1.17091e-11
-2.25067e-10
-7.87526e-18
9.13592e-12
-2.0372e-10
-9.58308e-18
6.52702e-12
-1.76948e-10
-9.97476e-18
3.9842e-12
-1.42944e-10
-8.61789e-18
1.63138e-12
-9.89327e-11
-6.05851e-18
-3.98078e-11
-2.3312e-18
8.71481e-15
-5.23112e-13
-7.49666e-16
3.25178e-14
-1.73166e-12
-6.08207e-16
6.38983e-14
-3.15592e-12
5.37932e-16
1.15258e-13
-4.76915e-12
1.61004e-15
1.95113e-13
-6.63245e-12
-1.88306e-15
3.06528e-13
-8.67413e-12
3.59261e-16
4.37296e-13
-1.09752e-11
5.24614e-16
6.01454e-13
-1.34992e-11
-1.0589e-15
8.0382e-13
-1.62979e-11
1.13195e-15
1.03688e-12
-1.93528e-11
-1.27908e-15
1.30551e-12
-2.26957e-11
1.36726e-15
1.61803e-12
-2.63314e-11
-1.32315e-15
1.96528e-12
-3.02957e-11
1.35005e-15
2.36461e-12
-3.45768e-11
-1.49775e-15
2.80573e-12
-3.92121e-11
1.17772e-15
3.3012e-12
-4.42003e-11
-1.20064e-15
3.84294e-12
-4.95622e-11
1.00368e-15
4.44251e-12
-5.5305e-11
-1.00604e-15
5.09352e-12
-6.1441e-11
7.73295e-16
5.80409e-12
-6.79737e-11
-7.47301e-16
6.56912e-12
-7.49082e-11
5.03823e-16
7.39414e-12
-8.22518e-11
-5.23415e-16
8.27455e-12
-8.999e-11
2.88869e-16
9.21236e-12
-9.81292e-11
-3.42715e-16
1.02028e-11
-1.06648e-10
1.39136e-16
1.12448e-11
-1.15536e-10
-2.15602e-16
1.23324e-11
-1.24771e-10
4.59086e-17
1.34612e-11
-1.34312e-10
-1.48392e-16
1.46238e-11
-1.44148e-10
-1.77307e-17
1.58122e-11
-1.54209e-10
-1.18413e-16
1.70164e-11
-1.6446e-10
-5.60307e-17
1.82257e-11
-1.74842e-10
-1.0214e-16
1.94271e-11
-1.85283e-10
-7.16378e-17
2.06067e-11
-1.95711e-10
-8.98023e-17
2.17489e-11
-2.06043e-10
-7.4873e-17
2.2837e-11
-2.16196e-10
-7.87499e-17
2.38532e-11
-2.26065e-10
-6.76826e-17
2.4779e-11
-2.35558e-10
-6.33148e-17
2.55948e-11
-2.44564e-10
-5.27183e-17
2.62813e-11
-2.52917e-10
-4.41778e-17
2.68186e-11
-2.60644e-10
-3.35352e-17
2.71881e-11
-2.67464e-10
-2.42289e-17
2.7371e-11
-2.73409e-10
-1.51392e-17
2.73508e-11
-2.78249e-10
-7.451e-18
2.71124e-11
-2.81864e-10
-8.98274e-19
2.66424e-11
-2.84323e-10
4.11008e-18
2.59313e-11
-2.85256e-10
7.47217e-18
2.49719e-11
-2.84724e-10
9.43349e-18
2.37613e-11
-2.8249e-10
9.76808e-18
2.23008e-11
-2.78444e-10
8.34615e-18
2.0596e-11
-2.7247e-10
5.87252e-18
1.86591e-11
-2.64207e-10
2.467e-18
1.65082e-11
-2.5343e-10
-8.83791e-19
1.41689e-11
-2.39751e-10
-4.52403e-18
1.16772e-11
-2.22575e-10
-7.43944e-18
9.08259e-12
-2.01125e-10
-9.37533e-18
6.45227e-12
-1.74317e-10
-9.91033e-18
3.89051e-12
-1.40382e-10
-8.65427e-18
1.54354e-12
-9.65858e-11
-6.15406e-18
-3.82643e-11
-2.47632e-18
8.41064e-15
-5.31193e-13
-6.81861e-17
3.4024e-14
-1.7566e-12
-3.57092e-16
7.83907e-14
-3.20008e-12
-3.98423e-18
1.48221e-13
-4.84283e-12
1.1991e-16
2.36252e-13
-6.71817e-12
4.6142e-16
3.56913e-13
-8.79157e-12
-7.79131e-16
5.02049e-13
-1.11228e-11
1.01985e-15
6.73341e-13
-1.36697e-11
-4.0006e-16
8.90974e-13
-1.65142e-11
-3.7472e-16
1.12989e-12
-1.95937e-11
7.24017e-16
1.41525e-12
-2.29783e-11
-1.10569e-15
1.73509e-12
-2.66515e-11
1.59607e-15
2.09655e-12
-3.06564e-11
-1.84007e-15
2.49786e-12
-3.4982e-11
1.40167e-15
2.95193e-12
-3.96642e-11
-1.66803e-15
3.45032e-12
-4.47011e-11
1.36066e-15
4.00514e-12
-5.01149e-11
-1.31755e-15
4.60918e-12
-5.59112e-11
9.89468e-16
5.27333e-12
-6.21034e-11
-9.40545e-16
5.99128e-12
-6.86932e-11
6.66023e-16
6.7702e-12
-7.5686e-11
-6.55136e-16
7.60503e-12
-8.30876e-11
3.89042e-16
8.49953e-12
-9.08839e-11
-4.31971e-16
9.44912e-12
-9.90794e-11
1.95722e-16
1.0454e-11
-1.07652e-10
-2.74486e-16
1.1509e-11
-1.16591e-10
7.7012e-17
1.26108e-11
-1.25873e-10
-1.81304e-16
1.37529e-11
-1.35454e-10
-1.02558e-18
1.49288e-11
-1.45324e-10
-1.35819e-16
1.61295e-11
-1.55409e-10
-4.86048e-17
1.73452e-11
-1.65675e-10
-1.13726e-16
1.85645e-11
-1.76061e-10
-7.1231e-17
1.97745e-11
-1.86493e-10
-9.84023e-17
2.09607e-11
-1.96897e-10
-7.69824e-17
2.21074e-11
-2.07189e-10
-8.66002e-17
2.31975e-11
-2.17286e-10
-7.41894e-17
2.42131e-11
-2.27081e-10
-7.29181e-17
2.51355e-11
-2.36481e-10
-6.14815e-17
2.59449e-11
-2.45374e-10
-5.41185e-17
2.66221e-11
-2.53594e-10
-4.2439e-17
2.71471e-11
-2.61169e-10
-3.24919e-17
2.75012e-11
-2.67818e-10
-2.17428e-17
2.7666e-11
-2.73574e-10
-1.27364e-17
2.7625e-11
-2.78208e-10
-4.51978e-18
2.73634e-11
-2.81603e-10
2.02206e-18
2.68682e-11
-2.83828e-10
7.12706e-18
2.61302e-11
-2.84518e-10
1.03955e-17
2.51425e-11
-2.83736e-10
1.26515e-17
2.39026e-11
-2.8125e-10
1.28078e-17
2.24121e-11
-2.76953e-10
1.11439e-17
2.0677e-11
-2.70734e-10
8.31902e-18
1.87096e-11
-2.6224e-10
4.5459e-18
1.65283e-11
-2.51248e-10
7.80903e-19
1.4159e-11
-2.37382e-10
-3.23152e-18
1.16376e-11
-2.20054e-10
-6.5122e-18
9.01406e-12
-1.98502e-10
-8.76762e-18
6.35705e-12
-1.7166e-10
-9.57229e-18
3.77684e-12
-1.37802e-10
-8.50382e-18
1.45246e-12
-9.42615e-11
-6.14549e-18
-3.68119e-11
-2.51899e-18
8.37726e-15
-5.39059e-13
-1.62836e-16
3.47817e-14
-1.78207e-12
-3.64767e-16
8.07605e-14
-3.24542e-12
-1.75977e-17
1.50838e-13
-4.91764e-12
4.85465e-16
2.39946e-13
-6.80474e-12
1.45667e-16
3.53166e-13
-8.9031e-12
-4.46013e-16
4.90401e-13
-1.12616e-11
7.42525e-17
6.24682e-13
-1.38059e-11
6.3444e-17
8.67769e-13
-1.67586e-11
-3.58128e-16
1.1146e-12
-1.98372e-11
2.0935e-17
1.4075e-12
-2.32706e-11
8.13253e-16
1.73866e-12
-2.69782e-11
-8.58053e-16
2.10832e-12
-3.10319e-11
8.88046e-16
2.53064e-12
-3.54018e-11
-1.53936e-15
2.9985e-12
-4.01356e-11
1.28859e-15
3.52317e-12
-4.5223e-11
-1.39412e-15
4.09625e-12
-5.06908e-11
1.12355e-15
4.72882e-12
-5.65418e-11
-1.13032e-15
5.41414e-12
-6.27905e-11
8.30066e-16
6.16007e-12
-6.94377e-11
-7.90687e-16
6.96135e-12
-7.64886e-11
4.98197e-16
7.82301e-12
-8.39486e-11
-5.34856e-16
8.74052e-12
-9.18023e-11
2.58583e-16
9.71549e-12
-1.00054e-10
-3.44387e-16
1.07432e-11
-1.0868e-10
1.07687e-16
1.18218e-11
-1.17669e-10
-2.22958e-16
1.29455e-11
-1.26997e-10
1.52624e-17
1.41093e-11
-1.36618e-10
-1.60012e-16
1.53051e-11
-1.46519e-10
-4.14606e-17
1.65246e-11
-1.56629e-10
-1.29387e-16
1.77573e-11
-1.66908e-10
-7.185e-17
1.89916e-11
-1.77295e-10
-1.10937e-16
2.02142e-11
-1.87715e-10
-8.1512e-17
2.14104e-11
-1.98093e-10
-9.54565e-17
2.25641e-11
-2.08343e-10
-7.99924e-17
2.3658e-11
-2.1838e-10
-8.24949e-17
2.46738e-11
-2.28097e-10
-7.08251e-17
2.55927e-11
-2.374e-10
-6.44628e-17
2.63948e-11
-2.46176e-10
-5.25121e-17
2.70606e-11
-2.54259e-10
-4.22032e-17
2.75702e-11
-2.61679e-10
-3.01096e-17
2.79052e-11
-2.68153e-10
-1.95141e-17
2.80471e-11
-2.73716e-10
-9.61152e-18
2.79798e-11
-2.78141e-10
-1.38067e-18
2.76889e-11
-2.81312e-10
5.41316e-18
2.71616e-11
-2.83301e-10
1.04768e-17
2.63893e-11
-2.83745e-10
1.37893e-17
2.53653e-11
-2.82712e-10
1.59883e-17
2.40879e-11
-2.79973e-10
1.59214e-17
2.25591e-11
-2.75424e-10
1.3834e-17
2.07851e-11
-2.6896e-10
1.0625e-17
1.87789e-11
-2.60234e-10
6.3513e-18
1.65591e-11
-2.49028e-10
2.19616e-18
1.4152e-11
-2.34975e-10
-2.26748e-18
1.1594e-11
-2.17496e-10
-5.90239e-18
8.93616e-12
-1.95844e-10
-8.50782e-18
6.25014e-12
-1.68974e-10
-9.58128e-18
3.65492e-12
-1.35207e-10
-8.73265e-18
1.36285e-12
-9.19694e-11
-6.50639e-18
-3.5449e-11
-2.95786e-18
9.16803e-15
-5.47692e-13
-1.61317e-16
3.79234e-14
-1.80969e-12
-5.76261e-16
8.3784e-14
-3.29117e-12
1.20997e-16
1.48439e-13
-4.98863e-12
1.62149e-15
2.52684e-13
-6.90192e-12
-8.76234e-16
3.9158e-13
-9.03607e-12
-3.64716e-16
5.76282e-13
-1.14508e-11
2.50647e-15
7.86103e-13
-1.40022e-11
-2.07306e-15
1.02036e-12
-1.69956e-11
1.6487e-15
1.23095e-12
-2.00456e-11
-6.49575e-16
1.51089e-12
-2.35536e-11
-3.59477e-16
1.84032e-12
-2.7305e-11
9.02886e-16
2.22018e-12
-3.14132e-11
-1.56927e-15
2.64746e-12
-3.58318e-11
1.26091e-15
3.13323e-12
-4.06189e-11
-1.53142e-15
3.66695e-12
-4.57594e-11
1.27241e-15
4.2609e-12
-5.12828e-11
-1.31092e-15
4.90709e-12
-5.71903e-11
9.31065e-16
5.61552e-12
-6.34974e-11
-9.2881e-16
6.37993e-12
-7.02036e-11
6.17895e-16
7.20655e-12
-7.73143e-11
-6.29552e-16
8.09056e-12
-8.48337e-11
3.28368e-16
9.03482e-12
-9.2746e-11
-4.11203e-16
1.00348e-11
-1.01054e-10
1.50246e-16
1.10898e-11
-1.09735e-10
-2.64305e-16
1.21945e-11
-1.18774e-10
3.78853e-17
1.33449e-11
-1.28147e-10
-1.84822e-16
1.4534e-11
-1.37807e-10
-3.16669e-17
1.57547e-11
-1.4774e-10
-1.45857e-16
1.69973e-11
-1.57872e-10
-7.15218e-17
1.82512e-11
-1.68162e-10
-1.25534e-16
1.95044e-11
-1.78549e-10
-8.79843e-17
2.07432e-11
-1.88954e-10
-1.086e-16
2.19523e-11
-1.99302e-10
-8.72894e-17
2.31154e-11
-2.09506e-10
-9.24783e-17
2.42146e-11
-2.19479e-10
-7.98893e-17
2.52314e-11
-2.29114e-10
-7.62909e-17
2.61467e-11
-2.38315e-10
-6.29892e-17
2.69404e-11
-2.4697e-10
-5.3532e-17
2.7593e-11
-2.54912e-10
-4.00809e-17
2.80846e-11
-2.6217e-10
-2.84455e-17
2.83968e-11
-2.68465e-10
-1.63939e-17
2.85114e-11
-2.73831e-10
-6.49779e-18
2.84125e-11
-2.78042e-10
2.27359e-18
2.80862e-11
-2.80985e-10
9.07099e-18
2.75202e-11
-2.82735e-10
1.42158e-17
2.67064e-11
-2.82931e-10
1.73545e-17
2.56388e-11
-2.81644e-10
1.96769e-17
2.4316e-11
-2.7865e-10
1.93495e-17
2.27409e-11
-2.73849e-10
1.69687e-17
2.09202e-11
-2.6714e-10
1.33442e-17
1.88674e-11
-2.58181e-10
8.65725e-18
1.66017e-11
-2.46763e-10
4.01823e-18
1.41499e-11
-2.32523e-10
-8.97161e-19
1.15497e-11
-2.14896e-10
-4.97365e-18
8.85358e-12
-1.93147e-10
-7.97356e-18
6.13787e-12
-1.66259e-10
-9.37519e-18
3.53183e-12
-1.32601e-10
-8.79246e-18
1.27749e-12
-8.97151e-11
-6.75585e-18
-3.41716e-11
-3.3025e-18
8.65148e-15
-5.56356e-13
1.19895e-16
3.64199e-14
-1.83714e-12
-9.44191e-17
8.80855e-14
-3.34205e-12
8.21626e-17
1.5967e-13
-5.05949e-12
-9.24089e-16
2.57097e-13
-7.00239e-12
5.17346e-16
3.61796e-13
-9.14614e-12
-5.23998e-16
4.88596e-13
-1.15763e-11
-2.23255e-15
6.32554e-13
-1.41726e-11
3.81424e-16
8.59803e-13
-1.72062e-11
-3.18633e-16
1.16681e-12
-2.03526e-11
3.14729e-16
1.48854e-12
-2.38767e-11
1.83122e-16
1.85685e-12
-2.76683e-11
-5.20189e-16
2.25959e-12
-3.182e-11
7.37264e-16
2.71665e-12
-3.6287e-11
-1.32491e-15
3.22163e-12
-4.11271e-11
1.0417e-15
3.78589e-12
-4.63211e-11
-1.23107e-15
4.40231e-12
-5.19018e-11
9.47144e-16
5.08072e-12
-5.7867e-11
-1.01798e-15
5.81547e-12
-6.42338e-11
6.89522e-16
6.61305e-12
-7.1e-11
-7.0559e-16
7.4689e-12
-7.81713e-11
3.90648e-16
8.38665e-12
-8.57509e-11
-4.84149e-16
9.3622e-12
-9.37223e-11
1.84661e-16
1.0396e-11
-1.02088e-10
-3.10749e-16
1.14832e-11
-1.10823e-10
5.7123e-17
1.2621e-11
-1.19912e-10
-2.1344e-16
1.38032e-11
-1.29329e-10
-2.35802e-17
1.50237e-11
-1.39028e-10
-1.64621e-16
1.62739e-11
-1.4899e-10
-7.0959e-17
1.75445e-11
-1.59142e-10
-1.41006e-16
1.8824e-11
-1.69442e-10
-9.47157e-17
2.01001e-11
-1.79825e-10
-1.2443e-16
2.13583e-11
-1.90212e-10
-9.79539e-17
2.25832e-11
-2.00527e-10
-1.05563e-16
2.37577e-11
-2.1068e-10
-8.90681e-17
2.48637e-11
-2.20585e-10
-8.82968e-17
2.58822e-11
-2.30133e-10
-7.51504e-17
2.67937e-11
-2.39226e-10
-6.56322e-17
2.75781e-11
-2.47754e-10
-5.17416e-17
2.82157e-11
-2.55549e-10
-3.92298e-17
2.86866e-11
-2.62641e-10
-2.54838e-17
2.89724e-11
-2.68751e-10
-1.34709e-17
2.90553e-11
-2.73913e-10
-2.68959e-18
2.89199e-11
-2.77906e-10
6.12432e-18
2.85525e-11
-2.80617e-10
1.3172e-17
2.79415e-11
-2.82124e-10
1.82745e-17
2.70794e-11
-2.82069e-10
2.14261e-17
2.59611e-11
-2.80526e-10
2.36191e-17
2.45857e-11
-2.77274e-10
2.30273e-17
2.29569e-11
-2.7222e-10
2.01803e-17
2.10821e-11
-2.65265e-10
1.6138e-17
1.89755e-11
-2.56074e-10
1.09025e-17
1.66572e-11
-2.44444e-10
5.83308e-18
1.41549e-11
-2.30021e-10
4.11376e-19
1.15076e-11
-2.12248e-10
-4.07332e-18
8.77045e-12
-1.9041e-10
-7.47744e-18
6.02526e-12
-1.63513e-10
-9.20501e-18
3.41239e-12
-1.29988e-10
-8.89051e-18
1.1986e-12
-8.75014e-11
-7.04824e-18
-3.2973e-11
-3.71687e-18
9.22436e-15
-5.65608e-13
1.26529e-16
3.93365e-14
-1.86673e-12
-1.88459e-16
8.9693e-14
-3.39217e-12
2.64178e-16
1.56477e-13
-5.12659e-12
2.26757e-16
2.64698e-13
-7.10958e-12
-6.75867e-16
3.97835e-13
-9.27976e-12
-2.88623e-16
5.69559e-13
-1.17502e-11
-2.79739e-17
7.89398e-13
-1.44053e-11
-2.40009e-15
1.00545e-12
-1.74122e-11
2.17794e-15
1.28244e-12
-2.06264e-11
-9.18104e-16
1.59505e-12
-2.41935e-11
-1.0316e-16
1.96617e-12
-2.80348e-11
6.66489e-16
2.38187e-12
-3.2236e-11
-1.07285e-15
2.8494e-12
-3.67567e-11
9.55722e-16
3.37582e-12
-4.16517e-11
-1.29395e-15
3.95523e-12
-4.69026e-11
1.02547e-15
4.59724e-12
-5.25422e-11
-1.09956e-15
5.29647e-12
-5.8568e-11
7.20229e-16
6.06071e-12
-6.49968e-11
-7.6652e-16
6.88517e-12
-7.18256e-11
4.57063e-16
7.77417e-12
-7.90596e-11
-5.28314e-16
8.72372e-12
-8.67014e-11
2.13811e-16
9.73511e-12
-9.47334e-11
-3.51107e-16
1.0804e-11
-1.03157e-10
7.84312e-17
1.19283e-11
-1.11947e-10
-2.3735e-16
1.31025e-11
-1.21087e-10
-1.31331e-17
1.43214e-11
-1.30548e-10
-1.81631e-16
1.55772e-11
-1.40284e-10
-6.88394e-17
1.68618e-11
-1.50275e-10
-1.54891e-16
1.81644e-11
-1.60445e-10
-9.97169e-17
1.94736e-11
-1.70751e-10
-1.39869e-16
2.07761e-11
-1.81127e-10
-1.09736e-16
2.2057e-11
-1.91493e-10
-1.22199e-16
2.33002e-11
-2.01771e-10
-1.01318e-16
2.44882e-11
-2.11868e-10
-1.0087e-16
2.56022e-11
-2.21699e-10
-8.71131e-17
2.66229e-11
-2.31153e-10
-8.00678e-17
2.75305e-11
-2.40134e-10
-6.41972e-17
2.83045e-11
-2.48528e-10
-5.20474e-17
2.89252e-11
-2.5617e-10
-3.65357e-17
2.93726e-11
-2.63089e-10
-2.3029e-17
2.96286e-11
-2.69007e-10
-9.61035e-18
2.96757e-11
-2.73961e-10
1.20514e-18
2.94987e-11
-2.77729e-10
1.05356e-17
2.90848e-11
-2.80203e-10
1.7581e-17
2.84228e-11
-2.81462e-10
2.27407e-17
2.75061e-11
-2.81152e-10
2.56838e-17
2.63302e-11
-2.7935e-10
2.79063e-17
2.48954e-11
-2.75839e-10
2.69902e-17
2.3206e-11
-2.7053e-10
2.37966e-17
2.12703e-11
-2.63329e-10
1.92737e-17
1.91035e-11
-2.53907e-10
1.35787e-17
1.67266e-11
-2.42067e-10
7.96101e-18
1.41686e-11
-2.27463e-10
2.04449e-18
1.14703e-11
-2.0955e-10
-2.92961e-18
8.69014e-12
-1.8763e-10
-6.77634e-18
5.91615e-12
-1.60739e-10
-8.8703e-18
3.2998e-12
-1.27372e-10
-8.86614e-18
1.12732e-12
-8.53289e-11
-7.24204e-18
-3.18457e-11
-4.05031e-18
9.4828e-15
-5.7508e-13
8.65108e-17
4.06175e-14
-1.89721e-12
-4.90299e-16
9.6104e-14
-3.44787e-12
5.03563e-16
1.78331e-13
-5.2096e-12
1.27001e-16
2.85101e-13
-7.21549e-12
-4.41655e-16
4.15159e-13
-9.40991e-12
5.87089e-17
5.8467e-13
-1.19186e-11
-1.18291e-15
7.74673e-13
-1.46115e-11
-8.51538e-16
1.02732e-12
-1.7653e-11
8.25112e-16
1.3207e-12
-2.09148e-11
-1.91339e-16
1.65241e-12
-2.45283e-11
4.57311e-16
2.04297e-12
-2.84195e-11
-6.01731e-16
2.47366e-12
-3.2671e-11
5.70329e-16
2.96683e-12
-3.72472e-11
-1.02755e-15
3.51331e-12
-4.21999e-11
8.82104e-16
4.12323e-12
-4.75104e-11
-9.6774e-16
4.79121e-12
-5.3212e-11
6.99037e-16
5.52486e-12
-5.93004e-11
-7.9447e-16
6.32042e-12
-6.57936e-11
4.66248e-16
7.18236e-12
-7.26865e-11
-5.2767e-16
8.10712e-12
-7.99852e-11
2.47881e-16
9.09648e-12
-8.76904e-11
-3.78871e-16
1.01469e-11
-9.57843e-11
9.05866e-17
1.12571e-11
-1.04267e-10
-2.57522e-16
1.24222e-11
-1.13112e-10
-5.4036e-18
1.36381e-11
-1.22302e-10
-1.96289e-16
1.48977e-11
-1.31808e-10
-6.83351e-17
1.61937e-11
-1.4158e-10
-1.67551e-16
1.75166e-11
-1.51598e-10
-1.04157e-16
1.88556e-11
-1.61784e-10
-1.53398e-16
2.01981e-11
-1.72094e-10
-1.20432e-16
2.15304e-11
-1.8246e-10
-1.39545e-16
2.28369e-11
-1.928e-10
-1.16503e-16
2.41008e-11
-2.03035e-10
-1.16952e-16
2.5304e-11
-2.13072e-10
-9.93072e-17
2.64272e-11
-2.22823e-10
-9.4282e-17
2.74505e-11
-2.32177e-10
-7.91279e-17
2.83537e-11
-2.41037e-10
-6.59303e-17
2.91162e-11
-2.49291e-10
-4.97232e-17
2.97181e-11
-2.56771e-10
-3.47739e-17
3.01393e-11
-2.6351e-10
-1.92708e-17
3.03621e-11
-2.69229e-10
-5.81715e-18
3.03692e-11
-2.73968e-10
5.83329e-18
3.0146e-11
-2.77506e-10
1.52002e-17
2.96802e-11
-2.79737e-10
2.24606e-17
2.89614e-11
-2.80743e-10
2.75507e-17
2.7984e-11
-2.80174e-10
3.04525e-17
2.67443e-11
-2.7811e-10
3.24617e-17
2.52435e-11
-2.74339e-10
3.12149e-17
2.34871e-11
-2.68774e-10
2.74936e-17
2.14843e-11
-2.61326e-10
2.24996e-17
1.92513e-11
-2.51674e-10
1.61966e-17
1.68105e-11
-2.39626e-10
1.00972e-17
1.41923e-11
-2.24845e-10
3.62146e-18
1.14399e-11
-2.06798e-10
-1.80658e-18
8.6153e-12
-1.84805e-10
-6.09548e-18
5.81335e-12
-1.57937e-10
-8.55447e-18
3.19599e-12
-1.24754e-10
-8.84267e-18
1.06398e-12
-8.3197e-11
-7.45473e-18
-3.07818e-11
-4.40797e-18
1.03669e-14
-5.85266e-13
-4.00118e-17
4.24067e-14
-1.92952e-12
4.82231e-16
9.71807e-14
-3.50199e-12
-4.67937e-17
1.73539e-13
-5.28672e-12
-6.80884e-16
2.80817e-13
-7.32355e-12
2.16261e-16
4.35201e-13
-9.56201e-12
-4.46321e-16
6.14873e-13
-1.21033e-11
-5.08106e-16
8.28174e-13
-1.48358e-11
-1.48879e-15
1.09764e-12
-1.79108e-11
1.54878e-15
1.40791e-12
-2.12177e-11
1.36966e-16
1.7564e-12
-2.48762e-11
-2.86088e-17
2.16107e-12
-2.88197e-11
7.34765e-16
2.6138e-12
-3.31242e-11
-9.48199e-16
3.12557e-12
-3.77593e-11
9.02337e-16
3.69807e-12
-4.27701e-11
-9.33002e-16
4.32983e-12
-4.81432e-11
7.8291e-16
5.02788e-12
-5.39085e-11
-7.70441e-16
5.78936e-12
-6.00631e-11
4.60583e-16
6.61969e-12
-6.66229e-11
-5.3972e-16
7.51594e-12
-7.35833e-11
2.75262e-16
8.48014e-12
-8.09489e-11
-3.78697e-16
9.50931e-12
-8.87201e-11
9.04527e-17
1.06029e-11
-9.68777e-11
-2.71023e-16
1.17567e-11
-1.05421e-10
-1.45381e-18
1.29671e-11
-1.14323e-10
-2.03236e-16
1.42279e-11
-1.23564e-10
-6.68018e-17
1.55326e-11
-1.33113e-10
-1.75865e-16
1.68725e-11
-1.4292e-10
-1.07536e-16
1.82379e-11
-1.52964e-10
-1.63686e-16
1.96168e-11
-1.63163e-10
-1.28816e-16
2.09962e-11
-1.73474e-10
-1.54331e-16
2.23613e-11
-1.83825e-10
-1.31753e-16
2.36962e-11
-1.94135e-10
-1.35609e-16
2.49829e-11
-2.04322e-10
-1.14937e-16
2.62029e-11
-2.14292e-10
-1.08652e-16
2.73361e-11
-2.23956e-10
-9.33587e-17
2.83621e-11
-2.33203e-10
-8.26079e-17
2.92605e-11
-2.41936e-10
-6.39683e-17
3.00102e-11
-2.50041e-10
-4.89086e-17
3.05912e-11
-2.57352e-10
-3.12103e-17
3.09836e-11
-2.63902e-10
-1.57991e-17
3.11697e-11
-2.69415e-10
-1.04411e-18
3.11327e-11
-2.73931e-10
1.06379e-17
3.08586e-11
-2.77231e-10
2.04656e-17
3.03358e-11
-2.79214e-10
2.76928e-17
2.95547e-11
-2.79962e-10
3.27881e-17
2.85107e-11
-2.7913e-10
3.54379e-17
2.72011e-11
-2.768e-10
3.73767e-17
2.56283e-11
-2.72766e-10
3.57365e-17
2.37989e-11
-2.66944e-10
3.15974e-17
2.17232e-11
-2.5925e-10
2.60526e-17
1.94188e-11
-2.49369e-10
1.9228e-17
1.69093e-11
-2.37117e-10
1.25222e-17
1.42271e-11
-2.22162e-10
5.50217e-18
1.14179e-11
-2.03988e-10
-4.64405e-19
8.54796e-12
-1.81935e-10
-5.2322e-18
5.71881e-12
-1.55108e-10
-8.09344e-18
3.10202e-12
-1.22138e-10
-8.7227e-18
1.00842e-12
-8.11034e-11
-7.56768e-18
-2.97734e-11
-4.69038e-18
1.0784e-14
-5.95688e-13
-1.6986e-16
4.42576e-14
-1.96245e-12
-3.89337e-16
1.0735e-13
-3.56419e-12
-9.80342e-18
2.04812e-13
-5.38349e-12
1.11422e-15
3.22744e-13
-7.44179e-12
-7.58004e-16
4.69161e-13
-9.71098e-12
-4.96492e-16
6.54831e-13
-1.22868e-11
-9.14894e-18
8.68924e-13
-1.50652e-11
-2.00338e-15
1.14569e-12
-1.81807e-11
1.28665e-15
1.47179e-12
-2.15369e-11
-3.2985e-16
1.83786e-12
-2.52454e-11
4.20295e-16
2.26434e-12
-2.92437e-11
-6.93812e-16
2.73998e-12
-3.36022e-11
4.84466e-16
3.27881e-12
-3.8296e-11
-7.91187e-16
3.87659e-12
-4.3369e-11
6.32464e-16
4.54165e-12
-4.88068e-11
-7.05513e-16
5.27169e-12
-5.46392e-11
4.61303e-16
6.07134e-12
-6.08619e-11
-5.39973e-16
6.93931e-12
-6.74914e-11
2.49679e-16
7.87807e-12
-7.45213e-11
-3.43585e-16
8.88511e-12
-8.19562e-11
9.93664e-17
9.96031e-12
-8.97951e-11
-2.71126e-16
1.11005e-11
-9.80181e-11
-7.65005e-18
1.23028e-11
-1.06624e-10
-2.05907e-16
1.3562e-11
-1.15582e-10
-6.9461e-17
1.48722e-11
-1.24874e-10
-1.80201e-16
1.62258e-11
-1.34467e-10
-1.13033e-16
1.76136e-11
-1.44308e-10
-1.71463e-16
1.90249e-11
-1.54375e-10
-1.3689e-16
2.04473e-11
-1.64586e-10
-1.65775e-16
2.18666e-11
-1.74894e-10
-1.44849e-16
2.32676e-11
-1.85227e-10
-1.53471e-16
2.4633e-11
-1.95501e-10
-1.33067e-16
2.59445e-11
-2.05633e-10
-1.26388e-16
2.71825e-11
-2.1553e-10
-1.07384e-16
2.83265e-11
-2.251e-10
-9.81934e-17
2.93553e-11
-2.34232e-10
-8.09782e-17
3.02481e-11
-2.42828e-10
-6.42136e-17
3.09836e-11
-2.50776e-10
-4.56002e-17
3.15416e-11
-2.5791e-10
-2.82354e-17
3.19022e-11
-2.64263e-10
-1.10026e-17
3.20482e-11
-2.69561e-10
3.79378e-18
3.1963e-11
-2.73845e-10
1.62245e-17
3.16334e-11
-2.76902e-10
2.60452e-17
3.10486e-11
-2.78629e-10
3.34254e-17
3.01998e-11
-2.79113e-10
3.84057e-17
2.90836e-11
-2.78013e-10
4.09387e-17
2.76985e-11
-2.75415e-10
4.25897e-17
2.6048e-11
-2.71115e-10
4.05406e-17
2.414e-11
-2.65035e-10
3.58015e-17
2.19862e-11
-2.57096e-10
2.97178e-17
1.96055e-11
-2.46989e-10
2.2213e-17
1.70232e-11
-2.34534e-10
1.49662e-17
1.42737e-11
-2.19413e-10
7.32336e-18
1.14057e-11
-2.0112e-10
8.51604e-19
8.48957e-12
-1.79019e-10
-4.40391e-18
5.63378e-12
-1.52253e-10
-7.6704e-18
3.01831e-12
-1.19522e-10
-8.62025e-18
9.6022e-13
-7.90454e-11
-7.72756e-18
-2.88133e-11
-5.01037e-18
1.12236e-14
-6.06792e-13
-5.05178e-17
4.68743e-14
-1.99756e-12
-2.48679e-16
1.07872e-13
-3.62381e-12
-4.99768e-16
1.96595e-13
-5.47269e-12
1.15117e-15
3.22027e-13
-7.56959e-12
-3.45048e-16
4.94802e-13
-9.88339e-12
-6.57044e-16
6.96764e-13
-1.24898e-11
-6.7007e-17
9.3915e-13
-1.53206e-11
-1.81758e-15
1.22924e-12
-1.84607e-11
1.4849e-15
1.57316e-12
-2.18771e-11
-8.84334e-17
1.95416e-12
-2.56292e-11
-5.2242e-16
2.39938e-12
-2.96878e-11
4.094e-16
2.89935e-12
-3.41015e-11
-7.11373e-16
3.46313e-12
-3.88599e-11
6.10216e-16
4.0914e-12
-4.39953e-11
-5.8131e-16
4.78597e-12
-4.95021e-11
3.97884e-16
5.55146e-12
-5.54033e-11
-4.43312e-16
6.38693e-12
-6.1698e-11
2.0581e-16
7.29558e-12
-6.83994e-11
-3.40633e-16
8.27641e-12
-7.55022e-11
1.06083e-16
9.32933e-12
-8.30087e-11
-2.43011e-16
1.04521e-11
-9.09181e-11
-2.3163e-17
1.16426e-11
-9.92084e-11
-2.06219e-16
1.28963e-11
-1.07878e-10
-7.89556e-17
1.42082e-11
-1.16894e-10
-1.7786e-16
1.55714e-11
-1.26237e-10
-1.18133e-16
1.69775e-11
-1.35873e-10
-1.74264e-16
1.84168e-11
-1.45747e-10
-1.44314e-16
1.98776e-11
-1.55836e-10
-1.73759e-16
2.13467e-11
-1.66055e-10
-1.55513e-16
2.2809e-11
-1.76356e-10
-1.6755e-16
2.42482e-11
-1.86666e-10
-1.50464e-16
2.56464e-11
-1.96899e-10
-1.46164e-16
2.69842e-11
-2.06971e-10
-1.24867e-16
2.82413e-11
-2.16787e-10
-1.1322e-16
2.93963e-11
-2.26255e-10
-9.62861e-17
3.04276e-11
-2.35264e-10
-8.2256e-17
3.13139e-11
-2.43715e-10
-6.10524e-17
3.20335e-11
-2.51496e-10
-4.32557e-17
3.25662e-11
-2.58442e-10
-2.34651e-17
3.28922e-11
-2.64589e-10
-6.29801e-18
3.29945e-11
-2.69663e-10
9.65457e-18
3.28571e-11
-2.73708e-10
2.20595e-17
3.24675e-11
-2.76512e-10
3.22617e-17
3.18156e-11
-2.77976e-10
3.95506e-17
3.0894e-11
-2.78191e-10
4.44633e-17
2.97003e-11
-2.76819e-10
4.6691e-17
2.82342e-11
-2.73949e-10
4.8165e-17
2.65007e-11
-2.69381e-10
4.56521e-17
2.45089e-11
-2.63043e-10
4.04182e-17
2.22721e-11
-2.54859e-10
3.37036e-17
1.98108e-11
-2.44527e-10
2.5609e-17
1.7152e-11
-2.31875e-10
1.76851e-17
1.43325e-11
-2.16593e-10
9.43633e-18
1.14038e-11
-1.98192e-10
2.36461e-18
8.4411e-12
-1.76057e-10
-3.4181e-18
5.559e-12
-1.4937e-10
-7.12758e-18
2.94483e-12
-1.16908e-10
-8.45238e-18
9.1883e-13
-7.70195e-11
-7.81537e-18
-2.78945e-11
-5.28859e-18
1.19145e-14
-6.18373e-13
-1.39931e-16
4.93043e-14
-2.03455e-12
-2.76317e-16
1.14142e-13
-3.68817e-12
-2.24856e-16
2.10336e-13
-5.56859e-12
8.71484e-16
3.47458e-13
-7.70859e-12
-3.33327e-16
5.30023e-13
-1.00658e-11
-2.78917e-16
7.49639e-13
-1.27088e-11
-2.58241e-16
1.03743e-12
-1.5621e-11
-1.22883e-15
1.30779e-12
-1.87181e-11
1.54841e-15
1.66312e-12
-2.22314e-11
-7.70365e-16
2.05342e-12
-2.60252e-11
1.8114e-16
2.52445e-12
-3.01554e-11
-6.39123e-16
3.04773e-12
-3.46258e-11
4.88352e-16
3.64413e-12
-3.94545e-11
-4.8956e-16
4.30424e-12
-4.46558e-11
3.31429e-16
5.03735e-12
-5.02344e-11
-4.33356e-16
5.84199e-12
-5.6208e-11
2.17925e-16
6.72121e-12
-6.25768e-11
-3.33944e-16
7.67495e-12
-6.93534e-11
5.34663e-17
8.70445e-12
-7.65312e-11
-2.13744e-16
9.80772e-12
-8.41121e-11
-3.49351e-17
1.09833e-11
-9.20937e-11
-2.01523e-16
1.2228e-11
-1.00453e-10
-1.01774e-16
1.35375e-11
-1.09187e-10
-1.77689e-16
1.49059e-11
-1.18262e-10
-1.29343e-16
1.63258e-11
-1.27657e-10
-1.74343e-16
1.77882e-11
-1.37336e-10
-1.53655e-16
1.92824e-11
-1.47242e-10
-1.79113e-16
2.07961e-11
-1.5735e-10
-1.65903e-16
2.23148e-11
-1.67574e-10
-1.77861e-16
2.38228e-11
-1.77864e-10
-1.64918e-16
2.53026e-11
-1.88146e-10
-1.6432e-16
2.67353e-11
-1.98332e-10
-1.44647e-16
2.81007e-11
-2.08337e-10
-1.31562e-16
2.93775e-11
-2.18064e-10
-1.10728e-16
3.05438e-11
-2.27421e-10
-9.80016e-17
3.15771e-11
-2.36297e-10
-7.8956e-17
3.24556e-11
-2.44593e-10
-5.9284e-17
3.31575e-11
-2.52198e-10
-3.84764e-17
3.36624e-11
-2.58947e-10
-1.8993e-17
3.39507e-11
-2.64878e-10
-2.30603e-19
3.40057e-11
-2.69717e-10
1.56803e-17
3.3812e-11
-2.73514e-10
2.87187e-17
3.33577e-11
-2.76057e-10
3.88367e-17
3.26341e-11
-2.77252e-10
4.61991e-17
3.16345e-11
-2.77192e-10
5.09339e-17
3.03581e-11
-2.75543e-10
5.29476e-17
2.88058e-11
-2.72396e-10
5.40635e-17
2.69842e-11
-2.6756e-10
5.10501e-17
2.4904e-11
-2.60963e-10
4.51488e-17
2.25798e-11
-2.52535e-10
3.78178e-17
2.0034e-11
-2.41981e-10
2.89687e-17
1.72956e-11
-2.29137e-10
2.04288e-17
1.44035e-11
-2.13701e-10
1.14902e-17
1.14129e-11
-1.95201e-10
3.84665e-18
8.40311e-12
-1.73047e-10
-2.48119e-18
5.49478e-12
-1.46462e-10
-6.64923e-18
2.88128e-12
-1.14295e-10
-8.33109e-18
8.83632e-13
-7.50219e-11
-7.98327e-18
-2.7011e-11
-5.62453e-18
1.28467e-14
-6.30958e-13
-1.22353e-16
5.34632e-14
-2.07538e-12
1.39127e-16
1.30353e-13
-3.76439e-12
-3.02271e-17
2.48532e-13
-5.68647e-12
3.99153e-16
3.8604e-13
-7.8502e-12