/*--------------------------------*- C++ -*----------------------------------*\
| =========                 |                                                 |
| \\      /  F ield         | OpenFOAM: The Open Source CFD Toolbox           |
|  \\    /   O peration     | Version:  v2012                                 |
|   \\  /    A nd           | Website:  www.openfoam.com                      |
|    \\/     M anipulation  |                                                 |
\*---------------------------------------------------------------------------*/
FoamFile
{
    version     2.0;
    format      ascii;
    class       volScalarField;
    location    "0.25";
    object      alpha.water;
}
// * * * * * * * * * * * * * * * * * * * * * * * * * * * * * * * * * * * * * //

dimensions      [0 0 0 0 0 0 0];


internalField   nonuniform List<scalar> 
3332
(
-2.45466e-62
-2.03497e-62
-8.782e-63
-1.56443e-61
-1.62417e-60
-8.25044e-59
-7.35829e-58
-7.18375e-57
-1.96532e-56
-2.56219e-56
-2.06731e-56
-1.17962e-56
-6.70483e-57
-3.16211e-57
-1.04068e-57
-2.36493e-58
-3.83873e-59
-4.60552e-60
-4.18587e-61
-2.9329e-62
-1.32359e-62
-3.11607e-61
-6.56527e-61
-5.15677e-61
-2.1193e-61
-1.88063e-60
-1.88409e-59
-9.68138e-58
-8.64933e-57
-8.90454e-56
-2.43974e-55
-3.13859e-55
-2.49109e-55
-1.405e-55
-8.44945e-56
-4.20127e-56
-1.42213e-56
-3.27904e-57
-5.36756e-58
-6.47778e-59
-5.91685e-60
-4.16584e-61
-5.46741e-153
-5.09391e-147
-8.73749e-140
-1.42187e-130
-4.35837e-121
-8.85869e-112
-7.44406e-109
1.38197e-102
-1.35054e-91
-1.18618e-86
-3.51819e-75
-6.48648e-72
-2.95602e-69
-1.52937e-67
-2.47801e-63
-3.6749e-61
-8.48538e-60
-1.69958e-59
-1.2654e-59
-4.95368e-60
-2.19698e-59
-2.09704e-58
-1.09156e-56
-9.78574e-56
-1.0659e-54
-2.92877e-54
-3.72079e-54
-2.90678e-54
-1.62315e-54
-1.04659e-54
-5.50557e-55
-1.91587e-55
-4.47964e-56
-7.39391e-57
-8.97773e-58
-8.2446e-59
-5.83626e-60
-3.82729e-154
-1.14496e-147
-3.28095e-137
-3.559e-128
-9.2959e-119
-1.29612e-109
-8.2527e-107
1.30664e-100
-9.96879e-90
-7.29156e-85
-1.11372e-80
-5.86081e-77
-1.39989e-73
-2.3146e-70
-9.53975e-68
-4.49932e-66
-6.92055e-62
-9.84795e-60
-2.23174e-58
-4.25261e-58
-3.00219e-58
-1.11977e-58
-2.51984e-58
-2.23497e-57
-1.18001e-55
-1.06345e-54
-1.22975e-53
-3.39368e-53
-4.2616e-53
-3.27923e-53
-1.8167e-53
-1.2745e-53
-7.10746e-54
-2.53975e-54
-6.0177e-55
-1.00135e-55
-1.22347e-56
-1.13007e-57
-8.04735e-59
-3.17698e-151
-1.04559e-144
-1.13984e-134
-8.69852e-126
-1.91315e-116
-1.8267e-107
-8.81936e-105
1.18898e-98
-7.0927e-88
-4.31899e-83
-5.5633e-79
-2.54082e-75
-5.3679e-72
-7.95837e-69
-2.96541e-66
-1.27398e-64
-1.86195e-60
-2.54292e-58
-5.65963e-57
-1.02679e-56
-6.87533e-57
-2.44393e-57
-2.8932e-57
-2.27636e-56
-1.22021e-54
-1.10762e-53
-1.3646e-52
-3.78844e-52
-4.70715e-52
-3.57046e-52
-1.96778e-52
-1.52596e-52
-9.02475e-53
-3.30622e-53
-7.93226e-54
-1.33047e-54
-1.63608e-55
-1.52048e-56
-1.08974e-57
-6.1116e-59
-2.18946e-148
-8.82179e-142
-3.64232e-132
-2.05854e-123
-3.79118e-114
-2.47599e-105
-9.07106e-103
1.03943e-96
-4.85698e-86
-2.46128e-81
-2.67344e-77
-1.05981e-73
-1.98023e-70
-2.63214e-67
-8.86325e-65
-3.46552e-63
-4.81749e-59
-6.31601e-57
-1.3814e-55
-2.3881e-55
-1.51719e-55
-5.14108e-56
-3.42757e-56
-2.21203e-55
-1.20394e-53
-1.10296e-52
-1.45311e-51
-4.06589e-51
-5.00442e-51
-3.74522e-51
-2.06068e-51
-1.79588e-51
-1.12499e-51
-4.21751e-52
-1.02382e-52
-1.73074e-53
-2.14244e-54
-2.00402e-55
-1.44621e-56
-8.17227e-58
-1.8484e-145
-6.82092e-139
-1.06312e-129
-4.65907e-121
-7.21884e-112
-3.22237e-103
-8.9646e-101
8.7138e-95
-3.19609e-84
-1.34718e-79
-1.23374e-75
-4.24568e-72
-7.01525e-69
-8.35865e-66
-2.54246e-63
-9.03896e-62
-1.19644e-57
-1.50613e-55
-3.23903e-54
-5.34038e-54
-3.22017e-54
-1.04048e-54
-4.33585e-55
-2.0491e-54
-1.1303e-52
-1.04734e-51
-1.48133e-50
-4.18595e-50
-5.1105e-50
-3.77739e-50
-2.08468e-50
-2.07612e-50
-1.37382e-50
-5.26028e-51
-1.29123e-51
-2.19985e-52
-2.74184e-53
-2.5823e-54
-1.87716e-55
-1.06925e-56
-4.82221e-58
-1.26148e-142
-4.79396e-136
-2.81215e-127
-9.93739e-119
-1.31805e-109
-4.01927e-101
-8.49764e-99
6.99239e-93
-2.01802e-82
-7.07029e-78
-5.45729e-74
-1.63048e-70
-2.38206e-67
-2.54363e-64
-6.98565e-62
-2.25586e-60
-2.84652e-56
-3.44133e-54
-7.28108e-53
-1.146e-52
-6.56088e-53
-2.022e-53
-5.97047e-54
-1.81177e-53
-1.00666e-51
-9.45655e-51
-1.44187e-49
-4.12424e-49
-5.00184e-49
-3.65567e-49
-2.03634e-49
-2.35496e-49
-1.63982e-49
-6.40087e-50
-1.588e-50
-2.72674e-51
-3.4228e-52
-3.24687e-53
-2.37838e-54
-1.36614e-55
-6.21828e-57
-1.05675e-139
-3.03402e-133
-6.67873e-125
-1.96674e-116
-2.30283e-107
-4.79552e-99
-7.71169e-97
5.3608e-91
-1.22082e-80
-3.55172e-76
-2.30931e-72
-5.99051e-69
-7.73676e-66
-7.40225e-63
-1.83459e-60
-5.37521e-59
-6.47406e-55
-7.51834e-53
-1.56581e-51
-2.35504e-51
-1.28053e-51
-3.76532e-52
-8.84972e-53
-1.53796e-52
-8.47678e-51
-8.09341e-50
-1.33629e-48
-3.87876e-48
-4.68085e-48
-3.38722e-48
-1.92049e-48
-2.61682e-48
-1.9086e-48
-7.58249e-49
-1.90069e-49
-3.28984e-50
-4.16038e-51
-3.97634e-52
-2.93608e-53
-1.70119e-54
-7.81746e-56
-5.34682e-137
-1.71049e-130
-1.40853e-122
-3.55655e-114
-3.84185e-105
-5.46228e-97
-6.68692e-95
3.91953e-89
-7.06743e-79
-1.70487e-74
-9.32902e-71
-2.10121e-67
-2.39838e-64
-2.05544e-61
-4.59489e-59
-1.21996e-57
-1.40446e-53
-1.56704e-51
-3.21415e-50
-4.62439e-50
-2.38896e-50
-6.70407e-51
-1.36517e-51
-1.27233e-51
-6.72429e-50
-6.54321e-49
-1.17558e-47
-3.47247e-47
-4.17773e-47
-2.9977e-47
-1.74961e-47
-2.84267e-47
-2.16099e-47
-8.72612e-48
-2.20985e-48
-3.85664e-49
-4.91517e-50
-4.7348e-51
-3.52519e-52
-2.06085e-53
-9.56294e-55
-3.70358e-134
-8.47804e-128
-2.60277e-120
-5.78789e-112
-6.10668e-103
-5.92708e-95
-5.52868e-93
2.72845e-87
-3.91183e-77
-7.80726e-73
-3.58987e-69
-7.0202e-66
-7.07987e-63
-5.43318e-60
-1.09492e-57
-2.63075e-56
-2.89922e-52
-3.10862e-50
-6.28265e-49
-8.65668e-49
-4.25011e-49
-1.13861e-49
-2.11457e-50
-1.05726e-50
-5.00464e-49
-4.97809e-48
-9.78431e-47
-2.95036e-46
-3.54633e-46
-2.5275e-46
-1.54161e-46
-3.01151e-46
-2.37452e-46
-9.73625e-47
-2.49128e-47
-4.38536e-48
-5.63468e-49
-5.47251e-50
-4.10935e-51
-2.42437e-52
-1.13614e-53
-1.56435e-131
-3.63502e-125
-4.14432e-118
-8.35022e-110
-9.22654e-101
-6.1134e-93
-4.34898e-91
1.80616e-85
-2.06979e-75
-3.40624e-71
-1.31279e-67
-2.22873e-64
-1.98522e-61
-1.3637e-58
-2.47602e-56
-5.37567e-55
-5.68062e-51
-5.85456e-49
-1.16646e-47
-1.54106e-47
-7.19248e-48
-1.83998e-48
-3.20306e-49
-9.239e-50
-3.47917e-48
-3.54907e-47
-7.67632e-46
-2.37123e-45
-2.85455e-45
-2.02464e-45
-1.31648e-45
-3.10291e-45
-2.52631e-45
-1.05119e-45
-2.71851e-46
-4.82886e-47
-6.25781e-48
-6.12956e-49
-4.64315e-50
-2.76471e-51
-1.30855e-52
-8.95983e-129
-1.32313e-122
-5.56605e-116
-1.0527e-107
-1.32185e-98
-5.98025e-91
-3.24738e-89
1.13655e-83
-1.04801e-73
-1.41479e-69
-4.55108e-66
-6.70622e-63
-5.27381e-60
-3.24144e-57
-5.29922e-55
-1.03793e-53
-1.05363e-49
-1.04399e-47
-2.05156e-46
-2.60213e-46
-1.15474e-46
-2.82153e-47
-4.66661e-48
-8.85481e-49
-2.24826e-47
-2.35993e-46
-5.65422e-45
-1.79622e-44
-2.17163e-44
-1.53619e-44
-1.09268e-44
-3.10047e-44
-2.59664e-44
-1.09618e-44
-2.86656e-45
-5.14085e-46
-6.72227e-47
-6.64262e-48
-5.07674e-49
-3.05105e-50
-1.45838e-51
-2.79952e-126
-4.01445e-120
-6.12713e-114
-1.14818e-105
-1.79126e-96
-5.53589e-89
-2.29636e-87
6.80574e-82
-5.09179e-72
-5.5946e-68
-1.4917e-64
-1.9073e-61
-1.32357e-58
-7.27549e-56
-1.07027e-53
-1.88782e-52
-1.84465e-48
-1.75766e-46
-3.40843e-45
-4.15601e-45
-1.75376e-45
-4.09366e-46
-6.47299e-47
-9.34164e-48
-1.34357e-46
-1.4558e-45
-3.89263e-44
-1.27727e-43
-1.55575e-43
-1.10037e-43
-8.84343e-44
-2.99558e-43
-2.57287e-43
-1.10209e-43
-2.91613e-44
-5.2833e-45
-6.97403e-46
-6.95401e-47
-5.36265e-48
-3.25271e-49
-1.56991e-50
-1.09536e-123
-1.02065e-117
-5.3123e-112
-1.09351e-103
-2.28977e-94
-4.839e-87
-1.53422e-85
3.89282e-80
-2.38694e-70
-2.11002e-66
-4.60992e-63
-5.11225e-60
-3.12876e-57
-1.53733e-54
-2.03356e-52
-3.224e-51
-3.03917e-47
-2.78548e-45
-5.33295e-44
-6.26018e-44
-2.51188e-44
-5.60157e-45
-8.49017e-46
-1.04221e-46
-7.3888e-46
-8.28098e-45
-2.49215e-43
-8.48738e-43
-1.04527e-42
-7.41378e-43
-6.99986e-43
-2.79029e-42
-2.45248e-42
-1.06641e-42
-2.85749e-43
-5.23358e-44
-6.97705e-45
-7.02172e-46
-5.46369e-47
-3.34411e-48
-1.62924e-49
-5.27389e-121
-2.33912e-115
-3.4148e-110
-9.7764e-102
-2.75263e-92
-3.98691e-85
-9.66277e-84
2.14408e-78
-1.08927e-68
-7.62394e-65
-1.33938e-61
-1.28736e-58
-6.94377e-56
-3.04803e-53
-3.62287e-51
-5.15164e-50
-4.69678e-46
-4.14175e-44
-7.83305e-43
-8.86533e-43
-3.38156e-43
-7.20376e-44
-1.04741e-44
-1.16741e-45
-3.72646e-45
-4.31295e-44
-1.47527e-42
-5.24308e-42
-6.55622e-42
-4.67901e-42
-5.42751e-42
-2.49854e-41
-2.24448e-41
-9.91472e-42
-2.69296e-42
-4.98968e-43
-6.72099e-44
-6.82795e-45
-5.36024e-46
-3.30959e-47
-1.62687e-48
-3.47219e-118
-4.63009e-113
-1.47329e-108
-9.908e-100
-3.10198e-90
-3.09346e-83
-5.72686e-82
1.15303e-76
-4.89785e-67
-2.66088e-63
-3.64779e-60
-3.03542e-57
-1.44181e-54
-5.65053e-52
-6.03019e-50
-7.67314e-49
-6.78481e-45
-5.75823e-43
-1.07636e-41
-1.17638e-41
-4.26338e-42
-8.67316e-43
-1.20938e-43
-1.26225e-44
-1.72633e-44
-2.03963e-43
-8.02129e-42
-2.99308e-41
-3.8185e-41
-2.75327e-41
-4.11919e-41
-2.14479e-40
-1.96845e-40
-8.84259e-41
-2.43722e-41
-4.57189e-42
-6.22478e-43
-6.38403e-44
-5.05517e-45
-3.1471e-46
-1.55981e-47
-3.44911e-116
-1.49761e-111
-3.55496e-107
-1.32117e-97
-3.26616e-88
-2.26203e-81
-3.19223e-80
6.17612e-75
-2.19857e-65
-9.08447e-62
-9.28592e-59
-6.67725e-56
-2.79049e-53
-9.75716e-51
-9.34158e-49
-1.06099e-47
-9.12748e-44
-7.4578e-42
-1.37865e-40
-1.4574e-40
-5.01405e-41
-9.7339e-42
-1.30025e-42
-1.28563e-43
-7.4567e-44
-8.66954e-43
-3.97442e-41
-1.56781e-40
-2.05221e-40
-1.50236e-40
-3.04824e-40
-1.76035e-39
-1.65137e-39
-7.55333e-40
-2.11519e-40
-4.02015e-41
-5.53476e-42
-5.7301e-43
-4.57479e-44
-2.86963e-45
-1.43273e-46
-1.91699e-116
-1.72293e-111
-4.23282e-106
-2.05547e-95
-3.20392e-86
-1.56614e-79
-1.67617e-78
3.36672e-73
-9.94736e-64
-3.081e-60
-2.20404e-57
-1.36502e-54
-5.01367e-52
-1.56293e-49
-1.34126e-47
-1.35595e-46
-1.13895e-42
-8.96245e-41
-1.63954e-39
-1.67923e-39
-5.47683e-40
-1.01338e-40
-1.29428e-41
-1.21443e-42
-3.13438e-43
-3.26974e-42
-1.7775e-40
-7.47112e-40
-1.01004e-39
-7.55348e-40
-2.18447e-39
-1.37798e-38
-1.32291e-38
-6.17019e-39
-1.75782e-39
-3.3876e-40
-4.71741e-41
-4.92917e-42
-3.9653e-43
-2.50372e-44
-1.25761e-45
-1.00882e-114
-8.86472e-110
-2.03915e-104
-3.16238e-93
-2.91589e-84
-1.03872e-77
-8.34006e-77
1.89361e-71
-4.54247e-62
-1.0517e-58
-4.87125e-56
-2.58241e-53
-8.32577e-51
-2.31205e-48
-1.77685e-46
-1.59397e-45
-1.31255e-41
-9.95131e-40
-1.80271e-38
-1.79189e-38
-5.52943e-39
-9.73221e-40
-1.18487e-40
-1.05112e-41
-1.38293e-42
-1.07541e-41
-7.0897e-40
-3.20429e-39
-4.5093e-39
-3.472e-39
-1.50223e-38
-1.02637e-37
-1.01037e-37
-4.81311e-38
-1.3969e-38
-2.73166e-39
-3.84832e-40
-4.05671e-41
-3.28528e-42
-2.08522e-43
-1.05193e-44
-2.28305e-113
-3.40479e-108
-1.72124e-102
-4.53502e-91
-2.45285e-82
-6.74942e-76
-3.98862e-75
1.09645e-69
-2.07657e-60
-3.6261e-57
-1.00373e-54
-4.50059e-52
-1.27175e-49
-3.14333e-47
-2.16119e-45
-1.7145e-44
-1.39046e-40
-1.01616e-38
-1.82423e-37
-1.76268e-37
-5.13203e-38
-8.56665e-39
-9.89644e-40
-8.23524e-41
-6.78318e-42
-3.00706e-41
-2.48205e-39
-1.21976e-38
-1.80353e-38
-1.44469e-38
-9.80955e-38
-7.25858e-37
-7.346e-37
-3.5803e-37
-1.06009e-37
-2.10486e-38
-2.9999e-39
-3.18828e-40
-2.59593e-41
-1.65329e-42
-8.35692e-44
-1.91699e-111
-2.75424e-106
-1.72077e-100
-5.98799e-89
-1.89893e-80
-4.44746e-74
-1.88331e-73
6.4274e-68
-9.36981e-59
-1.25057e-55
-1.94101e-53
-7.19026e-51
-1.77747e-48
-3.90661e-46
-2.40049e-44
-1.67757e-43
-1.34715e-39
-9.49473e-38
-1.69053e-36
-1.59021e-36
-4.35188e-37
-6.85912e-38
-7.46667e-39
-5.75476e-40
-3.551e-41
-6.85274e-41
-7.45621e-39
-4.04324e-38
-6.3519e-38
-5.37032e-38
-6.01401e-37
-4.86453e-36
-5.07757e-36
-2.53633e-36
-7.67234e-37
-1.54757e-37
-2.23093e-38
-2.38803e-39
-1.9514e-40
-1.24398e-41
-6.28066e-43
-1.12734e-111
-2.9674e-106
-1.39738e-98
-7.24786e-87
-1.34717e-78
-3.08255e-72
-9.12141e-72
3.73141e-66
-4.11058e-57
-4.23052e-54
-3.58123e-52
-1.04756e-49
-2.25996e-47
-4.41243e-45
-2.42053e-43
-1.48352e-42
-1.187e-38
-8.07327e-37
-1.4269e-35
-1.30798e-35
-3.34747e-36
-4.94982e-37
-5.02371e-38
-3.51295e-39
-1.76145e-40
-1.1702e-40
-1.85433e-38
-1.1348e-37
-1.92011e-37
-1.74992e-37
-3.42037e-36
-3.08414e-35
-3.33255e-35
-1.70903e-35
-5.28883e-36
-1.08409e-36
-1.57991e-37
-1.70077e-38
-1.39146e-39
-8.84935e-41
-4.44363e-42
-3.95113e-109
-9.62065e-104
-8.92187e-97
-8.00051e-85
-8.70927e-77
-2.28135e-70
-4.68888e-70
2.10478e-64
-1.73143e-55
-1.37286e-52
-6.49851e-51
-1.38439e-48
-2.59718e-46
-4.49977e-44
-2.20173e-42
-1.17705e-41
-9.45313e-38
-6.20886e-36
-1.09034e-34
-9.74087e-35
-2.31537e-35
-3.18236e-36
-2.96146e-37
-1.80968e-38
-7.11366e-40
-1.17183e-40
-3.57055e-38
-2.5757e-37
-4.77491e-37
-4.85049e-37
-1.78095e-35
-1.84709e-34
-2.0747e-34
-1.09407e-34
-3.46797e-35
-7.22425e-36
-1.06344e-36
-1.14888e-37
-9.37952e-39
-5.92432e-40
-2.94133e-41
-2.25088e-107
-2.36055e-102
-4.41431e-95
-8.0196e-83
-5.10412e-75
-1.77127e-68
-2.57206e-68
1.13779e-62
-6.94022e-54
-4.19084e-51
-1.20627e-49
-1.65148e-47
-2.67867e-45
-4.11336e-43
-1.79496e-41
-8.30995e-41
-6.75729e-37
-4.28951e-35
-7.49179e-34
-6.51241e-34
-1.42417e-34
-1.795e-35
-1.48986e-36
-7.29539e-38
-1.54209e-39
0
-4.44071e-38
-4.31471e-37
-8.98295e-37
-1.08288e-36
-8.3583e-35
-1.04354e-33
-1.22398e-33
-6.64643e-34
-2.16024e-34
-4.5723e-35
-6.78945e-36
-7.33948e-37
-5.95241e-38
-3.71097e-39
-1.80671e-40
-1.54643e-105
-1.79666e-100
-1.96973e-93
-7.247e-81
-2.6973e-73
-1.39128e-66
-1.46444e-66
5.84051e-61
-2.63248e-52
-1.18525e-49
-2.3493e-48
-1.77381e-46
-2.46059e-44
-3.34397e-42
-1.30507e-40
-5.17478e-40
-4.30151e-36
-2.64166e-34
-4.59283e-33
-3.86572e-33
-7.67261e-34
-8.6862e-35
-6.11634e-36
-1.7228e-37
9.50462e-55
5.73745e-41
3.93961e-41
-4.02709e-37
-1.00407e-36
-1.71639e-36
-3.46401e-34
-5.55317e-33
-6.83564e-33
-3.82699e-33
-1.27649e-33
-2.74377e-34
-4.10233e-35
-4.41956e-36
-3.53863e-37
-2.15897e-38
-1.01858e-39
-8.56996e-104
-6.67281e-99
-1.44331e-91
-5.87338e-79
-1.27739e-71
-1.06878e-64
-8.32355e-65
2.83132e-59
-9.41936e-51
-3.07172e-48
-4.73791e-47
-1.72312e-45
-1.99905e-43
-2.39889e-41
-8.48493e-40
-2.82649e-39
-2.41643e-35
-1.43725e-33
-2.48904e-32
-2.00665e-32
-3.53944e-33
-3.47475e-34
-1.85732e-35
-1.26994e-42
6.996e-39
4.12216e-39
5.7663e-39
1.3453e-39
1.41336e-39
-9.89733e-37
-1.22997e-33
-2.77705e-32
-3.6087e-32
-2.08553e-32
-7.14339e-33
-1.55823e-33
-2.34031e-34
-2.49885e-35
-1.95843e-36
-1.15521e-37
-5.18845e-39
-3.89459e-114
-1.56959e-108
-1.81956e-89
-4.23783e-77
-5.38113e-70
-7.86265e-63
-4.5795e-63
1.28807e-57
-3.17343e-49
-7.24046e-47
-9.46478e-46
-1.55041e-44
-1.43477e-42
-1.51287e-40
-5.08524e-39
-1.38103e-38
-1.18529e-34
-6.8354e-33
-1.17863e-31
-8.9095e-32
-1.3464e-32
-1.06359e-33
-2.71465e-35
3.45005e-37
4.90695e-37
2.68552e-37
3.70539e-37
1.90455e-37
1.99055e-37
4.20434e-38
-3.55309e-33
-1.29956e-31
-1.79666e-31
-1.07349e-31
-3.77804e-32
-8.35823e-33
-1.25734e-33
-1.32048e-34
-1.00088e-35
-5.60678e-37
-2.32848e-38
-1.47639e-111
-5.64931e-106
-2.40025e-87
-2.70233e-75
-2.00186e-68
-5.47312e-61
-2.39413e-61
5.46093e-56
-1.00494e-47
-1.54571e-45
-1.78579e-44
-1.3799e-43
-9.33591e-42
-8.52846e-40
-3.12632e-38
-6.9643e-38
-5.01441e-34
-2.80478e-32
-4.79744e-31
-3.26908e-31
-3.92283e-32
-1.92001e-33
2.53127e-52
3.04477e-35
3.1634e-35
1.69295e-35
2.28986e-35
1.17068e-35
1.21279e-35
5.77905e-36
-7.47859e-33
-5.64432e-31
-8.40125e-31
-5.20339e-31
-1.88319e-31
-4.22473e-32
-6.34259e-33
-6.4814e-34
-4.66795e-35
-2.41289e-36
-8.74238e-38
-3.89283e-109
-2.16599e-103
-3.26451e-85
-1.51022e-73
-6.52414e-67
-3.57968e-59
-1.17793e-59
2.14199e-54
-2.98395e-46
-2.98936e-44
-3.07243e-43
-1.35998e-42
-6.19462e-41
-4.71567e-39
-2.38795e-37
-5.31672e-37
-1.80617e-33
-9.76241e-32
-1.63404e-30
-9.34461e-31
-7.13489e-32
-9.47677e-40
9.16315e-35
1.87723e-33
1.96738e-33
1.03194e-33
1.37151e-33
6.92622e-34
7.12636e-34
3.40362e-34
-7.60437e-33
-2.24036e-30
-3.66373e-30
-2.36396e-30
-8.81222e-31
-2.00674e-31
-2.99088e-32
-2.92582e-33
-1.94602e-34
-8.76595e-36
-2.30622e-37
-8.98327e-107
-1.09621e-100
-5.72318e-83
-7.33729e-72
-1.84874e-65
-2.18706e-57
-5.42222e-58
7.73294e-53
-8.27464e-45
-5.27384e-43
-4.71227e-42
-1.59877e-41
-5.40006e-40
-3.25052e-38
-2.39349e-36
-6.62158e-36
-5.51041e-33
-2.81006e-31
-4.41405e-30
-1.83393e-30
-4.58957e-37
1.88211e-33
5.95024e-33
1.16423e-31
1.18099e-31
6.06534e-32
7.95365e-32
3.97654e-32
1.2785e-31
1.27275e-31
1.37335e-33
-7.89593e-30
-1.47284e-29
-9.9925e-30
-3.84922e-30
-8.92539e-31
-1.30688e-31
-1.19119e-32
-6.92654e-34
-2.27612e-35
-6.92335e-44
-3.00285e-104
-7.55827e-98
-1.42999e-80
-3.08781e-70
-4.53997e-64
-1.23923e-55
-2.32171e-56
2.56996e-51
-2.13095e-43
-8.62724e-42
-6.35086e-41
-2.12323e-40
-6.74878e-39
-3.24052e-37
-2.65162e-35
-9.12221e-35
-1.48801e-32
-6.30371e-31
-8.25211e-30
-1.33941e-30
2.59666e-34
1.25638e-31
3.63628e-31
6.92611e-30
6.87015e-30
3.42397e-30
4.46309e-30
2.21409e-30
1.08816e-28
6.52496e-29
2.22417e-31
-2.33372e-29
-5.35691e-29
-3.88603e-29
-1.55659e-29
-3.69796e-30
-5.17999e-31
-4.17993e-32
-1.83181e-33
-8.83463e-42
7.68251e-38
-2.39518e-101
-5.72452e-95
-4.18538e-78
-1.15266e-68
-9.80765e-63
-6.44807e-54
-9.17562e-55
7.90012e-50
-5.06679e-42
-1.34142e-40
-7.45531e-40
-2.87743e-39
-9.6618e-38
-3.79486e-36
-2.80471e-34
-1.14476e-33
-4.42973e-32
-7.62263e-31
-5.40543e-30
1.06002e-32
3.59179e-30
7.65923e-30
2.13247e-29
3.95598e-28
3.84793e-28
1.86491e-28
2.42171e-28
1.29115e-28
1.79344e-27
6.57121e-28
1.1716e-30
-4.99489e-29
-1.70961e-28
-1.3668e-28
-5.75801e-29
-1.41606e-29
-1.75876e-30
-1.1082e-31
-1.09134e-33
1.46616e-37
1.03699e-35
-1.16827e-98
-4.03848e-92
-1.19507e-75
-4.39845e-67
-2.00653e-61
-3.03982e-52
-3.30918e-53
2.2672e-48
-1.10862e-40
-2.02506e-39
-7.60151e-39
-3.74e-38
-1.34428e-36
-4.24958e-35
-2.68045e-33
-1.26229e-32
-2.01203e-31
1.2061e-32
9.4048e-32
5.54688e-30
8.51244e-28
5.7972e-28
1.1969e-27
2.16826e-26
2.07234e-26
9.79485e-27
1.26991e-26
6.87729e-27
1.30554e-27
1.1811e-28
-3.6794e-49
-2.26036e-29
-4.52588e-28
-4.2336e-28
-1.91434e-28
-4.95045e-29
-4.21514e-30
-8.5981e-32
-1.05743e-38
5.8338e-34
8.11075e-34
-4.48651e-96
-2.47753e-89
-3.09313e-73
-2.42823e-65
-4.63775e-60
-1.27586e-50
-1.07206e-51
6.35006e-47
-2.23864e-39
-2.96072e-38
-6.77698e-38
-4.52853e-37
-1.73564e-35
-4.23297e-34
-2.2769e-32
-1.22578e-31
-1.1975e-30
2.38355e-30
1.77415e-29
3.45295e-28
2.07009e-27
2.42069e-26
6.42428e-26
1.13942e-24
1.0723e-24
4.958e-25
6.43211e-25
3.50226e-25
2.36079e-26
1.30554e-27
1.1811e-28
0
-8.57863e-28
-1.1041e-27
-5.5704e-28
-1.5499e-28
-7.67203e-36
4.58776e-33
2.01224e-32
4.03375e-32
6.38856e-32
-1.31657e-93
-1.27833e-86
-7.03942e-71
-2.0605e-63
-1.37035e-58
-4.66287e-49
-3.05285e-50
1.64855e-45
-4.214e-38
-4.05825e-37
-5.39801e-37
-4.99855e-36
-2.05369e-34
-3.67405e-33
-1.70661e-31
-1.0569e-30
-6.80576e-30
1.53636e-28
1.0765e-27
1.97263e-26
7.65442e-26
1.35442e-24
3.30121e-24
5.73571e-23
5.3269e-23
2.41761e-23
3.14534e-23
1.72379e-23
1.11769e-24
5.885e-26
6.07009e-27
0
-1.17244e-28
-2.20973e-27
-1.35909e-27
-4.2172e-28
-7.78692e-35
1.03527e-30
1.38454e-30
2.98854e-30
5.06986e-30
-1.01898e-90
-5.40791e-84
-1.37492e-68
-1.86932e-61
-4.49974e-57
-1.44398e-47
-7.42502e-49
6.12269e-46
-7.46667e-37
-5.02414e-36
-3.98256e-36
-4.89937e-35
-2.19046e-33
-2.75884e-32
-1.12134e-30
-8.09603e-30
-3.30378e-29
9.18634e-27
6.11313e-26
1.06692e-24
3.95001e-24
1.73843e-22
1.61503e-22
2.76367e-21
2.53888e-21
1.13522e-21
1.48439e-21
8.20988e-22
5.41119e-23
2.89577e-24
3.10881e-25
5.30783e-27
-1.04516e-42
-2.4805e-27
-2.56321e-27
-9.50147e-28
7.73521e-29
7.14181e-29
9.6658e-29
2.23246e-28
4.09358e-28
-3.2324e-92
-1.8259e-81
-2.23446e-66
-1.46761e-59
-1.37188e-55
-3.6682e-46
-1.48313e-47
1.59643e-43
-1.23446e-35
-5.70134e-35
-2.81678e-35
-4.13596e-34
-2.04419e-32
-1.79785e-31
-6.43432e-30
-5.40757e-29
-1.33021e-28
5.09977e-25
3.27776e-24
5.46009e-23
1.94827e-22
3.04461e-21
7.48911e-21
1.27388e-19
1.16688e-19
5.19147e-20
6.78267e-20
3.81697e-20
2.54587e-21
1.38976e-22
1.53074e-23
2.76473e-25
2.0681e-27
3.11483e-50
-2.94056e-27
-1.62139e-27
5.12101e-27
1.33396e-26
6.8273e-27
1.68372e-26
3.2227e-26
-3.06254e-89
-4.78291e-79
-2.88745e-64
-9.23491e-58
-3.70829e-54
-7.38598e-45
-2.30352e-46
2.94382e-40
-1.82536e-34
-6.87635e-34
-1.94934e-34
-2.94578e-33
-1.59737e-31
-1.04326e-30
-3.26994e-29
-3.01289e-28
-4.33874e-28
4.0201e-23
1.73011e-22
2.64296e-21
9.09869e-21
1.36886e-19
3.79691e-19
6.66022e-17
5.43803e-17
1.40069e-17
2.38374e-17
7.52986e-18
3.26321e-19
6.49924e-21
7.36945e-22
1.40784e-23
1.11113e-25
8.08221e-28
5.98214e-43
-1.63586e-27
3.88261e-25
3.17074e-25
4.72549e-25
1.24178e-24
7.67118e-23
-2.57519e-86
-9.56499e-77
-2.78848e-62
-4.43258e-56
-9.34024e-53
-1.15552e-43
-2.55228e-45
5.67023e-39
-2.23184e-33
-1.02831e-32
-1.37348e-33
-1.8738e-32
-9.85511e-31
-5.75413e-30
-1.59288e-28
-1.30066e-27
-1.10121e-27
1.61031e-20
2.07011e-20
1.21789e-19
4.93252e-19
8.15152e-17
4.73683e-16
1.12336e-14
9.98694e-15
4.61734e-15
6.20892e-15
3.15385e-15
1.49262e-16
8.32204e-19
3.47064e-20
7.06393e-22
5.86178e-24
4.53338e-26
3.2236e-28
-6.53228e-44
6.86967e-23
2.00749e-23
3.28837e-23
3.39921e-21
2.33389e-20
-1.86587e-83
-1.67563e-74
-1.95558e-60
-1.60232e-54
-1.90242e-51
-1.56619e-42
-1.67447e-44
-3.56464e-55
-1.98536e-32
-1.52276e-31
-1.01295e-32
-1.42841e-31
-4.5498e-30
-3.32404e-29
-9.22953e-28
-3.84248e-27
-1.99588e-27
1.89174e-19
4.07628e-19
6.35713e-17
6.15914e-16
1.25602e-14
3.10185e-14
4.83958e-14
4.84961e-14
4.49493e-14
4.25909e-14
4.01148e-14
1.6227e-14
5.78749e-16
1.81312e-17
1.26937e-19
3.05506e-22
2.50384e-24
1.92597e-26
3.2236e-28
1.19515e-21
2.97568e-21
1.17907e-19
7.99683e-19
8.52773e-20
-9.63643e-32
-1.35655e-30
-6.0133e-32
-1.54263e-30
-1.89133e-29
-2.03165e-28
-7.29871e-27
-5.8849e-27
-2.00419e-27
1.9571e-34
4.64151e-16
1.10837e-14
3.59184e-14
5.04321e-14
5.27902e-14
5.25787e-14
5.39289e-14
5.60111e-14
5.11996e-14
5.04174e-14
4.95659e-14
3.3293e-14
5.67092e-15
5.08375e-17
1.35156e-20
1.17527e-22
9.64317e-25
1.92597e-26
2.07634e-18
6.81188e-18
1.81304e-17
2.41145e-18
1.72801e-21
-2.44789e-62
-2.02853e-62
-8.75045e-63
-1.55901e-61
-1.68444e-60
-8.27593e-59
-7.35688e-58
-7.1166e-57
-1.94488e-56
-2.53661e-56
-2.0483e-56
-1.1699e-56
-6.64294e-57
-3.12852e-57
-1.02867e-57
-2.33608e-58
-3.78972e-59
-4.54413e-60
-4.12765e-61
-2.89029e-62
-1.32344e-62
-3.10846e-61
-6.54677e-61
-5.14011e-61
-2.11151e-61
-1.87405e-60
-1.95478e-59
-9.71037e-58
-8.64787e-57
-8.81511e-56
-2.41285e-55
-3.1056e-55
-2.46706e-55
-1.39295e-55
-8.36985e-56
-4.15682e-56
-1.40606e-56
-3.24024e-57
-5.30132e-58
-6.39438e-59
-5.83724e-60
-4.10719e-61
-6.41406e-153
-5.92291e-147
-9.67903e-140
-1.44259e-130
-4.33021e-121
-8.84565e-112
-7.42003e-109
1.38314e-102
-1.35053e-91
-1.18708e-86
-3.51802e-75
-6.48623e-72
-2.95519e-69
-1.52268e-67
-2.47582e-63
-3.67451e-61
-8.46418e-60
-1.69467e-59
-1.26122e-59
-4.93505e-60
-2.18919e-59
-2.17658e-58
-1.09474e-56
-9.78448e-56
-1.05443e-54
-2.89465e-54
-3.67968e-54
-2.8774e-54
-1.60871e-54
-1.03663e-54
-5.4483e-55
-1.89494e-55
-4.42883e-56
-7.30675e-57
-8.86733e-58
-8.13845e-59
-5.75743e-60
-4.1003e-154
-1.28439e-147
-3.63407e-137
-3.59658e-128
-9.23317e-119
-1.29421e-109
-8.22597e-107
1.30732e-100
-9.96879e-90
-7.29701e-85
-1.11357e-80
-5.86218e-77
-1.39983e-73
-2.31451e-70
-9.53702e-68
-4.47957e-66
-6.91449e-62
-9.84691e-60
-2.22603e-58
-4.24003e-58
-2.99205e-58
-1.11546e-58
-2.51075e-58
-2.32064e-57
-1.18335e-55
-1.06338e-54
-1.2156e-53
-3.35198e-53
-4.21218e-53
-3.24454e-53
-1.79997e-53
-1.26238e-53
-7.03573e-54
-2.51325e-54
-5.95301e-55
-9.90197e-56
-1.20926e-56
-1.1163e-57
-7.94414e-59
-3.49433e-151
-1.17624e-144
-1.26234e-134
-8.75703e-126
-1.89972e-116
-1.82401e-107
-8.79074e-105
1.18918e-98
-7.09279e-88
-4.32214e-83
-5.56256e-79
-2.54139e-75
-5.36765e-72
-7.95808e-69
-2.96455e-66
-1.26837e-64
-1.86033e-60
-2.54266e-58
-5.64475e-57
-1.02367e-56
-6.85155e-57
-2.43429e-57
-2.88248e-57
-2.36448e-56
-1.22358e-54
-1.10762e-53
-1.34785e-52
-3.73945e-52
-4.64997e-52
-3.53098e-52
-1.94908e-52
-1.51165e-52
-8.9375e-53
-3.27366e-53
-7.85233e-54
-1.31661e-54
-1.61831e-55
-1.50312e-56
-1.0766e-57
-6.0336e-59
-2.38031e-148
-9.95264e-142
-4.03299e-132
-2.06555e-123
-3.76355e-114
-2.47233e-105
-9.04158e-103
1.03924e-96
-4.8571e-86
-2.46303e-81
-2.67308e-77
-1.06004e-73
-1.98014e-70
-2.63205e-67
-8.86065e-65
-3.45018e-63
-4.81335e-59
-6.31538e-57
-1.37767e-55
-2.38066e-55
-1.51181e-55
-5.12033e-56
-3.41436e-56
-2.29834e-55
-1.20719e-53
-1.10306e-52
-1.43414e-51
-4.01066e-51
-4.94085e-51
-3.702e-51
-2.04055e-51
-1.7795e-51
-1.1147e-51
-4.17874e-52
-1.01425e-52
-1.71406e-53
-2.1209e-54
-1.98281e-55
-1.43e-56
-8.07483e-58
-2.05537e-145
-7.7177e-139
-1.17687e-129
-4.66266e-121
-7.16429e-112
-3.2176e-103
-8.93543e-101
8.70903e-95
-3.1962e-84
-1.34811e-79
-1.23357e-75
-4.24658e-72
-7.01493e-69
-8.35837e-66
-2.5417e-63
-8.99879e-62
-1.19542e-57
-1.50598e-55
-3.23003e-54
-5.32325e-54
-3.20848e-54
-1.03618e-54
-4.31823e-55
-2.12935e-54
-1.13329e-52
-1.04755e-51
-1.46079e-50
-4.12636e-50
-5.04272e-50
-3.73194e-50
-2.06385e-50
-2.05798e-50
-1.36209e-50
-5.21562e-51
-1.28014e-51
-2.18042e-52
-2.71659e-53
-2.55721e-54
-1.85777e-55
-1.05746e-56
-4.76531e-58
-1.40183e-142
-5.44017e-136
-3.11212e-127
-9.92574e-119
-1.30772e-109
-4.01331e-101
-8.46996e-99
6.98592e-93
-2.01811e-82
-7.07504e-78
-5.45657e-74
-1.63081e-70
-2.38196e-67
-2.54355e-64
-6.98354e-62
-2.2458e-60
-2.84411e-56
-3.441e-54
-7.26025e-53
-1.14222e-52
-6.53646e-53
-2.01344e-53
-5.94478e-54
-1.88233e-53
-1.00929e-51
-9.45953e-51
-1.4207e-49
-4.06281e-49
-4.93269e-49
-3.60987e-49
-2.01565e-49
-2.33556e-49
-1.6269e-49
-6.3512e-50
-1.5756e-50
-2.70489e-51
-3.39419e-52
-3.21819e-53
-2.35598e-54
-1.35234e-55
-6.15073e-57
-1.17007e-139
-3.45308e-133
-7.38825e-125
-1.96178e-116
-2.28413e-107
-4.78839e-99
-7.68657e-97
5.35374e-91
-1.22089e-80
-3.55403e-76
-2.30901e-72
-5.99169e-69
-7.73641e-66
-7.40202e-63
-1.83403e-60
-5.35113e-59
-6.46864e-55
-7.51764e-53
-1.56119e-51
-2.34703e-51
-1.27565e-51
-3.749e-52
-8.80958e-53
-1.59634e-52
-8.49866e-51
-8.09707e-50
-1.31556e-48
-3.81844e-48
-4.6135e-48
-3.34308e-48
-1.90081e-48
-2.59681e-48
-1.89488e-48
-7.52925e-49
-1.88732e-49
-3.26615e-50
-4.12914e-51
-3.94474e-52
-2.91111e-53
-1.68561e-54
-7.74006e-56
-5.98876e-137
-1.95233e-130
-1.55735e-122
-3.54442e-114
-3.80951e-105
-5.45414e-97
-6.66514e-95
3.9128e-89
-7.06792e-79
-1.70593e-74
-9.32779e-71
-2.10161e-67
-2.39827e-64
-2.05538e-61
-4.59347e-59
-1.21447e-57
-1.40329e-53
-1.56689e-51
-3.20437e-50
-4.60818e-50
-2.37961e-50
-6.67433e-51
-1.3587e-51
-1.31745e-51
-6.74151e-50
-6.54716e-49
-1.15635e-47
-3.41619e-47
-4.11527e-47
-2.95712e-47
-1.73172e-47
-2.8228e-47
-2.14696e-47
-8.67123e-48
-2.196e-48
-3.83194e-49
-4.88236e-50
-4.7013e-51
-3.49842e-52
-2.04392e-53
-9.47754e-55
-4.19263e-134
-9.70328e-128
-2.8757e-120
-5.76491e-112
-6.05338e-103
-5.91824e-95
-5.51068e-93
2.72265e-87
-3.91214e-77
-7.81192e-73
-3.5894e-69
-7.02147e-66
-7.07956e-63
-5.43303e-60
-1.09458e-57
-2.61886e-56
-2.89684e-52
-3.10835e-50
-6.2629e-49
-8.62537e-49
-4.23303e-49
-1.13344e-49
-2.10421e-50
-1.08945e-50
-5.01739e-49
-4.98192e-48
-9.6159e-47
-2.90061e-46
-3.49131e-46
-2.49199e-46
-1.52612e-46
-2.99255e-46
-2.36076e-46
-9.68195e-47
-2.4775e-47
-4.36065e-48
-5.60163e-49
-5.43845e-50
-4.08182e-51
-2.40671e-52
-1.12709e-53
-1.77785e-131
-4.17077e-125
-4.57421e-118
-8.31434e-110
-9.14302e-101
-6.10426e-93
-4.33484e-91
1.80157e-85
-2.06997e-75
-3.40816e-71
-1.31262e-67
-2.22912e-64
-1.98513e-61
-1.36367e-58
-2.47524e-56
-5.35129e-55
-5.67598e-51
-5.85407e-49
-1.16267e-47
-1.53531e-47
-7.1628e-48
-1.83144e-48
-3.1869e-49
-9.44606e-50
-3.48802e-48
-3.55244e-47
-7.53755e-46
-2.32969e-45
-2.80866e-45
-1.99515e-45
-1.30372e-45
-3.08557e-45
-2.51338e-45
-1.04605e-45
-2.70539e-46
-4.80521e-47
-6.22598e-48
-6.09646e-49
-4.61607e-50
-2.74709e-51
-1.29937e-52
-1.02048e-128
-1.52126e-122
-6.13403e-116
-1.04802e-107
-1.30944e-98
-5.9713e-91
-3.23684e-89
1.13321e-83
-1.0481e-73
-1.41553e-69
-4.55048e-66
-6.70735e-63
-5.27358e-60
-3.24135e-57
-5.29751e-55
-1.0332e-53
-1.05277e-49
-1.0439e-47
-2.04466e-46
-2.59209e-46
-1.14984e-46
-2.80812e-47
-4.64247e-48
-8.96761e-49
-2.25399e-47
-2.36262e-46
-5.54705e-45
-1.76358e-44
-2.13549e-44
-1.51302e-44
-1.08271e-44
-3.08532e-44
-2.58503e-44
-1.09153e-44
-2.85463e-45
-5.11927e-46
-6.69307e-47
-6.61199e-48
-5.05138e-49
-3.03429e-50
-1.4495e-51
-3.19655e-126
-4.62056e-120
-6.73602e-114
-1.14312e-105
-1.7738e-96
-5.52762e-89
-2.28893e-87
6.78324e-82
-5.09224e-72
-5.59729e-68
-1.4915e-64
-1.90761e-61
-1.32352e-58
-7.27532e-56
-1.06992e-53
-1.8792e-52
-1.84316e-48
-1.75753e-46
-3.39655e-45
-4.13945e-45
-1.74612e-45
-4.07376e-46
-6.43874e-47
-9.38247e-48
-1.34699e-46
-1.45776e-45
-3.8154e-44
-1.25322e-43
-1.52899e-43
-1.08321e-43
-8.76975e-44
-2.98295e-43
-2.56293e-43
-1.09807e-43
-2.9058e-44
-5.26458e-45
-6.94862e-46
-6.92717e-47
-5.34016e-48
-3.23762e-49
-1.56177e-50
-1.24657e-123
-1.17264e-117
-5.81588e-112
-1.08905e-103
-2.26659e-94
-4.8318e-87
-1.52928e-85
3.87877e-80
-2.38713e-70
-2.11091e-66
-4.60931e-63
-5.11304e-60
-3.12863e-57
-1.53729e-54
-2.03288e-52
-3.20921e-51
-3.03675e-47
-2.78528e-45
-5.3137e-44
-6.23437e-44
-2.50062e-44
-5.57372e-45
-8.44426e-46
-1.04115e-46
-7.40745e-46
-8.29393e-45
-2.44046e-43
-8.322e-43
-1.02671e-42
-7.29424e-43
-6.94849e-43
-2.78028e-42
-2.44439e-42
-1.06312e-42
-2.84902e-43
-5.21823e-44
-6.95623e-45
-6.99963e-46
-5.44496e-47
-3.33133e-48
-1.6222e-49
-6.13489e-121
-2.65701e-115
-3.7082e-110
-9.74528e-102
-2.72369e-92
-3.98103e-85
-9.63187e-84
2.13594e-78
-1.08934e-68
-7.62659e-65
-1.33921e-61
-1.28755e-58
-6.94348e-56
-3.04797e-53
-3.62165e-51
-5.12792e-50
-4.69305e-46
-4.14148e-44
-7.80372e-43
-8.82751e-43
-3.36597e-43
-7.16712e-44
-1.04163e-44
-1.16292e-45
-3.73556e-45
-4.32067e-44
-1.44332e-42
-5.13742e-42
-6.43603e-42
-4.60109e-42
-5.39382e-42
-2.49101e-41
-2.23824e-41
-9.88928e-42
-2.68639e-42
-4.97786e-43
-6.70507e-44
-6.81107e-45