/*--------------------------------*- C++ -*----------------------------------*\
| =========                 |                                                 |
| \\      /  F ield         | OpenFOAM: The Open Source CFD Toolbox           |
|  \\    /   O peration     | Version:  v2012                                 |
|   \\  /    A nd           | Website:  www.openfoam.com                      |
|    \\/     M anipulation  |                                                 |
\*---------------------------------------------------------------------------*/
FoamFile
{
    version     2.0;
    format      ascii;
    class       surfaceScalarField;
    location    "0.25";
    object      phi;
}
// * * * * * * * * * * * * * * * * * * * * * * * * * * * * * * * * * * * * * //

dimensions      [0 3 -1 0 0 0 0];
oriented        oriented;


internalField   nonuniform List<scalar> 
8162
(
1.51143e-11
-2.97205e-10
-3.52373e-16
1.8661e-11
-3.52466e-10
-2.14306e-16
2.28113e-11
-4.14998e-10
-3.88773e-17
2.76217e-11
-4.85292e-10
7.13075e-17
3.31462e-11
-5.63946e-10
1.94522e-16
3.94333e-11
-6.51416e-10
3.22204e-16
4.65231e-11
-7.48216e-10
4.34395e-16
5.44455e-11
-8.54769e-10
6.10258e-16
6.32151e-11
-9.71344e-10
8.10373e-16
7.28304e-11
-1.09838e-09
1.00636e-15
8.32667e-11
-1.23585e-09
1.19058e-15
9.44764e-11
-1.3839e-09
1.34193e-15
1.06385e-10
-1.54242e-09
1.41171e-15
1.18886e-10
-1.71108e-09
1.42547e-15
1.31843e-10
-1.88943e-09
1.31591e-15
1.45086e-10
-2.07676e-09
1.16248e-15
1.58407e-10
-2.27222e-09
9.23975e-16
1.71571e-10
-2.47455e-09
6.62176e-16
1.8431e-10
-2.68238e-09
2.62704e-16
-2.89392e-09
-1.20212e-16
1.04265e-11
-2.08481e-10
-6.25887e-17
1.31539e-11
-2.51366e-10
-3.70837e-16
1.64065e-11
-3.00459e-10
-2.83144e-16
2.0246e-11
-3.56306e-10
-1.16843e-16
2.47339e-11
-4.19487e-10
-1.11625e-16
2.993e-11
-4.90489e-10
-8.13834e-17
3.58911e-11
-5.69907e-10
-4.33087e-17
4.26669e-11
-6.58192e-10
9.52815e-17
5.02982e-11
-7.55845e-10
1.72316e-16
5.88141e-11
-8.63283e-10
3.714e-16
6.82272e-11
-9.80753e-10
5.44153e-16
7.85322e-11
-1.10868e-09
7.64966e-16
8.96995e-11
-1.24701e-09
9.39372e-16
1.01674e-10
-1.39586e-09
1.12466e-15
1.14371e-10
-1.5551e-09
1.20213e-15
1.27676e-10
-1.72437e-09
1.25647e-15
1.41437e-10
-1.90318e-09
1.16587e-15
1.5547e-10
-2.09078e-09
1.05689e-15
1.69553e-10
-2.2863e-09
8.33483e-16
1.83432e-10
-2.48843e-09
6.13122e-16
1.96824e-10
-2.69577e-09
2.5816e-16
-2.90651e-09
-5.10279e-17
8.42823e-17
-6.5855e-15
1.66036e-18
1.56317e-15
-1.2231e-13
4.53677e-18
7.65248e-15
-5.41981e-13
-4.44085e-17
2.4494e-14
-1.45683e-12
-4.42129e-17
6.77356e-14
-3.06542e-12
7.72932e-16
1.20518e-13
-5.57688e-12
-2.07662e-15
2.20588e-13
-9.21348e-12
-1.54702e-15
3.7203e-13
-1.42182e-11
-1.77968e-15
6.04152e-13
-2.08578e-11
-1.0838e-15
-2.94269e-11
1.42401e-15
2.85837e-12
-6.99784e-11
9.59804e-16
3.89173e-12
-8.96782e-11
-6.48438e-16
5.20471e-12
-1.13164e-10
-3.50666e-16
6.84308e-12
-1.40877e-10
-4.99171e-16
8.86902e-12
-1.73302e-10
4.09821e-16
1.13241e-11
-2.10942e-10
-5.43003e-16
1.42818e-11
-2.54326e-10
-3.06197e-16
1.78056e-11
-3.03984e-10
-1.16002e-16
2.19606e-11
-3.60462e-10
-1.17129e-16
2.68123e-11
-4.2434e-10
-1.19861e-16
3.24238e-11
-4.96101e-10
-1.11945e-16
3.88539e-11
-5.76338e-10
-4.6854e-17
4.61539e-11
-6.65491e-10
4.72879e-17
5.43646e-11
-7.64055e-10
1.39119e-16
6.35143e-11
-8.7243e-10
2.88739e-16
7.36129e-11
-9.90847e-10
4.67166e-16
8.4651e-11
-1.11971e-09
6.42261e-16
9.65928e-11
-1.25894e-09
8.36636e-16
1.09375e-10
-1.40864e-09
9.9889e-16
1.22904e-10
-1.56862e-09
1.11443e-15
1.37052e-10
-1.73851e-09
1.15922e-15
1.51654e-10
-1.91777e-09
1.11069e-15
1.66511e-10
-2.10563e-09
9.91396e-16
1.81383e-10
-2.30117e-09
8.00523e-16
1.96e-10
-2.50304e-09
5.65925e-16
2.10059e-10
-2.70982e-09
2.59294e-16
-2.91968e-09
-4.34822e-17
7.53309e-17
-6.6702e-15
-3.24112e-18
1.75341e-15
-1.23813e-13
2.10384e-17
8.0917e-15
-5.48761e-13
-5.09425e-17
2.37479e-14
-1.47508e-12
-3.18038e-16
6.7554e-14
-3.10114e-12
9.72927e-16
1.29955e-13
-5.6412e-12
-2.31788e-16
2.40146e-13
-9.32275e-12
8.25751e-17
4.07194e-13
-1.43918e-11
-7.62805e-16
6.58175e-13
-2.11147e-11
-7.39584e-16
1.03383e-12
-2.97915e-11
1.35777e-15
1.54029e-12
-4.07345e-11
5.75822e-16
2.21584e-12
-5.42952e-11
5.63246e-16
3.10355e-12
-7.08549e-11
1.26526e-15
4.22973e-12
-9.08073e-11
-2.68586e-16
5.65976e-12
-1.14594e-10
3.4476e-17
7.43869e-12
-1.42659e-10
-4.13648e-16
9.63963e-12
-1.75497e-10
6.3648e-16
1.23007e-11
-2.13612e-10
-1.02708e-15
1.55061e-11
-2.57538e-10
-7.20127e-16
1.93219e-11
-3.07806e-10
-6.10603e-16
2.38169e-11
-3.64962e-10
-5.42218e-16
2.90606e-11
-4.29588e-10
-4.75158e-16
3.51188e-11
-5.02162e-10
-3.4786e-16
4.20524e-11
-5.83274e-10
-2.65846e-16
4.9914e-11
-6.73354e-10
-1.11883e-16
5.87445e-11
-7.72886e-10
-3.05792e-17
6.85704e-11
-8.82255e-10
1.5946e-16
7.93989e-11
-1.00167e-09
3.15724e-16
9.12156e-11
-1.13152e-09
5.24095e-16
1.03978e-10
-1.2717e-09
7.02672e-16
1.17613e-10
-1.42227e-09
9.02445e-16
1.32018e-10
-1.58302e-09
1.00897e-15
1.4705e-10
-1.75353e-09
1.0913e-15
1.62531e-10
-1.93325e-09
1.03204e-15
1.78244e-10
-2.12134e-09
9.43604e-16
1.93933e-10
-2.31685e-09
7.32359e-16
2.09308e-10
-2.51841e-09
5.24279e-16
2.24048e-10
-2.72456e-09
2.09922e-16
-2.93343e-09
-5.22776e-17
7.1585e-17
-6.75729e-15
-2.62729e-18
1.81269e-15
-1.25381e-13
2.01119e-17
8.61595e-15
-5.55604e-13
-4.67862e-18
2.98609e-14
-1.49314e-12
3.81149e-16
7.07411e-14
-3.14167e-12
4.54002e-17
1.40919e-13
-5.71608e-12
-5.57615e-16
2.65928e-13
-9.44518e-12
2.86386e-16
4.49757e-13
-1.45817e-11
-7.28823e-16
7.23144e-13
-2.13946e-11
-7.62834e-16
1.12936e-12
-3.01876e-11
1.15191e-15
1.67729e-12
-4.12788e-11
4.67628e-16
2.41042e-12
-5.50232e-11
5.81577e-16
3.37109e-12
-7.18087e-11
8.43099e-16
4.59799e-12
-9.2034e-11
3.26739e-17
6.15449e-12
-1.16147e-10
4.07242e-16
8.08538e-12
-1.44596e-10
-6.57252e-16
1.0475e-11
-1.7788e-10
6.0686e-16
1.33605e-11
-2.16509e-10
-1.28407e-15
1.6834e-11
-2.61019e-10
-9.3738e-16
2.09652e-11
-3.11943e-10
-7.99223e-16
2.58272e-11
-3.6983e-10
-7.38826e-16
3.14929e-11
-4.35259e-10
-6.30367e-16
3.80314e-11
-5.08705e-10
-4.84583e-16
4.55055e-11
-5.90751e-10
-3.50588e-16
5.39687e-11
-6.81819e-10
-2.1625e-16
6.34617e-11
-7.8238e-10
-8.78808e-17
7.40091e-11
-8.92802e-10
8.17266e-17
8.56142e-11
-1.01328e-09
2.68979e-16
9.82571e-11
-1.14416e-09
4.45914e-16
1.11887e-10
-1.28532e-09
6.4883e-16
1.26423e-10
-1.43679e-09
8.19868e-16
1.41748e-10
-1.59834e-09
9.54872e-16
1.57706e-10
-1.76948e-09
1.01316e-15
1.74104e-10
-1.94963e-09
9.8335e-16
1.90706e-10
-2.13793e-09
8.69789e-16
2.07238e-10
-2.33338e-09
6.82681e-16
2.23391e-10
-2.53456e-09
4.49785e-16
2.38824e-10
-2.73999e-09
1.77756e-16
2.53166e-10
-2.94778e-09
-7.84122e-17
-3.15508e-09
-3.19302e-16
8.07541e-17
-6.85632e-15
-3.20054e-18
2.08253e-15
-1.27174e-13
2.64879e-17
9.90788e-15
-5.63437e-13
3.69649e-18
3.0155e-14
-1.5147e-12
-1.60114e-16
7.13324e-14
-3.18622e-12
-4.15585e-16
1.51656e-13
-5.79366e-12
3.2379e-16
2.86729e-13
-9.57405e-12
7.37047e-16
4.90186e-13
-1.47847e-11
8.34536e-17
7.90984e-13
-2.1696e-11
-7.04833e-17
1.23215e-12
-3.0615e-11
1.60594e-15
1.82602e-12
-4.18681e-11
5.72194e-16
2.62058e-12
-5.58119e-11
6.81473e-16
3.66204e-12
-7.28423e-11
9.44332e-16
4.9984e-12
-9.33639e-11
7.82566e-16
6.69216e-12
-1.1783e-10
1.20358e-15
8.78875e-12
-1.46697e-10
-3.47479e-16
1.13829e-11
-1.80465e-10
1.05702e-15
1.45114e-11
-2.19648e-10
-1.16748e-15
1.8275e-11
-2.64789e-10
-7.01962e-16
2.27472e-11
-3.16421e-10
-6.16456e-16
2.80052e-11
-3.75093e-10
-5.9128e-16
3.41253e-11
-4.41384e-10
-6.16258e-16
4.11799e-11
-5.15763e-10
-4.91373e-16
4.92338e-11
-5.98808e-10
-4.16663e-16
5.83412e-11
-6.90928e-10
-2.54788e-16
6.8542e-11
-7.92582e-10
-1.47943e-16
7.98585e-11
-9.04119e-10
5.65339e-17
9.22895e-11
-1.02571e-09
2.12837e-16
1.05809e-10
-1.15768e-09
4.174e-16
1.20357e-10
-1.29987e-09
5.86933e-16
1.35841e-10
-1.45227e-09
7.83993e-16
1.52133e-10
-1.61462e-09
8.86985e-16
1.6906e-10
-1.7864e-09
9.70053e-16
1.86412e-10
-1.96698e-09
9.07392e-16
2.03936e-10
-2.15545e-09
8.16174e-16
2.21337e-10
-2.35077e-09
5.92887e-16
2.38285e-10
-2.55151e-09
3.8635e-16
2.5442e-10
-2.75613e-09
9.36355e-17
2.69351e-10
-2.96271e-09
-1.07595e-16
-3.16841e-09
-3.13446e-16
8.00871e-17
-6.96274e-15
-4.04028e-18
2.32572e-15
-1.29107e-13
3.60202e-17
1.04845e-14
-5.71885e-13
-3.30877e-17
3.30132e-14
-1.53705e-12
2.40118e-17
8.15546e-14
-3.23363e-12
1.26488e-16
1.66275e-13
-5.8825e-12
-4.92784e-16
3.07898e-13
-9.72094e-12
-6.22764e-16
5.35855e-13
-1.50097e-11
3.478e-16
8.67822e-13
-2.20258e-11
2.6693e-16
1.34309e-12
-3.10806e-11
1.16501e-15
1.99042e-12
-4.25076e-11
9.30851e-16
2.851e-12
-5.66697e-11
3.38757e-16
3.97881e-12
-7.39672e-11
3.76887e-16
5.43278e-12
-9.48101e-11
8.87552e-16
7.27318e-12
-1.1966e-10
1.19113e-15
9.55125e-12
-1.48979e-10
-3.5028e-16
1.23684e-11
-1.83269e-10
1.31313e-15
1.57604e-11
-2.23053e-10
-1.34418e-15
1.98379e-11
-2.68873e-10
-8.87804e-16
2.46786e-11
-3.21267e-10
-7.3373e-16
3.03641e-11
-3.80784e-10
-6.63335e-16
3.69738e-11
-4.47999e-10
-6.45703e-16
4.45835e-11
-5.23377e-10
-5.09452e-16
5.32595e-11
-6.07487e-10
-4.01972e-16
6.30566e-11
-7.00728e-10
-2.79518e-16
7.40135e-11
-8.0354e-10
-1.36712e-16
8.61496e-11
-9.16255e-10
3.9854e-17
9.94583e-11
-1.03901e-09
2.2977e-16
1.13906e-10
-1.17212e-09
4.02691e-16
1.29424e-10
-1.31538e-09
5.9434e-16
1.45908e-10
-1.46875e-09
7.50726e-16
1.63213e-10
-1.63192e-09
8.7047e-16
1.81153e-10
-1.80434e-09
9.09517e-16
1.99497e-10
-1.98532e-09
8.63096e-16
2.17974e-10
-2.17392e-09
7.26905e-16
2.36267e-10
-2.36906e-09
5.20128e-16
2.54026e-10
-2.56926e-09
2.76292e-16
2.7087e-10
-2.77297e-09
2.18951e-17
2.86388e-10
-2.97823e-09
-1.83581e-16
3.00159e-10
-3.18218e-09
-3.0946e-16
-3.38414e-09
-5.8494e-16
9.84959e-17
-7.07127e-15
-1.17311e-18
2.3374e-15
-1.31201e-13
1.68087e-17
1.12737e-14
-5.81202e-13
-4.32676e-17
3.44841e-14
-1.56214e-12
-2.24159e-16
8.59625e-14
-3.2856e-12
-6.8032e-17
1.80605e-13
-5.97607e-12
1.23069e-16
3.32774e-13
-9.87651e-12
-3.917e-16
5.8473e-13
-1.52504e-11
1.3299e-15
9.51028e-13
-2.23821e-11
1.1943e-15
1.46145e-12
-3.1586e-11
6.49417e-16
2.165e-12
-4.32017e-11
1.07273e-15
3.09919e-12
-5.76028e-11
1.38679e-16
4.32284e-12
-7.51914e-11
-2.62244e-17
5.90373e-12
-9.63836e-11
8.59369e-16
7.9024e-12
-1.21649e-10
1.15565e-15
1.038e-11
-1.51455e-10
2.35481e-16
1.34395e-11
-1.86311e-10
1.9617e-15
1.71168e-11
-2.26742e-10
-1.22974e-15
2.15342e-11
-2.73295e-10
-5.51092e-16
2.67733e-11
-3.26509e-10
-3.4603e-16
3.29199e-11
-3.86933e-10
-2.78999e-16
4.0057e-11
-4.5514e-10
-4.04007e-16
4.82631e-11
-5.31586e-10
-3.20344e-16
5.76065e-11
-6.16833e-10
-3.11924e-16
6.81417e-11
-7.11265e-10
-1.98373e-16
7.99061e-11
-8.15305e-10
-1.03211e-16
9.29151e-11
-9.29263e-10
9.2291e-17
1.07156e-10
-1.05325e-09
2.40731e-16
1.22588e-10
-1.18755e-09
4.38559e-16
1.3913e-10
-1.33192e-09
5.845e-16
1.56664e-10
-1.48628e-09
7.60771e-16
1.75031e-10
-1.65028e-09
8.2998e-16
1.94027e-10
-1.82332e-09
8.84766e-16
2.13402e-10
-2.00468e-09
7.85182e-16
2.32862e-10
-2.19337e-09
6.63604e-16
2.5207e-10
-2.38827e-09
4.03597e-16
2.70653e-10
-2.58785e-09
1.85352e-16
2.88209e-10
-2.79053e-09
-9.7005e-17
3.04308e-10
-2.99434e-09
-2.42903e-16
3.18508e-10
-3.19638e-09
-3.80703e-16
-3.396e-09
-5.4434e-16
1.1972e-16
-7.20198e-15
-2.91928e-18
2.58833e-15
-1.33455e-13
2.52786e-17
1.27887e-14
-5.91163e-13
3.42665e-17
3.87127e-14
-1.58893e-12
-1.0424e-16
9.38864e-14
-3.3426e-12
-2.26571e-16
1.97489e-13
-6.08027e-12
-7.48165e-17
3.6446e-13
-1.00479e-11
-5.13039e-16
6.39056e-13
-1.55143e-11
1.27016e-15
1.04347e-12
-2.27703e-11
1.90784e-15
1.59314e-12
-3.2138e-11
-2.243e-16
2.35138e-12
-4.39626e-11
-3.11099e-16
3.36826e-12
-5.86211e-11
-1.83096e-16
4.69837e-12
-7.65243e-11
-3.16442e-16
6.41701e-12
-9.80958e-11
7.42168e-16
8.58755e-12
-1.23811e-10
9.24817e-16
1.12813e-11
-1.54145e-10
5.20486e-16
1.46029e-11
-1.89611e-10
2.27894e-15
1.85904e-11
-2.30742e-10
-1.29179e-15
2.33756e-11
-2.78085e-10
-6.52219e-16
2.90453e-11
-3.32182e-10
-4.1315e-16
3.56894e-11
-3.9358e-10
-3.27754e-16
4.33944e-11
-4.62848e-10
-4.08846e-16
5.22419e-11
-5.40436e-10
-3.06312e-16
6.2301e-11
-6.26895e-10
-2.51515e-16
7.36263e-11
-7.22591e-10
-1.68677e-16
8.62526e-11
-8.27932e-10
-3.4849e-17
1.00191e-10
-9.432e-10
1.25993e-16
1.15422e-10
-1.06848e-09
3.07331e-16
1.31894e-10
-1.20402e-09
4.67403e-16
1.49516e-10
-1.34953e-09
6.32672e-16
1.68154e-10
-1.50491e-09
7.56443e-16
1.87633e-10
-1.66975e-09
8.36551e-16
2.07729e-10
-1.84341e-09
8.31646e-16
2.28171e-10
-2.02512e-09
7.42982e-16
2.48644e-10
-2.21384e-09
5.60591e-16
2.68787e-10
-2.40841e-09
3.1567e-16
2.88205e-10
-2.60727e-09
4.90308e-17
3.06473e-10
-2.8088e-09
-1.88607e-16
3.23141e-10
-3.01101e-09
-3.45096e-16
3.3775e-10
-3.21099e-09
-4.14931e-16
-3.4081e-09
-5.90281e-16
1.54913e-16
-7.33517e-15
1.99094e-18
2.28605e-15
-1.3597e-13
-4.6235e-17
1.33416e-14
-6.01873e-13
4.65487e-17
4.13946e-14
-1.61768e-12
-8.27706e-17
1.01441e-13
-3.40288e-12
-3.35771e-17
2.16164e-13
-6.19079e-12
5.01977e-16
3.99869e-13
-1.02319e-11
-2.3755e-17
6.97271e-13
-1.58015e-11
1.20899e-15
1.13863e-12
-2.31958e-11
1.8569e-15
1.73118e-12
-3.27425e-11
-1.33696e-15
2.55377e-12
-4.4793e-11
-9.57102e-16
3.66169e-12
-5.97304e-11
-2.15073e-16
5.10733e-12
-7.79756e-11
-6.44265e-16
6.97611e-12
-9.99591e-11
6.11006e-16
9.3346e-12
-1.26163e-10
8.42715e-16
1.22624e-11
-1.57067e-10
7.25891e-16
1.58682e-11
-1.93194e-10
2.58896e-15
2.01921e-11
-2.35078e-10
-1.31294e-15
2.53751e-11
-2.83273e-10
-5.98687e-16
3.15099e-11
-3.38319e-10
-2.66594e-16
3.86908e-11
-4.00761e-10
-9.55492e-17
4.70076e-11
-4.71167e-10
-2.29298e-16
5.65444e-11
-5.49974e-10
-1.22333e-16
6.73713e-11
-6.37722e-10
-1.32401e-16
7.95418e-11
-7.34762e-10
-4.22826e-17
9.3088e-11
-8.41478e-10
4.75502e-17
1.08015e-10
-9.58126e-10
2.27673e-16
1.24296e-10
-1.08476e-09
3.61051e-16
1.41869e-10
-1.22159e-09
5.44614e-16
1.60628e-10
-1.36828e-09
6.51623e-16
1.80425e-10
-1.5247e-09
7.92125e-16
2.01066e-10
-1.69039e-09
8.07183e-16
2.22306e-10
-1.86465e-09
8.1636e-16
2.43851e-10
-2.04666e-09
6.61082e-16
2.65364e-10
-2.23535e-09
4.94598e-16
2.8646e-10
-2.4295e-09
1.8551e-16
3.0672e-10
-2.62753e-09
-4.94498e-17
3.25697e-10
-2.82778e-09
-3.22419e-16
3.42919e-10
-3.02824e-09
-4.06718e-16
3.5791e-10
-3.22599e-09
-4.86709e-16
-3.42039e-09
-6.15851e-16
1.36561e-16
-7.48325e-15
-1.78454e-18
3.14995e-15
-1.38596e-13
4.56182e-17
1.45125e-14
-6.13877e-13
-7.51297e-17
4.56425e-14
-1.65019e-12
-1.66084e-16
1.10472e-13
-3.47093e-12
-3.90694e-16
2.36994e-13
-6.31405e-12
3.78864e-16
4.37197e-13
-1.04364e-11
-4.73451e-16
7.59026e-13
-1.61183e-11
6.39413e-16
1.24179e-12
-2.36611e-11
2.03707e-15
1.88404e-12
-3.34022e-11
-1.98535e-15
2.77859e-12
-4.56988e-11
-1.36764e-15
3.9835e-12
-6.09398e-11
-5.80955e-16
5.55459e-12
-7.95564e-11
-1.11499e-15
7.58816e-12
-1.01987e-10
6.73738e-16
1.01517e-11
-1.28719e-10
8.10394e-16
1.33325e-11
-1.60242e-10
7.51739e-16
1.72457e-11
-1.97083e-10
2.65512e-15
2.19342e-11
-2.39781e-10
-1.48092e-15
2.75486e-11
-2.88893e-10
-6.81378e-16
3.41863e-11
-3.44959e-10
-3.07513e-16
4.19464e-11
-4.08522e-10
-1.45732e-16
5.09217e-11
-4.80144e-10
-2.38847e-16
6.11992e-11
-5.60252e-10
-1.13493e-16
7.28491e-11
-6.49373e-10
-6.00605e-17
8.59235e-11
-7.47837e-10
1.26486e-17
1.00451e-10
-8.56004e-10
1.55119e-16
1.1643e-10
-9.74103e-10
3.01265e-16
1.33824e-10
-1.10215e-09
4.70425e-16
1.5256e-10
-1.24032e-09
6.07524e-16
1.72517e-10
-1.38824e-09
7.30656e-16
1.93528e-10
-1.54571e-09
8.04738e-16
2.15381e-10
-1.71223e-09
8.29064e-16
2.37808e-10
-1.88707e-09
7.65995e-16
2.60492e-10
-2.06934e-09
6.25281e-16
2.8307e-10
-2.25792e-09
3.88365e-16
3.05134e-10
-2.45157e-09
1.02493e-16
3.26239e-10
-2.64864e-09
-1.87856e-16
3.45916e-10
-2.84746e-09
-4.05844e-16
3.63673e-10
-3.046e-09
-5.07171e-16
3.79015e-10
-3.24133e-09
-5.06827e-16
-3.43283e-09
-6.73517e-16
1.66286e-16
-7.63524e-15
2.29411e-18
2.94124e-15
-1.41504e-13
-1.62433e-17
1.46876e-14
-6.26655e-13
-1.22429e-16
4.9803e-14
-1.68425e-12
1.29959e-16
1.19786e-13
-3.54265e-12
-2.08094e-16
2.58183e-13
-6.44583e-12
7.79139e-16
4.76985e-13
-1.06563e-11
-1.04047e-16
8.27662e-13
-1.64607e-11
1.01182e-15
1.35469e-12
-2.41656e-11
2.61648e-15
2.05431e-12
-3.41175e-11
-1.75391e-15
3.02947e-12
-4.66817e-11
-9.86883e-16
4.33905e-12
-6.22536e-11
-5.43638e-16
6.04544e-12
-8.12751e-11
-1.41011e-15
8.25743e-12
-1.04191e-10
8.14496e-16
1.10438e-11
-1.31498e-10
9.06407e-16
1.44997e-11
-1.63691e-10
8.62682e-16
1.87469e-11
-2.01304e-10
2.83694e-15
2.38308e-11
-2.44882e-10
-1.71344e-15
2.9911e-11
-2.94981e-10
-9.6711e-16
3.70918e-11
-3.52143e-10
-4.92083e-16
4.54767e-11
-4.16908e-10
-1.72205e-16
5.51616e-11
-4.89831e-10
-2.29653e-16
6.62351e-11
-5.71326e-10
-2.73117e-17
7.87676e-11
-6.61905e-10
1.91682e-17
9.28087e-11
-7.61876e-10
1.42542e-16
1.08382e-10
-8.71575e-10
2.64181e-16
1.25479e-10
-9.91196e-10
4.44651e-16
1.44053e-10
-1.12072e-09
5.6171e-16
1.64016e-10
-1.26027e-09
7.2217e-16
1.85232e-10
-1.40944e-09
7.72069e-16
2.07516e-10
-1.56798e-09
8.61178e-16
2.30631e-10
-1.73534e-09
8.07088e-16
2.54287e-10
-1.91072e-09
7.62357e-16
2.78143e-10
-2.09319e-09
5.464e-16
3.0181e-10
-2.28158e-09
3.35446e-16
3.24853e-10
-2.47461e-09
-2.05462e-17
3.46802e-10
-2.67059e-09
-2.66455e-16
3.67166e-10
-2.86783e-09
-5.26817e-16
3.85432e-10
-3.06427e-09
-5.45794e-16
4.01088e-10
-3.25699e-09
-5.65203e-16
-3.44538e-09
-6.71275e-16
1.87927e-16
-7.81613e-15
1.34294e-21
3.26905e-15
-1.44684e-13
-1.26549e-17
1.66463e-14
-6.40805e-13
-8.91111e-17
5.63047e-14
-1.72256e-12
1.54486e-16
1.30606e-13
-3.62324e-12
-7.52218e-16
2.81649e-13
-6.59242e-12
5.41422e-16
5.21554e-13
-1.08977e-11
-1.59977e-16
9.05157e-13
-1.68313e-11
1.57777e-15
1.47705e-12
-2.47125e-11
2.91126e-15
2.2355e-12
-3.4896e-11
-2.31254e-15
3.3e-12
-4.77514e-11
-6.67835e-16
4.72439e-12
-6.36858e-11
-9.51112e-16
6.58044e-12
-8.3147e-11
-1.81289e-15
8.989e-12
-1.0659e-10
1.07467e-15
1.20189e-11
-1.3452e-10
1.04101e-15
1.57739e-11
-1.67438e-10
1.04209e-15
2.03834e-11
-2.05886e-10
3.09558e-15
2.58961e-11
-2.50411e-10
-1.71489e-15
3.24823e-11
-3.01574e-10
-8.82778e-16
4.0251e-11
-3.59915e-10
-3.92093e-16
4.931e-11
-4.25968e-10
-1.27386e-16
5.97586e-11
-5.00281e-10
-1.75518e-16
7.16871e-11
-5.83254e-10
1.17232e-17
8.51652e-11
-6.75383e-10
1.14261e-16
1.00239e-10
-7.76949e-10
2.16193e-16
1.16928e-10
-8.8826e-10
4.02593e-16
1.35212e-10
-1.00948e-09
5.50842e-16
1.55035e-10
-1.14053e-09
7.09211e-16
1.76293e-10
-1.28152e-09
8.12935e-16
1.98832e-10
-1.43198e-09
8.78119e-16
2.22444e-10
-1.59159e-09
8.86302e-16
2.46872e-10
-1.75976e-09
8.45303e-16
2.718e-10
-1.93564e-09
7.18113e-16
2.96859e-10
-2.11824e-09
5.28042e-16
3.21634e-10
-2.30635e-09
2.40589e-16
3.45663e-10
-2.49864e-09
-7.69726e-17
3.68451e-10
-2.69338e-09
-3.84294e-16
3.89483e-10
-2.88887e-09
-5.7634e-16
4.08226e-10
-3.08302e-09
-6.23646e-16
4.24153e-10
-3.27292e-09
-5.53615e-16
-3.45798e-09
-7.10124e-16
2.08531e-16
-8.00046e-15
3.39927e-18
3.155e-15
-1.48157e-13
-6.14985e-17
1.68589e-14
-6.55815e-13
-1.52019e-16
6.13606e-14
-1.76241e-12
5.53284e-16
1.41144e-13
-3.70831e-12
-6.29504e-16
3.07557e-13
-6.74934e-12
1.14343e-15
5.74271e-13
-1.11596e-11
5.98543e-16
9.86022e-13
-1.72375e-11
7.07035e-16
1.606e-12
-2.53123e-11
2.33596e-15
2.43617e-12
-3.57471e-11
-2.39818e-15
3.59729e-12
-4.8919e-11
-8.20058e-16
5.14878e-12
-6.52459e-11
-1.06208e-15
7.16765e-12
-8.51849e-11
-2.16045e-15
9.78939e-12
-1.092e-10
1.29902e-15
1.30842e-11
-1.37805e-10
1.22617e-15
1.71653e-11
-1.71509e-10
1.33648e-15
2.21689e-11
-2.10858e-10
3.42281e-15
2.81475e-11
-2.56407e-10
-1.78472e-15
3.52808e-11
-3.08716e-10
-9.8697e-16
4.36847e-11
-3.68322e-10
-4.45907e-16
5.34713e-11
-4.35756e-10
-8.56704e-17
6.47427e-11
-5.11554e-10
-1.59188e-16
7.75898e-11
-5.961e-10
7.90533e-17
9.20813e-11
-6.89872e-10
1.7528e-16
1.0826e-10
-7.93124e-10
3.49804e-16
1.26136e-10
-9.06131e-10
5.28408e-16
1.45682e-10
-1.02902e-09
7.27556e-16
1.66825e-10
-1.16167e-09
8.27571e-16
1.89447e-10
-1.30414e-09
9.57555e-16
2.13373e-10
-1.45589e-09
9.34884e-16
2.38373e-10
-1.61658e-09
9.61286e-16
2.64164e-10
-1.78555e-09
8.30756e-16
2.90403e-10
-1.96187e-09
7.32596e-16
3.16695e-10
-2.14453e-09
4.60948e-16
3.42594e-10
-2.33225e-09
2.15668e-16
3.67611e-10
-2.52366e-09
-1.77308e-16
3.91226e-10
-2.717e-09
-4.23744e-16
4.12902e-10
-2.91055e-09
-6.67678e-16
4.32083e-10
-3.10221e-09
-6.2197e-16
4.48229e-10
-3.28907e-09
-5.8615e-16
-3.47056e-09
-6.73456e-16
2.33067e-16
-8.21924e-15
1.39036e-18
3.99137e-15
-1.52057e-13
-2.0091e-17
1.94788e-14
-6.72933e-13
-1.98941e-16
6.7395e-14
-1.80879e-12
1.81321e-16
1.53682e-13
-3.80486e-12
-1.21128e-15
3.35999e-13
-6.92233e-12
1.11416e-15
6.34173e-13
-1.14464e-11
1.36693e-15
1.07548e-12
-1.7682e-11
-2.96936e-16
1.74545e-12
-2.59677e-11
1.65584e-15
2.6541e-12
-3.66756e-11
-2.28506e-15
3.92183e-12
-5.01927e-11
-7.64715e-16
5.61293e-12
-6.69473e-11
-1.24861e-15
7.81142e-12
-8.7406e-11
-2.61431e-15
1.06668e-11
-1.12042e-10
1.40361e-15
1.42508e-11
-1.41379e-10
1.17724e-15
1.86864e-11
-1.75933e-10
1.34197e-15
2.41178e-11
-2.16258e-10
3.45783e-15
3.06022e-11
-2.62912e-10
-2.03305e-15
3.83301e-11
-3.16453e-10
-1.14244e-15
4.74217e-11
-3.77418e-10
-5.48695e-16
5.79941e-11
-4.46329e-10
-1.50424e-16
7.01512e-11
-5.23713e-10
-1.44907e-16
8.39851e-11
-6.09933e-10
1.13818e-16
9.9562e-11
-7.05447e-10
2.93785e-16
1.16919e-10
-8.10478e-10
4.49699e-16
1.3606e-10
-9.25266e-10
7.02034e-16
1.56943e-10
-1.04989e-09
8.62928e-16
1.79483e-10
-1.1842e-09
1.00637e-15
2.03541e-10
-1.32819e-09
1.06477e-15
2.2892e-10
-1.48126e-09
1.06019e-15
2.55366e-10
-1.64302e-09
9.9181e-16
2.82569e-10
-1.81274e-09
8.85432e-16
3.10158e-10
-1.98945e-09
6.96522e-16
3.37707e-10
-2.17208e-09
4.68293e-16
3.64742e-10
-2.35928e-09
1.40417e-16
3.90745e-10
-2.54966e-09
-1.94983e-16
4.1517e-10
-2.74144e-09
-5.11281e-16
4.37456e-10
-2.93284e-09
-6.7158e-16
4.57031e-10
-3.12179e-09
-6.69336e-16
4.73338e-10
-3.30538e-09
-5.3363e-16
-3.48307e-09
-6.87621e-16
1.64632e-16
-8.40781e-15
1.39861e-17
3.7828e-15
-1.55633e-13
6.02452e-18
1.93658e-14
-6.90306e-13
-2.25832e-16
7.20528e-14
-1.85506e-12
7.78588e-16
1.6917e-13
-3.90541e-12
-4.16458e-16
3.67975e-13
-7.10975e-12
1.41374e-15
6.98448e-13
-1.17585e-11
2.18659e-15
1.17311e-12
-1.81657e-11
-9.92768e-16
1.89996e-12
-2.66826e-11
1.3415e-15
2.89385e-12
-3.76888e-11
-2.22789e-15
4.27913e-12
-5.15806e-11
-3.79282e-16
6.12336e-12
-6.8801e-11
-1.14496e-15
8.51852e-12
-8.98252e-11
-2.74809e-15
1.1628e-11
-1.15136e-10
1.59833e-15
1.55273e-11
-1.45268e-10
1.33471e-15
2.03496e-11
-1.80743e-10
1.61587e-15
2.62459e-11
-2.22121e-10
3.73234e-15
3.32811e-11
-2.69965e-10
-1.88213e-15
4.16531e-11
-3.24833e-10
-9.73521e-16
5.14887e-11
-3.87256e-10
-3.82772e-16
6.29092e-11
-4.57749e-10
6.67652e-17
7.60207e-11
-5.36824e-10
9.032e-18
9.09146e-11
-6.24825e-10
2.95454e-16
1.07654e-10
-7.22183e-10
4.42486e-16
1.26271e-10
-8.29088e-10
6.57189e-16
1.46757e-10
-9.45745e-10
8.7281e-16
1.69059e-10
-1.07219e-09
1.07731e-15
1.93073e-10
-1.2082e-09
1.13896e-15
2.1864e-10
-1.35374e-09
1.22351e-15
2.45539e-10
-1.50815e-09
1.11579e-15
2.7349e-10
-1.67096e-09
1.07567e-15
3.02152e-10
-1.8414e-09
8.71818e-16
3.31126e-10
-2.01842e-09
7.30023e-16
3.59954e-10
-2.2009e-09
4.14139e-16
3.88132e-10
-2.38746e-09
1.48927e-16
4.15112e-10
-2.57665e-09
-2.69842e-16
4.40322e-10
-2.76665e-09
-5.06451e-16
4.6318e-10
-2.9557e-09
-7.31519e-16
4.83094e-10
-3.14172e-09
-6.23206e-16
4.99495e-10
-3.32178e-09
-5.39005e-16
-3.49542e-09
-6.11916e-16
4.17156e-16
-8.68973e-15
-6.61363e-17
3.25389e-15
-1.60819e-13
-2.56307e-16
2.52738e-14
-7.10704e-13
3.12586e-16
7.76845e-14
-1.90851e-12
-2.86677e-16
1.83743e-13
-4.02112e-12
-9.81879e-16
4.02837e-13
-7.31631e-12
1.36938e-15
7.67044e-13
-1.2098e-11
3.01962e-15
1.27766e-12
-1.86943e-11
-2.05201e-15
2.0682e-12
-2.74615e-11
1.2617e-15
3.15902e-12
-3.87925e-11
-1.50416e-15
4.66945e-12
-5.30958e-11
-5.98463e-16
6.68218e-12
-7.08248e-11
-1.32007e-15
9.29419e-12
-9.24645e-11
-3.13454e-15
1.26832e-11
-1.18508e-10
1.84871e-15
1.69281e-11
-1.495e-10
1.48393e-15
2.21705e-11
-1.85972e-10
1.6355e-15
2.8572e-11
-2.28489e-10
3.76519e-15
3.62063e-11
-2.77617e-10
-1.76587e-15
4.5278e-11
-3.33913e-10
-9.10932e-16
5.59195e-11
-3.97901e-10
-3.35052e-16
6.82561e-11
-4.70084e-10
1.15782e-16
8.23955e-11
-5.50963e-10
1.22214e-16
9.8428e-11
-6.40854e-10
3.93954e-16
1.16413e-10
-7.40163e-10
6.20145e-16
1.36373e-10
-8.49042e-10
8.0312e-16
1.5829e-10
-9.67652e-10
1.08609e-15
1.82095e-10
-1.09598e-09
1.23074e-15
2.07663e-10
-1.23376e-09
1.33105e-15
2.34815e-10
-1.38088e-09
1.32266e-15
2.63302e-10
-1.53663e-09
1.24129e-15
2.92815e-10
-1.70047e-09
1.09461e-15
3.22983e-10
-1.87156e-09
9.34994e-16
3.53374e-10
-2.04881e-09
6.95681e-16
3.83498e-10
-2.23102e-09
4.46182e-16
4.12819e-10
-2.41678e-09
8.97916e-17
4.4076e-10
-2.60459e-09
-2.4954e-16
4.66724e-10
-2.79262e-09
-5.6833e-16
4.90105e-10
-2.97909e-09
-6.91324e-16
5.10295e-10
-3.16191e-09
-6.44105e-16
5.26716e-10
-3.3382e-09
-4.45507e-16
-3.50752e-09
-6.02836e-16
2.91127e-16
-8.93777e-15
-4.61917e-17
3.0143e-15
-1.65473e-13
-1.37088e-16
2.77389e-14
-7.32375e-13
5.4622e-16
8.40405e-14
-1.96842e-12
-7.33812e-16
2.04214e-13
-4.14234e-12
-3.05514e-17
4.42818e-13
-7.53596e-12
2.24613e-15
8.4178e-13
-1.24704e-11
3.15361e-15
1.39579e-12
-1.92786e-11
-3.38922e-15
2.2563e-12
-2.83204e-11
2.22386e-17
3.44862e-12
-4.00031e-11
-2.1186e-15
5.09736e-12
-5.4752e-11
-9.39026e-16
7.29676e-12
-7.30346e-11
-1.26939e-15
1.0148e-11
-9.53445e-11
-3.27066e-15
1.38417e-11
-1.22184e-10
1.90703e-15
1.84643e-11
-1.5411e-10
1.55221e-15
2.41648e-11
-1.91661e-10
1.38219e-15
3.11156e-11
-2.35408e-10
3.51062e-15
3.94024e-11
-2.8592e-10
-1.63089e-15
4.92337e-11
-3.4375e-10
-6.72584e-16
6.07478e-11
-4.09415e-10
-1.11399e-16
7.40739e-11
-4.83407e-10
3.82927e-16
8.93207e-11
-5.66206e-10
3.34747e-16
1.06576e-10
-6.58104e-10
6.50516e-16
1.25894e-10
-7.59474e-10
8.33452e-16
1.47288e-10
-8.70427e-10
1.06526e-15
1.70726e-10
-9.91079e-10
1.27132e-15
1.96121e-10
-1.12137e-09
1.44903e-15
2.23329e-10
-1.26095e-09
1.44074e-15
2.52142e-10
-1.40968e-09
1.46409e-15
2.82285e-10
-1.56676e-09
1.26869e-15
3.13416e-10
-1.73159e-09
1.17052e-15
3.45133e-10
-1.90327e-09
9.08541e-16
3.76969e-10
-2.08064e-09
7.41592e-16
4.084e-10
-2.26245e-09
3.96173e-16
4.38859e-10
-2.44723e-09
1.2623e-16
4.67738e-10
-2.63347e-09
-3.08868e-16
4.94414e-10
-2.81931e-09
-5.26242e-16
5.18262e-10
-3.00294e-09
-7.29843e-16
5.38656e-10
-3.18232e-09
-5.58464e-16
5.55011e-10
-3.35455e-09
-4.30044e-16
-3.51929e-09
-4.89281e-16
3.28029e-16
-9.23577e-15
-3.39262e-17
5.03899e-15
-1.70923e-13
-2.38114e-16
2.82493e-14
-7.55707e-13
-2.21922e-16
9.56507e-14
-2.03017e-12
1.00722e-15
2.18732e-13
-4.27861e-12
-1.34876e-15
4.80179e-13
-7.78818e-12
7.62775e-16
9.16218e-13
-1.2881e-11
3.31469e-15
1.52819e-12
-1.99109e-11
-2.56852e-15
2.4675e-12
-2.92535e-11
7.44732e-16
3.76829e-12
-4.13261e-11
-2.62073e-15
5.5653e-12
-5.65653e-11
-1.95514e-15
7.97172e-12
-7.54502e-11
-1.14618e-15
1.10894e-11
-9.84889e-11
-3.03554e-15
1.51162e-11
-1.26193e-10
1.97375e-15
2.01525e-11
-1.59132e-10
1.74768e-15
2.63534e-11
-1.97852e-10
1.29791e-15
3.39015e-11
-2.4293e-10
2.95719e-15
4.28988e-11
-2.94934e-10
-1.65452e-15
5.35551e-11
-3.54414e-10
-8.78216e-16
6.60143e-11
-4.21877e-10
-3.39187e-16
8.04096e-11
-4.978e-10
2.57155e-16
9.68493e-11
-5.82644e-10
3.67386e-16
1.15418e-10
-6.76667e-10
7.09952e-16
1.36163e-10
-7.80211e-10
1.00932e-15
1.59086e-10
-8.93339e-10
1.21525e-15
1.84139e-10
-1.01612e-09
1.49031e-15
2.11216e-10
-1.14843e-09
1.58567e-15
2.40148e-10
-1.28987e-09
1.61598e-15
2.70701e-10
-1.44022e-09
1.52445e-15
3.02567e-10
-1.59861e-09
1.37315e-15
3.35372e-10
-1.76439e-09
1.15894e-15
3.68678e-10
-1.93657e-09
9.69249e-16
4.01982e-10
-2.11393e-09
6.96428e-16
4.34725e-10
-2.29519e-09
4.43921e-16
4.66308e-10
-2.47881e-09
6.93083e-17
4.96093e-10
-2.66326e-09
-2.61808e-16
5.23431e-10
-2.84665e-09
-5.78015e-16
5.47677e-10
-3.02719e-09
-6.56169e-16
5.68194e-10
-3.20284e-09
-5.65079e-16
5.84388e-10
-3.37075e-09
-3.01511e-16
-3.53061e-09
-4.64208e-16
2.70462e-16
-9.52823e-15
-2.44798e-17
4.9949e-15
-1.76453e-13
-1.7537e-16
3.1757e-14
-7.81373e-13
-9.25522e-20
1.03732e-13
-2.10177e-12
2.27806e-16
2.42101e-13
-4.42387e-12
-6.49948e-16
5.27063e-13
-8.05543e-12
1.84926e-15
1.00175e-12
-1.33274e-11
3.56833e-15
1.67109e-12
-2.06079e-11
-3.29978e-15
2.70121e-12
-3.02804e-11
3.1946e-16
4.12228e-12
-4.27775e-11
-3.5212e-15
6.08358e-12
-5.85503e-11
-2.86855e-15
8.71704e-12
-7.80908e-11
-9.54809e-16
1.21284e-11
-1.01922e-10
-2.5103e-15
1.65196e-11
-1.30566e-10
1.93215e-15
2.20077e-11
-1.64606e-10
1.73814e-15
2.87549e-11
-2.04592e-10
9.79742e-16
3.6955e-11
-2.51107e-10
2.5775e-15
4.67263e-11
-3.04718e-10
-1.2644e-15
5.82793e-11
-3.6597e-10
-3.59273e-16
7.17628e-11
-4.35359e-10
7.35521e-17
8.73131e-11
-5.13345e-10
6.65228e-16
1.05038e-10
-6.00363e-10
6.82334e-16
1.25017e-10
-6.96637e-10
1.03922e-15
1.47288e-10
-8.02471e-10
1.24422e-15
1.7184e-10
-9.17879e-10
1.47446e-15
1.98608e-10
-1.04287e-09
1.62768e-15
2.27463e-10
-1.17727e-09
1.75317e-15
2.58208e-10
-1.3206e-09
1.65517e-15
2.90579e-10
-1.47258e-09
1.61379e-15
3.24235e-10
-1.63226e-09
1.34475e-15
3.58766e-10
-1.79891e-09
1.21075e-15
3.93696e-10
-1.97149e-09
9.14022e-16
4.28485e-10
-2.14872e-09
7.43957e-16
4.62538e-10
-2.32924e-09
3.81786e-16
4.95222e-10
-2.5115e-09
1.19968e-16
5.25871e-10
-2.69391e-09
-3.25026e-16
5.53811e-10
-2.8746e-09
-5.14071e-16
5.78378e-10
-3.05177e-09
-6.91651e-16
5.98924e-10
-3.22339e-09
-4.51652e-16
6.14852e-10
-3.38667e-09
-2.78273e-16
-3.54137e-09
-3.19696e-16
3.63167e-16
-9.89212e-15
-2.4259e-17
6.10628e-15
-1.8291e-13
-1.72921e-16
3.61636e-14
-8.10238e-13
-1.02333e-17
1.14336e-13
-2.17951e-12
2.47214e-16
2.69239e-13
-4.58663e-12
-7.30209e-16
5.80254e-13
-8.3523e-12
1.3635e-15
1.0897e-12
-1.38213e-11
2.11472e-15
1.82956e-12
-2.13703e-11
-2.72538e-15
2.95869e-12
-3.14034e-11
6.48482e-16
4.51385e-12
-4.43646e-11
-3.79979e-15
6.6585e-12
-6.07216e-11
-3.13411e-15
9.54493e-12
-8.09769e-11
-7.58726e-17
1.32789e-11
-1.05675e-10
-2.07402e-15
1.80685e-11
-1.35341e-10
1.60826e-15
2.40505e-11
-1.70575e-10
1.59696e-15
3.13949e-11
-2.11933e-10
5.80921e-16
4.03075e-11
-2.6e-10
2.15033e-15
5.09216e-11
-3.15344e-10
-1.17763e-15
6.34484e-11
-3.78501e-10
-4.80924e-16
7.80417e-11