/*--------------------------------*- C++ -*----------------------------------*\
| =========                 |                                                 |
| \\      /  F ield         | OpenFOAM: The Open Source CFD Toolbox           |
|  \\    /   O peration     | Version:  v2012                                 |
|   \\  /    A nd           | Website:  www.openfoam.com                      |
|    \\/     M anipulation  |                                                 |
\*---------------------------------------------------------------------------*/
FoamFile
{
    version     2.0;
    format      ascii;
    class       volScalarField;
    location    "0.85";
    object      alpha.water;
}
// * * * * * * * * * * * * * * * * * * * * * * * * * * * * * * * * * * * * * //

dimensions      [0 0 0 0 0 0 0];


internalField   nonuniform List<scalar> 
3332
(
1.36081e-28
7.66444e-38
1.28822e-45
5.09169e-52
1.06414e-58
7.00208e-74
5.9091e-78
6.89427e-83
3.39278e-87
1.04229e-90
8.90363e-95
2.63946e-99
3.23818e-103
6.18798e-108
1.05546e-113
6.01537e-121
1.86977e-129
9.3899e-140
6.28399e-152
6.34547e-161
2.15743e-14
7.34075e-21
1.49753e-28
8.5534e-38
1.43405e-45
5.96745e-52
1.23173e-58
1.07616e-73
7.02646e-78
8.47403e-83
4.25079e-87
1.28754e-90
1.16266e-94
3.78376e-99
4.59491e-103
9.76541e-108
1.32677e-113
1.02895e-120
3.64443e-129
2.7672e-139
1.14543e-151
1.43047e-160
0.999997
0.99999
0.999991
1.00001
1
1
0.999999
0.999985
0.996922
0.808163
0.000649026
3.89779e-06
4.85248e-08
1.68385e-09
6.36473e-11
2.69717e-14
7.28937e-21
1.67853e-28
9.71652e-38
1.62365e-45
7.10684e-52
1.45454e-58
8.82221e-74
8.47961e-78
1.05665e-82
5.40987e-87
1.61066e-90
1.57753e-94
5.53889e-99
6.38373e-103
1.47015e-107
1.80097e-113
1.82181e-120
7.52613e-129
7.89698e-139
2.12456e-151
3.29091e-160
0.999999
0.999987
0.99999
1.00001
1
0.999999
0.999999
0.999998
0.998777
0.854155
0.311223
0.0309587
0.00104419
7.00576e-06
5.88312e-08
1.90512e-09
6.72588e-11
3.41109e-14
7.32989e-21
1.91662e-28
1.12354e-37
1.87001e-45
8.59734e-52
1.75291e-58
1.16952e-73
1.03897e-77
1.33663e-82
6.99153e-87
2.04377e-90
2.22839e-94
8.23153e-99
8.68154e-103
2.10506e-107
2.88934e-113
3.15774e-120
1.41131e-128
1.7063e-138
4.0108e-151
7.71771e-160
0.999999
0.999987
0.999987
1.00001
1
0.999999
0.999999
0.999999
0.999633
0.898619
0.380589
0.0445347
0.00168379
1.3464e-05
7.57626e-08
2.22491e-09
7.40585e-11
4.3605e-14
7.58361e-21
2.22871e-28
1.32206e-37
2.19079e-45
1.05584e-51
2.15582e-58
1.3779e-73
1.29266e-77
1.715e-82
9.17075e-87
2.6352e-90
3.27413e-94
1.23532e-98
1.15676e-102
2.87135e-107
5.81866e-113
5.17988e-120
2.31097e-128
2.89202e-138
7.70663e-151
1.84297e-159
3.32153e-167
1
0.999985
0.999987
1.00001
1
0.999999
1
1
0.999847
0.937246
0.464756
0.0651718
0.00275321
2.71419e-05
1.06299e-07
2.69007e-09
8.35894e-11
5.62901e-14
7.88837e-21
2.63793e-28
1.58225e-37
2.61014e-45
1.31535e-51
2.70486e-58
1.5501e-73
1.63308e-77
2.23139e-82
1.22009e-86
3.45898e-90
4.98334e-94
1.86388e-98
1.51278e-102
3.74573e-107
1.37056e-112
7.94835e-120
3.39437e-128
4.26365e-138
1.50645e-150
4.47663e-159
1.32614e-166
0.999999
0.999986
0.999986
1.00001
1
0.999999
1
1
0.99995
0.966328
0.561694
0.0964331
0.00459764
5.65118e-05
1.67267e-07
3.3434e-09
9.80217e-11
7.33062e-14
8.35453e-21
3.17585e-28
1.92469e-37
3.16129e-45
1.6607e-51
3.46001e-58
2.27904e-73
2.0947e-77
2.94294e-82
1.64508e-86
4.63047e-90
7.80443e-94
2.81854e-98
1.9468e-102
4.69927e-107
3.27252e-112
1.14415e-119
4.74761e-128
6.22281e-138
2.99199e-150
1.10506e-158
5.36678e-166
6.29168e-226
0.999995
0.999985
0.999987
1.00001
1.00001
0.999999
1
1
0.999986
0.985041
0.666011
0.143149
0.00785909
0.000120161
3.01036e-07
4.24617e-09
1.18626e-10
9.62067e-14
8.96479e-21
3.88576e-28
2.37765e-37
3.89031e-45
2.12276e-51
4.50823e-58
2.97503e-73
2.72727e-77
3.93257e-82
2.24593e-86
6.33226e-90
1.24729e-93
4.26349e-98
2.47482e-102
5.71306e-107
7.21862e-112
1.56358e-119
7.01568e-128
1.10751e-137
6.02564e-150
2.76982e-158
2.19684e-165
2.72272e-226
0.999993
0.999986
0.999989
1.00001
1.00001
0.999999
1
1
0.999995
0.995158
0.769152
0.211133
0.0137489
0.000258799
6.16302e-07
5.50117e-09
1.47444e-10
1.27107e-13
9.75306e-21
4.8274e-28
2.98015e-37
4.86154e-45
2.74406e-51
5.97596e-58
5.25037e-73
3.60324e-77
5.32145e-82
3.10179e-86
8.85708e-90
2.01703e-93
6.4467e-98
3.12625e-102
6.80627e-107
1.43014e-111
2.0698e-119
1.3432e-127
3.00633e-137
1.22745e-149
7.0435e-158
9.07839e-165
1.14034e-226
0.999992
0.999985
0.999989
1.00001
1
1
1
1
0.999998
0.998841
0.860575
0.305647
0.0245544
0.000560654
1.39559e-06
7.26263e-09
1.87317e-10
1.68886e-13
1.07482e-20
6.08345e-28
3.78622e-37
6.16542e-45
3.58319e-51
8.0475e-58
2.11963e-73
4.82876e-77
7.28773e-82
4.32931e-86
1.2679e-89
3.27539e-93
9.74864e-98
3.96188e-102
8.09289e-107
2.55743e-111
2.74212e-119
4.01552e-127
9.90281e-137
2.52303e-149
1.8154e-157
3.78076e-164
4.61913e-227
0.99999
0.999985
0.999992
1.00001
1
1
1
1
1
0.999759
0.929742
0.427874
0.0444877
0.0012086
3.37857e-06
9.75917e-09
2.4181e-10
2.25452e-13
1.19878e-20
7.76895e-28
4.87097e-37
7.92994e-45
4.72103e-51
1.09917e-57
1.24291e-72
6.56047e-77
1.00949e-81
6.10121e-86
1.85705e-89
5.30807e-93
1.47666e-97
5.11675e-102
9.93863e-107
4.19585e-111
3.84964e-119
1.44945e-126
2.79745e-136
5.22514e-149
4.73669e-157
1.58425e-163
3.23874e-188
0.999986
0.99999
0.999993
1.00001
1
1
1
1
0.999999
0.999965
0.97191
0.570487
0.080806
0.00256447
8.50454e-06
1.33393e-08
3.16725e-10
3.02096e-13
1.35193e-20
1.00444e-27
6.33915e-37
1.03374e-44
6.26912e-51
1.52008e-57
1.28982e-73
9.03104e-77
1.41351e-81
8.67428e-86
2.77934e-89
8.5458e-93
2.24668e-97
6.90879e-102
1.3528e-106
6.43799e-111
6.31151e-119
4.45645e-126
6.58816e-136
1.09029e-148
1.24933e-156
6.67019e-163
2.80228e-185
0.999986
0.999991
0.999995
1
1
1
1
1
0.999999
0.999994
0.991766
0.716145
0.144391
0.00538064
2.18424e-05
1.85578e-08
4.20642e-10
4.05949e-13
1.54075e-20
1.31344e-27
8.33714e-37
1.36488e-44
8.38129e-51
2.12457e-57
2.62592e-72
1.25879e-76
1.99953e-81
1.24322e-85
4.24051e-89
1.36268e-92
3.44702e-97
1.0131e-101
2.30431e-106
9.4305e-111
1.32949e-118
1.07035e-125
1.5212e-135
2.29708e-148
3.32619e-156
2.8185e-162
6.52431e-183
0.999985
0.999994
0.999996
1
1
1
1
1
1
0.999997
0.99824
0.842325
0.247435
0.0113743
5.65485e-05
2.63661e-08
5.66217e-10
5.46564e-13
1.77597e-20
1.73537e-27
1.10698e-36
1.82401e-44
1.12695e-50
2.99556e-57
1.73997e-72
1.77523e-76
2.85588e-81
1.79509e-85
6.57423e-89
2.14839e-92
5.36074e-97
1.68386e-101
5.26645e-106
1.35098e-110
3.41926e-118
2.10433e-125
4.52725e-135
4.90647e-148
8.92902e-156
1.19414e-161
7.82058e-181
0.999985
0.999994
0.999996
1
1
1
1
1
1
0.999991
0.99976
0.930456
0.395191
0.0243981
0.000146415
3.85512e-08
7.72154e-10
7.36593e-13
2.07867e-20
2.31434e-27
1.48241e-36
2.4655e-44
1.52258e-50
4.25299e-57
2.5971e-72
2.53094e-76
4.1163e-81
2.61007e-85
1.03173e-88
3.34669e-92
8.50307e-97
3.22995e-101
1.4154e-105
1.95447e-110
8.97719e-118
3.68847e-125
2.0264e-134
1.06786e-147
2.41593e-155
5.06933e-161
5.87322e-179
0.999991
0.999995
0.999997
1
1
1
1
1
1
0.99999
0.99999
0.976459
0.573505
0.0525479
0.000377163
5.87693e-08
1.06586e-09
9.92493e-13
2.49459e-20
3.11205e-27
2.00015e-36
3.36822e-44
2.06515e-50
6.06954e-57
2.94596e-72
3.6445e-76
5.98434e-81
3.82046e-85
1.63244e-88
5.15222e-92
1.38494e-96
6.90336e-101
3.69659e-105
2.98836e-110
2.12575e-117
6.45535e-125
9.64629e-134
2.37761e-147
6.59262e-155
2.15521e-160
3.11045e-177
0.999999
0.999993
0.999998
1
1
0.999999
1
1
1
0.99999
0.999996
0.993877
0.745367
0.109821
0.000963249
9.50123e-08
1.4866e-09
1.3351e-12
3.12803e-20
4.21444e-27
2.71629e-36
4.64684e-44
2.80984e-50
8.69244e-57
8.91184e-72
5.29544e-76
8.77152e-81
5.62898e-85
2.59413e-88
7.84658e-92
2.33095e-96
1.53254e-100
8.55373e-105
5.11378e-110
4.41022e-117
1.33313e-124
3.50399e-133
5.41853e-147
1.81696e-154
9.17275e-160
1.2593e-175
1
0.999996
0.999999
1
1
0.999997
1
1
1
0.999992
0.999996
0.998738
0.871962
0.211075
0.00242774
1.65557e-07
2.08857e-09
1.78982e-12
4.22525e-20
5.74057e-27
3.70897e-36
6.46822e-44
3.83242e-50
1.24734e-56
7.09133e-72
7.75575e-76
1.29571e-80
8.34887e-85
4.12639e-88
1.18429e-91
4.07159e-96
3.32165e-100
1.72675e-104
1.01876e-109
8.20756e-117
3.83519e-124
9.4403e-133
1.2589e-146
5.06539e-154
3.90659e-159
4.10679e-174
1.00001
0.999996
0.999997
1.00001
1
0.999998
1
1
1
0.999995
0.999994
0.999874
0.942407
0.353814
0.00595732
3.13366e-07
2.94237e-09
2.38628e-12
6.38215e-20
7.85426e-27
5.08675e-36
9.07519e-44
5.23698e-50
1.79099e-56
1.22426e-71
1.14378e-75
1.92826e-80
1.24687e-84
6.55255e-88
1.77633e-91
7.38626e-96
6.79084e-100
3.08159e-104
2.29704e-109
1.44249e-116
1.37703e-123
2.09952e-132
2.97465e-146
1.42912e-153
1.6641e-158
1.12227e-172
1.00002
0.999998
1
1
0.999998
0.999999
1
1
1
0.999995
0.999992
0.999998
0.973143
0.505737
0.0137816
6.40815e-07
4.13326e-09
3.15739e-12
1.10422e-19
1.07795e-26
6.99992e-36
1.28207e-43
7.16673e-50
2.57004e-56
1.71585e-71
1.69666e-75
2.89004e-80
1.87583e-84
1.03679e-87
2.6584e-91
1.38609e-95
1.29418e-99
4.95428e-104
5.37087e-109
2.59636e-116
4.58288e-123
4.48674e-132
7.10437e-146
4.07355e-153
7.08736e-158
2.65164e-171
1.00002
0.999998
0.999999
1
0.999993
1
1
1
1
0.999993
0.999988
0.999999
0.986253
0.629186
0.0286783
1.39247e-06
5.7546e-09
4.1381e-12
2.1603e-19
1.48213e-26
9.65632e-36
1.8217e-43
9.81946e-50
3.68209e-56
2.51549e-71
2.52887e-75
4.36121e-80
2.84437e-84
1.6329e-87
3.99218e-91
2.66847e-95
2.30166e-99
7.30212e-104
1.20202e-108
5.42654e-116
1.23435e-122
1.09718e-131
1.77126e-145
1.16812e-152
3.01799e-157
5.55073e-170
1.00003
0.999999
1
1
0.999988
0.999999
1
1
0.999998
0.99999
0.999985
1
0.992003
0.713848
0.0515531
3.14642e-06
7.89583e-09
5.36453e-12
4.56183e-19
2.03936e-26
1.3343e-35
2.60056e-43
1.34698e-49
5.26271e-56
3.68092e-71
3.78364e-75
6.62466e-80
4.34986e-84
2.55933e-87
6.06277e-91
5.21343e-95
3.84859e-99
1.00274e-103
2.47674e-108
1.5071e-115
2.74296e-122
3.37142e-131
5.33085e-145
3.35008e-152
1.28595e-156
1.04916e-168
1.00002
0.999998
1
0.99999
0.999986
0.999997
1
1
0.999998
0.999987
0.999983
1
0.994514
0.765551
0.0783359
7.22806e-06
1.06259e-08
6.87368e-12
9.85644e-19
2.80589e-26
1.8457e-35
3.7257e-43
1.85024e-49
7.49957e-56
5.42508e-71
5.67754e-75
1.0127e-79
6.71344e-84
3.99462e-87
9.4063e-91
1.02229e-94
6.11932e-99
1.30619e-103
4.67069e-108
5.39966e-115
5.4839e-122
1.13231e-130
2.91043e-144
9.55748e-152
5.49182e-156
1.818e-167
1.00002
0.999998
1
0.999986
0.999986
0.999998
1
0.999999
0.999997
0.999983
0.999981
1
0.995532
0.795163
0.102462
1.64887e-05
1.39764e-08
8.70385e-12
2.0908e-18
3.85825e-26
2.55484e-35
5.35108e-43
2.54615e-49
1.06519e-55
8.02108e-71
8.53782e-75
1.55764e-79
1.04629e-83
6.21841e-87
1.50908e-90
1.99336e-94
9.39954e-99
1.65668e-103
8.15745e-108
2.0093e-114
1.12579e-121
3.48009e-130
1.54428e-143
2.70761e-151
2.35524e-155
2.92432e-166
1.00001
0.999999
1
0.999983
0.999988
1
1
0.999999
0.999997
0.999981
0.99998
1.00001
0.995883
0.81227
0.120691
3.64191e-05
1.79327e-08
1.08947e-11
4.24349e-18
5.30081e-26
3.5381e-35
7.69731e-43
3.51283e-49
1.50776e-55
1.18772e-70
1.28591e-74
2.41018e-79
1.64732e-83
9.67867e-87
2.53422e-90
3.84082e-94
1.42789e-98
2.14671e-103
1.34819e-107
6.59596e-114
2.85084e-121
9.75457e-130
1.10743e-142
7.65941e-151
1.01533e-154
4.41224e-165
1.00001
1
1
0.999986
0.999992
1
1
1
0.999996
0.999977
0.999981
1.00001
0.996009
0.822417
0.133973
7.59824e-05
2.24508e-08
1.34858e-11
8.13048e-18
7.27616e-26
4.90188e-35
1.10789e-42
4.86398e-49
2.12724e-55
1.75504e-70
1.93902e-74
3.75107e-79
2.62059e-83
1.51143e-86
4.49247e-90
7.29056e-94
2.226e-98
3.16641e-103
2.17293e-107
1.84494e-113
9.95318e-121
2.87969e-129
6.90329e-142
2.19759e-150
4.39343e-154
6.29983e-164
1
1
0.999998
0.999986
0.999994
1
1
1
0.999995
0.999971
0.999985
1.00001
0.996109
0.82841
0.143831
0.000146981
2.75184e-08
1.65129e-11
1.46338e-17
9.97938e-26
6.79465e-35
1.59416e-42
6.76798e-49
2.99272e-55
2.5711e-70
2.92674e-74
5.87116e-79
4.21158e-83
2.37858e-86
8.40676e-90
1.36345e-93
3.77107e-98
6.55016e-103
3.56024e-107
4.5674e-113
3.972e-120
1.0827e-128
3.38931e-141
6.54352e-150
1.89996e-153
8.57723e-163
1
1
0.999998
0.99999
0.999995
1
1
1
0.999993
0.999964
0.999987
1.00002
0.996238
0.831417
0.151417
0.000261547
3.3279e-08
2.00014e-11
2.4757e-17
1.36776e-25
9.42417e-35
2.29141e-42
9.47842e-49
4.20151e-55
3.61582e-70
4.42235e-74
9.24085e-79
6.8342e-83
3.79205e-86
1.64248e-89
2.51964e-93
7.45549e-98
2.01924e-102
6.26228e-107
1.07278e-112
1.40382e-119
5.13182e-128
1.73366e-140
2.05633e-149
8.16686e-153
1.12119e-161
1
1
0.999998
0.999992
0.999996
1
1
1
0.99999
0.999955
0.999988
1.00002
0.996387
0.832177
0.157529
0.000429524
4.02525e-08
2.39569e-11
3.95166e-17
1.87369e-25
1.30819e-34
3.2877e-42
1.33836e-48
5.89285e-55
4.43588e-70
6.69199e-74
1.46249e-78
1.11879e-82
6.15853e-86
3.2855e-89
4.62635e-93
1.78237e-97
6.73631e-102
1.2462e-106
2.59747e-112
4.11511e-119
2.3672e-127
1.28949e-139
6.77039e-149
3.48174e-152
1.41612e-160
1.00001
0.999999
0.999999
0.999993
0.999996
0.999999
0.999999
1
0.999987
0.999945
0.999984
1.00001
0.996517
0.831218
0.16269
0.000658133
4.97738e-08
2.83526e-11
5.98318e-17
2.56596e-25
1.81777e-34
4.70566e-42
1.90872e-48
8.2703e-55
8.80522e-70
1.01483e-73
2.32737e-78
1.84554e-82
1.02407e-85
6.58165e-89
8.50525e-93
4.84808e-97
1.88801e-101
2.82037e-106
6.96521e-112
1.07829e-118
9.2754e-127
1.09713e-138
2.25672e-148
1.48347e-151
1.73878e-159
1.00001
0.999999
0.999999
0.999993
0.999997
0.999999
0.999998
1
0.999985
0.999932
0.999978
1.00001
0.9966
0.828419
0.167227
0.000953873
6.50085e-08
3.31152e-11
8.64363e-17
3.51351e-25
2.52891e-34
6.71513e-42
2.75399e-48
1.16395e-54
1.50679e-69
1.54392e-73
3.72451e-78
3.06373e-82
1.74933e-85
1.29574e-88
1.58035e-92
1.33393e-96
4.23198e-101
6.78259e-106
2.08696e-111
2.92739e-118
3.3631e-126
7.06948e-138
7.27583e-148
6.4582e-151
2.0866e-158
1.00001
1
0.999999
0.999992
0.999998
0.999999
0.999998
1
0.999982
0.999918
0.999974
1.00001
0.996631
0.824196
0.171334
0.00132402
9.32447e-08
3.8114e-11
1.19817e-16
4.81105e-25
3.52322e-34
9.55019e-42
4.02522e-48
1.64739e-54
1.46481e-69
2.35972e-73
5.99501e-78
5.11188e-82
3.0707e-85
2.47525e-88
2.99744e-92
3.40593e-96
7.8248e-101
1.58427e-105
6.48023e-111
9.73859e-118
1.38019e-125
3.82097e-137
2.17671e-147
2.95757e-150
2.45639e-157
1.00001
1
0.999999
0.999992
0.999999
0.999998
0.999999
1
0.999978
0.999903
0.99997
1.00001
0.996592
0.818968
0.175091
0.00177539
1.50124e-07
4.31605e-11
1.6016e-16
6.58876e-25
4.91634e-34
1.35325e-41
5.96374e-48
2.35307e-54
3.85951e-69
3.62965e-73
9.70892e-78
8.56392e-82
5.51953e-85
4.5589e-88
5.85349e-92
7.82158e-96
1.25275e-100
3.40959e-105
1.90172e-110
4.07119e-117
7.27396e-125
2.7351e-136
5.85139e-147
1.4368e-149
2.84091e-156
1
1
0.999999
0.999992
0.999999
0.999998
0.999999
1
0.999974
0.999886
0.999968
1.00001
0.996426
0.813055
0.178498
0.00231058
2.64743e-07
4.803e-11
2.07255e-16
9.02567e-25
6.87245e-34
1.91037e-41
8.95508e-48
3.40612e-54
2.72826e-69
5.63018e-73
1.58278e-77
1.43973e-81
1.00889e-84
8.08748e-88
1.18248e-91
1.62493e-95
1.83798e-100
6.7183e-105
5.06133e-110
1.74888e-116
4.18023e-124
3.07022e-135
1.38064e-146
7.14042e-149
3.22948e-155
1
1
1
0.999992
0.999999
0.999999
0.999999
1
0.999968
0.999866
0.999967
1.00001
0.996141
0.806591
0.181508
0.00292386
4.80978e-07
5.25092e-11
2.60322e-16
1.23682e-24
9.62527e-34
2.6872e-41
1.36123e-47
5.01922e-54
9.28516e-69
8.82656e-73
2.59905e-77
2.42909e-81
1.85864e-84
1.38688e-87
2.46773e-91
3.13537e-95
2.68676e-100
1.24664e-104
1.24114e-109
6.52915e-116
2.13889e-123
2.78109e-134
2.8163e-146
3.38627e-148
3.62308e-154
1
1
1
0.999992
0.999999
0.999999
0.999999
1
0.999962
0.999841
0.999966
1.00001
0.995728
0.799564
0.183973
0.00359751
8.50004e-07
5.64688e-11
3.177e-16
1.69558e-24
1.35086e-33
3.76814e-41
2.09009e-47
7.56193e-54
8.49649e-69
1.40154e-72
4.30235e-77
4.11665e-81
3.42118e-84
2.31756e-87
5.27952e-91
5.85642e-95
4.67698e-100
2.30844e-104
2.9566e-109
2.12752e-115
1.00781e-122
1.70605e-133
4.99017e-146
1.41899e-147
4.06879e-153
1
1
1
0.999992
0.999999
0.999999
0.999999
1
0.999954
0.999811
0.999966
1.00001
0.995164
0.79182
0.185496
0.0042958
1.4168e-06
5.99444e-11
3.76501e-16
2.32567e-24
1.90001e-33
5.2719e-41
3.23202e-47
1.16853e-53
1.62512e-68
2.25812e-72
7.18618e-77
7.0203e-81
6.25069e-84
3.82463e-87
1.14454e-90
1.12294e-94
1.40876e-99
4.68083e-104
7.31278e-109
6.81422e-115
5.35697e-122
1.14429e-132
8.16034e-146
4.88089e-147
4.68974e-152
1
1
1
0.999992
0.999999
1
0.999999
1
0.999944
0.999775
0.999964
1
0.99442
0.783113
0.185881
0.00495687
2.21124e-06
6.32264e-11
4.32441e-16
3.19177e-24
2.67863e-33
7.36891e-41
5.01572e-47
1.85397e-53
2.3609e-68
3.69562e-72
1.21237e-76
1.20787e-80
1.13007e-83
6.36133e-87
2.48523e-90
2.38397e-94
7.43384e-99
1.16435e-103
1.96042e-108
2.49265e-114
3.65238e-121
1.56194e-131
1.34024e-145
1.29052e-146
5.63985e-151
1
1
1
0.999992
0.999999
1
1
1
0.99993
0.999732
0.999957
0.999999
0.993428
0.773198
0.185399
0.00550515
3.24993e-06
6.70691e-11
4.80308e-16
4.38347e-24
3.78563e-33
1.03105e-40
7.78324e-47
3.01412e-53
2.99758e-68
6.14402e-72
2.06809e-76
2.10366e-80
2.02389e-83
1.09761e-86
5.36223e-90
5.96562e-94
3.7168e-98
3.67929e-103
5.57078e-108
1.0827e-113
2.64087e-120
1.83503e-130
2.27833e-145
2.49681e-146
6.89816e-150
1
1
1
0.999992
0.999999
1
1
1
0.999914
0.999681
0.999951
0.999983
0.992134
0.761821
0.183782
0.00593256
4.54409e-06
7.35765e-11
5.15388e-16
6.02531e-24
5.3642e-33
1.44792e-40
1.20359e-46
4.99524e-53
8.86187e-68
1.03642e-71
3.57043e-76
3.72198e-80
3.61068e-83
2.03545e-86
1.14695e-89
1.72581e-93
1.34504e-97
1.30499e-102
1.56638e-107
4.84037e-113
1.68134e-119
1.07352e-129
4.01709e-145
3.69987e-146
7.94807e-149
1
1
1
0.999993
0.999999
1
1
1
0.999895
0.999622
0.999948
0.999958
0.990438
0.748711
0.180923
0.00628124
6.10558e-06
8.99891e-11
5.35582e-16
8.29112e-24
7.62252e-33
2.04773e-40
1.8495e-46
8.37443e-53
9.41063e-68
1.76977e-71
6.24353e-76
6.71162e-80
6.48148e-83
4.17769e-86
2.44024e-89
5.17311e-93
3.65682e-97
4.5075e-102
4.19089e-107
1.98461e-112
1.06038e-118
5.22619e-129
4.28688e-145
5.53214e-146
7.71961e-148
0.999874
0.999557
0.999947
0.999944
0.988209
0.733594
0.176789
0.00655789
7.94863e-06
1.41555e-10
5.43218e-16
1.14249e-23
1.08649e-32
2.92843e-40
2.81857e-46
1.4078e-52
2.39145e-67
3.04956e-71
1.10647e-75
1.23616e-79
1.18701e-82
9.48867e-86
5.20549e-89
1.44696e-92
8.47683e-97
1.4695e-101
1.10805e-106
7.93797e-112
8.91764e-118
7.08544e-128
4.54331e-145
8.08206e-146
5.38422e-147
1.36078e-28
7.66429e-38
1.28821e-45
5.09164e-52
1.06417e-58
1.41748e-73
1.46928e-77
1.18602e-82
3.04298e-87
9.62116e-91
7.08597e-95
2.80661e-99
5.38792e-103
5.50641e-108
1.11924e-113
6.39142e-121
3.18591e-129
9.38972e-140
6.27382e-152
6.34686e-161
2.15742e-14
7.34072e-21
1.4975e-28
8.55321e-38
1.43404e-45
5.96739e-52
1.23177e-58
2.60382e-73
1.75159e-77
1.45563e-82
3.82176e-87
1.18853e-90
9.13522e-95
3.88323e-99
7.16299e-103
9.01023e-108
1.24029e-113
9.97606e-121
6.25708e-129
2.76713e-139
1.14343e-151
1.43078e-160
0.999998
0.999994
0.999994
1
1
0.999999
0.999999
0.999985
0.996921
0.80816
0.000649026
3.89778e-06
4.85247e-08
1.68385e-09
6.36478e-11
2.69716e-14
7.28934e-21
1.6785e-28
9.71631e-38
1.62363e-45
7.10677e-52
1.45458e-58
2.1682e-73
2.11864e-77
1.81282e-82
4.87546e-87
1.48702e-90
1.22688e-94
5.49328e-99
9.40106e-103
1.40489e-107
1.40112e-113
1.63949e-120
1.22271e-128
7.89691e-139
2.12053e-151
3.29161e-160
0.999999
0.999992
0.999994
1
1
0.999999
0.999999
0.999998
0.998776
0.854153
0.311223
0.0309587
0.00104419
7.00575e-06
5.88311e-08
1.90512e-09
6.7259e-11
3.41107e-14
7.32986e-21
1.91658e-28
1.12352e-37
1.86999e-45
8.59726e-52
1.75296e-58
3.00433e-73
2.60053e-77
2.29099e-82
6.31554e-87
1.88769e-90
1.72296e-94
7.90659e-99
1.21778e-102
2.08065e-107
1.72581e-113
2.70955e-120
2.15512e-128
1.70631e-138
4.00249e-151
7.71934e-160
0.999999
0.999992
0.999992
1
1
0.999999
0.999999
0.999998
0.999633
0.898618
0.380589
0.0445348
0.00168379
1.3464e-05
7.57624e-08
2.22491e-09
7.40586e-11
4.36048e-14
7.58357e-21
2.22866e-28
1.32203e-37
2.19077e-45
1.05583e-51
2.15588e-58
3.70737e-73
3.23943e-77
2.93777e-82
8.30271e-87
2.43615e-90
2.53132e-94
1.15235e-98
1.55756e-102
2.933e-107
2.67017e-113
4.33837e-120
3.3558e-128
2.89205e-138
7.68915e-151
1.84335e-159
3.32153e-167
1
0.999991
0.999992
1.00001
1
0.999999
1
0.999999
0.999847
0.937245
0.464756
0.0651719
0.00275321
2.71419e-05
1.06299e-07
2.69007e-09
8.35894e-11
5.62898e-14
7.88833e-21
2.63788e-28
1.58221e-37
2.61011e-45
1.31533e-51
2.70493e-58
4.79353e-73
4.09494e-77
3.82151e-82
1.10699e-86
3.20279e-90
3.87666e-94
1.69345e-98
1.96903e-102
3.9545e-107
5.82763e-113
6.60498e-120
4.7162e-128
4.26371e-138
1.5027e-150
4.47755e-159
1.32614e-166
0.999999
0.999991
0.999992
1.00001
1
0.999999
1
1
0.999949
0.966329
0.561694
0.0964332
0.00459764
5.65117e-05
1.67266e-07
3.34339e-09
9.80216e-11
7.33058e-14
8.35449e-21
3.17578e-28
1.92465e-37
3.16125e-45
1.66068e-51
3.4601e-58
6.37807e-73
5.25188e-77
5.04109e-82
1.49566e-86
4.29821e-90
6.14325e-94
2.5009e-98
2.465e-102
5.13413e-107
1.55471e-112
9.54018e-120
6.24184e-128
6.22282e-138
2.98378e-150
1.10528e-158
5.36678e-166
1.27382e-229
0.999996
0.999991
0.999992
1.00001
1
0.999999
1
1
0.999985
0.985042
0.666011
0.14315
0.00785909
0.000120161
3.01035e-07
4.24615e-09
1.18625e-10
9.62062e-14
8.96475e-21
3.88568e-28
2.3776e-37
3.89027e-45
2.12274e-51
4.50834e-58
9.74299e-73
6.83196e-77
6.7404e-82
2.04593e-86
5.89899e-90
9.97498e-94
3.70282e-98
3.0659e-102
6.47741e-107
4.02913e-112
1.3208e-119
8.32063e-128
1.1075e-137
6.0073e-150
2.77038e-158
2.19684e-165
5.53374e-230
0.999995
0.999991
0.999993
1.00001
1
1
1
1
0.999995
0.995159
0.769153
0.211133
0.0137489
0.000258799
6.163e-07
5.50115e-09
1.47443e-10
1.27106e-13
9.75301e-21
4.82729e-28
2.98009e-37
4.86149e-45
2.74403e-51
5.9761e-58
9.07829e-73
9.01112e-77
9.13028e-82
2.8308e-86
8.29083e-90
1.64244e-93
5.48952e-98
3.80953e-102
8.04734e-107
9.17589e-112
1.79221e-119
1.27174e-127
3.00622e-137
1.22328e-149
7.04489e-158
9.07839e-165
2.34423e-230
0.999995
0.999991
0.999993
1
1
1
1
1
0.999998
0.998841
0.860577
0.305647
0.0245544
0.000560653
1.39558e-06
7.26259e-09
1.87316e-10
1.68885e-13
1.07482e-20
6.08332e-28
3.78614e-37
6.16536e-45
3.58316e-51
8.04769e-58
1.52502e-72
1.20455e-76
1.25216e-81
3.95801e-86
1.19405e-89
2.7167e-93
8.14745e-98
4.77292e-102
1.00572e-106
1.82103e-111
2.47982e-119
2.75677e-127
9.90231e-137
2.51351e-149
1.81575e-157
3.78076e-164
9.61713e-231
0.999992
0.999992
0.999995
1
1
1
1
1
0.999999
0.999758
0.929743
0.427874
0.0444878
0.0012086
3.37856e-06
9.75911e-09
2.41808e-10
2.25451e-13
1.19877e-20
7.76878e-28
4.87087e-37
7.92986e-45
4.72099e-51
1.0992e-57
2.22776e-72
1.63106e-76
1.73751e-81
5.58725e-86
1.76149e-89
4.48004e-93
1.21172e-97
6.12349e-102
1.31267e-106
3.22007e-111
3.75176e-119
8.3882e-127
2.79735e-136
5.20339e-149
4.7376e-157
1.58425e-163
3.23873e-188
0.999992
0.999993
0.999995
1
1
1
1
1
1
0.999967
0.97191
0.570487
0.0808061
0.00256447
8.50452e-06
1.33392e-08
3.16723e-10
3.02094e-13
1.35192e-20
1.00442e-27
6.33902e-37
1.03372e-44
6.26906e-51
1.52011e-57
2.15223e-72
2.23604e-76
2.43781e-81
7.95631e-86
2.65758e-89
7.32539e-93
1.80965e-97
8.24618e-102
1.91158e-106
5.21824e-111
6.87104e-119
2.55274e-126
6.58807e-136
1.0854e-148
1.24957e-156
6.6702e-163
2.80227e-185
0.99999
0.999994
0.999997
1
1
1
1
1
1
0.999996
0.991768
0.716145
0.144391
0.00538063
2.18424e-05
1.85577e-08
4.20639e-10
4.05947e-13
1.54074e-20
1.31341e-27
8.33697e-37
1.36486e-44
8.38121e-51
2.12462e-57
4.72726e-72
3.10171e-76
3.45608e-81
1.14209e-85
4.08937e-89
1.18345e-92
2.72314e-97
1.20721e-101
3.38548e-106
7.97517e-111
1.60344e-118
6.40328e-126
1.52124e-135
2.28635e-148
3.32682e-156
2.8185e-162
6.52429e-183
0.99999
0.999996
0.999997
1
1
1
1
1
1
0.999999
0.998242
0.842324
0.247435
0.0113743
5.65484e-05
2.63659e-08
5.66212e-10
5.46561e-13
1.77596e-20
1.73533e-27
1.10696e-36
1.82399e-44
1.12694e-50
2.99562e-57
4.30556e-72
4.35078e-76
4.94754e-81
1.6516e-85
6.39422e-89
1.88531e-92
4.14872e-97
1.99126e-101
7.46099e-106
1.18595e-110
4.27713e-118
1.32526e-125
4.5276e-135
4.88381e-148
8.93068e-156
1.19414e-161
7.82055e-181
0.999994
0.999996
0.999998
1
1
1
1
1
1
0.999995
0.999761
0.930458
0.395191
0.024398
0.000146415
3.85509e-08
7.72147e-10
7.36589e-13
2.07866e-20
2.31429e-27
1.48238e-36
2.46548e-44
1.52257e-50
4.25308e-57
6.82734e-72
6.16723e-76
7.14717e-81
2.40511e-85
1.01167e-88
2.95946e-92
6.43911e-97
3.73696e-101
1.84129e-105
1.78429e-110
1.10535e-117
2.4441e-125
2.02662e-134
1.06322e-147
2.41638e-155
5.06934e-161
5.8732e-179
0.999997
0.999997
0.999998
1
1
1
1
1
1
0.999993
0.99999
0.976463
0.573506
0.0525479
0.000377162
5.87688e-08
1.06585e-09
9.92488e-13
2.49458e-20
3.11198e-27
2.00011e-36
3.36819e-44
2.06513e-50
6.06968e-57
8.73623e-72
8.82805e-76
1.04124e-80
3.52596e-85
1.61253e-88
4.57867e-92
1.02567e-96
7.69599e-101
4.44499e-105
2.8625e-110
2.53939e-117
4.51859e-125
9.64727e-134
2.36861e-147
6.59381e-155
2.15522e-160
3.11044e-177
0.999999
0.999995
0.999999
1
1
1
1
1
1
0.999993
0.999996
0.993881
0.745368
0.109821
0.000963246
9.50115e-08
1.48659e-09
1.33509e-12
3.12801e-20
4.21435e-27
2.71623e-36
4.64679e-44
2.80982e-50
8.69263e-57
1.01863e-71
1.27517e-75
1.52894e-80
5.20352e-85
2.57886e-88
6.98892e-92
1.68969e-96
1.63367e-100
9.75397e-105
5.20201e-110
5.13422e-117
9.95071e-125
3.50427e-133
5.4009e-147
1.81728e-154
9.17276e-160
1.25929e-175
1
0.999998
1
1
1
0.999999
1
1
1
0.999994
0.999996
0.998741
0.871964
0.211075
0.00242773
1.65556e-07
2.08855e-09
1.78981e-12
4.22523e-20
5.74045e-27
3.70889e-36
6.46815e-44
3.83239e-50
1.24737e-56
2.37824e-71
1.8572e-75
2.26162e-80
7.73109e-85
4.1237e-88
1.05443e-91
2.89776e-96
3.38746e-100
1.90965e-104
1.1034e-109
9.39473e-117
3.04049e-124
9.44085e-133
1.25622e-146
5.06627e-154
3.90659e-159
4.10677e-174
1.00001
0.999997
0.999999
1
1
1
1
1
1
0.999995
0.999995
0.999875
0.942409
0.353814
0.0059573
3.13364e-07
2.94234e-09
2.38627e-12
6.38211e-20
7.85409e-27
5.08663e-36
9.0751e-44
5.23693e-50
1.79103e-56
2.13847e-71
2.72511e-75
3.36845e-80
1.15674e-84
6.57524e-88
1.57674e-91
5.19002e-96
6.65642e-100
3.3566e-104
2.60747e-109
1.6348e-116
1.1306e-123
2.0996e-132
2.96515e-146
1.42936e-153
1.66411e-158
1.12227e-172
1.00001
0.999999
1
1
1
1
1
1
1
0.999995
0.999991
0.999998
0.973146
0.505738
0.0137816
6.40813e-07
4.13322e-09
3.15737e-12
1.10421e-19
1.07793e-26
6.99977e-36
1.28206e-43
7.16667e-50
2.5701e-56
3.87466e-71
4.02511e-75
5.04943e-80
1.7437e-84
1.04354e-87
2.34631e-91
9.68863e-96
1.22599e-99
5.37079e-104
6.24675e-109
2.91484e-116
3.83568e-123
4.4868e-132
7.10285e-146
4.07423e-153
7.08737e-158
2.65163e-171
1.00001
0.999999
1
1
0.999997
1
1
1
1
0.999993
0.999988
0.999999
0.986256
0.629187
0.0286782
1.39246e-06
5.75454e-09
4.13808e-12
2.16029e-19
1.4821e-26
9.6561e-36
1.82169e-43
9.81937e-50
3.68217e-56
6.22473e-71
5.97964e-75
7.61548e-80
2.64975e-84
1.64695e-87
3.49468e-91
1.87077e-95
2.11691e-99
7.94412e-104
1.41021e-108
5.94605e-116
1.05102e-122
1.09716e-131
1.76827e-145
1.16831e-152
3.018e-157
5.55071e-170
1.00002
0.999999
1
1
0.999993
1
1
1
0.999999
0.99999
0.999986
1
0.992007
0.713849
0.051553
3.14642e-06
7.89575e-09
5.3645e-12
4.56181e-19
2.03931e-26
1.33427e-35
2.60054e-43
1.34697e-49
5.26283e-56
6.35476e-71
8.9272e-75
1.15523e-79
4.06176e-84
2.58465e-87
5.2527e-91
3.69246e-95
3.44732e-99
1.10469e-103
2.91338e-108
1.55118e-115
2.38597e-122
3.37123e-131
5.29527e-145
3.35064e-152
1.28596e-156
1.04916e-168
1.00001
0.999999
1
0.999994
0.999991
0.999999
1
1
0.999998
0.999987
0.999985
1
0.994517
0.765552
0.0783358
7.22804e-06
1.06258e-08
6.87364e-12
9.8564e-19
2.80583e-26
1.84566e-35
3.72566e-43
1.85022e-49
7.49975e-56
1.11563e-70
1.33832e-74
1.76223e-79
6.28472e-84
4.03687e-87
8.05649e-91
7.35298e-95
5.3459e-99
1.47614e-103
5.51718e-108
5.04227e-115
4.91272e-122
1.13222e-130
2.93543e-144
9.55905e-152
5.49183e-156
1.818e-167
1.00001
0.999999
1
0.999991
0.999991
0.999999
1
0.999999
0.999998
0.999983
0.999984
1
0.995533
0.795164
0.102462
1.64887e-05
1.39762e-08
8.7038e-12
2.09079e-18
3.85816e-26
2.55478e-35
5.35103e-43
2.54613e-49
1.06521e-55
1.58442e-70
2.01324e-74
2.70276e-79
9.8212e-84
6.28606e-87
1.27875e-90
1.46023e-94
8.00618e-99
1.96277e-103
9.75392e-108
1.70256e-114
1.05052e-121
3.47977e-130
1.53976e-143
2.70806e-151
2.35524e-155
2.92432e-166
1.00001
1
1
0.999989
0.999993
1
1
0.999999
0.999997
0.99998
0.999983
1
0.995882
0.812271
0.120691
3.6419e-05
1.79325e-08
1.08947e-11
4.24348e-18
5.3007e-26
3.53803e-35
7.69724e-43
3.51279e-49
1.50779e-55
2.42878e-70
3.03708e-74
4.16746e-79
1.55067e-83
9.78578e-87
2.13251e-90
2.86781e-94
1.18342e-98
2.7741e-103
1.65689e-107
5.1562e-114
2.78167e-121
9.75363e-130
1.11023e-142
7.66065e-151
1.01533e-154
4.41223e-165
1
1
1
0.999992
0.999995
1
1
1
0.999996
0.999976
0.999985
1.00001
0.996007
0.822418
0.133973
7.59824e-05
2.24506e-08
1.34858e-11
8.13045e-18
7.27601e-26
4.90177e-35
1.10787e-42
4.86393e-49
2.12729e-55
4.20961e-70
4.59232e-74
6.46028e-79
2.47398e-83
1.52875e-86
3.78131e-90
5.54479e-94
1.78946e-98
4.73439e-103
2.81332e-107
1.34859e-113
9.86281e-121
2.87943e-129
6.89924e-142
2.19794e-150
4.39344e-154
6.29981e-164
1
1
0.999999
0.999992
0.999996
1
1
1
0.999995
0.99997
0.999986
1.00001
0.996106
0.828411
0.143831
0.000146981
2.75181e-08
1.65128e-11
1.46338e-17
9.97917e-26
6.7945e-35
1.59415e-42
6.76792e-49
2.9928e-55
4.31447e-70
6.95792e-74
1.00687e-78
3.98746e-83
2.40812e-86
7.14551e-90
1.05455e-93
2.9361e-98
1.11898e-102
5.02735e-107
3.14302e-113
3.84761e-120
1.08263e-128
3.39021e-141
6.54448e-150
1.89996e-153
8.57721e-163
1
1
0.999999
0.999994
0.999997
1
1
1
0.999993
0.999962
0.999986
1.00001
0.996236
0.831419
0.151417
0.000261547
3.32787e-08
2.00013e-11
2.47569e-17
1.36773e-25
9.42397e-35
2.29139e-42
9.47833e-49
4.20162e-55
7.95725e-70
1.05619e-73
1.57798e-78
6.48863e-83
3.84647e-86
1.4224e-89
1.97772e-93
5.66608e-98
3.33757e-102
9.98084e-107
6.97797e-113
1.31667e-119
5.13164e-128
1.73463e-140
2.05661e-149
8.16688e-153
1.12119e-161
1
1
0.999999
0.999995
0.999997
1
1
1
0.999991
0.999953
0.999986
1.00001
0.996385
0.832178
0.15753
0.000429525
4.02521e-08
2.39568e-11
3.95164e-17
1.87365e-25
1.30816e-34
3.28767e-42
1.33835e-48
5.89299e-55
1.17789e-69
1.6064e-73
2.48726e-78
1.065e-82
6.26702e-86