/*--------------------------------*- C++ -*----------------------------------*\
| =========                 |                                                 |
| \\      /  F ield         | OpenFOAM: The Open Source CFD Toolbox           |
|  \\    /   O peration     | Version:  v2012                                 |
|   \\  /    A nd           | Website:  www.openfoam.com                      |
|    \\/     M anipulation  |                                                 |
\*---------------------------------------------------------------------------*/
FoamFile
{
    version     2.0;
    format      ascii;
    class       surfaceScalarField;
    location    "0.85";
    object      phi;
}
// * * * * * * * * * * * * * * * * * * * * * * * * * * * * * * * * * * * * * //

dimensions      [0 3 -1 0 0 0 0];
oriented        oriented;


internalField   nonuniform List<scalar> 
8162
(
-1.32494e-08
-1.13336e-07
-3.27258e-15
-1.47067e-08
-1.15224e-07
-3.04873e-15
-1.61699e-08
-1.16831e-07
-2.87244e-15
-1.76324e-08
-1.18027e-07
-2.75055e-15
-1.90874e-08
-1.18734e-07
-2.64548e-15
-2.05281e-08
-1.18862e-07
-2.57232e-15
-2.19475e-08
-1.18351e-07
-2.47891e-15
-2.33382e-08
-1.17137e-07
-2.39949e-15
-2.46927e-08
-1.15154e-07
-2.30302e-15
-2.60033e-08
-1.12369e-07
-2.22361e-15
-2.72611e-08
-1.08706e-07
-2.08847e-15
-2.84569e-08
-1.04123e-07
-2.17997e-15
-2.95811e-08
-9.8567e-08
-1.98875e-15
-3.06232e-08
-9.19811e-08
-1.87213e-15
-3.15718e-08
-8.43155e-08
-1.76483e-15
-3.2415e-08
-7.55211e-08
-1.65949e-15
-3.31399e-08
-6.5556e-08
-1.55824e-15
-3.3733e-08
-5.43793e-08
-1.45725e-15
-3.4181e-08
-4.19641e-08
-1.35514e-15
-2.82916e-08
-1.25128e-15
-1.17623e-08
-1.07829e-07
-4.12971e-15
-1.31809e-08
-1.0987e-07
-3.83867e-15
-1.46129e-08
-1.11904e-07
-3.63135e-15
-1.60534e-08
-1.13784e-07
-3.43472e-15
-1.74968e-08
-1.15387e-07
-3.18372e-15
-1.89375e-08
-1.16586e-07
-2.98633e-15
-2.03693e-08
-1.17302e-07
-2.8051e-15
-2.17861e-08
-1.17446e-07
-2.69031e-15
-2.31812e-08
-1.16955e-07
-2.56295e-15
-2.45477e-08
-1.1577e-07
-2.46425e-15
-2.58783e-08
-1.13824e-07
-2.35526e-15
-2.71652e-08
-1.11082e-07
-2.26617e-15
-2.83998e-08
-1.07471e-07
-2.11625e-15
-2.95727e-08
-1.0295e-07
-2.23531e-15
-3.06743e-08
-9.74654e-08
-2.02888e-15
-3.16939e-08
-9.09615e-08
-1.90683e-15
-3.26199e-08
-8.33895e-08
-1.79489e-15
-3.34402e-08
-7.47009e-08
-1.68703e-15
-3.41417e-08
-6.48545e-08
-1.58323e-15
-3.47108e-08
-5.38101e-08
-1.48078e-15
-3.51337e-08
-4.15412e-08
-1.3768e-15
-2.80297e-08
-1.27062e-15
2.67462e-11
-7.49208e-09
2.75112e-15
2.76609e-10
-2.29448e-08
4.97249e-17
8.94431e-10
-4.47112e-08
3.46692e-16
5.34093e-10
-6.95364e-08
-1.62439e-14
-5.21791e-10
-7.9259e-08
-1.41357e-14
-1.74445e-09
-8.67997e-08
-1.10907e-15
-2.04949e-09
-9.49571e-08
1.44206e-14
-9.1579e-10
-9.32405e-08
2.59692e-15
-7.74237e-10
-7.80454e-08
-4.32818e-15
-8.55363e-08
-9.43959e-15
-6.23112e-09
-9.93993e-08
-8.11057e-15
-7.56747e-09
-1.00639e-07
-7.03316e-15
-8.91605e-09
-1.01692e-07
-6.03038e-15
-1.02827e-08
-1.02956e-07
-5.31339e-15
-1.16658e-08
-1.04555e-07
-4.62283e-15
-1.30643e-08
-1.06431e-07
-4.15078e-15
-1.44754e-08
-1.08459e-07
-3.66538e-15
-1.58959e-08
-1.10483e-07
-3.39091e-15
-1.73217e-08
-1.12358e-07
-3.25097e-15
-1.87481e-08
-1.13961e-07
-3.05475e-15
-2.017e-08
-1.15164e-07
-2.92678e-15
-2.15821e-08
-1.1589e-07
-2.77254e-15
-2.29784e-08
-1.16049e-07
-2.68456e-15
-2.43528e-08
-1.15581e-07
-2.56693e-15
-2.56985e-08
-1.14425e-07
-2.47731e-15
-2.70086e-08
-1.12514e-07
-2.37319e-15
-2.82751e-08
-1.09816e-07
-2.28489e-15
-2.94896e-08
-1.06257e-07
-2.12596e-15
-3.06425e-08
-1.01797e-07
-2.26188e-15
-3.17243e-08
-9.63836e-08
-2.0575e-15
-3.27239e-08
-8.99619e-08
-1.93205e-15
-3.36297e-08
-8.24837e-08
-1.81731e-15
-3.44294e-08
-7.39013e-08
-1.70788e-15
-3.51097e-08
-6.41742e-08
-1.60269e-15
-3.56567e-08
-5.3263e-08
-1.49964e-15
-3.60564e-08
-4.11416e-08
-1.39447e-15
-2.77923e-08
-1.28651e-15
2.3543e-11
-7.51562e-09
2.25413e-15
2.50572e-10
-2.31718e-08
-2.3624e-15
7.5128e-10
-4.5212e-08
-4.3189e-15
3.16881e-10
-6.91019e-08
-4.36324e-15
-1.22855e-09
-7.77136e-08
-7.33873e-15
-2.80104e-09
-8.52272e-08
-1.35266e-15
-3.53699e-09
-9.42212e-08
1.13671e-15
-2.6688e-09
-9.41087e-08
-7.44886e-15
-1.37201e-09
-7.93421e-08
-4.5758e-15
-2.87857e-09
-8.40297e-08
-8.78811e-15
-4.41022e-09
-9.10966e-08
-1.05638e-14
-5.90891e-09
-9.55223e-08
-9.55009e-15
-7.32256e-09
-9.79856e-08
-8.38851e-15
-8.70187e-09
-9.92594e-08
-7.48781e-15
-1.00756e-08
-1.00318e-07
-6.43736e-15
-1.14558e-08
-1.01576e-07
-5.81065e-15
-1.28451e-08
-1.03166e-07
-4.93015e-15
-1.42443e-08
-1.05032e-07
-4.51266e-15
-1.5652e-08
-1.07051e-07
-4.14819e-15
-1.70659e-08
-1.09069e-07
-3.80716e-15
-1.84824e-08
-1.10942e-07
-3.55731e-15
-1.98976e-08
-1.12546e-07
-3.26442e-15
-2.13069e-08
-1.13755e-07
-3.08399e-15
-2.27051e-08
-1.14492e-07
-2.88227e-15
-2.40869e-08
-1.14668e-07
-2.76906e-15
-2.54463e-08
-1.14222e-07
-2.62751e-15
-2.67767e-08
-1.13094e-07
-2.52372e-15
-2.80712e-08
-1.11219e-07
-2.40942e-15
-2.93222e-08
-1.08565e-07
-2.31198e-15
-3.05209e-08
-1.05058e-07
-2.13883e-15
-3.1658e-08
-1.0066e-07
-2.29922e-15
-3.27236e-08
-9.53179e-08
-2.08414e-15
-3.37068e-08
-8.89787e-08
-1.95501e-15
-3.45957e-08
-8.15948e-08
-1.83772e-15
-3.53778e-08
-7.31193e-08
-1.72678e-15
-3.60396e-08
-6.35124e-08
-1.62028e-15
-3.6567e-08
-5.27354e-08
-1.51655e-15
-3.69459e-08
-4.07627e-08
-1.41001e-15
-2.75772e-08
-1.3003e-15
1.99733e-11
-7.53559e-09
1.63526e-15
2.16933e-10
-2.33688e-08
-2.75182e-15
6.34793e-10
-4.56299e-08
9.58922e-16
-2.76134e-11
-6.84395e-08
-1.14389e-14
-1.999e-09
-7.57422e-08
-3.4808e-15
-3.77018e-09
-8.3456e-08
6.33122e-15
-4.81643e-09
-9.31749e-08
-6.64318e-16
-4.01975e-09
-9.49053e-08
-7.99527e-15
-1.75509e-09
-8.16068e-08
-2.66517e-15
-3.42378e-09
-8.2361e-08
-9.3535e-15
-5.11848e-09
-8.94019e-08
-1.14621e-14
-6.73961e-09
-9.39012e-08
-9.87263e-15
-8.23587e-09
-9.64893e-08
-8.74629e-15
-9.66121e-09
-9.7834e-08
-7.96971e-15
-1.1064e-08
-9.89155e-08
-6.74847e-15
-1.24619e-08
-1.00178e-07
-6.13172e-15
-1.38628e-08
-1.01765e-07
-5.09499e-15
-1.52689e-08
-1.03625e-07
-4.62261e-15
-1.66803e-08
-1.0564e-07
-4.08252e-15
-1.80952e-08
-1.07654e-07
-3.74968e-15
-1.95107e-08
-1.09526e-07
-3.57034e-15
-2.09231e-08
-1.11133e-07
-3.30037e-15
-2.23279e-08
-1.1235e-07
-3.13491e-15
-2.37206e-08
-1.131e-07
-2.92556e-15
-2.50957e-08
-1.13292e-07
-2.8069e-15
-2.64475e-08
-1.1287e-07
-2.6546e-15
-2.77696e-08
-1.11772e-07
-2.54329e-15
-2.90552e-08
-1.09934e-07
-2.42548e-15
-3.02966e-08
-1.07323e-07
-2.32305e-15
-3.14853e-08
-1.03869e-07
-2.14058e-15
-3.26116e-08
-9.95333e-08
-2.32488e-15
-3.36658e-08
-9.42637e-08
-2.10409e-15
-3.46369e-08
-8.80077e-08
-1.97424e-15
-3.55127e-08
-8.0719e-08
-1.85625e-15
-3.62808e-08
-7.23514e-08
-1.74442e-15
-3.69273e-08
-6.28658e-08
-1.63671e-15
-3.74383e-08
-5.22243e-08
-1.53206e-15
-3.77992e-08
-4.04018e-08
-1.42371e-15
-3.79944e-08
-2.73818e-08
-1.31192e-15
-1.31618e-08
-1.18985e-15
1.62346e-11
-7.55184e-09
1.69161e-16
1.79745e-10
-2.35323e-08
1.24256e-15
5.34095e-10
-4.59843e-08
6.62154e-16
-3.90645e-10
-6.75147e-08
-1.369e-14
-2.53902e-09
-7.35938e-08
-7.23955e-15
-4.32338e-09
-8.16716e-08
-6.23243e-15
-5.4682e-09
-9.20301e-08
-6.13234e-15
-4.57453e-09
-9.5799e-08
-6.42693e-15
-1.73632e-09
-8.4445e-08
-5.39342e-16
-3.73115e-09
-8.03662e-08
-1.25033e-14
-5.60542e-09
-8.75276e-08
-1.19427e-14
-7.35112e-09
-9.21555e-08
-1.03115e-14
-8.93753e-09
-9.49029e-08
-9.32038e-15
-1.04137e-08
-9.63579e-08
-8.21712e-15
-1.18509e-08
-9.74783e-08
-7.10434e-15
-1.32723e-08
-9.87568e-08
-6.23981e-15
-1.46919e-08
-1.00345e-07
-5.16643e-15
-1.6113e-08
-1.02204e-07
-4.76689e-15
-1.75371e-08
-1.04215e-07
-4.24043e-15
-1.89626e-08
-1.06229e-07
-3.87812e-15
-2.0387e-08
-1.08102e-07
-3.67132e-15
-2.18066e-08
-1.09714e-07
-3.36141e-15
-2.32171e-08
-1.10939e-07
-3.17283e-15
-2.46138e-08
-1.11703e-07
-2.94624e-15
-2.59916e-08
-1.11915e-07
-2.8226e-15
-2.73447e-08
-1.11517e-07
-2.66842e-15
-2.86669e-08
-1.1045e-07
-2.55546e-15
-2.99513e-08
-1.08649e-07
-2.43784e-15
-3.11903e-08
-1.06084e-07
-2.33137e-15
-3.23754e-08
-1.02684e-07
-2.14005e-15
-3.3497e-08
-9.84116e-08
-2.34166e-15
-3.45452e-08
-9.32154e-08
-2.1194e-15
-3.5509e-08
-8.70439e-08
-1.99067e-15
-3.63763e-08
-7.98517e-08
-1.87286e-15
-3.71344e-08
-7.15934e-08
-1.76056e-15
-3.77695e-08
-6.22307e-08
-1.65172e-15
-3.82673e-08
-5.17263e-08
-1.54596e-15
-3.86133e-08
-4.00559e-08
-1.43558e-15
-3.87917e-08
-2.72032e-08
-1.32157e-15
-1.31662e-08
-1.19778e-15
1.25834e-11
-7.56442e-09
2.72763e-16
1.42786e-10
-2.36625e-08
-3.22035e-15
4.56615e-10
-4.62981e-08
4.64146e-15
-6.48178e-10
-6.64099e-08
-1.84007e-14
-2.78398e-09
-7.1458e-08
-7.52264e-15
-4.52695e-09
-7.99287e-08
-7.75477e-15
-5.61577e-09
-9.09414e-08
-2.05393e-14
-4.60771e-09
-9.6807e-08
-9.23251e-15
-1.45684e-09
-8.75958e-08
2.23989e-15
-3.79574e-09
-7.80273e-08
-1.38446e-14
-5.86929e-09
-8.54541e-08
-1.18639e-14
-7.73302e-09
-9.02918e-08
-1.09449e-14
-9.4135e-09
-9.32224e-08
-9.69369e-15
-1.09439e-08
-9.48275e-08
-7.9427e-15
-1.24198e-08
-9.60024e-08
-7.23041e-15
-1.38705e-08
-9.7306e-08
-6.12175e-15
-1.5316e-08
-9.88998e-08
-5.14529e-15
-1.67607e-08
-1.0076e-07
-4.83615e-15
-1.82071e-08
-1.02769e-07
-4.27569e-15
-1.96537e-08
-1.04782e-07
-3.86941e-15
-2.10978e-08
-1.06658e-07
-3.70634e-15
-2.25355e-08
-1.08276e-07
-3.42563e-15
-2.39626e-08
-1.09512e-07
-3.25052e-15
-2.53742e-08
-1.10291e-07
-3.01577e-15
-2.67649e-08
-1.10524e-07
-2.87306e-15
-2.81292e-08
-1.10153e-07
-2.70041e-15
-2.94605e-08
-1.09118e-07
-2.56963e-15
-3.07523e-08
-1.07358e-07
-2.44403e-15
-3.19967e-08
-1.0484e-07
-2.32981e-15
-3.31854e-08
-1.01496e-07
-2.13154e-15
-3.43088e-08
-9.7288e-08
-2.34715e-15
-3.53571e-08
-9.2167e-08
-2.12772e-15
-3.63191e-08
-8.6082e-08
-2.00251e-15
-3.71828e-08
-7.89881e-08
-1.88658e-15
-3.79354e-08
-7.08409e-08
-1.77468e-15
-3.85631e-08
-6.1603e-08
-1.66517e-15
-3.90514e-08
-5.12378e-08
-1.55835e-15
-3.93859e-08
-3.97215e-08
-1.44599e-15
-3.95506e-08
-2.70384e-08
-1.32989e-15
-3.95304e-08
-1.31866e-08
-1.20481e-15
1.80852e-09
-1.08057e-15
9.21785e-12
-7.57365e-09
-5.01615e-16
1.09171e-10
-2.37625e-08
1.21782e-15
4.16067e-10
-4.66049e-08
7.70798e-15
-8.12588e-10
-6.51813e-08
-2.15515e-14
-2.98176e-09
-6.92888e-08
-1.30125e-14
-4.83629e-09
-7.80741e-08
-1.1301e-14
-5.91465e-09
-8.9863e-08
-1.24007e-14
-5.07568e-09
-9.7646e-08
-3.61105e-15
-1.87784e-09
-9.07937e-08
-1.39324e-14
-3.68695e-09
-7.62182e-08
-1.26724e-14
-5.92838e-09
-8.32126e-08
-1.05939e-14
-7.8925e-09
-8.83278e-08
-1.09554e-14
-9.66389e-09
-9.1451e-08
-9.98939e-15
-1.12496e-08
-9.32417e-08
-7.68267e-15
-1.27659e-08
-9.44862e-08
-7.10994e-15
-1.42505e-08
-9.58214e-08
-5.99503e-15
-1.57282e-08
-9.74221e-08
-5.0808e-15
-1.72046e-08
-9.92833e-08
-4.86439e-15
-1.86827e-08
-1.01291e-07
-4.10512e-15
-2.01606e-08
-1.03304e-07
-3.68643e-15
-2.16353e-08
-1.05183e-07
-3.56615e-15
-2.31026e-08
-1.06809e-07
-3.29631e-15
-2.45575e-08
-1.08057e-07
-3.13242e-15
-2.5995e-08
-1.08854e-07
-2.92013e-15
-2.74094e-08
-1.0911e-07
-2.80165e-15
-2.87949e-08
-1.08767e-07
-2.65398e-15
-3.0145e-08
-1.07768e-07
-2.53835e-15
-3.1453e-08
-1.0605e-07
-2.42626e-15
-3.27112e-08
-1.03582e-07
-2.31674e-15
-3.39111e-08
-1.00296e-07
-2.11924e-15
-3.50432e-08
-9.61557e-08
-2.35247e-15
-3.60978e-08
-9.11124e-08
-2.13267e-15
-3.70638e-08
-8.5116e-08
-2.01175e-15
-3.7929e-08
-7.81228e-08
-1.8981e-15
-3.86809e-08
-7.00892e-08
-1.78698e-15
-3.93055e-08
-6.09785e-08
-1.67711e-15
-3.97883e-08
-5.07548e-08
-1.5694e-15
-4.01148e-08
-3.9395e-08
-1.45524e-15
-4.02691e-08
-2.68839e-08
-1.33735e-15
-4.0236e-08
-1.322e-08
-1.21161e-15
1.57146e-09
-1.08952e-15
6.21563e-12
-7.57987e-09
-4.72224e-17
7.98516e-11
-2.38361e-08
-3.29417e-15
4.06482e-10
-4.69315e-08
3.76849e-15
-1.0236e-09
-6.37513e-08
-1.83964e-14
-3.4696e-09
-6.68429e-08
-1.4947e-14
-5.65254e-09
-7.58912e-08
-1.38332e-14
-6.92831e-09
-8.85873e-08
-1.36889e-14
-6.61025e-09
-9.7964e-08
3.08195e-16
-3.67418e-09
-9.37299e-08
-8.37828e-15
-3.4686e-09
-7.64237e-08
4.20875e-15
-5.77669e-09
-8.09045e-08
-1.02087e-14
-7.83035e-09
-8.62741e-08
-1.01805e-14
-9.6877e-09
-8.95936e-08
-1.00566e-14
-1.13331e-08
-9.15963e-08
-8.10685e-15
-1.28907e-08
-9.29285e-08
-7.19244e-15
-1.44136e-08
-9.42985e-08
-6.25137e-15
-1.5929e-08
-9.59067e-08
-5.21951e-15
-1.74447e-08
-9.77677e-08
-4.9626e-15
-1.89631e-08
-9.97724e-08
-4.26969e-15
-2.04822e-08
-1.01785e-07
-3.84373e-15
-2.19981e-08
-1.03667e-07
-3.73979e-15
-2.35056e-08
-1.05301e-07
-3.44348e-15
-2.49994e-08
-1.06564e-07
-3.23379e-15
-2.64736e-08
-1.0738e-07
-2.99206e-15
-2.79222e-08
-1.07661e-07
-2.84308e-15
-2.9339e-08
-1.0735e-07
-2.67626e-15
-3.07175e-08
-1.06389e-07
-2.54105e-15
-3.20506e-08
-1.04717e-07
-2.42137e-15
-3.33309e-08
-1.02302e-07
-2.30541e-15
-3.45496e-08
-9.90773e-08
-2.10653e-15
-3.56976e-08
-9.50076e-08
-2.35623e-15
-3.67649e-08
-9.0045e-08
-2.13338e-15
-3.77407e-08
-8.41403e-08
-2.01748e-15
-3.86129e-08
-7.72506e-08
-1.90693e-15
-3.93689e-08
-6.93333e-08
-1.79726e-15
-3.99948e-08
-6.03525e-08
-1.68756e-15
-4.04762e-08
-5.02732e-08
-1.57931e-15
-4.07985e-08
-3.90728e-08
-1.46366e-15
-4.09458e-08
-2.67365e-08
-1.34436e-15
-4.09028e-08
-1.32632e-08
-1.21842e-15
1.32173e-09
-1.09847e-15
3.5537e-12
-7.58344e-09
-1.16104e-15
5.60881e-11
-2.38886e-08
1.21928e-16
4.00656e-10
-4.7276e-08
5.98701e-15
-1.39862e-09
-6.19521e-08
-2.11702e-14
-4.31428e-09
-6.39272e-08
-1.46376e-14
-6.84635e-09
-7.3359e-08
-1.06432e-14
-8.39072e-09
-8.70429e-08
-1.91965e-14
-8.46348e-09
-9.78912e-08
-2.01997e-15
-5.69304e-09
-9.65005e-08
-6.49885e-15
-3.00427e-09
-7.91124e-08
6.25424e-15
-5.38116e-09
-7.85276e-08
-1.10596e-14
-7.53779e-09
-8.41175e-08
-1.01091e-14
-9.48154e-09
-8.76498e-08
-1.00348e-14
-1.11979e-08
-8.988e-08
-8.33955e-15
-1.28003e-08
-9.13261e-08
-7.2237e-15
-1.43669e-08
-9.27319e-08
-6.17827e-15
-1.59253e-08
-9.43483e-08
-5.29434e-15
-1.74871e-08
-9.62058e-08
-4.82733e-15
-1.90539e-08
-9.82056e-08
-4.21866e-15
-2.06231e-08
-1.00216e-07
-3.67937e-15
-2.21897e-08
-1.02101e-07
-3.52025e-15
-2.37476e-08
-1.03743e-07
-3.21639e-15
-2.52904e-08
-1.05021e-07
-3.02986e-15
-2.68114e-08
-1.05859e-07
-2.83962e-15
-2.83041e-08
-1.06168e-07
-2.73267e-15
-2.97619e-08
-1.05892e-07
-2.60479e-15
-3.11777e-08
-1.04973e-07
-2.49145e-15
-3.25447e-08
-1.0335e-07
-2.38983e-15
-3.38549e-08
-1.00992e-07
-2.28244e-15
-3.51e-08
-9.78322e-08
-2.09084e-15
-3.62706e-08
-9.38369e-08
-2.3491e-15
-3.73571e-08
-8.89585e-08
-2.13182e-15
-3.83485e-08
-8.31489e-08
-2.02126e-15
-3.92329e-08
-7.63662e-08
-1.91392e-15
-3.99979e-08
-6.85685e-08
-1.80596e-15
-4.06296e-08
-5.97208e-08
-1.69671e-15
-4.11136e-08
-4.97889e-08
-1.58822e-15
-4.14355e-08
-3.87509e-08
-1.47148e-15
-4.15793e-08
-2.65925e-08
-1.35108e-15
-4.15298e-08
-1.3313e-08
-1.22521e-15
1.06233e-09
-1.1074e-15
1.13506e-12
-7.58458e-09
-1.04447e-15
3.88435e-11
-2.39263e-08
-8.6838e-16
3.61087e-10
-4.75982e-08
5.15769e-15
-1.93801e-09
-5.9653e-08
-1.67192e-14
-5.27953e-09
-6.05857e-08
-1.93611e-14
-7.95774e-09
-7.06808e-08
-1.6346e-14
-9.56463e-09
-8.54361e-08
-1.66658e-14
-9.48418e-09
-9.79716e-08
-9.73726e-16
-6.37076e-09
-9.96138e-08
1.06177e-14
-1.95016e-09
-8.35332e-08
-5.62503e-15
-4.7127e-09
-7.5765e-08
-9.04901e-15
-7.02133e-09
-8.1809e-08
-1.07152e-14
-9.05468e-09
-8.56165e-08
-1.01677e-14
-1.08551e-08
-8.80795e-08
-8.01169e-15
-1.25077e-08
-8.96735e-08
-7.17851e-15
-1.41233e-08
-9.11162e-08
-5.99746e-15
-1.57297e-08
-9.2742e-08
-5.07787e-15
-1.73439e-08
-9.45916e-08
-4.32691e-15
-1.8966e-08
-9.65835e-08
-4.09605e-15
-2.05932e-08
-9.85889e-08
-3.80212e-15
-2.22189e-08
-1.00475e-07
-3.78105e-15
-2.38359e-08
-1.02126e-07
-3.45412e-15
-2.54367e-08
-1.0342e-07
-3.18078e-15
-2.70135e-08
-1.04282e-07
-2.93913e-15
-2.85592e-08
-1.04623e-07
-2.7861e-15
-3.00665e-08
-1.04385e-07
-2.63303e-15
-3.15281e-08
-1.03512e-07
-2.49608e-15
-3.29366e-08
-1.01941e-07
-2.38416e-15
-3.42844e-08
-9.96439e-08
-2.26967e-15
-3.55627e-08
-9.65539e-08
-2.07957e-15
-3.67625e-08
-9.2637e-08
-2.33124e-15
-3.78741e-08
-8.78468e-08
-2.12805e-15
-3.88866e-08
-8.21364e-08
-2.02268e-15
-3.97885e-08
-7.54644e-08
-1.91893e-15
-4.05672e-08
-6.779e-08
-1.81305e-15
-4.1209e-08
-5.9079e-08
-1.70465e-15
-4.16998e-08
-4.9298e-08
-1.59624e-15
-4.2025e-08
-3.84258e-08
-1.47879e-15
-4.21687e-08
-2.64486e-08
-1.35754e-15
-4.21159e-08
-1.33661e-08
-1.23189e-15
7.96279e-10
-1.11623e-15
-1.09402e-12
-7.5835e-09
-7.2871e-16
2.97049e-11
-2.39571e-08
2.24572e-15
2.53289e-10
-4.78218e-08
7.31625e-15
-2.57552e-09
-5.68242e-08
-1.38549e-14
-6.16336e-09
-5.69979e-08
-1.61644e-14
-8.83823e-09
-6.80059e-08
-1.13665e-14
-1.03008e-08
-8.39736e-08
-2.15373e-14
-9.66509e-09
-9.86073e-08
-6.77616e-15
-5.93219e-09
-1.03347e-07
1.4217e-15
-5.89162e-10
-8.88761e-08
2.31732e-14
-3.78564e-09
-7.25686e-08
-1.07324e-14
-6.31439e-09
-7.92803e-08
-1.00246e-14
-8.43285e-09
-8.3498e-08
-9.44693e-15
-1.03244e-08
-8.6188e-08
-8.35482e-15
-1.20329e-08
-8.7965e-08
-7.61136e-15
-1.3701e-08
-8.94482e-08
-6.19735e-15
-1.53599e-08
-9.1083e-08
-5.61943e-15
-1.70316e-08
-9.29199e-08
-4.18659e-15
-1.8715e-08
-9.49001e-08
-4.23845e-15
-2.04066e-08
-9.68972e-08
-3.78806e-15
-2.20985e-08
-9.87831e-08
-3.63107e-15
-2.37819e-08
-1.00443e-07
-3.26753e-15
-2.54481e-08
-1.01754e-07
-3.01152e-15
-2.70884e-08
-1.02641e-07
-2.8177e-15
-2.86945e-08
-1.03016e-07
-2.69847e-15
-3.02587e-08
-1.02821e-07
-2.57625e-15
-3.17731e-08
-1.01997e-07
-2.45488e-15
-3.32302e-08
-1.00484e-07
-2.35593e-15
-3.46219e-08
-9.82522e-08
-2.24805e-15
-3.59398e-08
-9.52361e-08
-2.06631e-15
-3.71746e-08
-9.14021e-08
-2.3075e-15
-3.83168e-08
-8.67046e-08
-2.12323e-15
-3.93557e-08
-8.10974e-08
-2.02326e-15
-4.02798e-08
-7.45403e-08
-1.92281e-15
-4.10767e-08
-6.69932e-08
-1.81894e-15
-4.17329e-08
-5.84228e-08
-1.71151e-15
-4.22343e-08
-4.87964e-08
-1.6034e-15
-4.25664e-08
-3.80937e-08
-1.48549e-15
-4.27135e-08
-2.63014e-08
-1.36366e-15
-4.26605e-08
-1.34194e-08
-1.23831e-15
5.26591e-10
-1.12459e-15
-3.16424e-12
-7.58034e-09
-7.53574e-16
2.63279e-11
-2.39866e-08
1.67942e-15
3.17459e-11
-4.78272e-08
1.2147e-15
-3.30627e-09
-5.34863e-08
-1.30272e-14
-7.07347e-09
-5.32307e-08
-1.57346e-14
-9.89241e-09
-6.51869e-08
-1.30573e-14
-1.12814e-08
-8.25847e-08
-2.2765e-14
-1.00912e-08
-9.97974e-08
4.30311e-15
-5.9919e-09
-1.07446e-07
-3.03236e-14
-3.39419e-10
-9.45286e-08
-8.95551e-15
-2.67753e-09
-7.02305e-08
1.34265e-15
-5.4373e-09
-7.65205e-08
-7.69418e-15
-7.64051e-09
-8.12948e-08
-8.00655e-15
-9.62345e-09
-8.42051e-08
-8.54467e-15
-1.13975e-08
-8.61909e-08
-7.39131e-15
-1.31203e-08
-8.77253e-08
-5.6886e-15
-1.48371e-08
-8.93662e-08
-5.73406e-15
-1.65706e-08
-9.11864e-08
-3.85533e-15
-1.83204e-08
-9.31502e-08
-4.31018e-15
-2.00817e-08
-9.5136e-08
-3.94531e-15
-2.18451e-08
-9.70198e-08
-3.7579e-15
-2.36005e-08
-9.86872e-08
-3.33179e-15
-2.53378e-08
-1.00017e-07
-3.02673e-15
-2.70472e-08
-1.00932e-07
-2.82443e-15
-2.87195e-08
-1.01344e-07
-2.69425e-15
-3.03463e-08
-1.01194e-07
-2.57059e-15
-3.19193e-08
-1.00424e-07
-2.44253e-15
-3.34305e-08
-9.89731e-08
-2.34214e-15
-3.48718e-08
-9.68109e-08
-2.23303e-15
-3.62345e-08
-9.38735e-08
-2.05566e-15
-3.75094e-08
-9.0127e-08
-2.29304e-15
-3.86871e-08
-8.55268e-08
-2.11772e-15
-3.97571e-08
-8.00275e-08
-2.02292e-15
-4.07077e-08
-7.35896e-08
-1.92557e-15
-4.1527e-08
-6.6174e-08
-1.82364e-15
-4.22015e-08
-5.77483e-08
-1.7173e-15
-4.27171e-08
-4.82806e-08
-1.60964e-15
-4.30597e-08
-3.77512e-08
-1.49149e-15
-4.32134e-08
-2.61475e-08
-1.36923e-15
-4.31633e-08
-1.34697e-08
-1.24425e-15
2.56198e-10
-1.13228e-15
-4.9198e-12
-7.57541e-09
1.6417e-15
2.29497e-11
-2.40144e-08
9.67547e-16
-3.45326e-10
-4.74588e-08
3.63429e-15
-4.18855e-09
-4.96431e-08
-4.15211e-15
-8.26478e-09
-4.91545e-08
-1.33934e-14
-1.15523e-08
-6.18994e-08
-1.28165e-14
-1.30319e-08
-8.11053e-08
-2.16477e-14
-1.13732e-08
-1.01456e-07
-1.31769e-15
-7.02273e-09
-1.11797e-07
-3.72202e-14
-1.18958e-09
-1.00362e-07
-1.14091e-15
-1.31834e-09
-7.01017e-08
1.55184e-14
-4.3486e-09
-7.34902e-08
-1.02222e-14
-6.67681e-09
-7.89665e-08
-7.73784e-15
-8.75626e-09
-8.21256e-08
-8.19856e-15
-1.0617e-08
-8.43302e-08
-7.22783e-15
-1.24009e-08
-8.59414e-08
-5.72704e-15
-1.41835e-08
-8.75837e-08
-5.94651e-15
-1.59836e-08
-8.93862e-08
-3.8203e-15
-1.78047e-08
-9.13292e-08
-4.2029e-15
-1.96395e-08
-9.33011e-08
-3.74977e-15
-2.14782e-08
-9.51811e-08
-3.57333e-15
-2.33093e-08
-9.68561e-08
-3.19639e-15
-2.51213e-08
-9.82048e-08
-2.93408e-15
-2.69036e-08
-9.91497e-08
-2.76714e-15
-2.8646e-08
-9.96016e-08
-2.64875e-15
-3.03395e-08
-9.95008e-08
-2.53872e-15
-3.19751e-08
-9.87885e-08
-2.41682e-15
-3.35446e-08
-9.74036e-08
-2.32276e-15
-3.50396e-08
-9.5316e-08
-2.21753e-15
-3.64514e-08
-9.24618e-08
-2.04141e-15
-3.77706e-08
-8.88077e-08
-2.28011e-15
-3.89878e-08
-8.43095e-08
-2.11349e-15
-4.00927e-08
-7.89227e-08
-2.02286e-15
-4.10738e-08
-7.26085e-08
-1.92782e-15
-4.19192e-08
-6.53289e-08
-1.82751e-15
-4.26154e-08
-5.7052e-08
-1.72207e-15
-4.31487e-08
-4.77471e-08
-1.61491e-15
-4.35049e-08
-3.7395e-08
-1.49665e-15
-4.36684e-08
-2.59838e-08
-1.37407e-15
-4.36242e-08
-1.35141e-08
-1.2495e-15
-1.20683e-11
-1.13909e-15
-6.43666e-12
-7.56896e-09
2.23205e-15
1.04114e-11
-2.40313e-08
2.60482e-15
-8.77127e-10
-4.65713e-08
-1.14666e-15
-5.23657e-09
-4.52836e-08
-1.55249e-15
-9.79581e-09
-4.45952e-08
-1.02095e-14
-1.37003e-08
-5.7995e-08
-2.1129e-14
-1.51675e-08
-7.96382e-08
-1.53935e-14
-1.27719e-08
-1.03851e-07
4.3017e-15
-7.61526e-09
-1.16954e-07
-1.36151e-14
-1.10256e-09
-1.06874e-07
-5.99863e-16
9.10789e-10
-7.21151e-08
-1.24846e-14
-2.96268e-09
-6.96168e-08
-2.12418e-14
-5.53538e-09
-7.63938e-08
-7.70505e-15
-7.73001e-09
-7.9931e-08
-6.98261e-15
-9.70792e-09
-8.23523e-08
-6.53324e-15
-1.15661e-08
-8.40832e-08
-5.43915e-15
-1.34247e-08
-8.57251e-08
-5.42723e-15
-1.52971e-08
-8.75139e-08
-3.6161e-15
-1.71934e-08
-8.94328e-08
-4.299e-15
-1.91043e-08
-9.13902e-08
-3.74384e-15
-2.10201e-08
-9.32653e-08
-3.47546e-15
-2.29282e-08
-9.4948e-08
-3.08783e-15
-2.48164e-08
-9.63167e-08
-2.84715e-15
-2.6673e-08
-9.7293e-08
-2.71022e-15
-2.84873e-08
-9.77873e-08
-2.59846e-15
-3.02494e-08
-9.77386e-08
-2.501e-15
-3.195e-08
-9.70877e-08
-2.3862e-15
-3.35805e-08
-9.57732e-08
-2.30056e-15
-3.5132e-08
-9.37645e-08
-2.20326e-15
-3.65958e-08
-9.09981e-08
-2.04478e-15
-3.79624e-08
-8.74409e-08
-2.27241e-15
-3.92224e-08
-8.30494e-08
-2.1106e-15
-4.03655e-08
-7.77796e-08
-2.02281e-15
-4.13802e-08
-7.15938e-08
-1.92944e-15
-4.22548e-08
-6.44545e-08
-1.83048e-15
-4.29759e-08
-5.63309e-08
-1.72587e-15
-4.35299e-08
-4.71929e-08
-1.61913e-15
-4.39027e-08
-3.70223e-08
-1.50086e-15
-4.40788e-08
-2.58076e-08
-1.37797e-15
-4.40433e-08
-1.35499e-08
-1.25379e-15
-2.75519e-10
-1.14478e-15
-7.53116e-12
-7.56139e-09
5.05912e-15
-1.51811e-11
-2.40237e-08
-3.50199e-15
-1.48941e-09
-4.50971e-08
-5.53921e-16
-6.30737e-09
-4.04657e-08
1.18519e-15
-1.13668e-08
-3.95357e-08
-7.12632e-15
-1.57017e-08
-5.36601e-08
-1.29508e-14
-1.67746e-08
-7.85653e-08
-2.10172e-14
-1.31089e-08
-1.07517e-07
-5.71501e-15
-6.49265e-09
-1.2357e-07
-1.44346e-14
1.24956e-09
-1.14616e-07
1.02309e-14
4.86177e-09
-7.57272e-08
-1.50493e-14
-1.12366e-09
-6.36315e-08
-4.0069e-14
-4.2213e-09
-7.32962e-08
-7.49403e-15
-6.57202e-09
-7.75803e-08
-6.60393e-15
-8.69636e-09
-8.02279e-08
-6.46102e-15
-1.06488e-08
-8.21307e-08
-5.39812e-15
-1.25924e-08
-8.37816e-08
-5.29198e-15
-1.45422e-08
-8.5564e-08
-3.66495e-15
-1.65155e-08
-8.74595e-08
-4.0675e-15
-1.85027e-08
-8.9403e-08
-3.40893e-15
-2.04948e-08
-9.12732e-08
-3.22958e-15
-2.24787e-08
-9.29641e-08
-2.95028e-15
-2.44419e-08
-9.43536e-08
-2.77222e-15
-2.6372e-08
-9.53629e-08
-2.67349e-15
-2.82577e-08
-9.59016e-08
-2.56767e-15
-3.00885e-08
-9.59078e-08
-2.48144e-15
-3.18546e-08
-9.53215e-08
-2.37214e-15
-3.35469e-08
-9.4081e-08
-2.29172e-15
-3.51564e-08
-9.2155e-08
-2.20024e-15
-3.6674e-08
-8.94807e-08
-2.05153e-15
-3.809e-08
-8.60247e-08
-2.27253e-15
-3.9395e-08
-8.17443e-08
-2.1105e-15
-4.05787e-08
-7.6596e-08
-2.02341e-15
-4.16296e-08
-7.05429e-08
-1.93072e-15
-4.25359e-08
-6.35483e-08
-1.83262e-15
-4.32846e-08
-5.55822e-08
-1.72851e-15
-4.38619e-08
-4.66154e-08
-1.6221e-15
-4.4254e-08
-3.66303e-08
-1.50386e-15
-4.44452e-08
-2.56162e-08
-1.38078e-15
-4.4421e-08
-1.35744e-08
-1.25697e-15
-5.31636e-10
-1.14921e-15
-8.23632e-12
-7.55312e-09
4.28191e-15
-5.44881e-11
-2.39774e-08
8.64423e-15
-2.06435e-09
-4.30871e-08
5.36114e-15
-7.13811e-09
-3.53919e-08
1.33993e-15
-1.24741e-08
-3.41998e-08
-1.40082e-14
-1.68268e-08
-4.93074e-08
-1.89666e-14
-1.70689e-08
-7.83232e-08
-1.35296e-14
-1.18199e-08
-1.12766e-07
-1.77279e-15
-3.689e-09
-1.31701e-07
-7.83156e-15
5.00903e-09
-1.23314e-07
2.3639e-14
1.0025e-08
-8.07432e-08
-1.50887e-14
1.39531e-09
-5.50018e-08
-2.19843e-14
-2.72297e-09
-6.91778e-08
-3.5577e-15
-5.32505e-09
-7.49782e-08
-7.04697e-15
-7.61973e-09
-7.79332e-08
-6.60831e-15
-9.69163e-09
-8.00588e-08
-4.20499e-15
-1.17245e-08
-8.17487e-08
-4.68255e-15
-1.37547e-08
-8.35339e-08
-2.97439e-15
-1.58029e-08
-8.54113e-08
-3.75348e-15
-1.78633e-08
-8.73427e-08
-3.31681e-15
-1.99277e-08
-8.92088e-08
-3.18625e-15
-2.19833e-08
-9.09084e-08
-2.91887e-15
-2.40175e-08
-9.23193e-08
-2.72356e-15
-2.60178e-08
-9.33627e-08
-2.61831e-15
-2.79721e-08
-9.39473e-08
-2.49602e-15
-2.98696e-08
-9.40104e-08
-2.42058e-15
-3.16999e-08
-9.34911e-08
-2.3266e-15
-3.34534e-08
-9.23275e-08
-2.26346e-15
-3.51208e-08
-9.04877e-08
-2.1884e-15
-3.66925e-08
-8.7909e-08
-2.04239e-15
-3.81588e-08
-8.45582e-08
-2.2599e-15
-3.95102e-08
-8.03929e-08
-2.10788e-15
-4.0736e-08
-7.53703e-08
-2.02342e-15
-4.18249e-08
-6.9454e-08
-1.9313e-15
-4.2765e-08
-6.26082e-08
-1.83369e-15
-4.35433e-08
-5.48038e-08
-1.72999e-15
-4.41462e-08
-4.60123e-08
-1.62372e-15
-4.45597e-08
-3.62168e-08
-1.5056e-15
-4.47685e-08
-2.54073e-08
-1.38234e-15
-4.47578e-08
-1.35854e-08
-1.25897e-15
-7.78103e-10
-1.15235e-15
-8.32229e-12
-7.54477e-09
4.82699e-15
-9.63154e-11
-2.38894e-08
2.30699e-15
-2.44807e-09
-4.07354e-08
-1.0322e-14
-7.40292e-09
-3.0437e-08
1.845e-14
-1.25665e-08
-2.90361e-08
-3.4641e-15
-1.64139e-08
-4.546e-08
-7.63208e-15
-1.54293e-08
-7.93077e-08
-1.66313e-14
-8.7768e-09
-1.19418e-07
-1.80075e-14
1.82659e-10
-1.40661e-07
-8.58428e-15
8.75439e-09
-1.31886e-07
-4.61595e-15
1.46254e-08
-8.66141e-08
1.75089e-15
4.67146e-09
-4.5048e-08
-1.84663e-14
-1.03324e-09
-6.3473e-08
-4.10814e-15
-4.05231e-09
-7.19591e-08
-6.78204e-15
-6.53188e-09
-7.54537e-08
-6.7501e-15
-8.74519e-09
-7.78454e-08
-3.19134e-15
-1.08651e-08
-7.96288e-08
-4.25005e-15
-1.2973e-08
-8.1426e-08
-2.49094e-15
-1.50889e-08
-8.32954e-08
-3.5246e-15
-1.72151e-08
-8.52165e-08
-3.17207e-15
-1.93438e-08
-8.70801e-08
-3.00431e-15
-2.14639e-08
-8.87882e-08
-2.74135e-15
-2.35626e-08
-9.02207e-08
-2.57743e-15
-2.56271e-08
-9.12982e-08
-2.53036e-15
-2.76452e-08
-9.19292e-08
-2.43634e-15
-2.96054e-08
-9.20502e-08
-2.3899e-15
-3.14968e-08
-9.15996e-08
-2.31213e-15
-3.33093e-08
-9.05151e-08
-2.25869e-15
-3.50331e-08
-8.8764e-08
-2.19237e-15
-3.66583e-08
-8.62839e-08
-2.03809e-15
-3.81748e-08
-8.30416e-08
-2.25482e-15
-3.95728e-08
-7.89948e-08
-2.10735e-15
-4.08414e-08
-7.41016e-08
-2.02378e-15
-4.19694e-08
-6.8326e-08
-1.93146e-15
-4.29447e-08
-6.16331e-08
-1.83388e-15
-4.37543e-08
-5.39942e-08
-1.73031e-15
-4.43845e-08
-4.53819e-08
-1.62394e-15
-4.48214e-08
-3.578e-08
-1.50591e-15
-4.50496e-08
-2.51789e-08
-1.38261e-15
-4.50545e-08
-1.35808e-08
-1.25978e-15
-1.01282e-09
-1.15419e-15
-7.80158e-12
-7.53694e-09
3.33728e-15
-1.2551e-10
-2.37716e-08
4.12149e-15
-2.51403e-09
-3.83468e-08
8.51269e-15
-6.83013e-09
-2.6121e-08
-4.62023e-15
-1.11989e-08
-2.46674e-08
-1.48867e-14
-1.39154e-08
-4.27435e-08
-1.10307e-15
-1.12899e-08
-8.19334e-08
-3.05639e-14
-3.84967e-09
-1.26858e-07
-6.79713e-15
4.77391e-09
-1.49284e-07
-3.18295e-15
1.18138e-08
-1.38926e-07
-2.36439e-14
1.71335e-08
-9.19339e-08
-1.00457e-14
8.06043e-09
-3.59749e-08
-4.56522e-14
7.1468e-10
-5.61272e-08
-1.4996e-14
-2.854e-09
-6.83904e-08
-6.85084e-15
-5.51687e-09
-7.27908e-08
-6.98739e-15
-7.86758e-09
-7.54947e-08
-4.51174e-15
-1.00627e-08
-7.74336e-08
-5.07717e-15
-1.22359e-08
-7.92528e-08
-3.51429e-15
-1.44059e-08
-8.11253e-08
-3.88187e-15
-1.65855e-08
-8.30369e-08
-3.46105e-15
-1.87671e-08
-8.48986e-08
-3.28115e-15
-2.09412e-08
-8.66141e-08
-2.94879e-15
-2.30951e-08
-8.80669e-08
-2.65398e-15
-2.52159e-08
-8.91773e-08
-2.52229e-15
-2.7291e-08
-8.98541e-08
-2.37015e-15
-2.93082e-08
-9.00329e-08
-2.32079e-15
-3.12561e-08
-8.96516e-08
-2.2594e-15
-3.31241e-08
-8.86472e-08
-2.22692e-15
-3.49016e-08
-8.69865e-08
-2.18147e-15
-3.65783e-08
-8.46072e-08
-2.03207e-15
-3.81438e-08
-8.1476e-08
-2.25013e-15
-3.95878e-08
-7.75508e-08
-2.10616e-15
-4.08993e-08
-7.27901e-08
-2.02338e-15
-4.20667e-08
-6.71586e-08
-1.93079e-15
-4.3078e-08
-6.06219e-08
-1.83304e-15
-4.39199e-08
-5.31523e-08
-1.72945e-15
-4.45787e-08
-4.47229e-08
-1.6229e-15
-4.50404e-08
-3.53182e-08
-1.50491e-15
-4.52898e-08
-2.49294e-08
-1.38168e-15
-4.5312e-08
-1.35589e-08
-1.25945e-15
-1.23392e-09
-1.15483e-15
-6.41665e-12
-7.53052e-09
9.70654e-16
-1.2349e-10
-2.36546e-08
-2.57896e-15
-2.20025e-09
-3.62701e-08
-1.27108e-14
-5.29143e-09
-2.30297e-08
8.8322e-15
-8.16291e-09
-2.1796e-08
-4.5346e-15
-9.04927e-09
-4.18571e-08
-2.89232e-15
-4.47858e-09
-8.65041e-08
-2.54529e-14
2.84091e-09
-1.34178e-07
-2.83339e-15
9.72345e-09
-1.56167e-07
-9.04876e-15
1.39907e-08
-1.43193e-07
-2.84251e-14
1.70587e-08
-9.50022e-08
-4.02763e-14
1.01467e-08
-2.90625e-08
1.379e-14
2.23246e-09
-4.82129e-08
-1.20606e-14
-1.82573e-09
-6.43322e-08
-6.12893e-15
-4.6539e-09
-6.99627e-08
-5.43811e-15
-7.10653e-09
-7.30421e-08
-4.2746e-15
-9.35939e-09
-7.51807e-08
-4.14564e-15
-1.15755e-08
-7.70367e-08
-2.92901e-15
-1.37816e-08
-7.89193e-08
-3.39134e-15
-1.59978e-08
-8.08207e-08
-3.20079e-15
-1.82176e-08
-8.26788e-08
-3.05349e-15
-2.04329e-08
-8.43987e-08
-2.75581e-15
-2.26308e-08
-8.5869e-08
-2.50807e-15
-2.47983e-08
-8.70098e-08
-2.44245e-15
-2.6922e-08
-8.77304e-08
-2.3243e-15
-2.89893e-08
-8.79657e-08
-2.30257e-15
-3.09879e-08
-8.76529e-08
-2.25593e-15
-3.29064e-08
-8.67287e-08
-2.2304e-15
-3.47339e-08
-8.51591e-08
-2.19088e-15
-3.64593e-08
-8.28819e-08
-2.04488e-15
-3.80716e-08
-7.98635e-08
-2.25228e-15
-3.95602e-08
-7.60621e-08