/*--------------------------------*- C++ -*----------------------------------*\
| =========                 |                                                 |
| \\      /  F ield         | OpenFOAM: The Open Source CFD Toolbox           |
|  \\    /   O peration     | Version:  v2012                                 |
|   \\  /    A nd           | Website:  www.openfoam.com                      |
|    \\/     M anipulation  |                                                 |
\*---------------------------------------------------------------------------*/
FoamFile
{
    version     2.0;
    format      ascii;
    class       volVectorField;
    location    "0.5";
    object      U;
}
// * * * * * * * * * * * * * * * * * * * * * * * * * * * * * * * * * * * * * //

dimensions      [0 1 -1 0 0 0 0];


internalField   nonuniform List<vector> 
3332
(
(0.00162317 -0.0227342 -1.41656e-05)
(0.00180018 -0.0234183 -1.57105e-05)
(0.00198328 -0.0240487 -1.73084e-05)
(0.00217128 -0.0246236 -1.89493e-05)
(0.00236283 -0.0251414 -2.0621e-05)
(0.00255644 -0.0256003 -2.23109e-05)
(0.00275041 -0.0259986 -2.40037e-05)
(0.00294292 -0.0263346 -2.5684e-05)
(0.00313193 -0.0266066 -2.73336e-05)
(0.00331526 -0.0268132 -2.89339e-05)
(0.00349059 -0.0269531 -3.04642e-05)
(0.00365553 -0.0270251 -3.1904e-05)
(0.00380758 -0.0270284 -3.32311e-05)
(0.00394423 -0.0269623 -3.4424e-05)
(0.00406295 -0.0268265 -3.54604e-05)
(0.00416129 -0.0266211 -3.63191e-05)
(0.00423689 -0.0263463 -3.69791e-05)
(0.00428755 -0.0260027 -3.74217e-05)
(0.00431129 -0.0255911 -3.76293e-05)
(0.00430645 -0.0251127 -3.75877e-05)
(0.0013826 -0.0214896 -1.2066e-05)
(0.00155473 -0.0222848 -1.35682e-05)
(0.00173516 -0.0230275 -1.5143e-05)
(0.00192291 -0.0237164 -1.67815e-05)
(0.00211696 -0.0243498 -1.84751e-05)
(0.00231592 -0.0249261 -2.02115e-05)
(0.00251838 -0.0254435 -2.19786e-05)
(0.00272269 -0.0259001 -2.37617e-05)
(0.00292705 -0.0262943 -2.55454e-05)
(0.0031295 -0.0266242 -2.73123e-05)
(0.00332787 -0.0268883 -2.90438e-05)
(0.00351985 -0.0270851 -3.07193e-05)
(0.00370298 -0.0272133 -3.2318e-05)
(0.00387472 -0.027272 -3.3817e-05)
(0.00403248 -0.0272603 -3.51941e-05)
(0.0041736 -0.0271778 -3.64259e-05)
(0.00429546 -0.0270242 -3.74898e-05)
(0.00439552 -0.0267998 -3.83634e-05)
(0.00447135 -0.0265051 -3.90256e-05)
(0.0045207 -0.0261409 -3.94566e-05)
(0.00454157 -0.0257082 -3.96393e-05)
(0.00453228 -0.0252084 -3.95588e-05)
(6.72676e-08 -0.000579977 -5.83954e-10)
(4.79139e-06 -0.00198536 -4.18104e-08)
(1.77252e-05 -0.00357801 -1.54653e-07)
(4.00403e-05 -0.00516025 -3.49369e-07)
(7.14186e-05 -0.00669546 -6.23212e-07)
(0.000115288 -0.00817584 -1.00608e-06)
(0.000167829 -0.00959788 -1.46453e-06)
(0.000230654 -0.0109632 -2.01289e-06)
(0.000306299 -0.012273 -2.67347e-06)
(0.00039066 -0.0135308 -3.40878e-06)
(0.000716145 -0.0170011 -6.24984e-06)
(0.000847197 -0.0180581 -7.39328e-06)
(0.000989173 -0.0190659 -8.63258e-06)
(0.00114228 -0.0200239 -9.96876e-06)
(0.001306 -0.0209312 -1.13976e-05)
(0.00147985 -0.0217872 -1.29147e-05)
(0.00166303 -0.0225904 -1.45135e-05)
(0.00185472 -0.0233397 -1.61864e-05)
(0.00205395 -0.0240333 -1.79252e-05)
(0.00225952 -0.0246698 -1.97193e-05)
(0.00247006 -0.0252472 -2.15568e-05)
(0.00268396 -0.0257637 -2.34237e-05)
(0.00289951 -0.0262176 -2.5305e-05)
(0.00311472 -0.026607 -2.71832e-05)
(0.00332754 -0.0269301 -2.90408e-05)
(0.00353562 -0.0271854 -3.08568e-05)
(0.00373652 -0.0273715 -3.26104e-05)
(0.00392764 -0.0274871 -3.42786e-05)
(0.00410631 -0.0275314 -3.58383e-05)
(0.00426979 -0.0275035 -3.72652e-05)
(0.00441531 -0.0274033 -3.85356e-05)
(0.00454015 -0.0272307 -3.96254e-05)
(0.00464168 -0.0269861 -4.0512e-05)
(0.00471739 -0.0266702 -4.11731e-05)
(0.00476501 -0.0262841 -4.15891e-05)
(0.0047825 -0.0258291 -4.17422e-05)
(0.0047682 -0.0253068 -4.16181e-05)
(7.82343e-08 -0.000586855 -6.70901e-10)
(5.25182e-06 -0.00201036 -4.58204e-08)
(1.97772e-05 -0.00362499 -1.7256e-07)
(4.38318e-05 -0.00522926 -3.8247e-07)
(7.87955e-05 -0.00678745 -6.8762e-07)
(0.000124196 -0.00828837 -1.08384e-06)
(0.000181304 -0.00973369 -1.58208e-06)
(0.000249373 -0.0111197 -2.17611e-06)
(0.000329592 -0.0124523 -2.87654e-06)
(0.000420704 -0.0137295 -3.67114e-06)
(0.000525565 -0.014956 -4.58626e-06)
(0.000640645 -0.0161297 -5.5914e-06)
(0.000768661 -0.0172538 -6.70813e-06)
(0.000909537 -0.0183265 -7.93736e-06)
(0.00106099 -0.0193488 -9.25927e-06)
(0.00122453 -0.0203197 -1.06866e-05)
(0.00139898 -0.0212385 -1.2209e-05)
(0.00158408 -0.0221044 -1.38245e-05)
(0.00177883 -0.022916 -1.5524e-05)
(0.00198242 -0.0236719 -1.73009e-05)
(0.00219374 -0.0243703 -1.91451e-05)
(0.00241153 -0.0250096 -2.1046e-05)
(0.00263425 -0.0255879 -2.29897e-05)
(0.00286023 -0.0261032 -2.4962e-05)
(0.00308754 -0.0265537 -2.69459e-05)
(0.00331411 -0.0269376 -2.89235e-05)
(0.0035377 -0.0272532 -3.08749e-05)
(0.00375585 -0.0274988 -3.2779e-05)
(0.00396594 -0.0276732 -3.46127e-05)
(0.00416525 -0.027775 -3.63525e-05)
(0.00435094 -0.0278037 -3.79733e-05)
(0.00452014 -0.0277585 -3.94503e-05)
(0.00466997 -0.0276393 -4.07582e-05)
(0.00479759 -0.0274463 -4.18725e-05)
(0.00490029 -0.0271801 -4.27691e-05)
(0.00497551 -0.0268418 -4.3426e-05)
(0.00502091 -0.0264324 -4.38227e-05)
(0.00503448 -0.0259538 -4.39416e-05)
(0.00501454 -0.0254078 -4.37681e-05)
(7.85695e-08 -0.000594328 -6.75724e-10)
(5.70578e-06 -0.00203725 -4.97782e-08)
(2.15284e-05 -0.00367548 -1.87845e-07)
(4.74032e-05 -0.00530454 -4.13634e-07)
(8.47605e-05 -0.00688709 -7.39665e-07)
(0.000134043 -0.00841314 -1.16976e-06)
(0.000194862 -0.00988087 -1.7004e-06)
(0.000268429 -0.0112912 -2.3424e-06)
(0.00035512 -0.0126449 -3.09932e-06)
(0.000452326 -0.0139442 -3.94708e-06)
(0.000565303 -0.01519 -4.9331e-06)
(0.000688041 -0.0163831 -6.005e-06)
(0.000825256 -0.0175246 -7.20215e-06)
(0.000975971 -0.018614 -8.51712e-06)
(0.0011379 -0.0196513 -9.93055e-06)
(0.00131247 -0.0206358 -1.14539e-05)
(0.00149845 -0.0215667 -1.30771e-05)
(0.00169545 -0.022443 -1.47964e-05)
(0.00190258 -0.0232631 -1.66041e-05)
(0.00211879 -0.0240257 -1.8491e-05)
(0.00234298 -0.0247288 -2.04477e-05)
(0.00257367 -0.0253707 -2.2461e-05)
(0.00280926 -0.0259494 -2.45172e-05)
(0.00304789 -0.026463 -2.65997e-05)
(0.00328755 -0.0269096 -2.86915e-05)
(0.00352597 -0.0272872 -3.07723e-05)
(0.00376077 -0.0275943 -3.28219e-05)
(0.00398933 -0.0278293 -3.48166e-05)
(0.00420889 -0.0279907 -3.67331e-05)
(0.00441654 -0.0280777 -3.85456e-05)
(0.00460932 -0.0280894 -4.02285e-05)
(0.00478421 -0.0280255 -4.1755e-05)
(0.00493821 -0.0278859 -4.30995e-05)
(0.00506838 -0.0276712 -4.42358e-05)
(0.00517191 -0.0273821 -4.51399e-05)
(0.00524618 -0.0270198 -4.57885e-05)
(0.00528885 -0.0265859 -4.61614e-05)
(0.00529787 -0.0260824 -4.62405e-05)
(0.00527162 -0.0255114 -4.6012e-05)
(0.00520892 -0.0248754 -4.5466e-05)
(6.64918e-08 -0.000602458 -5.68258e-10)
(6.18685e-06 -0.00206673 -5.39727e-08)
(2.33464e-05 -0.00373063 -2.03707e-07)
(5.15858e-05 -0.00538632 -4.50139e-07)
(9.24186e-05 -0.00699547 -8.06502e-07)
(0.000145227 -0.00854763 -1.26738e-06)
(0.000211013 -0.0100409 -1.84136e-06)
(0.000290069 -0.0114752 -2.53132e-06)
(0.000382976 -0.0128532 -3.34242e-06)
(0.000487763 -0.0141745 -4.25629e-06)
(0.000608513 -0.0154419 -5.3101e-06)
(0.000740167 -0.016655 -6.4599e-06)
(0.000886823 -0.0178151 -7.73941e-06)
(0.00104795 -0.0189218 -9.14536e-06)
(0.00122084 -0.0199749 -1.06543e-05)
(0.00140709 -0.0209737 -1.22798e-05)
(0.00160522 -0.0219172 -1.40089e-05)
(0.00181492 -0.0228041 -1.5839e-05)
(0.00203506 -0.023633 -1.77602e-05)
(0.00226464 -0.0244022 -1.9764e-05)
(0.00250236 -0.0251099 -2.18386e-05)
(0.00274668 -0.0257541 -2.3971e-05)
(0.00299579 -0.0263329 -2.6145e-05)
(0.00324773 -0.0268442 -2.83439e-05)
(0.00350029 -0.0272861 -3.05481e-05)
(0.00375108 -0.0276567 -3.27372e-05)
(0.00399753 -0.0279544 -3.48881e-05)
(0.00423686 -0.0281775 -3.69771e-05)
(0.00446612 -0.0283249 -3.89781e-05)
(0.00468228 -0.0283957 -4.0865e-05)
(0.00488219 -0.0283891 -4.26099e-05)
(0.00506271 -0.028305 -4.41858e-05)
(0.0052207 -0.0281436 -4.55649e-05)
(0.00535312 -0.0279056 -4.67211e-05)
(0.00545709 -0.027592 -4.76288e-05)
(0.00552993 -0.0272043 -4.82652e-05)
(0.00556927 -0.0267444 -4.86089e-05)
(0.00557308 -0.0262146 -4.86427e-05)
(0.00553977 -0.0256174 -4.83525e-05)
(0.00546825 -0.0249555 -4.77291e-05)
(7.34918e-08 -0.000611324 -6.29551e-10)
(6.75235e-06 -0.00209854 -5.89012e-08)
(2.53494e-05 -0.00379006 -2.21201e-07)
(5.57144e-05 -0.00547415 -4.86167e-07)
(9.95677e-05 -0.00711173 -8.68882e-07)
(0.000156824 -0.00869183 -1.36858e-06)
(0.000227808 -0.010212 -1.98798e-06)
(0.000312438 -0.0116728 -2.72652e-06)
(0.00041251 -0.0130757 -3.60014e-06)
(0.000525209 -0.0144212 -4.58309e-06)
(0.000654654 -0.0157113 -5.71281e-06)
(0.000795888 -0.0169459 -6.9461e-06)
(0.000952786 -0.0181259 -8.3151e-06)
(0.00112495 -0.0192509 -9.81725e-06)
(0.00130964 -0.0203208 -1.14293e-05)
(0.00150832 -0.0213345 -1.31632e-05)
(0.00171949 -0.0222911 -1.50062e-05)
(0.00194273 -0.0231891 -1.69544e-05)
(0.00217682 -0.024027 -1.89975e-05)
(0.00242056 -0.0248029 -2.11246e-05)
(0.00267264 -0.025515 -2.33248e-05)
(0.0029313 -0.0261613 -2.55821e-05)
(0.00319466 -0.0267397 -2.78807e-05)
(0.00346055 -0.0272481 -3.02012e-05)
(0.00372663 -0.0276846 -3.25237e-05)
(0.00399031 -0.0280472 -3.48249e-05)
(0.00424885 -0.0283343 -3.70816e-05)
(0.00449927 -0.0285445 -3.92672e-05)
(0.00473849 -0.0286765 -4.13553e-05)
(0.00496327 -0.0287296 -4.33173e-05)
(0.00517033 -0.0287033 -4.51249e-05)
(0.00535637 -0.0285975 -4.67487e-05)
(0.00551813 -0.0284127 -4.8161e-05)
(0.00565247 -0.0281498 -4.93337e-05)
(0.00575642 -0.0278101 -5.02416e-05)
(0.00582727 -0.0273954 -5.08603e-05)
(0.00586263 -0.026908 -5.11695e-05)
(0.00586049 -0.0263504 -5.11513e-05)
(0.00581932 -0.0257255 -5.07926e-05)
(0.00573812 -0.0250365 -5.00844e-05)
(0.00561646 -0.0242864 -4.90241e-05)
(6.02588e-08 -0.000620952 -5.13207e-10)
(7.33817e-06 -0.00213327 -6.40126e-08)
(2.75179e-05 -0.00385479 -2.40123e-07)
(6.04548e-05 -0.00556977 -5.27546e-07)
(0.000107937 -0.00723788 -9.41927e-07)
(0.000169687 -0.00884788 -1.48085e-06)
(0.00024623 -0.0103972 -2.14874e-06)
(0.000337364 -0.0118861 -2.94406e-06)
(0.000444918 -0.0133155 -3.88296e-06)
(0.000566083 -0.0146867 -4.93985e-06)
(0.000704777 -0.0160009 -6.1502e-06)
(0.000856249 -0.0172582 -7.4729e-06)
(0.00102407 -0.0184592 -8.93713e-06)
(0.00120806 -0.0196036 -1.05427e-05)
(0.00140528 -0.0206909 -1.22639e-05)
(0.00161719 -0.0217202 -1.41134e-05)
(0.00184215 -0.0226903 -1.60766e-05)
(0.00207977 -0.0235996 -1.81504e-05)
(0.00232855 -0.0244466 -2.03216e-05)
(0.00258733 -0.0252293 -2.25801e-05)
(0.00285455 -0.0259457 -2.49122e-05)
(0.00312838 -0.0265937 -2.73022e-05)
(0.00340671 -0.0271711 -2.97313e-05)
(0.00368726 -0.0276759 -3.21799e-05)
(0.00396746 -0.028106 -3.46253e-05)
(0.00424456 -0.0284596 -3.7044e-05)
(0.00451561 -0.0287351 -3.94097e-05)
(0.00477748 -0.028931 -4.16954e-05)
(0.00502687 -0.0290462 -4.38721e-05)
(0.00526038 -0.0290801 -4.59106e-05)
(0.00547457 -0.0290324 -4.77801e-05)
(0.00566598 -0.0289033 -4.94511e-05)
(0.00583124 -0.0286934 -5.08937e-05)
(0.00596709 -0.0284039 -5.20799e-05)
(0.00607051 -0.0280364 -5.29829e-05)
(0.00613875 -0.0275931 -5.35791e-05)
(0.0061694 -0.0270766 -5.3847e-05)
(0.00616051 -0.0264898 -5.37701e-05)
(0.0061106 -0.0258358 -5.33349e-05)
(0.00601877 -0.0251183 -5.25343e-05)
(0.00588477 -0.0243406 -5.13655e-05)
(9.6792e-08 -0.000631421 -8.38418e-10)
(8.03979e-06 -0.00217083 -7.01496e-08)
(2.99216e-05 -0.0039247 -2.61099e-07)
(6.55332e-05 -0.00567284 -5.71859e-07)
(0.00011679 -0.00737377 -1.01918e-06)
(0.000183394 -0.00901594 -1.60046e-06)
(0.000265779 -0.0105962 -2.31937e-06)
(0.000363883 -0.012115 -3.17548e-06)
(0.000479487 -0.0135728 -4.18467e-06)
(0.000609554 -0.0149713 -5.31919e-06)
(0.000758269 -0.0163111 -6.61706e-06)
(0.000920808 -0.0175926 -8.03626e-06)
(0.00110055 -0.0188158 -9.60468e-06)
(0.00129721 -0.0199807 -1.13206e-05)
(0.00150794 -0.0210865 -1.31599e-05)
(0.00173397 -0.0221321 -1.51324e-05)
(0.00197371 -0.0231163 -1.72249e-05)
(0.00222658 -0.0240373 -1.94316e-05)
(0.00249103 -0.0248936 -2.17397e-05)
(0.0027657 -0.025683 -2.41367e-05)
(0.00304897 -0.0264034 -2.66091e-05)
(0.00333877 -0.0270526 -2.91382e-05)
(0.00363288 -0.0276285 -3.17053e-05)
(0.00392878 -0.0281289 -3.42876e-05)
(0.00422375 -0.0285518 -3.68622e-05)
(0.0045148 -0.0288952 -3.94024e-05)
(0.00479882 -0.0291577 -4.18815e-05)
(0.00507244 -0.0293379 -4.42696e-05)
(0.00533221 -0.0294348 -4.65371e-05)
(0.00557452 -0.0294479 -4.86522e-05)
(0.00579577 -0.0293771 -5.05837e-05)
(0.00599236 -0.0292228 -5.22996e-05)
(0.00616078 -0.028986 -5.37701e-05)
(0.00629769 -0.0286681 -5.49653e-05)
(0.00639999 -0.0282711 -5.58588e-05)
(0.00646491 -0.0277974 -5.64258e-05)
(0.00649006 -0.0272501 -5.6646e-05)
(0.00647352 -0.0266324 -5.65021e-05)
(0.00641391 -0.0259479 -5.59826e-05)
(0.00631047 -0.0252006 -5.50803e-05)
(0.00616308 -0.0243942 -5.37948e-05)
(7.97327e-08 -0.000642853 -6.89054e-10)
(8.72438e-06 -0.00221178 -7.6125e-08)
(3.24554e-05 -0.00400064 -2.83209e-07)
(7.10861e-05 -0.00578467 -6.20329e-07)
(0.000126406 -0.00752098 -1.1031e-06)
(0.000198434 -0.00919761 -1.73173e-06)
(0.000287283 -0.0108112 -2.50702e-06)
(0.0003929 -0.012362 -3.4287e-06)
(0.000517233 -0.0138503 -4.51401e-06)
(0.000656841 -0.0152779 -5.73192e-06)
(0.000816266 -0.0166447 -7.12321e-06)
(0.000990513 -0.0179516 -8.64467e-06)
(0.00118296 -0.0191983 -1.03238e-05)
(0.0013932 -0.0203847 -1.21583e-05)
(0.00161827 -0.0215097 -1.41227e-05)
(0.00185942 -0.0225723 -1.62274e-05)
(0.00211487 -0.023571 -1.84567e-05)
(0.002384 -0.0245041 -2.08055e-05)
(0.00266504 -0.0253697 -2.32582e-05)
(0.0029566 -0.0261657 -2.58029e-05)
(0.00325681 -0.0268898 -2.84228e-05)
(0.00356348 -0.0275398 -3.10995e-05)
(0.00387415 -0.0281135 -3.38108e-05)
(0.00418615 -0.0286085 -3.6534e-05)
(0.00449652 -0.029023 -3.92427e-05)
(0.00480208 -0.0293551 -4.19099e-05)
(0.00509949 -0.0296032 -4.45055e-05)
(0.00538519 -0.0297661 -4.69993e-05)
(0.0056555 -0.029843 -4.93586e-05)
(0.00590665 -0.0298335 -5.15512e-05)
(0.00613486 -0.0297378 -5.3543e-05)
(0.00633637 -0.0295565 -5.53022e-05)
(0.00650755 -0.0292908 -5.67966e-05)
(0.00664498 -0.0289426 -5.79967e-05)
(0.00674551 -0.0285141 -5.88744e-05)
(0.00680633 -0.0280083 -5.94059e-05)
(0.00682509 -0.0274284 -5.95701e-05)
(0.00679993 -0.0267782 -5.93513e-05)
(0.00672959 -0.0260616 -5.87379e-05)
(0.00661344 -0.0252831 -5.77249e-05)
(0.00645155 -0.0244467 -5.63128e-05)
(6.73696e-08 -0.000655192 -5.81975e-10)
(9.53499e-06 -0.00225608 -8.31937e-08)
(3.52423e-05 -0.00408284 -3.07547e-07)
(7.70897e-05 -0.00590546 -6.72724e-07)
(0.00013697 -0.00767985 -1.19531e-06)
(0.000214635 -0.00939362 -1.87313e-06)
(0.000310106 -0.0110426 -2.70619e-06)
(0.000423858 -0.0126279 -3.69883e-06)
(0.000557468 -0.0141486 -4.86522e-06)
(0.000707497 -0.015607 -6.17388e-06)
(0.000878675 -0.0170026 -7.6679e-06)
(0.00106552 -0.0183366 -9.29927e-06)
(0.00127163 -0.0196079 -1.10976e-05)
(0.00149639 -0.020817 -1.30589e-05)
(0.00173694 -0.0219622 -1.51584e-05)
(0.0019942 -0.0230426 -1.74035e-05)
(0.00226645 -0.0240564 -1.97796e-05)
(0.00255285 -0.0250018 -2.2279e-05)
(0.00285155 -0.0258769 -2.48861e-05)
(0.00316097 -0.0266793 -2.75863e-05)
(0.0034791 -0.0274067 -3.0363e-05)
(0.00380351 -0.0280569 -3.31942e-05)
(0.00413162 -0.0286275 -3.6058e-05)
(0.00446046 -0.0291163 -3.89279e-05)
(0.00478691 -0.0295212 -4.17773e-05)
(0.00510752 -0.0298405 -4.45754e-05)
(0.00541875 -0.0300727 -4.72921e-05)
(0.0057168 -0.0302166 -4.98934e-05)
(0.00599781 -0.0302717 -5.23464e-05)
(0.00625779 -0.0302377 -5.46156e-05)
(0.00649279 -0.030115 -5.66672e-05)
(0.0066989 -0.0299046 -5.84662e-05)
(0.00687239 -0.0296081 -5.9981e-05)
(0.00700973 -0.0292274 -6.118e-05)
(0.00710772 -0.0287655 -6.2036e-05)
(0.00716357 -0.0282255 -6.25239e-05)
(0.00717497 -0.0276113 -6.26242e-05)
(0.00714014 -0.0269268 -6.23207e-05)
(0.00705793 -0.0261767 -6.1604e-05)
(0.00692791 -0.0253655 -6.04698e-05)
(0.00675033 -0.0244979 -5.8921e-05)
(4.58819e-08 -0.000668824 -3.93426e-10)
(1.03301e-05 -0.00230452 -9.01348e-08)
(3.82211e-05 -0.00417208 -3.3354e-07)
(8.35963e-05 -0.00603667 -7.29512e-07)
(0.000148023 -0.00785163 -1.29174e-06)
(0.000232362 -0.00960531 -2.02781e-06)
(0.000335339 -0.0112927 -2.92636e-06)
(0.000457803 -0.0129143 -3.99519e-06)
(0.000601792 -0.0144695 -5.25221e-06)
(0.000762955 -0.0159607 -6.6579e-06)
(0.000946437 -0.0173871 -8.25888e-06)
(0.00114682 -0.0187499 -1.00087e-05)
(0.00136747 -0.0200471 -1.1934e-05)
(0.00160747 -0.02128 -1.40283e-05)
(0.00186454 -0.0224464 -1.62719e-05)
(0.00213903 -0.0235452 -1.86676e-05)
(0.00242915 -0.0245746 -2.11994e-05)
(0.00273398 -0.0255327 -2.38599e-05)
(0.00305143 -0.0264172 -2.66302e-05)
(0.0033798 -0.0272258 -2.94963e-05)
(0.00371686 -0.0279561 -3.24379e-05)
(0.00406002 -0.0286058 -3.5433e-05)
(0.00440642 -0.0291724 -3.84561e-05)
(0.00475292 -0.0296537 -4.14805e-05)
(0.0050961 -0.0300478 -4.44756e-05)
(0.00543233 -0.0303527 -4.74104e-05)
(0.00575779 -0.0305673 -5.02508e-05)
(0.00606846 -0.0306904 -5.29628e-05)
(0.00636026 -0.0307216 -5.55095e-05)
(0.00662902 -0.0306611 -5.78559e-05)
(0.00687058 -0.0305093 -5.99644e-05)
(0.00708091 -0.0302676 -6.18006e-05)
(0.00725615 -0.029938 -6.33303e-05)
(0.00739269 -0.0295228 -6.45228e-05)
(0.00748731 -0.0290253 -6.5349e-05)
(0.00753723 -0.0284492 -6.57855e-05)
(0.0075402 -0.0277986 -6.58119e-05)
(0.00749453 -0.0270781 -6.54142e-05)
(0.00739925 -0.0262927 -6.45831e-05)
(0.00725408 -0.0254475 -6.3317e-05)
(0.00705956 -0.0245474 -6.16201e-05)
(1.2764e-08 -0.000683371 -1.11429e-10)
(1.15301e-05 -0.00235679 -1.00613e-07)
(4.15934e-05 -0.0042687 -3.62973e-07)
(9.08191e-05 -0.00617827 -7.92552e-07)
(0.000161 -0.00803728 -1.40501e-06)
(0.000250821 -0.00983372 -2.18885e-06)
(0.000362501 -0.011562 -3.16368e-06)
(0.000494147 -0.0132227 -4.312e-06)
(0.000649026 -0.0148149 -5.66357e-06)
(0.000821839 -0.0163411 -7.17241e-06)
(0.00101807 -0.0177999 -8.88508e-06)
(0.00123427 -0.0191929 -1.07713e-05)
(0.00147057 -0.0205179 -1.28337e-05)
(0.00172712 -0.0217758 -1.50725e-05)
(0.00200196 -0.0229644 -1.74713e-05)
(0.00229487 -0.0240824 -2.00275e-05)
(0.00260408 -0.0251279 -2.27263e-05)
(0.00292848 -0.0260987 -2.55572e-05)
(0.00326586 -0.0269927 -2.85018e-05)
(0.00361429 -0.0278072 -3.15426e-05)
(0.00397139 -0.0285399 -3.46594e-05)
(0.00433426 -0.0291883 -3.78262e-05)
(0.00469988 -0.0297499 -4.10175e-05)
(0.00506481 -0.0302225 -4.42023e-05)
(0.00542543 -0.0306041 -4.735e-05)
(0.0057778 -0.0308931 -5.04253e-05)
(0.00611788 -0.0310881 -5.33939e-05)
(0.0064414 -0.0311884 -5.62175e-05)
(0.00674406 -0.0311937 -5.88595e-05)
(0.00702147 -0.0311043 -6.12809e-05)
(0.00726931 -0.0309211 -6.34447e-05)
(0.00748339 -0.0306459 -6.53132e-05)
(0.00765973 -0.0302807 -6.68531e-05)
(0.00779468 -0.0298287 -6.80312e-05)
(0.00788499 -0.0292934 -6.88203e-05)
(0.00792791 -0.028679 -6.91953e-05)
(0.00792125 -0.0279901 -6.91381e-05)
(0.0078635 -0.0272318 -6.86346e-05)
(0.00775381 -0.0264094 -6.76782e-05)
(0.00759217 -0.0255286 -6.6268e-05)
(0.00737932 -0.0245948 -6.44114e-05)
(-1.22228e-08 -0.00069961 1.09231e-10)
(1.24756e-05 -0.0024141 -1.08863e-07)
(4.50718e-05 -0.0043737 -3.93325e-07)
(9.84546e-05 -0.00633255 -8.59193e-07)
(0.000173967 -0.00823827 -1.51813e-06)
(0.000271562 -0.0100816 -2.36985e-06)
(0.000392102 -0.0118524 -3.42196e-06)
(0.000533919 -0.0135559 -4.65921e-06)
(0.000700876 -0.0151873 -6.1162e-06)
(0.000886639 -0.0167509 -7.73799e-06)
(0.00109716 -0.018244 -9.57497e-06)
(0.00132878 -0.0196689 -1.15962e-05)
(0.0015819 -0.0210231 -1.38053e-05)
(0.00185604 -0.0223071 -1.61978e-05)
(0.00214981 -0.0235188 -1.87615e-05)
(0.00246243 -0.0246567 -2.14899e-05)
(0.002792 -0.0257187 -2.43661e-05)
(0.00313731 -0.0267026 -2.73799e-05)
(0.00349587 -0.0276058 -3.0509e-05)
(0.0038656 -0.028426 -3.3736e-05)
(0.00424384 -0.0291604 -3.70369e-05)
(0.00462751 -0.0298065 -4.03858e-05)
(0.0050133 -0.0303619 -4.37525e-05)
(0.00539752 -0.0308244 -4.71063e-05)
(0.00577625 -0.0311919 -5.04115e-05)
(0.00614532 -0.031463 -5.36331e-05)
(0.00650039 -0.0316365 -5.6732e-05)
(0.00683696 -0.0317117 -5.96701e-05)
(0.00715048 -0.0316887 -6.24064e-05)
(0.00743637 -0.031568 -6.49023e-05)
(0.00769011 -0.031351 -6.71171e-05)
(0.00790737 -0.0310396 -6.9014e-05)
(0.00808408 -0.0306365 -7.05566e-05)
(0.00821653 -0.0301452 -7.17134e-05)
(0.00830147 -0.0295697 -7.24552e-05)
(0.00833619 -0.0289148 -7.27592e-05)
(0.00831864 -0.0281855 -7.26065e-05)
(0.00824741 -0.0273874 -7.19858e-05)
(0.00812191 -0.0265264 -7.0891e-05)
(0.00794232 -0.0256085 -6.93245e-05)
(0.00770972 -0.0246395 -6.72954e-05)
(-2.06881e-07 -0.000716767 1.81072e-09)
(1.40083e-05 -0.00247573 -1.22231e-07)
(4.87144e-05 -0.00448734 -4.25121e-07)
(0.000107268 -0.00649851 -9.36115e-07)
(0.000189332 -0.00845547 -1.65225e-06)
(0.000294224 -0.010348 -2.56761e-06)
(0.000424673 -0.0121664 -3.70627e-06)
(0.000576426 -0.0139143 -5.03012e-06)
(0.000756469 -0.0155879 -6.6014e-06)
(0.000955968 -0.0171909 -8.34287e-06)
(0.00118247 -0.0187209 -1.03196e-05)
(0.0014308 -0.0201795 -1.24865e-05)
(0.00170219 -0.0215646 -1.48551e-05)
(0.00199539 -0.0228762 -1.74138e-05)
(0.00230946 -0.0241121 -2.01549e-05)
(0.00264307 -0.0252707 -2.30663e-05)
(0.00299439 -0.0263497 -2.61326e-05)
(0.00336187 -0.0273467 -2.93395e-05)
(0.00374294 -0.0282591 -3.26655e-05)
(0.00413519 -0.0290843 -3.60886e-05)
(0.00453579 -0.0298196 -3.95851e-05)
(0.00494131 -0.0304625 -4.31242e-05)
(0.00534825 -0.0310104 -4.66761e-05)
(0.00575257 -0.0314611 -5.02047e-05)
(0.00615012 -0.0318127 -5.36748e-05)
(0.00653638 -0.0320639 -5.70459e-05)
(0.00690679 -0.0322136 -6.02792e-05)
(0.00725655 -0.0322614 -6.33318e-05)
(0.00758088 -0.0322075 -6.61632e-05)
(0.00787498 -0.0320529 -6.87302e-05)
(0.00813415 -0.0317993 -7.0993e-05)
(0.00835394 -0.0314491 -7.29114e-05)
(0.00853016 -0.0310054 -7.44503e-05)
(0.00865909 -0.0304723 -7.55759e-05)
(0.00873747 -0.0298541 -7.6261e-05)
(0.0087627 -0.0291563 -7.64817e-05)
(0.00873281 -0.0283844 -7.62218e-05)
(0.00864663 -0.0275446 -7.54703e-05)
(0.00850376 -0.0266431 -7.42243e-05)
(0.00830469 -0.0256866 -7.24875e-05)
(0.00805079 -0.0246812 -7.02728e-05)
(-1.92873e-07 -0.000736015 1.69691e-09)
(1.50001e-05 -0.00254381 -1.30868e-07)
(5.26313e-05 -0.0046104 -4.59278e-07)
(0.000115838 -0.00668156 -1.0109e-06)
(0.000204412 -0.00868951 -1.78388e-06)
(0.000317985 -0.0106376 -2.775e-06)
(0.000459463 -0.0125046 -4.00976e-06)
(0.000623605 -0.0143021 -5.44186e-06)
(0.000817382 -0.0160196 -7.13292e-06)
(0.00103179 -0.0176652 -9.00469e-06)
(0.00127475 -0.0192338 -1.11248e-05)
(0.00154115 -0.0207284 -1.34496e-05)
(0.00183192 -0.0221457 -1.59872e-05)
(0.00214551 -0.0234863 -1.87241e-05)
(0.00248127 -0.0247473 -2.16542e-05)
(0.00283745 -0.0259273 -2.47629e-05)
(0.00321203 -0.0270236 -2.80318e-05)
(0.00360324 -0.0280338 -3.14462e-05)
(0.00400823 -0.0289551 -3.49805e-05)
(0.00442439 -0.0297849 -3.86128e-05)
(0.00484858 -0.0305202 -4.23147e-05)
(0.00527716 -0.0311586 -4.60555e-05)
(0.00570624 -0.0316974 -4.98002e-05)
(0.00613157 -0.0321346 -5.35127e-05)
(0.00654861 -0.0324683 -5.71523e-05)
(0.0069526 -0.0326973 -6.06788e-05)
(0.00733864 -0.0328207 -6.4048e-05)
(0.00770169 -0.0328384 -6.72172e-05)
(0.00803669 -0.0327509 -7.01411e-05)
(0.00833865 -0.0325596 -7.27775e-05)
(0.00860269 -0.0322666 -7.50822e-05)
(0.00882422 -0.0318747 -7.70163e-05)
(0.00899899 -0.0313876 -7.85421e-05)
(0.00912323 -0.0308098 -7.96273e-05)
(0.00919375 -0.0301464 -8.02433e-05)
(0.00920802 -0.0294032 -8.03689e-05)
(0.00916427 -0.0285864 -7.99876e-05)
(0.0090615 -0.0277028 -7.90918e-05)
(0.00889962 -0.0267591 -7.76795e-05)
(0.00867939 -0.0257624 -7.57584e-05)
(0.00840257 -0.0247192 -7.33433e-05)
(-1.4011e-06 -0.000756425 1.2161e-08)
(1.64182e-05 -0.0026168 -1.43521e-07)
(5.42626e-05 -0.00474419 -4.7364e-07)
(0.000127612 -0.00687642 -1.11356e-06)
(0.000226043 -0.00894481 -1.97249e-06)
(0.000343679 -0.0109501 -2.99944e-06)
(0.000497409 -0.0128711 -4.34131e-06)
(0.000673143 -0.0147194 -5.87395e-06)
(0.000883906 -0.0164849 -7.71342e-06)
(0.00111349 -0.0181753 -9.71769e-06)
(0.00137524 -0.0197851 -1.20019e-05)
(0.00166071 -0.0213177 -1.44929e-05)
(0.00197271 -0.0227692 -1.72161e-05)
(0.00230819 -0.0241402 -2.01437e-05)
(0.00266727 -0.0254274 -2.32777e-05)
(0.00304742 -0.0266296 -2.65951e-05)
(0.00344679 -0.0277435 -3.00808e-05)
(0.00386312 -0.0287669 -3.3714e-05)
(0.00429351 -0.0296968 -3.74705e-05)
(0.00473496 -0.0305304 -4.13229e-05)
(0.00518408 -0.0312647 -4.5243e-05)
(0.00563684 -0.0318971 -4.91943e-05)
(0.00608914 -0.0324252 -5.31422e-05)
(0.0065363 -0.0328469 -5.70447e-05)
(0.00697353 -0.0331605 -6.08612e-05)
(0.00739569 -0.0333647 -6.45456e-05)
(0.00779763 -0.0334591 -6.80542e-05)
(0.00817397 -0.0334439 -7.13389e-05)
(0.00851945 -0.0333198 -7.43549e-05)
(0.00882882 -0.0330888 -7.70553e-05)
(0.00909704 -0.0327532 -7.93972e-05)
(0.00931941 -0.0323165 -8.13381e-05)
(0.0094916 -0.031783 -8.28419e-05)
(0.00960985 -0.0311576 -8.38745e-05)
(0.00967103 -0.0304462 -8.44095e-05)
(0.00967277 -0.0296551 -8.44253e-05)
(0.00961345 -0.0287912 -8.39086e-05)
(0.00949236 -0.0278616 -8.28524e-05)
(0.00930966 -0.0268738 -8.12589e-05)
(0.00906652 -0.0258353 -7.91375e-05)
(0.00876501 -0.024753 -7.65073e-05)
(-1.41271e-06 -0.000779655 1.2277e-08)
(1.75401e-05 -0.00269701 -1.53288e-07)
(5.84959e-05 -0.00488755 -5.10569e-07)
(0.000135671 -0.00708239 -1.18381e-06)
(0.000242463 -0.00922066 -2.11575e-06)
(0.00037264 -0.0112889 -3.25225e-06)
(0.00054048 -0.0132664 -4.71715e-06)
(0.000729995 -0.0151704 -6.37016e-06)
(0.000956252 -0.0169862 -8.34455e-06)
(0.00120311 -0.0187257 -1.04999e-05)
(0.00148397 -0.0203786 -1.29506e-05)
(0.00179 -0.0219515 -1.56213e-05)
(0.0021245 -0.0234388 -1.85406e-05)
(0.00248363 -0.0248415 -2.1675e-05)
(0.0028677 -0.026156 -2.50266e-05)
(0.00327364 -0.0273809 -2.85696e-05)
(0.00369956 -0.0285128 -3.22865e-05)
(0.0041428 -0.0295493 -3.61551e-05)
(0.00460021 -0.0304872 -4.01468e-05)
(0.00506848 -0.0313237 -4.42341e-05)
(0.0055439 -0.0320558 -4.8383e-05)
(0.00602215 -0.0326807 -5.25574e-05)
(0.00649871 -0.0331962 -5.67164e-05)
(0.00696863 -0.0336001 -6.08182e-05)
(0.00742671 -0.033891 -6.4816e-05)
(0.00786752 -0.0340678 -6.86639e-05)
(0.00828553 -0.0341303 -7.23122e-05)
(0.00867513 -0.0340789 -7.57133e-05)
(0.00903077 -0.0339151 -7.88172e-05)
(0.00934698 -0.0336409 -8.15781e-05)
(0.00961857 -0.0332595 -8.39488e-05)
(0.00984071 -0.0327747 -8.58885e-05)
(0.0100091 -0.0321916 -8.73582e-05)
(0.0101199 -0.0315156 -8.83263e-05)
(0.0101701 -0.0307533 -8.87653e-05)
(0.0101575 -0.0299116 -8.86568e-05)
(0.0100808 -0.028998 -8.79878e-05)
(0.00993947 -0.0280204 -8.67554e-05)
(0.00973406 -0.0269866 -8.49632e-05)
(0.00946608 -0.0259046 -8.26255e-05)
(0.00913808 -0.024782 -7.97637e-05)
(-1.59368e-06 -0.000804276 1.389e-08)
(2.38135e-05 -0.00278411 -2.07881e-07)
(6.71987e-05 -0.00504626 -5.86484e-07)
(0.000139011 -0.00731249 -1.21352e-06)
(0.000247945 -0.00951932 -2.16367e-06)
(0.000404516 -0.0116532 -3.53009e-06)
(0.000586728 -0.0136926 -5.12035e-06)
(0.000789687 -0.0156555 -6.89156e-06)
(0.00103355 -0.017526 -9.01996e-06)
(0.00129937 -0.0193167 -1.13395e-05)
(0.00160321 -0.0210164 -1.39913e-05)
(0.00193065 -0.022632 -1.68487e-05)
(0.00228998 -0.0241571 -1.9985e-05)
(0.00267427 -0.0255932 -2.33385e-05)
(0.00308512 -0.0269362 -2.69243e-05)
(0.00351848 -0.0281846 -3.07061e-05)
(0.00397266 -0.0293347 -3.46703e-05)
(0.00444439 -0.0303842 -3.87869e-05)
(0.00493045 -0.0313296 -4.30294e-05)
(0.00542707 -0.032168 -4.73633e-05)
(0.00593024 -0.0328964 -5.17551e-05)
(0.0064352 -0.0335121 -5.61619e-05)
(0.00693714 -0.0340127 -6.05432e-05)
(0.00743065 -0.0343964 -6.48502e-05)
(0.00791023 -0.0346618 -6.90365e-05)
(0.00837006 -0.0348081 -7.30495e-05)
(0.0088043 -0.0348354 -7.68402e-05)
(0.009207 -0.0347446 -8.03549e-05)
(0.00957236 -0.0345374 -8.35446e-05)
(0.00989472 -0.0342166 -8.63584e-05)
(0.0101687 -0.0337857 -8.87508e-05)
(0.0103894 -0.0332495 -9.06774e-05)
(0.0105525 -0.0326133 -9.21017e-05)
(0.0106542 -0.0318835 -9.299e-05)
(0.0106917 -0.0310672 -9.33183e-05)
(0.0106629 -0.0301722 -9.30677e-05)
(0.0105668 -0.0292064 -9.22297e-05)
(0.0104031 -0.0281784 -9.08024e-05)
(0.0101729 -0.0270967 -8.87943e-05)
(0.00987812 -0.0259698 -8.6222e-05)
(0.00952164 -0.0248055 -8.31121e-05)
(-1.65633e-06 -0.000831354 1.44497e-08)
(2.54397e-05 -0.00287885 -2.22063e-07)
(7.26638e-05 -0.00522307 -6.34182e-07)
(0.000149635 -0.00756732 -1.30617e-06)
(0.000268404 -0.00984573 -2.34214e-06)
(0.000439239 -0.0120473 -3.8332e-06)
(0.000637027 -0.0141566 -5.55932e-06)
(0.000855927 -0.0161812 -7.46974e-06)
(0.00111817 -0.0181111 -9.75809e-06)
(0.00140407 -0.0199547 -1.22534e-05)
(0.00173067 -0.0217042 -1.51035e-05)
(0.00208243 -0.0233643 -1.81736e-05)
(0.0024682 -0.0249292 -2.15401e-05)
(0.00287972 -0.0264001 -2.51318e-05)
(0.00331951 -0.0277724 -2.89697e-05)
(0.00378249 -0.0290448 -3.30105e-05)
(0.00426703 -0.0302133 -3.7239e-05)
(0.0047693 -0.0312753 -4.16229e-05)
(0.00528589 -0.0322274 -4.6131e-05)
(0.0058126 -0.0330665 -5.07283e-05)
(0.00634504 -0.0337896 -5.53748e-05)
(0.0068781 -0.034394 -6.00277e-05)
(0.00740653 -0.0348774 -6.46394e-05)
(0.00792455 -0.0352381 -6.91612e-05)
(0.00842625 -0.0354749 -7.35396e-05)
(0.00890544 -0.0355874 -7.77227e-05)
(0.00935595 -0.035576 -8.16544e-05)
(0.0097715 -0.035442 -8.52823e-05)
(0.010146 -0.0351877 -8.85512e-05)
(0.0104737 -0.0348163 -9.14122e-05)
(0.010749 -0.0343323 -9.3815e-05)
(0.0109669 -0.0337407 -9.57176e-05)
(0.011123 -0.0330479 -9.7081e-05)
(0.0112138 -0.0322608 -9.78748e-05)
(0.0112366 -0.0313875 -9.80739e-05)
(0.0111894 -0.0304361 -9.76639e-05)
(0.0110717 -0.0294156 -9.66368e-05)
(0.0108835 -0.028335 -9.49961e-05)
(0.0106264 -0.0272035 -9.27521e-05)
(0.0103025 -0.0260299 -8.9927e-05)
(0.00991556 -0.0248227 -8.65505e-05)
(-1.77773e-06 -0.000860843 1.55009e-08)
(2.8185e-05 -0.00298255 -2.46025e-07)
(7.95657e-05 -0.00541134 -6.9442e-07)
(0.00016616 -0.00783902 -1.45038e-06)
(0.000295303 -0.0101961 -2.57696e-06)
(0.00047708 -0.0124734 -4.16341e-06)
(0.000690249 -0.0146545 -6.02389e-06)
(0.000927498 -0.0167469 -8.09423e-06)
(0.00121176 -0.0187395 -1.05751e-05)
(0.00151938 -0.0206413 -1.32596e-05)
(0.00187159 -0.0224435 -1.63335e-05)
(0.00224893 -0.0241512 -1.96264e-05)
(0.0026632 -0.0257582 -2.32421e-05)
(0.00310375 -0.0272655 -2.70866e-05)