/*--------------------------------*- C++ -*----------------------------------*\
| =========                 |                                                 |
| \\      /  F ield         | OpenFOAM: The Open Source CFD Toolbox           |
|  \\    /   O peration     | Version:  v2012                                 |
|   \\  /    A nd           | Website:  www.openfoam.com                      |
|    \\/     M anipulation  |                                                 |
\*---------------------------------------------------------------------------*/
FoamFile
{
    version     2.0;
    format      ascii;
    class       surfaceScalarField;
    location    "0.05";
    object      phi;
}
// * * * * * * * * * * * * * * * * * * * * * * * * * * * * * * * * * * * * * //

dimensions      [0 3 -1 0 0 0 0];
oriented        oriented;


internalField   nonuniform List<scalar> 
6449
(
2.22388e-11
-6.52466e-09
4.43095e-12
-9.60962e-11
-2.23697e-08
-4.88615e-12
1.22812e-09
-3.84947e-08
-4.04686e-13
5.08083e-09
-4.4649e-08
2.6807e-13
-2.74637e-08
-4.99745e-13
8.75365e-11
-6.62848e-09
6.43255e-12
4.00575e-10
-2.27044e-08
-5.13669e-12
1.3341e-09
-3.9429e-08
2.39443e-13
3.85082e-09
-4.71653e-08
-3.98279e-13
-3.19724e-08
-1.96985e-14
9.51318e-11
-6.71908e-09
-1.93264e-12
2.40152e-10
-2.28545e-08
2.54802e-12
3.67443e-10
-3.95558e-08
5.34134e-14
7.78606e-10
-4.75758e-08
2.76134e-13
-3.1196e-08
-1.39076e-13
3.1744e-11
-6.7588e-09
4.24427e-12
5.75651e-11
-2.28741e-08
-3.106e-12
2.22733e-10
-3.97201e-08
-9.60084e-13
7.48439e-10
-4.81019e-08
-3.88553e-13
-3.04472e-08
1.35725e-13
-1.03422e-10
-6.75695e-09
1.55751e-12
-2.55451e-10
-2.2718e-08
-2.32253e-12
6.5273e-11
-4.00417e-08
3.62947e-13
6.53423e-10
-4.86911e-08
-3.47252e-13
-2.97928e-08
-1.77797e-13
-2.30196e-10
-6.79544e-09
6.45692e-13
-3.41332e-10
-2.26063e-08
-6.19587e-13
1.83292e-10
-4.05655e-08
-6.70157e-13
6.94696e-10
-4.92025e-08
-4.87892e-13
-2.90978e-08
-1.15015e-13
-3.14677e-10
-6.89403e-09
-3.53065e-12
-3.62782e-10
-2.25636e-08
2.60678e-12
1.82117e-10
-4.11111e-08
1.09377e-14
6.20657e-10
-4.96402e-08
-2.40902e-13
-2.84776e-08
-3.8061e-13
1.64838e-10
-7.0593e-09
-1.82661e-13
3.48716e-10
-2.27459e-08
-9.11379e-13
6.21014e-10
-4.13835e-08
-3.26669e-13
9.16355e-10
-4.99357e-08
-1.6764e-14
-2.75613e-08
-2.04814e-13
1.59296e-10
-7.21752e-09
-3.55451e-12
3.17043e-10
-2.29104e-08
3.21613e-12
6.90481e-10
-4.17573e-08
-3.41375e-13
9.39055e-10
-5.01832e-08
-8.58066e-13
-2.66219e-08
-2.5586e-13
1.49328e-10
-7.3556e-09
-5.78061e-12
4.47557e-10
-2.32174e-08
4.05923e-12
9.92725e-10
-4.23043e-08
4.31131e-13
1.0074e-09
-5.01984e-08
7.37239e-14
-2.56143e-08
-3.91653e-13
4.12035e-11
-7.38922e-09
-3.74342e-12
3.33936e-10
-2.35199e-08
4.48767e-12
8.15956e-10
-4.27844e-08
-1.13258e-12
5.0812e-10
-4.989e-08
-1.94714e-13
-2.5106e-08
-3.55486e-13
-2.80461e-11
-7.34553e-09
-7.854e-12
2.79574e-10
-2.38389e-08
5.43625e-12
1.3835e-10
-4.26474e-08
2.20106e-12
-2.82788e-11
-4.97235e-08
-3.17916e-14
-2.51341e-08
-7.45142e-14
-1.0982e-10
-7.23311e-09
-9.70632e-13
1.79738e-11
-2.39692e-08
1.16723e-12
-9.34601e-10
-4.16946e-08
-1.52182e-13
2.97187e-10
-5.09552e-08
1.77861e-13
-2.48367e-08
3.56644e-14
-1.46831e-10
-7.08645e-09
2.26736e-13
-5.26659e-10
-2.35893e-08
-1.92893e-13
-1.50332e-09
-4.0718e-08
-6.72751e-14
1.12192e-09
-5.35804e-08
1.5823e-13
-2.37151e-08
-9.85722e-14
-3.33931e-10
-6.74998e-09
-9.80173e-13
-1.60696e-09
-2.23187e-08
1.08626e-12
-2.05022e-09
-4.02747e-08
-1.05266e-13
1.76197e-10
-5.58069e-08
4.84082e-14
-2.3539e-08
1.09375e-14
-4.92844e-10
-6.25633e-09
-2.95565e-13
-2.31094e-09
-2.05016e-08
3.60972e-13
-3.83237e-09
-3.87532e-08
-1.52243e-13
-5.86043e-09
-5.37791e-08
-2.72563e-14
-2.93995e-08
-5.72052e-14
-1.07005e-09
-5.18562e-09
-2.70851e-13
-4.40889e-09
-1.71631e-08
8.01737e-14
-1.00262e-08
-3.31364e-08
3.20277e-14
-1.64539e-08
-4.73511e-08
-7.14945e-14
-4.5853e-08
1.24704e-14
-1.93181e-09
-3.25389e-09
-1.90655e-14
-8.65596e-09
-1.04391e-08
-9.70264e-14
-2.30636e-08
-1.87287e-08
-7.86075e-14
-4.42545e-08
-2.61602e-08
-2.44401e-14
-6.33765e-08
-2.67313e-08
-9.73762e-14
-5.27231e-08
-1.06534e-08
-2.28611e-15
-4.17005e-08
-1.10227e-08
-8.57595e-16
-3.42046e-08
-7.49599e-09
-2.56985e-14
-2.80876e-08
-6.11704e-09
2.57252e-14
-2.34039e-08
-4.68377e-09
-5.61468e-14
-1.96031e-08
-3.80124e-09
-4.25449e-14
-1.65646e-08
-3.03806e-09
4.91833e-14
-1.40635e-08
-2.50062e-09
4.11131e-14
-1.20148e-08
-2.04889e-09
-1.94315e-14
-1.03135e-08
-1.7013e-09
-3.31419e-15
-8.90138e-09
-1.4122e-09
-2.85705e-15
-7.7217e-09
-1.17965e-09
-4.562e-15
-6.73442e-09
-9.87259e-10
3.30313e-15
-5.90477e-09
-8.29643e-10
-3.84308e-16
-5.20504e-09
-6.99696e-10
3.46343e-15
-4.61234e-09
-5.92687e-10
2.17729e-15
-4.10775e-09
-5.04558e-10
2.04273e-15
-3.67576e-09
-4.31974e-10
3.00745e-15
-3.30363e-09
-3.72116e-10
2.21891e-15
-2.98095e-09
-3.22656e-10
2.05512e-15
-2.6992e-09
-2.81735e-10
2.09319e-15
-2.45144e-09
-2.47739e-10
2.85697e-15
-2.23209e-09
-2.19353e-10
1.93994e-15
-2.0365e-09
-1.95584e-10
1.78346e-15
-1.86099e-09
-1.75513e-10
2.14069e-15
-1.58486e-10
-4.18945e-15
-1.1713e-09
-2.08252e-09
-7.93056e-14
-5.10609e-09
-6.50437e-09
-8.1311e-14
-1.2913e-08
-1.09218e-08
-5.25712e-14
-2.38415e-08
-1.52318e-08
-2.80906e-14
-3.3213e-08
-1.7359e-08
6.78613e-14
-3.09329e-08
-1.29333e-08
-7.04205e-15
-3.01421e-08
-1.18141e-08
-5.96901e-14
-2.84951e-08
-9.14182e-09
1.26554e-13
-2.64838e-08
-8.12733e-09
1.33937e-13
-2.45277e-08
-6.64028e-09
-9.02846e-14
-2.25255e-08
-5.80384e-09
-4.10212e-14
-2.06538e-08
-4.90947e-09
3.44948e-14
-1.88813e-08
-4.27265e-09
3.44614e-14
-1.7248e-08
-3.68243e-09
-2.8064e-14
-1.57409e-08
-3.20849e-09
-1.04539e-14
-1.4363e-08
-2.79015e-09
-4.6412e-15
-1.31049e-08
-2.43769e-09
-7.57917e-15
-1.19617e-08
-2.13051e-09
1.17075e-15
-1.09243e-08
-1.86702e-09
-3.57164e-15
-9.98554e-09
-1.63845e-09
1.19755e-15
-9.13695e-09
-1.44129e-09
7.71264e-17
-8.37041e-09
-1.27107e-09
4.95975e-16
-7.67804e-09
-1.12434e-09
2.80637e-15
-7.0521e-09
-9.98047e-10
1.84597e-15
-6.48532e-09
-8.89415e-10
2.35357e-15
-5.97097e-09
-7.96074e-10
2.40428e-15
-5.50282e-09
-7.15851e-10
4.15666e-15
-5.07539e-09
-6.4679e-10
2.84529e-15
-4.68362e-09
-5.87359e-10
2.34705e-15
-4.32317e-09
-5.35979e-10
1.56577e-15
-4.91502e-10
-7.75862e-15
-6.56642e-10
-1.42589e-09
-4.5566e-14
-2.62888e-09
-4.53212e-09
-8.27707e-14
-5.82542e-09
-7.72531e-09
-7.90201e-14
-1.08903e-08
-1.0167e-08
-3.51756e-14
-1.72391e-08
-1.10102e-08
-1.18399e-14
-2.03507e-08
-9.82215e-09
-6.08392e-14
-2.20696e-08
-1.0095e-08
2.31007e-14
-2.23559e-08
-8.85599e-09
-6.0032e-14
-2.21464e-08
-8.33725e-09
-2.35974e-14
-2.14608e-08
-7.3258e-09
-4.21096e-14
-2.06084e-08
-6.65676e-09
-5.16712e-14
-1.96288e-08
-5.88861e-09
4.32278e-14
-1.86141e-08
-5.28702e-09
2.96939e-14
-1.75884e-08
-4.70826e-09
-2.12911e-14
-1.65779e-08
-4.21902e-09
-1.05832e-14
-1.55934e-08
-3.7747e-09
-4.65151e-15
-1.46436e-08
-3.38753e-09
-8.91795e-15
-1.37333e-08
-3.04084e-09
4.65194e-16
-1.28654e-08
-2.73487e-09
-3.53312e-15
-1.2042e-08
-2.46182e-09
1.32844e-15
-1.12637e-08
-2.21961e-09
-1.18483e-16
-1.05303e-08
-2.00447e-09
2.30108e-16
-9.84091e-09
-1.8137e-09
2.8043e-15
-9.19396e-09
-1.64498e-09
1.6326e-15
-8.58739e-09
-1.49597e-09
2.75194e-15
-8.01878e-09
-1.36468e-09
2.38269e-15
-7.48544e-09
-1.24915e-09
4.34586e-15
-6.98475e-09
-1.14748e-09
2.46053e-15
-6.51391e-09
-1.05821e-09
1.27694e-15
-6.07032e-09
-9.79577e-10
-3.19242e-16
-9.10314e-10
-9.2279e-15
-5.92883e-10
-8.33011e-10
-2.81175e-14
-2.46009e-09
-2.66488e-09
-7.10673e-14
-5.53334e-09
-4.6521e-09
-6.53473e-14
-9.18413e-09
-6.51615e-09
-4.08874e-14
-1.23103e-08
-7.88415e-09
-4.53373e-14
-1.40143e-08
-8.1182e-09
-1.78281e-14
-1.56959e-08
-8.4135e-09
-2.24974e-14
-1.65842e-08
-7.96721e-09
5.79215e-14
-1.71967e-08
-7.72433e-09
6.74938e-14
-1.73967e-08
-7.12582e-09
-4.79383e-14
-1.73726e-08
-6.681e-09
-2.04608e-14
-1.71374e-08
-6.12359e-09
2.41661e-14
-1.67698e-08
-5.65434e-09
2.31556e-14
-1.63003e-08
-5.17804e-09
-3.25518e-14
-1.57644e-08
-4.75497e-09
-1.858e-14
-1.51835e-08
-4.35569e-09
-7.79228e-15
-1.45758e-08
-3.99524e-09
-1.17592e-14
-1.39538e-08
-3.66289e-09
-2.47472e-15
-1.33271e-08
-3.36159e-09
-8.02279e-15
-1.27029e-08
-3.08597e-09
-2.3105e-15
-1.20868e-08
-2.8358e-09
-2.88006e-15
-1.14825e-08
-2.60869e-09
-1.65009e-15
-1.08932e-08
-2.403e-09
1.42316e-15
-1.03208e-08
-2.21742e-09
6.52937e-16
-9.76649e-09
-2.05028e-09
2.12817e-15
-9.2309e-09
-1.90026e-09
1.42032e-15
-8.7141e-09
-1.76591e-09
3.404e-15
-8.21594e-09
-1.64566e-09
1.12949e-15
-7.73576e-09
-1.5384e-09
-4.19385e-16
-7.27289e-09
-1.44247e-09
-1.99604e-15
-1.35671e-09
-9.93853e-15
-2.54862e-10
-5.7819e-10
4.25587e-15
-1.04731e-09
-1.87233e-09
-3.69107e-14
-2.45154e-09
-3.24789e-09
-6.68218e-14
-4.46541e-09
-4.50214e-09
-2.91761e-14
-6.86791e-09
-5.48173e-09
-4.54456e-14
-8.98814e-09
-5.9978e-09
-1.72294e-15
-1.08925e-08
-6.50924e-09
-2.49151e-14
-1.23044e-08
-6.55492e-09
3.97166e-14
-1.33969e-08
-6.63154e-09
6.07261e-14
-1.41029e-08
-6.42001e-09
-6.02885e-14
-1.4553e-08
-6.23113e-09
-2.92025e-14
-1.47608e-08
-5.91556e-09
2.46527e-14
-1.47997e-08
-5.61501e-09
2.76375e-14
-1.47e-08
-5.27806e-09
-3.36245e-14
-1.44988e-08
-4.95626e-09
-2.05705e-14
-1.42191e-08
-4.63541e-09
-7.23143e-15
-1.38817e-08
-4.33268e-09
-1.09955e-14
-1.3501e-08
-4.04363e-09
-2.46928e-15
-1.30887e-08
-3.77387e-09
-7.28199e-15
-1.26537e-08
-3.52101e-09
-1.89166e-15
-1.22029e-08
-3.28658e-09
-2.35807e-15
-1.17418e-08
-3.06977e-09
-1.47302e-15
-1.12748e-08
-2.86995e-09
1.68668e-15
-1.08054e-08
-2.68683e-09
4.48496e-16
-1.03363e-08
-2.51941e-09
1.75011e-15
-9.8695e-09
-2.36704e-09
5.31272e-16
-9.40657e-09
-2.22879e-09
2.40718e-15
-8.94881e-09
-2.10343e-09
-1.68348e-16
-8.49693e-09
-1.9903e-09
-1.85859e-15
-8.05157e-09
-1.88785e-09
-2.92617e-15
-1.79516e-09
-1.01773e-14
-2.44223e-10
-3.33934e-10
-8.78387e-15
-9.95402e-10
-1.12111e-09
-1.02525e-14
-2.23053e-09
-2.01276e-09
2.59158e-15
-3.79196e-09
-2.94076e-09
-6.09779e-14
-5.43996e-09
-3.8335e-09
5.10851e-15
-6.93939e-09
-4.49863e-09
-6.07846e-14
-8.3844e-09
-5.06438e-09
-3.78154e-14
-9.58595e-09
-5.35314e-09
2.86585e-14
-1.06336e-08
-5.58335e-09
8.09108e-14
-1.14499e-08
-5.60418e-09
-9.17217e-14
-1.20901e-08
-5.59124e-09
-3.86922e-14
-1.25426e-08
-5.46283e-09
1.75393e-14
-1.28438e-08
-5.31353e-09
2.29893e-14
-1.30091e-08
-5.11298e-09
-3.341e-14
-1.30626e-08
-4.90282e-09
-1.92084e-14
-1.30226e-08
-4.67553e-09
-6.75926e-15
-1.29065e-08
-4.44871e-09
-9.16631e-15
-1.27285e-08
-4.22164e-09
-2.71731e-15
-1.25006e-08
-4.0018e-09
-7.18958e-15
-1.22323e-08
-3.78928e-09
-2.45987e-15
-1.19317e-08
-3.58721e-09
-3.24767e-15
-1.1605e-08
-3.39644e-09
-2.49674e-15
-1.12575e-08
-3.21744e-09
1.25966e-16
-1.08934e-08
-3.05095e-09
-1.03142e-15
-1.05161e-08
-2.89668e-09
2.81994e-16
-1.01285e-08
-2.75464e-09
-9.13096e-16
-9.73289e-09
-2.62438e-09
9.78748e-16
-9.33128e-09
-2.50507e-09
-1.54374e-15
-8.92518e-09
-2.39641e-09
-3.10588e-15
-8.51602e-09
-2.29703e-09
-3.60176e-15
-2.2062e-09
-1.0262e-14
-1.17339e-10
-2.16593e-10
-1.91484e-15
-5.02298e-10
-7.36151e-10
3.97601e-15
-1.19395e-09
-1.32117e-09
1.24079e-14
-2.17246e-09
-1.9623e-09
-3.37939e-14
-3.36891e-09
-2.63662e-09
-4.12972e-14
-4.64085e-09
-3.22718e-09
-7.0752e-14
-5.93315e-09
-3.77218e-09
-3.06433e-14
-7.13142e-09
-4.15491e-09
-6.89174e-16
-8.22953e-09
-4.48499e-09
5.28882e-14
-9.16484e-09
-4.6692e-09
-7.45293e-14
-9.95298e-09
-4.80334e-09
-2.97252e-14
-1.05789e-08
-4.83671e-09
1.67599e-14
-1.10629e-08
-4.82918e-09
2.11639e-14
-1.14157e-08
-4.76047e-09
-3.14528e-14
-1.16541e-08
-4.6645e-09
-1.85044e-14
-1.17933e-08
-4.53635e-09
-8.05772e-15
-1.18482e-08
-4.39382e-09
-8.45142e-15
-1.18315e-08
-4.23836e-09
-4.77829e-15
-1.17544e-08
-4.07892e-09
-9.03068e-15
-1.1626e-08
-3.91763e-09
-3.47517e-15
-1.14544e-08
-3.75887e-09
-3.72034e-15
-1.12458e-08
-3.60497e-09
-2.68475e-15
-1.10059e-08
-3.45732e-09
-1.94227e-16
-1.07392e-08
-3.31764e-09
-1.67411e-15
-1.04495e-08
-3.18638e-09
-5.31888e-16
-1.014e-08
-3.06415e-09
-1.7549e-15
-9.81336e-09
-2.95101e-09
1.97761e-16
-9.47198e-09
-2.84647e-09
-2.31348e-15
-9.11782e-09
-2.7506e-09
-3.78544e-15
-8.7527e-09
-2.66217e-09
-3.92876e-15
-2.58063e-09
-1.01831e-14
-1.0359e-10
-1.13002e-10
-1.5095e-15
-4.42625e-10
-3.97111e-10
4.09533e-15
-1.02672e-09
-7.37145e-10
9.07114e-15
-1.82247e-09
-1.16652e-09
-2.30353e-14
-2.76391e-09
-1.69501e-09
-5.66056e-14
-3.7656e-09
-2.22576e-09
-4.21299e-14
-4.79599e-09
-2.74181e-09
-2.75423e-14
-5.78094e-09
-3.16985e-09
1.52486e-14
-6.72017e-09
-3.54534e-09
7.48276e-14
-7.56824e-09
-3.82146e-09
-6.91321e-14
-8.32859e-09
-4.0432e-09
-2.05716e-14
-8.98238e-09
-4.18257e-09
3.50202e-14
-9.53435e-09
-4.27678e-09
3.79115e-14
-9.98506e-09
-4.30995e-09
-2.24951e-14
-1.03393e-08
-4.31028e-09
-1.21261e-14
-1.06042e-08
-4.27146e-09
-6.01577e-15
-1.07876e-08
-4.21042e-09
-5.41507e-15
-1.08978e-08
-4.12819e-09
-4.9989e-15
-1.0943e-08
-4.0337e-09
-7.93067e-15
-1.09309e-08
-3.92972e-09
-4.6019e-15
-1.08686e-08
-3.82121e-09
-4.96263e-15
-1.07621e-08
-3.71147e-09
-4.49051e-15
-1.06168e-08
-3.60265e-09
-2.30943e-15
-1.04372e-08
-3.49725e-09
-3.06134e-15
-1.02272e-08
-3.39633e-09
-1.82641e-15
-9.99028e-09
-3.3011e-09
-2.74022e-15
-9.72917e-09
-3.21207e-09
-7.15261e-16
-9.44657e-09
-3.12909e-09
-2.99828e-15
-9.14463e-09
-3.05256e-09
-4.24842e-15
-8.82543e-09
-2.98138e-09
-3.94749e-15
-2.91517e-09
-1.00727e-14
-5.63951e-11
-5.66036e-11
-1.77707e-15
-2.58772e-10
-1.94731e-10
5.3915e-15
-6.26405e-10
-3.69596e-10
1.88377e-14
-1.16537e-09
-6.27588e-10
-1.88297e-14
-1.85853e-09
-1.00186e-09
-7.10722e-14
-2.65731e-09
-1.42693e-09
1.29626e-14
-3.51699e-09
-1.88233e-09
-4.16284e-14
-4.38525e-09
-2.30121e-09
4.99491e-14
-5.25677e-09
-2.67343e-09
7.35827e-14
-6.08001e-09
-2.99854e-09
-6.21574e-14
-6.851e-09
-3.27251e-09
-2.64056e-14
-7.54581e-09
-3.48745e-09
3.25976e-14
-8.16019e-09
-3.66204e-09
3.30317e-14
-8.68893e-09
-3.78148e-09
-3.39594e-14
-9.13132e-09
-3.86793e-09
-1.44483e-14
-9.49064e-09
-3.91226e-09
-1.44638e-14
-9.77151e-09
-3.92949e-09
-5.59406e-15
-9.98017e-09
-3.91955e-09
-4.90895e-15
-1.01228e-08
-3.89108e-09
-6.8286e-15
-1.02055e-08
-3.84702e-09
-2.09161e-15
-1.02341e-08
-3.79261e-09
-2.47369e-15
-1.02139e-08
-3.73156e-09
-2.50218e-15
-1.015e-08
-3.66658e-09
-8.88379e-16
-1.00466e-08
-3.60069e-09
-2.76374e-15
-9.90741e-09
-3.53549e-09
-2.0259e-15
-9.73587e-09
-3.47264e-09
-2.96083e-15
-9.53483e-09
-3.41307e-09
-9.39054e-16
-9.30703e-09
-3.35691e-09
-3.20027e-15
-9.05474e-09
-3.30487e-09
-4.42615e-15
-8.78018e-09
-3.25596e-09
-4.03227e-15
-3.20993e-09
-9.87402e-15
-4.30315e-11
-1.35687e-11
1.26598e-15
-2.02115e-10
-3.56257e-11
1.22499e-14
-4.92905e-10
-7.88272e-11
2.02468e-14
-9.20195e-10
-2.00629e-10
-1.64634e-14
-1.4727e-09
-4.48877e-10
8.04195e-14
-2.12074e-09
-7.78714e-10
-6.79462e-15
-2.84004e-09
-1.1629e-09
-2.70981e-14
-3.59192e-09
-1.54947e-09
1.731e-14
-4.34595e-09
-1.91915e-09
5.43095e-14
-5.0762e-09
-2.26852e-09
-5.25069e-14
-5.77953e-09
-2.56947e-09
-2.31493e-14
-6.4368e-09
-2.82987e-09
3.41452e-14
-7.04287e-09
-3.05565e-09
3.20032e-14
-7.58881e-09
-3.23575e-09
-2.53279e-14
-8.06981e-09
-3.38694e-09
-9.67046e-15
-8.48334e-09
-3.49887e-09
-1.45885e-14
-8.82904e-09
-3.58374e-09
-4.85885e-15
-9.10872e-09
-3.63991e-09
-5.71265e-15
-9.32537e-09
-3.67446e-09
-7.62857e-15
-9.48286e-09
-3.68953e-09
-4.63422e-15
-9.58545e-09
-3.69005e-09
-4.20067e-15
-9.63731e-09
-3.67969e-09
-4.43932e-15
-9.64252e-09
-3.66138e-09
-2.45495e-15
-9.60481e-09
-3.63841e-09
-3.86039e-15
-9.52763e-09
-3.61268e-09
-3.02376e-15
-9.4141e-09
-3.58617e-09
-3.60258e-15
-9.26702e-09
-3.56011e-09
-1.47065e-15
-9.08909e-09
-3.53487e-09
-3.5214e-15
-8.88262e-09
-3.51136e-09
-4.59806e-15
-8.64989e-09
-3.48871e-09
-4.11617e-15
-3.46673e-09
-9.63719e-15
-2.16096e-11
8.03909e-12
2.48242e-15
-1.11214e-10
5.39873e-11
8.52157e-15
-2.87465e-10
9.74105e-11
1.43723e-14
-5.70104e-10
8.20926e-11
3.1411e-14
-9.76622e-10
-4.26167e-11
-1.69863e-14
-1.49007e-09
-2.65316e-10
1.37587e-14
-2.08313e-09
-5.69996e-10
-1.71021e-15
-2.72949e-09
-9.02303e-10
9.97879e-14
-3.40935e-09
-1.23915e-09
3.15697e-14
-4.10255e-09
-1.57547e-09
-2.27613e-14
-4.78226e-09
-1.88991e-09
-7.30964e-15
-5.43506e-09
-2.17678e-09
3.42873e-14
-6.04805e-09
-2.44226e-09
3.90772e-14
-6.61249e-09
-2.67153e-09
-2.4313e-14
-7.12236e-09
-2.87708e-09
-9.33836e-15
-7.5734e-09
-3.04798e-09
-1.51298e-14
-7.96441e-09
-3.19268e-09
-4.95344e-15
-8.2954e-09
-3.30895e-09
-6.29339e-15
-8.56774e-09
-3.40214e-09
-8.10095e-15
-8.78343e-09
-3.47384e-09
-4.71635e-15
-8.94516e-09
-3.52833e-09
-4.40323e-15
-9.05591e-09
-3.56893e-09
-4.38192e-15
-9.11883e-09
-3.59848e-09
-2.63335e-15
-9.13695e-09
-3.62029e-09
-4.02098e-15
-9.11321e-09
-3.63641e-09
-3.29786e-15
-9.0504e-09
-3.64899e-09
-3.76614e-15
-8.95105e-09
-3.65942e-09
-1.58281e-15
-8.81775e-09
-3.6682e-09
-3.54237e-15
-8.65275e-09
-3.67638e-09
-4.64233e-15
-8.45835e-09
-3.68313e-09
-4.19825e-15
-3.6883e-09
-9.36432e-15
-1.66403e-11
2.46778e-11
1.26771e-15
-8.89458e-11
1.26307e-10
6.68417e-15
-2.33243e-10
2.41681e-10
1.06169e-14
-4.64554e-10
3.13418e-10
1.90799e-14
-7.96236e-10
2.88974e-10
3.56277e-15
-1.21878e-09
1.57245e-10
1.57592e-14
-1.72225e-09
-6.68559e-11
-2.91874e-14
-2.28011e-09
-3.43842e-10
7.49776e-14
-2.86787e-09
-6.51471e-10
7.11358e-15
-3.47714e-09
-9.66277e-10
-1.6329e-14
-4.0875e-09
-1.27965e-09
-2.56979e-15
-4.68608e-09
-1.57807e-09
1.74118e-14
-5.26273e-09
-1.8654e-09
2.25281e-14
-5.80778e-09
-2.12668e-09
-2.24508e-14
-6.31454e-09
-2.37035e-09
-9.84851e-15
-6.7764e-09
-2.58624e-09
-1.16086e-14
-7.18966e-09
-2.77935e-09
-2.11344e-15
-7.55169e-09
-2.94696e-09
-5.574e-15
-7.86162e-09
-3.09224e-09
-8.04927e-15
-8.11953e-09
-3.21594e-09
-5.42497e-15
-8.32655e-09
-3.32134e-09
-4.91686e-15
-8.48418e-09
-3.41129e-09
-5.07551e-15
-8.59439e-09
-3.48828e-09
-3.41171e-15
-8.65929e-09
-3.5554e-09
-4.6317e-15
-8.68111e-09
-3.6146e-09
-3.86659e-15
-8.66213e-09
-3.66799e-09
-4.11554e-15
-8.60455e-09
-3.71696e-09
-1.85574e-15
-8.5107e-09
-3.76207e-09
-3.58912e-15
-8.38274e-09
-3.80436e-09
-4.69643e-15
-8.22292e-09
-3.84298e-09
-4.31811e-15
-3.87775e-09
-9.18749e-15
-9.48411e-12
3.41588e-11
7.7554e-16
-5.6195e-11
1.7303e-10
2.41859e-15
-1.54909e-10
3.40363e-10
4.39536e-15
-3.19445e-10
4.78036e-10
2.39827e-14
-5.6551e-10
5.35004e-10
7.4312e-15
-8.97058e-10
4.88903e-10
2.27546e-14
-1.30913e-09
3.45047e-10
-1.07031e-14
-1.78583e-09
1.33168e-10
4.46065e-14
-2.31151e-09
-1.26058e-10
-1.73829e-14
-2.86733e-09
-4.10285e-10
1.42216e-14
-3.4368e-09
-7.10203e-10
8.15578e-15
-4.00486e-09
-1.00987e-09
2.01437e-14
-4.56052e-09
-1.30951e-09
2.51033e-14
-5.09316e-09
-1.59419e-09
-1.56795e-14
-5.59609e-09
-1.86746e-09
-1.00687e-14
-6.06244e-09
-2.11998e-09
-9.15033e-15
-6.48835e-09
-2.35337e-09
-1.94535e-16
-6.87039e-09
-2.56496e-09
-5.98159e-15
-7.20662e-09
-2.75602e-09
-7.04701e-15
-7.49562e-09
-2.92694e-09
-4.27431e-15
-7.73719e-09
-3.07979e-09
-3.68873e-15
-7.93163e-09
-3.21684e-09
-4.26871e-15
-8.07993e-09
-3.34e-09
-3.05599e-15
-8.18332e-09
-3.45202e-09
-4.31831e-15
-8.24335e-09
-3.55457e-09
-3.75514e-15
-8.2617e-09
-3.64964e-09
-4.03509e-15
-8.24017e-09
-3.73846e-09
-1.82834e-15
-8.18078e-09
-3.82147e-09
-3.50829e-15
-8.08551e-09
-3.89965e-09
-4.65375e-15
-7.95649e-09
-3.97202e-09
-4.36303e-15
-4.03829e-09
-9.02831e-15
-6.97437e-12
4.11436e-11
-4.12735e-15
-4.28046e-11
2.08852e-10
-2.3445e-15
-1.21502e-10
4.1903e-10
1.93334e-14
-2.54767e-10
6.11324e-10
5.95844e-15
-4.56879e-10
7.3715e-10
1.53806e-14
-7.35538e-10
7.67485e-10
-4.75642e-16
-1.08978e-09
6.99035e-10
-2.41978e-14
-1.50532e-09
5.49125e-10
5.33784e-14
-1.96696e-09
3.35478e-10
-1.60731e-15
-2.45918e-09
8.18796e-11
-1.19584e-14
-2.96962e-09
-1.99911e-10
-7.02301e-15
-3.48559e-09
-4.9378e-10
1.62288e-14
-3.99921e-09
-7.95714e-10
2.0876e-14
-4.50075e-09
-1.09284e-09
-1.8856e-14
-4.98351e-09
-1.38476e-09
-1.21538e-14
-5.44013e-09
-1.66345e-09
-6.22988e-15
-5.86563e-09
-1.92777e-09
2.17896e-15
-6.25532e-09
-2.17532e-09
-5.10358e-15
-6.60603e-09
-2.40533e-09
-6.69999e-15
-6.91511e-09
-2.61788e-09
-4.47777e-15
-7.18123e-09
-2.81369e-09
-3.58319e-15
-7.40349e-09
-2.99459e-09
-4.42686e-15
-7.58175e-09
-3.16175e-09
-3.35204e-15
-7.71633e-09
-3.31745e-09
-4.4994e-15
-7.80797e-09
-3.46294e-09
-3.90984e-15
-7.85774e-09
-3.59987e-09
-4.06582e-15
-7.86697e-09
-3.7292e-09
-1.81883e-15
-7.83732e-09
-3.85114e-09
-3.36788e-15
-7.77055e-09
-3.96644e-09
-4.51041e-15
-7.66866e-09
-4.07393e-09
-4.21654e-15
-4.17314e-09
-8.45118e-15
-3.92781e-12
4.50742e-11
-7.32426e-16
-2.72126e-11
2.32143e-10
1.55116e-15
-8.32941e-11
4.75102e-10
4.80265e-15
-1.83718e-10
7.11632e-10
-2.08634e-15
-3.4117e-10
8.94885e-10
4.33643e-14
-5.65539e-10
9.91583e-10
-2.62774e-14
-8.58668e-10
9.9197e-10
-1.65499e-14
-1.21215e-09
9.02911e-10
4.10106e-14
-1.61695e-09
7.40297e-10
1.20803e-14
-2.05888e-09
5.23677e-10
-2.14894e-14
-2.52648e-09
2.67514e-10
-9.45992e-15
-3.00613e-09
-1.39177e-11
2.86095e-14
-3.48998e-09
-3.11649e-10
2.49988e-14
-3.968e-09
-6.14999e-10
-1.72717e-14
-4.43361e-09
-9.19232e-10
-1.31048e-14
-4.87977e-09
-1.21737e-09
-6.09939e-15
-5.30162e-09
-1.50583e-09
2.22745e-15
-5.69412e-09
-1.78287e-09
-5.20582e-15
-6.05351e-09
-2.04595e-09
-7.15566e-15
-6.3762e-09
-2.29519e-09
-4.62327e-15
-6.65995e-09
-2.52997e-09
-4.27601e-15
-6.90295e-09
-2.75157e-09
-4.80037e-15
-7.10431e-09
-2.96041e-09
-3.29419e-15
-7.26358e-09
-3.15819e-09
-4.4311e-15
-7.38083e-09
-3.3457e-09
-3.81044e-15
-7.45654e-09
-3.52416e-09
-3.91811e-15
-7.49158e-09
-3.69414e-09
-1.70804e-15
-7.48724e-09
-3.8555e-09
-3.12866e-15
-7.445e-09
-4.00869e-09
-4.16886e-15
-7.36671e-09
-4.15223e-09
-3.83755e-15
-4.28539e-09
-7.91664e-15
-2.79462e-12
4.78712e-11
-6.65148e-16
-2.00636e-11
2.49415e-10
1.5331e-15
-6.39478e-11
5.18978e-10
3.75632e-15
-1.45003e-10
7.92631e-10
8.98441e-16
-2.74174e-10
1.02423e-09
2.90621e-14
-4.61329e-10
1.17839e-09
-3.64894e-14
-7.09599e-10
1.24023e-09
3.0572e-15
-1.01472e-09
1.20827e-09
3.05909e-14
-1.3691e-09
1.09469e-09
1.07816e-14
-1.76158e-09
9.1586e-10
-4.13961e-14
-2.18189e-09
6.87462e-10
-2.90253e-14
-2.61893e-09
4.23342e-10
3.09721e-14
-3.06573e-09
1.35332e-10
2.41675e-14
-3.514e-09
-1.66896e-10
-1.27142e-14
-3.95704e-09
-4.76267e-10
-8.76191e-15
-4.38773e-09
-7.86778e-10
-6.03808e-15
-4.80029e-09
-1.09319e-09
2.62009e-15
-5.18938e-09
-1.39384e-09
-4.96007e-15
-5.55057e-09
-1.68481e-09
-6.38138e-15
-5.87988e-09
-1.96591e-09
-5.6472e-15
-6.17442e-09
-2.23547e-09
-4.56714e-15
-6.43171e-09
-2.49429e-09
-5.08128e-15
-6.65004e-09
-2.7421e-09
-3.59221e-15
-6.82825e-09
-2.97999e-09
-4.38579e-15
-6.96575e-09
-3.20822e-09
-3.67138e-15
-7.06246e-09
-3.42745e-09
-3.70129e-15
-7.11877e-09
-3.63781e-09
-1.45423e-15
-7.13559e-09
-3.8387e-09
-2.76708e-15
-7.11415e-09
-4.03014e-09
-3.66826e-15
-7.05612e-09
-4.21027e-09
-3.18164e-15
-4.37801e-09
-7.24503e-15
-1.27651e-12
4.91501e-11
-9.39335e-16
-1.22896e-11
2.60429e-10
-4.46472e-17
-4.37876e-11
5.50478e-10
4.05595e-15
-1.05769e-10
8.54534e-10
-2.67969e-15
-2.08493e-10
1.12706e-09
1.91154e-14
-3.60642e-10
1.3305e-09
-1.94771e-15
-5.67762e-10
1.44715e-09
-1.83451e-14
-8.27907e-10
1.46886e-09
5.78796e-14
-1.13708e-09
1.40399e-09
2.11241e-14
-1.48718e-09
1.2657e-09
-3.41696e-14
-1.86794e-09
1.06782e-09
-3.31572e-14
-2.27024e-09
8.2599e-10
4.2869e-14
-2.68705e-09
5.52387e-10
3.23349e-14
-3.11029e-09
2.56215e-10
-1.22182e-14
-3.53269e-09
-5.38805e-11
-3.04534e-15
-3.94763e-09
-3.71954e-10
-1.01219e-14
-4.34885e-09
-6.91905e-10
2.69942e-15
-4.73157e-09
-1.01115e-09
-3.95741e-15
-5.09084e-09
-1.32556e-09
-5.01397e-15
-5.42262e-09
-1.63413e-09
-3.29482e-15
-5.72327e-09
-1.93484e-09
-2.61055e-15
-5.98989e-09
-2.22767e-09
-3.52765e-15
-6.22015e-09
-2.51185e-09
-2.78312e-15
-6.41235e-09
-2.7878e-09
-3.7994e-15
-6.56535e-09
-3.05522e-09
-3.25075e-15
-6.67858e-09
-3.31423e-09
-3.37507e-15
-6.75198e-09
-3.56438e-09
-1.20051e-15
-6.78613e-09
-3.80456e-09
-2.39708e-15
-6.782e-09
-4.03429e-09
-3.20891e-15
-6.74107e-09
-4.25122e-09
-2.67381e-15
-4.45384e-09
-6.72702e-15
-7.8515e-13
4.99365e-11
-5.75493e-16
-8.54384e-12
2.68203e-10
2.45855e-15
-3.22874e-11
5.74205e-10
2.14653e-15
-8.10666e-11
9.03091e-10
-2.35035e-14
-1.63189e-10
1.20953e-09
4.65395e-14
-2.88189e-10
1.4554e-09
-8.23511e-15
-4.61653e-10
1.62066e-09
7.33072e-15
-6.83668e-10
1.69114e-09
4.5894e-14
-9.53304e-10
1.67368e-09
1.3234e-14
-1.26381e-09
1.57602e-09
-2.61562e-14
-1.60653e-09
1.41024e-09
-2.23047e-14
-1.97428e-09
1.19406e-09
4.21955e-14
-2.3603e-09
9.38642e-10
3.34701e-14
-2.75741e-09
6.53219e-10
-6.43257e-15
-3.15834e-09
3.47051e-10
2.13083e-15
-3.5565e-09
2.6086e-11
-8.33244e-15
-3.94505e-09
-3.03289e-10
4.7479e-15
-4.31898e-09
-6.37251e-10
-2.42772e-15
-4.67305e-09
-9.71516e-10
-2.47853e-15
-5.00328e-09
-1.30392e-09
-2.55439e-15
-5.30578e-09
-1.63237e-09
-1.21581e-15
-5.57733e-09
-1.95613e-09
-2.33487e-15
-5.81513e-09
-2.27407e-09
-2.76918e-15
-6.01697e-09
-2.58596e-09
-3.53094e-15
-6.18125e-09
-2.89095e-09
-2.8752e-15
-6.30695e-09
-3.18853e-09
-3.02372e-15
-6.39365e-09
-3.47766e-09
-8.56083e-16
-6.4416e-09
-3.75663e-09
-1.97944e-15
-6.45152e-09
-4.02437e-09
-2.75914e-15
-6.42474e-09
-4.27801e-09
-2.33102e-15
-4.51552e-09
-6.63928e-15
-2.38232e-13
5.01752e-11
-1.27846e-16
-5.14068e-12
2.73107e-10
9.71212e-16
-2.21016e-11
5.91173e-10
2.51004e-15
-5.90929e-11
9.40104e-10
8.48947e-15
-1.24322e-10
1.27469e-09
-1.01097e-15
-2.27319e-10
1.55831e-09
-3.23674e-15
-3.72557e-10
1.76569e-09
-1.49524e-14
-5.62939e-10
1.88214e-09
6.83437e-14
-7.97598e-10
1.90841e-09
1.39316e-14
-1.07239e-09
1.85064e-09
-9.58941e-15
-1.38216e-09
1.71971e-09
-2.49313e-14
-1.71905e-09
1.53124e-09
4.11579e-14
-2.07684e-09
1.29661e-09
2.64235e-14
-2.44876e-09
1.0251e-09
-1.10844e-16
-2.8277e-09
7.26005e-10
3.42854e-15
-3.20761e-09
4.05878e-10
-9.13339e-15
-3.58183e-09
7.09986e-11
5.50984e-15
-3.94523e-09
-2.73879e-10
-2.84989e-15
-4.29225e-09
-6.2451e-10
-3.54331e-15
-4.61854e-09
-9.7764e-10
-3.1633e-15
-4.91997e-09
-1.33096e-09
-2.48762e-15
-5.19307e-09
-1.68303e-09
-3.63509e-15
-5.43476e-09
-2.0324e-09
-2.60884e-15
-5.64251e-09
-2.37822e-09
-3.28029e-15
-5.81436e-09
-2.71912e-09
-2.54912e-15
-5.94893e-09
-3.05396e-09
-2.69054e-15
-6.04547e-09
-3.38109e-09
-5.38845e-16
-6.10397e-09
-3.69815e-09
-1.57752e-15
-6.12494e-09
-4.00341e-09
-2.3751e-15
-6.10957e-09
-4.29339e-09
-2.06025e-15
-4.56552e-09
-6.40416e-15
-6.09144e-16
5.01761e-11
-9.09721e-17
-3.45017e-12
2.7656e-10
1.26951e-15
-1.65615e-11
6.04279e-10
2.71206e-15
-4.62126e-11
9.69739e-10
2.6924e-15
-9.84897e-11
1.32699e-09
7.34146e-15
-1.82904e-10
1.64268e-09
2.33143e-15
-3.04399e-10
1.88697e-09
-1.89506e-14
-4.67859e-10
2.04608e-09
5.22849e-14
-6.72765e-10
2.11326e-09
9.65354e-16
-9.17385e-10
2.0952e-09
3.00163e-15
-1.19736e-09
1.99957e-09
-6.09625e-15
-1.506e-09
1.84008e-09
3.02297e-14
-1.83701e-09
1.62777e-09
2.25425e-14
-2.18432e-09
1.37235e-09
-1.00383e-15
-2.54124e-09
1.08294e-09
4.26907e-15
-2.90203e-09
7.66578e-10
-4.71617e-15
-3.2603e-09
4.29366e-10
9.61701e-15
-3.61085e-09
7.66518e-11
-2.46543e-16
-3.94809e-09
-2.87266e-10
-4.83096e-18
-4.2674e-09
-6.58327e-10
-1.77312e-16
-4.56462e-09
-1.03375e-09
6.20649e-16
-4.83607e-09
-1.41157e-09
-1.14274e-15
-5.07844e-09
-1.79005e-09
-1.73163e-15
-5.28884e-09
-2.16782e-09
-2.58726e-15
-5.46499e-09
-2.54298e-09
-1.96091e-15
-5.60522e-09
-2.91374e-09
-2.24847e-15
-5.70851e-09
-3.27778e-09
-1.679e-16
-5.77461e-09
-3.63207e-09
-1.1665e-15
-5.80389e-09
-3.97414e-09
-1.98762e-15
-5.7974e-09
-4.29989e-09
-1.73449e-15
-4.60611e-09
-5.88299e-15
3.45417e-13
4.98313e-11
-2.62192e-16
-1.7757e-12
2.7868e-10
1.62466e-15
-1.18345e-11
6.14339e-10
1.7856e-15
-3.64547e-11
9.94375e-10
6.2513e-15
-7.95097e-11
1.37005e-09
5.23661e-15
-1.49575e-10
1.71274e-09
5.63941e-15
-2.52024e-10
1.9893e-09
-7.50981e-15
-3.93034e-10
2.18742e-09
3.55301e-14
-5.73258e-10
2.2932e-09
-2.50391e-14
-7.9229e-10
2.31431e-09
1.98164e-14
-1.04559e-09
2.25283e-09
1.87832e-15
-1.32824e-09
2.12287e-09
2.36736e-14
-1.63385e-09
1.9335e-09
1.91364e-14
-1.95708e-09
1.69555e-09
1.54248e-15
-2.29172e-09
1.41758e-09
3.29083e-15
-2.63237e-09
1.10717e-09
-2.89875e-15
-2.97335e-09
7.70442e-10
9.9961e-15
-3.3096e-09
4.12859e-10
-2.12819e-15
-3.63571e-09
3.88367e-11
-1.06035e-15
-3.94657e-09
-3.4747e-10
-8.75372e-16
-4.23765e-09
-7.42682e-10
3.85573e-16
-4.50507e-09
-1.14416e-09
-1.1352e-15
-4.7454e-09
-1.54972e-09
-1.49855e-15
-4.95561e-09
-1.95762e-09
-2.24606e-15
-5.13318e-09
-2.36542e-09
-1.50398e-15
-5.2762e-09
-2.77072e-09
-1.77199e-15
-5.38344e-09
-3.17051e-09
2.44691e-16
-5.45449e-09
-3.56104e-09
-6.7036e-16
-5.48956e-09
-3.93907e-09
-1.46179e-15
-5.48966e-09
-4.29981e-09
-1.30359e-15
-4.63939e-09
-5.21862e-15
5.74778e-13
4.92614e-11
-2.38923e-15
-4.61062e-13
2.79726e-10
1.25034e-15
-8.22932e-12
6.2207e-10
6.26605e-15
-2.84142e-11
1.01457e-09
-1.61191e-15
-6.56811e-11
1.40736e-09
7.13901e-15
-1.2675e-10
1.77374e-09
-3.23641e-15
-2.15647e-10
2.078e-09
-1.71979e-14
-3.38558e-10
2.31069e-09
3.74547e-14
-4.97092e-10
2.45154e-09
-1.68921e-14
-6.92501e-10
2.50971e-09
9.52474e-15
-9.20588e-10
2.48084e-09
-4.03738e-15
-1.17826e-09
2.38058e-09
1.12706e-14
-1.45949e-09
2.21475e-09
9.47122e-15
-1.75963e-09
1.99563e-09
-1.85332e-15
-2.07286e-09
1.73079e-09
1.22422e-15
-2.39399e-09
1.42826e-09
-4.94299e-16
-2.71767e-09
1.09423e-09
1.18485e-14
-3.03884e-09
7.33997e-10
-7.66648e-16
-3.35236e-09
3.52345e-10
1.16583e-15
-3.65304e-09
-4.67816e-11
8.67007e-16
-3.93626e-09
-4.59465e-10
2.48859e-15
-4.19777e-09
-8.82645e-10
2.66244e-16
-4.43401e-09
-1.31349e-09
-3.46097e-16
-4.64179e-09
-1.74984e-09
-1.42712e-15
-4.81839e-09
-2.18882e-09
-8.03689e-16
-4.96176e-09
-2.62736e-09
-1.21957e-15
-5.07053e-09
-3.06173e-09
6.5018e-16
-5.14415e-09
-3.48743e-09
-1.9469e-16
-5.1828e-09
-3.90043e-09
-9.24514e-16
-5.18742e-09
-4.2952e-09
-8.08359e-16
-4.6672e-09
-4.57513e-15
8.15391e-13
4.84476e-11
-5.1867e-16
1.4239e-12
2.79122e-10
2.73481e-16
-3.73623e-12
6.27234e-10
1.27159e-15
-1.98834e-11
1.03062e-09
-3.16481e-15
-5.27704e-11
1.44046e-09
2.85317e-14
-1.06544e-10
1.82731e-09
-2.20596e-14
-1.85864e-10
2.15724e-09
-5.63246e-15
-2.94963e-10
2.42007e-09
2.64804e-14
-4.36376e-10
2.59284e-09
-8.87438e-15
-6.11629e-10
2.68488e-09
5.92316e-16
-8.17645e-10
2.6868e-09