/*--------------------------------*- C++ -*----------------------------------*\
| =========                 |                                                 |
| \\      /  F ield         | OpenFOAM: The Open Source CFD Toolbox           |
|  \\    /   O peration     | Version:  v2012                                 |
|   \\  /    A nd           | Website:  www.openfoam.com                      |
|    \\/     M anipulation  |                                                 |
\*---------------------------------------------------------------------------*/
FoamFile
{
    version     2.0;
    format      ascii;
    class       volScalarField;
    location    "0.1";
    object      alpha.water;
}
// * * * * * * * * * * * * * * * * * * * * * * * * * * * * * * * * * * * * * //

dimensions      [0 0 0 0 0 0 0];


internalField   nonuniform List<scalar> 
3332
(
2.29529e-27
5.1815e-29
1.50729e-30
2.77516e-31
3.73137e-31
4.55067e-30
1.58366e-28
5.75413e-27
2.40234e-25
2.08845e-22
7.54998e-21
5.29629e-20
1.5303e-19
2.61952e-19
3.32404e-19
3.71493e-19
4.57066e-19
1.68833e-18
6.56155e-18
1.49035e-17
3.16265e-13
5.78011e-20
2.66778e-27
6.12554e-29
1.78139e-30
2.32935e-31
2.80581e-31
2.24836e-30
7.11785e-29
2.46096e-27
7.96257e-26
5.7729e-23
3.3571e-21
2.91723e-20
9.54192e-20
1.74207e-19
2.23305e-19
2.36506e-19
2.25451e-19
4.30272e-19
1.5741e-18
3.69119e-18
0.99989
1
1.00001
0.999993
0.999994
0.999999
1
1
0.991197
0.987138
0.699338
0.148933
0.00794833
1.88927e-05
9.56167e-10
3.56093e-13
8.33092e-20
3.11552e-27
7.27065e-29
2.15969e-30
2.12707e-31
2.36376e-31
1.08312e-30
2.9575e-29
9.75779e-28
2.98422e-26
1.15013e-23
1.33203e-21
1.49781e-20
5.68557e-20
1.12726e-19
1.49353e-19
1.57326e-19
1.32497e-19
1.32128e-19
3.49452e-19
8.24957e-19
1.00007
1
1.00001
0.999996
0.999995
0.999999
1
1
0.989195
0.98639
0.993283
0.98911
0.688924
0.146187
0.00792979
2.32663e-05
1.06757e-09
4.01785e-13
1.18923e-19
3.65256e-27
8.67036e-29
2.66818e-30
2.0628e-31
1.99805e-31
5.15002e-31
1.16766e-29
3.7303e-28
1.21064e-26
1.33736e-24
4.5824e-22
7.06444e-21
3.2128e-20
7.08525e-20
9.98053e-20
1.08339e-19
8.17871e-20
5.96616e-20
8.00154e-20
1.68147e-19
1.00019
1.00001
1.00001
0.999998
0.999998
1
1
0.999999
0.986606
0.985528
0.993609
0.986175
0.67473
0.143195
0.00790766
2.84696e-05
1.19578e-09
4.54061e-13
1.67937e-19
4.29536e-27
1.03948e-28
3.35318e-30
2.01305e-31
9.50504e-32
2.15627e-31
4.39112e-30
1.37614e-28
4.36453e-27
2.2392e-25
1.31192e-22
3.00668e-21
1.70263e-20
4.28501e-20
6.51323e-20
7.34242e-20
5.899e-20
3.09665e-20
2.57911e-20
3.42085e-20
4.73108e-20
1.00016
1.00001
1.00001
0.999998
0.999999
0.999998
0.999999
0.999999
0.98373
0.984765
0.99378
0.982394
0.658535
0.139862
0.00788042
3.46136e-05
1.34569e-09
5.13679e-13
2.34399e-19
5.0633e-27
1.25209e-28
4.27476e-30
2.20953e-31
5.61954e-32
9.78637e-32
1.48107e-30
4.44322e-29
1.37124e-27
4.73075e-26
2.94429e-23
1.12823e-21
8.3267e-21
2.46862e-20
4.12931e-20
4.84963e-20
4.39956e-20
2.00961e-20
1.09629e-20
9.20988e-21
9.14014e-21
1.00012
1.00001
1.00001
0.999999
1
1
1
0.999879
0.98047
0.984143
0.99386
0.977996
0.641644
0.136186
0.00784975
4.18132e-05
1.52448e-09
5.81384e-13
3.23155e-19
5.97887e-27
1.51514e-28
5.51119e-30
2.99914e-31
4.42647e-32
5.80874e-32
4.65738e-31
1.28374e-29
3.86134e-28
1.10056e-26
4.52984e-24
3.63229e-22
3.6874e-21
1.33279e-20
2.52313e-20
3.14279e-20
3.13693e-20
1.5337e-20
6.21474e-21
3.47694e-21
2.27667e-21
1.42161e-21
1.00009
1.00002
1.00001
1
1
0.999999
1
0.999335
0.97682
0.983694
0.99386
0.973249
0.624532
0.132269
0.00781693
5.01809e-05
1.74284e-09
6.57842e-13
4.39855e-19
7.06802e-27
1.84188e-28
7.16084e-30
3.94922e-31
4.12277e-32
4.09013e-32
1.4596e-31
3.46369e-30
1.02789e-28
3.10356e-27
3.31661e-25
9.64563e-23
1.44852e-21
6.61692e-21
1.45592e-20
2.0084e-20
2.12203e-20
1.23075e-20
4.26509e-21
1.80539e-21
8.59519e-22
3.70799e-22
1.00008
1.00002
1.00002
0.999994
1
0.999998
1
0.998923
0.972893
0.983396
0.99386
0.968194
0.607367
0.128262
0.0077843
5.98209e-05
2.01684e-09
7.43562e-13
5.90898e-19
8.36046e-27
2.24948e-28
9.40167e-30
5.43376e-31
3.97769e-32
1.45934e-32
4.2359e-32
9.03003e-31
2.67352e-29
8.00484e-28
3.55097e-26
1.96313e-23
4.89732e-22
2.98388e-21
7.87746e-21
1.21736e-20
1.36861e-20
9.88384e-21
3.30133e-21
1.14253e-21
4.42153e-22
1.52134e-22
1.00001
1.00002
1.00002
0.999992
1
0.999997
1
0.998392
0.96867
0.983259
0.993837
0.96253
0.590164
0.124251
0.00775145
7.08239e-05
2.37096e-09
8.38816e-13
7.83313e-19
9.88995e-27
2.76034e-28
1.24538e-29
7.55409e-31
4.50902e-32
8.69447e-33
1.53335e-32
2.06888e-31
5.88324e-30
1.73674e-28
5.21741e-27
2.74503e-24
1.3662e-22
1.18275e-21
3.92311e-21
6.98696e-21
8.39555e-21
7.49763e-21
2.75756e-21
8.24747e-22
2.74729e-22
8.31499e-23
0.999957
1.00002
1.00002
0.99999
1
0.999997
1
0.997726
0.964206
0.983229
0.993767
0.956053
0.572768
0.12018
0.00770923
8.3266e-05
2.84257e-09
9.43561e-13
1.02456e-18
1.16946e-26
3.40383e-28
1.66416e-29
1.06119e-30
6.74397e-32
7.57152e-33
8.09574e-33
4.4759e-32
1.15021e-30
3.35644e-29
9.65979e-28
1.99697e-25
3.00907e-23
3.99507e-22
1.74695e-21
3.74095e-21
4.97302e-21
5.08088e-21
2.38053e-21
6.52858e-22
1.93133e-22
5.37332e-23
0.999922
1.00002
1.00002
0.999991
1
0.999997
1
0.996944
0.959562
0.983247
0.993636
0.948541
0.554911
0.115932
0.00763564
9.7221e-05
3.48865e-09
1.05736e-12
1.32229e-18
1.3817e-26
4.21852e-28
2.24192e-29
1.49471e-30
9.47967e-32
7.27986e-33
2.63142e-33
9.55724e-33
2.16788e-31
6.41394e-30
1.91812e-28
9.14177e-27
4.89212e-24
1.12039e-22
6.76908e-22
1.80121e-21
2.78707e-21
3.10603e-21
1.99867e-21
5.51657e-22
1.47284e-22
3.86667e-23
0.999937
1.00002
1.00002
0.999995
1
0.999997
1
0.996035
0.95476
0.983226
0.993424
0.93974
0.536347
0.111443
0.00751612
0.000112799
4.39494e-09
1.17934e-12
1.68398e-18
1.63048e-26
5.25515e-28
3.04266e-29
2.11856e-30
1.37518e-31
7.92882e-33
1.57348e-33
2.68011e-33
3.60533e-32
1.03063e-30
3.06072e-29
9.30799e-28
4.98878e-25
2.45978e-23
2.2184e-22
7.70429e-22
1.4167e-21
1.72534e-21
1.51025e-21
4.85224e-22
1.18602e-22
2.96942e-23
0.999992
1.00002
1.00002
0.999996
1
0.999998
1
0.994995
0.949804
0.982954
0.993105
0.92938
0.516924
0.106727
0.00736631
0.0001302
5.68777e-09
1.30812e-12
2.11666e-18
1.9211e-26
6.58046e-28
4.15611e-29
3.01587e-30
2.0091e-31
1.24335e-32
1.42636e-33
1.13891e-33
5.54993e-33
1.3921e-31
4.11587e-30
1.22149e-28
2.0021e-26
3.91789e-24
5.79453e-23
2.80086e-22
6.48265e-22
9.03316e-22
9.37758e-22
4.27048e-22
9.92816e-23
2.35754e-23
1.00002
1.00001
1.00001
0.999997
0.999999
0.999997
0.999999
0.99382
0.944705
0.982411
0.992646
0.917183
0.496614
0.101838
0.0072022
0.000149642
7.54744e-09
1.44187e-12
2.62641e-18
2.25942e-26
8.28222e-28
5.70796e-29
4.31048e-30
2.93553e-31
1.79201e-32
1.37747e-33
5.82063e-34
1.18655e-33
1.83792e-32
5.42453e-31
1.65403e-29
6.8252e-28
4.09499e-25
1.16471e-23
8.3195e-23
2.52981e-22
4.28574e-22
4.98401e-22
3.43247e-22
8.54561e-23
1.89436e-23
1.00004
1.00001
1.00001
0.999996
0.999999
0.999997
0.999999
0.992524
0.939502
0.981451
0.991913
0.902968
0.475509
0.0968189
0.00702266
0.000170718
1.02209e-08
1.5783e-12
3.21798e-18
2.6519e-26
1.04756e-27
7.87346e-29
6.18194e-30
4.31446e-31
2.68407e-32
1.79723e-33
5.0878e-34
7.79387e-34
3.52042e-33
5.78648e-32
1.66099e-30
4.83076e-29
2.04929e-26
1.62994e-24
1.92595e-23
8.24524e-23
1.75054e-22
2.27463e-22
2.22111e-22
7.44242e-23
1.52671e-23
1.00004
1.00001
1.00001
0.999996
1
0.999997
0.999998
0.991142
0.934267
0.979832
0.990759
0.88667
0.453768
0.0917122
0.00682394
0.000190739
1.40294e-08
1.7148e-12
3.89431e-18
3.10574e-26
1.33117e-27
1.08963e-28
8.89039e-30
6.36453e-31
4.02059e-32
2.48093e-33
4.73734e-34
1.16393e-33
9.32255e-33
1.85541e-32
1.73455e-31
4.55955e-30
2.39462e-28
1.40186e-25
3.11904e-24
2.02435e-23
5.87205e-23
9.61953e-23
1.08703e-22
6.09982e-23
1.24492e-23
1.00003
1.00001
1.00001
0.999997
0.999999
0.999995
0.999998
0.989714
0.929007
0.977393
0.989173
0.868273
0.431568
0.0865676
0.00660781
0.000205515
1.9367e-08
1.84858e-12
4.65592e-18
3.62889e-26
1.69878e-27
1.5114e-28
1.28135e-29
9.42633e-31
6.07692e-32
3.62927e-33
4.53546e-34
2.95372e-34
5.11687e-33
4.74139e-32
1.13892e-31
4.50377e-31
9.58677e-30
5.3125e-27
3.2791e-25
3.65844e-24
1.53237e-23
3.21301e-23
4.14954e-23
3.84128e-23
1.03416e-23
1.00002
1.00001
1.00001
0.999997
0.999997
0.999994
0.999998
0.988276
0.923644
0.974107
0.986967
0.847829
0.409097
0.081439
0.00637478
0.000214611
2.66858e-08
1.97691e-12
5.50018e-18
4.23016e-26
2.17614e-27
2.09924e-28
1.8498e-29
1.40098e-30
9.23671e-32
5.46741e-33
4.58901e-34
2.45367e-34
8.17735e-34
1.99303e-32
1.45196e-31
3.41249e-31
8.94582e-31
2.91495e-29
1.82062e-26
4.02967e-25
2.69039e-24
8.07481e-24
1.35591e-23
1.54209e-23
7.84958e-24
1.00001
1.00001
1
0.999998
0.999998
0.999993
0.999998
0.986849
0.918015
0.970084
0.983798
0.825531
0.386557
0.0763761
0.00612541
0.000218836
3.64675e-08
2.09743e-12
6.42053e-18
4.91922e-26
2.79665e-27
2.91714e-28
2.67346e-29
2.0887e-30
1.41191e-31
8.4439e-33
6.12456e-34
2.35859e-34
2.97927e-34
4.20984e-33
5.8768e-32
3.20148e-31
6.93648e-31
1.27433e-30
2.99223e-28
2.28642e-26
2.96414e-25
1.39704e-24
3.16573e-24
4.22437e-24
3.94463e-24
1.00001
1.00001
1
0.999997
0.999998
0.999993
0.999998
0.985444
0.912075
0.965265
0.979552
0.801513
0.364149
0.0714229
0.00586216
0.00021985
4.91877e-08
2.20847e-12
7.40537e-18
5.70655e-26
3.60341e-27
4.05249e-28
3.86634e-29
3.12237e-30
2.16917e-31
1.31528e-32
8.16904e-34
2.14034e-34
2.27214e-34
1.19539e-33
1.382e-32
1.31787e-31
5.17271e-31
1.00268e-30
1.467e-30
4.32852e-28
1.50232e-26
1.3202e-25
4.71809e-25
8.82903e-25
1.05787e-24
1
1.00001
1
0.999997
0.999998
0.999993
0.999998
0.984042
0.905839
0.959512
0.974149
0.775903
0.342069
0.0666179
0.00558893
0.000219453
6.52795e-08
2.30939e-12
8.43707e-18
6.60318e-26
4.65173e-27
5.62413e-28
5.59255e-29
4.67795e-30
3.34818e-31
2.07438e-32
1.20159e-33
1.95407e-34
1.79444e-34
6.51916e-34
3.04916e-33
3.40742e-32
2.08642e-31
6.33439e-31
1.23191e-30
2.12463e-30
1.88599e-28
4.73809e-27
3.47306e-26
1.06135e-25
1.67707e-25
1
1.00001
1
0.999997
0.999998
0.999993
0.999998
0.982665
0.899252
0.952745
0.967491
0.748856
0.320493
0.0619933
0.00530941
0.000216782
8.51087e-08
2.40096e-12
9.49109e-18
7.62039e-26
6.01216e-27
7.79298e-28
8.08778e-29
7.02102e-30
5.189e-31
3.29724e-32
1.86728e-33
1.83888e-34
1.34788e-34
4.13609e-34
1.12594e-33
7.6224e-33
6.45221e-32
2.71169e-31
6.28232e-31
1.03057e-30
1.68626e-30
3.52414e-29
7.95209e-28
5.28137e-27
1.41749e-26
0.999994
1.00001
1
0.999997
0.999998
0.999993
0.999998
0.981344
0.892244
0.944856
0.959466
0.720555
0.299571
0.0575742
0.00502701
0.00021211
1.08967e-07
2.48571e-12
1.05357e-17
8.76908e-26
7.77455e-27
1.07768e-27
1.16901e-28
1.05524e-29
8.07019e-31
5.27521e-32
3.01086e-33
2.06692e-34
9.48969e-35
2.63735e-34
6.47871e-34
1.91186e-33
1.44052e-32
8.44718e-32
2.69251e-31
5.20546e-31
7.32333e-31
9.68505e-31
4.32932e-30
6.63919e-29
4.11751e-28
0.99999
1.00001
1
0.999997
0.999997
0.999993
0.999998
0.980131
0.884705
0.93573
0.949956
0.691211
0.279426
0.0533787
0.00474537
0.000206093
1.37082e-07
2.56858e-12
1.15332e-17
1.00592e-25
1.00535e-26
1.48713e-27
1.68842e-28
1.58771e-29
1.2589e-30
8.48617e-32
4.93967e-33
2.85246e-34
7.04649e-35
1.51552e-34
4.1045e-34
8.34628e-34
3.25793e-33
2.04736e-32
8.39108e-32
2.04685e-31
3.29768e-31
4.02449e-31
4.37835e-31
6.03086e-31
3.66782e-30
0.999985
1.00001
1
0.999997
0.999997
0.999994
0.999998
0.978992
0.876641
0.92525
0.938823
0.661044
0.260146
0.0494178
0.00446785
0.000199176
1.69645e-07
2.65846e-12
1.24429e-17
1.14988e-25
1.29956e-26
2.04803e-27
2.43652e-28
2.39076e-29
1.96898e-30
1.37205e-31
8.19865e-33
4.42305e-34
5.91582e-35
7.58724e-35
2.55019e-34
4.86501e-34
1.01824e-33
4.35395e-33
2.0764e-32
6.42484e-32
1.27056e-31
1.73204e-31
1.8364e-31
1.21532e-31
8.65284e-32
0.99998
1.00001
1
0.999997
0.999997
0.999994
0.999998
0.977905
0.868067
0.913291
0.925933
0.63027
0.241787
0.045696
0.0041973
0.000191689
2.06845e-07
2.77231e-12
1.32274e-17
1.30937e-25
1.67883e-26
2.81592e-27
3.51302e-28
3.60199e-29
3.08726e-30
2.22907e-31
1.37282e-32
7.35397e-34
5.43346e-35
3.62491e-35
1.42498e-34
3.02191e-34
5.02369e-34
1.11031e-33
4.44807e-33
1.61951e-32
3.87145e-32
6.21932e-32
7.35514e-32
6.62471e-32
2.83443e-32
0.999975
1.00001
1
0.999997
0.999997
0.999994
0.999997
0.976861
0.85899
0.899733
0.911149
0.599087
0.224376
0.042212
0.00393585
0.000183887
2.48899e-07
2.94587e-12
1.38604e-17
1.4846e-25
2.16687e-26
3.86725e-27
5.06094e-28
5.42893e-29
4.85359e-30
3.63983e-31
2.31612e-32
1.2691e-33
6.93751e-35
1.95585e-35
6.64394e-35
1.80362e-34
2.99792e-34
4.53947e-34
9.72627e-34
3.27148e-33
9.40637e-33
1.84968e-32
2.54607e-32
2.71994e-32
1.5294e-32
0.999972
1.00001
1
0.999997
0.999997
0.999994
0.999996
0.975864
0.849429
0.884471
0.894332
0.567672
0.207914
0.0389595
0.00368498
0.000175958
2.96086e-07
3.25997e-12
1.4333e-17
1.67529e-25
2.79294e-26
5.30651e-27
7.28515e-28
8.18546e-29
7.65437e-30
5.97719e-31
3.93765e-32
2.21757e-33
1.1196e-34
1.41743e-35
2.44103e-35
9.4524e-35
1.81045e-34
2.57674e-34
3.49256e-34
6.67592e-34
1.8265e-33
4.1924e-33
6.76428e-33
8.05474e-33
7.09111e-33
0.999966
1.00001
1
0.999996
0.999997
0.999994
0.999996
0.97492
0.839397
0.867447
0.875347
0.536182
0.192384
0.0359288
0.0034455
0.00016803
3.48775e-07
3.89906e-12
1.46547e-17
1.88029e-25
3.59142e-26
7.27424e-27
1.04789e-27
1.23491e-28
1.21163e-29
9.87728e-31
6.75115e-32
3.92468e-33
1.97503e-34
1.28532e-35
8.16171e-36
4.0344e-35
9.96678e-35
1.55665e-34
1.92506e-34
2.24288e-34
3.35328e-34
7.16647e-34
1.39362e-33
1.97129e-33
2.1382e-33
0.999965
1.00001
1
0.999996
0.999996
0.999993
0.999996
0.974061
0.828912
0.848732
0.854011
0.504752
0.177752
0.0331075
0.00321773
0.000160186
4.07452e-07
5.26513e-12
1.48463e-17
2.09715e-25
4.60049e-26
9.95637e-27
1.50634e-27
1.86526e-28
1.92579e-29
1.64281e-30
1.16757e-31
7.02095e-33
3.6293e-34
1.80197e-35
4.00849e-36
1.30809e-35
4.6354e-35
8.71602e-35
1.16097e-34
1.2568e-34
1.25221e-34
1.26416e-34
2.16906e-34
3.38834e-34
4.07898e-34
0.999963
1.00001
1
0.999995
0.999996
0.999993
0.999995
0.973299
0.818072
0.828311
0.83006
0.473499
0.163975
0.0304818
0.00300162
0.000152479
4.72752e-07
8.15934e-12
1.49359e-17
2.32171e-25
5.85992e-26
1.35975e-26
2.16485e-27
2.82267e-28
3.07263e-29
2.74829e-30
2.03599e-31
1.26935e-32
6.75334e-34
3.16203e-35
3.09855e-36
3.1819e-36
1.74824e-35
4.17605e-35
6.48704e-35
7.53898e-35
7.48745e-35
5.48005e-35
4.72031e-35
5.08016e-35
6.05709e-35
0.999965
1.00002
1
0.999994
0.999996
0.999992
0.999994
0.972753
0.806973
0.806052
0.803184
0.442528
0.151003
0.0280374
0.00279685
0.00014494
5.45466e-07
1.39947e-11
1.49628e-17
2.54796e-25
7.40923e-26
1.85229e-26
3.11262e-27
4.28135e-28
4.91548e-29
4.61678e-30
3.57436e-31
2.31672e-32
1.27438e-33
6.00777e-35
2.70374e-36
1.02118e-36
5.14405e-36
1.68088e-35
3.18726e-35
4.30726e-35
4.66369e-35
3.67723e-35
2.16151e-35
1.49519e-35
1.12497e-35
0.999963
1.00002
1
0.999994
0.999996
0.999991
0.999993
0.97238
0.795567
0.78185
0.773031
0.41193
0.138784
0.0257599
0.002603
0.000137591
6.26516e-07
2.49304e-11
1.481e-17
2.76799e-25
9.28528e-26
2.51705e-26
4.48015e-27
6.50645e-28
7.87042e-29
7.77033e-30
6.30274e-31
4.25807e-32
2.42721e-33
1.18553e-34
5.22665e-36
5.70154e-37
1.12902e-36
5.53102e-36
1.31994e-35
2.08919e-35
2.45986e-35
2.46445e-35
1.45667e-35
8.02159e-36
4.57478e-36
0.999963
1.00002
1
0.999994
0.999996
0.999991
0.999992
0.972307
0.783951
0.755473
0.739439
0.381795
0.127267
0.023636
0.00241956
0.000130448
7.168e-07
4.3798e-11
1.40608e-17
2.9723e-25
1.15139e-25
3.41168e-26
6.45509e-27
9.89521e-28
1.25943e-28
1.30782e-29
1.11368e-30
7.86161e-32
4.6567e-33
2.34842e-34
1.01815e-35
4.82522e-37
2.32903e-37
1.35514e-36
4.41296e-36
8.67036e-36
1.20625e-35
1.32443e-35
1.02798e-35
5.1313e-36
2.68435e-36
0.999967
1.00002
1
0.999994
0.999996
0.999991
0.999992
0.972191
0.772447
0.726613
0.702393
0.352225
0.11641
0.0216536
0.00224603
0.000123523
8.16831e-07
7.37776e-11
1.2912e-17
3.15072e-25
1.40878e-25
4.60651e-26
9.30026e-27
1.50422e-27
2.01468e-28
2.20064e-29
1.96989e-30
1.45582e-31
8.98807e-33
4.70379e-34
2.11866e-35
8.68386e-37
1.03283e-37
2.36091e-37
1.15945e-36
2.94095e-36
4.92341e-36
5.9835e-36
6.0441e-36
3.39825e-36
1.62662e-36
0.999975
1.00002
1
0.999996
0.999996
0.999991
0.999991
0.972335
0.761299
0.695184
0.661987
0.32336
0.106178
0.0198025
0.00208195
0.000116822
9.26096e-07
1.17897e-10
1.17625e-17
3.293e-25
1.69361e-25
6.17816e-26
1.33812e-26
2.28661e-27
3.23136e-28
3.71069e-29
3.49303e-30
2.70643e-31
1.74626e-32
9.50728e-34
4.42576e-35
1.78082e-36
8.42821e-38
4.26208e-38
2.15981e-37
7.46798e-37
1.57904e-36
2.32677e-36
2.63845e-36
2.15412e-36
9.63001e-37
0.99998
1.00002
1
0.999996
0.999996
0.999991
0.999988
0.973135
0.7511
0.661322
0.618409
0.295402
0.0965547
0.0180751
0.00192698
0.00011035
1.04222e-06
1.78447e-10
1.08965e-17
3.38991e-25
1.99104e-25
8.20292e-26
1.92244e-26
3.4868e-27
5.22503e-28
6.30232e-29
6.23733e-30
5.07184e-31
3.42646e-32
1.9457e-33
9.41062e-35
3.93343e-36
1.54539e-37
2.09575e-38
2.78904e-38
1.34233e-37
3.71959e-37
6.9548e-37
9.24485e-37
9.74912e-37
5.72134e-37
0.999987
1.00001
0.999999
0.999996
0.999995
0.99999
0.999936
0.974155
0.742016
0.625384
0.571997
0.268619
0.0875406
0.0164669
0.00178092
0.00010411
1.16039e-06
2.56345e-10
1.04408e-17
3.44004e-25
2.27949e-25
1.0754e-25
2.76229e-26
5.35925e-27
8.56772e-28
1.08568e-28
1.12942e-29
9.64667e-31
6.82853e-32
4.04821e-33
2.03499e-34
8.77576e-36
3.3037e-37
1.63387e-38
7.92926e-39
1.82769e-38
6.02745e-38
1.45876e-37
2.41163e-37
2.88826e-37
2.76663e-37
0.999992
1.00001
1
0.999996
0.999994
0.99999
0.999886
0.975723
0.73649
0.588031
0.523373
0.243263
0.0791392
0.0149742
0.00164364
9.81018e-05
1.27383e-06
3.50442e-10
1.03121e-17
3.45551e-25
2.53264e-25
1.38792e-25
3.97499e-26
8.3269e-27
1.42865e-27
1.90883e-28
2.08923e-29
1.87636e-30
1.39127e-31
8.6071e-33
4.4979e-34
2.01034e-35
7.80205e-37
3.0308e-38
5.1549e-39
4.43685e-39
8.05571e-39
2.0284e-38
4.29198e-38
6.49632e-38
7.44118e-38
0.999994
1.00001
1
0.999997
0.999993
0.999989
0.999865
0.977853
0.732104
0.550312
0.473671
0.219558
0.071356
0.013595
0.00151508
9.23269e-05
1.37575e-06
4.56942e-10
1.03118e-17
3.42069e-25
2.72505e-25
1.75019e-25
5.7165e-26
1.30407e-26
2.41529e-27
3.43236e-28
3.96638e-29
3.75154e-30
2.91318e-31
1.87841e-32
1.0193e-33
4.71732e-35
1.883e-36
6.71928e-38
4.40141e-39
2.58184e-39
2.51598e-39
2.74878e-39
5.10707e-39
9.56372e-39
1.32529e-38
0.73074
0.513738
0.424568
0.197707
0.0642016
0.0123285
0.00139531
8.67963e-05
1.46211e-06
5.69397e-10
1.07024e-17
3.36707e-25
2.83945e-25
2.12679e-25
8.15644e-26
2.04045e-26
4.10567e-27
6.28281e-28
7.71947e-29
7.70899e-30
6.2804e-31
4.21955e-32
2.37558e-33
1.13803e-34
4.69425e-36
1.69461e-37
6.71375e-39
1.62853e-39
1.37637e-39
1.18194e-39
1.05139e-39
1.16661e-39
1.61415e-39
2.2951e-27
5.18111e-29
1.5072e-30
2.77512e-31
3.73134e-31
4.5507e-30
1.58367e-28
5.75417e-27
2.40239e-25
2.08848e-22
7.54998e-21
5.29629e-20
1.5303e-19
2.6195e-19
3.32401e-19
3.71489e-19
4.57061e-19
1.68832e-18
6.56152e-18
1.49035e-17
3.16275e-13
5.78034e-20
2.66755e-27
6.12503e-29
1.78128e-30
2.32932e-31
2.80577e-31
2.24838e-30
7.11791e-29
2.46098e-27
7.96267e-26
5.77302e-23
3.3571e-21
2.91723e-20
9.54188e-20
1.74206e-19
2.23303e-19
2.36504e-19
2.25448e-19
4.30268e-19
1.57409e-18
3.69117e-18
0.999905
1
1
0.999997
0.999997
1
1
1
0.991194
0.987138
0.699338
0.148934
0.00794836
1.88927e-05
9.56192e-10
3.56104e-13
8.33125e-20
3.11524e-27
7.27e-29
2.15955e-30
2.12703e-31
2.36372e-31
1.08312e-30
2.95752e-29
9.75786e-28
2.98423e-26
1.15017e-23
1.33203e-21
1.49781e-20
5.68555e-20
1.12725e-19
1.49352e-19
1.57325e-19
1.32496e-19
1.32126e-19
3.4945e-19
8.24952e-19
1.00005
1
1.00001
0.999998
0.999997
0.999999
1
1
0.989193
0.986391
0.993282
0.989111
0.688923
0.146188
0.00792981
2.32663e-05
1.06759e-09
4.01797e-13
1.18928e-19
3.65221e-27
8.66956e-29
2.66801e-30
2.06278e-31
1.99802e-31
5.15001e-31
1.16767e-29
3.73031e-28
1.21064e-26
1.33744e-24
4.58241e-22
7.06445e-21
3.21279e-20
7.0852e-20
9.98046e-20
1.08338e-19
8.17861e-20
5.96608e-20
8.00146e-20
1.68146e-19
1.00012
1.00001
1.00001
0.999999
0.999999
1
1
0.999999
0.986605
0.985528
0.993609
0.986177
0.674728
0.143196
0.00790768
2.84696e-05
1.19581e-09
4.54075e-13
1.67944e-19
4.29493e-27
1.03938e-28
3.35298e-30
2.01304e-31
9.50497e-32
2.15626e-31
4.39113e-30
1.37615e-28
4.36454e-27
2.23924e-25
1.31192e-22
3.00668e-21
1.70263e-20
4.28498e-20
6.51319e-20
7.34237e-20
5.89893e-20
3.09661e-20
2.57908e-20
3.42082e-20
4.73104e-20
1.0001
1.00001
1.00001
0.999998
1
0.999999
0.999999
0.999999
0.983729
0.984765
0.99378
0.982396
0.658533
0.139862
0.00788044
3.46136e-05
1.34573e-09
5.13695e-13
2.34409e-19
5.06278e-27
1.25197e-28
4.27451e-30
2.20928e-31
5.61946e-32
9.7863e-32
1.48107e-30
4.44323e-29
1.37124e-27
4.73084e-26
2.94431e-23
1.12824e-21
8.32669e-21
2.46861e-20
4.12928e-20
4.84959e-20
4.39952e-20
2.00958e-20
1.09627e-20
9.20976e-21
9.14004e-21
1.00008
1.00001
1.00001
0.999999
1
0.999999
1
0.999879
0.980469
0.984142
0.99386
0.977997
0.64164
0.136187
0.00784978
4.18132e-05
1.52452e-09
5.81403e-13
3.23168e-19
5.97824e-27
1.515e-28
5.51092e-30
2.99907e-31
4.42638e-32
5.80866e-32
4.65738e-31
1.28375e-29
3.86134e-28
1.10058e-26
4.52986e-24
3.63231e-22
3.6874e-21
1.33279e-20
2.52312e-20
3.14277e-20
3.13691e-20
1.53368e-20
6.21465e-21
3.47689e-21
2.27664e-21
1.42159e-21
1.00006
1.00001
1.00001
1
1
0.999999
1
0.999336
0.976818
0.983694
0.99386
0.973249
0.624528
0.13227
0.00781696
5.01809e-05
1.74288e-09
6.57863e-13
4.39873e-19
7.06728e-27
1.84171e-28
7.16055e-30
3.94906e-31
4.12271e-32
4.09008e-32
1.4596e-31
3.4637e-30
1.02789e-28
3.10357e-27
3.31664e-25
9.64569e-23
1.44852e-21
6.6169e-21
1.45591e-20
2.00839e-20
2.12201e-20
1.23073e-20
4.26503e-21
1.80536e-21
8.59505e-22
3.70793e-22
1.00005
1.00001
1.00001
0.999997
1
0.999998
1
0.998924
0.972891
0.983397
0.99386
0.968193
0.607362
0.128263
0.00778433
5.98209e-05
2.0169e-09
7.43586e-13
5.90923e-19
8.35959e-27
2.24928e-28
9.40137e-30
5.43359e-31
3.97766e-32
1.45934e-32
4.2359e-32
9.03006e-31
2.67353e-29
8.00486e-28
3.55098e-26
1.96314e-23
4.89733e-22
2.98388e-21
7.87743e-21
1.21735e-20
1.3686e-20
9.88374e-21
3.30129e-21
1.14251e-21
4.42146e-22
1.52132e-22
1.00001
1.00001
1.00001
0.999995
1
0.999998
1
0.998392
0.968668
0.983259
0.993837
0.962529
0.590159
0.124251
0.00775147
7.0824e-05
2.37102e-09
8.38844e-13
7.83346e-19
9.88892e-27
2.7601e-28
1.24535e-29
7.55388e-31
4.50847e-32
8.69439e-33
1.53335e-32
2.06889e-31
5.88326e-30
1.73675e-28
5.21742e-27
2.74505e-24
1.36621e-22
1.18275e-21
3.9231e-21
6.98692e-21
8.3955e-21
7.49757e-21
2.75753e-21
8.24735e-22
2.74724e-22
8.31486e-23
0.999971
1.00001
1.00001
0.999995
1
0.999998
1
0.997726
0.964204
0.983229
0.993766
0.956052
0.572762
0.12018
0.00770925
8.32661e-05
2.84265e-09
9.43593e-13
1.02461e-18
1.16933e-26
3.40354e-28
1.66414e-29
1.06117e-30
6.74374e-32
7.57145e-33
8.09568e-33
4.47591e-32
1.15021e-30
3.35645e-29
9.65983e-28
1.99696e-25
3.00909e-23
3.99507e-22
1.74695e-21
3.74093e-21
4.97299e-21
5.08084e-21
2.3805e-21
6.52849e-22
1.9313e-22
5.37324e-23
0.999947
1.00001
1.00001
0.999996
1
0.999998
1
0.996943
0.959559
0.983248
0.993636
0.948541
0.554904
0.115933
0.00763566
9.72213e-05
3.48874e-09
1.0574e-12
1.32234e-18
1.38155e-26
4.21815e-28
2.24189e-29
1.49467e-30
9.47921e-32
7.27984e-33
2.63138e-33
9.55725e-33
2.1679e-31
6.41399e-30
1.91814e-28
9.14179e-27
4.89216e-24
1.12039e-22
6.76908e-22
1.8012e-21
2.78705e-21
3.10601e-21
1.99865e-21
5.5165e-22
1.47282e-22
3.86661e-23
0.999969
1.00001
1.00001
0.999997
1
0.999998
1
0.996035
0.954758
0.983227
0.993424
0.939741
0.536341
0.111443
0.00751614
0.000112799
4.39504e-09
1.17938e-12
1.68406e-18
1.63031e-26
5.25467e-28
3.04262e-29
2.11851e-30
1.37512e-31
7.92817e-33
1.57344e-33
2.68008e-33
3.60536e-32
1.03064e-30
3.06074e-29
9.30799e-28
4.98885e-25
2.45979e-23
2.2184e-22
7.70427e-22
1.41669e-21
1.72533e-21
1.51024e-21
4.85218e-22
1.186e-22
2.96937e-23
0.999997
1.00001
1.00001
0.999998
1
0.999998
0.999999
0.994995
0.949801
0.982956
0.993105
0.929381
0.516918
0.106728
0.00736632
0.0001302
5.6879e-09
1.30817e-12
2.11676e-18
1.9209e-26
6.57983e-28
4.15606e-29
3.0158e-30
2.00901e-31
1.24331e-32
1.42632e-33
1.13891e-33
5.54997e-33
1.39212e-31
4.11591e-30
1.2215e-28
2.00216e-26
3.91792e-24
5.79455e-23
2.80086e-22
6.48263e-22
9.03311e-22
9.37753e-22
4.27043e-22
9.92803e-23
2.3575e-23
1.00001
1.00001
1.00001
0.999998
1
0.999998
0.999999
0.99382
0.944702
0.982413
0.992646
0.917186
0.496607
0.101838
0.00720221
0.000149643
7.5476e-09
1.44192e-12
2.62653e-18
2.25917e-26
8.28135e-28
5.70786e-29
4.31035e-30
2.93539e-31
1.79194e-32
1.37743e-33
5.82061e-34
1.18655e-33
1.83793e-32
5.42458e-31
1.65404e-29
6.82531e-28
4.09504e-25
1.16472e-23
8.31951e-23
2.52981e-22
4.28573e-22
4.98398e-22
3.43244e-22
8.5455e-23
1.89434e-23
1.00002
1.00001
1.00001
0.999998
1
0.999998
0.999999
0.992524
0.939499
0.981453
0.991913
0.902971
0.475503
0.0968194
0.00702267
0.00017072
1.02211e-08
1.57836e-12
3.21813e-18
2.6516e-26
1.04744e-27
7.87325e-29
6.1817e-30
4.31424e-31
2.68396e-32
1.79715e-33
5.08778e-34
7.79379e-34
3.52042e-33
5.78653e-32
1.661e-30
4.83084e-29
2.04933e-26
1.62995e-24
1.92596e-23
8.24525e-23
1.75054e-22
2.27462e-22
2.2211e-22
7.44234e-23
1.52669e-23
1.00003
1.00001
1.00001
0.999997
1
0.999997
0.999998
0.991141
0.934264
0.979834
0.990759
0.886674
0.453762
0.0917126
0.00682395
0.00019074
1.40296e-08
1.71486e-12
3.8945e-18
3.10536e-26
1.33098e-27
1.08958e-28
8.88997e-30
6.36417e-31
4.02042e-32
2.48081e-33
4.73734e-34
1.16394e-33
9.32247e-33
1.85536e-32
1.73455e-31
4.55961e-30
2.39465e-28
1.40187e-25
3.11906e-24
2.02436e-23
5.87205e-23
9.6195e-23
1.08703e-22
6.09976e-23
1.24491e-23
1.00002
1
1
0.999998
0.999999
0.999996
0.999998
0.989713
0.929004
0.977395
0.989173
0.868277
0.431562
0.086568
0.00660782
0.000205517
1.93674e-08
1.84865e-12
4.65614e-18
3.62841e-26
1.69848e-27
1.51131e-28
1.28128e-29
9.42577e-31
6.07665e-32
3.62908e-33
4.53541e-34
2.95366e-34
5.11693e-33
4.74132e-32
1.13887e-31
4.50378e-31
9.5869e-30
5.3126e-27
3.27913e-25
3.65846e-24
1.53237e-23
3.21301e-23
4.14953e-23
3.84126e-23
1.03414e-23
1.00001
1
1
0.999998
0.999998
0.999996
0.999998
0.988275
0.923642
0.974109
0.986968
0.847832
0.409091
0.0814394
0.0063748
0.000214612
2.66862e-08
1.97699e-12
5.50045e-18
4.22952e-26
2.17566e-27
2.09905e-28
1.84968e-29
1.40089e-30
9.23628e-32
5.46711e-33
4.58857e-34
2.4536e-34
8.17753e-34
1.99303e-32
1.45195e-31
3.41244e-31
8.94584e-31
2.915e-29
1.82065e-26
4.0297e-25
2.6904e-24
8.07483e-24
1.35591e-23
1.54209e-23
7.84951e-24
1.00001
1
1
0.999999
0.999999
0.999995
0.999998
0.986847
0.918013
0.970087
0.9838
0.825534
0.386551
0.0763765
0.00612543
0.000218837
3.64681e-08
2.09752e-12
6.42083e-18
4.91836e-26
2.79588e-27
2.91675e-28
2.67325e-29
2.08856e-30
1.41184e-31
8.44346e-33
6.12432e-34
2.35852e-34
2.97932e-34
4.20983e-33
5.87681e-32
3.20147e-31
6.93641e-31
1.27433e-30
2.9923e-28
2.28646e-26
2.96417e-25
1.39705e-24
3.16573e-24
4.22437e-24
3.94462e-24
1
1
1
0.999998
0.999999
0.999995
0.999998
0.985443
0.912073
0.965268
0.979554
0.801515
0.364143
0.0714233
0.00586218
0.000219852
4.91885e-08
2.20856e-12
7.40572e-18
5.70541e-26
3.60221e-27
4.05179e-28
3.86603e-29
3.12216e-30
2.16906e-31
1.31521e-32
8.16858e-34
2.14027e-34
2.27214e-34
1.19539e-33
1.382e-32
1.31787e-31
5.1727e-31
1.00267e-30
1.46701e-30
4.32862e-28
1.50234e-26
1.32021e-25
4.71812e-25
8.82907e-25
1.05787e-24
1
1.00001
1
0.999998
0.999999
0.999995
0.999998
0.984041
0.905837
0.959515
0.974152
0.775905
0.342064
0.0666183
0.00558895
0.000219454
6.52804e-08
2.30949e-12
8.43748e-18
6.6017e-26
4.6499e-27
5.62296e-28
5.59212e-29
4.67765e-30
3.34802e-31
2.07427e-32
1.20153e-33
1.95401e-34
1.79442e-34
6.51916e-34
3.04915e-33
3.40743e-32
2.08642e-31
6.33437e-31
1.23191e-30
2.12464e-30
1.88604e-28
4.73818e-27
3.47311e-26
1.06136e-25
1.67708e-25
0.999999
1.00001
1
0.999998
0.999999
0.999995
0.999998
0.982664
0.89925
0.952748
0.967494
0.748858
0.320488
0.0619937
0.00530943
0.000216783
8.51099e-08
2.40106e-12
9.49156e-18
7.61853e-26
6.00953e-27
7.79121e-28
8.08726e-29
7.0206e-30
5.18874e-31
3.29706e-32
1.86717e-33
1.83881e-34
1.34787e-34
4.1361e-34
1.12593e-33
7.62242e-33
6.45222e-32
2.71169e-31
6.2823e-31
1.03057e-30
1.68626e-30
3.52424e-29
7.95227e-28
5.28145e-27
1.4175e-26
0.999996
1.00001
1
0.999998
0.999998
0.999994
0.999998
0.981343
0.892242
0.944859
0.95947
0.720557
0.299567
0.0575746
0.00502704
0.000212112
1.08968e-07
2.48582e-12
1.05362e-17
8.76687e-26
7.77101e-27
1.07744e-27
1.16895e-28
1.05518e-29
8.06977e-31
5.27491e-32
3.01068e-33
2.06679e-34
9.48943e-35
2.63736e-34
6.47868e-34
1.91186e-33
1.44053e-32
8.44719e-32
2.69251e-31
5.20544e-31
7.3233e-31
9.68502e-31
4.32941e-30
6.63936e-29
4.1176e-28
0.999993
1.00001
1
0.999998
0.999998
0.999995
0.999998
0.980129
0.884703
0.935733
0.94996
0.691213
0.279422
0.0533791
0.00474539
0.000206095
1.37084e-07
2.56869e-12
1.15337e-17
1.00567e-25
1.00491e-26
1.48684e-27
1.68837e-28
1.58763e-29
1.25883e-30
8.48566e-32
4.93937e-33
2.85229e-34
7.04618e-35
1.51553e-34
4.10448e-34
8.34625e-34
3.25792e-33
2.04736e-32
8.39109e-32
2.04685e-31
3.29767e-31
4.02448e-31
4.37833e-31
6.03093e-31
3.66792e-30
0.99999
1.00001
1
0.999998
0.999998
0.999995
0.999998
0.97899
0.876639
0.925253
0.938826
0.661046
0.260142
0.0494182
0.00446788
0.000199177
1.69647e-07
2.65858e-12
1.24435e-17
1.14962e-25
1.29904e-26
2.04775e-27
2.43647e-28
2.39063e-29
1.96886e-30
1.37197e-31
8.19814e-33
4.42277e-34
5.91551e-35
7.58727e-35
2.55018e-34
4.86499e-34
1.01823e-33
4.35394e-33
2.07641e-32
6.42484e-32
1.27056e-31
1.73203e-31
1.83639e-31
1.21531e-31
8.65286e-32
0.999987
1.00001
1
0.999998
0.999998
0.999995
0.999998
0.977903
0.868065
0.913293
0.925937
0.630271
0.241784
0.0456964
0.00419732
0.00019169
2.06847e-07
2.77243e-12
1.32281e-17
1.3091e-25
1.67827e-26
2.81573e-27
3.51295e-28
3.60178e-29
3.08707e-30
2.22892e-31
1.37273e-32
7.35348e-34
5.43317e-35
3.62483e-35
1.42498e-34
3.0219e-34
5.02368e-34
1.11031e-33
4.44807e-33
1.61952e-32
3.87145e-32
6.21932e-32
7.35513e-32
6.62468e-32
2.83441e-32
0.999984
1.00001
1
0.999998
0.999998
0.999995
0.999997
0.976859
0.858988
0.899735
0.911153
0.599088
0.224373
0.0422124
0.00393588
0.000183888
2.48901e-07
2.946e-12
1.38611e-17
1.48435e-25