/*--------------------------------*- C++ -*----------------------------------*\
| =========                 |                                                 |
| \\      /  F ield         | OpenFOAM: The Open Source CFD Toolbox           |
|  \\    /   O peration     | Version:  v2012                                 |
|   \\  /    A nd           | Website:  www.openfoam.com                      |
|    \\/     M anipulation  |                                                 |
\*---------------------------------------------------------------------------*/
FoamFile
{
    version     2.0;
    format      ascii;
    class       volScalarField;
    location    "0.1";
    object      p;
}
// * * * * * * * * * * * * * * * * * * * * * * * * * * * * * * * * * * * * * //

dimensions      [1 -1 -2 0 0 0 0];


internalField   nonuniform List<scalar> 
3332
(
3.47103e+06
3.47295e+06
3.47469e+06
3.47627e+06
3.47771e+06
3.47901e+06
3.48019e+06
3.48126e+06
3.48224e+06
3.48312e+06
3.48393e+06
3.48467e+06
3.48534e+06
3.48596e+06
3.48652e+06
3.48704e+06
3.48752e+06
3.48795e+06
3.48835e+06
3.48872e+06
3.46564e+06
3.46794e+06
3.47005e+06
3.47204e+06
3.47385e+06
3.47551e+06
3.47702e+06
3.47838e+06
3.47962e+06
3.48074e+06
3.48176e+06
3.48269e+06
3.48353e+06
3.4843e+06
3.485e+06
3.48564e+06
3.48623e+06
3.48676e+06
3.48725e+06
3.4877e+06
3.48812e+06
3.48849e+06
3.45415e+06
3.47489e+06
3.44901e+06
3.44682e+06
3.44416e+06
3.43687e+06
3.44146e+06
3.45311e+06
3.4761e+06
3.48579e+06
3.47891e+06
3.45921e+06
3.45771e+06
3.45944e+06
3.462e+06
3.46438e+06
3.4668e+06
3.46903e+06
3.47113e+06
3.47303e+06
3.47477e+06
3.47635e+06
3.47778e+06
3.47908e+06
3.48025e+06
3.48131e+06
3.48228e+06
3.48315e+06
3.48395e+06
3.48468e+06
3.48534e+06
3.48594e+06
3.4865e+06
3.487e+06
3.48746e+06
3.48789e+06
3.48827e+06
3.4703e+06
3.48318e+06
3.46501e+06
3.46252e+06
3.4632e+06
3.46082e+06
3.46407e+06
3.46682e+06
3.47835e+06
3.486e+06
3.48538e+06
3.49052e+06
3.47544e+06
3.45591e+06
3.45485e+06
3.45737e+06
3.46028e+06
3.46297e+06
3.4656e+06
3.468e+06
3.47022e+06
3.47224e+06
3.47407e+06
3.47572e+06
3.47721e+06
3.47856e+06
3.47978e+06
3.48089e+06
3.48189e+06
3.48279e+06
3.48362e+06
3.48437e+06
3.48505e+06
3.48567e+06
3.48624e+06
3.48676e+06
3.48723e+06
3.48767e+06
3.48806e+06
3.47508e+06
3.48652e+06
3.47212e+06
3.47448e+06
3.47288e+06
3.47727e+06
3.4752e+06
3.47304e+06
3.47555e+06
3.48229e+06
3.47968e+06
3.48566e+06
3.4692e+06
3.45198e+06
3.4515e+06
3.45505e+06
3.4584e+06
3.46151e+06
3.46437e+06
3.46698e+06
3.46934e+06
3.47147e+06
3.4734e+06
3.47512e+06
3.47668e+06
3.47808e+06
3.47935e+06
3.48049e+06
3.48152e+06
3.48245e+06
3.4833e+06
3.48407e+06
3.48477e+06
3.48541e+06
3.48599e+06
3.48652e+06
3.48701e+06
3.48745e+06
3.48786e+06
3.48823e+06
3.47513e+06
3.48526e+06
3.47277e+06
3.4782e+06
3.47315e+06
3.48282e+06
3.47554e+06
3.47103e+06
3.46959e+06
3.47638e+06
3.47288e+06
3.47902e+06
3.46232e+06
3.44806e+06
3.4482e+06
3.45274e+06
3.45653e+06
3.46005e+06
3.46318e+06
3.46599e+06
3.4685e+06
3.47075e+06
3.47277e+06
3.47457e+06
3.47619e+06
3.47764e+06
3.47894e+06
3.48012e+06
3.48118e+06
3.48214e+06
3.48301e+06
3.4838e+06
3.48451e+06
3.48517e+06
3.48576e+06
3.4863e+06
3.4868e+06
3.48725e+06
3.48766e+06
3.48804e+06
3.4716e+06
3.478e+06
3.47035e+06
3.47416e+06
3.46978e+06
3.47753e+06
3.47176e+06
3.4644e+06
3.46281e+06
3.47012e+06
3.46618e+06
3.47212e+06
3.45584e+06
3.44436e+06
3.44522e+06
3.45056e+06
3.45477e+06
3.45868e+06
3.46205e+06
3.46506e+06
3.46773e+06
3.47009e+06
3.47219e+06
3.47406e+06
3.47573e+06
3.47723e+06
3.47857e+06
3.47978e+06
3.48086e+06
3.48184e+06
3.48273e+06
3.48354e+06
3.48427e+06
3.48493e+06
3.48554e+06
3.48609e+06
3.48659e+06
3.48705e+06
3.48747e+06
3.48785e+06
3.4882e+06
3.46883e+06
3.46652e+06
3.46818e+06
3.46503e+06
3.46722e+06
3.46636e+06
3.46654e+06
3.45691e+06
3.45629e+06
3.46429e+06
3.46004e+06
3.46564e+06
3.45003e+06
3.44097e+06
3.44264e+06
3.44861e+06
3.4532e+06
3.45744e+06
3.46104e+06
3.46423e+06
3.46703e+06
3.4695e+06
3.47168e+06
3.47361e+06
3.47533e+06
3.47686e+06
3.47824e+06
3.47947e+06
3.48058e+06
3.48158e+06
3.48248e+06
3.4833e+06
3.48404e+06
3.48472e+06
3.48533e+06
3.48589e+06
3.4864e+06
3.48686e+06
3.48729e+06
3.48767e+06
3.48802e+06
3.46896e+06
3.45694e+06
3.46742e+06
3.45668e+06
3.46643e+06
3.45779e+06
3.46083e+06
3.45062e+06
3.45014e+06
3.45902e+06
3.45439e+06
3.45968e+06
3.44485e+06
3.43795e+06
3.44047e+06
3.44694e+06
3.45186e+06
3.45637e+06
3.46017e+06
3.46352e+06
3.46643e+06
3.46898e+06
3.47123e+06
3.47321e+06
3.47497e+06
3.47654e+06
3.47794e+06
3.47919e+06
3.48032e+06
3.48133e+06
3.48225e+06
3.48308e+06
3.48383e+06
3.48451e+06
3.48513e+06
3.4857e+06
3.48622e+06
3.48669e+06
3.48711e+06
3.4875e+06
3.48786e+06
3.46747e+06
3.45085e+06
3.46539e+06
3.4518e+06
3.46497e+06
3.45383e+06
3.45484e+06
3.44537e+06
3.44425e+06
3.45431e+06
3.4491e+06
3.45438e+06
3.44023e+06
3.43541e+06
3.43868e+06
3.44556e+06
3.45077e+06
3.4555e+06
3.45946e+06
3.46292e+06
3.46593e+06
3.46855e+06
3.47085e+06
3.47288e+06
3.47467e+06
3.47626e+06
3.47768e+06
3.47895e+06
3.48009e+06
3.48112e+06
3.48204e+06
3.48288e+06
3.48364e+06
3.48433e+06
3.48495e+06
3.48552e+06
3.48604e+06
3.48652e+06
3.48695e+06
3.48734e+06
3.4877e+06
3.46081e+06
3.44752e+06
3.45914e+06
3.44895e+06
3.4594e+06
3.45103e+06
3.44803e+06
3.44048e+06
3.43862e+06
3.45002e+06
3.44426e+06
3.44963e+06
3.43616e+06
3.43334e+06
3.43727e+06
3.44451e+06
3.44993e+06
3.45484e+06
3.45891e+06
3.46247e+06
3.46554e+06
3.46822e+06
3.47056e+06
3.47261e+06
3.47443e+06
3.47604e+06
3.47747e+06
3.47875e+06
3.47989e+06
3.48092e+06
3.48186e+06
3.4827e+06
3.48346e+06
3.48415e+06
3.48478e+06
3.48536e+06
3.48588e+06
3.48636e+06
3.48679e+06
3.48718e+06
3.48754e+06
3.45014e+06
3.44697e+06
3.44889e+06
3.44687e+06
3.44939e+06
3.44731e+06
3.44089e+06
3.43606e+06
3.4337e+06
3.44615e+06
3.43999e+06
3.44542e+06
3.43272e+06
3.43175e+06
3.43625e+06
3.44378e+06
3.44936e+06
3.45439e+06
3.45854e+06
3.46216e+06
3.46527e+06
3.46798e+06
3.47034e+06
3.47242e+06
3.47424e+06
3.47586e+06
3.47729e+06
3.47858e+06
3.47973e+06
3.48076e+06
3.48169e+06
3.48254e+06
3.4833e+06
3.484e+06
3.48463e+06
3.4852e+06
3.48573e+06
3.4862e+06
3.48664e+06
3.48703e+06
3.4874e+06
3.43837e+06
3.4478e+06
3.43818e+06
3.44604e+06
3.43918e+06
3.44337e+06
3.43479e+06
3.43235e+06
3.42966e+06
3.4426e+06
3.43641e+06
3.4417e+06
3.42996e+06
3.43065e+06
3.43563e+06
3.44337e+06
3.44905e+06
3.45416e+06
3.45835e+06
3.462e+06
3.46512e+06
3.46784e+06
3.47021e+06
3.47228e+06
3.47411e+06
3.47573e+06
3.47716e+06
3.47844e+06
3.47959e+06
3.48062e+06
3.48155e+06
3.4824e+06
3.48316e+06
3.48385e+06
3.48448e+06
3.48506e+06
3.48558e+06
3.48606e+06
3.4865e+06
3.48689e+06
3.48725e+06
3.42992e+06
3.4495e+06
3.43092e+06
3.4467e+06
3.43307e+06
3.44018e+06
3.43041e+06
3.42909e+06
3.42628e+06
3.43925e+06
3.43349e+06
3.43838e+06
3.42789e+06
3.42999e+06
3.43541e+06
3.44328e+06
3.449e+06
3.45414e+06
3.45833e+06
3.46198e+06
3.46509e+06
3.4678e+06
3.47016e+06
3.47222e+06
3.47404e+06
3.47564e+06
3.47707e+06
3.47834e+06
3.47948e+06
3.48051e+06
3.48144e+06
3.48227e+06
3.48303e+06
3.48373e+06
3.48435e+06
3.48493e+06
3.48545e+06
3.48593e+06
3.48636e+06
3.48676e+06
3.48712e+06
3.42691e+06
3.45049e+06
3.42839e+06
3.44715e+06
3.43135e+06
3.43745e+06
3.4273e+06
3.42592e+06
3.42339e+06
3.43607e+06
3.43126e+06
3.43546e+06
3.42657e+06
3.42979e+06
3.43561e+06
3.4435e+06
3.44922e+06
3.45433e+06
3.45848e+06
3.46209e+06
3.46518e+06
3.46785e+06
3.47018e+06
3.47222e+06
3.47402e+06
3.47561e+06
3.47702e+06
3.47828e+06
3.47941e+06
3.48042e+06
3.48134e+06
3.48217e+06
3.48293e+06
3.48361e+06
3.48424e+06
3.48481e+06
3.48533e+06
3.4858e+06
3.48624e+06
3.48663e+06
3.48699e+06
3.42759e+06
3.44835e+06
3.42891e+06
3.44544e+06
3.43142e+06
3.43438e+06
3.42476e+06
3.42279e+06
3.42095e+06
3.43296e+06
3.42993e+06
3.43304e+06
3.42616e+06
3.43008e+06
3.43625e+06
3.44402e+06
3.44969e+06
3.45472e+06
3.4588e+06
3.46235e+06
3.46537e+06
3.468e+06
3.47028e+06
3.47229e+06
3.47405e+06
3.47561e+06
3.477e+06
3.47824e+06
3.47936e+06
3.48036e+06
3.48127e+06
3.48209e+06
3.48284e+06
3.48351e+06
3.48413e+06
3.4847e+06
3.48522e+06
3.48569e+06
3.48612e+06
3.48651e+06
3.48687e+06
3.42786e+06
3.44212e+06
3.42982e+06
3.44121e+06
3.43114e+06
3.43082e+06
3.42252e+06
3.42002e+06
3.41901e+06
3.43044e+06
3.42929e+06
3.43132e+06
3.4266e+06
3.43086e+06
3.43731e+06
3.44484e+06
3.45041e+06
3.4553e+06
3.45928e+06
3.46273e+06
3.46567e+06
3.46823e+06
3.47046e+06
3.47241e+06
3.47414e+06
3.47567e+06
3.47703e+06
3.47824e+06
3.47934e+06
3.48032e+06
3.48122e+06
3.48202e+06
3.48276e+06
3.48343e+06
3.48404e+06
3.4846e+06
3.48511e+06
3.48558e+06
3.48601e+06
3.4864e+06
3.48675e+06
3.42946e+06
3.43523e+06
3.4303e+06
3.43567e+06
3.43003e+06
3.42724e+06
3.4207e+06
3.41795e+06
3.41768e+06
3.42848e+06
3.42936e+06
3.43039e+06
3.42782e+06
3.43212e+06
3.43877e+06
3.44592e+06
3.45135e+06
3.45605e+06
3.4599e+06
3.46322e+06
3.46606e+06
3.46854e+06
3.4707e+06
3.4726e+06
3.47427e+06
3.47576e+06
3.47709e+06
3.47827e+06
3.47934e+06
3.48031e+06
3.48118e+06
3.48198e+06
3.4827e+06
3.48336e+06
3.48396e+06
3.48451e+06
3.48502e+06
3.48548e+06
3.4859e+06
3.48629e+06
3.48664e+06
3.4302e+06
3.42834e+06
3.42988e+06
3.43018e+06
3.4285e+06
3.42426e+06
3.41956e+06
3.41682e+06
3.41716e+06
3.42705e+06
3.43014e+06
3.43027e+06
3.42976e+06
3.43382e+06
3.44057e+06
3.44726e+06
3.4525e+06
3.45696e+06
3.46064e+06
3.46382e+06
3.46655e+06
3.46892e+06
3.471e+06
3.47283e+06
3.47445e+06
3.47589e+06
3.47718e+06
3.47833e+06
3.47937e+06
3.48031e+06
3.48117e+06
3.48195e+06
3.48266e+06
3.4833e+06
3.4839e+06
3.48444e+06
3.48494e+06
3.48539e+06
3.48581e+06
3.48619e+06
3.48654e+06
3.43053e+06
3.42299e+06
3.42932e+06
3.42578e+06
3.42709e+06
3.42226e+06
3.41924e+06
3.41668e+06
3.41737e+06
3.42619e+06
3.43155e+06
3.43092e+06
3.43229e+06
3.43591e+06
3.44267e+06
3.44881e+06
3.45382e+06
3.458e+06
3.4615e+06
3.46451e+06
3.4671e+06
3.46937e+06
3.47135e+06
3.47311e+06
3.47467e+06
3.47605e+06
3.4773e+06
3.47842e+06
3.47943e+06
3.48034e+06
3.48117e+06
3.48193e+06
3.48262e+06
3.48326e+06
3.48384e+06
3.48437e+06
3.48486e+06
3.48531e+06
3.48572e+06
3.4861e+06
3.48644e+06
3.43029e+06
3.41927e+06
3.42886e+06
3.42294e+06
3.42625e+06
3.42142e+06
3.41973e+06
3.41746e+06
3.41821e+06
3.42588e+06
3.43359e+06
3.43221e+06
3.43531e+06
3.4383e+06
3.445e+06
3.45053e+06
3.45528e+06
3.45916e+06
3.46245e+06
3.46528e+06
3.46773e+06
3.46987e+06
3.47176e+06
3.47343e+06
3.47492e+06
3.47625e+06
3.47745e+06
3.47853e+06
3.4795e+06
3.48039e+06
3.4812e+06
3.48193e+06
3.48261e+06
3.48323e+06
3.48379e+06
3.48432e+06
3.48479e+06
3.48524e+06
3.48564e+06
3.48601e+06
3.48635e+06
3.43067e+06
3.41775e+06
3.42883e+06
3.42166e+06
3.42613e+06
3.42164e+06
3.42091e+06
3.41896e+06
3.4195e+06
3.42604e+06
3.43616e+06
3.43403e+06
3.43873e+06
3.44093e+06
3.4475e+06
3.45238e+06
3.45686e+06
3.4604e+06
3.46348e+06
3.46611e+06
3.46841e+06
3.47042e+06
3.4722e+06
3.47379e+06
3.47521e+06
3.47648e+06
3.47762e+06
3.47866e+06
3.4796e+06
3.48045e+06
3.48123e+06
3.48195e+06
3.4826e+06
3.48321e+06
3.48376e+06
3.48427e+06
3.48474e+06
3.48517e+06
3.48557e+06
3.48593e+06
3.48627e+06
3.43123e+06
3.41766e+06
3.42919e+06
3.42162e+06
3.42666e+06
3.42271e+06
3.42263e+06
3.42096e+06
3.42108e+06
3.42664e+06
3.43913e+06
3.43632e+06
3.4424e+06
3.44371e+06
3.45011e+06
3.45433e+06
3.45851e+06
3.46171e+06
3.46456e+06
3.46699e+06
3.46913e+06
3.47101e+06
3.47268e+06
3.47418e+06
3.47552e+06
3.47673e+06
3.47782e+06
3.47881e+06
3.47971e+06
3.48053e+06
3.48129e+06
3.48198e+06
3.48261e+06
3.4832e+06
3.48373e+06
3.48423e+06
3.48469e+06
3.48511e+06
3.4855e+06
3.48586e+06
3.48619e+06
3.43222e+06
3.41878e+06
3.43013e+06
3.42258e+06
3.42773e+06
3.42435e+06
3.42468e+06
3.42321e+06
3.42275e+06
3.42757e+06
3.44238e+06
3.43896e+06
3.4462e+06
3.44659e+06
3.45278e+06
3.45632e+06
3.4602e+06
3.46305e+06
3.46569e+06
3.4679e+06
3.46988e+06
3.47163e+06
3.47319e+06
3.47459e+06
3.47586e+06
3.477e+06
3.47804e+06
3.47898e+06
3.47984e+06
3.48063e+06
3.48135e+06
3.48202e+06
3.48263e+06
3.4832e+06
3.48372e+06
3.4842e+06
3.48465e+06
3.48506e+06
3.48544e+06
3.48579e+06
3.48611e+06
3.43309e+06
3.42043e+06
3.43145e+06
3.42421e+06
3.4292e+06
3.42634e+06
3.42686e+06
3.42549e+06
3.4244e+06
3.42872e+06
3.44576e+06
3.44183e+06
3.45002e+06
3.44949e+06
3.45545e+06
3.45833e+06
3.46192e+06
3.46442e+06
3.46683e+06
3.46883e+06
3.47066e+06
3.47227e+06
3.47372e+06
3.47503e+06
3.47622e+06
3.47729e+06
3.47827e+06
3.47917e+06
3.47999e+06
3.48074e+06
3.48143e+06
3.48207e+06
3.48266e+06
3.48321e+06
3.48371e+06
3.48418e+06
3.48461e+06
3.48501e+06
3.48538e+06
3.48573e+06
3.48604e+06
3.43475e+06
3.42297e+06
3.43316e+06
3.42631e+06
3.43094e+06
3.42853e+06
3.42903e+06
3.42772e+06
3.42592e+06
3.42995e+06
3.44915e+06
3.44483e+06
3.45375e+06
3.45235e+06
3.45806e+06
3.46031e+06
3.46362e+06
3.46578e+06
3.46798e+06
3.46978e+06
3.47145e+06
3.47292e+06
3.47427e+06
3.47548e+06
3.47659e+06
3.4776e+06
3.47852e+06
3.47937e+06
3.48015e+06
3.48086e+06
3.48152e+06
3.48214e+06
3.4827e+06
3.48323e+06
3.48371e+06
3.48416e+06
3.48458e+06
3.48497e+06
3.48534e+06
3.48567e+06
3.48598e+06
3.4365e+06
3.42577e+06
3.43499e+06
3.4287e+06
3.43285e+06
3.4308e+06
3.43113e+06
3.42986e+06
3.42725e+06
3.43118e+06
3.45243e+06
3.44784e+06
3.45731e+06
3.45513e+06
3.46058e+06
3.46225e+06
3.46528e+06
3.46713e+06
3.46912e+06
3.47073e+06
3.47225e+06
3.47359e+06
3.47483e+06
3.47595e+06
3.47698e+06
3.47792e+06
3.47879e+06
3.47959e+06
3.48032e+06
3.481e+06
3.48163e+06
3.48221e+06
3.48275e+06
3.48325e+06
3.48372e+06
3.48416e+06
3.48456e+06
3.48494e+06
3.48529e+06
3.48562e+06
3.48592e+06
3.43838e+06
3.42892e+06
3.43702e+06
3.43128e+06
3.4348e+06
3.43304e+06
3.43313e+06
3.43186e+06
3.42836e+06
3.43231e+06
3.45547e+06
3.45079e+06
3.46064e+06
3.45779e+06
3.46298e+06
3.46412e+06
3.4669e+06
3.46845e+06
3.47024e+06
3.47167e+06
3.47304e+06
3.47426e+06
3.4754e+06
3.47643e+06
3.47738e+06
3.47826e+06
3.47907e+06
3.47981e+06
3.4805e+06
3.48114e+06
3.48174e+06
3.48229e+06
3.48281e+06
3.48329e+06
3.48374e+06
3.48416e+06
3.48455e+06
3.48491e+06
3.48525e+06
3.48557e+06
3.48586e+06
3.43996e+06
3.43195e+06
3.43895e+06
3.43385e+06
3.43671e+06
3.43518e+06
3.43501e+06
3.43372e+06
3.42924e+06
3.43328e+06
3.4582e+06
3.4536e+06
3.46368e+06
3.46029e+06
3.46523e+06
3.46591e+06
3.46845e+06
3.46973e+06
3.47134e+06
3.47259e+06
3.47384e+06
3.47494e+06
3.47597e+06
3.47691e+06
3.47779e+06
3.4786e+06
3.47935e+06
3.48005e+06
3.4807e+06
3.4813e+06
3.48186e+06
3.48238e+06
3.48287e+06
3.48333e+06
3.48376e+06
3.48416e+06
3.48454e+06
3.48489e+06
3.48522e+06
3.48553e+06
3.48581e+06
3.44146e+06
3.43494e+06
3.44068e+06
3.43622e+06
3.43848e+06
3.43714e+06
3.43675e+06
3.43541e+06
3.42989e+06
3.43402e+06
3.46052e+06
3.45622e+06
3.4664e+06
3.46263e+06
3.46731e+06
3.46761e+06
3.46993e+06
3.47097e+06
3.47242e+06
3.47351e+06
3.47462e+06
3.47561e+06
3.47655e+06
3.47741e+06
3.47821e+06
3.47896e+06
3.47965e+06
3.4803e+06
3.4809e+06
3.48146e+06
3.48199e+06
3.48248e+06
3.48295e+06
3.48338e+06
3.48379e+06
3.48417e+06
3.48454e+06
3.48487e+06
3.48519e+06
3.48549e+06
3.48577e+06
3.44264e+06
3.43763e+06
3.44203e+06
3.43827e+06
3.44003e+06
3.43887e+06
3.43835e+06
3.43691e+06
3.4303e+06
3.43443e+06
3.46238e+06
3.45864e+06
3.46878e+06
3.4648e+06
3.46923e+06
3.4692e+06
3.47133e+06
3.47216e+06
3.47346e+06
3.4744e+06
3.4754e+06
3.47628e+06
3.47712e+06
3.4779e+06
3.47864e+06
3.47932e+06
3.47996e+06
3.48055e+06
3.48111e+06
3.48164e+06
3.48213e+06
3.48259e+06
3.48303e+06
3.48344e+06
3.48383e+06
3.48419e+06
3.48454e+06
3.48486e+06
3.48517e+06
3.48546e+06
3.48573e+06
3.44337e+06
3.43989e+06
3.44303e+06
3.43996e+06
3.4413e+06
3.44033e+06
3.43978e+06
3.43816e+06
3.43041e+06
3.43447e+06
3.46382e+06
3.46086e+06
3.47085e+06
3.46681e+06
3.47098e+06
3.47071e+06
3.47266e+06
3.47331e+06
3.47447e+06
3.47528e+06
3.47617e+06
3.47695e+06
3.47771e+06
3.47841e+06
3.47907e+06
3.47969e+06
3.48027e+06
3.48082e+06
3.48133e+06
3.48182e+06
3.48227e+06
3.4827e+06
3.48311e+06
3.4835e+06
3.48387e+06
3.48421e+06
3.48454e+06
3.48485e+06
3.48515e+06
3.48543e+06
3.48569e+06
3.44338e+06
3.44154e+06
3.44361e+06
3.44133e+06
3.4423e+06
3.44151e+06
3.441e+06
3.43914e+06
3.43022e+06
3.43416e+06
3.46491e+06
3.46292e+06
3.47264e+06
3.46867e+06
3.47259e+06
3.47214e+06
3.47392e+06
3.47442e+06
3.47545e+06
3.47615e+06
3.47693e+06
3.47762e+06
3.47829e+06
3.47891e+06
3.47951e+06
3.48006e+06
3.48059e+06
3.48109e+06
3.48156e+06
3.482e+06
3.48242e+06
3.48282e+06
3.4832e+06
3.48357e+06
3.48391e+06
3.48424e+06
3.48455e+06
3.48485e+06
3.48513e+06
3.4854e+06
3.48565e+06
3.44349e+06
3.44321e+06
3.44389e+06
3.44249e+06
3.44309e+06
3.4425e+06
3.44201e+06
3.43981e+06
3.42975e+06
3.43356e+06
3.46568e+06
3.46479e+06
3.47416e+06
3.4704e+06
3.47405e+06
3.47349e+06
3.47513e+06
3.47549e+06
3.47642e+06
3.477e+06
3.4777e+06
3.47829e+06
3.47888e+06
3.47943e+06
3.47995e+06
3.48045e+06
3.48092e+06
3.48137e+06
3.48179e+06
3.48219e+06
3.48258e+06
3.48295e+06
3.4833e+06
3.48364e+06
3.48396e+06
3.48427e+06
3.48457e+06
3.48485e+06
3.48512e+06
3.48538e+06
3.48562e+06
3.44357e+06
3.44489e+06
3.44399e+06
3.44367e+06
3.44382e+06
3.44346e+06
3.44291e+06
3.44049e+06
3.42923e+06
3.4328e+06
3.46626e+06
3.4665e+06
3.47548e+06
3.47201e+06
3.47541e+06
3.47479e+06
3.47629e+06
3.47655e+06
3.47737e+06
3.47786e+06
3.47846e+06
3.47897e+06
3.47948e+06
3.47995e+06
3.48041e+06
3.48084e+06
3.48126e+06
3.48165e+06
3.48203e+06
3.48239e+06
3.48274e+06
3.48308e+06
3.4834e+06
3.48371e+06
3.48401e+06
3.48431e+06
3.48459e+06
3.48485e+06
3.48511e+06
3.48536e+06
3.48559e+06
3.44376e+06
3.44691e+06
3.44428e+06
3.44525e+06
3.4447e+06
3.44457e+06
3.44408e+06
3.44149e+06
3.42886e+06
3.43198e+06
3.46667e+06
3.46801e+06
3.47661e+06
3.47351e+06
3.47668e+06
3.47605e+06
3.47742e+06
3.47761e+06
3.47833e+06
3.47873e+06
3.47924e+06
3.47966e+06
3.48009e+06
3.48049e+06
3.48088e+06
3.48124e+06
3.4816e+06
3.48194e+06
3.48227e+06
3.4826e+06
3.48291e+06
3.48321e+06
3.48351e+06
3.48379e+06
3.48407e+06
3.48434e+06
3.48461e+06
3.48486e+06
3.48511e+06
3.48534e+06
3.48557e+06
3.44387e+06
3.44927e+06
3.44472e+06
3.44735e+06
3.44587e+06
3.44587e+06
3.44576e+06
3.44254e+06
3.42853e+06
3.43102e+06
3.4668e+06
3.4693e+06
3.47756e+06
3.47492e+06
3.47788e+06
3.47729e+06
3.47855e+06
3.47867e+06
3.4793e+06
3.47961e+06
3.48003e+06
3.48037e+06
3.48072e+06
3.48104e+06
3.48135e+06
3.48166e+06
3.48195e+06
3.48224e+06
3.48253e+06
3.4828e+06
3.48308e+06
3.48335e+06
3.48361e+06
3.48387e+06
3.48413e+06
3.48438e+06
3.48463e+06
3.48487e+06
3.4851e+06
3.48533e+06
3.48554e+06
3.44464e+06
3.45244e+06
3.44544e+06
3.44997e+06
3.44748e+06
3.44739e+06
3.44802e+06
3.4439e+06
3.42872e+06
3.43004e+06
3.46669e+06
3.47036e+06
3.47836e+06
3.47626e+06
3.47906e+06
3.47854e+06
3.47969e+06
3.47977e+06
3.4803e+06
3.48052e+06
3.48085e+06
3.4811e+06
3.48136e+06
3.4816e+06
3.48184e+06
3.48208e+06
3.48231e+06
3.48255e+06
3.48278e+06
3.48302e+06
3.48325e+06
3.48349e+06
3.48372e+06
3.48396e+06
3.48419e+06
3.48442e+06
3.48465e+06
3.48488e+06
3.4851e+06
3.48531e+06
3.48552e+06
3.44605e+06
3.45591e+06
3.44659e+06
3.4529e+06
3.44977e+06
3.44905e+06
3.45099e+06
3.44555e+06
3.42953e+06
3.42898e+06
3.46639e+06
3.47123e+06
3.47907e+06
3.4776e+06
3.48026e+06
3.47986e+06
3.4809e+06
3.48093e+06
3.48135e+06
3.48149e+06
3.48171e+06
3.48186e+06
3.48203e+06
3.48219e+06
3.48235e+06
3.48251e+06
3.48268e+06
3.48286e+06
3.48304e+06
3.48323e+06
3.48343e+06
3.48363e+06
3.48383e+06
3.48404e+06
3.48426e+06
3.48447e+06
3.48468e+06
3.48489e+06
3.4851e+06
3.4853e+06
3.4855e+06
3.44889e+06
3.45967e+06
3.44905e+06
3.45602e+06
3.45294e+06
3.45062e+06
3.45454e+06
3.44668e+06
3.43081e+06
3.42812e+06
3.4659e+06
3.47196e+06
3.47978e+06
3.47901e+06
3.48157e+06
3.48129e+06
3.48221e+06
3.48218e+06
3.48248e+06
3.48251e+06
3.48262e+06
3.48266e+06
3.48273e+06
3.48279e+06
3.48287e+06
3.48296e+06
3.48306e+06
3.48318e+06
3.48331e+06
3.48345e+06
3.48361e+06
3.48377e+06
3.48395e+06
3.48413e+06
3.48432e+06
3.48451e+06
3.48471e+06
3.48491e+06
3.4851e+06
3.4853e+06
3.48549e+06
3.4529e+06
3.46244e+06
3.45308e+06
3.45923e+06
3.4573e+06
3.45229e+06
3.45857e+06
3.44692e+06
3.43258e+06
3.42802e+06
3.46551e+06
3.4728e+06
3.4807e+06
3.48066e+06
3.48309e+06
3.48292e+06
3.48368e+06
3.48356e+06
3.48371e+06
3.48361e+06
3.48359e+06
3.48351e+06
3.48346e+06
3.48342e+06
3.4834e+06
3.48341e+06
3.48344e+06
3.4835e+06
3.48357e+06
3.48367e+06
3.48378e+06
3.48392e+06
3.48406e+06
3.48422e+06
3.48438e+06
3.48456e+06
3.48474e+06
3.48492e+06
3.48511e+06
3.48529e+06
3.48547e+06
3.43511e+06
3.42865e+06
3.4656e+06
3.47413e+06
3.48212e+06
3.48275e+06
3.48497e+06
3.48485e+06
3.48538e+06
3.48512e+06
3.48508e+06
3.48481e+06
3.48462e+06
3.4844e+06
3.48422e+06
3.48407e+06
3.48396e+06
3.48388e+06
3.48383e+06
3.48382e+06
3.48384e+06
3.48389e+06
3.48396e+06
3.48406e+06
3.48417e+06
3.4843e+06
3.48445e+06
3.4846e+06
3.48477e+06
3.48494e+06
3.48511e+06
3.48528e+06
3.48546e+06
3.47103e+06
3.47295e+06
3.47469e+06
3.47627e+06
3.47771e+06
3.47901e+06
3.48019e+06
3.48126e+06
3.48224e+06
3.48312e+06
3.48393e+06
3.48467e+06
3.48534e+06
3.48596e+06
3.48652e+06
3.48704e+06
3.48752e+06
3.48795e+06
3.48835e+06
3.48872e+06
3.46564e+06
3.46794e+06
3.47005e+06
3.47204e+06
3.47385e+06
3.47551e+06
3.47702e+06
3.47838e+06
3.47962e+06
3.48074e+06
3.48176e+06
3.48269e+06
3.48353e+06
3.4843e+06
3.485e+06
3.48564e+06
3.48623e+06
3.48676e+06
3.48725e+06
3.4877e+06
3.48812e+06
3.48849e+06
3.45415e+06
3.47489e+06
3.44901e+06
3.44682e+06
3.44416e+06
3.43687e+06
3.44146e+06
3.45311e+06
3.4761e+06
3.48579e+06
3.47891e+06
3.45921e+06
3.45771e+06
3.45944e+06
3.462e+06
3.46438e+06
3.4668e+06
3.46903e+06
3.47113e+06
3.47303e+06
3.47477e+06
3.47635e+06
3.47778e+06
3.47908e+06
3.48025e+06
3.48131e+06
3.48228e+06
3.48315e+06
3.48395e+06
3.48468e+06
3.48534e+06
3.48594e+06
3.4865e+06
3.487e+06
3.48746e+06
3.48789e+06
3.48827e+06
3.4703e+06
3.48318e+06
3.46501e+06
3.46252e+06
3.4632e+06
3.46082e+06
3.46407e+06
3.46682e+06
3.47835e+06
3.486e+06
3.48538e+06
3.49052e+06
3.47544e+06
3.45591e+06
3.45485e+06
3.45737e+06
3.46028e+06
3.46297e+06
3.4656e+06
3.468e+06
3.47022e+06
3.47224e+06
3.47407e+06
3.47572e+06
3.47721e+06
3.47856e+06
3.47978e+06
3.48089e+06
3.48189e+06
3.48279e+06
3.48362e+06
3.48437e+06
3.48505e+06
3.48567e+06
3.48624e+06
3.48676e+06
3.48723e+06
3.48767e+06
3.48806e+06
3.47508e+06
3.48652e+06
3.47212e+06
3.47448e+06
3.47288e+06
3.47727e+06
3.4752e+06
3.47304e+06
3.47555e+06
3.48229e+06
3.47968e+06
3.48566e+06
3.4692e+06
3.45198e+06
3.4515e+06
3.45505e+06
3.4584e+06
3.46151e+06
3.46437e+06
3.46698e+06
3.46934e+06
3.47147e+06
3.4734e+06
3.47512e+06
3.47668e+06
3.47808e+06
3.47935e+06
3.48049e+06
3.48152e+06
3.48245e+06
3.4833e+06
3.48407e+06
3.48477e+06
3.48541e+06
3.48599e+06
3.48652e+06
3.48701e+06
3.48745e+06
3.48786e+06
3.48823e+06
3.47513e+06
3.48526e+06
3.47277e+06
3.4782e+06
3.47315e+06
3.48282e+06
3.47554e+06
3.47103e+06
3.46959e+06
3.47638e+06
3.47288e+06
3.47902e+06
3.46232e+06
3.44806e+06
3.4482e+06
3.45274e+06
3.45653e+06
3.46005e+06
3.46318e+06
3.46599e+06
3.4685e+06
3.47075e+06
3.47277e+06
3.47457e+06
3.47619e+06
3.47764e+06
3.47894e+06
3.48012e+06
3.48118e+06
3.48214e+06
3.48301e+06
3.4838e+06
3.48451e+06
3.48517e+06
3.48576e+06
3.4863e+06
3.4868e+06
3.48725e+06
3.48766e+06
3.48804e+06
3.4716e+06
3.478e+06
3.47035e+06
3.47416e+06
3.46978e+06
3.47753e+06
3.47176e+06
3.4644e+06
3.46281e+06
3.47012e+06
3.46618e+06
3.47212e+06
3.45584e+06
3.44436e+06
3.44522e+06
3.45056e+06
3.45477e+06
3.45868e+06
3.46205e+06
3.46506e+06
3.46773e+06
3.47009e+06
3.47219e+06
3.47406e+06
3.47573e+06
3.47723e+06
3.47857e+06
3.47978e+06
3.48086e+06
3.48184e+06
3.48273e+06
3.48354e+06
3.48427e+06
3.48493e+06
3.48554e+06
3.48609e+06
3.48659e+06
3.48705e+06
3.48747e+06
3.48785e+06
3.4882e+06
3.46883e+06
3.46652e+06
3.46818e+06
3.46503e+06
3.46722e+06
3.46636e+06
3.46654e+06
3.45691e+06
3.45629e+06
3.46429e+06
3.46004e+06
3.46564e+06
3.45003e+06
3.44097e+06
3.44264e+06
3.44861e+06
3.4532e+06
3.45744e+06
3.46104e+06
3.46423e+06
3.46703e+06
3.4695e+06
3.47168e+06
3.47361e+06
3.47533e+06
3.47686e+06
3.47824e+06
3.47947e+06
3.48058e+06
3.48158e+06
3.48248e+06
3.4833e+06
3.48404e+06
3.48472e+06
3.48533e+06
3.48589e+06
3.4864e+06
3.48686e+06
3.48729e+06
3.48767e+06
3.48802e+06
3.46896e+06
3.45694e+06
3.46742e+06
3.45668e+06
3.46643e+06
3.45779e+06
3.46083e+06
3.45062e+06
3.45014e+06
3.45902e+06
3.45439e+06
3.45968e+06
3.44485e+06
3.43795e+06
3.44047e+06
3.44694e+06
3.45186e+06
3.45637e+06
3.46017e+06
3.46352e+06
3.46643e+06
3.46898e+06
3.47123e+06
3.47321e+06
3.47497e+06
3.47654e+06
3.47794e+06
3.47919e+06
3.48032e+06
3.48133e+06
3.48225e+06
3.48308e+06
3.48383e+06
3.48451e+06
3.48513e+06
3.4857e+06
3.48622e+06
3.48669e+06
3.48711e+06
3.4875e+06
3.48786e+06
3.46747e+06
3.45085e+06
3.46539e+06
3.4518e+06
3.46497e+06
3.45383e+06
3.45484e+06
3.44537e+06
3.44425e+06
3.45431e+06
3.4491e+06
3.45438e+06
3.44023e+06
3.43541e+06
3.43868e+06
3.44556e+06
3.45077e+06
3.4555e+06
3.45946e+06
3.46292e+06
3.46593e+06
3.46855e+06
3.47085e+06
3.47288e+06
3.47467e+06
3.47626e+06
3.47768e+06
3.47895e+06
3.48009e+06
3.48112e+06
3.48204e+06
3.48288e+06
3.48364e+06
3.48433e+06
3.48495e+06
3.48552e+06
3.48604e+06
3.48652e+06
3.48695e+06
3.48734e+06
3.4877e+06
3.46081e+06
3.44752e+06
3.45914e+06
3.44895e+06
3.4594e+06
3.45103e+06
3.44803e+06
3.44048e+06
3.43862e+06
3.45002e+06
3.44426e+06
3.44963e+06
3.43616e+06
3.43334e+06
3.43727e+06
3.44451e+06
3.44993e+06
3.45484e+06
3.45891e+06
3.46247e+06
3.46554e+06
3.46822e+06
3.47056e+06
3.47261e+06
3.47443e+06
3.47604e+06
3.47747e+06
3.47875e+06
3.47989e+06
3.48092e+06
3.48186e+06
3.4827e+06
3.48346e+06
3.48415e+06
3.48478e+06
3.48536e+06
3.48588e+06
3.48636e+06
3.48679e+06
3.48718e+06
3.48754e+06
3.45014e+06
3.44697e+06
3.44889e+06
3.44687e+06
3.44939e+06
3.44731e+06
3.44089e+06
3.43606e+06
3.4337e+06
3.44615e+06
3.43999e+06
3.44542e+06
3.43272e+06
3.43175e+06
3.43625e+06
3.44378e+06
3.44936e+06
3.45439e+06
3.45854e+06
3.46216e+06
3.46527e+06
3.46798e+06
3.47034e+06
3.47242e+06
3.47424e+06
3.47586e+06
3.47729e+06
3.47858e+06
3.47973e+06
3.48076e+06
3.48169e+06
3.48254e+06
3.4833e+06
3.484e+06
3.48463e+06
3.4852e+06
3.48573e+06
3.4862e+06
3.48664e+06
3.48703e+06
3.4874e+06
3.43837e+06
3.4478e+06
3.43818e+06
3.44604e+06
3.43918e+06
3.44337e+06
3.43479e+06
3.43235e+06
3.42966e+06
3.4426e+06
3.43641e+06
3.4417e+06
3.42996e+06
3.43065e+06
3.43563e+06
3.44337e+06
3.44905e+06
3.45416e+06
3.45835e+06
3.462e+06
3.46512e+06
3.46784e+06
3.47021e+06
3.47228e+06
3.47411e+06
3.47573e+06
3.47716e+06
3.47844e+06
3.47959e+06
3.48062e+06
3.48155e+06
3.4824e+06
3.48316e+06
3.48385e+06
3.48448e+06
3.48506e+06
3.48558e+06
3.48606e+06
3.4865e+06
3.48689e+06
3.48725e+06
3.42992e+06
3.4495e+06
3.43092e+06
3.4467e+06
3.43307e+06
3.44018e+06
3.43041e+06
3.42909e+06
3.42628e+06
3.43925e+06
3.43349e+06
3.43838e+06
3.42789e+06
3.42999e+06
3.43541e+06
3.44328e+06
3.449e+06
3.45414e+06
3.45833e+06
3.46198e+06
3.46509e+06
3.4678e+06
3.47016e+06
3.47222e+06
3.47404e+06
3.47564e+06
3.47707e+06
3.47834e+06
3.47948e+06
3.48051e+06
3.48144e+06
3.48227e+06
3.48303e+06
3.48373e+06
3.48435e+06
3.48493e+06
3.48545e+06
3.48593e+06
3.48636e+06
3.48676e+06
3.48712e+06
3.42691e+06
3.45049e+06
3.42839e+06
3.44715e+06
3.43135e+06
3.43745e+06
3.4273e+06
3.42592e+06
3.42339e+06
3.43607e+06
3.43126e+06
3.43546e+06
3.42657e+06
3.42979e+06
3.43561e+06
3.4435e+06
3.44922e+06
3.45433e+06
3.45848e+06
3.46209e+06
3.46518e+06
3.46785e+06
3.47018e+06
3.47222e+06
3.47402e+06
3.47561e+06
3.47702e+06
3.47828e+06
3.47941e+06
3.48042e+06
3.48134e+06
3.48217e+06
3.48293e+06
3.48361e+06
3.48424e+06
3.48481e+06
3.48533e+06
3.4858e+06
3.48624e+06
3.48663e+06
3.48699e+06
3.42759e+06
3.44835e+06
3.42891e+06
3.44544e+06
3.43142e+06
3.43438e+06
3.42476e+06
3.42279e+06
3.42095e+06
3.43296e+06
3.42993e+06
3.43304e+06
3.42616e+06
3.43008e+06
3.43625e+06
3.44402e+06
3.44969e+06
3.45472e+06
3.4588e+06
3.46235e+06
3.46537e+06
3.468e+06
3.47028e+06
3.47229e+06
3.47405e+06
3.47561e+06
3.477e+06
3.47824e+06
3.47936e+06
3.48036e+06
3.48127e+06
3.48209e+06
3.48284e+06
3.48351e+06
3.48413e+06
3.4847e+06
3.48522e+06
3.48569e+06
3.48612e+06
3.48651e+06
3.48687e+06
3.42786e+06
3.44212e+06
3.42982e+06
3.44121e+06
3.43114e+06
3.43082e+06
3.42252e+06
3.42002e+06
3.41901e+06
3.43044e+06
3.42929e+06
3.43132e+06
3.4266e+06
3.43086e+06
3.43731e+06
3.44484e+06
3.45041e+06
3.4553e+06
3.45928e+06
3.46273e+06
3.46567e+06
3.46823e+06
3.47046e+06
3.47241e+06
3.47414e+06
3.47567e+06
3.47703e+06
3.47824e+06
3.47934e+06
3.48032e+06
3.48122e+06
3.48202e+06
3.48276e+06
3.48343e+06
3.48404e+06
3.4846e+06
3.48511e+06
3.48558e+06
3.48601e+06
3.4864e+06
3.48675e+06
3.42946e+06
3.43523e+06
3.4303e+06
3.43567e+06
3.43003e+06
3.42724e+06
3.4207e+06
3.41795e+06
3.41768e+06
3.42848e+06
3.42936e+06
3.43039e+06
3.42782e+06
3.43212e+06
3.43877e+06
3.44592e+06
3.45135e+06
3.45605e+06
3.4599e+06
3.46322e+06
3.46606e+06
3.46854e+06
3.4707e+06
3.4726e+06
3.47427e+06
3.47576e+06
3.47709e+06
3.47827e+06
3.47934e+06
3.48031e+06
3.48118e+06
3.48198e+06
3.4827e+06
3.48336e+06
3.48396e+06
3.48451e+06
3.48502e+06
3.48548e+06
3.4859e+06
3.48629e+06
3.48664e+06
3.4302e+06
3.42834e+06
3.42988e+06
3.43018e+06
3.4285e+06
3.42426e+06
3.41956e+06
3.41682e+06
3.41716e+06
3.42705e+06
3.43014e+06
3.43027e+06
3.42976e+06
3.43382e+06
3.44057e+06
3.44726e+06
3.4525e+06
3.45696e+06
3.46064e+06
3.46382e+06
3.46655e+06
3.46892e+06
3.471e+06
3.47283e+06
3.47445e+06
3.47589e+06
3.47718e+06
3.47833e+06
3.47937e+06
3.48031e+06
3.48117e+06
3.48195e+06
3.48266e+06
3.4833e+06
3.4839e+06
3.48444e+06
3.48494e+06
3.48539e+06
3.48581e+06
3.48619e+06
3.48654e+06
3.43053e+06
3.42299e+06
3.42932e+06
3.42578e+06
3.42709e+06
3.42226e+06
3.41924e+06
3.41668e+06
3.41737e+06
3.42619e+06
3.43155e+06
3.43092e+06
3.43229e+06
3.43591e+06
3.44267e+06
3.44881e+06
3.45382e+06
3.458e+06
3.4615e+06
3.46451e+06
3.4671e+06
3.46937e+06
3.47135e+06
3.47311e+06
3.47467e+06
3.47605e+06
3.4773e+06
3.47842e+06
3.47943e+06
3.48034e+06
3.48117e+06
3.48193e+06
3.48262e+06
3.48326e+06
3.48384e+06
3.48437e+06
3.48486e+06
3.48531e+06
3.48572e+06
3.4861e+06
3.48644e+06
3.43029e+06
3.41927e+06
3.42886e+06
3.42294e+06
3.42625e+06
3.42142e+06
3.41973e+06
3.41746e+06
3.41821e+06
3.42588e+06
3.43359e+06
3.43221e+06
3.43531e+06
3.4383e+06
3.445e+06