/*--------------------------------*- C++ -*----------------------------------*\
| =========                 |                                                 |
| \\      /  F ield         | OpenFOAM: The Open Source CFD Toolbox           |
|  \\    /   O peration     | Version:  v2006                                 |
|   \\  /    A nd           | Website:  www.openfoam.com                      |
|    \\/     M anipulation  |                                                 |
\*---------------------------------------------------------------------------*/
FoamFile
{
    version     2.0;
    format      ascii;
    class       volScalarField;
    location    "0.03";
    object      p_rgh;
}
// * * * * * * * * * * * * * * * * * * * * * * * * * * * * * * * * * * * * * //

dimensions      [1 -1 -2 0 0 0 0];


internalField   nonuniform List<scalar> 
3596
(
99582.2
99581.6
99581.4
99485.1
99475.3
99474.3
99604.4
98646.7
99571
97524.6
102258
99478.6
101163
89999.2
98241.3
99587.9
114096
99608.9
99669.4
98587.3
99468.8
99664.6
99370.9
99516.5
99547.1
100201
99453.2
99897.1
102190
100484
99571.4
99469.6
100338
99563
99435.4
99474.2
99442
99435.3
99578.4
99584.5
99597.4
99570.4
99202.9
99575
99107.2
99563.1
99096.1
99114.2
99195.3
99487.7
99490.7
99574.1
99483.3
99496.9
97254.3
99432.2
96894.7
99405.3
98487.9
99202.2
99580.4
99597.7
100568
99753.6
99169
99541.9
99279.1
99499.1
99203.7
97689.6
99397.1
99156.8
98825.6
86075.3
113335
95298.5
95298.9
101271
99214.8
111074
99377.2
96297.3
99236.5
97304.5
98982.5
99759.2
98303
100256
99162
99574
101153
99373.6
99206
97746.6
99581.9
99579.9
99334.3
99559.6
99525.9
99583.7
99590.4
98856.7
99485.3
99728.5
99491.5
99567.7
99517.5
99571.3
96337.7
99516.8
99513
99525.6
99517.6
99583.9
99586.6
99586.6
99566.4
99571.8
99538
99033
99003.6
101019
99473.4
99544.6
99262.2
99551.2
98967.2
98238.4
99440.7
98153.6
98137.3
99014
98782
96930.9
101561
102541
101167
100918
99584
99560.2
99502
99246.1
96208.5
101288
99688.1
101452
119648
100045
100944
99565
99768.2
99621.5
99729.8
99581.2
99563.3
102535
99689.8
101409
99591.8
99502.5
99577.6
99582.9
99585.3
99609.3
99517.3
99567.7
99566
99566.8
99573.7
99536.2
99573.5
99560.7
99474.6
99390.7
96272.6
99421.6
97460.5
97144.4
99618.5
99293.3
99538.5
99460.5
99549.7
96597.4
99520.2
96993.6
99581.4
98898.9
99566.6
99601.7
94814
95139.4
102433
96650.3
96202.6
100281
106057
99617
99425.5
117986
99496.7
99523.4
99375
102121
93341.5
99715.4
95204.7
99538.4
100410
100257
99611.1
98194.3
101317
99176.8
99589.7
99552.8
99572.1
99507.5
99571.2
99588.4
99587.3
99591
99591.2
99558.2
99575
99569.7
99451.4
99108.7
99562.9
99570
100205
99576
99381.2
99558
99563.8
99561.3
99563.7
99566.4
99571.3
99528.3
99525.6
99530.5
99467.9
99519.1
99527.5
99569.7
97007
97290.2
99233.5
100103
97203.6
99562
99666.1
99630.8
99237.5
99266.7
99581.8
99328.3
99528.3
99196.6
99242.4
99579.6
99699.8
99518.1
99508.8
99463.8
99579.2
96075.4
102807
99071.3
100002
100039
99680.1
96462.5
99496.2
101780
99568.4
99507.4
99589.2
99591.6
99557.9
99569.3
99607.7
99460.9
99567
99505.8
99516.8
98349
99106.6
98955.7
99579.8
99588.5
96846.9
96939.6
98425.1
99532.6
96765
96961.9
100352
99458.6
99553
100021
99568
102677
100507
99087.2
99483.8
99583
99693.1
99541.9
99658.7
98347.9
99654.5
99690.7
99407.9
99571.4
99413.5
100468
99425
99433.3
98276.7
98394.9
97024.9
99571.9
99522.2
99580.8
99578.1
99636.9
99709.3
99587.3
99577.6
99545.2
99453.2
99330
99516.1
99510.7
99573.2
99511.1
99606.8
99509.3
99498.8
99487.4
95220.2
98886.1
99039.3
99413.5
99926.4
99548.4
99241.4
100495
99508.7
99573
97909.1
98980.1
99052.3
98730.3
99517
99485.7
99514.3
99585.3
99579.1
99594.9
99405.7
99849.9
98324.6
99690.4
99645.7
99601.9
99474.1
99501
99521.5
99485.7
99423.9
96821.7
99638.1
96840.5
96792.8
96938.6
96902.1
99589.9
99603.4
99723.4
99625.4
99596
99600.2
99610.6
99274.8
99612.8
99574.6
99575.7
99486.8
99482.6
98354.6
97851.6
99577.7
98427.7
98447.5
99576.7
96937.8
99559.8
99489.9
99024.4
98064.8
102784
104433
100948
100560
99578.4
99507.9
99586.2
99253.2
99509.3
99580.8
99583.6
99573.9
99223.7
99181.3
99216.8
99362.4
99327.8
99640
99610.9
99589.6
99633.5
96229.3
96271.7
99605.5
99580.7
99522.3
99590.9
99580.6
99582
99463.8
99726.1
99497.9
99600.9
99707.9
99708.5
99617.9
99736.3
99721.3
98796.9
99718.5
99456.7
99292.2
99526.8
99566.8
99559.6
99573.5
99492.2
99551.4
94649.1
99286.9
99101.5
97585
99745.9
98510.1
94702
99506.8
99547.7
99518.1
96439.3
97814.4
96288.4
98298.8
99584.8
99604.4
99612.9
99582.6
99543.7
99570.8
99483.1
99471.5
99557.1
99596.9
99545.9
99541.1
99562.8
99658.7
99568.8
99599.8
99652
99657.2
101657
99376.7
99649.5
99495.2
119447
98799.3
99457.5
99462
99485.1
99599.5
102127
99494.7
99555.9
99581.4
99475.6
99466.7
99466
99865.7
99619.2
99548.8
99654.2
99628.1
99588
99571.7
99551.1
99577.2
99576.1
99560.5
99430.1
99529.3
99513.3
99506.2
96268
98939.3
97299.6
97373.4
96941.9
99418.8
97286.6
99417.5
99431.1
98185.1
98301.5
99485.8
99372.3
101565
99494.2
99712.1
101041
99475
99484.2
112369
86964
99571.5
99695.7
99523.1
101058
96729.3
97328.8
98117.4
99037.1
99574.1
99531.5
99616.9
93954.2
98830.3
99033.2
99075.1
99757.6
99406.6
99656.5
99578
99606.7
99592.3
99606.6
99584.6
99583.3
99394.9
99364
99374.6
99361.3
99512.2
99574.8
99779.9
99459.1
99598.5
99556
99549
99482.2
100494
99569.3
99427
99536.8
99508.2
99499.2
99579.7
99501.7
99562.1
99588.2
99563.5
99574
99504.9
99506.1
99572.8
99505
99500.9
99497
99536.6
99202.3
99593.4
99509.7
99505.3
99656.4
99579.4
99480.9
97015.5
99393.4
99397.5
119616
99652.2
96834.6
105692
99705.1
99679.2
99520.8
100193
99597.6
99600.2
99595.1
99542.1
99523.6
99520.3
99491.2
99502.2
99510.3
99537.1
99534.8
99537.1
99533.8
100267
99538.8
99528.7
99598.4
99574.6
99131.5
99337.8
99128.1
99303
99538.1
99534.3
99528.6
99530.6
99529
99526.2
99352.7
98121
98638.4
98450.4
99564.3
98573.8
97901
98001.5
99510.7
97221.4
99543.4
99547.6
99545.2
96858.6
96223.8
99491
99579.2
94733.6
98766.9
99273.5
98891.8
99700.7
99581.2
99645.7
97622.1
96158.6
98856
99222
94714.8
99587.1
99541.9
99552.9
99570
99569.4
99708.4
99533.1
99557.9
99575.5
96256
99474.7
99476.2
96394.2
96273
96311.9
99457.1
99455.8
99667.4
99658.5
99669.6
99457.6
99661
98453.3
98468.7
99547.3
92707.2
99573.3
99517.6
99673.2
99618.8
99586.3
99633
99583.9
99588.7
99551.7
117843
99578.3
99583.2
99537.6
99491.6
99534.3
99623.5
99535.5
99571.3
96788.3
98633.3
98468.4
98156.1
99620.2
98157.3
98169.5
99579.6
99579.5
99608.1
99565.3
99599.3
99691.7
99454.9
99643.4
99643.7
99559.7
99624.5
99655.4
99698
100163
99470.8
99609.4
99553.9
99762.6
99686.5
99612.8
96134.1
99522.5
99564.8
99587.6
99553.5
99320.9
98800.4
99347.3
99657.6
99484.5
99640.9
99318.8
99647.8
99642.5
99649.8
99648.9
99594.9
99616.4
99651.3
99704.6
99536.8
99551.3
99607
99648.2
99547.2
99551.3
99540
100697
99541.7
99549.4
99510.5
99450.3
99526.1
99272.2
99535.9
99578.9
99526.9
99716.3
96192.4
98261.2
99691.7
99714.9
97924.2
96300.9
99455.9
99464.1
97775.2
99457.7
99570.5
99570.6
97960.8
98106.2
99512.8
99561.4
99580.3
97938.5
99637.2
86353.2
99485.4
99504
99573.8
99571.9
99564.3
99479.9
99568.6
99535.5
99487.6
99569.1
99542.3
96257.8
99573.3
96693.1
99535.7
98014.1
95205.3
99604.7
98742.3
99630.4
99329
99591.5
99504.3
99399
99318.6
97975.4
99520.5
97224.8
97195.7
99491
99479.5
99480.6
99574.3
99544.7
99555.9
99569.5
99561.6
99557
98490
98533.3
99576.3
99576.1
99489.9
99481.8
99362.8
99526.4
99444.2
99496.4
99632.8
99701.9
119480
99485.8
99483.5
99759.4
99599.5
99596.7
99616
99592.4
99606.8
99588.3
99588.1
99587.9
99611.2
99490.3
99485.8
99455.1
99335
99560.8
98923
99850.1
99242
99693.3
99659.1
99589.2
99576.9
99589
99581.2
99573.1
99455.5
99425.4
99430.4
99446.1
99439.8
99715.8
99526.4
99437
99061.2
99489.7
92304.5
99575.1
99242.5
99825.7
99379.2
99743.5
96194.5
99434.4
92473.5
99438.9
99590.1
99563.1
99553.1
99562.1
99547.4
99523.9
99526.2
99516.9
99533.3
99523.7
97417.8
97515.5
97453.4
97484.2
99584.1
99583.9
99580.3
99584
99587.7
97481.5
99581.9
99586
99502.3
98159.2
97696.3
99495.8
99435.9
99472.1
99246.1
100025
118282
101395
98655.6
102572
99839.5
98781.5
114444
99751.1
99674.1
99544.5
100072
99525.9
87470.1
99287.3
101088
102629
101683
96463.8
96281
99600.1
99617.6
99582.6
99569.2
99596.9
99563.8
99580.3
99543.5
99552.2
99597.5
99566.5
99617
98297.7
99091.4
98921.4
98531.8
99353.3
97290
101988
100840
99493.6
99450.4
96670.4
99496.6
99587.9
99598.7
96157.4
99573.8
99566.1
99569.7
99570
99575.9
99573.9
99571
99504.9
99469.3
99500.5
99508.5
99499.5
99495.1
98906.1
98401.4
98954
98829.7
99578.2
96122.7
100443
99509.2
99583.5
99576.6
99579.8
99577.5
99582.8
99578.2
99597.5
99571.9
99293.1
99662.9
99509
99598.9
99580.5
99578.1
99574
99269.3
99574.9
99482.4
99255.8
99581
98646.8
99566
99579.5
100418
98579.6
99425.6
99039.3
98577.9
97401.2
97160
98291.5
98244.1
97305.1
99544.4
99519.5
97388.3
99610.6
101086
97482.5
99677.9
99684.2
99776
99565.7
97553.4
97342.2
97635.3
99734.3
100296
96355.6
96612.5
96348.6
96617.3
96562.2
96451.7
99587.7
99564
99537.7
99547
99582.9
99581.3
99558.8
99602.4
99553.7
98046
99195
99457.5
99480.1
99467.6
99484.8
99590.5
99610.8
99578
99555.5
99567.1
99564.8
99563.5
99566.8
99623.4
99493.7
99609.1
99591
98894.9
99593.4
96212.8
99587.3
99461.3
99633.2
99635.8
97296.2
99555
96357.3
99220.3
99330.7
99219.3
100341
99554.6
99604.4
99591.8
99353.1
99601.2
99581.3
100099
99607.4
99558.4
99532.2
99517.8
99270.9
98721.8
99375.9
99469.5
99479.2
99466.1
99477.4
99485.7
99404
99451.1
100230
99526.1
99426.4
97112.4
99416.7
99531.8
97633.6
97684.8
99572.5
98851.7
99633.1
113175
99669.7
99658.8
99690.9
92794.5
97394.7
99685.7
99672
97122.8
99508.1
99665.9
99581.8
99534.8
99462.9
99589
99586.4
99586.5
99656.4
99520.8
96362.9
99587.8
96351.3
99466.1
99366.1
98571.6
99463.4
97452.5
97007
99488.3
99483.4
99493.5
96157.1
96430.2
99419.7
99655.6
99573.8
99678.7
99457.9
99595
99585
99598.9
99599.7
99595.9
99568.4
99591.4
99663.3
99505
99587.7
99486.5
99556.5
99520.2
99613.5
99590.6
99538.7
99493.7
99665.7
99682.8
99585.4
99580.6
99471.7
99573.3
99670.8
97301.6
99332.5
99676.9
96890.5
97596.1
99522.3
98769.6
99685.8
99605.8
99711.1
99559.1
99448.2
99472
99461.2
99566.7
99584.8
99606.6
99612.5
99574.5
99635
99551.3
99624.3
99571
99509.5
99095.4
99434.7
97511.4
99503.8
99549
99488.7
99516.8
99507.6
99549.6
100502
99532.1
99479.8
99512.5
99510.7
99501
99673.7
99569.9
99569.7
99695.8
99704.8
97175.9
99479
96265.9
99629.8
99679.1
96299.8
96215.7
96498.7
96480
99451.6
99460.7
99334.8
99338
99583.6
99568
99560.1
99561.4
99441.3
99545.9
99496.5
99545.2
99335.8
99545.5
99430.8
99437.1
99608
99606.4
99504.5
99494.1
93463
101800
99597.7
99582.7
99569
99635.6
99504.6
99631.7
99611.9
92567.7
99515.6
99600.7
99583.4
99398.6
99364.3
99390.6
99432.5
99436.1
99611.8
99574.8
99188.7
99246.5
99364.6
97301.3
97656.7
100105
99523.2
99528.4
99534
99528.4
112635
98732.1
95937.3
99547
100824
99467.9
99614.1
100265
99555.2
99609.2
98556.5
99605.3
99569
99692.6
99451.5
99433.5
99648
99568.4
99485
99504.3
99547.8
99426.1
100574
99500.1
99617.1
99586.9
99579.4
99565.8
99588.9
99588.8
99514.6
99517.9
99084.1
99567.9
99577.3
98518.8
96398
99486.5
99585.2
99543.2
99553.5
99543.8
99438.7
99558.8
99606.8
99584.4
99548.4
99574.8
99579.3
99557.4
99505
99533.3
99562.1
99475.4
99585.9
99221
97400.5
97592.2
97602.7
97556.8
99587.7
95276.4
99733.7
97661.3
99541.5
100381
99572.5
98109.5
101513
99582.8
99589.7
99727.5
99629.8
99594.5
99568.1
99585.9
99545.9
99518.3
98947.5
98986.3
99521
99513.5
99128.6
93154.8
99552.9
99644.6
99448.5
99578.3
99571.7
102267
99570.7
99149.8
98847.7
98920.9
97305.7
96224
97052.5
97152.3
99465.9
99509.7
99517.6
96999.9
99580.6
99562.6
99575.5
99553.7
99902.3
99556.4
99573.5
99560.7
99581.8
99576.6
99471.5
99555.2
99576.1
99545.2
99547.9
99603.6
99572.7
99586.4
99578
99515.1
99515
99512.1
99526.7
99370.6
97320.5
99196.7
99273.1
99295.5
99259.6
99278.1
97353.1
99848.1
99695.8
101655
97613.6
97650.2
97383.3
96996.2
97188.1
99530.9
96867.7
102031
96920.7
99493.6
97028.7
99548.4
99478.3
99711.8
99549.2
99554.4
99539.4
99025.6
99350.8
96399.7
99370.8
97180.7
99741.5
99568.1
99763.8
99519.5
99510.1
99532.3
97079.6
97346.9
97308.8
99586.9
99589.8
99619.8
99534.8
99541.3
99580.8
99329.1
96302.3
99222.6
111651
99550.4
99619.7
99548.8
95356
99586.4
119713
99408.1
99572.9
99743.4
99465.6
99510.4
99640.1
99504.3
99566
99609.5
99594.8
99578.1
99583
100163
99553.7
92204.2
99473.1
96216.4
99594.9
99611.1
99559.7
99583.6
99583.2
99545.6
99436.6
99552.9
99485.8
98334.7
98565.2
98425.3
99527.8
99695.3
99637.1
99549.1
99584.1
99578.1
99578.5
99444.9
99548.2
99524.6
99675.1
99481.6
99480.9
99473.2
99093
99596.7
99534.2
99560.6
99510.6
99470.1
97884.8
99524.3
99585.7
99580.2
98285.4
98145.5
99576.3
99571
119632
99406.2
99247.6
114606
94675.6
99374.3
100346
99939.4
92987.4
101652
100825
99634.6
99497.7
99557.9
99568
99568.1
99566.1
99562.9
99578.2
99560.1
99578.3
99582.5
99583.2
99509.8
99511.8
99395.2
99362.1
97226.8
97189.7
97140.8
97087.9
99546.5
99543.2
99548
99529.2
99526.5
99533.4
99590.8
99525.6
97254.8
97504.6
99339.4
99305.6
99763.4
99495.6
95270
99705.2
99695.1
99820.2
94606.1
101397
99424.4
99641.2
99616.2
99561.6
99596.8
99566.7
99704.3
99588.1
99621
99632.6
99648.7
99702.9
98347.1
99384.6
99570.7
99746.4
99553.8
99536.1
99605
99579.4
99582.3
99523.4
99538.9
99515.8
99325
97132.1
99583.2
99585.3
99580.7
99584
99582.9
99583.9
99737.2
99413.1
99625.7
99639.7
99566.7
99568.9
99444.1
99823.3
99544
98020.6
99502.3
97921.5
97572.2
99622.8
99571.9
99671.6
99550.4
97526.2
99453.5
101986
100763
99558.1
99306.4
100465
97072.4
99528.3
99494.8
99110.3
100815
99559.7
99612.8
99348
99578.3
99582.2
99586.1
98798.8
99587.7
97423.6
98146.9
99521.3
99579.4
99354
99334.1
99363.1
96570.8
96521
100036
99781.4
99576.5
99447.6
100498
100352
99562
99577.2
99645.2
99565.9
97355.4
99528.1
97363.8
99646.2
97299.9
97011.6
99514
97168.6
99406.8
99425.2
100451
99578.8
99741.4
99578
99608.9
99580.2
99749.2
99572.4
99580.5
99536.4
99775.7
99600
99596.5
99585.8
99605.1
99523.2
99539.4
99580.8
99580.8
94814.1
99471.1
99583.6
99540.9
96294.9
96916
96868.5
99640.5
99601.5
117055
88454.6
99628.6
99495.1
99542.3
99478.6
99531.5
99492.9
99626.8
98346.1
96184.2
98244.9
98351.7
99556.4
97657.6
99489.9
99491.3
99486
99481.1
99409.3
99639.7
99486.7
99355.1
99648.6
99545.2
99494.9
99703.4
99472.2
99760.2
97488.1
99596.1
99600.2
99066.5
99455.9
99543.5
99602.2
99499.7
99162
96797.9
99612.5
99230.9
96658.8
99609.4
99347.8
99574
99591.5
99591.6
99083.4
99538.7
99029.7
99530.6
99522.2
100490
98911.4
96359.2
96420.6
99455.3
97296.9
98566.2
99049
99435.2
99283.7
99177.1
99574.6
99579.2
99410
99593.5
96298.6
99659
99633.6
99623.2
99446.2
99465.8
99477.5
99893.5
99633.3
99762.1
99586.7
99628.9
99500.6
99518.5
99547.3
99529.8
99452.8
97980.9
98296.3
98874.2
99464
99587.4
99589.7
99450.5
99487.2
99526.7
99481.5
99618.6
99463.8
99487.7
99503.3
99468.1
98578.5
97543.2
98080.2
98357.5
97160.7
99561
98159.5
99672.5
98094.3
98604.5
99617
99976
99574.7
99922
99569.5
100444
99446.7
99518.8
99676.3
99554.6
99661.7
98177.5
99591
99707.6
98851.3
99497.9
99502.8
99495.9
99508.1
99753.4
99648.9
99663
99414.2
99104.8
99673
99059.3
99641.1
99522.8
98581.2
99518.4
99525.8
96965.8
99587.4
99580.4
99572.2
100399
99477.6
99577.4
99566.8
99358.2
99433
97626.1
99971.6
99222.5
96885.1
97780.3
96659
99531.6
99537.4
99535.8
99523.9
99536.2
99544.5
97354.7
97907.3
99261.6
98016
97650.9
97555.5
99422.3
97810
99469.4
99400.6
96078.6
102167
99395.1
99346.7
99413.5
99727.7
94693.8
99398.5
99712.3
99646.8
99400.6
99386
99481.7
99434.9
99623.1
99565.8
99563.2
99544.8
99578.2
99588.5
99540.4
99523.3
99667.2
99539.7
99505.7
99506.5
99492.4
99483.5
99442.4
99310.2
99562.6
97692.2
98890.1
96873.2
99239.6
98802.9
99362.7
99333.6
99364.1
99355.6
99334.1
99381.1
99392
99308.5
100105
100382
100482
98857.3
98932.4
98939.5
98712
99423.6
99747.1
99587.5
99580
99567.2
99583.1
99582.5
99581.2
99486
99512.4
99512.4
99520
99517.1
97170.4
98128.8
99238
97155.2
99686.2
97128.2
99613.2
99676.6
99695.3
99676
99684.2
99527
99515.3
99260
99580.8
99582
99577.8
99373.9
99314
99481.7
99430.5
99488.2
99651.7
99489.5
98950.4
119388
99422.6
99471.7
99481.5
99663
99633.9
95119.7
99821.6
99464.5
99469.1
99468.4
99481.2
99320.7
99029.7
99566.1
99573.2
99555.8
97967.9
98420.7
99167.7
99447.2
99763.2
99536.4
99501.4
99332.9
99592.6
99521.6
99419.1
99534.5
99534.6
99602.6
99577.8
99519.9
99518.2
99442.7
99535.6
99562.6
99503.5
99542.8
99518.9
99364.9
98068.6
96735.2
99510.7
99451.9
99590.8
99470.2
99712.5
99649.9
99575.9
96722.9
99364.6
99544.3
99551.9
99447.3
99787.4
99559.5
99568
99545.6
99681
99764.1
99583.2
99580.1
96156.5
96263.3
99528.4
99508.8
99522.3
99537
99578.1
99587.5
99586.7
99580.4
99514.2
99551.5
99536
99555.2
99515.4
99511.1
99537.1
99528.2
99513.3
98901.4
96394.6
96821.8
96794.7
99519.8
99516
99527.5
99579.1
99550.5
99674.8
99574.2
99763.1
99550.1
99638.4
99695.2
99848.6
99138.8
99545.8
96637.6
96500.6
96277.1
99464.1
99643.8
99581.7
99536.5
99559
99545.7
99696
98505.5
99586.5
99585.7
99591.4
99583.4
99585.4
99582.6
99583.9
99497.6
99455.2
100438
99446
99296.8
99593.1
99492.8
99243.4
99190.8
95659.7
99590.8
99599.9
99597
99553.1
99567.7
99645.4
99575.3
99584.9
99582.7
99684.3
99589.7
98725.1
98878
99503.8
99473.8
99365.8
99287.2
99435.6
99450.4
99329.8
96460.3
95478.4
98109.5
83886.3
99506.9
99691.4
99530.8
99653.5
99631.6
99570.2
99649.1
99574.7
99555.7
99636
99560.8
97376.9
99474.8
99245.1
96392.8
99624.9
99629.4
99009.6
98688
98467.6
99501.3
99494.9
99405.2
99512.9
99471.2
99537.8
99586.9
99457.9
99514.4
99447.2
99564.9
99569.9
97908.9
99610.5
99542.4
96607.6
98056.4
96617
99580.3
99547.1
99603.5
99436.3
99473.4
99640.7
99574.8
96633
96318.4
96998.5
99480.7
99473.8
99446
99578
99476.1
99491.7
99584.3
99593.7
99574.1
99689.9
99687.8
99670.6
99697.5
99504.2
100228
99582.5
99430.6
99560.3
99568.9
99319
98038
98710.8
99452.5
98081.6
99566.7
99558.1
99561.4
98990.8
99551.7
99561.8
99442
99007.7
98583.7
99570.2
99400.1
99382.3
117607
99625.1
99092.7
99378.3
99539.8
100672
99560.2
99593.8
99595.8
99602.5
98745.6
99613.4
99624.3
99606.4
99611.7
99674.3
99090.2
99698.4
98649.8
98739.4
99329.6
98191.2
99055.6
98716.5
99570.2
99568.8
99557.6
99558.3
99561.7
99569.4
99534.5
99499
99517.3
97301
97079.2
97214.9
97825.5
101297
99195.8
99254.9
113623
99619.9
99646.6
99732.9
99472.3
99473.7
99484.7
99467.3
99455.6
99589.7
99570.5
99570.3
99571.1
99569.1
99453.2
96264.5
96303.7
99500.9
99505.1
96585
96631.5
99495.5
99464.4
99487.1
99557.5
97792.7
97988.4
98954.1
99521.2
99503.4
99510.8
99535.9
97657.4
99583.2
99588.7
99604.2
99600.9
99553.9
99614.8
99608.2
97014.4
98612.5
99583.6
99599.7
99576.7
98961
99198.9
99502.9
99383.6
99560.9
99587.4
99451.6
98814.4
98811.1
99586.6
98989.6
99389.9
99417.5
99428.8
96850.2
99447.8
97165.4
99161.5
99294.2
99570.6
99584.7
99551.3
99567.4
99491.9
99506.9
99501.8
99524.5
97272.4
99538.2
99486
99509.7
99504.7
96216.9
97232.5
99539.4
99530.7
99118.5
112910
99581.1
99584.2
99512.5
99579.6
99560.8
99521
99156.4
99077.8
99838.8
96301.3
98460
98721.5
99143.3
99404.9
99453.3
99453.8
99410.5
99388
99665
99750.7
99064.9
99049
99589.3
99622.7
99590.2
99607
99171.4
99230.2
99548.9
99565.7
99461.1
99525.2
99516.7
99577.5
100356
99577.1
99577
99575.8
99560
99443.5
99436.1
99432.7
99446.3
99838.3
99441.9
99439.8
99418.3
99452.4
99571.6
99564.5
99554.3
99571.5
99295.7
99490.3
99472
99596
99535.6
99592.7
99497
99472.6
99603.3
99592.6
99589.5
99602.4
99583.9
94719.7
99531.3
99612.8
99620.6
99616.8
99627.8
99672.4
99736.1
102545
99534.7
99528.3
99525.2
116378
99559.2
99588.9
99425
96546.2
84778.4
99243.1
100585
87199.3
99475.8
96655.3
95459.9
96715.5
95424.2
99524.4
96442.6
99842.1
96814.2
96445.3
96570.5
99560.8
99663.9
98714.9
98292
99535.1
99504.1
98500.9
99530.8
99522.1
99571.3
99578.2
99585.6
99586.9
99532.2
99533.5
99515.5
99522.6
99601.4
97767.3
99573
99584.4
97678.7
99586.2
101476
95423.8
99554.2
99555.2
99557.2
99544
99503
98607.2
97355.5
99631.9
99586.3
99572
99261.3
99276
99349.8
99234.4
99411.6
99303.7
99638.3
95251.4
93668.2
97341.8
99567.1
99537.8
99503
99494.7
99627.3
99570.2
99550.6
99680.1
99576.6
99544
99581.3
99565.4
99420.8
99590.2
99491.4
99501
99512
99514.9
99512.8
99487.5
99508.6
99588.2
99587.6
99581.4
93684.1
96351.2
96333.8
98315.2
99513.4
99511.1
98419.4
98239.9
96276.2
99574.2
96246.8
96249.4
99586.4
99574
99458.1
97675.9
99530.2
112186
99785.4
99207.6
99580.4
95118.5
99299.1
99665.4
99514.3
99556.6
99434.8
99486.3
99464.1
97478.1
99483.1
99537.5
97333.9
99553.4
99539
99549.6
99504.5
99522
96749.7
96895.4
96946.5
99575.2
99593.1
99590.8
99582.4
99587.2
100993
99606.1
100391
99649.9
100366
99794.2
99705.6
99556.4
99726.7
99661.7
99559.9
99573.7
99644.9
99650.9
99214.4
99476
99196.6
99314.2
99520.4
98926.8
98931.4
99567.3
119265
99580.5
99583.1
99575.4
99650.6
99750.1
99641.5
96380.3
99644.2
99508.6
99554.9
96215.5
99540.3
99556.1
98410.7
99393
99494.4
99469.2
98038.3
99507
99389
99533.4
99472.3
99621.4
99508.9
97676.7
99412.3
99239
97399
98530.1
97903.7
96526.2
98097.1
99495.8
99460.2
99460.5
99574.4
99579.3
99581.2
99598.9
99522.5
99574.8
99315.1
97153.1
97441.6
97438.6
99375
99180.6
97295.3
99347.1
99569.6
99501.1
99557
99286.1
99525.2
99489
99767.2
99492.6
99233.7
99206.5
99307.4
99285
99454
99725.5
99572.5
99323.4
99521.1
99512.8
99560.5
99548.5
99512.8
96229.2
99582.7
99532.8
99526.9
99517.8
96210.9
99618.2
97551.6
98172.9
97854.2
97241.5
99604.5
99602
99596.9
99516.1
99508.7
99452.1
99416
99392.1
99415.5
99516.5
99517.9
99072.5
98446.7
99515.9
101747
99522.9
98809.5
99720.5
99721.8
99291.8
99589.3
97157
96899.3
98968.8
97903
96229.3
97577.5
96233.1
98929.8
96208.2
99426.3
99225.6
98426.9
99483
98346.8
96197.1
96250.5
96208.9
99473.4
99491.9
100349
100053
99522.2
99557.9
99619.7
90893.8
114144
99591.6
99598.7
99598.2
99595.1
99544.7
99543.1
99540.5
99538.4
99571.5
111426
99605.2
99618.9
96667.4
99277.2
96667.8
99192.1
100928
99565.5
99648.6
99060.5
99643.2
99637.2
99554.6
99546.2
99561.5
99632.7
99548.5
99518.2
99535.5
99526.4
99540
99636.4
99548.4
99640
99560
99495.1
99573.2
99577
99564.4
99428.3
99547.2
99644.6
99590
99588.9
99588.3
99548.5
99549.9
99554.5
99547.5
114678
99547.4
99555.7
99584.2
99556.5
99553.9
99542.9
99551.5
99500.8
99457.3
99469.3
99468.4
99324.2
97226.8
97976
97302.6
97778.7
97659.7
99600.5
99617.6
98205.7
99603
99627.8
99710.2
99603.3
111998
99619.8
99595.4
96182.8
117334
112784
96258.8
96221.5
96610.2
96488.2
96221.6
97142.4
97448.2
99567.3
99577.1
99564.2
99560.6
99558.3
99478.6
97382.9
99002.6
99656.3
99577.2
99614.2
100599
100146
99295.1
100650
97769.3
99195.6
99537.4
99430
99578.2
99437.1
99542.7
99650.5
99529.5
99625.8
97634.6
97353.9
99332.7
97738
98012.4
99312.3
99575.5
99548.2
99506.6
99581.1
99583.6
99557.9
99559.8
99554
97146.9
99525.8
99551.3
99560.6
99593.4
99591.9
99593.8
99591
99554.1
99469.6
99339.1
99467.1
99448.3
99456
99451.1
99464.3
99447.6
95522.5
99441.6
101179
99453.4
99444.5
97649.3
97000.2
100492
97461.7
85784.3
100364
101064
118172
95765.2
101324
97201.2
99552.3
99590
99573.3
99583.9
99587.5
99540.4
99499.5
99500.7
99493.7
99486
99375.8
99470.4
97838.1
99494
99577
99577.6
99585.1
99581.6
99538.5
99411.1
96995.4
99421.7
98368.4
98388.7
97781.7
98522.1
99535.8
99520
96358.5
99541.9
99531.7
99318.4
99547.2
99563.3
99515.1
99547.3
99532
96527.5
99574.7
99576.2
99576.3
99542.7
99541.4
97366
97229
97186.5
97999.1
97957.2
97852.7
97867.1
99474.1
99548
99566.1
99479.5
99568.5
99482.3
99490
99457.3
99484.5
99533.5
99666.1
99685.2
98713.7
98884.8
99163.3
97279.4
99683.8
99675.6
96640.1
99362.8
99343.7
100512
100081
99770.4
101133
99474.7
99165.7
98935.6
99109.3
99549.1
99589.6
99500.4
99565.3
99562.4
99576.2
99575.4
99238
99528.5
99516
99521.8
99442.4
99582.5
99252.4
99231.6
97332.8
97274.5
99574.9
99576.7
99575.7
99582.4
99686.8
97233.7
99687.5
99371.4
97240.4
96304
98940.7
117531
96778.9
99569.9
99577
111727
117182
87322.7
100796
94579.6
95147.2
98633.7
92594.7
99621
99657.4
101691
92924.3
99751.7
100951
100408
101076
119707
96992.2
99202.1
99704
99433.9
99435.2
99571.4
99565.8
99564.3
99593.4
99531.3
99562.1
99078.8
97447.4
97854.5
99552.6
99560.9
99524.7
99579
99576.3
99545.3
99580.8
96442.5
99394.3
96388
99435.3
99551
99410.9
99524.1
99571.1
99539.7
98185.1
100898
99828.2
99614.6
99598.8
99565.7
99553.1
99578.4
99598.4
99495.6
99555
99543.6
99437.9
99182.6
99533.6
99586
99535.9
99530.6
99532
99354.9
101825
99336.4
100862
100574
99456.9
97394.4
97480.2
97548.3
97627.4
99636.3
99626
100246
99648.6
101520
99540.2
99508.6
99613.8
99610.8
99565.7
99580.8
99451
99589.5
99548.5
99556.8
99546
99498.8
97908.4
99430.5
96934.5
97152
97101.5
97059.2
96704.7
97170.1
97141.7
99434.6
99500.4
99320.4
99453.1
99607
99635.3
99576.7
99610.8
99600.2
99704.9
99570.4
99576.1
99547.8
99545.8
99573
99553.2
99558
99580
99370
99578.2
97712.8
99572.7
99449.4
96975.5
99571.5
99476.5
99495.5
99508.5
99568.3
99571
99497.1
99690
99392.3
99502.6
99501.4
99192.7
99629.3
99607.2
99617.4
99343.7
99450.2
99539.8
99515.3
99596.5
99595
99586
99592.9
100404
99259.7
99562.5
99456.7
99574.6
99356.7
99474.9
99379.4
99453.5
100982
102391
101221
97289.1
99896.5
96006.4
101180
87706.9
100178
99601.6
99603.7
99565.5
99584.6
99567.1
99575.8
99489.8
99453.3
99558.3
98072.6
98938.2
99135.1
98380.6
99546.2
99592.7
99702.5
99788.5
98019.1
86246.2
99426.4
99435.9
99453
99442.3
99581.9
99579.1
99530.8
99534.1
99553.2
99603.2
99614.3
99579.8
99604.6
99622.3
99577.4
99585.3
99581.7
99559.6
99496.7
99581.5
99446.1
99422.6
99500.2
99485.4
99559
99479.2
99563
97398.1
97769.2
102437
99562.1
99487.1
99492.4
99668.1
99733
99481.4
99461.3
101463
96374
99288.8
119247
114250
94825.4
94763.1
99539
99547.3
99534
99588.2
99554.4
99541.1
95779.6
98545.2
98044.7
98270.1
99471.2
99495.2
99450.1
99436.8
99059.4
99658.3
98971.6
101720
99712.7
99815.1
99764.4
100508
99787.3
99833.8
99439.2
99469.1
99465.2
99484.5
99496.3
99480.3
98747.6
98167.4
98861.5
99611.7
99619.7
99598
99585
99489.4
99432.7
97656.4
99684.4
97295.9
97627.9
99614.4
99629.2
99391.9
99146.5
99009
98916.3
99381.5
97708.3
99584.2
99524.1
99711
99475.2
99583.3
96476.9
96565
99726.7
99465.7
99422.7
99637.7
99623.3
99530.9
99549.1
99585.6
99293.3
99216.9
99218.2
99399.8
99981.2
99573.2
96245.2
99565
97101.5
98478.9
97351.6
97469.1
97765
99615
99559.8
99508.3
99207.2
99476.6
99256.2
99593.6
99584.2
99584.4
99546.8
99498.1
99541
99536.9
99497.9
99571.7
99573.7
99580.9
99581
99579.3
99580.6
99234.8
97261.3
99528.7
99314.9
99192
99528.8
99466.8
99608.7
99394.2
99385.6
99475.4
99343.1
99631.5
99614.3
96471.3
111549
117635
99267.2
96622.3
97698.3
99560.7
96694.4
114294
99562.5
92193.3
99479
99502.4
99504.5
99501.6
99566.5
99621.4
99604
99595.9
99568.8
99493.1
97647.4
96685.1
99498.3
99492.1
99501.5
98840.7
98640.6
99441.5
97346.6
97992.6
98694.7
99432.8
97349.3
96316.5
98111.7
98492.9
98213.7
98637.5
98548.6
98938.2
99618.5
99676.1
97895.3
99569.3
99580.6
99572.3
99656.1
99642.2
99679.3
99580
99124.6
99171.1
99660.8
99836.5
92489.6
99610.1
99468.7
99558.8
99575.5
99582.5
99856.9
99578.4
99258.9
99552.1
96758.8
99130.6
99685.7
99026.4
98663.2
97459.3
99533.3
99563.2
99522
99552.4
99561.5
99564
99567.9
99495.5
99530.9
98714.5
99524.7
98577.3
99280.2
99582.5
99582.8
98001.4
99401.7
99506.7
99433.8
99419.6
99511.7
99550.8
99402.3
99547.6
99554.5
99612.1
98070.2
97848.1
99616.5
99620.9
100802
98443.4
102049
99853.1
99751.6
100360
99558.9
97667
99584.3
99587.7
98546.7
99454.6
99494.8
99522.2
99520.7
99401.9
99353.4
99489.4
99340.5
98583.1
99408.1
97156.6
99559.6
99562.4
99557.2
96596
98745.2
98087.9
98643.2
98587.6
99885.2
97556
100525
99367.5
98863.1
96772.4
99518
99604.9
99604.9
99532.8
99593.3
99522.6
99596.2
99585.3
99584.4
99582.5
99480.5
99399.2
99542.6
98604.1
99067.2
99540.9
99429.3
99540.3
96584.1
100347
99073.6
100340
99586.1
101128
99718.5
99598.4
99592.5
99650.1
101417
99403.6
99698
99586.1
99584.6
99583.4
99584.4
99540.1
99557.8
99723.1
97725.3
99552.4
99546.5
99547.3
97753.7
97651.2
99576.8
96174
97085.5
99573.3
99580.1
99573.2
99587.3
99555.6
99554.3
99552.5
99554.7
99468.5
99467.1
99571.1
99591.6
99590
99579.4
99584.1
99468
99505.6
99495.9
99481.2
99535.8
99480.3
99468.3
99587.6
99584
99429.8
99585.4
97921.4
96484.6
97249
99537.2
99524.7
99339.2
99326.2
96376
96296.9
96628.2
96316.5
96584.9
96660.9
99577.9
92613
114720
99668.2
99675.5
99644.4
99654.4
99711.6
99573.6
99599.5
99585.9
99569.9
98161.5
96440.3
96288.7
96268.8
114762
99588
99587
99591.6
99563.2
99539.7
99548
99570.1
99569.1
99471.1
99561.6
99550.5
99561.2
97763.4
99668.5
99713
99927.9
99694.6
99085
99116.5
94279.2
99510.2
99520
99590.5
99596.6
99593.7
99597.2
99596.6
99595.2
93369.6
101649
100270
99709.7
99452.6
98575
98465.7
98901.3
99630.6
99619.6
99617.8
99623.8
99527.7
99495.5
99515.1
99103.6
97644.5
99555
99532
99614.8
87839.7
99598
99583.6
92583.7
96594.8
116760
99739.9
99734.9
99686.2
99723.9
99626.7
98747.9
98686.2
)
;

boundaryField
{
    Inlet
    {
        type            prghTotalPressure;
        p0              nonuniform List<scalar> 0();
        value           nonuniform List<scalar> 0();
    }
    Outlet
    {
        type            fixedValue;
        value           nonuniform List<scalar> 0();
    }
    Symmetric
    {
        type            symmetry;
    }
    Wall
    {
        type            fixedFluxPressure;
        gradient        uniform 0;
        value           nonuniform List<scalar> 
213
(
99457.7
99503
99535.8
99558.8
99572.5
99583.6
99586.3
99586.4
99588.1
99584.2
99578
99569.1
99559.7
99547.8
99532.8
99517.8
99501
99476
99437.9
99376.7
99269.3
99077.8
98769.6
98324.6
97838.1
97438.6
97226.8
99430.6
99479
99512.8
99537.4
99563.3
99566.8
99588
99589.7
99578.2
99566.6
99562.1
99560.1
99551.3
99547.1
99535.5
99518.1
99495.5
99468.8
99430.5
99375.8
99279.1
99096.1
98742.3
98410.7
97967.9
97592.2
97366
99474.2
99482.2
99487.2
99511.7
99521.1
99523.3
99538.7
99549
99547.5
99555.7
99567.1
99567
99567.9
99579.2
99580.4
99573.3
99584.7
99575.5
99574.2
99586.4
99578.1
99574.8
99586.6
99571.3
99572.7
99586.4
99580.8
99566.7
99580.3
99575.8
99558.3
99574.7
99569.3
99548.5
99563.3
99545.9
99538.5
99555
99539
99523.7
99539.4
99528.3
99510.1