/*--------------------------------*- C++ -*----------------------------------*\
| =========                 |                                                 |
| \\      /  F ield         | OpenFOAM: The Open Source CFD Toolbox           |
|  \\    /   O peration     | Version:  v2006                                 |
|   \\  /    A nd           | Website:  www.openfoam.com                      |
|    \\/     M anipulation  |                                                 |
\*---------------------------------------------------------------------------*/
FoamFile
{
    version     2.0;
    format      ascii;
    class       surfaceScalarField;
    location    "0.03";
    object      phi;
}
// * * * * * * * * * * * * * * * * * * * * * * * * * * * * * * * * * * * * * //

dimensions      [0 3 -1 0 0 0 0];
oriented        oriented;


internalField   nonuniform List<scalar> 
5881
(
6.97246e-09
3.59641e-08
-4.29366e-08
-7.59214e-09
7.11927e-09
5.19217e-08
-5.14488e-08
-4.93112e-08
4.1719e-08
1.34241e-08
9.0547e-08
-1.03971e-07
-1.49544e-08
-8.09001e-08
9.58545e-08
-8.17166e-08
-1.76046e-08
8.43668e-08
-9.22456e-08
4.47713e-08
4.74743e-08
-6.8058e-09
1.33026e-08
-6.49684e-09
3.82194e-08
-4.16645e-08
4.37651e-08
-4.032e-08
-4.09443e-09
-1.16636e-08
1.25943e-08
3.1637e-09
-1.47498e-07
1.16961e-07
3.0537e-08
7.55118e-08
6.66928e-08
-1.42205e-07
-2.13643e-08
-1.28256e-07
1.49621e-07
-4.01053e-07
4.01053e-07
-1.44876e-09
2.0406e-09
-5.91841e-10
1.82777e-08
3.87507e-08
-5.70284e-08
-4.05465e-07
4.41151e-09
2.01194e-07
3.8761e-08
-2.39955e-07
4.10741e-08
-1.13342e-07
7.22675e-08
2.97301e-08
-6.58653e-08
3.61352e-08
-3.30444e-08
3.30444e-08
1.5498e-08
4.86347e-08
-6.41327e-08
-1.45467e-07
1.34888e-07
1.3441e-07
-1.23831e-07
7.00068e-09
1.14686e-07
-1.1394e-07
-7.74736e-09
-3.5833e-08
3.5833e-08
-5.31358e-09
3.0786e-07
-3.02546e-07
1.89438e-09
-3.93064e-08
3.7412e-08
-1.30372e-08
2.60752e-07
-2.53028e-07
2.21199e-07
-2.34236e-07
-2.95168e-08
3.21972e-07
1.54052e-08
-6.07788e-08
-8.46491e-09
6.92437e-08
2.59742e-07
3.65755e-08
-2.96317e-07
2.31235e-07
5.67102e-09
6.50223e-10
5.25417e-08
-5.8863e-08
-3.3821e-08
-1.78114e-09
7.783e-10
9.64566e-09
-1.0424e-08
-3.25834e-08
-1.23766e-09
-3.6289e-08
1.62851e-09
4.77263e-08
-4.85106e-08
7.84264e-10
-4.33889e-08
5.81797e-08
-1.47909e-08
1.0807e-08
-4.05756e-08
2.97686e-08
-3.68967e-08
5.34684e-09
-6.51675e-09
3.80666e-08
4.65997e-09
-7.12932e-09
-2.25115e-08
2.49808e-08
-7.13166e-10
2.39187e-10
4.45026e-08
-4.40286e-08
3.04142e-08
-2.83377e-08
-2.18131e-08
1.97366e-08
-8.26717e-08
8.03665e-08
2.30517e-09
-8.41716e-09
8.41716e-09
-3.36441e-08
1.99299e-08
1.37142e-08
3.16064e-08
-2.69465e-08
1.08619e-09
6.90551e-08
-7.00239e-08
-1.17413e-10
8.41843e-08
-8.75395e-08
-8.79117e-08
9.12669e-08
-2.78607e-08
1.45738e-09
-7.14798e-10
2.71181e-08
-3.50168e-08
3.6103e-08
-9.46147e-08
-8.73355e-08
9.85982e-08
8.3352e-08
1.3022e-08
1.96953e-08
-1.2788e-08
-1.99294e-08
7.95136e-08
1.41629e-07
-2.21143e-07
-1.0444e-08
-1.39557e-08
2.43997e-08
-5.0677e-08
4.59178e-08
-4.63867e-08
5.1146e-08
6.98156e-10
1.70514e-09
-2.39558e-09
-7.72007e-12
2.84171e-08
-2.96723e-09
-2.54499e-08
-4.198e-08
-8.14182e-09
7.93213e-09
4.21897e-08
1.77606e-07
-4.0387e-07
2.26264e-07
2.56127e-08
-2.84357e-08
2.82302e-09
3.01402e-08
1.16338e-08
-4.4931e-08
3.15719e-09
-3.61808e-08
-9.8701e-09
4.60509e-08
-1.03983e-07
1.02441e-07
8.20299e-09
-6.66097e-09
-1.35252e-08
1.35252e-08
-1.1976e-08
-9.22538e-08
1.0423e-07
5.36269e-08
-3.30599e-08
3.72385e-08
-5.78055e-08
5.49974e-10
8.50009e-09
-1.23453e-09
-7.81553e-09
5.416e-08
-5.20937e-08
-2.06633e-09
2.76864e-08
3.05292e-08
-5.82155e-08
-5.67796e-08
1.09094e-08
4.58702e-08
4.16095e-07
-4.16095e-07
8.12906e-10
4.15353e-07
-4.16165e-07
-8.71055e-09
1.01949e-07
-9.24253e-08
-3.89497e-08
3.02392e-08
-1.08057e-07
9.26261e-08
1.54313e-08
-4.18013e-08
5.1431e-08
-9.6297e-09
8.82677e-10
-4.01186e-07
4.00303e-07
-7.77671e-09
-4.23349e-08
5.01116e-08
-3.89999e-08
8.21076e-09
3.07891e-08
-3.88908e-08
-3.7403e-08
3.31304e-08
4.31634e-08
-5.42396e-10
4.23094e-09
-3.68855e-09
7.89722e-09
-1.79939e-08
1.68032e-08
-6.7065e-09
5.61668e-11
4.74328e-09
-4.79947e-09
-3.54746e-08
1.15746e-07
-8.02717e-08
7.49149e-08
-6.3223e-08
-1.16918e-08
7.05503e-09
-1.10594e-08
7.89192e-08
-3.33194e-08
-3.57723e-09
-7.93003e-08
1.54549e-08
6.38454e-08
4.0782e-08
-4.57037e-09
-3.62116e-08
-1.56798e-07
1.08481e-07
4.83168e-08
-1.55101e-10
-3.32016e-08
3.33567e-08
-1.79004e-09
-2.51464e-08
-9.24278e-10
-1.27686e-08
6.44335e-08
-5.16648e-08
4.51751e-08
-3.66127e-08
-8.56243e-09
-3.18558e-10
4.47265e-09
-6.29368e-08
5.87827e-08
8.41502e-08
4.08206e-10
-2.59149e-10
-8.42993e-08
1.66098e-08
-1.42412e-09
-1.51856e-08
-9.24724e-08
-1.90267e-07
2.82739e-07
-1.54656e-08
5.27875e-09
1.01869e-08
-3.02752e-08
-2.95327e-09
3.32285e-08
2.35009e-08
5.99444e-08
-3.76507e-08
-4.57946e-08
2.43371e-08
5.49057e-08
-7.92427e-08
-1.17038e-08
1.34169e-08
9.59341e-08
-9.76472e-08
-2.4034e-08
3.41749e-10
2.45286e-08
-8.36323e-10
-5.90862e-08
6.37354e-08
-4.64924e-09
-2.16253e-08
1.015e-08
1.14753e-08
-3.0165e-09
-3.94005e-08
4.2417e-08
1.80673e-09
-1.05486e-08
8.74189e-09
3.78733e-08
-4.01376e-08
-9.99571e-10
3.26389e-09
4.75812e-08
-9.78913e-10
-4.66023e-08
4.15702e-09
-4.80841e-09
5.99476e-08
-5.92962e-08
-4.76375e-08
4.90949e-08
-2.09856e-09
-4.80013e-08
5.00998e-08
-8.29548e-08
2.38686e-08
-7.24827e-08
2.2395e-08
-1.01109e-07
-2.21255e-08
1.0084e-07
-2.03623e-08
-2.37233e-08
1.81265e-08
2.59591e-08
-2.52732e-08
4.9109e-09
-1.21778e-07
1.07283e-07
1.44953e-08
8.12812e-10
-3.10881e-08
1.03138e-08
-1.03097e-07
9.27835e-08
3.71127e-08
-8.32598e-09
-2.87867e-08
1.05501e-07
-1.29073e-07
2.35716e-08
1.26436e-08
-2.31595e-08
-1.47574e-08
-1.31233e-09
-1.36427e-10
-6.56772e-08
6.74931e-08
2.9596e-08
-3.14119e-08
5.72358e-11
-1.75419e-09
3.84617e-10
1.13065e-09
3.86818e-09
-4.9416e-09
-1.10797e-08
-8.84357e-09
-6.62206e-09
-2.3152e-08
1.61581e-08
-1.55905e-08
7.00739e-09
-1.14571e-07
1.07564e-07
-1.36478e-07
-1.60567e-08
1.52535e-07
9.48479e-09
1.12562e-07
-1.22047e-07
-1.57334e-07
1.77807e-07
-1.09881e-08
-4.18505e-08
3.92036e-08
2.64688e-09
-1.76415e-08
1.02962e-07
-8.53207e-08
3.80289e-08
-3.74278e-08
-6.01065e-10
-8.48442e-10
-1.26767e-08
-3.52193e-08
-5.65653e-09
4.08758e-08
1.11997e-08
1.36071e-07
-1.47271e-07
-5.19082e-08
2.98176e-08
-1.32093e-07
1.54184e-07
9.94884e-08
-1.30768e-08
-1.07776e-07
-2.01706e-09
-4.08929e-07
4.10946e-07
-2.59673e-07
-5.21916e-08
3.11864e-07
1.08585e-08
-7.68658e-08
6.60073e-08
1.06842e-07
-2.62665e-08
3.36173e-08
-1.14192e-07
-4.99564e-08
-1.50101e-08
-3.07308e-08
4.57409e-08
-1.48406e-07
1.39524e-07
-1.02277e-08
-6.66593e-11
1.02943e-08
-3.11323e-08
3.11323e-08
-8.38343e-08
8.75822e-08
-3.74789e-09
-1.45887e-07
3.89394e-08
1.06947e-07
-5.71775e-08
-1.57983e-08
-2.92378e-08
-3.3353e-08
6.25909e-08
3.45075e-08
-1.15397e-09
-3.33535e-08
-1.57487e-08
1.01596e-09
1.47328e-08
-4.40097e-09
4.19606e-08
-3.75596e-08
5.97413e-09
-4.52309e-08
3.92568e-08
-1.1612e-07
1.03841e-07
1.22796e-08
1.15337e-09
-1.85993e-11
-7.7134e-08
7.59992e-08
8.00468e-08
8.5876e-08
-7.80617e-08
-8.78611e-08
6.76784e-08
2.45847e-08
-9.22631e-08
7.20989e-08
8.07431e-08
-8.51635e-08
1.16227e-07
-6.49551e-08
-5.12714e-08
7.56776e-08
5.37802e-09
-8.05368e-08
-5.18831e-10
6.44247e-08
1.56221e-08
-9.03652e-08
8.68225e-09
8.83992e-08
-6.71624e-09
-2.43796e-08
-6.82209e-08
9.26005e-08
1.28265e-07
-8.75116e-08
-4.07532e-08
2.97071e-08
-1.22969e-08
-1.74102e-08
-1.94466e-07
-1.55175e-08
2.09983e-07
3.81254e-09
-3.81254e-09
2.28356e-09
1.94925e-08
-2.17761e-08
-2.40855e-07
2.44965e-07
-4.11035e-09
-2.43638e-08
-1.27906e-08
3.71544e-08
3.45054e-08
1.64334e-09
-3.61488e-08
8.49293e-08
-2.85788e-08
-5.63505e-08
7.92761e-10
3.37127e-08
3.29541e-08
-1.13614e-08
-3.12572e-08
9.66451e-09
3.56349e-08
-3.5373e-08
-2.61928e-10
1.61194e-08
3.7982e-08
-1.60172e-08
-3.80841e-08
-6.63597e-08
7.52984e-08
-8.93864e-09
5.14363e-09
-6.47416e-10
-4.49621e-09
1.96208e-08
-1.96208e-08
3.66424e-08
-9.53228e-08
5.86804e-08
-1.18725e-08
-3.93144e-10
-1.09512e-07
5.02239e-08
-6.01339e-08
9.91001e-09
1.7244e-07
-2.02556e-07
3.01157e-08
2.74231e-08
3.40669e-08
-3.66928e-08
-2.47972e-08
-3.6752e-08
3.41066e-08
2.64537e-09
-2.40033e-08
2.34867e-08
5.16544e-10
2.25463e-08
-7.52938e-08
4.0186e-08
4.31086e-07
-4.71272e-07
-4.63609e-07
4.5036e-07
1.3249e-08
-2.75412e-10
4.1637e-07
-8.42094e-08
3.67459e-08
4.74635e-08
2.73e-07
2.02199e-07
-4.75199e-07
2.38821e-11
-1.09966e-07
1.09943e-07
-4.67238e-08
3.63305e-08
1.03933e-08
9.65534e-08
-9.68288e-08
-2.11754e-08
2.02322e-08
1.6103e-08
-1.51598e-08
-1.10986e-08
-4.05383e-10
1.09494e-07
-7.04595e-09
-1.11497e-07
9.049e-09
3.08664e-08
-5.01435e-08
-2.3792e-07
2.57197e-07
-2.15207e-07
2.46073e-07
-3.42837e-08
-3.02852e-09
3.20058e-08
5.3064e-09
2.37914e-10
-1.99211e-09
-2.48645e-07
-4.38367e-09
1.32358e-08
-2.36915e-09
-1.08666e-08
-1.57487e-08
-1.48068e-09
1.4158e-07
-1.40099e-07
-2.97399e-08
2.43442e-09
2.73054e-08
-2.62155e-08
2.63431e-08
-1.27685e-10
2.81999e-08
-2.85184e-08
5.84109e-08
-1.05004e-08
-4.79105e-08
6.99646e-09
5.73886e-08
-3.64392e-08
1.04378e-08
2.60013e-08
-2.94427e-08
-1.04098e-07
8.05577e-08
2.35404e-08
1.11317e-07
-5.98914e-08
6.48013e-08
5.99113e-08
-9.51214e-08
3.52101e-08
-2.85885e-08
2.95419e-08
-9.53419e-10
-3.18561e-08
-1.80931e-08
1.63051e-08
1.0733e-08
-1.04059e-08
-3.27097e-10
-9.20889e-10
1.16539e-08
-2.91056e-07
3.27639e-07
-3.65831e-08
1.04059e-08
-1.57104e-09
-8.83489e-09
3.7459e-08
-4.84582e-08
1.09993e-08
-1.22249e-09
9.67805e-10
-3.91503e-08
3.94049e-08
-3.96119e-08
-9.01686e-10
4.05136e-08
3.72485e-08
-3.77572e-08
5.08738e-10
-4.63035e-10
-4.81445e-08
2.70025e-09
4.59073e-08
-3.80299e-08
1.34306e-09
3.66868e-08
-6.98994e-09
-4.38898e-08
5.08798e-08
-1.25171e-07
1.2023e-07
4.94096e-09
-2.82765e-08
-9.68946e-08
-1.04678e-07
-7.20848e-09
1.11886e-07
4.56971e-07
4.66025e-07
-3.98206e-07
-5.2479e-07
7.06954e-11
-1.0418e-07
-5.68741e-10
-9.94215e-08
9.94922e-08
-8.57302e-09
-3.64468e-08
1.15511e-08
-1.50617e-08
3.51062e-09
3.49881e-09
3.1373e-10
3.32321e-08
2.18849e-08
-2.24345e-08
-3.26825e-08
-8.02192e-09
-4.64292e-08
5.44512e-08
-1.54141e-08
1.91703e-09
1.34971e-08
-2.2069e-07
2.89684e-07
-6.89941e-08
-5.63723e-09
-2.63799e-08
3.20171e-08
-3.13209e-10
-1.09839e-08
1.15316e-08
-2.34458e-10
1.53797e-08
1.78524e-08
-2.15874e-08
3.69671e-08
3.21069e-09
2.50996e-08
-2.83103e-08
3.74162e-08
-2.1891e-08
2.36169e-09
-2.4589e-08
2.10384e-08
4.45323e-08
-4.18149e-08
-2.37558e-08
3.98473e-08
8.75153e-10
-2.55033e-09
-3.81721e-08
-1.63412e-07
8.56402e-08
7.7772e-08
-4.01672e-08
4.01672e-08
1.04857e-07
-1.09619e-07
4.76231e-09
-2.75505e-08
-6.12748e-08
8.88253e-08
1.10355e-08
1.54335e-08
-2.6469e-08
1.48526e-08
-8.95564e-09
-5.89693e-09
-4.63707e-08
2.50425e-08
-1.94274e-08
-2.69433e-08
1.07128e-08
-1.81015e-07
1.27712e-07
-1.22543e-07
1.75845e-07
3.12956e-08
1.65846e-09
-8.09138e-08
-2.55009e-08
1.06415e-07
2.28293e-07
-1.8538e-08
-2.17702e-07
3.12858e-07
-9.51554e-08
2.67258e-08
1.58621e-08
-4.25879e-08
-3.38228e-08
-6.12031e-09
5.83834e-09
-3.96612e-08
-3.46255e-08
3.59857e-08
-1.36023e-09
5.83618e-08
5.47211e-08
-1.13083e-07
2.52703e-07
-1.16979e-07
-1.35724e-07
1.75353e-08
-2.09982e-08
-6.96938e-08
7.31566e-08
-9.59481e-09
-1.16757e-10
9.71156e-09
-1.13088e-07
-7.99682e-08
1.20218e-07
7.28386e-08
-1.12488e-07
-2.55699e-08
1.38058e-07
1.39611e-08
1.1547e-08
-2.55081e-08
-2.61202e-08
2.21101e-09
2.39092e-08
-9.48056e-09
2.53871e-08
-1.59065e-08
-3.35274e-08
3.28142e-08
4.00437e-08
-3.56841e-08
-4.35959e-09
5.33191e-09
1.36317e-08
-6.33656e-09
-1.26271e-08
1.6883e-08
7.07599e-11
-7.04775e-09
6.97698e-09
-3.55577e-11
-2.68311e-08
2.5873e-08
9.93622e-10
2.94978e-08
-1.58661e-08
-1.86922e-08
1.21345e-08
6.55771e-09
-2.07564e-08
-5.61093e-08
-4.81132e-08
4.49332e-08
4.76828e-08
-4.45028e-08
1.49995e-08
-9.97578e-08
8.47583e-08
9.6725e-08
6.92457e-09
-1.0365e-07
3.41991e-08
-1.03e-09
-3.31691e-08
6.00917e-08
-6.6967e-08
6.87531e-09
1.11628e-07
-3.56595e-08
7.87805e-10
-6.09432e-10
-2.41175e-08
2.39391e-08
1.85433e-07
2.02445e-07
-6.6036e-08
-3.21843e-07
-5.06899e-08
5.52685e-08
-4.57865e-09
-4.64605e-08
4.94925e-08
-3.87446e-08
3.57126e-08
1.79605e-07
1.46729e-08
-4.44363e-09
-1.89834e-07
-8.21091e-09
3.15372e-08
-2.33263e-08
-7.87931e-09
5.5557e-09
1.15905e-09
1.16455e-09
1.68207e-08
2.74102e-09
-1.95617e-08
-1.22585e-07
1.00573e-07
2.20125e-08
-2.27531e-08
4.07612e-08
1.87477e-08
-3.67559e-08
2.37443e-08
-2.53866e-08
1.64233e-09
-6.53287e-08
4.25756e-08
3.42061e-08
-1.54414e-07
-5.99331e-08
1.80141e-07
3.73286e-08
-6.22445e-08
-3.42514e-08
7.15799e-08
2.62941e-10
-8.14226e-09
-6.42199e-09
6.75569e-09
-1.61762e-08
2.16912e-08
1.7542e-08
-2.3057e-08
-5.05942e-08
-4.24913e-09
5.49862e-08
-1.42892e-10
-9.87015e-08
1.19783e-07
-3.19749e-08
1.08935e-08
1.80824e-08
-1.79624e-08
-1.19938e-10
1.64635e-08
-1.82536e-08
-1.02571e-07
2.90454e-07
-1.87883e-07
-7.95992e-08
1.67842e-08
6.28151e-08
4.1835e-08
5.04812e-09
-4.14408e-08
-5.4423e-09
-3.63481e-08
2.82067e-09
1.21638e-07
-3.18022e-08
-8.98361e-08
-3.54048e-09
-2.4057e-08
1.02701e-08
-4.26848e-08
3.24146e-08
-2.13829e-09
3.46634e-08
-1.27033e-10
-3.63827e-08
1.84629e-09
4.35506e-08
-5.33119e-09
-1.02282e-07
1.03436e-07
-1.65559e-08
1.17609e-08
2.2669e-08
-1.7874e-08
-9.80911e-08
1.00666e-07
-3.71553e-08
-7.85446e-08
1.157e-07
-6.01331e-08
8.44701e-08
8.20071e-11
-1.01888e-08
1.11386e-07
-1.01279e-07
2.88422e-08
-2.09211e-08
-7.92113e-09
-1.50366e-08
3.49482e-08
-1.99115e-08
-3.01835e-08
3.76794e-08
3.32861e-08
4.31364e-08
-3.15026e-08
5.39393e-09
-5.65313e-09
7.00745e-08
-6.98153e-08
-5.86893e-08
3.80626e-07
-3.21937e-07
-3.51884e-07
-5.34152e-08
3.4661e-07
-7.16581e-09
-9.09253e-08
-3.68923e-08
3.9622e-09
3.29301e-08
1.3415e-09
-2.50193e-09
5.16565e-09
-4.00523e-09
-4.64331e-08
5.47492e-08
-8.14688e-08
7.31527e-08
3.40354e-08
-8.04685e-08
-2.72587e-08
-3.74741e-08
6.47329e-08
-3.64044e-08
-3.66945e-09
3.70574e-08
9.63193e-08
-4.96508e-08
-4.66685e-08
1.07738e-08
-1.37571e-08
-1.14871e-07
1.17855e-07
-1.52402e-07
2.70432e-07
-1.1803e-07
-6.55129e-08
-4.60378e-08
7.1826e-08
3.97247e-08
8.36669e-09
1.9472e-08
-2.78387e-08
-3.97055e-08
5.84533e-08
-2.72598e-07
-8.2312e-10
8.23117e-10
-1.77625e-09
1.09115e-09
6.85089e-10
5.51832e-09
-3.85496e-09
3.94495e-10
-2.05788e-09
-1.42327e-07
2.94233e-08
1.12904e-07
8.41879e-09
3.1937e-08
-4.03558e-08
-6.48807e-08
-4.82075e-08
7.06123e-09
-7.61942e-09
1.15651e-07
-1.15093e-07
8.28574e-08
5.73731e-08
-6.47188e-08
1.87345e-08
3.54255e-08
-2.25597e-08
-5.92332e-10
-3.40315e-09
6.46671e-08
-6.1264e-08
2.20661e-08
7.43172e-09
8.40861e-09
-8.90218e-09
5.62251e-09
2.05431e-08
-1.74751e-07
3.22903e-07
-1.48153e-07
-2.44785e-08
5.20292e-09
2.16199e-08
-2.34429e-09
4.90064e-08
-9.32853e-08
8.25979e-08
-3.83191e-08
-1.64416e-08
-1.05635e-08
2.70051e-08
-1.24132e-07
6.44972e-08
-8.26918e-08
-1.31923e-08
-2.77413e-07
2.384e-07
5.22056e-08
3.53003e-08
2.40362e-07
-2.75662e-07
-1.05689e-07
6.52981e-08
4.03905e-08
4.71486e-08
1.57211e-08
8.35971e-08
-1.328e-08
-8.60381e-08
5.7187e-08
-7.50442e-08
1.78572e-08
1.41876e-07
-2.44881e-07
1.03004e-07
1.24597e-07
-1.13088e-07
1.30367e-07
5.97058e-08
-6.68622e-08
-2.07694e-08
2.79257e-08
7.0566e-08
2.31254e-08
-9.36914e-08
-7.29081e-08
1.69175e-08
-1.28736e-08
6.88641e-08
-6.23324e-08
-4.78643e-08
7.47222e-08
2.03632e-09
-6.43688e-08
-2.00166e-08
3.8404e-09
-7.70101e-08
8.1156e-08
1.00038e-07
-1.04184e-07
3.78129e-08
-4.83859e-08
1.0573e-08
-1.04436e-09
-7.3728e-09
-3.3838e-08
3.45143e-09
3.03866e-08
1.85021e-08
-5.79542e-09
-1.52745e-08
2.56764e-09
-4.88036e-09
2.33824e-08
1.7033e-08
-1.35329e-08
4.60353e-08
-1.38096e-08
-3.22258e-08
7.89974e-08
-6.20799e-08
1.97402e-08
9.41325e-08
-1.13873e-07
-1.24284e-08
-3.82486e-08
4.11985e-08
-3.6773e-07
-1.54089e-07
5.21819e-07
-1.74405e-07
1.40506e-07
3.38998e-08
-1.21456e-08
5.70734e-08
-4.49278e-08
1.09013e-09
-4.78515e-08
-7.53287e-11
4.68367e-08
-3.07605e-08
9.10156e-08
-6.02965e-08
9.75456e-08
3.57405e-08
-2.31372e-08
-3.02911e-08
6.89731e-09
2.33938e-08
-3.49317e-08
-8.22223e-09
8.87025e-09
-3.70171e-08
3.91994e-08
-7.62005e-10
-1.42031e-09
4.05214e-08
-4.00175e-08
-5.03882e-10
5.07338e-08
-2.38884e-08
-5.00682e-08
2.32227e-08
3.61125e-08
-5.50754e-08
3.85196e-08
5.20622e-08
-4.91669e-08
-2.89532e-09
3.00465e-08
-3.0957e-08
9.10475e-10
-4.60919e-08
-1.5354e-08
1.76618e-08
4.37841e-08
8.37565e-09
-5.62463e-09
-4.9791e-08
-1.15215e-08
-6.51676e-08
-1.28233e-08
7.79909e-08
-4.9794e-08
-1.30403e-08
6.28344e-08
-8.54708e-10
3.89225e-08
-3.80678e-08
5.76406e-08
-3.18888e-08
-2.57518e-08
-8.1184e-08
-4.82092e-08
-5.24233e-08
5.32785e-08
-4.98307e-08
4.89755e-08
9.1206e-08
-1.14649e-08
-7.97411e-08
-7.87935e-08
2.63701e-08
8.94957e-08
-7.27115e-08
-5.69253e-08
4.13443e-08
-6.86777e-08
7.938e-08
-1.31019e-08
7.94625e-08
-6.63606e-08
3.65196e-08
-4.2383e-08
5.86341e-09
-1.12737e-08
1.04607e-08
8.1296e-10
-1.01049e-08
1.01049e-08
-5.79349e-10
-9.01546e-09
-6.73596e-12
-2.96725e-08
3.08332e-08
-1.15388e-09
-1.65817e-08
-9.29313e-08
1.09513e-07
1.18117e-07
-2.33272e-08
-9.47901e-08
1.91869e-08
-1.76521e-07
-1.65404e-08
4.00414e-08
5.8404e-09
-1.63153e-09
-4.20889e-09
-1.17267e-08
-2.11187e-09
5.44828e-09
8.39023e-09
-2.42337e-08
3.00741e-08
-1.59703e-08
-5.70165e-10
2.91429e-09
-9.65835e-08
1.06887e-07
-1.03035e-08
8.82039e-08
-5.97162e-08
-2.84877e-08
-4.97021e-09
4.73987e-09
-2.59851e-08
3.84281e-08
-3.79739e-08
-9.976e-09
9.5218e-09
-1.26452e-09
-1.09098e-09
2.3555e-09
3.53048e-08
7.96722e-09
-4.32721e-08
-4.99723e-10
-3.23399e-10
-3.90329e-08
5.52167e-08
-1.61838e-08
-2.07236e-08
2.75558e-08
-6.83228e-09
-1.8989e-08
5.69744e-09
-1.21861e-08
2.54776e-08
4.41386e-08
-4.70339e-08
-2.10576e-07
1.05823e-07
1.04753e-07
2.89963e-09
3.15534e-08
-3.5906e-08
1.45298e-09
-3.50168e-08
6.30152e-08
-9.34575e-08
3.04423e-08
-2.80067e-08
2.53944e-08
2.61223e-09
-3.20611e-08
5.47664e-09
3.16576e-08
-5.07322e-09
4.0673e-08
1.38932e-07
1.33541e-07
-1.18868e-07
1.16921e-07
-1.50241e-07
3.33197e-08
4.61746e-08
-3.82618e-08
-5.75746e-09
-2.15533e-09
5.33233e-08
-2.35157e-07
1.81833e-07
1.35552e-08
2.66326e-08
-4.01878e-08
3.30672e-08
-1.10741e-08
-2.19931e-08
-3.87721e-09
3.61959e-08
-2.48634e-08
2.10394e-08
-2.10394e-08
-1.07897e-08
6.9125e-09
3.3864e-08
8.83749e-10
-3.47477e-08
4.11429e-07
-7.23521e-10
-4.10705e-07
-4.45289e-08
6.54213e-08
-2.08924e-08
-7.75757e-09
-3.83102e-08
4.60678e-08
-3.90007e-08
3.96619e-08
-9.91664e-08
4.00888e-08
5.90776e-08
-2.52336e-08
2.35742e-08
2.64548e-08
-2.47954e-08
1.7666e-07
1.14649e-09
2.41288e-08
8.5982e-08
-1.10111e-07
-2.01277e-08
-8.39703e-08
-1.60431e-08
1.27142e-10
1.5916e-08
3.7514e-08
8.81263e-10
-3.83953e-08
1.48668e-09
-1.18111e-09
-3.86158e-08
3.09155e-08
-1.561e-08
-2.74129e-08
2.65813e-08
1.51594e-09
7.49545e-08
-5.24637e-09
2.89937e-08
-9.82134e-09
-1.3926e-08
1.56702e-07
1.47352e-08
-1.71437e-07
-1.40844e-08
1.40844e-08
2.06905e-08
4.00256e-10
-2.16701e-08
4.52179e-08
2.27358e-09
-4.39842e-08
-3.50724e-09
-2.77112e-08
1.182e-09
-2.98942e-08
2.18306e-09
-3.3297e-08
1.2118e-09
3.20852e-08
2.30542e-07
1.71749e-07
-3.22777e-07
4.13711e-09
1.02692e-07
-1.06829e-07
1.1692e-07
-1.8751e-08
-9.81688e-08
-1.59075e-09
3.54547e-08
9.83857e-10
6.00538e-08
-8.27786e-09
8.27786e-09
5.20162e-09
-8.28466e-11
-5.11877e-09
-1.5928e-09
1.49691e-08
1.38447e-09
-1.47608e-08
1.29757e-09
2.03936e-08
1.4303e-07
-1.25402e-08
1.09474e-08
-2.56278e-07
2.04842e-07
-8.45291e-08
-1.36428e-10
5.37824e-08
-6.12412e-08
7.45881e-09
-8.78619e-08
6.6483e-08
2.13788e-08
-3.26483e-07
-2.54008e-08
2.54346e-09
-2.04668e-08
-4.90436e-08
5.18754e-08
-8.90307e-08
-3.35037e-07
8.55418e-09
4.23094e-08
-3.97659e-08
9.77894e-08
-3.20311e-08
-6.57583e-08
4.01605e-08
-4.15375e-08
4.14954e-07
7.06314e-11
-4.15025e-07
4.14954e-07
-2.28651e-08
4.86126e-09
-4.69265e-09
2.26964e-08
-3.87156e-08
-8.79337e-08
1.26649e-07
8.13035e-08
2.17382e-09
-4.04787e-09
-7.94295e-08
-1.62624e-07
2.63256e-08
1.38335e-07
-1.40353e-07
-7.32277e-09
-4.40389e-09
5.51191e-08
-3.66087e-08
3.52719e-08
-5.34306e-08
3.22308e-08
-6.30515e-08
6.92228e-08
-6.17126e-09
6.29144e-08
3.04444e-07
-3.67359e-07
-3.11584e-08
8.32936e-09
2.2829e-08
-1.29986e-09
7.63689e-08
-7.5069e-08
5.1022e-08
1.99928e-08
-7.10148e-08
-1.71285e-08
1.53756e-08
7.08576e-10
-8.06302e-08
8.6526e-08
-5.85929e-09
-3.65203e-11
6.66974e-08
1.16471e-08
-7.83446e-08
-2.18038e-08
-2.36336e-09
2.41672e-08
1.95728e-07
-1.13228e-07
-8.24999e-08
-4.36376e-08
4.22193e-08
1.41828e-09
-1.84253e-07
7.02033e-08
1.1405e-07
-3.98836e-08
3.5706e-08
3.85753e-08
-3.43977e-08
-3.76645e-08
1.3186e-08
-6.1605e-08
2.25721e-08
-5.2145e-08
5.41273e-09
4.67323e-08
-1.95605e-08
1.73139e-08
-4.63744e-08
8.18422e-09
3.81902e-08
-3.80331e-08
-4.30558e-09
1.73731e-09
4.06014e-08
-4.80603e-10
-3.83166e-08
7.64145e-10
-1.39807e-07
1.09406e-07
3.04006e-08
-1.66098e-08
5.66605e-10
-1.55119e-07
-9.90268e-08
2.54146e-07
-6.27003e-08
-4.19702e-08
3.51968e-08
6.94737e-08
-1.76896e-09
-2.69549e-08
2.87238e-08
-3.16059e-07
7.43222e-08
3.58298e-07
-1.16561e-07
-8.91347e-08
7.59356e-09
8.15411e-08
1.04565e-08
-1.04565e-08
2.31793e-07
-6.83188e-08
3.77194e-08
9.70118e-08
-4.1307e-07
3.47923e-07
7.59533e-08
-4.23876e-07
-3.97293e-08
-3.02929e-09
4.27586e-08
-1.31045e-07
7.00032e-08
6.10415e-08
-7.4813e-08
8.23294e-08
-1.94924e-08
-2.25588e-09
8.98711e-10
-2.85371e-08
-1.06586e-07
3.17728e-08
-3.25329e-09
3.95864e-09
3.34938e-08
-2.16577e-08
-3.89472e-08
6.06049e-08
6.09415e-08
-3.1815e-09
5.66388e-08
-5.34573e-08
-3.81802e-08
1.2051e-07
-1.25473e-07
-4.37523e-08
-2.42427e-08
2.19868e-08
-1.44965e-07
-1.07068e-08
9.82079e-09
-9.56975e-08
-6.4816e-08
-4.17697e-08
-9.63881e-08
9.03306e-08
6.05752e-09
-1.03986e-08
1.03986e-08
-5.32866e-08
7.33162e-09
5.17933e-08
-9.85071e-08
1.24871e-07
-2.63643e-08
-9.48608e-08
1.60939e-08
-3.89287e-07
5.56479e-08
1.41088e-07
-4.99753e-07
3.58664e-07
-4.52474e-09
-3.15418e-09
3.56152e-10
-7.64422e-10
1.25935e-10
4.26492e-08
-4.35396e-08
-4.07431e-07
1.96625e-09
-6.58677e-08
1.02954e-07
-3.70868e-08
3.1906e-08
-2.68739e-08
-5.03215e-09
-7.84451e-09
-8.44736e-08
-9.65411e-08
-1.14619e-07
9.39984e-08
2.06209e-08
1.32548e-07
-1.61361e-07
2.88133e-08
1.77662e-07
-2.31077e-07
-2.48695e-08
-4.20604e-08
3.74517e-08
2.94782e-08
-3.64613e-08
1.15918e-08
1.10786e-08
4.2116e-08
-4.27568e-08
-2.1502e-07
1.08025e-07
-1.05664e-07
-2.36097e-09
-1.02135e-07
-9.81501e-08
9.64651e-08
1.0382e-07
1.04304e-08
9.33264e-08
-9.1461e-08
-1.22958e-08
-9.96124e-08
1.14942e-07
-1.53299e-08
3.74278e-08
1.4487e-10
-3.75727e-08
-1.29179e-07
-1.068e-08
1.39859e-07
-6.70558e-09
-1.28603e-07
6.12977e-09
-1.00534e-07
-9.93111e-09
9.97848e-08
-1.07239e-07
2.34622e-08
-5.26669e-09
-1.02405e-07
1.31889e-07
1.21429e-07
2.93874e-09
-2.53827e-08
4.81375e-08
-8.11283e-10
-2.53443e-09
-4.47918e-08
3.03819e-08
-2.95941e-08
3.48859e-08
-3.42863e-08
9.67057e-09
3.9373e-09
2.64769e-08
-3.17994e-08
-5.24197e-09
3.70414e-08
-1.2439e-07
-1.89009e-08
1.43291e-07
-1.23387e-07
-2.24861e-09
1.24594e-09
1.23443e-07
9.22373e-09
-8.46657e-09
-1.242e-07
4.41725e-09
1.19026e-07
-1.51957e-07
1.51765e-07
4.60942e-09
-1.42733e-07
1.90852e-08
-1.69671e-08
-2.11814e-09
-1.7417e-08
1.71753e-08
-3.38342e-09
3.62511e-09
-1.4144e-08
3.24502e-09
1.0899e-08
1.41797e-08
-8.92075e-09
-5.25893e-09
2.29105e-08
-2.29105e-08
-1.83504e-09
1.87072e-09
-2.87304e-10
2.74035e-09
1.58261e-08
-1.82792e-08
-1.77043e-08
1.6475e-07
-9.47468e-08
1.51879e-08
-1.19508e-08
-3.23715e-09
1.42345e-07
-8.80427e-09
-3.03535e-08
1.46297e-07
-1.15944e-07
-4.22884e-08
5.26079e-08
-1.424e-08
1.61741e-08
-1.93412e-09
-3.70711e-08
-2.55723e-08
2.36435e-08
-7.65747e-08
1.97898e-08
7.96268e-08
-7.07236e-08
-8.90325e-09
1.5573e-08
1.61087e-07
-6.6238e-08
2.83199e-08
3.79182e-08
4.59195e-08
3.01191e-08
-3.00044e-08
-4.60342e-08
5.68271e-08
4.56585e-08
-1.26842e-07
-2.79262e-08
-9.0266e-10
2.98448e-08
-9.3301e-09
1.28141e-09
2.61683e-09
-2.61684e-09
4.59638e-08
-3.20562e-08
-1.29238e-08
-1.0203e-08
1.9737e-08
-9.53402e-09
8.50168e-08
8.9068e-08
-7.46956e-08
-9.93892e-08
1.05187e-07
1.37124e-08
-1.18899e-07
-2.21052e-08
2.30039e-08
-2.14744e-08
2.188e-08
-4.05618e-10
1.12782e-07
-7.28041e-09
-3.3996e-08
-1.23268e-11
3.29783e-08
1.80824e-08
-1.11594e-08
-1.40977e-07
1.53175e-07
-1.03832e-09
4.56417e-10
3.78898e-08
-4.21914e-10
-3.79243e-08
4.4116e-08
4.07057e-08
-4.75732e-08
-3.91451e-08
5.14911e-09
-2.86389e-08
-3.62562e-08
2.96759e-08
6.9174e-08
-3.05384e-08
9.43935e-08
-5.42331e-08
8.74409e-09
-8.91033e-09
3.23187e-08
-3.21525e-08
-3.73376e-08
-5.0709e-09
6.04203e-09
-3.4681e-08
9.87582e-09
-1.12697e-10
-9.76313e-09
-9.76623e-09
9.76623e-09
-5.65156e-08
8.54858e-09
4.7967e-08
1.34608e-09
-2.09078e-08
-3.64413e-09
-8.19446e-08
8.55888e-08
3.7468e-10
-5.8612e-08
5.76567e-08
5.8061e-10
-5.52807e-08
-4.87901e-09
-3.32379e-09
4.02194e-09
-2.0406e-09
-1.28319e-09
3.80704e-08
2.4705e-09
-4.05409e-08
1.09871e-07
2.69133e-09
-1.06369e-08
4.09198e-10
2.65247e-09
-3.90569e-08
-1.42519e-07
1.47327e-07
-1.68221e-07
3.02176e-08
3.44023e-08
-2.80787e-08
-3.65411e-08
2.46922e-08
1.79671e-09
-2.64889e-08
-1.42784e-08
-1.60127e-08
3.92644e-08
2.86126e-08
-6.7877e-08
-9.58255e-09
3.55839e-08
8.42734e-09
8.82339e-08
-9.12833e-08
-4.12314e-07
4.1172e-07
5.9357e-10
-2.43838e-08
2.43715e-08
-1.2653e-07
1.64057e-07
-3.75278e-08
1.92427e-10
3.78424e-08
-5.26099e-07
1.10932e-07
4.15167e-07
-1.08155e-07
-9.59535e-09
5.13197e-09
9.56694e-08
-3.9005e-08
3.9005e-08
4.25188e-07
-6.68907e-08
5.40746e-09
-1.43596e-08
8.95218e-09
-1.55065e-08
1.36715e-08
-1.07626e-08
2.39245e-08
-1.31619e-08
-2.79138e-08
5.45541e-09
2.58849e-08
-3.42646e-09
2.08275e-08
1.09261e-08
-3.17536e-08
-2.19775e-08
-5.93639e-09
-3.81929e-09
8.42299e-09
-4.6037e-09
-7.16541e-09
-4.32132e-08
6.74101e-09
1.42992e-08
9.70174e-08
2.31773e-07
2.94094e-07
-5.68168e-08
-2.37277e-07
1.95735e-07
-3.35963e-07
1.40228e-07
-9.28389e-08
-1.35288e-07
7.30075e-08
1.53513e-07
-1.31037e-07
5.98134e-08
-8.22893e-08
-1.02677e-07
1.16302e-07
-1.36245e-08
-8.04397e-08
-2.22376e-08
-3.1987e-07
1.28204e-07
1.91666e-07
2.85863e-09
1.86473e-09
-5.71969e-09
-2.61465e-09
4.69373e-09
7.49595e-09
-1.66395e-08
-6.39907e-08
3.67284e-08
-3.32789e-08
2.84874e-08
-2.92792e-08
1.50472e-08
1.4232e-08
-3.17135e-08
3.06276e-08
-5.86958e-10
1.6729e-09
3.02793e-07
-9.75826e-08
1.03308e-07
-2.00602e-08
-1.21963e-07
-2.25715e-08
-7.85212e-08
1.01093e-07
1.09655e-09
-1.27768e-07
1.26672e-07
1.11006e-07
1.93512e-08
-1.30357e-07
3.56819e-08
-3.69044e-08
-3.49447e-09
-3.04881e-08
3.39825e-08
9.97494e-08
2.90276e-07
-3.90026e-07
1.43987e-08
2.13418e-08
-1.21972e-08
1.90231e-08
-6.82587e-09
4.10276e-08
4.1475e-09
-1.65339e-08
-3.87468e-08
-5.30105e-07
3.34034e-07
1.9607e-07
8.51819e-09
2.73364e-08
-9.20173e-09
-2.66529e-08
1.82639e-10
7.43334e-08
-7.45161e-08
1.54307e-08
2.46812e-08
2.65523e-09
2.3578e-08
-4.45614e-08
4.32478e-08
5.56413e-11
2.79499e-08
-2.05788e-08
-7.37105e-09
1.88751e-08
7.09215e-09
-2.46212e-08
-1.11186e-07
1.04962e-07
-6.64879e-08
-7.10871e-08
4.34835e-07
-3.63748e-07
-3.49428e-08
4.54617e-09
-3.25602e-09
3.36526e-08
-3.70512e-08
2.80637e-09
-9.05366e-09
6.24729e-09
-2.46261e-07
-4.36498e-07
2.42062e-07
4.40697e-07
-2.94354e-09
-3.19992e-08
1.31922e-07
-3.78183e-07
1.56379e-08
-1.14339e-07
3.81228e-07
-2.49306e-07
3.34776e-07
1.46201e-07
3.83497e-08
1.81749e-09
-8.38764e-08
1.5121e-08
6.87554e-08
2.40293e-07
-1.06969e-07
9.20648e-08
-2.25389e-07
8.50407e-08
-9.01305e-09
-3.22203e-09
-1.9643e-08
-3.90025e-08
-3.98036e-10
1.31822e-08
-1.02022e-08
3.53538e-08
8.95505e-09
3.55936e-08
2.41122e-08
6.66203e-09
2.63159e-08
-3.0989e-08
-1.98889e-09
8.86919e-09
4.31301e-09
-2.11219e-08
2.55959e-08
-4.47393e-09
-4.09472e-08
4.69097e-09
3.12897e-11
2.67762e-08
-6.93345e-10
-2.61141e-08
9.08746e-09
-9.05618e-09
-6.02887e-08
5.55792e-09
4.57301e-08
9.00073e-09
-3.16253e-08
5.45533e-10
3.1319e-08
-1.24813e-08
1.19007e-08
3.33947e-08
1.02773e-08
5.18471e-08
-4.08563e-08
-7.13558e-10
-1.05486e-08
-8.52205e-08
6.7383e-09
2.30693e-08
-2.30693e-08
5.7405e-08
-2.12071e-08
2.08939e-08
4.08789e-07
-4.08789e-07
7.91446e-10
-4.04658e-10
3.74261e-08
1.81849e-07
1.6618e-08
-1.98467e-07
-3.52922e-08
3.73954e-08
-2.10324e-09
5.68781e-08
-5.38557e-08
-7.42765e-08
7.12542e-08
2.59593e-08
-2.81999e-08
2.24056e-09
-9.85033e-08
1.76409e-07
-7.79056e-08
-8.07304e-09
6.66203e-08
1.06965e-08
-3.87687e-08
1.16712e-09
-1.40086e-09
1.36408e-07
-3.00879e-07
1.64471e-07
-3.10923e-08
3.10923e-08
3.83123e-08
-3.37662e-08
-5.3288e-10
-3.79135e-08
3.84464e-08
-6.52342e-09
6.34015e-08
-4.12018e-08
2.98404e-08
9.84618e-09
-7.89091e-08
6.90629e-08
-2.44034e-08
9.05002e-09
1.53534e-08
-1.09268e-07
4.24634e-09
-4.24635e-09
-2.58436e-08
-3.02118e-08
5.60553e-08
2.80767e-07
-9.78197e-08
-1.82947e-07
3.02341e-08
-5.23969e-08
2.21629e-08
-7.59578e-08
7.49606e-08
-5.93519e-10
2.10157e-08
-2.08898e-08
3.19366e-09
-3.28675e-09
1.59952e-08
3.91239e-08
-1.99236e-07
4.01229e-07
-2.01993e-07
1.38261e-08
1.20836e-10
-1.3947e-08
-1.47831e-09
1.52393e-09
3.48391e-08
-3.6363e-08
7.21047e-10
2.6759e-08
-2.67018e-08
-2.12366e-11
3.4943e-08
-3.49218e-08
-1.11886e-07
1.65209e-07
5.41485e-09
-3.34215e-08
8.43464e-08
-7.89525e-08
1.35338e-07
-9.84177e-08
-1.48806e-07
-2.59422e-10
-6.72657e-08
6.1872e-08
-3.13918e-08
3.457e-09
-7.91474e-09
4.45773e-09
2.05769e-09
-1.24229e-09
-8.15397e-10
-1.35726e-07
-3.8812e-10
-1.00165e-07
2.35903e-08
6.8611e-08
3.53328e-08
-6.38551e-08
1.86046e-08
6.95717e-10
-1.00117e-07
6.99692e-09
-6.87891e-08
6.17921e-08
-1.36282e-08
1.12331e-08
-9.72172e-08
-7.47424e-08
-9.10048e-09
6.54936e-08
-3.70061e-08
2.91553e-08
-5.76428e-08
-4.16238e-07
4.17334e-07
-3.1554e-08
8.1938e-08
2.25689e-08
-1.04507e-07
1.84526e-09
-2.57107e-08
2.38655e-08
-8.57594e-08
2.47223e-08
-3.12086e-08
-6.33451e-08
-2.24143e-08
-8.83161e-09
3.04696e-08
1.30938e-08
-3.47318e-08
-3.15336e-08
-3.18116e-08
4.99061e-09
-3.10634e-08
2.60728e-08
2.59921e-08
2.74585e-08
-5.34506e-08
-6.0755e-09
-2.84037e-08
3.04163e-08
-2.01256e-09
-8.57971e-08
1.05587e-07
1.97312e-08
3.26522e-07
-1.69671e-08
8.8341e-08
-9.79763e-08
-3.14166e-08
4.10519e-08