/*--------------------------------*- C++ -*----------------------------------*\
| =========                 |                                                 |
| \\      /  F ield         | OpenFOAM: The Open Source CFD Toolbox           |
|  \\    /   O peration     | Version:  v2006                                 |
|   \\  /    A nd           | Website:  www.openfoam.com                      |
|    \\/     M anipulation  |                                                 |
\*---------------------------------------------------------------------------*/
FoamFile
{
    version     2.0;
    format      ascii;
    class       volVectorField;
    location    "0.03";
    object      U;
}
// * * * * * * * * * * * * * * * * * * * * * * * * * * * * * * * * * * * * * //

dimensions      [0 1 -1 0 0 0 0];


internalField   nonuniform List<vector> 
3596
(
(0.0010967 0.00185553 0.154818)
(-0.00373696 -0.00233493 0.170222)
(-0.00161519 -0.000658446 0.169806)
(0.0330727 0.00320683 0.179408)
(0.0358699 0.00166735 0.162211)
(0.0431676 0.00326453 0.171358)
(-0.0715864 -0.00116465 0.184792)
(0.0093557 -0.00083686 -0.147725)
(0.00366842 0.00473318 0.164495)
(-0.0535753 -0.00144113 -0.123554)
(-0.769207 -0.272615 17.5364)
(0.264741 0.0135936 0.321871)
(-0.257545 0.132246 -12.0534)
(-2.38053 -0.0238106 -62.8861)
(0.00432518 -0.00727613 -0.0446997)
(-0.0397229 -0.00226987 0.171852)
(-0.879188 0.223324 -48.8309)
(-0.618177 0.00479798 -12.5062)
(-0.211372 -0.0100346 0.265551)
(0.786712 0.00884458 2.14791)
(0.00125781 0.000101016 0.0149483)
(-0.122128 -0.00187181 0.118485)
(0.121278 -0.0134926 0.821139)
(0.0151802 0.00120303 0.207026)
(-0.00498154 -0.00364833 0.0382263)
(-0.6991 -0.0202624 -11.5038)
(0.0382896 0.00310902 0.140123)
(-0.47614 0.191991 -11.1639)
(-0.755942 -0.266477 18.3306)
(-0.815133 -0.0569716 -11.2766)
(0.000652088 -0.00116425 0.159727)
(-0.613106 0.00810847 -12.5567)
(-0.816206 0.0526397 -15.1388)
(-0.000831244 -0.00738244 0.088999)
(-0.000827922 -0.00427323 0.154649)
(0.00651726 0.00709968 0.0515381)
(0.00852406 -0.0025887 0.160514)
(0.0132608 -0.00102903 0.177879)
(0.00332271 0.001514 0.124807)
(-0.0131215 -0.000667762 0.175124)
(-0.0281579 -0.000899628 0.135592)
(0.0023678 -0.00144858 0.14751)
(0.0362702 0.00074687 -0.0527439)
(0.000257455 -0.00900398 0.129849)
(0.0307304 -0.00215675 -0.0824335)
(0.00397451 -0.00246692 0.147683)
(-0.00394215 -0.00285858 -0.0395186)
(0.0834996 0.00958235 -0.0710265)
(0.0232722 0.0028714 -0.0597367)
(0.00411653 0.000475651 0.0520972)
(0.0143287 0.00417739 0.133697)
(-0.000634798 0.00411263 0.0865271)
(0.00457603 -0.00269492 0.0267569)
(0.0118475 -0.00754729 0.138258)
(-0.106272 -0.00571586 -0.197837)
(-0.24378 -0.00316009 0.625722)
(-0.334103 0.000313969 -0.355073)
(0.240377 0.00408482 2.50806)
(-0.00376082 0.00233194 -0.0813837)
(-0.38524 -0.0552742 0.635606)
(-0.00501941 -0.00188551 0.165219)
(-0.288818 -0.0210643 0.357263)
(-0.160485 -0.0325548 1.18717)
(-0.40769 0.148122 -13.1955)
(-0.812915 -0.00865451 -13.3621)
(0.000787107 0.00082197 0.208926)
(-0.0017581 -0.00163313 -0.022808)
(0.0600491 0.00431385 0.211785)
(0.421479 0.00209824 2.03399)
(-0.00984787 0.0021682 -0.0511603)
(0.394606 0.0148418 0.103622)
(0.302002 0.012658 1.48221)
(0.437982 0.00929152 2.45857)
(-2.5138 -0.0231132 -68.4149)
(-0.972063 0.223598 -55.6714)
(0.950437 -0.236026 7.41853)
(-0.268696 -0.0979211 14.3956)
(-0.00673631 -0.00513598 14.6283)
(-0.395721 -0.0510769 0.716584)
(-0.881192 0.227083 -50.2701)
(0.0252474 0.00185524 0.0243475)
(-0.345829 -0.00172643 -0.125291)
(0.0709205 0.0124029 -0.0287203)
(-0.00465645 -0.000513148 -0.00487248)
(0.0769225 0.00583317 -0.112776)
(-0.341747 0.023331 1.21778)
(0.438217 -0.00268067 1.51682)
(-0.367764 0.0954159 -13.5654)
(-0.394731 0.154254 -12.9663)
(0.000412567 -0.00157752 0.142419)
(-0.0770542 -0.00122741 12.3438)
(-0.326946 0.0180252 0.25704)
(-0.198145 -0.0789227 0.0772018)
(0.00897931 -0.0236195 -0.417462)
(0.00127918 9.84809e-05 0.0768359)
(-0.00927238 -0.000689382 0.189062)
(0.0288756 0.00206855 -0.00127568)
(-0.00240522 -0.00684624 0.0890658)
(0.000515246 0.00564166 0.0889219)
(0.000985682 0.00159773 0.059669)
(-0.0979507 -0.00219082 0.236148)
(0.00515597 -0.000135555 -0.114261)
(0.00365211 0.00113276 0.0343854)
(0.0196741 -0.01359 2.39068)
(0.156599 0.00435921 0.272278)
(-0.00162544 0.00130471 0.191961)
(0.00138292 -0.00105323 0.0802527)
(-0.00514516 -0.00647396 0.132262)
(-0.271756 0.00411724 -0.19736)
(0.0139597 0.00128453 0.130052)
(-0.000836021 0.00217102 0.0617274)
(0.00519433 -0.00678851 0.135943)
(0.0081273 0.001667 0.156647)
(-0.00332108 0.00114104 0.16592)
(-0.00131269 -0.00308369 0.126508)
(-0.00205498 -0.00413274 0.128224)
(0.000592557 -0.0029562 0.146598)
(0.000245074 0.00278188 0.168557)
(0.00173412 -0.00164221 0.202349)
(0.0283322 0.00264757 -0.0963338)
(0.0199111 0.00212096 -0.101474)
(0.0361832 -0.0177119 16.379)
(0.00438396 0.00290197 0.022062)
(0.000338397 -0.00144331 0.211009)
(0.175147 0.0134218 -0.0244292)
(-0.00695511 -0.00151237 0.2134)
(0.0234651 0.000735267 -0.106452)
(-0.00101492 -0.00229323 -0.0555428)
(0.0888189 0.00459961 0.113781)
(-0.00776267 0.00416145 -0.0878209)
(-0.00812966 0.00261391 -0.0827078)
(0.0308152 0.00181607 -0.0991314)
(0.00797946 0.000938011 -0.126305)
(-0.105851 -0.00293283 -0.0233634)
(-0.0918747 -0.0128999 18.1797)
(-0.894001 -0.293538 14.7292)
(-0.0514797 -0.0162601 17.5884)
(-0.473379 -0.0657096 13.901)
(-0.0103246 -0.000853629 0.118593)
(-0.0101987 4.29129e-05 0.202824)
(0.00474456 -0.00402349 0.0332305)
(0.00455681 -0.00229444 -0.0270159)
(-0.608206 -0.00905089 0.205135)
(0.0768018 -0.0349394 21.6415)
(-0.215585 -0.0171044 0.213492)
(-0.396034 -0.0929813 17.1746)
(-1.9904 0.119715 -49.5334)
(-0.693798 -0.0150936 -11.791)
(-0.24158 0.126121 -12.4961)
(-0.106134 -0.118793 -0.0382781)
(-0.385889 0.026592 0.4976)
(-0.0858657 -0.0061624 0.167414)
(-0.296337 0.0256071 0.644236)
(0.000494989 0.0018822 0.0560366)
(-0.00518397 0.00406303 0.0399853)
(-0.829328 -0.285271 15.7961)
(-0.161057 -0.00264647 0.118341)
(-0.432871 -0.061699 15.9186)
(-0.0336545 -0.00266175 0.15688)
(0.0245961 0.000748192 0.117271)
(0.00451817 -0.00617352 0.0425951)
(-0.00860298 -0.000540041 0.157651)
(-0.0106733 2.42007e-05 0.162506)
(-0.0955162 -0.00162273 0.202737)
(0.00557821 0.00931929 0.0829665)
(0.00230471 0.00416255 0.198649)
(-0.0022161 0.000341979 0.204582)
(-0.00311966 -0.00152643 0.200701)
(-0.0358428 -0.00312511 0.198789)
(0.00208493 0.00228734 0.093252)
(-0.00234156 0.0029034 0.197708)
(-0.00307667 0.00341717 0.198066)
(0.0639 0.00147907 0.172468)
(-0.295435 -0.0230895 0.66024)
(-0.280395 -0.00394256 -0.00361945)
(-0.132117 -0.0138534 0.683148)
(-0.00227447 -0.0010768 -0.00384395)
(-0.0724207 -0.0179556 -0.0347161)
(-0.177859 -0.00281981 0.268755)
(0.0982709 0.00415788 -0.000259006)
(0.00508117 0.00628254 0.0427295)
(0.0766591 0.00212707 0.15415)
(0.00239673 0.00203035 0.0556925)
(-0.720489 -0.0497376 0.549405)
(0.00567641 0.00288013 0.0505879)
(-0.220295 -0.0266928 -0.384313)
(-0.0064412 0.000154823 0.190559)
(-0.00328524 0.00207538 -0.0692981)
(0.00487133 0.00414271 0.0393938)
(-0.277411 -0.0467865 0.515217)
(0.792326 -0.232404 9.05721)
(-0.342772 -0.0980232 16.161)
(-0.768672 -0.272042 17.9178)
(-0.675063 -0.0259486 1.22488)
(-0.554115 -0.0418858 0.0396101)
(-0.699388 0.0667732 -11.0777)
(-0.810622 0.0295996 11.4058)
(-0.385112 -0.0444397 0.56155)
(-0.400942 -0.0546197 0.729788)
(-2.12589 0.127003 -59.0931)
(-0.554908 0.0347847 -11.1012)
(-0.149634 -0.00224251 0.466302)
(0.384709 0.0216809 0.87839)
(-0.843242 -0.283961 11.9082)
(0.763218 -0.239637 6.51358)
(-0.0687359 0.00149188 -0.000437338)
(0.748585 -0.234469 7.55953)
(0.00283064 0.00113147 0.21525)
(-0.834821 -0.0636276 -11.0766)
(-0.844328 0.0540898 -14.9198)
(-0.0079185 8.19592e-05 0.0607575)
(-0.00564791 0.00326168 -0.126857)
(-0.240683 0.131614 -11.6527)
(0.00534544 -0.000775453 -0.0485517)
(-0.00496215 -0.00339505 0.0375046)
(-0.00797811 -0.00034333 0.201528)
(0.0127003 0.00112165 0.0728053)
(0.0502875 0.000524481 0.0814192)
(-0.000782477 0.00127851 0.057793)
(-0.0144831 -0.000933218 0.152896)
(-0.0123568 0.000211931 0.152778)
(-0.0167285 -0.000117668 0.139083)
(-0.0156998 0.000830402 0.144183)
(-0.0122194 -0.000473748 0.19898)
(-0.036724 -0.00413368 0.196757)
(-0.0211926 -0.000424112 0.187514)
(-3.0321e-05 0.00345105 0.0106137)
(0.0867392 0.0109097 -0.0817889)
(0.00479503 0.0070333 0.0453875)
(0.0010404 0.00264467 0.0591437)
(-0.680648 -0.0156338 -11.6326)
(0.00152598 0.00196197 0.0599513)
(0.0705322 0.00712121 0.0629825)
(0.00376373 -0.00663746 0.12951)
(0.0006075 0.00111919 0.159719)
(0.000442496 0.000357293 0.156055)
(-0.00242202 -0.00211909 0.132299)
(-0.00150712 -0.000394416 0.143091)
(-0.00355098 -0.000756835 0.139)
(0.00863138 0.0017082 0.21203)
(0.0104592 0.00213963 0.212491)
(0.00896098 -0.000874704 0.152067)
(-0.15378 -0.0045787 0.57799)
(0.00470212 -0.00193062 0.138657)
(0.00519614 0.000283979 0.164851)
(-0.000587727 -0.000838948 0.146928)
(-0.10513 -0.00302113 -0.0871898)
(-0.00109528 -0.00127217 -0.00270824)
(0.123111 0.00195455 -0.0476788)
(-0.851714 0.0482818 -16.0082)
(-0.0532149 0.000170614 -0.04615)
(-0.328088 -0.0524959 0.679509)
(-0.153367 -0.0103599 0.162138)
(-0.0835693 -0.00571592 0.142691)
(0.113629 -0.00104307 -0.0314467)
(0.131642 0.000686388 -0.0156527)
(0.0049876 0.000131198 0.0667368)
(0.164216 0.014396 -0.00722528)
(0.00239186 -0.00467274 0.0939414)
(0.0792577 -0.000477116 -0.048353)
(0.0916899 0.00646812 -0.0298951)
(0.00191324 -0.00195692 0.0717324)
(-0.211223 -0.00271142 0.215517)
(-0.00351837 -0.00326349 0.0320482)
(0.00659037 -0.00234813 0.12345)
(0.284651 0.0248711 0.246771)
(-0.00570715 0.00345994 0.0429247)
(-0.105313 -0.0787755 12.2444)
(-1.0479 -0.24548 8.16447)
(-0.393254 0.119076 -13.4438)
(-0.32788 0.0888301 -13.9872)
(-0.883743 0.0412914 -16.2141)
(-0.215765 -0.0173375 0.232405)
(-0.698614 -0.0446144 0.298523)
(0.0593992 0.00100509 0.203109)
(-0.763526 -0.261891 19.1235)
(-0.120523 -0.00886081 0.311524)
(0.0217344 0.0023532 0.128773)
(-0.0170364 0.000632675 0.145526)
(-0.0160763 0.00030108 0.146118)
(0.00178072 0.000768118 0.148903)
(-0.0249902 -0.00199874 0.190194)
(-0.140106 -0.0030586 0.239557)
(0.051809 0.00408598 0.154405)
(-0.00525536 0.00575564 0.043342)
(0.0706174 0.00143559 0.259996)
(0.0303883 0.0024609 0.215459)
(0.228239 0.0119024 -0.335166)
(0.228034 0.00728007 -0.107001)
(0.314262 -0.0012225 -0.197537)
(-0.00430788 -0.00143266 0.145392)
(-0.0136817 -0.00124955 0.12253)
(-0.140596 -0.00894092 -0.0888915)
(-0.120949 -0.00276775 -0.0789611)
(0.00214742 0.00239422 -0.166524)
(7.22688e-05 -0.00508529 0.0918184)
(-0.148827 -0.0108809 -0.0757096)
(-0.101151 -0.00502686 -0.0509345)
(-0.762977 0.0423397 -15.522)
(0.117757 0.00537582 0.151792)
(-0.00472965 8.64401e-05 0.212012)
(-0.660901 -0.00616817 -12.195)
(-0.00395718 0.000163599 0.112758)
(-0.80269 -0.282331 16.2619)
(-0.779726 -0.0461014 -11.7464)
(0.156537 0.0103614 -0.108579)
(-0.322182 0.024568 0.69047)
(-0.00420366 0.000389769 0.176045)
(-0.0991066 -0.000764235 0.0335339)
(-0.0114998 -0.000777637 0.242064)
(-0.0736856 -0.000541172 0.0596856)
(-0.00897498 0.000958392 -0.152628)
(-0.108556 -0.00741736 0.121373)
(-0.162299 -0.0112633 0.105245)
(0.0974004 0.00253507 0.0902547)
(-0.00476463 0.00608356 0.0404974)
(0.117723 0.00813144 0.0967172)
(-0.766178 -0.038983 -11.9212)
(0.107077 -0.00025852 0.104625)
(0.115136 0.000763622 0.113873)
(-0.0110074 0.00267935 -0.169026)
(-0.00252953 0.00382136 -0.165955)
(-0.146908 -0.0132516 -0.27297)
(0.00172179 -0.00232062 0.0768641)
(-0.406947 0.151444 -12.0131)
(-0.00556806 0.00685939 0.0432022)
(0.00474299 -0.00617569 0.0432494)
(-0.229674 -0.0146561 0.279136)
(-0.232077 -0.0157454 0.113703)
(-0.0125962 -0.00283143 0.160824)
(-0.00339409 -0.00319188 0.149223)
(0.00553159 0.0022093 0.178986)
(0.0836607 0.000528139 0.0844055)
(0.082592 0.0105499 0.0257701)
(0.00441953 -0.00112443 0.0454046)
(0.00640287 -0.00725159 0.137722)
(0.00172519 0.00213229 0.160628)
(0.00597962 -0.00110147 0.122873)
(-0.0430128 -0.00031241 0.130791)
(0.00741976 -0.00133845 0.149284)
(0.100404 0.00230046 0.274195)
(0.13877 0.000689247 0.280145)
(0.845221 -0.239209 7.97755)
(0.225835 0.0198595 -0.193965)
(0.435464 0.0427959 -0.16536)
(-0.303058 0.0351429 0.700079)
(-0.610029 0.00817414 -13.1463)
(0.00205846 -0.00189911 0.131563)
(-0.167342 -0.0599402 -0.0320483)
(-0.810057 -0.0311299 -12.1423)
(0.0101068 -0.00211385 0.167494)
(-0.00284157 0.000406528 0.147287)
(-0.0100561 0.00344148 -0.0739289)
(0.705534 0.00985125 1.58364)
(0.591663 0.0352308 1.61453)
(1.02767 0.0585604 1.85398)
(0.0127093 -0.00179752 0.140819)
(0.107026 0.000719052 0.220929)
(0.0245191 0.00191554 0.210463)
(-0.0856198 -0.00606282 0.237652)
(-0.0353296 -0.0013698 0.181802)
(0.0154131 0.00122363 0.0492105)
(0.0778661 0.006033 0.0861617)
(-0.325069 -0.0453809 0.443903)
(0.00579821 -0.00322987 -0.0472681)
(-0.0050513 -0.000348084 -0.00781803)
(0.0397658 0.00132512 0.00284737)
(-0.0831477 -0.00561124 0.204415)
(0.0243591 -0.000141319 0.154894)
(0.0770835 5.33465e-05 0.269357)
(0.0175507 0.000670551 0.213497)
(0.242482 0.0121301 0.322107)
(0.323298 0.0200534 0.0971922)
(-0.123504 -0.00786668 -0.0304864)
(-0.139398 -0.00291876 0.188887)
(-0.130072 -0.0120206 -0.0580459)
(-0.133388 -0.007882 -0.0479578)
(-0.108203 -0.00663241 -0.0615366)
(-0.11206 -0.00417983 -0.0448156)
(-0.140883 -0.00312285 0.273066)
(-0.0316212 0.000220597 0.110735)
(-0.140353 -0.00284459 0.0213441)
(-0.067246 -0.00126397 0.132266)
(-0.0730201 -0.00140595 0.199022)
(-0.20287 -0.00762965 0.295419)
(-0.163844 -0.0114499 0.268008)
(-0.171486 -0.00641921 0.909513)
(-0.160161 -0.00872056 0.261703)
(-0.00503142 -0.000522522 0.196547)
(-0.00840811 -0.000135669 0.193238)
(0.124896 0.00774955 0.388544)
(0.150579 0.00893374 0.354294)
(0.408979 0.0199588 -0.112799)
(-0.012542 0.0161468 1.00761)
(-0.00863543 -0.00193422 0.191996)
(0.703029 0.0515632 1.52928)
(0.653035 0.0516325 1.8197)
(-0.00745536 -0.000427116 0.193438)
(-0.177592 -0.00330842 -0.298391)
(-0.00634327 0.00017728 0.210705)
(0.0148747 0.00206557 0.164645)
(0.00678684 -0.00390157 -0.0452809)
(0.223683 -0.00531415 -0.415638)
(-0.319049 -0.0339403 -13.9744)
(-0.250899 0.231828 7.61423)
(-0.385849 -0.0531977 12.3763)
(-0.171846 0.0148166 0.960417)
(-0.0110423 -0.00130552 0.188286)
(0.0375524 0.000759291 0.208194)
(0.229419 0.00454284 2.37583)
(0.391306 0.023548 2.24511)
(-0.138428 -0.0110196 0.494523)
(-0.0606679 -0.000869611 0.224135)
(-0.00346316 -0.00038573 0.17374)
(-0.00155338 0.00186407 0.159634)
(0.0550943 0.00244372 -0.0429521)
(0.100644 0.00272373 -0.0520998)
(0.153639 0.0165679 -0.0461383)
(-0.288216 -0.00704447 0.685412)
(0.121598 -0.00224796 0.00120919)
(-0.0530777 -0.000852354 0.0648651)
(-0.0136493 -0.000430116 0.061487)
(-0.00894222 0.000263795 0.0811569)
(-0.0570076 -0.00409586 0.0845359)
(-0.512437 -0.0322463 0.546346)
(-0.440016 -0.0173823 0.47959)
(-0.0370759 -0.00306773 0.129)
(-0.00188068 0.00031616 0.167037)
(0.0165963 0.000364131 0.113639)
(-0.0166113 -0.00136882 0.152854)
(-0.000591425 -0.00041965 0.167293)
(-0.00296259 0.00119485 0.168395)
(0.026571 0.00105816 0.120995)
(-0.204565 -0.00263475 0.141406)
(0.0124907 0.00177645 0.158379)
(-0.0337533 -0.00263789 0.13545)
(-0.192112 -0.00697275 0.121708)
(-0.193544 -0.0150431 0.131114)
(-0.104655 -0.00241563 0.191292)
(-0.188785 -0.0021964 0.109535)
(-0.182342 -0.0109102 0.0801612)
(0.553397 0.0406711 2.31788)
(-0.174588 -0.00607317 0.0883217)
(0.0210804 0.000236212 0.0892244)
(0.0183609 0.00276899 -0.0230867)
(-0.000763168 0.00214483 0.0602064)
(0.00395488 0.00318283 0.0354626)
(-0.00383533 0.00172666 0.056717)
(0.00199025 -0.00215065 0.0677767)
(0.0338176 0.00254484 0.190248)
(-0.0101227 0.00036904 0.20538)
(-0.473997 -0.101994 17.7876)
(-0.10377 -0.00338858 2.45228)
(-0.241798 -0.022497 1.64903)
(-0.22186 -0.0176028 2.41561)
(-0.412076 -0.0272121 1.4411)
(-0.146582 -0.0175714 2.31638)
(-0.344973 -0.0836424 19.9187)
(0.0181672 0.000751226 0.194481)
(-0.00452171 -6.33853e-05 0.19738)
(0.0447589 0.00062621 0.0856947)
(-0.212892 -0.0118909 -0.0192074)
(-0.00447209 -0.00126749 -0.0415892)
(-0.282984 -0.02282 0.0966705)
(-0.0018166 -0.00138761 -0.0635799)
(-0.0172412 -0.000332547 0.169947)
(-0.0279134 -0.000657774 0.101716)
(-0.0737685 -0.00269867 0.170026)
(-0.000397809 0.00224259 0.152349)
(-0.024768 -0.000569968 0.253455)
(0.000351842 0.0050112 0.0872436)
(0.000412993 0.000657082 0.0236758)
(0.0749892 0.00639218 0.170253)
(-0.00534393 0.00396155 0.0367482)
(-0.0234331 -0.00106978 0.0973819)
(-0.0139782 -0.000985285 0.238161)
(-0.0047819 -0.000338294 0.228945)
(-0.0383971 -0.00151272 0.225868)
(-0.154933 -0.00782726 0.179252)
(-0.0496322 -0.00360886 0.229786)
(-0.0438376 -0.000473092 0.148845)
(-0.125414 -0.00869398 0.150885)
(-0.10977 -0.0062387 0.116392)
(-0.482449 -0.00679182 8.83547)
(0.00285638 -0.000218226 -0.00819849)
(-0.0981421 -0.0019523 0.112715)
(0.00501378 0.0035869 0.0311614)
(-1.97099 0.120845 -47.9949)
(0.979188 0.0256749 1.97739)
(0.0164694 0.0011774 0.172445)
(0.0221728 -0.00163849 0.168032)
(0.0957281 0.00731395 0.198902)
(-0.0497789 -0.00179571 0.160072)
(-0.916104 -0.295755 13.5633)
(0.0720461 0.00561024 0.207684)
(-0.0104904 -0.000431347 0.20164)
(0.00335732 0.00316781 0.057534)
(0.0176771 0.00040698 0.162689)
(0.0139944 0.0019893 0.17023)
(0.0168682 2.62348e-05 0.168848)
(-0.543939 0.0316484 -10.1025)
(-0.057835 -0.00457663 0.129282)
(-0.00021477 0.00194744 0.0901536)
(-0.083821 -0.00383256 0.0738258)
(-0.160555 -0.0111569 0.234956)
(-0.0048702 -0.00336311 0.0382925)
(0.000462249 -0.00293193 0.0889885)
(0.000916158 0.00155822 0.154551)
(0.00736859 0.000950665 0.0740524)
(0.00452284 -2.8942e-05 0.0755838)
(0.00450927 -1.8753e-05 0.096523)
(-0.223343 -0.00593644 0.63186)
(0.00786794 0.00172352 0.20919)
(0.0314839 0.000529086 0.211041)
(0.00266504 0.00110252 0.0462797)
(-0.243905 -0.0109312 1.15175)
(0.00781623 -0.00338934 -0.046922)
(-0.000928832 0.000534212 0.00695681)
(-0.0198691 -0.00141796 -0.0302438)
(-0.151884 -0.0158372 -0.258906)
(-0.237115 -0.0130119 0.648231)
(-0.0300374 0.000821828 -0.0407057)
(-0.180261 -0.00352391 0.678929)
(-0.185194 -0.00231788 0.651072)
(-0.00621043 -0.0043174 -0.0358599)
(-0.0954756 -0.000845273 2.48025)
(0.134584 0.0110758 0.232731)
(-0.639571 0.00696263 -12.618)
(-0.417673 -0.0705134 16.3514)
(0.113249 0.00204421 0.261657)
(-0.515022 0.0469634 -10.8287)
(-0.253749 0.128673 -12.3667)
(0.117865 0.00874708 0.19536)
(0.108336 0.0074367 0.197776)
(-0.891188 0.225687 -53.5921)
(-2.53822 -0.02481 -67.7204)
(0.0604311 0.00135445 0.0373731)
(-0.157499 -0.00243629 0.0926634)
(0.00263914 0.00154166 0.0745487)
(-0.391179 -0.104188 17.5743)
(0.681753 -0.245051 12.5102)
(-0.241108 -0.0252579 2.36009)
(-0.183306 0.00358192 2.42361)
(-0.0737251 -0.00742996 2.52623)
(-0.000467279 -0.000405925 0.165483)
(-0.0133334 0.000778065 0.294113)
(-0.0611314 -0.00441616 0.139761)
(0.871473 -0.227562 5.24663)
(0.913542 0.0339744 -0.0883767)
(0.00385607 0.00138257 -0.0709149)
(-0.397899 0.16367 -13.0198)
(-0.208954 -0.0143273 0.040852)
(0.00470377 0.000204951 -0.00173162)
(-0.220835 -0.0137106 0.243178)
(-0.00382306 0.000279942 0.148023)
(-0.11469 -0.00793251 0.227805)
(-0.0433634 -0.00320674 0.16828)
(-0.0316178 -0.000261263 0.112598)
(-0.0197722 -0.000174656 0.169007)
(-0.00430571 -0.000303269 0.177343)
(0.0764101 0.00658888 0.0751042)
(0.0521811 0.000633429 0.0413389)
(0.00789177 -0.000912828 -0.00537948)
(0.00526131 -0.000680806 -0.0118874)
(0.0365551 0.00244659 0.214015)
(0.00496967 0.00669982 0.0442483)
(-0.37448 -0.0519131 0.567681)
(0.203102 0.00589432 0.173185)
(0.00406825 0.00114757 0.0530704)
(-0.279787 -0.0201708 0.43162)
(-0.00406551 -0.00381843 0.170098)
(-0.00687876 0.00373159 0.0528668)
(-0.763611 -0.0351726 -11.9994)
(-0.279029 -0.0117583 0.416106)
(-0.40187 -0.0566702 0.758241)
(0.00182641 0.000417689 0.159122)
(0.0512504 0.00387468 0.23241)
(0.0645349 0.00374967 0.222281)
(-0.00252878 -0.000625915 0.0779842)
(0.0691838 0.00198024 0.221603)
(-0.00246564 0.00149313 0.114868)
(-0.0226417 -0.00152358 0.160223)
(0.00360974 -0.0105068 0.136123)
(0.00357924 -0.00611062 0.138319)
(0.0604476 0.00168717 0.222998)
(0.0601251 0.00245282 0.237487)
(-0.000881552 0.000239292 0.0863687)
(0.0665806 0.00396991 0.232481)
(0.0174766 0.00137089 0.187394)
(0.0805265 0.00098881 0.225795)
(0.00207153 -0.00395765 0.174936)
(-0.00279503 -0.00219176 -0.0303058)
(-0.0202601 -0.00152612 0.139025)
(0.0312295 0.00230228 0.207952)
(0.0335252 0.00217072 0.206343)
(-0.397588 -0.0450899 0.552974)
(-0.363921 0.0146665 0.621308)
(-0.20945 -0.00257278 0.582434)
(-0.304383 -0.00627811 2.19785)
(0.00131022 0.000285196 -0.00465434)
(0.00499338 -0.000804558 0.00173107)
(-2.02066 0.118097 -52.6384)
(-0.17046 -0.0027213 0.206959)
(-0.0860962 -0.0109293 2.25356)
(-0.859204 0.0306487 8.55139)
(-0.199054 -0.0105844 0.219784)
(-0.167412 -0.0116751 0.152455)
(0.028105 0.0024129 0.231698)
(-0.819479 0.0474672 -15.891)
(-0.022801 -0.00100065 0.119685)
(-0.0251347 -0.000635106 0.118557)
(-0.0204404 -0.000808839 0.128725)
(-0.0171438 -8.86106e-05 0.254092)
(0.0044091 -0.00378457 0.147037)
(0.0109929 -0.00286872 0.204675)
(0.0216568 0.00242616 0.178711)
(0.0266237 0.00195051 0.199709)
(-0.00404877 0.00446851 0.0318309)
(0.00398624 0.000145378 0.213503)
(0.00688898 -0.000279044 0.213207)
(0.00463675 0.00032129 0.215523)
(0.00823191 0.000145465 0.215228)
(-0.816353 -0.0248647 -12.4812)
(0.00314993 0.000238918 0.214217)
(0.00889262 0.00121021 0.214141)
(-0.024174 -0.000367746 0.122633)
(0.00115989 -0.00142266 0.0761184)
(0.169441 0.0144515 -0.0850035)
(0.0605217 0.00240069 0.0201351)
(0.0188778 0.00127227 -0.0785529)
(0.0408476 0.000672301 -0.00661737)
(0.00350102 0.000163656 0.209898)
(0.00613802 0.000273226 0.21154)
(0.0156682 0.000298344 0.21896)
(0.0125912 0.000302114 0.216528)
(0.0140371 0.00139029 0.21364)
(0.0169757 0.00164543 0.214434)
(0.00358654 -0.000462523 -0.0172119)
(0.0326917 0.00314373 -0.26591)
(0.0400269 0.00177977 -0.165593)
(0.0728349 0.00888913 -0.219012)
(0.00506785 0.00409901 0.0392041)
(0.057487 -0.00174447 -0.190171)
(0.0130991 -0.0105481 -0.314735)
(0.0551715 -0.00167642 -0.30437)
(0.044655 0.00379641 0.239701)
(-0.0679168 -0.000720755 -0.0739767)
(-0.00543455 -0.000126333 0.223531)
(-0.0115486 -0.00168863 0.220619)
(-0.0154322 -0.00307095 0.229774)
(-0.146606 -0.009128 -0.123215)
(-0.402645 0.0123704 -0.122317)
(0.0634995 0.00236663 0.200119)
(-0.00613734 -5.88433e-05 0.194132)
(-0.444128 -0.101382 17.2267)
(0.843912 0.0628686 2.17877)
(0.0465135 -0.0129206 1.4991)
(0.249403 0.00900163 2.51853)
(-0.171663 -0.00301092 0.0788257)
(0.00110651 1.29701e-06 0.0763438)
(-0.0964365 -0.00267655 0.118709)
(0.00148172 -0.00198585 -0.0223659)
(-0.297157 -0.0180097 1.30134)
(0.0195597 -0.00154615 -0.124117)
(0.41412 0.0081213 1.19256)
(-0.428661 -0.0911753 18.8884)
(-0.00403178 -0.000123062 0.0711454)
(0.0502124 0.000842003 0.0564748)
(-0.00800371 -0.000334108 0.213994)
(-0.00536469 -0.000627121 0.103505)
(0.00432612 0.00409946 0.0381885)
(0.722687 -0.194345 14.6313)
(0.00703627 -0.00172319 0.139475)
(0.00174672 0.000579751 0.158617)
(-0.00696671 -0.000525848 0.103635)
(-0.630469 -0.0193821 0.389784)
(0.0739954 0.00594443 0.17719)
(0.100598 0.00232649 0.182403)
(-0.224445 -0.00512153 0.0311944)
(-0.609508 -0.0253984 0.109923)
(-0.69042 -0.0446975 0.464171)
(0.000675073 0.00190503 0.0747363)
(0.00611518 0.00467785 0.0454622)
(-0.11017 -0.00778733 0.0839309)
(-0.121545 -0.00843807 0.130256)
(-0.118333 -0.00198679 0.0943518)
(0.00460076 0.00167217 0.0348465)
(-0.102799 -0.00678933 0.0919592)
(0.00601964 -0.00606592 -0.0475533)
(0.00169529 -0.00234233 -0.0608154)
(-0.00393972 -0.00506249 0.130625)
(0.793899 -0.247745 8.41358)
(0.00473171 0.00564516 0.0433462)
(0.0119126 -0.00110037 0.140837)
(-0.212972 -0.0169137 0.248094)
(-0.0286468 -0.00104973 0.0749657)
(-0.0131595 -0.0001707 0.091901)
(-0.051047 -0.000766867 0.0755093)
(-0.0266162 -0.000416386 0.169221)
(-0.0136536 3.81647e-05 0.140967)
(0.00268795 -0.00118687 0.142096)
(-2.31941 0.118955 -62.1633)
(-0.00707548 0.000112861 0.0924268)
(-0.0606439 -0.0041976 0.212366)
(0.00458985 -0.00726322 0.133467)
(-0.134053 -0.00217481 0.530471)
(0.00262186 0.000235326 0.208667)
(-0.116818 -0.00640032 0.199623)
(-0.00458439 -0.00328547 0.0359614)
(-0.255393 -0.00357416 0.430383)
(-0.154619 -0.00461817 -0.175068)
(0.0759621 0.000457191 -0.18328)
(0.164419 0.0180872 -0.278836)
(0.128431 0.010012 -0.363046)
(-0.0474902 -0.00058664 0.0943412)
(0.181792 0.0110128 -0.417729)
(-0.00168176 -0.000773679 -0.204432)
(-0.00514352 0.000407551 0.145993)
(-0.0419955 -0.00368085 0.192089)
(-0.201671 -0.00447867 0.285511)
(-0.0790924 -0.000316839 0.285656)
(-0.274041 -0.0109735 0.370178)
(-0.317657 0.0242876 0.654651)
(-0.122989 -0.116809 -0.0141498)
(-0.177558 -0.0125423 0.221318)
(-0.158682 -0.0108823 0.207442)
(-0.0540119 -0.00162258 0.26217)
(0.0641967 0.000988475 0.00396159)
(0.0296243 -4.29368e-05 0.00165911)
(0.0327943 0.00400936 -0.0303121)
(-0.349942 0.1003 -13.5788)
(0.0295141 -0.00163058 0.146174)
(-0.0396551 -0.000239612 0.124647)
(0.000222228 -0.000355788 0.130028)
(-0.280766 0.0170871 0.55488)
(-0.141753 -0.00778822 0.0878866)
(-0.0945346 -0.00679444 0.193164)
(0.74313 -0.251198 11.5199)
(0.0262662 0.000722746 0.245594)
(0.000177163 0.000168183 0.146072)
(-0.0154048 -0.000514439 0.104985)
(-0.062591 -0.00372568 0.284376)
(0.114769 -0.000667645 0.014929)
(0.0420617 -0.000168177 -0.140186)
(0.0154821 0.00149302 0.00239672)
(-0.101287 -0.00663031 0.098925)
(0.00262154 -0.000227832 0.457927)
(-0.0792964 -0.00395511 0.104194)
(0.646858 0.0420061 0.821083)
(-0.0887706 -0.000926605 0.105239)
(-0.0805499 -0.00471322 0.0973516)
(-0.088738 -0.000471754 0.0990244)
(-0.0645959 -0.00273263 0.0633269)
(-0.0192686 -0.00117916 0.125979)
(-0.0450426 -0.00112762 0.107902)
(-0.112691 -0.00651822 0.136731)
(-0.158389 -0.00431525 0.0539042)
(-0.187656 -0.00410205 0.432569)
(0.00372589 -0.00172041 0.113208)
(-0.187362 -0.0134541 0.288916)
(-0.00296237 0.00221352 0.0152066)
(-0.037075 0.00081489 0.282545)
(0.00265898 -0.000644844 0.116169)
(-0.0412815 -0.00166085 0.295864)
(-0.242236 0.122966 -12.6199)
(-0.0582846 -0.000937389 0.318383)
(-0.071401 -0.00382154 0.312017)
(0.00483472 -0.0059776 0.0377121)
(0.0370287 0.00121446 0.124754)
(-0.0441782 0.000274801 0.349734)
(0.478106 0.00581695 1.03929)
(-0.060508 -0.00129722 0.341681)
(0.0458822 0.00274702 0.0408787)
(0.0120939 0.00205992 0.123457)
(0.0210401 0.000658243 -0.0461887)
(-0.498256 -0.0128156 0.0778121)
(0.348941 0.0213572 -0.305304)
(-0.0570525 -0.00465322 0.0159484)
(-0.012202 -0.000246434 -0.0331188)
(0.0955731 0.00739202 -0.427165)
(-0.664495 -0.00334916 0.587668)
(0.0027153 -0.000437229 0.0903736)
(-0.00570066 0.00805486 0.0526305)
(-0.0465313 -0.040431 0.434402)
(-0.0070769 0.00376165 0.0550194)
(-0.00243295 -0.00635759 0.0846866)
(-0.00166672 0.000385473 0.146792)
(0.100712 -0.0245792 0.739841)
(0.290688 -0.105827 0.646455)
(0.00575795 0.0043655 0.0435038)
(0.00147427 -0.00773221 0.140941)
(-0.00640901 0.00292541 0.0421565)
(0.12943 -0.0645585 0.373754)
(-0.0951434 -0.0016685 0.14497)
(-2.46893 -0.0230622 -65.6904)
(0.0105575 0.00185221 0.166848)
(0.0691692 0.00217709 0.32637)
(-0.00545896 -0.000396795 0.12295)
(-2.49683e-05 0.00465774 0.159388)
(0.00519822 0.00661183 0.04315)
(0.176652 0.00503085 0.43512)
(0.00178795 0.000187248 0.169103)
(0.00982862 0.00156627 0.125557)
(0.08056 -0.000301186 0.432915)
(-0.00537772 0.00344684 0.0400363)
(0.00283673 0.000842603 0.125487)
(-0.60091 -0.0427969 0.920316)
(0.00206811 0.00201436 0.135529)
(-0.686251 -0.0272317 0.449707)
(0.00707693 0.000639344 0.128284)
(-0.029846 0.00118846 2.25334)
(-0.336079 -0.0944119 13.9232)
(-0.0854676 -0.00519247 0.198832)
(0.0059536 0.00458805 -0.048493)
(-0.0987555 -0.00142173 0.164492)
(-0.197072 -0.0731223 0.014591)
(-0.0307747 -0.0008663 0.153745)
(0.00354886 -0.000689842 0.0817481)
(0.00165132 0.00139116 -0.00249895)
(0.0202974 0.00298412 -0.0137914)
(-0.220456 -0.00875793 2.36722)
(-0.011358 -0.00337243 0.336433)
(-0.0268648 0.000223743 -0.0103048)
(-0.0344391 -0.00151286 -0.0049486)
(0.00831737 -0.00218103 0.147962)
(0.00266716 -0.0009319 0.0849461)
(0.00708793 -0.000772253 0.159109)
(-0.0480748 -0.0039624 0.220893)
(-0.00833375 0.00139696 0.0534097)
(0.000826174 7.3895e-05 0.158121)
(-0.0422738 -0.00168493 0.213728)
(0.00351547 0.00890033 0.0900052)
(0.00342338 0.00336693 0.0576428)
(-0.00129473 1.0239e-05 -0.14958)
(-0.00104056 -0.00189322 -0.0711329)
(-0.0529306 -0.00346082 0.217467)
(-0.0473669 -0.00111421 0.208778)
(0.0678305 0.00146436 0.195811)
(0.0826539 0.00302304 0.190199)
(0.00277502 0.000138419 -0.0102505)
(0.0068298 0.000445149 0.173947)
(0.00972011 -0.00168935 0.0663852)
(0.0271738 0.00185871 0.195105)
(-0.139221 -0.00477381 0.195148)
(-0.196934 -0.00671271 0.169519)
(-2.00659 0.118332 -51.0869)
(0.0796916 0.00134355 0.195189)
(0.0606347 0.00492148 0.185647)
(-0.0894498 -0.00572195 -0.0358806)
(-0.061654 -0.00315834 0.181066)
(-0.0559856 -0.00157784 0.175395)
(-0.0475176 -0.00136446 0.117861)
(-0.0504332 -0.000725539 0.17735)
(-0.0351938 -0.000477042 0.116655)
(-0.0393369 -4.54338e-05 0.168227)
(-0.00560332 0.0033616 0.0419224)
(-0.0118037 -0.00125579 0.161143)
(-0.0341721 -0.00187909 0.093896)
(0.0567908 0.00436727 0.194571)
(0.0585626 0.00434825 0.190767)
(-0.232095 -0.0135843 0.6125)
(-0.000717308 -0.000859617 -0.0156409)
(-0.0188789 0.000173177 0.197952)
(0.0452659 -0.00130264 -0.117427)
(-0.330493 -0.0492676 0.511758)
(-0.0256586 -0.01079 1.08053)
(-0.216031 -0.0167212 0.164165)
(-0.13674 -0.00265294 0.147585)
(0.00130249 -0.00171412 0.0549066)
(0.0047466 -0.00608285 0.0431667)
(0.00149567 -0.00182672 0.055257)
(0.00139 0.00197147 0.077023)
(-0.000798879 0.00450546 0.0875199)
(0.00318136 -0.00123872 0.0155462)
(0.00465248 -0.00201456 0.0140249)
(0.00545409 -0.00378201 0.0239724)
(0.00837829 -0.00397155 0.0304262)
(0.00190388 0.000478505 0.0106751)
(-0.202058 -0.0100983 0.155231)
(0.00559085 0.00424607 0.041476)