/*--------------------------------*- C++ -*----------------------------------*\
| =========                 |                                                 |
| \\      /  F ield         | OpenFOAM: The Open Source CFD Toolbox           |
|  \\    /   O peration     | Version:  v2012                                 |
|   \\  /    A nd           | Website:  www.openfoam.com                      |
|    \\/     M anipulation  |                                                 |
\*---------------------------------------------------------------------------*/
FoamFile
{
    version     2.0;
    format      ascii;
    class       surfaceScalarField;
    location    "0.85";
    object      alphaPhi0.water;
}
// * * * * * * * * * * * * * * * * * * * * * * * * * * * * * * * * * * * * * //

dimensions      [0 3 -1 0 0 0 0];
oriented        oriented;


internalField   nonuniform List<scalar> 
8135
(
-8.91533e-110
-1.12098e-129
-4.86183e-117
-5.76004e-264
-5.33848e-127
-3.47963e-116
0
7.40466e-263
-2.20643e-266
0
0
0
0
0
0
0
0
0
0
0
0
0
0
0
0
0
0
0
0
0
0
0
0
0
0
0
0
0
0
0
0
0
0
0
0
0
0
0
0
0
0
0
0
0
0
0
0
0
0
0
0
0
-2.28355e-130
-1.36101e-153
-6.38477e-130
-2.17726e-240
-2.05048e-153
-9.67287e-129
0
1.8576e-239
-1.66229e-251
0
0
0
0
0
0
0
0
0
0
0
0
0
0
0
0
0
0
0
0
0
0
0
0
0
0
0
0
0
0
0
0
0
0
0
0
0
0
0
0
0
0
0
0
0
0
0
0
0
0
0
0
0
-1.52754e-156
-1.05429e-153
-4.47903e-158
-1.15899e-238
-2.05198e-153
-4.32853e-160
0
7.51692e-238
-1.05616e-249
0
0
0
0
0
0
0
0
0
0
0
0
0
0
0
0
0
0
0
0
0
0
0
0
0
0
0
0
0
0
0
0
0
0
0
0
0
0
0
0
0
0
0
0
0
0
0
0
0
0
0
0
0
-8.23179e-154
-4.12223e-161
-2.35281e-158
-2.53889e-237
-6.83325e-161
-2.02395e-157
0
1.33626e-236
-2.48351e-248
0
0
0
0
0
0
0
0
0
0
0
0
0
0
0
0
0
0
0
0
0
0
0
0
0
0
0
0
0
0
0
0
0
0
0
0
0
0
0
0
0
0
0
0
0
0
0
0
0
0
0
0
0
-3.16036e-161
-3.64647e-180
-1.34742e-164
-3.24792e-236
-5.11817e-180
-6.81587e-164
0
1.444e-235
-3.24396e-247
0
0
0
0
0
0
0
0
0
0
0
0
0
0
0
0
0
0
0
0
0
0
0
0
0
0
0
0
0
0
0
0
0
0
0
0
0
0
0
0
0
0
0
0
0
0
0
0
0
0
0
0
0
-2.73317e-180
-3.81995e-183
-1.59125e-185
-2.83043e-235
-4.70036e-183
-7.04543e-185
0
1.09223e-234
-2.81626e-246
0
0
0
0
0
0
0
0
0
0
0
0
0
0
0
0
0
0
0
0
0
0
0
0
0
0
0
0
0
0
0
0
0
0
0
0
0
0
0
0
0
0
0
0
0
0
0
0
0
0
0
0
0
-2.89454e-183
-3.09726e-187
-2.95473e-187
-1.83418e-234
-8.08171e-188
-1.1942e-186
0
6.26429e-234
-1.79907e-245
0
0
0
0
0
0
0
0
0
0
0
0
0
0
0
0
0
0
0
0
0
0
0
0
0
0
0
0
0
0
0
0
0
0
0
0
0
0
0
0
0
0
0
0
0
0
0
0
0
0
0
1.4822e-323
0
-5.72887e-188
-2.7236e-187
-4.83792e-192
-9.35285e-234
-9.81121e-204
-1.75926e-191
0
2.86904e-233
-9.0205e-245
0
0
0
0
0
0
0
0
0
0
0
0
0
0
0
0
0
0
0
0
0
0
0
0
0
0
0
0
0
0
0
0
0
0
0
0
0
0
0
0
0
0
0
0
0
0
0
0
-4.94066e-324
4.94066e-324
0
2.07014e-321
0
-7.99448e-204
-3.22053e-187
-7.90722e-195
-3.90423e-233
-6.46557e-206
-8.67725e-208
0
1.08818e-232
-3.70359e-244
0
0
0
0
0
0
0
0
0
0
0
0
0
0
0
0
0
0
0
0
0
0
0
0
0
0
0
0
0
0
0
0
0
0
0
0
0
0
0
0
0
0
0
0
0
0
0
0
-4.29837e-322
6.7687e-322
0
2.15986e-319
0
-6.05162e-206
-3.88111e-187
-9.76527e-195
-1.3737e-232
-1.03188e-207
-1.64135e-214
0
3.51132e-232
-1.28165e-243
0
0
0
0
0
0
0
0
0
0
0
0
0
0
0
0
0
0
0
0
0
0
0
0
0
0
0
0
0
0
0
0
0
0
0
0
0
0
0
0
0
0
0
0
0
-2.2233e-322
2.96439e-322
0
-4.48859e-320
7.15259e-320
0
2.02898e-317
0
-1.10957e-207
-4.77206e-187
-1.22727e-194
-4.16639e-232
-1.62476e-209
-1.20467e-216
0
9.84167e-232
-3.81826e-243
0
0
0
0
0
0
0
0
0
0
0
0
0
0
0
0
0
0
0
0
0
0
0
0
0
0
0
0
0
0
0
0
0
0
0
0
0
0
0
0
0
0
-1.5316e-322
1.87745e-322
0
-2.33989e-320
3.13732e-320
0
-4.28007e-318
6.85722e-318
0
1.74962e-315
0
-2.00924e-209
-5.99311e-187
-1.57085e-194
-1.10879e-231
-2.4586e-211
-9.81001e-219
0
2.43594e-231
-9.95973e-243
0
0
0
0
0
0
0
0
0
0
0
0
0
0
0
0
0
0
0
0
0
0
0
0
0
0
0
0
0
0
0
0
0
0
0
0
0
0
0
-1.4822e-322
1.77864e-322
0
-1.62893e-320
2.04889e-320
0
-2.27411e-318
3.05727e-318
0
-3.77109e-316
6.06745e-316
0
1.40521e-313
-8.39912e-323
-3.50363e-211
-7.69628e-187
-2.05012e-194
-2.62675e-231
-3.49932e-213
-9.40684e-221
0
5.39621e-231
-2.3072e-242
0
0
0
0
0
0
0
0
0
0
0
0
0
0
0
0
0
0
0
0
0
0
0
0
0
0
0
0
0
0
0
0
0
-4.94066e-324
4.94066e-324
0
-1.92686e-322
2.2727e-322
0
-1.58002e-320
1.91994e-320
0
-1.6081e-318
2.02462e-318
0
-2.05312e-316
2.76583e-316
0
-3.11103e-314
5.02217e-314
-1.4822e-323
1.06381e-311
-5.82997e-321
-5.76396e-213
-1.01179e-186
-2.73191e-194
-5.60571e-231
-4.6073e-215
-1.06781e-222
0
1.08182e-230
-4.80479e-242
0
0
0
0
0
0
0
0
0
0
0
0
0
0
0
0
0
0
0
0
0
0
0
0
0
0
0
0
0
0
-4.94066e-324
9.88131e-324
0
-3.40905e-322
4.00193e-322
0
-2.09681e-320
2.49009e-320
0
-1.5818e-318
1.92184e-318
0
-1.483e-316
1.8684e-316
0
-1.7431e-314
2.35184e-314
-9.88131e-324
-2.42973e-312
3.93256e-312
-9.93072e-322
7.66781e-310
-3.46839e-319
-8.80845e-215
-1.36328e-186
-3.7223e-194
-1.08847e-230
-5.56988e-217
-1.33673e-224
0
1.98113e-230
-9.09011e-242
0
0
0
0
0
0
0
0
0
0
0
0
0
0
0
0
0
0
0
0
0
0
0
0
0
0
0
-1.97626e-323
2.47033e-323
0
-7.90505e-322
9.09081e-322
0
-3.72476e-320
4.34827e-320
0
-2.12774e-318
2.52493e-318
0
-1.48786e-316
1.80732e-316
0
-1.29227e-314
1.62877e-314
0
-1.4062e-312
1.89946e-312
-5.82997e-322
-1.81345e-310
2.94098e-310
-6.15211e-320
5.3075e-308
-1.8771e-317
-1.24277e-216
-1.88491e-186
-5.19287e-194
-1.9393e-230
-6.26913e-219
-1.69417e-226
0
3.34041e-230
-1.57636e-241
0
0
0
0
0
0
0
0
0
0
0
0
0
0
0
0
0
0
0
0
0
-4.94066e-324
4.94066e-324
0
-7.90505e-323
8.39912e-323
0
-2.36657e-321
2.6976e-321
0
-8.70692e-320
1.00221e-319
0
-3.83396e-318
4.46985e-318
0
-2.04065e-316
2.41957e-316
0
-1.32894e-314
1.61371e-314
-4.94066e-324
-1.07438e-312
1.35439e-312
-4.44659e-323
-1.08758e-310
1.47025e-310
-4.26823e-320
-1.30397e-308
2.11792e-308
-3.73805e-318
3.55437e-306
-9.52461e-316
-1.64399e-218
-2.67758e-186
-7.4274e-194
-3.19352e-230
-6.98102e-221
-2.08337e-228
0
5.2211e-230
-2.52491e-241
0
0
0
0
0
0
0
0
0
0
0
0
0
0
0
0
0
0
-1.97626e-323
1.97626e-323
0
-3.7549e-322
4.19956e-322
0
-9.1501e-321
1.03161e-320
0
-2.64473e-319
3.00743e-319
0
-9.1014e-318
1.04584e-317
0
-3.75085e-316
4.36721e-316
0
-1.86768e-314
2.21246e-314
-9.88131e-324
-1.13736e-312
1.38042e-312
-3.50787e-322
-8.59408e-311
1.08339e-310
-1.50196e-321
-8.12702e-309
1.09923e-308
-3.14662e-318
-9.09767e-307
1.47929e-306
-2.34598e-316
2.3182e-304
-4.83676e-314
-2.17096e-220
-3.91276e-186
-1.09061e-193
-4.89111e-230
-8.7634e-223
-2.54882e-230
0
7.60937e-230
-3.75983e-241
0
0
0
0
0
0
0
0
0
0
0
0
-9.88131e-324
9.88131e-324
0
-1.4822e-322
1.58101e-322
0
-2.35175e-321
2.60867e-321
0
-4.52515e-320
5.05182e-320
0
-1.03519e-318
1.16424e-318
0
-2.81193e-317
3.19078e-317
0
-9.09153e-316
1.0429e-315
0
-3.5189e-314
4.09153e-314
-2.47033e-323
-1.645e-312
1.94672e-312
-8.10268e-322
-9.40087e-311
1.14029e-310
-2.99947e-320
-6.66326e-309
8.39833e-309
-4.34481e-320
-5.90795e-307
7.99302e-307
-2.34627e-316
-6.19781e-305
1.00855e-304
-1.55374e-314
1.48118e-302
-2.57104e-312
-3.26912e-222
-5.8894e-186
-1.64614e-193
-7.00523e-230
-1.44211e-224
-3.46508e-232
0
1.03938e-229
-5.23412e-241
0
0
0
-4.94066e-324
4.94066e-324
0
-1.4822e-323
1.97626e-323
0
-1.43279e-322
1.58101e-322
0
-1.48714e-321
1.63042e-321
0
-1.88041e-320
2.06816e-320
0
-2.86227e-319
3.16508e-319
0
-5.19786e-318
5.78531e-318
0
-1.12143e-316
1.258e-316
0
-2.87173e-315
3.2516e-315
0
-8.75007e-314
1.00193e-313
-8.39912e-323
-3.19059e-312
3.70447e-312
-2.19859e-321
-1.40464e-310
1.66048e-310
-7.3102e-320
-7.5569e-309
9.15972e-309
-2.52478e-318
-5.0404e-307
6.35077e-307
-1.95225e-318
-4.20373e-305
5.68771e-305
-1.76037e-314
-4.14626e-303
6.75045e-303
-1.08715e-312
9.32059e-301
-1.51539e-310
-6.55008e-224
-9.14251e-186
-2.5574e-193
-9.42718e-230
-3.45135e-226
-6.10405e-234
-3.45846e-323
1.33654e-229
-6.84502e-241
-9.38725e-323
9.88131e-323
0
-4.10074e-322
4.44659e-322
0
-2.50491e-321
2.71242e-321
0
-1.97379e-320
2.14128e-320
0
-1.93827e-319
2.11174e-319
0
-2.32225e-318
2.5429e-318
0
-3.3459e-317
3.68608e-317
0
-5.748e-316
6.37768e-316
0
-1.17267e-314
1.31201e-314
-1.4822e-323
-2.83861e-313
3.20697e-313
-1.77864e-322
-8.17323e-312
9.34148e-312
-8.36453e-321
-2.81536e-310
3.2639e-310
-2.05176e-319
-1.17049e-308
1.38208e-308
-6.43523e-318
-5.94483e-307
7.19984e-307
-2.1015e-316
-3.74191e-305
4.7125e-305
-1.49351e-316
-2.94392e-303
3.98273e-303
-1.3181e-312
-2.73795e-301
4.45878e-301
-7.80062e-311
5.80443e-299
-9.63501e-309
-1.94669e-225
-1.46565e-185
-4.09479e-193
-1.19702e-229
-1.44763e-227
-1.53142e-235
-5.18275e-321
1.6243e-229
-8.445e-241
-1.41846e-320
1.50147e-320
0
-5.99944e-320
6.39173e-320
0
-3.48074e-319
3.72906e-319
0
-2.60772e-318
2.80897e-318
0
-2.43383e-317
2.63642e-317
0
-2.76839e-316
3.01738e-316
0
-3.78418e-315
4.15298e-315
-9.88131e-324
-6.1645e-314
6.81791e-314
-9.88131e-323
-1.19209e-312
1.33014e-312
-1.33398e-321
-2.73432e-311
3.08208e-311
-1.76184e-320
-7.45787e-310
8.50756e-310
-7.98983e-319
-2.4328e-308
2.81596e-308
-1.85632e-317
-9.57544e-307
1.12924e-306
-5.51174e-316
-4.60265e-305
5.56922e-305
-1.70995e-314
-2.7409e-303
3.44981e-303
-1.4285e-314
-2.03939e-301
2.75828e-301
-9.76425e-311
-1.79306e-299
2.92021e-299
-5.6404e-309
3.59329e-297
-6.46617e-307
-1.04182e-226
-2.42957e-185
-6.76627e-193
-1.43941e-229
-1.44374e-228
-6.10374e-237
-7.79364e-319
1.87212e-229
-9.86601e-241
-2.07116e-318
2.1439e-318
0
-8.41551e-318
8.8404e-318
0
-4.66839e-317
4.95171e-317
0
-3.33566e-316
3.56617e-316
0
-2.96469e-315
3.19258e-315
-4.94066e-324
-3.2082e-314
3.48013e-314
-7.41098e-323
-4.16931e-313
4.55769e-313
-9.93072e-322
-6.45419e-312
7.11482e-312
-1.05335e-320
-1.18562e-310
1.31923e-310
-1.37088e-319
-2.58249e-309
2.90409e-309
-1.71283e-318
-6.68707e-308
7.61318e-308
-7.47726e-317
-2.07033e-306
2.39248e-306
-1.64862e-315
-7.73179e-305
9.10616e-305
-4.64468e-314
-3.52523e-303
4.26126e-303
-1.3731e-312
-1.99064e-301
2.50374e-301
-1.1938e-312
-1.40399e-299
1.89815e-299
-7.13524e-309
-1.16966e-297
1.90474e-297
-4.03077e-307
2.22044e-295
-4.33652e-305
-1.37872e-227
-4.16979e-185
-1.15543e-192
-1.64453e-229
-3.29743e-229
-4.92352e-238
-1.13485e-316
2.0526e-229
-1.09504e-240
-2.93174e-316
2.96807e-316
-4.94066e-324
-1.14634e-315
1.18722e-315
-9.88131e-324
-6.09139e-315
6.39587e-315
-3.95253e-323
-4.1587e-314
4.41209e-314
-1.67982e-322
-3.52643e-313
3.77465e-313
-8.54734e-322
-3.63735e-312
3.92645e-312
-8.70544e-321
-4.50277e-311
4.9024e-311
-1.10196e-319
-6.63667e-310
7.29128e-310
-1.1126e-318
-1.16036e-308
1.28744e-308
-1.37717e-317
-2.40491e-307
2.69785e-307
-1.62306e-316
-5.92371e-306
6.73029e-306
-6.86295e-315
-1.74413e-304
2.01208e-304
-1.43665e-313
-6.19277e-303
7.28343e-303
-3.84659e-312
-2.6837e-301
3.2405e-301
-1.08531e-310
-1.43995e-299
1.80966e-299
-9.08561e-311
-9.64685e-298
1.30355e-297
-5.15711e-307
-7.63105e-296
1.24238e-295
-2.84991e-305
1.3749e-293
-2.88765e-303
-4.44307e-228
-7.4186e-185
-2.04177e-192
-1.7903e-229
-1.14581e-229
-9.56619e-239
-1.61052e-314
2.14661e-229
-1.15812e-240
-4.04961e-314
4.01025e-314
-6.96633e-322
-1.52619e-313
1.55813e-313
-1.51678e-321
-7.78118e-313
8.08646e-313
-4.86655e-321
-5.08451e-312
5.35228e-312
-2.06075e-320
-4.12051e-311
4.38341e-311
-9.99445e-320
-4.0581e-310
4.35878e-310
-9.84421e-319
-4.79369e-309
5.19759e-309
-1.20557e-317
-6.73909e-308
7.37813e-308
-1.15898e-316
-1.12346e-306
1.24284e-306
-1.36677e-315
-2.21951e-305
2.48365e-305
-1.52197e-314
-5.20994e-304
5.90681e-304
-6.24509e-313
-1.46148e-302
1.68301e-302
-1.24296e-311
-4.94265e-301
5.80464e-301
-3.16678e-310
-2.03964e-299
2.45993e-299
-8.53872e-309
-1.04179e-297
1.30812e-297
-7.1063e-309
-6.64198e-296
8.96949e-296
-3.71444e-305
-4.99822e-294
8.13441e-294
-1.99124e-303
8.56189e-292
-1.86824e-301
-2.4314e-228
-1.36983e-184
-3.73855e-192
-1.86187e-229
-3.71958e-230
-3.80141e-239
-2.24117e-312
2.14644e-229
-1.17026e-240
-5.4913e-312
5.31982e-312
-9.29683e-320
-1.9976e-311
2.01017e-311
-1.97295e-319
-9.78687e-311
1.00652e-310
-6.11747e-319
-6.13037e-310
6.40202e-310
-2.48829e-318
-4.75553e-309
5.02717e-309
-1.14818e-317
-4.47904e-308
4.78636e-308
-1.09821e-316
-5.05688e-307
5.45976e-307
-1.30464e-315
-6.7917e-306
7.40929e-306
-1.19472e-314
-1.08133e-304
1.19263e-304
-1.34238e-313
-2.03969e-303
2.27656e-303
-1.40961e-312
-4.57024e-302
5.17022e-302
-5.64018e-311
-1.22347e-300
1.40633e-300
-1.06797e-309
-3.94775e-299
4.62913e-299
-2.5926e-308
-1.55388e-297
1.87174e-297
-6.69466e-307
-7.56829e-296
9.4938e-296
-6.58306e-307
-4.59969e-294
6.20709e-294
-2.64188e-303
-3.29843e-292
5.36553e-292
-1.38952e-301
5.38042e-290
-1.18995e-299
-1.606e-228
-2.62803e-184
-7.10206e-192
-1.85394e-229
-2.38305e-231
-2.00835e-239
-3.07539e-310
2.05644e-229
-1.13253e-240
-7.35019e-310
6.96678e-310
-1.222e-317
-2.58432e-309
2.56305e-309
-2.53328e-317
-1.21842e-308
1.23988e-308
-7.59904e-317
-7.32669e-308
7.58956e-308
-2.97181e-316
-5.44836e-307
5.72265e-307
-1.30338e-315
-4.9148e-306
5.2246e-306
-1.21515e-314
-5.31125e-305
5.70956e-305
-1.40605e-313
-6.82504e-304
7.41852e-304
-1.2266e-312
-1.03935e-302
1.14277e-302
-1.31618e-311
-1.87467e-301
2.08685e-301
-1.30638e-310
-4.01568e-300
4.53262e-300
-5.10225e-309
-1.02747e-298
1.17878e-298
-9.20561e-308
-3.16797e-297
3.70882e-297
-2.132e-306
-1.19122e-295
1.43301e-295
-5.28255e-305
-5.54108e-294
6.94357e-294
-7.56121e-305
-3.21525e-292
4.33539e-292
-1.85008e-301
-2.20055e-290
3.57759e-290
-9.70981e-300
3.42314e-288
-7.38996e-298
-1.1532e-228
-5.24387e-184
-1.40141e-191
-1.77107e-229
1.98313e-230
-1.23423e-239
-4.18305e-308
1.8913e-229
-1.05194e-240
-9.76082e-308
9.05269e-308
-1.59284e-315
-3.32111e-307
3.24591e-307
-3.22772e-315
-1.50876e-306
1.51895e-306
-9.37462e-315
-8.72133e-306
8.96003e-306
-3.5268e-314
-6.22553e-305
6.49618e-305
-1.47066e-313
-5.38595e-304
5.69492e-304
-1.33945e-312
-5.57884e-303
5.97065e-303
-1.51151e-311
-6.86852e-302
7.43791e-302
-1.25791e-310
-1.00183e-300
1.09802e-300
-1.28968e-309
-1.73031e-299
1.92093e-299
-1.20849e-308
-3.54832e-298
3.9958e-298
-4.62636e-307
-8.68963e-297
9.94962e-297
-7.96072e-306
-2.56376e-295
2.99646e-295
-1.76154e-304
-9.2224e-294
1.10791e-293
-4.1977e-303
-4.10285e-292
5.13557e-292
-9.07093e-303
-2.27621e-290
3.06653e-290
-1.48576e-299
-1.48896e-288
2.41914e-288
-6.82523e-298
2.21177e-286
-4.53943e-296
-8.64622e-229
-1.08922e-183
-2.87555e-191
-1.62609e-229
2.9354e-230
-8.29386e-240
-5.66677e-306
1.67252e-229
-9.39596e-241
-1.29206e-305
1.17267e-305
-2.06905e-313
-4.25916e-305
4.10182e-305
-4.10048e-313
-1.86672e-304
1.85904e-304
-1.15402e-312
-1.03858e-303
1.0581e-303
-4.17881e-312
-7.12554e-303
7.3858e-303
-1.65422e-311
-5.91976e-302
6.22528e-302
-1.47732e-310
-5.88478e-301
6.26955e-301
-1.62e-309
-6.95051e-300
7.49793e-300
-1.2962e-308
-9.72258e-299
1.06214e-298
-1.27253e-307
-1.61004e-297
1.78242e-297
-1.12869e-306
-3.1649e-296
3.55552e-296
-4.23759e-305
-7.42791e-295
8.48762e-295
-6.966e-304
-2.09977e-293
2.44993e-293
-1.47462e-302
-7.23536e-292
8.67948e-292
-3.38398e-301
-3.08252e-290
3.85386e-290
-9.25398e-301
-1.63722e-288
2.2036e-288
-1.14612e-297
-1.02494e-286
1.66405e-286
-4.83724e-296
1.45563e-284
-2.706e-294
-6.56733e-229
-2.35692e-183
-6.14117e-191
-1.43715e-229
3.17168e-230
-5.7967e-240
-7.68024e-304
1.42423e-229
-8.08445e-241
-1.71239e-303
1.52101e-303
-2.69071e-311
-5.47449e-303
5.19466e-303
-5.21777e-311
-2.31746e-302
2.28272e-302
-1.42385e-310
-1.24246e-301
1.25508e-301
-4.96461e-310
-8.2028e-301
8.44475e-301
-1.86432e-309
-6.55186e-300
6.85176e-300
-1.63742e-308
-6.25825e-299
6.6366e-299
-1.75522e-307
-7.09945e-298
7.62869e-298
-1.34529e-306
-9.53546e-297
1.03823e-296
-1.26517e-305
-1.51579e-295
1.67329e-295
-1.06117e-304
-2.85962e-294
3.20469e-294
-3.92227e-303
-6.4397e-293
7.34297e-293
-6.16597e-302
-1.74631e-291
2.03388e-291
-1.25043e-300
-5.77103e-290
6.91249e-290
-2.76732e-299
-2.35736e-288
2.94359e-288
-9.471e-299
-1.20011e-286
1.61367e-286
-8.84316e-296
-7.19877e-285
1.16785e-284
-3.46784e-294
9.78588e-283
-1.58222e-292
-4.96439e-229
-5.31604e-183
-1.36615e-190
-1.22436e-229
2.99944e-230
-4.09633e-240
-1.04577e-301
1.16934e-229
-6.71115e-241
-2.2816e-301
1.98354e-301
-3.51858e-309
-7.0812e-301
6.61975e-301
-6.67884e-309
-2.89839e-300
2.8234e-300
-1.7683e-308
-1.49904e-299
1.50125e-299
-5.93998e-308
-9.53406e-299
9.74759e-299
-2.11075e-307
-7.32963e-298
7.62179e-298
-1.83118e-306
-6.73469e-297
7.10815e-297
-1.9218e-305
-7.34614e-296
7.86227e-296
-1.41374e-304
-9.48445e-295
1.02916e-294
-1.2762e-303
-1.4489e-293
1.59477e-293
-1.01492e-302
-2.62625e-292
2.93575e-292
-3.69402e-301
-5.68101e-291
6.46388e-291
-5.56244e-300
-1.4795e-289
1.71997e-289
-1.08174e-298
-4.69434e-288
5.6141e-288
-2.31076e-297
-1.84059e-286
2.29534e-286
-9.45518e-297
-8.99149e-285
1.20772e-284
-6.9181e-294
-5.17362e-283
8.38606e-283
-2.51877e-292
6.73875e-281
-8.89359e-291
-3.70498e-229
-1.25028e-182
-3.16779e-190
-1.00668e-229
2.61185e-230
-2.88926e-240
-1.43631e-299
9.26704e-230
-5.38255e-241
-3.06825e-299
2.61092e-299
-4.64576e-307
-9.25295e-299
8.52118e-299
-8.63471e-307
-3.66562e-298
3.53091e-298
-2.21937e-306
-1.83081e-297
1.81753e-297
-7.18619e-306
-1.12292e-296
1.14002e-296
-2.41579e-305
-8.31785e-296
8.59961e-296
-2.07453e-304
-7.35953e-295
7.73026e-295
-2.1342e-303
-7.72708e-294
8.23629e-294
-1.50752e-302
-9.59971e-293
1.03804e-292
-1.30658e-301
-1.41079e-291
1.54818e-291
-9.84165e-301
-2.45947e-290
2.74223e-290
-3.54026e-299
-5.11583e-289
5.80791e-289
-5.1109e-298
-1.28082e-287
1.48617e-287
-9.5409e-297
-3.90594e-286
4.66372e-286
-1.9669e-295
-1.47152e-284
1.83262e-284
-9.26019e-295
-6.90505e-283
9.26448e-283
-5.50413e-292
-3.81506e-281
6.17845e-281
-1.85679e-290
4.76597e-279
-4.62126e-289
-2.71687e-229
-3.06675e-182
-7.66025e-190
-7.99668e-230
2.13771e-230
-2.0187e-240
-1.99732e-297
7.09576e-230
-4.1761e-241
-4.17995e-297
3.48177e-297
-6.21787e-305
-1.22589e-296
1.11204e-296
-1.1319e-304
-4.70489e-296
4.48088e-296
-2.82601e-304
-2.27148e-295
2.23509e-295
-8.82764e-304
-1.34489e-294
1.35566e-294
-2.80739e-303
-9.60812e-294
9.87542e-294
-2.38977e-302
-8.19426e-293
8.56488e-293
-2.41301e-301
-8.28947e-292
8.79906e-292
-1.63916e-300
-9.91938e-291
1.0688e-290
-1.36654e-299
-1.40376e-289
1.53576e-289
-9.7749e-299
-2.356e-288
2.61994e-288
-3.47474e-297
-4.71688e-287
5.34282e-287
-4.81643e-296
-1.1364e-285
1.31603e-285
-8.63645e-295
-3.33398e-284
3.9742e-284
-1.71673e-293
-1.20803e-282
1.50238e-282
-8.68103e-293
-5.4503e-281
7.30423e-281
-4.47088e-290
-2.89428e-279
4.68289e-279
-1.39433e-288
3.47094e-277
-2.03915e-287
-1.95147e-229
-7.84451e-182
-1.9323e-189
-6.14262e-230
1.66126e-230
-1.39051e-240
-2.82229e-295
5.25383e-230
-3.1378e-241
-5.78931e-295
4.72063e-295
-8.4675e-303
-1.65252e-294
1.47648e-294
-1.51003e-302
-6.14981e-294
5.7903e-294
-3.66405e-302
-2.8727e-293
2.80138e-293
-1.10535e-301
-1.64342e-292
1.64461e-292
-3.292e-301
-1.13343e-291
1.15803e-291
-2.81075e-300
-9.32619e-291
9.69941e-291
-2.78598e-299
-9.09864e-290
9.61712e-290
-1.82082e-298
-1.04966e-288
1.1269e-288
-1.46036e-297
-1.43173e-287
1.56147e-287
-9.90747e-297
-2.31549e-286
2.56795e-286
-3.49235e-295
-4.46603e-285
5.04692e-285
-4.65098e-294
-1.03632e-283
1.19773e-283
-8.01398e-293
-2.9276e-282
3.48384e-282
-1.53319e-291
-1.02115e-280
1.26814e-280
-7.74602e-291
-4.43363e-279
5.93467e-279
-3.71382e-288
-2.2649e-277
3.66101e-277
-1.06614e-286
2.60963e-275
-3.9415e-286
-1.37008e-229
-2.09186e-181
-5.08462e-189
-4.56629e-230
1.23267e-230
-9.41301e-241
-4.06655e-293
3.76425e-230
-2.28545e-241
-8.18002e-293
6.52959e-293
-1.17753e-300
-2.27424e-292
2.00123e-292
-2.05745e-300
-8.21365e-292
7.64462e-292
-4.8542e-300
-3.71549e-291
3.59045e-291
-1.41559e-299
-2.05561e-290
2.04203e-290
-3.97592e-299
-1.36984e-289
1.39111e-289
-3.38618e-298
-1.08844e-288
1.12625e-288
-3.29644e-297
-1.02497e-287
1.07871e-287
-2.07624e-296
-1.14098e-286
1.22042e-286
-1.60491e-295
-1.5013e-285
1.63214e-285
-1.03547e-294
-2.34165e-284
2.58982e-284
-3.61679e-293
-4.35482e-283
4.90955e-283
-4.63363e-292
-9.74109e-282
1.12352e-281
-7.67439e-291
-2.65201e-280
3.15037e-280
-1.40925e-289
-8.91212e-279
1.10514e-278
-8.2426e-289
-3.72681e-277
4.98241e-277
-3.16716e-286
-1.83297e-275
2.95984e-275
-8.35369e-285
2.03071e-273
6.01993e-284
-9.38797e-230
-5.81202e-181
-1.39532e-188
-3.28718e-230
8.76261e-231
-6.24878e-241
-5.99511e-291
2.61133e-230
-1.61496e-241
-1.18307e-290
9.24508e-291
-1.67808e-298
-3.20598e-290
2.77823e-290
-2.87302e-298
-1.12459e-289
1.03455e-289
-6.59272e-298
-4.93048e-289
4.72093e-289
-1.85927e-297
-2.64027e-288
2.60337e-288
-4.94004e-297
-1.70149e-287
1.71731e-287
-4.19081e-296
-1.30662e-286
1.34505e-286
-4.00801e-295
-1.18866e-285
1.2455e-285
-2.43432e-294
-1.27784e-284
1.36168e-284
-1.8138e-293
-1.6233e-283
1.75904e-283
-1.1113e-292
-2.44386e-282
2.69527e-282
-3.85862e-291
-4.38573e-281
4.93239e-281
-4.75734e-290
-9.4643e-280
1.08931e-279
-7.57343e-289
-2.48513e-278
2.94684e-278
-1.33079e-287
-8.05232e-277
9.97006e-277
-7.03778e-287
-3.24566e-275
4.33366e-275
-2.77774e-284
-1.53809e-273
2.48109e-273
-6.68587e-283
1.63966e-271
1.30794e-281
-6.2714e-230
-1.68105e-180
-3.99065e-188
-2.2928e-230
5.9801e-231
-4.06149e-241
-9.07345e-289
1.75483e-230
-1.10782e-241
-1.7573e-288
1.34436e-288
-2.45905e-296
-4.64461e-288
3.96341e-288
-4.12551e-296
-1.5836e-287
1.43978e-287
-9.20961e-296
-6.73445e-287
6.38854e-287
-2.51164e-295
-3.49339e-286
3.41867e-286
-6.36901e-295
-2.17886e-285
2.18544e-285
-5.34105e-294
-1.6184e-284
1.65729e-284
-5.02469e-293
-1.42343e-283
1.48486e-283
-2.9484e-292
-1.47893e-282
1.56993e-282
-2.12186e-291
-1.81525e-281
1.96055e-281
-1.23835e-290
-2.63979e-280
2.90303e-280
-4.26742e-289
-4.5749e-279
5.13239e-279
-5.06891e-288
-9.53153e-278
1.09471e-277
-7.75781e-287
-2.41567e-276
2.85923e-276
-1.30137e-285
-7.55257e-275
9.33675e-275
-6.18302e-285
-2.93641e-273
3.91564e-273
-2.52005e-282
-1.34175e-271
2.16205e-271
-5.52246e-281
1.37727e-269
1.77159e-279
-4.08093e-230
-5.05602e-180
-1.18828e-187
-1.55017e-230
3.92326e-231
-2.58137e-241
-1.41455e-286
1.14278e-230
-7.38068e-242
-2.68971e-286
2.01438e-286
-3.71799e-294
-6.93803e-286
5.82954e-286
-6.11242e-294
-2.30097e-285
2.06734e-285
-1.32758e-293
-9.49857e-285
8.92643e-285
-3.50026e-293
-4.77666e-284
4.63893e-284
-8.4767e-293
-2.88566e-283
2.8761e-283
-7.03181e-292
-2.07476e-282
2.11333e-282
-6.51507e-291
-1.76557e-281
1.83344e-281
-3.69528e-290
-1.77425e-280
1.8761e-280
-2.56904e-289
-2.10566e-279
2.26656e-279
-1.42609e-288
-2.95999e-278
3.24567e-278
-4.89092e-287
-4.95746e-277
5.54751e-277
-5.59744e-286
-9.97884e-276
1.14358e-275
-8.23407e-285
-2.44272e-274
2.88582e-274
-1.31562e-283
-7.37417e-273
9.10172e-273
-4.29042e-283
-2.76739e-271
3.68535e-271
-2.36933e-280
-1.22009e-269
1.96385e-269
-4.67481e-279
1.2067e-267
2.20699e-277
-2.58502e-230
-1.57911e-179
-3.67852e-187
-1.01627e-230
2.47627e-231
-1.60255e-241
-2.27943e-284
7.2139e-231
-4.77694e-242
-4.25674e-284
3.12085e-284
-5.81984e-292
-1.07224e-283
8.87025e-284
-9.37616e-292
-3.46133e-283
3.07294e-283
-1.98165e-291
-1.38803e-282
1.2921e-282
-5.05089e-291
-6.77185e-282
6.52596e-282
-1.1551e-290
-3.96537e-281
3.92698e-281
-9.59481e-290
-2.76179e-280
2.79798e-280
-8.77166e-289
-2.27557e-279
2.35219e-279
-4.81619e-288
-2.2133e-278
2.33111e-278
-3.2412e-287
-2.54158e-277
2.72644e-277
-1.71759e-286
-3.45599e-276
3.7783e-276
-5.84685e-285
-5.59747e-275
6.24756e-275
-6.45372e-284
-1.08929e-273
1.24555e-273
-9.1282e-283
-2.57714e-272
3.03881e-272
-1.38815e-281
-7.51698e-271
9.2629e-271
-2.74802e-281
-2.72467e-269
3.62351e-269
-2.3255e-278
-1.15978e-267
1.86468e-267
-4.118e-277
1.10586e-265
2.57574e-275
-1.59304e-230
-5.11308e-179
-1.18168e-186
-6.46188e-231
1.50433e-231
-9.70745e-242
-3.81026e-282
4.41511e-231
-3.00379e-242
-6.99047e-282
5.01706e-282
-9.46435e-290
-1.72048e-281
1.40122e-281
-1.49434e-289
-5.4096e-281
4.74514e-281
-3.07367e-289
-2.10879e-280
1.94432e-280
-7.57161e-289
-9.98831e-280
9.55066e-280
-1.6355e-288
-5.67325e-279
5.58194e-279
-1.36194e-287
-3.83023e-278
3.85922e-278
-1.23044e-286
-3.05777e-277
3.14598e-277
-6.54062e-286
-2.88052e-276
3.02166e-276
-4.26053e-285
-3.20265e-275
3.42364e-275
-2.15193e-284
-4.2153e-274
4.59451e-274
-7.28868e-283
-6.60656e-273
7.35451e-273
-7.75824e-282
-1.24374e-271
1.41893e-271
-1.05469e-280
-2.84575e-270
3.34899e-270
-1.5225e-279
-8.02478e-269
9.87222e-269
8.82501e-281
-2.81112e-267
3.73326e-267
-2.3818e-276
-1.15595e-265
1.85638e-265
-3.72688e-275
1.06323e-263
3.06591e-273
-9.54611e-231
-1.7132e-178
-3.9311e-186
-3.98559e-231
8.79702e-232
-5.73195e-242
-6.63227e-280
2.62016e-231
-1.83494e-242
-1.19576e-279
8.40071e-280
-1.60483e-287
-2.87706e-279
2.30668e-279
-2.48372e-287
-8.81666e-279
7.6405e-279
-4.97307e-287
-3.34329e-278
3.05287e-278
-1.18368e-286
-1.53843e-277
1.45944e-277
-2.37541e-286
-8.48157e-277
8.29035e-277
-2.01822e-285
-5.55452e-276
5.56557e-276
-1.80545e-284
-4.29924e-275
4.40234e-275
-9.30469e-284
-3.92512e-274
4.10066e-274
-5.87718e-283
-4.22807e-273
4.50385e-273
-2.84024e-282
-5.38991e-272
5.85672e-272
-9.54107e-281
-8.17937e-271
9.08106e-271
-9.80323e-280
-1.49051e-269
1.69653e-269
-1.28153e-278
-3.30012e-268
3.87599e-268
-1.75467e-277
-9.00217e-267
1.10559e-266
3.87466e-277
-3.0494e-265
4.04394e-265
-2.56716e-274
-1.21204e-263
1.94415e-263
-3.54102e-273
1.07595e-261
3.6173e-271
-5.55971e-231
-5.92776e-178
-1.35123e-185
-2.38473e-231
4.95117e-232
-3.29609e-242
-1.20711e-277
1.5078e-231
-1.08876e-242
-2.13935e-277
1.47116e-277
-2.8488e-285
-5.03467e-277
3.97337e-277
-4.32287e-285
-1.50463e-276
1.28808e-276
-8.42787e-285
-5.55369e-276
5.022e-276
-1.93765e-284
-2.48437e-275
2.33805e-275
-3.60639e-284
-1.33031e-274
1.29169e-274
-3.13628e-283
-8.45632e-274
8.42556e-274
-2.78176e-282
-6.34987e-273
6.47092e-273
-1.38992e-281
-5.62198e-272
5.84907e-272
-8.50889e-281
-5.87072e-271
6.23116e-271
-3.92626e-280
-7.25281e-270
7.85632e-270
-1.31163e-278
-1.06632e-268
1.18065e-268
-1.30051e-277
-1.88197e-267
2.13703e-267
-1.63392e-276
-4.03435e-266
4.72871e-266
-2.11293e-275
-1.06514e-264
1.30587e-264
1.04015e-274
-3.49082e-263
4.62259e-263
-2.90503e-272
-1.34184e-261
2.14975e-261
-3.45487e-271
1.15021e-259
4.47753e-269
-3.14556e-231
-2.11324e-177
-4.78387e-185
-1.38419e-231
2.68096e-232
-1.84411e-242
-2.30774e-275
8.41343e-232
-6.27319e-243
-4.02159e-275
2.70679e-275
-5.31774e-283
-9.2616e-275
7.19429e-275
-7.91469e-283
-2.70085e-274
2.28388e-274
-1.50317e-282
-9.70967e-274
8.69405e-274
-3.33821e-282
-4.22515e-273
3.94433e-273
-5.66429e-282
-2.19884e-272
2.12066e-272
-5.13485e-281
-1.35751e-271
1.34488e-271
-4.52162e-280
-9.89531e-271
1.00348e-270
-2.19309e-279
-8.50106e-270
8.80725e-270
-1.30318e-278
-8.61069e-269
9.10598e-269
-5.76197e-278
-1.03151e-267
1.11379e-267
-1.90846e-276
-1.47006e-266
1.62317e-266
-1.82797e-275
-2.51421e-265
2.84811e-265
-2.20899e-274
-5.22108e-264
6.107e-264
-2.69691e-273
-1.33486e-262
1.63365e-262
1.9594e-272
-4.23474e-261
5.59934e-261
-3.48939e-270
-1.57501e-259
2.52019e-259
-3.57405e-269
1.30427e-257
5.62344e-267
-1.72805e-231
-7.74369e-177
-1.74284e-184
-7.79331e-232
1.39573e-232
-1.00317e-242
-4.65798e-273
4.55168e-232
-3.50902e-243
-7.98358e-273
5.25897e-273
-1.0491e-280
-1.80008e-272
1.37618e-272
-1.53227e-280
-5.12516e-272
4.28058e-272
-2.83642e-280
-1.79565e-271
1.59193e-271
-6.08648e-280
-7.60547e-271
7.04228e-271
-9.44339e-280
-3.84904e-270
3.68696e-270
-8.90403e-279
-2.30933e-269
2.27465e-269
-7.79063e-278
-1.63502e-268
1.64988e-268
-3.66656e-277
-1.36374e-267
1.40683e-267
-2.11311e-276
-1.3406e-266
1.41245e-266
-8.92494e-276
-1.55807e-265
1.67691e-265
-2.94188e-274
-2.15357e-264
2.37116e-264
-2.72095e-273
-3.57099e-263
4.03532e-263
-3.16114e-272
-7.1872e-262
8.38897e-262
-3.6318e-271
-1.78027e-260
2.17483e-260
3.55727e-270
-5.4696e-259
7.22113e-259
-4.44009e-268
-1.96924e-257
3.14701e-257
-3.7843e-267
1.57606e-255
7.53415e-265
-9.21336e-232
-2.90941e-176
-6.50721e-184
-4.25553e-232
6.97984e-233
-5.3012e-243
-9.98258e-271
2.38708e-232
-1.90505e-243
-1.68324e-270
1.08508e-270
-2.20002e-278
-3.71744e-270
2.79687e-270
-3.15497e-278
-1.03394e-269
8.52861e-270
-5.69665e-278
-3.53242e-269
3.10044e-269
-1.18263e-277
-1.45713e-268
1.33815e-268
-1.65471e-277
-7.17548e-268
6.82606e-268
-1.64596e-276
-4.18614e-267
4.09921e-267
-1.43083e-275
-2.88036e-266
2.89197e-266
-6.5408e-275
-2.33376e-265
2.39705e-265
-3.66057e-274
-2.22769e-264
2.33822e-264
-1.48153e-273
-2.51315e-263
2.69591e-263
-4.8481e-272
-3.37065e-262
3.70055e-262
-4.3349e-271
-5.42148e-261
6.11111e-261
-4.84798e-270
-1.05805e-259
1.2323e-259
-5.25225e-269
-2.54029e-258
3.09757e-258
6.3253e-268
-7.56178e-257
9.96777e-257
-6.06729e-266
-2.63658e-255
4.20804e-255
-4.30896e-265
2.04025e-253
1.04029e-262
-4.76499e-232
-1.11793e-175
-2.48035e-183
-2.25316e-232
3.34877e-233
-2.71971e-243
-2.28583e-268
1.21326e-232
-1.00363e-243
-3.7928e-268
2.39248e-268
-4.93527e-276
-8.20836e-268
6.07711e-268
-6.95348e-276
-2.23137e-267
1.81763e-267
-1.22561e-275
-7.43791e-267
6.4627e-267
-2.46459e-275
-2.9898e-266
2.72291e-266
-3.11766e-275
-1.4334e-265
1.35411e-265
-3.2668e-274
-8.13575e-265
7.91967e-265
-2.81788e-273
-5.44323e-264
5.43738e-264
-1.25031e-272
-4.28638e-263
4.38324e-263
-6.78783e-272
-3.97502e-262
4.15624e-262
-2.62197e-271
-4.35501e-261
4.65607e-261
-8.55927e-270
-5.67042e-260
6.2072e-260
-7.39531e-269
-8.85099e-259
9.95147e-259
-7.95886e-268
-1.67567e-257
1.94735e-257
-8.11658e-267
-3.90126e-256
4.74816e-256
1.16286e-265
-1.12564e-254
1.48144e-254
-8.88879e-264
-3.80251e-253
6.06087e-253
-4.97927e-263
2.84603e-251
1.55543e-260
-2.38925e-232
-9.64384e-183
-1.15642e-232
1.53893e-233
-1.35401e-243
-5.6302e-266
5.97465e-233
-5.1303e-244
-9.19523e-266
5.67519e-266
-1.19259e-273
-1.95093e-265
1.42122e-265
-1.65185e-273
-5.18611e-265
4.17148e-265
-2.84463e-273
-1.68755e-264
1.45143e-264
-5.5452e-273
-6.61377e-264
5.97294e-264
-6.21322e-273
-3.08871e-263
2.89733e-263
-7.00587e-272
-1.70649e-262
1.65122e-262
-5.99078e-271
-1.11074e-261
1.10383e-261
-2.58197e-270
-8.50523e-261
8.65856e-261
-1.36108e-269
-7.66638e-260
7.98468e-260
-5.02983e-269
-8.16071e-259
8.69517e-259
-1.63554e-267
-1.032e-257
1.12633e-257
-1.36727e-266
-1.56392e-256
1.75382e-256
-1.41849e-265
-2.87345e-255
3.33184e-255
-1.36727e-264
-6.48983e-254
7.88353e-254
2.20897e-263
-1.81574e-252
2.3858e-252
-1.4183e-261
-5.94482e-251
9.46279e-251
-6.33216e-261
4.30514e-249
2.43069e-258
-5.75141e-233
6.75942e-234
-6.52171e-244
-1.50199e-263
2.84964e-233