/*--------------------------------*- C++ -*----------------------------------*\
| =========                 |                                                 |
| \\      /  F ield         | OpenFOAM: The Open Source CFD Toolbox           |
|  \\    /   O peration     | Version:  v2012                                 |
|   \\  /    A nd           | Website:  www.openfoam.com                      |
|    \\/     M anipulation  |                                                 |
\*---------------------------------------------------------------------------*/
FoamFile
{
    version     2.0;
    format      ascii;
    class       surfaceScalarField;
    location    "0.85";
    object      phi;
}
// * * * * * * * * * * * * * * * * * * * * * * * * * * * * * * * * * * * * * //

dimensions      [0 3 -1 0 0 0 0];
oriented        oriented;


internalField   nonuniform List<scalar> 
8135
(
-1.92633e-09
-2.77523e-08
-6.11863e-16
-1.23393e-09
-6.79577e-09
-4.27541e-16
-6.02626e-10
1.58772e-08
-9.94105e-17
-4.55069e-10
4.01675e-08
-4.53378e-17
-3.92641e-10
6.56278e-08
-3.11787e-17
-3.65506e-10
9.21394e-08
-2.29404e-17
-3.46997e-10
1.19582e-07
-1.69845e-17
-3.29984e-10
1.47493e-07
-1.23328e-17
-3.11579e-10
1.75484e-07
-8.51029e-18
-2.90693e-10
2.02909e-07
-5.77317e-18
-2.66897e-10
2.2905e-07
-1.9548e-18
-2.40149e-10
2.53061e-07
2.67116e-20
-2.10716e-10
2.73698e-07
2.18856e-18
-1.79113e-10
2.89633e-07
-2.71372e-19
-1.46124e-10
2.99188e-07
1.04958e-18
-1.12824e-10
3.00214e-07
1.99821e-18
-8.05861e-11
2.90119e-07
2.96653e-18
-5.1099e-11
2.65775e-07
4.40297e-18
-2.63106e-11
2.23157e-07
1.90369e-18
-8.40754e-12
1.57415e-07
1.72244e-18
6.22747e-08
2.46121e-18
-2.15483e-09
-2.79419e-08
-6.16309e-16
-1.8192e-09
-7.13138e-09
-4.37255e-16
-1.47747e-09
1.55355e-08
-2.11506e-16
-1.27679e-09
3.99668e-08
-1.28254e-16
-1.15926e-09
6.55103e-08
-9.3227e-17
-1.0921e-09
9.20723e-08
-6.99316e-17
-1.04037e-09
1.1953e-07
-5.14906e-17
-9.90423e-10
1.47443e-07
-3.39307e-17
-9.35648e-10
1.75429e-07
-1.28132e-17
-8.73178e-10
2.02846e-07
-2.34586e-18
-8.0186e-10
2.28979e-07
1.03937e-17
-7.21613e-10
2.52981e-07
1.68767e-17
-6.33249e-10
2.7361e-07
2.42864e-17
-5.3832e-10
2.89538e-07
1.72344e-17
-4.39169e-10
2.99089e-07
2.27259e-17
-3.39005e-10
3.00114e-07
2.62717e-17
-2.41942e-10
2.90022e-07
2.90627e-17
-1.53015e-10
2.65686e-07
3.20763e-17
-7.82034e-11
2.23082e-07
2.04748e-17
-2.41908e-11
1.57361e-07
1.57744e-17
6.22505e-08
1.17076e-17
-2.50719e-09
-2.80265e-08
-6.35071e-16
-2.36725e-09
-7.27129e-09
-4.76172e-16
-2.19928e-09
1.53675e-08
-2.99856e-16
-2.03045e-09
3.9798e-08
-2.0444e-16
-1.90098e-09
6.53808e-08
-1.536e-16
-1.80965e-09
9.19809e-08
-1.17677e-16
-1.73062e-09
1.19451e-07
-8.79579e-17
-1.65013e-09
1.47363e-07
-5.71205e-17
-1.56005e-09
1.75339e-07
-3.04956e-17
-1.45651e-09
2.02743e-07
-1.96519e-17
-1.33791e-09
2.2886e-07
-4.64804e-19
-1.20425e-09
2.52847e-07
1.04262e-17
-1.05693e-09
2.73462e-07
2.31901e-17
-8.98567e-10
2.8938e-07
1.24207e-17
-7.33051e-10
2.98923e-07
2.32798e-17
-5.65707e-10
2.99946e-07
3.04933e-17
-4.03374e-10
2.8986e-07
3.64265e-17
-2.54449e-10
2.65537e-07
4.2392e-17
-1.29025e-10
2.22957e-07
2.48643e-17
-3.87812e-11
1.57271e-07
1.92289e-17
6.22117e-08
1.11846e-17
-2.92007e-09
-2.80176e-08
-6.5621e-16
-2.90677e-09
-7.28455e-09
-5.14957e-16
-2.85177e-09
1.53126e-08
-3.6774e-16
-2.7343e-09
3.96806e-08
-2.69898e-16
-2.61715e-09
6.52637e-08
-2.09045e-16
-2.5154e-09
9.18792e-08
-1.63335e-16
-2.41585e-09
1.19352e-07
-1.24038e-16
-2.30802e-09
1.47255e-07
-8.29287e-17
-2.18419e-09
1.75215e-07
-5.8157e-17
-2.04034e-09
2.02599e-07
-5.18021e-17
-1.87482e-09
2.28695e-07
-2.79064e-17
-1.6879e-09
2.5266e-07
-1.2965e-17
-1.48165e-09
2.73256e-07
5.15469e-18
-1.25977e-09
2.89158e-07
-9.79668e-18
-1.02772e-09
2.98691e-07
5.74258e-18
-7.92943e-10
2.99712e-07
1.67511e-17
-5.65e-10
2.89632e-07
2.66553e-17
-3.55684e-10
2.65327e-07
3.77059e-17
-1.79321e-10
2.2278e-07
1.68701e-17
-5.29452e-11
1.57144e-07
1.3279e-17
6.21588e-08
4.91334e-18
-3.37276e-09
-2.79296e-08
-6.77895e-16
-3.44631e-09
-7.21095e-09
-5.49014e-16
-3.46916e-09
1.53354e-08
-4.19991e-16
-3.40541e-09
3.96169e-08
-3.23353e-16
-3.31179e-09
6.51701e-08
-2.56088e-16
-3.20943e-09
9.17768e-08
-2.02981e-16
-3.09541e-09
1.19238e-07
-1.56317e-16
-2.96353e-09
1.47123e-07
-1.08145e-16
-2.8077e-09
1.75059e-07
-9.32047e-17
-2.62445e-09
2.02415e-07
-9.35827e-17
-2.41247e-09
2.28483e-07
-6.56703e-17
-2.17248e-09
2.5242e-07
-4.71341e-17
-1.90734e-09
2.72991e-07
-2.45098e-17
-1.62187e-09
2.88872e-07
-4.45723e-17
-1.32314e-09
2.98393e-07
-2.50843e-17
-1.02071e-09
2.99409e-07
-1.06784e-17
-7.26868e-10
2.89338e-07
3.54514e-18
-4.56857e-10
2.65057e-07
2.09751e-17
-2.29335e-10
2.22553e-07
-8.2835e-19
-6.68895e-11
1.56982e-07
6.4618e-19
6.20919e-08
-4.84118e-18
-3.8551e-09
-2.77755e-08
-7.00128e-16
-3.99134e-09
-7.07467e-09
-5.79697e-16
-4.07113e-09
1.54152e-08
-4.61727e-16
-4.05663e-09
3.96024e-08
-3.66459e-16
-3.99037e-09
6.51038e-08
-2.94677e-16
-3.89345e-09
9.16799e-08
-2.3596e-16
-3.76959e-09
1.19114e-07
-1.84014e-16
-3.61659e-09
1.4697e-07
-1.3227e-16
-3.43045e-09
1.74873e-07
-1.28238e-16
-3.20873e-09
2.02194e-07
-1.35223e-16
-2.95078e-09
2.28225e-07
-1.03171e-16
-2.65793e-09
2.52127e-07
-8.12123e-17
-2.33394e-09
2.72667e-07
-5.47852e-17
-1.98484e-09
2.88523e-07
-8.11112e-17
-1.61929e-09
2.98027e-07
-5.90603e-17
-1.249e-09
2.99039e-07
-4.25512e-17
-8.89025e-10
2.88978e-07
-2.49068e-17
-5.58072e-10
2.64726e-07
-1.28048e-18
-2.79222e-10
2.22274e-07
-2.33131e-17
-8.07208e-11
1.56783e-07
-1.53509e-17
6.20112e-08
-1.62856e-17
-4.36178e-09
-2.75664e-08
-7.22776e-16
-4.54599e-09
-6.89041e-09
-6.08167e-16
-4.6696e-09
1.55388e-08
-4.96852e-16
-4.69759e-09
3.96304e-08
-4.0236e-16
-4.65838e-09
6.50647e-08
-3.26977e-16
-4.56993e-09
9.15915e-08
-2.63758e-16
-4.43937e-09
1.18983e-07
-2.0801e-16
-4.26754e-09
1.46798e-07
-1.53527e-16
-4.05256e-09
1.74658e-07
-1.57302e-16
-3.79321e-09
2.01934e-07
-1.68448e-16
-3.48973e-09
2.27921e-07
-1.3192e-16
-3.14422e-09
2.51782e-07
-1.06854e-16
-2.76144e-09
2.72284e-07
-7.73035e-17
-2.34864e-09
2.88111e-07
-1.10854e-16
-1.91615e-09
2.97595e-07
-8.7407e-17
-1.47783e-09
2.98601e-07
-7.00402e-17
-1.05151e-09
2.88552e-07
-5.01651e-17
-6.59413e-10
2.64334e-07
-2.12936e-17
-3.291e-10
2.21943e-07
-4.42994e-17
-9.45248e-11
1.56549e-07
-3.02457e-17
6.19167e-08
-2.66614e-17
-4.89038e-09
-2.73109e-08
-7.45594e-16
-5.11314e-09
-6.66758e-09
-6.35301e-16
-5.27178e-09
1.56975e-08
-5.28252e-16
-5.33536e-09
3.96941e-08
-4.34101e-16
-5.32076e-09
6.50501e-08
-3.55676e-16
-5.2416e-09
9.15123e-08
-2.88592e-16
-5.10608e-09
1.18848e-07
-2.29718e-16
-4.917e-09
1.46609e-07
-1.72818e-16
-4.6743e-09
1.74415e-07
-1.7975e-16
-4.37802e-09
2.01638e-07
-1.92553e-16
-4.02938e-09
2.27573e-07
-1.50379e-16
-3.63138e-09
2.51384e-07
-1.21388e-16
-3.18982e-09
2.71843e-07
-8.81488e-17
-2.71327e-09
2.87634e-07
-1.28745e-16
-2.21371e-09
2.97095e-07
-1.04205e-16
-1.7072e-09
2.98094e-07
-8.67135e-17
-1.21436e-09
2.88059e-07
-6.57216e-17
-7.6094e-10
2.63881e-07
-3.29848e-17
-3.79046e-10
2.21562e-07
-5.85119e-17
-1.08351e-10
1.56278e-07
-3.97806e-17
6.18083e-08
-3.26532e-17
-5.4399e-09
-2.70159e-08
-7.68159e-16
-5.6948e-09
-6.41262e-09
-6.61413e-16
-5.88218e-09
1.58849e-08
-5.57485e-16
-5.97509e-09
3.9787e-08
-4.6357e-16
-5.98166e-09
6.50567e-08
-3.82596e-16
-5.91114e-09
9.14418e-08
-3.12093e-16
-5.77125e-09
1.18708e-07
-2.50418e-16
-5.5658e-09
1.46404e-07
-1.9e-16
-5.2961e-09
1.74146e-07
-1.96386e-16
-4.96338e-09
2.01306e-07
-2.08939e-16
-4.56984e-09
2.27179e-07
-1.6074e-16
-4.11946e-09
2.50933e-07
-1.27488e-16
-3.61911e-09
2.71342e-07
-9.00609e-17
-3.07873e-09
2.87094e-07
-1.37168e-16
-2.51198e-09
2.96528e-07
-1.11206e-16
-1.93712e-09
2.97519e-07
-9.35533e-17
-1.37758e-09
2.87499e-07
-7.18408e-17
-8.627e-10
2.63366e-07
-3.60679e-17
-4.29115e-10
2.21128e-07
-6.55629e-17
-1.22233e-10
1.55971e-07
-4.37679e-17
6.16861e-08
-3.45077e-17
-6.01008e-09
-2.66864e-08
-7.89974e-16
-6.29242e-09
-6.13021e-09
-6.86344e-16
-6.50378e-09
1.60963e-08
-5.84996e-16
-6.62051e-09
3.99038e-08
-4.91417e-16
-6.6445e-09
6.50807e-08
-4.08402e-16
-6.58103e-09
9.13783e-08
-3.34875e-16
-6.43646e-09
1.18564e-07
-2.70377e-16
-6.21487e-09
1.46182e-07
-2.06138e-16
-5.9185e-09
1.73849e-07
-2.1015e-16
-5.54957e-09
2.00937e-07
-2.22022e-16
-5.11127e-09
2.26741e-07
-1.67358e-16
-4.60851e-09
2.50431e-07
-1.29045e-16
-4.04934e-09
2.70783e-07
-8.63083e-17
-3.44502e-09
2.86489e-07
-1.38751e-16
-2.81095e-09
2.95894e-07
-1.10342e-16
-2.1676e-09
2.96876e-07
-9.1823e-17
-1.54121e-09
2.86873e-07
-6.91512e-17
-9.64723e-10
2.6279e-07
-3.06916e-17
-4.79344e-10
2.20643e-07
-6.50888e-17
-1.36191e-10
1.55628e-07
-4.15037e-17
6.15499e-08
-3.1085e-17
-6.60098e-09
-2.63269e-08
-8.10637e-16
-6.9071e-09
-5.82401e-09
-7.09771e-16
-7.13857e-09
1.63278e-08
-6.10672e-16
-7.2744e-09
4.00397e-08
-5.17565e-16
-7.31205e-09
6.51184e-08
-4.32987e-16
-7.25345e-09
9.13198e-08
-3.56831e-16
-7.10321e-09
1.18414e-07
-2.89606e-16
-6.86517e-09
1.45944e-07
-2.20872e-16
-6.54208e-09
1.73526e-07
-2.2295e-16
-6.13695e-09
2.00532e-07
-2.34759e-16
-5.65384e-09
2.26258e-07
-1.74308e-16
-5.09865e-09
2.49876e-07
-1.31036e-16
-4.48054e-09
2.70165e-07
-8.25322e-17
-3.81215e-09
2.85821e-07
-1.39486e-16
-3.11061e-09
2.95193e-07
-1.07619e-16
-2.39862e-09
2.96164e-07
-8.72408e-17
-1.70525e-09
2.8618e-07
-6.28566e-17
-1.06703e-09
2.62151e-07
-2.136e-17
-5.29752e-10
2.20105e-07
-6.08166e-17
-1.50233e-10
1.55249e-07
-3.59652e-17
6.13996e-08
-2.5155e-17
-7.2128e-09
-2.59406e-08
-8.29909e-16
-7.53967e-09
-5.49706e-09
-7.31448e-16
-7.78799e-09
1.65761e-08
-6.34297e-16
-7.93878e-09
4.01906e-08
-5.41738e-16
-7.98646e-09
6.51661e-08
-4.55985e-16
-7.93025e-09
9.12635e-08
-3.77583e-16
-7.77288e-09
1.18256e-07
-3.07638e-16
-7.51764e-09
1.45689e-07
-2.34584e-16
-7.16743e-09
1.73176e-07
-2.3582e-16
-6.72586e-09
2.0009e-07
-2.48805e-16
-6.19778e-09
2.2573e-07
-1.83203e-16
-5.58999e-09
2.49268e-07
-1.35127e-16
-4.91277e-09
2.69488e-07
-8.0514e-17
-4.18014e-09
2.85088e-07
-1.41304e-16
-3.41099e-09
2.94424e-07
-1.05096e-16
-2.6302e-09
2.95383e-07
-8.19154e-17
-1.8697e-09
2.85419e-07
-5.49854e-17
-1.16963e-09
2.61451e-07
-9.98287e-18
-5.80352e-10
2.19516e-07
-5.40861e-17
-1.64364e-10
1.54833e-07
-2.79833e-17
6.12353e-08
-1.66307e-17
-7.84579e-09
-2.55306e-08
-8.47703e-16
-8.19077e-09
-5.15199e-09
-7.51282e-16
-8.45305e-09
1.68384e-08
-6.55776e-16
-8.61516e-09
4.03528e-08
-5.63755e-16
-8.66947e-09
6.52205e-08
-4.77109e-16
-8.61299e-09
9.12071e-08
-3.96777e-16
-8.44673e-09
1.1809e-07
-3.24275e-16
-8.17316e-09
1.45415e-07
-2.46764e-16
-7.79515e-09
1.72798e-07
-2.49224e-16
-7.31668e-09
1.99612e-07
-2.64747e-16
-6.7433e-09
2.25156e-07
-1.95096e-16
-6.08262e-09
2.48607e-07
-1.42964e-16
-5.34607e-09
2.68751e-07
-8.25738e-17
-4.54902e-09
2.84291e-07
-1.47143e-16
-3.71206e-09
2.93587e-07
-1.06173e-16
-2.86232e-09
2.94533e-07
-7.95483e-17
-2.03457e-09
2.84591e-07
-4.93772e-17
-1.27253e-09
2.60689e-07
-3.46211e-19
-6.31145e-10
2.18875e-07
-4.84164e-17
-1.78583e-10
1.5438e-07
-2.05754e-17
6.10567e-08
-8.61621e-18
-8.50021e-09
-2.50994e-08
-8.64037e-16
-8.86089e-09
-4.79121e-09
-7.6932e-16
-9.13449e-09
1.7112e-08
-6.75157e-16
-9.30467e-09
4.05231e-08
-5.83607e-16
-9.36239e-09
6.52783e-08
-4.96247e-16
-9.30297e-09
9.11477e-08
-4.14259e-16
-9.1258e-09
1.17913e-07
-3.39305e-16
-8.83253e-09
1.45122e-07
-2.57667e-16
-8.42577e-09
1.72392e-07
-2.62585e-16
-7.90976e-09
1.99096e-07
-2.81777e-16
-7.29059e-09
2.24537e-07
-2.08775e-16
-6.57668e-09
2.47893e-07
-1.5322e-16
-5.78051e-09
2.67955e-07
-8.74591e-17
-4.91879e-09
2.8343e-07
-1.55989e-16
-4.01383e-09
2.92682e-07
-1.10166e-16
-3.09498e-09
2.93615e-07
-7.98005e-17
-2.19984e-09
2.83696e-07
-4.59834e-17
-1.37572e-09
2.59865e-07
7.48257e-18
-6.82131e-10
2.18181e-07
-4.39034e-17
-1.92887e-10
1.53891e-07
-1.38338e-17
6.08638e-08
-5.22314e-19
-9.17626e-09
-2.46493e-08
-8.78992e-16
-9.55038e-09
-4.41697e-09
-7.85684e-16
-9.83285e-09
1.73945e-08
-6.92598e-16
-1.00081e-08
4.06984e-08
-6.01426e-16
-1.00662e-08
6.53364e-08
-5.1346e-16
-1.00012e-08
9.10826e-08
-4.30014e-16
-9.81098e-09
1.17723e-07
-3.52815e-16
-9.49643e-09
1.44807e-07
-2.67174e-16
-9.05979e-09
1.71955e-07
-2.75749e-16
-8.50542e-09
1.98541e-07
-2.99357e-16
-7.83987e-09
2.23872e-07
-2.23647e-16
-7.07227e-09
2.47126e-07
-1.65413e-16
-6.21612e-09
2.67099e-07
-9.4954e-17
-5.28946e-09
2.82503e-07
-1.67984e-16
-4.31629e-09
2.91709e-07
-1.1758e-16
-3.32817e-09
2.92626e-07
-8.35516e-17
-2.3655e-09
2.82734e-07
-4.60227e-17
-1.4792e-09
2.58979e-07
1.2044e-17
-7.33301e-10
2.17435e-07
-4.20379e-17
-2.07273e-10
1.53365e-07
-9.46246e-18
6.06565e-08
5.4005e-18
-9.87412e-09
-2.41826e-08
-8.9267e-16
-1.02595e-08
-4.03145e-09
-8.00528e-16
-1.05485e-08
1.76835e-08
-7.08299e-16
-1.07261e-08
4.08761e-08
-6.17408e-16
-1.07817e-08
6.53921e-08
-5.28895e-16
-1.07084e-08
9.10094e-08
-4.44156e-16
-1.0503e-08
1.17518e-07
-3.64877e-16
-1.01654e-08
1.4447e-07
-2.75567e-16
-9.69763e-09
1.71487e-07
-2.8802e-16
-9.10393e-09
1.97948e-07
-3.16442e-16
-8.39128e-09
2.23159e-07
-2.38238e-16
-7.56946e-09
2.46304e-07
-1.77771e-16
-6.65293e-09
2.66182e-07
-1.03093e-16
-5.66103e-09
2.81511e-07
-1.81127e-16
-4.61943e-09
2.90667e-07
-1.26486e-16
-3.56187e-09
2.91569e-07
-8.90292e-17
-2.53155e-09
2.81703e-07
-4.79291e-17
-1.58295e-09
2.5803e-07
1.49189e-17
-7.84647e-10
2.16637e-07
-4.15532e-17
-2.21734e-10
1.52802e-07
-6.46265e-18
6.04348e-08
1.05419e-17
-1.05939e-08
-2.37015e-08
-9.05162e-16
-1.09884e-08
-3.63679e-09
-8.14003e-16
-1.12816e-08
1.79767e-08
-7.2246e-16
-1.14589e-08
4.10536e-08
-6.31767e-16
-1.15094e-08
6.54426e-08
-5.4274e-16
-1.14252e-08
9.09253e-08
-4.56806e-16
-1.12024e-08
1.17295e-07
-3.75611e-16
-1.084e-08
1.44108e-07
-2.82697e-16
-1.03396e-08
1.70987e-07
-2.99362e-16
-9.70554e-09
1.97314e-07
-3.32711e-16
-8.94498e-09
2.22398e-07
-2.52118e-16
-8.06833e-09
2.45427e-07
-1.89759e-16
-7.09098e-09
2.65205e-07
-1.11327e-16
-6.0335e-09
2.80454e-07
-1.94924e-16
-4.92322e-09
2.89557e-07
-1.36508e-16
-3.79604e-09
2.90442e-07
-9.60473e-17
-2.69794e-09
2.80605e-07
-5.17666e-17
-1.68695e-09
2.57019e-07
1.56102e-17
-8.36157e-10
2.15786e-07
-4.30036e-17
-2.36265e-10
1.52202e-07
-5.5891e-18
6.01985e-08
1.34789e-17
-1.13356e-08
-2.32079e-08
-9.1655e-16
-1.17372e-08
-3.23511e-09
-8.26242e-16
-1.20323e-08
1.82718e-08
-7.35255e-16
-1.22068e-08
4.12282e-08
-6.44697e-16
-1.22495e-08
6.54854e-08
-5.55167e-16
-1.21521e-08
9.08279e-08
-4.68122e-16
-1.19095e-08
1.17053e-07
-3.85088e-16
-1.15205e-08
1.43719e-07
-2.88646e-16
-1.0986e-08
1.70453e-07
-3.09444e-16
-1.03104e-08
1.96638e-07
-3.47787e-16
-9.50106e-09
2.21589e-07
-2.64645e-16
-8.56891e-09
2.44495e-07
-2.00473e-16
-7.53024e-09
2.64166e-07
-1.18479e-16
-6.40684e-09
2.7933e-07
-2.07989e-16
-5.22763e-09
2.88378e-07
-1.46098e-16
-4.03065e-09
2.89245e-07
-1.02963e-16
-2.86466e-09
2.79439e-07
-5.58576e-17
-1.79119e-09
2.55946e-07
1.5828e-17
-8.87816e-10
2.14883e-07
-4.52994e-17
-2.50859e-10
1.51565e-07
-5.43453e-18
5.99477e-08
1.59823e-17
-1.20992e-08
-2.2704e-08
-9.26908e-16
-1.25057e-08
-2.82852e-09
-8.37361e-16
-1.28005e-08
1.85667e-08
-7.46836e-16
-1.29698e-08
4.13976e-08
-6.56363e-16
-1.30022e-08
6.55179e-08
-5.66334e-16
-1.28891e-08
9.07147e-08
-4.78216e-16
-1.26247e-08
1.16788e-07
-3.93427e-16
-1.22071e-08
1.43301e-07
-2.93352e-16
-1.1637e-08
1.69883e-07
-3.18449e-16
-1.09186e-08
1.9592e-07
-3.61745e-16
-1.00596e-08
2.2073e-07
-2.75898e-16
-9.07121e-09
2.43507e-07
-2.09925e-16
-7.97071e-09
2.63066e-07
-1.24511e-16
-6.781e-09
2.78141e-07
-2.20251e-16
-5.53261e-09
2.87129e-07
-1.55195e-16
-4.26567e-09
2.87978e-07
-1.09774e-16
-3.03166e-09
2.78205e-07
-6.02869e-17
-1.89563e-09
2.5481e-07
1.52885e-17
-9.39609e-10
2.13927e-07
-4.90169e-17
-2.6551e-10
1.50891e-07
-6.46137e-18
5.96822e-08
1.70001e-17
-1.28846e-08
-2.21919e-08
-9.36308e-16
-1.32938e-08
-2.4192e-09
-8.47461e-16
-1.35861e-08
1.8859e-08
-7.57332e-16
-1.37479e-08
4.15595e-08
-6.66907e-16
-1.37676e-08
6.55377e-08
-5.7637e-16
-1.36363e-08
9.05835e-08
-4.87223e-16
-1.33479e-08
1.165e-07
-4.00747e-16
-1.28999e-08
1.42853e-07
-2.97058e-16
-1.22927e-08
1.69276e-07
-3.26363e-16
-1.15302e-08
1.95158e-07
-3.74657e-16
-1.06205e-08
2.1982e-07
-2.85848e-16
-9.57519e-09
2.42462e-07
-2.17959e-16
-8.41232e-09
2.61903e-07
-1.29071e-16
-7.15593e-09
2.76884e-07
-2.31166e-16
-5.83811e-09
2.85812e-07
-1.6305e-16
-4.50104e-09
2.86641e-07
-1.15525e-16
-3.19891e-09
2.76903e-07
-6.38941e-17
-2.00025e-09
2.53611e-07
1.53844e-17
-9.91518e-10
2.12918e-07
-5.28041e-17
-2.80212e-10
1.5018e-07
-7.37885e-18
5.9402e-08
1.82291e-17
-1.36916e-08
-2.16738e-08
-9.44814e-16
-1.41013e-08
-2.00931e-09
-8.56623e-16
-1.43888e-08
1.91466e-08
-7.66852e-16
-1.45407e-08
4.17115e-08
-6.7643e-16
-1.45454e-08
6.55425e-08
-5.8539e-16
-1.43938e-08
9.04318e-08
-4.95214e-16
-1.40792e-08
1.16186e-07
-4.07128e-16
-1.35989e-08
1.42373e-07
-2.99801e-16
-1.29529e-08
1.6863e-07
-3.33395e-16
-1.21452e-08
1.9435e-07
-3.86736e-16
-1.11837e-08
2.18859e-07
-2.94782e-16
-1.00808e-08
2.41359e-07
-2.24867e-16
-8.855e-09
2.60677e-07
-1.32472e-16
-7.53155e-09
2.75561e-07
-2.41059e-16
-6.14404e-09
2.84424e-07
-1.70019e-16
-4.73669e-09
2.85234e-07
-1.2063e-16
-3.36636e-09
2.75533e-07
-6.71763e-17
-2.10501e-09
2.5235e-07
1.55802e-17
-1.04352e-09
2.11857e-07
-5.69633e-17
-2.94957e-10
1.49431e-07
-8.6741e-18
5.9107e-08
1.86685e-17
-1.45197e-08
-2.11519e-08
-9.52516e-16
-1.49277e-08
-1.6011e-09
-8.6494e-16
-1.52083e-08
1.94272e-08
-7.75484e-16
-1.5348e-08
4.18514e-08
-6.85032e-16
-1.53354e-08
6.553e-08
-5.93461e-16
-1.51612e-08
9.02576e-08
-5.02277e-16
-1.48184e-08
1.15843e-07
-4.1261e-16
-1.4304e-08
1.41858e-07
-3.01684e-16
-1.36177e-08
1.67943e-07
-3.39565e-16
-1.27634e-08
1.93496e-07
-3.98193e-16
-1.17493e-08
2.17845e-07
-3.02865e-16
-1.05879e-08
2.40198e-07
-2.30782e-16
-9.29863e-09
2.59388e-07
-1.34756e-16
-7.90776e-09
2.7417e-07
-2.4985e-16
-6.45032e-09
2.82967e-07
-1.75865e-16
-4.97255e-09
2.83756e-07
-1.24659e-16
-3.53395e-09
2.74094e-07
-6.95071e-17
-2.20988e-09
2.51026e-07
1.66083e-17
-1.09561e-09
2.10742e-07
-6.02183e-17
-3.09737e-10
1.48645e-07
-9.38402e-18
5.87973e-08
1.97212e-17
-1.53686e-08
-2.06285e-08
-9.59526e-16
-1.57727e-08
-1.19682e-09
-8.72521e-16
-1.6044e-08
1.96985e-08
-7.83322e-16
-1.61692e-08
4.19769e-08
-6.92805e-16
-1.61371e-08
6.5498e-08
-6.00671e-16
-1.59381e-08
9.00586e-08
-5.08452e-16
-1.55652e-08
1.1547e-07
-4.1721e-16
-1.50149e-08
1.41308e-07
-3.0259e-16
-1.42868e-08
1.67216e-07
-3.44934e-16
-1.33847e-08
1.92594e-07
-4.09193e-16
-1.23169e-08
2.16777e-07
-3.1033e-16
-1.10963e-08
2.38977e-07
-2.35964e-16
-9.74308e-09
2.58035e-07
-1.36251e-16
-8.28442e-09
2.72711e-07
-2.5794e-16
-6.75684e-09
2.81439e-07
-1.81081e-16
-5.20854e-09
2.82208e-07
-1.28214e-16
-3.70162e-09
2.72587e-07
-7.16199e-17
-2.31481e-09
2.49639e-07
1.75825e-17
-1.14774e-09
2.09575e-07
-6.31187e-17
-3.24547e-10
1.47822e-07
-1.01527e-17
5.84727e-08
2.03615e-17
-1.62375e-08
-2.01059e-08
-9.65979e-16
-1.66354e-08
-7.98772e-10
-8.79488e-16
-1.68952e-08
1.99584e-08
-7.90483e-16
-1.70039e-08
4.20857e-08
-6.99842e-16
-1.695e-08
6.54443e-08
-6.0709e-16
-1.67242e-08
8.98329e-08
-5.13819e-16
-1.63191e-08
1.15065e-07
-4.20923e-16
-1.57313e-08
1.4072e-07
-3.02526e-16
-1.49599e-08
1.66444e-07
-3.49375e-16
-1.40088e-08
1.91643e-07
-4.1992e-16
-1.28864e-08
2.15655e-07
-3.17312e-16
-1.16059e-08
2.37697e-07
-2.40576e-16
-1.01882e-08
2.56617e-07
-1.37086e-16
-8.6614e-09
2.71185e-07
-2.65389e-16
-7.06347e-09
2.79841e-07
-1.85609e-16
-5.44456e-09
2.80589e-07
-1.31088e-16
-3.8693e-09
2.71012e-07
-7.31544e-17
-2.41976e-09
2.48189e-07
1.88818e-17
-1.19991e-09
2.08355e-07
-6.51383e-17
-3.39377e-10
1.46962e-07
-1.03331e-17
5.81333e-08
2.16906e-17
-1.71259e-08
-1.95866e-08
-9.72018e-16
-1.75152e-08
-4.09294e-10
-8.85967e-16
-1.77612e-08
2.02045e-08
-7.97077e-16
-1.78511e-08
4.21757e-08
-7.06236e-16
-1.77735e-08
6.53668e-08
-6.12795e-16
-1.75189e-08
8.95783e-08
-5.18381e-16
-1.70798e-08
1.14626e-07
-4.23769e-16
-1.64527e-08
1.40093e-07
-3.01402e-16
-1.56367e-08
1.65628e-07
-3.53182e-16
-1.46354e-08
1.90642e-07
-4.30116e-16
-1.34575e-08
2.14477e-07
-3.23855e-16
-1.21164e-08
2.36356e-07
-2.44723e-16
-1.06337e-08
2.55135e-07
-1.37448e-16
-9.03851e-09
2.6959e-07
-2.7247e-16
-7.37009e-09
2.78173e-07
-1.89851e-16
-5.68049e-09
2.78899e-07
-1.33823e-16
-4.0369e-09
2.69369e-07
-7.48278e-17
-2.52468e-09
2.46677e-07
1.95108e-17
-1.25207e-09
2.07083e-07
-6.43694e-17
-3.54219e-10
1.46064e-07
-1.07136e-17
5.77791e-08
2.26845e-17
-1.80328e-08
-1.9073e-08
-9.77806e-16
-1.84111e-08
-3.07339e-11
-8.92087e-16
-1.86412e-08
2.04346e-08
-8.03221e-16
-1.87101e-08
4.22448e-08
-7.12086e-16
-1.86066e-08
6.52634e-08
-6.17853e-16
-1.83213e-08
8.92931e-08
-5.22233e-16
-1.78466e-08
1.14152e-07
-4.25753e-16
-1.71787e-08
1.39426e-07
-2.99222e-16
-1.63166e-08
1.64766e-07
-3.56256e-16
-1.52641e-08
1.89589e-07
-4.43551e-16
-1.40298e-08
2.13243e-07
-3.30012e-16
-1.26276e-08
2.34954e-07
-2.48534e-16
-1.10794e-08
2.53587e-07
-1.37467e-16
-9.41556e-09
2.67926e-07
-2.79258e-16
-7.67652e-09
2.76434e-07
-1.93778e-16
-5.91622e-09
2.77139e-07
-1.36253e-16
-4.20435e-09
2.67657e-07
-7.63186e-17
-2.62951e-09
2.45102e-07
1.97619e-17
-1.30421e-09
2.05757e-07
-6.52386e-17
-3.69066e-10
1.45129e-07
-1.08007e-17
5.74101e-08
2.42191e-17
-1.89571e-08
-1.85677e-08
-9.83511e-16
-1.93221e-08
3.34549e-10
-8.98009e-16
-1.9534e-08
2.06465e-08
-8.09037e-16
-1.95798e-08
4.22909e-08
-7.17488e-16
-1.94486e-08
6.51323e-08
-6.22366e-16
-1.91308e-08
8.89753e-08
-5.25414e-16
-1.86188e-08
1.1364e-07
-4.26913e-16
-1.79086e-08
1.38715e-07
-2.95893e-16
-1.69993e-08
1.63857e-07
-3.58616e-16
-1.58945e-08
1.88485e-07
-4.49388e-16
-1.4603e-08
2.11951e-07
-3.35755e-16
-1.3139e-08
2.3349e-07
-2.51973e-16
-1.15251e-08
2.51973e-07
-1.37159e-16
-9.79232e-09
2.66193e-07
-2.85858e-16
-7.98259e-09
2.74625e-07
-1.97621e-16
-6.15162e-09
2.75308e-07
-1.38741e-16
-4.37154e-09
2.65877e-07
-7.81348e-17
-2.73419e-09
2.43465e-07
1.84001e-17
-1.3563e-09
2.0438e-07
-7.47333e-17
-3.83907e-10
1.44156e-07
-1.11931e-17
5.70262e-08
2.54233e-17
-1.98976e-08
-1.80731e-08
-9.89299e-16
-2.0247e-08
6.84212e-10
-9.03871e-16
-2.04385e-08
2.0838e-08
-8.14646e-16
-2.04593e-08
4.23119e-08
-7.22529e-16
-2.02984e-08
6.49716e-08
-6.26409e-16
-1.99464e-08
8.86233e-08
-5.28015e-16
-1.93955e-08
1.13089e-07
-4.27301e-16
-1.86418e-08
1.37962e-07
-2.91494e-16
-1.7684e-08
1.629e-07
-3.60246e-16
-1.6526e-08
1.87327e-07
-4.58239e-16
-1.51767e-08
2.10602e-07
-3.4114e-16
-1.36504e-08
2.31964e-07
-2.55211e-16
-1.19704e-08
2.50293e-07
-1.36694e-16
-1.01686e-08
2.64391e-07
-2.9237e-16
-8.2881e-09
2.72744e-07
-2.01367e-16
-6.38653e-09
2.73406e-07
-1.41127e-16
-4.53837e-09
2.64029e-07
-7.99175e-17
-2.83866e-09
2.41765e-07
1.71652e-17
-1.40829e-09
2.02949e-07
-7.9476e-17
-3.98733e-10
1.43147e-07
-1.13857e-17
5.66274e-08
2.70115e-17
-2.08529e-08
-1.75917e-08
-9.95321e-16
-2.11844e-08
1.01594e-09
-9.09804e-16
-2.13534e-08
2.1007e-08
-8.20159e-16
-2.13472e-08
4.2306e-08
-7.2733e-16
-2.1155e-08
6.47795e-08
-6.30077e-16
-2.07671e-08
8.82355e-08
-5.30103e-16
-2.01759e-08
1.12498e-07
-4.27026e-16
-1.93773e-08
1.37163e-07
-2.86246e-16
-1.83702e-08
1.61893e-07
-3.61241e-16
-1.71582e-08
1.86115e-07
-4.66347e-16
-1.57503e-08
2.09194e-07
-3.46111e-16
-1.41613e-08
2.30375e-07
-2.58101e-16
-1.24149e-08
2.48546e-07
-1.35949e-16
-1.0544e-08
2.6252e-07
-2.98679e-16
-8.59285e-09
2.70793e-07
-2.05071e-16
-6.6208e-09
2.71434e-07
-1.4358e-16
-4.70474e-09
2.62113e-07
-8.1905e-17
-2.94285e-09
2.40004e-07
1.55646e-17
-1.46016e-09
2.01467e-07
-8.41222e-17
-4.13535e-10
1.421e-07
-1.16761e-17
5.62139e-08
2.82859e-17
-2.18215e-08
-1.71261e-08
-1.00172e-15
-2.21328e-08
1.32749e-09
-9.15927e-16
-2.22772e-08
2.11515e-08
-8.2568e-16
-2.22422e-08
4.22712e-08
-7.31976e-16
-2.20169e-08
6.45543e-08
-6.33454e-16
-2.15918e-08
8.78104e-08
-5.318e-16
-2.0959e-08
1.11866e-07
-4.2624e-16
-2.01145e-08
1.36319e-07
-2.76992e-16
-1.9057e-08
1.60835e-07
-3.61813e-16
-1.77902e-08
1.84848e-07
-4.74264e-16
-1.63233e-08
2.07727e-07
-3.5091e-16
-1.46713e-08
2.28723e-07
-2.6091e-16
-1.28584e-08
2.46734e-07
-1.35174e-16
-1.09183e-08
2.6058e-07
-3.05123e-16
-8.8966e-09
2.68771e-07
-2.08782e-16
-6.85425e-09
2.69392e-07
-1.46003e-16
-4.87052e-09
2.60129e-07
-8.38063e-17
-3.04668e-09
2.3818e-07
1.44495e-17
-1.51187e-09
1.99932e-07
-8.80448e-17
-4.283e-10
1.41016e-07
-1.16365e-17
5.57856e-08
2.98142e-17
-2.28015e-08
-1.66786e-08
-1.00864e-15
-2.30904e-08
1.6167e-09
-9.22353e-16
-2.32084e-08
2.12695e-08
-8.31299e-16
-2.31429e-08
4.22059e-08
-7.36549e-16
-2.2883e-08
6.42945e-08
-6.36628e-16
-2.24193e-08
8.73467e-08
-5.33182e-16
-2.17437e-08
1.1119e-07
-4.25041e-16
-2.08523e-08
1.35428e-07
-2.67473e-16
-1.97437e-08
1.59727e-07
-3.61966e-16
-1.84216e-08
1.83526e-07
-4.81903e-16
-1.68952e-08
2.06201e-07
-3.55351e-16
-1.51799e-08
2.27008e-07
-2.63376e-16
-1.33005e-08
2.44854e-07
-1.34117e-16
-1.12913e-08
2.58571e-07
-3.11335e-16
-9.19911e-09
2.66679e-07
-2.12407e-16
-7.08671e-09
2.6728e-07
-1.4839e-16
-5.03559e-09
2.58078e-07
-8.5684e-17
-3.15007e-09
2.36294e-07
1.35708e-17
-1.56338e-09
1.98345e-07
-9.1316e-17
-4.43018e-10
1.39896e-07
-1.14842e-17
5.53426e-08
3.10899e-17
-2.3791e-08
-1.62517e-08
-1.0162e-15
-2.40555e-08
1.88151e-09
-9.29187e-16
-2.41452e-08
2.13593e-08
-8.37102e-16
-2.40476e-08
4.21086e-08
-7.4112e-16
-2.37518e-08
6.39989e-08
-6.3966e-16
-2.32483e-08
8.68432e-08
-5.34357e-16
-2.2529e-08
1.10471e-07
-4.23535e-16
-2.15899e-08
1.34489e-07
-2.62425e-16
-2.04294e-08
1.58567e-07
-3.61844e-16
-1.90515e-08
1.82149e-07
-4.89365e-16
-1.74654e-08
2.04615e-07
-3.59709e-16
-1.56866e-08
2.25229e-07
-2.65878e-16
-1.37406e-08
2.42908e-07
-1.33152e-16
-1.16624e-08
2.56493e-07
-3.17666e-16
-9.50013e-09
2.64517e-07
-2.16108e-16
-7.31798e-09
2.65098e-07
-1.50736e-16
-5.19981e-09
2.5596e-07
-8.73239e-17
-3.25295e-09
2.34347e-07
8.56473e-18
-1.61465e-09
1.96707e-07
-9.37569e-17
-4.57676e-10
1.38739e-07
-1.1019e-17
5.48849e-08
3.25103e-17
-2.47878e-08
-1.58474e-08
-1.02454e-15
-2.5026e-08
2.12004e-09
-9.36519e-16
-2.50859e-08
2.14193e-08
-8.43155e-16
-2.49548e-08
4.19777e-08
-7.45741e-16
-2.46218e-08
6.36661e-08
-6.42607e-16
-2.40775e-08
8.62989e-08
-5.35365e-16
-2.33135e-08
1.09708e-07
-4.21873e-16
-2.2326e-08
1.33501e-07
-2.58599e-16
-2.11133e-08
1.57354e-07
-3.61556e-16
-1.96792e-08
1.80715e-07
-4.96522e-16
-1.80331e-08
2.02969e-07
-3.63746e-16
-1.61909e-08
2.23387e-07
-2.68049e-16
-1.41784e-08
2.40896e-07
-1.3189e-16
-1.20315e-08
2.54346e-07
-3.2376e-16
-9.79938e-09
2.62285e-07
-2.19627e-16
-7.54787e-09
2.62846e-07
-1.52891e-16
-5.36304e-09
2.53775e-07
-8.86562e-17
-3.35523e-09
2.3234e-07
4.28037e-18
-1.66564e-09
1.95017e-07
-9.5501e-17
-4.72263e-10
1.37546e-07
-1.03513e-17
5.44126e-08
3.37353e-17
-2.57896e-08
-1.54678e-08
-1.03373e-15
-2.59999e-08
2.33056e-09
-9.44414e-16
-2.60284e-08
2.14478e-08
-8.49505e-16
-2.58625e-08
4.18122e-08
-7.50451e-16
-2.54914e-08
6.32951e-08
-6.45499e-16
-2.49054e-08
8.5713e-08
-5.36259e-16
-2.40962e-08
1.08899e-07
-4.20247e-16
-2.30597e-08
1.32465e-07
-2.50989e-16
-2.17943e-08
1.56089e-07
-3.61405e-16
-2.03038e-08
1.79224e-07
-5.0352e-16
-1.85978e-08
2.01263e-07
-3.67824e-16
-1.66923e-08
2.21482e-07
-2.70401e-16
-1.46135e-08
2.38817e-07
-1.30856e-16
-1.23982e-08
2.52131e-07
-3.30059e-16
-1.00966e-08
2.59984e-07
-2.23281e-16
-7.77615e-09
2.60526e-07
-1.55013e-16
-5.52515e-09
2.51524e-07
-8.97704e-17
-3.45682e-09
2.30271e-07
2.14416e-18
-1.71629e-09
1.93277e-07
-9.66218e-17
-4.86766e-10
1.36316e-07
-9.44258e-18
5.39259e-08
3.49928e-17
-2.6794e-08
-1.51147e-08
-1.04384e-15
-2.69747e-08
2.51157e-09
-9.52902e-16
-2.69706e-08
2.14438e-08
-8.5618e-16
-2.6769e-08
4.16108e-08
-7.55269e-16
-2.63589e-08
6.28851e-08
-6.4835e-16
-2.57306e-08
8.50847e-08
-5.37002e-16
-2.48756e-08
1.08044e-07
-4.18571e-16
-2.37899e-08
1.31379e-07
-2.44519e-16
-2.24716e-08
1.54771e-07
-3.61492e-16
-2.09247e-08
1.77678e-07
-5.10211e-16
-1.91587e-08
1.99497e-07
-3.71597e-16
-1.719e-08
2.19513e-07
-2.72444e-16
-1.50453e-08
2.36673e-07
-1.29516e-16
-1.2762e-08
2.49848e-07
-3.36059e-16
-1.03914e-08
2.57613e-07
-2.26652e-16
-8.00262e-09
2.58137e-07
-1.56803e-16
-5.68597e-09
2.49207e-07
-9.02921e-17
-3.55762e-09
2.28143e-07
1.76148e-18
-1.76658e-09
1.91486e-07
-9.69579e-17
-5.01171e-10
1.35051e-07
-8.31273e-18
5.34247e-08
3.61192e-17
-2.77983e-08
-1.47896e-08
-1.05483e-15
-2.79482e-08
2.66182e-09
-9.61976e-16
-2.79105e-08
2.14062e-08
-8.63173e-16
-2.76723e-08
4.13729e-08
-7.60201e-16
-2.72226e-08
6.24355e-08
-6.51153e-16
-2.65515e-08
8.44136e-08
-5.37593e-16
-2.56505e-08
1.07143e-07
-4.1676e-16
-2.45153e-08
1.30244e-07
-2.38096e-16
-2.31441e-08
1.534e-07
-3.61301e-16
-2.15408e-08
1.76075e-07
-5.1672e-16
-1.97152e-08
1.97671e-07
-3.75506e-16
-1.76836e-08
2.17482e-07
-2.74812e-16
-1.54734e-08
2.34462e-07
-1.28532e-16
-1.31226e-08
2.47497e-07
-3.42359e-16
-1.06836e-08
2.55174e-07
-2.3022e-16
-8.22706e-09
2.55681e-07
-1.58604e-16
-5.84536e-09
2.46826e-07
-9.0397e-17
-3.65754e-09
2.25955e-07
5.68833e-18
-1.81644e-09
1.89645e-07
-9.66627e-17
-5.15465e-10
1.3375e-07
-7.08541e-18
5.29092e-08
3.71541e-17
-2.87997e-08
-1.44937e-08
-1.06663e-15
-2.89178e-08
2.78031e-09
-9.71586e-16
-2.88458e-08
2.13342e-08
-8.70451e-16
-2.85705e-08
4.10979e-08
-7.65233e-16
-2.80807e-08
6.1946e-08
-6.53902e-16
-2.73666e-08
8.36995e-08
-5.37976e-16
-2.64194e-08
1.06196e-07
-4.14568e-16
-2.52347e-08
1.29059e-07
-2.31651e-16
-2.38108e-08
1.51976e-07
-3.60779e-16
-2.21514e-08
1.74415e-07
-5.2298e-16
-2.02664e-08
1.95786e-07
-3.79142e-16
-1.81724e-08
2.15388e-07
-2.76881e-16
-1.58972e-08
2.32187e-07
-1.27154e-16
-1.34796e-08
2.4508e-07
-3.48284e-16
-1.09729e-08
2.52668e-07
-2.33412e-16
-8.44922e-09
2.53157e-07
-1.59987e-16
-6.00316e-09
2.4438e-07
-8.98722e-17
-3.75649e-09
2.23708e-07
8.7251e-18
-1.86583e-09
1.87754e-07
-9.5742e-17
-5.29633e-10
1.32414e-07
-5.68772e-18
5.23796e-08
3.81036e-17
-2.97953e-08
-1.42281e-08
-1.07908e-15
-2.9881e-08
2.86636e-09
-9.81591e-16
-2.97741e-08
2.12274e-08
-8.77943e-16
-2.94614e-08
4.07855e-08
-7.70301e-16
-2.89314e-08
6.14162e-08
-6.56572e-16
-2.81743e-08
8.29424e-08
-5.38164e-16
-2.71809e-08
1.05203e-07
-4.11997e-16
-2.5947e-08
1.27826e-07
-2.23825e-16
-2.44706e-08
1.505e-07
-3.59992e-16