/*--------------------------------*- C++ -*----------------------------------*\
| =========                 |                                                 |
| \\      /  F ield         | OpenFOAM: The Open Source CFD Toolbox           |
|  \\    /   O peration     | Version:  v2012                                 |
|   \\  /    A nd           | Website:  www.openfoam.com                      |
|    \\/     M anipulation  |                                                 |
\*---------------------------------------------------------------------------*/
FoamFile
{
    version     2.0;
    format      ascii;
    class       volScalarField;
    location    "0.95";
    object      p;
}
// * * * * * * * * * * * * * * * * * * * * * * * * * * * * * * * * * * * * * //

dimensions      [1 -1 -2 0 0 0 0];


internalField   nonuniform List<scalar> 
3332
(
3.50203e+06
3.5019e+06
3.50187e+06
3.50176e+06
3.50179e+06
3.50182e+06
3.50184e+06
3.50191e+06
3.50123e+06
3.50236e+06
3.50283e+06
3.50227e+06
3.50206e+06
3.50194e+06
3.50191e+06
3.50199e+06
3.50205e+06
3.50206e+06
3.50204e+06
3.502e+06
3.50195e+06
3.50189e+06
3.50183e+06
3.50126e+06
3.50235e+06
3.50274e+06
3.50249e+06
3.5024e+06
3.50224e+06
3.50215e+06
3.50215e+06
3.50219e+06
3.50218e+06
3.50217e+06
3.50214e+06
3.50209e+06
3.50202e+06
3.50197e+06
3.50168e+06
3.50251e+06
3.50283e+06
3.50268e+06
3.50268e+06
3.50257e+06
3.5025e+06
3.50245e+06
3.50243e+06
3.50239e+06
3.50236e+06
3.50231e+06
3.50225e+06
3.50217e+06
3.50211e+06
3.50171e+06
3.50263e+06
3.50287e+06
3.50278e+06
3.50284e+06
3.50281e+06
3.50278e+06
3.50272e+06
3.50268e+06
3.50262e+06
3.50257e+06
3.5025e+06
3.50243e+06
3.50234e+06
3.50227e+06
3.50203e+06
3.50266e+06
3.50305e+06
3.50297e+06
3.50302e+06
3.50299e+06
3.503e+06
3.50296e+06
3.50292e+06
3.50285e+06
3.50279e+06
3.5027e+06
3.50262e+06
3.50252e+06
3.50244e+06
3.50207e+06
3.50287e+06
3.50315e+06
3.5031e+06
3.50318e+06
3.50321e+06
3.50325e+06
3.50323e+06
3.5032e+06
3.50312e+06
3.50304e+06
3.50294e+06
3.50284e+06
3.50272e+06
3.50263e+06
3.50293e+06
3.50298e+06
3.5031e+06
3.50335e+06
3.50344e+06
3.50345e+06
3.50351e+06
3.50348e+06
3.50346e+06
3.50337e+06
3.50329e+06
3.50318e+06
3.50306e+06
3.50293e+06
3.50282e+06
3.50305e+06
3.50325e+06
3.50315e+06
3.50349e+06
3.50367e+06
3.50376e+06
3.50384e+06
3.50381e+06
3.50377e+06
3.50367e+06
3.50357e+06
3.50345e+06
3.50332e+06
3.50317e+06
3.50303e+06
3.5017e+06
3.50241e+06
3.50275e+06
3.50337e+06
3.50373e+06
3.50396e+06
3.5041e+06
3.5041e+06
3.50406e+06
3.50396e+06
3.50385e+06
3.5037e+06
3.50356e+06
3.5034e+06
3.50325e+06
3.5019e+06
3.50282e+06
3.50286e+06
3.5035e+06
3.50393e+06
3.50426e+06
3.50445e+06
3.50447e+06
3.50441e+06
3.5043e+06
3.50418e+06
3.50401e+06
3.50385e+06
3.50367e+06
3.50349e+06
3.50333e+06
3.50274e+06
3.50243e+06
3.50353e+06
3.50405e+06
3.50442e+06
3.50466e+06
3.5047e+06
3.50466e+06
3.50456e+06
3.50445e+06
3.50428e+06
3.50411e+06
3.50392e+06
3.50373e+06
3.50347e+06
3.50308e+06
3.50267e+06
3.50383e+06
3.50445e+06
3.50487e+06
3.50514e+06
3.50517e+06
3.50512e+06
3.505e+06
3.50486e+06
3.50466e+06
3.50445e+06
3.50423e+06
3.50401e+06
3.502e+06
3.50303e+06
3.50422e+06
3.50431e+06
3.50477e+06
3.50516e+06
3.50543e+06
3.5054e+06
3.50537e+06
3.50527e+06
3.50514e+06
3.50494e+06
3.50474e+06
3.5045e+06
3.50427e+06
3.50228e+06
3.50372e+06
3.50479e+06
3.50507e+06
3.50562e+06
3.50592e+06
3.50612e+06
3.50603e+06
3.50598e+06
3.50584e+06
3.50568e+06
3.50543e+06
3.50518e+06
3.5049e+06
3.50462e+06
3.50451e+06
3.50387e+06
3.50441e+06
3.50529e+06
3.50584e+06
3.50591e+06
3.50613e+06
3.50609e+06
3.50613e+06
3.50605e+06
3.50594e+06
3.50573e+06
3.50549e+06
3.50521e+06
3.50491e+06
3.50536e+06
3.50567e+06
3.50579e+06
3.50636e+06
3.50678e+06
3.50683e+06
3.50703e+06
3.50698e+06
3.507e+06
3.50687e+06
3.50669e+06
3.50642e+06
3.5061e+06
3.50574e+06
3.50537e+06
3.49875e+06
3.50209e+06
3.5038e+06
3.505e+06
3.50573e+06
3.5062e+06
3.50665e+06
3.50682e+06
3.50699e+06
3.50699e+06
3.50692e+06
3.50674e+06
3.50646e+06
3.50609e+06
3.50569e+06
3.5005e+06
3.50535e+06
3.50633e+06
3.50685e+06
3.50726e+06
3.50764e+06
3.50804e+06
3.50817e+06
3.50827e+06
3.50816e+06
3.50796e+06
3.50766e+06
3.50724e+06
3.50674e+06
3.50623e+06
3.50493e+06
3.5043e+06
3.50385e+06
3.5055e+06
3.50621e+06
3.5065e+06
3.5071e+06
3.50747e+06
3.50783e+06
3.50791e+06
3.50787e+06
3.5077e+06
3.50736e+06
3.50692e+06
3.50644e+06
3.508e+06
3.50841e+06
3.50786e+06
3.50897e+06
3.5094e+06
3.50945e+06
3.50986e+06
3.50994e+06
3.51003e+06
3.50981e+06
3.50948e+06
3.50903e+06
3.50844e+06
3.50779e+06
3.50712e+06
3.50062e+06
3.503e+06
3.51035e+06
3.50768e+06
3.50763e+06
3.50776e+06
3.50854e+06
3.5088e+06
3.50913e+06
3.50916e+06
3.50905e+06
3.50879e+06
3.50836e+06
3.50782e+06
3.50723e+06
3.50657e+06
3.51165e+06
3.51841e+06
3.51515e+06
3.5145e+06
3.51375e+06
3.51382e+06
3.5134e+06
3.51309e+06
3.5125e+06
3.51181e+06
3.51101e+06
3.51011e+06
3.50917e+06
3.50825e+06
3.51767e+06
3.51059e+06
3.51376e+06
3.51264e+06
3.51227e+06
3.51087e+06
3.51102e+06
3.51102e+06
3.51117e+06
3.51103e+06
3.51073e+06
3.5103e+06
3.5097e+06
3.50899e+06
3.50823e+06
3.52965e+06
3.5298e+06
3.53049e+06
3.52685e+06
3.52475e+06
3.52223e+06
3.52111e+06
3.51991e+06
3.51869e+06
3.51732e+06
3.51579e+06
3.51429e+06
3.51274e+06
3.51126e+06
3.50988e+06
3.52278e+06
3.51038e+06
3.51658e+06
3.51758e+06
3.51638e+06
3.51622e+06
3.51615e+06
3.51588e+06
3.51527e+06
3.51461e+06
3.51367e+06
3.51275e+06
3.51167e+06
3.51057e+06
3.50949e+06
3.54629e+06
3.54952e+06
3.54977e+06
3.54419e+06
3.5394e+06
3.53767e+06
3.5352e+06
3.53276e+06
3.52943e+06
3.52639e+06
3.52302e+06
3.52006e+06
3.51713e+06
3.59034e+06
3.53935e+06
3.53063e+06
3.52934e+06
3.52596e+06
3.52739e+06
3.52573e+06
3.5247e+06
3.52235e+06
3.5205e+06
3.5183e+06
3.51651e+06
3.5146e+06
3.64088e+06
3.6147e+06
3.59336e+06
3.58388e+06
3.57504e+06
3.57253e+06
3.56463e+06
3.55854e+06
3.55018e+06
3.54319e+06
3.53591e+06
3.52996e+06
3.52429e+06
3.66195e+06
3.57032e+06
3.56414e+06
3.56932e+06
3.56179e+06
3.56204e+06
3.5528e+06
3.54738e+06
3.5387e+06
3.53172e+06
3.52635e+06
3.52202e+06
3.51833e+06
3.76938e+06
3.7057e+06
3.66754e+06
3.67471e+06
3.65896e+06
3.65943e+06
3.63418e+06
3.61754e+06
3.59436e+06
3.57681e+06
3.55997e+06
3.54679e+06
3.53541e+06
3.90931e+06
3.73261e+06
3.72593e+06
3.69271e+06
3.65713e+06
3.67393e+06
3.63122e+06
3.61525e+06
3.57058e+06
3.55018e+06
3.5368e+06
3.52644e+06
3.52087e+06
3.98006e+06
3.88708e+06
3.90492e+06
3.9053e+06
3.88824e+06
3.97209e+06
3.78681e+06
3.7355e+06
3.65539e+06
3.62604e+06
3.59269e+06
3.56921e+06
3.54948e+06
4.25124e+06
3.99858e+06
3.98826e+06
3.90236e+06
3.8783e+06
3.9884e+06
3.99071e+06
3.91801e+06
3.63447e+06
3.60337e+06
3.55872e+06
3.53293e+06
3.52219e+06
4.04804e+06
4.00934e+06
4.004e+06
3.97849e+06
4.00257e+06
4.0242e+06
4.00105e+06
3.99291e+06
3.71417e+06
3.73973e+06
3.63915e+06
3.58568e+06
3.55319e+06
3.9649e+06
3.96351e+06
4.00109e+06
3.97025e+06
3.85524e+06
3.94542e+06
3.99097e+06
3.83956e+06
3.45741e+06
3.40668e+06
3.492e+06
3.47688e+06
3.49547e+06
4.00066e+06
4.00043e+06
4.00106e+06
4.00105e+06
3.88154e+06
3.99991e+06
3.99947e+06
3.99481e+06
3.99543e+06
3.99915e+06
3.71554e+06
3.53644e+06
3.53944e+06
4.00085e+06
4.0007e+06
4.00065e+06
4.00055e+06
4.0005e+06
4.00055e+06
4.00057e+06
4.00058e+06
4.0007e+06
4.00089e+06
4.00091e+06
4.00083e+06
4.00073e+06
4.00071e+06
4.00073e+06
4.00073e+06
4.00079e+06
4.00086e+06
4.00095e+06
4.00111e+06
4.00094e+06
4.00085e+06
4.00082e+06
4.00078e+06
4.00078e+06
4.00081e+06
4.00086e+06
4.00092e+06
4.00102e+06
4.00114e+06
4.00099e+06
4.00093e+06
4.00089e+06
4.00088e+06
4.00088e+06
4.0009e+06
4.00094e+06
4.00101e+06
4.0011e+06
4.01812e+06
4.02804e+06
4.02083e+06
4.01882e+06
4.01755e+06
4.02166e+06
4.02983e+06
4.04246e+06
4.05698e+06
4.06972e+06
4.0743e+06
4.17009e+06
4.17019e+06
4.16904e+06
4.1685e+06
4.1673e+06
4.16626e+06
4.16485e+06
4.16388e+06
4.16271e+06
4.163e+06
4.21617e+06
4.22166e+06
4.22137e+06
4.2241e+06
4.2245e+06
4.22471e+06
4.22434e+06
4.22194e+06
4.22057e+06
4.21796e+06
4.34576e+06
4.35626e+06
4.35556e+06
4.35765e+06
4.35457e+06
4.35001e+06
4.34311e+06
4.33383e+06
4.32549e+06
4.31846e+06
4.36339e+06
4.40388e+06
4.41719e+06
4.43233e+06
4.43385e+06
4.42748e+06
4.41445e+06
4.38834e+06
4.36499e+06
4.33111e+06
4.48106e+06
4.52348e+06
4.56011e+06
4.5723e+06
4.57162e+06
4.5608e+06
4.54245e+06
4.51194e+06
4.47846e+06
4.40057e+06
4.48897e+06
4.49734e+06
4.49987e+06
4.49983e+06
4.4998e+06
4.49955e+06
4.4993e+06
4.49878e+06
4.49931e+06
4.48849e+06
4.49735e+06
4.49708e+06
4.49695e+06
4.49695e+06
4.497e+06
4.4971e+06
4.49731e+06
4.49751e+06
4.49774e+06
4.49797e+06
4.49772e+06
4.49817e+06
4.49841e+06
4.49848e+06
4.49849e+06
4.49829e+06
4.49822e+06
4.49777e+06
4.49779e+06
4.49686e+06
4.49744e+06
4.4974e+06
4.49744e+06
4.49747e+06
4.49748e+06
4.49749e+06
4.49756e+06
4.49759e+06
4.49766e+06
4.49772e+06
4.49802e+06
4.49799e+06
4.49806e+06
4.49806e+06
4.49805e+06
4.49798e+06
4.49808e+06
4.49794e+06
4.49792e+06
4.4978e+06
4.49764e+06
4.4976e+06
4.49769e+06
4.49772e+06
4.4977e+06
4.49771e+06
4.49785e+06
4.49783e+06
4.49785e+06
4.49786e+06
4.49797e+06
4.49796e+06
4.49793e+06
4.49794e+06
4.4979e+06
4.49789e+06
4.49801e+06
4.49796e+06
4.49796e+06
4.49795e+06
4.49782e+06
4.49788e+06
4.49778e+06
4.49776e+06
4.49773e+06
4.49777e+06
4.49792e+06
4.49793e+06
4.49794e+06
4.49795e+06
4.49807e+06
4.49808e+06
4.49785e+06
4.49788e+06
4.49807e+06
4.49808e+06
4.49807e+06
4.49806e+06
4.49806e+06
4.49806e+06
4.49802e+06
4.49808e+06
4.49782e+06
4.49785e+06
4.49802e+06
4.49804e+06
4.49804e+06
4.49806e+06
4.49807e+06
4.49807e+06
4.49813e+06
4.49821e+06
4.49792e+06
4.49795e+06
4.49813e+06
4.49815e+06
4.49815e+06
4.49815e+06
4.49816e+06
4.49816e+06
4.49814e+06
4.49821e+06
4.49795e+06
4.49801e+06
4.49818e+06
4.49819e+06
4.49818e+06
4.49819e+06
4.49819e+06
4.49819e+06
4.49854e+06
4.49843e+06
4.49806e+06
4.49807e+06
4.49828e+06
4.49828e+06
4.49827e+06
4.49827e+06
4.49827e+06
4.49827e+06
4.4986e+06
4.49856e+06
4.49812e+06
4.49811e+06
4.49834e+06
4.49833e+06
4.49832e+06
4.49833e+06
4.49833e+06
4.49832e+06
4.49856e+06
4.49857e+06
4.4985e+06
4.49846e+06
4.49843e+06
4.49842e+06
4.49841e+06
4.49841e+06
4.4984e+06
4.4984e+06
4.49859e+06
4.49867e+06
4.49855e+06
4.4985e+06
4.49848e+06
4.49847e+06
4.49847e+06
4.49846e+06
4.49846e+06
4.49846e+06
4.49865e+06
4.4987e+06
4.4986e+06
4.49856e+06
4.49855e+06
4.49854e+06
4.49854e+06
4.49853e+06
4.49853e+06
4.49853e+06
4.49866e+06
4.49869e+06
4.49863e+06
4.49861e+06
4.4986e+06
4.49859e+06
4.49858e+06
4.49858e+06
4.49857e+06
4.49857e+06
4.4987e+06
4.49873e+06
4.49871e+06
4.49869e+06
4.49868e+06
4.49867e+06
4.49866e+06
4.49865e+06
4.49864e+06
4.49864e+06
4.49872e+06
4.49873e+06
4.49872e+06
4.49872e+06
4.49872e+06
4.49871e+06
4.4987e+06
4.4987e+06
4.49869e+06
4.49868e+06
4.49875e+06
4.49881e+06
4.49881e+06
4.49883e+06
4.49881e+06
4.49877e+06
4.49871e+06
4.4987e+06
4.49871e+06
4.49871e+06
4.49877e+06
4.49881e+06
4.4988e+06
4.49884e+06
4.49882e+06
4.49879e+06
4.49874e+06
4.49874e+06
4.49874e+06
4.49874e+06
4.49883e+06
4.49886e+06
4.4988e+06
4.49885e+06
4.49891e+06
4.49888e+06
4.49882e+06
4.49881e+06
4.49881e+06
4.49881e+06
4.49886e+06
4.49884e+06
4.49879e+06
4.49884e+06
4.49892e+06
4.49889e+06
4.49883e+06
4.49882e+06
4.49882e+06
4.49881e+06
4.49892e+06
4.49894e+06
4.49893e+06
4.49894e+06
4.49893e+06
4.49891e+06
4.4989e+06
4.49889e+06
4.49889e+06
4.49888e+06
4.49892e+06
4.49893e+06
4.49891e+06
4.49891e+06
4.49891e+06
4.49889e+06
4.49888e+06
4.49887e+06
4.49886e+06
4.49886e+06
4.49905e+06
4.49904e+06
4.49905e+06
4.49905e+06
4.49904e+06
4.49902e+06
4.499e+06
4.49899e+06
4.49898e+06
4.49897e+06
4.49903e+06
4.49902e+06
4.49901e+06
4.499e+06
4.49898e+06
4.49896e+06
4.49894e+06
4.49891e+06
4.4989e+06
4.49888e+06
4.49918e+06
4.49918e+06
4.49919e+06
4.49919e+06
4.49918e+06
4.49917e+06
4.49915e+06
4.49913e+06
4.49912e+06
4.4991e+06
4.49916e+06
4.49915e+06
4.49913e+06
4.49912e+06
4.49912e+06
4.49908e+06
4.49905e+06
4.49897e+06
4.49892e+06
4.49877e+06
4.4994e+06
4.49939e+06
4.49937e+06
4.49938e+06
4.49938e+06
4.49939e+06
4.4994e+06
4.49938e+06
4.49944e+06
4.49936e+06
4.49964e+06
4.49958e+06
4.49964e+06
4.49963e+06
4.49965e+06
4.49965e+06
4.49966e+06
4.49939e+06
4.49937e+06
4.49934e+06
4.49935e+06
4.49936e+06
4.49937e+06
4.49939e+06
4.49938e+06
4.49943e+06
4.49939e+06
4.49956e+06
4.49957e+06
4.49962e+06
4.49963e+06
4.49964e+06
4.49965e+06
4.49965e+06
4.49955e+06
4.49952e+06
4.49948e+06
4.49951e+06
4.49953e+06
4.49953e+06
4.49954e+06
4.49954e+06
4.49957e+06
4.49956e+06
4.49962e+06
4.49961e+06
4.49963e+06
4.49963e+06
4.49964e+06
4.49965e+06
4.49965e+06
4.49954e+06
4.49949e+06
4.49946e+06
4.49949e+06
4.49951e+06
4.49951e+06
4.49953e+06
4.49953e+06
4.49955e+06
4.49956e+06
4.4996e+06
4.4996e+06
4.49962e+06
4.49963e+06
4.49964e+06
4.49964e+06
4.49965e+06
4.49964e+06
4.49959e+06
4.49955e+06
4.49957e+06
4.49959e+06
4.49959e+06
4.4996e+06
4.4996e+06
4.49961e+06
4.49961e+06
4.49963e+06
4.49963e+06
4.49964e+06
4.49964e+06
4.49964e+06
4.49964e+06
4.49965e+06
4.49961e+06
4.49957e+06
4.49955e+06
4.49956e+06
4.49958e+06
4.49958e+06
4.49959e+06
4.49959e+06
4.4996e+06
4.49961e+06
4.49962e+06
4.49962e+06
4.49963e+06
4.49963e+06
4.49964e+06
4.49964e+06
4.49965e+06
4.49962e+06
4.49962e+06
4.4996e+06
4.49961e+06
4.49962e+06
4.49962e+06
4.49962e+06
4.49962e+06
4.49963e+06
4.49963e+06
4.49963e+06
4.49963e+06
4.49964e+06
4.49964e+06
4.49964e+06
4.49964e+06
4.49964e+06
4.4996e+06
4.49961e+06
4.4996e+06
4.49961e+06
4.49961e+06
4.49961e+06
4.49961e+06
4.49962e+06
4.49962e+06
4.49962e+06
4.49963e+06
4.49963e+06
4.49963e+06
4.49964e+06
4.49964e+06
4.49964e+06
4.49964e+06
4.49963e+06
4.49963e+06
4.49963e+06
4.49963e+06
4.49963e+06
4.49963e+06
4.49963e+06
4.49963e+06
4.49963e+06
4.49963e+06
4.49964e+06
4.49964e+06
4.49964e+06
4.49964e+06
4.49964e+06
4.49964e+06
4.49964e+06
4.49962e+06
4.49962e+06
4.49962e+06
4.49962e+06
4.49962e+06
4.49962e+06
4.49962e+06
4.49963e+06
4.49963e+06
4.49963e+06
4.49963e+06
4.49963e+06
4.49964e+06
4.49964e+06
4.49964e+06
4.49964e+06
4.49964e+06
4.49963e+06
4.49963e+06
4.49963e+06
4.49963e+06
4.49963e+06
4.49963e+06
4.49963e+06
4.49963e+06
4.49963e+06
4.49963e+06
4.49963e+06
4.49964e+06
4.49964e+06
4.49964e+06
4.49964e+06
4.49964e+06
4.49964e+06
4.49964e+06
4.49964e+06
4.49962e+06
4.49962e+06
4.49962e+06
4.49962e+06
4.49963e+06
4.49963e+06
4.49963e+06
4.49963e+06
4.49963e+06
4.49963e+06
4.49963e+06
4.49963e+06
4.49963e+06
4.49964e+06
4.49964e+06
4.49964e+06
4.49964e+06
4.49964e+06
4.49964e+06
4.49963e+06
4.49963e+06
4.49963e+06
4.49963e+06
4.49963e+06
4.49963e+06
4.49963e+06
4.49963e+06
4.49963e+06
4.49963e+06
4.49963e+06
4.49963e+06
4.49963e+06
4.49963e+06
4.49963e+06
4.49964e+06
4.49964e+06
4.49964e+06
4.49964e+06
4.49963e+06
4.49963e+06
4.49962e+06
4.49963e+06
4.49963e+06
4.49963e+06
4.49963e+06
4.49963e+06
4.49963e+06
4.49963e+06
4.49963e+06
4.49963e+06
4.49963e+06
4.49963e+06
4.49963e+06
4.49963e+06
4.49963e+06
4.49963e+06
4.49963e+06
4.49963e+06
4.49963e+06
4.49963e+06
4.49963e+06
4.49963e+06
4.49963e+06
4.49963e+06
4.49963e+06
4.49963e+06
4.49963e+06
4.49963e+06
4.49963e+06
4.49963e+06
4.49963e+06
4.49963e+06
4.49963e+06
4.49963e+06
4.49963e+06
4.49963e+06
4.49963e+06
4.49963e+06
4.49963e+06
4.49963e+06
4.49963e+06
4.49963e+06
4.49963e+06
4.49963e+06
4.49963e+06
4.49963e+06
4.49963e+06
4.49963e+06
4.49963e+06
4.49963e+06
4.49963e+06
4.49963e+06
4.49963e+06
4.49963e+06
4.49963e+06
4.49963e+06
4.49963e+06
4.49963e+06
4.49963e+06
4.49963e+06
4.49963e+06
4.49963e+06
4.49963e+06
4.49963e+06
4.49963e+06
4.49963e+06
4.49963e+06
4.49963e+06
4.49963e+06
4.49963e+06
4.49963e+06
4.49963e+06
4.49963e+06
4.49963e+06
4.49963e+06
4.49963e+06
4.49962e+06
4.49962e+06
4.49962e+06
4.49962e+06
4.49962e+06
4.49962e+06
4.49963e+06
4.49963e+06
4.49963e+06
4.49963e+06
4.49963e+06
4.49963e+06
4.49963e+06
4.49963e+06
4.49963e+06
4.49963e+06
4.49963e+06
4.49962e+06
4.49962e+06
4.49962e+06
4.49962e+06
4.49962e+06
4.49962e+06
4.49962e+06
4.49962e+06
4.49962e+06
4.49962e+06
4.49962e+06
4.49962e+06
4.49962e+06
4.49962e+06
4.49962e+06
4.49962e+06
4.49963e+06
4.49963e+06
4.49963e+06
4.49962e+06
4.49962e+06
4.49962e+06
4.49962e+06
4.49962e+06
4.49962e+06
4.49962e+06
4.49962e+06
4.49962e+06
4.49962e+06
4.49962e+06
4.49962e+06
4.49962e+06
4.49962e+06
4.49962e+06
4.49962e+06
4.49962e+06
4.49962e+06
4.49962e+06
4.49962e+06
4.49962e+06
4.49962e+06
4.49962e+06
4.49962e+06
4.49962e+06
4.49962e+06
4.49962e+06
4.49962e+06
4.49962e+06
4.49962e+06
4.49962e+06
4.49962e+06
4.49962e+06
4.49962e+06
4.49962e+06
4.49962e+06
4.49962e+06
4.49962e+06
4.49962e+06
4.49962e+06
4.49962e+06
4.49962e+06
4.49962e+06
4.49962e+06
4.49962e+06
4.49962e+06
4.49962e+06
4.49962e+06
4.49962e+06
4.49962e+06
4.49962e+06
4.49962e+06
4.49962e+06
4.49962e+06
4.49962e+06
4.49962e+06
4.49962e+06
4.49962e+06
4.49962e+06
4.49962e+06
4.49962e+06
4.49962e+06
4.49962e+06
4.49962e+06
4.49962e+06
4.49962e+06
4.49962e+06
4.49962e+06
4.49962e+06
4.49962e+06
4.49962e+06
4.49962e+06
4.49962e+06
4.49962e+06
4.49962e+06
4.49962e+06
4.49962e+06
4.49962e+06
4.49961e+06
4.49961e+06
4.49961e+06
4.49961e+06
4.49961e+06
4.49961e+06
4.49961e+06
4.49961e+06
4.49961e+06
4.49961e+06
4.49962e+06
4.49962e+06
4.49962e+06
4.49962e+06
4.49962e+06
4.49962e+06
4.49962e+06
4.49961e+06
4.49961e+06
4.49961e+06
4.49961e+06
4.49961e+06
4.49961e+06
4.49961e+06
4.49961e+06
4.49961e+06
4.49961e+06
4.49961e+06
4.49961e+06
4.49961e+06
4.49961e+06
4.49961e+06
4.49961e+06
4.49961e+06
4.49961e+06
4.49961e+06
4.49961e+06
4.49961e+06
4.49961e+06
4.49961e+06
4.49961e+06
4.49961e+06
4.49961e+06
4.49961e+06
4.49961e+06
4.49961e+06
4.49961e+06
4.49961e+06
4.49961e+06
4.49961e+06
4.49961e+06
4.49961e+06
4.49961e+06
4.49961e+06
4.49961e+06
4.49961e+06
4.49961e+06
4.49961e+06
4.49961e+06
4.49961e+06
4.49961e+06
4.49961e+06
4.49961e+06
4.49961e+06
4.49961e+06
4.49961e+06
4.49961e+06
4.49961e+06
4.49961e+06
4.49961e+06
4.49961e+06
4.49961e+06
4.49961e+06
4.49961e+06
4.49961e+06
4.49961e+06
4.49961e+06
4.49961e+06
4.49961e+06
4.49961e+06
4.49961e+06
4.49961e+06
4.49961e+06
4.49961e+06
4.49961e+06
4.49961e+06
4.49961e+06
4.49961e+06
4.49961e+06
4.49961e+06
4.49961e+06
4.49961e+06
4.49961e+06
4.4996e+06
4.4996e+06
4.4996e+06
4.4996e+06
4.4996e+06
4.4996e+06
4.4996e+06
4.4996e+06
4.49961e+06
4.49961e+06
4.49961e+06
4.49961e+06
4.49961e+06
4.49961e+06
4.49961e+06
4.49961e+06
4.49961e+06
4.49961e+06
4.49961e+06
4.4996e+06
4.4996e+06
4.4996e+06
4.4996e+06
4.4996e+06
4.4996e+06
4.4996e+06
4.4996e+06
4.4996e+06
4.4996e+06
4.4996e+06
4.4996e+06
4.4996e+06
4.4996e+06
4.4996e+06
4.4996e+06
4.4996e+06
4.4996e+06
4.4996e+06
4.4996e+06
4.4996e+06
4.4996e+06
4.4996e+06
4.4996e+06
4.4996e+06
4.4996e+06
4.4996e+06
4.4996e+06
4.4996e+06
4.4996e+06
4.4996e+06
4.4996e+06
4.4996e+06
4.4996e+06
4.4996e+06
4.4996e+06
4.4996e+06
4.4996e+06
4.4996e+06
4.4996e+06
4.4996e+06
4.4996e+06
4.4996e+06
4.4996e+06
4.4996e+06
4.4996e+06
4.4996e+06
4.4996e+06
4.4996e+06
4.4996e+06
4.4996e+06
4.4996e+06
4.4996e+06
4.4996e+06
4.4996e+06
4.4996e+06
4.4996e+06
4.4996e+06
4.4996e+06
4.4996e+06
4.4996e+06
4.4996e+06
4.4996e+06
4.4996e+06
4.4996e+06
4.4996e+06
4.4996e+06
4.4996e+06
4.4996e+06
4.4996e+06
4.4996e+06
4.4996e+06
4.4996e+06
4.4996e+06
4.4996e+06
4.4996e+06
4.4996e+06
4.4996e+06
4.49959e+06
4.49959e+06
4.49959e+06
4.49959e+06
4.49959e+06
4.49959e+06
4.49959e+06
4.49959e+06
4.49959e+06
4.49959e+06
4.4996e+06
4.4996e+06
4.4996e+06
4.4996e+06
4.4996e+06
4.4996e+06
4.4996e+06
4.49959e+06
4.49959e+06
4.49959e+06
4.49959e+06
4.49959e+06
4.49959e+06
4.49959e+06
4.49959e+06
4.49959e+06
4.49959e+06
4.49959e+06
4.49959e+06
4.49959e+06
4.49959e+06
4.49959e+06
4.49959e+06
4.49959e+06
4.49959e+06
4.49959e+06
4.49959e+06
4.49959e+06
4.49959e+06
4.49959e+06
4.49959e+06
4.49959e+06
4.49959e+06
4.49959e+06
4.49959e+06
4.49959e+06
4.49959e+06
4.49959e+06
4.49959e+06
4.49959e+06
4.49959e+06
4.49959e+06
4.49959e+06
4.49959e+06
4.49959e+06
4.49959e+06
4.49959e+06
4.49959e+06
4.49959e+06
4.49959e+06
4.49959e+06
4.49959e+06
4.49959e+06
4.49959e+06
4.49959e+06
4.49959e+06
4.49959e+06
4.49959e+06
4.49959e+06
4.49959e+06
4.49959e+06
4.49959e+06
4.49959e+06
4.49959e+06
4.49959e+06
4.49959e+06
4.49959e+06
4.49959e+06
4.49959e+06
4.49959e+06
4.49959e+06
4.49959e+06
4.49959e+06
4.49959e+06
4.49959e+06
4.49959e+06
4.49959e+06
4.49959e+06
4.49959e+06
4.49959e+06
4.49959e+06
4.49959e+06
4.49959e+06
4.49958e+06
4.49958e+06
4.49958e+06
4.49958e+06
4.49958e+06
4.49958e+06
4.49958e+06
4.49958e+06
4.49958e+06
4.49958e+06
4.49958e+06
4.49958e+06
4.49958e+06
4.49958e+06
4.49958e+06
4.49958e+06
4.49958e+06
4.49959e+06
4.49959e+06
4.49958e+06
4.49958e+06
4.49958e+06
4.49958e+06
4.49958e+06
4.49958e+06
4.49958e+06
4.49958e+06
4.49958e+06
4.49958e+06
4.49958e+06
4.49958e+06
4.49958e+06
4.49958e+06
4.49958e+06
4.49958e+06
4.49958e+06
4.49958e+06
4.49958e+06
3.50203e+06
3.5019e+06
3.50187e+06
3.50176e+06
3.50179e+06
3.50182e+06
3.50184e+06
3.50191e+06
3.50123e+06
3.50236e+06
3.50283e+06
3.50227e+06
3.50206e+06
3.50194e+06
3.50191e+06
3.50199e+06
3.50205e+06
3.50206e+06
3.50204e+06
3.502e+06
3.50195e+06
3.50189e+06
3.50183e+06
3.50126e+06
3.50235e+06
3.50274e+06
3.50249e+06
3.5024e+06
3.50224e+06
3.50215e+06
3.50215e+06
3.50219e+06
3.50218e+06
3.50217e+06
3.50214e+06
3.50209e+06
3.50202e+06
3.50197e+06
3.50168e+06
3.50251e+06
3.50284e+06
3.50268e+06
3.50268e+06
3.50257e+06
3.5025e+06
3.50245e+06
3.50243e+06
3.50239e+06
3.50236e+06
3.50231e+06
3.50225e+06
3.50217e+06
3.50211e+06
3.50171e+06
3.50263e+06
3.50287e+06
3.50278e+06
3.50284e+06
3.50281e+06
3.50278e+06
3.50272e+06
3.50268e+06
3.50262e+06
3.50257e+06
3.5025e+06
3.50243e+06
3.50234e+06
3.50227e+06
3.50203e+06
3.50266e+06
3.50305e+06
3.50297e+06
3.50302e+06
3.50299e+06
3.503e+06
3.50296e+06
3.50292e+06
3.50285e+06
3.50279e+06
3.50271e+06
3.50262e+06
3.50252e+06
3.50244e+06
3.50207e+06
3.50287e+06
3.50315e+06
3.5031e+06
3.50318e+06
3.50321e+06
3.50325e+06
3.50323e+06
3.5032e+06
3.50312e+06
3.50304e+06
3.50294e+06
3.50284e+06
3.50272e+06
3.50263e+06
3.50293e+06
3.50298e+06
3.5031e+06
3.50335e+06
3.50344e+06
3.50345e+06
3.50351e+06
3.50348e+06
3.50346e+06
3.50337e+06
3.50329e+06
3.50318e+06
3.50306e+06
3.50293e+06
3.50282e+06
3.50305e+06
3.50325e+06
3.50315e+06
3.50349e+06
3.50367e+06
3.50376e+06
3.50384e+06
3.50381e+06
3.50377e+06
3.50367e+06
3.50357e+06
3.50345e+06
3.50332e+06
3.50317e+06
3.50303e+06
3.5017e+06
3.50241e+06
3.50275e+06
3.50337e+06
3.50373e+06
3.50396e+06
3.5041e+06
3.5041e+06
3.50406e+06
3.50396e+06
3.50385e+06
3.5037e+06
3.50356e+06
3.5034e+06
3.50325e+06
3.5019e+06
3.50282e+06
3.50286e+06
3.5035e+06
3.50393e+06
3.50426e+06
3.50445e+06
3.50447e+06
3.50441e+06
3.5043e+06
3.50418e+06
3.50401e+06
3.50385e+06
3.50367e+06
3.50349e+06
3.50333e+06
3.50274e+06
3.50243e+06
3.50353e+06
3.50405e+06
3.50442e+06
3.50466e+06
3.5047e+06
3.50466e+06
3.50456e+06
3.50445e+06
3.50428e+06
3.50411e+06
3.50392e+06
3.50373e+06
3.50347e+06
3.50308e+06
3.50267e+06
3.50383e+06
3.50445e+06
3.50487e+06
3.50514e+06
3.50517e+06
3.50512e+06
3.505e+06
3.50486e+06
3.50466e+06
3.50445e+06
3.50423e+06
3.50401e+06
3.502e+06
3.50303e+06
3.50422e+06
3.50431e+06
3.50477e+06
3.50516e+06
3.50543e+06
3.5054e+06
3.50537e+06
3.50527e+06
3.50514e+06
3.50494e+06
3.50474e+06
3.5045e+06
3.50427e+06
3.50228e+06
3.50372e+06
3.50479e+06
3.50507e+06
3.50562e+06
3.50592e+06
3.50612e+06
3.50604e+06
3.50598e+06
3.50584e+06
3.50568e+06
3.50543e+06
3.50518e+06
3.5049e+06
3.50462e+06
3.50451e+06
3.50387e+06
3.50441e+06
3.50529e+06
3.50584e+06
3.50591e+06
3.50613e+06
3.5061e+06
3.50613e+06
3.50605e+06
3.50594e+06
3.50573e+06
3.50549e+06
3.50521e+06
3.50491e+06
3.50536e+06
3.50567e+06
3.50579e+06
3.50636e+06
3.50678e+06
3.50683e+06
3.50703e+06
3.50698e+06
3.507e+06
3.50687e+06
3.50669e+06
3.50642e+06
3.5061e+06
3.50574e+06
3.50537e+06
3.49874e+06
3.50209e+06
3.5038e+06
3.505e+06
3.50573e+06
3.5062e+06
3.50665e+06
3.50682e+06
3.50699e+06
3.50699e+06
3.50692e+06
3.50674e+06
3.50646e+06
3.50609e+06
3.50569e+06
3.5005e+06
3.50535e+06
3.50633e+06
3.50685e+06
3.50726e+06
3.50765e+06
3.50804e+06
3.50817e+06
3.50827e+06
3.50816e+06
3.50796e+06
3.50766e+06
3.50724e+06
3.50674e+06
3.50623e+06
3.50493e+06
3.5043e+06
3.50385e+06
3.5055e+06
3.50621e+06
3.5065e+06
3.5071e+06
3.50747e+06
3.50783e+06
3.50791e+06
3.50787e+06
3.5077e+06
3.50736e+06
3.50692e+06
3.50644e+06
3.508e+06
3.50841e+06
3.50786e+06
3.50897e+06
3.5094e+06
3.50945e+06
3.50986e+06
3.50994e+06
3.51003e+06
3.50981e+06
3.50948e+06
3.50903e+06
3.50844e+06
3.50779e+06
3.50712e+06
3.50062e+06
3.503e+06
3.51035e+06
3.50768e+06
3.50763e+06
3.50776e+06
3.50854e+06
3.5088e+06
3.50913e+06
3.50916e+06
3.50905e+06
3.50879e+06
3.50836e+06
3.50782e+06
3.50723e+06
3.50657e+06
3.51165e+06
3.51841e+06
3.51515e+06
3.5145e+06
3.51375e+06
3.51382e+06
3.5134e+06
3.51309e+06
3.5125e+06
3.51181e+06
3.51101e+06
3.51011e+06
3.50917e+06
3.50825e+06
3.51767e+06
3.51059e+06
3.51376e+06
3.51264e+06
3.51227e+06
3.51087e+06
3.51102e+06
3.51102e+06
3.51117e+06
3.51103e+06
3.51073e+06
3.5103e+06
3.5097e+06
3.50899e+06
3.50823e+06
3.52965e+06
3.5298e+06
3.53049e+06
3.52685e+06
3.52475e+06
3.52223e+06
3.52111e+06
3.51991e+06
3.51869e+06
3.51732e+06
3.51579e+06
3.51429e+06
3.51274e+06
3.51126e+06
3.50988e+06
3.52277e+06
3.51038e+06
3.51658e+06
3.51758e+06
3.51638e+06
3.51622e+06
3.51615e+06
3.51588e+06
3.51527e+06
3.51461e+06
3.51367e+06
3.51275e+06
3.51167e+06
3.51057e+06
3.50949e+06
3.5463e+06
3.54952e+06
3.54977e+06
3.54419e+06
3.5394e+06
3.53767e+06
3.5352e+06
3.53276e+06
3.52943e+06
3.52639e+06
3.52302e+06
3.52006e+06
3.51713e+06
3.59034e+06
3.53935e+06
3.53063e+06
3.52934e+06
3.52596e+06
3.52739e+06
3.52573e+06
3.5247e+06
3.52235e+06
3.5205e+06
3.5183e+06
3.51651e+06
3.5146e+06
3.64089e+06
3.6147e+06
3.59335e+06
3.58386e+06
3.57504e+06
3.57252e+06
3.56463e+06
3.55854e+06
3.55019e+06
3.54319e+06
3.53592e+06
3.52996e+06
3.52429e+06
3.66193e+06
3.57031e+06
3.56416e+06
3.5693e+06
3.56179e+06
3.56201e+06
3.55279e+06
3.54738e+06
3.5387e+06
3.53172e+06
3.52635e+06
3.52203e+06
3.51833e+06
3.76938e+06
3.70568e+06
3.66754e+06
3.67463e+06
3.65896e+06
3.65929e+06
3.63413e+06
3.61755e+06
3.59436e+06
3.57681e+06
3.55998e+06
3.54679e+06
3.53541e+06
3.9093e+06
3.7326e+06
3.72608e+06
3.69249e+06
3.65713e+06
3.67318e+06
3.63107e+06
3.6153e+06
3.57057e+06
3.55019e+06
3.53681e+06
3.52645e+06
3.52088e+06
3.98007e+06
3.88707e+06
3.90497e+06
3.90528e+06
3.88827e+06
3.96918e+06
3.78726e+06
3.73551e+06
3.65524e+06
3.62612e+06
3.59271e+06
3.56922e+06
3.54948e+06
4.25126e+06
3.99855e+06
3.98829e+06
3.90153e+06
3.87829e+06
3.98643e+06
3.98592e+06
3.92331e+06
3.63326e+06
3.6034e+06
3.55873e+06
3.53293e+06
3.52219e+06
4.04801e+06
4.0093e+06
4.00395e+06
3.97837e+06
4.00255e+06
4.02431e+06
4.00087e+06
3.99129e+06
3.71418e+06
3.73972e+06
3.63917e+06
3.58568e+06
3.55319e+06
3.96497e+06
3.96478e+06
4.00109e+06
3.96972e+06
3.85481e+06
3.94457e+06
3.98715e+06
3.82913e+06
3.45685e+06
3.40665e+06
3.49307e+06
3.4769e+06
3.49547e+06
4.00066e+06
4.00042e+06
4.00107e+06
4.00106e+06
3.96301e+06
4.00015e+06
3.99964e+06
3.97827e+06
3.96527e+06
3.99905e+06
3.71095e+06
3.53642e+06
3.53945e+06
4.00085e+06
4.0007e+06
4.00064e+06
4.00054e+06
4.0005e+06
4.00053e+06
4.00056e+06
4.00058e+06
4.00068e+06
4.00088e+06
4.00091e+06
4.00083e+06
4.00073e+06
4.00072e+06
4.00074e+06
4.00074e+06
4.0008e+06
4.00086e+06
4.00096e+06
4.00111e+06
4.00094e+06
4.00085e+06
4.00082e+06
4.00078e+06
4.00078e+06
4.00081e+06
4.00086e+06
4.00092e+06
4.00102e+06
4.00114e+06
4.00099e+06
4.00093e+06
4.00089e+06
4.00088e+06
4.00088e+06
4.0009e+06
4.00094e+06
4.00101e+06
4.0011e+06
4.01812e+06
4.02804e+06
4.02083e+06
4.01882e+06
4.01755e+06
4.02166e+06
4.02982e+06
4.04246e+06
4.05698e+06
4.06972e+06
4.0743e+06
4.17009e+06
4.17019e+06
4.16904e+06
4.1685e+06
4.1673e+06
4.16626e+06
4.16485e+06
4.16388e+06
4.16271e+06
4.163e+06
4.21617e+06
4.22166e+06
4.22137e+06
4.2241e+06
4.2245e+06
4.22471e+06
4.22434e+06
4.22194e+06
4.22057e+06
4.21796e+06
4.34576e+06
4.35626e+06
4.35556e+06
4.35765e+06
4.35457e+06
4.35001e+06
4.34311e+06
4.33383e+06
4.32549e+06
4.31846e+06
4.36339e+06
4.40388e+06
4.41719e+06
4.43233e+06
4.43385e+06
4.42748e+06
4.41445e+06
4.38834e+06
4.36499e+06
4.33111e+06
4.48106e+06
4.52348e+06
4.56011e+06
4.5723e+06
4.57162e+06
4.5608e+06
4.54245e+06
4.51194e+06
4.47846e+06
4.40057e+06
4.48897e+06
4.49734e+06
4.49987e+06
4.49983e+06
4.4998e+06
4.49955e+06
4.4993e+06
4.49878e+06
4.49931e+06
4.48849e+06
4.49735e+06
4.49708e+06
4.49695e+06
4.49695e+06
4.497e+06
4.4971e+06
4.49731e+06
4.49751e+06
4.49774e+06
4.49797e+06
4.49772e+06
4.49817e+06
4.49841e+06
4.49848e+06
4.49849e+06
4.49829e+06
4.49822e+06
4.49777e+06
4.49779e+06
4.49686e+06
4.49744e+06
4.4974e+06
4.49744e+06
4.49747e+06
4.49748e+06
4.49749e+06
4.49756e+06
4.49759e+06
4.49766e+06
4.49772e+06
4.49802e+06
4.49799e+06
4.49806e+06
4.49806e+06
4.49805e+06
4.49798e+06
4.49808e+06
4.49794e+06
4.49792e+06
4.4978e+06
4.49764e+06
4.4976e+06
4.49769e+06
4.49772e+06
4.4977e+06
4.49771e+06
4.49785e+06
4.49783e+06
4.49785e+06
4.49786e+06
4.49797e+06
4.49796e+06
4.49793e+06
4.49794e+06
4.4979e+06
4.49789e+06
4.49801e+06
4.49796e+06
4.49796e+06
4.49795e+06
4.49782e+06
4.49788e+06
4.49778e+06
4.49776e+06
4.49773e+06
4.49777e+06
4.49792e+06
4.49793e+06
4.49794e+06
4.49795e+06
4.49807e+06
4.49808e+06
4.49785e+06
4.49788e+06
4.49807e+06
4.49808e+06
4.49807e+06
4.49806e+06
4.49806e+06
4.49806e+06
4.49802e+06
4.49808e+06
4.49782e+06
4.49785e+06
4.49802e+06
4.49804e+06
4.49804e+06
4.49806e+06
4.49807e+06
4.49807e+06
4.49813e+06
4.49821e+06
4.49792e+06
4.49795e+06
4.49813e+06
4.49815e+06
4.49815e+06
4.49815e+06
4.49816e+06
4.49816e+06
4.49814e+06
4.49821e+06
4.49795e+06
4.49801e+06
4.49818e+06
4.49819e+06
4.49818e+06
4.49819e+06
4.49819e+06
4.49819e+06
4.49854e+06
4.49843e+06
4.49806e+06
4.49807e+06
4.49828e+06
4.49828e+06
4.49827e+06
4.49827e+06
4.49827e+06
4.49827e+06
4.4986e+06
4.49856e+06
4.49812e+06
4.49811e+06
4.49834e+06
4.49833e+06
4.49832e+06
4.49833e+06
4.49833e+06
4.49832e+06
4.49856e+06
4.49857e+06
4.4985e+06
4.49846e+06
4.49843e+06
4.49842e+06
4.49841e+06
4.49841e+06
4.4984e+06
4.4984e+06
4.49859e+06
4.49867e+06
4.49855e+06
4.4985e+06
4.49848e+06
4.49847e+06
4.49847e+06
4.49846e+06
4.49846e+06
4.49846e+06
4.49865e+06
4.4987e+06
4.4986e+06