/*--------------------------------*- C++ -*----------------------------------*\
| =========                 |                                                 |
| \\      /  F ield         | OpenFOAM: The Open Source CFD Toolbox           |
|  \\    /   O peration     | Version:  v2012                                 |
|   \\  /    A nd           | Website:  www.openfoam.com                      |
|    \\/     M anipulation  |                                                 |
\*---------------------------------------------------------------------------*/
FoamFile
{
    version     2.0;
    format      ascii;
    class       volVectorField;
    location    "0.35";
    object      U;
}
// * * * * * * * * * * * * * * * * * * * * * * * * * * * * * * * * * * * * * //

dimensions      [0 1 -1 0 0 0 0];


internalField   nonuniform List<vector> 
3338
(
(-0.0459938 -0.303072 0.000401923)
(-0.0370262 -0.0660543 0.000323609)
(-0.0129622 0.151139 0.00011299)
(-0.00979905 0.347621 8.53409e-05)
(-0.00743773 0.525576 6.49446e-05)
(-0.00652887 0.683885 5.69938e-05)
(-0.00590548 0.822725 5.15591e-05)
(-0.00539031 0.94134 4.70617e-05)
(-0.00490059 1.03906 4.27868e-05)
(-0.00441324 1.11511 3.85326e-05)
(-0.00391934 1.16865 3.42214e-05)
(-0.00341854 1.1987 2.98499e-05)
(-0.00291453 1.20412 2.54504e-05)
(-0.00241403 1.18362 2.10814e-05)
(-0.00192599 1.13569 1.6821e-05)
(-0.00146138 1.0586 1.27649e-05)
(-0.00103371 0.950349 9.03103e-06)
(-0.000657648 0.808603 5.7472e-06)
(-0.000351236 0.630608 3.07082e-06)
(-0.000128964 0.413 1.12909e-06)
(-8.08318e-06 0.151679 8.71324e-08)
(-0.0496874 -0.306461 0.000433788)
(-0.0430099 -0.0723243 0.000375579)
(-0.0309823 0.144919 0.000270594)
(-0.0260229 0.345485 0.000227285)
(-0.0217405 0.524625 0.000189857)
(-0.0194492 0.683461 0.000169804)
(-0.0176895 0.822449 0.000154443)
(-0.016171 0.941106 0.000141185)
(-0.014711 1.03883 0.00012844)
(-0.0132522 1.11487 0.000115707)
(-0.0117716 1.1684 0.000102783)
(-0.0102692 1.19844 8.96681e-05)
(-0.00875668 1.20385 7.6465e-05)
(-0.0072544 1.18335 6.3351e-05)
(-0.00578942 1.13543 5.0562e-05)
(-0.00439463 1.05836 3.83851e-05)
(-0.00311031 0.950144 2.71718e-05)
(-0.00197995 0.808436 1.73016e-05)
(-0.001057 0.630488 9.24082e-06)
(-0.000384579 0.41293 3.3684e-06)
(-2.03195e-05 0.151654 2.3522e-07)
(-0.0559681 -0.308213 0.000488602)
(-0.0514028 -0.0752352 0.000448809)
(-0.0450478 0.142417 0.00039333)
(-0.0402406 0.343763 0.000351356)
(-0.0353887 0.523546 0.000308994)
(-0.0321325 0.682825 0.000280535)
(-0.0293923 0.821975 0.000256616)
(-0.0269269 0.940675 0.000235092)
(-0.0245199 1.03839 0.000214081)
(-0.0220999 1.11441 0.000192956)
(-0.0196371 1.1679 0.000171459)
(-0.0171348 1.19792 0.000149616)
(-0.0146143 1.20332 0.000127614)
(-0.0121101 1.18282 0.000105754)
(-0.0096677 1.13491 8.44321e-05)
(-0.00734181 1.05787 6.41265e-05)
(-0.00519917 0.949699 4.54192e-05)
(-0.00331141 0.808056 2.89357e-05)
(-0.00176673 0.630192 1.54453e-05)
(-0.000636991 0.412736 5.58039e-06)
(-2.86207e-05 0.151579 3.51767e-07)
(-0.0637734 -0.308601 0.000556736)
(-0.0609317 -0.0758553 0.000531952)
(-0.0574339 0.141477 0.000501402)
(-0.0532674 0.34244 0.000465051)
(-0.0484135 0.522468 0.000422691)
(-0.0445229 0.682047 0.000388709)
(-0.0409727 0.821322 0.000357718)
(-0.0376344 0.940048 0.000328576)
(-0.0343149 1.03773 0.0002996)
(-0.0309494 1.11371 0.000270222)
(-0.0275116 1.16716 0.000240214)
(-0.0240127 1.19714 0.000209672)
(-0.0204851 1.20252 0.00017888)
(-0.0169792 1.18202 0.000148274)
(-0.0135589 1.13414 0.000118415)
(-0.010301 1.05714 8.9973e-05)
(-0.00729844 0.949039 6.37583e-05)
(-0.00465076 0.807495 4.06393e-05)
(-0.00248069 0.629758 2.1687e-05)
(-0.000889311 0.412453 7.79079e-06)
(-3.66976e-05 0.151473 4.60439e-07)
(-0.0726463 -0.308048 0.00063417)
(-0.071092 -0.075466 0.000620618)
(-0.0690882 0.141356 0.000603123)
(-0.0655737 0.341594 0.000572472)
(-0.0609346 0.521552 0.000531991)
(-0.0566347 0.681231 0.000494447)
(-0.0524192 0.820545 0.00045765)
(-0.0482827 0.939252 0.000421541)
(-0.0440888 1.03688 0.000384934)
(-0.0397964 1.11279 0.000347466)
(-0.0353927 1.16618 0.000309027)
(-0.0309011 1.19611 0.00026982)
(-0.0263682 1.20146 0.000230251)
(-0.0218606 1.18096 0.000190902)
(-0.0174619 1.1331 0.000152502)
(-0.0132709 1.05617 0.000115914)
(-0.00940703 0.94816 8.21787e-05)
(-0.00599719 0.806748 5.24047e-05)
(-0.00319879 0.629179 2.79649e-05)
(-0.00114266 0.412077 1.00103e-05)
(-4.46538e-05 0.151335 5.68008e-07)
(-0.0823298 -0.306697 0.000718683)
(-0.0816883 -0.0743662 0.000713101)
(-0.080479 0.141842 0.000702552)
(-0.0774837 0.341216 0.000676434)
(-0.0730961 0.520856 0.00063815)
(-0.0685166 0.68044 0.000598175)
(-0.0637417 0.819684 0.000556498)
(-0.0588713 0.938307 0.000513985)
(-0.0538394 1.03584 0.000470064)
(-0.0486393 1.11165 0.000424673)
(-0.0432792 1.16495 0.000377886)
(-0.0377993 1.19482 0.000330053)
(-0.0322626 1.20014 0.000281722)
(-0.0267536 1.17963 0.000233631)
(-0.0213759 1.13181 0.000186685)
(-0.016251 1.05495 0.000141943)
(-0.0115242 0.94706 0.000100674)
(-0.00735014 0.805812 6.4227e-05)
(-0.00392094 0.628453 3.42781e-05)
(-0.00139755 0.411605 1.22433e-05)
(-5.26417e-05 0.151162 6.76595e-07)
(-0.0926703 -0.304675 0.000808938)
(-0.0926534 -0.0727115 0.000808809)
(-0.0918617 0.142801 0.000801911)
(-0.0892224 0.34125 0.000778901)
(-0.0850324 0.520391 0.000742346)
(-0.0802306 0.679705 0.000700436)
(-0.0749634 0.818767 0.000654465)
(-0.0694082 0.937233 0.000605977)
(-0.0635691 1.03462 0.000555011)
(-0.0574784 1.11029 0.000501848)
(-0.0511709 1.16348 0.000446791)
(-0.0447069 1.19327 0.000390368)
(-0.0381679 1.19854 0.000333288)
(-0.0316576 1.17803 0.000276457)
(-0.0253004 1.13025 0.00022096)
(-0.0192404 1.05348 0.000168053)
(-0.0136492 0.945738 0.000119238)
(-0.00870911 0.804686 7.61019e-05)
(-0.00464696 0.627578 4.06252e-05)
(-0.00165423 0.411036 1.44919e-05)
(-6.086e-05 0.150955 7.87639e-07)
(-0.103583 -0.302093 0.000904192)
(-0.103974 -0.0706191 0.00090762)
(-0.103379 0.144133 0.000902445)
(-0.100941 0.341632 0.000881196)
(-0.0968573 0.520143 0.000845568)
(-0.0918404 0.679042 0.000801787)
(-0.0861146 0.81781 0.000751816)
(-0.0799071 0.936043 0.000697637)
(-0.0732838 1.03322 0.000639827)
(-0.0663164 1.10873 0.000579012)
(-0.059069 1.16178 0.000515752)
(-0.0516243 1.19147 0.000450768)
(-0.0440841 1.19669 0.000384949)
(-0.0365724 1.17617 0.000319376)
(-0.0292349 1.12844 0.00025532)
(-0.0222385 1.05177 0.00019424)
(-0.0157816 0.944194 0.000137865)
(-0.0100736 0.80337 8.80253e-05)
(-0.00537663 0.626555 4.70042e-05)
(-0.00191272 0.410371 1.67566e-05)
(-6.93624e-05 0.150713 9.01544e-07)
(-0.115024 -0.299037 0.00100405)
(-0.115656 -0.068169 0.00100959)
(-0.115114 0.145765 0.00100488)
(-0.112743 0.342301 0.000984215)
(-0.108662 0.520085 0.000948615)
(-0.103406 0.67845 0.000902749)
(-0.0972286 0.816823 0.000848842)
(-0.0903852 0.934743 0.000789115)
(-0.0829921 1.03167 0.000724588)
(-0.0751576 1.10696 0.000656204)
(-0.0669754 1.15985 0.000584785)
(-0.0585522 1.18942 0.00051126)
(-0.0500113 1.19457 0.000436706)
(-0.0414977 1.17405 0.000362387)
(-0.0331788 1.12637 0.000289764)
(-0.0252449 1.04982 0.000220499)
(-0.0179207 0.942427 0.000156552)
(-0.0114433 0.801864 9.99934e-05)
(-0.0061097 0.625383 5.34128e-05)
(-0.00217298 0.409608 1.90366e-05)
(-7.81612e-05 0.150436 1.01839e-06)
(-0.12697 -0.295574 0.00110833)
(-0.127713 -0.0654168 0.00111484)
(-0.127118 0.147646 0.00110968)
(-0.124697 0.343206 0.00108857)
(-0.120518 0.520187 0.00105211)
(-0.114979 0.67792 0.00100378)
(-0.108338 0.815806 0.000945829)
(-0.100862 0.933339 0.000880578)
(-0.0927046 1.02995 0.000809384)
(-0.0840074 1.10499 0.000733472)
(-0.074893 1.15768 0.000653915)
(-0.065492 1.18711 0.000571856)
(-0.0559501 1.19219 0.000488564)
(-0.0464335 1.17165 0.000405489)
(-0.0371319 1.12403 0.000324288)
(-0.028259 1.04762 0.000246826)
(-0.020066 0.940438 0.000175294)
(-0.0128176 0.800166 0.000112003)
(-0.00684587 0.624062 5.98487e-05)
(-0.00243488 0.408748 2.1331e-05)
(-8.7236e-05 0.150123 1.13798e-06)
(-0.139412 -0.291758 0.00121694)
(-0.140158 -0.0624051 0.00122349)
(-0.139426 0.149736 0.00121712)
(-0.136854 0.344299 0.0011947)
(-0.13248 0.520417 0.00115654)
(-0.126604 0.677436 0.00110527)
(-0.119474 0.814755 0.00104305)
(-0.111355 0.93183 0.000972194)
(-0.102432 1.02807 0.000894314)
(-0.0928723 1.10281 0.00081087)
(-0.0828252 1.15528 0.000723174)
(-0.0724455 1.18455 0.000632572)
(-0.061901 1.18954 0.000540528)
(-0.0513799 1.169 0.000448685)
(-0.041094 1.12144 0.000358891)
(-0.0312805 1.04517 0.000273217)
(-0.0222172 0.938226 0.000194086)
(-0.0141963 0.798278 0.000124049)
(-0.00758489 0.622591 6.63093e-05)
(-0.00269827 0.407789 2.36384e-05)
(-9.65557e-05 0.149775 1.26002e-06)
(-0.152346 -0.28763 0.00132985)
(-0.153005 -0.0591681 0.00133563)
(-0.152061 0.151999 0.00132741)
(-0.149249 0.345542 0.0013029)
(-0.144591 0.520744 0.00126227)
(-0.138319 0.676982 0.00120754)
(-0.130664 0.813659 0.00114074)
(-0.121885 0.930212 0.00106412)
(-0.112187 1.02603 0.000979478)
(-0.101759 1.10044 0.000888459)
(-0.0907757 1.15265 0.000792592)
(-0.0794146 1.18174 0.000693423)
(-0.067865 1.18664 0.000592607)
(-0.056337 1.16607 0.000491974)
(-0.0450649 1.11859 0.00039357)
(-0.034309 1.04248 0.000299669)
(-0.0243738 0.935791 0.000212926)
(-0.0155788 0.796198 0.00013613)
(-0.00832646 0.620969 7.27923e-05)
(-0.00296299 0.406732 2.59575e-05)
(-0.000106088 0.149391 1.38419e-06)
(-0.165773 -0.283227 0.00144706)
(-0.166264 -0.0557351 0.00145137)
(-0.165039 0.154407 0.00144071)
(-0.161907 0.346899 0.0014134)
(-0.156884 0.52114 0.00136958)
(-0.150154 0.676536 0.00131086)
(-0.141932 0.812508 0.00123911)
(-0.132468 0.928479 0.00115651)
(-0.121979 1.02382 0.00106497)
(-0.110674 1.09785 0.000966297)
(-0.0987485 1.14978 0.000862205)
(-0.0864012 1.17868 0.000754428)
(-0.073843 1.18346 0.000644807)
(-0.0613052 1.16288 0.000535359)
(-0.0490443 1.11547 0.000428324)
(-0.0373442 1.03954 0.000326179)
(-0.0265354 0.933131 0.000231809)
(-0.016965 0.793927 0.000148243)
(-0.00907035 0.619198 7.92955e-05)
(-0.00322888 0.405577 2.82869e-05)
(-0.0001158 0.148971 1.51017e-06)
(-0.179694 -0.278579 0.00156858)
(-0.179942 -0.0521322 0.00157078)
(-0.178371 0.156933 0.00155709)
(-0.174845 0.348341 0.00152635)
(-0.169381 0.521575 0.00147868)
(-0.162133 0.676078 0.00141543)
(-0.153298 0.811288 0.00133834)
(-0.143118 0.926623 0.0012495)
(-0.131819 1.02145 0.00115088)
(-0.119624 1.09506 0.00104444)
(-0.106747 1.14667 0.000932045)
(-0.0934074 1.17535 0.000815604)
(-0.0798357 1.18002 0.000697136)
(-0.0662846 1.15942 0.000578843)
(-0.0530323 1.1121 0.000463153)
(-0.0403857 1.03636 0.000352745)
(-0.0287016 0.930248 0.000250733)
(-0.0183544 0.791463 0.000160383)
(-0.00981628 0.617275 8.58166e-05)
(-0.00349581 0.404322 3.06254e-05)
(-0.000125666 0.148515 1.63769e-06)
(-0.19411 -0.273714 0.00169442)
(-0.194046 -0.0483835 0.0016939)
(-0.192066 0.159552 0.00167665)
(-0.188077 0.349838 0.00164186)
(-0.182102 0.522025 0.00158973)
(-0.174274 0.675587 0.00152142)
(-0.164779 0.809984 0.00143857)
(-0.153849 0.924633 0.00134318)
(-0.141717 1.01889 0.00123729)
(-0.128615 1.09206 0.00112294)
(-0.114776 1.14333 0.00100214)
(-0.100435 1.17178 0.000876967)
(-0.0858441 1.17631 0.000749602)
(-0.0712754 1.15569 0.000622426)
(-0.0570285 1.10846 0.000498053)
(-0.0434331 1.03292 0.000379362)
(-0.0308721 0.927139 0.000269693)
(-0.0197467 0.788806 0.000172549)
(-0.010564 0.615202 9.23535e-05)
(-0.00376363 0.402969 3.29716e-05)
(-0.000135661 0.148022 1.76653e-06)
(-0.209024 -0.268656 0.00182461)
(-0.20858 -0.0445118 0.00182078)
(-0.206129 0.16224 0.00179941)
(-0.201611 0.351366 0.00176001)
(-0.195058 0.522466 0.00170284)
(-0.186591 0.675042 0.00162896)
(-0.176387 0.808581 0.00153991)
(-0.164671 0.9225 0.00143767)
(-0.151679 1.01615 0.00132427)
(-0.137651 1.08884 0.00120184)
(-0.122836 1.13974 0.00107252)
(-0.107486 1.16794 0.00093853)
(-0.0918687 1.17234 0.00080221)
(-0.0762775 1.15169 0.000666108)
(-0.0610327 1.10455 0.000533023)
(-0.0464861 1.02924 0.000406029)
(-0.0330464 0.923806 0.000288688)
(-0.0211415 0.785957 0.000184738)
(-0.0113134 0.612977 9.89043e-05)
(-0.00403223 0.401516 3.53247e-05)
(-0.000145767 0.147494 1.89647e-06)
(-0.224435 -0.263431 0.00195915)
(-0.223547 -0.0405394 0.00195144)
(-0.220563 0.164976 0.00192542)
(-0.215453 0.3529 0.00188085)
(-0.208258 0.522873 0.00181808)
(-0.199094 0.674425 0.00173812)
(-0.188133 0.807063 0.00164246)
(-0.175593 0.920211 0.00153302)
(-0.161711 1.01323 0.00141186)
(-0.146738 1.0854 0.00128117)
(-0.130932 1.13591 0.00114321)
(-0.11456 1.16384 0.00100031)
(-0.0979099 1.16809 0.000854963)
(-0.081291 1.14742 0.000709889)
(-0.0650445 1.10039 0.00056806)
(-0.0495443 1.02531 0.00043274)
(-0.0352242 0.920246 0.000307712)
(-0.0225386 0.782914 0.000196946)
(-0.012064 0.610601 0.000105467)
(-0.00430149 0.399963 3.76835e-05)
(-0.000155969 0.146928 2.02739e-06)
(-0.240345 -0.258061 0.00209804)
(-0.238946 -0.0364879 0.00208587)
(-0.235368 0.167738 0.00205467)
(-0.229605 0.354418 0.0020044)
(-0.221707 0.523225 0.00193549)
(-0.21179 0.673715 0.00184896)
(-0.200023 0.805413 0.00174627)
(-0.18662 0.917753 0.00162929)
(-0.171819 1.01009 0.00150011)
(-0.155877 1.08172 0.00136097)
(-0.139064 1.13183 0.00121421)
(-0.12166 1.15947 0.0010623)
(-0.103968 1.16357 0.000907861)
(-0.0863155 1.14288 0.000753766)
(-0.0690635 1.09595 0.000603159)
(-0.052607 1.02113 0.000459491)
(-0.0374049 0.916461 0.000326762)
(-0.0239376 0.779678 0.00020917)
(-0.0128159 0.608073 0.000112039)
(-0.00457131 0.398311 4.00472e-05)
(-0.000166253 0.146326 2.15913e-06)
(-0.256751 -0.252569 0.00224126)
(-0.254776 -0.0323791 0.00222407)
(-0.250543 0.170504 0.00218715)
(-0.244066 0.355898 0.00213065)
(-0.235406 0.523502 0.00205509)
(-0.224683 0.672893 0.00196151)
(-0.212062 0.803617 0.00185137)
(-0.197755 0.915116 0.00172651)
(-0.182005 1.00675 0.00158904)
(-0.165071 1.07782 0.00144124)
(-0.147234 1.12749 0.00128555)
(-0.128785 1.15483 0.00112451)
(-0.110042 1.15877 0.000960904)
(-0.0913504 1.13806 0.000797735)
(-0.0730889 1.09126 0.000638315)
(-0.0556738 1.0167 0.000486277)
(-0.039588 0.91245 0.000345834)
(-0.0253381 0.776248 0.000221408)
(-0.0135686 0.605394 0.00011862)
(-0.00484157 0.396559 4.24149e-05)
(-0.000176611 0.145687 2.29161e-06)
(-0.273651 -0.246978 0.0023888)
(-0.271034 -0.028235 0.002366)
(-0.266084 0.173254 0.00232283)
(-0.258834 0.357319 0.00225957)
(-0.249355 0.523682 0.00217686)
(-0.237771 0.671941 0.00207578)
(-0.22425 0.801658 0.00195778)
(-0.209002 0.912286 0.0018247)
(-0.192271 1.00319 0.00167867)
(-0.174321 1.07366 0.001522)
(-0.155441 1.12289 0.00135721)
(-0.135935 1.14993 0.00118694)
(-0.116132 1.1537 0.00101408)
(-0.096395 1.13297 0.000841788)
(-0.0771201 1.08629 0.000673521)
(-0.0587437 1.01201 0.000513091)
(-0.0417729 0.908212 0.000364921)
(-0.0267397 0.772624 0.000233655)
(-0.014322 0.602562 0.000125206)
(-0.00511219 0.394707 4.47856e-05)
(-0.000187035 0.145012 2.42474e-06)
(-0.291039 -0.241312 0.00254059)
(-0.287714 -0.0240777 0.00251162)
(-0.281987 0.175965 0.00246165)
(-0.273904 0.358659 0.00239113)
(-0.26355 0.523746 0.00230079)
(-0.251054 0.670841 0.00219175)
(-0.236587 0.799522 0.00206549)
(-0.220359 0.90925 0.00192386)
(-0.202616 0.9994 0.00176899)
(-0.183626 1.06926 0.00160325)
(-0.163686 1.11802 0.0014292)
(-0.143109 1.14474 0.00124958)
(-0.122237 1.14835 0.00106739)
(-0.101448 1.1276 0.000885916)
(-0.0811559 1.08106 0.000708767)
(-0.0618161 1.00708 0.000539926)
(-0.0439591 0.903747 0.000384018)
(-0.0281418 0.768806 0.000245907)
(-0.0150757 0.599578 0.000131795)
(-0.00538307 0.392755 4.71586e-05)
(-0.000197518 0.144299 2.55845e-06)
(-0.308909 -0.235595 0.00269659)
(-0.304809 -0.0199298 0.00266086)
(-0.298241 0.178616 0.00260356)
(-0.289268 0.359899 0.00252527)
(-0.277984 0.523676 0.00242681)
(-0.264527 0.669576 0.00230937)
(-0.24907 0.797193 0.00217447)
(-0.231824 0.905997 0.00202396)
(-0.213038 0.995369 0.00185999)
(-0.192985 1.0646 0.00168496)
(-0.171966 1.11288 0.00150149)
(-0.150305 1.13928 0.00131242)
(-0.128355 1.14271 0.00112082)
(-0.106509 1.12194 0.000930107)
(-0.0851951 1.07556 0.000744044)
(-0.0648898 1.00189 0.000566773)
(-0.0461456 0.899055 0.00040312)
(-0.0295441 0.764794 0.00025816)
(-0.0158296 0.596443 0.000138386)
(-0.00565409 0.390703 4.95329e-05)
(-0.000208057 0.14355 2.69268e-06)
(-0.327251 -0.229851 0.00285672)
(-0.322309 -0.0158144 0.00281363)
(-0.314838 0.181187 0.00274846)
(-0.304917 0.361019 0.00266188)
(-0.29265 0.523452 0.00255485)
(-0.278183 0.66813 0.0024286)
(-0.261693 0.794658 0.00228468)
(-0.243393 0.902515 0.00212496)
(-0.223534 0.991089 0.00195164)
(-0.202394 1.05968 0.00176711)
(-0.180279 1.10747 0.00157408)
(-0.157521 1.13353 0.00137543)
(-0.134485 1.13679 0.00117434)
(-0.111574 1.11601 0.000974345)
(-0.0892363 1.06978 0.000779338)
(-0.0679637 0.996456 0.000593622)
(-0.0483317 0.894136 0.000422217)
(-0.030946 0.760588 0.00027041)
(-0.0165833 0.593155 0.000144975)
(-0.00592515 0.388551 5.19075e-05)
(-0.000218645 0.142764 2.82737e-06)
(-0.346053 -0.224108 0.00302086)
(-0.340201 -0.0117549 0.00296983)
(-0.331765 0.183655 0.00289623)
(-0.320838 0.361998 0.00280089)
(-0.307537 0.523056 0.00268481)
(-0.292014 0.666485 0.00254934)
(-0.274449 0.791901 0.00239604)
(-0.25506 0.898792 0.00222683)
(-0.2341 0.986552 0.00204389)
(-0.21185 1.05448 0.00184967)
(-0.188622 1.10177 0.00164692)
(-0.164754 1.1275 0.00143859)
(-0.140623 1.13058 0.00122794)
(-0.116643 1.1098 0.00101861)
(-0.0932779 1.06374 0.000814634)
(-0.0710366 0.990765 0.000620462)
(-0.0505165 0.88899 0.000441303)
(-0.0323469 0.756187 0.000282651)
(-0.0173365 0.589715 0.00015156)
(-0.00619613 0.3863 5.42814e-05)
(-0.000229279 0.141941 2.96248e-06)
(-0.365301 -0.21839 0.00318889)
(-0.358469 -0.00777526 0.00312931)
(-0.349006 0.185999 0.00304675)
(-0.337018 0.362818 0.00294214)
(-0.322632 0.522471 0.0028166)
(-0.306007 0.664628 0.00267151)
(-0.287329 0.788911 0.00250849)
(-0.266818 0.894818 0.00232948)
(-0.244729 0.981748 0.00213669)
(-0.221347 1.04901 0.0019326)
(-0.19699 1.09579 0.00171999)
(-0.172001 1.12117 0.00150186)
(-0.146766 1.12408 0.00128159)
(-0.121713 1.1033 0.00106289)
(-0.0973177 1.05743 0.000849916)
(-0.0741068 0.984822 0.000647279)
(-0.0526988 0.883616 0.000460367)
(-0.033746 0.751593 0.000294877)
(-0.0180888 0.586124 0.000158137)
(-0.00646691 0.383948 5.66535e-05)
(-0.000239955 0.141081 3.09792e-06)
(-0.384976 -0.212725 0.00336065)
(-0.377095 -0.00389988 0.00329192)
(-0.366545 0.188197 0.00319986)
(-0.353441 0.363458 0.00308552)
(-0.337921 0.52168 0.00295007)
(-0.320151 0.662541 0.00279499)
(-0.300322 0.785673 0.00262193)
(-0.278657 0.890581 0.00243284)
(-0.255414 0.976669 0.00222998)
(-0.23088 1.04325 0.00201583)
(-0.205378 1.08951 0.00179323)
(-0.179257 1.11455 0.00156523)
(-0.152912 1.11729 0.00133526)
(-0.126781 1.09652 0.00110715)
(-0.101354 1.05084 0.000885165)
(-0.0771729 0.978625 0.000674059)
(-0.0548776 0.878015 0.000479401)
(-0.0351427 0.746806 0.000307082)
(-0.0188399 0.582381 0.000164702)
(-0.00673734 0.381496 5.90226e-05)
(-0.000250666 0.140184 3.23365e-06)
(-0.405056 -0.207142 0.00353596)
(-0.396058 -0.000153308 0.00345747)
(-0.384359 0.190228 0.00335539)
(-0.370086 0.363899 0.00323084)
(-0.353385 0.520666 0.00308509)
(-0.33443 0.660212 0.00291966)
(-0.313415 0.782177 0.00273624)
(-0.290566 0.886071 0.00253683)
(-0.266145 0.971306 0.00232368)
(-0.240441 1.0372 0.00209931)
(-0.21378 1.08295 0.00186659)
(-0.186518 1.10764 0.00162863)
(-0.159057 1.11021 0.00138891)
(-0.131844 1.08946 0.00115136)
(-0.105383 1.04398 0.000920358)
(-0.080233 0.972176 0.000700787)
(-0.0570516 0.872187 0.000498392)
(-0.0365362 0.741825 0.000319258)
(-0.0195893 0.578487 0.000171254)
(-0.00700728 0.378946 6.13874e-05)
(-0.000261409 0.13925 3.36959e-06)
(-0.425517 -0.201669 0.00371458)
(-0.415333 0.00343977 0.00362575)
(-0.402426 0.19207 0.00351312)
(-0.386932 0.364124 0.00337791)
(-0.369006 0.519412 0.00322147)
(-0.348827 0.657626 0.00304535)
(-0.326593 0.778409 0.0028513)
(-0.302534 0.88128 0.00264132)
(-0.276913 0.965654 0.00241769)
(-0.250022 1.03085 0.00218297)
(-0.22219 1.07608 0.00194002)
(-0.193778 1.10042 0.00169202)
(-0.165195 1.10283 0.00144251)
(-0.136899 1.0821 0.0011955)
(-0.109404 1.03685 0.000955474)
(-0.0832851 0.965474 0.000727446)
(-0.0592193 0.866133 0.000517329)
(-0.0379256 0.736651 0.000331398)
(-0.0203366 0.574442 0.000177786)
(-0.00727656 0.376295 6.37464e-05)
(-0.000272176 0.13828 3.50566e-06)
(-0.446328 -0.196333 0.00389627)
(-0.434892 0.00685474 0.0037965)
(-0.42072 0.193702 0.00367284)
(-0.403957 0.364113 0.00352654)
(-0.384763 0.517905 0.00335903)
(-0.363324 0.65477 0.00317192)
(-0.339842 0.774361 0.00296697)
(-0.314548 0.876198 0.00274621)
(-0.287707 0.959704 0.00251193)
(-0.259613 1.0242 0.00226671)
(-0.230599 1.06891 0.00201345)
(-0.201031 1.09291 0.00175535)
(-0.171322 1.09516 0.00149602)
(-0.141941 1.07446 0.00123953)
(-0.113413 1.02945 0.000990485)
(-0.086327 0.95852 0.000754015)
(-0.0613794 0.859853 0.000536199)
(-0.03931 0.731285 0.000343495)
(-0.0210812 0.570247 0.000184296)
(-0.00754502 0.373546 6.60982e-05)
(-0.000282962 0.137273 3.64179e-06)
(-0.467456 -0.191165 0.00408072)
(-0.454704 0.0100673 0.00396947)
(-0.439212 0.195104 0.00383427)
(-0.421132 0.363851 0.00367649)
(-0.400632 0.516128 0.00349758)
(-0.3779 0.651633 0.00329918)
(-0.353142 0.770021 0.0030831)
(-0.326591 0.870819 0.00285136)
(-0.298514 0.953451 0.00260629)
(-0.269205 1.01725 0.00235046)
(-0.239001 1.06143 0.00208681)
(-0.20827 1.08509 0.00181856)
(-0.177433 1.08719 0.00154938)
(-0.146967 1.06654 0.00128342)
(-0.117407 1.02177 0.00102537)
(-0.0893565 0.951315 0.000780476)
(-0.0635302 0.853348 0.000554988)
(-0.0406883 0.725728 0.000355539)
(-0.0218227 0.565902 0.000190778)
(-0.00781246 0.370699 6.84411e-05)
(-0.000293759 0.13623 3.77787e-06)
(-0.488863 -0.186192 0.00426761)
(-0.474733 0.0130536 0.00414432)
(-0.457869 0.196255 0.00399716)
(-0.43843 0.36332 0.00382751)
(-0.416587 0.51407 0.00363688)
(-0.392534 0.648204 0.00342695)
(-0.366476 0.765382 0.00319952)
(-0.33865 0.865133 0.00295664)
(-0.309321 0.94689 0.00270065)
(-0.278787 1.00999 0.00243412)
(-0.247385 1.05364 0.00216002)
(-0.215488 1.07697 0.00188159)
(-0.183522 1.07892 0.00160255)
(-0.151971 1.05833 0.00132712)
(-0.121382 1.01383 0.00106008)
(-0.0923711 0.943858 0.000806807)
(-0.06567 0.846619 0.000573681)
(-0.0420596 0.71998 0.000367521)
(-0.0225605 0.561408 0.000197228)
(-0.0080787 0.367753 7.07734e-05)
(-0.000304559 0.13515 3.9138e-06)
(-0.510506 -0.181443 0.00445656)
(-0.49494 0.0157909 0.00432074)
(-0.476656 0.197138 0.00416118)
(-0.455819 0.362506 0.00397933)
(-0.432602 0.511716 0.0037767)
(-0.407201 0.644472 0.003555)
(-0.379824 0.760434 0.00331605)
(-0.350705 0.859137 0.0030619)
(-0.320113 0.940016 0.00279488)
(-0.288346 1.00241 0.00251759)
(-0.255742 1.04555 0.00223299)
(-0.222677 1.06854 0.00194437)
(-0.189583 1.07035 0.00165548)
(-0.15695 1.04983 0.00137061)
(-0.125336 1.00561 0.00109461)
(-0.0953681 0.936153 0.000832984)
(-0.067797 0.839667 0.000592263)
(-0.0434227 0.714043 0.000379432)
(-0.023294 0.556766 0.000203641)
(-0.00834351 0.36471 7.30932e-05)
(-0.000315353 0.134034 4.04947e-06)
(-0.532339 -0.176943 0.00464716)
(-0.515283 0.0182573 0.00449834)
(-0.495537 0.197734 0.00432602)
(-0.473266 0.361393 0.00413165)
(-0.448647 0.509057 0.00391678)
(-0.421877 0.640428 0.00368313)
(-0.393163 0.755171 0.00343251)
(-0.36274 0.852824 0.00316697)
(-0.330877 0.932825 0.00288886)
(-0.297871 0.994519 0.00260075)
(-0.264062 1.03714 0.00230564)
(-0.22983 1.0598 0.00200682)
(-0.19561 1.06149 0.00170811)
(-0.161899 1.04104 0.00141382)
(-0.129263 0.997124 0.00112891)
(-0.0983449 0.928199 0.000858985)
(-0.0699095 0.832494 0.000610717)
(-0.0447764 0.707917 0.000391261)
(-0.0240226 0.551977 0.00021001)
(-0.00860668 0.36157 7.53987e-05)
(-0.000326132 0.132882 4.18476e-06)
(-0.55431 -0.172719 0.00483898)
(-0.535716 0.0204327 0.00467674)
(-0.51447 0.198028 0.00449131)
(-0.490736 0.359971 0.00428417)
(-0.464692 0.506081 0.00405686)
(-0.436535 0.636066 0.00381111)
(-0.406471 0.749588 0.0035487)
(-0.374735 0.84619 0.0032717)
(-0.341595 0.925314 0.00298244)
(-0.307348 0.986311 0.0026835)
(-0.272335 1.02842 0.00237788)
(-0.236938 1.05076 0.00206889)
(-0.201595 1.05233 0.00176037)
(-0.166811 1.03197 0.00145672)
(-0.133161 0.988371 0.00116296)
(-0.101299 0.919998 0.000884785)
(-0.0720053 0.8251 0.000629026)
(-0.0461196 0.701605 0.000402998)
(-0.0247457 0.547042 0.000216331)
(-0.00886798 0.358334 7.76877e-05)
(-0.000336884 0.131694 4.31956e-06)
(-0.576364 -0.168794 0.00503151)
(-0.556191 0.0222987 0.00485549)
(-0.533412 0.198005 0.00465669)
(-0.508191 0.358226 0.00443657)
(-0.480704 0.502782 0.00419666)
(-0.451147 0.631378 0.00393868)
(-0.419725 0.74368 0.00366442)
(-0.386671 0.839233 0.00337592)
(-0.352252 0.917483 0.00307549)
(-0.316764 0.977785 0.00276572)
(-0.28055 1.01938 0.0024496)
(-0.243992 1.04142 0.00213048)
(-0.207532 1.04288 0.00181222)
(-0.171682 1.02262 0.00149926)
(-0.137026 0.979352 0.00119671)
(-0.104226 0.911552 0.000910356)
(-0.0740826 0.817489 0.000647173)
(-0.0474509 0.695108 0.000414631)
(-0.0254625 0.541962 0.000222598)
(-0.00912717 0.355003 7.99583e-05)
(-0.0003476 0.130471 4.45372e-06)
(-0.598441 -0.165189 0.00522426)
(-0.576656 0.023839 0.00503416)
(-0.552319 0.197653 0.00482175)
(-0.525592 0.356151 0.00458849)
(-0.496649 0.499151 0.00433588)
(-0.465684 0.62636 0.00406561)
(-0.4329 0.737444 0.00377945)
(-0.398527 0.83195 0.00347943)
(-0.36283 0.909329 0.00316785)
(-0.326105 0.968942 0.00284728)
(-0.288695 1.01004 0.00252072)
(-0.250982 1.03177 0.00219152)
(-0.213414 1.03313 0.00186358)
(-0.176507 1.01299 0.00154139)
(-0.140852 0.970069 0.00123012)
(-0.107125 0.902865 0.000935674)
(-0.0761392 0.809661 0.000665138)
(-0.0487691 0.688427 0.00042615)
(-0.0261724 0.536739 0.000228804)
(-0.00938399 0.351576 8.22081e-05)
(-0.000358267 0.129212 4.58712e-06)
(-0.620479 -0.161922 0.00541666)
(-0.597056 0.0250399 0.00521226)
(-0.571142 0.196961 0.0049861)
(-0.542898 0.353738 0.00473958)
(-0.512494 0.495185 0.00447421)
(-0.480118 0.621009 0.00419163)
(-0.445972 0.730877 0.00389358)
(-0.410282 0.82434 0.00358207)
(-0.373313 0.900853 0.00325937)
(-0.335357 0.959783 0.00292806)
(-0.296758 1.00039 0.00259113)
(-0.2579 1.02182 0.00225193)
(-0.219234 1.02309 0.0019144)
(-0.181279 1.00308 0.00158306)
(-0.144636 0.960525 0.00126317)
(-0.109991 0.893937 0.000960709)
(-0.0781729 0.80162 0.000682905)
(-0.0500728 0.681564 0.000437542)
(-0.0268748 0.531374 0.000234944)
(-0.0096382 0.348057 8.44351e-05)
(-0.000368875 0.127919 4.71959e-06)
(-0.642413 -0.159008 0.00560815)
(-0.617334 0.0258905 0.0053893)
(-0.589834 0.195923 0.00514929)
(-0.560069 0.350981 0.00488949)
(-0.528201 0.490879 0.00461134)
(-0.494418 0.615322 0.00431647)
(-0.458914 0.72398 0.00400658)
(-0.421916 0.816405 0.00368364)
(-0.383682 0.892057 0.00334991)
(-0.344505 0.950309 0.00300794)
(-0.304728 0.990424 0.00266072)
(-0.264736 1.01157 0.00231162)
(-0.224982 1.01276 0.0019646)
(-0.185992 0.992899 0.00162422)
(-0.148373 0.950723 0.00129581)
(-0.112822 0.884772 0.000985436)
(-0.0801816 0.793367 0.000700453)
(-0.0513607 0.674523 0.000448795)
(-0.0275688 0.525869 0.000241011)
(-0.00988953 0.344445 8.66368e-05)
(-0.00037941 0.126591 4.851e-06)
(-0.664173 -0.156459 0.00579812)
(-0.637432 0.0263829 0.00556476)
(-0.608345 0.194533 0.00531089)
(-0.577059 0.347879 0.00503783)
(-0.543735 0.486233 0.00474697)
(-0.508552 0.609301 0.00443988)
(-0.471702 0.716753 0.00411823)
(-0.433405 0.808145 0.00378396)
(-0.393919 0.882942 0.00343929)
(-0.353535 0.940522 0.00308678)
(-0.312593 0.980158 0.0027294)
(-0.271481 1.00102 0.00237052)
(-0.230653 1.00215 0.00201412)
(-0.190641 0.982444 0.00166482)
(-0.15206 0.940666 0.00132801)
(-0.115614 0.875372 0.00100982)
(-0.0821631 0.784906 0.000717762)
(-0.0526314 0.667304 0.000459899)
(-0.0282537 0.520225 0.000246999)
(-0.0101377 0.340741 8.8811e-05)
(-0.00038986 0.125229 4.9812e-06)
(-0.68569 -0.154282 0.00598598)
(-0.657289 0.0265128 0.00573813)
(-0.626622 0.192789 0.00547047)
(-0.593828 0.34443 0.00518423)
(-0.559059 0.481247 0.00488076)
(-0.522491 0.602946 0.00456157)
(-0.484308 0.709199 0.0042283)
(-0.444729 0.799564 0.00388283)
(-0.404007 0.873512 0.00352737)
(-0.362431 0.930427 0.00316445)
(-0.320341 0.96959 0.00279704)
(-0.278124 0.990181 0.00242853)
(-0.236239 0.991251 0.00206289)
(-0.19522 0.97172 0.00170481)
(-0.15569 0.930358 0.00135971)
(-0.118365 0.865743 0.00103385)
(-0.0841151 0.776239 0.000734815)
(-0.0538834 0.659911 0.000470839)
(-0.0289288 0.514445 0.000252901)
(-0.0103825 0.336948 9.09554e-05)
(-0.000400213 0.123833 5.11002e-06)
(-0.706892 -0.152481 0.00617108)
(-0.676846 0.026279 0.00590887)
(-0.644615 0.190691 0.00562756)
(-0.61033 0.340637 0.00532831)
(-0.574136 0.475924 0.00501239)
(-0.536202 0.596262 0.00468129)
(-0.496708 0.701321 0.00433656)
(-0.455866 0.790666 0.00398006)
(-0.413927 0.863772 0.00361399)
(-0.371178 0.920028 0.00324083)
(-0.327959 0.958726 0.00286356)
(-0.284656 0.979056 0.00248557)
(-0.241731 0.98008 0.00211085)
(-0.199723 0.960734 0.00174413)
(-0.15926 0.919802 0.0013909)
(-0.12107 0.855886 0.00105747)
(-0.0860354 0.76737 0.00075159)
(-0.0551155 0.652346 0.000481605)
(-0.0295934 0.508531 0.000258711)
(-0.0106236 0.333065 9.30675e-05)
(-0.000410456 0.122404 5.23733e-06)
(-0.727708 -0.151054 0.00635281)
(-0.696042 0.0256844 0.00607646)
(-0.662273 0.188244 0.00578172)
(-0.626523 0.336503 0.00546968)
(-0.588929 0.47027 0.00514155)
(-0.549655 0.589253 0.00479875)
(-0.508874 0.693126 0.00444278)
(-0.466794 0.781457 0.00407548)
(-0.423662 0.853726 0.00369899)
(-0.379763 0.909331 0.00331579)
(-0.335436 0.947571 0.00292885)
(-0.291068 0.967648 0.00254155)
(-0.247122 0.968637 0.00215793)
(-0.204143 0.949488 0.00178273)
(-0.162766 0.909004 0.00142151)
(-0.123726 0.845806 0.00108068)
(-0.0879217 0.758303 0.000768069)
(-0.0563261 0.644613 0.000492184)
(-0.0302467 0.502485 0.000264422)
(-0.0108608 0.329096 9.51451e-05)
(-0.000420577 0.120943 5.36297e-06)
(-0.748066 -0.149996 0.00653055)
(-0.714816 0.0247352 0.00624037)
(-0.679544 0.185454 0.00593251)
(-0.642363 0.332037 0.00560798)
(-0.603403 0.464291 0.00526792)
(-0.56282 0.581926 0.00491369)
(-0.520782 0.68462 0.00454675)
(-0.477491 0.771942 0.00416888)
(-0.433193 0.843381 0.00378221)