/*--------------------------------*- C++ -*----------------------------------*\
| =========                 |                                                 |
| \\      /  F ield         | OpenFOAM: The Open Source CFD Toolbox           |
|  \\    /   O peration     | Version:  v2012                                 |
|   \\  /    A nd           | Website:  www.openfoam.com                      |
|    \\/     M anipulation  |                                                 |
\*---------------------------------------------------------------------------*/
FoamFile
{
    version     2.0;
    format      ascii;
    class       volScalarField;
    location    "0.2";
    object      alpha.water;
}
// * * * * * * * * * * * * * * * * * * * * * * * * * * * * * * * * * * * * * //

dimensions      [0 0 0 0 0 0 0];


internalField   nonuniform List<scalar> 
20000
(
0.999992
0.99999
1
0.999996
1
1
0.999997
1
0.964779
0.653699
0.172399
0.0112821
0.000361365
6.55855e-05
1.55495e-05
1.74563e-06
4.69375e-08
1.2152e-10
1.75764e-14
7.86006e-18
1.97947e-20
4.11968e-23
6.92072e-26
9.07447e-29
8.82712e-32
5.85336e-35
2.23267e-38
2.84323e-42
3.13653e-45
3.28603e-45
1.16735e-44
8.356e-43
1.21032e-39
1.53865e-36
4.30175e-34
2.08184e-31
2.06563e-28
1.07927e-25
4.01013e-18
9.46051e-16
9.63346e-15
0
1.10934e-99
9.05058e-116
1.059e-195
9.03679e-208
2.51339e-205
9.28388e-203
4.36417e-200
2.54854e-197
1.82802e-194
1.60777e-191
1.74334e-188
2.36065e-185
4.07385e-182
9.21845e-179
2.84366e-175
1.26349e-171
8.84336e-168
1.18909e-163
0.999992
0.999992
1
0.999996
1
1
0.999997
1
0.968085
0.664667
0.178094
0.0116371
0.000309842
4.28185e-05
9.602e-06
1.09804e-06
2.97389e-08
6.24314e-11
8.09647e-15
6.06819e-18
1.57452e-20
3.34817e-23
5.70045e-26
7.50898e-29
7.25877e-32
4.70566e-35
1.6958e-38
1.73225e-42
2.77326e-45
3.35358e-45
8.11926e-44
8.16588e-44
5.70354e-43
1.14893e-36
2.18305e-34
4.92049e-34
2.02651e-31
1.09275e-28
2.18767e-22
7.43359e-21
1.19064e-19
1.57063e-42
4.10062e-99
1.40216e-114
7.9063e-194
1.45712e-193
1.35946e-191
1.67988e-189
2.63977e-187
5.15434e-185
1.23686e-182
3.64074e-180
1.32098e-177
5.97847e-175
3.43978e-172
2.58506e-169
2.63592e-166
3.85784e-163
8.90755e-160
4.0499e-156
0.999993
0.999992
1
0.999997
0.999999
1
0.999997
1
0.969783
0.670527
0.181155
0.0118198
0.000289421
3.47182e-05
7.55725e-06
8.68795e-07
2.35804e-08
4.53037e-11
5.87076e-15
5.21598e-18
1.38556e-20
3.00295e-23
5.18131e-26
6.86526e-29
6.60431e-32
4.18389e-35
1.41241e-38
1.03597e-42
1.54357e-45
3.06912e-45
7.97757e-44
8.01487e-44
4.20514e-43
6.00245e-37
3.64267e-34
2.66318e-33
6.28777e-33
1.68364e-30
2.0459e-24
9.32388e-22
1.15371e-20
3.10787e-42
1.49175e-96
5.13116e-114
1.06153e-189
4.23295e-188
2.38938e-186
1.78065e-184
1.68582e-182
1.98334e-180
2.86884e-178
5.09146e-176
1.11339e-173
3.03269e-171
1.0473e-168
4.70468e-166
2.8533e-163
2.4735e-160
3.38603e-157
9.29674e-154
0.999993
0.999992
0.999999
0.999997
0.999999
1
0.999997
1
0.97169
0.676945
0.184414
0.0120053
0.000269557
2.71063e-05
5.67304e-06
6.55024e-07
1.77858e-08
2.97031e-11
3.64814e-15
4.40802e-18
1.1987e-20
2.64276e-23
4.60336e-26
6.09703e-29
5.77762e-32
3.51191e-35
1.06327e-38
3.47617e-43
2.56248e-48
2.8255e-45
7.75377e-44
7.78194e-44
3.04753e-43
2.0678e-37
2.97543e-34
4.50481e-33
5.20922e-33
3.05265e-31
3.39827e-25
9.43405e-23
9.88787e-22
7.47436e-41
1.98427e-96
1.0354e-112
1.06153e-189
3.24466e-184
1.32197e-182
7.08489e-181
4.81615e-179
4.06608e-177
4.2196e-175
5.37067e-173
8.41544e-171
1.63983e-168
4.04083e-166
1.29076e-163
5.54396e-161
3.3917e-158
3.27546e-155
6.40534e-152
0.999993
0.999994
0.999999
0.999997
0.999999
1
0.999997
1
0.973509
0.683229
0.187577
0.0121802
0.000254493
2.14689e-05
4.30913e-06
4.98084e-07
1.35175e-08
1.97031e-11
2.24384e-15
3.46442e-18
9.542e-21
2.12849e-23
3.7276e-26
4.9084e-29
4.5371e-32
2.59094e-35
6.58666e-39
-3.1033e-44
2.11436e-48
2.53644e-45
7.45413e-44
7.47989e-44
2.50182e-43
6.92134e-38
2.23178e-34
4.34154e-33
4.46375e-33
5.79436e-32
5.18219e-26
1.04864e-23
9.48185e-23
2.06864e-56
6.15282e-82
1.00227e-96
5.78616e-126
3.9442e-181
1.26341e-179
5.3027e-178
2.81732e-176
1.85701e-174
1.50339e-172
1.49142e-170
1.81908e-168
2.75397e-166
5.25887e-164
1.29753e-161
4.28917e-159
2.01304e-156
1.48982e-153
2.24475e-150
0.999994
0.999994
0.999998
0.999997
1
1
0.999997
1
0.975325
0.689691
0.190853
0.0123662
0.000243271
1.70359e-05
3.2611e-06
3.76371e-07
1.02084e-08
1.29346e-11
1.3195e-15
-1.17002e-17
-5.53479e-20
-1.52162e-22
-3.11607e-25
-4.889e-28
-5.74099e-31
-4.74822e-34
-2.43353e-37
-5.30748e-41
1.81054e-48
2.22802e-45
7.08896e-44
7.09547e-44
2.09412e-43
9.74204e-39
1.51624e-34
3.78266e-33
4.12202e-33
-1.79656e-32
7.07591e-27
1.09181e-24
8.70408e-24
5.20993e-40
3.21645e-81
-3.80244e-118
4.51976e-126
1.60282e-178
4.22177e-177
1.45372e-175
6.32787e-174
3.41415e-172
2.26064e-170
1.83237e-168
1.82358e-166
2.24842e-164
3.48826e-162
6.97222e-160
1.86116e-157
7.03343e-155
4.18563e-152
5.08641e-149
0.999995
0.999995
0.999998
0.999997
1
1
0.999997
1
0.97714
0.696467
0.194369
0.0125829
0.000235851
1.36081e-05
2.47066e-06
2.83936e-07
7.70662e-09
8.69315e-12
8.20396e-16
-9.26396e-18
-4.29102e-20
-1.1986e-22
-2.49974e-25
-3.96482e-28
-4.6349e-31
-3.70934e-34
-1.72682e-37
-2.5715e-41
1.39269e-48
1.90881e-45
6.68415e-44
6.79615e-44
-4.82144e-43
7.94971e-40
9.10525e-35
3.2679e-33
1.24065e-32
1.37017e-32
8.61145e-28
1.04932e-25
7.48654e-25
9.83187e-40
1.46461e-80
7.91008e-97
1.13649e-125
6.00006e-177
9.48085e-175
2.60195e-173
9.15697e-172
4.03144e-170
2.19131e-168
1.46361e-166
1.20282e-164
1.2256e-162
1.57082e-160
2.59041e-158
5.6935e-156
1.76724e-153
8.61749e-151
8.55955e-148
0.999995
0.999994
0.999998
0.999998
1
1
0.999997
1
0.978951
0.703637
0.198241
0.0128517
0.000231697
1.09467e-05
1.87343e-06
2.13842e-07
5.8249e-09
6.21046e-12
5.76317e-16
-7.0933e-18
-3.22675e-20
-9.06762e-23
-1.89912e-25
-2.99466e-28
-3.41603e-31
-2.57336e-34
-1.02779e-37
-5.55743e-42
8.35793e-49
1.5974e-45
6.26589e-44
9.53284e-44
-5.09265e-43
3.10805e-40
6.51926e-35
2.62917e-33
1.2724e-32
1.13996e-32
9.02568e-29
8.95597e-27
5.79858e-26
2.17026e-39
1.76524e-79
7.65737e-117
1.79837e-128
7.16512e-145
5.01329e-172
1.11897e-170
3.18224e-169
1.12752e-167
4.91656e-166
2.62546e-164
1.71761e-162
1.38496e-160
1.39294e-158
1.78093e-156
2.98055e-154
6.84309e-152
2.33813e-149
1.40599e-146
0.999995
0.999995
0.999998
0.999997
1
1
0.999997
1
0.980765
0.711328
0.202611
0.0131889
0.000230428
8.8908e-06
1.42365e-06
1.60977e-07
4.42165e-09
4.95195e-12
4.77643e-16
-5.25762e-18
-2.31279e-20
-6.44636e-23
-1.33609e-25
-2.05909e-28
-2.23984e-31
-1.52819e-34
-4.70469e-38
1.29368e-51
1.30482e-50
1.37204e-45
5.85129e-44
1.19568e-43
-2.10267e-43
7.20505e-41
4.39109e-35
2.03885e-33
1.03092e-32
1.03044e-32
7.86021e-30
6.48566e-28
3.85395e-27
4.64728e-39
1.47034e-96
1.45565e-96
2.83565e-116
1.47332e-144
1.64126e-169
3.2325e-168
8.1873e-167
2.6035e-165
1.0251e-163
4.96712e-162
2.96042e-160
2.18215e-158
2.01254e-156
2.36639e-154
3.65143e-152
7.73386e-150
2.41183e-147
1.3016e-144
0.999995
0.999995
0.999997
0.999998
1
1
0.999998
1
0.982579
0.719629
0.207619
0.0136106
0.000230895
7.32578e-06
1.08548e-06
1.21237e-07
3.38127e-09
4.43101e-12
4.58784e-16
-3.84317e-18
-1.61018e-20
-4.36802e-23
-8.79784e-26
-1.29903e-28
-1.31129e-31
-7.69488e-35
-1.4657e-38
1.20101e-51
7.55046e-51
1.1798e-45
5.45534e-44
1.43508e-43
4.85113e-44
5.80631e-41
2.79569e-35
1.51587e-33
8.7e-33
1.52696e-32
5.47662e-31
3.75879e-29
2.07048e-28
9.50474e-39
2.88173e-55
4.90545e-96
4.40142e-115
1.82302e-144
4.1332e-167
7.81845e-166
1.85448e-164
5.42028e-163
1.93343e-161
8.38728e-160
4.42916e-158
2.86428e-156
2.29382e-154
2.31427e-152
3.01738e-150
5.27645e-148
1.31416e-145
1.85647e-142
0.999995
0.999996
0.999997
0.999999
1
1
0.999998
1
0.984395
0.72866
0.213438
0.0141417
0.00023447
6.16389e-06
8.31515e-07
9.14344e-08
2.61274e-09
4.3137e-12
5.0329e-16
-3.72736e-18
-1.36793e-20
-3.38543e-23
-6.29442e-26
-8.4973e-29
-7.54926e-32
-3.46683e-35
-1.39666e-39
7.61789e-52
2.87217e-51
1.01529e-45
5.07644e-44
1.62228e-43
2.36714e-43
4.47624e-41
1.69868e-35
1.12682e-33
7.12558e-33
1.31869e-32
3.63721e-32
1.57821e-30
8.12815e-30
1.84041e-38
7.10306e-77
5.88945e-96
1.08006e-136
5.75577e-144
2.10106e-165
3.80301e-164
8.66001e-163
2.43629e-161
8.38896e-160
3.52752e-158
1.8171e-156
1.15736e-154
9.26239e-153
9.54553e-151
1.31446e-148
2.52418e-146
1.73797e-143
2.23507e-140
0.999994
0.999998
0.999997
1
1
1
0.999998
1
0.986205
0.738512
0.220252
0.0148188
0.000243631
5.3329e-06
6.40698e-07
6.91165e-08
2.04536e-09
4.30055e-12
5.50543e-16
-2.72416e-18
-9.39359e-21
-2.18879e-23
-3.77974e-26
-4.59727e-29
-3.43458e-32
-1.04233e-35
1.46546e-54
1.96644e-54
6.95193e-52
8.65188e-46
4.7077e-44
1.80338e-43
1.67169e-43
3.19415e-41
9.44132e-36
7.97945e-34
5.72473e-33
1.01177e-32
9.17397e-33
4.00171e-32
1.93548e-31
3.37774e-38
5.75102e-56
1.02714e-95
4.81753e-111
2.58014e-145
1.03343e-163
1.65319e-162
3.30085e-161
8.08107e-160
2.40171e-158
8.63415e-157
3.75962e-155
1.99695e-153
1.31162e-151
1.08906e-149
1.18301e-147
7.8233e-146
1.99249e-141
2.32315e-138
0.999994
0.999999
0.999997
1
1
1
0.999998
1
0.987993
0.749262
0.228264
0.0156835
0.000259631
4.78908e-06
4.97057e-07
5.24143e-08
1.62487e-09
4.17852e-12
5.58165e-16
-1.94448e-18
-6.24721e-21
-1.34316e-23
-2.09425e-26
-2.1986e-29
-1.26519e-32
-1.49098e-36
1.24427e-54
5.15448e-54
8.5247e-52
7.26377e-46
4.33164e-44
1.9313e-43
1.72481e-43
2.11599e-41
4.76401e-36
5.30533e-34
4.34561e-33
8.2408e-33
6.91174e-33
1.03658e-33
2.05593e-33
5.88086e-38
6.20609e-56
1.48311e-111
1.45436e-111
4.18308e-144
3.33514e-162
5.05963e-161
9.5947e-160
2.23479e-158
6.33898e-157
2.18719e-155
9.22412e-154
4.81005e-152
3.16048e-150
2.6879e-148
3.00395e-146
6.96154e-146
1.99321e-139
2.1243e-136
0.999993
0.999999
0.999998
0.999999
1
1
0.999998
1
0.989733
0.760936
0.237671
0.0167808
0.000282511
4.53311e-06
3.88624e-07
3.99142e-08
1.31024e-09
3.96089e-12
5.28715e-16
-1.34631e-18
-3.99797e-21
-7.7776e-24
-1.06096e-26
-9.08198e-30
-3.41371e-33
1.82721e-55
5.59312e-55
1.71673e-54
9.85686e-52
5.95815e-46
3.93257e-44
1.98849e-43
2.03629e-43
9.31276e-42
2.08833e-36
3.36284e-34
3.24485e-33
6.55496e-33
5.98422e-33
5.29306e-34
3.67043e-35
9.71391e-38
7.46002e-56
2.59764e-73
1.50247e-111
5.80663e-144
1.06408e-160
1.46468e-159
2.49503e-158
5.17e-157
1.29176e-155
3.88514e-154
1.41225e-152
6.27089e-151
3.46273e-149
2.43567e-147
9.18891e-146
-1.02414e-144
1.76971e-137
1.73437e-134
0.999993
1
0.999998
0.999999
1
1
0.999997
1
0.991392
0.773512
0.248666
0.0181631
0.000313499
4.45738e-06
3.06755e-07
3.05541e-08
1.07094e-09
3.64616e-12
4.67358e-16
-8.96916e-19
-2.43877e-21
-4.1917e-24
-4.80722e-27
-3.07596e-30
-4.68865e-34
1.81895e-55
4.39581e-55
8.96499e-55
1.09105e-51
4.74134e-46
3.50056e-44
1.98698e-43
2.30319e-43
1.69784e-42
7.43579e-37
1.968e-34
2.33993e-33
5.21908e-33
5.05103e-33
5.00834e-34
2.58041e-35
1.52755e-37
1.33502e-70
4.57346e-93
1.76704e-111
1.23457e-143
2.40689e-159
3.11658e-158
5.01057e-157
9.84634e-156
2.35097e-154
6.8345e-153
2.43956e-151
1.08542e-149
6.14375e-148
4.35555e-146
1.4061e-145
-9.85724e-143
1.41274e-135
1.27964e-132
0.999992
1
0.999998
0.999998
1
1
0.999997
1
0.992943
0.786915
0.261425
0.0198937
0.000354853
4.46152e-06
2.45334e-07
2.35361e-08
8.84748e-10
3.26144e-12
3.89544e-16
-6.18131e-19
-1.46664e-21
-2.1355e-24
-1.93501e-27
-7.78494e-31
2.88027e-53
1.79877e-55
2.46195e-55
1.17222e-54
-3.35784e-52
3.64669e-46
3.03746e-44
1.87455e-43
2.08876e-43
-2.28304e-43
1.91568e-37
1.04734e-34
1.60736e-33
4.13026e-33
4.27768e-33
4.93252e-34
2.06252e-35
2.27554e-37
2.11108e-53
2.06304e-75
4.80947e-111
1.9596e-143
5.62218e-158
6.75105e-157
9.9459e-156
1.77171e-154
3.7958e-153
9.80321e-152
3.07703e-150
1.18976e-148
5.74554e-147
1.03031e-145
4.80757e-145
-7.57556e-141
1.02489e-133
8.61801e-131
0.999992
1
0.999999
0.999998
1
1
0.999997
1
0.994363
0.801028
0.276099
0.0220452
0.000409655
4.70337e-06
1.99837e-07
1.82526e-08
7.35937e-10
2.84224e-12
3.09031e-16
-3.83261e-19
-8.05136e-22
-9.68499e-25
-6.38158e-28
-9.59868e-32
2.91902e-53
1.7735e-55
1.84672e-55
1.34165e-54
-6.99963e-52
2.68809e-46
2.56391e-44
1.72587e-43
1.83739e-43
-3.49019e-43
2.59589e-38
4.94612e-35
1.03325e-33
3.21545e-33
3.60536e-33
5.38478e-34
1.8673e-35
3.19257e-37
1.33576e-64
1.98925e-75
2.69995e-124
3.24627e-144
9.43386e-157
1.05295e-155
1.44668e-154
2.41911e-153
4.91929e-152
1.22587e-150
3.79285e-149
1.47912e-147
6.7321e-146
1.74742e-145
2.36491e-143
-5.30499e-139
6.81823e-132
5.34295e-129
0.999991
1
0.999999
0.999997
1
1
0.999997
1
0.995637
0.815693
0.292801
0.0246992
0.000481716
5.28375e-06
1.66825e-07
1.42518e-08
6.13836e-10
2.4219e-12
2.35808e-16
-2.29275e-19
-4.1757e-22
-3.94294e-25
-1.58458e-28
1.61365e-50
2.94032e-53
1.74496e-55
1.84852e-55
4.32926e-54
-7.45945e-52
1.89975e-46
2.09632e-44
1.54862e-43
1.60048e-43
-2.10189e-43
1.22737e-39
2.01382e-35
6.13486e-34
2.41067e-33
3.01945e-33
6.07087e-34
1.80703e-35
3.8359e-37
1.74638e-54
-2.38547e-96
8.52575e-111
3.47567e-143
1.63967e-155
1.73142e-154
2.2346e-153
3.49167e-152
6.60619e-151
1.52413e-149
4.32923e-148
1.51866e-146
1.21749e-145
9.82336e-145
1.72211e-141
-3.41895e-137
4.19184e-130
3.07167e-127
0.999991
1
0.999999
0.999997
1
1
0.999997
1
0.996755
0.830718
0.311585
0.0279457
0.000575706
6.20871e-06
1.46077e-07
1.12039e-08
5.11496e-10
2.01931e-12
1.7454e-16
-1.33082e-19
-2.04996e-22
-1.40655e-25
-1.9637e-29
1.56665e-50
2.96072e-53
1.71511e-55
1.84527e-55
5.70824e-54
-6.65383e-52
1.28988e-46
1.65086e-44
1.37127e-43
1.41637e-43
-7.1245e-44
8.09097e-41
6.65838e-36
3.26655e-34
1.71178e-33
2.4778e-33
7.19554e-34
1.84426e-35
4.16581e-37
1.76705e-54
8.1438e-72
1.24422e-110
6.14928e-146
2.18025e-154
2.11237e-153
2.4979e-152
3.58622e-151
6.28252e-150
1.35831e-148
3.66204e-147
9.64541e-146
2.29755e-145
5.5429e-143
1.16733e-139
-2.04234e-135
2.39767e-128
1.64791e-125
0.999991
1
0.999999
0.999997
1
1
0.999997
1
0.997716
0.845879
0.332439
0.0318796
0.00069743
7.52428e-06
1.33211e-07
8.86899e-09
4.24598e-10
1.64458e-12
1.26067e-16
-7.56674e-20
-9.57169e-23
-4.11656e-26
6.69289e-48
1.54377e-50
2.97657e-53
1.68367e-55
1.83793e-55
5.85688e-54
-5.30809e-52
8.54648e-47
1.23746e-44
1.19931e-43
1.67589e-43
9.23202e-44
2.70635e-41
1.61099e-36
1.49257e-34
1.1194e-33
1.95091e-33
8.57888e-34
1.89536e-35
4.22352e-37
1.79961e-54
-1.04838e-92
5.55503e-110
7.6525e-143
2.76898e-153
2.57808e-152
2.94425e-151
4.11677e-150
7.08869e-149
1.51321e-147
3.95108e-146
1.56663e-145
2.79508e-144
3.66013e-141
7.34182e-138
-1.13782e-133
1.28344e-126
8.29598e-124
0.999992
1
0.999999
0.999996
1
1
0.999998
1
0.998522
0.860946
0.355275
0.0365977
0.000853949
9.32846e-06
1.27189e-07
7.07182e-09
3.50606e-10
1.30573e-12
8.93456e-17
-4.40705e-20
-4.31237e-23
-7.67516e-27
6.44743e-48
1.50339e-50
2.98891e-53
1.64584e-55
1.82267e-55
5.90746e-54
-5.65326e-52
5.63246e-47
9.08592e-45
1.02797e-43
2.53598e-43
2.46568e-43
7.12101e-42
2.2012e-37
5.42962e-35
6.45084e-34
1.43943e-33
9.8306e-34
1.74394e-35
4.05519e-37
-1.19271e-72
5.52991e-73
-4.77355e-130
1.10859e-142
3.04068e-152
2.59954e-151
2.71059e-150
3.45089e-149
5.39871e-148
1.04099e-146
1.25186e-145
3.88193e-145
1.65736e-142
2.26095e-139
4.30946e-136
-5.94417e-132
6.46259e-125
3.93825e-122
0.999994
1
0.999999
0.999996
1
1
0.999998
1
0.999185
0.87571
0.37994
0.0421936
0.00105358
1.17405e-05
1.27458e-07
5.68314e-09
2.87781e-10
1.00849e-12
6.24171e-17
-2.52299e-20
-1.81955e-23
-1.24151e-30
6.29495e-48
1.46915e-50
2.99788e-53
1.6003e-55
1.79676e-55
5.85179e-54
-4.55109e-52
3.65744e-47
6.78371e-45
8.35808e-44
2.39035e-43
2.34547e-43
1.62091e-42
3.66976e-39
1.36646e-35
3.00154e-34
9.78755e-34
1.03923e-33
1.07317e-35
3.1572e-37
5.07905e-54
5.56853e-73
2.13872e-108
2.00771e-142
2.83327e-151
2.315e-150
2.34284e-149
2.95185e-148
4.65123e-147
8.5596e-146
2.18707e-145
1.04846e-143
1.00434e-140
1.30734e-137
2.37331e-134
-2.92598e-130
3.07526e-123
1.77065e-120
0.999995
1
0.999999
0.999996
1
0.999999
0.999998
1
0.999677
0.890003
0.406222
0.0487511
0.00130574
1.4879e-05
1.35529e-07
4.60059e-09
2.34819e-10
7.54775e-13
4.29392e-17
-1.47525e-20
-6.89375e-24
2.85655e-45
6.13253e-48
1.43449e-50
3.00408e-53
1.54662e-55
1.75679e-55
5.61086e-54
-3.25413e-52
2.2854e-47
4.89592e-45
6.54711e-44
1.99307e-43
2.04091e-43
5.96908e-43
5.9792e-39
1.93562e-36
9.2592e-35
5.91771e-34
9.03688e-34
6.81976e-35
3.4654e-37
1.15652e-54
6.6523e-73
4.19337e-108
3.22808e-142
2.52891e-150
1.96598e-149
1.89604e-148
2.2737e-147
3.37934e-146
1.65379e-145
1.09299e-144
6.08087e-142
5.72293e-139
7.11035e-136
1.2321e-132
-1.36294e-128
1.38862e-121
7.5692e-119
0.999997
1
0.999998
0.999996
1
0.999998
0.999999
1
0.999925
0.9037
0.433861
0.0563358
0.00162054
1.88471e-05
1.50945e-07
3.737e-09
1.90562e-10
5.43748e-13
2.87087e-17
-8.84985e-21
-1.8712e-24
2.66713e-45
5.98215e-48
1.4015e-50
3.00826e-53
1.48474e-55
1.70348e-55
5.26505e-54
-2.01633e-52
1.38951e-47
3.43693e-45
4.99622e-44
1.63521e-43
1.66791e-43
2.74357e-42
1.06085e-38
3.26714e-37
1.41911e-35
2.21138e-34
7.50845e-34
8.69023e-34
3.78941e-37
1.32626e-53
2.09096e-70
6.52039e-107
2.28221e-137
1.82453e-149
1.31742e-148
1.18965e-147
1.34909e-146
1.37878e-145
3.40127e-145
4.84005e-143
3.41432e-140
3.0747e-137
3.65342e-134
6.0552e-131
-6.03086e-127
5.97186e-120
3.08731e-117
0.999999
1
0.999998
0.999997
1
0.999998
0.999999
1
1
0.916674
0.462542
0.0649864
0.00200831
2.37134e-05
1.7152e-07
3.04458e-09
1.53861e-10
3.73124e-13
1.79977e-17
-5.37847e-21
-2.86163e-28
2.63968e-45
5.84122e-48
1.37043e-50
3.01141e-53
1.41515e-55
1.63792e-55
4.84873e-54
-1.00681e-52
8.2287e-48
2.35912e-45
3.71889e-44
1.32699e-43
1.35479e-43
2.55265e-42
7.08211e-39
1.98514e-37
1.75143e-36
1.17264e-35
4.65327e-35
7.61135e-35
4.11142e-37
-6.2648e-74
2.47759e-74
3.04845e-127
2.09815e-145
1.24904e-148
8.93768e-148
8.14993e-147
9.22033e-146
2.42928e-145
5.15158e-144
2.66236e-141
1.81259e-138
1.56383e-135
1.78044e-132
2.82775e-129
-2.54378e-125
2.45419e-118
1.20531e-115
0.999999
1
0.999997
0.999998
1
0.999998
0.999998
1
1
0.928766
0.491915
0.0747099
0.00247904
2.94977e-05
1.94926e-07
2.43922e-09
1.23585e-10
2.3992e-13
9.67649e-18
-3.23867e-21
2.68697e-40
2.57838e-45
5.71242e-48
1.34193e-50
3.0147e-53
1.34012e-55
1.56224e-55
4.3811e-54
-4.36192e-53
4.69971e-48
1.5894e-45
2.68601e-44
1.06932e-43
1.23362e-43
3.45339e-43
2.64874e-39
1.04963e-37
8.43444e-37
2.63957e-36
4.51969e-36
4.91357e-36
2.82593e-37
7.56405e-54
1.68732e-72
6.44197e-106
4.50318e-139
7.55178e-148
5.16627e-147
4.53699e-146
1.96208e-145
9.16435e-145
2.63132e-142
1.39696e-139
9.12743e-137
7.55751e-134
8.25864e-131
1.25912e-127
-1.02597e-123
9.66691e-117
4.51707e-114
1
1
0.999997
0.999998
1
0.999997
0.999999
1
1
0.939785
0.521618
0.0854831
0.00304214
3.61793e-05
2.18147e-07
1.84057e-09
9.87154e-11
1.41597e-13
3.22824e-18
-1.7714e-21
2.57472e-40
2.50412e-45
5.59755e-48
1.31671e-50
3.0196e-53
1.26231e-55
1.47885e-55
3.87595e-54
4.04217e-54
2.49069e-48
1.05712e-45
1.8731e-44
8.48794e-44
1.57833e-43
2.17783e-43
8.20721e-40
3.66349e-38
3.49632e-37
1.18236e-36
1.88167e-36
1.89259e-36
1.48858e-37
5.05392e-55
1.62959e-72
1.30157e-105
6.09135e-139
3.76511e-147
2.50022e-146
1.69531e-145
3.97588e-145
3.24425e-143
1.36341e-140
6.9664e-138
4.37456e-135
3.48183e-132
3.65793e-129
5.36217e-126
-3.96806e-122
3.65961e-115
1.62925e-112
1
1
0.999996
0.999999
1
0.999997
0.999999
1
1
0.94967
0.551326
0.0972631
0.0037069
4.3738e-05
2.38066e-07
1.25667e-09
7.84855e-11
7.48568e-14
3.96243e-20
-7.2948e-22
2.58701e-40
2.44524e-45
5.4993e-48
1.29571e-50
3.02798e-53
1.18469e-55
1.39088e-55
3.34938e-54
3.55521e-53
1.12424e-48
6.93607e-46
1.32683e-44
6.40861e-44
1.32253e-43
1.56015e-43
2.80795e-40
1.25406e-38
1.22747e-37
4.41857e-37
7.4849e-37
7.705e-37
6.68367e-38
4.29593e-55
1.53536e-72
3.27931e-105
1.65478e-138
1.89908e-146
1.30103e-145
3.07477e-145
5.14409e-144
1.64392e-141
6.73532e-139
3.31178e-136
2.00172e-133
1.53383e-130
1.55155e-127
2.19018e-124
-1.47545e-120
1.33485e-113
5.66925e-111
1
1
0.999996
0.999999
1
0.999997
1
0.999999
1
0.958413
0.580793
0.110007
0.00448389
5.22394e-05
2.5202e-07
6.91082e-10
6.23754e-11
3.71969e-14
-7.58321e-22
-9.61195e-25
2.31123e-40
2.39415e-45
5.42079e-48
1.27992e-50
3.04203e-53
1.11096e-55
1.3027e-55
2.82565e-54
5.15772e-53
4.15858e-49
4.37747e-46
9.11616e-45
4.70814e-44
1.06238e-43
1.13439e-43
8.73364e-41
4.06793e-39
4.09491e-38
1.51834e-37
2.66225e-37
2.80166e-37
2.66549e-38
1.65657e-72
1.51932e-72
8.7105e-105
8.73108e-146
8.57875e-146
2.63514e-145
1.23893e-144
2.40229e-142
8.04575e-140
3.17664e-137
1.5052e-134
8.76944e-132
6.47844e-129
6.31889e-126
8.60176e-123
-5.28671e-119
4.7018e-112
1.90729e-109
1.00001
1
0.999997
0.999999
1
0.999997
1
0.999996
1
0.966062
0.609896
0.123705
0.00538789
6.19677e-05
2.57204e-07
2.83314e-10
4.99351e-11
2.57466e-14
-5.58205e-22
-1.31685e-27
2.38405e-40
2.35352e-45
5.36661e-48
1.2702e-50
3.06428e-53
1.04448e-55
1.21854e-55
2.33645e-54
5.62117e-53
1.20338e-49
2.6516e-46
6.11191e-45
3.31055e-44
8.09467e-44
8.68325e-44
2.52353e-41
1.21064e-39
1.25498e-38
4.77067e-38
8.56253e-38
9.14225e-38
9.56344e-39
4.34128e-55
1.32007e-72
2.32595e-104
1.11377e-128
2.64014e-145
5.97247e-145
4.21966e-143
1.1634e-140
3.76564e-138
1.4342e-135
6.55759e-133
3.68761e-130
2.63e-127
2.47686e-124
3.25584e-121
-1.82931e-117
1.60262e-110
6.21613e-108
1.00001
0.999999
0.999998
0.999999
1
0.999996
1
0.999995
1
0.972706
0.638659
0.13841
0.0064423
7.36119e-05
2.54481e-07
1.73063e-10
4.08733e-11
3.13436e-14
-3.14399e-22
7.1941e-29
2.34683e-40
2.32505e-45
5.33728e-48
1.26639e-50
3.09769e-53
9.87431e-56
1.13909e-55
1.87322e-54
5.19839e-53
4.1059e-50
1.50944e-46
3.99344e-45
2.23342e-44
6.01461e-44
1.30493e-43
6.80117e-42
3.29152e-40
3.52525e-39
1.3745e-38
2.51451e-38
2.71317e-38
3.10188e-39
2.76271e-55
1.21302e-72
6.12414e-104
5.2912e-144
5.83164e-145
9.18791e-144
2.00422e-141
5.40451e-139
1.68905e-136
6.21351e-134
2.74498e-131
1.49184e-128
1.02849e-125
9.36445e-123
1.19019e-119
-6.12444e-116
5.29604e-109
1.96617e-106
1.00001
0.999999
0.999999
0.999998
1
0.999996
1
0.999994
1
0.97847
0.667254
0.15428
0.00768508
8.85321e-05
2.38746e-07
4.59331e-11
3.52232e-11
5.55624e-14
6.72625e-21
6.89076e-29
2.31802e-40
2.30874e-45
5.32839e-48
1.26762e-50
3.14574e-53
9.4096e-56
1.06843e-55
1.41025e-54
7.61609e-53
1.78366e-50
7.84461e-47
2.55255e-45
1.57158e-44
4.27351e-44
9.69826e-44
1.80143e-42
8.10007e-41
8.94025e-40
3.59754e-39
6.73377e-39
7.34499e-39
9.08649e-40
2.29748e-55
1.10419e-72
9.37499e-104
2.24961e-142
7.32382e-144
4.10345e-142
9.24117e-140
2.40867e-137
7.27694e-135
2.58883e-132
1.10639e-129
5.81841e-127
3.88228e-124
3.42163e-121
4.20989e-118
-1.98738e-114
1.69967e-107
6.04545e-105
1.00001
0.999998
0.999999
0.999998
0.999999
0.999996
1
0.999993
1
0.98347
0.695952
0.171596
0.00917631
0.000109168
2.03282e-07
4.15458e-11
3.31985e-11
2.76997e-14
6.64232e-21
6.78744e-29
2.30882e-40
2.30284e-45
5.38193e-48
1.28802e-50
3.2125e-53
9.19881e-56
1.02371e-55
9.98553e-55
7.96309e-53
6.88836e-51
3.70394e-47
1.53699e-45
1.06281e-44
2.99922e-44
6.68814e-44
5.15841e-43
1.83111e-41
2.02647e-40
8.39585e-40
1.6188e-39
1.79375e-39
2.39029e-40
1.9701e-55
8.21102e-72
3.25553e-103
6.13434e-129
4.17159e-142
1.88598e-140
4.0928e-138
1.03196e-135
3.01745e-133
1.03937e-130
4.30214e-128
2.19183e-125
1.4171e-122
1.21038e-119
1.44334e-116
-6.26052e-113
5.30572e-106
1.80962e-103
1.00001
0.999998
1
0.999997
0.999998
0.999997
1
0.999993
1
0.987766
0.725022
0.190774
0.0110079
0.000139703
1.45548e-07
3.82234e-11
3.34421e-11
1.2313e-14
5.6065e-21
6.72218e-29
2.31054e-40
2.32081e-45
5.47565e-48
1.31444e-50
3.30289e-53
9.29796e-56
1.00187e-55
6.67768e-55
4.66831e-53
2.44082e-51
1.54425e-47
8.71008e-46
6.94886e-45
2.05879e-44
4.30826e-44
1.72622e-43
3.96753e-42
4.1729e-41
1.72735e-40
3.39472e-40
3.82148e-40
5.6152e-41
1.71079e-55
4.41088e-74
9.0735e-104
4.53047e-139
1.49942e-140
8.26834e-139
1.74369e-136
4.25817e-134
1.20643e-131
4.02809e-129
1.61667e-126
7.98838e-124
5.01017e-121
4.15177e-118
4.80373e-115
-1.9172e-111
1.61321e-104
5.28043e-102
1.00001
0.999998
1
0.999997
0.999998
0.999997
1
0.999993
1
0.991349
0.754596
0.212362
0.0133187
0.000187185
8.88484e-08
2.29483e-11
3.50294e-11
1.36923e-14
5.12085e-21
6.70023e-29
2.35816e-40
2.36931e-45
5.61745e-48
1.35798e-50
3.42287e-53
9.30541e-56
9.78206e-56
4.28384e-55
2.52676e-53
1.04232e-51
5.46138e-48
4.56207e-46
4.32671e-45
1.37983e-44
2.73623e-44
6.81903e-44
8.50088e-43
8.19085e-42
3.26796e-41
6.35709e-41
7.18022e-41
1.17508e-41
1.32321e-55
1.48518e-73
2.58419e-104
7.77677e-130
8.40109e-139
3.52114e-137
7.15864e-135
1.69499e-132
4.65835e-130
1.50931e-127
5.88007e-125
2.82103e-122
1.71819e-119
1.38287e-116
1.55414e-113
-5.71461e-110
4.7834e-103
1.50379e-100
1.00001
0.999998
1
0.999996
0.999998
0.999997
1
0.999993
1
0.994187
0.784606
0.237073
0.0163178
0.000263638
8.87314e-08
7.81646e-11
3.52465e-11
1.53497e-14
4.67783e-21
6.77605e-29
2.42214e-40
2.43477e-45
5.83265e-48
1.41864e-50
3.57986e-53
9.27695e-56
9.22633e-56
2.61031e-55
1.26781e-53
4.89253e-52
1.53258e-48
2.17604e-46
2.53336e-45
8.95846e-45
1.73374e-44
3.16413e-44
1.79753e-43
1.55123e-42
5.98665e-42
1.13246e-41
1.26415e-41
2.18097e-42
1.20813e-55
2.60354e-91
1.88734e-104
3.64235e-130
3.57645e-137
1.43903e-135
2.83611e-133
6.51822e-131
1.7396e-128
5.47532e-126
2.07279e-123
9.6655e-121
5.72284e-118
4.47819e-115
4.89354e-112
-1.65974e-108
1.38468e-101
4.1839e-99
1.00001
0.999998
1
0.999995
0.999998
0.999996
1
0.999994
1
0.996303
0.814832
0.265857
0.0203282
0.000389038
3.25852e-07
1.46665e-09
3.49191e-11
1.7351e-14
4.32319e-21
6.99109e-29
2.5186e-40
2.53772e-45
6.12576e-48
1.50183e-50
3.78316e-53
9.21887e-56
4.95415e-56
1.33416e-55
6.00109e-54
3.04028e-52
2.96244e-49
9.3101e-47
1.37459e-45
5.56849e-45
1.09891e-44
1.67854e-44
4.07653e-44
2.69243e-43
1.04456e-42
1.94347e-42
2.13654e-42
3.59692e-43
9.81827e-56
6.97711e-73
4.77299e-102
2.37358e-130
1.46124e-135
5.67591e-134
1.08571e-131
2.42467e-129
6.29055e-127
1.92536e-124
7.08997e-122
3.21663e-119
1.85332e-116
1.41142e-113
1.50115e-110
-4.70136e-107
3.91678e-100
1.13823e-97
1.00001
0.999999
1
0.999994
0.999998
0.999996
1
0.999993
0.999999
0.997799
0.844984
0.300017
0.0258394
0.000600997
1.06833e-06
1.6069e-09
3.57908e-11
1.9798e-14
4.04651e-21
7.2683e-29
2.66111e-40
2.67885e-45
6.52116e-48
1.61269e-50
4.04466e-53
9.45361e-56
2.21552e-56
6.34595e-56
2.78712e-54
1.66844e-52
2.86309e-50
3.52735e-47
6.82767e-46
3.26225e-45
6.88715e-45
9.6267e-45
1.29862e-44
4.10849e-44
1.64616e-43
3.13361e-43
3.43375e-43
5.54005e-44
7.77795e-56
3.24517e-93
1.48428e-101
2.35255e-130
5.76191e-134
2.16327e-132
4.02048e-130
8.73383e-128
2.20496e-125
6.56944e-123
2.35549e-120
1.04077e-117
5.84105e-115
4.33348e-112
4.49026e-109
-1.29977e-105
1.08345e-98
3.03004e-96
1
0.999999
1
0.999995
0.999999
0.999996
0.999999
0.999993
0.999994
0.998815
0.874757
0.341127
0.0336732
0.000942023
2.14572e-06
1.82016e-09
3.88608e-11
2.28185e-14
3.84228e-21
7.69739e-29
2.85334e-40
2.87029e-45
7.04212e-48
1.75864e-50
4.37973e-53
1.01962e-55
9.20976e-57
2.88623e-56
1.24041e-54
7.01933e-53
7.00691e-51
1.16586e-47
3.08195e-46
1.7702e-45
4.15572e-45
5.75716e-45
6.31162e-45
6.4332e-45
2.19165e-44
4.60433e-44
5.21921e-44
9.08847e-45
6.04043e-56
8.02323e-75
2.1616e-102
1.95671e-130
2.19545e-132
7.97451e-131
1.44149e-128
3.0491e-126
7.49832e-124
2.17682e-121
7.60711e-119
3.2766e-116
1.79292e-113
1.29705e-110
1.31058e-107
-3.50936e-104
2.93259e-97
7.89728e-95
1
1
1
0.999994
0.999999
0.999996
0.999998
0.999992
0.999992
0.999453
0.903591
0.391137
0.0449189
0.00145458
3.934e-06
2.10666e-09
4.30961e-11
2.66218e-14
3.70904e-21
8.29945e-29
3.1139e-40
3.12429e-45
7.72251e-48
1.94944e-50
4.8085e-53
1.13783e-55
3.69029e-57
1.19326e-56
4.88437e-55
2.61505e-53
1.5817e-51
3.25343e-48
1.25875e-46
8.85333e-46
2.35025e-45
3.40845e-45
3.62056e-45
2.19447e-45
2.27879e-45
5.69442e-45
7.20361e-45
1.83714e-45
4.5862e-56
7.77019e-75
5.52047e-102
1.97084e-130
8.10565e-131
2.84556e-129
5.0076e-127
1.03242e-124
2.47556e-122
7.00943e-120
2.38965e-117
1.00433e-114
5.36313e-112
3.7867e-109
3.73455e-106
-9.2575e-103
7.7706e-96
2.01602e-93
1
1
1
0.999995
0.999999
0.999997
0.999998
0.999992
0.999993
0.999799
0.930649
0.451594
0.0609239
0.00222741
7.39136e-06
2.50856e-09
4.85398e-11
3.14822e-14
3.63793e-21
9.11587e-29
3.45889e-40
3.45822e-45
8.60648e-48
2.19828e-50
5.35776e-53
1.29868e-55
1.5598e-57
4.56079e-57
1.68549e-55
8.55009e-54
3.43993e-52
7.02678e-49
4.55618e-47
4.08625e-46
1.26183e-45
2.02779e-45
2.28427e-45
1.15942e-45
4.02529e-46
4.84296e-46
7.4084e-46
3.97645e-46
3.40286e-56
-7.57288e-95
8.49242e-102
2.15846e-130
8.3035e-130
9.64181e-128
1.68625e-125
3.39228e-123
7.93868e-121
2.19441e-118
7.30512e-116
2.99851e-113
1.56401e-110
1.07874e-107
1.03932e-104
-2.38659e-101
2.01625e-94
5.04206e-92
1
1
1
0.999995
0.999999
0.999997
0.999998
0.999992
0.999993
0.999932
0.954661
0.522936
0.0832286
0.00342961
1.39766e-05
3.07215e-09
5.6042e-11
3.7782e-14
3.61368e-21
1.02173e-28
3.91655e-40
3.89518e-45
9.75346e-48
2.52307e-50
6.06342e-53
1.50861e-55
7.8878e-58
1.74302e-57
5.14636e-56
2.46833e-54
9.53189e-53
9.82409e-50
1.4162e-47
1.72068e-46
6.3858e-46
1.14382e-45
1.36554e-45
8.86078e-46
1.55501e-46
4.70515e-47
4.5036e-47
4.52324e-47
2.46815e-56
4.09029e-74
9.51108e-102
8.43907e-130
2.20237e-128
3.21955e-126
5.50721e-124
1.08199e-121
2.47361e-119
6.68129e-117
2.17381e-114
8.72214e-112
4.44769e-109
2.99934e-106
2.82545e-103
-6.01347e-100
5.12365e-93
1.23553e-90
1
1
1
0.999995
0.999999
0.999997
0.999998
0.999993
0.999989
0.999971
0.974031
0.60338
0.114464
0.00533331
2.65843e-05
3.87922e-09
6.64843e-11
4.60496e-14
3.66743e-21
1.16893e-28
4.52063e-40
4.46648e-45
1.12435e-47
2.94827e-50
6.97419e-53
1.77848e-55
5.23543e-58
8.18167e-58
1.4676e-56
6.65359e-55
3.1403e-53
4.60077e-51
3.60184e-48
6.40464e-47
2.99829e-46
6.1372e-46
7.72961e-46
6.34132e-46
1.25031e-46
1.62669e-47
3.46355e-48
1.28659e-48
1.753e-56
7.81428e-84
1.04179e-101
2.27918e-128
7.25316e-127
1.04365e-124
1.74463e-122
3.35065e-120
7.49009e-118
1.97865e-115
6.29749e-113
2.47213e-110
1.23348e-107
8.13967e-105
7.50353e-102
-1.48083e-98
1.2751e-91
2.96623e-89
1
1
1
0.999994
1
0.999999
0.999997
0.999993
0.999981
0.999973
0.987576
0.689479
0.157947
0.00839638
5.07724e-05
5.06547e-09