/*--------------------------------*- C++ -*----------------------------------*\
| =========                 |                                                 |
| \\      /  F ield         | OpenFOAM: The Open Source CFD Toolbox           |
|  \\    /   O peration     | Version:  v2012                                 |
|   \\  /    A nd           | Website:  www.openfoam.com                      |
|    \\/     M anipulation  |                                                 |
\*---------------------------------------------------------------------------*/
FoamFile
{
    version     2.0;
    format      ascii;
    class       volScalarField;
    location    "0.4";
    object      alpha.water;
}
// * * * * * * * * * * * * * * * * * * * * * * * * * * * * * * * * * * * * * //

dimensions      [0 0 0 0 0 0 0];


internalField   nonuniform List<scalar> 
3332
(
1.12395e-65
-3.74742e-49
-2.80318e-39
-1.55849e-33
-5.67464e-36
6.13595e-58
0
-3.20553e-40
5.15038e-64
-2.36378e-48
-6.75675e-39
-5.9378e-32
-3.05308e-39
-2.62105e-40
6.90835e-43
-1.81099e-37
-1.14124e-39
1.36137e-16
7.14156e-15
9.65466e-15
9.65614e-15
9.65614e-15
9.56943e-15
9.48188e-63
-6.76364e-48
-4.04952e-38
-2.33862e-32
-6.77688e-34
-8.23552e-49
2.33188e-28
-6.48316e-27
1.58583e-16
7.27916e-15
9.6401e-15
9.65033e-15
9.21794e-15
8.35064e-15
7.24481e-15
-7.21052e-62
-6.33356e-52
-1.02169e-36
-6.66812e-33
-1.49886e-31
-2.71047e-31
1.16222e-25
3.09152e-16
7.32263e-15
8.95979e-15
8.71129e-15
6.94057e-15
6.12319e-15
6.14603e-15
6.16262e-15
-7.48521e-58
-5.67925e-49
-1.47567e-34
-3.64159e-36
-4.33661e-37
-1.13672e-29
4.77962e-16
7.14882e-15
8.95322e-15
7.20619e-15
4.95243e-15
4.96224e-15
5.43735e-15
2.15979e-14
4.28847e-14
9.55379e-58
3.69418e-48
-5.39886e-32
-3.52243e-34
-2.75233e-34
-3.14731e-24
5.75965e-15
8.13726e-15
5.99517e-15
2.71884e-15
3.96697e-15
2.14331e-14
4.7112e-14
6.1015e-14
6.11434e-14
-9.03082e-54
-2.8526e-47
-2.56573e-29
-3.55397e-32
-1.54196e-24
2.83146e-15
6.16456e-15
5.10334e-15
2.71884e-15
2.71884e-15
3.07661e-15
3.92203e-14
6.08547e-14
6.10136e-14
6.11434e-14
-2.86173e-57
-5.50253e-44
-1.06902e-31
-6.56482e-25
1.86647e-15
4.13112e-15
4.08339e-15
3.06126e-15
2.71884e-15
2.71884e-15
2.85766e-15
8.96104e-15
4.11646e-14
3.94584e-14
2.508e-14
-6.03455e-55
-2.4152e-45
-2.51341e-29
2.48452e-16
3.39642e-15
3.84563e-15
3.8464e-15
3.57438e-14
6.81115e-14
3.04552e-14
2.93667e-15
3.84581e-15
3.9562e-15
4.12521e-15
3.40496e-15
-3.79473e-51
-4.23776e-41
-2.08732e-32
1.39061e-15
2.80481e-15
2.869e-15
2.56678e-14
9.03458e-14
1.05342e-13
1.05345e-13
8.12624e-14
4.58102e-15
3.19211e-15
3.19211e-15
3.40511e-15
-1.1878e-48
-4.06579e-39
5.79451e-36
1.28899e-15
3.18349e-16
7.75203e-15
4.11377e-14
4.5037e-14
3.37696e-14
1.11176e-13
1.12617e-13
1.71961e-14
3.19211e-15
3.19211e-15
3.20594e-15
-4.4879e-46
-5.03228e-37
1.67859e-16
9.94e-17
1.01749e-16
1.02798e-14
9.67211e-15
1.38745e-15
5.30006e-15
3.53624e-14
3.81923e-14
6.00912e-15
3.19211e-15
3.19411e-15
3.19787e-15
-1.88616e-47
-2.35046e-41
2.56275e-16
9.02683e-17
5.52976e-16
1.50249e-15
5.13782e-16
3.60131e-16
1.46899e-15
8.25962e-15
1.05998e-14
4.12263e-15
3.19267e-15
3.19784e-15
3.2832e-15
5.48932e-41
4.90876e-57
7.58986e-17
1.07697e-16
6.06068e-16
3.82469e-16
4.17195e-16
3.60131e-16
7.91094e-16
5.17347e-15
6.45001e-15
6.22738e-15
3.37883e-15
3.198e-15
3.29475e-15
2.34046e-38
8.4773e-36
2.94892e-21
1.31935e-16
5.7315e-17
2.95305e-16
5.82677e-16
3.60131e-16
8.77318e-16
4.69016e-15
4.16754e-15
3.73135e-15
3.32279e-15
3.19821e-15
3.22062e-15
8.52395e-36
2.63678e-33
6.8851e-31
3.47955e-17
2.21591e-17
1.83231e-16
4.35677e-16
3.89205e-16
2.94466e-15
4.25459e-15
3.50349e-15
3.20523e-15
3.20605e-15
3.21337e-15
3.23798e-15
2.63681e-33
6.8851e-31
1.49984e-28
2.70784e-26
2.3933e-22
1.06689e-16
1.93852e-16
2.54337e-16
3.28849e-15
3.26431e-15
3.271e-15
3.20584e-15
3.20676e-15
3.24656e-15
3.34134e-15
6.88478e-31
1.49826e-28
2.67989e-26
3.99615e-24
4.16758e-20
6.25261e-17
1.42944e-16
2.40876e-16
1.37828e-15
2.0143e-15
3.19771e-15
3.20684e-15
3.20628e-15
3.20611e-15
3.2063e-15
1.49819e-28
2.66503e-26
3.83474e-24
4.75492e-22
1.19428e-18
5.35978e-17
1.35508e-16
3.01228e-16
1.02141e-15
1.23683e-14
3.24212e-15
3.20644e-15
3.2063e-15
3.2063e-15
3.20752e-15
2.66557e-26
3.83428e-24
4.67187e-22
4.40603e-20
2.81863e-17
1.48272e-16
2.67341e-13
1.7235e-12
1.84171e-12
1.29522e-13
3.2128e-15
3.20744e-15
3.20644e-15
1.64781e-13
1.60145e-12
3.95125e-24
4.67539e-22
4.40407e-20
3.47753e-18
4.87847e-16
1.0888e-15
1.01323e-11
1.59743e-11
5.3604e-12
3.47167e-15
3.2377e-15
3.21409e-15
3.20755e-15
1.49333e-12
2.34165e-12
4.78337e-22
4.54574e-20
3.47413e-18
1.466e-16
6.43288e-15
1.15416e-14
1.27228e-11
1.70752e-11
4.91344e-12
5.45535e-15
3.4717e-15
3.62858e-15
2.7657e-14
1.49547e-12
2.34165e-12
4.55855e-20
3.47821e-18
1.46515e-16
3.90778e-15
7.48596e-14
1.27795e-13
8.12459e-12
4.39693e-12
2.831e-12
1.64464e-14
5.45499e-15
7.16545e-15
1.12752e-14
4.58045e-14
8.17432e-13
2.80008e-12
1.4684e-16
3.90815e-15
8.62e-14
7.81188e-13
1.40807e-12
5.51322e-12
2.03811e-12
1.32426e-12
8.34948e-14
7.00238e-15
5.27691e-15
6.23512e-15
7.38073e-15
6.99546e-15
5.12805e-12
3.92481e-15
8.44248e-14
1.17011e-12
9.52401e-12
1.35544e-11
9.35253e-12
6.82471e-12
2.4239e-12
7.70428e-13
1.47349e-13
6.98851e-15
7.63413e-15
7.8226e-15
7.12371e-15
5.12299e-12
8.44411e-14
1.1702e-12
1.32198e-11
3.5147e-09
2.38562e-09
2.79193e-11
3.52476e-11
2.31579e-11
7.01281e-12
2.2362e-12
7.86347e-15
7.8782e-15
7.81223e-15
7.45717e-15
5.12267e-12
1.0816e-10
1.77421e-09
5.46984e-09
1.14764e-08
5.31846e-09
1.1158e-10
7.27961e-09
7.73376e-11
1.38822e-11
3.0449e-13
8.24401e-15
7.94901e-15
5.13006e-12
2.75178e-10
2.29466e-10
2.25835e-08
8.32281e-09
5.2819e-09
3.08221e-09
2.14198e-08
1.87228e-10
2.3747e-09
1.05725e-11
3.0449e-13
8.2785e-15
5.33759e-12
9.48792e-12
6.56804e-08
4.28605e-08
1.67484e-08
2.16696e-08
2.71083e-08
2.35265e-09
4.04267e-10
1.25129e-08
8.34967e-09
1.23038e-08
1.2709e-09
9.48792e-12
1.45874e-07
3.62824e-07
1.87281e-07
2.09692e-06
1.24388e-06
3.26162e-08
1.92009e-08
1.37907e-08
2.38717e-08
6.30754e-08
2.30187e-08
2.56117e-12
7.09657e-09
4.15898e-07
3.93701e-07
3.66236e-07
1.23863e-05
8.57961e-06
7.17777e-08
1.38703e-06
3.38429e-08
1.27776e-08
4.91705e-08
5.23033e-09
1.49529e-11
1.24172e-08
2.23551e-08
6.60349e-07
5.33898e-06
2.9574e-05
2.10058e-05
1.00873e-06
1.04253e-05
2.02461e-07
3.48962e-08
2.20366e-08
1.08692e-08
3.90732e-08
5.22913e-08
1.14468e-07
1.96252e-06
1.13361e-06
2.0105e-05
1.27213e-05
1.70539e-06
2.05542e-05
5.50339e-07
7.14506e-06
5.45822e-08
1.39895e-08
2.40654e-07
1.29928e-07
8.00864e-07
2.69678e-06
1.50764e-05
5.53055e-05
4.5216e-05
4.93796e-06
0.000291992
1.53901e-05
6.59649e-05
6.53215e-08
1.97602e-08
3.27e-07
8.00875e-07
8.40676e-06
1.18856e-05
3.1798e-05
6.43544e-05
3.73754e-05
-2.75021e-22
-0.000166278
1.4183e-05
2.80328e-07
8.97928e-08
5.75623e-08
7.06649e-07
0.120511
0.0855856
0.0722771
-0.000150681
0.00039044
0.000258685
6.03858e-05
6.59853e-22
3.5556e-05
4.11297e-06
0.000268538
7.76657e-06
1.51435e-08
0.636503
0.61421
0.556339
0.426902
0.282521
0.181185
0.163965
0.00292585
5.38022e-05
0.0877327
0.00187781
5.32395e-08
1.44557e-08
0.744638
0.724649
0.667053
0.709353
0.695239
0.680573
0.676081
0.694782
0.62481
0.808967
0.909602
0.905591
0.887211
0.853912
0.830863
0.818432
0.819806
0.830349
0.8652
0.928381
0.971602
0.972883
0.963881
0.956101
0.94969
0.946054
0.946518
0.954825
0.97102
0.984977
0.995984
0.996933
0.994654
0.992207
0.990606
0.990454
0.992137
0.996095
1
1
1
1
1
1
1
1
1
1
1
1
1
1
1
1
1
1
1
1
1
1
1
1
1
1
1
1
1
1
1
1
1
1
1
1
1
1
1
1
1
1
1
1
1
1
1
1
1
1
1
1
1
1
1
1
1
1
1
1
1
1
1
1
1
1
1
1
1
1
1
1
1
1
1
1
1
1
1
1
1
1
1
1
1
1
1
1
1
1
1
1
1
1
1
1
1
1
1
1
1
1
1
1
1
1
1
1
1
1
1
1
1
1
1
1
1
1
1
1
1
1
1
1
1
1
1
1
1
1
1
1
1
1
1
1
1
1
1
1
1
1
1
1
1
1
1
1
1
1
1
1
1
1
1
1
1
1
1
1
1
1
1
1
1
1
1
1
1
1
1
1
1
1
1
1
1
1
1
1
1
1
1
1
1
1
1
1
1
1
1
1
1
1
1
1
1
1
1
1
1
1
1
1
1
1
1
1
1
1
1
1
1
1
1
1
1
1
1
1
1
1
1
1
1
1
1
1
1
1
1
1
1
1
1
1
1
1
1
1
1
1
1
1
1
1
1
1
1
1
1
1
1
1
1
1
1
1
1
1
1
1
1
1
1
1
1
1
1
1
1
1
1
1
1
1
1
1
1
1
1
1
1
1
1
1
1
1
1
1
1
1
1
1
1
1
1
1
1
1
1
1
1
1
1
1
1
1
1
1
1
1
1
1
1
1
1
1
1
1
1
1
1
1
1
1
1
1
1
1
1
1
1
1
1
1
1
1
1
1
1
1
1
1
1
1
1
1
1
1
1
1
1
1
1
1
1
1
1
1
1
1
1
1
1
1
1
1
1
1
1
1
1
1
1
1
1
1
1
1
1
1
1
1
1
1
1
1
1
1
1
1
1
1
1
1
1
1
1
1
1
1
1
1
1
1
1
1
1
1
1
1
1
1
1
1
1
1
1
1
1
1
1
1
1
1
1
1
1
1
1
1
1
1
1
1
1
1
1
1
1
1
1
1
1
1
1
1
1
1
1
1
1
1
1
1
1
1
1
1
1
1
1
1
1
1
1
1
1
1
1
1
1
1
1
1
1
1
1
1
1
1
1
1
1
1
1
1
1
1
1
1
1
1
1
1
1
1
1
1
1
1
1
1
1
1
1
1
1
1
1
1
1
1
1
1
1
1
1
1
1
1
1
1
1
1
1
1
1
1
1
1
1
1
1
1
1
1
1
1
1
1
1
1
1
1
1
1
1
1
1
1
1
1
1
1
1
1
1
1
1
1
1
1
1
1
1
1
1
1
1
1
1
1
1
1
1
1
1
1
1
1
1
1
1
1
1
1
1
1
1
1
1
1
1
1
1
1
1
1
1
1
1
1
1
1
1
1
1
1
1
1
1
1
1
1
1
1
1
1
1
1
1
1
1
1
1
1
1
1
1
1
1
1
1
1
1
1
1
1
1
1
1
1
1
1
1
1
1
1
1
1
1
1
1
1
1
1
1
1
1
1
1
1
1
1
1
1
1
1
1
1
1
1
1
1
1
1
1
1
1
1
1
1
1
1
1
1
1
1
1
1
1
1
1
1
1
1
1
1
1
1
1
1
1
1
1
1
1
1
1
1
1
1
1
1
1
1
1
1
1
1
1
1
1
1
1
1
1
1
1
1
1
1
1
1
1
1
1
1
1
1
1
1
1
1
1
1
1
1
1
1
1
1
1
1
1
1
1
1
1
1
1
1
1
1
1
1
1
1
1
1
1
1
1
1
1
1
1
1
1
1
1
1
1
1
1
1
1
1
1
1
1
1
1
1
1
1
1
1
1
1
1
1
1
1
1
1
1
1
1
1
1
1
1
1
1
1
1
1
1
1
1
1
1
1
1
1
1
1
1
1
1
1
1
1
1
1
1
1
1
1
1
1
1
1
1
1
1
1
1
1
1
1
1
1
1
1
1
1
1
1
1
1
1
1
1
1
1
1
1
1
1
1
1
1
1
1
1
1
1
1
1
1
1
1
1
1
1
1
1
1
1
1
1
1
1
1
1
1
1
1
1
1
1
1
1
1
1
1
1
1
1
1
1
1
1
1
1
1
1
1
1
1
1
1
1
1
1
1
1
1
1
1
1
1
1
1
1
1
1
1
1
1
1
1
1
1
1
1
1
1
1
1
1
1
1
1
1
1
1
1
1
1
1
1
1
1
1
1
1
1
1
1
1
1
1
1
1
1
1
1
1
1
1
1
1
1
1
1
1
1
1
1
1
1
1
1
1
1
1
1
1
1
1
1
1
1
1
1
1
1
1
1
1
1
1
1
1
1
1
1
1
1
1
1
1
1
1
1
1
1
1
1
1
1
1
1
1
1
1
1
1
1
1
1
1
1
1
1
1
1
1
1
1
1
1
1
1
1
1
1
1
1
1
1
1
1
1
1
1
1
1
1
1
1
1
1
1
1
1
1
1
1
1
1
1
1
1
1
1
1
1
1
1
1
1
1
1
1
1
1
8.03954e-66
-1.06562e-48
-2.68008e-39
-3.34751e-34
-1.8567e-36
-2.42718e-39
0
-5.90618e-27
2.54516e-64
-5.14963e-48
-6.97151e-39
-1.26995e-31
-5.9577e-39
-5.69587e-40
0
0
-3.37124e-40
1.63138e-17
6.81759e-15
9.65445e-15
9.65614e-15
9.34554e-15
7.35694e-15
1.81311e-64
-5.48391e-52
-3.73618e-38
-3.20548e-32
-1.39169e-33
-2.29606e-46
1.03238e-27
-2.1253e-27
3.23488e-17
6.47884e-15
9.44997e-15
8.82019e-15
8.16922e-15
7.05163e-15
5.49648e-15
-7.53876e-62
-1.65699e-49
-8.22017e-37
-1.89153e-32
-1.98181e-31
-2.05121e-31
2.1316e-25
1.32129e-16
6.66175e-15
8.95979e-15
7.52851e-15
6.16262e-15
6.14603e-15
1.12742e-14
4.13906e-14
-8.44575e-58
-1.06203e-46
-1.15091e-34
-4.45093e-36
-3.29984e-38
-9.53494e-30
3.5787e-16
6.67216e-15
8.95979e-15
8.95979e-15
8.05255e-15
1.4603e-14
3.02557e-14
5.60854e-14
5.83348e-14
1.53754e-57
-1.93963e-43
-3.27898e-32
-3.72798e-34
5.91105e-47
6.72216e-20
5.66437e-15
8.13726e-15
8.00012e-15
5.57666e-15
9.9741e-15
4.00011e-14
6.07564e-14
6.08592e-14
5.19764e-14
-5.81238e-54
-3.82433e-45
-1.81475e-29
-1.90301e-32
-2.01181e-24
2.88289e-15
6.16456e-15
5.93851e-15
3.68079e-15
2.71884e-15
4.71633e-15
2.8093e-14
4.7938e-14
4.82181e-14
1.45689e-14
-2.23483e-57
-8.42107e-42
-6.91422e-32
-6.8117e-25
2.13393e-15
4.13112e-15
4.09913e-15
3.46463e-15
2.82745e-15
2.71884e-15
2.82387e-15
1.04379e-14
3.43794e-14
4.09154e-14
1.5745e-14
-3.63674e-55
-9.2353e-43
-8.19304e-30
3.0125e-16
3.73492e-15
3.96972e-15
3.91525e-15
6.87318e-15
4.10188e-14
6.92802e-14
7.87386e-14
1.10091e-13
1.13869e-13
9.54321e-14
2.47114e-14
-2.26496e-51
-7.12934e-39
-1.08383e-33
1.45909e-15
2.26734e-15
4.5021e-15
4.33153e-14
9.97233e-14
1.21336e-13
1.22507e-13
1.22305e-13
1.22647e-13
1.22647e-13
9.56268e-14
1.19715e-14
-7.09638e-49
-7.51958e-37
7.38096e-47
1.46075e-15
2.45814e-16
8.02572e-15
7.67512e-14
1.20294e-13
1.22532e-13
1.22603e-13
1.22647e-13
1.22647e-13
9.48295e-14
9.58851e-15
3.20628e-15
-2.68277e-46
-1.15309e-34
1.42723e-16
4.33335e-16
1.02307e-16
7.19916e-15
1.21009e-14
2.01089e-14
6.10987e-14
1.22129e-13
1.21819e-13
9.86047e-14
1.10623e-14
3.19416e-15
3.20881e-15
-1.13406e-47
1.51309e-26
2.56275e-16
1.11211e-16
6.70442e-16
1.83908e-15
1.28133e-15
5.216e-16
7.09294e-16
3.51383e-14
3.49642e-14
1.0072e-14
3.19459e-15
3.2058e-15
3.24959e-15
5.3759e-41
2.28673e-38
1.57885e-16
1.822e-16
1.87801e-15
1.87427e-15
1.6918e-15
4.96878e-16
5.02209e-16
4.56432e-15
4.29292e-15
3.22325e-15
3.19771e-15
3.23714e-15
3.22307e-15
2.2921e-38
8.34782e-36
2.58232e-33
3.55766e-17
1.60926e-15
2.41774e-15
2.41774e-15
1.72698e-15
2.26312e-15
4.41694e-15
3.64203e-15
3.20481e-15
3.20486e-15
3.20464e-15
3.20466e-15
8.34782e-36
2.58232e-33
6.74284e-31
5.05787e-21
4.9428e-17
2.06919e-15
2.41774e-15
1.91973e-15
2.99883e-15
4.35837e-15
3.43434e-15
3.20486e-15
3.20604e-15
3.20466e-15
5.36455e-14
2.58232e-33
6.74284e-31
1.46885e-28
2.02057e-21
2.5728e-21
3.02398e-16
2.38674e-15
1.94874e-15
2.90198e-15
3.36517e-15
3.25302e-15
3.20523e-15
3.20625e-15
3.20486e-15
8.68392e-13
6.7426e-31
1.46364e-28
2.60349e-26
3.91316e-24
2.27263e-20
1.7978e-16
1.15887e-15
1.80488e-15
2.15661e-15
3.18323e-15
3.21038e-15
3.20758e-15
3.20622e-15
3.20532e-15
9.26459e-13
1.46359e-28
2.59647e-26
3.82128e-24
4.6878e-22
5.16663e-19
9.73385e-17
7.10995e-16
1.57751e-15
1.93524e-15
2.96948e-15
3.20713e-15
3.2063e-15
3.20625e-15
6.1347e-15
9.71477e-15
2.59691e-26
3.82094e-24
4.60893e-22
4.40791e-20
9.8017e-18
8.52427e-17
7.1724e-16
1.44331e-15
1.95401e-15
3.05022e-15
3.20533e-15
3.20644e-15
3.2063e-15
7.16029e-15
1.19829e-14
3.90438e-24
4.61112e-22
4.40617e-20
3.3933e-18
1.66425e-16
3.77631e-16
1.06089e-15
2.04275e-15
3.02211e-15
3.1693e-15
3.21312e-15
3.20755e-15
3.20644e-15
8.45777e-15
2.20545e-14
4.68414e-22
4.43194e-20
3.3924e-18
1.25631e-16
2.43525e-15
3.09245e-15
4.60748e-15
6.62718e-15
1.82244e-14
3.47168e-15
3.23802e-15
3.21573e-15
3.20755e-15
6.65105e-15
2.37776e-14
4.47853e-20
3.41251e-18
1.25636e-16
2.43543e-15
2.96219e-14
3.04169e-14
3.8182e-14
4.61567e-14
4.3575e-13
5.45433e-15
3.47178e-15
3.69816e-15
3.94162e-15
6.78398e-15
1.56477e-14
2.74345e-12
1.26248e-16
2.71095e-15
4.54683e-14
3.94151e-13
8.27747e-13
3.42806e-13
3.45714e-13
1.07902e-12
1.84249e-14
4.98327e-15
4.06886e-15
4.62171e-15
6.72221e-15
6.97636e-15
5.14223e-12
2.95738e-15
6.86136e-14
4.10319e-13
5.82679e-11
6.40758e-12
3.02168e-12
2.72712e-12
6.54375e-12
9.20971e-13
7.29784e-15
5.27691e-15
6.05442e-15
6.9527e-15
6.99546e-15
5.13159e-12
7.46287e-12
7.31668e-11
2.77696e-12
1.86385e-10
2.4078e-11
2.23409e-11
6.48518e-11
1.03434e-10
1.28843e-11
9.47104e-15
7.12819e-15
6.92144e-15
7.02384e-15
7.12371e-15
5.13006e-12
1.0927e-10
4.16137e-10
1.64035e-09
5.49643e-10
1.38447e-09
3.53451e-09
2.59404e-09
2.84156e-10
3.57956e-12
4.88631e-13
9.47106e-15
7.49494e-15
5.14614e-12
5.3329e-12
3.73397e-11
1.9385e-09
2.41445e-09
1.13275e-08
5.05155e-09
4.75256e-09
1.32446e-08
2.05615e-09
3.57962e-12
6.69981e-13
9.48364e-15
5.3329e-12
8.98331e-12
1.64606e-09
1.58004e-08
1.81484e-07
4.01902e-08
6.32313e-09
5.22525e-09
1.51011e-07
2.56109e-08
1.90203e-11
6.15021e-12
7.04961e-13
8.98331e-12
1.55814e-07
1.12152e-06
1.43081e-07
1.34713e-06
4.39215e-08
1.36721e-08
9.60037e-09
6.0913e-07
2.88922e-08
9.15109e-11
1.47415e-10
7.503e-11
3.3907e-10
3.59404e-07
2.5117e-06
1.66052e-07
2.88429e-06
1.46885e-06
5.05271e-07
8.31145e-07
9.21137e-07
1.46031e-09
2.52672e-10
1.23062e-10
5.74189e-11
1.65238e-09
1.09948e-08
6.29892e-07
2.77749e-07
4.24966e-06
5.67771e-06
3.00039e-06
3.03103e-06
2.63995e-06
2.48123e-07
1.46032e-09
2.55418e-10
2.8077e-08
3.04699e-08
9.20613e-08
2.40638e-06
5.60384e-07
3.09212e-06
5.97904e-06
3.11795e-06
3.26458e-06
4.5681e-07
5.27183e-06
7.76916e-08
1.22859e-08
1.97065e-07
1.02172e-07
6.96084e-07
3.64987e-06
1.13361e-06
6.52409e-06
1.26933e-05
6.35281e-06
4.9354e-06
0.000167162
5.60793e-05
2.96209e-08
4.02012e-08
2.25136e-07
7.03185e-07
8.58111e-06
2.22572e-05
4.16543e-06
1.86878e-05
2.04154e-05
1.49578e-05
-1.89115e-22
0.00103472
2.80953e-07
8.49949e-08
7.37932e-08
4.77499e-07
0.123241
0.0797372
0.0913402
-0.000765296
0.000143135
9.21409e-05
0.000139609
3.63784e-05
3.53714e-05
1.30389e-06
9.13667e-05
7.38844e-06
1.69688e-08
0.635826
0.614294
0.555788
0.438644
0.293671
0.163631
0.171182
0.056158
0.00300151
0.0699275
0.00178816
3.29693e-07
4.78482e-07
0.744694
0.724137
0.66864
0.707834
0.694308
0.681373
0.674832
0.694793
0.684439
0.808776
0.909618
0.905639
0.88712
0.854059
0.831321
0.818154
0.82018
0.831757
0.87096
0.929202
0.971601
0.97288
0.96389
0.956112
0.94966
0.946074
0.946495
0.954642
0.970781
0.984984
0.995984
0.996933
0.994654
0.992207
0.990607
0.990453
0.99214
0.996094
1
1
1
1
1
1
1
1
1
1
1
1
1
1
1
1
1
1
1
1
1
1
1
1
1
1
1
1
1
1
1
1
1
1
1
1
1
1
1
1
1
1
1
1
1
1
1
1
1
1
1
1
1
1
1
1
1
1
1
1
1
1
1
1
1
1
1
1
1
1
1
1
1
1
1
1
1
1
1
1
1
1
1
1
1
1
1
1
1
1
1
1
1
1
1
1
1
1
1
1
1
1
1
1
1
1
1
1
1
1
1
1
1
1
1
1
1
1
1
1
1
1
1
1
1
1
1
1
1
1
1
1
1
1
1
1
1
1
1
1
1
1
1
1
1
1
1
1
1
1
1
1
1
1
1
1
1
1
1
1
1
1
1
1
1
1
1
1
1
1
1
1
1
1
1
1
1
1
1
1
1
1
1
1
1
1
1
1
1
1
1
1
1
1
1
1
1
1
1
1
1
1
1
1
1
1
1
1
1
1
1
1
1
1
1
1
1
1
1
1
1
1
1
1
1
1
1
1
1
1
1
1
1
1
1
1
1
1
1
1
1
1
1
1
1
1
1
1
1
1
1
1
1
1
1
1
1
1
1
1
1
1
1
1
1
1
1
1
1
1
1
1
1
1
1
1
1
1
1
1
1
1
1
1
1
1
1
1
1
1
1
1
1
1
1
1
1
1
1
1
1
1
1
1
1
1
1
1
1
1
1
1
1
1
1
1
1
1
1
1
1
1
1
1
1
1
1
1
1
1
1
1
1
1
1
1
1
1
1
1
1
1
1
1
1
1
1
1
1
1
1
1
1
1
1
1
1
1
1
1
1
1
1
1
1
1
1
1
1
1
1
1
1
1
1
1
1
1
1
1
1
1
1
1
1
1
1
1
1
1
1
1
1
1
1
1
1
1
1
1
1
1
1
1
1
1
1
1
1
1
1
1
1
1
1
1
1
1
1
1
1
1
1
1
1
1
1
1
1
1
1
1
1
1
1
1
1
1
1
1
1
1
1
1
1
1
1
1
1
1
1
1
1
1
1
1
1
1
1
1
1
1
1
1
1
1
1
1
1
1
1
1
1
1
1
1
1
1
1
1
1
1
1
1
1
1
1
1
1
1
1
1
1
1
1
1
1
1
1
1
1
1
1
1
1
1
1
1
1
1
1
1
1
1
1
1
1
1
1
1
1
1
1
1
1
1
1
1
1
1
1
1
1
1
1
1
1
1
1
1
1
1
1
1
1
1
1
1
1
1
1
1
1
1
1
1
1
1
1
1
1
1
1
1
1
1
1
1
1
1
1
1
1
1
1
1
1
1
1
1
1
1
1
1
1
1
1
1
1
1
1
1
1
1
1
1
1
1
1
1
1
1
1
1
1
1
1
1
1
1
1
1
1
1
1
1
1
1
1
1
1
1
1
1
1
1
1
1
1
1
1
1
1
1
1
1
1
1
1
1
1
1
1
1
1
1
1
1
1
1
1
1
1
1
1
1
1
1
1
1
1
1
1
1
1
1
1
1
1
1
1
1
1
1
1
1
1
1
1
1
1
1
1
1
1
1
1
1
1
1
1
1
1
1
1
1
1
1
1
1
1
1
1
1
1
1
1
1
1
1
1
1
1
1
1
1
1
1
1
1
1
1
1
1
1
1
1
1
1
1
1
1
1
1
1
1
1
1
1
1
1
1
1
1
1
1
1
1
1
1
1
1
1
1
1
1
1
1
1
1
1
1
1
1
1
1
1
1
1
1
1
1
1
1
1
1
1
1
1
1
1
1
1
1
1
1
1
1
1
1
1
1
1
1
1
1
1
1
1
1
1
1
1
1
1
1
1
1
1
1
1
1
1
1
1
1
1
1
1
1
1
1
1
1
1
1
1
1
1
1
1
1
1
1
1
1
1
1
1
1
1
1
1
1
1
1
1
1
1
1
1
1
1
1
1
1
1
1
1
1
1
1
1
1
1
1
1
1
1
1
1
1
1
1
1
1
1
1
1
1
1
1
1
1
1
1
1
1
1
1
1
1
1
1
1
1
1
1
1
1
1
1
1
1
1
1
1
1
1
1
1
1
1
1
1
1
1
1
1
1
1
1
1
1
1
1
1
1
1
1
1
1
1
1
1
1
1
1
1
1
1
1
1
1
1
1
1
1
1
1
1
1
1
1
1
1
1
1
1
1
1
1
1
1
1
1
1
1
1
1
1
1
1
1
1
1
1
1
1
1
1
1
1
1
1
1
1
1
1
1
1
1
1
1
1
1
1
1
1
1
1
1
1
1
1
1
1
1
1
1
1
1
1
1
1
1
1
1
1
1
1
1
1
1
1
1
1
1
1
1
1
1
1
1
1
1
1
1
1
1
1
1
1
1
1
1
1
1
1
1
1
1
1
1
1
1
1
1
1
1
1
1
1
1
1
1
1
1
1
1
1
1
1
1
1
1
1
1
1
1
1
1
1
1
1
1
1
1
1
1
1
1
1
1
1
1
1
1
1
1
1
1
)
;

boundaryField
{
    inlet
    {
        type            fixedValue;
        value           uniform 1;
    }
    outlet
    {
        type            inletOutlet;
        inletValue      nonuniform List<scalar> 0();
        value           nonuniform List<scalar> 0();
    }
    walls
    {
        type            zeroGradient;
    }
    side1
    {
        type            cyclic;
    }
    side2
    {
        type            cyclic;
    }
    procBoundary1to0
    {
        type            processor;
        value           nonuniform List<scalar> 
76
(
7.41105e-15
3.92786e-15
2.22554e-14
6.0898e-14
6.11434e-14
3.55027e-14
2.97192e-15
4.29803e-15
5.14111e-15
3.21885e-15
3.20357e-15
3.48151e-15
3.50917e-15
3.44598e-15
3.36709e-15
3.35928e-15
3.22865e-15
8.07254e-15
1.67155e-12
2.34165e-12
1.77237e-12
4.35955e-13
1.48283e-12
1.9676e-12
7.83152e-15
2.45908e-12
7.774e-15
7.83152e-15
7.94901e-15
8.27851e-15
3.04697e-13
2.56117e-12
1.49529e-11
1.44487e-10
3.10388e-07
8.74399e-07
1.55199e-08
1.44347e-08
5.45437e-15
5.42841e-15
3.51569e-14
3.93322e-14
6.65659e-15
2.9754e-15
6.00785e-15
3.1685e-14
3.06594e-14
3.3219e-15
3.20904e-15
3.20969e-15
3.21464e-15
3.20485e-15
1.22019e-12
2.55375e-12
2.55375e-12
8.24602e-13
6.49171e-14
3.16984e-14
3.07858e-14
1.10152e-14
6.99546e-15
5.09334e-13
7.16605e-15
3.24006e-11
7.45717e-15
7.16605e-15
3.2903e-10
1.43918e-09
6.68149e-10
6.41857e-11
7.61169e-11
1.4176e-10
1.9047e-07
7.23888e-07
1.74588e-07
1.44557e-08
)
;
    }
    procBoundary1to2
    {
        type            processor;
        value           nonuniform List<scalar> 
84
(
1
1
1
1
1
1
1
1
1
1
1
1
1
1
1
1
1
1
1
1
1
1
1
1
1
1
1
1
1
1
1
1
1
1
1
1
1
1
1
1
1
1
1
1
1
1
1
1
1
1
1
1
1
1
1
1
1
1
1
1
1
1
1
1
1
1
1
1
1
1
1
1
1
1
1
1
1
1
1
1
1
1
1
1
)
;
    }
    procBoundary1to4
    {
        type            processor;
        value           nonuniform List<scalar> 
32
(
-1.52254e-67
-3.6655e-50
-4.02736e-40
-5.72797e-35
-1.1127e-36
-1.01086e-33
-2.33412e-31
-1.94026e-27
7.62432e-19
7.62432e-19
2.96184e-20
3.41209e-17
6.99791e-15
9.65614e-15
9.65614e-15
9.65614e-15
-1.43313e-67
-1.10201e-49
-2.477e-40
-1.56968e-35
-5.0137e-36
-1.14396e-33
-2.20504e-31
-8.36812e-28
3.71336e-18
3.71336e-18
2.96184e-20
1.99838e-17
6.84848e-15
9.65614e-15
9.65614e-15
9.65614e-15
)
;
    }
}


// ************************************************************************* //
