/*--------------------------------*- C++ -*----------------------------------*\
| =========                 |                                                 |
| \\      /  F ield         | OpenFOAM: The Open Source CFD Toolbox           |
|  \\    /   O peration     | Version:  v2012                                 |
|   \\  /    A nd           | Website:  www.openfoam.com                      |
|    \\/     M anipulation  |                                                 |
\*---------------------------------------------------------------------------*/
FoamFile
{
    version     2.0;
    format      ascii;
    class       volVectorField;
    location    "0.8";
    object      U;
}
// * * * * * * * * * * * * * * * * * * * * * * * * * * * * * * * * * * * * * //

dimensions      [0 1 -1 0 0 0 0];


internalField   nonuniform List<vector> 
3338
(
(0.000765361 -0.0234361 -6.6814e-06)
(0.00076725 -0.0231984 -6.69801e-06)
(0.000764436 -0.0229041 -6.67354e-06)
(0.00075659 -0.0225501 -6.60515e-06)
(0.000743427 -0.0221332 -6.49034e-06)
(0.000724739 -0.0216499 -6.32731e-06)
(0.000700391 -0.0210963 -6.11486e-06)
(0.000670353 -0.0204684 -5.85274e-06)
(0.000634712 -0.0197619 -5.54171e-06)
(0.000593685 -0.018972 -5.18363e-06)
(0.000547624 -0.0180938 -4.7816e-06)
(0.000497022 -0.0171222 -4.33991e-06)
(0.000442507 -0.0160517 -3.86405e-06)
(0.000384822 -0.0148777 -3.3605e-06)
(0.000324787 -0.0135957 -2.8364e-06)
(0.000263328 -0.0122008 -2.29986e-06)
(0.000201661 -0.0106835 -1.76145e-06)
(0.000141646 -0.00901679 -1.23742e-06)
(8.62259e-05 -0.00713269 -7.53379e-07)
(3.98621e-05 -0.00489091 -3.48323e-07)
(6.83967e-06 -0.00205442 -6.14254e-08)
(0.000770507 -0.023448 -6.72607e-06)
(0.000772264 -0.0232052 -6.74151e-06)
(0.000769294 -0.0229058 -6.71566e-06)
(0.000761261 -0.0225466 -6.64562e-06)
(0.000747881 -0.0221245 -6.52891e-06)
(0.000728942 -0.0216361 -6.36367e-06)
(0.000704313 -0.0210776 -6.14877e-06)
(0.00067396 -0.020445 -5.88391e-06)
(0.000637979 -0.0197339 -5.56991e-06)
(0.000596584 -0.0189398 -5.20865e-06)
(0.000550139 -0.0180578 -4.80329e-06)
(0.000499137 -0.0170826 -4.35815e-06)
(0.000444218 -0.016009 -3.8788e-06)
(0.000386132 -0.0148323 -3.37179e-06)
(0.000325707 -0.013548 -2.84434e-06)
(0.000263867 -0.0121513 -2.30452e-06)
(0.000201826 -0.0106329 -1.76294e-06)
(0.000141434 -0.00896598 -1.23568e-06)
(8.56217e-05 -0.0070832 -7.48423e-07)
(3.88431e-05 -0.00484418 -3.39875e-07)
(5.59079e-06 -0.00201581 -5.38216e-08)
(0.00077918 -0.0234753 -6.80181e-06)
(0.000780853 -0.02323 -6.81652e-06)
(0.000777726 -0.0229279 -6.78928e-06)
(0.000769464 -0.022566 -6.71723e-06)
(0.000755777 -0.0221411 -6.59783e-06)
(0.000736456 -0.0216499 -6.42925e-06)
(0.000711367 -0.0210886 -6.21033e-06)
(0.000680482 -0.0204532 -5.94082e-06)
(0.000643899 -0.0197397 -5.62156e-06)
(0.000601844 -0.0189432 -5.25452e-06)
(0.000554683 -0.018059 -4.84291e-06)
(0.000502928 -0.017082 -4.39119e-06)
(0.000447229 -0.0160069 -3.90504e-06)
(0.00038836 -0.0148291 -3.3912e-06)
(0.000327171 -0.013544 -2.85709e-06)
(0.000264614 -0.0121469 -2.31102e-06)
(0.000201928 -0.0106286 -1.76379e-06)
(0.000140977 -0.00896252 -1.23168e-06)
(8.46989e-05 -0.00708159 -7.40278e-07)
(3.76474e-05 -0.00484552 -3.2967e-07)
(4.46482e-06 -0.00202041 -4.61875e-08)
(0.00079147 -0.0234953 -6.90911e-06)
(0.000793047 -0.023247 -6.92298e-06)
(0.000789723 -0.0229417 -6.89403e-06)
(0.000781154 -0.0225767 -6.81931e-06)
(0.00076705 -0.0221487 -6.69627e-06)
(0.000747196 -0.0216544 -6.52304e-06)
(0.000721464 -0.0210902 -6.2985e-06)
(0.000689824 -0.020452 -6.0224e-06)
(0.000652387 -0.0197358 -5.69569e-06)
(0.000609382 -0.018937 -5.32036e-06)
(0.000561194 -0.0180508 -4.89978e-06)
(0.000508347 -0.017072 -4.43853e-06)
(0.00045152 -0.0159957 -3.94253e-06)
(0.000391513 -0.0148169 -3.41875e-06)
(0.000329219 -0.0135313 -2.87499e-06)
(0.000265635 -0.0121341 -2.31994e-06)
(0.000202055 -0.0106163 -1.76492e-06)
(0.000140379 -0.00895145 -1.22644e-06)
(8.36007e-05 -0.00707288 -7.3071e-07)
(3.6272e-05 -0.00484045 -3.1761e-07)
(3.7805e-06 -0.00202095 -3.96896e-08)
(0.000807357 -0.0235156 -7.04779e-06)
(0.000808835 -0.023264 -7.0608e-06)
(0.000805274 -0.0229554 -7.02978e-06)
(0.000796329 -0.022587 -6.95178e-06)
(0.000781702 -0.0221556 -6.82418e-06)
(0.000761178 -0.0216579 -6.64511e-06)
(0.000734627 -0.0210904 -6.41343e-06)
(0.000702031 -0.0204491 -6.12898e-06)
(0.0006635 -0.0197299 -5.79273e-06)
(0.000619283 -0.0189283 -5.40682e-06)
(0.000569776 -0.0180396 -4.97473e-06)
(0.000515533 -0.0170587 -4.50129e-06)
(0.000457255 -0.0159805 -3.99262e-06)
(0.000395789 -0.0148003 -3.4561e-06)
(0.000332076 -0.0135137 -2.89995e-06)
(0.000267183 -0.0121159 -2.33348e-06)
(0.000202478 -0.010598 -1.76862e-06)
(0.000139918 -0.00893393 -1.22246e-06)
(8.25935e-05 -0.00705714 -7.21902e-07)
(3.50198e-05 -0.00482786 -3.0666e-07)
(3.3526e-06 -0.00201379 -3.53109e-08)
(0.000826748 -0.0235366 -7.21706e-06)
(0.000828113 -0.0232816 -7.22909e-06)
(0.000824276 -0.0229697 -7.19567e-06)
(0.000814881 -0.0225978 -7.11374e-06)
(0.000799627 -0.0221629 -6.98066e-06)
(0.000778294 -0.0216619 -6.79453e-06)
(0.000750758 -0.021091 -6.55426e-06)
(0.000717001 -0.0204465 -6.25968e-06)
(0.00067715 -0.0197243 -5.9119e-06)
(0.000631463 -0.01892 -5.51316e-06)
(0.000580363 -0.0180289 -5.06717e-06)
(0.000524425 -0.0170459 -4.57894e-06)
(0.000464395 -0.015966 -4.05498e-06)
(0.000401162 -0.0147845 -3.50304e-06)
(0.000335739 -0.013497 -2.93196e-06)
(0.000269268 -0.0120988 -2.35171e-06)
(0.000203217 -0.010581 -1.7751e-06)
(0.000139614 -0.0089179 -1.2198e-06)
(8.16748e-05 -0.00704317 -7.13916e-07)
(3.38932e-05 -0.00481741 -2.96803e-07)
(2.97247e-06 -0.00200893 -3.15016e-08)
(0.000849598 -0.023558 -7.41653e-06)
(0.000850837 -0.0232996 -7.42745e-06)
(0.000846677 -0.0229841 -7.39121e-06)
(0.000836759 -0.0226087 -7.30473e-06)
(0.000820771 -0.0221703 -7.16525e-06)
(0.000798495 -0.0216657 -6.97089e-06)
(0.000769806 -0.0210914 -6.72055e-06)
(0.000734695 -0.0204437 -6.41416e-06)
(0.000693299 -0.0197184 -6.0529e-06)
(0.000645898 -0.0189113 -5.6392e-06)
(0.000592936 -0.0180177 -5.17696e-06)
(0.000535027 -0.0170325 -4.67152e-06)
(0.000472953 -0.0159509 -4.12971e-06)
(0.000407666 -0.0147681 -3.55984e-06)
(0.000340253 -0.0134797 -2.97139e-06)
(0.000271952 -0.0120811 -2.37517e-06)
(0.000204342 -0.0105636 -1.78493e-06)
(0.000139543 -0.00890156 -1.21922e-06)
(8.08999e-05 -0.00702902 -7.07126e-07)
(3.29069e-05 -0.00480695 -2.88201e-07)
(2.64002e-06 -0.0020042 -2.84317e-08)
(0.000875887 -0.0235799 -7.64601e-06)
(0.000876977 -0.023318 -7.65565e-06)
(0.000872449 -0.0229989 -7.61619e-06)
(0.000861929 -0.0226198 -7.52446e-06)
(0.000845103 -0.0221777 -7.37767e-06)
(0.000821748 -0.0216694 -7.17389e-06)
(0.000791743 -0.0210916 -6.91207e-06)
(0.000755085 -0.0204405 -6.59218e-06)
(0.00071193 -0.0197121 -6.21556e-06)
(0.000662574 -0.0189021 -5.7848e-06)
(0.000607495 -0.0180059 -5.30408e-06)
(0.000547341 -0.0170186 -4.77905e-06)
(0.000482948 -0.0159352 -4.217e-06)
(0.00041533 -0.014751 -3.62678e-06)
(0.000345662 -0.0134618 -3.01865e-06)
(0.000275288 -0.0120629 -2.40432e-06)
(0.000205915 -0.0105458 -1.7987e-06)
(0.000139765 -0.00888491 -1.22115e-06)
(8.03174e-05 -0.00701471 -7.02076e-07)
(3.20698e-05 -0.00479651 -2.80845e-07)
(2.35835e-06 -0.00199962 -2.57376e-08)
(0.000905609 -0.0236025 -7.90547e-06)
(0.000906528 -0.0233369 -7.91362e-06)
(0.000901578 -0.023014 -7.87048e-06)
(0.00089038 -0.0226311 -7.77283e-06)
(0.000872607 -0.0221851 -7.61777e-06)
(0.000848038 -0.0216731 -7.4034e-06)
(0.000816552 -0.0210916 -7.12866e-06)
(0.000778161 -0.020437 -6.79364e-06)
(0.00073303 -0.0197053 -6.39979e-06)
(0.000681489 -0.0188923 -5.94995e-06)
(0.000624041 -0.0179935 -5.44856e-06)
(0.000561382 -0.0170039 -4.90166e-06)
(0.000494401 -0.0159187 -4.31702e-06)
(0.000424188 -0.0147333 -3.70414e-06)
(0.00035201 -0.0134432 -3.07409e-06)
(0.00027933 -0.0120442 -2.43964e-06)
(0.00020799 -0.0105275 -1.81683e-06)
(0.000140331 -0.00886791 -1.22613e-06)
(7.99652e-05 -0.00700023 -6.9898e-07)
(3.13935e-05 -0.00478609 -2.74972e-07)
(2.11909e-06 -0.00199516 -2.34173e-08)
(0.000938781 -0.0236258 -8.19503e-06)
(0.000939497 -0.0233563 -8.20142e-06)
(0.000934073 -0.0230295 -8.15415e-06)
(0.000922111 -0.0226425 -8.04983e-06)
(0.000903283 -0.0221926 -7.88557e-06)
(0.000877361 -0.0216767 -7.6594e-06)
(0.000844235 -0.0210914 -7.37034e-06)
(0.000803919 -0.0204331 -7.01852e-06)
(0.000756606 -0.019698 -6.60563e-06)
(0.000702647 -0.0188819 -6.13469e-06)
(0.000642588 -0.0179804 -5.6105e-06)
(0.000577166 -0.0169885 -5.03949e-06)
(0.000507339 -0.0159015 -4.43001e-06)
(0.000434272 -0.0147147 -3.79221e-06)
(0.000359338 -0.0134239 -3.1381e-06)
(0.000284121 -0.0120247 -2.48149e-06)
(0.000210614 -0.0105086 -1.83977e-06)
(0.000141282 -0.00885055 -1.23444e-06)
(7.98725e-05 -0.00698555 -6.98208e-07)
(3.08833e-05 -0.00477565 -2.70474e-07)
(1.92246e-06 -0.00199081 -2.15708e-08)
(0.000975428 -0.0236499 -8.51494e-06)
(0.000975911 -0.0233763 -8.51929e-06)
(0.000969949 -0.0230453 -8.46733e-06)
(0.00095714 -0.0226542 -8.35563e-06)
(0.000937142 -0.0222001 -8.18116e-06)
(0.000909732 -0.0216801 -7.942e-06)
(0.000874797 -0.0210908 -7.63716e-06)
(0.000832373 -0.0204288 -7.26694e-06)
(0.000782667 -0.0196902 -6.83315e-06)
(0.000726065 -0.0188709 -6.33915e-06)
(0.00066315 -0.0179665 -5.79004e-06)
(0.000594718 -0.0169723 -5.19275e-06)
(0.000521788 -0.0158834 -4.55618e-06)
(0.000445616 -0.0146953 -3.89129e-06)
(0.000367682 -0.0134038 -3.21099e-06)
(0.000289704 -0.0120046 -2.53028e-06)
(0.000213827 -0.0104892 -1.86785e-06)
(0.000142653 -0.00883277 -1.24644e-06)
(8.00587e-05 -0.00697065 -6.99821e-07)
(3.05418e-05 -0.00476517 -2.67521e-07)
(1.76523e-06 -0.00198653 -2.00407e-08)
(0.0010156 -0.0236748 -8.86558e-06)
(0.0010158 -0.023397 -8.86753e-06)
(0.00100924 -0.0230617 -8.81035e-06)
(0.000995494 -0.0226662 -8.69045e-06)
(0.000974214 -0.0222077 -8.50479e-06)
(0.00094517 -0.0216834 -8.25138e-06)
(0.000908265 -0.02109 -7.92934e-06)
(0.000863539 -0.020424 -7.53904e-06)
(0.000811234 -0.0196818 -7.08257e-06)
(0.000751761 -0.0188592 -6.5635e-06)
(0.000685753 -0.0179519 -5.98739e-06)
(0.000614059 -0.0169553 -5.36164e-06)
(0.000537778 -0.0158645 -4.69582e-06)
(0.000458252 -0.0146751 -4.00165e-06)
(0.000377081 -0.0133829 -3.29308e-06)
(0.000296116 -0.0119837 -2.58629e-06)
(0.000217666 -0.0104691 -1.9014e-06)
(0.00014447 -0.00881454 -1.26232e-06)
(8.05401e-05 -0.00695549 -7.0406e-07)
(3.03671e-05 -0.00475461 -2.65971e-07)
(1.64323e-06 -0.0019823 -1.89039e-08)
(0.00105934 -0.0237005 -9.24739e-06)
(0.00105923 -0.0234183 -9.2466e-06)
(0.001052 -0.0230785 -9.18357e-06)
(0.00103722 -0.0226784 -9.05467e-06)
(0.00101453 -0.0222154 -8.85675e-06)
(0.000983712 -0.0216866 -8.58785e-06)
(0.000944664 -0.0210889 -8.24711e-06)
(0.000897451 -0.0204188 -7.8351e-06)
(0.000842332 -0.0196727 -7.35408e-06)
(0.000779764 -0.0188467 -6.808e-06)
(0.000710422 -0.0179364 -6.20279e-06)
(0.000635223 -0.0169372 -5.54644e-06)
(0.000555338 -0.0158445 -4.84917e-06)
(0.000472215 -0.0146538 -4.12359e-06)
(0.000387566 -0.013361 -3.38466e-06)
(0.000303392 -0.0119619 -2.64985e-06)
(0.000222159 -0.0104483 -1.94066e-06)
(0.000146757 -0.00879581 -1.28233e-06)
(8.13258e-05 -0.00694003 -7.10917e-07)
(3.03569e-05 -0.00474394 -2.65907e-07)
(1.55166e-06 -0.0019781 -1.80317e-08)
(0.00110672 -0.0237273 -9.66098e-06)
(0.00110624 -0.0234404 -9.65698e-06)
(0.00109827 -0.0230958 -9.5875e-06)
(0.00108235 -0.0226909 -9.44871e-06)
(0.00105814 -0.0222231 -9.23746e-06)
(0.00102539 -0.0216897 -8.95174e-06)
(0.000984036 -0.0210874 -8.59084e-06)
(0.000934138 -0.020413 -8.1554e-06)
(0.000875997 -0.019663 -7.648e-06)
(0.000810103 -0.0188334 -7.0729e-06)
(0.00073719 -0.01792 -6.43652e-06)
(0.000658236 -0.0169182 -5.74739e-06)
(0.000574503 -0.0158235 -5.01652e-06)
(0.000487533 -0.0146315 -4.25736e-06)
(0.000399171 -0.0133382 -3.48603e-06)
(0.000311559 -0.0119393 -2.72119e-06)
(0.000227334 -0.0104269 -1.98589e-06)
(0.000149531 -0.00877653 -1.30657e-06)
(8.24247e-05 -0.00692423 -7.20547e-07)
(3.05066e-05 -0.00473313 -2.67205e-07)
(1.4867e-06 -0.00197389 -1.74453e-08)
(0.00115781 -0.0237551 -1.0107e-05)
(0.00115691 -0.0234633 -1.00993e-05)
(0.00114812 -0.0231136 -1.00227e-05)
(0.00113097 -0.0227037 -9.87311e-06)
(0.00110509 -0.0222309 -9.64737e-06)
(0.00107027 -0.0216925 -9.34353e-06)
(0.00102642 -0.0210856 -8.96088e-06)
(0.000973646 -0.0204067 -8.50033e-06)
(0.000912265 -0.0196526 -7.96465e-06)
(0.000842818 -0.0188192 -7.35853e-06)
(0.00076609 -0.0179026 -6.68885e-06)
(0.000683136 -0.0168982 -5.96481e-06)
(0.0005953 -0.0158015 -5.19813e-06)
(0.00050424 -0.0146082 -4.40327e-06)
(0.000411924 -0.0133143 -3.59741e-06)
(0.000320646 -0.0119158 -2.80058e-06)
(0.000233212 -0.0104046 -2.03723e-06)
(0.000152808 -0.00875666 -1.33522e-06)
(8.38407e-05 -0.00690805 -7.32915e-07)
(3.08131e-05 -0.00472214 -2.69907e-07)
(1.44462e-06 -0.00196967 -1.70726e-08)
(0.0012127 -0.023784 -1.05861e-05)
(0.00121132 -0.023487 -1.05743e-05)
(0.00120162 -0.023132 -1.04898e-05)
(0.00118313 -0.0227168 -1.03284e-05)
(0.00115546 -0.0222388 -1.0087e-05)
(0.0011184 -0.0216953 -9.76366e-06)
(0.00107188 -0.0210833 -9.35773e-06)
(0.00101602 -0.0203998 -8.87026e-06)
(0.000951182 -0.0196413 -8.30442e-06)
(0.000877944 -0.0188041 -7.66522e-06)
(0.00079716 -0.0178841 -6.96014e-06)
(0.000709953 -0.016877 -6.19897e-06)
(0.000617767 -0.0157783 -5.39432e-06)
(0.000522363 -0.0145837 -4.56154e-06)
(0.000425853 -0.0132893 -3.71907e-06)
(0.000330676 -0.0118912 -2.88818e-06)
(0.000239812 -0.0103815 -2.09491e-06)
(0.000156598 -0.00873615 -1.36833e-06)
(8.55783e-05 -0.00689144 -7.48123e-07)
(3.12716e-05 -0.00471093 -2.73912e-07)
(1.42304e-06 -0.00196539 -1.69184e-08)
(0.00127147 -0.023814 -1.10992e-05)
(0.00126956 -0.0235116 -1.10827e-05)
(0.00125886 -0.0231511 -1.09894e-05)
(0.0012389 -0.0227303 -1.08153e-05)
(0.0012093 -0.0222467 -1.05571e-05)
(0.00116984 -0.0216978 -1.02127e-05)
(0.00112046 -0.0210807 -9.78183e-06)
(0.00106131 -0.0203923 -9.26568e-06)
(0.000992789 -0.0196293 -8.66769e-06)
(0.000915528 -0.018788 -7.99336e-06)
(0.000830436 -0.0178646 -7.25068e-06)
(0.000738726 -0.0168547 -6.45021e-06)
(0.00064193 -0.0157538 -5.60532e-06)
(0.000541935 -0.0145579 -4.73246e-06)
(0.000440981 -0.0132632 -3.85119e-06)
(0.00034167 -0.0118656 -2.98422e-06)
(0.000247149 -0.0103575 -2.159e-06)
(0.000160911 -0.00871494 -1.40604e-06)
(8.76383e-05 -0.00687436 -7.66123e-07)
(3.18793e-05 -0.00469946 -2.79246e-07)
(1.41922e-06 -0.00196105 -1.69367e-08)
(0.00133424 -0.0238453 -1.16472e-05)
(0.00133171 -0.0235371 -1.16252e-05)
(0.00131992 -0.0231707 -1.15224e-05)
(0.00129837 -0.0227441 -1.13345e-05)
(0.00126669 -0.0222547 -1.10581e-05)
(0.00122465 -0.0217001 -1.06913e-05)
(0.00117222 -0.0210776 -1.02338e-05)
(0.00110957 -0.0203841 -9.68704e-06)
(0.00103714 -0.0196164 -9.05492e-06)
(0.00095561 -0.018771 -8.34332e-06)
(0.000865962 -0.0178439 -7.56087e-06)
(0.000769486 -0.0168311 -6.7188e-06)
(0.000667825 -0.0157281 -5.83144e-06)
(0.00056298 -0.0145309 -4.91624e-06)
(0.000457336 -0.0132358 -3.99403e-06)
(0.000353646 -0.0118389 -3.08883e-06)
(0.000255237 -0.0103326 -2.22967e-06)
(0.000165753 -0.00869298 -1.44834e-06)
(9.00231e-05 -0.00685674 -7.86983e-07)
(3.26317e-05 -0.00468769 -2.85827e-07)
(1.4317e-06 -0.00195662 -1.71306e-08)
(0.00140111 -0.0238778 -1.22308e-05)
(0.00139788 -0.0235636 -1.22029e-05)
(0.00138489 -0.0231911 -1.20896e-05)
(0.00136163 -0.0227583 -1.18868e-05)
(0.00132771 -0.0222628 -1.15908e-05)
(0.00128292 -0.0217023 -1.12e-05)
(0.00122724 -0.021074 -1.07141e-05)
(0.00116087 -0.0203752 -1.01349e-05)
(0.00108429 -0.0196026 -9.46654e-06)
(0.00099824 -0.0187528 -8.71552e-06)
(0.000903775 -0.017822 -7.89102e-06)
(0.000802274 -0.0168062 -7.0051e-06)
(0.000695481 -0.015701 -6.07294e-06)
(0.000585526 -0.0145025 -5.11314e-06)
(0.000474934 -0.0132071 -4.14773e-06)
(0.000366623 -0.011811 -3.20217e-06)
(0.000264086 -0.0103066 -2.30696e-06)
(0.000171131 -0.00867021 -1.49534e-06)
(9.27312e-05 -0.00683855 -8.1065e-07)
(3.35265e-05 -0.00467557 -2.93673e-07)
(1.45842e-06 -0.00195208 -1.74666e-08)
(0.00147219 -0.0239117 -1.28513e-05)
(0.00146818 -0.0235911 -1.28166e-05)
(0.00145389 -0.0232121 -1.26919e-05)
(0.00142877 -0.0227728 -1.24728e-05)
(0.00139245 -0.0222709 -1.21559e-05)
(0.00134471 -0.0217041 -1.17394e-05)
(0.00128557 -0.02107 -1.12234e-05)
(0.00121526 -0.0203655 -1.06097e-05)
(0.00113429 -0.0195878 -9.90306e-06)
(0.00104346 -0.0187335 -9.11035e-06)
(0.000943919 -0.0177989 -8.24153e-06)
(0.000837121 -0.0167799 -7.30937e-06)
(0.00072493 -0.0156725 -6.33009e-06)
(0.000609597 -0.0144728 -5.32334e-06)
(0.0004938 -0.0131771 -4.31249e-06)
(0.00038061 -0.0117819 -3.32435e-06)
(0.000273706 -0.0102796 -2.39101e-06)
(0.000177047 -0.00864657 -1.54703e-06)
(9.57639e-05 -0.00681973 -8.3717e-07)
(3.45597e-05 -0.00466308 -3.02715e-07)
(1.49856e-06 -0.00194741 -1.7949e-08)
(0.0015476 -0.0239471 -1.35096e-05)
(0.00154273 -0.0236196 -1.34673e-05)
(0.001527 -0.0232338 -1.33302e-05)
(0.00149988 -0.0227877 -1.30936e-05)
(0.00146099 -0.0222791 -1.27543e-05)
(0.00141012 -0.0217058 -1.23104e-05)
(0.0013473 -0.0210654 -1.17622e-05)
(0.0012728 -0.0203551 -1.11121e-05)
(0.00118719 -0.019572 -1.03649e-05)
(0.00109133 -0.018713 -9.52828e-06)
(0.000986433 -0.0177743 -8.61273e-06)
(0.000874068 -0.0167522 -7.63197e-06)
(0.000756198 -0.0156425 -6.60313e-06)
(0.000635219 -0.0144415 -5.54709e-06)
(0.000513947 -0.0131457 -4.48845e-06)
(0.000395626 -0.0117515 -3.4555e-06)
(0.000284102 -0.0102514 -2.48183e-06)
(0.000183504 -0.008622 -1.60346e-06)
(9.91183e-05 -0.00680022 -8.66488e-07)
(3.57298e-05 -0.00465016 -3.12968e-07)
(1.5505e-06 -0.00194259 -1.85525e-08)
(0.00162748 -0.0239838 -1.42069e-05)
(0.00162163 -0.0236493 -1.41561e-05)
(0.00160435 -0.0232563 -1.40054e-05)
(0.00157508 -0.022803 -1.375e-05)
(0.00153343 -0.0222873 -1.33866e-05)
(0.00147922 -0.0217071 -1.29136e-05)
(0.0014125 -0.0210602 -1.23314e-05)
(0.00133356 -0.0203438 -1.16426e-05)
(0.00124305 -0.0195552 -1.08527e-05)
(0.00114188 -0.0186912 -9.96968e-06)
(0.00103136 -0.0177484 -9.00502e-06)
(0.000913142 -0.016723 -7.97316e-06)
(0.000789319 -0.015611 -6.89235e-06)
(0.00066241 -0.0144087 -5.78454e-06)
(0.000535396 -0.0131128 -4.67577e-06)
(0.000411676 -0.0117196 -3.59569e-06)
(0.000295283 -0.010222 -2.57951e-06)
(0.000190503 -0.00859644 -1.66461e-06)
(0.000102795 -0.00677997 -8.98634e-07)
(3.70329e-05 -0.00463678 -3.24377e-07)
(1.61392e-06 -0.0019376 -1.92821e-08)
(0.00171197 -0.0240221 -1.49444e-05)
(0.00170504 -0.0236801 -1.48842e-05)
(0.00168605 -0.0232795 -1.47186e-05)
(0.00165446 -0.0228186 -1.4443e-05)
(0.00160986 -0.0222955 -1.40539e-05)
(0.0015521 -0.0217082 -1.35499e-05)
(0.00148123 -0.0210544 -1.29315e-05)
(0.00139762 -0.0203316 -1.22018e-05)
(0.00130194 -0.0195372 -1.13668e-05)
(0.00119518 -0.0186681 -1.0435e-05)
(0.00107874 -0.017721 -9.41872e-06)
(0.000954386 -0.0166922 -8.33328e-06)
(0.000824313 -0.0155778 -7.19792e-06)
(0.000691196 -0.0143743 -6.03592e-06)
(0.000558157 -0.0130783 -4.87455e-06)
(0.000428774 -0.0116864 -3.74503e-06)
(0.000307251 -0.0101914 -2.68405e-06)
(0.000198047 -0.00856983 -1.73053e-06)
(0.000106791 -0.00675893 -9.33557e-07)
(3.84683e-05 -0.00462289 -3.36951e-07)
(1.68747e-06 -0.00193242 -2.01185e-08)
(0.0018012 -0.024062 -1.57234e-05)
(0.00179306 -0.023712 -1.56526e-05)
(0.00177224 -0.0233035 -1.5471e-05)
(0.00173814 -0.0228347 -1.51735e-05)
(0.00169039 -0.0223038 -1.47569e-05)
(0.00162884 -0.0217089 -1.42199e-05)
(0.00155359 -0.021048 -1.35632e-05)
(0.00146503 -0.0203185 -1.27904e-05)
(0.0013639 -0.0195181 -1.19078e-05)
(0.00125127 -0.0186436 -1.09247e-05)
(0.00112862 -0.0176921 -9.85424e-06)
(0.000997824 -0.0166598 -8.71257e-06)
(0.000861214 -0.0155429 -7.52013e-06)
(0.00072159 -0.0143381 -6.30134e-06)
(0.000582249 -0.0130422 -5.08496e-06)
(0.000446923 -0.0116516 -3.90355e-06)
(0.000320011 -0.0101594 -2.79552e-06)
(0.000206132 -0.00854211 -1.80118e-06)
(0.000111105 -0.00673705 -9.71274e-07)
(4.00322e-05 -0.00460846 -3.50644e-07)
(1.77121e-06 -0.00192704 -2.10673e-08)
(0.00189533 -0.0241036 -1.6545e-05)
(0.00188586 -0.0237452 -1.64627e-05)
(0.00186303 -0.0233283 -1.62635e-05)
(0.00182624 -0.0228511 -1.59426e-05)
(0.00177512 -0.022312 -1.54966e-05)
(0.00170956 -0.0217093 -1.49245e-05)
(0.00162966 -0.0210408 -1.42273e-05)
(0.00153588 -0.0203044 -1.34089e-05)
(0.001429 -0.0194977 -1.24761e-05)
(0.0013102 -0.0186177 -1.14392e-05)
(0.00118104 -0.0176615 -1.03119e-05)
(0.0010435 -0.0166256 -9.11136e-06)
(0.000900038 -0.0155063 -7.85915e-06)
(0.000753618 -0.0143002 -6.58102e-06)
(0.000607679 -0.0130043 -5.30704e-06)
(0.000466136 -0.0116153 -4.07136e-06)
(0.000333563 -0.010126 -2.9139e-06)
(0.000214762 -0.00851321 -1.87658e-06)
(0.000115734 -0.00671425 -1.01174e-06)
(4.17243e-05 -0.00459343 -3.65465e-07)
(1.86394e-06 -0.00192144 -2.2113e-08)
(0.00199452 -0.0241468 -1.74109e-05)
(0.00198357 -0.0237797 -1.73157e-05)
(0.00195856 -0.0233539 -1.70975e-05)
(0.00191888 -0.0228679 -1.67514e-05)
(0.00186417 -0.0223203 -1.6274e-05)
(0.00179433 -0.0217092 -1.56646e-05)
(0.00170952 -0.021033 -1.49245e-05)
(0.00161022 -0.0202893 -1.40579e-05)
(0.00149731 -0.0194759 -1.30725e-05)
(0.00137202 -0.0185903 -1.1979e-05)
(0.00123603 -0.0176293 -1.0792e-05)
(0.00109143 -0.0165896 -9.52986e-06)
(0.000940815 -0.0154678 -8.21522e-06)
(0.000787287 -0.0142605 -6.87504e-06)
(0.000634461 -0.0129647 -5.54094e-06)
(0.000486412 -0.0115773 -4.24846e-06)
(0.000347913 -0.0100911 -3.03926e-06)
(0.000223932 -0.00848307 -1.9567e-06)
(0.000120678 -0.0066905 -1.05496e-06)
(4.35411e-05 -0.00457778 -3.81374e-07)
(1.96602e-06 -0.00191559 -2.32616e-08)
(0.00209893 -0.0241918 -1.83223e-05)
(0.00208636 -0.0238154 -1.82129e-05)
(0.00205897 -0.0233803 -1.79741e-05)
(0.00201619 -0.0228851 -1.76009e-05)
(0.00195764 -0.0223285 -1.709e-05)
(0.00188326 -0.0217088 -1.6441e-05)
(0.00179324 -0.0210243 -1.56554e-05)
(0.00168813 -0.020273 -1.47381e-05)
(0.00156887 -0.0194528 -1.36972e-05)
(0.00143678 -0.0185612 -1.25443e-05)
(0.00129363 -0.0175953 -1.12949e-05)
(0.00114165 -0.0165518 -9.96839e-06)
(0.000983561 -0.0154273 -8.58847e-06)
(0.000822621 -0.0142188 -7.1836e-06)
(0.000662599 -0.0129232 -5.78667e-06)
(0.000507761 -0.0115375 -4.43493e-06)
(0.000363056 -0.0100547 -3.17154e-06)
(0.000233643 -0.00845162 -2.04156e-06)
(0.000125933 -0.00666574 -1.10088e-06)
(4.54829e-05 -0.00456146 -3.9838e-07)
(2.07631e-06 -0.00190948 -2.45006e-08)
(0.00220874 -0.0242385 -1.92809e-05)
(0.00219437 -0.0238524 -1.91558e-05)
(0.00216442 -0.0234075 -1.88946e-05)
(0.00211829 -0.0229027 -1.84922e-05)
(0.00205566 -0.0223366 -1.79457e-05)
(0.00197645 -0.0217078 -1.72545e-05)
(0.00188093 -0.0210148 -1.64209e-05)
(0.00176969 -0.0202556 -1.54501e-05)
(0.00164375 -0.0194283 -1.4351e-05)
(0.00150451 -0.0185305 -1.31358e-05)
(0.00135388 -0.0175594 -1.1821e-05)
(0.00119419 -0.016512 -1.04271e-05)
(0.0010283 -0.0153849 -8.97915e-06)
(0.000859624 -0.0141751 -7.50673e-06)
(0.000692108 -0.0128798 -6.04438e-06)
(0.000530181 -0.011496 -4.63074e-06)
(0.000378998 -0.0100166 -3.31079e-06)
(0.000243891 -0.0084188 -2.1311e-06)
(0.000131498 -0.0066399 -1.14953e-06)
(4.75461e-05 -0.00454442 -4.16447e-07)
(2.19543e-06 -0.0019031 -2.58363e-08)
(0.00232412 -0.0242872 -2.02882e-05)
(0.00230777 -0.0238907 -2.01458e-05)
(0.00227503 -0.0234356 -1.98602e-05)
(0.00222533 -0.0229206 -1.94266e-05)
(0.00215832 -0.0223446 -1.88419e-05)
(0.00207401 -0.0217063 -1.81062e-05)
(0.00197266 -0.0210043 -1.72218e-05)
(0.00185496 -0.0202369 -1.61946e-05)
(0.001722 -0.0194022 -1.50342e-05)
(0.00157529 -0.018498 -1.37537e-05)
(0.00141682 -0.0175216 -1.23706e-05)
(0.00124907 -0.0164701 -1.09064e-05)
(0.00107505 -0.0153403 -9.38734e-06)
(0.000898316 -0.0141294 -7.84461e-06)
(0.000722986 -0.0128344 -6.31404e-06)
(0.000553679 -0.0114525 -4.83597e-06)
(0.000395732 -0.0099769 -3.45697e-06)
(0.000254677 -0.00838455 -2.22534e-06)
(0.000137368 -0.00661294 -1.20084e-06)
(4.97314e-05 -0.00452664 -4.35585e-07)
(2.32226e-06 -0.00189643 -2.72578e-08)
(0.00244528 -0.0243377 -2.13458e-05)
(0.00242674 -0.0239304 -2.11843e-05)
(0.00239099 -0.0234645 -2.08725e-05)
(0.00233743 -0.0229388 -2.04052e-05)
(0.00226577 -0.0223524 -1.978e-05)
(0.00217602 -0.0217042 -1.89968e-05)
(0.00206853 -0.0209929 -1.80587e-05)
(0.00194402 -0.0202169 -1.69721e-05)
(0.00180369 -0.0193745 -1.57474e-05)
(0.00164913 -0.0184636 -1.43984e-05)
(0.00148248 -0.0174818 -1.29439e-05)
(0.00130632 -0.0164261 -1.14063e-05)
(0.00112382 -0.0152936 -9.81325e-06)
(0.000938698 -0.0140814 -8.19724e-06)
(0.000755244 -0.0127869 -6.59575e-06)
(0.000578249 -0.0114071 -5.05057e-06)
(0.000413261 -0.00993541 -3.6101e-06)
(0.000265994 -0.00834879 -2.32422e-06)
(0.000143545 -0.0065848 -1.25483e-06)
(5.20352e-05 -0.00450807 -4.5576e-07)
(2.45762e-06 -0.00188944 -2.87724e-08)
(0.00257239 -0.0243901 -2.24554e-05)
(0.00255145 -0.0239715 -2.2273e-05)
(0.00251243 -0.0234942 -2.19326e-05)
(0.00245475 -0.0229573 -2.14294e-05)
(0.00237812 -0.0223601 -2.07607e-05)
(0.00228261 -0.0217015 -1.99273e-05)
(0.00216861 -0.0209805 -1.89325e-05)
(0.00203694 -0.0201955 -1.77834e-05)
(0.00188887 -0.0193451 -1.6491e-05)
(0.00172611 -0.0184273 -1.50705e-05)
(0.00155089 -0.0174398 -1.35412e-05)
(0.00136597 -0.0163799 -1.19271e-05)
(0.00117463 -0.0152446 -1.02569e-05)
(0.000980786 -0.0140312 -8.56477e-06)
(0.000788877 -0.0127371 -6.88948e-06)
(0.000603897 -0.0113597 -5.27458e-06)
(0.000431579 -0.00989209 -3.77011e-06)
(0.000277843 -0.00831146 -2.42775e-06)
(0.000150021 -0.00655542 -1.31144e-06)
(5.44586e-05 -0.00448866 -4.76982e-07)
(2.60036e-06 -0.00188213 -3.03698e-08)
(0.00270567 -0.0244446 -2.36188e-05)
(0.00268209 -0.0240139 -2.34134e-05)
(0.00263953 -0.0235247 -2.30422e-05)
(0.00257741 -0.0229761 -2.25002e-05)
(0.00249549 -0.0223675 -2.17854e-05)
(0.00239387 -0.0216981 -2.08986e-05)
(0.00227301 -0.0209669 -1.98439e-05)
(0.00213379 -0.0201726 -1.86289e-05)
(0.00197759 -0.019314 -1.72657e-05)
(0.00180623 -0.018389 -1.577e-05)
(0.00162209 -0.0173957 -1.41628e-05)
(0.00142802 -0.0163313 -1.24688e-05)
(0.0012275 -0.0151932 -1.07186e-05)
(0.00102458 -0.0139786 -8.94716e-06)
(0.000823895 -0.0126852 -7.19529e-06)
(0.000630614 -0.0113101 -5.50793e-06)
(0.000450686 -0.00984685 -3.93702e-06)
(0.000290216 -0.00827251 -2.53586e-06)
(0.000156799 -0.00652475 -1.37069e-06)
(5.69978e-05 -0.00446839 -4.99219e-07)
(2.75153e-06 -0.00187447 -3.20583e-08)
(0.0028453 -0.024501 -2.48378e-05)
(0.00281884 -0.0240578 -2.46072e-05)
(0.00277244 -0.023556 -2.42025e-05)
(0.00270558 -0.0229951 -2.36191e-05)
(0.00261801 -0.0223746 -2.2855e-05)
(0.00250991 -0.0216939 -2.19116e-05)
(0.00238179 -0.0209521 -2.07936e-05)
(0.00223464 -0.0201482 -1.95094e-05)
(0.00206991 -0.0192809 -1.80717e-05)
(0.00188956 -0.0183486 -1.64976e-05)
(0.00169608 -0.0173492 -1.48088e-05)
(0.0014925 -0.0162803 -1.30319e-05)
(0.00128242 -0.0151393 -1.11981e-05)
(0.00107008 -0.0139236 -9.34452e-06)
(0.000860287 -0.0126308 -7.51311e-06)
(0.000658405 -0.0112584 -5.75065e-06)
(0.000470572 -0.00979964 -4.11073e-06)
(0.000303115 -0.00823185 -2.64855e-06)
(0.000163871 -0.00649274 -1.4325e-06)
(5.96544e-05 -0.00444721 -5.22482e-07)
(2.90989e-06 -0.00186645 -3.38278e-08)
(0.00299153 -0.0245595 -2.61142e-05)
(0.00296189 -0.0241029 -2.58559e-05)
(0.00291136 -0.023588 -2.54151e-05)
(0.00283938 -0.0230143 -2.47872e-05)
(0.00274581 -0.0223813 -2.39706e-05)
(0.00263083 -0.0216888 -2.29673e-05)
(0.00249506 -0.020936 -2.17824e-05)
(0.00233955 -0.020122 -2.04252e-05)
(0.00216588 -0.0192458 -1.89096e-05)
(0.00197612 -0.0183059 -1.72533e-05)
(0.00177292 -0.0173003 -1.54797e-05)
(0.00155941 -0.0162268 -1.36161e-05)
(0.00133941 -0.0150829 -1.16957e-05)
(0.00111729 -0.013866 -9.75675e-06)
(0.000898059 -0.012574 -7.84297e-06)
(0.000687254 -0.0112043 -6.00262e-06)
(0.000491239 -0.00975037 -4.29125e-06)
(0.000316527 -0.00818943 -2.76574e-06)
(0.000171238 -0.00645932 -1.4969e-06)
(6.24241e-05 -0.00442508 -5.46737e-07)
(3.07668e-06 -0.00185806 -3.56877e-08)
(0.00314455 -0.02462 -2.745e-05)
(0.00311145 -0.0241495 -2.71615e-05)
(0.00305642 -0.0236208 -2.66815e-05)
(0.00297899 -0.0230336 -2.60059e-05)
(0.002879 -0.0223876 -2.51334e-05)
(0.00275674 -0.0216828 -2.40665e-05)
(0.00261288 -0.0209185 -2.2811e-05)
(0.00244859 -0.0200941 -2.13772e-05)
(0.00226554 -0.0192087 -1.97797e-05)
(0.00206595 -0.0182609 -1.80376e-05)
(0.00185259 -0.0172489 -1.61753e-05)
(0.00162878 -0.0161707 -1.42218e-05)
(0.00139846 -0.0150238 -1.22113e-05)
(0.00116621 -0.0138059 -1.01839e-05)
(0.000937194 -0.0125147 -8.18474e-06)
(0.000717164 -0.0111479 -6.26385e-06)
(0.000512671 -0.00969897 -4.47847e-06)
(0.000330454 -0.00814518 -2.88743e-06)
(0.000178893 -0.00642445 -1.56381e-06)
(6.53087e-05 -0.00440196 -5.71998e-07)
(3.25057e-06 -0.00184928 -3.76274e-08)
(0.00330461 -0.0246825 -2.88472e-05)
(0.00326769 -0.0241974 -2.85255e-05)
(0.00320784 -0.0236542 -2.80033e-05)
(0.00312454 -0.0230529 -2.72765e-05)
(0.00301772 -0.0223934 -2.63445e-05)
(0.00288773 -0.0216757 -2.52101e-05)
(0.00273534 -0.0208996 -2.38802e-05)
(0.00256181 -0.0200643 -2.23657e-05)
(0.00236894 -0.0191694 -2.06825e-05)
(0.00215907 -0.0182134 -1.88506e-05)
(0.00193514 -0.0171949 -1.68961e-05)
(0.0017006 -0.0161119 -1.48489e-05)
(0.00145958 -0.0149619 -1.27451e-05)
(0.00121682 -0.013743 -1.06259e-05)
(0.000977695 -0.0124528 -8.53844e-06)
(0.000748116 -0.0110891 -6.53418e-06)
(0.000534868 -0.00964537 -4.67237e-06)
(0.000344884 -0.00809903 -3.0135e-06)
(0.000186837 -0.00638808 -1.63324e-06)
(6.83037e-05 -0.00437782 -5.98225e-07)
(3.43299e-06 -0.00184009 -3.96578e-08)
(0.00347191 -0.0247471 -3.03077e-05)
(0.00343086 -0.0242467 -2.99499e-05)
(0.00336576 -0.0236883 -2.93819e-05)
(0.00327619 -0.0230722 -2.86004e-05)
(0.00316209 -0.0223986 -2.76048e-05)
(0.00302392 -0.0216675 -2.6399e-05)
(0.00286252 -0.020879 -2.49905e-05)
(0.00267928 -0.0200326 -2.33913e-05)
(0.00247611 -0.0191277 -2.16181e-05)
(0.00225551 -0.0181634 -1.96927e-05)
(0.00202055 -0.0171382 -1.76418e-05)
(0.00177488 -0.0160502 -1.54974e-05)
(0.00152275 -0.0148972 -1.32967e-05)
(0.00126913 -0.0136772 -1.10827e-05)
(0.00101954 -0.0123882 -8.90386e-06)
(0.000780108 -0.0110277 -6.8136e-06)
(0.000557812 -0.00958949 -4.87279e-06)
(0.000359815 -0.00805093 -3.14396e-06)
(0.000195059 -0.00635014 -1.70511e-06)
(7.14109e-05 -0.00435262 -6.25435e-07)
(3.62245e-06 -0.00183047 -4.17671e-08)