/*--------------------------------*- C++ -*----------------------------------*\
| =========                 |                                                 |
| \\      /  F ield         | OpenFOAM: The Open Source CFD Toolbox           |
|  \\    /   O peration     | Version:  v2012                                 |
|   \\  /    A nd           | Website:  www.openfoam.com                      |
|    \\/     M anipulation  |                                                 |
\*---------------------------------------------------------------------------*/
FoamFile
{
    version     2.0;
    format      ascii;
    class       volScalarField;
    location    "0.55";
    object      alpha.water;
}
// * * * * * * * * * * * * * * * * * * * * * * * * * * * * * * * * * * * * * //

dimensions      [0 0 0 0 0 0 0];


internalField   nonuniform List<scalar> 
2664
(
2.81915e-17
2.31928e-17
1.88463e-17
1.51581e-17
1.20847e-17
9.52145e-18
7.52327e-18
6.26979e-18
5.32021e-18
3.84074e-18
1.58584e-18
2.02185e-19
4.51823e-21
1.86624e-23
3.52633e-26
5.07051e-29
5.87157e-32
5.55378e-35
4.21641e-38
2.60391e-41
1.29075e-44
5.1274e-48
1.65997e-51
4.24007e-55
8.6308e-59
1.33334e-62
1.60087e-66
1.42285e-70
-9.46254e-72
-2.90506e-73
-3.69319e-75
-2.62875e-77
-1.22627e-79
-4.1706e-82
-8.42808e-85
-7.44483e-88
-1.22984e-91
3.31487e-17
2.70363e-17
2.1754e-17
1.72971e-17
1.36296e-17
1.06277e-17
8.22514e-18
6.63625e-18
5.63697e-18
4.40166e-18
2.29373e-18
4.54181e-19
1.84161e-20
1.22883e-22
2.76677e-25
4.33749e-28
5.41893e-31
5.5017e-34
4.46065e-37
2.92633e-40
1.53341e-43
6.40246e-47
2.16895e-50
5.77703e-54
1.22266e-57
2.00487e-61
2.53382e-65
2.44781e-69
1.72677e-73
8.80577e-78
-7.05251e-81
-4.06289e-82
-3.40538e-84
-2.17302e-86
-8.94679e-89
-1.64616e-91
-4.28326e-95
3.89689e-17
3.14841e-17
2.50869e-17
1.97231e-17
1.53472e-17
1.18343e-17
9.02138e-18
7.05393e-18
5.90906e-18
4.81945e-18
2.9513e-18
8.22265e-19
5.54887e-20
6.10792e-22
1.72283e-24
2.95028e-27
3.95546e-30
4.28791e-33
3.69451e-36
2.56266e-39
1.41309e-42
6.17926e-46
2.18062e-49
6.02918e-53
1.31988e-56
2.233e-60
2.90274e-64
2.87642e-68
2.10175e-72
1.1143e-76
4.14233e-81
1.02583e-85
2.67664e-91
-1.01653e-90
-9.60027e-93
-3.69622e-95
-1.40281e-98
4.58348e-17
3.66275e-17
2.88831e-17
2.24559e-17
1.72509e-17
1.31383e-17
9.89049e-18
7.52956e-18
6.16546e-18
5.13494e-18
3.50948e-18
1.26961e-18
1.30857e-19
2.32478e-21
8.60212e-24
1.61806e-26
2.31381e-29
2.66112e-32
2.42215e-35
1.7665e-38
1.01956e-41
4.64606e-45
1.69981e-48
4.85555e-52
1.09431e-55
1.90105e-59
2.52986e-63
2.5585e-67
1.90207e-71
1.02287e-75
3.87099e-80
9.79622e-85
1.55848e-89
1.18072e-94
-1.00031e-96
-9.05094e-99
-4.6354e-102
5.39744e-17
4.25903e-17
3.31911e-17
2.55097e-17
1.93467e-17
1.45385e-17
1.08133e-17
8.05579e-18
6.42253e-18
5.38229e-18
3.95897e-18
1.74503e-18
2.54267e-19
6.9636e-21
3.48209e-23
7.26427e-26
1.10157e-28
1.33525e-31
1.27596e-34
9.7275e-38
5.84395e-41
2.7604e-44
1.04178e-47
3.05945e-51
7.06456e-55
1.25408e-58
1.70025e-62
1.74644e-66
1.31465e-70
7.13548e-75
2.71547e-79
6.88438e-84
1.09444e-88
9.82269e-94
3.88092e-99
-1.39211e-102
-1.55502e-105
6.36416e-17
4.95228e-17
3.80742e-17
2.88967e-17
2.16325e-17
1.60301e-17
1.17737e-17
8.61675e-18
6.68692e-18
5.58491e-18
4.31155e-18
2.20383e-18
4.24761e-19
1.69657e-20
1.15571e-22
2.70494e-25
4.32736e-28
5.4909e-31
5.47337e-34
4.33533e-37
2.69526e-40
1.31228e-43
5.08184e-47
1.52641e-50
3.59299e-54
6.48471e-58
8.91218e-62
9.25128e-66
7.0158e-70
3.82343e-74
1.4553e-78
3.67459e-83
5.78653e-88
5.11028e-93
2.03494e-98
1.40125e-104
-2.31161e-107
7.50735e-17
5.75815e-17
4.36055e-17
3.26302e-17
2.40977e-17
1.76017e-17
1.27558e-17
9.19229e-18
6.95671e-18
5.75651e-18
4.58553e-18
2.61756e-18
6.31165e-19
3.47552e-20
3.18891e-22
8.45648e-25
1.42075e-27
1.87427e-30
1.93587e-33
1.583e-36
1.01221e-39
5.04993e-43
1.99543e-46
6.0965e-50
1.45502e-53
2.65568e-57
3.68011e-61
3.84005e-65
2.91796e-69
1.58779e-73
6.00942e-78
1.50148e-82
2.32505e-87
2.00221e-92
7.6514e-98
5.02412e-104
-3.03129e-107
8.84374e-17
6.68927e-17
4.9852e-17
3.67203e-17
2.6724e-17
1.92329e-17
1.37409e-17
9.75996e-18
7.22218e-18
5.90292e-18
4.79782e-18
2.97365e-18
8.56852e-19
6.17119e-20
7.43982e-22
2.24656e-24
3.94685e-27
5.37627e-30
5.71477e-33
4.79262e-36
3.13178e-39
1.59108e-42
6.37711e-46
1.97026e-49
4.74034e-53
8.69945e-57
1.20858e-60
1.26037e-64
9.53997e-69
5.15146e-73
1.92605e-77
4.72744e-82
7.13811e-87
5.93027e-92
2.13967e-97
1.10803e-103
-4.04894e-107
1.03825e-16
7.75141e-17
5.68497e-17
4.11653e-17
2.94827e-17
2.08929e-17
1.47049e-17
1.02955e-17
7.46702e-18
6.02349e-18
4.96092e-18
3.27055e-18
1.08513e-18
9.75083e-20
1.49547e-21
5.13416e-24
9.3902e-27
1.31186e-29
1.4253e-32
1.2177e-35
8.07857e-39
4.15257e-42
1.67792e-45
5.21001e-49
1.25594e-52
2.30342e-56
3.18847e-60
3.30241e-64
2.47386e-68
1.31667e-72
4.82728e-77
1.15429e-81
1.68284e-86
1.33166e-91
4.43104e-97
1.46007e-103
-6.21604e-107
1.21311e-16
8.94237e-17
6.45771e-17
4.59369e-17
3.23313e-17
2.25396e-17
1.56166e-17
1.07731e-17
7.67147e-18
6.11318e-18
5.08306e-18
3.51286e-18
1.30279e-18
1.40154e-19
2.63962e-21
1.02194e-23
1.93607e-26
2.75576e-29
3.03976e-32
2.62809e-35
1.75849e-38
9.0859e-42
3.67793e-45
1.14052e-48
2.73734e-52
4.98508e-56
6.83087e-60
6.97969e-64
5.13833e-68
2.67533e-72
9.53879e-77
2.201e-81
3.06275e-86
2.27118e-91
6.76071e-97
5.20057e-104
-1.17111e-106
1.41006e-16
1.02546e-16
7.2942e-17
5.09648e-17
3.52064e-17
2.41178e-17
1.64373e-17
1.11666e-17
7.8188e-18
6.16671e-18
5.17012e-18
3.70776e-18
1.50128e-18
1.86619e-19
4.16629e-21
1.79429e-23
3.50021e-26
5.0431e-29
5.61032e-32
4.87616e-35
3.26907e-38
1.68677e-41
6.79656e-45
2.0915e-48
4.96567e-52
8.92073e-56
1.20186e-59
1.20296e-63
8.63796e-68
4.36368e-72
1.4992e-76
3.30205e-81
4.32676e-86
2.94836e-91
7.51943e-97
2.57834e-104
-2.26613e-106
1.63018e-16
1.16769e-16
8.17856e-17
5.61251e-17
3.80175e-17
2.55595e-17
1.71232e-17
1.14535e-17
7.903e-18
6.18591e-18
5.22801e-18
3.86245e-18
1.67623e-18
2.33692e-19
5.98354e-21
2.81802e-23
5.62095e-26
8.14422e-29
9.07662e-32
7.8774e-35
5.25606e-38
2.69028e-41
1.072e-44
3.25247e-48
7.58844e-52
1.3357e-55
1.75695e-59
1.70998e-63
1.18799e-67
5.77011e-72
1.89027e-76
3.92534e-81
4.76666e-86
2.91241e-91
5.9469e-97
1.43021e-104
-3.94146e-106
1.87358e-16
1.31917e-16
9.08835e-17
6.12361e-17
4.06421e-17
2.67867e-17
1.76329e-17
1.16232e-17
7.93345e-18
6.18639e-18
5.26213e-18
3.98074e-18
1.82458e-18
2.78373e-19
7.94045e-21
4.01702e-23
8.1331e-26
1.17766e-28
1.30629e-31
1.12443e-34
7.41576e-38
3.73932e-41
1.46364e-44
4.34832e-48
9.89988e-52
1.69469e-55
2.1593e-59
2.02625e-63
1.35023e-67
6.24713e-72
1.93079e-76
3.72975e-81
4.11545e-86
2.18039e-91
3.15758e-97
4.4873e-105
-5.92636e-106
2.13826e-16
1.47683e-16
9.99274e-17
6.60564e-17
4.29288e-17
2.7722e-17
1.7943e-17
1.16893e-17
7.93505e-18
6.1711e-18
5.27371e-18
4.05975e-18
1.93751e-18
3.16061e-19
9.76766e-21
5.21189e-23
1.06466e-25
1.53418e-28
1.68566e-31
1.43131e-34
9.27457e-38
4.57749e-41
1.74829e-44
5.04964e-48
1.1139e-51
1.84217e-55
2.25865e-59
2.02937e-63
1.28591e-67
5.60746e-72
1.61395e-76
2.85128e-81
2.79072e-86
1.21588e-91
9.22306e-98
5.77911e-106
-7.59961e-106
2.4192e-16
1.63565e-16
1.08498e-16
7.02912e-17
4.47178e-17
2.83157e-17
1.8072e-17
1.16964e-17
7.87789e-18
6.12842e-18
5.26784e-18
4.09435e-18
1.9968e-18
3.37634e-19
1.08869e-20
5.97015e-23
1.22241e-25
1.74986e-28
1.90212e-31
1.59162e-34
1.01236e-37
4.88572e-41
1.81858e-44
5.0988e-48
1.08678e-51
1.72818e-55
2.02614e-59
1.7295e-63
1.03293e-67
4.20108e-72
1.11132e-76
1.76181e-81
1.48212e-86
4.92648e-92
8.5095e-100
2.35881e-108
-8.5645e-106
2.70703e-16
1.7882e-16
1.16061e-16
7.36252e-17
4.58908e-17
2.85864e-17
1.80924e-17
1.15702e-17
7.74595e-18
6.05754e-18
5.24187e-18
4.09566e-18
2.00536e-18
3.40436e-19
1.09992e-20
6.01609e-23
1.22423e-25
1.73594e-28
1.86172e-31
1.53045e-34
9.52422e-38
4.47921e-41
1.61926e-44
4.39117e-48
9.01365e-52
1.37416e-55
1.53555e-59
1.23997e-63
6.93796e-68
2.6095e-72
6.25882e-77
8.71362e-82
6.05658e-87
1.33571e-92
5.72059e-101
-5.24596e-102
-8.35233e-106
2.98696e-16
1.9246e-16
1.22037e-16
7.58199e-17
4.64528e-17
2.86453e-17
1.78698e-17
1.12702e-17
7.52856e-18
5.95922e-18
5.19642e-18
4.06387e-18
1.97016e-18
3.26013e-19
1.01162e-20
5.32377e-23
1.06055e-25
1.47601e-28
1.54857e-31
1.24101e-34
7.505e-38
3.41989e-41
1.19519e-44
3.12297e-48
6.15267e-52
8.96317e-56
9.51239e-60
7.23628e-64
3.77254e-68
1.30086e-72
2.79101e-77
3.32727e-82
1.7987e-87
1.80701e-93
5.42625e-103
-6.87902e-102
-6.78327e-106
3.23852e-16
2.03351e-16
1.25988e-16
7.68758e-17
4.65897e-17
2.82752e-17
1.73349e-17
1.07819e-17
7.23778e-18
5.84194e-18
5.13356e-18
3.98651e-18
1.87178e-18
2.90361e-19
8.22999e-21
4.01533e-23
7.73568e-26
1.04989e-28
1.07076e-31
8.31103e-35
4.85238e-38
2.12869e-41
7.14787e-45
1.78884e-48
3.36257e-52
4.65245e-56
4.65901e-60
3.31447e-64
1.595e-68
4.9784e-73
9.35759e-78
9.22343e-83
3.5111e-88
3.67332e-97
1.45129e-125
-5.68683e-102
-4.6799e-106
3.43833e-16
2.1057e-16
1.27906e-16
7.7139e-17
4.59732e-17
2.73445e-17
1.64526e-17
1.01211e-17
6.90116e-18
5.71575e-18
5.05238e-18
3.8548e-18
1.70612e-18
2.36916e-19
5.79839e-21
2.52849e-23
4.65832e-26
6.12089e-29
6.02406e-32
4.49565e-35
2.51587e-38
1.05508e-41
3.38066e-45
8.04613e-49
1.4323e-52
1.86669e-56
1.74754e-60
1.14971e-64
5.03455e-69
1.39372e-73
2.22739e-78
1.71557e-83
3.8685e-89
1.37901e-102
-7.35036e-108
-3.62727e-102
-2.5642e-106
3.56803e-16
2.14011e-16
1.28392e-16
7.60966e-17
4.43355e-17
2.57851e-17
1.52377e-17
9.33083e-18
6.55141e-18
5.58758e-18
4.94852e-18
3.65589e-18
1.47434e-18
1.73454e-19
3.44371e-21
1.29798e-23
2.26329e-26
2.85433e-29
2.68704e-32
1.91123e-35
1.01644e-38
4.04144e-42
1.2256e-45
2.75031e-49
4.59271e-53
5.57946e-57
4.82353e-61
2.89077e-65
1.12905e-69
2.69718e-74
3.52504e-79
1.94411e-84
1.77469e-90
-1.40049e-104
-3.79575e-99
-1.67834e-102
-1.04475e-106
3.62687e-16
2.14827e-16
1.26566e-16
7.3166e-17
4.15182e-17
2.36154e-17
1.37527e-17
8.47671e-18
6.22143e-18
5.46054e-18
4.81253e-18
3.37287e-18
1.18704e-18
1.10925e-19
1.67453e-21
5.32481e-24
8.7107e-27
1.04389e-29
9.30484e-33
6.24599e-36
3.12695e-39
1.16879e-42
3.32359e-46
6.96368e-50
1.07956e-53
1.20796e-57
9.50671e-62
5.09539e-66
1.73283e-70
3.45948e-75
3.49342e-80
1.26999e-85
1.65434e-96
-6.71532e-105
-1.51058e-99
-4.86694e-103
-2.86098e-107
3.63895e-16
2.11419e-16
1.21236e-16
6.80217e-17
3.75616e-17
2.09555e-17
1.21024e-17
7.63688e-18
5.93491e-18
5.33231e-18
4.62638e-18
2.98637e-18
8.67421e-19
5.96835e-20
6.43652e-22
1.70821e-24
2.60066e-27
2.9277e-30
2.44251e-33
1.53018e-36
7.1342e-40
2.48197e-43
6.54577e-47
1.26622e-50
1.79932e-54
1.82768e-58
1.28606e-62
6.02982e-67
1.73536e-71
2.77542e-76
2.04518e-81
4.24642e-87
4.9808e-100
-1.37487e-105
-2.68793e-100
-7.8226e-104
-4.50239e-108
3.56972e-16
2.01353e-16
1.11783e-16
6.07661e-17
3.2722e-17
1.79993e-17
1.04162e-17
6.88813e-18
5.70071e-18
5.19421e-18
4.36021e-18
2.48381e-18
5.5395e-19
2.57188e-20
1.88331e-22
4.18792e-25
5.88306e-28
6.14073e-31
4.73366e-34
2.73385e-37
1.173e-40
3.75424e-44
9.07279e-48
1.5985e-51
2.05123e-55
1.85767e-59
1.14435e-63
4.57222e-68
1.07569e-72
1.31743e-77
6.82091e-83
6.72629e-89
2.38476e-96
-7.97832e-107
-1.39937e-101
-4.10219e-105
-2.33928e-109
3.36724e-16
1.83491e-16
9.84925e-17
5.19303e-17
2.73922e-17
1.49661e-17
8.83284e-18
6.2886e-18
5.5114e-18
5.02775e-18
3.96999e-18
1.87655e-18
2.9293e-19
8.3343e-21
4.04003e-23
7.63354e-26
9.78656e-29
9.33183e-32
6.55283e-35
3.44206e-38
1.34194e-41
3.90002e-45
8.51344e-49
1.34511e-52
1.53051e-56
1.21094e-60
6.3745e-65
2.10486e-69
3.88135e-74
3.54582e-79
1.20918e-84
1.54132e-90
1.87267e-96
-1.26023e-108
-2.03492e-103
-6.31819e-107
-3.15787e-111
3.0157e-16
1.58856e-16
8.25174e-17
4.2302e-17
2.19965e-17
1.20748e-17
7.48846e-18
5.85964e-18
5.34697e-18
4.79614e-18
3.40335e-18
1.22357e-18
1.19057e-19
1.88742e-21
6.14841e-24
1.00104e-26
1.15391e-29
9.88147e-33
6.2208e-36
2.92756e-39
1.023e-42
2.65633e-46
5.14765e-50
7.15486e-54
7.07268e-58
4.777e-62
2.0898e-66
5.49631e-71
7.79919e-76
5.08164e-81
1.41217e-86
3.16662e-92
3.83581e-98
-1.02989e-110
-1.5676e-105
-5.179e-109
-2.21055e-113
2.54879e-16
1.29955e-16
6.53448e-17
3.27e-17
1.69271e-17
9.54415e-18
6.48964e-18
5.57605e-18
5.17775e-18
4.43121e-18
2.62756e-18
6.3752e-19
3.36593e-20
2.77771e-22
6.44151e-25
9.07855e-28
9.23554e-31
6.97071e-34
3.86507e-37
1.60123e-40
4.93135e-44
1.12255e-47
1.89358e-51
2.26877e-55
1.90496e-59
1.0709e-63
3.7637e-68
7.73349e-73
8.25305e-78
4.03898e-83
1.3236e-88
3.0639e-94
4.78511e-100
2.83886e-106
-7.55636e-108
-2.70179e-111
-9.76305e-116
2.01985e-16
9.96038e-17
4.84986e-17
2.38873e-17
1.25374e-17
7.58097e-18
5.86259e-18
5.37785e-18
4.95145e-18
3.82782e-18
1.69462e-18
2.36586e-19
5.82509e-21
2.51186e-23
4.46281e-26
5.40101e-29
4.74616e-32
3.09285e-35
1.48171e-38
5.31062e-42
1.41225e-45
2.76189e-49
3.97149e-53
4.01086e-57
2.79252e-61
1.26546e-65
3.50056e-70
5.5657e-75
4.40151e-80
2.09585e-85
7.52299e-91
1.78875e-96
2.71801e-102
4.78539e-108
-2.40696e-110
-9.67068e-114
-2.95844e-118
1.48269e-16
7.05884e-17
3.34322e-17
1.65001e-17
9.1304e-18
6.30918e-18
5.52189e-18
5.19492e-18
4.5562e-18
2.88467e-18
8.05801e-19
5.27092e-20
5.33894e-22
1.33987e-24
1.91318e-27
1.94977e-30
1.44578e-33
7.96248e-37
3.22719e-40
9.82175e-44
2.2121e-47
3.64468e-51
4.37879e-55
3.64838e-59
2.05083e-63
7.33752e-68
1.58792e-72
1.89852e-77
1.3111e-82
6.6855e-88
2.42802e-93
5.4816e-99
1.04486e-104
2.13709e-110
-5.17648e-113
-2.45257e-116
-6.37685e-121
9.93584e-17
4.55623e-17
2.13103e-17
1.09707e-17
6.90343e-18
5.66225e-18
5.31652e-18
4.92691e-18
3.79364e-18
1.66334e-18
2.29745e-19
5.52329e-21
2.29449e-23
3.91897e-26
4.52116e-29
3.77666e-32
2.30254e-35
1.04716e-38
3.52813e-42
8.93573e-46
1.66967e-49
2.27081e-53
2.23006e-57
1.49746e-61
6.6562e-66
1.87583e-70
3.13734e-75
3.12966e-80
2.20603e-85
1.11162e-90
3.8274e-96
9.41629e-102
2.04637e-107
5.01138e-113
-7.94668e-116
-4.4483e-119
-9.87608e-124
5.90726e-17
2.63685e-17
1.27576e-17
7.49018e-18
5.79783e-18
5.37826e-18
5.1004e-18
4.34171e-18
2.49281e-18
5.75415e-19
2.79774e-20
2.05121e-22
4.30053e-25
5.47474e-28
4.97869e-31
3.30841e-34
1.61851e-37
5.95592e-41
1.63412e-44
3.37133e-48
5.1208e-52
5.63074e-56
4.42113e-60
2.34307e-64
8.28222e-69
1.84124e-73
2.54451e-78
2.49323e-83
1.75487e-88
8.79674e-94
3.27762e-99
1.00485e-104
3.21388e-110
9.39187e-116
-8.61364e-119
-5.68348e-122
-1.08221e-126
3.03769e-17
1.39252e-17
7.81808e-18
5.86769e-18
5.39639e-18
5.17124e-18
4.61675e-18
3.06185e-18
9.63409e-19
7.51368e-20
8.7383e-22
2.21844e-24
3.00694e-27
2.85886e-30
1.98035e-33
1.01446e-36
3.874e-40
1.1289e-43
2.46554e-47
4.05638e-51
4.9133e-55
4.28022e-59
2.6561e-63
1.12543e-67
3.18573e-72
5.96176e-77
7.91444e-82
8.1609e-87
6.60562e-92
4.67611e-97
3.47641e-102
2.68422e-107
1.6853e-112
5.717e-118
-2.5452e-122
-4.87073e-125
-8.06324e-130
1.36677e-17
7.61297e-18
5.79477e-18
5.36945e-18
5.17884e-18
4.70017e-18
3.28995e-18
1.17967e-18
1.12384e-19
1.58352e-21
4.29999e-24
5.79717e-27
5.43176e-30
3.70275e-33
1.87977e-36
7.20916e-40
2.10407e-43
4.72816e-47
8.01319e-51
1.02532e-54
9.64365e-59
6.59307e-63
3.27549e-67
1.12303e-71
2.79124e-76
5.32484e-81
8.81401e-86
1.42563e-90
2.36258e-95
3.8757e-100
5.63934e-105
6.1934e-110
4.40852e-115
1.57834e-120
-3.50917e-127
-2.70839e-128
-3.83706e-133
6.83933e-18
5.57186e-18
5.30017e-18
5.12969e-18
4.58846e-18
3.11222e-18
1.03739e-18
8.32132e-20
9.08431e-22
2.03781e-24
2.43159e-27
2.03703e-30
1.25344e-33
5.76746e-37
2.02872e-40
5.51974e-44
1.15318e-47
1.85908e-51
2.25858e-55
2.0775e-59
1.43309e-63
7.40819e-68
3.006e-72
1.07509e-76
4.04421e-81
1.55448e-85
5.79371e-90
1.91e-94
5.19768e-99
1.15348e-103
2.00807e-108
2.49749e-113
1.92615e-118
6.98244e-124
4.59366e-129
-8.89623e-132
-1.05819e-136
5.30151e-18
5.19662e-18
4.94522e-18
4.12141e-18
2.28752e-18
4.54344e-19
1.48873e-20
6.33383e-23
7.92788e-26
5.38843e-29
1.92781e-32
1.87339e-38
1.97974e-44
2.3979e-50
4.4525e-56
4.35363e-60
5.00091e-63
2.52171e-67
-4.85152e-72
-6.62733e-76
2.61555e-75
4.41228e-79
4.04798e-83
2.98069e-87
1.97222e-91
4.65204e-91
2.82327e-95
1.29465e-99
4.58218e-104
1.20829e-108
2.19866e-113
2.2098e-118
8.35215e-124
1.07977e-132
1.24002e-133
-1.5859e-135
-1.54462e-140
4.96208e-18
4.27448e-18
2.39197e-18
4.50435e-19
1.39315e-20
7.26007e-23
2.67928e-27
4.55912e-32
3.58158e-35
2.2699e-38
7.26344e-42
2.18144e-48
3.35068e-54
3.67845e-57
1.16979e-60
4.18593e-64
2.55656e-64
6.46553e-71
6.70857e-76
3.88691e-80
4.62882e-83
3.43722e-83
5.97454e-87
4.67491e-92
1.99601e-99
3.3968e-101
3.23283e-105
2.33229e-109
1.26676e-113
4.64176e-118
1.08589e-122
1.32704e-127
5.82523e-133
2.43305e-140
8.43967e-143
-1.22115e-139
-9.81969e-145
4.97491e-19
5.16941e-20
3.15937e-21
2.70692e-23
1.68274e-27
5.01073e-31
4.57413e-36
3.59989e-39
2.98468e-42
1.5025e-45
3.86111e-49
4.97376e-54
4.8428e-54
7.28886e-57
2.32155e-60
5.75713e-64
1.0323e-67
1.48905e-71
1.86621e-75
1.72933e-79
1.16282e-83
5.7618e-88
2.16825e-92
8.71564e-97
3.12898e-101
1.35967e-105
5.39881e-110
2.4716e-114
6.8128e-119
1.16006e-123
1.55747e-128
1.55339e-133
1.62107e-138
7.58489e-143
1.06201e-145
-2.4113e-144
-1.44016e-149
2.81915e-17
2.31928e-17
1.88463e-17
1.51581e-17
1.20847e-17
9.52145e-18
7.52326e-18
6.26978e-18
5.32031e-18
3.8411e-18
1.58629e-18
2.02312e-19
4.52299e-21
1.86873e-23
3.53128e-26
5.07783e-29
5.88023e-32
5.56212e-35
4.22284e-38
2.60792e-41
1.29276e-44
5.13536e-48
1.66256e-51
4.24665e-55
8.64695e-59
1.33722e-62
1.60747e-66
1.45278e-70
-4.41305e-72
-1.48408e-73
-1.92618e-75
-1.38537e-77
-6.50816e-80
-2.22633e-82
-4.51982e-85
-4.00901e-88
-6.64884e-92
3.31487e-17
2.70363e-17
2.1754e-17
1.72971e-17
1.36296e-17
1.06277e-17
8.22514e-18
6.63622e-18
5.63702e-18
4.40193e-18
2.29422e-18
4.54414e-19
1.84332e-20
1.2304e-22
2.77065e-25
4.34375e-28
5.42692e-31
5.50999e-34
4.46749e-37
2.93088e-40
1.53581e-43
6.41254e-47
2.1724e-50
5.78612e-54
1.22451e-57
2.00807e-61
2.53799e-65
2.45238e-69
1.7313e-73
8.87508e-78
7.85895e-83
-1.9746e-82
-1.78508e-84
-1.16068e-86
-4.81164e-89
-8.89284e-92
-2.32273e-95
3.89689e-17
3.14841e-17
2.50869e-17
1.97231e-17
1.53472e-17
1.18344e-17
9.02138e-18
7.0539e-18
5.90908e-18
4.81964e-18
2.95177e-18
8.22607e-19
5.55337e-20
6.1153e-22
1.72523e-24
2.95454e-27
3.9613e-30
4.29438e-33
3.70019e-36
2.56666e-39
1.41533e-42
6.1891e-46
2.18412e-49
6.03881e-53
1.32193e-56
2.23663e-60
2.9076e-64
2.88133e-68
2.10539e-72
1.11637e-76
4.16053e-81
1.03266e-85
6.49837e-91
-5.31697e-91
-5.16865e-93
-2.00202e-95
-7.62785e-99
4.58348e-17
3.66274e-17
2.88831e-17
2.24559e-17
1.72509e-17
1.31383e-17
9.8905e-18
7.52954e-18
6.16545e-18
5.13507e-18
3.50989e-18
1.27004e-18
1.30949e-19
2.32738e-21
8.61388e-24
1.62039e-26
2.31722e-29
2.66513e-32
2.42588e-35
1.76926e-38
1.02118e-41
4.65351e-45
1.70257e-48
4.86339e-52
1.09604e-55
1.90417e-59
2.53413e-63
2.5629e-67
1.9054e-71
1.02477e-75
3.87851e-80
9.81692e-85
1.56355e-89
1.23386e-94
-5.12464e-97
-4.91084e-99
-2.52679e-102
5.39744e-17
4.25903e-17
3.31911e-17
2.55097e-17
1.93467e-17
1.45385e-17
1.08133e-17
8.05578e-18
6.42251e-18
5.38238e-18
3.95931e-18
1.7455e-18
2.5442e-19
6.97074e-21
3.48672e-23
7.27461e-26
1.10318e-28
1.33726e-31
1.27792e-34
9.74274e-38
5.85326e-41
2.76485e-44
1.04348e-47
3.06443e-51
7.07588e-55
1.25615e-58
1.70314e-62
1.74945e-66
1.31696e-70
7.14868e-75
2.72075e-79
6.89889e-84
1.09683e-88
9.84814e-94
3.95491e-99
-2.19083e-103
-8.20197e-106
6.36416e-17
4.95228e-17
3.80742e-17
2.88967e-17
2.16325e-17
1.60301e-17
1.17737e-17
8.61674e-18
6.68689e-18
5.58496e-18
4.31183e-18
2.20431e-18
4.24981e-19
1.69814e-20
1.15718e-22
2.70874e-25
4.33362e-28
5.49907e-31
5.48171e-34
4.34208e-37
2.69954e-40
1.31439e-43
5.09014e-47
1.5289e-50
3.59879e-54
6.4955e-58
8.92739e-62
9.2673e-66
7.02812e-70
3.83049e-74
1.45813e-78
3.6823e-83
5.79915e-88
5.12348e-93
2.04135e-98
1.60084e-104
-3.67274e-135
7.50735e-17
5.75815e-17
4.36055e-17
3.26302e-17
2.40977e-17
1.76017e-17
1.27558e-17
9.19228e-18
6.95669e-18
5.75653e-18
4.58575e-18
2.61802e-18
6.31444e-19
3.47841e-20
3.19275e-22
8.46801e-25
1.42276e-27
1.877e-30
1.93878e-33
1.58543e-36
1.0138e-39
5.05798e-43
1.99867e-46
6.1064e-50
1.45737e-53
2.66009e-57
3.68638e-61
3.84668e-65
2.92308e-69
1.59071e-73
6.02102e-78
1.50462e-82
2.3301e-87
2.00736e-92
7.67538e-98
5.2926e-104
8.53182e-112
8.84374e-17
6.68927e-17
4.9852e-17
3.67203e-17
2.6724e-17
1.92329e-17
1.37409e-17
9.75996e-18
7.22216e-18
5.90293e-18
4.79798e-18
2.97407e-18
8.57173e-19
6.17574e-20
7.44814e-22
2.2495e-24
3.95225e-27
5.38387e-30
5.7231e-33
4.79979e-36
3.13658e-39
1.59356e-42
6.38726e-46
1.9734e-49
4.74791e-53
8.71372e-57
1.21062e-60
1.26252e-64
9.55651e-69
5.16083e-73
1.92972e-77
4.7372e-82
7.15349e-87
5.94548e-92
2.14639e-97
1.16643e-103
1.57616e-111
1.03825e-16
7.75141e-17
5.68497e-17
4.11653e-17
2.94827e-17
2.08929e-17
1.47049e-17
1.02955e-17
7.467e-18
6.0235e-18
4.96104e-18
3.27092e-18
1.08547e-18
9.75711e-20
1.49699e-21
5.14047e-24
9.40239e-27
1.31362e-29
1.42728e-32
1.21945e-35
8.09047e-39
4.15881e-42
1.6805e-45
5.21807e-49
1.2579e-52
2.3071e-56
3.19371e-60
3.30792e-64
2.47805e-68
1.31901e-72
4.83632e-77
1.15663e-81
1.68641e-86
1.33506e-91
4.44529e-97
1.56395e-103
1.70406e-111
1.21311e-16
8.94237e-17
6.45771e-17
4.59369e-17
3.23313e-17
2.25396e-17
1.56166e-17
1.07731e-17
7.67146e-18
6.11318e-18
5.08316e-18
3.51317e-18
1.30312e-18
1.40231e-19
2.642e-21
1.02308e-23
1.93839e-26
2.75921e-29
3.0437e-32
2.63161e-35
1.76092e-38
9.09879e-42
3.68328e-45
1.14219e-48
2.74141e-52
4.99269e-56
6.84162e-60
6.99088e-64
5.14671e-68
2.67992e-72
9.55604e-77
2.20534e-81
3.06908e-86
2.27691e-91
6.78281e-97
6.94711e-104
6.11536e-112
1.41006e-16
1.02546e-16
7.2942e-17
5.09648e-17
3.52064e-17
2.41178e-17
1.64373e-17
1.11666e-17
7.81879e-18
6.16671e-18
5.17019e-18
3.70801e-18
1.50159e-18
1.86704e-19
4.1695e-21
1.79607e-23
3.50396e-26
5.04876e-29
5.61688e-32
4.88209e-35
3.2732e-38
1.68896e-41
6.80565e-45
2.09433e-48
4.97252e-52
8.93338e-56
1.20362e-59
1.20476e-63
8.65121e-68
4.37074e-72
1.50177e-76
3.30825e-81
4.33536e-86
2.95569e-91
7.54486e-97
2.58674e-104
1.87392e-112
1.63018e-16
1.16769e-16
8.17856e-17
5.61251e-17
3.80175e-17
2.55595e-17
1.71232e-17
1.14535e-17
7.90299e-18
6.18591e-18
5.22806e-18
3.86263e-18
1.67649e-18
2.33776e-19
5.98732e-21
2.82038e-23
5.62609e-26
8.15208e-29
9.08581e-32
7.88575e-35
5.26186e-38
2.69335e-41
1.07327e-44
3.25638e-48
7.59782e-52
1.3374e-55
1.75928e-59
1.7123e-63
1.18965e-67
5.77865e-72
1.89326e-76
3.93221e-81
4.77555e-86
2.91946e-91
5.96845e-97
1.43506e-104
6.55879e-113
1.87358e-16
1.31917e-16
9.08835e-17
6.12361e-17
4.06421e-17
2.67867e-17
1.76329e-17
1.16231e-17
7.93345e-18
6.18639e-18
5.26217e-18
3.98087e-18
1.82478e-18
2.78449e-19
7.94431e-21
4.01968e-23
8.13907e-26
1.17858e-28
1.30737e-31
1.12541e-34
7.42255e-38
3.74288e-41
1.46509e-44
4.35271e-48
9.91026e-52
1.69652e-55
2.16175e-59
2.02861e-63
1.35186e-67
6.25524e-72
1.93349e-76
3.73565e-81
4.12249e-86
2.18558e-91
3.17123e-97
4.50471e-105
1.00785e-113
2.13827e-16
1.47683e-16
9.99274e-17
6.60564e-17
4.29288e-17
2.7722e-17
1.7943e-17
1.16893e-17
7.93505e-18
6.1711e-18
5.27373e-18
4.05983e-18
1.93765e-18
3.16117e-19
9.77091e-21
5.21432e-23
1.06522e-25
1.53505e-28
1.68668e-31
1.43224e-34
9.28095e-38
4.5808e-41
1.74961e-44
5.05354e-48
1.11481e-51
1.84374e-55
2.26069e-59
2.03129e-63
1.28718e-67
5.61348e-72
1.61584e-76
2.85516e-81
2.79492e-86
1.21873e-91
9.29232e-98
5.81573e-106
1.62821e-115
2.41921e-16
1.63565e-16
1.08498e-16
7.02912e-17
4.47178e-17
2.83157e-17
1.8072e-17
1.16964e-17
7.8779e-18
6.12842e-18
5.26786e-18
4.09439e-18
1.99687e-18
3.37666e-19
1.08889e-20
5.97172e-23
1.22278e-25
1.75046e-28
1.90284e-31
1.59228e-34
1.01282e-37
4.88809e-41
1.81953e-44
5.10152e-48
1.08741e-51
1.72921e-55
2.02745e-59
1.73068e-63
1.03367e-67
4.20448e-72
1.11233e-76
1.76377e-81
1.484e-86
4.93837e-92
8.52669e-100
2.35397e-108
-2.27747e-115
2.70704e-16
1.7882e-16
1.16061e-16
7.36252e-17
4.58908e-17
2.85864e-17
1.80924e-17
1.15702e-17
7.74595e-18
6.05755e-18
5.24188e-18
4.09569e-18
2.0054e-18
3.40454e-19
1.10003e-20
6.01697e-23
1.22444e-25
1.73627e-28
1.86211e-31
1.5308e-34
9.52664e-38
4.48043e-41
1.61973e-44
4.39247e-48
9.0167e-52
1.37463e-55
1.53614e-59
1.24049e-63
6.94108e-68
2.61088e-72
6.26271e-77
8.72086e-82
6.06268e-87
1.33952e-92
5.72734e-101
2.72148e-110
-2.11796e-115
2.98697e-16
1.9246e-16
1.22037e-16
7.58199e-17
4.64528e-17
2.86453e-17
1.78699e-17
1.12702e-17
7.52857e-18
5.95923e-18
5.19643e-18
4.06387e-18
1.97017e-18
3.26016e-19
1.01164e-20
5.32395e-23
1.06059e-25
1.47609e-28
1.54867e-31
1.24112e-34
7.50571e-38
3.42024e-41
1.19532e-44
3.1233e-48
6.15354e-52
8.96434e-56
9.51392e-60
7.23756e-64
3.77331e-68
1.30121e-72
2.792e-77
3.3292e-82
1.80019e-87
1.81692e-93
5.33105e-103
-1.78764e-111
-8.9397e-111
3.23852e-16
2.03351e-16
1.25988e-16
7.68758e-17
4.65897e-17
2.82752e-17
1.73349e-17
1.07819e-17
7.23779e-18
5.84195e-18
5.13357e-18
3.9865e-18
1.87176e-18
2.90355e-19
8.22969e-21
4.01516e-23
7.73537e-26
1.04986e-28
1.07073e-31
8.31087e-35
4.85232e-38
2.12867e-41
7.14781e-45
1.78879e-48
3.36259e-52
4.65236e-56
4.65901e-60
3.31449e-64
1.59504e-68
4.97878e-73
9.35899e-78
9.22712e-83
3.51384e-88
3.64913e-97
4.12397e-108
-1.42446e-111
-5.94659e-110
3.43833e-16
2.10571e-16
1.27906e-16
7.7139e-17
4.59732e-17
2.73445e-17
1.64526e-17
1.01211e-17
6.90117e-18
5.71576e-18
5.05238e-18
3.85479e-18
1.70609e-18
2.36906e-19
5.79799e-21
2.52828e-23
4.65792e-26
6.12038e-29
6.02357e-32
4.49529e-35
2.51567e-38
1.05499e-41
3.38037e-45
8.04528e-49
1.43218e-52
1.86648e-56
1.74736e-60
1.14959e-64
5.03406e-69
1.39366e-73
2.22744e-78
1.71619e-83
3.87275e-89
1.42346e-102
7.73568e-110
-8.80012e-112
-4.2875e-110
3.56803e-16
2.14011e-16
1.28392e-16
7.60966e-17
4.43355e-17
2.57851e-17
1.52377e-17
9.33083e-18
6.55142e-18
5.58758e-18
4.94852e-18
3.65588e-18
1.47431e-18
1.73446e-19
3.44344e-21
1.29786e-23
2.26306e-26
2.85404e-29
2.68677e-32
1.91103e-35
1.01633e-38
4.04098e-42
1.22546e-45
2.74991e-49
4.59217e-53
5.57856e-57
4.82279e-61
2.89031e-65
1.12887e-69
2.69689e-74
3.52494e-79
1.94503e-84
1.77962e-90
6.34805e-104
-8.54278e-109
-6.11212e-111
-1.77597e-110
3.62687e-16
2.14827e-16
1.26566e-16
7.3166e-17
4.15182e-17
2.36154e-17
1.37528e-17
8.47671e-18
6.22144e-18
5.46054e-18
4.81254e-18
3.37285e-18
1.18702e-18
1.10921e-19
1.67442e-21
5.32438e-24
8.70994e-27
1.04379e-29
9.30398e-33
6.24539e-36
3.12664e-39
1.16866e-42
3.3232e-46
6.96268e-50
1.07943e-53
1.20776e-57
9.50517e-62
5.09451e-66
1.73254e-70
3.45911e-75
3.49346e-80
1.27105e-85
1.66161e-96
1.96394e-105
-3.31464e-109
-3.85667e-111
-3.72107e-111
3.63895e-16
2.11419e-16
1.21236e-16
6.80217e-17
3.75616e-17
2.09555e-17
1.21025e-17
7.63688e-18
5.93491e-18
5.33231e-18
4.62638e-18
2.98636e-18
8.67413e-19
5.9682e-20
6.43625e-22
1.70812e-24
2.60051e-27
2.92753e-30
2.44236e-33
1.53008e-36
7.13371e-40
2.48177e-43
6.54519e-47
1.26607e-50
1.79916e-54
1.82742e-58
1.28588e-62
6.02894e-67
1.73513e-71
2.77525e-76
2.04545e-81
4.25401e-87
1.87969e-99
1.37143e-106
-5.72831e-110
-6.41983e-112
-2.70053e-112
3.56972e-16
2.01353e-16
1.11783e-16
6.07661e-17
3.2722e-17
1.79993e-17
1.04162e-17
6.88813e-18
5.70071e-18
5.19422e-18
4.36022e-18
2.48382e-18
5.53951e-19
2.57187e-20
1.88328e-22
4.18785e-25
5.88295e-28
6.14061e-31
4.73356e-34
2.73378e-37
1.17297e-40
3.7541e-44
9.07239e-48
1.59838e-51
2.05115e-55
1.85748e-59
1.14424e-63
4.57176e-68
1.07561e-72
1.31751e-77
6.82336e-83
6.7579e-89
2.79792e-96
9.02135e-108
-2.9233e-111
-3.89669e-113
-3.15143e-114
3.36724e-16
1.83491e-16
9.84925e-17
5.19303e-17
2.73922e-17
1.49661e-17
8.83284e-18
6.2886e-18
5.5114e-18
5.02776e-18
3.97001e-18
1.87657e-18
2.92935e-19
8.33449e-21
4.04013e-23
7.63373e-26
9.78677e-29
9.33205e-32
6.55298e-35
3.44214e-38
1.34197e-41
3.90007e-45
8.5135e-49
1.34508e-52
1.53055e-56
1.21089e-60
6.37432e-65
2.10483e-69
3.88151e-74
3.54664e-79
1.21007e-84
1.54839e-90
1.88119e-96
1.89931e-108
-4.1522e-113
-4.62061e-115
-1.78085e-116
3.0157e-16
1.58856e-16
8.25174e-17
4.2302e-17
2.19965e-17
1.20748e-17
7.48846e-18
5.85964e-18
5.34697e-18
4.79615e-18
3.40337e-18
1.22359e-18
1.19062e-19
1.88752e-21
6.14876e-24
1.0011e-26
1.15398e-29
9.8821e-33
6.22121e-36
2.92776e-39
1.02308e-42
2.6565e-46
5.14797e-50
7.1551e-54
7.07329e-58
4.77709e-62
2.08991e-66
5.49669e-71
7.80056e-76
5.08415e-81
1.4139e-86
3.17549e-92
3.8522e-98
6.70027e-105
3.93883e-110
-1.96381e-117
-3.15676e-119
2.54879e-16
1.29955e-16
6.53448e-17
3.27e-17
1.69271e-17
9.54415e-18
6.48964e-18
5.57605e-18
5.17776e-18
4.43123e-18
2.62759e-18
6.37538e-19
3.36611e-20
2.77791e-22
6.44203e-25
9.07934e-28
9.23635e-31
6.97137e-34
3.86545e-37
1.6014e-40
4.9319e-44
1.12267e-47
1.89378e-51
2.26895e-55
1.90524e-59
1.071e-63
3.76417e-68
7.73469e-73
8.25582e-78
4.04242e-83
1.3254e-88
3.07265e-94
4.79714e-100
3.40685e-106
1.01985e-111
4.09739e-118
-1.11823e-122
2.01985e-16
9.96038e-17
4.84986e-17
2.38873e-17
1.25374e-17
7.58098e-18
5.86259e-18
5.37786e-18
4.95146e-18
3.82785e-18
1.69466e-18
2.36596e-19
5.8255e-21
2.51208e-23
4.46323e-26
5.40155e-29
4.74665e-32
3.09319e-35
1.48189e-38
5.31129e-42
1.41244e-45
2.76225e-49
3.97202e-53
4.01129e-57
2.79305e-61
1.26562e-65
3.50118e-70
5.56726e-75
4.40369e-80
2.09816e-85
7.5342e-91
1.79395e-96
2.72531e-102
4.5745e-108
1.00237e-113
1.0608e-119
-2.56086e-126
1.48269e-16
7.05884e-17
3.34322e-17
1.65001e-17
9.1304e-18
6.30919e-18
5.52189e-18
5.19493e-18
4.55621e-18
2.88469e-18
8.05822e-19
5.27121e-20
5.33937e-22
1.33999e-24
1.91336e-27
1.94997e-30
1.44593e-33
7.96341e-37
3.22759e-40
9.82307e-44
2.21242e-47
3.6452e-51
4.37942e-55
3.64883e-59
2.05128e-63
7.33884e-68
1.58833e-72
1.89926e-77
1.312e-82
6.6939e-88
2.43187e-93
5.49895e-99
1.04741e-104
2.13702e-110
4.91359e-116
5.76836e-122
-4.8127e-129
9.93584e-17
4.55623e-17
2.13103e-17
1.09707e-17
6.90343e-18
5.66226e-18
5.31652e-18
4.92692e-18
3.79366e-18
1.66336e-18
2.29753e-19
5.52362e-21
2.29467e-23
3.91929e-26
4.52154e-29
3.77701e-32
2.30277e-35
1.04728e-38
3.52854e-42
8.93686e-46
1.66991e-49
2.27112e-53
2.23038e-57
1.49768e-61
6.65734e-66
1.87622e-70
3.13842e-75
3.13136e-80
2.20788e-85
1.1132e-90
3.83451e-96
9.4468e-102
2.05084e-107
5.00012e-113
1.1498e-118
1.42616e-124
-7.18361e-132
5.90726e-17
2.63685e-17
1.27576e-17
7.49018e-18
5.79783e-18
5.37826e-18
5.1004e-18
4.34171e-18
2.49282e-18
5.75423e-19
2.79783e-20
2.05131e-22
4.30076e-25