/*--------------------------------*- C++ -*----------------------------------*\
| =========                 |                                                 |
| \\      /  F ield         | OpenFOAM: The Open Source CFD Toolbox           |
|  \\    /   O peration     | Version:  v2012                                 |
|   \\  /    A nd           | Website:  www.openfoam.com                      |
|    \\/     M anipulation  |                                                 |
\*---------------------------------------------------------------------------*/
FoamFile
{
    version     2.0;
    format      ascii;
    class       volVectorField;
    location    "0.55";
    object      U;
}
// * * * * * * * * * * * * * * * * * * * * * * * * * * * * * * * * * * * * * //

dimensions      [0 1 -1 0 0 0 0];


internalField   nonuniform List<vector> 
2664
(
(0.00496501 -0.00995542 -4.33345e-05)
(0.00491713 -0.00933183 -4.2917e-05)
(0.00483875 -0.00870982 -4.22333e-05)
(0.00473157 -0.00809438 -4.12982e-05)
(0.00459776 -0.00749027 -4.01307e-05)
(0.0044399 -0.00690183 -3.87532e-05)
(0.00426093 -0.00633299 -3.71916e-05)
(0.00406405 -0.00578713 -3.54736e-05)
(0.00385262 -0.00526706 -3.36284e-05)
(0.00363003 -0.00477494 -3.16859e-05)
(0.00339966 -0.00431237 -2.96754e-05)
(0.00316476 -0.00388033 -2.76254e-05)
(0.00292838 -0.00347921 -2.55623e-05)
(0.00269331 -0.0031089 -2.35107e-05)
(0.00246206 -0.00276883 -2.14924e-05)
(0.00223684 -0.00245805 -1.95266e-05)
(0.0020195 -0.00217532 -1.76296e-05)
(0.00181154 -0.00191909 -1.58145e-05)
(0.00161416 -0.00168767 -1.40916e-05)
(0.00142823 -0.00147925 -1.24687e-05)
(0.00125435 -0.00129199 -1.09509e-05)
(0.0010929 -0.00112404 -9.54158e-06)
(0.000943974 -0.000973551 -8.24159e-06)
(0.000807536 -0.000838762 -7.05058e-06)
(0.000683397 -0.00071802 -5.9669e-06)
(0.000571239 -0.000609763 -4.98777e-06)
(0.000470666 -0.000512566 -4.10976e-06)
(0.000381206 -0.000425127 -3.32876e-06)
(0.000302373 -0.000346323 -2.64052e-06)
(0.000233673 -0.000275245 -2.04072e-06)
(0.000174614 -0.000211257 -1.52507e-06)
(0.000124726 -0.000154139 -1.08948e-06)
(8.36037e-05 -0.000104216 -7.30404e-07)
(5.08283e-05 -6.24749e-05 -4.44188e-07)
(2.61463e-05 -3.0421e-05 -2.28608e-07)
(9.16142e-06 -9.57235e-06 -8.0278e-08)
(3.92782e-07 -1.18682e-07 -4.84749e-09)
(0.00525274 -0.0101925 -4.58461e-05)
(0.00518674 -0.00952432 -4.52704e-05)
(0.00508852 -0.00886091 -4.44135e-05)
(0.00496022 -0.0082076 -4.32942e-05)
(0.00480451 -0.0075694 -4.19355e-05)
(0.00462443 -0.0069508 -4.03641e-05)
(0.00442337 -0.00635577 -3.86097e-05)
(0.00420494 -0.00578763 -3.67035e-05)
(0.00397285 -0.00524904 -3.4678e-05)
(0.00373079 -0.00474196 -3.25656e-05)
(0.00348239 -0.00426773 -3.03978e-05)
(0.00323105 -0.00382699 -2.82042e-05)
(0.00297993 -0.00341982 -2.60125e-05)
(0.00273188 -0.00304576 -2.38475e-05)
(0.00248939 -0.00270388 -2.1731e-05)
(0.0022546 -0.00239292 -1.96817e-05)
(0.0020293 -0.0021113 -1.77153e-05)
(0.00181487 -0.0018572 -1.58436e-05)
(0.00161236 -0.00162869 -1.4076e-05)
(0.00142251 -0.00142373 -1.24188e-05)
(0.00124577 -0.00124029 -1.0876e-05)
(0.00108236 -0.00107637 -9.44965e-06)
(0.000932262 -0.000929983 -8.13938e-06)
(0.000795291 -0.000799289 -6.94371e-06)
(0.000671143 -0.000682552 -5.85994e-06)
(0.000559395 -0.000578159 -4.88438e-06)
(0.000459557 -0.000484648 -4.0128e-06)
(0.000371079 -0.000400696 -3.24036e-06)
(0.000293404 -0.000325169 -2.56221e-06)
(0.000225977 -0.000257161 -1.97353e-06)
(0.000168255 -0.000196043 -1.46955e-06)
(0.000119719 -0.000141604 -1.04576e-06)
(7.99158e-05 -9.41851e-05 -6.98194e-07)
(4.83734e-05 -5.47869e-05 -4.2274e-07)
(2.47708e-05 -2.49368e-05 -2.16585e-07)
(8.63913e-06 -6.2059e-06 -7.57023e-08)
(3.65464e-07 1.08734e-06 -4.5279e-09)
(0.00555644 -0.0104293 -4.8497e-05)
(0.00546946 -0.00971354 -4.77382e-05)
(0.00534858 -0.0090063 -4.66837e-05)
(0.0051965 -0.00831327 -4.53567e-05)
(0.0050164 -0.00763968 -4.37852e-05)
(0.00481185 -0.00699011 -4.20003e-05)
(0.00458672 -0.00636851 -4.00358e-05)
(0.00434506 -0.00577808 -3.79268e-05)
(0.00409093 -0.00522127 -3.57089e-05)
(0.00382833 -0.00469977 -3.34172e-05)
(0.00356109 -0.00421457 -3.10849e-05)
(0.00329277 -0.00376596 -2.87431e-05)
(0.00302659 -0.00335362 -2.64199e-05)
(0.00276542 -0.00297669 -2.41405e-05)
(0.00251172 -0.00263389 -2.19261e-05)
(0.00226754 -0.00232356 -1.97948e-05)
(0.00203454 -0.00204382 -1.77612e-05)
(0.00181397 -0.00179256 -1.58358e-05)
(0.0016067 -0.00156755 -1.40267e-05)
(0.00141333 -0.00136658 -1.23387e-05)
(0.00123412 -0.0011874 -1.07744e-05)
(0.00106915 -0.00102787 -9.33436e-06)
(0.000918244 -0.000885903 -8.01703e-06)
(0.000781082 -0.000759548 -6.81969e-06)
(0.000657238 -0.00064701 -5.73857e-06)
(0.000546181 -0.000546629 -4.76904e-06)
(0.000447329 -0.000456915 -3.90605e-06)
(0.00036005 -0.00037653 -3.14407e-06)
(0.00028372 -0.000304337 -2.47767e-06)
(0.000217728 -0.000239432 -1.9015e-06)
(0.000161478 -0.000181198 -1.41038e-06)
(0.000114408 -0.000129438 -9.99382e-07)
(7.60169e-05 -8.45064e-05 -6.6414e-07)
(4.57838e-05 -4.74166e-05 -4.00115e-07)
(2.33212e-05 -1.97152e-05 -2.03913e-07)
(8.08791e-06 -3.02145e-06 -7.08733e-08)
(3.36416e-07 2.22325e-06 -4.1872e-09)
(0.00587651 -0.0106642 -5.12908e-05)
(0.00576532 -0.00989764 -5.03208e-05)
(0.00561867 -0.00914414 -4.90413e-05)
(0.00543986 -0.00840961 -4.74811e-05)
(0.00523268 -0.00769944 -4.56733e-05)
(0.00500126 -0.00701825 -4.36538e-05)
(0.00475001 -0.00636988 -4.14613e-05)
(0.00448339 -0.00575736 -3.91345e-05)
(0.00420585 -0.00518283 -3.67123e-05)
(0.00392166 -0.00464764 -3.42321e-05)
(0.00363485 -0.00415236 -3.17289e-05)
(0.00334908 -0.00369685 -2.92348e-05)
(0.00306763 -0.00328035 -2.67783e-05)
(0.00279333 -0.00290156 -2.43842e-05)
(0.00252856 -0.00255879 -2.20732e-05)
(0.00227524 -0.00224999 -1.98622e-05)
(0.0020349 -0.00197295 -1.77643e-05)
(0.00180858 -0.00172523 -1.57888e-05)
(0.001597 -0.00150437 -1.3942e-05)
(0.00140054 -0.0013079 -1.22271e-05)
(0.00121931 -0.00113343 -1.06451e-05)
(0.0010532 -0.000978675 -9.19515e-06)
(0.000901882 -0.000841418 -7.87422e-06)
(0.000764893 -0.000719639 -6.67838e-06)
(0.000641682 -0.000611482 -5.60277e-06)
(0.000531607 -0.000515252 -4.64182e-06)
(0.000433995 -0.000429436 -3.78965e-06)
(0.000348136 -0.000352688 -3.04006e-06)
(0.00027334 -0.000283875 -2.38705e-06)
(0.000208942 -0.000222099 -1.8248e-06)
(0.000154299 -0.000166759 -1.34769e-06)
(0.000108806 -0.000117671 -9.50455e-07)
(7.19168e-05 -7.52044e-05 -6.28329e-07)
(4.30662e-05 -4.03842e-05 -3.76372e-07)
(2.18013e-05 -1.47726e-05 -1.90627e-07)
(7.50922e-06 -3.13913e-08 -6.58035e-08)
(3.05604e-07 3.28236e-06 -3.82443e-09)
(0.00621319 -0.0108948 -5.42297e-05)
(0.00607414 -0.0100744 -5.30166e-05)
(0.00589825 -0.0092723 -5.14819e-05)
(0.00568951 -0.00849461 -4.96605e-05)
(0.00545237 -0.00774685 -4.75911e-05)
(0.00519157 -0.00703359 -4.53152e-05)
(0.00491206 -0.00635851 -4.28761e-05)
(0.00461876 -0.00572433 -4.03164e-05)
(0.00431646 -0.00513282 -3.76781e-05)
(0.00400971 -0.00458488 -3.50009e-05)
(0.00370268 -0.00408059 -3.23212e-05)
(0.00339912 -0.00361932 -2.96718e-05)
(0.00310229 -0.0031998 -2.7081e-05)
(0.00281495 -0.00282027 -2.45731e-05)
(0.00253936 -0.00247857 -2.21676e-05)
(0.00227727 -0.00217227 -1.988e-05)
(0.00203002 -0.00189877 -1.77218e-05)
(0.00179844 -0.00165534 -1.57004e-05)
(0.00158305 -0.00143926 -1.38203e-05)
(0.00138401 -0.00124786 -1.20829e-05)
(0.00120124 -0.00107854 -1.04875e-05)
(0.00103446 -0.000928911 -9.03158e-06)
(0.000883153 -0.000796652 -7.71074e-06)
(0.00074672 -0.000679671 -6.51974e-06)
(0.000624482 -0.000576066 -5.45263e-06)
(0.00051569 -0.000484111 -4.50287e-06)
(0.000419579 -0.000402282 -3.66379e-06)
(0.000335362 -0.000329232 -2.92854e-06)
(0.000262289 -0.000263834 -2.29057e-06)
(0.000199643 -0.000205205 -1.7436e-06)
(0.000146737 -0.000152759 -1.28166e-06)
(0.000102927 -0.00010633 -8.99116e-07)
(6.76273e-05 -6.63013e-05 -5.90863e-07)
(4.02286e-05 -3.37072e-05 -3.5158e-07)
(2.02153e-05 -1.01223e-05 -1.76763e-07)
(6.90456e-06 2.75505e-06 -6.05061e-08)
(2.72562e-07 4.26043e-06 -3.43807e-09)
(0.0065665 -0.0111189 -5.73138e-05)
(0.00639554 -0.0102415 -5.58221e-05)
(0.0061866 -0.00938839 -5.3999e-05)
(0.00594444 -0.00856604 -5.18859e-05)
(0.00567426 -0.0077799 -4.95281e-05)
(0.00538145 -0.00703441 -4.69729e-05)
(0.00507151 -0.00633293 -4.42681e-05)
(0.00474981 -0.0056778 -4.14606e-05)
(0.00442149 -0.0050703 -3.85951e-05)
(0.00409129 -0.00451079 -3.57132e-05)
(0.00376353 -0.00399878 -3.28525e-05)
(0.00344195 -0.00353307 -3.00458e-05)
(0.00312977 -0.00311183 -2.73211e-05)
(0.00282963 -0.00273277 -2.47013e-05)
(0.00254359 -0.00239328 -2.22046e-05)
(0.00227321 -0.00209048 -1.98446e-05)
(0.00201958 -0.00182142 -1.76308e-05)
(0.00178332 -0.00158306 -1.55685e-05)
(0.00156469 -0.00137241 -1.36601e-05)
(0.00136364 -0.0011866 -1.19051e-05)
(0.00117987 -0.00102288 -1.03009e-05)
(0.0010129 -0.000878726 -8.84336e-06)
(0.000862048 -0.000751738 -7.52651e-06)
(0.000726572 -0.000639763 -6.34387e-06)
(0.000605661 -0.000540862 -5.28833e-06)
(0.000498459 -0.000453294 -4.35244e-06)
(0.00040411 -0.000375527 -3.52875e-06)
(0.00032176 -0.000306222 -2.80979e-06)
(0.000250597 -0.000244265 -2.18849e-06)
(0.000189856 -0.00018879 -1.65815e-06)
(0.000138814 -0.000139232 -1.21248e-06)
(9.67902e-05 -9.54425e-05 -8.45525e-07)
(6.31622e-05 -5.78178e-05 -5.51863e-07)
(3.72801e-05 -2.74019e-05 -3.25819e-07)
(1.85685e-05 -5.77652e-06 -1.62367e-07)
(6.27591e-06 5.32954e-06 -5.49986e-08)
(2.37286e-07 5.15382e-06 -3.02738e-09)
(0.00693627 -0.0113333 -6.05415e-05)
(0.00672883 -0.0103958 -5.87315e-05)
(0.00648263 -0.00948968 -5.65832e-05)
(0.00620331 -0.00862143 -5.41457e-05)
(0.00589684 -0.00779644 -5.14713e-05)
(0.00556931 -0.00701885 -4.86129e-05)
(0.00522676 -0.00629164 -4.56236e-05)
(0.00487501 -0.00561659 -4.25537e-05)
(0.00451949 -0.00499438 -3.94507e-05)
(0.00416511 -0.00442474 -3.63578e-05)
(0.00381623 -0.00390651 -3.33128e-05)
(0.00347659 -0.00343785 -3.03483e-05)
(0.00314925 -0.00301632 -2.74913e-05)
(0.00283667 -0.00263908 -2.4763e-05)
(0.0025407 -0.002303 -2.21796e-05)
(0.00226263 -0.00200477 -1.97524e-05)
(0.00200328 -0.00174108 -1.74886e-05)
(0.001763 -0.00150856 -1.53911e-05)
(0.00154178 -0.001304 -1.34601e-05)
(0.00133933 -0.00112432 -1.16929e-05)
(0.00115513 -0.000966621 -1.0085e-05)
(0.000988494 -0.000828276 -8.63035e-06)
(0.000838576 -0.000706814 -7.32162e-06)
(0.000704474 -0.000600036 -6.15095e-06)
(0.000585252 -0.000505978 -5.11016e-06)
(0.00047995 -0.000422889 -4.19086e-06)
(0.00038763 -0.000349246 -3.38488e-06)
(0.000307367 -0.00028372 -2.68414e-06)
(0.000238298 -0.000225217 -2.08111e-06)
(0.000179615 -0.000172895 -1.56873e-06)
(0.000130558 -0.000126209 -1.14038e-06)
(9.04171e-05 -8.50323e-05 -7.89868e-07)
(5.85373e-05 -4.97737e-05 -5.11465e-07)
(3.42315e-05 -2.14833e-05 -2.99182e-07)
(1.68669e-05 -1.74662e-06 -1.47492e-07)
(5.62547e-06 7.68448e-06 -4.93002e-08)
(1.99985e-07 5.95903e-06 -2.59551e-09)
(0.00732185 -0.0115347 -6.39072e-05)
(0.0070729 -0.0105342 -6.17351e-05)
(0.00678491 -0.00957314 -5.92219e-05)
(0.00646442 -0.00865808 -5.64252e-05)
(0.00611828 -0.00779413 -5.34045e-05)
(0.00575326 -0.006985 -5.0219e-05)
(0.00537598 -0.00623308 -4.69264e-05)
(0.00499262 -0.0055395 -4.35806e-05)
(0.00460887 -0.0049042 -4.02312e-05)
(0.00422974 -0.00432614 -3.69222e-05)
(0.00385958 -0.00380343 -3.36914e-05)
(0.00350199 -0.00333351 -3.05703e-05)
(0.00315988 -0.00291327 -2.75842e-05)
(0.00283542 -0.00253928 -2.47521e-05)
(0.00253018 -0.00220789 -2.20878e-05)
(0.00224514 -0.00191535 -1.95998e-05)
(0.00198083 -0.00165797 -1.72926e-05)
(0.00173727 -0.00143209 -1.51666e-05)
(0.00151418 -0.00123426 -1.32192e-05)
(0.00131101 -0.00106122 -1.14457e-05)
(0.001127 -0.000909955 -9.8394e-06)
(0.000961258 -0.000777733 -8.3926e-06)
(0.000812763 -0.000662031 -7.09629e-06)
(0.000680464 -0.000560619 -5.94136e-06)
(0.000563302 -0.00047152 -4.91854e-06)
(0.000460216 -0.000392989 -4.01858e-06)
(0.000370188 -0.000323512 -3.2326e-06)
(0.000292231 -0.000261785 -2.55199e-06)
(0.000225435 -0.000206739 -1.9688e-06)
(0.000168954 -0.000157557 -1.47564e-06)
(0.000121998 -0.000113721 -1.06564e-06)
(8.38317e-05 -7.51234e-05 -7.32356e-07)
(5.37704e-05 -4.21869e-05 -4.69828e-07)
(3.10946e-05 -1.59651e-05 -2.71775e-07)
(1.51172e-05 1.95752e-06 -1.32197e-07)
(4.95586e-06 9.81321e-06 -4.34339e-08)
(1.60913e-07 6.67316e-06 -2.14479e-09)
(0.00772227 -0.0117192 -6.74026e-05)
(0.00742627 -0.0106529 -6.48198e-05)
(0.00709153 -0.00963542 -6.18987e-05)
(0.00672567 -0.00867308 -5.87059e-05)
(0.00633637 -0.00777052 -5.53085e-05)
(0.00593114 -0.00693086 -5.17719e-05)
(0.00551707 -0.00615571 -4.81583e-05)
(0.00510071 -0.00544539 -4.45244e-05)
(0.0046879 -0.00479896 -4.09213e-05)
(0.00428367 -0.00421451 -3.73932e-05)
(0.00389227 -0.00368929 -3.3977e-05)
(0.00351711 -0.00321997 -3.07024e-05)
(0.00316079 -0.00280274 -2.75923e-05)
(0.00282519 -0.00243354 -2.4663e-05)
(0.00251151 -0.00210817 -2.19249e-05)
(0.00222038 -0.00182246 -1.93837e-05)
(0.00195196 -0.00157235 -1.70407e-05)
(0.00170597 -0.0013539 -1.48934e-05)
(0.00148181 -0.00116343 -1.29367e-05)
(0.00127865 -0.000997538 -1.11632e-05)
(0.00109548 -0.000853088 -9.56427e-06)
(0.000931217 -0.000727277 -8.13036e-06)
(0.000784656 -0.000617545 -6.85093e-06)
(0.0006546 -0.000521644 -5.71557e-06)
(0.000539872 -0.000437601 -4.71399e-06)
(0.000439316 -0.000363683 -3.83612e-06)
(0.000351842 -0.000298401 -3.07243e-06)
(0.000276406 -0.00024048 -2.41383e-06)
(0.000212057 -0.00018888 -1.85199e-06)
(0.000157915 -0.000142815 -1.37926e-06)
(0.000113169 -0.000101797 -9.8854e-07)
(7.7061e-05 -6.57377e-05 -6.73225e-07)
(4.88818e-05 -3.50737e-05 -4.27127e-07)
(2.78831e-05 -1.08592e-05 -2.43714e-07)
(1.33271e-05 5.32725e-06 -1.16548e-07)
(4.27001e-06 1.17099e-05 -3.74251e-08)
(1.20262e-07 7.29355e-06 -1.6774e-09)
(0.00813594 -0.011882 -7.10137e-05)
(0.00778682 -0.0107477 -6.79672e-05)
(0.0074001 -0.00967283 -6.45925e-05)
(0.00698446 -0.00866327 -6.09652e-05)
(0.00654851 -0.00772304 -5.71606e-05)
(0.00610038 -0.00685439 -5.32496e-05)
(0.00564766 -0.00605801 -4.92985e-05)
(0.00519713 -0.00533319 -4.53663e-05)
(0.00475468 -0.00467797 -4.15046e-05)
(0.00432529 -0.00408944 -3.77567e-05)
(0.00391297 -0.00356394 -3.41579e-05)
(0.00352084 -0.00309727 -3.07352e-05)
(0.00315114 -0.00268489 -2.75082e-05)
(0.00280533 -0.00232209 -2.44897e-05)
(0.00248421 -0.00200414 -2.16867e-05)
(0.002188 -0.00172643 -1.91011e-05)
(0.00191647 -0.00148454 -1.6731e-05)
(0.00166898 -0.00127429 -1.45706e-05)
(0.0014446 -0.0010918 -1.26119e-05)
(0.00124223 -0.000933522 -1.08453e-05)
(0.0010606 -0.00079624 -9.25982e-06)
(0.000898425 -0.000677099 -7.8441e-06)
(0.000754322 -0.000573517 -6.58612e-06)
(0.000626956 -0.000483248 -5.47424e-06)
(0.000515038 -0.000404332 -4.49719e-06)
(0.000417326 -0.000335064 -3.64413e-06)
(0.000332662 -0.000273986 -2.90497e-06)
(0.000259955 -0.000219861 -2.27019e-06)
(0.000198217 -0.000171684 -1.73115e-06)
(0.000146546 -0.000128704 -1.27999e-06)
(0.00010411 -9.04621e-05 -9.0943e-07)
(7.01353e-05 -5.68949e-05 -6.1274e-07)
(4.38937e-05 -2.84485e-05 -3.83556e-07)
(2.4612e-05 -6.17578e-06 -2.15134e-07)
(1.15052e-05 8.35547e-06 -1.00622e-07)
(3.57125e-06 1.337e-05 -3.13032e-08)
(7.8235e-08 7.81808e-06 -1.19565e-09)
(0.00856061 -0.0120181 -7.47209e-05)
(0.00815182 -0.010814 -7.11536e-05)
(0.00770756 -0.00968136 -6.72766e-05)
(0.00723767 -0.00862534 -6.31758e-05)
(0.00675159 -0.00764903 -5.89336e-05)
(0.0062581 -0.00675359 -5.46266e-05)
(0.0057651 -0.00593853 -5.0324e-05)
(0.00527952 -0.00520193 -4.60858e-05)
(0.00480721 -0.00454066 -4.19633e-05)
(0.0043529 -0.0039507 -3.7998e-05)
(0.0039203 -0.00342737 -3.42221e-05)
(0.0035121 -0.00296558 -3.06591e-05)
(0.00313007 -0.00256 -2.73245e-05)
(0.00277522 -0.00220528 -2.4227e-05)
(0.00244784 -0.00189617 -2.13694e-05)
(0.00214772 -0.00162762 -1.87496e-05)
(0.00187419 -0.00139491 -1.63619e-05)
(0.00162621 -0.00119361 -1.41973e-05)
(0.00140255 -0.00101967 -1.22449e-05)
(0.00120179 -0.000869441 -1.04923e-05)
(0.00102243 -0.000739646 -8.92659e-06)
(0.000862964 -0.000627398 -7.53453e-06)
(0.000721853 -0.000530115 -6.30267e-06)
(0.000597628 -0.000445568 -5.21819e-06)
(0.000488894 -0.000371826 -4.26894e-06)
(0.000394332 -0.000307222 -3.44338e-06)
(0.000312727 -0.00025034 -2.73093e-06)
(0.000242948 -0.000199985 -2.1217e-06)
(0.000183979 -0.000155195 -1.60683e-06)
(0.000134899 -0.000115256 -1.17828e-06)
(9.48629e-05 -7.97421e-05 -8.2868e-07)
(6.30882e-05 -4.86125e-05 -5.51194e-07)
(3.88311e-05 -2.23235e-05 -3.39334e-07)
(2.1298e-05 -1.92317e-06 -1.86178e-07)
(9.66109e-06 1.10367e-05 -8.45001e-08)
(2.86329e-06 1.47899e-05 -2.51007e-08)
(3.50563e-08 8.24507e-06 -7.02095e-10)
(0.00899313 -0.0121215 -7.84967e-05)
(0.00851767 -0.0108466 -7.43475e-05)
(0.00801018 -0.00965674 -6.99185e-05)
(0.00748154 -0.00855585 -6.5305e-05)
(0.00694206 -0.00754584 -6.05967e-05)
(0.00640098 -0.00662651 -5.58742e-05)
(0.00586644 -0.00579594 -5.12089e-05)
(0.00534534 -0.0050508 -4.66607e-05)
(0.00484332 -0.00438663 -4.22788e-05)
(0.00436475 -0.00379819 -3.81017e-05)
(0.00391286 -0.00327972 -3.41573e-05)
(0.0034898 -0.00282518 -3.04646e-05)
(0.0030968 -0.00242845 -2.70342e-05)
(0.00273429 -0.00208355 -2.38699e-05)
(0.00240204 -0.0017847 -2.09696e-05)
(0.0020993 -0.00152648 -1.8327e-05)
(0.00182498 -0.00130386 -1.59325e-05)
(0.00157764 -0.00111222 -1.37733e-05)
(0.00135568 -0.000947368 -1.18358e-05)
(0.0011574 -0.000805584 -1.01049e-05)
(0.000981054 -0.000683552 -8.56542e-06)
(0.000824943 -0.000578381 -7.20262e-06)
(0.000687364 -0.00048751 -6.00158e-06)
(0.000566728 -0.000408744 -4.94843e-06)
(0.000461548 -0.000340196 -4.03019e-06)
(0.000370436 -0.000280248 -3.23475e-06)
(0.00029213 -0.000227533 -2.55109e-06)
(0.000225466 -0.000180907 -1.96906e-06)
(0.000169411 -0.000139454 -1.47963e-06)
(0.00012303 -0.000102502 -1.07465e-06)
(8.54751e-05 -6.96583e-05 -7.46699e-07)
(5.59565e-05 -4.09054e-05 -4.88908e-07)
(3.37212e-05 -1.67085e-05 -2.94698e-07)
(1.79596e-05 1.8925e-06 -1.57008e-07)
(7.80528e-06 1.33673e-05 -6.82764e-08)
(2.15034e-06 1.59675e-05 -1.88543e-08)
(-9.00988e-09 8.57342e-06 -1.99751e-10)
(0.00942938 -0.0121858 -8.2305e-05)
(0.00887994 -0.0108402 -7.75101e-05)
(0.00830337 -0.00959447 -7.24782e-05)
(0.00771168 -0.00845128 -6.73143e-05)
(0.0071158 -0.00741087 -6.21137e-05)
(0.00652534 -0.00647135 -5.69602e-05)
(0.00594846 -0.0056291 -5.19253e-05)
(0.00539188 -0.0048792 -4.70672e-05)
(0.00486078 -0.0042157 -4.24316e-05)
(0.00435905 -0.00363205 -3.80522e-05)
(0.00388926 -0.00312132 -3.39516e-05)
(0.00345292 -0.00267653 -3.01429e-05)
(0.00305059 -0.00229078 -2.6631e-05)
(0.00268205 -0.00195744 -2.3414e-05)
(0.00234648 -0.00167028 -2.04847e-05)
(0.00204259 -0.00142351 -1.78321e-05)
(0.00176882 -0.00121186 -1.54422e-05)
(0.00152329 -0.00103053 -1.32989e-05)
(0.00130408 -0.000875255 -1.13853e-05)
(0.00110918 -0.000742255 -9.68389e-06)
(0.000936616 -0.000628213 -8.17749e-06)
(0.000784506 -0.00053026 -6.8496e-06)
(0.000650998 -0.000445876 -5.68409e-06)
(0.000534394 -0.000372917 -4.66615e-06)
(0.000433126 -0.000309554 -3.78206e-06)
(0.000345752 -0.000254229 -3.01924e-06)
(0.000270971 -0.000205633 -2.36635e-06)
(0.000207598 -0.000162678 -1.81305e-06)
(0.000154588 -0.0001245 -1.3502e-06)
(0.000111005 -9.04693e-05 -9.6964e-07)
(7.59983e-05 -6.02293e-05 -6.63939e-07)
(4.87805e-05 -3.37859e-05 -4.26234e-07)
(2.85936e-05 -1.16108e-05 -2.49907e-07)
(1.46169e-05 5.26745e-06 -1.27799e-07)
(5.94944e-06 1.53456e-05 -5.20522e-08)
(1.43702e-06 1.6902e-05 -1.26047e-08)
(-5.36544e-08 8.80263e-06 3.07904e-10)
(0.00986397 -0.0122039 -8.6099e-05)
(0.00923302 -0.0107887 -8.05926e-05)
(0.00858173 -0.00948991 -7.49086e-05)
(0.00792296 -0.00830815 -6.9159e-05)
(0.00726819 -0.00724167 -6.34444e-05)
(0.00662711 -0.00628651 -5.7849e-05)
(0.00600772 -0.00543714 -5.2443e-05)
(0.00541625 -0.0046868 -4.72804e-05)
(0.00485731 -0.00402795 -4.24015e-05)
(0.00433401 -0.00345261 -3.78338e-05)
(0.00384817 -0.00295271 -3.35931e-05)
(0.0034005 -0.00252027 -2.96854e-05)
(0.00299078 -0.00214765 -2.6109e-05)
(0.00261809 -0.00182763 -2.28558e-05)
(0.00228096 -0.00155354 -1.99129e-05)
(0.00197752 -0.00131929 -1.72641e-05)
(0.00170572 -0.00111941 -1.48914e-05)
(0.00146326 -0.000948992 -1.27749e-05)
(0.00124788 -0.000803706 -1.08947e-05)
(0.00105729 -0.00067977 -9.2309e-06)
(0.00088929 -0.000573893 -7.76434e-06)
(0.000741828 -0.000483249 -6.47703e-06)
(0.000612924 -0.000405385 -5.3517e-06)
(0.000500784 -0.000338225 -4.37272e-06)
(0.000403775 -0.000280008 -3.5258e-06)
(0.000320411 -0.000229248 -2.79799e-06)
(0.000249365 -0.000184703 -2.17771e-06)
(0.000189443 -0.000145345 -1.65453e-06)
(0.000139596 -0.000110365 -1.21929e-06)
(9.88923e-05 -7.91809e-05 -8.63867e-07)
(6.64885e-05 -5.14706e-05 -5.80891e-07)
(4.16039e-05 -2.72631e-05 -3.63554e-07)
(2.34809e-05 -7.03498e-06 -2.05245e-07)
(1.12918e-05 8.2004e-06 -9.87453e-08)
(4.10634e-06 1.69721e-05 -3.59391e-08)
(7.28525e-07 1.75943e-05 -6.39732e-09)
(-9.85113e-08 8.9329e-06 8.16795e-10)
(0.0102902 -0.0121679 -8.98202e-05)
(0.00957025 -0.010686 -8.35368e-05)
(0.0088388 -0.00933838 -7.71531e-05)
(0.00810951 -0.00812313 -7.0788e-05)
(0.00739402 -0.00703602 -6.45432e-05)
(0.00670187 -0.00607074 -5.8502e-05)
(0.00604052 -0.00521952 -5.27297e-05)
(0.00541552 -0.00447361 -4.72743e-05)
(0.00483058 -0.00382375 -4.21686e-05)
(0.0042879 -0.00326051 -3.74317e-05)
(0.00378834 -0.00277463 -3.3071e-05)
(0.00333168 -0.00235721 -2.90849e-05)
(0.00291685 -0.00199987 -2.54637e-05)
(0.00254213 -0.00169487 -2.21927e-05)
(0.00220536 -0.00143518 -1.9253e-05)
(0.00190411 -0.00121444 -1.66233e-05)
(0.00163579 -0.00102707 -1.4281e-05)
(0.00139773 -0.000868069 -1.22028e-05)
(0.00118729 -0.000733117 -1.03658e-05)
(0.00100195 -0.000618457 -8.74779e-06)
(0.000839296 -0.000520857 -7.32789e-06)
(0.000697123 -0.000437565 -6.08675e-06)
(0.000573342 -0.000366211 -5.00614e-06)
(0.000466082 -0.000304802 -4.06975e-06)
(0.000373658 -0.000251663 -3.26286e-06)
(0.000294557 -0.000205386 -2.57226e-06)
(0.000227439 -0.000164802 -1.98626e-06)
(0.000171109 -0.000128951 -1.49444e-06)
(0.000124525 -9.70813e-05 -1.08769e-06)
(8.67674e-05 -6.86571e-05 -7.57987e-07)
(5.70066e-05 -4.33942e-05 -4.98084e-07)
(3.44743e-05 -2.13428e-05 -3.01283e-07)
(1.8418e-05 -2.98232e-06 -1.61018e-07)
(8.0082e-06 1.06928e-05 -7.00533e-08)
(2.28992e-06 1.82496e-05 -2.00591e-08)
(3.05523e-08 1.8047e-05 -2.82016e-10)
(-1.43153e-07 8.96518e-06 1.3222e-09)
(0.0106994 -0.0120697 -9.33931e-05)
(0.00988334 -0.010526 -8.62705e-05)
(0.00906712 -0.00913539 -7.91467e-05)
(0.00826468 -0.00789319 -7.21431e-05)
(0.00748761 -0.00679216 -6.53608e-05)
(0.00674485 -0.00582322 -5.88777e-05)
(0.00604304 -0.00497613 -5.27522e-05)
(0.00538668 -0.00424003 -4.7023e-05)
(0.00477836 -0.00360384 -4.1713e-05)
(0.00421911 -0.00305668 -3.68314e-05)
(0.00370867 -0.00258811 -3.23758e-05)
(0.00324577 -0.00218837 -2.83351e-05)
(0.0028284 -0.00184841 -2.46918e-05)
(0.00245401 -0.00156006 -2.14236e-05)
(0.00211972 -0.00131598 -1.85055e-05)
(0.00182249 -0.00110966 -1.59109e-05)
(0.00155926 -0.000935414 -1.36129e-05)
(0.00132693 -0.000788256 -1.15848e-05)
(0.00112258 -0.000663895 -9.80093e-06)
(0.000943433 -0.00055865 -8.23698e-06)
(0.000786901 -0.000469376 -6.87048e-06)
(0.000650642 -0.000393422 -5.68096e-06)
(0.000532482 -0.000328519 -4.64941e-06)
(0.000430494 -0.000272779 -3.75904e-06)
(0.000342959 -0.000224618 -2.99483e-06)
(0.000268351 -0.000182716 -2.34345e-06)
(0.00020533 -0.000145986 -1.79323e-06)
(0.000152713 -0.000113535 -1.33382e-06)
(0.000109474 -8.46731e-05 -9.56268e-07)
(7.4712e-05 -5.89134e-05 -6.52712e-07)
(4.76182e-05 -3.6008e-05 -4.16093e-07)
(2.74425e-05 -1.60272e-05 -2.39866e-07)
(1.34428e-05 5.4896e-07 -1.17556e-07)
(4.79188e-06 1.2749e-05 -4.19486e-08)
(5.15318e-07 1.91834e-05 -4.54453e-09)
(-6.50597e-07 1.82645e-05 5.68596e-09)
(-1.87075e-07 8.90128e-06 1.81864e-09)
(0.0110817 -0.0119009 -9.67309e-05)
(0.010163 -0.0103023 -8.87122e-05)
(0.00925815 -0.00887674 -8.0815e-05)
(0.00838114 -0.0076158 -7.31604e-05)
(0.00754281 -0.00650884 -6.58432e-05)
(0.00675111 -0.00554368 -5.89329e-05)
(0.00601141 -0.00470742 -5.24765e-05)
(0.00532683 -0.00398695 -4.65009e-05)
(0.00469854 -0.00336937 -4.10165e-05)
(0.00412619 -0.00284236 -3.60205e-05)
(0.00360824 -0.00239441 -3.14992e-05)
(0.00314227 -0.00201495 -2.74317e-05)
(0.00272524 -0.00169439 -2.37914e-05)
(0.00235376 -0.00142419 -2.05485e-05)
(0.0020242 -0.00119682 -1.76717e-05)
(0.00173295 -0.00100568 -1.51292e-05)
(0.00147644 -0.000845071 -1.289e-05)
(0.00125124 -0.000710064 -1.0924e-05)
(0.00105411 -0.000596459 -9.20321e-06)
(0.000882087 -0.000500683 -7.70143e-06)
(0.000732423 -0.000419715 -6.39488e-06)
(0.000602676 -0.000351027 -5.26219e-06)
(0.000490607 -0.000292474 -4.28381e-06)
(0.000394252 -0.000242278 -3.44262e-06)
(0.000311881 -0.000198964 -2.72349e-06)
(0.00024197 -0.000161307 -2.11311e-06)
(0.000183192 -0.0001283 -1.59993e-06)
(0.000134385 -9.91285e-05 -1.17378e-06)
(9.45502e-05 -7.31608e-05 -8.25951e-07)
(6.28138e-05 -4.99607e-05 -5.48809e-07)
(3.83937e-05 -2.93156e-05 -3.35532e-07)
(2.05633e-05 -1.13148e-05 -1.7978e-07)
(8.59556e-06 3.56419e-06 -7.52113e-08)
(1.67047e-06 1.43765e-05 -1.46727e-08)
(-1.2011e-06 1.97816e-05 1.04616e-08)
(-1.30804e-06 1.82535e-05 1.14463e-08)
(-2.29695e-07 8.74394e-06 2.2998e-09)
(0.0114242 -0.0116533 -9.97213e-05)
(0.0103978 -0.0100094 -9.07624e-05)
(0.00940227 -0.00855895 -8.20738e-05)
(0.00845082 -0.00728921 -7.37693e-05)
(0.00755313 -0.0061856 -6.59339e-05)
(0.00671557 -0.00523258 -5.86232e-05)
(0.00594182 -0.00441444 -5.18694e-05)
(0.00523321 -0.00371578 -4.5684e-05)
(0.00458923 -0.00312191 -4.00627e-05)
(0.00400795 -0.00261917 -3.49886e-05)
(0.0034864 -0.00219508 -3.04359e-05)
(0.00302092 -0.00183837 -2.63725e-05)
(0.00260742 -0.00153906 -2.27629e-05)
(0.0022416 -0.00128836 -1.95695e-05)
(0.00191916 -0.00107863 -1.67548e-05)
(0.00163589 -0.000903278 -1.42819e-05)
(0.00138779 -0.00075668 -1.21161e-05)
(0.00117109 -0.000634016 -1.02243e-05)
(0.000982312 -0.000531225 -8.57638e-06)
(0.00081831 -0.000444888 -7.14465e-06)
(0.000676231 -0.000372135 -5.90431e-06)
(0.000553556 -0.000310582 -4.83336e-06)
(0.000448009 -0.000258226 -3.91191e-06)
(0.000357615 -0.000213415 -3.12275e-06)
(0.000280649 -0.000174787 -2.4508e-06)
(0.000215605 -0.000141217 -1.88292e-06)
(0.000161186 -0.000111788 -1.40778e-06)
(0.000116262 -8.57577e-05 -1.01553e-06)
(7.9868e-05 -6.25591e-05 -6.97741e-07)
(5.11665e-05 -4.18045e-05 -4.47095e-07)
(2.94081e-05 -2.3316e-05 -2.57056e-07)
(1.38947e-05 -7.19967e-06 -1.21533e-07)
(3.91942e-06 6.07242e-06 -3.43605e-08)
(-1.32653e-06 1.55862e-05 1.15165e-08)
(-2.84178e-06 2.00551e-05 2.4806e-08)
(-1.93427e-06 1.80226e-05 1.69333e-08)
(-2.70335e-07 8.49694e-06 2.75846e-09)
(0.0117132 -0.0113185 -0.000102244)
(0.0105755 -0.00964211 -9.23152e-05)
(0.00948904 -0.00817937 -8.28321e-05)
(0.00846528 -0.00691258 -7.38963e-05)
(0.00751193 -0.0058229 -6.55749e-05)
(0.00663324 -0.00489123 -5.79051e-05)
(0.00583064 -0.00409898 -5.08994e-05)
(0.00510337 -0.00342854 -4.4551e-05)
(0.00444891 -0.00286352 -3.8838e-05)
(0.00386357 -0.00238908 -3.37284e-05)
(0.00334284 -0.00199191 -2.91829e-05)
(0.00288178 -0.00166025 -2.51581e-05)
(0.00247522 -0.00138383 -2.1609e-05)
(0.002118 -0.00115375 -1.84906e-05)
(0.00180514 -0.000962396 -1.57594e-05)
(0.00153189 -0.000803272 -1.3374e-05)
(0.00129388 -0.000670899 -1.12963e-05)
(0.00108703 -0.000560635 -9.49055e-06)
(0.000907694 -0.000468609 -7.92496e-06)
(0.000752574 -0.000391588 -6.57077e-06)
(0.000618748 -0.000326882 -5.40247e-06)
(0.000503657 -0.000272275 -4.39771e-06)
(0.000405017 -0.000225917 -3.53657e-06)
(0.000320867 -0.000186292 -2.80191e-06)
(0.000249506 -0.000152159 -2.17889e-06)
(0.000189466 -0.000122498 -1.65469e-06)
(0.000139489 -9.64801e-05 -1.21833e-06)
(9.84904e-05 -7.34413e-05 -8.60352e-07)
(6.55494e-05 -5.28762e-05 -5.72705e-07)
(3.98695e-05 -3.44451e-05 -3.48438e-07)
(2.07406e-05 -1.80035e-05 -1.81357e-07)
(7.49826e-06 -3.67169e-06 -6.56625e-08)
(-5.40151e-07 8.08663e-06 4.59924e-09)
(-4.16791e-06 1.63922e-05 3.63463e-08)
(-4.38806e-06 2.00176e-05 3.83253e-08)
(-2.52122e-06 1.75828e-05 2.20762e-08)
(-3.08225e-07 8.16515e-06 3.18639e-09)
(0.0119309 -0.0108903 -0.000104146)
(0.0106818 -0.00919705 -9.32439e-05)
(0.00950704 -0.00773687 -8.29901e-05)
(0.00841563 -0.00648646 -7.34636e-05)
(0.00741262 -0.00542239 -6.47086e-05)
(0.00649939 -0.00452194 -5.67372e-05)
(0.00567473 -0.00376367 -4.95388e-05)
(0.00493534 -0.0031279 -4.30845e-05)
(0.00427653 -0.00259677 -3.73334e-05)
(0.00369267 -0.00215444 -3.22367e-05)
(0.00317768 -0.001787 -2.77412e-05)
(0.00272528 -0.00148238 -2.3792e-05)
(0.00232928 -0.0012302 -2.0335e-05)
(0.00198368 -0.00102162 -1.73181e-05)
(0.00168289 -0.000849146 -1.46923e-05)
(0.00142171 -0.000706485 -1.24122e-05)
(0.00119542 -0.000588384 -1.04368e-05)
(0.000999743 -0.000490439 -8.72853e-06)
(0.000830866 -0.000409011 -7.25424e-06)
(0.000685422 -0.00034109 -5.98451e-06)
(0.000560452 -0.00028419 -4.89352e-06)
(0.000453395 -0.00023628 -3.9589e-06)
(0.000361992 -0.000195673 -3.16092e-06)
(0.000284316 -0.000161 -2.48279e-06)
(0.000218716 -0.000131143 -1.91006e-06)
(0.000163774 -0.000105189 -1.43036e-06)
(0.000118288 -8.24011e-05 -1.03321e-06)
(8.12274e-05 -6.21905e-05 -7.09609e-07)
(5.17231e-05 -4.41132e-05 -4.51965e-07)
(2.90274e-05 -2.78765e-05 -2.53753e-07)
(1.24747e-05 -1.33668e-05 -1.09163e-07)
(1.43843e-06 -7.15982e-07 -1.27306e-08)
(-4.73552e-06 9.62396e-06 4.12516e-08)
(-6.82092e-06 1.68126e-05 5.95306e-08)
(-5.82027e-06 1.96861e-05 5.08476e-08)
(-3.06022e-06 1.69476e-05 2.67992e-08)
(-3.42487e-07 7.75468e-06 3.57439e-09)
(0.0120602 -0.0103627 -0.000105276)
(0.0107022 -0.00867211 -9.34234e-05)
(0.0094448 -0.0072319 -8.24477e-05)
(0.00829329 -0.00601292 -7.23964e-05)
(0.00724901 -0.00498709 -6.3281e-05)
(0.00630991 -0.00412813 -5.50836e-05)
(0.00547153 -0.00341201 -4.77654e-05)
(0.00472782 -0.00281721 -4.12733e-05)
(0.00407165 -0.0023247 -3.55453e-05)
(0.00349545 -0.00191794 -3.05153e-05)
(0.0029915 -0.00158266 -2.61161e-05)
(0.00255227 -0.00130671 -2.22817e-05)
(0.00217055 -0.00107979 -1.89495e-05)
(0.00183966 -0.000893274 -1.60608e-05)
(0.00155343 -0.000739925 -1.35621e-05)
(0.00130629 -0.000613745 -1.14047e-05)
(0.0010933 -0.000509781 -9.54528e-06)