/*--------------------------------*- C++ -*----------------------------------*\
| =========                 |                                                 |
| \\      /  F ield         | OpenFOAM: The Open Source CFD Toolbox           |
|  \\    /   O peration     | Version:  v2012                                 |
|   \\  /    A nd           | Website:  www.openfoam.com                      |
|    \\/     M anipulation  |                                                 |
\*---------------------------------------------------------------------------*/
FoamFile
{
    version     2.0;
    format      ascii;
    class       volScalarField;
    location    "0.35";
    object      alpha.water;
}
// * * * * * * * * * * * * * * * * * * * * * * * * * * * * * * * * * * * * * //

dimensions      [0 0 0 0 0 0 0];


internalField   nonuniform List<scalar> 
3338
(
-5.34086e-90
-2.70787e-91
-1.01456e-92
-3.0118e-94
-8.14666e-96
-2.27335e-97
-6.08425e-99
-1.31635e-100
-2.06814e-102
-2.25326e-104
-1.66688e-106
-8.26254e-109
-2.71508e-111
-5.84672e-114
-8.13446e-117
-7.17414e-120
-3.90153e-123
-1.25311e-126
-2.21001e-130
-1.86062e-134
-5.30227e-139
-7.33079e-89
-3.74537e-90
-1.40031e-91
-4.00365e-93
-9.65715e-95
-2.27071e-96
-5.3818e-98
-1.11634e-99
-1.75699e-101
-1.9528e-103
-1.48471e-105
-7.58709e-108
-2.57211e-110
-5.70856e-113
-8.16467e-116
-7.37281e-119
-4.08351e-122
-1.32697e-125
-2.34885e-129
-1.96183e-133
-5.37635e-138
-9.97967e-88
-5.15041e-89
-1.93703e-90
-5.46266e-92
-1.2298e-93
-2.49328e-95
-5.06076e-97
-9.6926e-99
-1.50052e-100
-1.69007e-102
-1.31817e-104
-6.94457e-107
-2.43106e-109
-5.56839e-112
-8.19995e-115
-7.59258e-118
-4.28657e-121
-1.40871e-124
-2.495e-128
-2.05016e-132
-5.25217e-137
-1.34664e-86
-7.03028e-88
-2.67179e-89
-7.53971e-91
-1.64189e-92
-2.99801e-94
-5.18322e-96
-8.79407e-98
-1.30067e-99
-1.4661e-101
-1.16793e-103
-6.33708e-106
-2.29168e-108
-5.42342e-111
-8.23529e-114
-7.83143e-117
-4.51307e-120
-1.50074e-123
-2.65655e-127
-2.13967e-131
-5.17075e-136
-1.80042e-85
-9.51605e-87
-3.66375e-88
-1.04312e-89
-2.24967e-91
-3.86816e-93
-5.85129e-95
-8.5541e-97
-1.16272e-98
-1.28373e-100
-1.03547e-102
-5.76971e-105
-2.15451e-107
-5.27196e-110
-8.26577e-113
-8.08614e-116
-4.76417e-119
-1.60491e-122
-2.83964e-126
-2.23851e-130
-5.11832e-135
-2.38417e-84
-1.27647e-85
-4.98591e-87
-1.4388e-88
-3.11657e-90
-5.22087e-92
-7.2203e-94
-9.11952e-96
-1.09682e-97
-1.14855e-99
-9.23412e-102
-5.25156e-104
-2.0212e-106
-5.11407e-109
-8.28782e-112
-8.35385e-115
-5.04132e-118
-1.72342e-121
-3.05154e-125
-2.35496e-129
-5.08015e-134
-3.12618e-83
-1.69603e-84
-6.72657e-86
-1.97237e-87
-4.32519e-89
-7.21604e-91
-9.51568e-93
-1.07201e-94
-1.12007e-96
-1.07027e-98
-8.36142e-101
-4.79746e-103
-1.89479e-105
-4.95207e-108
-8.29954e-111
-8.63184e-114
-5.3458e-117
-1.85861e-120
-3.30031e-124
-2.49809e-128
-5.08427e-133
-4.0578e-82
-2.23134e-83
-8.99023e-85
-2.68233e-86
-5.98078e-88
-1.00666e-89
-1.30536e-91
-1.36982e-93
-1.25955e-95
-1.06482e-97
-7.80803e-100
-4.43118e-102
-1.78045e-104
-4.79174e-107
-8.30198e-110
-8.91818e-113
-5.67876e-116
-2.01291e-119
-3.5948e-123
-2.67748e-127
-5.15869e-132
-5.21263e-81
-2.90584e-82
-1.18976e-83
-3.61485e-85
-8.21466e-87
-1.40498e-88
-1.82653e-90
-1.85456e-92
-1.55624e-94
-1.15732e-96
-7.68807e-99
-4.19069e-101
-1.6868e-103
-4.64439e-106
-8.3015e-109
-9.21318e-112
-6.04161e-115
-2.18892e-118
-3.94484e-122
-2.90369e-126
-5.32523e-131
-6.6253e-80
-3.7448e-81
-1.55844e-82
-4.82399e-84
-1.11871e-85
-1.95185e-87
-2.57256e-89
-2.59501e-91
-2.07031e-93
-1.3862e-95
-8.18098e-98
-4.1365e-100
-1.6279e-102
-4.53052e-105
-8.3139e-108
-9.52222e-111
-6.43694e-114
-2.38951e-117
-4.36148e-121
-3.18867e-125
-5.60548e-130
-8.32968e-79
-4.77438e-80
-2.01985e-81
-6.37145e-83
-1.50893e-84
-2.69124e-86
-3.61826e-88
-3.68496e-90
-2.8878e-92
-1.80888e-94
-9.56426e-97
-4.3646e-99
-1.62679e-101
-4.48589e-104
-8.37157e-107
-9.86086e-110
-6.8705e-113
-2.61823e-116
-4.85766e-120
-3.54665e-124
-6.02358e-129
-1.03566e-77
-6.02032e-79
-2.58946e-80
-8.32542e-82
-2.01429e-83
-3.67661e-85
-5.05895e-87
-5.24951e-89
-4.12888e-91
-2.50927e-93
-1.22599e-95
-5.02594e-98
-1.72089e-100
-4.57182e-103
-8.53604e-106
-1.02642e-108
-7.35507e-112
-2.88011e-115
-5.44914e-119
-3.99513e-123
-6.61101e-128
-1.27308e-76
-7.50619e-78
-3.28273e-79
-1.07586e-80
-2.65983e-82
-4.97138e-84
-7.01317e-86
-7.45181e-88
-5.95781e-90
-3.60739e-92
-1.68983e-94
-6.35509e-97
-1.97067e-99
-4.89217e-102
-8.91959e-105
-1.08039e-107
-7.91797e-111
-3.18332e-114
-6.15643e-118
-4.55622e-122
-7.40983e-127
-1.54679e-75
-9.25121e-77
-4.11406e-78
-1.3745e-79
-3.47277e-81
-6.64863e-83
-9.6248e-85
-1.04998e-86
-8.59422e-89
-5.27154e-91
-2.44047e-93
-8.7115e-96
-2.47275e-98
-5.62097e-101
-9.72232e-104
-1.16187e-106
-8.61548e-110
-3.54273e-113
-7.00888e-117
-5.25901e-121
-8.47725e-126
-1.85706e-74
-1.12677e-75
-5.09551e-77
-1.73554e-78
-4.48153e-80
-8.78988e-82
-1.30638e-83
-1.46522e-85
-1.23253e-87
-7.73271e-90
-3.61107e-92
-1.26371e-94
-3.37967e-97
-7.04631e-100
-1.12946e-102
-1.29685e-105
-9.55997e-109
-3.98693e-112
-8.05327e-116
-6.14399e-120
-9.89213e-125
-2.20249e-73
-1.35583e-74
-6.23531e-76
-2.16517e-77
-5.71419e-79
-1.14826e-80
-1.75245e-82
-2.02224e-84
-1.75179e-86
-1.13012e-88
-5.38956e-91
-1.89348e-93
-4.92847e-96
-9.63868e-99
-1.42402e-101
-1.53303e-104
-1.09704e-107
-4.57227e-111
-9.37166e-115
-7.27196e-119
-1.1767e-123
-2.5797e-72
-1.61131e-73
-7.53616e-75
-2.66795e-76
-7.19637e-78
-1.48161e-79
-2.3222e-81
-2.75793e-83
-2.46286e-85
-1.63843e-87
-8.03562e-90
-2.87713e-92
-7.4814e-95
-1.41546e-97
-1.95838e-100
-1.95614e-103
-1.32645e-106
-5.4101e-110
-1.11185e-113
-8.74288e-118
-1.42701e-122
-2.983e-71
-1.8907e-72
-8.99353e-74
-3.24603e-75
-8.94865e-77
-1.88757e-78
-3.03833e-80
-3.71427e-82
-3.42104e-84
-2.35037e-86
-1.19001e-88
-4.38075e-91
-1.15818e-93
-2.17899e-96
-2.90349e-99
-2.71768e-102
-1.72251e-105
-6.71915e-109
-1.3596e-112
-1.07358e-116
-1.76716e-121
-3.4043e-70
-2.18978e-71
-1.0594e-72
-3.89833e-74
-1.09835e-75
-2.37353e-77
-3.92349e-79
-4.93714e-81
-4.69116e-83
-3.33097e-85
-1.74458e-87
-6.6357e-90
-1.8028e-92
-3.43996e-95
-4.53964e-98
-4.08063e-101
-2.42933e-104
-8.92405e-108
-1.74064e-111
-1.35932e-115
-2.24398e-120
-3.83304e-69
-2.50246e-70
-1.23139e-71
-4.61965e-73
-1.33019e-74
-2.94478e-76
-4.9986e-78
-6.4743e-80
-6.34654e-82
-4.65889e-84
-2.52673e-86
-9.95665e-89
-2.79683e-91
-5.48036e-94
-7.31758e-97
-6.4931e-100
-3.70736e-103
-1.28374e-106
-2.37514e-110
-1.79988e-114
-2.9453e-119
-4.25646e-68
-2.8208e-69
-1.41185e-70
-5.40002e-72
-1.58901e-73
-3.60345e-75
-6.2805e-77
-8.37226e-79
-8.46653e-81
-6.42611e-83
-3.61069e-85
-1.47608e-87
-4.30156e-90
-8.71963e-93
-1.19475e-95
-1.07038e-98
-6.01866e-102
-1.99888e-105
-3.50145e-109
-2.53449e-113
-4.0458e-118
-4.65996e-67
-3.13517e-68
-1.5962e-69
-6.22422e-71
-1.87164e-72
-4.34747e-74
-7.77942e-76
-1.0672e-77
-1.11323e-79
-8.73591e-82
-5.08619e-84
-2.15861e-86
-6.53791e-89
-1.37672e-91
-1.9524e-94
-1.79376e-97
-1.01667e-100
-3.32066e-104
-5.58639e-108
-3.84819e-112
-5.90687e-117
-5.02783e-66
-3.43456e-67
-1.77881e-68
-7.07162e-70
-2.17292e-71
-5.16945e-73
-9.49599e-75
-1.3404e-76
-1.44205e-78
-1.16987e-80
-7.05769e-83
-3.11047e-85
-9.80032e-88
-2.14868e-90
-3.1695e-93
-3.01551e-96
-1.75196e-99
-5.76177e-103
-9.53008e-107
-6.32134e-111
-9.29018e-116
-5.3441e-65
-3.7071e-66
-1.95321e-67
-7.91649e-69
-2.48557e-70
-6.05586e-72
-1.14184e-73
-1.65816e-75
-1.83955e-77
-1.54252e-79
-9.6416e-82
-4.41279e-84
-1.44695e-86
-3.30692e-89
-5.08801e-92
-5.04194e-95
-3.03543e-98
-1.02322e-101
-1.70362e-105
-1.11218e-109
-1.58081e-114
-5.59357e-64
-3.94072e-65
-2.11239e-66
-8.72883e-68
-2.80028e-69
-6.98654e-71
-1.35198e-72
-2.01954e-74
-2.3099e-76
-2.00167e-78
-1.29606e-80
-6.15954e-83
-2.10214e-85
-5.01091e-88
-8.05365e-91
-8.33983e-94
-5.23719e-97
-1.83108e-100
-3.12632e-104
-2.05613e-108
-2.88523e-113
-5.76297e-63
-4.12396e-64
-2.24919e-65
-9.47571e-67
-3.10593e-68
-7.93466e-70
-1.57565e-71
-2.42063e-73
-2.85392e-75
-2.55519e-77
-1.71348e-79
-8.45441e-82
-3.00289e-84
-7.46731e-87
-1.25462e-89
-1.36013e-92
-8.9435e-96
-3.26718e-99
-5.79366e-103
-3.91273e-107
-5.54668e-112
-5.84202e-62
-4.24683e-63
-2.35677e-64
-1.01232e-65
-3.39015e-67
-8.86737e-69
-1.80673e-70
-2.85414e-72
-3.46794e-74
-3.20727e-76
-2.22692e-78
-1.14048e-80
-4.21513e-83
-1.09343e-85
-1.92107e-88
-2.18234e-91
-1.50582e-94
-5.7729e-98
-1.07185e-101
-7.53405e-106
-1.1002e-110
-5.82442e-61
-4.30164e-62
-2.42915e-63
-1.06385e-64
-3.63994e-66
-9.74708e-68
-2.03745e-69
-3.30907e-71
-4.14279e-73
-3.9567e-75
-2.8438e-77
-1.51127e-79
-5.81066e-82
-1.57215e-84
-2.8884e-87
-3.43975e-90
-2.49344e-93
-1.0057e-96
-1.96469e-100
-1.44991e-104
-2.21207e-109
-5.70853e-60
-4.28375e-61
-2.46172e-62
-1.09927e-63
-3.84258e-65
-1.05336e-66
-2.25863e-68
-3.77075e-70
-4.86309e-72
-4.79533e-74
-3.56665e-76
-1.96623e-78
-7.86229e-81
-2.21816e-83
-4.26096e-86
-5.31994e-89
-4.05356e-92
-1.72245e-95
-3.55058e-99
-2.76588e-103
-4.44975e-108
-5.49773e-59
-4.19212e-60
-2.45168e-61
-1.11631e-62
-3.98661e-64
-1.11867e-65
-2.46023e-67
-4.22129e-69
-5.60702e-71
-5.70679e-73
-4.3912e-75
-2.51044e-77
-1.04365e-79
-3.06928e-82
-6.16302e-85
-8.06629e-88
-6.4615e-91
-2.89454e-94
-6.30596e-98
-5.20176e-102
-8.87582e-107
-5.20034e-58
-4.02949e-59
-2.39837e-60
-1.11356e-61
-4.06286e-63
-1.16694e-64
-2.63192e-66
-4.64041e-68
-6.34674e-70
-6.66577e-72
-5.30468e-74
-3.14393e-76
-1.35835e-78
-4.16278e-81
-8.73457e-84
-1.19811e-86
-1.00891e-89
-4.76586e-93
-1.09821e-96
-9.61013e-101
-1.74518e-105
-4.82911e-57
-3.80242e-58
-2.30346e-59
-1.09061e-60
-4.06529e-62
-1.19509e-63
-2.76394e-65
-5.00672e-67
-7.04952e-69
-7.63808e-71
-6.28459e-73
-3.86003e-75
-1.73263e-77
-5.5309e-80
-1.21225e-82
-1.74212e-85
-1.5418e-88
-7.6797e-92
-1.8724e-95
-1.73978e-99
-3.36908e-104
-4.40029e-56
-3.52079e-57
-2.17084e-58
-1.04818e-59
-3.99175e-61
-1.20101e-62
-2.84793e-64
-5.29933e-66
-7.67971e-68
-8.5818e-70
-7.29829e-72
-4.64388e-74
-2.16474e-76
-7.19512e-79
-1.64661e-81
-2.47819e-84
-2.30427e-87
-1.20999e-90
-3.1214e-94
-3.08083e-98
-6.36837e-103
-3.93243e-55
-3.19712e-56
-2.00645e-57
-9.88052e-59
-3.84433e-60
-1.18374e-61
-2.87773e-63
-5.49971e-65
-8.20138e-67
-9.4496e-69
-8.30365e-71
-5.47167e-73
-2.64778e-75
-9.15952e-78
-2.18771e-80
-3.44666e-83
-3.36564e-86
-1.86251e-89
-5.08266e-93
-5.32897e-97
-1.17634e-101
-3.44494e-54
-2.84561e-55
-1.81778e-56
-9.12986e-58
-3.62935e-59
-1.14368e-60
-2.85012e-62
-5.59346e-64
-8.5814e-66
-1.01921e-67
-9.25109e-70
-6.31072e-72
-3.16885e-74
-1.14041e-76
-2.84146e-79
-4.6839e-82
-4.8011e-85
-2.79877e-88
-8.07667e-92
-8.99357e-96
-2.12009e-100
-2.95673e-53
-2.48107e-54
-1.6133e-55
-8.26504e-57
-3.35696e-58
-1.08254e-59
-2.76521e-61
-5.57195e-63
-8.79272e-65
-1.07619e-66
-1.00869e-68
-7.12066e-71
-3.70874e-73
-1.3879e-75
-3.60572e-78
-6.2158e-81
-6.68454e-84
-4.10278e-87
-1.25147e-90
-1.47948e-94
-3.72359e-99
-2.48488e-52
-2.11781e-53
-1.40183e-54
-7.32604e-56
-3.04035e-57
-1.0033e-58
-2.62664e-60
-5.43344e-62
-8.81737e-64
-1.11187e-65
-1.07578e-67
-7.85599e-70
-4.2424e-72
-1.65013e-74
-4.46774e-77
-8.05012e-80
-9.07784e-83
-5.86316e-86
-1.88938e-89
-2.37022e-93
-6.36633e-98
-2.04367e-51
-1.76864e-52
-1.19183e-53
-6.35444e-55
-2.69464e-56
-9.0993e-58
-2.44131e-59
-5.18358e-61
-8.64873e-63
-1.12331e-64
-1.12159e-66
-8.46972e-69
-4.74026e-71
-1.91549e-73
-5.40216e-76
-1.01685e-78
-1.20169e-81
-8.16264e-85
-2.77724e-88
-3.69501e-92
-1.05859e-96
-1.64386e-50
-1.44411e-51
-9.90826e-53
-5.39011e-54
-2.33566e-55
-8.07057e-57
-2.21886e-58
-4.8351e-60
-8.29277e-62
-1.1091e-63
-1.14243e-65
-8.91791e-68
-5.17054e-70
-2.1696e-72
-6.37034e-75
-1.25194e-77
-1.5496e-80
-1.10632e-83
-3.97176e-87
-5.60078e-91
-1.71039e-95
-1.2924e-49
-1.152e-50
-8.04918e-52
-4.46837e-53
-1.97864e-54
-6.99586e-56
-1.9708e-57
-4.40683e-59
-7.76794e-61
-1.06951e-62
-1.13616e-64
-9.16452e-67
-5.50224e-69
-2.39633e-71
-7.3214e-74
-1.50141e-76
-1.94525e-79
-1.45874e-82
-5.52225e-86
-8.24802e-90
-2.68302e-94
-9.92467e-49
-8.97114e-50
-6.38519e-51
-3.61773e-52
-1.63711e-53
-5.92274e-55
-1.70949e-56
-3.92194e-58
-7.10366e-60
-1.00662e-61
-1.10249e-63
-9.18594e-66
-5.70856e-68
-2.57922e-70
-8.19547e-73
-1.75273e-75
-2.37552e-78
-1.8699e-81
-7.45919e-85
-1.17919e-88
-4.08279e-93
-7.43931e-48
-6.81404e-49
-4.94249e-50
-2.85856e-51
-1.32201e-52
-4.89374e-54
-1.44709e-55
-3.40583e-57
-6.33759e-59
-9.24061e-61
-1.04313e-62
-8.97438e-65
-5.7703e-67
-2.70339e-69
-8.92894e-72
-1.99032e-74
-2.82007e-77
-2.32854e-80
-9.78104e-84
-1.63536e-87
-6.02201e-92
-5.43919e-47
-5.04323e-48
-3.73022e-49
-2.20269e-50
-1.04113e-51
-3.94336e-53
-1.19454e-54
-2.88383e-56
-5.51202e-58
-8.26753e-60
-9.61624e-62
-8.53957e-64
-5.67855e-66
-2.75733e-68
-9.46136e-71
-2.19686e-73
-3.25204e-76
-2.8148e-79
-1.24411e-82
-2.19832e-86
-8.60227e-91
-3.84308e-46
-3.63329e-47
-2.74284e-48
-1.65388e-49
-7.9898e-51
-3.09636e-52
-9.60818e-54
-2.37902e-55
-4.66983e-57
-7.20362e-59
-8.63065e-61
-7.90826e-63
-5.43637e-65
-2.73459e-67
-9.74315e-70
-2.35514e-72
-3.64004e-75
-3.30037e-78
-1.53377e-81
-2.8619e-85
-1.18906e-89
-2.64192e-45
-2.54763e-46
-1.96341e-47
-1.209e-48
-5.96976e-50
-2.36715e-51
-7.52398e-53
-1.91048e-54
-3.85064e-56
-6.10751e-58
-7.53514e-60
-7.12165e-62
-5.05887e-64
-2.63489e-66
-9.74267e-69
-2.45023e-71
-3.95137e-74
-3.75027e-77
-1.83114e-80
-3.6052e-84
-1.58902e-88
-1.76555e-44
-1.73715e-45
-1.36701e-46
-8.59629e-48
-4.33877e-49
-1.76034e-50
-5.73097e-52
-1.49216e-53
-3.08757e-55
-5.03419e-57
-6.39387e-59
-6.2309e-61
-4.57181e-63
-2.46442e-65
-9.45162e-68
-2.47165e-70
-4.15619e-73
-4.12629e-76
-2.11519e-79
-4.39052e-83
-2.05109e-87
-1.14961e-44
-9.24831e-46
-5.93925e-47
-3.06437e-48
-1.27215e-49
-4.24193e-51
-1.13239e-52
-2.40511e-54
-4.03022e-56
-5.26798e-58
-5.29146e-60
-4.00864e-62
-2.2353e-64
-8.88728e-67
-2.41513e-69
-4.23186e-72
-4.39173e-75
-2.36167e-78
-5.16405e-82
-2.55469e-86
-7.38369e-44
-6.07469e-45
-3.98311e-46
-2.101e-47
-8.92494e-49
-3.04792e-50
-8.34128e-52
-1.81818e-53
-3.13049e-55
-4.20999e-57
-4.35717e-59
-3.40667e-61
-1.96414e-63
-8.09121e-66
-2.28358e-68
-4.1668e-71
-4.51683e-74
-2.5461e-77
-5.85989e-81
-3.0671e-85
-3.86475e-44
-2.58975e-45
-1.39681e-46
-6.07168e-48
-2.12353e-49
-5.95716e-51
-1.3324e-52
-2.35662e-54
-3.25975e-56
-3.47491e-58
-2.8028e-60
-1.67006e-62
-7.12433e-65
-2.08697e-67
-3.96288e-70
-4.4839e-73
-2.64739e-76
-6.40787e-80
-3.54524e-84
-2.3815e-43
-1.63077e-44
-8.9941e-46
-4.00059e-47
-1.43286e-48
-4.11987e-50
-9.4535e-52
-1.71721e-53
-2.44238e-55
-2.68072e-57
-2.22965e-59
-1.37234e-61
-6.05915e-64
-1.84115e-66
-3.63583e-69
-4.2909e-72
-2.65151e-75
-6.74381e-79
-3.94039e-83
-1.41912e-42
-9.93185e-44
-5.60165e-45
-2.54963e-46
-9.35104e-48
-2.7554e-49
-6.48523e-51
-1.20955e-52
-1.76836e-54
-1.99767e-56
-1.71262e-58
-1.08832e-60
-4.9705e-63
-1.56574e-65
-3.21337e-68
-3.95267e-71
-2.55432e-74
-6.82093e-78
-4.20518e-82
-8.16604e-42
-5.84194e-43
-3.36969e-44
-1.56944e-45
-5.89379e-47
-1.77952e-48
-4.29521e-50
-8.223e-52
-1.23535e-53
-1.43579e-55
-1.26817e-57
-8.31616e-60
-3.92658e-62
-1.28145e-64
-2.73136e-67
-3.49924e-70
-2.36299e-73
-6.61944e-77
-4.30208e-81
-4.53066e-41
-3.31359e-42
-1.9548e-43
-9.31612e-45
-3.58188e-46
-1.10797e-47
-2.74188e-49
-5.38657e-51
-8.31242e-53
-9.93542e-55
-9.03684e-57
-6.11189e-59
-2.98166e-61
-1.00748e-63
-2.22867e-66
-2.97157e-69
-2.09525e-72
-6.15213e-76
-4.21123e-80
-2.41957e-40
-1.80934e-41
-1.0917e-42
-5.32341e-44
-2.09524e-45
-6.63851e-47
-1.68387e-48
-3.39343e-50
-5.37688e-52
-6.60607e-54
-6.18422e-56
-4.31127e-58
-2.17173e-60
-7.59245e-63
-1.74186e-65
-2.41531e-68
-1.7768e-71
-5.46387e-75
-3.93576e-79
-1.24147e-39
-9.49294e-41
-5.85815e-42
-2.92254e-43
-1.17731e-44
-3.81976e-46
-9.92758e-48
-2.05146e-49
-3.33597e-51
-4.21068e-53
-4.05458e-55
-2.91169e-57
-1.51344e-59
-5.47049e-62
-1.30063e-64
-1.87411e-67
-1.43725e-70
-4.62494e-74
-3.50269e-78
-6.10749e-39
-4.77568e-40
-3.01403e-41
-1.53813e-42
-6.34022e-44
-2.10575e-45
-5.60532e-47
-1.1871e-48
-1.97998e-50
-2.56582e-52
-2.5396e-54
-1.87725e-56
-1.00606e-58
-3.75685e-61
-9.24909e-64
-1.38378e-66
-1.1054e-69
-3.71919e-73
-2.959e-77
-2.87422e-38
-2.29826e-39
-1.48324e-40
-7.74105e-42
-3.26394e-43
-1.10919e-44
-3.02237e-46
-6.55571e-48
-1.12069e-49
-1.48983e-51
-1.51442e-53
-1.15125e-55
-6.35564e-58
-2.44966e-60
-6.23937e-63
-9.68411e-66
-8.05115e-69
-2.82999e-72
-2.36335e-76
-1.29056e-37
-1.05519e-38
-6.96227e-40
-3.71474e-41
-1.60137e-42
-5.56488e-44
-1.55103e-45
-3.44274e-47
-6.02621e-49
-8.20956e-51
-8.56084e-53
-6.68522e-55
-3.7976e-57
-1.50916e-59
-3.97271e-62
-6.39058e-65
-5.52458e-68
-2.02706e-71
-1.7755e-75
-5.51243e-37
-4.6078e-38
-3.1072e-39
-1.69399e-40
-7.46108e-42
-2.64906e-43
-7.54456e-45
-1.71164e-46
-3.06369e-48
-4.27085e-50
-4.56187e-52
-3.65399e-54
-2.13275e-56
-8.72706e-59
-2.37144e-61
-3.94941e-64
-3.54685e-67
-1.35736e-70
-1.24609e-74
-2.23211e-36
-1.90687e-37
-1.31346e-38
-7.3113e-40
-3.28688e-41
-1.19087e-42
-3.46053e-44
-8.01061e-46
-1.46333e-47
-2.08298e-49
-2.27405e-51
-1.86437e-53
-1.11594e-55
-4.69378e-58
-1.31468e-60
-2.264e-63
-2.11009e-66
-8.41586e-70
-8.0927e-74
-8.53352e-36
-7.44645e-37
-5.23495e-38
-2.97186e-39
-1.3617e-40
-5.0252e-42
-1.48658e-43
-3.50189e-45
-6.50885e-47
-9.42923e-49
-1.04859e-50
-8.7713e-53
-5.36911e-55
-2.31606e-57
-6.67456e-60
-1.18691e-62
-1.14691e-65
-4.76409e-69
-4.79685e-73
-3.06515e-35
-2.72968e-36
-1.95612e-37
-1.13054e-38
-5.26767e-40
-1.97435e-41
-5.92423e-43
-1.41394e-44
-2.66034e-46
-3.89954e-48
-4.39186e-50
-3.72901e-52
-2.32462e-54
-1.02527e-56
-3.03384e-59
-5.5639e-62
-5.57022e-65
-2.40921e-68
-2.54038e-72
-1.02817e-34
-9.33174e-36
-6.8033e-37
-3.99163e-38
-1.88433e-39
-7.1381e-41
-2.15846e-42
-5.17831e-44
-9.7682e-46
-1.43188e-47
-1.61509e-49
-1.37937e-51
-8.6996e-54
-3.90766e-56
-1.18535e-58
-2.24173e-61
-2.32697e-64
-1.04923e-67
-1.1604e-71
-3.19607e-34
-2.94983e-35
-2.18099e-36
-1.29275e-37
-6.14254e-39
-2.33105e-40
-7.01109e-42
-1.66365e-43
-3.0798e-45
-4.38425e-47
-4.82936e-49
-4.07829e-51
-2.57464e-53
-1.17303e-55
-3.65439e-58
-7.16579e-61
-7.76364e-64
-3.67286e-67
-4.28511e-71
-9.11278e-34
-8.52173e-35
-6.35534e-36
-3.77141e-37
-1.78068e-38
-6.64862e-40
-1.92678e-41
-4.34752e-43
-7.40489e-45
-9.18551e-47
-9.15918e-49
-7.46044e-51
-4.64817e-53
-2.15422e-55
-7.04979e-58
-1.48187e-60
-1.73269e-63
-8.84404e-67
-1.1122e-70
-2.34869e-33
-2.21126e-34
-1.6469e-35
-9.6027e-37
-4.37587e-38
-1.5382e-39
-3.85092e-41
-7.16645e-43
-6.91747e-45
2.36201e-72
-5.9912e-59
-1.50548e-61
-5.55737e-64
-1.35047e-56
-1.71558e-58
-7.37228e-61
-1.31786e-63
-8.82575e-67
-1.34074e-70
-5.34866e-33
-5.01005e-34
-3.64971e-35
-1.99722e-36
-8.05767e-38
-2.26779e-39
-1.30769e-41
-1.31561e-52
2.01766e-46
1.01591e-47
2.16657e-49
2.68493e-53
9.54382e-57
-1.13164e-65
2.88331e-76
0
0
-7.49591e-71
-8.49198e-74
-1.03306e-32
-9.3914e-34
-6.33232e-35
-2.78e-36
-5.66997e-38
-6.97693e-48
1.47495e-42
3.84025e-43
3.07626e-44
3.523e-44
1.23294e-44
2.60243e-48
1.13762e-54
3.10429e-58
5.547e-62
5.73559e-66
2.73612e-70
-2.13608e-79
-8.31601e-84
-1.53902e-32
-1.2715e-33
-5.71451e-35
-1.70942e-44
1.13887e-39
1.26363e-39
3.14838e-40
4.9055e-41
9.86349e-41
8.42793e-41
3.52432e-43
3.64664e-48
1.24167e-51
5.04619e-55
1.45872e-58
2.78187e-62
3.06713e-66
1.58276e-70
3.50099e-75
-1.14554e-32
-5.34516e-34
2.73986e-37
4.45736e-37
2.63427e-37
1.34989e-37
3.61649e-38
1.32516e-37
1.4924e-37
1.18551e-39
2.4798e-44
7.6951e-48
4.21817e-51
1.71407e-54
4.97113e-58
9.51091e-62
1.04895e-65
5.40639e-70
1.68683e-73
1.71094e-34
1.70755e-35
2.2147e-34
4.71154e-35
2.58526e-35
1.42328e-35
8.34758e-35
1.40961e-34
1.57557e-36
4.75824e-41
1.52648e-44
1.11298e-47
6.24412e-51
2.60479e-54
7.74268e-58
1.51387e-61
1.7029e-65
8.94515e-70
6.69822e-73
2.89408e-32
3.23843e-33
1.89906e-32
4.27497e-33
2.54982e-33
3.21552e-32
6.98887e-32
1.172e-33
5.38704e-38
1.81093e-41
1.64518e-44
1.20165e-47
6.7965e-51
2.86376e-54
8.58028e-58
1.69352e-61
1.92245e-65
1.02094e-69
1.42505e-72
2.1829e-30
2.6024e-31
1.60997e-30
3.90722e-31
1.21476e-29
2.09742e-29
4.98317e-31
3.30919e-35
1.05933e-38
1.23192e-41
1.13818e-44
8.50836e-48
4.91093e-51
2.09634e-54
6.22644e-58
1.26898e-61
1.46139e-65
7.95935e-70
2.17839e-72
1.63439e-28
2.07145e-29
1.29574e-27
1.07772e-27
3.14684e-27
1.25904e-28
1.36953e-32
3.31239e-36
4.78433e-39
5.68092e-42
5.40158e-45
4.15326e-48
2.43031e-51
1.1802e-54
3.83981e-58
4.32894e-62
5.86184e-66
4.88739e-70
2.50594e-72
1.23246e-26
1.69118e-27
1.2776e-24
3.70999e-25
7.69808e-27
6.86895e-31
3.24857e-34
5.58431e-37
7.99041e-40
9.58028e-43
9.12282e-46
6.91987e-49
2.61281e-51
6.7538e-56
1.4516e-59
8.18261e-64
1.63173e-68
2.54378e-72
2.54009e-72
1.44195e-23
3.83102e-24
1.47887e-23
1.37247e-24
3.89402e-28
7.26014e-32
1.33115e-34
2.39692e-37
3.47398e-40
4.34105e-43
6.29216e-46
4.50571e-49
3.80001e-51
2.22171e-53
6.70446e-57
5.01157e-61
1.37476e-65
5.69276e-71
2.54378e-72
6.54364e-21
1.12343e-21
8.13914e-25
1.10979e-28
3.03376e-31
7.07025e-34
1.45466e-36
2.50234e-39
1.14142e-42
4.88516e-43
1.03559e-45
2.78934e-47
1.61071e-49
3.78116e-51
3.35314e-54
3.4899e-58
1.56264e-62
1.80047e-67
5.69276e-71
3.90246e-20
4.16582e-21
1.88326e-24
5.24967e-28
1.46347e-30
3.45941e-33
7.16465e-36
1.21736e-38
2.40934e-41
1.51155e-42
6.67727e-45
6.2335e-46
3.89306e-47
1.84258e-47
6.83694e-48
4.04469e-52
5.52771e-60
7.76415e-65
1.80047e-67
3.33491e-20
1.60925e-21
3.97437e-25
1.7394e-28
4.68736e-31
1.16933e-33
2.56903e-36
1.95076e-38
1.51535e-39
7.88283e-42
1.48655e-42
1.46524e-43
3.15688e-43
2.59217e-43
4.07067e-46
1.19504e-51
9.58414e-56
5.63611e-60
8.39355e-65
1.56761e-21
1.86371e-24
9.05859e-25
5.38472e-28
1.33471e-31
3.27891e-34
9.24224e-37
2.40823e-37
4.83521e-39
1.54205e-39
3.49624e-40
1.30502e-39
1.79645e-39
7.63867e-42
5.57369e-47
5.45348e-51
6.42829e-55
3.53069e-59
6.77116e-63
1.81422e-20
4.25904e-24
1.66244e-26
5.47738e-29
1.56154e-31
3.8558e-34
9.38084e-37
1.23226e-37
6.07632e-37
2.91635e-37
2.10743e-36
4.56883e-36
3.21034e-38
3.83188e-43
4.90624e-47
1.01282e-50
1.19127e-54
6.54176e-59
4.37841e-62
1.39835e-21
7.80926e-25
7.70796e-26
3.41725e-29
3.98101e-32
1.03526e-34
2.86903e-37
7.94528e-38
9.16194e-35
1.61939e-33
5.41941e-33
5.96948e-35
1.13923e-39
1.79706e-43
5.62047e-47
1.15044e-50
1.34437e-54
7.32776e-59
9.19463e-62
1.02294e-23
5.14454e-25
5.57125e-29
2.58785e-32
6.63807e-35
2.24035e-37
7.94522e-38
7.94528e-38
4.655e-31
2.98122e-30
9.61366e-22
6.62101e-25
2.11608e-28
9.82576e-32
2.55567e-34
7.87032e-37
2.24468e-37
-5.29766e-90
-2.67202e-91
-9.83406e-93
-2.7605e-94
-6.5346e-96
-1.51445e-97
-3.55212e-99
-7.27638e-101
-1.12574e-102
-1.22479e-104
-9.08729e-107
-4.52294e-109
-1.49253e-111
-3.22709e-114
-4.50693e-117
-3.98909e-120
-2.17673e-123
-7.01382e-127
-1.24078e-130
-1.04772e-134
-2.99435e-139
-7.28026e-89
-3.70887e-90
-1.37309e-91
-3.80152e-93
-8.38878e-95
-1.67063e-96
-3.34749e-98
-6.33128e-100
-9.63796e-102
-1.06251e-103
-8.08248e-106
-4.14361e-108
-1.41024e-110
-3.14227e-113
-4.51126e-116
-4.08835e-119
-2.27208e-122
-7.40723e-126
-1.31521e-129
-1.1018e-133
-3.02824e-138
-9.91885e-88
-5.11085e-89
-1.91185e-90
-5.29612e-92
-1.12969e-93
-2.02083e-95
-3.43675e-97
-5.75259e-99
-8.37064e-101
-9.23749e-103
-7.17536e-105
-3.78597e-107
-1.32969e-109
-3.057e-112
-4.51841e-115
-4.19868e-118
-2.37855e-121
-7.84219e-125
-1.39329e-128
-1.14833e-132
-2.95048e-137
-1.33921e-86
-6.98519e-88
-2.64685e-89
-7.39683e-91
-1.56196e-92
-2.62652e-94
-3.89368e-96
-5.60161e-98
-7.49188e-100
-8.10321e-102
-6.37391e-104
-3.45226e-106
-1.25096e-108
-2.97004e-111
-4.52582e-114
-4.31898e-117
-2.49738e-120
-8.33177e-124
-1.47949e-127
-1.19525e-131
-2.897e-136
-1.7913e-85
-9.46291e-87
-3.63735e-88
-1.03014e-89
-2.1843e-91
-3.5749e-93
-4.83086e-95
-5.98193e-97
-7.07094e-99
-7.25837e-101
-5.69366e-103
-3.14726e-105
-1.17473e-107
-2.88095e-110
-4.53114e-113
-4.44756e-116
-2.62917e-119
-8.88581e-123
-1.57716e-126
-1.24708e-130
-2.85993e-135
-2.373e-84
-1.27009e-85
-4.95642e-87
-1.42617e-88
-3.06092e-90
-4.98649e-92
-6.41296e-94
-7.05627e-96
-7.22492e-98
-6.76658e-100
-5.16161e-102
-2.87937e-104
-1.10255e-106
-2.79065e-109
-4.53316e-112
-4.58315e-115
-2.77471e-118
-9.51609e-122
-1.69024e-125
-1.3084e-129
-2.83093e-134
-3.11259e-83
-1.68833e-84
-6.69241e-86
-1.95922e-87
-4.27503e-89
-7.02403e-91
-8.87353e-93
-9.06887e-95
-8.14005e-97
-6.73296e-99
-4.82248e-101
-2.66255e-103
-1.03725e-105
-2.70197e-108
-4.53217e-111
-4.72489e-114
-2.93479e-117
-1.02352e-120
-1.8231e-124
-1.38416e-128
-2.82557e-133
-4.04144e-82
-2.22206e-83
-8.94985e-85
-2.66786e-86
-5.93239e-88
-9.90277e-90
-1.25356e-91
-1.23749e-93
-1.01012e-95
-7.32485e-98
-4.7488e-100
-2.5196e-102
-9.83664e-105
-2.62084e-107
-4.53125e-110
-4.87303e-113
-3.11037e-116
-1.10566e-119
-1.9805e-123
-1.47956e-127
-2.85917e-132
-5.19316e-81
-2.89474e-82
-1.18496e-83
-3.5983e-85
-8.16472e-87
-1.39018e-88
-1.78364e-90
-1.74774e-92
-1.35313e-94
-8.80139e-97
-5.05609e-99
-2.48755e-101
-9.49931e-104
-2.55839e-106
-4.53844e-109
-5.0303e-112
-3.30297e-115
-1.19953e-118
-2.1678e-122
-1.60032e-126
-2.94354e-131
-6.60244e-80
-3.73167e-81
-1.55274e-82
-4.80469e-84
-1.11327e-85
-1.93757e-87
-2.53553e-89
-2.50738e-91
-1.90438e-93
-1.15547e-95
-5.92548e-98
-2.62606e-100
-9.4961e-103
-2.5345e-105
-4.57081e-108
-5.20464e-111
-3.51565e-114
-1.30694e-117
-2.39112e-121
-1.7529e-125
-3.09025e-130
-8.30323e-79
-4.75905e-80
-2.01313e-81
-6.34878e-83
-1.50276e-84
-2.67653e-86
-3.58447e-88
-3.61101e-90
-2.75094e-92
-1.61664e-94
-7.63633e-97
-3.03033e-99
-1.00514e-101
-2.584e-104
-4.66144e-107
-5.41412e-110
-3.75492e-113
-1.43042e-116
-2.6579e-120
-1.94508e-124
-3.31229e-129
-1.03264e-77
-6.0027e-79
-2.58166e-80
-8.29891e-82
-2.00719e-83
-3.66065e-85
-5.02607e-87
-5.18442e-89
-4.01388e-91
-2.34822e-93
-1.06126e-95
-3.85068e-98
-1.15335e-100
-2.76692e-103
-4.87185e-106
-5.69612e-109
-4.03461e-112
-1.57403e-115
-2.97781e-119
-2.18665e-123
-3.62669e-128
-1.2697e-76
-7.48629e-78
-3.27381e-79
-1.07279e-80
-2.6516e-82
-4.95347e-84
-6.9792e-86
-7.39131e-88
-5.85822e-90
-3.47083e-92
-1.54868e-94
-5.32115e-97
-1.45407e-99
-3.18555e-102
-5.31357e-105
-6.12407e-108
-4.38326e-111
-1.74508e-114
-3.36468e-118
-2.49043e-122
-4.05668e-127
-1.54308e-75
-9.22916e-77
-4.10405e-78
-1.37101e-79
-3.4633e-81
-6.62822e-83
-9.58803e-85
-1.04402e-86
-8.50426e-89
-5.1533e-91
-2.31857e-93
-7.8007e-96
-2.00331e-98
-4.01202e-101
-6.18512e-104
-6.83778e-107
-4.85837e-110
-1.9576e-113
-3.84046e-117
-2.87436e-121
-4.6346e-126
-1.85307e-74
-1.12438e-75
-5.08451e-77
-1.73164e-78
-4.47079e-80
-8.76661e-82
-1.30228e-83
-1.45902e-85
-1.22398e-87
-7.62708e-90
-3.50427e-92
-1.18309e-94
-2.95296e-97
-5.53233e-100
-7.83437e-103
-8.09747e-106
-5.57334e-109
-2.23939e-112
-4.44381e-116
-3.36547e-120
-5.40699e-125
-2.19829e-73
-1.35329e-74
-6.22352e-76
-2.16092e-77
-5.70226e-79
-1.14563e-80
-1.74785e-82
-2.01554e-84
-1.74323e-86
-1.12029e-88
-5.29385e-91
-1.82139e-93
-4.53942e-96
-8.21456e-99
-1.08618e-101
-1.03788e-104
-6.74765e-108
-2.64595e-111
-5.24782e-115
-4.00851e-119
-6.44417e-124
-2.57538e-72
-1.60869e-73
-7.52389e-75
-2.66345e-76
-7.18347e-78
-1.47871e-79
-2.31706e-81
-2.75056e-83
-2.45391e-85
-1.62885e-87
-7.94712e-90
-2.81161e-92
-7.12425e-95
-1.28126e-97
-1.62874e-100
-1.45367e-103
-8.79888e-107
-3.28762e-110
-6.39686e-114
-4.8842e-118
-7.86012e-123
-2.97868e-71
-1.88809e-72
-8.98119e-74
-3.24144e-75
-8.93516e-77
-1.88446e-78
-3.03268e-80
-3.70613e-82
-3.41141e-84
-2.34063e-86
-1.18152e-88
-4.31981e-91
-1.125e-93
-2.05193e-96
-2.58155e-99
-2.20816e-102
-1.25084e-105
-4.38173e-109
-8.1818e-113
-6.14855e-117
-9.85472e-122
-3.40012e-70
-2.18727e-71
-1.05821e-72
-3.89384e-74
-1.097e-75
-2.37032e-77
-3.91749e-79
-4.9283e-81
-4.68071e-83
-3.32075e-85
-1.73611e-87
-6.57733e-90
-1.77145e-92
-3.31864e-95
-4.22419e-98
-3.5637e-101
-1.93141e-104
-6.35096e-108
-1.11913e-111
-8.11649e-116
-1.28069e-120
-3.82915e-69
-2.50017e-70
-1.23031e-71
-4.61553e-73
-1.32892e-74
-2.94164e-76
-4.9925e-78
-6.465e-80
-6.33534e-82
-4.64802e-84
-2.51802e-86
-9.89898e-89
-2.76655e-91
-5.36306e-94
-7.00663e-97
-5.96747e-100
-3.18153e-103
-1.0005e-106
-1.66112e-110
-1.14382e-114
-1.74797e-119
-4.25302e-68
-2.81886e-69
-1.41095e-70
-5.39659e-72
-1.58792e-73
-3.60064e-75
-6.27472e-77
-8.36297e-79
-8.45489e-81
-6.41461e-83
-3.60158e-85
-1.47022e-87
-4.27158e-90
-8.60433e-93
-1.16381e-95
-1.0167e-98
-5.46245e-102
-1.68694e-105
-2.68044e-109
-1.74654e-113
-2.54735e-118
-4.65714e-67
-3.1337e-68
-1.59556e-69
-6.22183e-71
-1.87085e-72
-4.34529e-74
-7.77453e-76
-1.06635e-77
-1.11208e-79
-8.72412e-82
-5.0767e-84
-2.15256e-86
-6.50756e-89
-1.36518e-91
-1.92125e-94
-1.73858e-97
-9.57652e-101
-2.97662e-104
-4.6414e-108
-2.89978e-112
-4.02133e-117
-5.02577e-66
-3.43368e-67
-1.77851e-68
-7.07065e-70
-2.17258e-71
-5.16827e-73
-9.49275e-75
-1.33974e-76
-1.44104e-78
-1.16874e-80
-7.0481e-83
-3.10424e-85
-9.76915e-88
-2.13691e-90
-3.1377e-93
-2.95827e-96
-1.68902e-99
-5.38141e-103
-8.44081e-107
-5.17762e-111
-6.90749e-116
-5.34293e-65
-3.70693e-66
-1.95333e-67
-7.91733e-69
-2.48582e-70
-6.05613e-72
-1.14178e-73
-1.65784e-75
-1.83885e-77
-1.54157e-79
-9.63256e-82
-4.40656e-84
-1.44376e-86
-3.29481e-89
-5.05513e-92
-4.98199e-95
-2.96791e-98
-9.8102e-102
-1.57781e-105
-9.73998e-110
-1.27869e-114
-5.59337e-64
-3.94133e-65
-2.11299e-66
-8.73185e-68
-2.80127e-69
-6.98873e-71
-1.35229e-72
-2.01973e-74
-2.30973e-76
-2.00109e-78
-1.29533e-80
-6.15378e-83
-2.09897e-85
-4.9985e-88
-8.01943e-91
-8.27649e-94
-5.16424e-97
-1.78406e-100
-2.98063e-104
-1.88886e-108
-2.50112e-113
-5.76378e-63
-4.12542e-64
-2.25031e-65
-9.48123e-67
-3.10782e-68
-7.93926e-70
-1.57645e-71
-2.42157e-73
-2.85457e-75
-2.55527e-77
-1.71311e-79
-8.44995e-82
-2.99999e-84
-7.45498e-87
-1.25109e-89
-1.35342e-92
-8.86428e-96
-3.21456e-99
-5.62445e-103
-3.70984e-107
-5.05718e-112
-5.84385e-62
-4.24915e-63
-2.35845e-64
-1.01314e-65
-3.39306e-67
-8.87485e-69
-1.80815e-70
-2.85607e-72
-3.46977e-74
-3.20837e-76
-2.22718e-78
-1.1403e-80
-4.21296e-83
-1.09231e-85
-1.91753e-88
-2.17529e-91
-1.49721e-94
-5.71385e-98
-1.05215e-101
-7.28748e-106
-1.03771e-110
-5.82721e-61
-4.30479e-62
-2.43138e-63
-1.06496e-64
-3.64395e-66
-9.75786e-68
-2.0396e-69
-3.31225e-71
-4.14621e-73
-3.95927e-75
-2.84506e-77
-1.51156e-79