/*--------------------------------*- C++ -*----------------------------------*\
| =========                 |                                                 |
| \\      /  F ield         | OpenFOAM: The Open Source CFD Toolbox           |
|  \\    /   O peration     | Version:  v2012                                 |
|   \\  /    A nd           | Website:  www.openfoam.com                      |
|    \\/     M anipulation  |                                                 |
\*---------------------------------------------------------------------------*/
FoamFile
{
    version     2.0;
    format      ascii;
    class       volVectorField;
    location    "0.75";
    object      U;
}
// * * * * * * * * * * * * * * * * * * * * * * * * * * * * * * * * * * * * * //

dimensions      [0 1 -1 0 0 0 0];


internalField   nonuniform List<vector> 
3352
(
(1.4794e-06 -0.00162019 -1.29201e-08)
(6.05701e-06 -0.00355013 -5.28644e-08)
(1.24306e-05 -0.00525368 -1.08487e-07)
(2.02196e-05 -0.00672137 -1.76465e-07)
(2.84e-05 -0.00801657 -2.4785e-07)
(3.78523e-05 -0.00918271 -3.30355e-07)
(4.83525e-05 -0.010247 -4.21983e-07)
(5.93616e-05 -0.0112289 -5.18066e-07)
(7.15278e-05 -0.0121427 -6.24245e-07)
(8.48604e-05 -0.0129979 -7.40614e-07)
(9.95589e-05 -0.0138025 -8.6889e-07)
(0.000115328 -0.014562 -1.00652e-06)
(0.000132134 -0.0152809 -1.15319e-06)
(0.000150226 -0.015963 -1.31108e-06)
(0.000169591 -0.0166107 -1.48009e-06)
(0.000189974 -0.0172265 -1.65797e-06)
(0.000211426 -0.0178118 -1.8452e-06)
(0.000233929 -0.0183679 -2.0416e-06)
(0.000257411 -0.0188957 -2.24654e-06)
(0.000281834 -0.0193958 -2.4597e-06)
(0.000307134 -0.0198683 -2.68051e-06)
(0.000333226 -0.0203133 -2.90823e-06)
(0.000359974 -0.0207308 -3.14168e-06)
(0.000387308 -0.0211203 -3.38024e-06)
(0.000415106 -0.0214813 -3.62286e-06)
(0.000443252 -0.0218132 -3.86852e-06)
(0.000471583 -0.022115 -4.11579e-06)
(0.000499934 -0.0223857 -4.36324e-06)
(0.0005281 -0.0226243 -4.60908e-06)
(0.000555867 -0.0228293 -4.85146e-06)
(0.000582982 -0.0229994 -5.08813e-06)
(0.000609177 -0.0231329 -5.31677e-06)
(0.000634148 -0.0232283 -5.53475e-06)
(0.000657575 -0.0232836 -5.73925e-06)
(0.000679105 -0.0232971 -5.92721e-06)
(0.000698373 -0.0232665 -6.09543e-06)
(0.000714988 -0.0231899 -6.2405e-06)
(0.000728553 -0.023065 -6.35896e-06)
(0.000738658 -0.0228895 -6.44725e-06)
(9.56343e-07 -0.00164265 -8.34622e-09)
(5.57183e-06 -0.00358501 -4.86318e-08)
(1.26007e-05 -0.00529547 -1.09967e-07)
(2.09082e-05 -0.00676759 -1.82465e-07)
(3.12185e-05 -0.00806611 -2.72449e-07)
(4.14482e-05 -0.00923485 -3.61724e-07)
(5.34992e-05 -0.0103018 -4.66908e-07)
(6.57676e-05 -0.0112859 -5.73973e-07)
(7.87226e-05 -0.0122016 -6.8704e-07)
(9.29958e-05 -0.0130582 -8.11616e-07)
(0.000108013 -0.0138644 -9.42691e-07)
(0.00012438 -0.0146252 -1.08554e-06)
(0.000141528 -0.0153455 -1.2352e-06)
(0.0001596 -0.0160285 -1.39292e-06)
(0.000178667 -0.0166772 -1.55933e-06)
(0.000198662 -0.0172936 -1.73383e-06)
(0.000219738 -0.0178795 -1.91778e-06)
(0.000241819 -0.0184358 -2.1105e-06)
(0.000264832 -0.0189636 -2.31135e-06)
(0.000288899 -0.0194634 -2.52141e-06)
(0.000313846 -0.0199354 -2.73913e-06)
(0.000339579 -0.0203798 -2.96371e-06)
(0.000366012 -0.0207965 -3.19441e-06)
(0.000393072 -0.021185 -3.43059e-06)
(0.000420662 -0.0215448 -3.67138e-06)
(0.000448628 -0.0218753 -3.91546e-06)
(0.000476824 -0.0221756 -4.16155e-06)
(0.000505056 -0.0224446 -4.40796e-06)
(0.000533133 -0.0226812 -4.653e-06)
(0.000560818 -0.0228841 -4.89465e-06)
(0.000587867 -0.0230518 -5.13074e-06)
(0.000613996 -0.0231829 -5.3588e-06)
(0.000638909 -0.0232756 -5.57625e-06)
(0.000662272 -0.0233282 -5.78018e-06)
(0.000683737 -0.0233386 -5.96755e-06)
(0.000702928 -0.023305 -6.13508e-06)
(0.000719458 -0.0232251 -6.27939e-06)
(0.000732921 -0.0230969 -6.39694e-06)
(0.000742909 -0.022918 -6.4842e-06)
(5.21147e-07 -0.00163932 -4.54739e-09)
(3.84837e-06 -0.00358442 -3.3585e-08)
(9.3082e-06 -0.00529877 -8.1223e-08)
(1.64441e-05 -0.00677395 -1.43504e-07)
(2.5501e-05 -0.0080751 -2.22544e-07)
(3.52121e-05 -0.00924611 -3.07295e-07)
(4.71604e-05 -0.0103147 -4.11575e-07)
(5.93449e-05 -0.0113008 -5.17914e-07)
(7.27628e-05 -0.0122179 -6.35016e-07)
(8.71587e-05 -0.0130763 -7.60659e-07)
(0.000102414 -0.0138838 -8.93799e-07)
(0.000119233 -0.0146461 -1.04059e-06)
(0.000136867 -0.0153681 -1.19449e-06)
(0.000155762 -0.0160529 -1.3594e-06)
(0.000175612 -0.0167033 -1.53265e-06)
(0.000196437 -0.0173214 -1.7144e-06)
(0.000218337 -0.0179088 -1.90553e-06)
(0.000241215 -0.0184667 -2.10521e-06)
(0.00026495 -0.0189959 -2.31237e-06)
(0.000289709 -0.019497 -2.52847e-06)
(0.000315264 -0.0199703 -2.75151e-06)
(0.000341589 -0.0204159 -2.98126e-06)
(0.000368567 -0.0208336 -3.21672e-06)
(0.000396163 -0.0212229 -3.45758e-06)
(0.000424252 -0.0215834 -3.70273e-06)
(0.000452707 -0.0219144 -3.95109e-06)
(0.000481364 -0.0222149 -4.20121e-06)
(0.000510045 -0.0224839 -4.45154e-06)
(0.00053854 -0.0227202 -4.70025e-06)
(0.000566626 -0.0229227 -4.9454e-06)
(0.000594043 -0.0230897 -5.18471e-06)
(0.000620515 -0.0232198 -5.41577e-06)
(0.000645731 -0.0233112 -5.63588e-06)
(0.000669362 -0.0233622 -5.84215e-06)
(0.00069105 -0.0233709 -6.03148e-06)
(0.000710419 -0.0233352 -6.20057e-06)
(0.000727074 -0.023253 -6.34597e-06)
(0.000740609 -0.0231222 -6.46415e-06)
(0.000750608 -0.0229404 -6.55151e-06)
(4.64841e-07 -0.0016547 -4.05158e-09)
(4.1392e-06 -0.00360981 -3.6123e-08)
(1.03318e-05 -0.00533103 -9.01639e-08)
(1.80393e-05 -0.00681094 -1.57428e-07)
(2.80152e-05 -0.0081155 -2.44483e-07)
(3.79654e-05 -0.00928905 -3.31329e-07)
(5.05075e-05 -0.0103598 -4.40791e-07)
(6.3234e-05 -0.0113476 -5.51857e-07)
(7.71709e-05 -0.0122661 -6.73492e-07)
(9.18788e-05 -0.0131257 -8.01859e-07)
(0.000107495 -0.013934 -9.38151e-07)
(0.000124161 -0.0146969 -1.0836e-06)
(0.000141795 -0.0154193 -1.23751e-06)
(0.000160882 -0.0161041 -1.40409e-06)
(0.000180679 -0.0167546 -1.57687e-06)
(0.000201479 -0.0173726 -1.75841e-06)
(0.000223328 -0.0179599 -1.94909e-06)
(0.000246216 -0.0185177 -2.14885e-06)
(0.000270075 -0.0190466 -2.35709e-06)
(0.000294887 -0.0195474 -2.57364e-06)
(0.000320488 -0.0200203 -2.79708e-06)
(0.000346962 -0.0204654 -3.02813e-06)
(0.000374191 -0.0208825 -3.26578e-06)
(0.000402087 -0.0212712 -3.50926e-06)
(0.000430538 -0.0216309 -3.75757e-06)
(0.00045938 -0.021961 -4.0093e-06)
(0.000488463 -0.0222605 -4.26313e-06)
(0.00051758 -0.0225284 -4.51727e-06)
(0.00054653 -0.0227635 -4.76995e-06)
(0.000575066 -0.0229646 -5.01902e-06)
(0.00060293 -0.0231301 -5.26223e-06)
(0.000629827 -0.0232585 -5.497e-06)
(0.000655445 -0.0233481 -5.72062e-06)
(0.00067944 -0.0233971 -5.93007e-06)
(0.000701449 -0.0234036 -6.12219e-06)
(0.000721083 -0.0233655 -6.2936e-06)
(0.000737941 -0.0232809 -6.44078e-06)
(0.000751606 -0.0231474 -6.5601e-06)
(0.000761659 -0.0229628 -6.64793e-06)
(3.29899e-07 -0.00165261 -2.8909e-09)
(2.64141e-06 -0.0036114 -2.30491e-08)
(6.78363e-06 -0.00533676 -5.91892e-08)
(1.38395e-05 -0.00682132 -1.20764e-07)
(2.27333e-05 -0.00812902 -1.98385e-07)
(3.18068e-05 -0.00930581 -2.77571e-07)
(4.39054e-05 -0.0103795 -3.83168e-07)
(5.65575e-05 -0.01137 -4.9358e-07)
(7.08125e-05 -0.0122912 -6.17992e-07)
(8.59036e-05 -0.0131532 -7.497e-07)
(0.000102114 -0.0139637 -8.91179e-07)
(0.000119439 -0.0147287 -1.04238e-06)
(0.000137872 -0.0154529 -1.20327e-06)
(0.000157914 -0.0161396 -1.37818e-06)
(0.000178616 -0.0167917 -1.55886e-06)
(0.000200413 -0.0174112 -1.7491e-06)
(0.000223205 -0.0179999 -1.94801e-06)
(0.000247093 -0.0185589 -2.15649e-06)
(0.000271865 -0.019089 -2.37271e-06)
(0.000297579 -0.0195908 -2.59714e-06)
(0.000324092 -0.0200645 -2.82853e-06)
(0.000351433 -0.0205102 -3.06716e-06)
(0.000379483 -0.0209277 -3.31197e-06)
(0.00040819 -0.0213166 -3.56253e-06)
(0.000437422 -0.0216764 -3.81766e-06)
(0.000467042 -0.0220062 -4.07617e-06)
(0.000496879 -0.0223053 -4.33659e-06)
(0.000526742 -0.0225726 -4.59724e-06)
(0.000556412 -0.0228069 -4.8562e-06)
(0.000585649 -0.0230068 -5.1114e-06)
(0.000614177 -0.0231711 -5.3604e-06)
(0.000641703 -0.0232979 -5.60065e-06)
(0.000667899 -0.0233858 -5.82931e-06)
(0.000692417 -0.0234328 -6.04333e-06)
(0.00071488 -0.0234372 -6.23942e-06)
(0.000734893 -0.0233967 -6.41413e-06)
(0.000752043 -0.0233095 -6.56386e-06)
(0.000765903 -0.0231733 -6.68489e-06)
(0.000776045 -0.0229859 -6.77349e-06)
(-3.4702e-07 -0.00166324 3.02478e-09)
(2.0771e-06 -0.00363011 -1.81623e-08)
(7.9242e-06 -0.00536193 -6.91684e-08)
(1.54775e-05 -0.00685175 -1.35074e-07)
(2.59943e-05 -0.00816294 -2.26844e-07)
(3.35758e-05 -0.00934286 -2.9301e-07)
(4.58718e-05 -0.0104191 -4.0031e-07)
(5.84878e-05 -0.0114111 -5.1044e-07)
(7.29047e-05 -0.0123339 -6.36263e-07)
(8.8531e-05 -0.013197 -7.72632e-07)
(0.000104944 -0.0140085 -9.15883e-07)
(0.000122256 -0.0147744 -1.06697e-06)
(0.000140892 -0.0154991 -1.22962e-06)
(0.000161093 -0.0161863 -1.40593e-06)
(0.000181943 -0.0168388 -1.5879e-06)
(0.00020393 -0.0174587 -1.77979e-06)
(0.000226966 -0.0180477 -1.98083e-06)
(0.000251208 -0.0186069 -2.1924e-06)
(0.000276493 -0.0191372 -2.4131e-06)
(0.000302698 -0.0196391 -2.64181e-06)
(0.00032973 -0.0201129 -2.87772e-06)
(0.000357709 -0.0205586 -3.12191e-06)
(0.000386495 -0.0209759 -3.37315e-06)
(0.000415985 -0.0213646 -3.63054e-06)
(0.00044605 -0.0217239 -3.89295e-06)
(0.000476518 -0.0220533 -4.15887e-06)
(0.000507227 -0.0223517 -4.42689e-06)
(0.000537958 -0.0226181 -4.69512e-06)
(0.000568497 -0.0228514 -4.96166e-06)
(0.000598577 -0.0230502 -5.22422e-06)
(0.000627925 -0.023213 -5.48039e-06)
(0.000656225 -0.0233383 -5.72739e-06)
(0.000683144 -0.0234243 -5.96236e-06)
(0.000708315 -0.0234694 -6.18208e-06)
(0.000731352 -0.0234714 -6.38318e-06)
(0.000751845 -0.0234286 -6.56209e-06)
(0.00076937 -0.0233387 -6.71509e-06)
(0.000783487 -0.0231997 -6.83836e-06)
(0.000793755 -0.0230093 -6.92807e-06)
(-2.52753e-07 -0.00166311 2.19982e-09)
(1.04807e-06 -0.00363373 -9.17162e-09)
(4.51365e-06 -0.00536902 -3.9392e-08)
(1.33724e-05 -0.00685648 -1.16725e-07)
(2.39997e-05 -0.00818287 -2.09436e-07)
(3.01776e-05 -0.00935953 -2.63355e-07)
(4.26784e-05 -0.0104434 -3.72436e-07)
(5.50794e-05 -0.0114363 -4.80691e-07)
(6.91419e-05 -0.0123636 -6.03418e-07)
(8.51066e-05 -0.013229 -7.42741e-07)
(0.000101846 -0.0140433 -8.88835e-07)
(0.000119783 -0.0148113 -1.04538e-06)
(0.000139126 -0.015538 -1.2142e-06)
(0.000160132 -0.016227 -1.39754e-06)
(0.000181843 -0.0168811 -1.58702e-06)
(0.000204767 -0.0175024 -1.78709e-06)
(0.000228739 -0.0180925 -1.9963e-06)
(0.000253951 -0.0186528 -2.21633e-06)
(0.000280171 -0.019184 -2.44518e-06)
(0.00030741 -0.0196867 -2.68293e-06)
(0.000335544 -0.020161 -2.92847e-06)
(0.000364588 -0.020607 -3.18195e-06)
(0.000394424 -0.0210246 -3.44235e-06)
(0.000424974 -0.0214132 -3.70899e-06)
(0.000456097 -0.0217724 -3.98063e-06)
(0.000487635 -0.0221014 -4.25589e-06)
(0.000519408 -0.0223992 -4.5332e-06)
(0.000551202 -0.0226649 -4.8107e-06)
(0.000582781 -0.0228971 -5.08633e-06)
(0.000613881 -0.0230947 -5.35779e-06)
(0.000644205 -0.0232561 -5.62247e-06)
(0.000673433 -0.0233797 -5.87757e-06)
(0.000701211 -0.0234639 -6.12004e-06)
(0.000727163 -0.0235068 -6.34658e-06)
(0.000750885 -0.0235066 -6.55366e-06)
(0.000771954 -0.0234612 -6.7376e-06)
(0.000789929 -0.0233686 -6.89453e-06)
(0.000804356 -0.0232267 -7.0205e-06)
(0.000814781 -0.0230332 -7.11159e-06)
(-7.44313e-07 -0.00167055 6.50534e-09)
(1.71594e-06 -0.00364781 -1.49863e-08)
(1.30135e-05 -0.00538878 -1.13599e-07)
(4.20255e-06 -0.00688118 -3.66632e-08)
(1.2865e-05 -0.00821392 -1.12444e-07)
(3.69151e-05 -0.00939463 -3.22168e-07)
(3.87303e-05 -0.010482 -3.37978e-07)
(5.71752e-05 -0.0114752 -4.9895e-07)
(6.81248e-05 -0.012405 -5.94519e-07)
(8.69702e-05 -0.0132708 -7.58998e-07)
(0.000103586 -0.0140865 -9.04037e-07)
(0.000122222 -0.0148554 -1.06665e-06)
(0.0001418 -0.0155832 -1.23755e-06)
(0.000163227 -0.0162731 -1.42456e-06)
(0.000185299 -0.0169279 -1.61719e-06)
(0.000208599 -0.01755 -1.82053e-06)
(0.000233077 -0.0181409 -2.03414e-06)
(0.000258859 -0.0187018 -2.25916e-06)
(0.000285849 -0.0192335 -2.49473e-06)
(0.000313907 -0.0197365 -2.73961e-06)
(0.000342918 -0.0202112 -2.9928e-06)
(0.000372951 -0.0206574 -3.25492e-06)
(0.000403871 -0.021075 -3.52479e-06)
(0.000435556 -0.0214636 -3.80133e-06)
(0.000467862 -0.0218225 -4.0833e-06)
(0.000500599 -0.0221511 -4.36902e-06)
(0.000533589 -0.0224483 -4.65695e-06)
(0.000566591 -0.0227131 -4.945e-06)
(0.00059937 -0.0229443 -5.2311e-06)
(0.000631636 -0.0231406 -5.51274e-06)
(0.000663087 -0.0233005 -5.78726e-06)
(0.000693379 -0.0234224 -6.05166e-06)
(0.00072215 -0.0235047 -6.30279e-06)
(0.000749001 -0.0235454 -6.53718e-06)
(0.000773514 -0.0235428 -6.75116e-06)
(0.000795246 -0.0234948 -6.94088e-06)
(0.000813741 -0.0233993 -7.10235e-06)
(0.000828527 -0.0232544 -7.23147e-06)
(0.000839135 -0.0230577 -7.32414e-06)
(-5.01966e-07 -0.0016717 4.38157e-09)
(1.02018e-06 -0.003653 -8.90802e-09)
(9.85004e-06 -0.00539878 -8.59622e-08)
(6.14453e-07 -0.0069054 -5.37716e-09)
(1.0398e-05 -0.00822025 -9.09491e-08)
(3.76201e-05 -0.00940684 -3.28363e-07)
(4.34296e-05 -0.0105036 -3.79005e-07)
(6.15546e-05 -0.0114985 -5.3721e-07)
(6.95888e-05 -0.0124348 -6.07335e-07)
(8.92282e-05 -0.0133037 -7.78715e-07)
(0.000104139 -0.0141235 -9.08858e-07)
(0.000123125 -0.014895 -1.07453e-06)
(0.000142835 -0.0156252 -1.24657e-06)
(0.000164837 -0.016317 -1.43859e-06)
(0.000187568 -0.0169735 -1.63699e-06)
(0.000211651 -0.017597 -1.84716e-06)
(0.000237039 -0.0181891 -2.06873e-06)
(0.000263816 -0.0187511 -2.30241e-06)
(0.000291823 -0.0192837 -2.54686e-06)
(0.000321 -0.0197874 -2.80151e-06)
(0.000351241 -0.0202626 -3.06544e-06)
(0.000382528 -0.0207092 -3.3385e-06)
(0.000414732 -0.021127 -3.61958e-06)
(0.000447737 -0.0215156 -3.90764e-06)
(0.000481383 -0.0218743 -4.2013e-06)
(0.000515483 -0.0222024 -4.49892e-06)
(0.000549839 -0.022499 -4.79877e-06)
(0.000584209 -0.022763 -5.09876e-06)
(0.000618334 -0.0229932 -5.3966e-06)
(0.000651917 -0.0231882 -5.68974e-06)
(0.000684634 -0.0233465 -5.97531e-06)
(0.000716128 -0.0234666 -6.2502e-06)
(0.000746014 -0.0235468 -6.51107e-06)
(0.000773878 -0.0235853 -6.7543e-06)
(0.00079928 -0.0235801 -6.97604e-06)
(0.000821759 -0.0235294 -7.17228e-06)
(0.000840837 -0.023431 -7.33885e-06)
(0.000856026 -0.0232829 -7.47148e-06)
(0.000866838 -0.0230829 -7.56594e-06)
(-7.63508e-07 -0.0016771 6.67546e-09)
(2.07084e-06 -0.00366425 -1.80791e-08)
(7.9713e-06 -0.00541457 -6.95894e-08)
(9.75067e-06 -0.00692553 -8.51398e-08)
(3.14346e-05 -0.00824545 -2.7437e-07)
(2.03953e-05 -0.00943938 -1.78001e-07)
(2.48496e-05 -0.0105389 -2.17117e-07)
(5.732e-05 -0.0115364 -5.00245e-07)
(6.01595e-05 -0.0124755 -5.25042e-07)
(8.78378e-05 -0.0133449 -7.66584e-07)
(0.000103185 -0.0141671 -9.00469e-07)
(0.000125156 -0.0149396 -1.09224e-06)
(0.000145808 -0.0156713 -1.27252e-06)
(0.000168942 -0.0163642 -1.47441e-06)
(0.000192225 -0.0170218 -1.67762e-06)
(0.000216835 -0.0176464 -1.8924e-06)
(0.000242927 -0.0182396 -2.12011e-06)
(0.000270559 -0.0188025 -2.36126e-06)
(0.000299584 -0.0193359 -2.61459e-06)
(0.000329779 -0.0198403 -2.87812e-06)
(0.000361112 -0.020316 -3.15158e-06)
(0.000393652 -0.020763 -3.43558e-06)
(0.000427223 -0.021181 -3.72858e-06)
(0.000461655 -0.0215696 -4.0291e-06)
(0.000496781 -0.0219281 -4.33567e-06)
(0.000532382 -0.0222558 -4.64639e-06)
(0.000568257 -0.0225517 -4.95951e-06)
(0.000604138 -0.0228148 -5.27268e-06)
(0.000639759 -0.0230438 -5.58359e-06)
(0.000674799 -0.0232375 -5.88944e-06)
(0.000708921 -0.0233942 -6.18727e-06)
(0.000741744 -0.0235125 -6.47376e-06)
(0.000772867 -0.0235905 -6.74543e-06)
(0.00080185 -0.0236266 -6.99843e-06)
(0.000828236 -0.0236188 -7.22876e-06)
(0.000851538 -0.0235652 -7.43219e-06)
(0.00087126 -0.0234638 -7.60438e-06)
(0.000886891 -0.0233123 -7.74087e-06)
(0.000897923 -0.0231088 -7.83726e-06)
(-8.46854e-07 -0.00167899 7.40271e-09)
(1.21205e-06 -0.00366987 -1.0575e-08)
(5.62322e-06 -0.00542718 -4.90711e-08)
(4.53452e-06 -0.00693938 -3.96021e-08)
(2.35202e-05 -0.00826942 -2.05322e-07)
(1.98551e-05 -0.00947409 -1.73398e-07)
(3.59767e-05 -0.0105563 -3.14347e-07)
(6.65749e-05 -0.0115603 -5.81063e-07)
(6.80085e-05 -0.0125032 -5.93533e-07)
(9.57232e-05 -0.0133745 -8.35463e-07)
(0.000107318 -0.0142027 -9.36611e-07)
(0.000130347 -0.0149784 -1.13755e-06)
(0.000150143 -0.0157144 -1.31035e-06)
(0.000173729 -0.0164095 -1.51619e-06)
(0.00019722 -0.0170697 -1.72121e-06)
(0.000222444 -0.017696 -1.94134e-06)
(0.00024933 -0.0182908 -2.17598e-06)
(0.000277985 -0.018855 -2.42607e-06)
(0.0003081 -0.0193895 -2.68891e-06)
(0.00033956 -0.0198949 -2.96348e-06)
(0.000372313 -0.0203713 -3.24933e-06)
(0.00040632 -0.0208188 -3.54613e-06)
(0.000441413 -0.021237 -3.85242e-06)
(0.000477422 -0.0216256 -4.16669e-06)
(0.000514162 -0.0219839 -4.48736e-06)
(0.000551408 -0.0223112 -4.81244e-06)
(0.000588939 -0.0226065 -5.14001e-06)
(0.000626477 -0.0228687 -5.46764e-06)
(0.000663731 -0.0230966 -5.7928e-06)
(0.000700367 -0.0232888 -6.11258e-06)
(0.000736024 -0.0234438 -6.42381e-06)
(0.000770303 -0.0235601 -6.72301e-06)
(0.000802775 -0.0236359 -7.00646e-06)
(0.000832983 -0.0236695 -7.27014e-06)
(0.00086044 -0.023659 -7.50983e-06)
(0.000884641 -0.0236024 -7.7211e-06)
(0.000905061 -0.0234977 -7.89939e-06)
(0.000921169 -0.0233428 -8.04004e-06)
(0.000932435 -0.0231357 -8.13848e-06)
(-5.27614e-07 -0.00168344 4.61867e-09)
(7.41535e-07 -0.00367961 -6.46363e-09)
(4.20493e-06 -0.00544175 -3.67136e-08)
(1.30648e-05 -0.0069579 -1.14072e-07)
(2.90593e-05 -0.00828984 -2.53711e-07)
(2.64879e-05 -0.00949783 -2.31211e-07)
(4.64676e-05 -0.0105831 -4.05511e-07)
(5.06874e-05 -0.0115927 -4.42502e-07)
(5.43886e-05 -0.0125382 -4.74899e-07)
(8.8159e-05 -0.0134131 -7.69344e-07)
(9.87186e-05 -0.0142441 -8.61637e-07)
(0.000128476 -0.0150224 -1.12125e-06)
(0.000150564 -0.0157606 -1.31397e-06)
(0.000177791 -0.0164579 -1.55162e-06)
(0.000202439 -0.0171199 -1.76674e-06)
(0.000229046 -0.0177479 -1.99895e-06)
(0.000256914 -0.0183442 -2.24216e-06)
(0.000286771 -0.0189097 -2.50274e-06)
(0.000318135 -0.0194454 -2.77648e-06)
(0.000350949 -0.0199517 -3.06287e-06)
(0.000385117 -0.0204288 -3.36107e-06)
(0.000420658 -0.0208768 -3.67126e-06)
(0.000457388 -0.0212953 -3.99183e-06)
(0.000495101 -0.021684 -4.32099e-06)
(0.000533601 -0.0220422 -4.65701e-06)
(0.000572636 -0.022369 -4.9977e-06)
(0.000611971 -0.0226636 -5.34101e-06)
(0.000651306 -0.0229249 -5.68433e-06)
(0.000690337 -0.0231516 -6.025e-06)
(0.000728704 -0.0233423 -6.35989e-06)
(0.000766027 -0.0234955 -6.68566e-06)
(0.000801882 -0.0236098 -6.99861e-06)
(0.000835817 -0.0236833 -7.29483e-06)
(0.000867348 -0.0237142 -7.57006e-06)
(0.000895963 -0.0237008 -7.81986e-06)
(0.00092113 -0.023641 -8.03957e-06)
(0.0009423 -0.0235329 -8.2244e-06)
(0.000958915 -0.0233744 -8.36949e-06)
(0.000970423 -0.0231634 -8.47005e-06)
(-4.29278e-07 -0.00168569 3.75397e-09)
(6.01894e-07 -0.00368691 -5.24235e-09)
(2.94935e-06 -0.00545271 -2.57418e-08)
(1.08913e-05 -0.00697328 -9.50889e-08)
(2.30478e-05 -0.008314 -2.01232e-07)
(2.41092e-05 -0.00952426 -2.10521e-07)
(5.27107e-05 -0.0106224 -4.60102e-07)
(5.59432e-05 -0.0116359 -4.88408e-07)
(6.19184e-05 -0.0125801 -5.40579e-07)
(9.51668e-05 -0.0134589 -8.3055e-07)
(0.000103332 -0.0142891 -9.01971e-07)
(0.000134597 -0.0150695 -1.17469e-06)
(0.000156244 -0.0158085 -1.36354e-06)
(0.00018424 -0.0165079 -1.6079e-06)
(0.00020932 -0.0171716 -1.82679e-06)
(0.000236748 -0.0178015 -2.06615e-06)
(0.000265612 -0.0183994 -2.31807e-06)
(0.000296669 -0.0189664 -2.58912e-06)
(0.000329358 -0.0195034 -2.87443e-06)
(0.000363677 -0.0200108 -3.17394e-06)
(0.000399491 -0.0204887 -3.48652e-06)
(0.000436742 -0.0209373 -3.81163e-06)
(0.000475259 -0.0213562 -4.14779e-06)
(0.00051482 -0.021745 -4.49307e-06)
(0.000555217 -0.022103 -4.84565e-06)
(0.00059618 -0.0224294 -5.20317e-06)
(0.000637458 -0.0227234 -5.56344e-06)
(0.000678731 -0.0229836 -5.92368e-06)
(0.000719674 -0.023209 -6.28103e-06)
(0.000759905 -0.0233982 -6.63219e-06)
(0.00079902 -0.0235496 -6.97361e-06)
(0.000836569 -0.0236616 -7.30135e-06)
(0.000872075 -0.0237326 -7.61128e-06)
(0.000905025 -0.0237608 -7.8989e-06)
(0.00093488 -0.0237444 -8.15952e-06)
(0.000961078 -0.0236813 -8.38824e-06)
(0.000983045 -0.0235696 -8.58002e-06)
(0.00100019 -0.0234072 -8.72978e-06)
(0.00101195 -0.0231922 -8.83251e-06)
(-5.27064e-07 -0.00168952 4.61072e-09)
(7.44897e-07 -0.00369607 -6.49505e-09)
(3.52562e-06 -0.00546694 -3.07693e-08)
(1.2857e-05 -0.00699189 -1.12246e-07)
(2.55328e-05 -0.00833599 -2.2294e-07)
(2.6352e-05 -0.00954656 -2.30095e-07)
(5.5745e-05 -0.0106488 -4.86575e-07)
(5.44974e-05 -0.0116664 -4.7578e-07)
(6.10364e-05 -0.0126138 -5.32917e-07)
(9.59314e-05 -0.0134977 -8.37228e-07)
(0.000104434 -0.0143303 -9.11568e-07)
(0.00013808 -0.0151144 -1.20509e-06)
(0.000161094 -0.0158562 -1.40586e-06)
(0.000190763 -0.0165586 -1.66481e-06)
(0.000216912 -0.0172247 -1.89304e-06)
(0.000245457 -0.0178569 -2.14215e-06)
(0.000275539 -0.0184568 -2.4047e-06)
(0.000307951 -0.0190255 -2.68757e-06)
(0.000342165 -0.0195639 -2.98619e-06)
(0.000378093 -0.0200724 -3.29975e-06)
(0.000415597 -0.0205513 -3.62707e-06)
(0.000454664 -0.0210005 -3.96804e-06)
(0.000495096 -0.0214198 -4.32091e-06)
(0.000536647 -0.0218088 -4.68356e-06)
(0.000579085 -0.0221666 -5.05396e-06)
(0.000622124 -0.0224926 -5.42959e-06)
(0.000665489 -0.0227858 -5.80808e-06)
(0.000708843 -0.0230451 -6.18647e-06)
(0.000751836 -0.0232692 -6.56172e-06)
(0.000794064 -0.0234567 -6.93032e-06)
(0.000835096 -0.0236061 -7.28847e-06)
(0.000874458 -0.0237159 -7.63202e-06)
(0.00091164 -0.0237843 -7.95658e-06)
(0.000946102 -0.0238095 -8.25741e-06)
(0.000977275 -0.0237898 -8.52954e-06)
(0.00100457 -0.0237232 -8.76781e-06)
(0.00102737 -0.0236077 -8.96692e-06)
(0.00104508 -0.0234414 -9.12155e-06)
(0.00105708 -0.0232221 -9.22644e-06)
(-5.25657e-07 -0.00169221 4.59878e-09)
(6.82996e-07 -0.00370355 -5.95456e-09)
(3.31528e-06 -0.0054798 -2.89305e-08)
(1.25323e-05 -0.0070092 -1.09412e-07)
(2.48394e-05 -0.0083592 -2.16882e-07)
(2.61817e-05 -0.00957382 -2.28603e-07)
(5.6749e-05 -0.0106813 -4.9534e-07)
(5.61709e-05 -0.011703 -4.9041e-07)
(6.44496e-05 -0.0126533 -5.62728e-07)
(0.000100116 -0.0135406 -8.73746e-07)
(0.000108563 -0.0143754 -9.47589e-07)
(0.000143082 -0.0151621 -1.24873e-06)
(0.000166804 -0.0159064 -1.45569e-06)
(0.000197623 -0.0166115 -1.72467e-06)
(0.000224907 -0.0172801 -1.9628e-06)
(0.000254775 -0.0179147 -2.22346e-06)
(0.000286339 -0.0185166 -2.49894e-06)
(0.000320316 -0.0190871 -2.79548e-06)
(0.000356239 -0.019627 -3.10901e-06)
(0.000393983 -0.0201369 -3.43842e-06)
(0.00043344 -0.0206168 -3.7828e-06)
(0.000474507 -0.0210667 -4.14121e-06)
(0.000517016 -0.0214865 -4.51221e-06)
(0.0005607 -0.0218756 -4.89347e-06)
(0.000605325 -0.0222333 -5.28296e-06)
(0.000650579 -0.0225589 -5.67792e-06)
(0.000696175 -0.0228513 -6.07589e-06)
(0.000741748 -0.0231095 -6.47365e-06)
(0.000786929 -0.0233322 -6.868e-06)
(0.000831286 -0.0235179 -7.25517e-06)
(0.000874361 -0.0236653 -7.63115e-06)
(0.000915648 -0.0237726 -7.99151e-06)
(0.000954612 -0.0238383 -8.33162e-06)
(0.000990677 -0.0238605 -8.64644e-06)
(0.00102324 -0.0238373 -8.93074e-06)
(0.00105169 -0.023767 -9.17907e-06)
(0.00107537 -0.0236475 -9.38586e-06)
(0.00109365 -0.0234769 -9.5455e-06)
(0.0011059 -0.0232532 -9.65253e-06)
(-5.0095e-07 -0.00169585 4.38429e-09)
(7.12114e-07 -0.00371258 -6.20642e-09)
(3.75613e-06 -0.00549428 -3.2791e-08)
(1.36623e-05 -0.00702884 -1.19281e-07)
(2.62542e-05 -0.0083834 -2.29223e-07)
(2.87838e-05 -0.00960218 -2.51313e-07)
(5.94975e-05 -0.0107136 -5.1933e-07)
(5.77453e-05 -0.011739 -5.04141e-07)
(6.67373e-05 -0.0126929 -5.82692e-07)
(0.000103766 -0.0135842 -9.05594e-07)
(0.000112947 -0.0144222 -9.85849e-07)
(0.00014865 -0.0152121 -1.29733e-06)
(0.000173227 -0.0159594 -1.51174e-06)
(0.000205397 -0.0166672 -1.79252e-06)
(0.000234026 -0.0173385 -2.04239e-06)
(0.000265386 -0.0179754 -2.31607e-06)
(0.000298571 -0.0185793 -2.6057e-06)
(0.000334216 -0.0191518 -2.9168e-06)
(0.000372009 -0.0196933 -3.24664e-06)
(0.000411688 -0.0202044 -3.59294e-06)
(0.000453168 -0.0206854 -3.95496e-06)
(0.000496363 -0.0211361 -4.33195e-06)
(0.000541085 -0.0215564 -4.72227e-06)
(0.000587056 -0.0219457 -5.1235e-06)
(0.000634017 -0.0223033 -5.53336e-06)
(0.000681641 -0.0226284 -5.94901e-06)
(0.000729614 -0.0229201 -6.36772e-06)
(0.000777554 -0.0231771 -6.78614e-06)
(0.000825061 -0.0233983 -7.20078e-06)
(0.00087168 -0.0235822 -7.6077e-06)
(0.00091692 -0.0237274 -8.00259e-06)
(0.000960249 -0.0238322 -8.38077e-06)
(0.00100109 -0.0238949 -8.73731e-06)
(0.00103885 -0.0239138 -9.06691e-06)
(0.00107289 -0.023887 -9.36401e-06)
(0.00110254 -0.0238128 -9.62288e-06)
(0.00112714 -0.0236891 -9.83765e-06)
(0.00114601 -0.023514 -1.00024e-05)
(0.00115849 -0.0232855 -1.01115e-05)
(-4.74222e-07 -0.00169889 4.14899e-09)
(7.71879e-07 -0.00372103 -6.73011e-09)
(3.77429e-06 -0.00550797 -3.29492e-08)
(1.39963e-05 -0.007048 -1.22196e-07)
(2.67867e-05 -0.00840706 -2.33875e-07)
(2.98162e-05 -0.00963069 -2.60327e-07)
(6.15332e-05 -0.0107473 -5.37096e-07)
(6.01958e-05 -0.0117771 -5.25527e-07)
(7.01436e-05 -0.0127345 -6.12429e-07)
(0.000108209 -0.0136297 -9.44378e-07)
(0.000118206 -0.0144713 -1.03173e-06)
(0.000154849 -0.0152647 -1.35143e-06)
(0.000180447 -0.016015 -1.57475e-06)
(0.000213933 -0.0167257 -1.86701e-06)
(0.000244 -0.0173996 -2.12943e-06)
(0.000276996 -0.018039 -2.41739e-06)
(0.000311958 -0.0186452 -2.72253e-06)
(0.000349486 -0.0192196 -3.05006e-06)
(0.00038931 -0.0197628 -3.39763e-06)
(0.000431105 -0.0202753 -3.76239e-06)
(0.000474829 -0.0207574 -4.14401e-06)
(0.000520318 -0.021209 -4.54101e-06)
(0.000567422 -0.0216298 -4.95212e-06)
(0.000615828 -0.0220193 -5.37459e-06)
(0.000665281 -0.0223768 -5.80621e-06)
(0.000715421 -0.0227015 -6.24382e-06)
(0.000765925 -0.0229923 -6.68462e-06)
(0.000816373 -0.0232482 -7.12493e-06)
(0.000866349 -0.0234678 -7.56113e-06)
(0.000915361 -0.0236497 -7.98893e-06)
(0.000962893 -0.0237925 -8.40382e-06)
(0.00100838 -0.0238946 -8.80081e-06)
(0.00105121 -0.0239542 -9.17468e-06)
(0.00109074 -0.0239697 -9.51979e-06)
(0.00112631 -0.0239391 -9.83031e-06)
(0.00115722 -0.0238607 -1.01002e-05)
(0.00118277 -0.0237325 -1.03232e-05)
(0.00120224 -0.0235526 -1.04932e-05)
(0.00121494 -0.0233192 -1.06042e-05)
(-5.12677e-07 -0.00170254 4.48463e-09)
(9.68205e-07 -0.00373043 -8.44427e-09)
(4.2627e-06 -0.00552321 -3.72111e-08)
(1.50678e-05 -0.00706876 -1.31555e-07)
(2.85812e-05 -0.00843302 -2.49547e-07)
(3.1055e-05 -0.00966149 -2.71136e-07)
(6.34142e-05 -0.0107828 -5.53508e-07)
(6.31103e-05 -0.011817 -5.50964e-07)
(7.39734e-05 -0.0127785 -6.45848e-07)
(0.000112777 -0.0136778 -9.84244e-07)
(0.000123848 -0.0145231 -1.08098e-06)
(0.000161934 -0.0153201 -1.41326e-06)
(0.000188803 -0.0160737 -1.64766e-06)
(0.000223805 -0.0167874 -1.95317e-06)
(0.000255409 -0.0174641 -2.22899e-06)
(0.000290148 -0.018106 -2.53218e-06)
(0.00032695 -0.0187145 -2.85337e-06)
(0.000366502 -0.0192909 -3.19856e-06)
(0.000408467 -0.0198358 -3.56482e-06)
(0.000452502 -0.0203499 -3.94913e-06)
(0.000498555 -0.0208332 -4.35107e-06)
(0.000546486 -0.0212857 -4.76939e-06)
(0.000596112 -0.021707 -5.2025e-06)
(0.000647119 -0.0220968 -5.64768e-06)
(0.000699217 -0.0224541 -6.10238e-06)
(0.000752037 -0.0227783 -6.56338e-06)
(0.000805218 -0.0230683 -7.02754e-06)
(0.000858329 -0.0233229 -7.4911e-06)
(0.000910912 -0.0235408 -7.95005e-06)
(0.000962456 -0.0237207 -8.39996e-06)
(0.0010124 -0.023861 -8.83592e-06)
(0.00106016 -0.0239602 -9.25272e-06)
(0.00110507 -0.0240165 -9.64477e-06)
(0.00114647 -0.0240283 -1.00062e-05)
(0.00118364 -0.0239937 -1.03307e-05)
(0.00121586 -0.0239108 -1.06119e-05)
(0.00124238 -0.0237779 -1.08435e-05)
(0.00126245 -0.023593 -1.10188e-05)
(0.00127536 -0.0233543 -1.11315e-05)
(-4.96161e-07 -0.00170601 4.33967e-09)
(1.05722e-06 -0.00373979 -9.22357e-09)
(4.46595e-06 -0.0055387 -3.89831e-08)
(1.5663e-05 -0.00708996 -1.36748e-07)
(2.95957e-05 -0.00845999 -2.58404e-07)
(3.26794e-05 -0.00969363 -2.85319e-07)
(6.60612e-05 -0.0108194 -5.76613e-07)
(6.64768e-05 -0.0118582 -5.80345e-07)
(7.83457e-05 -0.0128244 -6.8401e-07)
(0.000118204 -0.013728 -1.03161e-06)
(0.000130452 -0.0145772 -1.13862e-06)
(0.000169824 -0.0153779 -1.48212e-06)
(0.00019808 -0.016135 -1.72863e-06)
(0.000234677 -0.016852 -2.04804e-06)
(0.000267991 -0.0175317 -2.3388e-06)
(0.000304602 -0.0181763 -2.65831e-06)
(0.000343429 -0.0187873 -2.99718e-06)
(0.00038513 -0.0193658 -3.36112e-06)
(0.000429388 -0.0199127 -3.74739e-06)
(0.000475818 -0.0204284 -4.15262e-06)
(0.000524419 -0.020913 -4.57678e-06)
(0.000574952 -0.0213664 -5.01782e-06)
(0.000627278 -0.0217884 -5.4745e-06)
(0.000681036 -0.0221783 -5.94368e-06)
(0.000735947 -0.0225355 -6.42294e-06)
(0.000791599 -0.0228592 -6.90865e-06)
(0.000847623 -0.0231482 -7.39763e-06)
(0.000903543 -0.0234014 -7.8857e-06)
(0.000958885 -0.0236176 -8.36874e-06)
(0.00101309 -0.0237953 -8.84189e-06)
(0.00106559 -0.023933 -9.30008e-06)
(0.00111572 -0.0240291 -9.73765e-06)
(0.00116282 -0.0240819 -1.01488e-05)
(0.00120616 -0.0240898 -1.05271e-05)
(0.00124501 -0.0240508 -1.08662e-05)
(0.00127857 -0.0239633 -1.11593e-05)
(0.00130609 -0.0238254 -1.13995e-05)
(0.00132676 -0.0236352 -1.15801e-05)
(0.00133985 -0.0233909 -1.16944e-05)
(-5.20348e-07 -0.00170986 4.55225e-09)
(1.25436e-06 -0.00374994 -1.09422e-08)
(4.98884e-06 -0.00555525 -4.35584e-08)
(1.66819e-05 -0.00711255 -1.45641e-07)
(3.13243e-05 -0.0084883 -2.73488e-07)
(3.51658e-05 -0.00972735 -3.07022e-07)
(6.92206e-05 -0.0108583 -6.04192e-07)
(6.97486e-05 -0.011902 -6.08895e-07)
(8.25466e-05 -0.0128729 -7.2067e-07)
(0.000124032 -0.0137809 -1.08247e-06)
(0.000137697 -0.0146343 -1.20185e-06)
(0.000178528 -0.0154389 -1.55809e-06)
(0.000208354 -0.0161997 -1.81829e-06)
(0.000246781 -0.0169201 -2.15368e-06)
(0.000281937 -0.017603 -2.4605e-06)
(0.000320604 -0.0182504 -2.79796e-06)
(0.000361565 -0.018864 -3.15545e-06)
(0.000405584 -0.0194448 -3.53963e-06)
(0.000452263 -0.0199937 -3.94703e-06)
(0.000501258 -0.0205111 -4.37464e-06)
(0.000552515 -0.020997 -4.82198e-06)
(0.000605826 -0.0214514 -5.28726e-06)
(0.000661004 -0.021874 -5.76884e-06)
(0.000717699 -0.0222642 -6.26365e-06)
(0.000775584 -0.0226213 -6.76886e-06)
(0.000834245 -0.0229444 -7.28084e-06)
(0.000893266 -0.0232324 -7.79597e-06)
(0.000952158 -0.0234842 -8.30999e-06)
(0.0010104 -0.0236984 -8.81834e-06)
(0.00106742 -0.0238738 -9.31602e-06)
(0.00112258 -0.0240087 -9.79748e-06)