/*--------------------------------*- C++ -*----------------------------------*\
| =========                 |                                                 |
| \\      /  F ield         | OpenFOAM: The Open Source CFD Toolbox           |
|  \\    /   O peration     | Version:  v2012                                 |
|   \\  /    A nd           | Website:  www.openfoam.com                      |
|    \\/     M anipulation  |                                                 |
\*---------------------------------------------------------------------------*/
FoamFile
{
    version     2.0;
    format      ascii;
    class       volScalarField;
    location    "0.45";
    object      p_rgh;
}
// * * * * * * * * * * * * * * * * * * * * * * * * * * * * * * * * * * * * * //

dimensions      [1 -1 -2 0 0 0 0];


internalField   nonuniform List<scalar> 
3332
(
3.71004e+06
3.71364e+06
3.70923e+06
3.71222e+06
3.71062e+06
3.71676e+06
3.72602e+06
3.74198e+06
3.68566e+06
3.68531e+06
3.68494e+06
3.6853e+06
3.68527e+06
3.69142e+06
3.70279e+06
3.71769e+06
3.72724e+06
3.73713e+06
3.73023e+06
3.71813e+06
3.66652e+06
3.58037e+06
3.5567e+06
3.65557e+06
3.65132e+06
3.65489e+06
3.65247e+06
3.65513e+06
3.6593e+06
3.67067e+06
3.68119e+06
3.68878e+06
3.69343e+06
3.69145e+06
3.67766e+06
3.64939e+06
3.56931e+06
3.54284e+06
3.62376e+06
3.61676e+06
3.6228e+06
3.61803e+06
3.62284e+06
3.62393e+06
3.6319e+06
3.63535e+06
3.63804e+06
3.63609e+06
3.63908e+06
3.62792e+06
3.61519e+06
3.55426e+06
3.52472e+06
3.5921e+06
3.58549e+06
3.59063e+06
3.58662e+06
3.58988e+06
3.58925e+06
3.59042e+06
3.58644e+06
3.58317e+06
3.57596e+06
3.58156e+06
3.57736e+06
3.5723e+06
3.53333e+06
3.50569e+06
3.5626e+06
3.55958e+06
3.56094e+06
3.56061e+06
3.55972e+06
3.55758e+06
3.55196e+06
3.54236e+06
3.53464e+06
3.52517e+06
3.53098e+06
3.53323e+06
3.53191e+06
3.50918e+06
3.48894e+06
3.53836e+06
3.53904e+06
3.53647e+06
3.53965e+06
3.53486e+06
3.53095e+06
3.52118e+06
3.50911e+06
3.49984e+06
3.49107e+06
3.49591e+06
3.50127e+06
3.50172e+06
3.48875e+06
3.47639e+06
3.51978e+06
3.52179e+06
3.51762e+06
3.5222e+06
3.51558e+06
3.51031e+06
3.49978e+06
3.48823e+06
3.48008e+06
3.47388e+06
3.47737e+06
3.48253e+06
3.48293e+06
3.47563e+06
3.4678e+06
3.50626e+06
3.50643e+06
3.50408e+06
3.50696e+06
3.50123e+06
3.49517e+06
3.48643e+06
3.47719e+06
3.47153e+06
3.46834e+06
3.47036e+06
3.47345e+06
3.47292e+06
3.46864e+06
3.46197e+06
3.4955e+06
3.49228e+06
3.49406e+06
3.49342e+06
3.49038e+06
3.48414e+06
3.47824e+06
3.47166e+06
3.4685e+06
3.46757e+06
3.46825e+06
3.46916e+06
3.46793e+06
3.46483e+06
3.45776e+06
3.48736e+06
3.48002e+06
3.48589e+06
3.48176e+06
3.4817e+06
3.47567e+06
3.47241e+06
3.46792e+06
3.46644e+06
3.4666e+06
3.46643e+06
3.46608e+06
3.46477e+06
3.46186e+06
3.45431e+06
3.48018e+06
3.46987e+06
3.47864e+06
3.47204e+06
3.47425e+06
3.46863e+06
3.46721e+06
3.46398e+06
3.46329e+06
3.46357e+06
3.46318e+06
3.46261e+06
3.46164e+06
3.45868e+06
3.45116e+06
3.47352e+06
3.46167e+06
3.47193e+06
3.46417e+06
3.46763e+06
3.46253e+06
3.46206e+06
3.45946e+06
3.45896e+06
3.45893e+06
3.45874e+06
3.45856e+06
3.45807e+06
3.45516e+06
3.4482e+06
3.46728e+06
3.45563e+06
3.4659e+06
3.45806e+06
3.46175e+06
3.45729e+06
3.45709e+06
3.45484e+06
3.45426e+06
3.45395e+06
3.45405e+06
3.45437e+06
3.45427e+06
3.45157e+06
3.44548e+06
3.46166e+06
3.45132e+06
3.46044e+06
3.45347e+06
3.45663e+06
3.45292e+06
3.45261e+06
3.45067e+06
3.44999e+06
3.44959e+06
3.44987e+06
3.45054e+06
3.45062e+06
3.44825e+06
3.44308e+06
3.45649e+06
3.44853e+06
3.45561e+06
3.45011e+06
3.45228e+06
3.44938e+06
3.44882e+06
3.44724e+06
3.44652e+06
3.44622e+06
3.44653e+06
3.44733e+06
3.44741e+06
3.44537e+06
3.44106e+06
3.45181e+06
3.44669e+06
3.45132e+06
3.44755e+06
3.44861e+06
3.44653e+06
3.44573e+06
3.44452e+06
3.44384e+06
3.44371e+06
3.44394e+06
3.44473e+06
3.44473e+06
3.44298e+06
3.43941e+06
3.44769e+06
3.44535e+06
3.44756e+06
3.44545e+06
3.44551e+06
3.44419e+06
3.44322e+06
3.44235e+06
3.44174e+06
3.44175e+06
3.44188e+06
3.4426e+06
3.44252e+06
3.44097e+06
3.43806e+06
3.44393e+06
3.44401e+06
3.44422e+06
3.44357e+06
3.44287e+06
3.44216e+06
3.44113e+06
3.44052e+06
3.44e+06
3.44009e+06
3.44014e+06
3.44079e+06
3.44065e+06
3.43923e+06
3.437e+06
3.44064e+06
3.44254e+06
3.44135e+06
3.44178e+06
3.44062e+06
3.44035e+06
3.43934e+06
3.43891e+06
3.43848e+06
3.43859e+06
3.43858e+06
3.43916e+06
3.43903e+06
3.43769e+06
3.43619e+06
3.43791e+06
3.44093e+06
3.43891e+06
3.44002e+06
3.43869e+06
3.43869e+06
3.43779e+06
3.43745e+06
3.43711e+06
3.43718e+06
3.43717e+06
3.43768e+06
3.43757e+06
3.43631e+06
3.43562e+06
3.43563e+06
3.43938e+06
3.43698e+06
3.43834e+06
3.43703e+06
3.43717e+06
3.43642e+06
3.43612e+06
3.43587e+06
3.43589e+06
3.43588e+06
3.43633e+06
3.43625e+06
3.43507e+06
3.43528e+06
3.43395e+06
3.43769e+06
3.43537e+06
3.43677e+06
3.43564e+06
3.43578e+06
3.4352e+06
3.4349e+06
3.43474e+06
3.43469e+06
3.43471e+06
3.4351e+06
3.43506e+06
3.434e+06
3.43516e+06
3.43275e+06
3.43612e+06
3.43414e+06
3.43535e+06
3.43447e+06
3.43454e+06
3.43412e+06
3.43381e+06
3.43372e+06
3.43361e+06
3.43368e+06
3.43398e+06
3.43399e+06
3.43308e+06
3.43527e+06
3.43203e+06
3.43469e+06
3.43323e+06
3.4341e+06
3.4335e+06
3.43344e+06
3.43318e+06
3.43282e+06
3.43279e+06
3.43263e+06
3.43274e+06
3.433e+06
3.43304e+06
3.4324e+06
3.43558e+06
3.43197e+06
3.43349e+06
3.43259e+06
3.43302e+06
3.43269e+06
3.43249e+06
3.43234e+06
3.43194e+06
3.43195e+06
3.43175e+06
3.43189e+06
3.43212e+06
3.43221e+06
3.43197e+06
3.43604e+06
3.43181e+06
3.43245e+06
3.43212e+06
3.43213e+06
3.43203e+06
3.43168e+06
3.43162e+06
3.43118e+06
3.43121e+06
3.43098e+06
3.43113e+06
3.43137e+06
3.43152e+06
3.43173e+06
3.43162e+06
3.43176e+06
3.43141e+06
3.43149e+06
3.43102e+06
3.43102e+06
3.43052e+06
3.43058e+06
3.43032e+06
3.43048e+06
3.43076e+06
3.43101e+06
3.43168e+06
3.43097e+06
3.43147e+06
3.43086e+06
3.43105e+06
3.4305e+06
3.43054e+06
3.42999e+06
3.43009e+06
3.42979e+06
3.42996e+06
3.43031e+06
3.43071e+06
3.4313e+06
3.43046e+06
3.43122e+06
3.43048e+06
3.43072e+06
3.43015e+06
3.43019e+06
3.4296e+06
3.42978e+06
3.4294e+06
3.42962e+06
3.43003e+06
3.43066e+06
3.4312e+06
3.43019e+06
3.431e+06
3.43024e+06
3.43046e+06
3.42994e+06
3.42997e+06
3.42936e+06
3.42967e+06
3.42914e+06
3.4295e+06
3.42993e+06
3.43082e+06
3.43105e+06
3.43006e+06
3.4308e+06
3.43013e+06
3.43027e+06
3.42986e+06
3.42982e+06
3.42927e+06
3.42975e+06
3.42902e+06
3.42968e+06
3.4301e+06
3.43121e+06
3.43091e+06
3.43005e+06
3.43062e+06
3.43007e+06
3.43009e+06
3.42986e+06
3.42966e+06
3.42931e+06
3.42991e+06
3.42891e+06
3.42995e+06
3.43036e+06
3.43142e+06
3.43062e+06
3.43003e+06
3.43044e+06
3.43004e+06
3.42994e+06
3.42991e+06
3.42945e+06
3.42951e+06
3.42999e+06
3.42894e+06
3.43046e+06
3.43092e+06
3.43174e+06
3.43049e+06
3.43014e+06
3.43032e+06
3.43001e+06
3.42978e+06
3.42982e+06
3.42906e+06
3.42964e+06
3.42926e+06
3.4285e+06
3.42957e+06
3.43089e+06
3.43096e+06
3.43039e+06
3.43027e+06
3.43022e+06
3.42996e+06
3.42959e+06
3.42945e+06
3.42845e+06
3.42914e+06
3.42727e+06
3.42852e+06
3.42869e+06
3.43139e+06
3.43142e+06
3.4305e+06
3.43068e+06
3.43039e+06
3.43021e+06
3.42977e+06
3.42943e+06
3.42838e+06
3.42817e+06
3.42489e+06
3.42825e+06
3.41974e+06
3.42978e+06
3.43225e+06
3.43096e+06
3.43149e+06
3.43099e+06
3.43104e+06
3.43068e+06
3.43053e+06
3.43007e+06
3.43e+06
3.42936e+06
3.43075e+06
3.43153e+06
3.43235e+06
3.43167e+06
3.4319e+06
3.43154e+06
3.43156e+06
3.43128e+06
3.43135e+06
3.43124e+06
3.43156e+06
3.43218e+06
3.43326e+06
3.43249e+06
3.43288e+06
3.43253e+06
3.43267e+06
3.43252e+06
3.4327e+06
3.43271e+06
3.43288e+06
3.43297e+06
3.43417e+06
3.43327e+06
3.43376e+06
3.4334e+06
3.43362e+06
3.43352e+06
3.43375e+06
3.43375e+06
3.43384e+06
3.43378e+06
3.43498e+06
3.43403e+06
3.43457e+06
3.4342e+06
3.43447e+06
3.43439e+06
3.43465e+06
3.43466e+06
3.43474e+06
3.43454e+06
3.43564e+06
3.43468e+06
3.4352e+06
3.43484e+06
3.43514e+06
3.43509e+06
3.43539e+06
3.4354e+06
3.43548e+06
3.43495e+06
3.43598e+06
3.43516e+06
3.43568e+06
3.43532e+06
3.43566e+06
3.43563e+06
3.43596e+06
3.43598e+06
3.43606e+06
3.43541e+06
3.43624e+06
3.43547e+06
3.43596e+06
3.43562e+06
3.436e+06
3.43598e+06
3.43636e+06
3.43639e+06
3.43647e+06
3.43557e+06
3.43623e+06
3.43553e+06
3.43605e+06
3.43573e+06
3.43615e+06
3.43614e+06
3.43656e+06
3.43661e+06
3.4367e+06
3.43547e+06
3.43606e+06
3.43538e+06
3.43591e+06
3.4356e+06
3.43608e+06
3.43609e+06
3.43656e+06
3.43663e+06
3.43672e+06
3.43497e+06
3.43561e+06
3.43493e+06
3.43554e+06
3.43522e+06
3.43578e+06
3.43582e+06
3.43634e+06
3.43643e+06
3.43652e+06
3.43417e+06
3.43496e+06
3.43419e+06
3.43491e+06
3.43458e+06
3.43522e+06
3.43529e+06
3.43587e+06
3.436e+06
3.43609e+06
3.433e+06
3.43403e+06
3.43312e+06
3.43399e+06
3.43365e+06
3.43438e+06
3.4345e+06
3.43514e+06
3.4353e+06
3.43539e+06
3.43148e+06
3.4328e+06
3.43175e+06
3.43277e+06
3.43243e+06
3.43324e+06
3.43344e+06
3.43412e+06
3.43433e+06
3.43442e+06
3.42961e+06
3.43119e+06
3.43007e+06
3.43122e+06
3.43089e+06
3.43176e+06
3.43206e+06
3.43279e+06
3.43305e+06
3.43314e+06
3.42754e+06
3.42926e+06
3.4281e+06
3.42929e+06
3.42904e+06
3.42992e+06
3.43033e+06
3.4311e+06
3.43142e+06
3.43151e+06
3.42523e+06
3.4269e+06
3.42582e+06
3.42696e+06
3.42685e+06
3.42769e+06
3.42823e+06
3.42902e+06
3.42939e+06
3.42949e+06
3.42272e+06
3.42409e+06
3.42325e+06
3.42419e+06
3.42428e+06
3.42504e+06
3.42571e+06
3.42651e+06
3.42694e+06
3.42704e+06
3.41994e+06
3.42074e+06
3.42033e+06
3.42095e+06
3.42131e+06
3.42194e+06
3.42273e+06
3.42354e+06
3.42402e+06
3.42413e+06
3.41689e+06
3.41687e+06
3.41701e+06
3.4172e+06
3.41784e+06
3.41831e+06
3.41924e+06
3.42006e+06
3.42059e+06
3.42071e+06
3.41341e+06
3.41241e+06
3.41319e+06
3.4129e+06
3.41383e+06
3.41413e+06
3.41518e+06
3.41602e+06
3.41657e+06
3.41671e+06
3.40932e+06
3.40729e+06
3.40875e+06
3.40798e+06
3.40918e+06
3.40933e+06
3.41048e+06
3.41135e+06
3.41193e+06
3.41209e+06
3.40429e+06
3.40142e+06
3.40356e+06
3.40239e+06
3.40382e+06
3.40386e+06
3.40507e+06
3.40599e+06
3.40659e+06
3.40677e+06
3.3985e+06
3.39498e+06
3.39756e+06
3.39611e+06
3.39768e+06
3.39766e+06
3.39889e+06
3.39986e+06
3.40047e+06
3.40069e+06
3.39164e+06
3.38782e+06
3.39067e+06
3.3891e+06
3.39071e+06
3.39066e+06
3.39188e+06
3.39289e+06
3.3935e+06
3.39375e+06
3.3838e+06
3.3801e+06
3.38289e+06
3.38136e+06
3.38288e+06
3.38283e+06
3.38397e+06
3.38498e+06
3.38557e+06
3.38586e+06
3.37494e+06
3.37179e+06
3.37428e+06
3.37292e+06
3.37423e+06
3.37413e+06
3.37513e+06
3.37604e+06
3.37659e+06
3.37693e+06
3.36543e+06
3.36316e+06
3.36503e+06
3.3639e+06
3.36485e+06
3.36458e+06
3.36534e+06
3.36595e+06
3.36643e+06
3.36682e+06
3.35562e+06
3.35443e+06
3.35547e+06
3.35454e+06
3.35496e+06
3.35429e+06
3.35463e+06
3.35462e+06
3.35496e+06
3.35539e+06
3.34627e+06
3.34618e+06
3.34621e+06
3.34529e+06
3.34495e+06
3.3435e+06
3.3431e+06
3.34195e+06
3.34203e+06
3.34253e+06
3.3382e+06
3.33916e+06
3.33818e+06
3.33696e+06
3.3355e+06
3.33267e+06
3.33099e+06
3.32784e+06
3.32742e+06
3.32791e+06
3.33369e+06
3.33527e+06
3.33296e+06
3.3309e+06
3.32776e+06
3.32274e+06
3.31886e+06
3.3124e+06
3.31117e+06
3.31162e+06
3.33492e+06
3.33665e+06
3.33284e+06
3.32931e+06
3.32369e+06
3.31545e+06
3.30782e+06
3.29577e+06
3.29289e+06
3.29303e+06
3.34561e+06
3.34696e+06
3.34137e+06
3.33554e+06
3.32628e+06
3.31362e+06
3.29977e+06
3.27889e+06
3.27305e+06
3.27259e+06
3.37036e+06
3.37082e+06
3.36325e+06
3.35411e+06
3.3398e+06
3.32092e+06
3.29725e+06
3.26421e+06
3.25167e+06
3.24991e+06
3.41553e+06
3.41472e+06
3.40491e+06
3.3916e+06
3.3713e+06
3.34431e+06
3.30783e+06
3.25945e+06
3.23224e+06
3.22865e+06
3.48814e+06
3.48601e+06
3.47418e+06
3.45689e+06
3.43082e+06
3.39542e+06
3.34583e+06
3.27691e+06
3.2184e+06
3.21182e+06
3.5927e+06
3.58957e+06
3.57647e+06
3.55591e+06
3.52452e+06
3.48117e+06
3.41775e+06
3.32172e+06
3.21458e+06
3.20441e+06
3.72923e+06
3.72531e+06
3.71128e+06
3.68781e+06
3.6522e+06
3.59991e+06
3.51857e+06
3.40055e+06
3.25924e+06
3.21619e+06
3.88909e+06
3.88652e+06
3.87735e+06
3.86096e+06
3.83562e+06
3.79199e+06
3.72199e+06
3.60828e+06
3.34752e+06
2.98073e+06
4.06952e+06
4.06924e+06
4.0679e+06
4.06593e+06
4.06433e+06
4.06076e+06
4.06328e+06
4.05972e+06
3.97647e+06
3.92428e+06
4.22892e+06
4.36275e+06
4.42751e+06
4.45807e+06
4.47506e+06
4.48467e+06
4.49054e+06
4.18561e+06
4.18594e+06
4.18659e+06
4.18779e+06
4.18991e+06
4.19296e+06
4.20087e+06
4.21188e+06
4.22472e+06
4.28257e+06
4.3737e+06
4.41422e+06
4.44676e+06
4.46573e+06
4.4783e+06
4.48616e+06
4.49126e+06
4.29287e+06
4.2935e+06
4.2952e+06
4.29824e+06
4.30274e+06
4.30881e+06
4.31829e+06
4.32877e+06
4.33925e+06
4.36657e+06
4.40724e+06
4.43596e+06
4.45738e+06
4.47156e+06
4.48124e+06
4.48768e+06
4.49202e+06
4.35421e+06
4.35492e+06
4.3568e+06
4.36013e+06
4.36488e+06
4.37137e+06
4.38006e+06
4.39101e+06
4.40478e+06
4.42268e+06
4.4411e+06
4.45608e+06
4.46847e+06
4.4777e+06
4.48457e+06
4.48948e+06
4.49299e+06
4.40281e+06
4.40341e+06
4.40474e+06
4.40718e+06
4.41057e+06
4.41513e+06
4.42098e+06
4.42794e+06
4.43622e+06
4.44655e+06
4.45756e+06
4.46736e+06
4.47565e+06
4.4822e+06
4.48727e+06
4.49107e+06
4.49389e+06
4.43132e+06
4.43182e+06
4.4329e+06
4.43492e+06
4.43765e+06
4.44126e+06
4.4457e+06
4.45097e+06
4.45696e+06
4.46351e+06
4.47006e+06
4.47612e+06
4.48149e+06
4.48599e+06
4.48965e+06
4.49253e+06
4.49475e+06
4.45233e+06
4.45269e+06
4.45339e+06
4.45475e+06
4.45654e+06
4.45894e+06
4.46185e+06
4.46528e+06
4.46915e+06
4.47339e+06
4.47772e+06
4.48184e+06
4.48558e+06
4.48882e+06
4.49153e+06
4.49375e+06
4.49551e+06
4.46542e+06
4.46568e+06
4.4662e+06
4.46723e+06
4.46856e+06
4.47033e+06
4.47243e+06
4.47487e+06
4.47756e+06
4.48043e+06
4.48333e+06
4.48613e+06
4.48874e+06
4.49107e+06
4.49309e+06
4.49478e+06
4.49618e+06
4.47481e+06
4.47506e+06
4.4754e+06
4.47611e+06
4.47701e+06
4.47822e+06
4.47965e+06
4.48132e+06
4.48317e+06
4.48515e+06
4.48718e+06
4.48918e+06
4.49107e+06
4.49279e+06
4.49432e+06
4.49564e+06
4.49675e+06
4.48111e+06
4.48131e+06
4.48155e+06
4.48208e+06
4.48274e+06
4.48362e+06
4.48465e+06
4.48586e+06
4.48718e+06
4.48859e+06
4.49004e+06
4.49148e+06
4.49287e+06
4.49416e+06
4.49532e+06
4.49635e+06
4.49723e+06
4.48573e+06
4.48588e+06
4.48604e+06
4.48642e+06
4.48688e+06
4.48751e+06
4.48824e+06
4.4891e+06
4.49005e+06
4.49108e+06
4.49214e+06
4.4932e+06
4.49424e+06
4.49522e+06
4.49613e+06
4.49694e+06
4.49764e+06
4.49825e+06
4.49875e+06
4.48898e+06
4.4891e+06
4.48922e+06
4.48949e+06
4.48984e+06
4.4903e+06
4.49085e+06
4.49148e+06
4.49219e+06
4.49294e+06
4.49373e+06
4.49453e+06
4.49532e+06
4.49608e+06
4.49678e+06
4.49742e+06
4.49799e+06
4.49849e+06
4.49891e+06
4.49142e+06
4.4915e+06
4.49159e+06
4.49179e+06
4.49205e+06
4.49239e+06
4.49279e+06
4.49326e+06
4.49379e+06
4.49436e+06
4.49495e+06
4.49556e+06
4.49617e+06
4.49676e+06
4.49732e+06
4.49783e+06
4.49829e+06
4.4987e+06
4.49905e+06
4.49321e+06
4.49329e+06
4.49334e+06
4.4935e+06
4.49369e+06
4.49395e+06
4.49425e+06
4.49461e+06
4.49501e+06
4.49545e+06
4.4959e+06
4.49638e+06
4.49685e+06
4.49731e+06
4.49775e+06
4.49817e+06
4.49854e+06
4.49888e+06
4.49917e+06
4.49459e+06
4.49465e+06
4.49469e+06
4.49481e+06
4.49495e+06
4.49515e+06
4.49538e+06
4.49566e+06
4.49596e+06
4.4963e+06
4.49665e+06
4.49702e+06
4.49739e+06
4.49776e+06
4.49812e+06
4.49845e+06
4.49876e+06
4.49903e+06
4.49928e+06
4.49564e+06
4.49569e+06
4.49572e+06
4.49581e+06
4.49592e+06
4.49608e+06
4.49626e+06
4.49647e+06
4.49671e+06
4.49697e+06
4.49725e+06
4.49754e+06
4.49784e+06
4.49813e+06
4.49841e+06
4.49869e+06
4.49894e+06
4.49917e+06
4.49937e+06
4.49647e+06
4.4965e+06
4.49653e+06
4.4966e+06
4.49669e+06
4.49681e+06
4.49694e+06
4.49711e+06
4.4973e+06
4.49751e+06
4.49773e+06
4.49796e+06
4.4982e+06
4.49843e+06
4.49866e+06
4.49889e+06
4.49909e+06
4.49928e+06
4.49945e+06
4.49711e+06
4.49714e+06
4.49716e+06
4.49722e+06
4.49729e+06
4.49738e+06
4.49749e+06
4.49763e+06
4.49777e+06
4.49794e+06
4.49811e+06
4.4983e+06
4.49849e+06
4.49868e+06
4.49887e+06
4.49905e+06
4.49922e+06
4.49938e+06
4.49953e+06
4.49763e+06
4.49765e+06
4.49767e+06
4.49772e+06
4.49777e+06
4.49784e+06
4.49793e+06
4.49804e+06
4.49816e+06
4.49829e+06
4.49843e+06
4.49858e+06
4.49873e+06
4.49889e+06
4.49905e+06
4.49919e+06
4.49934e+06
4.49947e+06
4.49959e+06
4.49804e+06
4.49806e+06
4.49808e+06
4.49811e+06
4.49816e+06
4.49822e+06
4.49829e+06
4.49837e+06
4.49847e+06
4.49857e+06
4.49869e+06
4.49881e+06
4.49894e+06
4.49906e+06
4.49919e+06
4.49931e+06
4.49943e+06
4.49954e+06
4.49964e+06
4.49838e+06
4.4984e+06
4.49841e+06
4.49844e+06
4.49847e+06
4.49852e+06
4.49858e+06
4.49865e+06
4.49872e+06
4.49881e+06
4.4989e+06
4.499e+06
4.4991e+06
4.49921e+06
4.49931e+06
4.49942e+06
4.49952e+06
4.49961e+06
4.49969e+06
4.49866e+06
4.49867e+06
4.49868e+06
4.4987e+06
4.49873e+06
4.49877e+06
4.49881e+06
4.49887e+06
4.49893e+06
4.499e+06
4.49908e+06
4.49916e+06
4.49925e+06
4.49933e+06
4.49942e+06
4.4995e+06
4.49959e+06
4.49966e+06
4.49974e+06
4.49888e+06
4.49889e+06
4.4989e+06
4.49892e+06
4.49894e+06
4.49897e+06
4.49901e+06
4.49905e+06
4.49911e+06
4.49916e+06
4.49923e+06
4.49929e+06
4.49936e+06
4.49943e+06
4.49951e+06
4.49958e+06
4.49965e+06
4.49971e+06
4.49977e+06
4.49907e+06
4.49908e+06
4.49908e+06
4.4991e+06
4.49911e+06
4.49914e+06
4.49917e+06
4.49921e+06
4.49925e+06
4.4993e+06
4.49935e+06
4.4994e+06
4.49946e+06
4.49952e+06
4.49958e+06
4.49964e+06
4.4997e+06
4.49975e+06
4.4998e+06
4.49922e+06
4.49923e+06
4.49923e+06
4.49924e+06
4.49926e+06
4.49928e+06
4.4993e+06
4.49934e+06
4.49937e+06
4.49941e+06
4.49945e+06
4.4995e+06
4.49955e+06
4.49959e+06
4.49964e+06
4.49969e+06
4.49974e+06
4.49979e+06
4.49983e+06
4.49935e+06
4.49935e+06
4.49936e+06
4.49937e+06
4.49938e+06
4.4994e+06
4.49942e+06
4.49944e+06
4.49947e+06
4.4995e+06
4.49954e+06
4.49958e+06
4.49962e+06
4.49966e+06
4.4997e+06
4.49974e+06
4.49978e+06
4.49982e+06
4.49986e+06
4.49945e+06
4.49946e+06
4.49946e+06
4.49947e+06
4.49948e+06
4.49949e+06
4.49951e+06
4.49953e+06
4.49955e+06
4.49958e+06
4.49961e+06
4.49964e+06
4.49968e+06
4.49971e+06
4.49974e+06
4.49978e+06
4.49981e+06
4.49985e+06
4.49988e+06
4.49954e+06
4.49955e+06
4.49955e+06
4.49955e+06
4.49956e+06
4.49957e+06
4.49959e+06
4.49961e+06
4.49963e+06
4.49965e+06
4.49967e+06
4.4997e+06
4.49973e+06
4.49975e+06
4.49978e+06
4.49981e+06
4.49984e+06
4.49987e+06
4.4999e+06
4.49962e+06
4.49962e+06
4.49962e+06
4.49963e+06
4.49963e+06
4.49964e+06
4.49966e+06
4.49967e+06
4.49969e+06
4.4997e+06
4.49972e+06
4.49975e+06
4.49977e+06
4.49979e+06
4.49982e+06
4.49984e+06
4.49987e+06
4.49989e+06
4.49991e+06
4.49968e+06
4.49968e+06
4.49968e+06
4.49969e+06
4.49969e+06
4.4997e+06
4.49971e+06
4.49972e+06
4.49974e+06
4.49975e+06
4.49977e+06
4.49979e+06
4.49981e+06
4.49983e+06
4.49985e+06
4.49987e+06
4.49989e+06
4.49991e+06
4.49992e+06
4.49973e+06
4.49973e+06
4.49974e+06
4.49974e+06
4.49974e+06
4.49975e+06
4.49976e+06
4.49977e+06
4.49978e+06
4.49979e+06
4.49981e+06
4.49982e+06
4.49984e+06
4.49985e+06
4.49987e+06
4.49989e+06
4.4999e+06
4.49992e+06
4.49994e+06
4.49978e+06
4.49978e+06
4.49978e+06
4.49978e+06
4.49979e+06
4.49979e+06
4.4998e+06
4.49981e+06
4.49982e+06
4.49983e+06
4.49984e+06
4.49985e+06
4.49986e+06
4.49988e+06
4.49989e+06
4.49991e+06
4.49992e+06
4.49993e+06
4.49995e+06
4.49982e+06
4.49982e+06
4.49982e+06
4.49982e+06
4.49982e+06
4.49983e+06
4.49983e+06
4.49984e+06
4.49985e+06
4.49986e+06
4.49987e+06
4.49988e+06
4.49989e+06
4.4999e+06
4.49991e+06
4.49992e+06
4.49993e+06
4.49995e+06
4.49996e+06
4.49985e+06
4.49985e+06
4.49985e+06
4.49985e+06
4.49986e+06
4.49986e+06
4.49986e+06
4.49987e+06
4.49988e+06
4.49988e+06
4.49989e+06
4.4999e+06
4.49991e+06
4.49992e+06
4.49993e+06
4.49994e+06
4.49995e+06
4.49996e+06
4.49996e+06
4.49988e+06
4.49988e+06
4.49988e+06
4.49988e+06
4.49988e+06
4.49989e+06
4.49989e+06
4.4999e+06
4.4999e+06
4.49991e+06
4.49991e+06
4.49992e+06
4.49993e+06
4.49993e+06
4.49994e+06
4.49995e+06
4.49996e+06
4.49996e+06
4.49997e+06
4.49991e+06
4.49991e+06
4.49991e+06
4.49991e+06
4.49991e+06
4.49991e+06
4.49992e+06
4.49992e+06
4.49992e+06
4.49993e+06
4.49993e+06
4.49994e+06
4.49994e+06
4.49995e+06
4.49995e+06
4.49996e+06
4.49997e+06
4.49997e+06
4.49998e+06
4.49993e+06
4.49993e+06
4.49993e+06
4.49993e+06
4.49993e+06
4.49993e+06
4.49994e+06
4.49994e+06
4.49994e+06
4.49994e+06
4.49995e+06
4.49995e+06
4.49996e+06
4.49996e+06
4.49997e+06
4.49997e+06
4.49997e+06
4.49998e+06
4.49998e+06
4.49995e+06
4.49995e+06
4.49995e+06
4.49995e+06
4.49995e+06
4.49995e+06
4.49996e+06
4.49996e+06
4.49996e+06
4.49996e+06
4.49996e+06
4.49997e+06
4.49997e+06
4.49997e+06
4.49998e+06
4.49998e+06
4.49998e+06
4.49999e+06
4.49999e+06
4.49997e+06
4.49997e+06
4.49997e+06
4.49997e+06
4.49997e+06
4.49997e+06
4.49997e+06
4.49997e+06
4.49998e+06
4.49998e+06
4.49998e+06
4.49998e+06
4.49998e+06
4.49998e+06
4.49999e+06
4.49999e+06
4.49999e+06
4.49999e+06
4.49999e+06
4.49999e+06
4.49999e+06
4.49999e+06
4.49999e+06
4.49999e+06
4.49999e+06
4.49999e+06
4.49999e+06
4.5e+06
4.5e+06
4.5e+06
4.5e+06
4.5e+06
4.5e+06
4.5e+06
4.5e+06
4.5e+06
4.5e+06
4.5e+06
3.71004e+06
3.71364e+06
3.70923e+06
3.71222e+06
3.71062e+06
3.71676e+06
3.72602e+06
3.74198e+06
3.68566e+06
3.68531e+06
3.68494e+06
3.6853e+06
3.68527e+06
3.69142e+06
3.70279e+06
3.71769e+06
3.72724e+06
3.73713e+06
3.73023e+06
3.71813e+06
3.66652e+06
3.58037e+06
3.5567e+06
3.65557e+06
3.65132e+06
3.65489e+06
3.65247e+06
3.65513e+06
3.6593e+06
3.67067e+06
3.68119e+06
3.68878e+06
3.69343e+06
3.69145e+06
3.67766e+06
3.64939e+06
3.56931e+06
3.54284e+06
3.62376e+06
3.61676e+06
3.6228e+06
3.61803e+06
3.62284e+06
3.62393e+06
3.6319e+06
3.63535e+06
3.63804e+06
3.63609e+06
3.63908e+06
3.62792e+06
3.61519e+06
3.55426e+06
3.52472e+06
3.5921e+06
3.58549e+06
3.59063e+06
3.58662e+06
3.58988e+06
3.58925e+06
3.59042e+06
3.58644e+06
3.58317e+06
3.57596e+06
3.58156e+06
3.57736e+06
3.5723e+06
3.53333e+06
3.50569e+06
3.5626e+06
3.55958e+06
3.56094e+06
3.56061e+06
3.55972e+06
3.55758e+06
3.55196e+06
3.54236e+06
3.53464e+06
3.52517e+06
3.53098e+06
3.53323e+06
3.53191e+06
3.50918e+06
3.48894e+06
3.53836e+06
3.53904e+06
3.53647e+06
3.53965e+06
3.53486e+06
3.53095e+06
3.52118e+06
3.50911e+06
3.49984e+06
3.49107e+06
3.49591e+06
3.50127e+06
3.50172e+06
3.48875e+06
3.47639e+06
3.51978e+06
3.52179e+06
3.51762e+06
3.5222e+06
3.51558e+06
3.51031e+06
3.49978e+06
3.48823e+06
3.48008e+06
3.47388e+06
3.47737e+06
3.48253e+06
3.48293e+06
3.47563e+06
3.4678e+06
3.50626e+06
3.50643e+06
3.50408e+06
3.50696e+06
3.50123e+06
3.49517e+06
3.48643e+06
3.47719e+06
3.47153e+06
3.46834e+06
3.47036e+06
3.47345e+06
3.47292e+06
3.46864e+06
3.46197e+06
3.4955e+06
3.49228e+06
3.49406e+06
3.49342e+06
3.49038e+06
3.48414e+06
3.47824e+06
3.47166e+06
3.4685e+06
3.46757e+06
3.46825e+06
3.46916e+06
3.46793e+06
3.46483e+06
3.45776e+06
3.48736e+06
3.48002e+06
3.48589e+06
3.48176e+06
3.4817e+06
3.47567e+06
3.47241e+06
3.46792e+06
3.46644e+06
3.4666e+06
3.46643e+06
3.46608e+06
3.46477e+06
3.46186e+06
3.45431e+06
3.48018e+06
3.46987e+06
3.47864e+06
3.47204e+06
3.47425e+06
3.46863e+06
3.46721e+06
3.46398e+06
3.46329e+06
3.46357e+06
3.46318e+06
3.46261e+06
3.46164e+06
3.45868e+06
3.45116e+06
3.47352e+06
3.46167e+06
3.47193e+06
3.46417e+06
3.46763e+06
3.46253e+06
3.46206e+06
3.45946e+06
3.45896e+06
3.45893e+06
3.45874e+06
3.45856e+06
3.45807e+06
3.45516e+06
3.4482e+06
3.46728e+06
3.45563e+06
3.4659e+06
3.45806e+06
3.46175e+06
3.45729e+06
3.45709e+06
3.45484e+06
3.45426e+06
3.45395e+06
3.45405e+06
3.45437e+06
3.45427e+06
3.45157e+06
3.44548e+06
3.46166e+06
3.45132e+06
3.46044e+06
3.45347e+06
3.45663e+06
3.45292e+06
3.45261e+06
3.45067e+06
3.44999e+06
3.44959e+06
3.44987e+06
3.45054e+06
3.45062e+06
3.44825e+06
3.44308e+06
3.45649e+06
3.44853e+06
3.45561e+06
3.45011e+06
3.45228e+06
3.44938e+06
3.44882e+06
3.44724e+06
3.44652e+06
3.44622e+06
3.44653e+06
3.44733e+06
3.44741e+06
3.44537e+06
3.44106e+06
3.45181e+06
3.44669e+06
3.45132e+06
3.44755e+06
3.44861e+06
3.44653e+06
3.44573e+06
3.44452e+06
3.44384e+06
3.44371e+06
3.44394e+06
3.44473e+06
3.44473e+06
3.44298e+06
3.43941e+06
3.44769e+06
3.44535e+06
3.44756e+06
3.44545e+06
3.44551e+06
3.44419e+06
3.44322e+06
3.44235e+06
3.44174e+06
3.44175e+06
3.44188e+06
3.4426e+06
3.44252e+06
3.44097e+06
3.43806e+06
3.44393e+06
3.44401e+06
3.44422e+06
3.44357e+06
3.44287e+06
3.44216e+06
3.44113e+06
3.44052e+06
3.44e+06
3.44009e+06
3.44014e+06
3.44079e+06
3.44065e+06
3.43923e+06
3.437e+06
3.44064e+06
3.44254e+06
3.44135e+06
3.44178e+06
3.44062e+06
3.44035e+06
3.43934e+06
3.43891e+06
3.43848e+06
3.43859e+06
3.43858e+06
3.43916e+06
3.43903e+06
3.43769e+06
3.43619e+06
3.43791e+06
3.44093e+06
3.43891e+06
3.44002e+06
3.43869e+06
3.43869e+06
3.43779e+06
3.43745e+06
3.43711e+06
3.43718e+06
3.43717e+06
3.43768e+06
3.43757e+06
3.43631e+06
3.43562e+06
3.43563e+06
3.43938e+06
3.43698e+06
3.43834e+06
3.43703e+06
3.43717e+06
3.43642e+06
3.43612e+06
3.43587e+06
3.43589e+06
3.43588e+06
3.43633e+06
3.43625e+06
3.43507e+06
3.43528e+06
3.43395e+06
3.43769e+06
3.43537e+06
3.43677e+06
3.43564e+06
3.43578e+06
3.4352e+06
3.4349e+06
3.43474e+06
3.43469e+06
3.43471e+06
3.4351e+06
3.43506e+06
3.434e+06
3.43516e+06
3.43275e+06
3.43612e+06
3.43414e+06
3.43535e+06
3.43447e+06
3.43454e+06
3.43412e+06
3.43381e+06
3.43372e+06
3.43361e+06
3.43368e+06
3.43398e+06
3.43399e+06
3.43308e+06
3.43527e+06
3.43203e+06
3.43469e+06
3.43323e+06
3.4341e+06
3.4335e+06
3.43344e+06
3.43318e+06
3.43282e+06
3.43279e+06
3.43263e+06
3.43274e+06
3.433e+06
3.43304e+06
3.4324e+06
3.43558e+06
3.43197e+06
3.43349e+06
3.43259e+06
3.43302e+06
3.43269e+06
3.43249e+06
3.43234e+06
3.43194e+06
3.43195e+06
3.43175e+06
3.43189e+06
3.43212e+06
3.43221e+06
3.43197e+06
3.43604e+06
3.43181e+06
3.43245e+06
3.43212e+06
3.43213e+06
3.43203e+06
3.43168e+06
3.43162e+06
3.43118e+06
3.43121e+06
3.43098e+06
3.43113e+06
3.43137e+06
3.43152e+06
3.43173e+06
3.43162e+06
3.43176e+06
3.43141e+06
3.43149e+06
3.43102e+06
3.43102e+06
3.43052e+06
3.43058e+06
3.43032e+06
3.43048e+06
3.43076e+06
3.43101e+06
3.43168e+06
3.43097e+06
3.43147e+06
3.43086e+06
3.43105e+06
3.4305e+06
3.43054e+06
3.42999e+06
3.43009e+06
3.42979e+06
3.42996e+06
3.43031e+06
3.43071e+06
3.4313e+06
3.43046e+06
3.43122e+06
3.43048e+06
3.43072e+06
3.43015e+06
3.43019e+06
3.4296e+06
3.42978e+06
3.4294e+06
3.42962e+06
3.43003e+06
3.43066e+06
3.4312e+06
3.43019e+06
3.431e+06
3.43024e+06
3.43046e+06
3.42994e+06
3.42997e+06
3.42936e+06
3.42967e+06
3.42914e+06
3.4295e+06
3.42993e+06
3.43082e+06
3.43105e+06
3.43006e+06
3.4308e+06
3.43013e+06
3.43027e+06
3.42986e+06
3.42982e+06
3.42927e+06
3.42975e+06
3.42902e+06
3.42968e+06
3.4301e+06
3.43121e+06
3.43091e+06
3.43005e+06
3.43062e+06
3.43007e+06
3.43009e+06
3.42986e+06
3.42966e+06
3.42931e+06
3.42991e+06
3.42891e+06
3.42995e+06
3.43036e+06
3.43142e+06
3.43062e+06
3.43003e+06
3.43044e+06
3.43004e+06
3.42994e+06
3.42991e+06
3.42945e+06
3.42951e+06
3.42999e+06
3.42894e+06
3.43046e+06
3.43092e+06
3.43174e+06
3.43049e+06
3.43014e+06
3.43032e+06
3.43001e+06
3.42978e+06
3.42982e+06
3.42906e+06
3.42964e+06
3.42926e+06
3.4285e+06
3.42957e+06
3.43089e+06
3.43096e+06
3.43039e+06
3.43027e+06
3.43022e+06
3.42996e+06
3.42959e+06
3.42945e+06
3.42845e+06
3.42914e+06
3.42727e+06
3.42852e+06
3.42869e+06
3.43139e+06
3.43142e+06
3.4305e+06
3.43068e+06
3.43039e+06
3.43021e+06
3.42977e+06
3.42943e+06
3.42838e+06
3.42817e+06
3.42489e+06
3.42825e+06
3.41974e+06
3.42978e+06
3.43225e+06
3.43096e+06
3.43149e+06
3.43099e+06
3.43104e+06
3.43068e+06
3.43053e+06
3.43007e+06
3.43e+06
3.42936e+06
3.43075e+06
3.43153e+06
3.43235e+06
3.43167e+06
3.4319e+06
3.43154e+06
3.43156e+06
3.43128e+06
3.43135e+06
3.43124e+06
3.43156e+06
3.43218e+06
3.43326e+06
3.43249e+06
3.43288e+06
3.43253e+06
3.43267e+06
3.43252e+06
3.4327e+06
3.43271e+06
3.43288e+06
3.43297e+06
3.43417e+06
3.43327e+06
3.43376e+06
3.4334e+06
3.43362e+06
3.43352e+06
3.43375e+06
3.43375e+06
3.43384e+06
3.43378e+06
3.43498e+06
3.43403e+06
3.43457e+06
3.4342e+06
3.43447e+06
3.43439e+06
3.43465e+06
3.43466e+06
3.43474e+06
3.43454e+06
3.43564e+06
3.43468e+06
3.4352e+06
3.43484e+06
3.43514e+06
3.43509e+06
3.43539e+06
3.4354e+06
3.43548e+06
3.43495e+06
3.43598e+06
3.43516e+06
3.43568e+06
3.43532e+06
3.43566e+06
3.43563e+06
3.43596e+06
3.43598e+06
3.43606e+06
3.43541e+06
3.43624e+06
3.43547e+06
3.43596e+06
3.43562e+06
3.436e+06
3.43598e+06
3.43636e+06
3.43639e+06
3.43647e+06
3.43557e+06
3.43623e+06
3.43553e+06
3.43605e+06
3.43573e+06
3.43615e+06
3.43614e+06
3.43656e+06
3.43661e+06
3.4367e+06
3.43547e+06
3.43606e+06
3.43538e+06
3.43591e+06
3.4356e+06
3.43608e+06
3.43609e+06
3.43656e+06
3.43663e+06
3.43672e+06
3.43497e+06
3.43561e+06
3.43493e+06
3.43554e+06
3.43522e+06
3.43578e+06
3.43582e+06
3.43634e+06
3.43643e+06
3.43652e+06
3.43417e+06
3.43496e+06
3.43419e+06
3.43491e+06
3.43458e+06
3.43522e+06
3.43529e+06
3.43587e+06
3.436e+06
3.43609e+06
3.433e+06
3.43403e+06
3.43312e+06
3.43399e+06
3.43365e+06
3.43438e+06
3.4345e+06
3.43514e+06
3.4353e+06
3.43539e+06
3.43148e+06
3.4328e+06
3.43175e+06
3.43277e+06
3.43243e+06
3.43324e+06
3.43344e+06
3.43412e+06
3.43433e+06
3.43442e+06
3.42961e+06
3.43119e+06
3.43007e+06
3.43122e+06
3.43089e+06
3.43176e+06
3.43206e+06
3.43279e+06
3.43305e+06
3.43314e+06
3.42754e+06
3.42926e+06
3.4281e+06
3.42929e+06
3.42904e+06
3.42992e+06
3.43033e+06
3.4311e+06
3.43142e+06
3.43151e+06
3.42523e+06
3.4269e+06
3.42582e+06
3.42696e+06
3.42685e+06
3.42769e+06
3.42823e+06
3.42902e+06
3.42939e+06
3.42949e+06
3.42272e+06
3.42409e+06
3.42325e+06
3.42419e+06
3.42428e+06
3.42504e+06
3.42571e+06
3.42651e+06
3.42694e+06
3.42704e+06
3.41994e+06
3.42074e+06
3.42033e+06
3.42095e+06
3.42131e+06
3.42194e+06
3.42273e+06
3.42354e+06
3.42402e+06
3.42413e+06
3.41689e+06
3.41687e+06
3.41701e+06
3.4172e+06
3.41784e+06
3.41831e+06
3.41924e+06
3.42006e+06
3.42059e+06
3.42071e+06
3.41341e+06
3.41241e+06
3.41319e+06
3.4129e+06
3.41383e+06
3.41413e+06
3.41518e+06
3.41602e+06
3.41657e+06
3.41671e+06
3.40932e+06
3.40729e+06
3.40875e+06
3.40798e+06
3.40918e+06
3.40933e+06
3.41048e+06
3.41135e+06
3.41193e+06
3.41209e+06
3.40429e+06
3.40142e+06
3.40356e+06
3.40239e+06
3.40382e+06
3.40386e+06
3.40507e+06
3.40599e+06
3.40659e+06
3.40677e+06
3.3985e+06
3.39498e+06
3.39756e+06
3.39611e+06
3.39768e+06
3.39766e+06
3.39889e+06
3.39986e+06
3.40047e+06
3.40069e+06
3.39164e+06
3.38782e+06
3.39067e+06
3.3891e+06
3.39071e+06
3.39066e+06
3.39188e+06
3.39289e+06
3.3935e+06
3.39375e+06
3.3838e+06
3.3801e+06
3.38289e+06
3.38136e+06
3.38288e+06
3.38283e+06
3.38397e+06
3.38498e+06