/*--------------------------------*- C++ -*----------------------------------*\
| =========                 |                                                 |
| \\      /  F ield         | OpenFOAM: The Open Source CFD Toolbox           |
|  \\    /   O peration     | Version:  v2012                                 |
|   \\  /    A nd           | Website:  www.openfoam.com                      |
|    \\/     M anipulation  |                                                 |
\*---------------------------------------------------------------------------*/
FoamFile
{
    version     2.0;
    format      ascii;
    class       volVectorField;
    location    "0.45";
    object      U;
}
// * * * * * * * * * * * * * * * * * * * * * * * * * * * * * * * * * * * * * //

dimensions      [0 1 -1 0 0 0 0];


internalField   nonuniform List<vector> 
3332
(
(-0.179069 -47.9785 0.00156277)
(0.30257 -49.9225 -0.00264076)
(-0.62527 -45.7373 0.00545537)
(-1.49512 -31.9033 0.0130475)
(-1.92146 -27.9101 0.0167705)
(-1.35509 -29.7206 0.0118298)
(-0.468946 -31.8246 0.00409662)
(0.71495 -30.2148 -0.00623599)
(-0.177112 -47.9604 0.00154569)
(0.289878 -49.6266 -0.00253002)
(-0.675352 -43.7511 0.00589254)
(-1.35471 -30.3341 0.0118227)
(-1.41584 -27.7183 0.0123586)
(-0.306211 -30.9576 0.00267657)
(0.893059 -33.5159 -0.00779047)
(1.98965 -31.9031 -0.0173616)
(2.6322 -26.0226 -0.0229719)
(3.23702 -15.6215 -0.0282512)
(2.71229 -4.30062 -0.0239434)
(0.980634 -4.67418 -0.00864816)
(0.439014 -4.85968 -0.00386799)
(0.205717 -4.35475 -0.0018045)
(0.00611351 -3.8617 -5.52783e-05)
(-0.166989 -47.9355 0.00145734)
(0.265149 -49.2642 -0.00231422)
(-0.67793 -41.9594 0.00591523)
(-1.14378 -29.4065 0.00998241)
(-0.651284 -28.6109 0.00568699)
(0.914447 -33.1658 -0.00797642)
(2.25362 -35.7002 -0.0196654)
(3.17658 -33.7849 -0.0277219)
(3.80504 -27.2629 -0.033209)
(3.81982 -16.4232 -0.033339)
(3.94286 -3.18399 -0.0345606)
(1.47978 -3.0426 -0.0130625)
(0.656166 -4.33903 -0.00577349)
(0.3552 -4.08242 -0.00311545)
(0.122019 -3.66049 -0.00106802)
(-0.149827 -47.9079 0.00130755)
(0.232067 -48.8779 -0.00202551)
(-0.634856 -40.4615 0.00553957)
(-0.862877 -29.321 0.00753165)
(0.297984 -30.7126 -0.00259695)
(2.04564 -35.9975 -0.0178493)
(3.31569 -38.1327 -0.0289358)
(3.95497 -35.618 -0.0345169)
(4.42744 -28.3336 -0.038642)
(3.94075 -17.1325 -0.0343958)
(4.53006 -2.54044 -0.0396024)
(1.94356 -0.821437 -0.017192)
(0.85603 -3.62382 -0.00751659)
(0.471638 -3.75954 -0.00413752)
(0.219361 -3.43625 -0.00191931)
(-0.129448 -47.8805 0.00112969)
(0.198825 -48.5049 -0.0017354)
(-0.573203 -39.3461 0.0050018)
(-0.483978 -30.1978 0.00422564)
(1.232 -33.738 -0.0107483)
(2.82413 -39.0206 -0.0246447)
(3.83036 -40.3958 -0.0334289)
(4.12451 -37.1112 -0.0359981)
(4.33429 -29.0708 -0.03783)
(3.5323 -17.5296 -0.0308319)
(4.13431 -2.33183 -0.0361069)
(2.12314 1.32556 -0.0187822)
(0.994479 -2.77417 -0.00871095)
(0.548206 -3.38989 -0.00480777)
(0.287294 -3.19723 -0.00251412)
(-0.111684 -47.8567 0.000974664)
(0.175651 -48.1655 -0.00153315)
(-0.521003 -38.6844 0.00454655)
(-0.0267284 -32.0098 0.000235588)
(1.92305 -37.1012 -0.0167799)
(3.11094 -41.7283 -0.0271493)
(3.73415 -42.1545 -0.0325903)
(3.73391 -38.0901 -0.0325903)
(3.65937 -29.3687 -0.0319405)
(2.7207 -17.5061 -0.0237485)
(3.05232 -2.30601 -0.0266487)
(1.89443 2.80742 -0.016719)
(1.02495 -1.97125 -0.00896166)
(0.583343 -3.00319 -0.00511077)
(0.321854 -2.95437 -0.00281701)
(-0.099295 -47.8396 0.000866536)
(0.163073 -47.8619 -0.0014234)
(-0.484217 -38.4889 0.00422579)
(0.416473 -34.4713 -0.00363221)
(2.22057 -40.2423 -0.0193774)
(2.93907 -43.7746 -0.0256507)
(3.19812 -43.3024 -0.027913)
(3.02289 -38.5597 -0.0263854)
(2.7213 -29.2416 -0.0237543)
(1.78549 -17.0974 -0.0155867)
(1.78363 -2.31778 -0.0155714)
(1.41404 3.47088 -0.0124329)
(0.952711 -1.41084 -0.00832002)
(0.582681 -2.64869 -0.0050978)
(0.330013 -2.71921 -0.00288824)
(-0.0903099 -47.8299 0.000788123)
(0.154655 -47.5869 -0.00134995)
(-0.449704 -38.6917 0.00392481)
(0.758007 -37.1599 -0.00661306)
(2.12655 -42.7543 -0.018558)
(2.48631 -45.1203 -0.0217001)
(2.49319 -43.9453 -0.0217611)
(2.26624 -38.6484 -0.0197818)
(1.833 -28.8137 -0.0160019)
(1.01403 -16.4315 -0.00885479)
(0.732061 -2.34529 -0.00639156)
(0.948136 3.42796 -0.008298)
(0.837052 -1.14868 -0.00730154)
(0.557864 -2.36022 -0.00487484)
(0.323611 -2.49996 -0.00283148)
(-0.0809487 -47.8277 0.000706425)
(0.141426 -47.3391 -0.00123452)
(-0.398026 -39.185 0.00347394)
(0.94927 -39.6748 -0.00828269)
(1.78512 -44.5309 -0.0155791)
(1.96941 -45.937 -0.0171892)
(1.84152 -44.2698 -0.0160736)
(1.64896 -38.5309 -0.014394)
(1.18685 -28.2694 -0.0103622)
(0.561778 -15.69 -0.0049084)
(0.119423 -2.41164 -0.00104315)
(0.676007 2.94119 -0.00589079)
(0.734625 -1.08988 -0.00640207)
(0.522396 -2.13734 -0.00456241)
(0.31146 -2.29968 -0.00272444)
(-0.0679925 -47.8313 0.000593355)
(0.119292 -47.1248 -0.00104136)
(-0.321612 -39.8557 0.00280712)
(0.997868 -41.7764 -0.00870733)
(1.38284 -45.7008 -0.0120688)
(1.52951 -46.4448 -0.0133499)
(1.35363 -44.4426 -0.0118153)
(1.23399 -38.3663 -0.0107718)
(0.826049 -27.7776 -0.00721241)
(0.408946 -15.0526 -0.00357422)
(-0.0408846 -2.53106 0.000356392)
(0.609249 2.31353 -0.00530286)
(0.665468 -1.09581 -0.00579901)
(0.486269 -1.95819 -0.0042476)
(0.297358 -2.11707 -0.00260076)
(-0.0514047 -47.8398 0.000448585)
(0.0899778 -46.9547 -0.000785507)
(-0.227461 -40.6068 0.00198546)
(0.951658 -43.4175 -0.00830449)
(1.04596 -46.4719 -0.00912901)
(1.20853 -46.8051 -0.0105483)
(1.03938 -44.5769 -0.00907257)
(0.9928 -38.2559 -0.0086662)
(0.681384 -27.4289 -0.00594909)
(0.423399 -14.6279 -0.00369907)
(0.0908437 -2.69548 -0.000793583)
(0.652128 1.77565 -0.0056836)
(0.621717 -1.07262 -0.00542279)
(0.453321 -1.79991 -0.00396225)
(0.281895 -1.94864 -0.00246565)
(-0.0320249 -47.8527 0.000279447)
(0.0567301 -46.8376 -0.000495343)
(-0.12624 -41.3813 0.00110207)
(0.86511 -44.6666 -0.00754951)
(0.813832 -47.0193 -0.00710325)
(0.989571 -47.1045 -0.00863712)
(0.855089 -44.7283 -0.00746394)
(0.859179 -38.2314 -0.00749959)
(0.644617 -27.2251 -0.00562766)
(0.469291 -14.416 -0.00409785)
(0.293984 -2.89397 -0.00256626)
(0.70197 1.41856 -0.00612594)
(0.587335 -0.993297 -0.0051298)
(0.422799 -1.64932 -0.00369813)
(0.264583 -1.79118 -0.00231462)
(-0.0104754 -47.8694 9.13728e-05)
(0.0209997 -46.7766 -0.000183489)
(-0.0255788 -42.1568 0.000223548)
(0.773403 -45.6227 -0.00674942)
(0.671581 -47.447 -0.0058618)
(0.837465 -47.3757 -0.00730948)
(0.745594 -44.9072 -0.00650813)
(0.772497 -38.2747 -0.00674282)
(0.630107 -27.1161 -0.00550065)
(0.475386 -14.3354 -0.00414981)
(0.413964 -3.11086 -0.00361317)
(0.701747 1.20978 -0.00612784)
(0.550229 -0.877098 -0.00481159)
(0.392471 -1.50327 -0.00343486)
(0.245016 -1.64277 -0.0021439)
(0.0130733 -47.8905 -0.000114153)
(-0.0164775 -46.7696 0.000143606)
(0.068379 -42.9299 -0.000596473)
(0.687548 -46.3695 -0.00600034)
(0.586945 -47.8038 -0.00512314)
(0.721301 -47.6242 -0.00629561)
(0.669194 -45.1009 -0.00584117)
(0.697474 -38.3509 -0.00608792)
(0.598167 -27.0465 -0.00522171)
(0.434622 -14.2911 -0.00379376)
(0.412827 -3.32234 -0.00360315)
(0.64299 1.06694 -0.00561537)
(0.505799 -0.759058 -0.00442691)
(0.360569 -1.36433 -0.00315687)
(0.223128 -1.50271 -0.00195282)
(0.0370324 -47.9158 -0.000323257)
(-0.0535605 -46.8073 0.00046725)
(0.148729 -43.6952 -0.00129774)
(0.605899 -46.9637 -0.00528791)
(0.531544 -48.1079 -0.00463962)
(0.622542 -47.8467 -0.00543367)
(0.603828 -45.2924 -0.00527054)
(0.622545 -38.4321 -0.00543389)
(0.545531 -26.9804 -0.00476218)
(0.369774 -14.2226 -0.00322795)
(0.331596 -3.50446 -0.00289411)
(0.547666 0.925807 -0.00478169)
(0.455141 -0.666506 -0.00398579)
(0.326304 -1.23621 -0.00285757)
(0.199065 -1.37093 -0.00174262)
(0.059146 -47.9453 -0.000516256)
(-0.0863872 -46.8768 0.00075375)
(0.207507 -44.4376 -0.00181074)
(0.525482 -47.4424 -0.00458619)
(0.486741 -48.3668 -0.00424857)
(0.533463 -48.0413 -0.00465623)
(0.541804 -45.471 -0.00472913)
(0.549319 -38.5055 -0.00479476)
(0.484843 -26.9045 -0.0042324)
(0.304922 -14.1125 -0.00266208)
(0.228663 -3.64424 -0.00199566)
(0.446374 0.758642 -0.00389541)
(0.402027 -0.609041 -0.00352203)
(0.289776 -1.121 -0.00253818)
(0.173023 -1.24757 -0.00151503)
(0.0767958 -47.9792 -0.000670293)
(-0.110964 -46.9613 0.000968239)
(0.239943 -45.1364 -0.00209385)
(0.447052 -47.8328 -0.00390178)
(0.443553 -48.5858 -0.00387161)
(0.453247 -48.2103 -0.00395615)
(0.482845 -45.6342 -0.00421448)
(0.483112 -38.5705 -0.00421691)
(0.428865 -26.8204 -0.00374378)
(0.253577 -13.9698 -0.00221407)
(0.142304 -3.74207 -0.00124186)
(0.359935 0.568414 -0.0031394)
(0.349654 -0.578647 -0.00306445)
(0.251345 -1.01806 -0.00220222)
(0.144922 -1.13243 -0.00126947)
(0.088075 -48.0175 -0.000768722)
(-0.12471 -47.0452 0.0010882)
(0.247052 -45.7722 -0.00215593)
(0.374128 -48.1562 -0.00326539)
(0.398922 -48.7704 -0.00348206)
(0.382968 -48.359 -0.00334278)
(0.4283 -45.7842 -0.00373837)
(0.427249 -38.6321 -0.00372933)
(0.383692 -26.7355 -0.00334949)
(0.217858 -13.8102 -0.00190246)
(0.0833311 -3.80449 -0.000727238)
(0.292438 0.370934 -0.00254952)
(0.298335 -0.562454 -0.00261634)
(0.2111 -0.924913 -0.00185057)
(0.114496 -1.02491 -0.00100361)
(0.0922851 -48.06 -0.000805468)
(-0.126806 -47.1188 0.00110648)
(0.235509 -46.3332 -0.00205523)
(0.31114 -48.4298 -0.00271568)
(0.353579 -48.9261 -0.00308629)
(0.323804 -48.4929 -0.00282642)
(0.379366 -45.9254 -0.00331124)
(0.382304 -38.6958 -0.00333704)
(0.3497 -26.6556 -0.00305276)
(0.193767 -13.6449 -0.00169224)
(0.0463495 -3.8381 -0.00040482)
(0.238343 0.183226 -0.00207723)
(0.247015 -0.549636 -0.00216838)
(0.16896 -0.839259 -0.00148243)
(0.0815798 -0.924383 -0.00071603)
(0.089373 -48.1064 -0.000780053)
(-0.117602 -47.1809 0.00102614)
(0.213995 -46.8172 -0.00186751)
(0.260821 -48.6657 -0.00227654)
(0.309294 -49.0571 -0.00269976)
(0.275654 -48.6163 -0.00240617)
(0.33631 -46.0614 -0.00293543)
(0.346836 -38.765 -0.00302744)
(0.324367 -26.5833 -0.0028316)
(0.176073 -13.4775 -0.00153778)
(0.0210035 -3.8472 -0.000183813)
(0.190193 0.0174236 -0.00165749)
(0.194789 -0.533966 -0.00171253)
(0.124905 -0.75942 -0.00109753)
(0.0461749 -0.830234 -0.000406717)
(0.0801085 -48.1558 -0.000699198)
(-0.0984764 -47.2388 0.000859246)
(0.190505 -47.2295 -0.00166255)
(0.223916 -48.8711 -0.00195446)
(0.268184 -49.1669 -0.00234095)
(0.237722 -48.7318 -0.0020751)
(0.299116 -46.1944 -0.0026108)
(0.318981 -38.8407 -0.00278429)
(0.305027 -26.5186 -0.00266274)
(0.161273 -13.3062 -0.00140852)
(-0.000942242 -3.83337 7.85636e-06)
(0.142887 -0.120474 -0.00124539)
(0.141449 -0.513245 -0.00124693)
(0.0791462 -0.684287 -0.00069773)
(0.00854343 -0.741889 -7.79663e-05)
(0.0660652 -48.2081 -0.000576635)
(-0.0717639 -47.3046 0.000626139)
(0.169937 -47.5796 -0.0014831)
(0.198937 -49.0499 -0.00173646)
(0.231365 -49.2579 -0.00201961)
(0.208451 -48.841 -0.00181962)
(0.267461 -46.3259 -0.00233451)
(0.296953 -38.9224 -0.00259201)
(0.289787 -26.46 -0.00252971)
(0.14771 -13.127 -0.00129023)
(-0.0235621 -3.79621 0.000205357)
(0.0945565 -0.22899 -0.000824805)
(0.0873587 -0.48714 -0.000774818)
(0.0321294 -0.613078 -0.000286936)
(-0.0307691 -0.658867 0.000265452)
(0.0489655 -48.2629 -0.000427397)
(-0.0406458 -47.3906 0.000354579)
(0.154395 -47.8781 -0.0013475)
(0.183527 -49.2042 -0.00160198)
(0.199444 -49.3326 -0.00174102)
(0.186241 -48.9447 -0.00162577)
(0.241049 -46.4563 -0.00210397)
(0.279459 -39.0092 -0.00243931)
(0.277675 -26.4057 -0.00242398)
(0.135079 -12.9357 -0.00118016)
(-0.0478911 -3.73619 0.000417568)
(0.0449769 -0.307452 -0.00039412)
(0.0331522 -0.45584 -0.00030184)
(-0.015359 -0.545175 0.000127987)
(-0.0709561 -0.580801 0.000616491)
(0.0312073 -48.3196 -0.000272413)
(-0.00905338 -47.5047 7.88838e-05)
(0.143412 -48.135 -0.00125169)
(0.174457 -49.3357 -0.00152284)
(0.172151 -49.3931 -0.00150282)
(0.169169 -49.0438 -0.00147675)
(0.219196 -46.5859 -0.00191321)
(0.265283 -39.0997 -0.00231556)
(0.267857 -26.3543 -0.00233824)
(0.123081 -12.7292 -0.00107539)
(-0.0729737 -3.65192 0.000636326)
(-0.00385382 -0.356659 2.96587e-05)
(-0.020516 -0.419791 0.000166462)
(-0.0623187 -0.480294 0.000538313)
(-0.111047 -0.50739 0.000966671)
(0.0151021 -48.3778 -0.000131853)
(0.019151 -47.6488 -0.000167248)
(0.135637 -48.3597 -0.00118387)
(0.168809 -49.446 -0.00147356)
(0.14901 -49.4419 -0.00130087)
(0.155495 -49.1387 -0.00135739)
(0.201095 -46.7151 -0.00175522)
(0.25335 -39.193 -0.00221141)
(0.259626 -26.305 -0.00226641)
(0.112626 -12.505 -0.000984197)
(-0.101813 -3.54057 0.000888032)
(-0.0535275 -0.382468 0.000460617)
(-0.0724057 -0.378943 0.000619626)
(-0.107739 -0.418359 0.000935193)
(-0.149925 -0.438438 0.00130626)
(0.00255724 -48.4373 -2.23607e-05)
(0.0407062 -47.8179 -0.000355355)
(0.129517 -48.5599 -0.00113048)
(0.163802 -49.5365 -0.00142988)
(0.128998 -49.4808 -0.00112623)
(0.143414 -49.2298 -0.00125192)
(0.185614 -46.8437 -0.00162012)
(0.242373 -39.2883 -0.0021156)
(0.252116 -26.2571 -0.00220095)
(0.102634 -12.2602 -0.000897284)
(-0.135057 -3.40059 0.00117803)
(-0.103734 -0.386913 0.000896633)
(-0.121792 -0.33524 0.00105139)
(-0.150694 -0.359433 0.00131055)
(-0.186505 -0.373892 0.00162576)
(-0.00505756 -48.4976 4.40964e-05)
(0.0536782 -48.0025 -0.00046856)
(0.124017 -48.7419 -0.00108249)
(0.157528 -49.6088 -0.00137514)
(0.111191 -49.5118 -0.000970826)
(0.131633 -49.3174 -0.00114908)
(0.17172 -46.9715 -0.00149892)
(0.231376 -39.3848 -0.0020196)
(0.244821 -26.2098 -0.00213735)
(0.0924726 -11.9922 -0.000808837)
(-0.172746 -3.23059 0.00150619)
(-0.153517 -0.375494 0.00132992)
(-0.167889 -0.29094 0.00145482)
(-0.00755313 -48.5585 6.5874e-05)
(0.0578725 -48.1907 -0.000505167)
(0.118507 -48.9103 -0.00103441)
(0.148819 -49.6639 -0.00129915)
(0.0947246 -49.536 -0.000827114)
(0.11934 -49.4016 -0.00104179)
(0.158454 -47.0982 -0.00138317)
(0.219709 -39.4821 -0.00191772)
(0.237457 -26.1628 -0.00207311)
(0.0813887 -11.6985 -0.000712028)
(-0.215466 -3.02934 0.00187794)
(-0.201382 -0.354586 0.00174777)
(-0.210045 -0.247892 0.00182406)
(-0.00549051 -48.6202 4.78718e-05)
(0.0545403 -48.3715 -0.000476094)
(0.112864 -49.0684 -0.00098516)
(0.137369 -49.7028 -0.00119923)
(0.0789833 -49.5545 -0.000689727)
(0.106317 -49.4822 -0.000928122)
(0.145048 -47.2234 -0.00126614)
(0.207246 -39.5797 -0.00180886)
(0.229951 -26.1156 -0.00200758)
(0.0684641 -11.3761 -0.000599098)
(-0.261501 -2.79869 0.00227925)
(-0.245471 -0.331035 0.00213393)
(-0.247725 -0.207816 0.00215426)
(-7.18253e-05 -48.6831 5.79971e-07)
(0.0459224 -48.536 -0.000400897)
(0.107141 -49.2175 -0.000935209)
(0.123302 -49.7257 -0.00107647)
(0.0635648 -49.5678 -0.000555151)
(0.0927741 -49.559 -0.000809921)
(0.130894 -47.3465 -0.00114256)
(0.19452 -39.6772 -0.00169775)
(0.222153 -26.0679 -0.00193949)
(0.0529463 -11.0223 -0.000463662)
(-0.307114 -2.54244 0.00267973)
(-0.284482 -0.308085 0.00247642)
(-0.280666 -0.171135 0.00244304)
(0.0071558 -48.7473 -6.25021e-05)
(0.0341814 -48.6792 -0.000298444)
(0.101583 -49.3577 -0.000886695)
(0.107153 -49.733 -0.000935535)
(0.0484827 -49.5766 -0.00042351)
(0.0793152 -49.6318 -0.000692453)
(0.115721 -47.4676 -0.00101009)
(0.183048 -39.7743 -0.00159762)
(0.213674 -26.0196 -0.00186553)
(0.0362389 -10.6368 -0.000318039)
(-0.344777 -2.27154 0.00301542)
(-0.316124 -0.289009 0.00275393)
(-0.308518 -0.138264 0.0026871)
(0.0147739 -48.8126 -0.000128992)
(0.0215169 -48.7994 -0.000187931)
(0.0964246 -49.4879 -0.00084167)
(0.0894084 -49.7253 -0.00078068)
(0.0341312 -49.5817 -0.000298243)
(0.066423 -49.7007 -0.000579935)
(0.0996192 -47.5874 -0.000869517)
(0.175123 -39.8707 -0.0015285)
(0.203055 -25.972 -0.00177286)
(0.0225979 -10.2221 -0.000199684)
(-0.36879 -1.98962 0.00323721)
(-0.339721 -0.265497 0.00296013)
(-0.330849 -0.105907 0.00288267)
(0.0216833 -48.878 -0.000189297)
(0.00917486 -48.8976 -8.02319e-05)
(0.0916042 -49.6065 -0.000799597)
(0.0702156 -49.7035 -0.000613182)
(0.0212369 -49.5839 -0.000185694)
(0.0540905 -49.7661 -0.000472301)
(0.0834023 -47.7071 -0.000727952)
(0.173448 -39.9661 -0.00151398)
(0.188472 -25.9293 -0.00164542)
(0.0258106 -9.79195 -0.000229007)
(-0.366918 -1.72204 0.0032355)
(-0.352474 -0.238981 0.00307027)
(-0.346192 -0.074427 0.00301677)
(0.0270551 -48.9417 -0.000236181)
(-0.00211985 -48.9759 1.83305e-05)
(0.0871775 -49.7114 -0.000760962)
(0.0498114 -49.6689 -0.000435108)
(0.0104978 -49.5839 -9.19574e-05)
(0.0411924 -49.8292 -0.000359723)
(0.0686276 -47.8282 -0.000598982)
(0.178349 -40.0601 -0.00155682)
(0.165213 -25.8986 -0.00144225)
(0.0582902 -9.36609 -0.000514685)
(-0.341576 -1.41937 0.00302454)
(-0.352727 -0.185308 0.00307194)
(-0.349517 -0.0367 0.00304599)
(0.0303075 -49.001 -0.000264569)
(-0.0118974 -49.0373 0.000103657)
(0.0825651 -49.8008 -0.00072071)
(0.0283931 -49.623 -0.000248182)
(0.00169767 -49.5825 -1.51461e-05)
(0.0256634 -49.8923 -0.000224168)
(0.0579321 -47.952 -0.000505634)
(0.18521 -40.1571 -0.00161667)
(0.132001 -25.8978 -0.0011522)
(0.147196 -9.01319 -0.00129605)
(-0.274107 -1.15627 0.00244301)
(-0.342558 -0.126458 0.00298134)
(-0.333699 -0.0036985 0.00290813)
(0.0310874 -49.0527 -0.000271378)
(-0.0197859 -49.0845 0.0001725)
(0.0766213 -49.8726 -0.00066884)
(0.00600871 -49.5665 -5.28239e-05)
(-0.00783512 -49.5794 6.80607e-05)
(0.00472613 -49.9568 -4.14069e-05)
(0.050731 -48.0776 -0.000442833)
(0.176488 -40.2661 -0.00154038)
(0.0871728 -25.9359 -0.000760951)
(0.251862 -8.77348 -0.00221144)
(-0.191808 -0.676616 0.00172469)
(-0.2816 -0.0215332 0.00245616)
(-0.26878 0.0228679 0.00234274)
(0.0290751 -49.0935 -0.000253818)
(-0.0255299 -49.1188 0.000222632)
(0.068284 -49.9226 -0.000596084)
(-0.0173834 -49.4966 0.000151328)
(-0.0217166 -49.5694 0.000189224)
(-0.0223339 -50.0144 0.000194771)
(0.0393349 -48.1934 -0.00034337)
(0.134976 -40.3836 -0.00117768)
(0.070183 -25.9789 -0.00061271)
(0.365172 -8.80122 -0.00314255)
(-0.133687 -0.419499 0.00118555)
(-0.19966 0.0220245 0.00174627)
(-0.145503 0.0324938 0.00126984)
(0.0246538 -49.1194 -0.000215233)
(-0.0277142 -49.142 0.000241701)
(0.0597795 -49.947 -0.000521875)
(-0.0380726 -49.4102 0.000331887)
(-0.0364186 -49.547 0.00031754)
(-0.0478682 -50.0538 0.000417583)
(0.016801 -48.2846 -0.000146675)
(0.0669709 -40.4723 -0.000584632)
(0.0801645 -25.8906 -0.000699912)
(-0.0653818 -8.95608 0.000647996)
(0.0188521 -49.1327 -0.0001646)
(-0.0251508 -49.1625 0.000219337)
(0.0535518 -49.9498 -0.000467538)
(-0.0522049 -49.3148 0.000455227)
(-0.0431141 -49.5204 0.000375989)
(-0.0570599 -50.0849 0.000497812)
(0.0120691 -48.3721 -0.000105354)
(0.0663863 -40.5569 -0.000579408)
(0.108781 -25.819 -0.000949733)
(-0.0127791 -8.85991 0.000108476)
(0.0124342 -49.1376 -0.000108588)
(-0.0188902 -49.187 0.000164707)
(0.0481623 -49.934 -0.000420523)
(-0.0624606 -49.2167 0.000544732)
(-0.0463423 -49.4961 0.000404173)
(-0.0618129 -50.1177 0.000539291)
(0.0110212 -48.4675 -9.62604e-05)
(0.0664835 -40.6513 -0.000580266)
(0.115955 -25.7838 -0.00101237)
(-0.00372029 -8.80976 3.03642e-05)
(0.00615604 -49.1371 -5.37962e-05)
(-0.010577 -49.2179 9.21626e-05)
(0.0427068 -49.9005 -0.000372933)
(-0.0694489 -49.1186 0.000605724)
(-0.0465317 -49.4747 0.000405837)
(-0.0618495 -50.1519 0.000539609)
(0.0143644 -48.5655 -0.00012547)
(0.0717504 -40.7502 -0.000626221)
(0.126335 -25.7502 -0.00110297)
(0.00155804 -8.72212 -1.61429e-05)
(0.000761169 -49.1349 -6.71303e-06)
(-0.00189998 -49.2559 1.64377e-05)
(0.0363305 -49.8514 -0.00031731)
(-0.0744687 -49.0244 0.000649539)
(-0.0451448 -49.459 0.000393743)
(-0.0597371 -50.1901 0.000521171)
(0.0191541 -48.6682 -0.000167278)
(0.0774925 -40.8544 -0.00067635)
(0.13415 -25.7178 -0.00117123)
(0.00296005 -8.63666 -2.84539e-05)
(-0.00307374 -49.1326 2.67558e-05)
(0.00527886 -49.2973 -4.62183e-05)
(0.0283711 -49.7877 -0.000247869)
(-0.0784231 -48.9358 0.000684061)
(-0.0427241 -49.4493 0.000372627)
(-0.0559185 -50.2321 0.000487843)
(0.0253222 -48.7742 -0.000221113)
(0.084432 -40.962 -0.00073694)
(0.142903 -25.6829 -0.00124759)
(0.00472044 -8.54102 -4.42248e-05)
(-0.00486271 -49.132 4.23678e-05)
(0.00980269 -49.3369 -8.57106e-05)
(0.0190927 -49.7117 -0.000166913)
(-0.0817495 -48.8553 0.000713109)
(-0.039376 -49.4471 0.000343416)
(-0.0508824 -50.2788 0.000443889)
(0.0324664 -48.8842 -0.00028347)
(0.0922841 -41.0731 -0.000805499)
(0.151875 -25.6457 -0.00132586)
(0.00641409 -8.4398 -5.93118e-05)
(-0.00440802 -49.1339 3.83985e-05)
(0.0109331 -49.3685 -9.5591e-05)
(0.00884815 -49.6256 -7.75193e-05)
(-0.0846528 -48.7845 0.000738468)
(-0.0349712 -49.453 0.000304986)
(-0.0448567 -50.3302 0.000391299)
(0.0405683 -48.9979 -0.000354161)
(0.10124 -41.1875 -0.000883691)
(0.161462 -25.6053 -0.00140963)
(0.00853988 -8.33057 -7.82779e-05)
(-0.00201638 -49.1389 1.75241e-05)
(0.00911959 -49.3871 -7.97848e-05)
(-0.00134466 -49.5322 1.14281e-05)
(-0.086743 -48.7255 0.000756734)
(-0.0291066 -49.4678 0.000253815)
(-0.0377258 -50.3868 0.000329064)
(0.0497117 -49.1157 -0.00043393)
(0.111475 -41.3053 -0.000973026)
(0.171683 -25.5616 -0.00149896)
(0.0111301 -8.2134 -0.000101187)
(0.00168065 -49.1474 -1.47436e-05)
(0.00539136 -49.3894 -4.72676e-05)
(-0.0106509 -49.4345 9.26441e-05)
(-0.087554 -48.6796 0.000763834)
(-0.0215873 -49.4921 0.000188202)
(-0.0292618 -50.4488 0.000255191)
(0.0600384 -49.2379 -0.000524031)
(0.12313 -41.4264 -0.00107473)
(0.182708 -25.5141 -0.00159529)
(0.0142046 -8.08716 -0.000127977)
(0.00567578 -49.1598 -4.96134e-05)
(0.00151246 -49.3757 -1.34346e-05)
(-0.0180518 -49.3355 0.000157234)
(-0.0861534 -48.6483 0.000751629)
(-0.0121944 -49.5264 0.000106235)
(-0.0189702 -50.5163 0.000165365)
(0.0718183 -49.3649 -0.000626821)
(0.136364 -41.5507 -0.00119021)
(0.194702 -25.4623 -0.00169995)
(0.0176168 -7.95109 -0.000157843)
(0.00892558 -49.1765 -7.79787e-05)
(-0.000654488 -49.3493 5.46251e-06)
(-0.0229015 -49.2382 0.000199561)
(-0.0817935 -48.6329 0.000713591)
(-0.00089946 -49.5707 7.66699e-06)
(-0.00647395 -50.5896 5.62964e-05)
(0.08526 -49.4968 -0.00074412)
(0.151458 -41.6782 -0.00132193)
(0.20787 -25.4054 -0.00181485)
(0.0213852 -7.80423 -0.000191417)
(0.0103648 -49.198 -9.05418e-05)
(0.000806082 -49.3172 -7.29381e-06)
(-0.0247071 -49.1449 0.000215318)
(-0.0735797 -48.6343 0.000641911)
(0.0124401 -49.625 -0.000108746)
(0.00867608 -50.6692 -7.59343e-05)
(0.100604 -49.634 -0.000878024)
(0.16866 -41.8088 -0.00147206)
(0.222469 -25.3427 -0.00194225)
(0.0256049 -7.64545 -0.000229257)
(0.00922245 -49.2249 -8.05746e-05)
(0.00733114 -49.2885 -6.4243e-05)
(-0.0234495 -49.0577 0.00020434)
(-0.0609925 -48.6537 0.000532062)
(0.0277334 -49.6892 -0.000242214)
(0.0267293 -50.7558 -0.000233501)
(0.118068 -49.7767 -0.00103045)
(0.18806 -41.9424 -0.00164138)
(0.238678 -25.2734 -0.00208371)
(0.030263 -7.47304 -0.000270539)
(0.00513509 -49.2582 -4.49043e-05)
(0.0195964 -49.2737 -0.000171283)
(-0.0192589 -48.9786 0.000167759)
(-0.0436042 -48.6918 0.00038031)
(0.0449966 -49.7633 -0.000392881)
(0.0478392 -50.8502 -0.000417743)
(0.137862 -49.9253 -0.00120323)
(0.209648 -42.0789 -0.00182981)
(0.256688 -25.1966 -0.00224094)
(0.0352166 -7.2861 -0.000314087)
(-0.00150154 -49.2988 1.3015e-05)
(0.0369818 -49.2831 -0.000323)
(-0.0125049 -48.9095 0.000108805)
(-0.0220179 -48.7495 0.000191923)
(0.0638768 -49.8472 -0.000557667)
(0.0716869 -50.953 -0.000625877)
(0.159977 -50.0803 -0.00139627)
(0.233288 -42.2183 -0.00203617)
(0.276762 -25.1115 -0.00241621)
(0.0403791 -7.08298 -0.000359447)
(-0.00985508 -49.3481 8.59185e-05)
(0.0580687 -49.3247 -0.000507018)
(-0.00396008 -48.8526 3.42208e-05)
(0.0035092 -48.8276 -3.08551e-05)
(0.0844788 -49.9414 -0.000737488)
(0.0978687 -51.065 -0.000854382)
(0.184666 -50.2421 -0.00161177)
(0.258715 -42.3604 -0.0022581)
(0.299083 -25.017 -0.00261108)
(0.0455897 -6.86182 -0.000405454)
(-0.0183946 -49.4071 0.000160445)
(0.0801767 -49.4027 -0.000699949)
(0.00546109 -48.8108 -4.80063e-05)
(0.0317966 -48.9264 -0.000277719)
(0.106456 -50.0464 -0.000929312)
(0.125596 -51.1868 -0.00109637)
(0.211877 -50.4115 -0.00184926)
(0.28558 -42.5055 -0.00249257)
(0.323764 -24.9125 -0.00282657)
(0.0507271 -6.62152 -0.000451022)
(-0.0252161 -49.4771 0.000219977)
(0.0999128 -49.5157 -0.000872184)
(0.0150344 -48.7878 -0.000131555)
(0.0615107 -49.0467 -0.000537034)
(0.129843 -50.1628 -0.00113345)
(0.154051 -51.3193 -0.00134472)
(0.241613 -50.5893 -0.0021088)
(0.31353 -42.6536 -0.00273651)
(0.35092 -24.7973 -0.00306365)
(0.0557557 -6.36031 -0.000495634)
(-0.0282424 -49.5592 0.000246384)
(0.113584 -49.6571 -0.000991495)
(0.0243578 -48.7882 -0.000212912)
(0.0908794 -49.189 -0.000793331)
(0.154349 -50.2916 -0.00134733)
(0.182532 -51.4633 -0.00159329)
(0.273891 -50.7767 -0.00239052)
(0.342252 -42.8052 -0.00298718)
(0.380601 -24.6709 -0.00332277)
(0.0606259 -6.07681 -0.000538909)
(-0.0258264 -49.6542 0.000225292)
(0.118246 -49.8156 -0.0010322)
(0.0337104 -48.8172 -0.000294516)
(0.118617 -49.3537 -0.0010354)
(0.180226 -50.4339 -0.00157319)
(0.210265 -51.6198 -0.00183533)
(0.308602 -50.9749 -0.00269346)
(0.371578 -42.9607 -0.00324313)
(0.412834 -24.5328 -0.00360415)
(0.0653943 -5.76943 -0.00058133)
(-0.0169816 -49.7626 0.000148091)
(0.112103 -49.9774 -0.000978614)
(0.0437243 -48.881 -0.000381884)
(0.143459 -49.5411 -0.00125219)
(0.207484 -50.5909 -0.0018111)
(0.236771 -51.7899 -0.00206666)
(0.345669 -51.1851 -0.00301697)
(0.401425 -43.121 -0.00350364)
(0.447657 -24.3827 -0.00390811)
(0.0701439 -5.43665 -0.000623626)
(-0.00181046 -49.8849 1.56732e-05)
(0.0952427 -50.1285 -0.000831509)
(0.0555441 -48.9852 -0.000485005)
(0.164883 -49.7506 -0.00143914)
(0.236278 -50.7637 -0.00206241)
(0.26181 -51.9745 -0.00228519)
(0.384935 -51.4085 -0.00335966)
(0.431769 -43.2869 -0.00376849)
(0.485133 -24.2204 -0.00423524)
(0.075019 -5.07673 -0.00066706)
(0.0185647 -50.0208 -0.000162164)
(0.0694442 -50.258 -0.000606398)
(0.0700796 -49.1348 -0.000611821)
(0.182643 -49.9813 -0.00159412)
(0.266391 -50.9533 -0.00232522)
(0.285217 -52.1749 -0.00248947)
(0.42603 -51.6466 -0.00371833)
(0.462483 -43.4593 -0.00403656)
(0.52532 -24.0459 -0.00458603)
(0.0801311 -4.68787 -0.000712611)
(0.041909 -50.1702 -0.000365918)
(0.0382934 -50.3602 -0.000334576)
(0.0881079 -49.3324 -0.000769114)
(0.197004 -50.232 -0.00171944)
(0.297277 -51.1601 -0.00259478)
(0.306874 -52.392 -0.00267849)
(0.468306 -51.9005 -0.00408729)
(0.493222 -43.6396 -0.00430486)
(0.568329 -23.8594 -0.00496146)
(0.085638 -4.26814 -0.000761664)
(0.0653883 -50.3318 -0.000570852)
(0.00611634 -50.4355 -5.37913e-05)
(0.10925 -49.5781 -0.000953577)
(0.208271 -50.5005 -0.00181775)
(0.327668 -51.3838 -0.00286002)
(0.326214 -52.6264 -0.00284728)
(0.510476 -52.1713 -0.00445534)
(0.523094 -43.8295 -0.00456558)
(0.61422 -23.6616 -0.00536204)
(0.0916799 -3.81544 -0.000815442)
(0.085734 -50.5037 -0.000748441)
(-0.0225739 -50.4902 0.000196572)
(0.132606 -49.868 -0.00115736)
(0.216351 -50.7833 -0.00188825)
(0.355218 -51.623 -0.00310047)
(0.341968 -52.8783 -0.00298477)
(0.550229 -52.4597 -0.00480227)
(0.550271 -44.0312 -0.00480276)
(0.662949 -23.4544 -0.00578739)
(0.0984626 -3.32758 -0.00087572)
(0.0997836 -50.6818 -0.000871083)
(-0.0442783 -50.5352 0.000385981)
(0.155498 -50.1943 -0.0013571)
(0.220119 -51.0755 -0.00192112)
(0.375871 -51.8746 -0.00328072)
(0.351215 -53.1466 -0.00306547)
(0.583483 -52.7662 -0.00509247)
(0.57133 -44.2481 -0.00498652)
(0.714155 -23.2416 -0.00623435)
(0.106298 -2.80213 -0.000945157)
(0.104596 -50.8586 -0.000913106)
(-0.0571954 -50.5825 0.000498713)
(0.173536 -50.5432 -0.00151447)
(0.216707 -51.3689 -0.00189133)
(0.383286 -52.1326 -0.00334545)
(0.348627 -53.4283 -0.00304286)
(0.603304 -53.0901 -0.00526542)
(0.580378 -44.4854 -0.00506541)
(0.766905 -23.0302 -0.00669475)
(0.116401 -2.23863 -0.00103456)
(0.0978759 -51.0214 -0.00085449)
(-0.0626343 -50.6402 0.000546194)
(0.179556 -50.8947 -0.00156699)
(0.20002 -51.6504 -0.0017457)
(0.367476 -52.3864 -0.00320747)
(0.324855 -53.7165 -0.00283537)
(0.597965 -53.4297 -0.00521877)
(0.567502 -44.7507 -0.00495287)
(0.818391 -22.8331 -0.00714407)
(0.129235 -1.62987 -0.00114833)
(0.0779945 -51.1489 -0.000681011)
(-0.0656636 -50.7057 0.00057266)
(0.163562 -51.2192 -0.00142738)
(0.159756 -51.8991 -0.0013943)
(0.313667 -52.6187 -0.00273786)
(0.264688 -53.9984 -0.00231024)
(0.548282 -53.7808 -0.00478507)
(0.516967 -45.0565 -0.00451153)
(0.864035 -22.6747 -0.00754227)
(0.153138 -0.991423 -0.00135974)
(0.0438839 -51.207 -0.00038335)
(-0.076458 -50.7574 0.000666909)
(0.111484 -51.4745 -0.000972869)
(0.0791379 -52.0821 -0.000690721)
(0.199986 -52.8005 -0.0017457)
(0.143862 -54.25 -0.00125571)
(0.422903 -54.1339 -0.00369068)
(0.402221 -45.4201 -0.0035096)
(0.889516 -22.592 -0.00776434)
(0.186643 -0.286615 -0.00165392)
(-0.00568358 -51.1419 4.92029e-05)
(-0.109896 -50.7463 0.000958781)
(0.00551213 -51.6 -4.80175e-05)
(-0.0659102 -52.1476 0.000575163)
(-0.00329367 -52.8844 2.84564e-05)
(-0.0742336 -54.4279 0.000647723)
(0.172997 -54.4694 -0.00150939)
(0.182801 -45.8673 -0.00159383)
(0.872314 -22.6587 -0.00761349)
(0.25877 0.402994 -0.00228597)
(-0.071942 -50.8731 0.000627418)
(-0.185414 -50.5864 0.00161791)
(-0.175341 -51.5106 0.00153035)
(-0.30802 -52.0187 0.00268814)
(-0.334244 -52.7946 0.00291684)
(-0.443316 -54.4581 0.00386882)
(-0.278257 -54.7498 0.00242926)
(-0.214351 -46.4278 0.00187349)
(0.752118 -22.9779 -0.00656329)
(0.35748 1.18283 -0.00314876)
(-0.157123 -50.2881 0.00137077)
(-0.32429 -50.1505 0.00282998)
(-0.455132 -51.0904 0.00397218)
(-0.688336 -51.5861 0.00600732)
(-0.839066 -52.4135 0.00732265)
(-1.03741 -54.2131 0.00905366)
(-1.02987 -54.9061 0.00898927)
(-0.89853 -47.1327 0.00784642)
(0.425443 -23.7255 -0.00370989)
(0.528483 1.77203 -0.00464349)
(-0.265379 -49.2379 0.0023155)
(-0.545441 -49.2649 0.00476008)
(-0.860735 -50.1822 0.00751203)
(-1.2499 -50.6912 0.0109083)
(-1.57533 -51.5695 0.0137484)
(-1.94557 -53.4992 0.0169795)
(-2.18702 -54.7462 0.0190883)
(-2.04655 -47.9827 0.017868)
(-0.336091 -25.0664 0.00294042)
(0.776208 2.33261 -0.00680255)
(-0.399237 -47.5386 0.00348366)
(-0.856028 -47.7169 0.0074707)
(-1.40466 -48.5865 0.0122591)
(-2.01507 -49.1211 0.0175863)
(-2.58209 -50.0242 0.0225347)
(-3.22417 -52.0213 0.028138)
(-3.83232 -53.924 0.0334466)
(-3.91141 -48.8677 0.0341462)
(-1.92891 -27.3149 0.0168498)
(1.3057 2.09936 -0.0114172)
(-0.55461 -45.0098 0.00483959)
(-1.2428 -45.2989 0.0108462)
(-2.0668 -46.1012 0.0180378)