/*--------------------------------*- C++ -*----------------------------------*\
| =========                 |                                                 |
| \\      /  F ield         | OpenFOAM: The Open Source CFD Toolbox           |
|  \\    /   O peration     | Version:  v2012                                 |
|   \\  /    A nd           | Website:  www.openfoam.com                      |
|    \\/     M anipulation  |                                                 |
\*---------------------------------------------------------------------------*/
FoamFile
{
    version     2.0;
    format      ascii;
    class       volScalarField;
    location    "0.8";
    object      alpha.water;
}
// * * * * * * * * * * * * * * * * * * * * * * * * * * * * * * * * * * * * * //

dimensions      [0 0 0 0 0 0 0];


internalField   nonuniform List<scalar> 
3352
(
-2.06494e-142
-4.45816e-134
-6.35881e-126
-2.67244e-116
-2.31246e-110
-1.38216e-101
-5.63151e-96
-4.58958e-88
-9.47744e-83
-3.77307e-80
-8.31456e-78
-2.08881e-75
-1.22326e-72
-7.73597e-71
-1.76727e-68
-6.1072e-67
-1.63183e-64
-9.23616e-62
-1.34937e-59
-1.17858e-58
-4.06037e-58
-7.97385e-58
-1.03753e-57
-9.67787e-58
-6.77871e-58
-3.68748e-58
-2.18483e-58
-7.19285e-58
-2.52643e-57
-5.17984e-57
-1.20138e-55
-6.7164e-54
-2.44853e-53
-3.84909e-53
-3.49191e-53
-2.06534e-53
-8.48823e-54
-2.5181e-54
-5.52647e-55
-1.20815e-140
-1.37816e-132
-2.1575e-124
-8.92661e-115
-7.25588e-109
-2.92064e-100
-1.20872e-94
-9.48327e-87
-1.38506e-81
-4.93151e-79
-9.80211e-77
-2.23477e-74
-1.21215e-71
-7.08172e-70
-1.4943e-67
-4.84392e-66
-1.17558e-63
-6.33205e-61
-8.86546e-59
-7.48914e-58
-2.51315e-57
-4.82568e-57
-6.15743e-57
-5.64714e-57
-3.8985e-57
-2.09419e-57
-1.16856e-57
-3.34598e-57
-1.14896e-56
-2.34143e-56
-5.5878e-55
-3.22753e-53
-1.18694e-52
-1.88157e-52
-1.72276e-52
-1.02967e-52
-4.28212e-53
-1.28725e-53
-2.86684e-54
-5.45749e-139
-3.70154e-131
-7.04377e-123
-3.03164e-113
-2.24564e-107
-5.63444e-99
-2.56445e-93
-1.8541e-85
-1.99325e-80
-6.34636e-78
-1.13723e-75
-2.35223e-73
-1.18177e-70
-6.37931e-69
-1.24285e-66
-3.77902e-65
-8.33178e-63
-4.27027e-60
-5.72941e-58
-4.68174e-57
-1.53051e-56
-2.87398e-56
-3.59671e-56
-3.24386e-56
-2.20755e-56
-1.17128e-56
-6.19629e-57
-1.53523e-56
-5.13831e-56
-1.04075e-55
-2.55608e-54
-1.52664e-52
-5.66587e-52
-9.06058e-52
-8.37554e-52
-5.06023e-52
-2.13016e-52
-6.49093e-53
-1.46741e-53
-1.69975e-137
-8.99467e-130
-2.20759e-121
-1.05514e-111
-6.85704e-106
-9.90829e-98
-5.37964e-92
-3.41269e-84
-2.824e-79
-8.03918e-77
-1.29805e-74
-2.43494e-72
-1.13317e-69
-5.65274e-68
-1.01644e-65
-2.89886e-64
-5.80713e-62
-2.83179e-59
-3.64081e-57
-2.8783e-56
-9.1681e-56
-1.68389e-55
-2.06727e-55
-1.83384e-55
-1.23047e-55
-6.44991e-56
-3.25477e-56
-6.95053e-56
-2.25917e-55
-4.54755e-55
-1.14959e-53
-7.1058e-52
-2.66256e-51
-4.29686e-51
-4.01157e-51
-2.45079e-51
-1.04465e-51
-3.22769e-52
-7.40932e-53
-2.80101e-136
-2.22169e-128
-6.61897e-120
-3.74706e-110
-2.0653e-104
-1.60167e-96
-1.1159e-90
-5.89622e-83
-3.93794e-78
-1.00218e-75
-1.4573e-73
-2.47832e-71
-1.06842e-68
-4.92617e-67
-8.17196e-65
-2.18596e-63
-3.97947e-61
-1.84611e-58
-2.27436e-56
-1.73983e-55
-5.40049e-55
-9.70347e-55
-1.16884e-54
-1.02001e-54
-6.74927e-55
-3.49593e-55
-1.69217e-55
-3.10654e-55
-9.76311e-55
-1.95271e-54
-5.08179e-53
-3.25367e-51
-1.23142e-50
-2.00627e-50
-1.89241e-50
-1.16946e-50
-5.04911e-51
-1.58235e-51
-3.68948e-52
-7.48567e-136
-6.40568e-127
-1.89318e-118
-1.34328e-108
-6.1376e-103
-2.46134e-95
-2.28946e-89
-9.56238e-82
-5.40351e-77
-1.22915e-74
-1.60874e-72
-2.47933e-70
-9.90172e-68
-4.22052e-66
-6.45641e-64
-1.61979e-62
-2.68017e-60
-1.18272e-57
-1.39614e-55
-1.03364e-54
-3.12718e-54
-5.49778e-54
-6.49886e-54
-5.58028e-54
-3.64195e-54
-1.86447e-54
-8.69992e-55
-1.37154e-54
-4.14611e-54
-8.23719e-54
-2.20721e-52
-1.46516e-50
-5.6035e-50
-9.22036e-50
-8.79006e-50
-5.49662e-50
-2.40452e-50
-7.64572e-51
-1.8113e-51
-3.72571e-134
-2.10901e-125
-5.14609e-117
-4.80611e-107
-1.79941e-101
-3.88433e-94
-4.64651e-88
-1.46084e-80
-7.2944e-76
-1.48288e-73
-1.74586e-71
-2.43734e-69
-9.01776e-67
-3.55407e-65
-5.01142e-63
-1.17912e-61
-1.77356e-59
-7.44385e-57
-8.41932e-55
-6.03373e-54
-1.77951e-53
-3.06163e-53
-3.5523e-53
-3.00177e-53
-1.93269e-53
-9.78113e-54
-4.41923e-54
-5.98559e-54
-1.72987e-53
-3.41234e-53
-9.41614e-52
-6.48642e-50
-2.50799e-49
-4.1696e-49
-4.01902e-49
-2.54393e-49
-1.12794e-49
-3.64011e-50
-8.7645e-51
-1.73285e-132
-7.03779e-124
-1.32479e-115
-1.7039e-105
-5.20548e-100
-6.98067e-93
-9.33036e-87
-2.11884e-79
-9.68509e-75
-1.75926e-72
-1.86199e-70
-2.35367e-68
-8.06759e-66
-2.94057e-64
-3.82006e-62
-8.4289e-61
-1.15268e-58
-4.60088e-56
-4.98581e-54
-3.45936e-53
-9.94761e-53
-1.67522e-52
-1.90817e-52
-1.58715e-52
-1.00831e-52
-5.04559e-53
-2.2159e-53
-2.58408e-53
-7.08954e-53
-1.38771e-52
-3.94404e-51
-2.8222e-49
-1.10373e-48
-1.85478e-48
-1.80827e-48
-1.159e-48
-5.21025e-49
-1.70711e-49
-4.17872e-50
-7.58252e-131
-2.25381e-122
-3.21616e-114
-5.96305e-104
-1.48578e-98
-1.48296e-91
-1.85384e-85
-2.95292e-78
-1.26449e-73
-2.05199e-71
-1.95111e-69
-2.23203e-67
-7.08792e-65
-2.3898e-63
-2.85879e-61
-5.91503e-60
-7.35533e-58
-2.79162e-55
-2.89833e-53
-1.94734e-52
-5.46072e-52
-9.00297e-52
-1.00694e-51
-8.24559e-52
-5.1697e-52
-2.55837e-52
-1.09584e-52
-1.10446e-52
-2.85355e-52
-5.53796e-52
-1.62136e-50
-1.20636e-48
-4.77446e-48
-8.11337e-48
-8.00361e-48
-5.19632e-48
-2.36924e-48
-7.88357e-49
-1.96247e-49
-3.15619e-129
-6.87686e-121
-7.33157e-113
-2.05764e-102
-4.18477e-97
-3.50443e-90
-3.64481e-84
-4.01135e-77
-1.62294e-72
-2.35242e-70
-2.00808e-68
-2.07789e-66
-6.11304e-64
-1.907e-62
-2.09954e-60
-4.07325e-59
-4.60625e-57
-1.66213e-54
-1.65324e-52
-1.07585e-51
-2.94255e-51
-4.75035e-51
-5.21799e-51
-4.20744e-51
-2.60384e-51
-1.27461e-51
-5.34028e-52
-4.67724e-52
-1.12788e-51
-2.1679e-51
-6.53898e-50
-5.06419e-48
-2.02933e-47
-3.48873e-47
-3.48368e-47
-2.29191e-47
-1.06022e-47
-3.58393e-48
-9.07545e-49
-1.26952e-127
-1.98158e-119
-1.56149e-111
-6.9973e-101
-1.16293e-95
-8.5861e-89
-7.09051e-83
-5.38331e-76
-2.04714e-71
-2.64986e-69
-2.02928e-67
-1.8983e-65
-5.17379e-63
-1.49368e-61
-1.51266e-59
-2.75143e-58
-2.82992e-56
-9.70717e-54
-9.24954e-52
-5.83101e-51
-1.55583e-50
-2.45988e-50
-2.65421e-50
-2.10781e-50
-1.28784e-50
-6.23693e-51
-2.56238e-51
-1.96397e-51
-4.37743e-51
-8.32127e-51
-2.5861e-49
-2.08696e-47
-8.47199e-47
-1.47413e-46
-1.49062e-46
-9.94117e-47
-4.66735e-47
-1.60333e-47
-4.13134e-48
-5.03436e-126
-5.34219e-118
-3.09079e-110
-2.34482e-99
-3.18889e-94
-2.11167e-87
-1.36475e-81
-7.20798e-75
-2.537e-70
-2.93196e-68
-2.01286e-66
-1.70119e-64
-4.2953e-62
-1.1479e-60
-1.06868e-58
-1.8223e-57
-1.70487e-55
-5.55832e-53
-5.07354e-51
-3.09909e-50
-8.06825e-50
-1.24958e-49
-1.32469e-49
-1.03628e-49
-6.25201e-50
-2.99612e-50
-1.20959e-50
-8.18148e-51
-1.66824e-50
-3.13055e-50
-1.00251e-48
-8.4394e-47
-3.47257e-46
-6.11843e-46
-6.26781e-46
-4.23898e-46
-2.02061e-46
-7.0561e-47
-1.85063e-47
-1.99909e-124
-1.33356e-116
-5.65247e-109
-7.74102e-98
-8.62779e-93
-5.16661e-86
-2.598e-80
-9.68421e-74
-3.0879e-69
-3.18543e-67
-1.95903e-65
-1.49492e-63
-3.49653e-61
-8.65216e-60
-7.40051e-58
-1.18288e-56
-1.00671e-54
-3.11903e-52
-2.72714e-50
-1.61444e-49
-4.10182e-49
-6.22413e-49
-6.48407e-49
-4.99755e-49
-2.97779e-49
-1.41235e-49
-5.61317e-50
-3.38245e-50
-6.24344e-50
-1.15386e-49
-3.80749e-48
-3.34744e-46
-1.39692e-45
-2.4935e-45
-2.58889e-45
-1.77625e-45
-8.59942e-46
-3.05369e-46
-8.15458e-47
-7.94683e-123
-3.04858e-115
-9.49857e-108
-2.51726e-96
-2.30326e-91
-1.25455e-84
-4.88996e-79
-1.31006e-72
-3.68996e-68
-3.39702e-66
-1.87004e-64
-1.28757e-62
-2.7896e-60
-6.39335e-59
-5.02095e-57
-7.52163e-56
-5.82373e-54
-1.71439e-51
-1.43581e-49
-8.23947e-49
-2.04337e-48
-3.03845e-48
-3.11118e-48
-2.36301e-48
-1.39084e-48
-6.53002e-49
-2.55874e-49
-1.38788e-49
-2.29514e-49
-4.16483e-49
-1.41604e-47
-1.30173e-45
-5.51266e-45
-9.97383e-45
-1.05e-44
-7.31137e-45
-3.59638e-45
-1.29909e-45
-3.53323e-46
-3.09241e-121
-6.30348e-114
-1.46285e-106
-8.06089e-95
-6.06667e-90
-3.01827e-83
-9.09622e-78
-1.78738e-71
-4.32737e-67
-3.55451e-65
-1.75011e-63
-1.08645e-61
-2.18024e-59
-4.62937e-58
-3.33591e-56
-4.68299e-55
-3.29889e-53
-9.22551e-51
-7.40044e-49
-4.11762e-48
-9.96946e-48
-1.45301e-47
-1.46262e-47
-1.09493e-47
-6.36723e-48
-2.95974e-48
-1.1449e-48
-5.65016e-49
-8.29017e-49
-1.47155e-48
-5.15435e-47
-4.96056e-45
-2.13315e-44
-3.91392e-44
-4.17983e-44
-2.95506e-44
-1.4774e-44
-5.43051e-45
-1.50474e-45
-1.13487e-119
-1.1622e-112
-2.08797e-105
-2.54133e-93
-1.57657e-88
-7.18327e-82
-1.67136e-76
-2.4585e-70
-4.97835e-66
-3.64783e-64
-1.60506e-62
-8.97692e-61
-1.66843e-58
-3.28318e-57
-2.16934e-55
-2.8533e-54
-1.82883e-52
-4.85769e-50
-3.73213e-48
-2.01387e-47
-4.76127e-47
-6.80294e-47
-6.73344e-47
-4.96927e-47
-2.85553e-47
-1.31441e-47
-5.0247e-48
-2.28071e-48
-2.94378e-48
-5.08756e-48
-1.83527e-46
-1.8515e-44
-8.09001e-44
-1.50613e-43
-1.63242e-43
-1.17226e-43
-5.9592e-44
-2.22972e-44
-6.29653e-45
-3.76871e-118
-1.87814e-111
-2.94072e-104
-7.88557e-92
-4.04204e-87
-1.68856e-80
-3.0315e-75
-3.40053e-69
-5.61581e-65
-3.67005e-63
-1.44188e-61
-7.2594e-60
-1.24945e-57
-2.27944e-56
-1.38006e-54
-1.70039e-53
-9.9168e-52
-2.50139e-49
-1.84055e-47
-9.63417e-47
-2.22463e-46
-3.11672e-46
-3.03392e-46
-2.20771e-46
-1.25385e-46
-5.71616e-47
-2.16143e-47
-9.1189e-48
-1.02831e-47
-1.72039e-47
-6.38853e-46
-6.76509e-44
-3.00559e-43
-5.68076e-43
-6.25189e-43
-4.56221e-43
-2.3591e-43
-8.98847e-44
-2.58766e-44
-1.08823e-116
-2.60312e-110
-4.95298e-103
-2.40753e-90
-1.0223e-85
-3.91493e-79
-5.42386e-74
-4.7097e-68
-6.20865e-64
-3.61815e-62
-1.26813e-60
-5.74241e-59
-9.15159e-57
-1.54842e-55
-8.58382e-54
-9.90538e-53
-5.25664e-51
-1.25888e-48
-8.87101e-47
-4.50545e-46
-1.01631e-45
-1.39643e-45
-1.33715e-45
-9.59587e-46
-5.38732e-46
-2.43287e-46
-9.10629e-47
-3.60668e-47
-3.53649e-47
-5.68814e-47
-2.17279e-45
-2.41848e-43
-1.0933e-42
-2.09909e-42
-2.34688e-42
-1.7411e-42
-9.16177e-43
-3.55596e-43
-1.04399e-43
-2.6238e-115
-3.00587e-109
-1.26094e-101
-7.22981e-89
-2.55037e-84
-8.94059e-78
-9.56488e-73
-6.49745e-67
-6.7239e-63
-3.49356e-61
-1.09136e-59
-4.44077e-58
-6.55211e-56
-1.02856e-54
-5.21705e-53
-5.63709e-52
-2.72216e-50
-6.18826e-48
-4.17599e-46
-2.05842e-45
-4.53691e-45
-6.11504e-45
-5.76106e-45
-4.07807e-45
-2.26362e-45
-1.01276e-45
-3.75482e-46
-1.40895e-46
-1.19858e-46
-1.83824e-46
-7.21567e-45
-8.45436e-43
-3.8917e-42
-7.59473e-42
-8.63089e-42
-6.51273e-42
-3.48888e-42
-1.37997e-42
-4.13309e-43
-5.03509e-114
-2.77421e-108
-4.47665e-100
-2.13477e-87
-6.27493e-83
-2.0087e-76
-1.66112e-71
-8.88173e-66
-7.12936e-62
-3.30206e-60
-9.1856e-59
-3.35529e-57
-4.58245e-55
-6.67709e-54
-3.09643e-52
-3.13198e-51
-1.37627e-49
-2.96925e-47
-1.91877e-45
-9.1817e-45
-1.97779e-44
-2.61551e-44
-2.42489e-44
-1.69346e-44
-9.29523e-45
-4.12085e-45
-1.51411e-45
-5.42717e-46
-4.00728e-46
-5.80513e-46
-2.33824e-44
-2.8882e-42
-1.35485e-41
-2.68916e-41
-3.108e-41
-2.38657e-41
-1.30213e-41
-5.25067e-42
-1.60488e-42
-7.18276e-113
-1.91747e-107
-1.77453e-98
-6.19537e-86
-1.52232e-81
-4.4348e-75
-2.83841e-70
-1.19746e-64
-7.39674e-61
-3.05351e-59
-7.55665e-58
-2.47531e-56
-3.12865e-54
-4.23338e-53
-1.79353e-51
-1.69773e-50
-6.78853e-49
-1.38968e-46
-8.59927e-45
-3.99583e-44
-8.41385e-44
-1.09194e-43
-9.9645e-44
-6.86679e-44
-3.72777e-44
-1.63782e-44
-5.96643e-45
-2.05762e-45
-1.32301e-45
-1.79111e-45
-7.38836e-44
-9.63624e-42
-4.61035e-41
-9.31324e-41
-1.0953e-40
-8.56314e-41
-4.76071e-41
-1.95788e-41
-6.10936e-42
-6.76004e-112
-8.81786e-107
-7.11467e-97
-1.76648e-84
-3.64072e-80
-9.6113e-74
-4.76754e-69
-1.58683e-63
-7.50463e-60
-2.76093e-58
-6.07255e-57
-1.78182e-55
-2.08376e-53
-2.6196e-52
-1.01314e-50
-8.97204e-50
-3.2645e-48
-6.33958e-46
-3.7563e-44
-1.69542e-43
-3.49055e-43
-4.44652e-43
-3.99474e-43
-2.71697e-43
-1.45902e-43
-6.35374e-44
-2.2957e-44
-7.66458e-45
-4.31701e-45
-5.39894e-45
-2.27476e-43
-3.13786e-41
-1.5325e-40
-3.1529e-40
-3.77547e-40
-3.00681e-40
-1.70415e-40
-7.15094e-41
-2.27887e-41
-3.1464e-111
-2.02242e-106
-2.81759e-95
-4.94631e-83
-8.5803e-79
-2.04271e-72
-7.86373e-68
-2.06205e-62
-7.44123e-59
-2.43944e-57
-4.76382e-56
-1.25062e-54
-1.35285e-52
-1.58096e-51
-5.57743e-50
-4.61914e-49
-1.5293e-47
-2.81674e-45
-1.59804e-43
-7.00815e-43
-1.41109e-42
-1.76481e-42
-1.56123e-42
-1.0482e-42
-5.56898e-43
-2.40411e-43
-8.61802e-44
-2.80007e-44
-1.39305e-44
-1.59001e-44
-6.81888e-43
-9.96556e-41
-4.9729e-40
-1.04274e-39
-1.27215e-39
-1.03265e-39
-5.96941e-40
-2.55693e-40
-8.32519e-41
-7.09993e-136
-7.40464e-118
-1.09737e-93
-1.35942e-81
-1.99202e-77
-4.25331e-71
-1.27247e-66
-2.62396e-61
-7.20601e-58
-2.10486e-56
-3.64581e-55
-8.55233e-54
-8.55489e-52
-9.29856e-51
-2.99001e-49
-2.3149e-48
-6.9735e-47
-1.21793e-44
-6.61603e-43
-2.81997e-42
-5.55435e-42
-6.82168e-42
-5.94368e-42
-3.93998e-42
-2.07133e-42
-8.86534e-43
-3.15371e-43
-1.0015e-43
-4.44608e-44
-4.57613e-44
-1.98848e-42
-3.08457e-40
-1.57422e-39
-3.36688e-39
-4.18768e-39
-3.46668e-39
-2.04502e-39
-8.94576e-40
-2.97708e-40
-3.79709e-135
-4.1062e-116
-4.1997e-92
-3.66563e-80
-4.55351e-76
-8.66875e-70
-2.01796e-65
-3.26664e-60
-6.81051e-57
-1.77239e-55
-2.72011e-54
-5.69381e-53
-5.26477e-51
-5.32563e-50
-1.55971e-48
-1.12834e-47
-3.09258e-46
-5.12058e-44
-2.6633e-42
-1.10367e-41
-2.12704e-41
-2.56593e-41
-2.20239e-41
-1.44171e-41
-7.5011e-42
-3.1834e-42
-1.12402e-42
-3.50113e-43
-1.40297e-43
-1.28761e-43
-5.63617e-42
-9.29774e-40
-4.85805e-39
-1.06064e-38
-1.34586e-38
-1.13692e-38
-6.84781e-39
-3.06066e-39
-1.04153e-39
-6.16924e-141
-2.23334e-114
-1.57859e-90
-9.69267e-79
-1.02413e-74
-1.72756e-68
-3.13293e-64
-3.97552e-59
-6.27733e-56
-1.45541e-54
-1.97703e-53
-3.68738e-52
-3.15034e-50
-2.96768e-49
-7.91015e-48
-5.34437e-47
-1.33264e-45
-2.09145e-43
-1.04153e-41
-4.19764e-41
-7.91776e-41
-9.38392e-41
-7.93618e-41
-5.13119e-41
-2.64256e-41
-1.11214e-41
-3.89821e-42
-1.19437e-42
-4.37267e-43
-3.54421e-43
-1.5513e-41
-2.72706e-39
-1.4604e-38
-3.2576e-38
-4.22013e-38
-3.64023e-38
-2.23992e-38
-1.02343e-38
-3.56283e-39
-5.50763e-139
-1.19067e-112
-5.82514e-89
-2.51176e-77
-2.26499e-73
-3.36394e-67
-4.75705e-63
-4.72635e-58
-5.63846e-55
-1.16462e-53
-1.39877e-52
-2.32087e-51
-1.83123e-49
-1.60755e-48
-3.89686e-47
-2.45752e-46
-5.5745e-45
-8.29086e-43
-3.95318e-41
-1.55005e-40
-2.86232e-40
-3.3336e-40
-2.77849e-40
-1.77468e-40
-9.04796e-41
-3.77658e-41
-1.31424e-41
-3.96971e-42
-1.34393e-42
-9.55067e-43
-4.14214e-41
-7.77629e-39
-4.27319e-38
-9.74749e-38
-1.2902e-37
-1.13716e-37
-7.15265e-38
-3.34259e-38
-1.19097e-38
-4.76334e-137
-6.21852e-111
-2.10929e-87
-6.37554e-76
-4.92158e-72
-6.39384e-66
-7.05572e-62
-5.48392e-57
-4.93148e-54
-9.07414e-53
-9.626e-52
-1.41842e-50
-1.033e-48
-8.45659e-48
-1.8631e-46
-1.096e-45
-2.26133e-44
-3.18671e-42
-1.45485e-40
-5.55183e-40
-1.00393e-39
-1.14925e-39
-9.44219e-40
-5.95893e-40
-3.00803e-40
-1.24532e-40
-4.30289e-41
-1.28354e-41
-4.06461e-42
-2.52177e-42
-1.0718e-40
-2.15384e-38
-1.21603e-37
-2.83936e-37
-3.84301e-37
-3.46342e-37
-2.22827e-37
-1.06566e-37
-3.88804e-38
-3.98615e-135
-3.17949e-109
-7.49087e-86
-1.58409e-74
-1.04971e-70
-1.18518e-64
-1.02128e-60
-6.20571e-56
-4.19647e-53
-6.87847e-52
-6.43798e-51
-8.40929e-50
-5.64894e-48
-4.31586e-47
-8.63627e-46
-4.7357e-45
-8.88628e-44
-1.18637e-41
-5.18609e-40
-1.9268e-39
-3.41288e-39
-3.84106e-39
-3.11144e-39
-1.94052e-39
-9.70004e-40
-3.98345e-40
-1.36664e-40
-4.03122e-41
-1.20664e-41
-6.52988e-42
-2.68451e-40
-5.78888e-38
-3.36251e-37
-8.04502e-37
-1.1144e-36
-1.02772e-36
-6.76763e-37
-3.31416e-37
-1.23881e-37
-3.22354e-133
-1.5904e-107
-2.60777e-84
-3.85021e-73
-2.19541e-69
-2.14038e-63
-1.44093e-59
-6.84244e-55
-3.47129e-52
-5.0684e-51
-4.18107e-50
-4.83142e-49
-2.99128e-47
-2.13457e-46
-3.87742e-45
-1.98031e-44
-3.37889e-43
-4.27317e-41
-1.7887e-39
-6.47256e-39
-1.12332e-38
-1.24325e-38
-9.93142e-39
-6.12211e-39
-3.03078e-39
-1.23468e-39
-4.20596e-40
-1.22797e-40
-3.50622e-41
-1.65932e-41
-6.50043e-40
-1.50822e-37
-9.02624e-37
-2.21534e-36
-3.14354e-36
-2.96888e-36
-2.00246e-36
-1.00474e-36
-3.84983e-37
-2.51567e-131
-7.77724e-106
-8.89415e-83
-9.14818e-72
-4.49733e-68
-3.76233e-62
-1.97943e-58
-7.34411e-54
-2.78871e-51
-3.62701e-50
-2.63435e-49
-2.68714e-48
-1.53197e-46
-1.02192e-45
-1.68429e-44
-8.00472e-44
-1.24164e-42
-1.48739e-40
-5.96225e-39
-2.10214e-38
-3.5757e-38
-3.89264e-38
-3.06711e-38
-1.86906e-38
-9.16475e-39
-3.70385e-39
-1.25275e-39
-3.62248e-40
-9.94329e-41
-4.13917e-41
-1.51969e-39
-3.80481e-37
-2.34985e-36
-5.92327e-36
-8.61855e-36
-8.34299e-36
-5.76794e-36
-2.9672e-36
-1.1661e-36
-1.89181e-129
-3.71526e-104
-2.97017e-81
-2.12334e-70
-9.0128e-67
-6.43044e-61
-2.64441e-57
-7.66556e-53
-2.17379e-50
-2.51835e-49
-1.60882e-48
-1.44518e-47
-7.57861e-46
-4.72997e-45
-7.07063e-44
-3.12379e-43
-4.40369e-42
-4.99695e-40
-1.91838e-38
-6.59283e-38
-1.09944e-37
-1.17757e-37
-9.15358e-38
-5.5151e-38
-2.67878e-38
-1.07402e-38
-3.60654e-39
-1.03326e-39
-2.74378e-40
-1.01325e-40
-3.42493e-39
-9.28277e-37
-5.92652e-36
-1.53629e-35
-2.29456e-35
-2.27874e-35
-1.61608e-35
-8.52953e-36
-3.44015e-36
-1.36874e-127
-1.73246e-102
-9.70565e-80
-4.81079e-69
-1.7647e-65
-1.06755e-59
-3.43155e-56
-7.77258e-52
-1.64251e-49
-1.69489e-48
-9.51438e-48
-7.5069e-47
-3.61646e-45
-2.11374e-44
-2.86511e-43
-1.17533e-42
-1.5053e-41
-1.61813e-39
-5.95046e-38
-1.99412e-37
-3.26127e-37
-3.43746e-37
-2.63656e-37
-1.57082e-37
-7.55838e-38
-3.00639e-38
-1.00215e-38
-2.84509e-39
-7.34506e-40
-2.4314e-40
-7.42852e-39
-2.18736e-36
-1.44639e-35
-3.86117e-35
-5.9265e-35
-6.04399e-35
-4.40077e-35
-2.38475e-35
-9.87718e-36
-9.51158e-126
-7.8795e-101
-3.10129e-78
-1.06314e-67
-3.37129e-64
-1.7196e-58
-4.32008e-55
-7.64748e-51
-1.20185e-48
-1.10454e-47
-5.44332e-47
-3.7616e-46
-1.66225e-44
-9.10703e-44
-1.11921e-42
-4.2576e-42
-4.95164e-41
-5.04355e-39
-1.77692e-37
-5.80917e-37
-9.31995e-37
-9.6694e-37
-7.31934e-37
-4.31253e-37
-2.05575e-37
-8.11166e-38
-2.6837e-38
-7.54935e-39
-1.90182e-39
-5.70739e-40
-1.54765e-38
-4.97084e-36
-3.41154e-35
-9.39322e-35
-1.4835e-34
-1.55524e-34
-1.16367e-34
-6.47937e-35
-2.75774e-35
-6.33716e-124
-3.49249e-99
-9.68329e-77
-2.28978e-66
-6.27511e-63
-2.68456e-57
-5.26968e-54
-7.29277e-50
-8.50757e-48
-6.9624e-47
-3.00968e-46
-1.81593e-45
-7.34755e-44
-3.77716e-43
-4.20893e-42
-1.48263e-41
-1.56487e-40
-1.51082e-38
-5.10108e-37
-1.62754e-36
-2.56228e-36
-2.61722e-36
-1.95545e-36
-1.13949e-36
-5.38128e-37
-2.10625e-37
-6.91451e-38
-1.9268e-38
-4.74855e-39
-1.3066e-39
-3.09025e-38
-1.08766e-35
-7.766e-35
-2.20917e-34
-3.59489e-34
-3.87862e-34
-2.98508e-34
-1.70926e-34
-7.48111e-35
-4.04036e-122
-1.5073e-97
-2.95206e-75
-4.80264e-65
-1.13633e-61
-4.05711e-56
-6.22027e-53
-6.73209e-49
-5.82006e-47
-4.24026e-46
-1.60657e-45
-8.43426e-45
-3.11806e-43
-1.50554e-42
-1.52156e-41
-4.95512e-41
-4.74256e-40
-4.34243e-38
-1.40559e-36
-4.37857e-36
-6.76629e-36
-6.80576e-36
-5.01956e-36
-2.89296e-36
-1.3534e-36
-5.25372e-37
-1.71083e-37
-4.72041e-38
-1.1398e-38
-2.90564e-39
-5.89798e-38
-2.28724e-35
-1.70357e-34
-5.01629e-34
-8.42312e-34
-9.36451e-34
-7.42104e-34
-4.37372e-34
-1.97005e-34
-2.46017e-120
-6.32858e-96
-8.77997e-74
-9.80137e-64
-1.9989e-60
-5.9284e-55
-7.09565e-52
-6.00796e-48
-3.84394e-46
-2.49215e-45
-8.2707e-45
-3.76358e-44
-1.268e-42
-5.75651e-42
-5.27929e-41
-1.58655e-40
-1.37556e-39
-1.1954e-37
-3.71143e-36
-1.12927e-35
-1.7134e-35
-1.69733e-35
-1.23584e-35
-7.04421e-36
-3.2641e-36
-1.25636e-36
-4.05647e-37
-1.10744e-37
-2.62145e-38
-6.24614e-39
-1.07244e-37
-4.61269e-35
-3.59495e-34
-1.09807e-33
-1.90582e-33
-2.18629e-33
-1.78601e-33
-1.08448e-33
-5.03116e-34
-1.42779e-118
-2.58269e-94
-2.54533e-72
-1.94469e-62
-3.41036e-59
-8.36547e-54
-7.81169e-51
-5.17653e-47
-2.44865e-45
-1.41183e-44
-4.10186e-44
-1.61105e-43
-4.93143e-42
-2.10718e-41
-1.75501e-40
-4.85727e-40
-3.80977e-39
-3.14559e-37
-9.37416e-36
-2.78708e-35
-4.153e-35
-4.05231e-35
-2.91272e-35
-1.64172e-35
-7.53293e-36
-2.87381e-36
-9.19445e-37
-2.48133e-37
-5.75617e-38
-1.29046e-38
-1.85009e-37
-8.89866e-35
-7.28343e-34
-2.3134e-33
-4.15798e-33
-4.92931e-33
-4.15626e-33
-2.60283e-33
-1.24478e-33
-7.88352e-117
-1.02359e-92
-7.18607e-71
-3.74815e-61
-5.63443e-58
-1.13847e-52
-8.28837e-50
-4.30011e-46
-1.50305e-44
-7.70001e-44
-1.95768e-43
-6.60523e-43
-1.83015e-41
-7.3681e-41
-5.57931e-40
-1.41888e-39
-1.00498e-38
-7.89479e-37
-2.26043e-35
-6.56978e-35
-9.61635e-35
-9.24273e-35
-6.55762e-35
-3.65383e-35
-1.65944e-35
-6.27122e-36
-1.98653e-36
-5.29265e-37
-1.2017e-37
-2.5449e-38
-3.01132e-37
-1.63717e-34
-1.41351e-33
-4.682e-33
-8.73342e-33
-1.0718e-32
-9.34064e-33
-6.03979e-33
-2.98042e-33
-4.13607e-115
-3.93642e-91
-1.97389e-69
-7.01184e-60
-9.00022e-57
-1.49231e-51
-8.46371e-49
-3.439e-45
-8.88322e-44
-4.03814e-43
-8.98169e-43
-2.58951e-42
-6.46547e-41
-2.45502e-40
-1.69264e-39
-3.94541e-39
-2.51759e-38
-1.88516e-36
-5.19269e-35
-1.47605e-34
-2.12267e-34
-2.00955e-34
-1.40693e-34
-7.74579e-35
-3.47962e-35
-1.30152e-35
-4.07725e-36
-1.07048e-36
-2.37328e-37
-4.75094e-38
-4.58918e-37
-2.86154e-34
-2.62063e-33
-9.08323e-33
-1.76287e-32
-2.24406e-32
-2.02455e-32
-1.35341e-32
-6.89839e-33
-2.0627e-113
-1.46773e-89
-5.26962e-68
-1.2722e-58
-1.38776e-55
-1.8816e-50
-8.30648e-48
-2.64412e-44
-5.05172e-43
-2.03403e-42
-3.95707e-42
-9.69055e-42
-2.16846e-40
-7.77347e-40
-4.8889e-39
-1.04159e-38
-5.96889e-38
-4.27064e-36
-1.13377e-34
-3.15394e-34
-4.45651e-34
-4.15482e-34
-2.8691e-34
-1.55948e-34
-6.92229e-35
-2.55951e-35
-7.91646e-36
-2.04298e-36
-4.40569e-37
-8.30581e-38
-6.47416e-37
-4.72801e-34
-4.62638e-33
-1.68503e-32
-3.41306e-32
-4.51708e-32
-4.22641e-32
-2.9252e-32
-1.54185e-32
-9.82238e-112
-5.30125e-88
-1.36553e-66
-2.23666e-57
-2.06197e-54
-2.27879e-49
-7.82385e-47
-1.95169e-43
-2.76321e-42
-9.83071e-42
-1.67253e-41
-3.45547e-41
-6.88416e-40
-2.3319e-39
-1.34085e-38
-2.60311e-38
-1.33392e-37
-9.14832e-36
-2.34677e-34
-6.39433e-34
-8.87761e-34
-8.14743e-34
-5.54474e-34
-2.97182e-34
-1.30138e-34
-4.74781e-35
-1.44641e-35
-3.65537e-36
-7.62026e-37
-1.33903e-37
-8.29908e-37
-7.33424e-34
-7.74522e-33
-2.98043e-32
-6.32438e-32
-8.72669e-32
-8.48614e-32
-6.09113e-32
-3.32446e-32
-4.53025e-110
-1.85328e-86
-3.42993e-65
-3.8067e-56
-2.94669e-53
-2.64659e-48
-7.06128e-46
-1.38092e-42
-1.45357e-41
-4.55526e-41
-6.77656e-41
-1.17196e-40
-2.06196e-39
-6.60489e-39
-3.4816e-38
-6.1385e-38
-2.79627e-37
-1.84578e-35
-4.59161e-34
-2.09427e-108
-6.26262e-85
-8.33167e-64
-6.26146e-55
-4.03971e-52
-2.94111e-47
-6.09394e-45
-9.34887e-42
-7.35298e-41
-2.02219e-40
-2.63049e-40
-3.77408e-40
-5.8054e-39
-1.75953e-38
-8.52916e-38
-1.36081e-37
-5.46518e-37
-9.77851e-40
-1.15198e-39
-1.69764e-142
-3.88938e-134
-5.62894e-126
-2.43393e-116
-2.60309e-110
-8.68299e-102
-3.49538e-96
-4.20895e-88
-9.24428e-83
-2.9401e-80
-4.95232e-78
-1.02555e-75
-6.41024e-73
-3.8755e-71
-9.46937e-69
-2.81718e-67
-1.55149e-64
-9.22768e-62
-1.34104e-59
-1.17061e-58
-4.03178e-58
-7.91598e-58
-1.02978e-57
-9.60338e-58
-6.72495e-58
-3.65735e-58
-2.15591e-58
-7.02473e-58
-2.46789e-57
-5.06554e-57
-1.19936e-55
-6.71557e-54
-2.44869e-53
-3.84973e-53
-3.4927e-53
-2.06592e-53
-8.49119e-54
-2.51922e-54
-5.52958e-55
-9.81733e-141
-1.19763e-132
-1.91971e-124
-7.82691e-115
-8.18614e-109
-1.86059e-100
-7.58233e-95
-8.71532e-87
-1.3486e-81
-3.82664e-79
-5.82978e-77
-1.09448e-74
-6.32967e-72
-3.53876e-70
-7.99185e-68
-2.23173e-66
-1.11553e-63
-6.32583e-61
-8.81063e-59
-7.4384e-58
-2.49541e-57
-4.79056e-57
-6.11126e-57
-5.60355e-57
-3.86749e-57
-2.07703e-57
-1.1538e-57
-3.26824e-57
-1.12223e-56
-2.28951e-56
-5.57848e-55
-3.22712e-53
-1.18702e-52
-1.88189e-52
-1.72317e-52
-1.02996e-52
-4.28364e-53
-1.28783e-53
-2.86845e-54
-4.38561e-139
-3.19097e-131
-6.30143e-123
-2.56479e-113
-2.54143e-107
-3.67734e-99
-1.62693e-93
-1.70439e-85
-1.93722e-80
-4.90361e-78
-6.75384e-76
-1.14913e-73
-6.14896e-71
-3.17955e-69
-6.63445e-67
-1.739e-65
-7.89016e-63
-4.26579e-60
-5.69388e-58
-4.64995e-57
-1.51968e-56
-2.85301e-56
-3.56967e-56
-3.21874e-56
-2.18993e-56
-1.16165e-56
-6.12149e-57
-1.49985e-56
-5.01833e-56
-1.01756e-55
-2.55183e-54
-1.52644e-52
-5.66626e-52
-9.06218e-52
-8.37758e-52
-5.06173e-52
-2.13093e-52
-6.49385e-53
-1.46823e-53
-1.35233e-137
-7.63441e-130
-1.98617e-121
-8.68364e-112
-7.79126e-106
-6.75001e-98
-3.45377e-92
-3.13174e-84
-2.73939e-79
-6.185e-77
-7.69775e-75
-1.18653e-72
-5.87451e-70
-2.81002e-68
-5.41536e-66
-1.33238e-64
-5.4878e-62
-2.82862e-59
-3.61818e-57
-2.85871e-56
-9.10305e-56
-1.67156e-55
-2.05168e-55
-1.8196e-55
-1.22062e-55
-6.39671e-56
-3.21711e-56
-6.7921e-56
-2.20623e-55
-4.44569e-55
-1.14769e-53
-7.1048e-52
-2.66274e-51
-4.29765e-51
-4.01258e-51
-2.45153e-51
-1.04503e-51
-3.22915e-52
-7.41348e-53
-2.21273e-136
-1.84108e-128
-5.99063e-120
-3.03121e-110
-2.35816e-104
-1.17727e-96
-7.25389e-91
-5.38935e-83
-3.81242e-78
-7.67701e-76
-8.62973e-74
-1.2046e-71
-5.51821e-69
-2.44229e-67
-4.34531e-65
-1.00352e-63
-3.75246e-61
-1.84391e-58
-2.26018e-56
-1.72797e-55
-5.36208e-55
-9.63226e-55
-1.16e-54
-1.01206e-54
-6.69509e-55
-3.467e-55
-1.67334e-55
-3.0367e-55
-9.53358e-55
-1.90874e-54
-5.07339e-53
-3.25318e-51
-1.2315e-50
-2.00665e-50
-1.8929e-50
-1.16983e-50
-5.051e-51
-1.58307e-51
-3.69156e-52
-6.24564e-136
-5.19359e-127
-1.7242e-118
-1.07711e-108
-7.04847e-103
-2.05195e-95
-1.50761e-89
-8.68149e-82
-5.22057e-77
-9.37471e-75
-9.51293e-73
-1.20201e-70
-5.09468e-68
-2.08673e-66
-3.42622e-64
-7.42731e-63
-2.52157e-60
-1.18121e-57
-1.38741e-55
-1.02657e-54
-3.10488e-54
-5.45732e-54
-6.44957e-54
-5.53667e-54
-3.61262e-54
-1.84899e-54
-8.60647e-55
-1.34122e-54
-4.04835e-54
-8.0508e-54
-2.20356e-52
-1.46492e-50
-5.60389e-50
-9.22214e-50
-8.79241e-50
-5.49838e-50
-2.40544e-50
-7.64926e-51
-1.81232e-51
-3.12517e-134
-1.6909e-125
-4.71769e-117
-3.83834e-107
-2.08023e-101
-3.84318e-94
-3.10061e-88
-1.31266e-80
-7.03249e-76
-1.12603e-73
-1.03091e-71
-1.1786e-69
-4.6219e-67
-1.75233e-65
-2.65399e-63
-5.40037e-62
-1.6647e-59
-7.43379e-57
-8.36654e-55
-5.99237e-54
-1.76679e-53
-3.03904e-53
-3.52527e-53
-2.97824e-53
-1.91708e-53
-9.69966e-54
-4.37323e-54
-5.85605e-54
-1.68897e-53
-3.33473e-53
-9.40051e-52
-6.48531e-50
-2.50816e-49
-4.17042e-49
-4.02012e-49
-2.54477e-49
-1.12838e-49
-3.64182e-50
-8.76945e-51
-1.45537e-132
-5.60707e-124
-1.22297e-115
-1.35816e-105
-6.06306e-100
-8.11796e-93
-6.31077e-87
-1.8758e-79
-9.31677e-75
-1.32999e-72
-1.09794e-70
-1.13519e-68
-4.11857e-66
-1.44572e-64
-2.01884e-62
-3.856e-61
-1.07929e-58
-4.59428e-56
-4.95446e-54
-3.43559e-53
-9.8763e-53
-1.66282e-52
-1.89361e-52
-1.57467e-52
-1.00013e-52
-5.00342e-53
-2.19346e-53
-2.52955e-53
-6.92162e-53
-1.35598e-52
-3.93746e-51
-2.82168e-49
-1.1038e-48
-1.85516e-48
-1.80878e-48
-1.15939e-48
-5.21232e-49
-1.70792e-49
-4.18109e-50
-6.35497e-131
-1.78582e-122
-2.99094e-114
-4.74721e-104
-1.74495e-98
-1.89703e-91
-1.27103e-85
-2.56116e-78
-1.21362e-73
-1.5444e-71
-1.1489e-69
-1.07372e-67
-3.60385e-65
-1.17151e-63
-1.50761e-61
-2.70289e-60
-6.86963e-58
-2.78738e-55
-2.88005e-53
-1.93393e-52
-5.42147e-52
-8.93615e-52
-9.99236e-52
-8.18053e-52
-5.12766e-52
-2.53692e-52
-1.085e-52
-1.08185e-52
-2.78588e-52
-5.41073e-52
-1.61863e-50
-1.20612e-48
-4.77475e-48
-8.11503e-48
-8.00593e-48
-5.19812e-48
-2.3702e-48
-7.88734e-49
-1.96359e-49
-2.63269e-129
-5.42428e-121
-6.87184e-113
-1.63648e-102
-4.95925e-97
-4.64815e-90
-2.53291e-84
-3.38658e-77
-1.55396e-72
-1.76259e-70
-1.18082e-68
-9.96953e-67
-3.09537e-64
-9.32058e-63
-1.10481e-60
-1.8592e-59
-4.29078e-57
-1.65946e-54
-1.64278e-52
-1.06842e-51
-2.92134e-51
-4.71499e-51
-5.17792e-51
-4.17413e-51
-2.58259e-51
-1.26388e-51
-5.28849e-52
-4.5848e-52
-1.10112e-51
-2.11784e-51
-6.52787e-50
-5.06305e-48
-2.02944e-47
-3.48945e-47
-3.48471e-47
-2.29272e-47
-1.06065e-47
-3.58566e-48
-9.08066e-49
-1.05134e-127
-1.5574e-119
-1.47584e-111
-5.56049e-101
-1.39154e-95
-1.14888e-88
-4.99321e-83
-4.39375e-76
-1.95531e-71
-1.97652e-69
-1.19166e-67
-9.0839e-66
-2.60876e-63
-7.27817e-62
-7.94216e-60
-1.25447e-58
-2.6289e-56
-9.69061e-54
-9.19087e-52
-5.79067e-51
-1.54459e-50
-2.44151e-50
-2.63376e-50
-2.09107e-50
-1.27729e-50
-6.18425e-51
-2.53793e-51
-1.92668e-51
-4.27366e-51
-8.12816e-51
-2.58165e-49
-2.08645e-47
-8.47239e-47
-1.47443e-46
-1.49107e-46
-9.94477e-47
-4.66931e-47
-1.60412e-47
-4.13372e-48
-4.12959e-126
-4.18701e-118
-2.94715e-110
-1.86212e-99
-3.85488e-94
-2.82056e-87
-9.73503e-82
-5.64981e-75
-2.417e-70
-2.17705e-68
-1.18044e-66
-8.11918e-65
-2.1565e-62
-5.57584e-61
-5.5983e-59
-8.2995e-58
-1.57927e-55
-5.54828e-53
-5.04126e-51
-3.0776e-50
-8.00979e-50
-1.24022e-49
-1.31445e-49
-1.02802e-49
-6.2006e-50
-2.97071e-50
-1.19819e-50
-8.03298e-51
-1.62878e-50
-3.05755e-50
-1.00076e-48
-8.43709e-47
-3.47271e-46
-6.1197e-46
-6.26974e-46
-4.24054e-46
-2.02147e-46
-7.0596e-47
-1.85171e-47
-1.62214e-124
-1.04299e-116
-5.43887e-109
-6.14468e-98
-1.05409e-92
-6.84867e-86
-1.87613e-80
-7.24757e-74
-2.93403e-69
-2.35452e-67
-1.14735e-65
-7.11582e-64
-1.74776e-61
-4.18925e-60
-3.86775e-58
-5.38156e-57
-9.29785e-55
-3.11308e-52
-2.70973e-50
-1.60322e-49
-4.07202e-49
-6.17737e-49
-6.43376e-49
-4.95755e-49
-2.9532e-49
-1.40032e-49
-5.5608e-50
-3.324e-50
-6.09635e-50
-1.12682e-49
-3.80071e-48
-3.34642e-46
-1.39696e-45
-2.49401e-45
-2.5897e-45
-1.77692e-45
-8.60317e-46
-3.05523e-46
-8.15936e-47
-6.38335e-123
-2.38049e-115
-9.21652e-108
-1.9977e-96
-2.84472e-91
-1.6427e-84
-3.57247e-79
-9.32229e-73
-3.49641e-68
-2.49947e-66
-1.09381e-64
-6.11253e-63
-1.38814e-60
-3.08538e-59
-2.61784e-57
-3.41842e-56
-5.3622e-54
-1.71093e-51
-1.42662e-49
-8.18206e-49
-2.02848e-48
-3.01556e-48
-3.08695e-48
-2.34403e-48
-1.3793e-48
-6.47414e-49
-2.53503e-49
-1.36512e-49
-2.2414e-49
-4.06682e-49
-1.41346e-47
-1.30129e-45
-5.51274e-45
-9.97588e-45
-1.05033e-44
-7.31419e-45
-3.59798e-45
-1.29976e-45
-3.53532e-46
-2.46476e-121
-4.91578e-114
-1.42559e-106
-6.39728e-95
-7.5752e-90
-3.8888e-83
-6.7176e-78
-1.20744e-71
-4.08862e-67
-2.6034e-65
-1.02236e-63
-5.14404e-62
-1.07993e-59
-2.22654e-58
-1.73502e-56
-2.12615e-55
-3.02772e-53
-9.20586e-51
-7.35291e-49
-4.08886e-48
-9.89661e-48
-1.44202e-47
-1.45118e-47