/*--------------------------------*- C++ -*----------------------------------*\
| =========                 |                                                 |
| \\      /  F ield         | OpenFOAM: The Open Source CFD Toolbox           |
|  \\    /   O peration     | Version:  v2012                                 |
|   \\  /    A nd           | Website:  www.openfoam.com                      |
|    \\/     M anipulation  |                                                 |
\*---------------------------------------------------------------------------*/
FoamFile
{
    version     2.0;
    format      ascii;
    class       volVectorField;
    location    "0.8";
    object      U;
}
// * * * * * * * * * * * * * * * * * * * * * * * * * * * * * * * * * * * * * //

dimensions      [0 1 -1 0 0 0 0];


internalField   nonuniform List<vector> 
3352
(
(1.69338e-06 -0.00190252 -1.47837e-08)
(6.78399e-06 -0.00391506 -5.92024e-08)
(1.36821e-05 -0.00565375 -1.19408e-07)
(2.16012e-05 -0.00713399 -1.88526e-07)
(3.04903e-05 -0.00843137 -2.66111e-07)
(4.02773e-05 -0.00959355 -3.51525e-07)
(5.096e-05 -0.0106507 -4.44761e-07)
(6.26209e-05 -0.0116241 -5.46533e-07)
(7.52748e-05 -0.0125279 -6.56969e-07)
(8.90874e-05 -0.0133732 -7.77521e-07)
(0.000104212 -0.0141678 -9.09514e-07)
(0.000120489 -0.0149179 -1.05157e-06)
(0.000138033 -0.0156281 -1.20468e-06)
(0.000156748 -0.0163022 -1.36801e-06)
(0.00017664 -0.0169432 -1.54162e-06)
(0.000197686 -0.0175532 -1.7253e-06)
(0.000219845 -0.0181342 -1.9187e-06)
(0.000243032 -0.0186874 -2.12106e-06)
(0.000267208 -0.0192139 -2.33206e-06)
(0.00029236 -0.0197143 -2.55158e-06)
(0.000318403 -0.020189 -2.77888e-06)
(0.000345216 -0.020638 -3.01289e-06)
(0.000372708 -0.0210613 -3.25284e-06)
(0.000400774 -0.0214587 -3.49779e-06)
(0.000429302 -0.0218297 -3.74678e-06)
(0.000458154 -0.0221737 -3.9986e-06)
(0.000487178 -0.0224898 -4.25193e-06)
(0.000516192 -0.0227771 -4.50517e-06)
(0.000544997 -0.0230345 -4.7566e-06)
(0.000573365 -0.0232607 -5.00422e-06)
(0.000601044 -0.0234544 -5.24582e-06)
(0.000627754 -0.023614 -5.47896e-06)
(0.000653192 -0.0237378 -5.70102e-06)
(0.000677027 -0.023824 -5.90908e-06)
(0.000698905 -0.0238708 -6.10008e-06)
(0.000718451 -0.023876 -6.27073e-06)
(0.000735275 -0.0238375 -6.41764e-06)
(0.000748973 -0.023753 -6.53727e-06)
(0.000759139 -0.02362 -6.6261e-06)
(1.27424e-06 -0.00192766 -1.11187e-08)
(6.24675e-06 -0.00395258 -5.45061e-08)
(1.37821e-05 -0.00569823 -1.20268e-07)
(2.26203e-05 -0.00718287 -1.97408e-07)
(3.25914e-05 -0.00848337 -2.84433e-07)
(4.40018e-05 -0.0096481 -3.84021e-07)
(5.62537e-05 -0.0107077 -4.90955e-07)
(6.91099e-05 -0.0116833 -6.03168e-07)
(8.30796e-05 -0.0125892 -7.25099e-07)
(9.78279e-05 -0.0134362 -8.53815e-07)
(0.000113468 -0.0142323 -9.90314e-07)
(0.000130228 -0.0149837 -1.13659e-06)
(0.000147942 -0.0156952 -1.29118e-06)
(0.000166575 -0.0163704 -1.45381e-06)
(0.000186267 -0.0170122 -1.62567e-06)
(0.00020696 -0.0176229 -1.80627e-06)
(0.000228705 -0.0182042 -1.99605e-06)
(0.000251417 -0.0187575 -2.19428e-06)
(0.000275046 -0.0192838 -2.40051e-06)
(0.000299777 -0.0197838 -2.61636e-06)
(0.000325506 -0.0202578 -2.8409e-06)
(0.000352019 -0.020706 -3.0723e-06)
(0.000379225 -0.0211282 -3.30975e-06)
(0.000407051 -0.0215243 -3.5526e-06)
(0.000435383 -0.0218938 -3.79989e-06)
(0.000464087 -0.022236 -4.0504e-06)
(0.000492997 -0.0225501 -4.30273e-06)
(0.00052193 -0.0228352 -4.55525e-06)
(0.000550674 -0.0230901 -4.80613e-06)
(0.000578998 -0.0233136 -5.05336e-06)
(0.000606643 -0.0235043 -5.29465e-06)
(0.000633327 -0.0236606 -5.52755e-06)
(0.00065874 -0.0237808 -5.74936e-06)
(0.00068255 -0.0238633 -5.95719e-06)
(0.000704396 -0.023906 -6.14788e-06)
(0.000723902 -0.023907 -6.31817e-06)
(0.000740675 -0.023864 -6.4646e-06)
(0.000754309 -0.0237748 -6.58364e-06)
(0.000764389 -0.023637 -6.6717e-06)
(7.18136e-07 -0.00192435 -6.26453e-09)
(4.25192e-06 -0.00395242 -3.70966e-08)
(1.02821e-05 -0.00570193 -8.97212e-08)
(1.81259e-05 -0.0071899 -1.58178e-07)
(2.74523e-05 -0.00849302 -2.39572e-07)
(3.80703e-05 -0.0096599 -3.32242e-07)
(4.96432e-05 -0.0107215 -4.33242e-07)
(6.24869e-05 -0.0116988 -5.45346e-07)
(7.66043e-05 -0.0126063 -6.68557e-07)
(9.16257e-05 -0.0134551 -7.9966e-07)
(0.000107835 -0.0142528 -9.41132e-07)
(0.000125108 -0.0150059 -1.09189e-06)
(0.0001434 -0.015719 -1.25153e-06)
(0.000162805 -0.0163959 -1.42089e-06)
(0.000183344 -0.0170395 -1.60015e-06)
(0.000204892 -0.0176519 -1.78821e-06)
(0.000227511 -0.0182349 -1.98562e-06)
(0.000251 -0.0187898 -2.19063e-06)
(0.000275383 -0.0193177 -2.40345e-06)
(0.000300813 -0.019819 -2.62539e-06)
(0.00032716 -0.0202943 -2.85534e-06)
(0.00035428 -0.0207437 -3.09204e-06)
(0.000382088 -0.0211671 -3.33475e-06)
(0.000410494 -0.0215642 -3.58266e-06)
(0.000439387 -0.0219345 -3.83484e-06)
(0.000468625 -0.0222773 -4.09003e-06)
(0.000498051 -0.0225918 -4.34687e-06)
(0.000527475 -0.0228771 -4.60367e-06)
(0.000556688 -0.023132 -4.85865e-06)
(0.000585454 -0.0233553 -5.10974e-06)
(0.000613512 -0.0235455 -5.35464e-06)
(0.000640575 -0.0237011 -5.59085e-06)
(0.000666333 -0.0238205 -5.81568e-06)
(0.000690446 -0.0239019 -6.02616e-06)
(0.000712554 -0.0239432 -6.21914e-06)
(0.000732274 -0.0239426 -6.39128e-06)
(0.00074921 -0.0238978 -6.53914e-06)
(0.00076295 -0.0238066 -6.6591e-06)
(0.00077308 -0.0236666 -6.7476e-06)
(7.70058e-07 -0.0019418 -6.71562e-09)
(4.50145e-06 -0.00398047 -3.9272e-08)
(1.10293e-05 -0.00573692 -9.62402e-08)
(1.93808e-05 -0.00722962 -1.69129e-07)
(2.92852e-05 -0.00853623 -2.55567e-07)
(4.04493e-05 -0.00970583 -3.53001e-07)
(5.28383e-05 -0.0107694 -4.61129e-07)
(6.64612e-05 -0.0117482 -5.80031e-07)
(8.11195e-05 -0.0126569 -7.07962e-07)
(9.65666e-05 -0.0135066 -8.42783e-07)
(0.000113189 -0.0143051 -9.87858e-07)
(0.000130648 -0.0150588 -1.14023e-06)
(0.000149026 -0.0157723 -1.30064e-06)
(0.000168442 -0.0164493 -1.4701e-06)
(0.000188941 -0.0170929 -1.649e-06)
(0.000210437 -0.0177053 -1.83661e-06)
(0.000233002 -0.0182881 -2.03355e-06)
(0.000256494 -0.0188428 -2.23857e-06)
(0.000280893 -0.0193703 -2.45153e-06)
(0.000306379 -0.0198713 -2.67396e-06)
(0.000332831 -0.0203461 -2.90482e-06)
(0.000360143 -0.020795 -3.1432e-06)
(0.000388226 -0.0212177 -3.3883e-06)
(0.000416976 -0.021614 -3.63922e-06)
(0.000446262 -0.0219834 -3.89482e-06)
(0.000475935 -0.0223253 -4.1538e-06)
(0.000505825 -0.0226388 -4.41468e-06)
(0.000535736 -0.0229229 -4.67575e-06)
(0.000565447 -0.0231765 -4.93507e-06)
(0.000594714 -0.0233983 -5.19053e-06)
(0.000623264 -0.023587 -5.43973e-06)
(0.000650805 -0.0237409 -5.68011e-06)
(0.000677012 -0.0238583 -5.90886e-06)
(0.000701539 -0.0239376 -6.12295e-06)
(0.000724012 -0.0239767 -6.31913e-06)
(0.000744044 -0.0239737 -6.494e-06)
(0.000761226 -0.0239264 -6.64401e-06)
(0.000775143 -0.0238325 -6.76552e-06)
(0.000785365 -0.0236896 -6.85483e-06)
(5.46824e-07 -0.00194003 -4.77232e-09)
(3.52378e-06 -0.00398258 -3.07517e-08)
(8.41863e-06 -0.00574362 -7.34668e-08)
(1.56483e-05 -0.00724071 -1.36554e-07)
(2.46646e-05 -0.0085511 -2.15245e-07)
(3.50538e-05 -0.00972407 -3.05912e-07)
(4.69414e-05 -0.0107905 -4.09658e-07)
(6.02887e-05 -0.0117719 -5.26152e-07)
(7.48209e-05 -0.0126832 -6.5298e-07)
(9.05661e-05 -0.0135352 -7.90402e-07)
(0.000107754 -0.0143359 -9.40408e-07)
(0.000125912 -0.0150916 -1.09889e-06)
(0.000145211 -0.0158071 -1.26732e-06)
(0.000165572 -0.0164861 -1.44503e-06)
(0.000187099 -0.0171314 -1.63291e-06)
(0.000209638 -0.0177454 -1.82963e-06)
(0.000233246 -0.0183297 -2.03567e-06)
(0.000257775 -0.0188858 -2.24975e-06)
(0.000283168 -0.0194144 -2.47138e-06)
(0.000309563 -0.0199164 -2.70175e-06)
(0.000336918 -0.020392 -2.9405e-06)
(0.000365112 -0.0208415 -3.18657e-06)
(0.000394067 -0.0212646 -3.43928e-06)
(0.000423671 -0.0216611 -3.69766e-06)
(0.000453801 -0.0220304 -3.96063e-06)
(0.000484303 -0.0223721 -4.22684e-06)
(0.000515011 -0.0226851 -4.49487e-06)
(0.000545723 -0.0229685 -4.76292e-06)
(0.000576217 -0.0232212 -5.02907e-06)
(0.000606241 -0.0234419 -5.29114e-06)
(0.000635518 -0.0236291 -5.54668e-06)
(0.000663745 -0.0237814 -5.79305e-06)
(0.000690591 -0.0238971 -6.02738e-06)
(0.000715699 -0.0239743 -6.24654e-06)
(0.000738688 -0.0240112 -6.44721e-06)
(0.000759156 -0.0240057 -6.6259e-06)
(0.000776689 -0.0239557 -6.77897e-06)
(0.000790858 -0.0238589 -6.90268e-06)
(0.000801227 -0.0237131 -6.99327e-06)
(7.1268e-07 -0.0019521 -6.21645e-09)
(3.8984e-06 -0.00400322 -3.39938e-08)
(9.51725e-06 -0.00577052 -8.30611e-08)
(1.66503e-05 -0.0072723 -1.45307e-07)
(2.60659e-05 -0.00858629 -2.27488e-07)
(3.6756e-05 -0.00976227 -3.20772e-07)
(4.90806e-05 -0.0108311 -4.28335e-07)
(6.25222e-05 -0.0118145 -5.45648e-07)
(7.73339e-05 -0.0127273 -6.74921e-07)
(9.33792e-05 -0.0135805 -8.14956e-07)
(0.000110644 -0.0143822 -9.65634e-07)
(0.000128913 -0.0151388 -1.12508e-06)
(0.000148392 -0.0158549 -1.29508e-06)
(0.00016894 -0.0165345 -1.47442e-06)
(0.000190692 -0.0171803 -1.66427e-06)
(0.000213502 -0.0177947 -1.86334e-06)
(0.000237418 -0.0183794 -2.07207e-06)
(0.000262346 -0.0189357 -2.28963e-06)
(0.000288227 -0.0194645 -2.51552e-06)
(0.00031517 -0.0199666 -2.75068e-06)
(0.000343134 -0.0204422 -2.99473e-06)
(0.000372034 -0.0208916 -3.24697e-06)
(0.000401758 -0.0213145 -3.5064e-06)
(0.000432192 -0.0217107 -3.77202e-06)
(0.000463188 -0.0220797 -4.04255e-06)
(0.000494591 -0.0224207 -4.31663e-06)
(0.000526219 -0.022733 -4.59268e-06)
(0.00055786 -0.0230155 -4.86884e-06)
(0.000589279 -0.0232672 -5.14307e-06)
(0.000620214 -0.0234866 -5.41308e-06)
(0.000650372 -0.0236724 -5.67632e-06)
(0.000679442 -0.023823 -5.93004e-06)
(0.000707076 -0.0239368 -6.17125e-06)
(0.000732905 -0.0240119 -6.39672e-06)
(0.000756534 -0.0240465 -6.60297e-06)
(0.00077755 -0.0240385 -6.78644e-06)
(0.000795524 -0.0239858 -6.94336e-06)
(0.000810016 -0.0238861 -7.06989e-06)
(0.000820573 -0.0237372 -7.16212e-06)
(4.73203e-07 -0.00195226 -4.12662e-09)
(2.99976e-06 -0.00400756 -2.61585e-08)
(7.71149e-06 -0.00577978 -6.73106e-08)
(1.41655e-05 -0.00728597 -1.23628e-07)
(2.28656e-05 -0.00860423 -1.99558e-07)
(3.29017e-05 -0.00978393 -2.87154e-07)
(4.495e-05 -0.0108562 -3.92282e-07)
(5.81729e-05 -0.0118427 -5.07696e-07)
(7.30517e-05 -0.0127582 -6.37544e-07)
(8.93287e-05 -0.0136139 -7.79603e-07)
(0.000107033 -0.0144181 -9.34109e-07)
(0.000125946 -0.0151769 -1.09918e-06)
(0.000146296 -0.0158951 -1.27678e-06)
(0.000167772 -0.0165765 -1.46421e-06)
(0.000190595 -0.017224 -1.66341e-06)
(0.00021447 -0.0178399 -1.87178e-06)
(0.000239503 -0.0184259 -2.09026e-06)
(0.000265517 -0.0189834 -2.31731e-06)
(0.000292507 -0.0195132 -2.55287e-06)
(0.000320538 -0.020016 -2.79752e-06)
(0.000349597 -0.0204922 -3.05114e-06)
(0.000379586 -0.0209419 -3.31288e-06)
(0.000410411 -0.0213649 -3.58192e-06)
(0.000441945 -0.0217611 -3.85714e-06)
(0.000474056 -0.0221298 -4.1374e-06)
(0.000506578 -0.0224704 -4.42124e-06)
(0.000539331 -0.0227821 -4.70711e-06)
(0.000572091 -0.0230638 -4.99304e-06)
(0.000604619 -0.0233144 -5.27694e-06)
(0.000636636 -0.0235326 -5.55641e-06)
(0.000667843 -0.0237169 -5.8288e-06)
(0.000697909 -0.0238658 -6.09122e-06)
(0.000726478 -0.0239776 -6.34058e-06)
(0.00075316 -0.0240506 -6.57349e-06)
(0.000777549 -0.0240828 -6.78638e-06)
(0.000799212 -0.0240722 -6.9755e-06)
(0.00081771 -0.0240167 -7.137e-06)
(0.000832583 -0.023914 -7.26685e-06)
(0.000843367 -0.0237619 -7.36107e-06)
(5.67994e-07 -0.00196089 -4.95159e-09)
(3.22669e-06 -0.00402336 -2.81329e-08)
(8.66695e-06 -0.00580129 -7.5592e-08)
(1.5025e-05 -0.00731209 -1.31075e-07)
(2.37704e-05 -0.00863424 -2.07409e-07)
(3.40151e-05 -0.00981718 -2.9687e-07)
(4.63073e-05 -0.0108922 -4.04175e-07)
(5.97155e-05 -0.011881 -5.2116e-07)
(7.48405e-05 -0.0127987 -6.53168e-07)
(9.11433e-05 -0.0136562 -7.95445e-07)
(0.000108956 -0.0144619 -9.50901e-07)
(0.000128145 -0.015222 -1.11838e-06)
(0.00014873 -0.0159414 -1.29802e-06)
(0.000170568 -0.016624 -1.48862e-06)
(0.00019386 -0.0172725 -1.6919e-06)
(0.00021831 -0.0178893 -1.90528e-06)
(0.000244013 -0.018476 -2.12961e-06)
(0.000270789 -0.0190341 -2.36331e-06)
(0.000298624 -0.0195645 -2.60624e-06)
(0.000327602 -0.0200678 -2.85916e-06)
(0.000357672 -0.0205443 -3.1216e-06)
(0.000388742 -0.0209942 -3.39278e-06)
(0.00042069 -0.0214173 -3.67161e-06)
(0.000453401 -0.0218133 -3.95711e-06)
(0.000486724 -0.0221817 -4.24795e-06)
(0.000520493 -0.0225219 -4.54268e-06)
(0.000554508 -0.0228329 -4.83956e-06)
(0.000588539 -0.0231137 -5.13658e-06)
(0.000622325 -0.0233632 -5.43147e-06)
(0.000655579 -0.02358 -5.72174e-06)
(0.000687982 -0.0237628 -6.00456e-06)
(0.00071919 -0.02391 -6.27695e-06)
(0.000748825 -0.0240198 -6.53562e-06)
(0.000776486 -0.0240905 -6.77707e-06)
(0.000801741 -0.0241202 -6.99752e-06)
(0.000824147 -0.0241069 -7.19313e-06)
(0.000843242 -0.0240485 -7.35983e-06)
(0.000858552 -0.0239427 -7.49351e-06)
(0.000869593 -0.0237873 -7.58997e-06)
(4.74175e-07 -0.00196243 -4.13487e-09)
(2.76289e-06 -0.00402945 -2.40995e-08)
(7.52463e-06 -0.00581227 -6.56361e-08)
(1.33918e-05 -0.0073277 -1.16825e-07)
(2.17736e-05 -0.008654 -1.89987e-07)
(3.18324e-05 -0.00984039 -2.77818e-07)
(4.40145e-05 -0.0109197 -3.84169e-07)
(5.72396e-05 -0.0119115 -4.99565e-07)
(7.25059e-05 -0.0128324 -6.3279e-07)
(8.91223e-05 -0.0136927 -7.77811e-07)
(0.000107409 -0.0145009 -9.37396e-07)
(0.000127183 -0.0152634 -1.10997e-06)
(0.000148561 -0.0159849 -1.29654e-06)
(0.000171291 -0.0166693 -1.49492e-06)
(0.000195642 -0.0173195 -1.70744e-06)
(0.000221186 -0.0179379 -1.93038e-06)
(0.000248089 -0.0185259 -2.16518e-06)
(0.000276039 -0.0190852 -2.40912e-06)
(0.000305122 -0.0196165 -2.66295e-06)
(0.000335364 -0.0201206 -2.92689e-06)
(0.000366737 -0.0205976 -3.20071e-06)
(0.000399121 -0.0210479 -3.48335e-06)
(0.000432415 -0.0214711 -3.77394e-06)
(0.000466488 -0.0218671 -4.07132e-06)
(0.000501203 -0.0222353 -4.37431e-06)
(0.000536379 -0.022575 -4.68132e-06)
(0.000571819 -0.0228854 -4.99063e-06)
(0.000607271 -0.0231653 -5.30006e-06)
(0.00064247 -0.0234137 -5.60728e-06)
(0.000677106 -0.0236292 -5.90961e-06)
(0.00071085 -0.0238103 -6.20413e-06)
(0.000743333 -0.0239556 -6.48765e-06)
(0.000774164 -0.0240634 -6.75676e-06)
(0.000802915 -0.0241317 -7.00773e-06)
(0.000829142 -0.0241589 -7.23667e-06)
(0.000852375 -0.0241427 -7.43949e-06)
(0.000872135 -0.0240813 -7.61201e-06)
(0.000887928 -0.0239723 -7.7499e-06)
(0.000899253 -0.0238135 -7.84885e-06)
(4.93261e-07 -0.00196888 -4.29795e-09)
(2.93968e-06 -0.00404215 -2.56347e-08)
(8.05496e-06 -0.00583044 -7.02643e-08)
(1.43394e-05 -0.00735051 -1.25103e-07)
(2.33497e-05 -0.00868095 -2.03723e-07)
(3.20603e-05 -0.0098709 -2.79744e-07)
(4.45325e-05 -0.0109536 -3.88588e-07)
(5.87485e-05 -0.0119483 -5.12741e-07)
(7.37309e-05 -0.0128717 -6.43514e-07)
(9.09765e-05 -0.0137341 -7.93994e-07)
(0.000109506 -0.0145444 -9.55716e-07)
(0.000129635 -0.0153087 -1.13138e-06)
(0.000151427 -0.0160319 -1.32155e-06)
(0.000174727 -0.0167178 -1.5249e-06)
(0.000199748 -0.0173694 -1.74327e-06)
(0.000226117 -0.017989 -1.97341e-06)
(0.000253949 -0.0185782 -2.21631e-06)
(0.000282942 -0.0191385 -2.46936e-06)
(0.000313171 -0.0196706 -2.73319e-06)
(0.000344661 -0.0201754 -3.00803e-06)
(0.000377341 -0.020653 -3.29325e-06)
(0.000411111 -0.0211036 -3.58799e-06)
(0.000445832 -0.021527 -3.89102e-06)
(0.00048139 -0.021923 -4.20136e-06)
(0.000517622 -0.022291 -4.51759e-06)
(0.00055435 -0.0226302 -4.83815e-06)
(0.000591354 -0.0229399 -5.16112e-06)
(0.000628377 -0.0232189 -5.48426e-06)
(0.00066513 -0.0234661 -5.80504e-06)
(0.000701294 -0.0236802 -6.1207e-06)
(0.000736512 -0.0238597 -6.4281e-06)
(0.000770403 -0.0240031 -6.7239e-06)
(0.000802547 -0.0241086 -7.00447e-06)
(0.000832501 -0.0241746 -7.26594e-06)
(0.000859792 -0.024199 -7.50417e-06)
(0.000883933 -0.0241799 -7.71492e-06)
(0.000904419 -0.0241153 -7.89378e-06)
(0.000920739 -0.0240029 -8.03627e-06)
(0.000932364 -0.0238405 -8.13784e-06)
(4.34011e-07 -0.0019713 -3.77998e-09)
(2.53131e-06 -0.0040495 -2.20798e-08)
(7.24088e-06 -0.00584288 -6.31673e-08)
(1.32269e-05 -0.00736761 -1.15401e-07)
(2.2189e-05 -0.00870244 -1.93599e-07)
(3.09077e-05 -0.00989697 -2.69647e-07)
(4.34452e-05 -0.010982 -3.79096e-07)
(5.80721e-05 -0.0119801 -5.06824e-07)
(7.35661e-05 -0.0129077 -6.42082e-07)
(9.1053e-05 -0.0137728 -7.94661e-07)
(0.000109886 -0.014586 -9.59027e-07)
(0.00013063 -0.0153528 -1.14006e-06)
(0.000153244 -0.0160783 -1.33741e-06)
(0.00017747 -0.0167663 -1.54885e-06)
(0.000203599 -0.0174198 -1.77688e-06)
(0.000231125 -0.018041 -2.01711e-06)
(0.000260228 -0.0186316 -2.2711e-06)
(0.00029052 -0.0191932 -2.53548e-06)
(0.000322157 -0.0197264 -2.81161e-06)
(0.000355092 -0.020232 -3.09905e-06)
(0.000389298 -0.0207103 -3.3976e-06)
(0.000424629 -0.0211613 -3.70595e-06)
(0.000460961 -0.0215851 -4.02305e-06)
(0.000498158 -0.0219811 -4.3477e-06)
(0.000536069 -0.0223488 -4.67858e-06)
(0.000574493 -0.0226876 -5.01394e-06)
(0.000613212 -0.0229966 -5.35188e-06)
(0.000651946 -0.0232747 -5.68995e-06)
(0.000690398 -0.0235207 -6.02556e-06)
(0.000728223 -0.0237333 -6.35572e-06)
(0.00076505 -0.0239111 -6.67716e-06)
(0.000800469 -0.0240524 -6.9863e-06)
(0.000834044 -0.0241557 -7.27937e-06)
(0.000865302 -0.0242191 -7.55222e-06)
(0.000893749 -0.0242406 -7.80054e-06)
(0.000918869 -0.0242185 -8.01984e-06)
(0.00094014 -0.0241505 -8.20554e-06)
(0.000957019 -0.0240346 -8.35292e-06)
(0.000968963 -0.0238685 -8.45728e-06)
(3.91932e-07 -0.00197656 -3.41283e-09)
(2.58453e-06 -0.00406053 -2.25415e-08)
(7.59933e-06 -0.00585923 -6.63034e-08)
(1.411e-05 -0.00738876 -1.23102e-07)
(2.28187e-05 -0.00872785 -1.99076e-07)
(3.25999e-05 -0.00992629 -2.84435e-07)
(4.61363e-05 -0.011015 -4.0259e-07)
(5.79828e-05 -0.0120164 -5.05939e-07)
(7.39187e-05 -0.0129471 -6.45048e-07)
(9.36791e-05 -0.0138149 -8.17585e-07)
(0.000112366 -0.0146305 -9.80677e-07)
(0.000133913 -0.0153997 -1.16872e-06)
(0.000157253 -0.0161273 -1.3724e-06)
(0.000182253 -0.0168172 -1.59059e-06)
(0.000209281 -0.0174724 -1.82647e-06)
(0.000237838 -0.0180952 -2.0757e-06)
(0.000268067 -0.0186873 -2.33952e-06)
(0.000299644 -0.0192501 -2.6151e-06)
(0.000332697 -0.0197844 -2.90358e-06)
(0.000367131 -0.0202909 -3.20411e-06)
(0.000402887 -0.0207699 -3.51618e-06)
(0.000439873 -0.0212215 -3.83898e-06)
(0.00047792 -0.0216455 -4.17105e-06)
(0.000516899 -0.0220415 -4.51125e-06)
(0.000556624 -0.0224091 -4.85796e-06)
(0.000596897 -0.0227475 -5.20946e-06)
(0.000637472 -0.0230557 -5.5636e-06)
(0.000678067 -0.0233329 -5.91791e-06)
(0.000718355 -0.0235776 -6.26955e-06)
(0.00075798 -0.0237887 -6.61542e-06)
(0.000796542 -0.0239647 -6.95201e-06)
(0.000833615 -0.0241039 -7.27558e-06)
(0.000868729 -0.0242047 -7.58208e-06)
(0.000901392 -0.0242654 -7.8672e-06)
(0.000931078 -0.024284 -8.12633e-06)
(0.00095725 -0.0242586 -8.35481e-06)
(0.000979353 -0.0241872 -8.54778e-06)
(0.000996826 -0.0240675 -8.70035e-06)
(0.00100909 -0.0238975 -8.80754e-06)
(4.54741e-07 -0.00197957 -3.96447e-09)
(2.6082e-06 -0.00406891 -2.27539e-08)
(7.22137e-06 -0.0058729 -6.30114e-08)
(1.36567e-05 -0.00740731 -1.19157e-07)
(2.25114e-05 -0.00875115 -1.96399e-07)
(3.22256e-05 -0.00995352 -2.81152e-07)
(4.59373e-05 -0.0110468 -4.00843e-07)
(5.85344e-05 -0.0120522 -5.10733e-07)
(7.52307e-05 -0.0129851 -6.56508e-07)
(9.53656e-05 -0.0138564 -8.32302e-07)
(0.000114497 -0.014675 -9.99277e-07)
(0.000136782 -0.0154468 -1.19376e-06)
(0.000161078 -0.0161769 -1.40579e-06)
(0.000187107 -0.0168691 -1.63295e-06)
(0.000215312 -0.0175264 -1.8791e-06)
(0.000245131 -0.0181511 -2.13934e-06)
(0.000276758 -0.0187449 -2.41536e-06)
(0.000309811 -0.0193091 -2.70383e-06)
(0.000344467 -0.0198447 -3.0063e-06)
(0.000380559 -0.0203522 -3.3213e-06)
(0.000418079 -0.020832 -3.64877e-06)
(0.000456876 -0.0212842 -3.98736e-06)
(0.000496804 -0.0217085 -4.33585e-06)
(0.000537703 -0.0221047 -4.69281e-06)
(0.000579397 -0.0224721 -5.05671e-06)
(0.000621658 -0.02281 -5.42556e-06)
(0.000664242 -0.0231176 -5.79723e-06)
(0.000706834 -0.0233937 -6.16897e-06)
(0.000749101 -0.0236371 -6.53788e-06)
(0.000790657 -0.0238466 -6.9006e-06)
(0.000831084 -0.0240206 -7.25347e-06)
(0.000869925 -0.0241576 -7.59248e-06)
(0.00090669 -0.024256 -7.91339e-06)
(0.000940851 -0.0243138 -8.21158e-06)
(0.00097186 -0.0243293 -8.48226e-06)
(0.000999145 -0.0243005 -8.72046e-06)
(0.00102213 -0.0242253 -8.92113e-06)
(0.00104022 -0.0241018 -9.07908e-06)
(0.00105282 -0.0239276 -9.18917e-06)
(4.20729e-07 -0.00198416 -3.66617e-09)
(2.70077e-06 -0.0040792 -2.35618e-08)
(7.79446e-06 -0.00588867 -6.80152e-08)
(1.41378e-05 -0.00742813 -1.23361e-07)
(2.32467e-05 -0.00877663 -2.02821e-07)
(3.36076e-05 -0.00998325 -2.93222e-07)
(4.76585e-05 -0.0110803 -4.15859e-07)
(6.04741e-05 -0.0120894 -5.2767e-07)
(7.76525e-05 -0.0130258 -6.77653e-07)
(9.84599e-05 -0.0139004 -8.59316e-07)
(0.000118243 -0.0147219 -1.03198e-06)
(0.000141381 -0.0154964 -1.2339e-06)
(0.000166547 -0.016229 -1.45353e-06)
(0.000193583 -0.0169234 -1.68947e-06)
(0.000222861 -0.0175828 -1.94498e-06)
(0.00025393 -0.0182094 -2.21614e-06)
(0.000286922 -0.0188049 -2.50406e-06)
(0.000321518 -0.0193707 -2.806e-06)
(0.000357849 -0.0199076 -3.12308e-06)
(0.00039571 -0.0204162 -3.45352e-06)
(0.000435039 -0.0208969 -3.79677e-06)
(0.000475762 -0.0213497 -4.15219e-06)
(0.000517688 -0.0217744 -4.5181e-06)
(0.000560659 -0.0221707 -4.89315e-06)
(0.000604461 -0.0225379 -5.27545e-06)
(0.000648868 -0.0228754 -5.66302e-06)
(0.000693602 -0.0231822 -6.05346e-06)
(0.000738343 -0.0234573 -6.44396e-06)
(0.000782727 -0.0236994 -6.83134e-06)
(0.000826351 -0.0239072 -7.21213e-06)
(0.000868768 -0.0240792 -7.58235e-06)
(0.000909498 -0.0242139 -7.93786e-06)
(0.000948016 -0.0243095 -8.27407e-06)
(0.000983772 -0.0243644 -8.58617e-06)
(0.00101618 -0.0243765 -8.86906e-06)
(0.00104464 -0.0243441 -9.11753e-06)
(0.00106855 -0.0242651 -9.32624e-06)
(0.00108728 -0.0241374 -9.48979e-06)
(0.0011002 -0.0239589 -9.60275e-06)
(4.17126e-07 -0.00198761 -3.63436e-09)
(2.60822e-06 -0.0040883 -2.27569e-08)
(7.60291e-06 -0.00590346 -6.63462e-08)
(1.41143e-05 -0.00744818 -1.2316e-07)
(2.36027e-05 -0.00880126 -2.05935e-07)
(3.42337e-05 -0.0100125 -2.9869e-07)
(4.85723e-05 -0.0111138 -4.23838e-07)
(6.19626e-05 -0.0121269 -5.40662e-07)
(7.98268e-05 -0.0130669 -6.96628e-07)
(0.00010137 -0.013945 -8.84717e-07)
(0.000122046 -0.0147697 -1.06517e-06)
(0.000146109 -0.0155472 -1.27517e-06)
(0.000172337 -0.0162826 -1.50406e-06)
(0.000200564 -0.0169796 -1.7504e-06)
(0.000231174 -0.0176414 -2.01753e-06)
(0.000263673 -0.0182701 -2.30116e-06)
(0.000298246 -0.0188675 -2.60289e-06)
(0.000334533 -0.019435 -2.91959e-06)
(0.000372674 -0.0199733 -3.25247e-06)
(0.000412441 -0.0204832 -3.59953e-06)
(0.0004538 -0.0209648 -3.9605e-06)
(0.000496605 -0.0214183 -4.33408e-06)
(0.000540694 -0.0218434 -4.71888e-06)
(0.000585875 -0.0222399 -5.11321e-06)
(0.000631941 -0.022607 -5.51527e-06)
(0.000678631 -0.022944 -5.92277e-06)
(0.000725669 -0.02325 -6.33332e-06)
(0.000772698 -0.023524 -6.74378e-06)
(0.000819343 -0.0237646 -7.1509e-06)
(0.000865166 -0.0239706 -7.55088e-06)
(0.000909702 -0.0241405 -7.9396e-06)
(0.000952434 -0.0242727 -8.31257e-06)
(0.000992813 -0.0243656 -8.66503e-06)
(0.00103025 -0.0244173 -8.99182e-06)
(0.00106413 -0.0244259 -9.28759e-06)
(0.00109383 -0.0243897 -9.54682e-06)
(0.00111869 -0.0243066 -9.76393e-06)
(0.00113808 -0.0241746 -9.9332e-06)
(0.00115133 -0.0239914 -1.0049e-05)
(3.68634e-07 -0.00199204 -3.21108e-09)
(2.56651e-06 -0.00409867 -2.2392e-08)
(7.93283e-06 -0.00591963 -6.92246e-08)
(1.49443e-05 -0.00746974 -1.30403e-07)
(2.46879e-05 -0.0088278 -2.1541e-07)
(3.56138e-05 -0.0100437 -3.10737e-07)
(5.0627e-05 -0.0111494 -4.41774e-07)
(6.4645e-05 -0.0121665 -5.64076e-07)
(8.31657e-05 -0.0131103 -7.25772e-07)
(0.000105539 -0.0139921 -9.21105e-07)
(0.000127176 -0.01482 -1.10995e-06)
(0.000152132 -0.0156006 -1.32774e-06)
(0.000179458 -0.0163389 -1.56621e-06)
(0.00020893 -0.0170386 -1.82342e-06)
(0.000240854 -0.0177028 -2.10202e-06)
(0.000274886 -0.0183337 -2.39903e-06)
(0.000311065 -0.0189332 -2.71477e-06)
(0.00034916 -0.0195023 -3.04724e-06)
(0.000389234 -0.0200422 -3.39698e-06)
(0.000431041 -0.0205533 -3.76185e-06)
(0.000474482 -0.021036 -4.141e-06)
(0.000519496 -0.0214902 -4.53386e-06)
(0.000565874 -0.0219158 -4.93863e-06)
(0.000613426 -0.0223124 -5.35366e-06)
(0.000661903 -0.0226794 -5.77675e-06)
(0.000711043 -0.0230159 -6.20564e-06)
(0.000760531 -0.0233212 -6.63756e-06)
(0.000810004 -0.023594 -7.06936e-06)
(0.000859048 -0.0238331 -7.49742e-06)
(0.000907212 -0.0240372 -7.91783e-06)
(0.00095399 -0.0242049 -8.32613e-06)
(0.000998845 -0.0243345 -8.71762e-06)
(0.00104119 -0.0244243 -9.0872e-06)
(0.0010804 -0.0244726 -9.42948e-06)
(0.00111582 -0.0244777 -9.73874e-06)
(0.00114681 -0.0244374 -1.00092e-05)
(0.00117267 -0.02435 -1.0235e-05)
(0.00119273 -0.0242133 -1.04102e-05)
(0.00120629 -0.0240254 -1.05287e-05)
(4.25243e-07 -0.00199593 -3.70653e-09)
(2.69241e-06 -0.00410867 -2.34949e-08)
(7.96372e-06 -0.0059356 -6.94984e-08)
(1.52271e-05 -0.00749126 -1.32875e-07)
(2.54565e-05 -0.0088547 -2.22122e-07)
(3.67984e-05 -0.0100754 -3.21078e-07)
(5.23391e-05 -0.0111857 -4.56719e-07)
(6.7133e-05 -0.0122071 -5.8579e-07)
(8.64914e-05 -0.013155 -7.54794e-07)
(0.000109808 -0.0140406 -9.58364e-07)
(0.000132586 -0.0148722 -1.15717e-06)
(0.000158696 -0.0156562 -1.38502e-06)
(0.000187275 -0.0163976 -1.63444e-06)
(0.000218147 -0.0171002 -1.90386e-06)
(0.000251609 -0.017767 -2.19589e-06)
(0.000287295 -0.0184003 -2.50732e-06)
(0.000325289 -0.0190019 -2.8389e-06)
(0.000365313 -0.019573 -3.18821e-06)
(0.000407435 -0.0201145 -3.55583e-06)
(0.000451412 -0.0206269 -3.93964e-06)
(0.000497162 -0.0211107 -4.33893e-06)
(0.000544544 -0.0215657 -4.75245e-06)
(0.000593378 -0.0219918 -5.17866e-06)
(0.00064344 -0.0223886 -5.61559e-06)
(0.000694488 -0.0227554 -6.06113e-06)
(0.00074622 -0.0230915 -6.51263e-06)
(0.000798317 -0.0233959 -6.96734e-06)
(0.000850376 -0.0236675 -7.4217e-06)
(0.000901969 -0.023905 -7.87201e-06)
(0.000952604 -0.0241071 -8.31399e-06)
(0.00100176 -0.0242724 -8.74301e-06)
(0.00104885 -0.0243992 -9.154e-06)
(0.00109325 -0.0244859 -9.54164e-06)
(0.00113432 -0.0245307 -9.90013e-06)
(0.00117137 -0.0245318 -1.02235e-05)
(0.00120369 -0.0244873 -1.05057e-05)
(0.00123058 -0.0243953 -1.07405e-05)
(0.00125132 -0.0242538 -1.09215e-05)
(0.00126518 -0.0240607 -1.10427e-05)
(3.88873e-07 -0.00200043 -3.38969e-09)
(2.76988e-06 -0.00411958 -2.41724e-08)
(8.4795e-06 -0.00595283 -7.40041e-08)
(1.58722e-05 -0.00751434 -1.38508e-07)
(2.64958e-05 -0.00888321 -2.31195e-07)
(3.87281e-05 -0.0101091 -3.37925e-07)
(5.49373e-05 -0.011224 -4.79395e-07)
(7.0403e-05 -0.0122499 -6.1433e-07)
(9.0654e-05 -0.0132021 -7.91128e-07)
(0.000115082 -0.0140917 -1.00439e-06)
(0.000139005 -0.0149271 -1.21319e-06)
(0.000166375 -0.0157146 -1.45205e-06)
(0.000196337 -0.0164593 -1.71353e-06)
(0.000228699 -0.0171649 -1.99596e-06)
(0.000263762 -0.0178344 -2.30195e-06)
(0.000301211 -0.0184703 -2.62877e-06)
(0.000341099 -0.0190741 -2.97689e-06)
(0.000383194 -0.0196472 -3.34426e-06)
(0.000427513 -0.0201904 -3.73105e-06)
(0.000473813 -0.0207043 -4.13513e-06)
(0.000521938 -0.0211893 -4.55515e-06)
(0.00057183 -0.0216452 -4.99059e-06)
(0.000623257 -0.0220718 -5.43943e-06)
(0.000676001 -0.0224688 -5.89976e-06)
(0.000729774 -0.0228354 -6.36908e-06)
(0.00078427 -0.023171 -6.84471e-06)
(0.000839128 -0.0234745 -7.3235e-06)
(0.000893933 -0.0237447 -7.80184e-06)
(0.000948218 -0.0239806 -8.27564e-06)
(0.00100147 -0.0241806 -8.74046e-06)
(0.00105312 -0.0243433 -9.19129e-06)
(0.00110257 -0.0244672 -9.62285e-06)
(0.00114914 -0.0245505 -1.00294e-05)
(0.00119216 -0.0245916 -1.04049e-05)
(0.00123089 -0.0245886 -1.0743e-05)
(0.0012646 -0.0245396 -1.10373e-05)
(0.00129254 -0.0244427 -1.12813e-05)
(0.00131396 -0.0242961 -1.14683e-05)
(0.00132811 -0.0240976 -1.15919e-05)
(3.97963e-07 -0.00200479 -3.46948e-09)
(2.78111e-06 -0.00413062 -2.4274e-08)
(8.58381e-06 -0.00597052 -7.49171e-08)
(1.63855e-05 -0.00753824 -1.42993e-07)
(2.76114e-05 -0.00891265 -2.40934e-07)
(4.04572e-05 -0.0101439 -3.53019e-07)
(5.73963e-05 -0.011264 -5.00858e-07)
(7.3758e-05 -0.0122946 -6.43612e-07)
(9.50071e-05 -0.0132512 -8.29119e-07)
(0.000120606 -0.014145 -1.0526e-06)
(0.000145875 -0.0149844 -1.27315e-06)
(0.00017468 -0.0157757 -1.52452e-06)
(0.000206235 -0.0165239 -1.79991e-06)
(0.000240274 -0.0172327 -2.09698e-06)
(0.000277144 -0.0179053 -2.41874e-06)
(0.000316515 -0.0185438 -2.76233e-06)
(0.000358476 -0.01915 -3.12853e-06)
(0.000402758 -0.0197252 -3.515e-06)
(0.000449396 -0.0202703 -3.92203e-06)
(0.000498151 -0.0207858 -4.34754e-06)
(0.000548891 -0.0212719 -4.79038e-06)
(0.00060147 -0.0217287 -5.24926e-06)
(0.000655673 -0.022156 -5.72233e-06)
(0.000711247 -0.0225532 -6.20736e-06)
(0.000767914 -0.0229196 -6.70194e-06)
(0.000825324 -0.0232546 -7.20299e-06)
(0.000883108 -0.0235571 -7.70733e-06)
(0.000940807 -0.023826 -8.21092e-06)
(0.000997937 -0.0240601 -8.70956e-06)
(0.00105394 -0.0242578 -9.19839e-06)
(0.00110822 -0.0244179 -9.6722e-06)
(0.00116014 -0.0245386 -1.01253e-05)
(0.00120899 -0.0246184 -1.05517e-05)
(0.00125403 -0.0246555 -1.09449e-05)
(0.00129452 -0.024648 -1.12983e-05)
(0.00132966 -0.0245943 -1.16052e-05)
(0.00135868 -0.0244923 -1.18585e-05)
(0.00138078 -0.0243402 -1.20515e-05)
(0.00139518 -0.0241361 -1.21773e-05)
(3.60312e-07 -0.00200972 -3.14016e-09)
(2.82363e-06 -0.00414257 -2.46435e-08)
(8.99566e-06 -0.00598946 -7.85166e-08)
(1.74013e-05 -0.00756361 -1.51854e-07)
(2.91866e-05 -0.00894397 -2.54688e-07)
(4.26073e-05 -0.0101808 -3.71783e-07)
(6.04599e-05 -0.0113062 -5.27602e-07)
(7.79618e-05 -0.0123418 -6.80301e-07)
(0.000100267 -0.013303 -8.75022e-07)
(0.000126993 -0.0142012 -1.10834e-06)
(0.00015365 -0.0150448 -1.341e-06)
(0.000184023 -0.01584 -1.60606e-06)
(0.000217279 -0.0165919 -1.89629e-06)
(0.000253155 -0.0173041 -2.20939e-06)
(0.000291962 -0.0179798 -2.54806e-06)
(0.000333402 -0.0186211 -2.90972e-06)
(0.000377537 -0.0192299 -3.29489e-06)
(0.000424174 -0.0198074 -3.7019e-06)
(0.00047331 -0.0203544 -4.13073e-06)
(0.000524688 -0.0208716 -4.57914e-06)
(0.000578119 -0.021359 -5.04546e-06)
(0.000633536 -0.0218168 -5.52911e-06)
(0.000690669 -0.0222446 -6.02774e-06)
(0.000749261 -0.022642 -6.53912e-06)
(0.000808989 -0.0230083 -7.06041e-06)
(0.000869496 -0.0233427 -7.5885e-06)
(0.000930367 -0.0236442 -8.11978e-06)
(0.00099113 -0.0239116 -8.65012e-06)
(0.00105125 -0.0241437 -9.17488e-06)
(0.00111016 -0.0243391 -9.68904e-06)
(0.0011672 -0.0244963 -1.01869e-05)