/*--------------------------------*- C++ -*----------------------------------*\
| =========                 |                                                 |
| \\      /  F ield         | OpenFOAM: The Open Source CFD Toolbox           |
|  \\    /   O peration     | Version:  v2012                                 |
|   \\  /    A nd           | Website:  www.openfoam.com                      |
|    \\/     M anipulation  |                                                 |
\*---------------------------------------------------------------------------*/
FoamFile
{
    version     2.0;
    format      ascii;
    class       volVectorField;
    location    "0.6";
    object      U;
}
// * * * * * * * * * * * * * * * * * * * * * * * * * * * * * * * * * * * * * //

dimensions      [0 1 -1 0 0 0 0];


internalField   nonuniform List<vector> 
2650
(
(-0.0139228 -41.8851 0.000174723)
(-0.0656658 -44.6298 0.000612788)
(0.44499 -46.666 -0.0038584)
(1.77771 -34.3716 -0.0154905)
(2.71977 -8.95543 -0.0236807)
(-0.138708 -42.0029 0.00126304)
(-0.00458377 -45.4434 7.17046e-05)
(0.626702 -49.0164 -0.00544638)
(2.59777 -39.4774 -0.0226591)
(3.76922 -17.2372 -0.0328624)
(-0.0465945 -42.1773 0.000453765)
(0.286362 -46.4783 -0.00247556)
(0.649731 -51.2608 -0.00565739)
(0.446897 -42.2406 -0.00389215)
(1.29055 -21.2651 -0.0112479)
(-0.249388 -42.5877 0.00221264)
(0.763765 -47.6041 -0.00664993)
(0.336629 -51.3364 -0.00293324)
(0.362318 -41.0956 -0.00315572)
(0.411844 -18.3403 -0.00359337)
(-0.289437 -43.0121 0.00253112)
(0.801819 -48.6455 -0.00699049)
(-0.0187783 -51.0118 0.000164552)
(0.410847 -41.4351 -0.00357797)
(0.544589 -18.1128 -0.00474776)
(-0.326056 -43.2723 0.00286133)
(0.739604 -49.4611 -0.00645056)
(0.108127 -51.1729 -0.000945544)
(0.596953 -42.4088 -0.00519936)
(0.829766 -17.6625 -0.00724905)
(-0.204519 -43.4714 0.00178847)
(0.537178 -50.3413 -0.00468577)
(0.444897 -51.7535 -0.00388894)
(0.77002 -42.8965 -0.00671317)
(0.686152 -16.3613 -0.00599131)
(-0.164937 -43.9008 0.00144251)
(0.53245 -51.4429 -0.00464713)
(0.338985 -52.58 -0.00296382)
(0.96507 -43.128 -0.00841893)
(0.254876 -15.5451 -0.0022151)
(-0.0264594 -44.3578 0.000207969)
(0.2922 -52.1208 -0.00255907)
(0.224034 -53.4216 -0.00195546)
(1.08579 -43.3503 -0.00947594)
(0.0954723 -14.7044 -0.000825291)
(0.0519988 -44.6793 -0.0004737)
(0.0255458 -52.3392 -0.00023162)
(0.500875 -54.6511 -0.004368)
(0.833169 -43.5917 -0.00727419)
(0.159494 -13.8394 -0.00139303)
(0.159444 -44.9571 -0.00141044)
(-0.0998691 -52.8022 0.000866063)
(0.984487 -55.9472 -0.00859274)
(-0.00108399 -43.1596 5.48498e-06)
(0.236609 -13.3241 -0.00206324)
(0.0958647 -45.2837 -0.000825346)
(0.0950222 -53.7765 -0.000833156)
(0.782882 -56.096 -0.00683853)
(-0.816903 -42.2896 0.00712922)
(0.543885 -13.5302 -0.00474327)
(-0.0526093 -45.6068 0.000454633)
(0.220511 -54.5939 -0.00193191)
(-0.138506 -54.9429 0.00120036)
(-0.92603 -42.4669 0.00808673)
(1.11352 -13.7872 -0.00972379)
(-0.153217 -45.5021 0.0013391)
(0.363228 -54.2182 -0.00317302)
(-1.23234 -53.414 0.0107493)
(-0.322011 -44.0812 0.00281575)
(0.854828 -13.2031 -0.00746815)
(-0.13853 -45.9968 0.00121473)
(-0.425787 -52.9535 0.0037124)
(-2.25266 -52.7666 0.0196593)
(-0.639771 -46.0195 0.00558757)
(-0.362714 -14.0872 0.00316222)
(-0.192286 -43.7183 0.00168539)
(-1.27794 -48.3671 0.011152)
(-3.22507 -50.163 0.0281478)
(-2.88601 -44.7983 0.0251873)
(-3.25325 -11.5943 0.0284807)
(-1.04248 -41.712 0.0091019)
(-3.29926 -44.3771 0.0287943)
(-5.60501 -47.3586 0.0489191)
(-7.01906 -46.2215 0.0612643)
(-9.32506 -30.5849 0.0814491)
(-2.34415 -29.5926 0.0204572)
(-5.93887 -31.2889 0.051832)
(-10.4234 -32.5839 0.0909677)
(-16.795 -30.6522 0.146573)
(-22.6998 -21.158 0.198071)
(-18.6583 -2.17459 0.162915)
(-11.1187 -3.35947 0.0970632)
(-8.35239 -1.63751 0.07289)
(-5.61679 -1.09956 0.0490227)
(-4.27259 -0.683799 0.0372877)
(-3.09314 -0.446964 0.0269957)
(-2.3844 -0.293873 0.0208094)
(-1.80818 -0.197419 0.0157811)
(-1.41385 -0.133682 0.0123393)
(-1.10366 -0.0918211 0.00963239)
(-0.875918 -0.0636274 0.00764472)
(-0.697535 -0.0443267 0.00608798)
(-0.56217 -0.0309561 0.00490656)
(-0.454983 -0.021846 0.00397112)
(-0.372211 -0.0155351 0.00324872)
(-0.305792 -0.0110372 0.00266905)
(-0.253551 -0.00795742 0.0022131)
(-0.211353 -0.0057738 0.00184481)
(-0.17737 -0.00425936 0.00154821)
(-0.149646 -0.00318359 0.00130622)
(-0.126938 -0.00240517 0.00110803)
(-0.108159 -0.00183249 0.000944116)
(-0.0925682 -0.00141179 0.00080804)
(-0.0795183 -0.00109893 0.000694146)
(-0.0685275 -0.000868228 0.000598242)
(-0.0592048 -0.000697837 0.000516751)
(-1.47982 -14.5168 0.0129138)
(-3.45967 -15.3391 0.0301929)
(-6.05804 -14.5699 0.0528708)
(-9.12071 -14.6257 0.0796019)
(-11.6845 -13.4433 0.10198)
(-10.1491 -7.65571 0.0885891)
(-7.29433 -5.03192 0.063676)
(-6.55274 -3.05219 0.0571981)
(-4.99841 -2.13764 0.0436339)
(-4.25596 -1.42482 0.0371508)
(-3.40938 -1.03076 0.0297623)
(-2.85276 -0.734991 0.0249027)
(-2.34613 -0.545057 0.0204806)
(-1.96311 -0.404174 0.0171368)
(-1.63801 -0.305469 0.0142991)
(-1.37819 -0.231596 0.012031)
(-1.16084 -0.177154 0.0101338)
(-0.982933 -0.136034 0.00858069)
(-0.833528 -0.105188 0.00727648)
(-0.71033 -0.0815459 0.00620102)
(-0.606137 -0.0635452 0.00529146)
(-0.519401 -0.0497501 0.00453427)
(-0.446029 -0.0391617 0.00389377)
(-0.384232 -0.0310172 0.0033543)
(-0.331856 -0.0247158 0.00289704)
(-0.287408 -0.0198089 0.00250904)
(-0.249484 -0.015969 0.00217798)
(-0.217064 -0.0129528 0.00189497)
(-0.189218 -0.0105748 0.0016519)
(-0.16522 -0.00869518 0.00144242)
(-0.14446 -0.00720056 0.00126102)
(-0.737916 -13.1579 0.00643887)
(-1.93334 -14.0001 0.0168718)
(-3.09311 -13.1678 0.0269948)
(-4.09462 -11.0543 0.0357359)
(-5.69765 -8.08846 0.0497275)
(-5.98727 -5.0364 0.0522585)
(-5.38776 -4.19043 0.0470282)
(-4.87573 -2.85935 0.0425596)
(-4.13986 -2.23859 0.0361371)
(-3.61533 -1.62418 0.0315582)
(-3.0676 -1.25146 0.0267776)
(-2.65213 -0.943685 0.0231509)
(-2.27107 -0.73132 0.0198248)
(-1.96336 -0.565826 0.0171386)
(-1.69429 -0.443955 0.01479)
(-1.46969 -0.349725 0.0128295)
(-1.2753 -0.277769 0.0111327)
(-1.11012 -0.221531 0.00969078)
(-0.966869 -0.17767 0.00844032)
(-0.844511 -0.142939 0.00737223)
(-0.73776 -0.115455 0.00644037)
(-0.646 -0.0935612 0.00563935)
(-0.566066 -0.0760938 0.00494158)
(-0.49679 -0.062116 0.00433683)
(-0.436489 -0.0508984 0.00381042)
(-0.383999 -0.0418656 0.00335223)
(-0.338156 -0.0345765 0.00295204)
(-0.298093 -0.0286806 0.00260232)
(-0.262979 -0.0239011 0.00229581)
(-0.232145 -0.0200173 0.00202664)
(-0.205009 -0.0168492 0.00178958)
(-0.676807 -5.78426 0.00590592)
(-1.7619 -6.39767 0.0153758)
(-2.89778 -6.58459 0.0252897)
(-3.75086 -6.37693 0.0327363)
(-4.23275 -5.75893 0.0369433)
(-4.03317 -4.53313 0.0352027)
(-3.7565 -3.67948 0.0327886)
(-3.52883 -2.80253 0.0308022)
(-3.15028 -2.21963 0.0274986)
(-2.87219 -1.70241 0.0250709)
(-2.54367 -1.34296 0.0222038)
(-2.27793 -1.0489 0.019884)
(-2.01664 -0.833447 0.0176035)
(-1.79339 -0.662536 0.0156547)
(-1.5889 -0.532232 0.0138698)
(-1.41111 -0.429344 0.0123179)
(-1.25181 -0.348887 0.0109275)
(-1.11224 -0.284614 0.00970916)
(-0.987735 -0.233371 0.00862235)
(-0.878618 -0.191977 0.00766986)
(-0.781043 -0.158501 0.00681811)
(-0.695205 -0.131242 0.0060688)
(-0.618734 -0.109007 0.00540128)
(-0.551014 -0.0908049 0.00481012)
(-0.490829 -0.0758706 0.00428474)
(-0.437382 -0.0635829 0.0038182)
(-0.389808 -0.0534575 0.00340291)
(-0.347471 -0.0450981 0.00303334)
(-0.309725 -0.0381864 0.00270385)
(-0.276039 -0.0324606 0.00240979)
(-0.245941 -0.0277039 0.00214689)
(-0.282466 -5.15769 0.00246486)
(-0.720178 -5.57679 0.00628466)
(-1.27386 -5.46669 0.0111166)
(-1.74976 -4.91501 0.0152705)
(-2.25832 -4.18105 0.0197098)
(-2.49521 -3.383 0.0217778)
(-2.57659 -2.86611 0.0224888)
(-2.55565 -2.29983 0.0223071)
(-2.4316 -1.9129 0.0212249)
(-2.29314 -1.5419 0.0200162)
(-2.11116 -1.26718 0.018428)
(-1.94045 -1.02915 0.016938)
(-1.76378 -0.84451 0.015396)
(-1.60209 -0.691515 0.0139846)
(-1.44813 -0.569744 0.0126408)
(-1.3091 -0.470421 0.0114273)
(-1.18079 -0.390415 0.0103074)
(-1.06549 -0.324821 0.00930092)
(-0.960177 -0.271322 0.00838168)
(-0.866077 -0.227222 0.00756029)
(-0.78022 -0.190861 0.00681084)
(-0.703365 -0.160705 0.00613996)
(-0.633674 -0.135669 0.00553164)
(-0.57092 -0.114814 0.00498384)
(-0.514228 -0.0974143 0.00448895)
(-0.463077 -0.0828617 0.00404246)
(-0.41684 -0.0706763 0.00363885)
(-0.375078 -0.0604563 0.0032743)
(-0.337306 -0.0518746 0.0029446)
(-0.303131 -0.0446564 0.00264627)
(-0.272194 -0.0385715 0.00237606)
(-0.265591 -2.49196 0.00231817)
(-0.701137 -2.79528 0.00611981)
(-1.17302 -3.00521 0.0102369)
(-1.54482 -2.99351 0.0134823)
(-1.8128 -2.83599 0.0158218)
(-1.92363 -2.53192 0.0167892)
(-1.97452 -2.241 0.0172336)
(-1.97131 -1.91447 0.0172064)
(-1.91348 -1.64434 0.0167023)
(-1.84224 -1.38121 0.0160803)
(-1.73803 -1.16689 0.0151708)
(-1.63303 -0.976341 0.0142544)
(-1.51747 -0.820609 0.0132458)
(-1.40561 -0.687857 0.0122694)
(-1.29395 -0.578486 0.0112948)
(-1.18914 -0.486939 0.01038)
(-1.08893 -0.411356 0.0095054)
(-0.996357 -0.34795 0.00869736)
(-0.909476 -0.295213 0.00793902)
(-0.830279 -0.250934 0.00724773)
(-0.756485 -0.21382 0.00660359)
(-0.689327 -0.182549 0.00601736)
(-0.627406 -0.156203 0.00547686)
(-0.570803 -0.13394 0.00498277)
(-0.518924 -0.115109 0.0045299)
(-0.471464 -0.099147 0.00411563)
(-0.427989 -0.0856051 0.00373614)
(-0.388215 -0.0740995 0.00338895)
(-0.351794 -0.0643144 0.00307104)
(-0.318446 -0.0559789 0.00277993)
(-0.287911 -0.0488647 0.00251325)
(-0.135584 -1.99399 0.00118325)
(-0.347217 -2.18345 0.00303047)
(-0.615093 -2.3011 0.0053685)
(-0.866013 -2.25836 0.00755847)
(-1.09783 -2.12361 0.00958106)
(-1.26784 -1.91751 0.0110652)
(-1.38658 -1.72809 0.0121017)
(-1.45191 -1.5175 0.0126725)
(-1.4724 -1.3425 0.0128521)
(-1.46312 -1.16583 0.012771)
(-1.42209 -1.01592 0.0124129)
(-1.36764 -0.876562 0.0119377)
(-1.2987 -0.757278 0.0113361)
(-1.2253 -0.651233 0.0106954)
(-1.147 -0.560307 0.0100119)
(-1.06995 -0.481443 0.00933955)
(-0.993182 -0.414336 0.00866953)
(-0.920143 -0.356377 0.008032)
(-0.849578 -0.307042 0.00741608)
(-0.783948 -0.264694 0.00684323)
(-0.721436 -0.22856 0.00629757)
(-0.663598 -0.197601 0.00579271)
(-0.609381 -0.171138 0.00531947)
(-0.559099 -0.148468 0.00488056)
(-0.512381 -0.129051 0.00447275)
(-0.469096 -0.112392 0.00409492)
(-0.428962 -0.0980946 0.00374459)
(-0.391818 -0.085808 0.00342037)
(-0.357427 -0.0752412 0.00312019)
(-0.325603 -0.0661393 0.00284238)
(-0.296165 -0.0582853 0.00258528)
(-0.124381 -0.90745 0.00108545)
(-0.312844 -1.0531 0.00273037)
(-0.531864 -1.22444 0.00464183)
(-0.7365 -1.31968 0.00642794)
(-0.907431 -1.34515 0.00791927)
(-1.03341 -1.30871 0.00901908)
(-1.12247 -1.25017 0.00979647)
(-1.17301 -1.15888 0.0102381)
(-1.19654 -1.06864 0.0104443)
(-1.19903 -0.964577 0.0104659)
(-1.18047 -0.867035 0.010304)
(-1.15098 -0.770001 0.0100466)
(-1.10963 -0.681912 0.00968567)
(-1.06263 -0.600016 0.00927538)
(-1.00923 -0.527052 0.00880937)
(-0.954534 -0.461513 0.00833199)
(-0.897526 -0.404195 0.00783448)
(-0.841593 -0.353234 0.00734626)
(-0.785652 -0.308888 0.00685801)
(-0.732412 -0.269958 0.00639331)
(-0.680403 -0.23613 0.00593934)
(-0.631376 -0.206639 0.0055114)
(-0.584575 -0.181045 0.00510289)
(-0.540487 -0.158809 0.00471805)
(-0.498935 -0.139517 0.00435533)
(-0.459933 -0.122764 0.0040149)
(-0.423332 -0.108221 0.00369542)
(-0.389078 -0.0955871 0.00339642)
(-0.357027 -0.0846055 0.00311667)
(-0.327073 -0.0750475 0.00285519)
(-0.299103 -0.0667152 0.00261092)
(-0.0767701 -0.554872 0.00066994)
(-0.192282 -0.66142 0.00167819)
(-0.332106 -0.791611 0.00289856)
(-0.478637 -0.877769 0.00417752)
(-0.612134 -0.924097 0.00534214)
(-0.726663 -0.927894 0.0063419)
(-0.820316 -0.91798 0.00715911)
(-0.885434 -0.879556 0.0077279)
(-0.930597 -0.837208 0.00812316)
(-0.955186 -0.77852 0.0083377)
(-0.962536 -0.719 0.00840181)
(-0.957842 -0.655572 0.00836079)
(-0.94101 -0.595068 0.00821389)
(-0.916617 -0.535929 0.00800094)
(-0.883994 -0.481103 0.00771619)
(-0.847815 -0.429737 0.00740044)
(-0.80728 -0.38335 0.00704671)
(-0.765741 -0.340679 0.00668413)
(-0.722396 -0.302536 0.00630581)
(-0.679998 -0.268176 0.00593574)
(-0.637346 -0.237669 0.00556345)
(-0.596285 -0.210543 0.00520504)
(-0.556297 -0.186594 0.00485601)
(-0.517994 -0.165462 0.00452167)
(-0.481354 -0.146871 0.00420183)
(-0.446504 -0.13052 0.00389765)
(-0.413402 -0.116158 0.00360871)
(-0.38208 -0.103542 0.00333531)
(-0.352471 -0.092459 0.00307687)
(-0.324533 -0.0827136 0.00283301)
(-0.298214 -0.0741324 0.00260314)
(-0.0650123 -0.0215923 0.000567476)
(-0.161959 -0.108714 0.00141383)
(-0.27266 -0.246142 0.00237982)
(-0.385232 -0.370827 0.0033625)
(-0.487963 -0.469045 0.0042595)
(-0.580766 -0.53641 0.00506941)
(-0.657729 -0.588629 0.00574021)
(-0.714373 -0.61021 0.00623484)
(-0.759082 -0.619094 0.00662597)
(-0.787886 -0.602442 0.00687734)
(-0.803405 -0.576639 0.00701275)
(-0.809269 -0.542231 0.00706389)
(-0.804915 -0.505644 0.00702589)
(-0.793905 -0.466675 0.00692976)
(-0.775009 -0.428485 0.00676483)
(-0.752161 -0.390662 0.00656543)
(-0.724308 -0.355142 0.0063224)
(-0.694389 -0.321153 0.00606124)
(-0.661527 -0.289783 0.00577444)
(-0.628397 -0.260684 0.00548527)
(-0.593946 -0.234181 0.00518457)
(-0.560015 -0.210078 0.0048884)
(-0.526238 -0.188371 0.00459358)
(-0.493293 -0.168878 0.00430602)
(-0.461266 -0.151459 0.00402645)
(-0.430369 -0.135922 0.00375678)
(-0.400644 -0.122099 0.00349732)
(-0.372195 -0.109811 0.003249)
(-0.345022 -0.0988968 0.00301183)
(-0.319138 -0.089196 0.00278589)
(-0.294538 -0.0805656 0.00257104)
(-0.0397056 0.193116 0.000346594)
(-0.0997722 0.119532 0.000871042)
(-0.172038 -0.00674912 0.00150191)
(-0.250923 -0.123864 0.00219045)
(-0.331297 -0.221827 0.00289193)
(-0.405012 -0.298801 0.00353549)
(-0.475407 -0.36222 0.00414994)
(-0.536268 -0.405072 0.00468103)
(-0.589008 -0.437689 0.00514152)
(-0.629444 -0.446304 0.00549434)
(-0.658942 -0.444603 0.00575175)
(-0.677939 -0.432559 0.00591753)
(-0.686327 -0.415978 0.00599074)
(-0.687522 -0.39463 0.00600114)
(-0.680193 -0.371578 0.00593717)
(-0.668011 -0.346565 0.00583087)
(-0.650183 -0.321658 0.00567533)
(-0.629409 -0.29642 0.00549401)
(-0.605015 -0.272096 0.00528111)
(-0.579534 -0.248654 0.00505871)
(-0.551995 -0.226602 0.00481835)
(-0.524202 -0.205979 0.00457575)
(-0.495874 -0.186954 0.00432851)
(-0.467719 -0.169508 0.00408275)
(-0.439888 -0.153632 0.00383982)
(-0.412647 -0.139242 0.00360206)
(-0.386096 -0.126253 0.0033703)
(-0.360387 -0.114554 0.00314591)
(-0.335572 -0.104035 0.00292932)
(-0.311708 -0.0945773 0.00272101)
(-0.288831 -0.0860699 0.00252121)
(-0.0332658 0.437691 0.000290372)
(-0.0852263 0.380818 0.000744032)
(-0.147595 0.266536 0.00128848)
(-0.213847 0.150019 0.00186675)
(-0.279528 0.0375263 0.00244008)
(-0.338966 -0.059617 0.00295898)
(-0.395757 -0.145892 0.00345466)
(-0.444613 -0.211393 0.00388094)
(-0.490988 -0.263246 0.00428583)
(-0.528836 -0.295966 0.0046161)
(-0.559083 -0.316944 0.00488006)
(-0.580595 -0.325876 0.00506779)
(-0.593462 -0.327769 0.0051801)
(-0.600286 -0.322596 0.00523963)
(-0.599573 -0.313431 0.00523341)
(-0.594408 -0.300331 0.00518836)
(-0.583841 -0.285412 0.0050962)
(-0.570149 -0.268579 0.00497669)
(-0.552539 -0.251176 0.00482301)
(-0.533375 -0.233406 0.00465576)
(-0.511705 -0.215942 0.00446663)
(-0.489245 -0.199007 0.00427059)
(-0.465746 -0.182918 0.00406549)
(-0.441903 -0.16779 0.00385738)
(-0.4179 -0.153728 0.00364786)
(-0.394033 -0.140741 0.00343955)
(-0.370443 -0.128824 0.00323365)
(-0.347319 -0.117928 0.00303182)
(-0.324754 -0.107995 0.00283487)
(-0.302839 -0.0989494 0.00264358)
(-0.281647 -0.0907131 0.00245848)
(-0.024744 0.582598 0.00021595)
(-0.0642538 0.54037 0.000560873)
(-0.111239 0.432472 0.000971073)
(-0.160242 0.315554 0.00139881)
(-0.211284 0.201069 0.00184432)
(-0.260235 0.0982003 0.00227165)
(-0.310293 0.00820866 0.00270861)
(-0.356459 -0.064352 0.00311145)
(-0.401026 -0.125213 0.0035006)
(-0.438712 -0.170424 0.00382945)
(-0.471121 -0.205514 0.00411228)
(-0.496317 -0.229148 0.00433216)
(-0.513797 -0.245211 0.00448474)
(-0.525652 -0.253255 0.00458818)
(-0.53034 -0.256003 0.00462909)
(-0.53051 -0.25346 0.00463059)
(-0.525399 -0.247688 0.00458605)
(-0.517047 -0.238703 0.00451316)
(-0.504749 -0.227941 0.00440584)
(-0.490685 -0.215728 0.0042831)
(-0.473869 -0.20288 0.00413634)
(-0.455914 -0.189738 0.00397962)
(-0.436571 -0.176741 0.0038108)
(-0.416505 -0.164116 0.00363566)
(-0.395911 -0.152062 0.0034559)
(-0.375094 -0.140671 0.00327422)
(-0.354218 -0.13001 0.003092)
(-0.333494 -0.12009 0.00291112)
(-0.313042 -0.110901 0.00273262)
(-0.29298 -0.102409 0.00255751)
(-0.273407 -0.094569 0.00238654)
(-0.0205925 0.729825 0.000179802)
(-0.0548318 0.698034 0.00047888)
(-0.0927385 0.594718 0.000809469)
(-0.136358 0.479939 0.00119024)
(-0.179508 0.363731 0.00156703)
(-0.22362 0.257118 0.00195206)
(-0.267752 0.160582 0.00233718)
(-0.308378 0.0781618 0.00269164)
(-0.347327 0.00620503 0.00303179)
(-0.380108 -0.0522364 0.00331785)
(-0.409415 -0.100812 0.00357362)
(-0.432838 -0.137957 0.00377804)
(-0.450375 -0.166772 0.00393112)
(-0.463538 -0.186636 0.00404596)
(-0.470775 -0.200051 0.00410914)
(-0.474267 -0.206985 0.00413964)
(-0.473076 -0.209557 0.00412931)
(-0.468894 -0.207793 0.00409282)
(-0.460865 -0.203285 0.00402276)
(-0.450977 -0.196381 0.00393648)
(-0.438254 -0.188044 0.00382543)
(-0.424164 -0.178684 0.00370246)
(-0.408457 -0.168843 0.00356538)
(-0.39174 -0.158824 0.00341947)
(-0.374207 -0.148908 0.00326644)
(-0.356157 -0.139256 0.0031089)
(-0.337766 -0.129993 0.00294838)
(-0.319261 -0.121186 0.00278687)
(-0.30078 -0.11287 0.00262558)
(-0.282464 -0.105048 0.00246571)
(-0.264431 -0.0977111 0.00230818)
(-0.0157074 0.828782 0.000137155)
(-0.0423418 0.807641 0.00036978)
(-0.0726855 0.710559 0.000634663)
(-0.10837 0.599283 0.00094627)
(-0.14393 0.484833 0.00125642)
(-0.182797 0.377881 0.0015957)
(-0.220819 0.278359 0.00192757)
(-0.257723 0.190904 0.00224954)
(-0.293215 0.112454 0.00255946)
(-0.324329 0.0462016 0.00283098)
(-0.352741 -0.0111158 0.00307895)
(-0.376464 -0.0576267 0.00328598)
(-0.395018 -0.0960014 0.00344793)
(-0.409769 -0.125166 0.00357665)
(-0.419209 -0.147369 0.00365904)
(-0.425215 -0.162346 0.00371148)
(-0.426933 -0.172213 0.00372653)
(-0.425845 -0.176874 0.00371703)
(-0.421166 -0.178067 0.00367622)
(-0.414637 -0.176084 0.00361926)
(-0.405287 -0.17203 0.00353766)
(-0.394425 -0.166335 0.00344285)
(-0.381807 -0.159619 0.00333274)
(-0.367979 -0.152239 0.00321205)
(-0.353127 -0.14453 0.00308241)
(-0.337536 -0.136707 0.00294634)
(-0.321385 -0.128947 0.00280538)
(-0.304903 -0.121356 0.00266152)
(-0.28824 -0.114014 0.0025161)
(-0.271551 -0.106959 0.00237043)
(-0.254967 -0.100212 0.00222556)
(-0.0133613 0.919347 0.000116678)
(-0.0359346 0.906511 0.00031386)
(-0.0616351 0.816321 0.000538224)
(-0.0930525 0.708671 0.000812567)
(-0.123808 0.597391 0.00108074)
(-0.157981 0.490868 0.00137904)
(-0.19128 0.389236 0.00166967)
(-0.223498 0.297476 0.00195074)
(-0.254815 0.212832 0.00222422)
(-0.282035 0.139001 0.00246176)
(-0.307598 0.0729494 0.00268487)
(-0.329094 0.0175323 0.00287248)
(-0.346816 -0.0296363 0.00302719)
(-0.361701 -0.0670146 0.00315707)
(-0.372312 -0.0969685 0.0032497)
(-0.380229 -0.118974 0.0033188)
(-0.384404 -0.135355 0.0033553)
(-0.386094 -0.145829 0.00337005)
(-0.384369 -0.152304 0.00335501)
(-0.380749 -0.154968 0.00332344)
(-0.37437 -0.155031 0.00326777)
(-0.36634 -0.15292 0.00319769)
(-0.35646 -0.149308 0.00311147)
(-0.345202 -0.144586 0.00301322)
(-0.332748 -0.139134 0.00290452)
(-0.319369 -0.133206 0.00278775)
(-0.305244 -0.127022 0.00266448)
(-0.290606 -0.120729 0.00253672)
(-0.275615 -0.11444 0.00240589)
(-0.260434 -0.108227 0.00227338)
(-0.245205 -0.102142 0.00214035)
(-0.0113193 0.989864 9.88478e-05)
(-0.0301117 0.984471 0.000263017)
(-0.0520405 0.901087 0.000454466)
(-0.0789389 0.797614 0.000689329)
(-0.105393 0.688656 0.000919913)
(-0.134659 0.582813 0.00117538)
(-0.163412 0.479279 0.00142637)
(-0.191027 0.384131 0.00166733)
(-0.218146 0.295258 0.00190436)
(-0.241725 0.216248 0.00211013)
(-0.264821 0.144598 0.00231173)
(-0.285313 0.0833124 0.00249055)
(-0.303001 0.0300637 0.0026449)
(-0.318726 -0.013434 0.0027821)
(-0.330772 -0.0495489 0.00288721)
(-0.340436 -0.0774936 0.00297153)
(-0.346682 -0.099503 0.00302607)
(-0.350532 -0.115208 0.00305966)
(-0.351241 -0.12648 0.00306586)
(-0.35 -0.133497 0.00305503)
(-0.346076 -0.137459 0.0030208)
(-0.340385 -0.138805 0.00297113)
(-0.332789 -0.138222 0.00290484)
(-0.323702 -0.136131 0.00282553)
(-0.313306 -0.132939 0.00273479)
(-0.301854 -0.128936 0.00263486)
(-0.289524 -0.124373 0.00252724)
(-0.27654 -0.119429 0.00241393)
(-0.263066 -0.114251 0.00229634)
(-0.249268 -0.108938 0.0021759)
(-0.235295 -0.103569 0.00205384)
(-0.00993435 1.05494 8.67564e-05)
(-0.0257504 1.05519 0.000224928)
(-0.0446117 0.978008 0.000389591)
(-0.0676561 0.877461 0.00059076)
(-0.0900917 0.7707 0.000786516)
(-0.114948 0.665257 0.00100356)
(-0.139374 0.559964 0.00121647)
(-0.163646 0.461685 0.00142827)
(-0.187491 0.368378 0.00163678)
(-0.208231 0.285055 0.00181777)
(-0.229277 0.209255 0.00200147)
(-0.248271 0.143504 0.00216722)
(-0.265396 0.0853993 0.00231665)
(-0.281136 0.0367939 0.00245399)
(-0.293928 -0.00450877 0.00256561)
(-0.304829 -0.0376573 0.00266073)
(-0.312726 -0.0646067 0.00272967)
(-0.318411 -0.0851071 0.00277928)
(-0.321098 -0.100788 0.00280273)
(-0.321783 -0.111902 0.00280872)
(-0.319901 -0.119555 0.00279231)
(-0.316188 -0.124224 0.0027599)
(-0.310558 -0.126581 0.00271078)
(-0.303362 -0.127072 0.00264798)
(-0.294773 -0.126124 0.00257302)
(-0.285027 -0.12405 0.00248797)
(-0.274296 -0.12113 0.00239431)
(-0.262799 -0.117569 0.00229397)
(-0.250699 -0.113539 0.00218838)
(-0.238166 -0.109168 0.00207899)
(-0.225352 -0.104558 0.00196705)
(-0.00844672 1.107 7.37589e-05)
(-0.0212292 1.1116 0.00018543)
(-0.037172 1.04002 0.000324637)
(-0.0561721 0.942018 0.000490479)
(-0.0755224 0.837225 0.000659321)
(-0.0956895 0.732051 0.000835416)
(-0.11641 0.627164 0.0010163)
(-0.137785 0.527554 0.00120285)
(-0.159328 0.431932 0.00139095)
(-0.179626 0.345692 0.00156811)
(-0.199829 0.267095 0.00174445)
(-0.218524 0.198054 0.00190758)
(-0.235511 0.136414 0.00205581)
(-0.251212 0.0838193 0.0021928)
(-0.264412 0.0383026 0.00230799)
(-0.275739 0.00068237 0.00240682)
(-0.284429 -0.0306868 0.00248268)
(-0.290992 -0.0555908 0.00253995)
(-0.29489 -0.0753697 0.00257397)
(-0.296857 -0.0903547 0.00259115)
(-0.296424 -0.10152 0.00258738)
(-0.294186 -0.10938 0.00256785)
(-0.290081 -0.114582 0.00253203)
(-0.284403 -0.117591 0.00248248)
(-0.27731 -0.118849 0.00242057)
(-0.269011 -0.118691 0.00234816)
(-0.259666 -0.117415 0.0022666)
(-0.249478 -0.115251 0.00217769)
(-0.238608 -0.112393 0.00208283)
(-0.22722 -0.10899 0.00198344)
(-0.215467 -0.105168 0.00188076)
(-0.00729226 1.15274 6.36743e-05)
(-0.0181033 1.16043 0.000158124)
(-0.0314788 1.09353 0.000274923)
(-0.0479114 0.998427 0.000418372)
(-0.0646261 0.894079 0.000564231)
(-0.0820957 0.788962 0.000716722)
(-0.0999917 0.684806 0.000872982)
(-0.118537 0.585192 0.00103486)
(-0.13791 0.489409 0.00120397)
(-0.156773 0.401524 0.00136863)
(-0.175837 0.320488 0.00153501)
(-0.193575 0.248357 0.00168979)
(-0.209912 0.183521 0.00183235)
(-0.225124 0.12724 0.00196508)
(-0.238262 0.0780583 0.00207971)
(-0.249755 0.0364881 0.00218001)
(-0.258997 0.00130986 0.00226067)
(-0.266299 -0.0274675 0.0023244)
(-0.271139 -0.0509082 0.00236665)
(-0.274106 -0.0693894 0.00239255)
(-0.274829 -0.0837675 0.00239887)
(-0.273805 -0.0945846 0.00238994)
(-0.270982 -0.102466 0.00236532)
(-0.266602 -0.107882 0.0023271)
(-0.260802 -0.111275 0.00227648)
(-0.253766 -0.112991 0.00221508)
(-0.245639 -0.113342 0.00214415)
(-0.236614 -0.112571 0.00206539)
(-0.226844 -0.110892 0.00198013)
(-0.21649 -0.108472 0.00188978)
(-0.205707 -0.105456 0.00179557)
(-0.00634023 1.19086 5.53545e-05)
(-0.0156122 1.20073 0.000136351)
(-0.0272202 1.13846 0.00023773)
(-0.0413656 1.04602 0.000361239)
(-0.0560453 0.943827 0.000489351)
(-0.07198 0.838991 0.000628421)
(-0.0881053 0.735462 0.000769196)
(-0.105065 0.635846 0.000917259)
(-0.122588 0.540356 0.00107026)
(-0.139883 0.451659 0.00122121)
(-0.15764 0.369166 0.00137618)
(-0.174394 0.294771 0.00152237)
(-0.190048 0.227368 0.00165896)
(-0.204574 0.168015 0.00178571)
(-0.21732 0.115613 0.00189693)
(-0.228449 0.0705574 0.00199404)
(-0.237618 0.0318928 0.00207406)
(-0.245008 -0.000409767 0.00213855)
(-0.250279 -0.027238 0.00218457)
(-0.253871 -0.0489617 0.00221593)
(-0.255398 -0.0663523 0.00222926)
(-0.255269 -0.0799489 0.00222814)
(-0.253428 -0.0903666 0.00221209)
(-0.250078 -0.0980785 0.00218285)
(-0.245332 -0.103529 0.00214144)
(-0.239352 -0.107066 0.00208926)
(-0.232267 -0.109011 0.00202743)
(-0.224253 -0.109617 0.0019575)
(-0.215456 -0.109112 0.00188073)
(-0.20603 -0.107677 0.00179847)
(-0.196126 -0.105473 0.00171194)
(-0.0053134 1.22532 4.64035e-05)
(-0.0139079 1.23731 0.000121541)
(-0.0234252 1.17851 0.000204532)
(-0.036846 1.08859 0.000321728)
(-0.0493948 0.987907 0.000431329)
(-0.0640317 0.884034 0.000559072)
(-0.0786301 0.781291 0.000686488)
(-0.0943376 0.681834 0.000823614)
(-0.110417 0.586523 0.000964017)
(-0.126141 0.497166 0.00110126)
(-0.142487 0.413579 0.00124389)
(-0.157886 0.337272 0.00137826)
(-0.172465 0.267663 0.00150547)
(-0.186038 0.205604 0.00162389)
(-0.198164 0.150378 0.0017297)
(-0.208899 0.102311 0.00182338)
(-0.217994 0.0606077 0.00190277)
(-0.225536 0.0252504 0.00196858)
(-0.231168 -0.00458389 0.00201774)
(-0.235242 -0.0292283 0.00205331)
(-0.237434 -0.0493972 0.00207245)
(-0.238055 -0.0655842 0.00207788)
(-0.237051 -0.0783907 0.00206913)
(-0.234586 -0.088285 0.00204763)
(-0.230755 -0.095708 0.00201419)
(-0.225694 -0.101007 0.00197003)
(-0.21952 -0.104506 0.00191615)
(-0.212397 -0.106464 0.001854)
(-0.204463 -0.107118 0.00178477)
(-0.195869 -0.106661 0.00170977)
(-0.186762 -0.105269 0.00163021)
(-0.00431529 1.25373 3.76934e-05)
(-0.0118065 1.26812 0.000103153)
(-0.0198345 1.2133 0.000173277)
(-0.0321264 1.12644 0.000280659)
(-0.0433353 1.02732 0.000378415)
(-0.0573891 0.924858 0.000501093)
(-0.0704969 0.823057 0.000615497)
(-0.0854362 0.724087 0.000745908)
(-0.100273 0.628867 0.000875452)
(-0.114948 0.538954 0.00100354)
(-0.130107 0.454364 0.00113582)
(-0.144362 0.376406 0.0012602)
(-0.157913 0.30481 0.00137845)
(-0.170543 0.240375 0.00148863)
(-0.18195 0.18263 0.00158818)
(-0.192123 0.131913 0.00167695)
(-0.200898 0.0875077 0.00175354)
(-0.208297 0.0494535 0.00181811)
(-0.21409 0.0169213 0.00186868)
(-0.218493 -0.0103331 0.00190712)
(-0.221175 -0.0330333 0.00193053)
(-0.222367 -0.0516148 0.00194095)
(-0.222005 -0.0666508 0.00193779)
(-0.220232 -0.0786017 0.00192233)
(-0.217134 -0.0879037 0.0018953)
(-0.212831 -0.0948963 0.00185775)
(-0.207426 -0.0999003 0.00181059)
(-0.201069 -0.103177 0.00175512)
(-0.193892 -0.104967 0.00169249)
(-0.186037 -0.105473 0.00162394)
(-0.177649 -0.104883 0.00155066)
(-0.00367281 1.27794 3.20869e-05)
(-0.0104604 1.29448 9.13966e-05)
(-0.017347 1.2438 0.00015159)
(-0.0286807 1.16039 0.000250626)
(-0.0389997 1.06328 0.000340551)
(-0.0520135 0.962133 0.000454153)
(-0.0639179 0.861194 0.000558046)
(-0.0775243 0.762768 0.000676818)
(-0.09095 0.667635 0.000794031)
(-0.10415 0.577215 0.000909239)
(-0.117928 0.491608 0.00102948)
(-0.130814 0.412181 0.00114191)
(-0.143246 0.338838 0.0012504)
(-0.154966 0.272453 0.00135266)
(-0.165758 0.212588 0.00144684)
(-0.175612 0.159683 0.00153283)
(-0.184312 0.11295 0.00160877)
(-0.191856 0.0725571 0.0016746)
(-0.197935 0.0376094 0.00172766)
(-0.202683 0.00796212 0.00176912)
(-0.205873 -0.0171033 0.00179697)
(-0.207623 -0.0379506 0.00181224)
(-0.207876 -0.0551231 0.00181446)
(-0.206741 -0.069048 0.00180457)
(-0.204302 -0.0801591 0.00178329)
(-0.200668 -0.0887885 0.00175158)
(-0.195937 -0.0952522 0.0017103)
(-0.190253 -0.0998107 0.0016607)
(-0.183743 -0.102709 0.0016039)
(-0.176548 -0.104158 0.00154111)
(-0.168808 -0.104355 0.00147348)
(-0.00325149 1.29966 2.84101e-05)
(-0.00939501 1.31851 8.20991e-05)
(-0.015784 1.27129 0.00013795)
(-0.0260422 1.19157 0.000227583)
(-0.0356927 1.0963 0.00031164)
(-0.0478738 0.996269 0.000417972)
(-0.0587129 0.895889 0.000512576)
(-0.0707132 0.797618 0.00061734)
(-0.0824862 0.702552 0.000720216)
(-0.0939551 0.611694 0.000820336)
(-0.10619 0.525329 0.000927115)
(-0.11788 0.444801 0.0010291)
(-0.12939 0.370123 0.00112953)
(-0.140534 0.3022 0.00122676)
(-0.150959 0.240618 0.00131772)
(-0.160658 0.185842 0.00140235)
(-0.169352 0.137104 0.00147822)
(-0.176972 0.0945963 0.00154472)
(-0.183337 0.0574645 0.00160027)
(-0.188419 0.0255958 0.00164463)
(-0.192034 -0.00167528 0.00167618)
(-0.194215 -0.0246702 0.00169522)
(-0.194944 -0.0438832 0.00170159)
(-0.194293 -0.0596997 0.00169592)
(-0.192364 -0.0725453 0.00167909)
(-0.189262 -0.0827491 0.00165202)
(-0.185085 -0.090621 0.00161557)
(-0.179967 -0.0964199 0.00157092)
(-0.174034 -0.100393 0.00151915)
(-0.16742 -0.102757 0.00146143)
(-0.160263 -0.10372 0.00139889)
(-0.00285097 1.31899 2.49133e-05)
(-0.00804902 1.34023 7.03474e-05)
(-0.0138784 1.29663 0.000121309)
(-0.0229949 1.22003 0.000200953)
(-0.0319782 1.12684 0.00027926)
(-0.0430489 1.02773 0.000375907)
(-0.0530092 0.926986 0.000462737)
(-0.0642576 0.828468 0.000560944)
(-0.0745608 0.733 0.000651039)
(-0.084596 0.641741 0.000738646)
(-0.0954842 0.555093 0.000833673)
(-0.106059 0.474052 0.000925936)
(-0.11674 0.398593 0.00101912)
(-0.127326 0.329614 0.00111148)
(-0.1374 0.266748 0.00119938)
(-0.146973 0.210404 0.00128291)
(-0.155675 0.159979 0.00135885)
(-0.16343 0.115561 0.00142652)
(-0.169995 0.0764623 0.00148381)
(-0.175276 0.0425319 0.0015299)
(-0.179209 0.013207 0.00156423)
(-0.181741 -0.0118179 0.00158634)
(-0.182877 -0.0329694 0.00159626)
(-0.182653 -0.0506011 0.00159431)
(-0.181164 -0.0651106 0.00158132)
(-0.17852 -0.0768267 0.00155825)
(-0.174817 -0.0860536 0.00152595)
(-0.170189 -0.0930474 0.00148557)
(-0.16476 -0.0980568 0.00143819)
(-0.15866 -0.101304 0.00138496)
(-0.152027 -0.103005 0.001327)
(-0.00254988 1.3351 2.22787e-05)
(-0.0068069 1.35841 5.95013e-05)
(-0.0119792 1.31836 0.000104711)
(-0.0195205 1.24493 0.000170583)
(-0.0277209 1.15454 0.000242129)
(-0.03767 1.05642 0.000328969)
(-0.0471276 0.955811 0.000411491)
(-0.0572908 0.856982 0.00050022)