/*--------------------------------*- C++ -*----------------------------------*\
| =========                 |                                                 |
| \\      /  F ield         | OpenFOAM: The Open Source CFD Toolbox           |
|  \\    /   O peration     | Version:  v2012                                 |
|   \\  /    A nd           | Website:  www.openfoam.com                      |
|    \\/     M anipulation  |                                                 |
\*---------------------------------------------------------------------------*/
FoamFile
{
    version     2.0;
    format      ascii;
    class       volScalarField;
    location    "0.3";
    object      alpha.water;
}
// * * * * * * * * * * * * * * * * * * * * * * * * * * * * * * * * * * * * * //

dimensions      [0 0 0 0 0 0 0];


internalField   nonuniform List<scalar> 
3332
(
-1.26509e-51
-1.35052e-51
-8.02965e-52
-3.21039e-52
-9.43304e-53
-8.72086e-53
-1.06164e-51
-4.22304e-50
-2.13717e-49
-3.98005e-49
-4.19092e-49
-8.79831e-49
-6.33721e-48
-8.94849e-48
-6.12093e-48
-2.55125e-48
-7.17391e-49
-1.44439e-49
-2.16331e-50
-2.47337e-51
-9.30718e-53
-5.37959e-51
-1.70629e-50
-1.74106e-50
-9.95707e-51
-3.84743e-51
-1.09364e-51
-6.83048e-52
-7.14837e-51
-2.95839e-49
-1.50323e-48
-2.78779e-48
-2.9207e-48
-6.94442e-48
-5.34218e-47
-7.6315e-47
-5.27025e-47
-2.21923e-47
-6.30966e-48
-1.28557e-48
-1.95018e-49
-2.2605e-50
-2.33061e-147
-1.0882e-140
-6.72584e-134
-2.50446e-122
-1.64283e-110
-3.33966e-100
-1.42759e-97
5.9098e-90
-1.79099e-79
-1.39964e-75
-8.3779e-66
-1.30874e-62
-4.82069e-60
-1.78255e-58
-5.34072e-54
-1.32576e-51
-7.31771e-50
-2.21502e-49
-2.1623e-49
-1.19019e-49
-4.44676e-50
-1.22461e-50
-5.44963e-51
-4.60032e-50
-1.98234e-48
-1.01276e-47
-1.87288e-47
-1.955e-47
-5.32036e-47
-4.36935e-46
-6.32068e-46
-4.41066e-46
-1.87769e-46
-5.40126e-47
-1.11423e-47
-1.71269e-48
-2.0133e-49
-3.31158e-148
-8.63312e-142
-1.26609e-131
-4.20424e-120
-1.82876e-108
-4.00556e-98
-1.31233e-95
4.43727e-88
-1.07308e-77
-6.24487e-74
-4.25906e-71
-9.41643e-68
-1.79941e-64
-2.50105e-61
-8.29425e-59
-2.75604e-57
-7.77262e-53
-1.81434e-50
-9.56275e-49
-2.76335e-48
-2.58273e-48
-1.36908e-48
-4.94832e-49
-1.32159e-49
-4.46765e-50
-2.82594e-49
-1.26776e-47
-6.52186e-47
-1.20435e-46
-1.25443e-46
-3.94848e-46
-3.46342e-45
-5.07918e-45
-3.58461e-45
-1.54397e-45
-4.49634e-46
-9.3964e-47
-1.46413e-47
-1.74603e-48
-8.74611e-146
-3.31673e-139
-3.57847e-129
-6.96001e-118
-1.96198e-106
-4.68136e-96
-1.18001e-93
3.25246e-86
-6.27682e-76
-2.71913e-72
-1.35698e-69
-2.22445e-66
-3.71869e-63
-4.59096e-60
-1.37235e-57
-4.09968e-56
-1.08495e-51
-2.38119e-49
-1.19836e-47
-3.30699e-47
-2.96157e-47
-1.51287e-47
-5.2923e-48
-1.37174e-48
-3.76248e-49
-1.65599e-48
-7.7199e-47
-4.00523e-46
-7.39661e-46
-7.69978e-46
-2.83234e-45
-2.65751e-44
-3.95603e-44
-2.82643e-44
-1.2327e-44
-3.63679e-45
-7.70346e-46
-1.21735e-46
-1.47325e-47
-1.39108e-48
-3.46355e-143
-1.49952e-136
-1.72452e-126
-1.12755e-115
-2.02538e-104
-5.31554e-94
-1.03381e-91
2.32416e-84
-3.57859e-74
-1.15457e-70
-4.27479e-68
-5.06721e-65
-7.39073e-62
-8.08301e-59
-2.18257e-56
-5.87143e-55
-1.44976e-50
-2.9913e-48
-1.43733e-46
-3.78895e-46
-3.254e-46
-1.60295e-46
-5.42983e-47
-1.3665e-47
-3.22344e-48
-9.26314e-48
-4.46467e-46
-2.33997e-45
-4.32834e-45
-4.51089e-45
-1.95909e-44
-1.97152e-43
-2.98337e-43
-2.16007e-43
-9.54702e-44
-2.85547e-44
-6.13427e-45
-9.8356e-46
-1.20838e-46
-1.15905e-47
-1.20897e-140
-1.24784e-133
-1.03184e-123
-1.77709e-113
-2.00853e-102
-5.84787e-92
-8.7954e-90
1.61672e-82
-1.98521e-72
-4.77818e-69
-1.32859e-66
-1.1143e-63
-1.41316e-60
-1.36334e-57
-3.3376e-55
-8.1149e-54
-1.85073e-49
-3.58951e-47
-1.64668e-45
-4.14759e-45
-3.41882e-45
-1.62519e-45
-5.33343e-46
-1.3037e-46
-2.76647e-47
-4.96074e-47
-2.44552e-45
-1.29707e-44
-2.40712e-44
-2.51612e-44
-1.30335e-43
-1.4123e-42
-2.17597e-42
-1.59838e-42
-7.16549e-43
-2.17432e-43
-4.74013e-44
-7.71515e-45
-9.62599e-46
-9.38155e-47
-7.23478e-48
-3.47299e-138
-1.8472e-130
-6.1398e-121
-2.71477e-111
-1.90992e-100
-6.21763e-90
-7.24516e-88
1.09314e-80
-1.0697e-70
-1.92672e-67
-4.05985e-65
-2.3719e-62
-2.60466e-59
-2.20127e-56
-4.91559e-54
-1.08762e-52
-2.25226e-48
-4.10571e-46
-1.79811e-44
-4.32813e-44
-3.42732e-44
-1.57332e-44
-5.00449e-45
-1.18842e-45
-2.34036e-46
-2.56085e-46
-1.26488e-44
-6.80183e-44
-1.26863e-43
-1.33266e-43
-8.31744e-43
-9.7558e-42
-1.53315e-41
-1.14393e-41
-5.2064e-42
-1.60406e-42
-3.55095e-43
-5.8699e-44
-7.44026e-45
-7.36983e-46
-5.77946e-47
-5.92209e-136
-3.10433e-127
-3.40063e-118
-4.01845e-109
-1.73829e-98
-6.37325e-88
-5.76289e-86
7.17322e-79
-5.58842e-69
-7.56809e-66
-1.21456e-63
-4.9121e-61
-4.64898e-58
-3.40271e-55
-6.99805e-53
-1.42536e-51
-2.60699e-47
-4.46615e-45
-1.86716e-43
-4.29546e-43
-3.27065e-43
-1.45092e-43
-4.47534e-44
-1.03257e-44
-1.92473e-45
-1.29023e-45
-6.15727e-44
-3.36369e-43
-6.31666e-43
-6.68252e-43
-5.07691e-42
-6.48908e-41
-1.04221e-40
-7.90905e-41
-3.65818e-41
-1.14529e-41
-2.57622e-42
-4.32735e-43
-5.57441e-44
-5.61329e-45
-4.47703e-46
-3.65545e-133
-4.94083e-124
-1.71512e-115
-5.79181e-107
-1.51145e-96
-6.28275e-86
-4.41469e-84
4.56073e-77
-2.82528e-67
-2.89499e-64
-3.54086e-62
-9.97893e-60
-8.10437e-57
-5.04389e-54
-9.69247e-52
-1.84837e-50
-2.86327e-46
-4.60917e-44
-1.83928e-42
-4.04412e-42
-2.96363e-42
-1.27143e-42
-3.80449e-43
-8.52836e-44
-1.52224e-44
-6.46295e-45
-2.81067e-43
-1.56316e-42
-2.9612e-42
-3.1621e-42
-2.95504e-41
-4.1496e-40
-6.82613e-40
-5.27603e-40
-2.48265e-40
-7.90522e-41
-1.80814e-41
-3.08785e-42
-4.04406e-43
-4.14091e-44
-3.35947e-45
-1.43833e-129
-7.11325e-121
-7.75965e-113
-8.24528e-105
-1.25332e-94
-5.942e-84
-3.24889e-82
2.80469e-75
-1.37947e-65
-1.07791e-62
-1.00145e-60
-2.01153e-58
-1.39865e-55
-7.19907e-53
-1.31871e-50
-2.40445e-49
-2.9764e-45
-4.50134e-43
-1.71432e-41
-3.60221e-41
-2.54298e-41
-1.05579e-41
-3.06589e-42
-6.67606e-43
-1.14817e-43
-3.28669e-44
-1.19828e-42
-6.79961e-42
-1.30201e-41
-1.40681e-41
-1.63476e-40
-2.54674e-39
-4.30124e-39
-3.39126e-39
-1.62532e-39
-5.26865e-40
-1.22629e-40
-2.1303e-41
-2.83762e-42
-2.95529e-43
-2.43912e-44
-4.82757e-126
-9.04501e-118
-3.09719e-110
-1.19398e-102
-9.89702e-93
-5.37787e-82
-2.291e-80
1.6653e-73
-6.49137e-64
-3.90297e-61
-2.73674e-59
-4.07726e-57
-2.4324e-54
-9.97186e-52
-1.78404e-49
-3.17181e-48
-2.92053e-44
-4.14862e-42
-1.50766e-40
-3.02675e-40
-2.06022e-40
-8.28321e-41
-2.33491e-41
-4.93694e-42
-8.20376e-43
-1.72025e-43
-4.74972e-42
-2.75633e-41
-5.34623e-41
-5.86032e-41
-8.565e-40
-1.49724e-38
-2.60318e-38
-2.09722e-38
-1.02504e-38
-3.38617e-39
-8.02642e-40
-1.4192e-40
-1.92344e-41
-2.03797e-42
-1.71136e-43
-8.44049e-123
-9.89308e-115
-1.06772e-107
-1.83821e-100
-7.4381e-91
-4.64601e-80
-1.54403e-78
9.52832e-72
-2.93763e-62
-1.37228e-59
-7.20278e-58
-8.4055e-56
-4.33692e-53
-1.35756e-50
-2.42803e-48
-4.25124e-47
-2.69738e-43
-3.59781e-41
-1.24733e-39
-2.39155e-39
-1.5709e-39
-6.1198e-40
-1.67476e-40
-3.43611e-41
-5.5194e-42
-9.23398e-43
-1.74146e-41
-1.03595e-40
-2.03997e-40
-2.27498e-40
-4.23335e-39
-8.41393e-38
-1.51048e-37
-1.2458e-37
-6.21821e-38
-2.09574e-38
-5.06337e-39
-9.11785e-40
-1.25783e-40
-1.35616e-41
-1.15879e-42
-2.95305e-119
-8.9696e-112
-3.08861e-105
-3.11917e-98
-5.32814e-89
-3.82105e-78
-9.91893e-77
5.24387e-70
-1.27583e-60
-4.67584e-58
-1.82136e-56
-1.77092e-54
-7.99734e-52
-1.84739e-49
-3.34526e-47
-5.7344e-46
-2.33794e-42
-2.92671e-40
-9.67662e-39
-1.7709e-38
-1.12337e-38
-4.24243e-39
-1.12702e-39
-2.24131e-40
-3.47575e-41
-4.97604e-42
-5.87126e-41
-3.58856e-40
-7.19183e-40
-8.18471e-40
-1.9653e-38
-4.50873e-37
-8.38586e-37
-7.09562e-37
-3.62245e-37
-1.24715e-37
-3.07405e-38
-5.64109e-39
-7.92411e-40
-8.69564e-41
-7.56088e-42
-5.25078e-116
-6.37082e-109
-7.19279e-103
-5.77108e-96
-3.66159e-87
-2.98348e-76
-6.05683e-75
2.77016e-68
-5.30582e-59
-1.53967e-56
-4.41874e-55
-3.7962e-53
-1.51692e-50
-2.55577e-48
-4.65129e-46
-7.645e-45
-1.89562e-41
-2.22563e-39
-7.01455e-38
-1.22434e-37
-7.50515e-38
-2.74834e-38
-7.08462e-39
-1.36334e-39
-2.03526e-40
-2.61229e-41
-1.80761e-40
-1.13755e-39
-2.32652e-39
-2.71109e-39
-8.52702e-38
-2.29749e-36
-4.44436e-36
-3.86725e-36
-2.02284e-36
-7.1241e-37
-1.79325e-37
-3.35559e-38
-4.80148e-39
-5.36368e-40
-4.74591e-41
-1.05786e-112
-3.21371e-106
-1.26348e-100
-1.09926e-93
-2.45673e-85
-2.20508e-74
-3.50532e-73
1.40192e-66
-2.10823e-57
-4.88273e-55
-1.02814e-53
-8.18314e-52
-2.90906e-49
-3.6287e-47
-6.44613e-45
-9.86706e-44
-1.43291e-40
-1.57633e-38
-4.73297e-37
-7.87085e-37
-4.66434e-37
-1.65619e-37
-4.13911e-38
-7.68765e-39
-1.09948e-39
-1.29649e-40
-5.03836e-40
-3.27052e-39
-6.84759e-39
-8.20146e-39
-3.43774e-37
-1.10969e-35
-2.24273e-35
-2.01236e-35
-1.0806e-35
-3.89912e-36
-1.00337e-36
-1.9158e-37
-2.79334e-38
-3.17688e-39
-2.8604e-40
-4.41317e-109
-9.36044e-104
-1.48668e-98
-2.03325e-91
-1.67192e-83
-1.5381e-72
-1.91681e-71
6.78267e-65
-7.98596e-56
-1.48542e-53
-2.29584e-52
-1.74851e-50
-5.52275e-48
-5.26587e-46
-8.74833e-44
-1.20967e-42
-1.00613e-39
-1.03559e-37
-2.95983e-36
-4.68357e-36
-2.68357e-36
-9.2351e-37
-2.23414e-37
-3.98937e-38
-5.42511e-39
-5.9189e-40
-1.25658e-39
-8.42856e-39
-1.81363e-38
-2.24268e-38
-1.27889e-36
-5.06146e-35
-1.07442e-34
-9.97258e-35
-5.50983e-35
-2.04052e-35
-5.37436e-36
-1.04775e-36
-1.55714e-37
-1.80309e-38
-1.65179e-39
-2.83928e-107
-7.76056e-102
-8.77568e-97
-3.58875e-89
-1.22875e-81
-1.00948e-70
-9.87175e-70
3.13105e-63
-2.87784e-54
-4.31662e-52
-4.92789e-51
-3.65531e-49
-1.01906e-46
-7.68326e-45
-1.14145e-42
-1.38651e-41
-6.53606e-39
-6.28201e-37
-1.70734e-35
-2.56654e-35
-1.42143e-35
-4.73565e-36
-1.10605e-36
-1.88765e-37
-2.41254e-38
-2.41884e-39
-2.75259e-39
-1.91487e-38
-4.25726e-38
-5.46658e-38
-4.35232e-36
-2.17046e-34
-4.87013e-34
-4.69314e-34
-2.67473e-34
-1.01873e-34
-2.74968e-35
-5.47687e-36
-8.29851e-37
-9.78331e-38
-9.11639e-39
-2.11792e-115
-4.56387e-108
-7.60109e-99
-6.25719e-87
-1.0332e-79
-6.21421e-69
-4.77284e-68
1.37621e-61
-9.8454e-53
-1.19287e-50
-1.01895e-49
-7.40172e-48
-1.80358e-45
-1.10284e-43
-1.40821e-41
-1.4663e-40
-3.91081e-38
-3.50047e-36
-9.03501e-35
-1.28767e-34
-6.88699e-35
-2.21658e-35
-4.97654e-36
-8.04557e-37
-9.48922e-38
-8.55937e-39
-5.11036e-39
-3.73561e-38
-8.65601e-38
-1.16383e-37
-1.33991e-35
-8.70434e-34
-2.08059e-33
-2.09057e-33
-1.23269e-33
-4.83957e-34
-1.34048e-34
-2.72957e-35
-4.21712e-36
-5.06077e-37
-4.79481e-38
-1.64303e-113
-3.89734e-105
-2.25608e-96
-1.12737e-84
-9.927e-78
-3.57306e-67
-2.1591e-66
5.74826e-60
-3.19125e-51
-3.12047e-49
-2.03414e-48
-1.44153e-46
-3.03555e-44
-1.5251e-42
-1.61909e-40
-1.41414e-39
-2.1441e-37
-1.78096e-35
-4.35868e-34
-5.87475e-34
-3.02875e-34
-9.38205e-35
-2.01052e-35
-3.03728e-36
-3.20737e-37
-2.47807e-38
-7.36228e-39
-5.96489e-38
-1.4665e-37
-2.09372e-37
-3.67489e-35
-3.24364e-33
-8.33966e-33
-8.78195e-33
-5.3759e-33
-2.18137e-33
-6.20931e-34
-1.2933e-34
-2.03736e-35
-2.48783e-36
-2.39503e-37
-1.18868e-110
-2.90741e-102
-6.38227e-94
-2.04837e-82
-1.02351e-75
-1.91176e-65
-9.10605e-65
2.27718e-58
-9.78108e-50
-7.69213e-48
-3.92642e-47
-2.68675e-45
-4.83334e-43
-1.99633e-41
-1.71224e-39
-1.22972e-38
-1.07025e-36
-8.21415e-35
-1.90265e-33
-2.41749e-33
-1.19742e-33
-3.54716e-34
-7.17004e-35
-9.90472e-36
-8.79651e-37
-4.87493e-38
-5.3168e-39
-6.96798e-38
-1.91469e-37
-2.98697e-37
-8.77941e-35
-1.11419e-32
-3.11963e-32
-3.46394e-32
-2.21033e-32
-9.2981e-33
-2.72418e-33
-5.80622e-34
-9.3243e-35
-1.15785e-35
-1.13151e-36
-1.9843e-107
-1.85289e-99
-1.7182e-91
-3.54824e-80
-1.05743e-73
-9.48038e-64
-3.56674e-63
8.53941e-57
-2.82918e-48
-1.77877e-46
-7.32911e-46
-4.7739e-44
-7.25734e-42
-2.43624e-40
-1.64415e-38
-9.52584e-38
-4.82406e-36
-3.40397e-34
-7.44704e-33
-8.88201e-33
-4.20228e-33
-1.17736e-33
-2.19942e-34
-2.6754e-35
-1.58748e-36
-2.97541e-57
-2.43797e-47
-3.17375e-38
-1.51255e-37
-2.81104e-37
-1.76187e-34
-3.4916e-32
-1.08207e-31
-1.27645e-31
-8.53085e-32
-3.73374e-32
-1.12775e-32
-2.46021e-33
-4.02558e-34
-5.07836e-35
-5.03073e-36
-3.63726e-104
-9.82731e-97
-4.39887e-89
-5.82256e-78
-1.04705e-71
-4.3389e-62
-1.29216e-61
3.02495e-55
-7.70694e-47
-3.84145e-45
-1.32071e-44
-8.05818e-43
-1.02513e-40
-2.73197e-39
-1.4138e-37
-6.48153e-37
-1.94129e-35
-1.25295e-33
-2.58347e-32
-2.87487e-32
-1.28602e-32
-3.34063e-33
-5.55022e-34
-5.45023e-35
-5.52866e-43
-9.09418e-48
-9.56706e-48
-2.41836e-46
-4.28113e-47
-4.91847e-47
-2.77237e-34
-9.84395e-32
-3.45252e-31
-4.36775e-31
-3.07497e-31
-1.40618e-31
-4.38578e-32
-9.79203e-33
-1.63104e-33
-2.08726e-34
-2.09171e-35
-6.28755e-101
-4.18135e-94
-1.07047e-86
-8.99937e-76
-9.69768e-70
-1.82609e-60
-4.30997e-60
1.01046e-53
-1.97275e-45
-7.7135e-44
-2.28959e-43
-1.28734e-41
-1.35806e-39
-2.77127e-38
-1.07126e-36
-3.80616e-36
-6.85906e-35
-4.03252e-33
-7.82123e-32
-8.04381e-32
-3.33856e-32
-7.74028e-33
-1.0417e-33
-5.41783e-35
-1.95409e-43
-3.50231e-48
-2.88777e-64
-1.19111e-46
-2.03724e-47
-6.98128e-45
-2.81621e-34
-2.4471e-31
-1.00298e-30
-1.37751e-30
-1.02877e-30
-4.94033e-31
-1.59366e-31
-3.63952e-32
-6.16178e-33
-7.98149e-34
-8.06724e-35
-8.68269e-98
-1.35737e-91
-2.47208e-84
-1.30298e-73
-8.27752e-68
-7.03082e-59
-1.3169e-58
3.17526e-52
-4.73188e-44
-1.43371e-42
-3.80071e-42
-1.93839e-40
-1.6784e-38
-2.49594e-37
-7.01044e-36
-1.88379e-35
-2.07268e-34
-1.10885e-32
-2.02049e-31
-1.88902e-31
-7.003e-32
-1.32938e-32
-8.71442e-34
-1.98204e-52
-1.76733e-44
-2.19319e-57
1.51693e-41
-3.8759e-56
1.84332e-57
-3.23196e-45
-3.18836e-44
-5.19595e-31
-2.61613e-30
-3.96637e-30
-3.17025e-30
-1.60852e-30
-5.37443e-31
-1.25379e-31
-2.15225e-32
-2.81247e-33
-2.85413e-34
-8.05883e-95
-3.12216e-89
-5.3975e-82
-1.75898e-71
-6.45344e-66
-2.464e-57
-3.67039e-57
9.36785e-51
-1.05936e-42
-2.45527e-41
-6.00868e-41
-2.73781e-39
-1.91637e-37
-1.94932e-36
-3.85723e-35
-7.58752e-35
-5.12029e-34
-2.50921e-32
-4.29703e-31
-3.53372e-31
-1.06223e-31
-1.14278e-32
-2.3528e-39
-1.0792e-40
-3.48005e-42
-6.0155e-46
2.17627e-39
1.48892e-40
2.74771e-41
8.36506e-39
6.15817e-36
-8.88943e-31
-6.00351e-30
-1.02956e-29
-8.90942e-30
-4.81275e-30
-1.66751e-30
-3.96348e-31
-6.87109e-32
-9.01073e-33
-9.11446e-34
-3.83059e-92
-4.59461e-87
-1.10909e-79
-2.20278e-69
-4.55664e-64
-7.81846e-56
-9.28114e-56
2.58505e-49
-2.20248e-41
-3.85614e-40
-8.99797e-40
-3.6083e-38
-1.98866e-36
-1.27937e-35
-1.71622e-34
-2.34409e-34
-9.43056e-34
-4.35216e-32
-7.02575e-31
-4.68041e-31
-6.5972e-32
-5.34664e-38
-2.07664e-39
-3.01944e-41
-7.4455e-43
1.66874e-37
1.28392e-37
2.09506e-38
5.11572e-39
8.17699e-37
5.6561e-33
-1.04865e-30
-1.17286e-29
-2.36618e-29
-2.25292e-29
-1.30857e-29
-4.70427e-30
-1.13379e-30
-1.97194e-31
-2.57245e-32
-2.5612e-33
-1.59225e-90
-4.18809e-85
-2.13217e-77
-2.54801e-67
-2.89049e-62
-2.23497e-54
-2.11725e-54
6.63763e-48
-4.22705e-40
-5.52323e-39
-1.26931e-38
-4.40937e-37
-1.82775e-35
-6.7462e-35
-5.79513e-34
-4.85824e-34
-9.39796e-34
-4.73804e-32
-7.17867e-31
-2.29519e-31
-7.8297e-39
-3.17089e-38
-3.88136e-40
-2.26519e-42
8.82479e-36
9.59908e-36
7.05839e-36
1.15397e-36
2.04001e-47
-3.39819e-40
-5.20131e-48
-4.77646e-33
-1.83047e-29
-4.68213e-29
-5.02755e-29
-3.18282e-29
-1.18668e-29
-2.87438e-30
-4.95757e-31
-6.33178e-32
-6.05653e-33
-5.66436e-88
-3.60539e-83
-3.80352e-75
-2.71051e-65
-1.63387e-60
-5.72483e-53
-4.3349e-53
1.57348e-46
-7.43406e-39
-7.17355e-38
-1.67754e-37
-4.95189e-36
-1.43023e-34
-2.65066e-34
-1.30538e-33
-3.00376e-34
-4.87793e-43
-8.67452e-42
-3.50133e-41
-2.38942e-38
-7.40565e-41
-5.95002e-39
-1.2848e-40
1.84595e-35
5.02721e-34
5.17281e-34
3.77788e-34
6.05718e-35
-1.10004e-42
-3.13177e-45
-7.30282e-51
-5.08125e-37
-1.87548e-29
-7.59281e-29
-9.60485e-29
-6.76463e-29
-2.6097e-29
-6.24279e-30
-1.04433e-30
-1.26457e-31
-1.09637e-32
-4.17005e-94
-1.09182e-86
-6.23688e-73
-2.6416e-63
-8.15991e-59
-1.3068e-51
-7.93619e-52
3.40057e-45
-1.18713e-37
-8.39382e-37
-2.06518e-36
-5.02309e-35
-8.93731e-34
-6.33959e-34
-1.16865e-33
-7.30728e-41
-8.37609e-43
-2.0487e-41
-9.94195e-41
-1.32809e-39
-1.61274e-41
-1.51696e-39
4.44778e-34
1.05777e-33
2.67752e-32
2.70933e-32
1.96931e-32
3.16136e-33
7.36661e-34
0
-2.6805e-37
-5.89209e-37
-2.75065e-37
-9.03316e-29
-1.48886e-28
-1.20916e-28
-4.79861e-29
-1.08957e-29
-1.68178e-30
-1.77666e-31
-1.0721e-32
-1.71391e-91
-7.70515e-84
-9.30556e-71
-2.34894e-61
-3.5667e-57
-2.64381e-50
-1.30343e-50
6.55511e-44
-1.70318e-36
-8.78474e-36
-2.3536e-35
-4.40664e-34
-3.92417e-33
-1.33486e-52
-3.08527e-41
-6.46955e-43
-2.82131e-47
-2.44396e-45
-1.9163e-42
-2.8116e-40
8.15209e-35
3.47175e-33
2.50255e-32
5.53743e-32
1.3832e-30
1.38109e-30
9.97558e-31
1.57946e-31
3.7338e-32
-3.96893e-53
-1.24454e-35
-3.01759e-35
-1.32983e-35
-4.76648e-29
-1.66326e-28
-1.69216e-28
-6.82619e-29
-1.27705e-29
-1.50188e-30
-6.8924e-32
-3.00635e-38
-6.90146e-89
-5.22815e-81
-1.24953e-68
-1.89559e-59
-1.3504e-55
-4.71454e-49
-1.9848e-49
1.08881e-42
-2.16911e-35
-8.15707e-35
-2.46636e-34
-2.92796e-33
-7.72123e-33
-9.76845e-40
-2.51072e-42
-1.01828e-43
7.95711e-37
5.28012e-36
1.46232e-34
1.06648e-33
2.85323e-32
1.95482e-31
1.29575e-30
2.80176e-30
6.91939e-29
6.84416e-29
4.91439e-29
7.69572e-30
1.84942e-30
1.83351e-30
0
-5.04529e-36
-1.47803e-35
-8.87565e-37
-7.78442e-29
-1.52759e-28
-6.29012e-29
-1.5295e-36
-2.05957e-45
-1.76575e-60
-1.46045e-51
-2.68392e-86
-3.31405e-78
-1.49258e-66
-1.37696e-57
-4.378e-54
-7.36661e-48
-3.18612e-48
1.4896e-41
-2.41919e-34
-6.65968e-34
-2.35859e-33
-6.97295e-33
-4.77694e-40
-3.23711e-42
-4.77936e-43
8.13092e-37
1.48459e-34
8.77386e-34
2.19633e-32
1.54826e-31
1.59324e-30
9.99787e-30
6.47364e-29
1.37033e-28
3.35261e-27
3.29078e-27
2.35405e-27
3.65633e-28
8.76533e-29
9.29773e-29
9.88323e-30
-1.33175e-45
-3.61808e-36
-1.109e-35
-3.61022e-50
0
-1.72013e-29
-1.41293e-43
-1.28405e-42
-4.42497e-45
7.93765e-53
-9.13204e-84
-1.92387e-75
-1.56567e-64
-8.88792e-56
-1.2e-52
-1.00117e-46
-6.89888e-47
1.61483e-40
-2.32675e-33
-4.73319e-33
-2.04069e-32
-1.67817e-39
-4.9193e-42
-6.20167e-43
1.993e-36
2.57886e-34
9.34238e-33
5.23519e-32
1.24966e-30
8.47109e-30
8.07043e-29
4.91672e-28
3.11896e-27
6.47303e-27
1.57234e-25
1.53401e-25
1.09588e-25
1.69357e-26
4.05436e-27
4.4343e-27
5.41803e-28
9.88323e-30
-7.93785e-53
-2.44144e-36
-1.13257e-35
-5.21548e-37
-1.19328e-35
-3.05199e-46
2.12218e-30
5.47612e-46
2.31565e-30
-3.03619e-81
-1.00848e-72
-1.42028e-62
-5.00064e-54
-2.74277e-51
-1.17089e-45
-2.09385e-45
1.35324e-39
-1.89581e-32
-2.89727e-32
-1.5805e-31
-2.05213e-37
-4.10624e-39
-6.67167e-40
3.70656e-34
1.65692e-32
5.39164e-31
2.86873e-30
6.51965e-29
4.25769e-28
3.91899e-27
2.32559e-26
1.44792e-25
2.95072e-25
7.13273e-24
6.92839e-24
4.95566e-24
7.64699e-25
1.82981e-25
2.06671e-25
2.72827e-26
5.41803e-28
9.88323e-30
7.93785e-53
-2.56654e-36
-2.4043e-37
-2.32162e-63
2.77082e-28
2.93727e-30
2.14255e-29
2.93813e-30
-9.76697e-79
-4.7197e-70
-1.09278e-60
-2.38746e-52
-5.15068e-50
-1.1582e-44
-6.90752e-44
1.99134e-39
-1.28082e-31
-1.5117e-31
-1.08004e-30
-1.37289e-35
-3.73953e-37
-6.07818e-38
2.38073e-32
9.66741e-31
2.96174e-29
1.49848e-28
3.24896e-27
2.04781e-26
1.82512e-25
1.05698e-24
6.47073e-24
1.29689e-23
7.14288e-15
6.9901e-15
4.93655e-15
7.01488e-16
8.05679e-24
9.4154e-24
1.35484e-24
2.72827e-26
5.41804e-28
9.88323e-30
1.87103e-44
0
-5.38866e-38
1.70541e-26
2.26879e-29
3.12666e-29
3.33858e-30
-3.07821e-76
-1.95274e-67
-6.9538e-59
-9.32765e-51
-7.82188e-49
-9.42172e-44
-2.06757e-42
-2.86346e-49
-6.9803e-31
-6.68237e-31
-6.37728e-30
-1.23018e-33
-3.0649e-35
-4.84741e-36
1.41429e-30
5.34998e-29
1.54795e-27
7.46441e-27
1.54705e-25
9.41682e-25
8.14432e-24
8.46303e-16
5.96388e-15
1.26484e-14
1.86756e-14
1.82999e-14
1.80085e-14
1.6809e-14
1.31046e-14
1.20065e-14
3.63621e-15
1.35484e-24
2.72827e-26
5.41804e-28
1.55239e-29
1.53914e-30
3.32938e-46
1.26873e-27
5.44975e-29
3.69009e-28
1.29261e-29
-9.21792e-74
-7.07502e-65
-3.54854e-57
-2.83809e-49
-9.41837e-48
-6.02994e-43
-5.24906e-41
-3.04815e-50
-2.95158e-30
-2.52471e-30
-3.15442e-29
-4.46786e-32
-2.28215e-33
-1.97509e-34
7.95358e-29
2.8093e-27
7.68592e-26
3.53793e-25
7.02212e-24
7.06414e-16
7.39405e-15
1.58088e-14
1.83069e-14
1.88655e-14
1.88738e-14
1.88793e-14
1.9363e-14
1.98213e-14
1.97247e-14
1.80832e-14
1.47194e-14
4.18533e-15
1.35484e-24
2.72827e-26
8.77534e-28
9.11045e-29
1.88465e-30
1.16874e-28
1.05161e-27
7.17225e-28
2.5887e-19
-2.41264e-71
-2.2248e-62
-1.42235e-55
-6.25201e-48
-8.68599e-47
-2.84912e-42
-1.10645e-39
8.47281e-33
-9.08761e-30
-8.48889e-30
-1.24805e-28
1.4308e-25
1.0518e-27
4.64547e-28
4.30848e-27
1.39417e-25
3.62548e-24
1.1318e-16
6.40766e-15
1.41398e-14
1.6577e-14
1.79257e-14
1.79135e-14
1.78869e-14
1.80372e-14
1.84594e-14
2.00382e-14
2.00975e-14
2.00973e-14
1.89445e-14
1.63077e-14
1.51232e-14
2.37947e-15
1.35484e-24
4.58017e-26
5.00776e-27
1.16874e-28
8.32285e-18
1.17341e-17
6.06953e-18
4.76456e-19
-4.28629e-69
-6.01719e-60
-4.85809e-54
-8.79862e-47
-5.66209e-46
-9.77744e-42
-1.92569e-38
3.81165e-32
-1.79127e-29
-2.67398e-29
-3.69008e-28
1.7196e-22
5.80317e-26
2.53934e-26
2.16391e-25
6.54064e-24
3.50294e-15
1.14703e-14
1.56661e-14
1.63563e-14
1.6367e-14
1.45874e-14
1.29599e-14
1.30492e-14
1.31061e-14
1.32496e-14
1.48535e-14
1.81994e-14
2.03388e-14
2.14339e-14
2.03838e-14
1.61523e-14
1.47434e-14
8.64526e-16
2.36574e-24
2.73219e-25
6.77354e-27
1.15869e-16
1.29967e-16
3.24558e-17
1.25638e-29
-3.27422e-67
-1.38568e-57
-1.9705e-52
-5.89687e-46
-2.19052e-45
-4.38692e-41
-2.43917e-37
-2.7638e-34
-1.5643e-29
-7.35492e-29
-7.99522e-28
-3.82022e-31
-1.21649e-29
-3.27719e-30
8.69328e-17
6.77902e-15
1.27709e-14
1.42648e-14
1.39316e-14
1.38816e-14
1.34557e-14
1.2506e-14
1.25178e-14
1.2521e-14
1.25245e-14
1.26227e-14
1.26309e-14
1.29244e-14
1.39182e-14
2.17881e-14
2.24342e-14
1.83966e-14
1.79541e-14
1.78817e-14
9.23011e-15
1.53874e-15
3.91093e-25
1.28311e-16
1.39459e-16
3.57911e-17
1.24262e-29
-3.19851e-35
-1.22648e-28
-4.89486e-27
-3.33233e-30
-9.19392e-24
1.55583e-15
7.1749e-15
1.17775e-14
1.21627e-14
1.21712e-14
1.21832e-14
1.21951e-14
1.22128e-14
1.22533e-14
1.23174e-14
2.07944e-14
1.50646e-14
1.256e-14
1.256e-14
1.25612e-14
1.25647e-14
1.41297e-14
2.28476e-14
2.2964e-14
2.14118e-14
2.23289e-14
2.2248e-14
1.99545e-14
2.17189e-15
7.59191e-19
7.04396e-17
7.59318e-18
1.24255e-29
-1.25877e-51
-1.34341e-51
-7.98516e-52
-3.1917e-52
-9.37886e-53
-8.72535e-53
-1.06302e-51
-4.13666e-50
-2.09492e-49
-3.90684e-49
-4.11947e-49
-8.75146e-49
-6.32722e-48
-8.93709e-48
-6.11437e-48
-2.54893e-48
-7.16897e-49
-1.44384e-49
-2.16324e-50
-2.47412e-51
-9.30747e-53
-5.35539e-51
-1.69763e-50
-1.73177e-50
-9.90131e-51
-3.82485e-51
-1.08715e-51
-6.82736e-52
-7.15832e-51
-2.89647e-49
-1.47297e-48
-2.73561e-48
-2.87e-48
-6.91109e-48
-5.3348e-47
-7.62301e-47
-5.26537e-47
-2.21752e-47
-6.30619e-48
-1.28529e-48
-1.9505e-49
-2.26172e-50
-2.47644e-147
-1.18165e-140
-7.34129e-134
-2.50196e-122
-1.62105e-110
-3.34075e-100
-1.42292e-97
5.91422e-90
-1.79088e-79
-1.39941e-75
-8.36374e-66
-1.30758e-62
-4.80363e-60
-1.7665e-58
-5.33653e-54
-1.32582e-51
-7.2842e-50
-2.2036e-49
-2.1506e-49
-1.18345e-49
-4.42045e-50
-1.2172e-50
-5.44073e-51
-4.60709e-50
-1.9399e-48
-9.92013e-48
-1.83722e-47
-1.92045e-47
-5.29751e-47
-4.36411e-46
-6.31459e-46
-4.40717e-46
-1.87647e-46
-5.39899e-47
-1.11415e-47
-1.71329e-48
-2.01485e-49
-3.72496e-148
-9.863e-142
-1.33824e-131
-4.20066e-120
-1.80404e-108
-4.00645e-98
-1.3068e-95
4.44115e-88
-1.07304e-77
-6.24378e-74
-4.24808e-71
-9.36309e-68
-1.7945e-64
-2.49749e-61
-8.25015e-59
-2.72322e-57
-7.76646e-53
-1.81446e-50
-9.51819e-49
-2.74888e-48
-2.56857e-48
-1.36124e-48
-4.91878e-49
-1.31346e-49
-4.45477e-50
-2.83025e-49
-1.24001e-47
-6.38585e-47
-1.18102e-46
-1.23187e-46
-3.93342e-46
-3.45982e-45
-5.07497e-45
-3.58221e-45
-1.54314e-45
-4.49497e-46
-9.39703e-47
-1.4649e-47
-1.74776e-48
-9.86353e-146
-3.74704e-139
-3.52135e-129
-6.9542e-118
-1.93493e-106
-4.68189e-96
-1.17373e-93
3.25568e-86
-6.27666e-76
-2.71861e-72
-1.35215e-69
-2.20501e-66
-3.70217e-63
-4.58048e-60
-1.36122e-57
-4.03109e-56
-1.08408e-51
-2.38141e-49
-1.19267e-47
-3.28939e-47
-2.9451e-47
-1.50412e-47
-5.26043e-48
-1.3632e-48
-3.74727e-49
-1.65855e-48
-7.54707e-47
-3.92022e-46
-7.25088e-46
-7.55884e-46
-2.82281e-45
-2.65515e-44
-3.95324e-44
-2.82485e-44
-1.23216e-44
-3.63606e-45
-7.70496e-46
-1.21819e-46
-1.47502e-47
-1.3934e-48
-3.94654e-143
-1.60953e-136
-1.60588e-126
-1.12644e-115
-1.99691e-104
-5.31553e-94
-1.02698e-91
2.3267e-84
-3.57853e-74
-1.15432e-70
-4.2542e-68
-4.99867e-65
-7.33691e-62
-8.05325e-59
-2.15528e-56
-5.72636e-55
-1.44856e-50
-2.99164e-48
-1.43039e-46
-3.76847e-46
-3.23565e-46
-1.59357e-46
-5.39683e-47
-1.3579e-47
-3.20738e-48
-9.27698e-48
-4.36248e-46
-2.28943e-45
-4.2416e-45
-4.42686e-45
-1.95331e-44
-1.97002e-43
-2.9816e-43
-2.15907e-43
-9.54374e-44
-2.85517e-44
-6.13618e-45
-9.84394e-46
-1.21009e-46
-1.16128e-47
-1.38711e-140
-1.21204e-133
-9.44827e-124
-1.77464e-113
-1.97973e-102
-5.84718e-92
-8.72428e-90
1.61863e-82
-1.98517e-72
-4.77702e-69
-1.32011e-66
-1.09094e-63
-1.39622e-60
-1.35521e-57
-3.2729e-55
-7.80874e-54
-1.84914e-49
-3.59002e-47
-1.63859e-45
-4.1248e-45
-3.39928e-45
-1.61557e-45
-5.30071e-46
-1.29541e-46
-2.75078e-47
-4.96731e-47
-2.3883e-45
-1.26856e-44
-2.35804e-44
-2.46842e-44
-1.29999e-43
-1.41139e-42
-2.17489e-42
-1.59778e-42
-7.1636e-43
-2.17427e-43
-4.7421e-44
-7.72282e-45
-9.64149e-46
-9.402e-47
-7.25398e-48
-3.89633e-138
-1.70416e-130
-5.60285e-121
-2.70852e-111
-1.88198e-100
-6.2162e-90
-7.1743e-88
1.09451e-80
-1.06966e-70
-1.92617e-67
-4.02619e-65
-2.29502e-62
-2.55324e-59
-2.17991e-56
-4.76764e-54
-1.02403e-52
-2.2502e-48
-4.10643e-46
-1.78911e-44
-4.30397e-44
-3.40745e-44
-1.56389e-44
-4.97348e-45
-1.18079e-45
-2.32598e-46
-2.5633e-46
-1.23462e-44
-6.64963e-44
-1.24231e-43
-1.30694e-43
-8.29881e-43
-9.75058e-42
-1.53253e-41
-1.1436e-41
-5.20539e-42
-1.60414e-42
-3.55277e-43
-5.87652e-44
-7.45363e-45
-7.3877e-46
-5.79656e-47
-6.55649e-136
-2.83309e-127
-3.10131e-118
-4.00047e-109
-1.71234e-98
-6.3711e-88
-5.69544e-86
7.18258e-79
-5.58802e-69
-7.56544e-66
-1.2017e-63
-4.66788e-61
-4.49877e-58
-3.34891e-55
-6.67275e-53
-1.29684e-51
-2.60438e-47
-4.46708e-45
-1.85765e-43
-4.27109e-43
-3.25141e-43
-1.44212e-43
-4.44733e-44
-1.02588e-44
-1.91229e-45
-1.2906e-45
-6.00669e-44
-3.28706e-43
-6.18327e-43
-6.55125e-43
-5.06706e-42
-6.4862e-41
-1.04187e-40
-7.90726e-41
-3.65769e-41
-1.14541e-41
-2.57775e-42
-4.33277e-43
-5.5854e-44
-5.62823e-45
-4.49161e-46
-3.42647e-133
-4.50024e-124
-1.56399e-115
-5.73465e-107
-1.48837e-96
-6.28002e-86
-4.35344e-84
4.56678e-77
-2.82491e-67
-2.89372e-64
-3.49372e-62
-9.23113e-60
-7.68276e-57
-4.91396e-54
-9.00649e-52
-1.59807e-50
-2.86004e-46
-4.61031e-44
-1.82975e-42
-4.02081e-42
-2.94594e-42
-1.26362e-42
-3.78041e-43
-8.47248e-44
-1.51207e-44
-6.45802e-45
-2.74038e-43
-1.52689e-42
-2.89753e-42
-3.09885e-42
-2.95007e-41
-4.14808e-40
-6.82436e-40
-5.27515e-40
-2.48245e-40
-7.90652e-41
-1.80935e-41
-3.09206e-42
-4.05269e-43
-4.15286e-44
-3.37137e-45
-1.26175e-129
-6.47481e-121
-7.07577e-113
-8.05308e-105
-1.23369e-94
-5.93893e-84
-3.19589e-82
2.8084e-75
-1.37919e-65
-1.07731e-62
-9.84876e-61
-1.79114e-58
-1.28517e-55
-6.89886e-53
-1.18031e-50
-1.93808e-49
-2.97244e-45
-4.50263e-43
-1.70528e-41
-3.58111e-41
-2.52758e-41
-1.04922e-41
-3.04626e-42
-6.63183e-43
-1.14031e-43
-3.27955e-44
-1.16763e-42
-6.63886e-42
-1.27349e-41
-1.37814e-41
-1.63239e-40
-2.54598e-39
-4.30038e-39
-3.39087e-39
-1.62526e-39
-5.26975e-40
-1.22718e-40
-2.1334e-41
-2.84409e-42
-2.96442e-43
-2.44842e-44
-4.24304e-126
-8.22919e-118
-2.82422e-110
-1.12948e-102
-9.73652e-93
-5.37474e-82
-2.24739e-80
1.66745e-73
-6.48932e-64
-3.90009e-61
-2.68095e-59
-3.45292e-57
-2.14002e-54
-9.30902e-52
-1.51749e-49
-2.34542e-48
-2.91576e-44
-4.14998e-42
-1.49957e-40
-3.00873e-40
-2.04756e-40
-8.23098e-41
-2.31978e-41
-4.90385e-42
-8.14643e-43
-1.71381e-43
-4.6254e-42
-2.68989e-41
-5.22682e-41
-5.7386e-41
-8.55426e-40
-1.49688e-38
-2.60279e-38
-2.09707e-38
-1.02504e-38
-3.38701e-39
-8.03267e-40
-1.42138e-40
-1.92808e-41
-2.04465e-42
-1.71831e-43
-7.63838e-123
-8.99609e-115
-9.73615e-108
-1.63346e-100
-7.31036e-91
-4.64312e-80
-1.50998e-78
9.54003e-72
-2.9363e-62
-1.37095e-59
-7.0231e-58
-6.70784e-56
-3.61725e-53
-1.21793e-50
-1.93928e-48
-2.86591e-47
-2.69175e-43
-3.59913e-41
-1.24052e-39
-2.37708e-39
-1.56109e-39
-6.08065e-40
-1.66376e-40
-3.41278e-41
-5.48011e-42
-9.18604e-43
-1.6948e-41
-1.01046e-40
-1.99346e-40
-2.22677e-40
-4.22876e-39
-8.41231e-38
-1.51032e-37
-1.24575e-37
-6.21841e-38
-2.09631e-38
-5.0675e-39
-9.13247e-40
-1.26099e-40
-1.36082e-41
-1.16376e-42
-2.72366e-119
-8.15148e-112
-2.81639e-105
-2.53196e-98
-5.22595e-89
-3.81864e-78
-9.66735e-77
5.24988e-70
-1.27504e-60
-4.66976e-58
-1.76606e-56
-1.32841e-54
-6.30814e-52
-1.56715e-49
-2.49424e-47
-3.54803e-46
-2.33147e-42
-2.92789e-40
-9.62292e-39
-1.76001e-38
-1.11624e-38
-4.21488e-39
-1.11951e-39
-2.22587e-40
-3.45053e-41
-4.94453e-42
-5.71019e-41
-3.49833e-40
-7.02422e-40
-8.00761e-40
-1.96345e-38
-4.50805e-37
-8.38529e-37
-7.0956e-37
-3.62266e-37
-1.24752e-37
-3.07664e-38
-5.65041e-39
-7.9447e-40
-8.72669e-41
-7.59479e-42
-5.15829e-116
-5.78558e-109
-6.55885e-103
-4.31356e-96
-3.57422e-87
-2.98167e-76
-5.88135e-75
2.77305e-68
-5.30154e-59
-1.53701e-56
-4.25622e-55
-2.69194e-53
-1.13956e-50
-2.02081e-48
-3.24845e-46
-4.41203e-45
-1.88846e-41
-2.22658e-39
-6.97497e-38
-1.21668e-37
-7.45676e-38
-2.7302e-38
-7.03663e-39
-1.35379e-39
-2.02017e-40
-2.59358e-41
-1.75683e-40
-1.10827e-39
-2.27099e-39
-2.65108e-39
-8.52003e-38
-2.29722e-36
-4.4442e-36
-3.86735e-36
-2.02301e-36
-7.12633e-37
-1.79479e-37
-3.36123e-38
-4.81423e-39
-5.38337e-40
-4.76794e-41
-1.06412e-112
-2.91578e-106
-1.15212e-100
-8.01593e-94
-2.37084e-85
-2.2039e-74
-3.39011e-73
1.40324e-66
-2.10608e-57
-4.87152e-55
-9.82534e-54
-5.54807e-52
-2.10815e-49
-2.65909e-47
-4.26439e-45
-5.41053e-44
-1.42539e-40
-1.57702e-38
-4.70581e-37
-7.82077e-37
-4.63375e-37
-1.64506e-37
-4.11055e-38
-7.63278e-39
-1.09113e-39
-1.2864e-40
-4.89353e-40
-3.18408e-39
-6.67975e-39
-8.0154e-39
-3.43526e-37
-1.1096e-35
-2.24272e-35
-2.01247e-35
-1.08072e-35
-3.90039e-36
-1.00424e-36
-1.91903e-37
-2.80083e-38
-3.18874e-39
-2.87399e-40
-4.29549e-109
-8.48026e-104
-1.35565e-98
-1.57025e-91
-1.5728e-83