/*--------------------------------*- C++ -*----------------------------------*\
| =========                 |                                                 |
| \\      /  F ield         | OpenFOAM: The Open Source CFD Toolbox           |
|  \\    /   O peration     | Version:  v2012                                 |
|   \\  /    A nd           | Website:  www.openfoam.com                      |
|    \\/     M anipulation  |                                                 |
\*---------------------------------------------------------------------------*/
FoamFile
{
    version     2.0;
    format      ascii;
    class       surfaceScalarField;
    location    "0.3";
    object      phi;
}
// * * * * * * * * * * * * * * * * * * * * * * * * * * * * * * * * * * * * * //

dimensions      [0 3 -1 0 0 0 0];
oriented        oriented;


internalField   nonuniform List<scalar> 
8162
(
1.90419e-11
-3.2443e-10
2.68659e-16
2.31724e-11
-3.78374e-10
1.47832e-16
2.79173e-11
-4.3833e-10
5.73394e-17
3.33179e-11
-5.04549e-10
4.84458e-17
3.94086e-11
-5.77389e-10
1.59975e-17
4.62172e-11
-6.57046e-10
1.2922e-16
5.37585e-11
-7.4377e-10
1.18063e-16
6.20364e-11
-8.37722e-10
1.43445e-16
7.10382e-11
-9.38908e-10
1.25464e-16
8.07349e-11
-1.04751e-09
1.28451e-16
9.10758e-11
-1.16329e-09
1.34732e-16
1.01988e-10
-1.28616e-09
1.3013e-16
1.13377e-10
-1.41587e-09
1.10408e-16
1.2512e-10
-1.55195e-09
6.10515e-17
1.37068e-10
-1.69391e-09
5.24891e-18
1.49048e-10
-1.84102e-09
-4.84698e-17
1.60859e-10
-1.99253e-09
-9.86278e-17
1.72277e-10
-2.14736e-09
-1.53048e-16
1.83059e-10
-2.30439e-09
-2.49921e-16
-2.46222e-09
-3.49328e-16
1.3471e-11
-2.35908e-10
4.31513e-16
1.67506e-11
-2.79409e-10
3.01484e-16
2.05879e-11
-3.28265e-10
3.13662e-16
2.5033e-11
-3.82817e-10
2.69929e-16
3.01328e-11
-4.43428e-10
2.04569e-16
3.59297e-11
-5.10344e-10
1.97929e-16
4.24589e-11
-5.83916e-10
1.74257e-16
4.97474e-11
-6.64332e-10
2.67464e-16
5.78089e-11
-7.5183e-10
2.21464e-16
6.66447e-11
-8.46556e-10
2.2965e-16
7.62381e-11
-9.485e-10
1.74409e-16
8.65555e-11
-1.05783e-09
1.71536e-16
9.75397e-11
-1.17427e-09
1.46657e-16
1.0911e-10
-1.29773e-09
1.51429e-16
1.21163e-10
-1.42792e-09
1.08631e-16
1.33565e-10
-1.56436e-09
8.14884e-17
1.46158e-10
-1.7065e-09
9.37929e-18
1.58755e-10
-1.85362e-09
-1.36169e-17
1.71142e-10
-2.00492e-09
-8.27215e-17
1.83082e-10
-2.1593e-09
-1.03562e-16
1.94319e-10
-2.31563e-09
-2.07537e-16
-2.47248e-09
-2.53361e-16
1.13499e-16
-1.43561e-14
-7.21787e-18
2.46097e-15
-2.393e-13
-3.74645e-17
1.28637e-14
-9.75597e-13
1.96891e-18
4.05501e-14
-2.46051e-12
2.10645e-16
9.42667e-14
-4.91425e-12
1.86321e-16
1.95408e-13
-8.55588e-12
9.70881e-16
3.4863e-13
-1.36086e-11
1.2828e-16
5.80951e-13
-2.03078e-11
6.54273e-16
9.28003e-13
-2.88944e-11
2.08646e-15
-3.96392e-11
2.74607e-15
3.9604e-12
-8.75951e-11
8.2589e-16
5.31795e-12
-1.09834e-10
-4.20326e-16
7.0109e-12
-1.35746e-10
1.32904e-16
9.08618e-12
-1.65659e-10
3.50434e-16
1.15917e-11
-1.99924e-10
-6.0284e-17
1.45859e-11
-2.38902e-10
-5.267e-19
1.81221e-11
-2.82946e-10
-1.18146e-16
2.2255e-11
-3.32399e-10
-9.72992e-17
2.70369e-11
-3.87599e-10
-6.58204e-17
3.25163e-11
-4.48908e-10
-9.51809e-17
3.87365e-11
-5.16565e-10
-7.85442e-17
4.57331e-11
-5.90913e-10
-5.61496e-17
5.35323e-11
-6.7213e-10
8.50678e-17
6.21462e-11
-7.60443e-10
1.02049e-16
7.15732e-11
-8.55982e-10
1.5947e-16
8.17923e-11
-9.58718e-10
1.4719e-16
9.27643e-11
-1.0688e-09
1.51059e-16
1.04425e-10
-1.18593e-09
1.48569e-16
1.16686e-10
-1.30999e-09
1.39065e-16
1.29432e-10
-1.44067e-09
1.20121e-16
1.42522e-10
-1.57744e-09
7.18096e-17
1.55783e-10
-1.71976e-09
3.22256e-17
1.69016e-10
-1.86685e-09
-1.67877e-17
1.81994e-10
-2.0179e-09
-4.96034e-17
1.94466e-10
-2.17177e-09
-1.02244e-16
2.06162e-10
-2.32732e-09
-1.54573e-16
-2.48311e-09
-2.23243e-16
1.39371e-16
-1.45294e-14
-4.62205e-18
2.94472e-15
-2.42135e-13
-4.96356e-18
1.46014e-14
-9.87192e-13
9.7277e-18
4.44636e-14
-2.49021e-12
1.81697e-17
1.0282e-13
-4.97426e-12
-1.89383e-16
2.11031e-13
-8.661e-12
3.78353e-16
3.83322e-13
-1.37777e-11
3.98283e-16
6.34775e-13
-2.0564e-11
-5.53636e-16
1.0092e-12
-2.92657e-11
4.06742e-16
1.53436e-12
-4.01539e-11
1.32789e-15
2.21032e-12
-5.34992e-11
-2.12694e-15
3.12413e-12
-6.95978e-11
6.05416e-16
4.29916e-12
-8.87638e-11
6.43819e-16
5.77159e-12
-1.11309e-10
-1.71077e-16
7.6067e-12
-1.37577e-10
3.85648e-16
9.85085e-12
-1.679e-10
3.81225e-16
1.25575e-11
-2.02632e-10
-1.43268e-16
1.57883e-11
-2.42132e-10
5.60811e-17
1.96014e-11
-2.86757e-10
2.63751e-16
2.4052e-11
-3.36847e-10
2.70208e-16
2.91951e-11
-3.9274e-10
2.59374e-16
3.50807e-11
-4.54792e-10
1.86731e-16
4.17531e-11
-5.23236e-10
1.54475e-16
4.92479e-11
-5.98407e-10
1.27569e-16
5.75905e-11
-6.80471e-10
2.25149e-16
6.67908e-11
-7.69641e-10
1.95735e-16
7.68438e-11
-8.66033e-10
2.41986e-16
8.7724e-11
-9.69596e-10
1.90994e-16
9.93858e-11
-1.08046e-09
1.93608e-16
1.11757e-10
-1.1983e-09
1.55158e-16
1.24741e-10
-1.32298e-09
1.58031e-16
1.38213e-10
-1.45414e-09
1.10231e-16
1.52017e-10
-1.59125e-09
8.85825e-17
1.65969e-10
-1.73371e-09
2.30847e-17
1.79857e-10
-1.88074e-09
8.05798e-18
1.9344e-10
-2.03149e-09
-5.73599e-17
2.06453e-10
-2.18479e-09
-7.19466e-17
2.18611e-10
-2.33948e-09
-1.52246e-16
-2.49412e-09
-1.66897e-16
1.56194e-16
-1.47146e-14
-4.02397e-18
3.21886e-15
-2.45181e-13
1.75062e-18
1.58374e-14
-9.99717e-13
1.07813e-17
4.79764e-14
-2.52218e-12
1.87625e-17
1.1161e-13
-5.03902e-12
-1.24487e-16
2.27795e-13
-8.77551e-12
2.0544e-16
4.13368e-13
-1.39621e-11
1.35388e-16
6.9088e-13
-2.08433e-11
-1.87222e-16
1.09602e-12
-2.96683e-11
3.21036e-16
1.66895e-12
-4.07132e-11
1.68909e-15
2.40426e-12
-5.42514e-11
-2.08226e-15
3.39677e-12
-7.0585e-11
6.59399e-16
4.66986e-12
-9.0033e-11
3.57957e-16
6.26584e-12
-1.12908e-10
-4.05773e-16
8.2538e-12
-1.39562e-10
4.00358e-16
1.06798e-11
-1.70326e-10
9.0852e-17
1.36037e-11
-2.05558e-10
-2.97293e-16
1.70892e-11
-2.45619e-10
-2.21276e-16
2.11989e-11
-2.90866e-10
1.81312e-17
2.599e-11
-3.41638e-10
2.39595e-17
3.152e-11
-3.98269e-10
1.30219e-16
3.784e-11
-4.61111e-10
1.11483e-16
4.49951e-11
-5.3039e-10
1.29949e-16
5.30208e-11
-6.06431e-10
1.19882e-16
6.19411e-11
-6.89389e-10
2.10794e-16
7.17636e-11
-7.79462e-10
1.96926e-16
8.24795e-11
-8.76747e-10
2.45699e-16
9.40577e-11
-9.81172e-10
2.11534e-16
1.06446e-10
-1.09285e-09
1.95801e-16
1.19564e-10
-1.21141e-09
1.70316e-16
1.33305e-10
-1.33672e-09
1.44898e-16
1.47532e-10
-1.46836e-09
1.21745e-16
1.62078e-10
-1.60579e-09
7.20547e-17
1.76746e-10
-1.74838e-09
4.33443e-17
1.91308e-10
-1.8953e-09
-5.36729e-18
2.05508e-10
-2.04569e-09
-3.18836e-17
2.19067e-10
-2.19835e-09
-8.72132e-17
2.31687e-10
-2.3521e-09
-1.1479e-16
2.43052e-10
-2.50549e-09
-1.61047e-16
-2.6563e-09
-2.0831e-16
1.65103e-16
-1.49185e-14
-4.36116e-18
3.50948e-15
-2.48542e-13
-5.99118e-19
1.73403e-14
-1.01336e-12
2.14607e-17
5.25092e-14
-2.55693e-12
4.6582e-17
1.22355e-13
-5.1095e-12
-6.22209e-17
2.48735e-13
-8.89979e-12
2.57306e-16
4.5073e-13
-1.41632e-11
1.04787e-16
7.51949e-13
-2.11468e-11
-2.32166e-16
1.19251e-12
-3.01053e-11
4.18806e-16
1.81368e-12
-4.13191e-11
1.8768e-15
2.61327e-12
-5.50678e-11
-2.07084e-15
3.69028e-12
-7.1655e-11
8.72419e-16
5.07077e-12
-9.14064e-11
7.25978e-16
6.80081e-12
-1.14638e-10
6.67865e-17
8.95297e-12
-1.41706e-10
8.84327e-16
1.15759e-11
-1.72945e-10
5.22605e-16
1.47342e-11
-2.08715e-10
1.64299e-16
1.84941e-11
-2.49377e-10
2.4915e-16
2.29231e-11
-2.95289e-10
6.20934e-16
2.80798e-11
-3.46789e-10
5.7753e-16
3.40244e-11
-4.04208e-10
5.67071e-16
4.08089e-11
-4.67892e-10
3.95096e-16
4.84793e-11
-5.38057e-10
3.21036e-16
5.70706e-11
-6.15021e-10
2.35258e-16
6.66052e-11
-6.98921e-10
2.85648e-16
7.70877e-11
-7.89942e-10
2.34222e-16
8.8505e-11
-8.88162e-10
2.84419e-16
1.0082e-10
-9.93485e-10
2.20924e-16
1.13973e-10
-1.106e-09
2.16105e-16
1.27874e-10
-1.22531e-09
1.5798e-16
1.42406e-10
-1.35125e-09
1.52279e-16
1.5742e-10
-1.48338e-09
9.89518e-17
1.72736e-10
-1.62111e-09
8.33369e-17
1.88142e-10
-1.76378e-09
2.40435e-17
2.03395e-10
-1.91055e-09
1.46255e-17
2.18224e-10
-2.06052e-09
-5.33577e-17
2.32335e-10
-2.21246e-09
-6.63138e-17
2.45414e-10
-2.36519e-09
-1.35492e-16
2.57133e-10
-2.51721e-09
-1.21677e-16
-2.66633e-09
-2.03131e-16
1.73046e-16
-1.51391e-14
-4.94323e-18
3.90737e-15
-2.52158e-13
1.42257e-17
1.87549e-14
-1.02829e-12
-1.50522e-17
5.68234e-14
-2.59495e-12
8.42043e-18
1.3321e-13
-5.18646e-12
-5.62949e-17
2.69864e-13
-9.03544e-12
1.18673e-16
4.8989e-13
-1.43818e-11
1.83366e-16
8.19188e-13
-2.14767e-11
-3.67555e-17
1.29707e-12
-3.05814e-11
2.3711e-16
1.97156e-12
-4.19788e-11
1.82946e-15
2.84236e-12
-5.59545e-11
-1.97836e-15
4.01148e-12
-7.28164e-11
9.53617e-16
5.50739e-12
-9.28965e-11
5.83603e-16
7.38211e-12
-1.16513e-10
-4.68678e-17
9.71098e-12
-1.44028e-10
7.56394e-16
1.25469e-11
-1.75778e-10
3.65008e-16
1.59576e-11
-2.12126e-10
-6.11761e-17
2.00129e-11
-2.53433e-10
-1.26147e-16
2.47842e-11
-3.00058e-10
2.72498e-16
3.03329e-11
-3.52335e-10
3.10635e-16
3.67217e-11
-4.10593e-10
5.06081e-16
4.40031e-11
-4.7517e-10
4.24926e-16
5.22239e-11
-5.46274e-10
4.10234e-16
6.14178e-11
-6.24212e-10
3.3084e-16
7.16053e-11
-7.09105e-10
3.47571e-16
8.27876e-11
-8.01122e-10
2.88056e-16
9.49468e-11
-9.00318e-10
3.08716e-16
1.08039e-10
-1.00658e-09
2.49024e-16
1.21996e-10
-1.11995e-09
2.10485e-16
1.36719e-10
-1.24003e-09
1.65637e-16
1.52077e-10
-1.3666e-09
1.23091e-16
1.6791e-10
-1.49921e-09
1.00661e-16
1.84023e-10
-1.63722e-09
5.14871e-17
2.00188e-10
-1.77995e-09
3.65139e-17
2.16149e-10
-1.92651e-09
-1.46458e-17
2.31617e-10
-2.07598e-09
-3.79606e-17
2.46281e-10
-2.22713e-09
-1.01676e-16
2.59816e-10
-2.37872e-09
-1.16565e-16
2.71876e-10
-2.52927e-09
-1.47376e-16
2.8212e-10
-2.67657e-09
-1.63175e-16
-2.82034e-09
-2.96638e-16
1.83649e-16
-1.53799e-14
-5.7881e-18
4.20405e-15
-2.56123e-13
7.57917e-18
2.03689e-14
-1.04452e-12
-1.29478e-17
6.19616e-14
-2.63623e-12
3.93919e-17
1.45384e-13
-5.27008e-12
-1.02627e-17
2.94252e-13
-9.18289e-12
1.67237e-16
5.3375e-13
-1.462e-11
1.61578e-16
8.91515e-13
-2.18365e-11
-1.90669e-16
1.41097e-12
-3.10993e-11
1.94469e-16
2.14339e-12
-4.26957e-11
1.9239e-15
3.09123e-12
-5.69174e-11
-1.87978e-15
4.35933e-12
-7.40769e-11
9.48367e-16
5.98085e-12
-9.45122e-11
5.88926e-16
8.01189e-12
-1.18544e-10
-3.89362e-18
1.05317e-11
-1.46541e-10
8.13056e-16
1.35976e-11
-1.7884e-10
5.06222e-16
1.72807e-11
-2.15808e-10
3.74061e-17
2.16543e-11
-2.57807e-10
-3.0296e-17
2.6794e-11
-3.05194e-10
4.0537e-16
3.27636e-11
-3.58301e-10
4.21057e-16
3.9628e-11
-4.17452e-10
6.07483e-16
4.74407e-11
-4.82979e-10
4.77779e-16
5.62486e-11
-5.55078e-10
4.52427e-16
6.60843e-11
-6.34044e-10
3.44199e-16
7.69656e-11
-7.19984e-10
3.55527e-16
8.88899e-11
-8.13044e-10
2.71271e-16
1.01833e-10
-9.13259e-10
3.03553e-16
1.15745e-10
-1.02048e-09
2.17096e-16
1.30547e-10
-1.13475e-09
2.00057e-16
1.4613e-10
-1.25562e-09
1.23711e-16
1.6235e-10
-1.38282e-09
1.10302e-16
1.79034e-10
-1.51589e-09
5.56937e-17
1.95971e-10
-1.65416e-09
4.96596e-17
2.12918e-10
-1.7969e-09
-1.41004e-18
2.296e-10
-1.9432e-09
-6.21973e-18
2.45714e-10
-2.0921e-09
-7.98813e-17
2.60933e-10
-2.24235e-09
-9.42664e-17
2.74914e-10
-2.3927e-09
-1.61545e-16
2.87302e-10
-2.54166e-09
-1.27e-16
2.9774e-10
-2.68701e-09
-1.99009e-16
-2.82848e-09
-2.54821e-16
2.41098e-16
-1.56406e-14
-3.33461e-18
4.62856e-15
-2.60415e-13
1.16721e-17
2.22592e-14
-1.06219e-12
-6.29728e-18
6.76952e-14
-2.68131e-12
4.0974e-17
1.58588e-13
-5.36144e-12
-4.24564e-17
3.20336e-13
-9.34382e-12
9.91853e-17
5.81451e-13
-1.48793e-11
2.29452e-16
9.71087e-13
-2.22276e-11
-1.27284e-16
1.53597e-12
-3.16617e-11
2.94069e-16
2.33122e-12
-4.34743e-11
2.0354e-15
3.36204e-12
-5.79634e-11
-1.87715e-15
4.73724e-12
-7.54453e-11
8.74133e-16
6.49535e-12
-9.62642e-11
6.03177e-16
8.69552e-12
-1.20745e-10
-2.27102e-17
1.14219e-11
-1.4926e-10
8.14688e-16
1.47363e-11
-1.8215e-10
5.36104e-16
1.87127e-11
-2.19784e-10
7.10653e-18
2.34296e-11
-2.62524e-10
-1.04955e-17
2.89652e-11
-3.10726e-10
4.18178e-16
3.53863e-11
-3.64719e-10
4.2786e-16
4.27601e-11
-4.2482e-10
6.52033e-16
5.11409e-11
-4.91356e-10
5.23633e-16
6.05753e-11
-5.64508e-10
4.92305e-16
7.10943e-11
-6.4456e-10
3.83397e-16
8.27127e-11
-7.31599e-10
3.66226e-16
9.54231e-11
-8.25752e-10
2.88543e-16
1.09195e-10
-9.27029e-10
2.91738e-16
1.2397e-10
-1.03526e-09
2.19217e-16
1.3966e-10
-1.15044e-09
1.67212e-16
1.56142e-10
-1.2721e-09
1.13629e-16
1.73261e-10
-1.39994e-09
5.88926e-17
1.90827e-10
-1.53346e-09
4.39778e-17
2.08614e-10
-1.67195e-09
-2.13437e-18
2.26363e-10
-1.81464e-09
-4.68283e-19
2.4378e-10
-1.96061e-09
-5.6231e-17
2.60545e-10
-2.10887e-09
-7.69787e-17
2.76316e-10
-2.25812e-09
-1.51669e-16
2.90734e-10
-2.40712e-09
-1.56325e-16
3.0343e-10
-2.55436e-09
-1.75819e-16
3.14036e-10
-2.69762e-09
-1.81601e-16
-2.83664e-09
-3.00524e-16
2.48667e-16
-1.59224e-14
-4.51053e-18
4.94579e-15
-2.65104e-13
2.28862e-18
2.40886e-14
-1.08144e-12
-1.28515e-17
7.38056e-14
-2.73033e-12
8.34614e-17
1.7296e-13
-5.46082e-12
-1.45016e-17
3.48949e-13
-9.51918e-12
7.24347e-17
6.33564e-13
-1.51622e-11
2.17253e-16
1.0575e-12
-2.26544e-11
-2.79694e-16
1.67181e-12
-3.22754e-11
8.61835e-17
2.53553e-12
-4.43226e-11
1.90463e-15
3.65668e-12
-5.91008e-11
-1.99211e-15
5.14932e-12
-7.6931e-11
8.70017e-16
7.05524e-12
-9.81652e-11
4.85739e-16
9.43842e-12
-1.2313e-10
-1.72301e-16
1.23881e-11
-1.52204e-10
6.83866e-16
1.59703e-11
-1.85729e-10
4.3683e-16
2.02632e-11
-2.24077e-10
-1.0396e-16
2.53498e-11
-2.67611e-10
-7.78189e-17
3.1311e-11
-3.16685e-10
2.63009e-16
3.82167e-11
-3.71622e-10
2.68412e-16
4.61364e-11
-4.32735e-10
5.4689e-16
5.51245e-11
-5.0034e-10
4.41771e-16
6.52273e-11
-5.74607e-10
4.5122e-16
7.64738e-11
-6.55804e-10
3.44333e-16
8.88749e-11
-7.43997e-10
3.47266e-16
1.02418e-10
-8.39293e-10
2.50272e-16
1.17066e-10
-9.41675e-10
2.72084e-16
1.32749e-10
-1.05094e-09
1.68375e-16
1.4937e-10
-1.16706e-09
1.43888e-16
1.66792e-10
-1.28952e-09
5.30031e-17
1.84846e-10
-1.418e-09
3.45641e-17
2.03327e-10
-1.55194e-09
-1.95943e-17
2.2199e-10
-1.69061e-09
-1.45673e-17
2.40558e-10
-1.83321e-09
-5.78311e-17
2.58722e-10
-1.97878e-09
-5.90887e-17
2.76141e-10
-2.12629e-09
-1.39999e-16
2.92457e-10
-2.27444e-09
-1.55222e-16
3.07298e-10
-2.42197e-09
-2.22215e-16
3.20279e-10
-2.56734e-09
-1.65434e-16
3.31023e-10
-2.70836e-09
-2.37558e-16
-2.84478e-09
-2.93658e-16
2.62534e-16
-1.62331e-14
-6.36771e-18
5.43942e-15
-2.70212e-13
7.08397e-18
2.63733e-14
-1.10243e-12
-7.88559e-18
8.06154e-14
-2.78389e-12
8.15607e-17
1.88858e-13
-5.56921e-12
-9.29596e-18
3.80259e-13
-9.71003e-12
8.16594e-17
6.91429e-13
-1.54693e-11
4.86824e-16
1.15293e-12
-2.31182e-11
-2.43778e-16
1.82104e-12
-3.2942e-11
1.96468e-16
2.75796e-12
-4.52445e-11
1.83476e-15
3.97698e-12
-6.03369e-11
-2.05645e-15
5.59604e-12
-7.85429e-11
9.17948e-16
7.66285e-12
-1.00226e-10
5.86773e-16
1.0245e-11
-1.25713e-10
-5.32197e-17
1.34365e-11
-1.55388e-10
7.69045e-16
1.73087e-11
-1.89597e-10
5.38964e-16
2.19429e-11
-2.28712e-10
-1.36172e-16
2.74278e-11
-2.73096e-10
-2.38631e-17
3.3847e-11
-3.231e-10
3.59286e-16
4.1273e-11
-3.79045e-10
3.69729e-16
4.97773e-11
-4.41233e-10
6.39304e-16
5.94147e-11
-5.09973e-10
5.23705e-16
7.02305e-11
-5.85418e-10
5.0182e-16
8.22511e-11
-6.67821e-10
3.93425e-16
9.54832e-11
-7.57226e-10
3.59221e-16
1.09908e-10
-8.53715e-10
2.71201e-16
1.25479e-10
-9.57245e-10
2.54048e-16
1.42119e-10
-1.06758e-09
1.67597e-16
1.59716e-10
-1.18466e-09
9.95605e-17
1.7812e-10
-1.30792e-09
3.7286e-17
1.97146e-10
-1.43702e-09
-3.09267e-17
2.16572e-10
-1.57137e-09
-3.80871e-17
2.36136e-10
-1.71017e-09
-8.30732e-17
2.5554e-10
-1.85262e-09
-6.53163e-17
2.74458e-10
-1.99769e-09
-1.28459e-16
2.92532e-10
-2.14436e-09
-1.46322e-16
3.09384e-10
-2.2913e-09
-2.31846e-16
3.24629e-10
-2.43721e-09
-2.24608e-16
3.37869e-10
-2.58059e-09
-2.32352e-16
3.48716e-10
-2.71921e-09
-2.27467e-16
-2.85286e-09
-3.68386e-16
2.65679e-16
-1.65651e-14
-7.9356e-18
5.80474e-15
-2.75768e-13
-1.09807e-18
2.84845e-14
-1.12521e-12
-1.33244e-17
8.78587e-14
-2.8421e-12
1.40994e-16
2.05895e-13
-5.68755e-12
-3.10679e-17
4.13946e-13
-9.91909e-12
-1.13092e-16
7.52736e-13
-1.58052e-11
3.40795e-16
1.25468e-12
-2.36253e-11
-5.46216e-16
1.98247e-12
-3.36641e-11
7.55892e-16
3.00322e-12
-4.62397e-11
3.11244e-15
4.32976e-12
-6.16807e-11
-2.09097e-15
6.08411e-12
-8.02948e-11
3.38803e-16
8.32645e-12
-1.02462e-10
6.88329e-16
1.11237e-11
-1.28512e-10
-1.9539e-16
1.45762e-11
-1.58836e-10
6.02475e-16
1.87613e-11
-1.93779e-10
4.14537e-16
2.37638e-11
-2.33717e-10
-2.9834e-16
2.96777e-11
-2.79011e-10
-1.69845e-16
3.65892e-11
-3.30011e-10
1.48195e-16
4.45739e-11
-3.87028e-10
1.51299e-16
5.37045e-11
-4.5036e-10
4.70537e-16
6.40362e-11
-5.20302e-10
3.79468e-16
7.56126e-11
-5.96991e-10
4.11852e-16
8.8457e-11
-6.80663e-10
3.13777e-16
1.02571e-10
-7.71337e-10
3.15921e-16
1.17928e-10
-8.69071e-10
2.13472e-16
1.34474e-10
-9.73789e-10
2.27158e-16
1.52119e-10
-1.08522e-09
1.06683e-16
1.70738e-10
-1.20327e-09
7.37419e-17
1.90167e-10
-1.32735e-09
-3.40294e-17
2.10202e-10
-1.45706e-09
-5.81633e-17
2.30603e-10
-1.59177e-09
-1.14897e-16
2.5109e-10
-1.73066e-09
-1.00499e-16
2.71346e-10
-1.87288e-09
-1.39307e-16
2.91024e-10
-2.01737e-09
-1.3809e-16
3.09748e-10
-2.16309e-09
-2.27291e-16
3.27124e-10
-2.30868e-09
-2.41018e-16
3.4275e-10
-2.45284e-09
-3.07037e-16
3.56217e-10
-2.59406e-09
-2.26644e-16
3.67127e-10
-2.73012e-09
-3.01997e-16
-2.86084e-09
-3.71321e-16
3.12227e-16
-1.69334e-14
-7.92812e-18
6.52066e-15
-2.81879e-13
1.04545e-17
3.12793e-14
-1.1502e-12
-2.74204e-17
9.56022e-14
-2.90608e-12
3.83153e-17
2.25099e-13
-5.8163e-12
1.02432e-16
4.52982e-13
-1.01458e-11
1.5791e-16
8.20637e-13
-1.61702e-11
3.27499e-16
1.37882e-12
-2.41745e-11
1.14396e-15
2.16133e-12
-3.44579e-11
-1.48476e-15
3.25056e-12
-4.7337e-11
-9.29e-16
4.71271e-12
-6.31384e-11
4.4629e-16
6.61543e-12
-8.2196e-11
1.81483e-16
9.04666e-12
-1.04885e-10
8.65947e-16
1.20783e-11
-1.31544e-10
-5.04995e-17
1.58138e-11
-1.62566e-10
5.64429e-16
2.03378e-11
-1.983e-10
4.41707e-16
2.57384e-11
-2.39121e-10
-4.02837e-16
3.21147e-11
-2.85389e-10
-2.105e-16
3.95563e-11
-3.37451e-10
1.53171e-16
4.81409e-11
-3.95612e-10
1.66634e-16
5.79427e-11
-4.60158e-10
4.61579e-16
6.90164e-11
-5.31373e-10
3.76351e-16
8.1404e-11
-6.09376e-10
3.9279e-16
9.51248e-11
-6.94381e-10
3.16428e-16
1.10174e-10
-7.86384e-10
2.86224e-16
1.26518e-10
-8.85413e-10
2.10033e-16
1.44092e-10
-9.91361e-10
1.86392e-16
1.62792e-10
-1.10392e-09
9.67133e-17
1.8248e-10
-1.22296e-09
1.52573e-17
2.02975e-10
-1.34785e-09
-5.35786e-17
2.24056e-10
-1.47814e-09
-1.35504e-16
2.45462e-10
-1.61318e-09
-1.3565e-16
2.66894e-10
-1.75209e-09
-1.82719e-16
2.88014e-10
-1.894e-09
-1.50588e-16
3.08455e-10
-2.03782e-09
-2.23462e-16
3.27822e-10
-2.18246e-09
-2.37359e-16
3.45704e-10
-2.32656e-09
-3.32899e-16
3.61684e-10
-2.46882e-09
-3.11392e-16
3.7534e-10
-2.60772e-09
-3.08598e-16
3.86268e-10
-2.74105e-09
-2.96061e-16
-2.86865e-09
-4.67214e-16
3.11234e-16
-1.73218e-14
-9.46577e-18
6.93251e-15
-2.8846e-13
7.63838e-18
3.37121e-14
-1.17727e-12
-3.43001e-17
1.03903e-13
-2.97555e-12
8.05525e-17
2.44854e-13
-5.9567e-12
7.9616e-17
4.93065e-13
-1.0394e-11
-7.86079e-19
8.93653e-13
-1.65693e-11
1.76885e-16
1.50047e-12
-2.47758e-11
7.80496e-16
2.3543e-12
-3.53187e-11
-9.33916e-16
3.54112e-12
-4.85239e-11
4.50181e-17
5.1322e-12
-6.4723e-11
7.23082e-16
7.19777e-12
-8.42609e-11
8.18075e-17
9.83388e-12
-1.07516e-10
6.92412e-16
1.31189e-11
-1.34831e-10
-2.11764e-16
1.71608e-11
-1.66605e-10
3.53172e-16
2.20509e-11
-2.03188e-10
2.90371e-16
2.78814e-11
-2.44956e-10
-5.66507e-16
3.47564e-11
-2.92268e-10
-3.82974e-16
4.27682e-11
-3.45463e-10
-9.96558e-17
5.1997e-11
-4.04841e-10
-9.34467e-17
6.2518e-11
-4.70677e-10
2.50199e-16
7.43852e-11
-5.43239e-10
1.81797e-16
8.76378e-11
-6.22626e-10
2.60452e-16
1.02291e-10
-7.09032e-10
1.95086e-16
1.18332e-10
-8.02424e-10
2.1207e-16
1.35719e-10
-9.02799e-10
1.23336e-16
1.54375e-10
-1.01002e-09
1.44619e-16
1.74183e-10
-1.12373e-09
1.88653e-17
1.94989e-10
-1.24377e-09
-1.6261e-17
2.16593e-10
-1.36945e-09
-1.3805e-16
2.38755e-10
-1.50031e-09
-1.64328e-16
2.61195e-10
-1.63562e-09
-2.24738e-16
2.8359e-10
-1.77449e-09
-2.01349e-16
3.05583e-10
-1.91599e-09
-2.38634e-16
3.26786e-10
-2.05902e-09
-2.34554e-16
3.46784e-10
-2.20246e-09
-3.32318e-16
3.6515e-10
-2.34493e-09
-3.41808e-16
3.81451e-10
-2.48513e-09
-4.06391e-16
3.95255e-10
-2.62153e-09
-3.02598e-16
4.0615e-10
-2.75195e-09
-3.85271e-16
-2.87625e-09
-4.75265e-16
2.79477e-16
-1.77529e-14
-1.72724e-17
7.85342e-15
-2.9603e-13
-4.6385e-19
3.69547e-14
-1.20658e-12
-3.21204e-17
1.15213e-13
-3.05268e-12
1.43688e-16
2.68556e-13
-6.10961e-12
5.2472e-17
5.40216e-13
-1.06662e-11
-3.07854e-17
9.77551e-13
-1.70028e-11
4.68261e-16
1.63938e-12
-2.54301e-11
9.99508e-16
2.56815e-12
-3.62548e-11
-9.7905e-16
3.85876e-12
-4.9815e-11
-3.69624e-17
5.58755e-12
-6.64463e-11
6.26904e-16
7.83034e-12
-8.65032e-11
9.91778e-17
1.06899e-11
-1.10369e-10
6.76079e-16
1.42506e-11
-1.38394e-10
-1.3651e-16
1.86255e-11
-1.70977e-10
3.73257e-16
2.39124e-11
-2.08472e-10
3.71251e-16
3.0208e-11
-2.51256e-10
-4.8754e-16
3.7621e-11
-2.99683e-10
-2.17892e-16
4.62469e-11
-3.54088e-10
9.56723e-17
5.61679e-11
-4.14762e-10
1.01756e-16
6.74597e-11
-4.81965e-10
3.91425e-16
8.01751e-11
-5.55952e-10
3.15828e-16
9.435e-11
-6.36798e-10
3.4785e-16
1.09994e-10
-7.24674e-10
2.80647e-16
1.27087e-10
-8.19515e-10
2.24955e-16
1.45576e-10
-9.21287e-10
1.46306e-16
1.65371e-10
-1.02981e-09
1.06096e-16
1.8634e-10
-1.1447e-09
1.17464e-17
2.08313e-10
-1.26574e-09
-8.59031e-17
2.31069e-10
-1.39221e-09
-1.59472e-16
2.54348e-10
-1.52359e-09
-2.53872e-16
2.77847e-10
-1.65912e-09
-2.4549e-16
3.01223e-10
-1.79787e-09
-2.95936e-16
3.24095e-10
-1.93887e-09
-2.49281e-16
3.46055e-10
-2.08098e-09
-3.32432e-16
3.66667e-10
-2.22308e-09
-3.39982e-16
3.85488e-10
-2.36376e-09
-4.44613e-16
4.02072e-10
-2.50172e-09
-4.06561e-16
4.15976e-10
-2.63544e-09
-3.95281e-16
4.26782e-10
-2.76275e-09
-3.76962e-16
-2.88357e-09
-5.84729e-16
4.26107e-16
-1.82269e-14
-1.34057e-17
8.45645e-15
-3.04139e-13
-9.44979e-19
3.99922e-14
-1.2382e-12
4.09069e-18
1.23745e-13
-3.13565e-12
6.36238e-17
2.90258e-13
-6.27586e-12
4.31033e-17
5.87169e-13
-1.0963e-11
6.10355e-17
1.06253e-12
-1.74773e-11
1.19055e-16
1.78448e-12
-2.61473e-11
6.75715e-16
2.7971e-12
-3.72769e-11
-1.20191e-15
4.20558e-12
-5.12228e-11
1.3035e-16
6.08503e-12
-6.83236e-11
2.40274e-16
8.52073e-12
-8.89425e-11
-4.66117e-16
1.16256e-11
-1.13468e-10
7.51689e-16
1.54857e-11
-1.42256e-10
-2.73759e-16
2.02216e-11
-1.75711e-10
2.18269e-16
2.59381e-11
-2.14187e-10
2.61824e-16
3.27361e-11
-2.58059e-10
-6.2606e-16
4.07298e-11
-3.07679e-10
-3.43025e-16
5.00168e-11
-3.63376e-10
-1.02465e-16
6.06813e-11
-4.25427e-10
-1.3254e-16
7.27992e-11
-4.94081e-10
1.87626e-16
8.64214e-11
-5.69574e-10
1.00937e-16
1.0158e-10
-6.51955e-10
1.83454e-16
1.18277e-10
-7.4137e-10
1.13887e-16
1.36484e-10
-8.37721e-10
1.13529e-16
1.56136e-10
-9.40939e-10
1.97712e-17
1.7713e-10
-1.05081e-09
3.83767e-17
1.99316e-10
-1.16688e-09
-9.52545e-17
2.22505e-10
-1.28893e-09
-1.31194e-16
2.46456e-10
-1.41616e-09
-2.63999e-16
2.70885e-10
-1.54802e-09
-2.86429e-16
2.95468e-10
-1.68371e-09
-3.4842e-16
3.19838e-10
-1.82224e-09
-3.13078e-16
3.43591e-10
-1.96262e-09
-3.4903e-16
3.66297e-10
-2.10369e-09
-3.39196e-16
3.87502e-10
-2.24428e-09
-4.44401e-16
4.06744e-10
-2.38301e-09
-4.46474e-16
4.23567e-10
-2.51854e-09
-5.09115e-16
4.37516e-10
-2.64939e-09
-3.81716e-16
4.48169e-10
-2.77341e-09
-4.73969e-16
-2.89054e-09
-5.87107e-16
5.13822e-16
-1.87558e-14
5.68761e-17
9.93585e-15
-3.1254e-13
8.16435e-17
4.45295e-14
-1.27443e-12
-3.57013e-16
1.38172e-13
-3.22851e-12
3.49379e-16
3.20998e-13
-6.45762e-12
3.36874e-17
6.45837e-13
-1.12896e-11
-3.05803e-16
1.16866e-12
-1.79921e-11
9.93187e-16
1.95649e-12
-2.6927e-11
1.14549e-15
3.05804e-12
-3.83891e-11
-1.44541e-15
4.58927e-12
-5.27546e-11
-3.67628e-17
6.63331e-12
-7.03637e-11
4.17139e-16
9.27912e-12
-9.15918e-11
-3.89822e-16
1.26481e-11
-1.16831e-10
6.76229e-16
1.68333e-11
-1.46444e-10
-2.73532e-16
2.1961e-11
-1.80838e-10
9.7625e-17
2.8143e-11
-2.20368e-10
2.15253e-16
3.54846e-11
-2.65407e-10
-7.58359e-16
4.4105e-11
-3.16303e-10
-3.9685e-16
5.41042e-11
-3.73376e-10
-1.35898e-16
6.55677e-11
-4.36892e-10
-1.54018e-16
7.85712e-11
-5.07083e-10
1.48152e-16
9.31628e-11
-5.84165e-10
9.40968e-17
1.09369e-10
-6.6816e-10
1.46729e-16
1.27186e-10
-7.59186e-10
1.14197e-16
1.46573e-10
-8.57108e-10
6.42574e-17
1.67453e-10
-9.61819e-10
9.44778e-18
1.89706e-10
-1.07306e-09
-3.34442e-17
2.13165e-10
-1.19034e-09
-1.18751e-16
2.3762e-10
-1.31339e-09
-2.24074e-16
2.62807e-10
-1.44135e-09
-2.91848e-16
2.8842e-10
-1.57364e-09
-3.91384e-16
3.14108e-10
-1.7094e-09
-3.67558e-16
3.39482e-10
-1.84762e-09
-4.18569e-16
3.64113e-10
-1.98726e-09
-3.53632e-16
3.8755e-10
-2.12713e-09
-4.45241e-16
4.0932e-10
-2.26606e-09
-4.4236e-16
4.28944e-10
-2.40264e-09
-5.54735e-16
4.45953e-10
-2.53556e-09
-4.97231e-16
4.59886e-10
-2.66333e-09
-4.78392e-16
4.70317e-10
-2.78384e-09
-4.53193e-16
-2.89708e-09
-6.99562e-16
7.71046e-16
-1.93123e-14
7.00645e-17
1.12244e-14
-3.21678e-13
4.70846e-17
4.88419e-14
-1.31347e-12
-5.1403e-16
1.47513e-13
-3.32764e-12
3.48953e-16
3.45985e-13
-6.65749e-12
-1.13085e-16
6.98552e-13
-1.1646e-11
-5.97665e-16
1.26692e-12
-1.85533e-11
9.86498e-16
2.12888e-12
-2.77777e-11
1.47464e-15
3.33136e-12
-3.96044e-11
-1.57174e-15
5.00213e-12
-5.44259e-11
-8.39746e-17
7.22763e-12
-7.25865e-11
3.431e-16
1.01062e-11
-9.44738e-11
-4.44268e-16
1.37645e-11
-1.20485e-10
5.13978e-16
1.83046e-11
-1.50988e-10
-4.23457e-16
2.38585e-11
-1.86393e-10
-9.01411e-17
3.05457e-11
-2.27054e-10
9.94278e-17
3.84757e-11
-2.73345e-10
-8.92214e-16
4.77729e-11
-3.25604e-10
-5.41299e-16
5.85393e-11
-3.84145e-10
-3.43908e-16
7.08616e-11
-4.49218e-10
-4.29323e-16
8.48144e-11
-5.21037e-10
-9.3094e-17
1.00442e-10
-5.99794e-10
-1.61308e-16
1.17766e-10
-6.85484e-10
-5.40869e-17
1.36771e-10
-7.78192e-10
-9.30982e-17
1.57407e-10
-8.77745e-10
-7.2667e-17
1.79582e-10
-9.83995e-10
-1.47693e-16
2.03158e-10
-1.09664e-09
-1.19634e-16
2.27947e-10
-1.21513e-09
-2.52629e-16
2.53717e-10
-1.33916e-09
-2.80224e-16
2.80182e-10
-1.46782e-09
-4.15845e-16
3.07007e-10
-1.60047e-09
-4.24294e-16
3.3382e-10
-1.73622e-09
-4.82169e-16
3.60203e-10
-1.87401e-09
-4.28487e-16
3.85704e-10
-2.01276e-09
-4.60559e-16
4.09851e-10
-2.15128e-09
-4.40099e-16
4.32151e-10
-2.28836e-09
-5.5041e-16
4.52109e-10
-2.4226e-09
-5.41256e-16
4.69246e-10
-2.5527e-09
-6.0064e-16
4.83094e-10
-2.67718e-09
-4.47609e-16
4.93226e-10
-2.79397e-09
-5.48653e-16
-2.90312e-09
-6.83163e-16
4.19759e-16
-1.99515e-14
-2.00658e-17
1.10725e-14
-3.31942e-13
1.2573e-16
5.26559e-14
-1.35656e-12
4.68201e-16
1.64028e-13
-3.43567e-12
-2.87491e-16
3.90413e-13
-6.87915e-12
-1.85787e-16
7.74006e-13
-1.20284e-11
1.14627e-15
1.4015e-12
-1.91783e-11
-2.25162e-16
2.32258e-12
-2.87066e-11
-6.63309e-16
3.65252e-12
-4.09298e-11
3.11665e-16
5.46667e-12
-5.62445e-11
-4.21717e-16
7.88877e-12
-7.50053e-11
3.33759e-16
1.10175e-11
-9.76068e-11
-4.57235e-16
1.49897e-11
-1.24454e-10
4.2851e-16
1.99148e-11
-1.55917e-10
-3.94623e-16
2.59312e-11
-1.9241e-10
-1.35559e-16
3.31657e-11
-2.34288e-10
1.36867e-16
4.17327e-11
-2.81918e-10
-8.10541e-16
5.17608e-11
-3.35635e-10
-3.41182e-16
6.33543e-11
-3.95739e-10
-7.8128e-17
7.65997e-11
-4.62465e-10
-1.33972e-16
9.15702e-11
-5.36005e-10
1.53294e-16
1.08306e-10
-6.1653e-10
7.33178e-17
1.26819e-10
-7.03997e-10
6.4275e-17
1.47088e-10
-7.9846e-10
1.34635e-17
1.69045e-10
-8.99703e-10
-6.62891e-17
1.92584e-10
-1.00753e-09
-1.20484e-16
2.17547e-10
-1.1216e-09
-1.85655e-16
2.43724e-10
-1.24131e-09
-2.68845e-16
2.7086e-10
-1.3663e-09
-3.83948e-16
2.98641e-10
-1.4956e-09
-4.39984e-16
3.26707e-10
-1.62854e-09
-5.38731e-16
3.54658e-10
-1.76417e-09
-4.91787e-16
3.82051e-10
-1.9014e-09
-5.39221e-16
4.08409e-10
-2.03912e-09
-4.50601e-16
4.33237e-10
-2.17611e-09
-5.48094e-16
4.56024e-10
-2.31116e-09
-5.29926e-16
4.76262e-10
-2.44285e-09
-6.48364e-16
4.9346e-10
-2.5699e-09
-5.6749e-16
5.07146e-10
-2.69088e-09
-5.4009e-16
5.16894e-10
-2.80372e-09
-5.04083e-16
-2.90855e-09
-7.87387e-16
4.98202e-16
-2.05976e-14
-1.54865e-17
1.23578e-14
-3.43085e-13
9.40491e-17
5.72532e-14
-1.40294e-12
2.68176e-16
1.75666e-13
-3.55185e-12
-2.48819e-16
4.21269e-13
-7.12235e-12
-3.23831e-16
8.3768e-13
-1.24464e-11
7.27805e-16
1.52127e-12
-1.98582e-11
2.81492e-17
2.53081e-12
-2.97203e-11
-3.02627e-16
3.98204e-12
-4.23786e-11
2.00926e-16
5.96497e-12
-5.82306e-11
-3.21107e-16
8.6041e-12
-7.76435e-11
9.8212e-17
1.20098e-11
-1.01019e-10
-8.51205e-16
1.63283e-11
-1.28768e-10
4.82363e-16
2.16753e-11
-1.61268e-10
-4.39459e-16
2.81957e-11
-1.98933e-10
-2.17744e-16
3.60254e-11
-2.42116e-10
1.41016e-16
4.52825e-11
-2.91183e-10
-8.2934e-16
5.61007e-11
-3.46456e-10
-3.67872e-16
6.85855e-11
-4.08226e-10
-1.77451e-16
8.28235e-11
-4.76706e-10
-3.31395e-16
9.8885e-11
-5.52067e-10
-2.33194e-17
1.16804e-10
-6.34451e-10
-1.56083e-16
1.36586e-10
-7.23779e-10
-1.21404e-16
1.58194e-10
-8.2007e-10
-1.99483e-16
1.81549e-10
-9.2306e-10
-2.04078e-16
2.06524e-10
-1.03251e-09
-2.92551e-16
2.3294e-10
-1.14802e-09
-2.75473e-16
2.60564e-10
-1.26894e-09
-4.19094e-16
2.89113e-10
-1.39485e-09
-4.39534e-16
3.18248e-10
-1.52474e-09
-5.75372e-16
3.47579e-10
-1.65788e-09
-5.61714e-16
3.76679e-10
-1.79328e-09
-6.10557e-16
4.05076e-10
-1.9298e-09
-5.31874e-16
4.32271e-10
-2.06632e-09
-5.5743e-16
4.57745e-10
-2.20159e-09
-5.21689e-16
4.80969e-10
-2.33439e-09
-6.34973e-16
5.01422e-10
-2.46331e-09
-6.10685e-16
5.18606e-10
-2.58709e-09
-6.64794e-16
5.32045e-10
-2.70432e-09
-4.82339e-16
5.41317e-10
-2.813e-09
-5.89155e-16
-2.91329e-09
-7.40452e-16
6.08749e-16
-2.13547e-14
-2.24114e-17
1.38254e-14
-3.55546e-13
9.5279e-17
6.3873e-14
-1.45472e-12
2.69393e-16
1.97711e-13
-3.68304e-12
-1.68886e-16
4.66666e-13
-7.38764e-12
-1.7782e-16
9.29822e-13
-1.2911e-11
7.48896e-16
1.67629e-12
-2.06004e-11
4.51802e-17
2.78472e-12
-3.08322e-11
-1.39258e-16
4.36632e-12
-4.3959e-11
-1.63757e-17
6.52965e-12
-6.03984e-11
-4.89332e-16
9.40336e-12
-8.05155e-11
1.83968e-16
1.31102e-11
-1.04732e-10
-6.76242e-16
1.78023e-11
-1.33457e-10
3.65271e-16
2.36072e-11
-1.67076e-10
-3.4302e-16
3.06748e-11
-2.06004e-10
-3.58948e-16
3.91497e-11
-2.50591e-10
1.07561e-16
4.91545e-11
-3.01195e-10
-9.12459e-16
6.08263e-11
-3.58132e-10
-4.28027e-16
7.42721e-11
-4.21673e-10