/*--------------------------------*- C++ -*----------------------------------*\
| =========                 |                                                 |
| \\      /  F ield         | OpenFOAM: The Open Source CFD Toolbox           |
|  \\    /   O peration     | Version:  v2012                                 |
|   \\  /    A nd           | Website:  www.openfoam.com                      |
|    \\/     M anipulation  |                                                 |
\*---------------------------------------------------------------------------*/
FoamFile
{
    version     2.0;
    format      ascii;
    class       volScalarField;
    location    "0.25";
    object      alpha.water;
}
// * * * * * * * * * * * * * * * * * * * * * * * * * * * * * * * * * * * * * //

dimensions      [0 0 0 0 0 0 0];


internalField   nonuniform List<scalar> 
2619
(
-4.3272e-63
-7.82017e-64
-1.12193e-64
-7.36919e-66
-2.29093e-67
-4.84325e-69
-9.02487e-72
1.00308e-74
3.8116e-73
5.06631e-72
4.22385e-71
2.14459e-70
7.25715e-70
1.98036e-69
3.34391e-69
4.17271e-69
-5.84718e-62
-5.42985e-62
-8.32379e-63
-1.06352e-63
-5.15996e-65
-1.20415e-66
-1.42419e-68
4.7309e-89
7.48284e-70
1.27685e-68
1.61884e-67
1.38366e-66
7.57476e-66
2.68529e-65
6.85679e-65
1.12487e-64
1.67146e-64
1.02201e-65
-8.63878e-61
-6.40487e-61
-7.93168e-62
-7.97995e-63
-3.12497e-64
-4.37388e-66
2.38131e-83
7.30261e-68
2.76471e-66
4.9804e-65
6.22798e-64
5.3879e-63
2.92537e-62
1.0159e-61
2.57047e-61
4.19004e-61
6.26265e-61
4.56659e-61
1.90904e-62
-1.09069e-59
-6.4641e-60
-6.56408e-61
-4.91512e-62
-1.31535e-63
9.46712e-85
5.06141e-66
2.70279e-64
1.0893e-62
1.88407e-61
2.31802e-60
1.98743e-59
1.07399e-58
3.70622e-58
9.33054e-58
1.5135e-57
2.25747e-57
1.66454e-57
7.67223e-58
-1.14465e-58
-5.58635e-59
-4.49607e-60
-2.3182e-61
-1.15531e-63
4.17802e-65
1.8322e-62
1.02526e-60
4.03905e-59
7.04694e-58
8.51005e-57
7.08559e-56
3.80258e-55
1.29788e-54
3.25841e-54
5.2612e-54
7.86436e-54
5.83976e-54
2.69862e-54
-9.7367e-58
-3.97897e-58
-2.41353e-59
-6.36316e-61
2.32604e-81
2.93763e-61
7.02588e-59
3.83491e-57
1.48314e-55
2.49771e-54
2.96325e-53
2.46311e-52
1.31079e-51
4.41508e-51
1.10416e-50
1.78177e-50
2.67153e-50
1.98781e-50
9.19737e-51
-6.51691e-57
-2.34152e-57
-9.63948e-59
1.02193e-78
3.299e-61
1.12273e-57
2.54085e-55
1.34191e-53
5.08481e-52
8.46469e-51
9.98238e-50
8.23961e-49
4.35747e-48
1.44921e-47
3.62873e-47
5.90397e-47
8.89367e-47
6.63434e-47
3.06814e-47
-3.07391e-56
-1.049e-56
-1.91147e-58
2.58815e-76
1.15811e-57
3.68537e-54
8.86911e-52
4.63552e-50
1.70409e-48
2.84466e-47
3.29751e-46
2.67303e-45
1.39444e-44
4.61151e-44
1.15204e-43
1.89269e-43
2.87353e-43
2.159e-43
9.18137e-44
-8.06733e-56
-3.1483e-56
-2.06264e-73
2.12348e-57
4.00502e-54
1.32234e-50
2.98344e-48
1.52875e-46
5.56308e-45
8.77801e-44
1.00305e-42
8.0903e-42
4.23856e-41
1.46775e-40
3.94491e-40
6.42399e-40
9.76649e-40
7.36421e-40
4.79949e-40
2.45287e-58
-1.28787e-56
1.1835e-71
7.45359e-54
1.31427e-50
4.21079e-47
9.57467e-45
4.83004e-43
1.66742e-41
3.02129e-40
3.35518e-39
2.60131e-38
1.3066e-37
4.18914e-37
1.04947e-36
1.72674e-36
2.63744e-36
1.98301e-36
1.66499e-36
2.90456e-52
8.3376e-58
2.27819e-54
2.46491e-50
4.08387e-47
1.36519e-43
2.90484e-41
1.54256e-39
5.1235e-38
7.59428e-37
8.49377e-36
6.39135e-35
2.44346e-34
4.06984e-34
1.01504e-33
1.7839e-33
2.82657e-33
2.15256e-33
8.3702e-34
2.27107e-49
3.49567e-54
7.74415e-51
7.67146e-47
1.19818e-43
5.1e-40
8.79455e-38
4.04905e-36
1.2086e-34
6.89589e-34
8.96491e-33
6.99061e-32
3.34939e-31
1.24848e-30
4.36114e-30
9.10282e-30
1.70418e-29
1.39186e-29
7.05933e-30
5.87442e-31
2.09898e-32
4.31461e-40
-1.06145e-39
7.30015e-48
8.06245e-51
2.46811e-47
2.24504e-43
3.34214e-40
1.14665e-36
1.67308e-34
4.21152e-33
1.34723e-31
2.53314e-30
6.78286e-29
1.16757e-27
9.99507e-27
8.12135e-26
4.22748e-25
9.44359e-25
1.77524e-24
1.47958e-24
7.70724e-25
2.18001e-25
1.39655e-26
9.60745e-28
1.36574e-29
2.53591e-47
2.52292e-47
7.36369e-44
6.16973e-40
8.85743e-37
1.19479e-33
2.15273e-31
2.39932e-29
2.79501e-27
2.00309e-25
5.52718e-24
5.10052e-23
2.52041e-22
7.62808e-22
1.67413e-21
2.62302e-21
3.5472e-21
3.20755e-21
2.26612e-21
1.11611e-21
3.31854e-22
4.64286e-23
1.86076e-24
3.81692e-47
3.88328e-44
2.05381e-40
1.58985e-36
2.20141e-33
6.4268e-30
6.09535e-27
2.27524e-24
9.57695e-23
1.17124e-21
7.08385e-21
2.64135e-20
6.90421e-20
1.35344e-19
2.17026e-19
2.83703e-19
3.33467e-19
3.12786e-19
2.51318e-19
1.61447e-19
7.61752e-20
2.30323e-20
3.535e-21
3.92681e-44
1.13158e-40
5.34889e-37
3.34589e-33
1.06143e-28
8.26843e-25
1.73388e-22
4.34486e-21
3.83889e-20
1.79017e-19
5.42924e-19
1.20372e-18
2.11689e-18
3.10708e-18
4.02587e-18
4.64054e-18
4.97067e-18
4.77129e-18
4.17856e-18
3.21545e-18
2.06574e-18
1.01495e-18
3.26583e-19
5.95317e-41
1.60731e-37
6.87352e-34
4.45196e-30
1.52429e-23
2.72211e-21
5.58496e-20
4.03328e-19
1.52409e-18
3.79383e-18
7.14298e-18
1.1032e-17
1.47939e-17
1.78758e-17
2.01333e-17
2.13438e-17
2.16253e-17
2.09659e-17
1.9329e-17
1.66742e-17
1.30941e-17
8.89027e-18
4.73813e-18
1.60731e-37
4.02344e-34
1.55121e-30
4.59855e-23
1.54672e-20
3.11895e-19
1.94086e-18
6.18238e-18
1.3025e-17
2.12181e-17
2.92639e-17
3.60077e-17
4.09849e-17
4.41843e-17
4.59298e-17
4.63503e-17
4.56992e-17
4.41947e-17
4.16997e-17
3.81638e-17
3.34572e-17
2.73763e-17
1.98431e-17
4.02334e-34
9.32351e-31
9.90977e-24
3.90461e-20
9.57734e-19
5.54652e-18
1.54857e-17
2.87261e-17
4.19289e-17
5.30972e-17
6.14041e-17
6.67941e-17
6.97954e-17
7.0989e-17
7.08162e-17
6.96358e-17
6.757e-17
6.47798e-17
6.13805e-17
5.73972e-17
5.27365e-17
4.71026e-17
3.99251e-17
9.32351e-31
1.99733e-27
4.78839e-20
1.88003e-18
1.12525e-17
2.90355e-17
4.92237e-17
6.67392e-17
7.98961e-17
8.8888e-17
9.41065e-17
9.6398e-17
9.67189e-17
9.56446e-17
9.34708e-17
9.03116e-17
8.63759e-17
8.18913e-17
7.70669e-17
7.20542e-17
6.69165e-17
6.15622e-17
5.56134e-17
1.99733e-27
2.1544e-20
2.60942e-18
1.82463e-17
4.61384e-17
7.41926e-17
9.60853e-17
1.11408e-16
1.21425e-16
1.2709e-16
1.29066e-16
1.28683e-16
1.26844e-16
1.23512e-16
1.18834e-16
1.13054e-16
1.06502e-16
9.95119e-17
9.23765e-17
8.53314e-17
7.8563e-17
7.21891e-17
6.61446e-17
1.30775e-20
2.41124e-18
2.53771e-17
6.66722e-17
1.05155e-16
1.32993e-16
1.51909e-16
1.64459e-16
1.72009e-16
1.7496e-16
1.74526e-16
1.72353e-16
1.67976e-16
1.61488e-16
1.53172e-16
1.4348e-16
1.3294e-16
1.22079e-16
1.11332e-16
1.00994e-16
9.12812e-17
8.24209e-17
7.46185e-17
2.33028e-18
2.96303e-17
9.01787e-17
1.43595e-16
1.80925e-16
2.06004e-16
2.23509e-16
2.3502e-16
2.40704e-16
2.41227e-16
2.39216e-16
2.34216e-16
2.25928e-16
2.14659e-16
2.01007e-16
1.85681e-16
1.69411e-16
1.52931e-16
1.36902e-16
1.21782e-16
1.07793e-16
9.50911e-17
8.39819e-17
3.50205e-17
1.13026e-16
1.89271e-16
2.41371e-16
2.77312e-16
3.03136e-16
3.21597e-16
3.32263e-16
3.35201e-16
3.3377e-16
3.28642e-16
3.18775e-16
3.043e-16
2.86036e-16
2.64963e-16
2.42067e-16
2.18231e-16
1.94284e-16
1.71071e-16
1.49343e-16
1.29539e-16
1.11761e-16
9.61437e-17
1.4387e-16
2.39445e-16
3.14768e-16
3.68768e-16
4.09123e-16
4.39029e-16
4.58564e-16
4.6664e-16
4.66302e-16
4.61814e-16
4.50659e-16
4.32705e-16
4.08849e-16
3.80427e-16
3.48847e-16
3.15505e-16
2.81598e-16
2.4804e-16
2.15627e-16
1.85214e-16
1.5759e-16
1.33121e-16
1.11827e-16
3.09177e-16
4.02068e-16
4.8627e-16
5.52122e-16
6.01592e-16
6.36156e-16
6.54556e-16
6.57809e-16
6.53865e-16
6.41454e-16
6.19288e-16
5.88239e-16
5.50069e-16
5.06668e-16
4.59822e-16
4.1138e-16
3.63146e-16
3.16502e-16
2.72245e-16
2.30932e-16
1.93289e-16
1.60026e-16
1.31393e-16
5.23805e-16
6.36173e-16
7.45295e-16
8.29079e-16
8.88739e-16
9.25627e-16
9.39246e-16
9.37229e-16
9.24713e-16
8.9725e-16
8.56085e-16
8.0385e-16
7.43352e-16
6.77297e-16
6.0809e-16
5.37943e-16
4.69112e-16
4.03719e-16
3.43134e-16
2.87758e-16
2.37716e-16
1.93468e-16
1.55477e-16
8.40758e-16
9.92079e-16
1.13305e-15
1.23613e-15
1.30494e-15
1.3403e-15
1.3466e-15
1.33817e-15
1.30922e-15
1.25796e-15
1.18838e-15
1.10448e-15
1.01024e-15
9.09794e-16
8.07193e-16
7.05731e-16
6.07961e-16
5.16188e-16
4.32456e-16
3.57702e-16
2.91677e-16
2.33991e-16
1.84632e-16
1.3207e-15
1.5179e-15
1.69873e-15
1.82691e-15
1.90495e-15
1.93445e-15
1.93198e-15
1.90619e-15
1.84804e-15
1.75987e-15
1.64852e-15
1.51922e-15
1.37704e-15
1.22736e-15
1.07616e-15
9.29063e-16
7.90185e-16
6.61965e-16
5.46285e-16
4.44535e-16
3.56763e-16
2.81931e-16
2.1894e-16
2.05727e-15
2.32997e-15
2.57553e-15
2.73914e-15
2.82262e-15
2.83768e-15
2.81481e-15
2.74442e-15
2.62857e-15
2.47449e-15
2.29264e-15
2.09064e-15
1.87627e-15
1.65651e-15
1.43794e-15
1.2271e-15
1.03005e-15
8.50853e-16
6.91514e-16
5.53101e-16
4.35732e-16
3.3816e-16
2.58258e-16
3.28704e-15
3.67783e-15
4.0072e-15
4.20005e-15
4.26984e-15
4.25727e-15
4.17973e-15
4.02339e-15
3.80445e-15
3.53526e-15
3.23119e-15
2.90436e-15
2.56915e-15
2.23817e-15
1.92046e-15
1.62136e-15
1.34501e-15
1.09558e-15
8.76232e-16
6.88363e-16
5.3163e-16
4.04096e-16
3.02648e-16
5.30803e-15
5.81806e-15
6.22144e-15
6.41977e-15
6.45576e-15
6.39868e-15
6.22136e-15
5.93105e-15
5.55445e-15
5.10866e-15
4.61483e-15
4.09207e-15
3.56342e-15
3.05145e-15
2.57447e-15
2.14161e-15
1.75389e-15
1.4098e-15
1.10977e-15
8.55536e-16
6.47008e-16
4.80941e-16
3.52321e-16
8.28544e-15
8.92068e-15
9.41649e-15
9.6222e-15
9.63174e-15
9.5003e-15
9.17775e-15
8.69322e-15
8.08353e-15
7.37496e-15
6.6003e-15
5.79229e-15
4.98422e-15
4.2062e-15
3.48582e-15
2.84324e-15
2.28572e-15
1.80774e-15
1.40034e-15
1.0594e-15
7.83822e-16
5.69125e-16
4.07151e-16
1.25658e-14
1.34329e-14
1.41048e-14
1.43461e-14
1.43306e-14
1.40639e-14
1.35081e-14
1.27144e-14
1.1734e-14
1.0612e-14
9.40388e-15
8.16757e-15
6.95603e-15
5.80759e-15
4.74933e-15
3.80398e-15
2.99008e-15
2.3116e-15
1.75488e-15
1.30205e-15
9.42573e-16
6.68109e-16
4.66307e-16
1.97605e-14
2.10531e-14
2.19505e-14
2.21577e-14
2.19668e-14
2.13249e-14
2.02593e-14
1.88577e-14
1.72029e-14
1.53724e-14
1.34529e-14
1.15329e-14
9.69438e-15
7.9945e-15
6.45967e-15
5.0994e-15
3.92636e-15
2.95563e-15
2.18393e-15
1.58279e-15
1.12081e-15
7.75861e-16
5.28088e-16
3.47798e-14
3.65434e-14
3.73781e-14
3.70981e-14
3.60637e-14
3.42687e-14
3.18972e-14
2.90969e-14
2.60178e-14
2.28069e-14
1.96019e-14
1.65151e-14
1.36413e-14
1.10512e-14
8.77679e-15
6.81257e-15
5.14431e-15
3.77255e-15
2.70102e-15
1.9003e-15
1.31292e-15
8.8802e-16
5.89607e-16
6.55341e-14
6.73495e-14
6.74333e-14
6.57851e-14
6.25869e-14
5.8196e-14
5.29727e-14
4.72027e-14
4.11775e-14
3.51795e-14
2.94769e-14
2.42473e-14
1.95752e-14
1.54925e-14
1.20057e-14
9.0898e-15
6.69636e-15
4.77955e-15
3.31224e-15
2.25163e-15
1.51118e-15
9.97802e-16
6.4649e-16
1.18168e-13
1.19596e-13
1.18437e-13
1.14232e-13
1.0763e-13
9.90382e-14
8.8983e-14
7.80133e-14
6.67871e-14
5.58323e-14
4.56153e-14
3.64898e-14
2.86328e-14
2.2027e-14
1.65687e-14
1.21469e-14
8.65501e-15
5.97805e-15
4.00431e-15
2.62557e-15
1.70532e-15
1.09656e-15
6.9318e-16
2.08743e-13
2.08329e-13
2.03369e-13
1.93563e-13
1.8048e-13
1.64516e-13
1.46382e-13
1.26811e-13
1.07093e-13
8.82819e-14
7.09921e-14
5.55663e-14
4.23484e-14
3.15085e-14
2.28995e-14
1.61922e-14
1.10919e-14
7.35831e-15
4.74365e-15
2.99753e-15
1.88093e-15
1.175e-15
7.24655e-16
3.7749e-13
3.70253e-13
3.5608e-13
3.33996e-13
3.06459e-13
2.73864e-13
2.38807e-13
2.03115e-13
1.68757e-13
1.37151e-13
1.0894e-13
8.40645e-14
6.25967e-14
4.49577e-14
3.13609e-14
2.12958e-14
1.39932e-14
8.8752e-15
5.4767e-15
3.32968e-15
2.01932e-15
1.22553e-15
7.39544e-16
6.3627e-13
6.23579e-13
6.04119e-13
5.70375e-13
5.23634e-13
4.62907e-13
3.95533e-13
3.29029e-13
2.68052e-13
2.13997e-13
1.66949e-13
1.26273e-13
9.17551e-14
6.36194e-14
4.23473e-14
2.74001e-14
1.72143e-14
1.04214e-14
6.13311e-15
3.58155e-15
2.10426e-15
1.24733e-15
7.4281e-16
1.09049e-12
1.06034e-12
1.03011e-12
9.72568e-13
8.93207e-13
7.90141e-13
6.70198e-13
5.49089e-13
4.39735e-13
3.43868e-13
2.61409e-13
1.91163e-13
1.33304e-13
8.83922e-14
5.59572e-14
3.42895e-14
2.04705e-14
1.18018e-14
6.62392e-15
3.72501e-15
2.13468e-15
1.25054e-15
7.30214e-16
2.93856e-12
2.60894e-12
2.35623e-12
2.06462e-12
1.76916e-12
1.49684e-12
1.23407e-12
9.76128e-13
7.54415e-13
5.71474e-13
4.18422e-13
2.92088e-13
1.92205e-13
1.19632e-13
7.15208e-14
4.14888e-14
2.3419e-14
1.28066e-14
6.88732e-15
3.77069e-15
2.13511e-15
1.21815e-15
6.87223e-16
8.20694e-12
7.23508e-12
6.38761e-12
5.40773e-12
4.33043e-12
3.35737e-12
2.59364e-12
1.92964e-12
1.37124e-12
9.60885e-13
6.6322e-13
4.36498e-13
2.6866e-13
1.55284e-13
8.6972e-14
4.78644e-14
2.55807e-14
1.33048e-14
6.95201e-15
3.73136e-15
2.0421e-15
1.12055e-15
6.10691e-16
1.53776e-11
1.43516e-11
1.31669e-11
1.15705e-11
9.54196e-12
7.30577e-12
5.40277e-12
3.88414e-12
2.6085e-12
1.63202e-12
1.01468e-12
6.20068e-13
3.5503e-13
1.90007e-13
9.96262e-14
5.22167e-14
2.66624e-14
1.34241e-14
6.77437e-15
3.48085e-15
1.82592e-15
9.65009e-16
5.12457e-16
2.71031e-11
2.59027e-11
2.38535e-11
2.092e-11
1.75848e-11
1.38841e-11
1.02942e-11
7.17923e-12
4.7039e-12
2.76216e-12
1.5048e-12
8.22115e-13
4.33981e-13
2.15183e-13
1.06593e-13
5.38748e-14
2.68432e-14
1.28004e-14
6.05927e-15
2.96673e-15
1.50365e-15
7.7348e-16
4.05896e-16
6.29958e-11
5.82552e-11
5.12962e-11
4.24783e-11
3.40011e-11
2.6165e-11
1.93512e-11
1.30146e-11
7.89029e-12
4.38901e-12
2.18809e-12
1.03635e-12
4.89872e-13
2.26578e-13
1.08654e-13
5.40212e-14
2.52924e-14
1.10071e-14
4.86321e-15
2.30472e-15
1.14411e-15
5.78554e-16
3.03657e-16
1.67964e-10
1.51872e-10
1.28012e-10
1.01333e-10
7.76056e-11
5.62758e-11
3.83945e-11
2.34235e-11
1.2521e-11
6.23402e-12
2.9228e-12
1.23475e-12
5.11873e-13
2.25755e-13
1.04892e-13
4.87699e-14
2.05853e-14
8.12626e-15
3.45186e-15
1.62694e-15
7.98847e-16
4.00701e-16
2.12324e-16
4.62279e-10
4.1625e-10
3.32086e-10
2.48715e-10
1.84196e-10
1.30365e-10
8.04429e-11
4.00265e-11
1.76965e-11
7.84221e-12
3.4577e-12
1.35516e-12
5.06776e-13
2.04985e-13
9.07527e-14
3.87588e-14
1.43219e-14
5.19893e-15
2.2123e-15
1.04582e-15
5.05586e-16
2.54012e-16
1.37539e-16
1.6011e-09
1.24346e-09
9.27168e-10
6.4545e-10
4.5267e-10
2.9761e-10
1.56745e-10
6.00487e-11
2.09506e-11
8.47794e-12
3.59688e-12
1.30915e-12
4.04711e-13
1.45911e-13
6.24778e-14
2.3943e-14
7.63264e-15
2.76289e-15
1.23763e-15
5.81351e-16
2.78608e-16
1.44581e-16
8.60058e-17
1.10971e-08
4.04102e-09
2.84608e-09
1.85748e-09
1.21186e-09
6.46721e-10
2.53392e-10
7.34799e-11
2.18254e-11
8.49382e-12
3.48482e-12
1.10279e-12
2.74516e-13
9.23118e-14
3.67027e-14
1.16309e-14
3.36591e-15
1.31711e-15
5.89688e-16
2.67826e-16
1.34976e-16
8.1477e-17
6.37296e-17
1.19813e-07
1.39035e-08
9.90493e-09
5.79019e-09
3.08657e-09
1.07097e-09
2.99789e-10
6.41611e-11
1.62492e-11
6.30206e-12
2.26698e-12
5.24602e-13
1.12086e-13
3.97348e-14
1.20387e-14
2.93015e-15
1.06445e-15
4.57023e-16
1.92626e-16
9.63307e-17
6.68317e-17
6.00824e-17
5.85265e-17
1.1047e-06
6.30693e-08
4.65198e-08
2.14132e-08
5.23544e-09
1.09516e-09
2.13229e-10
3.25104e-11
9.16977e-12
4.13948e-12
1.25155e-12
1.99695e-13
4.46731e-14
1.22562e-14
2.31908e-15
7.2452e-16
3.0335e-16
1.26725e-16
6.972e-17
5.84966e-17
5.69437e-17
5.62201e-17
5.4283e-17
1.22894e-05
6.19345e-07
2.79709e-07
1.01109e-07
5.97203e-10
2.30222e-11
2.12589e-11
7.70995e-12
2.40603e-12
2.99273e-13
2.1324e-14
1.84846e-15
2.70486e-16
1.43655e-16
8.45192e-17
6.27398e-17
5.86769e-17
5.73239e-17
5.51297e-17
4.78941e-17
3.01861e-17
1.51924e-17
5.89876e-18
0.000451379
4.4886e-06
1.70875e-06
7.30532e-07
7.15992e-08
0.00627708
1.52897e-05
1.04514e-05
5.60887e-06
1.51464e-06
0.015187
7.14023e-05
7.03773e-05
5.5076e-05
5.8872e-05
0.03177
0.00639941
0.0064473
0.00794245
0.0206373
0.249479
0.247484
0.240096
0.268291
0.36099
0.657383
0.650205
0.675745
0.737323
0.893385
0.933519
0.948604
0.970513
0.996767
1
0.986953
0.99473
0.99998
1
1
0.996281
1
0.99999
1
0.989156
0.997894
0.999953
1
1
1
0.990223
1
0.999343
1
0.999933
0.987502
0.999999
1
1
1
0.997766
0.970097
0.999943
1
0.993586
1
1
1
1
1
0.97961
1
0.978659
1
1
0.99816
0.991569
0.999999
1
1
0.952185
0.742406
0.869647
0.984853
0.999802
0.544256
0.782976
0.747663
0.769122
0.701027
0.174047
1
1
1
1
0.999724
1
1
1
0.998982
0.351715
0.998432
0.977087
0.998754
0.999999
0.0441592
0.182814
0.208336
0.173505
0.967187
0.00820903
0.0127147
0.0100023
0.0152927
0.0232075
-1.22469e-59
-1.38469e-59
-2.32593e-60
-1.9417e-61
-1.06796e-62
-4.24106e-64
-1.1944e-65
-2.31797e-67
-1.03351e-69
1.84654e-73
5.16428e-72
4.22425e-71
2.14475e-70
7.2591e-70
1.98083e-69
3.34419e-69
4.17309e-69
-2.19318e-58
-1.89911e-58
-2.67889e-59
-1.94817e-60
-9.30744e-62
-3.11398e-63
-6.79044e-65
-6.98415e-67
1.47413e-71
1.3491e-68
1.6194e-67
1.38434e-66
7.57879e-66
2.68549e-65
6.85772e-65
1.1249e-64
1.6715e-64
1.0221e-65
-3.38371e-57
-2.28262e-57
-2.70897e-58
-1.6995e-59
-6.86545e-61
-1.77819e-62
-2.37595e-64
-1.52521e-81
2.95025e-66
4.97999e-65
6.22894e-64
5.38974e-63
2.9265e-62
1.01614e-61
2.57103e-61
4.19052e-61
6.26274e-61
4.56711e-61
1.90918e-62
-4.45741e-56
-2.38459e-56
-2.37779e-57
-1.26463e-58
-4.10755e-60
-6.39913e-62
-9.75826e-80
2.92007e-64
1.08871e-62
1.88437e-61
2.3185e-60
1.98805e-59
1.07436e-58
3.70712e-58
9.33223e-58
1.51357e-57
2.25756e-57
1.66463e-57
7.67238e-58
-4.95428e-55
-2.14278e-55
-1.78295e-56
-7.76118e-58
-1.81332e-59
1.55804e-78
1.96076e-62
1.02601e-60
4.03833e-59
7.05024e-58
8.51334e-57
7.08787e-56
3.80369e-55
1.29831e-54
3.25916e-54
5.26187e-54
7.86534e-54
5.84e-54
2.69864e-54
-4.57178e-54
-1.63402e-54
-1.11491e-55
-3.6584e-57
-3.80038e-59
9.34692e-62
7.03936e-59
3.83346e-57
1.48269e-55
2.4972e-54
2.96389e-53
2.46365e-52
1.31108e-51
4.41639e-51
1.10441e-50
1.78201e-50
2.67192e-50
1.98799e-50
9.19831e-51
-3.42131e-53
-1.03744e-53
-5.57872e-55
-1.06518e-56
-2.42761e-77
1.14597e-57
2.53571e-55
1.33921e-53
5.0914e-52
8.4581e-51
9.9844e-50
8.24168e-49
4.35845e-48
1.44974e-47
3.62945e-47
5.90411e-47
8.89426e-47
6.63481e-47
3.06849e-47
-1.9968e-52
-5.32735e-53
-2.04757e-54
3.35611e-75
1.16368e-57
3.67954e-54
8.87149e-52
4.63763e-50
1.7023e-48
2.84549e-47
3.2988e-46
2.67345e-45
1.39483e-44
4.61302e-44
1.15241e-43
1.89274e-43
2.87373e-43
2.15917e-43
9.18195e-44
-8.39159e-52
-2.10322e-52
-4.30633e-54
-8.36777e-70
4.00337e-54
1.32127e-50
2.98318e-48
1.52963e-46
5.55591e-45
8.78039e-44
1.00334e-42
8.09321e-42
4.24061e-41
1.46811e-40
3.94533e-40
6.42463e-40
9.76682e-40
7.36483e-40
4.80006e-40
-1.99795e-51
-5.71498e-52
-8.25843e-70
7.44643e-54
1.31366e-50
4.20697e-47
9.57312e-45
4.83067e-43
1.66501e-41
3.01953e-40
3.35613e-39
2.60207e-38
1.307e-37
4.18957e-37
1.04983e-36
1.72671e-36
2.63775e-36
1.98313e-36
1.66502e-36
2.42284e-52
-7.11045e-52
-1.73418e-66
2.46499e-50
4.08201e-47
1.36357e-43
2.90385e-41
1.54249e-39
5.12043e-38
7.59508e-37
8.49631e-36
6.3951e-35
2.44357e-34
4.0696e-34
1.01552e-33
1.78394e-33
2.82717e-33
2.1527e-33
8.36994e-34
2.18823e-49
-4.6939e-70
7.73868e-51
7.67227e-47
1.19765e-43
5.08989e-40
8.79523e-38
4.04796e-36
1.20582e-34
6.89948e-34
8.96512e-33
6.99231e-32
3.3495e-31
1.24883e-30
4.36286e-30
9.10072e-30
1.70456e-29
1.39188e-29
7.06019e-30
5.87602e-31
2.09955e-32
4.40645e-40
-6.92325e-40
7.12723e-48
8.05525e-51
2.46749e-47
2.24531e-43
3.34074e-40
1.14323e-36
1.67823e-34
4.21479e-33
1.3445e-31
2.53345e-30
6.78437e-29
1.16817e-27
9.99945e-27
8.12587e-26
4.22899e-25
9.4455e-25
1.77548e-24
1.47975e-24
7.70805e-25
2.1804e-25
1.39693e-26
9.61355e-28
1.36776e-29
2.44702e-47
2.52292e-47
7.36357e-44
6.17021e-40
8.85186e-37
1.19381e-33
2.15383e-31
2.4006e-29
2.79409e-27
2.00363e-25
5.52898e-24
5.1023e-23
2.52122e-22
7.6301e-22
1.67446e-21
2.62335e-21
3.54745e-21
3.20773e-21
2.26625e-21
1.11621e-21
3.3192e-22
4.6451e-23
1.86285e-24
3.72806e-47
3.88317e-44
2.05367e-40
1.59007e-36
2.20008e-33
6.41737e-30
6.09372e-27
2.27465e-24
9.57645e-23
1.17133e-21
7.08502e-21
2.64187e-20
6.90554e-20
1.35366e-19
2.17052e-19
2.83726e-19
3.33481e-19
3.12797e-19
2.51326e-19
1.61455e-19
7.61841e-20
2.30387e-20
3.53711e-21
3.92675e-44
1.13151e-40
5.34883e-37
3.34634e-33
1.06074e-28
8.26348e-25
1.73335e-22
4.34416e-21
3.8387e-20
1.79025e-19
5.42973e-19
1.20385e-18
2.11712e-18
3.10736e-18
4.02614e-18
4.64074e-18
4.97078e-18
4.77138e-18
4.17863e-18
3.21554e-18
2.06587e-18
1.01511e-18
3.26698e-19
5.95317e-41
1.60731e-37
6.87366e-34
4.45218e-30
1.52356e-23
2.72125e-21
5.58387e-20
4.03283e-19
1.52403e-18
3.79388e-18
7.14328e-18
1.10325e-17
1.47947e-17
1.78765e-17
2.0134e-17
2.13443e-17
2.16256e-17
2.0966e-17
1.93291e-17
1.66744e-17
1.30945e-17
8.89094e-18
4.73899e-18
1.60731e-37
4.02344e-34
1.55124e-30
4.5974e-23
1.54632e-20
3.11836e-19
1.94063e-18
6.18195e-18
1.30246e-17
2.12181e-17
2.92643e-17
3.60084e-17
4.09857e-17
4.41851e-17
4.59304e-17
4.63507e-17
4.56994e-17
4.41948e-17
4.16998e-17
3.81639e-17
3.34576e-17
2.73771e-17
1.98447e-17
4.02335e-34
9.32352e-31
9.91261e-24
3.90402e-20
9.57595e-19
5.54593e-18
1.54847e-17
2.8725e-17
4.19282e-17
5.3097e-17
6.14043e-17
6.67944e-17
6.97958e-17
7.09893e-17
7.08165e-17
6.96359e-17
6.75701e-17
6.47798e-17
6.13805e-17
5.73972e-17
5.27367e-17
4.71031e-17
3.99264e-17
9.32352e-31
1.99734e-27
4.78823e-20
1.87988e-18
1.12517e-17
2.90341e-17
4.92223e-17
6.67382e-17
7.98955e-17
8.88877e-17
9.41064e-17
9.6398e-17
9.67189e-17
9.56446e-17
9.34708e-17
9.03116e-17
8.63759e-17
8.18913e-17
7.70669e-17
7.20541e-17
6.69165e-17
6.15623e-17
5.56139e-17
1.99734e-27
2.15444e-20
2.60936e-18
1.82456e-17
4.61372e-17
7.41913e-17
9.60844e-17
1.11408e-16
1.21425e-16
1.2709e-16
1.29066e-16
1.28683e-16
1.26844e-16
1.23512e-16
1.18834e-16
1.13054e-16
1.06502e-16
9.95119e-17
9.23765e-17
8.53314e-17
7.8563e-17
7.21891e-17
6.61447e-17
1.30775e-20
2.41124e-18
2.53769e-17
6.66715e-17
1.05154e-16
1.32992e-16
1.51908e-16
1.64459e-16
1.72009e-16
1.7496e-16
1.74526e-16
1.72353e-16
1.67976e-16
1.61488e-16
1.53172e-16
1.4348e-16
1.3294e-16
1.22079e-16
1.11332e-16
1.00994e-16
9.12812e-17
8.24208e-17
7.46185e-17
2.33028e-18
2.96303e-17
9.01784e-17
1.43595e-16
1.80925e-16
2.06004e-16
2.23509e-16
2.3502e-16
2.40704e-16
2.41227e-16
2.39216e-16
2.34216e-16
2.25928e-16
2.14659e-16
2.01007e-16
1.85681e-16
1.69411e-16
1.52931e-16
1.36902e-16
1.21782e-16
1.07793e-16
9.5091e-17
8.39818e-17
3.50205e-17
1.13026e-16
1.89271e-16
2.41371e-16
2.77312e-16
3.03136e-16
3.21597e-16
3.32264e-16
3.35201e-16
3.3377e-16
3.28642e-16
3.18775e-16
3.043e-16
2.86036e-16
2.64963e-16
2.42067e-16
2.18231e-16
1.94284e-16
1.71071e-16
1.49343e-16
1.29539e-16
1.11761e-16
9.61437e-17
1.4387e-16
2.39445e-16
3.14768e-16
3.68768e-16
4.09123e-16
4.39029e-16
4.58564e-16
4.6664e-16
4.66302e-16
4.61814e-16
4.50659e-16
4.32705e-16
4.08849e-16
3.80427e-16
3.48847e-16
3.15505e-16
2.81598e-16
2.4804e-16
2.15627e-16
1.85214e-16
1.5759e-16
1.33121e-16
1.11827e-16
3.09177e-16
4.02068e-16
4.8627e-16
5.52122e-16
6.01592e-16
6.36156e-16
6.54556e-16
6.57809e-16
6.53865e-16
6.41454e-16
6.19288e-16
5.88238e-16
5.50069e-16
5.06668e-16
4.59822e-16
4.1138e-16
3.63146e-16
3.16502e-16
2.72245e-16
2.30932e-16
1.93289e-16
1.60026e-16
1.31393e-16
5.23805e-16
6.36173e-16
7.45295e-16
8.29079e-16
8.88739e-16
9.25627e-16
9.39246e-16
9.37229e-16
9.24713e-16
8.9725e-16
8.56085e-16
8.0385e-16
7.43352e-16
6.77297e-16
6.0809e-16
5.37943e-16
4.69112e-16
4.03719e-16
3.43134e-16
2.87758e-16
2.37716e-16
1.93468e-16
1.55477e-16
8.40758e-16
9.92079e-16
1.13305e-15
1.23613e-15
1.30494e-15
1.3403e-15
1.3466e-15
1.33817e-15
1.30922e-15
1.25796e-15
1.18838e-15
1.10448e-15
1.01024e-15
9.09794e-16
8.07193e-16
7.05731e-16
6.07961e-16
5.16188e-16
4.32456e-16
3.57702e-16
2.91677e-16
2.33991e-16
1.84632e-16
1.3207e-15
1.5179e-15
1.69873e-15
1.82691e-15
1.90495e-15
1.93445e-15
1.93198e-15
1.90619e-15
1.84803e-15
1.75987e-15
1.64852e-15
1.51922e-15
1.37704e-15
1.22736e-15
1.07616e-15
9.29063e-16
7.90185e-16
6.61965e-16
5.46285e-16
4.44535e-16
3.56763e-16
2.81931e-16
2.1894e-16
2.05727e-15
2.32997e-15
2.57553e-15
2.73914e-15
2.82262e-15
2.83768e-15
2.81481e-15
2.74442e-15
2.62857e-15
2.47449e-15
2.29264e-15
2.09064e-15
1.87627e-15
1.65651e-15
1.43794e-15
1.2271e-15
1.03005e-15
8.50853e-16
6.91514e-16
5.53101e-16
4.35732e-16
3.3816e-16
2.58258e-16
3.28704e-15
3.67783e-15
4.0072e-15
4.20005e-15
4.26984e-15
4.25727e-15
4.17973e-15
4.02339e-15
3.80445e-15
3.53526e-15
3.23119e-15
2.90436e-15
2.56915e-15
2.23817e-15
1.92046e-15
1.62136e-15
1.34501e-15
1.09558e-15
8.76232e-16
6.88363e-16
5.3163e-16
4.04096e-16
3.02648e-16
5.30803e-15
5.81807e-15
6.22144e-15
6.41977e-15
6.45576e-15
6.39868e-15
6.22136e-15
5.93105e-15
5.55445e-15
5.10866e-15
4.61483e-15
4.09207e-15
3.56342e-15
3.05144e-15
2.57447e-15
2.14161e-15
1.75389e-15
1.4098e-15
1.10977e-15
8.55536e-16
6.47008e-16
4.80941e-16
3.52321e-16
8.28544e-15
8.92068e-15
9.41649e-15
9.6222e-15
9.63174e-15
9.5003e-15
9.17775e-15
8.69322e-15
8.08353e-15
7.37496e-15
6.6003e-15
5.79229e-15
4.98422e-15
4.2062e-15
3.48582e-15
2.84324e-15
2.28572e-15
1.80774e-15
1.40034e-15
1.0594e-15
7.83822e-16
5.69125e-16
4.07151e-16
1.25658e-14
1.34329e-14
1.41048e-14
1.43461e-14
1.43306e-14
1.40639e-14
1.35081e-14
1.27144e-14
1.1734e-14
1.0612e-14
9.40388e-15
8.16756e-15
6.95602e-15
5.80759e-15
4.74933e-15
3.80398e-15
2.99008e-15
2.31161e-15
1.75488e-15
1.30205e-15
9.42573e-16
6.6811e-16
4.66307e-16
1.97605e-14
2.10531e-14
2.19505e-14
2.21577e-14
2.19667e-14
2.13249e-14
2.02593e-14
1.88577e-14
1.72029e-14
1.53724e-14
1.34529e-14
1.15329e-14
9.69438e-15
7.99449e-15
6.45967e-15
5.0994e-15
3.92636e-15
2.95563e-15
2.18393e-15
1.58279e-15
1.12081e-15
7.75861e-16
5.28088e-16
3.47798e-14
3.65434e-14
3.73781e-14
3.70981e-14
3.60636e-14
3.42687e-14
3.18972e-14
2.90969e-14
2.60178e-14
2.28069e-14
1.96019e-14
1.65151e-14
1.36413e-14
1.10512e-14
8.77679e-15
6.81257e-15
5.14432e-15
3.77256e-15
2.70102e-15
1.9003e-15
1.31292e-15
8.8802e-16
5.89607e-16
6.55341e-14
6.73495e-14
6.74333e-14
6.57851e-14
6.25869e-14
5.8196e-14
5.29727e-14
4.72027e-14
4.11775e-14
3.51795e-14
2.9477e-14
2.42474e-14
1.95752e-14
1.54925e-14
1.20057e-14
9.0898e-15
6.69636e-15
4.77955e-15
3.31224e-15
2.25163e-15
1.51118e-15
9.97802e-16
6.4649e-16
1.18168e-13
1.19596e-13
1.18437e-13
1.14232e-13
1.0763e-13
9.90382e-14
8.89831e-14
7.80134e-14
6.67872e-14
5.58323e-14
4.56154e-14
3.64898e-14
2.86328e-14
2.2027e-14
1.65687e-14
1.21469e-14
8.65501e-15
5.97805e-15
4.00431e-15
2.62557e-15
1.70532e-15
1.09656e-15
6.93179e-16
2.08743e-13
2.08329e-13
2.0337e-13
1.93563e-13
1.8048e-13
1.64516e-13
1.46383e-13
1.26811e-13
1.07094e-13
8.82819e-14
7.09921e-14
5.55663e-14
4.23484e-14
3.15085e-14
2.28995e-14
1.61922e-14
1.10919e-14
7.35831e-15
4.74365e-15
2.99753e-15
1.88093e-15
1.175e-15
7.24655e-16
3.7749e-13
3.70253e-13
3.5608e-13
3.33996e-13
3.06458e-13
2.73864e-13
2.38808e-13
2.03115e-13
1.68757e-13
1.37151e-13
1.0894e-13
8.40645e-14
6.25967e-14
4.49577e-14
3.13609e-14
2.12958e-14
1.39932e-14
8.87519e-15
5.4767e-15
3.32968e-15
2.01931e-15
1.22553e-15
7.39544e-16
6.3627e-13
6.23579e-13
6.04119e-13
5.70374e-13
5.23634e-13
4.62907e-13
3.95533e-13
3.2903e-13
2.68053e-13
2.13997e-13
1.66949e-13
1.26273e-13
9.17551e-14
6.36194e-14
4.23472e-14
2.74e-14
1.72142e-14
1.04214e-14
6.13311e-15
3.58154e-15
2.10426e-15
1.24733e-15
7.4281e-16
1.09049e-12
1.06034e-12
1.03011e-12
9.72568e-13
8.93207e-13
7.90141e-13
6.70197e-13
5.49089e-13
4.39735e-13
3.43868e-13
2.61409e-13
1.91163e-13
1.33305e-13
8.83922e-14
5.59571e-14
3.42894e-14
2.04705e-14
1.18018e-14
6.62392e-15
3.72501e-15
2.13468e-15
1.25054e-15
7.30214e-16
2.93856e-12
2.60894e-12
2.35623e-12
2.06462e-12
1.76916e-12
1.49684e-12
1.23407e-12
9.76127e-13
7.54414e-13
5.71473e-13
4.18422e-13
2.92088e-13
1.92205e-13
1.19632e-13
7.15208e-14
4.14888e-14
2.34189e-14
1.28066e-14
6.88731e-15
3.77069e-15
2.13511e-15
1.21815e-15
6.87223e-16
8.20693e-12
7.23508e-12
6.38761e-12
5.40772e-12
4.33042e-12
3.35736e-12
2.59363e-12
1.92963e-12
1.37123e-12
9.60885e-13
6.63221e-13
4.36498e-13
2.6866e-13
1.55284e-13
8.69719e-14
4.78644e-14
2.55807e-14
1.33048e-14
6.952e-15
3.73136e-15
2.0421e-15
1.12055e-15
6.10691e-16
1.53776e-11
1.43516e-11
1.31669e-11
1.15704e-11
9.54194e-12
7.30576e-12
5.40276e-12
3.88414e-12
2.6085e-12
1.63202e-12
1.01468e-12
6.20069e-13
3.5503e-13
1.90007e-13
9.96261e-14
5.22168e-14
2.66624e-14
1.34241e-14
6.77436e-15
3.48084e-15
1.82592e-15
9.65009e-16
5.12457e-16
2.71031e-11
2.59027e-11
2.38536e-11
2.092e-11
1.75848e-11
1.38841e-11
1.02942e-11
7.17924e-12
4.7039e-12
2.76216e-12
1.5048e-12
8.22115e-13
4.33981e-13
2.15183e-13
1.06593e-13
5.38749e-14
2.68432e-14
1.28003e-14
6.05926e-15
2.96672e-15
1.50365e-15
7.7348e-16
4.05896e-16
6.29958e-11
5.82553e-11
5.12963e-11
4.24783e-11
3.40011e-11
2.6165e-11
1.93513e-11
1.30147e-11
7.8903e-12
4.38902e-12
2.18809e-12
1.03635e-12
4.89872e-13
2.26578e-13
1.08654e-13
5.40213e-14
2.52925e-14
1.10071e-14
4.8632e-15
2.30471e-15
1.14411e-15
5.78554e-16
3.03657e-16
1.67964e-10
1.51872e-10
1.28012e-10
1.01333e-10
7.76056e-11
5.62757e-11
3.83945e-11
2.34235e-11
1.2521e-11
6.23402e-12
2.9228e-12
1.23475e-12
5.11873e-13
2.25755e-13
1.04892e-13
4.877e-14
2.05853e-14
8.12625e-15
3.45185e-15
1.62694e-15
7.98847e-16
4.00701e-16
2.12324e-16
4.6228e-10
4.16251e-10
3.32086e-10
2.48715e-10
1.84196e-10
1.30365e-10
8.04428e-11
4.00264e-11
1.76964e-11
7.84221e-12
3.4577e-12
1.35516e-12
5.06775e-13
2.04985e-13
9.07528e-14
3.87589e-14
1.43219e-14
5.19892e-15
2.21229e-15
1.04582e-15
5.05586e-16
2.54012e-16
1.3754e-16
1.60109e-09
1.24347e-09
9.2717e-10
6.45449e-10
4.5267e-10
2.97609e-10
1.56745e-10
6.00484e-11
2.09505e-11
8.47793e-12
3.59688e-12
1.30915e-12
4.04711e-13
1.4591e-13
6.2478e-14
2.39431e-14
7.63266e-15
2.76289e-15
1.23763e-15
5.81351e-16
2.78608e-16
1.44581e-16
8.60059e-17
1.10967e-08
4.04095e-09
2.84608e-09
1.85748e-09
1.21186e-09
6.46721e-10
2.53391e-10
7.34793e-11
2.18253e-11
8.49381e-12
3.48483e-12
1.10279e-12
2.74516e-13
9.2312e-14
3.6703e-14
1.1631e-14
3.36591e-15
1.31711e-15
5.89688e-16
2.67827e-16
1.34976e-16
8.14771e-17
6.37296e-17
1.19807e-07
1.39013e-08
9.90475e-09
5.79022e-09
3.08659e-09
1.07097e-09
2.99788e-10
6.41603e-11
1.6249e-11
6.30203e-12
2.26698e-12
5.24601e-13
1.12086e-13
3.97352e-14
1.20389e-14
2.93016e-15
1.06445e-15
4.57023e-16
1.92626e-16
9.63309e-17
6.68317e-17
6.00824e-17
5.85265e-17
1.10463e-06
6.30411e-08
4.65178e-08
2.14136e-08
5.23556e-09
1.09517e-09
2.13228e-10
3.25098e-11
9.16957e-12
4.13943e-12
1.25155e-12
1.99695e-13
4.46733e-14
1.22564e-14
2.31911e-15
7.24519e-16
3.0335e-16
1.26726e-16
6.97199e-17
5.84963e-17
5.69436e-17
5.622e-17
5.42828e-17
1.22884e-05
6.19108e-07
2.797e-07