/*--------------------------------*- C++ -*----------------------------------*\
| =========                 |                                                 |
| \\      /  F ield         | OpenFOAM: The Open Source CFD Toolbox           |
|  \\    /   O peration     | Version:  v2012                                 |
|   \\  /    A nd           | Website:  www.openfoam.com                      |
|    \\/     M anipulation  |                                                 |
\*---------------------------------------------------------------------------*/
FoamFile
{
    version     2.0;
    format      ascii;
    class       volScalarField;
    location    "0.25";
    object      p;
}
// * * * * * * * * * * * * * * * * * * * * * * * * * * * * * * * * * * * * * //

dimensions      [1 -1 -2 0 0 0 0];


internalField   nonuniform List<scalar> 
2619
(
3.10018e+06
3.10016e+06
3.10003e+06
3.10012e+06
3.10006e+06
3.10014e+06
3.10016e+06
3.10022e+06
3.10019e+06
3.10016e+06
3.10015e+06
3.10015e+06
3.10012e+06
3.1001e+06
3.10008e+06
3.10007e+06
3.1004e+06
3.10035e+06
3.10013e+06
3.10013e+06
3.10024e+06
3.10032e+06
3.10028e+06
3.10025e+06
3.10025e+06
3.10023e+06
3.10021e+06
3.10019e+06
3.10017e+06
3.10014e+06
3.10011e+06
3.10009e+06
3.10007e+06
3.10006e+06
3.10056e+06
3.10036e+06
3.10015e+06
3.10015e+06
3.10029e+06
3.10021e+06
3.10026e+06
3.10026e+06
3.10025e+06
3.10023e+06
3.10021e+06
3.10019e+06
3.10018e+06
3.10015e+06
3.10011e+06
3.10009e+06
3.10007e+06
3.10006e+06
3.10005e+06
3.10066e+06
3.10045e+06
3.10019e+06
3.10021e+06
3.10031e+06
3.10025e+06
3.10026e+06
3.10024e+06
3.10023e+06
3.10023e+06
3.10022e+06
3.1002e+06
3.10018e+06
3.10015e+06
3.10011e+06
3.10009e+06
3.10007e+06
3.10006e+06
3.10005e+06
3.10074e+06
3.10047e+06
3.10023e+06
3.1002e+06
3.10035e+06
3.10032e+06
3.10026e+06
3.10023e+06
3.10024e+06
3.10025e+06
3.10023e+06
3.1002e+06
3.10018e+06
3.10015e+06
3.10011e+06
3.10008e+06
3.10007e+06
3.10006e+06
3.10005e+06
3.10086e+06
3.10062e+06
3.10045e+06
3.10031e+06
3.1001e+06
3.10013e+06
3.10024e+06
3.1003e+06
3.10027e+06
3.10025e+06
3.10024e+06
3.1002e+06
3.10018e+06
3.10015e+06
3.10011e+06
3.10008e+06
3.10007e+06
3.10006e+06
3.10005e+06
3.10062e+06
3.10054e+06
3.10055e+06
3.10034e+06
3.10006e+06
3.10011e+06
3.10019e+06
3.10023e+06
3.10025e+06
3.10025e+06
3.10025e+06
3.10021e+06
3.10019e+06
3.10015e+06
3.10011e+06
3.10008e+06
3.10007e+06
3.10006e+06
3.10005e+06
3.09927e+06
3.09879e+06
3.09874e+06
3.09916e+06
3.09958e+06
3.09991e+06
3.10003e+06
3.10013e+06
3.1002e+06
3.10027e+06
3.10026e+06
3.10021e+06
3.10019e+06
3.10015e+06
3.10011e+06
3.10008e+06
3.10007e+06
3.10006e+06
3.10005e+06
3.09782e+06
3.09328e+06
3.09234e+06
3.09489e+06
3.0987e+06
3.10009e+06
3.10012e+06
3.1001e+06
3.10018e+06
3.10026e+06
3.10026e+06
3.10021e+06
3.10018e+06
3.10014e+06
3.1001e+06
3.10008e+06
3.10006e+06
3.10005e+06
3.10005e+06
3.09154e+06
3.09065e+06
3.09056e+06
3.09371e+06
3.09818e+06
3.09996e+06
3.10013e+06
3.10013e+06
3.10016e+06
3.10025e+06
3.10026e+06
3.1002e+06
3.10017e+06
3.10013e+06
3.1001e+06
3.10007e+06
3.10006e+06
3.10005e+06
3.10005e+06
3.09083e+06
3.0904e+06
3.09063e+06
3.09381e+06
3.09817e+06
3.09998e+06
3.10014e+06
3.10013e+06
3.10016e+06
3.10024e+06
3.10024e+06
3.10019e+06
3.10016e+06
3.10012e+06
3.1001e+06
3.10008e+06
3.10006e+06
3.10006e+06
3.10005e+06
3.09054e+06
3.09015e+06
3.09048e+06
3.0937e+06
3.09822e+06
3.10005e+06
3.10004e+06
3.10003e+06
3.10012e+06
3.10021e+06
3.10021e+06
3.10016e+06
3.10015e+06
3.10012e+06
3.1001e+06
3.10008e+06
3.10007e+06
3.10006e+06
3.10005e+06
3.10005e+06
3.10005e+06
3.10005e+06
3.10004e+06
3.09038e+06
3.08979e+06
3.08973e+06
3.09232e+06
3.09667e+06
3.09868e+06
3.09946e+06
3.09992e+06
3.1001e+06
3.10017e+06
3.10018e+06
3.10014e+06
3.10013e+06
3.10012e+06
3.1001e+06
3.10008e+06
3.10007e+06
3.10006e+06
3.10005e+06
3.10005e+06
3.10005e+06
3.10005e+06
3.10005e+06
3.09088e+06
3.09045e+06
3.09058e+06
3.09106e+06
3.09197e+06
3.09456e+06
3.09836e+06
3.09993e+06
3.09998e+06
3.10009e+06
3.10013e+06
3.10011e+06
3.10012e+06
3.10011e+06
3.1001e+06
3.10009e+06
3.10007e+06
3.10006e+06
3.10006e+06
3.10005e+06
3.10005e+06
3.10005e+06
3.10005e+06
3.09026e+06
3.08956e+06
3.08952e+06
3.08939e+06
3.08995e+06
3.09227e+06
3.09625e+06
3.09844e+06
3.09931e+06
3.09989e+06
3.10008e+06
3.10011e+06
3.10012e+06
3.10011e+06
3.1001e+06
3.10009e+06
3.10007e+06
3.10006e+06
3.10006e+06
3.10006e+06
3.10005e+06
3.10005e+06
3.10005e+06
3.09163e+06
3.09066e+06
3.09054e+06
3.09014e+06
3.09055e+06
3.09118e+06
3.09242e+06
3.09493e+06
3.09823e+06
3.09986e+06
3.10011e+06
3.10013e+06
3.10014e+06
3.10011e+06
3.1001e+06
3.10009e+06
3.10007e+06
3.10006e+06
3.10006e+06
3.10006e+06
3.10006e+06
3.10006e+06
3.10005e+06
3.0918e+06
3.09454e+06
3.09661e+06
3.09432e+06
3.09076e+06
3.08998e+06
3.09087e+06
3.09355e+06
3.09755e+06
3.09967e+06
3.10006e+06
3.10012e+06
3.10014e+06
3.10012e+06
3.1001e+06
3.10009e+06
3.10008e+06
3.10007e+06
3.10006e+06
3.10006e+06
3.10006e+06
3.10006e+06
3.10006e+06
3.09769e+06
3.09614e+06
3.0973e+06
3.09476e+06
3.09072e+06
3.08983e+06
3.09094e+06
3.09356e+06
3.09743e+06
3.09957e+06
3.10001e+06
3.1001e+06
3.10013e+06
3.10012e+06
3.10011e+06
3.10009e+06
3.10008e+06
3.10007e+06
3.10007e+06
3.10006e+06
3.10006e+06
3.10006e+06
3.10006e+06
3.09719e+06
3.09536e+06
3.09663e+06
3.0943e+06
3.09067e+06
3.08984e+06
3.09094e+06
3.09353e+06
3.09736e+06
3.09951e+06
3.09997e+06
3.10009e+06
3.10013e+06
3.10011e+06
3.10011e+06
3.1001e+06
3.10008e+06
3.10007e+06
3.10007e+06
3.10007e+06
3.10006e+06
3.10006e+06
3.10006e+06
3.09625e+06
3.09489e+06
3.09624e+06
3.09401e+06
3.09024e+06
3.08951e+06
3.09087e+06
3.09348e+06
3.09733e+06
3.0995e+06
3.09995e+06
3.10008e+06
3.10012e+06
3.10012e+06
3.10011e+06
3.1001e+06
3.10008e+06
3.10007e+06
3.10007e+06
3.10007e+06
3.10007e+06
3.10006e+06
3.10006e+06
3.0967e+06
3.09528e+06
3.09632e+06
3.09423e+06
3.09092e+06
3.09021e+06
3.09116e+06
3.09359e+06
3.09743e+06
3.09955e+06
3.09997e+06
3.10008e+06
3.10013e+06
3.10012e+06
3.10011e+06
3.1001e+06
3.10009e+06
3.10008e+06
3.10007e+06
3.10007e+06
3.10007e+06
3.10007e+06
3.10006e+06
3.09469e+06
3.09399e+06
3.09417e+06
3.09401e+06
3.09504e+06
3.09382e+06
3.09115e+06
3.09284e+06
3.09727e+06
3.09943e+06
3.09994e+06
3.10008e+06
3.10014e+06
3.10014e+06
3.10012e+06
3.10011e+06
3.10009e+06
3.10008e+06
3.10007e+06
3.10007e+06
3.10007e+06
3.10007e+06
3.10006e+06
3.09458e+06
3.09363e+06
3.09375e+06
3.09415e+06
3.09593e+06
3.09489e+06
3.09212e+06
3.09356e+06
3.09752e+06
3.0995e+06
3.1e+06
3.1001e+06
3.10015e+06
3.10015e+06
3.10013e+06
3.10011e+06
3.10009e+06
3.10008e+06
3.10008e+06
3.10007e+06
3.10007e+06
3.10007e+06
3.10007e+06
3.1e+06
3.09929e+06
3.09876e+06
3.09722e+06
3.09583e+06
3.09506e+06
3.09594e+06
3.09714e+06
3.09807e+06
3.09927e+06
3.09997e+06
3.10008e+06
3.10015e+06
3.10015e+06
3.10014e+06
3.10012e+06
3.1001e+06
3.10008e+06
3.10008e+06
3.10007e+06
3.10007e+06
3.10007e+06
3.10007e+06
3.10482e+06
3.11703e+06
3.12067e+06
3.11194e+06
3.09911e+06
3.09478e+06
3.09649e+06
3.09779e+06
3.09826e+06
3.09931e+06
3.10001e+06
3.10011e+06
3.10016e+06
3.10016e+06
3.10014e+06
3.10013e+06
3.1001e+06
3.10009e+06
3.10008e+06
3.10008e+06
3.10007e+06
3.10007e+06
3.10007e+06
3.12751e+06
3.12617e+06
3.12613e+06
3.1154e+06
3.10023e+06
3.09478e+06
3.0962e+06
3.09744e+06
3.09816e+06
3.09925e+06
3.1e+06
3.10011e+06
3.10017e+06
3.10018e+06
3.10015e+06
3.10014e+06
3.10011e+06
3.10009e+06
3.10008e+06
3.10008e+06
3.10007e+06
3.10007e+06
3.10007e+06
3.12748e+06
3.12522e+06
3.12506e+06
3.11472e+06
3.10021e+06
3.09481e+06
3.0963e+06
3.09754e+06
3.09823e+06
3.09929e+06
3.10003e+06
3.10014e+06
3.10019e+06
3.10019e+06
3.10016e+06
3.10014e+06
3.10011e+06
3.10009e+06
3.10008e+06
3.10008e+06
3.10007e+06
3.10007e+06
3.10006e+06
3.12702e+06
3.12523e+06
3.125e+06
3.11455e+06
3.09941e+06
3.09416e+06
3.09639e+06
3.09774e+06
3.09829e+06
3.09932e+06
3.10006e+06
3.10017e+06
3.10021e+06
3.1002e+06
3.10018e+06
3.10015e+06
3.10012e+06
3.1001e+06
3.10009e+06
3.10008e+06
3.10008e+06
3.10007e+06
3.10006e+06
3.12849e+06
3.12661e+06
3.12681e+06
3.11799e+06
3.10399e+06
3.09806e+06
3.09802e+06
3.09808e+06
3.09851e+06
3.09946e+06
3.10012e+06
3.1002e+06
3.10024e+06
3.10023e+06
3.10019e+06
3.10016e+06
3.10013e+06
3.10011e+06
3.10009e+06
3.10008e+06
3.10008e+06
3.10007e+06
3.10006e+06
3.12504e+06
3.12321e+06
3.12227e+06
3.12102e+06
3.11977e+06
3.11204e+06
3.10051e+06
3.09702e+06
3.09868e+06
3.09972e+06
3.10021e+06
3.10024e+06
3.10026e+06
3.10024e+06
3.1002e+06
3.10017e+06
3.10014e+06
3.10011e+06
3.1001e+06
3.10009e+06
3.10008e+06
3.10007e+06
3.10006e+06
3.12619e+06
3.12439e+06
3.12415e+06
3.12475e+06
3.12543e+06
3.11854e+06
3.10667e+06
3.1015e+06
3.10066e+06
3.1003e+06
3.10046e+06
3.10034e+06
3.10031e+06
3.10026e+06
3.10022e+06
3.10018e+06
3.10015e+06
3.10012e+06
3.1001e+06
3.10009e+06
3.10008e+06
3.10007e+06
3.10006e+06
3.12425e+06
3.12255e+06
3.12196e+06
3.12243e+06
3.12195e+06
3.12091e+06
3.12009e+06
3.11387e+06
3.1038e+06
3.10002e+06
3.10044e+06
3.1004e+06
3.10032e+06
3.10027e+06
3.10023e+06
3.10019e+06
3.10016e+06
3.10013e+06
3.10011e+06
3.1001e+06
3.10009e+06
3.10008e+06
3.10006e+06
3.12462e+06
3.11938e+06
3.11734e+06
3.12006e+06
3.12244e+06
3.12373e+06
3.12471e+06
3.11801e+06
3.10565e+06
3.10054e+06
3.10069e+06
3.10052e+06
3.10038e+06
3.10029e+06
3.10025e+06
3.10021e+06
3.10017e+06
3.10013e+06
3.10012e+06
3.1001e+06
3.10009e+06
3.10008e+06
3.10007e+06
3.12125e+06
3.11832e+06
3.11651e+06
3.11937e+06
3.12232e+06
3.12376e+06
3.12415e+06
3.11753e+06
3.1058e+06
3.1007e+06
3.10077e+06
3.10056e+06
3.10041e+06
3.10031e+06
3.10026e+06
3.10022e+06
3.10018e+06
3.10014e+06
3.10012e+06
3.10011e+06
3.10009e+06
3.10008e+06
3.10007e+06
3.12048e+06
3.11807e+06
3.11676e+06
3.11968e+06
3.12234e+06
3.12375e+06
3.12416e+06
3.11758e+06
3.10596e+06
3.10084e+06
3.10088e+06
3.10064e+06
3.10047e+06
3.10035e+06
3.1003e+06
3.10024e+06
3.1002e+06
3.10016e+06
3.10013e+06
3.10012e+06
3.1001e+06
3.10008e+06
3.10007e+06
3.12069e+06
3.11815e+06
3.11686e+06
3.11953e+06
3.1224e+06
3.12384e+06
3.12419e+06
3.11765e+06
3.10599e+06
3.10085e+06
3.10093e+06
3.10066e+06
3.10049e+06
3.10037e+06
3.10031e+06
3.10026e+06
3.10021e+06
3.10017e+06
3.10015e+06
3.10012e+06
3.10011e+06
3.10009e+06
3.10007e+06
3.12052e+06
3.11777e+06
3.11667e+06
3.11909e+06
3.12144e+06
3.1231e+06
3.12389e+06
3.11764e+06
3.10602e+06
3.10092e+06
3.10101e+06
3.10074e+06
3.10056e+06
3.10042e+06
3.10036e+06
3.10029e+06
3.10024e+06
3.10019e+06
3.10016e+06
3.10013e+06
3.10011e+06
3.10009e+06
3.10007e+06
3.12377e+06
3.11946e+06
3.11811e+06
3.11854e+06
3.11865e+06
3.12097e+06
3.12368e+06
3.11808e+06
3.10609e+06
3.10098e+06
3.10102e+06
3.10075e+06
3.10059e+06
3.10045e+06
3.10038e+06
3.10031e+06
3.10025e+06
3.1002e+06
3.10017e+06
3.10014e+06
3.10012e+06
3.10009e+06
3.10007e+06
3.13466e+06
3.12873e+06
3.1243e+06
3.12247e+06
3.11864e+06
3.12028e+06
3.12276e+06
3.11738e+06
3.10583e+06
3.101e+06
3.1011e+06
3.10085e+06
3.10069e+06
3.10052e+06
3.10044e+06
3.10035e+06
3.10028e+06
3.10022e+06
3.10018e+06
3.10015e+06
3.10012e+06
3.1001e+06
3.10007e+06
3.11081e+06
3.1089e+06
3.11012e+06
3.11429e+06
3.11685e+06
3.11932e+06
3.11985e+06
3.11483e+06
3.10512e+06
3.10104e+06
3.10111e+06
3.10086e+06
3.1007e+06
3.10053e+06
3.10046e+06
3.10037e+06
3.1003e+06
3.10024e+06
3.10019e+06
3.10015e+06
3.10012e+06
3.1001e+06
3.10007e+06
3.10055e+06
3.05066e+06
3.02832e+06
3.05617e+06
3.10901e+06
3.12319e+06
3.11972e+06
3.11428e+06
3.10501e+06
3.10118e+06
3.10128e+06
3.10103e+06
3.10083e+06
3.10062e+06
3.10054e+06
3.10042e+06
3.10033e+06
3.10026e+06
3.1002e+06
3.10016e+06
3.10013e+06
3.1001e+06
3.10007e+06
3.01245e+06
3.02085e+06
3.01381e+06
3.04694e+06
3.10591e+06
3.1223e+06
3.11912e+06
3.11404e+06
3.10483e+06
3.10109e+06
3.10121e+06
3.10099e+06
3.10081e+06
3.1006e+06
3.10053e+06
3.10042e+06
3.10033e+06
3.10025e+06
3.1002e+06
3.10016e+06
3.10012e+06
3.10009e+06
3.10007e+06
3.02427e+06
3.03326e+06
3.02272e+06
3.05244e+06
3.10729e+06
3.12324e+06
3.11976e+06
3.11468e+06
3.10542e+06
3.10152e+06
3.10155e+06
3.10121e+06
3.10098e+06
3.10072e+06
3.10061e+06
3.10046e+06
3.10036e+06
3.10027e+06
3.10021e+06
3.10016e+06
3.10012e+06
3.10009e+06
3.10006e+06
3.03199e+06
3.0361e+06
3.02525e+06
3.05509e+06
3.11242e+06
3.12739e+06
3.12033e+06
3.11451e+06
3.10523e+06
3.10128e+06
3.10138e+06
3.10107e+06
3.10088e+06
3.10064e+06
3.10056e+06
3.10042e+06
3.10033e+06
3.10024e+06
3.10019e+06
3.10014e+06
3.10011e+06
3.10008e+06
3.10005e+06
3.0256e+06
3.03324e+06
3.02485e+06
3.05142e+06
3.10358e+06
3.11918e+06
3.11853e+06
3.11506e+06
3.10556e+06
3.10178e+06
3.10197e+06
3.10147e+06
3.10115e+06
3.10078e+06
3.10065e+06
3.10046e+06
3.10035e+06
3.10025e+06
3.10019e+06
3.10013e+06
3.1001e+06
3.10007e+06
3.10004e+06
3.04179e+06
3.04546e+06
3.0478e+06
3.04786e+06
3.04258e+06
3.06405e+06
3.11417e+06
3.12229e+06
3.10657e+06
3.10188e+06
3.10183e+06
3.10114e+06
3.10088e+06
3.10057e+06
3.10051e+06
3.10037e+06
3.10028e+06
3.1002e+06
3.10015e+06
3.10011e+06
3.10008e+06
3.10005e+06
3.10003e+06
3.02572e+06
3.03435e+06
3.04135e+06
3.03877e+06
3.03124e+06
3.05071e+06
3.10128e+06
3.11248e+06
3.10387e+06
3.10186e+06
3.10197e+06
3.10131e+06
3.10112e+06
3.10073e+06
3.10061e+06
3.10041e+06
3.1003e+06
3.10019e+06
3.10014e+06
3.10009e+06
3.10006e+06
3.10004e+06
3.10002e+06
3.05237e+06
3.05371e+06
3.05752e+06
3.05011e+06
3.04937e+06
3.04686e+06
3.04765e+06
3.06145e+06
3.09416e+06
3.10343e+06
3.10173e+06
3.1008e+06
3.10076e+06
3.10037e+06
3.10038e+06
3.10022e+06
3.10018e+06
3.1001e+06
3.10008e+06
3.10005e+06
3.10003e+06
3.10002e+06
3.1e+06
3.06818e+06
3.10651e+06
3.13035e+06
3.10077e+06
3.05902e+06
3.04184e+06
3.03932e+06
3.05317e+06
3.09296e+06
3.1041e+06
3.10235e+06
3.10113e+06
3.10112e+06
3.10055e+06
3.1005e+06
3.10026e+06
3.10018e+06
3.10008e+06
3.10005e+06
3.10002e+06
3.10001e+06
3.1e+06
3.09999e+06
3.13602e+06
3.12296e+06
3.13993e+06
3.10267e+06
3.06048e+06
3.03793e+06
3.04169e+06
3.05283e+06
3.09192e+06
3.10197e+06
3.1012e+06
3.0998e+06
3.10033e+06
3.09991e+06
3.10011e+06
3.09998e+06
3.10001e+06
3.09996e+06
3.09997e+06
3.09996e+06
3.09997e+06
3.09997e+06
3.09997e+06
3.15079e+06
3.13169e+06
3.15402e+06
3.11329e+06
3.07468e+06
3.04493e+06
3.04884e+06
3.05618e+06
3.09525e+06
3.1036e+06
3.10273e+06
3.10042e+06
3.10084e+06
3.10009e+06
3.10023e+06
3.09999e+06
3.1e+06
3.09993e+06
3.09994e+06
3.09993e+06
3.09995e+06
3.09995e+06
3.09996e+06
3.15146e+06
3.12521e+06
3.15914e+06
3.10388e+06
3.07371e+06
3.02602e+06
3.04349e+06
3.04481e+06
3.09142e+06
3.09853e+06
3.10045e+06
3.09817e+06
3.09976e+06
3.09924e+06
3.09976e+06
3.09965e+06
3.0998e+06
3.09979e+06
3.09986e+06
3.09988e+06
3.09991e+06
3.09993e+06
3.09994e+06
3.21041e+06
3.1573e+06
3.20501e+06
3.13875e+06
3.11002e+06
3.03468e+06
3.05304e+06
3.0473e+06
3.09473e+06
3.09965e+06
3.10148e+06
3.09841e+06
3.10006e+06
3.09934e+06
3.09982e+06
3.09965e+06
3.09978e+06
3.09977e+06
3.09983e+06
3.09986e+06
3.09989e+06
3.09991e+06
3.09993e+06
3.27888e+06
3.18544e+06
3.2486e+06
3.13535e+06
3.1181e+06
2.95608e+06
3.04251e+06
3.02689e+06
3.09085e+06
3.09402e+06
3.0991e+06
3.09608e+06
3.09901e+06
3.09865e+06
3.09944e+06
3.09941e+06
3.09964e+06
3.09968e+06
3.09978e+06
3.09982e+06
3.09987e+06
3.0999e+06
3.09992e+06
3.92842e+06
3.21761e+06
3.36346e+06
3.28935e+06
3.31383e+06
3.99939e+06
3.49019e+06
3.6139e+06
3.54963e+06
3.57665e+06
4.00035e+06
3.37124e+06
3.48268e+06
3.43523e+06
3.45559e+06
3.99681e+06
3.94818e+06
3.96015e+06
3.97874e+06
3.99797e+06
4.00118e+06
4.00114e+06
4.0012e+06
4.00146e+06
4.00181e+06
4.00178e+06
4.00177e+06
4.00181e+06
4.00189e+06
4.00199e+06
4.00193e+06
4.00192e+06
4.00195e+06
4.00212e+06
4.00022e+06
4.00204e+06
4.00208e+06
4.02648e+06
5.43122e+06
4.91942e+06
4.00221e+06
4.65723e+06
4.02462e+06
4.13761e+06
4.00199e+06
4.00251e+06
4.02304e+06
6.74738e+06
6.00716e+06
6.42761e+06
4.00207e+06
4.45237e+06
4.00334e+06
4.1003e+06
4.00162e+06
4.00227e+06
5.65229e+06
7.12869e+06
6.92946e+06
7.09885e+06
4.00221e+06
4.002e+06
4.00184e+06
4.13714e+06
4.00246e+06
7.00471e+06
4.91357e+06
7.52016e+06
6.10319e+06
6.67552e+06
4.00202e+06
7.55354e+06
4.00232e+06
5.64739e+06
4.52403e+06
4.00413e+06
4.00364e+06
6.19639e+06
4.8903e+06
5.54101e+06
4.00206e+06
4.00202e+06
4.00216e+06
4.0032e+06
4.02657e+06
4.0021e+06
4.00202e+06
4.00199e+06
4.00205e+06
4.00209e+06
4.00181e+06
4.1441e+06
4.18738e+06
4.10162e+06
4.10871e+06
4.14122e+06
4.00954e+06
4.67645e+06
4.23482e+06
4.00168e+06
4.01021e+06
4.29639e+06
4.1835e+06
4.20305e+06
4.15392e+06
4.01855e+06
4.02794e+06
4.01825e+06
4.01065e+06
4.019e+06
3.99449e+06
4.03257e+06
4.0189e+06
4.0272e+06
4.02094e+06
3.10007e+06
3.10018e+06
3.10016e+06
3.10003e+06
3.10012e+06
3.10006e+06
3.10014e+06
3.10016e+06
3.10022e+06
3.10019e+06
3.10016e+06
3.10015e+06
3.10015e+06
3.10012e+06
3.1001e+06
3.10008e+06
3.10007e+06
3.1004e+06
3.10035e+06
3.10013e+06
3.10013e+06
3.10024e+06
3.10032e+06
3.10028e+06
3.10025e+06
3.10025e+06
3.10023e+06
3.10021e+06
3.10019e+06
3.10017e+06
3.10014e+06
3.10011e+06
3.10009e+06
3.10007e+06
3.10006e+06
3.10056e+06
3.10036e+06
3.10015e+06
3.10015e+06
3.10029e+06
3.10021e+06
3.10026e+06
3.10026e+06
3.10025e+06
3.10023e+06
3.10021e+06
3.10019e+06
3.10018e+06
3.10015e+06
3.10011e+06
3.10009e+06
3.10007e+06
3.10006e+06
3.10005e+06
3.10066e+06
3.10045e+06
3.10019e+06
3.10021e+06
3.10031e+06
3.10025e+06
3.10026e+06
3.10024e+06
3.10023e+06
3.10023e+06
3.10022e+06
3.1002e+06
3.10018e+06
3.10015e+06
3.10011e+06
3.10009e+06
3.10007e+06
3.10006e+06
3.10005e+06
3.10074e+06
3.10047e+06
3.10023e+06
3.1002e+06
3.10035e+06
3.10032e+06
3.10026e+06
3.10023e+06
3.10024e+06
3.10025e+06
3.10023e+06
3.1002e+06
3.10018e+06
3.10015e+06
3.10011e+06
3.10008e+06
3.10007e+06
3.10006e+06
3.10005e+06
3.10086e+06
3.10062e+06
3.10045e+06
3.10031e+06
3.1001e+06
3.10013e+06
3.10024e+06
3.1003e+06
3.10027e+06
3.10025e+06
3.10024e+06
3.1002e+06
3.10018e+06
3.10015e+06
3.10011e+06
3.10008e+06
3.10007e+06
3.10006e+06
3.10005e+06
3.10062e+06
3.10054e+06
3.10055e+06
3.10034e+06
3.10006e+06
3.10011e+06
3.10019e+06
3.10024e+06
3.10025e+06
3.10025e+06
3.10025e+06
3.10021e+06
3.10019e+06
3.10015e+06
3.10011e+06
3.10008e+06
3.10007e+06
3.10006e+06
3.10005e+06
3.09927e+06
3.09879e+06
3.09874e+06
3.09916e+06
3.09958e+06
3.09991e+06
3.10003e+06
3.10013e+06
3.1002e+06
3.10027e+06
3.10026e+06
3.10021e+06
3.10019e+06
3.10015e+06
3.10011e+06
3.10008e+06
3.10007e+06
3.10006e+06
3.10005e+06
3.09782e+06
3.09328e+06
3.09234e+06
3.09489e+06
3.0987e+06
3.10009e+06
3.10012e+06
3.1001e+06
3.10018e+06
3.10026e+06
3.10026e+06
3.10021e+06
3.10018e+06
3.10014e+06
3.1001e+06
3.10008e+06
3.10006e+06
3.10005e+06
3.10005e+06
3.09154e+06
3.09065e+06
3.09056e+06
3.09371e+06
3.09818e+06
3.09996e+06
3.10013e+06
3.10013e+06
3.10016e+06
3.10025e+06
3.10026e+06
3.1002e+06
3.10017e+06
3.10013e+06
3.1001e+06
3.10007e+06
3.10006e+06
3.10005e+06
3.10005e+06
3.09083e+06
3.0904e+06
3.09063e+06
3.09381e+06
3.09817e+06
3.09998e+06
3.10014e+06
3.10013e+06
3.10016e+06
3.10024e+06
3.10024e+06
3.10019e+06
3.10016e+06
3.10012e+06
3.1001e+06
3.10008e+06
3.10006e+06
3.10006e+06
3.10005e+06
3.09054e+06
3.09015e+06
3.09048e+06
3.0937e+06
3.09822e+06
3.10005e+06
3.10004e+06
3.10003e+06
3.10012e+06
3.10021e+06
3.10021e+06
3.10016e+06
3.10015e+06
3.10012e+06
3.1001e+06
3.10008e+06
3.10007e+06
3.10006e+06
3.10005e+06
3.10005e+06
3.10005e+06
3.10005e+06
3.10004e+06
3.09038e+06
3.08979e+06
3.08973e+06
3.09232e+06
3.09667e+06
3.09868e+06
3.09946e+06
3.09992e+06
3.1001e+06
3.10017e+06
3.10018e+06
3.10014e+06
3.10013e+06
3.10012e+06
3.1001e+06
3.10008e+06
3.10007e+06
3.10006e+06
3.10005e+06
3.10005e+06
3.10005e+06
3.10005e+06
3.10005e+06
3.09088e+06
3.09045e+06
3.09058e+06
3.09106e+06
3.09197e+06
3.09456e+06
3.09836e+06
3.09993e+06
3.09998e+06
3.10009e+06
3.10013e+06
3.10011e+06
3.10012e+06
3.10011e+06
3.1001e+06
3.10009e+06
3.10007e+06
3.10006e+06
3.10006e+06
3.10005e+06
3.10005e+06
3.10005e+06
3.10005e+06
3.09026e+06
3.08956e+06
3.08952e+06
3.08939e+06
3.08995e+06
3.09227e+06
3.09625e+06
3.09844e+06
3.09931e+06
3.09989e+06
3.10008e+06
3.10011e+06
3.10012e+06
3.10011e+06
3.1001e+06
3.10009e+06
3.10007e+06
3.10006e+06
3.10006e+06
3.10006e+06
3.10005e+06
3.10005e+06
3.10005e+06
3.09163e+06
3.09066e+06
3.09054e+06
3.09014e+06
3.09055e+06
3.09118e+06
3.09242e+06
3.09493e+06
3.09823e+06
3.09986e+06
3.10011e+06
3.10013e+06
3.10014e+06
3.10011e+06
3.1001e+06
3.10009e+06
3.10007e+06
3.10006e+06
3.10006e+06
3.10006e+06
3.10006e+06
3.10006e+06
3.10005e+06
3.0918e+06
3.09454e+06
3.09661e+06
3.09432e+06
3.09076e+06
3.08998e+06
3.09087e+06
3.09355e+06
3.09755e+06
3.09967e+06
3.10006e+06
3.10012e+06
3.10014e+06
3.10012e+06
3.1001e+06
3.10009e+06
3.10008e+06
3.10007e+06
3.10006e+06
3.10006e+06
3.10006e+06
3.10006e+06
3.10006e+06
3.09769e+06
3.09614e+06
3.0973e+06
3.09476e+06
3.09072e+06
3.08983e+06
3.09094e+06
3.09356e+06
3.09743e+06
3.09957e+06
3.10001e+06
3.1001e+06
3.10013e+06
3.10012e+06
3.10011e+06
3.10009e+06
3.10008e+06
3.10007e+06
3.10007e+06
3.10006e+06
3.10006e+06
3.10006e+06
3.10006e+06
3.09719e+06
3.09536e+06
3.09663e+06
3.0943e+06
3.09067e+06
3.08984e+06
3.09094e+06
3.09353e+06
3.09736e+06
3.09951e+06
3.09997e+06
3.10009e+06
3.10013e+06
3.10011e+06
3.10011e+06
3.1001e+06
3.10008e+06
3.10007e+06
3.10007e+06
3.10007e+06
3.10006e+06
3.10006e+06
3.10006e+06
3.09625e+06
3.09489e+06
3.09624e+06
3.09401e+06
3.09024e+06
3.08951e+06
3.09087e+06
3.09348e+06
3.09733e+06
3.09951e+06
3.09995e+06
3.10008e+06
3.10012e+06
3.10012e+06
3.10011e+06
3.1001e+06
3.10008e+06
3.10007e+06
3.10007e+06
3.10007e+06
3.10007e+06
3.10006e+06
3.10006e+06
3.0967e+06
3.09528e+06
3.09632e+06
3.09423e+06
3.09092e+06
3.09021e+06
3.09116e+06
3.09359e+06
3.09743e+06
3.09955e+06
3.09997e+06
3.10008e+06
3.10013e+06
3.10012e+06
3.10011e+06
3.1001e+06
3.10009e+06
3.10008e+06
3.10007e+06
3.10007e+06
3.10007e+06
3.10007e+06
3.10006e+06
3.09469e+06
3.09399e+06
3.09417e+06
3.09401e+06
3.09504e+06
3.09382e+06
3.09115e+06
3.09284e+06
3.09727e+06
3.09943e+06
3.09994e+06
3.10008e+06
3.10014e+06
3.10014e+06
3.10012e+06
3.10011e+06
3.10009e+06
3.10008e+06
3.10007e+06
3.10007e+06
3.10007e+06
3.10007e+06
3.10006e+06
3.09458e+06
3.09363e+06
3.09375e+06
3.09415e+06
3.09593e+06
3.09489e+06
3.09212e+06
3.09356e+06
3.09752e+06
3.0995e+06
3.1e+06
3.10011e+06
3.10015e+06
3.10015e+06
3.10013e+06
3.10011e+06
3.10009e+06
3.10008e+06
3.10008e+06
3.10007e+06
3.10007e+06
3.10007e+06
3.10007e+06
3.1e+06
3.09929e+06
3.09876e+06
3.09722e+06
3.09583e+06
3.09506e+06
3.09594e+06
3.09714e+06
3.09807e+06
3.09927e+06
3.09997e+06
3.10008e+06
3.10015e+06
3.10015e+06
3.10014e+06
3.10012e+06
3.1001e+06
3.10008e+06
3.10008e+06
3.10007e+06
3.10007e+06
3.10007e+06
3.10007e+06
3.10482e+06
3.11703e+06
3.12067e+06
3.11194e+06
3.09911e+06
3.09478e+06
3.09649e+06
3.09779e+06
3.09826e+06
3.09931e+06
3.10001e+06
3.10011e+06
3.10016e+06
3.10016e+06
3.10014e+06
3.10013e+06
3.1001e+06
3.10009e+06
3.10008e+06
3.10008e+06
3.10007e+06
3.10007e+06
3.10007e+06
3.12751e+06
3.12617e+06
3.12613e+06
3.1154e+06
3.10023e+06
3.09478e+06
3.0962e+06
3.09744e+06
3.09816e+06
3.09925e+06
3.1e+06
3.10011e+06
3.10017e+06
3.10018e+06
3.10015e+06
3.10014e+06
3.10011e+06
3.10009e+06
3.10008e+06
3.10008e+06
3.10007e+06
3.10007e+06
3.10007e+06
3.12748e+06
3.12522e+06
3.12506e+06
3.11472e+06
3.10021e+06
3.09481e+06
3.0963e+06
3.09754e+06
3.09823e+06
3.09929e+06
3.10003e+06
3.10014e+06
3.10019e+06
3.10019e+06
3.10016e+06
3.10014e+06
3.10011e+06
3.10009e+06
3.10008e+06
3.10008e+06
3.10007e+06
3.10007e+06
3.10006e+06
3.12702e+06
3.12523e+06
3.125e+06
3.11455e+06
3.09941e+06
3.09416e+06
3.09639e+06
3.09774e+06
3.09829e+06
3.09932e+06
3.10006e+06
3.10017e+06
3.10021e+06
3.1002e+06
3.10018e+06
3.10015e+06
3.10012e+06
3.1001e+06
3.10009e+06
3.10008e+06
3.10008e+06
3.10007e+06
3.10006e+06
3.12849e+06
3.12661e+06
3.12681e+06
3.11799e+06
3.10399e+06
3.09806e+06
3.09802e+06
3.09808e+06
3.09851e+06
3.09946e+06
3.10012e+06
3.1002e+06
3.10024e+06
3.10023e+06
3.10019e+06
3.10016e+06
3.10013e+06
3.10011e+06
3.10009e+06
3.10008e+06
3.10008e+06
3.10007e+06
3.10006e+06
3.12504e+06
3.12321e+06
3.12227e+06
3.12102e+06
3.11977e+06
3.11204e+06
3.10051e+06
3.09702e+06
3.09868e+06
3.09972e+06
3.10021e+06
3.10024e+06
3.10026e+06
3.10024e+06
3.1002e+06
3.10017e+06
3.10014e+06
3.10011e+06
3.1001e+06
3.10009e+06
3.10008e+06
3.10007e+06
3.10006e+06
3.12619e+06
3.12439e+06
3.12415e+06
3.12475e+06
3.12543e+06
3.11854e+06
3.10667e+06
3.1015e+06
3.10066e+06
3.1003e+06
3.10046e+06
3.10034e+06
3.10031e+06
3.10026e+06
3.10022e+06
3.10018e+06
3.10015e+06
3.10012e+06
3.1001e+06
3.10009e+06
3.10008e+06
3.10007e+06
3.10006e+06
3.12425e+06
3.12255e+06
3.12196e+06
3.12243e+06
3.12195e+06
3.12091e+06
3.12009e+06
3.11387e+06
3.1038e+06
3.10002e+06
3.10044e+06
3.1004e+06
3.10032e+06
3.10027e+06
3.10023e+06
3.10019e+06
3.10016e+06
3.10013e+06
3.10011e+06
3.1001e+06
3.10009e+06
3.10008e+06
3.10006e+06
3.12462e+06
3.11938e+06
3.11734e+06
3.12006e+06
3.12244e+06
3.12373e+06
3.12471e+06
3.11801e+06
3.10565e+06
3.10054e+06
3.10069e+06
3.10052e+06
3.10038e+06
3.10029e+06
3.10025e+06
3.10021e+06
3.10017e+06
3.10013e+06
3.10012e+06
3.1001e+06
3.10009e+06
3.10008e+06
3.10007e+06
3.12125e+06
3.11832e+06
3.11651e+06
3.11937e+06
3.12232e+06
3.12376e+06
3.12415e+06
3.11753e+06
3.1058e+06
3.1007e+06
3.10077e+06
3.10056e+06
3.10041e+06
3.10031e+06
3.10026e+06
3.10022e+06
3.10018e+06
3.10014e+06
3.10012e+06
3.10011e+06
3.10009e+06
3.10008e+06
3.10007e+06
3.12048e+06
3.11807e+06
3.11676e+06
3.11968e+06
3.12234e+06
3.12375e+06
3.12416e+06
3.11758e+06
3.10596e+06
3.10084e+06
3.10088e+06
3.10064e+06
3.10047e+06
3.10035e+06
3.1003e+06
3.10024e+06
3.1002e+06
3.10016e+06
3.10013e+06
3.10012e+06
3.1001e+06
3.10008e+06
3.10007e+06
3.12069e+06
3.11815e+06
3.11686e+06
3.11953e+06
3.1224e+06
3.12384e+06
3.12419e+06
3.11765e+06
3.10599e+06
3.10085e+06
3.10093e+06
3.10066e+06
3.10049e+06
3.10037e+06
3.10031e+06
3.10026e+06
3.10021e+06
3.10017e+06
3.10015e+06
3.10012e+06
3.10011e+06
3.10009e+06
3.10007e+06
3.12052e+06
3.11777e+06
3.11667e+06
3.11908e+06
3.12144e+06
3.1231e+06
3.12389e+06
3.11764e+06
3.10602e+06
3.10092e+06
3.10101e+06
3.10074e+06
3.10056e+06
3.10042e+06
3.10036e+06
3.10029e+06
3.10024e+06
3.10019e+06
3.10016e+06
3.10013e+06
3.10011e+06
3.10009e+06
3.10007e+06
3.12377e+06
3.11946e+06
3.11811e+06
3.11854e+06
3.11865e+06
3.12097e+06
3.12368e+06
3.11808e+06
3.10609e+06
3.10098e+06
3.10102e+06
3.10075e+06
3.10059e+06
3.10045e+06
3.10038e+06
3.10031e+06
3.10025e+06
3.1002e+06
3.10017e+06
3.10014e+06
3.10012e+06
3.10009e+06
3.10007e+06
3.13466e+06
3.12873e+06
3.1243e+06
3.12247e+06
3.11864e+06
3.12028e+06
3.12276e+06
3.11738e+06
3.10583e+06
3.101e+06
3.1011e+06
3.10085e+06
3.10069e+06
3.10052e+06
3.10044e+06
3.10035e+06
3.10028e+06
3.10022e+06
3.10018e+06
3.10015e+06
3.10012e+06
3.1001e+06
3.10007e+06
3.11081e+06
3.1089e+06
3.11012e+06
3.11429e+06
3.11685e+06
3.11932e+06
3.11985e+06
3.11483e+06
3.10512e+06
3.10104e+06
3.10111e+06
3.10086e+06
3.1007e+06
3.10053e+06
3.10046e+06
3.10037e+06
3.1003e+06
3.10024e+06
3.10019e+06
3.10015e+06
3.10012e+06
3.1001e+06
3.10007e+06
3.10055e+06
3.05066e+06
3.02832e+06
3.05617e+06
3.10901e+06
3.12319e+06
3.11972e+06
3.11428e+06
3.10501e+06
3.10118e+06
3.10128e+06
3.10103e+06
3.10083e+06
3.10062e+06
3.10054e+06
3.10042e+06
3.10033e+06
3.10026e+06
3.1002e+06
3.10016e+06
3.10013e+06
3.1001e+06
3.10007e+06
3.01245e+06
3.02085e+06
3.01381e+06
3.04694e+06
3.10591e+06
3.1223e+06
3.11912e+06
3.11404e+06
3.10483e+06
3.10109e+06
3.10121e+06
3.10099e+06
3.10081e+06
3.1006e+06
3.10053e+06
3.10042e+06
3.10033e+06
3.10025e+06
3.1002e+06
3.10016e+06
3.10012e+06
3.10009e+06
3.10007e+06
3.02427e+06
3.03326e+06
3.02272e+06
3.05244e+06
3.10729e+06
3.12324e+06
3.11976e+06
3.11468e+06
3.10542e+06
3.10152e+06
3.10155e+06
3.10121e+06
3.10098e+06
3.10072e+06
3.10061e+06
3.10046e+06
3.10036e+06
3.10027e+06
3.10021e+06
3.10016e+06
3.10012e+06
3.10009e+06
3.10006e+06
3.03199e+06
3.0361e+06
3.02525e+06
3.0551e+06
3.11242e+06
3.12739e+06
3.12033e+06
3.11451e+06
3.10523e+06
3.10128e+06
3.10138e+06
3.10107e+06
3.10088e+06
3.10064e+06
3.10056e+06
3.10042e+06
3.10033e+06
3.10024e+06
3.10019e+06
3.10014e+06
3.10011e+06
3.10008e+06
3.10005e+06
3.0256e+06
3.03324e+06
3.02485e+06
3.05142e+06
3.10358e+06
3.11918e+06
3.11853e+06
3.11506e+06
3.10556e+06
3.10178e+06
3.10197e+06
3.10147e+06
3.10115e+06
3.10078e+06
3.10065e+06
3.10046e+06
3.10035e+06
3.10025e+06
3.10019e+06
3.10013e+06
3.1001e+06
3.10007e+06
3.10004e+06
3.04179e+06
3.04546e+06
3.0478e+06
3.04786e+06
3.04257e+06
3.06405e+06
3.11417e+06
3.12229e+06
3.10657e+06
3.10188e+06
3.10183e+06
3.10114e+06
3.10088e+06
3.10057e+06
3.10051e+06
3.10037e+06
3.10028e+06
3.1002e+06
3.10015e+06
3.10011e+06
3.10008e+06
3.10005e+06
3.10003e+06
3.02572e+06
3.03435e+06
3.04135e+06
3.03877e+06
3.03124e+06
3.05071e+06
3.10128e+06
3.11248e+06
3.10387e+06
3.10186e+06
3.10197e+06
3.10131e+06
3.10112e+06
3.10073e+06
3.10061e+06
3.10041e+06
3.1003e+06
3.10019e+06
3.10014e+06
3.10009e+06
3.10006e+06
3.10004e+06
3.10002e+06
3.05237e+06
3.05371e+06
3.05752e+06
3.05011e+06
3.04937e+06
3.04686e+06
3.04765e+06
3.06145e+06
3.09416e+06
3.10343e+06
3.10173e+06
3.1008e+06
3.10076e+06
3.10037e+06
3.10038e+06
3.10022e+06
3.10018e+06
3.1001e+06
3.10008e+06
3.10005e+06
3.10003e+06
3.10002e+06
3.1e+06
3.06818e+06
3.10651e+06
3.13035e+06
3.10077e+06
3.05902e+06
3.04184e+06
3.03932e+06
3.05317e+06
3.09296e+06
3.1041e+06
3.10235e+06
3.10113e+06
3.10112e+06
3.10055e+06
3.1005e+06
3.10026e+06
3.10018e+06
3.10008e+06
3.10005e+06
3.10002e+06
3.10001e+06
3.1e+06
3.09999e+06
3.13602e+06
3.12296e+06
3.13993e+06
3.10267e+06
3.06049e+06
3.03793e+06
3.04169e+06
3.05283e+06
3.09192e+06
3.10197e+06
3.1012e+06
3.0998e+06
3.10033e+06
3.09991e+06
3.10011e+06
3.09998e+06
3.10001e+06
3.09996e+06
3.09997e+06
3.09996e+06
3.09997e+06
3.09997e+06
3.09997e+06
3.15079e+06
3.13169e+06
3.15402e+06
3.11329e+06
3.07468e+06
3.04493e+06
3.04884e+06
3.05618e+06
3.09525e+06
3.1036e+06
3.10273e+06
3.10042e+06
3.10084e+06
3.10009e+06
3.10023e+06
3.09999e+06
3.1e+06
3.09993e+06
3.09994e+06
3.09993e+06
3.09995e+06
3.09995e+06
3.09996e+06
3.15146e+06
3.12521e+06
3.15914e+06
3.10388e+06
3.07371e+06
3.02602e+06
3.04349e+06
3.04481e+06
3.09142e+06
3.09853e+06
3.10045e+06
3.09817e+06
3.09976e+06
3.09924e+06