/*--------------------------------*- C++ -*----------------------------------*\
| =========                 |                                                 |
| \\      /  F ield         | OpenFOAM: The Open Source CFD Toolbox           |
|  \\    /   O peration     | Version:  v2012                                 |
|   \\  /    A nd           | Website:  www.openfoam.com                      |
|    \\/     M anipulation  |                                                 |
\*---------------------------------------------------------------------------*/
FoamFile
{
    version     2.0;
    format      ascii;
    class       surfaceScalarField;
    location    "0.4";
    object      phi;
}
// * * * * * * * * * * * * * * * * * * * * * * * * * * * * * * * * * * * * * //

dimensions      [0 3 -1 0 0 0 0];
oriented        oriented;


internalField   nonuniform List<scalar> 
8135
(
2.7679e-11
-2.253e-09
-8.84259e-18
2.92031e-11
-2.41114e-09
-1.0985e-17
3.05801e-11
-2.57016e-09
-1.43738e-17
3.1764e-11
-2.72967e-09
-1.30452e-17
3.27061e-11
-2.88642e-09
-1.48467e-17
3.33564e-11
-3.03767e-09
-9.49171e-18
3.36653e-11
-3.18222e-09
-2.0412e-18
3.35863e-11
-3.3135e-09
1.30163e-17
3.30772e-11
-3.42893e-09
4.6703e-17
3.21051e-11
-3.52175e-09
5.25458e-17
3.065e-11
-3.58574e-09
5.57029e-17
2.87078e-11
-3.61369e-09
5.80557e-17
2.62985e-11
-3.59401e-09
5.73028e-17
2.34685e-11
-3.51553e-09
5.56739e-17
2.02949e-11
-3.3637e-09
5.20098e-17
1.68885e-11
-3.12006e-09
4.75152e-17
1.33954e-11
-2.76408e-09
4.26949e-17
9.98265e-12
-2.27518e-09
3.77841e-17
6.81422e-12
-1.63771e-09
3.37323e-17
3.56276e-12
-8.68442e-10
2.98982e-17
-1.00144e-10
2.39918e-17
2.78033e-11
-2.25463e-09
-2.48031e-17
2.93286e-11
-2.41266e-09
-3.29168e-17
3.07054e-11
-2.57154e-09
-3.40002e-17
3.18874e-11
-2.73085e-09
-3.43301e-17
3.28258e-11
-2.88736e-09
-3.3015e-17
3.34704e-11
-3.03831e-09
-2.31137e-17
3.37715e-11
-3.18252e-09
-7.50405e-19
3.36823e-11
-3.31341e-09
3.31269e-17
3.31606e-11
-3.4284e-09
5.18606e-17
3.21736e-11
-3.52076e-09
5.84982e-17
3.07013e-11
-3.58427e-09
6.04515e-17
2.874e-11
-3.61173e-09
5.90282e-17
2.631e-11
-3.59158e-09
5.59383e-17
2.34583e-11
-3.51267e-09
5.05306e-17
2.0263e-11
-3.3605e-09
4.31748e-17
1.68355e-11
-3.11664e-09
3.54068e-17
1.33228e-11
-2.76056e-09
2.74499e-17
9.89404e-12
-2.27175e-09
2.09717e-17
6.71707e-12
-1.63453e-09
1.51143e-17
3.48019e-12
-8.65204e-10
8.91099e-18
-9.66624e-11
-5.30048e-19
2.80651e-11
-2.25627e-09
-4.81269e-17
2.95994e-11
-2.4142e-09
-5.837e-17
3.0982e-11
-2.57292e-09
-5.97413e-17
3.21659e-11
-2.73204e-09
-5.81691e-17
3.31018e-11
-2.8883e-09
-5.67936e-17
3.37391e-11
-3.03895e-09
-3.74589e-17
3.40277e-11
-3.18281e-09
2.60261e-19
3.39207e-11
-3.3133e-09
3.6931e-17
3.33755e-11
-3.42786e-09
5.04521e-17
3.23595e-11
-3.51975e-09
6.04141e-17
3.08531e-11
-3.58276e-09
7.09657e-17
2.8853e-11
-3.60973e-09
7.63403e-17
2.63803e-11
-3.58911e-09
7.42617e-17
2.34831e-11
-3.50978e-09
6.91175e-17
2.02408e-11
-3.35726e-09
5.65032e-17
1.67658e-11
-3.11316e-09
4.48017e-17
1.32043e-11
-2.757e-09
2.96003e-17
9.72073e-12
-2.26827e-09
1.90516e-17
6.47355e-12
-1.63129e-09
6.78071e-18
3.1842e-12
-8.61916e-10
-4.47737e-18
-9.34788e-11
-1.73101e-17
2.84628e-11
-2.25794e-09
-7.11962e-17
3.0013e-11
-2.41575e-09
-8.4368e-17
3.14068e-11
-2.57432e-09
-8.39915e-17
3.25963e-11
-2.73323e-09
-8.2875e-17
3.35313e-11
-2.88924e-09
-7.91779e-17
3.41607e-11
-3.03958e-09
-5.42456e-17
3.44337e-11
-3.18308e-09
-3.15322e-18
3.43029e-11
-3.31317e-09
4.84983e-17
3.37253e-11
-3.42728e-09
3.95088e-17
3.26686e-11
-3.51869e-09
5.05922e-17
3.11135e-11
-3.58121e-09
6.13637e-17
2.90575e-11
-3.60767e-09
6.42618e-17
2.65228e-11
-3.58657e-09
6.06802e-17
2.3559e-11
-3.50681e-09
5.20048e-17
2.02471e-11
-3.35395e-09
3.60442e-17
1.67012e-11
-3.10961e-09
2.06306e-17
1.30668e-11
-2.75337e-09
2.20144e-18
9.50344e-12
-2.2647e-09
-1.02829e-17
6.1648e-12
-1.62795e-09
-2.46188e-17
2.88033e-12
-8.58633e-10
-3.84232e-17
-9.06012e-11
-5.74557e-17
2.89973e-11
-2.25963e-09
-9.68791e-17
3.05699e-11
-2.41733e-09
-1.09993e-16
3.19798e-11
-2.57573e-09
-1.0963e-16
3.31782e-11
-2.73443e-09
-1.06229e-16
3.41138e-11
-2.89017e-09
-1.03029e-16
3.47343e-11
-3.0402e-09
-7.09044e-17
3.49882e-11
-3.18334e-09
-8.891e-18
3.48276e-11
-3.31301e-09
4.24683e-17
3.4209e-11
-3.42666e-09
3.35112e-17
3.31002e-11
-3.51758e-09
4.86864e-17
3.14824e-11
-3.57959e-09
6.75879e-17
2.9354e-11
-3.60554e-09
7.64251e-17
2.67388e-11
-3.58396e-09
7.32727e-17
2.36883e-11
-3.50376e-09
6.41029e-17
2.02859e-11
-3.35054e-09
4.28432e-17
1.6648e-11
-3.10598e-09
2.2999e-17
1.29215e-11
-2.74964e-09
-2.56718e-18
9.2647e-12
-2.26105e-09
-1.93504e-17
5.83678e-12
-1.62452e-09
-3.94159e-17
2.59709e-12
-8.55395e-10
-5.76999e-17
-8.80059e-11
-7.8493e-17
2.96731e-11
-2.26135e-09
-1.22716e-16
3.12746e-11
-2.41893e-09
-1.37002e-16
3.27059e-11
-2.57716e-09
-1.34589e-16
3.39167e-11
-2.73564e-09
-1.31772e-16
3.48542e-11
-2.89111e-09
-1.27128e-16
3.54651e-11
-3.04081e-09
-9.24287e-17
3.56968e-11
-3.18357e-09
-2.19862e-17
3.55006e-11
-3.31281e-09
4.37908e-17
3.48325e-11
-3.42599e-09
2.32277e-17
3.36604e-11
-3.51641e-09
4.19326e-17
3.19661e-11
-3.57789e-09
6.12738e-17
2.97493e-11
-3.60333e-09
6.7722e-17
2.70354e-11
-3.58124e-09
6.29011e-17
2.38785e-11
-3.5006e-09
5.00207e-17
2.03651e-11
-3.34703e-09
2.51321e-17
1.66154e-11
-3.10223e-09
1.12616e-18
1.27796e-11
-2.74581e-09
-2.80735e-17
9.02054e-12
-2.25729e-09
-4.71985e-17
5.51103e-12
-1.62101e-09
-6.93018e-17
2.32478e-12
-8.52211e-10
-8.97446e-17
-8.5684e-11
-1.16338e-16
3.04933e-11
-2.26312e-09
-1.49861e-16
3.21304e-11
-2.42057e-09
-1.62467e-16
3.35884e-11
-2.57862e-09
-1.60482e-16
3.48153e-11
-2.73687e-09
-1.55991e-16
3.57566e-11
-2.89206e-09
-1.5318e-16
3.63575e-11
-3.04141e-09
-1.15011e-16
3.65642e-11
-3.18378e-09
-3.9538e-17
3.63271e-11
-3.31258e-09
2.42798e-17
3.56015e-11
-3.42527e-09
1.31783e-17
3.43555e-11
-3.51516e-09
3.72077e-17
3.25716e-11
-3.57611e-09
6.45424e-17
3.02507e-11
-3.60101e-09
7.73007e-17
2.74206e-11
-3.57841e-09
7.39282e-17
2.41384e-11
-3.49732e-09
6.13627e-17
2.04945e-11
-3.34339e-09
3.23197e-17
1.66143e-11
-3.09835e-09
4.58757e-18
1.2654e-11
-2.74185e-09
-3.0772e-17
8.78593e-12
-2.25342e-09
-5.3689e-17
5.20329e-12
-1.61743e-09
-8.06637e-17
2.07697e-12
-8.49087e-10
-1.05093e-16
-8.36101e-11
-1.33117e-16
3.14608e-11
-2.26494e-09
-1.74107e-16
3.31402e-11
-2.42225e-09
-1.87013e-16
3.46303e-11
-2.58011e-09
-1.83355e-16
3.58769e-11
-2.73812e-09
-1.80218e-16
3.68239e-11
-2.893e-09
-1.77386e-16
3.74147e-11
-3.04201e-09
-1.40457e-16
3.75938e-11
-3.18396e-09
-6.24328e-17
3.73108e-11
-3.31229e-09
1.31993e-17
3.65201e-11
-3.42448e-09
-2.81286e-18
3.519e-11
-3.51383e-09
2.53423e-17
3.33038e-11
-3.57422e-09
5.31552e-17
3.08638e-11
-3.59857e-09
6.4584e-17
2.79006e-11
-3.57545e-09
6.08361e-17
2.44747e-11
-3.49389e-09
4.61839e-17
2.06817e-11
-3.33959e-09
1.49984e-17
1.66533e-11
-3.09432e-09
-1.55034e-17
1.25545e-11
-2.73775e-09
-5.34469e-17
8.5715e-12
-2.24944e-09
-7.78755e-17
4.92228e-12
-1.61379e-09
-1.0622e-16
1.85883e-12
-8.46027e-10
-1.32134e-16
-8.17548e-11
-1.65712e-16
3.25786e-11
-2.26682e-09
-1.96676e-16
3.43068e-11
-2.42398e-09
-2.07423e-16
3.58342e-11
-2.58164e-09
-2.04855e-16
3.71044e-11
-2.73939e-09
-2.00722e-16
3.8059e-11
-2.89396e-09
-2.01104e-16
3.86395e-11
-3.04259e-09
-1.64294e-16
3.87886e-11
-3.18411e-09
-8.71021e-17
3.84548e-11
-3.31196e-09
-1.68912e-17
3.75917e-11
-3.42362e-09
-1.97913e-17
3.61676e-11
-3.51241e-09
1.31305e-17
3.41667e-11
-3.57222e-09
4.82626e-17
3.15932e-11
-3.59599e-09
6.63222e-17
2.84804e-11
-3.57233e-09
6.53163e-17
2.48934e-11
-3.49031e-09
5.23644e-17
2.09333e-11
-3.33563e-09
1.90136e-17
1.67401e-11
-3.09013e-09
-1.3688e-17
1.24895e-11
-2.7335e-09
-5.60028e-17
8.38538e-12
-2.24534e-09
-8.32129e-17
4.67305e-12
-1.61008e-09
-1.15293e-16
1.67019e-12
-8.43027e-10
-1.44613e-16
-8.00885e-11
-1.78898e-16
3.38499e-11
-2.26877e-09
-2.15324e-16
3.56334e-11
-2.42577e-09
-2.26316e-16
3.72034e-11
-2.58321e-09
-2.2242e-16
3.85009e-11
-2.74069e-09
-2.20178e-16
3.94649e-11
-2.89493e-09
-2.21454e-16
4.00349e-11
-3.04316e-09
-1.88866e-16
4.01518e-11
-3.18423e-09
-1.14312e-16
3.97623e-11
-3.31157e-09
-3.65523e-17
3.88196e-11
-3.42267e-09
-4.27761e-17
3.72919e-11
-3.51088e-09
-6.66172e-18
3.51642e-11
-3.57009e-09
2.81799e-17
3.24428e-11
-3.59327e-09
4.53919e-17
2.91647e-11
-3.56906e-09
4.48893e-17
2.53994e-11
-3.48654e-09
3.13504e-17
2.12549e-11
-3.33149e-09
-2.63779e-18
1.68807e-11
-3.08575e-09
-3.644e-17
1.24655e-11
-2.72909e-09
-8.00079e-17
8.23326e-12
-2.24111e-09
-1.07601e-16
4.45785e-12
-1.6063e-09
-1.40309e-16
1.50882e-12
-8.40082e-10
-1.70384e-16
-7.8584e-11
-2.09335e-16
3.52783e-11
-2.27078e-09
-2.32931e-16
3.71237e-11
-2.42761e-09
-2.41824e-16
3.87413e-11
-2.58483e-09
-2.39506e-16
4.00696e-11
-2.74202e-09
-2.36433e-16
4.10449e-11
-2.89591e-09
-2.41444e-16
4.16043e-11
-3.04372e-09
-2.11095e-16
4.16864e-11
-3.18431e-09
-1.41577e-16
4.12366e-11
-3.31112e-09
-7.29326e-17
4.02071e-11
-3.42165e-09
-6.61094e-17
3.85662e-11
-3.50924e-09
-2.64727e-17
3.62999e-11
-3.56783e-09
1.4696e-17
3.34168e-11
-3.59039e-09
3.82537e-17
2.99574e-11
-3.5656e-09
4.11946e-17
2.59972e-11
-3.48258e-09
3.02181e-17
2.16516e-11
-3.32714e-09
-4.28619e-18
1.70806e-11
-3.08118e-09
-3.90078e-17
1.24878e-11
-2.7245e-09
-8.5286e-17
8.11924e-12
-2.23674e-09
-1.14788e-16
4.27747e-12
-1.60247e-09
-1.502e-16
1.37247e-12
-8.37181e-10
-1.83066e-16
-7.72163e-11
-2.21537e-16
3.68679e-11
-2.27288e-09
-2.47796e-16
3.87813e-11
-2.42953e-09
-2.57742e-16
4.04517e-11
-2.58651e-09
-2.54349e-16
4.18142e-11
-2.74339e-09
-2.53232e-16
4.28026e-11
-2.8969e-09
-2.5911e-16
4.3351e-11
-3.04427e-09
-2.34241e-16
4.33959e-11
-3.18436e-09
-1.70332e-16
4.28811e-11
-3.31061e-09
-9.75265e-17
4.17577e-11
-3.42052e-09
-9.45789e-17
3.9994e-11
-3.50748e-09
-5.2819e-17
3.75773e-11
-3.56541e-09
-1.28828e-17
3.45186e-11
-3.58733e-09
9.86505e-18
3.08627e-11
-3.56194e-09
1.3534e-17
2.6691e-11
-3.47841e-09
2.94848e-18
2.21276e-11
-3.32258e-09
-3.12254e-17
1.73442e-11
-3.0764e-09
-6.57101e-17
1.25607e-11
-2.71971e-09
-1.12241e-16
8.04617e-12
-2.23223e-09
-1.41172e-16
4.13174e-12
-1.59855e-09
-1.76641e-16
1.25879e-12
-8.34312e-10
-2.09418e-16
-7.59626e-11
-2.51452e-16
3.86229e-11
-2.27507e-09
-2.64132e-16
4.06107e-11
-2.43152e-09
-2.72459e-16
4.23386e-11
-2.58824e-09
-2.7087e-16
4.37388e-11
-2.74479e-09
-2.68582e-16
4.47418e-11
-2.8979e-09
-2.77849e-16
4.52789e-11
-3.04481e-09
-2.55668e-16
4.52841e-11
-3.18437e-09
-1.98557e-16
4.46993e-11
-3.31002e-09
-1.37065e-16
4.34748e-11
-3.4193e-09
-1.22199e-16
4.15789e-11
-3.50559e-09
-7.81669e-17
3.9e-11
-3.56283e-09
-3.28067e-17
3.5752e-11
-3.58408e-09
-4.35182e-18
3.18842e-11
-3.55807e-09
3.00482e-18
2.74847e-11
-3.47401e-09
-4.71978e-18
2.26868e-11
-3.31778e-09
-3.82308e-17
1.76753e-11
-3.07139e-09
-7.28239e-17
1.26874e-11
-2.71473e-09
-1.2074e-16
8.01592e-12
-2.22756e-09
-1.51006e-16
4.01993e-12
-1.59456e-09
-1.88234e-16
1.16548e-12
-8.31462e-10
-2.23092e-16
-7.48026e-11
-2.63349e-16
4.05481e-11
-2.27735e-09
-2.80411e-16
4.26164e-11
-2.43359e-09
-2.8993e-16
4.44067e-11
-2.59003e-09
-2.86844e-16
4.58478e-11
-2.74624e-09
-2.86053e-16
4.68668e-11
-2.89893e-09
-2.95447e-16
4.7392e-11
-3.04534e-09
-2.78549e-16
4.73548e-11
-3.18433e-09
-2.2779e-16
4.66951e-11
-3.30937e-09
-1.63697e-16
4.53623e-11
-3.41797e-09
-1.53798e-16
4.33244e-11
-3.50355e-09
-1.08584e-16
4.05716e-11
-3.56008e-09
-6.54312e-17
3.71204e-11
-3.58063e-09
-3.79691e-17
3.30254e-11
-3.55398e-09
-3.01473e-17
2.83817e-11
-3.46937e-09
-3.69194e-17
2.33327e-11
-3.31274e-09
-6.9655e-17
1.80771e-11
-3.06614e-09
-1.03037e-16
1.28704e-11
-2.70952e-09
-1.50616e-16
8.02963e-12
-2.22272e-09
-1.79554e-16
3.941e-12
-1.59048e-09
-2.16399e-16
1.09042e-12
-8.28617e-10
-2.50166e-16
-7.37181e-11
-2.9292e-16
4.26487e-11
-2.27973e-09
-3.00306e-16
4.48035e-11
-2.43575e-09
-3.07534e-16
4.66609e-11
-2.59189e-09
-3.05768e-16
4.8146e-11
-2.74772e-09
-3.03027e-16
4.91823e-11
-2.89997e-09
-3.14914e-16
4.96948e-11
-3.04586e-09
-3.00044e-16
4.96122e-11
-3.18425e-09
-2.55929e-16
4.88725e-11
-3.30863e-09
-2.03782e-16
4.74238e-11
-3.41652e-09
-1.83177e-16
4.52343e-11
-3.50136e-09
-1.36923e-16
4.22956e-11
-3.55714e-09
-8.91548e-17
3.86274e-11
-3.57696e-09
-5.68713e-17
3.42896e-11
-3.54964e-09
-4.54288e-17
2.93852e-11
-3.46446e-09
-4.95209e-17
2.40684e-11
-3.30742e-09
-8.08314e-17
1.85522e-11
-3.06062e-09
-1.13988e-16
1.31117e-11
-2.70409e-09
-1.6198e-16
8.08791e-12
-2.2177e-09
-1.91993e-16
3.89375e-12
-1.58629e-09
-2.29746e-16
1.03171e-12
-8.25761e-10
-2.64874e-16
-7.26926e-11
-3.04627e-16
4.49302e-11
-2.28223e-09
-3.20515e-16
4.71774e-11
-2.438e-09
-3.28603e-16
4.91065e-11
-2.59382e-09
-3.24564e-16
5.06384e-11
-2.74926e-09
-3.22626e-16
5.16931e-11
-2.90102e-09
-3.33589e-16
5.2192e-11
-3.04636e-09
-3.22967e-16
5.2061e-11
-3.18413e-09
-2.84532e-16
5.12358e-11
-3.30781e-09
-2.29896e-16
4.96635e-11
-3.41496e-09
-2.15404e-16
4.73124e-11
-3.49901e-09
-1.68782e-16
4.41756e-11
-3.55401e-09
-1.24284e-16
4.02764e-11
-3.57307e-09
-9.33262e-17
3.56802e-11
-3.54505e-09
-8.20884e-17
3.04984e-11
-3.45928e-09
-8.50069e-17
2.48964e-11
-3.30182e-09
-1.15599e-16
1.91029e-11
-3.05483e-09
-1.46926e-16
1.34126e-11
-2.6984e-09
-1.94432e-16
8.19101e-12
-2.21249e-09
-2.22588e-16
3.87693e-12
-1.58198e-09
-2.59724e-16
9.87673e-13
-8.22877e-10
-2.92754e-16
-7.17116e-11
-3.34112e-16
4.73984e-11
-2.28484e-09
-3.44423e-16
4.9744e-11
-2.44035e-09
-3.49631e-16
5.17492e-11
-2.59583e-09
-3.46397e-16
5.33306e-11
-2.75085e-09
-3.41714e-16
5.44045e-11
-2.9021e-09
-3.54117e-16
5.48887e-11
-3.04685e-09
-3.44381e-16
5.47057e-11
-3.18395e-09
-3.11358e-16
5.37894e-11
-3.30689e-09
-2.6835e-16
5.20856e-11
-3.41325e-09
-2.44142e-16
4.95626e-11
-3.49649e-09
-1.97673e-16
4.62154e-11
-3.55066e-09
-1.49263e-16
4.20707e-11
-3.56892e-09
-1.14568e-16
3.72002e-11
-3.54018e-09
-9.99818e-17
3.17239e-11
-3.45381e-09
-1.0082e-16
2.58194e-11
-3.29592e-09
-1.29588e-16
1.97311e-11
-3.04875e-09
-1.60829e-16
1.37742e-11
-2.69245e-09
-2.08127e-16
8.33888e-12
-2.20706e-09
-2.37455e-16
3.88931e-12
-1.57754e-09
-2.74828e-16
9.56843e-13
-8.19951e-10
-3.08692e-16
-7.07618e-11
-3.45984e-16
5.00597e-11
-2.28757e-09
-3.68112e-16
5.25095e-11
-2.44281e-09
-3.73872e-16
5.45949e-11
-2.59792e-09
-3.67669e-16
5.62285e-11
-2.75248e-09
-3.63169e-16
5.73221e-11
-2.9032e-09
-3.73643e-16
5.779e-11
-3.04732e-09
-3.66819e-16
5.75515e-11
-3.18371e-09
-3.38204e-16
5.65381e-11
-3.30588e-09
-2.91983e-16
5.46944e-11
-3.41141e-09
-2.74934e-16
5.19889e-11
-3.49379e-09
-2.28699e-16
4.84184e-11
-3.54709e-09
-1.84676e-16
4.40137e-11
-3.56452e-09
-1.51685e-16
3.88526e-11
-3.53502e-09
-1.38279e-16
3.30645e-11
-3.44802e-09
-1.37957e-16
2.68394e-11
-3.2897e-09
-1.66502e-16
2.04383e-11
-3.04235e-09
-1.95596e-16
1.41973e-11
-2.68621e-09
-2.42682e-16
8.53131e-12
-2.20139e-09
-2.69854e-16
3.92973e-12
-1.57294e-09
-3.06671e-16
9.37969e-13
-8.16966e-10
-3.37614e-16
-6.98313e-11
-3.75885e-16
5.29208e-11
-2.29044e-09
-3.9486e-16
5.54804e-11
-2.44537e-09
-3.97238e-16
5.76503e-11
-2.60009e-09
-3.91486e-16
5.93382e-11
-2.75418e-09
-3.83649e-16
6.04519e-11
-2.90432e-09
-3.94589e-16
6.09017e-11
-3.04777e-09
-3.87503e-16
6.06036e-11
-3.18342e-09
-3.6267e-16
5.94866e-11
-3.30477e-09
-3.27388e-16
5.74943e-11
-3.40943e-09
-3.01274e-16
5.45954e-11
-3.4909e-09
-2.56282e-16
5.07886e-11
-3.54329e-09
-2.08861e-16
4.61087e-11
-3.55984e-09
-1.73328e-16
4.06404e-11
-3.52955e-09
-1.56907e-16
3.45226e-11
-3.44191e-09
-1.55412e-16
2.79584e-11
-3.28314e-09
-1.81968e-16
2.12259e-11
-3.03562e-09
-2.11509e-16
1.46825e-11
-2.67967e-09
-2.58031e-16
8.76796e-12
-2.19549e-09
-2.86806e-16
3.99709e-12
-1.56818e-09
-3.23401e-16
9.29977e-13
-8.13906e-10
-3.54997e-16
-6.89092e-11
-3.88444e-16
5.59888e-11
-2.29344e-09
-4.20094e-16
5.86638e-11
-2.44805e-09
-4.23183e-16
6.0922e-11
-2.60236e-09
-4.14074e-16
6.26663e-11
-2.75592e-09
-4.05962e-16
6.38001e-11
-2.90546e-09
-4.14189e-16
6.42296e-11
-3.04821e-09
-4.08709e-16
6.38673e-11
-3.18306e-09
-3.87e-16
6.26401e-11
-3.30355e-09
-3.47429e-16
6.049e-11
-3.40728e-09
-3.29391e-16
5.73862e-11
-3.4878e-09
-2.84947e-16
5.33295e-11
-3.53924e-09
-2.43025e-16
4.8359e-11
-3.55488e-09
-2.09491e-16
4.25665e-11
-3.52376e-09
-1.95407e-16
3.61007e-11
-3.43545e-09
-1.92843e-16
2.91783e-11
-3.27622e-09
-2.19983e-16
2.20951e-11
-3.02854e-09
-2.47226e-16
1.52302e-11
-2.67281e-09
-2.94131e-16
9.04844e-12
-2.18931e-09
-3.2059e-16
4.09037e-12
-1.56322e-09
-3.56962e-16
9.31949e-13
-8.10756e-10
-3.85076e-16
-6.79855e-11
-4.19268e-16
5.92712e-11
-2.29659e-09
-4.48069e-16
6.20671e-11
-2.45085e-09
-4.4765e-16
6.44172e-11
-2.60471e-09
-4.38736e-16
6.62197e-11
-2.75773e-09
-4.26847e-16
6.73732e-11
-2.90661e-09
-4.34685e-16
6.77799e-11
-3.04862e-09
-4.28047e-16
6.73485e-11
-3.18264e-09
-4.08511e-16
6.60037e-11
-3.30221e-09
-3.79241e-16
6.36862e-11
-3.40497e-09
-3.52431e-16
6.03656e-11
-3.48448e-09
-3.10219e-16
5.6045e-11
-3.53492e-09
-2.65158e-16
5.07679e-11
-3.5496e-09
-2.3031e-16
4.46334e-11
-3.51763e-09
-2.13458e-16
3.78009e-11
-3.42862e-09
-2.10806e-16
3.05007e-11
-3.26892e-09
-2.35861e-16
2.30468e-11
-3.02109e-09
-2.64344e-16
1.58405e-11
-2.66561e-09
-3.10434e-16
9.3723e-12
-2.18285e-09
-3.39134e-16
4.20868e-12
-1.55807e-09
-3.74943e-16
9.43106e-13
-8.07498e-10
-4.03901e-16
-6.70511e-11
-4.32847e-16
6.27758e-11
-2.29989e-09
-4.74459e-16
6.56978e-11
-2.45378e-09
-4.74557e-16
6.81434e-11
-2.60716e-09
-4.61757e-16
7.00055e-11
-2.7596e-09
-4.49071e-16
7.11781e-11
-2.90779e-09
-4.5363e-16
7.15588e-11
-3.049e-09
-4.47451e-16
7.1053e-11
-3.18214e-09
-4.30088e-16
6.95829e-11
-3.30074e-09
-3.9541e-16
6.70878e-11
-3.40248e-09
-3.7751e-16
6.35379e-11
-3.48093e-09
-3.35866e-16
5.89387e-11
-3.53032e-09
-2.97401e-16
5.33385e-11
-3.54401e-09
-2.64664e-16
4.6844e-11
-3.51114e-09
-2.51388e-16
3.96252e-11
-3.4214e-09
-2.47686e-16
3.19271e-11
-3.26123e-09
-2.7431e-16
2.40819e-11
-3.01325e-09
-3.00346e-16
1.65138e-11
-2.65805e-09
-3.47575e-16
9.73912e-12
-2.17608e-09
-3.73769e-16
4.35119e-12
-1.55269e-09
-4.09857e-16
9.62784e-13
-8.04118e-10
-4.34987e-16
-6.60974e-11
-4.64858e-16
6.65109e-11
-2.30335e-09
-5.03586e-16
6.95642e-11
-2.45684e-09
-4.99601e-16
7.21084e-11
-2.60971e-09
-4.86484e-16
7.40312e-11
-2.76153e-09
-4.69614e-16
7.52217e-11
-2.90899e-09
-4.73007e-16
7.5573e-11
-3.04936e-09
-4.65138e-16
7.49869e-11
-3.18156e-09
-4.48568e-16
7.3383e-11
-3.29914e-09
-4.2386e-16
7.06996e-11
-3.3998e-09
-3.97131e-16
6.69073e-11
-3.47715e-09
-3.5866e-16
6.20145e-11
-3.52543e-09
-3.17048e-16
5.6074e-11
-3.53807e-09
-2.84226e-16
4.92008e-11
-3.50427e-09
-2.68231e-16
4.15758e-11
-3.41378e-09
-2.65603e-16
3.34588e-11
-3.25312e-09
-2.89959e-16
2.52012e-11
-3.005e-09
-3.18137e-16
1.72502e-11
-2.6501e-09
-3.6422e-16
1.01485e-11
-2.16898e-09
-3.93335e-16
4.51718e-12
-1.54706e-09
-4.28496e-16
9.90426e-13
-8.00601e-10
-4.54968e-16
-6.51166e-11
-4.7951e-16
7.04852e-11
-2.30697e-09
-5.30247e-16
7.36746e-11
-2.46003e-09
-5.267e-16
7.63203e-11
-2.61236e-09
-5.09291e-16
7.83047e-11
-2.76352e-09
-4.91084e-16
7.95114e-11
-2.9102e-09
-4.90907e-16
7.98293e-11
-3.04968e-09
-4.8254e-16
7.91564e-11
-3.18089e-09
-4.67695e-16
7.74098e-11
-3.2974e-09
-4.36558e-16
7.45267e-11
-3.39692e-09
-4.1952e-16
7.04783e-11
-3.4731e-09
-3.81363e-16
6.52759e-11
-3.52024e-09
-3.47475e-16
5.89775e-11
-3.53178e-09
-3.16641e-16
5.17062e-11
-3.497e-09
-3.05486e-16
4.36544e-11
-3.40573e-09
-3.0164e-16
3.50972e-11
-3.24456e-09
-3.28614e-16
2.64053e-11
-2.99631e-09
-3.54035e-16
1.80496e-11
-2.64176e-09
-4.02013e-16
1.05999e-11
-2.16154e-09
-4.2821e-16
4.70601e-12
-1.54118e-09
-4.64177e-16
1.02555e-12
-7.9693e-10
-4.8662e-16
-6.4101e-11
-5.12691e-16
7.47076e-11
-2.31077e-09
-5.5916e-16
7.80378e-11
-2.46337e-09
-5.51575e-16
8.07877e-11
-2.61512e-09
-5.33499e-16
8.28338e-11
-2.76557e-09
-5.10919e-16
8.40547e-11
-2.91143e-09
-5.08899e-16
8.43347e-11
-3.04997e-09
-4.98732e-16
8.35678e-11
-3.18013e-09
-4.8358e-16
8.16689e-11
-3.29551e-09
-4.62504e-16
7.8574e-11
-3.39383e-09
-4.36177e-16
7.42552e-11
-3.46879e-09
-4.02164e-16
6.87267e-11
-3.51471e-09
-3.64853e-16
6.2052e-11
-3.52511e-09
-3.35173e-16
5.43626e-11
-3.48932e-09
-3.21076e-16
4.58629e-11
-3.39724e-09
-3.19478e-16
3.68434e-11
-3.23555e-09
-3.43777e-16
2.76948e-11
-2.98717e-09
-3.7223e-16
1.89122e-11
-2.63298e-09
-4.18457e-16
1.10931e-11
-2.15373e-09
-4.48129e-16
4.9171e-12
-1.53501e-09
-4.82608e-16
1.06777e-12
-7.93091e-10
-5.07167e-16
-6.30438e-11
-5.28191e-16
7.91876e-11
-2.31474e-09
-5.85322e-16
8.2663e-11
-2.46685e-09
-5.78346e-16
8.55192e-11
-2.61798e-09
-5.55853e-16
8.76269e-11
-2.76768e-09
-5.31421e-16
8.88594e-11
-2.91266e-09
-5.25873e-16
8.90962e-11
-3.05021e-09
-5.14413e-16
8.82276e-11
-3.17927e-09
-5.01091e-16
8.6166e-11
-3.29345e-09
-4.72668e-16
8.28466e-11
-3.39052e-09
-4.56729e-16
7.82423e-11
-3.46419e-09
-4.22518e-16
7.23705e-11
-3.50885e-09
-3.94125e-16
6.53003e-11
-3.51804e-09
-3.66033e-16
5.71722e-11
-3.4812e-09
-3.58042e-16
4.82028e-11
-3.38828e-09
-3.54778e-16
3.86984e-11
-3.22605e-09
-3.8272e-16
2.90702e-11
-2.97755e-09
-4.07803e-16
1.98379e-11
-2.62376e-09
-4.56526e-16
1.16276e-11
-2.14553e-09
-4.82469e-16
5.14995e-12
-1.52854e-09
-5.18158e-16
1.11672e-12
-7.89068e-10
-5.38607e-16
-6.1938e-11
-5.62265e-16
8.39347e-11
-2.3189e-09
-6.13691e-16
8.75595e-11
-2.47048e-09
-6.02943e-16
9.05239e-11
-2.62095e-09
-5.7949e-16
9.26926e-11
-2.76986e-09
-5.50736e-16
9.39334e-11
-2.91391e-09
-5.42746e-16
9.41212e-11
-3.0504e-09
-5.29808e-16
9.31424e-11
-3.17829e-09
-5.15301e-16
9.09071e-11
-3.29122e-09
-4.97459e-16
8.73495e-11
-3.38697e-09
-4.71249e-16
8.24438e-11
-3.45929e-09
-4.42227e-16
7.62107e-11
-3.50262e-09
-4.09847e-16
6.87254e-11
-3.51056e-09
-3.84165e-16
6.01373e-11
-3.47261e-09
-3.72675e-16
5.06756e-11
-3.37882e-09
-3.728e-16
4.06632e-11
-3.21605e-09
-3.97327e-16
3.05318e-11
-2.96742e-09
-4.26215e-16
2.08266e-11
-2.61406e-09
-4.72131e-16
1.2203e-11
-2.13692e-09
-5.01819e-16
5.40411e-12
-1.52176e-09
-5.35124e-16
1.17213e-12
-7.84847e-10
-5.58768e-16
-6.07773e-11
-5.78105e-16
8.89593e-11
-2.32325e-09
-6.39336e-16
9.27372e-11
-2.47427e-09
-6.2949e-16
9.58112e-11
-2.62403e-09
-6.0176e-16
9.80397e-11
-2.77209e-09
-5.70604e-16
9.92849e-11
-2.91516e-09
-5.59492e-16
9.94171e-11
-3.05054e-09
-5.44555e-16
9.83187e-11
-3.1772e-09
-5.32525e-16
9.58978e-11
-3.28881e-09
-5.06398e-16
9.20877e-11
-3.38316e-09
-4.91122e-16
8.68639e-11
-3.45407e-09
-4.61072e-16
8.02509e-11
-3.49601e-09
-4.389e-16
7.23298e-11
-3.50265e-09
-4.1408e-16
6.32599e-11
-3.46355e-09
-4.09957e-16
5.32829e-11
-3.36885e-09
-4.07607e-16
4.27386e-11
-3.20551e-09
-4.36714e-16
3.208e-11
-2.95677e-09
-4.61182e-16
2.18784e-11
-2.60387e-09
-5.09901e-16
1.28191e-11
-2.12787e-09
-5.34466e-16
5.67917e-12
-1.51463e-09
-5.69182e-16
1.23374e-12
-7.80413e-10
-5.88794e-16
-5.95555e-11
-6.12493e-16
9.42717e-11
-2.3278e-09
-6.67888e-16
9.82062e-11
-2.47821e-09
-6.54531e-16
1.0139e-10
-2.62722e-09
-6.2536e-16
1.03677e-10
-2.77439e-09
-5.90137e-16
1.04922e-10
-2.91641e-09
-5.76014e-16
1.04991e-10
-3.05062e-09
-5.60358e-16
1.03763e-10
-3.17598e-09
-5.46371e-16
1.01144e-10
-3.28619e-09
-5.31695e-16
9.70662e-11
-3.37909e-09
-5.04492e-16
9.15068e-11
-3.44852e-09
-4.8073e-16
8.44943e-11
-3.489e-09
-4.53676e-16
7.61162e-11
-3.49428e-09
-4.32553e-16
6.65416e-11
-3.45398e-09
-4.23971e-16
5.60256e-11
-3.35834e-09
-4.26092e-16
4.49252e-11
-3.19442e-09
-4.50607e-16
3.37151e-11
-2.94557e-09
-4.79451e-16
2.2993e-11
-2.59315e-09
-5.23707e-16
1.34755e-11
-2.11836e-09
-5.51862e-16
5.97477e-12
-1.50714e-09
-5.82889e-16
1.30135e-12
-7.75752e-10
-6.07177e-16
-5.82665e-11
-6.27866e-16
9.98827e-11
-2.33255e-09
-6.95001e-16
1.03977e-10
-2.48231e-09
-6.81837e-16
1.07272e-10
-2.63052e-09
-6.48408e-16
1.09614e-10
-2.77674e-09
-6.10073e-16
1.10853e-10
-2.91766e-09
-5.93673e-16
1.10851e-10
-3.05062e-09
-5.75339e-16
1.09483e-10
-3.17462e-09
-5.64957e-16
1.06652e-10
-3.28337e-09
-5.40852e-16
1.0229e-10
-3.37474e-09
-5.24922e-16
9.63764e-11
-3.44261e-09
-4.98882e-16
8.8944e-11
-3.48158e-09
-4.83422e-16
8.00869e-11
-3.48543e-09
-4.62071e-16
6.99843e-11
-3.44389e-09
-4.62081e-16
5.89051e-11
-3.34727e-09
-4.60485e-16
4.72236e-11
-3.18274e-09
-4.90382e-16
3.5437e-11
-2.93379e-09
-5.1321e-16
2.41702e-11
-2.58189e-09
-5.60175e-16
1.41718e-11
-2.10837e-09
-5.81089e-16
6.29055e-12
-1.49927e-09
-6.135e-16
1.37474e-12
-7.70848e-10
-6.34116e-16
-5.69046e-11
-6.61693e-16
1.05803e-10
-2.3375e-09
-7.25444e-16
1.1006e-10
-2.48657e-09
-7.08207e-16
1.13465e-10
-2.63393e-09
-6.72504e-16
1.15859e-10
-2.77914e-09
-6.30723e-16
1.17087e-10
-2.9189e-09
-6.10838e-16
1.17005e-10
-3.05054e-09
-5.93036e-16
1.15484e-10
-3.17311e-09
-5.79874e-16
1.12426e-10
-3.28032e-09
-5.68327e-16
1.07763e-10
-3.37008e-09
-5.38043e-16
1.01477e-10
-3.43633e-09
-5.19417e-16
9.3603e-11
-3.47371e-09
-4.9775e-16
8.42441e-11
-3.47607e-09
-4.81419e-16
7.35895e-11
-3.43324e-09
-4.7554e-16
6.1922e-11
-3.33561e-09
-4.79427e-16
4.96342e-11
-3.17046e-09
-5.03058e-16
3.72459e-11
-2.92141e-09
-5.30576e-16
2.54099e-11
-2.57007e-09
-5.70696e-16
1.49077e-11
-2.09788e-09
-5.94554e-16
6.62619e-12
-1.491e-09
-6.21563e-16
1.45376e-12
-7.65689e-10
-6.48924e-16
-5.5464e-11
-6.75539e-16
1.12046e-10
-2.34267e-09
-7.54329e-16
1.16466e-10
-2.491e-09
-7.36109e-16
1.1998e-10
-2.63745e-09
-6.96651e-16
1.22423e-10
-2.78159e-09
-6.51232e-16
1.23632e-10
-2.92011e-09
-6.30602e-16
1.2346e-10
-3.05038e-09
-6.09434e-16
1.21773e-10
-3.17143e-09
-6.01411e-16
1.18473e-10
-3.27702e-09
-5.7886e-16
1.13491e-10
-3.36511e-09
-5.60067e-16
1.06811e-10
-3.42966e-09
-5.37375e-16
9.84741e-11
-3.46538e-09
-5.2876e-16
8.85896e-11
-3.4662e-09
-5.10668e-16
7.73583e-11
-3.42201e-09
-5.14589e-16
6.50771e-11
-3.32333e-09
-5.13033e-16
5.21572e-11
-3.15755e-09
-5.42708e-16
3.91417e-11
-2.90841e-09
-5.61999e-16
2.67117e-11
-2.55765e-09
-6.04275e-16
1.56828e-11
-2.08686e-09
-6.18001e-16
6.98138e-12
-1.48231e-09
-6.46225e-16
1.53825e-12
-7.60258e-10
-6.70744e-16
-5.39394e-11
-7.0771e-16
1.18621e-10
-2.34805e-09
-7.8539e-16
1.23206e-10
-2.4956e-09
-7.62954e-16
1.26828e-10
-2.64108e-09
-7.20811e-16
1.29314e-10
-2.78408e-09
-6.73485e-16
1.30497e-10
-2.9213e-09
-6.49139e-16
1.30223e-10
-3.05011e-09
-6.30302e-16
1.28357e-10
-3.16957e-09
-6.18416e-16
1.24798e-10
-3.27347e-09
-6.09666e-16
1.19478e-10
-3.35979e-09
-5.73437e-16
1.12383e-10
-3.42257e-09
-5.593e-16
1.0356e-10
-3.45656e-09
-5.42612e-16
9.31253e-11
-3.45577e-09
-5.30904e-16
8.12918e-11
-3.41019e-09
-5.26998e-16
6.83709e-11
-3.31042e-09
-5.31903e-16
5.47927e-11
-3.14398e-09
-5.5311e-16
4.1124e-11
-2.89475e-09
-5.77171e-16
2.80751e-11
-2.54461e-09
-6.09472e-16
1.64967e-11
-2.07529e-09
-6.2504e-16
7.35578e-12
-1.47318e-09
-6.45866e-16
1.62808e-12
-7.54544e-10
-6.79998e-16
-5.23254e-11
-7.18868e-16
1.25542e-10
-2.35365e-09
-8.14166e-16
1.30292e-10
-2.50036e-09
-7.8958e-16
1.3402e-10
-2.64482e-09
-7.45345e-16
1.36543e-10
-2.78661e-09
-6.94395e-16
1.3769e-10
-2.92246e-09
-6.71704e-16
1.37303e-10
-3.04973e-09
-6.4871e-16
1.35242e-10
-3.16752e-09
-6.43774e-16
1.31406e-10
-3.26964e-09
-6.21829e-16
1.25727e-10
-3.35412e-09
-5.97546e-16
1.18195e-10
-3.41505e-09
-5.7695e-16
1.08862e-10
-3.44724e-09
-5.74815e-16
9.78525e-11
-3.44477e-09
-5.59322e-16
8.53907e-11
-3.39773e-09
-5.66444e-16
7.18036e-11
-3.29684e-09
-5.63707e-16
5.75405e-11
-3.12973e-09
-5.91525e-16
4.31925e-11
-2.88041e-09
-6.04554e-16
2.94998e-11
-2.53093e-09
-6.38064e-16
1.73488e-11
-2.06315e-09
-6.39921e-16
7.74907e-12
-1.46359e-09
-6.61866e-16
1.72308e-12
-7.48531e-10
-6.94652e-16
-5.06167e-11
-7.48296e-16
1.3282e-10
-2.35948e-09
-8.42388e-16
1.37737e-10
-2.50528e-09
-8.14293e-16
1.41565e-10
-2.64866e-09
-7.67925e-16
1.44119e-10
-2.78917e-09
-7.17915e-16
1.4522e-10
-2.92356e-09
-6.91471e-16
1.44706e-10
-3.04922e-09
-6.73119e-16
1.42434e-10
-3.16525e-09
-6.62721e-16
1.38302e-10
-3.26552e-09
-6.55957e-16
1.32244e-10
-3.34807e-09
-6.1092e-16
1.24251e-10
-3.40707e-09
-6.00111e-16
1.14383e-10
-3.43738e-09
-5.87391e-16
1.02772e-10
-3.43317e-09
-5.79722e-16
8.96555e-11
-3.38462e-09
-5.76578e-16
7.53751e-11
-3.28257e-09
-5.8134e-16
6.04002e-11
-3.11476e-09
-5.98018e-16
4.53466e-11
-2.86537e-09
-6.1578e-16
3.0985e-11
-2.51658e-09
-6.35554e-16
1.82387e-11
-2.05042e-09
-6.37909e-16
8.1609e-12
-1.45352e-09
-6.5045e-16
1.82315e-12
-7.42207e-10
-6.96692e-16
-4.88083e-11
-7.55807e-16
1.40469e-10
-2.36553e-09
-8.6555e-16
1.4555e-10
-2.51037e-09
-8.35563e-16
1.49476e-10
-2.65259e-09
-7.9079e-16
1.52052e-10
-2.79176e-09
-7.37934e-16
1.53095e-10
-2.92462e-09
-7.16383e-16
1.52439e-10
-3.04858e-09
-6.92768e-16
1.49939e-10
-3.16276e-09
-6.91291e-16
1.45491e-10
-3.26108e-09
-6.68477e-16
1.39031e-10
-3.34162e-09
-6.3675e-16
1.30553e-10
-3.3986e-09
-6.16505e-16
1.20124e-10
-3.42696e-09
-6.19896e-16
1.07886e-10
-3.42094e-09
-6.05892e-16
9.40863e-11
-3.37083e-09
-6.15133e-16
7.90851e-11
-3.26758e-09
-6.0963e-16
6.33711e-11
-3.09906e-09
-6.33554e-16
4.75855e-11
-2.84959e-09
-6.37013e-16
3.25301e-11
-2.50153e-09
-6.56904e-16
1.91657e-11
-2.03706e-09
-6.41565e-16
8.5909e-12
-1.44296e-09
-6.55579e-16
1.92811e-12
-7.35557e-10
-7.02728e-16
-4.68952e-11
-7.81767e-16
1.48502e-10
-2.3718e-09
-8.83221e-16
1.53745e-10
-2.51562e-09
-8.53301e-16
1.57762e-10
-2.65661e-09
-8.08652e-16
1.60351e-10
-2.79436e-09
-7.611e-16
1.61325e-10
-2.9256e-09
-7.35683e-16
1.60511e-10
-3.04777e-09
-7.1946e-16
1.57763e-10
-3.16002e-09
-7.10185e-16
1.52978e-10
-3.2563e-09
-7.04252e-16
1.46091e-10
-3.33474e-09
-6.48903e-16
1.37103e-10
-3.38962e-09
-6.39941e-16
1.26087e-10
-3.41595e-09
-6.29525e-16
1.13192e-10
-3.40805e-09
-6.24939e-16
9.86828e-11
-3.35633e-09
-6.21037e-16
8.29329e-11
-3.25184e-09
-6.24296e-16
6.64524e-11
-3.08259e-09
-6.34111e-16
4.99083e-11
-2.83306e-09
-6.42396e-16
3.41342e-11
-2.48577e-09
-6.44488e-16
2.01292e-11
-2.02307e-09
-6.28484e-16
9.03864e-12
-1.43188e-09
-6.31473e-16
2.03784e-12
-7.2857e-10
-6.96894e-16
-4.48727e-11
-7.8527e-16
1.56932e-10
-2.3783e-09
-8.91814e-16
1.62334e-10
-2.52104e-09
-8.63463e-16
1.66435e-10
-2.66072e-09
-8.26391e-16
1.69027e-10
-2.79696e-09
-7.77396e-16
1.69916e-10
-2.9265e-09
-7.6077e-16
1.68927e-10
-3.04679e-09
-7.37672e-16
1.65912e-10
-3.15702e-09
-7.39441e-16
1.60765e-10
-3.25116e-09
-7.14094e-16
1.53428e-10
-3.32741e-09
-6.75123e-16
1.43903e-10
-3.3801e-09
-6.5326e-16
1.32271e-10