/*--------------------------------*- C++ -*----------------------------------*\
| =========                 |                                                 |
| \\      /  F ield         | OpenFOAM: The Open Source CFD Toolbox           |
|  \\    /   O peration     | Version:  v2012                                 |
|   \\  /    A nd           | Website:  www.openfoam.com                      |
|    \\/     M anipulation  |                                                 |
\*---------------------------------------------------------------------------*/
FoamFile
{
    version     2.0;
    format      ascii;
    class       volScalarField;
    location    "0.35";
    object      alpha.water;
}
// * * * * * * * * * * * * * * * * * * * * * * * * * * * * * * * * * * * * * //

dimensions      [0 0 0 0 0 0 0];


internalField   nonuniform List<scalar> 
2642
(
-2.13818e-85
-4.55903e-87
-8.1935e-89
-1.24273e-90
-1.59072e-92
-1.71837e-94
-1.56471e-96
-1.19926e-98
-7.72049e-101
-4.15984e-103
-1.86914e-105
-6.96703e-108
-2.14088e-110
-5.38066e-113
-1.09489e-115
-1.78181e-118
-2.28248e-121
-2.25438e-124
-1.67065e-127
-8.94788e-131
-3.27989e-134
-7.5531e-138
-9.36618e-142
-4.25073e-146
-4.24619e-84
-9.24488e-86
-1.69648e-87
-2.62696e-89
-3.43227e-91
-3.78356e-93
-3.51453e-95
-2.7468e-97
-1.80235e-99
-9.89303e-102
-4.52591e-104
-1.71655e-106
-5.36352e-109
-1.36972e-111
-2.82982e-114
-4.6717e-117
-6.06503e-120
-6.06452e-123
-4.54407e-126
-2.45681e-129
-9.07061e-133
-2.09643e-136
-2.58985e-140
-1.14247e-144
-8.23331e-83
-1.83225e-84
-3.43659e-86
-5.43851e-88
-7.26074e-90
-8.17641e-92
-7.75624e-94
-6.18818e-96
-4.14311e-98
-2.3192e-100
-1.08138e-102
-4.17739e-105
-1.32849e-107
-3.45021e-110
-7.24256e-113
-1.21363e-115
-1.5974e-118
-1.61711e-121
-1.22459e-124
-6.67565e-128
-2.47639e-131
-5.71684e-135
-6.96861e-139
-2.94481e-143
-1.55689e-81
-3.54461e-83
-6.80152e-85
-1.10107e-86
-1.50351e-88
-1.7313e-90
-1.67885e-92
-1.36869e-94
-9.35944e-97
-5.34823e-99
-2.5441e-101
-1.00195e-103
-3.24597e-106
-8.58028e-109
-1.83142e-111
-3.11695e-114
-4.16126e-117
-4.26585e-120
-3.26432e-123
-1.79296e-126
-6.67223e-130
-1.53387e-133
-1.83512e-137
-7.38848e-142
-2.86771e-80
-6.68509e-82
-1.31344e-83
-2.17699e-85
-3.04311e-87
-3.58641e-89
-3.55831e-91
-2.967e-93
-2.07416e-95
-1.21101e-97
-5.88234e-100
-2.3639e-102
-7.80812e-105
-2.10243e-107
-4.56635e-110
-7.89838e-113
-1.07009e-115
-1.1112e-118
-8.59279e-122
-4.75367e-125
-1.77292e-128
-4.05135e-132
-4.74411e-136
-1.81505e-140
-5.1391e-79
-1.22761e-80
-2.47156e-82
-4.1976e-84
-6.01159e-86
-7.2572e-88
-7.37333e-90
-6.29343e-92
-4.50159e-94
-2.68777e-96
-1.33426e-98
-5.47585e-101
-1.84562e-103
-5.06614e-106
-1.12049e-108
-1.97101e-111
-2.71145e-114
-2.85332e-117
-2.2302e-120
-1.2426e-123
-4.64255e-127
-1.05359e-130
-1.20622e-134
-4.38169e-139
-8.9496e-78
-2.19225e-79
-4.52614e-81
-7.88255e-83
-1.15748e-84
-1.43239e-86
-1.49145e-88
-1.30414e-90
-9.55217e-93
-5.8371e-95
-2.96374e-97
-1.24318e-99
-4.27897e-102
-1.1983e-104
-2.7008e-107
-4.8349e-110
-6.75768e-113
-7.21017e-116
-5.69849e-119
-3.1984e-122
-1.1971e-125
-2.69773e-129
-3.02009e-133
-1.04277e-137
-1.51277e-76
-3.80251e-78
-8.05624e-80
-1.43973e-81
-2.16914e-83
-2.75371e-85
-2.94054e-87
-2.63607e-89
-1.9786e-91
-1.23836e-93
-6.43596e-96
-2.7613e-98
-9.71316e-101
-2.77715e-103
-6.3832e-106
-1.16372e-108
-1.65364e-111
-1.78998e-114
-1.43124e-117
-8.09598e-121
-3.03681e-124
-6.79922e-128
-7.45154e-132
-2.45192e-136
-2.47906e-75
-6.39838e-77
-1.39199e-78
-2.55432e-80
-3.95121e-82
-5.14908e-84
-5.64281e-86
-5.18959e-88
-3.99444e-90
-2.56238e-92
-1.36408e-94
-5.99043e-97
-2.15504e-99
-6.29534e-102
-1.47665e-104
-2.74349e-107
-3.96621e-110
-4.35848e-113
-3.52803e-116
-2.01259e-119
-7.57136e-123
-1.68589e-126
-1.8122e-130
-5.70375e-135
-3.93394e-74
-1.04319e-75
-2.33184e-77
-4.39636e-79
-6.98652e-81
-9.35187e-83
-1.05243e-84
-9.93609e-87
-7.84768e-89
-5.16308e-91
-2.81725e-93
-1.26722e-95
-4.66546e-98
-1.39341e-100
-3.33778e-103
-6.32416e-106
-9.30808e-109
-1.03916e-111
-8.52189e-115
-4.90664e-118
-1.85311e-121
-4.10948e-125
-4.34319e-129
-1.31339e-133
-6.03778e-73
-1.64596e-74
-3.78246e-76
-7.33124e-78
-1.1976e-79
-1.64755e-81
-1.9051e-83
-1.84748e-85
-1.4982e-87
-1.01154e-89
-5.6609e-92
-2.60972e-94
-9.83926e-97
-3.00644e-99
-7.35939e-102
-1.423e-104
-2.13382e-107
-2.42196e-110
-2.01389e-113
-1.17144e-116
-4.44689e-120
-9.83812e-124
-1.0252e-127
-2.99352e-132
-8.95179e-72
-2.51017e-73
-5.93365e-75
-1.18297e-76
-1.98751e-78
-2.81168e-80
-3.34247e-82
-3.3313e-84
-2.77529e-86
-1.92405e-88
-1.10499e-90
-5.224e-93
-2.01818e-95
-6.31288e-98
-1.58018e-100
-3.1202e-103
-4.77025e-106
-5.50902e-109
-4.64875e-112
-2.73467e-115
-1.04483e-118
-2.31048e-122
-2.38125e-126
-6.74935e-131
-1.28053e-70
-3.69551e-72
-8.99067e-74
-1.84468e-75
-3.18926e-77
-4.64198e-79
-5.67615e-81
-5.81712e-83
-4.98125e-85
-3.54788e-87
-2.09211e-89
-1.01487e-91
-4.01977e-94
-1.28796e-96
-3.2987e-99
-6.65599e-102
-1.0382e-104
-1.2209e-107
-1.04647e-110
-6.23247e-114
-2.40009e-117
-5.3159e-121
-5.43597e-125
-1.50372e-129
-1.76512e-69
-5.24549e-71
-1.31411e-72
-2.77629e-74
-4.94182e-76
-7.40411e-78
-9.31722e-80
-9.82344e-82
-8.65053e-84
-6.33306e-86
-3.83638e-88
-1.91051e-90
-7.76266e-93
-2.5491e-95
-6.68408e-98
-1.37905e-100
-2.19616e-103
-2.63187e-106
-2.29347e-109
-1.38446e-112
-5.38173e-116
-1.19641e-119
-1.21784e-123
-3.30564e-128
-2.34153e-68
-7.16932e-70
-1.85046e-71
-4.02753e-73
-7.3846e-75
-1.13945e-76
-1.47631e-78
-1.60207e-80
-1.45148e-82
-1.09276e-84
-6.80346e-87
-3.47995e-89
-1.45117e-91
-4.88649e-94
-1.31253e-96
-2.77063e-99
-4.50777e-102
-5.50932e-105
-4.88544e-108
-2.99253e-111
-1.17601e-114
-2.62967e-118
-2.67306e-122
-7.15709e-127
-2.98536e-67
-9.42274e-69
-2.50706e-70
-5.62428e-72
-1.06276e-73
-1.68961e-75
-2.25494e-77
-2.51975e-79
-2.34979e-81
-1.82003e-83
-1.16513e-85
-6.12388e-88
-2.62217e-90
-9.05847e-93
-2.49373e-95
-5.38887e-98
-8.96314e-101
-1.11802e-103
-1.00976e-106
-6.28334e-110
-2.5e-113
-5.63467e-117
-5.73751e-121
-1.52299e-125
-3.65318e-66
-1.18932e-67
-3.26363e-69
-7.55032e-71
-1.47102e-72
-2.41078e-74
-3.31562e-76
-3.81674e-78
-3.66512e-80
-2.9218e-82
-1.92406e-84
-1.03959e-86
-4.57272e-89
-1.62137e-91
-4.57691e-94
-1.01305e-96
-1.72359e-99
-2.19578e-102
-2.02158e-105
-1.27929e-108
-5.16088e-112
-1.1748e-115
-1.20185e-119
-3.17773e-124
-4.28463e-65
-1.43957e-66
-4.07649e-68
-9.73054e-70
-1.95563e-71
-3.30528e-73
-4.68664e-75
-5.55999e-77
-5.50007e-79
-4.51455e-81
-3.05931e-83
-1.69994e-85
-7.68417e-88
-2.79771e-90
-8.10188e-93
-1.83769e-95
-3.20009e-98
-4.16645e-101
-3.91343e-104
-2.52113e-107
-1.03265e-110
-2.37864e-114
-2.45158e-118
-6.48518e-123
-4.80939e-64
-1.66863e-65
-4.87874e-67
-1.20218e-68
-2.49358e-70
-4.34835e-72
-6.3593e-74
-7.77825e-76
-7.92944e-78
-6.70404e-80
-4.67677e-82
-2.67351e-84
-1.2424e-86
-4.64658e-89
-1.38099e-91
-3.21148e-94
-5.7268e-97
-7.62495e-100
-7.31219e-103
-4.80027e-106
-1.99887e-109
-4.66742e-113
-4.85885e-117
-1.29115e-121
-5.15875e-63
-1.84942e-64
-5.58629e-66
-1.42176e-67
-3.0451e-69
-5.48125e-71
-8.27138e-73
-1.04348e-74
-1.09666e-76
-9.55368e-79
-6.86331e-81
-4.03779e-83
-1.9297e-85
-7.41631e-88
-2.26302e-90
-5.39777e-93
-9.86158e-96
-1.34351e-98
-1.31636e-101
-8.81386e-105
-3.73567e-108
-8.85694e-112
-9.33448e-116
-2.50064e-120
-5.27949e-62
-1.95697e-63
-6.11048e-65
-1.60716e-66
-3.55607e-68
-6.61035e-70
-1.02972e-71
-1.34038e-73
-1.4528e-75
-1.30454e-77
-9.65427e-80
-5.84717e-82
-2.87476e-84
-1.13571e-86
-3.55929e-89
-8.71102e-92
-1.63124e-94
-2.27513e-97
-2.27901e-100
-1.55763e-103
-6.72704e-107
-1.62184e-110
-1.73407e-114
-4.69805e-119
-5.14654e-61
-1.97381e-62
-6.37491e-64
-1.73374e-65
-3.96512e-67
-7.61531e-69
-1.22509e-70
-1.64606e-72
-1.84065e-74
-1.70421e-76
-1.29964e-78
-8.10587e-81
-4.10104e-83
-1.66596e-85
-5.36405e-88
-1.3475e-90
-2.5874e-93
-3.69616e-96
-3.78744e-99
-2.64432e-102
-1.1648e-105
-2.85943e-109
-3.10738e-113
-8.53751e-118
-4.7705e-60
-1.8944e-61
-6.3329e-63
-1.78195e-64
-4.2146e-66
-8.36704e-68
-1.39066e-69
-1.92949e-71
-2.22675e-73
-2.12653e-75
-1.67163e-77
-1.07398e-79
-5.59313e-82
-2.33694e-84
-7.73279e-87
-1.99452e-89
-3.92836e-92
-5.75009e-95
-6.03039e-98
-4.30375e-101
-1.93526e-104
-4.84299e-108
-5.35775e-112
-1.49635e-116
-4.19709e-59
-1.72708e-60
-5.98006e-62
-1.74199e-63
-4.26317e-65
-8.75278e-67
-1.50369e-68
-2.15525e-70
-2.56795e-72
-2.53033e-74
-2.05093e-76
-1.35771e-78
-7.28021e-81
-3.12949e-83
-1.06447e-85
-2.81981e-88
-5.69856e-91
-8.54989e-94
-9.18116e-97
-6.70159e-100
-3.07855e-103
-7.86149e-107
-8.86589e-111
-2.52222e-115
-3.49815e-58
-1.49286e-59
-5.35782e-61
-1.61678e-62
-4.09646e-64
-8.70246e-66
-1.54602e-67
-2.2901e-69
-2.81816e-71
-2.86611e-73
-2.39608e-75
-1.63485e-77
-9.02819e-80
-3.99365e-82
-1.3967e-84
-3.80081e-87
-7.88327e-90
-1.21273e-92
-1.33392e-95
-9.96313e-99
-4.67858e-102
-1.22018e-105
-1.4044e-109
-4.07646e-114
-2.75648e-57
-1.22106e-58
-4.54574e-60
-1.42193e-61
-3.7322e-63
-8.20824e-65
-1.50868e-66
-2.31058e-68
-2.9378e-70
-3.08484e-72
-2.66077e-74
-1.87162e-76
-1.06471e-78
-4.84768e-81
-1.74353e-83
-4.87505e-86
-1.03798e-88
-1.63765e-91
-1.84564e-94
-1.41113e-97
-6.77732e-101
-1.80643e-104
-2.12396e-108
-6.29872e-113
-2.04913e-56
-9.43077e-58
-3.64458e-59
-1.18258e-60
-3.21754e-62
-7.33014e-64
-1.39462e-65
-2.20935e-67
-2.90355e-69
-3.14901e-71
-2.80314e-73
-2.03331e-75
-1.19181e-77
-5.58638e-80
-2.06665e-82
-5.9384e-85
-1.29818e-87
-2.101e-90
-2.4267e-93
-1.89986e-96
-9.33606e-100
-2.54459e-103
-3.05862e-107
-9.27687e-112
-1.43385e-55
-6.86203e-57
-2.75507e-58
-9.28014e-60
-2.61913e-61
-6.18472e-63
-1.21871e-64
-1.99804e-66
-2.71528e-68
-3.04264e-70
-2.79609e-72
-2.09204e-74
-1.26374e-76
-6.09931e-79
-2.32127e-81
-6.85555e-84
-1.53895e-86
-2.55527e-89
-3.02528e-92
-2.42581e-95
-1.22005e-98
-3.40174e-102
-4.18264e-106
-1.29847e-110
-1.58524e-53
-9.42152e-55
-4.69178e-56
-1.95876e-57
-6.85517e-59
-2.00848e-60
-4.91931e-62
-1.00457e-63
-1.70531e-65
-2.39746e-67
-2.77678e-69
-2.63516e-71
-2.03422e-73
-1.26666e-75
-6.29585e-78
-2.46529e-80
-7.48423e-83
-1.7254e-85
-2.93944e-88
-3.56764e-91
-2.93033e-94
-1.5087e-97
-4.30443e-101
-5.416e-105
-1.72185e-109
-1.25998e-51
-9.34167e-53
-5.79093e-54
-3.00527e-55
-1.30624e-56
-4.75465e-58
-1.44742e-59
-3.67985e-61
-7.79262e-63
-1.37044e-64
-1.9941e-66
-2.38813e-68
-2.34113e-70
-1.8651e-72
-1.19737e-74
-6.13002e-77
-2.46998e-79
-7.70852e-82
-1.82515e-84
-3.1905e-87
-3.96994e-90
-3.34037e-93
-1.76072e-96
-5.14112e-100
-6.62107e-104
-2.15635e-108
-6.60697e-51
-5.12515e-52
-3.32004e-53
-1.79828e-54
-8.1479e-56
-3.08801e-57
-9.77667e-59
-2.58212e-60
-5.6742e-62
-1.03441e-63
-1.55858e-65
-1.9308e-67
-1.95592e-69
-1.60852e-71
-1.06488e-73
-5.61615e-76
-2.3288e-78
-7.47192e-81
-1.817e-83
-3.25914e-86
-4.15753e-89
-3.58358e-92
-1.93386e-95
-5.7791e-99
-7.61848e-103
-2.54206e-107
-3.20748e-50
-2.60868e-51
-1.76922e-52
-1.00183e-53
-4.7387e-55
-1.87226e-56
-6.17128e-58
-1.69473e-59
-3.86754e-61
-7.31323e-63
-1.14163e-64
-1.46359e-66
-1.53262e-68
-1.30144e-70
-8.88658e-73
-4.82877e-75
-2.06075e-77
-6.79775e-80
-1.69778e-82
-3.12463e-85
-4.0861e-88
-3.60769e-91
-1.99303e-94
-6.09514e-98
-8.22426e-102
-2.81131e-106
-1.4338e-49
-1.22584e-50
-8.72443e-52
-5.17524e-53
-2.55996e-54
-1.05599e-55
-3.62831e-57
-1.0371e-58
-2.46e-60
-4.82842e-62
-7.81373e-64
-1.03715e-65
-1.12309e-67
-9.85018e-70
-6.93875e-72
-3.88512e-74
-1.70656e-76
-5.78766e-79
-1.48456e-81
-2.80316e-84
-3.7574e-87
-3.39769e-90
-1.9212e-93
-6.0117e-97
-8.30093e-101
-2.90623e-105
-5.85927e-49
-5.28461e-50
-3.95909e-51
-2.46673e-52
-1.27889e-53
-5.518e-55
-1.97936e-56
-5.8962e-58
-1.45514e-59
-2.96707e-61
-4.98082e-63
-6.84863e-65
-7.67207e-67
-6.95204e-69
-5.05322e-71
-2.91589e-73
-1.31837e-75
-4.59687e-78
-1.21089e-80
-2.34551e-83
-3.22205e-86
-2.98341e-89
-1.72623e-92
-5.52529e-96
-7.80472e-100
-2.79757e-104
-2.16691e-48
-2.07233e-49
-1.64135e-50
-1.07806e-51
-5.87582e-53
-2.6583e-54
-9.97458e-56
-3.10135e-57
-7.97327e-59
-1.69057e-60
-2.94619e-62
-4.19894e-64
-4.86836e-66
-4.55931e-68
-3.42037e-70
-2.0343e-72
-9.46798e-75
-3.39399e-77
-9.18036e-80
-1.82393e-82
-2.56723e-85
-2.43339e-88
-1.4403e-91
-4.71384e-95
-6.80857e-99
-2.49729e-103
-7.14462e-48
-7.30356e-49
-6.15531e-50
-4.28451e-51
-2.46543e-52
-1.1735e-53
-4.6182e-55
-1.50184e-56
-4.02854e-58
-8.89292e-60
-1.61037e-61
-2.3806e-63
-2.85819e-65
-2.7675e-67
-2.14334e-69
-1.31412e-71
-6.29613e-74
-2.32028e-76
-6.44387e-79
-1.31288e-81
-1.89291e-84
-1.83612e-87
-1.11129e-90
-3.71713e-94
-5.48687e-98
-2.05794e-102
-2.05223e-47
-2.27285e-48
-2.05903e-49
-1.53106e-50
-9.36018e-52
-4.71031e-53
-1.95142e-54
-6.65603e-56
-1.86675e-57
-4.29697e-59
-8.09475e-61
-1.24228e-62
-1.54546e-64
-1.54785e-66
-1.23791e-68
-7.82536e-71
-3.8598e-73
-1.46226e-75
-4.16897e-78
-8.70846e-81
-1.28576e-83
-1.27581e-86
-7.89202e-90
-2.69643e-93
-4.06492e-97
-1.55778e-101
-4.94907e-47
-6.08208e-48
-6.0213e-49
-4.8428e-50
-3.17559e-51
-1.70176e-52
-7.4619e-54
-2.68006e-55
-7.88165e-57
-1.89574e-58
-3.72082e-60
-5.93451e-62
-7.65589e-64
-7.93549e-66
-6.55604e-68
-4.27383e-70
-2.17034e-72
-8.45204e-75
-2.4734e-77
-5.29579e-80
-8.00411e-83
-8.12086e-86
-5.13152e-89
-1.78978e-92
-2.75336e-96
-1.07709e-100
-9.41812e-47
-1.34371e-47
-1.49461e-48
-1.32623e-49
-9.46605e-51
-5.46079e-52
-2.55429e-53
-9.71513e-55
-3.00794e-56
-7.58154e-58
-1.5535e-59
-2.57873e-61
-3.45318e-63
-3.7068e-65
-3.16494e-67
-2.12818e-69
-1.11277e-71
-4.45447e-74
-1.33779e-76
-2.93513e-79
-4.53947e-82
-4.70698e-85
-3.03645e-88
-1.08032e-91
-1.6945e-95
-6.75935e-100
-1.26145e-46
-2.29587e-47
-3.0127e-48
-3.04744e-49
-2.42317e-50
-1.52971e-51
-7.72121e-53
-3.13493e-54
-1.02758e-55
-2.72465e-57
-5.84421e-59
-1.01152e-60
-1.40782e-62
-1.5664e-64
-1.38295e-66
-9.59521e-69
-5.16653e-71
-2.12583e-73
-6.55097e-76
-1.47238e-78
-2.32923e-81
-2.46695e-84
-1.62357e-87
-5.8876e-91
-9.4065e-95
-3.82171e-99
-8.91775e-47
-2.6912e-47
-4.58913e-48
-5.61145e-49
-5.1659e-50
-3.66017e-51
-2.02714e-52
-8.88414e-54
-3.10612e-55
-8.70811e-57
-1.96202e-58
-3.54923e-60
-5.14238e-62
-5.93695e-64
-5.42387e-66
-3.88454e-68
-2.15431e-70
-9.1113e-73
-2.88052e-75
-6.63019e-78
-1.07235e-80
-1.15942e-83
-7.77889e-87
-2.87261e-90
-4.66985e-94
-1.92998e-98
-3.51333e-57
-1.5653e-47
-4.56725e-48
-7.69315e-49
-8.80555e-50
-7.29061e-51
-4.53727e-52
-2.17817e-53
-8.19954e-55
-2.44564e-56
-5.81218e-58
-1.10199e-59
-1.66531e-61
-1.99754e-63
-1.88993e-65
-1.3979e-67
-7.98685e-70
-3.47217e-72
-1.12601e-74
-2.65337e-77
-4.3855e-80
-4.83731e-83
-3.30601e-86
-1.24204e-89
-2.05206e-93
-8.61505e-98
2.1046e-41
8.92398e-45
3.55394e-48
-1.69474e-48
-6.83248e-49
-1.14023e-49
-1.17855e-50
-8.51128e-52
-4.5546e-53
-1.86526e-54
-5.95764e-56
-1.49988e-57
-2.98924e-59
-4.72099e-61
-5.8915e-63
-5.77792e-65
-4.41617e-67
-2.60016e-69
-1.162e-71
-3.86488e-74
-9.32089e-77
-1.57353e-79
-1.7695e-82
-1.23085e-85
-4.69951e-89
-7.88116e-93
-3.35594e-97
2.23444e-19
3.26711e-20
1.43861e-21
1.06822e-23
7.74231e-27
1.1279e-34
9.60576e-38
8.29217e-37
1.50569e-36
2.40758e-37
2.38544e-39
3.36246e-42
3.61093e-45
3.13686e-48
-2.46152e-49
-1.06746e-49
-1.52767e-50
-1.32758e-51
-8.04708e-53
-3.61506e-54
-1.2425e-55
-3.32417e-57
-6.97926e-59
-1.15376e-60
-1.49966e-62
-1.52573e-64
-1.20564e-66
-7.31728e-69
-3.36175e-71
-1.14664e-73
-2.82926e-76
-4.87605e-79
-5.5864e-82
-3.95139e-85
-1.53155e-88
-2.60352e-92
-1.12259e-96
2.33282e-18
7.7272e-19
1.12765e-19
4.2695e-21
2.54624e-23
2.86788e-26
3.64129e-30
1.93008e-36
1.0908e-36
1.09254e-36
9.78132e-38
5.77662e-40
6.31644e-43
5.08313e-46
3.10643e-49
-6.21491e-50
-1.59228e-50
-1.73241e-51
-1.19921e-52
-5.91852e-54
-2.18935e-55
-6.22521e-57
-1.37727e-58
-2.38419e-60
-3.22924e-62
-3.40964e-64
-2.7865e-66
-1.74361e-68
-8.23551e-71
-2.88021e-73
-7.26868e-76
-1.27822e-78
-1.49089e-81
-1.07133e-84
-4.21045e-88
-7.24474e-92
-3.15754e-96
8.11513e-18
4.56192e-18
1.56194e-18
2.08717e-19
6.06002e-21
2.65513e-23
3.20853e-26
1.96722e-29
6.5889e-34
1.0908e-36
1.20177e-36
2.56572e-38
2.82685e-41
1.99868e-44
1.27232e-47
4.90671e-51
-1.2872e-50
-1.8992e-51
-1.50137e-52
-8.08068e-54
-3.19789e-55
-9.62663e-57
-2.23938e-58
-4.05509e-60
-5.721e-62
-6.2689e-64
-5.29905e-66
-3.41897e-68
-1.66023e-70
-5.95281e-73
-1.53607e-75
-2.75487e-78
-3.26896e-81
-2.38413e-84
-9.48923e-88
-1.65017e-91
-7.25607e-96
1.49605e-17
1.12382e-17
6.51975e-18
2.13867e-18
2.32628e-19
4.58883e-21
1.43746e-23
1.7846e-26
1.5654e-29
1.23253e-32
6.61409e-35
3.49519e-37
6.18119e-40
6.043e-43
4.2985e-46
2.32385e-49
-4.93907e-51
-1.6172e-51
-1.49711e-52
-8.78326e-54
-3.70405e-55
-1.17664e-56
-2.8724e-58
-5.43625e-60
-7.98763e-62
-9.08532e-64
-7.94612e-66
-5.28813e-68
-2.64061e-70
-9.70726e-73
-2.56078e-75
-4.68199e-78
-5.64839e-81
-4.17734e-84
-1.68172e-87
-2.951e-91
-1.30656e-95
2.01444e-17
1.72982e-17
1.3221e-17
7.49472e-18
2.12606e-18
1.63082e-19
1.9475e-21
4.48081e-24
5.63205e-27
6.1794e-30
1.34761e-32
3.69144e-35
3.76202e-38
2.57148e-41
1.38386e-44
6.05617e-48
1.94361e-51
-8.51899e-52
-1.05429e-52
-6.90634e-54
-3.12164e-55
-1.04904e-56
-2.69297e-58
-5.33743e-60
-8.18321e-62
-9.67813e-64
-8.77085e-66
-6.02746e-68
-3.09755e-70
-1.16806e-72
-3.15067e-75
-5.87171e-78
-7.19842e-81
-5.39404e-84
-2.19388e-87
-3.87848e-91
-1.72551e-95
2.37215e-17
2.13774e-17
1.84707e-17
1.39197e-17
7.17327e-18
1.5414e-18
7.10718e-20
4.72852e-22
8.19897e-25
8.91271e-28
7.59997e-31
5.11821e-34
3.09374e-37
1.62307e-40
7.20987e-44
2.67614e-47
7.92332e-51
-2.21404e-52
-4.51892e-53
-3.34719e-54
-1.64186e-55
-5.90161e-57
-1.6073e-58
-3.35951e-60
-5.40382e-62
-6.67341e-64
-6.28702e-66
-4.4725e-68
-2.36974e-70
-9.17784e-73
-2.53317e-75
-4.81345e-78
-5.99582e-81
-4.54969e-84
-1.8676e-87
-3.32139e-91
-1.48174e-95
2.67557e-17
2.42007e-17
2.17893e-17
1.86684e-17
1.32867e-17
5.62114e-18
7.76668e-19
1.83534e-20
6.37907e-23
6.18246e-26
1.14417e-29
1.07861e-36
7.76885e-40
4.81629e-43
2.47476e-46
1.04352e-49
3.64948e-53
7.42631e-79
5.21629e-78
-3.84872e-55
-3.03067e-56
-1.3566e-57
-4.22155e-59
-9.6825e-61
-1.67158e-62
-2.18557e-64
-2.15959e-66
-1.59988e-68
-8.77608e-71
-3.50095e-73
-9.907e-76
-1.92172e-78
-2.43359e-81
-1.86993e-84
-7.74229e-88
-1.38348e-91
-6.1771e-96
-1.28596e-85
-2.74542e-87
-4.94023e-89
-7.5021e-91
-9.61428e-93
-1.03978e-94
-9.47872e-97
-7.27292e-99
-4.68712e-101
-2.52809e-103
-1.1371e-105
-4.24264e-108
-1.30496e-110
-3.28284e-113
-6.68622e-116
-1.08908e-118
-1.3963e-121
-1.38027e-124
-1.02371e-127
-5.48724e-131
-2.01292e-134
-4.63891e-138
-5.7566e-142
-2.61439e-146
-2.5507e-84
-5.56069e-86
-1.02172e-87
-1.58408e-89
-2.07221e-91
-2.28701e-93
-2.12685e-95
-1.66413e-97
-1.09314e-99
-6.00664e-102
-2.75082e-104
-1.04436e-106
-3.26645e-109
-8.34975e-112
-1.72667e-114
-2.85312e-117
-3.70734e-120
-3.71022e-123
-2.78235e-126
-1.50553e-129
-5.56286e-133
-1.28669e-136
-1.5907e-140
-7.02219e-145
-4.93967e-83
-1.10075e-84
-2.06729e-86
-3.27573e-88
-4.37875e-90
-4.93697e-92
-4.68882e-94
-3.74522e-96
-2.51032e-98
-1.40675e-100
-6.56632e-103
-2.53922e-105
-8.08337e-108
-2.1014e-110
-4.41541e-113
-7.40577e-116
-9.75643e-119
-9.88555e-122
-7.49245e-125
-4.0878e-128
-1.51763e-131
-3.50625e-135
-4.27724e-139
-1.80882e-143
-9.32893e-82
-2.12686e-83
-4.08657e-85
-6.62426e-87
-9.05694e-89
-1.04421e-90
-1.01381e-92
-8.27491e-95
-5.66511e-97
-3.24083e-99
-1.54332e-101
-6.08456e-104
-1.97324e-106
-5.22124e-109
-1.11555e-111
-1.9004e-114
-2.53947e-117
-2.60565e-120
-1.99565e-123
-1.09707e-126
-4.08597e-130
-9.40074e-134
-1.12558e-137
-4.5352e-142
-1.71611e-80
-4.00616e-82
-7.88186e-84
-1.30815e-85
-1.83099e-87
-2.16065e-89
-2.14639e-91
-1.79187e-93
-1.25414e-95
-7.33081e-98
-3.56484e-100
-1.43414e-102
-4.74209e-105
-1.27819e-107
-2.77894e-110
-4.81142e-113
-6.5248e-116
-6.78177e-119
-5.249e-122
-2.90638e-125
-1.08488e-128
-2.48114e-132
-2.90773e-136
-1.11333e-140
-3.07127e-79
-7.34714e-81
-1.4813e-82
-2.51924e-84
-3.61278e-86
-4.36705e-88
-4.44259e-90
-3.79664e-92
-2.71896e-94
-1.62532e-96
-8.07768e-99
-3.31882e-101
-1.11982e-103
-3.0771e-106
-6.81267e-109
-1.1996e-111
-1.65186e-114
-1.73993e-117
-1.36122e-120
-7.5911e-124
-2.83864e-127
-6.44753e-131
-7.38762e-135
-2.68575e-139
-5.34123e-78
-1.31031e-79
-2.70919e-81
-4.72487e-83
-6.94757e-85
-8.60924e-87
-8.97587e-89
-7.85861e-91
-5.76317e-93
-3.52598e-95
-1.7924e-97
-7.52703e-100
-2.59366e-102
-7.27126e-105
-1.64057e-107
-2.93993e-110
-4.11321e-113
-4.3929e-116
-3.47518e-119
-1.95231e-122
-7.31368e-126
-1.64961e-129
-1.84828e-133
-6.38694e-138
-9.01578e-77
-2.26966e-78
-4.8158e-80
-8.61875e-82
-1.30036e-83
-1.65307e-85
-1.76759e-87
-1.58663e-89
-1.19242e-91
-7.47228e-94
-3.88816e-96
-1.67014e-98
-5.88158e-101
-1.68351e-103
-3.87368e-106
-7.06952e-109
-1.0056e-111
-1.0896e-114
-8.72076e-118
-4.93764e-121
-1.85382e-124
-4.15426e-128
-4.55677e-132
-1.50066e-136
-1.47534e-75
-3.81377e-77
-8.30965e-79
-1.5271e-80
-2.36564e-82
-3.08717e-84
-3.38783e-86
-3.11989e-88
-2.40451e-90
-1.54441e-92
-8.23183e-95
-3.61938e-97
-1.30358e-99
-3.81238e-102
-8.95231e-105
-1.66506e-107
-2.40966e-110
-2.65069e-113
-2.14777e-116
-1.2264e-119
-4.61803e-123
-1.02922e-126
-1.10731e-130
-3.48819e-135
-2.33771e-74
-6.20904e-76
-1.39008e-77
-2.62481e-79
-4.17743e-81
-5.59982e-83
-6.31073e-85
-5.96617e-87
-4.71846e-89
-3.10835e-91
-1.69823e-93
-7.64811e-96
-2.81914e-98
-8.42961e-101
-2.02152e-103
-3.83445e-106
-5.64971e-109
-6.31394e-112
-5.18319e-115
-2.98727e-118
-1.1293e-121
-2.5067e-125
-2.65167e-129
-8.02582e-134
-3.58247e-73
-9.7823e-75
-2.25163e-76
-4.37098e-78
-7.15111e-80
-9.85247e-82
-1.14091e-83
-1.10796e-85
-8.99712e-88
-6.08267e-90
-3.40847e-92
-1.57331e-94
-5.939e-97
-1.81686e-99
-4.45261e-102
-8.61925e-105
-1.2939e-107
-1.47019e-110
-1.22376e-113
-7.12554e-117
-2.70759e-120
-5.9959e-124
-6.25396e-128
-1.82778e-132
-5.30321e-72
-1.4896e-73
-3.52702e-75
-7.04298e-77
-1.18515e-78
-1.67915e-80
-1.9991e-82
-1.99528e-84
-1.66459e-86
-1.15559e-88
-6.64541e-91
-3.14578e-93
-1.21683e-95
-3.81089e-98
-9.55043e-101
-1.88799e-103
-2.88966e-106
-3.34085e-109
-2.82216e-112
-1.66189e-115
-6.35594e-119
-1.4069e-122
-1.45138e-126
-4.11757e-131
-7.57401e-71
-2.18962e-72
-5.33612e-74
-1.09666e-75
-1.89906e-77
-2.76841e-79
-3.39031e-81
-3.47965e-83
-2.98392e-85
-2.12826e-87
-1.25669e-89
-6.10418e-92
-2.4209e-94
-7.76642e-97
-1.99154e-99
-4.02323e-102
-6.28268e-105
-7.39658e-108
-6.34676e-111
-3.78395e-114
-1.45869e-117
-3.23406e-121
-3.31034e-125
-9.16591e-130
-1.04231e-69
-3.10306e-71
-7.78747e-73
-1.64804e-74
-2.93837e-76
-4.40949e-78
-5.55748e-80
-5.86831e-82
-5.17524e-84
-3.79422e-86
-2.30163e-88
-1.14776e-90
-4.66963e-93
-1.53537e-95
-4.03098e-98
-8.32679e-101
-1.32761e-103
-1.59284e-106
-1.38959e-109
-8.39741e-113
-3.26774e-116
-7.272e-120
-7.40964e-124
-2.0132e-128
-1.38035e-68
-4.23421e-70
-1.09486e-71
-2.38712e-73
-4.3843e-75
-6.77617e-77
-8.79348e-79
-9.55736e-81
-8.67207e-83
-6.53843e-85
-4.07661e-87
-2.08806e-89
-8.71915e-92
-2.93983e-94
-7.90657e-97
-1.67108e-99
-2.72211e-102
-3.33084e-105
-2.95703e-108
-1.81332e-111
-7.13376e-115
-1.59686e-118
-1.62487e-122
-4.35492e-127
-1.75683e-67
-5.55575e-69
-1.48094e-70
-3.32828e-72
-6.30005e-74
-1.00331e-75
-1.34121e-77
-1.5011e-79
-1.40202e-81
-1.08756e-83
-6.97247e-86
-3.66992e-88
-1.57358e-90
-5.44336e-93
-1.50048e-95
-3.24661e-98
-5.40667e-101
-6.75218e-104
-6.1055e-107
-3.80354e-110
-1.51503e-113
-3.41835e-117
-3.4844e-121
-9.25857e-126
-2.146e-66
-7.00024e-68
-1.92463e-69
-4.46085e-71
-8.70664e-73
-1.42937e-74
-1.96918e-76
-2.27051e-78
-2.18379e-80
-1.74358e-82
-1.1499e-84
-6.22214e-87
-2.74072e-89
-9.73128e-92
-2.75069e-94
-6.09631e-97
-1.03853e-99
-1.32467e-102
-1.22105e-105
-7.73605e-109
-3.1244e-112
-7.1201e-116
-7.29186e-120
-1.93002e-124
-2.51231e-65
-8.45822e-67
-2.39988e-68
-5.73944e-70
-1.15564e-71
-1.95669e-73
-2.77925e-75
-3.30271e-77
-3.27245e-79
-2.69034e-81
-1.82593e-83
-1.01612e-85
-4.59976e-88
-1.67708e-90
-4.86332e-93
-1.10458e-95
-1.92598e-98
-2.51076e-101
-2.36118e-104
-1.52295e-107
-6.24523e-111
-1.44018e-114
-1.48598e-118
-3.93508e-123
-2.81468e-64
-9.78622e-66
-2.86712e-67
-7.07883e-69
-1.47111e-70
-2.57007e-72
-3.76534e-74
-4.61347e-76
-4.71104e-78
-3.98948e-80
-2.78748e-82
-1.59592e-84
-7.42738e-87
-2.78187e-89
-8.27952e-92
-1.92803e-94
-3.44268e-97
-4.58968e-100
-4.40697e-103
-2.8966e-106
-1.20761e-109
-2.82307e-113
-2.94217e-117
-7.82684e-122
-3.01327e-63
-1.08261e-64
-3.277e-66
-8.3572e-68
-1.79345e-69
-3.23437e-71
-4.88974e-73
-6.17963e-75
-6.5058e-77
-5.67705e-79
-4.08498e-81
-2.40703e-83
-1.1521e-85
-4.43436e-88
-1.35505e-90
-3.23662e-93
-5.92126e-96
-8.07761e-99
-7.92462e-102
-5.31267e-105
-2.25448e-108
-5.3515e-112
-5.64655e-116
-1.51436e-120
-3.07761e-62
-1.14336e-63
-3.57783e-65
-9.43003e-67
-2.09076e-68
-3.8941e-70
-6.07748e-72
-7.92547e-74
-8.60542e-76
-7.74049e-78
-5.73789e-80
-3.4808e-82
-1.71401e-84
-6.78171e-87
-2.12851e-89
-5.21681e-92
-9.78268e-95
-1.36627e-97
-1.3704e-100
-9.37832e-104
-4.05533e-107
-9.78895e-111
-1.04788e-114
-2.84223e-119
-2.99391e-61
-1.15091e-62
-3.72552e-64
-1.0154e-65
-2.32711e-67
-4.47841e-69
-7.2185e-71
-9.71726e-73
-1.08857e-74
-1.00966e-76
-7.71289e-79
-4.81851e-81
-2.44177e-83
-9.9346e-86
-3.20358e-88
-8.05956e-91
-1.54977e-93
-2.21695e-96
-2.27477e-99
-1.59029e-102
-7.01409e-106
-1.724e-109
-1.87576e-113
-5.1597e-118
-2.76924e-60
-1.10235e-61
-3.69369e-63
-1.04166e-64
-2.46901e-66
-4.9118e-68
-8.18013e-70
-1.13717e-71
-1.31481e-73
-1.25792e-75
-9.90567e-78
-6.37495e-80
-3.32544e-82
-1.39167e-84
-4.6121e-87
-1.19139e-89
-2.34998e-92
-3.44465e-95
-3.61757e-98
-2.58525e-101
-1.16403e-104
-2.91669e-108
-3.2307e-112
-9.03383e-117
-2.43102e-59
-1.00287e-60
-3.48083e-62
-1.01632e-63
-2.49277e-65
-5.12894e-67
-8.82951e-69
-1.26807e-70
-1.5138e-72
-1.49441e-74
-1.21346e-76
-8.04712e-79
-4.32226e-81
-1.86103e-83
-6.3402e-86
-1.68213e-88
-3.40453e-91
-5.11547e-94
-5.50095e-97
-4.02084e-100
-1.84955e-103
-4.72924e-107
-5.34023e-111
-1.52109e-115
-2.02158e-58
-8.64977e-60
-3.11213e-61
-9.41375e-63
-2.39068e-64
-5.08998e-66
-9.06182e-68
-1.34508e-69
-1.65852e-71
-1.68997e-73
-1.41545e-75
-9.67492e-78
-5.3521e-80
-2.37151e-82
-8.30741e-85
-2.26427e-87
-4.70355e-90
-7.24659e-93
-7.98232e-96
-5.97045e-99
-2.80751e-102
-7.33181e-106
-8.44972e-110
-2.45574e-114
-1.58923e-57
-7.05903e-59
-2.63475e-60
-8.2621e-62
-2.17377e-63
-4.79174e-65
-8.82665e-67
-1.35469e-68
-1.72596e-70
-1.81592e-72
-1.56928e-74
-1.10588e-76
-6.30229e-79
-2.87442e-81
-1.03555e-83
-2.90022e-86
-6.18478e-89
-9.77285e-92
-1.10304e-94
-8.44579e-98
-4.06203e-101
-1.08417e-104
-1.27644e-108
-3.79025e-113
-1.17854e-56
-5.43934e-58
-2.10774e-59
-6.85678e-61
-1.87019e-62
-4.27073e-64
-8.14391e-66
-1.29298e-67
-1.70283e-69
-1.85054e-71
-1.65053e-73
-1.19951e-75
-7.04374e-78
-3.30747e-80
-1.22568e-82
-3.52782e-85
-7.72457e-88
-1.25212e-90
-1.44843e-93
-1.13566e-96
-5.58875e-100
-1.52537e-103
-1.83601e-107
-5.57603e-112
-8.22583e-56
-3.94827e-57
-1.58966e-58
-5.36896e-60
-1.51916e-61
-3.5961e-63
-7.10287e-65
-1.16713e-66
-1.58954e-68
-1.78492e-70
-1.6436e-72
-1.23215e-74
-7.45705e-77
-3.60562e-79
-1.37465e-81
-4.0668e-84
-9.1444e-87
-1.52078e-89
-1.80332e-92
-1.44818e-95
-7.29432e-99
-2.03672e-102
-2.50775e-106
-7.79569e-111
-9.0412e-54
-5.39085e-55
-2.69283e-56
-1.12752e-57
-3.95703e-59
-1.16245e-60
-2.85439e-62
-5.84316e-64
-9.94221e-66
-1.40089e-67
-1.62604e-69
-1.54632e-71
-1.19609e-73
-7.46218e-76
-3.71599e-78
-1.45772e-80
-4.4332e-83
-1.02376e-85
-1.74698e-88
-2.12374e-91
-1.74708e-94
-9.00859e-98
-2.57399e-101
-3.24331e-105
-1.03255e-109
-7.13971e-52
-5.31246e-53
-3.30441e-54
-1.7204e-55
-7.50056e-57
-2.73811e-58
-8.35849e-60
-2.13063e-61
-4.52331e-63
-7.97411e-65
-1.16298e-66
-1.39589e-68
-1.37136e-70
-1.09477e-72
-7.04228e-75
-3.61231e-77
-1.45823e-79
-4.55918e-82
-1.08136e-84
-1.89351e-87
-2.35997e-90
-1.98889e-93
-1.04998e-96
-3.07043e-100
-3.96008e-104
-1.29156e-108
-3.73165e-51
-2.90568e-52
-1.88903e-53
-1.02665e-54
-4.66663e-56
-1.774e-57
-5.63271e-59
-1.49174e-60
-3.28668e-62
-6.00661e-64
-9.07207e-66
-1.12645e-67
-1.14364e-69
-9.4251e-72
-6.25246e-74
-3.30407e-76
-1.37269e-78
-4.41245e-81
-1.07493e-83
-1.93145e-86
-2.46801e-89
-2.13079e-92
-1.15169e-95
-3.44701e-99
-4.55093e-103
-1.52072e-107
-1.80523e-50
-1.47413e-51
-1.00357e-52
-5.70317e-54
-2.70675e-55
-1.07285e-56
-3.54696e-58
-9.76838e-60
-2.2353e-61
-4.23776e-63
-6.63178e-65
-8.52227e-67
-8.94458e-69
-7.61206e-71
-5.20871e-73
-2.83608e-75
-1.21273e-77
-4.00801e-80
-1.00287e-82
-1.849e-85
-2.42214e-88
-2.14214e-91
-1.18533e-94
-3.63074e-98
-4.90653e-102
-1.67971e-106
-8.03834e-50
-6.90229e-51
-4.9325e-52
-2.93712e-53
-1.45808e-54
-6.0349e-56
-2.08013e-57
-5.96357e-59
-1.41857e-60
-2.79184e-62
-4.5296e-64
-6.02715e-66
-6.54198e-68
-5.7507e-70
-4.05978e-72
-2.27792e-74
-1.00262e-76
-3.40697e-79
-8.75555e-82
-1.65627e-84
-2.22403e-87
-2.01458e-90
-1.14103e-93
-3.57625e-97
-4.94584e-101
-1.73423e-105
-3.27031e-49
-2.9636e-50
-2.23014e-51
-1.39527e-52
-7.26178e-54
-3.14451e-55
-1.13176e-56
-3.38198e-58
-8.37129e-60
-1.71173e-61
-2.88117e-63
-3.97172e-65
-4.46013e-67
-4.05101e-69
-2.95117e-71
-1.70662e-73
-7.73235e-76
-2.70153e-78
-7.13011e-81
-1.38372e-83
-1.9043e-86
-1.76638e-89
-1.0238e-92
-3.2824e-96
-4.64403e-100
-1.66724e-104
-1.203e-48
-1.15667e-49
-9.20681e-51
-6.07493e-52
-3.32506e-53
-1.51018e-54
-5.68701e-56
-1.77417e-57
-4.57555e-59
-9.73018e-61
-1.70043e-62
-2.4299e-64
-2.82443e-66
-2.65154e-68
-1.99379e-70
-1.18848e-72
-5.5433e-75
-1.99124e-77
-5.39687e-80
-1.07431e-82
-1.51496e-85
-1.43859e-88
-8.52991e-92
-2.79645e-95
-4.04581e-99
-1.48634e-103
-3.93962e-48
-4.05284e-49
-3.43531e-50
-2.40372e-51
-1.38975e-52
-6.64356e-54
-2.62483e-55
-8.5669e-57
-2.30569e-58
-5.10567e-60
-9.27272e-62
-1.37458e-63
-1.6547e-65
-1.60622e-67
-1.24696e-69
-7.66295e-72
-3.6796e-74
-1.35893e-76
-3.7818e-79
-7.72046e-82
-1.11528e-84
-1.08384e-87
-6.57169e-91
-2.20201e-94
-3.25592e-98
-1.2232e-102
-1.12128e-47
-1.25179e-48
-1.14193e-49
-8.54366e-51
-5.25198e-52
-2.65598e-53
-1.10521e-54
-3.78477e-56
-1.06534e-57
-2.46046e-59
-4.64951e-61
-7.15631e-63
-8.92736e-65
-8.96454e-67
-7.18736e-69
-4.55431e-71
-2.25154e-73
-8.54871e-76
-2.44246e-78
-5.11248e-81
-7.56332e-84
-7.51923e-87
-4.65997e-90
-1.59502e-93
-2.40872e-97
-9.24647e-102
-2.66849e-47
-3.31592e-48
-3.31206e-49