/*--------------------------------*- C++ -*----------------------------------*\
| =========                 |                                                 |
| \\      /  F ield         | OpenFOAM: The Open Source CFD Toolbox           |
|  \\    /   O peration     | Version:  v2012                                 |
|   \\  /    A nd           | Website:  www.openfoam.com                      |
|    \\/     M anipulation  |                                                 |
\*---------------------------------------------------------------------------*/
FoamFile
{
    version     2.0;
    format      ascii;
    class       volVectorField;
    location    "0.35";
    object      U;
}
// * * * * * * * * * * * * * * * * * * * * * * * * * * * * * * * * * * * * * //

dimensions      [0 1 -1 0 0 0 0];


internalField   nonuniform List<vector> 
2642
(
(0.000547652 -0.00299206 -4.77994e-06)
(0.000545394 -0.00289484 -4.76028e-06)
(0.000540395 -0.00279258 -4.7167e-06)
(0.000532593 -0.0026857 -4.64865e-06)
(0.000521956 -0.00257468 -4.55587e-06)
(0.000508489 -0.00246 -4.43838e-06)
(0.000492228 -0.00234221 -4.29651e-06)
(0.000473247 -0.00222184 -4.13089e-06)
(0.000451662 -0.00209949 -3.94254e-06)
(0.00042762 -0.00197571 -3.73274e-06)
(0.00040131 -0.00185104 -3.50314e-06)
(0.00037296 -0.001726 -3.25574e-06)
(0.000342834 -0.00160105 -2.99281e-06)
(0.000311231 -0.00147661 -2.71699e-06)
(0.000278475 -0.00135299 -2.4311e-06)
(0.000244923 -0.0012304 -2.13827e-06)
(0.000210966 -0.00110895 -1.84188e-06)
(0.000177015 -0.000988511 -1.54553e-06)
(0.000143519 -0.000868553 -1.25315e-06)
(0.000110983 -0.000747719 -9.69132e-07)
(8.00085e-05 -0.000622994 -6.98724e-07)
(5.12811e-05 -0.00048823 -4.47908e-07)
(2.59943e-05 -0.000332292 -2.27215e-07)
(4.72272e-06 -0.000134889 -4.44371e-08)
(0.00055143 -0.00300922 -4.81277e-06)
(0.000548881 -0.00290915 -4.79056e-06)
(0.000543598 -0.00280413 -4.7445e-06)
(0.000535518 -0.00269464 -4.67402e-06)
(0.00052461 -0.00258113 -4.57887e-06)
(0.000510878 -0.00246412 -4.45906e-06)
(0.000494358 -0.00234416 -4.31493e-06)
(0.000475127 -0.00222181 -4.14713e-06)
(0.0004533 -0.00209767 -3.95668e-06)
(0.000429027 -0.00197229 -3.74487e-06)
(0.000402496 -0.00184622 -3.51336e-06)
(0.000373938 -0.00171998 -3.26415e-06)
(0.000343617 -0.00159404 -2.99954e-06)
(0.000311831 -0.0014688 -2.72215e-06)
(0.000278907 -0.00134458 -2.43481e-06)
(0.000245201 -0.00122158 -2.14065e-06)
(0.000211102 -0.00109991 -1.84304e-06)
(0.00017702 -0.000979437 -1.54557e-06)
(0.000143404 -0.000859621 -1.25216e-06)
(0.000110754 -0.000739122 -9.67177e-07)
(7.96682e-05 -0.000614944 -6.9583e-07)
(5.08208e-05 -0.000480997 -4.44013e-07)
(2.54276e-05 -0.000326159 -2.22481e-07)
(4.15226e-06 -0.000130958 -4.10321e-08)
(0.000557929 -0.00302367 -4.86955e-06)
(0.000555027 -0.00292144 -4.84425e-06)
(0.000549371 -0.00281427 -4.79492e-06)
(0.0005409 -0.00270263 -4.72103e-06)
(0.000529586 -0.00258701 -4.62233e-06)
(0.000515436 -0.00246796 -4.49887e-06)
(0.000498491 -0.00234605 -4.35102e-06)
(0.00047883 -0.00222185 -4.17946e-06)
(0.000456575 -0.00209599 -3.98527e-06)
(0.00043188 -0.00196903 -3.76977e-06)
(0.000404937 -0.00184153 -3.53466e-06)
(0.000375981 -0.00171403 -3.28198e-06)
(0.000345279 -0.00158701 -3.01404e-06)
(0.000313133 -0.00146088 -2.7335e-06)
(0.00027987 -0.00133595 -2.4432e-06)
(0.000245848 -0.00121244 -2.14628e-06)
(0.000211456 -0.00109045 -1.84612e-06)
(0.000177104 -0.000969842 -1.5463e-06)
(0.000143238 -0.000850092 -1.25072e-06)
(0.000110357 -0.000729866 -9.63722e-07)
(7.90575e-05 -0.000606188 -6.90515e-07)
(5.00132e-05 -0.000473036 -4.36981e-07)
(2.44798e-05 -0.000319325 -2.14271e-07)
(3.60564e-06 -0.00012665 -3.64386e-08)
(0.000567027 -0.00303755 -4.94896e-06)
(0.000563667 -0.00293311 -4.91967e-06)
(0.000557519 -0.00282377 -4.86606e-06)
(0.000548528 -0.00271002 -4.78762e-06)
(0.000536667 -0.00259237 -4.68415e-06)
(0.000521949 -0.00247137 -4.55573e-06)
(0.00050442 -0.00234761 -4.40279e-06)
(0.000484167 -0.00222168 -4.22606e-06)
(0.000461316 -0.00209422 -4.02667e-06)
(0.000436029 -0.00196581 -3.80601e-06)
(0.000408505 -0.00183701 -3.56582e-06)
(0.000378984 -0.00170838 -3.30821e-06)
(0.000347739 -0.00158039 -3.03553e-06)
(0.000315076 -0.00145346 -2.75047e-06)
(0.000281325 -0.0013279 -2.45591e-06)
(0.000246847 -0.00120393 -2.15501e-06)
(0.000212032 -0.00108166 -1.85115e-06)
(0.00017729 -0.000960947 -1.54793e-06)
(0.000143068 -0.000841269 -1.24924e-06)
(0.000109864 -0.000721303 -9.59423e-07)
(7.8279e-05 -0.000598094 -6.8372e-07)
(4.90103e-05 -0.00046569 -4.28226e-07)
(2.33781e-05 -0.000313107 -2.04634e-07)
(3.14463e-06 -0.000122943 -3.20343e-08)
(0.000578603 -0.00305156 -5.05002e-06)
(0.000574694 -0.00294485 -5.01594e-06)
(0.000567947 -0.00283328 -4.95709e-06)
(0.000558311 -0.00271736 -4.87302e-06)
(0.000545767 -0.00259762 -4.76359e-06)
(0.000530333 -0.00247463 -4.62893e-06)
(0.000512067 -0.002349 -4.46955e-06)
(0.000491061 -0.00222133 -4.28625e-06)
(0.000467452 -0.00209227 -4.08024e-06)
(0.000441409 -0.0019624 -3.85299e-06)
(0.000413142 -0.00183231 -3.60631e-06)
(0.000382899 -0.00170256 -3.34239e-06)
(0.000350957 -0.00157362 -3.06363e-06)
(0.00031763 -0.00144592 -2.77278e-06)
(0.000283253 -0.00131977 -2.47276e-06)
(0.00024819 -0.00119538 -2.16674e-06)
(0.000212834 -0.00107286 -1.85816e-06)
(0.000177596 -0.000952063 -1.55061e-06)
(0.000142924 -0.000832482 -1.24799e-06)
(0.000109324 -0.000712799 -9.54711e-07)
(7.74032e-05 -0.000590083 -6.7608e-07)
(4.79087e-05 -0.000458464 -4.18608e-07)
(2.22417e-05 -0.000307121 -1.9469e-07)
(2.73173e-06 -0.000119579 -2.80856e-08)
(0.000592539 -0.0030656 -5.17168e-06)
(0.000587996 -0.00295657 -5.13206e-06)
(0.000580547 -0.00284273 -5.06708e-06)
(0.000570149 -0.0027246 -4.97637e-06)
(0.000556793 -0.00260273 -4.85984e-06)
(0.000540507 -0.00247772 -4.71774e-06)
(0.000521356 -0.00235019 -4.55064e-06)
(0.000499445 -0.00222075 -4.35945e-06)
(0.000474924 -0.00209007 -4.14547e-06)
(0.000447972 -0.00195874 -3.91028e-06)
(0.000418808 -0.00182735 -3.65578e-06)
(0.000387691 -0.00169648 -3.38423e-06)
(0.000354908 -0.00156659 -3.09813e-06)
(0.000320779 -0.00143813 -2.80028e-06)
(0.000285646 -0.00131138 -2.49366e-06)
(0.000249878 -0.00118658 -2.18149e-06)
(0.00021387 -0.00106382 -1.86722e-06)
(0.000178039 -0.000942971 -1.55449e-06)
(0.000142837 -0.000823504 -1.24724e-06)
(0.000108778 -0.000704127 -9.4995e-07)
(7.64865e-05 -0.000581938 -6.68084e-07)
(4.67756e-05 -0.00045116 -4.08718e-07)
(2.11341e-05 -0.00030119 -1.85014e-07)
(2.36331e-06 -0.000116399 -2.4542e-08)
(0.000608736 -0.00307968 -5.31307e-06)
(0.000603472 -0.00296827 -5.26715e-06)
(0.000595221 -0.00285209 -5.19517e-06)
(0.000583948 -0.0027317 -5.09683e-06)
(0.000569655 -0.00260766 -4.97213e-06)
(0.000552383 -0.0024806 -4.82142e-06)
(0.000532208 -0.00235113 -4.64538e-06)
(0.00050925 -0.0022199 -4.44504e-06)
(0.000483669 -0.00208759 -4.22182e-06)
(0.00045566 -0.00195479 -3.9774e-06)
(0.000425455 -0.00182211 -3.71381e-06)
(0.000393323 -0.00169011 -3.4334e-06)
(0.000359562 -0.00155929 -3.13877e-06)
(0.000324503 -0.00143006 -2.83279e-06)
(0.000288493 -0.00130274 -2.51851e-06)
(0.000251907 -0.00117755 -2.19921e-06)
(0.000215148 -0.00105457 -1.87839e-06)
(0.000178637 -0.000933673 -1.55972e-06)
(0.000142833 -0.000814343 -1.24721e-06)
(0.000108262 -0.000695298 -9.45459e-07)
(7.55757e-05 -0.000573675 -6.6014e-07)
(4.56618e-05 -0.000443804 -3.98998e-07)
(2.0094e-05 -0.000295335 -1.75907e-07)
(2.04303e-06 -0.0001134 -2.15006e-08)
(0.000627109 -0.00309383 -5.47344e-06)
(0.000621035 -0.00297994 -5.42046e-06)
(0.00061188 -0.00286136 -5.34059e-06)
(0.00059962 -0.00273864 -5.23363e-06)
(0.000584269 -0.00261239 -5.0997e-06)
(0.000565881 -0.00248323 -4.93925e-06)
(0.000544547 -0.0023518 -4.7531e-06)
(0.000520402 -0.00221876 -4.54241e-06)
(0.000493623 -0.00208479 -4.30872e-06)
(0.000464418 -0.00195051 -4.05386e-06)
(0.000433033 -0.00181653 -3.77998e-06)
(0.000399753 -0.00168342 -3.48954e-06)
(0.000364887 -0.00155167 -3.18526e-06)
(0.000328776 -0.00142171 -2.8701e-06)
(0.000291776 -0.00129383 -2.54719e-06)
(0.000254272 -0.00116826 -2.21986e-06)
(0.00021667 -0.00104508 -1.89168e-06)
(0.000179401 -0.000924165 -1.56639e-06)
(0.000142931 -0.000804999 -1.24808e-06)
(0.000107808 -0.000686321 -9.41503e-07)
(7.47084e-05 -0.000565313 -6.52575e-07)
(4.46042e-05 -0.000436423 -3.89764e-07)
(1.91434e-05 -0.000289575 -1.67602e-07)
(1.77003e-06 -0.000110572 -1.8855e-08)
(0.000647581 -0.00310803 -5.65214e-06)
(0.000640606 -0.00299159 -5.59129e-06)
(0.000630444 -0.00287052 -5.50264e-06)
(0.000617084 -0.00274542 -5.38608e-06)
(0.000600555 -0.00261689 -5.24186e-06)
(0.000580924 -0.00248558 -5.07057e-06)
(0.000558301 -0.00235215 -4.87316e-06)
(0.000532835 -0.00221727 -4.65094e-06)
(0.000504722 -0.00208164 -4.40562e-06)
(0.000474187 -0.00194588 -4.13915e-06)
(0.000441492 -0.0018106 -3.85383e-06)
(0.000406938 -0.00167638 -3.55228e-06)
(0.000370846 -0.00154371 -3.23729e-06)
(0.000333571 -0.00141302 -2.91197e-06)
(0.000295478 -0.00128461 -2.57951e-06)
(0.00025696 -0.00115868 -2.24335e-06)
(0.000218434 -0.00103533 -1.90709e-06)
(0.000180337 -0.000914429 -1.57458e-06)
(0.000143149 -0.000795461 -1.24999e-06)
(0.000107438 -0.000677191 -9.3828e-07)
(7.39124e-05 -0.000556853 -6.45631e-07)
(4.36277e-05 -0.000429023 -3.81242e-07)
(1.8293e-05 -0.00028391 -1.60156e-07)
(1.53979e-06 -0.000107899 -1.6647e-08)
(0.000670084 -0.00312231 -5.84855e-06)
(0.000662112 -0.00300322 -5.77902e-06)
(0.00065084 -0.00287958 -5.68068e-06)
(0.000636268 -0.00275201 -5.55354e-06)
(0.000618441 -0.00262114 -5.39799e-06)
(0.000597442 -0.00248763 -5.21476e-06)
(0.0005734 -0.00235216 -5.00497e-06)
(0.000546483 -0.00221542 -4.77009e-06)
(0.000516905 -0.0020781 -4.51198e-06)
(0.000484912 -0.00194084 -4.23278e-06)
(0.000450783 -0.00180426 -3.93494e-06)
(0.000414834 -0.00166894 -3.62122e-06)
(0.000377404 -0.00153538 -3.29455e-06)
(0.000338858 -0.00140398 -2.95814e-06)
(0.000299576 -0.00127505 -2.61531e-06)
(0.00025996 -0.0011488 -2.26954e-06)
(0.000220435 -0.00102531 -1.92457e-06)
(0.00018145 -0.000904446 -1.5843e-06)
(0.000143497 -0.000785715 -1.25303e-06)
(0.000107169 -0.0006679 -9.35939e-07)
(7.32076e-05 -0.000548295 -6.39485e-07)
(4.27482e-05 -0.000421608 -3.73563e-07)
(1.75456e-05 -0.000278333 -1.53624e-07)
(1.34735e-06 -0.00010536 -1.47722e-08)
(0.000694557 -0.00313666 -6.06217e-06)
(0.000685492 -0.00301481 -5.9831e-06)
(0.000673003 -0.00288851 -5.87414e-06)
(0.000657105 -0.00275839 -5.73543e-06)
(0.000637859 -0.00262512 -5.5675e-06)
(0.000615368 -0.00248935 -5.37125e-06)
(0.000589779 -0.0023518 -5.14796e-06)
(0.000561283 -0.00221315 -4.8993e-06)
(0.000530115 -0.00207413 -4.6273e-06)
(0.000496539 -0.00193537 -4.33429e-06)
(0.000460855 -0.00179749 -4.02288e-06)
(0.000423398 -0.00166108 -3.69599e-06)
(0.000384523 -0.00152663 -3.35671e-06)
(0.000344609 -0.00139454 -3.00836e-06)
(0.000304049 -0.00126513 -2.65437e-06)
(0.000263256 -0.00113858 -2.29833e-06)
(0.000222665 -0.00101498 -1.94405e-06)
(0.000182738 -0.000894203 -1.59556e-06)
(0.000143981 -0.000775752 -1.25727e-06)
(0.000107012 -0.000658445 -9.34581e-07)
(7.26073e-05 -0.000539639 -6.34249e-07)
(4.19743e-05 -0.000414179 -3.66808e-07)
(1.68989e-05 -0.000272838 -1.47963e-07)
(1.18786e-06 -0.000102938 -1.32306e-08)
(0.000720949 -0.00315109 -6.29253e-06)
(0.00071069 -0.00302636 -6.20304e-06)
(0.000696875 -0.00289729 -6.08251e-06)
(0.000679534 -0.00276454 -5.93122e-06)
(0.000658748 -0.00262878 -5.74985e-06)
(0.00063464 -0.0024907 -5.53949e-06)
(0.00060738 -0.00235102 -5.30161e-06)
(0.000577179 -0.00221045 -5.03806e-06)
(0.000544295 -0.0020697 -4.7511e-06)
(0.000509016 -0.00192943 -4.44322e-06)
(0.000471663 -0.00179026 -4.11724e-06)
(0.000432589 -0.00165276 -3.77624e-06)
(0.000392167 -0.00151744 -3.42346e-06)
(0.000350794 -0.0013847 -3.06237e-06)
(0.000308874 -0.00125482 -2.6965e-06)
(0.000266832 -0.00112801 -2.32956e-06)
(0.000225116 -0.00100435 -1.96546e-06)
(0.000184199 -0.000883688 -1.60833e-06)
(0.000144604 -0.000765566 -1.26272e-06)
(0.000106976 -0.000648822 -9.34268e-07)
(7.21194e-05 -0.000530884 -6.29995e-07)
(4.13095e-05 -0.000406735 -3.61004e-07)
(1.63481e-05 -0.000267414 -1.43147e-07)
(1.05684e-06 -0.000100614 -1.19503e-08)
(0.000749213 -0.00316558 -6.53923e-06)
(0.000737655 -0.00303786 -6.43841e-06)
(0.000722401 -0.00290592 -6.30533e-06)
(0.0007035 -0.00277044 -6.14042e-06)
(0.000681052 -0.00263212 -5.94454e-06)
(0.000655202 -0.00249166 -5.71898e-06)
(0.000626143 -0.0023498 -5.46541e-06)
(0.000594112 -0.00220726 -5.18589e-06)
(0.000559392 -0.00206477 -4.8829e-06)
(0.000522293 -0.00192298 -4.55914e-06)
(0.000483159 -0.00178252 -4.21761e-06)
(0.000442365 -0.00164396 -3.86159e-06)
(0.000400302 -0.00150778 -3.49448e-06)
(0.000357383 -0.00137441 -3.1199e-06)
(0.000314027 -0.00124411 -2.7415e-06)
(0.000270671 -0.00111707 -2.36309e-06)
(0.000227777 -0.000993379 -1.9887e-06)
(0.000185829 -0.000872892 -1.62257e-06)
(0.000145368 -0.000755149 -1.2694e-06)
(0.000107062 -0.000639029 -9.3503e-07)
(7.17474e-05 -0.000522031 -6.26753e-07)
(4.07535e-05 -0.000399274 -3.56151e-07)
(1.58864e-05 -0.000262052 -1.39106e-07)
(9.5016e-07 -9.83719e-05 -1.09121e-08)
(0.000779309 -0.00318014 -6.80191e-06)
(0.000766343 -0.00304928 -6.68881e-06)
(0.000749534 -0.00291435 -6.54217e-06)
(0.000728951 -0.00277605 -6.36258e-06)
(0.000704715 -0.00263508 -6.15111e-06)
(0.000676997 -0.00249219 -5.90924e-06)
(0.000646015 -0.0023481 -5.63888e-06)
(0.000612031 -0.00220357 -5.34231e-06)
(0.000575355 -0.00205931 -5.02225e-06)
(0.000536322 -0.001916 -4.68161e-06)
(0.0004953 -0.00177424 -4.32361e-06)
(0.000452686 -0.00163463 -3.9517e-06)
(0.000408891 -0.00149764 -3.56948e-06)
(0.000364346 -0.00136366 -3.1807e-06)
(0.000319484 -0.00123297 -2.78915e-06)
(0.000274756 -0.00110575 -2.39877e-06)
(0.000230636 -0.000982073 -2.01367e-06)
(0.000187622 -0.000861805 -1.63823e-06)
(0.000146269 -0.000744497 -1.27728e-06)
(0.000107272 -0.000629064 -9.36872e-07)
(7.14916e-05 -0.000513079 -6.24525e-07)
(4.03035e-05 -0.000391793 -3.52223e-07)
(1.55066e-05 -0.00025674 -1.35783e-07)
(8.64194e-07 -9.61984e-05 -1.00706e-08)
(0.000811201 -0.00319474 -7.08028e-06)
(0.000796712 -0.00306062 -6.95389e-06)
(0.000778228 -0.00292258 -6.79263e-06)
(0.000755837 -0.00278135 -6.59727e-06)
(0.000729687 -0.00263765 -6.36909e-06)
(0.000699973 -0.00249225 -6.1098e-06)
(0.000666941 -0.00234589 -5.82156e-06)
(0.000630881 -0.00219932 -5.50687e-06)
(0.000592131 -0.00205329 -5.16871e-06)
(0.000551053 -0.00190844 -4.81021e-06)
(0.000508039 -0.00176541 -4.43483e-06)
(0.000463511 -0.00162476 -4.04621e-06)
(0.000417899 -0.00148697 -3.64813e-06)
(0.000371653 -0.00135242 -3.2445e-06)
(0.000325221 -0.00122139 -2.83925e-06)
(0.000279068 -0.00109403 -2.43642e-06)
(0.000233679 -0.000970417 -2.04026e-06)
(0.000189568 -0.000850421 -1.65524e-06)
(0.000147304 -0.000733607 -1.28632e-06)
(0.000107603 -0.000618926 -9.39772e-07)
(7.13497e-05 -0.000504025 -6.2329e-07)
(3.99546e-05 -0.000384288 -3.49178e-07)
(1.52008e-05 -0.000251469 -1.33107e-07)
(7.95764e-07 -9.40802e-05 -9.40179e-09)
(0.000844859 -0.00320937 -7.37406e-06)
(0.000828726 -0.00307184 -7.23334e-06)
(0.00080844 -0.00293057 -7.05635e-06)
(0.000784113 -0.0027863 -6.84409e-06)
(0.000755917 -0.00263979 -6.59807e-06)
(0.000724077 -0.00249181 -6.32023e-06)
(0.000688868 -0.00234313 -6.01298e-06)
(0.00065061 -0.00219449 -5.67911e-06)
(0.00060967 -0.00204666 -5.32183e-06)
(0.000566437 -0.00190028 -4.94453e-06)
(0.000521332 -0.00175598 -4.55089e-06)
(0.000474799 -0.00161432 -4.14477e-06)
(0.00042729 -0.00147577 -3.73012e-06)
(0.000379273 -0.00134069 -3.31104e-06)
(0.000331212 -0.00120934 -2.89157e-06)
(0.000283587 -0.0010819 -2.47588e-06)
(0.000236894 -0.000958401 -2.06833e-06)
(0.000191659 -0.000838733 -1.6735e-06)
(0.000148466 -0.000722475 -1.29648e-06)
(0.000108051 -0.000608612 -9.43692e-07)
(7.1317e-05 -0.000494869 -6.23009e-07)
(3.97007e-05 -0.000376754 -3.46962e-07)
(1.49617e-05 -0.000246227 -1.31015e-07)
(7.42118e-07 -9.20059e-05 -8.87643e-09)
(0.000880254 -0.00322401 -7.68302e-06)
(0.000862351 -0.00308292 -7.52683e-06)
(0.000840131 -0.00293828 -7.33298e-06)
(0.000813733 -0.00279087 -7.10265e-06)
(0.000783357 -0.00264145 -6.8376e-06)
(0.00074926 -0.00249083 -6.54005e-06)
(0.000711745 -0.00233977 -6.21269e-06)
(0.000671166 -0.00218904 -5.85856e-06)
(0.000627921 -0.0020394 -5.48116e-06)
(0.000582427 -0.00189149 -5.08413e-06)
(0.000535133 -0.00174593 -4.67138e-06)
(0.000486508 -0.00160329 -4.247e-06)
(0.000437026 -0.001464 -3.81513e-06)
(0.000387174 -0.00132843 -3.38003e-06)
(0.000337432 -0.00119683 -2.94588e-06)
(0.000288291 -0.00106934 -2.51697e-06)
(0.000240261 -0.000946018 -2.09775e-06)
(0.000193881 -0.000826739 -1.69291e-06)
(0.000149746 -0.000711099 -1.30766e-06)
(0.00010861 -0.000598122 -9.48574e-07)
(7.13872e-05 -0.000485608 -6.23627e-07)
(3.95347e-05 -0.000369185 -3.45514e-07)
(1.4782e-05 -0.000241005 -1.29442e-07)
(7.009e-07 -8.99652e-05 -8.47345e-09)
(0.000917362 -0.00323863 -8.00692e-06)
(0.000897553 -0.00309382 -7.83411e-06)
(0.00087326 -0.00294568 -7.62216e-06)
(0.000844652 -0.00279501 -7.37255e-06)
(0.000811959 -0.0026426 -7.08727e-06)
(0.000775468 -0.00248926 -6.76884e-06)
(0.000735519 -0.00233578 -6.42022e-06)
(0.000692496 -0.00218293 -6.04477e-06)
(0.000646831 -0.00203146 -5.64625e-06)
(0.000598972 -0.00188203 -5.22857e-06)
(0.000549396 -0.00173524 -4.7959e-06)
(0.000498596 -0.00159163 -4.35254e-06)
(0.00044707 -0.00145165 -3.90283e-06)
(0.000395323 -0.00131563 -3.45119e-06)
(0.000343851 -0.00118382 -3.00193e-06)
(0.000293158 -0.00105635 -2.55947e-06)
(0.000243765 -0.000933262 -2.12835e-06)
(0.000196222 -0.000814433 -1.71336e-06)
(0.000151134 -0.000699477 -1.3198e-06)
(0.00010927 -0.000587455 -9.54346e-07)
(7.15528e-05 -0.00047624 -6.25078e-07)
(3.94491e-05 -0.000361576 -3.44767e-07)
(1.46547e-05 -0.000235793 -1.28327e-07)
(6.70083e-07 -8.79493e-05 -8.17272e-09)
(0.000956161 -0.0032532 -8.34558e-06)
(0.000934302 -0.00310452 -8.15488e-06)
(0.000907791 -0.00295274 -7.92359e-06)
(0.000876827 -0.00279869 -7.65341e-06)
(0.000841673 -0.0026432 -7.34666e-06)
(0.000802651 -0.00248707 -7.00614e-06)
(0.000760135 -0.00233113 -6.63512e-06)
(0.000714546 -0.00217612 -6.23726e-06)
(0.000666348 -0.00202282 -5.81664e-06)
(0.000616021 -0.00187187 -5.37742e-06)
(0.000564071 -0.00172386 -4.92403e-06)
(0.000511018 -0.00157933 -4.46101e-06)
(0.000457382 -0.00143869 -3.99287e-06)
(0.000403685 -0.00130228 -3.5242e-06)
(0.00035044 -0.00117032 -3.05947e-06)
(0.000298163 -0.00104292 -2.60318e-06)
(0.000247386 -0.000920128 -2.15997e-06)
(0.000198667 -0.000801814 -1.73471e-06)
(0.000152619 -0.000687608 -1.33277e-06)
(0.000110022 -0.00057661 -9.60923e-07)
(7.1805e-05 -0.000466763 -6.27284e-07)
(3.94357e-05 -0.000353923 -3.44651e-07)
(1.45734e-05 -0.000230582 -1.27615e-07)
(6.47944e-07 -8.59505e-05 -7.95785e-09)
(0.000996629 -0.00326768 -8.69882e-06)
(0.000972567 -0.00311496 -8.4889e-06)
(0.000943686 -0.0029594 -8.23691e-06)
(0.000910213 -0.00280186 -7.94485e-06)
(0.00087245 -0.00264319 -7.61533e-06)
(0.000830755 -0.00248422 -7.25148e-06)
(0.00078554 -0.00232575 -6.8569e-06)
(0.00073726 -0.00216858 -6.43556e-06)
(0.000686417 -0.00201344 -5.99184e-06)
(0.000633522 -0.00186098 -5.53021e-06)
(0.000579111 -0.00171178 -5.05534e-06)
(0.00052373 -0.00156636 -4.57199e-06)
(0.00046792 -0.00142511 -4.08488e-06)
(0.000412225 -0.00128837 -3.59877e-06)
(0.000357169 -0.00115631 -3.11823e-06)
(0.000303282 -0.00102905 -2.64788e-06)
(0.000251102 -0.000906612 -2.19243e-06)
(0.000201197 -0.000788879 -1.75682e-06)
(0.000154187 -0.000675492 -1.34646e-06)
(0.000110856 -0.000565588 -9.68209e-07)
(7.21343e-05 -0.000457176 -6.30162e-07)
(3.94863e-05 -0.00034622 -3.45094e-07)
(1.45318e-05 -0.000225366 -1.2725e-07)
(6.33001e-07 -8.3962e-05 -7.81432e-09)
(0.00103875 -0.00328203 -9.06645e-06)
(0.00101232 -0.00312509 -8.8359e-06)
(0.000980905 -0.00296561 -8.5618e-06)
(0.000944766 -0.00280447 -8.24646e-06)
(0.000904241 -0.00264253 -7.89284e-06)
(0.000859727 -0.00248064 -7.50439e-06)
(0.000811676 -0.00231962 -7.08506e-06)
(0.000760581 -0.00216025 -6.63916e-06)
(0.000706981 -0.00200328 -6.17137e-06)
(0.00065142 -0.00184932 -5.68647e-06)
(0.000594463 -0.00169896 -5.18937e-06)
(0.000536683 -0.0015527 -4.68509e-06)
(0.000478643 -0.0014109 -4.17851e-06)
(0.000420905 -0.00127387 -3.67456e-06)
(0.000364006 -0.00114178 -3.17793e-06)
(0.000308486 -0.00101472 -2.69333e-06)
(0.000254892 -0.000892712 -2.22553e-06)
(0.000203796 -0.00077563 -1.77952e-06)
(0.000155823 -0.000663131 -1.36075e-06)
(0.000111759 -0.000554387 -9.76098e-07)
(7.25303e-05 -0.000447476 -6.33624e-07)
(3.95926e-05 -0.000338462 -3.46024e-07)
(1.45244e-05 -0.000220136 -1.27184e-07)
(6.23994e-07 -8.19782e-05 -7.72989e-09)
(0.00108249 -0.0032962 -9.4483e-06)
(0.00105353 -0.00313487 -9.19561e-06)
(0.00101941 -0.00297132 -8.89791e-06)
(0.000980437 -0.00280646 -8.55785e-06)
(0.000936991 -0.00264117 -8.17873e-06)
(0.00088951 -0.0024763 -7.76438e-06)
(0.000838485 -0.00231269 -7.3191e-06)
(0.000784451 -0.00215111 -6.84754e-06)
(0.000727983 -0.0019923 -6.35473e-06)
(0.000669659 -0.00183688 -5.84571e-06)
(0.000610075 -0.00168539 -5.32568e-06)
(0.000549829 -0.00153833 -4.79987e-06)
(0.000489506 -0.00139603 -4.27336e-06)
(0.000429685 -0.00125878 -3.75123e-06)
(0.000370916 -0.00112672 -3.23827e-06)
(0.000313747 -0.000999937 -2.73927e-06)
(0.000258732 -0.000878426 -2.25906e-06)
(0.000206444 -0.000762065 -1.80265e-06)
(0.000157511 -0.000650524 -1.3755e-06)
(0.000112718 -0.00054301 -9.84476e-07)
(7.29825e-05 -0.000437664 -6.37576e-07)
(3.97462e-05 -0.000330647 -3.47367e-07)
(1.45457e-05 -0.000214887 -1.2737e-07)
(6.19836e-07 -7.99942e-05 -7.69387e-09)
(0.00112784 -0.00331013 -9.84419e-06)
(0.00109616 -0.00314424 -9.56776e-06)
(0.00105916 -0.00297647 -9.24489e-06)
(0.00101718 -0.00280777 -8.87858e-06)
(0.000970648 -0.00263904 -8.47254e-06)
(0.000920045 -0.00247113 -8.03095e-06)
(0.000865907 -0.0023049 -7.55849e-06)
(0.000808808 -0.0021411 -7.06018e-06)
(0.000749362 -0.00198047 -6.54137e-06)
(0.000688181 -0.00182361 -6.00742e-06)
(0.000625891 -0.00167104 -5.46377e-06)
(0.000563117 -0.00152322 -4.91589e-06)
(0.000500464 -0.00138049 -4.36904e-06)
(0.000438526 -0.00124309 -3.82843e-06)
(0.000377865 -0.00111114 -3.29895e-06)
(0.000319035 -0.000984694 -2.78546e-06)
(0.000262596 -0.000863754 -2.29281e-06)
(0.000209121 -0.000748187 -1.82603e-06)
(0.000159235 -0.000637675 -1.39056e-06)
(0.000113719 -0.000531457 -9.93226e-07)
(7.34799e-05 -0.000427738 -6.41923e-07)
(3.9939e-05 -0.000322771 -3.49051e-07)
(1.45909e-05 -0.000209614 -1.27764e-07)
(6.19604e-07 -7.80059e-05 -7.69713e-09)
(0.00117478 -0.00332375 -1.02539e-05)
(0.00114019 -0.00315312 -9.95205e-06)
(0.00110011 -0.00298099 -9.60234e-06)
(0.00105494 -0.00280834 -9.20821e-06)
(0.00100515 -0.00263608 -8.77375e-06)
(0.000951271 -0.00246509 -8.30354e-06)
(0.000893878 -0.0022962 -7.80267e-06)
(0.000833588 -0.00213018 -7.27651e-06)
(0.000771055 -0.00196775 -6.73076e-06)
(0.000706926 -0.00180948 -6.17107e-06)
(0.000641856 -0.00165588 -5.60316e-06)
(0.000576496 -0.00150737 -5.0327e-06)
(0.000511469 -0.00136427 -4.46513e-06)
(0.000447385 -0.00122678 -3.90579e-06)
(0.000384815 -0.00109501 -3.35965e-06)
(0.00032432 -0.000968992 -2.83161e-06)
(0.000266458 -0.000848698 -2.32655e-06)
(0.000211805 -0.000733998 -1.84947e-06)
(0.000160976 -0.000624586 -1.40578e-06)
(0.000114749 -0.000519732 -1.00222e-06)
(7.40112e-05 -0.000417699 -6.46565e-07)
(4.01627e-05 -0.000314832 -3.51006e-07)
(1.46551e-05 -0.000204313 -1.28326e-07)
(6.22493e-07 -7.60101e-05 -7.73168e-09)
(0.00122328 -0.003337 -1.06773e-05)
(0.00118556 -0.00316144 -1.03482e-05)
(0.00114221 -0.00298481 -9.96988e-06)
(0.00109367 -0.0028081 -9.54626e-06)
(0.00104044 -0.00263224 -9.08183e-06)
(0.000983123 -0.00245811 -8.5816e-06)
(0.00092233 -0.00228655 -8.05106e-06)
(0.000858723 -0.00211832 -7.49594e-06)
(0.000792996 -0.0019541 -6.92232e-06)
(0.00072583 -0.00179446 -6.33612e-06)
(0.00065791 -0.00163988 -5.74333e-06)
(0.00058991 -0.00149076 -5.14982e-06)
(0.000522472 -0.00134736 -4.56121e-06)
(0.00045622 -0.00120986 -3.98293e-06)
(0.000391731 -0.00107835 -3.42004e-06)
(0.000329569 -0.000952829 -2.87745e-06)
(0.000270293 -0.000833259 -2.36004e-06)
(0.000214473 -0.000719502 -1.87278e-06)
(0.000162718 -0.000611261 -1.42099e-06)
(0.000115793 -0.000507837 -1.01134e-06)
(7.45652e-05 -0.000407549 -6.51405e-07)
(4.04095e-05 -0.000306828 -3.53162e-07)
(1.47342e-05 -0.00019898 -1.29017e-07)
(6.27823e-07 -7.40043e-05 -7.7907e-09)
(0.00127332 -0.00334978 -1.11141e-05)
(0.00123226 -0.00316912 -1.07558e-05)
(0.00118542 -0.00298785 -1.0347e-05)
(0.0011333 -0.00280698 -9.89221e-06)
(0.00107646 -0.00262744 -9.39622e-06)
(0.00101553 -0.00245014 -8.86453e-06)
(0.000951193 -0.00227589 -8.30304e-06)
(0.000884143 -0.00210545 -7.71787e-06)
(0.000815116 -0.00193949 -7.11544e-06)
(0.000744828 -0.00177853 -6.50199e-06)
(0.000673991 -0.00162303 -5.88373e-06)
(0.000603303 -0.00147336 -5.26676e-06)
(0.000533423 -0.00132973 -4.65683e-06)
(0.000464984 -0.00119232 -4.05947e-06)
(0.000398571 -0.00106115 -3.47977e-06)
(0.000334748 -0.000936208 -2.92268e-06)
(0.000274072 -0.000817442 -2.39304e-06)
(0.000217103 -0.000704704 -1.89575e-06)
(0.000164441 -0.000597706 -1.43604e-06)
(0.000116835 -0.000495776 -1.02045e-06)
(7.51304e-05 -0.000397289 -6.56344e-07)
(4.06715e-05 -0.000298759 -3.55451e-07)
(1.4824e-05 -0.000193613 -1.29803e-07)
(6.34994e-07 -7.19863e-05 -7.86817e-09)
(0.00132486 -0.00336202 -1.1564e-05)
(0.00128022 -0.00317608 -1.11745e-05)
(0.00122967 -0.00299002 -1.07334e-05)
(0.00117377 -0.00280488 -1.02455e-05)
(0.00111313 -0.00262161 -9.71632e-06)
(0.00104843 -0.0024411 -9.15169e-06)
(0.000980393 -0.00226417 -8.55796e-06)
(0.000909775 -0.00209154 -7.94164e-06)
(0.000837345 -0.00192387 -7.30951e-06)
(0.000763852 -0.00176165 -6.66808e-06)
(0.000690036 -0.00160531 -6.02383e-06)
(0.000616617 -0.00145516 -5.38302e-06)
(0.000544269 -0.0013114 -4.75153e-06)
(0.000473633 -0.00117414 -4.13499e-06)
(0.000405297 -0.0010434 -3.53851e-06)
(0.000339825 -0.000919131 -2.96701e-06)
(0.000277765 -0.000801251 -2.4253e-06)
(0.000219671 -0.00068961 -1.91818e-06)
(0.000166127 -0.000583926 -1.45076e-06)
(0.000117861 -0.000483555 -1.02941e-06)
(7.56956e-05 -0.000386922 -6.61282e-07)
(4.09411e-05 -0.000290626 -3.57807e-07)
(1.49208e-05 -0.000188212 -1.30649e-07)
(6.43503e-07 -6.99549e-05 -7.95895e-09)
(0.00137787 -0.0033736 -1.20267e-05)
(0.00132941 -0.00318221 -1.16038e-05)
(0.00127492 -0.00299124 -1.11283e-05)
(0.00121501 -0.00280174 -1.06056e-05)
(0.00115037 -0.00261468 -1.00415e-05)
(0.00108173 -0.00243093 -9.44241e-06)
(0.00100985 -0.00225132 -8.81514e-06)
(0.00093554 -0.00207653 -8.16658e-06)
(0.000859606 -0.0019072 -7.50386e-06)
(0.00078283 -0.00174379 -6.83378e-06)
(0.00070598 -0.00158668 -6.16303e-06)
(0.000629793 -0.00143614 -5.49806e-06)
(0.000554956 -0.00129234 -4.84485e-06)
(0.000482119 -0.00115534 -4.20909e-06)
(0.000411868 -0.00102512 -3.59589e-06)
(0.000344763 -0.000901603 -3.01014e-06)
(0.000281346 -0.000784693 -2.45657e-06)
(0.000222154 -0.000674228 -1.93986e-06)
(0.000167755 -0.00056993 -1.46499e-06)
(0.000118856 -0.000471179 -1.0381e-06)
(7.62495e-05 -0.000376453 -6.66122e-07)
(4.12111e-05 -0.000282431 -3.60166e-07)
(1.50211e-05 -0.000182775 -1.31526e-07)
(6.52905e-07 -6.79093e-05 -8.05851e-09)
(0.00147815 -0.00358135 -1.29019e-05)
(0.00143231 -0.00338443 -1.25019e-05)
(0.00137976 -0.00318741 -1.20433e-05)
(0.00132109 -0.0029914 -1.15313e-05)
(0.00125696 -0.00279746 -1.09717e-05)
(0.00118812 -0.00260656 -1.0371e-05)
(0.00111535 -0.00241957 -9.73595e-06)
(0.00103949 -0.00223729 -9.07384e-06)
(0.000961357 -0.00206039 -8.39197e-06)
(0.000881821 -0.00188946 -7.69781e-06)
(0.000801689 -0.00172493 -6.99843e-06)
(0.000721753 -0.00156713 -6.30075e-06)
(0.000642767 -0.0014163 -5.61135e-06)
(0.00056543 -0.00127255 -4.93631e-06)
(0.000490394 -0.0011359 -4.28134e-06)
(0.000418242 -0.0010063 -3.65155e-06)
(0.000349529 -0.000883629 -3.05176e-06)
(0.000284782 -0.000767777 -2.48658e-06)
(0.000224526 -0.000658566 -1.96059e-06)
(0.000169306 -0.000555725 -1.47854e-06)
(0.000119805 -0.000458655 -1.04639e-06)
(7.67813e-05 -0.000365886 -6.70768e-07)
(4.14744e-05 -0.000274175 -3.62467e-07)
(1.51214e-05 -0.000177303 -1.32403e-07)
(6.62829e-07 -6.58491e-05 -8.16298e-09)
(0.00158084 -0.00380032 -1.37981e-05)
(0.00153818 -0.00359769 -1.34259e-05)
(0.00148813 -0.00339438 -1.29891e-05)
(0.00143122 -0.00319158 -1.24925e-05)
(0.0013681 -0.0029904 -1.19418e-05)
(0.00129952 -0.00279195 -1.13433e-05)
(0.00122628 -0.00259717 -1.07041e-05)
(0.00114921 -0.00240693 -1.00315e-05)
(0.0010692 -0.00222201 -9.33329e-06)
(0.000987139 -0.00204305 -8.61706e-06)
(0.000903908 -0.0018706 -7.89064e-06)
(0.000820352 -0.00170503 -7.16138e-06)
(0.000737285 -0.00154665 -6.43636e-06)
(0.000655478 -0.00139562 -5.72233e-06)
(0.000575634 -0.00125202 -5.02541e-06)
(0.000498407 -0.00111583 -4.35132e-06)
(0.000424376 -0.000986943 -3.70512e-06)
(0.000354085 -0.000865218 -3.09155e-06)
(0.000288046 -0.00075051 -2.51509e-06)
(0.000226764 -0.000642634 -1.98013e-06)
(0.000170761 -0.00054132 -1.49125e-06)
(0.000120692 -0.000445993 -1.05414e-06)
(7.72798e-05 -0.000355228 -6.75124e-07)
(4.17241e-05 -0.000265863 -3.64648e-07)
(1.52187e-05 -0.000171799 -1.33254e-07)
(6.72947e-07 -6.37745e-05 -8.26894e-09)
(0.00164683 -0.0038231 -1.43741e-05)
(0.00159985 -0.00361324 -1.39642e-05)
(0.00154527 -0.00340333 -1.34879e-05)
(0.0014837 -0.00319458 -1.29507e-05)
(0.00141588 -0.00298814 -1.23589e-05)
(0.00134261 -0.0027851 -1.17195e-05)
(0.00126476 -0.00258642 -1.104e-05)
(0.00118321 -0.00239295 -1.03284e-05)
(0.00109892 -0.00220543 -9.59269e-06)
(0.0010128 -0.00202447 -8.84106e-06)
(0.00092578 -0.00185058 -8.08161e-06)
(0.000838739 -0.00168408 -7.32191e-06)
(0.000752503 -0.00152521 -6.56924e-06)
(0.000667858 -0.0013741 -5.83043e-06)
(0.000585509 -0.00123076 -5.11164e-06)
(0.000506109 -0.00109514 -4.41858e-06)
(0.000430228 -0.000967065 -3.75622e-06)
(0.000358395 -0.000846379 -3.1292e-06)
(0.000291106 -0.000732906 -2.54182e-06)
(0.000228843 -0.000626444 -1.9983e-06)
(0.000172101 -0.000526728 -1.50296e-06)
(0.000121503 -0.0004332 -1.06123e-06)
(7.77347e-05 -0.000344486 -6.79098e-07)
(4.19537e-05 -0.000257498 -3.66654e-07)
(1.531e-05 -0.000166263 -1.34054e-07)