/*--------------------------------*- C++ -*----------------------------------*\
| =========                 |                                                 |
| \\      /  F ield         | OpenFOAM: The Open Source CFD Toolbox           |
|  \\    /   O peration     | Version:  v2012                                 |
|   \\  /    A nd           | Website:  www.openfoam.com                      |
|    \\/     M anipulation  |                                                 |
\*---------------------------------------------------------------------------*/
FoamFile
{
    version     2.0;
    format      ascii;
    class       surfaceScalarField;
    location    "0.5";
    object      alphaPhi0.water;
}
// * * * * * * * * * * * * * * * * * * * * * * * * * * * * * * * * * * * * * //

dimensions      [0 3 -1 0 0 0 0];
oriented        oriented;


internalField   nonuniform List<scalar> 
8145
(
-5.32352e-117
5.31683e-117
-9.13479e-127
-1.73537e-114
1.73425e-114
-3.80047e-123
-6.98194e-112
6.98131e-112
-8.50625e-121
-3.58962e-109
3.59122e-109
-2.45226e-118
-2.46758e-106
2.46968e-106
-1.97407e-116
-2.41688e-103
2.41962e-103
2.87196e-112
-6.83369e-100
6.84355e-100
-1.66817e-109
-1.32806e-96
2.06053e-96
-2.301e-107
5.29082e-95
-1.43099e-104
-1.98811e-121
1.97878e-121
-8.82202e-130
-4.04271e-119
4.02608e-119
-1.07111e-127
-9.44561e-117
9.41204e-117
-1.58566e-125
-2.58159e-114
2.57931e-114
-4.61007e-124
-8.48347e-112
8.48079e-112
-1.92216e-120
-3.44024e-109
3.44103e-109
-4.32037e-118
-1.78251e-106
1.78388e-106
-1.2291e-115
-1.23461e-103
1.23593e-103
-5.81576e-114
-1.21854e-100
1.2202e-100
1.58908e-109
-3.42366e-97
3.42938e-97
-6.51135e-107
-6.79776e-94
1.05383e-93
5.44391e-104
2.59469e-92
-5.03718e-102
-1.82618e-15
-1.81513e-13
-3.26436e-20
-1.48794e-18
-7.4386e-15
-1.15581e-21
-4.95736e-24
-7.39224e-18
-1.04143e-24
-4.93308e-32
-2.70451e-23
-2.62751e-30
-6.80935e-41
-2.18491e-31
-2.00255e-38
-3.30167e-48
-2.76646e-40
-2.24316e-47
-2.5403e-54
-1.23649e-47
-8.80886e-55
-1.64899e-60
-8.95052e-54
-5.66962e-61
-1.87995e-71
-5.24709e-60
-3.05548e-67
-8.54509e-74
-5.62459e-71
-2.93459e-78
-2.81569e-76
-2.37108e-73
-1.14387e-80
-6.7887e-79
-7.2532e-76
-3.29861e-83
-7.91901e-82
-1.66097e-78
-6.99541e-86
-5.50564e-85
-1.81569e-81
-7.24875e-89
-8.61234e-88
-1.16642e-84
-4.42313e-92
-2.95843e-91
-1.7559e-87
-6.09785e-95
-1.81084e-94
-4.96225e-91
-1.83714e-98
-4.86532e-99
-2.84899e-94
-1.01497e-101
-5.43671e-104
-7.71949e-99
-2.46708e-106
-1.72232e-108
-7.45065e-104
-2.4821e-111
-5.5094e-115
-2.07317e-108
-7.09335e-116
-5.33453e-125
-7.02112e-115
-2.0404e-122
-1.8182e-129
-4.89113e-125
-1.76904e-132
-2.66635e-133
-1.83024e-129
-5.3293e-137
-1.15866e-134
-2.58578e-133
-6.87013e-141
-9.88382e-135
-3.23203e-135
-2.60026e-142
-1.72814e-134
7.83531e-135
-3.04788e-141
-4.89349e-132
4.91116e-132
-2.09282e-139
-8.40125e-130
8.38347e-130
-1.49894e-137
-1.23471e-127
1.22936e-127
-1.097e-135
-1.79924e-125
1.79021e-125
-7.72494e-134
-2.74564e-123
2.73165e-123
-1.53802e-132
-4.52759e-121
4.5056e-121
-1.22697e-129
-8.22902e-119
8.21242e-119
-3.93058e-127
-1.6889e-116
1.68631e-116
-4.69424e-125
-3.9818e-114
3.9778e-114
-6.8741e-123
-1.10028e-111
1.09977e-111
-2.03477e-121
-3.64771e-109
3.64801e-109
-8.55266e-118
-1.4922e-106
1.49312e-106
-1.93171e-115
-7.79723e-104
7.80539e-104
-5.43108e-113
-5.44817e-101
5.4555e-101
-7.69128e-112
-5.42365e-98
5.43245e-98
7.6978e-107
-1.50428e-94
1.50722e-94
-2.1103e-104
-3.07746e-91
4.76667e-91
5.58812e-101
1.12408e-89
-1.25552e-99
-1.75897e-15
-2.15375e-13
-4.04592e-20
-1.51067e-18
-8.40032e-15
-1.3547e-21
-7.66481e-24
-8.277e-18
-1.12893e-24
-6.62335e-32
-4.25465e-23
-4.0702e-30
-9.49906e-41
-3.10939e-31
-2.68232e-38
-4.72387e-48
-4.02591e-40
-3.11726e-47
-4.01175e-54
-1.81187e-47
-1.2808e-54
-2.54965e-60
-1.45256e-53
-9.20055e-61
-3.02067e-71
-8.31623e-60
-4.92123e-67
-1.41749e-73
-9.10465e-71
-4.92161e-78
-4.7466e-76
-3.95865e-73
-1.98877e-80
-1.23338e-78
-1.21888e-75
-5.82514e-83
-1.54116e-81
-2.98467e-78
-1.33137e-85
-1.10445e-84
-3.50962e-81
-1.47715e-88
-2.08612e-87
-2.31631e-84
-9.33666e-92
-5.58124e-91
-4.33014e-87
-1.5307e-94
-3.55675e-94
-9.16979e-91
-3.57926e-98
-1.37311e-98
-5.18666e-94
-2.05062e-101
-1.9609e-103
-2.05746e-98
-7.13641e-106
-7.40806e-108
-2.82983e-103
-9.15585e-111
-5.97476e-114
-9.29366e-108
-3.11315e-115
-3.15375e-123
-8.37884e-114
-2.25339e-121
-2.86031e-127
-4.15903e-123
-1.06339e-130
-1.06856e-130
-2.87829e-127
-8.52613e-135
-6.30626e-132
-1.84548e-130
-2.40014e-138
-4.79291e-132
-2.33712e-132
-1.37703e-139
-7.11959e-132
2.49822e-132
-1.06899e-138
-1.64208e-129
1.65359e-129
-7.43438e-137
-2.85946e-127
2.86379e-127
-5.40116e-135
-4.2548e-125
4.25076e-125
-4.0232e-133
-6.27119e-123
6.2601e-123
-2.90091e-131
-9.67402e-121
9.65527e-121
-6.89763e-130
-1.612e-118
1.60915e-118
-4.76832e-127
-2.96695e-116
2.96273e-116
-1.49461e-124
-6.15044e-114
6.1444e-114
-1.80043e-122
-1.46438e-111
1.46367e-111
-2.61596e-120
-4.08603e-109
4.08617e-109
-7.98884e-119
-1.36777e-106
1.36853e-106
-3.32213e-115
-5.64888e-104
5.65497e-104
-7.5457e-113
-2.97956e-101
2.98368e-101
-2.10193e-110
-2.10229e-98
2.10582e-98
3.65191e-109
-2.11293e-95
2.11704e-95
3.2326e-104
-5.70966e-92
5.72285e-92
-5.17129e-102
-1.22185e-88
1.89076e-88
3.37774e-98
4.26514e-87
-1.48325e-97
-1.60748e-15
-2.57986e-13
-5.30306e-20
-1.47326e-18
-9.50959e-15
-1.68276e-21
-1.03297e-23
-9.12315e-18
-1.26709e-24
-8.89717e-32
-6.00483e-23
-6.86477e-30
-1.33177e-40
-4.4705e-31
-4.53316e-38
-6.7162e-48
-5.92221e-40
-5.16998e-47
-6.47325e-54
-2.64732e-47
-2.07824e-54
-4.1255e-60
-2.40525e-53
-1.64595e-60
-4.92808e-71
-1.38425e-59
-8.68676e-67
-2.41861e-73
-1.49697e-70
-8.62684e-78
-8.16756e-76
-6.80615e-73
-3.61715e-80
-2.25284e-78
-2.0976e-75
-1.05944e-82
-3.05598e-81
-5.39257e-78
-2.5552e-85
-2.27555e-84
-6.89495e-81
-3.06212e-88
-5.27741e-87
-4.73567e-84
-2.00806e-91
-1.18865e-90
-1.07962e-86
-3.99371e-94
-7.24689e-94
-2.07077e-90
-7.84342e-98
-3.85464e-98
-1.08157e-93
-4.28203e-101
-8.74146e-103
-5.63679e-98
-2.0468e-105
-4.14489e-107
-1.33813e-102
-4.16001e-110
-6.32183e-113
-5.77684e-107
-1.77211e-114
-3.28618e-121
-6.95481e-113
-2.42126e-120
-4.67797e-125
-3.32635e-121
-1.12377e-128
-2.17239e-128
-4.70467e-125
-1.41359e-132
-4.24113e-129
-2.14481e-128
-5.45349e-136
-2.08189e-129
-4.14254e-129
-7.76892e-137
-2.71554e-129
6.91212e-130
-3.20307e-136
-4.74238e-127
4.7784e-127
-2.25745e-134
-8.3702e-125
8.39389e-125
-1.66396e-132
-1.26145e-122
1.26159e-122
-1.26072e-130
-1.88162e-120
1.88001e-120
-9.29555e-129
-2.93611e-118
2.93283e-118
-2.53563e-127
-4.94735e-116
4.94235e-116
-1.57638e-124
-9.20577e-114
9.19918e-114
-4.86712e-122
-1.92896e-111
1.92836e-111
-5.9568e-120
-4.64184e-109
4.64255e-109
-8.64066e-118
-1.30895e-106
1.3098e-106
-2.69733e-116
-4.42792e-104
4.43301e-104
-1.11528e-112
-1.84747e-101
1.85025e-101
-2.54996e-110
-9.85099e-99
9.86871e-99
-7.06542e-108
-7.02574e-96
7.04038e-96
3.22673e-106
-7.44245e-93
7.45865e-93
1.16768e-101
-1.8276e-89
1.83273e-89
-9.49625e-100
-4.21658e-86
6.51858e-86
1.51551e-95
1.40462e-84
3.59795e-95
-1.35071e-15
-3.08881e-13
-6.39414e-20
-1.35928e-18
-1.0688e-14
-1.92055e-21
-1.24407e-23
-9.81303e-18
-1.35595e-24
-1.19444e-31
-7.79151e-23
-9.70644e-30
-1.87669e-40
-6.48471e-31
-6.87411e-38
-9.51087e-48
-8.79959e-40
-7.8957e-47
-1.0579e-53
-3.86467e-47
-3.13051e-54
-7.00067e-60
-4.02031e-53
-2.82592e-60
-8.17519e-71
-2.41477e-59
-1.54136e-66
-4.25518e-73
-2.5014e-70
-1.48728e-77
-1.45036e-75
-1.20574e-72
-6.61953e-80
-4.16574e-78
-3.73695e-75
-1.95368e-82
-6.16391e-81
-9.87718e-78
-4.8992e-85
-4.85649e-84
-1.37416e-80
-6.38642e-88
-1.30435e-86
-1.00438e-83
-4.42168e-91
-3.29244e-90
-2.5564e-86
-1.01091e-93
-1.94457e-93
-6.40423e-90
-2.22518e-97
-1.1821e-97
-3.40718e-93
-1.17347e-100
-4.34902e-102
-1.77235e-97
-6.39528e-105
-2.80279e-106
-6.36152e-102
-2.10417e-109
-5.09389e-112
-3.69342e-106
-1.21654e-113
-3.92402e-119
-4.60265e-112
-1.97738e-119
-7.97452e-123
-3.94467e-119
-1.35867e-126
-7.15639e-127
-8.01973e-123
-2.43874e-130
-8.46007e-127
-2.32685e-127
-1.9232e-134
-5.03227e-127
-7.12276e-127
-2.29266e-134
-6.51591e-127
1.64882e-127
-8.14179e-134
-1.16276e-124
1.17458e-124
-5.81826e-132
-2.08294e-122
2.09219e-122
-4.35288e-130
-3.18075e-120
3.18517e-120
-3.35422e-128
-4.80425e-118
4.80548e-118
-2.52682e-126
-7.58812e-116
7.58724e-116
-7.64579e-125
-1.29385e-113
1.29374e-113
-4.41992e-122
-2.4358e-111
2.43616e-111
-1.35465e-119
-5.16319e-109
5.16577e-109
-1.68053e-117
-1.25679e-106
1.25796e-106
-2.43937e-115
-3.58473e-104
3.58972e-104
-7.91902e-114
-1.22624e-101
1.22839e-101
-3.20856e-110
-5.17637e-99
5.18686e-99
-7.39946e-108
-2.79315e-96
2.79961e-96
-2.04483e-105
-2.0158e-93
2.021e-93
1.45599e-103
-2.24204e-90
2.24785e-90
3.76078e-99
-4.8931e-87
4.90961e-87
-1.05468e-97
-1.25291e-83
1.93493e-83
5.4481e-93
3.97673e-82
3.25723e-92
-9.64038e-16
-3.88514e-13
-8.03576e-20
-1.16572e-18
-1.16764e-14
-2.23867e-21
-1.36179e-23
-1.02251e-17
-1.49989e-24
-1.60206e-31
-9.43449e-23
-1.30137e-29
-2.66e-40
-9.47785e-31
-1.07203e-37
-1.34789e-47
-1.31972e-39
-1.24067e-46
-1.73411e-53
-5.66136e-47
-4.79995e-54
-1.23639e-59
-6.70814e-53
-4.93265e-60
-1.38039e-70
-4.35815e-59
-2.87736e-66
-7.70668e-73
-4.24765e-70
-2.63421e-77
-2.68188e-75
-2.19175e-72
-1.25245e-79
-7.87798e-78
-6.94179e-75
-3.75634e-82
-1.26446e-80
-1.85462e-77
-9.59754e-85
-1.07814e-83
-2.77885e-80
-1.35115e-87
-3.05378e-86
-2.21294e-83
-1.00855e-90
-1.13449e-89
-5.66901e-86
-2.41592e-93
-7.54642e-93
-2.27241e-89
-7.82978e-97
-4.21968e-97
-1.45289e-92
-4.63877e-100
-2.05517e-101
-6.51176e-97
-2.32053e-104
-1.77431e-105
-2.68245e-101
-1.0088e-108
-4.67812e-111
-1.98039e-105
-7.80412e-113
-5.01667e-117
-5.65983e-111
-1.83774e-118
-1.42158e-120
-5.03362e-117
-1.75648e-124
-2.02163e-125
-1.42918e-120
-4.39492e-128
-2.93819e-125
-8.92681e-126
-5.49268e-133
-1.91236e-125
-5.9479e-126
-8.49492e-133
-4.87016e-125
3.35915e-125
-1.73777e-131
-2.38857e-122
2.42879e-122
-1.26009e-129
-4.35716e-120
4.38527e-120
-9.57431e-128
-6.74456e-118
6.76467e-118
-7.50583e-126
-1.03213e-115
1.03382e-115
-5.77499e-124
-1.6512e-113
1.65305e-113
-1.91648e-122
-2.8511e-111
2.85411e-111
-1.03812e-119
-5.43464e-109
5.44125e-109
-3.1935e-117
-1.1663e-106
1.16807e-106
-3.99713e-115
-2.87409e-104
2.87954e-104
-5.83368e-113
-8.29712e-102
8.31528e-102
-1.9572e-111
-2.87397e-99
2.88092e-99
-7.82315e-108
-1.22908e-96
1.23238e-96
-1.82321e-105
-6.71902e-94
6.73883e-94
-5.04111e-103
-4.91242e-91
4.92818e-91
4.72267e-101
-5.75249e-88
5.77094e-88
1.02067e-96
-1.0817e-84
1.08613e-84
1.01121e-96
-3.17382e-81
4.89621e-81
1.59655e-90
9.58187e-80
1.23749e-89
-4.85327e-16
-6.14157e-13
-1.19203e-19
-9.11943e-19
-1.24171e-14
-2.53657e-21
-1.36764e-23
-1.02919e-17
-1.61297e-24
-2.14924e-31
-1.07121e-22
-1.55398e-29
-3.79831e-40
-1.39423e-30
-1.59958e-37
-1.92657e-47
-1.99651e-39
-1.90634e-46
-2.82723e-53
-8.38125e-47
-7.27476e-54
-2.23556e-59
-1.10708e-52
-8.44172e-60
-2.37317e-70
-7.97136e-59
-5.43461e-66
-1.42834e-72
-7.32433e-70
-4.70469e-77
-5.17889e-75
-4.05353e-72
-2.40288e-79
-1.54113e-77
-1.34338e-74
-7.4811e-82
-2.64475e-80
-3.61017e-77
-1.9308e-84
-2.48333e-83
-5.72063e-80
-2.89764e-87
-6.87817e-86
-5.03324e-83
-2.38022e-90
-3.83356e-89
-1.21918e-85
-5.53387e-93
-3.04438e-92
-7.0781e-89
-2.69185e-96
-1.66536e-96
-5.30802e-92
-1.90004e-99
-9.43876e-101
-2.49055e-96
-9.28404e-104
-1.09859e-104
-1.16431e-100
-4.68915e-108
-8.11048e-110
-1.2034e-104
-4.88639e-112
-6.72368e-115
-1.13608e-109
-3.21851e-117
-2.65713e-118
-6.73202e-115
-2.37703e-122
-4.83926e-123
-2.67013e-118
-8.29403e-126
-2.43571e-123
-2.25871e-123
-1.32789e-130
-1.65879e-123
-7.57992e-124
-5.82673e-131
-6.60464e-123
5.77166e-123
-3.07696e-129
-4.08726e-120
4.17362e-120
-2.26543e-127
-7.56777e-118
7.63557e-118
-1.74912e-125
-1.18792e-115
1.19384e-115
-1.39578e-123
-1.84292e-113
1.84912e-113
-1.09677e-121
-2.98822e-111
2.99624e-111
-3.92493e-120
-5.22885e-109
5.24189e-109
-2.02948e-117
-1.00996e-106
1.01255e-106
-6.26997e-115
-2.19615e-104
2.20228e-104
-7.91878e-113
-5.48172e-102
5.49763e-102
-1.16341e-110
-1.60409e-99
1.60899e-99
-4.09965e-109
-5.63519e-97
5.65358e-97
-1.5991e-105
-2.44433e-94
2.4529e-94
-3.77166e-103
-1.35536e-91
1.36046e-91
-1.04596e-100
-1.00511e-88
1.00913e-88
1.19355e-98
-1.34974e-85
1.35444e-85
2.32817e-94
-1.9763e-82
1.98602e-82
3.60613e-93
-6.78246e-79
1.04516e-78
3.8645e-88
1.94403e-77
3.47252e-87
-9.06288e-17
-1.34317e-12
-2.12095e-19
-6.3714e-19
-1.45893e-14
-2.6621e-21
-1.2644e-23
-1.00759e-17
-1.71324e-24
-2.89262e-31
-1.13445e-22
-1.79307e-29
-5.47809e-40
-2.06269e-30
-2.50113e-37
-2.80738e-47
-3.04529e-39
-3.09261e-46
-4.56056e-53
-1.26637e-46
-1.16161e-53
-4.0574e-59
-1.79688e-52
-1.45515e-59
-4.15429e-70
-1.44609e-58
-1.03969e-65
-2.68606e-72
-1.28093e-69
-8.59897e-77
-1.0381e-74
-7.55044e-72
-4.6847e-79
-3.14591e-77
-2.67934e-74
-1.54594e-81
-5.67155e-80
-7.33292e-77
-4.0467e-84
-5.88807e-83
-1.2066e-79
-6.35854e-87
-1.57424e-85
-1.16935e-82
-5.7757e-90
-1.1033e-88
-2.73846e-85
-1.28547e-92
-9.81459e-92
-1.80066e-88
-7.86133e-96
-6.60658e-96
-1.44143e-91
-6.20239e-99
-5.16903e-100
-9.17413e-96
-3.72397e-103
-9.3351e-104
-6.97835e-100
-2.59299e-107
-1.29746e-108
-1.26392e-103
-4.19016e-111
-9.47408e-113
-1.03401e-108
-5.19176e-116
-5.22304e-116
-9.4591e-113
-3.37679e-120
-1.4957e-120
-5.24575e-116
-1.64396e-123
-4.05385e-121
-9.5986e-121
-4.14053e-128
-1.59404e-121
-2.42885e-121
-9.77661e-129
-8.47752e-121
8.27123e-121
-4.46952e-127
-5.74415e-118
5.89424e-118
-3.34362e-125
-1.07913e-115
1.0922e-115
-2.6248e-123
-1.71848e-113
1.73136e-113
-2.13282e-121
-2.70428e-111
2.71927e-111
-1.71142e-119
-4.44728e-109
4.46796e-109
-6.57381e-118
-7.89197e-107
7.92601e-107
-3.25592e-115
-1.54564e-104
1.55203e-104
-1.01614e-112
-3.40769e-102
3.42129e-102
-1.293e-110
-8.6334e-100
8.6681e-100
-1.92225e-108
-2.56506e-97
2.57569e-97
-7.08545e-107
-9.14996e-95
9.18962e-95
-2.71196e-103
-4.03049e-92
4.04885e-92
-6.48447e-101
-2.26976e-89
2.28062e-89
-1.80935e-98
-1.70955e-86
1.7181e-86
2.38397e-96
-2.73807e-83
2.7494e-83
4.80123e-92
-3.09479e-80
3.11226e-80
9.35976e-91
-1.20927e-76
1.86133e-76
7.6673e-86
3.28386e-75
7.41551e-85
2.81769e-15
-3.3566e-12
-6.56493e-19
-3.84938e-19
-2.37279e-14
-4.21506e-21
-1.07967e-23
-9.88829e-18
-2.00364e-24
-3.92584e-31
-1.11545e-22
-1.87905e-29
-8.00719e-40
-3.06819e-30
-3.74871e-37
-4.22529e-47
-4.6822e-39
-4.84716e-46
-7.27176e-53
-1.97521e-46
-1.84437e-53
-7.26925e-59
-2.86547e-52
-2.42268e-59
-7.4019e-70
-2.55994e-58
-1.93513e-65
-5.08553e-72
-2.26918e-69
-1.58435e-76
-2.13115e-74
-1.40523e-71
-9.1191e-79
-6.71234e-77
-5.41546e-74
-3.24813e-81
-1.25669e-79
-1.5502e-76
-8.80715e-84
-1.42679e-82
-2.62881e-79
-1.43364e-86
-3.95441e-85
-2.75647e-82
-1.42592e-89
-2.79493e-88
-7.00008e-85
-3.26551e-92
-2.63792e-91
-4.1372e-88
-2.01409e-95
-2.65103e-95
-3.43052e-91
-1.68292e-98
-3.90086e-99
-3.51915e-95
-1.50686e-102
-1.14745e-102
-5.65041e-99
-1.97123e-106
-1.47817e-107
-1.51507e-102
-5.18687e-110
-1.40769e-110
-1.13985e-107
-5.95361e-115
-1.08321e-113
-1.40016e-110
-5.0508e-118
-4.90558e-118
-1.08715e-113
-3.43347e-121
-1.72002e-118
-2.77853e-118
-1.36852e-125
-9.80981e-119
-4.00867e-119
-4.1826e-126
-1.76718e-118
9.74313e-119
-5.25696e-125
-6.54835e-116
6.75174e-116
-3.99888e-123
-1.24647e-113
1.26657e-113
-3.19359e-121
-2.01454e-111
2.03613e-111
-2.64343e-119
-3.21749e-109
3.24434e-109
-2.16656e-117
-5.3698e-107
5.40702e-107
-8.83156e-116
-9.66957e-105
9.72813e-105
-4.24312e-113
-1.92323e-102
1.93404e-102
-1.33566e-110
-4.30963e-100
4.33313e-100
-1.7219e-108
-1.10981e-97
1.11587e-97
-2.59512e-106
-3.35197e-95
3.37059e-95
-1.01508e-104
-1.21568e-92
1.22263e-92
-3.77282e-101
-5.44527e-90
5.47743e-90
-9.15965e-99
-3.11863e-87
3.13766e-87
-2.57812e-96
-2.38902e-84
2.40405e-84
3.8038e-94
-4.33658e-81
4.36157e-81
8.45965e-90
-4.47583e-78
4.50217e-78
1.55617e-88
-1.77782e-74
2.73332e-74
1.24401e-83
4.56341e-73
1.26963e-82
1.42852e-14
-7.94063e-12
-1.55577e-18
-1.9042e-19
-5.07906e-14
-7.68355e-21
-8.67711e-24
-1.22427e-17
-2.24677e-24
-5.40913e-31
-1.03858e-22
-1.85789e-29
-1.19069e-39
-4.58947e-30
-5.75135e-37
-6.65053e-47
-7.25652e-39
-7.83355e-46
-1.15096e-52
-3.21038e-46
-3.09936e-53
-1.27385e-58
-4.51094e-52
-4.02529e-59
-1.34245e-69
-4.38957e-58
-3.5248e-65
-9.66125e-72
-4.06956e-69
-2.96511e-76
-4.41631e-74
-2.60804e-71
-1.77688e-78
-1.48659e-76
-1.09283e-73
-6.87016e-81
-2.89988e-79
-3.37182e-76
-1.98393e-83
-3.53715e-82
-5.95762e-79
-3.35624e-86
-1.14802e-84
-6.62671e-82
-3.59089e-89
-7.26875e-88
-2.08405e-84
-9.56404e-92
-7.49881e-91
-1.07516e-87
-5.28323e-95
-1.20775e-94
-1.02822e-90
-4.81662e-98
-3.24174e-98
-1.6294e-94
-6.90497e-102
-1.23054e-101
-4.02242e-98
-1.64649e-105
-6.64808e-106
-1.14249e-101
-5.59037e-109
-2.21252e-108
-6.84802e-106
-2.69055e-113
-2.37827e-111
-2.18951e-108
-7.97975e-116
-1.7046e-115
-2.38463e-111
-7.58202e-119
-1.67446e-116
-1.40404e-115
-4.7868e-123
-9.79345e-117
-3.15154e-117
-4.10164e-124
-1.69899e-116
9.27158e-117
-4.92957e-123
-5.94183e-114
6.1734e-114
-3.81476e-121
-1.14768e-111
1.17153e-111
-3.10011e-119
-1.88325e-109
1.90922e-109
-2.61342e-117
-3.05566e-107
3.08803e-107
-2.1882e-115
-5.18457e-105
5.23081e-105
-9.46734e-114
-9.49885e-103
9.57514e-103
-4.42383e-111
-1.92239e-100
1.93695e-100
-1.40697e-108
-4.38363e-98
4.41596e-98
-1.84726e-106
-1.1489e-95
1.15734e-95
-2.83383e-104
-3.5322e-93
3.55836e-93
-1.17079e-102
-1.30424e-90
1.31405e-90
-4.24868e-99
-5.9489e-88
5.99457e-88
-1.04929e-96
-3.47011e-85
3.49729e-85
-2.98894e-94
-2.70782e-82
2.72942e-82
4.80262e-92
-5.37418e-79
5.41536e-79
1.14921e-87
-5.26369e-76
5.30539e-76
2.05038e-86
-2.12842e-72
3.26891e-72
1.62947e-81
5.15068e-71
1.70247e-80
4.67652e-14
-1.66794e-11
-3.46569e-18
-3.82319e-20
-1.10884e-13
-1.59148e-20
-6.58492e-24
-6.81502e-17
-5.79152e-24
-7.62058e-31
-8.19475e-23
-1.81122e-29
-1.80779e-39
-6.90771e-30
-9.39811e-37
-1.10252e-46
-1.13382e-38
-1.32036e-45
-1.82698e-52
-5.44859e-46
-5.51164e-53
-2.18416e-58
-7.09298e-52
-6.69923e-59
-2.48168e-69
-7.31329e-58
-6.24179e-65
-1.84888e-71
-7.39578e-69
-5.60593e-76
-9.16691e-74
-4.85935e-71
-3.4551e-78
-3.37804e-76
-2.19129e-73
-1.44277e-80
-7.00589e-79
-7.44385e-76
-4.54988e-83
-9.09533e-82
-1.4086e-78
-8.17321e-86
-3.71216e-84
-1.65668e-81
-9.33066e-89
-2.43581e-87
-6.61095e-84
-3.10872e-91
-3.15085e-90
-4.066e-87
-1.77981e-94
-6.83037e-94
-5.2744e-90
-2.03159e-97
-2.39643e-97
-9.31386e-94
-3.91775e-101
-1.10402e-100
-2.38984e-97
-1.22062e-104
-7.51192e-104
-9.03996e-101
-5.03082e-108
-3.69088e-106
-7.16349e-104
-3.04969e-111
-5.54819e-109
-3.62731e-106
-1.33616e-113
-6.32769e-113
-5.55543e-109
-1.77677e-116
-1.30062e-114
-5.74418e-113
-1.78678e-120
-8.0057e-115
-1.98987e-115
-3.20619e-122
-1.31821e-114
6.98879e-115
-3.61822e-121
-4.24406e-112
4.41749e-112
-2.84234e-119
-8.3022e-110
8.49307e-110
-2.35624e-117
-1.38558e-107
1.40817e-107
-2.03078e-115
-2.28879e-105
2.31901e-105
-1.74219e-113
-3.95498e-103
4.00068e-103
-7.95435e-112
-7.38099e-101
7.45967e-101
-3.65906e-109
-1.52182e-98
1.5373e-98
-1.16929e-106
-3.53591e-96
3.57104e-96
-1.57276e-104
-9.44441e-94
9.53753e-94
-2.45921e-102
-2.95974e-91
2.98896e-91
-1.08469e-100
-1.11427e-88
1.12534e-88
-3.81714e-97
-5.1833e-86
5.23528e-86
-9.60631e-95
-3.08431e-83
3.11554e-83
-2.77641e-92
-2.45563e-80
2.4807e-80
4.78445e-90
-5.26255e-77
5.31459e-77
1.2052e-85
-4.97117e-74
5.0234e-74
2.00986e-84
-2.04757e-70
3.14205e-70
1.71041e-79
4.65757e-69
1.81928e-78
1.19925e-13
-3.09056e-11
-6.83525e-18
6.68995e-17
-2.1927e-13
-3.18621e-20
-4.15684e-24
-2.78576e-16
-3.64136e-23
-1.10438e-30
-5.62183e-23
-1.3265e-29
-2.81037e-39
-1.04698e-29
-1.44542e-36
-1.91903e-46
-1.78671e-38
-2.15288e-45
-2.95894e-52
-9.56444e-46
-9.99674e-53
-3.70526e-58
-1.13635e-51
-1.12384e-58
-4.68937e-69
-1.20188e-57
-1.08947e-64
-3.60878e-71
-1.36609e-68
-1.08181e-75
-1.91519e-73
-9.23522e-71
-6.84642e-78
-7.81613e-76
-4.41107e-73
-3.04434e-80
-1.77481e-78
-1.6588e-75
-1.06002e-82
-2.48402e-81
-3.46979e-78
-2.08092e-85
-1.21681e-83
-4.42281e-81
-2.56663e-88
-1.12763e-86
-2.01425e-83
-1.02257e-90
-1.84368e-89
-1.98332e-86
-8.26305e-94
-4.52175e-93
-3.01063e-89
-1.19024e-96
-1.99197e-96
-5.90487e-93
-2.59579e-100
-1.8857e-99
-2.39147e-96
-1.01538e-103
-9.60481e-102
-2.59343e-99
-8.60297e-107
-6.55798e-104
-8.94012e-102
-3.90537e-109
-1.38055e-106
-6.38434e-104
-2.37967e-111
-2.51481e-110
-1.37959e-106
-4.43562e-114
-1.21152e-112
-2.48608e-110
-7.13229e-118
-6.72722e-113
-4.0221e-113
-2.72742e-120
-1.05591e-112
5.05253e-113
-2.52432e-119
-2.91631e-110
3.02519e-110
-2.02337e-117
-5.77339e-108
5.90027e-108
-1.71499e-115
-9.80484e-106
9.96137e-106
-1.51287e-113
-1.65033e-103
1.67207e-103
-1.33098e-111
-2.90742e-101
2.94138e-101
-6.42152e-110
-5.53359e-99
5.59378e-99
-2.91039e-107
-1.16382e-96
1.17597e-96
-9.37358e-105
-2.759e-94
2.78723e-94
-1.29431e-102
-7.52073e-92
7.59717e-92
-2.0692e-100
-2.40599e-89
2.43047e-89
-9.69226e-99
-9.24944e-87
9.3441e-87
-3.32968e-95
-4.39503e-84
4.44037e-84
-8.55604e-93
-2.67227e-81
2.70005e-81
-2.51741e-90
-2.17452e-78
2.19727e-78
4.57166e-88
-4.86597e-75
4.9172e-75
1.21601e-83
-5.3458e-72
5.54721e-72
2.08822e-82
-1.56025e-68
2.39287e-68
1.41599e-77
3.32455e-67
1.50376e-76
2.57607e-13
-5.07831e-11
-1.15621e-17
2.28445e-16
-3.85553e-13
-5.689e-20
-2.72269e-24
-6.69933e-16
-1.06021e-22
-1.6522e-30
-4.45775e-23
-1.05993e-29
-4.4817e-39
-1.59909e-29
-2.45519e-36
-3.45672e-46
-2.84099e-38
-3.75122e-45
-5.0077e-52
-1.70243e-45
-1.89682e-52
-6.36568e-58
-1.9053e-51
-1.95552e-58
-9.1028e-69
-2.00603e-57
-1.89355e-64
-7.32482e-71
-2.57816e-68
-2.10475e-75
-4.10606e-73
-1.83001e-70
-1.38659e-77
-1.85015e-75
-9.14732e-73
-6.49939e-80
-4.71655e-78
-3.76977e-75
-2.49883e-82
-7.36986e-81
-8.89411e-78
-5.51075e-85
-3.8878e-83
-1.28204e-80
-7.6157e-88
-5.41364e-86
-5.90479e-83
-3.27068e-90
-9.3288e-89
-8.31786e-86
-3.96778e-93
-3.24569e-92
-1.20089e-88
-6.01417e-96
-3.18968e-95
-3.81783e-92
-1.86049e-99
-1.03316e-97
-5.08961e-95
-1.62384e-102
-1.38591e-99
-9.71484e-98
-4.71088e-105
-1.24574e-101
-1.2984e-99
-5.63539e-107
-3.67912e-104
-1.19697e-101
-4.52488e-109
-1.07332e-107
-3.66543e-104
-1.18453e-111
-1.54448e-110
-1.07453e-107
-3.05397e-115
-8.09783e-111
-1.00391e-110
-3.63688e-118
-1.05305e-110
3.17766e-111
-1.52695e-117
-1.73037e-108
1.79048e-108
-1.2466e-115
-3.46315e-106
3.54379e-106
-1.08165e-113
-5.99228e-104
6.09841e-104
-9.77822e-112
-1.02915e-101
1.04467e-101
-8.83318e-110
-1.85116e-99
1.87641e-99
-4.48555e-108
-3.59857e-97
3.64477e-97
-2.02313e-105
-7.73244e-95
7.82819e-95
-6.57106e-103
-1.87332e-92
1.89605e-92
-9.3218e-101
-5.22008e-90
5.28284e-90
-1.52481e-98
-1.7077e-87
1.72816e-87
-7.63553e-97
-6.71572e-85
6.79621e-85
-2.55426e-93
-3.26565e-82
3.30486e-82
-6.71398e-91
-2.03277e-79
2.05722e-79
-2.01622e-88
-1.69401e-76
1.71439e-76
3.82667e-86
-3.91373e-73
3.96141e-73
1.04839e-81
-4.84232e-70
5.42913e-70
1.75411e-80
-9.2716e-67
1.4219e-66
9.14813e-76
1.84308e-65
9.6777e-75
4.78649e-13
-7.43953e-11
-1.98495e-17
5.00132e-16
-6.04572e-13
-1.02507e-19
-2.19016e-24
-1.22968e-15
-2.1983e-22
-2.55485e-30
-4.14391e-23
-9.15685e-30
-7.3398e-39
-2.46193e-29
-3.88069e-36
-6.31237e-46
-4.56152e-38
-6.28239e-45
-9.0865e-52
-3.00333e-45
-3.53184e-52
-1.148e-57
-3.42935e-51
-3.60701e-58
-1.82698e-68
-3.54841e-57
-3.45349e-64
-1.57765e-70
-5.00495e-68
-4.24601e-75
-9.3102e-73
-3.85337e-70
-2.98757e-77
-4.57254e-75
-2.0217e-72
-1.46798e-79
-1.32256e-77
-8.97334e-75
-6.14244e-82
-2.39641e-80
-2.38869e-77
-1.53577e-84
-1.29647e-82
-4.01515e-80
-2.47216e-87
-2.19985e-85
-1.89155e-82
-1.09311e-89
-3.73967e-88
-2.74116e-85
-1.61092e-92
-2.58601e-91
-3.82589e-88
-2.40321e-95
-6.80034e-94
-2.4771e-91
-1.47734e-98
-1.08748e-95
-6.12634e-94
-3.45159e-101
-2.65957e-97
-1.01266e-95
-4.49514e-103
-2.53991e-99
-2.52764e-97
-8.75803e-105
-1.05468e-101
-2.39737e-99
-9.22316e-107
-4.96088e-105
-1.04588e-101
-3.39892e-109
-6.35621e-109
-4.97068e-105
-1.41457e-112
-3.50734e-109
-4.66011e-110
-1.51441e-116
-4.58096e-109
1.47904e-109
-6.82566e-116
-7.48404e-107
7.77159e-107
-5.64285e-114
-1.51864e-104
1.56171e-104
-5.01872e-112
-2.68039e-102
2.74254e-102
-4.65562e-110
-4.70391e-100
4.80107e-100
-4.32388e-108
-8.65219e-98
8.81832e-98
-2.31708e-106
-1.72072e-95
1.75226e-95
-1.04136e-103
-3.78397e-93
3.85122e-93
-3.42986e-101
-9.38514e-91
9.54848e-91
-4.99569e-99
-2.67829e-88
2.72425e-88
-8.37945e-97
-8.97663e-86
9.12908e-86
-4.4632e-95
-3.61832e-83
3.67928e-83
-1.46442e-91
-1.80427e-80
1.83444e-80
-3.94583e-89
-1.15223e-77
1.17136e-77
-1.2134e-86
-9.85533e-75
1.00176e-74
2.37639e-84
-2.34733e-71
2.38607e-71
6.70791e-80
-3.16621e-68
3.71271e-68
8.68652e-79
-4.22337e-65
6.48351e-65
4.52943e-74
7.79405e-64
4.69581e-73
7.77505e-13
-9.76706e-11
-2.85919e-17
8.54504e-16
-8.46502e-13
-1.61164e-19
-2.31878e-24
-1.84353e-15
-3.6708e-22
-4.08381e-30
-5.83057e-23
-1.04516e-29
-1.23593e-38
-3.82025e-29
-6.45901e-36
-1.14772e-45
-7.40409e-38
-1.07717e-44
-1.79318e-51
-5.16442e-45
-6.39677e-52
-2.26446e-57
-6.664e-51
-7.00692e-58
-3.81895e-68
-6.93585e-57
-6.66573e-64
-3.64402e-70
-1.00628e-67
-8.67254e-75
-2.29706e-72
-8.65031e-70
-6.75302e-77
-1.21777e-74
-4.87443e-72
-3.55023e-79
-3.98728e-77
-2.31246e-74
-1.60854e-81
-8.54183e-80
-6.86723e-77
-4.56499e-84
-5.21003e-82
-1.3475e-79
-8.75166e-87
-8.64145e-85
-7.79946e-82
-4.40902e-89
-1.68588e-87
-1.00286e-84
-6.31857e-92
-2.92753e-90
-1.93278e-87
-1.07838e-94
-4.28104e-92
-3.43649e-90
-1.66422e-97
-1.95855e-93
-4.30686e-92
-1.97949e-99
-4.99229e-95
-1.84853e-93
-6.01702e-101
-5.57449e-97
-4.78083e-95
-1.46579e-102
-3.26749e-99
-5.29802e-97
-2.02134e-104
-2.49223e-102
-3.21677e-99
-1.05277e-106
-4.58856e-108
-2.4971e-102
-7.11366e-110
-3.3005e-108
-1.74793e-107
-1.14811e-115
-6.73577e-108
5.107e-108
-2.2264e-114
-2.33844e-105
2.45016e-105
-1.85737e-112
-4.82562e-103
4.99874e-103
-1.69575e-110
-8.6991e-101
8.96989e-101
-1.61658e-108
-1.56236e-98
1.60716e-98
-1.54623e-106
-2.94365e-96
3.02355e-96
-8.72649e-105
-5.99986e-94
6.15669e-94
-3.94225e-102
-1.35281e-91
1.38718e-91
-1.31836e-99
-3.44159e-89
3.52713e-89
-1.97314e-97
-1.00783e-86
1.03243e-86
-3.39609e-95
-3.46784e-84
3.55113e-84
-1.93176e-93
-1.43578e-81
1.46977e-81
-6.22087e-90
-7.35799e-79
7.52964e-79
-1.72146e-87
-4.83196e-76
4.94302e-76
-5.43455e-85
-4.2521e-73
4.34832e-73
1.09332e-82
-1.04502e-69
1.0685e-69
3.19276e-78
-1.51227e-66
1.82672e-66
2.3512e-77
-1.4465e-63
2.22673e-63
1.69535e-72
2.46301e-62
1.71477e-71
1.10255e-12
-1.15732e-10
-3.67108e-17
1.18088e-15
-1.05348e-12
-2.20536e-19
-1.27342e-23
-2.15549e-15
-5.0276e-22
-6.74862e-30
-7.49247e-22
-5.52901e-29
-2.14372e-38
-5.97273e-29
-1.03582e-35
-2.0619e-45
-1.21721e-37
-1.84919e-44
-3.79982e-51
-8.62752e-45
-1.14455e-51
-4.99292e-57
-1.35941e-50
-1.48148e-57
-8.36586e-68
-1.50596e-56
-1.46406e-63
-8.96314e-70
-2.10589e-67
-1.88476e-74
-6.21821e-72
-2.03513e-69
-1.64255e-76
-3.60045e-74
-1.27186e-71
-9.46984e-79
-1.34006e-76
-6.58299e-74
-4.68476e-81
-3.41702e-79
-2.19223e-76
-1.51197e-83
-2.73202e-81
-5.00464e-79
-3.46943e-86
-5.08466e-84
-4.03634e-81
-2.33173e-88
-1.68239e-86
-8.04186e-84
-3.71827e-91
-1.15573e-88
-2.95271e-86
-1.07083e-93
-7.31011e-90
-1.25503e-88
-6.53166e-96
-3.00804e-91
-6.82483e-90
-2.346e-97
-9.81339e-93
-2.83679e-91
-8.72971e-99
-1.57287e-94
-9.4092e-93
-2.6545e-100
-1.0995e-96
-1.51011e-94
-4.79142e-102
-1.36727e-99
-1.07004e-96
-3.53777e-104
-2.84914e-105
-1.36962e-99
-3.9022e-107
-1.45085e-104
-2.54448e-106
-7.13592e-113
-2.03951e-104
1.37281e-105
-5.6862e-112
-7.30051e-104
5.88268e-104
-4.66931e-111
-1.09831e-101
1.1484e-101
-4.12905e-109
-2.02106e-99
2.10778e-99
-4.04959e-107
-3.72139e-97
3.87197e-97
-3.99596e-105
-7.19593e-95
7.47492e-95
-2.38233e-103
-1.50625e-92
1.56276e-92
-1.08356e-100
-3.48949e-90
3.61685e-90
-3.6963e-98
-9.12558e-88
9.45065e-88
-5.68965e-96
-2.74837e-85
2.84415e-85
-1.00671e-93
-9.73114e-83
1.00632e-82
-6.09213e-92
-4.14829e-80
4.28698e-80
-1.93959e-88
-2.19026e-77
2.26199e-77
-5.52447e-86
-1.48289e-74
1.53043e-74
-1.79656e-83
-1.37252e-71
1.41483e-71
3.6758e-81
-3.42109e-68
3.52668e-68
1.12283e-76
-5.26694e-65
6.51129e-65
8.72316e-77
-3.64271e-62
5.63995e-62
4.6965e-71
5.67736e-61
4.5467e-70
1.35448e-12
-1.2422e-10
-4.32593e-17
1.28622e-15
-1.12866e-12
-2.68335e-19
-1.50236e-22
-1.99363e-15
-5.70384e-22
-1.15381e-29
-6.48131e-21
-5.87228e-28
-3.84146e-38
-9.40959e-29
-1.63991e-35
-3.69018e-45
-2.03271e-37
-3.10939e-44
-8.32183e-51
-1.42213e-44
-1.92578e-51
-1.19847e-56
-2.77364e-50
-3.06287e-57
-1.92832e-67
-3.44332e-56
-3.34221e-63
-2.30582e-69
-4.59748e-67
-4.15771e-74
-1.81846e-71
-4.90386e-69
-4.07443e-76
-1.20158e-73
-3.48218e-71
-2.68431e-78
-5.29705e-76
-2.06732e-73
-1.52419e-80
-1.66538e-78
-8.14681e-76
-5.84825e-83
-1.68391e-80
-2.27967e-78
-1.65831e-85
-5.71299e-83
-2.14757e-80
-1.47345e-87
-3.13117e-85
-9.53644e-83
-4.18114e-90
-1.6069e-86
-3.07514e-85
-1.98263e-92
-1.00799e-87
-1.47364e-86
-5.87793e-94
-4.94244e-89
-9.38923e-88
-3.06171e-95
-2.05254e-90
-4.63686e-89
-1.37659e-96
-4.71226e-92
-1.96315e-90
-5.2275e-98
-4.04021e-94
-4.55632e-92
-1.23661e-99
-8.24221e-97
-3.8614e-94
-1.29682e-101
-1.953e-102
-8.25358e-97
-2.34943e-104
-7.36217e-103
-1.04176e-102
-4.89087e-110
-5.63575e-103
3.96731e-104
-1.60354e-110
-1.40471e-102
9.69516e-103
-8.10683e-110
-1.75335e-100
1.86187e-100
-7.13681e-108
-3.30108e-98
3.5024e-98
-7.21653e-106
-6.24485e-96
6.60953e-96
-7.36118e-104
-1.24212e-93
1.3121e-93
-4.63308e-102
-2.67641e-91
2.8226e-91
-2.13799e-99
-6.38627e-89
6.72532e-89
-7.45519e-97
-1.7211e-86
1.81005e-86
-1.18189e-94
-5.34472e-84
5.61386e-84
-2.15164e-92
-1.95245e-81
2.04827e-81
-1.38801e-90
-8.59305e-79
9.00402e-79
-4.38298e-87
-4.68769e-76
4.90607e-76
-1.28738e-84
-3.28172e-73
3.43052e-73
-4.32354e-82
-3.76641e-70
3.90488e-70
9.16018e-80
-8.12711e-67
8.47621e-67
2.88992e-75
-1.32625e-63
1.67492e-63
-1.30209e-74
-6.5647e-61
1.02752e-60
9.44415e-70
9.2616e-60
8.64923e-69
1.42042e-12
-1.18344e-10
-4.21702e-17
1.01217e-15
-1.03237e-12
-2.57453e-19
-6.77423e-22
-1.52767e-15
-5.05135e-22
-2.04407e-29
-1.41959e-20
-2.29491e-27
-7.14218e-38
-1.4963e-28
-2.71403e-35
-6.76566e-45
-3.46357e-37
-5.54745e-44
-1.81369e-50