/*--------------------------------*- C++ -*----------------------------------*\
| =========                 |                                                 |
| \\      /  F ield         | OpenFOAM: The Open Source CFD Toolbox           |
|  \\    /   O peration     | Version:  v2012                                 |
|   \\  /    A nd           | Website:  www.openfoam.com                      |
|    \\/     M anipulation  |                                                 |
\*---------------------------------------------------------------------------*/
FoamFile
{
    version     2.0;
    format      ascii;
    class       volScalarField;
    location    "0.5";
    object      alpha.water;
}
// * * * * * * * * * * * * * * * * * * * * * * * * * * * * * * * * * * * * * //

dimensions      [0 0 0 0 0 0 0];


internalField   nonuniform List<scalar> 
3326
(
1.13362e-112
3.48315e-110
1.35781e-107
7.01405e-105
4.1063e-102
2.97372e-99
3.18642e-97
2.45588e-89
1.66032e-87
6.81791e-117
1.21172e-114
2.53798e-112
6.4641e-110
2.00118e-107
7.86272e-105
4.06927e-102
2.13068e-99
1.55597e-96
2.04912e-94
1.31844e-86
8.57041e-85
4.9118e-06
2.00863e-07
1.93056e-10
5.52894e-16
4.77706e-24
5.76551e-33
2.46565e-40
1.683e-46
9.79931e-53
1.00952e-63
4.17452e-66
1.26094e-68
2.80198e-71
3.03011e-74
1.96647e-77
2.87608e-80
9.37757e-84
5.4494e-87
1.38857e-91
1.4786e-96
4.50259e-101
1.34635e-107
6.85627e-118
1.27408e-125
6.39838e-128
8.1568e-129
1.85132e-128
1.49274e-126
1.30699e-124
1.25895e-122
1.3455e-120
1.60924e-118
2.17595e-116
3.40096e-114
6.10025e-112
1.28904e-109
3.27155e-107
1.0216e-104
4.05734e-102
1.84613e-99
9.75576e-97
7.19264e-94
1.31058e-91
6.27228e-84
3.91693e-82
5.95302e-06
2.33724e-07
2.24659e-10
9.57927e-16
7.0356e-24
8.69324e-33
3.76992e-40
2.8135e-46
1.59101e-52
1.69434e-63
7.19614e-66
2.20016e-68
5.25339e-71
6.06737e-74
4.04776e-77
7.13691e-80
1.80362e-83
1.09071e-86
3.99484e-91
5.40078e-96
1.95439e-100
1.49324e-106
1.02908e-116
3.311e-123
1.23888e-123
3.86726e-125
7.42538e-126
6.10329e-124
5.41238e-122
5.27735e-120
5.70619e-118
6.90129e-116
9.43201e-114
1.47376e-111
2.66808e-109
5.68986e-107
1.45738e-104
4.59584e-102
1.8111e-99
7.32202e-97
3.90888e-94
2.91252e-91
8.68463e-89
2.62227e-81
1.57172e-79
7.36097e-06
2.7381e-07
2.59062e-10
1.47359e-15
1.05012e-23
1.32869e-32
5.76123e-40
4.82676e-46
2.71151e-52
2.89373e-63
1.27811e-65
3.92297e-68
9.91107e-71
1.23899e-73
8.56304e-77
1.85353e-79
3.9075e-83
2.2566e-86
1.14165e-90
2.44873e-95
1.1074e-99
1.62913e-105
2.03022e-115
5.48601e-121
4.80398e-121
5.66656e-122
2.59435e-123
2.15798e-121
1.936e-119
1.90894e-117
2.08658e-115
2.55039e-113
3.52184e-111
5.55912e-109
1.01662e-106
2.18986e-104
5.66803e-102
1.81003e-99
6.15015e-97
2.51384e-94
1.35756e-91
4.27811e-89
5.9287e-86
9.54994e-79
5.48833e-77
9.23068e-06
3.21246e-07
2.93784e-10
2.06971e-15
1.58706e-23
2.05789e-32
8.8147e-40
8.41857e-46
4.86005e-52
5.03431e-63
2.34411e-65
7.22545e-68
1.89416e-70
2.57546e-73
1.87767e-76
4.70614e-79
1.10355e-82
6.138e-86
3.56238e-90
1.24564e-94
7.65788e-99
1.32473e-104
4.55441e-115
2.01601e-119
1.64581e-119
2.23933e-119
7.77344e-121
6.54742e-119
5.94634e-117
5.93333e-115
6.56095e-113
8.11066e-111
1.13253e-108
1.80741e-106
3.3415e-104
7.27921e-102
1.90843e-99
5.49151e-97
1.79027e-94
7.40822e-92
4.0515e-89
1.58297e-86
1.8159e-83
3.00173e-76
1.6523e-74
1.185e-05
3.73613e-07
3.25375e-10
2.70519e-15
2.42643e-23
3.22852e-32
1.3552e-39
1.47687e-45
9.08689e-52
8.92602e-63
4.43072e-65
1.38689e-67
3.704e-70
5.4475e-73
4.28564e-76
1.13144e-78
3.90785e-82
2.44229e-85
1.29676e-89
6.00833e-94
4.94088e-98
1.19049e-103
8.26762e-113
1.08285e-117
9.8702e-119
5.52438e-118
1.97971e-118
1.68955e-116
1.55439e-114
1.57061e-112
1.75822e-110
2.1999e-108
3.10858e-106
5.01976e-104
9.39368e-102
2.07405e-99
4.98785e-97
1.33812e-94
4.42e-92
1.85404e-89
1.02803e-86
4.07132e-84
4.73997e-81
8.06407e-74
4.24664e-72
1.65803e-05
4.26643e-07
3.50665e-10
3.32274e-15
3.74953e-23
5.12855e-32
2.10647e-39
2.58078e-45
1.74182e-51
1.61241e-62
8.57581e-65
2.78185e-67
7.4946e-70
1.17513e-72
1.0155e-75
2.6147e-78
1.35999e-81
1.01557e-84
5.23346e-89
2.79909e-93
3.07692e-97
2.13629e-102
1.56859e-110
2.95917e-115
1.18811e-117
1.26753e-117
4.28685e-116
3.66714e-114
3.41989e-112
3.50171e-110
3.97132e-108
5.03299e-106
7.20258e-104
1.17852e-101
2.2375e-99
4.43371e-97
1.00341e-94
2.73012e-92
9.15033e-90
3.89538e-87
2.19261e-84
-9.62838e-82
1.04227e-78
1.8327e-71
9.22173e-70
2.85775e-05
4.8815e-07
3.68909e-10
3.83859e-15
5.85192e-23
8.24592e-32
3.33938e-39
4.46175e-45
3.35178e-51
2.9655e-62
1.68432e-64
5.79424e-67
1.58268e-69
2.59914e-72
2.47792e-75
6.13368e-78
4.02062e-81
3.36064e-84
2.12212e-88
1.54722e-92
2.62179e-96
3.50493e-101
3.13126e-108
9.29733e-113
2.96667e-115
1.69581e-115
7.62178e-114
6.61427e-112
6.25666e-110
6.49631e-108
7.46929e-106
9.59793e-104
1.39384e-101
2.21761e-99
3.73001e-97
7.2726e-95
1.67125e-92
4.61866e-90
1.57264e-87
6.80313e-85
3.8924e-82
-3.06937e-79
1.90954e-76
3.48564e-69
1.67353e-67
6.37566e-05
6.1192e-07
3.8391e-10
4.15855e-15
9.21976e-23
1.34158e-31
5.45732e-39
7.61162e-45
6.35921e-51
5.54668e-62
3.32856e-64
1.23593e-66
3.49375e-69
5.9393e-72
6.1795e-75
1.57843e-77
1.04289e-80
9.22724e-84
8.67953e-88
1.19169e-91
3.33328e-95
2.86073e-100
6.59829e-106
3.09582e-110
1.3793e-112
3.47404e-111
1.10048e-111
9.80521e-110
9.41396e-108
9.92156e-106
1.15858e-103
1.45474e-101
1.92566e-99
2.87807e-97
4.91887e-95
9.75058e-93
2.27834e-90
6.40335e-88
2.21789e-85
9.76277e-83
5.68581e-80
-1.10168e-77
3.24135e-74
5.48479e-67
2.50888e-65
0.00016253
9.77991e-07
4.16812e-10
4.26478e-15
1.46614e-22
2.20832e-31
9.28808e-39
1.28469e-44
1.1772e-50
1.05437e-61
6.59213e-64
2.65933e-66
8.00423e-69
1.41311e-71
1.5761e-74
4.70147e-77
2.76567e-80
2.66184e-83
4.02169e-87
1.01916e-90
3.67555e-94
3.07431e-99
1.47282e-103
1.09283e-107
3.54705e-110
3.58499e-109
1.30325e-109
1.18041e-107
1.13024e-105
1.1197e-103
1.21804e-101
1.4667e-99
1.97526e-97
3.00487e-95
5.22737e-93
1.05482e-90
2.50935e-88
7.18195e-86
2.53393e-83
1.1366e-80
6.74835e-78
1.40422e-75
2.19969e-71
7.05487e-65
3.06904e-63
0.00040678
2.00318e-06
9.38734e-10
4.09076e-15
2.35374e-22
3.67781e-31
1.65491e-38
2.16434e-44
2.12485e-50
2.03834e-61
1.31281e-63
5.7244e-66
1.88049e-68
3.51902e-71
4.16721e-74
1.56347e-76
9.43824e-80
1.13757e-82
2.31881e-86
7.65145e-90
3.15074e-93
1.70655e-97
3.49522e-101
4.12138e-105
1.13089e-107
2.88845e-107
1.23534e-107
9.19911e-106
8.50855e-104
8.58897e-102
9.52395e-100
1.16886e-97
1.60427e-95
2.4872e-93
4.40983e-91
9.07035e-89
2.19989e-86
6.4209e-84
2.31108e-81
1.05799e-78
6.41426e-76
2.38686e-73
4.22203e-69
7.32325e-63
3.02344e-61
0.000921654
4.41549e-06
4.19342e-09
3.1704e-15
3.8168e-22
6.19869e-31
3.073e-38
3.69899e-44
3.77853e-50
4.01696e-61
2.6608e-63
1.23818e-65
4.4942e-68
9.18538e-71
1.16965e-73
5.27197e-76
4.49392e-79
6.88184e-82
1.57003e-85
6.22334e-89
3.7022e-92
5.90245e-96
8.85315e-99
1.66482e-102
3.65112e-105
2.53385e-105
9.15459e-106
6.5021e-104
6.13467e-102
6.32126e-100
7.15394e-98
8.96012e-96
1.255e-93
1.98563e-91
3.59315e-89
7.54427e-87
1.86827e-84
5.56958e-82
2.04837e-79
9.5866e-77
5.94415e-74
2.49815e-71
3.01656e-65
6.05094e-61
2.36506e-59
0.00183823
9.21249e-06
1.28481e-08
2.46261e-15
6.25601e-22
1.05781e-30
5.85632e-38
6.56453e-44
6.77229e-50
8.10729e-61
5.59498e-63
2.74308e-65
1.09734e-67
2.5135e-70
3.56546e-73
1.72924e-75
2.22795e-78
3.59286e-81
1.1507e-84
9.62849e-88
8.5958e-91
6.28565e-94
2.40677e-96
7.24024e-100
4.53223e-103
3.94514e-103
6.48072e-104
3.9876e-102
3.83673e-100
4.04075e-98
4.67362e-96
5.98201e-94
8.56254e-92
1.38457e-89
2.56099e-87
5.49739e-85
1.39224e-82
4.24619e-80
1.59844e-77
7.66157e-75
4.86871e-72
2.15691e-69
5.87765e-63
3.92168e-59
1.4467e-57
0.00322067
1.73922e-05
2.90995e-08
2.23861e-15
1.03715e-21
1.8293e-30
1.12149e-37
1.24122e-43
1.26783e-49
1.68632e-60
1.24565e-62
6.41515e-65
2.79326e-67
7.25039e-70
1.19088e-72
5.90061e-75
9.29588e-78
1.47109e-80
9.08095e-84
1.21607e-86
6.26173e-90
9.28228e-92
7.02908e-94
3.40795e-97
1.90684e-101
1.69092e-101
3.98435e-102
1.80507e-100
1.76705e-98
1.90477e-96
2.25485e-94
2.95385e-92
4.32751e-90
7.16292e-88
1.35644e-85
2.98181e-83
7.73603e-81
2.4181e-78
9.33437e-76
4.59101e-73
2.99612e-70
1.37951e-67
5.4009e-61
1.9623e-57
6.80433e-56
0.0049946
2.93308e-05
5.33573e-08
2.33663e-15
1.73995e-21
3.21009e-30
2.11903e-37
2.53769e-43
2.58422e-49
3.64116e-60
2.96827e-62
1.63015e-64
7.65103e-67
2.24551e-69
4.35565e-72
2.42148e-74
3.70314e-77
6.58207e-80
7.57149e-83
4.47293e-86
6.99326e-88
1.47142e-89
1.69752e-91
1.74388e-94
2.56298e-100
6.51604e-101
1.81932e-100
5.96344e-99
5.93262e-97
6.55541e-95
7.95531e-93
1.06836e-90
1.60468e-88
2.72351e-86
5.28963e-84
1.19295e-81
3.17652e-79
1.01958e-76
4.04407e-74
2.04532e-71
1.37384e-68
6.55234e-66
3.24023e-59
7.44938e-56
2.41455e-54
0.00692483
4.38811e-05
7.99366e-08
1.26542e-14
2.95498e-21
5.72828e-30
3.92018e-37
5.54088e-43
5.86682e-49
8.21343e-60
7.5186e-62
4.5403e-64
2.32379e-66
7.73762e-69
1.78239e-71
1.30105e-73
2.18e-76
6.2363e-79
9.44236e-82
2.94297e-84
9.56527e-86
2.52078e-87
3.8051e-89
9.76417e-92
1.84796e-97
4.77746e-98
7.39298e-97
5.95532e-97
1.48147e-95
1.62996e-93
2.03076e-91
2.80082e-89
4.32096e-87
7.53398e-85
1.50363e-82
3.48589e-80
9.54598e-78
3.15296e-75
1.28781e-72
6.71291e-70
4.10206e-67
2.29916e-64
1.35904e-57
2.10412e-54
6.32443e-53
0.00866365
5.76136e-05
9.71466e-08
1.64317e-13
5.08378e-21
1.04275e-29
7.15989e-37
1.24337e-42
1.44547e-48
1.94367e-59
1.98785e-61
1.36433e-63
7.9553e-66
3.12609e-68
8.82279e-71
8.22217e-73
2.50054e-75
6.61755e-78
8.48239e-81
3.5956e-82
1.42707e-83
4.68557e-85
9.23206e-87
6.00389e-89
2.0533e-94
4.12781e-97
2.22521e-95
1.48884e-95
2.59593e-94
2.88584e-92
3.69888e-90
5.24956e-88
8.33518e-86
1.49609e-83
3.07475e-81
7.34341e-79
2.07275e-76
7.06105e-74
2.977e-71
1.6034e-68
-1.2878e-66
5.90746e-63
4.0577e-56
4.32346e-53
1.19069e-51
0.00982486
6.569e-05
1.02149e-07
6.93741e-13
8.8765e-21
1.94533e-29
1.32801e-36
2.76008e-42
3.63329e-48
4.83773e-59
5.44071e-61
4.37929e-63
3.11991e-65
1.58507e-67
6.02577e-70
5.58124e-72
1.78415e-74
2.09465e-77
8.70408e-79
4.8414e-80
2.3198e-81
9.49681e-83
2.44522e-84
2.86251e-86
3.50468e-91
1.94419e-94
4.15874e-94
2.61097e-94
3.23266e-93
3.61321e-91
4.77431e-89
6.98773e-87
1.14443e-84
2.11941e-82
4.49584e-80
1.10878e-77
3.23366e-75
1.13904e-72
4.97005e-70
2.13496e-67
1.05267e-64
1.10002e-61
8.69554e-55
6.28771e-52
1.55331e-50
0.0102
6.7248e-05
9.08908e-08
1.10669e-12
1.57961e-20
3.7431e-29
2.6264e-36
6.00723e-42
8.93664e-48
1.27146e-58
1.57845e-60
1.56882e-62
1.4921e-64
1.10329e-66
6.29022e-69
4.31362e-71
4.31011e-74
1.58304e-75
1.08713e-76
7.14151e-78
4.13076e-79
2.11038e-80
7.11343e-82
1.18157e-83
6.90732e-88
5.81226e-93
5.57566e-93
3.25406e-93
2.94667e-92
3.29419e-90
4.49779e-88
6.80536e-86
1.1525e-83
2.20773e-81
4.84619e-79
1.23743e-76
3.73892e-74
1.36558e-71
6.18457e-69
9.28e-67
1.41334e-63
1.54624e-60
1.40051e-53
6.16182e-51
1.27302e-49
0.00990977
6.12804e-05
7.01518e-08
1.0926e-12
2.88741e-20
7.49189e-29
5.84148e-36
1.32861e-41
2.19546e-47
3.56065e-58
5.18261e-60
7.15626e-62
1.01421e-63
1.18641e-65
9.58755e-68
4.45523e-70
2.64391e-72
1.87562e-73
1.49872e-74
1.16022e-75
8.10509e-77
5.17285e-78
2.28716e-79
5.3907e-81
1.59213e-84
7.36016e-93
6.19767e-93
7.35907e-93
1.43002e-91
1.76413e-89
2.49753e-87
3.9169e-85
6.87752e-83
1.36644e-80
3.11246e-78
8.25156e-76
2.59052e-73
9.83966e-71
4.63961e-68
1.43212e-65
1.15476e-62
1.32084e-59
1.37268e-52
2.7686e-50
3.98996e-49
0.00896689
4.96383e-05
4.9989e-08
4.55966e-13
5.48764e-20
1.57728e-28
1.4764e-35
3.24153e-41
5.91844e-47
1.07826e-57
2.10857e-59
5.11084e-61
1.24322e-62
2.36724e-64
2.19494e-66
4.81482e-69
3.02363e-70
2.4782e-71
2.28992e-72
2.08947e-73
1.76391e-74
1.40792e-75
8.18312e-77
2.74875e-78
4.36492e-81
1.1199e-92
7.49407e-93
1.12189e-92
4.62063e-91
6.08901e-89
8.9611e-87
1.461e-84
2.66779e-82
5.51458e-80
1.30756e-77
3.61098e-75
1.18186e-72
4.68485e-70
1.95327e-67
7.45126e-65
6.3121e-62
7.58129e-59
8.96919e-52
6.42452e-50
4.79377e-49
0.00764224
3.61653e-05
3.44962e-08
1.37528e-13
1.1016e-19
3.54589e-28
3.99688e-35
9.57676e-41
2.00531e-46
3.57328e-57
1.12768e-58
6.94116e-60
3.62791e-61
1.29254e-62
2.47359e-64
5.38507e-67
3.8968e-68
3.6397e-69
3.90546e-70
4.20139e-71
4.2888e-72
4.28661e-73
3.28288e-74
1.57911e-75
1.43191e-77
6.52413e-92
1.12334e-92
1.29179e-91
1.52514e-89
2.12889e-87
3.26876e-85
5.56222e-83
1.06061e-80
2.29074e-78
5.67908e-76
1.64108e-73
5.62554e-71
2.33815e-68
6.18326e-66
4.10932e-63
3.66852e-60
1.66763e-53
5.45149e-51
1.32357e-49
4.14615e-49
0.00620805
2.44594e-05
2.43112e-08
7.72578e-14
2.37579e-19
8.7039e-28
1.09531e-34
3.4261e-40
8.7744e-46
1.28473e-56
8.2681e-58
1.21463e-58
1.30273e-59
1.04648e-60
5.89993e-62
1.82837e-63
6.81825e-66
6.1091e-67
7.47135e-68
9.48396e-69
1.17214e-69
1.47209e-70
1.48942e-71
1.03148e-72
2.89554e-74
9.81042e-93
1.30829e-91
2.80596e-90
3.61882e-88
5.28893e-86
8.50243e-84
1.5154e-81
3.02797e-79
6.85698e-77
1.78353e-74
5.41165e-72
1.62233e-69
8.52804e-67
2.37424e-64
1.66624e-61
1.67449e-55
5.30939e-52
2.3485e-50
1.52326e-49
1.63037e-49
0.00486086
1.69678e-05
1.87631e-08
1.34114e-13
5.59516e-19
2.41976e-27
3.16947e-34
1.33345e-39
4.2218e-45
4.91848e-56
5.8985e-57
1.59432e-57
3.23946e-58
5.47007e-59
7.49022e-60
8.16685e-61
6.43553e-62
2.35553e-63
2.16498e-65
2.58398e-66
3.66542e-67
5.74844e-68
7.70985e-69
7.73427e-70
3.76321e-71
7.6877e-89
2.83411e-90
1.43269e-88
1.99481e-86
3.06545e-84
5.18273e-82
9.71924e-80
2.04446e-77
4.87698e-75
1.33724e-72
4.28108e-70
8.33561e-68
7.53363e-65
2.22587e-62
1.65848e-59
4.65182e-53
3.56023e-51
4.96905e-50
1.51752e-49
1.33659e-50
0.00373819
1.30239e-05
1.68251e-08
3.3511e-13
1.46802e-18
8.11306e-27
1.14706e-33
5.54568e-39
2.09569e-44
2.07381e-55
3.51406e-56
1.42826e-56
4.85433e-57
1.47921e-57
3.98576e-58
9.5132e-59
2.00046e-59
3.63386e-60
5.40577e-61
5.61679e-62
1.55941e-63
4.53834e-65
6.25277e-66
8.00142e-67
6.95117e-68
7.82525e-71
6.46766e-80
7.37213e-81
4.45966e-78
8.48653e-79
9.6364e-80
1.25625e-77
2.78967e-75
7.04697e-73
2.04783e-70
6.95482e-68
1.43717e-65
1.3801e-62
4.34904e-60
7.05488e-54
6.34379e-52
1.33452e-50
7.99567e-50
1.49398e-49
1.04082e-52
0.00302458
1.14611e-05
1.67057e-08
7.93273e-13
4.46249e-18
3.63513e-26
6.11164e-33
3.01583e-38
1.37917e-43
1.14872e-54
1.90749e-55
9.63323e-56
4.6551e-56
2.15236e-56
9.42508e-57
3.8929e-57
1.51603e-57
5.5659e-58
1.92434e-58
6.24032e-59
1.88145e-59
5.21179e-60
1.32391e-60
3.08471e-61
5.3162e-62
1.77689e-63
2.43876e-63
1.03459e-63
5.03397e-64
2.30833e-64
9.9798e-65
4.11928e-65
1.70121e-65
7.41546e-66
6.92394e-68
2.80159e-65
7.06631e-63
7.70825e-57
4.15929e-54
2.04923e-52
4.10719e-51
3.28669e-50
1.02886e-49
1.48216e-49
3.73344e-56
0.583887
0.106746
0.00265946
1.11932e-05
2.01717e-08
2.10728e-12
1.69166e-17
2.51307e-25
4.14193e-32
2.6531e-37
1.61532e-42
1.12923e-53
1.25485e-54
6.40106e-55
3.61535e-55
2.10079e-55
1.23143e-55
7.18427e-56
4.14703e-56
2.36372e-56
1.33108e-56
7.42021e-57
4.10889e-57
2.27807e-57
1.29045e-57
7.75005e-58
5.12824e-58
3.86818e-58
3.44571e-58
3.40273e-58
3.9503e-58
4.76659e-58
6.5517e-58
1.01195e-57
1.83699e-57
4.13502e-57
1.28388e-56
6.41972e-56
5.81864e-55
8.46089e-54
1.35999e-52
1.67914e-51
1.27879e-50
5.61454e-50
1.52043e-49
2.76506e-49
6.6495e-61
0.56156
0.0981835
0.00252069
1.22695e-05
2.85851e-08
6.96213e-12
8.71016e-17
3.12315e-24
3.00413e-31
2.57515e-36
1.76765e-41
1.82303e-52
1.52083e-53
6.82477e-54
3.5927e-54
2.12157e-54
1.34977e-54
9.02778e-55
6.24971e-55
4.43943e-55
3.22073e-55
2.38205e-55
1.79715e-55
1.38737e-55
1.10223e-55
9.08681e-56
7.84498e-56
7.15083e-56
6.88997e-56
7.15195e-56
8.13783e-56
9.98103e-56
1.35467e-55
2.05448e-55
3.56718e-55
7.31571e-55
1.85165e-54
6.06788e-54
2.63272e-53
1.43877e-52
8.65218e-52
4.99411e-51
2.82963e-50
2.09829e-49
2.02214e-48
8.69043e-48
5.94667e-65
0.538589
0.0923681
0.002552
1.52134e-05
4.70593e-08
2.71305e-11
6.22156e-16
7.73369e-23
3.04257e-30
1.88118e-35
1.09636e-40
2.87008e-51
3.81975e-52
1.88894e-52
9.031e-53
4.61745e-53
2.5603e-53
1.55771e-53
1.03149e-53
7.32458e-54
5.49048e-54
4.29398e-54
3.47832e-54
2.90653e-54
2.49945e-54
2.21101e-54
2.01883e-54
1.91262e-54
1.87285e-54
1.96662e-54
2.19597e-54
2.63791e-54
3.43301e-54
4.89621e-54
7.75406e-54
1.38603e-53
2.84658e-53
6.82045e-53
1.91674e-52
6.28667e-52
2.448e-51
1.31401e-50
1.50046e-49
3.05161e-48
3.91994e-47
1.79316e-46
5.92057e-65
0.515799
0.0889968
0.00276655
2.08527e-05
8.74876e-08
1.02315e-10
5.95559e-15
3.75702e-21
1.51079e-28
1.30642e-34
8.3952e-40
4.50921e-50
1.37573e-50
8.51816e-51
5.06652e-51
2.9753e-51
1.73779e-51
1.02491e-51
6.15321e-52
3.80272e-52
2.44256e-52
1.6434e-52
1.16451e-52
8.71794e-53
6.89852e-53
5.75125e-53
5.03157e-53
4.62976e-53
4.44991e-53
4.40986e-53
4.83631e-53
5.45011e-53
6.64772e-53
8.6817e-53
1.23329e-52
1.923e-52
3.3432e-52
6.63226e-52
1.56787e-51
4.8262e-51
2.26469e-50
1.85563e-49
2.2106e-48
2.39695e-47
1.53113e-46
4.09602e-46
5.93043e-63
0.494285
0.0878395
0.00318947
3.13634e-05
1.79619e-07
3.78386e-10
7.66923e-14
2.81278e-19
1.93418e-26
6.97379e-33
3.34082e-38
6.81568e-49
6.68457e-49
4.12344e-49
2.94323e-49
2.12811e-49
1.52604e-49
1.09174e-49
7.83614e-50
5.66715e-50
4.15256e-50
3.09823e-50
2.36538e-50
1.85743e-50
1.50787e-50
1.27014e-50
1.11306e-50
1.01913e-50
9.72819e-51
9.59543e-51
1.02687e-50
1.13899e-50
1.35483e-50
1.72295e-50
2.3753e-50
3.5908e-50
6.05223e-50
1.16204e-49
2.61334e-49
7.11618e-49
2.41172e-48
1.00614e-47
4.64005e-47
1.83923e-46
4.29937e-46
4.10161e-46
2.92987e-57
0.475421
0.0894858
0.0039344
5.17181e-05
4.0192e-07
1.40074e-09
1.0442e-12
2.28627e-17
9.08604e-24
7.27321e-31
5.92075e-39
2.39246e-48
7.78449e-47
4.23997e-47
2.29866e-47
1.64843e-47
1.27194e-47
9.82897e-48
7.69721e-48
6.09937e-48
4.898e-48
3.99068e-48
3.30401e-48
2.78445e-48
2.39226e-48
2.09796e-48
1.88281e-48
1.73691e-48
1.64876e-48
1.61241e-48
1.63725e-48
1.77588e-48
1.97941e-48
2.35476e-48
2.96812e-48
4.03122e-48
5.96479e-48
9.78836e-48
1.81709e-47
3.89372e-47
9.74917e-47
2.82193e-46
8.91212e-46
2.65759e-45
5.57886e-45
1.5928e-46
6.94382e-54
0.460662
0.0941449
0.00516716
9.29373e-05
9.64771e-07
5.16394e-09
9.29385e-12
1.56151e-15
7.23297e-21
2.61908e-28
9.9707e-37
1.17327e-45
3.75056e-44
2.61439e-44
1.43328e-44
5.60243e-45
2.85369e-45
1.70532e-45
1.14148e-45
8.2753e-46
6.32204e-46
5.01061e-46
4.08496e-46
3.41201e-46
2.91435e-46
2.54243e-46
2.26506e-46
2.06437e-46
1.92539e-46
1.84131e-46
1.80669e-46
1.80447e-46
1.93267e-46
2.09539e-46
2.39713e-46
2.87281e-46
3.66151e-46
5.01401e-46
7.48284e-46
1.22882e-45
2.21093e-45
4.2266e-45
8.06154e-45
1.39226e-44
1.90079e-44
8.23422e-48
2.71565e-52
0.450043
0.101417
0.00704935
0.000175365
2.37615e-06
1.81589e-08
5.69734e-11
5.06365e-14
2.40821e-18
2.73013e-24
3.11177e-30
7.15821e-40
1.95693e-41
7.52117e-42
5.70833e-42
3.04258e-42
1.54998e-42
8.59204e-43
5.02807e-43
3.13396e-43
2.07702e-43
1.45921e-43
1.0794e-43
8.34188e-44
6.69239e-44
5.54637e-44
4.72879e-44
4.13677e-44
3.70573e-44
3.38491e-44
3.14824e-44
2.98794e-44
2.89597e-44
2.86072e-44
2.8725e-44
3.03789e-44
3.23642e-44
3.57131e-44
4.07062e-44
4.77396e-44
5.74306e-44
6.93483e-44
7.86765e-44
6.48685e-44
1.90678e-44
1.77394e-50
1.45527e-54
0.435024
0.105777
0.0090619
0.000302639
5.43031e-06
5.53151e-08
2.60786e-10
4.88436e-13
2.04353e-16
3.55472e-21
2.10901e-26
1.43992e-36
2.36649e-38
1.00978e-39
4.85745e-40
3.67218e-40
2.3902e-40
1.58955e-40
1.07161e-40
7.33753e-41
5.11934e-41
3.65885e-41
2.69553e-41
2.05551e-41
1.62382e-41
1.325e-41
1.11002e-41
9.50262e-42
8.27718e-42
7.28554e-42
6.45366e-42
5.75566e-42
5.16474e-42
4.65978e-42
4.22239e-42
3.83575e-42
3.48311e-42
3.14703e-42
2.8068e-42
2.43648e-42
2.00578e-42
1.48913e-42
8.97118e-43
3.34043e-43
6.64712e-45
4.87817e-55
3.74316e-56
0.395988
0.0994331
0.0100485
0.000427934
1.00331e-05
1.3028e-07
8.50581e-10
2.55834e-12
2.97933e-15
5.68055e-19
8.37143e-24
3.08104e-34
5.81309e-36
1.22716e-37
1.16723e-38
8.23745e-39
6.98726e-39
5.71111e-39
4.63789e-39
3.72993e-39
2.98734e-39
2.38759e-39
1.90838e-39
1.53032e-39
1.23649e-39
1.01029e-39
8.35256e-40
6.98747e-40
5.89612e-40
4.98002e-40
4.18868e-40
3.50551e-40
2.91263e-40
2.39619e-40
1.94487e-40
1.54956e-40
1.2033e-40
9.01095e-41
6.4018e-41
4.20236e-41
2.43301e-41
1.13372e-41
3.55437e-42
3.96348e-43
1.58484e-46
1.07628e-50
2.4959e-54
0.27581
0.0678692
0.0078206
0.000415977
1.2163e-05
2.0134e-07
1.69042e-09
6.90889e-12
1.28929e-14
8.17666e-18
2.66823e-22
6.46925e-33
1.31923e-34
2.75704e-36
9.53528e-38
3.83254e-38
3.62604e-38
3.51357e-38
3.28387e-38
2.98247e-38
2.67263e-38
2.38335e-38
2.11549e-38
1.86179e-38
1.61769e-38
1.38411e-38
1.16564e-38
9.65967e-39
7.87457e-39
6.31279e-39
4.96881e-39
3.82772e-39
2.87465e-39
2.09416e-39
1.47038e-39
9.86399e-40
6.24769e-40
3.67347e-40
1.95591e-40
9.07866e-41
3.45153e-41
9.6563e-42
1.51331e-42
3.91904e-44
3.40143e-50
2.30639e-53
1.12895e-55
1.13362e-112
3.48316e-110
1.35782e-107
7.01407e-105
4.10631e-102
2.97372e-99
3.18662e-97
2.45588e-89
1.66032e-87
6.81794e-117
1.21172e-114
2.53798e-112
6.46412e-110
2.00119e-107
7.86274e-105
4.06928e-102
2.13069e-99
1.55597e-96
2.04916e-94
1.31845e-86
8.57044e-85
4.91175e-06
2.00861e-07
1.93055e-10
5.52891e-16
4.77697e-24
5.76539e-33
2.46562e-40
1.68298e-46
9.7995e-53
1.0103e-63
4.17884e-66
1.26229e-68
2.80419e-71
3.03244e-74
1.96683e-77
2.87607e-80
9.3722e-84
5.44691e-87
1.38735e-91
1.479e-96
4.50106e-101
1.34636e-107
6.85632e-118
1.27408e-125
6.39842e-128
8.15687e-129
1.85132e-128
1.49274e-126
1.307e-124
1.25896e-122
1.3455e-120
1.60925e-118
2.17596e-116
3.40097e-114
6.10027e-112
1.28904e-109
3.27156e-107
1.0216e-104
4.05735e-102
1.84613e-99
9.75579e-97
7.19266e-94
1.31053e-91
6.2723e-84
3.91694e-82
5.95296e-06
2.33721e-07
2.24658e-10
9.57922e-16
7.03546e-24
8.69305e-33
3.76988e-40
2.81347e-46
1.59104e-52
1.69536e-63
7.20298e-66
2.20245e-68
5.25739e-71
6.07181e-74
4.04867e-77
7.13775e-80
1.80267e-83
1.09023e-86
3.99154e-91
5.40174e-96
1.95372e-100
1.49325e-106
1.02907e-116
3.31102e-123
1.23889e-123
3.86728e-125
7.4254e-126
6.1033e-124
5.41239e-122
5.27736e-120
5.70621e-118
6.90131e-116
9.43205e-114
1.47377e-111
2.66809e-109
5.68988e-107
1.45739e-104
4.59586e-102
1.81111e-99
7.32204e-97
3.90889e-94
2.91252e-91
8.68381e-89
2.62228e-81
1.57172e-79
7.3609e-06
2.73807e-07
2.5906e-10
1.47359e-15
1.0501e-23
1.32867e-32
5.76116e-40
4.8267e-46
2.71158e-52
2.89567e-63
1.27923e-65
3.92689e-68
9.91839e-71
1.23985e-73
8.56527e-77
1.85393e-79
3.90582e-83
2.25571e-86
1.14077e-90
2.44884e-95
1.10704e-99
1.62914e-105
2.03023e-115
5.48604e-121
4.80401e-121
5.66658e-122
2.59436e-123
2.15799e-121
1.93601e-119
1.90895e-117
2.08658e-115
2.5504e-113
3.52185e-111
5.55914e-109
1.01663e-106
2.18987e-104
5.66804e-102
1.81004e-99
6.15018e-97
2.51384e-94
1.35757e-91
4.27862e-89
5.92871e-86
9.54997e-79
5.48834e-77
9.2306e-06
3.21243e-07
2.93783e-10
2.0697e-15
1.58703e-23
2.05784e-32
8.8146e-40
8.41847e-46
4.86019e-52
5.03847e-63
2.34606e-65
7.23221e-68
1.89552e-70
2.57715e-73
1.87821e-76
4.70743e-79
1.10322e-82
6.13637e-86
3.55998e-90
1.24556e-94
7.65559e-99
1.32473e-104
4.55443e-115
2.01601e-119
1.64582e-119
2.23933e-119
7.77346e-121
6.54744e-119
5.94636e-117
5.93335e-115
6.56097e-113
8.11068e-111
1.13254e-108
1.80741e-106
3.3415e-104
7.27923e-102
1.90843e-99
5.49153e-97
1.79027e-94
7.40824e-92
4.05151e-89
1.58298e-86
1.81591e-83
3.00173e-76
1.6523e-74
1.18499e-05
3.73611e-07
3.25374e-10
2.70517e-15
2.42638e-23
3.22845e-32
1.35518e-39
1.47686e-45
9.08717e-52
8.93369e-63
4.43437e-65
1.38808e-67
3.70654e-70
5.4509e-73
4.28696e-76
1.13178e-78
3.90709e-82
2.44211e-85
1.29613e-89
6.00763e-94
4.93953e-98
1.19049e-103
8.26765e-113
1.08285e-117
9.87022e-119
5.5244e-118
1.97971e-118
1.68955e-116
1.55439e-114
1.57062e-112
1.75823e-110
2.1999e-108
3.10859e-106
5.01978e-104
9.3937e-102
2.07406e-99
4.98786e-97
1.33812e-94
4.42002e-92
1.85404e-89
1.02803e-86
4.07133e-84
4.73998e-81
8.06409e-74
4.24665e-72
1.65802e-05
4.26641e-07
3.50663e-10
3.32273e-15
3.74946e-23
5.12844e-32
2.10645e-39
2.58075e-45
1.74188e-51
1.61377e-62
8.58305e-65
2.78403e-67
7.49944e-70
1.17582e-72
1.01582e-75
2.61549e-78
1.35978e-81
1.01562e-84
5.23208e-89
2.79874e-93
3.0762e-97
2.1363e-102
1.56859e-110
2.95919e-115
1.18811e-117
1.26753e-117
4.28686e-116
3.66715e-114
3.4199e-112
3.50172e-110
3.97133e-108
5.03301e-106
7.20261e-104
1.17852e-101
2.2375e-99
4.43372e-97
1.00341e-94
2.73013e-92
9.15037e-90
3.89539e-87
2.19262e-84
-9.62564e-82
1.04227e-78
1.83271e-71
9.22175e-70
2.85773e-05
4.88147e-07
3.68908e-10
3.83857e-15
5.8518e-23
8.24574e-32
3.33934e-39
4.4617e-45
3.3519e-51
2.96787e-62
1.6858e-64
5.79844e-67
1.58362e-69
2.60056e-72
2.4787e-75
6.13552e-78
4.02008e-81
3.36098e-84
2.12193e-88
1.54704e-92
2.62136e-96
3.50494e-101
3.13127e-108
9.29737e-113
2.96668e-115
1.69581e-115
7.6218e-114
6.61428e-112
6.25667e-110
6.49632e-108
7.46931e-106
9.59796e-104
1.39385e-101
2.21762e-99
3.73003e-97
7.27262e-95
1.67125e-92
4.61867e-90
1.57264e-87
6.80314e-85
3.89241e-82
-3.06954e-79
1.90954e-76
3.48565e-69
1.67354e-67
6.37564e-05
6.11918e-07
3.83908e-10
4.15852e-15
9.21958e-23
1.34155e-31
5.45726e-39
7.61152e-45
6.35944e-51
5.5511e-62
3.33156e-64
1.23679e-66
3.49565e-69
5.94228e-72
6.18138e-75
1.57889e-77
1.04278e-80
9.22839e-84
8.67973e-88
1.19155e-91
3.333e-95
2.86075e-100
6.59832e-106
3.09584e-110
1.3793e-112
3.47405e-111
1.10048e-111
9.80523e-110
9.41398e-108
9.92158e-106
1.15858e-103
1.45474e-101
1.92566e-99
2.87808e-97
4.91889e-95
9.7506e-93
2.27835e-90
6.40336e-88
2.21789e-85
9.76279e-83
5.68583e-80
-1.10195e-77
3.23883e-74
5.4848e-67
2.50889e-65
0.00016253
9.77988e-07
4.1681e-10
4.26476e-15
1.46611e-22
2.20828e-31
9.28797e-39
1.28468e-44
1.17725e-50
1.05511e-61
6.59804e-64
2.66115e-66
8.00819e-69
1.41375e-71
1.57655e-74
4.70276e-77
2.76547e-80
2.66223e-83
4.02206e-87
1.01907e-90
3.6754e-94
3.07432e-99
1.47283e-103
1.09283e-107
3.54706e-110
3.58499e-109
1.30325e-109
1.18041e-107
1.13025e-105
1.11971e-103
1.21804e-101
1.46671e-99
1.97527e-97
3.00488e-95
5.22739e-93
1.05482e-90
2.50935e-88
7.18196e-86
2.53394e-83
1.13661e-80
6.74836e-78
1.40408e-75
2.19938e-71
7.05489e-65
3.06905e-63
0.000406778
2.00317e-06
9.3873e-10
4.09074e-15
2.35369e-22
3.67773e-31
1.6549e-38
2.16431e-44
2.12493e-50
2.0396e-61
1.31393e-63
5.72833e-66
1.88136e-68
3.52047e-71
4.16829e-74
1.56385e-76
9.43802e-80
1.13776e-82
2.31914e-86
7.65106e-90
3.15069e-93
1.70656e-97
3.49523e-101
4.1214e-105
1.13089e-107
2.88848e-107
1.23535e-107
9.19912e-106
8.50857e-104
8.58898e-102
9.52398e-100
1.16886e-97
1.60428e-95
2.48721e-93
4.40984e-91
9.07037e-89
2.1999e-86
6.42091e-84
2.31109e-81
1.058e-78
6.41427e-76
2.38682e-73
4.22172e-69
7.32327e-63
3.02344e-61
0.00092165
4.41547e-06
4.1934e-09
3.17038e-15
3.81672e-22
6.19855e-31
3.07297e-38
3.69894e-44
3.77866e-50
4.01916e-61
2.66283e-63
1.23903e-65
4.49617e-68
9.18874e-71
1.16992e-73
5.27302e-76
4.49392e-79
6.88294e-82
1.57029e-85
6.22329e-89
3.70221e-92
5.90246e-96
8.85319e-99
1.66482e-102
3.65115e-105
2.53392e-105
9.15461e-106
6.50185e-104
6.13444e-102
6.32102e-100
7.15367e-98
8.95979e-96
1.25495e-93
1.98556e-91
3.59302e-89
7.54399e-87
1.8682e-84
5.56937e-82
2.0483e-79
9.58623e-77
5.94392e-74
2.49805e-71
3.01595e-65
6.05096e-61
2.36507e-59
0.00183822
9.21243e-06
1.2848e-08
2.46259e-15
6.25589e-22
1.05779e-30
5.85626e-38
6.56445e-44
6.77249e-50
8.11081e-61
5.59857e-63
2.74488e-65
1.0978e-67
2.51433e-70
3.56616e-73
1.7295e-75
2.22794e-78
3.59335e-81
1.15087e-84
9.62857e-88
8.59586e-91
6.28566e-94
2.40678e-96
7.24027e-100
4.53207e-103
3.94501e-103
6.48048e-104
3.98748e-102
3.83662e-100
4.04063e-98
4.67349e-96
5.98183e-94
8.56228e-92
1.38453e-89
2.56092e-87
5.49723e-85
1.3922e-82
4.24607e-80
1.5984e-77
7.66134e-75
4.86856e-72
2.15685e-69
5.87724e-63
3.92169e-59
1.4467e-57
0.00322065
1.7392e-05
2.90993e-08
2.23859e-15
1.03713e-21
1.82926e-30
1.12148e-37
1.24121e-43
1.26786e-49
1.68702e-60
1.2463e-62
6.41893e-65
2.79438e-67
7.25253e-70
1.19107e-72
5.90125e-75
9.29584e-78
1.47125e-80
9.08171e-84
1.21607e-86
6.26174e-90
9.28229e-92
7.02911e-94
3.40797e-97
1.90679e-101
1.69088e-101
3.98423e-102
1.80503e-100
1.76701e-98
1.90472e-96
2.2548e-94
2.95378e-92
4.32741e-90
7.16276e-88
1.35641e-85
2.98174e-83
7.73585e-81
2.41805e-78
9.33417e-76
4.59091e-73
2.99605e-70
1.37948e-67
5.40069e-61
1.96231e-57
6.80434e-56
0.00499456
2.93306e-05
5.33569e-08
2.33661e-15
1.73992e-21
3.21002e-30
2.119e-37
2.53766e-43
2.58427e-49
3.6427e-60
2.96962e-62
1.63097e-64
7.65381e-67
2.2461e-69
4.35618e-72
2.42166e-74
3.70316e-77
6.58253e-80
7.57183e-83
4.47321e-86
6.99327e-88
1.47142e-89
1.69753e-91
1.74389e-94
2.56296e-100
6.51584e-101
1.81928e-100
5.96333e-99
5.93251e-97
6.55529e-95
7.95517e-93
1.06834e-90
1.60465e-88
2.72347e-86
5.28954e-84
1.19293e-81
3.17647e-79
1.01956e-76
4.04401e-74
2.04529e-71
1.37381e-68
6.55222e-66
3.24015e-59
7.44939e-56
2.41456e-54
0.00692478
4.38808e-05
7.99361e-08
1.26541e-14
2.95492e-21
5.72815e-30
3.92014e-37
5.54081e-43
5.86687e-49
8.21715e-60
7.5219e-62
4.54218e-64
2.32451e-66
7.73934e-69
1.78253e-71
1.3011e-73
2.18004e-76
6.23657e-79
9.44292e-82
2.94297e-84
9.56528e-86
2.52078e-87
3.80511e-89
9.76421e-92
1.84796e-97
4.7773e-98
7.39279e-97
5.95521e-97
1.48145e-95
1.62994e-93
2.03073e-91
2.80078e-89
4.3209e-87
7.53388e-85
1.50361e-82
3.48584e-80
9.54584e-78
3.15291e-75
1.2878e-72
6.71282e-70
4.10202e-67
2.29913e-64
1.35901e-57
2.10412e-54
6.32444e-53
0.00866359
5.76133e-05
9.71461e-08
1.64316e-13
5.08369e-21
1.04273e-29
7.15981e-37
1.24335e-42
1.44547e-48
1.94458e-59
1.98873e-61
1.36482e-63
7.95729e-66
3.12664e-68
8.82303e-71
8.22218e-73
2.50056e-75
6.61768e-78
8.48241e-81
3.5956e-82
1.42707e-83
4.68558e-85
9.23209e-87
6.00391e-89
2.05332e-94
4.12777e-97
2.22518e-95
1.48882e-95
2.5959e-94
2.88581e-92
3.69884e-90
5.2495e-88
8.33508e-86
1.49608e-83
3.07472e-81
7.34333e-79
2.07272e-76
7.06097e-74
2.97698e-71
1.60338e-68
-1.28775e-66
5.90739e-63
4.05765e-56
4.32347e-53
1.19069e-51
0.00982479
6.56897e-05
1.02149e-07
6.93738e-13
8.87633e-21
1.94529e-29
1.32799e-36
2.76004e-42
3.63328e-48
4.83958e-59
5.44297e-61
4.38072e-63
3.12053e-65
1.58527e-67
6.02558e-70
5.58111e-72
1.78415e-74
2.09465e-77
8.70404e-79
4.8414e-80
2.3198e-81
9.49683e-83
2.44523e-84
2.86252e-86
3.50471e-91
1.9442e-94