/*--------------------------------*- C++ -*----------------------------------*\
| =========                 |                                                 |
| \\      /  F ield         | OpenFOAM: The Open Source CFD Toolbox           |
|  \\    /   O peration     | Version:  v2012                                 |
|   \\  /    A nd           | Website:  www.openfoam.com                      |
|    \\/     M anipulation  |                                                 |
\*---------------------------------------------------------------------------*/
FoamFile
{
    version     2.0;
    format      ascii;
    class       volScalarField;
    location    "0.4";
    object      alpha.water;
}
// * * * * * * * * * * * * * * * * * * * * * * * * * * * * * * * * * * * * * //

dimensions      [0 0 0 0 0 0 0];


internalField   nonuniform List<scalar> 
2625
(
-9.9286e-92
-3.37604e-90
-1.14632e-89
-1.65245e-89
-7.09867e-90
-1.80828e-90
-3.55358e-91
-6.48287e-92
-8.38804e-93
-7.13269e-94
-5.32736e-95
-3.87476e-96
-2.23076e-97
-1.12035e-98
-5.27827e-100
-2.35011e-101
-2.31031e-101
-3.97877e-97
-1.19507e-92
-4.30323e-88
-3.12957e-83
-3.3725e-78
-5.56771e-73
-5.98991e-68
-5.85337e-68
-2.72917e-68
-8.05014e-69
-1.68126e-69
-2.63865e-70
-3.22695e-71
-3.14907e-72
-2.49275e-73
-1.61953e-74
-8.71051e-76
-3.90298e-77
-1.46375e-78
-3.3164e-90
-9.3442e-89
-2.76205e-88
-3.6451e-88
-1.48264e-88
-3.57708e-89
-6.70277e-90
-1.17339e-90
-1.47176e-91
-1.22034e-92
-9.035e-94
-6.42777e-95
-3.66128e-96
-1.80847e-97
-8.43924e-99
-3.72106e-100
-1.8904e-100
-3.18093e-96
-9.64801e-92
-3.528e-87
-2.85441e-82
-3.32853e-77
-6.90342e-72
-7.15828e-67
-7.1132e-67
-3.37565e-67
-1.01426e-67
-2.15933e-68
-3.45689e-69
-4.3148e-70
-4.29962e-71
-3.47685e-72
-2.30838e-73
-1.26908e-74
-5.81371e-76
-2.22941e-77
-1.05328e-88
-2.45104e-87
-6.31005e-87
-7.74296e-87
-2.97083e-87
-6.77868e-88
-1.20677e-88
-2.05295e-89
-2.48482e-90
-2.01556e-91
-1.45955e-92
-1.01929e-93
-5.75785e-95
-2.80896e-96
-1.29904e-97
-5.67197e-99
-1.4024e-99
-2.18775e-95
-6.7175e-91
-2.52099e-86
-2.39589e-81
-3.04927e-76
-8.6724e-71
-8.25885e-66
-8.35095e-66
-4.03645e-66
-1.23633e-66
-2.68517e-67
-4.38835e-68
-5.59497e-69
-5.69784e-70
-4.71088e-71
-3.19903e-72
-1.79938e-73
-8.43541e-75
-3.31074e-76
-3.20762e-87
-6.19074e-86
-1.38927e-85
-1.56308e-85
-5.67149e-86
-1.23869e-86
-2.09084e-87
-3.44776e-88
-4.03598e-89
-3.22217e-90
-2.29149e-91
-1.55058e-92
-8.71766e-94
-4.2117e-95
-1.9337e-96
-8.34472e-98
-9.93688e-99
-1.25906e-94
-3.94837e-90
-1.54768e-85
-1.85791e-80
-2.57862e-75
-1.1135e-69
-9.19227e-65
-9.46492e-65
-4.66309e-65
-1.45706e-65
-3.23084e-66
-5.39441e-67
-7.03073e-68
-7.32324e-69
-6.19558e-70
-4.30676e-71
-2.48052e-72
-1.19101e-73
-4.78846e-75
-9.33531e-86
-1.49778e-84
-2.93966e-84
-3.04284e-84
-1.0325e-84
-2.16141e-85
-3.49073e-86
-5.61318e-87
-6.30974e-88
-4.94815e-89
-3.4496e-90
-2.26878e-91
-1.26282e-92
-6.06486e-94
-2.76365e-95
-1.18043e-96
-7.67141e-98
-5.8751e-94
-1.91089e-89
-8.03054e-85
-1.33517e-79
-1.99981e-74
-1.45943e-68
-9.86346e-64
-1.03489e-63
-5.20057e-64
-1.65894e-64
-3.75829e-65
-6.41565e-66
-8.55431e-67
-9.1203e-68
-7.90152e-69
-5.62693e-70
-3.3212e-71
-1.63459e-72
-6.73759e-74
-2.59049e-84
-3.47285e-83
-5.96091e-83
-5.65824e-83
-1.7969e-83
-3.60159e-84
-5.59595e-85
-8.73034e-86
-9.48352e-87
-7.31543e-88
-4.99889e-89
-3.19648e-90
-1.75874e-91
-8.40921e-93
-3.8014e-94
-1.60597e-95
-7.36947e-97
-2.13304e-93
-7.36565e-89
-3.45228e-84
-8.87583e-79
-1.41099e-73
-1.93148e-67
-1.01942e-62
-1.09069e-62
-5.59453e-63
-1.82321e-63
-4.22307e-64
-7.3759e-65
-1.00685e-65
-1.09958e-66
-9.76276e-68
-7.12769e-69
-4.31449e-70
-2.17826e-71
-9.21201e-73
-6.85376e-83
-7.68936e-82
-1.16022e-81
-1.00036e-81
-2.98739e-82
-5.70702e-83
-8.5368e-84
-1.27976e-84
-1.36668e-85
-1.03896e-86
-6.94101e-88
-4.32219e-89
-2.34315e-90
-1.11673e-91
-5.00083e-93
-2.09092e-94
-8.43254e-96
-5.69934e-93
-2.15998e-88
-1.20693e-83
-5.41237e-78
-8.97752e-73
-2.54227e-66
-1.01393e-61
-1.10698e-61
-5.79986e-62
-1.93237e-62
-4.57958e-63
-8.18955e-64
-1.14532e-64
-1.28215e-65
-1.16744e-66
-8.74453e-68
-5.4323e-69
-2.81543e-70
-1.2225e-71
-1.7278e-81
-1.63372e-80
-2.1741e-80
-1.71829e-80
-4.80074e-81
-8.76281e-82
-1.2512e-82
-1.79096e-83
-1.8918e-84
-1.40083e-85
-9.20855e-87
-5.5993e-88
-2.99741e-89
-1.42178e-90
-6.30346e-92
-2.60464e-93
-1.01184e-94
-1.03572e-92
-4.5076e-88
-3.44305e-83
-2.98063e-77
-5.09939e-72
-3.28012e-65
-9.69505e-61
-1.08087e-60
-5.78868e-61
-1.97317e-61
-4.78801e-62
-8.77295e-63
-1.25786e-63
-1.44444e-64
-1.34974e-65
-1.03795e-66
-6.62202e-68
-3.52556e-69
-1.57287e-70
-4.12163e-80
-3.30801e-79
-3.8917e-79
-2.8764e-79
-7.38812e-80
-1.28781e-80
-1.75811e-81
-2.42076e-82
-2.48375e-83
-1.8109e-84
-1.17208e-85
-6.93163e-87
-3.66442e-88
-1.72775e-89
-7.57752e-91
-3.09429e-92
-1.18307e-93
-1.14085e-92
-6.05548e-88
-8.74806e-83
-1.45228e-76
-2.55565e-71
-4.1026e-64
-8.90245e-60
-1.01424e-59
-5.55636e-60
-1.93911e-60
-4.82125e-61
-9.05765e-62
-1.33239e-62
-1.57055e-63
-1.50715e-64
-1.19069e-65
-7.80673e-67
-4.2724e-68
-1.95965e-69
-9.21138e-79
-6.26327e-78
-6.55269e-78
-4.62453e-78
-1.08259e-78
-1.81079e-79
-2.386e-80
-3.11777e-81
-3.10539e-82
-2.23908e-83
-1.42791e-84
-8.19711e-86
-4.27795e-87
-2.00295e-88
-8.68096e-90
-3.49843e-91
-1.31966e-92
-6.27441e-93
-4.61019e-88
-2.39364e-82
-6.11753e-76
-1.11356e-70
-4.93601e-63
-7.84125e-59
-9.1358e-59
-5.12338e-59
-1.83196e-59
-4.6704e-60
-9.00301e-61
-1.35968e-61
-1.64633e-62
-1.62355e-63
-1.31862e-64
-8.89056e-66
-5.00468e-67
-2.36159e-68
-1.92378e-77
-1.07358e-76
-1.02449e-76
-6.93208e-77
-1.50249e-77
-2.41727e-78
-3.09822e-79
-3.82024e-80
-3.71023e-81
-2.63107e-82
-1.64694e-83
-9.20055e-85
-4.75e-86
-2.20631e-87
-9.43641e-89
-3.74894e-90
-1.39324e-91
-8.52608e-93
-3.80219e-88
-7.0917e-82
-2.17386e-75
-4.13578e-70
-5.68335e-62
-6.61666e-58
-7.88958e-58
-4.53268e-58
-1.66182e-58
-4.34739e-59
-8.60511e-60
-1.33521e-60
-1.66184e-61
-1.68532e-62
-1.4081e-63
-9.76935e-65
-5.66022e-66
-2.74948e-67
-3.83396e-76
-1.78835e-75
-1.51339e-75
-9.415e-76
-1.97661e-76
-3.04442e-77
-3.83388e-78
-4.51134e-79
-4.24698e-80
-2.93799e-81
-1.79369e-82
-9.90241e-84
-5.02281e-85
-2.30496e-86
-9.70688e-88
-3.79287e-89
-1.38608e-90
-5.05754e-92
-5.15273e-88
-1.78463e-81
-6.33073e-75
-1.26941e-69
-6.24012e-61
-5.342e-57
-6.52388e-57
-3.84265e-57
-1.44565e-57
-3.88366e-58
-7.89926e-59
-1.26021e-59
-1.61343e-60
-1.68378e-61
-1.44818e-62
-1.03457e-63
-6.17335e-65
-3.08883e-66
-7.23235e-75
-2.87536e-74
-2.14661e-74
-1.22609e-74
-2.4657e-75
-3.6276e-76
-4.42121e-77
-5.11084e-78
-4.5522e-79
-3.12103e-80
-1.85994e-81
-1.00811e-82
-5.01927e-84
-2.2659e-85
-9.38768e-87
-3.60659e-88
-1.29295e-89
-4.40398e-91
-1.84743e-87
-3.32564e-81
-1.44934e-74
-3.00551e-69
-6.51531e-60
-4.12066e-56
-5.1582e-56
-3.1174e-56
-1.20441e-56
-3.32523e-57
-6.95531e-58
-1.14171e-58
-1.50469e-59
-1.61708e-60
-1.43269e-61
-1.05457e-62
-6.48494e-64
-3.34425e-65
-1.28122e-73
-4.34634e-73
-2.87689e-73
-1.48488e-73
-2.87976e-74
-4.05113e-75
-4.72046e-76
-5.58108e-77
-4.60516e-78
-3.15603e-79
-1.82622e-80
-9.7096e-82
-4.72897e-83
-2.09218e-84
-8.50626e-86
-3.20668e-87
-1.1242e-88
-3.66864e-90
-4.69466e-87
-4.07435e-81
-2.44341e-74
-3.95262e-69
-6.45325e-59
-3.03241e-55
-3.89403e-55
-2.41667e-55
-9.59616e-56
-2.725e-56
-5.86617e-57
-9.9155e-58
-1.34621e-58
-1.49093e-59
-1.36163e-60
-1.03339e-61
-6.55297e-63
-3.48511e-64
-2.13857e-72
-6.17398e-72
-3.6267e-72
-1.65627e-72
-3.1112e-73
-4.32246e-74
-4.72111e-75
-5.66359e-76
-4.45201e-77
-2.95764e-78
-1.67184e-79
-8.65794e-81
-4.13899e-82
-1.79487e-83
-7.15003e-85
-2.64748e-86
-9.01801e-88
-2.8492e-89
-5.97416e-87
-2.459e-81
-2.69404e-74
1.22062e-68
-6.04885e-58
-2.12555e-54
-2.80239e-54
-1.78747e-54
-7.30107e-55
-2.13423e-55
-4.73236e-56
-8.24336e-57
-1.15384e-57
-1.31787e-58
-1.24157e-59
-9.72182e-61
-6.36135e-62
-3.49127e-63
-3.38032e-71
-8.36667e-71
-4.40692e-71
-1.83622e-71
-3.22148e-72
-4.28052e-73
-4.53246e-74
-5.02805e-75
-4.01326e-76
-2.61374e-77
-1.4401e-78
-7.27533e-80
-3.39208e-81
-1.42953e-82
-5.55303e-84
-1.9957e-85
-6.61434e-87
-2.02373e-88
-5.72991e-90
-6.23883e-93
-1.45559e-74
1.67298e-67
-5.35217e-57
-1.41673e-53
-1.9194e-53
-1.25937e-53
-5.29605e-54
-1.59503e-54
-3.64609e-55
-6.55062e-56
-9.46054e-57
-1.11523e-57
-1.08461e-58
-8.76864e-60
-5.92451e-61
-3.35751e-62
-5.01109e-70
-1.07448e-69
-5.14871e-70
-1.93456e-70
-3.26651e-71
-4.05548e-72
-4.23986e-73
-4.40937e-74
-3.40329e-75
-2.17734e-76
-1.15918e-77
-5.69921e-79
-2.56954e-80
-1.0489e-81
-3.94015e-83
-1.3676e-84
-4.36956e-86
-1.28667e-87
-3.49665e-89
2.68652e-91
-2.004e-103
1.36542e-66
-4.45817e-56
-8.96284e-53
-1.24894e-52
-8.43734e-53
-3.65645e-53
-1.13564e-53
-2.6786e-54
-4.96787e-55
-7.40905e-56
-9.02155e-57
-9.06441e-58
-7.57176e-59
-5.28612e-60
-3.0954e-61
-6.87125e-69
-1.26396e-68
-5.62339e-69
-1.92321e-69
-3.07641e-70
-3.62756e-71
-3.66661e-72
-3.67947e-73
-2.69589e-74
-1.65954e-75
-8.6207e-77
-4.10775e-78
-1.78504e-79
-6.99211e-81
-2.52117e-82
-8.36944e-84
-2.54765e-85
-7.12456e-87
-1.82548e-88
5.89369e-87
-4.47607e-100
1.00368e-65
-3.48534e-55
-5.37162e-52
-7.70604e-52
-5.36536e-52
-2.39845e-52
-7.68938e-53
-1.8732e-53
-3.58965e-54
-5.53335e-55
-6.96539e-56
-7.2361e-57
-6.25019e-58
-4.51197e-59
-2.73184e-60
-8.6759e-68
-1.34519e-67
-5.25227e-68
-1.7404e-68
-2.72107e-69
-3.04308e-70
-2.91233e-71
-2.83662e-72
-1.98243e-73
-1.18374e-74
-5.94386e-76
-2.70083e-77
-1.12094e-78
-4.16958e-80
-1.42388e-81
-4.44922e-83
-1.26302e-84
-3.27649e-86
-7.59442e-88
2.06541e-84
7.98084e-92
6.8964e-65
-2.54877e-54
-3.04341e-51
-4.49939e-51
-3.23202e-51
-1.49188e-51
-4.94219e-52
-1.24471e-52
-2.467e-53
-3.93418e-54
-5.12437e-55
-5.50896e-56
-4.92426e-57
-3.67855e-58
-2.30453e-59
-1.02498e-66
-1.35458e-66
-4.73088e-67
-1.4289e-67
-2.14265e-68
-2.35742e-69
-2.17231e-70
-2.02197e-71
-1.33971e-72
-7.82469e-74
-3.73153e-75
-1.60181e-76
-6.2559e-78
-2.17941e-79
-6.84041e-81
-1.94702e-82
-4.93083e-84
-1.106e-85
-2.03609e-87
4.14257e-83
3.07352e-89
4.43742e-64
-1.73683e-53
-1.62639e-50
-2.48059e-50
-1.8404e-50
-8.78168e-51
-3.00928e-51
-7.84395e-52
-1.60958e-52
-2.65816e-53
-3.58598e-54
-3.993e-55
-3.69678e-56
-2.86001e-57
-1.8553e-58
-1.13652e-65
-1.28256e-65
-3.97292e-66
-1.1104e-66
-1.62159e-67
-1.67195e-68
-1.48355e-69
-1.38259e-70
-8.32367e-72
-4.64902e-73
-2.10209e-74
-8.42077e-76
-3.04446e-77
-9.57466e-79
-2.61033e-80
-5.86397e-82
-1.19641e-83
-7.63692e-86
-1.20964e-96
1.05284e-82
2.55256e-86
2.67502e-63
-1.09804e-52
-8.17756e-50
-1.28826e-49
-9.88364e-50
-4.88099e-50
-1.73221e-50
-4.67833e-51
-9.95006e-52
-1.70347e-52
-2.38254e-53
-2.7505e-54
-2.63987e-55
-2.11692e-56
-1.4231e-57
-1.15082e-64
-1.11463e-64
-3.09559e-65
-7.82334e-66
-1.10752e-66
-1.07545e-67
-9.36561e-69
-8.45588e-70
-4.73373e-71
-2.43501e-72
-1.03295e-73
-3.77355e-75
-1.20024e-76
-3.2076e-78
-6.35675e-80
-5.27726e-105
3.80746e-86
9.07655e-86
1.06982e-85
9.69147e-85
3.27583e-84
1.51223e-62
-6.4071e-52
-3.85795e-49
-6.28577e-49
-4.99354e-49
-2.55558e-49
-9.40454e-50
-2.63501e-50
-5.8155e-51
-1.0333e-51
-1.49995e-52
-1.7971e-53
-1.78982e-54
-1.48902e-55
-1.0382e-56
-1.06753e-63
-8.86576e-64
-2.16354e-64
-5.01041e-65
-6.1285e-66
-5.97078e-67
-5.10658e-68
-3.95517e-69
-2.42995e-70
-1.10133e-71
-4.25833e-73
-1.33398e-74
-3.09623e-76
-3.95936e-78
-4.31633e-101
3.48928e-81
1.76759e-81
1.18716e-81
5.79999e-82
4.09714e-84
1.40046e-80
8.01882e-62
-3.42903e-51
-1.70243e-48
-2.87315e-48
-2.367e-48
-1.25718e-48
-4.80401e-49
-1.39825e-49
-3.20631e-50
-5.9196e-51
-8.92869e-52
-1.11143e-52
-1.14985e-53
-9.93395e-55
-7.19022e-56
-9.08405e-63
-6.61751e-63
-1.45681e-63
-3.01651e-64
-3.46402e-65
-3.25528e-66
-2.59601e-67
-1.78729e-68
-1.08915e-69
-4.1992e-71
-1.33684e-72
-2.92144e-74
3.8335e-98
1.51203e-78
1.13934e-77
2.10005e-77
7.98863e-78
5.30129e-78
2.59191e-78
1.40046e-80
6.94191e-77
3.98001e-61
-1.67006e-50
-7.00139e-48
-1.22619e-47
-1.04943e-47
-5.79409e-48
-2.30264e-48
-6.97236e-49
-1.66343e-49
-3.19517e-50
-5.01377e-51
-6.49188e-52
-6.98449e-53
-6.27281e-54
-4.71789e-55
-7.06861e-62
-4.50725e-62
-8.88819e-63
-1.74246e-63
-1.84058e-64
-1.5563e-65
-1.16524e-66
-7.30712e-68
-3.9518e-69
-1.19297e-70
-2.15141e-72
1.19588e-90
5.42573e-75
2.09233e-74
4.93566e-74
9.1422e-74
3.49329e-74
2.32445e-74
1.14433e-74
6.94191e-77
1.71221e-67
1.83474e-60
-7.32643e-50
-2.67187e-47
-4.86729e-47
-4.33678e-47
-2.49385e-47
-1.03255e-47
-3.25803e-48
-8.09862e-49
-1.62062e-49
-2.64905e-50
-3.57239e-51
-4.00186e-52
-3.74051e-53
-2.92649e-54
-4.9006e-61
-2.79125e-61
-4.88572e-62
-9.02655e-63
-8.67049e-64
-6.5435e-65
-4.51416e-66
-2.40533e-67
-9.51267e-69
-2.31598e-71
8.39196e-75
5.87753e-72
2.48935e-71
9.21502e-71
2.16915e-70
4.01913e-70
1.53941e-70
9.97818e-71
5.01077e-71
3.37066e-73
2.71772e-66
7.66918e-60
-2.85442e-49
-9.41054e-47
-1.78863e-46
-1.66365e-46
-9.98771e-47
-4.3173e-47
-1.4222e-47
-3.68901e-48
-7.70124e-49
-1.31312e-49
-1.84687e-50
-2.15707e-51
-2.10099e-52
-1.71195e-53
-3.04095e-60
-1.44571e-60
-2.34723e-61
-4.2525e-62
-3.43726e-63
-2.42116e-64
-1.39605e-65
-4.98568e-67
-9.7945e-87
6.78512e-71
4.61357e-69
2.44529e-68
1.05163e-67
3.89061e-67
9.16063e-67
1.69987e-66
6.55134e-67
4.30023e-67
2.2209e-67
1.20389e-66
3.00457e-65
2.74786e-59
-9.67411e-49
-3.03767e-46
-6.04979e-46
-5.89523e-46
-3.70609e-46
-1.67678e-46
-5.77953e-47
-1.56677e-47
-3.4169e-48
-6.08612e-49
-8.94116e-50
-1.09047e-50
-1.10837e-51
-9.41889e-53
-1.68957e-59
-6.94344e-60
-9.99973e-61
-1.54256e-61
-1.16802e-62
-6.91994e-64
-2.90671e-65
3.48727e-88
6.6351e-68
1.7191e-66
2.61943e-65
1.25652e-64
5.23876e-64
1.96902e-63
4.80976e-63
9.25336e-63
3.977e-63
1.94337e-63
9.35585e-64
5.17942e-63
1.04483e-64
6.27028e-59
-2.75887e-48
-8.90125e-46
-1.86915e-45
-1.91774e-45
-1.26756e-45
-6.02232e-46
-2.17784e-46
-6.17924e-47
-1.40955e-47
-2.6267e-48
-4.03776e-49
-5.15142e-50
-5.47317e-51
-4.85859e-52
-8.45384e-59
-3.01481e-59
-3.7797e-60
-4.89314e-61
-3.24645e-62
-1.35477e-63
-1.60633e-82
1.16355e-64
1.44417e-63
3.39818e-62
5.25672e-61
2.43039e-60
9.71457e-60
3.76682e-59
9.31092e-59
1.79296e-58
7.87194e-59
1.168e-59
4.30391e-60
2.0531e-59
3.64376e-63
1.117e-56
-6.22507e-48
-2.33544e-45
-5.22032e-45
-5.68043e-45
-3.9699e-45
-1.98942e-45
-7.57431e-46
-2.25164e-46
-5.37734e-47
-1.05007e-47
-1.69251e-48
-2.26387e-49
-2.51943e-50
-3.73915e-58
-1.13669e-58
-1.19507e-59
-1.2049e-60
-6.27816e-62
5.13511e-81
3.13124e-63
2.24413e-61
4.05871e-60
8.11051e-59
9.35413e-58
5.33328e-57
2.40337e-56
8.64285e-56
1.97265e-55
3.51794e-55
1.48318e-55
2.1958e-55
2.47825e-56
8.019e-56
1.5898e-59
3.24548e-52
-9.52421e-48
-5.36942e-45
-1.29783e-44
-1.5147e-44
-1.12867e-44
-6.00328e-45
-2.41771e-45
-7.5291e-46
-1.88299e-46
-3.86027e-47
-6.54206e-48
-9.20158e-49
-1.43884e-57
-3.49017e-58
-2.94085e-59
-1.76328e-60
7.27852e-83
5.67295e-63
1.05929e-60
3.72705e-59
9.98771e-58
1.64097e-56
1.43026e-55
1.02416e-54
5.09837e-54
1.67507e-53
3.51652e-53
5.79685e-53
2.18708e-53
3.81768e-52
4.36191e-52
3.05051e-52
6.98074e-56
5.18122e-49
-3.10346e-48
-1.04101e-44
-2.80184e-44
-3.57455e-44
-2.8774e-44
-1.63972e-44
-7.03267e-45
-2.28714e-45
-5.98427e-46
-1.29117e-46
-2.31029e-47
-3.43202e-48
-4.57819e-57
-8.22127e-58
-4.75493e-59
-1.48558e-60
-6.7318e-76
9.25734e-62
9.53646e-60
3.18678e-58
8.66345e-57
1.38293e-55
1.1812e-54
8.59129e-54
4.25503e-53
1.36527e-52
2.83807e-52
4.61267e-52
1.85212e-52
4.86037e-50
8.98877e-49
1.23069e-48
1.2576e-49
4.52378e-47
3.49292e-47
-1.56434e-44
-5.01733e-44
-7.25757e-44
-6.45584e-44
-4.00131e-44
-1.84661e-44
-6.20562e-45
-1.69382e-45
-3.86384e-46
-7.35221e-47
-1.16176e-47
-1.03562e-56
3.12905e-49
1.31094e-46
4.32621e-45
5.56687e-46
4.07361e-46
2.2622e-46
-1.39049e-44
-6.6961e-44
-1.19886e-43
-1.23467e-43
-8.54863e-44
-4.31807e-44
-1.45481e-44
-4.12097e-45
-1.00529e-45
-2.06361e-46
-3.51201e-47
8.8761e-46
1.58032e-41
2.16566e-42
1.24338e-45
1.36235e-46
-4.73624e-54
-3.76707e-44
-1.3597e-43
-1.88099e-43
-1.54338e-43
-8.80417e-44
-2.72442e-44
-7.9545e-45
-2.15342e-45
-4.92868e-46
-9.25252e-47
3.67607e-38
4.27495e-39
3.88399e-42
9.6104e-44
2.43817e-45
-1.45775e-52
-5.78835e-55
-1.83005e-43
-2.18062e-43
-1.50752e-43
-3.12401e-44
-9.4948e-45
-3.35024e-45
-9.37694e-46
-2.04317e-46
1.34272e-34
1.39808e-35
1.62698e-38
3.88243e-40
1.01311e-41
1.13889e-43
5.30411e-46
-4.53605e-55
-1.88658e-43
-1.99565e-43
2.27382e-44
7.16415e-46
-2.36837e-45
-1.22173e-45
-3.52897e-46
5.5202e-31
9.99861e-32
1.10104e-33
1.53318e-36
4.11187e-38
4.76617e-40
2.29478e-42
4.36881e-45
3.14205e-63
-1.57483e-43
3.8482e-41
2.40698e-42
4.60248e-45
-3.12227e-46
-3.99392e-46
1.24075e-26
1.95457e-27
1.20172e-28
3.3214e-30
1.91473e-34
1.95034e-36
9.72299e-39
1.9233e-41
1.02861e-44
1.51746e-60
2.57971e-39
5.36659e-40
9.0905e-42
8.11172e-45
1.14294e-48
4.62781e-23
1.19088e-23
1.55614e-24
9.44332e-26
1.58933e-27
2.62852e-30
4.03491e-35
8.30424e-38
4.78249e-41
1.02861e-44
1.9726e-38
1.67658e-38
1.87322e-39
1.3615e-41
8.96265e-45
1.16231e-20
4.87735e-21
1.3278e-21
1.9143e-22
1.04147e-23
1.48898e-25
3.29294e-28
3.51723e-34
2.1883e-37
4.78249e-41
3.44188e-38
9.8701e-38
4.27971e-38
2.32324e-39
7.08075e-42
3.58439e-19
2.11508e-19
9.51294e-20
2.84703e-20
4.51455e-21
2.61766e-22
3.14686e-24
5.71521e-27
9.67727e-34
2.1883e-37
3.45355e-38
1.71597e-37
1.88107e-37
4.74029e-38
8.80025e-40
2.55371e-18
1.89882e-18
1.20878e-18
6.03529e-19
2.02235e-19
3.47721e-20
1.98461e-21
2.00603e-23
2.03966e-26
1.26762e-32
5.13829e-37
1.71836e-37
2.65857e-37
1.59588e-37
1.64501e-38
7.16105e-18
6.09276e-18
4.79109e-18
3.31287e-18
1.83275e-18
6.78695e-19
1.21333e-19
6.17743e-21
3.50812e-23
3.32086e-30
2.17954e-33
5.14108e-37
9.3206e-38
9.28772e-38
-1.11665e-88
-4.88158e-87
-1.27054e-86
-9.96084e-87
-3.98739e-87
-1.01221e-87
-1.89612e-88
-2.72692e-89
-3.36327e-90
-3.38629e-91
-2.96261e-92
-2.28174e-93
-1.58172e-94
-9.89996e-96
-5.64078e-97
-2.94358e-98
-1.42215e-99
-2.33235e-97
-6.97962e-93
-2.51636e-88
-1.83073e-83
-1.97678e-78
-3.13133e-73
-3.48944e-68
-3.40959e-68
-1.59052e-68
-4.69561e-69
-9.81786e-70
-1.54288e-70
-1.88954e-71
-1.84663e-72
-1.46395e-73
-9.52552e-75
-5.13088e-76
-2.30243e-77
-8.64748e-79
-3.73201e-87
-1.35043e-85
-3.07712e-85
-2.21077e-85
-8.25226e-86
-1.99361e-86
-3.5789e-87
-4.97211e-88
-5.96017e-89
-5.85263e-90
-5.01476e-91
-3.791e-92
-2.58515e-93
-1.59389e-94
-8.96578e-96
-4.62465e-97
-2.20132e-98
-1.86221e-96
-5.62902e-92
-2.06135e-87
-1.66863e-82
-1.9508e-77
-3.81794e-72
-4.16349e-67
-4.13676e-67
-1.96408e-67
-5.9066e-68
-1.25895e-68
-2.01815e-69
-2.52265e-70
-2.51755e-71
-2.03891e-72
-1.35578e-73
-7.46508e-75
-3.42497e-76
-1.31535e-77
-1.19039e-85
-3.57473e-84
-7.15381e-84
-4.71461e-84
-1.64277e-84
-3.7773e-85
-6.49534e-86
-8.73262e-87
-1.01591e-87
-9.73675e-89
-8.16774e-90
-6.06331e-91
-4.06753e-92
-2.4705e-93
-1.37185e-94
-6.99402e-96
-3.28648e-97
-1.27988e-95
-3.9156e-91
-1.47158e-86
-1.39953e-81
-1.78703e-76
-4.70475e-71
-4.79582e-66
-4.84854e-66
-2.34465e-66
-7.18787e-67
-1.56297e-67
-2.55784e-68
-3.26596e-69
-3.33113e-70
-2.75845e-71
-1.87614e-72
-1.05694e-73
-4.9626e-75
-1.9507e-76
-3.62648e-84
-9.06172e-83
-1.5962e-82
-9.65918e-83
-3.14682e-83
-6.8931e-84
-1.13504e-84
-1.47886e-85
-1.66906e-86
-1.56365e-87
-1.28413e-88
-9.36384e-90
-6.17771e-91
-3.69773e-92
-2.0269e-93
-1.02122e-94
-4.74228e-96
-7.36921e-95
-2.29922e-90
-9.02324e-86
-1.08441e-80
-1.51116e-75
-5.92462e-70
-5.32898e-65
-5.48598e-65
-2.70402e-65
-8.45676e-66
-1.87744e-66
-3.13905e-67
-4.09745e-68
-4.27465e-69
-3.62225e-70
-2.52202e-71
-1.45492e-72
-6.99686e-74
-2.81749e-75
-1.05215e-82
-2.19337e-81
-3.41104e-81
-1.89665e-81
-5.78703e-82
-1.20875e-82
-1.90582e-83
-2.41015e-84
-2.63576e-85
-2.41379e-86
-1.94026e-87
-1.39024e-88
-9.02065e-90
-5.32187e-91
-2.87933e-92
-1.43344e-93
-6.58221e-95
-3.45295e-94
-1.11146e-89
-4.67382e-85
-7.78699e-80
-1.17197e-74
-7.63458e-69
-5.70834e-64
-5.9879e-64
-3.01039e-64
-9.6117e-65
-2.18017e-65
-3.727e-66
-4.97713e-67
-5.31501e-68
-4.61236e-69
-3.29007e-70
-1.94511e-71
-9.58884e-73
-3.95875e-74
-2.90824e-81
-5.07073e-80
-6.98334e-80
-3.56972e-80
-1.02194e-80
-2.03574e-81
-3.07335e-82
-3.77161e-83
-3.99891e-84
-3.58446e-85
-2.82038e-86
-1.98635e-87
-1.26781e-88
-7.37309e-90
-3.93656e-91
-1.93585e-92
-8.78967e-94
-1.27872e-93
-4.27778e-89
-2.00392e-84
-5.17329e-79
-8.2692e-74
-9.97231e-68
-5.88945e-63
-6.29943e-63
-3.23261e-63
-1.05445e-63
-2.44545e-64
-4.27738e-65
-5.84816e-66
-6.39739e-67
-5.68962e-68
-4.16102e-69
-2.52299e-70
-1.27592e-71
-5.4048e-73
-7.64148e-80
-1.1174e-78
-1.36634e-78
-6.42226e-79
-1.72964e-79
-3.2836e-80
-4.75522e-81
-5.65888e-82
-5.82231e-83
-5.10746e-84
-3.93485e-85
-2.72321e-86
-1.7095e-87
-9.79979e-89
-5.16159e-90
-2.5065e-91
-1.12513e-92
-3.78e-93
-1.25183e-88
-6.97471e-84
-3.15315e-78
-5.26178e-73
-1.30036e-66
-5.84723e-62
-6.38176e-62
-3.34503e-62
-1.11552e-62
-2.64706e-63
-4.74075e-64
-6.64081e-65
-7.44687e-66
-6.79245e-67
-5.09668e-68
-3.17168e-69
-1.64663e-70
-7.16197e-72
-1.90801e-78
-2.34537e-77
-2.55436e-77
-1.1043e-77
-2.80518e-78
-5.07609e-79
-7.05607e-80
-8.14785e-81
-8.12142e-82
-6.96931e-83
-5.26352e-84
-3.57967e-85
-2.21102e-86
-1.24895e-87
-6.48743e-89
-3.10936e-90
-1.37911e-91
-1.16753e-92
-2.60372e-88
-1.97383e-83
-1.73591e-77
-2.9893e-72
-1.66679e-65
-5.58071e-61
-6.21948e-61
-3.33223e-61
-1.13691e-61
-2.76235e-62
-5.06913e-63
-7.28028e-64
-8.37481e-65
-7.83977e-66
-6.03962e-67
-3.8601e-68
-2.05874e-69
-9.20061e-71
-4.51818e-77
-4.68323e-76
-4.55245e-76
-1.8105e-76
-4.34897e-77
-7.49963e-78
-1.00118e-78
-1.12323e-79
-1.08574e-80
-9.11274e-82
-6.74053e-83
-4.50135e-84
-2.73467e-85
-1.52147e-86
-7.79041e-88
-3.68347e-89
-1.61329e-90
-7.21617e-92
-3.47549e-88
-4.94997e-83
-8.45587e-77
-1.49865e-71
-2.07465e-64
-5.11478e-60
-5.82476e-60
-3.19222e-60
-1.1151e-60
-2.77617e-61
-5.22374e-62
-7.69738e-63
-9.08963e-64
-8.73873e-65
-6.91664e-66
-4.5432e-67
-2.49087e-68
-1.14454e-69
-1.01373e-75
-8.88946e-75
-7.72859e-75
-2.83412e-75
-6.43932e-76
-1.05841e-76
-1.35852e-77
-1.47959e-78
-1.38877e-79
-1.14037e-80
-8.25799e-82
-5.41186e-83
-3.23182e-84
-1.76983e-85
-8.92684e-87
-4.16047e-88
-1.79759e-89
-7.25053e-91
-2.60441e-88
-1.33826e-82
-3.56102e-76
-6.53473e-71
-2.48628e-63
-4.49632e-59
-5.23616e-59
-2.93753e-59
-1.05137e-59
-2.68397e-60
-5.18212e-61
-7.84014e-62
-9.51056e-63
-9.39677e-64
-7.6464e-65
-5.1652e-66
-2.91301e-67
-1.37709e-68
-2.15157e-74
-1.6012e-73
-1.24646e-73
-4.22282e-74
-9.07405e-75
-1.42228e-75
-1.75764e-76
-1.85614e-77
-1.69441e-78
-1.36039e-79
-9.63977e-81
-6.19757e-82
-3.63464e-83
-1.95805e-84
-9.72095e-86
-4.46222e-87
-1.90009e-88
-7.52643e-90
-2.12041e-88
-3.95256e-82
-1.26506e-75
-2.43131e-70
-2.85255e-62
-3.78653e-58
-4.51261e-58
-2.59345e-58
-9.51752e-59
-2.49323e-59
-4.94316e-60
-7.68399e-61
-9.58193e-62
-9.73628e-63
-8.15066e-64
-5.6659e-65
-3.28903e-66
-1.60066e-67
-4.31363e-73
-2.73254e-72
-1.90886e-72
-5.9848e-73
-1.21723e-73
-1.82045e-74
-2.17008e-75
-2.22028e-76
-1.9738e-77
-1.54665e-78
-1.07223e-79
-6.75927e-81
-3.88991e-82
-2.05881e-83
-1.00453e-84
-4.53459e-86
-1.90003e-87
-7.40909e-89
-2.87578e-88
-9.94377e-82
-3.68299e-75
-7.50197e-70
-3.12116e-61
-3.05079e-57
-3.72357e-57
-2.19394e-57
-8.26181e-58
-2.22259e-58
-4.52832e-59
-7.23773e-60
-9.28455e-61
-9.70889e-62
-8.36724e-63
-5.98948e-64
-3.58101e-65
-1.79522e-66
-8.15254e-72
-4.41182e-71
-2.7687e-71
-8.048e-72
-1.54867e-72
-2.20998e-73
-2.53985e-74
-2.5126e-75
-2.17996e-76
-1.66626e-77
-1.1295e-78
-6.97476e-80
-3.93579e-81
-2.04481e-82
-9.79447e-84
-4.34205e-85
-1.78767e-86
-6.85283e-88
-1.03806e-87
-1.8527e-81
-8.42893e-75
-1.81301e-69
-3.24734e-60
-2.3483e-56
-2.93768e-56
-1.77593e-56
-6.86795e-57
-1.89887e-57
-3.9787e-58
-6.54358e-59
-8.64137e-60
-9.30606e-61
-8.26205e-62
-6.0941e-63
-3.75509e-64
-1.94033e-65
-1.45009e-70
-6.72623e-70
-3.79649e-70
-1.02493e-70
-1.86684e-71
-2.54628e-72
-2.82469e-73
-2.70674e-74
-2.28792e-75
-1.70688e-76
-1.12945e-77
-6.82103e-79
-3.76733e-80
-1.91701e-81
-8.99414e-83
-3.90618e-84
-1.57624e-85
-5.92512e-87
-2.77899e-87
-2.2696e-81
-1.42049e-74
-2.74006e-69
-3.20464e-59
-1.72435e-55
-2.21273e-55
-1.37361e-55
-5.45965e-56
-1.55262e-56
-3.3483e-57
-5.67077e-58
-7.71515e-59
-8.56281e-60
-7.83701e-61
-5.96043e-62
-3.78757e-63
-2.0185e-64
-2.42163e-69
-9.66111e-69
-4.9167e-69
-1.23458e-69
-2.12998e-70
-2.77838e-71
-2.96738e-72
-2.74299e-73
-2.25031e-74
-1.63356e-75
-1.05899e-76
-6.25241e-78
-3.38068e-79
-1.68225e-80
-7.71908e-82
-3.27707e-83
-1.29277e-84
-4.75201e-86
-4.89974e-87
-1.36972e-81
-1.56555e-74
3.75795e-69
-2.99227e-58
-1.20595e-54
-1.58872e-54
-1.01359e-54
-4.14414e-55
-1.2132e-55
-2.69501e-56
-4.70404e-57
-6.59849e-58
-7.55318e-59
-7.1316e-60
-5.59653e-61
-3.66993e-62
-2.01841e-63
-3.79025e-68
-1.30583e-67
-5.99806e-68
-1.40296e-68
-2.29216e-69
-2.85975e-70
-2.94618e-71
-2.62849e-72
-2.09644e-73
-1.47851e-74
-9.36967e-76
-5.39683e-77
-2.84463e-78
-1.38014e-79
-6.17078e-81
-2.55077e-82
-9.79768e-84
-3.50676e-85
-1.17061e-86
-3.60909e-88
-8.45464e-75
7.19436e-68
-2.63684e-57
-8.01923e-54
-1.08554e-53
-7.12397e-54
-2.99879e-54
-9.04527e-55
-2.07153e-55
-3.72955e-56
-5.39824e-57
-6.37807e-58
-6.21717e-59
-5.03775e-60
-3.41134e-61
-1.93747e-62
-5.54494e-67
-1.65637e-66
-6.8782e-67
-1.50172e-67
-2.32257e-68
-2.77016e-69
-2.75024e-70
-2.36677e-71
-1.82857e-72
-1.25563e-73
-7.73539e-75
-4.33482e-76
-2.22148e-77
-1.04787e-78
-4.54996e-80
-1.82341e-81
-6.78637e-83
-2.35212e-84
-7.60335e-86
-2.26251e-87
-4.65607e-89
6.10445e-67
-2.18682e-56
-5.06107e-53
-7.04599e-53
-4.76086e-53
-2.06521e-53
-6.42414e-54
-1.51816e-54
-2.82175e-55
-4.21799e-56
-5.14809e-57
-5.1848e-58
-4.34118e-59
-3.03772e-60
-1.7828e-61
-7.56506e-66
-1.96685e-65
-7.39776e-66
-1.50842e-66
-2.20799e-67
-2.51855e-68
-2.40953e-69
-2.00092e-70
-1.49811e-71
-9.96624e-73
-5.955e-74
-3.2339e-75
-1.60393e-76
-7.31812e-78
-3.06917e-79
-1.18467e-80
-4.24035e-82
-1.41143e-83
-4.37912e-85
-1.24193e-86
-1.72354e-88
4.58539e-66
-1.70159e-55
-3.02561e-52
-4.33627e-52
-3.0196e-52
-1.35117e-52
-4.33864e-53
-1.05902e-53
-2.03395e-54
-3.14271e-55
-3.96569e-56
-4.12991e-57
-3.57589e-58
-2.58756e-59
-1.57032e-60
-9.5985e-65
-2.18091e-64
-7.44351e-65
-1.41826e-65
-1.96683e-66
-2.14207e-67
-1.97227e-68
-1.58005e-69
-1.14318e-70
-7.35137e-72
-4.2413e-73
-2.22057e-74
-1.06006e-75
-4.64448e-77
-1.86717e-78
-6.87879e-80
-2.34133e-81
-7.39079e-83
-2.16714e-84
-5.70849e-86
-1.16177e-98
3.2106e-65
-1.23795e-54
-1.70975e-51
-2.52512e-51
-1.81408e-51
-8.38191e-52
-2.78117e-52
-7.01875e-53
-1.39431e-53
-2.22899e-54
-2.91064e-55
-3.13704e-56
-2.81113e-57
-2.10517e-58
-1.32201e-59
-1.12904e-63
-2.2517e-63
-6.98688e-64
-1.24426e-64
-1.63031e-65
-1.69533e-66
-1.50046e-67
-1.15704e-68
-8.07829e-70
-5.00838e-71
-2.77348e-72
-1.39056e-73
-6.33566e-75
-2.63658e-76
-1.00302e-77
-3.47609e-79
-1.10278e-80
-3.2316e-82
-8.64274e-84
-1.93318e-85
-6.00409e-95
2.10028e-64
-8.3878e-54
-9.11193e-51
-1.38828e-50
-1.0301e-50
-4.92012e-51
-1.68879e-51
-4.41118e-52
-9.07331e-53
-1.50222e-53
-2.03187e-54
-2.26845e-55
-2.10563e-56
-1.63319e-57
-1.06209e-58
-1.22731e-62
-2.1576e-62
-6.09952e-63
-1.01491e-63
-1.25724e-64
-1.24722e-65
-1.05921e-66
-7.87447e-68
-5.285e-69
-3.13617e-70
-1.65416e-71
-7.86374e-73
-3.37623e-74
-1.31099e-75
-4.59802e-77
-1.45312e-78
-4.11686e-80
-1.06309e-81
-2.27992e-83
-4.88898e-86
-3.97718e-91
1.28321e-63
-5.26859e-53
-4.56836e-50
-7.189e-50
-5.51594e-50
-2.72676e-50
-9.69325e-51
-2.62359e-51
-5.5937e-52
-9.60168e-53
-1.34657e-53
-1.55878e-54
-1.50013e-55
-1.20614e-56
-8.12919e-58
-1.22836e-61
-1.91281e-61
-4.93606e-62
-7.67033e-63
-8.96827e-64
-8.46769e-65
-6.86751e-66
-4.89904e-67
-3.13549e-68
-1.77007e-69
-8.79557e-71
-3.90966e-72
-1.55122e-73
-5.463e-75
-1.66626e-76
-4.26308e-78
-9.69867e-80
-1.41914e-81
-3.50003e-93
-1.21128e-92
2.78468e-84
7.31955e-63
-3.05116e-52
-2.14867e-49
-3.49707e-49
-2.77838e-49
-1.42337e-49
-5.24707e-50
-1.47342e-50
-3.26013e-51
-5.80837e-52
-8.45525e-53
-1.0159e-53
-1.01462e-54
-8.46425e-56
-5.91736e-57
-1.12763e-60
-1.56378e-60
-3.6856e-61
-5.34363e-62
-5.8638e-63
-5.26055e-64
-4.06957e-65
-2.76516e-66
-1.68773e-67
-8.9117e-69
-4.11026e-70
-1.66332e-71
-5.80204e-73
-1.7334e-74
-3.84226e-76
2.46405e-101
2.46108e-82
4.23989e-82
5.53229e-82
2.78468e-84
1.40885e-80
3.89352e-62
-1.61826e-51
-9.45072e-49
-1.59334e-48
-1.31279e-48
-6.97999e-49
-2.67201e-49
-7.795e-50
-1.79218e-50
-3.31812e-51
-5.01943e-52
-6.2665e-53
-6.50199e-54
-5.63335e-55
-4.08876e-56
-9.44793e-60
-1.17298e-59
-2.52567e-60
-3.40929e-61
-3.50898e-62
-2.97431e-63
-2.18035e-64
-1.39596e-65
-7.95736e-67
-3.85602e-68
-1.60199e-69
-5.54084e-71
-1.42981e-72
-2.21107e-74
-2.48699e-97
1.25198e-77
7.86354e-78
5.30393e-78
2.59527e-78
1.40885e-80
1.94781e-72
1.92514e-61
-7.79346e-51
-3.87295e-48
-6.7768e-48
-5.80084e-48
-3.20633e-48
-1.2766e-48
-3.87478e-49
-9.2695e-50
-1.78572e-50
-2.81059e-51
-3.6503e-52
-3.9392e-53
-3.54832e-54
-2.67646e-55
-7.18866e-59
-8.03554e-59
-1.58059e-59
-1.9811e-60
-1.90134e-61
-1.51603e-62
-1.04742e-63
-6.27762e-65
-3.27018e-66
-1.39975e-67
-4.80169e-69
-1.15201e-70
1.86172e-94
8.01036e-75
4.89762e-74
9.14413e-74
3.49416e-74
2.32465e-74
1.14564e-74
6.98409e-77
9.41001e-68
8.76519e-61
-3.36969e-50
-1.47224e-47
-2.68009e-47
-2.38862e-47
-1.37525e-47
-5.70519e-48
-1.80466e-48
-4.49861e-49
-9.02944e-50
-1.48058e-50
-2.00299e-51
-2.25087e-52
-2.11038e-53
-1.65608e-54
-4.93621e-58
-4.99932e-58
-8.96922e-59
-1.03891e-59
-9.23238e-61
-6.8687e-62
-4.41772e-63
-2.41387e-64
-1.08947e-65
-3.59071e-67
-6.57526e-69
-4.89753e-87
2.34256e-71
9.20747e-71
2.16986e-70
4.01931e-70
1.53978e-70
9.97898e-71
5.13733e-71
1.31174e-71
1.37729e-66
3.5815e-60
-1.28743e-49
-5.16262e-47
-9.80901e-47
-9.12772e-47
-5.4874e-47
-2.37696e-47
-7.85074e-48
-2.04234e-48
-4.27693e-49
-7.31623e-50
-1.03241e-50
-1.20978e-51
-1.18213e-52
-9.66265e-54
-3.03643e-57
-2.80555e-57
-4.57737e-58
-4.86135e-59
-3.95772e-60
-2.71678e-61
-1.59239e-62
-7.4557e-64
-2.40608e-65
-8.03246e-89
7.56388e-70
2.44405e-68
1.05176e-67
3.89071e-67
9.16323e-67
1.69994e-66
6.55296e-67
4.30062e-67
2.221e-67
1.2321e-66
1.4109e-65
1.26773e-59
-4.24374e-49
-1.65803e-46
-3.30272e-46
-3.22077e-46
-2.02808e-46
-9.19695e-47
-3.17888e-47
-8.64359e-48
-1.89108e-48
-3.37968e-49
-4.9822e-50
-6.09721e-51
-6.21826e-52
-5.30167e-53
-1.65841e-56