/*--------------------------------*- C++ -*----------------------------------*\
| =========                 |                                                 |
| \\      /  F ield         | OpenFOAM: The Open Source CFD Toolbox           |
|  \\    /   O peration     | Version:  v2012                                 |
|   \\  /    A nd           | Website:  www.openfoam.com                      |
|    \\/     M anipulation  |                                                 |
\*---------------------------------------------------------------------------*/
FoamFile
{
    version     2.0;
    format      ascii;
    class       volVectorField;
    location    "0.4";
    object      U;
}
// * * * * * * * * * * * * * * * * * * * * * * * * * * * * * * * * * * * * * //

dimensions      [0 1 -1 0 0 0 0];


internalField   nonuniform List<vector> 
2625
(
(5.80115e-06 -0.00235931 -5.06261e-08)
(1.62876e-05 -0.00262133 -1.42164e-07)
(2.46215e-05 -0.00281774 -2.15129e-07)
(3.77952e-05 -0.00298683 -3.29539e-07)
(4.87477e-05 -0.00311108 -4.2595e-07)
(6.2462e-05 -0.00323463 -5.4561e-07)
(7.5161e-05 -0.00332546 -6.56346e-07)
(9.04884e-05 -0.00342111 -7.90376e-07)
(0.000105811 -0.00349281 -9.23933e-07)
(0.000121969 -0.0035678 -1.06511e-06)
(0.000139831 -0.00362576 -1.22074e-06)
(0.000157014 -0.00368329 -1.37057e-06)
(0.000175412 -0.00372951 -1.531e-06)
(0.000193942 -0.0037733 -1.69276e-06)
(0.000213762 -0.00380851 -1.8656e-06)
(0.000233643 -0.00383964 -2.03915e-06)
(0.000254367 -0.00386381 -2.21991e-06)
(0.00027524 -0.00388288 -2.40208e-06)
(0.000296527 -0.00389584 -2.58781e-06)
(0.00031805 -0.0039031 -2.77565e-06)
(0.000339585 -0.00390421 -2.96356e-06)
(0.000360993 -0.0038994 -3.1504e-06)
(0.000382153 -0.00388836 -3.33508e-06)
(0.000402916 -0.00387107 -3.5163e-06)
(0.000423095 -0.00384741 -3.69243e-06)
(0.000442576 -0.00381729 -3.86248e-06)
(0.000461172 -0.00378059 -4.0248e-06)
(0.000478726 -0.00373724 -4.17805e-06)
(0.000495048 -0.00368714 -4.32054e-06)
(0.000509951 -0.00363026 -4.45067e-06)
(0.000523243 -0.00356665 -4.56674e-06)
(0.000534749 -0.00349638 -4.66721e-06)
(0.000544293 -0.00341959 -4.75057e-06)
(0.000551726 -0.00333641 -4.81551e-06)
(0.000556883 -0.00324697 -4.86059e-06)
(0.0005596 -0.00315148 -4.88437e-06)
(4.98697e-06 -0.00243048 -4.35385e-08)
(2.3151e-05 -0.00269454 -2.0212e-07)
(2.75247e-05 -0.00289159 -2.40195e-07)
(4.92593e-05 -0.00306284 -4.30184e-07)
(5.6003e-05 -0.00318802 -4.87756e-07)
(7.59393e-05 -0.00331106 -6.63085e-07)
(8.65579e-05 -0.00340457 -7.55755e-07)
(0.000104393 -0.00349806 -9.11273e-07)
(0.000119374 -0.00357134 -1.04233e-06)
(0.000136714 -0.00364465 -1.1935e-06)
(0.00015497 -0.0037028 -1.3529e-06)
(0.000172092 -0.00375945 -1.50206e-06)
(0.000190637 -0.0038054 -1.66395e-06)
(0.000208451 -0.00384814 -1.81929e-06)
(0.000228116 -0.00388268 -1.99095e-06)
(0.000247167 -0.00391271 -2.15713e-06)
(0.000267567 -0.00393566 -2.33518e-06)
(0.000287594 -0.00395319 -2.5099e-06)
(0.000308373 -0.0039642 -2.69123e-06)
(0.000329105 -0.00396932 -2.87213e-06)
(0.000349971 -0.0039683 -3.05423e-06)
(0.000370646 -0.00396119 -3.23466e-06)
(0.00039124 -0.00394774 -3.41439e-06)
(0.000411398 -0.00392789 -3.59032e-06)
(0.000431056 -0.00390152 -3.7619e-06)
(0.000450028 -0.00386858 -3.9275e-06)
(0.000468193 -0.00382895 -4.08605e-06)
(0.000485342 -0.00378259 -4.23575e-06)
(0.000501309 -0.00372944 -4.37514e-06)
(0.000515862 -0.00366948 -4.5022e-06)
(0.000528817 -0.00360276 -4.61532e-06)
(0.000539979 -0.00352936 -4.71277e-06)
(0.000549191 -0.00344942 -4.79322e-06)
(0.000556315 -0.00336308 -4.85545e-06)
(0.00056119 -0.00327052 -4.89805e-06)
(0.000563631 -0.00317197 -4.91941e-06)
(3.06704e-06 -0.00244798 -2.67564e-08)
(2.46652e-05 -0.00271221 -2.15207e-07)
(2.10764e-05 -0.00290993 -1.83134e-07)
(5.15163e-05 -0.00308032 -4.50193e-07)
(4.80648e-05 -0.00320579 -4.2056e-07)
(7.78047e-05 -0.00332953 -6.78653e-07)
(8.08043e-05 -0.00342455 -7.04617e-07)
(0.000104496 -0.00351948 -9.12642e-07)
(0.000115941 -0.00359434 -1.01196e-06)
(0.000135026 -0.00366848 -1.17879e-06)
(0.000152921 -0.00372832 -1.33481e-06)
(0.000170775 -0.00378579 -1.49075e-06)
(0.000190107 -0.00383317 -1.65921e-06)
(0.000208782 -0.0038768 -1.8222e-06)
(0.00022957 -0.00391244 -2.00352e-06)
(0.000249606 -0.0039433 -2.17844e-06)
(0.000271155 -0.0039671 -2.36642e-06)
(0.000292145 -0.00398528 -2.54963e-06)
(0.000313748 -0.00399686 -2.73811e-06)
(0.000334994 -0.00400249 -2.92354e-06)
(0.000356215 -0.00400177 -3.10872e-06)
(0.000377297 -0.00399475 -3.29272e-06)
(0.000398208 -0.00398124 -3.47522e-06)
(0.000418674 -0.00396116 -3.65385e-06)
(0.000438535 -0.00393436 -3.8272e-06)
(0.000457678 -0.00390078 -3.9943e-06)
(0.000475934 -0.00386033 -4.15366e-06)
(0.000493149 -0.00381295 -4.30394e-06)
(0.000509126 -0.00375861 -4.44341e-06)
(0.000523656 -0.00369731 -4.57028e-06)
(0.000536533 -0.00362908 -4.68271e-06)
(0.000547568 -0.00355402 -4.77906e-06)
(0.000556605 -0.00347225 -4.85799e-06)
(0.000563528 -0.00338396 -4.91846e-06)
(0.000568178 -0.00328935 -4.95909e-06)
(0.00057036 -0.00318868 -4.97819e-06)
(3.72534e-06 -0.00251378 -3.2609e-08)
(2.84976e-05 -0.00277751 -2.48699e-07)
(2.51334e-05 -0.00298014 -2.18752e-07)
(5.83699e-05 -0.00314756 -5.10017e-07)
(5.55522e-05 -0.0032771 -4.84794e-07)
(8.70824e-05 -0.00339958 -7.5924e-07)
(9.06617e-05 -0.00349175 -7.90353e-07)
(0.000115702 -0.003586 -1.0103e-06)
(0.000128817 -0.00365883 -1.12448e-06)
(0.000148707 -0.00373111 -1.29797e-06)
(0.000166858 -0.00379084 -1.45651e-06)
(0.000184772 -0.00384656 -1.61272e-06)
(0.000203877 -0.00389356 -1.77941e-06)
(0.000222237 -0.00393548 -1.93947e-06)
(0.000242872 -0.00397006 -2.11965e-06)
(0.000262455 -0.00399931 -2.29046e-06)
(0.000283981 -0.00402169 -2.47838e-06)
(0.000304606 -0.0040382 -2.65832e-06)
(0.000326044 -0.00404825 -2.84542e-06)
(0.000346981 -0.00405226 -3.02812e-06)
(0.000368141 -0.00404976 -3.21279e-06)
(0.000389022 -0.00404087 -3.39503e-06)
(0.000409822 -0.00402544 -3.57656e-06)
(0.00043015 -0.00400343 -3.75399e-06)
(0.000449949 -0.00397467 -3.92681e-06)
(0.000469003 -0.00393909 -4.09312e-06)
(0.000487192 -0.00389661 -4.25189e-06)
(0.000504315 -0.00384715 -4.40137e-06)
(0.000520194 -0.0037907 -4.54e-06)
(0.000534599 -0.00372724 -4.66577e-06)
(0.000547323 -0.00365681 -4.77687e-06)
(0.00055816 -0.00357952 -4.8715e-06)
(0.000566961 -0.00349547 -4.94836e-06)
(0.000573606 -0.00340488 -5.00641e-06)
(0.000577941 -0.00330795 -5.04431e-06)
(0.000579767 -0.00320499 -5.0603e-06)
(2.89411e-06 -0.00254471 -2.53309e-08)
(2.84239e-05 -0.00280926 -2.4808e-07)
(2.24973e-05 -0.00301226 -1.95727e-07)
(5.76421e-05 -0.00317827 -5.03653e-07)
(5.16686e-05 -0.00330982 -4.5096e-07)
(8.67537e-05 -0.0034316 -7.56038e-07)
(8.7889e-05 -0.00352838 -7.6622e-07)
(0.00011491 -0.00362327 -1.00247e-06)
(0.000126667 -0.00369953 -1.10543e-06)
(0.000148161 -0.00377217 -1.29311e-06)
(0.00016618 -0.00383394 -1.45009e-06)
(0.000186131 -0.00388918 -1.62456e-06)
(0.000206308 -0.00393717 -1.80041e-06)
(0.000226417 -0.00397876 -1.97596e-06)
(0.000248198 -0.00401382 -2.16595e-06)
(0.000269154 -0.00404293 -2.34895e-06)
(0.000291974 -0.00406547 -2.54804e-06)
(0.000313685 -0.00408189 -2.73757e-06)
(0.000335991 -0.00409183 -2.9322e-06)
(0.000357741 -0.00409546 -3.12204e-06)
(0.00037957 -0.00409246 -3.31253e-06)
(0.000401015 -0.00408286 -3.49971e-06)
(0.000422226 -0.00406653 -3.68483e-06)
(0.000442929 -0.0040434 -3.86553e-06)
(0.000463005 -0.00401335 -4.04077e-06)
(0.000482295 -0.00397632 -4.20915e-06)
(0.000500637 -0.00393224 -4.36926e-06)
(0.000517867 -0.00388104 -4.51967e-06)
(0.00053378 -0.00382271 -4.65859e-06)
(0.000548164 -0.00375726 -4.78418e-06)
(0.000560793 -0.00368474 -4.89445e-06)
(0.00057147 -0.00360526 -4.98768e-06)
(0.000580037 -0.00351897 -5.0625e-06)
(0.000586382 -0.00342606 -5.11793e-06)
(0.000590351 -0.00332679 -5.15263e-06)
(0.000591748 -0.00322148 -5.16488e-06)
(3.61038e-06 -0.00260633 -3.15371e-08)
(3.07404e-05 -0.00286963 -2.68233e-07)
(2.64353e-05 -0.00307768 -2.29628e-07)
(6.51244e-05 -0.00324101 -5.68376e-07)
(6.13463e-05 -0.0033753 -5.35748e-07)
(9.98561e-05 -0.00349666 -8.69768e-07)
(0.000101953 -0.00358965 -8.88751e-07)
(0.000131059 -0.00368212 -1.14297e-06)
(0.000141773 -0.00375745 -1.23422e-06)
(0.000164573 -0.00382696 -1.43639e-06)
(0.000180807 -0.00389147 -1.57788e-06)
(0.000201605 -0.0039444 -1.75913e-06)
(0.000220352 -0.00399322 -1.92307e-06)
(0.000240672 -0.00403365 -2.10013e-06)
(0.000261813 -0.00406833 -2.2848e-06)
(0.000282804 -0.004096 -2.46793e-06)
(0.000305572 -0.00411759 -2.66673e-06)
(0.000327388 -0.0041328 -2.85708e-06)
(0.000349929 -0.00414153 -3.05383e-06)
(0.000371924 -0.00414383 -3.24578e-06)
(0.000394121 -0.00413948 -3.43952e-06)
(0.000415857 -0.00412844 -3.62922e-06)
(0.0004374 -0.00411056 -3.81726e-06)
(0.000458363 -0.00408578 -4.00023e-06)
(0.000478702 -0.00405399 -4.17776e-06)
(0.000498186 -0.00401513 -4.34784e-06)
(0.000516698 -0.00396913 -4.50944e-06)
(0.000534033 -0.00391593 -4.66077e-06)
(0.000550003 -0.00385552 -4.80019e-06)
(0.00056437 -0.00378792 -4.92564e-06)
(0.000576914 -0.00371317 -5.03517e-06)
(0.00058742 -0.00363139 -5.1269e-06)
(0.000595737 -0.00354275 -5.19954e-06)
(0.000601744 -0.00344746 -5.25203e-06)
(0.000605294 -0.00334578 -5.28307e-06)
(0.000606193 -0.00323805 -5.29097e-06)
(5.04123e-06 -0.00264709 -4.40045e-08)
(2.81882e-05 -0.00291275 -2.45977e-07)
(2.80477e-05 -0.00312577 -2.45061e-07)
(5.91269e-05 -0.00328978 -5.15882e-07)
(5.59135e-05 -0.00342721 -4.88233e-07)
(9.07172e-05 -0.00354757 -7.93664e-07)
(8.86257e-05 -0.00364319 -7.7273e-07)
(0.000125638 -0.00373391 -1.10051e-06)
(0.00013069 -0.00381096 -1.14486e-06)
(0.000162852 -0.00387883 -1.41834e-06)
(0.000177512 -0.00394425 -1.54803e-06)
(0.000204341 -0.00399604 -1.78385e-06)
(0.000223294 -0.00404528 -1.94817e-06)
(0.000247078 -0.00408515 -2.15613e-06)
(0.000269908 -0.0041198 -2.35529e-06)
(0.000292907 -0.00414665 -2.55612e-06)
(0.000316757 -0.00416786 -2.76426e-06)
(0.000339941 -0.00418241 -2.96665e-06)
(0.000363537 -0.00419047 -3.17256e-06)
(0.000386509 -0.0041919 -3.37307e-06)
(0.000409532 -0.00418658 -3.57401e-06)
(0.000432046 -0.00417437 -3.77051e-06)
(0.000454217 -0.00415518 -3.96403e-06)
(0.000475731 -0.0041289 -4.15181e-06)
(0.000496498 -0.00409547 -4.33309e-06)
(0.000516341 -0.00405482 -4.5063e-06)
(0.000535115 -0.00400688 -4.67018e-06)
(0.000552645 -0.00395164 -4.82322e-06)
(0.000568719 -0.00388908 -4.96355e-06)
(0.000583113 -0.00381922 -5.08923e-06)
(0.000595583 -0.00374215 -5.19812e-06)
(0.00060592 -0.00365798 -5.28838e-06)
(0.000613964 -0.00356689 -5.35864e-06)
(0.000619599 -0.00346912 -5.40788e-06)
(0.000622676 -0.00336495 -5.43479e-06)
(0.000623007 -0.00325472 -5.43774e-06)
(6.48127e-06 -0.00270753 -5.65392e-08)
(2.87273e-05 -0.00297104 -2.50636e-07)
(3.27264e-05 -0.00318191 -2.85618e-07)
(6.53951e-05 -0.00333695 -5.69851e-07)
(6.67251e-05 -0.00348167 -5.82793e-07)
(0.00010316 -0.00359227 -9.01701e-07)
(0.000103592 -0.00369968 -9.02989e-07)
(0.000141962 -0.00378655 -1.24273e-06)
(0.000146261 -0.00386953 -1.27757e-06)
(0.000179696 -0.0039369 -1.56551e-06)
(0.000192286 -0.00400235 -1.67703e-06)
(0.000220357 -0.00405411 -1.92323e-06)
(0.00023751 -0.00410326 -2.07229e-06)
(0.000262187 -0.00414186 -2.28784e-06)
(0.000284874 -0.004176 -2.4859e-06)
(0.000308428 -0.00420188 -2.69148e-06)
(0.000332116 -0.00422221 -2.8983e-06)
(0.000355806 -0.0042356 -3.10506e-06)
(0.00037992 -0.00424255 -3.31554e-06)
(0.000403518 -0.00424268 -3.5215e-06)
(0.000427243 -0.00423601 -3.72858e-06)
(0.000450416 -0.00422235 -3.93084e-06)
(0.000473229 -0.00420161 -4.12996e-06)
(0.000495301 -0.00417366 -4.32262e-06)
(0.000516576 -0.00413841 -4.50833e-06)
(0.000536825 -0.00409581 -4.68508e-06)
(0.000555928 -0.00404581 -4.85185e-06)
(0.000573688 -0.00398839 -5.00689e-06)
(0.000589905 -0.00392354 -5.14847e-06)
(0.000604337 -0.00385131 -5.27449e-06)
(0.000616742 -0.00377179 -5.38281e-06)
(0.000626896 -0.00368511 -5.47147e-06)
(0.000634644 -0.00359147 -5.53915e-06)
(0.000639865 -0.00349111 -5.58478e-06)
(0.000642415 -0.00338434 -5.60709e-06)
(0.000642107 -0.00327152 -5.60446e-06)
(7.95991e-06 -0.00275622 -6.96009e-08)
(2.6434e-05 -0.00302412 -2.30898e-07)
(3.46539e-05 -0.00324529 -3.01877e-07)
(6.39369e-05 -0.00340543 -5.58267e-07)
(6.61135e-05 -0.00355027 -5.7727e-07)
(0.000103938 -0.00366177 -9.0803e-07)
(0.000103981 -0.00376733 -9.06976e-07)
(0.000143323 -0.00385161 -1.25347e-06)
(0.000147534 -0.00393291 -1.28879e-06)
(0.000182773 -0.00399787 -1.59204e-06)
(0.000195203 -0.00406234 -1.7022e-06)
(0.000226387 -0.00411319 -1.97571e-06)
(0.000244831 -0.00416171 -2.13613e-06)
(0.000272362 -0.00419922 -2.37657e-06)
(0.000295944 -0.00423288 -2.58247e-06)
(0.000321549 -0.00425824 -2.80596e-06)
(0.00034638 -0.00427793 -3.02276e-06)
(0.000371583 -0.0042903 -3.24275e-06)
(0.000396854 -0.00429622 -3.46332e-06)
(0.00042161 -0.00429509 -3.67939e-06)
(0.000446293 -0.00428708 -3.89484e-06)
(0.000470419 -0.00427192 -4.10542e-06)
(0.000494056 -0.00424957 -4.31174e-06)
(0.000516881 -0.00421987 -4.51098e-06)
(0.000538776 -0.00418275 -4.7021e-06)
(0.000559547 -0.00413812 -4.88342e-06)
(0.000579049 -0.00408595 -5.05365e-06)
(0.000597102 -0.00402624 -5.21126e-06)
(0.000613494 -0.00395899 -5.35437e-06)
(0.000627987 -0.00388427 -5.48093e-06)
(0.000640326 -0.00380217 -5.58867e-06)
(0.000650288 -0.00371285 -5.67566e-06)
(0.000657711 -0.00361653 -5.74049e-06)
(0.000662475 -0.00351346 -5.78214e-06)
(0.00066444 -0.00340398 -5.79934e-06)
(0.000663422 -0.00328846 -5.79052e-06)
(1.33668e-05 -0.0028184 -1.16712e-07)
(2.16554e-05 -0.00308077 -1.89129e-07)
(4.40994e-05 -0.00330095 -3.85429e-07)
(6.03843e-05 -0.00345132 -5.26229e-07)
(7.76286e-05 -0.00360204 -6.80779e-07)
(0.000106334 -0.00371154 -9.28728e-07)
(0.000116175 -0.00382032 -1.01296e-06)
(0.000151707 -0.0039065 -1.32748e-06)
(0.000160459 -0.00399174 -1.40119e-06)
(0.000195241 -0.00405834 -1.70119e-06)
(0.000208529 -0.00412434 -1.81822e-06)
(0.000240807 -0.00417508 -2.10164e-06)
(0.000259792 -0.00422319 -2.26658e-06)
(0.000288347 -0.00426032 -2.51614e-06)
(0.000311901 -0.00429342 -2.72167e-06)
(0.00033847 -0.00431791 -2.95367e-06)
(0.000363999 -0.00433676 -3.17649e-06)
(0.000390173 -0.00434785 -3.405e-06)
(0.000416226 -0.00435257 -3.63237e-06)
(0.000441923 -0.00435 -3.85669e-06)
(0.00046751 -0.00434045 -4.08001e-06)
(0.000492504 -0.0043236 -4.29818e-06)
(0.00051697 -0.00429946 -4.51173e-06)
(0.000540558 -0.00426786 -4.71763e-06)
(0.000563142 -0.0042287 -4.91477e-06)
(0.00058449 -0.00418191 -5.10113e-06)
(0.000604459 -0.00412745 -5.27545e-06)
(0.000622849 -0.00406532 -5.43599e-06)
(0.000639452 -0.00399553 -5.58095e-06)
(0.000654019 -0.00391817 -5.70814e-06)
(0.000666293 -0.00383336 -5.81532e-06)
(0.000676044 -0.00374127 -5.90047e-06)
(0.000683109 -0.00364212 -5.96219e-06)
(0.00068737 -0.00353621 -5.99944e-06)
(0.000688689 -0.00342389 -6.01101e-06)
(0.000686884 -0.00330556 -5.99532e-06)
(1.76162e-05 -0.00287403 -1.53871e-07)
(1.57382e-05 -0.00314406 -1.3743e-07)
(5.82389e-05 -0.00337144 -5.09739e-07)
(5.1446e-05 -0.00352577 -4.46809e-07)
(9.26824e-05 -0.00368224 -8.08298e-07)
(9.78606e-05 -0.00378857 -8.56592e-07)
(0.000127432 -0.00389794 -1.11286e-06)
(0.000150342 -0.00397944 -1.31454e-06)
(0.000168139 -0.00406308 -1.46885e-06)
(0.000200769 -0.00412648 -1.74901e-06)
(0.000217908 -0.00419079 -1.90019e-06)
(0.000251969 -0.00424024 -2.19876e-06)
(0.000271856 -0.00428725 -2.37198e-06)
(0.00030172 -0.00432395 -2.63271e-06)
(0.000326207 -0.00435628 -2.84665e-06)
(0.000354598 -0.00437996 -3.09434e-06)
(0.000381421 -0.00439788 -3.32862e-06)
(0.000409288 -0.00440785 -3.57179e-06)
(0.000436511 -0.00441134 -3.80946e-06)
(0.000463598 -0.00440726 -4.04584e-06)
(0.000490296 -0.00439609 -4.2789e-06)
(0.000516381 -0.00437745 -4.50658e-06)
(0.000541792 -0.00435142 -4.7284e-06)
(0.000566272 -0.00431777 -4.94208e-06)
(0.000589622 -0.00427644 -5.1459e-06)
(0.000611634 -0.00422734 -5.33805e-06)
(0.000632125 -0.00417043 -5.51693e-06)
(0.000650903 -0.00410572 -5.68086e-06)
(0.000667743 -0.00403325 -5.82789e-06)
(0.000682398 -0.0039531 -5.95585e-06)
(0.000694601 -0.00386543 -6.06241e-06)
(0.000704121 -0.0037704 -6.14554e-06)
(0.000710792 -0.00366829 -6.20383e-06)
(0.0007145 -0.0035594 -6.23625e-06)
(0.000715107 -0.0034441 -6.24161e-06)
(0.000712438 -0.00332282 -6.21838e-06)
(1.92056e-05 -0.00293938 -1.67401e-07)
(1.53574e-05 -0.00321034 -1.34109e-07)
(6.12962e-05 -0.00342661 -5.36307e-07)
(5.45374e-05 -0.00358405 -4.73625e-07)
(9.89461e-05 -0.00373548 -8.65743e-07)
(0.000104452 -0.00383933 -9.14808e-07)
(0.00013669 -0.00396073 -1.19431e-06)
(0.000158895 -0.0040385 -1.3896e-06)
(0.000179187 -0.0041305 -1.56503e-06)
(0.000211653 -0.00419347 -1.84435e-06)
(0.000230408 -0.00425879 -2.00934e-06)
(0.000265161 -0.00430901 -2.31426e-06)
(0.000286798 -0.00435579 -2.50231e-06)
(0.000317723 -0.00439166 -2.77268e-06)
(0.000343654 -0.00442298 -2.99881e-06)
(0.000373362 -0.00444557 -3.2583e-06)
(0.000401515 -0.00446223 -3.50391e-06)
(0.000430676 -0.00447096 -3.75856e-06)
(0.000459092 -0.004473 -4.00651e-06)
(0.000487434 -0.00446727 -4.25393e-06)
(0.000515219 -0.00445432 -4.49643e-06)
(0.000542339 -0.00443377 -4.73317e-06)
(0.00056872 -0.00440567 -4.96343e-06)
(0.000594106 -0.00436982 -5.18502e-06)
(0.000618276 -0.00432615 -5.39601e-06)
(0.000640991 -0.00427456 -5.59429e-06)
(0.000662054 -0.00421504 -5.77816e-06)
(0.00068125 -0.00414758 -5.94575e-06)
(0.000698351 -0.00407225 -6.09505e-06)
(0.000713098 -0.00398915 -6.22382e-06)
(0.000725222 -0.00389844 -6.3297e-06)
(0.000734485 -0.00380032 -6.41059e-06)
(0.000740724 -0.00369508 -6.46509e-06)
(0.000743822 -0.00358305 -6.49219e-06)
(0.000743649 -0.00346462 -6.49075e-06)
(0.000740033 -0.00334026 -6.45926e-06)
(2.1061e-05 -0.00300258 -1.83721e-07)
(1.41203e-05 -0.00327996 -1.23417e-07)
(6.75098e-05 -0.0035044 -5.90263e-07)
(5.41637e-05 -0.00366801 -4.7061e-07)
(0.000107595 -0.00382164 -9.41298e-07)
(0.00010606 -0.00392548 -9.29677e-07)
(0.000146006 -0.00404204 -1.27567e-06)
(0.000165822 -0.00411636 -1.45219e-06)
(0.000191049 -0.00420383 -1.66917e-06)
(0.000223589 -0.00426588 -1.9491e-06)
(0.000245141 -0.00432877 -2.13872e-06)
(0.000279541 -0.00437985 -2.43996e-06)
(0.000303441 -0.00442547 -2.64797e-06)
(0.000335236 -0.00446152 -2.92545e-06)
(0.000361736 -0.0044919 -3.15694e-06)
(0.000392975 -0.00451383 -3.42936e-06)
(0.000422267 -0.00452927 -3.68522e-06)
(0.000453077 -0.00453691 -3.95401e-06)
(0.000482915 -0.00453748 -4.21452e-06)
(0.000512826 -0.00453011 -4.47554e-06)
(0.000541831 -0.00451531 -4.72874e-06)
(0.000570179 -0.00449273 -4.97616e-06)
(0.000597636 -0.00446244 -5.21583e-06)
(0.000624042 -0.00442422 -5.44632e-06)
(0.000649097 -0.00437803 -5.66503e-06)
(0.000672579 -0.00432377 -5.87001e-06)
(0.000694252 -0.00426143 -6.05921e-06)
(0.000713898 -0.00419103 -6.23072e-06)
(0.000731272 -0.00411265 -6.38241e-06)
(0.000746112 -0.0040264 -6.51199e-06)
(0.00075814 -0.00393246 -6.61703e-06)
(0.000767117 -0.00383107 -6.69541e-06)
(0.000772874 -0.00372253 -6.74573e-06)
(0.000775303 -0.00360719 -6.76699e-06)
(0.000774275 -0.00348547 -6.75808e-06)
(0.000769626 -0.00335787 -6.71757e-06)
(2.28982e-05 -0.00307329 -1.99748e-07)
(1.45251e-05 -0.00335445 -1.26942e-07)
(6.96917e-05 -0.00356796 -6.1062e-07)
(5.13474e-05 -0.00373306 -4.47769e-07)
(0.000104107 -0.00388429 -9.10552e-07)
(9.94791e-05 -0.00398447 -8.74506e-07)
(0.000139928 -0.0041156 -1.2237e-06)
(0.000160087 -0.00419007 -1.40271e-06)
(0.000191748 -0.0042835 -1.68146e-06)
(0.000223839 -0.00434902 -1.95117e-06)
(0.00025317 -0.00440655 -2.20903e-06)
(0.000288059 -0.00445913 -2.51504e-06)
(0.000317655 -0.004502 -2.77197e-06)
(0.000350859 -0.00453839 -3.06226e-06)
(0.000380711 -0.00456678 -3.32244e-06)
(0.000413695 -0.00458742 -3.6105e-06)
(0.000444963 -0.00460079 -3.88321e-06)
(0.000477262 -0.00460682 -4.16524e-06)
(0.000508814 -0.00460558 -4.44052e-06)
(0.000540236 -0.00459627 -4.71483e-06)
(0.000570571 -0.00457942 -4.97958e-06)
(0.000600137 -0.00455464 -5.23766e-06)
(0.000628726 -0.00452196 -5.4872e-06)
(0.000656184 -0.00448118 -5.72687e-06)
(0.000682176 -0.00443226 -5.95376e-06)
(0.000706456 -0.00437511 -6.16571e-06)
(0.000728768 -0.00430974 -6.36048e-06)
(0.000748874 -0.00423619 -6.536e-06)
(0.000766523 -0.00415454 -6.6901e-06)
(0.000781443 -0.00406494 -6.82038e-06)
(0.000793352 -0.00396758 -6.92437e-06)
(0.000802001 -0.00386271 -6.99991e-06)
(0.000807226 -0.00375067 -7.04558e-06)
(0.000808918 -0.00363183 -7.06041e-06)
(0.000806955 -0.00350666 -7.04334e-06)
(0.000801178 -0.00337566 -6.99298e-06)
(1.94758e-05 -0.00314569 -1.69965e-07)
(2.1673e-05 -0.00342804 -1.89381e-07)
(6.75964e-05 -0.00363956 -5.89669e-07)
(7.0527e-05 -0.00380673 -6.15156e-07)
(0.000124272 -0.00395748 -1.08425e-06)
(0.000128445 -0.00406055 -1.11683e-06)
(0.000183179 -0.00419076 -1.59662e-06)
(0.000186912 -0.00426792 -1.62486e-06)
(0.000231359 -0.00436037 -2.01273e-06)
(0.000246467 -0.00442777 -2.15425e-06)
(0.000282493 -0.00448449 -2.46689e-06)
(0.000308561 -0.00453817 -2.69262e-06)
(0.000340444 -0.00458017 -2.97182e-06)
(0.000372251 -0.00461644 -3.24883e-06)
(0.00040392 -0.00464374 -3.52535e-06)
(0.000437885 -0.00466356 -3.82151e-06)
(0.000470208 -0.00467553 -4.10374e-06)
(0.00050352 -0.00468006 -4.39435e-06)
(0.000536589 -0.00467704 -4.68305e-06)
(0.000569597 -0.00466586 -4.97107e-06)
(0.00060122 -0.00464684 -5.24713e-06)
(0.000632141 -0.00461969 -5.51701e-06)
(0.000661957 -0.00458443 -5.77726e-06)
(0.000690564 -0.00454088 -6.02696e-06)
(0.000717547 -0.004489 -6.2625e-06)
(0.000742668 -0.00442874 -6.48179e-06)
(0.000765636 -0.00436011 -6.68229e-06)
(0.000786211 -0.00428317 -6.86191e-06)
(0.000804128 -0.00419803 -7.01833e-06)
(0.000819109 -0.00410485 -7.14916e-06)
(0.000830863 -0.00400383 -7.2518e-06)
(0.000839139 -0.00389528 -7.32407e-06)
(0.000843769 -0.00377953 -7.36455e-06)
(0.000844649 -0.00365701 -7.37229e-06)
(0.000841662 -0.00352819 -7.3463e-06)
(0.000834658 -0.00339362 -7.28523e-06)
(2.05193e-05 -0.00322266 -1.79189e-07)
(2.35148e-05 -0.00351299 -2.05644e-07)
(6.88981e-05 -0.00373521 -6.01929e-07)
(6.82716e-05 -0.00391716 -5.97344e-07)
(0.000119491 -0.00405858 -1.04238e-06)
(0.000122753 -0.00417733 -1.06922e-06)
(0.000176801 -0.00428342 -1.54231e-06)
(0.000182028 -0.00436686 -1.58252e-06)
(0.000232488 -0.00444693 -2.02901e-06)
(0.000247705 -0.00451347 -2.16473e-06)
(0.000291649 -0.0045709 -2.54716e-06)
(0.000318385 -0.00462326 -2.779e-06)
(0.000356937 -0.0046643 -3.11577e-06)
(0.000390229 -0.00469917 -3.40615e-06)
(0.000425689 -0.0047252 -3.71527e-06)
(0.000461513 -0.00474391 -4.02799e-06)
(0.000496294 -0.00475463 -4.33134e-06)
(0.000531259 -0.00475744 -4.63659e-06)
(0.000566195 -0.00475246 -4.94142e-06)
(0.000600889 -0.00473924 -5.24426e-06)
(0.000634115 -0.00471785 -5.53424e-06)
(0.000666445 -0.0046881 -5.81643e-06)
(0.000697536 -0.00465002 -6.08781e-06)
(0.000727307 -0.00460347 -6.34768e-06)
(0.000755317 -0.0045484 -6.59217e-06)
(0.000781295 -0.00448479 -6.81894e-06)
(0.000804929 -0.00441266 -7.02525e-06)
(0.000825963 -0.00433209 -7.20888e-06)
(0.000844129 -0.00424321 -7.36748e-06)
(0.000859139 -0.0041462 -7.49855e-06)
(0.000870694 -0.0040413 -7.59946e-06)
(0.000878537 -0.00392882 -7.66796e-06)
(0.000882501 -0.00380915 -7.70263e-06)
(0.000882485 -0.00368272 -7.70256e-06)
(0.000878379 -0.00355006 -7.66679e-06)
(0.000870039 -0.00341175 -7.59407e-06)
(1.93566e-05 -0.0033051 -1.68966e-07)
(2.85302e-05 -0.00359108 -2.49286e-07)
(7.13799e-05 -0.00380048 -6.2412e-07)
(7.46236e-05 -0.0039777 -6.51696e-07)
(0.000129093 -0.00412119 -1.1265e-06)
(0.000129161 -0.00424325 -1.12599e-06)
(0.000188763 -0.00435515 -1.64603e-06)
(0.000194018 -0.00444547 -1.68974e-06)
(0.000248835 -0.00452983 -2.17168e-06)
(0.000264553 -0.00459992 -2.31273e-06)
(0.000312348 -0.00465894 -2.72834e-06)
(0.000338268 -0.00471141 -2.95293e-06)
(0.000380032 -0.00475231 -3.3176e-06)
(0.000413584 -0.0047866 -3.61002e-06)
(0.00045087 -0.00481149 -3.93528e-06)
(0.000487959 -0.00482895 -4.25876e-06)
(0.000524507 -0.00483809 -4.57772e-06)
(0.000561196 -0.00483904 -4.89785e-06)
(0.000597824 -0.0048319 -5.21754e-06)
(0.000634312 -0.00481636 -5.53597e-06)
(0.000669158 -0.00479241 -5.84013e-06)
(0.000703015 -0.0047599 -6.13563e-06)
(0.000735468 -0.00471882 -6.4189e-06)
(0.000766475 -0.00466905 -6.68955e-06)
(0.000795542 -0.00461057 -6.94327e-06)
(0.000822397 -0.00454337 -7.1777e-06)
(0.000846697 -0.00446748 -7.38982e-06)
(0.000868181 -0.00438303 -7.57738e-06)
(0.000886568 -0.00429015 -7.73791e-06)
(0.000901568 -0.00418906 -7.8689e-06)
(0.000912869 -0.00408002 -7.96759e-06)
(0.000920212 -0.00396337 -8.03173e-06)
(0.000923429 -0.00383953 -8.05988e-06)
(0.000922423 -0.00370899 -8.05117e-06)
(0.00091709 -0.00357228 -8.00469e-06)
(0.000907299 -0.00343002 -7.91931e-06)
(1.58967e-05 -0.00339028 -1.38581e-07)
(3.66358e-05 -0.00369023 -3.19518e-07)
(6.91941e-05 -0.003909 -6.036e-07)
(8.80022e-05 -0.0041003 -7.69361e-07)
(0.000130957 -0.00423819 -1.14036e-06)
(0.000143705 -0.00436435 -1.25359e-06)
(0.000197036 -0.00446717 -1.71896e-06)
(0.000208623 -0.00455714 -1.81626e-06)
(0.000261713 -0.00463304 -2.28468e-06)
(0.000280128 -0.00470129 -2.44832e-06)
(0.00032935 -0.00475706 -2.87717e-06)
(0.00035675 -0.00480786 -3.1143e-06)
(0.000401552 -0.00484717 -3.50555e-06)
(0.00043678 -0.00488032 -3.81259e-06)
(0.000476885 -0.00490342 -4.16233e-06)
(0.000515726 -0.00491946 -4.5012e-06)
(0.00055465 -0.0049266 -4.8408e-06)
(0.000593236 -0.00492553 -5.17754e-06)
(0.000631755 -0.00491582 -5.51369e-06)
(0.000670031 -0.00489769 -5.84775e-06)
(0.000706603 -0.00487089 -6.16695e-06)
(0.000742004 -0.00483536 -6.47594e-06)
(0.00077587 -0.00479101 -6.77155e-06)
(0.000808145 -0.00473779 -7.05326e-06)
(0.000838306 -0.00467564 -7.31653e-06)
(0.000866049 -0.00460458 -7.55871e-06)
(0.000891014 -0.00452468 -7.77664e-06)
(0.000912926 -0.00443607 -7.96793e-06)
(0.000931502 -0.00433892 -8.13011e-06)
(0.000946439 -0.00423347 -8.26056e-06)
(0.000957424 -0.00412002 -8.35649e-06)
(0.000964187 -0.00399895 -8.41557e-06)
(0.000966564 -0.0038707 -8.43639e-06)
(0.000964463 -0.00373579 -8.41812e-06)
(0.000957788 -0.00359481 -8.35994e-06)
(0.000946419 -0.00344841 -8.26079e-06)
(1.27989e-05 -0.00348348 -1.11521e-07)
(4.56663e-05 -0.00377694 -3.98904e-07)
(5.98298e-05 -0.00398738 -5.21522e-07)
(0.000102127 -0.00417675 -8.94145e-07)
(0.000126322 -0.00430975 -1.10182e-06)
(0.000161001 -0.00444275 -1.40264e-06)
(0.000199549 -0.00454674 -1.74025e-06)
(0.000225031 -0.00464454 -1.95988e-06)
(0.000273521 -0.00472315 -2.3873e-06)
(0.000297382 -0.0047962 -2.59908e-06)
(0.000347386 -0.00485372 -3.03435e-06)
(0.000377 -0.00490583 -3.29113e-06)
(0.000424688 -0.00494526 -3.70738e-06)
(0.000462169 -0.00497761 -4.03424e-06)
(0.000504822 -0.00499953 -4.40611e-06)
(0.000545467 -0.00501401 -4.76082e-06)
(0.000586825 -0.00501923 -5.12159e-06)
(0.000627553 -0.00501613 -5.47709e-06)
(0.000668148 -0.00500395 -5.83132e-06)
(0.000708179 -0.00498316 -6.18072e-06)
(0.000746479 -0.00495334 -6.51499e-06)
(0.000783496 -0.00491456 -6.8381e-06)
(0.000818839 -0.00486671 -7.14658e-06)
(0.000852413 -0.00480977 -7.43964e-06)
(0.000883685 -0.0047437 -7.71261e-06)
(0.000912323 -0.00466852 -7.9626e-06)
(0.000937943 -0.00458433 -8.18624e-06)
(0.000960261 -0.00449128 -8.38108e-06)
(0.000978982 -0.00438958 -8.54454e-06)
(0.000993803 -0.00427948 -8.67397e-06)
(0.00100439 -0.00416134 -8.76648e-06)
(0.00101049 -0.00403557 -8.81973e-06)
(0.00101192 -0.00390265 -8.83232e-06)
(0.00100861 -0.00376313 -8.80348e-06)
(0.00100047 -0.00361765 -8.73248e-06)
(0.000987384 -0.0034669 -8.61837e-06)
(1.30117e-05 -0.00358001 -1.13729e-07)
(4.99171e-05 -0.00388072 -4.3586e-07)
(6.45517e-05 -0.00410873 -5.62619e-07)
(0.00010993 -0.00430011 -9.62539e-07)
(0.000134418 -0.00443894 -1.16981e-06)
(0.000173145 -0.00457637 -1.50848e-06)
(0.000212702 -0.0046674 -1.85423e-06)
(0.000242173 -0.00476958 -2.10895e-06)
(0.000291573 -0.00483721 -2.54472e-06)
(0.000318703 -0.00491029 -2.78496e-06)
(0.000369458 -0.00496376 -3.2267e-06)
(0.000401717 -0.0050142 -3.50653e-06)
(0.000451305 -0.00505125 -3.93967e-06)
(0.000491049 -0.00508203 -4.28604e-06)
(0.000535427 -0.0051019 -4.67331e-06)
(0.000577965 -0.00511428 -5.04431e-06)
(0.000621301 -0.0051171 -5.42257e-06)
(0.000664069 -0.00511169 -5.79572e-06)
(0.000706697 -0.00509683 -6.16781e-06)
(0.000748699 -0.00507314 -6.53435e-06)
(0.000788934 -0.00504003 -6.88556e-06)
(0.000827616 -0.00499773 -7.22316e-06)
(0.000864445 -0.00494611 -7.54464e-06)
(0.000899343 -0.00488519 -7.84925e-06)
(0.000931755 -0.00481491 -8.13218e-06)
(0.000961298 -0.00473532 -8.39005e-06)
(0.000987563 -0.00464653 -8.61934e-06)
(0.00101025 -0.00454874 -8.81744e-06)
(0.00102908 -0.00444217 -8.98178e-06)
(0.00104371 -0.00432713 -9.10959e-06)
(0.00105383 -0.004204 -9.19795e-06)
(0.00105915 -0.00407323 -9.24448e-06)
(0.00105953 -0.00393536 -9.24783e-06)
(0.00105488 -0.00379099 -9.20731e-06)
(0.00104512 -0.00364077 -9.12228e-06)
(0.00103018 -0.00348544 -8.99191e-06)
(1.27335e-05 -0.0036845 -1.11115e-07)
(5.50487e-05 -0.0039818 -4.80491e-07)
(6.43779e-05 -0.00420271 -5.61533e-07)
(0.000118872 -0.00439006 -1.04011e-06)
(0.000137535 -0.00452778 -1.19674e-06)
(0.000185004 -0.00466884 -1.61117e-06)
(0.000221018 -0.00476483 -1.92649e-06)
(0.000255811 -0.00487248 -2.2261e-06)
(0.000304967 -0.00494447 -2.66108e-06)
(0.000335059 -0.00501977 -2.92663e-06)
(0.00038739 -0.00507484 -3.38293e-06)
(0.000423567 -0.00512444 -3.6967e-06)
(0.000476236 -0.00516136 -4.15697e-06)
(0.000519073 -0.00519084 -4.53063e-06)
(0.000566895 -0.00520937 -4.94766e-06)
(0.000611765 -0.00521973 -5.33942e-06)
(0.000657681 -0.00522033 -5.73992e-06)
(0.000702673 -0.00521241 -6.13274e-06)
(0.000747751 -0.00519466 -6.52605e-06)
(0.000791802 -0.00516775 -6.91058e-06)
(0.000834039 -0.00513112 -7.2792e-06)
(0.000874418 -0.00508507 -7.63166e-06)
(0.00091281 -0.00502943 -7.96676e-06)
(0.000949062 -0.00496422 -8.2832e-06)
(0.000982626 -0.00488941 -8.57618e-06)
(0.00101307 -0.00480508 -8.84191e-06)
(0.00103996 -0.00471138 -9.07665e-06)
(0.00106299 -0.00460851 -9.27772e-06)
(0.00108185 -0.00449675 -9.44241e-06)
(0.00109622 -0.00437644 -9.56795e-06)
(0.00110577 -0.004248 -9.65132e-06)
(0.00111021 -0.00411194 -9.69015e-06)
(0.0011094 -0.00396884 -9.68313e-06)
(0.00110327 -0.00381932 -9.62971e-06)