/*--------------------------------*- C++ -*----------------------------------*\
| =========                 |                                                 |
| \\      /  F ield         | OpenFOAM: The Open Source CFD Toolbox           |
|  \\    /   O peration     | Version:  v2012                                 |
|   \\  /    A nd           | Website:  www.openfoam.com                      |
|    \\/     M anipulation  |                                                 |
\*---------------------------------------------------------------------------*/
FoamFile
{
    version     2.0;
    format      ascii;
    class       volScalarField;
    location    "0.55";
    object      alpha.water;
}
// * * * * * * * * * * * * * * * * * * * * * * * * * * * * * * * * * * * * * //

dimensions      [0 0 0 0 0 0 0];


internalField   nonuniform List<scalar> 
2642
(
-2.16815e-69
-9.15298e-71
-3.25974e-72
-9.802e-74
-2.48788e-75
-5.32867e-77
-9.61825e-79
-1.4608e-80
-1.86277e-82
-1.98729e-84
-1.76743e-86
-1.30362e-88
-7.92586e-91
-3.94148e-93
-1.58734e-95
-5.11504e-98
-1.2984e-100
-2.54382e-103
-3.74438e-106
-3.98975e-109
-2.91496e-112
-1.34079e-115
-3.32769e-119
-3.03114e-123
-1.99456e-68
-8.63814e-70
-3.1553e-71
-9.72837e-73
-2.53079e-74
-5.55329e-76
-1.02638e-77
-1.59524e-79
-2.08038e-81
-2.26823e-83
-2.06012e-85
-1.55054e-87
-9.61158e-90
-4.86907e-92
-1.99569e-94
-6.53862e-97
-1.68577e-99
-3.3506e-102
-4.99658e-105
-5.38487e-108
-3.97022e-111
-1.83627e-114
-4.54871e-118
-4.03513e-122
-1.78956e-67
-7.9593e-69
-2.98513e-70
-9.44732e-72
-2.52181e-73
-5.67549e-75
-1.07531e-76
-1.71227e-78
-2.28628e-80
-2.55036e-82
-2.36809e-84
-1.82061e-86
-1.15178e-88
-5.94894e-91
-2.48344e-93
-8.27777e-96
-2.16837e-98
-4.37237e-101
-6.6028e-104
-7.18849e-107
-5.33515e-110
-2.4692e-113
-6.04652e-117
-5.14433e-121
-1.564e-66
-7.1505e-68
-2.75624e-69
-8.96274e-71
-2.45739e-72
-5.67816e-74
-1.10399e-75
-1.80293e-77
-2.46731e-79
-2.81887e-81
-2.67856e-83
-2.10559e-85
-1.36071e-87
-7.1718e-90
-3.05168e-92
-1.03548e-94
-2.75719e-97
-5.6415e-100
-8.62565e-103
-9.47965e-106
-7.07082e-109
-3.26465e-112
-7.86065e-116
-6.38155e-120
-1.32973e-65
-6.25492e-67
-2.48023e-68
-8.2946e-70
-2.33812e-71
-5.55213e-73
-1.10882e-74
-1.85897e-76
-2.60995e-78
-3.05688e-80
-2.97542e-82
-2.39373e-84
-1.58159e-86
-8.51354e-89
-3.69528e-91
-1.27725e-93
-3.45883e-96
-7.18351e-99
-1.11207e-101
-1.23327e-104
-9.23581e-108
-4.2462e-111
-1.00249e-114
-7.74705e-119
-1.09844e-64
-5.32055e-66
-2.17212e-67
-7.47729e-69
-2.16888e-70
-5.29756e-72
-1.08771e-73
-1.87377e-75
-2.70139e-77
-3.24656e-79
-3.23988e-81
-2.6699e-83
-1.80515e-85
-9.93203e-88
-4.40079e-90
-1.55053e-92
-4.27278e-95
-9.01116e-98
-1.41276e-100
-1.58082e-103
-1.18805e-106
-5.43391e-110
-1.25647e-113
-9.23611e-118
-8.80499e-64
-4.39513e-65
-1.84885e-66
-6.5565e-68
-1.95858e-69
-4.92481e-71
-1.04048e-72
-1.8433e-74
-2.73116e-76
-3.37092e-78
-3.45191e-80
-2.9163e-82
-2.01934e-84
-1.13655e-86
-5.14477e-89
-1.84903e-91
-5.18825e-94
-1.11168e-96
-1.76572e-99
-1.99394e-102
-1.5038e-105
-6.8415e-109
-1.54954e-112
-1.08467e-116
-6.84029e-63
-3.5213e-64
-1.52745e-65
-5.5844e-67
-1.71932e-68
-4.45404e-70
-9.69046e-72
-1.76692e-73
-2.69277e-75
-3.41597e-77
-3.59238e-79
-3.11394e-81
-2.20998e-83
-1.27339e-85
-5.89323e-88
-2.16208e-90
-6.18138e-93
-1.34647e-95
-2.16781e-98
-2.47158e-101
-1.87129e-104
-8.47206e-108
-1.88159e-111
-1.25749e-115
-5.14355e-62
-2.73268e-63
-1.2232e-64
-4.61383e-66
-1.46512e-67
-3.91326e-69
-8.77403e-71
-1.6478e-72
-2.58492e-74
-3.37293e-76
-3.64556e-78
-3.24473e-80
-2.36206e-82
-1.39439e-84
-6.60256e-87
-2.47449e-89
-7.21344e-92
-1.59844e-94
-2.61026e-97
-3.00662e-100
-2.28685e-103
-1.03133e-106
-2.25018e-110
-1.44098e-114
-3.73886e-61
-2.05145e-62
-9.48231e-64
-3.69264e-65
-1.21027e-66
-3.33519e-68
-7.71183e-70
-1.49281e-71
-2.41222e-73
-3.23992e-75
-3.60159e-77
-3.2939e-79
-2.46135e-81
-1.48972e-83
-7.22246e-86
-2.76712e-88
-8.23081e-91
-1.85676e-93
-3.07772e-96
-3.58437e-99
-2.74148e-102
-1.23324e-105
-2.64965e-109
-1.63304e-113
-2.62384e-60
-1.48782e-61
-7.10624e-63
-2.85899e-64
-9.67795e-66
-2.75352e-67
-6.57041e-69
-1.31182e-70
-2.18499e-72
-3.02287e-74
-3.45843e-76
-3.25235e-78
-2.49639e-80
-1.5502e-82
-7.70068e-85
-3.01825e-87
-9.16742e-90
-2.10694e-92
-3.54786e-95
-4.18162e-98
-3.21989e-101
-1.44722e-104
-3.07038e-108
-1.83013e-112
-1.77531e-59
-1.04104e-60
-5.14146e-62
-2.13843e-63
-7.48129e-65
-2.19901e-66
-5.41853e-68
-1.11655e-69
-1.91821e-71
-2.73526e-73
-3.22286e-75
-3.11851e-77
-2.46039e-79
-1.56862e-81
-7.98946e-84
-3.20579e-86
-9.95006e-89
-2.33166e-91
-3.99211e-94
-4.76677e-97
-3.70013e-100
-1.66478e-103
-3.49813e-107
-2.027e-111
-1.1565e-58
-7.01805e-60
-3.58635e-61
-1.54307e-62
-5.58285e-64
-1.69641e-65
-4.31923e-67
-9.19152e-69
-1.62973e-70
-2.39674e-72
-2.91015e-74
-2.89921e-76
-2.35263e-78
-1.54094e-80
-8.05259e-83
-3.31014e-85
-1.05064e-87
-2.51233e-90
-4.37757e-93
-5.30122e-96
-4.15415e-99
-1.87473e-102
-3.91382e-106
-2.21639e-110
-7.24313e-58
-4.55168e-59
-2.40836e-60
-1.07266e-61
-4.01612e-63
-1.26235e-64
-3.32312e-66
-7.3076e-68
-1.33806e-69
-2.03068e-71
-2.5424e-73
-2.60932e-75
-2.17912e-77
-1.46723e-79
-7.8719e-82
-3.31723e-84
-1.0775e-86
-2.6313e-89
-4.67035e-92
-5.74253e-95
-4.54949e-98
-2.06365e-101
-4.29399e-105
-2.38908e-109
-4.35459e-57
-2.83583e-58
-1.55471e-59
-7.17294e-61
-2.78099e-62
-9.0479e-64
-2.46417e-65
-5.60286e-67
-1.06008e-68
-1.66117e-70
-2.14573e-72
-2.26999e-74
-1.95214e-76
-1.35199e-78
-7.45161e-81
-3.22118e-83
-1.07151e-85
-2.6744e-88
-4.83983e-91
-6.04909e-94
-4.85233e-97
-2.21691e-100
-4.61212e-104
-2.53418e-108
-2.509e-56
-1.69455e-57
-9.63299e-59
-4.60709e-60
-1.8509e-61
-6.23721e-63
-1.75851e-64
-4.13669e-66
-8.09206e-68
-1.31006e-69
-1.74684e-71
-1.90594e-73
-1.68877e-75
-1.20372e-77
-6.81953e-80
-3.02594e-82
-1.03152e-84
-2.63342e-87
-4.86345e-90
-6.18585e-93
-5.03157e-96
-2.32016e-99
-4.84086e-103
-2.6398e-107
-1.38301e-55
-9.69513e-57
-5.71933e-58
-2.83764e-59
-1.18217e-60
-4.12897e-62
-1.20588e-63
-2.93663e-65
-5.94277e-67
-9.9454e-69
-1.36969e-70
-1.54213e-72
-1.4086e-74
-1.03389e-76
-6.02419e-79
-2.7454e-81
-9.59725e-84
-2.50798e-86
-4.73099e-89
-6.13027e-92
-5.06352e-95
-2.36128e-98
-4.95525e-102
-2.69426e-106
-7.27919e-55
-5.3013e-56
-3.24815e-57
-1.67321e-58
-7.23398e-60
-2.62063e-61
-7.93361e-63
-2.00136e-64
-4.19235e-66
-7.2567e-68
-1.03279e-69
-1.20056e-71
-1.13106e-73
-8.5532e-76
-5.12847e-78
-2.40184e-80
-8.61552e-83
-2.30624e-85
-4.44737e-88
-5.87707e-91
-4.93629e-94
-2.33237e-97
-4.93644e-101
-2.68768e-105
-3.65057e-54
-2.76483e-55
-1.76118e-56
-9.42791e-58
-4.23361e-59
-1.592e-60
-4.99948e-62
-1.30732e-63
-2.83645e-65
-5.08109e-67
-7.47731e-69
-8.97877e-71
-8.72925e-73
-6.80456e-75
-4.20067e-77
-2.02285e-79
-7.44999e-82
-2.04418e-84
-4.03306e-87
-5.44072e-90
-4.65295e-93
-2.2315e-96
-4.77537e-100
-2.61373e-104
-1.74033e-53
-1.37231e-54
-9.098e-56
-5.06635e-57
-2.36518e-58
-9.24008e-60
-3.01239e-61
-8.17104e-63
-1.83746e-64
-3.40851e-66
-5.18935e-68
-6.44046e-70
-6.46485e-72
-5.19733e-74
-3.30504e-76
-1.63734e-78
-6.19486e-81
-1.74345e-83
-3.52187e-86
-4.85471e-89
-4.23248e-92
-2.06369e-95
-4.47558e-99
-2.47128e-103
-7.86581e-53
-6.4664e-54
-4.46747e-55
-2.59092e-56
-1.2588e-57
-5.11395e-59
-1.73229e-60
-4.87793e-62
-1.13771e-63
-2.18685e-65
-3.44654e-67
-4.42344e-69
-4.58678e-71
-3.8049e-73
-2.49364e-75
-1.27155e-77
-4.9449e-80
-1.42827e-82
-2.95614e-85
-4.16737e-88
-3.70798e-91
-1.84085e-94
-4.05429e-98
-2.26547e-102
-3.36031e-52
-2.88464e-53
-2.07988e-54
-1.25792e-55
-6.36814e-57
-2.69323e-58
-9.4882e-60
-2.77601e-61
-6.72054e-63
-1.33948e-64
-2.18671e-66
-2.90394e-68
-3.11224e-70
-2.66528e-72
-1.8011e-74
-9.45766e-77
-3.78236e-79
-1.12185e-81
-2.38059e-84
-3.43487e-87
-3.12226e-90
-1.58039e-93
-3.54123e-97
-2.00801e-101
-1.35215e-51
-1.21441e-52
-9.15429e-54
-5.78295e-55
-3.05471e-56
-1.34656e-57
-4.9392e-59
-1.50292e-60
-3.77987e-62
-7.81781e-64
-1.32289e-65
-1.81889e-67
-2.01591e-69
-1.78319e-71
-1.24311e-73
-6.72526e-76
-2.76729e-78
-8.43289e-81
-1.83577e-83
-2.71298e-86
-2.52166e-89
-1.3029e-92
-2.97506e-96
-1.71598e-100
-5.10412e-51
-4.80749e-52
-3.79671e-53
-2.50987e-54
-1.38561e-55
-6.3755e-57
-2.43786e-58
-7.72332e-60
-2.01986e-61
-4.33881e-63
-7.61583e-65
-1.08487e-66
-1.24416e-68
-1.13734e-70
-8.1834e-73
-4.56346e-75
-1.93291e-77
-6.05472e-80
-1.35291e-82
-2.0492e-85
-1.94919e-88
-1.02912e-91
-2.39803e-95
-1.40976e-99
-1.79887e-50
-1.7821e-51
-1.47833e-52
-1.02496e-53
-5.92528e-55
-2.85051e-56
-1.13791e-57
-3.75807e-59
-1.02313e-60
-2.28473e-62
-4.1634e-64
-6.14888e-66
-7.30145e-68
-6.90175e-70
-5.12811e-72
-2.94907e-74
-1.28639e-76
-4.14401e-79
-9.50931e-82
-1.47708e-84
-1.43884e-87
-7.7697e-91
-1.84974e-94
-1.11021e-98
-5.88594e-50
-6.15599e-51
-5.38112e-52
-3.92351e-53
-2.38063e-54
-1.19978e-55
-5.00851e-57
-1.72685e-58
-4.90016e-60
-1.13876e-61
-2.15634e-63
-3.30448e-65
-4.06568e-67
-3.97635e-69
-3.05262e-71
-1.81126e-73
-8.14023e-76
-2.69802e-78
-6.36106e-81
-1.0138e-83
-1.01197e-86
-5.59334e-90
-1.36185e-93
-8.35648e-98
-1.77599e-49
-1.97035e-50
-1.82213e-51
-1.40181e-52
-8.95213e-54
-4.73746e-55
-2.0722e-56
-7.47123e-58
-2.21289e-59
-5.35835e-61
-1.05546e-62
-1.6798e-64
-2.14309e-66
-2.17011e-68
-1.72231e-70
-1.05492e-72
-4.88706e-75
-1.66727e-77
-4.0405e-80
-6.61036e-83
-6.76519e-86
-3.82982e-89
-9.54416e-93
-5.99387e-97
-4.90138e-49
-5.80418e-50
-5.70725e-51
-4.65187e-52
-3.13721e-53
-1.74815e-54
-8.03064e-56
-3.0337e-57
-9.39429e-59
-2.37352e-60
-4.8691e-62
-8.05625e-64
-1.0667e-65
-1.11916e-67
-9.18836e-70
-5.81277e-72
-2.77708e-74
-9.75627e-77
-2.4313e-79
-4.08486e-82
-4.28814e-85
-2.48766e-88
-6.3494e-92
-4.08457e-96
-7.95557e-48
-1.22481e-48
-1.56091e-49
-1.64259e-50
-1.42577e-51
-1.0196e-52
-6.00244e-54
-2.90382e-55
-1.15196e-56
-3.73663e-58
-9.86649e-60
-2.1108e-61
-3.63495e-63
-4.99981e-65
-5.43965e-67
-4.62307e-69
-3.02251e-71
-1.48994e-73
-5.39251e-76
-1.38242e-78
-2.38613e-81
-2.57035e-84
-1.5287e-87
-3.99817e-91
-2.63627e-95
-7.81436e-47
-1.61511e-47
-2.73511e-48
-3.79446e-49
-4.31003e-50
-4.01005e-51
-3.05626e-52
-1.9085e-53
-9.75457e-55
-4.07448e-56
-1.38745e-57
-3.83573e-59
-8.57104e-61
-1.5382e-62
-2.20033e-64
-2.48468e-66
-2.18765e-68
-1.47906e-70
-7.52681e-73
-2.80774e-75
-7.40751e-78
-1.31399e-80
-1.4529e-83
-8.86178e-87
-2.37583e-90
-1.60635e-94
-1.17233e-46
-2.81285e-47
-5.36556e-48
-8.23567e-49
-1.02139e-49
-1.02717e-50
-8.39609e-52
-5.58847e-53
-3.02939e-54
-1.33648e-55
-4.78978e-57
-1.38935e-58
-3.24834e-60
-6.08429e-62
-9.06236e-64
-1.06324e-65
-9.70643e-68
-6.79113e-70
-3.56983e-72
-1.37317e-74
-3.72968e-77
-6.80136e-80
-7.72168e-83
-4.83125e-86
-1.32805e-89
-9.20971e-94
-1.33384e-46
-4.02252e-47
-8.99982e-48
-1.56871e-48
-2.1598e-49
-2.37426e-50
-2.09825e-51
-1.49762e-52
-8.6503e-54
-4.04558e-55
-1.53049e-56
-4.66929e-58
-1.14456e-59
-2.24121e-61
-3.48078e-63
-4.24796e-65
-4.02477e-67
-2.91635e-69
-1.58452e-71
-6.28813e-74
-1.75904e-76
-3.29869e-79
-3.84619e-82
-2.469e-85
-6.95974e-89
-4.95078e-93
-8.91912e-47
-4.10661e-47
-1.18743e-47
-2.53559e-48
-4.00302e-49
-4.89325e-50
-4.72684e-51
-3.64593e-52
-2.25685e-53
-1.12389e-54
-4.50402e-56
-1.44935e-57
-3.73341e-59
-7.65732e-61
-1.24199e-62
-1.57871e-64
-1.55404e-66
-1.16722e-68
-6.55941e-71
-2.68703e-73
-7.74485e-76
-1.49399e-78
-1.78937e-81
-1.17865e-84
-3.40715e-88
-2.48598e-92
3.7314e-64
1.40788e-51
1.58429e-52
-2.96621e-48
-6.24577e-49
-8.82812e-50
-9.48419e-51
-7.99018e-52
-5.34019e-53
-2.8474e-54
-1.21393e-55
-4.13406e-57
-1.12208e-58
-2.41588e-60
-4.09964e-62
-5.43559e-64
-5.56576e-66
-4.33735e-68
-2.52303e-70
-1.0675e-72
-3.17163e-75
-6.29529e-78
-7.74647e-81
-5.23611e-84
-1.55219e-87
-1.16144e-91
3.11514e-45
2.02427e-46
2.35492e-46
1.21121e-48
-6.77263e-49
-1.33949e-49
-1.66438e-50
-1.55757e-51
-1.13568e-52
-6.5305e-54
-2.97757e-55
-1.07749e-56
-3.09145e-58
-7.00481e-60
-1.2462e-61
-1.72634e-63
-1.8412e-65
-1.4903e-67
-8.98085e-70
-3.92711e-72
-1.20324e-74
-2.45815e-77
-3.1081e-80
-2.15588e-83
-6.55292e-87
-5.02687e-91
9.35038e-43
1.05178e-41
5.96998e-43
5.61357e-46
8.34751e-50
-1.50766e-49
-2.47155e-50
-2.65455e-51
-2.14558e-52
-1.34394e-53
-6.59881e-55
-2.55022e-56
-7.764e-58
-1.85694e-59
-3.47161e-61
-5.0341e-63
-5.60067e-65
-4.714e-67
-2.94554e-69
-1.33204e-71
-4.21073e-74
-8.8563e-77
-1.15074e-79
-8.19042e-83
-2.55205e-86
-2.00626e-90
5.71201e-39
2.51564e-39
2.66972e-41
1.23361e-44
3.01135e-48
-9.19032e-50
-2.93912e-50
-3.85158e-51
-3.54471e-52
-2.45503e-53
-1.31043e-54
-5.44377e-56
-1.76687e-57
-4.47636e-59
-8.8181e-61
-1.34131e-62
-1.55917e-64
-1.36635e-66
-8.86084e-69
-4.14676e-71
-1.35301e-73
-2.93043e-76
-3.91301e-79
-2.8574e-82
-9.12385e-86
-7.34665e-90
7.36043e-37
3.60213e-38
7.21252e-41
3.67956e-44
1.49259e-47
3.14517e-51
-2.46447e-50
-4.54491e-51
-5.0072e-52
-3.92809e-53
-2.31048e-54
-1.04054e-55
-3.62143e-57
-9.75922e-59
-2.03197e-60
-3.24962e-62
-3.95366e-64
-3.61197e-66
-2.43328e-68
-1.17918e-70
-3.97263e-73
-8.86143e-76
-1.21592e-78
-9.10701e-82
-2.97851e-85
-2.45484e-89
1.18768e-35
5.30437e-38
5.44445e-41
6.56971e-44
1.9148e-46
3.22021e-49
-5.82784e-51
-3.94514e-51
-5.84603e-52
-5.41772e-53
-3.58243e-54
-1.76884e-55
-6.64813e-57
-1.91482e-58
-4.2281e-60
-7.12647e-62
-9.0906e-64
-8.66841e-66
-6.07123e-68
-3.04808e-70
-1.06052e-72
-2.43626e-75
-3.43428e-78
-2.63707e-81
-8.82798e-85
-7.44048e-89
3.11377e-35
3.64006e-38
6.95254e-41
9.0324e-43
6.4003e-45
1.37883e-47
1.22741e-50
-2.0082e-51
-5.42375e-52
-6.35273e-53
-4.84961e-54
-2.66119e-55
-1.08885e-56
-3.36912e-58
-7.91642e-60
-1.40949e-61
-1.88794e-63
-1.88083e-65
-1.37025e-67
-7.12836e-70
-2.56117e-72
-6.05725e-75
-8.76714e-78
-6.89669e-81
-2.36088e-84
-2.0324e-88
1.10343e-38
3.99982e-39
2.40928e-39
2.58384e-41
5.87412e-44
9.61686e-47
1.02722e-49
3.66713e-53
-3.92069e-52
-6.35328e-53
-5.73815e-54
-3.54286e-55
-1.58984e-56
-5.30936e-58
-1.33139e-59
-2.50841e-61
-3.53133e-63
-3.67685e-65
-2.78629e-67
-1.50143e-69
-5.56736e-72
-1.35448e-74
-2.01091e-77
-1.61868e-80
-5.65837e-84
-4.96738e-88
3.53387e-35
6.43482e-35
1.98309e-36
2.28413e-39
9.47059e-43
4.58044e-46
3.37601e-49
2.29561e-52
-2.51425e-52
-5.52192e-53
-5.97656e-54
-4.19106e-55
-2.07438e-56
-7.50156e-58
-2.01107e-59
-4.0122e-61
-5.93655e-63
-6.45697e-65
-5.08518e-67
-2.83528e-69
-1.0836e-71
-2.70795e-74
-4.11722e-77
-3.38527e-80
-1.20614e-83
-1.0775e-87
1.54574e-27
8.57048e-30
4.35302e-32
8.48891e-35
7.19013e-38
4.06102e-41
1.77965e-44
6.60982e-48
2.21551e-51
-9.83423e-53
-4.12675e-53
-5.49646e-54
-4.41819e-55
-2.42271e-56
-9.50617e-58
-2.72598e-59
-5.7565e-61
-8.94256e-63
-1.01454e-64
-8.28913e-67
-4.77259e-69
-1.87606e-71
-4.80514e-74
-7.46466e-77
-6.25416e-80
-2.26539e-83
-2.05383e-87
9.15724e-18
8.03229e-18
7.06773e-18
6.27781e-18
5.56994e-18
4.64897e-18
3.07064e-18
1.07186e-18
1.02106e-19
1.44797e-21
3.65685e-24
4.85176e-27
5.28035e-30
4.88333e-33
3.84026e-36
2.55505e-39
1.4244e-42
6.7394e-46
2.65627e-49
8.12406e-53
-2.05663e-53
-4.24014e-54
-4.08211e-55
-2.50965e-56
-1.07239e-57
-3.29174e-59
-7.35262e-61
-1.19741e-62
-1.41414e-64
-1.19584e-66
-7.09194e-69
-2.85957e-71
-7.48563e-74
-1.18473e-76
-1.00841e-79
-3.70185e-83
-3.39473e-87
1.07293e-17
9.29025e-18
8.0151e-18
6.96128e-18
6.14928e-18
5.39891e-18
4.26329e-18
2.32552e-18
5.12271e-19
2.27741e-20
1.42652e-22
2.5752e-25
3.29385e-28
3.53601e-31
3.21155e-34
2.45898e-37
1.57407e-40
8.53494e-44
3.84076e-47
1.45427e-50
4.03055e-54
-2.09672e-54
-3.03996e-55
-2.21254e-56
-1.04738e-57
-3.46187e-59
-8.19261e-61
-1.3982e-62
-1.71647e-64
-1.49921e-66
-9.13541e-69
-3.76803e-71
-1.00514e-73
-1.61567e-76
-1.39252e-79
-5.1629e-83
-4.77152e-87
1.25895e-17
1.0811e-17
9.20575e-18
7.81595e-18
6.72915e-18
5.92875e-18
5.06977e-18
3.56158e-18
1.38589e-18
1.56294e-19
2.77955e-21
8.68167e-24
1.33315e-26
1.64242e-29
1.70153e-32
1.48062e-35
1.07343e-38
6.56759e-42
3.32476e-45
1.4111e-48
4.9319e-52
1.13343e-55
-1.41003e-55
-1.497e-56
-8.30856e-58
-3.0203e-59
-7.64027e-61
-1.37131e-62
-1.75149e-64
-1.57918e-66
-9.87282e-69
-4.15721e-71
-1.12732e-73
-1.83533e-76
-1.59692e-79
-5.96004e-83
-5.53117e-87
1.47666e-17
1.25862e-17
1.06251e-17
8.89239e-18
7.4475e-18
6.40871e-18
5.6095e-18
4.49478e-18
2.50742e-18
5.66163e-19
2.6328e-20
1.80273e-22
3.64525e-25
5.14089e-28
6.01159e-31
5.86579e-34
4.73698e-37
3.20681e-40
1.78612e-43
8.2948e-47
3.17188e-50
9.8321e-54
1.42179e-57
-6.19582e-57
-4.78941e-58
-2.01463e-59
-5.5657e-61
-1.06125e-62
-1.41694e-64
-1.32132e-66
-8.47824e-69
-3.64217e-71
-1.0027e-73
-1.6504e-76
-1.44644e-79
-5.41994e-83
-5.03546e-87
1.73318e-17
1.46486e-17
1.22633e-17
1.01682e-17
8.36063e-18
6.96407e-18
6.03187e-18
5.12851e-18
3.5462e-18
1.3052e-18
1.3369e-19
2.17867e-21
6.85375e-24
1.12036e-26
1.45422e-29
1.55552e-32
1.3633e-35
9.92623e-39
5.9017e-42
2.90652e-45
1.17062e-48
3.85766e-52
1.01932e-55
-5.34942e-58
-1.76488e-58
-9.40966e-60
-2.92145e-61
-5.98511e-63
-8.39246e-65
-8.10867e-67
-5.34198e-69
-2.34039e-71
-6.53563e-74
-1.08622e-76
-9.57353e-80
-3.59443e-83
-3.33497e-87
2.03702e-17
1.70597e-17
1.41477e-17
1.16255e-17
9.45285e-18
7.66647e-18
6.44798e-18
5.57299e-18
4.34438e-18
2.22145e-18
4.18919e-19
1.53276e-20
8.82491e-23
1.75231e-25
2.48497e-28
2.85913e-31
2.6738e-34
2.06129e-37
1.28762e-40
6.61086e-44
2.75199e-47
9.30778e-51
2.58532e-54
5.39867e-58
-2.84702e-59
-2.55919e-60
-9.46837e-62
-2.12189e-63
-3.14425e-65
-3.15556e-67
-2.13737e-69
-9.55918e-72
-2.7098e-74
-4.54964e-77
-4.03298e-80
-1.51672e-83
-1.40399e-87
2.39636e-17
1.98867e-17
1.63257e-17
1.32785e-17
1.06963e-17
8.52667e-18
6.93229e-18
5.93023e-18
4.91198e-18
3.10685e-18
9.22974e-19
6.72578e-20
7.66673e-22
2.04233e-24
3.20626e-27
4.01636e-30
4.0793e-33
3.39854e-36
2.27699e-39
1.24355e-42
5.45221e-46
1.92003e-49
5.50119e-53
1.23692e-56
2.08555e-60
-1.34242e-61
-8.71978e-63
-2.4432e-64
-4.13257e-66
-4.55333e-68
-3.31326e-70
-1.56837e-72
-4.6508e-75
-8.08703e-78
-7.35893e-81
-2.81853e-84
-2.63713e-88
-1.23715e-69
-5.23097e-71
-1.86586e-72
-5.6192e-74
-1.42836e-75
-3.06382e-77
-5.5381e-79
-8.42286e-81
-1.07553e-82
-1.14894e-84
-1.02316e-86
-7.55624e-89
-4.59977e-91
-2.2902e-93
-9.23417e-96
-2.97907e-98
-7.57058e-101
-1.48487e-103
-2.18803e-106
-2.33389e-109
-1.70694e-112
-7.85939e-116
-1.95257e-119
-1.78031e-123
-1.13657e-68
-4.93027e-70
-1.80377e-71
-5.57003e-73
-1.45123e-74
-3.18917e-76
-5.90291e-78
-9.1876e-80
-1.19983e-81
-1.30995e-83
-1.19133e-85
-8.97806e-88
-5.57238e-90
-2.82635e-92
-1.15984e-94
-3.80451e-97
-9.81994e-100
-1.95399e-102
-2.9171e-105
-3.14718e-108
-2.32284e-111
-1.07545e-114
-2.66675e-118
-2.36801e-122
-1.01836e-67
-4.53675e-69
-1.70427e-70
-5.40223e-72
-1.44428e-73
-3.25539e-75
-6.17701e-77
-9.85023e-79
-1.31709e-80
-1.47125e-82
-1.36794e-84
-1.05307e-86
-6.67059e-89
-3.44967e-91
-1.44186e-93
-4.81174e-96
-1.26191e-98
-2.54746e-101
-3.85128e-104
-4.19749e-107
-3.11863e-110
-1.44487e-113
-3.54181e-117
-3.01639e-121
-8.88758e-67
-4.07018e-68
-1.5715e-69
-5.11848e-71
-1.4056e-72
-3.2529e-74
-6.33409e-76
-1.03595e-77
-1.41975e-79
-1.62432e-81
-1.54558e-83
-1.21659e-85
-7.87232e-88
-4.15449e-90
-1.76998e-92
-6.01311e-95
-1.60302e-97
-3.28375e-100
-5.02645e-103
-5.53024e-106
-4.12947e-109
-1.90864e-112
-4.60044e-116
-3.73862e-120
-7.54554e-66
-3.55545e-67
-1.4122e-68
-4.73064e-70
-1.33566e-71
-3.17669e-73
-6.354e-75
-1.06687e-76
-1.50006e-78
-1.75945e-80
-1.71496e-82
-1.38156e-84
-9.14041e-87
-4.92656e-89
-2.14107e-91
-7.40962e-94
-2.00896e-96
-4.17726e-99
-6.47425e-102
-7.18795e-105
-5.38892e-108
-2.48025e-111
-5.86187e-115
-4.53465e-119
-6.22399e-65
-3.02002e-66
-1.23505e-67
-4.25874e-69
-1.23734e-70
-3.02713e-72
-6.22523e-74
-1.07405e-75
-1.55076e-77
-1.86645e-79
-1.86526e-81
-1.53924e-83
-1.0421e-85
-5.74127e-88
-2.54718e-90
-8.98579e-93
-2.47923e-95
-5.2349e-98
-8.21684e-101
-9.20488e-104
-6.92558e-107
-3.17112e-110
-7.34041e-114
-5.40149e-118
-4.98164e-64
-2.49111e-65
-1.04976e-66
-3.72914e-68
-1.11586e-69
-2.81045e-71
-5.94726e-73
-1.05526e-74
-1.56594e-76
-1.93564e-78
-1.98502e-80
-1.67939e-82
-1.16446e-84
-6.56277e-87
-2.97464e-89
-1.07045e-91
-3.00736e-94
-6.45171e-97
-1.02597e-99
-1.15993e-102
-8.75796e-106
-3.98886e-109
-9.04428e-113
-6.33772e-117
-3.86414e-63
-1.99286e-64
-8.66008e-66
-3.17175e-67
-9.78204e-69
-2.53839e-70
-5.53175e-72
-1.01025e-73
-1.54202e-75
-1.95913e-77
-2.06336e-79
-1.79113e-81
-1.27296e-83
-7.34484e-86
-3.40371e-88
-1.25036e-90
-3.57933e-93
-7.8064e-96
-1.25835e-98
-1.43638e-101
-1.08878e-104
-4.93491e-108
-1.09723e-111
-7.34087e-116
-2.90109e-62
-1.54418e-63
-6.92478e-65
-2.61671e-66
-8.32404e-68
-2.22715e-69
-5.00194e-71
-9.40924e-73
-1.47839e-74
-1.93207e-76
-2.09139e-78
-1.86418e-80
-1.359e-82
-8.03378e-85
-3.80922e-87
-1.4295e-89
-4.17256e-92
-9.25775e-95
-1.51366e-97
-1.7456e-100
-1.32928e-103
-6.00169e-107
-1.31094e-110
-8.40436e-115
-2.10542e-61
-1.15742e-62
-5.35997e-64
-2.09116e-65
-6.86622e-67
-1.8955e-68
-4.39041e-70
-8.51294e-72
-1.37784e-73
-1.85355e-75
-2.06363e-77
-1.89017e-79
-1.41448e-81
-8.57325e-84
-4.16223e-86
-1.59682e-88
-4.75599e-91
-1.07427e-93
-1.78291e-96
-2.07895e-99
-1.59198e-102
-7.16982e-106
-1.54222e-109
-9.51568e-114
-1.47509e-60
-8.38071e-62
-4.0106e-63
-1.61661e-64
-5.4825e-66
-1.56267e-67
-3.73538e-69
-7.47069e-71
-1.2464e-72
-1.72716e-74
-1.97913e-76
-1.86405e-78
-1.43291e-80
-8.91098e-83
-4.4328e-85
-1.73981e-87
-5.29146e-90
-1.21772e-92
-2.05313e-95
-2.4229e-98
-1.86793e-101
-8.40564e-105
-1.78539e-108
-1.06541e-112
-9.96355e-60
-5.85436e-61
-2.89706e-62
-1.20728e-63
-4.23169e-65
-1.24615e-66
-3.07613e-68
-6.34984e-70
-1.09275e-71
-1.56078e-73
-1.84198e-75
-1.78513e-77
-1.41054e-79
-9.0062e-82
-4.59375e-84
-1.84584e-86
-5.73691e-89
-1.34615e-91
-2.30779e-94
-2.75911e-97
-2.14437e-100
-9.6597e-104
-2.03215e-107
-1.1789e-111
-6.47921e-59
-3.93991e-60
-2.01745e-61
-8.69762e-63
-3.15295e-64
-9.59881e-66
-2.44847e-67
-5.21983e-69
-9.27136e-71
-1.36579e-72
-1.6611e-74
-1.6575e-76
-1.34711e-78
-8.83667e-81
-4.62464e-83
-1.90375e-85
-6.05095e-88
-1.44889e-90
-2.52793e-93
-3.06526e-96
-2.40503e-99
-1.0867e-102
-2.27141e-106
-1.28781e-110
-4.0505e-58
-2.55078e-59
-1.35247e-60
-6.03614e-62
-2.2645e-63
-7.13169e-65
-1.88097e-66
-4.14393e-68
-7.60135e-70
-1.15561e-71
-1.44926e-73
-1.48984e-75
-1.24619e-77
-8.40375e-80
-4.51549e-82
-1.90562e-84
-6.1986e-87
-1.51582e-89
-2.69409e-92
-3.31692e-95
-2.63119e-98
-1.195e-101
-2.48957e-105
-1.38679e-109
-2.43056e-57
-1.5863e-58
-8.71534e-60
-4.02948e-61
-1.56547e-62
-5.10347e-64
-1.39263e-65
-3.17247e-67
-6.01345e-69
-9.44005e-71
-1.22148e-72
-1.29439e-74
-1.11495e-76
-7.73405e-79
-4.26923e-81
-1.84826e-83
-6.15705e-86
-1.53892e-88
-2.78879e-91
-3.49025e-94
-2.80339e-97
-1.28243e-100
-2.67133e-104
-1.46957e-108
-1.39765e-56
-9.46077e-58
-5.39008e-59
-2.58348e-60
-1.04012e-61
-3.51229e-63
-9.9224e-65
-2.33869e-66
-4.58353e-68
-7.43409e-70
-9.93028e-72
-1.08534e-73
-9.63271e-76
-6.87712e-78
-3.90226e-80
-1.73414e-82
-5.92033e-85
-1.51361e-87
-2.79927e-90
-3.56528e-93
-2.90386e-96
-1.34076e-99
-2.80096e-103
-1.5293e-107
-7.68809e-56
-5.40201e-57
-3.19405e-58
-1.58829e-59
-6.63143e-61
-2.32111e-62
-6.79298e-64
-1.65759e-65
-3.36096e-67
-5.63529e-69
-7.77517e-71
-8.76951e-73
-8.02388e-75
-5.89915e-77
-3.44281e-79
-1.57144e-81
-5.50169e-84
-1.43984e-86
-2.71995e-89
-3.52934e-92
-2.91915e-95
-1.36309e-98
-2.86419e-102
-1.55927e-106
-4.0376e-55
-2.94758e-56
-1.81031e-57
-9.34714e-59
-4.05036e-60
-1.47056e-61
-4.4615e-63
-1.12782e-64
-2.36725e-66
-4.10554e-68
-5.85413e-70
-6.81745e-72
-6.43408e-74
-4.87381e-76
-2.92713e-78
-1.37307e-80
-4.93291e-83
-1.32245e-85
-2.55395e-88
-3.37977e-91
-2.84268e-94
-1.34496e-97
-2.85034e-101
-1.55387e-105
-2.02016e-54
-1.53384e-55
-9.7947e-57
-5.25601e-58
-2.36581e-59
-8.91684e-61
-2.80646e-62
-7.35445e-64
-1.599e-65
-2.87014e-67
-4.23189e-69
-5.09119e-71
-4.95867e-73
-3.87211e-75
-2.39442e-77
-1.15494e-79
-4.26029e-82
-1.17077e-84
-2.31332e-87
-3.12527e-90
-2.67654e-93
-1.2854e-96
-2.75442e-100
-1.50956e-104
-9.60663e-54
-7.59503e-55
-5.04831e-56
-2.81836e-57
-1.31898e-58
-5.16524e-60
-1.68784e-61
-4.5885e-63
-1.03407e-64
-1.9222e-66
-2.93238e-68
-3.6464e-70
-3.66704e-72
-2.95338e-74
-1.88136e-76
-9.33611e-79
-3.53806e-81
-9.97305e-84
-2.0177e-86
-2.78542e-89
-2.43192e-92
-1.18743e-95
-2.57873e-99
-1.42578e-103
-4.33022e-53
-3.56966e-54
-2.4729e-55
-1.43799e-56
-7.00457e-58
-2.8528e-59
-9.68695e-61
-2.7341e-62
-6.39124e-64
-1.23116e-65
-1.94438e-67
-2.5005e-69
-2.59784e-71
-2.15902e-73
-1.41751e-75
-7.24063e-78
-2.82051e-80
-8.1599e-83
-1.69153e-85
-2.38823e-88
-2.1281e-91
-1.05802e-94
-2.33345e-98
-1.30566e-102
-1.84447e-52
-1.588e-53
-1.14828e-54
-6.96445e-56
-3.53532e-57
-1.49911e-58
-5.29476e-60
-1.5529e-61
-3.76829e-63
-7.52759e-65
-1.23154e-66
-1.63889e-68
-1.75996e-70
-1.5101e-72
-1.02237e-74
-5.37809e-77
-2.15454e-79
-6.40105e-82
-1.3605e-84
-1.96608e-87
-1.78985e-90
-9.07294e-94
-2.0359e-97
-1.15603e-101
-7.39804e-52
-6.66523e-53
-5.03972e-54
-3.19322e-55
-1.69162e-56
-7.47768e-58
-2.75016e-59
-8.38977e-61
-2.11524e-62
-4.3852e-64
-7.43719e-66
-1.02479e-67
-1.13815e-69
-1.00876e-71
-7.04585e-74
-3.81888e-76
-1.57417e-78
-4.80527e-81
-1.0478e-83
-1.55097e-86
-1.44383e-89
-7.47125e-93
-1.70848e-96
-9.86828e-101
-2.78268e-51
-2.62982e-52
-2.08376e-53
-1.38191e-54
-7.65259e-56
-3.53153e-57
-1.35421e-58
-4.30184e-60
-1.12796e-61
-2.42894e-63
-4.27356e-65
-6.1014e-67
-7.01243e-69
-6.42366e-71
-4.63116e-73
-2.5875e-75
-1.09798e-77
-3.44545e-80
-7.71191e-83
-1.17002e-85
-1.11469e-88
-5.89433e-92
-1.37553e-95
-8.09827e-100
-9.76819e-51
-9.71286e-52
-8.08617e-53
-5.62567e-54
-3.26296e-55
-1.57469e-56
-6.30499e-58
-2.08826e-59
-5.70082e-61
-1.27635e-62
-2.33164e-64
-3.45173e-66
-4.10801e-68
-3.89153e-70
-2.89746e-72
-1.66958e-74
-7.29661e-77
-2.35485e-79
-5.41323e-82
-8.42264e-85
-8.21805e-88
-4.44475e-91
-1.05979e-94
-6.37031e-99
-3.18189e-50
-3.34149e-51
-2.93238e-52
-2.1461e-53
-1.30682e-54
-6.6084e-56
-2.76757e-57
-9.57122e-59
-2.72384e-60
-6.34741e-62
-1.20509e-63
-1.85134e-65
-2.2832e-67
-2.23809e-69
-1.72188e-71
-1.02378e-73
-4.61024e-76
-1.53093e-78
-3.61603e-81
-5.77317e-84
-5.77251e-87
-3.19578e-90
-7.79323e-94
-4.78933e-98
-9.55218e-50
-1.06463e-50
-9.8884e-52
-7.63877e-53
-4.89716e-54
-2.60107e-55
-1.14166e-56
-4.12965e-58
-1.22693e-59
-2.9796e-61
-5.88535e-63
-9.39134e-65
-1.20113e-66
-1.21917e-68
-9.69788e-71
-5.95282e-73
-2.76341e-75
-9.44625e-78
-2.29356e-80
-3.75914e-83
-3.85392e-86
-2.1854e-89
-5.45499e-93
-3.43119e-97
-2.62091e-49
-3.11997e-50
-3.08291e-51
-2.52431e-52
-1.70964e-53
-9.56466e-55
-4.41021e-56
-1.67187e-57
-5.19429e-59
-1.31645e-60
-2.70855e-62
-4.49396e-64
-5.96595e-66
-6.27505e-68
-5.16409e-70
-3.27432e-72
-1.56769e-74
-5.51888e-77
-1.37803e-79
-2.31962e-82
-2.43947e-85
-1.41766e-88
-3.62444e-92
-2.33538e-96
-4.1969e-48
-6.50534e-49
-8.34128e-50
-8.82678e-51
-7.70091e-52
-5.53306e-53
-3.27157e-54
-1.58912e-55
-6.32801e-57
-2.0599e-58
-5.45724e-60
-1.17117e-61
-2.02279e-63
-2.79008e-65
-3.04356e-67
-2.59316e-69
-1.69941e-71
-8.39612e-74
-3.04535e-76
-7.8231e-79
-1.35296e-81
-1.46016e-84
-8.69987e-88
-2.27932e-91
-1.50542e-95
-4.03925e-47
-8.43838e-48
-1.4412e-48
-2.01402e-49
-2.30248e-50
-2.15466e-51
-1.65082e-52
-1.03583e-53
-5.31774e-55
-2.23034e-56
-7.62386e-58
-2.11523e-59
-4.74239e-61
-8.53777e-63
-1.22492e-64
-1.38709e-66
-1.22451e-68
-8.29959e-71
-4.23365e-73
-1.58286e-75
-4.18496e-78
-7.43876e-81
-8.24135e-84
-5.03612e-87
-1.3526e-90
-9.16111e-95
-5.95394e-47
-1.45156e-47
-2.80012e-48
-4.33673e-49
-5.41958e-50
-5.48672e-51
-4.51152e-52
-3.01898e-53
-1.64452e-54
-7.28768e-56
-2.62264e-57
-7.63673e-59
-1.79192e-60
-3.36767e-62
-5.03192e-64
-5.9213e-66
-5.4208e-68
-3.80275e-70
-2.00398e-72
-7.72683e-75
-2.10344e-77
-3.84404e-80
-4.37315e-83
-2.74152e-86
-7.55017e-90
-5.24529e-94
-6.58519e-47
-2.03842e-47
-4.63526e-48
-8.17963e-49
-1.13687e-49
-1.25965e-50
-1.12082e-51
-8.04821e-53
-4.67387e-54
-2.19666e-55
-8.3478e-57
-2.55742e-58
-6.29321e-60
-1.23676e-61
-1.9273e-63
-2.35957e-65
-2.24229e-67
-1.62934e-69
-8.87615e-72
-3.53134e-74
-9.90213e-77
-1.86112e-79
-2.17469e-82
-1.39886e-85
-3.9509e-89
-2.81572e-93
-4.09364e-47
-2.00059e-47
-5.91121e-48
-1.30194e-48
-2.08556e-49
-2.57502e-50
-2.50768e-51
-1.94769e-52
-1.213e-53
-6.07372e-55
-2.44614e-56
-7.90728e-58
-2.04542e-59
-4.21159e-61
-6.85592e-63
-8.74433e-65
-8.63518e-67
-6.50526e-69
-3.6661e-71
-1.50581e-73
-4.35114e-76
-8.41343e-79
-1.00997e-81
-6.6669e-85
-1.93117e-88
-1.41181e-92
-1.36226e-70
1.43553e-51
2.22137e-52
-1.44241e-48
-3.19727e-49
-4.596e-50
-4.98979e-51
-4.23878e-52
-2.85296e-53
-1.5306e-54
-6.5614e-56
-2.24567e-57
-6.12326e-59
-1.32394e-60
-2.25549e-62
-3.00145e-64
-3.08386e-66
-2.41096e-68
-1.40668e-70
-5.9686e-73
-1.77806e-75
-3.53815e-78
-4.36417e-81
-2.95657e-84
-8.78333e-88
-6.58564e-92
3.13524e-45
2.02475e-46
2.40473e-46
1.2755e-48
-3.27621e-49
-6.84797e-50
-8.66e-51
-8.19244e-52
-6.02415e-53
-3.48887e-54
-1.60067e-55
-5.82461e-57
-1.67958e-58
-3.82331e-60
-6.83092e-62
-9.5003e-64
-1.01698e-65
-8.26008e-68
-4.99377e-70
-2.19028e-72
-6.73001e-75
-1.3786e-77
-1.74752e-80
-1.21504e-83
-3.70157e-87
-2.84567e-91
9.42029e-43
1.0522e-41
5.96504e-43
5.61763e-46
9.25784e-50
-7.36769e-50
-1.26403e-50
-1.38051e-51
-1.12811e-52
-7.12738e-54
-3.52498e-55
-1.3709e-56
-4.19714e-58
-1.00897e-59
-1.89512e-61
-2.75994e-63
-3.08286e-65
-2.60448e-67
-1.63307e-69
-7.40913e-72
-2.34927e-74
-4.95532e-77
-6.45607e-80
-4.60679e-83
-1.43888e-86
-1.13373e-90
5.71673e-39
2.51702e-39
2.66971e-41
1.23312e-44
3.02603e-48
-2.46424e-50
-1.45286e-50
-1.97041e-51
-1.8423e-52
-1.29019e-53
-6.94736e-55
-2.90733e-56
-9.49677e-58
-2.41977e-59
-4.79146e-61
-7.32281e-63
-8.54951e-65
-7.5226e-67
-4.89682e-69
-2.2997e-71
-7.52812e-74
-1.6355e-76
-2.19019e-79
-1.60368e-82
-5.13373e-86
-4.14373e-90
7.36249e-37
3.60366e-38
7.21632e-41
3.68092e-44
1.49863e-47
4.08786e-51
-1.14332e-50
-2.26217e-51
-2.56009e-52
-2.04013e-53
-1.21356e-54
-5.51414e-56
-1.93348e-57
-5.24444e-59
-1.0983e-60
-1.76572e-62
-2.15864e-64
-1.98085e-66
-1.33993e-68
-6.51814e-71
-2.20374e-73
-4.932e-76
-6.7884e-79
-5.09913e-82
-1.67225e-85
-1.38178e-89
1.18811e-35
5.30605e-38
5.44671e-41
6.55566e-44
1.90255e-46
3.28777e-49
3.9394e-53
-1.83268e-51
-2.91317e-52
-2.7693e-53
-1.85971e-54
-9.28612e-56
-3.52158e-57