/*--------------------------------*- C++ -*----------------------------------*\
| =========                 |                                                 |
| \\      /  F ield         | OpenFOAM: The Open Source CFD Toolbox           |
|  \\    /   O peration     | Version:  v2012                                 |
|   \\  /    A nd           | Website:  www.openfoam.com                      |
|    \\/     M anipulation  |                                                 |
\*---------------------------------------------------------------------------*/
FoamFile
{
    version     2.0;
    format      ascii;
    class       surfaceScalarField;
    location    "0.55";
    object      phi;
}
// * * * * * * * * * * * * * * * * * * * * * * * * * * * * * * * * * * * * * //

dimensions      [0 3 -1 0 0 0 0];
oriented        oriented;


internalField   nonuniform List<scalar> 
6431
(
2.31821e-11
-2.24107e-10
3.73656e-18
2.40938e-11
-2.33444e-10
3.11138e-18
2.48974e-11
-2.42292e-10
4.04056e-18
2.55738e-11
-2.50485e-10
5.35092e-18
2.61034e-11
-2.58049e-10
6.44027e-18
2.64679e-11
-2.64704e-10
7.25535e-18
2.6649e-11
-2.70476e-10
7.82851e-18
2.66305e-11
-2.75135e-10
8.19121e-18
2.63978e-11
-2.7856e-10
8.31864e-18
2.5938e-11
-2.80811e-10
8.08494e-18
2.52425e-11
-2.8152e-10
7.46984e-18
2.43048e-11
-2.80739e-10
6.68604e-18
2.3123e-11
-2.78228e-10
6.29971e-18
2.16998e-11
-2.73868e-10
5.51193e-18
2.00421e-11
-2.67533e-10
4.91603e-18
1.81637e-11
-2.58859e-10
4.16502e-18
1.60838e-11
-2.47621e-10
4.10107e-18
1.38287e-11
-2.33464e-10
3.82626e-18
1.14332e-11
-2.15895e-10
3.73068e-18
8.94298e-12
-1.94362e-10
3.5712e-18
6.41721e-12
-1.68187e-10
3.35851e-18
3.94813e-12
-1.36132e-10
3.29855e-18
1.6556e-12
-9.57855e-11
2.90876e-18
-4.0707e-11
1.86865e-18
2.33307e-11
-2.25103e-10
-2.12485e-17
2.42368e-11
-2.3435e-10
-1.8734e-17
2.50341e-11
-2.4309e-10
-1.54476e-17
2.57035e-11
-2.51155e-10
-1.04459e-17
2.62255e-11
-2.58572e-10
-6.77987e-18
2.65817e-11
-2.6506e-10
-3.03215e-18
2.67539e-11
-2.70648e-10
-3.33504e-19
2.67259e-11
-2.75108e-10
2.28271e-18
2.64834e-11
-2.78317e-10
4.09282e-18
2.60134e-11
-2.80342e-10
5.26875e-18
2.53075e-11
-2.80814e-10
5.52524e-18
2.43592e-11
-2.79791e-10
6.25483e-18
2.31668e-11
-2.77036e-10
6.09431e-18
2.1733e-11
-2.72434e-10
5.10096e-18
2.00648e-11
-2.65865e-10
4.23657e-18
1.8176e-11
-2.5697e-10
2.93624e-18
1.60859e-11
-2.4553e-10
2.28977e-18
1.38207e-11
-2.31199e-10
1.21133e-18
1.14152e-11
-2.1349e-10
6.09461e-19
8.91461e-12
-1.91862e-10
2.9644e-21
6.37783e-12
-1.65651e-10
-3.06024e-19
3.89634e-12
-1.3365e-10
-4.31089e-19
1.59208e-12
-9.34814e-11
-8.43357e-19
-3.9115e-11
-2.01699e-18
2.35895e-11
-2.26098e-10
-5.15335e-17
2.44919e-11
-2.35253e-10
-4.54691e-17
2.52834e-11
-2.43882e-10
-3.84087e-17
2.59448e-11
-2.51817e-10
-2.97022e-17
2.64568e-11
-2.59084e-10
-2.26975e-17
2.6801e-11
-2.65405e-10
-1.58223e-17
2.69594e-11
-2.70807e-10
-1.0386e-17
2.69159e-11
-2.75064e-10
-5.14026e-18
2.66563e-11
-2.78058e-10
-1.22318e-18
2.61681e-11
-2.79854e-10
1.6889e-18
2.54429e-11
-2.80089e-10
3.35827e-18
2.44745e-11
-2.78823e-10
5.4943e-18
2.32615e-11
-2.75823e-10
5.71778e-18
2.18067e-11
-2.70979e-10
4.43147e-18
2.01174e-11
-2.64176e-10
3.17927e-18
1.82075e-11
-2.55061e-10
1.04788e-18
1.60963e-11
-2.43419e-10
-2.26051e-19
1.38101e-11
-2.28913e-10
-2.27377e-18
1.13838e-11
-2.11063e-10
-3.48277e-18
8.86248e-12
-1.89341e-10
-4.78458e-18
6.30533e-12
-1.63094e-10
-5.41208e-18
3.80607e-12
-1.31151e-10
-5.8239e-18
1.50748e-12
-9.11831e-11
-6.34848e-18
-3.76079e-11
-7.41783e-18
2.39533e-11
-2.27091e-10
-7.8547e-17
2.48516e-11
-2.36152e-10
-6.92617e-17
2.5636e-11
-2.44667e-10
-5.98455e-17
2.62874e-11
-2.52468e-10
-4.75708e-17
2.67864e-11
-2.59584e-10
-3.79044e-17
2.71148e-11
-2.65733e-10
-2.79718e-17
2.72546e-11
-2.70947e-10
-2.01351e-17
2.719e-11
-2.75e-10
-1.241e-17
2.6907e-11
-2.77775e-10
-6.51852e-18
2.63934e-11
-2.7934e-10
-2.00689e-18
2.56412e-11
-2.79336e-10
7.29177e-19
2.46445e-11
-2.77826e-10
4.41965e-18
2.34021e-11
-2.74581e-10
5.06319e-18
2.19175e-11
-2.69494e-10
3.48014e-18
2.01979e-11
-2.62456e-10
1.68089e-18
1.82577e-11
-2.5312e-10
-1.53769e-18
1.61163e-11
-2.41278e-10
-3.85868e-18
1.38003e-11
-2.26597e-10
-7.14972e-18
1.13446e-11
-2.08608e-10
-9.32417e-18
8.79501e-12
-1.86791e-10
-1.15429e-17
6.2124e-12
-1.60511e-10
-1.26628e-17
3.69621e-12
-1.28635e-10
-1.34335e-17
1.42021e-12
-8.89075e-11
-1.40363e-17
-3.61881e-11
-1.53325e-17
2.4418e-11
-2.28085e-10
-1.00815e-16
2.53118e-11
-2.37047e-10
-9.08079e-17
2.6088e-11
-2.45444e-10
-7.89325e-17
2.67273e-11
-2.53108e-10
-6.40409e-17
2.72103e-11
-2.60067e-10
-5.17156e-17
2.75189e-11
-2.66042e-10
-3.92817e-17
2.76353e-11
-2.71064e-10
-2.91261e-17
2.7544e-11
-2.74909e-10
-1.91807e-17
2.72313e-11
-2.77462e-10
-1.14644e-17
2.66854e-11
-2.78795e-10
-5.44515e-18
2.58987e-11
-2.7855e-10
-1.45404e-18
2.48658e-11
-2.76793e-10
3.34373e-18
2.3586e-11
-2.73301e-10
4.37609e-18
2.20632e-11
-2.67971e-10
2.50873e-18
2.0305e-11
-2.60698e-10
2.51416e-19
1.83261e-11
-2.51141e-10
-3.92968e-18
1.61465e-11
-2.39099e-10
-7.06567e-18
1.37929e-11
-2.24244e-10
-1.15338e-17
1.1301e-11
-2.06116e-10
-1.45754e-17
8.71787e-12
-1.84209e-10
-1.77612e-17
6.10748e-12
-1.57901e-10
-1.9474e-17
3.5778e-12
-1.26106e-10
-2.07668e-17
1.33399e-12
-8.66643e-11
-2.16664e-17
-3.48547e-11
-2.27816e-17
2.4979e-11
-2.29078e-10
-1.20111e-16
2.58682e-11
-2.37937e-10
-1.08963e-16
2.66351e-11
-2.46212e-10
-9.57496e-17
2.72603e-11
-2.53734e-10
-7.82358e-17
2.77245e-11
-2.60533e-10
-6.40274e-17
2.80095e-11
-2.66328e-10
-4.92362e-17
2.8098e-11
-2.71153e-10
-3.72172e-17
2.79747e-11
-2.74786e-10
-2.52794e-17
2.76263e-11
-2.77114e-10
-1.5944e-17
2.70414e-11
-2.7821e-10
-8.57497e-18
2.62131e-11
-2.77722e-10
-3.68698e-18
2.51366e-11
-2.75717e-10
2.09444e-18
2.38117e-11
-2.71976e-10
3.48494e-18
2.22428e-11
-2.66402e-10
1.35216e-18
2.04382e-11
-2.58894e-10
-1.45859e-18
1.84131e-11
-2.49116e-10
-6.69784e-18
1.61879e-11
-2.36874e-10
-1.093e-17
1.37901e-11
-2.21847e-10
-1.67041e-17
1.12564e-11
-2.03583e-10
-2.08414e-17
8.63569e-12
-1.81588e-10
-2.50809e-17
5.99676e-12
-1.55263e-10
-2.74664e-17
3.45766e-12
-1.23568e-10
-2.9281e-17
1.25157e-12
-8.4459e-11
-3.04208e-17
-3.36039e-11
-3.17706e-17
2.56323e-11
-2.30072e-10
-1.36344e-16
2.65167e-11
-2.38823e-10
-1.2485e-16
2.72732e-11
-2.4697e-10
-1.09758e-16
2.78824e-11
-2.54344e-10
-9.05158e-17
2.83249e-11
-2.60976e-10
-7.44253e-17
2.85828e-11
-2.66586e-10
-5.7911e-17
2.8639e-11
-2.7121e-10
-4.41926e-17
2.84785e-11
-2.74626e-10
-3.06097e-17
2.80887e-11
-2.76724e-10
-1.98981e-17
2.74587e-11
-2.77581e-10
-1.13302e-17
2.65821e-11
-2.76845e-10
-5.48323e-18
2.54549e-11
-2.74589e-10
6.56044e-19
2.40777e-11
-2.70599e-10
2.32493e-18
2.24555e-11
-2.6478e-10
-4.1932e-20
2.05973e-11
-2.57036e-10
-3.25635e-18
1.85189e-11
-2.47038e-10
-9.37468e-18
1.62416e-11
-2.34597e-10
-1.43557e-17
1.37938e-11
-2.19399e-10
-2.12547e-17
1.12136e-11
-2.01003e-10
-2.62462e-17
8.55253e-12
-1.78928e-10
-3.14671e-17
5.88517e-12
-1.52596e-10
-3.45028e-17
3.34053e-12
-1.21024e-10
-3.69256e-17
1.17507e-12
-8.22944e-11
-3.84451e-17
-3.24297e-11
-3.96885e-17
2.63745e-11
-2.31067e-10
-1.51402e-16
2.72537e-11
-2.39704e-10
-1.37951e-16
2.79986e-11
-2.47716e-10
-1.21642e-16
2.85898e-11
-2.54937e-10
-1.00401e-16
2.90079e-11
-2.61395e-10
-8.31454e-17
2.92352e-11
-2.66814e-10
-6.50054e-17
2.92548e-11
-2.7123e-10
-5.00617e-17
2.90523e-11
-2.74424e-10
-3.50835e-17
2.86156e-11
-2.76288e-10
-2.32302e-17
2.79344e-11
-2.769e-10
-1.36403e-17
2.70032e-11
-2.75914e-10
-7.15995e-18
2.58187e-11
-2.73405e-10
-8.77839e-19
2.43824e-11
-2.69163e-10
1.00524e-18
2.27001e-11
-2.63098e-10
-1.59264e-18
2.07816e-11
-2.55117e-10
-5.31929e-18
1.86437e-11
-2.449e-10
-1.23708e-17
1.63085e-11
-2.32262e-10
-1.83349e-17
1.38057e-11
-2.16897e-10
-2.63956e-17
1.11751e-11
-1.98373e-10
-3.23906e-17
8.47177e-12
-1.76225e-10
-3.85929e-17
5.77658e-12
-1.49902e-10
-4.22931e-17
3.2296e-12
-1.18478e-10
-4.52568e-17
1.10568e-12
-8.01716e-11
-4.70754e-17
-3.13252e-11
-4.86214e-17
2.72024e-11
-2.32063e-10
-1.64815e-16
2.80758e-11
-2.40579e-10
-1.49465e-16
2.88079e-11
-2.4845e-10
-1.30885e-16
2.93792e-11
-2.55509e-10
-1.08373e-16
2.97701e-11
-2.61787e-10
-8.98099e-17
2.99633e-11
-2.67008e-10
-7.0673e-17
2.99422e-11
-2.7121e-10
-5.46398e-17
2.96929e-11
-2.74175e-10
-3.86424e-17
2.9204e-11
-2.75799e-10
-2.5909e-17
2.84659e-11
-2.76162e-10
-1.54651e-17
2.74741e-11
-2.74922e-10
-8.34157e-18
2.6226e-11
-2.72157e-10
-2.581e-18
2.47242e-11
-2.67661e-10
-5.72157e-19
2.29755e-11
-2.61349e-10
-3.37753e-18
2.09907e-11
-2.53133e-10
-7.45989e-18
1.87875e-11
-2.42697e-10
-1.52937e-17
1.63893e-11
-2.29864e-10
-2.189e-17
1.38271e-11
-2.14335e-10
-3.09313e-17
1.11431e-11
-1.9569e-10
-3.76603e-17
8.39612e-12
-1.73479e-10
-4.47385e-17
5.67385e-12
-1.47181e-10
-4.9037e-17
3.12691e-12
-1.15932e-10
-5.25805e-17
1.04378e-12
-7.80897e-11
-5.48037e-17
-3.02826e-11
-5.63103e-17
2.81131e-11
-2.3306e-10
-1.78545e-16
2.89802e-11
-2.41447e-10
-1.58793e-16
2.96981e-11
-2.49169e-10
-1.3829e-16
3.02473e-11
-2.56059e-10
-1.13956e-16
3.06082e-11
-2.62149e-10
-9.47638e-17
3.07638e-11
-2.67165e-10
-7.46317e-17
3.06979e-11
-2.71145e-10
-5.80027e-17
3.03972e-11
-2.73875e-10
-4.1215e-17
2.98509e-11
-2.75253e-10
-2.78451e-17
2.90505e-11
-2.75362e-10
-1.67323e-17
2.79922e-11
-2.73864e-10
-9.26345e-18
2.66747e-11
-2.7084e-10
-4.24274e-18
2.51015e-11
-2.66088e-10
-2.18669e-18
2.32806e-11
-2.59528e-10
-5.21846e-18
2.12238e-11
-2.51076e-10
-9.79625e-18
1.89501e-11
-2.40424e-10
-1.8464e-17
1.64842e-11
-2.27398e-10
-2.5938e-17
1.3859e-11
-2.11711e-10
-3.59815e-17
1.11192e-11
-1.92951e-10
-4.35886e-17
8.32762e-12
-1.70688e-10
-5.15266e-17
5.579e-12
-1.44433e-10
-5.64299e-17
3.03358e-12
-1.13388e-10
-6.04827e-17
9.893e-13
-7.60467e-11
-6.3018e-17
-2.92947e-11
-6.48673e-17
2.91039e-11
-2.34059e-10
-1.91695e-16
2.99639e-11
-2.42309e-10
-1.67018e-16
3.06662e-11
-2.49873e-10
-1.43159e-16
3.11911e-11
-2.56585e-10
-1.17707e-16
3.15191e-11
-2.62479e-10
-9.7584e-17
3.16336e-11
-2.6728e-10
-7.7117e-17
3.15188e-11
-2.71031e-10
-5.9962e-17
3.11621e-11
-2.73519e-10
-4.2778e-17
3.05535e-11
-2.74645e-10
-2.90243e-17
2.96854e-11
-2.74495e-10
-1.74072e-17
2.85552e-11
-2.72734e-10
-9.60867e-18
2.71626e-11
-2.69447e-10
-6.0033e-18
2.55124e-11
-2.64438e-10
-3.98153e-18
2.36138e-11
-2.5763e-10
-7.23757e-18
2.14799e-11
-2.48943e-10
-1.21727e-17
1.91311e-11
-2.38075e-10
-2.15825e-17
1.65936e-11
-2.24861e-10
-2.9612e-17
1.39022e-11
-2.0902e-10
-4.05296e-17
1.11045e-11
-1.90154e-10
-4.87754e-17
8.26778e-12
-1.67853e-10
-5.74936e-17
5.49338e-12
-1.4166e-10
-6.29403e-17
2.95016e-12
-1.10846e-10
-6.75425e-17
9.41891e-13
-7.404e-11
-7.04859e-17
-2.83544e-11
-7.23319e-17
3.01727e-11
-2.35059e-10
-2.05417e-16
3.10246e-11
-2.43163e-10
-1.72936e-16
3.17095e-11
-2.50559e-10
-1.46228e-16
3.22077e-11
-2.57084e-10
-1.18968e-16
3.24999e-11
-2.62772e-10
-9.8694e-17
3.25697e-11
-2.6735e-10
-7.77883e-17
3.24019e-11
-2.70864e-10
-6.06448e-17
3.19846e-11
-2.73102e-10
-4.3246e-17
3.13089e-11
-2.73969e-10
-2.93626e-17
3.03679e-11
-2.73554e-10
-1.74319e-17
2.91605e-11
-2.71526e-10
-9.59256e-18
2.76875e-11
-2.67975e-10
-7.55006e-18
2.59551e-11
-2.62706e-10
-5.65365e-18
2.39738e-11
-2.55649e-10
-9.16203e-18
2.17582e-11
-2.46727e-10
-1.46227e-17
1.93301e-11
-2.35648e-10
-2.48287e-17
1.67174e-11
-2.22249e-10
-3.36859e-17
1.39572e-11
-2.0626e-10
-4.55118e-17
1.11001e-11
-1.87298e-10
-5.45626e-17
8.21764e-12
-1.64971e-10
-6.40618e-17
5.41779e-12
-1.38861e-10
-7.00842e-17
2.87671e-12
-1.08306e-10
-7.51858e-17
9.0108e-13
-7.2066e-11
-7.84602e-17
-2.7455e-11
-8.06537e-17
3.13173e-11
-2.36059e-10
-2.17369e-16
3.21598e-11
-2.44007e-10
-1.77234e-16
3.28254e-11
-2.51227e-10
-1.46362e-16
3.32944e-11
-2.57554e-10
-1.18338e-16
3.35477e-11
-2.63027e-10
-9.75325e-17
3.35692e-11
-2.67373e-10
-7.69615e-17
3.33442e-11
-2.7064e-10
-5.98196e-17
3.28619e-11
-2.7262e-10
-4.26438e-17
3.21141e-11
-2.73222e-10
-2.88394e-17
3.10954e-11
-2.72536e-10
-1.67711e-17
2.98057e-11
-2.70237e-10
-8.89269e-18
2.82472e-11
-2.66416e-10
-9.08111e-18
2.64276e-11
-2.60886e-10
-7.38587e-18
2.4359e-11
-2.5358e-10
-1.11743e-17
2.20573e-11
-2.44426e-10
-1.70546e-17
1.95462e-11
-2.33137e-10
-2.80195e-17
1.68553e-11
-2.19559e-10
-3.74402e-17
1.40241e-11
-2.0343e-10
-5.0107e-17
1.11062e-11
-1.84381e-10
-5.97671e-17
8.17776e-12
-1.62044e-10
-7.00125e-17
5.3526e-12
-1.36038e-10
-7.65768e-17
2.81304e-12
-1.05768e-10
-8.22341e-17
8.66316e-13
-7.01211e-11
-8.59367e-17
-2.65905e-11
-8.81418e-17
3.25357e-11
-2.37058e-10
-2.27599e-16
3.33673e-11
-2.4484e-10
-1.77852e-16
3.40115e-11
-2.51873e-10
-1.44226e-16
3.44486e-11
-2.57992e-10
-1.14877e-16
3.46596e-11
-2.63239e-10
-9.4625e-17
3.4629e-11
-2.67343e-10
-7.41931e-17
3.43428e-11
-2.70354e-10
-5.769e-17
3.37909e-11
-2.72069e-10
-4.0846e-17
3.29664e-11
-2.72397e-10
-2.74027e-17
3.1865e-11
-2.71435e-10
-1.5359e-17
3.0488e-11
-2.6886e-10
-7.76543e-18
2.88392e-11
-2.64768e-10
-1.01759e-17
2.69279e-11
-2.58975e-10
-8.79104e-18
2.47676e-11
-2.5142e-10
-1.28973e-17
2.2376e-11
-2.42035e-10
-1.93834e-17
1.97785e-11
-2.3054e-10
-3.11751e-17
1.70069e-11
-2.16788e-10
-4.14574e-17
1.41027e-11
-2.00527e-10
-5.50143e-17
1.11232e-11
-1.81402e-10
-6.54855e-17
8.14841e-12
-1.59071e-10
-7.65046e-17
5.29782e-12
-1.33188e-10
-8.36788e-17
2.75871e-12
-1.03231e-10
-8.98732e-17
8.37022e-13
-6.82013e-11
-9.39523e-17
-2.57555e-11
-9.648e-17
3.38262e-11
-2.38056e-10
-2.32221e-16
3.46452e-11
-2.45661e-10
-1.75227e-16
3.52656e-11
-2.52495e-10
-1.38244e-16
3.56678e-11
-2.58396e-10
-1.09312e-16
3.58331e-11
-2.63405e-10
-8.92156e-17
3.57464e-11
-2.67257e-10
-6.99276e-17
3.53946e-11
-2.70003e-10
-5.39479e-17
3.47686e-11
-2.71443e-10
-3.79422e-17
3.38627e-11
-2.71492e-10
-2.50042e-17
3.26738e-11
-2.70246e-10
-1.31829e-17
3.12049e-11
-2.67391e-10
-5.81302e-18
2.94613e-11
-2.63024e-10
-1.10858e-17
2.74538e-11
-2.56968e-10
-1.00884e-17
2.51979e-11
-2.49164e-10
-1.45942e-17
2.27129e-11
-2.3955e-10
-2.16292e-17
2.00261e-11
-2.27853e-10
-3.4278e-17
1.71713e-11
-2.13934e-10
-4.52135e-17
1.41928e-11
-1.97549e-10
-5.96516e-17
1.11508e-11
-1.78361e-10
-7.07881e-17
8.12949e-12
-1.56051e-10
-8.25814e-17
5.25323e-12
-1.30314e-10
-9.0366e-17
2.71316e-12
-1.00693e-10
-9.71688e-17
8.12628e-13
-6.63029e-11
-1.01724e-16
-2.4945e-11
-1.04257e-16
3.51872e-11
-2.3905e-10
-2.30952e-16
3.59914e-11
-2.46467e-10
-1.66795e-16
3.65853e-11
-2.5309e-10
-1.29276e-16
3.69494e-11
-2.58761e-10
-1.00463e-16
3.70653e-11
-2.63522e-10
-8.20394e-17
3.69185e-11
-2.67111e-10
-6.35906e-17
3.64968e-11
-2.69582e-10
-4.89266e-17
3.57921e-11
-2.70739e-10
-3.37559e-17
3.48e-11
-2.705e-10
-2.1638e-17
3.35189e-11
-2.68966e-10
-1.01701e-17
3.19536e-11
-2.65826e-10
-3.40812e-18
3.01106e-11
-2.61182e-10
-1.12956e-17
2.8003e-11
-2.54861e-10
-1.08166e-17
2.56478e-11
-2.46809e-10
-1.57672e-17
2.30662e-11
-2.36969e-10
-2.35539e-17
2.02876e-11
-2.25075e-10
-3.71349e-17
1.73478e-11
-2.10994e-10
-4.905e-17
1.42937e-11
-1.94496e-10
-6.44424e-17
1.11886e-11
-1.75257e-10
-7.64755e-17
8.12069e-12
-1.52984e-10
-8.91001e-17
5.21836e-12
-1.27413e-10
-9.75901e-17
2.67573e-12
-9.81521e-11
-1.0502e-16
7.92585e-13
-6.4422e-11
-1.10019e-16
-2.41547e-11
-1.12824e-16
3.66172e-11
-2.4004e-10
-2.19766e-16
3.74041e-11
-2.47255e-10
-1.53482e-16
3.79685e-11
-2.53656e-10
-1.15622e-16
3.8291e-11
-2.59084e-10
-8.94033e-17
3.83535e-11
-2.63586e-10
-7.22015e-17
3.81424e-11
-2.669e-10
-5.58506e-17
3.76462e-11
-2.69087e-10
-4.22292e-17
3.68581e-11
-2.69951e-10
-2.84848e-17
3.57753e-11
-2.69417e-10
-1.72368e-17
3.43974e-11
-2.67588e-10
-6.33601e-18
3.2731e-11
-2.64159e-10
-2.51834e-21
3.07847e-11
-2.59236e-10
-1.11111e-17
2.8573e-11
-2.52649e-10
-1.12367e-17
2.61152e-11
-2.44351e-10
-1.67962e-17
2.34343e-11
-2.34288e-10
-2.53511e-17
2.05615e-11
-2.22203e-10
-3.99591e-17
1.75353e-11
-2.07969e-10
-5.26977e-17
1.44047e-11
-1.91366e-10
-6.90904e-17
1.12362e-11
-1.7209e-10
-8.19055e-17
8.12146e-12
-1.49871e-10
-9.53964e-17
5.1926e-12
-1.24486e-10
-1.04611e-16
2.64572e-12
-9.56073e-11
-1.12746e-16
7.76375e-13
-6.2555e-11
-1.1828e-16
-2.33808e-11
-1.21063e-16
3.81146e-11
-2.41021e-10
-1.99809e-16
3.88816e-11
-2.48023e-10
-1.33156e-16
3.94131e-11
-2.54188e-10
-9.88064e-17
3.96902e-11
-2.59361e-10
-7.49283e-17
3.96951e-11
-2.63592e-10
-6.07991e-17
3.94152e-11
-2.66621e-10
-4.60405e-17
3.88399e-11
-2.68512e-10
-3.43909e-17
3.79637e-11
-2.69075e-10
-2.19075e-17
3.67853e-11
-2.68238e-10
-1.18609e-17
3.53061e-11
-2.66109e-10
-1.59731e-18
3.35344e-11
-2.62387e-10
3.80677e-18
3.14806e-11
-2.57182e-10
-9.9607e-18
2.91614e-11
-2.5033e-10
-1.08475e-17
2.65979e-11
-2.41788e-10
-1.70587e-17
2.38151e-11
-2.31506e-10
-2.65834e-17
2.08464e-11
-2.19235e-10
-4.23013e-17
1.77324e-11
-2.04856e-10
-5.62102e-17
1.45247e-11
-1.8816e-10
-7.368e-17
1.12926e-11
-1.68859e-10
-8.75357e-17
8.13109e-12
-1.46711e-10
-1.01966e-16
5.17522e-12
-1.21532e-10
-1.12029e-16
2.62239e-12
-9.30567e-11
-1.20915e-16
7.63516e-13
-6.06987e-11
-1.26969e-16
-2.26199e-11
-1.29943e-16
3.96783e-11
-2.41993e-10
-1.68638e-16
4.0422e-11
-2.48768e-10
-1.07959e-16
4.09169e-11
-2.54685e-10
-7.74586e-17
4.11444e-11
-2.59589e-10
-5.8678e-17
4.10873e-11
-2.63535e-10
-4.69045e-17
4.07339e-11
-2.66268e-10
-3.51484e-17
4.00746e-11
-2.67853e-10
-2.49586e-17
3.91055e-11
-2.68106e-10
-1.43707e-17
3.78269e-11
-2.6696e-10
-5.43976e-18
3.62418e-11
-2.64524e-10
3.95745e-18
3.43606e-11
-2.60506e-10
8.79487e-18
3.21955e-11
-2.55017e-10
-8.2174e-18
2.97654e-11
-2.479e-10
-9.96825e-18
2.70934e-11
-2.39116e-10
-1.70975e-17
2.42066e-11
-2.28619e-10
-2.76943e-17
2.11405e-11
-2.16169e-10
-4.46651e-17
1.79378e-11
-2.01654e-10
-5.963e-17
1.46526e-11
-1.84876e-10
-7.82532e-17
1.1357e-11
-1.65565e-10
-9.30506e-17
8.14872e-12
-1.43505e-10
-1.08458e-16
5.16541e-12
-1.18551e-10
-1.19393e-16
2.605e-12
-9.04987e-11
-1.29091e-16
7.53563e-13
-5.885e-11
-1.35741e-16
-2.18691e-11
-1.38625e-16
4.13068e-11
-2.42951e-10
-1.29473e-16
4.20235e-11
-2.49486e-10
-7.6781e-17
4.24778e-11
-2.5514e-10
-5.3943e-17
4.26513e-11
-2.59763e-10
-3.96205e-17
4.25274e-11
-2.63412e-10
-3.20856e-17
4.20955e-11
-2.65836e-10
-2.24702e-17
4.13473e-11
-2.67105e-10
-1.47221e-17
4.02803e-11
-2.6704e-10
-5.62883e-18
3.88966e-11
-2.65576e-10
1.86307e-18
3.72012e-11
-2.62829e-10
1.04138e-17
3.52063e-11
-2.58511e-10
1.40338e-17
3.29264e-11
-2.52737e-10
-5.31718e-18
3.03823e-11
-2.45356e-10
-8.11313e-18
2.75993e-11
-2.36333e-10
-1.61768e-17
2.46066e-11
-2.25627e-10
-2.80145e-17
2.14417e-11
-2.13005e-10
-4.63099e-17
1.81498e-11
-1.98362e-10
-6.2666e-17
1.47871e-11
-1.81514e-10
-8.25137e-17
1.14282e-11
-1.62208e-10
-9.85079e-17
8.17338e-12
-1.40252e-10
-1.14976e-16
5.1623e-12
-1.15542e-10
-1.26909e-16
2.59283e-12
-8.79318e-11
-1.37492e-16
7.46106e-13
-5.70062e-11
-1.44726e-16
-2.1126e-11
-1.47685e-16
4.29987e-11
-2.43892e-10
-8.18705e-17
4.36846e-11
-2.50172e-10
-4.27539e-17
4.40937e-11
-2.55549e-10
-2.74431e-17
4.42082e-11
-2.59878e-10
-1.99659e-17
4.40124e-11
-2.63217e-10
-1.54723e-17
4.34968e-11
-2.6532e-10
-9.36372e-18
4.26545e-11
-2.66263e-10
-3.19489e-18
4.14846e-11
-2.6587e-10
3.7803e-18
3.99911e-11
-2.64082e-10
1.0096e-17
3.81808e-11
-2.61019e-10
1.75692e-17
3.60684e-11
-2.56398e-10
2.05575e-17
3.36701e-11
-2.50339e-10
-1.74422e-18
3.10092e-11
-2.42695e-10
-5.69262e-18
2.81129e-11
-2.33436e-10
-1.50577e-17
2.50127e-11
-2.22527e-10
-2.83018e-17
2.17483e-11
-2.09741e-10
-4.80939e-17
1.83667e-11
-1.94982e-10
-6.57291e-17
1.49267e-11
-1.78075e-10
-8.68785e-17
1.15049e-11
-1.58788e-10
-1.0395e-16
8.20401e-12
-1.36953e-10
-1.21496e-16
5.16495e-12
-1.12505e-10
-1.34425e-16
2.58514e-12
-8.53547e-11
-1.45925e-16
7.40769e-13
-5.51648e-11
-1.53788e-16
-2.03883e-11
-1.56561e-16
4.47529e-11
-2.44813e-10
-3.04278e-17
4.54032e-11
-2.50823e-10
-5.97663e-18
4.57622e-11
-2.55909e-10
-9.0123e-19
4.58125e-11
-2.59928e-10
1.03864e-18
4.55395e-11
-2.62944e-10
9.46043e-19
4.49347e-11
-2.64716e-10
4.89193e-18
4.39928e-11
-2.65322e-10
8.56141e-18
4.27149e-11
-2.64592e-10
1.41102e-17
4.11067e-11
-2.62473e-10
1.89615e-17
3.91772e-11
-2.59089e-10
2.54834e-17
3.69432e-11
-2.54163e-10
2.70079e-17
3.44234e-11
-2.47819e-10
2.99276e-18
3.16429e-11
-2.39915e-10
-2.28429e-18
2.86315e-11
-2.30425e-10
-1.29016e-17
2.54226e-11
-2.19319e-10
-2.76386e-17
2.20579e-11
-2.06376e-10
-4.89401e-17
1.85868e-11
-1.91511e-10
-6.81377e-17
1.50698e-11
-1.7456e-10
-9.06235e-17
1.15859e-11
-1.55305e-10
-1.08998e-16
8.23948e-12
-1.33608e-10
-1.27695e-16
5.17242e-12
-1.09441e-10
-1.41736e-16
2.58123e-12
-8.27663e-11
-1.54229e-16
7.37208e-13
-5.3324e-11
-1.62713e-16
-1.96544e-11
-1.65414e-16
4.65678e-11
-2.45708e-10
2.29672e-17
4.71777e-11
-2.51432e-10
2.99541e-17
4.74811e-11
-2.56212e-10
2.58402e-17
4.74616e-11
-2.59908e-10
2.08638e-17
4.71055e-11
-2.62588e-10
1.79748e-17
4.64058e-11
-2.64016e-10
1.86416e-17
4.53588e-11
-2.64275e-10
2.10684e-17
4.39675e-11
-2.632e-10
2.46333e-17
4.22397e-11
-2.60745e-10
2.84636e-17
4.01867e-11
-2.57036e-10
3.37949e-17
3.78274e-11
-2.51804e-10
3.46862e-17
3.51828e-11
-2.45174e-10
8.27129e-18
3.22805e-11
-2.37013e-10
1.58021e-18
2.91522e-11
-2.27296e-10
-1.07126e-17
2.58336e-11
-2.16e-10
-2.71352e-17
2.23685e-11
-2.02912e-10
-5.01043e-17
1.8808e-11
-1.87952e-10
-7.07165e-17
1.52149e-11
-1.70968e-10
-9.45706e-17
1.16698e-11
-1.51762e-10
-1.14081e-16
8.27861e-12
-1.30219e-10
-1.33893e-16
5.18376e-12
-1.06348e-10
-1.49002e-16
2.58041e-12
-8.01659e-11
-1.62469e-16
7.35107e-13
-5.14821e-11
-1.71579e-16
-1.89227e-11
-1.73987e-16
4.84421e-11
-2.46572e-10
7.39403e-17
4.9006e-11
-2.51996e-10
6.39251e-17
4.9248e-11
-2.56454e-10
4.99332e-17
4.91526e-11
-2.59812e-10
4.00529e-17
4.87072e-11
-2.62143e-10
3.34509e-17
4.79066e-11
-2.63215e-10
3.26566e-17
4.67488e-11
-2.63117e-10
3.30658e-17
4.52386e-11
-2.6169e-10
3.56074e-17
4.33864e-11
-2.58892e-10
3.8175e-17
4.12054e-11
-2.54855e-10
4.25221e-17
3.87171e-11
-2.49315e-10
4.17615e-17
3.59448e-11
-2.42402e-10
1.4475e-17
3.29185e-11
-2.33986e-10
6.2346e-18
2.9672e-11
-2.2405e-10
-7.56745e-18
2.6243e-11
-2.12571e-10
-2.55949e-17
2.26775e-11
-1.99347e-10
-5.01533e-17
1.90284e-11
-1.84304e-10
-7.23502e-17
1.53602e-11
-1.67301e-10
-9.75576e-17
1.17552e-11
-1.48158e-10
-1.1836e-16
8.32019e-12
-1.26786e-10
-1.3934e-16
5.19799e-12
-1.03229e-10
-1.556e-16
2.58203e-12
-7.7553e-11
-1.70124e-16
7.34174e-13
-4.96377e-11
-1.79845e-16
-1.81921e-11
-1.82028e-16
5.03741e-11
-2.47401e-10
1.19778e-16
5.0886e-11
-2.52507e-10
9.3407e-17
5.10602e-11
-2.56628e-10
7.12484e-17
5.08825e-11
-2.59634e-10
5.63152e-17
5.03414e-11
-2.61602e-10
4.82425e-17
4.94336e-11
-2.62306e-10
4.51832e-17
4.81588e-11
-2.61842e-10
4.51624e-17
4.65243e-11
-2.60055e-10
4.61793e-17
4.45426e-11
-2.5691e-10
4.80516e-17
4.22294e-11
-2.52541e-10
5.11568e-17
3.96087e-11
-2.46693e-10
4.98242e-17
3.6706e-11
-2.39499e-10
2.08587e-17
3.35537e-11
-2.30834e-10
1.10594e-17
3.01879e-11
-2.20684e-10
-4.68172e-18
2.66482e-11
-2.09032e-10
-2.45001e-17
2.29827e-11
-1.95682e-10
-5.0735e-17
1.92459e-11
-1.80568e-10
-7.43098e-17
1.55039e-11
-1.6356e-10
-1.00824e-16
1.18404e-11
-1.44497e-10
-1.22693e-16
8.36297e-12
-1.23311e-10
-1.44739e-16
5.21415e-12
-1.00083e-10
-1.62044e-16
2.58545e-12
-7.49275e-11
-1.77533e-16
7.34142e-13
-4.779e-11
-1.8783e-16
-1.74616e-11
-1.89626e-16
5.23624e-11
-2.48187e-10
1.5778e-16
5.28156e-11
-2.52959e-10
1.16801e-16
5.29152e-11
-2.56727e-10
8.78888e-17
5.26481e-11
-2.59366e-10
7.02573e-17
5.20044e-11
-2.60958e-10
6.03984e-17
5.09827e-11
-2.61284e-10
5.71812e-17
4.95848e-11
-2.60443e-10
5.60664e-17
4.78204e-11
-2.5829e-10
5.66707e-17
4.57043e-11
-2.54793e-10
5.76167e-17
4.32546e-11
-2.50091e-10
5.97212e-17
4.0498e-11
-2.43936e-10
5.66189e-17
3.74625e-11
-2.36463e-10
2.77284e-17
3.41826e-11
-2.27554e-10
1.63305e-17
3.06967e-11
-2.17198e-10
-1.01953e-18
2.70463e-11
-2.05382e-10
-2.23334e-17
2.32814e-11
-1.91917e-10
-5.00403e-17
1.94583e-11
-1.76745e-10
-7.50306e-17
1.56442e-11
-1.59748e-10
-1.02762e-16
1.19239e-11
-1.40778e-10
-1.25788e-16
8.40569e-12
-1.19795e-10
-1.48919e-16
5.23129e-12
-9.69109e-11
-1.67324e-16
2.59006e-12
-7.22895e-11
-1.83861e-16
7.34763e-13
-4.59385e-11
-1.94712e-16
-1.67306e-11
-1.96159e-16
5.4405e-11
-2.48925e-10
1.83387e-16
5.47923e-11
-2.53346e-10
1.32897e-16
5.48099e-11
-2.56744e-10
9.96485e-17
5.4446e-11
-2.59001e-10
8.03173e-17
5.36926e-11
-2.60204e-10
7.10538e-17
5.25501e-11
-2.60141e-10
6.70813e-17
5.10228e-11
-2.58916e-10
6.65834e-17
4.91225e-11
-2.56389e-10
6.62574e-17
4.6867e-11
-2.52536e-10
6.68552e-17
4.42768e-11
-2.475e-10
6.76659e-17
4.13812e-11
-2.41039e-10
6.40909e-17
3.82104e-11
-2.33292e-10
3.43369e-17
3.48016e-11
-2.24144e-10
2.14136e-17
3.11951e-11
-2.13591e-10
2.0643e-18
2.74345e-11
-2.01621e-10
-2.08988e-17
2.35713e-11
-1.88054e-10
-5.00907e-17
1.96633e-11
-1.72838e-10
-7.62203e-17
1.57792e-11
-1.55865e-10
-1.05054e-16
1.20043e-11
-1.37005e-10
-1.28947e-16
8.44709e-12
-1.1624e-10
-1.52999e-16
5.24848e-12
-9.37151e-11
-1.72342e-16
2.59526e-12
-6.96396e-11
-1.89765e-16
7.35809e-13
-4.40828e-11
-2.01091e-16
-1.59987e-11
-2.02094e-16
5.64999e-11
-2.49606e-10
1.99302e-16
5.68136e-11
-2.53658e-10
1.40167e-16
5.67412e-11
-2.56671e-10
1.06018e-16
5.62727e-11
-2.58531e-10
8.74326e-17
5.54019e-11
-2.59333e-10
7.88196e-17
5.41315e-11
-2.58869e-10
7.61661e-17
5.24681e-11
-2.57252e-10
7.56078e-17
5.04263e-11
-2.54346e-10
7.5435e-17
4.80265e-11
-2.50136e-10
7.54028e-17
4.52917e-11
-2.44765e-10
7.51301e-17
4.22539e-11
-2.38e-10
6.97235e-17
3.89459e-11
-2.29983e-10
4.10103e-17
3.54071e-11
-2.20605e-10
2.66226e-17
3.16798e-11
-2.09863e-10
5.76628e-18
2.78096e-11
-1.97751e-10
-1.83457e-17
2.38496e-11
-1.84095e-10
-4.86967e-17
1.98588e-11
-1.68848e-10
-7.58827e-17
1.59069e-11
-1.51914e-10
-1.05675e-16
1.20799e-11
-1.3318e-10
-1.30477e-16
8.48593e-12
-1.12649e-10
-1.55458e-16
5.26478e-12
-9.04968e-11
-1.75765e-16
2.6005e-12
-6.69788e-11
-1.94141e-16
7.37067e-13
-4.22233e-11
-2.05917e-16
-1.52656e-11
-2.06491e-16
5.80269e-11
-2.45566e-10
2.75703e-16
5.8645e-11
-2.50223e-10
1.89961e-16
5.88766e-11
-2.53889e-10
1.39262e-16
5.87058e-11
-2.565e-10
1.07406e-16
5.81243e-11
-2.57949e-10
9.11159e-17
5.71281e-11
-2.58337e-10
8.52702e-17
5.57223e-11
-2.57463e-10
8.32915e-17
5.39162e-11
-2.55445e-10
8.42311e-17
5.1727e-11
-2.52156e-10
8.35911e-17
4.91779e-11
-2.47585e-10
8.33985e-17
4.62946e-11
-2.41881e-10
8.16937e-17
4.31119e-11
-2.34816e-10
7.59026e-17
3.96649e-11
-2.26536e-10
4.71386e-17
3.59953e-11
-2.16935e-10
3.14031e-17
3.21476e-11
-2.06015e-10
8.69697e-18
2.81688e-11
-1.93772e-10
-1.67367e-17
2.41137e-11
-1.8004e-10
-4.81991e-17
2.00425e-11
-1.64778e-10
-7.61606e-17
1.60255e-11
-1.47899e-10
-1.0674e-16
1.21491e-11
-1.29305e-10
-1.32149e-16
8.52095e-12
-1.09023e-10
-1.57834e-16
5.27929e-12
-8.7258e-11
-1.78912e-16
2.60525e-12
-6.43082e-11
-1.98012e-16
7.38338e-13
-4.03603e-11
-2.10121e-16
-1.45312e-11
-2.10233e-16
5.93626e-11
-2.41268e-10
2.83626e-16
6.02927e-11
-2.46495e-10
2.28659e-16
6.08377e-11
-2.50766e-10
1.75293e-16
6.09782e-11
-2.54028e-10
1.31431e-16
6.06998e-11
-2.56221e-10
1.05181e-16
5.99967e-11
-2.57245e-10
9.29154e-17
5.88667e-11
-2.57206e-10
8.96977e-17
5.73179e-11
-2.55913e-10
9.01021e-17
5.53621e-11
-2.53488e-10
9.16914e-17
5.30196e-11
-2.49813e-10
9.14636e-17
5.03164e-11
-2.44881e-10
9.0734e-17
4.72809e-11
-2.38845e-10
8.77365e-17
4.39507e-11
-2.31485e-10
8.00351e-17
4.03633e-11
-2.22948e-10
5.31552e-17
3.65625e-11
-2.13134e-10
3.61918e-17
3.25948e-11
-2.02047e-10
1.22303e-17
2.8509e-11
-1.89687e-10
-1.38845e-17
2.4361e-11
-1.75892e-10
-4.60691e-17
2.02121e-11
-1.6063e-10
-7.46468e-17
1.61331e-11
-1.43821e-10
-1.05859e-16
1.22103e-11
-1.25384e-10
-1.31901e-16
8.55093e-12
-1.05366e-10
-1.58316e-16
5.29115e-12
-8.40011e-11
-1.80177e-16
2.60897e-12
-6.16295e-11
-2.00071e-16
7.39438e-13
-3.84948e-11
-2.12487e-16
-1.37957e-11
-2.12124e-16
6.17463e-11
-2.42513e-10
2.33688e-16
6.26132e-11
-2.4736e-10
1.99193e-16
6.30753e-11
-2.51228e-10
1.55132e-16
6.31149e-11
-2.54067e-10
1.20761e-16
6.27194e-11
-2.55825e-10
1.00748e-16
6.18853e-11
-2.56409e-10
9.32663e-17
6.06129e-11
-2.55933e-10
9.40516e-17
5.89131e-11
-2.54212e-10
9.59021e-17
5.68007e-11
-2.51375e-10
9.93281e-17
5.4299e-11
-2.4731e-10
9.87543e-17
5.1437e-11
-2.42017e-10
9.774e-17
4.82458e-11
-2.35653e-10
9.30558e-17
4.47657e-11
-2.28004e-10
8.49401e-17
4.10367e-11
-2.19218e-10
5.86703e-17
3.71048e-11
-2.09201e-10
4.05549e-17
3.30182e-11
-1.9796e-10
1.50012e-17
2.88271e-11
-1.85495e-10
-1.20593e-17
2.45888e-11
-1.71654e-10
-4.49151e-17
2.03653e-11
-1.56407e-10
-7.38978e-17
1.62277e-11
-1.39685e-10
-1.05563e-16
1.22621e-11
-1.2142e-10
-1.31975e-16
8.57466e-12
-1.01681e-10
-1.58871e-16
5.29951e-12
-8.07288e-11
-1.81314e-16
2.61119e-12
-5.89446e-11
-2.0171e-16
7.40194e-13
-3.66277e-11
-2.14278e-16
-1.30595e-11
-2.13472e-16
6.41922e-11
-2.43706e-10
1.98069e-16
6.49857e-11
-2.48152e-10
1.68435e-16
6.53546e-11
-2.51596e-10
1.34328e-16
6.52829e-11
-2.53994e-10
1.08433e-16
6.47601e-11
-2.55302e-10
9.63036e-17
6.37852e-11
-2.55433e-10
9.40311e-17
6.23614e-11
-2.54509e-10
9.80696e-17
6.05026e-11
-2.52352e-10
1.0252e-16
5.82266e-11
-2.49098e-10
1.06688e-16
5.55599e-11
-2.44642e-10
1.06355e-16
5.25345e-11
-2.3899e-10
1.0458e-16
4.91843e-11
-2.32302e-10
9.8253e-17
4.55524e-11
-2.2437e-10
8.80424e-17
4.1681e-11
-2.15346e-10
6.42325e-17
3.76182e-11
-2.05138e-10
4.50553e-17
3.34141e-11
-1.93755e-10
1.85228e-17
2.912e-11
-1.81201e-10
-8.80696e-18
2.47944e-11
-1.67329e-10
-4.19476e-17
2.04998e-11
-1.52113e-10
-7.11745e-17
1.63074e-11
-1.35494e-10
-1.03167e-16
1.23029e-11
-1.17417e-10
-1.29999e-16
8.59098e-12
-9.79712e-11
-1.57439e-16
5.30354e-12
-7.74442e-11
-1.80487e-16
2.61143e-12
-5.62559e-11
-2.01457e-16
7.40444e-13
-3.47607e-11
-2.14156e-16
-1.2323e-11
-2.12863e-16
6.66985e-11
-2.44837e-10
1.60066e-16
6.74076e-11
-2.48861e-10
1.38732e-16
6.76722e-11
-2.5186e-10
1.13491e-16
6.7478e-11
-2.53799e-10
9.85439e-17
6.68171e-11
-2.54641e-10
9.32556e-17
6.56913e-11
-2.54306e-10
9.58452e-17
6.41068e-11
-2.52924e-10
1.03726e-16
6.20807e-11
-2.50325e-10
1.09505e-16
5.9634e-11
-2.46651e-10
1.15139e-16
5.67966e-11
-2.41803e-10
1.14188e-16
5.36034e-11
-2.35796e-10
1.11654e-16
5.00912e-11
-2.28788e-10
1.03279e-16
4.63058e-11
-2.20583e-10
9.2416e-17
4.22917e-11
-2.11331e-10
6.96125e-17
3.80989e-11