/*--------------------------------*- C++ -*----------------------------------*\
| =========                 |                                                 |
| \\      /  F ield         | OpenFOAM: The Open Source CFD Toolbox           |
|  \\    /   O peration     | Version:  v2012                                 |
|   \\  /    A nd           | Website:  www.openfoam.com                      |
|    \\/     M anipulation  |                                                 |
\*---------------------------------------------------------------------------*/
FoamFile
{
    version     2.0;
    format      ascii;
    class       volVectorField;
    location    "0.55";
    object      U;
}
// * * * * * * * * * * * * * * * * * * * * * * * * * * * * * * * * * * * * * //

dimensions      [0 1 -1 0 0 0 0];


internalField   nonuniform List<vector> 
2642
(
(0.000556309 -0.00310392 -4.85546e-06)
(0.000553281 -0.00298659 -4.82908e-06)
(0.000547507 -0.00286512 -4.77874e-06)
(0.000538934 -0.00274001 -4.70397e-06)
(0.000527533 -0.00261176 -4.60453e-06)
(0.000513313 -0.00248093 -4.48047e-06)
(0.000496318 -0.00234809 -4.33219e-06)
(0.000476628 -0.00221383 -4.16039e-06)
(0.000454366 -0.00207877 -3.96614e-06)
(0.000429688 -0.00194346 -3.75079e-06)
(0.00040279 -0.00180844 -3.51606e-06)
(0.000373909 -0.0016742 -3.26402e-06)
(0.000343315 -0.00154114 -2.99702e-06)
(0.000311316 -0.00140957 -2.71775e-06)
(0.000278248 -0.0012796 -2.42914e-06)
(0.000244477 -0.00115123 -2.13438e-06)
(0.000210405 -0.00102429 -1.83699e-06)
(0.000176451 -0.000898468 -1.54061e-06)
(0.000143065 -0.000773315 -1.24919e-06)
(0.000110731 -0.000648306 -9.66932e-07)
(7.99941e-05 -0.000522638 -6.98596e-07)
(5.1447e-05 -0.000394474 -4.49361e-07)
(2.61807e-05 -0.000259233 -2.28836e-07)
(4.78084e-06 -0.000103573 -4.49162e-08)
(0.000560005 -0.00312092 -4.88757e-06)
(0.000556687 -0.00300071 -4.85866e-06)
(0.000550629 -0.00287648 -4.80583e-06)
(0.000541775 -0.00274873 -4.7286e-06)
(0.0005301 -0.002618 -4.62675e-06)
(0.000515612 -0.00248484 -4.50036e-06)
(0.000498357 -0.00234984 -4.34982e-06)
(0.000478415 -0.00221361 -4.17583e-06)
(0.000455913 -0.00207677 -3.97948e-06)
(0.000431005 -0.00193988 -3.76214e-06)
(0.00040389 -0.00180347 -3.52553e-06)
(0.000374805 -0.00166806 -3.27173e-06)
(0.000344022 -0.00153404 -3.00309e-06)
(0.000311847 -0.00140169 -2.7223e-06)
(0.000278617 -0.00127115 -2.43229e-06)
(0.000244698 -0.0011424 -2.13627e-06)
(0.00021049 -0.00101528 -1.83771e-06)
(0.000176414 -0.000889453 -1.54029e-06)
(0.000142916 -0.000764468 -1.24791e-06)
(0.000110476 -0.0006398 -9.64754e-07)
(7.96383e-05 -0.000514653 -6.95569e-07)
(5.09809e-05 -0.000387242 -4.45407e-07)
(2.56132e-05 -0.000253023 -2.2411e-07)
(4.20094e-06 -9.95518e-05 -4.14548e-08)
(0.000566372 -0.00313513 -4.94318e-06)
(0.000562699 -0.00301274 -4.91116e-06)
(0.000556263 -0.00288632 -4.85503e-06)
(0.000547009 -0.00275642 -4.77431e-06)
(0.00053492 -0.00262357 -4.66885e-06)
(0.000520007 -0.00248836 -4.53873e-06)
(0.00050232 -0.00235142 -4.38442e-06)
(0.000481947 -0.00221334 -4.20665e-06)
(0.000459016 -0.00207479 -4.00657e-06)
(0.000433689 -0.00193633 -3.78556e-06)
(0.000406166 -0.00179852 -3.54539e-06)
(0.00037669 -0.00166188 -3.28817e-06)
(0.000345535 -0.0015268 -3.01628e-06)
(0.00031301 -0.00139359 -2.73244e-06)
(0.000279452 -0.00126239 -2.43957e-06)
(0.00024523 -0.00113317 -2.1409e-06)
(0.000210742 -0.00100577 -1.8399e-06)
(0.000176407 -0.000879847 -1.54023e-06)
(0.000142672 -0.000754968 -1.24578e-06)
(0.000110015 -0.000630603 -9.60735e-07)
(7.89772e-05 -0.000505964 -6.89815e-07)
(5.01398e-05 -0.000379324 -4.38089e-07)
(2.46507e-05 -0.000246192 -2.15765e-07)
(3.64484e-06 -9.52258e-05 -3.68356e-08)
(0.000575308 -0.00314881 -5.02118e-06)
(0.000571162 -0.00302419 -4.98503e-06)
(0.000564219 -0.00289558 -4.92448e-06)
(0.000554429 -0.00276356 -4.83908e-06)
(0.000541777 -0.00262866 -4.72871e-06)
(0.000526283 -0.0024915 -4.59354e-06)
(0.000508004 -0.00235271 -4.43405e-06)
(0.000487032 -0.00221292 -4.25106e-06)
(0.000463504 -0.00207279 -4.04576e-06)
(0.000437588 -0.00193289 -3.81961e-06)
(0.00040949 -0.0017938 -3.57442e-06)
(0.000379459 -0.00165605 -3.31236e-06)
(0.000347773 -0.00152002 -3.03583e-06)
(0.000314747 -0.00138604 -2.74761e-06)
(0.000280718 -0.00125424 -2.45063e-06)
(0.000246057 -0.0011246 -2.14813e-06)
(0.000211164 -0.000996958 -1.84359e-06)
(0.000176458 -0.000870972 -1.54068e-06)
(0.000142384 -0.000746199 -1.24327e-06)
(0.000109422 -0.000622118 -9.55564e-07)
(7.81182e-05 -0.000497949 -6.82319e-07)
(4.90803e-05 -0.000372032 -4.28837e-07)
(2.35219e-05 -0.000239983 -2.05895e-07)
(3.18405e-06 -9.15093e-05 -3.24242e-08)
(0.000586713 -0.00316261 -5.12072e-06)
(0.000581985 -0.00303568 -5.07949e-06)
(0.000574411 -0.00290483 -5.01344e-06)
(0.000563949 -0.00277062 -4.92218e-06)
(0.00055059 -0.00263364 -4.80563e-06)
(0.000534361 -0.00249449 -4.66405e-06)
(0.000515329 -0.00235383 -4.49799e-06)
(0.000493595 -0.00221231 -4.30835e-06)
(0.000469306 -0.00207058 -4.09641e-06)
(0.000442636 -0.00192926 -3.86368e-06)
(0.000413802 -0.0017889 -3.61207e-06)
(0.00038306 -0.00165005 -3.3438e-06)
(0.000350694 -0.00151311 -3.06134e-06)
(0.000317023 -0.00137838 -2.76749e-06)
(0.00028239 -0.00124602 -2.46524e-06)
(0.000247168 -0.00111599 -2.15784e-06)
(0.000211758 -0.000988135 -1.84879e-06)
(0.00017658 -0.000862108 -1.54175e-06)
(0.000142081 -0.000737465 -1.24064e-06)
(0.000108746 -0.000613688 -9.49674e-07)
(7.71339e-05 -0.000490012 -6.73732e-07)
(4.79017e-05 -0.000364851 -4.18549e-07)
(2.23475e-05 -0.000233995 -1.95622e-07)
(2.76984e-06 -8.81214e-05 -2.84385e-08)
(0.000600474 -0.00317641 -5.24083e-06)
(0.00059506 -0.00304714 -5.19362e-06)
(0.000586741 -0.002914 -5.12105e-06)
(0.000575478 -0.00277757 -5.02281e-06)
(0.000561273 -0.00263845 -4.89889e-06)
(0.000544164 -0.00249729 -4.74962e-06)
(0.000524227 -0.00235474 -4.57567e-06)
(0.000501576 -0.00221146 -4.37802e-06)
(0.000476367 -0.00206813 -4.15805e-06)
(0.000448787 -0.00192536 -3.91739e-06)
(0.000419064 -0.00178374 -3.65801e-06)
(0.000387461 -0.00164379 -3.38223e-06)
(0.000354272 -0.00150593 -3.09258e-06)
(0.000319822 -0.00137047 -2.79194e-06)
(0.00028446 -0.00123755 -2.48332e-06)
(0.000248561 -0.00110715 -2.17001e-06)
(0.000212531 -0.000979094 -1.85555e-06)
(0.000176791 -0.000853044 -1.54361e-06)
(0.000141793 -0.00072855 -1.23813e-06)
(0.00010803 -0.000605101 -9.43434e-07)
(7.60816e-05 -0.000481952 -6.64553e-07)
(4.66731e-05 -0.000357606 -4.07826e-07)
(2.11926e-05 -0.000228076 -1.85522e-07)
(2.39812e-06 -8.49257e-05 -2.48788e-08)
(0.000616495 -0.00319022 -5.38065e-06)
(0.000610295 -0.00305853 -5.32659e-06)
(0.000601116 -0.00292304 -5.24653e-06)
(0.000588929 -0.00278435 -5.14022e-06)
(0.000573746 -0.00264307 -5.00776e-06)
(0.000555616 -0.00249985 -4.84958e-06)
(0.000534629 -0.00235538 -4.66646e-06)
(0.00051091 -0.00221033 -4.4595e-06)
(0.000484632 -0.00206539 -4.2302e-06)
(0.000455994 -0.00192117 -3.9803e-06)
(0.000425235 -0.00177828 -3.71189e-06)
(0.00039263 -0.00163724 -3.42736e-06)
(0.000358483 -0.00149848 -3.12935e-06)
(0.000323128 -0.00136229 -2.82081e-06)
(0.000286919 -0.00122883 -2.5048e-06)
(0.000250238 -0.00109807 -2.18466e-06)
(0.000213493 -0.000969838 -1.86395e-06)
(0.00017711 -0.000843784 -1.5464e-06)
(0.000141547 -0.00071946 -1.23599e-06)
(0.000107312 -0.000596367 -9.37175e-07)
(7.50103e-05 -0.000473787 -6.55208e-07)
(4.54472e-05 -0.000350324 -3.97126e-07)
(2.00968e-05 -0.000222251 -1.7594e-07)
(2.07282e-06 -8.19202e-05 -2.17579e-08)
(0.00063469 -0.00320403 -5.53946e-06)
(0.000627605 -0.00306987 -5.47768e-06)
(0.000617457 -0.00293196 -5.38916e-06)
(0.000604224 -0.00279094 -5.27373e-06)
(0.000587933 -0.00264745 -5.1316e-06)
(0.000568645 -0.00250214 -4.96331e-06)
(0.000546467 -0.00235573 -4.7698e-06)
(0.000521538 -0.00220888 -4.55228e-06)
(0.000494047 -0.00206232 -4.31239e-06)
(0.000464208 -0.00191666 -4.05201e-06)
(0.000432274 -0.00177249 -3.77334e-06)
(0.000398534 -0.00163037 -3.4789e-06)
(0.000363302 -0.00149071 -3.17143e-06)
(0.000326923 -0.00135383 -2.85394e-06)
(0.000289758 -0.00121984 -2.52959e-06)
(0.000252195 -0.00108875 -2.20176e-06)
(0.000214648 -0.000960356 -1.87405e-06)
(0.00017755 -0.000834322 -1.55026e-06)
(0.000141366 -0.000710198 -1.23443e-06)
(0.000106625 -0.000587496 -9.31185e-07)
(7.39597e-05 -0.000465535 -6.46044e-07)
(4.42631e-05 -0.00034303 -3.86791e-07)
(1.9084e-05 -0.000216534 -1.67082e-07)
(1.79363e-06 -7.90947e-05 -1.90658e-08)
(0.000654983 -0.00321787 -5.71659e-06)
(0.000646915 -0.00308113 -5.64623e-06)
(0.000635687 -0.00294074 -5.54828e-06)
(0.00062129 -0.00279733 -5.42269e-06)
(0.000603763 -0.00265156 -5.26978e-06)
(0.000583185 -0.00250413 -5.09024e-06)
(0.000559678 -0.00235573 -4.88513e-06)
(0.000533401 -0.00220708 -4.65584e-06)
(0.000504558 -0.00205888 -4.40416e-06)
(0.000473382 -0.00191176 -4.1321e-06)
(0.00044014 -0.00176634 -3.84202e-06)
(0.000405137 -0.00162315 -3.53656e-06)
(0.000368701 -0.00148261 -3.21857e-06)
(0.000331186 -0.00134504 -2.89117e-06)
(0.000292963 -0.00121056 -2.55759e-06)
(0.000254428 -0.00107915 -2.22127e-06)
(0.000216002 -0.000950626 -1.88589e-06)
(0.000178124 -0.000824642 -1.55528e-06)
(0.000141272 -0.000700753 -1.23362e-06)
(0.000105995 -0.000578484 -9.25695e-07)
(7.2961e-05 -0.0004572 -6.37333e-07)
(4.31482e-05 -0.000335736 -3.77059e-07)
(1.81662e-05 -0.00021093 -1.59056e-07)
(1.55668e-06 -7.64338e-05 -1.67706e-08)
(0.000677306 -0.00323172 -5.91143e-06)
(0.000668156 -0.00309232 -5.83163e-06)
(0.000655739 -0.00294935 -5.72331e-06)
(0.000640059 -0.00280349 -5.58651e-06)
(0.000621172 -0.00265539 -5.42173e-06)
(0.000599173 -0.00250578 -5.22979e-06)
(0.000574204 -0.00235537 -5.01193e-06)
(0.000546443 -0.00220488 -4.76969e-06)
(0.000516115 -0.00205503 -4.50505e-06)
(0.00048347 -0.00190646 -4.22017e-06)
(0.000448794 -0.00175977 -3.91757e-06)
(0.000412408 -0.00161552 -3.60004e-06)
(0.000374653 -0.00147413 -3.27054e-06)
(0.000335898 -0.00133589 -2.93232e-06)
(0.000296523 -0.00120094 -2.58867e-06)
(0.000256932 -0.00106925 -2.24314e-06)
(0.000217555 -0.000940627 -1.89946e-06)
(0.000178841 -0.000814729 -1.56155e-06)
(0.000141278 -0.000691113 -1.23369e-06)
(0.000105443 -0.000569326 -9.20889e-07)
(7.20373e-05 -0.000448784 -6.29276e-07)
(4.21207e-05 -0.000328445 -3.68091e-07)
(1.73476e-05 -0.000205433 -1.51896e-07)
(1.35726e-06 -7.39179e-05 -1.4832e-08)
(0.000701599 -0.00324559 -6.12346e-06)
(0.000691266 -0.00310342 -6.03334e-06)
(0.000677549 -0.00295779 -5.91368e-06)
(0.000660467 -0.00280939 -5.76465e-06)
(0.000640095 -0.0026589 -5.58691e-06)
(0.000616546 -0.00250706 -5.38145e-06)
(0.000589985 -0.0023546 -5.14969e-06)
(0.00056061 -0.00220225 -4.89336e-06)
(0.000528666 -0.00205073 -4.61462e-06)
(0.000494425 -0.0019007 -4.31582e-06)
(0.000458194 -0.00175277 -3.99964e-06)
(0.000420309 -0.00160747 -3.66903e-06)
(0.000381129 -0.00146523 -3.32709e-06)
(0.000341036 -0.00132636 -2.97719e-06)
(0.000300421 -0.00119096 -2.62272e-06)
(0.000259698 -0.00105902 -2.26731e-06)
(0.000219306 -0.000930341 -1.91476e-06)
(0.000179705 -0.000804568 -1.56911e-06)
(0.000141398 -0.000681271 -1.23474e-06)
(0.000104986 -0.00056002 -9.16904e-07)
(7.12051e-05 -0.000440287 -6.22019e-07)
(4.11915e-05 -0.00032116 -3.5998e-07)
(1.66272e-05 -0.000200038 -1.45595e-07)
(1.19072e-06 -7.15285e-05 -1.32073e-08)
(0.000727806 -0.00325948 -6.35221e-06)
(0.000716187 -0.00311443 -6.25086e-06)
(0.000701058 -0.00296604 -6.11888e-06)
(0.000682455 -0.00281501 -5.95658e-06)
(0.000660473 -0.00266207 -5.76479e-06)
(0.000635248 -0.00250794 -5.5447e-06)
(0.000606965 -0.00235339 -5.29791e-06)
(0.000575846 -0.00219915 -5.02637e-06)
(0.000542162 -0.00204595 -4.73243e-06)
(0.000506203 -0.00189446 -4.41864e-06)
(0.0004683 -0.00174528 -4.08787e-06)
(0.000428808 -0.00159895 -3.74323e-06)
(0.000388101 -0.0014559 -3.38797e-06)
(0.000346578 -0.00131641 -3.02558e-06)
(0.000304641 -0.00118061 -2.65958e-06)
(0.000262717 -0.00104846 -2.29368e-06)
(0.000221253 -0.000919753 -1.93177e-06)
(0.00018072 -0.000794148 -1.57799e-06)
(0.000141637 -0.00067122 -1.23685e-06)
(0.000104633 -0.000550563 -9.13835e-07)
(7.04753e-05 -0.000431713 -6.15655e-07)
(4.03662e-05 -0.000313883 -3.52777e-07)
(1.60009e-05 -0.000194734 -1.40116e-07)
(1.05263e-06 -6.92487e-05 -1.1856e-08)
(0.000755878 -0.00327337 -6.59724e-06)
(0.000742866 -0.00312533 -6.48373e-06)
(0.000726211 -0.00297407 -6.33843e-06)
(0.000705966 -0.00282033 -6.16181e-06)
(0.00068225 -0.00266485 -5.95488e-06)
(0.00065522 -0.00250839 -5.71904e-06)
(0.000625087 -0.0023517 -5.45611e-06)
(0.000592099 -0.00219554 -5.16825e-06)
(0.000556551 -0.00204066 -4.85805e-06)
(0.000518757 -0.0018877 -4.52824e-06)
(0.00047907 -0.00173728 -4.1819e-06)
(0.000437866 -0.00158994 -3.82232e-06)
(0.000395537 -0.0014461 -3.45291e-06)
(0.000352499 -0.00130603 -3.07729e-06)
(0.000309166 -0.00116986 -2.6991e-06)
(0.000265977 -0.00103753 -2.32215e-06)
(0.000223389 -0.000908849 -1.95043e-06)
(0.000181886 -0.000783461 -1.58818e-06)
(0.000142002 -0.000660956 -1.24005e-06)
(0.000104392 -0.000540956 -9.1174e-07)
(6.9854e-05 -0.000423061 -6.10238e-07)
(3.9646e-05 -0.000306611 -3.46492e-07)
(1.54628e-05 -0.000189512 -1.3541e-07)
(9.3894e-07 -6.70628e-05 -1.07398e-08)
(0.000785773 -0.00328727 -6.85817e-06)
(0.000771257 -0.00313609 -6.73154e-06)
(0.000752956 -0.00298186 -6.57188e-06)
(0.000730947 -0.00282532 -6.37986e-06)
(0.000705369 -0.00266723 -6.15669e-06)
(0.000676407 -0.00250836 -5.90398e-06)
(0.000644298 -0.0023495 -5.62381e-06)
(0.000609316 -0.00219139 -5.31855e-06)
(0.000571783 -0.0020348 -4.99102e-06)
(0.00053204 -0.00188038 -4.6442e-06)
(0.000490461 -0.00172874 -4.28136e-06)
(0.000447446 -0.00158041 -3.90597e-06)
(0.000403406 -0.0014358 -3.52162e-06)
(0.000358773 -0.00129519 -3.13208e-06)
(0.000313975 -0.00115869 -2.7411e-06)
(0.000269463 -0.00102623 -2.3526e-06)
(0.000225705 -0.000897618 -1.97067e-06)
(0.000183199 -0.000772499 -1.59966e-06)
(0.000142492 -0.000650473 -1.24434e-06)
(0.000104265 -0.000531195 -9.10645e-07)
(6.93432e-05 -0.000414331 -6.05786e-07)
(3.90293e-05 -0.000299342 -3.41111e-07)
(1.50061e-05 -0.000184363 -1.31416e-07)
(8.4601e-07 -6.49564e-05 -9.82513e-09)
(0.000817449 -0.00330115 -7.13466e-06)
(0.000801314 -0.00314671 -6.99389e-06)
(0.000781245 -0.00298938 -6.81881e-06)
(0.000757345 -0.00282994 -6.61029e-06)
(0.000729777 -0.00266916 -6.36975e-06)
(0.000698754 -0.00250783 -6.09906e-06)
(0.000664542 -0.00234674 -5.80053e-06)
(0.000627443 -0.00218667 -5.47679e-06)
(0.000587807 -0.00202836 -5.13092e-06)
(0.000546003 -0.00187248 -4.76611e-06)
(0.00050243 -0.00171962 -4.38586e-06)
(0.00045751 -0.00157033 -3.99384e-06)
(0.000411674 -0.00142499 -3.59381e-06)
(0.000365371 -0.00128387 -3.1897e-06)
(0.000319046 -0.00114708 -2.78538e-06)
(0.000273159 -0.00101454 -2.38488e-06)
(0.000228191 -0.000886049 -1.9924e-06)
(0.000184652 -0.000761255 -1.61237e-06)
(0.000143105 -0.00063977 -1.24971e-06)
(0.000104252 -0.000521282 -9.10545e-07)
(6.8942e-05 -0.000405523 -6.02291e-07)
(3.85121e-05 -0.000292074 -3.36597e-07)
(1.46234e-05 -0.000179276 -1.28069e-07)
(7.70661e-07 -6.29167e-05 -9.08141e-09)
(0.000850872 -0.003315 -7.42639e-06)
(0.000832994 -0.00315715 -7.27042e-06)
(0.000811031 -0.0029966 -7.07881e-06)
(0.000785109 -0.00283416 -6.85264e-06)
(0.00075542 -0.0026706 -6.59359e-06)
(0.000722207 -0.00250675 -6.30378e-06)
(0.000685764 -0.0023434 -5.98579e-06)
(0.000646425 -0.00218133 -5.64251e-06)
(0.000604571 -0.00202129 -5.27727e-06)
(0.000560598 -0.00186395 -4.89353e-06)
(0.000514931 -0.0017099 -4.495e-06)
(0.000468016 -0.00155966 -4.08557e-06)
(0.000420306 -0.00141363 -3.66918e-06)
(0.000372265 -0.00127205 -3.2499e-06)
(0.000324354 -0.00113502 -2.83175e-06)
(0.000277047 -0.00100245 -2.41884e-06)
(0.000230834 -0.000874135 -2.01549e-06)
(0.000186239 -0.000749724 -1.62623e-06)
(0.000143837 -0.000628844 -1.25611e-06)
(0.00010435 -0.000511215 -9.11411e-07)
(6.86465e-05 -0.000396635 -5.99719e-07)
(3.80886e-05 -0.000284801 -3.32903e-07)
(1.43073e-05 -0.000174241 -1.25305e-07)
(7.10127e-07 -6.09322e-05 -8.48281e-09)
(0.000886009 -0.00332879 -7.73308e-06)
(0.000866259 -0.00316739 -7.56078e-06)
(0.000842269 -0.00300349 -7.35147e-06)
(0.00081419 -0.00283794 -7.10649e-06)
(0.000782246 -0.00267153 -6.82776e-06)
(0.00074671 -0.00250509 -6.51768e-06)
(0.000707909 -0.00233943 -6.1791e-06)
(0.00066621 -0.00217533 -5.81522e-06)
(0.000622023 -0.00201356 -5.42963e-06)
(0.000575775 -0.00185477 -5.02603e-06)
(0.000527919 -0.00169954 -4.6084e-06)
(0.000478923 -0.0015484 -4.18081e-06)
(0.000429263 -0.00140171 -3.7474e-06)
(0.000379423 -0.00125972 -3.31241e-06)
(0.000329875 -0.00112249 -2.87996e-06)
(0.000281106 -0.000989947 -2.4543e-06)
(0.000233619 -0.000861867 -2.03982e-06)
(0.000187947 -0.000737903 -1.64116e-06)
(0.000144679 -0.000617693 -1.26347e-06)
(0.000104553 -0.000500993 -9.13191e-07)
(6.84511e-05 -0.000387668 -5.9802e-07)
(3.77521e-05 -0.000277518 -3.29968e-07)
(1.40507e-05 -0.000169248 -1.23061e-07)
(6.62031e-07 -5.89929e-05 -8.00618e-09)
(0.000922828 -0.00334249 -8.05446e-06)
(0.000901071 -0.00317738 -7.86464e-06)
(0.000874914 -0.00301002 -7.63643e-06)
(0.000844539 -0.00284124 -7.3714e-06)
(0.000810201 -0.00267189 -7.07179e-06)
(0.000772208 -0.0025028 -6.74027e-06)
(0.000730921 -0.00233479 -6.37999e-06)
(0.000686739 -0.00216865 -5.99444e-06)
(0.000640108 -0.00200514 -5.58751e-06)
(0.000591482 -0.0018449 -5.16316e-06)
(0.000541344 -0.00168853 -4.72561e-06)
(0.000490188 -0.0015365 -4.27916e-06)
(0.000438509 -0.0013892 -3.82813e-06)
(0.00038681 -0.00124684 -3.37692e-06)
(0.000335579 -0.00110948 -2.92978e-06)
(0.000285314 -0.000977024 -2.49106e-06)
(0.000236528 -0.000849241 -2.06523e-06)
(0.000189764 -0.000725787 -1.65704e-06)
(0.000145621 -0.000606317 -1.27172e-06)
(0.000104852 -0.000490617 -9.15818e-07)
(6.83483e-05 -0.000378618 -5.9713e-07)
(3.74951e-05 -0.000270222 -3.27728e-07)
(1.38465e-05 -0.000164287 -1.21275e-07)
(6.2434e-07 -5.70897e-05 -7.63234e-09)
(0.0009613 -0.00335607 -8.39027e-06)
(0.000937392 -0.0031871 -8.18168e-06)
(0.000908922 -0.00301612 -7.93328e-06)
(0.000876106 -0.00284402 -7.64695e-06)
(0.000839233 -0.00267164 -7.32521e-06)
(0.000798646 -0.00249984 -6.97105e-06)
(0.000754743 -0.00232945 -6.58795e-06)
(0.000707958 -0.00216124 -6.17968e-06)
(0.00065877 -0.00199599 -5.75044e-06)
(0.000607667 -0.00183432 -5.30446e-06)
(0.000555158 -0.00167682 -4.84622e-06)
(0.000501764 -0.00152396 -4.38024e-06)
(0.000448002 -0.00137609 -3.91103e-06)
(0.000394393 -0.00123342 -3.44314e-06)
(0.000341437 -0.00109598 -2.98094e-06)
(0.000289646 -0.000963672 -2.5289e-06)
(0.000239541 -0.000836252 -2.09156e-06)
(0.000191675 -0.000713376 -1.67374e-06)
(0.000146653 -0.000594714 -1.28074e-06)
(0.000105239 -0.000480086 -9.19207e-07)
(6.83295e-05 -0.000369485 -5.96974e-07)
(3.73093e-05 -0.000262906 -3.2611e-07)
(1.36882e-05 -0.00015935 -1.19892e-07)
(5.9532e-07 -5.52151e-05 -7.34417e-09)
(0.0010014 -0.00336949 -8.74028e-06)
(0.000975186 -0.00319649 -8.51158e-06)
(0.00094425 -0.00302177 -8.24166e-06)
(0.000908842 -0.00284624 -7.93271e-06)
(0.000869287 -0.00267075 -7.58756e-06)
(0.000825966 -0.00249617 -7.20955e-06)
(0.000779316 -0.00232335 -6.80246e-06)
(0.000729806 -0.00215306 -6.37041e-06)
(0.000677952 -0.00198607 -5.9179e-06)
(0.000624273 -0.00182299 -5.44945e-06)
(0.000569309 -0.00166439 -4.96978e-06)
(0.000513605 -0.00151074 -4.48363e-06)
(0.000457701 -0.00136236 -3.99572e-06)
(0.000402133 -0.00121943 -3.51073e-06)
(0.000347419 -0.00108198 -3.03318e-06)
(0.000294077 -0.000949886 -2.5676e-06)
(0.000242639 -0.000822897 -2.11862e-06)
(0.000193662 -0.000700669 -1.6911e-06)
(0.00014776 -0.000582886 -1.29041e-06)
(0.000105702 -0.000469401 -9.23261e-07)
(6.83849e-05 -0.000360267 -5.97465e-07)
(3.71866e-05 -0.000255567 -3.25042e-07)
(1.35696e-05 -0.00015443 -1.18856e-07)
(5.735e-07 -5.33622e-05 -7.12766e-09)
(0.0010431 -0.0033827 -9.10425e-06)
(0.00101442 -0.00320551 -8.85402e-06)
(0.000980854 -0.00302691 -8.56117e-06)
(0.000942695 -0.00284783 -8.22822e-06)
(0.000900308 -0.00266915 -7.85835e-06)
(0.000854111 -0.00249174 -7.45523e-06)
(0.000804579 -0.00231646 -7.02301e-06)
(0.000752223 -0.00214407 -6.56612e-06)
(0.000697594 -0.00197534 -6.08939e-06)
(0.000641245 -0.00181088 -5.59762e-06)
(0.000583743 -0.00165123 -5.09581e-06)
(0.000525662 -0.00149683 -4.58891e-06)
(0.000467561 -0.00134799 -4.08181e-06)
(0.000409994 -0.00120487 -3.57938e-06)
(0.00035349 -0.00106748 -3.0862e-06)
(0.000298578 -0.000935661 -2.60692e-06)
(0.000245796 -0.000809173 -2.1462e-06)
(0.000195707 -0.000687665 -1.70898e-06)
(0.000148927 -0.000570834 -1.30062e-06)
(0.000106229 -0.000458563 -9.27873e-07)
(6.85042e-05 -0.000350963 -5.98515e-07)
(3.71183e-05 -0.0002482 -3.2445e-07)
(1.3485e-05 -0.000149519 -1.18118e-07)
(5.57629e-07 -5.15253e-05 -6.97026e-09)
(0.00108637 -0.00339565 -9.48194e-06)
(0.00105505 -0.00321411 -9.20868e-06)
(0.00101869 -0.00303149 -8.89142e-06)
(0.000977615 -0.00284875 -8.53304e-06)
(0.000932238 -0.00266679 -8.13708e-06)
(0.000883018 -0.0024865 -7.70758e-06)
(0.000830472 -0.00230872 -7.24904e-06)
(0.000775148 -0.00213424 -6.76626e-06)
(0.000717637 -0.00196378 -6.26437e-06)
(0.000658523 -0.00179796 -5.74848e-06)
(0.000598407 -0.0016373 -5.22384e-06)
(0.000537884 -0.0014822 -4.69563e-06)
(0.000477536 -0.00133296 -4.16892e-06)
(0.000417933 -0.00118972 -3.64871e-06)
(0.000359616 -0.00105245 -3.13971e-06)
(0.000303121 -0.000920993 -2.6466e-06)
(0.000248991 -0.000795081 -2.17411e-06)
(0.000197791 -0.000674366 -1.72719e-06)
(0.000150139 -0.00055856 -1.31122e-06)
(0.000106807 -0.000447574 -9.32928e-07)
(6.86765e-05 -0.000341573 -6.00027e-07)
(3.7096e-05 -0.000240802 -3.24259e-07)
(1.34289e-05 -0.000144612 -1.17628e-07)
(5.46644e-07 -4.96998e-05 -6.86174e-09)
(0.00113118 -0.00340828 -9.87311e-06)
(0.00109704 -0.00322221 -9.57523e-06)
(0.0010577 -0.00303543 -9.232e-06)
(0.00101355 -0.00284893 -8.8467e-06)
(0.000965018 -0.00266362 -8.42324e-06)
(0.000912625 -0.00248039 -7.96605e-06)
(0.000856928 -0.0023001 -7.48e-06)
(0.000798515 -0.00212351 -6.97025e-06)
(0.000738015 -0.00195135 -6.44228e-06)
(0.000676048 -0.0017842 -5.90148e-06)
(0.000613242 -0.00162257 -5.35336e-06)
(0.000550219 -0.00146684 -4.80334e-06)
(0.00048758 -0.00131727 -4.25663e-06)
(0.000425911 -0.00117398 -3.71838e-06)
(0.000365761 -0.00103691 -3.19338e-06)
(0.000307674 -0.000905881 -2.68637e-06)
(0.000252196 -0.00078062 -2.20212e-06)
(0.000199893 -0.000660775 -1.74555e-06)
(0.000151379 -0.000546066 -1.32205e-06)
(0.000107421 -0.000436435 -9.38303e-07)
(6.88906e-05 -0.000332098 -6.01903e-07)
(3.71113e-05 -0.000233371 -3.24397e-07)
(1.33963e-05 -0.000139704 -1.17345e-07)
(5.39644e-07 -4.78814e-05 -6.7929e-09)
(0.00117751 -0.00342053 -1.02775e-05)
(0.00114035 -0.00322975 -9.95332e-06)
(0.00109785 -0.00303868 -9.58248e-06)
(0.00105043 -0.00284831 -9.16869e-06)
(0.000998586 -0.00265957 -8.71628e-06)
(0.000942867 -0.00247337 -8.23005e-06)
(0.00088388 -0.00229054 -7.7153e-06)
(0.000822256 -0.00211184 -7.17752e-06)
(0.000758664 -0.00193801 -6.62256e-06)
(0.000693755 -0.00176958 -6.05609e-06)
(0.000628189 -0.00160703 -5.48388e-06)
(0.000562613 -0.00145073 -4.91155e-06)
(0.000497644 -0.0013009 -4.34451e-06)
(0.000433883 -0.00115763 -3.788e-06)
(0.000371887 -0.00102084 -3.24689e-06)
(0.000312206 -0.000890324 -2.72596e-06)
(0.000255386 -0.000765793 -2.22998e-06)
(0.00020199 -0.000646894 -1.76388e-06)
(0.000152628 -0.000533356 -1.33297e-06)
(0.000108058 -0.00042515 -9.43873e-07)
(6.91349e-05 -0.000322538 -6.04043e-07)
(3.71558e-05 -0.000225904 -3.2479e-07)
(1.33824e-05 -0.000134791 -1.17226e-07)
(5.35858e-07 -4.6067e-05 -6.75621e-09)
(0.00122532 -0.00343231 -1.06948e-05)
(0.00118495 -0.00323667 -1.03426e-05)
(0.00113909 -0.00304117 -9.94241e-06)
(0.00108821 -0.00284683 -9.49851e-06)
(0.00103288 -0.00265459 -9.01562e-06)
(0.000973675 -0.00246536 -8.499e-06)
(0.000911259 -0.00227998 -7.95432e-06)
(0.000846302 -0.0020992 -7.38746e-06)
(0.000779514 -0.00192371 -6.80459e-06)
(0.00071158 -0.00175405 -6.21172e-06)
(0.000643188 -0.00159065 -5.61484e-06)
(0.000575008 -0.00143385 -5.01979e-06)
(0.000507676 -0.00128384 -4.43212e-06)
(0.000441804 -0.00114068 -3.85718e-06)
(0.000377957 -0.00100424 -3.29989e-06)
(0.000316684 -0.000874323 -2.76507e-06)
(0.000258533 -0.000750604 -2.25747e-06)
(0.00020406 -0.000632728 -1.78196e-06)
(0.000153867 -0.000520436 -1.3438e-06)
(0.000108702 -0.000413722 -9.49506e-07)
(6.93978e-05 -0.000312895 -6.06346e-07)
(3.72214e-05 -0.000218402 -3.25367e-07)
(1.3383e-05 -0.00012987 -1.17233e-07)
(5.34628e-07 -4.42539e-05 -6.74488e-09)
(0.00127458 -0.00344355 -1.11249e-05)
(0.00123077 -0.00324287 -1.07426e-05)
(0.00118134 -0.00304281 -1.03113e-05)
(0.00112683 -0.0028444 -9.83559e-06)
(0.00106782 -0.0026486 -9.32069e-06)
(0.00100498 -0.00245632 -8.77227e-06)
(0.00093899 -0.00226839 -8.19642e-06)
(0.00087058 -0.00208553 -7.59941e-06)
(0.000800495 -0.00190843 -6.98777e-06)
(0.000729455 -0.00173759 -6.36779e-06)
(0.000658175 -0.00157341 -5.7457e-06)
(0.000587348 -0.00141619 -5.12755e-06)
(0.000517626 -0.00126608 -4.519e-06)
(0.00044963 -0.0011231 -3.92552e-06)
(0.000383929 -0.00098712 -3.35206e-06)
(0.000321074 -0.00085788 -2.80342e-06)
(0.000261607 -0.000735055 -2.28434e-06)
(0.000206079 -0.000618283 -1.79961e-06)
(0.000155078 -0.000507311 -1.35439e-06)
(0.000109338 -0.000402156 -9.5507e-07)
(6.96678e-05 -0.000303172 -6.0871e-07)
(3.73001e-05 -0.000210863 -3.26058e-07)
(1.33939e-05 -0.000124939 -1.1733e-07)
(5.35389e-07 -4.24403e-05 -6.75324e-09)
(0.00132526 -0.00345416 -1.15672e-05)
(0.00127778 -0.00324827 -1.11529e-05)
(0.00122457 -0.00304352 -1.06886e-05)
(0.00116621 -0.00284095 -1.01794e-05)
(0.00110335 -0.00264154 -9.63082e-06)
(0.0010367 -0.00244618 -9.04917e-06)
(0.000966996 -0.0022557 -8.44092e-06)
(0.000895012 -0.0020708 -7.81272e-06)
(0.000821532 -0.00189214 -7.17145e-06)
(0.000747309 -0.00172017 -6.52368e-06)
(0.000673085 -0.00155528 -5.87589e-06)
(0.000599573 -0.00139772 -5.2343e-06)
(0.000527438 -0.00124761 -4.6047e-06)
(0.000457312 -0.00110491 -3.99261e-06)
(0.000389763 -0.00096947 -3.40301e-06)
(0.000325342 -0.000840999 -2.8407e-06)
(0.000264582 -0.000719155 -2.31032e-06)
(0.000208023 -0.000603566 -1.8166e-06)
(0.000156242 -0.000493988 -1.36456e-06)
(0.000109951 -0.000390459 -9.60431e-07)
(6.99333e-05 -0.000293372 -6.11035e-07)
(3.73843e-05 -0.000203288 -3.26798e-07)
(1.34112e-05 -0.000119998 -1.17484e-07)
(5.3765e-07 -4.06247e-05 -6.77619e-09)
(0.00137731 -0.00346405 -1.20215e-05)
(0.00132592 -0.00325278 -1.15731e-05)
(0.00126869 -0.00304321 -1.10738e-05)
(0.00120628 -0.00283641 -1.05292e-05)
(0.00113938 -0.00263333 -9.94535e-06)
(0.00106875 -0.00243487 -9.32902e-06)
(0.000995195 -0.00224185 -8.68711e-06)
(0.000919519 -0.00205495 -8.02668e-06)
(0.000842549 -0.00187478 -7.35495e-06)
(0.00076507 -0.00170177 -6.67875e-06)
(0.00068785 -0.00153625 -6.00482e-06)
(0.000611621 -0.00137845 -5.3395e-06)
(0.00053706 -0.00122842 -4.68872e-06)
(0.000464802 -0.0010861 -4.05803e-06)
(0.000395418 -0.000951295 -3.4524e-06)
(0.00032945 -0.000823685 -2.87659e-06)
(0.000267425 -0.000702909 -2.33516e-06)
(0.000209868 -0.000588586 -1.83272e-06)
(0.000157338 -0.000480475 -1.37415e-06)
(0.000110525 -0.000378636 -9.65455e-07)
(7.01829e-05 -0.0002835 -6.13221e-07)
(3.74665e-05 -0.000195681 -3.2752e-07)
(1.34315e-05 -0.000115045 -1.17662e-07)
(5.40988e-07 -3.88063e-05 -6.8094e-09)
(0.00147969 -0.00369107 -1.29151e-05)
(0.00143068 -0.0034731 -1.24874e-05)
(0.00137513 -0.0032563 -1.20027e-05)
(0.00131365 -0.00304179 -1.14663e-05)
(0.00124696 -0.00283066 -1.08843e-05)
(0.00117583 -0.00262388 -1.02635e-05)
(0.00110106 -0.00242233 -9.61106e-06)
(0.0010235 -0.00222679 -8.93425e-06)
(0.000944016 -0.00203793 -8.24056e-06)
(0.000863464 -0.00185632 -7.53756e-06)
(0.000782662 -0.00168235 -6.83236e-06)
(0.000702401 -0.00151631 -6.13187e-06)
(0.000623429 -0.00135835 -5.44262e-06)
(0.000546433 -0.00120851 -4.77058e-06)
(0.000472052 -0.00106668 -4.12134e-06)
(0.00040085 -0.000932601 -3.49985e-06)
(0.000333365 -0.000805947 -2.91078e-06)
(0.000270108 -0.000686327 -2.3586e-06)
(0.00021159 -0.00057335 -1.84777e-06)
(0.000158348 -0.00046678 -1.38297e-06)
(0.000111046 -0.000366695 -9.70007e-07)
(7.04054e-05 -0.000273561 -6.15169e-07)
(3.75395e-05 -0.000188044 -3.28161e-07)
(1.34512e-05 -0.000110083 -1.17837e-07)
(5.4503e-07 -3.69847e-05 -6.84891e-09)
(0.00158469 -0.00393039 -1.38314e-05)
(0.00153864 -0.00370549 -1.34296e-05)
(0.00148532 -0.00348119 -1.29644e-05)
(0.00142534 -0.0032587 -1.2441e-05)
(0.00135936 -0.00303915 -1.18653e-05)
(0.00128818 -0.00282364 -1.12441e-05)
(0.0012126 -0.00261312 -1.05846e-05)
(0.00113352 -0.00240848 -9.89449e-06)
(0.00105183 -0.00221046 -9.18153e-06)
(0.000968415 -0.0020197 -8.45359e-06)
(0.000884193 -0.00183674 -7.71856e-06)
(0.000800006 -0.00166189 -6.9838e-06)
(0.000716665 -0.00149542 -6.25643e-06)
(0.000634933 -0.00133742 -5.54307e-06)
(0.000555502 -0.00118788 -4.84977e-06)
(0.00047901 -0.00104663 -4.18212e-06)
(0.000406018 -0.000913392 -3.54499e-06)
(0.000337049 -0.000787792 -2.94297e-06)
(0.000272601 -0.000669419 -2.38038e-06)
(0.000213163 -0.000557872 -1.86152e-06)
(0.00015925 -0.000452916 -1.39086e-06)
(0.000111497 -0.000354646 -9.73956e-07)
(7.05897e-05 -0.000263563 -6.16785e-07)
(3.75964e-05 -0.000180381 -3.28661e-07)
(1.34673e-05 -0.000105112 -1.1798e-07)
(5.49448e-07 -3.51602e-05 -6.89135e-09)
(0.00164958 -0.0039511 -1.43979e-05)
(0.0015991 -0.00371903 -1.39574e-05)
(0.00154118 -0.00348821 -1.3452e-05)
(0.00147647 -0.00325988 -1.28874e-05)
(0.00140574 -0.00303518 -1.22702e-05)
(0.00132983 -0.00281523 -1.16077e-05)
(0.00124962 -0.00260096 -1.09078e-05)
(0.00116605 -0.00239325 -1.01785e-05)
(0.00108007 -0.0021928 -9.42813e-06)
(0.000992623 -0.00200022 -8.66496e-06)
(0.00090465 -0.00181598 -7.89718e-06)
(0.000817021 -0.00164037 -7.13238e-06)
(0.000730568 -0.00147358 -6.37784e-06)
(0.000646065 -0.00131565 -5.64029e-06)
(0.000564207 -0.00116652 -4.92579e-06)
(0.000485627 -0.00102597 -4.23991e-06)
(0.000410877 -0.000893676 -3.58743e-06)
(0.000340466 -0.000769231 -2.97282e-06)
(0.000274872 -0.000652197 -2.40023e-06)
(0.000214564 -0.000542162 -1.87376e-06)
(0.000160026 -0.000438892 -1.39765e-06)
(0.000111864 -0.000342499 -9.7717e-07)
(7.07253e-05 -0.000253513 -6.17974e-07)
(3.76304e-05 -0.000172698 -3.28961e-07)
(1.34768e-05 -0.000100136 -1.18064e-07)