/*--------------------------------*- C++ -*----------------------------------*\
| =========                 |                                                 |
| \\      /  F ield         | OpenFOAM: The Open Source CFD Toolbox           |
|  \\    /   O peration     | Version:  v2012                                 |
|   \\  /    A nd           | Website:  www.openfoam.com                      |
|    \\/     M anipulation  |                                                 |
\*---------------------------------------------------------------------------*/
FoamFile
{
    version     2.0;
    format      ascii;
    class       volScalarField;
    location    "0.9";
    object      alpha.water;
}
// * * * * * * * * * * * * * * * * * * * * * * * * * * * * * * * * * * * * * //

dimensions      [0 0 0 0 0 0 0];


internalField   nonuniform List<scalar> 
3332
(
-9.95837e-36
-3.53141e-27
3.09122e-16
1.0935e-15
9.69616e-16
9.68964e-16
1.15796e-15
2.66642e-15
-3.90463e-46
-8.19165e-25
1.05826e-15
1.09625e-15
1.04589e-15
1.06213e-15
1.07228e-15
1.0975e-15
1.08122e-15
1.07654e-15
1.16819e-15
1.29338e-15
2.67034e-15
7.40018e-15
3.9787e-15
-4.39461e-36
5.73061e-18
1.09089e-15
1.09625e-15
1.08405e-15
1.0949e-15
1.08373e-15
1.06815e-15
1.06865e-15
1.07578e-15
1.21795e-15
1.55605e-15
3.63042e-15
3.08991e-15
1.28295e-15
1.29234e-30
8.00651e-16
1.09625e-15
1.09625e-15
1.08369e-15
1.09178e-15
1.08479e-15
1.08608e-15
1.0691e-15
1.06528e-15
1.09819e-15
1.57555e-15
4.48626e-15
3.69972e-15
1.24613e-15
1.57328e-28
1.02201e-15
1.07704e-15
1.09119e-15
1.07107e-15
1.0699e-15
1.32797e-15
1.21478e-15
1.05797e-15
1.05797e-15
1.05797e-15
1.05797e-15
1.05798e-15
1.09366e-15
1.17929e-15
1.72944e-26
1.04915e-15
1.06901e-15
1.07074e-15
1.0702e-15
1.0699e-15
1.35429e-15
1.21336e-15
2.34787e-15
2.47971e-14
2.05557e-14
1.81829e-14
2.01659e-14
1.90468e-14
1.72865e-14
1.75117e-24
1.06449e-15
1.07036e-15
1.06992e-15
1.07015e-15
1.0699e-15
1.26843e-15
1.06928e-15
3.27707e-14
1.28168e-13
1.26345e-13
1.25424e-13
1.24854e-13
1.22794e-13
1.211e-13
5.96579e-16
1.06928e-15
1.07031e-15
1.06986e-15
1.07013e-15
1.0699e-15
1.0699e-15
1.06996e-15
3.87362e-14
1.33194e-13
1.33194e-13
1.33194e-13
1.33194e-13
1.33194e-13
1.25635e-13
1.06564e-15
1.06988e-15
1.06986e-15
1.06983e-15
1.06989e-15
1.06989e-15
7.86532e-15
1.76597e-14
2.57115e-14
9.63164e-14
1.29025e-13
1.24286e-13
1.09097e-13
3.99902e-14
1.11279e-14
1.06986e-15
1.06988e-15
1.06967e-15
1.06978e-15
1.06983e-15
2.55007e-15
1.78759e-14
3.29214e-14
3.11932e-14
1.77143e-14
1.95912e-14
1.4261e-14
6.83084e-15
1.27827e-15
1.33318e-15
1.06974e-15
1.06971e-15
1.07061e-15
1.06997e-15
1.06983e-15
3.63882e-15
1.1459e-14
1.2758e-14
1.21655e-14
1.228e-14
2.97335e-15
1.24726e-15
1.30616e-15
1.28405e-15
1.2781e-15
1.06963e-15
1.06953e-15
1.07375e-15
1.07006e-15
1.0699e-15
1.07115e-15
1.09327e-15
1.30054e-15
1.80528e-14
2.41989e-14
4.67247e-15
1.24726e-15
1.25709e-15
1.27815e-15
1.27779e-15
1.06962e-15
1.06953e-15
1.07236e-15
1.07011e-15
1.07068e-15
1.09227e-15
8.69811e-14
2.62052e-13
1.77854e-13
3.23575e-14
1.25292e-15
1.24909e-15
1.25292e-15
1.25593e-15
4.09949e-14
1.06958e-15
1.06953e-15
1.06953e-15
3.57261e-15
2.69252e-13
9.27248e-13
1.40331e-12
1.0706e-12
1.95314e-13
1.25138e-15
1.25525e-15
2.11346e-14
4.29095e-13
7.51282e-13
1.73908e-13
1.06958e-15
1.06953e-15
1.06954e-15
4.47718e-13
1.58132e-12
1.64209e-12
1.63654e-12
1.10271e-12
1.9202e-13
1.86392e-13
9.88628e-13
1.69272e-12
2.22917e-12
1.78716e-12
8.23226e-14
1.06958e-15
1.06954e-15
1.06955e-15
6.23854e-13
1.7143e-12
1.69293e-12
1.66506e-12
1.07297e-12
1.0007e-12
1.87613e-12
2.2821e-12
2.2821e-12
2.2821e-12
8.6004e-13
1.53676e-15
1.06958e-15
1.06957e-15
1.06962e-15
2.12338e-14
1.01287e-12
1.75597e-12
1.7492e-12
1.72632e-12
1.44667e-12
2.12447e-12
2.2821e-12
2.2821e-12
1.09488e-12
1.32555e-15
9.22254e-15
1.06964e-15
1.07029e-15
1.07021e-15
2.33631e-15
3.9594e-14
1.75344e-12
1.78208e-12
1.7803e-12
1.51574e-12
3.69679e-13
1.20796e-12
9.97822e-13
3.67689e-14
1.31877e-15
1.50314e-15
1.07171e-15
1.08423e-15
1.07901e-15
3.1254e-15
1.35887e-14
1.00966e-12
1.78159e-12
1.78159e-12
4.79968e-13
2.89694e-15
2.74524e-14
1.13861e-14
1.34888e-15
1.47511e-15
1.47005e-15
1.12746e-15
1.99585e-13
9.40784e-14
2.78943e-15
1.19069e-14
5.78329e-13
1.78159e-12
1.55394e-12
2.23342e-13
1.82524e-15
1.72484e-15
1.70384e-15
1.6975e-15
1.72161e-15
1.47005e-15
4.77152e-15
6.01447e-12
1.36978e-12
5.11352e-15
1.20962e-14
4.05483e-13
1.75605e-12
4.03365e-13
1.73053e-13
2.32932e-15
1.82513e-15
1.72484e-15
1.70339e-15
1.71714e-15
1.47005e-15
1.26376e-12
3.49665e-12
2.8298e-13
2.02967e-14
2.00869e-14
2.73281e-13
9.564e-13
1.73871e-13
1.81521e-13
5.69399e-15
2.3293e-15
1.82512e-15
1.72601e-15
1.70769e-15
1.58085e-15
1.87926e-12
2.79629e-12
1.23081e-12
1.87892e-13
6.11261e-14
2.38311e-13
5.53009e-13
2.48387e-13
1.40012e-13
3.09332e-14
5.55765e-15
2.3293e-15
1.82512e-15
1.74404e-15
1.78916e-15
3.70483e-09
1.49919e-10
3.23508e-11
1.54315e-12
4.81963e-13
5.97326e-13
2.08677e-12
5.71182e-13
2.48355e-13
1.91515e-13
2.88011e-14
5.55765e-15
2.37422e-15
6.85845e-14
4.60283e-12
1.04341e-07
1.33306e-10
4.11403e-11
1.21701e-11
3.57951e-12
5.16354e-12
1.14523e-11
3.1473e-12
5.70885e-13
1.14443e-12
5.66521e-13
2.64948e-14
5.97802e-15
9.20035e-13
1.89267e-11
8.05802e-09
4.90357e-10
4.18854e-09
3.1594e-10
2.99123e-11
1.49717e-11
4.87398e-11
2.71488e-11
2.58839e-12
3.13626e-11
2.14028e-12
1.53623e-13
1.19613e-13
1.053e-12
2.04715e-11
4.98291e-06
1.41111e-07
3.15077e-08
3.07565e-09
1.1922e-10
4.95971e-11
4.17415e-09
8.32467e-11
1.32668e-11
1.01398e-09
1.3862e-12
6.31461e-13
8.71707e-13
0.00172216
5.24242e-06
9.06362e-09
5.40776e-09
4.19665e-10
8.93042e-09
1.21094e-08
2.88975e-10
6.41253e-11
1.50949e-08
2.08591e-12
1.38723e-12
1.51219e-12
0.00262019
1.2505e-05
1.72307e-08
5.67545e-09
1.53681e-09
2.4147e-08
1.56349e-08
1.97172e-08
3.79765e-08
4.97263e-08
1.23826e-09
2.0867e-12
1.65463e-12
0.00135287
4.96109e-06
6.83443e-07
1.72296e-08
1.17861e-08
5.8252e-08
1.74524e-07
6.91091e-08
9.81368e-08
2.56021e-07
5.07026e-09
1.99776e-08
3.51193e-09
1.99182e-05
7.64959e-06
4.75171e-06
6.34872e-08
2.61134e-08
1.22338e-07
5.86127e-07
7.9519e-08
1.00011e-07
8.70497e-07
2.18377e-08
1.97692e-08
3.94573e-12
1.45145e-05
6.86978e-06
2.56874e-05
1.54061e-05
6.89961e-08
3.13943e-07
2.04414e-06
1.02248e-07
1.06673e-07
4.63292e-06
3.66202e-10
6.79694e-11
1.39471e-11
1.23328e-05
7.61102e-06
2.42549e-05
4.06905e-05
3.28013e-07
3.9937e-07
1.52157e-05
1.07504e-05
1.22822e-07
3.62957e-05
1.1794e-06
3.66112e-10
6.79693e-11
1.84562e-05
1.39069e-05
7.21921e-05
3.16321e-05
4.28574e-06
7.13431e-07
6.75026e-05
5.28159e-05
8.02634e-07
0.000112195
6.98232e-06
1.71999e-09
9.2249e-10
3.31761e-05
7.56997e-05
7.87628e-05
3.4715e-05
1.99924e-05
2.27227e-06
7.18249e-05
5.33125e-05
0.000103634
2.54706e-05
3.96928e-06
4.5978e-09
1.97036e-09
0.000679771
0.000602193
0.000293966
0.000121987
3.4715e-05
1.98793e-05
0.000219223
5.72915e-05
6.15623e-05
1.33602e-05
0.000316361
1.31787e-05
5.15889e-07
0.364424
0.297275
0.27817
0.271704
0.00343152
0.0758389
0.000198867
0.026526
0.00331574
0.10588
0.0025051
1.956e-06
8.76797e-06
0.717516
0.67057
0.638038
0.621811
0.625684
0.616092
0.46672
0.641805
0.691741
0.793094
0.836594
0.796482
0.779954
0.771788
0.746255
0.762786
0.791528
0.78485
0.828002
0.89028
0.950364
0.935292
0.928416
0.923905
0.921858
0.917028
0.915539
0.927387
0.949384
0.971975
0.990753
0.98464
0.981007
0.979
0.978556
0.979878
0.982815
0.987958
0.994698
1
1
1
1
1
1
1
1
1
1
1
1
1
1
1
1
1
1
1
1
1
1
1
1
1
1
1
1
1
1
1
1
1
1
1
1
1
1
1
1
1
1
1
1
1
1
1
1
1
1
1
1
1
1
1
1
1
1
1
1
1
1
1
1
1
1
1
1
1
1
1
1
1
1
1
1
1
1
1
1
1
1
1
1
1
1
1
1
1
1
1
1
1
1
1
1
1
1
1
1
1
1
1
1
1
1
1
1
1
1
1
1
1
1
1
1
1
1
1
1
1
1
1
1
1
1
1
1
1
1
1
1
1
1
1
1
1
1
1
1
1
1
1
1
1
1
1
1
1
1
1
1
1
1
1
1
1
1
1
1
1
1
1
1
1
1
1
1
1
1
1
1
1
1
1
1
1
1
1
1
1
1
1
1
1
1
1
1
1
1
1
1
1
1
1
1
1
1
1
1
1
1
1
1
1
1
1
1
1
1
1
1
1
1
1
1
1
1
1
1
1
1
1
1
1
1
1
1
1
1
1
1
1
1
1
1
1
1
1
1
1
1
1
1
1
1
1
1
1
1
1
1
1
1
1
1
1
1
1
1
1
1
1
1
1
1
1
1
1
1
1
1
1
1
1
1
1
1
1
1
1
1
1
1
1
1
1
1
1
1
1
1
1
1
1
1
1
1
1
1
1
1
1
1
1
1
1
1
1
1
1
1
1
1
1
1
1
1
1
1
1
1
1
1
1
1
1
1
1
1
1
1
1
1
1
1
1
1
1
1
1
1
1
1
1
1
1
1
1
1
1
1
1
1
1
1
1
1
1
1
1
1
1
1
1
1
1
1
1
1
1
1
1
1
1
1
1
1
1
1
1
1
1
1
1
1
1
1
1
1
1
1
1
1
1
1
1
1
1
1
1
1
1
1
1
1
1
1
1
1
1
1
1
1
1
1
1
1
1
1
1
1
1
1
1
1
1
1
1
1
1
1
1
1
1
1
1
1
1
1
1
1
1
1
1
1
1
1
1
1
1
1
1
1
1
1
1
1
1
1
1
1
1
1
1
1
1
1
1
1
1
1
1
1
1
1
1
1
1
1
1
1
1
1
1
1
1
1
1
1
1
1
1
1
1
1
1
1
1
1
1
1
1
1
1
1
1
1
1
1
1
1
1
1
1
1
1
1
1
1
1
1
1
1
1
1
1
1
1
1
1
1
1
1
1
1
1
1
1
1
1
1
1
1
1
1
1
1
1
1
1
1
1
1
1
1
1
1
1
1
1
1
1
1
1
1
1
1
1
1
1
1
1
1
1
1
1
1
1
1
1
1
1
1
1
1
1
1
1
1
1
1
1
1
1
1
1
1
1
1
1
1
1
1
1
1
1
1
1
1
1
1
1
1
1
1
1
1
1
1
1
1
1
1
1
1
1
1
1
1
1
1
1
1
1
1
1
1
1
1
1
1
1
1
1
1
1
1
1
1
1
1
1
1
1
1
1
1
1
1
1
1
1
1
1
1
1
1
1
1
1
1
1
1
1
1
1
1
1
1
1
1
1
1
1
1
1
1
1
1
1
1
1
1
1
1
1
1
1
1
1
1
1
1
1
1
1
1
1
1
1
1
1
1
1
1
1
1
1
1
1
1
1
1
1
1
1
1
1
1
1
1
1
1
1
1
1
1
1
1
1
1
1
1
1
1
1
1
1
1
1
1
1
1
1
1
1
1
1
1
1
1
1
1
1
1
1
1
1
1
1
1
1
1
1
1
1
1
1
1
1
1
1
1
1
1
1
1
1
1
1
1
1
1
1
1
1
1
1
1
1
1
1
1
1
1
1
1
1
1
1
1
1
1
1
1
1
1
1
1
1
1
1
1
1
1
1
1
1
1
1
1
1
1
1
1
1
1
1
1
1
1
1
1
1
1
1
1
1
1
1
1
1
1
1
1
1
1
1
1
1
1
1
1
1
1
1
1
1
1
1
1
1
1
1
1
1
1
1
1
1
1
1
1
1
1
1
1
1
1
1
1
1
1
1
1
1
1
1
1
1
1
1
1
1
1
1
1
1
1
1
1
1
1
1
1
1
1
1
1
1
1
1
1
1
1
1
1
1
1
1
1
1
1
1
1
1
1
1
1
1
1
1
1
1
1
1
1
1
1
1
1
1
1
1
1
1
1
1
1
1
1
1
1
1
1
1
1
1
1
1
1
1
1
1
1
1
1
1
1
1
1
1
1
1
1
1
1
1
1
1
1
1
1
1
1
1
1
1
1
1
1
1
1
1
1
1
1
1
1
1
1
1
1
1
1
1
1
1
1
1
1
1
1
1
1
1
1
1
1
1
1
1
1
1
1
1
1
1
1
1
1
1
1
1
1
1
1
1
1
1
1
1
1
1
1
1
1
1
1
1
1
1
1
1
1
1
1
1
1
1
1
1
1
1
1
1
1
1
1
1
1
1
1
1
1
1
1
1
1
1
1
1
1
1
1
1
1
1
1
1
-5.97132e-36
-2.2352e-27
3.41294e-16
1.09613e-15
1.07795e-15
1.08444e-15
1.0937e-15
1.09194e-15
-2.36157e-58
-5.25845e-25
1.05729e-15
1.09625e-15
1.09625e-15
1.08711e-15
1.07062e-15
1.06824e-15
1.06815e-15
1.11341e-15
1.26075e-15
1.42276e-15
2.70103e-15
7.36764e-15
5.94827e-15
-2.6719e-36
7.2758e-18
1.08896e-15
1.09625e-15
1.08509e-15
1.07211e-15
1.07002e-15
1.06815e-15
1.06815e-15
1.13155e-15
1.45644e-15
1.53869e-15
2.05045e-15
2.05128e-15
6.48726e-15
1.29214e-30
8.25362e-16
1.09589e-15
1.08512e-15
1.07046e-15
1.07118e-15
1.07119e-15
1.06831e-15
1.06856e-15
1.06856e-15
1.12184e-15
1.15643e-15
2.01098e-15
2.63943e-14
5.64781e-14
1.57303e-28
1.03288e-15
1.0731e-15
1.07072e-15
1.07038e-15
1.07138e-15
1.07135e-15
1.08382e-15
1.06706e-15
1.05797e-15
1.05797e-15
1.05797e-15
1.24232e-15
4.39733e-14
5.99244e-14
1.72917e-26
1.0491e-15
1.07172e-15
1.07061e-15
1.07037e-15
1.06997e-15
1.07482e-15
1.08771e-15
1.06285e-15
1.05797e-15
1.05797e-15
1.07289e-15
3.23523e-15
6.79377e-15
4.98656e-14
1.75089e-24
1.064e-15
1.07082e-15
1.0707e-15
1.07002e-15
1.0699e-15
1.07158e-15
1.05984e-15
1.05808e-15
1.05797e-15
1.05797e-15
1.22833e-15
1.14108e-14
2.77676e-15
5.95342e-15
5.96488e-16
1.06908e-15
1.06998e-15
1.06973e-15
1.06973e-15
1.06982e-15
1.06996e-15
1.83963e-15
6.0526e-15
4.22933e-15
1.05797e-15
1.23954e-15
1.1093e-14
1.72289e-15
2.18023e-15
1.06564e-15
1.06969e-15
1.06954e-15
1.06954e-15
4.17468e-15
3.91534e-14
5.78571e-14
8.77065e-14
7.23886e-14
7.57015e-15
1.05834e-15
1.15856e-15
1.74636e-15
1.27827e-15
1.53945e-15
1.06985e-15
1.06953e-15
1.06953e-15
3.28646e-14
9.83921e-14
1.18715e-13
1.18738e-13
1.18735e-13
8.09225e-14
1.12124e-15
1.08497e-15
1.15673e-15
1.24469e-15
1.27786e-15
1.32192e-15
1.06985e-15
1.06953e-15
1.07935e-15
1.05543e-13
1.18809e-13
1.18809e-13
1.18809e-13
1.16774e-13
1.00286e-14
1.1669e-15
1.24091e-15
1.24788e-15
1.25263e-15
1.29359e-15
1.31501e-15
1.0697e-15
1.06953e-15
3.32061e-15
5.68326e-14
1.15243e-13
9.21829e-14
7.8515e-14
2.68653e-14
1.24302e-15
1.24297e-15
1.25648e-15
1.25473e-15
1.26004e-15
1.2964e-15
1.33144e-15
1.06959e-15
1.06953e-15
1.29573e-15
1.07077e-15
3.31587e-14
2.45505e-15
1.37472e-15
1.25138e-15
1.24493e-15
1.24563e-15
1.25525e-15
1.25489e-15
1.2585e-15
1.27699e-15
1.3415e-15
1.06958e-15
1.06953e-15
1.06953e-15
6.49704e-15
7.96664e-15
3.32141e-13
5.38244e-13
2.06305e-13
1.25138e-15
1.2462e-15
1.25504e-15
1.2549e-15
1.25951e-15
1.27661e-15
1.29505e-15
1.06958e-15
1.06953e-15
1.06953e-15
1.97605e-13
1.00621e-12
1.64825e-12
1.62136e-12
1.57321e-12
7.9261e-13
1.25138e-15
1.25528e-15
1.25493e-15
1.2591e-15
1.29329e-15
1.29353e-15
1.06958e-15
1.06953e-15
1.06954e-15
2.47275e-13
1.73152e-12
1.74021e-12
1.7041e-12
1.73755e-12
1.44683e-12
4.2308e-14
1.25741e-15
3.22375e-15
1.26056e-15
1.30547e-15
1.51894e-15
1.06958e-15
1.06955e-15
1.06958e-15
1.14442e-14
6.24163e-13
1.75766e-12
1.75896e-12
1.77138e-12
1.33947e-12
8.37521e-15
1.27917e-15
4.22545e-15
1.26304e-15
1.3228e-15
1.32931e-15
1.06968e-15
1.06993e-15
1.06986e-15
2.56897e-15
9.92026e-15
1.62304e-12
1.78642e-12
1.78642e-12
3.61374e-13
3.48289e-15
3.67458e-15
4.37928e-15
1.26884e-15
1.28671e-15
1.31877e-15
1.07287e-15
1.07718e-15
1.0741e-15
2.03137e-15
2.11638e-15
8.16886e-13
1.78296e-12
1.76225e-12
1.59193e-13
3.31724e-15
3.24229e-15
2.18803e-15
1.3119e-15
1.31877e-15
3.64405e-13
1.15895e-15
1.20498e-15
1.17812e-15
1.98954e-15
2.77111e-15
5.89867e-13
1.73995e-12
7.6389e-13
5.93168e-15
4.92331e-15
1.99137e-15
1.56624e-15
1.34888e-15
2.65786e-13
1.51829e-12
3.1575e-15
3.13577e-15
2.90079e-15
2.77111e-15
7.29442e-15
4.97107e-13
1.20498e-12
3.89892e-13
9.97788e-15
5.45081e-15
2.32932e-15
2.36149e-15
1.43638e-15
3.89605e-13
1.52365e-12
4.3817e-14
2.89618e-14
2.36723e-14
8.23347e-15
5.43797e-14
4.95405e-13
1.02552e-12
9.78142e-14
4.22387e-14
9.97765e-15
4.62468e-15
2.28229e-15
1.65405e-15
1.74404e-15
1.08537e-12
7.3953e-13
2.06757e-12
1.75406e-12
7.09323e-14
4.69298e-13
5.35792e-13
8.78285e-13
2.98188e-13
8.61039e-14
3.05179e-14
2.01795e-14
5.55765e-15
2.32718e-15
7.54927e-12
8.94588e-12
5.44221e-09
1.42768e-10
2.97078e-11
9.5187e-13
3.56705e-12
1.12979e-12
1.42806e-12
1.4603e-12
3.14882e-13
5.23365e-13
1.16298e-13
2.36443e-11
3.5579e-11
1.22953e-11
9.68903e-12
3.47171e-08
7.46974e-11
1.91074e-11
5.40306e-12
1.77129e-11
3.54748e-11
3.6058e-12
8.25314e-11
2.10847e-12
1.64592e-12
1.28222e-10
2.8796e-10
8.12684e-11
8.3335e-13
1.83307e-12
1.89148e-09
3.18243e-10
7.46659e-11
1.91018e-11
3.48212e-09
9.29063e-11
1.60321e-11
2.03709e-09
1.45338e-11
5.9323e-12
4.98275e-10
3.12525e-10
2.24113e-13
7.48589e-13
3.73011e-13
1.0229e-05
3.2742e-07
6.8245e-09
7.49529e-11
2.0973e-08
1.30924e-09
6.29403e-11
9.78564e-09
3.96654e-11
2.68292e-11
1.00509e-11
4.441e-12
5.99154e-12
0.00170979
4.99519e-06
1.43859e-08
2.76396e-08
2.97208e-08
5.88677e-09
4.27109e-09
7.63648e-08
1.35647e-10
1.27773e-10
1.8744e-09
2.0867e-12
1.4579e-12
0.00262019
1.23582e-05
2.7617e-08
7.48081e-08
1.13474e-08
2.89743e-08
1.19116e-08
3.86002e-07
5.41019e-10
2.59274e-08
9.90151e-09
1.11831e-11
2.09617e-12
0.00135568
4.28716e-06
5.88723e-08
5.28553e-08
2.36454e-07
9.20513e-08
1.87092e-08
1.60667e-06
1.21462e-07
1.93661e-07
1.01998e-08
1.03597e-10
1.11909e-11
1.97744e-05
6.34252e-06
2.55966e-06
4.95888e-07
1.47325e-06
1.24335e-07
1.42611e-07
4.13753e-06
3.81827e-07
5.92321e-07
2.1236e-09
4.7768e-10
7.26987e-11
1.37219e-05
6.41648e-06
1.41662e-05
3.57682e-06
1.70192e-05
1.11325e-06
1.88589e-07
1.76907e-05
7.75471e-07
7.36787e-07
7.04399e-06
2.30611e-06
6.79695e-11
1.19976e-05
6.69861e-06
1.05368e-05
3.7586e-06
7.48642e-05
2.36188e-05
3.41944e-07
7.21838e-05
1.89229e-07
1.45788e-06
2.06767e-05
5.92484e-06
3.6635e-10
1.81059e-05
1.28038e-05
4.42584e-05
9.32767e-06
0.000206382
8.08961e-05
2.41437e-05
0.000289277
2.11558e-05
6.34948e-06
6.36767e-06
4.5978e-09
2.05996e-09
3.31259e-05
7.45036e-05
4.57894e-05
2.13435e-05
0.000130706
6.68811e-05
3.10275e-05
9.74536e-05
0.000410058
5.46932e-06
1.77215e-08
8.06988e-09
5.40511e-09
0.000676593
0.000551921
0.000162428
5.10397e-05
0.000122034
6.54582e-05
7.37292e-05
7.47559e-05
1.33602e-05
6.28761e-06
9.35321e-05
4.72428e-05
8.07127e-09
0.364012
0.29834
0.275057
0.238935
0.168195
0.115729
0.000104005
0.131293
0.110782
0.137526
0.00332539
4.10531e-07
2.45176e-07
0.717583
0.670705
0.631213
0.623035
0.62566
0.608528
0.466075
0.632489
0.691063
0.795368
0.836531
0.796342
0.784016
0.769516
0.763927
0.760534
0.786121
0.795092
0.837235
0.892692
0.950383
0.935292
0.928161
0.924304
0.91895
0.918622
0.916922
0.926338
0.948488
0.971831
0.990747
0.984647
0.981008
0.978982
0.978689
0.979816
0.982767
0.987971
0.994698
1
1
1
1
1
1
1
1
1
1
1
1
1
1
1
1
1
1
1
1
1
1
1
1
1
1
1
1
1
1
1
1
1
1
1
1
1
1
1
1
1
1
1
1
1
1
1
1
1
1
1
1
1
1
1
1
1
1
1
1
1
1
1
1
1
1
1
1
1
1
1
1
1
1
1
1
1
1
1
1
1
1
1
1
1
1
1
1
1
1
1
1
1
1
1
1
1
1
1
1
1
1
1
1
1
1
1
1
1
1
1
1
1
1
1
1
1
1
1
1
1
1
1
1
1
1
1
1
1
1
1
1
1
1
1
1
1
1
1
1
1
1
1
1
1
1
1
1
1
1
1
1
1
1
1
1
1
1
1
1
1
1
1
1
1
1
1
1
1
1
1
1
1
1
1
1
1
1
1
1
1
1
1
1
1
1
1
1
1
1
1
1
1
1
1
1
1
1
1
1
1
1
1
1
1
1
1
1
1
1
1
1
1
1
1
1
1
1
1
1
1
1
1
1
1
1
1
1
1
1
1
1
1
1
1
1
1
1
1
1
1
1
1
1
1
1
1
1
1
1
1
1
1
1
1
1
1
1
1
1
1
1
1
1
1
1
1
1
1
1
1
1
1
1
1
1
1
1
1
1
1
1
1
1
1
1
1
1
1
1
1
1
1
1
1
1
1
1
1
1
1
1
1
1
1
1
1
1
1
1
1
1
1
1
1
1
1
1
1
1
1
1
1
1
1
1
1
1
1
1
1
1
1
1
1
1
1
1
1
1
1
1
1
1
1
1
1
1
1
1
1
1
1
1
1
1
1
1
1
1
1
1
1
1
1
1
1
1
1
1
1
1
1
1
1
1
1
1
1
1
1
1
1
1
1
1
1
1
1
1
1
1
1
1
1
1
1
1
1
1
1
1
1
1
1
1
1
1
1
1
1
1
1
1
1
1
1
1
1
1
1
1
1
1
1
1
1
1
1
1
1
1
1
1
1
1
1
1
1
1
1
1
1
1
1
1
1
1
1
1
1
1
1
1
1
1
1
1
1
1
1
1
1
1
1
1
1
1
1
1
1
1
1
1
1
1
1
1
1
1
1
1
1
1
1
1
1
1
1
1
1
1
1
1
1
1
1
1
1
1
1
1
1
1
1
1
1
1
1
1
1
1
1
1
1
1
1
1
1
1
1
1
1
1
1
1
1
1
1
1
1
1
1
1
1
1
1
1
1
1
1
1
1
1
1
1
1
1
1
1
1
1
1
1
1
1
1
1
1
1
1
1
1
1
1
1
1
1
1
1
1
1
1
1
1
1
1
1
1
1
1
1
1
1
1
1
1
1
1
1
1
1
1
1
1
1
1
1
1
1
1
1
1
1
1
1
1
1
1
1
1
1
1
1
1
1
1
1
1
1
1
1
1
1
1
1
1
1
1
1
1
1
1
1
1
1
1
1
1
1
1
1
1
1
1
1
1
1
1
1
1
1
1
1
1
1
1
1
1
1
1
1
1
1
1
1
1
1
1
1
1
1
1
1
1
1
1
1
1
1
1
1
1
1
1
1
1
1
1
1
1
1
1
1
1
1
1
1
1
1
1
1
1
1
1
1
1
1
1
1
1
1
1
1
1
1
1
1
1
1
1
1
1
1
1
1
1
1
1
1
1
1
1
1
1
1
1
1
1
1
1
1
1
1
1
1
1
1
1
1
1
1
1
1
1
1
1
1
1
1
1
1
1
1
1
1
1
1
1
1
1
1
1
1
1
1
1
1
1
1
1
1
1
1
1
1
1
1
1
1
1
1
1
1
1
1
1
1
1
1
1
1
1
1
1
1
1
1
1
1
1
1
1
1
1
1
1
1
1
1
1
1
1
1
1
1
1
1
1
1
1
1
1
1
1
1
1
1
1
1
1
1
1
1
1
1
1
1
1
1
1
1
1
1
1
1
1
1
1
1
1
1
1
1
1
1
1
1
1
1
1
1
1
1
1
1
1
1
1
1
1
1
1
1
1
1
1
1
1
1
1
1
1
1
1
1
1
1
1
1
1
1
1
1
1
1
1
1
1
1
1
1
1
1
1
1
1
1
1
1
1
1
1
1
1
1
1
1
1
1
1
1
1
1
1
1
1
1
1
1
1
1
1
1
1
1
1
1
1
1
1
1
1
1
1
1
1
1
1
1
1
1
1
1
1
1
1
1
1
1
1
1
1
1
1
1
1
1
1
1
1
1
1
1
1
1
1
1
1
1
1
1
1
1
1
1
1
1
1
1
1
1
1
1
1
1
1
1
1
1
1
1
1
1
1
1
1
1
1
1
1
1
1
1
1
1
1
1
1
1
1
1
1
1
1
1
1
1
1
1
1
1
1
1
1
1
1
1
1
1
1
1
1
1
1
1
1
1
1
1
1
1
1
1
1
1
1
1
1
1
1
1
1
1
1
1
1
1
1
1
1
1
1
1
1
1
1
1
1
1
1
1
1
1
1
1
1
1
1
1
1
)
;

boundaryField
{
    inlet
    {
        type            fixedValue;
        value           uniform 1;
    }
    outlet
    {
        type            inletOutlet;
        inletValue      nonuniform List<scalar> 0();
        value           nonuniform List<scalar> 0();
    }
    walls
    {
        type            zeroGradient;
    }
    side1
    {
        type            cyclic;
    }
    side2
    {
        type            cyclic;
    }
    procBoundary1to0
    {
        type            processor;
        value           nonuniform List<scalar> 
76
(
7.45625e-16
1.44436e-15
1.84768e-15
9.46759e-16
3.29832e-14
1.32939e-13
1.36041e-13
3.85039e-14
1.65577e-15
1.27799e-15
1.27779e-15
2.48542e-15
1.27803e-15
3.78955e-14
3.04721e-13
3.04685e-13
1.45282e-15
1.47005e-15
1.47005e-15
1.47005e-15
1.47005e-15
1.57551e-15
3.4613e-12
2.19184e-11
1.70582e-12
2.34419e-11
6.04024e-12
1.70582e-12
1.8405e-12
1.85184e-12
1.95088e-12
2.19757e-12
3.94573e-12
1.39472e-11
3.02295e-09
3.26553e-09
3.8363e-09
9.76644e-09
5.97743e-16
2.38093e-14
5.99244e-14
5.99244e-14
5.72481e-14
7.46349e-15
9.71963e-16
1.19894e-15
1.28012e-15
1.27815e-15
1.27781e-15
1.27779e-15
1.27779e-15
1.45314e-15
1.61427e-14
2.03891e-14
1.38641e-15
2.69323e-13
1.50252e-12
1.56454e-12
1.03674e-12
2.66985e-12
2.33649e-12
3.08384e-13
6.65356e-13
1.33608e-13
4.2078e-13
6.65356e-13
1.00063e-12
2.38238e-09
3.00745e-09
1.23822e-08
1.98903e-08
6.79712e-11
2.14602e-09
5.9992e-09
1.90523e-08
9.76644e-09
)
;
    }
    procBoundary1to2
    {
        type            processor;
        value           nonuniform List<scalar> 
84
(
1
1
1
1
1
1
1
1
1
1
1
1
1
1
1
1
1
1
1
1
1
1
1
1
1
1
1
1
1
1
1
1
1
1
1
1
1
1
1
1
1
1
1
1
1
1
1
1
1
1
1
1
1
1
1
1
1
1
1
1
1
1
1
1
1
1
1
1
1
1
1
1
1
1
1
1
1
1
1
1
1
1
1
1
)
;
    }
    procBoundary1to4
    {
        type            processor;
        value           nonuniform List<scalar> 
32
(
-2.75926e-37
-1.7062e-28
-1.02322e-40
9.51524e-16
9.95835e-16
9.6761e-16
1.92528e-15
7.79681e-15
2.8271e-15
2.8271e-15
1.21279e-15
1.16876e-15
1.65571e-15
1.30414e-14
2.22782e-14
2.16569e-14
-6.02794e-38
-1.04152e-28
-7.25968e-41
1.0003e-15
1.07764e-15
1.05009e-15
1.23363e-15
1.79043e-15
1.06815e-15
1.06815e-15
1.06843e-15
1.06869e-15
1.76986e-15
1.67949e-14
2.20975e-14
2.08845e-14
)
;
    }
}


// ************************************************************************* //
