/*--------------------------------*- C++ -*----------------------------------*\
| =========                 |                                                 |
| \\      /  F ield         | OpenFOAM: The Open Source CFD Toolbox           |
|  \\    /   O peration     | Version:  v2012                                 |
|   \\  /    A nd           | Website:  www.openfoam.com                      |
|    \\/     M anipulation  |                                                 |
\*---------------------------------------------------------------------------*/
FoamFile
{
    version     2.0;
    format      ascii;
    class       volScalarField;
    location    "0.9";
    object      p;
}
// * * * * * * * * * * * * * * * * * * * * * * * * * * * * * * * * * * * * * //

dimensions      [1 -1 -2 0 0 0 0];


internalField   nonuniform List<scalar> 
3332
(
3.49761e+06
3.49749e+06
3.49805e+06
3.49835e+06
3.49838e+06
3.49852e+06
3.49856e+06
3.49855e+06
3.49527e+06
3.49679e+06
3.49758e+06
3.49805e+06
3.49825e+06
3.49845e+06
3.49857e+06
3.49857e+06
3.49859e+06
3.49858e+06
3.49858e+06
3.4987e+06
3.49872e+06
3.49874e+06
3.49877e+06
3.49516e+06
3.49654e+06
3.49741e+06
3.49783e+06
3.49801e+06
3.49826e+06
3.49844e+06
3.4985e+06
3.49855e+06
3.49857e+06
3.49855e+06
3.49867e+06
3.49868e+06
3.49869e+06
3.49872e+06
3.49523e+06
3.49645e+06
3.49724e+06
3.49776e+06
3.49795e+06
3.49814e+06
3.4983e+06
3.49838e+06
3.49847e+06
3.49849e+06
3.49848e+06
3.49861e+06
3.49862e+06
3.49864e+06
3.49867e+06
3.49499e+06
3.49641e+06
3.49723e+06
3.4977e+06
3.49786e+06
3.49804e+06
3.4982e+06
3.49829e+06
3.49839e+06
3.49841e+06
3.4984e+06
3.49853e+06
3.49855e+06
3.49857e+06
3.4986e+06
3.49527e+06
3.49617e+06
3.49703e+06
3.49757e+06
3.49776e+06
3.49797e+06
3.49811e+06
3.49818e+06
3.49829e+06
3.49831e+06
3.4983e+06
3.49844e+06
3.49846e+06
3.49848e+06
3.49852e+06
3.49495e+06
3.49619e+06
3.4971e+06
3.49759e+06
3.49775e+06
3.49793e+06
3.49805e+06
3.4981e+06
3.4982e+06
3.49821e+06
3.49821e+06
3.49835e+06
3.49836e+06
3.4984e+06
3.49844e+06
3.49539e+06
3.49636e+06
3.49708e+06
3.49742e+06
3.4976e+06
3.49778e+06
3.49789e+06
3.49795e+06
3.49804e+06
3.49806e+06
3.49807e+06
3.49822e+06
3.49825e+06
3.4983e+06
3.49835e+06
3.49507e+06
3.49641e+06
3.49721e+06
3.49749e+06
3.49762e+06
3.49773e+06
3.49778e+06
3.49782e+06
3.4979e+06
3.49793e+06
3.49796e+06
3.49812e+06
3.49816e+06
3.49821e+06
3.49827e+06
3.49539e+06
3.49618e+06
3.49712e+06
3.4974e+06
3.49744e+06
3.49755e+06
3.49758e+06
3.49778e+06
3.49786e+06
3.49789e+06
3.49794e+06
3.49799e+06
3.49805e+06
3.49811e+06
3.49818e+06
3.49497e+06
3.49626e+06
3.49725e+06
3.49748e+06
3.49749e+06
3.49753e+06
3.4975e+06
3.49767e+06
3.49772e+06
3.49776e+06
3.49782e+06
3.49788e+06
3.49795e+06
3.49801e+06
3.49809e+06
3.49566e+06
3.49646e+06
3.49713e+06
3.49717e+06
3.49721e+06
3.49725e+06
3.49724e+06
3.49743e+06
3.49748e+06
3.49755e+06
3.49763e+06
3.4977e+06
3.49779e+06
3.49788e+06
3.49796e+06
3.49532e+06
3.49677e+06
3.49741e+06
3.49735e+06
3.4973e+06
3.49726e+06
3.4972e+06
3.49737e+06
3.49741e+06
3.49746e+06
3.49754e+06
3.4976e+06
3.49768e+06
3.49777e+06
3.49786e+06
3.49765e+06
3.49635e+06
3.49656e+06
3.49675e+06
3.49675e+06
3.49695e+06
3.49694e+06
3.497e+06
3.49709e+06
3.49718e+06
3.49728e+06
3.49738e+06
3.49749e+06
3.49759e+06
3.4977e+06
3.49726e+06
3.49691e+06
3.49706e+06
3.49699e+06
3.49686e+06
3.49699e+06
3.49695e+06
3.49698e+06
3.49706e+06
3.49713e+06
3.49721e+06
3.4973e+06
3.49738e+06
3.49748e+06
3.49759e+06
3.49835e+06
3.49688e+06
3.4964e+06
3.49621e+06
3.49621e+06
3.49625e+06
3.49635e+06
3.49646e+06
3.4966e+06
3.49671e+06
3.49684e+06
3.49698e+06
3.49711e+06
3.49725e+06
3.49738e+06
3.49784e+06
3.49726e+06
3.49686e+06
3.49653e+06
3.49651e+06
3.49649e+06
3.49655e+06
3.4966e+06
3.49669e+06
3.49674e+06
3.49683e+06
3.49692e+06
3.49702e+06
3.49713e+06
3.49725e+06
3.49781e+06
3.49576e+06
3.49567e+06
3.49541e+06
3.49541e+06
3.49547e+06
3.49563e+06
3.49574e+06
3.49595e+06
3.4961e+06
3.49627e+06
3.49645e+06
3.49663e+06
3.4968e+06
3.49698e+06
3.49752e+06
3.49622e+06
3.49632e+06
3.496e+06
3.49612e+06
3.49604e+06
3.49616e+06
3.49614e+06
3.49626e+06
3.49629e+06
3.49638e+06
3.49647e+06
3.49658e+06
3.4967e+06
3.49684e+06
3.49564e+06
3.49412e+06
3.49419e+06
3.49369e+06
3.49415e+06
3.49414e+06
3.49455e+06
3.49466e+06
3.49502e+06
3.49519e+06
3.49547e+06
3.4957e+06
3.49595e+06
3.49618e+06
3.49641e+06
3.49702e+06
3.49439e+06
3.49548e+06
3.49493e+06
3.49564e+06
3.49524e+06
3.49566e+06
3.49546e+06
3.49572e+06
3.49564e+06
3.4958e+06
3.49585e+06
3.49599e+06
3.4961e+06
3.49627e+06
3.48724e+06
3.48753e+06
3.49077e+06
3.48997e+06
3.49196e+06
3.4916e+06
3.4928e+06
3.49269e+06
3.49352e+06
3.49367e+06
3.49424e+06
3.49452e+06
3.49494e+06
3.49524e+06
3.49558e+06
3.49014e+06
3.488e+06
3.49384e+06
3.49191e+06
3.49481e+06
3.49349e+06
3.49503e+06
3.4942e+06
3.49499e+06
3.49462e+06
3.495e+06
3.49493e+06
3.49516e+06
3.49524e+06
3.49547e+06
3.49003e+06
3.47939e+06
3.48831e+06
3.48355e+06
3.48963e+06
3.48653e+06
3.48998e+06
3.489e+06
3.49101e+06
3.49096e+06
3.49218e+06
3.49253e+06
3.49332e+06
3.49375e+06
3.49432e+06
3.48348e+06
3.48307e+06
3.49565e+06
3.48541e+06
3.4951e+06
3.48959e+06
3.49427e+06
3.49173e+06
3.49389e+06
3.49281e+06
3.49378e+06
3.49346e+06
3.49393e+06
3.49394e+06
3.49429e+06
3.50906e+06
3.46255e+06
3.49585e+06
3.46894e+06
3.48675e+06
3.47572e+06
3.48531e+06
3.4817e+06
3.4866e+06
3.48601e+06
3.48861e+06
3.48906e+06
3.4906e+06
3.49128e+06
3.49228e+06
3.30962e+06
3.47882e+06
3.49203e+06
3.46827e+06
3.49696e+06
3.48062e+06
3.49346e+06
3.48704e+06
3.49227e+06
3.48987e+06
3.49195e+06
3.49112e+06
3.49204e+06
3.98815e+06
3.36401e+06
3.53003e+06
3.43328e+06
3.48623e+06
3.4553e+06
3.47665e+06
3.46813e+06
3.47804e+06
3.47684e+06
3.48201e+06
3.48287e+06
3.48588e+06
3.98972e+06
3.41822e+06
3.52473e+06
3.43464e+06
3.49827e+06
3.46365e+06
3.48966e+06
3.47879e+06
3.4886e+06
3.48532e+06
3.48896e+06
3.48767e+06
3.48919e+06
3.94808e+06
3.21492e+06
3.46073e+06
3.41311e+06
3.45249e+06
3.42553e+06
3.45132e+06
3.44441e+06
3.45843e+06
3.46022e+06
3.46899e+06
3.47193e+06
3.47759e+06
3.07873e+06
3.67894e+06
3.13766e+06
3.52904e+06
3.45859e+06
3.44551e+06
3.47345e+06
3.46617e+06
3.4779e+06
3.47876e+06
3.48361e+06
3.4831e+06
3.48538e+06
3.08404e+06
3.16077e+06
3.29447e+06
3.35373e+06
3.36691e+06
3.37616e+06
3.3962e+06
3.40809e+06
3.42011e+06
3.43468e+06
3.45007e+06
3.45529e+06
3.4654e+06
3.04631e+06
3.17218e+06
3.27175e+06
3.29423e+06
3.3671e+06
3.36544e+06
3.40487e+06
3.4252e+06
3.44923e+06
3.46951e+06
3.47743e+06
3.4759e+06
3.47967e+06
3.32968e+06
2.88877e+06
3.1842e+06
3.11222e+06
3.25664e+06
3.25962e+06
3.29541e+06
3.33442e+06
3.32746e+06
3.38866e+06
3.41736e+06
3.42636e+06
3.45053e+06
3.63199e+06
3.50236e+06
3.2391e+06
3.04943e+06
3.23974e+06
3.32769e+06
3.41813e+06
3.49802e+06
3.54048e+06
3.55791e+06
3.52283e+06
3.47784e+06
3.48247e+06
3.99939e+06
3.98914e+06
3.61901e+06
2.66047e+06
2.65137e+06
2.7651e+06
2.9196e+06
2.9029e+06
3.01932e+06
3.17299e+06
3.32104e+06
3.33939e+06
3.41747e+06
4.00068e+06
4.00056e+06
4.00089e+06
4.00072e+06
3.945e+06
4.00052e+06
3.23682e+06
3.99465e+06
3.91375e+06
3.99888e+06
3.64186e+06
3.43547e+06
3.48574e+06
4.00084e+06
4.00071e+06
4.00064e+06
4.00059e+06
4.00052e+06
4.00052e+06
4.00059e+06
4.0006e+06
4.00066e+06
4.00084e+06
4.00092e+06
4.00083e+06
4.00075e+06
4.00072e+06
4.00072e+06
4.00069e+06
4.00071e+06
4.00084e+06
4.00095e+06
4.00111e+06
4.00091e+06
4.00082e+06
4.00076e+06
4.00073e+06
4.00072e+06
4.00076e+06
4.00083e+06
4.0009e+06
4.001e+06
4.00113e+06
4.00097e+06
4.0009e+06
4.00086e+06
4.00085e+06
4.00084e+06
4.00086e+06
4.0009e+06
4.00098e+06
4.00109e+06
4.01727e+06
4.02874e+06
4.02195e+06
4.0202e+06
4.01897e+06
4.02276e+06
4.03052e+06
4.04294e+06
4.0573e+06
4.06998e+06
4.07455e+06
4.1694e+06
4.16967e+06
4.16877e+06
4.16835e+06
4.16711e+06
4.16613e+06
4.16494e+06
4.16395e+06
4.1628e+06
4.16311e+06
4.21633e+06
4.22179e+06
4.22153e+06
4.22445e+06
4.22508e+06
4.22539e+06
4.22491e+06
4.22249e+06
4.22111e+06
4.21852e+06
4.34515e+06
4.35572e+06
4.35492e+06
4.35722e+06
4.35452e+06
4.3502e+06
4.34337e+06
4.33417e+06
4.32591e+06
4.31893e+06
4.36108e+06
4.40243e+06
4.41633e+06
4.4319e+06
4.43371e+06
4.42776e+06
4.41497e+06
4.38911e+06
4.36596e+06
4.33232e+06
4.4771e+06
4.52102e+06
4.55921e+06
4.57203e+06
4.57171e+06
4.56117e+06
4.543e+06
4.51265e+06
4.4794e+06
4.40202e+06
4.48928e+06
4.49789e+06
4.50054e+06
4.50055e+06
4.50052e+06
4.50033e+06
4.50006e+06
4.49945e+06
4.49996e+06
4.48921e+06
4.49792e+06
4.4977e+06
4.49768e+06
4.49775e+06
4.49776e+06
4.49787e+06
4.49806e+06
4.49818e+06
4.49839e+06
4.49861e+06
4.49826e+06
4.49877e+06
4.49908e+06
4.49927e+06
4.49925e+06
4.49905e+06
4.499e+06
4.49852e+06
4.49852e+06
4.49758e+06
4.49802e+06
4.49801e+06
4.4981e+06
4.49821e+06
4.49823e+06
4.49825e+06
4.49837e+06
4.49842e+06
4.4985e+06
4.49856e+06
4.4986e+06
4.49863e+06
4.49873e+06
4.49884e+06
4.49883e+06
4.49874e+06
4.49862e+06
4.49856e+06
4.49859e+06
4.49847e+06
4.49823e+06
4.49824e+06
4.49834e+06
4.49845e+06
4.49848e+06
4.49847e+06
4.49842e+06
4.49853e+06
4.49861e+06
4.49863e+06
4.49863e+06
4.49864e+06
4.49862e+06
4.49879e+06
4.49875e+06
4.49869e+06
4.49863e+06
4.49873e+06
4.49877e+06
4.49875e+06
4.49845e+06
4.49853e+06
4.49854e+06
4.4987e+06
4.4987e+06
4.49863e+06
4.49856e+06
4.49865e+06
4.4987e+06
4.49872e+06
4.49869e+06
4.49876e+06
4.4988e+06
4.49893e+06
4.49883e+06
4.49874e+06
4.49877e+06
4.49881e+06
4.49882e+06
4.49883e+06
4.49864e+06
4.49876e+06
4.49878e+06
4.49888e+06
4.49885e+06
4.4988e+06
4.4988e+06
4.4988e+06
4.4988e+06
4.49881e+06
4.4988e+06
4.49891e+06
4.49892e+06
4.49905e+06
4.49898e+06
4.49893e+06
4.49891e+06
4.4989e+06
4.49888e+06
4.49888e+06
4.4988e+06
4.49895e+06
4.49898e+06
4.49909e+06
4.49901e+06
4.49897e+06
4.49894e+06
4.49894e+06
4.49891e+06
4.49891e+06
4.4989e+06
4.4988e+06
4.49904e+06
4.49914e+06
4.49907e+06
4.49904e+06
4.49901e+06
4.49901e+06
4.49898e+06
4.49898e+06
4.4989e+06
4.4989e+06
4.49912e+06
4.49914e+06
4.49905e+06
4.49905e+06
4.49903e+06
4.49904e+06
4.49902e+06
4.49902e+06
4.49913e+06
4.49912e+06
4.49913e+06
4.49919e+06
4.49918e+06
4.49912e+06
4.4991e+06
4.49909e+06
4.49908e+06
4.49908e+06
4.49916e+06
4.4992e+06
4.49915e+06
4.49916e+06
4.49915e+06
4.49913e+06
4.49913e+06
4.49913e+06
4.49912e+06
4.49913e+06
4.49919e+06
4.4992e+06
4.49921e+06
4.49922e+06
4.4992e+06
4.49918e+06
4.49917e+06
4.49918e+06
4.49918e+06
4.49918e+06
4.49924e+06
4.49924e+06
4.49921e+06
4.4992e+06
4.49921e+06
4.49921e+06
4.49921e+06
4.49922e+06
4.49922e+06
4.49922e+06
4.49922e+06
4.49923e+06
4.49925e+06
4.49924e+06
4.49925e+06
4.49925e+06
4.49924e+06
4.49925e+06
4.49925e+06
4.49925e+06
4.49924e+06
4.49924e+06
4.49924e+06
4.49925e+06
4.49925e+06
4.49927e+06
4.49926e+06
4.49926e+06
4.49926e+06
4.49926e+06
4.49942e+06
4.49948e+06
4.49933e+06
4.4993e+06
4.49931e+06
4.49931e+06
4.49929e+06
4.49928e+06
4.49927e+06
4.49927e+06
4.49943e+06
4.49946e+06
4.49932e+06
4.49932e+06
4.49933e+06
4.49933e+06
4.4993e+06
4.49927e+06
4.49926e+06
4.49925e+06
4.49948e+06
4.49952e+06
4.49944e+06
4.49937e+06
4.49936e+06
4.49936e+06
4.49933e+06
4.49929e+06
4.49928e+06
4.49928e+06
4.49947e+06
4.49946e+06
4.4994e+06
4.49935e+06
4.49934e+06
4.49935e+06
4.49931e+06
4.49929e+06
4.49927e+06
4.49927e+06
4.4995e+06
4.49954e+06
4.49946e+06
4.4994e+06
4.49937e+06
4.49937e+06
4.49934e+06
4.49932e+06
4.49931e+06
4.4993e+06
4.49947e+06
4.49946e+06
4.49938e+06
4.49933e+06
4.49929e+06
4.49928e+06
4.49926e+06
4.49925e+06
4.49924e+06
4.49923e+06
4.49949e+06
4.49949e+06
4.49944e+06
4.49938e+06
4.49935e+06
4.49933e+06
4.49932e+06
4.4993e+06
4.4993e+06
4.49929e+06
4.49943e+06
4.49938e+06
4.49931e+06
4.49925e+06
4.49923e+06
4.49921e+06
4.49919e+06
4.49916e+06
4.49915e+06
4.49913e+06
4.49946e+06
4.49947e+06
4.49941e+06
4.49936e+06
4.49936e+06
4.49935e+06
4.49934e+06
4.49932e+06
4.49931e+06
4.4993e+06
4.49939e+06
4.49934e+06
4.49927e+06
4.49924e+06
4.49923e+06
4.4992e+06
4.49918e+06
4.4991e+06
4.49906e+06
4.49892e+06
4.49961e+06
4.49955e+06
4.49944e+06
4.49943e+06
4.49945e+06
4.49946e+06
4.49947e+06
4.49947e+06
4.49954e+06
4.49939e+06
4.49966e+06
4.4996e+06
4.49966e+06
4.49965e+06
4.49966e+06
4.49966e+06
4.49966e+06
4.49961e+06
4.49945e+06
4.49934e+06
4.49934e+06
4.49938e+06
4.49941e+06
4.49945e+06
4.49946e+06
4.49952e+06
4.49941e+06
4.49958e+06
4.49959e+06
4.49964e+06
4.49964e+06
4.49965e+06
4.49965e+06
4.49966e+06
4.49969e+06
4.49954e+06
4.49944e+06
4.49953e+06
4.49957e+06
4.4995e+06
4.49952e+06
4.49954e+06
4.49958e+06
4.49957e+06
4.49963e+06
4.49962e+06
4.49965e+06
4.49964e+06
4.49965e+06
4.49965e+06
4.49966e+06
4.49968e+06
4.49948e+06
4.49938e+06
4.49947e+06
4.49952e+06
4.49948e+06
4.49952e+06
4.49954e+06
4.49956e+06
4.49957e+06
4.49961e+06
4.49961e+06
4.49963e+06
4.49964e+06
4.49965e+06
4.49965e+06
4.49965e+06
4.49977e+06
4.49959e+06
4.49947e+06
4.49956e+06
4.4996e+06
4.49956e+06
4.49959e+06
4.49961e+06
4.49962e+06
4.49962e+06
4.49964e+06
4.49964e+06
4.49964e+06
4.49965e+06
4.49965e+06
4.49965e+06
4.49965e+06
4.49974e+06
4.49955e+06
4.49947e+06
4.49956e+06
4.49959e+06
4.49954e+06
4.49957e+06
4.49959e+06
4.49961e+06
4.49961e+06
4.49963e+06
4.49963e+06
4.49964e+06
4.49964e+06
4.49964e+06
4.49965e+06
4.49965e+06
4.4996e+06
4.4996e+06
4.49956e+06
4.49957e+06
4.49959e+06
4.49961e+06
4.49961e+06
4.49962e+06
4.49963e+06
4.49963e+06
4.49964e+06
4.49964e+06
4.49964e+06
4.49964e+06
4.49965e+06
4.49965e+06
4.49965e+06
4.49956e+06
4.49956e+06
4.49957e+06
4.49958e+06
4.49959e+06
4.4996e+06
4.49961e+06
4.49961e+06
4.49962e+06
4.49962e+06
4.49963e+06
4.49963e+06
4.49964e+06
4.49964e+06
4.49964e+06
4.49964e+06
4.49965e+06
4.49955e+06
4.49958e+06
4.4996e+06
4.49961e+06
4.49962e+06
4.49962e+06
4.49962e+06
4.49963e+06
4.49963e+06
4.49963e+06
4.49964e+06
4.49964e+06
4.49964e+06
4.49964e+06
4.49964e+06
4.49964e+06
4.49964e+06
4.49954e+06
4.49955e+06
4.49958e+06
4.4996e+06
4.49961e+06
4.49961e+06
4.49962e+06
4.49962e+06
4.49963e+06
4.49963e+06
4.49963e+06
4.49963e+06
4.49964e+06
4.49964e+06
4.49964e+06
4.49964e+06
4.49964e+06
4.49955e+06
4.49955e+06
4.49959e+06
4.49961e+06
4.49962e+06
4.49962e+06
4.49963e+06
4.49963e+06
4.49963e+06
4.49963e+06
4.49963e+06
4.49964e+06
4.49964e+06
4.49964e+06
4.49964e+06
4.49964e+06
4.49964e+06
4.49964e+06
4.49964e+06
4.49955e+06
4.49956e+06
4.49959e+06
4.49961e+06
4.49962e+06
4.49962e+06
4.49962e+06
4.49963e+06
4.49963e+06
4.49963e+06
4.49963e+06
4.49963e+06
4.49963e+06
4.49964e+06
4.49964e+06
4.49964e+06
4.49964e+06
4.49964e+06
4.49964e+06
4.49956e+06
4.49957e+06
4.4996e+06
4.49962e+06
4.49962e+06
4.49963e+06
4.49963e+06
4.49963e+06
4.49963e+06
4.49963e+06
4.49963e+06
4.49963e+06
4.49963e+06
4.49963e+06
4.49964e+06
4.49964e+06
4.49964e+06
4.49964e+06
4.49964e+06
4.49959e+06
4.49958e+06
4.4996e+06
4.49962e+06
4.49962e+06
4.49962e+06
4.49963e+06
4.49963e+06
4.49963e+06
4.49963e+06
4.49963e+06
4.49963e+06
4.49963e+06
4.49963e+06
4.49963e+06
4.49963e+06
4.49963e+06
4.49963e+06
4.49964e+06
4.49961e+06
4.49961e+06
4.49962e+06
4.49962e+06
4.49963e+06
4.49963e+06
4.49963e+06
4.49963e+06
4.49963e+06
4.49963e+06
4.49963e+06
4.49963e+06
4.49963e+06
4.49963e+06
4.49963e+06
4.49963e+06
4.49963e+06
4.49963e+06
4.49963e+06
4.49961e+06
4.49962e+06
4.49962e+06
4.49962e+06
4.49963e+06
4.49963e+06
4.49963e+06
4.49963e+06
4.49963e+06
4.49963e+06
4.49963e+06
4.49963e+06
4.49963e+06
4.49963e+06
4.49963e+06
4.49963e+06
4.49963e+06
4.49963e+06
4.49963e+06
4.49962e+06
4.49962e+06
4.49962e+06
4.49963e+06
4.49963e+06
4.49963e+06
4.49963e+06
4.49963e+06
4.49963e+06
4.49963e+06
4.49963e+06
4.49963e+06
4.49963e+06
4.49963e+06
4.49963e+06
4.49963e+06
4.49963e+06
4.49963e+06
4.49963e+06
4.49962e+06
4.49962e+06
4.49962e+06
4.49962e+06
4.49962e+06
4.49962e+06
4.49962e+06
4.49963e+06
4.49963e+06
4.49963e+06
4.49963e+06
4.49963e+06
4.49963e+06
4.49963e+06
4.49963e+06
4.49963e+06
4.49963e+06
4.49963e+06
4.49963e+06
4.49962e+06
4.49962e+06
4.49962e+06
4.49962e+06
4.49962e+06
4.49962e+06
4.49962e+06
4.49962e+06
4.49962e+06
4.49962e+06
4.49962e+06
4.49962e+06
4.49963e+06
4.49963e+06
4.49963e+06
4.49963e+06
4.49963e+06
4.49963e+06
4.49963e+06
4.49962e+06
4.49962e+06
4.49962e+06
4.49962e+06
4.49962e+06
4.49962e+06
4.49962e+06
4.49962e+06
4.49962e+06
4.49962e+06
4.49962e+06
4.49962e+06
4.49962e+06
4.49962e+06
4.49962e+06
4.49962e+06
4.49962e+06
4.49962e+06
4.49962e+06
4.49962e+06
4.49962e+06
4.49962e+06
4.49962e+06
4.49962e+06
4.49962e+06
4.49962e+06
4.49962e+06
4.49962e+06
4.49962e+06
4.49962e+06
4.49962e+06
4.49962e+06
4.49962e+06
4.49962e+06
4.49962e+06
4.49962e+06
4.49962e+06
4.49962e+06
4.49962e+06
4.49962e+06
4.49962e+06
4.49962e+06
4.49962e+06
4.49962e+06
4.49962e+06
4.49962e+06
4.49962e+06
4.49962e+06
4.49962e+06
4.49962e+06
4.49962e+06
4.49962e+06
4.49962e+06
4.49962e+06
4.49962e+06
4.49962e+06
4.49962e+06
4.49962e+06
4.49962e+06
4.49962e+06
4.49962e+06
4.49962e+06
4.49962e+06
4.49962e+06
4.49962e+06
4.49962e+06
4.49962e+06
4.49962e+06
4.49962e+06
4.49962e+06
4.49962e+06
4.49962e+06
4.49962e+06
4.49962e+06
4.49962e+06
4.49962e+06
4.49962e+06
4.49962e+06
4.49962e+06
4.49962e+06
4.49962e+06
4.49962e+06
4.49962e+06
4.49962e+06
4.49962e+06
4.49962e+06
4.49962e+06
4.49962e+06
4.49962e+06
4.49962e+06
4.49962e+06
4.49962e+06
4.49962e+06
4.49962e+06
4.49962e+06
4.49962e+06
4.49962e+06
4.49962e+06
4.49962e+06
4.49962e+06
4.49961e+06
4.49961e+06
4.49961e+06
4.49961e+06
4.49961e+06
4.49961e+06
4.49961e+06
4.49961e+06
4.49961e+06
4.49961e+06
4.49961e+06
4.49961e+06
4.49961e+06
4.49961e+06
4.49962e+06
4.49962e+06
4.49961e+06
4.49961e+06
4.49961e+06
4.49961e+06
4.49961e+06
4.49961e+06
4.49961e+06
4.49961e+06
4.49961e+06
4.49961e+06
4.49961e+06
4.49961e+06
4.49961e+06
4.49961e+06
4.49961e+06
4.49961e+06
4.49961e+06
4.49962e+06
4.49962e+06
4.49961e+06
4.49961e+06
4.49961e+06
4.49961e+06
4.49961e+06
4.49961e+06
4.49961e+06
4.49961e+06
4.49961e+06
4.49961e+06
4.49961e+06
4.49961e+06
4.49961e+06
4.49961e+06
4.49961e+06
4.49961e+06
4.49961e+06
4.49962e+06
4.49962e+06
4.49961e+06
4.49961e+06
4.49961e+06
4.49961e+06
4.49961e+06
4.49961e+06
4.49961e+06
4.49961e+06
4.49961e+06
4.49961e+06
4.49961e+06
4.49961e+06
4.49961e+06
4.49961e+06
4.49961e+06
4.49961e+06
4.49961e+06
4.49962e+06
4.49962e+06
4.49961e+06
4.49961e+06
4.49961e+06
4.49961e+06
4.49961e+06
4.49961e+06
4.49961e+06
4.49961e+06
4.49961e+06
4.49961e+06
4.49961e+06
4.49961e+06
4.49961e+06
4.49961e+06
4.49961e+06
4.49961e+06
4.49961e+06
4.49961e+06
4.49961e+06
4.49961e+06
4.49961e+06
4.49961e+06
4.49961e+06
4.49961e+06
4.4996e+06
4.4996e+06
4.4996e+06
4.4996e+06
4.4996e+06
4.4996e+06
4.4996e+06
4.4996e+06
4.4996e+06
4.4996e+06
4.4996e+06
4.4996e+06
4.49961e+06
4.49961e+06
4.49961e+06
4.49961e+06
4.4996e+06
4.4996e+06
4.4996e+06
4.4996e+06
4.4996e+06
4.4996e+06
4.4996e+06
4.4996e+06
4.4996e+06
4.4996e+06
4.4996e+06
4.4996e+06
4.4996e+06
4.4996e+06
4.4996e+06
4.49961e+06
4.49961e+06
4.49961e+06
4.4996e+06
4.4996e+06
4.4996e+06
4.4996e+06
4.4996e+06
4.4996e+06
4.4996e+06
4.4996e+06
4.4996e+06
4.4996e+06
4.4996e+06
4.4996e+06
4.4996e+06
4.4996e+06
4.4996e+06
4.4996e+06
4.49961e+06
4.49961e+06
4.4996e+06
4.4996e+06
4.4996e+06
4.4996e+06
4.4996e+06
4.4996e+06
4.4996e+06
4.4996e+06
4.4996e+06
4.4996e+06
4.4996e+06
4.4996e+06
4.4996e+06
4.4996e+06
4.4996e+06
4.4996e+06
4.4996e+06
4.49961e+06
4.49961e+06
4.4996e+06
4.4996e+06
4.4996e+06
4.4996e+06
4.4996e+06
4.4996e+06
4.4996e+06
4.4996e+06
4.4996e+06
4.4996e+06
4.4996e+06
4.4996e+06
4.4996e+06
4.4996e+06
4.4996e+06
4.4996e+06
4.4996e+06
4.4996e+06
4.4996e+06
4.4996e+06
4.4996e+06
4.4996e+06
4.4996e+06
4.49959e+06
4.49959e+06
4.49959e+06
4.49959e+06
4.49959e+06
4.49959e+06
4.49959e+06
4.49959e+06
4.49959e+06
4.49959e+06
4.49959e+06
4.49959e+06
4.49959e+06
4.4996e+06
4.4996e+06
4.4996e+06
4.4996e+06
4.49959e+06
4.49959e+06
4.49959e+06
4.49959e+06
4.49959e+06
4.49959e+06
4.49959e+06
4.49959e+06
4.49959e+06
4.49959e+06
4.49959e+06
4.49959e+06
4.49959e+06
4.49959e+06
4.49959e+06
4.4996e+06
4.4996e+06
4.4996e+06
4.49959e+06
4.49959e+06
4.49959e+06
4.49959e+06
4.49959e+06
4.49959e+06
4.49959e+06
4.49959e+06
4.49959e+06
4.49959e+06
4.49959e+06
4.49959e+06
4.49959e+06
4.49959e+06
4.49959e+06
4.49959e+06
4.4996e+06
4.4996e+06
4.49959e+06
4.49959e+06
4.49959e+06
4.49959e+06
4.49959e+06
4.49959e+06
4.49959e+06
4.49959e+06
4.49959e+06
4.49959e+06
4.49959e+06
4.49959e+06
4.49959e+06
4.49959e+06
4.49959e+06
4.49959e+06
4.49959e+06
4.49959e+06
4.49959e+06
4.49959e+06
4.49959e+06
4.49959e+06
4.49959e+06
4.49958e+06
4.49958e+06
4.49958e+06
4.49958e+06
4.49958e+06
4.49958e+06
4.49958e+06
4.49958e+06
4.49958e+06
4.49958e+06
4.49959e+06
4.49959e+06
4.49959e+06
4.49959e+06
4.49959e+06
4.49959e+06
4.49958e+06
4.49958e+06
4.49958e+06
4.49958e+06
4.49958e+06
4.49958e+06
4.49958e+06
4.49958e+06
4.49958e+06
4.49958e+06
4.49958e+06
4.49958e+06
4.49958e+06
4.49958e+06
4.49958e+06
4.49958e+06
3.49761e+06
3.49749e+06
3.49805e+06
3.49835e+06
3.49838e+06
3.49852e+06
3.49856e+06
3.49855e+06
3.49527e+06
3.49679e+06
3.49758e+06
3.49805e+06
3.49825e+06
3.49845e+06
3.49857e+06
3.49857e+06
3.49859e+06
3.49858e+06
3.49858e+06
3.4987e+06
3.49872e+06
3.49874e+06
3.49877e+06
3.49516e+06
3.49654e+06
3.49741e+06
3.49783e+06
3.49801e+06
3.49826e+06
3.49844e+06
3.4985e+06
3.49855e+06
3.49857e+06
3.49856e+06
3.49867e+06
3.49868e+06
3.49869e+06
3.49872e+06
3.49523e+06
3.49645e+06
3.49724e+06
3.49776e+06
3.49795e+06
3.49814e+06
3.4983e+06
3.49838e+06
3.49847e+06
3.49849e+06
3.49848e+06
3.49861e+06
3.49862e+06
3.49864e+06
3.49867e+06
3.49499e+06
3.49641e+06
3.49723e+06
3.4977e+06
3.49786e+06
3.49804e+06
3.4982e+06
3.49829e+06
3.49839e+06
3.49841e+06
3.4984e+06
3.49853e+06
3.49855e+06
3.49857e+06
3.4986e+06
3.49527e+06
3.49617e+06
3.49703e+06
3.49757e+06
3.49776e+06
3.49797e+06
3.49811e+06
3.49818e+06
3.49829e+06
3.49831e+06
3.4983e+06
3.49844e+06
3.49846e+06
3.49848e+06
3.49852e+06
3.49495e+06
3.49619e+06
3.4971e+06
3.49759e+06
3.49775e+06
3.49793e+06
3.49805e+06
3.4981e+06
3.4982e+06
3.49821e+06
3.49821e+06
3.49835e+06
3.49836e+06
3.4984e+06
3.49844e+06
3.49539e+06
3.49636e+06
3.49708e+06
3.49742e+06
3.4976e+06
3.49778e+06
3.49789e+06
3.49795e+06
3.49804e+06
3.49806e+06
3.49807e+06
3.49822e+06
3.49825e+06
3.4983e+06
3.49835e+06
3.49507e+06
3.49641e+06
3.49721e+06
3.49749e+06
3.49762e+06
3.49773e+06
3.49778e+06
3.49782e+06
3.4979e+06
3.49793e+06
3.49796e+06
3.49812e+06
3.49816e+06
3.49821e+06
3.49827e+06
3.49539e+06
3.49618e+06
3.49712e+06
3.4974e+06
3.49744e+06
3.49755e+06
3.49758e+06
3.49778e+06
3.49786e+06
3.49789e+06
3.49794e+06
3.49799e+06
3.49805e+06
3.49811e+06
3.49818e+06
3.49497e+06
3.49626e+06
3.49725e+06
3.49748e+06
3.49749e+06
3.49753e+06
3.4975e+06
3.49767e+06
3.49772e+06
3.49776e+06
3.49782e+06
3.49788e+06
3.49795e+06
3.49801e+06
3.49809e+06
3.49566e+06
3.49646e+06
3.49713e+06
3.49717e+06
3.49721e+06
3.49725e+06
3.49724e+06
3.49743e+06
3.49748e+06
3.49755e+06
3.49763e+06
3.4977e+06
3.49779e+06
3.49788e+06
3.49796e+06
3.49532e+06
3.49677e+06
3.49741e+06
3.49735e+06
3.4973e+06
3.49726e+06
3.4972e+06
3.49737e+06
3.49741e+06
3.49746e+06
3.49754e+06
3.4976e+06
3.49768e+06
3.49777e+06
3.49786e+06
3.49765e+06
3.49635e+06
3.49656e+06
3.49675e+06
3.49675e+06
3.49695e+06
3.49694e+06
3.497e+06
3.49709e+06
3.49718e+06
3.49728e+06
3.49738e+06
3.49749e+06
3.49759e+06
3.4977e+06
3.49726e+06
3.49691e+06
3.49706e+06
3.49699e+06
3.49686e+06
3.49699e+06
3.49695e+06
3.49698e+06
3.49706e+06
3.49713e+06
3.49721e+06
3.4973e+06
3.49738e+06
3.49748e+06
3.49759e+06
3.49835e+06
3.49688e+06
3.4964e+06
3.49621e+06
3.49621e+06
3.49625e+06
3.49635e+06
3.49646e+06
3.4966e+06
3.49671e+06
3.49684e+06
3.49698e+06
3.49711e+06
3.49725e+06
3.49738e+06
3.49784e+06
3.49726e+06
3.49686e+06
3.49653e+06
3.49651e+06
3.49649e+06
3.49655e+06
3.4966e+06
3.49669e+06
3.49674e+06
3.49683e+06
3.49692e+06
3.49702e+06
3.49713e+06
3.49725e+06
3.49781e+06
3.49576e+06
3.49567e+06
3.49541e+06
3.49541e+06
3.49547e+06
3.49563e+06
3.49574e+06
3.49595e+06
3.4961e+06
3.49627e+06
3.49645e+06
3.49663e+06
3.4968e+06
3.49698e+06
3.49752e+06
3.49622e+06
3.49632e+06
3.496e+06
3.49612e+06
3.49604e+06
3.49616e+06
3.49614e+06
3.49626e+06
3.49629e+06
3.49638e+06
3.49647e+06
3.49658e+06
3.4967e+06
3.49684e+06
3.49564e+06
3.49412e+06
3.49419e+06
3.49369e+06
3.49415e+06
3.49414e+06
3.49455e+06
3.49466e+06
3.49502e+06
3.49519e+06
3.49547e+06
3.4957e+06
3.49595e+06
3.49618e+06
3.49641e+06
3.49702e+06
3.49439e+06
3.49548e+06
3.49493e+06
3.49564e+06
3.49524e+06
3.49566e+06
3.49546e+06
3.49572e+06
3.49564e+06
3.4958e+06
3.49585e+06
3.49599e+06
3.4961e+06
3.49627e+06
3.48724e+06
3.48753e+06
3.49078e+06
3.48997e+06
3.49196e+06
3.4916e+06
3.4928e+06
3.49269e+06
3.49352e+06
3.49367e+06
3.49424e+06
3.49452e+06
3.49494e+06
3.49524e+06
3.49558e+06
3.49013e+06
3.488e+06
3.49384e+06
3.49191e+06
3.49481e+06
3.49349e+06
3.49503e+06
3.4942e+06
3.49499e+06
3.49462e+06
3.495e+06
3.49493e+06
3.49516e+06
3.49524e+06
3.49547e+06
3.49003e+06
3.47939e+06
3.48831e+06
3.48355e+06
3.48963e+06
3.48653e+06
3.48998e+06
3.489e+06
3.49101e+06
3.49096e+06
3.49218e+06
3.49253e+06
3.49332e+06
3.49375e+06
3.49432e+06
3.48348e+06
3.48307e+06
3.49565e+06
3.48541e+06
3.4951e+06
3.48959e+06
3.49427e+06
3.49173e+06
3.49389e+06
3.49281e+06
3.49378e+06
3.49346e+06
3.49393e+06
3.49394e+06
3.49429e+06
3.50906e+06
3.46255e+06
3.49584e+06
3.46894e+06
3.48675e+06
3.47572e+06
3.48531e+06
3.4817e+06
3.4866e+06
3.48601e+06
3.48861e+06
3.48906e+06
3.4906e+06
3.49128e+06
3.49228e+06
3.30964e+06
3.47883e+06
3.49203e+06
3.46827e+06
3.49696e+06
3.48062e+06
3.49346e+06
3.48704e+06
3.49227e+06
3.48987e+06
3.49195e+06
3.49112e+06
3.49204e+06
3.98815e+06
3.36402e+06
3.53003e+06
3.43328e+06
3.48623e+06
3.4553e+06
3.47665e+06
3.46813e+06
3.47803e+06
3.47684e+06
3.48201e+06
3.48287e+06
3.48588e+06
3.98972e+06
3.41822e+06
3.52473e+06
3.43464e+06
3.49827e+06
3.46365e+06
3.48966e+06
3.47879e+06
3.4886e+06
3.48532e+06
3.48896e+06
3.48767e+06
3.48919e+06
3.94811e+06
3.21492e+06
3.46073e+06
3.41311e+06
3.45249e+06
3.42553e+06
3.45132e+06
3.44441e+06
3.45843e+06
3.46021e+06
3.469e+06
3.47193e+06
3.47759e+06
3.07866e+06
3.67896e+06
3.13765e+06
3.52903e+06
3.45859e+06
3.44551e+06
3.47345e+06
3.46618e+06
3.47791e+06
3.47876e+06
3.48362e+06
3.4831e+06
3.48538e+06
3.08406e+06
3.16076e+06
3.29441e+06
3.35368e+06
3.36697e+06
3.37617e+06
3.39619e+06
3.40815e+06
3.42011e+06
3.43467e+06
3.45008e+06
3.45529e+06
3.4654e+06
3.04632e+06
3.17217e+06
3.2717e+06
3.29404e+06
3.36753e+06
3.36553e+06
3.40483e+06
3.42556e+06
3.44924e+06
3.46936e+06
3.47749e+06
3.47592e+06
3.47967e+06
3.32971e+06
2.88872e+06
3.18394e+06
3.11211e+06
3.25842e+06
3.2601e+06
3.29514e+06
3.33677e+06
3.32756e+06
3.38796e+06
3.41736e+06
3.42636e+06
3.45053e+06
3.63202e+06
3.50238e+06
3.23878e+06
3.04934e+06
3.24056e+06
3.32797e+06
3.41791e+06
3.49826e+06
3.54305e+06
3.55787e+06
3.52282e+06
3.47783e+06
3.48247e+06
3.99938e+06
3.98908e+06
3.61756e+06
2.6596e+06
2.65236e+06
2.76541e+06
2.91799e+06
2.90314e+06
3.01902e+06
3.1729e+06
3.31865e+06
3.33958e+06
3.41747e+06
4.00068e+06
4.00056e+06
4.00088e+06
4.00069e+06
3.99971e+06
4.00073e+06
3.23555e+06
3.99985e+06
3.9979e+06
3.99933e+06
3.65684e+06
3.43555e+06
3.48572e+06
4.00084e+06
4.00071e+06
4.00064e+06
4.00059e+06
4.00052e+06
4.00052e+06
4.00059e+06
4.0006e+06
4.00067e+06
4.00084e+06
4.00092e+06
4.00083e+06
4.00075e+06
4.00072e+06
4.0007e+06
4.00069e+06
4.00072e+06
4.00083e+06
4.00094e+06
4.00111e+06
4.00091e+06
4.00082e+06
4.00076e+06
4.00073e+06
4.00073e+06
4.00076e+06
4.00083e+06
4.0009e+06
4.001e+06
4.00113e+06
4.00097e+06
4.0009e+06
4.00086e+06
4.00085e+06
4.00084e+06
4.00086e+06
4.0009e+06
4.00098e+06
4.00109e+06
4.01727e+06
4.02874e+06
4.02195e+06
4.0202e+06
4.01897e+06
4.02275e+06
4.03052e+06
4.04293e+06
4.0573e+06
4.06997e+06
4.07455e+06
4.1694e+06
4.16967e+06
4.16877e+06
4.16835e+06
4.16711e+06
4.16613e+06
4.16494e+06
4.16395e+06
4.1628e+06
4.16311e+06
4.21633e+06
4.22179e+06
4.22153e+06
4.22445e+06
4.22508e+06
4.22539e+06
4.22491e+06
4.22249e+06
4.22111e+06
4.21852e+06
4.34515e+06
4.35572e+06
4.35492e+06
4.35722e+06
4.35452e+06
4.3502e+06
4.34337e+06
4.33417e+06
4.32591e+06
4.31893e+06
4.36108e+06
4.40243e+06
4.41633e+06
4.4319e+06
4.43371e+06
4.42776e+06
4.41497e+06
4.38911e+06
4.36596e+06
4.33232e+06
4.4771e+06
4.52102e+06
4.55921e+06
4.57203e+06
4.57171e+06
4.56117e+06
4.543e+06
4.51265e+06
4.4794e+06
4.40202e+06
4.48928e+06
4.49789e+06
4.50054e+06
4.50055e+06
4.50052e+06
4.50033e+06
4.50006e+06
4.49945e+06
4.49996e+06
4.48921e+06
4.49792e+06
4.4977e+06
4.49768e+06
4.49775e+06
4.49776e+06
4.49787e+06
4.49806e+06
4.49818e+06
4.49839e+06
4.49861e+06
4.49826e+06
4.49877e+06
4.49908e+06
4.49927e+06
4.49925e+06
4.49905e+06
4.499e+06
4.49852e+06
4.49852e+06
4.49758e+06
4.49802e+06
4.49801e+06
4.4981e+06
4.49821e+06
4.49823e+06
4.49825e+06
4.49837e+06
4.49842e+06
4.4985e+06
4.49856e+06
4.4986e+06
4.49863e+06
4.49873e+06
4.49884e+06
4.49883e+06
4.49874e+06
4.49862e+06
4.49856e+06
4.49859e+06
4.49848e+06
4.49823e+06
4.49824e+06
4.49834e+06
4.49845e+06
4.49848e+06
4.49847e+06
4.49842e+06
4.49853e+06
4.49861e+06
4.49863e+06
4.49863e+06
4.49864e+06
4.49862e+06
4.49879e+06
4.49875e+06
4.49869e+06
4.49863e+06
4.49873e+06
4.49877e+06
4.49875e+06
4.49845e+06
4.49853e+06
4.49854e+06
4.4987e+06
4.4987e+06
4.49863e+06
4.49856e+06
4.49865e+06
4.4987e+06
4.49872e+06
4.49869e+06
4.49876e+06
4.4988e+06
4.49893e+06
4.49883e+06
4.49874e+06
4.49877e+06
4.49881e+06
4.49882e+06
4.49883e+06
4.49864e+06
4.49876e+06
4.49878e+06
4.49888e+06
4.49885e+06
4.4988e+06
4.4988e+06
4.4988e+06
4.4988e+06
4.49881e+06
4.4988e+06
4.49891e+06
4.49892e+06
4.49905e+06
4.49898e+06
4.49893e+06
4.49891e+06
4.4989e+06
4.49888e+06
4.49888e+06
4.4988e+06
4.49895e+06
4.49898e+06
4.49909e+06
4.49901e+06
4.49897e+06
4.49894e+06
4.49894e+06
4.49891e+06
4.49891e+06
4.4989e+06
4.4988e+06
4.49904e+06
4.49914e+06
4.49907e+06
4.49904e+06
4.49901e+06
4.49901e+06
4.49898e+06
4.49898e+06
4.4989e+06
4.4989e+06
4.49912e+06
4.49914e+06
4.49905e+06
4.49905e+06
4.49903e+06
4.49904e+06
4.49902e+06
4.49902e+06
4.49913e+06
4.49912e+06
4.49913e+06
4.49919e+06
4.49918e+06
4.49912e+06
4.4991e+06
4.49909e+06
4.49908e+06
4.49908e+06
4.49916e+06
4.4992e+06
4.49915e+06
4.49916e+06
4.49915e+06
4.49913e+06
4.49913e+06
4.49913e+06
4.49913e+06
4.49913e+06
4.49919e+06
4.4992e+06
4.49921e+06