/*--------------------------------*- C++ -*----------------------------------*\
| =========                 |                                                 |
| \\      /  F ield         | OpenFOAM: The Open Source CFD Toolbox           |
|  \\    /   O peration     | Version:  v2012                                 |
|   \\  /    A nd           | Website:  www.openfoam.com                      |
|    \\/     M anipulation  |                                                 |
\*---------------------------------------------------------------------------*/
FoamFile
{
    version     2.0;
    format      ascii;
    class       volScalarField;
    location    "0.9";
    object      p_rgh;
}
// * * * * * * * * * * * * * * * * * * * * * * * * * * * * * * * * * * * * * //

dimensions      [1 -1 -2 0 0 0 0];


internalField   nonuniform List<scalar> 
3332
(
3.49763e+06
3.49751e+06
3.49808e+06
3.49837e+06
3.49841e+06
3.49854e+06
3.49858e+06
3.49858e+06
3.4953e+06
3.49682e+06
3.49761e+06
3.49807e+06
3.49827e+06
3.49847e+06
3.49859e+06
3.4986e+06
3.49861e+06
3.49861e+06
3.4986e+06
3.49872e+06
3.49874e+06
3.49876e+06
3.49879e+06
3.49518e+06
3.49656e+06
3.49743e+06
3.49785e+06
3.49803e+06
3.49828e+06
3.49846e+06
3.49852e+06
3.49858e+06
3.49859e+06
3.49858e+06
3.4987e+06
3.4987e+06
3.49872e+06
3.49874e+06
3.49525e+06
3.49647e+06
3.49726e+06
3.49778e+06
3.49798e+06
3.49816e+06
3.49832e+06
3.49841e+06
3.4985e+06
3.49852e+06
3.49851e+06
3.49864e+06
3.49865e+06
3.49866e+06
3.49869e+06
3.49502e+06
3.49643e+06
3.49725e+06
3.49772e+06
3.49789e+06
3.49807e+06
3.49822e+06
3.49831e+06
3.49842e+06
3.49843e+06
3.49842e+06
3.49856e+06
3.49857e+06
3.49859e+06
3.49863e+06
3.4953e+06
3.4962e+06
3.49705e+06
3.49759e+06
3.49778e+06
3.49799e+06
3.49814e+06
3.49821e+06
3.49832e+06
3.49833e+06
3.49833e+06
3.49847e+06
3.49848e+06
3.49851e+06
3.49855e+06
3.49498e+06
3.49622e+06
3.49713e+06
3.49762e+06
3.49778e+06
3.49796e+06
3.49807e+06
3.49813e+06
3.49822e+06
3.49824e+06
3.49823e+06
3.49837e+06
3.49839e+06
3.49842e+06
3.49847e+06
3.49541e+06
3.49639e+06
3.49711e+06
3.49744e+06
3.49762e+06
3.4978e+06
3.49792e+06
3.49798e+06
3.49807e+06
3.49809e+06
3.4981e+06
3.49825e+06
3.49828e+06
3.49832e+06
3.49838e+06
3.49509e+06
3.49644e+06
3.49724e+06
3.49752e+06
3.49765e+06
3.49776e+06
3.49781e+06
3.49785e+06
3.49792e+06
3.49796e+06
3.49799e+06
3.49814e+06
3.49818e+06
3.49824e+06
3.4983e+06
3.49541e+06
3.49621e+06
3.49714e+06
3.49743e+06
3.49747e+06
3.49758e+06
3.49761e+06
3.49781e+06
3.49788e+06
3.49792e+06
3.49796e+06
3.49802e+06
3.49807e+06
3.49813e+06
3.4982e+06
3.49499e+06
3.49629e+06
3.49728e+06
3.49751e+06
3.49752e+06
3.49756e+06
3.49753e+06
3.4977e+06
3.49775e+06
3.49779e+06
3.49785e+06
3.49791e+06
3.49797e+06
3.49804e+06
3.49811e+06
3.49569e+06
3.49649e+06
3.49716e+06
3.49719e+06
3.49724e+06
3.49728e+06
3.49726e+06
3.49745e+06
3.49751e+06
3.49757e+06
3.49765e+06
3.49773e+06
3.49781e+06
3.4979e+06
3.49799e+06
3.49535e+06
3.4968e+06
3.49743e+06
3.49737e+06
3.49733e+06
3.49729e+06
3.49722e+06
3.49739e+06
3.49744e+06
3.49749e+06
3.49756e+06
3.49763e+06
3.49771e+06
3.4978e+06
3.49788e+06
3.49768e+06
3.49638e+06
3.49658e+06
3.49677e+06
3.49678e+06
3.49697e+06
3.49697e+06
3.49702e+06
3.49712e+06
3.49721e+06
3.49731e+06
3.49741e+06
3.49751e+06
3.49762e+06
3.49773e+06
3.49729e+06
3.49694e+06
3.49708e+06
3.49702e+06
3.49689e+06
3.49702e+06
3.49697e+06
3.49701e+06
3.49709e+06
3.49716e+06
3.49724e+06
3.49732e+06
3.49741e+06
3.49751e+06
3.49761e+06
3.49837e+06
3.49691e+06
3.49643e+06
3.49624e+06
3.49623e+06
3.49628e+06
3.49637e+06
3.49648e+06
3.49663e+06
3.49673e+06
3.49687e+06
3.49701e+06
3.49714e+06
3.49728e+06
3.49741e+06
3.49787e+06
3.49729e+06
3.49689e+06
3.49655e+06
3.49653e+06
3.49652e+06
3.49657e+06
3.49663e+06
3.49671e+06
3.49677e+06
3.49686e+06
3.49695e+06
3.49704e+06
3.49716e+06
3.49728e+06
3.49784e+06
3.49579e+06
3.4957e+06
3.49544e+06
3.49544e+06
3.49549e+06
3.49566e+06
3.49577e+06
3.49598e+06
3.49613e+06
3.4963e+06
3.49648e+06
3.49666e+06
3.49683e+06
3.49701e+06
3.49755e+06
3.49625e+06
3.49634e+06
3.49603e+06
3.49615e+06
3.49607e+06
3.49619e+06
3.49616e+06
3.49629e+06
3.49632e+06
3.49641e+06
3.49649e+06
3.49661e+06
3.49673e+06
3.49687e+06
3.49567e+06
3.49415e+06
3.49422e+06
3.49372e+06
3.49418e+06
3.49417e+06
3.49458e+06
3.49469e+06
3.49505e+06
3.49522e+06
3.4955e+06
3.49573e+06
3.49598e+06
3.4962e+06
3.49644e+06
3.49705e+06
3.49442e+06
3.49551e+06
3.49496e+06
3.49567e+06
3.49527e+06
3.49569e+06
3.49548e+06
3.49575e+06
3.49567e+06
3.49583e+06
3.49588e+06
3.49602e+06
3.49613e+06
3.4963e+06
3.48727e+06
3.48756e+06
3.4908e+06
3.49e+06
3.49199e+06
3.49163e+06
3.49283e+06
3.49272e+06
3.49355e+06
3.4937e+06
3.49427e+06
3.49455e+06
3.49497e+06
3.49527e+06
3.49561e+06
3.49016e+06
3.48803e+06
3.49386e+06
3.49194e+06
3.49484e+06
3.49352e+06
3.49506e+06
3.49423e+06
3.49502e+06
3.49465e+06
3.49503e+06
3.49496e+06
3.49519e+06
3.49527e+06
3.4955e+06
3.49006e+06
3.47942e+06
3.48834e+06
3.48358e+06
3.48966e+06
3.48656e+06
3.49001e+06
3.48903e+06
3.49104e+06
3.49099e+06
3.49221e+06
3.49256e+06
3.49335e+06
3.49378e+06
3.49435e+06
3.48351e+06
3.4831e+06
3.49568e+06
3.48544e+06
3.49513e+06
3.48962e+06
3.4943e+06
3.49176e+06
3.49392e+06
3.49284e+06
3.49381e+06
3.49349e+06
3.49396e+06
3.49397e+06
3.49432e+06
3.50909e+06
3.46258e+06
3.49588e+06
3.46897e+06
3.48678e+06
3.47575e+06
3.48535e+06
3.48173e+06
3.48663e+06
3.48604e+06
3.48864e+06
3.48909e+06
3.49063e+06
3.49131e+06
3.49231e+06
3.30965e+06
3.47886e+06
3.49206e+06
3.4683e+06
3.49699e+06
3.48065e+06
3.49349e+06
3.48707e+06
3.4923e+06
3.4899e+06
3.49198e+06
3.49115e+06
3.49207e+06
3.98818e+06
3.36405e+06
3.53006e+06
3.43331e+06
3.48626e+06
3.45533e+06
3.47669e+06
3.46816e+06
3.47807e+06
3.47687e+06
3.48204e+06
3.4829e+06
3.48591e+06
3.98975e+06
3.41825e+06
3.52476e+06
3.43467e+06
3.4983e+06
3.46368e+06
3.48969e+06
3.47882e+06
3.48863e+06
3.48535e+06
3.489e+06
3.4877e+06
3.48922e+06
3.94811e+06
3.21495e+06
3.46076e+06
3.41314e+06
3.45252e+06
3.42556e+06
3.45136e+06
3.44444e+06
3.45846e+06
3.46025e+06
3.46903e+06
3.47196e+06
3.47762e+06
3.07876e+06
3.67897e+06
3.13769e+06
3.52907e+06
3.45862e+06
3.44554e+06
3.47348e+06
3.4662e+06
3.47794e+06
3.47879e+06
3.48365e+06
3.48313e+06
3.48541e+06
3.08408e+06
3.16081e+06
3.2945e+06
3.35376e+06
3.36694e+06
3.3762e+06
3.39623e+06
3.40812e+06
3.42014e+06
3.43471e+06
3.4501e+06
3.45532e+06
3.46543e+06
3.04634e+06
3.17221e+06
3.27179e+06
3.29427e+06
3.36714e+06
3.36547e+06
3.4049e+06
3.42523e+06
3.44926e+06
3.46954e+06
3.47746e+06
3.47594e+06
3.4797e+06
3.32972e+06
2.8888e+06
3.18423e+06
3.11225e+06
3.25667e+06
3.25965e+06
3.29545e+06
3.33445e+06
3.32749e+06
3.38869e+06
3.4174e+06
3.42639e+06
3.45056e+06
3.63203e+06
3.5024e+06
3.23913e+06
3.04946e+06
3.23977e+06
3.32772e+06
3.41816e+06
3.49806e+06
3.54051e+06
3.55794e+06
3.52286e+06
3.47787e+06
3.4825e+06
3.99942e+06
3.98917e+06
3.61904e+06
2.6605e+06
2.6514e+06
2.76513e+06
2.91964e+06
2.90293e+06
3.01935e+06
3.17303e+06
3.32107e+06
3.33942e+06
3.4175e+06
4.00079e+06
4.00066e+06
4.00098e+06
4.00081e+06
3.94504e+06
4.00057e+06
3.23685e+06
3.99469e+06
3.91378e+06
3.99894e+06
3.64189e+06
3.4355e+06
3.48578e+06
4.00103e+06
4.00089e+06
4.00081e+06
4.00076e+06
4.00069e+06
4.00068e+06
4.00073e+06
4.00077e+06
4.00085e+06
4.00104e+06
4.00114e+06
4.00104e+06
4.00096e+06
4.00092e+06
4.00091e+06
4.00089e+06
4.00092e+06
4.00105e+06
4.00116e+06
4.00134e+06
4.00116e+06
4.00106e+06
4.001e+06
4.00097e+06
4.00096e+06
4.001e+06
4.00107e+06
4.00114e+06
4.00124e+06
4.00138e+06
4.00123e+06
4.00116e+06
4.00112e+06
4.0011e+06
4.0011e+06
4.00111e+06
4.00116e+06
4.00124e+06
4.00135e+06
4.01753e+06
4.029e+06
4.02221e+06
4.02046e+06
4.01923e+06
4.02302e+06
4.03078e+06
4.0432e+06
4.05756e+06
4.07024e+06
4.07481e+06
4.16966e+06
4.16993e+06
4.16903e+06
4.16861e+06
4.16737e+06
4.16639e+06
4.16521e+06
4.16421e+06
4.16306e+06
4.16337e+06
4.21659e+06
4.22205e+06
4.2218e+06
4.22472e+06
4.22534e+06
4.22566e+06
4.22518e+06
4.22276e+06
4.22138e+06
4.21878e+06
4.34542e+06
4.35598e+06
4.35519e+06
4.35748e+06
4.35479e+06
4.35047e+06
4.34364e+06
4.33444e+06
4.32618e+06
4.3192e+06
4.36135e+06
4.4027e+06
4.4166e+06
4.43217e+06
4.43398e+06
4.42803e+06
4.41524e+06
4.38938e+06
4.36623e+06
4.33259e+06
4.47737e+06
4.52129e+06
4.55948e+06
4.5723e+06
4.57198e+06
4.56144e+06
4.54327e+06
4.51292e+06
4.47967e+06
4.40229e+06
4.48955e+06
4.49816e+06
4.50081e+06
4.50082e+06
4.50079e+06
4.5006e+06
4.50034e+06
4.49972e+06
4.50023e+06
4.48948e+06
4.49819e+06
4.49798e+06
4.49796e+06
4.49802e+06
4.49804e+06
4.49815e+06
4.49833e+06
4.49845e+06
4.49866e+06
4.49889e+06
4.49854e+06
4.49905e+06
4.49936e+06
4.49955e+06
4.49952e+06
4.49933e+06
4.49928e+06
4.4988e+06
4.4988e+06
4.49786e+06
4.4983e+06
4.49829e+06
4.49838e+06
4.49849e+06
4.49851e+06
4.49853e+06
4.49865e+06
4.4987e+06
4.49878e+06
4.49884e+06
4.49889e+06
4.49891e+06
4.49901e+06
4.49912e+06
4.49911e+06
4.49902e+06
4.4989e+06
4.49884e+06
4.49887e+06
4.49876e+06
4.49852e+06
4.49852e+06
4.49862e+06
4.49874e+06
4.49876e+06
4.49876e+06
4.4987e+06
4.49882e+06
4.49889e+06
4.49891e+06
4.49891e+06
4.49893e+06
4.4989e+06
4.49907e+06
4.49904e+06
4.49897e+06
4.49892e+06
4.49901e+06
4.49905e+06
4.49904e+06
4.49874e+06
4.49882e+06
4.49883e+06
4.49899e+06
4.49899e+06
4.49892e+06
4.49885e+06
4.49894e+06
4.49899e+06
4.499e+06
4.49898e+06
4.49905e+06
4.49909e+06
4.49922e+06
4.49911e+06
4.49903e+06
4.49906e+06
4.4991e+06
4.4991e+06
4.49912e+06
4.49893e+06
4.49905e+06
4.49907e+06
4.49917e+06
4.49914e+06
4.49909e+06
4.49909e+06
4.49909e+06
4.49909e+06
4.4991e+06
4.49909e+06
4.4992e+06
4.49921e+06
4.49934e+06
4.49928e+06
4.49922e+06
4.4992e+06
4.49919e+06
4.49917e+06
4.49917e+06
4.4991e+06
4.49925e+06
4.49928e+06
4.49938e+06
4.49931e+06
4.49926e+06
4.49924e+06
4.49923e+06
4.49921e+06
4.49921e+06
4.49919e+06
4.4991e+06
4.49934e+06
4.49943e+06
4.49937e+06
4.49934e+06
4.4993e+06
4.4993e+06
4.49928e+06
4.49928e+06
4.4992e+06
4.4992e+06
4.49942e+06
4.49944e+06
4.49935e+06
4.49935e+06
4.49933e+06
4.49934e+06
4.49932e+06
4.49932e+06
4.49944e+06
4.49942e+06
4.49944e+06
4.49949e+06
4.49948e+06
4.49942e+06
4.4994e+06
4.4994e+06
4.49939e+06
4.49939e+06
4.49946e+06
4.49951e+06
4.49946e+06
4.49946e+06
4.49945e+06
4.49943e+06
4.49943e+06
4.49943e+06
4.49943e+06
4.49943e+06
4.4995e+06
4.49951e+06
4.49952e+06
4.49952e+06
4.49951e+06
4.49949e+06
4.49948e+06
4.49948e+06
4.49948e+06
4.49949e+06
4.49954e+06
4.49955e+06
4.49952e+06
4.49951e+06
4.49952e+06
4.49952e+06
4.49952e+06
4.49953e+06
4.49953e+06
4.49953e+06
4.49953e+06
4.49954e+06
4.49956e+06
4.49955e+06
4.49956e+06
4.49956e+06
4.49955e+06
4.49956e+06
4.49956e+06
4.49956e+06
4.49956e+06
4.49955e+06
4.49955e+06
4.49956e+06
4.49956e+06
4.49958e+06
4.49957e+06
4.49957e+06
4.49957e+06
4.49957e+06
4.49974e+06
4.4998e+06
4.49964e+06
4.49962e+06
4.49962e+06
4.49963e+06
4.49961e+06
4.49959e+06
4.49958e+06
4.49958e+06
4.49975e+06
4.49977e+06
4.49964e+06
4.49964e+06
4.49965e+06
4.49965e+06
4.49962e+06
4.49959e+06
4.49957e+06
4.49957e+06
4.4998e+06
4.49984e+06
4.49976e+06
4.49969e+06
4.49968e+06
4.49968e+06
4.49965e+06
4.49961e+06
4.4996e+06
4.4996e+06
4.49979e+06
4.49978e+06
4.49972e+06
4.49967e+06
4.49966e+06
4.49967e+06
4.49963e+06
4.49961e+06
4.49959e+06
4.49959e+06
4.49983e+06
4.49987e+06
4.49978e+06
4.49972e+06
4.4997e+06
4.49969e+06
4.49966e+06
4.49964e+06
4.49963e+06
4.49962e+06
4.4998e+06
4.49979e+06
4.4997e+06
4.49966e+06
4.49961e+06
4.4996e+06
4.49958e+06
4.49958e+06
4.49956e+06
4.49956e+06
4.49981e+06
4.49982e+06
4.49976e+06
4.49971e+06
4.49968e+06
4.49966e+06
4.49964e+06
4.49963e+06
4.49962e+06
4.49961e+06
4.49976e+06
4.49971e+06
4.49964e+06
4.49958e+06
4.49956e+06
4.49954e+06
4.49952e+06
4.49949e+06
4.49948e+06
4.49946e+06
4.49979e+06
4.4998e+06
4.49974e+06
4.49969e+06
4.49969e+06
4.49968e+06
4.49967e+06
4.49965e+06
4.49964e+06
4.49963e+06
4.49972e+06
4.49967e+06
4.4996e+06
4.49957e+06
4.49956e+06
4.49953e+06
4.49951e+06
4.49943e+06
4.4994e+06
4.49925e+06
4.49995e+06
4.49988e+06
4.49978e+06
4.49976e+06
4.49979e+06
4.4998e+06
4.49981e+06
4.4998e+06
4.49987e+06
4.49973e+06
4.49999e+06
4.49993e+06
4.49999e+06
4.49998e+06
4.5e+06
4.5e+06
4.5e+06
4.49995e+06
4.49979e+06
4.49968e+06
4.49968e+06
4.49972e+06
4.49975e+06
4.49979e+06
4.4998e+06
4.49986e+06
4.49975e+06
4.49992e+06
4.49992e+06
4.49997e+06
4.49998e+06
4.49999e+06
4.49999e+06
4.5e+06
4.50003e+06
4.49988e+06
4.49978e+06
4.49987e+06
4.49991e+06
4.49984e+06
4.49986e+06
4.49988e+06
4.49992e+06
4.49991e+06
4.49997e+06
4.49996e+06
4.49999e+06
4.49998e+06
4.49999e+06
4.49999e+06
4.5e+06
4.50003e+06
4.49982e+06
4.49972e+06
4.49981e+06
4.49987e+06
4.49982e+06
4.49986e+06
4.49988e+06
4.4999e+06
4.49991e+06
4.49995e+06
4.49996e+06
4.49998e+06
4.49998e+06
4.49999e+06
4.49999e+06
4.49999e+06
4.50012e+06
4.49993e+06
4.49981e+06
4.4999e+06
4.49995e+06
4.4999e+06
4.49994e+06
4.49995e+06
4.49997e+06
4.49997e+06
4.49998e+06
4.49998e+06
4.49999e+06
4.49999e+06
4.49999e+06
4.49999e+06
4.5e+06
4.50009e+06
4.4999e+06
4.49982e+06
4.4999e+06
4.49994e+06
4.49989e+06
4.49992e+06
4.49994e+06
4.49995e+06
4.49996e+06
4.49997e+06
4.49998e+06
4.49998e+06
4.49999e+06
4.49999e+06
4.49999e+06
4.49999e+06
4.49994e+06
4.49995e+06
4.49991e+06
4.49991e+06
4.49994e+06
4.49996e+06
4.49996e+06
4.49997e+06
4.49998e+06
4.49998e+06
4.49999e+06
4.49999e+06
4.49999e+06
4.49999e+06
4.49999e+06
4.49999e+06
4.5e+06
4.49991e+06
4.49991e+06
4.49992e+06
4.49993e+06
4.49994e+06
4.49995e+06
4.49996e+06
4.49996e+06
4.49997e+06
4.49997e+06
4.49998e+06
4.49998e+06
4.49999e+06
4.49999e+06
4.49999e+06
4.49999e+06
4.5e+06
4.4999e+06
4.49993e+06
4.49995e+06
4.49996e+06
4.49997e+06
4.49997e+06
4.49998e+06
4.49998e+06
4.49998e+06
4.49998e+06
4.49999e+06
4.49999e+06
4.49999e+06
4.49999e+06
4.49999e+06
4.49999e+06
4.5e+06
4.49989e+06
4.4999e+06
4.49994e+06
4.49995e+06
4.49996e+06
4.49997e+06
4.49997e+06
4.49998e+06
4.49998e+06
4.49998e+06
4.49999e+06
4.49999e+06
4.49999e+06
4.49999e+06
4.49999e+06
4.49999e+06
4.5e+06
4.4999e+06
4.49991e+06
4.49994e+06
4.49997e+06
4.49998e+06
4.49998e+06
4.49998e+06
4.49998e+06
4.49999e+06
4.49999e+06
4.49999e+06
4.49999e+06
4.49999e+06
4.49999e+06
4.49999e+06
4.5e+06
4.5e+06
4.5e+06
4.5e+06
4.49991e+06
4.49991e+06
4.49994e+06
4.49997e+06
4.49998e+06
4.49998e+06
4.49998e+06
4.49998e+06
4.49999e+06
4.49999e+06
4.49999e+06
4.49999e+06
4.49999e+06
4.49999e+06
4.49999e+06
4.5e+06
4.5e+06
4.5e+06
4.5e+06
4.49992e+06
4.49993e+06
4.49996e+06
4.49998e+06
4.49998e+06
4.49999e+06
4.49999e+06
4.49999e+06
4.49999e+06
4.49999e+06
4.49999e+06
4.49999e+06
4.49999e+06
4.5e+06
4.5e+06
4.5e+06
4.5e+06
4.5e+06
4.5e+06
4.49995e+06
4.49995e+06
4.49997e+06
4.49998e+06
4.49999e+06
4.49999e+06
4.49999e+06
4.49999e+06
4.49999e+06
4.49999e+06
4.49999e+06
4.49999e+06
4.49999e+06
4.5e+06
4.5e+06
4.5e+06
4.5e+06
4.5e+06
4.5e+06
4.49997e+06
4.49997e+06
4.49998e+06
4.49999e+06
4.49999e+06
4.49999e+06
4.49999e+06
4.49999e+06
4.49999e+06
4.49999e+06
4.49999e+06
4.5e+06
4.5e+06
4.5e+06
4.5e+06
4.5e+06
4.5e+06
4.5e+06
4.5e+06
4.49998e+06
4.49998e+06
4.49999e+06
4.49999e+06
4.49999e+06
4.49999e+06
4.49999e+06
4.49999e+06
4.49999e+06
4.49999e+06
4.5e+06
4.5e+06
4.5e+06
4.5e+06
4.5e+06
4.5e+06
4.5e+06
4.5e+06
4.5e+06
4.49999e+06
4.49999e+06
4.49999e+06
4.49999e+06
4.5e+06
4.5e+06
4.5e+06
4.5e+06
4.5e+06
4.5e+06
4.5e+06
4.5e+06
4.5e+06
4.5e+06
4.5e+06
4.5e+06
4.5e+06
4.5e+06
4.5e+06
4.49999e+06
4.49999e+06
4.49999e+06
4.5e+06
4.5e+06
4.5e+06
4.5e+06
4.5e+06
4.5e+06
4.5e+06
4.5e+06
4.5e+06
4.5e+06
4.5e+06
4.5e+06
4.5e+06
4.5e+06
4.5e+06
4.5e+06
4.49999e+06
4.49999e+06
4.49999e+06
4.5e+06
4.5e+06
4.5e+06
4.5e+06
4.5e+06
4.5e+06
4.5e+06
4.5e+06
4.5e+06
4.5e+06
4.5e+06
4.5e+06
4.5e+06
4.5e+06
4.5e+06
4.5e+06
4.49999e+06
4.49999e+06
4.5e+06
4.5e+06
4.5e+06
4.5e+06
4.5e+06
4.5e+06
4.5e+06
4.5e+06
4.5e+06
4.5e+06
4.5e+06
4.5e+06
4.5e+06
4.5e+06
4.5e+06
4.5e+06
4.5e+06
4.49999e+06
4.5e+06
4.5e+06
4.5e+06
4.5e+06
4.5e+06
4.5e+06
4.5e+06
4.5e+06
4.5e+06
4.5e+06
4.5e+06
4.5e+06
4.5e+06
4.5e+06
4.5e+06
4.5e+06
4.5e+06
4.5e+06
4.5e+06
4.5e+06
4.5e+06
4.5e+06
4.5e+06
4.5e+06
4.5e+06
4.5e+06
4.5e+06
4.5e+06
4.5e+06
4.5e+06
4.5e+06
4.5e+06
4.5e+06
4.5e+06
4.5e+06
4.5e+06
4.5e+06
4.5e+06
4.5e+06
4.5e+06
4.5e+06
4.5e+06
4.5e+06
4.5e+06
4.5e+06
4.5e+06
4.5e+06
4.5e+06
4.5e+06
4.5e+06
4.5e+06
4.5e+06
4.5e+06
4.5e+06
4.5e+06
4.5e+06
4.5e+06
4.5e+06
4.5e+06
4.5e+06
4.5e+06
4.5e+06
4.5e+06
4.5e+06
4.5e+06
4.5e+06
4.5e+06
4.5e+06
4.5e+06
4.5e+06
4.5e+06
4.5e+06
4.5e+06
4.5e+06
4.5e+06
4.50001e+06
4.50001e+06
4.5e+06
4.5e+06
4.5e+06
4.5e+06
4.5e+06
4.5e+06
4.5e+06
4.5e+06
4.5e+06
4.5e+06
4.5e+06
4.5e+06
4.5e+06
4.5e+06
4.5e+06
4.5e+06
4.5e+06
4.50001e+06
4.50001e+06
4.5e+06
4.5e+06
4.5e+06
4.5e+06
4.5e+06
4.5e+06
4.5e+06
4.5e+06
4.5e+06
4.5e+06
4.5e+06
4.5e+06
4.5e+06
4.5e+06
4.5e+06
4.5e+06
4.5e+06
4.50001e+06
4.50001e+06
4.5e+06
4.5e+06
4.5e+06
4.5e+06
4.5e+06
4.5e+06
4.5e+06
4.5e+06
4.5e+06
4.5e+06
4.5e+06
4.5e+06
4.5e+06
4.5e+06
4.5e+06
4.5e+06
4.5e+06
4.50001e+06
4.50001e+06
4.50001e+06
4.5e+06
4.5e+06
4.5e+06
4.5e+06
4.5e+06
4.5e+06
4.5e+06
4.5e+06
4.5e+06
4.5e+06
4.5e+06
4.5e+06
4.5e+06
4.5e+06
4.5e+06
4.5e+06
4.50001e+06
4.50001e+06
4.50001e+06
4.5e+06
4.5e+06
4.5e+06
4.5e+06
4.5e+06
4.5e+06
4.5e+06
4.5e+06
4.5e+06
4.5e+06
4.5e+06
4.5e+06
4.5e+06
4.5e+06
4.5e+06
4.5e+06
4.50001e+06
4.50001e+06
4.50001e+06
4.5e+06
4.5e+06
4.5e+06
4.5e+06
4.5e+06
4.5e+06
4.5e+06
4.5e+06
4.5e+06
4.5e+06
4.5e+06
4.5e+06
4.5e+06
4.5e+06
4.5e+06
4.5e+06
4.50001e+06
4.50001e+06
4.50001e+06
4.5e+06
4.5e+06
4.5e+06
4.5e+06
4.5e+06
4.5e+06
4.5e+06
4.5e+06
4.5e+06
4.5e+06
4.5e+06
4.5e+06
4.5e+06
4.5e+06
4.5e+06
4.5e+06
4.50001e+06
4.50001e+06
4.50001e+06
4.5e+06
4.5e+06
4.5e+06
4.5e+06
4.5e+06
4.5e+06
4.5e+06
4.5e+06
4.5e+06
4.5e+06
4.5e+06
4.5e+06
4.5e+06
4.5e+06
4.5e+06
4.5e+06
4.50001e+06
4.50001e+06
4.50001e+06
4.5e+06
4.5e+06
4.5e+06
4.5e+06
4.5e+06
4.5e+06
4.5e+06
4.5e+06
4.5e+06
4.5e+06
4.5e+06
4.5e+06
4.5e+06
4.5e+06
4.5e+06
4.5e+06
4.50001e+06
4.50001e+06
4.50001e+06
4.5e+06
4.5e+06
4.5e+06
4.5e+06
4.5e+06
4.5e+06
4.5e+06
4.5e+06
4.5e+06
4.5e+06
4.5e+06
4.5e+06
4.5e+06
4.5e+06
4.5e+06
4.5e+06
4.50001e+06
4.50001e+06
4.50001e+06
4.5e+06
4.5e+06
4.5e+06
4.5e+06
4.5e+06
4.5e+06
4.5e+06
4.5e+06
4.5e+06
4.5e+06
4.5e+06
4.5e+06
4.5e+06
4.5e+06
4.5e+06
4.5e+06
4.50001e+06
4.50001e+06
4.50001e+06
4.5e+06
4.5e+06
4.5e+06
4.5e+06
4.5e+06
4.5e+06
4.5e+06
4.5e+06
4.5e+06
4.5e+06
4.5e+06
4.5e+06
4.5e+06
4.5e+06
4.5e+06
4.5e+06
4.50001e+06
4.50001e+06
4.50001e+06
4.5e+06
4.5e+06
4.5e+06
4.5e+06
4.5e+06
4.5e+06
4.5e+06
4.5e+06
4.5e+06
4.5e+06
4.5e+06
4.5e+06
4.5e+06
4.5e+06
4.5e+06
4.5e+06
4.50001e+06
4.50001e+06
4.50001e+06
4.5e+06
4.5e+06
4.5e+06
4.5e+06
4.5e+06
4.5e+06
4.5e+06
4.5e+06
4.5e+06
4.5e+06
4.5e+06
4.5e+06
4.5e+06
4.5e+06
4.5e+06
4.5e+06
4.50001e+06
4.50001e+06
4.5e+06
4.5e+06
4.5e+06
4.5e+06
4.5e+06
4.5e+06
4.5e+06
4.5e+06
4.5e+06
4.5e+06
4.5e+06
4.5e+06
4.5e+06
4.5e+06
4.5e+06
4.5e+06
4.5e+06
4.50001e+06
4.5e+06
4.5e+06
4.5e+06
4.5e+06
4.5e+06
4.5e+06
4.5e+06
4.5e+06
4.5e+06
4.5e+06
4.5e+06
4.5e+06
4.5e+06
4.5e+06
4.5e+06
4.5e+06
4.5e+06
4.5e+06
3.49763e+06
3.49751e+06
3.49808e+06
3.49837e+06
3.49841e+06
3.49854e+06
3.49858e+06
3.49858e+06
3.4953e+06
3.49682e+06
3.49761e+06
3.49807e+06
3.49827e+06
3.49847e+06
3.49859e+06
3.4986e+06
3.49861e+06
3.49861e+06
3.4986e+06
3.49872e+06
3.49874e+06
3.49876e+06
3.49879e+06
3.49518e+06
3.49656e+06
3.49743e+06
3.49785e+06
3.49803e+06
3.49828e+06
3.49846e+06
3.49852e+06
3.49858e+06
3.49859e+06
3.49858e+06
3.4987e+06
3.4987e+06
3.49872e+06
3.49874e+06
3.49525e+06
3.49647e+06
3.49726e+06
3.49778e+06
3.49798e+06
3.49816e+06
3.49832e+06
3.49841e+06
3.4985e+06
3.49852e+06
3.49851e+06
3.49864e+06
3.49865e+06
3.49866e+06
3.49869e+06
3.49502e+06
3.49643e+06
3.49725e+06
3.49772e+06
3.49789e+06
3.49807e+06
3.49822e+06
3.49831e+06
3.49842e+06
3.49843e+06
3.49842e+06
3.49856e+06
3.49857e+06
3.49859e+06
3.49863e+06
3.4953e+06
3.4962e+06
3.49705e+06
3.49759e+06
3.49778e+06
3.49799e+06
3.49813e+06
3.49821e+06
3.49832e+06
3.49833e+06
3.49833e+06
3.49847e+06
3.49848e+06
3.49851e+06
3.49855e+06
3.49498e+06
3.49622e+06
3.49713e+06
3.49762e+06
3.49778e+06
3.49796e+06
3.49807e+06
3.49813e+06
3.49822e+06
3.49824e+06
3.49823e+06
3.49837e+06
3.49839e+06
3.49842e+06
3.49847e+06
3.49541e+06
3.49639e+06
3.49711e+06
3.49744e+06
3.49762e+06
3.4978e+06
3.49792e+06
3.49798e+06
3.49807e+06
3.49809e+06
3.4981e+06
3.49825e+06
3.49828e+06
3.49832e+06
3.49838e+06
3.49509e+06
3.49644e+06
3.49724e+06
3.49752e+06
3.49765e+06
3.49776e+06
3.49781e+06
3.49785e+06
3.49792e+06
3.49796e+06
3.49799e+06
3.49814e+06
3.49818e+06
3.49824e+06
3.4983e+06
3.49541e+06
3.49621e+06
3.49714e+06
3.49743e+06
3.49747e+06
3.49758e+06
3.49761e+06
3.49781e+06
3.49788e+06
3.49792e+06
3.49796e+06
3.49802e+06
3.49807e+06
3.49813e+06
3.4982e+06
3.49499e+06
3.49629e+06
3.49728e+06
3.49751e+06
3.49752e+06
3.49756e+06
3.49753e+06
3.4977e+06
3.49775e+06
3.49779e+06
3.49785e+06
3.49791e+06
3.49797e+06
3.49804e+06
3.49811e+06
3.49569e+06
3.49649e+06
3.49716e+06
3.49719e+06
3.49724e+06
3.49728e+06
3.49726e+06
3.49745e+06
3.49751e+06
3.49757e+06
3.49765e+06
3.49773e+06
3.49781e+06
3.4979e+06
3.49799e+06
3.49535e+06
3.4968e+06
3.49743e+06
3.49737e+06
3.49733e+06
3.49728e+06
3.49722e+06
3.49739e+06
3.49744e+06
3.49749e+06
3.49756e+06
3.49763e+06
3.49771e+06
3.4978e+06
3.49788e+06
3.49768e+06
3.49638e+06
3.49658e+06
3.49677e+06
3.49678e+06
3.49697e+06
3.49697e+06
3.49702e+06
3.49712e+06
3.49721e+06
3.49731e+06
3.49741e+06
3.49751e+06
3.49762e+06
3.49773e+06
3.49729e+06
3.49694e+06
3.49708e+06
3.49702e+06
3.49689e+06
3.49702e+06
3.49697e+06
3.49701e+06
3.49709e+06
3.49716e+06
3.49724e+06
3.49732e+06
3.49741e+06
3.49751e+06
3.49761e+06
3.49837e+06
3.49691e+06
3.49643e+06
3.49624e+06
3.49623e+06
3.49628e+06
3.49637e+06
3.49648e+06
3.49663e+06
3.49673e+06
3.49687e+06
3.49701e+06
3.49714e+06
3.49728e+06
3.49741e+06
3.49787e+06
3.49729e+06
3.49689e+06
3.49655e+06
3.49653e+06
3.49652e+06
3.49657e+06
3.49663e+06
3.49671e+06
3.49677e+06
3.49686e+06
3.49695e+06
3.49704e+06
3.49716e+06
3.49728e+06
3.49784e+06
3.49579e+06
3.4957e+06
3.49544e+06
3.49544e+06
3.49549e+06
3.49566e+06
3.49577e+06
3.49598e+06
3.49613e+06
3.4963e+06
3.49648e+06
3.49666e+06
3.49683e+06
3.49701e+06
3.49755e+06
3.49625e+06
3.49634e+06
3.49603e+06
3.49615e+06
3.49607e+06
3.49619e+06
3.49616e+06
3.49629e+06
3.49632e+06
3.49641e+06
3.49649e+06
3.49661e+06
3.49673e+06
3.49687e+06
3.49567e+06
3.49415e+06
3.49422e+06
3.49372e+06
3.49418e+06
3.49417e+06
3.49458e+06
3.49469e+06
3.49505e+06
3.49522e+06
3.4955e+06
3.49573e+06
3.49598e+06
3.4962e+06
3.49644e+06
3.49705e+06
3.49442e+06
3.49551e+06
3.49496e+06
3.49567e+06
3.49527e+06
3.49569e+06
3.49548e+06
3.49575e+06
3.49567e+06
3.49583e+06
3.49588e+06
3.49602e+06
3.49613e+06
3.4963e+06
3.48727e+06
3.48756e+06
3.4908e+06
3.49e+06
3.49199e+06
3.49163e+06
3.49283e+06
3.49272e+06
3.49355e+06
3.4937e+06
3.49427e+06
3.49455e+06
3.49497e+06
3.49527e+06
3.49561e+06
3.49016e+06
3.48803e+06
3.49387e+06
3.49194e+06
3.49484e+06
3.49352e+06
3.49506e+06
3.49423e+06
3.49502e+06
3.49465e+06
3.49503e+06
3.49495e+06
3.49519e+06
3.49527e+06
3.4955e+06
3.49006e+06
3.47942e+06
3.48834e+06
3.48358e+06
3.48966e+06
3.48656e+06
3.49001e+06
3.48903e+06
3.49104e+06
3.49099e+06
3.49221e+06
3.49256e+06
3.49335e+06
3.49378e+06
3.49435e+06
3.48351e+06
3.4831e+06
3.49568e+06
3.48544e+06
3.49513e+06
3.48962e+06
3.4943e+06
3.49176e+06
3.49392e+06
3.49284e+06
3.49381e+06
3.49349e+06
3.49396e+06
3.49397e+06
3.49432e+06
3.50909e+06
3.46258e+06
3.49588e+06
3.46897e+06
3.48678e+06
3.47575e+06
3.48535e+06
3.48173e+06
3.48663e+06
3.48604e+06
3.48864e+06
3.48909e+06
3.49063e+06
3.49131e+06
3.49231e+06
3.30967e+06
3.47886e+06
3.49206e+06
3.4683e+06
3.49699e+06
3.48065e+06
3.49349e+06
3.48707e+06
3.4923e+06
3.4899e+06
3.49198e+06
3.49115e+06
3.49207e+06
3.98818e+06
3.36405e+06
3.53006e+06
3.43331e+06
3.48626e+06
3.45533e+06
3.47669e+06
3.46816e+06
3.47807e+06
3.47687e+06
3.48204e+06
3.4829e+06
3.48591e+06
3.98975e+06
3.41825e+06
3.52476e+06
3.43467e+06
3.4983e+06
3.46368e+06
3.48969e+06
3.47882e+06
3.48863e+06
3.48535e+06
3.48899e+06
3.4877e+06
3.48922e+06
3.94814e+06
3.21495e+06
3.46076e+06
3.41314e+06
3.45252e+06
3.42556e+06
3.45136e+06
3.44444e+06
3.45846e+06
3.46024e+06
3.46903e+06
3.47196e+06
3.47762e+06
3.07869e+06
3.67899e+06
3.13768e+06
3.52906e+06
3.45862e+06
3.44554e+06
3.47348e+06
3.46621e+06
3.47794e+06
3.47879e+06
3.48365e+06
3.48313e+06
3.48541e+06
3.08409e+06
3.16079e+06
3.29444e+06
3.35371e+06
3.367e+06
3.3762e+06
3.39622e+06
3.40818e+06
3.42014e+06
3.4347e+06
3.45012e+06
3.45532e+06
3.46544e+06
3.04635e+06
3.17221e+06
3.27173e+06
3.29407e+06
3.36757e+06
3.36556e+06
3.40486e+06
3.42559e+06
3.44927e+06
3.46939e+06
3.47752e+06
3.47595e+06
3.4797e+06
3.32974e+06
2.88876e+06
3.18397e+06
3.11214e+06
3.25845e+06
3.26013e+06
3.29517e+06
3.3368e+06
3.3276e+06
3.388e+06
3.4174e+06
3.42639e+06
3.45056e+06
3.63205e+06
3.50242e+06
3.23881e+06
3.04938e+06
3.24059e+06
3.32801e+06
3.41795e+06
3.49829e+06
3.54308e+06
3.55791e+06
3.52285e+06
3.47786e+06
3.48251e+06
3.99941e+06
3.98912e+06
3.61759e+06
2.65963e+06
2.6524e+06
2.76545e+06
2.91802e+06
2.90318e+06
3.01906e+06
3.17293e+06
3.31869e+06
3.33961e+06
3.41751e+06
4.00079e+06
4.00066e+06
4.00098e+06
4.00077e+06
3.99978e+06
4.00079e+06
3.23559e+06
3.99991e+06
3.99796e+06
3.9994e+06
3.65687e+06
3.43559e+06
3.48575e+06
4.00103e+06
4.00089e+06
4.00082e+06
4.00076e+06
4.00069e+06
4.00069e+06
4.00073e+06
4.00078e+06
4.00085e+06
4.00104e+06
4.00114e+06
4.00104e+06
4.00095e+06
4.00092e+06
4.0009e+06
4.00089e+06
4.00093e+06
4.00104e+06
4.00116e+06
4.00134e+06
4.00116e+06
4.00106e+06
4.001e+06
4.00097e+06
4.00097e+06
4.00099e+06
4.00106e+06
4.00114e+06
4.00125e+06
4.00138e+06
4.00123e+06
4.00115e+06
4.00112e+06
4.0011e+06
4.0011e+06
4.00111e+06
4.00116e+06
4.00124e+06
4.00135e+06
4.01753e+06
4.029e+06
4.02221e+06
4.02046e+06
4.01923e+06
4.02301e+06
4.03078e+06
4.04319e+06
4.05756e+06
4.07023e+06
4.07481e+06
4.16966e+06
4.16993e+06
4.16903e+06
4.16861e+06
4.16737e+06
4.16639e+06
4.16521e+06
4.16421e+06
4.16306e+06
4.16337e+06
4.21659e+06
4.22205e+06
4.2218e+06
4.22472e+06
4.22534e+06
4.22566e+06
4.22518e+06
4.22276e+06
4.22138e+06
4.21878e+06
4.34542e+06
4.35598e+06
4.35519e+06
4.35748e+06
4.35479e+06
4.35047e+06
4.34364e+06
4.33444e+06
4.32618e+06
4.3192e+06
4.36135e+06
4.4027e+06
4.4166e+06
4.43217e+06
4.43398e+06
4.42803e+06
4.41524e+06
4.38938e+06
4.36623e+06
4.33259e+06
4.47737e+06
4.52129e+06
4.55948e+06
4.5723e+06
4.57198e+06
4.56144e+06
4.54327e+06
4.51292e+06
4.47967e+06
4.40229e+06
4.48955e+06
4.49816e+06
4.50081e+06
4.50082e+06
4.50079e+06
4.5006e+06
4.50034e+06
4.49972e+06
4.50023e+06
4.48948e+06
4.49819e+06
4.49798e+06
4.49796e+06
4.49802e+06
4.49804e+06
4.49815e+06
4.49833e+06
4.49845e+06
4.49866e+06
4.49889e+06
4.49854e+06
4.49905e+06
4.49936e+06
4.49955e+06
4.49952e+06
4.49933e+06
4.49928e+06
4.4988e+06
4.4988e+06
4.49786e+06
4.4983e+06
4.49829e+06
4.49838e+06
4.49849e+06
4.49851e+06
4.49853e+06
4.49865e+06
4.4987e+06
4.49878e+06
4.49884e+06
4.49889e+06
4.49891e+06
4.49901e+06
4.49912e+06
4.49911e+06
4.49902e+06
4.4989e+06
4.49884e+06
4.49887e+06
4.49876e+06
4.49852e+06
4.49852e+06
4.49862e+06
4.49874e+06
4.49876e+06
4.49876e+06
4.4987e+06
4.49882e+06
4.49889e+06
4.49891e+06
4.49891e+06
4.49893e+06
4.4989e+06
4.49907e+06
4.49904e+06
4.49897e+06
4.49892e+06
4.49901e+06
4.49905e+06
4.49904e+06
4.49874e+06
4.49882e+06
4.49883e+06
4.49899e+06
4.49899e+06
4.49892e+06
4.49885e+06
4.49894e+06
4.49899e+06
4.499e+06
4.49898e+06
4.49905e+06
4.49909e+06
4.49922e+06
4.49911e+06
4.49903e+06
4.49906e+06
4.4991e+06
4.4991e+06
4.49912e+06
4.49893e+06
4.49905e+06
4.49907e+06
4.49917e+06
4.49914e+06
4.49909e+06
4.49909e+06
4.49909e+06
4.49909e+06
4.4991e+06
4.49909e+06
4.4992e+06
4.49921e+06
4.49934e+06
4.49928e+06
4.49922e+06
4.4992e+06
4.49919e+06
4.49917e+06
4.49917e+06
4.4991e+06
4.49925e+06
4.49928e+06
4.49938e+06
4.49931e+06
4.49926e+06
4.49924e+06
4.49923e+06
4.49921e+06
4.49921e+06
4.49919e+06
4.4991e+06
4.49934e+06
4.49943e+06
4.49937e+06
4.49934e+06
4.4993e+06
4.4993e+06
4.49928e+06
4.49928e+06
4.4992e+06
4.4992e+06
4.49942e+06
4.49944e+06
4.49935e+06
4.49935e+06
4.49933e+06
4.49934e+06
4.49932e+06
4.49932e+06
4.49944e+06
4.49942e+06
4.49944e+06
4.49949e+06
4.49948e+06
4.49942e+06
4.4994e+06
4.4994e+06
4.49939e+06
4.49939e+06
4.49946e+06
4.49951e+06
4.49946e+06
4.49946e+06
4.49945e+06
4.49943e+06
4.49943e+06
4.49943e+06
4.49943e+06
4.49943e+06
4.4995e+06
4.49951e+06
4.49952e+06
4.49952e+06
4.49951e+06
4.49949e+06
4.49948e+06
4.49948e+06
4.49948e+06
4.49949e+06
4.49954e+06
4.49955e+06
4.49952e+06
4.49951e+06
4.49952e+06
4.49952e+06
4.49952e+06
4.49953e+06
4.49953e+06
4.49953e+06
4.49953e+06
4.49954e+06
4.49956e+06
4.49955e+06
4.49956e+06
4.49956e+06
4.49955e+06
4.49956e+06
4.49956e+06
4.49956e+06
4.49956e+06
4.49955e+06
4.49955e+06
4.49956e+06
4.49956e+06
4.49958e+06
4.49957e+06
4.49957e+06
4.49957e+06
4.49957e+06
4.49974e+06
4.4998e+06
4.49964e+06
4.49962e+06
4.49962e+06
4.49963e+06
4.49961e+06
4.49959e+06
4.49958e+06
4.49958e+06
4.49975e+06
4.49977e+06
4.49964e+06
4.49964e+06
4.49965e+06
4.49965e+06
4.49962e+06
4.49959e+06
4.49957e+06
4.49957e+06
4.4998e+06
4.49984e+06
4.49976e+06
4.49969e+06
4.49968e+06
4.49968e+06
4.49965e+06
4.49961e+06
4.4996e+06
4.4996e+06
4.49979e+06
4.49978e+06
4.49972e+06
4.49967e+06
4.49966e+06
4.49967e+06
4.49963e+06
4.49961e+06
4.49959e+06
4.49959e+06
4.49983e+06
4.49987e+06
4.49978e+06
4.49972e+06
4.4997e+06
4.49969e+06
4.49966e+06
4.49964e+06
4.49963e+06
4.49962e+06
4.4998e+06
4.49979e+06
4.4997e+06
4.49966e+06
4.49961e+06
4.4996e+06
4.49958e+06
4.49958e+06
4.49956e+06
4.49956e+06
4.49981e+06
4.49982e+06
4.49976e+06
4.49971e+06
4.49968e+06
4.49966e+06
4.49964e+06
4.49963e+06
4.49962e+06
4.49961e+06
4.49976e+06
4.49971e+06
4.49964e+06
4.49958e+06
4.49956e+06
4.49954e+06
4.49952e+06
4.49949e+06
4.49948e+06
4.49946e+06
4.49979e+06
4.4998e+06
4.49974e+06
4.49969e+06
4.49969e+06
4.49968e+06
4.49967e+06
4.49965e+06
4.49964e+06
4.49963e+06
4.49972e+06
4.49967e+06
4.4996e+06
4.49957e+06
4.49956e+06
4.49953e+06
4.49951e+06
4.49943e+06
4.4994e+06
4.49925e+06
4.49995e+06
4.49988e+06