/*--------------------------------*- C++ -*----------------------------------*\
| =========                 |                                                 |
| \\      /  F ield         | OpenFOAM: The Open Source CFD Toolbox           |
|  \\    /   O peration     | Version:  v2006                                 |
|   \\  /    A nd           | Website:  www.openfoam.com                      |
|    \\/     M anipulation  |                                                 |
\*---------------------------------------------------------------------------*/
FoamFile
{
    version     2.0;
    format      ascii;
    class       volScalarField;
    location    "0.01";
    object      p_rgh;
}
// * * * * * * * * * * * * * * * * * * * * * * * * * * * * * * * * * * * * * //

dimensions      [1 -1 -2 0 0 0 0];


internalField   nonuniform List<scalar> 
3591
(
112143
109472
108918
109401
109864
109947
107482
107794
108029
109856
107532
107890
116645
119519
110793
110003
93841.4
109834
110000
109834
109834
109832
109300
109316
109200
109334
109813
109852
109811
107249
107098
109669
107200
109023
109089
109308
109208
108055
107982
110016
108061
107768
109550
109828
109760
109691
109734
108088
109915
110046
109648
109384
107267
107831
108747
109858
109284
105210
109721
109725
100603
107789
109862
108103
110579
108842
109353
109570
108257
109855
108327
109835
109758
107866
106352
108184
107995
107264
109855
108171
111539
110518
111326
109778
109796
108801
109866
109807
109790
109782
109782
107102
109845
109272
109773
109289
109769
109770
109863
107208
107075
109836
109814
108846
109852
109570
107132
109622
108964
109502
108876
108835
107507
108743
108964
107680
103916
108671
107249
107182
99855.3
110511
109440
107927
137143
134427
135454
128676
108642
125625
107110
109803
109818
109559
109842
110222
110188
109849
109823
109845
109799
109848
109727
109677
109848
109734
109851
108959
108319
108896
109842
109199
109852
109841
109202
109567
108958
107825
109854
109850
108053
108100
112582
107160
109214
107884
109215
109723
107177
107293
109245
108414
111306
107356
107288
106158
111212
113487
109506
107704
111068
107242
107270
107847
108068
107476
109187
109851
109853
107730
109726
109844
109852
109291
109854
114251
108586
108230
107434
106531
106546
108889
115546
113060
107724
109889
109908
109984
109854
116286
109893
109855
109853
109815
109854
109808
109706
109698
109882
109430
109029
109075
107977
107830
107922
107334
109496
109844
109689
109853
109854
109854
108081
109865
109795
110686
105951
108835
109468
108756
109861
108612
108946
108957
107938
109766
109339
109235
109857
108104
109857
109857
109168
109177
109287
108134
109852
109743
109769
106729
109756
107763
109840
93050.5
110086
106848
106221
106929
104852
108968
110069
110888
110693
109796
109722
109655
108851
108389
109135
105189
107939
109478
108135
109863
107690
115433
108108
109510
109453
107719
107207
107423
109096
109769
109846
109494
109655
109631
115014
109855
109791
108258
108207
108223
109819
109453
109774
107188
107160
107234
108171
109799
107905
108255
111273
107216
104869
109726
107274
108992
109804
111920
109747
109825
109861
109830
109769
109841
109806
109841
109810
108527
109735
109544
109703
108159
107340
107829
108168
108235
108194
107585
107443
107272
109883
109893
109864
109858
109835
122747
107736
109431
109463
109649
105111
109638
109647
109657
109483
109829
109847
109678
109817
107197
109828
107172
110326
113488
110000
108344
110105
110222
109825
109451
107865
109860
109855
111313
109851
109705
113283
108340
107862
109048
107836
108752
109330
107355
109603
107945
107962
107941
108200
109802
109382
109805
106944
108270
107355
109828
109829
109631
109826
108927
109377
109437
109476
108616
107363
109347
107273
109598
107815
109859
109271
109834
107139
109770
109797
107217
107203
108224
110705
109092
109860
112007
109587
107469
109852
110572
110820
107189
107213
107574
109908
109729
107185
109868
109857
109856
107431
108315
109867
109857
109707
107237
109686
109728
109699
109287
108155
107558
107087
110262
107086
110624
107485
107456
107162
109467
108068
109480
111705
109475
109471
109559
109615
109592
109727
109844
109539
109579
109566
111421
109917
109900
111676
110749
110673
109695
110104
111667
111613
109720
109853
109706
109848
109555
109529
107525
109511
107946
107057
109741
109712
108837
113469
112138
111525
109478
109670
109721
108791
109716
108318
109897
109854
109789
109849
109846
109846
109839
109848
109746
109792
109751
109694
109757
109748
108339
108715
108536
108452
109822
109782
108651
110046
109014
109518
109807
108705
110366
107877
105111
107512
109562
109570
109625
109619
109933
108451
108160
109818
109816
109791
103961
107513
107421
108206
107457
109923
109938
112633
109973
109973
107380
109788
107256
107218
107309
109847
109850
107316
109851
110307
109841
107146
109829
109537
109853
97868.9
107474
119274
109541
109502
109492
109829
109545
108507
108380
109135
108016
108331
107614
108430
107593
109753
109773
109781
109779
107601
107707
109799
108065
109259
109814
109372
107234
109184
107250
109675
107591
109732
109670
109878
109888
109726
109947
119163
118349
109884
109899
107993
107461
106687
109901
109245
109205
109272
107850
107744
107892
107835
109611
112235
109249
109887
108294
110097
109863
110142
107819
109848
124728
107970
105513
108047
107651
109663
109729
109653
109584
107358
112635
107333
107392
107423
107198
107315
107523
107511
107809
109852
109848
107339
107360
109037
109858
112123
112141
114900
109802
106671
107661
109832
108241
104546
110183
109662
107228
109792
109838
109827
109913
109005
109808
109818
109119
109152
109854
109869
109868
109856
108807
109828
107640
107336
109139
109854
107778
109913
108672
109107
107954
109749
109753
110140
112280
109661
109591
110299
109047
109812
109685
109705
109793
108995
107853
107139
109836
109824
109822
109697
109913
109848
109852
109869
109869
106869
106945
106918
109770
109840
107021
109299
110334
108400
110739
109811
109769
107507
109528
108999
108772
109778
109718
109714
109514
108624
108505
106677
108114
108280
107534
107343
109874
109549
109820
109819
114491
109978
107112
107600
107477
107380
107403
104943
107136
106656
107162
107839
108624
107126
108394
106773
109832
109804
109834
109848
109570
109611
109836
109857
109580
109776
109778
109770
109570
109830
109028
109055
109763
109796
108588
109514
108206
108182
109670
111775
109856
109843
109666
109600
109686
109719
109663
109689
110082
110030
107122
109823
107277
107276
109936
109818
109851
109841
107200
109941
108990
107191
109489
109810
109690
109758
109901
109228
109129
109835
109847
108290
108261
108264
108295
107393
107181
107229
107326
107334
108365
109698
109921
107333
108477
108341
108658
109667
107373
108457
110966
109861
109867
109910
107403
107291
107365
109858
109859
109855
109865
109859
109825
107390
109811
107064
107420
109846
109810
109861
108988
109856
109724
109692
109856
109296
108524
109846
109842
109439
107432
107513
107380
107489
109850
109849
109851
109852
109853
109852
109546
109531
107669
107653
107664
107757
108752
110936
109879
110444
109914
109834
109857
109635
109607
109458
109395
109440
107422
108811
107296
107287
107543
109753
108905
109814
107820
109793
108655
109851
107652
107816
120659
109742
109844
112526
111289
109862
109852
109850
109733
109859
109734
110126
109923
108572
109928
109632
108543
108367
108335
109851
109850
109851
109854
109847
109787
109803
109575
108686
107650
109850
107491
109860
107614
107706
107679
109844
109836
109737
109673
108103
107804
107515
111324
109554
109864
109862
109861
109860
107799
109860
109845
109862
101624
106404
93014.5
107689
107664
111123
107659
107631
110075
107972
109975
109854
109854
110090
109839
110295
107558
109836
107873
107992
107556
106522
94082.2
109680
110331
109854
109830
109827
109835
109830
107788
108060
108054
109715
109219
109191
109212
109256
109101
109856
108796
107884
108117
109514
109394
109642
109219
109385
108885
112139
87693.9
110386
110110
110323
109825
109393
109314
109355
109269
107440
109846
109421
109196
107897
109840
107999
109839
109762
109844
109479
109320
108539
108789
107489
109843
108987
108615
109591
109500
109351
109455
107640
92015.4
102807
100824
102702
107256
115312
109877
109256
102926
110094
110288
98608
114150
109324
109886
109782
109864
109836
109582
109617
107683
108284
108252
109068
108952
109340
108219
109836
108364
109469
107968
109864
109043
109267
109909
118641
109728
109436
109296
105987
106272
107867
109846
106996
109851
109850
109357
109309
108126
108480
108235
108230
107299
107184
106190
110903
109851
109886
107094
106938
109643
107064
109046
107746
107609
107524
107375
107650
109845
109847
109845
109847
97767.7
109697
106721
114091
110901
105289
109731
107085
109586
106306
109823
109864
109819
109885
109910
110147
109748
109799
108571
109740
109744
110874
108006
107896
108229
110440
110118
107567
110452
109771
109769
109724
109864
109707
110199
109703
110028
109710
109614
109577
107577
108317
108532
109186
109157
109140
107806
109607
109820
107156
107647
109855
109772
107206
109822
107414
109937
110252
109524
108069
107190
120182
107303
107175
107332
109858
110010
109798
110038
109973
109406
108569
109193
109878
110052
109295
109638
109535
107363
107851
107465
107578
107759
107344
107256
107279
107853
107423
109703
108620
109105
107930
109242
108599
109808
109771
96059.3
99794.1
109875
110181
110214
110049
109872
109871
109869
109852
109866
109839
109853
109855
109872
109857
109786
109787
109771
109765
109763
109786
109358
109856
108021
107909
108083
108831
109868
109705
108789
108655
105199
106136
106779
109500
109815
109853
107791
108791
109856
123656
109603
109595
109276
109854
109854
109854
109854
109547
110009
107160
109512
110161
109871
109981
109861
109865
109867
109870
109910
110153
109861
109822
109821
109519
107992
107356
109770
109780
110081
109526
109525
109636
109712
109728
109649
107899
107128
107176
109511
107180
109526
109502
110196
109866
110790
109863
109865
109864
109849
109852
109854
109866
109764
109754
109797
109827
109753
109754
109751
109747
108507
108574
109495
108473
107701
109918
121451
110444
111499
108501
109828
108524
109712
109708
109766
109051
109893
109699
108210
107291
107152
107098
108105
107861
107997
114137
104559
126054
115776
114252
116793
116912
109836
131581
115685
108662
107209
108525
109790
109829
109745
109714
109547
109788
109108
108080
107517
108056
109257
109871
109862
109189
109853
107210
107061
108351
111258
109208
109804
109641
109417
107052
104104
107940
109881
109563
106481
107786
109126
113853
97059.2
109508
113334
91760.8
109836
123764
109840
109845
109730
109725
109852
109856
109836
109730
109759
109765
109767
109353
109373
108558
108451
109875
108368
107464
109812
107276
107338
107506
108766
108368
109859
109859
109860
96976.3
109860
109859
109758
109755
108717
109765
109913
108606
108606
107192
112135
107173
107366
107444
109856
109852
107197
107859
109852
108473
108024
109756
109796
109799
109802
107041
109795
109791
109569
117006
109594
113570
109588
108783
109582
109670
109436
108718
108783
131388
107977
108510
109632
109412
107801
109813
109652
107485
109818
109818
109817
109823
109639
109079
107800
107871
107247
109857
108893
107571
107402
109624
109866
109655
109797
108031
107986
108023
108022
109728
108026
110132
109952
109392
109827
107150
107299
106806
109715
109771
109816
109859
108959
109861
109870
109815
109461
109419
109798
109869
107304
109866
109827
110344
107414
108643
110287
110367
107443
110362
111306
113704
117627
113851
115129
109990
110038
109832
109823
109692
109828
109846
109827
109767
109758
109751
109810
109944
109855
109372
109333
109855
109856
108183
108429
109855
107400
107314
107951
107159
109775
109781
109773
109782
108608
108723
108673
108641
109857
109856
109830
109826
106210
100838
109233
112650
111666
110551
112893
111185
109857
109846
109847
109847
109842
107302
109741
109738
109738
109745
109746
109752
112018
109401
111802
108245
106650
108200
101596
107223
107267
96456.2
108611
111038
111641
111925
109627
109622
109651
109684
109680
109682
109617
109659
109601
109678
109662
107714
107687
107623
109789
107981
107156
108985
114139
109362
109340
112748
110466
110364
110159
109379
107976
110232
107495
109222
109872
109895
107769
107540
107486
109849
109851
110979
107774
109777
109417
109847
109110
108192
108195
83736.4
85587
91819.2
96459.3
107267
111281
107429
107753
109846
109843
109844
109842
109840
109856
109857
109859
109857
109854
109852
109819
109825
109821
109859
109856
109824
109819
109057
109026
109204
109063
109715
109031
109816
109742
109129
108361
108087
107201
110347
110212
107086
110234
107398
109826
109801
109800
109576
109516
108410
108484
106924
107347
107243
92756.6
108035
109534
109548
109546
107404
109446
109528
109870
109280
109006
108626
109226
109202
108560
109933
109357
113505
109863
109779
109845
109855
109754
108709
108701
109780
109881
109886
109761
109861
109833
109849
109830
109839
109737
109686
109637
113111
122129
109401
107262
111389
109336
109353
109826
109833
109717
107264
107332
109831
109724
109707
109856
109839
109838
109859
109839
109837
110665
109816
107208
109295
108695
108668
109244
108899
108704
108703
109270
109200
107183
108111
108450
108573
107326
108150
109875
109921
110092
110012
109914
109961
106936
109927
109796
128660
109774
109781
109779
110742
109656
109783
109428
107345
109863
108155
107646
107736
107138
107788
107712
107744
107113
109852
109850
109666
109668
109152
108291
110035
109814
109808
109821
109802
109127
108876
109072
107293
107565
107074
109826
109824
109830
93747.2
90467.6
109856
109857
109813
109833
109768
109823
109834
109801
109448
108923
109054
109279
107446
107935
107618
107217
107217
108895
107100
108807
107476
109864
109793
109773
108567
108478
108555
108573
108478
108633
110463
111238
111245
110855
110913
119650
107129
108428
111217
110176
107720
107593
107555
107523
100872
108127
103538
113066
113109
84465.8
102404
119030
108412
109231
108658
108982
107130
107375
109828
109820
107273
109776
107383
109701
109466
109135
109277
108819
109860
108313
107227
107134
109856
109849
109847
109116
109433
108601
109024
107027
107154
106863
107010
107013
107347
108596
109903
109857
109805
109820
88519.1
88064.5
88422
109869
109869
109872
109862
105042
109876
109038
109031
108996
109138
109074
108552
109864
109866
105188
106262
108659
108352
108409
116703
118916
109350
110056
108734
109856
109825
109647
108481
108705
108502
107785
107535
107552
109813
109793
109687
108445
109707
109556
110379
109615
109849
109684
109669
109865
107129
109861
107505
109862
109861
109863
109860
107147
107153
109661
109658
92202.9
109871
109931
110068
109782
109645
109823
109843
109730
107285
109933
109745
109708
109499
108897
109073
107797
109858
109847
108664
109786
109862
108629
108473
109399
108568
109318
109338
109837
105328
109867
105288
107727
109810
109799
109838
109643
109713
109947
107158
108338
108402
108182
107824
107134
107343
107205
109999
107177
107215
110053
110358
110204
109415
109430
109375
109855
109414
109853
109818
109858
109857
109853
109855
109839
109843
109844
109845
107312
109843
109839
107732
108179
109863
108364
109842
109843
109853
109851
107165
110213
109851
110251
109683
110338
111612
109784
109692
110531
110019
111058
109103
109375
109837
107925
108738
107170
109838
109837
109838
107207
107180
109859
109834
108281
108421
108460
108318
108363
107017
108029
109872
109868
109882
109878
107541
109046
109864
109756
109847
109597
109553
108119
104376
107185
106762
107034
109746
107736
108292
108108
108281
107151
107719
107895
107844
107979
109841
107154
109843
110471
110623
109191
109599
109497
108751
108931
109835
109237
109833
110053
109761
109461
109595
109617
108146
107910
97778.7
107063
105223
104667
107267
110541
109924
109892
109918
109761
109762
109763
109757
109755
107234
107232
108074
108033
108107
109818
109870
110526
109860
109867
107148
108994
107111
108844
109795
109798
109797
109526
109886
109884
109166
109636
108904
108414
107851
109868
109854
107485
109854
109861
109862
109817
109822
109490
109379
109550
109736
109260
109821
118886
109820
109172
109259
109799
109810
109046
108933
109083
109071
109382
109105
108776
108775
107172
108455
109867
109874
110034
131692
111683
117914
109865
109830
109853
108522
108384
109858
109700
109848
109847
109842
109848
109853
107593
107398
108514
109591
109858
109817
109594
109571
109715
107145
107564
107160
107162
107549
107160
111620
111407
111006
107542
107687
107988
107861
108023
109708
109893
109862
109862
109834
109852
109807
109807
109802
108921
108784
108476
108308
109849
109840
109824
109604
109637
109735
109654
109481
109862
109863
109859
109847
109864
109853
108296
109526
107576
107643
109712
109728
119848
109696
108032
124288
107898
108092
109071
108186
108132
109858
109452
109837
109831
108664
109254
108225
109810
109815
105588
106096
89366.5
109857
110057
109865
109977
109992
109958
109956
109961
98463.1
121652
104234
100373
101519
102864
103404
109820
109864
113781
109757
109760
109842
109857
110560
109860
109914
124938
107253
107518
107789
107688
109850
109221
109859
109258
109312
109297
108024
107981
109854
109607
109458
109596
108902
109689
109657
109670
109689
109674
124945
109945
109976
109846
109666
109689
109897
109853
110032
109853
109598
107054
107189
107157
108251
109865
109813
110217
109847
109848
109775
107858
96009.4
108508
108612
107946
107754
108097
108150
112499
130574
109565
109259
109745
110055
110081
109381
93250
109812
109080
106195
107079
107046
109858
108685
109772
107441
109254
106960
107185
107198
106961
106728
107367
107998
107960
107918
107825
107215
107432
106854
107824
106537
106341
107480
109961
109777
107866
109596
109415
110139
109024
108030
107525
107741
110110
107402
110164
110115
109817
109672
109854
109842
109912
109870
109776
109836
109776
109557
109166
109857
109836
109843
109386
107321
109830
109806
109829
109838
109835
109832
109827
109743
109681
109712
109664
109721
109616
109642
109606
109634
107744
109509
109382
108934
109992
108093
109812
108144
107761
118490
107262
105716
107793
106199
109847
110421
111407
107267
107318
107826
107846
107205
109853
109853
109853
109851
109803
109815
109797
109624
109567
109611
109609
109823
108170
108943
108906
109827
108969
108939
108000
109407
109426
109507
109491
109444
109455
109949
109961
109862
109862
109862
109811
109786
109670
108916
108767
109853
107461
107428
107490
107811
109517
109400
108130
107966
109346
107322
107089
107324
123723
108614
113375
111318
110510
110555
110683
116714
109937
109834
109072
109421
107269
104912
110587
104354
106932
106115
110156
110682
110859
109836
109844
109838
109829
109840
109869
109843
110917
109861
109816
107144
127271
109344
109029
108584
108462
108850
109241
108937
107546
107629
108536
108345
108475
109863
109850
109849
109840
110901
109840
109841
107145
109840
109718
109877
109402
109382
109416
109506
109569
107361
107389
109466
109584
109503
109845
108226
108355
108077
108128
109787
109863
109880
107175
107130
110086
110657
110389
112164
108308
120931
115136
113762
109862
109863
109832
109842
107213
109832
109624
108540
107579
107689
107228
107220
110072
109865
107636
107253
107672
108062
109788
109553
109865
109867
108440
109832
107136
109747
107246
109885
109857
109891
109881
109739
109724
107206
108339
109140
108605
104108
90726.9
90533
95314.8
107400
109173
109948
109732
109064
109109
109877
116251
109179
109856
109853
109852
109851
109841
109833
109857
109747
109748
101366
109855
109810
109813
109108
119720
111027
131157
109806
109639
118418
109628
108857
109860
108087
107661
109840
109741
109415
108314
108508
109032
109129
109815
109335
109924
107406
109503
109211
110538
109818
109558
109801
108883
109870
109841
109898
109869
109867
109862
109851
109838
109849
109853
109854
114850
109856
109862
109690
109334
109429
108330
107289
109846
109845
109785
109472
109488
108712
108759
108783
107322
107520
109855
109856
109341
109807
112318
113560
114357
109315
113558
114251
109274
107080
109809
109849
109813
109855
109807
109846
109739
109653
109448
109615
108282
108567
108538
108755
109602
109633
107467
108807
108899
107581
107615
107678
107646
109940
109923
109975
110027
110000
109865
92040.6
100551
93457.1
109254
107369
110415
116493
98832.7
102203
109763
109969
111031
109780
109775
109840
109863
109847
109839
109849
109850
108643
109767
109793
109736
109565
109624
109805
109727
109634
109807
108858
109621
108723
108698
108932
107791
107390
107956
107650
109643
109513
109819
108653
108642
107734
108667
108702
108686
109858
109858
109834
109831
109831
109723
109709
109862
109859
109864
109312
107897
108259
108191
107176
100223
108714
109842
109830
109835
109684
109526
109890
108132
108057
108052
107897
107294
106539
101667
106286
110147
109810
109863
110909
109856
109853
109853
110118
109855
110154
109828
109827
109843
109728
109738
109742
109744
109402
109391
109409
108398
109855
108691
119855
108439
108459
116680
109964
110420
107334
109849
107400
109786
109773
109575
109522
107585
109887
109853
109811
109818
109818
109813
107950
120057
100582
107105
108867
108809
108913
108945
106353
113287
109895
109859
114032
121110
129989
109794
107928
107960
109536
120471
114167
110332
108502
107850
109860
109522
109404
107472
110262
115717
113366
109094
109630
109855
109850
109793
122718
109790
109588
109629
108862
107768
107559
107650
109848
109853
109847
109771
107988
79890
109903
109806
109372
108407
108396
108421
109816
109631
109856
109701
109859
108752
109860
109858
107610
109862
109861
107374
107426
107525
107308
111314
110590
109907
109896
110041
109965
107234
106221
110343
109801
111999
108866
109798
110097
109554
109768
109829
109798
109837
109133
109547
107474
107657
108820
109077
107403
107493
109864
109865
109860
109857
109855
109859
109816
109856
109857
109854
109870
107891
107793
109705
107265
107433
107088
111034
109616
109785
109692
109702
109846
109699
109979
109782
109857
109797
108184
109271
108941
108999
108157
107545
108280
109864
109872
109865
107203
102970
95094.6
110001
109866
106827
109839
109838
109846
107354
109868
109857
109816
109546
109715
109937
109556
109810
107456
107637
109804
109833
109824
109839
109727
109645
109723
108666
107483
109852
109059
108996
109031
107780
109556
107730
107455
107387
107478
107516
107526
107673
117895
118349
107736
116134
109857
109839
109739
107402
109866
109783
109826
109009
109008
107306
109864
109678
109675
109605
107407
107436
107825
107635
109852
109860
109855
107930
108289
109832
102720
108029
103921
109840
106940
108006
109837
107999
109832
109688
109744
108884
109130
109160
107550
109426
107741
107874
109484
109499
108307
107593
107918
107739
107691
118961
108195
113004
109863
109534
109867
109783
109731
109797
109860
109860
111286
109864
110441
111721
109961
107298
107170
110227
110075
111162
109977
110025
109487
116024
109804
109802
112003
109870
109859
109859
109558
109693
109693
109856
109765
109859
109119
109834
109278
109158
110742
109840
107568
107629
107497
108818
107409
107619
107409
107521
109582
109874
109647
109705
107163
107152
107189
109806
105003
106076
107715
105931
106865
107479
111296
107103
107019
107068
107137
109824
110196
109998
109775
109924
109920
109850
107212
108849
109838
109900
109591
107337
107367
109847
108997
108724
109847
108244
108260
108942
107747
108372
108052
109853
107174
109797
109757
109793
109864
109772
109859
109847
110138
109766
110253
109477
109467
111879
109452
109073
108417
108422
108379
108492
107338
107420
107447
109546
109596
109512
109850
109850
109850
107623
108218
109852
108115
108665
109543
107426
107634
107322
107777
107178
109951
110009
109879
107833
107640
107893
107682
110325
109055
97925.7
109795
111481
109832
109854
109854
109836
106294
109674
109868
109854
108732
107493
107158
107164
109858
109857
109859
109862
109430
109354
109125
109411
109364
109327
110226
107522
107432
107424
107484
107453
109837
109834
109839
109836
109835
110275
109975
109335
109971
108918
109154
109322
109339
109323
109881
107243
109760
110692
107269
107308
109419
107317
110391
109385
109245
107938
109151
110115
109771
110824
110391
110457
109742
109759
109687
106766
106623
110703
110513
109854
109856
109854
109855
109703
109729
108157
108541
109270
108394
108402
109854
109856
109849
109849
109628
109619
109556
109656
109852
109849
109847
107559
107712
109787
107589
109857
109857
108888
108959
108656
108852
108867
108877
109858
109769
109857
109858
109587
109859
108993
109858
108937
107243
108298
108879
109828
107262
107310
107390
109790
109890
109953
108348
109790
109792
109805
109596
109885
109741
107526
107457
109897
109856
108256
109856
108286
108205
109793
109790
108246
108815
108715
119174
110712
107678
109842
109929
108779
108747
109805
109807
109811
109789
109778
109918
109854
109854
109854
110463
110418
110202
110692
107689
107628
109854
102794
107357
107283
107229
109656
110084
107721
109842
110382
108300
109917
107999
110564
107963
109235
109841
109400
110081
109860
109832
110039
109633
109663
109685
109915
109617
107550
107374
107578
107606
107927
107929
109882
107963
109785
109785
109949
107157
110110
109755
109723
109797
109827
109859
109853
119423
110823
109118
109158
107288
107263
108926
109100
109161
111739
109108
108434
107588
107745
107545
105145
105451
105953
105997
109871
109869
109878
109315
109884
109350
109232
109821
109817
109851
109834
109807
109809
110049
110161
110195
109819
109821
109843
109864
109862
109861
109864
109446
109838
109857
109843
109861
110000
109800
108864
109156
108757
107957
107667
108836
108800
108923
109562
110029
110407
110548
110300
110471
110503
116681
109633
109725
109845
109916
109900
109921
107086
107105
107242
107281
110754
110792
111093
110963
109842
109826
109868
109788
109767
107570
108202
109314
109825
109802
107930
109780
109758
109808
107714
110171
110440
109817
109795
110274
109827
110474
107224
107251
106992
107258
107243
107242
109639
107906
109832
109331
108877
109230
125261
108629
107693
108674
106288
109829
)
;

boundaryField
{
    Inlet
    {
        type            prghTotalPressure;
        p0              nonuniform List<scalar> 0();
        value           nonuniform List<scalar> 0();
    }
    Outlet
    {
        type            fixedValue;
        value           nonuniform List<scalar> 0();
    }
    Symmetric
    {