/*--------------------------------*- C++ -*----------------------------------*\
| =========                 |                                                 |
| \\      /  F ield         | OpenFOAM: The Open Source CFD Toolbox           |
|  \\    /   O peration     | Version:  v2006                                 |
|   \\  /    A nd           | Website:  www.openfoam.com                      |
|    \\/     M anipulation  |                                                 |
\*---------------------------------------------------------------------------*/
FoamFile
{
    version     2.0;
    format      ascii;
    class       volScalarField;
    location    "0.01";
    object      p_rgh;
}
// * * * * * * * * * * * * * * * * * * * * * * * * * * * * * * * * * * * * * //

dimensions      [1 -1 -2 0 0 0 0];


internalField   nonuniform List<scalar> 
3591
(
108428
107984
108029
107967
107830
107554
108112
108320
107924
107873
108155
108897
113588
116343
107970
107643
108303
107881
107526
107878
107880
107882
107967
107969
107972
107969
107893
107871
107890
107764
107716
107937
107752
107964
107971
107970
107970
107912
107906
107987
107911
108107
107475
107883
107919
107669
107926
107913
107891
108014
107940
107970
107766
107900
107959
107858
107973
105258
107931
107928
103682
108309
107863
107920
108255
108635
107967
108001
107932
107873
106299
107908
107996
107902
108127
108445
108018
107799
107873
108056
108072
108184
108729
107903
107899
107965
107976
107890
107904
107905
107907
107722
107875
107968
107908
107967
107916
107910
107871
107938
107709
107880
107889
107964
107872
107956
107731
107953
105518
107962
107960
107968
107830
107966
107969
107865
108253
107957
107907
107742
108144
108038
107962
107894
107642
108301
109425
117621
107960
114409
107726
107899
112936
107951
107874
108187
108140
107873
107888
107868
107894
107873
107931
107942
107874
107938
107873
107963
107940
107965
107876
107971
107874
107871
107977
107962
107968
107963
107872
107873
107946
107921
109054
107748
107969
107889
107971
107928
107747
107885
107970
107974
108147
107798
107784
108130
108163
108037
107966
107870
108166
107776
107774
107893
108019
107815
107963
107872
107873
107911
107989
107876
107872
107968
107870
111837
107954
107936
108082
108132
108148
107992
107872
107905
105694
107716
107850
107940
107874
113567
107884
107872
107872
107885
107873
107922
107960
107940
107783
107995
107977
107983
107919
107906
107908
107954
107957
107876
107939
107872
107872
107873
107921
107867
107905
107919
108186
107966
107965
107964
107863
107962
107973
107969
107970
107920
107968
107971
107868
107938
107865
107862
107968
107972
107971
107925
107873
107921
107915
108080
107914
107871
107878
107944
107512
108059
108180
108040
108211
107963
108018
108254
108102
107901
107930
107954
107966
108444
107988
107436
108321
107986
107960
107838
107898
107753
109080
107086
107194
107878
107789
108041
106696
107535
107874
107191
107943
107949
111311
107873
107898
107935
107932
107965
107900
107964
107922
107746
107745
107769
107927
107900
108075
108062
107947
107759
108258
107984
107784
107969
107919
108670
107930
107885
107865
107882
107915
107876
107900
107878
107946
107955
107936
107976
107935
107929
107814
107942
107965
107959
107932
108152
107862
107770
107546
107541
107740
107715
107593
116982
108226
107963
107958
107943
108218
107948
107946
107947
107962
107884
107864
107944
107890
107921
107885
107926
108035
108193
108021
107974
108026
108036
107883
107957
107889
107847
107862
107918
107859
107945
107835
107918
107892
107988
107890
108002
107988
107921
108017
107914
107913
107909
107938
107896
107981
107927
108103
107949
107789
107883
107884
108004
107883
107402
107977
107975
107975
107954
108156
107977
108039
107964
107887
107855
107986
107879
107733
107911
107926
107915
107775
108004
108143
107970
107862
107999
107955
107890
107865
107266
108187
107756
107767
107980
107703
107930
107752
107754
107872
107872
107821
108002
107742
107873
107932
107779
107937
107928
107935
107969
107924
108143
107718
108122
107716
108269
107839
107835
107735
107964
105237
107967
108117
107966
107963
107966
107975
107973
107972
107875
107967
107963
107965
107954
107966
107743
108121
108142
108127
107937
108030
108127
108013
107933
107872
107934
107874
107952
107959
107903
107956
107901
107997
107943
107932
107982
107891
107938
107962
107982
107976
107932
107991
107845
106409
107950
107873
107907
107874
107875
107872
107877
107874
107924
107907
107921
107931
107918
107922
107942
107955
107956
107941
107886
107908
107960
107988
107993
107982
107988
107967
107938
107944
115052
108027
107978
107973
107967
107969
108023
107949
107920
107891
107891
107905
108227
107862
107814
107923
107830
107897
107904
107891
107937
107937
108053
107910
107969
107948
107951
107873
107872
107973
107860
108091
107869
107914
107883
107960
107864
108151
108068
107885
107955
107960
107964
107883
107956
107965
107966
107968
106249
107963
107851
107966
107846
107919
107916
107912
107911
107845
107866
107901
107917
107965
107892
107016
107755
107967
107766
107945
108035
107933
107940
107734
107708
107936
107673
107591
107566
107753
107754
108426
108011
108137
107926
107967
107970
107970
107888
107873
107895
107888
107951
108732
107995
107939
109102
108029
107866
108036
107886
107873
118526
107941
108223
107916
108009
107943
107952
107945
107952
107839
108019
107830
107844
107854
107752
107835
108047
108064
108411
107872
107872
107845
107854
107973
107873
108163
108296
107751
108021
108090
108143
107881
107934
108243
107972
107947
108013
107909
107875
107890
107873
107972
107894
107907
107975
107975
107873
107796
107785
107774
107962
107733
107943
107787
107974
107873
107878
108035
107954
107973
107899
107930
107946
108040
108617
107946
107983
108118
107970
107898
107966
107955
107951
107963
107884
107726
107879
107889
107887
107944
107867
107864
107856
107781
107780
108104
108109
108162
107920
107875
108163
107967
108071
107947
108098
107894
107559
108061
108002
107968
107956
107909
107931
107927
107962
107958
107944
108118
107980
107946
107880
107789
107792
107971
107903
107889
110934
107951
107972
107943
107982
107971
107992
108122
107967
108132
107978
108061
108007
107809
108013
108087
107880
107896
107877
107873
107952
107949
107881
107860
107950
107914
107918
107950
107960
107904
108040
107977
107923
107911
107964
107970
108275
108681
107941
107882
107847
108002
107978
107990
107985
107986
107990
108014
108025
108025
107960
107883
107966
107977
107989
107957
107983
107978
107983
107652
107966
108002
107970
107895
107943
107955
107843
107962
107968
107895
107875
107936
107932
107930
107931
107885
107867
107757
107917
107870
108022
107979
107619
108023
108031
107959
107988
107967
107820
107959
108079
107836
107703
107637
107829
108010
107810
107872
107871
107873
107865
107873
107886
107818
107895
107706
107827
107943
107894
107951
107970
107922
107938
107939
107929
107967
107970
107875
107875
107957
107810
107828
107796
107822
107873
107873
107873
107873
107872
107872
107958
107953
107854
107852
107861
107870
107962
104813
107800
108499
107677
107881
107872
107942
107952
107962
107962
107965
107810
107964
107774
107901
109142
107921
107964
107895
108449
107896
107231
107872
108148
108354
115170
107922
107876
108037
108148
107873
107872
107872
107924
107081
107920
107515
107473
107953
107565
106809
107954
107940
107941
107873
107873
107872
107872
107874
107909
107896
107955
107959
107858
107873
107823
107867
107850
107865
107861
107875
107877
107926
107935
107914
107882
107824
108328
107953
107868
107871
107870
107871
107879
107870
107875
107869
100017
108130
109071
107910
107904
108083
107917
107909
108010
107909
107154
107873
107873
107908
107880
108345
107987
107922
107892
107907
107839
108222
108397
107940
108217
107874
107883
107884
107880
107879
107931
107934
107940
107950
107971
107973
107972
107970
107972
107873
107962
107933
107926
107962
107967
107942
107987
107988
107972
108850
111105
108246
108081
108118
107887
107993
107984
107985
107983
107812
107859
107992
107984
107896
107875
107909
107888
107919
107872
107964
107965
107951
107960
107819
107875
107963
107960
107975
107972
107980
107985
107983
107323
108671
108740
107661
107823
117416
107848
107988
107876
108021
108099
108297
108075
107262
107826
107657
107835
107877
107955
107958
107872
104750
104713
107972
107971
107996
107937
107879
107942
107962
107988
107865
108002
108015
108021
115414
107948
108026
107978
108189
108144
107913
107874
108074
107873
107873
107968
107970
107924
107942
107926
107933
107784
107743
108195
107748
107860
107887
108014
108049
107952
108034
107964
107875
107857
107833
107799
108221
107875
107862
107868
107864
108200
107046
108128
110351
108296
107951
107921
108018
107959
108146
107896
107871
107928
107867
108009
108037
107923
107893
107960
107963
107960
108179
107945
107903
107945
108054
108031
107905
108124
107966
107962
107967
107863
107968
107667
107938
107960
107942
107955
107956
108065
108061
107974
107986
107980
107981
107924
107954
107888
107751
107991
107852
107909
107846
107938
107841
107983
108069
107966
107927
107859
115035
107779
107947
107791
107842
107991
107957
107996
107967
107971
107955
106750
107754
107439
108005
107978
107992
107896
107950
107922
107878
107920
107825
107764
107835
107926
107806
108012
108057
108020
107935
107971
107955
107895
107969
108301
108373
107769
108070
108076
107996
107804
107785
107799
107864
107782
107877
107872
107871
107763
107856
107932
107928
107933
107937
107916
107906
107969
107843
107957
107978
107959
107967
107771
107934
107966
106672
106720
105994
104886
107966
107886
107872
107895
107965
107873
108066
107953
107950
107963
107871
107872
107872
107872
107529
107980
107856
108003
108029
108017
108017
107800
107817
107784
107794
108002
108036
107852
107883
107889
107962
107963
107878
107947
107941
108027
107962
107994
107996
108002
108005
108002
107999
107816
107800
107964
107830
107980
107962
108098
107867
108238
107871
107870
107870
107874
107873
107873
107872
107912
107920
107897
107883
107919
107914
107922
107919
107950
107949
107962
107945
104892
107911
103739
108017
108037
107951
107885
107953
107932
107935
107913
107970
107981
107981
107930
108042
107735
107723
108383
108267
108548
108049
106012
117511
109131
107334
108448
108820
107275
108225
108008
107969
108137
108022
107899
107878
107919
107929
108019
107903
107972
107918
107837
107915
107968
107842
107793
107968
107876
107750
107707
107995
107999
107962
107905
107959
107968
108164
109387
108430
107766
107411
104127
108712
106472
108057
108359
108009
108053
109496
107877
108625
107876
107873
107926
107928
107870
107867
107877
107925
107912
107917
107916
107965
107966
107952
107945
107777
107938
107821
107904
107774
107783
107828
107976
107940
107873
107872
107871
107305
107873
107870
107919
107916
107978
107915
108024
107955
107951
107901
108172
107843
107866
107850
107873
107873
107952
107898
107873
107956
107966
107978
107901
107899
107899
108079
107903
107903
107957
113960
107953
108371
107954
105097
107956
107959
107987
107961
107962
108378
107952
107957
108008
107995
107949
107719
107947
107901
107887
107889
107889
107885
107948
107968
107883
107895
107767
107872
107967
107840
107804
107943
107865
107940
107943
107906
107902
107912
107912
107978
107911
108034
108011
107980
108009
107851
107794
108076
107932
107913
107890
107870
107969
107871
107868
107890
107966
107962
107894
107869
107782
107866
107880
108193
108092
106844
108129
108157
108150
108160
108215
108564
114820
108980
112348
107614
107616
107883
107881
107938
107882
107875
107884
107913
107921
107925
107601
107894
107873
107993
107971
107873
107873
107926
107947
107873
107816
107793
107901
107968
107912
107908
107910
107908
107957
107961
107961
107957
107869
107871
107883
107881
108158
108240
107972
108028
107311
108182
108081
108219
107873
107869
107869
107864
107874
107913
107927
107928
107929
107927
107933
107927
108080
107969
108111
107952
108100
107951
101053
107759
107877
109747
108900
108157
108021
108083
107949
107950
107948
107940
107934
107939
107951
107945
107954
107941
107944
107870
107864
107854
107905
107975
107740
108029
107872
107962
107967
107986
108019
108017
108008
108020
107906
108024
107819
106702
107685
107845
107877
107835
107836
107872
107870
107971
107874
107925
107970
107875
107978
107945
107954
108462
108517
109407
109616
107862
108359
107867
107885
107874
107874
107875
107875
107874
107870
107871
107869
107870
107872
107874
107890
107886
107885
107861
107863
107887
107887
107971
107969
107981
107971
107924
107971
107891
107932
107971
107942
107916
107879
108060
108057
108076
108055
108060
107918
107910
107913
107968
107975
107960
107975
108157
108127
107758
106670
108330
107961
107958
107959
107796
107968
107958
108019
107969
107984
107964
107969
107965
107967
107998
107962
110355
107691
107910
107925
107850
107920
108028
108023
107916
107894
107876
107917
107915
107915
107900
107924
107896
107924
107983
107981
114945
107709
108008
108050
107995
107971
107970
107885
107880
107935
107854
107886
107883
107933
107938
107863
107876
107879
107899
107877
107878
108783
107979
107759
107975
107960
107956
107971
107968
107964
107964
107965
107973
107746
107933
108006
108003
108032
107939
107951
107934
108019
107987
107925
107950
105934
107956
107906
108177
107913
107910
107910
108052
108014
107908
107989
107799
107653
107936
107867
107904
107735
107902
107880
107898
107725
107874
107874
107939
107943
107970
107933
107507
107890
107890
107888
107892
107965
107965
107969
107869
105134
107712
107884
107885
107883
110053
108613
107871
107872
107893
107878
107912
107887
107881
107898
107963
107967
107968
107969
107820
107946
107847
107755
107758
107965
107718
107963
108180
107864
107898
107905
107953
107949
107954
107969
107947
107956
108040
108038
108037
108022
108036
107325
107727
105926
108781
108057
107891
107861
107856
107850
102665
108556
108006
107969
108962
108363
100422
114458
108049
108017
108056
108050
104720
108015
107879
107887
107927
107913
108001
107936
107963
107971
107969
107995
107865
107941
107928
107732
107851
107868
107870
107970
107966
107957
107969
108021
107731
108079
108018
108048
107860
107990
107649
107871
107899
107888
108653
108612
108621
107762
107762
107748
107770
108242
107802
107969
107967
107965
107971
107968
107986
107866
107868
106950
108137
107962
107943
107942
108242
104933
107243
108000
106898
107870
107885
107949
107951
107971
107950
107878
107838
107862
107901
107914
107946
107989
107952
106894
107688
106910
107869
107949
107950
107869
107994
107865
108914
107867
107869
107868
107867
107939
107934
107952
107949
109405
107924
107929
108003
107908
107951
107887
107869
107945
107817
107875
107612
107585
107319
106943
106992
107969
107845
107653
107979
107916
107868
107972
107985
107975
107981
107972
107973
107887
108168
107815
108199
107956
107894
107898
107878
107950
107940
107960
107738
107948
107985
107934
107895
107736
107788
107799
107951
107767
107754
108003
108110
108067
107974
107972
107962
107864
107984
107865
107886
107870
107870
107868
107871
107878
107874
107872
107868
107804
107875
107874
108003
107980
108016
107971
107873
107874
107866
107959
107741
108052
107873
108068
107942
108097
108637
107907
107937
108230
107998
108490
107966
107968
107874
107900
107964
107902
107877
107877
107874
107770
107762
107868
107877
107959
107950
107953
107953
107953
108012
108047
107809
107852
107631
107668
105609
107984
107866
107943
107882
107966
107984
108035
108209
107777
108108
108109
107937
108016
107988
107983
107993
107952
107993
108006
107969
108001
107877
108011
107872
108142
108033
107976
108006
107997
107992
107967
107882
107979
107882
108004
107916
107972
107981
107994
107932
107916
108114
108149
108266
108118
108112
108121
107872
107900
107904
107925
107928
107975
107936
107940
107790
107797
107925
107920
107926
107890
107965
108185
107881
107797
107732
107974
107728
107962
107900
107908
107922
107971
107986
107811
107973
107974
107963
107978
108223
107811
107855
107829
107857
107870
107869
107884
107886
107974
107984
107974
108007
107978
107882
108180
107885
107972
107968
107899
107890
107967
107964
107968
107963
107961
107964
107983
107980
107741
107963
107827
107867
107988
108588
110087
107671
107868
107893
107852
107951
107949
107839
107936
107872
107873
107884
107873
107872
107951
108090
108015
107949
107997
107542
107953
107950
107936
107839
107842
107911
107893
107833
107858
108624
108434
108071
107836
107865
108017
108029
107988
107936
107696
107861
107873
107877
107864
107890
107895
107898
107971
107958
107948
107932
107859
107882
107890
107987
107991
107998
107993
107959
107868
107870
107872
107874
107867
107873
107935
107962
107837
107853
107934
107930
114697
107938
108224
118888
108367
107918
105512
107927
107918
107738
107965
107701
107705
107973
107973
107928
107651
107673
108130
108144
108549
107873
107605
107871
107930
107942
107907
107905
107910
108336
117315
108265
108444
108350
108293
108356
107890
107864
111224
107919
107912
107876
107873
108074
107872
107713
118769
107891
107857
107888
107924
107874
107980
107867
107981
107981
107982
107929
107927
107872
107957
107967
107954
107987
107956
107957
107955
107950
107953
117747
107980
107991
107865
107945
107939
107863
107872
108009
107872
107950
107708
107872
107873
105394
107868
107915
108043
107873
107872
107909
108043
98378.9
107977
107951
107921
107944
107941
107949
107894
107253
107992
108003
107970
108006
108027
108000
107995
107911
107964
104309
108033
108045
107756
107995
108012
108045
107053
108050
107890
107832
108037
108084
108153
107936
107931
107924
107977
108053
108113
108144
107917
108124
108140
108091
108006
107928
107920
107970
107966
108039
107971
107980
107832
107878
108028
107895
108045
108030
107889
107973
107861
107873
107914
107992
107914
107875
107907
107958
107968
107856
107877
107874
107972
107777
107881
107899
107882
107874
107877
107881
107882
107940
107939
107926
107944
107924
107943
107941
107953
107948
107868
107986
108013
108005
107963
107951
107888
107954
107875
123124
107776
108189
107878
108232
107875
108171
109195
107769
107775
107882
107889
107809
107872
107873
107872
107873
107895
107893
107904
107947
107958
107946
107945
107895
105259
107967
107965
107887
107968
107967
107902
107977
107976
107977
107978
107980
107978
107951
107956
107867
107869
107867
107889
107901
107937
107968
107958
107872
107813
107809
107824
108461
107955
107965
107921
108182
108015
107782
107716
107801
108282
107978
108037
107928
108354
108066
108048
107879
107880
107876
108013
108005
107960
107937
108185
107985
108096
108175
108053
108174
108247
107880
107875
107877
107899
107876
107815
107873
108355
107823
107891
107830
115218
107969
107975
107959
107979
107985
107984
107970
107874
107869
107993
107946
107969
107837
107865
107862
107878
108008
107876
107877
107839
107878
107943
107819
107967
107968
107966
107995
107997
107798
107804
107991
107995
107988
107875
107933
107945
107964
107970
107623
107863
107732
107813
107799
108031
108359
108080
107891
108010
107844
107851
107805
107869
107868
107882
107876
107978
107880
107960
107962
107849
107861
107806
107835
108018
108002
108042
108078
107954
108006
107947
107963
107868
107868
106063
107881
107738
107692
107925
107808
107794
107678
107805
107620
107587
108062
107934
108005
107967
108109
108701
108549
108126
107870
107992
107910
107922
107993
107995
107725
107867
107993
107852
107857
107857
107872
107876
107880
107857
107924
107916
101823
107852
107894
107893
107992
116685
108131
109334
107897
107955
114241
107953
107975
107872
105980
107876
107878
107924
107966
107939
107949
108009
108001
107992
108002
108016
107858
107962
107975
107988
108010
108005
107899
108008
107885
107905
107888
107808
107863
107858
107869
107909
107891
107908
107893
107718
107873
107860
107933
107963
107967
107936
107846
107873
107873
107903
107960
107958
107958
107956
107964
107850
107828
107873
107873
107987
107897
107930
107901
107933
107992
107919
107852
107992
107716
107898
107873
107894
107873
107895
107875
107923
107964
107960
107963
107935
107954
107953
107963
107960
107965
107816
107973
107974
107871
107873
107888
107880
108015
108009
108015
108022
108019
107864
108956
108643
108141
107203
105131
107542
113130
107997
108277
107981
108003
109058
107907
107904
107875
107866
107874
107878
107872
107873
107958
107910
107904
107925
107959
107950
107893
107975
107958
107894
107967
107951
107962
107959
107970
107885
107795
107904
107858
107945
107955
107960
107960
107952
107869
107960
107958
107955
107873
107872
107878
107881
107879
107930
107928
107870
107871
107870
107966
107890
107934
107923
107745
107167
107974
107876
107881
107880
107938
107956
107933
107922
107911
107913
107899
107806
108103
108321
108153
108077
107768
107862
108654
107870
107872
107873
108047
107873
108103
107881
107885
107876
107940
107919
107924
107918
107968
107967
107965
107940
107861
108001
107713
107943
107948
112967
107317
108493
107788
107869
107802
107907
107915
107958
107968
107893
107859
107868
107896
107891
107892
107896
108321
114839
108716
107849
107977
107976
107979
107978
110643
110343
107288
107704
120664
109263
118209
107904
108385
108280
107979
107829
116900
108313
107955
105680
107847
107511
107424
107822
108856
112478
110288
106901
107498
107873
107874
107904
114953
107905
107956
107952
107966
107880
107840
107858
107874
107872
107874
107914
108033
97021.6
107941
107939
107969
107941
107944
107947
107898
107986
107943
107949
107864
107969
107868
107867
107846
107864
107858
107792
107805
108157
108073
108067
108054
107599
107567
107422
107499
107997
106195
108027
107899
108001
107990
107904
108013
107969
107943
107888
107902
107901
107978
107960
107864
107892
107965
107986
107916
107919
107820
107826
107873
107872
107873
107861
107891
107873
107873
107872
107820
107892
107882
107932
107949
107999
107979
108119
107981
107911
107934
107931
107869
107936
107981
107959
107887
107984
107926
107972
107985
107987
107924
107912
107939
107825
107819
107839
108034
108305
108540
107962
107937
108060
107873
107992
107878
104497
107817
107859
107896
107986
107991
107914
107982
107900
107912
107930
107903
107880
107886
107872
107955
107971
107958
107967
107851
107872
107979
107980
107980
107906
107960
107935
107841
107807
107857
107841
107941
107933
108815
108973
108247
105271
107844
107761
107661
107804
107820
107905
107885
107970
107971
107778
107866
107940
107943
107948
107799
107959
108155
108145
107853
107824
107846
107903
108335
107883
108223
107914
108313
107871
108094
107913
107877
107911
107879
107962
107957
107966
107984
107987
107897
107964
107928
107955
107961
107962
107969
107849
107899
107873
107962
114142
108049
108049
107849
107964
107867
107903
107927
107931
107836
107842
108674
107847
108166
109187
107879
107932
108013
108113
108022
108562
108003
108011
107100
112812
107900
107898
109096
107791
107870
107869
107958
107970
107972
107867
107984
107868
107970
107880
107976
107971
107996
107874
107884
107895
107874
108002
107909
107921
107959
107928
106063
107807
107969
107277
107924
107940
107907
108002
107275
106464
108170
108202
108050
107940
108217
107982
108009
108001
107980
107261
108040
108016
107993
107536
107177
107966
107864
107965
107937
107977
107958
107935
107911
107868
107995
107984
107867
107943
107941
107976
108263
109274
108066
107872
107881
107963
107922
107967
107862
107917
107856
107872
108036
107917
108025
107971
107969
108185
107969
107998
107957
107954
107951
107959
107786
107810
107818
107962
107962
107962
107873
107874
107872
107883
108008
107872
108061
108040
107958
107837
107961
107817
107957
107790
107668
108016
107766
107887
107860
107898
107858
108061
107974
108212
107998
108070
107878
107871
107873
107885
103591
107435
108057
107873
107988
107980
107808
107888
107871
107868
107870
107861
107980
107976
107972
107961
107974
107975
108046
107888
107888
107881
107883
107877
107879
107875
107878
107878
107875
108066
107986
107970
107939
108017
107966
107967
107967
107969
107959
107762
108011
108028
107768
107774
107964
107783
108167
107968
107976
107956
107972
107569
108004
108180
108084
108173
107949
107951
107959
108142
108124
108182
108107
107873
107873
107873
107873
107938
107929
107922
107949
107996
107943
107942
107873
107872
107874
107871
107949
107952
107957
107962
107869
107873
107871
107839
107867
107908
107846
107873
107873
107981
107967
107957
107960
107960
107964
107872
107925
107872
107872
107978
107871
107977
107872
107982
107890
107956
107970
108007
107805
107821
107832
107905
108011
108018
106638
107905
107974
107973
107957
107844
107924
107953
107965
107724
107873
107969
107872
107976
107971
107904
107901
107983
107964
107962
115724
108476
104962
107876
107434
107961
107960
107894
107894
107892
107904
107909
108019
107873
107873
107873
107999
108312
107986
108174
108141
108127
107873
107745
107914
107828
108074
107946
107997
114869
107877
108002
107943
107999
107915
108081
107904
108031
107928
108032
108027
107832
107567
107989
107948
107944
107436
107429
107766
107850
107808
107854
107859
107902
107900
107825
107901
107922
107919
107966
108093
107846
107918
107928
107901
107883
107832
107869
107824
107955
107971
107967
107795
107790
107991
107976
107977
107980
107981
107948
107842
107888
107840
108243
108200
108186
108188
107906
107913
107901
107974
107913
107972
107974
107888
107890
107867
107879
107896
107895
107996
108068
108095
107889
107887
107876
107867
107872
107868
107868
106666
107877
107853
107875
107851
108194
107900
107961
107968
107971
107904
107854
107970
107970
107973
107614
108014
108073
108184
108044
108068
108142
114191
107949
107964
107875
107879
107931
107960
108096
108072
108096
108093
108064
108113
108120
108107
107868
107887
107833
107935
107930
107919
107984
107998
107942
107935
108074
107937
107933
107951
107971
108034
108054
107933
107917
108037
107913
108107
107822
107831
108098
108128
107843
107851
107984
109138
107881
107979
108003
107970
119553
107983
107864
107981
106703
107886
)
;

boundaryField
{
    Inlet
    {
        type            prghTotalPressure;
        p0              nonuniform List<scalar> 0();
        value           nonuniform List<scalar> 0();
    }
    Outlet
    {
        type            fixedValue;
        value           nonuniform List<scalar> 0();
    }
    Symmetric
    {
        type            symmetry;
    }
    Wall
    {
        type            fixedFluxPressure;
        gradient        uniform 0;
        value           nonuniform List<scalar> 
251
(
107873
107872
107873
107875
107878
107883
107890
107899
107908
107919
107929
107939
107948
107958
107964
107969
107971
107970
107968
107962
107953
107939
107920
107896
107866
107833
107789
107746
107873
107873
107872
107873
107878
107879
107885
107893
107905
107914
107928
107937
107948
107951
107960
107962
107970
107964
107964
107958
107949
107932
107914
107890
107864
107828
107789
107742
107873
107872
107872
107872
107872
107873
107874
107873
107875
107876
107875
107879
107880
107881
107885
107887
107886
107893
107895
107894
107901
107904
107905
107912
107914
107915
107922
107924
107921
107931
107934
107938
107941
107944
107942
107950
107953
107955
107957
107962
107962
107962
107967
107967
107965
107970
107965
107965
107972
107971
107963
107970
107969
107958
107965
107956
107949
107958
107955
107938
107947
107942
107920
107930
107924
107899
107909
107901
107870
107883
107868
107837
107851
107842
107796
107812
107795
107755
107769
107759
107706
107723
107708
107877
107872
107873
107873
107873
107875
107872
107875
107875
107883
107878
107891
107882
107899
107890
107905
107898
107920
107910
107926
107921
107937
107932
107945
107944
107958
107950
107957
107955
107968
107962
107963
107967
107970
107967
107960
107963
107960
107964
107941
107951
107934
107941
107913
107923
107889
107902
107852
107878
107815
107846
107774
107809
107726
107766
107716
107872
107873
107881
107888
107897
107907
107916
107927
107937
107946
107955
107960
107963
107965
107964
107961
107954
107945
107930
107911
107884
107854
107819
107775
107732
107867
107870
107872
107873
107873
107873
107868
107867
107870
107871
107873
107872
107873
107873
107873
107871
107868
107869
107869
107873
107871
107873
107873
107873
107867
107873
107872
107873
107867
107873
107873
)
;
    }
    procBoundary1to0
    {
        type            processor;
        value           nonuniform List<scalar> 
28
(
106994
107530
107790
107640
107854
107765
107746
107843
107863
107858
107819
107764
107852
107851
107858
107774
107865
107864
107637
107832
107856
107844
96268.7
107803
107714
107862
103280
107861
)
;
    }
    procBoundary1to3
    {
        type            processor;
        value           nonuniform List<scalar> 
32
(
108083
107704
107704
108154
109114
107772
107709
107708
107791
107813
107826
107696
107744
107783
107800
107792
114432
107701
107866
107838
107799
107012
107730
107887
107756
107990
107719
108065
107699
107777
108217
107936
)
;
    }
}


// ************************************************************************* //
