/*--------------------------------*- C++ -*----------------------------------*\
| =========                 |                                                 |
| \\      /  F ield         | OpenFOAM: The Open Source CFD Toolbox           |
|  \\    /   O peration     | Version:  v2006                                 |
|   \\  /    A nd           | Website:  www.openfoam.com                      |
|    \\/     M anipulation  |                                                 |
\*---------------------------------------------------------------------------*/
FoamFile
{
    version     2.0;
    format      ascii;
    class       surfaceScalarField;
    location    "0.01";
    object      phi;
}
// * * * * * * * * * * * * * * * * * * * * * * * * * * * * * * * * * * * * * //

dimensions      [0 3 -1 0 0 0 0];
oriented        oriented;


internalField   nonuniform List<scalar> 
5866
(
-2.95357e-07
7.95263e-09
2.87404e-07
4.92288e-08
-4.93329e-08
7.36501e-10
-6.32345e-10
7.00988e-08
-1.77269e-08
-5.2372e-08
1.54852e-09
-1.51111e-09
-3.7402e-11
3.63867e-08
3.99598e-09
-4.03829e-08
4.3226e-08
3.82325e-08
-8.1459e-08
-1.01723e-08
2.55009e-09
7.62217e-09
1.06064e-07
-1.13757e-07
7.69263e-09
-4.67e-08
4.71656e-08
3.84638e-09
-4.31196e-09
6.957e-11
-4.05795e-11
-2.89907e-11
-9.13167e-09
1.60702e-08
9.74244e-09
-1.66809e-08
-1.62937e-07
3.02275e-10
1.67623e-07
-4.98844e-09
-1.30501e-06
-5.35554e-09
1.31036e-06
-1.29137e-06
-1.36311e-08
-9.15102e-08
9.22442e-08
-7.34035e-10
1.27132e-08
6.14617e-08
8.49768e-08
-9.0601e-08
9.06232e-08
-8.4999e-08
1.254e-08
-1.48794e-08
2.33942e-09
-5.21557e-08
-1.67612e-08
2.20931e-09
1.09249e-09
-4.54883e-10
-1.22456e-08
1.16081e-08
1.20481e-09
1.42907e-10
-1.3477e-09
2.95199e-09
1.14149e-08
-1.43668e-08
-2.30671e-08
1.76663e-10
2.28905e-08
3.96435e-08
-3.99963e-08
3.52812e-10
3.27374e-08
-7.89799e-11
1.09295e-10
-3.27677e-08
3.94288e-08
2.95618e-09
-2.74142e-09
-1.69865e-08
1.83098e-08
-1.32329e-09
-2.58363e-08
2.29489e-08
2.88736e-09
2.80704e-08
-2.84206e-10
-2.87467e-08
9.60481e-10
7.39339e-10
-3.00221e-10
-4.39125e-10
-1.1211e-09
1.1211e-09
6.70969e-11
2.06463e-09
-2.13172e-09
5.89951e-10
9.42967e-12
-6.42198e-10
4.28025e-11
2.19386e-09
-2.17794e-09
-1.59141e-11
-4.8208e-08
-3.94665e-10
4.86027e-08
4.68794e-08
-5.06653e-08
3.78584e-09
-1.99938e-09
-2.30922e-10
2.23031e-09
5.65731e-09
-5.8505e-09
1.07974e-10
8.52034e-11
6.05468e-09
1.97962e-08
-7.52259e-09
-1.83283e-08
-4.72502e-08
4.27323e-09
4.29769e-08
3.69744e-10
-4.85597e-10
-1.51937e-08
1.53095e-08
-2.58806e-08
2.76661e-08
-9.35065e-09
3.86433e-08
-2.92926e-08
-1.31849e-09
1.26176e-09
5.67381e-11
-3.94606e-08
4.04292e-08
-9.68522e-10
7.14247e-08
-6.44178e-08
-1.63575e-08
-3.64654e-08
9.73811e-10
3.54916e-08
5.87978e-09
1.47273e-10
1.1378e-08
6.00467e-08
2.77114e-09
8.56155e-09
1.37138e-11
-8.74209e-09
1.66847e-10
5.86221e-10
4.49381e-08
-4.55243e-08
8.21868e-10
-8.21874e-10
3.95951e-08
-4.02095e-09
-3.91514e-08
3.5772e-09
7.17372e-09
-9.93029e-11
1.49563e-10
-7.22399e-09
-5.74574e-09
-4.78745e-08
4.72171e-08
6.40309e-09
7.57868e-11
-5.22472e-08
1.60745e-11
5.21553e-08
1.4492e-08
4.44001e-08
-5.88921e-08
2.29984e-08
-2.32666e-08
2.68181e-10
2.26361e-08
3.62333e-10
1.48768e-06
-1.48768e-06
1.51982e-07
-1.50769e-07
-1.2126e-09
-2.31391e-08
7.65977e-09
1.54794e-08
1.04969e-09
-1.04969e-09
7.73305e-08
-8.14799e-08
4.14935e-09
-1.5364e-08
-1.39562e-07
1.54926e-07
-4.90191e-10
3.99189e-08
4.82113e-08
-4.78713e-08
-3.39988e-10
1.31248e-09
2.79837e-08
-2.92962e-08
-4.64462e-12
-3.59335e-11
4.05795e-11
4.77363e-07
-1.77872e-09
-4.75585e-07
4.92302e-08
1.75082e-08
-6.67384e-08
-4.98015e-08
-3.98023e-09
4.07122e-09
4.97105e-08
4.79217e-08
-8.32664e-09
-2.5047e-08
2.68503e-08
-1.80331e-09
-4.70588e-08
5.56174e-08
-8.55864e-09
-6.23039e-08
6.87857e-08
-2.18458e-08
-3.34524e-08
3.36996e-08
-4.85791e-09
4.61068e-09
-5.2156e-11
-1.97891e-11
7.19461e-11
-7.93028e-08
1.69989e-08
-4.21541e-08
1.58395e-08
-1.58348e-08
4.21494e-08
7.50645e-10
-4.92981e-07
-1.47762e-08
5.07005e-07
-4.61606e-07
-4.30013e-08
5.04612e-07
2.05483e-11
-1.77492e-08
1.73286e-08
4.00078e-10
-3.07149e-08
-5.73114e-09
3.64461e-08
-7.57726e-09
1.1859e-10
8.41575e-09
-9.57076e-10
-4.67361e-08
5.9833e-09
4.07529e-08
1.01344e-09
-4.55031e-10
-1.75449e-08
-7.54932e-09
-1.90942e-11
7.55588e-09
1.25578e-11
1.79963e-09
-1.79962e-09
7.96691e-09
-8.54709e-11
-7.86087e-09
-5.25226e-09
-8.98757e-10
6.151e-09
-2.73289e-09
2.8621e-09
7.08412e-13
-1.29909e-10
2.62252e-08
-4.70121e-11
-2.61781e-08
2.863e-08
-2.81649e-08
3.33945e-08
-3.38596e-08
-2.71979e-08
3.03559e-08
-2.16751e-08
2.11171e-08
5.58005e-10
-1.43678e-09
1.43679e-09
2.78971e-10
-2.69937e-09
-8.87171e-10
3.30757e-09
-1.21589e-08
-1.749e-08
1.17202e-08
1.79286e-08
-5.54224e-10
4.58112e-10
1.20481e-09
3.09558e-09
-2.3283e-09
3.41094e-08
-3.48766e-08
-2.64789e-08
2.73951e-08
-9.16194e-10
4.09243e-10
-9.22596e-11
4.43596e-10
-7.60569e-10
8.8093e-10
-2.21517e-08
2.12708e-08
-1.69644e-09
-1.01234e-08
1.18199e-08
-4.42902e-08
1.52931e-09
4.27609e-08
1.12789e-06
-1.08499e-06
-4.28878e-08
2.58287e-08
-2.67654e-08
9.36711e-10
4.96151e-10
-4.47972e-10
2.32016e-08
-2.32498e-08
1.87795e-09
-5.02981e-08
5.04069e-08
-1.98673e-09
-1.96171e-09
2.65607e-08
-2.4599e-08
6.68308e-08
-6.41944e-08
-2.63642e-09
1.16593e-09
-4.56163e-08
4.44504e-08
2.83591e-08
6.91024e-09
-3.52693e-08
4.21323e-08
-6.99387e-08
2.78064e-08
1.59722e-10
-7.12215e-09
-5.03562e-11
7.01279e-09
-2.28857e-08
2.42226e-08
1.24666e-08
-1.38036e-08
9.39947e-10
-9.39952e-10
-1.49693e-07
3.81713e-08
1.11522e-07
-8.08247e-09
-5.31414e-08
9.2853e-09
5.19385e-08
8.93392e-09
1.42038e-10
-1.48197e-10
-8.92775e-09
4.24081e-10
-4.01985e-10
-2.2099e-11
7.78875e-09
-1.88739e-07
1.8095e-07
1.08518e-07
1.43186e-08
-1.22837e-07
3.92517e-09
1.12382e-07
1.40065e-06
-1.38634e-06
1.33956e-08
3.48566e-08
-4.82522e-08
1.40458e-06
-2.50724e-08
2.51122e-08
1.9249e-09
-1.96471e-09
4.1165e-11
-2.02839e-09
1.98724e-09
1.44746e-06
8.50318e-10
-1.44831e-06
-1.95615e-09
1.95615e-09
-2.30196e-08
3.40986e-08
-1.10791e-08
5.88405e-08
-8.22266e-09
-5.10175e-11
-5.05668e-08
2.31905e-09
5.65215e-08
-8.33903e-09
2.18053e-09
6.15852e-09
1.7283e-09
-1.95081e-08
1.89986e-08
-1.21881e-09
-1.31297e-08
-2.40495e-08
3.71792e-08
2.70762e-10
-7.23377e-09
7.00419e-09
-6.30825e-10
-7.7082e-09
4.05798e-08
-4.24178e-08
4.10193e-08
-3.91813e-08
-2.25394e-11
2.06756e-08
-2.0653e-08
5.708e-09
-6.13007e-09
-2.08738e-10
3.67438e-08
-2.04124e-09
2.26808e-09
-3.69706e-08
9.93175e-09
-1.45172e-08
4.58551e-09
2.07878e-09
-1.98594e-09
-9.28479e-11
-1.95549e-09
3.66271e-08
-3.46716e-08
1.19636e-10
9.69531e-09
-9.31879e-09
-1.60539e-08
2.17771e-08
-5.72322e-09
-4.03131e-08
2.62378e-11
4.02868e-08
1.52562e-08
-3.19035e-09
-1.20659e-08
3.90625e-08
-8.18689e-09
-3.08756e-08
2.69053e-10
4.23694e-08
-3.24771e-10
-4.23137e-08
1.15097e-08
3.90605e-08
-5.05702e-08
3.99061e-08
-4.04561e-08
5.50012e-10
-2.4296e-09
2.8129e-08
1.65332e-09
-2.73528e-08
-2.47881e-11
4.70242e-12
2.00901e-11
2.69299e-08
-9.15429e-09
-1.77756e-08
5.55399e-09
-3.88588e-08
3.33048e-08
3.41602e-08
-3.18099e-08
-2.35028e-09
-2.95131e-07
-3.68695e-09
3.46073e-09
2.75451e-09
3.17767e-08
-3.0057e-09
-3.15255e-08
7.48888e-10
3.19885e-08
-1.48861e-10
-4.06484e-09
9.0496e-11
4.1232e-09
-2.30091e-08
2.36832e-08
7.47834e-11
-2.09334e-09
3.87695e-13
2.09297e-09
-2.26682e-09
2.3695e-08
-2.14281e-08
2.22909e-09
-2.66083e-08
2.82974e-08
-3.91821e-09
1.8363e-09
3.01522e-08
5.05433e-08
-4.47391e-08
-5.80419e-09
2.37627e-08
-1.08214e-08
-1.29414e-08
-2.87759e-08
-2.40778e-09
1.95394e-09
2.92297e-08
-5.86301e-09
5.58236e-09
2.66771e-08
-2.63965e-08
7.59052e-09
-2.2918e-08
1.53275e-08
2.55901e-08
1.1891e-08
-1.37184e-08
-1.3023e-07
-1.1364e-08
1.41594e-07
-5.11626e-08
5.10376e-08
-1.09532e-09
1.22034e-09
-2.51839e-09
2.65687e-09
2.82206e-08
1.84722e-08
7.11784e-09
3.4254e-09
3.32527e-08
-3.31618e-08
-3.51631e-09
2.62268e-08
2.06641e-09
-2.57333e-08
-2.55984e-09
-3.36715e-08
8.60188e-09
2.50696e-08
-3.27615e-08
-2.35528e-08
5.63143e-08
-1.53888e-10
2.18609e-10
-6.47259e-11
-6.42754e-11
-1.93511e-09
1.40575e-08
1.11306e-08
1.88964e-09
-3.17353e-09
1.2839e-09
-3.48904e-08
2.93361e-08
5.55432e-09
-2.75177e-09
3.51495e-08
-3.53147e-08
2.91702e-09
-6.16499e-10
6.16501e-10
-1.32545e-10
1.32549e-10
6.88914e-11
2.18622e-09
-2.25511e-09
-1.41963e-08
5.89077e-09
8.30556e-09
-1.11377e-09
1.24185e-06
-1.24073e-06
2.84692e-08
-2.37032e-08
2.04481e-08
-2.52141e-08
-3.97743e-08
-5.99273e-09
4.57671e-08
-1.71205e-08
1.12211e-08
1.73352e-08
-1.14357e-08
-3.64971e-08
5.4046e-08
3.9293e-08
-5.6842e-08
-1.46371e-08
-4.88691e-08
6.35061e-08
-4.42906e-08
3.22802e-08
1.20103e-08
-1.10891e-07
-4.08697e-09
1.18656e-07
-3.67828e-09
1.32058e-08
-1.62996e-08
9.24118e-09
-6.14736e-09
-4.52433e-07
4.5083e-07
1.60308e-09
3.68853e-08
-6.12775e-08
2.43916e-08
4.58439e-08
-6.58352e-09
-3.92604e-08
-2.17007e-09
4.5577e-08
-4.3407e-08
3.1802e-09
-3.76514e-09
-3.35311e-09
3.93807e-09
-1.06576e-08
-1.21911e-06
1.22976e-06
7.38021e-08
-6.7779e-08
7.58988e-09
-1.36126e-08
-7.74707e-09
-5.52638e-10
1.05937e-09
7.24034e-09
-1.63583e-09
-6.11124e-09
-1.70672e-09
1.70673e-09
4.16985e-09
-9.89647e-10
2.58775e-08
-5.61778e-08
3.03004e-08
4.9668e-08
-4.97376e-08
-2.26449e-09
2.33409e-09
-4.50994e-08
-1.71249e-09
4.68119e-08
-6.26988e-08
5.73472e-08
8.34051e-09
-4.61637e-08
3.78232e-08
5.2329e-08
1.45129e-09
-1.44888e-09
-5.23314e-08
-5.46295e-08
-6.32308e-10
5.52618e-08
-2.92449e-08
-1.74551e-08
3.34241e-08
-3.7445e-08
2.89588e-08
1.8963e-08
-2.15986e-08
3.60214e-08
-1.44229e-08
8.54215e-11
2.16937e-09
-2.25479e-09
1.39712e-08
-3.19464e-09
-1.07765e-08
2.1203e-09
-2.12029e-09
-1.8755e-09
-1.24216e-08
-1.4245e-08
1.24703e-08
-3.37373e-08
4.40335e-08
-1.02962e-08
2.92015e-09
-1.67683e-09
-2.7515e-09
1.50818e-09
-3.87533e-08
4.72677e-09
-3.48173e-09
3.75083e-08
-8.31565e-08
8.56727e-08
-2.51619e-09
-4.66223e-09
5.83642e-08
-5.3702e-08
-7.91688e-10
-3.966e-08
4.04517e-08
-2.45675e-10
1.93912e-10
-4.54817e-08
4.55334e-08
3.91023e-08
-3.98258e-08
7.23479e-10
5.09376e-09
-2.90471e-09
7.31106e-10
-5.08346e-08
-2.55626e-09
5.11533e-08
2.23762e-09
4.41915e-08
1.58814e-09
-4.57797e-08
4.89374e-08
-4.86392e-08
8.6779e-10
1.55004e-08
3.62047e-08
-5.17051e-08
-2.12523e-08
-4.50796e-08
6.63319e-08
-1.97102e-09
1.73807e-09
2.32948e-10
-4.95116e-08
4.87143e-08
7.97339e-10
2.49562e-08
-1.46001e-08
-1.03561e-08
-4.02286e-08
1.08342e-08
4.04093e-08
-1.10149e-08
7.62455e-09
2.41042e-08
-6.77254e-09
-2.08566e-08
2.84811e-08
9.77629e-10
-4.05454e-08
-7.45331e-10
4.956e-08
-4.85823e-08
1.7736e-10
4.53793e-08
-4.55566e-08
3.26305e-08
1.52972e-09
-4.91527e-09
6.00891e-09
2.10224e-09
-2.10222e-09
-2.38968e-11
-1.41287e-09
-2.4434e-08
4.9765e-09
-6.8978e-09
2.63553e-08
-1.60973e-09
1.60974e-09
-4.81215e-10
3.60297e-09
2.09765e-10
-3.33153e-09
8.64543e-10
-8.64535e-10
-5.76109e-08
6.52915e-08
-9.0987e-08
8.33064e-08
5.25417e-08
-1.04695e-07
-2.25002e-08
-6.20505e-09
2.87053e-08
2.08718e-08
-3.06257e-08
9.75394e-09
2.31289e-08
-4.29947e-09
-2.18075e-08
2.97797e-09
1.90833e-08
-3.79327e-08
1.88494e-08
2.73817e-08
2.69616e-10
-3.70715e-10
-2.72806e-08
8.68458e-09
-9.21728e-09
3.72114e-08
-3.66787e-08
-1.23294e-09
-9.02772e-08
4.67377e-08
-4.72203e-08
-1.04799e-08
1.09624e-08
1.34396e-08
4.98104e-09
-1.84206e-08
1.03885e-09
3.59141e-08
-3.69529e-08
4.29245e-08
1.75709e-09
-4.46816e-08
-4.81465e-08
-1.64865e-09
4.90035e-08
-2.52173e-08
-2.66907e-08
-1.09389e-08
-3.60467e-08
4.69856e-08
-2.11148e-07
1.90716e-08
1.92077e-07
1.06458e-07
-3.93332e-10
-2.06325e-09
2.01298e-09
-3.76864e-08
3.77367e-08
4.00558e-08
-5.12527e-08
1.11969e-08
4.52054e-08
-4.19901e-08
-3.21537e-09
-7.61544e-09
4.36191e-08
-3.60037e-08
-7.59322e-09
2.94148e-08
-2.18216e-08
-1.74196e-08
1.95376e-08
-2.34998e-09
1.42301e-08
-3.14204e-08
-2.04736e-08
8.48234e-09
2.78827e-08
-1.58942e-08
-3.15869e-08
3.2273e-08
-6.25891e-09
5.57286e-09
-5.06289e-09
-2.19174e-08
2.69802e-08
-2.91405e-08
1.20199e-08
-1.56634e-08
-4.81025e-09
-4.55481e-08
3.21514e-08
1.33963e-08
-5.10003e-10
4.53521e-09
-4.0252e-09
3.87381e-09
-4.93272e-11
2.05369e-09
-2.00435e-09
-2.95682e-10
-8.42904e-09
-5.75901e-11
8.78233e-09
-1.21426e-06
4.25344e-09
1.21001e-06
4.10369e-12
-8.74508e-12
-1.6225e-09
1.62251e-09
6.85784e-10
1.88572e-08
-1.82305e-08
-3.3273e-08
-2.15433e-09
3.54273e-08
-3.83145e-08
6.62644e-09
3.1688e-08
-3.48691e-08
4.02132e-08
-5.34403e-09
-2.69384e-08
2.66927e-08
1.97412e-08
-5.90864e-08
3.93452e-08
-6.16243e-09
-1.57282e-09
7.73524e-09
2.79746e-08
-2.52201e-08
-2.55309e-08
2.89563e-08
-5.5053e-09
4.8628e-09
-2.03e-10
1.36426e-08
4.37069e-08
-7.39291e-08
3.02222e-08
2.91981e-08
4.71234e-08
-3.26146e-08
-4.69864e-08
4.22188e-08
4.7676e-09
-1.99447e-08
2.9942e-08
-9.99729e-09
4.32207e-08
-2.41374e-08
-4.52247e-08
5.86709e-09
3.93576e-08
2.73897e-08
1.34064e-09
4.75967e-08
-4.43894e-08
4.22664e-08
2.80005e-08
1.18473e-06
-1.17237e-06
-1.23581e-08
-1.5411e-08
1.67599e-08
4.02098e-08
-4.15588e-08
4.10257e-09
3.00919e-08
-3.41945e-08
-1.01093e-08
-1.30298e-08
-2.97994e-08
-8.68985e-09
3.84893e-08
-2.44162e-08
-2.35145e-08
4.79307e-08
-1.529e-08
2.90417e-08
-2.98057e-08
3.51526e-09
4.44498e-08
-4.7965e-08
-2.02791e-09
-7.47386e-09
9.5018e-09
4.65878e-09
3.8629e-08
-4.32878e-08
-1.92219e-09
4.47564e-08
-4.44555e-08
1.62128e-09
-9.35251e-09
4.60964e-08
1.40942e-09
-4.41408e-08
4.27314e-08
-3.8692e-08
3.49892e-08
3.95204e-08
-3.58176e-08
3.90897e-08
-4.4595e-08
3.01761e-08
-2.58418e-08
-4.33429e-09
4.7544e-08
-3.46848e-08
-1.28593e-08
-3.58342e-08
3.75754e-08
-3.42297e-08
4.08561e-08
-2.83897e-09
-3.55363e-09
-5.57804e-09
-2.50952e-08
-5.71907e-09
3.08143e-08
-7.25775e-09
1.00794e-08
-2.82164e-09
2.15556e-08
4.23878e-08
-6.39437e-08
-5.00117e-08
6.30618e-08
8.50531e-09
5.60705e-08
-3.85137e-08
-1.75573e-08
-2.06013e-08
5.7382e-08
1.92891e-08
-3.80252e-08
-2.27607e-08
6.07855e-08
-1.46897e-06
1.48346e-06
-8.38525e-10
1.17423e-07
-1.16585e-07
5.13987e-09
-2.61399e-08
-5.93836e-09
2.17254e-08
3.3285e-11
3.34467e-10
-2.20931e-08
5.40115e-10
1.66906e-10
3.35546e-08
-3.42616e-08
4.9582e-08
7.71633e-09
-5.72984e-08
3.83641e-08
-3.75533e-08
3.32728e-08
-3.40836e-08
1.13686e-09
3.72273e-08
1.42804e-09
-5.22635e-08
5.19723e-08
-1.69459e-09
2.342e-08
-2.4485e-08
3.07178e-09
2.14132e-08
-4.67598e-08
-1.75848e-08
4.66257e-08
1.77187e-08
-4.0476e-08
4.28501e-08
4.17738e-08
-4.41479e-08
3.28218e-08
-2.97262e-08
2.26011e-08
-1.31606e-08
-9.44051e-09
-3.87646e-09
3.14839e-08
-2.76075e-08
8.5955e-09
1.40056e-08
3.66075e-08
-4.46899e-08
-1.20942e-07
3.45058e-09
-1.27383e-08
5.57391e-09
-4.36934e-08
3.81195e-08
6.03291e-09
3.80561e-08
-4.4089e-08
5.8407e-09
-4.52137e-08
4.49469e-08
4.24482e-08
-2.528e-08
-3.0814e-09
4.35024e-10
9.34682e-09
-8.47916e-10
-4.93587e-10
1.37058e-08
-1.3361e-08
-5.2496e-08
-3.04976e-08
3.23566e-08
5.06367e-08
1.11433e-08
3.41661e-08
-4.53096e-08
-3.37807e-08
2.40389e-08
-4.12541e-08
1.72151e-08
1.66692e-09
4.97699e-08
-5.14368e-08
-3.42055e-08
1.79059e-08
1.40516e-08
-5.05487e-08
-1.89323e-08
1.84387e-08
1.95339e-09
-1.94023e-09
3.83514e-08
-3.83646e-08
-2.97534e-08
1.46685e-09
2.82866e-08
-5.4877e-08
3.48207e-08
-3.96326e-08
5.9689e-08
-3.76688e-08
-9.34653e-09
4.70153e-08
-2.80841e-08
2.89412e-08
-1.76852e-08
1.68281e-08
-5.83374e-08
4.24701e-09
5.40904e-08
3.79078e-09
-4.07696e-09
-3.45476e-08
3.83384e-08
1.86918e-08
-3.42765e-08
6.50617e-09
-4.77992e-08
4.1293e-08
5.02373e-09
-3.74477e-08
3.2424e-08
-4.35016e-08
4.31913e-08
3.10317e-10
7.55698e-09
-6.58481e-09
-5.715e-08
-3.92488e-08
4.63206e-08
-7.07175e-09
7.09521e-09
-3.734e-08
-7.52275e-09
3.77676e-08
4.89959e-10
-4.89965e-10
1.39352e-08
1.99011e-09
-1.59253e-08
-6.26039e-09
-3.08672e-08
3.71276e-08
6.28724e-08
-5.75018e-08
4.28407e-08
3.07473e-08
-3.14918e-08
-5.51588e-09
4.60786e-09
-5.97659e-08
7.42297e-08
-5.3183e-08
5.51334e-10
5.31508e-08
-5.19087e-10
5.16541e-08
-4.61261e-09
-4.70415e-08
4.69707e-08
4.68347e-09
9.68e-09
1.87892e-08
-2.15305e-08
1.33091e-08
8.22135e-09
-2.02036e-09
-5.11627e-08
-1.26136e-07
-9.12162e-09
1.35258e-07
-1.09805e-08
-4.02163e-08
5.11967e-08
-3.13892e-08
-3.20357e-08
-2.16816e-08
-1.29678e-08
-3.83766e-08
7.07843e-10
4.96389e-09
-2.37809e-08
1.8817e-08
1.98469e-08
-2.15434e-08
-7.3769e-09
7.52724e-09
-1.36545e-10
-1.37533e-11
-3.70651e-08
4.46221e-08
-3.50446e-08
-3.69997e-08
1.1133e-08
2.58666e-08
4.97235e-08
1.22313e-08
-4.92472e-08
-1.27076e-08
9.73168e-09
-3.82004e-08
2.84687e-08
2.22311e-09
-2.22311e-09
1.50356e-08
1.03863e-08
-2.54218e-08
1.7582e-08
2.74955e-08
-4.50775e-08
-1.16698e-11
-1.70213e-09
1.71381e-09
2.62183e-08
-3.2238e-08
6.01976e-09
2.85615e-08
-2.06933e-08
-7.86826e-09
1.29436e-08
-3.08074e-07
-2.79086e-08
7.63594e-09
3.00043e-08
2.19563e-08
9.82043e-09
-1.12055e-08
-4.06476e-08
-8.3284e-09
4.18368e-08
7.13922e-09
5.33277e-08
-6.5374e-08
1.20456e-08
4.16187e-08
2.57078e-08
2.84585e-08
-4.90601e-08
2.27512e-10
-2.27509e-10
8.24881e-10
-3.38063e-09
2.55576e-09
2.87564e-08
-3.12656e-08
2.50915e-09
1.66238e-08
3.30997e-08
2.56471e-08
-4.7734e-08
2.20864e-08
5.94817e-10
3.13062e-11
5.63346e-11
-6.82451e-10
1.63968e-09
-1.63967e-09
-2.81712e-08
2.46549e-08
-2.13376e-09
2.13377e-09
1.81108e-09
-1.81107e-09
1.30352e-10
-8.37952e-09
8.34358e-09
-9.43838e-11
-4.04588e-08
4.62477e-10
1.22132e-09
-1.14635e-09
-7.49724e-11
-5.46034e-09
7.98326e-10
-1.85907e-08
7.46555e-10
1.78442e-08
1.96185e-08
7.03867e-10
-7.1263e-10
-7.90932e-08
7.98059e-08
-3.482e-08
1.59093e-09
3.32291e-08
3.0913e-09
-3.43836e-08
-3.52779e-09
-6.01625e-09
-8.62557e-10
7.16364e-10
2.6726e-08
-1.29137e-06
4.62301e-09
-5.57856e-08
1.30956e-09
1.00413e-07
-9.37697e-08
4.53895e-08
4.82082e-09
-4.55873e-08
4.03397e-08
-4.01457e-08
-4.56556e-08
4.39739e-08
1.68167e-09
-1.71571e-09
-4.91727e-08
1.77485e-09
4.91135e-08
-4.39838e-08
4.22681e-08
-1.02821e-09
4.17426e-08
-4.07144e-08
-1.8564e-09
2.8649e-09
1.29627e-08
-2.7878e-09
-4.56382e-08
2.77046e-09
-4.52975e-08
4.58268e-08
-1.32356e-09
1.06139e-07
-1.04829e-07
-3.64405e-08
-4.64837e-09
4.10888e-08
-1.95118e-08
5.63966e-08
8.92664e-09
-6.93239e-09
-1.99427e-09
-1.02656e-08
9.43631e-09
-3.73711e-08
3.64722e-08
-3.85242e-08
-1.67799e-10
4.12406e-08
1.42124e-09
-4.26618e-08
-2.06419e-08
9.82049e-09
-6.30552e-08
4.73952e-08
1.566e-08
-3.81287e-09
-3.86049e-08
-3.41071e-11
-2.87305e-11
2.54438e-10
-1.91592e-10
3.58273e-08
-8.38072e-10
-4.53328e-10
4.00442e-10
5.28898e-11
-9.2724e-09
1.50597e-10
9.12942e-09
-7.60391e-12
-2.29492e-08
6.73567e-10
2.22756e-08
-2.79115e-08
2.13508e-08
6.56071e-09
8.79158e-10
-4.10254e-10
-2.34181e-08
-9.05038e-11
5.14581e-10
-6.00171e-09
-1.8333e-08
1.99343e-08
4.40036e-09
-4.23903e-08
2.52608e-09
3.98643e-08
3.57076e-08
-4.83162e-08
-8.46503e-09
5.67813e-08
-2.52084e-09
-5.64591e-09
8.16674e-09
-4.57738e-09
4.42753e-08
6.00169e-08
-6.45943e-08
5.50207e-08
-5.79193e-09
-4.4613e-08
5.18693e-09
-5.21369e-09
4.46398e-08
-1.52551e-08
-1.99327e-10
1.54544e-08
-1.91973e-08
5.92424e-08
-4.00451e-08
2.25593e-07
6.22194e-09
-2.31815e-07
2.14935e-07
4.52939e-08
-3.09376e-08
-1.43563e-08
1.6597e-15
-1.58039e-10
5.75647e-10
-1.28868e-09
6.99668e-09
2.95969e-08
-2.41154e-09
-2.71854e-08
-1.11261e-08
2.82668e-08
1.24562e-08
-3.40468e-08
1.95675e-08
1.44793e-08
3.89035e-09
-8.52547e-10
-4.32647e-09
4.77491e-08
-1.28342e-08
-3.49149e-08
-4.24767e-08
3.72345e-09
-2.41665e-09
5.01658e-08
2.25065e-09
-3.32619e-08
3.38986e-08
-6.36697e-10
1.9771e-08
-2.09608e-08
1.18975e-09
3.08039e-08
-8.3352e-10
-3.01864e-08
2.15968e-10
2.46061e-08
-2.44628e-08
-4.06813e-10
2.63506e-10
4.19935e-08
-4.39157e-08
-1.79583e-10
1.59761e-09
-1.41803e-09
-1.55321e-09
-1.20813e-12
1.55443e-09
-2.11042e-09
2.02496e-09
-4.26986e-08
4.3663e-08
1.24311e-08
2.50737e-09
-4.57649e-08
4.32575e-08
5.82716e-08
-8.26775e-09
-5.00039e-08
3.85134e-08
1.65073e-08
-3.71083e-08
3.68197e-08
5.3199e-09
-5.03127e-09
2.29223e-09
4.29122e-08
-4.52044e-08
-3.61121e-09
8.09418e-08
6.6713e-09
-7.14776e-09
4.80205e-08
-4.09578e-09
-1.43207e-06
1.43616e-06
1.67696e-08
2.53529e-08
-4.21225e-08
1.44364e-09
-4.29982e-08
4.29639e-08
-2.58496e-09
2.57596e-09
-4.39748e-08
-4.21352e-08
-9.56806e-09
4.24151e-08
9.28822e-09
-4.399e-08
1.85484e-09
-4.93163e-08
1.65205e-09
4.76642e-08
3.08311e-08
-3.02069e-08
7.43268e-10
-1.36745e-09
1.16387e-09
-1.14182e-10
-2.57421e-08
2.71495e-08
-1.40729e-09
-1.64159e-09
5.22278e-08
-3.68474e-08
-1.53804e-08
3.70511e-09
3.06794e-08
-3.43845e-08
3.07294e-08
-3.23186e-08
1.58919e-09
1.22132e-09
3.18477e-08
6.20024e-09
-7.76651e-09
-4.54908e-08
4.70571e-08
-3.34867e-08
3.9687e-08
-1.22836e-07
1.89453e-09
3.71762e-08
4.11626e-09
-3.61838e-08
-5.10873e-09
3.68951e-09
3.40673e-08
-2.28462e-08
-4.0637e-08
5.20489e-08
-1.14119e-08
1.24559e-08
-2.51621e-08
1.27062e-08
-1.46027e-08
1.3898e-08
1.29629e-08
-1.30555e-08
1.2799e-08
-1.27064e-08
4.20357e-11
-4.95363e-10
-1.29282e-09
9.77167e-10
-1.08752e-10
4.24417e-10
-1.21993e-08
-1.52748e-08
3.93137e-08
4.55932e-08
-6.20202e-09
5.7366e-09
-4.51277e-08
-1.30968e-08
3.50676e-08
-3.51004e-08
-1.29187e-07
1.26719e-07
2.4671e-09
-3.05364e-08
4.83955e-09
9.28557e-09
-1.40727e-10
-9.32287e-09
1.78042e-10
-5.29922e-08
1.90077e-08
-2.02732e-08
5.42576e-08
-3.94108e-08
-1.26911e-07
1.20668e-07
4.56538e-08
-6.85211e-09
6.08981e-08
-1.52576e-07
-1.39494e-08
1.58932e-07
-9.34876e-11
-2.14802e-09
2.24151e-09
-9.72907e-09
1.02735e-10
9.71177e-09
-9.67598e-09
-5.11461e-11
-1.94131e-12
-2.91031e-08
-5.03296e-09
3.41361e-08
-8.03115e-11
-5.12045e-09
5.13735e-08
-4.62531e-08
-3.63585e-08
4.19706e-08
-5.61204e-09
9.88997e-11
3.3513e-08
-3.36119e-08
4.01559e-07
-4.06964e-07
5.40426e-09
7.20286e-09
-3.56821e-08
-7.87934e-09
-2.14214e-10
2.14211e-10
4.72623e-09
3.72443e-08
-2.43224e-10
2.90072e-11
-3.38371e-08
5.75312e-10
-2.28503e-08
3.74668e-08
-3.90327e-08
-4.29336e-08
-4.06354e-08
4.2932e-08
-1.84061e-08
6.5692e-10
-2.45808e-09
2.75009e-09
-5.3524e-10
1.89985e-10
-1.89989e-10
-5.40603e-11
-7.3642e-09
7.21528e-09
-6.38075e-09
5.80955e-09
-3.12387e-08
2.45773e-09
-2.27418e-10
-2.23031e-09
4.81132e-08
-7.76038e-09
-4.82718e-08
7.91902e-09
-8.08358e-09
1.65659e-08
-1.26318e-10
8.65653e-10
-2.30881e-08
2.17046e-08
-4.20864e-09
-2.10408e-08
3.54487e-09
-4.21414e-08
1.66541e-09
3.32465e-08
-3.33174e-08
1.68404e-08
-4.14161e-08
4.28827e-08
-1.46662e-09
-9.07796e-09
9.08243e-09
6.26418e-11
-2.26168e-08
-3.86613e-08
6.22254e-08
-3.86646e-08
-2.35614e-08
-4.12893e-08
-9.47927e-09
5.12567e-08
-6.16451e-08
1.03875e-08
-2.91802e-10
-1.20191e-07
1.20483e-07
-1.52318e-07
-2.57925e-10
5.54672e-08
-5.38868e-08
-1.3068e-08
5.43583e-09
6.19983e-08
-6.74341e-08
-1.45148e-08
3.57319e-08
-2.12172e-08
-1.46782e-08
-3.92077e-08
5.99742e-09
3.34071e-08
-3.94045e-08
4.00459e-08
-4.03961e-08
2.18658e-09
7.46211e-11
-4.12929e-10
-4.15839e-09
1.13563e-10
-2.00164e-11
1.30276e-08
-1.35089e-08
3.02565e-09
1.06801e-08
-1.74655e-08
4.32945e-08
-4.16519e-08
-1.64262e-09
1.22018e-07
-1.61429e-07
-5.63762e-08
5.4388e-08
1.9882e-09
4.542e-08
3.25212e-09
-3.37825e-09
4.90723e-10
-1.63428e-07
9.0735e-09
-4.2692e-08
3.36185e-08
4.35844e-09
5.68024e-10
-4.92646e-09
3.72428e-08
8.8007e-09
-3.697e-08
-4.10989e-09
-6.02741e-11
1.17683e-11
1.58232e-08
-1.6802e-08
-8.17545e-09
-1.50992e-06
1.52523e-06
-1.53153e-08
3.20353e-08
-3.18242e-08
-1.29098e-08
1.26987e-08
3.92925e-08
-4.83296e-09
-3.44596e-08
-4.01181e-08
-1.67685e-08
4.21214e-08
-3.77674e-08
7.75644e-09
-7.82439e-09
3.78354e-08
-4.12277e-09
-4.97896e-08
5.39125e-08
1.01796e-10
-8.93692e-09
8.82346e-09
-2.3901e-08
2.93484e-08
-5.4474e-09
1.80767e-08
-1.69095e-08
1.64148e-08
-4.51585e-09
4.02123e-09
-2.34064e-08
2.46303e-08
4.71811e-09
6.27653e-09
-6.74145e-09
2.22767e-08
-1.85264e-08
2.83704e-08
-3.28862e-08
1.50681e-08
-1.4091e-08
-1.5492e-08
-1.40724e-08
-1.10121e-07
9.2446e-08
1.76753e-08
-2.6561e-09
3.05141e-09
-2.2708e-09
1.58787e-08
-2.59243e-08
1.00456e-08
2.86302e-08
-5.70728e-09
6.60847e-10
2.79694e-08
-4.94586e-08
4.94349e-08
1.11732e-09
-1.09364e-09
1.47312e-10
-9.85578e-10
1.42526e-09
-5.86988e-10
-1.15483e-07
-7.35346e-09
-4.17468e-10
7.86011e-10
-1.11677e-07
6.91734e-08
-5.94066e-08
-9.76684e-09
1.06737e-10
-2.45408e-08
2.81167e-08
-1.50531e-08
-1.30636e-08
3.59561e-08
-1.38425e-08
-2.21136e-08
1.15316e-09
3.42741e-08
2.68085e-08
-6.194e-08
3.51315e-08
-5.65607e-08
7.58834e-08
-1.93227e-08
-4.07133e-08
-1.22638e-08
2.4104e-08
-1.18402e-08
5.18423e-08
2.97628e-09
-2.7696e-09
2.2773e-08
2.06934e-08
-4.34664e-08
-3.86855e-08
2.92715e-08
9.41405e-09
4.16131e-08
8.15578e-09
-1.0082e-08
-5.02808e-08
8.22223e-10
1.67802e-09
-1.60417e-09
-7.38409e-11
3.56361e-08
7.69363e-09
-4.33297e-08
4.5108e-08
7.09624e-10
-4.58176e-08
2.16902e-10
4.51966e-08
-3.0552e-10
1.2621e-10
-7.44305e-12
3.05036e-12
-1.21808e-10
4.89897e-08
9.07273e-09
-1.22185e-08
1.21506e-08
3.68391e-08
5.85287e-08
-4.9456e-08
-2.46728e-08
9.61708e-09
-1.14232e-08
6.13491e-08
9.33018e-09
-4.55734e-08
3.53146e-08
1.02587e-08
1.32847e-09
1.27449e-10
-8.30182e-10
-6.25755e-10
-4.88665e-08
4.90835e-08
1.18284e-10
1.20314e-11
-3.07832e-11
3.41898e-10
-3.1112e-10
2.09588e-07
-2.0324e-07
-7.46233e-09
-1.62437e-09
1.78409e-09
5.72846e-10
-4.87298e-08
-5.45952e-10
-8.27399e-11
6.28687e-10
-4.58227e-08
3.04118e-08
1.37088e-08
4.01736e-08
-5.38823e-08
3.11371e-08
4.64706e-09
-3.57841e-08
1.66479e-07
-1.70166e-07
-5.65726e-10
4.58747e-08
-7.38779e-09
-3.84869e-08
-3.72078e-08
3.26783e-08
4.52952e-09
2.39959e-11
2.16986e-09
3.45501e-08
4.33981e-09
-3.53747e-08
-5.29812e-08
8.14513e-10
5.21668e-08
4.06984e-08
-4.30793e-08
2.38091e-09
-1.10807e-08
-4.38209e-08
4.44193e-08
1.04823e-08
-2.17794e-09
4.55458e-10
-3.41898e-10
-1.08561e-09
-3.54971e-11
-2.12466e-08
2.62104e-08
-3.87745e-08
-8.6066e-09
3.84445e-08
8.93661e-09
4.37933e-08
-3.7344e-08
-6.44929e-09
2.24924e-09
4.36886e-08
-4.42709e-08
8.67723e-09
3.29359e-08
-2.43451e-08
4.2726e-08
2.31735e-08
-4.15544e-08
-3.06348e-08
-1.18667e-08
4.25014e-08
-3.55649e-08
-1.62079e-08
5.17723e-08
-5.46564e-08
1.90911e-08
-7.95401e-09
-9.17122e-09
1.71252e-08
-9.63703e-09
1.11784e-08
-9.49542e-09
1.18905e-09
-5.06564e-09
-5.29469e-09
4.03666e-08
-4.18777e-08
-2.51748e-08
9.88482e-09
-8.44798e-09
2.57633e-09
-2.57633e-09
3.31608e-08
8.64465e-09
-4.18055e-08
-4.67646e-08
6.73657e-10
4.60909e-08
-9.98865e-09
-3.72316e-08
2.02925e-09
4.20217e-08
-4.40509e-08
-1.83097e-08
-4.14277e-08
1.4189e-08
2.42017e-08
-2.31901e-08
3.08651e-08
-3.18767e-08
-4.72848e-08
-1.05611e-08
9.97455e-09
2.87301e-08
-1.34835e-09
4.68276e-10
-8.71817e-10
3.68743e-08
-8.24429e-09
-3.4582e-08
-6.4977e-09
4.10797e-08
1.26386e-10
-2.21972e-09
2.67078e-08
-1.62437e-09
1.98783e-08
8.81039e-10
-2.07594e-08
-4.88118e-08
3.41336e-08
5.55551e-08
-1.63832e-09
-5.45568e-08
6.40048e-10
4.89847e-08
-4.18895e-08
9.15219e-09
3.21022e-08
-3.17325e-08
-9.52195e-09
-5.06962e-10
5.06957e-10
-3.14493e-08
-1.60774e-08
4.75263e-08
-4.96391e-08
4.70541e-08
-6.63513e-09
7.40209e-09
3.56862e-08
-3.63256e-08
-4.04215e-09
4.68158e-09
1.18473e-06
-4.53949e-09
-4.03273e-08
3.62763e-09
4.12391e-08
-2.30828e-08
1.70811e-08
-3.10193e-09
1.96765e-09
-4.44391e-08
-2.34875e-08
-1.71601e-08
2.76974e-08
-4.42397e-08
1.65423e-08
-2.34886e-08
2.76985e-08
4.9164e-08
-7.03175e-09
-1.56265e-08
-7.45634e-09
-3.41528e-09
2.05405e-08
1.21385e-08
1.53455e-08
-2.7484e-08
2.83251e-08
-5.47156e-08
2.63905e-08
3.80171e-10
-5.52572e-08
-1.25324e-08
1.3361e-08
1.31454e-08
-1.9138e-08
1.80984e-08
4.46463e-08
-4.36068e-08
3.72114e-08
-3.07664e-09
-3.41348e-08
-8.83861e-11
4.7143e-09
-4.65473e-09
2.88465e-11
-1.32483e-08
1.79403e-08
-4.692e-09
3.60264e-08
-1.85252e-08
1.8455e-08
-2.51964e-10
4.14232e-09
1.13123e-09
2.58594e-08
-2.61097e-08
-8.74087e-09
8.82116e-09
-1.41881e-10
6.16032e-11
1.36325e-08
2.31963e-08
-2.89421e-08
2.33572e-09
-2.23391e-09
-6.57838e-08
3.86909e-08
1.6758e-09
3.39175e-08
-4.49982e-08
4.3082e-08
4.05346e-08
-4.45562e-08
4.89981e-08
7.92584e-09
-7.70307e-08
2.02753e-08
5.67553e-08
5.30157e-08
-6.86769e-10
-1.52857e-09
-4.03492e-08
-9.83259e-09
-4.09758e-08
3.93965e-08
-2.90245e-10
4.46045e-08
-4.40144e-08
-2.99859e-10
-4.55837e-08
1.16583e-09
4.44179e-08
7.32322e-09
6.59118e-08
-7.32351e-08
1.62117e-07
-1.58075e-09
-1.53213e-07
-4.13111e-08
1.69349e-09
3.96176e-08
1.52628e-07
1.3851e-08
-2.57292e-08
-1.72527e-08
4.29817e-08
5.94105e-09
4.44549e-08
-4.43017e-08
-6.09418e-09
-3.79819e-08
-6.63102e-09
-3.91746e-08
4.90884e-08
-9.9138e-09
4.41755e-08
-4.69273e-08
-1.00752e-08
-4.5764e-08
6.46909e-09
3.92949e-08
-4.6329e-08
1.1023e-09
4.52267e-08
5.55179e-08
-5.77786e-08
2.26073e-09
1.03042e-08
-1.08305e-08
9.80626e-09
1.81053e-08
-4.06474e-10
-1.35321e-08
1.39386e-08
2.65385e-08
-2.10349e-08
-2.71022e-08
-1.77012e-08
4.09902e-08
-5.90398e-09
-3.50862e-08
-1.64132e-08
1.57058e-08
-3.20981e-08
3.28055e-08
4.09016e-08
-2.8433e-08
2.63494e-08
-3.88179e-08
-5.83457e-09
8.89135e-09
-2.99263e-08
9.04448e-08
-4.72198e-08
3.98605e-08
1.38627e-09
-1.75014e-08
8.69152e-09
-4.45109e-08
-1.07282e-09
3.00599e-09
3.09919e-08
-3.19686e-08
-5.53544e-09
-3.68809e-08
4.24164e-08
-5.34486e-08
5.55423e-08
2.27613e-08
9.21866e-10
-9.98978e-09
3.94124e-11
1.69987e-10
9.78038e-09
5.34766e-08
-2.67292e-08
2.96529e-08
-5.64002e-08
8.6178e-09
-3.80666e-09
-4.81112e-09
-1.34928e-09
-2.99649e-11
1.37924e-09
1.78265e-10
7.43453e-09
-7.61148e-09
-1.32205e-12
-1.17101e-09
7.24922e-09
1.55342e-10
-2.83075e-08
1.25473e-08
1.57602e-08
1.33091e-08
-3.05572e-08
1.72481e-08
3.54971e-10
1.08656e-10
-2.64517e-08
-1.63238e-09
2.77232e-08
-2.80926e-08
3.69421e-10
3.26605e-08
-5.17985e-08
-4.39983e-08
4.91853e-08
3.31863e-08
-1.15173e-08
1.17727e-08
2.04411e-08
-2.06965e-08
1.30376e-08
5.03981e-08
-6.34357e-08
4.99499e-08
-4.2747e-08
-4.67237e-08
3.92668e-08
7.45696e-09
-2.16003e-09
2.25649e-09
-5.30777e-08
2.66347e-08
3.54142e-09
-4.24865e-09
-3.94479e-08
4.36965e-08
1.37683e-08
-5.16423e-08
-1.30461e-08
5.092e-08
-2.78978e-08
4.67903e-08
-1.88926e-08
5.7618e-08
-3.19714e-08
3.42946e-08
-6.04489e-08
2.61536e-08
3.97502e-09
2.72289e-08
-4.56924e-09
-3.5006e-08
3.01283e-08
-3.37844e-08
3.65607e-09
3.74825e-10
-4.44305e-10
4.44308e-10
1.63003e-10
-8.06507e-11
-1.2013e-08
-6.59321e-09
-6.94784e-11
1.14875e-10
-1.56696e-09