/*--------------------------------*- C++ -*----------------------------------*\
| =========                 |                                                 |
| \\      /  F ield         | OpenFOAM: The Open Source CFD Toolbox           |
|  \\    /   O peration     | Version:  v2006                                 |
|   \\  /    A nd           | Website:  www.openfoam.com                      |
|    \\/     M anipulation  |                                                 |
\*---------------------------------------------------------------------------*/
FoamFile
{
    version     2.0;
    format      ascii;
    class       surfaceScalarField;
    location    "0.01";
    object      phi;
}
// * * * * * * * * * * * * * * * * * * * * * * * * * * * * * * * * * * * * * //

dimensions      [0 3 -1 0 0 0 0];
oriented        oriented;


internalField   nonuniform List<scalar> 
5866
(
-2.27569e-07
7.02366e-09
2.20545e-07
2.64533e-08
-2.41725e-08
-1.28545e-08
1.05736e-08
-5.11467e-09
-1.96443e-08
2.4759e-08
7.1613e-09
-7.03388e-09
-1.27512e-10
-3.07019e-08
-3.98862e-08
7.05883e-08
1.18837e-07
-5.97835e-08
-5.90527e-08
4.94414e-08
-5.20397e-08
2.59825e-09
-1.1278e-07
1.2532e-07
-1.25401e-08
-3.04336e-09
-1.3441e-09
9.08131e-09
-4.69399e-09
3.80703e-10
-1.98591e-10
-1.82037e-10
-1.54855e-08
1.23432e-08
-6.28604e-09
9.42796e-09
2.08566e-07
-8.41626e-10
-1.97072e-07
-1.06576e-08
-4.87812e-07
-2.42651e-08
5.12076e-07
-4.66668e-07
-2.11438e-08
-9.31263e-08
8.59538e-08
7.17203e-09
4.22401e-07
9.86534e-08
-3.44691e-08
8.33036e-09
-1.40323e-08
4.01708e-08
6.8391e-09
-1.18675e-08
5.02856e-09
1.74715e-07
-1.63384e-08
4.10213e-08
2.50087e-09
-2.27564e-09
-1.04142e-08
1.01891e-08
2.79726e-09
-4.9219e-10
-2.30504e-09
3.53359e-09
9.37761e-09
-1.29111e-08
-1.99371e-08
1.90635e-09
1.80306e-08
2.5722e-08
-2.32523e-08
-2.46976e-09
2.40545e-08
1.36934e-09
-4.347e-09
-2.10769e-08
2.22246e-08
4.44182e-10
3.05316e-09
-1.72956e-08
1.6887e-08
4.08696e-10
-8.60686e-09
8.47791e-09
1.29121e-10
1.82553e-08
1.96623e-09
-1.91688e-08
-1.05261e-09
-1.78975e-09
1.86167e-09
-7.19766e-11
5.21698e-10
-5.21748e-10
9.48017e-10
9.91886e-09
-1.08669e-08
-2.01655e-09
-2.92268e-09
3.12203e-09
1.81706e-09
4.08487e-09
-3.8184e-09
-2.66539e-10
-1.79689e-08
2.65761e-09
1.53111e-08
2.31251e-08
-1.35609e-08
-9.56433e-09
-6.82927e-09
-5.65622e-10
7.39483e-09
3.00555e-09
-1.80976e-09
-5.30952e-10
-6.6498e-10
4.57736e-09
-2.02784e-09
-2.41662e-09
-1.3305e-10
-2.94296e-07
-9.16858e-08
3.85982e-07
-1.36815e-09
2.02853e-09
-3.37125e-09
2.71072e-09
2.65176e-08
-2.45079e-08
1.88169e-08
2.24729e-07
-2.43545e-07
-3.56539e-09
2.73566e-09
8.298e-10
-2.39492e-08
3.03976e-08
-6.44855e-09
2.17014e-07
-1.85343e-07
-1.28534e-08
-4.03233e-08
3.35292e-09
3.69704e-08
1.8555e-09
-2.1815e-10
-2.60398e-08
2.43055e-07
-9.56071e-08
2.06117e-08
-1.50512e-09
-1.93633e-08
2.56719e-10
-7.86062e-09
2.3771e-08
-1.59105e-08
1.20993e-09
-1.20999e-09
-1.64497e-10
2.55502e-09
-2.90234e-10
-2.10042e-09
4.90087e-09
-1.32185e-09
2.89607e-09
-6.47525e-09
-3.10746e-09
-8.60732e-09
7.80847e-09
3.90673e-09
-5.5454e-09
-1.55117e-08
7.44602e-09
1.36109e-08
5.01895e-09
-2.05572e-07
2.00552e-07
2.70732e-08
-2.7302e-08
2.2876e-10
2.61476e-08
9.25654e-10
5.5026e-07
-5.5026e-07
-1.82698e-07
1.95606e-07
-1.29077e-08
-1.02298e-08
6.88922e-09
3.34062e-09
5.31159e-10
-5.312e-10
1.51513e-07
-2.30138e-07
7.86246e-08
-1.05593e-08
1.99395e-07
-1.88835e-07
2.57585e-09
1.96487e-08
-3.20108e-08
-1.045e-08
4.24606e-08
8.62284e-11
1.00141e-08
-1.01004e-08
-4.48437e-10
2.49916e-10
1.98591e-10
1.98206e-07
2.41683e-08
-2.22374e-07
9.60845e-09
6.64097e-08
-7.60182e-08
1.68883e-09
4.90538e-08
-4.73788e-08
-3.36395e-09
-6.53837e-10
4.89261e-10
1.85631e-08
-3.41371e-08
1.55738e-08
6.72362e-08
-6.2104e-08
-5.13237e-09
8.0295e-08
-6.48427e-08
-2.60118e-08
1.89139e-09
-4.99263e-10
-6.19816e-10
-7.72479e-10
-2.48738e-10
-9.49627e-11
3.43781e-10
7.44211e-08
5.87395e-09
4.84582e-08
-2.37038e-08
3.67103e-08
-6.14641e-08
-1.57971e-08
-2.46268e-07
4.17054e-08
2.20361e-07
-1.97025e-07
-6.71362e-08
2.64164e-07
2.81738e-11
-2.37546e-08
2.19945e-08
1.73198e-09
-1.61347e-08
-1.07494e-08
2.68842e-08
-4.88015e-09
7.46424e-10
5.31636e-09
-1.18276e-09
-4.13881e-08
-5.15178e-08
9.29059e-08
2.41832e-09
-1.02272e-09
-1.86911e-08
-1.44824e-08
-1.39704e-09
1.74309e-08
-1.55132e-09
8.13153e-09
-8.13153e-09
1.74347e-08
-1.25186e-09
-1.61547e-08
-4.50804e-09
3.98441e-09
5.23479e-10
-4.07724e-09
5.04582e-09
9.75125e-11
-1.06593e-09
2.14806e-08
-2.79746e-09
-1.86833e-08
2.77983e-08
-2.87378e-08
3.05017e-08
-2.95622e-08
-1.95741e-08
2.11176e-08
-2.4118e-08
2.04334e-08
3.6847e-09
-6.48246e-09
6.48246e-09
1.10382e-10
-3.43439e-09
-1.73173e-09
5.05585e-09
6.9915e-09
7.18333e-09
-8.53759e-09
-5.63738e-09
4.9445e-09
-4.23618e-09
2.79726e-09
7.37024e-09
-6.07357e-09
1.94708e-08
-2.07674e-08
-6.8943e-09
1.23733e-08
-5.47913e-09
7.78956e-10
-5.36133e-11
1.18985e-09
-1.91506e-09
-9.51658e-10
-2.2664e-08
2.36155e-08
-2.85538e-10
-2.59179e-09
2.87718e-09
-3.55303e-08
-4.06855e-09
3.95988e-08
3.64384e-07
-3.61139e-07
-3.23382e-09
2.2701e-08
-2.34671e-08
7.65978e-10
1.36603e-09
3.41201e-10
8.93372e-09
-1.06411e-08
6.99116e-09
3.00337e-09
-7.18093e-09
-2.81373e-09
1.99471e-09
3.3765e-09
-5.37133e-09
1.45487e-08
-6.68927e-09
-7.85963e-09
7.38226e-09
-1.23554e-08
4.97303e-09
-2.75392e-09
3.78372e-09
-1.02995e-09
-6.24628e-08
5.59729e-08
6.48991e-09
9.04412e-10
-6.14992e-09
1.65144e-10
5.08022e-09
1.88295e-09
-5.45623e-09
-1.94236e-09
5.51546e-09
-1.85484e-09
1.8548e-09
1.38468e-07
-1.77857e-08
-1.20682e-07
4.57333e-08
3.82483e-08
-4.13092e-08
-4.26723e-08
1.84703e-08
1.91759e-09
-9.47851e-10
-1.94402e-08
2.92736e-10
8.19638e-10
-1.11244e-09
1.54745e-08
-1.86751e-07
1.71276e-07
1.87159e-07
6.0242e-09
-1.93184e-07
9.65189e-09
1.92982e-07
5.04386e-07
-4.98362e-07
-6.73804e-09
1.74474e-08
-1.07095e-08
5.14038e-07
-1.09547e-08
7.56911e-09
-1.84091e-10
3.56942e-09
-3.81276e-10
-6.29066e-09
6.672e-09
5.34027e-07
5.76745e-09
-5.39794e-07
-9.58786e-09
9.5878e-09
4.47198e-09
3.46182e-09
-7.93374e-09
3.96266e-07
1.33242e-08
-6.07746e-08
-3.48814e-07
-2.00435e-08
4.16309e-07
-4.43367e-09
6.25134e-10
3.80862e-09
1.93952e-09
-1.30874e-08
1.45101e-08
-3.36209e-09
-7.65601e-09
7.27578e-09
3.80273e-10
1.51049e-09
-1.45786e-08
1.26869e-08
-3.33405e-10
-4.10022e-09
3.70256e-08
-4.03649e-08
3.79298e-08
-3.45905e-08
6.62147e-10
2.88565e-08
-2.95187e-08
4.79881e-09
-5.24379e-09
1.11684e-10
3.20768e-08
-6.03808e-10
2.56109e-09
-3.40341e-08
4.51895e-09
-6.38374e-09
1.86492e-09
5.55511e-09
-4.62392e-09
-9.31261e-10
-1.75041e-09
5.63748e-09
-3.88724e-09
1.66656e-09
7.98853e-09
-8.28916e-09
-4.02081e-09
8.5476e-09
-4.52667e-09
-1.30406e-08
-4.67376e-09
1.77142e-08
6.54853e-09
-1.09175e-09
-5.45667e-09
4.14964e-09
-1.27667e-08
8.61708e-09
4.58847e-09
1.03288e-08
-7.03415e-09
-7.88323e-09
-3.57588e-09
3.74854e-08
-3.39096e-08
1.69953e-08
-1.81837e-08
1.18828e-09
3.34634e-09
-1.18367e-09
-8.35269e-09
6.18989e-09
-4.23146e-11
4.72953e-10
-4.3057e-10
8.81459e-09
-3.71273e-09
-5.10172e-09
2.47022e-09
5.69693e-09
-8.16728e-09
7.39531e-09
-3.34703e-09
-4.0484e-09
-2.3205e-07
1.66678e-08
-1.21882e-08
2.87504e-09
-3.57048e-09
-2.88274e-09
3.57797e-09
5.73445e-10
2.3481e-08
2.25392e-10
8.55588e-10
-1.23666e-10
-9.57421e-10
-1.65334e-08
1.55401e-08
1.56657e-09
-1.13881e-08
9.99756e-10
1.03884e-08
-1.17873e-09
4.95739e-09
-3.77881e-09
-1.22922e-08
1.31438e-08
-5.85965e-09
5.00789e-09
1.54258e-09
2.19383e-08
3.51859e-09
1.59204e-09
-5.11077e-09
1.96003e-08
-5.34534e-08
3.3853e-08
3.45603e-10
6.60421e-10
8.69867e-10
-1.87609e-09
1.66404e-09
-1.13265e-09
4.39019e-09
-4.92175e-09
1.27922e-08
1.19967e-08
-2.4789e-08
1.89372e-08
-1.27468e-07
1.28131e-07
1.01841e-07
4.07498e-08
-1.4259e-07
-2.18862e-08
2.5884e-08
3.84862e-09
-7.84656e-09
-4.8762e-10
3.95566e-11
-2.30597e-09
1.37095e-07
-1.18158e-07
-4.2358e-10
2.58819e-09
7.8399e-10
-2.94875e-09
2.29527e-09
2.14995e-09
-5.91079e-09
1.46536e-09
-7.85283e-09
-1.01011e-09
8.86282e-09
2.31651e-08
-8.71874e-09
-1.44465e-08
1.46235e-10
-8.3057e-11
-6.32618e-11
-1.34077e-09
-5.48854e-09
5.67508e-09
5.39252e-09
1.73908e-09
-3.56744e-09
1.82847e-09
2.73664e-09
-1.53648e-09
-1.20024e-09
3.6165e-08
4.17875e-08
-3.58234e-08
-4.21292e-08
-1.29598e-10
1.29654e-10
-6.79943e-10
6.80001e-10
-2.12562e-09
6.33677e-09
-4.2112e-09
-7.65399e-09
4.97737e-09
2.67678e-09
-1.12047e-09
4.1386e-07
-4.12739e-07
7.80854e-09
-1.04831e-08
9.44122e-09
-6.76685e-09
-6.69282e-09
-1.98274e-09
8.67539e-09
1.87221e-08
-6.86519e-09
-2.21427e-08
1.02855e-08
-1.62927e-08
1.12519e-08
2.94422e-08
-2.44016e-08
2.38049e-08
-1.39206e-08
-9.88432e-09
5.50237e-09
-1.25292e-08
7.02673e-09
2.17294e-08
-2.14829e-08
-2.27041e-08
2.24602e-08
1.45377e-08
-3.21116e-08
3.74531e-08
-1.98784e-08
-2.25453e-07
2.17912e-07
7.54153e-09
8.10137e-08
2.89803e-08
-1.09994e-07
1.05593e-07
-2.15041e-07
1.09448e-07
1.39853e-07
-2.87813e-07
1.4796e-07
2.71046e-09
-2.22193e-09
-1.20181e-09
7.13467e-10
3.80764e-08
-4.80603e-07
4.42528e-07
2.63576e-07
-2.31249e-07
-3.71683e-08
4.84193e-09
-3.95217e-09
-1.9284e-09
2.07841e-09
3.80234e-09
2.4013e-10
-4.19221e-09
-4.45823e-09
4.45828e-09
3.66307e-09
-9.52534e-10
-7.72952e-09
-6.88854e-08
7.66149e-08
4.07353e-08
-4.06355e-08
9.66338e-09
-9.76331e-09
-3.85977e-08
-7.18085e-10
3.93157e-08
-3.87534e-08
-5.60491e-08
9.90176e-09
1.35128e-08
-2.34146e-08
8.92184e-09
6.12698e-09
-6.9368e-09
-8.11209e-09
-1.32783e-08
1.22884e-08
9.89844e-10
5.61057e-09
-8.654e-09
2.47914e-09
7.58079e-11
-3.69478e-09
3.04087e-09
1.08202e-08
-1.28183e-08
1.99798e-09
-3.44355e-10
9.1799e-09
-8.8356e-09
6.3948e-09
-2.66555e-09
-3.7292e-09
9.90969e-09
-9.90969e-09
-4.82798e-10
-5.9152e-09
-6.03297e-09
4.29437e-09
6.95169e-09
3.7465e-09
-1.06983e-08
3.01642e-09
-1.42726e-09
-2.76487e-09
1.17576e-09
-1.8382e-08
-7.26174e-09
9.82636e-09
1.58173e-08
-5.98271e-08
6.44623e-08
-4.63564e-09
2.39085e-08
-1.58659e-08
-8.04264e-09
-9.01518e-09
-9.16174e-09
1.81768e-08
6.88306e-10
1.45242e-09
-2.99761e-08
2.78353e-08
7.13708e-09
-2.0727e-09
-5.0645e-09
6.45601e-09
-4.53753e-09
1.09796e-09
-9.8434e-09
9.42453e-10
6.80531e-09
2.09542e-09
3.47566e-09
7.62166e-09
-1.10974e-08
1.27796e-08
-1.09232e-08
5.52574e-09
1.50135e-08
-9.00888e-09
-6.00468e-09
-1.57329e-09
-4.55609e-08
4.71341e-08
-5.21266e-09
5.20276e-09
9.83438e-12
-1.31616e-08
1.76494e-08
-4.48798e-09
8.78636e-09
-2.67984e-09
-6.10632e-09
-6.12815e-10
9.60659e-09
3.50131e-09
-1.24953e-08
3.96676e-09
6.42768e-09
-1.60792e-09
-4.89803e-09
8.8649e-09
-2.78812e-09
-1.06708e-08
4.18223e-10
1.43897e-08
-1.71779e-08
4.68342e-09
1.83539e-08
-2.30375e-08
8.31995e-09
-9.24697e-10
-1.66012e-09
1.86795e-09
1.09247e-08
-1.09247e-08
5.86442e-10
-7.0689e-09
8.5648e-09
-1.29343e-08
1.24672e-08
-8.09792e-09
-7.26402e-09
7.26402e-09
1.34512e-09
1.99368e-09
-2.06992e-09
-1.26905e-09
1.9954e-09
-1.99537e-09
5.6591e-09
-1.97256e-08
7.99637e-08
-6.58964e-08
-5.71306e-08
2.31847e-07
1.30884e-08
6.30889e-09
-1.93974e-08
-2.2082e-08
1.43275e-08
7.75442e-09
-5.66062e-09
5.25897e-09
6.93019e-09
-6.52868e-09
-2.77212e-08
2.25874e-09
2.54624e-08
1.44538e-08
2.40864e-11
-6.3679e-10
-1.38413e-08
-2.65877e-07
1.71688e-07
1.22335e-07
-2.81462e-08
2.62767e-08
-1.19403e-07
-4.80084e-08
8.64911e-08
7.11156e-08
-1.09599e-07
1.29676e-08
9.51409e-09
-2.24817e-08
3.03797e-09
3.86451e-08
-4.16832e-08
3.63445e-08
-7.03051e-09
-2.93141e-08
-1.36976e-08
-5.85209e-09
1.05343e-08
-1.23988e-08
6.60438e-08
-8.16907e-09
5.03532e-09
3.13368e-09
2.05872e-07
5.86172e-09
-2.11733e-07
-1.25853e-07
1.30721e-08
2.22391e-08
-2.87658e-08
4.91926e-09
1.6073e-09
-1.17993e-08
2.33817e-09
9.46098e-09
-3.68036e-08
1.0749e-08
2.60548e-08
-1.20091e-09
5.02658e-09
-3.82578e-09
-3.00469e-08
-2.98338e-08
5.9881e-08
-2.13257e-08
1.14785e-07
-1.36618e-07
1.98207e-08
2.01302e-09
-1.12427e-07
-2.98014e-08
1.37849e-07
4.38146e-09
5.86956e-09
-4.62676e-09
-6.8108e-09
5.56783e-09
-2.04756e-09
2.25828e-09
-2.10879e-10
2.69801e-08
-8.25802e-09
-1.36905e-07
2.44776e-08
-1.23027e-08
1.00074e-08
2.29557e-09
-7.83713e-10
3.8233e-09
-3.03945e-09
-2.21197e-08
-2.34352e-10
9.57678e-09
-9.34246e-09
-3.06297e-10
-1.85122e-08
-2.90558e-10
1.9109e-08
-4.92325e-07
-1.37577e-08
5.06082e-07
-3.33941e-10
-1.14427e-10
-6.2625e-09
6.26253e-09
1.56139e-09
6.66461e-09
-8.13989e-09
-6.22501e-09
1.12283e-09
5.10205e-09
7.56672e-10
1.0241e-08
-1.09978e-08
-9.01368e-09
3.4107e-08
-2.50933e-08
-2.24325e-08
2.31207e-08
2.91148e-09
-5.31579e-08
5.02464e-08
3.47421e-09
-2.08251e-09
-1.39184e-09
8.19503e-09
-5.32012e-09
-3.8801e-09
3.45639e-09
9.53827e-10
1.14106e-09
-2.86604e-09
1.58337e-08
-2.13867e-08
1.11028e-08
1.02839e-08
1.01405e-08
-2.32569e-08
-8.27033e-09
3.05203e-08
-4.44047e-08
1.38846e-08
-3.03854e-09
1.22424e-08
-9.204e-09
2.7384e-09
-3.04596e-08
-2.42129e-08
2.32769e-08
9.3588e-10
4.25216e-09
-9.1266e-10
1.36922e-08
-5.26551e-08
5.07296e-08
-5.80393e-09
4.67743e-07
-4.46426e-07
-2.13172e-08
-5.2269e-09
7.29968e-09
2.93745e-08
-3.14473e-08
7.19727e-09
4.72503e-09
-1.19222e-08
-5.7586e-09
-4.47111e-09
-2.38685e-09
-6.9607e-09
9.34759e-09
-5.38989e-09
-2.53131e-08
3.0703e-08
-1.4132e-09
1.04502e-08
-1.30576e-08
2.3846e-08
1.12526e-08
-3.50986e-08
-2.45078e-09
-6.29999e-09
8.75083e-09
9.98104e-09
5.57999e-08
-6.5781e-08
-1.3896e-09
5.61791e-09
-4.99616e-09
7.6767e-10
-9.12709e-09
4.12039e-08
-1.02562e-08
-1.86011e-08
2.88572e-08
-4.48911e-08
3.98366e-08
4.38713e-08
-3.88169e-08
6.95067e-09
-5.99697e-09
-2.80502e-09
-1.97941e-09
4.78433e-09
-7.79328e-09
6.11854e-09
1.67462e-09
-5.67037e-09
-5.37234e-09
8.40124e-09
1.83971e-09
1.38067e-09
2.74828e-08
-4.29683e-08
2.86387e-09
-5.03881e-10
-2.36011e-09
-2.72577e-09
5.53742e-09
-2.8118e-09
-3.88014e-08
7.27525e-08
-3.39509e-08
8.92028e-09
1.69308e-08
-6.46521e-08
1.27099e-07
-9.1164e-09
-1.17983e-07
-1.04152e-07
1.67139e-07
6.41125e-08
-6.86915e-08
7.10332e-09
6.15885e-08
-5.4187e-07
5.46889e-07
-1.92062e-08
-1.08143e-07
1.27349e-07
1.18499e-08
-2.34716e-08
-1.08108e-08
2.36974e-08
1.89584e-09
3.25347e-10
-2.59188e-08
-4.33936e-09
3.89587e-09
3.82103e-08
-3.7767e-08
8.85795e-09
-3.34693e-08
2.46113e-08
3.98486e-08
-4.0387e-08
4.06246e-08
-4.00864e-08
-4.19943e-09
4.4048e-08
-3.58938e-09
-4.90022e-08
4.83921e-08
-5.64474e-10
2.42618e-08
-1.34192e-08
3.15594e-09
1.02633e-08
-6.70847e-09
-6.04033e-09
5.45999e-09
7.28912e-09
-3.3823e-08
3.49327e-08
3.64753e-08
-3.75851e-08
1.50004e-08
-7.63011e-09
-8.87514e-09
9.26844e-09
-3.9339e-10
-4.1299e-09
1.60288e-08
-1.18989e-08
-2.04949e-09
-6.82571e-09
2.7517e-09
4.29816e-08
8.43146e-08
-4.01206e-08
5.76476e-08
-5.14582e-08
4.11307e-08
1.03275e-08
1.60293e-10
-1.57414e-08
1.5581e-08
-4.83749e-08
4.07002e-08
-4.37836e-08
-4.56232e-08
-1.25883e-08
-4.96071e-09
3.01459e-09
1.88033e-08
-3.34765e-09
2.70205e-09
-4.65064e-09
2.17385e-09
8.06712e-09
2.19477e-09
-5.0775e-09
-5.18394e-09
5.9696e-09
2.6803e-09
-8.64948e-09
4.50582e-08
-2.31021e-08
6.0608e-09
1.70414e-08
4.51203e-09
4.48273e-08
-4.93394e-08
1.84307e-08
-5.05422e-08
-2.67851e-08
1.04925e-08
1.32817e-09
1.37379e-09
2.04664e-08
-1.50758e-08
4.08743e-09
-9.47811e-09
-6.72397e-09
5.11656e-11
6.67268e-09
1.12286e-08
-2.07657e-08
2.68564e-08
-1.73195e-08
1.67257e-09
-5.31672e-09
3.64408e-09
3.84205e-09
-5.28323e-09
1.06257e-08
-9.18472e-09
4.39226e-09
2.07016e-08
-2.50939e-08
-6.53524e-10
2.56926e-09
-5.83575e-09
5.18213e-09
-8.91635e-10
-1.90331e-09
-8.36447e-10
9.13465e-10
-7.7157e-11
1.28174e-09
-2.59502e-08
2.46685e-08
-7.37447e-09
1.74627e-08
-1.00883e-08
-4.6145e-09
3.46646e-09
-6.77373e-08
-4.98389e-09
-1.34331e-08
1.8417e-08
2.94309e-09
-9.87057e-10
9.4432e-11
-2.05058e-09
1.30839e-09
-1.30844e-09
1.00167e-08
1.08106e-09
-1.10977e-08
-6.88749e-09
-6.43283e-09
1.33204e-08
-5.38942e-09
2.70963e-09
-2.93311e-08
1.31392e-08
-1.32391e-08
-6.78751e-09
-7.59899e-09
2.45292e-07
-2.31831e-07
-1.23611e-08
-6.59509e-09
6.98656e-09
1.19695e-08
1.48776e-08
1.29054e-08
-2.77831e-08
3.46508e-08
-1.97733e-08
-3.33323e-09
1.11417e-08
1.56878e-08
1.95174e-09
-1.76396e-08
9.74009e-09
-2.21013e-08
1.3248e-07
-2.46567e-08
-1.07823e-07
5.33734e-09
-4.55937e-08
4.02562e-08
-7.28125e-09
-7.29565e-09
-3.24923e-09
-3.95835e-09
-1.23467e-08
1.40192e-08
3.527e-09
-1.11176e-08
7.59078e-09
5.7168e-09
-6.00249e-09
-1.85106e-08
1.66146e-08
1.70083e-09
1.95188e-10
-4.5747e-08
4.11325e-08
8.87441e-09
-5.15373e-09
1.19864e-08
-6.83286e-09
-3.20008e-09
-7.37463e-09
1.23912e-08
-1.81656e-09
-1.44462e-07
2.60082e-08
1.18454e-07
5.40235e-09
-5.4024e-09
6.96729e-09
1.96496e-09
-8.9321e-09
-2.65622e-08
-2.64993e-08
5.30619e-08
6.63506e-10
-1.02374e-08
9.5738e-09
-6.06313e-09
5.25086e-09
8.12159e-10
5.27637e-09
-6.51369e-09
1.23758e-09
2.84082e-08
-2.60458e-07
2.08753e-08
-7.99043e-08
-8.54341e-08
-9.63843e-09
6.06786e-09
-8.85447e-09
1.48074e-08
-7.31299e-09
-1.40497e-08
6.55523e-09
-5.35153e-08
-8.03257e-08
1.33841e-07
4.00635e-08
7.01624e-09
3.82744e-08
-1.42426e-07
3.00617e-10
-3.00577e-10
-5.59965e-10
-1.33355e-09
1.89363e-09
5.18896e-10
-9.05568e-10
3.86543e-10
9.9598e-09
-1.31599e-08
9.50271e-09
-1.22446e-07
1.12944e-07
1.5503e-09
-2.18544e-10
2.79151e-10
-1.61077e-09
8.03151e-09
-8.03151e-09
-4.9806e-09
2.03175e-09
-1.00687e-08
1.00687e-08
1.03022e-08
-1.03022e-08
3.81547e-10
-2.25058e-08
2.30526e-08
-9.28381e-10
-2.36815e-08
4.29119e-10
1.0863e-09
-1.4894e-09
4.03033e-10
2.80309e-08
-3.729e-09
3.49795e-07
-7.27621e-08
-2.77033e-07
6.18658e-09
-2.79701e-09
1.39305e-07
-1.98528e-07
5.9222e-08
1.36747e-09
2.02519e-09
-3.39279e-09
-1.07685e-09
-6.92375e-10
3.1366e-09
8.37846e-10
-4.75273e-10
3.1115e-09
2.50165e-08
-4.66668e-07
9.63805e-09
-3.15243e-08
-2.21135e-08
1.05917e-07
-7.67847e-08
2.11815e-08
6.02389e-09
-1.75674e-08
2.81998e-08
-2.67474e-08
-2.20484e-08
3.39847e-08
-1.19364e-08
1.53834e-08
-2.2938e-08
-1.72355e-08
2.47901e-08
-1.98796e-08
3.52629e-08
2.90758e-08
2.22952e-08
-5.13711e-08
-9.51637e-10
2.02173e-09
5.32475e-09
1.14317e-08
-2.14754e-08
-1.20048e-08
-2.58506e-08
2.7612e-08
8.13407e-09
-2.44157e-08
2.30215e-09
-1.29339e-07
4.82537e-09
1.24513e-07
1.07748e-07
-2.67345e-08
-7.55166e-08
1.44532e-07
-6.90153e-08
1.52904e-07
-1.5797e-07
3.10736e-08
1.04896e-07
-4.41082e-08
-7.8298e-10
-4.93257e-08
6.1981e-08
-1.26554e-08
-1.03714e-08
-4.3082e-08
4.45543e-08
-1.9746e-08
-2.48081e-08
-4.90461e-09
-3.54604e-08
-2.60231e-10
3.97045e-10
9.32211e-10
-1.0689e-09
4.09228e-08
-1.08623e-09
-7.12324e-10
1.12436e-09
-4.11974e-10
-2.02021e-08
1.7649e-10
1.98282e-08
1.97328e-10
-2.32545e-08
1.09913e-09
2.21552e-08
4.11105e-09
-2.44778e-09
-1.66338e-09
1.67935e-09
-7.44957e-10
-2.4189e-08
-1.52447e-10
4.45132e-10
3.41151e-09
7.15514e-09
-8.15422e-09
-2.41256e-09
-4.03384e-08
-7.6682e-10
4.11052e-08
3.89667e-08
4.54158e-09
-1.32884e-08
8.74667e-09
1.48925e-08
2.13375e-08
-3.62297e-08
1.78028e-08
-4.73148e-08
-1.59068e-08
3.37097e-08
6.67143e-09
1.97818e-08
-3.89081e-08
-2.10016e-08
2.00966e-08
3.98129e-08
-2.09728e-08
-1.18358e-09
2.21564e-08
-1.49558e-08
1.19397e-08
3.01595e-09
2.12241e-07
3.52501e-08
-2.47491e-07
2.50319e-07
1.22953e-07
-8.30295e-08
-3.9923e-08
3.35369e-14
-4.71997e-10
3.4243e-09
-8.35868e-10
5.63475e-09
1.13393e-08
-5.48916e-09
-5.84991e-09
-5.79625e-09
1.0037e-08
7.0986e-09
-1.27012e-08
6.25668e-09
6.4447e-09
3.4064e-09
-3.07129e-10
-3.93498e-09
3.87364e-08
-2.57172e-09
-3.61647e-08
-2.92429e-08
1.08609e-08
-5.51829e-09
4.42547e-08
1.02912e-08
-3.07544e-08
3.38307e-08
-3.07624e-09
2.53288e-08
-2.95593e-08
4.23052e-09
1.19902e-08
-2.68253e-09
-1.05321e-08
1.22435e-09
1.34583e-08
-1.43086e-08
-8.49315e-10
1.69949e-09
3.96774e-09
-5.35746e-09
-1.58026e-09
3.13769e-09
-1.55748e-09
-4.2811e-09
5.90288e-10
3.69089e-09
-9.16393e-09
7.91209e-09
-4.47812e-09
1.44636e-09
-3.70647e-09
2.17846e-07
-6.81459e-08
-1.49701e-07
6.63922e-09
-1.24372e-08
5.79786e-09
3.41573e-08
-2.7486e-08
-6.50437e-08
6.84533e-08
-5.31977e-08
4.97879e-08
3.35178e-09
5.14161e-10
-3.86608e-09
-1.015e-09
1.52527e-07
-3.71459e-09
5.20589e-09
-9.28468e-09
5.52335e-10
-5.44164e-07
5.43612e-07
-1.5552e-08
3.28507e-09
1.22669e-08
-1.33701e-08
-1.57752e-08
1.88891e-08
1.75182e-08
-1.87007e-08
-1.86971e-08
-3.63442e-08
1.47371e-08
3.66532e-08
-1.50463e-08
-2.36349e-08
-1.27094e-08
6.75448e-09
2.24173e-08
-2.91718e-08
1.26248e-08
-9.40573e-09
-1.37941e-09
-1.83978e-09
3.34756e-10
1.96371e-10
-1.21817e-08
1.59664e-08
-3.78462e-09
-7.65954e-09
1.05738e-08
2.879e-08
-3.93638e-08
5.65658e-09
-9.40286e-09
3.74614e-09
-3.43957e-09
3.02854e-09
4.1087e-10
1.08627e-09
-5.58007e-10
2.19966e-07
-1.83506e-07
-1.72615e-07
1.36155e-07
9.23689e-08
1.27597e-07
1.23038e-07
-3.87225e-08
2.16402e-07
2.91025e-07
-1.93307e-07
-3.14119e-07
3.08771e-07
-1.3207e-09
-5.54452e-09
-4.06337e-08
2.97671e-08
1.08666e-08
-5.3895e-09
4.47098e-09
9.18434e-10
2.17165e-10
3.6617e-09
2.89818e-10
4.31793e-09
-7.53645e-09
2.92854e-09
9.38786e-12
-7.21662e-10
-3.02308e-09
1.88256e-09
-1.56953e-10
1.29758e-09
4.76078e-09
-1.42313e-08
-8.87072e-09
-3.00678e-07
3.43894e-07
-2.81769e-07
2.38554e-07
-1.03485e-08
7.35685e-09
-4.66434e-09
1.14464e-07
-1.41351e-07
2.68867e-08
-3.58855e-09
8.399e-09
1.92808e-08
4.47047e-10
-1.94615e-08
-2.6654e-10
-1.43232e-08
9.6098e-08
-8.39608e-08
2.18598e-09
3.03643e-10
7.30568e-08
-6.04356e-08
-1.29262e-08
4.17018e-08
-3.04499e-08
1.25479e-07
-3.35537e-08
-1.21972e-07
3.32104e-10
-1.04698e-08
1.01376e-08
-2.03974e-08
-1.44345e-09
2.14964e-08
-1.94048e-08
-9.19834e-10
-7.28338e-11
-5.99379e-09
-5.92734e-09
1.19212e-08
-5.89221e-10
-1.14867e-08
3.77942e-09
7.70712e-09
-4.1809e-09
1.47655e-09
2.70425e-09
1.19478e-10
2.06587e-08
-2.07783e-08
3.02269e-07
-2.81695e-07
-2.05723e-08
1.29392e-09
-6.62223e-10
-4.8127e-09
3.005e-10
-3.00541e-10
-2.69268e-10
1.74574e-09
1.863e-09
-1.56254e-09
-3.55774e-08
4.82298e-09
-5.74423e-09
2.19436e-08
-2.15893e-08
-4.23971e-08
-3.30871e-08
3.48505e-08
-2.51309e-08
1.37623e-09
8.22821e-10
-2.73457e-09
3.77464e-09
-1.09673e-09
1.09667e-09
-4.91611e-10
-1.51762e-08
1.28018e-08
-6.04949e-09
6.20864e-09
-3.50627e-09
6.8026e-09
5.92159e-10
-7.39483e-09
2.90116e-08
-1.77135e-08
-2.86899e-08
1.73919e-08
6.78444e-08
-9.76457e-08
3.61631e-10
-2.15141e-09
-1.51641e-08
6.92579e-09
-6.33157e-09
-5.04754e-09
4.45312e-09
-3.40437e-08
2.20678e-10
8.4748e-09
-5.77437e-09
-1.82525e-08
-3.30199e-08
3.41714e-08
-1.15154e-09
-2.17421e-08
2.23176e-08
3.72463e-10
1.95008e-07
-1.66027e-07
1.28613e-07
1.18017e-07
-2.4663e-07
-3.40022e-08
-8.14476e-09
-7.02998e-08
-4.79902e-08
1.1829e-07
-2.03191e-08
6.18586e-08
-4.15389e-08
1.43403e-07
-1.7923e-08
-2.90288e-08
4.88177e-08
-1.23132e-07
5.35593e-09
-6.43437e-08
5.89875e-08
1.79787e-09
6.11329e-09
-7.91124e-09
1.89227e-08
-1.01714e-10
1.25101e-07
1.01734e-08
-1.35274e-07
1.877e-08
-1.33672e-08
-3.86028e-09
-3.44567e-09
-4.9116e-09
-4.27192e-12
3.90416e-10
4.69349e-10
3.60073e-09
-2.25573e-09
-3.26103e-09
-1.38968e-09
1.3793e-09
4.51874e-08
-4.59769e-08
7.8946e-10
1.78651e-07
-1.78347e-07
5.17328e-09
-3.45415e-09
-1.71922e-09
1.05295e-07
5.07458e-08
-3.3088e-08
-6.8166e-09
2.15383e-07
-1.64097e-07
6.93499e-08
9.47472e-08
2.79397e-09
5.18348e-10
-3.31228e-09
-7.15645e-08
-1.5822e-07
6.56871e-08
8.74971e-10
-5.57042e-10
-3.2229e-10
5.86986e-09
-4.86541e-09
-4.71711e-09
-5.42449e-07
5.39906e-07
2.54325e-09
-7.63215e-09
2.44952e-09
-2.46434e-09
7.64678e-09
2.33101e-09
-3.15091e-08
2.91781e-08
9.02164e-10
1.25459e-08
-9.26086e-09
-3.97087e-08
1.12804e-08
-1.08069e-08
3.92351e-08
6.23808e-09
-6.09293e-08
5.46911e-08
-1.62059e-10
-1.95304e-08
2.03559e-08
1.97389e-09
-7.0084e-09
5.03444e-09
-9.13963e-09
3.01206e-08
-4.7542e-08
1.16072e-08
-9.29323e-09
-3.40161e-10
-4.51549e-09
-2.49297e-09
-2.24456e-09
5.92853e-10
5.56168e-09
-3.64296e-09
3.45009e-09
8.15698e-09
-2.2503e-08
1.51647e-08
9.13615e-09
4.47711e-09
1.25846e-07
-1.17586e-07
-8.25971e-09
-2.21112e-09
2.34198e-09
-6.13536e-10
9.4073e-09
-8.72207e-09
-6.85049e-10
2.32948e-09
6.15496e-09
6.09439e-09
-3.76498e-09
-1.04471e-08
1.04313e-08
5.5551e-09
-5.53941e-09
1.63529e-10
-1.82278e-09
2.14168e-09
-4.82316e-10
4.88381e-08
7.41996e-08
-5.10943e-08
-8.76851e-09
3.0498e-08
-8.97704e-09
2.67673e-08
-1.77902e-08
-1.08468e-08
1.94116e-08
-1.97134e-08
2.25906e-08
-2.87726e-09
2.01501e-09
-1.84868e-08
1.64719e-08
3.39384e-09
1.70813e-09
2.00848e-09
1.08893e-08
-1.28977e-08
2.87161e-08
-1.51206e-08
-1.35954e-08
-3.76331e-08
1.20911e-08
-7.78184e-09
-4.30934e-09
2.91733e-08
1.4388e-08
-1.37942e-08
-3.30223e-09
1.19677e-08
-8.66543e-09
-2.44159e-08
-4.68163e-09
2.90975e-08
1.34682e-07
2.24702e-07
-2.31787e-07
2.98849e-10
-1.0746e-08
5.38197e-09
-5.54225e-09
1.60323e-10
1.69556e-08
2.94488e-08
-4.64043e-08
8.42964e-09
2.43298e-09
-1.08627e-08
6.56269e-09
7.2659e-09
-5.39905e-09
1.05904e-09
-6.41681e-11
-3.71606e-10
-6.23114e-10
1.28117e-07
1.64855e-07
-1.8738e-07
1.4627e-07
-1.81526e-08
4.42264e-08
1.20629e-07
-9.2348e-09
8.32983e-09
-5.98942e-09
8.28297e-08
1.07667e-07
1.04526e-08
-1.90687e-08
8.61602e-09
2.54759e-10
8.57101e-11
2.10595e-09
-2.44656e-09
-1.15508e-08
1.81134e-08
7.31642e-10
-6.4871e-12
1.32102e-09
1.25067e-09
-2.57178e-09
2.52755e-07
-2.49416e-07
-4.47972e-09
-3.15076e-09
4.05514e-09
5.21624e-10
-9.63948e-09
-1.51734e-09
-6.89933e-11
1.58626e-09
-4.14685e-08
3.62416e-08
8.48508e-09
4.66219e-08
-5.51071e-08
1.03334e-07
-1.82897e-07
7.95628e-08
2.39721e-07
-2.23053e-07
-1.36475e-09
3.24168e-08
-2.25676e-08
-9.84925e-09
3.38037e-07
-5.20888e-08
-2.85948e-07
-5.57757e-11
4.14059e-09
3.63447e-09
3.03217e-08
-1.011e-08
-3.45845e-08
-2.59281e-08
6.05125e-08
4.26947e-08
-3.32469e-08
-9.4479e-09
-7.49222e-09
-6.62511e-08
6.68764e-08
6.86679e-09
-3.81842e-09
1.64104e-09
-1.25067e-09
2.3932e-09
-1.87154e-09
-4.30175e-09
7.82889e-09
4.4781e-09
-1.97537e-08
-4.70772e-09
1.99834e-08
1.74591e-08
-4.85258e-09
-1.26064e-08
3.66499e-09
3.39715e-08
-3.31245e-08
2.33329e-07
-9.8647e-08
-5.07825e-08
-5.61284e-09
4.86156e-08
7.77972e-09
-1.4969e-08
3.81883e-08
-2.32191e-08
2.52664e-08
-1.18703e-07
9.34374e-08
-1.24541e-07
1.49808e-07
1.0444e-08
1.83847e-08
-2.88288e-08
2.25239e-08
-2.06821e-08
8.60215e-09
-1.24572e-08
2.96057e-09
2.78812e-08
3.78854e-08
-3.65473e-08
-8.37917e-09
6.96608e-09
1.00667e-08
5.76224e-09
-5.76229e-09
9.75834e-08
-1.98335e-07
1.00751e-07
-1.29465e-09
1.51564e-09
-2.21173e-10
5.60146e-08
3.04764e-08
-4.13817e-09
2.05179e-08
-1.63797e-08
-3.0308e-08
-1.36913e-08
3.16968e-08
-2.03662e-08
1.89557e-08
2.65159e-09
-1.24121e-09
-1.34339e-08
2.83826e-08
-2.53987e-08
1.7165e-08
-2.71135e-09
2.40556e-09
-2.38491e-09
2.60211e-08
1.77726e-09
-3.82063e-08
-8.69328e-09
4.68996e-08
9.05718e-10
-1.22938e-08
2.43804e-08
-3.15078e-09
2.36096e-09
1.63075e-09
-3.9918e-09
1.45473e-08
4.37536e-09
-7.79079e-09
-9.95575e-09
8.28128e-09
9.46512e-09
4.22638e-09
-1.28339e-09
2.93722e-09
-4.03178e-09
2.22647e-10
8.71736e-10
1.41327e-09
-1.41334e-09
6.67649e-08
-1.77365e-07
1.10601e-07
-2.56516e-08
4.31697e-08
-4.22938e-08
5.02356e-08
8.11529e-09
-9.80904e-09
-6.82804e-09
8.52186e-09
4.67743e-07
-2.16051e-07
-2.85398e-07
2.19276e-07
2.82173e-07
1.11167e-08
-7.70526e-09
-3.32193e-09
6.15288e-09
7.62151e-09
4.26502e-09
1.05423e-08
-1.38646e-08
1.49371e-08
-1.07258e-09
1.1594e-09
-1.07591e-08
-6.50941e-08
2.63121e-09
1.09762e-08
1.40419e-10
-9.27332e-09
-1.95555e-08
-3.45292e-09
-4.32152e-09
7.77436e-09
6.55676e-09
1.05915e-08
-1.71483e-08
1.53688e-08
-4.14031e-09
3.07841e-09
-6.55243e-09
-6.44289e-10
-9.45885e-09
5.05066e-09
-1.1855e-08
1.6263e-08
-1.70281e-08
1.53546e-08
1.6734e-09
-8.06871e-10
6.91294e-09
-5.53807e-09
-5.67912e-10
-1.41157e-08
1.82368e-08
-4.12099e-09
6.21376e-10
-2.52155e-08
2.66092e-08
5.58884e-10
2.84759e-09
-1.79613e-09
2.24909e-08
-2.16465e-08
-1.90212e-08
1.94051e-08
-1.13621e-09
7.52202e-10
9.34001e-09
4.04399e-09
-7.15127e-09
1.01728e-08
-1.03349e-08
-4.81414e-08
2.5286e-08
1.25994e-08
4.44015e-08
-5.18938e-08
3.13053e-08
4.00148e-08
-3.38347e-08
1.83251e-09
3.72246e-08
8.43947e-09
1.5179e-08
-2.36184e-08
-2.94664e-09
1.18684e-08
-8.83027e-09
-2.7717e-08
1.27926e-08
-2.17104e-08
1.97845e-08
1.17215e-08
2.62147e-09
-4.96009e-09
-9.3831e-09
-2.20234e-08
-7.2987e-09
2.9322e-08
1.52745e-09
-7.02568e-08
6.87297e-08
-1.86669e-07
-1.30265e-08
2.01231e-07
-4.94907e-08
3.71546e-09
4.57752e-08
2.14408e-07
2.53135e-08
3.828e-08
-1.30014e-08
-2.52785e-08
-4.83731e-08
-2.87176e-08
2.61098e-08
5.09807e-08
-1.49875e-08
-2.39206e-08
-3.83066e-08
1.78269e-08
2.04795e-08
4.2402e-08
-6.23718e-09
1.75745e-08
-8.70793e-09
2.19381e-08
-1.32303e-08
-1.32118e-09
2.98218e-08
-2.85007e-08
7.74535e-09
3.80625e-08
-4.58079e-08
4.84456e-08
8.95566e-09
-7.62678e-09
-9.03423e-09
3.53444e-10
-1.06347e-08
1.02814e-08
-1.8758e-08
7.01764e-09
2.25605e-08
-3.82095e-09
4.83821e-08
6.97748e-08
-1.18157e-07
-1.55958e-10
-6.17723e-11
-5.86966e-08
5.89142e-08
8.47273e-08
2.76832e-08
-3.81485e-08
-7.42621e-08
4.33391e-08
-8.0381e-09
1.50557e-08
6.3252e-08
5.55844e-08
1.56844e-08
3.98089e-10
5.70293e-10
-1.24294e-08
-2.79382e-08
5.91474e-09
-2.01539e-09
7.49548e-09
-9.61824e-09
-1.52578e-08
-3.9756e-08
5.50137e-08
-1.203e-07
1.38588e-07
1.58899e-08
-3.49826e-10
-1.16539e-08
-2.95924e-10
6.99469e-10
1.12503e-08
5.13205e-08
5.17823e-09
-4.43077e-09
-5.20681e-08
4.63513e-09
-2.43339e-09
-2.20168e-09
-1.55418e-09
6.17988e-10
9.36147e-10
2.6069e-10
2.55819e-09
-2.50958e-09
-3.09394e-10
-1.2935e-09
2.87563e-09
3.00503e-10
5.62756e-09
-2.52933e-09
-3.09835e-09
-5.0261e-09
1.2094e-08
-7.06803e-09
-1.51296e-09
-1.42023e-10
1.77485e-08
-1.39065e-08
-5.81654e-09
8.89084e-09
-3.07443e-09
-1.5768e-08
6.30909e-09
-4.31303e-08
2.21286e-08
3.86442e-08
9.42541e-09
-1.23899e-08
4.24187e-09
-1.2775e-09
1.3794e-08
-2.15086e-08
7.71454e-09
2.60694e-09
-1.31311e-09
9.28342e-09
-1.08926e-08
1.60905e-09
1.12286e-08
-1.5924e-08
-2.98892e-08
-7.04563e-10
-2.10053e-09
-5.57211e-09
3.23e-10
5.24897e-09
-2.45594e-08
6.2045e-08
3.85776e-08
-7.60632e-08
1.32078e-07
-2.84862e-08
-1.03592e-07
1.71888e-07
-1.62386e-07
1.07627e-07
-5.691e-08
-5.07171e-08
-1.38698e-09
-2.942e-09
3.6243e-09
1.05848e-08
2.33281e-09
-1.64699e-09
-6.85972e-10
4.6416e-10
-8.94315e-10
8.94349e-10
7.40859e-10
2.40772e-10
-5.67142e-09
-4.21675e-09
-4.30134e-10
-7.63277e-10
-2.75136e-09
3.51471e-09
2.07936e-09