/*--------------------------------*- C++ -*----------------------------------*\
| =========                 |                                                 |
| \\      /  F ield         | OpenFOAM: The Open Source CFD Toolbox           |
|  \\    /   O peration     | Version:  v2006                                 |
|   \\  /    A nd           | Website:  www.openfoam.com                      |
|    \\/     M anipulation  |                                                 |
\*---------------------------------------------------------------------------*/
FoamFile
{
    version     2.0;
    format      ascii;
    class       surfaceScalarField;
    location    "0.01";
    object      phi;
}
// * * * * * * * * * * * * * * * * * * * * * * * * * * * * * * * * * * * * * //

dimensions      [0 3 -1 0 0 0 0];
oriented        oriented;


internalField   nonuniform List<scalar> 
5866
(
-2.98502e-07
2.26468e-08
2.75856e-07
4.93061e-08
-4.89081e-08
-1.21007e-08
1.17027e-08
7.82473e-08
-1.07572e-07
2.93243e-08
-1.36739e-09
1.60766e-09
-2.40272e-10
3.70873e-08
3.26286e-09
-4.03502e-08
3.28525e-08
3.95822e-08
-7.24345e-08
-4.13791e-08
1.03641e-08
3.1015e-08
4.8104e-08
-3.08377e-08
-1.72663e-08
1.50246e-08
-1.31249e-08
8.14703e-09
-1.00468e-08
-1.10329e-11
2.29459e-11
-1.19105e-11
1.41942e-08
-1.99034e-08
-1.54471e-08
2.11559e-08
-9.01404e-07
-9.48699e-09
9.09558e-07
1.33119e-09
-1.35036e-06
-7.80036e-09
1.35816e-06
-1.33454e-06
-1.58139e-08
-6.20523e-08
7.0991e-08
-8.93877e-09
1.90983e-08
5.33911e-08
2.68967e-07
-2.27004e-07
3.1374e-07
-3.55703e-07
1.12153e-08
-1.32821e-08
2.06686e-09
-4.39196e-08
-1.22543e-08
-3.95261e-09
9.61783e-10
-4.28549e-10
-1.06428e-08
1.01096e-08
7.98843e-10
1.23846e-10
-9.22673e-10
2.58601e-09
1.00041e-08
-1.25901e-08
-6.41563e-09
1.98659e-09
4.42902e-09
2.42617e-08
-1.98207e-08
-4.44101e-09
1.11661e-08
2.1793e-09
-3.70871e-09
-9.63669e-09
2.40554e-08
-2.52928e-09
2.73558e-09
-1.49335e-08
1.62004e-08
-1.26688e-09
-2.47499e-08
2.1887e-08
2.86293e-09
2.59743e-08
-3.50948e-10
-2.65444e-08
9.21111e-10
1.10664e-08
-3.27554e-10
-1.07388e-08
-9.60234e-09
9.60233e-09
-4.32946e-11
7.15795e-10
-6.72501e-10
-3.10102e-08
2.35976e-10
-7.44352e-10
3.15186e-08
-4.45829e-09
4.77267e-09
-3.14378e-10
-2.24409e-08
5.96929e-09
1.64717e-08
3.17618e-08
-2.67583e-08
-5.00358e-09
3.43444e-09
-5.65623e-10
-2.86883e-09
-2.65611e-08
2.61386e-08
2.91997e-10
1.30491e-10
-6.22073e-09
-2.77852e-08
5.84016e-09
2.81658e-08
-4.06794e-08
-2.30008e-09
4.29795e-08
8.881e-10
-2.15764e-09
3.27857e-08
-3.15161e-08
9.34381e-09
-3.00038e-08
-4.92261e-10
3.37965e-08
-3.33042e-08
-8.35187e-10
7.94472e-10
4.07293e-11
-3.79858e-08
3.80607e-08
-7.48453e-11
6.16021e-08
-5.35744e-08
-8.51995e-09
-3.25733e-08
-2.02024e-10
3.27753e-08
-2.62861e-08
6.13167e-10
2.78599e-09
5.88161e-08
-4.09692e-09
4.29055e-09
-3.99618e-10
-4.19833e-09
3.074e-10
-6.4412e-09
3.47591e-08
-2.83179e-08
1.04305e-08
-1.04305e-08
-1.23303e-08
-8.48909e-09
1.38627e-08
6.9568e-09
-1.37158e-08
-4.62104e-10
6.62602e-11
1.41117e-08
-5.50438e-09
-4.73254e-08
4.65988e-08
6.23107e-09
-8.91137e-09
-2.7874e-08
8.16455e-09
2.86208e-08
1.51795e-08
3.82856e-07
-3.98036e-07
1.95493e-08
-1.89778e-08
-5.71565e-10
1.87803e-08
7.69075e-10
1.52774e-06
-1.52774e-06
9.40614e-07
-9.07326e-07
-3.3288e-08
-2.19538e-08
7.41594e-09
1.4538e-08
-9.78523e-09
9.78523e-09
7.15205e-08
-7.5902e-08
4.38146e-09
-1.99602e-08
-8.93881e-07
9.13841e-07
3.36194e-09
2.06935e-08
1.61028e-08
-5.63864e-08
4.02836e-08
2.45375e-09
-2.54947e-08
2.30409e-08
6.09955e-11
-3.80466e-11
-2.29459e-11
4.4499e-07
9.40999e-10
-4.45931e-07
5.31299e-08
1.6161e-08
-6.92908e-08
-4.51411e-08
2.16341e-08
-2.24582e-08
4.59651e-08
-2.59656e-08
1.36352e-08
5.94683e-08
-6.87408e-08
9.27268e-09
6.87499e-09
-1.6009e-08
9.13399e-09
3.66854e-08
-2.9477e-08
-2.71685e-08
2.90959e-08
-2.94297e-08
-2.22922e-09
2.56307e-09
-1.81423e-11
1.97272e-11
-1.58165e-12
1.75876e-08
1.90978e-08
-3.2538e-08
-4.80756e-08
4.77367e-08
3.28769e-08
-9.15062e-09
-4.40336e-07
-1.28474e-08
4.62335e-07
-4.06649e-07
-4.11552e-08
4.47808e-07
1.68693e-10
-1.5238e-08
1.48535e-08
2.15826e-10
-2.85245e-08
-4.97453e-09
3.34991e-08
1.42674e-08
5.9565e-10
-1.30525e-08
-1.81054e-09
-4.33661e-08
-6.16231e-09
4.95284e-08
8.88146e-10
-4.37724e-10
-1.53839e-08
-6.04815e-09
-2.28636e-11
6.03827e-09
3.27756e-11
1.20493e-09
-1.20492e-09
6.25516e-09
2.67997e-11
-6.11325e-09
4.25684e-08
-9.92285e-10
-4.15761e-08
-2.0873e-09
2.19657e-09
-3.57482e-12
-1.05677e-10
4.48977e-09
9.06452e-10
-5.39624e-09
2.588e-08
-2.52773e-08
3.03234e-08
-3.09261e-08
-1.1371e-08
9.4451e-09
-1.86849e-08
1.86348e-08
5.00842e-11
-7.56078e-10
7.56083e-10
2.34221e-10
-2.06858e-09
-7.86974e-10
2.62136e-09
2.97592e-08
-1.6458e-09
-3.21084e-08
3.995e-09
1.2753e-10
-4.62043e-10
7.98846e-10
2.74827e-09
-2.04774e-09
3.19888e-08
-3.26892e-08
5.34771e-09
-5.67788e-10
-4.77993e-09
2.81598e-10
-5.12426e-11
2.20844e-10
-4.51187e-10
-1.12175e-09
-1.23311e-08
1.34528e-08
-4.70185e-10
3.85954e-08
-3.81252e-08
-3.64824e-08
-2.03933e-09
3.85217e-08
1.15446e-06
-1.11128e-06
-4.31648e-08
1.68078e-08
-1.52054e-08
-1.60235e-09
1.99791e-09
-2.31022e-09
-9.10797e-09
9.42027e-09
1.11714e-08
-6.04976e-09
6.59981e-09
-1.17215e-08
-3.0335e-09
-3.06004e-08
3.36339e-08
2.43815e-08
-5.7644e-09
-1.8617e-08
7.70915e-09
-2.15699e-08
1.38608e-08
-3.07527e-08
-2.21266e-09
3.29654e-08
1.01957e-07
2.05275e-08
-1.22484e-07
1.8593e-10
1.42538e-08
4.06197e-10
-1.48459e-08
1.09765e-08
-9.46548e-09
-3.3024e-08
3.1513e-08
1.10815e-08
-1.10815e-08
1.82965e-07
-1.52202e-07
-3.07632e-08
4.49827e-08
-4.79436e-08
-4.57655e-08
4.87263e-08
-2.07641e-10
2.06209e-10
-1.34319e-10
1.3574e-10
-8.34829e-09
8.07214e-09
2.76156e-10
-4.20331e-08
5.28553e-07
-4.8652e-07
-1.08155e-07
1.89083e-08
8.92462e-08
-8.67581e-10
-1.4932e-07
1.45127e-06
-1.43236e-06
-1.17047e-08
1.08051e-08
8.99637e-10
1.4504e-06
3.76956e-08
-3.85558e-08
3.83725e-10
4.76494e-10
5.08571e-12
-1.36898e-09
1.36391e-09
1.49783e-06
1.91041e-09
-1.49974e-06
3.86894e-10
-3.86897e-10
-2.32342e-08
3.3963e-08
-1.07287e-08
4.92312e-08
-1.45151e-09
-5.04397e-09
-4.27356e-08
-3.04398e-09
5.22752e-08
-7.413e-09
1.97424e-09
5.43879e-09
1.50588e-09
-1.75166e-08
1.71628e-08
-1.15203e-09
-1.28651e-08
-2.43303e-08
3.71955e-08
2.11958e-10
-5.82985e-09
5.623e-09
-5.61202e-10
-6.85179e-09
3.87968e-08
-3.81619e-08
3.72257e-08
-3.78606e-08
3.7129e-10
1.52738e-08
-1.56451e-08
4.94304e-09
-5.29196e-09
-2.12265e-10
3.84909e-08
7.98223e-10
-5.69377e-10
-3.87197e-08
9.05342e-09
-1.31867e-08
4.13331e-09
-5.30465e-09
5.5285e-09
-2.23851e-10
-6.22603e-09
-8.91759e-09
1.51436e-08
8.79999e-10
-1.15187e-08
1.26366e-08
-1.55157e-08
2.075e-08
-5.23426e-09
-1.50868e-08
-5.45163e-09
2.05384e-08
1.41409e-08
-2.88883e-09
-1.12521e-08
3.91441e-08
-7.98632e-09
-3.11577e-08
1.22286e-08
1.79713e-08
-1.33038e-08
-1.68961e-08
3.63148e-09
3.64341e-08
-4.00656e-08
7.46834e-09
-1.19916e-08
4.52328e-09
-2.13567e-08
-3.55041e-08
2.00805e-08
3.67803e-08
2.36902e-11
-6.04944e-11
3.68091e-11
2.57812e-08
-8.50599e-09
-1.72752e-08
1.4414e-08
4.82864e-09
-1.92426e-08
-1.62848e-08
2.26472e-08
-6.36232e-09
-3.04654e-07
-1.03426e-08
1.64938e-08
6.81204e-10
-3.30737e-08
-1.64625e-10
3.25571e-08
2.83306e-09
8.33301e-09
7.09994e-10
2.65486e-08
-3.45746e-11
-2.7224e-08
-2.87161e-09
4.27148e-09
1.43316e-09
-9.7979e-10
-1.07525e-10
1.08732e-09
-1.22142e-09
-3.304e-08
3.42614e-08
-2.46405e-08
2.28623e-08
-2.22793e-08
2.40575e-08
-2.65055e-09
1.09835e-08
1.44481e-08
1.80627e-08
-3.25108e-08
3.45851e-08
-6.13435e-08
2.67584e-08
3.39138e-08
-6.24938e-10
5.99374e-10
-3.38883e-08
1.21271e-09
-1.86599e-09
-2.69754e-08
2.76287e-08
-3.04893e-09
7.55749e-08
-7.25258e-08
3.48842e-08
-2.15622e-08
2.1263e-08
-7.26476e-08
5.98638e-08
1.27839e-08
-3.71347e-08
3.77324e-08
4.53284e-09
-5.13051e-09
-3.3876e-09
3.89579e-09
-3.12609e-08
5.07734e-08
-1.58892e-08
2.42075e-09
-3.18974e-08
3.0853e-08
-1.37638e-09
-3.35614e-08
6.49896e-10
3.41088e-08
-1.19726e-09
3.08198e-08
-1.4606e-08
-1.62138e-08
5.12374e-08
-7.38688e-08
2.26315e-08
-1.10002e-08
1.13678e-08
-3.676e-10
-1.93279e-10
3.62771e-09
1.28734e-08
1.0321e-08
1.54866e-09
-2.56109e-09
1.01244e-09
1.55355e-08
-2.55643e-08
1.00289e-08
1.81251e-08
4.42045e-08
-4.40212e-08
-1.83085e-08
-3.58164e-10
3.58168e-10
-3.95131e-11
3.95179e-11
-4.52422e-10
-2.34498e-09
2.79739e-09
-1.31865e-08
5.34852e-09
7.83805e-09
-1.89112e-09
1.27719e-06
-1.27529e-06
-1.53837e-08
2.14418e-08
-1.52983e-08
9.24015e-09
1.83846e-08
-9.78841e-09
-8.59617e-09
-1.0473e-09
-1.53329e-08
3.19515e-09
1.31847e-08
-4.21397e-07
3.66674e-07
4.26222e-07
-3.71498e-07
1.42974e-07
-1.08263e-07
-3.47108e-08
-1.01518e-08
-1.69571e-08
2.7109e-08
-8.50573e-08
-5.81696e-08
7.7214e-08
6.6013e-08
2.52896e-07
-3.13417e-07
1.87821e-07
-1.273e-07
-4.39279e-07
4.35119e-07
4.16057e-09
3.3516e-08
-6.04654e-08
2.69492e-08
5.03875e-08
-1.12184e-08
-3.91691e-08
4.76925e-09
4.11132e-08
-4.58825e-08
2.6974e-09
-3.13706e-09
-2.88251e-09
3.32219e-09
-1.22663e-08
-1.24971e-06
1.26198e-06
6.55436e-08
-5.79865e-08
-2.43868e-10
-7.3131e-09
-6.9827e-09
-4.45707e-10
8.82966e-10
6.54546e-09
-1.536e-09
-5.44668e-09
-1.14085e-09
1.14085e-09
3.49085e-09
-7.93446e-10
2.98514e-08
-5.76314e-08
2.77801e-08
4.46542e-08
-4.44323e-08
3.22854e-09
-3.45049e-09
-4.28314e-08
9.36042e-10
4.18954e-08
-6.06736e-08
5.69177e-08
2.497e-08
-3.07251e-08
5.75503e-09
3.47744e-08
1.42775e-08
-1.53701e-08
-3.36819e-08
-4.37175e-08
2.14652e-08
2.22522e-08
2.39589e-08
-8.93425e-09
-2.19729e-08
1.34838e-08
-2.47828e-08
-1.18276e-09
-1.72164e-08
-2.8261e-08
4.54775e-08
-1.95701e-10
-6.89625e-10
8.85322e-10
1.26777e-08
-2.83533e-09
-9.84237e-09
7.79173e-10
-7.79172e-10
-1.58839e-09
-1.13374e-08
-1.33638e-08
1.15147e-08
2.38753e-08
-1.64655e-08
-7.40975e-09
2.43067e-09
-1.27534e-09
-2.32406e-09
1.16877e-09
-3.88476e-08
5.86949e-09
-4.61876e-09
3.75969e-08
-7.17501e-08
8.01952e-08
-8.44515e-09
1.86068e-07
-5.8295e-08
-1.27773e-07
-6.88255e-09
-1.5079e-09
8.39045e-09
2.78995e-09
-3.02252e-09
-3.05567e-08
3.07892e-08
7.4102e-10
-6.51037e-09
5.76935e-09
4.25354e-09
-2.44354e-09
6.20702e-10
-1.48217e-08
-1.22271e-08
1.55623e-08
1.14866e-08
1.28623e-08
1.20286e-08
-2.4891e-08
1.67307e-08
-1.61123e-08
7.09074e-09
2.65258e-08
-3.90608e-08
1.2535e-08
-2.27228e-08
-4.22958e-08
6.50187e-08
1.74436e-09
-1.6334e-09
-1.10973e-10
-2.24641e-08
2.9867e-08
-7.40284e-09
2.4308e-08
-1.45094e-08
-9.79846e-09
4.91678e-09
1.56322e-08
-3.57623e-09
-1.69728e-08
7.2413e-09
2.3384e-08
-6.31729e-09
-2.05123e-08
2.77536e-08
-4.95629e-09
-1.39777e-08
3.84719e-09
2.1356e-08
-2.63123e-08
6.28045e-09
2.59221e-08
-3.22026e-08
-2.03043e-08
4.01953e-09
-4.85035e-09
5.88164e-09
1.25627e-09
-1.25627e-09
-2.96625e-11
-7.26409e-10
1.5712e-08
-4.50741e-08
3.81327e-08
-8.77055e-09
-8.77209e-10
8.77215e-10
7.36443e-10
-2.90454e-08
-6.52203e-10
2.89612e-08
5.3744e-10
-5.37432e-10
5.32549e-08
-1.00403e-07
2.82399e-07
-2.35251e-07
4.69489e-08
-9.08665e-08
2.36965e-08
2.06084e-08
-4.43049e-08
-5.83548e-08
-1.26628e-08
7.10178e-08
-8.68232e-10
3.14424e-08
6.17213e-09
-3.67462e-08
-1.45143e-07
1.08191e-07
3.69521e-08
-5.8547e-09
1.27439e-09
-2.53824e-09
7.11855e-09
-1.57277e-09
1.53281e-09
4.26101e-08
-4.25702e-08
9.04832e-09
-7.11007e-08
5.54651e-08
-5.64118e-08
1.81925e-08
-1.7246e-08
1.1794e-08
4.22151e-09
-1.60155e-08
-4.55296e-10
3.29618e-08
-3.25065e-08
4.15396e-08
-2.75209e-09
-3.87875e-08
-9.58048e-09
-8.35024e-09
1.10482e-08
8.77381e-09
7.67304e-09
-2.73623e-08
-7.10596e-09
3.44682e-08
-9.0678e-07
2.12387e-08
8.85541e-07
2.7356e-08
2.07478e-08
1.95438e-08
-2.05982e-08
-2.19648e-08
2.30191e-08
-2.8041e-08
2.97813e-09
2.50629e-08
4.47949e-08
-4.2269e-08
-2.52588e-09
-1.15256e-08
-2.05971e-08
3.21227e-08
-2.31286e-07
1.30659e-07
1.00627e-07
2.06893e-10
4.16174e-09
9.57036e-09
2.66902e-09
-1.64035e-08
-1.04339e-08
-4.20211e-09
1.73625e-08
-2.72905e-09
2.54895e-08
-2.38615e-08
-5.53392e-09
3.90596e-09
-1.46891e-09
2.5265e-08
-2.37961e-08
9.49339e-09
-1.05408e-08
-1.78514e-08
7.41755e-09
-4.5834e-08
1.956e-08
2.62739e-08
-4.33697e-10
3.81291e-09
-3.3792e-09
-1.369e-08
-2.6224e-10
6.02307e-10
-3.40069e-10
-9.57054e-10
-3.53329e-09
2.2289e-10
4.26745e-09
-1.24283e-06
4.4482e-09
1.23838e-06
4.05387e-11
2.04607e-11
-1.04066e-09
1.04067e-09
1.39193e-09
-2.42463e-08
2.53082e-08
1.8595e-08
-5.84853e-09
-1.27465e-08
-1.43825e-09
1.96259e-08
-1.81876e-08
-3.64937e-08
4.09521e-08
-4.45833e-09
-1.34098e-08
1.61998e-08
2.16521e-08
-5.87091e-08
3.7057e-08
3.97228e-08
1.54282e-09
-4.12656e-08
-2.85018e-08
2.9183e-08
2.88522e-08
-2.64314e-08
-3.88848e-09
2.17916e-09
-3.06281e-11
1.18246e-08
-7.84621e-08
-3.37277e-08
1.1219e-07
1.29659e-07
-7.70409e-08
-1.3108e-07
-1.0706e-07
-4.62857e-08
1.53345e-07
3.06225e-08
-3.78285e-08
7.20599e-09
-3.55046e-08
-1.09639e-07
-4.36109e-08
1.5006e-08
2.86048e-08
-3.06847e-08
6.04418e-09
1.06866e-08
-4.44691e-08
4.27202e-08
3.16002e-08
1.21317e-06
-1.20108e-06
-1.20899e-08
-1.72727e-08
1.85185e-08
4.00564e-08
-4.13022e-08
3.73316e-09
3.00263e-08
-3.37595e-08
-9.43171e-09
-1.25221e-08
-2.9945e-08
-8.21495e-09
3.816e-08
-2.47178e-08
-2.09628e-08
4.56806e-08
-1.49126e-08
2.78554e-08
-2.84585e-08
2.2011e-09
4.50126e-08
-4.72136e-08
-1.83427e-09
-6.40467e-09
8.23897e-09
8.23319e-09
3.7333e-08
-4.55662e-08
-8.64159e-09
4.2508e-09
-2.98154e-09
7.37234e-09
-5.8358e-09
4.43267e-08
-8.38481e-09
-3.3052e-08
4.14368e-08
-3.27523e-08
3.09523e-08
3.42156e-08
-3.24156e-08
-1.99453e-08
1.60569e-08
-2.33625e-08
2.53202e-08
-1.95769e-09
-1.17738e-08
3.46074e-08
-2.28336e-08
-2.80276e-09
-2.66765e-08
1.59474e-08
3.67851e-09
-7.40923e-09
-1.8348e-08
3.25422e-08
2.61855e-08
-4.94586e-09
-2.12397e-08
4.17912e-08
-4.68608e-08
5.06961e-09
2.91195e-08
2.90004e-08
-5.81196e-08
-4.64045e-08
5.78243e-08
1.76999e-08
5.83273e-08
-3.53547e-08
-2.29729e-08
-2.65948e-08
5.89993e-08
2.59224e-08
-2.44993e-08
-3.10716e-08
5.55709e-08
-1.51256e-06
1.52774e-06
-2.79788e-08
4.04929e-08
-1.25141e-08
4.47695e-09
-1.21702e-08
-5.7166e-09
9.07204e-09
-1.63798e-09
1.47279e-09
-8.90687e-09
-1.04539e-09
1.51438e-09
2.66697e-08
-2.71387e-08
8.19077e-08
-2.94953e-07
2.13046e-07
3.09706e-08
-2.9424e-08
2.77456e-08
-2.92922e-08
-1.34795e-09
3.23185e-08
-1.06291e-09
-4.61334e-08
4.58483e-08
-2.99859e-09
1.20706e-08
-2.25791e-08
2.8302e-09
1.97489e-08
-4.64909e-08
-1.72432e-08
4.62677e-08
1.74665e-08
-3.85858e-08
3.66733e-08
3.88275e-08
-3.6915e-08
3.15295e-08
-2.87812e-08
-2.14003e-08
1.16784e-08
9.72191e-09
-3.56311e-09
2.96211e-08
-2.6058e-08
-1.2632e-08
-8.76835e-09
7.27087e-08
-2.7726e-08
-7.66868e-08
-5.06424e-08
5.46817e-08
-3.65161e-08
-2.46933e-08
6.12093e-08
2.02014e-08
-1.53398e-08
-4.86154e-09
-3.87819e-08
-3.30459e-08
3.53116e-08
3.39268e-08
-2.33424e-08
-2.7998e-09
4.07957e-10
3.6362e-10
-9.79226e-10
-5.85851e-10
-3.44488e-08
3.57447e-08
-5.17727e-08
-3.02857e-08
3.18611e-08
5.01975e-08
1.0812e-08
3.4137e-08
-4.49489e-08
1.45837e-07
2.41933e-08
-4.15668e-08
1.73735e-08
5.93089e-09
4.61821e-08
-5.2113e-08
-1.58888e-07
-1.54529e-07
8.94451e-08
-5.10842e-07
2.79954e-08
-2.85812e-08
3.3451e-08
-3.40494e-08
2.79283e-08
-2.733e-08
2.74346e-08
2.91284e-09
-3.03474e-08
-1.02093e-08
-3.21979e-08
2.99772e-08
1.24299e-08
-1.62486e-08
-2.53127e-08
4.15612e-08
9.18507e-09
-8.1146e-09
-1.49179e-08
1.38475e-08
-8.73201e-08
6.99243e-08
1.73958e-08
6.87616e-09
-7.70004e-09
1.97334e-08
-1.28572e-08
-4.7749e-09
2.33256e-08
1.09995e-08
6.28508e-09
-1.72845e-08
4.6736e-09
-3.47829e-08
3.01093e-08
-2.46644e-08
3.84151e-08
-1.37508e-08
9.98233e-09
-9.0803e-09
-5.85334e-08
-7.98041e-08
-1.87766e-08
9.85807e-08
1.72361e-08
1.13484e-08
-1.82017e-08
-1.03827e-08
1.11445e-08
-1.11445e-08
1.24642e-08
1.75819e-09
-1.42224e-08
-5.87621e-09
-3.02572e-08
3.61334e-08
5.77253e-08
-5.26196e-08
1.09971e-08
2.95703e-08
-3.03164e-08
-5.13009e-09
1.41227e-09
-3.59947e-07
3.79773e-07
-3.21529e-08
-1.08617e-08
3.29294e-08
1.00851e-08
3.57437e-08
6.88972e-09
-4.26334e-08
4.43009e-08
-8.55721e-09
-7.7049e-09
-7.67876e-09
3.87156e-08
-1.9182e-08
-1.95336e-08
1.06474e-08
-4.28004e-08
2.06001e-08
-5.09208e-08
3.03208e-08
-3.28222e-09
-4.35788e-08
4.6861e-08
2.18597e-08
3.63947e-08
-2.13284e-08
-1.26087e-08
-3.35899e-08
1.73412e-08
4.53837e-09
-2.219e-08
1.76517e-08
-3.8387e-08
3.79169e-08
-5.56062e-09
5.7972e-09
-2.8859e-10
5.20349e-11
-3.66748e-08
4.66572e-08
4.07357e-08
3.46205e-08
-3.57546e-09
-3.10451e-08
1.5068e-08
4.71491e-08
-1.03562e-08
-5.18608e-08
-9.4902e-09
-4.3286e-08
5.27761e-08
-4.09113e-09
4.09112e-09
1.46768e-08
9.84271e-09
-2.45194e-08
-6.97031e-08
8.66394e-08
-1.69364e-08
-1.39625e-10
3.82659e-10
-2.43037e-10
-3.13896e-08
2.53069e-08
6.08263e-09
2.82926e-08
-2.02659e-08
-8.0266e-09
1.42995e-08
-3.18953e-07
-3.81275e-08
-9.84723e-09
3.84842e-08
-2.67388e-08
-6.33493e-09
4.11424e-09
1.85168e-08
-3.17575e-08
-1.83925e-08
3.16332e-08
5.42236e-08
-6.13091e-08
7.08555e-09
3.83415e-08
-2.97232e-08
2.61168e-08
-5.27119e-08
8.70771e-11
-8.70728e-11
6.96078e-10
-2.819e-09
2.12293e-09
-2.61303e-08
2.45918e-08
1.53854e-09
6.12622e-08
-4.61941e-08
3.05139e-08
-4.90744e-08
1.85601e-08
3.38726e-10
2.05917e-11
4.04092e-11
-3.99716e-10
5.93323e-10
-5.93321e-10
2.49079e-08
-2.62843e-08
-9.06281e-10
9.06282e-10
9.06357e-10
-9.06353e-10
1.9796e-10
-5.49821e-09
5.3588e-09
-5.85417e-11
-2.35682e-08
3.7475e-09
-9.83086e-09
1.01543e-08
-3.23434e-10
1.88121e-08
3.95946e-10
-2.30902e-08
2.70262e-09
2.03876e-08
-3.83006e-08
5.60701e-10
2.10209e-09
-6.4469e-08
6.23669e-08
2.46522e-08
5.60716e-09
-3.02594e-08
3.26489e-09
2.59053e-08
-4.518e-09
3.92674e-08
9.87074e-10
-5.31632e-10
1.45618e-08
-1.33454e-06
9.69795e-09
-4.68327e-08
1.92295e-08
8.81502e-08
-8.47335e-08
3.2497e-08
8.8449e-09
-3.1644e-08
2.76714e-08
-3.06939e-08
-3.56471e-08
4.09604e-08
-5.31329e-09
7.16591e-09
-3.9385e-08
-7.55285e-09
3.9772e-08
-3.48083e-08
4.19742e-08
1.04168e-08
3.6118e-08
-4.65348e-08
-1.63988e-09
2.61978e-09
1.16979e-08
5.1896e-09
-3.52489e-08
-5.58781e-09
-3.67106e-08
3.70599e-08
4.2498e-09
7.73241e-08
-5.80947e-08
-4.74157e-08
2.9888e-09
4.44269e-08
-2.18189e-08
5.5335e-08
-3.00748e-08
3.15585e-08
-1.48378e-09
1.32814e-08
-1.26459e-08
-4.39216e-08
6.87465e-08
-3.37413e-08
9.88953e-10
3.86849e-08
3.68658e-08
-7.55508e-08
-2.71627e-08
-3.41809e-08
-3.54049e-08
1.13636e-07
-7.82309e-08
-1.37049e-09
-3.67914e-08
-2.04756e-11
-7.93508e-12
7.89677e-11
-5.05476e-11
3.06696e-08
2.82708e-10
-2.38745e-10
2.01502e-10
3.72486e-11
-2.59956e-09
-4.41947e-10
2.84873e-09
1.92768e-10
-1.13556e-08
-1.3109e-09
1.26665e-08
1.8783e-08
-2.61879e-08
7.40487e-09
-6.8304e-10
2.88481e-10
-1.09611e-08
2.53486e-10
-8.60177e-09
1.87058e-08
1.21051e-08
-9.88157e-09
-2.09293e-08
-4.02204e-08
-9.99305e-10
4.12198e-08
3.28451e-08
5.71174e-10
-3.50966e-08
3.45254e-08
1.53346e-07
-1.12369e-07
-4.0977e-08
1.3599e-07
-2.8929e-08
1.26436e-07
9.55368e-09
3.96976e-08
9.60848e-09
-4.70213e-08
-7.61604e-09
7.84664e-09
4.67907e-08
-1.21945e-08
2.72388e-11
1.21673e-08
-4.43657e-08
3.48595e-08
9.50614e-09
2.29869e-07
1.51538e-09
-2.31384e-07
2.17603e-07
5.09715e-08
-2.81116e-08
-2.28599e-08
1.98685e-15
-1.4141e-10
3.48429e-10
-1.10244e-09
6.0455e-09
2.85114e-08
-2.20162e-09
-2.63097e-08
-1.05578e-08
2.717e-08
1.18992e-08
-3.30544e-08
1.91977e-08
1.38567e-08
3.19293e-09
-6.94715e-10
-3.60065e-09
4.44059e-08
-1.36579e-08
-3.07479e-08
-4.16162e-08
2.76861e-09
-1.52225e-09
4.59282e-08
9.77134e-10
-3.02775e-08
3.02728e-08
4.72252e-12
1.66641e-08
-1.72205e-08
5.56431e-10
-1.8719e-08
-4.17567e-09
2.12255e-08
1.66914e-09
-9.13111e-09
1.00057e-08
2.29779e-09
-3.17233e-09
-6.78507e-10
-7.96306e-09
-3.38514e-11
-9.11845e-09
9.1523e-09
-1.01795e-09
-1.46789e-11
1.03264e-09
-1.28077e-09
1.30758e-09
-1.66829e-09
1.57847e-09
-1.16149e-08
5.53612e-09
-5.47398e-08
4.92037e-08
4.63641e-08
-4.85894e-08
2.22525e-09
4.04765e-08
-7.78863e-10
-5.21386e-08
5.05572e-08
-1.28655e-08
1.44468e-08
1.24515e-08
3.84089e-09
-1.62924e-08
-3.80511e-09
7.53256e-08
1.44404e-08
-1.4378e-08
-1.18361e-08
-1.42756e-09
-1.48362e-06
1.48504e-06
-6.81071e-08
4.77142e-08
2.03929e-08
-8.91194e-09
-3.14948e-08
3.2022e-08
8.79362e-09
-9.32421e-09
-3.42777e-08
-4.20411e-08
1.88193e-09
4.20818e-08
-1.92271e-09
-3.63504e-08
-5.6907e-09
-8.55102e-08
7.45482e-08
1.0962e-08
-1.37978e-08
1.69066e-08
1.73672e-09
-4.84551e-09
-9.84561e-09
6.03792e-11
-2.39266e-08
2.51215e-08
-1.19484e-09
-1.06352e-09
8.91568e-08
2.12791e-07
-3.01947e-07
7.32968e-09
-2.9599e-08
2.22693e-08
-3.45429e-08
3.27343e-08
1.80855e-09
-9.83086e-09
-2.28654e-08
8.06287e-09
-9.12772e-09
-5.38383e-08
5.49032e-08
-3.84368e-08
4.64997e-08
-4.53611e-08
-3.13257e-08
4.47562e-08
6.2576e-09
-4.42245e-08
-6.7893e-09
6.3194e-09
-1.09128e-08
-4.42011e-09
-3.89924e-08
5.24533e-08
-1.34609e-08
-1.12145e-08
1.18694e-08
-6.54907e-10
7.13782e-09
-6.67388e-09
6.6924e-10
7.88608e-10
-1.18672e-08
1.04092e-08
3.13771e-11
-2.70119e-10
-8.62187e-10
6.17815e-10
-7.66396e-11
3.21022e-10
1.25386e-08
-1.52153e-08
3.94086e-08
5.67147e-08
3.04013e-09
-2.59726e-09
-5.71576e-08
-1.27943e-08
3.49157e-08
-3.49864e-08
-1.35079e-08
-3.69819e-08
5.04897e-08
-3.07442e-08
4.53237e-09
2.83144e-09
6.85802e-11
-2.06795e-09
-8.32086e-10
-5.54231e-08
2.00132e-08
-2.0894e-08
5.63039e-08
-2.97738e-07
1.12021e-07
-1.88478e-07
3.74192e-07
3.46284e-07
2.03896e-08
-9.12066e-08
-2.52307e-07
1.12229e-07
-1.5889e-10
4.49284e-10
-2.90399e-10
-2.27162e-09
5.60903e-11
2.01981e-09
-1.33075e-09
1.68685e-10
-1.10956e-09
-2.90206e-08
-4.70826e-09
3.37289e-08
7.29937e-11
-2.56314e-08
1.4986e-08
1.06454e-08
1.07351e-08
8.06348e-09
-1.87986e-08
2.82259e-09
5.78949e-09
-8.6121e-09
4.08579e-07
-4.16874e-07
8.29463e-09
2.49179e-08
1.20527e-08
-2.62354e-08
1.16158e-08
-1.16158e-08
1.57038e-08
-7.64027e-09
1.37526e-10
1.14782e-08
-3.00911e-08
-1.86342e-10
-2.36903e-08
3.65841e-08
-3.76116e-08
-4.10741e-08
-3.9768e-08
4.18498e-08
-1.58831e-08
6.45194e-10
2.91578e-08
-2.96838e-08
6.63547e-10
-1.13587e-08
1.13587e-08
-3.6587e-11
-5.84309e-09
5.84907e-09
-1.73866e-09
1.40224e-10
2.42456e-08
-2.66483e-09
-2.04013e-10
2.86883e-09
4.76333e-08
-7.21603e-09
-4.78066e-08
7.38941e-09
-8.98632e-09
4.78414e-09
2.8649e-10
1.07799e-08
-6.92318e-10
-3.65086e-08
3.71976e-09
3.78341e-08
-5.04526e-09
-3.73016e-08
-1.28424e-09
5.66295e-08
-5.11129e-08
-7.36238e-08
-4.10188e-08
4.03881e-08
6.30732e-10
-5.10786e-09
5.10223e-09
-3.76672e-11
-2.45409e-08
-3.59247e-08
5.85624e-08
-4.05972e-08
-1.79654e-08
-4.10552e-08
-5.79938e-09
5.17146e-08
-5.74612e-08
5.74693e-09
-1.18496e-07
2.42687e-08
9.4227e-08
4.80904e-08
-1.39297e-07
5.45213e-08
-5.33117e-08
-8.71595e-09
-6.85054e-09
-7.48556e-09
1.43361e-08
1.05378e-08
-7.98677e-09
-2.55119e-09
1.27238e-07
-6.40685e-08
4.37463e-09
3.88013e-08
-4.31759e-08
1.81016e-08
-1.68297e-08
-3.92253e-09
-6.55979e-09
-5.46661e-09
2.65035e-08
-2.75195e-10
3.20317e-10
-3.69268e-08
3.76633e-08
-7.17654e-09
-2.72723e-08
3.09083e-08
3.35142e-08
-3.40494e-08
5.35241e-10
-9.96995e-07
6.99257e-07
-1.5878e-08
5.53175e-08
-3.94396e-08
5.06747e-08
-5.51355e-10
8.48156e-10
-1.38202e-08
-8.87584e-07
-8.51678e-09
-4.70614e-08
5.55781e-08
3.90914e-09
5.1801e-10
-4.42712e-09
4.12561e-08
-8.75193e-09
-4.1021e-08
2.84766e-08
1.24618e-09
-3.21924e-09
1.49133e-08
-1.58432e-08
-7.57608e-09
-1.54637e-06
1.56316e-06
-1.67957e-08
-2.01871e-08
2.09699e-08
-1.865e-08
1.78672e-08
8.13057e-09
-1.44369e-07
1.36239e-07
2.21366e-08
5.50061e-08
-7.29185e-09
-3.12731e-08
8.35817e-09
-8.93328e-09
3.18482e-08
2.59075e-09
-5.39841e-08
5.13933e-08
2.10634e-10
-3.46639e-09
3.11612e-09
2.56967e-08
-2.30775e-08
-2.61919e-09
1.35343e-08
-1.05205e-08
-7.27168e-08
-5.99029e-09
6.28763e-09
2.53994e-08
-2.60831e-08
3.00552e-09
6.08053e-09
-5.97805e-09
-3.78853e-08
3.54679e-08
-3.36363e-08
2.7646e-08
1.09141e-09
8.67359e-10
8.5789e-09
1.05848e-08
-3.79592e-08
5.0824e-08
-1.28649e-08
-2.23286e-09
2.60153e-09
-1.95704e-09
1.53602e-08
-2.53403e-08
9.9802e-09
-3.36077e-08
-2.64783e-09
-1.27744e-08
-2.08333e-08
-2.71722e-08
2.77618e-08
1.03681e-08
-1.09578e-08
9.84025e-11
-6.1983e-10
9.70311e-10
-4.48869e-10
-7.83475e-08
3.29864e-08
-3.10982e-08
-5.28569e-08
-3.22004e-08
1.1342e-07
1.33549e-08
-1.26775e-07
-2.54608e-08
4.11728e-08
-3.43406e-08
1.34388e-08
2.09016e-08
3.65527e-08
-1.36394e-08
-2.29132e-08
3.9771e-09
-1.67236e-08
1.26696e-07
-3.2527e-08
-9.41686e-08
1.2829e-07
1.08227e-07
-2.36517e-07
-3.83645e-08
1.67206e-08
-1.61137e-08
-6.06969e-10
5.22607e-08
1.92437e-09
-1.73176e-09
2.31344e-08
2.05043e-08
-4.36386e-08
-3.94245e-08
3.04577e-08
8.96684e-09
4.8226e-08
1.21293e-08
-1.38556e-08
-1.32203e-08
-1.39518e-08
1.09794e-09
-1.03561e-09
-6.23111e-11
3.74744e-08
6.66502e-09
-4.41393e-08
1.94358e-08
1.09359e-08
-3.03717e-08
1.37126e-08
2.01958e-08
-1.44726e-08
-3.02509e-11
5.39193e-12
4.18614e-11
-1.69923e-11
5.38017e-08
1.57394e-08
-1.91536e-08
1.96045e-08
3.41972e-08
5.78758e-08
-4.21364e-08
6.98777e-09
7.19501e-10
-2.35957e-09
6.09797e-08
1.65006e-08
2.37494e-08
-4.34365e-08
1.96871e-08
-3.2442e-08
5.87005e-10
3.17301e-08
1.24869e-10
-1.81725e-08
3.18852e-08
1.1391e-11
-1.1003e-12
1.18312e-08
-1.10518e-08
-7.7943e-10
2.18415e-07
-2.10505e-07
-9.80173e-09
6.82369e-09
-6.63776e-09
9.64085e-09
-1.68775e-08
1.13616e-08
-2.86969e-10
-1.10746e-08
-4.42979e-08
2.70252e-08
7.0791e-09
4.44238e-08
-5.15028e-08
4.39603e-08
6.43126e-10
-4.46034e-08
1.63682e-07
-1.74025e-07
-1.07955e-09
4.68829e-08
-1.86154e-08
-2.82675e-08
-4.47142e-08
4.34339e-08
1.28024e-09
-1.85019e-10
-4.27328e-09
3.54037e-08
3.12331e-09
-3.63259e-08
-4.58629e-08
-1.01473e-08
5.60102e-08
4.19698e-08
-3.93124e-08
-2.65735e-09
-7.19639e-09
-5.11215e-08
5.14007e-08
6.91725e-09
4.77267e-09
-1.1327e-08
1.10518e-08
-9.96926e-09
3.66922e-10
-2.04422e-08
2.49806e-08
-3.99533e-08
-8.01891e-09
3.94842e-08
8.48806e-09
4.35159e-08
-3.76171e-08
-5.89873e-09
6.15807e-09
4.00078e-08
-4.0235e-08
1.31306e-08
3.50954e-08
-2.46352e-08
4.36544e-08
2.36607e-08
-4.26799e-08
-3.09406e-08
-1.18132e-08
4.27539e-08
-3.43375e-08
-1.94295e-08
5.37666e-08
-5.84943e-08
2.41565e-08
-7.01112e-09
4.01008e-08
-3.30898e-08
3.14026e-08
-3.38646e-08
-4.54925e-09
1.69811e-08
3.58401e-08
-1.27207e-08
3.93814e-08
-4.04521e-08
-2.42958e-08
9.38329e-09
4.83837e-08
-2.09622e-09
2.09621e-09
6.22394e-08
-1.20286e-08
-5.02108e-08
2.54215e-09
6.81722e-09
-9.35933e-09
2.51669e-08
-8.15787e-08
2.36856e-09
4.07793e-08
-4.31478e-08
-3.10371e-08
-4.11558e-08
2.63587e-08
-8.13679e-08
7.58687e-08
7.63672e-08
-7.08679e-08
-5.61278e-08
2.63281e-08
-2.65868e-08
-1.76919e-09
-4.08551e-09
-1.10164e-10
6.61779e-10
3.42891e-08
-8.40909e-09
-3.10083e-08
-4.80915e-09
3.58175e-08
1.46238e-10
-1.12602e-09
1.61247e-08
6.82369e-09
-2.06693e-08
2.23823e-09
1.84311e-08
7.44778e-08
5.27602e-08
2.74535e-09
-2.6196e-08
-1.44505e-09
2.48957e-08
1.86498e-09
1.53711e-08
6.6181e-09
-1.98978e-08
2.10189e-08
-7.73925e-09
-1.09804e-08
1.09804e-08
-3.08627e-08
-2.06659e-08
5.15284e-08
-3.81805e-08
4.69741e-08
-4.55911e-09
5.53977e-09
3.50117e-08
-3.56804e-08
-3.62373e-09
4.2925e-09
1.21317e-06
-3.56718e-09
-4.96922e-08
3.24118e-09
5.00182e-08
2.65771e-08
-7.87128e-09
-1.88219e-08
1.67269e-08
2.58444e-08
-3.42017e-08
5.27185e-08
-5.31949e-08
3.15389e-08
2.16561e-08
-3.11821e-08
-5.62144e-08
-2.23232e-08
1.2428e-07
1.3532e-08
1.3045e-08
1.93544e-09
-3.50251e-08
-9.76411e-09
-1.20481e-08
2.18122e-08
9.15559e-08
-1.60496e-08
-7.55062e-08
4.65964e-08
-5.68057e-08
4.97653e-09
-2.45849e-08
-4.69764e-09
-7.60326e-08
7.41489e-08
-2.73456e-08
2.92293e-08
-4.41459e-08
6.89189e-08
-2.47729e-08
-5.76433e-11
3.74006e-09
-3.72329e-09
4.09017e-11
-1.15228e-08
1.58277e-08
-4.30482e-09
3.64661e-08
-1.81176e-08
1.82042e-08
-2.0348e-10
3.39642e-09
-1.38896e-09
1.70823e-08
-1.68151e-08
-3.52865e-09
3.57597e-09
-1.98772e-10
1.51451e-10
1.2177e-08
2.28907e-08
-2.8395e-08
1.12998e-10
9.7633e-11
-6.47644e-08
3.90647e-08
3.16717e-10
3.66456e-08
-4.3842e-08
3.46076e-08
3.64063e-08
-3.45798e-08
5.25825e-08
7.21239e-09
-9.1522e-08
1.16027e-07
-2.45049e-08
1.99023e-08
1.4872e-08
-1.32751e-10