/*--------------------------------*- C++ -*----------------------------------*\
| =========                 |                                                 |
| \\      /  F ield         | OpenFOAM: The Open Source CFD Toolbox           |
|  \\    /   O peration     | Version:  v2012                                 |
|   \\  /    A nd           | Website:  www.openfoam.com                      |
|    \\/     M anipulation  |                                                 |
\*---------------------------------------------------------------------------*/
FoamFile
{
    version     2.0;
    format      ascii;
    class       volScalarField;
    location    "0.3";
    object      alpha.water;
}
// * * * * * * * * * * * * * * * * * * * * * * * * * * * * * * * * * * * * * //

dimensions      [0 0 0 0 0 0 0];


internalField   nonuniform List<scalar> 
3338
(
-5.60563e-97
-1.13248e-97
-1.61682e-98
-1.63347e-99
-1.16032e-100
-5.73047e-102
-1.93932e-103
-4.43188e-105
-6.73846e-107
-6.72816e-109
-4.36463e-111
-1.82423e-113
-4.88317e-116
-8.32278e-119
-8.95932e-122
-6.01209e-125
-2.45882e-128
-5.8942e-132
-7.7284e-136
-4.84235e-140
-1.02728e-144
-4.82034e-96
-9.68328e-97
-1.38053e-97
-1.39813e-98
-9.99449e-100
-4.98767e-101
-1.71298e-102
-3.99046e-104
-6.21223e-106
-6.37666e-108
-4.26643e-110
-1.84285e-112
-5.10024e-115
-8.97551e-118
-9.94578e-121
-6.83829e-124
-2.84836e-127
-6.90396e-131
-9.07506e-135
-5.63478e-139
-1.1602e-143
-4.10528e-95
-8.19347e-96
-1.1667e-96
-1.18489e-97
-8.52763e-99
-4.30218e-100
-1.50021e-101
-3.56445e-103
-5.68523e-105
-6.0041e-107
-4.14744e-109
-1.85382e-111
-5.31317e-114
-9.67289e-117
-1.10561e-119
-7.80351e-123
-3.31462e-126
-8.12213e-130
-1.06709e-133
-6.50844e-138
-1.25409e-142
-3.46711e-94
-6.86171e-95
-9.75777e-96
-9.94116e-97
-7.20623e-98
-3.67693e-99
-1.30244e-100
-3.15782e-102
-5.16324e-104
-5.61411e-106
-4.00744e-108
-1.85578e-110
-5.51642e-113
-1.04088e-115
-1.22975e-118
-8.92935e-122
-3.87483e-125
-9.60806e-129
-1.26059e-132
-7.52292e-137
-1.3645e-141
-2.91127e-93
-5.69012e-94
-8.07633e-95
-8.25588e-96
-6.03019e-97
-3.11326e-98
-1.1207e-99
-2.77399e-101
-4.652e-103
-5.21104e-105
-3.84687e-107
-1.84755e-109
-5.70388e-112
-1.11739e-114
-1.36739e-117
-1.02369e-120
-4.54783e-124
-1.14285e-127
-1.49771e-131
-8.72883e-136
-1.49334e-140
-2.44296e-92
-4.67762e-93
-6.61607e-94
-6.78599e-95
-4.99612e-96
-2.61099e-97
-9.55564e-99
-2.41571e-100
-4.15699e-102
-4.7998e-104
-3.66695e-106
-1.82821e-108
-5.86936e-111
-1.19573e-113
-1.51868e-116
-1.17498e-119
-5.35702e-123
-1.36732e-126
-1.79244e-130
-1.02023e-134
-1.63464e-139
-2.0685e-91
-3.82112e-92
-5.36657e-93
-5.52043e-94
-4.09785e-95
-2.16863e-96
-8.07227e-98
-2.08505e-99
-3.68318e-101
-4.38559e-103
-3.46949e-105
-1.79712e-107
-6.00653e-110
-1.27449e-112
-1.68335e-115
-1.34915e-118
-6.32974e-122
-1.64556e-125
-2.16359e-129
-1.20545e-133
-1.80818e-138
-1.79729e-90
-3.11719e-91
-4.31494e-92
-4.44524e-93
-3.32705e-94
-1.7836e-95
-6.75498e-97
-1.78334e-98
-3.23489e-100
-3.97369e-102
-3.25692e-104
-1.75393e-106
-6.10907e-109
-1.35197e-111
-1.86048e-114
-1.54836e-117
-7.49668e-121
-1.99153e-124
-2.63552e-128
-1.4428e-132
-2.03645e-137
-1.64446e-89
-2.56398e-90
-3.44728e-91
-3.54466e-92
-2.67386e-93
-1.45242e-94
-5.59861e-96
-1.51117e-97
-2.81572e-99
-3.56935e-101
-3.03216e-103
-1.69866e-105
-6.17112e-108
-1.42621e-110
-2.04844e-113
-1.77435e-116
-8.89175e-120
-2.42239e-123
-3.24019e-127
-1.75171e-131
-2.34152e-136
-1.63445e-88
-2.16362e-89
-2.75036e-90
-2.80224e-91
-2.12747e-92
-1.17095e-93
-4.59529e-95
-1.2685e-96
-2.4284e-98
-3.17754e-100
-2.79859e-102
-1.63172e-104
-6.18753e-107
-1.49503e-109
-2.24477e-112
-2.02827e-115
-1.05511e-118
-2.95884e-122
-4.01914e-126
-2.15856e-130
-2.75331e-135
-1.80594e-87
-1.92538e-88
-2.21343e-89
-2.20191e-90
-1.67675e-91
-9.34679e-93
-3.73501e-94
-1.05466e-95
-2.07479e-97
-2.8028e-99
-2.5599e-101
-1.55395e-103
-6.15433e-106
-1.55612e-108
-2.44613e-111
-2.31034e-114
-1.25118e-117
-3.62546e-121
-5.02607e-125
-2.69946e-129
-3.31469e-134
-2.21833e-86
-1.8696e-87
-1.83033e-88
-1.72908e-89
-1.31075e-90
-7.38883e-92
-3.0062e-93
-8.68454e-95
-1.7559e-96
-2.44909e-98
-2.31992e-100
-1.46655e-102
-6.06897e-105
-1.60714e-107
-2.64826e-110
-2.61959e-113
-1.48092e-116
-4.45077e-120
-6.32966e-124
-3.42381e-128
-4.08706e-133
-2.96059e-85
-2.03292e-86
-1.60208e-87
-1.37184e-88
-1.01928e-89
-5.78879e-91
-2.39642e-92
-7.08264e-94
-1.47184e-95
-2.11966e-97
-2.0825e-99
-1.37112e-101
-5.93067e-104
-1.64587e-106
-2.8461e-109
-2.95356e-112
-1.74746e-115
-5.46693e-119
-8.01649e-123
-4.39875e-127
-5.15867e-132
-4.16264e-84
-2.47505e-85
-1.53999e-86
-1.1222e-87
-7.93362e-89
-4.50205e-90
-1.89285e-91
-5.72153e-93
-1.22198e-94
-1.81694e-96
-1.85132e-98
-1.26951e-100
-5.7406e-103
-1.67035e-105
-3.03391e-108
-3.30806e-111
-2.05306e-114
-6.70899e-118
-1.01938e-121
-5.71494e-126
-6.65648e-131
-6.0101e-83
-3.28748e-84
-1.6697e-85
-9.77632e-87
-6.25829e-88
-3.48807e-89
-1.48291e-90
-4.57976e-92
-1.005e-93
-1.54254e-95
-1.62975e-97
-1.16384e-99
-5.50195e-102
-1.67902e-104
-3.2055e-107
-3.67703e-110
-2.39877e-113
-8.21344e-117
-1.29916e-120
-7.49339e-125
-8.76299e-130
-8.76263e-82
-4.60467e-83
-2.0363e-84
-9.42915e-86
-5.11849e-87
-2.71224e-88
-1.15478e-89
-3.63495e-91
-8.19026e-93
-1.29721e-94
-1.42072e-96
-1.0563e-98
-5.2199e-101
-1.67088e-103
-3.35464e-106
-4.05254e-109
-2.78391e-112
-1.0016e-115
-1.65636e-119
-9.89328e-124
-1.17391e-128
-1.27763e-80
-6.61784e-82
-2.71074e-83
-1.03244e-84
-4.49631e-86
-2.14766e-87
-8.97914e-89
-2.86494e-90
-6.61783e-92
-1.08093e-93
-1.22662e-95
-9.49115e-98
-4.90141e-100
-1.64558e-102
-3.47541e-105
-4.42495e-108
-3.20566e-111
-1.21488e-114
-2.10857e-118
-1.31204e-122
-1.59543e-127
-1.85296e-79
-9.59163e-81
-3.79787e-82
-1.27312e-83
-4.41245e-85
-1.77727e-86
-7.0353e-88
-2.24891e-89
-5.30773e-91
-8.92976e-93
-1.0492e-94
-8.444e-97
-4.55489e-99
-1.60353e-101
-3.5627e-104
-4.78336e-107
-3.65876e-110
-1.46362e-113
-2.67519e-117
-1.74348e-121
-2.1926e-126
-2.66518e-78
-1.38833e-79
-5.446e-81
-1.70803e-82
-4.93671e-84
-1.59629e-85
-5.65182e-87
-1.76858e-88
-4.23441e-90
-7.32074e-92
-8.89609e-94
-7.44076e-96
-4.18974e-98
-1.54592e-100
-3.61266e-103
-5.11618e-106
-4.13538e-109
-1.74916e-112
-3.37661e-116
-2.31576e-120
-3.03666e-125
-3.7953e-77
-1.99638e-78
-7.85801e-80
-2.40074e-81
-6.20102e-83
-1.61529e-84
-4.79374e-86
-1.40938e-87
-3.37379e-89
-5.96583e-91
-7.48377e-93
-6.49786e-95
-3.81582e-97
-1.47463e-99
-3.62312e-102
-5.412e-105
-4.62519e-108
-2.07124e-111
-4.23298e-115
-3.06728e-119
-4.22394e-124
-5.34509e-76
-2.84388e-77
-1.13033e-78
-3.44042e-80
-8.41527e-82
-1.86398e-83
-4.46322e-85
-1.16189e-86
-2.70534e-88
-4.84712e-90
-6.25539e-92
-5.62847e-94
-3.44294e-96
-1.3922e-98
-3.59385e-101
-5.66054e-104
-5.11589e-107
-2.42774e-110
-5.26261e-114
-4.04251e-118
-5.88184e-123
-7.43904e-75
-4.00676e-76
-1.613e-77
-4.94733e-79
-1.1886e-80
-2.39592e-82
-4.70881e-84
-1.02333e-85
-2.2145e-87
-3.94779e-89
-5.20763e-91
-4.84238e-93
-3.08027e-95
-1.30162e-97
-3.52675e-100
-5.85363e-103
-5.59397e-106
-2.81449e-109
-6.48011e-113
-5.29088e-117
-8.17456e-122
-1.02249e-73
-5.57756e-75
-2.27751e-76
-7.07835e-78
-1.70369e-79
-3.29411e-81
-5.63699e-83
-9.99609e-85
-1.89544e-86
-3.25526e-88
-4.33567e-90
-4.14641e-92
-2.73606e-94
-1.20617e-96
-3.42577e-99
-5.98615e-102
-6.04583e-105
-3.22534e-108
-7.8945e-112
-6.86492e-116
-1.1308e-120
-1.38723e-72
-7.66551e-74
-3.17709e-75
-1.00318e-76
-2.44299e-78
-4.67724e-80
-7.42594e-82
-1.10759e-83
-1.75436e-85
-2.76485e-87
-3.6359e-89
-3.54532e-91
-2.41742e-93
-1.10921e-95
-3.29672e-98
-6.05671e-101
-6.45916e-104
-3.65251e-107
-9.50771e-111
-8.81753e-115
-1.55323e-119
-1.85674e-71
-1.03949e-72
-4.37445e-74
-1.40501e-75
-3.4783e-77
-6.70621e-79
-1.03413e-80
-1.37798e-82
-1.81352e-84
-2.48429e-86
-3.10957e-88
-3.04344e-90
-2.13047e-92
-1.01407e-94
-3.14684e-97
-6.06803e-100
-6.82435e-103
-4.08734e-106
-1.13139e-109
-1.11988e-113
-2.11416e-118
-2.45048e-70
-1.3901e-71
-5.94065e-73
-1.94196e-74
-4.89818e-76
-9.58991e-78
-1.47529e-79
-1.85858e-81
-2.11601e-83
-2.4391e-85
-2.76723e-87
-2.64705e-89
-1.88094e-91
-9.23935e-94
-2.98446e-96
-6.02692e-99
-7.13577e-102
-4.52125e-105
-1.33e-108
-1.40529e-112
-2.84701e-117
-3.18735e-69
-1.83227e-70
-7.95241e-72
-2.64648e-73
-6.80784e-75
-1.35891e-76
-2.11502e-78
-2.61783e-80
-2.73137e-82
-2.67918e-84
-2.63445e-86
-2.3677e-88
-1.67515e-90
-8.41967e-93
-2.81863e-95
-5.94403e-98
-7.39282e-101
-4.94696e-104
-1.54479e-107
-1.74163e-111
-3.78859e-116
-4.08384e-68
-2.37918e-69
-1.04877e-70
-3.55351e-72
-9.32697e-74
-1.90166e-75
-3.01533e-77
-3.74822e-79
-3.76171e-81
-3.28648e-83
-2.75877e-85
-2.22655e-87
-1.52179e-89
-7.71608e-92
-2.65915e-94
-5.83341e-97
-7.6005e-100
-5.35978e-103
-1.77383e-106
-2.13174e-110
-4.97829e-115
-5.1517e-67
-3.04182e-68
-1.36189e-69
-4.6984e-71
-1.2585e-72
-2.62311e-74
-4.25155e-76
-5.36897e-78
-5.3479e-80
-4.38365e-82
-3.21806e-84
-2.26006e-86
-1.43435e-88
-7.17185e-91
-2.51716e-93
-5.71252e-96
-7.76972e-99
-5.75872e-102
-2.0156e-105
-2.57801e-109
-6.45774e-114
-6.39528e-66
-3.82723e-67
-1.74043e-68
-6.11366e-70
-1.67128e-71
-3.5623e-73
-5.91103e-75
-7.62696e-77
-7.67467e-79
-6.14294e-81
-4.13007e-83
-2.52691e-85
-1.43448e-87
-6.84903e-90
-2.40665e-92
-5.60301e-95
-7.91771e-98
-6.14754e-101
-2.26964e-104
-3.08309e-108
-8.2713e-113
-7.80874e-65
-4.73638e-66
-2.1877e-67
-7.8248e-69
-2.18304e-70
-4.75895e-72
-8.0898e-74
-1.06948e-75
-1.09733e-77
-8.79421e-80
-5.66271e-82
-3.11625e-84
-1.55639e-86
-6.84316e-89
-2.3473e-91
-5.53349e-94
-8.06925e-97
-6.53567e-100
-2.53717e-103
-3.6509e-107
-1.0468e-111
-9.37351e-64
-5.76217e-65
-2.70333e-66
-9.84522e-68
-2.80314e-69
-6.24969e-71
-1.08865e-72
-1.47647e-74
-1.55197e-76
-1.26299e-78
-8.04364e-81
-4.15679e-83
-1.85219e-85
-7.30338e-88
-2.369e-90
-5.54506e-93
-8.26011e-96
-6.93966e-99
-2.82184e-102
-4.2881e-106
-1.31058e-110
-1.10564e-62
-6.8876e-64
-3.28206e-65
-1.21707e-66
-3.5363e-68
-8.06309e-70
-1.43929e-71
-2.00366e-73
-2.16254e-75
-1.80044e-77
-1.15674e-79
-5.82581e-82
-2.39804e-84
-8.45834e-87
-2.51856e-89
-5.70118e-92
-8.54452e-95
-7.38619e-98
-3.1306e-101
-5.00577e-105
-1.62575e-109
-1.28087e-61
-8.08443e-63
-3.91276e-64
-1.4774e-65
-4.38053e-67
-1.02136e-68
-1.86818e-70
-2.66992e-72
-2.96192e-74
-2.53243e-76
-1.65967e-78
-8.35654e-81
-3.30058e-83
-1.06473e-85
-2.86871e-88
-6.10291e-91
-9.00916e-94
-7.91836e-97
-3.4752e-100
-5.82159e-104
-2.00203e-108
-1.45671e-60
-9.31293e-62
-4.57782e-63
-1.76003e-64
-5.32507e-66
-1.26952e-67
-2.37912e-69
-3.49051e-71
-3.98174e-73
-3.50258e-75
-2.35548e-77
-1.20412e-79
-4.70261e-82
-1.43541e-84
-3.52953e-87
-6.91099e-90
-9.79645e-93
-8.60796e-96
-3.87516e-99
-6.76315e-103
-2.45278e-107
-1.62562e-59
-1.05228e-60
-5.25314e-62
-2.0565e-63
-6.34877e-65
-1.54745e-66
-2.97077e-68
-4.47384e-70
-5.24814e-72
-4.75365e-74
-3.29037e-76
-1.72268e-78
-6.78636e-81
-2.02392e-83
-4.66145e-86
-8.37488e-89
-1.11398e-91
-9.57697e-95
-4.36352e-98
-7.87387e-102
-2.99675e-106
-1.77925e-58
-1.16555e-59
-5.90889e-61
-2.35539e-62
-7.41923e-64
-1.84863e-65
-3.63504e-67
-5.61796e-69
-6.77646e-71
-6.32192e-73
-4.51054e-75
-2.42989e-77
-9.77212e-80
-2.91627e-82
-6.48849e-85
-1.08678e-87
-1.3413e-90
-1.10321e-93
-4.99751e-97
-9.22469e-101
-3.66108e-105
-1.90903e-57
-1.26481e-58
-6.51118e-60
-2.6428e-61
-8.49311e-63
-2.16307e-64
-4.35572e-66
-6.90716e-68
-8.56522e-70
-8.23005e-72
-6.05629e-74
-3.36513e-76
-1.39096e-78
-4.21847e-81
-9.30866e-84
-1.49245e-86
-1.71922e-89
-1.33153e-92
-5.87651e-96
-1.09361e-99
-4.48691e-104
-2.00675e-56
-1.34385e-57
-7.02457e-59
-2.9031e-60
-9.51793e-62
-2.47744e-63
-5.10792e-65
-8.30912e-67
-1.05902e-68
-1.04787e-70
-7.95427e-73
-4.56369e-75
-1.94589e-77
-6.05311e-80
-1.34974e-82
-2.12739e-85
-2.33273e-88
-1.69719e-91
-7.16993e-95
-1.32176e-98
-5.54021e-103
-2.06526e-55
-1.39711e-56
-7.41521e-58
-3.12026e-59
-1.04354e-60
-2.77566e-62
-5.85836e-64
-9.77358e-66
-1.27995e-67
-1.30385e-69
-1.02084e-71
-6.05018e-74
-2.66598e-76
-8.55072e-79
-1.94983e-81
-3.08567e-84
-3.30096e-87
-2.2832e-90
-9.15674e-94
-1.64321e-97
-6.93191e-102
-2.07933e-54
-1.42034e-55
-7.6544e-57
-3.27923e-58
-1.11861e-59
-3.03996e-61
-6.56691e-63
-1.12331e-64
-1.51112e-66
-1.58425e-68
-1.27903e-70
-7.83062e-73
-3.56875e-75
-1.18347e-77
-2.77941e-80
-4.48094e-83
-4.78164e-86
-3.20949e-89
-1.22758e-92
-2.11929e-96
-8.8528e-101
-2.04681e-53
-1.41114e-54
-7.722e-56
-3.36764e-57
-1.17154e-58
-3.25243e-60
-7.18946e-62
-1.26061e-63
-1.74144e-65
-1.87836e-67
-1.56321e-69
-9.88415e-72
-4.65999e-74
-1.59995e-76
-3.88533e-79
-6.43987e-82
-6.97018e-85
-4.6394e-88
-1.71817e-91
-2.84945e-95
-1.16291e-99
-1.9693e-52
-1.3692e-53
-7.60895e-55
-3.37725e-56
-1.19796e-57
-3.39686e-59
-7.68187e-61
-1.38032e-62
-1.95749e-64
-2.17146e-66
-1.8621e-68
-1.21559e-70
-5.92795e-73
-2.10829e-75
-5.3049e-78
-9.08863e-81
-1.00898e-83
-6.78092e-87
-2.47937e-90
-3.98684e-94
-1.58026e-98
-1.83172e-51
-1.29604e-52
-7.31841e-54
-3.30503e-55
-1.19512e-56
-3.4606e-58
-8.00473e-60
-1.47357e-61
-2.14454e-63
-2.4457e-65
-2.16015e-67
-1.45528e-69
-7.33836e-72
-2.70359e-74
-7.05537e-77
-1.25315e-79
-1.43689e-82
-9.87794e-86
-3.63169e-89
-5.75359e-93
-2.22332e-97
-1.6561e-50
-1.19605e-51
-6.86542e-53
-3.15374e-54
-1.16233e-55
-3.43631e-57
-8.12824e-59
-1.53253e-60
-2.28805e-62
-2.68149e-64
-2.43833e-66
-1.69445e-68
-8.83136e-71
-3.36958e-73
-9.12216e-76
-1.68223e-78
-2.00031e-81
-1.41869e-84
-5.32053e-88
-8.45002e-92
-3.22088e-96
-1.45213e-49
-1.07398e-50
-6.27454e-52
-2.93174e-53
-1.10112e-54
-3.32316e-56
-8.03642e-58
-1.55143e-59
-2.37535e-61
-2.85956e-63
-2.67576e-65
-1.91707e-67
-1.03219e-69
-4.07688e-72
-1.1448e-74
-2.19317e-77
-2.71026e-80
-1.99354e-83
-7.70329e-87
-1.24497e-90
-4.753e-95
-9.3475e-50
-5.57918e-51
-2.65243e-52
-1.01521e-53
-3.12721e-55
-7.72992e-57
-1.52746e-58
-2.3974e-60
-2.96335e-62
-2.85199e-64
-2.10552e-66
-1.17047e-68
-4.78316e-71
-1.3926e-73
-2.77161e-76
-3.56309e-79
-2.72616e-82
-1.09245e-85
-1.81699e-89
-7.05126e-94
-7.88574e-49
-4.82191e-50
-2.3331e-51
-9.10109e-53
-2.86107e-54
-7.22678e-56
-1.46125e-57
-2.35017e-59
-2.98136e-61
-2.94968e-63
-2.24264e-65
-1.2864e-67
-5.43565e-70
-1.63996e-72
-3.38972e-75
-4.53446e-78
-3.61422e-81
-1.50781e-84
-2.60076e-88
-1.03834e-92
-4.04088e-49
-1.99323e-50
-7.92597e-52
-2.5425e-53
-6.56091e-55
-1.35699e-56
-2.23553e-58
-2.90911e-60
-2.95719e-62
-2.31408e-64
-1.36877e-66
-5.97632e-69
-1.86726e-71
-4.00614e-74
-5.5753e-77
-4.632e-80
-2.01606e-83
-3.62378e-87
-1.50144e-91
-3.29111e-48
-1.65313e-49
-6.69952e-51
-2.19247e-52
-5.77829e-54
-1.22206e-55
-2.06124e-57
-2.75014e-59
-2.87068e-61
-2.31059e-63
-1.40837e-65
-6.34939e-68
-2.05291e-70
-4.56867e-73
-6.61147e-76
-5.72527e-79
-2.60226e-82
-4.88806e-86
-2.114e-90
-2.59942e-47
-1.32954e-48
-5.49064e-50
-1.83272e-51
-4.93161e-53
-1.06608e-54
-1.84018e-56
-2.51593e-58
-2.69511e-60
-2.22979e-62
-1.39952e-64
-6.5099e-67
-2.17638e-69
-5.02004e-72
-7.54889e-75
-6.81082e-78
-3.23342e-81
-6.35618e-85
-2.87959e-89
-1.9889e-46
-1.0358e-47
-4.35823e-49
-1.48341e-50
-4.07413e-52
-8.99832e-54
-1.58874e-55
-2.2246e-57
-2.44397e-59
-2.07693e-61
-1.34129e-63
-6.43185e-66
-2.22147e-68
-5.30626e-71
-8.28458e-74
-7.7824e-77
-3.85796e-80
-7.94068e-84
-3.77577e-88
-1.47249e-45
-7.80755e-47
-3.34649e-48
-1.16117e-49
-3.25383e-51
-7.33928e-53
-1.32473e-54
-1.89854e-56
-2.1376e-58
-1.86448e-60
-1.23789e-62
-6.114e-65
-2.17956e-67
-5.38611e-70
-8.72277e-73
-8.52416e-76
-4.40968e-79
-9.50211e-83
-4.74622e-87
-1.05353e-44
-5.6868e-46
-2.48253e-47
-8.77863e-49
-2.50886e-50
-5.7763e-52
-1.06526e-53
-1.56151e-55
-1.80047e-57
-1.61047e-59
-1.09827e-61
-5.58168e-64
-2.05168e-66
-5.23987e-69
-8.79307e-72
-8.93011e-75
-4.81668e-78
-1.08603e-81
-5.69883e-86
-7.27447e-44
-3.99691e-45
-1.77663e-46
-6.40039e-48
-1.86471e-49
-4.3799e-51
-8.24738e-53
-1.23561e-54
-1.45777e-56
-1.33597e-58
-9.34865e-61
-4.88383e-63
-1.84895e-65
-4.8747e-68
-8.46661e-71
-8.92593e-74
-5.01451e-77
-1.18205e-80
-6.51347e-85
-4.84006e-43
-2.70644e-44
-1.2246e-45
-4.4927e-47
-1.33367e-48
-3.19382e-50
-6.13609e-52
-9.38786e-54
-1.13223e-55
-1.06202e-57
-7.61731e-60
-4.08563e-62
-1.59117e-64
-4.32523e-67
-7.76539e-70
-8.48773e-73
-4.96054e-76
-1.22122e-79
-7.06078e-84
-3.09777e-42
-1.76247e-43
-8.11495e-45
-3.03038e-46
-9.16043e-48
-2.23498e-49
-4.37743e-51
-6.83255e-53
-8.41471e-55
-8.06896e-57
-5.92457e-59
-3.25828e-61
-1.30362e-63
-3.64846e-66
-6.76165e-69
-7.65183e-72
-4.64606e-75
-1.19306e-78
-7.23013e-83
-1.90347e-41
-1.10154e-42
-5.15873e-44
-1.95975e-45
-6.02817e-47
-1.49716e-48
-2.98633e-50
-4.74998e-52
-5.96598e-54
-5.84029e-56
-4.38333e-58
-2.46802e-60
-1.01284e-62
-2.91403e-65
-5.56617e-68
-6.5117e-71
-4.10162e-74
-1.09709e-77
-6.95983e-82
-1.12038e-40
-6.59193e-42
-3.13815e-43
-1.21188e-44
-3.78987e-46
-9.5712e-48
-1.94187e-49
-3.143e-51
-4.01955e-53
-4.01016e-55
-3.07102e-57
-1.76705e-59
-7.4248e-62
-2.19211e-64
-4.30816e-67
-5.20151e-70
-3.3934e-73
-9.44003e-77
-6.26015e-81
-6.30029e-40
-3.7665e-41
-1.8213e-42
-7.14296e-44
-2.26838e-45
-5.81722e-47
-1.19852e-48
-1.97029e-50
-2.56041e-52
-2.59753e-54
-2.02506e-56
-1.18805e-58
-5.09979e-61
-1.54185e-63
-3.11162e-66
-3.8701e-69
-2.6105e-72
-7.54072e-76
-5.2195e-80
-3.37436e-39
-2.04798e-40
-1.00482e-41
-3.99701e-43
-1.28695e-44
-3.34501e-46
-6.98281e-48
-1.16296e-49
-1.53123e-51
-1.57477e-53
-1.24591e-55
-7.42998e-58
-3.24905e-60
-1.00332e-62
-2.07444e-65
-2.65247e-68
-1.84654e-71
-5.52956e-75
-3.98904e-79
-1.71493e-38
-1.0554e-39
-5.24633e-41
-2.11285e-42
-6.88206e-44
-1.80807e-45
-3.81187e-47
-6.40738e-49
-8.51123e-51
-8.83266e-53
-7.05898e-55
-4.26044e-57
-1.89049e-59
-5.94284e-62
-1.25533e-64
-1.64639e-67
-1.18072e-70
-3.6599e-74
-2.74827e-78
-8.23326e-38
-5.12901e-39
-2.57772e-40
-1.04832e-41
-3.44301e-43
-9.10619e-45
-1.92913e-46
-3.25339e-48
-4.32969e-50
-4.49997e-52
-3.60608e-54
-2.18794e-56
-9.79488e-59
-3.11975e-61
-6.70859e-64
-9.00141e-67
-6.63857e-70
-2.12769e-73
-1.66199e-77
-3.71314e-37
-2.33572e-38
-1.18319e-39
-4.84053e-41
-1.59479e-42
-4.21895e-44
-8.90549e-46
-1.49144e-47
-1.9632e-49
-2.01574e-51
-1.59931e-53
-9.64812e-56
-4.31843e-58
-1.38401e-60
-3.01503e-63
-4.12671e-66
-3.12567e-69
-1.03575e-72
-8.42266e-77
-1.5619e-36
-9.88443e-38
-5.0234e-39
-2.05502e-40
-6.73312e-42
-1.76186e-43
-3.64612e-45
-5.9358e-47
-7.50216e-49
-7.39021e-51
-5.6751e-53
-3.34351e-55
-1.47514e-57
-4.70779e-60
-1.03226e-62
-1.4372e-65
-1.11838e-68
-3.84235e-72
-3.26747e-76
-6.06976e-36
-3.84208e-37
-1.94432e-38
-7.87334e-40
-2.52239e-41
-6.38059e-43
-1.24477e-44
-1.84103e-46
-2.00152e-48
-1.72667e-50
-1.245e-52
-7.04077e-55
-3.01077e-57
-9.44946e-60
-2.07489e-62
-2.94783e-65
-2.38129e-68
-8.6151e-72
-7.8044e-76
-2.15002e-35
-1.34769e-36
-6.70124e-38
-2.63362e-39
-7.91394e-41
-1.80653e-42
-2.84784e-44
-2.0285e-46
-2.0958e-63
-1.12804e-66
-2.62642e-76
-2.15156e-72
-1.05057e-75
-1.70075e-61
-1.41103e-63
-4.38318e-66
-6.14949e-69
-3.36731e-72
-4.22294e-76
-6.79948e-35
-4.13927e-36
-1.96721e-37
-7.13972e-39
-1.7197e-40
-2.07985e-42
-4.62615e-54
-2.86077e-65
-2.88844e-64
-5.64224e-67
-4.59483e-90
2.97914e-65
-9.78416e-85
-2.17252e-100
-4.5084e-102
0
0
-3.17594e-74
-1.53101e-77
-1.85287e-34
-1.04665e-35
-4.39842e-37
-1.18603e-38
-4.31516e-49
-9.36032e-56
-3.00541e-53
-1.19436e-88
0
-4.34504e-100
5.88686e-49
5.4763e-56
-1.52877e-86
0
-8.89864e-97
-8.59036e-103
4.04146e-92
0
-3.45949e-77
-4.04461e-34
-1.81241e-35
-3.90738e-37
-1.82777e-47
-2.80846e-48
-3.91143e-54
-1.30471e-57
1.46443e-48
1.80486e-65
7.11674e-44
4.79925e-47
7.12446e-65
1.84986e-77
4.79135e-66
-5.0745e-78
2.58046e-98
9.16942e-76
3.36999e-75
1.69554e-79
-5.63727e-34
-4.58583e-44
-6.89378e-45
-8.64283e-50
-2.02476e-50
-1.76256e-68
5.91416e-61
2.38945e-48
5.2753e-40
1.8587e-42
1.41592e-57
1.00825e-57
1.13823e-55
1.32775e-59
-1.95606e-85
7.55e-67
3.97362e-78
6.91722e-78
1.41541e-77
-1.24473e-41
-3.17342e-42
-6.72362e-74
9.66893e-39
1.94313e-41
1.51525e-44
2.26256e-45
1.14136e-36
9.90481e-39
4.13654e-54
1.22818e-56
1.79902e-56
3.28372e-56
1.29913e-64
3.40194e-73
4.12511e-76
3.79043e-76
4.1272e-76
4.3604e-76
-6.43163e-42
-8.81279e-69
3.34941e-37
1.75162e-38
2.79694e-39
2.17024e-42
8.8539e-34
1.25116e-35
2.58569e-49
2.42119e-49
4.59916e-49
3.62246e-52
4.42396e-63
3.19662e-64
4.92084e-63
7.66566e-76
9.65619e-76
1.60444e-75
2.90771e-75
-5.56715e-51
-7.93785e-53
2.15921e-34
1.36654e-36
3.69395e-39
4.38622e-31
8.27071e-33
5.63633e-46
5.34778e-46
1.01083e-45
7.04375e-52
2.79457e-52
5.1168e-56
4.42396e-63
2.17141e-62
2.73886e-66
1.0278e-75
5.49141e-75
8.20339e-75
9.00654e-52
2.94359e-32
4.14448e-34
1.57455e-36
1.17103e-28
3.41433e-30
4.37912e-43
4.12334e-43
7.44791e-43
6.7313e-46
2.79315e-57
7.04853e-59
6.89135e-59
2.12688e-57
1.12232e-74
8.58159e-75
8.57832e-75
1.15487e-74
1.48203e-74
1.83569e-30
4.45329e-32
4.43473e-34
1.95234e-26
7.97005e-28
2.12719e-40
2.0093e-40
3.42231e-40
2.06151e-43
2.22128e-51
6.00908e-54
8.81865e-51
2.38778e-60
2.36987e-60
2.36987e-60
2.40443e-60
8.58159e-75
1.60777e-74
1.66977e-74
2.80948e-30
4.82265e-32
1.96878e-24
1.09615e-25
1.20666e-37
1.17579e-37
2.12429e-37
4.00724e-41
1.17925e-47
1.63982e-48
3.40224e-47
6.94192e-53
6.94016e-53
2.36988e-60
2.09029e-58
4.34792e-58
6.4483e-61
1.60778e-74
1.67825e-74
3.01066e-30
1.4529e-22
9.52309e-24
8.31219e-36
7.87076e-36
1.04093e-35
7.04583e-38
9.28597e-44
8.06621e-44
1.13587e-43
1.50292e-46
5.73551e-49
2.89534e-60
2.38778e-60
3.66447e-60
3.7785e-60
4.09715e-60
4.61284e-64
1.67825e-74
7.24398e-21
5.91952e-22
1.96963e-33
2.48012e-33
4.2888e-33
1.15116e-37
1.63666e-38
1.159e-43
3.87345e-42
8.46578e-43
4.26636e-49
4.28578e-49
5.888e-58
3.90477e-47
2.197e-51
3.17166e-69
3.37456e-69
2.96261e-69
3.73552e-69
2.6728e-20
4.3962e-33
1.34909e-33
1.34787e-33
1.3656e-33
3.76004e-38
1.48177e-38
1.15472e-38
1.98815e-40
8.77114e-47
1.77219e-47
4.26636e-49
1.31773e-42
2.77073e-45
7.36673e-64
1.16658e-68
6.13902e-60
3.70575e-66
2.96261e-69
1.36743e-29
1.88158e-27
3.55526e-27
1.75141e-32
3.0426e-38
8.38698e-38
2.89449e-38
2.95129e-38
6.12711e-40
6.56496e-46
8.77114e-47
9.32457e-39
4.50078e-41
1.27173e-58
5.7905e-63
3.1893e-66
5.80167e-66
5.799e-66
6.20033e-66
1.37544e-29
2.79127e-26
1.06056e-26
3.0426e-38
2.99266e-38
2.99258e-38
2.9927e-38
3.03188e-38
3.63558e-39
1.01114e-43
2.51854e-35
1.88828e-37
2.96329e-54
2.95723e-58
1.32275e-62
1.18434e-65
1.47697e-65
2.5691e-65
4.813e-65
1.27638e-29
1.52084e-27
1.17401e-27
3.44936e-29
3.01294e-38
3.03318e-38
3.03443e-38
3.0331e-38
3.63567e-39
2.85569e-32
1.24255e-29
1.23047e-29
1.15362e-29
3.05866e-38
3.05862e-38
3.06683e-38
3.05051e-38
-2.92501e-97
-5.96589e-98
-8.6018e-99
-8.7728e-100
-6.28772e-101
-3.13185e-102
-1.06847e-103
-2.46036e-105
-3.76745e-107
-3.78628e-109
-2.47077e-111
-1.03818e-113
-2.79228e-116
-4.77946e-119
-5.16493e-122
-3.4782e-125
-1.42721e-128
-3.4319e-132
-4.51317e-136
-2.83578e-140
-6.03197e-145
-2.51158e-96
-5.08767e-97
-7.32353e-98
-7.48694e-99
-5.40014e-100
-2.7179e-101
-9.40994e-103
-2.2088e-104
-3.46304e-106
-3.57797e-108
-2.40817e-110
-1.04577e-112
-2.90816e-115
-5.13997e-118
-5.71793e-121
-3.94553e-124
-1.64893e-127
-4.00932e-131
-5.28589e-135
-3.29143e-139
-6.79534e-144
-2.13879e-95
-4.29466e-96
-6.17144e-97
-6.32631e-98
-4.59391e-99
-2.3374e-100
-8.2166e-102
-1.96711e-103
-3.15981e-105
-3.35891e-107
-2.3341e-109
-1.04892e-111
-3.02087e-114
-5.52368e-117
-6.33857e-120
-4.49013e-123
-1.91368e-126
-4.70421e-130
-6.1991e-134
-3.79193e-138
-7.32669e-143
-1.81091e-94
-3.59007e-95
-5.14722e-96
-5.29196e-97
-3.87039e-98
-1.99168e-99
-7.11191e-101
-1.73744e-102
-2.86101e-104
-3.13127e-106
-2.24856e-108
-1.04692e-110
-3.12729e-113
-5.92684e-116
-7.03044e-119
-5.12367e-122
-2.231e-125
-5.54984e-129
-7.30375e-133
-4.37149e-137
-7.95118e-142
-1.53219e-93
-2.97511e-94
-4.24938e-95
-4.38184e-96
-3.22892e-97
-1.68121e-98
-6.10078e-100
-1.52157e-101
-2.56983e-103
-2.89757e-105
-2.15191e-107
-1.03915e-109
-3.22398e-112
-6.34398e-115
-7.7949e-118
-5.85741e-121
-2.61123e-124
-6.58336e-128
-8.65425e-132
-5.05876e-136
-8.67913e-141
-1.30767e-92
-2.4498e-93
-3.4739e-94
-3.59132e-95
-2.66705e-96
-1.40562e-97
-5.18572e-99
-1.32094e-100
-2.28924e-102
-2.66063e-104
-2.04494e-106
-1.02514e-108
-3.30755e-111
-6.76868e-114
-8.63222e-117
-6.70387e-120
-3.06721e-123
-7.85458e-127
-1.0329e-130
-5.89679e-135
-9.47515e-140
-1.14445e-91
-2.01382e-92
-2.81502e-93
-2.91373e-94
-2.18088e-95
-1.16384e-96
-4.36699e-98
-1.13655e-99
-2.02194e-101
-2.4234e-103
-1.9288e-105
-1.0046e-107
-3.37455e-110
-7.19292e-113
-9.54003e-116
-7.67536e-119
-3.61383e-122
-9.42644e-126
-1.24334e-129
-6.94833e-134
-1.04529e-138
-1.05341e-90
-1.66778e-91
-2.26612e-92
-2.34108e-93
-1.76542e-94
-9.54215e-96
-3.64279e-97
-9.69e-99
-1.7702e-100
-2.18883e-102
-1.80491e-104
-9.77393e-107
-3.42159e-109
-7.60708e-112
-1.05125e-114
-8.78283e-118
-4.26774e-121
-1.1376e-124
-1.5103e-128
-8.29355e-133
-1.17405e-137
-1.05168e-89
-1.41482e-90
-1.82074e-91
-1.86465e-92
-1.41492e-93
-7.74621e-95
-3.00958e-96
-8.18485e-98
-1.53588e-99
-1.9598e-101
-1.675e-103
-9.43601e-106
-3.44556e-108
-8.00017e-111
-1.15396e-113
-1.00349e-116
-5.04717e-120
-1.37974e-123
-1.85156e-127
-1.00412e-131
-1.34623e-136
-1.16602e-88
-1.26261e-89
-1.47377e-90
-1.47569e-91
-1.12327e-92
-6.22629e-94
-2.46238e-95
-6.84835e-97
-1.32032e-98
-1.73903e-100
-1.541e-102
-9.03524e-105
-3.44383e-107
-8.36016e-110
-1.2607e-112
-1.14365e-115
-5.97141e-119
-1.6804e-122
-2.29012e-126
-1.23385e-130
-1.57859e-135
-1.43747e-87
-1.22619e-88
-1.22287e-89
-1.16615e-90
-8.84304e-92
-4.95628e-93
-1.99512e-94
-5.67549e-96
-1.1244e-97
-1.52895e-99
-1.40499e-101
-8.57687e-104
-3.41444e-106
-8.67444e-109
-1.36954e-111
-1.29874e-114
-7.05993e-118
-2.05295e-121
-2.85559e-125
-1.53863e-129
-1.89512e-134
-1.92779e-86
-1.3316e-87
-1.07021e-88
-9.29464e-90
-6.92171e-91
-3.90954e-92
-1.601e-93
-4.65847e-95
-9.48477e-97
-1.33163e-98
-1.26912e-100
-8.06823e-103
-3.35627e-105
-8.93046e-108
-1.47809e-110
-1.46807e-113
-8.33111e-117
-2.51281e-120
-3.58574e-124
-1.94588e-128
-2.33009e-133
-2.72799e-85
-1.62089e-86
-1.02474e-87
-7.61406e-89
-5.41667e-90
-3.06025e-91
-1.27284e-92
-3.78735e-94
-7.92465e-96
-1.14874e-97
-1.1355e-99
-7.51857e-102
-3.26917e-104
-9.11647e-107
-1.58351e-109
-1.65011e-112
-9.80059e-116
-3.07727e-119
-4.52794e-123
-2.49271e-127
-2.93261e-132
-3.96965e-84
-2.15862e-85
-1.1051e-86
-6.61215e-88
-4.28606e-89
-2.38456e-90
-1.00342e-91
-3.05058e-93
-6.55847e-95
-9.81476e-97
-1.00614e-98
-6.93866e-101
-3.15411e-103
-9.22231e-106
-1.68264e-108
-1.84239e-111
-1.14792e-114
-3.765e-118
-5.74059e-122
-3.22908e-126
-3.77315e-131
-5.83951e-83
-3.0405e-84
-1.34351e-85
-6.32928e-87
-3.50237e-88
-1.86184e-89
-7.85831e-91
-2.43578e-92
-5.37754e-94
-8.30582e-96
-8.82843e-98
-6.3403e-100
-3.01314e-102
-9.24022e-105
-1.77213e-107
-2.04144e-110
-1.33706e-113
-4.59521e-117
-7.2942e-121
-4.22142e-125
-4.95271e-130
-8.59773e-82
-4.40439e-83
-1.79074e-84
-6.87142e-86
-3.05742e-87
-1.47604e-88
-6.1382e-90
-1.93038e-91
-4.37045e-93
-6.96329e-95
-7.67148e-97
-5.73579e-99
-2.84938e-101
-9.16564e-104
-1.84864e-106
-2.24279e-109
-1.54688e-112
-5.58648e-116
-9.27153e-120
-5.55677e-124
-6.61524e-129
-1.26002e-80
-6.44407e-82
-2.52248e-83
-8.4327e-85
-2.96874e-86
-1.21719e-87
-4.82129e-89
-1.52232e-90
-3.52398e-92
-5.78573e-94
-6.60283e-96
-5.13731e-98
-2.6669e-100
-8.99775e-103
-1.90905e-105
-2.44112e-108
-1.77564e-111
-6.75504e-115
-1.17668e-118
-7.34714e-123
-8.96398e-128
-1.83243e-79
-9.42588e-81
-3.64738e-82
-1.13245e-83
-3.28764e-85
-1.08328e-86
-3.86895e-88
-1.20087e-89
-2.82421e-91
-4.76823e-93
-5.63137e-95
-4.55638e-97
-2.4705e-99
-8.73983e-102
-1.95074e-104
-2.63045e-107
-2.02024e-110
-8.11283e-114
-1.4883e-117
-9.73358e-122
-1.22824e-126
-2.63981e-78
-1.37079e-79
-5.31664e-81
-1.60119e-82
-4.10973e-84
-1.08258e-85
-3.26114e-87
-9.57424e-89
-2.25769e-90
-3.90332e-92
-4.76262e-94
-4.00331e-96
-2.26547e-98
-8.39936e-101
-1.97183e-103
-2.80457e-106
-2.27622e-109
-9.6653e-113
-1.87272e-116
-1.28891e-120
-1.69594e-125
-3.76293e-77
-1.97612e-78
-7.73519e-80
-2.31578e-81
-5.58811e-83
-1.23677e-84
-3.00214e-86
-7.86477e-88
-1.81279e-89
-3.18223e-91
-3.9991e-93
-3.48687e-95
-2.05729e-97
-7.98769e-100
-1.9714e-102
-2.95745e-105
-2.53785e-108
-1.14093e-111
-2.34042e-115
-1.70197e-119
-2.35189e-124
-5.30332e-76
-2.8191e-77
-1.11737e-78
-3.36743e-80
-7.94965e-82
-1.58478e-83
-3.12797e-85
-6.86803e-87
-1.48135e-88
-2.59649e-90
-3.34103e-92
-3.01413e-94
-1.85137e-96
-7.51946e-99
-1.9496e-101
-3.08377e-104
-2.79841e-107
-1.33317e-110
-2.90072e-114
-2.23623e-118
-3.26506e-123
-7.38521e-75
-3.97556e-76
-1.5981e-77
-4.87785e-79
-1.1514e-80
-2.18765e-82
-3.7157e-84
-6.62936e-86
-1.26061e-87
-2.13988e-89
-2.78752e-91
-2.59053e-93
-1.65278e-95
-7.01178e-98
-1.90775e-100
-3.1795e-103
-3.05065e-106
-1.54082e-109
-3.56085e-113
-2.91786e-117
-4.52399e-122
-1.01562e-73
-5.53792e-75
-2.25943e-76
-7.00494e-78
-1.67149e-79
-3.13425e-81
-4.89529e-83
-7.27045e-85
-1.15563e-86
-1.81086e-88
-2.33819e-90
-2.22035e-92
-1.46616e-94
-6.4833e-97
-1.84832e-99
-3.24236e-102
-3.28742e-105
-1.76046e-108
-4.32493e-112
-3.77443e-116
-6.23913e-121
-1.37856e-72
-7.61535e-74
-3.1546e-75
-9.94761e-77
-2.41211e-78
-4.54781e-80
-6.86378e-82
-9.01292e-84
-1.18235e-85
-1.61574e-87
-1.99538e-89
-1.90758e-91
-1.2957e-93
-5.95333e-96
-1.77477e-98
-3.27218e-101
-3.50246e-104
-1.98786e-107
-5.19331e-111
-4.83348e-115
-8.54407e-120
-1.84598e-71
-1.03321e-72
-4.34632e-74
-1.39488e-75
-3.44559e-77
-6.5926e-79
-9.90158e-81
-1.22071e-82
-1.3715e-84
-1.57264e-86
-1.76721e-88
-1.65732e-90
-1.14545e-92
-5.44145e-95
-1.69143e-97
-3.27112e-100
-3.69114e-103
-2.21845e-106
-6.16228e-110
-6.12086e-114
-1.15952e-118
-2.43736e-70
-1.38236e-71
-5.90569e-73
-1.92952e-74
-4.86085e-76
-9.48001e-78
-1.43898e-79
-1.73658e-81
-1.77332e-83
-1.71658e-85
-1.67152e-87
-1.47786e-89
-1.01987e-91
-4.96783e-94
-1.60334e-96
-3.24373e-99
-3.85124e-102
-2.44787e-105
-7.22459e-109
-7.65922e-113
-1.55694e-117
-3.17165e-69
-1.82289e-70
-7.90953e-72
-2.63116e-73
-6.76336e-75
-1.34726e-76
-2.08263e-78
-2.52003e-80
-2.46317e-82
-2.10575e-84
-1.74106e-86
-1.38364e-88
-9.24883e-91
-4.55491e-93
-1.51626e-95
-3.19696e-98
-3.98352e-101
-2.67265e-104
-8.37082e-108
-9.46722e-112
-2.0661e-116
-4.06542e-68