/*--------------------------------*- C++ -*----------------------------------*\
| =========                 |                                                 |
| \\      /  F ield         | OpenFOAM: The Open Source CFD Toolbox           |
|  \\    /   O peration     | Version:  v2012                                 |
|   \\  /    A nd           | Website:  www.openfoam.com                      |
|    \\/     M anipulation  |                                                 |
\*---------------------------------------------------------------------------*/
FoamFile
{
    version     2.0;
    format      ascii;
    class       volScalarField;
    location    "0.3";
    object      alpha.water;
}
// * * * * * * * * * * * * * * * * * * * * * * * * * * * * * * * * * * * * * //

dimensions      [0 0 0 0 0 0 0];


internalField   nonuniform List<scalar> 
15860
(
-1.1633e-110
-7.26049e-107
-5.05743e-105
-5.5669e-104
-6.65185e-104
-3.49572e-104
-1.0063e-104
-2.59957e-105
-3.25366e-106
-2.99132e-107
-2.21444e-108
-1.69986e-109
-9.82529e-111
-4.1252e-112
-1.64933e-113
-5.36599e-113
-1.75035e-108
-3.07255e-104
-5.95655e-100
-1.15357e-95
-3.04085e-91
-9.20456e-87
-3.13326e-82
-1.5209e-77
-9.71109e-78
-2.9364e-78
-5.58154e-79
-7.47198e-80
-7.48334e-81
-5.81861e-82
-3.59919e-83
-1.80146e-84
-7.38597e-86
-2.50308e-87
-7.05898e-89
-1.66484e-90
-3.28483e-92
-5.47272e-94
-7.6881e-96
-9.11873e-98
-9.13227e-100
-7.72272e-102
-5.50826e-104
-3.30904e-106
-1.67081e-108
-7.06561e-111
-2.49346e-113
-7.3045e-116
-1.76524e-118
-3.49131e-121
-5.59387e-124
-7.17157e-127
-7.24016e-130
-5.63741e-133
-3.29384e-136
-1.39081e-139
-4.01815e-143
-7.29043e-147
-7.12109e-151
-2.54996e-155
-1.37456e-108
-5.87949e-105
-3.11484e-103
-2.81493e-102
-3.03301e-102
-1.46337e-102
-3.88075e-103
-1.00022e-103
-1.14788e-104
-1.00337e-105
-7.00858e-107
-5.24212e-108
-3.03958e-109
-1.22798e-110
-4.79373e-112
-1.8548e-111
-6.13883e-107
-1.03538e-102
-1.9145e-98
-3.52301e-94
-8.81862e-90
-2.55409e-85
-8.22267e-81
-3.28062e-76
-2.12006e-76
-6.49435e-77
-1.25169e-77
-1.70036e-78
-1.72933e-79
-1.36635e-80
-8.59335e-82
-4.37543e-83
-1.82572e-84
-6.2993e-86
-1.80918e-87
-4.34643e-89
-8.73743e-91
-1.48316e-92
-2.12282e-94
-2.56512e-96
-2.61677e-98
-2.25359e-100
-1.63649e-102
-1.00054e-104
-5.13943e-107
-2.20994e-109
-7.92572e-112
-2.35815e-114
-5.78417e-117
-1.1603e-119
-1.88405e-122
-2.44578e-125
-2.49777e-128
-1.96517e-131
-1.15869e-134
-4.92897e-138
-1.43134e-141
-2.60088e-145
-2.52542e-149
-8.77196e-154
-1.54007e-106
-4.51668e-103
-1.8198e-101
-1.35768e-100
-1.324e-100
-5.88734e-101
-1.45012e-101
-3.68527e-102
-3.91513e-103
-3.29983e-104
-2.11653e-105
-1.54703e-106
-8.91742e-108
-3.49924e-109
-1.33834e-110
-5.39239e-110
-1.80053e-105
-2.92666e-101
-5.16796e-97
-9.07533e-93
-2.17385e-88
-6.09205e-84
-1.89101e-79
-6.83862e-75
-4.47617e-75
-1.39016e-75
-2.71883e-76
-3.75092e-77
-3.87708e-78
-3.11539e-79
-1.99386e-80
-1.03363e-81
-4.39334e-83
-1.54468e-84
-4.52224e-86
-1.10774e-87
-2.27103e-89
-3.93164e-91
-5.73929e-93
-7.07272e-95
-7.35738e-97
-6.45986e-99
-4.78111e-101
-2.9783e-103
-1.55804e-105
-6.81962e-108
-2.48822e-110
-7.52684e-113
-1.8757e-115
-3.81967e-118
-6.29064e-121
-8.27409e-124
-8.55147e-127
-6.79921e-130
-4.04406e-133
-1.73122e-136
-5.04129e-140
-9.13107e-144
-8.72994e-148
-2.89628e-152
-1.63661e-104
-3.30558e-101
-1.01927e-99
-6.29242e-99
-5.52716e-99
-2.2615e-99
-5.2069e-100
-1.29336e-100
-1.29293e-101
-1.04972e-102
-6.38146e-104
-4.39837e-105
-2.49749e-106
-9.564e-108
-3.60026e-109
-1.28356e-108
-4.30036e-104
-6.76488e-100
-1.14398e-95
-1.92998e-91
-4.47528e-87
-1.23756e-82
-3.8418e-78
-1.37668e-73
-9.13404e-74
-2.87831e-74
-5.71684e-75
-8.01615e-76
-8.4277e-77
-6.89262e-78
-4.49261e-79
-2.37321e-80
-1.02834e-81
-3.68746e-83
-1.10138e-84
-2.75315e-86
-5.76145e-88
-1.01818e-89
-1.51729e-91
-1.90872e-93
-2.02664e-95
-1.81591e-97
-1.3712e-99
-8.71154e-102
-4.64596e-104
-2.07209e-106
-7.69906e-109
-2.37014e-111
-6.00634e-114
-1.24275e-116
-2.0775e-119
-2.77053e-122
-2.8993e-125
-2.33023e-128
-1.39803e-131
-6.0191e-135
-1.755e-138
-3.15925e-142
-2.95848e-146
-9.32861e-151
-1.63597e-102
-2.28458e-99
-5.46374e-98
-2.82084e-97
-2.24052e-97
-8.32894e-98
-1.79516e-98
-4.28978e-99
-4.06331e-100
-3.18666e-101
-1.8409e-102
-1.20249e-103
-6.63222e-105
-2.50023e-106
-9.28998e-108
-2.41289e-107
-8.07482e-103
-1.238e-98
-2.01625e-94
-3.30273e-90
-7.5387e-86
-2.11923e-81
-6.94679e-77
-2.67455e-72
-1.80013e-72
-5.76009e-73
-1.16274e-73
-1.65837e-74
-1.77475e-75
-1.47848e-76
-9.82189e-78
-5.29096e-79
-2.33908e-80
-8.56102e-82
-2.61081e-83
-6.66543e-85
-1.42497e-86
-2.57279e-88
-3.91724e-90
-5.03476e-92
-5.46134e-94
-4.99835e-96
-3.85422e-98
-2.49969e-100
-1.36033e-102
-6.18779e-105
-2.34352e-107
-7.34875e-110
-1.89548e-112
-3.98816e-115
-6.77262e-118
-9.16373e-121
-9.71531e-124
-7.89621e-127
-4.7791e-130
-2.06879e-133
-6.03445e-137
-1.07777e-140
-9.85892e-145
-2.94721e-149
-1.54258e-100
-1.48747e-97
-2.79314e-96
-1.2222e-95
-8.79719e-96
-2.93184e-96
-5.93186e-97
-1.34674e-97
-1.21187e-98
-9.29823e-100
-5.14554e-101
-3.15188e-102
-1.67676e-103
-6.26773e-105
-2.30274e-106
-3.40114e-106
-1.13326e-101
-1.71563e-97
-2.71775e-93
-4.40147e-89
-1.01567e-84
-3.03696e-80
-1.12564e-75
-5.0103e-71
-3.42361e-71
-1.11326e-71
-2.2857e-72
-3.31845e-73
-3.61767e-74
-3.07209e-75
-2.08162e-76
-1.14436e-77
-5.1654e-79
-1.93107e-80
-6.01745e-82
-1.57019e-83
-3.43192e-85
-6.33548e-87
-9.8635e-89
-1.2963e-90
-1.43771e-92
-1.34516e-94
-1.06012e-96
-7.02486e-99
-3.90436e-101
-1.81293e-103
-7.00485e-106
-2.23938e-108
-5.88399e-111
-1.25997e-113
-2.17525e-116
-2.98834e-119
-3.21171e-122
-2.64097e-125
-1.61297e-128
-7.0204e-132
-2.04788e-135
-3.62596e-139
-3.23669e-143
-9.16678e-148
-1.36842e-98
-9.04799e-96
-1.35344e-94
-5.06186e-94
-3.30128e-94
-9.88886e-95
-1.86497e-95
-3.98046e-96
-3.4258e-97
-2.57589e-98
-1.38059e-99
-7.88094e-101
-4.02608e-102
-1.50114e-103
-5.47032e-105
-3.33632e-105
-1.10003e-100
-1.68762e-96
-2.64102e-92
-4.3672e-88
-1.07075e-83
-3.66975e-79
-1.6603e-74
-9.0426e-70
-6.27801e-70
-2.07615e-70
-4.33894e-71
-6.41718e-72
-7.13178e-73
-6.17797e-74
-4.27281e-75
-2.39888e-76
-1.10633e-77
-4.22764e-79
-1.34705e-80
-3.59518e-82
-8.0394e-84
-1.51853e-85
-2.4192e-87
-3.25347e-89
-3.6922e-91
-3.53428e-93
-2.84904e-95
-1.93046e-97
-1.09668e-99
-5.20247e-102
-2.05243e-104
-6.69483e-107
-1.79339e-109
-3.91152e-112
-6.87056e-115
-9.59028e-118
-1.04556e-120
-8.70344e-124
-5.36644e-127
-2.34916e-130
-6.85361e-134
-1.20297e-137
-1.04813e-141
-2.81592e-146
-1.14186e-96
-5.16657e-94
-6.25931e-93
-2.00083e-92
-1.17955e-92
-3.22874e-93
-5.58946e-94
-1.11166e-94
-9.24675e-96
-6.71723e-97
-3.53286e-98
-1.88083e-99
-9.21092e-101
-3.43676e-102
-1.24491e-103
-2.11812e-104
-6.48956e-100
-1.06764e-95
-1.70188e-91
-3.06256e-87
-8.86023e-83
-3.90365e-78
-2.30278e-73
-1.57081e-68
-1.10894e-68
-3.73258e-69
-7.94638e-70
-1.19812e-70
-1.35842e-71
-1.20125e-72
-8.48607e-74
-4.86893e-75
-2.29587e-76
-8.9737e-78
-2.92565e-79
-7.99182e-81
-1.82961e-82
-3.53845e-84
-5.77235e-86
-7.94935e-88
-9.23742e-90
-9.05298e-92
-7.47003e-94
-5.17951e-96
-3.00985e-98
-1.45983e-100
-5.88488e-103
-1.96015e-105
-5.35737e-108
-1.19107e-110
-2.13016e-113
-3.02336e-116
-3.34599e-119
-2.8214e-122
-1.75732e-125
-7.74099e-129
-2.25984e-132
-3.9345e-136
-3.35026e-140
-8.56205e-145
-8.9365e-95
-2.78927e-92
-2.73185e-91
-7.47417e-91
-3.95689e-91
-1.01116e-91
-1.61822e-92
-2.97246e-93
-2.40309e-94
-1.65585e-95
-8.61098e-97
-4.30948e-98
-2.01614e-99
-7.54015e-101
-2.71324e-102
-1.25149e-103
-1.91172e-99
-3.78173e-95
-6.6817e-91
-1.54765e-86
-6.46679e-82
-4.05373e-77
-3.13261e-72
-2.62372e-67
-1.88496e-67
-6.46269e-68
-1.40263e-68
-2.1576e-69
-2.49744e-70
-2.25609e-71
-1.62906e-72
-9.55852e-74
-4.61136e-75
-1.84481e-76
-6.15809e-78
-1.7228e-79
-4.04051e-81
-8.0061e-83
-1.33824e-84
-1.88842e-86
-2.24846e-88
-2.25757e-90
-1.90809e-92
-1.35478e-94
-8.05874e-97
-3.99909e-99
-1.6485e-101
-5.61095e-104
-1.56585e-106
-3.55119e-109
-6.47136e-112
-9.34616e-115
-1.05075e-117
-8.9815e-121
-5.655e-124
-2.50849e-127
-7.33369e-131
-1.26792e-134
-1.05727e-138
-2.58025e-143
-6.54891e-93
-1.41916e-90
-1.12719e-89
-2.62031e-89
-1.24354e-89
-2.99527e-90
-4.5026e-91
-7.55811e-92
-6.07216e-93
-3.88922e-94
-2.00485e-95
-9.54098e-97
-4.23914e-98
-1.59647e-99
-5.68028e-101
-1.93792e-102
-2.88553e-99
-6.52705e-95
-1.74932e-90
-7.63943e-86
-5.22764e-81
-4.51258e-76
-4.28301e-71
-4.2091e-66
-3.0799e-66
-1.07647e-66
-2.38363e-67
-3.74362e-68
-4.42716e-69
-4.08842e-70
-3.01953e-71
-1.81306e-72
-8.95485e-74
-3.66907e-75
-1.25478e-76
-3.59742e-78
-8.64859e-80
-1.75681e-81
-3.01075e-83
-4.35602e-85
-5.31754e-87
-5.47334e-89
-4.74147e-91
-3.44958e-93
-2.10179e-95
-1.06785e-97
-4.50424e-100
-1.56771e-102
-4.47024e-105
-1.03491e-107
-1.92303e-110
-2.82813e-113
-3.23237e-116
-2.80294e-119
-1.78543e-122
-7.98251e-126
-2.3396e-129
-4.02276e-133
-3.2934e-137
-7.71078e-142
-4.4758e-91
-6.69848e-89
-4.38519e-88
-8.61398e-88
-3.68343e-88
-8.2826e-89
-1.19372e-89
-1.82326e-90
-1.47828e-91
-8.71861e-93
-4.42857e-94
-2.02542e-95
-8.65069e-97
-3.25768e-98
-1.14066e-99
-3.66534e-101
-2.10357e-100
-1.20373e-94
-7.00376e-90
-5.27624e-85
-4.70954e-80
-5.13836e-75
-5.70163e-70
-6.47807e-65
-4.83181e-65
-1.72299e-65
-3.89554e-66
-6.25136e-67
-7.55851e-68
-7.14076e-69
-5.39799e-70
-3.31903e-71
-1.67937e-72
-7.05169e-74
-2.47223e-75
-7.26785e-77
-1.79213e-78
-3.73418e-80
-6.56498e-82
-9.74429e-84
-1.22027e-85
-1.28836e-87
-1.14461e-89
-8.53797e-92
-5.3317e-94
-2.77512e-96
-1.19854e-98
-4.26848e-101
-1.24445e-103
-2.94301e-106
-5.58007e-109
-8.36262e-112
-9.72399e-115
-8.56102e-118
-5.52179e-121
-2.49076e-124
-7.32787e-128
-1.25536e-131
-1.01205e-135
-2.28484e-140
-2.88464e-89
-2.9755e-87
-1.61148e-86
-2.66617e-86
-1.02247e-86
-2.16339e-87
-2.99677e-88
-4.16795e-89
-3.43526e-90
-1.85112e-91
-9.15783e-93
-4.1501e-94
-1.70778e-95
-6.39724e-97
-2.19273e-98
-6.90973e-100
-2.34781e-100
-6.27164e-94
-4.09246e-89
-3.39306e-84
-3.63784e-79
-5.06979e-74
-6.79032e-69
-9.5528e-64
-7.26912e-64
-2.64679e-64
-6.11509e-65
-1.00346e-65
-1.24141e-66
-1.20065e-67
-9.29622e-69
-5.8571e-70
-3.038e-71
-1.30814e-72
-4.70431e-74
-1.41893e-75
-3.59071e-77
-7.67887e-79
-1.38569e-80
-2.11117e-82
-2.71366e-84
-2.94046e-86
-2.68062e-88
-2.05124e-90
-1.3136e-92
-7.00852e-95
-3.10108e-97
-1.13077e-99
-3.37279e-102
-8.15307e-105
-1.57843e-107
-2.41225e-110
-2.85582e-113
-2.55479e-116
-1.67007e-119
-7.6088e-123
-2.25025e-126
-3.84865e-130
-3.06503e-134
-6.70868e-139
-1.74844e-87
-1.26346e-85
-5.64889e-85
-7.97071e-85
-2.6944e-85
-5.35991e-86
-7.131e-87
-9.0332e-88
-7.64937e-89
-3.83913e-90
-1.84751e-91
-8.14568e-93
-3.26289e-94
-1.19986e-95
-4.01519e-97
-1.24316e-98
-2.69093e-99
-1.54014e-93
-1.23125e-88
-1.29278e-83
-1.85594e-78
-3.7159e-73
-6.65316e-68
-1.34795e-62
-1.04733e-62
-3.89723e-63
-9.20857e-64
-1.54641e-64
-1.95896e-65
-1.94103e-66
-1.54041e-67
-9.95181e-69
-5.29489e-70
-2.33945e-71
-8.635e-73
-2.67378e-74
-6.94776e-76
-1.52577e-77
-2.82762e-79
-4.42437e-81
-5.84034e-83
-6.49835e-85
-6.08204e-87
-4.77689e-89
-3.13875e-91
-1.71751e-93
-7.79008e-96
-2.90996e-98
-8.88519e-101
-2.19677e-103
-4.34531e-106
-6.77656e-109
-8.17421e-112
-7.43649e-115
-4.93157e-118
-2.27198e-121
-6.76469e-125
-1.15756e-128
-9.13693e-133
-1.94961e-137
-9.8836e-86
-5.07247e-84
-1.87535e-83
-2.25712e-83
-6.83724e-84
-1.27884e-84
-1.59e-85
-1.89257e-86
-1.60463e-87
-7.64824e-89
-3.56756e-90
-1.52509e-91
-5.9693e-93
-2.13789e-94
-6.97716e-96
-2.12085e-97
-1.84152e-98
-3.59997e-94
-8.87232e-89
-1.82752e-83
-4.57469e-78
-1.77138e-72
-5.03494e-67
-1.81736e-61
-1.44312e-61
-5.4927e-62
-1.32845e-62
-2.2849e-63
-2.96616e-64
-3.01328e-65
-2.45281e-66
-1.626e-67
-8.87997e-69
-4.02838e-70
-1.52703e-71
-4.85689e-73
-1.29663e-74
-2.92566e-76
-5.57116e-78
-8.95722e-80
-1.21488e-81
-1.38874e-83
-1.33509e-85
-1.07679e-87
-7.26317e-90
-4.0782e-92
-1.89709e-94
-7.26351e-97
-2.27159e-99
-5.74752e-102
-1.16229e-104
-1.85088e-107
-2.27643e-110
-2.10781e-113
-1.41939e-116
-6.62038e-120
-1.98766e-123
-3.41042e-127
-2.67692e-131
-5.59908e-136
-5.2022e-84
-1.93384e-82
-5.86506e-82
-5.98924e-82
-1.67094e-82
-2.90089e-83
-3.32603e-84
-3.8357e-85
-3.19612e-86
-1.44604e-87
-6.58426e-89
-2.70736e-90
-1.03695e-91
-3.60118e-93
-1.14583e-94
-3.41698e-96
-9.23656e-98
-2.3371e-99
-5.34179e-101
-1.07162e-98
5.60383e-86
-4.03063e-72
-2.62973e-66
-2.33761e-60
-1.89883e-60
-7.399e-61
-1.83331e-61
-3.23234e-62
-4.30352e-63
-4.48583e-64
-3.74812e-65
-2.55133e-66
-1.43115e-67
-6.67029e-69
-2.59831e-70
-8.49379e-72
-2.33099e-73
-5.4068e-75
-1.05847e-76
-1.74952e-78
-2.43931e-80
-2.86607e-82
-2.83153e-84
-2.34626e-86
-1.62538e-88
-9.36915e-91
-4.47204e-93
-1.75587e-95
-5.62729e-98
-1.45787e-100
-3.01578e-103
-4.90693e-106
-6.15784e-109
-5.80771e-112
-3.9751e-115
-1.87935e-118
-5.69852e-122
-9.82526e-126
-7.69428e-130
-1.58602e-134
-2.54585e-82
-6.92908e-81
-1.70554e-80
-1.52791e-80
-3.94967e-81
-6.19327e-82
-6.72721e-83
-7.21351e-84
-5.96518e-85
-2.59788e-86
-1.14805e-87
-4.57432e-89
-1.71249e-90
-5.74531e-92
-1.77693e-93
-5.17835e-95
-1.36201e-96
-3.35344e-98
-7.41668e-100
-4.18657e-98
6.43936e-85
-1.38776e-74
-7.48319e-66
-2.86384e-59
-2.38196e-59
-9.51124e-60
-2.41658e-60
-4.37145e-61
-5.97422e-62
-6.39478e-63
-5.48878e-64
-3.8392e-65
-2.21354e-66
-1.06065e-67
-4.24833e-69
-1.42817e-70
-4.03126e-72
-9.61759e-74
-1.93661e-75
-3.29242e-77
-4.72127e-79
-5.70444e-81
-5.79416e-83
-4.93481e-85
-3.51256e-87
-2.07953e-89
-1.01894e-91
-4.10454e-94
-1.34866e-96
-3.57939e-99
-7.57831e-102
-1.26062e-104
-1.61523e-107
-1.55291e-110
-1.08136e-113
-5.18828e-117
-1.59124e-120
-2.76288e-124
-2.16549e-128
-4.4216e-133
-1.15299e-80
-2.31632e-79
-4.57834e-79
-3.67066e-79
-8.90862e-80
-1.25175e-80
-1.29287e-81
-1.30947e-82
-1.04587e-83
-4.43938e-85
-1.88469e-86
-7.3144e-88
-2.65866e-89
-8.64299e-91
-2.58793e-92
-7.34259e-94
-1.8719e-95
-4.4608e-97
-9.53762e-99
-1.42401e-97
6.82553e-84
-1.44755e-73
-1.21555e-65
-3.33589e-58
-2.84385e-58
-1.16481e-58
-3.03765e-59
-5.64299e-60
-7.92317e-61
-8.71637e-62
-7.69154e-63
-5.53248e-64
-3.28099e-65
-1.61737e-66
-6.66546e-68
-2.3057e-69
-6.69775e-71
-1.64443e-72
-3.40765e-74
-5.96174e-76
-8.79669e-78
-1.09346e-79
-1.14239e-81
-1.00047e-83
-7.32007e-86
-4.45278e-88
-2.24068e-90
-9.26417e-93
-3.12227e-95
-8.49308e-98
-1.84131e-100
-3.13318e-103
-4.10147e-106
-4.02261e-109
-2.85234e-112
-1.39037e-115
-4.31965e-119
-7.56852e-123
-5.95507e-127
-1.21027e-131
-4.79428e-79
-7.14607e-78
-1.17107e-77
-8.22623e-78
-1.86628e-78
-2.40952e-79
-2.30991e-80
-2.23496e-81
-1.72996e-82
-7.12773e-84
-2.892e-85
-1.09588e-86
-3.85214e-88
-1.21407e-89
-3.5159e-91
-9.65286e-93
-2.3774e-94
-5.44479e-96
-1.11941e-97
-3.91138e-97
6.56816e-83
-1.35968e-72
-2.71973e-64
-3.68765e-57
-3.22563e-57
-1.35663e-57
-3.635e-58
-6.94135e-59
-1.00224e-59
-1.13419e-60
-1.02981e-61
-7.62341e-63
-4.65369e-64
-2.36169e-65
-1.00208e-66
-3.56903e-68
-1.06757e-69
-2.69886e-71
-5.75857e-73
-1.03728e-74
-1.57561e-76
-2.01585e-78
-2.16714e-80
-1.95237e-82
-1.46893e-84
-9.1847e-87
-4.74837e-89
-2.01585e-91
-6.97147e-94
-1.94445e-96
-4.31881e-99
-7.52125e-102
-1.00648e-104
-1.0077e-107
-7.28216e-111
-3.6102e-114
-1.1378e-117
-2.01564e-121
-1.5966e-125
-3.24414e-130
-1.82094e-77
-2.00506e-76
-2.74142e-76
-1.72574e-76
-3.57993e-77
-4.33865e-78
-3.9066e-79
-3.55626e-80
-2.72164e-81
-1.07311e-82
-4.1392e-84
-1.52788e-85
-5.1598e-87
-1.58183e-88
-4.41962e-90
-1.16688e-91
-2.76153e-93
-6.03076e-95
-1.17845e-96
-6.15387e-97
5.55457e-82
-1.10129e-71
-5.85229e-63
-3.86102e-56
-3.46911e-56
-1.49982e-56
-4.1334e-57
-8.12203e-58
-1.20715e-58
-1.40656e-59
-1.31523e-60
-1.00286e-61
-6.30653e-63
-3.29729e-64
-1.44142e-65
-5.28917e-67
-1.63008e-68
-4.24564e-70
-9.33262e-72
-1.73167e-73
-2.70913e-75
-3.56908e-77
-3.94987e-79
-3.66199e-81
-2.83433e-83
-1.8223e-85
-9.68261e-88
-4.22234e-90
-1.49895e-92
-4.28857e-95
-9.7627e-98
-1.7409e-100
-2.38278e-103
-2.43699e-106
-1.79623e-109
-9.06581e-113
-2.90224e-116
-5.20782e-120
-4.1637e-124
-8.49275e-129
-6.44978e-76
-5.34522e-75
-5.86739e-75
-3.29446e-75
-6.16399e-76
-7.10656e-77
-6.29428e-78
-5.34433e-79
-3.98551e-80
-1.51697e-81
-5.5483e-83
-1.97271e-84
-6.39655e-86
-1.90422e-87
-5.09201e-89
-1.28084e-90
-2.89394e-92
-5.95201e-94
-1.08808e-95
0
3.8099e-81
-6.7852e-71
-1.20412e-61
-3.82078e-55
-3.53043e-55
-1.57082e-55
-4.45771e-56
-9.02318e-57
-1.38189e-57
-1.65953e-58
-1.59959e-59
-1.2574e-60
-8.15233e-62
-4.39462e-63
-1.98069e-64
-7.49284e-66
-2.38077e-67
-6.39227e-69
-1.44839e-70
-2.76982e-72
-4.46512e-74
-6.05989e-76
-6.90664e-78
-6.59212e-80
-5.25065e-82
-3.47251e-84
-1.89696e-86
-8.49995e-89
-3.09866e-91
-9.09727e-94
-2.1234e-96
-3.87883e-99
-5.43282e-102
-5.67927e-105
-4.27263e-108
-2.19745e-111
-7.15435e-115
-1.30256e-118
-1.05364e-122
-2.16525e-127
-2.13132e-74
-1.33774e-73
-1.18524e-73
-5.89054e-74
-9.93134e-75
-1.07221e-75
-9.52304e-77
-7.55557e-78
-5.33208e-79
-1.99919e-80
-6.97233e-82
-2.35845e-83
-7.30917e-85
-2.08621e-86
-5.29128e-88
-1.25153e-89
-2.66681e-91
-5.04819e-93
-8.40735e-95
1.83082e-92
1.64226e-80
-1.30166e-70
-2.35551e-60
-3.56553e-54
-3.39229e-54
-1.55527e-54
-4.55016e-55
-9.49881e-56
-1.50066e-56
-1.85935e-57
-1.84925e-58
-1.5e-59
-1.00353e-60
-5.58207e-62
-2.59581e-63
-1.01306e-64
-3.32076e-66
-9.19707e-68
-2.1493e-69
-4.23837e-71
-7.04375e-73
-9.85215e-75
-1.15687e-76
-1.13718e-78
-9.32451e-81
-6.34548e-83
-3.56505e-85
-1.64196e-87
-6.14872e-90
-1.85303e-92
-4.43631e-95
-8.30481e-98
-1.19087e-100
-1.27311e-103
-9.78251e-107
-5.1312e-110
-1.70091e-113
-3.14684e-117
-2.58086e-121
-5.36075e-126
-6.43486e-73
-3.09425e-72
-2.22963e-72
-9.65788e-73
-1.50382e-73
-1.52962e-74
-1.36599e-75
-9.88776e-77
-6.55189e-78
-2.41213e-79
-8.02194e-81
-2.55783e-82
-7.54946e-84
-2.05778e-85
-4.86588e-87
-1.05754e-88
-2.07205e-90
-3.44058e-92
-4.93281e-94
1.57795e-93
2.35026e-94
4.76255e-69
-4.35664e-59
-3.13025e-53
-3.07047e-53
-1.45241e-53
-4.38636e-54
-9.45535e-55
-1.54278e-55
-1.9744e-56
-2.02831e-57
-1.69937e-58
-1.17425e-59
-6.74557e-61
-3.23906e-62
-1.30503e-63
-4.41628e-65
-1.26249e-66
-3.04478e-68
-6.19476e-70
-1.06185e-71
-1.53136e-73
-1.85334e-75
-1.87694e-77
-1.58492e-79
-1.11019e-81
-6.41682e-84
-3.03871e-86
-1.16925e-88
-3.61826e-91
-8.88794e-94
-1.7057e-96
-2.50513e-99
-2.74015e-102
-2.15179e-105
-1.15198e-108
-3.89182e-112
-7.32655e-116
-6.10385e-120
-1.28509e-124
-1.77808e-71
-6.63762e-71
-3.83436e-71
-1.46129e-71
-2.09987e-72
-2.04912e-73
-1.80115e-74
-1.15638e-75
-7.31389e-77
-2.636e-78
-8.34422e-80
-2.51889e-81
-6.97418e-83
-1.77302e-84
-3.79844e-86
-7.21828e-88
-1.23422e-89
-1.53334e-91
-1.46127e-93
1.65097e-88
4.70051e-94
1.06097e-67
-7.57671e-58
-2.57869e-52
-2.61142e-52
-1.27625e-52
-3.98411e-53
-8.87989e-54
-1.49828e-54
-1.98289e-55
-2.10644e-56
-1.8248e-57
-1.3036e-58
-7.74091e-60
-3.84123e-61
-1.59896e-62
-5.59026e-64
-1.6507e-65
-4.11096e-67
-8.63413e-69
-1.52723e-70
-2.27194e-72
-2.83514e-74
-2.95926e-76
-2.57424e-78
-1.85665e-80
-1.10435e-82
-5.37868e-85
-2.12723e-87
-6.7612e-90
-1.70457e-92
-3.35468e-95
-5.0481e-98
-5.652e-101
-4.53833e-104
-2.48146e-107
-8.5516e-111
-1.64009e-114
-1.39027e-118
-2.97404e-123
-4.51529e-70
-1.30879e-69
-6.4154e-70
-2.21195e-70
-2.82455e-71
-2.54023e-72
-2.06746e-73
-1.21005e-74
-7.57026e-76
-2.61761e-77
-7.85402e-79
-2.22246e-80
-5.71781e-82
-1.30213e-83
-2.37404e-85
-3.24327e-87
-4.12223e-89
2.36982e-109
2.20707e-118
1.62525e-83
7.09224e-91
1.53987e-66
-1.23219e-56
-1.98783e-51
-2.08133e-51
-1.05247e-51
-3.4011e-52
-7.84897e-53
-1.37135e-53
-1.87923e-54
-2.06685e-55
-1.85342e-56
-1.37029e-57
-8.41913e-59
-4.32114e-60
-1.85985e-61
-6.72326e-63
-2.05211e-64
-5.28089e-66
-1.1456e-67
-2.09211e-69
-3.21183e-71
-4.13439e-73
-4.44934e-75
-3.9886e-77
-2.96299e-79
-1.81423e-81
-9.09029e-84
-3.69617e-86
-1.20696e-88
-3.12384e-91
-6.30638e-94
-9.72624e-97
-1.11509e-99
-9.15954e-103
-5.11807e-106
-1.80058e-109
-3.52171e-113
-3.04175e-117
-6.62488e-122
-1.04513e-68
-2.31285e-68
-9.929e-69
-3.13793e-69
-3.57794e-70
-2.94139e-71
-2.27429e-72
-1.22916e-73
-7.02304e-75
-2.34525e-76
-6.61002e-78
-1.71658e-79
-3.96482e-81
-7.56836e-83
-9.72853e-85
-1.54623e-110
1.28787e-91
2.01115e-91
1.16747e-93
5.70847e-81
3.95934e-87
1.85265e-65
-1.86327e-55
-1.4296e-50
-1.54998e-50
-8.1225e-51
-2.72141e-51
-6.51279e-52
-1.18001e-52
-1.67666e-53
-1.91166e-54
-1.77665e-55
-1.36093e-56
-8.66052e-58
-4.60177e-59
-2.04967e-60
-7.66801e-62
-2.42118e-63
-6.44249e-65
-1.44438e-66
-2.72472e-68
-4.31884e-70
-5.73708e-72
-6.36824e-74
-5.88514e-76
-4.50438e-78
-2.83991e-80
-1.46429e-82
-6.1227e-85
-2.05456e-87
-5.46038e-90
-1.13104e-92
-1.78833e-95
-2.10012e-98
-1.7654e-101
-1.00859e-104
-3.62467e-108
-7.23623e-112
-6.37579e-116
-1.41622e-120
-2.18664e-67
-3.69953e-67
-1.38148e-67
-3.96254e-68
-4.17775e-69
-3.12343e-70
-2.21381e-71
-1.13853e-72
-5.81318e-74
-1.85634e-75
-4.80912e-77
-1.10019e-78
-2.03633e-80
-2.61027e-82
-1.26075e-106
1.67954e-87
4.42377e-87
1.17337e-87
9.33559e-90
6.08743e-80
2.14893e-83
1.9845e-64
-2.6041e-54
-9.56043e-50
-1.07512e-49
-5.84856e-50
-2.03508e-50
-5.05884e-51
-9.52004e-52
-1.40468e-52
-1.66261e-53
-1.6035e-54
-1.27415e-55
-8.40746e-57
-4.62929e-58
-2.13574e-59
-8.27717e-61
-2.70587e-62
-7.44975e-64
-1.72713e-65
-3.36733e-67
-5.51343e-69
-7.56144e-71
-8.66069e-73
-8.25391e-75
-6.51098e-77
-4.22815e-79
-2.24398e-81
-9.6512e-84
-3.32878e-86
-9.08635e-89
-1.93152e-91
-3.13167e-94
-3.76805e-97
-3.2426e-100
-1.89487e-103
-6.96012e-107
-1.4193e-110
-1.27693e-114
-2.89674e-119
-4.09706e-66
-5.43888e-66
-1.70373e-66
-4.38239e-67
-4.53684e-68
-2.97862e-69
-1.95751e-70
-9.25644e-72
-4.25214e-73
-1.27211e-74
-2.8726e-76
-4.90091e-78
-2.77045e-80
-8.79921e-103
2.57821e-83
4.30479e-83
2.86704e-83
1.27781e-83
2.25445e-84
2.06401e-82
1.39984e-81
1.95758e-63
-3.34158e-53
-5.92383e-49
-6.92172e-49
-3.91587e-49
-1.41771e-49
-3.66723e-50
-7.18036e-51
-1.10198e-51
-1.3561e-52
-1.35917e-53
-1.12177e-54
-7.68431e-56
-4.38902e-57
-2.09944e-58
-8.43885e-60
-2.8585e-61
-8.1483e-63
-1.95465e-64
-3.9409e-66
-6.66884e-68
-9.44709e-70
-1.11699e-71
-1.09822e-73
-8.93159e-76
-5.97576e-78
-3.26526e-80
-1.44485e-82
-5.12321e-85
-1.43657e-87
-3.1345e-90
-5.21233e-93
-6.42701e-96
-5.66334e-99
-3.38622e-102
-1.27181e-105
-2.65057e-109
-2.43691e-113
-5.65195e-118
-6.91099e-65
-7.26034e-65
-1.9187e-65
-4.23071e-66
-4.30742e-67
-2.56335e-68
-1.50696e-69
-6.70267e-71
-2.61628e-72
-6.84784e-74
-1.12469e-75
-1.22259e-100
1.35174e-81
1.50603e-80
3.66158e-80
5.91662e-80
4.52649e-80
3.02776e-80
3.3016e-80
1.58452e-81
5.47056e-73
1.79364e-62
-3.90772e-52
-3.38732e-48
-4.12022e-48
-2.42897e-48
-9.16817e-49
-2.4727e-49
-5.04691e-50
-8.0708e-51
-1.03435e-51
-1.07899e-52
-9.26289e-54
-6.59575e-55
-3.91205e-56
-1.94225e-57
-8.10879e-59
-2.84802e-60
-8.41105e-62
-2.08907e-63
-4.35829e-65
-7.62668e-67
-1.11653e-68
-1.3634e-70
-1.38346e-72
-1.16039e-74
-8.00117e-77
-4.50238e-79
-2.05013e-81
-7.47473e-84
-2.15341e-86
-4.82357e-89
-8.22777e-92
-1.03983e-94
-9.38418e-98
-5.7425e-101
-2.20605e-104
-4.70091e-108
-4.41914e-112
-1.04873e-116
-1.05706e-63
-8.97171e-64
-1.9805e-64
-3.73221e-65
-3.6788e-66
-2.01882e-67
-1.00316e-68
-4.13737e-70
-1.26569e-71
-2.34351e-73
1.2777e-97
4.87836e-77
2.86395e-76
1.05098e-75
2.65377e-75
4.3724e-75
3.57403e-75
1.7587e-76
6.55031e-77
6.85854e-78
3.54896e-68
1.49548e-61
-4.12833e-51
-1.77952e-47
-2.2579e-47
-1.39007e-47
-5.48232e-48
-1.54505e-48
-3.29425e-49
-5.50013e-50
-7.35452e-51
-7.99854e-52
-7.15331e-53
-5.30217e-54
-3.26924e-55
-1.68929e-56
-7.3275e-58
-2.66945e-59
-8.17369e-61
-2.10354e-62
-4.54415e-64
-8.22828e-66
-1.24557e-67
-1.57154e-69
-1.64645e-71
-1.42474e-73
-1.01274e-75
-5.87026e-78
-2.75117e-80
-1.03157e-82
-3.05378e-85
-7.02313e-88
-1.22897e-90
-1.59211e-93
-1.47174e-96
-9.21862e-100
-3.62313e-103
-7.89639e-107
-7.59303e-111
-1.84482e-115
-1.45549e-62
-9.75431e-63
-1.8487e-63
-2.98138e-64
-2.73962e-65
-1.38925e-66
-5.69893e-68
-2.04764e-69
-4.03175e-71
-3.3381e-84
2.83088e-73
2.57767e-72
1.44203e-71
5.13632e-71
1.25085e-70
1.99396e-70
1.54615e-70
1.44344e-71
4.09995e-73
3.59352e-74
8.33042e-67
1.10142e-60
-3.89851e-50
-8.5461e-47
-1.1336e-46
-7.30579e-47
-3.01807e-47
-8.90963e-48
-1.98909e-48
-3.47501e-49
-4.85799e-50
-5.51864e-51
-5.15035e-52
-3.98e-53
-2.5575e-54
-1.37562e-55
-6.20148e-57
-2.34668e-58
-7.45795e-60
-1.99057e-61
-4.45613e-63
-8.3549e-65
-1.3085e-66
-1.70668e-68
-1.84688e-70
-1.64941e-72
-1.20902e-74
-7.22049e-77
-3.48362e-79
-1.34352e-81
-4.08734e-84
-9.65216e-87
-1.73286e-89
-2.30129e-92
-2.17911e-95
-1.39728e-98
-5.61898e-102
-1.25272e-105
-1.23247e-109
-3.06675e-114
-1.80029e-61
-9.50833e-62
-1.51761e-62
-2.17451e-63
-1.7382e-64
-7.91856e-66
-2.25652e-67
-5.15562e-69
-1.79068e-73
3.11655e-72
4.58435e-71
3.88299e-70
2.14794e-69
7.48635e-69
1.77687e-68
2.76278e-68
2.02676e-68
4.88999e-67
3.54007e-68
3.22072e-68
9.72884e-66
7.58772e-60
-3.24681e-49
-3.7305e-46
-5.18536e-46
-3.5077e-46
-1.52202e-46
-4.71953e-47
-1.10619e-47
-2.02722e-48
-2.96973e-49
-3.53118e-50
-3.44552e-51
-2.78062e-52
-1.86411e-53
-1.04488e-54
-4.90384e-56
-1.92992e-57
-6.37286e-59
-1.76569e-60
-4.09937e-62
-7.96391e-64
-1.2912e-65
-1.74187e-67
-1.94785e-69
-1.79602e-71
-1.35795e-73
-8.3579e-76
-4.1519e-78
-1.64722e-80
-5.15049e-83
-1.24896e-85
-2.30054e-88
-3.132e-91
-3.03798e-94
-1.99418e-97
-8.20549e-101
-1.87146e-104
-1.88398e-108
-4.80172e-113
-1.932e-60
-8.22338e-61
-1.09805e-61
-1.34461e-62
-1.01841e-63
-3.62661e-65
-6.47645e-67
-5.59559e-88
-7.26562e-78
3.27522e-72
4.20802e-71
3.60598e-70
2.20823e-69
8.53089e-69
2.22797e-68
3.79361e-68
2.89591e-68
5.25158e-65
1.1325e-63
9.10329e-65
3.67297e-64
4.93873e-61
-2.34258e-48
-1.47039e-45
-2.14722e-45
-1.52921e-45
-6.99139e-46
-2.28429e-46
-5.63814e-47
-1.08696e-47
-1.67294e-48
-2.08707e-49
-2.13365e-50
-1.80169e-51
-1.26224e-52
-7.38427e-54
-3.61274e-55
-1.4805e-56
-5.08507e-58
-1.4639e-59
-3.52775e-61
-7.10643e-63
-1.19352e-64
-1.66622e-66
-1.92631e-68
-1.83447e-70
-1.43117e-72
-9.08007e-75
-4.64519e-77
-1.89608e-79
-6.09378e-82
-1.51746e-84
-2.86775e-87
-4.00227e-90
-3.97654e-93
-2.67198e-96
-1.1249e-99
-2.62448e-103
-2.70327e-107
-7.05685e-112
-1.61118e-59
-6.21716e-60
-6.59552e-61
-7.42052e-62
-4.60239e-63
-1.11957e-64
1.28338e-86
1.18136e-67
4.02113e-66
8.33212e-65
7.49007e-64
5.8935e-63
3.69102e-62
1.3037e-61
3.01578e-61
4.59821e-61
3.88737e-61
7.51885e-65
1.18172e-61
1.34637e-60
2.76593e-60
2.0095e-55
-1.42767e-47
-5.19212e-45
-7.98825e-45
-6.01042e-45
-2.90583e-45
-1.00402e-45
-2.61884e-46
-5.32872e-47
-8.64262e-48
-1.13429e-48
-1.2179e-49
-1.07836e-50
-7.91025e-52
-4.83787e-53
-2.47109e-54
-1.05584e-55
-3.77649e-57
-1.13079e-58
-2.83104e-60
-5.91817e-62
-1.03032e-63
-1.48938e-65
-1.78102e-67
-1.75249e-69
-1.41119e-71
-9.23162e-74
-4.86449e-76
-2.0431e-78
-6.74966e-81
-1.72604e-83
-3.34659e-86
-4.78752e-89
-4.87192e-92
-3.35061e-95
-1.44306e-98
-3.44346e-102
-3.62842e-106
-9.69946e-111
-4.64668e-59
-3.32871e-59
-3.24194e-60
-3.31405e-61
-1.10472e-62
1.17488e-81
5.35474e-65
1.44732e-63
5.10532e-62
1.07834e-60
9.54189e-60
7.81118e-59
4.79759e-58
1.57046e-57
3.60098e-57
5.51036e-57
6.01998e-57
9.63441e-58
1.69424e-61
7.07358e-57
1.01463e-54
3.68299e-52
-7.067e-47
-1.62629e-44
-2.64533e-44
-2.11161e-44
-1.0842e-44
-3.97843e-45
-1.10119e-45
-2.37406e-46
-4.07182e-47
-5.63961e-48
-6.37731e-49
-5.93542e-50
-4.56849e-51
-2.92656e-52
-1.5632e-53
-6.97426e-55
-2.60101e-56
-8.10967e-58
-2.1114e-59
-4.58425e-61
-8.27899e-63
-1.23999e-64
-1.53452e-66
-1.56082e-68
-1.29771e-70
-8.75542e-73
-4.75293e-75
-2.0543e-77
-6.97655e-80
-1.83208e-82
-3.64417e-85
-5.3432e-88
-5.56824e-91
-3.91881e-94
-1.72622e-97
-4.21188e-101
-4.53888e-105
-1.24205e-109
-2.75897e-58
-1.77792e-58
-1.3254e-59
-8.9243e-61
-2.18911e-83
8.41307e-64
1.20608e-61
5.96343e-60
2.0629e-58
4.03258e-57
3.58576e-56
2.99658e-55
1.81737e-54
6.08739e-54
1.39667e-53
2.13717e-53
2.35205e-53
1.74108e-53
2.08999e-54
5.70377e-54
6.47172e-52
2.25081e-50
-2.64195e-46
-4.45345e-44
-7.7048e-44
-6.56087e-44
-3.59651e-44
-1.40877e-44
-4.15854e-45
-9.54297e-46
-1.73798e-46
-2.54961e-47
-3.04632e-48
-2.98879e-49
-2.41991e-50
-1.62721e-51
-9.10625e-53
-4.24913e-54
-1.65468e-55
-5.37871e-57
-1.45786e-58
-3.29056e-60
-6.16948e-62
-9.58043e-64
-1.22766e-65
-1.29136e-67
-1.10899e-69
-7.71883e-72
-4.31761e-74
-1.92063e-76
-6.70538e-79
-1.80821e-81
-3.6895e-84
-5.54374e-87
-5.91506e-90
-4.25892e-93
-1.9182e-96
-4.78396e-100
-5.27023e-104
-1.47556e-108
-1.25392e-57
-7.7526e-58
-4.43937e-59
-4.09991e-62
1.5058e-63
3.37248e-60
5.15345e-58
2.35782e-56
8.05081e-55
1.55345e-53
1.36532e-52
1.06077e-51
6.59837e-51
2.29522e-50
5.27063e-50
8.10186e-50
8.97832e-50
6.72401e-50
3.42134e-50
2.30296e-50
3.43963e-50
1.44719e-49
-6.07546e-46
-1.03615e-43
-1.93965e-43
-1.77757e-43
-1.04778e-43
-4.40939e-44
-1.39668e-44
-3.43024e-45
-6.66585e-46
-1.04024e-46
-1.31843e-47
-1.36838e-48
-1.169e-49
-8.27256e-51
-4.86096e-52
-2.37665e-53
-9.67921e-55
-3.28474e-56
-9.27935e-58
-2.17957e-59
-4.24614e-61
-6.84138e-63
-9.08314e-65
-9.88576e-67
-8.77223e-69
-6.30067e-71
-3.63221e-73
-1.6631e-75
-5.96918e-78
-1.6529e-80
-3.45922e-83
-5.32558e-86
-5.81642e-89
-4.28318e-92
-1.97173e-95
-5.02416e-99
-5.65517e-103
-1.61894e-107
-4.15734e-57
-2.75199e-57
-7.86401e-59
1.07982e-78
8.45363e-60
1.44733e-56
1.91958e-54
9.05881e-53
3.03549e-51
5.79272e-50
5.02582e-49
3.87207e-48
2.77321e-47
1.25941e-46
2.88193e-46
4.47019e-46
4.93055e-46
3.55505e-46
1.76635e-46
9.0131e-47
4.41037e-49
1.2299e-49
-2.65994e-57
-1.8655e-43
-4.07605e-43
-4.11313e-43
-2.63709e-43
-1.20273e-43
-4.12029e-44
-1.08963e-44
-2.27187e-45
-3.79105e-46
-5.12266e-47
-5.65083e-48
-5.11422e-49
-3.82147e-50
-2.36411e-51
-1.21381e-52
-5.17941e-54
-1.83785e-55
-5.41844e-57
-1.3259e-58
-2.68651e-60
-4.49464e-62
-6.1869e-64
-6.97079e-66
-6.39416e-68
-4.74072e-70
-2.81716e-72
-1.32787e-74
-4.89982e-77
-1.39313e-79
-2.99005e-82
-4.71548e-85
-5.27013e-88
-3.96773e-91
-1.86603e-94
-4.85539e-98
-5.58049e-102
-1.63222e-106
-6.0391e-57
-5.90815e-57
1.22419e-75
6.38729e-60
3.29453e-56
6.39375e-53
7.13004e-51
3.3354e-49
1.09807e-47
2.86462e-46
2.46625e-45
1.37233e-44
8.49616e-44
2.95037e-43
6.80432e-43
1.05008e-42
1.17768e-42
8.92874e-43
4.71035e-43
7.16444e-42