/*--------------------------------*- C++ -*----------------------------------*\
| =========                 |                                                 |
| \\      /  F ield         | OpenFOAM: The Open Source CFD Toolbox           |
|  \\    /   O peration     | Version:  v2012                                 |
|   \\  /    A nd           | Website:  www.openfoam.com                      |
|    \\/     M anipulation  |                                                 |
\*---------------------------------------------------------------------------*/
FoamFile
{
    version     2.0;
    format      ascii;
    class       surfaceScalarField;
    location    "0.3";
    object      phi;
}
// * * * * * * * * * * * * * * * * * * * * * * * * * * * * * * * * * * * * * //

dimensions      [0 3 -1 0 0 0 0];
oriented        oriented;


internalField   nonuniform List<scalar> 
39020
(
5.26283e-15
-1.98982e-13
1.17343e-17
2.21099e-14
-8.04978e-13
1.26378e-17
5.23419e-14
-1.65589e-12
-1.1332e-16
1.0114e-13
-2.72016e-12
4.5161e-16
1.64637e-13
-4.00276e-12
-4.96997e-16
2.42441e-13
-5.50005e-12
-1.67889e-15
3.43254e-13
-7.22187e-12
-2.00732e-15
4.8077e-13
-9.17695e-12
-2.94216e-16
6.42732e-13
-1.13804e-11
-1.21052e-15
8.32298e-13
-1.38452e-11
-6.8137e-16
1.06138e-12
-1.65839e-11
-5.43226e-16
1.32415e-12
-1.96233e-11
4.02672e-16
1.6292e-12
-2.29628e-11
-3.7656e-16
1.97987e-12
-2.6636e-11
-2.38719e-16
2.38027e-12
-3.06463e-11
-4.20038e-16
2.83142e-12
-3.50141e-11
-4.15019e-16
3.33657e-12
-3.97519e-11
-4.61483e-16
3.89614e-12
-4.48778e-11
-4.67837e-16
4.51247e-12
-5.04026e-11
-4.47735e-16
5.18691e-12
-5.63375e-11
-3.04868e-16
5.91931e-12
-6.26913e-11
-3.33334e-16
6.71042e-12
-6.94757e-11
-3.07491e-16
7.55956e-12
-7.66853e-11
-3.11729e-16
8.46612e-12
-8.433e-11
-2.77065e-16
9.42786e-12
-9.23967e-11
-2.57866e-16
1.04421e-11
-1.00881e-10
-2.26905e-16
1.15048e-11
-1.09769e-10
-1.99334e-16
1.26107e-11
-1.19028e-10
-1.75781e-16
1.37534e-11
-1.28651e-10
-1.51728e-16
1.49249e-11
-1.38581e-10
-1.28069e-16
1.6116e-11
-1.48789e-10
-1.0034e-16
1.73159e-11
-1.59223e-10
-7.15033e-17
1.85125e-11
-1.69821e-10
-4.50579e-17
1.9692e-11
-1.80518e-10
-2.97481e-17
2.08394e-11
-1.91237e-10
-1.60028e-17
2.19376e-11
-2.01899e-10
2.29542e-18
2.29687e-11
-2.12407e-10
1.36856e-17
2.39142e-11
-2.22669e-10
1.42797e-17
2.47542e-11
-2.32579e-10
1.65103e-17
2.54692e-11
-2.4197e-10
1.64445e-17
2.60388e-11
-2.50864e-10
1.72952e-17
2.64439e-11
-2.58978e-10
1.5889e-17
2.66653e-11
-2.66329e-10
1.45601e-17
2.66856e-11
-2.72678e-10
1.27078e-17
2.64892e-11
-2.77885e-10
1.10672e-17
2.60623e-11
-2.8199e-10
1.02965e-17
2.53949e-11
-2.84596e-10
1.2932e-17
2.44797e-11
-2.8572e-10
3.6678e-17
2.33139e-11
-2.85073e-10
3.6429e-17
2.18997e-11
-2.82474e-10
3.6373e-17
2.02436e-11
-2.7772e-10
3.51656e-17
1.83595e-11
-2.70339e-10
3.40991e-17
1.62676e-11
-2.59975e-10
3.20443e-17
1.39955e-11
-2.46116e-10
3.01613e-17
1.15799e-11
-2.28078e-10
2.7329e-17
9.06763e-12
-2.05136e-10
2.48984e-17
6.51661e-12
-1.76581e-10
2.18409e-17
4.01413e-12
-1.41567e-10
1.95027e-17
1.68106e-12
-9.87321e-11
1.70775e-17
-4.23511e-11
1.42859e-17
6.6273e-15
-2.05476e-13
-6.74858e-17
2.79294e-14
-8.26051e-13
2.24229e-16
6.42093e-14
-1.69316e-12
7.01983e-17
1.19759e-13
-2.7772e-12
-7.0418e-16
1.92527e-13
-4.0784e-12
-8.64457e-17
2.98018e-13
-5.59558e-12
1.17853e-15
4.15398e-13
-7.33905e-12
-1.63602e-16
5.68436e-13
-9.32281e-12
9.70706e-16
7.49701e-13
-1.15562e-11
5.16613e-16
9.46335e-13
-1.40489e-11
-9.19273e-16
1.18769e-12
-1.68257e-11
2.84083e-17
1.4627e-12
-1.98968e-11
2.31823e-16
1.78008e-12
-2.3281e-11
-1.10603e-16
2.14298e-12
-2.69991e-11
1.93222e-17
2.55063e-12
-3.10548e-11
-1.1105e-16
3.00561e-12
-3.54707e-11
-1.48611e-16
3.5125e-12
-4.02601e-11
-1.84962e-16
4.07143e-12
-4.54396e-11
-2.72857e-16
4.68758e-12
-5.10204e-11
-2.46825e-16
5.36049e-12
-5.70133e-11
-2.6433e-16
6.0909e-12
-6.34259e-11
-4.46656e-16
6.87978e-12
-7.027e-11
-5.34414e-16
7.72719e-12
-7.75386e-11
-5.80966e-16
8.63243e-12
-8.52411e-11
-5.64781e-16
9.5933e-12
-9.33635e-11
-5.54306e-16
1.0607e-11
-1.01901e-10
-5.01304e-16
1.16693e-11
-1.10837e-10
-4.71916e-16
1.2775e-11
-1.20139e-10
-4.20933e-16
1.39174e-11
-1.29799e-10
-3.92654e-16
1.50886e-11
-1.39757e-10
-3.40209e-16
1.6279e-11
-1.49983e-10
-2.92931e-16
1.74781e-11
-1.60426e-10
-2.25591e-16
1.86734e-11
-1.71019e-10
-1.66993e-16
1.9851e-11
-1.81697e-10
-1.10892e-16
2.09958e-11
-1.92382e-10
-6.18143e-17
2.20908e-11
-2.02994e-10
-1.02433e-17
2.3118e-11
-2.13434e-10
1.57876e-17
2.40585e-11
-2.2361e-10
1.97944e-17
2.48928e-11
-2.33413e-10
2.32528e-17
2.56012e-11
-2.42678e-10
2.25585e-17
2.61634e-11
-2.51426e-10
2.34672e-17
2.65602e-11
-2.59375e-10
1.99197e-17
2.67726e-11
-2.66542e-10
1.61701e-17
2.67834e-11
-2.72689e-10
1.1746e-17
2.65769e-11
-2.77678e-10
7.6706e-18
2.61394e-11
-2.81553e-10
5.26136e-18
2.54613e-11
-2.83918e-10
1.11489e-17
2.45351e-11
-2.84794e-10
2.71186e-17
2.33583e-11
-2.83896e-10
2.72219e-17
2.19331e-11
-2.81048e-10
2.66458e-17
2.02662e-11
-2.76053e-10
2.53402e-17
1.83714e-11
-2.68444e-10
2.64005e-17
1.6269e-11
-2.57872e-10
2.56631e-17
1.39864e-11
-2.43833e-10
2.6247e-17
1.15605e-11
-2.25652e-10
2.48285e-17
9.03784e-12
-2.02614e-10
2.43175e-17
6.47596e-12
-1.74019e-10
2.20427e-17
3.96118e-12
-1.39052e-10
2.07606e-17
1.61612e-12
-9.63868e-11
1.84842e-17
-4.07345e-11
1.61152e-17
6.01376e-15
-2.11423e-13
-3.49909e-17
2.57137e-14
-8.45473e-13
-1.49403e-16
6.10073e-14
-1.72791e-12
-3.14266e-16
1.16557e-13
-2.82947e-12
1.05685e-15
1.85616e-13
-4.15005e-12
-6.56106e-17
2.8338e-13
-5.68908e-12
-1.77893e-16
3.96217e-13
-7.45853e-12
-2.56383e-16
5.47219e-13
-9.46987e-12
1.88491e-16
7.32848e-13
-1.17333e-11
1.17862e-15
9.32046e-13
-1.42644e-11
-2.06634e-15
1.17709e-12
-1.70812e-11
-1.11607e-15
1.45863e-12
-2.01896e-11
-1.61217e-15
1.78847e-12
-2.36123e-11
-7.18314e-17
2.15914e-12
-2.73701e-11
-5.19373e-17
2.57711e-12
-3.14738e-11
-9.61728e-17
3.04308e-12
-3.59387e-11
-2.52393e-16
3.56264e-12
-4.07809e-11
-1.18509e-16
4.13454e-12
-4.60149e-11
-4.02634e-16
4.76365e-12
-5.16524e-11
-2.82585e-16
5.45078e-12
-5.77029e-11
-3.57147e-16
6.19549e-12
-6.41744e-11
-4.52862e-16
6.99844e-12
-7.1078e-11
-6.05124e-16
7.85981e-12
-7.84054e-11
-6.30712e-16
8.77886e-12
-8.61657e-11
-6.48868e-16
9.75331e-12
-9.43435e-11
-6.35116e-16
1.07803e-11
-1.02933e-10
-6.24398e-16
1.18555e-11
-1.11918e-10
-5.94226e-16
1.29735e-11
-1.21262e-10
-5.79823e-16
1.41275e-11
-1.30958e-10
-5.51338e-16
1.53093e-11
-1.40944e-10
-5.17844e-16
1.65094e-11
-1.51188e-10
-4.58488e-16
1.77169e-11
-1.61637e-10
-3.85141e-16
1.89193e-11
-1.72225e-10
-2.95029e-16
2.01025e-11
-1.82883e-10
-2.00277e-16
2.12511e-11
-1.93531e-10
-1.03382e-16
2.23481e-11
-2.04091e-10
-2.17294e-17
2.33751e-11
-2.14461e-10
1.983e-17
2.43131e-11
-2.24548e-10
2.49197e-17
2.51426e-11
-2.34242e-10
2.97707e-17
2.58438e-11
-2.43379e-10
2.66474e-17
2.63967e-11
-2.51979e-10
2.77532e-17
2.6782e-11
-2.5976e-10
2.09063e-17
2.69808e-11
-2.66741e-10
1.43074e-17
2.69762e-11
-2.72684e-10
6.34932e-18
2.67527e-11
-2.77455e-10
-2.81146e-19
2.62967e-11
-2.81097e-10
-4.03112e-18
2.5599e-11
-2.8322e-10
-7.52717e-18
2.46523e-11
-2.83847e-10
9.42878e-18
2.34544e-11
-2.82698e-10
8.86493e-18
2.20077e-11
-2.79601e-10
1.31963e-17
2.0319e-11
-2.74364e-10
1.57938e-17
1.84025e-11
-2.66527e-10
2.16274e-17
1.62783e-11
-2.55748e-10
2.36472e-17
1.39742e-11
-2.41529e-10
2.78793e-17
1.15267e-11
-2.23204e-10
2.81356e-17
8.9828e-12
-2.00069e-10
2.99e-17
6.40039e-12
-1.71436e-10
2.81611e-17
3.86843e-12
-1.36519e-10
2.80387e-17
1.53055e-12
-9.40483e-11
2.60585e-17
-3.92034e-11
2.4756e-17
6.92003e-15
-2.18303e-13
-2.38678e-17
2.94947e-14
-8.67947e-13
-5.34823e-17
6.9747e-14
-1.76769e-12
-1.94452e-16
1.32291e-13
-2.88969e-12
5.84634e-16
2.10423e-13
-4.23313e-12
-3.63928e-16
3.20062e-13
-5.79408e-12
1.43408e-16
4.40191e-13
-7.58922e-12
-8.65604e-16
6.08754e-13
-9.62868e-12
1.12336e-15
8.12762e-13
-1.19217e-11
1.65688e-15
1.03071e-12
-1.44908e-11
-7.5871e-16
1.28642e-12
-1.73384e-11
-4.05946e-16
1.57126e-12
-2.04829e-11
-9.32489e-16
1.91074e-12
-2.39501e-11
1.06959e-16
2.29177e-12
-2.77484e-11
4.58139e-16
2.71946e-12
-3.18998e-11
1.06362e-16
3.19314e-12
-3.64136e-11
-4.2961e-17
3.72139e-12
-4.13088e-11
-2.68507e-17
4.30162e-12
-4.65973e-11
-1.85797e-16
4.93962e-12
-5.22923e-11
-2.8404e-16
5.63527e-12
-5.84023e-11
-3.94821e-16
6.38958e-12
-6.49338e-11
-6.14604e-16
7.20299e-12
-7.18974e-11
-6.86553e-16
8.07599e-12
-7.92844e-11
-7.27665e-16
9.00743e-12
-8.7103e-11
-6.98211e-16
9.99514e-12
-9.53369e-11
-6.9492e-16
1.10358e-11
-1.0398e-10
-6.6115e-16
1.21251e-11
-1.13012e-10
-6.4789e-16
1.32571e-11
-1.22399e-10
-6.20625e-16
1.44249e-11
-1.32131e-10
-6.09341e-16
1.562e-11
-1.42144e-10
-5.69018e-16
1.68323e-11
-1.52405e-10
-5.18998e-16
1.80508e-11
-1.6286e-10
-4.37137e-16
1.92627e-11
-1.7344e-10
-3.43313e-16
2.04535e-11
-1.84076e-10
-2.30321e-16
2.16077e-11
-1.94686e-10
-1.16544e-16
2.27079e-11
-2.05192e-10
-1.5178e-17
2.37353e-11
-2.15488e-10
3.12888e-17
2.46708e-11
-2.25483e-10
3.38842e-17
2.54946e-11
-2.35066e-10
3.69525e-17
2.61869e-11
-2.44071e-10
3.15295e-17
2.67277e-11
-2.52519e-10
3.16665e-17
2.70979e-11
-2.6013e-10
2.15901e-17
2.72787e-11
-2.66922e-10
1.15471e-17
2.72532e-11
-2.72659e-10
6.77527e-20
2.70064e-11
-2.77208e-10
-9.63932e-18
2.65251e-11
-2.80617e-10
-1.55802e-17
2.58001e-11
-2.82495e-10
-1.5057e-17
2.48247e-11
-2.82872e-10
-5.15894e-18
2.3597e-11
-2.81471e-10
-5.92538e-18
2.21198e-11
-2.78124e-10
-1.24573e-18
2.04001e-11
-2.72645e-10
2.35903e-18
1.84525e-11
-2.64579e-10
1.21382e-17
1.62973e-11
-2.53592e-10
1.71228e-17
1.39624e-11
-2.39193e-10
2.60562e-17
1.14846e-11
-2.20726e-10
2.93425e-17
8.91153e-12
-1.97495e-10
3.47923e-17
6.30323e-12
-1.68827e-10
3.48825e-17
3.75512e-12
-1.3397e-10
3.70232e-17
1.44187e-12
-9.17341e-11
3.62537e-17
-3.77606e-11
3.43539e-17
6.42309e-15
-2.24715e-13
-1.68409e-17
2.78718e-14
-8.8912e-13
-6.85244e-17
6.65651e-14
-1.80615e-12
-2.83573e-16
1.25761e-13
-2.94836e-12
5.10044e-16
2.05991e-13
-4.31417e-12
1.56695e-16
3.16012e-13
-5.90028e-12
-1.12053e-16
4.3647e-13
-7.72282e-12
-1.11173e-15
6.13638e-13
-9.79385e-12
1.47313e-15
8.16471e-13
-1.21113e-11
1.64609e-15
1.03734e-12
-1.47197e-11
-1.22465e-15
1.29564e-12
-1.75989e-11
1.05041e-16
1.58779e-12
-2.0786e-11
-1.71091e-15
1.93916e-12
-2.42989e-11
5.56003e-16
2.3341e-12
-2.81431e-11
-7.23079e-17
2.77913e-12
-3.23436e-11
2.3884e-16
3.27159e-12
-3.69087e-11
-3.60066e-16
3.82082e-12
-4.18576e-11
1.01383e-16
4.42312e-12
-4.72016e-11
-2.77087e-16
5.0826e-12
-5.29544e-11
-2.46003e-16
5.80164e-12
-5.91228e-11
-2.17322e-16
6.5792e-12
-6.5714e-11
-3.08167e-16
7.41559e-12
-7.27379e-11
-5.33817e-16
8.31145e-12
-8.0185e-11
-5.77821e-16
9.26578e-12
-8.80623e-11
-6.30007e-16
1.02763e-11
-9.63526e-11
-6.18033e-16
1.13396e-11
-1.05048e-10
-6.32968e-16
1.2451e-11
-1.14129e-10
-6.06377e-16
1.36045e-11
-1.23558e-10
-6.09445e-16
1.47929e-11
-1.33324e-10
-5.89859e-16
1.60073e-11
-1.43363e-10
-5.70211e-16
1.72375e-11
-1.5364e-10
-5.16584e-16
1.84719e-11
-1.64098e-10
-4.4723e-16
1.96974e-11
-1.74668e-10
-3.47932e-16
2.08994e-11
-1.8528e-10
-2.32259e-16
2.20617e-11
-1.9585e-10
-1.03579e-16
2.31668e-11
-2.06297e-10
5.81684e-18
2.41955e-11
-2.16517e-10
5.30909e-17
2.51283e-11
-2.26415e-10
4.6394e-17
2.59454e-11
-2.35883e-10
4.65329e-17
2.6627e-11
-2.44752e-10
3.70524e-17
2.71529e-11
-2.53045e-10
3.60118e-17
2.75042e-11
-2.60481e-10
2.19622e-17
2.76623e-11
-2.6708e-10
8.26299e-18
2.76106e-11
-2.72608e-10
-7.21935e-18
2.73344e-11
-2.76932e-10
-1.98963e-17
2.68207e-11
-2.80103e-10
-2.67238e-17
2.60611e-11
-2.81736e-10
-3.35207e-17
2.50492e-11
-2.81861e-10
-1.81467e-17
2.37836e-11
-2.80205e-10
-2.03806e-17
2.22674e-11
-2.76608e-10
-1.16792e-17
2.05083e-11
-2.70886e-10
-4.95153e-18
1.85212e-11
-2.62592e-10
8.99948e-18
1.63267e-11
-2.51398e-10
1.6402e-17
1.39531e-11
-2.36819e-10
2.87659e-17
1.1438e-11
-2.1821e-10
3.36845e-17
8.83018e-12
-1.94887e-10
4.14187e-17
6.19353e-12
-1.6619e-10
4.21465e-17
3.63278e-12
-1.31409e-10
4.5532e-17
1.35409e-12
-8.94545e-11
4.50551e-17
-3.64055e-11
4.4322e-17
7.16834e-15
-2.31846e-13
-2.3767e-17
3.08504e-14
-9.12695e-13
-3.6643e-17
7.39011e-14
-1.84853e-12
-2.25408e-16
1.36897e-13
-3.0127e-12
4.95375e-16
2.21849e-13
-4.4012e-12
3.04858e-17
3.35422e-13
-6.01372e-12
-8.59162e-16
4.62609e-13
-7.86446e-12
-8.02641e-16
6.48386e-13
-9.96267e-12
9.63028e-16
8.57709e-13
-1.23104e-11
1.65743e-15
1.09382e-12
-1.49584e-11
-1.79952e-16
1.36807e-12
-1.7873e-11
-3.50864e-16
1.67885e-12
-2.11011e-11
-2.13723e-16
2.04815e-12
-2.46586e-11
8.29782e-16
2.45559e-12
-2.85487e-11
5.04347e-16
2.91434e-12
-3.27981e-11
3.13194e-16
3.41985e-12
-3.74153e-11
1.49896e-17
3.98462e-12
-4.24194e-11
2.37626e-16
4.60353e-12
-4.78205e-11
6.78815e-17
5.28192e-12
-5.36329e-11
-7.89479e-17
6.02036e-12
-5.98632e-11
-1.93061e-16
6.8192e-12
-6.65168e-11
-4.78334e-16
7.67788e-12
-7.36031e-11
-7.13611e-16
8.59778e-12
-8.11112e-11
-7.54881e-16
9.57712e-12
-8.9048e-11
-7.23405e-16
1.06135e-11
-9.73949e-11
-7.03669e-16
1.17029e-11
-1.06143e-10
-6.66056e-16
1.28405e-11
-1.15272e-10
-6.38431e-16
1.40198e-11
-1.24742e-10
-6.05459e-16
1.52332e-11
-1.34542e-10
-5.86026e-16
1.64713e-11
-1.44606e-10
-5.47005e-16
1.77235e-11
-1.54896e-10
-4.97559e-16
1.89778e-11
-1.65356e-10
-4.21536e-16
2.02204e-11
-1.75914e-10
-3.26717e-16
2.14363e-11
-1.86497e-10
-2.05936e-16
2.26091e-11
-1.97023e-10
-7.3721e-17
2.37207e-11
-2.07408e-10
4.21587e-17
2.47515e-11
-2.17547e-10
8.26622e-17
2.56816e-11
-2.27345e-10
6.38249e-17
2.64911e-11
-2.36692e-10
5.7858e-17
2.71601e-11
-2.45421e-10
4.40226e-17
2.76685e-11
-2.53553e-10
4.08525e-17
2.79974e-11
-2.6081e-10
2.28788e-17
2.81284e-11
-2.67211e-10
5.11199e-18
2.80452e-11
-2.72525e-10
-1.43954e-17
2.77336e-11
-2.76621e-10
-3.05987e-17
2.71811e-11
-2.79552e-10
-3.96949e-17
2.63798e-11
-2.80935e-10
-4.16994e-17
2.53239e-11
-2.80805e-10
-3.25539e-17
2.40126e-11
-2.78895e-10
-3.50389e-17
2.24496e-11
-2.75046e-10
-2.66251e-17
2.06432e-11
-2.6908e-10
-1.96202e-17
1.86088e-11
-2.60558e-10
-2.45856e-18
1.63675e-11
-2.49156e-10
7.37945e-18
1.39484e-11
-2.344e-10
2.39552e-17
1.13901e-11
-2.15651e-10
3.16145e-17
8.74344e-12
-1.9224e-10
4.28383e-17
6.07757e-12
-1.63523e-10
4.53823e-17
3.5083e-12
-1.28839e-10
5.10952e-17
1.26976e-12
-8.72149e-11
5.18998e-17
-3.51347e-11
5.10376e-17
6.88643e-15
-2.38767e-13
-1.21059e-17
3.00104e-14
-9.35647e-13
-1.01617e-17
7.09829e-14
-1.88966e-12
4.05174e-17
1.34216e-13
-3.07557e-12
-2.40269e-16
2.23364e-13
-4.48678e-12
3.46278e-16
3.38046e-13
-6.12579e-12
6.14906e-16
4.88723e-13
-8.0037e-12
5.58534e-16
6.65168e-13
-1.01387e-11
8.99087e-16
8.77248e-13
-1.25246e-11
-7.35161e-16
1.11769e-12
-1.52042e-11
-6.76517e-16
1.40896e-12
-1.81614e-11
1.03423e-15
1.72824e-12
-2.1432e-11
-2.03097e-15
2.10802e-12
-2.50361e-11
6.59944e-16
2.53272e-12
-2.89757e-11
-4.38173e-16
3.01024e-12
-3.32776e-11
-8.59421e-17
3.53804e-12
-3.79496e-11
-8.39364e-16
4.12808e-12
-4.30099e-11
1.08345e-17
4.77346e-12
-4.84697e-11
-4.63382e-16
5.47897e-12
-5.43415e-11
-2.96736e-16
6.24772e-12
-6.06314e-11
-3.56879e-18
7.07723e-12
-6.73468e-11
-8.88908e-17
7.96709e-12
-7.4496e-11
-4.14793e-16
8.91843e-12
-8.20661e-11
-4.41951e-16
9.92979e-12
-9.00633e-11
-5.05544e-16
1.09983e-11
-9.84675e-11
-4.96326e-16
1.21198e-11
-1.07269e-10
-5.31954e-16
1.32891e-11
-1.16446e-10
-5.13333e-16
1.44995e-11
-1.25957e-10
-5.2153e-16
1.57428e-11
-1.3579e-10
-5.02848e-16
1.70093e-11
-1.45876e-10
-4.85643e-16
1.82877e-11
-1.56179e-10
-4.35466e-16
1.95656e-11
-1.66637e-10
-3.71935e-16
2.08287e-11
-1.77179e-10
-2.76495e-16
2.20614e-11
-1.87732e-10
-1.60466e-16
2.32468e-11
-1.98209e-10
-2.48645e-17
2.43663e-11
-2.08527e-10
9.00784e-17
2.53998e-11
-2.18579e-10
1.21147e-16
2.63271e-11
-2.28272e-10
8.44821e-17
2.71281e-11
-2.37492e-10
7.10714e-17
2.77827e-11
-2.46075e-10
5.13848e-17
2.82709e-11
-2.54041e-10
4.59531e-17
2.85739e-11
-2.61112e-10
2.36932e-17
2.86736e-11
-2.67311e-10
1.87066e-18
2.8554e-11
-2.72405e-10
-2.17988e-17
2.82014e-11
-2.76269e-10
-4.1252e-17
2.76039e-11
-2.78955e-10
-5.13116e-17
2.67541e-11
-2.80086e-10
-6.01268e-17
2.56472e-11
-2.79699e-10
-4.43164e-17
2.42829e-11
-2.77531e-10
-4.76176e-17
2.26657e-11
-2.73429e-10
-3.50692e-17
2.08046e-11
-2.67219e-10
-2.50502e-17
1.87157e-11
-2.58469e-10
-3.97324e-18
1.6421e-11
-2.46862e-10
8.11572e-18
1.39504e-11
-2.31929e-10
2.78546e-17
1.1344e-11
-2.13044e-10
3.69841e-17
8.65562e-12
-1.89551e-10
5.03091e-17
5.96056e-12
-1.60827e-10
5.34717e-17
3.38661e-12
-1.26264e-10
6.04225e-17
1.19124e-12
-8.50183e-11
6.15685e-17
-3.39422e-11
6.16504e-17
7.44544e-15
-2.46235e-13
1.37062e-17
3.16969e-14
-9.60088e-13
2.87787e-17
7.66006e-14
-1.93464e-12
-1.40677e-16
1.42719e-13
-3.14435e-12
-3.00201e-16
2.378e-13
-4.57711e-12
5.68976e-16
3.50189e-13
-6.24399e-12
-7.98002e-16
5.01661e-13
-8.15142e-12
1.26421e-16
6.89599e-13
-1.03164e-11
8.88902e-16
9.10522e-13
-1.27473e-11
-1.9089e-16
1.16497e-12
-1.5461e-11
-7.20514e-17
1.47243e-12
-1.84667e-11
3.83499e-16
1.81298e-12
-2.17794e-11
-8.6952e-16
2.21386e-12
-2.54303e-11
7.0049e-16
2.65544e-12
-2.94191e-11
-2.1186e-17
3.15216e-12
-3.37744e-11
-1.19776e-16
3.69983e-12
-3.85026e-11
-5.33165e-16
4.31268e-12
-4.3621e-11
1.15788e-16
4.98314e-12
-4.91418e-11
-1.45356e-16
5.71623e-12
-5.50761e-11
-2.31266e-16
6.51258e-12
-6.14312e-11
-3.52391e-16
7.37225e-12
-6.82116e-11
-5.78338e-16
8.29497e-12
-7.54247e-11
-6.47416e-16
9.28092e-12
-8.30576e-11
-6.55723e-16
1.0328e-11
-9.11155e-11
-5.71576e-16
1.14328e-11
-9.95772e-11
-5.63417e-16
1.25909e-11
-1.08432e-10
-5.25004e-16
1.37967e-11
-1.17656e-10
-5.07606e-16
1.50427e-11
-1.27207e-10
-4.73131e-16
1.63204e-11
-1.37072e-10
-4.54701e-16
1.76195e-11
-1.47179e-10
-4.1756e-16
1.89282e-11
-1.57491e-10
-3.71151e-16
2.02332e-11
-1.67945e-10
-3.01168e-16
2.15199e-11
-1.78468e-10
-2.106e-16
2.2772e-11
-1.88985e-10
-9.34723e-17
2.39719e-11
-1.99408e-10
3.81892e-17
2.51006e-11
-2.09654e-10
1.50591e-16
2.61374e-11
-2.19615e-10
1.65983e-16
2.70617e-11
-2.29195e-10
1.0855e-16
2.7853e-11
-2.38283e-10
8.48608e-17
2.84914e-11
-2.46713e-10
5.88203e-17
2.89568e-11
-2.54507e-10
5.03376e-17
2.92306e-11
-2.61386e-10
2.38621e-17
2.92948e-11
-2.67375e-10
-2.17998e-18
2.9134e-11
-2.72245e-10
-2.98471e-17
2.8735e-11
-2.7587e-10
-5.28649e-17
2.80865e-11
-2.78308e-10
-6.50771e-17
2.7182e-11
-2.79183e-10
-6.88415e-17
2.60173e-11
-2.78535e-10
-5.8962e-17
2.45931e-11
-2.76108e-10
-6.1679e-17
2.29149e-11
-2.71751e-10
-4.89326e-17
2.09922e-11
-2.65297e-10
-3.8377e-17
1.88424e-11
-2.5632e-10
-1.40062e-17
1.64882e-11
-2.44508e-10
6.12269e-19
1.39609e-11
-2.29402e-10
2.45018e-17
1.13025e-11
-2.10385e-10
3.63327e-17
8.5703e-12
-1.86818e-10
5.30363e-17
5.84659e-12
-1.58102e-10
5.80216e-17
3.27112e-12
-1.23687e-10
6.72874e-17
1.11981e-12
-8.28656e-11
6.96914e-17
-3.28209e-11
6.95206e-17
7.60818e-15
-2.53762e-13
3.03884e-18
3.24832e-14
-9.85057e-13
-4.29984e-17
7.56805e-14
-1.97827e-12
7.0985e-17
1.38625e-13
-3.21044e-12
-5.65661e-16
2.40043e-13
-4.67076e-12
9.10115e-16
3.57079e-13
-6.36872e-12
-9.25924e-16
5.19032e-13
-8.31216e-12
-3.45652e-16
7.23345e-13
-1.05089e-11
1.41783e-15
9.53426e-13
-1.29736e-11
2.80736e-16
1.21241e-12
-1.57251e-11
-5.93527e-16
1.52387e-12
-1.87769e-11
6.58718e-16
1.87646e-12
-2.21374e-11
-1.12623e-15
2.29568e-12
-2.58428e-11
9.77788e-16
2.75912e-12
-2.98847e-11
-2.80337e-16
3.28125e-12
-3.42966e-11
2.84256e-17
3.85609e-12
-3.90829e-11
-6.63333e-16
4.49824e-12
-4.42617e-11
1.82371e-16
5.20041e-12
-4.98451e-11
-1.55868e-16
5.96579e-12
-5.58443e-11
-2.78315e-16
6.79788e-12
-6.22641e-11
-1.31726e-16
7.69498e-12
-6.911e-11
-1.66377e-16
8.65644e-12
-7.63883e-11
-3.17903e-16
9.68217e-12
-8.40856e-11
-2.80676e-16
1.077e-11
-9.22053e-11
-2.90506e-16
1.19161e-11
-1.00725e-10
-2.79502e-16
1.31155e-11
-1.09634e-10
-3.19828e-16
1.43622e-11
-1.18905e-10
-3.14238e-16
1.56484e-11
-1.28496e-10
-3.28306e-16
1.69649e-11
-1.38391e-10
-3.19045e-16
1.83006e-11
-1.48517e-10
-3.08836e-16
1.96432e-11
-1.58835e-10
-2.66985e-16
2.09789e-11
-1.69283e-10
-2.10543e-16
2.2292e-11
-1.79782e-10
-1.22108e-16
2.35658e-11
-1.90259e-10
-1.15964e-17
2.47821e-11
-2.00623e-10
1.16246e-16
2.5921e-11
-2.10791e-10
2.1947e-16
2.69616e-11
-2.20653e-10
2.16718e-16
2.78824e-11
-2.30114e-10
1.34093e-16
2.8663e-11
-2.39063e-10
9.88672e-17
2.92833e-11
-2.47332e-10
6.53205e-17
2.97233e-11
-2.54946e-10
5.34917e-17
2.99644e-11
-2.61627e-10
2.25929e-17
2.99891e-11
-2.674e-10
-7.64832e-18
2.97823e-11
-2.72039e-10
-3.92524e-17
2.93316e-11
-2.7542e-10
-6.54212e-17
2.86264e-11
-2.77604e-10
-7.82824e-17
2.76611e-11
-2.78218e-10
-8.86278e-17
2.64324e-11
-2.77308e-10
-7.20304e-17
2.49419e-11
-2.74618e-10
-7.47353e-17
2.31961e-11
-2.70006e-10
-5.71525e-17
2.12057e-11
-2.63308e-10
-4.30925e-17
1.8989e-11
-2.54103e-10
-1.44689e-17
1.65699e-11
-2.42089e-10
2.73881e-18
1.39814e-11
-2.26813e-10
2.99595e-17
1.12678e-11
-2.07671e-10
4.34263e-17
8.49035e-12
-1.84039e-10
6.23104e-17
5.7387e-12
-1.55349e-10
6.80912e-17
3.16399e-12
-1.21111e-10
7.87081e-17
1.05591e-12
-8.07558e-11
8.15492e-17
-3.17633e-11
8.21419e-17
7.44932e-15
-2.61588e-13
1.89218e-16
3.44144e-14
-1.01105e-12
-3.46594e-16
8.33301e-14
-2.02672e-12
-5.1994e-16
1.54498e-13
-3.28375e-12
1.0045e-15
2.58085e-13
-4.77083e-12
-1.17212e-16
3.83542e-13
-6.49566e-12
-3.20697e-16
5.57058e-13
-8.47638e-12
1.07966e-15
7.65761e-13
-1.07079e-11
7.07426e-16
1.00802e-12
-1.32149e-11
3.97801e-16
1.28652e-12
-1.60093e-11
-7.70324e-16
1.61487e-12
-1.91065e-11
1.26167e-16
1.9855e-12
-2.25147e-11
-1.02369e-15
2.41996e-12
-2.62726e-11
6.3663e-16
2.90233e-12
-3.03666e-11
7.15555e-17
3.44588e-12
-3.48383e-11
1.90233e-16
4.04518e-12
-3.96864e-11
-4.68982e-16
4.71438e-12
-4.49285e-11
2.44374e-16
5.44788e-12
-5.05777e-11
1.04241e-16
6.24786e-12
-5.66446e-11
-7.09645e-17
7.11593e-12
-6.31346e-11
-2.4012e-16
8.05207e-12
-7.00496e-11
-3.87342e-16
9.05455e-12
-7.7396e-11
-5.49105e-16
1.01237e-11
-8.51588e-11
-4.78165e-16
1.12561e-11
-9.33413e-11
-3.80527e-16
1.24478e-11
-1.0192e-10
-3.3543e-16
1.36929e-11
-1.10882e-10
-3.06852e-16
1.49851e-11
-1.202e-10
-2.81848e-16
1.63157e-11
-1.29829e-10
-2.56587e-16
1.7675e-11
-1.39752e-10
-2.40563e-16
1.90513e-11
-1.49895e-10
-2.13108e-16
2.04315e-11
-1.60217e-10
-1.71646e-16
2.18009e-11
-1.70653e-10
-1.10172e-16
2.31433e-11
-1.81125e-10
-2.57141e-17
2.4441e-11
-1.91556e-10
8.30865e-17
2.56751e-11
-2.01856e-10
2.02635e-16
2.68252e-11
-2.11938e-10
2.95127e-16
2.78696e-11
-2.21695e-10
2.701e-16
2.87865e-11
-2.3103e-10
1.60525e-16
2.95551e-11
-2.39831e-10
1.11989e-16
3.01554e-11
-2.47932e-10
7.04617e-17
3.05672e-11
-2.55358e-10
5.46898e-17
3.07723e-11
-2.61832e-10
1.93469e-17
3.07534e-11
-2.67382e-10
-1.51643e-17
3.04962e-11
-2.71782e-10
-5.05148e-17
2.99887e-11
-2.74913e-10
-8.00404e-17
2.92213e-11
-2.76838e-10
-9.46214e-17
2.81894e-11
-2.77187e-10
-9.95922e-17
2.68906e-11
-2.7601e-10
-8.92198e-17
2.53277e-11
-2.73057e-10
-9.04856e-17
2.35084e-11
-2.68188e-10
-7.18984e-17
2.14445e-11
-2.61245e-10
-5.66449e-17
1.91554e-11
-2.51814e-10
-2.42098e-17
1.66668e-11
-2.396e-10
-3.93858e-18
1.40133e-11
-2.24159e-10
2.77817e-17
1.12417e-11
-2.04899e-10
4.42959e-17
8.418e-12
-1.81214e-10
6.68077e-17
5.63906e-12
-1.52569e-10
7.47323e-17
3.06649e-12
-1.18536e-10
8.79015e-17
9.99517e-13
-7.8687e-11
9.21688e-17
-3.07619e-11
9.24157e-17
8.07681e-15
-2.69871e-13
8.38832e-17
3.48621e-14
-1.03859e-12
4.38623e-16
8.35224e-14
-2.07585e-12
8.67209e-16
1.58731e-13
-3.35804e-12
-1.51238e-15
2.5859e-13
-4.87379e-12
-8.53638e-16
3.98415e-13
-6.63288e-12
1.69424e-15
5.81568e-13
-8.64436e-12
3.19042e-17
7.9513e-13
-1.09199e-11
9.45427e-16
1.04958e-12
-1.34675e-11
-3.87585e-16
1.33493e-12
-1.63017e-11
-3.94054e-16
1.67288e-12
-1.94452e-11
1.72786e-16
2.0598e-12
-2.29105e-11
-1.18518e-15
2.51595e-12
-2.6725e-11
4.68644e-16
3.02891e-12
-3.0881e-11
-1.20968e-16
3.60327e-12
-3.54133e-11
-1.339e-16
4.23659e-12
-4.03264e-11
-7.3584e-16
4.93904e-12
-4.56351e-11
-5.0547e-16
5.70869e-12
-5.13529e-11
-6.20721e-16
6.5467e-12
-5.74883e-11
-6.15855e-16
7.45832e-12
-6.40447e-11
1.0116e-16
8.43974e-12
-7.10289e-11
1.86837e-16
9.48887e-12
-7.84452e-11
-4.84134e-17
1.06058e-11
-8.62756e-11
-1.16313e-17
1.17873e-11
-9.45228e-11
-3.25504e-17
1.30286e-11
-1.03162e-10
-2.3554e-17
1.43237e-11
-1.12177e-10
-7.16415e-17
1.56654e-11
-1.21542e-10
-7.05526e-17
1.70445e-11
-1.31209e-10
-8.89074e-17
1.84505e-11
-1.41159e-10
-8.78372e-17
1.98711e-11
-1.51316e-10
-8.28434e-17
2.1292e-11
-1.61639e-10
-4.80667e-17
2.26981e-11
-1.72059e-10
2.33743e-18
2.40721e-11
-1.82498e-10
8.24681e-17
2.53956e-11
-1.92877e-10
1.84257e-16
2.6649e-11
-2.03106e-10
2.95512e-16
2.7811e-11
-2.13097e-10
3.73367e-16
2.88593e-11
-2.22741e-10
3.24566e-16
2.97715e-11
-2.3194e-10
1.86107e-16
3.05268e-11
-2.40585e-10
1.23488e-16
3.11049e-11
-2.48509e-10
7.34837e-17
3.14858e-11
-2.55738e-10
5.33945e-17
3.16514e-11
-2.61997e-10
1.35786e-17
3.1585e-11
-2.67316e-10
-2.52486e-17
3.12727e-11
-2.71471e-10
-6.41942e-17
3.07035e-11
-2.74345e-10
-9.66385e-17
2.98687e-11
-2.76004e-10
-1.11341e-16
2.87645e-11
-2.76085e-10
-1.22562e-16
2.739e-11
-2.74637e-10
-1.05846e-16
2.57491e-11
-2.71417e-10
-1.0629e-16
2.38507e-11
-2.66291e-10
-8.20013e-17
2.17079e-11
-2.59103e-10
-6.25264e-17
1.93417e-11
-2.49449e-10
-2.52213e-17
1.67792e-11
-2.37038e-10
-1.72819e-18
1.40572e-11
-2.21437e-10
3.38169e-17
1.12257e-11
-2.02066e-10
5.2465e-17
8.3549e-12
-1.78342e-10
7.7557e-17
5.54913e-12
-1.49762e-10
8.67538e-17
2.97925e-12
-1.15964e-10
1.01641e-16
9.50343e-13
-7.66559e-11
1.06613e-16
-2.98093e-11
1.0756e-16
8.50794e-15
-2.78507e-13
6.53692e-17
3.6727e-14
-1.06729e-12
1.95163e-16
8.81702e-14
-2.12858e-12
4.8681e-16
1.7098e-13
-3.43651e-12
-3.06614e-16
2.77533e-13
-4.98099e-12
-6.55201e-16
4.15518e-13
-6.77921e-12
-2.47776e-17
6.10583e-13
-8.82607e-12
2.76925e-16
8.39834e-13
-1.11376e-11
1.55094e-15
1.10961e-12
-1.37295e-11
1.02531e-15
1.40148e-12
-1.66049e-11
-1.55434e-15
1.76088e-12
-1.98054e-11
5.20566e-16
2.17362e-12
-2.33314e-11
-1.47272e-15
2.65511e-12
-2.72007e-11
9.77669e-16
3.19129e-12
-3.14211e-11
-6.28399e-16
3.79182e-12
-3.6016e-11
-1.46071e-16
4.45715e-12
-4.09962e-11
-5.98005e-16
5.1925e-12
-4.63737e-11
-3.38453e-16
6.00095e-12
-5.21628e-11
-2.27311e-16
6.88108e-12
-5.83707e-11
-2.84252e-16
7.83418e-12
-6.50029e-11
-5.47938e-16
8.86089e-12
-7.20606e-11
-5.26821e-16
9.95964e-12
-7.95477e-11
-3.90552e-16
1.11283e-11
-8.74467e-11
-2.53673e-16
1.2363e-11
-9.57588e-11
-1.19938e-16
1.36582e-11
-1.04458e-10
-8.45119e-17
1.50074e-11
-1.13527e-10
-5.44458e-17
1.64027e-11
-1.22938e-10
-3.27678e-17
1.78343e-11
-1.32641e-10
-1.31544e-17
1.92909e-11
-1.42615e-10
-1.65226e-18
2.07591e-11
-1.52785e-10
2.01676e-17
2.22241e-11
-1.63103e-10
5.86435e-17
2.36695e-11
-1.73504e-10
1.13063e-16
2.50774e-11
-1.83905e-10
1.9077e-16
2.64285e-11
-1.94226e-10
2.88826e-16
2.77021e-11
-2.04376e-10
3.89943e-16
2.88764e-11
-2.14267e-10
4.51816e-16
2.99284e-11
-2.23789e-10
3.77603e-16
3.0835e-11
-2.32845e-10
2.09704e-16
3.15754e-11
-2.41324e-10
1.32533e-16
3.21291e-11
-2.49062e-10
7.37595e-17
3.24762e-11
-2.56085e-10
4.90883e-17
3.25989e-11
-2.6212e-10
4.74381e-18
3.2481e-11
-2.67199e-10
-3.83587e-17
3.21092e-11
-2.711e-10
-8.07136e-17
3.14734e-11
-2.73711e-10
-1.16218e-16
3.05659e-11
-2.75098e-10
-1.32062e-16
2.93842e-11
-2.74905e-10
-1.37485e-16
2.79286e-11
-2.73183e-10
-1.27484e-16
2.62042e-11
-2.69695e-10
-1.25608e-16
2.42216e-11
-2.64309e-10
-9.93808e-17
2.1995e-11
-2.56877e-10
-7.7872e-17
1.95473e-11
-2.47001e-10
-3.6041e-17
1.69073e-11
-2.34398e-10
-8.72078e-18
1.4114e-11
-2.18643e-10
3.19202e-17
1.12206e-11
-1.99172e-10
5.42359e-17
8.30217e-12
-1.75423e-10
8.34635e-17
5.46982e-12
-1.46928e-10
9.53927e-17
2.9024e-12
-1.13395e-10
1.13277e-16
9.07939e-13
-7.4659e-11
1.19979e-16
-2.88989e-11
1.20563e-16
8.9578e-15
-2.87588e-13
6.57897e-17
3.86071e-14
-1.09739e-12
2.36225e-16
9.25772e-14
-2.18288e-12
6.58284e-16
1.73172e-13
-3.51914e-12
-1.19499e-15
2.87072e-13
-5.08977e-12
1.69887e-16
4.20224e-13
-6.92452e-12
-5.92322e-16
6.1831e-13
-9.00637e-12
7.62639e-16
8.43105e-13
-1.13551e-11
2.51515e-16
1.13099e-12
-1.40144e-11
3.37461e-16
1.44521e-12
-1.69302e-11
-5.48832e-16
1.84158e-12
-2.01995e-11
-2.0226e-16
2.28025e-12
-2.37804e-11
-6.97825e-16
2.7903e-12
-2.77055e-11
1.40981e-16
3.35644e-12
-3.19875e-11
3.21383e-16
3.98807e-12
-3.66491e-11
-3.84223e-16
4.68991e-12
-4.16987e-11
2.78863e-17
5.46282e-12
-4.71495e-11
-3.93682e-16
6.31327e-12
-5.30136e-11
-2.20662e-17
7.23696e-12
-5.92976e-11
-3.65468e-16
8.23883e-12
-6.60044e-11
2.00427e-17
9.31725e-12
-7.31369e-11
2.00755e-16
1.04697e-11
-8.06976e-11
2.39213e-16
1.16938e-11
-8.86681e-11
2.91301e-16
1.29852e-11
-9.70476e-11
2.8047e-16
1.43382e-11
-1.05808e-10
2.46991e-16
1.57453e-11
-1.14933e-10
1.9346e-16
1.7198e-11
-1.24389e-10
1.74548e-16
1.86858e-11
-1.34127e-10
1.5243e-16
2.01963e-11
-1.44125e-10
1.44791e-16
2.17154e-11
-1.54302e-10
1.50735e-16
2.32272e-11
-1.64614e-10
1.82159e-16
2.47145e-11
-1.74989e-10
2.29938e-16
2.61582e-11
-1.85346e-10
3.0238e-16
2.75382e-11
-1.95603e-10
3.94424e-16
2.8833e-11
-2.05667e-10
4.83733e-16
3.00198e-11
-2.15449e-10
5.27565e-16
3.10749e-11
-2.2484e-10
4.26791e-16
3.19749e-11
-2.33743e-10
2.29966e-16
3.26985e-11
-2.42047e-10
1.37997e-16
3.32254e-11
-2.49588e-10
7.07612e-17
3.35357e-11
-2.56396e-10
4.11095e-17
3.3612e-11
-2.62197e-10
-7.56391e-18
3.34384e-11
-2.67026e-10
-5.50166e-17
3.30027e-11
-2.70665e-10
-1.00523e-16
3.22956e-11
-2.73005e-10
-1.38622e-16
3.13104e-11
-2.74115e-10
-1.5394e-16
3.00461e-11
-2.73642e-10
-1.65146e-16
2.85042e-11
-2.71643e-10
-1.49293e-16
2.66913e-11
-2.67884e-10
-1.45709e-16
2.46196e-11
-2.62239e-10
-1.12796e-16
2.23049e-11
-2.54564e-10
-8.61912e-17
1.97717e-11
-2.44469e-10
-3.8722e-17
1.70508e-11
-2.31677e-10
-7.34593e-18
1.41838e-11
-2.15776e-10
3.78091e-17
1.12271e-11
-1.96215e-10
6.29968e-17
8.2605e-12
-1.72454e-10
9.5439e-17
5.40155e-12
-1.44067e-10
1.09347e-16
2.83579e-12
-1.10827e-10
1.29471e-16
8.71776e-13
-7.26922e-11
1.37217e-16
-2.80243e-11
1.38453e-16
9.23154e-15
-2.96968e-13
5.99128e-17
4.01304e-14
-1.12813e-12
2.03655e-16
9.48729e-14
-2.23986e-12
4.32694e-16
1.82617e-13
-3.60609e-12
-1.38803e-15
3.15201e-13
-5.21024e-12
1.0332e-15
4.65771e-13
-7.09223e-12
5.36241e-17