/*--------------------------------*- C++ -*----------------------------------*\
| =========                 |                                                 |
| \\      /  F ield         | OpenFOAM: The Open Source CFD Toolbox           |
|  \\    /   O peration     | Version:  v2012                                 |
|   \\  /    A nd           | Website:  www.openfoam.com                      |
|    \\/     M anipulation  |                                                 |
\*---------------------------------------------------------------------------*/
FoamFile
{
    version     2.0;
    format      ascii;
    class       surfaceScalarField;
    location    "0.25";
    object      phi;
}
// * * * * * * * * * * * * * * * * * * * * * * * * * * * * * * * * * * * * * //

dimensions      [0 3 -1 0 0 0 0];
oriented        oriented;


internalField   nonuniform List<scalar> 
8134
(
-3.71248e-08
-7.52982e-09
-1.47638e-15
-3.07276e-08
-6.39714e-09
-1.15786e-15
-2.52618e-08
-5.46584e-09
-9.49609e-16
-2.05863e-08
-4.67555e-09
-9.0481e-16
-1.65932e-08
-3.99299e-09
-9.71218e-16
-1.31981e-08
-3.39518e-09
-8.29328e-16
-1.0329e-08
-2.86908e-09
-8.87528e-16
-7.9235e-09
-2.40549e-09
-6.54559e-16
-5.925e-09
-1.9985e-09
-5.01911e-16
-4.28168e-09
-1.64331e-09
-3.49687e-16
-2.9461e-09
-1.33558e-09
-2.7615e-16
-1.87463e-09
-1.07148e-09
-2.70435e-16
-1.02799e-09
-8.46639e-10
-3.58591e-16
-3.70961e-10
-6.57026e-10
-1.2534e-16
1.27384e-10
-4.98346e-10
-1.69844e-16
4.95466e-10
-3.68082e-10
-3.80387e-16
7.55745e-10
-2.6028e-10
-3.17014e-16
9.28972e-10
-1.73226e-10
8.8746e-16
1.03268e-09
-1.03716e-10
2.42262e-15
1.08198e-09
-4.93122e-11
3.36671e-15
1.08971e-09
-7.73751e-12
3.53396e-15
1.06652e-09
2.31802e-11
1.76912e-15
1.02145e-09
4.50845e-11
-6.82177e-18
9.61612e-10
5.98305e-11
-5.79495e-16
8.92814e-10
6.88042e-11
-7.17994e-16
8.19495e-10
7.3319e-11
-5.89789e-16
7.4503e-10
7.44679e-11
-8.4787e-16
6.71839e-10
7.31981e-11
-7.44407e-16
6.01494e-10
7.03445e-11
-5.36012e-16
5.35018e-10
6.64804e-11
-2.2113e-16
4.72865e-10
6.21526e-11
2.60113e-16
4.15143e-10
5.77222e-11
2.47913e-16
3.61658e-10
5.34879e-11
-1.64102e-18
3.12004e-10
4.96539e-11
8.16535e-17
2.65692e-10
4.63128e-11
2.16059e-16
2.22152e-10
4.35404e-11
3.09574e-16
1.80831e-10
4.13214e-11
1.9738e-16
1.41262e-10
3.95687e-11
1.29688e-16
1.03324e-10
3.79381e-11
7.95552e-17
6.73645e-11
3.59594e-11
2.47317e-17
3.53438e-11
3.20207e-11
-2.23322e-19
1.10255e-11
2.43181e-11
-1.53721e-17
1.10255e-11
-5.04613e-18
-4.80889e-08
-1.42695e-08
-2.17222e-15
-4.19521e-08
-1.25338e-08
-1.8657e-15
-3.63495e-08
-1.10685e-08
-1.67096e-15
-3.12283e-08
-9.79682e-09
-1.66633e-15
-2.65492e-08
-8.67202e-09
-1.73339e-15
-2.22864e-08
-7.65802e-09
-1.55432e-15
-1.84215e-08
-6.73397e-09
-1.58906e-15
-1.49423e-08
-5.88471e-09
-1.13705e-15
-1.18385e-08
-5.10226e-09
-9.83361e-16
-9.09994e-09
-4.38184e-09
-7.74054e-16
-6.7148e-09
-3.72073e-09
-6.58555e-16
-4.66777e-09
-3.11853e-09
-6.28915e-16
-2.94056e-09
-2.57385e-09
-7.05153e-16
-1.51127e-09
-2.08631e-09
-4.50982e-16
-3.55144e-10
-1.65447e-09
-5.85239e-16
5.54502e-10
-1.27773e-09
-7.72949e-16
1.24601e-09
-9.51786e-10
-4.74262e-16
1.74778e-09
-6.75e-10
6.44695e-16
2.08779e-09
-4.43733e-10
2.18431e-15
2.29293e-09
-2.54473e-10
2.73858e-15
2.38852e-09
-1.03333e-10
3.44297e-15
2.39772e-09
1.39711e-11
2.65968e-15
2.3414e-09
1.01416e-10
1.48301e-15
2.23751e-09
1.63706e-10
2.88586e-16
2.10139e-09
2.04932e-10
-4.31978e-16
1.94546e-09
2.29247e-10
-1.32147e-15
1.77963e-09
2.40303e-10
-2.04709e-15
1.61143e-09
2.41417e-10
-1.55092e-15
1.44613e-09
2.35634e-10
-9.76291e-16
1.28744e-09
2.2518e-10
-7.80596e-16
1.13741e-09
2.12186e-10
-4.19706e-16
9.97002e-10
1.98126e-10
-3.51462e-16
8.66282e-10
1.84214e-10
-4.3082e-16
7.44618e-10
1.71317e-10
-2.81209e-16
6.31051e-10
1.59882e-10
1.17191e-16
5.24354e-10
1.50238e-10
2.8523e-16
4.23302e-10
1.42372e-10
1.75617e-16
3.26969e-10
1.35902e-10
1.19776e-16
2.3525e-10
1.29658e-10
7.53821e-17
1.49624e-10
1.21585e-10
1.70114e-17
7.49745e-11
1.06671e-10
-3.39545e-18
2.11477e-11
7.81447e-11
-2.26123e-17
3.21731e-11
-1.67119e-17
-4.66411e-08
-1.95674e-08
-3.13009e-15
-4.16261e-08
-1.75487e-08
-2.77675e-15
-3.68966e-08
-1.5798e-08
-2.4221e-15
-3.24434e-08
-1.42501e-08
-2.258e-15
-2.82555e-08
-1.28598e-08
-2.21588e-15
-2.43257e-08
-1.15879e-08
-1.98193e-15
-2.06498e-08
-1.04099e-08
-1.9909e-15
-1.72285e-08
-9.306e-09
-1.49023e-15
-1.40659e-08
-8.26483e-09
-1.35276e-15
-1.11684e-08
-7.27928e-09
-1.12878e-15
-8.54344e-09
-6.34574e-09
-1.00375e-15
-6.19667e-09
-5.46531e-09
-9.68064e-16
-4.13182e-09
-4.63871e-09
-1.08135e-15
-2.34849e-09
-3.86963e-09
-8.49699e-16
-8.41571e-10
-3.16139e-09
-7.69386e-16
3.98577e-10
-2.51788e-09
-6.61614e-16
1.38734e-09
-1.94055e-09
-7.96495e-16
2.14409e-09
-1.43174e-09
-2.54905e-16
2.6917e-09
-9.91358e-10
4.6711e-16
3.05552e-09
-6.18307e-10
6.04082e-16
3.26237e-09
-3.10184e-10
1.12566e-15
3.33934e-09
-6.30136e-11
1.20319e-15
3.31262e-09
1.28147e-10
1.18219e-15
3.20667e-09
2.69636e-10
1.15152e-15
3.04355e-09
3.68063e-10
3.22984e-16
2.8421e-09
4.30688e-10
-9.39697e-16
2.61802e-09
4.64392e-10
-1.5112e-15
2.38372e-09
4.75737e-10
-1.11543e-15
2.14837e-09
4.70973e-10
-9.57144e-16
1.9187e-09
4.54857e-10
-9.68973e-16
1.69886e-09
4.32031e-10
-6.93708e-16
1.49116e-09
4.05817e-10
-4.91512e-16
1.29642e-09
3.78968e-10
-4.16114e-16
1.11423e-09
3.53507e-10
-2.46514e-16
9.43566e-10
3.30546e-10
4.59707e-17
7.82921e-10
3.10884e-10
2.0446e-16
6.30719e-10
2.94573e-10
1.35118e-16
4.85843e-10
2.80778e-10
9.47532e-17
3.48367e-10
2.67133e-10
5.89976e-17
2.20835e-10
2.49118e-10
8.55891e-18
1.10404e-10
2.17101e-10
-4.45561e-18
3.11786e-11
1.5737e-10
-2.76651e-17
6.33517e-11
-2.37397e-17
-4.27434e-08
-2.36332e-08
-2.83919e-15
-3.87155e-08
-2.15765e-08
-2.56812e-15
-3.47881e-08
-1.97253e-08
-2.31644e-15
-3.09954e-08
-1.80429e-08
-2.28968e-15
-2.7356e-08
-1.64991e-08
-2.32837e-15
-2.38806e-08
-1.50633e-08
-2.17093e-15
-2.05754e-08
-1.37151e-08
-2.21077e-15
-1.74463e-08
-1.24351e-08
-1.73537e-15
-1.44999e-08
-1.12113e-08
-1.59928e-15
-1.17441e-08
-1.0035e-08
-1.377e-15
-9.18917e-09
-8.90072e-09
-1.24927e-15
-6.84545e-09
-7.80904e-09
-1.20974e-15
-4.72405e-09
-6.76011e-09
-1.34468e-15
-2.83462e-09
-5.75904e-09
-1.09926e-15
-1.18433e-09
-4.81168e-09
-9.99507e-16
2.23056e-10
-3.92526e-09
-8.25817e-16
1.3892e-09
-3.10669e-09
-6.83298e-16
2.32073e-09
-2.36327e-09
-4.93843e-16
3.02976e-09
-1.7004e-09
-2.27627e-16
3.53339e-09
-1.12195e-09
-2.3759e-16
3.85309e-09
-6.29882e-10
3.74737e-17
4.01336e-09
-2.23299e-10
1.93465e-16
4.04044e-09
1.01085e-10
1.95335e-16
3.96074e-09
3.49311e-10
3.8114e-16
3.79979e-09
5.29027e-10
5.4377e-16
3.58073e-09
6.49736e-10
-4.93724e-18
3.32385e-09
7.2128e-10
-7.52798e-16
3.04589e-09
7.53717e-10
-8.19769e-16
2.75977e-09
7.5708e-10
-7.53647e-16
2.47537e-09
7.39266e-10
-7.47006e-16
2.19924e-09
7.08153e-10
-4.87411e-16
1.93548e-09
6.69579e-10
-4.76474e-16
1.68601e-09
6.2845e-10
-4.09194e-16
1.45106e-09
5.88451e-10
-2.45673e-16
1.22991e-09
5.51705e-10
-9.82938e-17
1.02106e-09
5.19735e-10
1.10877e-16
8.22863e-10
4.92764e-10
1.06283e-16
6.34215e-10
4.69427e-10
7.81647e-17
4.55472e-10
4.45876e-10
4.35581e-17
2.90065e-10
4.14525e-10
2.05225e-18
1.46904e-10
3.60262e-10
-4.28439e-18
4.30064e-11
2.61267e-10
-2.35872e-17
1.06358e-10
-1.9414e-17
-3.8397e-08
-2.66698e-08
-3.30514e-15
-3.52268e-08
-2.47467e-08
-3.06513e-15
-3.20118e-08
-2.29402e-08
-2.72706e-15
-2.88136e-08
-2.12411e-08
-2.57347e-15
-2.56744e-08
-1.96383e-08
-2.49675e-15
-2.26236e-08
-1.81142e-08
-2.29692e-15
-1.96807e-08
-1.66579e-08
-2.31468e-15
-1.68603e-08
-1.52555e-08
-1.86624e-15
-1.41734e-08
-1.38982e-08
-1.73767e-15
-1.16296e-08
-1.25787e-08
-1.53232e-15
-9.23873e-09
-1.12916e-08
-1.41225e-15
-7.01068e-09
-1.00371e-08
-1.37296e-15
-4.95652e-09
-8.81428e-09
-1.51862e-15
-3.08755e-09
-7.62799e-09
-1.25716e-15
-1.4149e-09
-6.48433e-09
-1.14403e-15
5.10644e-11
-5.39122e-09
-9.56493e-16
1.3053e-09
-4.36092e-09
-8.2069e-16
2.34292e-09
-3.40089e-09
-6.82219e-16
3.16635e-09
-2.52383e-09
-5.48771e-16
3.78307e-09
-1.73869e-09
-4.45635e-16
4.20628e-09
-1.05309e-09
-3.00924e-16
4.45418e-09
-4.71223e-10
-2.46341e-16
4.54912e-09
6.17254e-12
-1.88559e-16
4.51585e-09
3.82565e-10
-6.94168e-17
4.38024e-09
6.64651e-10
8.57336e-17
4.1673e-09
8.62655e-10
1.89797e-16
3.90026e-09
9.88327e-10
-1.59664e-17
3.59927e-09
1.05472e-09
-4.37656e-16
3.2806e-09
1.07574e-09
-6.29457e-16
2.95716e-09
1.06272e-09
-7.69676e-16
2.63803e-09
1.02727e-09
-4.53116e-16
2.32933e-09
9.78277e-10
-3.47357e-16
2.03445e-09
9.23341e-10
-3.71046e-16
1.75458e-09
8.68314e-10
-2.61436e-16
1.4896e-09
8.16692e-10
-1.69637e-16
1.23833e-09
7.71008e-10
3.789e-17
9.99287e-10
7.31804e-10
7.87869e-17
7.71545e-10
6.97169e-10
6.89146e-17
5.55817e-10
6.61604e-10
3.46506e-17
3.56279e-10
6.14063e-10
-4.09957e-18
1.83165e-10
5.33377e-10
-3.90892e-18
5.56025e-11
3.88829e-10
-1.90026e-17
1.61961e-10
-1.21904e-17
-3.40072e-08
-2.88393e-08
-3.00983e-15
-3.15912e-08
-2.71626e-08
-2.7888e-15
-2.90238e-08
-2.55076e-08
-2.50597e-15
-2.63786e-08
-2.38865e-08
-2.44937e-15
-2.37113e-08
-2.23056e-08
-2.4391e-15
-2.10645e-08
-2.07609e-08
-2.30907e-15
-1.84696e-08
-1.92528e-08
-2.34914e-15
-1.59501e-08
-1.7775e-08
-1.94684e-15
-1.35235e-08
-1.63248e-08
-1.81699e-15
-1.12034e-08
-1.48988e-08
-1.62263e-15
-9.00129e-09
-1.34937e-08
-1.50271e-15
-6.92708e-09
-1.21113e-08
-1.46009e-15
-4.99086e-09
-1.07505e-08
-1.61205e-15
-3.20288e-09
-9.41596e-09
-1.34444e-15
-1.57399e-09
-8.11321e-09
-1.23453e-15
-1.15091e-10
-6.85013e-09
-1.04801e-15
1.16292e-09
-5.63893e-09
-9.03498e-16
2.25224e-09
-4.49021e-09
-7.74275e-16
3.14753e-09
-3.41912e-09
-6.7611e-16
3.84808e-09
-2.43926e-09
-5.755e-16
4.35879e-09
-1.56379e-09
-4.73023e-16
4.69026e-09
-8.02713e-10
-3.79247e-16
4.85863e-09
-1.62167e-10
-3.07944e-16
4.88448e-09
3.5669e-10
-2.44291e-16
4.79139e-09
7.57754e-10
-1.73016e-16
4.604e-09
1.05004e-09
-5.05238e-17
4.34656e-09
1.24576e-09
8.39455e-17
4.0414e-09
1.35991e-09
-1.45227e-17
3.70739e-09
1.40972e-09
-3.89145e-16
3.36018e-09
1.40994e-09
-6.76158e-16
3.01129e-09
1.37616e-09
-4.64354e-16
2.66896e-09
1.3206e-09
-3.07357e-16
2.33827e-09
1.25404e-09
-3.07728e-16
2.02166e-09
1.18493e-09
-2.77857e-16
1.71985e-09
1.1185e-09
-2.15954e-16
1.43226e-09
1.0586e-09
-2.32012e-17
1.15779e-09
1.00628e-09
4.20709e-17
8.95831e-10
9.59124e-10
5.31205e-17
6.47529e-10
9.09907e-10
2.49013e-17
4.17691e-10
8.43901e-10
-1.04774e-17
2.17565e-10
7.33503e-10
-6.94409e-18
6.79417e-11
5.38452e-10
-2.34254e-17
2.29902e-10
-1.45769e-17
-2.98239e-08
-3.03292e-08
-3.46465e-15
-2.8034e-08
-2.89524e-08
-3.2456e-15
-2.60295e-08
-2.7512e-08
-2.8462e-15
-2.38825e-08
-2.60335e-08
-2.67942e-15
-2.16523e-08
-2.45357e-08
-2.56785e-15
-1.93874e-08
-2.30259e-08
-2.39395e-15
-1.71257e-08
-2.15145e-08
-2.38829e-15
-1.48974e-08
-2.00033e-08
-1.99763e-15
-1.27257e-08
-1.84965e-08
-1.8625e-15
-1.06286e-08
-1.6996e-08
-1.67824e-15
-8.62022e-09
-1.5502e-08
-1.56112e-15
-6.7119e-09
-1.40197e-08
-1.51348e-15
-4.91367e-09
-1.25487e-08
-1.66372e-15
-3.23486e-09
-1.10948e-08
-1.39299e-15
-1.68508e-09
-9.66299e-09
-1.28843e-15
-2.74462e-10
-8.26075e-09
-1.10433e-15
9.85991e-10
-6.89938e-09
-9.60154e-16
2.08631e-09
-5.59052e-09
-8.35404e-16
3.01746e-09
-4.35027e-09
-7.41254e-16
3.77324e-09
-3.19506e-09
-6.41578e-16
4.35179e-09
-2.14234e-09
-5.55413e-16
4.75653e-09
-1.20747e-09
-4.60385e-16
4.99676e-09
-4.02366e-10
-3.90732e-16
5.08734e-09
2.66082e-10
-3.1908e-16
5.04773e-09
7.97378e-10
-2.68813e-16
4.90025e-09
1.1975e-09
-2.11776e-16
4.66847e-09
1.47754e-09
-3.82423e-17
4.37538e-09
1.65303e-09
-2.87138e-17
4.04155e-09
1.74352e-09
-1.73422e-16
3.68476e-09
1.76675e-09
-5.04256e-16
3.31874e-09
1.74218e-09
-4.44861e-16
2.95378e-09
1.68556e-09
-2.94007e-16
2.59676e-09
1.61107e-09
-2.75507e-16
2.25154e-09
1.53014e-09
-2.687e-16
1.91995e-09
1.4501e-09
-2.39871e-16
1.60217e-09
1.37638e-09
-5.48036e-17
1.29768e-09
1.31077e-09
1.08239e-17
1.00636e-09
1.25045e-09
3.87309e-17
7.29812e-10
1.18645e-09
1.79834e-17
4.7342e-10
1.10029e-09
-1.62842e-17
2.49231e-10
9.57693e-10
-9.4965e-18
7.94661e-11
7.08216e-10
-2.56454e-17
3.09368e-10
-1.37877e-17
-2.59492e-08
-3.12969e-08
-3.11619e-15
-2.4665e-08
-3.02365e-08
-2.89995e-15
-2.31352e-08
-2.90419e-08
-2.55405e-15
-2.1424e-08
-2.77447e-08
-2.47982e-15
-1.95881e-08
-2.63716e-08
-2.45435e-15
-1.76761e-08
-2.49378e-08
-2.35509e-15
-1.57287e-08
-2.34619e-08
-2.3801e-15
-1.37792e-08
-2.19528e-08
-2.03194e-15
-1.18544e-08
-2.04213e-08
-1.89437e-15
-9.9757e-09
-1.88746e-08
-1.71513e-15
-8.16006e-09
-1.73177e-08
-1.59418e-15
-6.42044e-09
-1.57593e-08
-1.538e-15
-4.76768e-09
-1.42015e-08
-1.68285e-15
-3.21088e-09
-1.26515e-08
-1.40945e-15
-1.75873e-09
-1.11151e-08
-1.31268e-15
-4.20109e-10
-9.59937e-09
-1.13429e-15
7.95109e-10
-8.1146e-09
-9.93648e-16
1.87688e-09
-6.67229e-09
-8.74679e-16
2.81492e-09
-5.2883e-09
-7.829e-16
3.60004e-09
-3.9802e-09
-6.8478e-16
4.22577e-09
-2.76806e-09
-6.03457e-16
4.68967e-09
-1.67139e-09
-5.12973e-16
4.99469e-09
-7.07356e-10
-4.40098e-16
5.14958e-09
1.11166e-10
-3.67097e-16
5.16858e-09
7.78393e-10
-3.09464e-16
5.07027e-09
1.2958e-09
-2.78324e-16
4.87603e-09
1.67177e-09
-1.81217e-16
4.60815e-09
1.92093e-09
-1.18253e-16
4.28775e-09
2.06389e-09
-9.31474e-17
3.93401e-09
2.12052e-09
-3.63953e-16
3.56243e-09
2.11375e-09
-3.7074e-16
3.18518e-09
2.0628e-09
-2.97325e-16
2.8109e-09
1.98536e-09
-2.6378e-16
2.44494e-09
1.89609e-09
-2.60033e-16
2.0904e-09
1.80465e-09
-2.52986e-16
1.74839e-09
1.71839e-09
-7.45488e-17
1.41915e-09
1.64001e-09
-1.01786e-17
1.10315e-09
1.56645e-09
2.9231e-17
8.02508e-10
1.48709e-09
1.37373e-17
5.23138e-10
1.37966e-09
-2.09036e-17
2.77761e-10
1.20307e-09
-1.19648e-17
8.99117e-11
8.96064e-10
-2.7713e-17
3.9928e-10
-1.25909e-17
-2.24483e-08
-3.18811e-08
-3.34938e-15
-2.15574e-08
-3.11274e-08
-3.21644e-15
-2.04142e-08
-3.01851e-08
-2.91776e-15
-1.90721e-08
-2.90868e-08
-2.80385e-15
-1.7581e-08
-2.78627e-08
-2.67053e-15
-1.59865e-08
-2.65324e-08
-2.50464e-15
-1.4328e-08
-2.51204e-08
-2.4535e-15
-1.26396e-08
-2.36412e-08
-2.09293e-15
-1.09497e-08
-2.21112e-08
-1.93039e-15
-9.28144e-09
-2.05429e-08
-1.74857e-15
-7.65366e-09
-1.89455e-08
-1.62496e-15
-6.08091e-09
-1.73321e-08
-1.56029e-15
-4.57496e-09
-1.57075e-08
-1.694e-15
-3.1452e-09
-1.40813e-08
-1.41631e-15
-1.79982e-09
-1.24605e-08
-1.32336e-15
-5.46682e-10
-1.08525e-08
-1.14895e-15
6.05695e-10
-9.26698e-09
-1.01127e-15
1.6482e-09
-7.71479e-09
-8.97806e-16
2.57078e-09
-6.21088e-09
-8.08296e-16
3.36321e-09
-4.77265e-09
-7.13495e-16
4.01637e-09
-3.42122e-09
-6.35212e-16
4.52373e-09
-2.17876e-09
-5.48576e-16
4.88295e-09
-1.06655e-09
-4.76241e-16
5.09708e-09
-1.02987e-10
-4.07035e-16
5.17488e-09
7.00613e-10
-3.43253e-16
5.13027e-09
1.34039e-09
-3.0181e-16
4.98135e-09
1.8207e-09
-3.01837e-16
4.74849e-09
2.15381e-09
-1.64706e-16
4.45225e-09
2.3601e-09
-1.28604e-16
4.11234e-09
2.46045e-09
-2.81298e-16
3.74548e-09
2.4806e-09
-2.8494e-16
3.36537e-09
2.4429e-09
-3.00047e-16
2.98227e-09
2.36848e-09
-2.66521e-16
2.60304e-09
2.27531e-09
-2.55934e-16
2.23207e-09
2.17562e-09
-2.60936e-16
1.87158e-09
2.07888e-09
-9.28293e-17
1.52264e-09
1.98894e-09
-2.52926e-17
1.18643e-09
1.90266e-09
2.28566e-17
8.65653e-10
1.80786e-09
1.02611e-17
5.6672e-10
1.6786e-09
-2.52359e-17
3.02954e-10
1.46684e-09
-1.46194e-17
9.91504e-11
1.09987e-09
-2.99764e-17
4.9843e-10
-1.17631e-17
-1.93319e-08
-3.12489e-15
-1.87407e-08
-2.90867e-15
-1.79057e-08
-3.10201e-08
-2.6395e-15
-1.68691e-08
-3.01234e-08
-2.60154e-15
-1.56729e-08
-2.90588e-08
-2.54125e-15
-1.43572e-08
-2.78481e-08
-2.44377e-15
-1.29586e-08
-2.6519e-08
-2.42926e-15
-1.15097e-08
-2.509e-08
-2.11703e-15
-1.00388e-08
-2.35821e-08
-1.95701e-15
-8.56947e-09
-2.20122e-08
-1.77633e-15
-7.12152e-09
-2.03935e-08
-1.64831e-15
-5.71047e-09
-1.87431e-08
-1.57349e-15
-4.34886e-09
-1.70691e-08
-1.69398e-15
-3.04647e-09
-1.53837e-08
-1.41088e-15
-1.81136e-09
-1.36956e-08
-1.32201e-15
-6.50669e-10
-1.20132e-08
-1.1522e-15
4.2827e-10
-1.03459e-08
-1.01771e-15
1.41756e-09
-8.70408e-09
-9.09069e-16
2.30817e-09
-7.1015e-09
-8.22309e-16
3.09009e-09
-5.55458e-09
-7.31747e-16
3.75313e-09
-4.08426e-09
-6.56711e-16
4.28827e-09
-2.71392e-09
-5.74137e-16
4.68934e-09
-1.46759e-09
-5.02149e-16
4.95457e-09
-3.68234e-10
-4.38993e-16
5.08748e-09
5.67718e-10
-3.75024e-16
5.09712e-09
1.33074e-09
-3.26874e-16
4.99752e-09
1.9203e-09
-3.25323e-16
4.80621e-09
2.34514e-09
-2.18708e-16
4.54225e-09
2.62404e-09
-1.87837e-16
4.22495e-09
2.77777e-09
-2.4533e-16
3.87161e-09
2.83393e-09
-2.30267e-16
3.49702e-09
2.81748e-09
-2.85224e-16
3.11279e-09
2.75272e-09
-2.79531e-16
2.72721e-09
2.66089e-09
-2.58946e-16
2.34598e-09
2.55686e-09
-2.69061e-16
1.97245e-09
2.45242e-09
-1.0951e-16
1.60864e-09
2.35274e-09
-3.81185e-17
1.2565e-09
2.2548e-09
1.68466e-17
9.19355e-10
2.14501e-09
6.54401e-18
6.04128e-10
1.99383e-09
-2.93146e-17
3.24713e-10
1.74625e-09
-1.74095e-17
1.07122e-10
1.31746e-09
-3.22634e-17
6.05553e-10
-1.12209e-17
-1.56288e-08
-3.16149e-08
-2.79455e-15
-1.484e-08
-3.09122e-08
-2.76341e-15
-1.38909e-08
-3.0008e-08
-2.63467e-15
-1.28154e-08
-2.89236e-08
-2.48877e-15
-1.1646e-08
-2.76884e-08
-2.4282e-15
-1.04127e-08
-2.63233e-08
-2.13057e-15
-9.14216e-09
-2.48526e-08
-1.96607e-15
-7.85765e-09
-2.32967e-08
-1.79016e-15
-6.57888e-09
-2.16722e-08
-1.66506e-15
-5.32175e-09
-2.00003e-08
-1.58627e-15
-4.09923e-09
-1.82916e-08
-1.69446e-15
-2.92139e-09
-1.65615e-08
-1.40599e-15
-1.79628e-09
-1.48207e-08
-1.31857e-15
-7.30606e-10
-1.30789e-08
-1.15125e-15
2.69257e-10
-1.13458e-08
-1.01845e-15
1.19658e-09
-9.63139e-09
-9.1311e-16
2.04363e-09
-7.94855e-09
-8.28591e-16
2.8013e-09
-6.31226e-09
-7.4224e-16
3.45946e-09
-4.74242e-09
-6.70746e-16
4.00797e-09
-3.26245e-09
-5.92624e-16
4.43817e-09
-1.89776e-09
-5.22885e-16
4.7446e-09
-6.74685e-10
-4.58525e-16
4.92627e-09
3.86064e-10
-4.06986e-16
4.9875e-09
1.26948e-09
-3.52705e-16
4.93798e-09
1.96982e-09
-3.42851e-16
4.79179e-09
2.49136e-09
-2.94746e-16
4.56563e-09
2.85017e-09
-2.16969e-16
4.27766e-09
3.06575e-09
-2.4845e-16
3.94505e-09
3.16653e-09
-2.12211e-16
3.58318e-09
3.17934e-09
-2.54215e-16
3.20468e-09
3.13123e-09
-2.96753e-16
2.81907e-09
3.0465e-09
-2.67924e-16
2.43328e-09
2.94266e-09
-2.80431e-16
2.05182e-09
2.83387e-09
-1.2321e-16
1.67771e-09
2.72686e-09
-5.13597e-17
1.3137e-09
2.61881e-09
9.92027e-18
9.63779e-10
2.49493e-09
2.27586e-18
6.35398e-10
2.32221e-09
-3.37259e-17
3.4301e-10
2.03864e-09
-2.05227e-17
1.13811e-10
1.54665e-09
-3.47021e-17
7.19363e-10
-1.09607e-17
-1.35864e-08
-3.20255e-08
-2.79952e-15
-1.29953e-08
-3.15033e-08
-2.7471e-15
-1.22499e-08
-3.07533e-08
-2.62413e-15
-1.13782e-08
-2.97953e-08
-2.50076e-15
-1.04078e-08
-2.86588e-08
-2.44209e-15
-9.36535e-09
-2.73658e-08
-2.17117e-15
-8.27547e-09
-2.59425e-08
-2.00176e-15
-7.15998e-09
-2.44121e-08
-1.8206e-15
-6.03795e-09
-2.27943e-08
-1.68892e-15
-4.92507e-09
-2.11132e-08
-1.5995e-15
-3.83437e-09
-1.93823e-08
-1.6915e-15
-2.77601e-09
-1.76198e-08
-1.39842e-15
-1.75803e-09
-1.58387e-08
-1.31193e-15
-7.86867e-10
-1.405e-08
-1.14688e-15
1.3183e-10
-1.22645e-08
-1.01595e-15
9.92384e-10
-1.04919e-08
-9.12577e-16
1.78833e-09
-8.7445e-09
-8.30114e-16
2.51173e-09
-7.03567e-09
-7.4713e-16
3.15324e-09
-5.38393e-09
-6.79095e-16
3.70261e-09
-3.81183e-09
-6.05542e-16
4.14987e-09
-2.34499e-09
-5.39748e-16
4.48702e-09
-1.01186e-09
-4.74799e-16
4.70949e-09
1.63613e-10
-4.26096e-16
4.81738e-09
1.16158e-09
-3.78046e-16
4.8161e-09
1.97111e-09
-3.47996e-16
4.71594e-09
2.59155e-09
-3.2198e-16
4.53075e-09
3.03533e-09
-2.17559e-16
4.27681e-09
3.3197e-09
-2.66776e-16
3.97052e-09
3.47281e-09
-2.08028e-16
3.62732e-09
3.52253e-09
-2.30556e-16
3.26046e-09
3.4981e-09
-3.16267e-16
2.88044e-09
3.42651e-09
-2.81815e-16
2.4953e-09
3.3278e-09
-2.96011e-16
2.11066e-09
3.21852e-09
-1.37032e-16
1.7305e-09
3.10701e-09
-6.36004e-17
1.35844e-09
2.99087e-09
2.2537e-18
9.99159e-10
2.85421e-09
-2.81241e-18
6.60633e-10
2.66073e-09
-3.85616e-17
3.5788e-10
2.3414e-09
-2.39238e-17
1.19231e-10
1.7853e-09
-3.72255e-17
8.38594e-10
-1.0845e-17
-1.17713e-08
-3.22976e-08
-2.78361e-15
-1.13356e-08
-3.1939e-08
-2.76534e-15
-1.07561e-08
-3.13329e-08
-2.63214e-15
-1.00548e-08
-3.04966e-08
-2.49895e-15
-9.25491e-09
-2.94587e-08
-2.42443e-15
-8.3794e-09
-2.82413e-08
-2.17007e-15
-7.45016e-09
-2.68717e-08
-1.99825e-15
-6.48723e-09
-2.5375e-08
-1.82384e-15
-5.50849e-09
-2.3773e-08
-1.69717e-15
-4.52902e-09
-2.20926e-08
-1.60576e-15
-3.5615e-09
-2.03499e-08
-1.68553e-15
-2.61601e-09
-1.85653e-08
-1.39272e-15
-1.70049e-09
-1.67542e-08
-1.30672e-15
-8.21196e-10
-1.49293e-08
-1.14269e-15
1.64029e-11
-1.31021e-08
-1.01204e-15
8.08759e-10
-1.12843e-08
-9.11012e-16
1.54925e-09
-9.48499e-09
-8.29189e-16
2.23157e-09
-7.71799e-09
-7.48628e-16
2.84754e-09
-5.9999e-09
-6.8365e-16
3.38747e-09
-4.35177e-09
-6.14303e-16
3.84102e-09
-2.79853e-09
-5.52678e-16
4.19872e-09
-1.36958e-09
-4.90904e-16
4.45332e-09
-9.09702e-11
-4.39409e-16
4.60147e-09
1.01342e-09
-3.9766e-16
4.64463e-09
1.92795e-09
-3.62485e-16
4.58929e-09
2.64691e-09
-3.42464e-16
4.44612e-09
3.17848e-09
-2.39957e-16
4.22903e-09
3.53681e-09
-2.60002e-16
3.95307e-09
3.74875e-09
-2.09415e-16
3.63321e-09
3.84239e-09
-2.30096e-16
3.28292e-09
3.8484e-09
-3.32593e-16
2.91337e-09
3.79606e-09
-2.93126e-16
2.53353e-09
3.70764e-09
-3.12991e-16
2.15001e-09
3.60204e-09
-1.51805e-16
1.76777e-09
3.48925e-09
-7.43247e-17
1.39124e-09
3.36739e-09
-5.65092e-18
1.0258e-09
3.21965e-09
-9.04881e-18
6.79999e-10
3.00654e-09
-4.41785e-17
3.69406e-10
2.65199e-09
-2.76005e-17
1.2342e-10
2.03129e-09
-3.98162e-17
9.62014e-10
-1.10656e-17
-1.01699e-08
-3.2467e-08
-2.97618e-15
-9.8549e-09
-3.2254e-08
-2.93384e-15
-9.40869e-09
-3.1779e-08
-2.7767e-15
-8.84855e-09
-3.10567e-08
-2.62908e-15
-8.19317e-09
-3.01141e-08
-2.52178e-15
-7.46198e-09
-2.89725e-08
-2.25892e-15
-6.67404e-09
-2.76597e-08
-2.05774e-15
-5.84728e-09
-2.62018e-08
-1.86485e-15
-4.99809e-09
-2.46222e-08
-1.7249e-15
-4.1406e-09
-2.29501e-08
-1.61945e-15
-3.28687e-09
-2.12036e-08
-1.68094e-15
-2.44667e-09
-1.94055e-08
-1.38684e-15
-1.62773e-09
-1.75732e-08
-1.30113e-15
-8.36032e-10
-1.5721e-08
-1.13814e-15
-7.61377e-11
-1.3862e-08
-1.00778e-15
6.4723e-10
-1.20077e-08
-9.08849e-16
1.33024e-09
-1.0168e-08
-8.26932e-16
1.96729e-09
-8.35505e-09
-7.48318e-16
2.55142e-09
-6.58402e-09
-6.8583e-16
3.07386e-09
-4.87423e-09
-6.20232e-16
3.52459e-09
-3.24924e-09
-5.62482e-16
3.8935e-09
-1.73851e-09
-5.04812e-16
4.17161e-09
-3.69068e-10
-4.54102e-16
4.35287e-09
8.32143e-10
-4.11666e-16
4.43537e-09
1.84545e-09
-3.78823e-16
4.42201e-09
2.66029e-09
-3.59835e-16
4.32016e-09
3.2803e-09
-2.85545e-16
4.14106e-09
3.71592e-09
-2.51103e-16
3.89795e-09
3.99185e-09
-2.06839e-16
3.60486e-09
4.13547e-09
-2.25434e-16
3.27507e-09
4.17821e-09
-3.30772e-16
2.9201e-09
4.15102e-09
-2.97768e-16
2.54962e-09
4.07812e-09
-3.29524e-16
2.17109e-09
3.98058e-09
-1.66861e-16
1.79035e-09
3.86999e-09
-8.49862e-17
1.41266e-09
3.74508e-09
-1.39073e-17
1.04408e-09
3.58822e-09
-1.5717e-17
6.9372e-10
3.3569e-09
-4.95993e-17
3.77713e-10
2.968e-09
-3.1236e-17
1.26434e-10
2.28256e-09
-4.21854e-17
1.08845e-09
-1.12423e-17
-8.76527e-09
-3.25617e-08
-2.67476e-15
-8.54279e-09
-3.24765e-08
-2.79878e-15
-8.20273e-09
-3.21191e-08
-2.70513e-15
-7.75826e-09
-3.15012e-08
-2.59039e-15
-7.22425e-09
-3.06481e-08
-2.50023e-15
-6.61672e-09
-2.958e-08
-2.25797e-15
-5.95191e-09
-2.83245e-08
-2.05656e-15
-5.24555e-09
-2.69081e-08
-1.86848e-15
-4.51238e-09
-2.53554e-08
-1.73078e-15
-3.76533e-09
-2.36972e-08
-1.62202e-15
-3.01568e-09
-2.19532e-08
-1.67057e-15
-2.27268e-09
-2.01485e-08
-1.37998e-15
-1.54375e-09
-1.83021e-08
-1.29598e-15
-8.34605e-10
-1.64302e-08
-1.13443e-15
-1.49597e-10
-1.4547e-08
-1.00446e-15
5.07332e-10
-1.26646e-08
-9.06401e-16
1.13288e-09
-1.07935e-08
-8.24108e-16
1.7226e-09
-8.94478e-09
-7.47419e-16
2.27077e-09
-7.13219e-09
-6.86821e-16
2.76977e-09
-5.37324e-09
-6.24353e-16
3.21031e-09
-3.68976e-09
-5.7012e-16
3.5823e-09
-2.11051e-09
-5.16251e-16
3.87583e-09
-6.62583e-10
-4.68132e-16
4.08292e-09
6.25036e-10
-4.25429e-16
4.19892e-09
1.72945e-09
-3.92871e-16
4.22353e-09
2.63571e-09
-3.72936e-16
4.16093e-09
3.34287e-09
-3.11282e-16
4.01953e-09
3.85734e-09
-2.59805e-16
3.81046e-09
4.20091e-09
-2.12162e-16
3.54641e-09
4.39952e-09
-2.3174e-16
3.24007e-09
4.48455e-09
-3.15432e-16
2.903e-09
4.48808e-09
-3.05222e-16
2.54532e-09
4.43581e-09
-3.44477e-16
2.17516e-09
4.35073e-09
-1.80537e-16
1.79917e-09
4.24598e-09
-9.55081e-17
1.42335e-09
4.1209e-09
-2.35586e-17
1.05443e-09
3.95715e-09
-2.33092e-17
7.02065e-10
3.70926e-09
-5.5227e-17
3.82955e-10
3.28711e-09
-3.52895e-17
1.28336e-10
2.53718e-09
-4.46958e-17
1.21678e-09
-1.15126e-17
-7.53883e-09
-3.26031e-08
-2.93674e-15
-7.38649e-09
-3.26289e-08
-2.91147e-15
-7.13018e-09
-3.23754e-08
-2.84613e-15
-6.77975e-09
-3.18516e-08
-2.71004e-15
-6.34683e-09
-3.1081e-08
-2.57467e-15
-5.84441e-09
-3.00824e-08
-2.33433e-15
-5.28608e-09
-2.88828e-08
-2.11122e-15
-4.68535e-09
-2.75088e-08
-1.90797e-15
-4.05522e-09
-2.59856e-08
-1.75716e-15
-3.40735e-09
-2.43451e-08
-1.63455e-15
-2.75208e-09
-2.26085e-08
-1.66419e-15
-2.09803e-09
-2.08025e-08
-1.37444e-15
-1.45218e-09
-1.89479e-08
-1.29125e-15
-8.19986e-10
-1.70624e-08
-1.13127e-15
-2.05515e-10
-1.51614e-08
-1.00189e-15
3.87822e-10
-1.32579e-08
-9.04453e-16
9.57209e-10
-1.13629e-08
-8.2169e-16
1.49916e-09
-9.48674e-09
-7.46555e-16
2.00907e-09
-7.6421e-09
-6.87344e-16
2.48052e-09
-5.84469e-09
-6.27493e-16
2.90519e-09
-4.11442e-09
-5.76222e-16
3.27348e-09
-2.47881e-09
-5.25675e-16
3.57518e-09
-9.64271e-10
-4.80352e-16
3.8011e-09
3.99099e-10
-4.38585e-16
3.94451e-09
1.58605e-09
-4.05054e-16
4.00236e-09
2.57787e-09
-3.82649e-16
3.97593e-09
3.36928e-09
-3.20723e-16
3.87081e-09
3.96248e-09
-2.61266e-16
3.6958e-09
4.37591e-09
-2.20083e-16
3.46199e-09
4.63332e-09
-2.57083e-16
3.18115e-09
4.76541e-09
-3.54398e-16
2.86455e-09
4.80467e-09
-3.19195e-16
2.52249e-09
4.77788e-09
-3.58259e-16
2.16362e-09
4.7096e-09
-1.93536e-16
1.79523e-09
4.61437e-09
-1.05652e-16
1.42401e-09
4.49212e-09
-3.41808e-17
1.05731e-09
4.32385e-09
-3.17093e-17
7.05344e-10
4.06123e-09
-6.08772e-17
3.85311e-10
3.60714e-09
-3.92828e-17
1.29201e-10
2.79329e-09
-4.71315e-17
1.34599e-09
-1.1818e-17
-6.47183e-09
-3.26072e-08
-3.0265e-15
-6.37207e-09
-3.27287e-08
-2.84068e-15
-6.18131e-09
-3.25661e-08
-2.79599e-15
-5.90679e-09
-3.21262e-08
-2.70473e-15
-5.5575e-09
-3.14303e-08
-2.57805e-15
-5.14384e-09
-3.04961e-08
-2.32504e-15
-4.67695e-09
-2.93497e-08
-2.11279e-15
-4.16825e-09
-2.80175e-08
-1.91331e-15
-3.62902e-09
-2.65248e-08
-1.76266e-15
-3.06958e-09
-2.49045e-08
-1.63614e-15
-2.49928e-09
-2.31788e-08
-1.65263e-15
-1.92601e-09
-2.13758e-08
-1.36743e-15
-1.35626e-09
-1.95177e-08
-1.28633e-15
-7.95124e-10
-1.76235e-08
-1.12882e-15
-2.46415e-10
-1.57102e-08
-1.0004e-15
2.86866e-10
-1.37912e-08
-9.0346e-16
8.02332e-10
-1.18784e-08
-8.20073e-16
1.29726e-09
-9.98168e-09
-7.46226e-16
1.76802e-09
-8.11286e-09
-6.87956e-16
2.20934e-09
-6.28601e-09
-6.30096e-16
2.614e-09
-4.51906e-09
-5.81442e-16
2.97316e-09
-2.83799e-09
-5.33753e-16
3.27681e-09
-1.2679e-09
-4.90905e-16
3.51514e-09
1.60756e-10
-4.50567e-16
3.67994e-09
1.42126e-09
-4.16173e-16
3.766e-09
2.49183e-09
-3.89629e-16
3.77199e-09
3.36327e-09
-3.23073e-16
3.70083e-09
4.03366e-09
-2.64817e-16
3.55898e-09
4.51774e-09
-2.2595e-16
3.35568e-09
4.83661e-09
-2.79522e-16
3.10154e-09
5.01956e-09
-3.6423e-16
2.80724e-09
5.09896e-09
-3.36635e-16
2.48304e-09
5.10209e-09
-3.69665e-16
2.13789e-09
5.05475e-09
-2.05012e-16
1.77958e-09
4.97267e-09
-1.15402e-16
1.4154e-09
4.8563e-09
-4.51683e-17
1.05327e-09
4.68598e-09
-4.06049e-17
7.03898e-10
4.4106e-09
-6.66889e-17
3.84982e-10
3.92606e-09
-4.32915e-17
1.2911e-10
3.04916e-09
-4.952e-17
1.47509e-09
-1.23301e-17
-5.54614e-09
-3.25862e-08
-3.31654e-15
-5.48536e-09
-3.27895e-08
-2.97704e-15
-5.34556e-09
-3.27059e-08
-2.78123e-15
-5.13195e-09
-3.23398e-08
-2.72854e-15
-4.85145e-09
-3.17108e-08
-2.59777e-15
-4.51227e-09
-3.08352e-08
-2.35748e-15
-4.12345e-09
-2.97385e-08
-2.14211e-15
-3.69448e-09
-2.84465e-08
-1.94014e-15
-3.23496e-09
-2.69843e-08
-1.78371e-15
-2.7539e-09
-2.53856e-08
-1.64859e-15
-2.25962e-09
-2.36731e-08
-1.64834e-15
-1.75923e-09
-2.18762e-08
-1.36422e-15
-1.25869e-09
-2.00182e-08
-1.28334e-15
-7.62696e-10
-1.81195e-08
-1.12759e-15
-2.74784e-10
-1.61981e-08
-9.99933e-16
2.0238e-10
-1.42684e-08
-9.03416e-16
6.66764e-10
-1.23428e-08
-8.19362e-16
1.11626e-09
-1.04312e-08
-7.46591e-16
1.54806e-09
-8.54466e-09
-6.8891e-16
1.95793e-09
-6.69589e-09
-6.32666e-16
2.33975e-09
-4.90087e-09
-5.86063e-16
2.68563e-09
-3.18389e-09
-5.40832e-16
2.98606e-09
-1.56833e-09
-5.00062e-16
3.23112e-09
-8.43126e-11
-4.61212e-16
3.41167e-09
1.24071e-09
-4.2627e-16
3.52085e-09
2.38267e-09
-3.95845e-16
3.55514e-09
3.32895e-09
-3.26882e-16
3.51503e-09
4.07378e-09
-2.69854e-16
3.40468e-09
4.62808e-09
-2.36183e-16
3.23139e-09
5.00989e-09
-2.90299e-16
3.0044e-09
5.24657e-09
-3.6522e-16
2.73359e-09
5.36976e-09
-3.57515e-16
2.42892e-09
5.40677e-09
-3.79839e-16
2.09945e-09
5.38423e-09
-2.16104e-16
1.75332e-09
5.31879e-09
-1.25085e-16
1.39832e-09
5.2113e-09
-5.59641e-17
1.04285e-09
5.04145e-09
-4.96495e-17
6.98096e-10
4.75535e-09
-7.24678e-17
3.8218e-10
4.24198e-09
-4.71555e-17
1.28145e-10
3.30319e-09
-5.1598e-17
1.60324e-09
-1.26664e-17
-4.74477e-09
-3.25489e-08
-3.39642e-15
-4.71253e-09
-3.28217e-08
-3.148e-15
-4.61212e-09
-3.28063e-08
-2.86693e-15
-4.44719e-09
-3.25047e-08
-2.73711e-15
-4.22299e-09
-3.1935e-08
-2.6184e-15
-3.94601e-09
-3.11122e-08
-2.37452e-15
-3.62351e-09
-3.0061e-08
-2.15274e-15
-3.26326e-09
-2.88067e-08
-1.95063e-15
-2.87327e-09
-2.73743e-08
-1.79227e-15
-2.46132e-09
-2.57975e-08
-1.65406e-15
-2.03466e-09
-2.40998e-08
-1.64151e-15
-1.59966e-09
-2.23112e-08
-1.36065e-15
-1.1617e-09
-2.04562e-08
-1.28064e-15
-7.25046e-10
-1.85561e-08
-1.12704e-15
-2.92947e-10
-1.66302e-08
-1.00034e-15
1.32221e-10
-1.46935e-08
-9.04188e-16
5.48737e-10
-1.27593e-08
-8.19622e-16
9.5496e-10
-1.08374e-08
-7.47676e-16
1.34877e-09
-8.93847e-09
-6.90382e-16
1.72685e-09
-7.07397e-09
-6.35439e-16
2.08412e-09
-5.25813e-09
-5.90368e-16
2.41369e-09
-3.51347e-09
-5.47085e-16
2.70678e-09
-1.86141e-09
-5.0815e-16
2.95372e-09
-3.31254e-10
-4.70728e-16
3.1449e-09
1.04952e-09