/*--------------------------------*- C++ -*----------------------------------*\
| =========                 |                                                 |
| \\      /  F ield         | OpenFOAM: The Open Source CFD Toolbox           |
|  \\    /   O peration     | Version:  v2012                                 |
|   \\  /    A nd           | Website:  www.openfoam.com                      |
|    \\/     M anipulation  |                                                 |
\*---------------------------------------------------------------------------*/
FoamFile
{
    version     2.0;
    format      ascii;
    class       volScalarField;
    location    "0.45";
    object      p_rgh;
}
// * * * * * * * * * * * * * * * * * * * * * * * * * * * * * * * * * * * * * //

dimensions      [1 -1 -2 0 0 0 0];


internalField   nonuniform List<scalar> 
3352
(
3.50519e+06
3.50333e+06
3.50573e+06
3.50399e+06
3.50474e+06
3.50166e+06
3.50212e+06
3.50124e+06
3.49899e+06
3.49444e+06
3.49618e+06
3.49544e+06
3.49786e+06
3.49935e+06
3.50014e+06
3.50014e+06
3.50046e+06
3.50062e+06
3.5008e+06
3.50092e+06
3.50102e+06
3.50108e+06
3.50112e+06
3.50113e+06
3.50112e+06
3.50109e+06
3.50105e+06
3.50099e+06
3.50092e+06
3.50083e+06
3.50074e+06
3.50065e+06
3.50054e+06
3.50043e+06
3.50032e+06
3.5002e+06
3.50007e+06
3.49993e+06
3.49976e+06
3.50042e+06
3.49657e+06
3.50006e+06
3.49764e+06
3.50032e+06
3.50072e+06
3.50284e+06
3.5026e+06
3.5034e+06
3.49838e+06
3.50063e+06
3.49753e+06
3.50474e+06
3.50454e+06
3.50514e+06
3.50282e+06
3.50216e+06
3.50136e+06
3.50102e+06
3.50072e+06
3.50057e+06
3.50046e+06
3.5004e+06
3.50037e+06
3.50035e+06
3.50034e+06
3.50033e+06
3.50032e+06
3.50031e+06
3.50028e+06
3.50025e+06
3.50021e+06
3.50016e+06
3.50009e+06
3.50002e+06
3.49993e+06
3.49982e+06
3.4997e+06
3.49954e+06
3.50441e+06
3.49984e+06
3.50389e+06
3.50063e+06
3.50296e+06
3.50127e+06
3.50292e+06
3.50233e+06
3.5024e+06
3.49561e+06
3.49807e+06
3.4946e+06
3.50425e+06
3.50269e+06
3.50474e+06
3.5026e+06
3.50248e+06
3.50176e+06
3.50153e+06
3.50122e+06
3.50104e+06
3.50086e+06
3.50073e+06
3.50062e+06
3.50052e+06
3.50043e+06
3.50035e+06
3.50028e+06
3.50021e+06
3.50014e+06
3.50007e+06
3.5e+06
3.49993e+06
3.49985e+06
3.49977e+06
3.49969e+06
3.49959e+06
3.49949e+06
3.49936e+06
3.50219e+06
3.49731e+06
3.50172e+06
3.49862e+06
3.50124e+06
3.50009e+06
3.50185e+06
3.50175e+06
3.50297e+06
3.49707e+06
3.50092e+06
3.49589e+06
3.50669e+06
3.50515e+06
3.50704e+06
3.50404e+06
3.50356e+06
3.5024e+06
3.50193e+06
3.50141e+06
3.50111e+06
3.50084e+06
3.50065e+06
3.5005e+06
3.50038e+06
3.50027e+06
3.50018e+06
3.5001e+06
3.50002e+06
3.49994e+06
3.49987e+06
3.4998e+06
3.49972e+06
3.49964e+06
3.49956e+06
3.49947e+06
3.49938e+06
3.49928e+06
3.49916e+06
3.50188e+06
3.4975e+06
3.50146e+06
3.49836e+06
3.50058e+06
3.49919e+06
3.50056e+06
3.50038e+06
3.50162e+06
3.49609e+06
3.50001e+06
3.49502e+06
3.50712e+06
3.50511e+06
3.50727e+06
3.50419e+06
3.50388e+06
3.50267e+06
3.5022e+06
3.50163e+06
3.50127e+06
3.50095e+06
3.50071e+06
3.5005e+06
3.50033e+06
3.50019e+06
3.50006e+06
3.49995e+06
3.49985e+06
3.49976e+06
3.49967e+06
3.49959e+06
3.49951e+06
3.49943e+06
3.49934e+06
3.49926e+06
3.49917e+06
3.49908e+06
3.49897e+06
3.49986e+06
3.49609e+06
3.49951e+06
3.4969e+06
3.49887e+06
3.49778e+06
3.499e+06
3.49912e+06
3.50088e+06
3.49649e+06
3.50058e+06
3.49571e+06
3.5086e+06
3.5065e+06
3.50839e+06
3.50497e+06
3.50449e+06
3.50307e+06
3.50248e+06
3.50179e+06
3.50136e+06
3.50098e+06
3.50069e+06
3.50044e+06
3.50024e+06
3.50007e+06
3.49992e+06
3.49979e+06
3.49968e+06
3.49957e+06
3.49948e+06
3.49939e+06
3.4993e+06
3.49921e+06
3.49913e+06
3.49904e+06
3.49896e+06
3.49887e+06
3.49878e+06
3.498e+06
3.49536e+06
3.49776e+06
3.49582e+06
3.49727e+06
3.4964e+06
3.49737e+06
3.49761e+06
3.49946e+06
3.49599e+06
3.49977e+06
3.49569e+06
3.50903e+06
3.50696e+06
3.50863e+06
3.50521e+06
3.50472e+06
3.50326e+06
3.50264e+06
3.5019e+06
3.50143e+06
3.50099e+06
3.50066e+06
3.50038e+06
3.50015e+06
3.49995e+06
3.49978e+06
3.49964e+06
3.49951e+06
3.49939e+06
3.49928e+06
3.49918e+06
3.49909e+06
3.499e+06
3.49891e+06
3.49883e+06
3.49875e+06
3.49867e+06
3.49859e+06
3.49554e+06
3.49414e+06
3.49545e+06
3.49444e+06
3.49537e+06
3.49487e+06
3.49571e+06
3.49616e+06
3.49823e+06
3.49596e+06
3.49928e+06
3.49637e+06
3.50979e+06
3.50787e+06
3.50907e+06
3.50563e+06
3.50501e+06
3.50347e+06
3.50277e+06
3.50198e+06
3.50146e+06
3.50098e+06
3.50062e+06
3.5003e+06
3.50005e+06
3.49983e+06
3.49964e+06
3.49947e+06
3.49933e+06
3.4992e+06
3.49908e+06
3.49898e+06
3.49888e+06
3.49879e+06
3.4987e+06
3.49862e+06
3.49854e+06
3.49847e+06
3.4984e+06
3.49298e+06
3.493e+06
3.49308e+06
3.493e+06
3.49345e+06
3.49323e+06
3.494e+06
3.49453e+06
3.49673e+06
3.49559e+06
3.49826e+06
3.49697e+06
3.51004e+06
3.50838e+06
3.50907e+06
3.50579e+06
3.50509e+06
3.50356e+06
3.50282e+06
3.502e+06
3.50144e+06
3.50094e+06
3.50055e+06
3.50021e+06
3.49993e+06
3.49969e+06
3.49949e+06
3.49931e+06
3.49915e+06
3.49901e+06
3.49889e+06
3.49877e+06
3.49867e+06
3.49858e+06
3.49849e+06
3.49841e+06
3.49833e+06
3.49826e+06
3.4982e+06
3.49042e+06
3.49132e+06
3.49059e+06
3.49122e+06
3.49147e+06
3.49138e+06
3.49226e+06
3.49276e+06
3.4952e+06
3.49532e+06
3.49729e+06
3.49797e+06
3.51031e+06
3.50897e+06
3.50904e+06
3.50597e+06
3.50513e+06
3.50362e+06
3.50283e+06
3.50199e+06
3.5014e+06
3.50088e+06
3.50046e+06
3.50011e+06
3.49981e+06
3.49955e+06
3.49933e+06
3.49913e+06
3.49897e+06
3.49882e+06
3.49869e+06
3.49857e+06
3.49846e+06
3.49837e+06
3.49828e+06
3.4982e+06
3.49812e+06
3.49806e+06
3.498e+06
3.48814e+06
3.48904e+06
3.48827e+06
3.48904e+06
3.48951e+06
3.48923e+06
3.49045e+06
3.49078e+06
3.49348e+06
3.49484e+06
3.4961e+06
3.49906e+06
3.51028e+06
3.50931e+06
3.50876e+06
3.50601e+06
3.50504e+06
3.5036e+06
3.50277e+06
3.50193e+06
3.50133e+06
3.50079e+06
3.50036e+06
3.49998e+06
3.49967e+06
3.4994e+06
3.49916e+06
3.49896e+06
3.49878e+06
3.49862e+06
3.49848e+06
3.49836e+06
3.49825e+06
3.49815e+06
3.49806e+06
3.49798e+06
3.49791e+06
3.49785e+06
3.4978e+06
3.48634e+06
3.48579e+06
3.4862e+06
3.48627e+06
3.48759e+06
3.48681e+06
3.48857e+06
3.48864e+06
3.49161e+06
3.49425e+06
3.49485e+06
3.50035e+06
3.5102e+06
3.50956e+06
3.50841e+06
3.506e+06
3.5049e+06
3.50353e+06
3.50268e+06
3.50185e+06
3.50123e+06
3.50068e+06
3.50024e+06
3.49985e+06
3.49952e+06
3.49924e+06
3.49899e+06
3.49878e+06
3.49859e+06
3.49842e+06
3.49828e+06
3.49815e+06
3.49804e+06
3.49794e+06
3.49785e+06
3.49777e+06
3.4977e+06
3.49764e+06
3.49759e+06
3.48515e+06
3.48179e+06
3.48458e+06
3.48309e+06
3.48568e+06
3.48419e+06
3.48655e+06
3.48632e+06
3.4895e+06
3.49344e+06
3.49337e+06
3.50156e+06
3.50997e+06
3.50959e+06
3.50796e+06
3.50589e+06
3.50469e+06
3.50342e+06
3.50254e+06
3.50173e+06
3.5011e+06
3.50055e+06
3.5001e+06
3.4997e+06
3.49936e+06
3.49907e+06
3.49881e+06
3.49859e+06
3.49839e+06
3.49822e+06
3.49807e+06
3.49794e+06
3.49782e+06
3.49772e+06
3.49763e+06
3.49756e+06
3.49749e+06
3.49743e+06
3.49739e+06
3.4846e+06
3.4774e+06
3.48339e+06
3.47976e+06
3.48377e+06
3.48147e+06
3.48435e+06
3.48385e+06
3.48714e+06
3.49235e+06
3.49181e+06
3.50265e+06
3.50962e+06
3.50948e+06
3.50746e+06
3.50573e+06
3.50444e+06
3.50327e+06
3.50238e+06
3.50159e+06
3.50096e+06
3.50041e+06
3.49995e+06
3.49955e+06
3.4992e+06
3.49889e+06
3.49863e+06
3.4984e+06
3.49819e+06
3.49802e+06
3.49786e+06
3.49773e+06
3.49761e+06
3.4975e+06
3.49742e+06
3.49734e+06
3.49727e+06
3.49722e+06
3.49718e+06
3.48438e+06
3.47313e+06
3.48254e+06
3.47652e+06
3.48181e+06
3.47873e+06
3.48192e+06
3.48122e+06
3.4845e+06
3.49085e+06
3.49026e+06
3.50353e+06
3.50909e+06
3.50922e+06
3.50693e+06
3.5055e+06
3.50416e+06
3.50309e+06
3.50219e+06
3.50144e+06
3.5008e+06
3.50026e+06
3.49979e+06
3.49938e+06
3.49903e+06
3.49871e+06
3.49844e+06
3.4982e+06
3.49799e+06
3.49781e+06
3.49765e+06
3.49751e+06
3.49739e+06
3.49728e+06
3.4972e+06
3.49712e+06
3.49706e+06
3.49701e+06
3.49697e+06
3.48407e+06
3.46938e+06
3.48172e+06
3.47358e+06
3.47971e+06
3.47603e+06
3.47919e+06
3.47841e+06
3.48157e+06
3.48893e+06
3.48875e+06
3.50414e+06
3.50844e+06
3.50885e+06
3.50639e+06
3.50525e+06
3.50387e+06
3.5029e+06
3.502e+06
3.50127e+06
3.50064e+06
3.5001e+06
3.49962e+06
3.49921e+06
3.49885e+06
3.49853e+06
3.49825e+06
3.498e+06
3.49778e+06
3.49759e+06
3.49743e+06
3.49729e+06
3.49717e+06
3.49706e+06
3.49697e+06
3.4969e+06
3.49684e+06
3.49679e+06
3.49676e+06
3.48308e+06
3.46659e+06
3.48059e+06
3.47106e+06
3.47741e+06
3.47339e+06
3.47611e+06
3.47542e+06
3.47837e+06
3.4866e+06
3.4873e+06
3.50445e+06
3.50769e+06
3.50841e+06
3.50587e+06
3.50498e+06
3.50358e+06
3.5027e+06
3.50181e+06
3.5011e+06
3.50047e+06
3.49993e+06
3.49945e+06
3.49903e+06
3.49866e+06
3.49833e+06
3.49805e+06
3.49779e+06
3.49757e+06
3.49738e+06
3.49721e+06
3.49706e+06
3.49694e+06
3.49684e+06
3.49675e+06
3.49668e+06
3.49662e+06
3.49657e+06
3.49654e+06
3.48117e+06
3.46478e+06
3.47885e+06
3.46899e+06
3.47491e+06
3.47087e+06
3.47271e+06
3.4723e+06
3.47499e+06
3.48397e+06
3.48594e+06
3.50448e+06
3.50691e+06
3.50795e+06
3.5054e+06
3.50472e+06
3.50332e+06
3.50252e+06
3.50162e+06
3.50094e+06
3.50031e+06
3.49977e+06
3.49928e+06
3.49885e+06
3.49847e+06
3.49814e+06
3.49784e+06
3.49758e+06
3.49735e+06
3.49715e+06
3.49698e+06
3.49684e+06
3.49671e+06
3.49661e+06
3.49652e+06
3.49645e+06
3.4964e+06
3.49635e+06
3.49632e+06
3.47824e+06
3.46409e+06
3.47648e+06
3.46737e+06
3.47229e+06
3.46855e+06
3.46908e+06
3.46918e+06
3.47158e+06
3.48118e+06
3.4847e+06
3.5043e+06
3.50617e+06
3.50751e+06
3.50501e+06
3.50449e+06
3.50311e+06
3.50236e+06
3.50147e+06
3.5008e+06
3.50015e+06
3.49961e+06
3.49911e+06
3.49867e+06
3.49828e+06
3.49794e+06
3.49763e+06
3.49736e+06
3.49713e+06
3.49693e+06
3.49675e+06
3.49661e+06
3.49648e+06
3.49638e+06
3.49629e+06
3.49622e+06
3.49617e+06
3.49613e+06
3.49611e+06
3.47442e+06
3.46434e+06
3.47347e+06
3.46621e+06
3.46969e+06
3.4666e+06
3.46542e+06
3.46633e+06
3.46841e+06
3.47849e+06
3.48368e+06
3.50403e+06
3.50557e+06
3.50716e+06
3.50473e+06
3.50434e+06
3.50296e+06
3.50224e+06
3.50134e+06
3.50067e+06
3.50001e+06
3.49945e+06
3.49894e+06
3.49849e+06
3.49809e+06
3.49773e+06
3.49742e+06
3.49714e+06
3.4969e+06
3.4967e+06
3.49652e+06
3.49637e+06
3.49625e+06
3.49614e+06
3.49606e+06
3.49599e+06
3.49594e+06
3.49591e+06
3.49589e+06
3.46969e+06
3.46604e+06
3.47005e+06
3.46597e+06
3.46719e+06
3.46521e+06
3.462e+06
3.46403e+06
3.46572e+06
3.47616e+06
3.48298e+06
3.50384e+06
3.5052e+06
3.50697e+06
3.50461e+06
3.50427e+06
3.50289e+06
3.50218e+06
3.50126e+06
3.50057e+06
3.49989e+06
3.49931e+06
3.49878e+06
3.49831e+06
3.49789e+06
3.49752e+06
3.4972e+06
3.49691e+06
3.49667e+06
3.49646e+06
3.49628e+06
3.49613e+06
3.49601e+06
3.4959e+06
3.49582e+06
3.49576e+06
3.49572e+06
3.49568e+06
3.49566e+06
3.46472e+06
3.46917e+06
3.46629e+06
3.46686e+06
3.46492e+06
3.46459e+06
3.45925e+06
3.46263e+06
3.46392e+06
3.47452e+06
3.48277e+06
3.50389e+06
3.50516e+06
3.50699e+06
3.50468e+06
3.50433e+06
3.50293e+06
3.50219e+06
3.50123e+06
3.5005e+06
3.49979e+06
3.49918e+06
3.49862e+06
3.49813e+06
3.49769e+06
3.49731e+06
3.49697e+06
3.49668e+06
3.49643e+06
3.49621e+06
3.49603e+06
3.49588e+06
3.49576e+06
3.49566e+06
3.49558e+06
3.49553e+06
3.49548e+06
3.49546e+06
3.49544e+06
3.45951e+06
3.47403e+06
3.46237e+06
3.46919e+06
3.46312e+06
3.46497e+06
3.45755e+06
3.46216e+06
3.46316e+06
3.47376e+06
3.48319e+06
3.50433e+06
3.50552e+06
3.50728e+06
3.50497e+06
3.50454e+06
3.50308e+06
3.50227e+06
3.50125e+06
3.50047e+06
3.49971e+06
3.49906e+06
3.49846e+06
3.49795e+06
3.49749e+06
3.49709e+06
3.49674e+06
3.49644e+06
3.49618e+06
3.49596e+06
3.49578e+06
3.49563e+06
3.49551e+06
3.49542e+06
3.49534e+06
3.49529e+06
3.49525e+06
3.49523e+06
3.49521e+06
3.45572e+06
3.47932e+06
3.45965e+06
3.47218e+06
3.46233e+06
3.46614e+06
3.45736e+06
3.46265e+06
3.46382e+06
3.4741e+06
3.48442e+06
3.50528e+06
3.50636e+06
3.50788e+06
3.5055e+06
3.50491e+06
3.50335e+06
3.50243e+06
3.50132e+06
3.50047e+06
3.49964e+06
3.49894e+06
3.49831e+06
3.49776e+06
3.49728e+06
3.49686e+06
3.4965e+06
3.49619e+06
3.49593e+06
3.49571e+06
3.49552e+06
3.49538e+06
3.49526e+06
3.49517e+06
3.4951e+06
3.49505e+06
3.49501e+06
3.49499e+06
3.49499e+06
3.45501e+06
3.48397e+06
3.45966e+06
3.47547e+06
3.4632e+06
3.46839e+06
3.45885e+06
3.46449e+06
3.46608e+06
3.47577e+06
3.48661e+06
3.50685e+06
3.50773e+06
3.50883e+06
3.5063e+06
3.50546e+06
3.50375e+06
3.50267e+06
3.50145e+06
3.5005e+06
3.49959e+06
3.49883e+06
3.49815e+06
3.49757e+06
3.49706e+06
3.49662e+06
3.49624e+06
3.49593e+06
3.49566e+06
3.49544e+06
3.49526e+06
3.49511e+06
3.495e+06
3.49491e+06
3.49485e+06
3.4948e+06
3.49477e+06
3.49476e+06
3.49476e+06
3.45793e+06
3.48826e+06
3.46265e+06
3.47948e+06
3.46616e+06
3.47203e+06
3.46268e+06
3.46787e+06
3.47019e+06
3.47896e+06
3.48989e+06
3.50911e+06
3.50968e+06
3.51015e+06
3.50736e+06
3.50617e+06
3.50426e+06
3.50298e+06
3.50162e+06
3.50055e+06
3.49955e+06
3.49872e+06
3.49799e+06
3.49736e+06
3.49683e+06
3.49637e+06
3.49598e+06
3.49566e+06
3.49539e+06
3.49517e+06
3.49499e+06
3.49484e+06
3.49473e+06
3.49465e+06
3.49459e+06
3.49455e+06
3.49453e+06
3.49453e+06
3.49453e+06
3.46408e+06
3.49297e+06
3.4685e+06
3.48478e+06
3.47144e+06
3.47763e+06
3.46914e+06
3.47361e+06
3.47623e+06
3.48383e+06
3.49434e+06
3.51212e+06
3.5122e+06
3.51182e+06
3.50867e+06
3.50703e+06
3.50486e+06
3.50334e+06
3.50181e+06
3.5006e+06
3.49951e+06
3.4986e+06
3.49781e+06
3.49714e+06
3.49658e+06
3.4961e+06
3.4957e+06
3.49537e+06
3.4951e+06
3.49488e+06
3.4947e+06
3.49457e+06
3.49446e+06
3.49439e+06
3.49434e+06
3.4943e+06
3.49429e+06
3.49429e+06
3.4943e+06
3.47348e+06
3.49874e+06
3.47717e+06
3.49177e+06
3.47928e+06
3.48561e+06
3.47844e+06
3.48216e+06
3.48441e+06
3.49039e+06
3.49997e+06
3.51585e+06
3.51523e+06
3.5138e+06
3.51018e+06
3.50801e+06
3.50553e+06
3.50372e+06
3.50201e+06
3.50065e+06
3.49945e+06
3.49846e+06
3.49761e+06
3.4969e+06
3.49631e+06
3.49582e+06
3.49541e+06
3.49507e+06
3.4948e+06
3.49458e+06
3.49441e+06
3.49428e+06
3.49419e+06
3.49412e+06
3.49408e+06
3.49405e+06
3.49404e+06
3.49405e+06
3.49407e+06
3.48566e+06
3.50598e+06
3.48855e+06
3.5007e+06
3.48979e+06
3.49602e+06
3.49059e+06
3.4938e+06
3.49516e+06
3.49844e+06
3.50677e+06
3.52023e+06
3.51869e+06
3.51601e+06
3.51182e+06
3.50904e+06
3.50622e+06
3.5041e+06
3.50219e+06
3.50066e+06
3.49935e+06
3.49828e+06
3.49738e+06
3.49663e+06
3.49601e+06
3.49551e+06
3.49509e+06
3.49476e+06
3.49449e+06
3.49428e+06
3.49411e+06
3.49399e+06
3.4939e+06
3.49385e+06
3.49381e+06
3.4938e+06
3.4938e+06
3.49381e+06
3.49384e+06
3.50041e+06
3.51486e+06
3.50222e+06
3.51136e+06
3.50272e+06
3.50839e+06
3.50517e+06
3.50745e+06
3.50795e+06
3.50735e+06
3.51447e+06
3.52493e+06
3.5224e+06
3.5183e+06
3.51351e+06
3.51006e+06
3.50687e+06
3.50443e+06
3.50231e+06
3.50062e+06
3.49921e+06
3.49805e+06
3.4971e+06
3.49632e+06
3.49569e+06
3.49517e+06
3.49476e+06
3.49442e+06
3.49416e+06
3.49396e+06
3.4938e+06
3.49369e+06
3.49362e+06
3.49357e+06
3.49354e+06
3.49354e+06
3.49355e+06
3.49357e+06
3.4936e+06
3.51656e+06
3.52502e+06
3.51741e+06
3.52312e+06
3.5173e+06
3.52192e+06
3.52119e+06
3.52223e+06
3.52257e+06
3.51659e+06
3.52282e+06
3.52966e+06
3.52615e+06
3.52049e+06
3.51509e+06
3.51095e+06
3.50742e+06
3.50465e+06
3.50234e+06
3.5005e+06
3.49899e+06
3.49777e+06
3.49677e+06
3.49597e+06
3.49533e+06
3.49481e+06
3.49439e+06
3.49407e+06
3.49382e+06
3.49363e+06
3.49348e+06
3.49339e+06
3.49332e+06
3.49328e+06
3.49327e+06
3.49328e+06
3.4933e+06
3.49333e+06
3.49337e+06
3.5332e+06
3.53559e+06
3.53298e+06
3.53503e+06
3.53242e+06
3.53574e+06
3.53755e+06
3.53713e+06
3.53769e+06
3.52551e+06
3.53117e+06
3.53407e+06
3.52965e+06
3.52237e+06
3.51645e+06
3.51163e+06
3.50778e+06
3.50471e+06
3.50224e+06
3.50026e+06
3.49867e+06
3.4974e+06
3.49638e+06
3.49557e+06
3.49492e+06
3.49441e+06
3.494e+06
3.49369e+06
3.49346e+06
3.49328e+06
3.49315e+06
3.49307e+06
3.49302e+06
3.493e+06
3.493e+06
3.49301e+06
3.49304e+06
3.49309e+06
3.49314e+06
3.54892e+06
3.54556e+06
3.54785e+06
3.54624e+06
3.54698e+06
3.54906e+06
3.55357e+06
3.55272e+06
3.55334e+06
3.53407e+06
3.53913e+06
3.53792e+06
3.53257e+06
3.52375e+06
3.5174e+06
3.51198e+06
3.50787e+06
3.50456e+06
3.50196e+06
3.49989e+06
3.49825e+06
3.49695e+06
3.49592e+06
3.49511e+06
3.49447e+06
3.49397e+06
3.49359e+06
3.49329e+06
3.49308e+06
3.49292e+06
3.49281e+06
3.49275e+06
3.49271e+06
3.49271e+06
3.49272e+06
3.49275e+06
3.49279e+06
3.49284e+06
3.4929e+06
3.5627e+06
3.55397e+06
3.56072e+06
3.55586e+06
3.55984e+06
3.5607e+06
3.56862e+06
3.56725e+06
3.56695e+06
3.54155e+06
3.54569e+06
3.54082e+06
3.53451e+06
3.52444e+06
3.51777e+06
3.5119e+06
3.50762e+06
3.50414e+06
3.50146e+06
3.49935e+06
3.49769e+06
3.49639e+06
3.49538e+06
3.49458e+06
3.49397e+06
3.4935e+06
3.49314e+06
3.49287e+06
3.49268e+06
3.49255e+06
3.49246e+06
3.49242e+06
3.4924e+06
3.49241e+06
3.49244e+06
3.49248e+06
3.49254e+06
3.4926e+06
3.49267e+06
3.57284e+06
3.56005e+06
3.57022e+06
3.56297e+06
3.56975e+06
3.56946e+06
3.58079e+06
3.57835e+06
3.57707e+06
3.54709e+06
3.55013e+06
3.54237e+06
3.53509e+06
3.52423e+06
3.51739e+06
3.51128e+06
3.50694e+06
3.5034e+06
3.50072e+06
3.49861e+06
3.49699e+06
3.49572e+06
3.49474e+06
3.49399e+06
3.49342e+06
3.49298e+06
3.49266e+06
3.49243e+06
3.49227e+06
3.49216e+06
3.4921e+06
3.49208e+06
3.49209e+06
3.49211e+06
3.49216e+06
3.49222e+06
3.49228e+06
3.49236e+06
3.49243e+06
3.578e+06
3.56327e+06
3.57508e+06
3.56689e+06
3.57549e+06
3.57498e+06
3.58775e+06
3.58644e+06
3.58254e+06
3.55082e+06
3.55199e+06
3.54232e+06
3.53407e+06
3.523e+06
3.51616e+06
3.51007e+06
3.50579e+06
3.50231e+06
3.49972e+06
3.49768e+06
3.49613e+06
3.49493e+06
3.49402e+06
3.49333e+06
3.49281e+06
3.49243e+06
3.49215e+06
3.49196e+06
3.49184e+06
3.49177e+06
3.49174e+06
3.49174e+06
3.49177e+06
3.49181e+06
3.49187e+06
3.49195e+06
3.49203e+06
3.49211e+06
3.4922e+06
3.57632e+06
3.56289e+06
3.57363e+06
3.56642e+06
3.57478e+06
3.57652e+06
3.58859e+06
3.58837e+06
3.5809e+06
3.55153e+06
3.55037e+06
3.54032e+06
3.53118e+06
3.52065e+06
3.51398e+06
3.50822e+06
3.50414e+06
3.50086e+06
3.49843e+06
3.49654e+06
3.49511e+06
3.49403e+06
3.49321e+06
3.4926e+06
3.49216e+06
3.49184e+06
3.49162e+06
3.49148e+06
3.49139e+06
3.49136e+06
3.49136e+06
3.49139e+06
3.49144e+06
3.49151e+06
3.49159e+06
3.49168e+06
3.49177e+06
3.49187e+06
3.49197e+06
3.56842e+06
3.55962e+06
3.56649e+06
3.56233e+06
3.56776e+06
3.57384e+06
3.58358e+06
3.58442e+06
3.57313e+06
3.54867e+06
3.54537e+06
3.53618e+06
3.52647e+06
3.51715e+06
3.51087e+06
3.50572e+06
3.50198e+06
3.49906e+06
3.49687e+06
3.4952e+06
3.49395e+06
3.49301e+06
3.49232e+06
3.49182e+06
3.49146e+06
3.49122e+06
3.49106e+06
3.49097e+06
3.49094e+06
3.49094e+06
3.49098e+06
3.49104e+06
3.49112e+06
3.49121e+06
3.49131e+06
3.49141e+06
3.49152e+06
3.49163e+06
3.49174e+06
3.55708e+06
3.55505e+06
3.55614e+06
3.55678e+06
3.5576e+06
3.56771e+06
3.57419e+06
3.57624e+06
3.56042e+06
3.54255e+06
3.53731e+06
3.53003e+06
3.52017e+06
3.5126e+06
3.50691e+06
3.50263e+06
3.49937e+06
3.49691e+06
3.49506e+06
3.49367e+06
3.49264e+06
3.49189e+06
3.49135e+06
3.49097e+06
3.49072e+06
3.49056e+06
3.49048e+06
3.49045e+06
3.49047e+06
3.49052e+06
3.49059e+06
3.49069e+06
3.49079e+06
3.4909e+06
3.49102e+06
3.49114e+06
3.49127e+06
3.49139e+06
3.49151e+06
3.54471e+06
3.54936e+06
3.54478e+06
3.55019e+06
3.54694e+06
3.55845e+06
3.56129e+06
3.56364e+06
3.54328e+06
3.53288e+06
3.52649e+06
3.52195e+06
3.51251e+06
3.50711e+06
3.50224e+06
3.49902e+06
3.49637e+06
3.49449e+06
3.49303e+06
3.49199e+06
3.49122e+06
3.49069e+06
3.49032e+06
3.49009e+06
3.48995e+06
3.48989e+06
3.48989e+06
3.48993e+06
3.49e+06
3.49009e+06
3.49021e+06
3.49033e+06
3.49046e+06
3.4906e+06
3.49074e+06
3.49088e+06
3.49102e+06
3.49115e+06
3.49128e+06
3.53189e+06
3.54154e+06
3.53282e+06
3.5417e+06
3.53581e+06
3.54578e+06
3.54513e+06
3.54664e+06
3.52253e+06
3.51993e+06
3.5135e+06
3.51226e+06
3.5039e+06
3.50088e+06
3.49704e+06
3.49502e+06
3.49307e+06
3.49184e+06
3.49084e+06
3.49019e+06
3.48972e+06
3.48942e+06
3.48925e+06
3.48917e+06
3.48916e+06
3.4892e+06
3.48928e+06
3.48939e+06
3.48952e+06
3.48967e+06
3.48982e+06
3.48998e+06
3.49014e+06
3.4903e+06
3.49046e+06
3.49062e+06
3.49077e+06
3.49092e+06
3.49106e+06
3.51837e+06
3.53002e+06
3.51965e+06
3.52989e+06
3.52279e+06
3.52928e+06
3.52599e+06
3.52548e+06
3.49911e+06
3.50427e+06
3.49903e+06
3.5014e+06
3.49473e+06
3.49416e+06
3.49152e+06
3.49075e+06
3.48958e+06
3.48905e+06
3.48856e+06
3.48831e+06
3.48816e+06
3.48812e+06
3.48814e+06
3.48823e+06
3.48835e+06
3.4885e+06
3.48868e+06
3.48886e+06
3.48905e+06
3.48924e+06
3.48944e+06
3.48963e+06
3.48982e+06
3.49001e+06
3.49018e+06
3.49036e+06
3.49053e+06
3.49069e+06
3.49084e+06
3.50351e+06
3.51399e+06
3.50484e+06
3.51393e+06
3.50719e+06
3.50933e+06
3.50463e+06
3.50129e+06
3.47448e+06
3.48684e+06
3.48398e+06
3.48993e+06
3.48545e+06
3.48721e+06
3.48591e+06
3.48638e+06
3.48604e+06
3.48621e+06
3.48623e+06
3.48778e+06
3.494e+06
3.48845e+06
3.49439e+06
3.48935e+06
3.4872e+06
3.48225e+06
3.4758e+06
3.45027e+06
3.46879e+06
3.46919e+06
3.47841e+06
3.47647e+06
3.48033e+06
3.48043e+06
3.48206e+06
3.48255e+06
3.45543e+06
3.46745e+06
3.50519e+06
3.50333e+06
3.50573e+06
3.50399e+06
3.50474e+06
3.50166e+06
3.50212e+06
3.50124e+06
3.49899e+06
3.49444e+06
3.49618e+06
3.49544e+06
3.49786e+06
3.49935e+06
3.50014e+06
3.50014e+06
3.50046e+06
3.50062e+06
3.5008e+06
3.50092e+06
3.50102e+06
3.50108e+06
3.50112e+06
3.50113e+06
3.50112e+06
3.50109e+06
3.50105e+06
3.50099e+06
3.50092e+06
3.50083e+06
3.50074e+06
3.50065e+06
3.50054e+06
3.50043e+06
3.50032e+06
3.5002e+06
3.50007e+06
3.49993e+06
3.49976e+06
3.50042e+06
3.49657e+06
3.50006e+06
3.49764e+06
3.50032e+06
3.50072e+06
3.50284e+06
3.5026e+06
3.5034e+06
3.49838e+06
3.50063e+06
3.49753e+06
3.50474e+06
3.50454e+06
3.50514e+06
3.50282e+06
3.50216e+06
3.50136e+06
3.50102e+06
3.50072e+06
3.50057e+06
3.50046e+06
3.5004e+06
3.50037e+06
3.50035e+06
3.50034e+06
3.50033e+06
3.50032e+06
3.50031e+06
3.50028e+06
3.50025e+06
3.50021e+06
3.50016e+06
3.50009e+06
3.50002e+06
3.49993e+06
3.49982e+06
3.4997e+06
3.49954e+06
3.50441e+06
3.49984e+06
3.50389e+06
3.50063e+06
3.50296e+06
3.50127e+06
3.50292e+06
3.50233e+06
3.5024e+06
3.49561e+06
3.49807e+06
3.4946e+06
3.50425e+06
3.50269e+06
3.50474e+06
3.5026e+06
3.50248e+06
3.50176e+06
3.50153e+06
3.50122e+06
3.50104e+06
3.50086e+06
3.50073e+06
3.50062e+06
3.50052e+06
3.50043e+06
3.50035e+06
3.50028e+06
3.50021e+06
3.50014e+06
3.50007e+06
3.5e+06
3.49993e+06
3.49985e+06
3.49977e+06
3.49969e+06
3.49959e+06
3.49949e+06
3.49936e+06
3.50219e+06
3.49731e+06
3.50172e+06
3.49862e+06
3.50124e+06
3.50009e+06
3.50185e+06
3.50175e+06
3.50297e+06
3.49707e+06
3.50092e+06
3.49589e+06
3.50669e+06
3.50515e+06
3.50704e+06
3.50404e+06
3.50356e+06
3.5024e+06
3.50193e+06
3.50141e+06
3.50111e+06
3.50084e+06
3.50065e+06
3.5005e+06
3.50038e+06
3.50027e+06
3.50018e+06
3.5001e+06
3.50002e+06
3.49994e+06
3.49987e+06
3.4998e+06
3.49972e+06
3.49964e+06
3.49956e+06
3.49947e+06
3.49938e+06
3.49928e+06
3.49916e+06
3.50188e+06
3.4975e+06
3.50146e+06
3.49836e+06
3.50058e+06
3.49919e+06
3.50056e+06
3.50038e+06
3.50162e+06
3.49609e+06
3.50001e+06
3.49502e+06
3.50712e+06
3.50511e+06
3.50727e+06
3.50419e+06
3.50388e+06
3.50267e+06
3.5022e+06
3.50163e+06
3.50127e+06
3.50095e+06
3.50071e+06
3.5005e+06
3.50033e+06
3.50019e+06
3.50006e+06
3.49995e+06
3.49985e+06
3.49976e+06
3.49967e+06
3.49959e+06
3.49951e+06
3.49943e+06
3.49934e+06
3.49926e+06
3.49917e+06
3.49908e+06
3.49897e+06
3.49986e+06
3.49609e+06
3.49951e+06
3.4969e+06
3.49887e+06
3.49778e+06
3.499e+06
3.49912e+06
3.50088e+06
3.49649e+06
3.50058e+06
3.49571e+06
3.5086e+06
3.5065e+06
3.50839e+06
3.50497e+06
3.50449e+06
3.50307e+06
3.50248e+06
3.50179e+06
3.50136e+06
3.50098e+06
3.50069e+06
3.50044e+06
3.50024e+06
3.50007e+06
3.49992e+06
3.49979e+06
3.49968e+06
3.49957e+06
3.49948e+06
3.49939e+06
3.4993e+06
3.49921e+06
3.49913e+06
3.49904e+06
3.49896e+06
3.49887e+06
3.49878e+06
3.498e+06
3.49536e+06
3.49776e+06
3.49582e+06
3.49727e+06
3.4964e+06
3.49737e+06
3.49761e+06
3.49946e+06
3.49599e+06
3.49977e+06
3.49569e+06
3.50903e+06
3.50696e+06
3.50863e+06
3.50521e+06
3.50472e+06
3.50326e+06
3.50264e+06
3.5019e+06
3.50143e+06
3.50099e+06
3.50066e+06
3.50038e+06
3.50015e+06
3.49995e+06
3.49978e+06
3.49964e+06
3.49951e+06
3.49939e+06
3.49928e+06
3.49918e+06
3.49909e+06
3.499e+06
3.49891e+06
3.49883e+06
3.49875e+06
3.49867e+06
3.49859e+06
3.49554e+06
3.49414e+06
3.49545e+06
3.49444e+06
3.49537e+06
3.49487e+06
3.49571e+06
3.49616e+06
3.49823e+06
3.49596e+06
3.49928e+06
3.49637e+06
3.50979e+06
3.50787e+06
3.50907e+06
3.50563e+06
3.50501e+06
3.50347e+06
3.50277e+06
3.50198e+06
3.50146e+06
3.50098e+06
3.50062e+06
3.5003e+06
3.50005e+06
3.49983e+06
3.49964e+06
3.49947e+06
3.49933e+06
3.4992e+06
3.49908e+06
3.49898e+06
3.49888e+06
3.49879e+06
3.4987e+06
3.49862e+06
3.49854e+06
3.49847e+06
3.4984e+06
3.49298e+06
3.493e+06
3.49308e+06
3.493e+06
3.49345e+06
3.49323e+06
3.494e+06
3.49453e+06
3.49673e+06
3.49559e+06
3.49826e+06
3.49697e+06
3.51004e+06
3.50838e+06
3.50907e+06
3.50579e+06
3.50509e+06
3.50356e+06
3.50282e+06
3.502e+06
3.50144e+06
3.50094e+06
3.50055e+06
3.50021e+06
3.49993e+06
3.49969e+06
3.49949e+06
3.49931e+06
3.49915e+06
3.49901e+06
3.49889e+06
3.49877e+06
3.49867e+06
3.49858e+06
3.49849e+06
3.49841e+06
3.49833e+06
3.49826e+06
3.4982e+06
3.49042e+06
3.49132e+06
3.49059e+06
3.49122e+06
3.49147e+06
3.49138e+06
3.49226e+06
3.49276e+06
3.4952e+06
3.49532e+06
3.49729e+06
3.49797e+06
3.51031e+06
3.50897e+06
3.50904e+06
3.50597e+06
3.50513e+06
3.50362e+06
3.50283e+06
3.50199e+06
3.5014e+06
3.50088e+06
3.50046e+06
3.50011e+06
3.49981e+06
3.49955e+06
3.49933e+06
3.49913e+06
3.49897e+06
3.49882e+06
3.49869e+06
3.49857e+06
3.49846e+06
3.49837e+06
3.49828e+06
3.4982e+06
3.49812e+06
3.49806e+06
3.498e+06
3.48814e+06
3.48904e+06
3.48827e+06
3.48904e+06
3.48951e+06
3.48923e+06
3.49045e+06
3.49078e+06
3.49348e+06
3.49484e+06
3.4961e+06
3.49906e+06
3.51028e+06
3.50931e+06
3.50876e+06
3.50601e+06
3.50504e+06
3.5036e+06
3.50277e+06
3.50193e+06
3.50133e+06
3.50079e+06
3.50036e+06
3.49998e+06
3.49967e+06
3.4994e+06
3.49916e+06
3.49896e+06
3.49878e+06
3.49862e+06
3.49848e+06
3.49836e+06
3.49825e+06
3.49815e+06
3.49806e+06
3.49798e+06
3.49791e+06
3.49785e+06
3.4978e+06
3.48634e+06
3.48579e+06
3.4862e+06
3.48627e+06
3.48759e+06
3.48681e+06
3.48857e+06
3.48864e+06
3.49161e+06
3.49425e+06
3.49485e+06
3.50035e+06
3.5102e+06
3.50956e+06
3.50841e+06
3.506e+06
3.5049e+06
3.50353e+06
3.50268e+06
3.50185e+06
3.50123e+06
3.50068e+06
3.50024e+06
3.49985e+06
3.49952e+06
3.49924e+06
3.49899e+06
3.49878e+06
3.49859e+06
3.49842e+06
3.49828e+06
3.49815e+06
3.49804e+06
3.49794e+06
3.49785e+06
3.49777e+06
3.4977e+06
3.49764e+06
3.49759e+06
3.48515e+06
3.48179e+06
3.48458e+06
3.48309e+06
3.48568e+06
3.48419e+06
3.48655e+06
3.48632e+06
3.4895e+06
3.49344e+06
3.49337e+06
3.50156e+06
3.50997e+06
3.50959e+06
3.50796e+06
3.50589e+06
3.50469e+06
3.50342e+06
3.50254e+06
3.50173e+06
3.5011e+06
3.50055e+06
3.5001e+06
3.4997e+06
3.49936e+06
3.49907e+06
3.49881e+06
3.49859e+06
3.49839e+06
3.49822e+06
3.49807e+06
3.49794e+06
3.49782e+06
3.49772e+06
3.49763e+06
3.49756e+06
3.49749e+06
3.49743e+06
3.49739e+06
3.4846e+06
3.4774e+06
3.48339e+06
3.47976e+06
3.48377e+06
3.48147e+06
3.48435e+06
3.48385e+06
3.48714e+06
3.49235e+06
3.49181e+06
3.50265e+06
3.50962e+06
3.50948e+06
3.50746e+06
3.50573e+06
3.50444e+06
3.50327e+06
3.50238e+06
3.50159e+06
3.50096e+06
3.50041e+06
3.49995e+06
3.49955e+06
3.4992e+06
3.49889e+06
3.49863e+06
3.4984e+06
3.49819e+06
3.49802e+06
3.49786e+06
3.49773e+06
3.49761e+06
3.4975e+06
3.49742e+06
3.49734e+06
3.49727e+06
3.49722e+06
3.49718e+06
3.48438e+06
3.47313e+06
3.48254e+06
3.47652e+06
3.48181e+06
3.47873e+06
3.48192e+06
3.48122e+06
3.4845e+06
3.49085e+06
3.49026e+06
3.50353e+06
3.50909e+06
3.50922e+06
3.50693e+06
3.5055e+06
3.50416e+06
3.50309e+06
3.50219e+06
3.50144e+06
3.5008e+06
3.50026e+06
3.49979e+06
3.49938e+06
3.49903e+06
3.49871e+06
3.49844e+06
3.4982e+06
3.49799e+06
3.49781e+06
3.49765e+06
3.49751e+06
3.49739e+06
3.49728e+06
3.4972e+06
3.49712e+06
3.49706e+06
3.49701e+06
3.49697e+06
3.48407e+06
3.46938e+06
3.48172e+06
3.47358e+06
3.47971e+06
3.47603e+06
3.47919e+06
3.47841e+06
3.48157e+06
3.48893e+06
3.48875e+06
3.50414e+06
3.50844e+06
3.50885e+06
3.50639e+06
3.50525e+06
3.50387e+06
3.5029e+06
3.502e+06
3.50127e+06
3.50064e+06
3.5001e+06
3.49962e+06
3.49921e+06
3.49885e+06
3.49853e+06
3.49825e+06
3.498e+06
3.49778e+06
3.49759e+06
3.49743e+06
3.49729e+06
3.49717e+06
3.49706e+06
3.49697e+06
3.4969e+06
3.49684e+06
3.49679e+06
3.49676e+06
3.48308e+06
3.46659e+06
3.48059e+06
3.47106e+06
3.47741e+06
3.47339e+06
3.47611e+06
3.47542e+06
3.47837e+06
3.4866e+06
3.4873e+06
3.50445e+06
3.50769e+06
3.50841e+06
3.50587e+06
3.50498e+06
3.50358e+06
3.5027e+06
3.50181e+06
3.5011e+06
3.50047e+06
3.49993e+06
3.49945e+06
3.49903e+06
3.49866e+06
3.49833e+06
3.49805e+06
3.49779e+06
3.49757e+06
3.49738e+06
3.49721e+06
3.49706e+06
3.49694e+06
3.49684e+06
3.49675e+06
3.49668e+06
3.49662e+06
3.49657e+06
3.49654e+06
3.48117e+06
3.46478e+06
3.47885e+06
3.46899e+06
3.47491e+06
3.47087e+06
3.47271e+06
3.4723e+06
3.47499e+06
3.48397e+06
3.48594e+06
3.50448e+06
3.50691e+06
3.50795e+06
3.5054e+06
3.50472e+06
3.50332e+06
3.50252e+06
3.50162e+06
3.50094e+06
3.50031e+06
3.49977e+06
3.49928e+06
3.49885e+06
3.49847e+06
3.49814e+06
3.49784e+06
3.49758e+06
3.49735e+06
3.49715e+06
3.49698e+06
3.49684e+06
3.49671e+06
3.49661e+06
3.49652e+06
3.49645e+06
3.4964e+06
3.49635e+06
3.49632e+06
3.47824e+06
3.46409e+06
3.47648e+06
3.46737e+06
3.47229e+06
3.46855e+06
3.46908e+06
3.46918e+06
3.47158e+06
3.48118e+06
3.4847e+06
3.5043e+06
3.50617e+06
3.50751e+06
3.50501e+06
3.50449e+06
3.50311e+06
3.50236e+06
3.50147e+06
3.5008e+06
3.50015e+06
3.49961e+06
3.49911e+06
3.49867e+06
3.49828e+06
3.49794e+06
3.49763e+06
3.49736e+06
3.49713e+06
3.49693e+06
3.49675e+06
3.49661e+06
3.49648e+06
3.49638e+06
3.49629e+06
3.49622e+06
3.49617e+06
3.49613e+06
3.49611e+06
3.47442e+06
3.46434e+06
3.47347e+06
3.46621e+06
3.46969e+06
3.4666e+06
3.46542e+06
3.46633e+06
3.46841e+06
3.47849e+06
3.48368e+06
3.50403e+06
3.50557e+06
3.50716e+06
3.50473e+06
3.50434e+06
3.50296e+06
3.50224e+06
3.50134e+06
3.50067e+06
3.50001e+06
3.49945e+06
3.49894e+06
3.49849e+06
3.49809e+06
3.49773e+06
3.49742e+06
3.49714e+06
3.4969e+06
3.4967e+06
3.49652e+06
3.49637e+06
3.49625e+06
3.49614e+06