/*--------------------------------*- C++ -*----------------------------------*\
| =========                 |                                                 |
| \\      /  F ield         | OpenFOAM: The Open Source CFD Toolbox           |
|  \\    /   O peration     | Version:  v2012                                 |
|   \\  /    A nd           | Website:  www.openfoam.com                      |
|    \\/     M anipulation  |                                                 |
\*---------------------------------------------------------------------------*/
FoamFile
{
    version     2.0;
    format      ascii;
    class       volVectorField;
    location    "0.45";
    object      U;
}
// * * * * * * * * * * * * * * * * * * * * * * * * * * * * * * * * * * * * * //

dimensions      [0 1 -1 0 0 0 0];


internalField   nonuniform List<vector> 
3352
(
(-0.0446027 -43.7202 0.000389271)
(0.0989463 -42.8729 -0.00086367)
(-0.128659 -41.921 0.00112255)
(-0.0274964 -42.7994 0.000239294)
(-0.444451 -35.9933 0.00387814)
(-0.310617 -32.0654 0.00271135)
(-0.218261 -28.7088 0.00190165)
(-0.205278 -26.4867 0.00179155)
(-0.163872 -24.7844 0.00143146)
(-0.0756737 -22.997 0.000663176)
(0.0344076 -20.8396 -0.000294228)
(0.0833421 -16.7806 -0.000721678)
(0.132533 -12.7858 -0.00113321)
(0.13763 -11.9237 -0.00119671)
(0.130373 -11.543 -0.00113703)
(0.122306 -11.1345 -0.00106748)
(0.112835 -10.63 -0.000984945)
(0.103523 -10.0488 -0.00090368)
(0.0939564 -9.4326 -0.000820184)
(0.084349 -8.80947 -0.000736335)
(0.0744779 -8.19652 -0.000650186)
(0.0644008 -7.60222 -0.000562236)
(0.0540983 -7.0303 -0.00047232)
(0.0436409 -6.48161 -0.000381049)
(0.0330953 -5.9557 -0.000289008)
(0.0225571 -5.45153 -0.00019703)
(0.0121277 -4.96795 -0.000105998)
(0.00192019 -4.50391 -1.69016e-05)
(-0.00794647 -4.0585 6.92227e-05)
(-0.0173457 -3.63104 0.000151271)
(-0.0261434 -3.22103 0.000228071)
(-0.0341969 -2.82812 0.000298378)
(-0.0413522 -2.45211 0.00036085)
(-0.0474409 -2.09292 0.000414017)
(-0.0522753 -1.75056 0.000456241)
(-0.0556363 -1.42509 0.000485612)
(-0.0572666 -1.11665 0.000499886)
(-0.0567979 -0.825477 0.000495862)
(-0.05385 -0.551796 0.000470198)
(-0.0453268 -43.7873 0.000395597)
(0.116853 -42.8377 -0.00101992)
(-0.106198 -41.6383 0.000926532)
(-0.0622447 -42.1809 0.00054246)
(-0.52192 -35.3856 0.00455413)
(-0.308796 -32.1925 0.00269584)
(-0.150329 -28.7971 0.00131218)
(-0.103949 -26.4744 0.000909882)
(-0.0520357 -24.9073 0.000456717)
(0.0620861 -23.2246 -0.000537984)
(0.190297 -21.0547 -0.00165297)
(0.170833 -16.8573 -0.00145981)
(0.151835 -12.8603 -0.00129647)
(0.160356 -11.945 -0.00139391)
(0.146159 -11.5493 -0.00127463)
(0.135377 -11.1359 -0.00118156)
(0.121893 -10.6285 -0.00106401)
(0.110126 -10.0454 -0.000961302)
(0.0985382 -9.42776 -0.000860169)
(0.0876003 -8.80327 -0.000764701)
(0.0766843 -8.18908 -0.00066943)
(0.0658234 -7.59373 -0.000574638)
(0.0548859 -7.02094 -0.000479179)
(0.0439208 -6.47162 -0.000383479)
(0.0329622 -5.94528 -0.000287835)
(0.0220913 -5.44091 -0.000192955)
(0.0113939 -4.95733 -9.95881e-05)
(0.000971542 -4.49346 -8.62114e-06)
(-0.00906746 -4.0484 7.90017e-05)
(-0.0186056 -3.62144 0.000162255)
(-0.0275165 -3.21208 0.000240037)
(-0.0356647 -2.81995 0.000311162)
(-0.0429031 -2.44485 0.00037435)
(-0.0490707 -2.0867 0.000428195)
(-0.0539897 -1.74549 0.000471145)
(-0.0574548 -1.42131 0.000501409)
(-0.0592367 -1.11433 0.000516985)
(-0.0590138 -0.824798 0.000515073)
(-0.0565502 -0.553078 0.000493588)
(-0.0427906 -43.8345 0.000373466)
(0.105643 -42.8943 -0.00092206)
(-0.0870105 -41.5291 0.000759102)
(-0.0551884 -41.8802 0.000480882)
(-0.432568 -35.2441 0.00377443)
(-0.18181 -32.3888 0.00158784)
(-0.0641911 -28.9604 0.000565801)
(0.0363888 -26.5727 -0.000311879)
(0.102701 -25.0157 -0.000893275)
(0.188247 -23.3476 -0.00163983)
(0.273983 -21.0895 -0.00238559)
(0.193795 -16.7532 -0.00165925)
(0.153265 -12.8694 -0.00131467)
(0.168379 -11.9487 -0.00146505)
(0.152909 -11.5472 -0.00133377)
(0.142077 -11.1325 -0.00124009)
(0.126931 -10.6244 -0.00110802)
(0.114238 -10.0415 -0.000997218)
(0.101636 -9.42378 -0.00088723)
(0.0900226 -8.79901 -0.000785861)
(0.0784816 -8.18434 -0.000685133)
(0.0670967 -7.58842 -0.000585766)
(0.0556619 -7.01509 -0.000485964)
(0.0442367 -6.46528 -0.000386246)
(0.0328446 -5.93856 -0.000286815)
(0.0215717 -5.43389 -0.000188425)
(0.0105038 -4.95013 -9.18213e-05)
(-0.000256966 -4.4862 2.10197e-06)
(-0.0106038 -4.0412 9.24139e-05)
(-0.0204215 -3.61442 0.00017811)
(-0.0295875 -3.20536 0.00025812)
(-0.0379711 -2.81366 0.000331302)
(-0.0454318 -2.43912 0.000396432)
(-0.051818 -2.08164 0.000452185)
(-0.0569662 -1.74124 0.000497136)
(-0.0606942 -1.41801 0.000529694)
(-0.0628155 -1.11212 0.00054823)
(-0.0630859 -0.823838 0.000550619)
(-0.0614286 -0.553536 0.000536172)
(-0.0344197 -43.8864 0.000300413)
(0.0957578 -42.8838 -0.000835778)
(-0.0762578 -41.3386 0.000665264)
(-0.0758443 -41.4465 0.000661137)
(-0.429759 -35.0072 0.00374995)
(-0.148434 -32.5939 0.00129661)
(-0.0250059 -29.1364 0.000226737)
(0.0886658 -26.7211 -0.000766351)
(0.180539 -25.1719 -0.0015719)
(0.257413 -23.5066 -0.00224329)
(0.341571 -21.1683 -0.00297563)
(0.22289 -16.6752 -0.00192094)
(0.170175 -12.9003 -0.00146253)
(0.183 -11.966 -0.00159253)
(0.165745 -11.5507 -0.00144579)
(0.153023 -11.1307 -0.00133564)
(0.135061 -10.62 -0.00117899)
(0.120292 -10.0363 -0.00105007)
(0.10585 -9.41821 -0.000924019)
(0.0929354 -8.79294 -0.00081129)
(0.0803429 -8.17766 -0.000701385)
(0.0681449 -7.58115 -0.00059492)
(0.0560218 -7.00731 -0.000489112)
(0.0440076 -6.45711 -0.000384253)
(0.0320904 -5.93013 -0.00028024)
(0.0203451 -5.42535 -0.000177727)
(0.00884667 -4.9416 -7.73667e-05)
(-0.00230815 -4.47782 1.99958e-05)
(-0.0130177 -4.03308 0.000113474)
(-0.023171 -3.60666 0.000202099)
(-0.0326503 -3.19807 0.000284844)
(-0.0413302 -2.80693 0.000360613)
(-0.0490779 -2.43305 0.000428248)
(-0.0557522 -2.07632 0.000486517)
(-0.0612064 -1.73676 0.000534139)
(-0.0652847 -1.41446 0.000569755)
(-0.0678456 -1.10958 0.000592129)
(-0.0687244 -0.822361 0.000599826)
(-0.0679603 -0.553125 0.000593179)
(-0.0276509 -43.946 0.000241345)
(0.0889013 -42.9246 -0.000775924)
(-0.0535454 -41.1986 0.000467028)
(-0.0869581 -41.0879 0.000758139)
(-0.378691 -34.9106 0.00330434)
(-0.0859938 -32.8546 0.000751692)
(0.0307271 -29.3397 -0.000257095)
(0.149077 -26.9018 -0.00129239)
(0.25309 -25.3364 -0.00220463)
(0.319712 -23.6428 -0.00278686)
(0.391796 -21.19 -0.00341416)
(0.244979 -16.5374 -0.00211183)
(0.184721 -12.9095 -0.00159119)
(0.195043 -11.9739 -0.00169797)
(0.175745 -11.5495 -0.0015332)
(0.161567 -11.1253 -0.00141025)
(0.141513 -10.6129 -0.00123533)
(0.125182 -10.0295 -0.00109276)
(0.109266 -9.41163 -0.00095385)
(0.0952435 -8.78635 -0.000831449)
(0.081705 -8.17077 -0.000713285)
(0.0687323 -7.57382 -0.000600055)
(0.0559215 -6.99951 -0.000488244)
(0.043291 -6.44891 -0.000378005)
(0.0308037 -5.92164 -0.000269015)
(0.0185283 -5.41669 -0.000161874)
(0.00653335 -4.93291 -5.718e-05)
(-0.00508621 -4.46921 4.42392e-05)
(-0.0162311 -4.02468 0.000141517)
(-0.0267928 -3.5986 0.000233707)
(-0.0366568 -3.19045 0.00031981)
(-0.0457028 -2.79986 0.000398773)
(-0.053805 -2.42662 0.000469502)
(-0.0608335 -2.07063 0.000530861)
(-0.0666584 -1.73189 0.000581719)
(-0.0711505 -1.41049 0.000620946)
(-0.0742086 -1.10655 0.000647657)
(-0.0757352 -0.820293 0.000661006)
(-0.0758365 -0.551948 0.00066191)
(-0.0205777 -44.0103 0.000179617)
(0.0808466 -42.9461 -0.000705623)
(-0.0454465 -41.0262 0.000396312)
(-0.108994 -40.7221 0.000950492)
(-0.339087 -34.8427 0.00295878)
(-0.0518966 -33.1192 0.000454047)
(0.0639139 -29.5414 -0.000545101)
(0.179117 -27.1021 -0.00155367)
(0.293038 -25.52 -0.00255296)
(0.35651 -23.7898 -0.00310785)
(0.42451 -21.2182 -0.00369979)
(0.261912 -16.4082 -0.00225941)
(0.198817 -12.9232 -0.00171559)
(0.206733 -11.9856 -0.0018002)
(0.186253 -11.5498 -0.00162499)
(0.170521 -11.1198 -0.00148843)
(0.148381 -10.6051 -0.00129529)
(0.130262 -10.0216 -0.00113712)
(0.112673 -9.40388 -0.0009836)
(0.0973258 -8.77864 -0.000849635)
(0.0826769 -8.16284 -0.000721778)
(0.0688043 -7.56554 -0.000600693)
(0.0552212 -6.99086 -0.00048214)
(0.0419152 -6.43993 -0.000366004)
(0.0288135 -5.91244 -0.000251652)
(0.0159693 -5.40739 -0.000139546)
(0.00343992 -4.92362 -3.01874e-05)
(-0.0086848 -4.46006 7.56412e-05)
(-0.0203088 -4.01578 0.000177101)
(-0.0313256 -3.59006 0.000273263)
(-0.041623 -3.18237 0.00036315)
(-0.0510845 -2.79235 0.00044574)
(-0.0595905 -2.41977 0.000519993)
(-0.0670207 -2.06452 0.000584858)
(-0.0732602 -1.72659 0.000639334)
(-0.0782029 -1.40605 0.000682493)
(-0.0817791 -1.10301 0.000713725)
(-0.0839402 -0.817621 0.000732608)
(-0.084819 -0.550053 0.000740298)
(-0.0158423 -44.0793 0.000138292)
(0.0768825 -42.981 -0.000671024)
(-0.0397583 -40.8535 0.000346623)
(-0.121891 -40.4082 0.00106313)
(-0.282583 -34.8438 0.00246574)
(-0.0128093 -33.3967 0.000112866)
(0.10161 -29.748 -0.00087284)
(0.210286 -27.3093 -0.00182507)
(0.326369 -25.709 -0.00284365)
(0.388145 -23.9318 -0.00338375)
(0.447509 -21.2244 -0.00390044)
(0.272733 -16.2646 -0.00235348)
(0.210415 -12.9291 -0.00181845)
(0.215664 -11.9944 -0.00187848)
(0.194501 -11.5483 -0.00169708)
(0.17747 -11.1125 -0.00154911)
(0.153774 -10.5955 -0.00134237)
(0.134182 -10.0121 -0.00117135)
(0.11518 -9.39484 -0.0010055)
(0.0986347 -8.7699 -0.000861071)
(0.0829455 -8.15408 -0.000724133)
(0.0681924 -7.55655 -0.000595362)
(0.053835 -6.98156 -0.00047005)
(0.0398364 -6.43036 -0.000347868)
(0.0260959 -5.90266 -0.00022794)
(0.012653 -5.39751 -0.000110609)
(-0.00044474 -4.91377 3.71169e-06)
(-0.0131119 -4.45036 0.000114275)
(-0.0252545 -4.00634 0.000220261)
(-0.0367672 -3.581 0.000320752)
(-0.0475392 -3.1738 0.000414781)
(-0.0574563 -2.78436 0.000501347)
(-0.0664035 -2.41244 0.000579451)
(-0.0742685 -2.05793 0.000648112)
(-0.0809485 -1.72081 0.000706432)
(-0.0863554 -1.40111 0.000753642)
(-0.0904415 -1.09893 0.000789324)
(-0.0931887 -0.814356 0.000813321)
(-0.0947292 -0.547507 0.000826786)
(-0.0135576 -44.1524 0.000118354)
(0.0768301 -43.0078 -0.000670568)
(-0.0461443 -40.6597 0.000402307)
(-0.124836 -40.1429 0.00108895)
(-0.227579 -34.8866 0.00198578)
(0.0226852 -33.6697 -0.000196957)
(0.133036 -29.9518 -0.00114612)
(0.235376 -27.519 -0.00204355)
(0.349841 -25.9041 -0.00304834)
(0.41301 -24.0765 -0.00360055)
(0.462076 -21.2233 -0.00402741)
(0.280297 -16.1279 -0.00241952)
(0.220338 -12.9361 -0.00190669)
(0.22284 -12.0043 -0.00194145)
(0.201445 -11.5472 -0.0017578)
(0.183137 -11.1048 -0.00159859)
(0.158151 -10.5851 -0.00138059)
(0.137174 -10.0015 -0.00119747)
(0.116862 -9.38471 -0.00102019)
(0.0991463 -8.76013 -0.000865549)
(0.0824368 -8.14436 -0.000719704)
(0.0668033 -7.5467 -0.000583247)
(0.0516694 -6.97147 -0.000451157)
(0.0369709 -6.42004 -0.000322866)
(0.0225815 -5.89217 -0.000197274)
(0.00852528 -5.38696 -7.45886e-05)
(-0.00516017 -4.90327 4.48611e-05)
(-0.0183934 -4.44003 0.000160365)
(-0.031082 -3.9963 0.000271117)
(-0.0431203 -3.57136 0.000376196)
(-0.0543969 -3.16466 0.000474629)
(-0.0647986 -2.77582 0.000565425)
(-0.0742127 -2.40458 0.000647604)
(-0.0825322 -2.05083 0.000720232)
(-0.089663 -1.71451 0.000782486)
(-0.0955295 -1.39565 0.000833707)
(-0.100097 -1.0943 0.000873587)
(-0.103362 -0.810524 0.000902109)
(-0.105441 -0.544381 0.000920275)
(-0.0148129 -44.2288 0.000129312)
(0.0827947 -43.0323 -0.000722627)
(-0.0615067 -40.461 0.000536343)
(-0.105484 -39.9508 0.000920205)
(-0.175656 -34.9688 0.0015327)
(0.0638364 -33.9432 -0.000556124)
(0.165405 -30.1534 -0.00142755)
(0.263964 -27.728 -0.00229266)
(0.372574 -26.1008 -0.00324663)
(0.438219 -24.2177 -0.00382036)
(0.471892 -21.2056 -0.00411276)
(0.28554 -15.9917 -0.00246565)
(0.228287 -12.9395 -0.00197778)
(0.227533 -12.013 -0.00198282)
(0.206143 -11.5453 -0.00179891)
(0.186605 -11.0959 -0.00162889)
(0.160726 -10.5734 -0.00140308)
(0.138611 -9.98972 -0.00121003)
(0.117253 -9.37344 -0.00102361)
(0.0985314 -8.74931 -0.000860193)
(0.0809273 -8.13371 -0.000706538)
(0.064488 -7.53599 -0.000563049)
(0.0486252 -6.9606 -0.000424595)
(0.0332514 -6.40897 -0.00029041)
(0.0182232 -5.88097 -0.000159241)
(0.00355242 -5.37571 -3.11925e-05)
(-0.0107299 -4.89208 9.34667e-05)
(-0.0245445 -4.42903 0.000214045)
(-0.0377983 -3.98561 0.00032973)
(-0.0503834 -3.56108 0.000439582)
(-0.0621863 -3.15491 0.000542609)
(-0.0730921 -2.76668 0.000637805)
(-0.0829884 -2.39615 0.000724193)
(-0.0917707 -2.04317 0.00080086)
(-0.0993497 -1.70767 0.000867026)
(-0.105657 -1.38965 0.000922093)
(-0.110663 -1.08913 0.000965805)
(-0.11437 -0.806158 0.00099818)
(-0.116869 -0.54074 0.00102001)
(-0.0192611 -44.3086 0.000168134)
(0.0938068 -43.0471 -0.000818738)
(-0.0860731 -40.2672 0.000750733)
(-0.0601523 -39.8333 0.000524731)
(-0.138497 -35.0711 0.00120843)
(0.108844 -34.2199 -0.000948913)
(0.194492 -30.3519 -0.00168029)
(0.29384 -27.937 -0.00255304)
(0.394053 -26.2987 -0.00343399)
(0.463207 -24.3553 -0.00403825)
(0.477041 -21.1731 -0.00415723)
(0.288663 -15.8624 -0.00249365)
(0.234418 -12.9417 -0.00203297)
(0.230119 -12.0213 -0.00200583)
(0.208863 -11.5432 -0.00182275)
(0.188063 -11.0865 -0.00164163)
(0.161571 -10.561 -0.00141046)
(0.138482 -9.97704 -0.00120892)
(0.116288 -9.36121 -0.0010152)
(0.0967023 -8.73755 -0.000844238)
(0.0783254 -8.12215 -0.000683838)
(0.0611628 -7.52443 -0.000534034)
(0.0446314 -6.9489 -0.000389745)
(0.0286208 -6.39712 -0.000250001)
(0.0129766 -5.86899 -0.000113457)
(-0.0022987 -5.36371 1.98691e-05)
(-0.0171775 -4.88016 0.000149735)
(-0.0315803 -4.41731 0.000275447)
(-0.0454108 -3.97421 0.000396165)
(-0.0585565 -3.55013 0.00051091)
(-0.0708992 -3.1445 0.000618649)
(-0.0823201 -2.75692 0.000718341)
(-0.0927047 -2.38711 0.000808991)
(-0.101948 -2.03492 0.000889682)
(-0.109962 -1.70026 0.000959646)
(-0.116681 -1.3831 0.00101831)
(-0.122075 -1.08344 0.00106541)
(-0.126145 -0.80129 0.00110095)
(-0.128954 -0.536638 0.00112548)
(-0.0251453 -44.3917 0.000219489)
(0.106484 -43.0509 -0.000929385)
(-0.112336 -40.105 0.000979979)
(0.0155579 -39.7886 -0.000135892)
(-0.118777 -35.1777 0.00103632)
(0.159688 -34.5081 -0.0013926)
(0.221741 -30.5482 -0.00191678)
(0.326447 -28.1471 -0.00283729)
(0.416086 -26.4962 -0.0036262)
(0.488703 -24.485 -0.00426059)
(0.478083 -21.1213 -0.00416567)
(0.2896 -15.7382 -0.00250288)
(0.238431 -12.9409 -0.00206965)
(0.230357 -12.0281 -0.00200834)
(0.209273 -11.5401 -0.00182644)
(0.187222 -11.0762 -0.00163431)
(0.160409 -10.5477 -0.00140032)
(0.136559 -9.96343 -0.00119214)
(0.113781 -9.34805 -0.000993327)
(0.0935152 -8.72488 -0.00081643)
(0.0745235 -8.10973 -0.000650662)
(0.0567489 -7.51204 -0.000495517)
(0.0396308 -6.93639 -0.000346106)
(0.0230367 -6.38446 -0.00020127)
(0.00681029 -5.85623 -5.96436e-05)
(-0.00905189 -5.35092 7.88041e-05)
(-0.0245207 -4.86747 0.000213819)
(-0.0395129 -4.40483 0.000344676)
(-0.0539259 -3.96207 0.000470479)
(-0.0676399 -3.53845 0.000590184)
(-0.0805294 -3.13339 0.000702695)
(-0.0924693 -2.74648 0.000806917)
(-0.10334 -2.37744 0.000901814)
(-0.113035 -2.02607 0.00098644)
(-0.121462 -1.69228 0.00106001)
(-0.128556 -1.37601 0.00112195)
(-0.134284 -1.07724 0.00117196)
(-0.138637 -0.795953 0.00120997)
(-0.141656 -0.532122 0.00123635)
(-0.0286357 -44.4784 0.00024995)
(0.113643 -43.0416 -0.000991861)
(-0.127479 -40.0114 0.00111223)
(0.121638 -39.8015 -0.00106161)
(-0.113794 -35.2708 0.000992777)
(0.215363 -34.8136 -0.00187842)
(0.247239 -30.7429 -0.00213789)
(0.359751 -28.3595 -0.00312769)
(0.437256 -26.6921 -0.0038109)
(0.512726 -24.6042 -0.00447009)
(0.474073 -21.0499 -0.00412995)
(0.287928 -15.6212 -0.00248926)
(0.240042 -12.938 -0.00208531)
(0.228363 -12.0334 -0.00199137)
(0.207443 -11.5362 -0.00181054)
(0.184208 -11.0651 -0.00160802)
(0.157306 -10.5337 -0.00137324)
(0.132883 -9.94906 -0.00116007)
(0.10974 -9.33409 -0.000958063)
(0.0889638 -8.7114 -0.000776711)
(0.069505 -8.0965 -0.000606867)
(0.0512269 -7.49883 -0.000447327)
(0.0336035 -6.92308 -0.000293506)
(0.016481 -6.371 -0.000144058)
(-0.000292218 -5.84266 2.34082e-06)
(-0.0167214 -5.33732 0.000145738)
(-0.0327715 -4.85396 0.000285825)
(-0.0483516 -4.39154 0.000421814)
(-0.0633495 -3.94914 0.000552721)
(-0.0776352 -3.526 0.000677417)
(-0.0910734 -3.12155 0.000794717)
(-0.10353 -2.73535 0.000903451)
(-0.114879 -2.3671 0.00100252)
(-0.125007 -2.0166 0.00109093)
(-0.13382 -1.68372 0.00116787)
(-0.141248 -1.36838 0.00123272)
(-0.14725 -1.07055 0.00128513)
(-0.151811 -0.790177 0.00132496)
(-0.154949 -0.527231 0.00135237)
(-0.0246179 -44.5682 0.000214882)
(0.106247 -43.0238 -0.000927319)
(-0.115261 -40.041 0.00100577)
(0.25182 -39.8499 -0.00219776)
(-0.111994 -35.3372 0.000976962)
(0.275374 -35.1406 -0.00240207)
(0.273218 -30.9344 -0.00236323)
(0.392935 -28.5733 -0.00341716)
(0.456675 -26.8843 -0.00398036)
(0.533676 -24.7092 -0.00465279)
(0.464308 -20.9572 -0.00404409)
(0.283267 -15.5116 -0.00244947)
(0.238831 -12.933 -0.00207621)
(0.224081 -12.0368 -0.00195437)
(0.203291 -11.5311 -0.00177438)
(0.17905 -11.0531 -0.00156301)
(0.152273 -10.519 -0.00132932)
(0.127485 -9.93398 -0.00111296)
(0.104186 -9.3194 -0.00090959)
(0.0830687 -8.69716 -0.000725264)
(0.0632853 -8.08249 -0.000552586)
(0.0446084 -7.48484 -0.000389566)
(0.0265565 -6.90896 -0.000232005)
(0.00895631 -6.35672 -7.83881e-05)
(-0.00833208 -5.82825 7.25068e-05)
(-0.0253115 -5.32288 0.000220706)
(-0.0419357 -4.83961 0.000365804)
(-0.0581029 -4.37742 0.000506915)
(-0.0736871 -3.93539 0.000642941)
(-0.0885456 -3.51277 0.000772636)
(-0.102531 -3.10895 0.000894709)
(-0.115497 -2.7235 0.00100789)
(-0.12731 -2.35609 0.00111101)
(-0.137849 -2.00649 0.00120302)
(-0.147014 -1.67457 0.00128303)
(-0.15473 -1.36022 0.00135038)
(-0.160947 -1.06338 0.00140468)
(-0.165643 -0.783988 0.00144568)
(-0.168817 -0.521997 0.00147341)
(-0.00858901 -44.6606 7.49816e-05)
(0.0764885 -43.0062 -0.000667603)
(-0.0642944 -40.249 0.000561174)
(0.387144 -39.9111 -0.00337886)
(-0.105927 -35.37 0.000923887)
(0.336882 -35.4867 -0.00293877)
(0.30046 -31.12 -0.00259982)
(0.423996 -28.7856 -0.00368826)
(0.472642 -27.07 -0.00411976)
(0.549046 -24.7968 -0.00478682)
(0.448261 -20.844 -0.00390338)
(0.274936 -15.4107 -0.00237788)
(0.234524 -12.9267 -0.00203993)
(0.217497 -12.0386 -0.00189723)
(0.19692 -11.5249 -0.00171882)
(0.171941 -11.0404 -0.00150097)
(0.145481 -10.5037 -0.00127004)
(0.120528 -9.91828 -0.00105224)
(0.0972488 -9.30406 -0.000849046)
(0.0759358 -8.68222 -0.000663012)
(0.0559439 -8.06774 -0.000488513)
(0.0369521 -7.47007 -0.000322746)
(0.0185302 -6.89403 -0.000161957)
(0.000488557 -6.34159 -4.48672e-06)
(-0.0172951 -5.81297 0.00015073)
(-0.0348167 -5.30755 0.00030366)
(-0.0520141 -4.82436 0.000453762)
(-0.0687707 -4.36242 0.000600018)
(-0.0849441 -3.92078 0.000741186)
(-0.100376 -3.4987 0.000875883)
(-0.114903 -3.09556 0.00100269)
(-0.128369 -2.7109 0.00112023)
(-0.140628 -2.34438 0.00122724)
(-0.15155 -1.99575 0.00132259)
(-0.16103 -1.66485 0.00140535)
(-0.168983 -1.35154 0.00147479)
(-0.175357 -1.05576 0.00153044)
(-0.180116 -0.777411 0.001572)
(-0.183249 -0.516452 0.00159938)
(0.0221051 -44.7544 -0.000192912)
(0.0201984 -42.9995 -0.00017633)
(0.0289362 -40.6722 -0.000252267)
(0.500357 -39.9533 -0.00436708)
(-0.095067 -35.3767 0.000829015)
(0.393957 -35.8503 -0.00343679)
(0.328244 -31.2963 -0.00284147)
(0.450693 -28.9923 -0.00392147)
(0.483714 -27.2459 -0.0042165)
(0.556349 -24.8639 -0.00485048)
(0.425922 -20.7116 -0.00370763)
(0.262529 -15.3189 -0.00227099)
(0.226963 -12.92 -0.00197505)
(0.208571 -12.0389 -0.00181959)
(0.188453 -11.5175 -0.00164496)
(0.163082 -11.0269 -0.00142366)
(0.137134 -10.4878 -0.00119718)
(0.112213 -9.90201 -0.000979669)
(0.0891007 -9.28812 -0.000777929)
(0.0677109 -8.66662 -0.000591227)
(0.0475958 -8.05227 -0.000415653)
(0.0283462 -7.45451 -0.000247637)
(0.0095882 -6.87826 -8.39144e-05)
(-0.00887946 -6.32559 7.72724e-05)
(-0.0271555 -5.79678 0.000236786)
(-0.0452242 -5.2913 0.000394491)
(-0.0630035 -4.80819 0.000549671)
(-0.0803583 -4.34649 0.000701148)
(-0.0971268 -3.90528 0.00084751)
(-0.113133 -3.48377 0.000987219)
(-0.128197 -3.08135 0.00111871)
(-0.142149 -2.69754 0.0012405)
(-0.154831 -2.33196 0.0013512)
(-0.166105 -1.98436 0.00144962)
(-0.175857 -1.65454 0.00153476)
(-0.183998 -1.34236 0.00160583)
(-0.190465 -1.04769 0.00166231)
(-0.19522 -0.770471 0.00170383)
(-0.198239 -0.51062 0.00173021)
(0.0672707 -44.848 -0.000587108)
(-0.0619025 -43.0122 0.000540206)
(0.158531 -41.3178 -0.00138311)
(0.565164 -39.9355 -0.00493294)
(-0.0813512 -35.3759 0.000709279)
(0.438073 -36.23 -0.00382172)
(0.353751 -31.462 -0.00306359)
(0.470005 -29.1894 -0.00409044)
(0.488083 -27.408 -0.0042548)
(0.553247 -24.9083 -0.00482336)
(0.397323 -20.5635 -0.00345719)
(0.245983 -15.2372 -0.00212813)
(0.216124 -12.914 -0.0018814)
(0.197419 -12.0382 -0.00172247)
(0.178131 -11.5093 -0.00155489)
(0.152776 -11.0128 -0.00133371)
(0.127525 -10.4715 -0.00111331)
(0.102815 -9.88527 -0.000897639)
(0.0799747 -9.27161 -0.000698277)
(0.0585879 -8.65037 -0.000511603)
(0.0383932 -8.03607 -0.000335335)
(0.0189064 -7.43816 -0.000165249)
(-0.000186822 -6.86163 1.3981e-06)
(-0.0190921 -6.30866 0.000166404)
(-0.0378797 -5.77964 0.000330381)
(-0.0565175 -5.27406 0.000493053)
(-0.0748997 -4.79104 0.000653495)
(-0.0928697 -4.3296 0.00081034)
(-0.110244 -3.88883 0.000961989)
(-0.126826 -3.46794 0.00110673)
(-0.142421 -3.0663 0.00124286)
(-0.156843 -2.68339 0.00136874)
(-0.169923 -2.31883 0.00148292)
(-0.181513 -1.97233 0.0015841)
(-0.191492 -1.64367 0.00167122)
(-0.199766 -1.33267 0.00174346)
(-0.206266 -1.03921 0.00180022)
(-0.210948 -0.763189 0.0018411)
(-0.213783 -0.504525 0.00186589)
(0.123461 -44.9393 -0.00107752)
(-0.16296 -43.0484 0.00142218)
(0.308498 -42.1563 -0.00269182)
(0.562844 -39.8202 -0.004913)
(-0.0680639 -35.3917 0.000593378)
(0.459952 -36.6238 -0.00401261)
(0.372773 -31.6175 -0.00322956)
(0.478717 -29.3735 -0.00416708)
(0.483884 -27.5533 -0.00421837)
(0.538045 -24.9289 -0.00469068)
(0.362764 -20.4041 -0.00315474)
(0.225515 -15.166 -0.0019511)
(0.202178 -12.9098 -0.00176048)
(0.184279 -12.0371 -0.00160794)
(0.166267 -11.5006 -0.00145136)
(0.141372 -10.9984 -0.00123417)
(0.116988 -10.4549 -0.00102134)
(0.0926396 -9.86809 -0.000808829)
(0.0701321 -9.25456 -0.000612369)
(0.0487832 -8.63345 -0.000426028)
(0.028506 -8.01909 -0.00024904)
(0.00876071 -7.42094 -7.67007e-05)
(-0.0107038 -6.84406 9.31864e-05)
(-0.0300893 -6.29075 0.000262382)
(-0.0494326 -5.76147 0.00043121)
(-0.0686808 -5.25579 0.000599208)
(-0.0877007 -4.77285 0.000765214)
(-0.106312 -4.31169 0.000927656)
(-0.124307 -3.8714 0.00108473)
(-0.141471 -3.45118 0.00123455)
(-0.15759 -3.05037 0.00137524)
(-0.172463 -2.66844 0.00150507)
(-0.185911 -2.30497 0.00162247)
(-0.197778 -1.95965 0.00172606)
(-0.207936 -1.63223 0.00181475)
(-0.216286 -1.3225 0.00188765)
(-0.222755 -1.03033 0.00194414)
(-0.227296 -0.755588 0.0019838)
(-0.229878 -0.498192 0.00200637)
(0.183912 -45.0265 -0.00160513)
(-0.270927 -43.1052 0.00236445)
(0.458328 -43.1245 -0.00399941)
(0.48499 -39.5783 -0.00423383)
(-0.0594555 -35.4476 0.000518409)
(0.449742 -37.0278 -0.0039235)
(0.380579 -31.7664 -0.00329802)
(0.473875 -29.5432 -0.00412557)
(0.469443 -27.6792 -0.0040926)
(0.509918 -24.9259 -0.00444523)
(0.322854 -20.2392 -0.00280565)
(0.201599 -15.1063 -0.00174397)
(0.185538 -12.9085 -0.00161588)
(0.169539 -12.0365 -0.00147939)
(0.153278 -11.4918 -0.00133799)
(0.129278 -10.9839 -0.00112861)
(0.1059 -10.438 -0.000924561)
(0.0820224 -9.85051 -0.000716159)
(0.0598537 -9.23695 -0.000522656)
(0.038525 -8.61581 -0.000336494)
(0.0181103 -8.00128 -0.000158308)
(-0.00196056 -7.40277 1.6871e-05)
(-0.0218728 -6.82547 0.000190664)
(-0.0418142 -6.27175 0.000364711)
(-0.0617839 -5.74218 0.000539005)
(-0.0817036 -5.23639 0.000712863)
(-0.10141 -4.75354 0.000884863)
(-0.120698 -4.2927 0.00105321)
(-0.139335 -3.85295 0.00121589)
(-0.157087 -3.43345 0.00137083)
(-0.173721 -3.03355 0.00151603)
(-0.189025 -2.65268 0.00164962)
(-0.202809 -2.29039 0.00176994)
(-0.214909 -1.94633 0.00187558)
(-0.225193 -1.62023 0.00196536)
(-0.233559 -1.31186 0.0020384)
(-0.239932 -1.02106 0.00209406)
(-0.244264 -0.747688 0.0021319)
(-0.246524 -0.491641 0.00215166)
(0.241046 -45.108 -0.00210378)
(-0.37207 -43.176 0.00324716)
(0.58891 -44.1334 -0.0051391)
(0.331768 -39.1927 -0.00289686)
(-0.0588216 -35.5598 0.000513113)
(0.397309 -37.4349 -0.00346593)
(0.373295 -31.9164 -0.00323533)
(0.453523 -29.6985 -0.00394877)
(0.443797 -27.785 -0.00386906)
(0.469263 -24.9013 -0.00409047)
(0.27862 -20.0749 -0.00241896)
(0.174978 -15.0589 -0.00151315)
(0.166823 -12.911 -0.00145304)
(0.153714 -12.0369 -0.00134135)
(0.139648 -11.4833 -0.00121903)
(0.116929 -10.9695 -0.00102081)
(0.0946497 -10.421 -0.000826359)
(0.071297 -9.83254 -0.000622542)
(0.049415 -9.21871 -0.000431545)
(0.0280319 -8.59737 -0.000244911)
(0.00737136 -7.98251 -6.45812e-05)
(-0.0131393 -7.38354 0.000114435)
(-0.0336161 -6.80573 0.000293154)
(-0.0542222 -6.25156 0.000473002)
(-0.0749149 -5.72168 0.000653605)
(-0.0955862 -5.21578 0.000834023)
(-0.116041 -4.73305 0.00101256)
(-0.136048 -4.27257 0.00118718)
(-0.155353 -3.83341 0.00135568)
(-0.173698 -3.41472 0.00151581)
(-0.190838 -3.01581 0.00166542)
(-0.206548 -2.63609 0.00180256)
(-0.22063 -2.27507 0.00192548)
(-0.232915 -1.93237 0.00203274)
(-0.243269 -1.60769 0.00212313)
(-0.251587 -1.30077 0.00219576)
(-0.257796 -1.01143 0.00224998)
(-0.261849 -0.739512 0.00228539)
(-0.263719 -0.484896 0.00230175)
(0.286951 -45.1829 -0.00250443)
(-0.452681 -43.255 0.00395066)
(0.686792 -45.079 -0.00599348)
(0.110118 -38.6581 -0.000962613)
(-0.0681625 -35.7324 0.000594897)
(0.294611 -37.8347 -0.00256968)
(0.34924 -32.0806 -0.00302639)
(0.41742 -29.841 -0.00363443)
(0.407212 -27.8713 -0.00355005)
(0.417862 -24.8584 -0.00364195)
(0.231565 -19.9172 -0.00200785)
(0.146654 -15.0244 -0.00126735)
(0.146841 -12.9181 -0.00127903)
(0.137433 -12.039 -0.00119929)
(0.125914 -11.4757 -0.00109914)
(0.104771 -10.9554 -0.000914692)
(0.0836184 -10.4039 -0.000730067)
(0.0607776 -9.81414 -0.000530725)
(0.0390679 -9.19977 -0.000341234)
(0.017497 -8.57799 -0.000152964)
(-0.00357121 -7.96265 3.0922e-05)
(-0.0246823 -7.36309 0.000215176)
(-0.0458792 -6.7847 0.00040018)
(-0.0672895 -6.23003 0.000587045)
(-0.0888251 -5.69984 0.000775005)
(-0.110345 -5.19384 0.000962827)
(-0.131621 -4.71128 0.00114853)
(-0.152397 -4.25123 0.00132986)
(-0.172393 -3.81274 0.0015044)
(-0.191337 -3.39495 0.00166976)
(-0.208969 -2.99713 0.00182367)
(-0.225056 -2.61866 0.00196409)
(-0.239394 -2.25901 0.00208925)
(-0.251811 -1.91777 0.00219765)
(-0.262172 -1.59461 0.00228811)
(-0.270375 -1.28925 0.00235974)
(-0.27635 -1.00146 0.00241192)
(-0.280052 -0.731082 0.00244427)
(-0.28146 -0.477978 0.0024566)
(0.315355 -45.2508 -0.00275234)
(-0.501115 -43.3413 0.00437335)
(0.739602 -45.8513 -0.00645456)
(-0.164535 -37.9791 0.00143429)
(-0.0906725 -35.9556 0.000791585)
(0.139717 -38.2169 -0.00121782)
(0.309276 -32.2778 -0.00267896)
(0.36714 -29.974 -0.00319628)
(0.361293 -27.94 -0.00314958)
(0.358683 -24.8014 -0.00312554)
(0.183556 -19.7715 -0.00158863)
(0.117812 -15.0034 -0.00101688)
(0.126523 -12.9306 -0.00110199)
(0.121381 -12.0435 -0.00105921)
(0.112623 -11.4693 -0.000983128)
(0.093233 -10.9419 -0.00081397)
(0.0731535 -10.3867 -0.000638721)
(0.0507362 -9.79523 -0.000443079)
(0.0290204 -9.17997 -0.000253539)
(0.00706965 -8.55751 -6.19568e-05)
(-0.0146186 -7.94149 0.000127339)
(-0.0365334 -7.34124 0.000318606)
(-0.0586407 -6.7622 0.000511553)
(-0.0810212 -6.20702 0.000706886)
(-0.103539 -5.67651 0.000903415)
(-0.126016 -5.17047 0.00109959)
(-0.148193 -4.68815 0.00129316)
(-0.169787 -4.22861 0.00148164)
(-0.190501 -3.79089 0.00166244)
(-0.210045 -3.37411 0.00183304)
(-0.228151 -2.97749 0.00199108)
(-0.244578 -2.60038 0.00213448)
(-0.259121 -2.24222 0.00226144)
(-0.27161 -1.90256 0.00237047)
(-0.281911 -1.58102 0.0024604)
(-0.289927 -1.27731 0.0025304)
(-0.295593 -0.991176 0.00257988)
(-0.29887 -0.722423 0.00260852)
(-0.299745 -0.470913 0.0026162)
(0.319901 -45.3115 -0.00279202)
(-0.506539 -43.4362 0.00442066)
(0.734457 -46.342 -0.00640992)
(-0.468407 -37.1753 0.00408627)
(-0.13705 -36.2053 0.00119652)
(-0.0576277 -38.5773 0.000504554)
(0.255824 -32.5269 -0.00221395)
(0.305938 -30.1001 -0.00266252)
(0.308694 -27.9945 -0.00269076)
(0.295422 -24.7353 -0.0025735)
(0.136581 -19.6418 -0.00117867)
(0.0896972 -14.9958 -0.000772612)
(0.106821 -12.9488 -0.000930265)
(0.10624 -12.0506 -0.000927071)
(0.100297 -11.4643 -0.00087552)
(0.0826931 -10.9289 -0.000721963)
(0.0635453 -10.3695 -0.000554853)
(0.0413827 -9.77567 -0.000361438)
(0.0194193 -9.15912 -0.000169741)
(-0.00315925 -8.53571 2.7316e-05)
(-0.0257256 -7.91883 0.000224273)
(-0.0486846 -7.31777 0.000424652)
(-0.0719207 -6.73803 0.000627451)
(-0.0954579 -6.18233 0.000832879)
(-0.119109 -5.65156 0.00103931)
(-0.14266 -5.14554 0.00124485)
(-0.16582 -4.66354 0.00144699)
(-0.188281 -4.20462 0.00164305)
(-0.209731 -3.7678 0.00183027)
(-0.229869 -3.35215 0.00200606)
(-0.248421 -2.95687 0.002168)
(-0.265145 -2.58125 0.00231399)
(-0.279836 -2.2247 0.00244224)
(-0.292329 -1.88673 0.00255131)
(-0.302497 -1.56694 0.00264008)
(-0.310248 -1.26498 0.00270777)
(-0.315526 -0.980594 0.00275387)
(-0.318301 -0.713559 0.00277812)
(-0.318568 -0.463724 0.0027805)
(0.296749 -45.3656 -0.00258996)
(-0.461466 -43.5386 0.00402727)
(0.65815 -46.4568 -0.00574427)
(-0.764445 -36.2781 0.00666995)
(-0.216449 -36.4385 0.00188959)
(-0.275357 -38.9259 0.00240493)
(0.190277 -32.8436 -0.00164326)
(0.237057 -30.2235 -0.0020618)
(0.252028 -28.0387 -0.00219642)
(0.231516 -24.6646 -0.00201583)
(0.0923274 -19.5304 -0.000792689)
(0.0634214 -15.0012 -0.000544252)
(0.0885962 -12.9727 -0.000771373)
(0.0926289 -12.0606 -0.000808268)
(0.0893832 -11.4607 -0.000780248)
(0.0734604 -10.9164 -0.000641366)
(0.0550083 -10.3519 -0.000480335)
(0.0328505 -9.75527 -0.000286968)
(0.0103368 -9.137 -9.04732e-05)
(-0.0131686 -8.51232 0.00011467)
(-0.0369103 -7.8944 0.000321883)
(-0.061184 -7.29243 0.000533735)
(-0.0857882 -6.71197 0.000748474)
(-0.110681 -6.15578 0.000965735)
(-0.135624 -5.62482 0.00118344)
(-0.160364 -5.11893 0.00139937)
(-0.184583 -4.63737 0.00161075)
(-0.207953 -4.17922 0.00181474)
(-0.230149 -3.74343 0.00200847)
(-0.250865 -3.32906 0.00218931)
(-0.269825 -2.93526 0.00235481)
(-0.286791 -2.56127 0.00250291)