/*--------------------------------*- C++ -*----------------------------------*\
| =========                 |                                                 |
| \\      /  F ield         | OpenFOAM: The Open Source CFD Toolbox           |
|  \\    /   O peration     | Version:  v2012                                 |
|   \\  /    A nd           | Website:  www.openfoam.com                      |
|    \\/     M anipulation  |                                                 |
\*---------------------------------------------------------------------------*/
FoamFile
{
    version     2.0;
    format      ascii;
    class       surfaceScalarField;
    location    "0.1";
    object      phi;
}
// * * * * * * * * * * * * * * * * * * * * * * * * * * * * * * * * * * * * * //

dimensions      [0 3 -1 0 0 0 0];
oriented        oriented;


internalField   nonuniform List<scalar> 
8134
(
-7.77179e-10
-1.72548e-10
-3.04706e-17
-6.44981e-10
-1.32192e-10
1.53938e-15
-5.41902e-10
-1.03071e-10
1.53024e-15
-4.60222e-10
-8.16719e-11
5.75235e-16
-3.94537e-10
-6.56723e-11
1.18242e-16
-3.4095e-10
-5.35803e-11
-4.43916e-16
-2.96708e-10
-4.42416e-11
-6.47351e-16
-2.59763e-10
-3.69482e-11
-6.83607e-16
-2.28616e-10
-3.11529e-11
-6.53759e-16
-2.02121e-10
-2.65002e-11
-5.98921e-16
-1.7941e-10
-2.27161e-11
-5.24437e-16
-1.598e-10
-1.96146e-11
-4.96156e-16
-1.42758e-10
-1.70465e-11
-4.61974e-16
-1.27856e-10
-1.49059e-11
-4.34037e-16
-1.14751e-10
-1.31089e-11
-3.88179e-16
-1.03166e-10
-1.15904e-11
-3.21907e-16
-9.28707e-11
-1.02996e-11
-2.5322e-16
-8.36791e-11
-9.19578e-12
-1.79227e-16
-7.54357e-11
-8.24669e-12
-1.18808e-16
-6.80124e-11
-7.42558e-12
-6.91026e-17
-6.13033e-11
-6.71121e-12
-3.56356e-17
-5.52188e-11
-6.08581e-12
-1.41285e-17
-4.96865e-11
-5.53388e-12
-2.03458e-18
-4.46408e-11
-5.04654e-12
4.66038e-18
-4.0031e-11
-4.61079e-12
8.67891e-18
-3.58103e-11
-4.22137e-12
1.23383e-17
-3.19409e-11
-3.87011e-12
1.59987e-17
-2.83894e-11
-3.55224e-12
2.06419e-17
-2.51236e-11
-3.26604e-12
2.52604e-17
-2.21182e-11
-3.0057e-12
3.0858e-17
-1.9347e-11
-2.77126e-12
3.62968e-17
-1.67864e-11
-2.56043e-12
3.96392e-17
-1.44134e-11
-2.37287e-12
4.15019e-17
-1.22045e-11
-2.20859e-12
4.23096e-17
-1.01384e-11
-2.06569e-12
4.19514e-17
-8.19507e-12
-1.94289e-12
4.0897e-17
-6.35965e-12
-1.83482e-12
3.94188e-17
-4.62769e-12
-1.73129e-12
3.77924e-17
-3.01961e-12
-1.60731e-12
3.57021e-17
-1.5893e-12
-1.42943e-12
3.37703e-17
-4.74875e-13
-1.11344e-12
3.09638e-17
1.32626e-13
-6.06444e-13
2.83482e-17
1.3346e-13
2.58718e-17
-1.74924e-09
-4.60368e-10
-3.18666e-16
-1.50937e-09
-3.72044e-10
1.28262e-15
-1.30822e-09
-3.04196e-10
1.38859e-15
-1.13942e-09
-2.50449e-10
5.45349e-16
-9.96925e-10
-2.08144e-10
1.3998e-16
-8.7614e-10
-1.74348e-10
-4.38557e-16
-7.73156e-10
-1.47213e-10
-6.55317e-16
-6.8489e-10
-1.25208e-10
-6.8691e-16
-6.08816e-10
-1.07225e-10
-6.68259e-16
-5.42897e-10
-9.24163e-11
-6.01611e-16
-4.85488e-10
-8.01249e-11
-5.51457e-16
-4.35234e-10
-6.98689e-11
-5.29274e-16
-3.91033e-10
-6.12469e-11
-4.89217e-16
-3.51973e-10
-5.3964e-11
-4.79467e-16
-3.17304e-10
-4.77788e-11
-4.3206e-16
-2.86398e-10
-4.24976e-11
-3.6229e-16
-2.58733e-10
-3.79668e-11
-2.87474e-16
-2.33871e-10
-3.40601e-11
-2.05378e-16
-2.11442e-10
-3.06759e-11
-1.38121e-16
-1.9114e-10
-2.7728e-11
-8.1958e-17
-1.72704e-10
-2.51475e-11
-4.39374e-17
-1.55914e-10
-2.28758e-11
-1.87584e-17
-1.40588e-10
-2.08605e-11
-4.51003e-18
-1.2656e-10
-1.90731e-11
3.782e-18
-1.13703e-10
-1.74679e-11
9.12243e-18
-1.01896e-10
-1.60281e-11
1.38993e-17
-9.10413e-11
-1.47247e-11
1.88477e-17
-8.10525e-11
-1.35413e-11
2.44126e-17
-7.1845e-11
-1.24728e-11
2.9937e-17
-6.33527e-11
-1.1498e-11
3.76397e-17
-5.55056e-11
-1.06179e-11
4.30438e-17
-4.82414e-11
-9.82415e-12
4.67619e-17
-4.14981e-11
-9.11584e-12
4.90104e-17
-3.52129e-11
-8.49311e-12
5.01334e-17
-2.93294e-11
-7.94862e-12
4.95938e-17
-2.37949e-11
-7.47677e-12
4.77871e-17
-1.85713e-11
-7.05767e-12
4.61902e-17
-1.36521e-11
-6.64971e-12
4.41814e-17
-9.093e-12
-6.16566e-12
4.17509e-17
-5.05158e-12
-5.47003e-12
3.94266e-17
-1.86504e-12
-4.29915e-12
3.59943e-17
-5.51433e-14
-2.41547e-12
3.27897e-17
7.89315e-14
2.98852e-17
-2.24734e-09
-7.34401e-10
-1.83118e-16
-2.00025e-09
-6.19102e-10
1.33555e-15
-1.77973e-09
-5.24693e-10
1.33043e-15
-1.58461e-09
-4.45548e-10
5.14457e-16
-1.41254e-09
-3.80187e-10
1.43077e-16
-1.26119e-09
-3.25681e-10
-4.197e-16
-1.12806e-09
-2.80328e-10
-6.14666e-16
-1.01089e-09
-2.4237e-10
-6.54675e-16
-9.07589e-10
-2.10523e-10
-6.43967e-16
-8.16315e-10
-1.83684e-10
-5.70534e-16
-7.35475e-10
-1.60964e-10
-5.21686e-16
-6.63663e-10
-1.41678e-10
-5.04627e-16
-5.99688e-10
-1.25221e-10
-4.6954e-16
-5.42512e-10
-1.11135e-10
-4.78266e-16
-4.91256e-10
-9.90324e-11
-4.32126e-16
-4.45162e-10
-8.85917e-11
-3.6619e-16
-4.03578e-10
-7.95513e-11
-2.93702e-16
-3.65947e-10
-7.16915e-11
-2.12811e-16
-3.31791e-10
-6.48318e-11
-1.45963e-16
-3.00702e-10
-5.88161e-11
-8.94006e-17
-2.72331e-10
-5.35176e-11
-5.05874e-17
-2.46378e-10
-4.88269e-11
-2.4429e-17
-2.22595e-10
-4.46441e-11
-9.23919e-18
-2.00749e-10
-4.09176e-11
3.78993e-20
-1.8066e-10
-3.75564e-11
5.99828e-18
-1.62157e-10
-3.453e-11
1.14827e-17
-1.45101e-10
-3.17807e-11
1.70717e-17
-1.29366e-10
-2.92763e-11
2.27825e-17
-1.14829e-10
-2.70088e-11
2.8822e-17
-1.01393e-10
-2.49341e-11
3.65672e-17
-8.89536e-11
-2.30564e-11
4.22489e-17
-7.74183e-11
-2.13587e-11
4.58073e-17
-6.66943e-11
-1.98396e-11
4.85518e-17
-5.66867e-11
-1.84999e-11
5.01779e-17
-4.7311e-11
-1.73238e-11
4.99726e-17
-3.84886e-11
-1.62984e-11
4.78846e-17
-3.01642e-11
-1.53813e-11
4.64261e-17
-2.23324e-11
-1.44807e-11
4.45415e-17
-1.50808e-11
-1.34166e-11
4.22342e-17
-8.65318e-12
-1.18968e-11
4.01119e-17
-3.53696e-12
-9.41458e-12
3.62646e-17
-4.6645e-13
-5.48515e-12
3.31088e-17
-3.86961e-13
2.99126e-17
-2.4335e-09
-9.51698e-10
-1.43483e-15
-2.22329e-09
-8.29284e-10
1.31661e-17
-2.02452e-09
-7.23451e-10
3.40087e-16
-1.83953e-09
-6.30524e-10
-3.15484e-17
-1.66922e-09
-5.50473e-10
-1.16698e-16
-1.5137e-09
-4.81177e-10
-5.23405e-16
-1.37242e-09
-4.2159e-10
-6.41438e-16
-1.24455e-09
-3.70239e-10
-6.59138e-16
-1.12902e-09
-3.26039e-10
-6.34389e-16
-1.02476e-09
-2.87941e-10
-5.48754e-16
-9.30676e-10
-2.55041e-10
-4.94561e-16
-8.45728e-10
-2.26623e-10
-4.78975e-16
-7.68953e-10
-2.01992e-10
-4.49415e-16
-6.99463e-10
-1.80619e-10
-4.72379e-16
-6.36462e-10
-1.62028e-10
-4.29427e-16
-5.79238e-10
-1.45814e-10
-3.68312e-16
-5.27154e-10
-1.31635e-10
-2.99408e-16
-4.79648e-10
-1.19197e-10
-2.21089e-16
-4.36224e-10
-1.08254e-10
-1.55319e-16
-3.9645e-10
-9.85872e-11
-9.87412e-17
-3.59951e-10
-9.00157e-11
-5.95118e-17
-3.26394e-10
-8.23811e-11
-3.23386e-17
-2.95504e-10
-7.55345e-11
-1.59789e-17
-2.67014e-10
-6.94044e-11
-5.39016e-18
-2.40721e-10
-6.38487e-11
1.61251e-18
-2.16424e-10
-5.88257e-11
8.03485e-18
-1.93959e-10
-5.42446e-11
1.46166e-17
-1.73179e-10
-5.00567e-11
2.07448e-17
-1.53933e-10
-4.62533e-11
2.72938e-17
-1.36104e-10
-4.27627e-11
3.56008e-17
-1.19565e-10
-3.95952e-11
4.08013e-17
-1.04199e-10
-3.67235e-11
4.41959e-17
-8.98907e-11
-3.41473e-11
4.74741e-17
-7.65211e-11
-3.18686e-11
4.94435e-17
-6.39838e-11
-2.98605e-11
4.95181e-17
-5.21806e-11
-2.8101e-11
4.74066e-17
-4.10434e-11
-2.65176e-11
4.62898e-17
-3.05698e-11
-2.49535e-11
4.45897e-17
-2.08748e-11
-2.31107e-11
4.2194e-17
-1.22699e-11
-2.0501e-11
4.02043e-17
-5.35565e-12
-1.63281e-11
3.62349e-17
-1.02322e-12
-9.81677e-12
3.30652e-17
-1.40961e-12
2.98001e-17
-2.41159e-09
-1.09424e-09
-1.12063e-15
-2.25883e-09
-9.82019e-10
2.09984e-16
-2.1029e-09
-8.79361e-10
4.22877e-16
-1.94855e-09
-7.84864e-10
5.52223e-17
-1.7991e-09
-6.99894e-10
-4.85666e-17
-1.65672e-09
-6.23534e-10
-4.51988e-16
-1.52265e-09
-5.55652e-10
-5.87122e-16
-1.39746e-09
-4.9541e-10
-6.23155e-16
-1.2813e-09
-4.42192e-10
-6.14277e-16
-1.17398e-09
-3.95253e-10
-5.33194e-16
-1.07514e-09
-3.5388e-10
-4.79583e-16
-9.84263e-10
-3.17491e-10
-4.63448e-16
-9.00816e-10
-2.85434e-10
-4.36982e-16
-8.24213e-10
-2.57213e-10
-4.68172e-16
-7.53889e-10
-2.32346e-10
-4.28174e-16
-6.89299e-10
-2.10401e-10
-3.71842e-16
-6.29924e-10
-1.91007e-10
-3.07083e-16
-5.75288e-10
-1.73832e-10
-2.31673e-16
-5.24951e-10
-1.58589e-10
-1.67408e-16
-4.78519e-10
-1.45015e-10
-1.11104e-16
-4.35642e-10
-1.32891e-10
-7.10614e-17
-3.95998e-10
-1.2202e-10
-4.27912e-17
-3.59322e-10
-1.12211e-10
-2.48555e-17
-3.25343e-10
-1.0338e-10
-1.26772e-17
-2.93857e-10
-9.53339e-11
-3.99975e-18
-2.64654e-10
-8.80259e-11
3.69791e-18
-2.37566e-10
-8.13319e-11
1.14717e-17
-2.12434e-10
-7.51884e-11
1.81289e-17
-1.89095e-10
-6.95901e-11
2.52709e-17
-1.67422e-10
-6.44352e-11
3.426e-17
-1.47272e-10
-5.97439e-11
3.87651e-17
-1.28516e-10
-5.54789e-11
4.20464e-17
-1.11021e-10
-5.16421e-11
4.59702e-17
-9.46497e-11
-4.82385e-11
4.82396e-17
-7.92814e-11
-4.52282e-11
4.89511e-17
-6.48032e-11
-4.25786e-11
4.67129e-17
-5.11383e-11
-4.01816e-11
4.56057e-17
-3.8288e-11
-3.7803e-11
4.42007e-17
-2.63898e-11
-3.50081e-11
4.19017e-17
-1.58063e-11
-3.10837e-11
4.00153e-17
-7.22179e-12
-2.49118e-11
3.58693e-17
-1.64432e-12
-1.53934e-11
3.28906e-17
-3.05336e-12
2.97737e-17
-2.28845e-09
-1.17667e-09
-2.47105e-15
-2.18802e-09
-1.08244e-09
-1.00113e-15
-2.07613e-09
-9.91245e-10
-4.74926e-16
-1.95764e-09
-9.03346e-10
-4.87118e-16
-1.83654e-09
-8.20971e-10
-3.61713e-16
-1.71584e-09
-7.44222e-10
-6.05302e-16
-1.59772e-09
-6.73757e-10
-6.73242e-16
-1.48372e-09
-6.09395e-10
-6.68766e-16
-1.37485e-09
-5.51055e-10
-6.34335e-16
-1.27169e-09
-4.98397e-10
-5.38498e-16
-1.17456e-09
-4.51009e-10
-4.74172e-16
-1.08349e-09
-4.08551e-10
-4.53068e-16
-9.98409e-10
-3.70514e-10
-4.28756e-16
-9.19091e-10
-3.36521e-10
-4.65698e-16
-8.45271e-10
-3.06158e-10
-4.28042e-16
-7.76638e-10
-2.7903e-10
-3.76618e-16
-7.12855e-10
-2.54786e-10
-3.16286e-16
-6.53592e-10
-2.33094e-10
-2.44289e-16
-5.98515e-10
-2.13662e-10
-1.81918e-16
-5.47316e-10
-1.96208e-10
-1.26113e-16
-4.99708e-10
-1.80497e-10
-8.53517e-17
-4.55418e-10
-1.66306e-10
-5.54451e-17
-4.14215e-10
-1.53413e-10
-3.56829e-17
-3.75853e-10
-1.41737e-10
-2.14887e-17
-3.40149e-10
-1.31038e-10
-1.11628e-17
-3.06901e-10
-1.2127e-10
-1.83231e-18
-2.75951e-10
-1.12281e-10
7.25597e-18
-2.47144e-10
-1.03995e-10
1.49344e-17
-2.20314e-10
-9.64171e-11
2.2748e-17
-1.95335e-10
-8.9414e-11
3.2333e-17
-1.72056e-10
-8.3021e-11
3.61754e-17
-1.50342e-10
-7.71916e-11
3.94883e-17
-1.30052e-10
-7.19324e-11
4.3923e-17
-1.11036e-10
-6.72532e-11
4.67226e-17
-9.31628e-11
-6.31005e-11
4.79548e-17
-7.63109e-11
-5.94297e-11
4.56662e-17
-6.0398e-11
-5.60936e-11
4.48481e-17
-4.54289e-11
-5.27713e-11
4.3507e-17
-3.1559e-11
-4.88772e-11
4.15242e-17
-1.91882e-11
-4.34537e-11
3.97286e-17
-9.06196e-12
-3.50373e-11
3.55498e-17
-2.28238e-12
-2.21722e-11
3.2824e-17
-5.33517e-12
2.95383e-17
-2.09872e-09
-1.20491e-09
-2.03862e-15
-2.0474e-09
-1.13375e-09
-6.74427e-16
-1.97873e-09
-1.05991e-09
-3.51142e-16
-1.89735e-09
-9.84721e-10
-4.22192e-16
-1.80741e-09
-9.10893e-10
-3.50557e-16
-1.71229e-09
-8.39324e-10
-5.88076e-16
-1.61473e-09
-7.71306e-10
-6.61612e-16
-1.51685e-09
-7.07264e-10
-6.56434e-16
-1.42026e-09
-6.47633e-10
-6.25745e-16
-1.32614e-09
-5.92508e-10
-5.33087e-16
-1.23532e-09
-5.4182e-10
-4.69389e-16
-1.14834e-09
-4.95528e-10
-4.47329e-16
-1.06552e-09
-4.53327e-10
-4.25885e-16
-9.87011e-10
-4.15016e-10
-4.67539e-16
-9.12854e-10
-3.80306e-10
-4.29219e-16
-8.42988e-10
-3.4889e-10
-3.82054e-16
-7.7729e-10
-3.2048e-10
-3.25836e-16
-7.15599e-10
-2.94783e-10
-2.57647e-16
-6.57724e-10
-2.71532e-10
-1.97586e-16
-6.03469e-10
-2.50457e-10
-1.42699e-16
-5.52638e-10
-2.31323e-10
-1.01165e-16
-5.05032e-10
-2.13907e-10
-6.98437e-17
-4.60478e-10
-1.97967e-10
-4.80491e-17
-4.18773e-10
-1.83437e-10
-3.1615e-17
-3.79771e-10
-1.70038e-10
-1.93169e-17
-3.43297e-10
-1.57741e-10
-8.10786e-18
-3.09213e-10
-1.46364e-10
2.55202e-18
-2.77379e-10
-1.35828e-10
1.12359e-17
-2.47639e-10
-1.26154e-10
1.99689e-17
-2.19874e-10
-1.17179e-10
3.03174e-17
-1.93934e-10
-1.08959e-10
3.34311e-17
-1.69684e-10
-1.0144e-10
3.68039e-17
-1.4698e-10
-9.46361e-11
4.17614e-17
-1.25667e-10
-8.85647e-11
4.49956e-17
-1.05609e-10
-8.3158e-11
4.66515e-17
-8.66773e-11
-7.83602e-11
4.44892e-17
-6.87883e-11
-7.39816e-11
4.38513e-17
-5.19501e-11
-6.96087e-11
4.27552e-17
-3.63315e-11
-6.44951e-11
4.09447e-17
-2.23588e-11
-5.74256e-11
3.93366e-17
-1.08223e-11
-4.65731e-11
3.51154e-17
-2.90557e-12
-3.00881e-11
3.24297e-17
-8.24018e-12
2.9413e-17
-1.8934e-09
-1.19664e-09
-3.36777e-15
-1.87863e-09
-1.14853e-09
-1.70229e-15
-1.8449e-09
-1.09364e-09
-1.0705e-15
-1.79579e-09
-1.03383e-09
-8.81015e-16
-1.7348e-09
-9.71868e-10
-6.36135e-16
-1.66501e-09
-9.09104e-10
-7.22917e-16
-1.5891e-09
-8.47201e-10
-7.30861e-16
-1.50934e-09
-7.8701e-10
-6.84569e-16
-1.4276e-09
-7.29363e-10
-6.32348e-16
-1.34537e-09
-6.74723e-10
-5.34858e-16
-1.26385e-09
-6.2334e-10
-4.6743e-16
-1.1839e-09
-5.75471e-10
-4.43731e-16
-1.10619e-09
-5.31029e-10
-4.23927e-16
-1.03118e-09
-4.90018e-10
-4.62206e-16
-9.59169e-10
-4.52305e-10
-4.29819e-16
-8.90351e-10
-4.17702e-10
-3.87157e-16
-8.24809e-10
-3.86016e-10
-3.35053e-16
-7.62562e-10
-3.57026e-10
-2.70889e-16
-7.03571e-10
-3.30519e-10
-2.13267e-16
-6.47766e-10
-3.06254e-10
-1.59514e-16
-5.95061e-10
-2.84025e-10
-1.17496e-16
-5.45341e-10
-2.6362e-10
-8.50579e-17
-4.98509e-10
-2.44798e-10
-6.13844e-17
-4.54419e-10
-2.2752e-10
-4.25548e-17
-4.12975e-10
-2.11481e-10
-2.7934e-17
-3.7404e-10
-1.96671e-10
-1.48849e-17
-3.37507e-10
-1.82895e-10
-2.51059e-18
-3.03261e-10
-1.70073e-10
7.39103e-18
-2.71163e-10
-1.58249e-10
1.68886e-17
-2.41107e-10
-1.47234e-10
2.81067e-17
-2.12954e-10
-1.3711e-10
3.04552e-17
-1.86574e-10
-1.27818e-10
3.386e-17
-1.61825e-10
-1.19385e-10
3.94127e-17
-1.38552e-10
-1.11836e-10
4.32303e-17
-1.16618e-10
-1.05092e-10
4.5342e-17
-9.58922e-11
-9.90851e-11
4.3285e-17
-7.62899e-11
-9.35827e-11
4.29639e-17
-5.78234e-11
-8.80744e-11
4.21311e-17
-4.06707e-11
-8.16469e-11
4.0396e-17
-2.52765e-11
-7.28191e-11
3.87754e-17
-1.24642e-11
-5.93847e-11
3.48303e-17
-3.4927e-12
-3.90588e-11
3.20944e-17
-1.17323e-11
2.91813e-17
-1.67813e-09
-1.15895e-09
-2.73763e-15
-1.69354e-09
-1.13312e-09
-1.38338e-15
-1.68945e-09
-1.09773e-09
-8.66924e-16
-1.66858e-09
-1.0547e-09
-7.20082e-16
-1.63379e-09
-1.00665e-09
-5.68299e-16
-1.58776e-09
-9.55125e-10
-6.78249e-16
-1.53297e-09
-9.01977e-10
-7.03668e-16
-1.47164e-09
-8.48333e-10
-6.57149e-16
-1.40568e-09
-7.95306e-10
-6.06391e-16
-1.33674e-09
-7.43652e-10
-5.17612e-16
-1.26619e-09
-6.93885e-10
-4.57456e-16
-1.19513e-09
-6.46525e-10
-4.3846e-16
-1.12445e-09
-6.01698e-10
-4.23033e-16
-1.05485e-09
-5.5961e-10
-4.59618e-16
-9.86853e-10
-5.20292e-10
-4.30346e-16
-9.20855e-10
-4.83693e-10
-3.91067e-16
-8.57129e-10
-4.49735e-10
-3.425e-16
-7.95865e-10
-4.18287e-10
-2.82582e-16
-7.37172e-10
-3.89206e-10
-2.27582e-16
-6.81109e-10
-3.62308e-10
-1.75485e-16
-6.27702e-10
-3.37428e-10
-1.33476e-16
-5.76931e-10
-3.14383e-10
-9.99068e-17
-5.28782e-10
-2.92946e-10
-7.46383e-17
-4.83175e-10
-2.73121e-10
-5.37882e-17
-4.40071e-10
-2.54583e-10
-3.70602e-17
-3.9938e-10
-2.37358e-10
-2.19377e-17
-3.61034e-10
-2.21239e-10
-7.74782e-18
-3.2495e-10
-2.06156e-10
3.20958e-18
-2.91012e-10
-1.92183e-10
1.36548e-17
-2.59136e-10
-1.79109e-10
2.55127e-17
-2.29196e-10
-1.67048e-10
2.75254e-17
-2.01072e-10
-1.5594e-10
3.11809e-17
-1.74631e-10
-1.45825e-10
3.71472e-17
-1.49721e-10
-1.36745e-10
4.14618e-17
-1.26206e-10
-1.28605e-10
4.39702e-17
-1.0396e-10
-1.21331e-10
4.19894e-17
-8.28969e-11
-1.14645e-10
4.19637e-17
-6.30329e-11
-1.07938e-10
4.12286e-17
-4.45526e-11
-1.00126e-10
3.96922e-17
-2.79124e-11
-8.94585e-11
3.83221e-17
-1.39615e-11
-7.33349e-11
3.42727e-17
-4.03024e-12
-4.89892e-11
3.16159e-17
-1.5762e-11
2.87383e-17
-1.47607e-09
-3.0167e-15
-1.51165e-09
-1.88459e-15
-1.52924e-09
-1.08015e-09
-1.32056e-15
-1.53051e-09
-1.05344e-09
-1.03382e-15
-1.51743e-09
-1.01971e-09
-7.52148e-16
-1.49208e-09
-9.80473e-10
-7.28655e-16
-1.45647e-09
-9.37571e-10
-6.95808e-16
-1.41255e-09
-8.92243e-10
-6.23392e-16
-1.3621e-09
-8.45746e-10
-5.68939e-16
-1.30672e-09
-7.99022e-10
-4.93795e-16
-1.24783e-09
-7.52771e-10
-4.43577e-16
-1.18662e-09
-7.07723e-10
-4.31089e-16
-1.12413e-09
-6.6418e-10
-4.2122e-16
-1.0612e-09
-6.2253e-10
-4.5666e-16
-9.9852e-10
-5.82961e-10
-4.2932e-16
-9.36647e-10
-5.45559e-10
-3.9258e-16
-8.76013e-10
-5.10363e-10
-3.47344e-16
-8.16952e-10
-4.77344e-10
-2.91762e-16
-7.59708e-10
-4.46444e-10
-2.39358e-16
-7.04464e-10
-4.17542e-10
-1.89478e-16
-6.51353e-10
-3.90533e-10
-1.47779e-16
-6.00452e-10
-3.65277e-10
-1.13949e-16
-5.51829e-10
-3.41568e-10
-8.72327e-17
-5.05475e-10
-3.19467e-10
-6.44912e-17
-4.61414e-10
-2.98642e-10
-4.56761e-17
-4.19608e-10
-2.7916e-10
-2.87655e-17
-3.80031e-10
-2.60813e-10
-1.29406e-17
-3.42638e-10
-2.43547e-10
-9.53843e-19
-3.07343e-10
-2.27475e-10
1.04821e-17
-2.74084e-10
-2.12366e-10
2.29934e-17
-2.42757e-10
-1.98373e-10
2.46288e-17
-2.13255e-10
-1.85439e-10
2.86103e-17
-1.85455e-10
-1.73624e-10
3.50291e-17
-1.59215e-10
-1.62984e-10
3.97092e-17
-1.34404e-10
-1.53415e-10
4.26701e-17
-1.10897e-10
-1.44836e-10
4.05616e-17
-8.86145e-11
-1.36926e-10
4.09765e-17
-6.75736e-11
-1.28977e-10
4.03598e-17
-4.79637e-11
-1.19735e-10
3.9016e-17
-3.02484e-11
-1.07173e-10
3.77819e-17
-1.52975e-11
-8.82851e-11
3.37604e-17
-4.51016e-12
-5.97758e-11
3.13363e-17
-2.02716e-11
2.85614e-17
-1.36962e-09
-1.04577e-09
-1.06589e-15
-1.38861e-09
-1.03446e-09
-8.82406e-16
-1.3935e-09
-1.0148e-09
-7.00414e-16
-1.3858e-09
-9.88171e-10
-6.92779e-16
-1.36709e-09
-9.56268e-10
-6.70499e-16
-1.33899e-09
-9.2033e-10
-5.90598e-16
-1.30307e-09
-8.81656e-10
-5.29745e-16
-1.2608e-09
-8.41283e-10
-4.63972e-16
-1.21354e-09
-8.00027e-10
-4.24041e-16
-1.16249e-09
-7.58763e-10
-4.20345e-16
-1.10874e-09
-7.17928e-10
-4.17229e-16
-1.05319e-09
-6.78059e-10
-4.51637e-16
-9.96665e-10
-6.39479e-10
-4.25488e-16
-9.39817e-10
-6.02399e-10
-3.90753e-16
-8.83201e-10
-5.66973e-10
-3.48371e-16
-8.2727e-10
-5.3327e-10
-2.97101e-16
-7.72382e-10
-5.01324e-10
-2.47638e-16
-7.18828e-10
-4.71087e-10
-2.0053e-16
-6.66841e-10
-4.42515e-10
-1.59757e-16
-6.16586e-10
-4.15523e-10
-1.26048e-16
-5.68215e-10
-3.89939e-10
-9.84753e-17
-5.21787e-10
-3.65887e-10
-7.41075e-17
-4.77392e-10
-3.43035e-10
-5.37399e-17
-4.35042e-10
-3.21504e-10
-3.51419e-17
-3.94762e-10
-3.0109e-10
-1.78815e-17
-3.56544e-10
-2.81764e-10
-4.86748e-18
-3.20333e-10
-2.63681e-10
7.58314e-18
-2.86099e-10
-2.466e-10
2.07092e-17
-2.53755e-10
-2.30714e-10
2.21635e-17
-2.23217e-10
-2.15976e-10
2.61893e-17
-1.94373e-10
-2.02466e-10
3.29842e-17
-1.67092e-10
-1.90263e-10
3.80029e-17
-1.41251e-10
-1.79255e-10
4.11693e-17
-1.16732e-10
-1.69354e-10
3.93821e-17
-9.34582e-11
-1.60199e-10
3.98366e-17
-7.14503e-11
-1.50984e-10
3.94643e-17
-5.09e-11
-1.40285e-10
3.83579e-17
-3.22753e-11
-1.25797e-10
3.72949e-17
-1.6463e-11
-1.04097e-10
3.30773e-17
-4.92836e-12
-7.13096e-11
3.08424e-17
-2.51993e-11
2.82738e-17
-1.21825e-09
-1.00034e-09
-1.22479e-15
-1.25001e-09
-1.0027e-09
-1.00364e-15
-1.26873e-09
-9.96083e-10
-7.5319e-16
-1.27529e-09
-9.81598e-10
-6.55895e-16
-1.27082e-09
-9.60731e-10
-5.99471e-16
-1.25653e-09
-9.3461e-10
-5.13101e-16
-1.2337e-09
-9.04481e-10
-4.62213e-16
-1.20358e-09
-8.71386e-10
-4.20386e-16
-1.16742e-09
-8.36185e-10
-3.97352e-16
-1.12634e-09
-7.99836e-10
-4.04717e-16
-1.0814e-09
-7.62861e-10
-4.08952e-16
-1.03354e-09
-7.25905e-10
-4.42645e-16
-9.83606e-10
-6.894e-10
-4.17475e-16
-9.32338e-10
-6.53658e-10
-3.84632e-16
-8.80365e-10
-6.18938e-10
-3.44992e-16
-8.2823e-10
-5.85401e-10
-2.98195e-16
-7.7638e-10
-5.53167e-10
-2.51954e-16
-7.25197e-10
-5.2226e-10
-2.08025e-16
-6.74998e-10
-4.92708e-10
-1.6871e-16
-6.26032e-10
-4.6448e-10
-1.35532e-16
-5.78523e-10
-4.37447e-10
-1.07848e-16
-5.326e-10
-4.11802e-10
-8.24329e-17
-4.88411e-10
-3.87221e-10
-6.06973e-17
-4.46024e-10
-3.63885e-10
-4.07343e-17
-4.05509e-10
-3.41602e-10
-2.22594e-17
-3.66901e-10
-3.20371e-10
-8.36039e-18
-3.30178e-10
-3.00399e-10
4.76031e-18
-2.95339e-10
-2.81437e-10
1.85077e-17
-2.62324e-10
-2.63727e-10
1.98611e-17
-2.31065e-10
-2.47232e-10
2.40284e-17
-2.0147e-10
-2.3206e-10
3.12318e-17
-1.73418e-10
-2.18313e-10
3.64168e-17
-1.46799e-10
-2.05873e-10
3.97833e-17
-1.21501e-10
-1.94651e-10
3.80177e-17
-9.74517e-11
-1.84247e-10
3.89716e-17
-7.46755e-11
-1.7376e-10
3.87065e-17
-5.33652e-11
-1.61594e-10
3.74397e-17
-3.39912e-11
-1.4517e-10
3.67088e-17
-1.74548e-11
-1.20632e-10
3.25561e-17
-5.28358e-12
-8.34801e-11
3.05138e-17
-3.04823e-11
2.77843e-17
-1.07637e-09
-9.47373e-10
-1.02768e-15
-1.11744e-09
-9.61629e-10
-8.42282e-16
-1.14672e-09
-9.66797e-10
-6.64349e-16
-1.16465e-09
-9.63668e-10
-5.94603e-16
-1.17191e-09
-9.53465e-10
-5.60551e-16
-1.16936e-09
-9.37148e-10
-4.76163e-16
-1.15799e-09
-9.15847e-10
-4.21764e-16
-1.13881e-09
-8.90549e-10
-3.88132e-16
-1.11289e-09
-8.62097e-10
-3.73268e-16
-1.08125e-09
-8.31472e-10
-3.87826e-16
-1.04486e-09
-7.99238e-10
-3.97597e-16
-1.00465e-09
-7.66108e-10
-4.30365e-16
-9.6145e-10
-7.32586e-10
-4.05382e-16
-9.16034e-10
-6.99066e-10
-3.73826e-16
-8.69075e-10
-6.65889e-10
-3.36843e-16
-8.21175e-10
-6.33296e-10
-2.94795e-16
-7.72847e-10
-6.01487e-10
-2.51866e-16
-7.24542e-10
-5.70555e-10
-2.11603e-16
-6.7665e-10
-5.40595e-10
-1.74096e-16
-6.29486e-10
-5.11635e-10
-1.42553e-16
-5.83341e-10
-4.8359e-10
-1.14902e-16
-5.38408e-10
-4.56727e-10
-8.89299e-17
-4.94889e-10
-4.30737e-10
-6.651e-17
-4.52904e-10
-4.05864e-10
-4.5545e-17
-4.12569e-10
-3.81934e-10
-2.5867e-17
-3.73958e-10
-3.5898e-10
-1.13417e-17
-3.37085e-10
-3.37267e-10
2.31525e-18
-3.01979e-10
-3.16541e-10
1.65138e-17
-2.68604e-10
-2.97099e-10
1.80178e-17
-2.36917e-10
-2.78917e-10
2.2184e-17
-2.06841e-10
-2.62135e-10
2.97225e-17
-1.78271e-10
-2.46881e-10
3.49803e-17
-1.51108e-10
-2.33035e-10
3.86501e-17
-1.25248e-10
-2.20509e-10
3.67806e-17
-1.00626e-10
-2.08868e-10
3.77276e-17
-7.72688e-11
-1.97116e-10
3.78539e-17
-5.53697e-11
-1.83492e-10
3.6725e-17
-3.54001e-11
-1.65139e-10
3.60545e-17
-1.82741e-11
-1.37758e-10
3.19239e-17
-5.57656e-12
-9.61768e-11
2.98597e-17
-3.60583e-11
2.73041e-17
-9.47005e-10
-8.9055e-10
-1.03833e-15
-9.93926e-10
-9.14711e-10
-7.99469e-16
-1.03061e-09
-9.30103e-10
-5.93654e-16
-1.05708e-09
-9.37196e-10
-4.95102e-16
-1.07362e-09
-9.36921e-10
-4.62845e-16
-1.08074e-09
-9.30025e-10
-3.91917e-16
-1.0791e-09
-9.17471e-10
-3.54319e-16
-1.0695e-09
-9.0014e-10
-3.41963e-16
-1.05278e-09
-8.78806e-10
-3.40761e-16
-1.02982e-09
-8.54425e-10
-3.63801e-16
-1.0015e-09
-8.27559e-10
-3.78669e-16
-9.68642e-10
-7.98948e-10
-4.10127e-16
-9.32079e-10
-7.69138e-10
-3.87409e-16
-8.9256e-10
-7.38577e-10
-3.57884e-16
-8.50776e-10
-7.07665e-10
-3.24036e-16
-8.07359e-10
-6.76708e-10
-2.86666e-16
-7.62865e-10
-6.45973e-10
-2.47492e-16
-7.17795e-10
-6.15615e-10
-2.11299e-16
-6.72592e-10
-5.85792e-10
-1.76182e-16
-6.27629e-10
-5.56589e-10
-1.46586e-16
-5.83251e-10
-5.27966e-10
-1.19564e-16
-5.39705e-10
-5.00265e-10
-9.3625e-17
-4.97245e-10
-4.73194e-10
-7.08011e-17
-4.56038e-10
-4.47065e-10
-4.92198e-17
-4.16241e-10
-4.21727e-10
-2.8852e-17
-3.77968e-10
-3.97252e-10
-1.38727e-17
-3.41267e-10
-3.73963e-10
2.41306e-19
-3.06197e-10
-3.5161e-10
1.48052e-17
-2.72747e-10
-3.30545e-10
1.63724e-17
-2.40897e-10
-3.10765e-10
2.08126e-17
-2.10589e-10
-2.92441e-10
2.82841e-17
-1.81733e-10
-2.75735e-10
3.38397e-17
-1.54242e-10
-2.60525e-10
3.75802e-17
-1.28024e-10
-2.46726e-10
3.56298e-17
-1.03018e-10
-2.33872e-10
3.68315e-17
-7.92553e-11
-2.20878e-10
3.67131e-17
-5.69291e-11
-2.05818e-10
3.5988e-17
-3.65108e-11
-1.85556e-10
3.54217e-17
-1.89254e-11
-1.55342e-10
3.13561e-17
-5.80951e-12
-1.09292e-10
2.93534e-17
-4.18672e-11
2.68376e-17
-8.29647e-10
-8.3206e-10
-8.8705e-16
-8.80056e-10
-8.64306e-10
-6.98936e-16
-9.21759e-10
-8.88394e-10
-5.38337e-16
-9.54458e-10
-9.04491e-10
-4.51391e-16
-9.78135e-10
-9.13238e-10
-4.26841e-16
-9.93e-10
-9.15154e-10
-3.57171e-16
-9.99451e-10
-9.11013e-10
-3.18879e-16
-9.98028e-10
-9.01553e-10
-3.11926e-16
-9.89382e-10
-8.87444e-10
-3.15011e-16
-9.74222e-10
-8.69578e-10
-3.40917e-16
-9.53294e-10
-8.48479e-10
-3.5723e-16
-9.2735e-10
-8.24879e-10
-3.86246e-16
-8.97143e-10
-7.99335e-10
-3.65098e-16
-8.63393e-10
-7.72319e-10
-3.37664e-16
-8.26777e-10
-7.44272e-10
-3.06886e-16
-7.87935e-10
-7.15545e-10
-2.74363e-16
-7.47442e-10
-6.86457e-10
-2.39203e-16
-7.05832e-10
-6.57215e-10
-2.07247e-16
-6.63584e-10
-6.28033e-10
-1.7494e-16
-6.21116e-10
-5.99049e-10
-1.47637e-16
-5.78816e-10
-5.70264e-10
-1.22002e-16
-5.36976e-10
-5.42096e-10
-9.66034e-17
-4.95894e-10
-5.14273e-10
-7.36321e-17
-4.5578e-10
-4.87174e-10
-5.19839e-17
-4.16828e-10
-4.60674e-10
-3.11284e-17
-3.79189e-10
-4.34889e-10
-1.58558e-17
-3.42943e-10
-4.10204e-10
-1.4686e-18
-3.08178e-10
-3.86374e-10
1.32562e-17
-2.74908e-10
-3.63811e-10
1.52319e-17
-2.43135e-10
-3.42535e-10
1.9691e-17
-2.12821e-10
-3.22754e-10
2.72534e-17
-1.83891e-10
-3.04663e-10
3.26495e-17
-1.56273e-10
-2.88142e-10
3.64852e-17
-1.29883e-10
-2.73115e-10
3.45803e-17
-1.04669e-10
-2.59085e-10
3.57431e-17
-8.06648e-11
-2.44881e-10
3.59947e-17
-5.80635e-11
-2.28418e-10
3.51703e-17
-3.73359e-11
-2.06283e-10
3.46227e-17
-1.94161e-11
-1.73261e-10
3.07231e-17
-5.98559e-12
-1.22722e-10
2.88294e-17
-4.78522e-11
2.63498e-17
-7.25002e-10
-7.74026e-10
-7.57204e-16
-7.76725e-10
-8.12587e-10
-5.81619e-16
-8.21294e-10
-8.43821e-10
-4.32876e-16
-8.58159e-10
-8.67621e-10
-3.53229e-16
-8.87039e-10
-8.84352e-10
-3.458e-16
-9.07883e-10
-8.94304e-10
-2.94124e-16
-9.20844e-10
-8.98046e-10
-2.68693e-16
-9.26233e-10
-8.96152e-10
-2.72501e-16
-9.24506e-10
-8.89163e-10
-2.81326e-16
-9.16201e-10
-8.77875e-10
-3.10138e-16
-9.01927e-10
-8.62746e-10
-3.28336e-16
-8.82327e-10
-8.44466e-10
-3.56364e-16
-8.58074e-10
-8.23577e-10
-3.37414e-16
-8.29833e-10
-8.00553e-10
-3.13095e-16
-7.98248e-10
-7.75849e-10
-2.8609e-16
-7.63945e-10
-7.49843e-10
-2.58502e-16
-7.27503e-10
-7.22891e-10
-2.27457e-16
-6.89466e-10
-6.95241e-10
-1.99986e-16
-6.50339e-10
-6.67153e-10
-1.70698e-16
-6.10568e-10
-6.38811e-10
-1.46237e-16
-5.70574e-10
-6.10256e-10
-1.22207e-16
-5.30687e-10
-5.81975e-10
-9.7755e-17
-4.9124e-10
-5.53717e-10
-7.51597e-17
-4.52477e-10
-5.2593e-10
-5.35602e-17
-4.14629e-10
-4.98518e-10
-3.26826e-17
-3.77878e-10
-4.71638e-10
-1.72533e-17
-3.42332e-10
-4.45743e-10
-2.81216e-18
-3.08108e-10
-4.20596e-10
1.19607e-17
-2.75245e-10
-3.96671e-10
1.43677e-17
-2.43764e-10
-3.74013e-10
1.88877e-17
-2.13648e-10
-3.5287e-10
2.64532e-17
-1.84837e-10
-3.33471e-10
3.17629e-17
-1.57274e-10
-3.15704e-10
3.55151e-17
-1.30885e-10
-2.99502e-10
3.36228e-17
-1.05625e-10
-2.84343e-10
3.48584e-17
-8.15309e-11
-2.68974e-10
3.49599e-17
-5.87964e-11
-2.51152e-10
3.42198e-17
-3.78908e-11
-2.27188e-10
3.38783e-17
-1.97553e-11
-1.91396e-10
3.00219e-17
-6.10867e-12
-1.36368e-10
2.82447e-17
-5.39603e-11
2.56849e-17
-6.31936e-10
-7.17634e-10
-6.79838e-16
-6.8354e-10
-7.60987e-10
-5.30158e-16
-7.29396e-10
-7.97961e-10
-4.12404e-16
-7.68793e-10
-8.28219e-10
-3.37688e-16
-8.0126e-10
-8.5188e-10
-3.28226e-16
-8.26543e-10
-8.69016e-10
-2.73817e-16
-8.44587e-10
-8.79996e-10
-2.44966e-16
-8.55508e-10
-8.8522e-10
-2.47842e-16
-8.59579e-10
-8.85086e-10
-2.55333e-16
-8.57175e-10
-8.80272e-10
-2.82873e-16
-8.48765e-10
-8.71147e-10
-3.01121e-16
-8.34879e-10
-8.5834e-10
-3.2589e-16
-8.16095e-10
-8.4235e-10
-3.07559e-16
-7.93011e-10
-8.23629e-10
-2.85962e-16
-7.66223e-10
-8.02628e-10
-2.62576e-16
-7.36326e-10
-7.79734e-10
-2.39814e-16
-7.03885e-10
-7.55323e-10
-2.13161e-16
-6.69445e-10
-7.29671e-10
-1.8998e-16
-6.33519e-10
-7.03073e-10
-1.64241e-16
-5.96569e-10
-6.75752e-10
-1.42631e-16
-5.59039e-10
-6.47783e-10
-1.20464e-16
-5.21286e-10
-6.19719e-10
-9.74228e-17
-4.83671e-10
-5.91329e-10
-7.56289e-17
-4.46468e-10
-5.63127e-10
-5.44283e-17
-4.09936e-10
-5.35045e-10
-3.37027e-17
-3.74285e-10
-5.07287e-10
-1.83615e-17
-3.39652e-10
-4.80371e-10
-3.87827e-18
-3.06174e-10
-4.54071e-10
1.1026e-17
-2.73916e-10
-4.28926e-10
1.3952e-17
-2.42919e-10
-4.05007e-10
1.8512e-17
-2.13183e-10
-3.82604e-10
2.56566e-17
-1.84666e-10
-3.61985e-10
3.0991e-17
-1.57322e-10
-3.43046e-10
3.45744e-17
-1.31091e-10
-3.25733e-10
3.26413e-17
-1.05933e-10
-3.09499e-10
3.38973e-17
-8.18899e-11
-2.93015e-10
3.38374e-17
-5.91541e-11
-2.73886e-10
3.33972e-17
-3.81933e-11
-2.48148e-10
3.30987e-17
-1.99535e-11
-2.09635e-10
2.92851e-17
-6.18309e-12
-1.50137e-10
2.76645e-17
-6.01428e-11
2.51556e-17
-5.50086e-10
-6.63947e-10
-5.14692e-16
-6.00347e-10
-7.10728e-10
-4.12029e-16
-6.46162e-10
-7.52143e-10
-3.17566e-16
-6.86709e-10
-7.87668e-10
-2.56985e-16
-7.21377e-10
-8.17207e-10
-2.62651e-16
-7.49749e-10
-8.40639e-10
-2.20646e-16
-7.716e-10
-8.58137e-10
-1.98903e-16
-7.86878e-10
-8.69932e-10
-2.06182e-16
-7.95688e-10
-8.76269e-10
-2.15559e-16
-7.98256e-10
-8.77696e-10
-2.44186e-16
-7.94917e-10
-8.74479e-10
-2.65838e-16
-7.86083e-10
-8.67162e-10
-2.8735e-16
-7.72237e-10
-8.56187e-10
-2.73171e-16
-7.53897e-10
-8.41961e-10
-2.56082e-16
-7.31602e-10
-8.24915e-10
-2.36989e-16
-7.05904e-10
-8.05426e-10
-2.19242e-16
-6.77343e-10
-7.83876e-10
-1.96863e-16
-6.46448e-10
-7.60555e-10
-1.78292e-16
-6.13731e-10
-7.35784e-10
-1.55777e-16
-5.79659e-10
-7.09815e-10
-1.37099e-16
-5.44689e-10
-6.82751e-10
-1.1721e-16
-5.09195e-10
-6.55204e-10
-9.58015e-17
-4.73559e-10
-6.26961e-10
-7.50783e-17
-4.38078e-10
-5.98602e-10
-5.45933e-17
-4.03034e-10
-5.70085e-10
-3.40245e-17
-3.68659e-10
-5.4166e-10
-1.90652e-17
-3.35115e-10
-5.1391e-10
-4.68891e-18
-3.0256e-10
-4.86624e-10
1.02092e-17
-2.7108e-10
-4.60403e-10
1.359e-17
-2.40734e-10
-4.3535e-10
1.81133e-17
-2.1154e-10
-4.11797e-10
2.5201e-17
-1.83472e-10
-3.90051e-10
3.00982e-17
-1.56497e-10
-3.7002e-10
3.37223e-17
-1.30565e-10
-3.51663e-10
3.17494e-17
-1.05644e-10
-3.34418e-10
3.28216e-17
-8.17805e-11
-3.16878e-10
3.30861e-17
-5.91648e-11
-2.96501e-10
3.26923e-17
-3.82627e-11
-2.6905e-10
3.22333e-17
-2.00224e-11
-2.27875e-10
2.86937e-17
-6.21346e-12
-1.63946e-10
2.68801e-17
-6.63556e-11
2.46025e-17
-4.78181e-10
-6.13472e-10
-4.88384e-16
-5.26352e-10
-6.6256e-10
-3.88167e-16
-5.71195e-10
-7.07297e-10
-2.97838e-16
-6.11844e-10
-7.47016e-10
-2.38594e-16
-6.47598e-10
-7.81449e-10
-2.43672e-16
-6.77929e-10
-8.10304e-10
-1.99659e-16
-7.02482e-10
-8.33579e-10
-1.74199e-16
-7.21064e-10
-8.5134e-10
-1.78079e-16
-7.33641e-10
-8.63685e-10