/*--------------------------------*- C++ -*----------------------------------*\
| =========                 |                                                 |
| \\      /  F ield         | OpenFOAM: The Open Source CFD Toolbox           |
|  \\    /   O peration     | Version:  v2012                                 |
|   \\  /    A nd           | Website:  www.openfoam.com                      |
|    \\/     M anipulation  |                                                 |
\*---------------------------------------------------------------------------*/
FoamFile
{
    version     2.0;
    format      ascii;
    class       surfaceScalarField;
    location    "0.4";
    object      alphaPhi0.water;
}
// * * * * * * * * * * * * * * * * * * * * * * * * * * * * * * * * * * * * * //

dimensions      [0 3 -1 0 0 0 0];
oriented        oriented;


internalField   nonuniform List<scalar> 
8162
(
-1.97869e-45
-3.95163e-35
-1.00053e-42
-3.83796e-53
-1.84107e-44
-4.32879e-52
-1.08429e-59
-3.2451e-52
-7.20251e-60
-1.0433e-66
-8.38837e-59
-1.77093e-66
-2.07351e-74
-7.36385e-66
-1.47455e-73
-5.53874e-77
-1.36252e-73
-2.69072e-81
-1.31962e-79
-3.37919e-76
-6.37436e-84
-1.91435e-82
-7.45609e-79
-1.36176e-86
-2.2701e-85
-1.01832e-81
-1.75495e-89
-1.42756e-88
-1.10097e-84
-1.87784e-92
-3.51915e-92
-6.48391e-88
-1.03759e-95
-1.36064e-95
-1.46426e-91
-2.6257e-99
-1.11311e-100
-5.74801e-95
-8.80116e-103
-8.55817e-107
-3.46948e-100
-6.51589e-108
-7.57887e-113
-2.6767e-106
-4.4644e-114
-4.53512e-119
-1.80152e-112
-3.52263e-120
-1.95632e-118
-9.43419e-120
-6.95543e-128
-4.51764e-117
-1.70714e-118
-8.97993e-128
-3.0892e-116
-1.1254e-117
-2.34141e-127
-2.82498e-117
-4.14484e-127
-1.22776e-27
-2.27243e-21
-7.85339e-29
-4.64542e-36
-1.21013e-26
-3.75866e-34
-2.42124e-45
-4.22217e-35
-1.18254e-42
-4.72507e-53
-2.00783e-44
-5.18808e-52
-1.34531e-59
-3.60251e-52
-8.61745e-60
-1.27573e-66
-9.49874e-59
-2.13285e-66
-2.59729e-74
-8.27226e-66
-1.74727e-73
-7.03456e-77
-1.58023e-73
-3.26968e-81
-1.68288e-79
-4.0012e-76
-7.8435e-84
-2.55472e-82
-8.90193e-79
-1.68248e-86
-2.9567e-85
-1.28012e-81
-2.27241e-89
-1.94639e-88
-1.35616e-84
-2.37428e-92
-4.81965e-92
-8.40479e-88
-1.37599e-95
-2.31978e-95
-1.91133e-91
-3.5581e-99
-1.26897e-100
-9.08009e-95
-1.47916e-102
-1.28604e-106
-3.78298e-100
-7.30566e-108
-8.22936e-113
-3.86625e-106
-6.6028e-114
-3.49791e-120
-1.83999e-112
-3.75749e-120
-8.41623e-120
-3.68184e-120
-4.967e-128
-1.57601e-118
-4.3291e-120
-4.24391e-129
-1.0776e-117
-2.84465e-119
-2.37918e-128
-6.56667e-119
-5.28885e-128
2.10608e-11
-7.47953e-09
2.04906e-15
6.14526e-11
-2.19401e-08
-1.28811e-15
9.81422e-10
-3.23119e-08
6.49386e-15
3.21639e-09
-5.93872e-08
-3.41151e-16
5.14748e-09
-9.49063e-08
-5.34445e-15
4.79857e-09
-1.06584e-07
-1.65125e-14
3.84029e-09
-7.77367e-08
-1.02006e-14
2.14172e-09
-7.37761e-08
-1.07903e-14
1.75802e-10
-2.33717e-08
-3.39816e-15
-3.22594e-09
-4.34752e-16
-4.59677e-13
-4.94424e-11
-3.98723e-18
-4.68884e-14
-5.56663e-12
-3.46275e-19
-2.83748e-15
-4.40871e-13
-2.36919e-20
-1.25215e-17
-2.33699e-14
-1.0367e-21
-2.319e-22
-1.41095e-16
-5.11839e-24
-1.40979e-27
-2.1886e-21
-7.35893e-29
-5.63521e-36
-1.21714e-26
-3.68521e-34
-2.96071e-45
-4.56609e-35
-1.24752e-42
-5.81619e-53
-2.21605e-44
-5.69593e-52
-1.67846e-59
-4.04041e-52
-9.69745e-60
-1.56374e-66
-1.09117e-58
-2.47254e-66
-3.26826e-74
-9.38588e-66
-2.00966e-73
-8.99565e-77
-1.85294e-73
-3.90477e-81
-2.15664e-79
-4.79678e-76
-9.58568e-84
-3.43759e-82
-1.0733e-78
-2.0751e-86
-3.88705e-85
-1.62886e-81
-2.95868e-89
-2.6878e-88
-1.69321e-84
-3.03085e-92
-6.682e-92
-1.10684e-87
-1.85346e-95
-3.72227e-95
-2.53395e-91
-4.88256e-99
-1.48443e-100
-1.35583e-94
-2.34018e-102
-1.96304e-106
-4.30615e-100
-8.41303e-108
-8.78433e-113
-5.68669e-106
-9.92701e-114
-2.02378e-120
-1.87876e-112
-3.94139e-120
-1.65349e-120
-3.6481e-120
-4.85619e-128
-4.59906e-120
-7.73781e-121
-3.34947e-129
-2.66398e-119
-1.735e-120
-1.64637e-129
-2.38091e-120
-2.09197e-129
1.81e-11
-7.49762e-09
2.32208e-15
9.24854e-11
-2.20145e-08
8.06367e-16
1.0512e-09
-3.32706e-08
4.46408e-15
3.07689e-09
-6.14129e-08
2.09809e-15
4.69661e-09
-9.6526e-08
-7.45138e-15
3.98802e-09
-1.05876e-07
-1.27913e-14
3.00066e-09
-7.67492e-08
-1.06129e-14
1.43269e-09
-7.25508e-08
-1.19241e-14
6.49602e-11
-2.22456e-08
-3.36818e-15
-1.29226e-11
-2.97872e-09
-4.06802e-16
-1.13124e-11
-9.51001e-10
-1.19248e-16
-3.35453e-12
-2.55202e-10
-2.51501e-17
-5.26921e-13
-4.29171e-11
-3.62562e-18
-5.12172e-14
-4.87485e-12
-3.2157e-19
-3.02598e-15
-3.90643e-13
-2.2927e-20
-1.54311e-17
-2.09617e-14
-9.95621e-22
-2.5679e-22
-1.49914e-16
-5.95445e-24
-1.6017e-27
-2.13736e-21
-7.71266e-29
-6.81908e-36
-1.23319e-26
-4.1718e-34
-3.62027e-45
-4.99813e-35
-1.49775e-42
-7.16052e-53
-2.47534e-44
-6.88254e-52
-2.1066e-59
-4.57811e-52
-1.16954e-59
-1.92227e-66
-1.2718e-58
-3.02568e-66
-4.13202e-74
-1.076e-65
-2.39828e-73
-1.15833e-76
-2.19691e-73
-4.79419e-81
-2.77789e-79
-5.82257e-76
-1.19823e-83
-4.65938e-82
-1.30715e-78
-2.60055e-86
-5.16235e-85
-2.09585e-81
-3.91004e-89
-3.7557e-88
-2.14463e-84
-3.92763e-92
-9.38142e-92
-1.47935e-87
-2.52996e-95
-5.65541e-95
-3.41306e-91
-6.77856e-99
-1.86786e-100
-1.92725e-94
-3.50641e-102
-3.04532e-106
-5.44058e-100
-1.04284e-107
-9.60812e-113
-8.52417e-106
-1.51802e-113
-2.1613e-120
-2.03845e-112
-4.2334e-120
-3.71172e-121
-5.63309e-120
-9.74346e-128
-6.04347e-121
-3.43107e-121
-2.12283e-129
-1.40116e-120
-4.9976e-121
-8.27772e-130
-4.71508e-121
-8.61407e-133
1.50333e-11
-7.51265e-09
2.69541e-15
1.15773e-10
-2.21152e-08
3.40854e-16
1.06947e-09
-3.42243e-08
4.21289e-15
3.00718e-09
-6.33506e-08
1.53499e-15
4.32216e-09
-9.78411e-08
-8.64061e-15
3.25601e-09
-1.04809e-07
-6.10103e-15
2.21527e-09
-7.57083e-08
-1.51616e-14
7.82921e-10
-7.14591e-08
-1.23844e-14
-1.31824e-11
-2.18517e-08
-3.41866e-15
-2.73971e-11
-2.83173e-09
-4.00332e-16
-1.49098e-11
-8.32626e-10
-1.06601e-16
-3.86516e-12
-2.25107e-10
-2.30988e-17
-5.74976e-13
-3.79128e-11
-3.2561e-18
-5.44798e-14
-4.34844e-12
-2.86551e-19
-3.17894e-15
-3.52501e-13
-2.10804e-20
-1.8707e-17
-1.91379e-14
-9.27038e-22
-2.81662e-22
-1.60656e-16
-6.69284e-24
-1.80299e-27
-2.11513e-21
-7.83098e-29
-8.23902e-36
-1.25798e-26
-4.43878e-34
-4.42905e-45
-5.53611e-35
-1.71293e-42
-8.81954e-53
-2.79763e-44
-8.04904e-52
-2.66039e-59
-5.23944e-52
-1.38178e-59
-2.37083e-66
-1.50383e-58
-3.68613e-66
-5.24932e-74
-1.24665e-65
-2.85704e-73
-1.5019e-76
-2.63366e-73
-5.89605e-81
-3.59725e-79
-7.15549e-76
-1.50619e-83
-6.3551e-82
-1.60834e-78
-3.27627e-86
-6.93192e-85
-2.72408e-81
-5.20112e-89
-5.30415e-88
-2.75792e-84
-5.14251e-92
-1.3341e-91
-2.00426e-87
-3.47843e-95
-8.1933e-95
-4.67109e-91
-9.4889e-99
-2.74098e-100
-2.62655e-94
-4.99983e-102
-4.80602e-106
-8.361e-100
-1.50633e-107
-1.29885e-112
-1.30364e-105
-2.36215e-113
-5.46323e-120
-3.26137e-112
-5.59289e-120
-1.81126e-121
-1.25114e-119
-2.0699e-127
-2.60075e-121
-1.54207e-121
-1.13523e-129
-3.85999e-121
-1.99277e-121
-8.0751e-130
-4.8619e-121
-1.61955e-121
-5.84288e-133
-8.55045e-122
-1.45311e-134
1.20613e-11
-7.52471e-09
2.68493e-15
1.29687e-10
-2.22329e-08
4.19626e-16
1.04869e-09
-3.51433e-08
4.2887e-15
3.01946e-09
-6.53214e-08
-3.19124e-16
3.98934e-09
-9.8811e-08
-1.56568e-14
2.57763e-09
-1.03398e-07
-8.53039e-15
1.49307e-09
-7.46269e-08
-1.41069e-14
1.97461e-10
-7.05388e-08
-1.18763e-14
-5.18585e-11
-2.20493e-08
-3.50408e-15
-3.75212e-11
-2.72586e-09
-3.98363e-16
-1.73759e-11
-7.38658e-10
-9.85404e-17
-4.20996e-12
-2.01383e-10
-2.12964e-17
-6.08937e-13
-3.40409e-11
-3.00672e-18
-5.69755e-14
-3.94567e-12
-2.67565e-19
-3.30771e-15
-3.23514e-13
-1.99143e-20
-2.2386e-17
-1.77656e-14
-9.15675e-22
-3.10574e-22
-1.73555e-16
-7.72708e-24
-2.01298e-27
-2.1366e-21
-8.37721e-29
-9.94651e-36
-1.29104e-26
-4.83087e-34
-5.42351e-45
-6.20162e-35
-2.01182e-42
-1.08699e-52
-3.19773e-44
-9.59421e-52
-3.38105e-59
-6.05392e-52
-1.65147e-59
-2.93511e-66
-1.80335e-58
-4.54289e-66
-6.70147e-74
-1.45996e-65
-3.42818e-73
-1.96079e-76
-3.19176e-73
-7.30861e-81
-4.68447e-79
-8.90049e-76
-1.91147e-83
-8.71362e-82
-1.99967e-78
-4.15941e-86
-9.41845e-85
-3.57268e-81
-6.9664e-89
-7.56177e-88
-3.60321e-84
-6.81925e-92
-1.92159e-91
-2.74881e-87
-4.82096e-95
-1.13961e-94
-6.49446e-91
-1.34121e-98
-5.02464e-100
-3.455e-94
-6.83172e-102
-7.72412e-106
-1.62229e-99
-2.71565e-107
-3.39636e-112
-2.03617e-105
-3.74401e-113
-1.19294e-119
-1.102e-111
-1.43441e-119
-8.19942e-122
-2.70391e-119
-4.69539e-127
-1.18308e-121
-6.32473e-122
-4.65812e-130
-1.51079e-121
-8.02723e-122
-3.90941e-130
-1.66509e-121
-6.07454e-122
-1.13147e-130
-2.7692e-122
-7.06087e-135
9.40133e-12
-7.53411e-09
2.74404e-15
1.34829e-10
-2.23583e-08
7.41024e-17
1.01295e-09
-3.60214e-08
5.48736e-15
3.08403e-09
-6.73925e-08
-1.34759e-16
3.6194e-09
-9.93464e-08
-1.81758e-14
1.90556e-09
-1.01684e-07
-1.98454e-15
8.71825e-10
-7.35971e-08
-1.25745e-14
-1.81003e-10
-7.0024e-08
-1.19636e-14
-8.50527e-11
-2.27321e-08
-3.72494e-15
-4.43222e-11
-2.67941e-09
-3.99675e-16
-1.89914e-11
-6.63907e-10
-9.16799e-17
-4.43394e-12
-1.82441e-10
-1.97799e-17
-6.32787e-13
-3.10148e-11
-2.77082e-18
-5.89311e-14
-3.63561e-12
-2.57334e-19
-3.42095e-15
-3.01473e-13
-1.88238e-20
-2.65105e-17
-1.67442e-14
-8.86205e-22
-3.43569e-22
-1.88856e-16
-8.41387e-24
-2.23069e-27
-2.20014e-21
-8.48964e-29
-1.20042e-35
-1.33173e-26
-4.98741e-34
-6.64912e-45
-7.0209e-35
-2.27796e-42
-1.34069e-52
-3.69405e-44
-1.12655e-51
-4.32399e-59
-7.05817e-52
-1.9687e-59
-3.64915e-66
-2.19181e-58
-5.65949e-66
-8.59759e-74
-1.72844e-65
-4.16166e-73
-2.57717e-76
-3.90939e-73
-9.15938e-81
-6.13652e-79
-1.12013e-75
-2.45442e-83
-1.19988e-81
-2.51264e-78
-5.3313e-86
-1.29573e-84
-4.72297e-81
-9.39165e-89
-1.08678e-87
-4.78508e-84
-9.16036e-92
-2.80255e-91
-3.81092e-87
-6.72077e-95
-1.53179e-94
-9.16865e-91
-1.90968e-98
-1.10016e-99
-4.41482e-94
-8.99748e-102
-1.265e-105
-3.60078e-99
-5.83908e-107
-1.30294e-111
-3.24898e-105
-6.04527e-113
-2.55643e-119
-4.09896e-111
-5.47432e-119
-3.38143e-122
-5.3785e-119
-9.91798e-127
-5.0388e-122
-2.39023e-122
-1.89405e-130
-6.14662e-122
-3.07554e-122
-1.27873e-130
-5.77731e-122
-2.25087e-122
-1.01263e-130
-5.05706e-122
-8.14989e-123
-4.93391e-135
5.42222e-124
-2.58729e-134
7.13539e-12
-7.54124e-09
1.69875e-15
1.32171e-10
-2.24833e-08
1.24716e-16
9.83537e-10
-3.68728e-08
3.98898e-15
3.11486e-09
-6.95238e-08
8.25113e-16
3.09905e-09
-9.93307e-08
-1.20116e-14
1.19161e-09
-9.97764e-08
-8.34753e-16
3.444e-10
-7.27552e-08
-1.16974e-14
-4.57741e-10
-6.97618e-08
-1.19088e-14
-1.14947e-10
-2.37461e-08
-4.02103e-15
-4.86989e-11
-2.68202e-09
-4.14091e-16
-1.99728e-11
-6.04552e-10
-8.45003e-17
-4.57036e-12
-1.6708e-10
-1.88316e-17
-6.49359e-13
-2.86238e-11
-2.60962e-18
-6.05037e-14
-3.39541e-12
-2.47583e-19
-3.52464e-15
-2.84728e-13
-1.79935e-20
-3.11263e-17
-1.59967e-14
-8.72805e-22
-3.83063e-22
-2.06815e-16
-9.42646e-24
-2.45477e-27
-2.3208e-21
-9.17083e-29
-1.44877e-35
-1.3793e-26
-5.31208e-34
-8.16242e-45
-8.02589e-35
-2.66387e-42
-1.65488e-52
-4.30959e-44
-1.34677e-51
-5.56365e-59
-8.29763e-52
-2.36798e-59
-4.5585e-66
-2.69793e-58
-7.10804e-66
-1.10846e-73
-2.06884e-65
-5.08133e-73
-3.40947e-76
-4.83773e-73
-1.15317e-80
-8.08922e-79
-1.42557e-75
-3.17024e-83
-1.65789e-81
-3.19122e-78
-6.87102e-86
-1.80576e-84
-6.28698e-81
-1.26961e-88
-1.57261e-87
-6.4606e-84
-1.24582e-91
-4.13635e-91
-5.33359e-87
-9.41604e-95
-2.00324e-94
-1.31327e-90
-2.74515e-98
-2.52334e-99
-5.51811e-94
-1.15165e-101
-2.11014e-105
-7.9736e-99
-1.31467e-106
-4.10934e-111
-5.29039e-105
-9.94074e-113
-4.96774e-119
-1.11954e-110
-1.71914e-118
-1.28859e-122
-9.76604e-119
-1.91113e-126
-1.98819e-122
-8.37901e-123
-8.16063e-131
-2.32322e-122
-1.12388e-122
-3.81229e-131
-1.88415e-122
-8.3602e-123
-4.03379e-131
-1.35647e-122
-2.63873e-123
-1.0147e-134
8.42053e-125
-8.86222e-136
5.27944e-12
-7.54652e-09
1.38154e-15
1.23593e-10
-2.26016e-08
-5.71971e-16
9.69278e-10
-3.77185e-08
9.78626e-15
3.00194e-09
-7.15564e-08
-2.68922e-15
2.34179e-09
-9.86705e-08
-1.20823e-14
3.85583e-10
-9.78203e-08
-3.14346e-15
-1.1849e-10
-7.22626e-08
-1.17902e-14
-7.30316e-10
-6.97438e-08
-1.25353e-14
-1.46327e-10
-2.51527e-08
-4.34134e-15
-5.14049e-11
-2.78305e-09
-4.26454e-16
-2.04929e-11
-5.58133e-10
-8.14162e-17
-4.6444e-12
-1.54394e-10
-1.77884e-17
-6.60704e-13
-2.67135e-11
-2.48062e-18
-6.1806e-14
-3.2082e-12
-2.45782e-19
-3.622e-15
-2.72084e-13
-1.7709e-20
-3.6281e-17
-1.54648e-14
-8.64835e-22
-4.33969e-22
-2.27695e-16
-1.06288e-23
-2.68351e-27
-2.52139e-21
-1.02058e-28
-1.74881e-35
-1.43292e-26
-5.70281e-34
-1.00336e-44
-9.25543e-35
-3.13612e-42
-2.04418e-52
-5.07298e-44
-1.61334e-51
-7.20006e-59
-9.82873e-52
-2.84785e-59
-5.72481e-66
-3.36011e-58
-8.9765e-66
-1.43611e-73
-2.50391e-65
-6.23934e-73
-4.53882e-76
-6.04575e-73
-1.46168e-80
-1.07346e-78
-1.83362e-75
-4.13126e-83
-2.2968e-81
-4.09739e-78
-8.93634e-86
-2.54974e-84
-8.41928e-81
-1.72389e-88
-2.28852e-87
-8.86716e-84
-1.71804e-91
-6.17275e-91
-7.52614e-87
-1.32594e-94
-2.56948e-94
-1.90641e-90
-3.99249e-98
-5.48891e-99
-6.8053e-94
-1.44524e-101
-3.57824e-105
-1.63382e-98
-2.80651e-106
-9.59264e-111
-8.76703e-105
-1.66105e-112
-8.99813e-119
-2.26944e-110
-3.98287e-118
-4.58768e-123
-1.67436e-118
-3.42911e-126
-7.23516e-123
-2.87551e-123
-4.15612e-131
-8.77619e-123
-3.95086e-123
-8.96781e-132
-6.98905e-123
-3.06099e-123
-1.14787e-131
-3.5425e-123
-1.08661e-123
-3.96518e-132
1.34998e-125
-5.24653e-136
3.69177e-12
-7.55021e-09
-8.02972e-16
1.10721e-10
-2.27086e-08
1.18201e-15
9.65557e-10
-3.85733e-08
5.90695e-15
2.67965e-09
-7.32705e-08
-9.54663e-16
1.37945e-09
-9.73703e-08
-1.1375e-14
-4.45737e-10
-9.59952e-08
-1.62973e-14
-4.97527e-10
-7.22189e-08
-1.01254e-14
-1.00002e-09
-6.98694e-08
-1.23438e-14
-1.81376e-10
-2.69298e-08
-4.77987e-15
-5.30338e-11
-2.95056e-09
-4.5923e-16
-2.06744e-11
-5.23361e-10
-7.67008e-17
-4.67347e-12
-1.43701e-10
-1.71007e-17
-6.68162e-13
-2.51698e-11
-2.3759e-18
-6.29189e-14
-3.0614e-12
-2.41668e-19
-3.71204e-15
-2.62729e-13
-1.74129e-20
-4.20209e-17
-1.50893e-14
-8.5984e-22
-5.0307e-22
-2.51764e-16
-1.19821e-23
-2.91487e-27
-2.83959e-21
-1.15318e-28
-2.11148e-35
-1.49169e-26
-6.01093e-34
-1.23494e-44
-1.07567e-34
-3.68647e-42
-2.5267e-52
-6.01995e-44
-1.94219e-51
-9.36734e-59
-1.17217e-51
-3.44893e-59
-7.2324e-66
-4.22971e-58
-1.14533e-65
-1.86964e-73
-3.06487e-65
-7.72771e-73
-6.07819e-76
-7.62681e-73
-1.86372e-80
-1.43464e-78
-2.38202e-75
-5.41319e-83
-3.18833e-81
-5.31931e-78
-1.16886e-85
-3.64706e-84
-1.13336e-80
-2.34179e-88
-3.34598e-87
-1.23649e-83
-2.39779e-91
-9.30403e-91
-1.06963e-86
-1.8751e-94
-3.268e-94
-2.80108e-90
-5.87093e-98
-1.08932e-98
-8.3849e-94
-1.79904e-101
-6.14732e-105
-3.03643e-98
-5.46713e-106
-1.75315e-110
-1.47249e-104
-2.81132e-112
-1.5812e-118
-3.69049e-110
-7.20564e-118
-1.61024e-123
-2.85061e-118
-5.97298e-126
-2.50982e-123
-9.86157e-124
-2.5946e-131
-3.23087e-123
-1.32928e-123
-2.02656e-132
-2.86386e-123
-1.04471e-123
-9.57803e-133
-1.35211e-123
-4.33819e-124
-1.54515e-132
1.56081e-126
-5.09005e-136
2.29483e-12
-7.5525e-09
-2.06337e-15
9.58619e-11
-2.28022e-08
2.81701e-15
9.62532e-10
-3.944e-08
4.10811e-15
2.17232e-09
-7.44803e-08
-1.40337e-14
3.63412e-10
-9.55614e-08
-7.81341e-15
-1.14747e-09
-9.44843e-08
-1.08963e-14
-7.74149e-10
-7.25974e-08
-2.8145e-15
-1.26331e-09
-7.00154e-08
-1.21717e-14
-2.20055e-10
-2.90965e-08
-5.17289e-15
-5.41054e-11
-3.19718e-09
-5.0261e-16
-2.05922e-11
-5.00827e-10
-7.30001e-17
-4.66804e-12
-1.34474e-10
-1.63901e-17
-6.72442e-13
-2.39048e-11
-2.24184e-18
-6.38834e-14
-2.94517e-12
-2.31525e-19
-3.78505e-15
-2.55809e-13
-1.68617e-20
-4.83897e-17
-1.48114e-14
-8.249e-22
-6.01649e-22
-2.79327e-16
-1.33554e-23
-3.14652e-27
-3.33732e-21
-1.32672e-28
-2.54986e-35
-1.55467e-26
-6.36089e-34
-1.52175e-44
-1.2587e-34
-4.36755e-42
-3.12489e-52
-7.19504e-44
-2.34276e-51
-1.22451e-58
-1.40641e-51
-4.17097e-59
-9.19806e-66
-5.37535e-58
-1.46614e-65
-2.44575e-73
-3.79513e-65
-9.63569e-73
-8.18511e-76
-9.70787e-73
-2.39127e-80
-1.93189e-78
-3.12311e-75
-7.14918e-83
-4.43284e-81
-6.98358e-78
-1.54384e-85
-5.2814e-84
-1.53268e-80
-3.19138e-88
-4.91143e-87
-1.75014e-83
-3.39299e-91
-1.41471e-90
-1.52985e-86
-2.66747e-94
-4.19034e-94
-4.15977e-90
-8.71589e-98
-1.96513e-98
-1.05272e-93
-2.25776e-101
-1.06537e-104
-5.14409e-98
-9.67899e-106
-2.683e-110
-2.49487e-104
-4.79775e-112
-2.84366e-118
-5.14102e-110
-1.08967e-117
-5.63753e-124
-5.10856e-118
-1.06513e-125
-8.56788e-124
-3.36179e-124
-1.71628e-131
-1.10342e-123
-4.3826e-124
-1.58028e-132
-1.03792e-123
-3.34731e-124
-5.40618e-134
-6.16679e-124
-1.38914e-124
-4.79914e-134
-1.37719e-126
-1.00748e-133
9.74568e-13
-7.55348e-09
-3.12058e-15
8.06544e-11
-2.28818e-08
3.57572e-15
9.43632e-10
-4.03029e-08
2.18466e-15
1.56484e-09
-7.51015e-08
-1.38845e-14
-5.29185e-10
-9.34674e-08
-1.22938e-14
-1.66424e-09
-9.33492e-08
-1.95095e-14
-9.27844e-10
-7.33341e-08
-5.79174e-15
-1.5112e-09
-7.0048e-08
-1.19979e-14
-2.65531e-10
-3.16435e-08
-5.60818e-15
-5.49449e-11
-3.5477e-09
-5.58142e-16
-2.02881e-11
-4.86628e-10
-7.03551e-17
-4.6334e-12
-1.26313e-10
-1.52763e-17
-6.73806e-13
-2.28473e-11
-2.19525e-18
-6.46191e-14
-2.85158e-12
-2.26159e-19
-3.85951e-15
-2.50553e-13
-1.66124e-20
-5.54395e-17
-1.46751e-14
-8.23516e-22
-7.47479e-22
-3.10913e-16
-1.49511e-23
-3.37598e-27
-4.11245e-21
-1.60652e-28
-3.07958e-35
-1.62085e-26
-6.59478e-34
-1.87708e-44
-1.48156e-34
-5.10071e-42
-3.86662e-52
-8.6538e-44
-2.80703e-51
-1.60732e-58
-1.69653e-51
-5.02774e-59
-1.17856e-65
-6.88852e-58
-1.87827e-65
-3.21463e-73
-4.75576e-65
-1.20521e-72
-1.10797e-75
-1.24624e-72
-3.06666e-80
-2.62245e-78
-4.12967e-75
-9.43841e-83
-6.17106e-81
-9.27362e-78
-2.04498e-85
-7.73529e-84
-2.08124e-80
-4.33692e-88
-7.23466e-87
-2.51085e-83
-4.84761e-91
-2.16734e-90
-2.20087e-86
-3.81645e-94
-5.56366e-94
-6.23496e-90
-1.30402e-97
-3.25411e-98
-1.39115e-93
-2.9336e-101
-1.85498e-104
-8.04526e-98
-1.57279e-105
-3.6345e-110
-4.24705e-104
-8.22372e-112
-5.50595e-118
-6.46393e-110
-1.4572e-117
-1.94374e-124
-1.00822e-117
-2.04435e-125
-2.96641e-124
-1.09088e-124
-1.12917e-131
-3.58897e-124
-1.48949e-124
-2.01734e-132
-3.2084e-124
-1.11616e-124
-1.3035e-133
-2.25601e-124
-3.90132e-125
-1.42868e-135
-1.04601e-126
-2.5082e-134
-3.51157e-13
-7.55312e-09
-4.11777e-15
6.65025e-11
-2.29487e-08
4.49922e-15
8.92949e-10
-4.11294e-08
-1.12766e-15
9.56495e-10
-7.5165e-08
-1.35566e-14
-1.16459e-09
-9.13463e-08
-1.87504e-14
-1.98693e-09
-9.25269e-08
-2.47143e-14
-9.28668e-10
-7.43935e-08
-1.30524e-14
-1.72484e-09
-6.98137e-08
-1.15287e-14
-3.20359e-10
-3.45356e-08
-6.05577e-15
-5.51877e-11
-4.02592e-09
-6.32088e-16
-1.97697e-11
-4.77919e-10
-6.941e-17
-4.57016e-12
-1.18909e-10
-1.46046e-17
-6.72128e-13
-2.19352e-11
-2.1262e-18
-6.49883e-14
-2.77403e-12
-2.21627e-19
-3.94186e-15
-2.46064e-13
-1.63723e-20
-6.3249e-17
-1.45959e-14
-8.20869e-22
-9.68011e-22
-3.47484e-16
-1.6768e-23
-3.6006e-27
-5.31537e-21
-2.05452e-28
-3.71942e-35
-1.68916e-26
-6.99496e-34
-2.31746e-44
-1.7527e-34
-6.10174e-42
-4.78667e-52
-1.04656e-43
-3.40912e-51
-2.11715e-58
-2.05627e-51
-6.1055e-59
-1.52274e-65
-8.89097e-58
-2.42736e-65
-4.24525e-73
-6.03372e-65
-1.5283e-72
-1.50703e-75
-1.61286e-72
-3.97159e-80
-3.5902e-78
-5.50316e-75
-1.25812e-82
-8.60143e-81
-1.24575e-77
-2.74212e-85
-1.14426e-83
-2.83717e-80
-5.91699e-88
-1.06929e-86
-3.64481e-83
-7.01197e-91
-3.34152e-90
-3.18409e-86
-5.49866e-94
-7.97574e-94
-9.42012e-90
-1.96475e-97
-5.01237e-98
-2.0322e-93
-4.11561e-101
-3.23609e-104
-1.1778e-97
-2.37695e-105
-4.58424e-110
-7.24822e-104
-1.41191e-111
-1.16928e-117
-7.72616e-110
-1.81353e-117
-6.27664e-125
-2.18088e-117
-4.29696e-125
-1.03568e-124
-3.02918e-125
-6.86861e-132
-1.22721e-124
-4.89802e-125
-1.82131e-132
-9.61e-125
-4.00678e-125
-2.43804e-133
-6.17739e-125
-1.30335e-125
-1.27674e-135
-3.75979e-127
-1.1353e-135
-1.66357e-12
-7.55145e-09
-1.72563e-15
5.42221e-11
-2.30045e-08
1.54505e-15
7.99503e-10
-4.18746e-08
1.35524e-15
4.30886e-10
-7.47964e-08
-1.75481e-14
-1.48059e-09
-8.94349e-08
-1.66574e-14
-2.06472e-09
-9.19428e-08
-1.10385e-14
-7.57868e-10
-7.57011e-08
-6.99112e-15
-1.87799e-09
-6.91755e-08
-1.16653e-14
-3.86167e-10
-3.76961e-08
-6.46684e-15
-5.48095e-11
-4.66365e-09
-7.29822e-16
-1.90458e-11
-4.7571e-10
-6.82423e-17
-4.47623e-12
-1.12019e-10
-1.37251e-17
-6.66938e-13
-2.11119e-11
-2.04086e-18
-6.52483e-14
-2.70617e-12
-2.157e-19
-3.99952e-15
-2.42795e-13
-1.60335e-20
-7.18573e-17
-1.45645e-14
-8.0693e-22
-1.30432e-21
-3.88616e-16
-1.84905e-23
-3.81761e-27
-7.16902e-21
-2.66884e-28
-4.49196e-35
-1.75835e-26
-7.07692e-34
-2.86341e-44
-2.08233e-34
-7.04615e-42
-5.92872e-52
-1.27174e-43
-4.04671e-51
-2.79652e-58
-2.503e-51
-7.2842e-59
-1.98572e-65
-1.15443e-57
-3.09687e-65
-5.63286e-73
-7.75414e-65
-1.92815e-72
-2.0589e-75
-2.1035e-72
-5.10436e-80
-4.95896e-78
-7.3853e-75
-1.66683e-82
-1.20057e-80
-1.69302e-77
-3.67965e-85
-1.70673e-83
-3.88272e-80
-8.03769e-88
-1.58612e-86
-5.34273e-83
-1.01966e-90
-5.17951e-90
-4.63322e-86
-7.92842e-94
-1.30017e-93
-1.43307e-89
-2.97489e-97
-7.28184e-98
-3.4547e-93
-6.56573e-101
-5.65489e-104
-1.63658e-97
-3.38863e-105
-5.73961e-110
-1.24102e-103
-2.42815e-111
-2.62587e-117
-9.50149e-110
-2.24118e-117
-1.74716e-125
-4.86706e-117
-9.53123e-125
-3.15105e-125
-7.24824e-126
-3.84737e-132
-4.38398e-125
-1.25448e-125
-1.49847e-132
-3.6069e-125
-1.22799e-125
-2.64019e-133
-1.47822e-125
-5.97366e-126
-2.26185e-134
-1.48315e-127
-5.87874e-137
-2.87562e-12
-7.54856e-09
-5.29436e-16
4.463e-11
-2.30521e-08
-8.16159e-16
6.6365e-10
-4.24936e-08
3.16515e-15
5.89578e-11
-7.41917e-08
-7.95956e-15
-1.45159e-09
-8.79243e-08
-2.0841e-14
-1.85023e-09
-9.15441e-08
-2.91819e-14
-3.93872e-10
-7.71577e-08
-8.69925e-15
-1.94169e-09
-6.80143e-08
-1.04359e-14
-4.63957e-10
-4.10038e-08
-6.80023e-15
-5.45884e-11
-5.50169e-09
-8.29454e-16
-1.81352e-11
-4.85669e-10
-6.91761e-17
-4.34873e-12
-1.05488e-10
-1.2791e-17
-6.57818e-13
-2.03248e-11
-1.95204e-18
-6.52061e-14
-2.64212e-12
-2.10062e-19
-4.04843e-15
-2.39794e-13
-1.5824e-20
-8.33278e-17
-1.45658e-14
-7.95148e-22
-1.81552e-21
-4.28247e-16
-2.06237e-23
-4.02398e-27
-9.99097e-21
-3.69757e-28
-5.42458e-35
-1.82692e-26
-7.54008e-34
-3.54059e-44
-2.48296e-34
-8.59182e-42
-7.3481e-52
-1.55181e-43
-5.00261e-51
-3.70181e-58
-3.05882e-51
-8.98023e-59
-2.61592e-65
-1.50626e-57
-4.0657e-65
-7.5096e-73
-1.00989e-64
-2.51382e-72
-2.82432e-75
-2.76372e-72
-6.70804e-80
-6.91286e-78
-9.97444e-75
-2.24708e-82
-1.67877e-80
-2.32768e-77
-5.0298e-85
-2.56208e-83
-5.3357e-80
-1.10126e-87
-2.36251e-86
-7.89159e-83
-1.50046e-90
-8.06584e-90
-6.78419e-86
-1.15102e-93
-2.47933e-93
-2.19343e-89
-4.53535e-97
-1.01271e-97
-6.88479e-93
-1.22693e-100
-9.92581e-104
-2.19212e-97
-4.62808e-105
-8.17303e-110
-2.14036e-103
-4.19597e-111
-5.84949e-117
-1.47767e-109
-3.15631e-117
-4.94245e-126
-1.04945e-116
-2.09448e-124
-7.22996e-126
-3.20349e-126
-1.95425e-132
-1.28798e-125
-1.90539e-126
-1.06941e-132
-1.28887e-125
-2.84925e-126
-2.30874e-133
-5.31279e-126
-1.85532e-126
-3.22495e-134
-9.50817e-128
-1.31612e-135
-3.88815e-12
-7.54467e-09
3.85774e-15
3.82321e-11
-2.30942e-08
-3.20086e-15
5.01297e-10
-4.29567e-08
8.55553e-15
-1.12181e-10
-7.35782e-08
-1.85803e-14
-1.11417e-09
-8.69223e-08
-2.03735e-14
-1.37729e-09
-9.1281e-08
-7.28978e-15
1.23656e-10
-7.86586e-08
8.06855e-16
-1.89692e-09
-6.628e-08
-9.97632e-15
-5.54391e-10
-4.43029e-08
-6.98931e-15
-5.49111e-11
-6.58817e-09
-9.67173e-16
-1.70729e-11
-5.09107e-10
-6.86783e-17
-4.18621e-12
-9.93737e-11
-1.15638e-17
-6.44474e-13
-1.95275e-11
-1.84693e-18
-6.47832e-14
-2.57701e-12
-1.99042e-19
-4.08513e-15
-2.36682e-13
-1.52368e-20
-9.92611e-17
-1.45757e-14
-7.62738e-22
-2.58318e-21
-4.63475e-16
-2.16914e-23
-4.21634e-27
-1.42149e-20
-4.96752e-28
-6.55074e-35
-1.89301e-26
-7.33039e-34
-4.38126e-44
-2.9699e-34
-9.64938e-42
-9.11561e-52
-1.90053e-43
-5.81148e-51
-4.90761e-58
-3.75215e-51
-1.05265e-58
-3.48422e-65
-1.97285e-57
-5.12868e-65
-1.00597e-72
-1.33343e-64
-3.2028e-72
-3.88876e-75
-3.65702e-72
-8.63215e-80
-9.72728e-78
-1.35488e-74
-2.98543e-82
-2.35329e-80
-3.23698e-77
-6.85775e-85
-3.86362e-83
-7.36697e-80
-1.50224e-87
-3.53663e-86
-1.17212e-82
-2.21205e-90
-1.26143e-89
-1.00041e-85
-1.6981e-93
-5.33556e-93
-3.37636e-89
-6.94844e-97
-1.37339e-97
-1.50974e-92
-2.59022e-100
-1.76044e-103
-2.88928e-97
-6.17026e-105
-1.8343e-109
-3.74512e-103
-7.33229e-111
-1.23839e-116
-4.28901e-109
-7.04047e-117
-2.98658e-126
-2.12522e-116
-4.37409e-124
-1.31865e-126
-4.70348e-126
-1.01927e-132
-2.50611e-126
-2.08866e-127
-5.93258e-133
-3.42866e-126
-3.49585e-127
-1.88579e-133
-2.51568e-126
-2.58826e-127
-3.14397e-134
-3.40816e-128
-3.03321e-135
-4.61891e-12
-7.54004e-09
3.81115e-15
3.46352e-11
-2.31334e-08
-1.87284e-15
3.46132e-10
-4.32682e-08
4.54327e-15
-7.69939e-11
-7.31551e-08
-1.04132e-14
-6.11422e-10
-8.63879e-08
-2.23908e-14
-8.07442e-10
-9.10849e-08
-1.69502e-14
6.4895e-10
-8.0115e-08
-6.98128e-15
-1.74569e-09
-6.40813e-08
-7.9389e-15
-6.57593e-10
-4.74287e-08
-6.76521e-15
-5.60965e-11
-7.97936e-09
-1.10507e-15
-1.59472e-11
-5.50162e-10
-7.08191e-17
-3.9901e-12
-9.42152e-11
-1.06742e-17
-6.26757e-13
-1.86833e-11
-1.74962e-18
-6.39864e-14
-2.50662e-12
-1.8713e-19
-4.10692e-15
-2.33212e-13
-1.46176e-20
-1.13084e-16
-1.45731e-14
-7.38719e-22
-3.71502e-21
-4.94064e-16
-2.26335e-23
-4.39087e-27
-2.04081e-20
-6.98723e-28
-7.91176e-35
-1.95444e-26
-7.6287e-34
-5.42622e-44
-3.56211e-34
-1.16495e-41
-1.13229e-51
-2.33536e-43
-7.14001e-51
-6.51244e-58
-4.61997e-51
-1.29278e-58
-4.69503e-65
-2.59149e-57
-6.71327e-65
-1.35414e-72
-1.7853e-64
-4.25276e-72
-5.37278e-75
-4.8723e-72
-1.14175e-79
-1.38158e-77
-1.84996e-74
-4.04959e-82
-3.31024e-80
-4.55143e-77
-9.55606e-85
-5.84255e-83
-1.02281e-79
-2.07562e-87
-5.32708e-86
-1.74728e-82
-3.29451e-90
-1.98127e-89
-1.4873e-85
-2.53583e-93
-1.1946e-92
-5.22692e-89
-1.07293e-96
-1.86591e-97
-3.33696e-92
-5.70455e-100
-3.18113e-103
-3.87032e-97
-8.25861e-105
-7.04302e-109
-6.70918e-103
-1.30723e-110
-2.48101e-116
-1.83666e-108
-2.68885e-116
-9.96717e-126
-4.08911e-116
-8.65154e-124
-4.04215e-127
-1.85991e-125
-7.40218e-133
-3.376e-127
-1.93336e-127
-2.65297e-133
-4.43521e-127
-2.99342e-128
-1.42196e-133
-4.44592e-127
-2.46993e-128
-2.4686e-134
-5.10228e-129
-3.52503e-135
-4.71069e-12
-7.53532e-09
6.53366e-15
3.3259e-11
-2.31714e-08
-1.2358e-15
2.48141e-10
-4.3483e-08
1.61229e-15
1.08098e-10
-7.3015e-08
-3.43345e-15
-1.81328e-10
-8.60984e-08
-2.56452e-14
-4.12026e-10
-9.08542e-08
-8.87548e-15
9.0165e-10
-8.14282e-08
-1.54561e-14
-1.52045e-09
-6.17855e-08
-1.51661e-14
-7.73738e-10
-5.02458e-08
-6.55406e-15
-5.89719e-11
-9.74114e-09
-1.31263e-15
-1.49072e-11
-6.16206e-10
-7.54441e-17
-3.76591e-12
-9.08163e-11
-9.63348e-18
-6.04842e-13
-1.77738e-11
-1.62165e-18
-6.28406e-14
-2.42788e-12
-1.71248e-19
-4.11142e-15
-2.29174e-13
-1.35428e-20
-1.24889e-16
-1.45403e-14
-6.96007e-22
-5.3473e-21
-5.20095e-16
-2.25704e-23
-4.54346e-27
-2.92812e-20
-9.40489e-28
-9.55921e-35
-2.00888e-26
-7.21096e-34
-6.72749e-44
-4.28327e-34
-1.29065e-41
-1.40902e-51
-2.87859e-43
-8.24705e-51
-8.64609e-58
-5.711e-51
-1.51588e-58
-6.403e-65
-3.41124e-57
-8.48218e-65
-1.83183e-72
-2.42359e-64
-5.56264e-72
-7.44679e-75
-6.53466e-72
-1.48998e-79
-1.98014e-77
-2.53781e-74
-5.44612e-82
-4.67825e-80
-6.46672e-77
-1.3353e-84
-8.84613e-83
-1.42958e-79
-2.87368e-87
-8.08494e-86
-2.60993e-82
-4.91232e-90
-3.12675e-89
-2.23211e-85
-3.79945e-93
-2.59261e-92
-8.14202e-89
-1.6674e-96
-2.65428e-97
-7.00181e-92
-1.22051e-99
-5.90712e-103
-5.56662e-97
-1.16008e-104
-2.71676e-108
-1.24091e-102
-2.3994e-110
-4.83098e-116
-6.50628e-108
-1.02936e-115
-3.66973e-125
-7.77386e-116
-1.66517e-123
-2.23893e-127
-5.71145e-125
-9.5128e-133
-6.01331e-128
-1.60714e-127
-1.1079e-133
-5.14646e-128
-3.18851e-128
-8.41811e-134
-6.0096e-128
-8.84701e-129
-1.69963e-134
-1.9716e-129
-2.66325e-135
-4.08273e-12
-7.53125e-09
6.25558e-15
3.3318e-11
-2.32088e-08
1.40783e-15
2.58406e-10
-4.37081e-08
6.38801e-15
3.41249e-10
-7.30979e-08
-2.36678e-14
-8.3471e-11
-8.56738e-08
-3.39948e-14
-4.95284e-10
-9.04424e-08
-5.27006e-15
5.90835e-10
-8.25144e-08
-1.19145e-14
-1.27988e-09
-5.9991e-08
-1.01184e-14
-9.03428e-10
-5.26803e-08
-6.92836e-15
-6.47172e-11
-1.19504e-08
-1.52839e-15
-1.40305e-11
-7.18029e-10
-8.04619e-17
-3.52338e-12
-8.90682e-11
-8.88598e-18
-5.79272e-13
-1.68139e-11
-1.47221e-18
-6.13801e-14
-2.33943e-12
-1.56997e-19
-4.09752e-15
-2.24057e-13
-1.26821e-20
-1.34798e-16
-1.44651e-14
-6.59468e-22
-7.64532e-21
-5.4168e-16
-2.29228e-23
-4.67033e-27
-4.16901e-20
-1.32616e-27
-1.1558e-34
-2.05433e-26
-7.5452e-34
-8.35189e-44
-5.16335e-34
-1.58892e-41
-1.75772e-51
-3.559e-43
-1.03173e-50
-1.14795e-57
-7.09031e-51
-1.89414e-58
-8.83767e-65
-4.49668e-57
-1.12106e-64
-2.49045e-72
-3.33438e-64
-7.62243e-72
-1.03523e-74
-8.82095e-72
-2.00346e-79
-2.86235e-77
-3.49636e-74
-7.48441e-82
-6.65283e-80
-9.27648e-77
-1.90751e-84
-1.33947e-82
-2.01441e-79
-4.04524e-87
-1.23824e-85
-3.90163e-82
-7.38532e-90
-4.9628e-89
-3.38627e-85
-5.79635e-93
-5.25686e-92
-1.27745e-88
-2.61805e-96
-4.23988e-97
-1.36059e-91
-2.45e-99
-1.1336e-102
-9.33793e-97
-1.83632e-104
-7.92754e-108
-2.37875e-102
-4.5634e-110
-9.56622e-116
-1.66784e-107
-2.98287e-115
-1.01284e-124
-1.53962e-115
-3.26335e-123
-1.62517e-127
-1.41306e-124
-3.18963e-132
-1.03138e-127
-9.16915e-128
-3.13515e-134
-3.95642e-128
-5.58672e-128
-3.24615e-134
-2.52546e-128
-8.35739e-129
-1.09075e-134
-4.5323e-130
-1.67768e-135
-2.70965e-12
-7.52855e-09
3.03428e-15
3.43141e-11
-2.32458e-08
-3.0902e-16
3.94495e-10
-4.40683e-08
-5.88326e-15
4.92005e-10
-7.31954e-08
-1.15037e-14
-4.79642e-10
-8.47021e-08
-1.89652e-14
-1.22462e-09
-8.96974e-08
-4.2289e-15
-4.2686e-10
-8.33125e-08
1.10377e-14
-1.08351e-09
-5.93786e-08
-1.03713e-14
-1.04665e-09
-5.4718e-08
-6.52651e-15
-7.50203e-11
-1.46941e-08
-1.6537e-15
-1.31986e-11
-8.72619e-10
-8.82087e-17
-3.27852e-12
-8.80135e-11
-8.25138e-18
-5.50834e-13
-1.58793e-11
-1.29452e-18
-5.95952e-14
-2.24207e-12
-1.39572e-19
-4.06639e-15
-2.18356e-13
-1.13882e-20
-1.42956e-16
-1.43445e-14
-6.19212e-22
-1.0802e-20
-5.59049e-16
-2.25504e-23
-4.76912e-27
-5.86291e-20
-1.79133e-27
-1.39908e-34
-2.08975e-26
-7.16954e-34
-1.03859e-43