/*--------------------------------*- C++ -*----------------------------------*\
| =========                 |                                                 |
| \\      /  F ield         | OpenFOAM: The Open Source CFD Toolbox           |
|  \\    /   O peration     | Version:  v2012                                 |
|   \\  /    A nd           | Website:  www.openfoam.com                      |
|    \\/     M anipulation  |                                                 |
\*---------------------------------------------------------------------------*/
FoamFile
{
    version     2.0;
    format      ascii;
    class       volScalarField;
    location    "0.45";
    object      p;
}
// * * * * * * * * * * * * * * * * * * * * * * * * * * * * * * * * * * * * * //

dimensions      [1 -1 -2 0 0 0 0];


internalField   nonuniform List<scalar> 
20000
(
3.50518e+06
3.50333e+06
3.50573e+06
3.50399e+06
3.50474e+06
3.50165e+06
3.50212e+06
3.50124e+06
3.49899e+06
3.49444e+06
3.49618e+06
3.49544e+06
3.49786e+06
3.49935e+06
3.50014e+06
3.50014e+06
3.50046e+06
3.50062e+06
3.5008e+06
3.50092e+06
3.50102e+06
3.50108e+06
3.50112e+06
3.50113e+06
3.50112e+06
3.50109e+06
3.50105e+06
3.50099e+06
3.50092e+06
3.50083e+06
3.50074e+06
3.50065e+06
3.50054e+06
3.50043e+06
3.50032e+06
3.5002e+06
3.50007e+06
3.49993e+06
3.49976e+06
3.49957e+06
3.49905e+06
3.49902e+06
3.49982e+06
3.49988e+06
3.4999e+06
3.49991e+06
3.49991e+06
3.49991e+06
3.49991e+06
3.49991e+06
3.49991e+06
3.49991e+06
3.49991e+06
3.49991e+06
3.49991e+06
3.49991e+06
3.4999e+06
3.4999e+06
3.49989e+06
3.49989e+06
3.50042e+06
3.49657e+06
3.50006e+06
3.49764e+06
3.50032e+06
3.50072e+06
3.50284e+06
3.5026e+06
3.5034e+06
3.49837e+06
3.50063e+06
3.49753e+06
3.50474e+06
3.50454e+06
3.50514e+06
3.50282e+06
3.50216e+06
3.50136e+06
3.50102e+06
3.50072e+06
3.50057e+06
3.50046e+06
3.5004e+06
3.50037e+06
3.50035e+06
3.50034e+06
3.50033e+06
3.50032e+06
3.50031e+06
3.50028e+06
3.50025e+06
3.50021e+06
3.50016e+06
3.50009e+06
3.50002e+06
3.49993e+06
3.49982e+06
3.4997e+06
3.49954e+06
3.49938e+06
3.49893e+06
3.49909e+06
3.4996e+06
3.49966e+06
3.49969e+06
3.4997e+06
3.49971e+06
3.49971e+06
3.49971e+06
3.49971e+06
3.49971e+06
3.49971e+06
3.49971e+06
3.49971e+06
3.49971e+06
3.4997e+06
3.4997e+06
3.49969e+06
3.49968e+06
3.49967e+06
3.50441e+06
3.49983e+06
3.50388e+06
3.50062e+06
3.50296e+06
3.50127e+06
3.50292e+06
3.50232e+06
3.50239e+06
3.4956e+06
3.49807e+06
3.49459e+06
3.50424e+06
3.50269e+06
3.50474e+06
3.5026e+06
3.50248e+06
3.50176e+06
3.50153e+06
3.50122e+06
3.50103e+06
3.50086e+06
3.50073e+06
3.50062e+06
3.50052e+06
3.50043e+06
3.50035e+06
3.50028e+06
3.50021e+06
3.50014e+06
3.50007e+06
3.5e+06
3.49993e+06
3.49985e+06
3.49977e+06
3.49969e+06
3.49959e+06
3.49949e+06
3.49936e+06
3.49925e+06
3.49899e+06
3.49907e+06
3.49937e+06
3.49942e+06
3.49946e+06
3.49948e+06
3.49949e+06
3.4995e+06
3.4995e+06
3.4995e+06
3.4995e+06
3.4995e+06
3.4995e+06
3.4995e+06
3.4995e+06
3.49949e+06
3.49948e+06
3.49947e+06
3.49946e+06
3.49944e+06
3.50219e+06
3.4973e+06
3.50171e+06
3.49861e+06
3.50123e+06
3.50008e+06
3.50184e+06
3.50174e+06
3.50297e+06
3.49706e+06
3.50092e+06
3.49588e+06
3.50668e+06
3.50515e+06
3.50703e+06
3.50404e+06
3.50356e+06
3.5024e+06
3.50193e+06
3.50141e+06
3.5011e+06
3.50084e+06
3.50065e+06
3.5005e+06
3.50038e+06
3.50027e+06
3.50018e+06
3.5001e+06
3.50002e+06
3.49994e+06
3.49987e+06
3.49979e+06
3.49972e+06
3.49964e+06
3.49956e+06
3.49947e+06
3.49938e+06
3.49928e+06
3.49916e+06
3.49907e+06
3.49891e+06
3.49895e+06
3.49915e+06
3.4992e+06
3.49924e+06
3.49926e+06
3.49928e+06
3.49928e+06
3.49929e+06
3.49929e+06
3.4993e+06
3.4993e+06
3.49929e+06
3.49929e+06
3.49928e+06
3.49928e+06
3.49927e+06
3.49925e+06
3.49924e+06
3.49922e+06
3.50187e+06
3.4975e+06
3.50145e+06
3.49835e+06
3.50057e+06
3.49918e+06
3.50055e+06
3.50037e+06
3.50162e+06
3.49608e+06
3.50001e+06
3.49501e+06
3.50711e+06
3.50511e+06
3.50727e+06
3.50419e+06
3.50388e+06
3.50267e+06
3.5022e+06
3.50163e+06
3.50127e+06
3.50095e+06
3.5007e+06
3.5005e+06
3.50033e+06
3.50018e+06
3.50006e+06
3.49995e+06
3.49985e+06
3.49976e+06
3.49967e+06
3.49959e+06
3.49951e+06
3.49942e+06
3.49934e+06
3.49926e+06
3.49917e+06
3.49907e+06
3.49897e+06
3.49889e+06
3.49878e+06
3.4988e+06
3.49894e+06
3.49898e+06
3.49903e+06
3.49905e+06
3.49906e+06
3.49907e+06
3.49908e+06
3.49908e+06
3.49909e+06
3.49909e+06
3.49908e+06
3.49908e+06
3.49907e+06
3.49906e+06
3.49905e+06
3.49903e+06
3.49902e+06
3.49899e+06
3.49985e+06
3.49608e+06
3.4995e+06
3.49689e+06
3.49886e+06
3.49776e+06
3.49899e+06
3.49911e+06
3.50087e+06
3.49648e+06
3.50057e+06
3.4957e+06
3.50859e+06
3.5065e+06
3.50839e+06
3.50497e+06
3.50449e+06
3.50307e+06
3.50248e+06
3.50179e+06
3.50136e+06
3.50097e+06
3.50068e+06
3.50044e+06
3.50024e+06
3.50007e+06
3.49992e+06
3.49979e+06
3.49968e+06
3.49957e+06
3.49948e+06
3.49938e+06
3.4993e+06
3.49921e+06
3.49913e+06
3.49904e+06
3.49896e+06
3.49887e+06
3.49878e+06
3.49871e+06
3.49863e+06
3.49864e+06
3.49874e+06
3.49877e+06
3.49881e+06
3.49884e+06
3.49885e+06
3.49886e+06
3.49887e+06
3.49888e+06
3.49888e+06
3.49888e+06
3.49888e+06
3.49887e+06
3.49886e+06
3.49885e+06
3.49884e+06
3.49882e+06
3.4988e+06
3.49877e+06
3.49798e+06
3.49535e+06
3.49775e+06
3.4958e+06
3.49725e+06
3.49639e+06
3.49736e+06
3.4976e+06
3.49945e+06
3.49598e+06
3.49976e+06
3.49567e+06
3.50902e+06
3.50695e+06
3.50863e+06
3.50521e+06
3.50472e+06
3.50326e+06
3.50264e+06
3.5019e+06
3.50142e+06
3.50099e+06
3.50066e+06
3.50038e+06
3.50015e+06
3.49995e+06
3.49978e+06
3.49963e+06
3.4995e+06
3.49939e+06
3.49928e+06
3.49918e+06
3.49909e+06
3.499e+06
3.49891e+06
3.49883e+06
3.49875e+06
3.49867e+06
3.49859e+06
3.49853e+06
3.49847e+06
3.49847e+06
3.49854e+06
3.49857e+06
3.4986e+06
3.49862e+06
3.49864e+06
3.49865e+06
3.49866e+06
3.49867e+06
3.49867e+06
3.49867e+06
3.49867e+06
3.49866e+06
3.49865e+06
3.49864e+06
3.49862e+06
3.4986e+06
3.49858e+06
3.49855e+06
3.49552e+06
3.49413e+06
3.49544e+06
3.49443e+06
3.49535e+06
3.49485e+06
3.49569e+06
3.49614e+06
3.49822e+06
3.49594e+06
3.49927e+06
3.49636e+06
3.50978e+06
3.50786e+06
3.50907e+06
3.50562e+06
3.505e+06
3.50347e+06
3.50277e+06
3.50198e+06
3.50145e+06
3.50098e+06
3.50061e+06
3.5003e+06
3.50004e+06
3.49982e+06
3.49964e+06
3.49947e+06
3.49933e+06
3.4992e+06
3.49908e+06
3.49898e+06
3.49888e+06
3.49879e+06
3.4987e+06
3.49862e+06
3.49854e+06
3.49847e+06
3.49839e+06
3.49834e+06
3.49829e+06
3.49829e+06
3.49834e+06
3.49836e+06
3.49839e+06
3.49841e+06
3.49843e+06
3.49844e+06
3.49845e+06
3.49846e+06
3.49846e+06
3.49846e+06
3.49846e+06
3.49845e+06
3.49844e+06
3.49843e+06
3.49841e+06
3.49838e+06
3.49836e+06
3.49832e+06
3.49296e+06
3.49298e+06
3.49307e+06
3.49298e+06
3.49343e+06
3.49322e+06
3.49399e+06
3.49451e+06
3.49672e+06
3.49557e+06
3.49824e+06
3.49695e+06
3.51003e+06
3.50838e+06
3.50907e+06
3.50579e+06
3.50508e+06
3.50356e+06
3.50282e+06
3.502e+06
3.50144e+06
3.50094e+06
3.50055e+06
3.50021e+06
3.49993e+06
3.49969e+06
3.49948e+06
3.4993e+06
3.49915e+06
3.49901e+06
3.49888e+06
3.49877e+06
3.49867e+06
3.49858e+06
3.49849e+06
3.49841e+06
3.49833e+06
3.49826e+06
3.4982e+06
3.49815e+06
3.49811e+06
3.49811e+06
3.49814e+06
3.49816e+06
3.49819e+06
3.49821e+06
3.49822e+06
3.49824e+06
3.49825e+06
3.49825e+06
3.49826e+06
3.49826e+06
3.49825e+06
3.49824e+06
3.49823e+06
3.49822e+06
3.4982e+06
3.49817e+06
3.49814e+06
3.4981e+06
3.4904e+06
3.4913e+06
3.49057e+06
3.4912e+06
3.49145e+06
3.49136e+06
3.49224e+06
3.49274e+06
3.49518e+06
3.49531e+06
3.49727e+06
3.49796e+06
3.51029e+06
3.50896e+06
3.50903e+06
3.50597e+06
3.50512e+06
3.50361e+06
3.50283e+06
3.50199e+06
3.5014e+06
3.50088e+06
3.50046e+06
3.5001e+06
3.4998e+06
3.49955e+06
3.49932e+06
3.49913e+06
3.49896e+06
3.49882e+06
3.49868e+06
3.49857e+06
3.49846e+06
3.49836e+06
3.49827e+06
3.49819e+06
3.49812e+06
3.49806e+06
3.498e+06
3.49796e+06
3.49792e+06
3.49792e+06
3.49794e+06
3.49795e+06
3.49798e+06
3.498e+06
3.49801e+06
3.49803e+06
3.49804e+06
3.49804e+06
3.49805e+06
3.49805e+06
3.49804e+06
3.49804e+06
3.49802e+06
3.49801e+06
3.49798e+06
3.49795e+06
3.49792e+06
3.49788e+06
3.48812e+06
3.48901e+06
3.48825e+06
3.48902e+06
3.48949e+06
3.48921e+06
3.49043e+06
3.49076e+06
3.49346e+06
3.49482e+06
3.49608e+06
3.49904e+06
3.51027e+06
3.50931e+06
3.50876e+06
3.506e+06
3.50504e+06
3.50359e+06
3.50277e+06
3.50193e+06
3.50133e+06
3.50079e+06
3.50035e+06
3.49998e+06
3.49967e+06
3.49939e+06
3.49916e+06
3.49896e+06
3.49878e+06
3.49862e+06
3.49848e+06
3.49836e+06
3.49825e+06
3.49815e+06
3.49806e+06
3.49798e+06
3.49791e+06
3.49785e+06
3.4978e+06
3.49776e+06
3.49773e+06
3.49772e+06
3.49774e+06
3.49775e+06
3.49777e+06
3.49779e+06
3.49781e+06
3.49782e+06
3.49783e+06
3.49784e+06
3.49784e+06
3.49784e+06
3.49784e+06
3.49783e+06
3.49781e+06
3.49779e+06
3.49777e+06
3.49774e+06
3.4977e+06
3.49765e+06
3.48632e+06
3.48577e+06
3.48617e+06
3.48625e+06
3.48757e+06
3.48679e+06
3.48855e+06
3.48862e+06
3.49159e+06
3.49423e+06
3.49483e+06
3.50033e+06
3.51018e+06
3.50955e+06
3.50841e+06
3.50599e+06
3.5049e+06
3.50353e+06
3.50268e+06
3.50185e+06
3.50123e+06
3.50068e+06
3.50023e+06
3.49985e+06
3.49952e+06
3.49923e+06
3.49899e+06
3.49877e+06
3.49859e+06
3.49842e+06
3.49828e+06
3.49815e+06
3.49804e+06
3.49794e+06
3.49785e+06
3.49777e+06
3.4977e+06
3.49764e+06
3.49759e+06
3.49756e+06
3.49753e+06
3.49752e+06
3.49753e+06
3.49755e+06
3.49757e+06
3.49758e+06
3.4976e+06
3.49761e+06
3.49762e+06
3.49763e+06
3.49764e+06
3.49764e+06
3.49763e+06
3.49762e+06
3.49761e+06
3.49758e+06
3.49756e+06
3.49752e+06
3.49748e+06
3.49743e+06
3.48512e+06
3.48177e+06
3.48455e+06
3.48306e+06
3.48566e+06
3.48417e+06
3.48652e+06
3.48629e+06
3.48948e+06
3.49342e+06
3.49334e+06
3.50154e+06
3.50996e+06
3.50958e+06
3.50795e+06
3.50589e+06
3.50469e+06
3.50341e+06
3.50254e+06
3.50173e+06
3.5011e+06
3.50055e+06
3.50009e+06
3.4997e+06
3.49936e+06
3.49907e+06
3.49881e+06
3.49859e+06
3.49839e+06
3.49822e+06
3.49807e+06
3.49794e+06
3.49782e+06
3.49772e+06
3.49763e+06
3.49755e+06
3.49749e+06
3.49743e+06
3.49738e+06
3.49735e+06
3.49733e+06
3.49732e+06
3.49733e+06
3.49734e+06
3.49736e+06
3.49738e+06
3.49739e+06
3.49741e+06
3.49742e+06
3.49743e+06
3.49743e+06
3.49743e+06
3.49743e+06
3.49742e+06
3.4974e+06
3.49738e+06
3.49735e+06
3.49731e+06
3.49727e+06
3.49721e+06
3.48457e+06
3.47737e+06
3.48336e+06
3.47973e+06
3.48374e+06
3.48144e+06
3.48432e+06
3.48382e+06
3.48712e+06
3.49233e+06
3.49179e+06
3.50263e+06
3.50961e+06
3.50947e+06
3.50746e+06
3.50572e+06
3.50444e+06
3.50327e+06
3.50237e+06
3.50159e+06
3.50096e+06
3.50041e+06
3.49994e+06
3.49954e+06
3.49919e+06
3.49889e+06
3.49863e+06
3.49839e+06
3.49819e+06
3.49801e+06
3.49786e+06
3.49772e+06
3.4976e+06
3.4975e+06
3.49741e+06
3.49734e+06
3.49727e+06
3.49722e+06
3.49718e+06
3.49714e+06
3.49713e+06
3.49712e+06
3.49713e+06
3.49714e+06
3.49715e+06
3.49717e+06
3.49719e+06
3.4972e+06
3.49721e+06
3.49722e+06
3.49723e+06
3.49723e+06
3.49722e+06
3.49721e+06
3.49719e+06
3.49717e+06
3.49714e+06
3.49709e+06
3.49705e+06
3.49699e+06
3.48435e+06
3.4731e+06
3.48251e+06
3.47649e+06
3.48178e+06
3.4787e+06
3.48189e+06
3.48119e+06
3.48448e+06
3.49082e+06
3.49024e+06
3.50351e+06
3.50908e+06
3.50921e+06
3.50692e+06
3.5055e+06
3.50415e+06
3.50309e+06
3.50219e+06
3.50143e+06
3.5008e+06
3.50025e+06
3.49978e+06
3.49938e+06
3.49902e+06
3.49871e+06
3.49844e+06
3.4982e+06
3.49799e+06
3.4978e+06
3.49764e+06
3.4975e+06
3.49738e+06
3.49728e+06
3.49719e+06
3.49712e+06
3.49705e+06
3.497e+06
3.49696e+06
3.49694e+06
3.49692e+06
3.49691e+06
3.49692e+06
3.49693e+06
3.49695e+06
3.49697e+06
3.49698e+06
3.497e+06
3.49701e+06
3.49702e+06
3.49702e+06
3.49702e+06
3.49702e+06
3.497e+06
3.49699e+06
3.49696e+06
3.49693e+06
3.49688e+06
3.49683e+06
3.49677e+06
3.48404e+06
3.46934e+06
3.48169e+06
3.47355e+06
3.47967e+06
3.476e+06
3.47915e+06
3.47838e+06
3.48155e+06
3.4889e+06
3.48873e+06
3.50412e+06
3.50843e+06
3.50885e+06
3.50639e+06
3.50525e+06
3.50386e+06
3.50289e+06
3.50199e+06
3.50127e+06
3.50063e+06
3.50009e+06
3.49962e+06
3.4992e+06
3.49884e+06
3.49852e+06
3.49824e+06
3.49799e+06
3.49778e+06
3.49759e+06
3.49743e+06
3.49728e+06
3.49716e+06
3.49706e+06
3.49697e+06
3.4969e+06
3.49684e+06
3.49679e+06
3.49675e+06
3.49673e+06
3.49671e+06
3.49671e+06
3.49671e+06
3.49673e+06
3.49674e+06
3.49676e+06
3.49678e+06
3.49679e+06
3.49681e+06
3.49681e+06
3.49682e+06
3.49682e+06
3.49681e+06
3.4968e+06
3.49678e+06
3.49675e+06
3.49672e+06
3.49667e+06
3.49662e+06
3.49655e+06
3.48305e+06
3.46656e+06
3.48056e+06
3.47103e+06
3.47737e+06
3.47336e+06
3.47608e+06
3.47539e+06
3.47835e+06
3.48658e+06
3.48727e+06
3.50443e+06
3.50768e+06
3.50841e+06
3.50587e+06
3.50498e+06
3.50358e+06
3.5027e+06
3.5018e+06
3.5011e+06
3.50047e+06
3.49993e+06
3.49945e+06
3.49903e+06
3.49866e+06
3.49833e+06
3.49804e+06
3.49779e+06
3.49757e+06
3.49737e+06
3.4972e+06
3.49706e+06
3.49694e+06
3.49683e+06
3.49674e+06
3.49667e+06
3.49661e+06
3.49657e+06
3.49654e+06
3.49651e+06
3.4965e+06
3.4965e+06
3.49651e+06
3.49652e+06
3.49654e+06
3.49655e+06
3.49657e+06
3.49659e+06
3.4966e+06
3.49661e+06
3.49662e+06
3.49662e+06
3.49661e+06
3.4966e+06
3.49657e+06
3.49655e+06
3.49651e+06
3.49646e+06
3.4964e+06
3.49633e+06
3.48113e+06
3.46474e+06
3.47881e+06
3.46896e+06
3.47487e+06
3.47083e+06
3.47268e+06
3.47227e+06
3.47496e+06
3.48394e+06
3.48591e+06
3.50445e+06
3.5069e+06
3.50794e+06
3.5054e+06
3.50471e+06
3.50332e+06
3.50251e+06
3.50162e+06
3.50094e+06
3.5003e+06
3.49976e+06
3.49927e+06
3.49885e+06
3.49847e+06
3.49813e+06
3.49784e+06
3.49758e+06
3.49735e+06
3.49715e+06
3.49698e+06
3.49683e+06
3.49671e+06
3.4966e+06
3.49652e+06
3.49645e+06
3.49639e+06
3.49635e+06
3.49632e+06
3.4963e+06
3.49629e+06
3.49629e+06
3.4963e+06
3.49631e+06
3.49633e+06
3.49635e+06
3.49637e+06
3.49639e+06
3.4964e+06
3.49641e+06
3.49641e+06
3.49641e+06
3.49641e+06
3.49639e+06
3.49637e+06
3.49634e+06
3.4963e+06
3.49625e+06
3.49619e+06
3.49611e+06
3.4782e+06
3.46405e+06
3.47644e+06
3.46733e+06
3.47225e+06
3.46851e+06
3.46904e+06
3.46914e+06
3.47155e+06
3.48115e+06
3.48467e+06
3.50427e+06
3.50616e+06
3.5075e+06
3.505e+06
3.50449e+06
3.5031e+06
3.50235e+06
3.50146e+06
3.50079e+06
3.50015e+06
3.4996e+06
3.4991e+06
3.49867e+06
3.49828e+06
3.49793e+06
3.49763e+06
3.49736e+06
3.49712e+06
3.49692e+06
3.49675e+06
3.4966e+06
3.49648e+06
3.49637e+06
3.49629e+06
3.49622e+06
3.49617e+06
3.49613e+06
3.4961e+06
3.49608e+06
3.49608e+06
3.49608e+06
3.49609e+06
3.49611e+06
3.49612e+06
3.49614e+06
3.49616e+06
3.49618e+06
3.4962e+06
3.49621e+06
3.49621e+06
3.49621e+06
3.49621e+06
3.49619e+06
3.49617e+06
3.49613e+06
3.49609e+06
3.49604e+06
3.49598e+06
3.49589e+06
3.47438e+06
3.4643e+06
3.47343e+06
3.46617e+06
3.46965e+06
3.46656e+06
3.46538e+06
3.46629e+06
3.46838e+06
3.47846e+06
3.48365e+06
3.50401e+06
3.50556e+06
3.50716e+06
3.50473e+06
3.50433e+06
3.50295e+06
3.50224e+06
3.50134e+06
3.50067e+06
3.50001e+06
3.49945e+06
3.49894e+06
3.49848e+06
3.49808e+06
3.49773e+06
3.49741e+06
3.49714e+06
3.4969e+06
3.49669e+06
3.49651e+06
3.49636e+06
3.49624e+06
3.49614e+06
3.49605e+06
3.49599e+06
3.49594e+06
3.4959e+06
3.49588e+06
3.49587e+06
3.49586e+06
3.49587e+06
3.49588e+06
3.4959e+06
3.49592e+06
3.49594e+06
3.49596e+06
3.49598e+06
3.496e+06
3.49601e+06
3.49601e+06
3.49601e+06
3.49601e+06
3.49599e+06
3.49597e+06
3.49593e+06
3.49589e+06
3.49583e+06
3.49577e+06
3.49567e+06
3.46965e+06
3.46599e+06
3.47001e+06
3.46593e+06
3.46715e+06
3.46517e+06
3.46196e+06
3.46399e+06
3.46569e+06
3.47614e+06
3.48295e+06
3.50382e+06
3.50519e+06
3.50696e+06
3.50461e+06
3.50427e+06
3.50289e+06
3.50218e+06
3.50125e+06
3.50057e+06
3.49988e+06
3.4993e+06
3.49877e+06
3.4983e+06
3.49788e+06
3.49752e+06
3.49719e+06
3.49691e+06
3.49666e+06
3.49645e+06
3.49627e+06
3.49612e+06
3.496e+06
3.4959e+06
3.49582e+06
3.49576e+06
3.49571e+06
3.49568e+06
3.49566e+06
3.49565e+06
3.49565e+06
3.49566e+06
3.49567e+06
3.49569e+06
3.49571e+06
3.49574e+06
3.49576e+06
3.49578e+06
3.4958e+06
3.49581e+06
3.49581e+06
3.49581e+06
3.49581e+06
3.49579e+06
3.49576e+06
3.49573e+06
3.49568e+06
3.49562e+06
3.49555e+06
3.49546e+06
3.46467e+06
3.46913e+06
3.46624e+06
3.46681e+06
3.46488e+06
3.46455e+06
3.4592e+06
3.46259e+06
3.46389e+06
3.47449e+06
3.48274e+06
3.50387e+06
3.50514e+06
3.50698e+06
3.50467e+06
3.50433e+06
3.50292e+06
3.50218e+06
3.50122e+06
3.5005e+06
3.49978e+06
3.49917e+06
3.49861e+06
3.49812e+06
3.49768e+06
3.4973e+06
3.49696e+06
3.49667e+06
3.49642e+06
3.49621e+06
3.49603e+06
3.49588e+06
3.49575e+06
3.49566e+06
3.49558e+06
3.49552e+06
3.49548e+06
3.49545e+06
3.49543e+06
3.49543e+06
3.49543e+06
3.49544e+06
3.49546e+06
3.49548e+06
3.49551e+06
3.49553e+06
3.49556e+06
3.49558e+06
3.4956e+06
3.49561e+06
3.49562e+06
3.49562e+06
3.49561e+06
3.49559e+06
3.49556e+06
3.49553e+06
3.49548e+06
3.49541e+06
3.49534e+06
3.49524e+06
3.45946e+06
3.47398e+06
3.46232e+06
3.46914e+06
3.46308e+06
3.46492e+06
3.45751e+06
3.46212e+06
3.46313e+06
3.47374e+06
3.48316e+06
3.50431e+06
3.5055e+06
3.50727e+06
3.50496e+06
3.50454e+06
3.50307e+06
3.50226e+06
3.50124e+06
3.50046e+06
3.4997e+06
3.49905e+06
3.49846e+06
3.49794e+06
3.49748e+06
3.49708e+06
3.49673e+06
3.49643e+06
3.49617e+06
3.49596e+06
3.49578e+06
3.49563e+06
3.49551e+06
3.49541e+06
3.49534e+06
3.49528e+06
3.49524e+06
3.49522e+06
3.49521e+06
3.49521e+06
3.49522e+06
3.49523e+06
3.49525e+06
3.49528e+06
3.4953e+06
3.49533e+06
3.49536e+06
3.49538e+06
3.4954e+06
3.49541e+06
3.49542e+06
3.49542e+06
3.49541e+06
3.49539e+06
3.49536e+06
3.49532e+06
3.49528e+06
3.49521e+06
3.49514e+06
3.49503e+06
3.45567e+06
3.47927e+06
3.4596e+06
3.47213e+06
3.46228e+06
3.46609e+06
3.45731e+06
3.46261e+06
3.46379e+06
3.47407e+06
3.48439e+06
3.50526e+06
3.50635e+06
3.50787e+06
3.50549e+06
3.50491e+06
3.50334e+06
3.50242e+06
3.50132e+06
3.50046e+06
3.49964e+06
3.49894e+06
3.4983e+06
3.49775e+06
3.49727e+06
3.49685e+06
3.49649e+06
3.49618e+06
3.49592e+06
3.4957e+06
3.49552e+06
3.49537e+06
3.49525e+06
3.49516e+06
3.49509e+06
3.49504e+06
3.49501e+06
3.49499e+06
3.49498e+06
3.49499e+06
3.495e+06
3.49502e+06
3.49504e+06
3.49507e+06
3.4951e+06
3.49513e+06
3.49515e+06
3.49518e+06
3.4952e+06
3.49521e+06
3.49522e+06
3.49522e+06
3.49521e+06
3.4952e+06
3.49517e+06
3.49513e+06
3.49507e+06
3.495e+06
3.49493e+06
3.49482e+06
3.45496e+06
3.48392e+06
3.45961e+06
3.47542e+06
3.46315e+06
3.46833e+06
3.4588e+06
3.46444e+06
3.46605e+06
3.47574e+06
3.48658e+06
3.50683e+06
3.50772e+06
3.50882e+06
3.50629e+06
3.50545e+06
3.50374e+06
3.50266e+06
3.50144e+06
3.50049e+06
3.49959e+06
3.49883e+06
3.49815e+06
3.49756e+06
3.49705e+06
3.49661e+06
3.49624e+06
3.49592e+06
3.49565e+06
3.49543e+06
3.49525e+06
3.49511e+06
3.49499e+06
3.4949e+06
3.49484e+06
3.49479e+06
3.49477e+06
3.49475e+06
3.49475e+06
3.49476e+06
3.49478e+06
3.4948e+06
3.49483e+06
3.49486e+06
3.49489e+06
3.49492e+06
3.49495e+06
3.49498e+06
3.495e+06
3.49502e+06
3.49503e+06
3.49503e+06
3.49502e+06
3.495e+06
3.49497e+06
3.49493e+06
3.49487e+06
3.4948e+06
3.49472e+06
3.4946e+06
3.45788e+06
3.48821e+06
3.46259e+06
3.47943e+06
3.4661e+06
3.47197e+06
3.46263e+06
3.46782e+06
3.47016e+06
3.47893e+06
3.48986e+06
3.50909e+06
3.50967e+06
3.51014e+06
3.50735e+06
3.50616e+06
3.50425e+06
3.50297e+06
3.50161e+06
3.50054e+06
3.49955e+06
3.49871e+06
3.49798e+06
3.49736e+06
3.49682e+06
3.49636e+06
3.49597e+06
3.49565e+06
3.49538e+06
3.49516e+06
3.49498e+06
3.49484e+06
3.49473e+06
3.49464e+06
3.49459e+06
3.49455e+06
3.49453e+06
3.49452e+06
3.49452e+06
3.49454e+06
3.49456e+06
3.49459e+06
3.49462e+06
3.49465e+06
3.49469e+06
3.49472e+06
3.49475e+06
3.49478e+06
3.49481e+06
3.49482e+06
3.49483e+06
3.49483e+06
3.49482e+06
3.4948e+06
3.49477e+06
3.49473e+06
3.49467e+06
3.4946e+06
3.49452e+06
3.49439e+06
3.46403e+06
3.49292e+06
3.46844e+06
3.48473e+06
3.47138e+06
3.47758e+06
3.46909e+06
3.47356e+06
3.47619e+06
3.4838e+06
3.49431e+06
3.51209e+06
3.51219e+06
3.51181e+06
3.50866e+06
3.50702e+06
3.50485e+06
3.50333e+06
3.50181e+06
3.50059e+06
3.4995e+06
3.49859e+06
3.4978e+06
3.49714e+06
3.49657e+06
3.49609e+06
3.4957e+06
3.49536e+06
3.49509e+06
3.49487e+06
3.4947e+06
3.49456e+06
3.49446e+06
3.49438e+06
3.49433e+06
3.4943e+06
3.49428e+06
3.49428e+06
3.49429e+06
3.49431e+06
3.49434e+06
3.49437e+06
3.49441e+06
3.49445e+06
3.49449e+06
3.49452e+06
3.49456e+06
3.49459e+06
3.49461e+06
3.49463e+06
3.49464e+06
3.49464e+06
3.49463e+06
3.49461e+06
3.49458e+06
3.49453e+06
3.49448e+06
3.4944e+06
3.49431e+06
3.49419e+06
3.47342e+06
3.49868e+06
3.47711e+06
3.49172e+06
3.47922e+06
3.48555e+06
3.47838e+06
3.48211e+06
3.48437e+06
3.49036e+06
3.49994e+06
3.51583e+06
3.51522e+06
3.51379e+06
3.51017e+06
3.508e+06
3.50552e+06
3.50372e+06
3.50201e+06
3.50064e+06
3.49944e+06
3.49845e+06
3.4976e+06
3.4969e+06
3.4963e+06
3.49581e+06
3.4954e+06
3.49507e+06
3.49479e+06
3.49458e+06
3.49441e+06
3.49428e+06
3.49418e+06
3.49411e+06
3.49407e+06
3.49404e+06
3.49404e+06
3.49404e+06
3.49406e+06
3.49409e+06
3.49412e+06
3.49416e+06
3.4942e+06
3.49424e+06
3.49428e+06
3.49432e+06
3.49436e+06
3.49439e+06
3.49442e+06
3.49444e+06
3.49445e+06
3.49445e+06
3.49444e+06
3.49442e+06
3.49439e+06
3.49434e+06
3.49428e+06
3.4942e+06
3.49411e+06
3.49398e+06
3.4856e+06
3.50592e+06
3.4885e+06
3.50064e+06
3.48973e+06
3.49596e+06
3.49053e+06
3.49374e+06
3.49513e+06
3.49841e+06
3.50674e+06
3.52021e+06
3.51868e+06
3.516e+06
3.51182e+06
3.50903e+06
3.50621e+06
3.50409e+06
3.50218e+06
3.50065e+06
3.49934e+06
3.49827e+06
3.49737e+06
3.49662e+06
3.49601e+06
3.4955e+06
3.49508e+06
3.49475e+06
3.49448e+06
3.49427e+06
3.49411e+06
3.49398e+06
3.4939e+06
3.49384e+06
3.4938e+06
3.49379e+06
3.49379e+06
3.4938e+06
3.49383e+06
3.49386e+06
3.4939e+06
3.49394e+06
3.49399e+06
3.49404e+06
3.49408e+06
3.49412e+06
3.49416e+06
3.4942e+06
3.49422e+06
3.49424e+06
3.49426e+06
3.49426e+06
3.49425e+06
3.49423e+06
3.49419e+06
3.49415e+06
3.49408e+06
3.494e+06
3.49391e+06
3.49377e+06
3.50035e+06
3.5148e+06
3.50216e+06
3.5113e+06
3.50265e+06
3.50833e+06
3.50511e+06
3.5074e+06
3.50791e+06
3.50732e+06
3.51445e+06
3.52491e+06
3.52239e+06
3.51829e+06
3.5135e+06
3.51005e+06
3.50686e+06
3.50442e+06
3.5023e+06
3.50061e+06
3.4992e+06
3.49805e+06
3.49709e+06
3.49632e+06
3.49568e+06
3.49516e+06
3.49475e+06
3.49441e+06
3.49415e+06
3.49395e+06
3.4938e+06
3.49368e+06
3.49361e+06
3.49356e+06
3.49353e+06
3.49353e+06
3.49354e+06
3.49356e+06
3.4936e+06
3.49364e+06
3.49368e+06
3.49373e+06
3.49378e+06
3.49383e+06
3.49388e+06
3.49392e+06
3.49397e+06
3.494e+06
3.49403e+06
3.49405e+06
3.49407e+06
3.49407e+06
3.49406e+06
3.49404e+06
3.494e+06
3.49395e+06
3.49389e+06
3.4938e+06
3.49371e+06
3.49357e+06
3.51649e+06
3.52496e+06
3.51734e+06
3.52305e+06
3.51723e+06
3.52186e+06
3.52112e+06
3.52217e+06
3.52253e+06
3.51656e+06
3.52279e+06
3.52964e+06
3.52614e+06
3.52048e+06
3.51509e+06
3.51094e+06
3.50741e+06
3.50464e+06
3.50233e+06
3.50049e+06
3.49898e+06
3.49776e+06
3.49677e+06
3.49596e+06
3.49532e+06
3.4948e+06
3.49438e+06
3.49406e+06
3.49381e+06
3.49362e+06
3.49348e+06
3.49338e+06
3.49331e+06
3.49328e+06
3.49326e+06
3.49327e+06
3.49329e+06
3.49332e+06
3.49336e+06
3.49341e+06
3.49346e+06
3.49352e+06
3.49357e+06
3.49363e+06
3.49368e+06
3.49373e+06
3.49377e+06
3.49381e+06
3.49384e+06
3.49386e+06
3.49388e+06
3.49388e+06
3.49387e+06
3.49385e+06
3.49381e+06
3.49376e+06
3.4937e+06
3.49361e+06
3.49351e+06
3.49337e+06
3.53313e+06
3.53552e+06
3.53292e+06
3.53497e+06
3.53235e+06
3.53568e+06
3.53748e+06
3.53707e+06
3.53765e+06
3.52548e+06
3.53114e+06
3.53405e+06
3.52963e+06
3.52236e+06
3.51644e+06
3.51162e+06
3.50777e+06
3.5047e+06
3.50223e+06
3.50026e+06
3.49867e+06
3.4974e+06
3.49637e+06
3.49556e+06
3.49491e+06
3.4944e+06
3.49399e+06
3.49368e+06
3.49345e+06
3.49327e+06
3.49315e+06
3.49306e+06
3.49301e+06
3.49299e+06
3.49299e+06
3.49301e+06
3.49304e+06
3.49308e+06
3.49313e+06
3.49318e+06
3.49324e+06
3.4933e+06
3.49336e+06
3.49342e+06
3.49348e+06
3.49353e+06
3.49358e+06
3.49362e+06
3.49365e+06
3.49368e+06
3.49369e+06
3.49369e+06
3.49369e+06
3.49366e+06
3.49363e+06
3.49357e+06
3.49351e+06
3.49341e+06
3.49331e+06
3.49316e+06
3.54885e+06
3.54549e+06
3.54778e+06
3.54618e+06
3.54691e+06
3.549e+06
3.5535e+06
3.55266e+06
3.5533e+06
3.53404e+06
3.5391e+06
3.5379e+06
3.53256e+06
3.52374e+06
3.51739e+06
3.51197e+06
3.50786e+06
3.50455e+06
3.50195e+06
3.49988e+06
3.49824e+06
3.49694e+06
3.49591e+06
3.4951e+06
3.49446e+06
3.49396e+06
3.49358e+06
3.49328e+06
3.49307e+06
3.49291e+06
3.4928e+06
3.49274e+06
3.4927e+06
3.4927e+06
3.49271e+06
3.49274e+06
3.49278e+06
3.49283e+06
3.49289e+06
3.49296e+06
3.49302e+06
3.49309e+06
3.49316e+06
3.49322e+06
3.49328e+06
3.49334e+06
3.49339e+06
3.49343e+06
3.49346e+06
3.49349e+06
3.49351e+06
3.49351e+06
3.4935e+06
3.49348e+06
3.49344e+06
3.49339e+06
3.49332e+06
3.49322e+06
3.49312e+06
3.49297e+06
3.56263e+06
3.5539e+06
3.56065e+06
3.55579e+06
3.55977e+06
3.56063e+06
3.56855e+06
3.56719e+06
3.56691e+06
3.54152e+06
3.54566e+06
3.5408e+06
3.5345e+06
3.52443e+06
3.51776e+06
3.51189e+06
3.50761e+06
3.50413e+06
3.50145e+06
3.49934e+06
3.49768e+06
3.49638e+06
3.49537e+06
3.49457e+06
3.49396e+06
3.49349e+06
3.49313e+06
3.49286e+06
3.49267e+06
3.49254e+06
3.49245e+06
3.49241e+06
3.49239e+06
3.4924e+06
3.49243e+06
3.49247e+06
3.49253e+06
3.49259e+06
3.49266e+06
3.49273e+06
3.4928e+06
3.49288e+06
3.49295e+06
3.49302e+06
3.49308e+06
3.49314e+06
3.49319e+06
3.49324e+06
3.49328e+06
3.4933e+06
3.49332e+06
3.49333e+06
3.49332e+06
3.49329e+06
3.49326e+06
3.4932e+06
3.49313e+06
3.49303e+06
3.49293e+06
3.49277e+06
3.57277e+06
3.55998e+06
3.57015e+06
3.5629e+06
3.56968e+06
3.56938e+06
3.58072e+06
3.57828e+06
3.57703e+06
3.54706e+06
3.5501e+06
3.54235e+06
3.53508e+06
3.52422e+06
3.51738e+06
3.51127e+06
3.50693e+06
3.50339e+06
3.50071e+06
3.4986e+06
3.49698e+06
3.49571e+06
3.49473e+06
3.49398e+06
3.49341e+06
3.49297e+06
3.49265e+06
3.49242e+06
3.49226e+06
3.49215e+06
3.49209e+06
3.49207e+06
3.49208e+06
3.4921e+06
3.49215e+06
3.49221e+06
3.49227e+06
3.49235e+06
3.49242e+06
3.49251e+06
3.49259e+06
3.49267e+06
3.49274e+06
3.49282e+06
3.49289e+06
3.49295e+06
3.49301e+06
3.49305e+06
3.49309e+06
3.49312e+06
3.49314e+06
3.49314e+06
3.49314e+06
3.49311e+06
3.49307e+06
3.49302e+06
3.49294e+06
3.49284e+06
3.49274e+06
3.49257e+06
3.57793e+06
3.5632e+06
3.575e+06
3.56681e+06
3.57542e+06
3.57491e+06
3.58768e+06
3.58637e+06
3.58249e+06
3.55079e+06
3.55196e+06
3.54231e+06
3.53405e+06
3.52299e+06
3.51615e+06
3.51006e+06
3.50578e+06
3.5023e+06
3.49971e+06
3.49767e+06
3.49612e+06
3.49492e+06
3.49401e+06
3.49332e+06
3.4928e+06
3.49242e+06
3.49214e+06
3.49195e+06
3.49183e+06
3.49176e+06
3.49173e+06
3.49173e+06
3.49176e+06
3.4918e+06
3.49186e+06
3.49194e+06
3.49202e+06
3.4921e+06
3.49219e+06
3.49228e+06
3.49237e+06
3.49246e+06
3.49254e+06
3.49262e+06
3.49269e+06
3.49276e+06
3.49282e+06
3.49287e+06
3.49291e+06
3.49294e+06
3.49296e+06
3.49296e+06
3.49296e+06
3.49293e+06
3.49289e+06
3.49283e+06
3.49276e+06
3.49266e+06
3.49255e+06
3.49238e+06
3.57624e+06
3.56282e+06
3.57356e+06
3.56634e+06
3.5747e+06
3.57644e+06
3.58851e+06
3.5883e+06
3.58086e+06
3.5515e+06
3.55035e+06
3.5403e+06
3.53117e+06
3.52064e+06
3.51397e+06
3.50821e+06
3.50413e+06
3.50085e+06
3.49842e+06
3.49653e+06
3.4951e+06
3.49402e+06
3.4932e+06
3.49259e+06
3.49215e+06
3.49183e+06
3.49161e+06
3.49147e+06
3.49138e+06
3.49135e+06
3.49135e+06
3.49138e+06
3.49143e+06
3.4915e+06
3.49158e+06
3.49167e+06
3.49176e+06
3.49186e+06
3.49196e+06
3.49206e+06
3.49215e+06
3.49225e+06
3.49234e+06
3.49242e+06
3.4925e+06
3.49257e+06
3.49263e+06
3.49268e+06
3.49273e+06
3.49276e+06
3.49278e+06
3.49279e+06
3.49278e+06
3.49275e+06
3.49271e+06
3.49265e+06
3.49258e+06
3.49247e+06
3.49236e+06
3.49219e+06
3.56835e+06
3.55954e+06
3.56641e+06
3.56225e+06
3.56768e+06
3.57376e+06
3.5835e+06
3.58435e+06
3.57308e+06
3.54864e+06
3.54535e+06
3.53616e+06
3.52646e+06
3.51714e+06
3.51086e+06
3.50571e+06
3.50197e+06
3.49904e+06
3.49686e+06
3.49519e+06
3.49394e+06
3.493e+06
3.49231e+06
3.49181e+06
3.49145e+06
3.4912e+06
3.49105e+06
3.49096e+06
3.49093e+06
3.49093e+06
3.49097e+06
3.49103e+06
3.49111e+06
3.4912e+06
3.4913e+06
3.4914e+06
3.49151e+06
3.49162e+06
3.49173e+06
3.49184e+06
3.49194e+06
3.49204e+06
3.49214e+06
3.49223e+06
3.49231e+06
3.49238e+06
3.49245e+06
3.4925e+06
3.49255e+06
3.49258e+06
3.4926e+06
3.49261e+06
3.4926e+06
3.49258e+06
3.49254e+06
3.49248e+06
3.4924e+06
3.49229e+06
3.49217e+06
3.492e+06
3.557e+06
3.55497e+06
3.55606e+06
3.5567e+06
3.55752e+06
3.56763e+06
3.57411e+06
3.57617e+06
3.56037e+06
3.54252e+06
3.53729e+06
3.53001e+06
3.52015e+06
3.51259e+06
3.5069e+06
3.50262e+06
3.49936e+06
3.4969e+06
3.49505e+06
3.49366e+06
3.49263e+06
3.49188e+06
3.49134e+06
3.49096e+06
3.49071e+06
3.49055e+06
3.49047e+06
3.49044e+06
3.49046e+06
3.49051e+06
3.49058e+06
3.49067e+06
3.49078e+06
3.49089e+06
3.49101e+06
3.49113e+06
3.49126e+06
3.49138e+06
3.4915e+06
3.49162e+06
3.49173e+06
3.49184e+06
3.49194e+06
3.49203e+06
3.49212e+06
3.4922e+06
3.49226e+06
3.49232e+06
3.49237e+06
3.4924e+06
3.49243e+06
3.49243e+06
3.49243e+06
3.4924e+06
3.49236e+06
3.4923e+06
3.49222e+06
3.49211e+06
3.49199e+06
3.49181e+06
3.54462e+06
3.54928e+06
3.5447e+06
3.55011e+06
3.54686e+06
3.55837e+06
3.56121e+06
3.56357e+06
3.54324e+06
3.53285e+06
3.52647e+06
3.52193e+06
3.5125e+06
3.5071e+06
3.50223e+06
3.49901e+06
3.49635e+06
3.49448e+06
3.49302e+06
3.49198e+06
3.49121e+06
3.49068e+06
3.49031e+06
3.49007e+06
3.48994e+06
3.48988e+06
3.48987e+06
3.48991e+06
3.48999e+06
3.49008e+06
3.4902e+06
3.49032e+06
3.49045e+06
3.49059e+06
3.49073e+06
3.49087e+06
3.49101e+06
3.49114e+06
3.49127e+06
3.4914e+06
3.49152e+06
3.49163e+06
3.49174e+06
3.49184e+06
3.49193e+06
3.49201e+06
3.49208e+06
3.49214e+06
3.49219e+06
3.49223e+06
3.49225e+06
3.49226e+06
3.49225e+06
3.49223e+06
3.49219e+06
3.49212e+06
3.49204e+06
3.49193e+06
3.49181e+06
3.49162e+06
3.5318e+06
3.54146e+06
3.53274e+06
3.54161e+06
3.53573e+06
3.54569e+06
3.54504e+06
3.54656e+06
3.52249e+06
3.5199e+06
3.51347e+06
3.51224e+06
3.50388e+06
3.50087e+06
3.49702e+06
3.49501e+06
3.49305e+06
3.49183e+06
3.49083e+06
3.49018e+06
3.4897e+06
3.48941e+06
3.48923e+06
3.48915e+06
3.48914e+06
3.48919e+06
3.48927e+06
3.48938e+06
3.48951e+06
3.48966e+06
3.48981e+06
3.48997e+06
3.49013e+06
3.49029e+06
3.49045e+06
3.49061e+06
3.49076e+06
3.49091e+06
3.49105e+06
3.49118e+06
3.49131e+06
3.49143e+06
3.49155e+06
3.49165e+06
3.49174e+06
3.49183e+06
3.4919e+06
3.49197e+06
3.49202e+06
3.49206e+06
3.49208e+06
3.49209e+06