/*--------------------------------*- C++ -*----------------------------------*\
| =========                 |                                                 |
| \\      /  F ield         | OpenFOAM: The Open Source CFD Toolbox           |
|  \\    /   O peration     | Version:  v2012                                 |
|   \\  /    A nd           | Website:  www.openfoam.com                      |
|    \\/     M anipulation  |                                                 |
\*---------------------------------------------------------------------------*/
FoamFile
{
    version     2.0;
    format      ascii;
    class       volScalarField;
    location    "0.9";
    object      alpha.water;
}
// * * * * * * * * * * * * * * * * * * * * * * * * * * * * * * * * * * * * * //

dimensions      [0 0 0 0 0 0 0];


internalField   nonuniform List<scalar> 
3338
(
9.96915e-109
1.0181e-107
2.52761e-269
3.02115e-317
1.69436e-317
1.33977e-317
1.03053e-317
8.57317e-318
7.93097e-318
6.52926e-318
6.05347e-318
5.61678e-318
5.21826e-318
4.85311e-318
4.51797e-318
4.7374e-318
4.91247e-318
5.04887e-318
6.87194e-318
9.65732e-318
2.00197e-317
1.27914e-129
0
3.48971e-246
3.02061e-317
1.81507e-317
1.33956e-317
1.13342e-317
8.5721e-318
7.93011e-318
6.52865e-318
6.053e-318
5.61642e-318
5.218e-318
4.85291e-318
4.51784e-318
5.26368e-318
5.40366e-318
5.50782e-318
6.87192e-318
9.65732e-318
2.03975e-317
1.49604e-154
4.72118e-155
1.43798e-244
3.02016e-317
1.8148e-317
1.33936e-317
1.03025e-317
8.57108e-318
7.9293e-318
7.3441e-318
6.05256e-318
5.61609e-318
5.21777e-318
4.85275e-318
5.08245e-318
5.2636e-318
5.40362e-318
5.50781e-318
6.87194e-318
1.08645e-317
2.03975e-317
1.11007e-154
7.99234e-154
2.58033e-243
2.88844e-317
1.81454e-317
1.45077e-317
1.13313e-317
9.52236e-318
7.92855e-318
6.52758e-318
6.05217e-318
5.61581e-318
5.86977e-318
5.45922e-318
5.08237e-318
5.26358e-318
5.40362e-318
5.50784e-318
7.73098e-318
1.08646e-317
2.03976e-317
3.06487e-162
1.92262e-161
2.79775e-242
3.01929e-317
2.05618e-317
1.45058e-317
1.13299e-317
9.52136e-318
7.92784e-318
6.52709e-318
6.05183e-318
6.31752e-318
5.8696e-318
5.45913e-318
5.08234e-318
5.26358e-318
5.40366e-318
6.42588e-318
7.73106e-318
1.08647e-317
2.03976e-317
3.29976e-180
3.09415e-181
2.11406e-241
3.01882e-317
1.93495e-317
1.45039e-317
1.13286e-317
9.5204e-318
7.92717e-318
7.34249e-318
6.80797e-318
6.3173e-318
5.86948e-318
5.45907e-318
5.08235e-318
5.26362e-318
5.89497e-318
6.42598e-318
7.73118e-318
1.08648e-317
2.07755e-317
3.68404e-180
1.71511e-184
1.20728e-240
3.01832e-317
1.93467e-317
1.4502e-317
1.13273e-317
1.04714e-317
8.80729e-318
7.34205e-318
6.80767e-318
6.31712e-318
5.8694e-318
5.45907e-318
5.6471e-318
5.79007e-318
5.89509e-318
6.42611e-318
7.73134e-318
1.0865e-317
2.15311e-317
4.26001e-180
1.44072e-189
5.49154e-240
3.01778e-317
1.93437e-317
1.56155e-317
1.23557e-317
1.04705e-317
8.80664e-318
7.34166e-318
6.80742e-318
6.317e-318
5.86936e-318
6.06566e-318
5.64719e-318
5.79019e-318
5.89525e-318
6.42629e-318
7.73152e-318
1.12676e-317
2.15312e-317
5.01849e-180
8.43757e-206
2.06445e-239
3.27958e-317
2.17583e-317
1.56134e-317
1.23543e-317
1.04695e-317
8.80605e-318
7.3413e-318
6.80722e-318
6.31693e-318
6.52153e-318
6.06574e-318
5.64732e-318
5.79037e-318
5.89545e-318
6.4265e-318
8.59083e-318
1.12678e-317
2.19092e-317
6.02849e-180
2.90714e-208
6.59207e-239
3.27894e-317
2.05461e-317
1.56113e-317
1.2353e-317
1.04686e-317
8.80549e-318
7.34101e-318
7.56341e-318
7.01877e-318
6.52159e-318
6.06588e-318
5.64749e-318
5.79059e-318
5.89568e-318
7.34486e-318
8.59111e-318
1.12681e-317
2.19094e-317
7.39145e-180
2.51597e-210
1.82607e-238
3.27827e-317
2.05426e-317
1.44942e-317
1.23516e-317
1.04678e-317
8.80498e-318
8.15637e-318
7.5633e-318
7.01878e-318
6.5217e-318
6.06606e-318
5.6477e-318
5.79084e-318
6.8786e-318
7.34518e-318
8.59145e-318
1.12684e-317
2.19096e-317
9.2589e-180
2.1635e-212
4.46248e-238
3.14647e-317
2.0539e-317
1.44922e-317
1.23503e-317
1.14185e-317
9.68497e-318
8.15613e-318
7.56323e-318
7.01884e-318
6.52186e-318
6.06628e-318
5.64797e-318
6.84407e-318
6.87897e-318
7.34554e-318
8.5918e-318
1.12687e-317
2.19098e-317
1.18614e-179
1.7925e-214
9.75279e-238
3.14578e-317
2.05354e-317
1.7834e-317
1.3378e-317
1.14176e-317
9.68449e-318
8.15594e-318
7.56321e-318
7.01896e-318
6.52207e-318
6.06655e-318
6.77793e-318
6.84447e-318
6.87937e-318
7.34595e-318
8.59221e-318
1.12691e-317
4.00426e-317
1.55568e-179
1.39528e-216
1.9279e-237
3.40715e-317
2.29471e-317
1.78314e-317
1.33766e-317
1.14168e-317
9.68405e-318
8.15578e-318
7.56324e-318
7.01913e-318
6.52234e-318
7.28025e-318
6.77834e-318
6.84492e-318
6.87983e-318
7.3464e-318
8.59265e-318
1.12695e-317
1.86465e-315
2.09111e-179
1.00056e-218
3.47991e-237
3.40636e-317
2.29428e-317
1.78289e-317
1.33752e-317
1.14159e-317
9.68367e-318
8.15567e-318
7.56332e-318
7.01935e-318
7.17491e-318
7.28069e-318
6.77882e-318
6.84543e-318
6.88034e-318
7.34689e-318
8.59313e-318
3.15155e-316
1.45892e-313
2.88402e-179
6.54661e-221
5.78214e-237
3.27457e-317
2.29385e-317
1.78263e-317
1.33738e-317
1.14152e-317
9.68331e-318
8.15562e-318
9.07614e-318
7.72159e-318
7.17532e-318
7.28119e-318
6.77933e-318
6.84598e-318
6.88088e-318
7.34743e-318
1.25038e-316
2.59947e-314
1.10073e-311
4.08583e-179
3.95812e-223
8.90548e-237
3.27378e-317
2.29341e-317
1.67097e-317
1.33724e-317
1.14144e-317
1.14436e-317
9.78673e-318
9.07637e-318
7.72195e-318
7.17577e-318
7.28175e-318
6.77991e-318
6.84658e-318
6.88147e-318
8.90946e-317
1.08003e-314
2.05641e-312
8.12825e-310
5.95304e-179
2.34928e-225
1.27903e-236
3.27297e-317
2.29296e-317
1.67073e-317
1.54281e-317
1.3316e-317
1.14433e-317
9.78678e-318
9.07666e-318
7.72236e-318
7.17628e-318
7.28237e-318
6.78054e-318
6.84724e-318
9.78243e-317
7.89656e-315
8.93863e-313
1.59565e-310
5.91053e-308
8.93088e-179
1.55801e-227
1.72199e-236
3.40304e-317
2.41317e-317
1.89322e-317
1.54266e-317
1.33153e-317
1.1443e-317
9.78689e-318
9.07701e-318
7.72284e-318
7.82929e-318
7.28304e-318
7.91142e-318
1.56976e-316
9.0263e-315
6.82935e-313
7.2765e-311
1.22194e-308
4.25541e-306
1.38126e-178
1.34071e-229
2.18322e-236
3.27133e-317
2.4127e-317
1.89295e-317
1.54251e-317
1.33146e-317
1.14429e-317
9.78706e-318
9.07743e-318
8.4255e-318
7.82997e-318
2.42792e-317
3.53792e-316
1.51135e-314
8.15666e-313
5.82805e-311
5.86081e-309
9.28496e-307
3.0487e-304
2.20504e-178
1.68914e-231
2.61714e-236
3.2705e-317
2.41223e-317
1.89268e-317
1.54237e-317
1.33139e-317
1.14428e-317
9.78731e-318
9.07792e-318
8.42615e-318
4.56792e-317
1.11575e-315
3.56546e-314
1.42794e-312
7.29581e-311
4.93437e-309
4.69514e-307
7.03501e-305
2.18349e-302
3.63787e-178
4.12088e-233
2.97692e-236
3.26967e-317
2.41176e-317
1.89242e-317
1.54224e-317
1.33133e-317
1.14427e-317
9.78762e-318
3.02616e-317
2.25419e-316
4.6441e-315
1.15469e-313
3.52265e-312
1.33907e-310
6.49277e-309
4.1659e-307
3.75914e-305
5.3393e-303
1.57006e-300
6.20999e-178
3.33326e-234
3.22316e-236
3.13808e-317
2.4113e-317
1.89216e-317
1.54211e-317
1.33128e-317
1.32032e-317
1.27244e-316
1.62138e-315
2.59312e-314
5.04558e-313
1.19378e-311
3.46536e-310
1.25299e-308
5.77715e-307
3.52365e-305
3.02147e-303
4.07648e-301
1.13804e-298
1.09814e-177
8.97014e-235
3.33109e-236
3.13728e-317
2.2903e-317
1.89191e-317
5.34555e-317
1.73062e-316
1.45677e-315
1.51998e-314
1.92219e-313
2.94511e-312
5.46531e-311
1.23293e-309
3.41149e-308
1.17545e-306
5.163e-305
2.99902e-303
2.44824e-301
3.14337e-299
8.34677e-297
2.01392e-177
4.5249e-235
3.29423e-236
1.20232e-316
2.07293e-316
7.29961e-316
3.67068e-315
2.35567e-314
1.90183e-313
1.88937e-312
2.2848e-311
3.34585e-310
5.93183e-309
1.27803e-307
3.37634e-306
1.11042e-304
4.65417e-303
2.57896e-301
2.00769e-299
2.45724e-297
6.21665e-295
3.8345e-177
2.80849e-235
3.12423e-236
1.27166e-314
3.03267e-314
1.0746e-313
5.1583e-313
3.19201e-312
2.47191e-311
2.35341e-310
2.72551e-309
3.82032e-308
6.48046e-307
1.3355e-305
3.37373e-304
1.0607e-302
4.24882e-301
2.24937e-299
1.67247e-297
1.95428e-295
4.71793e-293
7.58725e-177
1.91098e-235
2.84708e-236
1.96521e-312
4.58591e-312
1.57489e-311
7.29176e-311
4.3415e-310
3.2298e-309
2.95097e-308
3.27742e-307
4.40333e-306
7.15676e-305
1.41268e-303
3.41726e-302
1.02851e-300
3.94289e-299
1.99713e-297
1.42024e-295
1.58665e-293
3.66028e-291
1.56154e-176
1.36281e-235
2.49733e-236
3.0525e-310
6.9698e-310
2.32174e-309
1.03817e-308
5.95483e-308
4.26112e-307
3.74102e-306
3.98961e-305
5.1444e-304
8.02153e-303
1.51857e-301
3.52206e-300
1.0161e-298
3.73279e-297
1.81129e-295
1.23356e-293
1.31926e-291
2.91204e-289
3.34539e-176
9.87097e-236
2.11173e-236
4.78223e-308
1.0692e-307
3.45834e-307
1.49518e-306
8.27159e-306
5.70001e-305
4.81431e-304
4.93589e-303
6.11565e-302
9.15947e-301
1.665e-299
3.70701e-298
1.02635e-296
3.61741e-295
1.68357e-293
1.09936e-291
1.12689e-289
2.38286e-287
7.46497e-176
7.1303e-236
1.72375e-236
7.58926e-306
1.66254e-305
5.22653e-305
2.18707e-304
1.16823e-303
7.76116e-303
6.31336e-302
6.22967e-301
7.42502e-300
1.06933e-298
1.86856e-297
3.99801e-296
1.06347e-294
3.60012e-293
1.60883e-291
1.0084e-289
9.91801e-288
2.01126e-285
1.73575e-175
5.0942e-236
1.35986e-236
1.22496e-303
2.63083e-303
8.04543e-303
3.26173e-302
1.68395e-301
1.07966e-300
8.46734e-300
8.04965e-299
9.23882e-298
1.28077e-296
2.1536e-295
4.43278e-294
1.134e-292
3.69096e-291
1.58539e-289
9.54819e-288
9.01996e-286
1.75598e-283
4.20659e-175
3.58195e-236
1.03789e-236
2.01866e-301
4.25265e-301
1.26616e-300
4.97782e-300
2.48628e-299
1.53989e-298
1.16547e-297
1.06852e-296
1.18209e-295
1.57893e-294
2.55727e-293
5.06854e-292
1.24822e-290
3.90995e-289
1.6158e-287
9.35931e-286
8.50023e-284
1.5901e-281
1.06259e-174
2.47086e-236
7.67058e-237
3.40894e-299
7.04769e-299
2.04446e-298
7.80108e-298
3.77301e-297
2.25949e-296
1.65185e-295
1.46183e-294
1.56025e-293
2.00985e-292
3.13827e-291
5.9949e-290
1.42251e-288
4.29212e-287
1.70802e-285
9.52374e-284
8.32301e-282
1.49739e-279
2.79708e-174
1.66848e-236
5.49365e-237
5.92006e-297
1.20162e-296
3.39868e-296
1.25969e-295
5.90457e-295
3.4219e-294
2.41855e-293
2.0678e-292
2.13111e-291
2.64974e-290
3.9922e-289
7.35628e-288
1.6833e-286
4.89643e-285
1.87787e-283
1.00878e-281
8.49008e-280
1.47021e-277
7.66907e-174
1.10121e-236
3.81528e-237
1.06089e-294
2.1149e-294
5.83622e-294
2.10279e-293
9.56008e-293
5.36603e-292
3.66966e-291
3.03361e-290
3.02144e-289
3.62902e-288
5.27997e-287
9.39239e-286
2.0742e-284
5.82117e-283
2.15328e-281
1.11528e-279
9.04635e-278
1.50899e-275
2.1886e-173
7.09602e-237
2.57073e-237
1.96842e-292
3.85536e-292
1.03866e-291
3.6405e-291
1.60657e-290
8.74062e-290
5.78814e-289
4.63012e-288
4.46002e-287
5.17873e-286
7.28158e-285
1.2514e-283
2.66909e-282
7.23244e-281
2.58224e-279
1.29045e-277
1.00953e-275
1.62327e-273
6.49444e-173
4.46049e-237
1.68126e-237
3.79426e-290
7.30364e-290
1.92206e-289
6.55804e-289
2.81125e-288
1.48359e-287
9.52044e-287
7.37479e-286
6.87548e-285
7.72352e-284
1.05024e-282
1.74498e-281
3.59713e-280
9.4176e-279
3.24765e-277
1.56702e-275
1.18313e-273
1.83505e-271
2.00135e-172
2.73323e-237
1.06758e-237
7.62406e-288
1.44274e-287
3.71082e-287
1.23332e-286
5.1391e-286
2.63257e-285
1.63823e-284
1.22974e-283
1.11039e-282
1.20757e-281
1.5891e-280
2.55432e-279
5.09245e-278
1.28901e-276
4.2962e-275
2.00275e-273
1.46029e-271
2.18609e-269
6.3951e-172
1.6317e-237
6.58354e-238
1.60262e-285
2.98218e-285
7.50055e-285
2.42978e-284
9.84801e-284
4.90016e-283
2.95905e-282
2.1539e-281
1.88489e-280
1.98577e-279
2.53054e-278
3.93764e-277
7.59703e-276
1.86032e-274
5.99622e-273
2.7022e-271
1.90388e-269
2.75259e-267
2.11521e-171
9.48533e-238
3.9434e-238
3.53747e-283
6.47443e-283
1.59312e-282
5.03317e-282
1.98549e-281
9.60233e-281
5.63046e-280
3.97676e-279
3.37493e-278
3.44655e-277
4.25577e-276
6.41446e-275
1.19835e-273
2.84048e-272
8.85918e-271
3.86169e-269
2.63058e-267
3.67507e-265
7.22741e-171
5.36655e-238
2.29436e-238
8.23255e-281
1.48234e-280
3.57009e-280
1.10061e-279
4.22827e-279
1.98879e-278
1.13305e-277
7.76986e-277
6.39856e-276
6.33777e-275
7.58741e-274
1.10836e-272
2.00614e-271
4.60551e-270
1.39068e-268
5.86658e-267
3.86581e-265
5.22147e-263
2.54564e-170
2.95367e-238
1.29665e-238
2.02907e-278
3.59506e-278
8.4784e-278
2.55189e-277
9.55305e-277
4.37259e-276
2.42186e-275
1.61342e-274
1.29003e-273
1.24004e-272
1.44011e-271
2.03999e-270
3.57928e-269
7.96241e-268
2.32896e-266
9.51293e-265
6.06689e-263
7.92625e-261
9.22137e-170
1.58067e-238
7.11729e-239
5.32291e-276
9.28197e-276
2.14439e-275
6.30472e-275
2.30111e-274
1.02554e-273
5.52532e-273
3.57793e-272
2.77913e-271
2.59393e-270
2.92384e-269
4.0184e-268
6.83801e-267
1.47477e-265
4.18045e-264
1.65415e-262
1.02147e-260
1.29144e-258
3.42715e-169
8.22086e-239
3.79371e-239
1.49455e-273
2.56548e-273
5.80846e-273
1.66897e-272
5.94212e-272
2.57992e-271
1.35284e-270
8.51982e-270
6.43222e-269
5.83242e-268
6.38405e-267
8.51682e-266
1.40627e-264
2.94182e-263
8.08526e-262
3.10055e-260
1.85472e-258
2.27021e-256
1.30358e-168
4.15302e-239
1.96322e-239
4.51919e-271
7.63777e-271
1.69533e-270
4.76291e-270
1.65503e-269
7.00407e-269
3.57642e-268
2.19163e-267
1.60905e-266
1.41811e-265
1.50806e-264
1.95382e-263
3.13178e-262
6.35742e-261
1.69482e-259
6.30153e-258
3.65302e-256
4.33063e-254
5.06213e-168
2.03679e-239
9.86054e-240
1.48145e-268
2.4656e-268
5.36741e-268
1.47506e-267
5.00491e-267
2.06556e-266
1.02757e-265
6.13025e-265
4.37888e-264
3.75285e-263
3.87907e-262
4.8828e-261
7.60109e-260
1.49793e-258
3.87503e-257
1.39748e-255
7.85389e-254
9.02108e-252
9.69211e-240
4.80508e-240
5.30098e-266
8.68959e-266
1.85588e-265
4.99127e-265
1.65445e-264
6.66192e-264
3.23042e-263
1.87706e-262
1.3051e-261
1.08816e-260
1.09372e-259
1.33815e-258
2.02389e-257
3.87343e-256
9.72719e-255
3.4038e-253
1.85521e-251
2.06534e-249
4.47216e-240
2.27084e-240
2.08394e-263
3.36524e-263
7.05385e-263
1.8573e-262
6.01698e-262
2.36499e-261
1.11833e-260
6.33196e-260
4.28721e-259
3.47902e-258
3.40167e-257
4.04687e-256
5.94898e-255
1.10612e-253
2.69746e-252
9.16188e-251
4.84443e-249
5.22881e-247
1.04028e-240
9.05003e-261
1.43995e-260
2.9632e-260
7.64169e-260
2.42061e-259
9.29117e-259
4.28633e-258
2.36584e-257
1.56053e-256
1.23299e-255
1.17324e-254
1.35769e-253
1.94051e-252
3.50652e-251
8.30666e-250
2.73933e-248
1.4056e-246
1.47132e-244
4.61706e-241
4.35775e-258
6.83294e-258
1.38092e-257
3.48928e-257
1.08116e-256
4.05429e-256
1.8255e-255
9.82633e-255
6.31682e-254
4.86133e-253
4.50324e-252
5.0708e-251
7.049e-250
1.23829e-248
2.85036e-247
9.1291e-246
4.54694e-244
4.61703e-242
1.98417e-241
2.32996e-255
3.60103e-255
7.14943e-255
1.77069e-254
5.36896e-254
1.96774e-253
8.65089e-253
4.54303e-252
2.84729e-251
2.13507e-250
1.92607e-249
2.11104e-248
2.85506e-247
4.87716e-246
1.09116e-244
3.395e-243
1.64176e-241
1.61751e-239
8.25132e-242
1.38195e-252
2.10567e-252
4.10824e-252
9.97675e-252
2.96139e-251
1.06119e-250
4.557e-250
2.3356e-249
1.42763e-248
1.04343e-247
9.16961e-247
9.78544e-246
1.28791e-244
2.13999e-243
4.65464e-242
1.4072e-240
6.60842e-239
6.31855e-237
3.31825e-242
9.06437e-250
1.3619e-249
2.61197e-249
6.22184e-249
1.80862e-248
6.33913e-248
2.65988e-247
1.33097e-246
7.93716e-246
5.65608e-245
4.84351e-244
5.03401e-243
6.44942e-242
1.04262e-240
2.20521e-239
6.47938e-238
2.95549e-236
2.74288e-234
1.28959e-242
6.54331e-247
9.69642e-247
1.82863e-246
4.27411e-246
1.21718e-245
4.17423e-245
1.71203e-244
8.36662e-244
4.86926e-243
3.38413e-242
2.82469e-241
2.85999e-240
3.56762e-239
5.61254e-238
1.15459e-236
3.29765e-235
1.46127e-233
1.31653e-231
5.3059e-243
5.16793e-244
7.55503e-244
1.40145e-243
3.21527e-243
8.97347e-243
3.01214e-242
1.20798e-241
5.76729e-241
3.27667e-240
2.22166e-239
1.80798e-238
1.78375e-237
2.16699e-236
3.31822e-235
6.64045e-234
1.84393e-232
7.93904e-231
6.94468e-229
4.0605e-241
4.43679e-241
6.4003e-241
1.16817e-240
2.63156e-240
7.20014e-240
2.36645e-239
9.28263e-239
4.33105e-238
2.40287e-237
1.58984e-236
1.26176e-235
1.21329e-234
1.43577e-233
2.14036e-232
4.16754e-231
1.12529e-229
4.70808e-228
3.9991e-226
3.78144e-238
4.11305e-238
5.85623e-238
1.05202e-237
2.3278e-237
6.24605e-237
2.0107e-236
7.71704e-236
3.51976e-235
1.90742e-234
1.23186e-233
9.53655e-233
8.93971e-232
1.0307e-230
1.49611e-229
2.83483e-228
7.44408e-227
3.0269e-225
2.49684e-223
3.79383e-235
4.09062e-235
5.75019e-235
1.01701e-234
2.2111e-234
5.82029e-234
1.83574e-233
6.89569e-233
3.07542e-232
1.62837e-231
1.02675e-230
7.75538e-230
7.08872e-229
7.9642e-228
1.12584e-226
2.07623e-225
5.30286e-224
2.09579e-222
1.67899e-220
4.05813e-232
4.33828e-232
6.02242e-232
1.04904e-231
2.24171e-231
5.79075e-231
1.79004e-230
6.58296e-230
2.87166e-229
1.48596e-228
9.14993e-228
6.7446e-227
6.01226e-226
6.58344e-225
9.06475e-224
1.6272e-222
4.04273e-221
1.55309e-219
1.20845e-217
4.59988e-229
4.87649e-229
6.68729e-229
1.1476e-228
2.41114e-228
6.11414e-228
1.85293e-227
6.67317e-227
2.84803e-226
1.44062e-225
8.66474e-225
6.23419e-224
5.42069e-223
5.78599e-222
7.7608e-221
1.35622e-219
3.27792e-218
1.22415e-216
9.25153e-215
5.49133e-226
5.77447e-226
7.82485e-226
1.32336e-225
2.73462e-225
6.80931e-225
2.02371e-224
7.13933e-224
2.98181e-223
1.47474e-222
8.66578e-222
6.08693e-221
5.1634e-220
5.37314e-219
7.02156e-218
1.19463e-216
2.8091e-215
1.01985e-213
7.48629e-212
6.86272e-223
7.1601e-223
9.59052e-223
1.59899e-222
3.25082e-222
7.95109e-222
2.31803e-221
8.01269e-221
3.27579e-220
1.58445e-219
9.09785e-219
6.23978e-218
5.16456e-217
5.24021e-216
6.67228e-215
1.10531e-213
2.52875e-212
8.92514e-211
6.36346e-209
8.92717e-220
9.24381e-220
1.22427e-219
2.01292e-219
4.02755e-219
9.67902e-219
2.7688e-218
9.38018e-218
3.75459e-217
1.77639e-216
9.96893e-216
6.67709e-215
5.39307e-214
5.33607e-213
6.62068e-212
1.06795e-210
2.37724e-209
8.15686e-208
5.64849e-206
1.20281e-216
1.23647e-216
1.61979e-216
2.62727e-216
5.17513e-216
1.22236e-215
3.43196e-215
1.1398e-214
4.46775e-214
2.06806e-213
1.13447e-212
7.42168e-212
5.85042e-211
5.64524e-210
6.82575e-209
1.07214e-207
2.32211e-206
7.74578e-205
5.20932e-203
1.67048e-213
1.70541e-213
2.21058e-213
3.53825e-213
6.86352e-213
1.5938e-212
4.39315e-212
1.43064e-211
5.49275e-211
2.48794e-210
1.33431e-209
8.52692e-209
6.5608e-208
6.17443e-207
7.27567e-206
1.11286e-204
2.34517e-203
7.60453e-202
4.96661e-200
2.37742e-210
2.41128e-210
3.09372e-210
4.88823e-210
9.34081e-210
2.13306e-209
5.77369e-209
1.84405e-208
6.93609e-208
3.07477e-207
1.61243e-206
1.00667e-205
7.56087e-205
6.94037e-204
7.97044e-203
1.18718e-201
2.43413e-200
7.67237e-199
4.86566e-197
3.45044e-207
3.47804e-207
4.41861e-207
6.8943e-207
1.29817e-206
2.91612e-206
7.75296e-206
2.42908e-205
8.95258e-205
3.88474e-204
1.9922e-203
1.21523e-202
8.9103e-202
7.978e-201
8.92946e-200
1.29516e-198
2.58358e-197
7.91516e-196
4.87347e-194
5.08065e-204
5.09178e-204
6.40767e-204
9.87616e-204
1.83305e-203
4.05149e-203
1.05826e-202
3.25321e-202
1.17505e-201
4.99167e-201
2.50362e-200
1.49228e-199
1.06822e-198
9.32965e-198
1.01772e-196
1.43739e-195
2.78946e-194
8.30545e-193
4.9641e-191
7.55507e-201
7.53107e-201
9.39147e-201
1.43039e-200
2.61766e-200
5.69427e-200
1.4616e-199
4.40938e-199
1.56109e-198
6.49309e-198
3.18545e-197
1.85541e-196
1.29671e-195
1.10474e-194
1.17449e-193
1.61519e-192
3.04914e-191
8.82208e-190
5.11762e-188
1.12912e-197
1.11997e-197
1.38452e-197
2.08449e-197
3.76238e-197
8.0572e-197
2.03275e-196
6.01921e-196
2.08911e-195
8.50883e-195
4.08342e-194
2.32437e-193
1.58604e-192
1.31808e-191
1.36566e-190
1.82861e-189
3.35767e-188
9.43879e-187
5.31303e-185
1.68724e-194
1.66604e-194
2.04249e-194
3.04082e-194
5.41485e-194
1.14186e-193
2.83212e-193
8.23283e-193
2.80157e-192
1.11749e-191
5.24642e-191
2.9186e-190
1.94446e-189
1.57627e-188
1.59157e-187
2.07475e-186
3.70505e-185
1.01177e-183
5.52505e-182
2.50796e-191
2.46639e-191
2.99979e-191
4.41774e-191
7.76346e-191
1.61247e-190
3.9326e-190
1.12246e-189
3.74549e-189
1.46326e-188
6.72102e-188
3.6542e-187
2.37701e-186
1.87955e-185
1.84932e-184
2.3468e-183
4.07524e-182
1.08086e-180
5.72445e-179
3.69594e-188
3.62151e-188
4.37167e-188
6.37065e-188
1.10515e-187
2.26139e-187
5.42418e-187
1.52035e-186
4.97532e-186
1.90388e-185
8.55599e-185
4.54654e-184
2.88755e-183
2.22702e-182
2.13508e-181
2.63724e-180
4.45252e-179
1.14671e-177
5.88856e-176
5.36454e-185
5.23985e-185
6.28023e-185
9.05913e-185
1.55179e-184
3.12895e-184
7.38263e-184
2.03238e-183
6.52324e-183
2.44523e-182
1.07518e-181
5.58402e-181
3.46252e-180
2.60456e-179
2.43284e-178
2.92458e-177
4.79978e-176
1.20005e-174
5.97317e-173
7.63088e-182
7.43326e-182
8.84927e-182
1.26397e-181
2.13851e-181
4.25003e-181
9.86582e-181
2.66788e-180
8.39943e-180
3.08438e-179
1.32701e-178
6.73583e-178
4.07771e-177
2.99139e-176
2.72204e-175
3.18415e-174
5.07887e-173
1.23242e-171
5.94389e-170
1.0604e-178
1.03059e-178
1.21915e-178
1.72486e-178
2.88319e-178
5.64888e-178
1.29035e-177
3.42795e-177
1.05872e-176
3.80875e-176
1.60337e-175
7.9542e-175
4.70089e-174
3.3629e-173
2.98075e-172
3.39237e-171
5.25773e-170
1.2379e-168
5.78286e-167
1.43361e-175
1.39078e-175
1.63547e-175
2.29269e-175
3.78728e-175
7.31673e-175
1.64488e-174
4.29347e-174
1.30091e-173
4.5851e-173
1.88865e-172
9.15677e-172
5.28269e-171
3.68488e-170
3.18102e-169
3.52163e-168
5.30224e-167
1.21091e-165
5.47699e-164
1.8713e-172
1.81291e-172
2.12003e-172
2.94571e-172
4.81003e-172
9.16486e-172
2.02807e-171
5.20172e-171
1.54634e-170
5.33972e-170
2.15211e-169
1.01968e-168
5.74212e-168
3.90503e-167
3.2827e-166
3.53445e-165
5.16832e-164
1.14453e-162
5.01009e-161
2.35245e-169
2.27692e-169
2.64886e-169
3.64915e-169
5.89165e-169
1.10736e-168
2.41239e-168
6.08058e-168
1.77357e-167
6.00037e-167
2.36624e-166
1.09558e-165
6.02154e-165
3.99199e-164
3.2673e-163
3.42061e-162
4.85653e-161
1.04251e-159
4.41465e-158
2.83276e-166
2.74043e-166
3.17277e-166
4.33501e-166
6.92195e-166
1.28362e-165
2.75332e-165
6.82063e-165
1.95205e-164
6.47052e-164
2.49654e-163
1.12949e-162
6.05835e-162
3.91477e-161
3.11904e-160
3.17439e-159
4.37478e-158
9.09972e-157
3.72593e-155
3.25109e-163
3.14486e-163
3.62483e-163
4.91347e-163
7.76111e-163
1.42026e-162
2.99986e-162
7.30421e-162
2.05124e-161
6.66161e-161
2.51466e-160
1.11158e-159
5.81802e-159
3.66379e-158
2.84104e-157
2.8102e-156
3.75816e-155
7.57181e-154
2.99627e-152
3.56448e-160
3.44583e-160
3.95243e-160
5.31326e-160
8.29953e-160
1.49829e-159
3.11537e-159
7.45327e-159
2.05316e-158
6.53054e-158
2.41096e-157
1.04089e-156
5.31398e-156
3.25977e-155
2.45898e-154
2.36268e-153
3.0642e-152
5.97543e-151
2.28294e-149
2.08319e-156
1.92763e-156
2.11266e-156
2.70813e-156
4.02449e-156
6.89443e-156
1.35658e-155
3.06171e-155
7.9285e-155
2.36102e-154
1.17507e-153
1.14908e-153
1.31917e-153
1.76073e-153
2.71403e-153
4.81216e-153
9.79257e-153
1.75315e-108
1.7903e-107
1.05719e-264
3.02115e-317
1.69436e-317
1.33977e-317
1.03053e-317
8.57318e-318
7.931e-318
6.52927e-318
6.05346e-318
5.61678e-318
5.21827e-318
4.85312e-318
4.51797e-318
4.7374e-318
4.91247e-318
5.04888e-318
6.87194e-318
9.65731e-318
2.00197e-317
3.53362e-122
7.3085e-121
2.66948e-250
3.02061e-317
1.81507e-317
1.33956e-317
1.13342e-317
8.57211e-318
7.93013e-318
6.52866e-318
6.05299e-318
5.61642e-318
5.21801e-318
4.85292e-318
4.51784e-318
5.26368e-318
5.40366e-318
5.50782e-318
6.87193e-318
9.65731e-318
2.03975e-317
1.83075e-151
9.85278e-161
1.17823e-248
3.02016e-317
1.8148e-317
1.33936e-317
1.03025e-317
8.57109e-318
7.92933e-318
7.34411e-318
6.05256e-318
5.61609e-318
5.21777e-318
4.85276e-318
5.08245e-318
5.2636e-318
5.40362e-318
5.50782e-318
6.87194e-318
1.08645e-317
2.03975e-317
1.39602e-151
1.00325e-150
2.23012e-247
2.88844e-317
1.81454e-317
1.45077e-317
1.13313e-317
9.52238e-318
7.92857e-318
6.52758e-318
6.05217e-318
5.61581e-318
5.86978e-318
5.45923e-318
5.08237e-318
5.26357e-318
5.40362e-318
5.50784e-318
7.73098e-318
1.08646e-317
2.03976e-317
1.94687e-158
1.20796e-157
2.52765e-246
3.01929e-317
2.05618e-317
1.45058e-317
1.13299e-317
9.52138e-318
7.92786e-318
6.5271e-318
6.05182e-318
6.31752e-318
5.8696e-318
5.45913e-318
5.08234e-318
5.26358e-318
5.40366e-318
6.42588e-318
7.73107e-318
1.08647e-317
2.03976e-317
1.40702e-179
5.82057e-179
1.98477e-245
3.01882e-317
1.93495e-317
1.45039e-317
1.13286e-317
9.52041e-318
7.9272e-318
7.34251e-318
6.80796e-318
6.3173e-318
5.86948e-318
5.45908e-318
5.08234e-318
5.26362e-318
5.89497e-318
6.42598e-318
7.73119e-318
1.08648e-317
2.07755e-317
3.76312e-180
3.77974e-181
1.17292e-244
3.01831e-317
1.93467e-317
1.4502e-317
1.13273e-317
1.04714e-317
8.80731e-318
7.34206e-318
6.80767e-318
6.31712e-318
5.8694e-318
5.45907e-318
5.64709e-318
5.79007e-318
5.89509e-318
6.42611e-318
7.73134e-318
1.0865e-317
2.15311e-317
4.26003e-180
2.59059e-186
5.50393e-244
3.01778e-317
1.93437e-317
1.56155e-317
1.23557e-317
1.04705e-317
8.80668e-318
7.34167e-318
6.80741e-318
6.317e-318
5.86936e-318
6.06566e-318
5.64719e-318
5.79019e-318
5.89525e-318
6.42629e-318
7.73153e-318
1.12676e-317
2.15312e-317
5.01851e-180
6.17092e-203
2.12937e-243
3.27958e-317
2.17583e-317
1.56134e-317
1.23543e-317
1.04696e-317
8.80609e-318
7.34132e-318
6.80722e-318
6.31693e-318
6.52153e-318
6.06575e-318
5.64732e-318
5.79037e-318
5.89544e-318
6.42651e-318
8.59083e-318
1.12678e-317
2.19091e-317
6.02851e-180
6.17992e-210
6.98389e-243
3.27894e-317
2.05461e-317
1.56113e-317
1.23529e-317
1.04687e-317
8.80553e-318
7.34102e-318
7.56341e-318
7.01877e-318
6.52159e-318
6.06588e-318
5.64749e-318
5.79059e-318
5.89568e-318
7.34486e-318
8.59113e-318
1.12681e-317
2.19094e-317
7.39147e-180
2.31738e-212
1.98396e-242
3.27827e-317
2.05426e-317
1.44942e-317
1.23516e-317
1.04678e-317
8.80502e-318
8.15639e-318
7.5633e-318
7.01878e-318
6.52171e-318
6.06606e-318
5.6477e-318
5.79084e-318
6.8786e-318
7.34519e-318
8.59145e-318
1.12684e-317
2.19096e-317
9.25893e-180
9.87299e-215
4.96545e-242
3.14647e-317
2.0539e-317
1.44922e-317
1.23503e-317
1.14185e-317
9.68499e-318
8.15613e-318
7.56322e-318
7.01884e-318
6.52186e-318
6.0663e-318
5.64797e-318
6.84407e-318
6.87896e-318
7.34555e-318
8.59181e-318
1.12687e-317
2.19098e-317
1.18615e-179
5.01515e-217
1.11017e-241
3.14577e-317
2.05353e-317
1.7834e-317
1.3378e-317
1.14176e-317
9.68452e-318
8.15594e-318
7.5632e-318
7.01896e-318
6.52208e-318
6.06656e-318
6.77793e-318
6.84447e-318
6.87937e-318
7.34596e-318
8.59222e-318
1.12691e-317
4.00426e-317
1.55568e-179
2.98444e-219
2.24285e-241
3.40715e-317
2.29471e-317
1.78314e-317
1.33766e-317
1.14168e-317
9.68408e-318
8.15579e-318
7.56324e-318
7.01913e-318
6.52234e-318
7.28025e-318
6.77834e-318
6.84492e-318
6.87982e-318
7.3464e-318
8.59265e-318
1.12695e-317
1.86465e-315
2.09112e-179
1.90953e-221
4.13402e-241
3.40636e-317
2.29428e-317
1.78289e-317
1.33752e-317
1.1416e-317
9.6837e-318
8.15568e-318
7.56332e-318
7.01935e-318
7.17492e-318
7.2807e-318
6.77882e-318
6.84543e-318
6.88033e-318
7.34689e-318
8.59313e-318
3.15155e-316
1.45892e-313
2.88403e-179
1.20594e-223
7.00906e-241
3.27457e-317
2.29384e-317
1.78263e-317
1.33738e-317
1.14152e-317
9.68335e-318
8.15562e-318
9.07614e-318
7.72158e-318
7.17532e-318
7.2812e-318
6.77933e-318
6.84598e-318
6.88087e-318
7.34743e-318
1.25038e-316
2.59951e-314
1.10073e-311
4.08585e-179
7.23575e-226
1.10081e-240
3.27377e-317
2.29341e-317
1.67097e-317
1.33724e-317
1.14144e-317
1.14436e-317
9.78675e-318
9.07636e-318
7.72194e-318
7.17577e-318
7.28176e-318
6.7799e-318
6.84658e-318
6.88146e-318
8.90947e-317
1.08003e-314
2.05641e-312
8.12825e-310
5.95306e-179
4.24533e-228
1.61125e-240
3.27297e-317
2.29296e-317
1.67073e-317
1.54281e-317
1.3316e-317
1.14433e-317
9.78679e-318
9.07666e-318
7.72236e-318
7.17628e-318
7.28237e-318
6.78054e-318
6.84724e-318
9.78243e-317
7.89657e-315
8.93865e-313
1.59565e-310
5.91053e-308
8.93091e-179
2.72332e-230
2.20962e-240
3.40304e-317
2.41317e-317
1.89322e-317
1.54266e-317
1.33153e-317
1.14431e-317
9.78691e-318
9.07701e-318
7.72284e-318
7.8293e-318
7.28304e-318
7.91142e-318
1.56976e-316
9.02629e-315
6.82935e-313
7.27651e-311
1.22194e-308
4.25541e-306
1.38127e-178
2.21683e-232
2.8522e-240
3.27133e-317
2.4127e-317
1.89295e-317
1.54251e-317
1.33146e-317
1.14429e-317
9.78708e-318
9.07743e-318
8.4255e-318
7.82999e-318
2.42793e-317
3.53792e-316
1.51135e-314
8.15668e-313
5.82805e-311
5.86082e-309
9.28497e-307
3.0487e-304
2.20505e-178
2.5348e-234
3.47956e-240
3.2705e-317
2.41223e-317
1.89268e-317
1.54237e-317
1.33139e-317
1.14428e-317
9.78732e-318
9.07791e-318
8.42615e-318
4.56793e-317
1.11575e-315
3.56546e-314
1.42794e-312
7.29581e-311
4.93437e-309
4.69515e-307
7.03501e-305
2.18349e-302
3.63788e-178
4.8389e-236
4.02635e-240
3.26967e-317
2.41176e-317
1.89242e-317
1.54224e-317
1.33134e-317
1.14428e-317
9.78764e-318
3.02616e-317
2.25419e-316
4.64411e-315
1.15469e-313
3.52265e-312
1.33907e-310
6.49277e-309
4.16591e-307
3.75915e-305
5.33931e-303
1.57006e-300
6.21001e-178
2.3179e-237
4.43326e-240
3.13808e-317
2.4113e-317
1.89216e-317
1.54211e-317
1.33129e-317
1.32032e-317
1.27244e-316
1.62138e-315
2.59312e-314
5.04559e-313
1.19378e-311
3.46536e-310
1.25299e-308
5.77715e-307
3.52365e-305
3.02148e-303
4.07648e-301
1.13804e-298
1.09815e-177
3.69555e-238
4.65785e-240
3.13728e-317
2.29029e-317
1.89191e-317
5.34555e-317
1.73062e-316
1.45677e-315
1.51999e-314
1.92219e-313
2.94511e-312
5.46532e-311
1.23294e-309
3.4115e-308
1.17545e-306
5.163e-305
2.99902e-303
2.44824e-301
3.14337e-299
8.34677e-297
2.01393e-177
1.3929e-238
4.68152e-240
1.20232e-316
2.07293e-316
7.29961e-316
3.67068e-315
2.35567e-314
1.90184e-313
1.88937e-312
2.2848e-311
3.34585e-310
5.93183e-309
1.27803e-307
3.37635e-306
1.11042e-304
4.65417e-303
2.57896e-301
2.00769e-299
2.45724e-297
6.21666e-295
3.83451e-177
7.20019e-239
4.51121e-240
1.27166e-314
3.03267e-314
1.07461e-313
5.15831e-313
3.19201e-312
2.47191e-311
2.35342e-310
2.72551e-309
3.82032e-308
6.48047e-307
1.3355e-305
3.37373e-304
1.0607e-302
4.24882e-301
2.24937e-299
1.67247e-297
1.95428e-295
4.71793e-293
7.58727e-177
4.38795e-239
4.17603e-240
1.96521e-312
4.58591e-312
1.57489e-311
7.29176e-311
4.34151e-310
3.22981e-309
2.95098e-308
3.27742e-307
4.40333e-306
7.15676e-305
1.41268e-303
3.41727e-302
1.02851e-300
3.9429e-299
1.99713e-297
1.42024e-295
1.58665e-293
3.66029e-291
1.56155e-176
2.93735e-239
3.72014e-240
3.0525e-310
6.96981e-310
2.32174e-309
1.03817e-308
5.95484e-308
4.26113e-307
3.74103e-306
3.98962e-305
5.14441e-304
8.02154e-303
1.51857e-301
3.52206e-300
1.01611e-298
3.73279e-297
1.81129e-295
1.23356e-293
1.31926e-291
2.91204e-289
3.3454e-176