/*--------------------------------*- C++ -*----------------------------------*\
| =========                 |                                                 |
| \\      /  F ield         | OpenFOAM: The Open Source CFD Toolbox           |
|  \\    /   O peration     | Version:  v2006                                 |
|   \\  /    A nd           | Website:  www.openfoam.com                      |
|    \\/     M anipulation  |                                                 |
\*---------------------------------------------------------------------------*/
FoamFile
{
    version     2.0;
    format      ascii;
    class       volScalarField;
    location    "0.02";
    object      p_rgh;
}
// * * * * * * * * * * * * * * * * * * * * * * * * * * * * * * * * * * * * * //

dimensions      [1 -1 -2 0 0 0 0];


internalField   nonuniform List<scalar> 
3596
(
99830.8
99844.8
99840.5
100116
100120
100122
100000
100148
99768.5
100148
101231
100169
101464
98805.5
100148
99997.8
99157.8
99220
99866.9
100195
100119
100119
100236
100092
100051
100856
99417.8
100828
100946
100746
99984
99780.7
100756
99980.5
99452.9
99506.4
99460.3
99448
99828.3
99938.1
99922.4
99762.9
100145
99797.4
100146
100005
100146
100148
100145
100110
100108
99869.6
100110
100104
100147
100389
100145
100119
100148
100398
99815.6
100011
100111
99973.7
100039
100064
100143
100123
100185
100148
100162
100233
100151
101305
101735
101241
101083
101157
100480
98722.2
100138
100141
100146
100149
100149
100103
100167
100749
100720
99771
99793.4
100225
99573.4
100152
99874.8
99957.1
100141
99993.4
100065
99920.5
100027
100147
100113
100088
100153
99989.4
99576.3
99988.1
100143
99527.6
99587.4
99606
99560.2
99931
99872.7
99892.9
99993
99988.3
100059
100147
100147
100942
100116
100042
100149
100038
100147
100148
100139
100148
100148
100147
100148
100148
100161
99300.4
100451
100438
99769.2
100026
100095
100144
100131
101150
100418
101187
101174
100990
99129.5
99748.1
99731.1
100001
99786.9
99819.7
100015
98969.9
100238
98952.1
99971.8
99463.1
99851.1
99825
99861.1
100001
100090
99984.6
100001
99996.9
100030
100044
99979.9
100012
100127
100384
100140
100305
100149
100149
99969.5
100145
100045
100132
100042
100130
100082
100147
99942.1
100147
99950.6
100662
100055
101097
101142
100118
100135
100081
100068
100249
100178
101689
100288
100238
100210
101275
101297
99514.1
101311
100062
100340
100345
99584.1
100148
100826
100145
99859.4
100050
99506.9
99352.1
99993.3
99871.7
99863.6
99864
99869.3
100035
100025
100019
100126
100148
99744
99736.7
100597
99765.2
100141
99707.3
99716.8
99698.4
99686.5
99710.7
99730.6
100073
100077
100070
100320
100073
100073
99722.9
100147
100149
100148
100845
100148
100636
100083
100013
100147
100147
99537.1
100149
99585.5
100147
100146
99925
100087
100089
100094
100163
99757.5
99564.4
99932.7
100035
100019
100041
100341
100133
100122
100207
100095
99494.6
99877.7
99884.5
99685.9
100025
99991.7
100127
99713
100138
100105
100153
100153
100155
99798.4
99801.5
100146
100147
100148
99633.6
100146
100147
99583.4
100140
100029
99691.9
99667
99559.8
99616.6
100151
100514
99895.1
99978.5
100091
99916.2
100148
100082
100241
100141
99984.1
100142
99318.6
100141
100141
100148
100148
100147
99971
98905.7
99940.8
99872.4
99900.6
100551
99886.4
99806.5
100047
99270.8
100144
100092
99570.9
99765.4
100091
99939.6
100092
100147
100153
101379
100153
100158
100229
100039
100020
100324
100332
100095
99748.7
100148
100221
100230
100197
99531
100140
100097
100037
100011
99407.8
100140
100516
100148
99094
99027.5
100007
99460.1
100142
100090
100168
100160
100147
99986.4
100146
100146
100147
100147
100035
99872.1
100003
99986.6
100008
99993.6
99987
100285
99974.4
99969.1
99976.3
100174
100169
100159
100149
99967.6
100174
100178
99971.5
100146
100020
99506.8
100146
100155
100088
100033
101230
100099
99971.4
100110
100140
100171
100261
100037
99860.4
99779.8
100146
100147
100149
100352
100147
99829.7
99619.5
99659.6
99905.9
100120
100121
99932.8
99854.1
99506.6
99903.4
99845.5
99861
100124
100518
99515.9
99937.6
100465
100637
99994.8
100684
100500
100165
100533
100125
100142
99621.7
99790
99720.1
99773.1
100112
100057
100247
100087
100086
100066
100061
100080
98887.1
100098
100036
99378.7
100143
100148
100136
100148
99955.3
99840
99995.1
99853.1
100091
99908.3
100112
100130
100033
99792.2
100085
100087
100058
100030
100055
99968.6
100057
100096
99847
100137
100056
100101
100400
100203
99464
99461.7
100134
99982.8
100447
100127
100039
99904.1
99481.1
99475.8
99472.8
100711
99969.7
100041
100003
99957.4
99837.7
99721.6
99655.2
99543.7
99571
99582.2
100370
100070
100104
100098
100090
100147
100151
100149
100146
100360
100149
100326
100330
100148
100099
100146
100130
99546.5
100147
100182
99692.3
100139
100137
101302
100750
99207.6
100272
100077
101109
100604
100060
100100
100092
99957.9
100125
99980
100299
100166
100147
100459
99364.6
100135
99888.3
99771
100001
99990.9
99885.1
99961.5
99874.5
100141
100141
100138
100139
100109
99909.2
99725
100151
99492.1
100120
100035
99495.5
99651.8
100103
100047
99613.4
100123
100127
99599.6
100129
99653.3
99953.9
99983.6
99952.6
100125
100128
99605.5
100130
100101
100133
100058
100145
99894.5
100104
100106
100127
100102
100393
100077
100136
100136
99312.1
99960.1
100038
100118
100365
100144
100110
100402
99860.4
99874.8
99872.9
100096
100080
100084
100108
100104
100100
100066
100071
100066
100070
100331
100059
100071
99878.2
99956.6
100150
100143
100146
100143
100075
100078
100094
100090
100088
100092
100140
100150
100149
100150
99965.4
100149
100150
100150
100123
100148
100082
100074
100079
100145
100140
100124
99958.1
99906.8
100197
100209
100132
100330
99853.9
100052
100148
100089
100148
100224
98675.8
99591.3
99312.9
100033
99662.4
99934.9
100536
99573.4
99690.2
99680.6
100127
100129
100135
100142
100133
100128
99470.4
99496.8
100092
100094
100131
100122
100087
100148
100148
99651
99975.6
99826.5
99546.3
100159
99751.1
99705.5
99852.3
99987.1
99852.3
100044
99757.7
99659.5
100028
99640.2
100285
100063
99988.9
100071
100152
100146
100150
100152
100152
99891.1
100152
100149
99785.2
100020
99979.4
100088
99989.6
99721.3
99596.3
99943.8
99965.8
100080
98992.2
99075.5
98779.6
100503
99443.8
99926.6
99638.1
100491
100234
99998.6
100394
100116
99710
99767.9
100098
100147
100148
100140
100079
100210
100010
100196
100033
100006
100041
99882.6
99862.5
99911.9
100073
100318
100211
99592.2
99997.3
99336.1
100107
99606.7
100118
98886.6
100127
100115
100086
100129
100150
100213
100145
99238.7
99542.1
98619
100135
100158
99638.1
98799.8
100152
100125
99479.8
99484.6
100151
99467.4
99792.3
99789.8
100153
100159
99596.6
99996.2
99962.2
100156
100026
99733.6
99501.1
100159
99728.3
99971.5
99984.6
100183
99980.8
99558.1
100186
100002
99591.1
100114
99967.8
100133
99572.5
100131
100800
100003
100147
100010
100527
99962.6
100098
100135
100142
100105
100150
100149
100149
99524.4
99510.4
99501.6
100043
100036
100020
100041
100018
100019
100148
100148
100035
100033
100126
100130
100139
100077
100128
100107
99982.3
100320
101204
100129
100124
98442.9
99999.4
99996.8
99933.7
99999.6
99899.7
99994.1
99915.7
99877.2
99844.6
100121
100123
100441
100141
100040
100148
100176
100263
100645
100080
99866.6
99893
99887.2
99894.5
99890
100123
100131
100130
100128
100128
100639
99630.4
99432.7
100299
99523.2
100847
99980.4
100171
100875
100139
101004
100132
100136
98586.8
100150
101366
99712.6
99701.5
99689.5
99689.9
100083
100073
100075
100074
100066
100149
100148
100149
100149
99875
99900.1
99913.5
99860.1
99912.1
100148
99974.3
99786.1
100199
100148
100148
100113
100137
100123
100146
100703
101453
98679.8
100150
100137
99920.7
100150
100974
99970.4
99964
100079
100529
100080
101333
100098
100368
101195
101189
100053
100068
99859.6
100775
99919.7
99951.9
99735.8
100034
99949.4
100047
100038
99987.2
100013
99903.3
100148
100180
100147
100148
100142
100150
101212
101206
99346.7
99426.2
100145
99442
99844.3
99846.9
100134
99757.7
100001
99983.5
100015
100002
99980.3
99989.5
100101
100880
100116
100101
100110
100125
100152
100151
100151
100150
99962.5
100132
100956
100114
99896.1
100011
100001
100007
99900.2
99998.6
99954.9
100001
100974
99982.6
99559.6
99897.4
99823.3
99961.8
99975.5
100143
99990.8
99420.9
100144
99885.8
100148
99997.4
99919.8
100975
100158
100137
100148
100150
100147
100148
100151
100152
100148
100252
100475
100148
99992.1
100109
100149
101343
100180
99603.6
99717.5
100149
100149
100150
99710.4
100962
100103
100122
100120
100085
100097
100097
99503.7
99395.4
100157
100148
99867.2
99931
100122
99935
100112
100148
100154
99436.9
99448.2
99430.5
99434.3
99847
99912.8
99717.2
99697.1
100006
100012
100012
100023
99952.5
100134
99915.1
99792.2
100150
99808.2
100138
99902.7
100126
99989
99888
100147
99320.7
101032
100144
100140
100876
100893
99417.4
99793
99955.8
100801
99979.3
99831.7
100811
99996
100025
100067
100076
100185
100162
100144
100151
100153
100152
100157
100157
100194
100197
100083
100228
100193
100147
100186
100506
100151
100151
100003
100187
100019
101337
100058
99983.8
100251
100354
100149
99941.3
99385
100147
99533.8
99865.5
99800.9
99489.4
99481.3
99678
99879.6
99897.1
100014
99485.4
100137
99939.2
100131
100120
100139
100148
100143
100149
100142
100164
100164
100158
100130
100039
100179
100712
100698
100159
99391.1
99847
99811.4
100008
100011
100019
100033
100020
99915.9
100099
100003
100133
99680
99566.3
99992.4
99938.8
99644
100117
99861
99884.5
99919.9
100016
100142
99970.7
99968.1
100149
100052
99941.6
100148
100148
100497
100147
100206
99950.9
99992.8
99605.7
100189
100187
100202
100163
100007
99857.6
99955.8
99807.3
99977.7
100067
100005
100020
100151
100147
100285
100150
100332
99627.7
100374
100304
100194
100064
100042
100082
100407
100279
100321
100286
100149
100029
100073
100294
100373
100110
99528.7
100110
100010
100192
100110
100072
100118
100121
100162
100159
100164
100161
99890.4
99761.6
99653.9
99738.8
100172
100024
100106
100022
100160
99112.7
100169
100170
99927.9
99836.4
100170
100175
100910
99582.3
99829.1
100018
100009
99270.9
100143
99343.9
99393.5
99688.9
100119
99366.2
99384.1
100245
100217
100222
100214
100219
99955.4
99891.2
100144
100144
100139
100150
100148
100111
100127
100122
100110
100119
101618
100153
99973.1
100037
99986
100164
99990
99320.4
100069
99994.3
100148
100002
99104.7
99274.9
100171
100176
99935.1
99681.9
100108
100116
100049
100131
99119.9
99542.7
99860.1
99805.6
99704.9
99733.8
100015
100008
100136
100132
100164
99985.4
99905.9
100154
100139
99575.8
99907.8
99668.5
99656
99646.2
99468.9
99662
99913
99914.2
99677.9
99790
99816.3
99669.8
100097
100062
99979.4
100114
99914.7
100144
100148
100149
100148
100148
99905.9
101271
100646
100146
100075
101441
99624.1
100140
100120
100028
100021
99019.7
99923.3
99204.5
99743
99901.5
100043
100089
100147
100147
100086
100096
100622
101107
100088
99818.1
99457.3
99975
99975.3
99870.2
99974.8
100145
100147
100148
100142
100129
100144
100140
100575
100098
100318
100147
99994.9
100024
100006
100008
100332
100035
100025
100017
99997.7
99995.2
100119
100029
100049
99643.6
99654.2
99901.8
99941.2
99931.5
99930.5
100086
100088
100090
100079
100138
100102
100154
100145
100144
100144
100143
100149
100789
100258
98985.5
100148
100149
100149
100146
100081
100158
99877.7
100155
100146
99473.8
100146
99663.9
100184
99344.9
99666.1
99675.5
100062
100150
100229
100142
100189
100133
100310
99945.4
98227.6
100077
100085
100063
100146
100148
100148
99950.7
99837.5
99816.3
100076
100064
99951.7
100153
100135
100158
98816.3
99276.8
99590.5
99607.4
98557.5
99266.6
100623
99948.3
99989.8
100099
100353
99547.7
99945.1
99537.1
100030
99983.2
100009
100016
99875.4
100179
100053
99517.2
99502.2
100138
99163.6
99883.7
100017
99886.8
99880
100047
100130
100032
100112
100148
100148
100148
99359.3
99516.9
99955.7
100042
99809.1
99800.8
99818
100132
100060
100107
100076
100115
100115
100117
100214
99111.3
99325
100062
100142
100208
100148
99594.1
99924.3
99803.3
100149
100148
99780
99929.3
101287
100135
100144
101280
99989.9
100597
100665
99241.7
98537.1
99219.5
100096
99714.3
99388.1
99697.6
99730.1
99741.1
99728.1
99730.6
99954.1
100005
99956.1
99941.9
99964.1
100095
100096
100156
100158
100148
100150
100148
100148
99639.1
99637.4
99649.5
100076
100080
100061
100115
100073
100147
100147
100371
100661
100242
99807.8
101002
100458
100311
99762.5
98525.9
99132
100134
100025
99956.8
100138
99885.7
100039
100271
99902.3
99989.4
99999.5
98895.9
100384
98897.4
100653
99751.7
98672.8
99448.6
99614.8
99860.4
99984.5
99980.4
100083
100113
100100
100145
100147
99884.4
99880.3
99904.1
99905.7
99909.3
99913.5
100101
100138
99819.2
99857
100074
100121
100132
101111
99517.9
100148
99533
100148
100148
100471
99754.3
100156
100042
100147
100126
101050
100840
100045
100726
100635
100128
100067
100107
100608
100951
100027
99822.8
100509
99744.5
99948.2
99965.9
100149
99974.8
100148
100111
100094
99805.7
100157
100151
100177
100144
100143
100340
100236
99790.9
99454.9
100123
100099
99477.5
99797.1
99874.8
99717.7
100148
100102
100147
99973.4
100147
100146
100083
100147
100134
101319
101051
99791.9
99313.7
99781.7
99647.5
99681.4
100555
99697.5
99797.3
99083.9
99931.1
99962.5
99960.2
99977.1
99980.6
100090
100082
99938.1
99947.3
99994.6
100173
99951.8
100052
100103
100135
100143
99927.9
99995.6
98880.6
98499.2
99983.5
100136
100211
100193
100153
100408
99998
100149
100095
100148
100149
100107
100148
100117
100115
100120
100122
100145
99912.5
100164
100143
99856.6
100158
100143
99982.8
100139
100260
100148
99973.4
99812.3
100159
100143
100070
100004
100118
100149
100146
99858.1
100150
100145
99724
100249
99986.8
99983.5
99987.4
100147
100122
100161
100104
100112
100101
100173
100124
100143
99374.9
100145
100151
100185
100159
100143
100166
99844.3
99912.3
100276
99617.7
100078
99991.3
99769.2
99561.5
100129
100129
100145
100032
100808
100153
99295.5
99142.3
99506.2
99410.4
100055
100138
99404.5
100155
100164
100179
99339.7
99631.4
99818.1
99474.2
99514.6
99608.4
100117
99934
100123
100109
100108
100133
100148
100147
100148
100148
99990
100173
100075
100099
100070
99987.9
99701.3
100137
99999.3
100145
100005
99340.7
99470.6
100075
100003
100017
99972.5
100149
100039
99130.9
100148
100106
100103
100115
100120
99416.4
100671
99733.4
100619
100149
99693.7
100152
99660.6
100095
100153
100098
100081
100147
99845.2
99845.6
99968.2
100107
100117
99965.2
100000
100203
100131
100104
100104
100152
100146
100148
100145
99587.8
99630.4
100058
100080
100059
100055
100148
100148
100546
100148
100148
100148
100484
100148
100466
100416
99642
101100
100152
100146
100148
99010.1
98705.3
100152
100240
99848.5
100150
100407
99500.4
99392
99742.4
100017
100020
99627.2
99823.6
99824.6
99624.7
99579.9
100148
100068
100099
100097
100110
100113
99458.4
100142
100012
100148
100147
100146
100280
100148
100311
100293
100282
100318
100310
100305
100290
100336
100754
100672
100172
100206
100204
100180
100173
99213
101073
99962.3
99977.9
99738.4
99982.2
99975.5
99968.7
100109
100092
100099
100083
100089
100148
100148
100287
100148
99990.5
100149
99629.3
100155
100213
100109
100102
99586.1
99547.3
100303
99919.9
99956.3
99941
100169
100141
100113
100130
100149
100060
100143
100149
99926.7
100142
100163
100161
100112
100010
100332
101360
99478.1
99491.2
99489.8
99471.7
100358
100166
99960.5
99985
100018
100148
100148
100527
100526
98738
100202
100187
100470
100074
100151
100052
100171
99601.3
99961.7
99760.8
100216
100224
100435
100355
100017
100100
100058
100086
100145
100151
100146
100091
100154
100380
100398
100428
100590
100506
100120
100421
100046
100029
100200
100610
100016
99994.1
100048
100210
100522
100012
100067
100095
100131
100140
100118
100130
99629.5
99811.3
99836.4
99851.1
99967
100141
100047
100088
100048
100089
100096
100054
100109
100107
100148
100143
100146
100129
100114
100129
100117
99751.8
100030
100056
99747.8
99339.9
99662.4
100004
100226
100442
101084
100427
100143
100142
100137
99361
99776.3
99824.8
99618.5
100031
100053
99773.5
100148
99927.3
99920.8
99931.2
99907.3
99867.7
99931.8
99888.2
100183
99469.9
99777.8
99320.4
99890.1
99987.3
100130
100246
99581.8
98877.7
100004
99990.1
99991.9
99672.5
99702.5
99538.4
99713.6
99758.2
99744.9
100215
99966.4
100149
100151
100178
100173
100174
100208
100158
100156
100156
100144
100278
100148
100125
100133
100207
99519.9
100042
99976.7
99359.7
99995.6
100020
100028
100021
100046
100150
100156
100155
100125
99929.8
99256.9
100156
100157
100151
100153
100153
100206
100159
100154
100078
100013
100168
100151
100306
99580
99737.1
100153
99548.4
99471.5
100145
100156
100145
99339.5
99386.3
99303.2
99411.2
99397.3
100003
99768
100144
100134
100131
99374.5
100296
100260
99976.4
100226
100226
100001
100014
99996.2
100280
100158
100057
100190
99564.8
100208
99815.9
99467.3
100012
100014
100148
100148
100148
99489.3
100148
99971.5
100013
100006
100224
100010
100009
100165
100221
100159
100001
100266
100260
100115
99950
100230
100319
100211
100112
100001
99954.1
100004
99958.9
100147
99979.4
100002
99970.4
99976.6
99942.2
100146
100190
100148
100148
100172
100154
100154
100158
100009
100001
99684.7
99750.1
99684.9
99739.9
100066
100192
100110
100150
100117
100147
100149
100039
100179
100168
100504
99997
99926.6
99365.7
100197
100209
100198
100226
100244
99880.2
99997.2
99994.4
99988.6
99998.8
100125
100139
100135
100107
100105
100144
100145
99521
99499.2
99513.5
100005
100148
100147
100148
100161
100118
100158
100247
100000
100036
100028
100005
100001
100082
99998.5
99998
100086
100154
99851
99823.8
99818.4
100154
100145
100094
100146
99992.8
99884.1
100124
100155
100151
99898.5
100153
100137
100132
100131
100020
100127
100020
100146
100438
99800
99812.2
100029
99750.7
100106
100094
100093
99469.8
100150
100062
100115
100107
100114
100104
100150
100060
100056
100146
99650.7
99936.5
99946.3
99458.8
99469.1
99671.7
100186
100145
100146
100050
100080
100126
100148
100146
100142
100131
100128
100135
100137
99784.9
99820.8
100146
100147
99922.2
99871
99977.1
99883.4
100250
100251
100051
99729.3
100134
100070
100086
99989.4
100715
99988
99976.8
99981.9
100024
100149
100150
100147
100145
100041
100145
100143
100549
100518
99979.8
99974.8
100031
100475
100556
99318.2
99315.9
99841.8
100082
99827.2
99489.9
99485.6
99920.6
99948.6
99981.1
99986.8
99993.6
99432.1
100076
99995.9
99905.3
99975.7
99930.1
100154
99751.2
98754.4
100230
100115
100223
98727.7
100040
99989.9
99461.4
100143
101260
100277
100918
100698
99520.3
100048
100310
100046
99785.2
99201.1
100073
100122
100077
100065
100064
100224
100050
100119
100112
100095
100167
100103
99600.2
99582
99911.3
99918
99906.1
99899.9
100058
99600.3
99560.9
99574.6
99953.5
100148
100015
99988.6
100148
99984
100090
99782.1
100030
99669.3
99670.9
99538.2
99200.6
100182
100148
99944.4
99836.7
99936.2
100143
100143
100140
100144
100133
100142
99935.1
101187
101228
100149
99695.5
99658
99527.1
99539.5
99991.2
99956.5
100033
100129
99966.7
100039
99990.3
99966.8
100132
99995.4
100111
100104
100117
100112
100143
99511
100213
99863.4
99851.7
99865.4
99769.6
100140
100141
100148
100205
99477.2
100148
100148
100137
99871.5
100114
100114
99858.8
99849.9
100121
100054
100096
100112
99920.2
100025
99773.8
101194
100983
100022
100086
100024
100131
100114
100139
100148
99465.7
99251.1
100148
100037
100047
100043
99278.3
99287
100085
100114
100108
100065
100022
100033
100046
100047
101093
100741
100760
100026
100852
100246
100193
100064
99563.3
100118
100069
100065
100017
99709.2
100199
100118
100206
100175
100106
100192
100198
100058
101772
100049
99925.8
99946.9
100043
101044
100026
100099
100038
99433.7
99658.2
100089
100041
100044
100148
100139
100106
100119
100159
100103
100136
100072
100365
99950
100084
100148
100402
100294
100148
100148
100148
100145
100149
100106
100124
100122
99953.1
99952.1
99946.9
99890.1
100082
99789.9
100144
100147
100148
100148
100164
100161
100148
100161
99168.7
99158.7
99681.9
100164
99239.7
99262.4
99683.7
99228.2
100191
100215
100163
100275
100125
100358
99727.6
100165
99559.9
99551.1
100020
100023
100182
100126
99936.3
100070
100081
100088
100127
99781.4
100150
100168
100148
100149
99761.9
99769.4
99758.9
100128
100132
100167
100156
100145
100147
100124
100123
100168
100158
100092
100925
100086
100160
100082
99252
100069
100058
100147
100146
100148
100148
100140
100001
100119
100162
100137
100178
100159
100156
99495.7
100156
100137
100111
100124
99487.3
99503
100150
100101
100209
100059
99849.7
100025
99919.4
99707.6
99697.7
99706.8
99670.8
100059
100054
100062
100096
99761.6
99451.7
99887.5
99906.8
100142
100318
100140
100232
100120
100066
100058
100148
100038
99505.3
100120
100140
100103
99578.9
100046
100093
100102
100087
100102
100018
100083
100039
100036
100186
99979
99983.3
100022
100165
100028
100048
99889.3
99909.8
99895.5
100048
100056
100034
99649.6
100386
99699.5
99711
99947.1
100029
100039
100034
100045
100103
100129
100136
100148
100141
100149
100148
100149
100149
100148
99743.3
99844.7
100158
99799.8
100005
100235
99822.8
100526
99818.2
99770.6
100136
100537
101673
100136
100136
100136
100137
100136
99888.8
100134
99781.5
99779.9
100006
100029
99992.6
100117
100131
100147
99887
100133
100145
100094
100133
100142
100060
100133
99792.9
99666.9
99827.6
99925.9
99842.3
100061
99955.6
100055
99951.5
100129
100127
100141
100148
100148
100142
100049
100096
99545.5
99792.4
99784.9
99686.4
99988.1
100010
100148
99558.9
99559.1
100084
99920.5
99906.9
99903.2
99898.1
100043
100159
100142
100178
100181
100134
100135
100179
100143
100552
100138
101081
100137
100137
100151
100038
100102
100040
100570
100778
101265
101628
100450
100610
100147
100025
99950.4
99988.1
99925.4
99946.1
100078
100103
99535.7
99518.2
99530.7
100138
100120
100148
99535.9
99859.7
99901.5
99894.8
99844
100056
100137
100146
100133
100148
100148
100147
100148
99617.3
99599
100140
99620.5
99611.2
100142
100052
99732
100340
100057
100054
100143
99989.4
99942.3
99936.8
100048
100050
100150
100150
100150
100147
100148
100148
100148
100241
100031
100003
100321
99984.3
100266
100264
100262
100242
100109
100129
100236
100148
100148
100146
100147
100188
100172
100145
100365
100516
100846
101336
101081
100997
100177
100173
100168
100170
100099
100051
99526.5
99720.5
99706.3
99966.6
99973.4
100167
100077
100080
100081
100128
99945.8
100145
100145
100148
100149
99920.2
99937.2
99956.5
99916.2
100087
100149
100055
100143
100149
100142
100147
101317
100145
100038
99941.2
100490
100531
99882
100558
100335
100922
100087
100253
99937.7
99969.7
100156
99890.4
100416
100067
100119
100129
100829
100450
100128
100748
100554
99355.6
99718.1
99644.5
99623.8
99980.1
100079
99553.3
100150
100148
100148
99513.7
99534.5
99574
99881.8
99886.8
100050
100021
100103
100138
100075
100133
100173
100135
100199
100107
100246
100148
100853
101202
99781.1
99643
99703.9
99679.6
100027
99910.4
100138
100060
100065
100129
100156
100093
100021
100067
100066
100064
100141
100559
100419
99786.6
100551
99668.2
100148
100148
100148
100148
99943
99950.4
99679.9
99168.2
100421
99601.1
99559
99761.7
99960.9
100028
100008
100127
99936.3
100062
100055
100066
100159
100144
100132
100146
100147
100147
100146
100145
100148
99978.4
100152
100174
100183
100153
99942.5
100006
100073
99506.2
99945.9
100298
100092
100102
100069
100075
100060
100063
99744.3
99782
100202
99778.7
100150
99760.4
100406
100147
99748.9
100365
100241
100312
99769.2
99763.6
100102
100457
100534
100098
100101
100261
99972.7
99970.7
99966.1
100338
100289
99539.7
99511.7
99939.8
99941.5
99889.6
99926
100114
100151
100032
100140
99925.4
100139
100148
100140
100145
100460
100540
100471
100147
100249
100188
101302
99574.1
99931.2
99453.8
99449.2
100042
99867.6
99994.1
99970.6
100171
100126
99997.5
100155
100147
100146
100178
100169
100027
99625.9
98856.1
100153
99931.9
100252
99439.9
99449.1
99443.8
99835.7
99839.2
99423.4
99448.8
99491.2
99913.3
99881.5
99816.5
99943.1
99970.2
99806.4
99929.9
99942.2
100052
100150
99925
100126
100136
100113
100146
100008
100145
100005
100148
100151
100236
100007
100114
100111
100121
99919.1
100115
100121
100123
100140
100255
99934.7
99929.5
99506.1
99367.4
99557.7
99572.8
99587.1
99564.4
100036
100058
99529.4
99552.4
100148
100148
100191
100173
100221
100238
100199
100087
100205
100086
100488
99619.4
100579
100724
100536
100023
100133
100128
100149
100140
100139
100127
100148
100150
100149
99971
99991
100021
100008
100157
100155
100143
98934.7
100140
100146
99995.3
100005
100144
100147
100148
100148
100147
100096
99791
99594.4
99079.3
99659
99806.1
100144
100145
99677.2
100173
100233
100026
100001
100073
99623.8
99822.5
100222
100458
100339
100188
100547
100010
100139
100008
100148
100149
100147
100147
100148
99933.2
99637.4
99516.5
100152
100160
100153
99817.3
99835.7
99843.3
99675.3
99561.8
100070
100072
99420.3
99451.2
99411.9
99952.8
99837.1
99962.2
99962.4
100284
100113
100082
100342
100272
100077
100124
99885
100150
100150
99291.9
100148
99994.1
99940
100143
100023
100220
100311
100146
100153
100052
100145
100173
100047
99648.6
100124
100142
100148
100136
100051
99994.3
99952
99978.5
100045
100159
100148
100111
100162
100167
100167
100173
100165
100181
100148
100152
100148
100155
100148
100140
100148
100161
100161
100195
100161
100209
99683.4
99577.3
100150
99997.1
99960.9
99962.1
99421.3
99422.5
99714.3
99957.7
100147
100145
99889.2
100509
100346
99898.2
100850
100635
99828.3
99822.1
100673
99814.8
99748.4
100012
100144
100157
100004
100149
100168
100149
100087
100042
100142
100076
100016
100000
99772.6
100105
100067
100148
100086
100148
100233
99850.1
99913.1
100124
100138
99546.4
100139
100133
99573.3
100033
100136
100040
100035
99996.7
100149
100149
99999
99998.6
100065
100166
99803.9
100448
101045
100538
99698.8
100123
99970.1
99969.3
100170
100133
100154
100102
100100
100153
100154
99486.6
100154
100190
100157
100147
100013
100009
100023
100145
100148
100148
100148
100148
101348
100147
101336
100801
100418
100146
99570.7
99974.3
99986.7
99606.9
99969
99581.3
99966.6
99875.8
99867.3
99919.9
100132
100136
100050
100160
100533
100051
100103
100052
100140
100536
100441
100064
100056
100868
100348
100026
100042
99647.5
101096
100803
99912.7
99934.4
99925.6
99936.3
99931.9
100053
99621.5
100400
100148
99644.3
99618.5
99631.8
100148
100148
99866.4
100137
100149
99825
99830.9
99848.4
99841.3
100020
100021
100025
100025
100122
100121
99770.7
99784.9
99756.2
99766
99782.3
100120
99547.9
99553.2
100119
99593.9
100118
100126
99736.6
99716
100134
99996.9
100148
100144
100150
100090
100099
100152
100151
100142
100142
100145
100141
100144
100145
99645.2
100719
101172
100105
100108
100016
100067
99991
100076
100050
100066
100090
100157
100142
100142
100141
100808
99928.9
99884.6
99945.4
99699
99616
99636.2
99751.3
99996.7
100136
100145
100152
100137
100147
100066
100426
100575
100321
100236
100248
99592.8
100148
100133
99918.7
99900.9
99886.8
99928.2
99913.1
99932.4
101354
98714
99233
100349
100164
100155
100155
100158
99954.1
99984.7
99976.5
99973.6
100079
100109
100160
100242
100151
100038
100101
99952.6
99182.5
99971.8
100006
99245.3
100022
99459.3
99998
99609.5
99306.3
99763
99953.2
100148
100152
)
;

boundaryField
{
    Inlet
    {
        type            prghTotalPressure;
        p0              nonuniform List<scalar> 0();
        value           nonuniform List<scalar> 0();
    }
    Outlet
    {
        type            fixedValue;
        value           nonuniform List<scalar> 0();
    }
    Symmetric
    {
        type            symmetry;
    }
    Wall
    {
        type            fixedFluxPressure;
        gradient        uniform 0;
        value           nonuniform List<scalar> 
213
(
99467.4
99527.1
99593.9
99662
99727.6
99784.9
99836.7
99879.6
99915.7
99947.1
99976.4
100002
100027
100049
100070
100088
100104
100118
100129
100137
100143
100146
100147
100148
100148
100148
100149
99467.3
99528.7
99596.6
99666.9
99732
99790
99837.7
99880.2
99918
99950.6
99979.4
100005
100029
100051
100071
100089
100105
100119
100130
100138
100143
100146
100147
100148
100148
100149
100150
99506.4
99495.5
99514.6
99573.3
99559.9
99579.9
99644
99627.7
99649.6
99711
99695.5
99713
99772.6
99757.5
99773.8
99826.5
99812.2
99828.3
99871.5
99858.8
99872.4
99909.2
99898.5
99911.3
99941.2
99931.5
99940.8
99971.5
99962.2
99970.6
99997.5
99989.4
99997.1
100023
100015
100024
100045
100038
100047
100066
100060
100067
100085
100079
100086
100101
100096
100100
100116
100111
100114
100128
100124
100126
100136
100133
100135
100142
100140
100141
100146
100144
100145
100148
100147
100148
100148
100148
100148
100149
100148
100147
100149
100148
100148
100150
100149
100149
100150
99484.6
99546.4
99496.8
99614.8
99561.8
99681.9
99630.4
99750.1
99699.5
99800.9
99761.6
99851.1
99814.8
99893
99859.4
99924.3
99899.9
99956.1
99934.9
99984.1
99965.4
100012
99992.6
100033
100016
100058
100040
100077
100061
100095
100080
100110
100097
100123
100112
100131
100124
100139
100134
100144
100141
100146
100145
100148
100147
100148
100148
100147
100148
100148
100148
100150
100149
99474.2
99539.5
99608.4
99677.9
99744
99800
99849.9
99891.2
99925.4
99956.5
99984.6
100010
100034
100056
100076
100094
100109
100122
100132
100139
100144
100147
100148
100148
100149
100149
100151
)
;
    }
    procBoundary3to1
    {
        type            processor;
        value           nonuniform List<scalar> 
32
(
98793.6
99443.5
99441.6
99778.2
100052
99270.7
99424.8
99430
98922.9
98504.8
98266.2
99447.6
99352.2
99042.2
98834.2
99157
100173
99452.9
97688.1
97894.5
99030
99936.4
99387.8
98156.3
99309.8
98595
99405.6
99095.4
99456.6
99196.2
99391.2
98363
)
;
    }
    procBoundary3to2
    {
        type            processor;
        value           nonuniform List<scalar> 
34
(
100150
100148
100201
100095
100119
100150
100085
100215
100053
100068
100151
100146
100147
100104
100141
100013
100148
100081
100148
100138
100131
100151
100021
99994.4
100131
100143
99890.3
100110
100124
99994.4
100014
100151
99968.1
100150
)
;
    }
}


// ************************************************************************* //
