/*--------------------------------*- C++ -*----------------------------------*\
| =========                 |                                                 |
| \\      /  F ield         | OpenFOAM: The Open Source CFD Toolbox           |
|  \\    /   O peration     | Version:  v2006                                 |
|   \\  /    A nd           | Website:  www.openfoam.com                      |
|    \\/     M anipulation  |                                                 |
\*---------------------------------------------------------------------------*/
FoamFile
{
    version     2.0;
    format      ascii;
    class       volVectorField;
    location    "0.02";
    object      U;
}
// * * * * * * * * * * * * * * * * * * * * * * * * * * * * * * * * * * * * * //

dimensions      [0 1 -1 0 0 0 0];


internalField   nonuniform List<vector> 
3596
(
(0.03171 -3.00942e-05 0.0744471)
(0.0363682 5.53493e-05 0.0689114)
(0.0394234 0.00294806 0.0672317)
(0.00212108 -0.000937974 -0.0257351)
(0.00318953 0.00271858 -0.0231214)
(0.00230916 0.000938943 -0.0249654)
(0.0479421 -0.000831598 -0.0433593)
(-0.011979 -0.00100386 -0.0407804)
(0.062816 -0.00315426 0.115576)
(-0.00411358 0.00431505 -0.0484616)
(-0.291883 0.0362515 -1.43665)
(0.0381262 0.00578545 -0.060525)
(-0.221004 0.0377974 -1.25216)
(-0.278733 0.0180222 -13.4005)
(0.00498847 -0.00683004 -0.0444651)
(0.0280278 0.00271208 -0.0179019)
(-0.177899 0.0209293 -12.0974)
(0.304772 0.0165446 0.640233)
(0.0493829 0.0219196 -0.0093327)
(0.0776415 0.0426045 0.0124059)
(0.00175216 -0.00222116 -0.0325098)
(0.209271 0.00382687 -0.154092)
(0.0098287 0.00231905 -0.0976534)
(0.0163922 0.00542032 -0.0177186)
(-0.00242823 -0.000614706 -0.00122647)
(-0.261378 -0.0274172 -2.23645)
(0.0619574 0.000372742 0.239272)
(-0.148125 -0.0686334 -2.49648)
(-0.16208 0.0229421 -1.64475)
(-0.0974918 -0.0237128 -1.9268)
(0.0132459 0.005165 -0.00562541)
(0.389285 0.0112085 0.573743)
(-0.167511 -0.0537549 -2.59547)
(0.00318517 0.0103951 0.00648121)
(0.0138553 0.00227271 0.226846)
(0.0097225 0.0209179 0.185888)
(0.0112956 0.00348057 0.223264)
(0.0251843 0.00635449 0.230738)
(0.0147724 0.00151672 0.070251)
(0.040242 0.00106544 0.0246031)
(0.0798591 0.000889676 0.0233556)
(0.0296894 -0.00721864 0.106875)
(0.0148111 -0.00213062 -0.0264355)
(0.00599937 -0.0100945 0.0943064)
(0.0022149 -0.00287275 -0.0349432)
(0.000160642 -0.00368064 -0.00434903)
(-0.0027263 -0.00414991 -0.0390092)
(0.0197993 -0.00239572 -0.0319855)
(0.0141109 0.00136072 -0.0312355)
(-0.00306215 -0.00562567 -0.0386111)
(0.00769912 0.00159267 -0.018128)
(0.00845258 -0.00226708 0.0472426)
(-0.00869831 0.00198033 -0.031756)
(0.00570528 -0.00260554 -0.0138025)
(-0.0107016 -0.00168616 -0.0482691)
(0.0609511 0.0101477 -0.212717)
(0.0145373 0.00028066 -0.0627802)
(0.291813 0.00328491 0.111951)
(-0.00622583 0.0134694 -0.0458046)
(-0.17986 -0.0143329 -0.0748795)
(0.041475 -0.00363014 0.0712503)
(0.115999 0.0108921 -0.10926)
(-0.0597422 -0.0193993 -0.157715)
(-0.225614 0.0114599 -0.0457905)
(-0.0442963 0.021286 -0.132237)
(0.0329172 -0.00519502 -0.0124711)
(0.00157089 -0.00182824 -0.0268195)
(0.0122083 -0.00030361 -0.0271742)
(-0.0673225 -0.0159139 -0.0697889)
(-0.00316469 -0.000493543 -0.0510258)
(0.0231215 -0.00316944 -0.0442335)
(-0.0665876 -0.0082544 -0.0917786)
(0.307444 0.012988 0.120992)
(-0.375698 0.0235952 -12.6059)
(-0.29085 0.0263748 -10.9299)
(0.130069 -0.0807731 -2.39858)
(-0.288469 0.0517579 0.407129)
(0.315757 -0.0324732 -0.990602)
(-0.11687 0.00306862 -0.064904)
(-0.152346 0.0208287 -12.0196)
(0.0013781 -0.00222679 -0.0394788)
(0.0142907 -0.00732845 -0.0619057)
(0.0184992 -0.00588007 -0.0350236)
(0.00701959 0.000447004 -0.0511495)
(0.0122795 0.00483058 -0.0423173)
(-0.0257117 0.0206387 0.299976)
(0.0324659 -0.00975575 -0.0820669)
(-0.196964 0.0325167 0.268689)
(-0.137344 0.0154214 0.164684)
(0.0139355 0.0112843 0.11259)
(0.254803 -0.0424283 -1.07429)
(-0.12817 0.0140618 -0.117967)
(0.0340549 0.0248741 0.594065)
(0.00849395 0.00326778 -0.0410325)
(-0.00024531 0.000884075 0.0424096)
(0.00338976 -0.00523494 0.0155823)
(-0.00178429 -0.00447389 -0.0363065)
(0.00252008 0.00114544 0.00140307)
(0.00867584 0.00340692 -0.0221419)
(0.00164091 0.00354735 0.0237792)
(0.0471217 0.000120963 -0.054522)
(0.00423834 2.53164e-05 -0.0424901)
(0.0028773 6.38584e-06 -0.0465483)
(0.374299 0.0492162 0.243029)
(0.0222904 0.00138008 -0.0438173)
(0.00830017 -0.00379292 0.0208565)
(-0.00232392 -0.0144621 0.176699)
(0.00489343 0.00875118 0.00074764)
(0.000405551 -0.0092202 -0.0570971)
(0.0616197 0.00306137 0.196772)
(0.00691365 0.00986524 0.212358)
(0.00795936 -0.00261935 0.172509)
(0.0342668 0.00267112 0.194441)
(0.0240737 0.00839171 0.0343907)
(0.00399166 0.00379072 0.0475745)
(0.00663922 -0.00465782 0.0362122)
(0.00854904 0.0110205 -0.0066897)
(0.0135795 0.00919751 -0.00377604)
(0.00476451 0.0106644 -0.0261635)
(0.00758234 0.00110438 -0.0380144)
(0.00880041 0.00191442 -0.0394815)
(0.264052 -0.00365245 -2.5861)
(-0.00653294 -0.000851688 -0.028071)
(0.0309961 -0.00478722 -0.0185546)
(0.0154842 0.00212632 -0.0503757)
(0.0205912 0.0112206 -0.0176033)
(0.0087122 0.003136 -0.0383952)
(0.00637416 -0.0037607 -0.0560026)
(0.0273601 0.0115037 -0.0326889)
(0.00546482 0.0011935 -0.0540198)
(0.00330712 -0.00388762 -0.0572526)
(0.00812274 0.00699724 -0.0396296)
(0.000627702 0.000894774 -0.0386338)
(0.00801654 0.000841724 -0.0568713)
(0.3027 -0.0204401 -4.05291)
(0.0308898 0.0840741 -2.38347)
(0.148359 -0.0279562 -3.66779)
(-0.00485829 0.0874733 -1.81254)
(0.086985 0.0138781 0.0838486)
(0.0158773 -0.00362764 -0.00665754)
(-0.000218375 -0.00079681 -0.0252095)
(0.00512179 -0.00423715 -0.0327326)
(0.0396689 0.00081171 -0.0894951)
(0.297451 -0.0221861 -3.12022)
(0.300584 0.0138134 -0.213594)
(-0.531076 0.0981044 -2.1819)
(-0.268002 0.0330745 -12.4219)
(0.336502 0.0938968 -0.380984)
(0.136599 -0.0772971 -0.933028)
(-0.0381836 -0.016141 0.286372)
(0.0605511 0.0308594 0.373887)
(0.0751946 0.0086953 -0.0570408)
(0.0883904 0.00998184 0.13402)
(0.0181342 0.00046808 0.0789593)
(0.00432023 0.000217703 0.00122874)
(-0.399712 0.0626891 -2.77338)
(0.290393 0.000297743 -0.273123)
(-0.394249 0.0984971 -3.32383)
(0.0370907 0.00629577 0.00105905)
(0.0671678 0.00356617 0.219443)
(0.00195514 -0.00205804 0.0576282)
(0.0452557 0.0025689 0.0689808)
(0.0155737 -0.000837789 0.0668022)
(0.0663279 8.96137e-05 -0.0435034)
(0.00937107 0.000401787 -0.0297585)
(0.0285951 0.00457941 0.02549)
(0.00478913 0.00210602 0.0255735)
(0.00203041 0.00385913 0.026111)
(0.0299371 0.00183291 -0.0392012)
(-0.000430197 -0.0180009 -0.0173278)
(0.0271753 -0.00200135 0.0158582)
(0.00719544 0.00731667 0.00850585)
(-0.00461813 0.00109413 -0.0233127)
(0.0166849 -0.00355051 -0.1906)
(-0.00272918 0.0108192 -0.070064)
(0.0265394 0.00850787 -0.142942)
(-0.00180135 -0.0037989 -0.0342582)
(-0.0378589 -0.00327979 -0.0536671)
(0.0693605 -0.000329815 -0.0566594)
(-0.00273171 -0.00435079 -0.0391737)
(0.00677961 -0.00848208 -0.0127931)
(-0.00199229 -0.00090288 -0.0170664)
(0.0164617 -0.0119449 -0.00693984)
(0.0235904 0.00271301 -0.0860726)
(0.00561227 -0.00114 -0.0247316)
(0.0194436 0.000235889 -0.0530831)
(0.0126792 0.000243233 0.0206581)
(-0.00325526 -0.00233804 -0.0617997)
(0.000571728 -0.00256224 0.0259233)
(0.917383 0.0803887 -1.96402)
(0.291698 -0.0350297 -4.5286)
(0.0319534 0.0874745 -0.0890003)
(0.238225 0.0416668 -1.87741)
(0.0316283 0.00214772 -0.0841368)
(0.0262267 0.000572824 -0.0789217)
(-0.0211972 -0.0160283 -0.0202448)
(0.319736 0.0248665 -1.46122)
(0.175527 0.0236168 -0.0277965)
(0.119083 0.00782397 -0.0432109)
(-0.321013 0.0303106 -11.7)
(-0.187003 -0.0329874 -0.112706)
(0.0891193 -0.0011975 -0.0962033)
(-0.00432896 -0.00119384 -0.0793849)
(0.213122 -0.0751511 -0.467771)
(0.320746 -0.0617315 -2.47409)
(0.870304 0.0512733 0.140334)
(0.185359 -0.0773186 -2.48181)
(-9.77122e-05 0.00784046 -0.0043301)
(0.878282 0.0417184 -2.6812)
(0.739825 0.00321056 -2.46603)
(0.244148 0.0161894 0.174354)
(0.00870947 0.00141609 -0.0479724)
(-0.101952 -0.0282131 -2.35708)
(0.00566172 -0.000204342 -0.040205)
(0.00281121 0.00108675 0.0535516)
(0.0276802 0.00126338 0.00199896)
(0.167488 0.020449 0.210992)
(0.13739 0.00970227 0.269147)
(0.00469435 0.00285852 0.0126619)
(0.0447226 0.00290289 0.0471222)
(0.0314518 0.010548 0.0556117)
(0.0682508 -0.00244412 0.0612642)
(0.0394318 -0.00589797 0.0507181)
(0.0174686 0.0064182 -0.0073167)
(0.0303632 0.00292512 -0.0417604)
(0.0359303 -0.00143104 -0.00828891)
(0.00141704 0.00301709 -0.0235792)
(0.0172462 0.00129621 -0.0381993)
(0.00970319 0.00697376 0.0953075)
(0.0173322 -0.00320069 0.109607)
(0.0271872 0.0307394 -1.11494)
(0.00271713 0.00607339 0.106881)
(-0.0133926 -0.000634735 -0.0473833)
(0.00606075 -0.00768751 0.12563)
(0.00704811 0.00124945 0.142268)
(0.0504491 0.00608549 0.141206)
(0.0912871 -0.00392524 0.141883)
(0.0769617 0.00101886 0.117623)
(0.0510606 0.0166881 0.120041)
(0.00238764 -0.00452592 -0.0175572)
(0.00403378 -0.00421693 -0.0161942)
(0.00360276 0.00223475 -0.0167211)
(0.0745086 -0.00366407 -0.144968)
(0.000606549 -0.00414682 -0.0218667)
(0.000129426 0.000432838 -0.0167981)
(0.0454962 0.00139571 0.114668)
(0.00441179 -0.0075553 -0.0444617)
(0.00325837 -0.00528574 -0.0385531)
(0.0203208 -0.00153482 -0.0481675)
(0.108188 0.00185236 0.0979679)
(-0.0054681 -0.00134957 -0.058012)
(0.222183 -0.00695443 -0.140266)
(0.0871606 0.00835808 -0.132972)
(0.109986 0.00554908 -0.0628629)
(0.00715224 -0.00328095 -0.0481947)
(0.00231595 0.000576435 -0.0487426)
(0.200744 0.0032019 0.193507)
(0.00256534 -0.000482194 -0.0499357)
(0.000568022 -0.00277047 0.187285)
(0.0187723 -0.00890424 -0.0317333)
(0.0174299 -0.00306843 -0.0358189)
(-0.000222215 0.0109091 0.0310004)
(0.00302646 0.0196703 -0.176245)
(0.0014082 0.00102219 -0.0180382)
(0.00222004 0.00383989 -0.0140727)
(0.0526035 0.00640679 -0.0648153)
(-0.00183631 0.00649857 0.0883912)
(-0.639978 0.0416425 0.242601)
(-0.173002 -0.148858 0.151846)
(0.204002 -0.0370703 -0.0195575)
(0.285865 0.0737447 0.0422097)
(0.167464 0.00272303 0.0209095)
(0.136891 0.0208539 -0.17156)
(0.00876506 0.00609877 -0.0831754)
(0.00704304 -0.00153439 -0.0366436)
(0.266651 0.0533545 -1.8581)
(0.0669467 0.00579609 -0.068988)
(0.0750994 0.0100897 0.215426)
(0.0517491 -0.00532669 0.0413128)
(0.0565613 -0.00312227 0.033772)
(0.0440281 0.00318106 0.147769)
(0.0389809 0.00687665 -0.00514672)
(0.0600658 -0.000605858 -0.0551215)
(0.00433324 -0.00216892 -0.0233217)
(-0.00831011 0.00839234 0.127554)
(0.011809 -0.00731733 -0.0245041)
(0.0183098 0.0031501 -0.0338555)
(-0.00394237 0.00185661 -0.0496346)
(0.0229263 -0.00107732 -0.0477697)
(0.0188071 -0.00247246 -0.0459596)
(0.00613103 0.00442494 0.0925199)
(0.116106 0.0106557 0.0703436)
(0.0133987 -0.00158719 -0.0537372)
(0.00438035 -0.00548572 -0.049958)
(0.0152326 0.00458296 -0.0378174)
(0.0118612 -0.00875585 0.173301)
(0.0111078 0.000131526 -0.0507928)
(-0.00499916 -0.00248358 -0.0583803)
(0.0702744 -0.0315951 -0.152553)
(0.0170758 0.00449366 -0.041679)
(-0.0129346 -0.00391695 0.0104807)
(-0.144942 0.0182056 0.594695)
(0.0793054 0.00217599 0.136249)
(-0.451815 0.0582846 -2.61071)
(0.0419497 0.0180982 0.612257)
(0.0253684 0.00371696 -0.04642)
(0.151085 0.0190463 0.00193683)
(0.00116809 -0.0043364 0.0555782)
(0.660651 0.0409201 -0.137864)
(0.0446096 0.00215668 -0.0333507)
(0.393472 -0.00365367 -0.00700182)
(0.00106755 0.00243165 -0.0449357)
(0.175199 0.0150745 -0.122483)
(0.299405 0.0250281 -0.229581)
(0.0235696 -0.00844333 -0.0416633)
(0.00358843 -0.00285896 0.00916954)
(0.0111673 0.000803547 -0.0246695)
(0.218755 0.0730742 0.83371)
(0.0388281 -0.0132205 -0.0369226)
(0.0360239 0.00272035 -0.0249186)
(0.000505336 -0.0013081 -0.0419207)
(0.0109678 0.00411825 -0.0366025)
(0.00364807 0.00193199 -0.0427658)
(0.00116419 0.000487569 0.00720834)
(0.536253 -0.111307 -0.578087)
(0.00363465 -0.000857642 0.022845)
(-0.000256142 0.00230677 0.0468215)
(0.066902 0.000969399 -0.0989419)
(0.572914 0.032222 -0.276134)
(0.0478558 -0.00174418 0.0374687)
(0.0315292 0.00772401 0.081155)
(0.0298742 0.0141288 -0.0146493)
(0.0432805 0.00391401 0.29024)
(-0.0185448 0.00219015 -0.0397006)
(0.00788576 -0.000846526 -0.0270282)
(0.0107759 -0.00194223 0.185316)
(0.0696222 -0.0104428 0.100654)
(0.0134888 -0.00129295 -0.00905927)
(0.0915158 0.00555667 -0.00226695)
(0.00844103 0.00673229 -0.00604399)
(-0.000694878 -0.00174733 -0.0490554)
(0.0114935 0.00216282 -0.0494262)
(0.252683 -0.0663745 -2.7097)
(0.00914639 0.000938533 -0.0481846)
(0.0156374 -0.00364491 -0.0485487)
(-0.1112 0.00508452 -0.100114)
(-0.17888 -0.00573061 -0.0263217)
(0.00477907 0.00297135 -0.00110654)
(0.247929 0.00396147 0.0799726)
(0.21611 0.0443737 0.467836)
(0.00609256 0.00463158 -0.00607188)
(0.0461486 0.00354162 0.110563)
(-0.00262217 -0.000844856 -0.056613)
(-0.0165157 0.00248529 -0.0658478)
(-0.0246401 -0.00414895 -0.0795132)
(0.0120459 -0.00460301 -0.0455422)
(0.0496386 0.00340669 0.197501)
(-0.00281504 0.000366731 -0.0328062)
(0.0222934 0.00495042 -0.0353168)
(0.0482487 0.0026012 -0.0677388)
(0.00173894 0.00190051 -0.0319118)
(0.233232 0.00650093 0.231847)
(0.00844675 0.00142469 -0.0408301)
(0.276893 0.0499443 -0.170267)
(0.000222676 -0.00175177 -0.0411515)
(0.625535 0.0123288 0.396977)
(0.35254 0.0480993 0.425409)
(0.0546888 0.0069393 -0.0448136)
(0.0493407 0.00173251 0.24038)
(0.00843618 -0.0026411 -0.0389295)
(0.00357487 0.000362384 -0.0298068)
(0.0223726 0.00388191 -0.0512052)
(0.0128695 -0.00119245 -0.052146)
(0.00393829 -0.000627134 -0.0585096)
(0.0633179 -0.000125445 -0.0642934)
(0.00745151 -0.000330846 -0.0497947)
(0.00374513 -0.00012664 -0.0527431)
(0.00313582 -0.00308479 -0.0547303)
(-0.00351106 0.00476132 -0.0647338)
(0.0706003 -0.00106441 -0.0604503)
(0.108854 0.00440066 0.024042)
(1.56554 -0.0317313 0.268819)
(0.106945 -0.00060725 -0.0509745)
(0.0516147 0.00109913 -0.0528378)
(0.0926163 -0.00301404 -0.0764662)
(0.0632493 0.00713516 -0.0639975)
(-0.0575103 0.00264989 -0.133003)
(0.063487 0.00720642 -0.0645834)
(0.0202155 0.00953738 0.0231584)
(0.0295267 0.00328494 0.0214688)
(0.00742956 0.00218322 -0.0855844)
(0.0113343 0.000122222 -0.074584)
(0.0213972 -0.00384243 -0.0704657)
(0.0242647 0.00838379 -0.0928718)
(0.0176593 0.00153115 0.016637)
(0.0438773 -0.0084219 -0.0788773)
(0.0732901 0.0134665 -0.0756143)
(0.0237816 0.0114568 0.0226636)
(-0.00162498 0.00127939 -0.0478816)
(0.0215768 -0.00518754 -0.00036247)
(0.0465287 -0.0054828 0.208685)
(0.00434035 -0.00374643 -0.0417166)
(0.01069 -0.00251634 -0.0468887)
(-0.293068 0.0109729 0.142349)
(-0.216724 0.104533 -0.19227)
(0.456858 0.0896455 -0.233734)
(0.320795 0.000989984 0.0314623)
(0.0226241 0.00214842 0.0047891)
(0.00926485 -0.00531298 -0.0239652)
(-0.0360659 -0.00315838 -0.015917)
(-0.10104 -0.0202794 -0.0714922)
(0.071841 0.00879021 -0.106999)
(0.034692 -0.00250515 -0.061069)
(0.00880948 0.00158153 0.0715432)
(0.0246108 -0.0122274 0.104005)
(0.0174611 -0.00743076 -0.0332361)
(0.0308301 0.00154676 -0.0387596)
(0.0240052 0.0020592 -0.0486402)
(-0.0239932 -0.0170965 -0.203594)
(-0.00680641 0.00372237 -0.0455564)
(0.314329 0.0109447 0.0367258)
(0.207675 0.00946129 0.150208)
(0.145654 0.0190746 0.147499)
(0.247297 0.0164004 -0.00853394)
(0.0287331 0.00350083 -0.0865605)
(0.020267 -0.00141446 -0.094668)
(0.0935397 0.0091006 0.0203084)
(0.0208212 -0.00452581 0.0629436)
(0.0948299 -0.00513737 0.210721)
(0.0548306 0.00567209 0.0150241)
(0.0297402 -0.00250101 0.0661413)
(0.0219804 -0.00268994 0.063869)
(-0.00131833 0.00164281 -0.0246743)
(0.539775 0.0262584 -0.320371)
(0.0329758 -0.00229934 0.215093)
(0.0594836 0.0071253 0.0084441)
(0.512184 0.0195204 -0.348282)
(1.45284 0.028643 -0.359935)
(0.0523054 0.000220027 -0.0629165)
(1.20147 0.0226018 -0.153719)
(0.781895 0.0884627 -0.38362)
(-0.0493443 0.00483846 -0.0459972)
(1.14079 0.100105 -0.0774484)
(0.00283139 -0.0053863 -0.0294209)
(0.00386615 -0.00380893 -0.0299939)
(0.0112107 0.0092276 0.203649)
(0.00353332 0.00254233 0.0840848)
(-0.0015901 0.000732259 0.155517)
(0.00613513 0.0050785 0.103068)
(0.00935137 -0.00122362 -0.0270185)
(0.0329598 0.0016538 -0.00308234)
(-0.0539142 0.0603928 -2.34741)
(0.1725 0.00263877 0.0937293)
(0.0901647 -0.00525013 0.282351)
(0.0192606 -0.00674582 -0.13371)
(0.0202614 -0.000653953 0.390344)
(0.155448 0.000802769 0.0843428)
(-0.617043 0.0444672 -3.57493)
(0.0138815 0.0103977 -0.0220923)
(0.0136465 -0.0151289 -0.00542862)
(0.0990625 0.000429258 0.249433)
(0.0207741 0.00161627 -0.0622836)
(0.00467012 -0.000745557 -0.0580474)
(0.0303727 0.00180822 -0.0778032)
(0.00406773 0.00094353 -0.0483149)
(0.0362394 -0.00200076 0.00854985)
(0.147352 -0.00629025 0.0371531)
(0.0724882 0.00642571 -0.0606008)
(0.0250693 -0.000140565 0.0643802)
(0.0364752 0.00125899 -0.0471145)
(0.00705001 -0.0148179 0.0325745)
(-0.00507571 0.00202367 -0.0306357)
(0.000709021 0.00379858 -0.0246333)
(0.00268721 0.0118824 -0.00256739)
(0.14759 0.00938748 0.0608118)
(0.0420223 0.00480725 -0.0376591)
(0.0325257 -0.0020954 -0.0021679)
(0.0373383 -0.000986386 -0.0523791)
(0.0676605 -5.59644e-05 -0.10617)
(0.0420461 0.00555712 -0.0573261)
(0.0591265 -0.00246248 -0.011033)
(0.0990547 0.00811086 -0.0928503)
(0.207492 0.0120649 -0.124057)
(0.462026 0.106306 -0.268869)
(0.00279078 -0.000574446 -0.0311954)
(0.194204 -0.000508381 -0.0905859)
(-0.00626512 -0.00284193 -0.0276234)
(-0.265027 0.0284273 -12.5127)
(-0.0142156 0.00248357 -0.0564845)
(0.0245621 0.0033081 0.232914)
(0.0362915 -0.00470398 0.229909)
(0.00317564 0.00103667 -0.0270056)
(0.0618216 0.0031505 -0.0216025)
(0.181666 0.0611834 -1.15302)
(-0.0136043 0.000924362 -0.0296565)
(0.0325592 0.00752482 -0.000485867)
(0.00998902 -0.00171805 0.0278745)
(0.0426119 0.00328278 0.217562)
(0.0261597 0.00817109 0.228609)
(0.0359429 0.00129301 0.223032)
(0.173436 0.0291652 -1.05758)
(0.100806 0.00395957 -0.033238)
(0.00856752 -0.0241638 -0.006969)
(0.339132 0.00940835 -0.0580108)
(0.0551368 0.00843163 -0.0620657)
(0.00389991 -0.00107715 0.0623549)
(0.00253472 -0.0101429 0.127078)
(0.0616909 0.00638577 0.154359)
(0.154707 0.0231831 0.199205)
(0.135609 0.0143823 0.172027)
(0.114812 0.00312508 0.169669)
(0.0475631 -0.013226 -0.225928)
(0.011677 0.00450487 -0.0067341)
(0.0164336 -0.00122853 -0.0187316)
(0.0015958 -0.00029628 -0.0468793)
(0.0907135 0.00135816 -0.0764772)
(0.00384534 -0.00216154 -0.0352857)
(-0.002297 0.000604328 -0.0396759)
(-0.00158228 -0.00568539 -0.0453869)
(-0.0122785 0.000326235 -0.04224)
(0.0423552 -0.00306603 -0.222044)
(-0.00507561 -0.00198656 -0.0423115)
(0.0198073 0.00727024 -0.173315)
(0.0448481 -0.00544821 -0.167569)
(-0.00174557 -0.00514529 -0.0440441)
(0.0395367 -0.00849514 -0.0618646)
(0.0205607 0.00380543 -0.0432004)
(0.359225 0.023487 0.409851)
(-0.454748 0.101323 -3.08896)
(-0.00492716 0.00206714 -0.0467057)
(0.266248 0.0275954 0.423953)
(0.0254527 -0.0607406 -0.922235)
(0.020171 0.0018254 -0.0337092)
(0.0100906 0.000217258 -0.0303519)
(-0.113375 0.0371368 -11.087)
(-0.318867 0.0252504 -12.6677)
(0.201519 -0.0100728 0.366803)
(0.401295 0.00305987 -0.323224)
(-0.00764422 0.000953279 -0.0277779)
(-0.0491916 0.100507 -1.77983)
(0.162877 -0.0404664 -4.4265)
(0.0171055 0.00460197 -0.117823)
(-0.0433802 -0.0158055 -0.11203)
(0.116627 -0.00236467 0.0039943)
(0.00522519 0.0033167 0.0252774)
(0.0497442 0.000530939 -0.0667273)
(0.0884069 0.0077864 -0.0371335)
(0.228686 -0.0677372 -2.51342)
(0.0164081 -0.000731884 -0.0582957)
(0.00455371 0.00969752 -0.0400059)
(-0.0843657 0.0134655 0.028797)
(1.44766 0.109814 -0.817236)
(0.00584679 0.0018076 -0.03646)
(0.0554388 -0.00072416 -0.0881995)
(0.077843 0.0082777 0.0865042)
(0.0513372 0.00604389 -0.046782)
(0.0505448 0.000878606 -0.0130334)
(0.116122 0.00371371 0.0164752)
(0.0297552 -0.00103513 0.0082289)
(0.0334267 -0.00317723 0.0635977)
(-0.00332831 -0.00257113 -0.046292)
(-0.0084042 0.00254903 -0.0444798)
(-0.00253238 -0.0023105 -0.0366374)
(-0.00423289 -0.000226856 -0.0336141)
(0.0192916 -0.00599863 -0.0314257)
(0.00375465 -0.00467193 0.0282818)
(0.0754904 0.00745099 0.0702661)
(0.0117774 -0.000607154 -0.0327715)
(0.22396 0.0143558 0.207777)
(0.136772 0.019211 -0.114852)
(0.00708293 -0.0127857 0.000564274)
(-0.00783263 0.0140742 0.195311)
(0.284549 0.0860176 0.798345)
(0.122492 0.0143088 -0.0940399)
(0.123212 0.00396591 0.00946493)
(0.0212455 0.00293799 0.170928)
(0.0279685 0.00748144 -0.0302396)
(0.00951538 0.00105429 -0.0299472)
(0.152601 0.00548561 0.165107)
(-0.000130335 -0.00161068 -0.0329063)
(0.0717624 0.0036144 0.13949)
(0.0519577 0.0044782 0.000296968)
(0.00583723 0.00444079 0.00523279)
(0.00859458 0.00203495 0.0224731)
(0.0195393 0.00193136 -0.0223355)
(0.0329396 0.00495865 -0.0298829)
(0.135804 0.00227163 0.161741)
(0.0199968 0.00485317 -0.0338744)
(0.00503443 0.00301075 -0.0219958)
(-0.00604492 -0.0011711 -0.0322887)
(0.00671636 0.0122558 -0.0175136)
(0.00016928 -0.00421125 -0.0351225)
(0.0743665 0.00449833 0.0319875)
(0.0186873 -0.00438446 -0.0349517)
(0.0121297 -0.00615324 -0.0333252)
(0.188674 0.0239215 -0.0127265)
(0.17493 0.0152525 -0.000337926)
(0.0564706 0.0155856 -0.210483)
(0.003515 0.0120507 -0.110175)
(-0.00228094 0.00028605 -0.0297935)
(-0.00259743 0.00157324 -0.0346061)
(-0.237926 0.0255655 -12.6642)
(0.0748195 -0.00392946 -0.0763246)
(-0.0111852 0.0103481 -0.0476043)
(0.042762 0.0645672 -0.655854)
(0.253256 0.0157221 -0.135212)
(0.0984517 0.0135049 -0.174967)
(0.0198108 0.00187689 -0.0249729)
(0.302248 0.0202915 0.391631)
(0.10312 0.0018325 0.0428684)
(0.102977 0.00322098 0.0364073)
(0.081392 0.00806125 0.0508289)
(0.0422371 0.00015559 -0.0394859)
(-0.00297103 -0.00420668 -0.0179804)
(-0.0111441 -0.00133329 -0.0138218)
(0.0136716 -0.00102472 -0.0236074)
(0.00585733 0.00402345 -0.0336747)
(0.00310974 0.00263049 -0.0290708)
(0.016617 0.000169518 -0.0172422)
(0.0218442 4.94118e-05 -0.020031)
(0.0102059 -0.00643571 -0.00746359)
(0.0198546 -0.000907044 -0.0147324)
(-0.143421 -0.0195607 -0.0675003)
(0.000636597 0.00489917 -0.00546181)
(0.00876302 0.00138738 -0.0151189)
(0.0846495 0.00144055 0.0397104)
(0.000588364 0.00261119 0.009652)
(0.0252259 0.00305666 -0.0465013)
(-0.0119366 0.00448412 -0.0388926)
(-0.00294106 0.00056395 -0.0362834)
(-0.0129265 -0.00109059 -0.0341365)
(0.0382805 0.00468188 -0.0177012)
(0.0260144 0.00447881 -0.0144684)
(0.025174 -0.00188892 -0.0199633)
(0.0145046 -0.000882799 -0.00619829)
(-0.00300501 0.00715796 -0.0142139)
(0.00511923 0.00494378 -0.0246847)
(0.00246325 -0.00171132 -0.0309599)
(0.0102384 0.00451737 -0.0486337)
(-0.0053237 -0.00300592 -0.0394938)
(-0.00972384 0.00209986 -0.0475916)
(0.000999426 -0.00344812 0.0213934)
(-0.00732537 -4.6148e-05 -0.0425497)
(0.0130931 0.00285322 -0.0556593)
(0.00528857 0.00491319 -0.0588843)
(0.0132313 0.00932902 -0.0285416)
(0.00121149 0.0040446 -0.0498017)
(0.027239 -0.00225288 0.00340497)
(0.0389624 -0.00032046 -0.0154673)
(0.0344474 0.00108845 -0.0270519)
(0.0126017 0.00167318 -0.0520461)
(0.0188685 -0.00677841 -0.0640314)
(-0.00192189 -0.00141612 -0.0347362)
(0.0148858 -0.00443265 0.0261288)
(-0.281502 0.0509877 -1.53063)
(-0.0490191 -0.0188879 -0.0189656)
(-0.062022 -0.00961668 -0.0590722)
(0.351355 0.0159039 0.160004)
(0.511132 -0.00132654 -0.345777)
(0.00544501 -0.00596498 0.0505552)
(0.174876 0.00801494 -0.0956191)
(0.00159232 -0.00173117 -0.0449335)
(0.088874 0.00443147 -0.0660582)
(0.00947554 0.000608931 -0.0382357)
(-0.00709161 0.000515322 -0.089629)
(-0.305859 0.0583556 -3.51591)
(0.156821 -5.99595e-06 0.160756)
(0.191273 0.00149372 0.296404)
(0.0136173 0.00876823 -0.0126705)
(0.100319 0.0116683 0.140557)
(0.00237397 -0.00206718 0.029458)
(0.238545 -0.0589753 -4.82412)
(0.0507457 -0.0021923 0.180582)
(0.0499212 0.00428058 0.153697)
(0.124676 0.00859667 0.121839)
(0.0402435 0.000830212 -0.0941995)
(-0.00340467 0.00182838 -0.0253969)
(0.00235641 0.0011838 -0.0283759)
(0.022348 -0.00179709 -0.0585422)
(0.0334597 0.00308951 -0.0854059)
(0.0382077 0.00190349 -0.0909913)
(0.0154579 0.0154926 0.242143)
(0.00410307 0.0198648 0.190844)
(0.324601 0.0283086 -0.108821)
(0.14916 0.0143225 -0.117008)
(0.305115 0.00240871 -0.163263)
(0.00031007 -0.00825595 -0.0364017)
(0.304997 0.0215691 -0.103119)
(0.00209096 0.00134085 -0.0382478)
(0.00393994 -9.77718e-05 -0.0482592)
(0.029976 0.00601509 0.168966)
(0.19329 -0.0459504 -5.01837)
(0.00791226 0.000650649 0.0664229)
(0.0448535 -0.00286632 0.185403)
(-0.0195869 0.0280014 -0.146672)
(0.326403 -0.00809751 0.0913909)
(0.14747 0.00277614 0.121808)
(0.273146 0.00631466 0.0189094)
(0.0484832 -0.000127485 -0.00607702)
(0.0660124 -0.00686545 0.0730045)
(0.012999 0.00509727 0.000306744)
(-0.437928 0.0262027 -12.4817)
(0.102365 1.76557e-05 0.140311)
(0.0284366 0.00276459 -0.0595219)
(0.0207633 0.00337731 0.173916)
(0.0591089 -0.0014438 -0.12469)
(0.0100865 0.0158174 -0.0209952)
(0.0533672 0.00375262 -0.0581824)
(0.0036888 0.00328747 -0.0242253)
(0.107269 0.00613239 -0.1905)
(-0.00995336 0.00334245 -0.0500802)
(-0.00632002 -0.00319172 -0.0462592)
(-0.00549004 0.000342164 -0.0485925)
(0.00346508 0.00228087 -0.0535802)
(0.221215 0.00490223 0.00641705)
(0.00825197 0.00635275 -0.0671971)
(0.0140957 -0.00102641 -0.0426916)
(0.0977373 0.00261538 0.0921118)
(0.00891978 0.00295473 -0.0446382)
(0.0792704 -0.00290717 -0.0799833)
(0.0555576 -0.000804004 -0.0637659)
(0.131921 0.0171013 -0.0459955)
(0.120798 0.0107228 0.151168)
(0.179422 -0.0139744 0.385113)
(0.0504655 0.00401352 -0.0701683)
(0.0519139 0.00651407 -0.0705463)
(0.0478382 0.00101963 -0.0617121)
(0.245193 0.0207253 0.453147)
(0.399805 0.0126297 0.426433)
(0.439202 0.00837868 0.580609)
(-0.228571 0.0319542 0.106012)
(0.0511945 0.00430128 0.232111)
(0.0955586 -0.000461199 -0.00808167)
(0.0634347 0.0113504 0.141731)
(0.21414 0.0294415 -0.0484614)
(0.391072 0.0233406 -0.262977)
(0.0477035 0.00304157 -0.0478508)
(0.143385 -0.0467553 -4.57994)
(0.0337795 -0.00713588 -0.0325474)
(-0.00335816 -0.000460001 0.133302)
(0.101649 0.00127603 0.0841021)
(0.0495284 0.0050084 -0.0742117)
(-0.0180816 0.00327309 -0.0449361)
(0.00896354 0.000179382 -0.0382604)
(-0.0042461 -0.00474957 -0.0372527)
(0.249018 0.0251646 -0.103635)
(0.03284 -0.00224216 -0.105811)
(0.197448 0.00970979 -0.0607474)
(0.00437822 0.00208042 -0.0807813)
(0.208258 -0.00134995 -0.0822679)
(0.237322 0.0186036 -0.0433194)
(0.253953 0.00869671 -0.0604967)
(0.357875 0.0240293 0.0181438)
(0.0998458 0.00771841 0.0508633)
(0.143905 -0.000938516 -0.00231306)
(0.137035 0.00471919 -0.109447)
(0.745637 0.0211733 -0.340551)
(0.105122 -0.00434799 -0.113368)
(0.0957667 -0.00558873 0.171922)
(0.0812384 0.00701607 -0.0735201)
(0.468571 0.0241394 0.295498)
(0.0458455 0.00247724 -0.0739079)
(0.0905264 0.00373123 0.15685)
(0.0589603 -0.00317721 -0.0664069)
(0.311586 -0.0906975 -0.880396)
(0.0513508 -0.00370376 -0.0641816)
(0.0511676 -0.00177712 -0.0685003)
(-0.00470324 0.000552763 -0.0221382)
(0.00700082 0.0035224 -0.0275226)
(0.0447183 -0.00144476 -0.0824172)
(-0.00530063 -0.00346117 -0.0842496)
(0.0507705 -0.00208911 -0.0677613)
(0.228389 0.0135048 0.358705)
(0.0657646 0.00285292 0.194874)
(0.59114 0.045155 0.566797)
(0.0208028 0.000920382 -0.0845862)
(0.0214086 -0.00253859 -0.0523649)
(0.652554 0.0154647 0.0913729)
(0.775992 -0.017036 0.581581)
(3.70424e-05 -0.00389647 -0.0435196)
(0.0417398 0.00300974 -0.0917918)
(-0.000972685 -0.0194066 0.202152)
(-0.00981925 0.0139717 0.205212)
(-0.00410054 0.0013807 -0.0710712)
(-0.00754448 0.0186444 0.199225)
(0.00921036 -0.00506604 0.0940801)
(0.0271476 -0.000870995 0.106367)
(0.0246244 0.00473213 -0.0671991)
(0.0315661 0.000555016 -0.0612388)
(0.00196272 0.0180506 0.172095)
(0.00170756 -0.00192531 -0.00731143)
(0.00429814 -0.000858143 0.0179342)
(0.0061758 -0.00100387 -0.0709273)
(0.109234 0.000641027 -0.0781679)
(-0.266806 0.0223963 -12.9343)
(0.0420299 0.00267134 0.211717)
(0.016389 -0.00293536 -0.0710701)
(0.0816805 -0.00198937 0.107089)
(0.0102787 -0.00263746 0.0194718)
(-0.00469895 0.000211912 0.0121885)
(0.0120519 -0.000681791 -0.0879393)
(0.0290313 -0.0127904 0.00804849)
(0.055895 0.00744118 0.194755)
(0.0160582 -0.0021939 -0.0825688)
(0.00431937 0.000634679 0.0084491)
(0.0725388 0.00758186 0.182453)
(0.0384291 0.00212018 -0.0732654)
(0.0067574 -0.00111443 0.0184508)
(0.0320637 0.00171119 -0.0757182)
(0.0675446 0.00914991 0.195656)
(0.0131932 -0.00597105 -0.138509)
(-0.366713 0.0466189 0.356994)
(0.0591728 0.00314076 -0.0432695)
(-0.00208818 0.0016814 -0.0429872)
(0.0839428 -0.000169213 -0.0659076)
(0.0875179 -0.00953268 0.260679)
(0.0538969 0.00025317 0.00828238)
(-0.00298133 0.0119914 -0.0370051)
(0.00308336 -0.00484833 -0.0303588)
(-0.00722237 -0.00678881 -0.0343204)
(-0.0388268 -0.0156076 -0.0887396)
(0.0433482 -0.00155684 -0.0648632)
(0.000870013 0.0116501 -0.0353804)
(0.0285627 -0.0135051 -0.0382446)
(0.0236217 0.00211807 0.197581)
(0.0017655 -0.0196998 0.190384)
(0.0271843 -0.00323257 0.209219)
(0.0294925 0.00370416 -0.0471624)
(0.0130615 0.00299926 -0.0232167)
(0.00144094 0.0066526 -0.000448075)
(0.0314671 -0.00212962 -0.0416439)
(0.00238452 -0.000227191 -0.00175425)
(0.0062917 0.000782634 -0.0034657)
(0.00703518 -0.00380449 -0.0401907)
(0.000867081 -0.000198758 -0.0625661)
(0.0362047 0.00546016 -0.0515526)
(0.0380806 0.00236559 -0.0400888)
(-0.011885 0.00152308 -0.0316008)
(-0.00189421 -0.00173083 -0.0250552)
(0.00297002 -0.00445852 -0.0300533)
(-0.00649299 0.00159866 -0.0138091)
(-0.00253182 -0.00142119 -0.0308104)
(0.00810612 0.00177997 -0.0319474)
(0.0577743 0.00192749 -0.0582208)
(0.229367 0.0167786 -0.255344)
(-0.275533 0.0322053 -12.4624)
(-0.0137994 0.000520836 -0.0291705)
(-0.000190301 -0.00248451 -0.0248237)
(1.68857 0.100815 0.669255)
(0.0522287 0.00255015 -0.0438385)
(0.0497424 0.00289546 -0.0323745)
(0.126231 0.00545882 -0.0200724)
(0.0429065 0.00298697 -0.0238938)
(0.106546 0.00422603 0.0144328)
(0.0359098 0.00234959 -0.0112733)
(0.00387654 0.00201131 0.0223157)
(0.0382812 0.000910157 0.0457292)
(0.176895 0.0113124 0.0471428)
(0.00226656 -0.000874211 -0.0313405)
(-0.00135439 -0.00154956 -0.0275009)
(0.108776 0.0232714 -0.078166)
(-0.00190818 -0.0025842 -0.023167)
(0.0143329 0.00601854 -0.0139502)
(0.00709472 0.00714943 -0.0407322)
(-0.0360789 -0.0033934 -0.104607)
(-0.0212668 -0.00448485 -0.111166)
(0.713488 0.0342624 -0.163617)