/*--------------------------------*- C++ -*----------------------------------*\
| =========                 |                                                 |
| \\      /  F ield         | OpenFOAM: The Open Source CFD Toolbox           |
|  \\    /   O peration     | Version:  v2006                                 |
|   \\  /    A nd           | Website:  www.openfoam.com                      |
|    \\/     M anipulation  |                                                 |
\*---------------------------------------------------------------------------*/
FoamFile
{
    version     2.0;
    format      ascii;
    class       volScalarField;
    location    "0.03";
    object      p;
}
// * * * * * * * * * * * * * * * * * * * * * * * * * * * * * * * * * * * * * //

dimensions      [1 -1 -2 0 0 0 0];


internalField   nonuniform List<scalar> 
3585
(
100924
96637.8
95472.9
101839
99864.7
102072
101641
101992
101978
101978
71894.7
101976
101981
101975
101116
101082
101127
101019
99418.6
101818
99237.7
92400.7
95546.5
110658
125517
112580
99332.2
117846
96303.7
94204.3
95589.6
86029.8
98977.4
100849
92192
88372.8
90720.9
99169.6
105263
98909
104694
146196
102263
98577.8
100320
100552
100191
117166
95947.7
108436
98859
158320
94406.5
100285
71885.6
1495.13
101874
101631
101817
99028.9
101846
100094
99850.9
100108
101871
101650
101687
101707
99882.9
100473
100313
100597
100208
98687
101403
100416
101436
101361
99475.9
99332
101388
100527
99354.3
99148.5
100314
102277
98429.1
100706
108047
106092
105417
100053
99663.6
101970
108375
101931
107963
109613
102532
107147
96990.1
102126
98322.9
101054
101955
101463
97100.7
99646.7
98802.1
101992
101778
100082
112900
100917
102107
100799
100018
100084
101970
98704.7
98832.1
101975
101592
101975
101611
101544
101432
101950
101579
101536
101599
101833
99171.3
99122.1
99023.8
101807
100272
99074.4
98404.8
101377
101843
99130
104228
95416.9
101026
100540
100760
101670
99672.5
101460
100466
103697
104019
95126.7
73993.8
94779.2
103246
108860
77050
101861
102564
92881.9
102452
102402
103727
107805
105754
99782.4
79793.2
78172
98607.5
99716.4
101866
102202
100101
101988
101618
101920
100629
101892
101978
2246.35
102316
101160
101629
101708
101731
101727
99118.4
101798
101027
101087
99211.1
101851
101802
101860
100564
99265.8
96861.3
101857
99774.2
99245.4
99077.8
98705.7
99088.2
99334.4
101852
99850.1
101519
99781.1
100287
107835
108638
101269
99726.9
96278.9
109254
107649
90498.2
109115
106702
70956.2
107522
102140
84958.4
104075
99302.9
99059.2
105789
98883.5
99704.1
101973
98987.9
102032
100693
100504
101967
101932
98875.6
101725
99134.1
101484
101606
101693
101275
87361.2
100989
99553.2
101927
99506.1
99851.4
99923.7
100090
101146
101771
135884
100208
101979
101706
101717
101880
101407
99479
99947.9
98183.4
98718.8
101090
79250.7
101767
102202
98552.4
96964.8
102382
94474.7
102451
100801
101981
101368
101353
101362
101528
98555.1
98537.5
98601.7
101159
113955
101876
111087
111069
106766
106114
84768.8
101331
101785
101533
101871
101858
101868
101432
101991
100253
99519.4
101317
101978
101252
101985
101997
102000
101055
100721
101789
100716
101422
101371
102793
99975.2
101857
100336
100312
100308
101639
102604
100178
101616
104073
103299
65515
98354.8
103050
100219
102382
101404
102569
101430
102543
99367
108240
101302
101307
101276
101289
100189
102003
100472
101565
101861
99175.6
99640.7
108907
100013
98955.7
102137
101974
101926
102097
101810
101787
101279
102099
88773.5
102775
98075.2
101484
98257.5
99037.7
102038
101455
99988.9
101985
100976
101817
101837
101409
136212
101970
68186.5
150235
152048
91898.9
101922
102042
101803
123773
101917
98927.3
99610.5
101980
101898
93182.8
76106.2
104827
101939
100169
101819
125986
102482
102440
102560
101145
101845
101695
101701
101715
101732
101713
101800
102062
101350
101973
101683
101519
102237
101191
101222
101637
99218.3
101084
99375.6
102390
99954.4
100340
97619.4
99648
101597
101110
102017
101974
101890
102152
99062
101864
99192.1
101413
99566.4
101477
102018
101426
101447
101705
101446
103912
99786.8
101388
100012
115124
102337
102851
102243
97699.6
101901
101970
102844
98775.3
99382.7
101870
102376
121313
99464.5
97824
101271
101217
101201
98901.4
98771.2
121628
146127
101753
101988
106004
124477
98160.1
100067
102336
101193
101757
101504
100058
101581
101965
101990
100014
99956.1
100610
98795.7
59530.6
55563.5
102227
102078
112317
111840
102560
112035
113084
113505
102251
99078.6
101960
101968
101941
99162.6
99949.2
102241
101736
101981
100597
100977
103362
99245.6
97305.3
100884
100146
100645
101975
107453
100830
110853
99263.2
111575
110515
109427
97886.5
90148.2
98150
164654
119275
101905
87298
101614
101872
100897
141854
99251.7
99360.2
100932
99738.6
98441.4
97597.7
101365
102205
99147.2
105052
96448.8
101975
98633.4
97512
145087
90733.4
97026.5
154188
111609
102387
102482
102332
101855
76231
102288
101880
100707
93945.4
100554
101856
101792
101651
102776
100664
100465
100839
100779
101875
99842.5
101873
101386
101861
101981
101521
98422.6
83466.5
73739.2
74913.9
76269.1
74784.4
79178.7
101305
102659
101929
101990
98261.6
100523
99721.3
102152
100713
99736.8
101288
101495
100318
100118
106268
106083
109796
109075
101358
101978
103097
129477
105318
101981
101028
101955
102047
101995
102139
102039
102186
101831
101155
100617
102131
93571.4
100411
100595
100551
101720
99880.8
99697.2
100587
111790
138117
101841
101820
104724
98875.9
101941
101950
101937
98717.6
101665
101614
100776
93618.9
100650
100951
100905
100031
98231.1
100430
102602
100946
100581
101072
98939.5
99938
100698
108138
87412.3
101377
100060
99632.6
99988.7
104846
98534.8
98594.7
102592
102543
102410
100990
102495
101932
101869
100967
101133
101894
99007.2
98740.5
101791
99694.1
102198
100627
95484.1
100949
101621
101577
102451
102547
100133
101770
99375
71012.4
102033
100943
101300
72228.2
101974
69945.1
101990
69969.7
101947
101556
106212
101772
102097
101492
101503
101547
101539
101416
101756
101423
101520
97991.3
101690
101742
101890
103704
104115
104142
130051
78300.6
96250.9
73089.3
103983
103782
102049
101799
102044
104705
102118
99625.2
102989
102085
103254
99979.1
100017
99832.2
99681.8
102187
102169
102439
107735
106965
104879
103788
99456.8
101988
101974
101973
100993
102050
101032
99403.8
97439.4
99627.1
102044
102019
102006
101573
102111
99495.1
101549
101590
99041.9
101629
101615
101589
101546
101650
101727
101535
95771
100378
100867
100137
102032
95903.8
95120.7
95560.5
101739
101752
101758
101781
102021
101599
94428.3
75000.7
78647.8
101785
80725.8
101516
98827.5
101916
101972
101576
101536
100672
102057
102073
101481
101480
101183
160049
98954.9
101235
90263.1
110858
101153
100696
98883.2
117786
116480
93051.1
92869
98636.9
98336
99409.1
97905
99140.6
100348
98441.4
99506.9
101942
101096
101780
101972
101584
99733
99913.1
101967
99662.5
98169.5
100745
102658
100949
108497
109489
102143
108196
99611.7
95502.2
101520
101577
102452
102106
114532
89740.1
105097
98211.5
102152
102063
124090
102502
105984
101904
102420
102119
99446.4
101765
101640
101013
101415
101155
101770
101337
101633
101155
101880
104620
109404
101908
101729
101745
101731
96351.6
98040.5
95399.6
101233
101372
101975
101515
101970
101759
102380
102303
102143
95249
101776
101290
101274
102352
101289
101306
101246
99668.1
101672
101501
101285
101681
101662
101579
99910.6
101537
101695
102383
100401
103627
101238
102535
101840
98875.9
101263
101751
99049.7
98989.6
102303
93576
96757
96275.8
100388
94084.6
100499
99551.2
101959
101893
101927
101899
99567.3
100509
100350
93458.4
100458
100638
100380
100514
99504.3
102319
98818
101857
101163
101557
100996
101961
109774
101962
101960
101959
85518.4
102560
101953
110390
109146
110721
100744
112100
113831
100715
103490
96793.7
102023
100252
100690
99679.7
99857.8
101967
99674.1
101764
98996.1
99723
99620.5
100679
98735
102363
82087.5
94869.7
103854
100197
101344
101353
101475
101467
98807.1
98765.8
98904.5
100979
98797.5
94571.4
97283
60224
77207.3
113749
81232.4
107855
101967
101967
101977
101972
100635
101997
101804
101214
100540
56985.7
101693
100773
101077
100824
100894
101042
100818
100452
99317.3
127683
98939.4
99167.4
100483
99100.4
99532.8
98807
99162.2
99873.7
95926.9
98351.5
107245
97991
99684.1
99924.2
81993.1
101017
103611
104467
82377.2
84493.6
88510.3
98453.2
100567
101827
95686.2
101701
103276
102818
99887.4
102210
107608
99951.5
99050.8
98980
99395.4
99279.2
106419
104537
103860
101573
100303
102893
105326
103196
98112.4
101885
102944
102344
101888
102059
101813
102520
102545
102441
107614
110545
101970
107312
98772.2
101533
101596
97921.9
96784.3
99414.5
99689.2
102014
102076
101996
101938
102039
101679
102079
96433.7
100548
100669
102297
101168
100455
101451
105316
102196
102070
102087
102013
101752
101738
101304
98969.2
101204
101217
136350
98610.6
101561
98706.2
98738.7
102045
101879
101878
102049
101861
101846
101297
101486
101026
99133.1
98690.4
103055
89936.5
96507.2
102410
67672.7
70111.4
69545.7
83074.4
102227
102095
107646
101749
101933
101968
102712
103021
101419
100423
98360
102083
98743.8
88618.4
98833.3
98891.8
98363.9
108160
102361
102501
102433
102512
101928
101964
101879
101933
98800.8
101507
100560
100493
99398.8
110642
102092
102173
102044
102219
127977
101994
101761
101258
101246
101952
101166
102169
101668
101634
99812.4
90947.8
99836
107565
99425.2
99297.4
101970
102120
99601.1
99283
99150.9
102138
101877
101796
101379
101964
107775
101616
100001
99405.5
99782
99227
98865.5
95611.2
101764
98818.2
83274.4
97538.7
98676.6
99197.4
102233
102417
97135.6
102132
101811
102392
101711
101140
98692.7
101967
101959
101207
101376
101328
97009.1
95209.2
98540
100719
101218
101331
101939
101975
99750.9
101924
101757
78636.9
101435
101837
99961.1
93546.7
99598
91699.7
104595
100556
111648
100041
102281
102088
102072
101775
101748
101887
93529.8
101830
102124
99092.7
101973
98720
101471
99030.2
102027
100441
102030
101566
102067
102277
87972
101824
101795
101995
101880
101229
101267
112309
117376
102353
99138.1
102328
99459.6
102316
99894.3
99770.6
98486.6
102303
99438.4
100001
98927.4
99822
88374.8
101887
101864
102382
101631
101609
102439
99890.6
101612
95800.7
101237
101335
101891
102347
100625
97767.4
97658.4
102392
102056
97304.6
116264
102473
67892.2
75272.5
114445
101933
102026
102585
96745.6
96703.3
101946
102384
66796.2
120250
101977
101961
101826
101261
101321
98861.8
106585
99070.5
86601.5
158458
102106
105173
104622
97590.2
102939
83995.8
92614.2
102198
102037
101833
101855
101939
101850
101374
101233
101210
85949.4
100176
100418
99779.7
102723
98110.2
95768.4
102416
101985
101948
100728
101073
103853
103041
100357
100614
100354
101338
101905
101990
58275.8
101996
101957
97781.8
103638
101508
101537
101975
101790
101738
101458
101200
99051.1
101968
101971
101305
100316
101579
100480
99009.7
101500
146303
101495
101562
101641
100158
99404.2
98408.1
104640
102151
101950
102014
101324
100222
101321
101190
101429
101980
101961
100217
103778
98938.1
126889
101805
101693
101691
101424
101437
101308
101081
99475.3
101918
99906.4
98953.5
98822.8
100436
100680
100610
101446
101485
100389
98722.7
98800.9
100026
98730.3
98802.7
98720.7
99773.4
79309.3
100302
100381
107545
90590.3
82684.6
99748.7
101703
101662
123367
99429.8
101827
98831.7
101867
106195
102557
99973.1
100037
102099
98808
58275.1
100380
96951.1
98749.2
151861
100875
97400
105369
102046
101939
101941
102114
101995
101882
101809
101887
102648
101457
101198
100316
101067
106070
101993
98848
98882.7
98779.1
101559
102945
100736
102478
102095
101683
101972
101488
95513.9
101328
101412
101040
101158
99621.2
101448
98644
98824.3
98747.6
96122.5
100567
106647
97888.6
99021.9
104911
103225
115130
87799.3
100891
101139
101500
95531.7
99631.5
99733.9
99688.1
99651.8
99724.7
101521
101969
101787
101776
98940.7
101812
102096
101139
102085
101845
101665
101593
101880
105383
97449.3
101219
103620
101268
97047
89541.2
93388.6
98166.9
101981
90506.4
101706
101680
101649
101818
101279
96434.5
102189
90973.4
101975
99165.6
101986
99087.1
103170
102546
101971
101118
101136
101123
99729.8
99381.5
99586.1
99225.6
99131.3
99106.5
99109
101891
101540
95139.9
126972
137694
76064.9
112906
128952
130902
114269
114975
101851
102267
119955
92048.8
92808
101982
103469
90973.8
101905
99599.4
99320.8
101625
101658
100883
100867
98942.2
100437
99007.8
99095.3
99049.8
99768.3
99823.6
80856.9
96900.9
88426
98737.9
101343
99748.6
101547
101830
101897
101437
75408.4
101423
100955
100481
101127
100102
98733.4
98665.6
98823.1
98530.4
101691
101046
100965
100996
100936
101480
99047.5
101502
101497
98771.8
98758.6
98007.3
98658
98742.8
105530
106371
105706
102261
116884
99873
105937
101606
103215
104134
109220
102988
101035
75770.5
103500
101398
100468
104153
101537
101811
100840
101329
101893
102410
102162
101907
101884
101956
101837
101415
98413.8
101363
101424
101502
100349
100255
100417
97949.9
99819.7
98878.6
113162
92108.2
102749
98402.5
101645
101971
102199
101845
102165
105262
104275
105721
101960
101983
101975
98515.8
98547.6
100800
100762
100752
99960.3
99728.6
102379
100036
100014
105480
106175
104226
96360.8
102108
102987
101925
98261.7
101921
101669
101648
101347
98745.8
96450.1
104275
100882
101101
101615
99215.7
100187
94625.9
103620
105755
99342.6
98764.4
98610.9
102029
101908
101591
98885.8
99221.5
101904
101329
101490
100506
100210
97443.8
95009.3
97229.8
101231
101996
105788
104115
102178
101977
102656
101777
101991
101973
101521
101797
101769
89156
100565
99895.1
100119
94923.5
100585
91956.1
93293.7
99457.3
101824
98732.2
98766.7
98748.3
114422
102573
101551
83360
91616
100660
108984
101963
101958
101048
105927
102354
100225
101886
101938
101926
101611
101613
101599
94612.4
101594
99149.5
101559
101306
101561
101556
100738
100309
98396.7
97507.1
113083
98499.3
106048
106138
85398
101703
103593
78931.8
102695
101984
102142
101580
101616
101129
101682
101653
102001
99064.8
99303.1
101719
101494
101815
101574
98925.2
102003
101982
102169
101984
100527
106489
100654
101944
77015.7
98847.3
99161.7
98617.5
98735.6
101984
101376
101337
101352
101998
102077
102035
101476
102063
101411
101373
101585
101523
101425
100894
100965
101453
101546
92110
93975.1
93396.3
101765
101833
101189
101979
101992
102001
102012
111803
101905
118015
102414
101776
100632
100800
101043
102000
100827
101050
102403
100264
101805
101851
98936.5
100346
97705.5
111941
102494
102690
102525
102596
102598
102540
101958
102275
99911
100873
99399.8
97823.7
100582
99016
102359
112900
101714
101752
104197
101734
103871
100827
100256
101020
97042
96698.5
101977
101964
101741
101754
101392
101675
101148
100656
100154
99803.6
101802
108777
101227
101298
101990
99750.1
101466
101489
101592
102028
98765.3
98812.6
98855
98844
71397
116743
98384.9
98861.4
96113.9
96440.5
102872
86397.1
97468.3
120282
98853.8
98144.5
98774.2
102073
101829
101958
102075
101961
102091
101659
101182
101775
101771
100183
101724
101762
100144
99714.4
99460.5
99453.3
98927.1
99350.2
99523.6
99132.2
97429.6
85712
85574
105491
101975
104538
103672
101599
101631
100945
98728.7
94486.4
100245
101311
101241
101371
101161
98801.2
98738.7
119919
108705
101792
101614
102218
87254.7
98353.2
98447.6
98740.5
98287.2
98515.3
98900.3
99071.6
91069.7
101825
105333
101995
102069
101922
102526
102920
102983
102834
101588
102557
102561
101831
101699
102841
98972.7
99264.7
98822.3
99269.2
97897.7
100324
120597
116298
118439
100920
100973
101307
101698
65626.5
101843
101088
101762
100122
100648
61241.8
99303.3
100472
75202.7
98727.2
87119.3
77926.8
73157.7
98216.9
105328
101680
101652
103700
101726
101004
119477
96799.8
102811
102527
99862.3
102666
102211
101833
101905
101336
101536
101404
99833.2
99554.3
100257
100126
98938
100060
97394.3
86826.8
86150.4
101518
108004
101436
102621
88815.6
101450
102009
101745
101387
88947.4
101609
101693
97198.8
83968.1
99152.4
97860.1
94814.1
97461.2
102437
102394
101410
100031
100355
100942
102012
101762
101927
99862.3
100126
98994.1
101903
99337.3
101041
101275
101411
101185
101514
100035
99428
99489.2
96839.1
98373.5
97413.5
101579
101356
101381
99816.4
101315
101262
100975
101143
100514
102050
100696
100958
102173
100773
97058.3
94450.9
95451.1
97660
101082
100139
100939
100994
100775
100558
100751
100705
101581
101970
101724
98994
101371
101905
101729
98629
95944.8
101770
102004
98681.7
100260
101347
101329
100170
101364
81903.5
95960.2
98476.2
101347
96122
102037
102369
101593
93912.8
100016
102363
100091
102256
102193
101776
101700
101590
100760
101064
98654.8
99602.5
105566
99168.4
98104.2
101434
97897.3
98789.2
97851.1
101683
101716
96760.6
101698
101531
101658
110836
99807.1
101170
101780
101541
101632
101682
99215.5
98890
99971
101353
120220
100638
99940.2
101765
101559
99641.9
99480.6
99483.7
102720
102261
102209
99554.2
102447
101508
101499
101503
99015.2
100130
99165.9
98929.7
125557
134589
102017
102057
110919
93665.8
93652.4
101942
101965
102154
101754
102269
101970
102480
101747
99527.1
99771.8
101968
101975
100766
71048.4
98061.3
99306.4
99801.8
100911
101805
100786
101654
108051
100851
104381
83334.1
100892
99793.1
99182.4
99415.6
101791
101726
101966
101939
102067
101497
101951
99379
101955
101956
99476.9
98956.7
113537
102269
100739
100616
100026
100006
100095
102412
102352
107368
102595
102565
106650
101969
102012
101971
101204
101265
100520
101289
101159
101231
101263
101298
101268
98947.7
98901.5
98931.6
98777.3
101578
102236
103593
99929.3
102194
97827.9
97777.8
99349.9
100987
100857
100746
100667
101761
108050
101767
101750
108920
109660
101805
101790
100453
82976.4
100238
104287
98623.8
98640.6
99248.2
98852.4
98932.4
110998
101826
102176
101815
99629
83436.5
101833
101827
78577.4
101815
99886
99992.4
100020
99864.5
99840.7
101668
101412
101728
97616.9
99236.3
99312.4
97550.1
97536.5
102017
102006
102010
102012
102010
108246
102000
100328
103052
84170.5
101467
101472
102146
102088
101456
101897
94716.4
101459
102067
119155
99438.7
105697
102054
102065
100587
100485
100526
137627
101812
101795
101842
101829
100701
100737
101221
100154
101287
101260
100613
100872
99963.3
99954.9
100922
101539
101598
102982
80872.6
102747
89304.9
100433
82208.3
103264
100311
99405.3
95569
97362.7
97593
99544.6
87864.3
101295
101355
101563
99460.5
100617
100657
102545
98876
99405.6
99541
97722.3
100567
110215
100199
102029
102185
102021
102527
101802
96442
102092
101893
99988.4
99880.4
110974
159688
165243
101999
154397
101891
122102
125882
106364
100631
102699
100252
100367
100466
97016.9
100355
102756
97160
97507.7
99570.5
97420.8
101237
99282.5
100660
100402
99336.3
99505.6
100470
101011
101064
101036
100911
100964
101101
100654
101110
98756.6
101108
98531.4
100363
104166
100624
101808
100467
101922
101923
102165
101173
99428.6
97745.2
102295
102334
102312
85652.7
100748
100419
103734
99037.2
102107
99054.1
99209.3
101907
98999.4
100849
100151
101969
101968
101663
101362
100274
100979
100807
100860
101329
99288.6
101435
99332.3
59442.7
99268.4
101348
100143
61273.6
99648.7
100089
105853
100047
121295
103749
102076
104195
103290
102077
99763.7
100582
101382
101732
101336
101780
101678
101718
97965.9
99754.1
98262.5
99664.8
101627
101778
101558
101933
101078
101076
101374
101115
101060
101640
98641.2
101523
100038
101979
101735
100201
101713
100505
116475
107529
105728
102488
102348
98860.8
102224
98794.9
102388
102335
103264
96609.2
75673.6
134676
101089
100201
94878.2
100917
100370
100930
94261.3
100836
101484
101448
104849
102179
102201
102298
100357
103166
103182
103739
103726
103150
81130.9
101791
100387
101744
101816
101962
100351
102018
101679
101232
100811
101050
100212
99543.6
100513
101604
99011
96330.1
91283.7
100190
101712
102170
101896
101894
101878
101887
101384
97421.9
101422
101444
101404
100236
100208
98698.6
98630.8
101557
101907
102220
101908
101966
101966
98566.9
94710.5
102084
100507
98850.3
98747.9
96557.9
100591
100144
100227
102101
86494.3
101308
86375.9
98377.8
100921
101409
102093
101943
102110
101866
101988
101567
108275
100901
100867
103862
98461.1
99306.7
96596.3
98607.7
99068.3
99018.4
100330
100362
103112
99317.6
101997
102285
99398.4
102990
101041
100453
101904
101901
101372
101386
101616
106200
104519
101396
120562
100344
100550
101976
95267.9
102493
99456.2
101903
92568.5
93226.8
100041
99933.8
101634
102774
101660
101545
102695
102137
101784
101689
96717.3
101917
101600
101912
101922
101617
101724
101368
102066
101315
102028
101663
101824
101681
99630.6
99149.2
131535
100939
101003
99141.9
98924.7
99040.3
98919.2
101670
98033.4
126579
101538
121023
102157
102163
101821
101801
108638
110234
110449
105527
105955
96162.3
103137
101902
102011
102043
101970
101957
101961
91519
102067
101887
101876
101095
101436
100822
100892
99080
99735
99286.6
102204
100236
102545
101940
101930
101544
100485
100338
98871.9
101847
75486.2
100063
99872.3
100060
81244.5
86514.1
105629
103365
99406.7
101837
98290.9
97987.8
97701.6
98593.3
101252
98407.9
101599
101933
101450
100567
100416
98852.6
98708.5
100382
96561.9
93803.1
100273
63163
101678
146026
104462
104056
103159
96875.7
101671
103029
102638
88397.6
99332.5
101021
101235
102050
100189
101977
100030
98036
101989
102029
100891
100864
100951
98587.9
98591.9
98562.7
101947
101502
101587
98697.5
100514
98301.3
98938.8
99370.6
98823
101985
101978
101968
101971
101974
101645
101522
101707
100704
100852
100968
106871
86783
99912.5
99544.1
99281.3
99708.4
78333.4
113719
110435
90353.7
71600
96381.2
102575
104561
102102
99602.7
103546
78796.3
79587.3
102077
102146
102297
102554
101284
101236
102556
146102
98800.2
134756
101525
94437.2
131285
101556
101952
101842
101847
101791
101843
101103
101220
149901
101195
99728.5
99611
98785.7
101517
101537
98749.8
98845.5
92742.5
105601
57815.3
101017
98752.7
95382.1
101768
106272
102523
100154
100120
93907.6
90218.6
101909
101901
101396
109627
102016
101392
101952
101975
100305
100171
101289
101521
101560
100252
100352
100913
100533
100618
98732
101213
98640.1
62831.9
119831
100250
128315
131016
99395.2
106277
107164
102292
102211
83940.5
105730
114574
123461
102048
100221
101467
101435
102036
101932
101938
102089
101551
101814
100559
100698
101957
102445
90758.2
101730
102036
120248
102486
102012
101955
101669
101683
101939
101906
100973
101882
100722
100076
66173.5
55549.6
99806.2
99658.5
99894.9
99567.1
101613
101650
101631
112481
101999
109787
101975
101900
102134
101571
101612
102100
102112
98192.3
98894.2
99002
101896
101484
102355
102288
100268
101605
103211
102068
59207.2
101901
77821
73453
101893
65448.7
72502.1
102250
102209
101644
101913
101424
101380
101492
100494
100455
102213
102136
100380
98781.3
98754.9
102061
96542.5
78142.4
102091
101978
101998
102538
101923
101716
101574
100989
100598
97910.9
98303.7
99036.6
102033
101798
90214.7
65139.5
101648
101558
100764
100731
100826
100817
100405
101900
98136.5
102992
100668
99311.7
102220
102166
102113
101635
98200.1
102035
101633
101857
102018
102971
102605
102400
102132
101859
101953
100916
104208
101972
101764
108027
83841.4
98284.7
123801
102060
104838
102202
102860
101969
101962
97653.6
79155
86345.2
82216.5
101959
100938
101963
103757
108900
102257
102533
105129
103861
104704
101122
101187
102050
103404
101966
100835
101284
101244
101268
99660.7
101808
101783
101951
100568
100058
100873
100236
114951
115003
110247
101208
98892.7
101985
98782.3
101653
100854
99501.2
100860
101080
100992
100872
98929.3
99024.9
99658.5
98984.6
148234
146073
187492
87589.8
93072.9
101412
84076.1
96846
99496.1
101521
101822
101714
108196
101950
101855
102019
200974
102037
102495
162210
101839
101854
100094
100663
101547
88664.3
101567
85682.5
102100
101857
100585
100342
88523.9
102051
101913
101952
101968
101948
100703
100750
100792
100480
100181
120350
101694
102123
113578
102134
101710
101705
101628
114701
101128
97170.3
91586.2
101985
101989
101986
101954
101483
101165
102636
101397
102460
101139
101837
102137
101155
99599.2
101540
99250.7
106067
90195.7
98982.5
102440
99673
98254.9
98236.9
102640
98825.2
94824
101978
93750.9
101924
105271
102056
99668.7
100345
101912
102102
102522
102174
102150
101591
101654
101163
101221
112388
101255
101621
101582
95939
95370.3
113802
98897.6
112822
81260.7
106830
92602.4
112349
113310
113374
102607
98612.8
97967.9
100642
98199
103092
100797
102290
101973
101981
102411
99496.3
102169
102335
102218
101655
108038
102979
111288
109487
102663
102404
101422
99735.1
102175
101822
101660
101900
95470.2
103423
102356
98390.7
97792.4
98071.9
98094.3
97854.7
98986.6
98781.7
101112
101135
101920
101964
101962
101117
101394
101265
102107
101995
101971
101192
78681.2
104893
84126.9
94129.1
93120.7
99463
103148
102004
102033
101966
102040
114605
102072
101983
101970
101920
101946
101169
96702.2
101397
101462
101402
101451
101447
101825
101318
101442
97167.8
97823.4
98027.9
101472
101930
102743
102271
116220
69623.9
102316
101684
101695
102534
67868.3
72813.3
101715
101708
101886
101854
101864
101870
101876
99783.9
101594
106732
101631
105865
101438
105291
97859.8
105604
95282.5
79791.7
107360
102366
96838.8
99737.9
84108.7
98956.3
98638
102189
101930
101901
102091
101969
101957
101963
101189
101975
101329
98889.4
98930
98781
99062.1
101970
101981
100832
100665
100646
101665
100697
101503
101550
101642
98975.7
99121.6
99241.2
98927
99226
99974
100019
100098
99950.5
99088.3
99251.5
94290.7
100844
100815
100720
100750
100743
101746
101717
101704
101956
101933
99695.3
99524.3
101943
100656
96344.5
99647.9
101912
101396
101125
100404
100254
102073
96950.5
97215.1
108339
105288
102287
101789
100771
107849
103656
102299
101092
101048
100721
101114
101761
101077
101872
92937.6
86973.6
101082
90937.9
97871.9
97790
101863
101237
101754
102943
103122
102447
102923
101253
99302.7
99210.1
101298
101991
102003
102104
102014
102008
96765.7
96899.7
98443.1
96730.1
90606.3
96425.7
101609
99667.1
105559
104058
102036
99543.1
99012
99204
99329.3
99176.7
97278.1
91004.5
97326
101963
102030
101985
102020
101958
101630
101635
101671
101601
101898
101896
101828
101830
101902
100845
103396
99592.7
111231
106621
103594
101599
101812
101976
101767
101706
101679
101569
101795
101977
101972
101449
101970
101974
101646
101067
96548.1
101300
103886
101347
101802
101993
101576
100988
100342
101198
101133
100241
114107
101000
134037
99621.4
129372
100591
99142.5
101534
101694
99420.3
99140.6
101510
95952.1
89159.9
83140.1
84289
66582.8
71274.6
107183
112304
120132
97636.5
95176.5
96923
108244
95188.5
107215
125151
102330
101856
101346
70821.5
99693.4
71959.6
79211.1
102257
99855.5
101944
101914
101902
101824
93823.7
103195
103224
98811.1
107011
107769
153528
97969.7
101494
101458
102963
102011
102048
106443
101980
101994
106558
101932
101935
114066
107672
102274
102459
102586
102502
102450
101889
101290
92921.4
103704
81478.3
72734.1
79405.8
75046.3
77981.4
74066
101690
102090
101180
103416
102512
)
;

boundaryField
{
    Inlet
    {
        type            calculated;
        value           nonuniform List<scalar> 0();
    }
    Outlet
    {
        type            calculated;
        value           nonuniform List<scalar> 
26
(
100682
100682
100682
100682
100682
100682
100682
100682
100682
100682
100682
100682
100682
100682
100682
100682
100682
100682
100682
100682
100682
100682
100682
100682
100682
100647
)
;
    }
    Symmetric
    {
        type            symmetry;
    }
    Wall
    {
        type            calculated;
        value           nonuniform List<scalar> 
217
(
101970
101977
101968
101939
101893
101833
101759
101665
101559
101447
101316
101174
101005
100808
100567
100273
99973.3
99630.8
99312.6
99029.2
98861
98852.8
99054.3
99379.2
99770.7
100058
100454
100567
100466
100585
101964
101973
101958
101937
101891
101827
101754
101669
101565
101437
101311
101163
100993
100786
100523
100252
99895.1
99627.1
99286.7
99040.4
98818.2
98749.2
98938
99263.2
99674.1
100060
100355
101962
101962
101970
101976
101975
101964
101975
101971
101940
101956
101939
101901
101919
101900
101846
101864
101842
101780
101798
101777
101694
101715
101692
101595
101614
101587
101484
101504
101475
101358
101380
101345
101216
101246
101202
101049
101096
101028
100849
100911
100852
100596
100693
100617
100302
100430
100350
99988.1
100131
100038
99646.4
99806.4
99641.4
99311.4
99476.1
99404.3
98999.1
99152.6
99014.7
98800.5
98939
98905.1
98747.3
98831.9
98824.9
98900
98931.8
98948.2
99191.8
99209.5
99252
99585.7
99567.3
99649.2
100060
99912.5
100063
100357
100238
100401
101970
101957
101966
101969
101962
101968
101921
101950
101874
101916
101815
101861
101736
101792
101642
101713
101534
101618
101415
101503
101273
101382
101114
101241
100932
101076
100739
100897
100486
100657
100118
100380
99880.9
100082
99456.9
99773.4
99149.1
99429.8
98875.5
99169.6
98722.1
98889.4
98850.8
98771.2
99080.5
98823.1
99439.2
99088.3
99858.3
99460.4
100226
99872.2
100615
100208
101968
101970
101954
101922
101875
101815
101741
101648
101540
101424
101290
101139
100951
100728
100453
100144
99816.1
99475
99148.9
98889.7
98754.6
98800.8
99036.9
99381.2
99748.1
100237
)
;
    }
    procBoundary2to3
    {
        type            processor;
        value           nonuniform List<scalar> 
34
(
101970
101983
110651
102369
102205
101962
102435
110316
102477
102455
101953
102020
102020
102378
102054
103058
101993
102419
101971
102110
102110
101960
102350
102532
102131
102045
119084
102245
102185
102071
101362
101956
102616
101960
)
;
    }
}


// ************************************************************************* //
