/*--------------------------------*- C++ -*----------------------------------*\
| =========                 |                                                 |
| \\      /  F ield         | OpenFOAM: The Open Source CFD Toolbox           |
|  \\    /   O peration     | Version:  v2006                                 |
|   \\  /    A nd           | Website:  www.openfoam.com                      |
|    \\/     M anipulation  |                                                 |
\*---------------------------------------------------------------------------*/
FoamFile
{
    version     2.0;
    format      ascii;
    class       surfaceScalarField;
    location    "0.03";
    object      phi;
}
// * * * * * * * * * * * * * * * * * * * * * * * * * * * * * * * * * * * * * //

dimensions      [0 3 -1 0 0 0 0];
oriented        oriented;


internalField   nonuniform List<scalar> 
5860
(
1.7658e-07
-1.3105e-07
-4.55297e-08
-5.57767e-07
6.56433e-07
-5.6568e-07
4.67014e-07
3.056e-07
9.08522e-08
-3.96452e-07
-5.9563e-09
1.78832e-08
5.29415e-07
-5.41342e-07
2.34368e-07
-3.1658e-07
8.22123e-08
-7.51404e-09
-2.92014e-08
2.65898e-08
1.01256e-08
1.98851e-07
-8.64974e-08
-1.12353e-07
2.64119e-08
1.62383e-08
-2.90711e-08
-1.35791e-08
1.99298e-08
-1.44898e-09
-1.84808e-08
-7.72114e-09
-1.7967e-08
1.63255e-08
9.36262e-09
3.80493e-07
-9.66596e-07
5.86103e-07
-1.81183e-08
1.03971e-08
-2.49089e-09
-1.54761e-08
-6.79365e-10
-1.14751e-10
2.81064e-08
-2.04059e-08
-7.58579e-09
-1.87012e-08
1.85864e-08
3.97119e-08
1.86724e-08
-5.83843e-08
-1.59066e-09
-2.20635e-08
2.36541e-08
-2.29866e-07
-2.63548e-08
2.56221e-07
1.03557e-07
-7.72396e-08
-2.63178e-08
-4.27434e-07
8.47412e-09
-1.68554e-09
4.20645e-07
-5.91751e-07
2.97287e-07
2.94464e-07
-5.62273e-07
-1.15302e-07
4.48392e-07
2.29183e-07
-5.7473e-08
-1.23344e-08
6.98073e-08
2.64174e-06
-2.63785e-06
-3.89624e-09
-6.53532e-08
9.92594e-07
8.81297e-08
-1.01537e-06
5.25299e-07
-5.12203e-07
-1.30963e-08
-2.37013e-06
-6.3166e-09
2.37645e-06
-2.7409e-07
-2.88183e-07
-8.32378e-09
-1.06978e-07
-5.27938e-08
-1.02035e-06
1.57545e-07
8.62803e-07
1.37264e-07
5.66067e-08
-1.93871e-07
1.7489e-07
-1.79545e-07
4.65529e-09
-6.01555e-07
5.81897e-07
1.96577e-08
-1.03308e-06
1.4999e-07
-9.03434e-07
-1.29641e-07
-2.63095e-08
2.63095e-08
6.15904e-07
-5.95439e-07
-2.02877e-08
-1.76775e-10
1.20737e-07
-1.19621e-07
-7.7473e-10
-3.41958e-10
6.17423e-07
-1.51925e-09
-2.76744e-06
3.14491e-06
1.33024e-07
-6.84648e-08
-6.4559e-08
-5.1744e-07
5.40709e-07
-2.32696e-08
3.54772e-08
7.53488e-08
-1.10826e-07
6.12099e-07
-8.82752e-09
-6.03272e-07
-1.039e-07
-2.17773e-08
1.25678e-07
2.81147e-08
-2.74447e-06
2.71635e-06
1.666e-08
-8.75079e-08
-1.53556e-07
2.41064e-07
1.47116e-07
8.53291e-08
-2.32445e-07
2.59287e-07
-4.09841e-07
1.50554e-07
6.38447e-10
9.46939e-07
6.32898e-09
2.17384e-09
-8.50283e-09
-3.4513e-07
4.06106e-07
-1.02757e-06
-3.37328e-06
2.10349e-09
-1.68965e-09
-4.13836e-10
3.1614e-08
-1.97071e-07
1.65457e-07
-4.4608e-09
-3.66235e-09
5.05582e-09
3.06735e-09
-2.82194e-08
2.82194e-08
-3.52216e-09
-9.82632e-10
3.66187e-09
8.42942e-10
-1.48564e-07
1.86249e-08
1.2994e-07
1.22467e-08
1.35043e-07
-1.4729e-07
1.31848e-07
-2.45722e-08
-1.07275e-07
7.8599e-08
-7.04067e-08
9.53651e-08
2.83696e-09
-4.66767e-09
1.92697e-08
-1.7439e-08
-2.88888e-09
8.65491e-09
-5.76604e-09
1.62825e-08
-2.11007e-09
-1.51192e-08
9.4679e-10
1.3884e-07
-1.26593e-07
2.04661e-07
-6.42042e-07
4.37381e-07
3.25079e-09
4.33337e-08
-1.11074e-08
6.23903e-07
-2.80717e-07
-3.43187e-07
5.01215e-07
-2.21246e-07
-2.79968e-07
3.66213e-08
-3.07209e-07
2.70588e-07
6.63599e-08
-6.61324e-08
-4.15656e-09
3.92905e-09
-3.70748e-07
-1.94176e-07
5.64924e-07
-4.22968e-08
4.44734e-08
-2.17668e-09
3.97651e-08
-1.02007e-08
-2.95644e-08
-2.19984e-08
2.19984e-08
1.774e-07
2.68571e-08
-2.29758e-08
-1.81281e-07
-5.67275e-09
3.69568e-08
-3.1284e-08
4.23316e-07
2.00587e-07
-3.10466e-07
7.5928e-09
3.04192e-07
-1.31908e-09
1.19546e-07
-3.17187e-07
1.97641e-07
1.92457e-08
1.98897e-08
-3.91354e-08
4.2269e-08
9.83492e-07
-1.15963e-08
-1.01416e-06
3.26562e-07
2.89664e-07
-3.25165e-07
-2.91061e-07
-2.98341e-08
1.24556e-07
-9.47221e-08
-3.54346e-08
-1.2486e-06
1.28404e-06
6.63007e-08
8.25582e-07
-8.91882e-07
-6.08219e-07
2.81329e-07
3.2689e-07
-4.34804e-07
-3.17333e-07
4.54325e-07
2.97813e-07
1.53724e-10
-3.18084e-07
3.1793e-07
3.17052e-10
-2.31905e-09
2.002e-09
9.74161e-07
-1.03136e-06
5.71975e-08
2.71553e-08
-2.69043e-08
-7.89111e-09
7.64011e-09
-2.61408e-08
9.42829e-07
1.90441e-07
-5.87045e-07
3.96604e-07
-2.8168e-07
4.16012e-07
-1.34332e-07
-2.11231e-07
-2.85956e-07
4.97187e-07
4.07163e-08
-4.30087e-07
3.89371e-07
-6.28236e-08
5.48603e-08
7.96333e-09
-1.00822e-07
4.27384e-07
-7.21865e-08
-3.96786e-08
7.16463e-08
4.02189e-08
-2.39992e-08
2.67599e-08
-2.76072e-09
-2.78191e-08
-7.49362e-09
3.53127e-08
1.87456e-07
2.14826e-07
-4.02283e-07
1.59394e-08
-1.80369e-08
2.09744e-09
2.16034e-07
-2.86207e-07
7.0172e-08
-4.23581e-08
1.55214e-08
2.68366e-08
-9.73757e-09
2.70665e-09
4.05193e-09
2.97901e-09
5.17236e-09
-5.17237e-09
-3.68889e-07
1.74259e-07
1.9463e-07
7.9564e-08
-1.07679e-07
4.76239e-08
5.05555e-10
-5.69739e-09
-4.24321e-08
6.26655e-08
-1.13659e-07
1.07698e-07
-5.67046e-08
-9.27302e-08
-1.72804e-08
1.10011e-07
2.64471e-07
5.23754e-07
-2.8701e-07
-1.94739e-08
1.94113e-08
6.2583e-11
1.21027e-07
-2.63684e-07
1.42657e-07
3.07548e-07
-2.9965e-07
-7.89883e-09
2.33427e-09
4.9744e-11
-2.38401e-09
-2.32403e-08
2.28587e-08
5.39958e-11
3.27721e-10
2.03691e-08
-3.45979e-09
-1.85804e-08
-1.67851e-09
-2.22931e-08
7.31273e-10
-3.17667e-08
-3.73272e-09
3.34288e-08
2.07067e-09
1.09816e-09
2.90471e-08
-3.01453e-08
1.72942e-09
-1.72942e-09
8.55694e-09
-9.94696e-10
-7.56223e-09
2.16072e-08
5.92506e-09
-2.75323e-08
-2.63373e-08
2.8514e-08
-3.8552e-09
6.97839e-09
1.99624e-08
-2.69407e-08
-2.34694e-08
-1.80516e-07
2.03985e-07
-5.03928e-08
2.18802e-07
-1.68409e-07
-1.14076e-09
-1.1695e-07
7.59122e-09
1.105e-07
-6.71525e-09
1.21748e-08
9.53877e-09
-1.49983e-08
5.81031e-07
-2.46675e-07
3.01095e-07
-6.3545e-07
1.66204e-06
-2.48262e-06
8.20577e-07
-6.91972e-08
3.55288e-07
8.43677e-08
-3.70459e-07
-2.83481e-07
8.46249e-09
-2.19855e-08
1.3523e-08
1.50373e-08
5.22473e-07
-5.3751e-07
-1.19199e-07
1.13964e-07
5.23586e-09
1.63996e-08
-8.46814e-08
6.82818e-08
-9.34024e-08
2.12158e-08
-3.22139e-07
3.74707e-07
-1.95091e-07
2.14196e-07
-1.91044e-08
-6.79256e-08
6.66111e-08
1.31445e-09
-2.86536e-08
8.33482e-08
-5.46946e-08
2.02684e-08
-3.39657e-08
1.36973e-08
2.11072e-07
-1.71091e-09
-3.28058e-07
3.68399e-07
-3.86306e-08
1.00846e-07
-1.02557e-07
-2.1561e-07
-3.76141e-07
-1.10183e-06
1.05868e-07
1.17668e-06
-1.80716e-07
-1.09271e-07
3.98234e-07
1.8468e-08
-1.30639e-06
1.28792e-06
-4.9788e-08
1.17286e-07
-6.74976e-08
-9.74474e-07
-6.77887e-07
1.65236e-06
-2.88564e-09
3.47193e-08
-3.73393e-08
5.50565e-09
3.30273e-07
-3.48357e-07
1.80835e-08
2.24261e-06
-2.24261e-06
1.54547e-08
-1.30775e-06
1.29229e-06
-9.99833e-07
3.77622e-08
9.77526e-07
4.76342e-08
-1.04747e-06
4.59568e-07
-4.21806e-07
4.49481e-09
5.02707e-07
-1.89751e-08
1.17356e-07
-9.83811e-08
-2.0138e-06
1.10433e-06
9.09464e-07
8.09278e-07
-1.75558e-06
-1.06749e-06
3.46248e-07
5.1615e-08
-3.61242e-07
1.20597e-07
5.47476e-08
-1.75345e-07
-2.98099e-08
2.19442e-08
7.8658e-09
7.65361e-08
-4.58907e-08
3.97207e-08
-7.03661e-08
-1.68655e-08
-4.17939e-07
-3.13022e-08
3.12814e-08
5.5898e-09
-5.56904e-09
-7.2345e-09
7.23451e-09
1.95672e-09
-1.93078e-08
1.73511e-08
5.71636e-08
1.845e-07
-2.41664e-07
-1.61978e-08
-1.47512e-08
1.58735e-08
1.50755e-08
9.37689e-09
6.9486e-09
-2.76506e-06
-9.90558e-08
1.4957e-08
8.40988e-08
-2.94279e-08
-2.87404e-08
5.81683e-08
4.17426e-10
-2.80286e-09
-1.99077e-08
3.35461e-08
-2.84238e-08
-5.12231e-09
8.05076e-09
1.03661e-09
-9.08737e-09
5.34858e-09
2.06497e-09
6.37227e-10
-2.74503e-08
2.05682e-08
-1.0011e-08
1.17087e-08
-2.22659e-08
-2.26365e-08
5.03898e-08
-2.77533e-08
-9.08027e-08
5.11241e-08
-4.81509e-08
-3.4182e-10
4.84927e-08
2.09866e-08
7.92728e-09
-2.89139e-08
1.14423e-07
1.98828e-07
-3.13251e-07
2.00949e-08
-2.89182e-08
-6.39198e-08
1.25208e-07
-6.12884e-08
1.29811e-07
-7.57387e-08
-5.40725e-08
-6.66079e-08
-4.91159e-07
-8.73889e-10
2.67951e-09
-1.80562e-09
4.5186e-07
-4.49005e-07
3.17823e-08
-3.46367e-08
9.78654e-08
1.38106e-08
3.11202e-07
-3.25013e-07
4.56936e-07
-1.12046e-07
-3.4489e-07
2.76918e-08
4.80482e-07
-1.68991e-08
-4.91275e-07
5.11161e-07
-4.95614e-07
-4.81797e-07
4.6625e-07
3.52316e-09
9.38582e-09
-8.3893e-09
-4.51967e-09
-2.42409e-08
5.33918e-08
-2.9151e-08
3.11707e-08
-9.56351e-09
2.00797e-08
1.42798e-07
-1.89956e-08
-1.43882e-07
9.53071e-08
-7.58204e-08
-1.94867e-08
-4.91584e-07
9.96655e-07
-5.05071e-07
-1.49265e-06
9.16458e-07
5.76188e-07
-4.2206e-08
-3.1053e-08
2.61e-08
4.71591e-08
1.77607e-06
1.84628e-06
-1.9603e-06
1.46276e-06
3.13301e-07
-1.35469e-06
1.32481e-06
-1.88413e-07
2.283e-07
-1.17722e-08
1.62028e-06
-9.41519e-07
8.04247e-07
-1.48301e-06
1.03635e-08
8.88223e-09
2.28391e-07
-5.73521e-07
-7.24931e-08
-1.29412e-07
1.6647e-07
2.8911e-08
-6.64919e-08
-3.59491e-08
7.353e-08
-1.13566e-06
1.23108e-06
-7.14151e-08
-2.39989e-08
-9.04097e-08
8.39559e-08
6.4539e-09
-4.20684e-07
4.61926e-07
-4.12422e-08
1.44826e-08
4.39678e-07
-4.5416e-07
3.96002e-07
5.12892e-08
-3.56252e-07
-9.10396e-08
-5.08422e-07
-8.9737e-08
5.01172e-07
9.69868e-08
9.48079e-07
-9.50136e-07
-6.77115e-09
1.24469e-09
-2.33123e-08
2.20432e-08
2.44556e-11
-4.9394e-07
2.74524e-08
-1.36468e-07
1.09016e-07
-2.20419e-09
2.20419e-09
-7.30989e-08
-2.90547e-08
1.02154e-07
1.51031e-09
-6.94523e-09
5.75198e-09
3.6554e-08
-3.45122e-08
-2.04181e-09
4.98362e-07
-5.88099e-07
-2.62033e-10
-5.93566e-09
6.1977e-09
4.9761e-07
-4.69919e-07
9.33062e-09
1.05662e-09
-1.03872e-08
-9.18152e-09
9.9128e-09
-7.41579e-09
1.64511e-08
1.35504e-09
-1.03903e-08
-7.20527e-08
1.46705e-08
-1.75499e-08
7.49322e-08
-1.00134e-06
3.24375e-07
6.76961e-07
7.72632e-08
5.95847e-08
-7.07877e-08
-6.60602e-08
-1.54683e-07
-7.05443e-09
1.61737e-07
3.28318e-08
-2.65837e-08
-3.32611e-08
2.7013e-08
1.48024e-08
-1.69485e-07
-1.46778e-07
1.38741e-07
-1.62045e-08
-1.61215e-07
-4.35319e-07
5.96534e-07
-3.57172e-07
4.29192e-07
-7.202e-08
-1.06251e-07
3.53035e-08
7.09479e-08
3.60832e-07
-3.64222e-07
1.89385e-08
-1.55483e-08
-5.9037e-07
4.7718e-07
1.13189e-07
-5.40636e-08
5.40636e-08
-2.13461e-08
2.25908e-08
2.0929e-09
3.1913e-08
-4.59828e-10
2.23231e-08
-2.02302e-08
2.56846e-08
-2.85702e-08
-4.45482e-09
-3.15212e-08
3.59761e-08
-3.27916e-08
-7.57356e-08
1.08527e-07
-9.02953e-09
2.98754e-08
3.2546e-08
-3.82635e-07
-8.56527e-08
3.73034e-07
9.52532e-08
5.2402e-07
-2.56582e-08
6.64983e-08
-4.82698e-08
-1.82286e-08
-2.47163e-06
2.47163e-06
1.14986e-08
5.58957e-10
-8.45413e-09
-3.60345e-09
-1.52532e-07
-5.36731e-08
5.81468e-08
1.48058e-07
9.23117e-07
3.83171e-08
-9.61434e-07
2.04778e-07
1.37011e-09
-2.06148e-07
-1.51293e-08
2.81623e-07
2.98711e-08
-2.96364e-07
-2.87556e-07
-1.08834e-06
1.35972e-06
1.61763e-08
-3.98886e-08
-2.14661e-07
7.08332e-08
-5.18632e-08
-6.91625e-08
5.01925e-08
-2.59111e-09
-3.94057e-08
-4.2079e-10
3.20021e-10
3.95065e-08
1.29535e-09
-3.11102e-08
2.98149e-08
3.80485e-08
-3.67531e-08
2.501e-08
-1.9085e-08
-3.98531e-07
3.29334e-07
-4.13821e-07
-4.71332e-08
6.24227e-08
-3.77096e-07
-3.67245e-08
1.20664e-08
-7.34113e-10
-1.13323e-08
1.38447e-06
-1.27416e-06
-1.10307e-07
-2.948e-08
1.12621e-08
1.8218e-08
1.10561e-07
1.4075e-06
-1.33595e-07
1.02833e-06
-9.17773e-07
9.14457e-08
1.31606e-06
1.03227e-06
-4.07056e-08
-1.09496e-06
2.99124e-08
6.90544e-09
-3.68178e-08
1.47955e-08
-2.67328e-08
1.19373e-08
-1.35959e-07
-4.30225e-08
1.40555e-07
3.84268e-08
1.6106e-08
-1.62197e-08
-2.93663e-08
2.45685e-08
2.58829e-08
9.94763e-09
3.02947e-08
1.46772e-09
-3.06642e-08
4.75201e-08
-7.89207e-10
-4.67309e-08
-3.57133e-08
-3.05869e-08
6.63002e-08
3.07302e-07
-3.2767e-07
-2.67276e-07
2.87643e-07
1.6864e-08
-2.11955e-07
8.28027e-10
2.35221e-08
-2.43501e-08
-1.68501e-08
2.29745e-07
-1.96031e-07
2.07076e-09
-3.33729e-08
-2.28477e-08
2.11452e-08
1.70252e-09
-1.01351e-08
-2.42202e-08
1.20309e-08
2.23245e-08
2.41737e-07
-2.58587e-07
-8.18536e-08
3.11599e-07
-1.83302e-08
1.16149e-08
-1.16548e-07
2.76431e-07
-1.60459e-08
4.68469e-08
-3.0801e-08
2.74759e-09
-7.20241e-09
2.73499e-07
-2.72207e-07
-1.29163e-09
-6.76698e-08
5.86403e-08
4.22523e-07
-2.3105e-08
-3.99418e-07
-1.51269e-07
4.64624e-07
-3.13355e-07
-3.89952e-08
4.08941e-08
-3.76123e-08
-3.57444e-08
2.06014e-07
1.35776e-08
-2.19592e-07
2.30396e-07
-1.34323e-07
-9.6073e-08
3.46711e-09
-5.81588e-08
2.41048e-08
3.29356e-07
-2.00751e-08
-3.3505e-07
2.57697e-08
5.20385e-07
-5.55637e-07
-3.54364e-08
7.06883e-08
4.52628e-07
6.77566e-08
1.00987e-06
-9.14897e-07
-1.01339e-06
9.18423e-07
-3.73274e-08
4.94264e-07
6.89312e-10
-1.40486e-07
1.39797e-07
-3.22773e-08
-1.72586e-07
2.0899e-07
-3.64045e-08
-8.60808e-10
-1.92174e-10
3.00922e-08
-2.90392e-08
-3.5467e-07
3.54881e-07
-2.10496e-10
1.55788e-08
-1.66148e-08
-4.44144e-08
4.54503e-08
3.27198e-07
3.07537e-09
-3.0063e-09
8.36815e-08
-8.08767e-08
2.01456e-10
1.22924e-08
-4.93533e-09
-7.35699e-09
7.01229e-09
4.3173e-08
-5.7e-09
-4.44852e-08
4.14078e-08
-3.43955e-08
9.67009e-10
1.03548e-08
4.37603e-07
-4.56946e-07
1.9343e-08
4.48414e-07
-4.35388e-08
-4.39744e-07
3.4869e-08
3.70644e-08
-1.10163e-07
8.55694e-09
2.10349e-09
-2.28451e-07
1.00694e-08
-1.14839e-08
-7.21417e-08
8.40674e-08
-1.19257e-08
-1.27975e-06
7.00092e-08
-3.88651e-08
-1.03102e-07
1.12089e-07
-8.98667e-09
-3.06179e-08
2.39849e-09
-4.27033e-08
-2.38345e-07
2.51142e-07
2.99065e-08
-4.00609e-07
3.57906e-07
-2.39193e-08
-2.14426e-07
-3.97409e-07
-2.71196e-08
3.60126e-09
-4.77884e-08
4.41872e-08
3.35861e-08
-3.57026e-08
5.71776e-09
4.84181e-08
8.22212e-09
-4.4464e-09
-5.21939e-08
-1.39581e-08
-5.12767e-08
6.52348e-08
1.7529e-06
-1.60291e-06
-3.63633e-08
-1.27138e-06
3.88971e-08
1.33661e-06
-1.37551e-06
-2.49401e-07
1.99867e-07
4.95337e-08
-4.04291e-07
4.94077e-07
-8.97862e-08
-7.86067e-10
-8.00904e-10
-1.15363e-07
-2.35441e-07
-5.03225e-08
1.58641e-08
-2.82464e-08
1.23823e-08
-1.42378e-07
1.73044e-07
-3.06661e-08
2.4221e-07
1.45644e-07
-3.87854e-07
3.66643e-07
-6.51836e-09
-3.32963e-07
-2.71621e-08
-9.21563e-09
1.03e-08
-4.88727e-08
-3.94858e-08
3.02702e-08
-8.50828e-08
1.12917e-08
7.3791e-08
7.98503e-07
4.98565e-07
-1.29707e-06
2.45333e-09
-1.00675e-08
7.61421e-09
-1.02099e-07
-5.21775e-08
1.54276e-07
-1.25042e-06
3.31514e-07
9.18909e-07
3.02744e-07
-7.54664e-07
1.7247e-08
1.76868e-07
-1.94115e-07
-6.02144e-11
2.99071e-10
-2.38853e-10
-3.30101e-08
5.9063e-08
-2.60529e-08
4.21177e-09
-4.52275e-10
-3.75949e-09
1.48541e-07
-5.31487e-07
6.42232e-07
2.38243e-08
1.87433e-09
-2.37419e-08
1.34248e-07
9.47853e-08
-8.19171e-08
4.50316e-07
-1.55687e-08
-4.34747e-07
9.30115e-09
-1.27609e-08
-4.70745e-07
2.73554e-07
-2.79881e-07
4.77073e-07
-7.47054e-07
-2.54281e-07
4.47232e-07
-3.82989e-07
-6.42437e-08
4.89429e-08
-5.76905e-08
8.74774e-09
-1.64111e-08
-9.32952e-09
2.57407e-08
1.54495e-09
1.30303e-07
1.02925e-08
-1.47533e-08
-3.78197e-08
-1.71907e-08
5.50104e-08
1.97162e-07
2.56184e-08
-2.66342e-08
-1.96146e-07
2.1055e-08
1.76107e-07
6.80737e-09
-2.70313e-07
2.63506e-07
-3.57147e-09
-1.464e-08
1.82115e-08
-1.29548e-08
2.0882e-08
-1.82284e-09
3.37359e-08
-2.06318e-08
3.47421e-09
1.71576e-08
-1.31559e-10
1.26381e-08
-2.2322e-08
2.04595e-08
-1.07756e-08
1.61123e-08
-5.90842e-08
2.27348e-08
3.63494e-08
1.27141e-08
-4.8254e-07
4.69825e-07
-5.70313e-09
5.41212e-08
1.03005e-08
-1.2427e-08
4.57982e-09
-1.69864e-10
-6.19459e-09
6.36446e-09
-1.29803e-07
-6.15557e-09
6.90284e-08
7.50766e-09
-1.77388e-08
-8.35312e-09
1.25594e-08
1.35325e-08
1.10845e-08
-2.88233e-08
4.2812e-07
-2.05379e-07
-2.22741e-07
-7.86638e-09
1.42601e-08
-1.94853e-07
1.88459e-07
1.24055e-08
5.40929e-08
1.03433e-07
-8.46307e-08
1.11009e-07
2.15205e-07
2.15145e-07
-4.3035e-07
7.58918e-07
-5.1868e-07
-2.40237e-07
-3.81445e-07
3.7862e-08
3.43583e-07
-2.16416e-07
-3.56137e-07
2.29703e-07
3.4285e-07
2.99169e-08
-1.23885e-07
9.39682e-08
8.78149e-07
-3.6223e-07
-5.15919e-07
3.5253e-10
2.77539e-08
-3.00704e-08
-1.2739e-06
1.30397e-06
3.67543e-08
3.73666e-07
-4.1042e-07
2.02021e-09
2.54904e-07
-2.4822e-07
-1.51882e-07
-2.3291e-07
2.16237e-07
1.68555e-07
-1.07266e-07
5.9876e-08
4.73903e-08
2.03659e-09
-5.01875e-08
-2.80824e-09
3.18554e-08
-1.19449e-08
-6.01968e-08
-4.06554e-08
3.22939e-08
8.36151e-09
1.16049e-08
-3.64482e-08
2.48433e-08
-1.46782e-08
-1.6724e-09
2.33909e-08
-7.04033e-09
3.41708e-08
-1.39024e-08
3.13087e-07
1.62682e-08
1.49158e-08
-7.92638e-08
6.4348e-08
2.64174e-06
-1.26698e-07
-3.21321e-08
-7.27361e-09
-4.09668e-08
2.08571e-08
5.00315e-08
-2.99218e-08
-1.28981e-06
1.56447e-08
4.38948e-07
-3.96471e-07
-4.24774e-08
4.15167e-07
6.27499e-08
-4.77917e-07
-4.10801e-08
-2.2696e-07
2.6804e-07
-4.59708e-07
3.79019e-08
-3.43787e-10
9.28099e-10
-5.84311e-10
-9.18665e-09
8.81141e-09
3.75258e-10
6.13173e-08
5.4612e-07
-6.07437e-07
-2.7389e-07
1.51523e-08
2.66598e-07
-7.86058e-09
-1.79468e-07
-4.10896e-09
1.12394e-08
1.72338e-07
3.12266e-08
-1.11317e-08
1.42977e-07
-1.27676e-07
-1.53017e-08
1.3523e-08
-2.75799e-06
9.14884e-08
6.90757e-07
6.5221e-07
-1.34297e-06
-8.59037e-10
-7.84991e-10
3.02802e-08
-2.86362e-08
-1.17967e-08
1.13323e-08
4.64385e-10
-8.79341e-09
-3.47377e-10
9.14078e-09
-4.39552e-08
4.39406e-08
1.45753e-11
3.31246e-08
-3.31246e-08
4.51324e-07
1.34778e-07
-2.63006e-06
-5.60857e-08
2.68615e-06
-1.56915e-08
4.69775e-07
-4.84379e-07
3.02952e-08
-1.87226e-08
-5.72329e-09
2.18548e-08
2.61795e-06
-2.61795e-06
-2.35288e-06
9.50709e-07
-9.83041e-07
3.23318e-08
5.3764e-08
6.27696e-09
-5.88917e-08
-1.14928e-09
2.05552e-07
-1.03951e-07
-1.01601e-07
-2.84732e-08
2.01201e-08
-1.47364e-08
2.71791e-08
-2.84987e-08
1.6056e-08
2.71235e-08
-2.4948e-08
-3.26767e-08
3.05012e-08
-1.33328e-07
1.44418e-07
-1.10905e-08
-4.93864e-09
-2.42381e-07
2.47319e-07
-5.59269e-09
-6.30842e-09
2.11463e-08
-1.47847e-07
1.45198e-08
-5.68202e-08
5.35998e-08
-1.44627e-07
7.71298e-08
-8.63037e-08
-2.22497e-08
3.14236e-08
2.41703e-07
-2.75435e-07
3.37318e-08
-1.4379e-07
1.15366e-06
5.54568e-07
-4.86653e-07
-6.79153e-08
-6.13858e-08
1.54952e-08
3.61934e-08
-2.37332e-08
-1.24602e-08
-3.86096e-08
1.0874e-07
-7.013e-08
-2.50761e-07
2.84307e-07
-3.35458e-08
-5.90327e-07
5.09805e-07
8.0522e-08
3.32022e-07
-3.92343e-07
-3.68669e-08
2.0883e-07
-1.75223e-09
-4.05466e-07
4.07218e-07
1.06003e-07
8.15309e-08
-1.87534e-07
-9.15246e-09
-6.04839e-10
3.19273e-10
9.43804e-09
9.32039e-09
2.23204e-10
-9.65918e-09
1.15595e-10
-9.81451e-12
-7.29729e-09
6.98534e-09
3.21766e-10
-9.627e-08
1.03768e-07
9.85054e-08
-1.59922e-07
2.36865e-08
-9.33367e-08
6.96503e-08
-4.31601e-08
3.92091e-09
-3.08641e-08
2.9014e-08
-7.90874e-10
1.73173e-09
-9.40866e-10
3.87417e-08
-3.85659e-08
-1.7581e-10
-4.33666e-07
5.04243e-08
3.83242e-07
1.34156e-07
-1.79549e-07
4.53926e-08
1.41081e-06
7.98949e-07
-2.20976e-06
-6.3491e-09
6.70653e-10
5.67845e-09
1.43573e-10
5.60981e-08
-2.4777e-09
-1.94614e-08
9.65912e-08
4.78426e-09
2.45376e-08
-2.5401e-08
1.2579e-06
8.72219e-10
-5.38321e-09
-2.22369e-09
6.73468e-09
-1.22796e-06
-3.65758e-08
1.26454e-06
-4.35597e-08
4.35597e-08
-4.90779e-08
7.90136e-08
1.00566e-07
-8.07137e-08
-5.64279e-08
5.1488e-08
-1.33079e-07
-4.16701e-07
1.42007e-07
4.07772e-07
1.57957e-06
-4.80792e-07
3.47713e-07
-1.44201e-08
-2.73003e-06
2.74445e-06
-3.53595e-07
3.38795e-07
1.47995e-08
3.74262e-09
2.37164e-07
-2.40907e-07
2.26782e-06
-2.26782e-06
-9.87036e-09
-1.64669e-08
-1.17488e-08
1.88617e-07
-7.97946e-09
7.97946e-09
-9.86072e-08
9.27863e-08
-2.04551e-09
-1.87451e-08
-1.60723e-07
-8.80266e-09
8.23193e-10
5.94717e-10
1.53447e-08
-6.02285e-08
7.0991e-08
-4.67838e-07
4.57075e-07
4.31994e-07
-1.4307e-07
-2.88924e-07
-2.42302e-09
-4.4991e-08
4.7414e-08
-9.49396e-09
3.49054e-07
-3.3956e-07
5.75747e-08
-2.86026e-07
-7.20149e-07
6.0984e-07
1.10309e-07
-1.00474e-07
4.17218e-07
-3.16744e-07
2.36661e-08
-1.88818e-08
-4.25943e-07
4.67561e-07
-4.16188e-08
-1.74696e-07
2.05717e-07
1.58126e-07
-1.89147e-07
9.75038e-08
-2.722e-07
-1.12926e-06
1.36818e-06
-2.38923e-07
-4.5269e-07
1.98174e-07
2.54517e-07
3.46318e-07
-3.68213e-07
1.8937e-07
-1.67476e-07
2.66066e-07
-6.03496e-08
-3.18406e-07
2.90548e-08
2.89351e-07
-3.68333e-07
1.13085e-08
2.35462e-09
-1.90178e-08
2.49398e-08
-3.24328e-07
2.2552e-08
1.21672e-08
2.52296e-06
-2.52296e-06
3.97682e-07
-3.87868e-07
-9.81353e-09
2.6641e-08
-2.35215e-08
-3.11954e-09
-5.77475e-07
-2.40799e-08
-2.4793e-07
4.4213e-09
2.43509e-07
-5.14204e-08
5.88852e-08
-7.46478e-09
-1.00914e-08
-2.72479e-08
4.21177e-09
1.5252e-08
8.96157e-09
-2.42136e-08
2.04552e-07
-5.24551e-07
3.19999e-07
5.90175e-08
-6.69796e-08
7.9621e-09
-5.72143e-09
-5.63404e-08
6.20618e-08
4.51877e-08
-4.61258e-08
4.25309e-08
-4.15927e-08
9.8149e-08
-5.29613e-08
-2.12729e-08
2.16965e-08
2.62174e-08
4.70112e-08
1.90906e-09
-4.89203e-08
2.2355e-08
-2.33244e-08
4.04782e-08
1.08212e-09
-2.02083e-08
-4.15473e-08
1.93975e-08
8.1716e-08
-9.43229e-08
1.26069e-08
2.63131e-08
9.21766e-07
-6.82085e-07
-5.49647e-07
1.23173e-06
-2.63275e-07
2.70205e-07
-1.27568e-06
1.26875e-06
-2.77044e-07
1.37682e-08
1.14113e-06
-8.70929e-07
-3.26774e-07
-3.25799e-07
3.7553e-07
-6.76819e-07
9.00147e-07
-4.78797e-07
2.55469e-07
-1.69178e-08
5.50864e-08
-3.81686e-08
-3.18408e-07
3.19506e-07
-1.09815e-09
2.33265e-09
-1.58847e-08
-2.85905e-09
2.41508e-08
-2.66365e-08
2.3632e-08
-4.14526e-07
2.67527e-07
1.47e-07
1.42048e-09
-1.42049e-09
3.23498e-07
1.28361e-07
3.31088e-07
2.09705e-07
-5.40793e-07
5.9168e-08
4.61353e-08
-4.62858e-08
4.06119e-07
-7.34983e-07
3.28864e-07
-1.01291e-07
-3.34262e-07
1.17246e-08
-1.20852e-09
-1.0516e-08
3.09705e-08
8.95491e-08
-1.2052e-07
5.31593e-09
2.81495e-07
-5.36508e-07
2.55012e-07
-3.79323e-07
4.95574e-07
-1.16251e-07
1.80687e-07
-3.73372e-07
1.92685e-07
-4.85509e-07
2.74278e-07
3.32607e-10
-1.2126e-08
1.17934e-08
3.19157e-09
2.05236e-07
-7.66314e-07
5.61078e-07
-1.87084e-08
-2.61914e-06
-4.10466e-07
-5.77076e-07
5.79996e-07
-5.8121e-07
3.97022e-08
-3.84878e-08
8.46235e-09
4.29556e-10
-8.89191e-09
2.36664e-08
-2.71245e-08
3.45815e-09
2.46092e-08
-3.21232e-08
-1.89111e-08
-3.93654e-09
-6.07022e-09
-4.05974e-08
4.66677e-08
1.14112e-08
-2.44746e-08
1.30634e-08
6.76937e-08
-2.7973e-08
1.87186e-08
-2.68962e-08
8.1776e-09
4.59576e-08
3.13056e-08
2.57378e-08
-4.34999e-08
1.77621e-08
-5.64507e-07
5.18213e-07
4.62939e-08
6.13503e-07
-6.54269e-07
3.3523e-07
9.55848e-08
-6.67299e-08
-2.88549e-08
-2.06452e-08
4.63831e-08
-2.4386e-08
-4.76797e-08
-4.17727e-09
9.52586e-09
-1.22807e-07
-3.85456e-08
-2.12145e-07
4.39318e-07
-2.27173e-07
-2.65956e-08
-2.65307e-09
1.67805e-08
1.24681e-08
-7.69938e-08
7.65985e-09
6.9334e-08
-2.67681e-06
2.69864e-06
-2.18234e-08
-8.99472e-09
-3.16718e-08
3.05751e-08
3.51925e-08
3.81806e-07
1.69432e-07
-5.51237e-07
1.44134e-07
6.50114e-09
-1.49099e-07
-1.53612e-09
-8.53526e-10
8.43713e-10
-1.68695e-09
9.36036e-09
-8.22351e-09
5.50099e-10
-8.37307e-10
8.37308e-10
-1.28468e-07
1.25125e-07
2.3081e-09
1.03454e-09
-7.90603e-09
7.90604e-09
-9.18152e-09
3.43924e-09
1.63614e-09
-5.07537e-09
-2.37926e-07
2.15811e-07
2.21146e-08
1.26755e-08
-1.41332e-09
-1.91913e-08
7.92918e-09
6.3491e-09
-8.59435e-09
2.24524e-09
2.24505e-08
-6.47985e-09
-1.59706e-08
-5.14386e-08
2.24482e-07
1.08185e-07
-9.063e-08
-4.32081e-07
-4.57165e-09
4.57164e-09
1.32789e-09
2.73006e-07
-2.74334e-07
2.863e-08
-3.7248e-08
8.61802e-09
2.92395e-08
7.32409e-08
-1.0248e-07
1.09485e-07
-3.78388e-08
4.39651e-07
-4.29582e-07
9.77253e-08
1.12186e-07
-7.10716e-08
-5.3081e-08
-1.38985e-08
-1.92237e-07
3.86814e-08
8.00691e-07
4.22391e-07
-1.22308e-06
4.33386e-09
-5.63571e-08
5.20232e-08
-1.60944e-07
4.60089e-10
-5.96455e-10
1.6108e-07
1.7681e-07
-1.73628e-07
1.15235e-09
-8.29846e-08
-4.72652e-07
9.08145e-08
-4.9283e-07
4.02016e-07
-4.86171e-07
7.85185e-09
-3.21179e-07
-1.60633e-08
1.88338e-08
3.83463e-07
-4.0248e-07
4.47352e-08
3.69318e-08
-1.45225e-09
-3.54796e-08
1.4016e-09
-3.19109e-08
3.05093e-08
-2.82631e-08
4.31065e-09
2.39524e-08
-1.0335e-08
9.52121e-10
9.38285e-09
-3.40129e-08
-1.97e-08
5.37129e-08
1.73075e-08
4.13545e-07
-4.17042e-07
-4.96734e-07
-3.78042e-07
8.74776e-07
3.90938e-09
1.66588e-08
6.63859e-09
-1.33337e-07
-8.25654e-08
5.97214e-08
2.2844e-08
8.08406e-08
-4.15051e-08
-8.28354e-08
1.54188e-07
-1.71031e-07
1.68432e-08
1.10773e-08
-1.68899e-08
1.11256e-08
-1.71433e-08
6.0177e-09
2.29699e-08
-2.38664e-08
-3.85667e-08
3.94633e-08
2.92931e-07
-9.47179e-07
-8.46977e-08
1.03188e-06
-1.12913e-07
7.37535e-09
1.05538e-07
8.06645e-08
2.86673e-08
-7.44739e-08
-3.48579e-08
-5.12362e-07
-4.20525e-07
-1.43554e-06
1.45365e-06
-1.20209e-07
2.4962e-08
-1.35507e-08
4.02652e-08
7.56465e-08
-7.37904e-08
-4.21213e-08
5.02656e-08
-5.09082e-08
-1.62752e-08
1.06746e-07
6.30649e-07
-7.37396e-07
2.31059e-09
-2.36833e-09
5.77459e-11
1.69336e-07
9.42681e-08
-2.63604e-07
-3.41829e-08
1.39746e-08
2.23905e-07
-1.754e-09
-2.39321e-08
1.99252e-08
-1.20968e-08
-3.09363e-07
3.01534e-07
5.48032e-09
1.37012e-07
-1.42492e-07
5.2805e-07
-5.08125e-07
-1.29247e-09
-4.53438e-08
4.47178e-08
1.91846e-09
1.74787e-08
-2.27878e-08
5.30905e-09
-8.5965e-09
5.47127e-08
-4.61162e-08
1.79454e-08
8.26182e-09
-2.62073e-08
2.39325e-08
-2.16478e-08
-4.43726e-08
4.20879e-08
-1.89521e-08
5.86804e-08
-3.97283e-08
-2.30843e-08
3.50886e-08
-1.20043e-08
-2.10695e-08
3.62881e-08
-3.11552e-07
1.54926e-07
3.14498e-07
-1.57872e-07
-3.93505e-07
5.40793e-08
3.39426e-07
-7.66095e-07
3.72589e-07
-1.14391e-07
-1.22738e-07
1.15552e-07
1.21577e-07
4.28967e-07
-4.44658e-07
9.02358e-08
5.19141e-07
-6.09377e-07
4.11812e-07
-7.69986e-08
-3.34814e-07
-7.83731e-08
5.65194e-08
7.20305e-07
-6.22801e-07
1.21998e-06
-1.29117e-06
-9.43825e-07
1.01502e-06
6.21068e-07
-4.22217e-07
2.18921e-06
-1.37993e-06
4.73187e-07
-4.5995e-07
3.94814e-07
-2.50422e-09
-3.03854e-08
3.28896e-08
3.26255e-07
3.57255e-08
-3.6198e-07
1.26182e-07
-3.60014e-07
3.48255e-07
6.11882e-08
-3.39126e-08
-2.72766e-07
5.64284e-07
-2.91518e-07
1.76291e-07
-4.57971e-07
-2.32508e-07
2.20158e-07
-5.25605e-08
6.49107e-08
1.56467e-07
6.01956e-07
-5.82133e-07
-2.32609e-07
2.31197e-07
-2.10733e-07
2.55811e-07
-4.8842e-07
2.32643e-07
-2.49598e-07
4.6384e-07
3.10429e-10
3.54886e-07
-3.55196e-07
-4.46051e-07
4.36868e-07
-3.21808e-07
3.51679e-07
-1.74331e-07
1.36717e-07
-3.86218e-07
4.23832e-07
3.72337e-07
-5.46668e-07
-2.46941e-07
5.28436e-07
5.38273e-07
-4.51668e-07
-6.06938e-08
-4.73773e-09
8.58889e-09
-2.19951e-08
1.8144e-08
8.40971e-09
7.34164e-11
-5.62376e-11
-8.42688e-09
-2.63149e-10
1.21022e-09
-7.78009e-09
6.83303e-09
8.46235e-09
2.29796e-08
6.16882e-09
-4.53925e-09
1.82179e-08
-1.58316e-08
-1.95674e-09
-1.52979e-08
1.22916e-08
1.85239e-07
-2.91401e-07
2.93618e-07
-1.27622e-08
1.27622e-08
3.71921e-08
-1.42125e-08
-2.20096e-08
2.51102e-10
2.17585e-08
-9.99384e-10
1.34957e-10
2.00023e-07
-1.71815e-07
-2.82077e-08
-4.2584e-09
-6.22335e-08
-3.16368e-09
-1.1395e-08
-1.99915e-07
1.87701e-07
2.36087e-08
-1.90003e-07
1.78608e-07
-8.29959e-10
4.47585e-08
-4.39286e-08
1.58138e-08
8.4725e-09
-2.42863e-08
6.09956e-09
-8.34969e-09
-3.25021e-08
2.98335e-08
1.10182e-08
-3.93919e-08
4.12732e-08
2.22031e-08
-2.40843e-08
-4.43727e-09
-2.74229e-08
3.18602e-08
-6.06613e-08
3.71438e-08
2.35176e-08
1.61192e-08
3.44759e-07
2.38721e-07
-2.44399e-07
-3.39081e-07
-4.17504e-08
8.26445e-08
-4.66074e-08
-1.22102e-07
3.71796e-08
1.31529e-07
-4.36629e-08
-9.35151e-08
1.06512e-07
-3.1345e-08
-5.27146e-10
3.03959e-07
4.08007e-08
-2.4054e-07
-8.27722e-08
3.23312e-07
-3.33428e-07
1.76826e-07
1.56601e-07
6.94895e-09
1.31942e-08
-1.22709e-08
-4.40834e-08
-6.17779e-09
1.60001e-08
-9.82229e-09
1.53045e-08
1.82816e-08
-3.23443e-08
4.83451e-08
-4.26218e-09
6.96671e-09
-5.10497e-08
1.44183e-07
1.92678e-07
-3.36862e-07
3.93051e-08
-1.44424e-06
1.5501e-06
-2.2263e-08
-9.27873e-07
1.20828e-06
2.28003e-08
2.55856e-08
1.21957e-08
-3.77813e-08
1.303e-09
-2.93788e-09
1.45769e-07
-6.02139e-11
9.38543e-10
9.36201e-09
-1.63712e-07
1.47471e-07
4.78551e-08
-1.27159e-08
3.66484e-08
3.18422e-07
3.86193e-07
-7.52736e-08
-1.01217e-08
7.14373e-08
7.4863e-08
2.43169e-08
-9.91798e-08
-1.63627e-08
4.34862e-08
-1.6487e-08
7.98102e-08
-3.73937e-08
-4.24166e-08
-2.71635e-06
2.72012e-06
-3.76845e-09
2.16006e-07
3.56733e-08
-2.51679e-07
4.90579e-08
-1.02842e-07
5.37841e-08
4.56604e-07
1.79933e-07
-4.53641e-07
-1.82896e-07
1.02184e-06
-2.19538e-08
1.98534e-07
-5.26828e-08
1.73639e-08
4.91797e-09
1.15626e-07
1.93581e-10
1.2985e-06
-1.18338e-06
-1.15119e-07
1.05926e-07
-9.72319e-08
-8.89155e-07
-1.03229e-06
1.92144e-06
-1.17671e-06
5.46176e-08
-4.80373e-08
5.20764e-07
-4.49773e-07
-4.46108e-07
2.55827e-08
-1.09311e-07
1.15644e-07
-4.54531e-07
4.48198e-07
-1.3591e-08
4.26887e-07
6.22757e-08
-8.06348e-08
-7.62461e-08
9.46052e-08
6.2555e-07
9.97314e-09
-6.35523e-07
1.03883e-07
-1.05235e-07
1.00629e-08
2.64911e-08
1.97643e-08
-2.20327e-08
-3.25542e-08
9.54241e-10
3.2428e-08
-7.72253e-09
2.11981e-08
-1.34756e-08
3.87074e-07
-1.30853e-07
2.39996e-07
1.79142e-09
-1.85225e-10
-1.60619e-09
-3.26836e-07
-5.13602e-07
3.25638e-07
-3.17007e-07
4.85319e-08
-2.954e-07
-1.5729e-07
-4.27592e-07
3.28363e-07
9.92289e-08
2.80323e-08
-4.55624e-07
-2.70611e-06
2.70611e-06
8.67634e-08
-3.67452e-08
-5.00181e-08
-1.37538e-07
2.74255e-07
-7.37594e-08
8.491e-07
-7.7534e-07
-6.91989e-07
6.18868e-07
-4.18406e-08
1.68926e-08
-2.16361e-08
4.4606e-08
-1.22044e-07
1.24469e-07
-4.63483e-08
4.39231e-08
-2.96302e-08
3.87536e-07
2.29192e-06
-2.29025e-06
-1.67175e-09
4.79262e-08
5.41495e-07
-5.89421e-07
-5.84734e-07
4.71335e-07
1.13398e-07
1.07149e-07
-9.99866e-08
-4.32716e-07
7.47195e-09
4.25244e-07
3.52911e-08
-3.77953e-08
2.53936e-06
2.78699e-07
-2.70847e-07
1.58683e-07
-7.72913e-08
1.34584e-07
-5.72929e-08
2.09336e-08
8.94497e-09
3.8679e-08
-1.42822e-07
1.1003e-07
-1.43415e-09
1.31359e-08
4.29839e-09
-3.79866e-08
-3.63921e-07
3.00617e-07
-6.84907e-08
1.70044e-08
4.36417e-08
2.075e-07
-5.306e-08
4.70688e-08
8.58014e-08
1.01247e-06
3.67019e-08
-1.04918e-06
2.02933e-08
-4.36033e-08
2.60576e-08
-6.81707e-09
-4.23872e-08
5.40932e-08
-1.1706e-08
6.93162e-08
1.06892e-07
-1.76208e-07
-7.47298e-07
-6.2148e-07
6.48629e-07
3.37394e-07
-2.53049e-07
-6.7139e-07
1.0967e-08
3.94283e-09