/*--------------------------------*- C++ -*----------------------------------*\
| =========                 |                                                 |
| \\      /  F ield         | OpenFOAM: The Open Source CFD Toolbox           |
|  \\    /   O peration     | Version:  v2012                                 |
|   \\  /    A nd           | Website:  www.openfoam.com                      |
|    \\/     M anipulation  |                                                 |
\*---------------------------------------------------------------------------*/
FoamFile
{
    version     2.0;
    format      ascii;
    class       volVectorField;
    location    "1";
    object      U;
}
// * * * * * * * * * * * * * * * * * * * * * * * * * * * * * * * * * * * * * //

dimensions      [0 1 -1 0 0 0 0];


internalField   nonuniform List<vector> 
3332
(
(-0.140741 -47.8495 0.00122824)
(0.241513 -47.8124 -0.00210799)
(-0.594613 -36.5867 0.0051894)
(0.803527 -33.3328 -0.00700977)
(2.63711 -41.1926 -0.0230136)
(2.90616 -44.9982 -0.0253651)
(2.77554 -44.6728 -0.0242261)
(2.4463 -39.9793 -0.0213539)
(-0.150636 -47.835 0.0013146)
(0.256453 -47.5237 -0.00223835)
(-0.612731 -36.962 0.00534776)
(1.09064 -36.5083 -0.00951595)
(2.1911 -43.3142 -0.0191222)
(2.37412 -45.8602 -0.0207217)
(2.16728 -44.9236 -0.0189172)
(1.93133 -39.739 -0.0168588)
(1.27543 -30.0673 -0.0111355)
(0.760625 -17.8494 -0.00664302)
(-0.0370158 -5.83187 0.000320851)
(0.39345 2.15955 -0.00342602)
(0.530578 -1.85208 -0.00464813)
(0.355948 -2.97395 -0.00311587)
(0.151321 -3.17105 -0.00132833)
(-0.14719 -47.821 0.00128453)
(0.2435 -47.2395 -0.00212526)
(-0.556763 -37.5559 0.00485941)
(1.18032 -39.2106 -0.0102992)
(1.7038 -44.7854 -0.01487)
(1.93876 -46.503 -0.0169218)
(1.6939 -45.1028 -0.0147856)
(1.55121 -39.5276 -0.0135406)
(0.993814 -29.5103 -0.00867695)
(0.622466 -17.2183 -0.00543619)
(0.0104143 -5.59444 -9.44362e-05)
(0.429839 1.65335 -0.00374742)
(0.502143 -1.84778 -0.00440086)
(0.324478 -2.79546 -0.00284444)
(0.142222 -2.97213 -0.00124878)
(-0.12525 -47.8081 0.00109304)
(0.198967 -46.9922 -0.00173663)
(-0.439146 -38.2746 0.00383292)
(1.13636 -41.3631 -0.00991604)
(1.31346 -45.8505 -0.0114636)
(1.59343 -47.015 -0.0139077)
(1.33899 -45.2525 -0.0116878)
(1.26602 -39.3717 -0.0110511)
(0.813271 -29.0782 -0.00710062)
(0.530177 -16.7943 -0.00462963)
(0.114741 -5.48021 -0.00100492)
(0.489937 1.23405 -0.0042763)
(0.478734 -1.775 -0.00420085)
(0.298094 -2.62357 -0.00261705)
(0.131242 -2.78598 -0.0011531)
(-0.0892446 -47.7962 0.000778801)
(0.133478 -46.7982 -0.00116512)
(-0.295674 -39.0618 0.00258078)
(1.0376 -43.0351 -0.00905454)
(1.04093 -46.6618 -0.0090853)
(1.31402 -47.4194 -0.0114689)
(1.07163 -45.3848 -0.00935421)
(1.04064 -39.2635 -0.00908378)
(0.677818 -28.7434 -0.00591806)
(0.440817 -16.5075 -0.00384874)
(0.165474 -5.47157 -0.00144626)
(0.505627 0.905666 -0.00441526)
(0.447243 -1.66366 -0.00393002)
(0.273332 -2.45572 -0.00240259)
(0.117688 -2.60993 -0.00103491)
(-0.0472511 -47.7869 0.000412298)
(0.0617712 -46.6566 -0.000539348)
(-0.157577 -39.8919 0.00137558)
(0.933546 -44.3352 -0.00814678)
(0.854355 -47.2896 -0.00745705)
(1.08327 -47.7269 -0.00945503)
(0.866706 -45.5006 -0.00756558)
(0.857264 -39.1859 -0.00748308)
(0.564625 -28.4735 -0.00492993)
(0.354468 -16.2817 -0.00309455)
(0.144605 -5.5251 -0.0012629)
(0.467706 0.630064 -0.00408421)
(0.406484 -1.55321 -0.00357626)
(0.247432 -2.29555 -0.00217703)
(0.101437 -2.44287 -0.000893027)
(-0.00678359 -47.7812 5.91136e-05)
(-0.00446717 -46.5567 3.87077e-05)
(-0.0397614 -40.7498 0.000347365)
(0.840627 -45.3575 -0.00733611)
(0.720704 -47.7672 -0.00629068)
(0.892887 -47.9539 -0.0077934)
(0.71025 -45.6012 -0.00619994)
(0.710997 -39.1283 -0.00620633)
(0.473547 -28.2481 -0.00413485)
(0.286328 -16.0716 -0.00249981)
(0.0900334 -5.59511 -0.000786136)
(0.401208 0.373147 -0.00350288)
(0.361801 -1.46672 -0.00318655)
(0.2194 -2.14657 -0.00193223)
(0.0827876 -2.28447 -0.000730093)
(0.0275066 -47.7801 -0.000240156)
(-0.0584417 -46.4906 0.000509746)
(0.0557452 -41.6201 -0.000486151)
(0.757152 -46.1699 -0.0066078)
(0.619954 -48.1216 -0.00541143)
(0.738499 -48.1219 -0.00644595)
(0.594955 -45.6928 -0.00519353)
(0.600633 -39.089 -0.00524296)
(0.409634 -28.0595 -0.00357688)
(0.24542 -15.8653 -0.00214292)
(0.0438916 -5.65231 -0.000383373)
(0.335459 0.12389 -0.00292825)
(0.318573 -1.4051 -0.00280894)
(0.189559 -2.00915 -0.00167157)
(0.0621815 -2.13442 -0.000550057)
(0.0536213 -47.7839 -0.000468074)
(-0.0978648 -46.4563 0.000853796)
(0.132849 -42.4841 -0.00115908)
(0.678171 -46.818 -0.00591867)
(0.542667 -48.3822 -0.00473692)
(0.616042 -48.2531 -0.00537717)
(0.514365 -45.7839 -0.00449003)
(0.522424 -39.0709 -0.00456026)
(0.372304 -27.9053 -0.00325088)
(0.228381 -15.6686 -0.00199417)
(0.0242509 -5.68575 -0.000211993)
(0.285203 -0.11068 -0.00248941)
(0.278711 -1.35647 -0.00246096)
(0.158637 -1.88101 -0.00140168)
(0.0400124 -1.99214 -0.000356413)
(0.0715479 -47.7929 -0.000624523)
(-0.123203 -46.4569 0.00107494)
(0.194451 -43.3235 -0.00169672)
(0.600295 -47.3347 -0.00523915)
(0.48325 -48.5781 -0.00421834)
(0.520075 -48.3656 -0.00453959)
(0.460187 -45.8816 -0.00401705)
(0.468986 -39.0756 -0.00409377)
(0.354188 -27.7817 -0.00309258)
(0.223905 -15.4877 -0.00195514)
(0.0254603 -5.6957 -0.000222555)
(0.248801 -0.318487 -0.00217191)
(0.240972 -1.30871 -0.00213194)
(0.127146 -1.75927 -0.00112697)
(0.0166101 -1.85686 -0.000152035)
(0.0823997 -47.8067 -0.000719231)
(-0.136338 -46.4941 0.00118959)
(0.240653 -44.1204 -0.00209999)
(0.523573 -47.7462 -0.00456968)
(0.436629 -48.7329 -0.00381142)
(0.444636 -48.4717 -0.00388116)
(0.423167 -45.9895 -0.00369385)
(0.431628 -39.1013 -0.00376767)
(0.345456 -27.6816 -0.00301621)
(0.220662 -15.3217 -0.00192691)
(0.0322643 -5.68569 -0.000281921)
(0.217369 -0.492175 -0.00189801)
(0.203233 -1.25643 -0.00180315)
(0.0953147 -1.64216 -0.000849247)
(-0.00770178 -1.72794 6.02968e-05)
(0.0873277 -47.8248 -0.000762238)
(-0.139608 -46.5661 0.00121815)
(0.268998 -44.8582 -0.00234743)
(0.449681 -48.0756 -0.00392486)
(0.397261 -48.863 -0.00346778)
(0.384134 -48.5781 -0.00335309)
(0.394994 -46.1073 -0.00344789)
(0.402965 -39.1435 -0.00351748)
(0.338223 -27.5963 -0.00295291)
(0.21238 -15.1636 -0.00185452)
(0.0323577 -5.65848 -0.000282809)
(0.183521 -0.632029 -0.00160301)
(0.164394 -1.19984 -0.00146463)
(0.0632166 -1.52922 -0.000569018)
(-0.0326448 -1.60493 0.000278178)
(0.0877147 -47.8467 -0.000765615)
(-0.135322 -46.6642 0.00118076)
(0.278153 -45.5249 -0.00242739)
(0.381239 -48.343 -0.00332759)
(0.360811 -48.9783 -0.00314961)
(0.334469 -48.6877 -0.00291961)
(0.370076 -46.2327 -0.00323034)
(0.378373 -39.1971 -0.00330284)
(0.328557 -27.5181 -0.00286847)
(0.198244 -15.0043 -0.00173096)
(0.0213885 -5.61468 -0.000187188)
(0.144525 -0.742978 -0.00126303)
(0.124325 -1.14236 -0.00111519)
(0.0308921 -1.42063 -0.000286574)
(-0.0579513 -1.48757 0.000499298)
(0.0850207 -47.8726 -0.0007421)
(-0.126075 -46.7753 0.00110006)
(0.269322 -46.1128 -0.00235037)
(0.320198 -48.565 -0.00279488)
(0.324746 -49.0837 -0.0028348)
(0.292959 -48.8011 -0.0025573)
(0.345735 -46.3629 -0.00301785)
(0.355819 -39.2577 -0.00310598)
(0.31601 -27.4419 -0.00275895)
(0.180555 -14.8372 -0.00157645)
(0.00141402 -5.5536 -1.29139e-05)
(0.101757 -0.830682 -0.000890111)
(0.0835105 -1.08705 -0.000759105)
(-0.00162875 -1.31681 -2.04919e-06)
(-0.0834542 -1.37576 0.000722201)
(0.0803837 -47.9025 -0.000701627)
(-0.11395 -46.886 0.00099425)
(0.247265 -46.6208 -0.00215792)
(0.268031 -48.7546 -0.0023396)
(0.288968 -49.1818 -0.00252249)
(0.258267 -48.9178 -0.0022545)
(0.321677 -46.4957 -0.00280784)
(0.335062 -39.3227 -0.0029248)
(0.302114 -27.3654 -0.00263771)
(0.162273 -14.6587 -0.00141695)
(-0.0230438 -5.47511 0.000200476)
(0.0580615 -0.898737 -0.000509172)
(0.0424156 -1.03484 -0.000400423)
(-0.0341855 -1.21803 0.000283145)
(-0.109083 -1.26941 0.000946264)
(0.0749132 -47.9361 -0.00065388)
(-0.100875 -46.9861 0.000880144)
(0.218683 -47.0542 -0.00190851)
(0.225459 -48.9205 -0.00196804)
(0.254773 -49.274 -0.00222402)
(0.229773 -49.0371 -0.00200579)
(0.298817 -46.6297 -0.00260828)
(0.316605 -39.3908 -0.00276369)
(0.288751 -27.288 -0.00252112)
(0.145183 -14.4678 -0.00126803)
(-0.0474987 -5.37948 0.000413915)
(0.0156538 -0.948331 -0.000139777)
(0.00126527 -0.984992 -4.08804e-05)
(-0.0668303 -1.12444 0.000569367)
(-0.134878 -1.16845 0.00117182)
(0.0690703 -47.9739 -0.000602878)
(-0.0874706 -47.0717 0.000763158)
(0.190187 -47.423 -0.00165986)
(0.192548 -49.0682 -0.00168081)
(0.224022 -49.3614 -0.0019556)
(0.207189 -49.1579 -0.00180866)
(0.278379 -46.7643 -0.00242987)
(0.30106 -39.4613 -0.00262799)
(0.277255 -27.2101 -0.0024208)
(0.130594 -14.2648 -0.00114106)
(-0.0704026 -5.26417 0.000614091)
(-0.0238816 -0.980933 0.000204114)
(-0.0397657 -0.935524 0.0003184)
(-0.0996231 -1.03601 0.000857016)
(-0.160949 -1.07279 0.00139983)
(0.0625122 -48.0158 -0.00054563)
(-0.0733353 -47.1454 0.000639794)
(0.166422 -47.7394 -0.00145249)
(0.168711 -49.2008 -0.00147277)
(0.198057 -49.4448 -0.00172897)
(0.1901 -49.2794 -0.00165949)
(0.261215 -46.8992 -0.00228006)
(0.288517 -39.534 -0.0025185)
(0.267984 -27.1322 -0.00233989)
(0.118751 -14.0496 -0.00103811)
(-0.0933246 -5.12879 0.000814315)
(-0.062688 -0.998106 0.00054286)
(-0.0805612 -0.884203 0.000676495)
(-0.132604 -0.952476 0.00114636)
(-0.187429 -0.982266 0.00163144)
(0.0548547 -48.0617 -0.0004788)
(-0.0573926 -47.2154 0.000500667)
(0.149757 -48.0155 -0.00130707)
(0.153063 -49.3201 -0.00133621)
(0.177491 -49.5248 -0.00154947)
(0.177885 -49.4011 -0.00155286)
(0.247612 -47.0341 -0.00216133)
(0.278486 -39.6082 -0.00243093)
(0.260896 -27.0542 -0.00227799)
(0.108396 -13.8207 -0.000948012)
(-0.11615 -4.9728 0.00101315)
(-0.102707 -0.997591 0.000892055)
(-0.12151 -0.831501 0.00103665)
(-0.165809 -0.873656 0.00143766)
(-0.214452 -0.896656 0.0018678)
(0.0454812 -48.1113 -0.000396993)
(-0.0388367 -47.2929 0.000338745)
(0.140287 -48.2611 -0.00122445)
(0.14425 -49.4272 -0.0012593)
(0.162015 -49.6017 -0.0014144)
(0.169487 -49.5223 -0.00147956)
(0.237197 -47.1684 -0.00207045)
(0.270047 -39.6834 -0.00235726)
(0.255424 -26.9755 -0.00223017)
(0.0985508 -13.5765 -0.00086213)
(-0.14134 -4.79496 0.00123267)
(-0.145108 -0.978502 0.001261)
(-0.162505 -0.778317 0.0013977)
(-0.199261 -0.799468 0.00173102)
(-0.242059 -0.815687 0.00210924)
(0.0345925 -48.1642 -0.000301961)
(-0.0179121 -47.3891 0.00015615)
(0.136709 -48.4841 -0.00119325)
(0.140503 -49.5232 -0.00122661)
(0.150649 -49.6755 -0.0013152)
(0.163406 -49.6421 -0.00142648)
(0.229047 -47.3015 -0.00199934)
(0.261754 -39.7584 -0.00228487)
(0.250421 -26.8959 -0.00218645)
(0.0886184 -13.3146 -0.000775236)
(-0.172768 -4.59116 0.00150693)
(-0.189843 -0.944532 0.00165093)
(-0.203326 -0.725723 0.00175739)
(-0.232869 -0.729723 0.00202559)
(-0.270124 -0.739061 0.00235467)
(0.0230847 -48.2204 -0.000201527)
(0.00377935 -47.5114 -3.31383e-05)
(0.136983 -48.6896 -0.00119566)
(0.139635 -49.6084 -0.00121905)
(0.141981 -49.7456 -0.00123956)
(0.157794 -49.7595 -0.00137751)
(0.221874 -47.4321 -0.00193675)
(0.251719 -39.8322 -0.00219728)
(0.24498 -26.8145 -0.00213893)
(0.077065 -13.0301 -0.000674131)
(-0.213115 -4.35783 0.00185903)
(-0.236082 -0.90153 0.00205492)
(-0.243613 -0.674655 0.00211227)
(-0.266396 -0.664133 0.0023193)
(-0.298311 -0.666512 0.00260111)
(0.0123013 -48.2793 -0.000107417)
(0.0237015 -47.6624 -0.000206988)
(0.138836 -48.8816 -0.00121186)
(0.139215 -49.6827 -0.0012154)
(0.134299 -49.8113 -0.00117252)
(0.15065 -49.8728 -0.00131516)
(0.214116 -47.5586 -0.00186905)
(0.237867 -39.9036 -0.00207638)
(0.238521 -26.7305 -0.00208255)
(0.0614462 -12.7175 -0.000537569)
(-0.263133 -4.09308 0.00229576)
(-0.282081 -0.857553 0.00245837)
(-0.282771 -0.625909 0.00245698)
(-0.299371 -0.602365 0.00260802)
(-0.326038 -0.597835 0.00284351)
(0.00367041 -48.3402 -3.20924e-05)
(0.0393577 -47.8384 -0.000343613)
(0.140508 -49.062 -0.00122647)
(0.137063 -49.7453 -0.00119663)
(0.125911 -49.8711 -0.00109933)
(0.140233 -49.9802 -0.00122424)
(0.204055 -47.679 -0.00178125)
(0.218371 -39.9717 -0.00190619)
(0.230725 -26.6428 -0.00201453)
(0.0385149 -12.372 -0.000337078)
(-0.319769 -3.79855 0.00279184)
(-0.325917 -0.819516 0.00284361)
(-0.320017 -0.579933 0.00278454)
(-0.331079 -0.544048 0.00288553)
(-0.352527 -0.532886 0.00307505)
(-0.00171093 -48.4026 1.48748e-05)
(0.0489676 -48.0314 -0.000427476)
(0.140534 -49.2319 -0.00122671)
(0.131307 -49.7946 -0.00114642)
(0.115066 -49.9231 -0.00100469)
(0.125282 -50.0789 -0.00109376)
(0.189844 -47.7911 -0.0016572)
(0.192018 -40.0354 -0.00167616)
(0.221124 -26.5501 -0.00193075)
(0.00434282 -11.9895 -3.8514e-05)
(-0.376797 -3.48287 0.00329418)
(-0.36598 -0.790547 0.00319506)
(-0.354465 -0.536988 0.00308716)
(-0.360585 -0.488892 0.00314368)
(-0.376889 -0.471575 0.00328798)
(-0.00342051 -48.4657 2.97985e-05)
(0.052049 -48.2303 -0.000454371)
(0.13815 -49.3908 -0.00120591)
(0.121039 -49.8281 -0.00105682)
(0.100472 -49.965 -0.000877327)
(0.105408 -50.1661 -0.000920315)
(0.169766 -47.8925 -0.00148196)
(0.158756 -40.0936 -0.00138583)
(0.208569 -26.4505 -0.0018212)
(-0.0436904 -11.5673 0.000380789)
(-0.427294 -3.16196 0.0037415)
(-0.401016 -0.768955 0.00350109)
(-0.385161 -0.496926 0.00335648)
(-0.386841 -0.436672 0.00337335)
(-0.398237 -0.413796 0.00347456)
(-0.00187925 -48.5292 1.63435e-05)
(0.0493479 -48.4241 -0.000430804)
(0.132748 -49.5367 -0.00115877)
(0.105835 -49.8431 -0.000924134)
(0.0811729 -49.9943 -0.000708892)
(0.081027 -50.2386 -0.000707527)
(0.14258 -47.9811 -0.00124467)
(0.120054 -40.1445 -0.00104802)
(0.191305 -26.3429 -0.00167054)
(-0.10387 -11.1047 0.000905623)
(-0.466002 -2.85694 0.0040871)
(-0.429567 -0.750401 0.00374945)
(-0.411007 -0.459229 0.00358296)
(0.00206408 -48.593 -1.80747e-05)
(0.0427133 -48.6031 -0.000372914)
(0.124381 -49.6665 -0.00108575)
(0.0864269 -49.8365 -0.000754764)
(0.0572519 -50.0088 -0.000500119)
(0.0535578 -50.2937 -0.000467793)
(0.108135 -48.0549 -0.000944018)
(0.0790835 -40.1864 -0.000690414)
(0.167764 -26.2265 -0.0014651)
(-0.167427 -10.606 0.00145885)
(-0.4904 -2.5864 0.00430724)
(-0.450078 -0.729566 0.00392745)
(-0.430875 -0.422631 0.00375687)
(0.00737602 -48.6573 -6.44357e-05)
(0.0340258 -48.7606 -0.000297112)
(0.113072 -49.7763 -0.000987059)
(0.0636335 -49.8063 -0.000555845)
(0.0297329 -50.0068 -0.00025994)
(0.02497 -50.3296 -0.000218299)
(0.067872 -48.1134 -0.000592592)
(0.0408323 -40.2174 -0.000356569)
(0.136772 -26.1031 -0.00119466)
(-0.2204 -10.0851 0.00191866)
(-0.498804 -2.35978 0.00438342)
(-0.460993 -0.703167 0.00402176)
(-0.443767 -0.385753 0.00386963)
(0.013106 -48.7223 -0.000114447)
(0.0251198 -48.8925 -0.000219404)
(0.0997346 -49.8623 -0.000870662)
(0.0392455 -49.7523 -0.000343008)
(0.00128919 -49.9886 -1.16877e-05)
(-0.00204258 -50.3465 1.74468e-05)
(0.0256416 -48.1577 -0.000223998)
(0.0115897 -40.2378 -0.000101406)
(0.0976314 -25.9816 -0.000853049)
(-0.252494 -9.56282 0.00219494)
(-0.491185 -2.16976 0.0043135)
(-0.46187 -0.667197 0.00402846)
(-0.449178 -0.346208 0.00391691)
(0.0182131 -48.788 -0.000159021)
(0.0167522 -48.9977 -0.000146391)
(0.0853242 -49.922 -0.000744901)
(0.0148679 -49.6766 -0.000130258)
(-0.025261 -49.9562 0.000220042)
(-0.024895 -50.3468 0.000216887)
(-0.0139894 -48.1912 0.000121913)
(-0.00416916 -40.2506 3.60607e-05)
(0.0534646 -25.8718 -0.000467438)
(-0.252444 -9.05913 0.00218973)
(-0.467223 -2.00677 0.00409574)
(-0.452288 -0.621061 0.0039435)
(-0.446932 -0.302828 0.0038972)
(0.0223151 -48.8538 -0.000194823)
(0.00957272 -49.0779 -8.37462e-05)
(0.0715377 -49.9553 -0.000624587)
(-0.00784538 -49.5839 6.79714e-05)
(-0.0460233 -49.9134 0.00040126)
(-0.0409462 -50.3347 0.000356973)
(-0.0473375 -48.2204 0.000412997)
(-0.00261211 -40.2572 2.2405e-05)
(0.00918121 -25.7756 -8.07851e-05)
(-0.217864 -8.60181 0.00188278)
(-0.429399 -1.8426 0.00375408)
(-0.432927 -0.558685 0.00377279)
(-0.436811 -0.25237 0.00380863)
(0.025104 -48.9186 -0.000219165)
(0.00342047 -49.1361 -3.00615e-05)
(0.0595606 -49.9639 -0.000520066)
(-0.0280808 -49.4812 0.000244582)
(-0.0581642 -49.8662 0.000507235)
(-0.0496968 -50.3173 0.000433355)
(-0.0673736 -48.252 0.00058789)
(0.0179778 -40.2621 -0.000157331)
(-0.027686 -25.6989 0.000241152)
(-0.136188 -8.22589 0.00116601)
(-0.370071 -1.67339 0.0032243)
(-0.402647 -0.482961 0.00350596)
(-0.417564 -0.196575 0.00364023)
(0.0262102 -48.9803 -0.000228822)
(-0.00142277 -49.1772 1.2202e-05)
(0.0503751 -49.9516 -0.000439911)
(-0.0447808 -49.3761 0.000390343)
(-0.0601334 -49.8214 0.000524435)
(-0.0518659 -50.3036 0.000452312)
(-0.06966 -48.2923 0.000607858)
(0.0540708 -40.2733 -0.000472319)
(-0.0520119 -25.6448 0.000453569)
(-0.0132334 -7.94715 9.05106e-05)
(-0.294027 -1.43585 0.00255249)
(-0.360006 -0.377835 0.00313154)
(-0.38428 -0.131304 0.00334942)
(0.0252141 -49.0363 -0.00022013)
(-0.00444024 -49.2067 3.85373e-05)
(0.0434958 -49.923 -0.000379883)
(-0.0576254 -49.2767 0.000502461)
(-0.0534155 -49.7858 0.000465819)
(-0.0501323 -50.3042 0.000437225)
(-0.0528232 -48.3497 0.000460888)
(0.0957175 -40.3052 -0.000835652)
(-0.0587464 -25.6342 0.000512534)
(0.171859 -7.82759 -0.00153106)
(-0.180866 -1.17726 0.00156369)
(-0.305529 -0.262987 0.00265334)
(-0.33179 -0.0693337 0.00289108)
(0.0217786 -49.0846 -0.000190148)
(-0.00521152 -49.2304 4.52724e-05)
(0.0368909 -49.8818 -0.000322254)
(-0.0677443 -49.1877 0.000590791)
(-0.0447646 -49.7636 0.000390337)
(-0.0509681 -50.3259 0.000444566)
(-0.0241016 -48.4276 0.000210149)
(0.117868 -40.3756 -0.0010287)
(-0.0545051 -25.6777 0.00047547)
(0.316366 -7.86027 -0.00278899)
(-0.0662647 -0.708111 0.000576894)
(-0.216228 -0.102856 0.00187748)
(-0.23726 -0.0109405 0.00206685)
(0.0156538 -49.1219 -0.000136695)
(-0.00396271 -49.2502 3.43811e-05)
(0.027835 -49.8267 -0.000243237)
(-0.0774228 -49.1056 0.000675274)
(-0.0427962 -49.7488 0.000373182)
(-0.0589116 -50.358 0.000513909)
(-0.00316017 -48.5111 2.7388e-05)
(0.0951697 -40.479 -0.000830096)
(-0.0104838 -25.7353 9.12745e-05)
(0.438044 -8.17071 -0.00379383)
(0.00236281 -0.413279 -2.18698e-05)
(-0.131133 -0.0069374 0.00114493)
(-0.106761 0.0195426 0.000931406)
(0.0077409 -49.1443 -6.76366e-05)
(2.78589e-05 -49.2664 -4.37707e-07)
(0.01791 -49.7543 -0.000156639)
(-0.0843346 -49.0239 0.000735607)
(-0.0455176 -49.7323 0.000396941)
(-0.0673388 -50.381 0.000587402)
(-0.00639312 -48.577 5.56407e-05)
(0.031309 -40.5537 -0.000273416)
(0.042187 -25.6127 -0.000368518)
(-0.133325 -8.47966 0.00123971)
(-0.000300949 -49.1548 2.54803e-06)
(0.00698173 -49.285 -6.11195e-05)
(0.00960032 -49.6696 -8.41356e-05)
(-0.0849153 -48.9491 0.000740691)
(-0.0416694 -49.7213 0.000363372)
(-0.0584569 -50.4049 0.000509901)
(0.00642543 -48.649 -5.61702e-05)
(0.0565183 -40.6274 -0.00049329)
(0.0929492 -25.5315 -0.000811582)
(-0.0172627 -8.39045 0.000148188)
(-0.00736006 -49.1581 6.41556e-05)
(0.0147446 -49.3081 -0.000128866)
(0.00101 -49.5758 -9.1829e-06)
(-0.0837177 -48.8855 0.000730252)
(-0.0376966 -49.7203 0.000328705)
(-0.0502318 -50.4387 0.000438115)
(0.0161326 -48.7363 -0.000140898)
(0.0687058 -40.7139 -0.000599716)
(0.108635 -25.4959 -0.000948542)
(-0.00590999 -8.35415 5.02082e-05)
(-0.0126379 -49.1567 0.000110217)
(0.0215261 -49.3328 -0.000188053)
(-0.00802513 -49.4734 6.96559e-05)
(-0.0809597 -48.8325 0.000706195)
(-0.0326878 -49.7264 0.000284998)
(-0.0402012 -50.4778 0.000350576)
(0.0264698 -48.8279 -0.000231119)
(0.083161 -40.8044 -0.000725882)
(0.12362 -25.4571 -0.00107933)
(0.00373356 -8.26588 -3.49957e-05)
(-0.0155814 -49.154 0.000135906)
(0.0259536 -49.356 -0.000226704)
(-0.0175522 -49.3658 0.000152793)
(-0.0778073 -48.7923 0.000678697)
(-0.0275851 -49.7411 0.000240469)
(-0.0309364 -50.5236 0.000269718)
(0.0352868 -48.9257 -0.000308071)
(0.0945371 -40.8996 -0.00082519)
(0.133091 -25.4175 -0.00116203)
(0.00652978 -8.17991 -6.00126e-05)
(-0.0160603 -49.1514 0.000140084)
(0.0271089 -49.3717 -0.000236802)
(-0.0272914 -49.2546 0.000237787)
(-0.0744819 -48.7644 0.000649692)
(-0.0220457 -49.7632 0.00019213)
(-0.0218976 -50.5739 0.000190833)
(0.0437602 -49.0269 -0.000382013)
(0.105457 -40.9971 -0.000920512)
(0.142551 -25.3732 -0.00124461)
(0.00956064 -8.08094 -8.68125e-05)
(-0.014348 -49.1502 0.000125137)
(0.0252623 -49.3755 -0.000220707)
(-0.0363844 -49.1431 0.000317148)
(-0.0708428 -48.7497 0.000617951)
(-0.0159256 -49.7928 0.00013872)
(-0.0128214 -50.6285 0.000111623)
(0.0523157 -49.1323 -0.000456673)
(0.116049 -41.0976 -0.00101296)
(0.151631 -25.3254 -0.00132387)
(0.0120466 -7.97621 -0.000108574)
(-0.0110043 -49.1511 9.59536e-05)
(0.0211023 -49.3644 -0.00018442)
(-0.0441964 -49.0342 0.000385332)
(-0.0662738 -48.7484 0.000578096)
(-0.00876019 -49.8296 7.61875e-05)
(-0.00355674 -50.687 3.07689e-05)
(0.0613214 -49.2415 -0.00053527)
(0.127034 -41.2005 -0.00110884)
(0.161218 -25.2734 -0.00140756)
(0.0146575 -7.86278 -0.000131693)
(-0.00693236 -49.1548 6.04137e-05)
(0.0161412 -49.3382 -0.000141141)
(-0.049798 -48.931 0.000434226)
(-0.0600723 -48.761 0.000523995)
(-0.000203241 -49.8736 1.51213e-06)
(0.0066072 -50.7494 -5.79353e-05)
(0.0713185 -49.3546 -0.000622533)
(0.138856 -41.3061 -0.00121203)
(0.171507 -25.2172 -0.00149738)
(0.0173591 -7.7413 -0.000155629)
(-0.00315279 -49.1617 2.74254e-05)
(0.0121601 -49.2996 -0.00010641)
(-0.0524735 -48.8363 0.000457585)
(-0.0518071 -48.7876 0.000451884)
(0.00990148 -49.9244 -8.66719e-05)
(0.0182036 -50.8159 -0.000159145)
(0.0825231 -49.4718 -0.000720332)
(0.151832 -41.4144 -0.00132531)
(0.182806 -25.1564 -0.00159602)
(0.0202765 -7.61059 -0.00018142)
(-0.000621858 -49.1723 5.33425e-06)
(0.0108404 -49.2547 -9.49008e-05)
(-0.0517648 -48.7527 0.000451408)
(-0.0405027 -48.8287 0.000353243)
(0.0217221 -49.9815 -0.000189834)
(0.031592 -50.8871 -0.000275997)
(0.0953207 -49.5932 -0.00083204)
(0.166222 -41.5253 -0.00145092)
(0.195302 -25.0904 -0.00170512)
(0.0234179 -7.46992 -0.000209146)
(-2.28466e-05 -49.1874 1.04307e-07)
(0.013385 -49.2117 -0.000117111)
(-0.0474751 -48.6823 0.000413977)
(-0.0258446 -48.8842 0.000225329)
(0.0352768 -50.0449 -0.000308137)
(0.0470417 -50.9632 -0.000410843)
(0.109844 -49.719 -0.000958826)
(0.182112 -41.6389 -0.0015896)
(0.209123 -25.0188 -0.00182578)
(0.026747 -7.31818 -0.000238564)
(-0.00168092 -49.2076 1.45731e-05)
(0.0204205 -49.1802 -0.000178508)
(-0.0395526 -48.6273 0.00034484)
(-0.00765893 -48.9542 6.66246e-05)
(0.0505045 -50.1144 -0.000441046)
(0.0645852 -51.0447 -0.000563965)
(0.126255 -49.8495 -0.00110209)
(0.19947 -41.7551 -0.00174109)
(0.224456 -24.9408 -0.00195965)
(0.0301693 -7.1544 -0.000268851)
(-0.00543105 -49.2338 4.73005e-05)
(0.0317054 -49.1696 -0.000276985)
(-0.0285673 -48.5895 0.000248973)
(0.0138173 -49.0384 -0.0001208)
(0.0672735 -50.19 -0.00058741)
(0.0839214 -51.1321 -0.000732733)
(0.144666 -49.9848 -0.0012628)
(0.21815 -41.8735 -0.00190412)
(0.241531 -24.8556 -0.00210871)
(0.0336096 -6.97718 -0.000299336)
(-0.0105933 -49.2671 9.23523e-05)
(0.0460769 -49.1876 -0.000402397)
(-0.0152807 -48.571 0.00013302)
(0.037941 -49.1367 -0.000331332)
(0.0854482 -50.2718 -0.00074605)
(0.104879 -51.2258 -0.000915648)
(0.165243 -50.1257 -0.00144238)
(0.23798 -41.9947 -0.00207719)
(0.260464 -24.7629 -0.002274)
(0.0370423 -6.78569 -0.000329804)
(-0.0159123 -49.3086 0.000138772)
(0.0613568 -49.2384 -0.000535735)
(-0.00079794 -48.5734 6.62696e-06)
(0.0635114 -49.2489 -0.000554489)
(0.104759 -50.3601 -0.000914606)
(0.126457 -51.3264 -0.00110398)
(0.187597 -50.2726 -0.00163748)
(0.258663 -42.1185 -0.00225771)
(0.281206 -24.6621 -0.00245508)
(0.0403733 -6.57872 -0.000359414)
(-0.0198098 -49.3592 0.000172785)
(0.0747561 -49.3217 -0.000652666)
(0.0139313 -48.5989 -0.000121917)
(0.0892405 -49.3753 -0.000779026)
(0.124988 -50.4555 -0.00109118)
(0.148144 -51.4346 -0.00129325)
(0.211791 -50.4261 -0.00184864)
(0.279899 -42.245 -0.00244306)
(0.303767 -24.5525 -0.00265204)
(0.0435457 -6.35484 -0.000387663)
(-0.0205831 -49.4199 0.00017953)
(0.0832578 -49.4319 -0.000726862)
(0.0281797 -48.6499 -0.00024626)
(0.113523 -49.5158 -0.000990934)
(0.145811 -50.5587 -0.00127293)
(0.169107 -51.5508 -0.00147622)
(0.237594 -50.5871 -0.00207386)
(0.301446 -42.3747 -0.00263113)
(0.328134 -24.4342 -0.00286475)
(0.0465877 -6.11331 -0.000414792)
(-0.0168055 -49.4915 0.000146556)
(0.0843198 -49.5593 -0.000736142)
(0.0418329 -48.7292 -0.000365403)
(0.135215 -49.6702 -0.00118023)
(0.167377 -50.6708 -0.00146116)
(0.188635 -51.6761 -0.00164666)
(0.264851 -50.7566 -0.00231175)
(0.323157 -42.5082 -0.00282062)
(0.354237 -24.3068 -0.00309262)
(0.049577 -5.85301 -0.000441483)
(-0.00760814 -49.5747 6.6279e-05)
(0.0763996 -49.6916 -0.000667043)
(0.0551912 -48.84 -0.000481961)
(0.153127 -49.8386 -0.00133653)
(0.189416 -50.7928 -0.00165351)
(0.206762 -51.8113 -0.00180488)
(0.293705 -50.9356 -0.00256358)
(0.345011 -42.6461 -0.00301137)
(0.382095 -24.1703 -0.0033358)
(0.0526073 -5.57286 -0.000468563)
(0.00693145 -49.6697 -6.0624e-05)
(0.0596856 -49.8162 -0.000521208)
(0.0689829 -48.9852 -0.000602288)
(0.167117 -50.0205 -0.00145861)
(0.212262 -50.9259 -0.00185291)
(0.223278 -51.9571 -0.00194903)
(0.323929 -51.1251 -0.00282737)
(0.367159 -42.7891 -0.00320468)
(0.411732 -24.0248 -0.00359452)
(0.0558311 -5.27168 -0.000497376)
(0.0257853 -49.7771 -0.000225182)
(0.035948 -49.9233 -0.000314081)
(0.0839951 -49.1669 -0.000733254)
(0.177299 -50.2156 -0.00154746)
(0.235983 -51.0711 -0.00205994)
(0.238483 -52.1148 -0.00208174)
(0.355569 -51.3262 -0.00310351)
(0.389868 -42.9382 -0.00340289)
(0.443255 -23.8701 -0.00386968)
(0.0593928 -4.94813 -0.000529186)
(0.0470454 -49.8971 -0.000410742)
(0.00846941 -50.0074 -7.43053e-05)
(0.101093 -49.3861 -0.000882419)
(0.184554 -50.4233 -0.00161077)
(0.260657 -51.2293 -0.00227529)
(0.252925 -52.2853 -0.00220779)
(0.388618 -51.5401 -0.00339194)
(0.4134 -43.0941 -0.00360829)
(0.476854 -23.7063 -0.00416298)
(0.0634488 -4.60064 -0.000565365)
(0.0683201 -50.03 -0.000596431)
(-0.0186686 -50.0693 0.000162504)
(0.120824 -49.6417 -0.00105455)
(0.189938 -50.6428 -0.00165777)
(0.286004 -51.4011 -0.00249651)
(0.267062 -52.4697 -0.00233118)
(0.422853 -51.7677 -0.00369072)
(0.437809 -43.2579 -0.00382134)
(0.512736 -23.5335 -0.0044762)
(0.0680825 -4.22744 -0.000606648)
(0.0869538 -50.1756 -0.000759072)
(-0.0410728 -50.1161 0.000358006)
(0.143392 -49.9311 -0.00125146)
(0.194485 -50.8733 -0.00169748)
(0.311301 -51.5866 -0.00271729)
(0.281104 -52.6691 -0.00245372)
(0.457751 -52.0098 -0.00399529)
(0.4628 -43.4308 -0.00403945)
(0.55115 -23.3518 -0.00481151)
(0.0733614 -3.82654 -0.000653632)
(0.100404 -50.3335 -0.000876478)
(-0.0551482 -50.1604 0.000480832)
(0.167879 -50.2491 -0.00146512)
(0.199111 -51.113 -0.00173788)
(0.335421 -51.7852 -0.00292779)
(0.294485 -52.884 -0.0025705)
(0.492196 -52.2673 -0.00429588)
(0.487413 -43.6142 -0.00425427)
(0.592327 -23.1621 -0.00517094)
(0.0793306 -3.39579 -0.000706713)
(0.106594 -50.5021 -0.000930519)
(-0.0583571 -50.2182 0.000508835)
(0.192642 -50.5885 -0.00168121)
(0.203535 -51.3595 -0.00177652)
(0.355833 -51.9952 -0.00310593)
(0.305673 -53.1144 -0.00266814)
(0.524019 -52.5406 -0.00457361)
(0.50967 -43.8102 -0.00444851)
(0.636415 -22.9661 -0.00555578)
(0.0861024 -2.93297 -0.000766865)
(0.104133 -50.6779 -0.000909061)
(-0.0503934 -50.3051 0.000439344)
(0.214307 -50.939 -0.00187028)
(0.205974 -51.6083 -0.00179783)
(0.368509 -52.2134 -0.00321656)
(0.311365 -53.3591 -0.00271781)
(0.549281 -52.83 -0.00479406)
(0.525986 -44.0222 -0.00459086)
(0.683257 -22.7676 -0.00596464)
(0.0938178 -2.43516 -0.000835241)
(0.09238 -50.8542 -0.000806508)
(-0.033516 -50.4322 0.000292071)
(0.227698 -51.287 -0.00198717)
(0.202404 -51.8523 -0.0017667)
(0.36715 -52.4338 -0.00320469)
(0.30573 -53.6149 -0.00266862)
(0.561196 -53.1351 -0.00489802)
(0.530366 -44.2551 -0.00462899)
(0.732167 -22.5739 -0.00639153)
(0.103951 -1.90252 -0.000924749)
(0.0713839 -51.0183 -0.000623292)
(-0.0131616 -50.6 0.000114464)
(0.225233 -51.6132 -0.00196568)
(0.185488 -52.0796 -0.00161907)
(0.341986 -52.6467 -0.00298506)
(0.278936 -53.8752 -0.00243476)
(0.54813 -53.4543 -0.00478393)
(0.512785 -44.517 -0.00447538)
(0.78032 -22.3978 -0.00681176)
(0.116799 -1.32602 -0.00103776)
(0.0415711 -51.1493 -0.000363133)
(0.00186822 -50.7931 -1.66684e-05)
(0.196834 -51.891 -0.00171788)
(0.143642 -52.2708 -0.00125385)
(0.278562 -52.8355 -0.00243152)
(0.215247 -54.1271 -0.00187889)
(0.49104 -53.7838 -0.00428558)
(0.457719 -44.8202 -0.00399447)
(0.8234 -22.2641 -0.00718758)
(0.140268 -0.721621 -0.00124583)
(0.0031095 -51.2127 -2.74974e-05)
(-0.00105107 -50.9731 8.8491e-06)
(0.129289 -52.0822 -0.00112843)
(0.0594828 -52.3947 -0.000519339)
(0.155709 -52.9723 -0.0013593)
(0.0903573 -54.3471 -0.000788871)
(0.358992 -54.1146 -0.00313299)
(0.339234 -45.1828 -0.00295989)
(0.847819 -22.2102 -0.00740034)
(0.174218 -0.0544038 -0.00154488)
(-0.0445589 -51.1539 0.000388482)
(-0.0377485 -51.0734 0.000329151)
(0.00656059 -52.1315 -5.7359e-05)
(-0.0909715 -52.4013 0.000793769)
(-0.0553855 -53.0108 0.000483048)
(-0.132034 -54.492 0.00115206)
(0.103246 -54.4277 -0.00090072)
(0.116972 -45.6309 -0.0010193)
(0.830843 -22.3086 -0.00725145)
(0.244534 0.605072 -0.00216049)
(-0.103108 -50.8923 0.000899411)
(-0.126313 -50.9937 0.0011021)
(-0.189915 -51.96 0.00165735)
(-0.339595 -52.216 0.00296365)
(-0.39146 -52.8765 0.00341615)
(-0.504371 -54.4883 0.00440159)
(-0.352218 -54.6884 0.00307467)
(-0.281419 -46.1949 0.00245885)
(0.714134 -22.6636 -0.00623167)
(0.343769 1.3417 -0.00302791)
(-0.176878 -50.316 0.00154317)
(-0.284218 -50.5974 0.00248019)
(-0.482497 -51.4588 0.00421085)
(-0.726112 -51.7304 0.00633699)
(-0.898571 -52.4538 0.00784194)
(-1.10023 -54.2084 0.00960184)
(-1.10407 -54.8249 0.00963687)
(-0.964351 -46.9085 0.00842089)
(0.392393 -23.4454 -0.00342135)
(0.506086 1.91282 -0.00444637)
(-0.273028 -49.2759 0.00238224)
(-0.525289 -49.7112 0.00458408)
(-0.896384 -50.475 0.00782303)
(-1.29143 -50.7876 0.0112708)
(-1.63322 -51.5721 0.0142536)
(-2.00612 -53.4618 0.0175078)
(-2.25691 -54.6473 0.0196982)
(-2.10851 -47.773 0.0184088)
(-0.35946 -24.8121 0.00314444)
(0.748788 2.41684 -0.00656188)
(-0.396403 -47.5881 0.00345891)
(-0.852842 -48.1303 0.00744274)
(-1.44335 -48.8134 0.0125966)
(-2.05644 -49.1771 0.0179474)
(-2.63354 -49.9958 0.0229838)
(-3.27703 -51.9554 0.0285994)
(-3.89272 -53.8104 0.0339737)