/*--------------------------------*- C++ -*----------------------------------*\
| =========                 |                                                 |
| \\      /  F ield         | OpenFOAM: The Open Source CFD Toolbox           |
|  \\    /   O peration     | Version:  v2012                                 |
|   \\  /    A nd           | Website:  www.openfoam.com                      |
|    \\/     M anipulation  |                                                 |
\*---------------------------------------------------------------------------*/
FoamFile
{
    version     2.0;
    format      ascii;
    class       surfaceScalarField;
    location    "1";
    object      phi;
}
// * * * * * * * * * * * * * * * * * * * * * * * * * * * * * * * * * * * * * //

dimensions      [0 3 -1 0 0 0 0];
oriented        oriented;


internalField   nonuniform List<scalar> 
6449
(
-1.24357e-09
-1.43782e-09
-8.19858e-13
-1.23342e-09
-3.9724e-09
-1.87699e-12
-9.11386e-10
-5.77825e-09
-3.49815e-15
-4.97802e-10
-5.8529e-09
-7.84969e-15
-3.02518e-09
-2.05214e-14
-2.16039e-11
-1.41879e-09
-1.33108e-14
-4.42011e-11
-3.94981e-09
-7.08924e-15
2.18076e-11
-5.84427e-09
8.00131e-16
7.38936e-11
-5.90501e-09
3.88604e-15
-2.95133e-09
9.37906e-15
-6.30328e-10
-1.4087e-09
-2.98787e-14
-6.06219e-10
-3.97392e-09
2.66528e-15
-4.98824e-10
-5.95166e-09
2.66533e-15
-2.93107e-10
-6.11073e-09
1.43698e-15
-3.24442e-09
1.71857e-15
-1.38228e-11
-1.39488e-09
-3.97105e-16
-6.81405e-12
-3.98093e-09
4.41033e-16
7.8103e-12
-5.96628e-09
1.96379e-15
4.01756e-11
-6.14309e-09
4.93394e-16
-3.20425e-09
6.38386e-17
-5.08046e-11
-1.34407e-09
3.51983e-16
-8.49616e-11
-3.94678e-09
9.87874e-16
-1.16263e-10
-5.93498e-09
2.06879e-15
-6.91538e-11
-6.19021e-09
8.56154e-16
-3.2734e-09
2.01653e-16
-1.07218e-11
-1.33335e-09
6.19505e-16
-2.1855e-11
-3.93564e-09
1.75703e-15
-1.54636e-11
-5.94136e-09
1.92392e-15
5.92442e-12
-6.21159e-09
1.57208e-15
-3.26747e-09
6.30916e-16
-1.84914e-11
-1.31486e-09
7.53946e-16
-4.47065e-11
-3.90942e-09
2.23756e-15
-5.43422e-11
-5.93173e-09
1.70376e-15
-3.10197e-11
-6.23491e-09
1.29529e-15
-3.29849e-09
3.35763e-16
-1.28298e-11
-1.30203e-09
7.0497e-16
-2.95802e-11
-3.89267e-09
1.80791e-15
-2.55065e-11
-5.9358e-09
2.4436e-15
-3.82537e-12
-6.25659e-09
1.82852e-15
-3.30231e-09
8.4993e-16
-1.7516e-11
-1.28452e-09
9.26815e-16
-4.55411e-11
-3.86465e-09
2.3139e-15
-4.86374e-11
-5.93271e-09
2.298e-15
-2.23195e-11
-6.28291e-09
1.73495e-15
-3.32463e-09
5.95087e-16
-1.48902e-11
-1.26962e-09
1.31131e-15
-3.68305e-11
-3.8427e-09
2.41867e-15
-3.00064e-11
-5.93953e-09
2.46648e-15
4.42505e-14
-6.31296e-09
1.95574e-15
-3.32459e-09
5.64477e-16
-2.0603e-11
-1.24902e-09
1.651e-15
-5.59613e-11
-3.80734e-09
3.26672e-15
-5.31595e-11
-5.94234e-09
2.02831e-15
-9.20078e-12
-6.35691e-09
2.29337e-15
-3.33379e-09
7.65476e-16
-1.88892e-11
-1.23013e-09
1.01064e-15
-5.03803e-11
-3.77584e-09
3.35585e-15
-3.66472e-11
-5.95608e-09
2.05366e-15
2.14747e-11
-6.41503e-09
1.79948e-15
-3.31231e-09
5.24587e-16
-2.94632e-11
-1.20066e-09
1.54474e-15
-8.70106e-11
-3.71829e-09
3.56271e-15
-8.31486e-11
-5.95994e-09
2.33847e-15
1.76388e-11
-6.51582e-09
2.41219e-15
-3.29467e-09
7.35745e-16
-3.34144e-11
-1.16725e-09
1.13435e-15
-1.06789e-10
-3.64492e-09
2.7794e-15
-1.163e-10
-5.95044e-09
2.99172e-15
2.58661e-11
-6.65799e-09
2.08607e-15
-3.26881e-09
1.00973e-15
-6.02352e-11
-1.10701e-09
1.66995e-15
-2.12262e-10
-3.49289e-09
2.80282e-15
-3.0332e-10
-5.85937e-09
4.40943e-15
-8.10651e-11
-6.88024e-09
4.30278e-15
-3.34987e-09
4.76322e-15
-9.80841e-11
-1.00892e-09
1.80488e-15
-3.86636e-10
-3.20434e-09
3.59929e-15
-7.04595e-10
-5.54142e-09
3.6053e-15
-5.98408e-10
-6.98646e-09
3.25628e-16
-3.94837e-09
-7.40249e-15
-1.5414e-10
-8.54776e-10
2.10773e-15
-6.41676e-10
-2.71681e-09
3.34317e-15
-1.34123e-09
-4.84192e-09
5.01554e-16
-1.68725e-09
-6.64033e-09
1.37506e-14
-5.6355e-09
7.22757e-15
-2.90001e-10
-5.64775e-10
1.37967e-15
-1.26145e-09
-1.74536e-09
2.30756e-15
-3.06759e-09
-3.03578e-09
3.89754e-15
-5.54323e-09
-4.16469e-09
2.30932e-15
-6.98434e-09
-4.19435e-09
-9.1671e-16
-5.47185e-09
-1.5125e-09
-1.38862e-16
-4.18979e-09
-1.28207e-09
7.80097e-16
-3.25692e-09
-9.32875e-10
-7.3873e-16
-2.48536e-09
-7.7156e-10
1.40403e-15
-1.92398e-09
-5.61366e-10
-4.56853e-18
-1.47941e-09
-4.4457e-10
3.70534e-16
-1.15452e-09
-3.24898e-10
2.11926e-16
-9.04861e-10
-2.49655e-10
2.86455e-16
-7.20068e-10
-1.84794e-10
1.96569e-16
-5.79555e-10
-1.40512e-10
1.79947e-16
-4.73301e-10
-1.06254e-10
1.44286e-16
-3.91685e-10
-8.16163e-11
1.12191e-16
-3.28263e-10
-6.34226e-11
1.19995e-16
-2.78378e-10
-4.98841e-11
1.08401e-16
-2.38504e-10
-3.98746e-11
1.07435e-16
-2.06277e-10
-3.2227e-11
1.01348e-16
-1.79848e-10
-2.64288e-11
9.87084e-17
-1.57954e-10
-2.18945e-11
8.68276e-17
-1.39601e-10
-1.83526e-11
8.8451e-17
-1.24075e-10
-1.55266e-11
7.74175e-17
-1.10812e-10
-1.32626e-11
7.58419e-17
-9.93878e-11
-1.14244e-11
7.42147e-17
-8.94666e-11
-9.9214e-12
7.62761e-17
-8.07846e-11
-8.68216e-12
7.68609e-17
-7.31331e-11
-7.65165e-12
7.77685e-17
-6.78853e-12
6.70743e-17
-1.99074e-10
-3.65701e-10
1.02863e-15
-8.54777e-10
-1.08966e-09
2.11339e-15
-2.09003e-09
-1.80052e-09
2.83443e-15
-3.88887e-09
-2.36586e-09
3.76352e-15
-5.41567e-09
-2.66752e-09
3.19326e-15
-4.94142e-09
-1.98674e-09
2.14752e-15
-4.33279e-09
-1.89072e-09
1.83987e-15
-3.83055e-09
-1.43511e-09
1.75001e-16
-3.30914e-09
-1.29297e-09
2.13788e-15
-2.868e-09
-1.00249e-09
6.62825e-16
-2.45129e-09
-8.61274e-10
9.31361e-16
-2.09932e-09
-6.7688e-10
7.17844e-16
-1.78671e-09
-5.62266e-10
7.28495e-16
-1.52513e-09
-4.46371e-10
5.91451e-16
-1.30128e-09
-3.64355e-10
5.33916e-16
-1.11524e-09
-2.92295e-10
4.67742e-16
-9.58937e-10
-2.37922e-10
4.04122e-16
-8.29071e-10
-1.93289e-10
3.88265e-16
-7.20407e-10
-1.58547e-10
3.56417e-16
-6.29585e-10
-1.30697e-10
3.39297e-16
-5.53188e-10
-1.08625e-10
3.1719e-16
-4.88666e-10
-9.09495e-11
3.01007e-16
-4.33822e-10
-7.67394e-11
2.82574e-16
-3.86923e-10
-6.52519e-11
2.69486e-16
-3.46551e-10
-5.58978e-11
2.46421e-16
-3.11575e-10
-4.82394e-11
2.37875e-16
-2.81072e-10
-4.19263e-11
2.29068e-16
-2.54306e-10
-3.66879e-11
2.25389e-16
-2.3067e-10
-3.23188e-11
2.19897e-16
-2.09675e-10
-2.8647e-11
2.17629e-16
-2.55443e-11
1.94985e-16
-9.64309e-11
-2.6927e-10
7.27148e-16
-3.90966e-10
-7.95126e-10
1.69472e-15
-8.8316e-10
-1.30833e-09
2.36855e-15
-1.55238e-09
-1.69664e-09
2.64565e-15
-2.2889e-09
-1.931e-09
2.79402e-15
-2.63167e-09
-1.64397e-09
2.57625e-15
-2.85131e-09
-1.67109e-09
2.64665e-15
-2.86621e-09
-1.42022e-09
1.34166e-15
-2.80331e-09
-1.35587e-09
2.66597e-15
-2.65354e-09
-1.15226e-09
1.23072e-15
-2.4685e-09
-1.04631e-09
1.38051e-15
-2.25954e-09
-8.85846e-10
1.16951e-15
-2.04578e-09
-7.7602e-10
1.11481e-15
-1.83786e-09
-6.543e-10
9.51444e-16
-1.64164e-09
-5.60573e-10
8.60431e-16
-1.46214e-09
-4.71791e-10
7.67811e-16
-1.29997e-09
-4.00091e-10
6.81745e-16
-1.15593e-09
-3.37333e-10
6.4637e-16
-1.02869e-09
-2.85787e-10
5.96964e-16
-9.17139e-10
-2.42244e-10
5.64348e-16
-8.1951e-10
-2.06257e-10
5.27994e-16
-7.34204e-10
-1.76255e-10
5.00056e-16
-6.59595e-10
-1.51349e-10
4.70918e-16
-5.94235e-10
-1.30612e-10
4.47838e-16
-5.36814e-10
-1.13319e-10
4.1474e-16
-4.86196e-10
-9.88571e-11
3.98809e-16
-4.41397e-10
-8.67246e-11
3.83241e-16
-4.01584e-10
-7.65009e-11
3.80578e-16
-3.66042e-10
-6.78623e-11
3.53959e-16
-3.34171e-10
-6.05187e-11
3.55008e-16
-5.42519e-11
3.19477e-16
-8.98633e-11
-1.79407e-10
6.52928e-16
-3.66059e-10
-5.18928e-10
1.68725e-15
-8.22216e-10
-8.5217e-10
2.27993e-15
-1.39418e-09
-1.12468e-09
2.41166e-15
-1.97094e-09
-1.35423e-09
2.68997e-15
-2.24135e-09
-1.37356e-09
2.41184e-15
-2.4518e-09
-1.46065e-09
2.7119e-15
-2.51069e-09
-1.36133e-09
1.54979e-15
-2.52015e-09
-1.3464e-09
2.8584e-15
-2.45727e-09
-1.21513e-09
1.51239e-15
-2.36106e-09
-1.14251e-09
1.66008e-15
-2.23281e-09
-1.01411e-09
1.47685e-15
-2.0889e-09
-9.19924e-10
1.41057e-15
-1.93578e-09
-8.07426e-10
1.24208e-15
-1.78116e-09
-7.15192e-10
1.13846e-15
-1.63007e-09
-6.22872e-10
1.03502e-15
-1.48597e-09
-5.4419e-10
9.33263e-16
-1.35127e-09
-4.72035e-10
8.84816e-16
-1.22697e-09
-4.10088e-10
8.21362e-16
-1.11356e-09
-3.55654e-10
7.76484e-16
-1.01078e-09
-3.09037e-10
7.24842e-16
-9.18125e-10
-2.6891e-10
6.90647e-16
-8.34831e-10
-2.34644e-10
6.52474e-16
-7.60063e-10
-2.05381e-10
6.21381e-16
-6.92954e-10
-1.80428e-10
5.79257e-16
-6.32671e-10
-1.5914e-10
5.56416e-16
-5.78427e-10
-1.40967e-10
5.3431e-16
-5.29519e-10
-1.25411e-10
5.18505e-16
-4.85297e-10
-1.12085e-10
5.02208e-16
-4.45199e-10
-1.00617e-10
4.90203e-16
-9.07248e-11
4.44919e-16
-4.29354e-11
-1.36472e-10
4.74744e-16
-1.70255e-10
-3.91608e-10
1.25957e-15
-3.80169e-10
-6.42253e-10
1.91702e-15
-6.50749e-10
-8.54101e-10
2.23605e-15
-9.61597e-10
-1.04337e-09
2.72392e-15
-1.22722e-09
-1.10794e-09
2.47426e-15
-1.48347e-09
-1.2044e-09
2.73619e-15
-1.66288e-09
-1.18192e-09
1.59919e-15
-1.8078e-09
-1.20147e-09
2.98196e-15
-1.88527e-09
-1.13766e-09
1.69821e-15
-1.92433e-09
-1.10345e-09
1.87166e-15
-1.91624e-09
-1.02222e-09
1.71868e-15
-1.87825e-09
-9.57909e-10
1.65081e-15
-1.8127e-09
-8.72971e-10
1.48708e-15
-1.72985e-09
-7.98047e-10
1.3787e-15
-1.63465e-09
-7.18069e-10
1.27212e-15
-1.53318e-09
-6.45652e-10
1.16046e-15
-1.42947e-09
-5.75751e-10
1.10514e-15
-1.32683e-09
-5.12724e-10
1.033e-15
-1.22755e-09
-4.54931e-10
9.79861e-16
-1.13314e-09
-4.0345e-10
9.22083e-16
-1.04448e-09
-3.57572e-10
8.7522e-16
-9.61971e-10
-3.17152e-10
8.28842e-16
-8.85681e-10
-2.81671e-10
7.90056e-16
-8.15442e-10
-2.50667e-10
7.39112e-16
-7.50941e-10
-2.23641e-10
7.12892e-16
-6.91782e-10
-2.00124e-10
6.82983e-16
-6.37544e-10
-1.7965e-10
6.60772e-16
-5.87781e-10
-1.61849e-10
6.3997e-16
-5.42078e-10
-1.46322e-10
6.14045e-16
-1.32767e-10
5.67651e-16
-4.01513e-11
-9.63204e-11
4.28852e-16
-1.56986e-10
-2.74772e-10
1.04747e-15
-3.46253e-10
-4.52985e-10
1.5786e-15
-5.84074e-10
-6.16279e-10
2.13403e-15
-8.52966e-10
-7.74476e-10
2.44932e-15
-1.08278e-09
-8.78123e-10
2.31182e-15
-1.30217e-09
-9.85022e-10
2.6556e-15
-1.46268e-09
-1.02141e-09
1.61292e-15
-1.59607e-09
-1.06808e-09
3.04082e-15
-1.67919e-09
-1.05453e-09
1.79517e-15
-1.73292e-09
-1.04972e-09
2.00437e-15
-1.74998e-09
-1.00516e-09
1.8682e-15
-1.74249e-09
-9.65404e-10
1.81877e-15
-1.71075e-09
-9.04703e-10
1.66538e-15
-1.66209e-09
-8.46705e-10
1.56569e-15
-1.59942e-09
-7.8074e-10
1.46569e-15
-1.52747e-09
-7.17608e-10
1.35146e-15
-1.44926e-09
-6.53959e-10
1.29509e-15
-1.36785e-09
-5.9413e-10
1.21725e-15
-1.28548e-09
-5.37301e-10
1.15781e-15
-1.20397e-09
-4.84962e-10
1.10044e-15
-1.12462e-09
-4.36921e-10
1.04438e-15
-1.04837e-09
-3.93408e-10
9.92687e-16
-9.75792e-10
-3.54248e-10
9.48292e-16
-9.07224e-10
-3.19235e-10
8.93307e-16
-8.42793e-10
-2.88072e-10
8.59123e-16
-7.82477e-10
-2.60438e-10
8.25211e-16
-7.26168e-10
-2.3596e-10
7.99118e-16
-6.73673e-10
-2.14346e-10
7.73802e-16
-6.24772e-10
-1.95224e-10
7.51871e-16
-1.78318e-10
6.90669e-16
-2.42998e-11
-7.20206e-11
3.69083e-16
-9.07379e-11
-2.08334e-10
9.0631e-16
-1.9644e-10
-3.47283e-10
1.32724e-15
-3.33545e-10
-4.79171e-10
1.96688e-15
-4.97769e-10
-6.1025e-10
1.81767e-15
-6.66906e-10
-7.08987e-10
2.04273e-15
-8.44012e-10
-8.07919e-10
2.44023e-15
-1.00306e-09
-8.62365e-10
1.56213e-15
-1.15242e-09
-9.18714e-10
2.98779e-15
-1.27289e-09
-9.34055e-10
1.81328e-15
-1.37277e-09
-9.49835e-10
2.06079e-15
-1.44257e-09
-9.35363e-10
1.96829e-15
-1.48875e-09
-9.19218e-10
1.93863e-15
-1.5092e-09
-8.84255e-10
1.80912e-15
-1.50901e-09
-8.46897e-10
1.72067e-15
-1.48988e-09
-7.99872e-10
1.63094e-15
-1.45599e-09
-7.51493e-10
1.51674e-15
-1.41022e-09
-6.9973e-10
1.46334e-15
-1.35587e-09
-6.48477e-10
1.38683e-15
-1.29557e-09
-5.97608e-10
1.32543e-15
-1.23167e-09
-5.4886e-10
1.26053e-15
-1.16604e-09
-5.02551e-10
1.2049e-15
-1.10018e-09
-4.59273e-10
1.14897e-15
-1.03518e-09
-4.19239e-10
1.09998e-15
-9.71878e-10
-3.82541e-10
1.04082e-15
-9.10807e-10
-3.49144e-10
1.00288e-15
-8.52314e-10
-3.18927e-10
9.64158e-16
-7.96607e-10
-2.9167e-10
9.32888e-16
-7.43751e-10
-2.67203e-10
9.00377e-16
-6.93747e-10
-2.4523e-10
8.76591e-16
-2.25539e-10
8.09947e-16
-2.29375e-11
-4.90832e-11
3.3824e-16
-8.47689e-11
-1.46503e-10
8.14841e-16
-1.81485e-10
-2.50566e-10
1.198e-15
-3.04927e-10
-3.55725e-10
1.81573e-15
-4.50791e-10
-4.64386e-10
1.72382e-15
-6.00317e-10
-5.59462e-10
2.00071e-15
-7.54702e-10
-6.53538e-10
2.31931e-15
-8.94808e-10
-7.22266e-10
1.44242e-15
-1.02587e-09
-7.87651e-10
2.91685e-15
-1.13502e-09
-8.24897e-10
1.77405e-15
-1.22784e-09
-8.57016e-10
2.06623e-15
-1.29807e-09
-8.65138e-10
2.00831e-15
-1.35006e-09
-8.67218e-10
2.00315e-15
-1.3821e-09
-8.52223e-10
1.90147e-15
-1.39745e-09
-8.31548e-10
1.82961e-15
-1.3968e-09
-8.00518e-10
1.75559e-15
-1.38283e-09
-7.65464e-10
1.64831e-15
-1.35723e-09
-7.25325e-10
1.60395e-15
-1.3223e-09
-6.83415e-10
1.52614e-15
-1.27989e-09
-6.40009e-10
1.46654e-15
-1.23193e-09
-5.96829e-10
1.40269e-15
-1.18001e-09
-5.54467e-10
1.34731e-15
-1.12559e-09
-5.13691e-10
1.29041e-15
-1.06987e-09
-4.74963e-10
1.23954e-15
-1.01382e-09
-4.38587e-10
1.17858e-15
-9.58226e-10
-4.04742e-10
1.13689e-15
-9.0366e-10
-3.73491e-10
1.09582e-15
-8.50564e-10
-3.44767e-10
1.06109e-15
-7.99226e-10
-3.18543e-10
1.02757e-15
-7.4984e-10
-2.94618e-10
9.87943e-16
-2.72867e-10
9.24871e-16
-1.67334e-11
-3.23498e-11
3.05263e-16
-5.93175e-11
-1.03918e-10
7.55448e-16
-1.2383e-10
-1.86054e-10
1.08913e-15
-2.06954e-10
-2.72599e-10
1.66545e-15
-3.07315e-10
-3.64025e-10
1.50993e-15
-4.1809e-10
-4.48689e-10
1.66687e-15
-5.3844e-10
-5.33192e-10
2.21874e-15
-6.58596e-10
-6.02119e-10
1.43065e-15
-7.78683e-10
-6.67558e-10
2.91271e-15
-8.89449e-10
-7.14126e-10
1.81395e-15
-9.91538e-10
-7.54924e-10
2.13478e-15
-1.07865e-09
-7.78027e-10
2.11475e-15
-1.15166e-09
-7.94205e-10
2.09864e-15
-1.20771e-09
-7.96176e-10
2.02504e-15
-1.24804e-09
-7.9122e-10
1.95859e-15
-1.27239e-09
-7.76167e-10
1.9039e-15
-1.28244e-09
-7.55416e-10
1.77872e-15
-1.27937e-09
-7.2839e-10
1.74513e-15
-1.26509e-09
-6.97696e-10
1.66776e-15
-1.24129e-09
-6.63812e-10
1.60778e-15
-1.20978e-09
-6.28342e-10
1.5465e-15
-1.17218e-09
-5.92064e-10
1.48525e-15
-1.13001e-09
-5.55859e-10
1.42092e-15
-1.08458e-09
-5.20398e-10
1.37088e-15
-1.037e-09
-4.86161e-10
1.30956e-15
-9.88226e-10
-4.5352e-10
1.26529e-15
-9.39003e-10
-4.22711e-10
1.22128e-15
-8.89954e-10
-3.93818e-10
1.18348e-15
-8.4154e-10
-3.66959e-10
1.14742e-15
-7.9412e-10
-3.4204e-10
1.11192e-15
-3.19036e-10
1.03804e-15
-1.57659e-11
-1.6584e-11
2.81155e-16
-5.58614e-11
-6.38226e-11
6.9806e-16
-1.1601e-10
-1.25905e-10
1.03467e-15
-1.92583e-10
-1.96026e-10
1.3088e-15
-2.83698e-10
-2.72907e-10
1.63848e-15
-3.83389e-10
-3.48991e-10
2.21996e-15
-4.90237e-10
-4.26353e-10
1.49815e-15
-5.96824e-10
-4.95546e-10
1.15631e-15
-7.02582e-10
-5.61794e-10
2.71666e-15
-8.01166e-10
-6.15538e-10
1.73882e-15
-8.92711e-10
-6.63377e-10
2.07988e-15
-9.73084e-10
-6.97659e-10
2.09794e-15
-1.04273e-09
-7.24557e-10
2.10318e-15
-1.09964e-09
-7.3927e-10
2.05868e-15
-1.14442e-09
-7.46435e-10
2.00672e-15
-1.17659e-09
-7.43995e-10
1.97955e-15
-1.19698e-09
-7.35029e-10
1.86214e-15
-1.20605e-09
-7.19315e-10
1.84248e-15
-1.20488e-09
-6.9887e-10
1.76865e-15
-1.19445e-09
-6.74237e-10
1.71379e-15
-1.176e-09
-6.468e-10
1.65779e-15
-1.15069e-09
-6.17369e-10
1.60066e-15
-1.11975e-09
-5.86801e-10
1.54386e-15
-1.0843e-09
-5.55845e-10
1.4922e-15
-1.0454e-09
-5.2506e-10
1.4296e-15
-1.00399e-09
-4.94934e-10
1.38448e-15
-9.60877e-10
-4.6582e-10
1.33902e-15
-9.16775e-10
-4.37922e-10
1.29919e-15
-8.72254e-10
-4.11482e-10
1.26043e-15
-8.27791e-10
-3.86505e-10
1.22313e-15
-3.63067e-10
1.14999e-15
-1.26135e-11
-3.97059e-12
2.64321e-16
-4.38635e-11
-3.25725e-11
6.5462e-16
-8.9684e-11
-8.00847e-11
9.34405e-16
-1.47803e-10
-1.37907e-10
1.21561e-15
-2.17259e-10
-2.03449e-10
1.40803e-15
-2.95526e-10
-2.70724e-10
1.58172e-15
-3.81693e-10
-3.40185e-10
1.98216e-15
-4.71893e-10
-4.05341e-10
2.16799e-15
-5.65029e-10
-4.68657e-10
2.1652e-15
-6.56718e-10
-5.23848e-10
1.99218e-15
-7.45798e-10
-5.74295e-10
2.08881e-15
-8.28525e-10
-6.14936e-10
2.13191e-15
-9.03931e-10
-6.49148e-10
2.11147e-15
-9.69605e-10
-6.73596e-10
2.09528e-15
-1.02507e-09
-6.90969e-10
2.05476e-15
-1.06932e-09
-6.99742e-10
2.0458e-15
-1.10251e-09
-7.01845e-10
1.93279e-15
-1.12471e-09
-6.97114e-10
1.92544e-15
-1.1366e-09
-6.86977e-10
1.86053e-15
-1.13892e-09
-6.71919e-10
1.81272e-15
-1.13264e-09
-6.53076e-10
1.75674e-15
-1.11878e-09
-6.31229e-10
1.70738e-15
-1.09841e-09
-6.07178e-10
1.65142e-15
-1.07255e-09
-5.81706e-10
1.60234e-15
-1.04219e-09
-5.55411e-10
1.54084e-15
-1.00827e-09
-5.28857e-10
1.49561e-15
-9.71605e-10
-5.02484e-10
1.44935e-15
-9.32944e-10
-4.76585e-10
1.40819e-15
-8.92923e-10
-4.51505e-10
1.36506e-15
-8.52095e-10
-4.27335e-10
1.32785e-15
-4.04244e-10
1.25056e-15
-1.19665e-11
7.99588e-12
2.49411e-16
-4.1612e-11
-2.92678e-12
6.20326e-16
-8.47938e-11
-3.69028e-11
9.06857e-16
-1.39122e-10
-8.35787e-11
1.16312e-15
-2.03289e-10
-1.39282e-10
1.36111e-15
-2.74921e-10
-1.99091e-10
1.51123e-15
-3.52831e-10
-2.62276e-10
1.62556e-15
-4.33942e-10
-3.24228e-10
1.72184e-15
-5.17069e-10
-3.85531e-10
1.92357e-15
-5.99084e-10
-4.41831e-10
1.90566e-15
-6.78958e-10
-4.94421e-10
2.00523e-15
-7.54152e-10
-5.39746e-10
2.08945e-15
-8.23868e-10
-5.7943e-10
2.0862e-15
-8.86402e-10
-6.11063e-10
2.09541e-15
-9.4123e-10
-6.3614e-10
2.07357e-15
-9.87437e-10
-6.53535e-10
2.08539e-15
-1.02483e-09
-6.64451e-10
1.98303e-15
-1.05316e-09
-6.68781e-10
1.98895e-15
-1.07262e-09
-6.67523e-10
1.93108e-15
-1.08347e-09
-6.61071e-10
1.8921e-15
-1.08623e-09
-6.50312e-10
1.84215e-15
-1.08153e-09
-6.35928e-10
1.79872e-15
-1.07012e-09
-6.18593e-10
1.7487e-15
-1.05278e-09
-5.99046e-10
1.70122e-15
-1.03033e-09
-5.77855e-10
1.64268e-15
-1.00359e-09
-5.55599e-10
1.5982e-15
-9.73325e-10
-5.3275e-10
1.55439e-15
-9.40259e-10
-5.09654e-10
1.51079e-15
-9.05041e-10
-4.86725e-10
1.46943e-15
-8.68258e-10
-4.64119e-10
1.42692e-15
-4.42083e-10
1.34913e-15
-1.00839e-11
1.80797e-11
2.36499e-16
-3.48395e-11
2.18291e-11
6.02058e-16
-7.05819e-11
-1.16036e-12
8.51106e-16
-1.15398e-10
-3.87631e-11
1.05279e-15
-1.68297e-10
-8.63825e-11
1.30127e-15
-2.28002e-10
-1.39386e-10
1.38254e-15
-2.93796e-10
-1.96484e-10
1.62162e-15
-3.63964e-10
-2.5406e-10
1.75453e-15
-4.37551e-10
-3.11944e-10
1.89318e-15
-5.124e-10
-3.66981e-10
1.89068e-15
-5.87308e-10
-4.19512e-10
1.98957e-15
-6.60086e-10
-4.66972e-10
2.08617e-15
-7.29508e-10
-5.10006e-10
2.07952e-15
-7.93796e-10
-5.46776e-10
2.10756e-15
-8.51981e-10
-5.77954e-10
2.09426e-15
-9.02939e-10
-6.02576e-10
2.12255e-15
-9.46145e-10
-6.21245e-10
2.02689e-15
-9.81148e-10
-6.33778e-10
2.04517e-15
-1.00789e-09
-6.4078e-10
1.99583e-15
-1.02646e-09
-6.42503e-10
1.964e-15
-1.03718e-09
-6.39595e-10
1.92398e-15
-1.04049e-09
-6.32616e-10
1.88141e-15
-1.03697e-09
-6.22117e-10
1.83538e-15
-1.02725e-09
-6.08765e-10
1.79133e-15
-1.01202e-09
-5.93079e-10
1.73525e-15
-9.91998e-10
-5.75624e-10
1.69235e-15
-9.67869e-10
-5.56876e-10
1.64711e-15
-9.40321e-10
-5.37204e-10
1.61311e-15
-9.09982e-10
-5.17066e-10
1.55487e-15
-8.77442e-10
-4.96661e-10
1.51992e-15
-4.76296e-10
1.4436e-15
-9.46931e-12
2.7549e-11
2.25149e-16
-3.29779e-11
4.5338e-11
5.73057e-16
-6.69124e-11
3.27741e-11
8.06181e-16
-1.092e-10
3.52391e-12
1.00134e-15
-1.5868e-10
-3.69022e-11
1.2955e-15
-2.1408e-10
-8.39864e-11
1.38409e-15
-2.7455e-10
-1.36016e-10
1.51684e-15
-3.38624e-10
-1.89985e-10
1.64427e-15
-4.05368e-10
-2.45202e-10
1.79706e-15
-4.7316e-10
-2.99188e-10
1.83238e-15
-5.41012e-10
-3.5166e-10
1.94424e-15
-6.07378e-10
-4.00609e-10
2.05892e-15
-6.7131e-10
-4.46073e-10
2.06113e-15
-7.31516e-10
-4.86571e-10
2.10467e-15
-7.87179e-10
-5.22291e-10
2.10297e-15
-8.37349e-10
-5.52404e-10
2.14477e-15
-8.81433e-10
-5.77161e-10
2.05891e-15
-9.18871e-10
-5.96342e-10
2.08793e-15
-9.49368e-10
-6.10281e-10
2.04714e-15
-9.7276e-10
-6.19112e-10
2.02175e-15
-9.89086e-10
-6.23272e-10
1.98553e-15
-9.98517e-10
-6.23183e-10
1.95357e-15
-1.00138e-09
-6.1925e-10
1.91251e-15
-9.98113e-10
-6.12037e-10
1.87264e-15
-9.89215e-10
-6.01977e-10
1.82005e-15
-9.75257e-10
-5.89582e-10
1.77894e-15
-9.5683e-10
-5.753e-10
1.73478e-15
-9.34546e-10
-5.59491e-10
1.69408e-15
-9.08986e-10
-5.42628e-10
1.65142e-15
-8.80716e-10
-5.24933e-10
1.60838e-15
-5.06753e-10
1.53254e-15
-8.32305e-12
3.58721e-11
2.14793e-16
-2.88842e-11
6.58993e-11
5.32952e-16
-5.8382e-11
6.22721e-11
7.87841e-16
-9.50922e-11
4.02345e-11
1.06595e-15
-1.38087e-10
6.09315e-12
1.20911e-15
-1.86481e-10
-3.55931e-11
1.26712e-15
-2.39651e-10
-8.28464e-11
1.5017e-15
-2.96663e-10
-1.32973e-10
1.66508e-15
-3.5681e-10
-1.85055e-10
1.76057e-15
-4.18931e-10
-2.37066e-10
1.806e-15
-4.82117e-10
-2.88474e-10
1.91371e-15
-5.45054e-10
-3.37675e-10
2.04278e-15
-6.06721e-10
-3.84405e-10
2.04638e-15
-6.65867e-10
-4.27426e-10
2.10232e-15
-7.21545e-10
-4.66612e-10
2.10978e-15
-7.72759e-10
-5.01189e-10
2.16222e-15
-8.18799e-10
-5.31121e-10
2.08475e-15
-8.59034e-10
-5.56107e-10
2.12364e-15
-8.93068e-10
-5.76247e-10
2.08941e-15
-9.20638e-10
-5.91542e-10
2.07109e-15
-9.41668e-10
-6.02244e-10
2.03744e-15
-9.56206e-10
-6.08644e-10
2.01542e-15
-9.64447e-10
-6.1101e-10
1.97975e-15
-9.66684e-10
-6.09801e-10
1.94314e-15
-9.633e-10
-6.0536e-10
1.89554e-15
-9.54746e-10
-5.98136e-10
1.85511e-15
-9.41516e-10
-5.88528e-10
1.8149e-15
-9.24139e-10
-5.76869e-10
1.77522e-15
-9.03141e-10
-5.63628e-10
1.73545e-15
-8.79045e-10
-5.49031e-10
1.69922e-15
-5.33447e-10
1.6164e-15
-7.71703e-12
4.35891e-11
2.06529e-16
-2.70495e-11
8.5232e-11
5.16892e-16
-5.50069e-11
9.02297e-11
7.58393e-16
-8.98577e-11
7.50855e-11
9.94718e-16
-1.30501e-10
4.67364e-11
1.16965e-15
-1.75948e-10
9.8536e-12
1.25032e-15
-2.25507e-10
-3.32887e-11
1.41771e-15
-2.78331e-10
-8.01496e-11
1.5805e-15
-3.33748e-10
-1.29639e-10
1.68473e-15
-3.9083e-10
-1.79982e-10
1.75168e-15
-4.4883e-10
-2.30474e-10
1.87118e-15
-5.06772e-10
-2.79735e-10
2.02069e-15
-5.63867e-10
-3.27309e-10
2.03194e-15
-6.19176e-10
-3.72118e-10
2.09956e-15
-6.71926e-10
-4.13862e-10
2.11463e-15
-7.21291e-10
-4.51823e-10
2.17291e-15
-7.66604e-10
-4.85809e-10
2.10508e-15
-8.0723e-10
-5.15481e-10
2.15496e-15
-8.42692e-10
-5.40785e-10
2.12706e-15
-8.72611e-10
-5.61624e-10
2.11577e-15
-8.96761e-10
-5.78096e-10
2.0953e-15
-9.15034e-10
-5.90369e-10
2.07171e-15
-9.27465e-10
-5.9858e-10
2.04069e-15
-9.34195e-10
-6.03072e-10
2.00938e-15
-9.35469e-10
-6.04086e-10
1.96471e-15
-9.31615e-10
-6.0199e-10
1.93094e-15
-9.2302e-10
-5.9712e-10
1.88888e-15
-9.10128e-10
-5.89764e-10
1.85079e-15
-8.93392e-10
-5.80366e-10
1.81881e-15
-8.73285e-10
-5.6914e-10
1.76706e-15
-5.56462e-10
1.69456e-15
-6.94621e-12
5.05353e-11
1.99772e-16
-2.43868e-11
1.02673e-10
5.04705e-16
-4.95752e-11
1.15418e-10
7.2646e-16
-8.09196e-11
1.0643e-10
9.1485e-16
-1.17448e-10
8.3265e-11
1.05748e-15
-1.58409e-10
5.08129e-11
1.1345e-15
-2.03273e-10
1.15735e-11
1.35833e-15
-2.5141e-10
-3.20127e-11
1.56182e-15
-3.02271e-10
-7.87775e-11
1.65937e-15
-3.55137e-10
-1.27116e-10
1.73651e-15
-4.09349e-10
-1.76262e-10
1.85753e-15
-4.64071e-10
-2.25015e-10
2.00972e-15
-5.18539e-10
-2.72839e-10
2.02217e-15
-5.71877e-10
-3.18781e-10
2.09272e-15
-6.23304e-10
-3.62434e-10
2.11434e-15
-6.72018e-10
-4.03108e-10
2.18292e-15
-7.17336e-10
-4.40491e-10
2.1161e-15
-7.58629e-10
-4.74188e-10
2.16877e-15
-7.95395e-10
-5.04019e-10
2.14982e-15
-8.27229e-10
-5.2979e-10
2.14576e-15
-8.53854e-10
-5.51474e-10
2.12937e-15
-8.75095e-10
-5.69126e-10
2.11535e-15
-8.90906e-10
-5.8277e-10
2.0903e-15
-9.01335e-10
-5.92643e-10
2.06445e-15
-9.06531e-10
-5.98891e-10
2.02471e-15
-9.06725e-10
-6.01797e-10
1.99264e-15
-9.02213e-10
-6.0163e-10
1.95519e-15
-8.93357e-10
-5.98622e-10
1.92004e-15
-8.80541e-10
-5.93184e-10
1.8886e-15
-8.6418e-10
-5.85503e-10
1.83736e-15
-5.7595e-10
1.76612e-15
-6.43297e-12
5.69683e-11
1.93073e-16
-2.27753e-11
1.19015e-10
4.89028e-16
-4.65581e-11
1.39201e-10
6.86221e-16
-7.62753e-11
1.36146e-10
8.36924e-16
-1.10938e-10
1.17928e-10
1.10986e-15
-1.49737e-10
8.96126e-11
1.22943e-15
-1.92049e-10
5.38833e-11
1.2872e-15
-2.37225e-10
1.31636e-11
1.53281e-15
-2.84738e-10
-3.12656e-11
1.63023e-15
-3.3398e-10
-7.78727e-11
1.70626e-15
-3.84399e-10
-1.25843e-10
1.83045e-15
-4.35341e-10
-1.74076e-10
1.9872e-15
-4.86197e-10
-2.21982e-10
2.00481e-15
-5.36285e-10
-2.68693e-10
2.08406e-15
-5.84969e-10
-3.1375e-10
2.11104e-15
-6.31578e-10
-3.56498e-10
2.18615e-15
-6.75505e-10
-3.96565e-10
2.12732e-15
-7.16161e-10
-4.33533e-10
2.18734e-15
-7.53035e-10
-4.67143e-10
2.1763e-15
-7.8569e-10
-4.97135e-10
2.17824e-15
-8.13784e-10
-5.23382e-10
2.16426e-15
-8.37068e-10
-5.45842e-10
2.15858e-15
-8.55403e-10
-5.64435e-10
2.13675e-15
-8.68748e-10
-5.79298e-10
2.11629e-15
-8.77157e-10
-5.90482e-10
2.08067e-15
-8.80771e-10
-5.98184e-10
2.05066e-15
-8.798e-10
-6.02598e-10
2.01665e-15
-8.74526e-10
-6.03898e-10
1.98241e-15
-8.65266e-10
-6.02446e-10
1.94506e-15
-8.52373e-10
-5.98399e-10
1.90284e-15
-5.92108e-10
1.83259e-15
-5.87339e-12
6.28417e-11
1.8646e-16
-2.08771e-11
1.34019e-10
4.62e-16
-4.2764e-11
1.61088e-10
6.77632e-16
-7.01392e-11
1.63521e-10
8.88489e-16
-1.0208e-10
1.49869e-10
1.07532e-15
-1.37864e-10
1.25397e-10
1.17769e-15
-1.76957e-10
9.29752e-11
1.36215e-15
-2.18846e-10
5.50547e-11
1.63123e-15
-2.63097e-10
1.29841e-11
1.55536e-15
-3.09196e-10
-3.17731e-11
1.71893e-15
-3.56643e-10
-7.83962e-11
1.81681e-15
-4.04858e-10
-1.25862e-10
1.96627e-15
-4.53273e-10
-1.73566e-10
1.98551e-15
-5.01258e-10
-2.20709e-10
2.0726e-15
-5.48205e-10
-2.66802e-10
2.10288e-15
-5.93485e-10
-3.11216e-10
2.18708e-15
-6.36519e-10
-3.53531e-10
2.13272e-15
-6.76749e-10
-3.93304e-10
2.19953e-15
-7.13684e-10
-4.30208e-10
2.19209e-15
-7.46894e-10
-4.63925e-10
2.19919e-15
-7.76032e-10
-4.94247e-10
2.19086e-15
-8.00824e-10
-5.21048e-10
2.19276e-15
-8.21094e-10
-5.44166e-10
2.17621e-15
-8.36748e-10
-5.63645e-10
2.15947e-15
-8.47777e-10
-5.79453e-10
2.12847e-15
-8.54255e-10
-5.91705e-10
2.10518e-15
-8.56325e-10
-6.00526e-10
2.07198e-15
-8.54199e-10
-6.06026e-10
2.04e-15
-8.48129e-10
-6.08517e-10
2.01011e-15
-8.38412e-10
-6.08118e-10
1.96368e-15
-6.05156e-10
1.89876e-15
-5.44349e-12
6.82852e-11
1.81198e-16
-1.95016e-11
1.48078e-10
4.51576e-16
-4.01608e-11
1.81747e-10
6.53963e-16
-6.61185e-11
1.89479e-10
8.17181e-16
-9.64699e-11
1.80221e-10
1.04004e-15
-1.30487e-10
1.59415e-10
1.18297e-15
-1.67607e-10
1.30094e-10
1.29411e-15
-2.07297e-10
9.47466e-11
1.55042e-15
-2.49102e-10
5.47874e-11
1.50249e-15
-2.9254e-10
1.16657e-11
1.68115e-15
-3.37172e-10
-3.37637e-11
1.77885e-15
-3.82521e-10
-8.05149e-11
1.93497e-15
-4.28118e-10
-1.27969e-10
1.9585e-15
-4.73449e-10
-1.75378e-10
2.05633e-15
-5.1801e-10
-2.22241e-10
2.09269e-15
-5.61269e-10
-2.67956e-10
2.18816e-15
-6.02716e-10
-3.12085e-10
2.13776e-15
-6.41846e-10
-3.54175e-10
2.21068e-15
-6.78192e-10
-3.93861e-10
2.21106e-15
-7.11331e-10
-4.30786e-10
2.2237e-15
-7.40903e-10
-4.64677e-10
2.22384e-15
-7.66606e-10
-4.95343e-10
2.22496e-15
-7.88227e-10
-5.22546e-10
2.20985e-15
-8.05623e-10
-5.4625e-10
2.20072e-15
-8.18732e-10
-5.66344e-10
2.17337e-15
-8.2757e-10
-5.82868e-10
2.15019e-15
-8.32218e-10
-5.95876e-10
2.12199e-15
-8.32829e-10
-6.05417e-10
2.09869e-15
-8.29596e-10
-6.11751e-10
2.05441e-15
-8.2276e-10
-6.14957e-10
2.01937e-15
-6.1533e-10
1.96028e-15
-5.00752e-12
7.32928e-11
1.76714e-16
-1.80426e-11
1.61113e-10
4.48114e-16
-3.72909e-11
2.00995e-10
6.27348e-16
-6.15466e-11
2.13733e-10
7.29407e-16
-8.99574e-11
2.08632e-10
9.28663e-16
-1.21843e-10
1.913e-10
1.08509e-15
-1.5668e-10
1.6493e-10
1.25205e-15
-1.93991e-10
1.32059e-10
1.54471e-15
-2.3337e-10
9.4165e-11
1.47867e-15
-2.744e-10
5.26968e-11
1.65752e-15
-3.16685e-10
8.52054e-12
1.75443e-15
-3.59784e-10
-3.74172e-11
1.9126e-15
-4.03256e-10
-8.44952e-11
1.93629e-15
-4.46627e-10
-1.32008e-10
2.03906e-15
-4.89424e-10
-1.79444e-10
2.08053e-15
-5.31155e-10
-2.26224e-10
2.17851e-15
-5.71347e-10
-2.71893e-10
2.13336e-15
-6.09536e-10
-3.15987e-10
2.21094e-15
-6.45287e-10
-3.58109e-10
2.21322e-15
-6.78205e-10
-3.97868e-10
2.23084e-15
-7.07944e-10
-4.34941e-10
2.23596e-15
-7.34208e-10
-4.69078e-10
2.24452e-15
-7.56773e-10
-4.99982e-10
2.23947e-15
-7.75475e-10
-5.27548e-10
2.23198e-15
-7.9022e-10
-5.51598e-10
2.20957e-15
-8.00984e-10
-5.72105e-10
2.19119e-15
-8.07801e-10
-5.89057e-10
2.16582e-15
-8.10775e-10
-6.02446e-10
2.13959e-15
-8.10047e-10
-6.12481e-10
2.10696e-15
-8.05807e-10
-6.19199e-10
2.07022e-15
-6.22864e-10
2.01058e-15
-4.64657e-12
7.79394e-11
1.72168e-16
-1.68704e-11
1.73337e-10
4.44347e-16
-3.50543e-11
2.19179e-10
6.1258e-16
-5.80811e-11
2.36759e-10
6.95609e-16
-8.51303e-11
2.35681e-10
9.28644e-16
-1.15531e-10
2.21701e-10
1.08157e-15
-1.4875e-10
1.98148e-10
1.21163e-15
-1.84305e-10
1.67615e-10
1.50205e-15
-2.21785e-10
1.31644e-10
1.43719e-15
-2.60784e-10
9.16959e-11
1.62819e-15
-3.00921e-10
4.86575e-11
1.72785e-15
-3.41804e-10
3.46477e-12
1.89505e-15
-3.83052e-10
-4.3246e-11
1.92105e-15
-4.24262e-10
-9.07975e-11
2.03065e-15
-4.6503e-10
-1.38676e-10
2.07564e-15
-5.04931e-10
-1.86322e-10
2.17785e-15
-5.4355e-10
-2.33275e-10
2.13785e-15
-5.80468e-10
-2.79068e-10
2.22085e-15
-6.1529e-10
-3.23287e-10
2.23032e-15
-6.47643e-10
-3.65515e-10
2.25276e-15
-6.77194e-10
-4.05392e-10
2.26174e-15
-7.0365e-10
-4.42621e-10
2.27193e-15
-7.26777e-10
-4.76856e-10
2.26556e-15
-7.46396e-10
-5.07929e-10
2.26441e-15
-7.62389e-10
-5.35606e-10
2.245e-15
-7.74698e-10
-5.59795e-10
2.22943e-15
-7.83322e-10
-5.80431e-10
2.20604e-15
-7.88321e-10
-5.97449e-10
2.18852e-15
-7.89792e-10
-6.11011e-10
2.14918e-15
-7.8788e-10
-6.21113e-10
2.11657e-15
-6.27987e-10
2.05928e-15
-4.29886e-12
8.22383e-11
1.66645e-16
-1.5707e-11
1.84745e-10
4.2587e-16
-3.27785e-11
2.36251e-10
6.089e-16
-5.44832e-11
2.58463e-10
7.18615e-16
-8.00481e-11
2.61246e-10
9.43711e-16
-1.08836e-10
2.50489e-10
1.07221e-15
-1.40337e-10
2.29649e-10
1.20633e-15
-1.74094e-10
2.01374e-10
1.48517e-15
-2.09718e-10
1.67267e-10
1.4165e-15
-2.4683e-10
1.28808e-10
1.60537e-15
-2.85074e-10
8.69018e-11
1.70336e-15
-3.24088e-10
4.24774e-11
1.87291e-15
-3.63513e-10
-3.82048e-12
1.90005e-15
-4.02969e-10
-5.13407e-11
2.01227e-15
-4.4208e-10
-9.95643e-11
2.06197e-15
-4.80455e-10
-1.47946e-10
2.16939e-15
-5.17713e-10
-1.96018e-10
2.1356e-15
-5.53474e-10
-2.43307e-10
2.22028e-15
-5.87377e-10
-2.89383e-10
2.22918e-15
-6.19085e-10
-3.33808e-10
2.25453e-15
-6.48288e-10
-3.7619e-10
2.26925e-15