/*--------------------------------*- C++ -*----------------------------------*\
| =========                 |                                                 |
| \\      /  F ield         | OpenFOAM: The Open Source CFD Toolbox           |
|  \\    /   O peration     | Version:  v2012                                 |
|   \\  /    A nd           | Website:  www.openfoam.com                      |
|    \\/     M anipulation  |                                                 |
\*---------------------------------------------------------------------------*/
FoamFile
{
    version     2.0;
    format      ascii;
    class       volVectorField;
    location    "1";
    object      U;
}
// * * * * * * * * * * * * * * * * * * * * * * * * * * * * * * * * * * * * * //

dimensions      [0 1 -1 0 0 0 0];


internalField   nonuniform List<vector> 
2650
(
(-2.5184 -8.89125 0.0219837)
(-1.42087 -7.95378 0.012406)
(-0.562913 -6.47701 0.00491449)
(-0.416152 -4.44754 0.00363289)
(0.0323043 -1.60143 -0.000280632)
(-0.0196285 -9.33642 0.000170916)
(-0.0685171 -8.10036 0.000597829)
(0.00411233 -6.84495 -3.57949e-05)
(0.0184759 -4.70284 -0.000161227)
(0.0440518 -1.83271 -0.000384527)
(-1.29599 -8.65717 0.011311)
(-0.686622 -7.88465 0.00599464)
(-0.292729 -6.69503 0.00255555)
(-0.244639 -4.62431 0.0021356)
(0.0185655 -1.6792 -0.000161427)
(-0.0320491 -9.20343 0.000279705)
(-0.00842089 -8.17924 7.35613e-05)
(-0.00267097 -7.03866 2.33592e-05)
(0.0124835 -4.94047 -0.00010893)
(0.0202016 -2.02682 -0.000176172)
(-0.0953908 -8.48503 0.00083254)
(-0.0711039 -7.92777 0.000620709)
(-0.0720943 -6.77185 0.000629317)
(-0.0530335 -4.74878 0.000463013)
(-0.000616453 -1.75804 5.30715e-06)
(-0.016368 -8.55736 0.000142871)
(-0.0215281 -8.02928 0.000187949)
(-0.0143645 -6.93282 0.000125435)
(-0.00167439 -4.9529 1.46517e-05)
(0.0069243 -2.00272 -6.01778e-05)
(-0.0279177 -8.35049 0.000243672)
(-0.0377102 -7.89249 0.000329194)
(-0.0372891 -6.81364 0.000325537)
(-0.0209254 -4.83397 0.000182732)
(-0.00330814 -1.83846 2.8765e-05)
(-0.018426 -8.3217 0.000160835)
(-0.0277887 -7.91494 0.000242598)
(-0.0210965 -6.88772 0.000184204)
(-0.00580919 -4.94537 5.07551e-05)
(0.00326681 -1.96401 -2.82587e-05)
(-0.0244188 -8.18887 0.000213138)
(-0.039239 -7.83218 0.00034254)
(-0.0368927 -6.84341 0.000322091)
(-0.0147093 -4.90772 0.000128485)
(-0.00275279 -1.91008 2.39155e-05)
(-0.0208293 -8.09858 0.000181813)
(-0.0332131 -7.79443 0.000289949)
(-0.0279973 -6.86104 0.000244449)
(-0.00313238 -4.94865 2.74097e-05)
(0.00361855 -1.92544 -3.13476e-05)
(-0.0283247 -8.00107 0.00024723)
(-0.0468403 -7.75088 0.000408893)
(-0.0470611 -6.87947 0.000410861)
(-0.00815852 -4.99448 7.13396e-05)
(0.00108601 -1.97709 -9.7158e-06)
(-0.0262451 -7.83608 0.000229083)
(-0.04243 -7.64305 0.000370402)
(-0.0420732 -6.84476 0.000367323)
(0.00538138 -4.97335 -4.68652e-05)
(0.0125093 -1.86066 -0.000109019)
(-0.0399954 -7.76298 0.00034909)
(-0.0678351 -7.63349 0.000592142)
(-0.0794737 -6.93854 0.000693787)
(-0.00581452 -5.1391 5.09652e-05)
(0.0212449 -2.04297 -0.000186082)
(-0.0438344 -7.46069 0.000382596)
(-0.0795164 -7.39786 0.000694088)
(-0.102162 -6.81954 0.000891787)
(-0.0194327 -5.06469 0.00016981)
(0.0443399 -1.72489 -0.000386873)
(-0.0771414 -7.34152 0.000673278)
(-0.146549 -7.35252 0.00127913)
(-0.217345 -6.96049 0.00189712)
(-0.107285 -5.44986 0.000936821)
(0.0495204 -2.16498 -0.000432977)
(-0.121012 -6.69416 0.00105615)
(-0.246746 -6.76359 0.00215359)
(-0.420496 -6.55357 0.00367007)
(-0.350119 -5.30173 0.00305619)
(-0.119128 -1.61136 0.00104439)
(-0.195976 -6.10088 0.00171039)
(-0.376992 -6.20811 0.00329031)
(-0.739498 -6.29285 0.00645415)
(-0.726573 -5.75855 0.00634188)
(-0.662417 -3.14643 0.00578535)
(-0.334092 -4.73633 0.00291575)
(-0.77053 -4.76859 0.00672486)
(-1.41626 -4.86617 0.0123603)
(-1.99492 -4.60607 0.0174106)
(-2.5598 -3.26609 0.0223364)
(-1.81073 -0.411856 0.0158077)
(-1.04085 -0.23262 0.00908489)
(-0.773845 -0.134718 0.00675395)
(-0.461138 -0.0818444 0.00402491)
(-0.347675 -0.0473426 0.00303431)
(-0.217097 -0.0278941 0.00189485)
(-0.163921 -0.0160718 0.0014306)
(-0.108668 -0.00918093 0.000948479)
(-0.0822997 -0.00535962 0.000718293)
(-0.0581235 -0.00302833 0.000507339)
(-0.0445397 -0.00183666 0.00038876)
(-0.033252 -0.00107239 0.000290258)
(-0.0259752 -0.000691577 0.000226737)
(-0.020233 -0.000435465 0.000176621)
(-0.016152 -0.000299932 0.000140997)
(-0.0129711 -0.000205226 0.000113232)
(-0.0105673 -0.000148852 9.2248e-05)
(-0.0086761 -0.000108451 7.57393e-05)
(-0.00719159 -8.16368e-05 6.27803e-05)
(-0.00600359 -6.20643e-05 5.24096e-05)
(-0.00504688 -4.81168e-05 4.40579e-05)
(-0.0042674 -3.7733e-05 3.72534e-05)
(-0.00362738 -3.00004e-05 3.16664e-05)
(-0.00309734 -2.41098e-05 2.70393e-05)
(-0.00265518 -1.9583e-05 2.31795e-05)
(-0.00228378 -1.60521e-05 1.99372e-05)
(-0.238709 -2.42596 0.00208331)
(-0.512825 -2.29624 0.00447574)
(-0.972071 -2.16799 0.00848368)
(-1.35028 -1.97187 0.0117845)
(-1.8479 -1.66691 0.0161281)
(-1.56003 -0.95617 0.0136174)
(-1.02254 -0.703129 0.00892635)
(-0.859831 -0.42563 0.00750559)
(-0.593234 -0.308038 0.00517883)
(-0.488831 -0.193852 0.00426718)
(-0.351364 -0.136792 0.00306741)
(-0.283432 -0.0884886 0.00247425)
(-0.210803 -0.06124 0.00184033)
(-0.168026 -0.0406021 0.00146683)
(-0.128688 -0.0279714 0.00112347)
(-0.102514 -0.0190498 0.000894947)
(-0.0805327 -0.0132841 0.000703066)
(-0.0646925 -0.00932306 0.00056477)
(-0.0519427 -0.00665867 0.00045347)
(-0.042279 -0.00481982 0.000369101)
(-0.0345837 -0.00354069 0.000301922)
(-0.0285567 -0.00263788 0.000249305)
(-0.0237276 -0.00199069 0.000207146)
(-0.0198569 -0.00152117 0.000173354)
(-0.0167151 -0.0011755 0.000145926)
(-0.0141505 -0.000918191 0.000123537)
(-0.0120387 -0.000724302 0.0001051)
(-0.0102881 -0.000576725 8.98168e-05)
(-0.00882659 -0.000463226 7.7058e-05)
(-0.00759882 -0.000375122 6.63396e-05)
(-0.00656118 -0.0003061 5.72808e-05)
(-0.117867 -2.21087 0.00102868)
(-0.244522 -2.10846 0.00213413)
(-0.432026 -1.98814 0.00377056)
(-0.546165 -1.73807 0.00476674)
(-0.726751 -1.42535 0.00634291)
(-0.72715 -0.840439 0.00634682)
(-0.650511 -0.668865 0.00567804)
(-0.595997 -0.434869 0.00520231)
(-0.4904 -0.34097 0.00428073)
(-0.430227 -0.234996 0.00375547)
(-0.346455 -0.1797 0.00302435)
(-0.294671 -0.127624 0.00257228)
(-0.236997 -0.0956464 0.0020689)
(-0.197588 -0.0690649 0.00172486)
(-0.159891 -0.0512304 0.00139583)
(-0.132118 -0.0374596 0.00115336)
(-0.107868 -0.0277905 0.000941682)
(-0.0891328 -0.0205876 0.000778121)
(-0.0735031 -0.0154034 0.000641683)
(-0.061086 -0.0115816 0.000533281)
(-0.050897 -0.0087841 0.000444334)
(-0.0426597 -0.00671251 0.000372422)
(-0.0359043 -0.00517311 0.000313448)
(-0.0303708 -0.00401968 0.00026514)
(-0.0258012 -0.00314948 0.000225247)
(-0.022014 -0.00248788 0.000192185)
(-0.0188555 -0.00198099 0.000164611)
(-0.0162084 -0.00158965 0.000141502)
(-0.0139777 -0.00128516 0.000122028)
(-0.0120883 -0.00104644 0.000105533)
(-0.0104801 -0.000857869 9.14937e-05)
(-0.109124 -1.20375 0.000952379)
(-0.229133 -1.1088 0.00199981)
(-0.404291 -1.04014 0.0035285)
(-0.506164 -0.934978 0.00441767)
(-0.634611 -0.83111 0.00553881)
(-0.616372 -0.653166 0.00537994)
(-0.557016 -0.555881 0.00486194)
(-0.51525 -0.42197 0.00449744)
(-0.436693 -0.346507 0.00381186)
(-0.391707 -0.261588 0.00341917)
(-0.327654 -0.208498 0.00286015)
(-0.286249 -0.157537 0.0024987)
(-0.239177 -0.122846 0.00208787)
(-0.205007 -0.0930244 0.00178957)
(-0.171567 -0.0716251 0.0014977)
(-0.145493 -0.0544366 0.00127009)
(-0.122107 -0.0417521 0.00106596)
(-0.103193 -0.0319237 0.000900842)
(-0.0869673 -0.0245643 0.000759207)
(-0.0736163 -0.0189437 0.000642658)
(-0.0623757 -0.0146952 0.000544533)
(-0.0530416 -0.0114548 0.000463049)
(-0.0452181 -0.00898373 0.000394753)
(-0.0386767 -0.00708809 0.000337647)
(-0.0331791 -0.00562838 0.000289654)
(-0.0285502 -0.00449807 0.000249244)
(-0.0246365 -0.00361817 0.000215078)
(-0.0213164 -0.00292923 0.000186094)
(-0.0184887 -0.00238655 0.000161409)
(-0.0160713 -0.00195646 0.000140306)
(-0.0139968 -0.00161346 0.000122195)
(-0.0526982 -1.07106 0.000459927)
(-0.108503 -0.989254 0.000946999)
(-0.185563 -0.927865 0.00161954)
(-0.235794 -0.829751 0.00205796)
(-0.296192 -0.739786 0.00258512)
(-0.316904 -0.586895 0.00276597)
(-0.326218 -0.504236 0.00284729)
(-0.325008 -0.392747 0.0028368)
(-0.305565 -0.329094 0.00266714)
(-0.290265 -0.257446 0.00253362)
(-0.261634 -0.211209 0.00228377)
(-0.239578 -0.166052 0.00209125)
(-0.211394 -0.13391 0.00184528)
(-0.188426 -0.105448 0.0016448)
(-0.164274 -0.0840108 0.001434)
(-0.14386 -0.0661498 0.00125581)
(-0.124552 -0.0523532 0.00108728)
(-0.108006 -0.0412512 0.000942841)
(-0.0932039 -0.0326017 0.000813638)
(-0.0804992 -0.0257637 0.000702734)
(-0.069443 -0.0204228 0.000606221)
(-0.0599723 -0.0162293 0.000523546)
(-0.0518276 -0.0129467 0.000452447)
(-0.044858 -0.0103693 0.000391606)
(-0.0388838 -0.00834349 0.000339453)
(-0.0337648 -0.00674603 0.000294765)
(-0.0293704 -0.00548235 0.000256404)
(-0.0255924 -0.00447875 0.000223423)
(-0.0223367 -0.00367822 0.000195001)
(-0.0195244 -0.00303666 0.000170451)
(-0.0170889 -0.00251994 0.000149189)
(-0.049468 -0.659498 0.000431734)
(-0.101153 -0.595026 0.000882853)
(-0.16973 -0.55804 0.00148136)
(-0.213928 -0.514769 0.00186713)
(-0.263228 -0.477261 0.00229743)
(-0.28054 -0.4195 0.00244859)
(-0.28667 -0.377535 0.00250212)
(-0.285057 -0.320523 0.00248809)
(-0.269452 -0.279936 0.00235192)
(-0.256835 -0.233068 0.00224181)
(-0.234658 -0.198224 0.00204827)
(-0.216962 -0.163093 0.00189382)
(-0.194877 -0.135789 0.00170108)
(-0.176251 -0.110785 0.00153849)
(-0.156653 -0.0908349 0.00136745)
(-0.13955 -0.0736545 0.00121816)
(-0.123132 -0.0598141 0.00107486)
(-0.108642 -0.0483237 0.000948373)
(-0.095399 -0.0390659 0.000832783)
(-0.083723 -0.0315352 0.000730863)
(-0.0733268 -0.025486 0.000640115)
(-0.0642059 -0.0206155 0.000560497)
(-0.0561924 -0.016712 0.000490545)
(-0.049193 -0.013581 0.000429444)
(-0.0430809 -0.0110713 0.00037609)
(-0.037754 -0.00905702 0.000329588)
(-0.0331108 -0.00743791 0.000289055)
(-0.0290635 -0.00613334 0.000253723)
(-0.0255326 -0.00507918 0.0002229)
(-0.022449 -0.00422446 0.000195981)
(-0.0197523 -0.00352882 0.00017244)
(-0.0304011 -0.561827 0.000265331)
(-0.0604184 -0.515999 0.000527336)
(-0.0956443 -0.488374 0.000834776)
(-0.12218 -0.452664 0.00106638)
(-0.150161 -0.421849 0.0013106)
(-0.167841 -0.373657 0.00146492)
(-0.181674 -0.338034 0.00158567)
(-0.189686 -0.290963 0.00165562)
(-0.190703 -0.256391 0.00166452)
(-0.189939 -0.217483 0.00165787)
(-0.182721 -0.187606 0.0015949)
(-0.17546 -0.15775 0.00153153)
(-0.164115 -0.133804 0.00143253)
(-0.153212 -0.111709 0.00133737)
(-0.140542 -0.0935303 0.0012268)
(-0.128511 -0.0775838 0.00112178)
(-0.116236 -0.0643537 0.00101465)
(-0.104765 -0.0531083 0.000914524)
(-0.0938205 -0.0437956 0.000818994)
(-0.0837747 -0.0360333 0.000731306)
(-0.0745356 -0.0296413 0.00065066)
(-0.0661866 -0.0243763 0.000577781)
(-0.0586647 -0.0200634 0.000512122)
(-0.0519443 -0.0165339 0.000453458)
(-0.0459583 -0.0136514 0.000401205)
(-0.0406473 -0.0112978 0.000354844)
(-0.035944 -0.00937587 0.000313786)
(-0.0317855 -0.0078049 0.000277485)
(-0.0281112 -0.00651874 0.00024541)
(-0.0248655 -0.00546341 0.000217076)
(-0.0219979 -0.00459519 0.000192043)
(-0.0287028 -0.351436 0.000250508)
(-0.0570246 -0.326765 0.000497714)
(-0.0886295 -0.314898 0.000773553)
(-0.112576 -0.301329 0.000982565)
(-0.136269 -0.289406 0.00118936)
(-0.151705 -0.269956 0.0013241)
(-0.162791 -0.252839 0.00142087)
(-0.169296 -0.229106 0.00147767)
(-0.169929 -0.208854 0.00148321)
(-0.168986 -0.184983 0.00147499)
(-0.163238 -0.164552 0.00142483)
(-0.157226 -0.143244 0.00137237)
(-0.148314 -0.124834 0.00129459)
(-0.139546 -0.107195 0.00121807)
(-0.129489 -0.091917 0.00113029)
(-0.119748 -0.0780712 0.00104527)
(-0.109746 -0.0661452 0.000957979)
(-0.100205 -0.0557161 0.000874704)
(-0.0909549 -0.0468215 0.000793968)
(-0.08228 -0.0392196 0.000718249)
(-0.0741431 -0.0328045 0.000647225)
(-0.0666335 -0.0274022 0.000581676)
(-0.059733 -0.0228832 0.000521442)
(-0.0534476 -0.0191126 0.000466577)
(-0.047748 -0.0159771 0.000416825)
(-0.0426058 -0.0133737 0.000371937)
(-0.0379814 -0.0112146 0.00033157)
(-0.0338349 -0.00942436 0.000295374)
(-0.0301241 -0.00793931 0.000262981)
(-0.0268081 -0.00670603 0.000234035)
(-0.0238478 -0.00568015 0.000208192)
(-0.021249 -0.270932 0.000185456)
(-0.0410649 -0.265639 0.000358423)
(-0.060562 -0.264012 0.000528591)
(-0.0767252 -0.257249 0.000669666)
(-0.0920822 -0.249997 0.000803703)
(-0.104403 -0.235657 0.00091124)
(-0.114663 -0.222313 0.0010008)
(-0.122521 -0.203611 0.00106939)
(-0.127224 -0.187022 0.00111045)
(-0.130286 -0.167736 0.00113719)
(-0.130132 -0.150722 0.00113585)
(-0.128856 -0.133116 0.00112473)
(-0.125104 -0.117525 0.00109199)
(-0.120583 -0.102535 0.00105254)
(-0.114561 -0.0892611 0.000999981)
(-0.108108 -0.0770824 0.00094367)
(-0.100986 -0.0663649 0.00088151)
(-0.0937709 -0.0568281 0.000818534)
(-0.0864541 -0.0485212 0.000754674)
(-0.0793177 -0.0412835 0.000692384)
(-0.0724105 -0.0350506 0.000632096)
(-0.065856 -0.0297006 0.000574884)
(-0.0596888 -0.0251401 0.000521052)
(-0.0539506 -0.0212665 0.000470964)
(-0.0486481 -0.01799 0.000424679)
(-0.0437815 -0.0152256 0.000382198)
(-0.0393368 -0.0128983 0.0003434)
(-0.035295 -0.0109414 0.000308118)
(-0.0316314 -0.00929671 0.000276138)
(-0.0283195 -0.00791428 0.000247227)
(-0.0253314 -0.00675146 0.000221143)
(-0.0199362 -0.139282 0.000173998)
(-0.0388378 -0.154726 0.000338984)
(-0.0568266 -0.166286 0.000495989)
(-0.071782 -0.171599 0.000626523)
(-0.0852447 -0.174094 0.000744028)
(-0.0961252 -0.171456 0.000838999)
(-0.104695 -0.16734 0.000913801)
(-0.111251 -0.159246 0.000971032)
(-0.115008 -0.150724 0.00100383)
(-0.117351 -0.139707 0.00102429)
(-0.117175 -0.128917 0.00102276)
(-0.116031 -0.117045 0.00101278)
(-0.113059 -0.105765 0.000986851)
(-0.109428 -0.0944301 0.000955159)
(-0.104684 -0.0838905 0.00091376)
(-0.0995368 -0.0738841 0.000868841)
(-0.0938385 -0.0647621 0.00081911)
(-0.0879742 -0.0564182 0.000767928)
(-0.0819476 -0.0489511 0.000715328)
(-0.0759609 -0.0422928 0.000663075)
(-0.070064 -0.0364306 0.000611607)
(-0.0643615 -0.0312968 0.000561833)
(-0.0588981 -0.0268366 0.000514145)
(-0.0537234 -0.0229806 0.000468977)
(-0.0488609 -0.0196639 0.000426533)
(-0.044327 -0.0168214 0.000386958)
(-0.0401251 -0.0143927 0.000350279)
(-0.0362519 -0.0123221 0.000316469)
(-0.032697 -0.0105592 0.000285439)
(-0.0294464 -0.00905937 0.000257064)
(-0.026483 -0.00778362 0.000231195)
(-0.0160294 -0.0709996 0.000139901)
(-0.0309346 -0.103346 0.000270007)
(-0.0440719 -0.124618 0.00038467)
(-0.0553324 -0.136252 0.000482955)
(-0.0651383 -0.14299 0.000568543)
(-0.0737937 -0.144071 0.000644091)
(-0.0810079 -0.14282 0.00070706)
(-0.0872085 -0.137834 0.000761182)
(-0.0917219 -0.131857 0.000800581)
(-0.0952463 -0.123701 0.000831347)
(-0.0970389 -0.115325 0.000847001)
(-0.0978793 -0.105991 0.000854341)
(-0.0972205 -0.096876 0.000848599)
(-0.0957187 -0.0876234 0.000835497)
(-0.0931104 -0.0788376 0.000812738)
(-0.0898586 -0.0703843 0.00078436)
(-0.0859154 -0.0625293 0.000749947)
(-0.0815789 -0.0552274 0.0007121)
(-0.0769048 -0.04857 0.000671306)
(-0.0720775 -0.0425295 0.000629174)
(-0.067176 -0.0371141 0.000586393)
(-0.0623105 -0.0322888 0.000543926)
(-0.0575451 -0.0280242 0.000502331)
(-0.0529421 -0.0242762 0.000462154)
(-0.0485404 -0.021001 0.000423733)
(-0.0443705 -0.0181513 0.000387335)
(-0.0404495 -0.0156813 0.000353109)
(-0.0367866 -0.0135466 0.000321136)
(-0.0333837 -0.0117058 0.000291431)
(-0.0302368 -0.0101209 0.000263963)
(-0.0273384 -0.0087575 0.000238662)
(-0.0151659 0.0206464 0.000132365)
(-0.0294199 -0.0284269 0.000256786)
(-0.0417182 -0.060608 0.000364127)
(-0.0522605 -0.0806927 0.000456143)
(-0.0611074 -0.0939858 0.000533362)
(-0.0688783 -0.101494 0.000601191)
(-0.0750972 -0.105666 0.000655473)
(-0.0803887 -0.106301 0.000701661)
(-0.0841186 -0.10509 0.000734221)
(-0.0869765 -0.101661 0.000759169)
(-0.0884094 -0.0972419 0.000771681)
(-0.0890466 -0.0915855 0.000777246)
(-0.0885305 -0.085504 0.000772748)
(-0.0873347 -0.0789142 0.000762314)
(-0.0852962 -0.0722946 0.000744526)
(-0.0827276 -0.0656581 0.000722111)
(-0.0796008 -0.0592569 0.000694824)
(-0.0761134 -0.0531283 0.000664388)
(-0.0723061 -0.0473873 0.00063116)
(-0.0683078 -0.0420568 0.000596264)
(-0.0641813 -0.0371749 0.000560248)
(-0.0600139 -0.0327404 0.000523874)
(-0.0558637 -0.0287497 0.000487651)
(-0.0517892 -0.0251831 0.000452087)
(-0.0478326 -0.0220163 0.000417552)
(-0.0440294 -0.0192193 0.000384355)
(-0.0404042 -0.0167602 0.000352712)
(-0.0369747 -0.0146061 0.000322776)
(-0.0337509 -0.0127249 0.000294636)
(-0.0307374 -0.0110856 0.000268331)
(-0.0279338 -0.00965964 0.000243858)
(-0.0128001 0.0807468 0.000111717)
(-0.0247565 0.0166156 0.000216084)
(-0.034772 -0.0246275 0.000303501)
(-0.0434486 -0.0505451 0.000379235)
(-0.0505704 -0.0678462 0.000441397)
(-0.0570491 -0.0785362 0.000497946)
(-0.0623552 -0.0851974 0.000544261)
(-0.0671426 -0.088162 0.000586048)
(-0.0708505 -0.0889414 0.000618415)
(-0.0739728 -0.0875289 0.000645669)
(-0.0760586 -0.0849146 0.000663878)
(-0.0774845 -0.081079 0.000676327)
(-0.0779681 -0.0766479 0.000680553)
(-0.0777893 -0.0716501 0.000678996)
(-0.0768282 -0.0664543 0.000670612)
(-0.0752891 -0.0611188 0.000657182)
(-0.0731666 -0.0558475 0.00063866)
(-0.0706111 -0.0506981 0.000616358)
(-0.0676744 -0.0457754 0.000590729)
(-0.0644688 -0.0411189 0.000562752)
(-0.0610619 -0.036775 0.000533017)
(-0.0575366 -0.03276 0.000502248)
(-0.053954 -0.0290852 0.000470979)
(-0.0503734 -0.0257476 0.000439726)
(-0.0468409 -0.0227381 0.000408893)
(-0.0433959 -0.0200405 0.000378824)
(-0.0400686 -0.0176352 0.000349781)
(-0.0368822 -0.0155 0.000321968)
(-0.033853 -0.0136116 0.000295526)
(-0.0309916 -0.0119463 0.000270549)
(-0.0283037 -0.0104815 0.000247086)
(-0.0119381 0.148506 0.000104194)
(-0.0233895 0.0716517 0.000204153)
(-0.0329685 0.0218949 0.00028776)
(-0.0411865 -0.010476 0.000359491)
(-0.0477716 -0.0327953 0.000416969)
(-0.0536906 -0.0478977 0.000468633)
(-0.0584057 -0.0582956 0.000509791)
(-0.0626002 -0.0648064 0.000546404)
(-0.0657678 -0.0687016 0.000574054)
(-0.0683968 -0.0702659 0.000597003)
(-0.0701311 -0.0702729 0.000612143)
(-0.0713074 -0.0688723 0.000622413)
(-0.0717263 -0.0665619 0.000626073)
(-0.0716101 -0.0634673 0.000625061)
(-0.0708789 -0.0599058 0.000618683)
(-0.069678 -0.0559927 0.000608203)
(-0.0680025 -0.0519241 0.000593582)
(-0.0659534 -0.0477937 0.0005757)
(-0.0635656 -0.0437165 0.000554861)
(-0.0609168 -0.0397569 0.000531744)
(-0.0580577 -0.0359763 0.000506791)
(-0.0550519 -0.03241 0.000480558)
(-0.0519507 -0.0290845 0.00045349)
(-0.0488055 -0.0260119 0.000426038)
(-0.0456592 -0.0231966 0.000398577)
(-0.0425507 -0.0206348 0.000371444)
(-0.0395113 -0.018318 0.000344914)
(-0.0365672 -0.0162337 0.000319216)
(-0.0337382 -0.0143667 0.000294523)
(-0.0310393 -0.0127005 0.000270965)
(-0.0284806 -0.0112184 0.00024863)
(-0.0104982 0.200824 9.1627e-05)
(-0.0205492 0.111727 0.000179362)
(-0.0287969 0.0539025 0.000251351)
(-0.0358993 0.016082 0.000313345)
(-0.0415604 -0.0100302 0.000362758)
(-0.0467374 -0.0280202 0.000407946)
(-0.0509087 -0.0406827 0.000444357)
(-0.0547264 -0.0491609 0.00047768)
(-0.0577418 -0.054744 0.000504001)
(-0.0603685 -0.0578979 0.00052693)
(-0.0622947 -0.0593471 0.000543745)
(-0.0637657 -0.0593433 0.000556586)
(-0.0646045 -0.0583276 0.000563911)
(-0.0649583 -0.0564723 0.000567002)
(-0.0647558 -0.0540521 0.000565237)
(-0.0640956 -0.0511978 0.000559478)
(-0.0629756 -0.0480818 0.000549705)
(-0.0614729 -0.0448026 0.000536591)
(-0.0596217 -0.0414675 0.000520436)
(-0.0574881 -0.038146 0.000501815)
(-0.0551202 -0.0349024 0.00048115)
(-0.0525752 -0.0317799 0.000458937)
(-0.049901 -0.0288131 0.000435597)
(-0.0471458 -0.026024 0.000411549)
(-0.0443509 -0.0234264 0.000387155)
(-0.0415541 -0.0210265 0.000362743)
(-0.0387874 -0.0188246 0.000338594)
(-0.0360782 -0.0168165 0.000314947)
(-0.0334486 -0.0149947 0.000291994)
(-0.0309162 -0.0133494 0.00026989)
(-0.0284942 -0.0118691 0.000248748)
(-0.00966995 0.25404 8.43988e-05)
(-0.0191634 0.154787 0.000167267)
(-0.0270678 0.0900215 0.000236259)
(-0.0338999 0.0471094 0.000295894)
(-0.0392977 0.0170423 0.000343009)
(-0.0441482 -0.00431941 0.000385347)
(-0.0479753 -0.0198469 0.000418754)
(-0.0514202 -0.0309053 0.000448824)
(-0.0540888 -0.0387579 0.000472119)
(-0.0563825 -0.0440051 0.000492141)
(-0.058045 -0.0473262 0.000506653)
(-0.0593091 -0.0490461 0.000517689)
(-0.0600413 -0.0495713 0.000524082)
(-0.0603716 -0.0491141 0.000526967)
(-0.0602481 -0.0479337 0.000525892)
(-0.0597474 -0.0461847 0.000521523)
(-0.0588657 -0.0440375 0.00051383)
(-0.0576565 -0.0416064 0.000503279)
(-0.0561423 -0.0390036 0.000490064)
(-0.0543691 -0.0363101 0.000474589)
(-0.052372 -0.0335976 0.000457159)
(-0.0501946 -0.030919 0.000438156)
(-0.0478759 -0.0283174 0.000417918)
(-0.0454559 -0.0258234 0.000396797)
(-0.0429715 -0.0234594 0.000375113)
(-0.0404569 -0.0212396 0.000353165)
(-0.0379429 -0.0191722 0.000331221)
(-0.0354564 -0.0172603 0.000309518)
(-0.0330202 -0.015503 0.000288253)
(-0.0306533 -0.0138964 0.000267594)
(-0.0283708 -0.0124346 0.00024767)
(-0.00868715 0.29868 7.58213e-05)
(-0.0172784 0.189932 0.000150815)
(-0.0244014 0.118574 0.000212987)
(-0.0305452 0.0709439 0.000266614)
(-0.0353687 0.0373841 0.000308717)
(-0.0397319 0.0133189 0.000346802)
(-0.0432093 -0.00432587 0.000377156)
(-0.0463909 -0.017151 0.000404927)
(-0.0489168 -0.0265057 0.000426977)
(-0.0511433 -0.0331074 0.000446412)
(-0.05284 -0.0376484 0.000461223)
(-0.0542001 -0.0405116 0.000473096)
(-0.0551008 -0.0420962 0.00048096)
(-0.055641 -0.0426398 0.000485677)
(-0.0557715 -0.0423893 0.000486818)
(-0.0555486 -0.041507 0.000484874)
(-0.0549681 -0.0401533 0.00047981)
(-0.0540722 -0.0384439 0.000471993)
(-0.0528812 -0.0364864 0.000461598)
(-0.0514338 -0.034363 0.000448967)
(-0.0497618 -0.0321461 0.000434375)
(-0.047903 -0.0298923 0.000418153)
(-0.0458924 -0.0276483 0.000400604)
(-0.0437657 -0.0254506 0.000382042)
(-0.0415563 -0.0233272 0.000362759)
(-0.039296 -0.0212986 0.00034303)
(-0.0370135 -0.0193793 0.000323108)
(-0.034735 -0.0175782 0.00030322)
(-0.0324832 -0.0159004 0.000283566)
(-0.0302775 -0.0143473 0.000264313)
(-0.0281341 -0.0129177 0.000245603)
(-0.00800171 0.342118 6.9839e-05)
(-0.0160771 0.225313 0.00014033)
(-0.0228628 0.148216 0.000199558)
(-0.0287493 0.0963152 0.000250939)
(-0.0333864 0.0594435 0.000291415)
(-0.0375544 0.0326443 0.000327796)
(-0.0408455 0.0126934 0.000356525)
(-0.043806 -0.00216928 0.000382367)
(-0.0461203 -0.0133163 0.000402569)
(-0.048133 -0.0215346 0.000420138)
(-0.0496515 -0.0275202 0.000433394)
(-0.0508626 -0.0316983 0.000443967)
(-0.0516693 -0.0344676 0.000451009)
(-0.0521654 -0.036089 0.000455341)
(-0.0523136 -0.0368095 0.000456636)
(-0.0521622 -0.0368044 0.000455317)
(-0.0517068 -0.0362363 0.000451344)
(-0.0509788 -0.035229 0.000444991)
(-0.0499914 -0.0338934 0.000436375)
(-0.0487728 -0.0323174 0.00042574)
(-0.0473461 -0.0305774 0.000413288)
(-0.0457404 -0.0287349 0.000399274)
(-0.0439837 -0.0268412 0.000383943)
(-0.0421059 -0.0249377 0.000367554)
(-0.0401356 -0.0230574 0.000350357)
(-0.0381009 -0.0212261 0.000332597)
(-0.0360281 -0.0194634 0.000314505)
(-0.0339415 -0.0177837 0.000296293)
(-0.0318631 -0.0161966 0.000278152)
(-0.0298119 -0.0147085 0.000260248)
(-0.0278043 -0.0133225 0.000242724)
(-0.00728389 0.380253 6.35741e-05)
(-0.0147163 0.256037 0.000128452)
(-0.0209832 0.173574 0.000183152)
(-0.0264259 0.117695 0.00023066)
(-0.0307122 0.0777784 0.000268074)
(-0.0345656 0.0485524 0.00030171)
(-0.0376185 0.0266392 0.000328359)
(-0.0403831 0.0101392 0.000352491)
(-0.0425783 -0.00238813 0.000371654)
(-0.0445152 -0.0118164 0.000388561)
(-0.046016 -0.0188779 0.000401662)
(-0.0472447 -0.0240407 0.000412388)
(-0.0481117 -0.0277137 0.000419957)
(-0.0486961 -0.0301763 0.00042506)
(-0.0489627 -0.0316766 0.000427388)
(-0.0489511 -0.0323963 0.000427289)
(-0.0486568 -0.0324961 0.000424722)
(-0.0481062 -0.032101 0.000419918)
(-0.0473111 -0.0313204 0.000412979)
(-0.0462957 -0.030243 0.000404118)
(-0.0450807 -0.0289453 0.000393514)
(-0.0436912 -0.0274906 0.000381387)
(-0.0421518 -0.0259325 0.000367952)
(-0.0404886 -0.0243153 0.000353436)
(-0.038727 -0.0226756 0.000338061)
(-0.0368923 -0.0210432 0.000322047)
(-0.0350083 -0.0194418 0.000305603)
(-0.0330975 -0.0178899 0.000288925)
(-0.0311805 -0.0164016 0.000272192)
(-0.0292757 -0.0149872 0.000255567)
(-0.0273993 -0.0136538 0.000239188)
(-0.00671653 0.416593 5.86225e-05)
(-0.0136983 0.285989 0.000119567)
(-0.0196609 0.198794 0.000171611)
(-0.0248702 0.139312 0.000217082)
(-0.0289973 0.0965535 0.000253106)
(-0.0326968 0.0649841 0.000285399)
(-0.0356259 0.0411057 0.000310967)
(-0.0382551 0.0229041 0.000333918)
(-0.0403272 0.00888957 0.000352005)
(-0.0421327 -0.0018676 0.000367766)
(-0.0435198 -0.0101153 0.000379875)
(-0.0446484 -0.0163485 0.000389727)
(-0.0454458 -0.0209856 0.000396689)
(-0.0459893 -0.0243234 0.000401434)
(-0.0462517 -0.0266164 0.000403726)
(-0.0462701 -0.028056 0.000403888)
(-0.0460409 -0.0288072 0.000401889)
(-0.0455857 -0.029001 0.000397917)
(-0.044913 -0.0287497 0.000392047)
(-0.0440415 -0.0281458 0.000384442)
(-0.042987 -0.0272682 0.000375239)
(-0.0417694 -0.0261833 0.000364613)
(-0.0404088 -0.0249473 0.000352737)
(-0.0389268 -0.0236074 0.000339803)
(-0.0373453 -0.0222035 0.000326)
(-0.0356863 -0.0207685 0.00031152)
(-0.0339711 -0.0193297 0.000296549)
(-0.0322201 -0.0179094 0.000281266)
(-0.0304524 -0.0165252 0.000265836)
(-0.0286852 -0.0151909 0.000250412)
(-0.026934 -0.013917 0.000235126)
(-0.00615462 0.449278 5.37183e-05)
(-0.0126427 0.312898 0.000110353)
(-0.0182283 0.221342 0.000159107)
(-0.0231255 0.158517 0.000201853)
(-0.0270202 0.113124 0.00023585)
(-0.0305115 0.0794093 0.000266325)
(-0.0332868 0.053762 0.000290551)
(-0.0357799 0.0340662 0.000312314)
(-0.0377596 0.018777 0.000329595)
(-0.0394947 0.00690889 0.000344742)
(-0.0408484 -0.00231627 0.000356559)
(-0.0419647 -0.00942814 0.000366304)
(-0.0427761 -0.0148629 0.000373387)
(-0.0433515 -0.0189333 0.000378411)
(-0.0436659 -0.0219006 0.000381157)
(-0.0437523 -0.0239629 0.000381912)
(-0.0436079 -0.0252874 0.000380653)
(-0.0432521 -0.0260074 0.000377549)
(-0.0426931 -0.0262359 0.000372671)
(-0.0419478 -0.0260665 0.000366167)
(-0.0410303 -0.0255791 0.000358159)
(-0.0399583 -0.024841 0.000348804)
(-0.0387494 -0.0239102 0.000338253)
(-0.0374228 -0.0228359 0.000326675)
(-0.0359976 -0.0216602 0.000314236)
(-0.0344933 -0.0204187 0.000301106)
(-0.0329288 -0.0191415 0.000287451)
(-0.0313228 -0.0178539 0.000273433)
(-0.0296924 -0.0165766 0.000259202)
(-0.0280538 -0.0153266 0.0002449)
(-0.0264215 -0.0141173 0.000230652)
(-0.00568292 0.48009 4.96015e-05)
(-0.0117799 0.338706 0.000102822)
(-0.0170954 0.24328 0.000149219)
(-0.021785 0.17742 0.000190153)
(-0.0255417 0.12958 0.000222945)
(-0.0289066 0.0938263 0.000252317)
(-0.0315883 0.0664577 0.000275726)
(-0.0339843 0.0452752 0.000296641)
(-0.0358836 0.0286923 0.000313221)
(-0.0375361 0.0156799 0.000327646)
(-0.0388197 0.00543729 0.000338852)
(-0.039871 -0.00258904 0.000348029)
(-0.0406345 -0.00884644 0.000354695)
(-0.0411778 -0.0136611 0.000359439)
(-0.0414822 -0.0173021 0.000362097)
(-0.0415795 -0.0199764 0.000362947)
(-0.0414684 -0.0218565 0.000361979)
(-0.0411667 -0.0230807 0.000359347)
(-0.0406814 -0.0237655 0.000355112)
(-0.0400266 -0.0240074 0.000349398)
(-0.0392141 -0.0238887 0.000342307)
(-0.0382587 -0.023479 0.000333968)
(-0.0371752 -0.0228382 0.000324512)
(-0.0359799 -0.0220177 0.00031408)
(-0.0346895 -0.0210616 0.000302817)
(-0.0333209 -0.020008 0.000290872)
(-0.0318908 -0.0188895 0.00027839)
(-0.0304158 -0.0177339 0.000265516)
(-0.0289116 -0.0165646 0.000252386)
(-0.0273927 -0.0154014 0.000239129)
(-0.0258726 -0.0142602 0.00022586)
(-0.00523579 0.508199 4.56991e-05)
(-0.0109361 0.36234 9.54583e-05)
(-0.0159555 0.263383 0.00013927)
(-0.0204059 0.19472 0.000178116)
(-0.0239928 0.14461 0.000209426)
(-0.0272081 0.106966 0.000237492)
(-0.029783 0.0780103 0.000259969)
(-0.0320829 0.0554714 0.000280046)
(-0.0339154 0.0377208 0.000296042)
(-0.0355113 0.0236875 0.000309973)
(-0.03676 0.0125451 0.000320874)
(-0.0377882 0.00371577 0.00032985)
(-0.0385457 -0.00326353 0.000336463)
(-0.0390946 -0.00873418 0.000341256)
(-0.0394179 -0.012974 0.000344079)
(-0.0395457 -0.0161971 0.000345196)
(-0.0394776 -0.01858 0.000344603)
(-0.0392307 -0.0202644 0.000342449)
(-0.0388123 -0.0213688 0.000338797)
(-0.0382357 -0.0219917 0.000333766)
(-0.0375122 -0.0222166 0.000327452)
(-0.0366552 -0.0221148 0.000319973)
(-0.0356783 -0.0217474 0.000311446)
(-0.0345958 -0.0211676 0.000301999)
(-0.0334226 -0.0204214 0.000291759)
(-0.0321735 -0.0195488 0.000280857)
(-0.0308635 -0.0185846 0.000269423)
(-0.0295072 -0.0175587 0.000257585)
(-0.0281187 -0.0164971 0.000245465)
(-0.0267111 -0.0154216 0.000233179)
(-0.0252966 -0.0143508 0.000220832)
(-0.00484726 0.534601 4.23081e-05)
(-0.0102104 0.384845 8.91243e-05)
(-0.0149891 0.282739 0.000130835)
(-0.0192528 0.211526 0.000168052)
(-0.0227154 0.15931 0.000198277)
(-0.0258215 0.119881 0.00022539)
(-0.0283195 0.0894009 0.000247196)
(-0.030544 0.0655378 0.000266614)
(-0.0323182 0.0466312 0.000282101)
(-0.0338557 0.0315768 0.000295523)
(-0.0350573 0.0195287 0.000306013)
(-0.0360422 0.00988914 0.000314611)
(-0.0367672 0.00218262 0.000320941)
(-0.0372922 -0.0039441 0.000325524)
(-0.0376049 -0.00877662 0.000328255)
(-0.0377347 -0.0125366 0.000329389)
(-0.0376832 -0.0154061 0.000328941)
(-0.0374669 -0.0175316 0.000327054)
(-0.037093 -0.0190356 0.000323791)
(-0.0365739 -0.0200192 0.000319261)
(-0.0359199 -0.0205688 0.000313554)
(-0.035143 -0.0207575 0.000306773)
(-0.034255 -0.0206486 0.000299023)
(-0.0332689 -0.020297 0.000290417)
(-0.0321975 -0.0197507 0.000281065)
(-0.031054 -0.0190514 0.000271085)
(-0.0298516 -0.0182361 0.00026059)
(-0.028603 -0.0173366 0.000249692)
(-0.0273208 -0.0163809 0.0002385)
(-0.0260167 -0.0153931 0.000227117)
(-0.0247015 -0.0143936 0.000215638)
(-0.00448927 0.558899 3.91837e-05)
(-0.00952721 0.40568 8.31609e-05)
(-0.0140622 0.300715 0.000122745)
(-0.0181314 0.227154 0.000158264)
(-0.0214588 0.172983 0.000187308)
(-0.0244481 0.131892 0.000213402)