/*--------------------------------*- C++ -*----------------------------------*\
| =========                 |                                                 |
| \\      /  F ield         | OpenFOAM: The Open Source CFD Toolbox           |
|  \\    /   O peration     | Version:  v2012                                 |
|   \\  /    A nd           | Website:  www.openfoam.com                      |
|    \\/     M anipulation  |                                                 |
\*---------------------------------------------------------------------------*/
FoamFile
{
    version     2.0;
    format      ascii;
    class       volScalarField;
    location    "0.6";
    object      alpha.water;
}
// * * * * * * * * * * * * * * * * * * * * * * * * * * * * * * * * * * * * * //

dimensions      [0 0 0 0 0 0 0];


internalField   nonuniform List<scalar> 
3326
(
5.56746e-128
1.64173e-125
6.13846e-123
3.02836e-120
2.08122e-117
2.15752e-114
-8.44053e-112
4.58239e-104
3.11822e-102
1.93646e-131
3.30222e-129
6.63765e-127
1.623e-124
4.82148e-122
1.81616e-119
9.02663e-117
6.24994e-114
6.52781e-111
-1.10381e-108
1.24384e-100
8.13978e-99
2.74289e-05
8.25722e-07
4.29557e-10
3.67659e-17
5.22654e-24
6.08818e-33
2.41387e-40
1.61137e-46
1.12231e-52
3.22924e-66
8.53316e-69
1.2149e-71
8.65442e-75
4.48909e-78
8.16078e-81
4.40226e-84
4.79214e-87
3.07146e-91
1.25632e-95
4.66388e-100
2.24591e-105
1.08014e-111
2.3449e-121
2.37789e-129
1.70612e-138
5.89032e-141
3.60761e-142
2.78503e-140
2.32944e-138
2.14603e-136
2.19567e-134
2.51593e-132
3.26123e-130
4.88996e-128
8.4148e-126
1.70618e-123
4.15519e-121
1.24462e-118
4.72718e-116
2.3691e-113
1.65414e-110
1.74232e-107
1.25695e-105
2.95673e-97
1.85928e-95
2.65644e-05
8.47189e-07
4.83161e-10
1.37488e-16
7.18094e-24
8.66595e-33
3.67391e-40
2.44624e-46
1.67215e-52
5.41305e-66
1.47895e-68
2.2546e-71
1.61511e-74
8.83429e-78
1.75657e-80
8.69658e-84
9.62448e-87
8.60323e-91
3.41442e-95
1.55476e-99
1.13029e-104
1.00107e-110
1.75405e-121
6.02683e-127
1.94617e-135
6.47649e-137
7.2614e-139
5.697e-137
4.82592e-135
4.50008e-133
4.65778e-131
5.39671e-129
7.07026e-127
1.05947e-124
1.84009e-122
3.76529e-120
9.25385e-118
2.79727e-115
1.07221e-112
5.42346e-110
3.82223e-107
4.06414e-104
1.49829e-101
6.09527e-94
3.68001e-92
2.59478e-05
8.64399e-07
5.33648e-10
4.51101e-16
9.9821e-24
1.24827e-32
5.58824e-40
3.85071e-46
2.54687e-52
8.96539e-66
2.57406e-68
4.2453e-71
3.10477e-74
1.76042e-77
4.22947e-80
1.72239e-83
1.74129e-86
2.13152e-90
1.07735e-94
5.856e-99
6.39597e-104
1.47037e-109
1.7309e-119
1.57458e-124
1.11992e-132
3.8476e-134
1.25186e-135
9.93789e-134
8.51589e-132
8.02995e-130
8.4019e-128
9.83828e-126
1.30234e-123
1.97153e-121
3.4589e-119
7.1491e-117
1.7747e-114
5.41873e-112
2.09816e-109
1.07219e-106
7.6352e-104
2.3978e-101
6.14487e-98
1.0786e-90
6.24673e-89
2.55429e-05
8.78207e-07
5.82066e-10
1.12258e-15
1.40468e-23
1.82107e-32
8.47732e-40
6.30277e-46
4.01911e-52
1.49938e-65
4.50003e-68
8.04789e-71
6.14811e-74
3.56884e-77
1.07449e-79
3.69689e-83
3.28184e-86
5.16262e-90
4.23564e-94
2.81842e-98
4.86161e-103
2.39449e-108
2.92738e-117
4.25388e-122
6.51852e-130
1.55195e-131
1.82287e-132
1.46532e-130
1.27117e-128
1.21302e-126
1.28407e-124
1.52082e-122
2.03584e-120
3.1162e-118
5.52744e-116
1.155e-113
2.89874e-111
8.9487e-109
3.50367e-106
1.81068e-103
1.30436e-100
7.31452e-98
1.06927e-94
1.62083e-87
8.99635e-86
2.53124e-05
8.88457e-07
6.28728e-10
2.17575e-15
2.0021e-23
2.69313e-32
1.28186e-39
1.06978e-45
6.66147e-52
2.57545e-65
7.92689e-68
1.52845e-70
1.24994e-73
7.4163e-77
2.67695e-79
9.28367e-83
8.20082e-86
1.43898e-89
1.81516e-93
1.52916e-97
4.32998e-102
2.89506e-107
5.14573e-115
1.1914e-119
3.84274e-127
6.87618e-129
2.21786e-129
1.80667e-127
1.58793e-125
1.53473e-123
1.645e-121
1.97229e-119
2.67226e-117
4.13951e-115
7.43032e-113
1.57117e-110
3.99046e-108
1.24678e-105
4.94116e-103
2.58525e-100
1.88612e-97
1.07058e-94
1.312e-91
2.04517e-84
1.08685e-82
2.52463e-05
8.93279e-07
6.71002e-10
3.47466e-15
2.89195e-23
4.0413e-32
1.93486e-39
1.86654e-45
1.16981e-51
4.46226e-65
1.41586e-67
2.9083e-70
2.59507e-73
1.59374e-76
6.28342e-79
2.72433e-82
3.15435e-85
5.2571e-89
7.23007e-93
7.78503e-97
3.58065e-101
3.70258e-106
9.42369e-113
3.46853e-117
2.27196e-124
2.94057e-126
2.2264e-126
1.83921e-124
1.63916e-122
1.60592e-120
1.74439e-118
2.11908e-116
2.90864e-114
4.56408e-112
8.29831e-110
1.77742e-107
4.57307e-105
1.4476e-102
5.81356e-100
3.0833e-97
2.28592e-94
4.49006e-92
1.32982e-88
2.1414e-81
1.08844e-79
2.5365e-05
8.72439e-07
7.02048e-10
4.80863e-15
4.23628e-23
6.15981e-32
2.92698e-39
3.30515e-45
2.17084e-51
8.09976e-65
2.58807e-67
5.57922e-70
5.47695e-73
3.56674e-76
1.39811e-78
8.37978e-82
1.32393e-84
2.22903e-88
2.71586e-92
3.91154e-96
3.0696e-100
1.17429e-104
1.80257e-110
1.05264e-114
1.35481e-121
1.434e-123
1.8249e-123
1.52609e-121
1.38032e-119
1.37204e-117
1.5117e-115
1.86238e-113
2.59213e-111
4.12417e-109
7.60301e-107
1.65128e-104
4.30847e-102
1.38332e-99
5.63603e-97
3.03414e-94
2.29197e-91
-2.05063e-88
1.09891e-85
1.83761e-78
8.92412e-77
2.58072e-05
8.49796e-07
7.15436e-10
5.99042e-15
6.29827e-23
9.54735e-32
4.47012e-39
5.86137e-45
4.18749e-51
1.49594e-64
4.89373e-67
1.09277e-69
1.17426e-72
8.32833e-76
3.09077e-78
2.42662e-81
4.37025e-84
8.66213e-88
1.14389e-91
2.48473e-95
3.88798e-99
2.42735e-103
3.61095e-108
3.34002e-112
8.33427e-119
9.73565e-121
1.1976e-120
1.01781e-118
9.35112e-117
9.43904e-115
1.05588e-112
1.32049e-110
1.86552e-108
3.01258e-106
5.63714e-104
1.24281e-101
3.29214e-99
1.07336e-96
4.44321e-94
2.43841e-91
1.57779e-88
-6.71706e-86
7.32929e-83
1.2757e-75
5.91269e-74
2.67253e-05
8.24773e-07
7.13787e-10
6.88647e-15
9.51323e-23
1.50652e-31
6.96972e-39
1.03059e-44
8.19022e-51
2.77476e-64
9.66103e-67
2.22294e-69
2.57151e-72
2.02023e-75
7.34525e-78
6.50333e-81
1.13743e-83
2.98432e-87
6.49483e-91
2.24768e-94
6.54161e-98
1.76754e-102
7.59697e-106
1.11154e-109
5.46074e-116
1.01682e-117
6.22412e-118
5.39153e-116
5.03629e-114
5.16737e-112
5.87445e-110
7.4653e-108
1.07161e-105
1.75835e-103
3.34331e-101
7.49077e-99
2.01694e-96
6.68739e-94
2.82167e-91
1.42004e-88
8.06441e-86
4.62714e-84
1.74206e-79
7.06772e-73
3.12256e-71
2.83064e-05
7.88321e-07
6.58551e-10
7.41098e-15
1.46159e-22
2.42301e-31
1.1261e-38
1.78884e-44
1.58698e-50
5.33118e-64
1.99813e-66
4.77364e-69
5.82003e-72
5.05719e-75
2.03135e-77
1.73575e-80
2.83218e-83
1.09289e-86
4.48041e-90
2.1903e-93
7.95246e-97
9.18745e-101
1.68369e-103
3.89273e-107
3.87983e-113
1.68749e-114
2.53338e-115
2.23354e-113
2.1233e-111
2.21663e-109
2.56358e-107
3.31389e-105
4.83868e-103
8.07613e-101
1.56217e-98
3.56125e-96
9.76174e-94
3.30267e-91
1.26768e-88
5.55053e-86
3.21739e-83
9.68553e-81
1.54997e-76
3.08064e-70
1.29566e-68
3.07977e-05
7.36654e-07
6.15932e-10
7.5873e-15
2.28731e-22
3.97671e-31
1.91572e-38
3.07477e-44
3.0061e-50
1.0412e-63
4.30712e-66
1.08971e-68
1.3823e-71
1.30462e-74
6.54856e-77
5.26936e-80
9.53607e-83
5.45434e-86
2.90232e-89
1.90045e-92
8.86947e-96
1.54406e-98
3.94352e-101
1.43968e-104
2.9216e-110
1.37739e-112
7.92436e-113
7.11731e-111
6.89254e-109
7.32869e-107
8.63152e-105
1.13622e-102
1.68939e-100
2.87156e-98
5.65736e-96
1.31436e-93
3.67915e-91
1.1328e-88
3.9844e-86
1.78285e-83
1.05685e-80
4.09177e-78
1.70153e-72
1.04064e-67
4.16054e-66
3.43918e-05
6.78582e-07
5.77012e-10
7.0251e-15
3.65191e-22
6.66741e-31
3.46703e-38
5.29713e-44
5.57174e-50
2.14205e-63
9.56315e-66
2.62147e-68
3.48883e-71
3.50631e-74
2.22392e-76
2.01222e-79
5.31044e-82
3.48347e-85
1.808e-88
1.49339e-91
1.53482e-94
2.11934e-96
9.81428e-99
5.64405e-102
2.45753e-107
2.93999e-110
2.00169e-110
1.83374e-108
1.81131e-106
1.96409e-104
2.35887e-102
3.16626e-100
4.80065e-98
8.3218e-96
1.67233e-93
3.96479e-91
1.1336e-88
3.37435e-86
1.21456e-83
5.56585e-81
3.38149e-78
1.41058e-75
2.74419e-69
2.68134e-65
1.01751e-63
3.92152e-05
6.24022e-07
5.3858e-10
4.95348e-15
5.95854e-22
1.14318e-30
6.64921e-38
9.3531e-44
1.02837e-49
4.48626e-63
2.16376e-65
6.51867e-68
9.38978e-71
1.00607e-73
7.28411e-76
8.95314e-79
2.97668e-81
2.1576e-84
1.51513e-87
1.44987e-90
1.61668e-92
2.90099e-94
2.58985e-96
2.35479e-99
2.22091e-104
2.46293e-107
4.79497e-108
4.48888e-106
4.53132e-104
5.02071e-102
6.16093e-100
8.44935e-98
1.30919e-95
2.32159e-93
4.64549e-91
9.76685e-89
2.42259e-86
7.24022e-84
2.67228e-81
1.25666e-78
7.84123e-76
3.4244e-73
1.06181e-66
5.18323e-63
1.86334e-61
4.59684e-05
5.77407e-07
5.0675e-10
3.36439e-15
9.95081e-22
2.00671e-30
1.3236e-37
1.74691e-43
1.95974e-49
9.75096e-63
4.98708e-65
1.65309e-67
2.68166e-70
3.17505e-73
2.35312e-75
3.97063e-78
1.24735e-80
1.32021e-83
2.17796e-86
6.0784e-89
1.88569e-90
4.22333e-92
5.21264e-94
1.05058e-96
2.14834e-101
2.23092e-104
8.24094e-106
7.88426e-104
8.13435e-102
9.21535e-100
1.15702e-97
1.52275e-95
2.18469e-93
3.54277e-91
6.57673e-89
1.41802e-86
3.61034e-84
1.1081e-81
4.20285e-79
2.03259e-76
1.30556e-73
5.92504e-71
2.41959e-64
7.38495e-61
2.50915e-59
5.66511e-05
5.5564e-07
4.90862e-10
2.64153e-15
1.70287e-21
3.61135e-30
2.65747e-37
3.5598e-43
4.06207e-49
2.20344e-62
1.18951e-64
4.31475e-67
8.12429e-70
1.12497e-72
8.61933e-75
1.74675e-77
4.83842e-80
7.62312e-83
1.54505e-85
6.2128e-87
2.36556e-88
6.57649e-90
1.05555e-91
5.03338e-94
2.23308e-98
8.25262e-102
9.95851e-104
8.27667e-102
8.20594e-100
8.87764e-98
1.05556e-95
1.38999e-93
2.04861e-91
3.41389e-89
6.51402e-87
1.4441e-84
3.78206e-82
1.19473e-79
4.66713e-77
2.32677e-74
1.54231e-71
7.26303e-69
3.62783e-62
7.60974e-59
2.43621e-57
7.37262e-05
6.12472e-07
4.94384e-10
2.46815e-15
2.98788e-21
6.67653e-30
5.26683e-37
7.97215e-43
9.57249e-49
5.21042e-62
3.02599e-64
1.20453e-66
2.67158e-69
4.53065e-72
4.25868e-74
9.3139e-77
2.81688e-79
3.08093e-82
1.27766e-83
6.9413e-85
3.18642e-86
1.09984e-87
2.28781e-89
2.21141e-91
2.50931e-95
4.6188e-100
8.26019e-102
4.63e-100
4.69756e-98
5.23248e-96
6.40555e-94
8.68467e-92
1.31797e-89
2.26191e-87
4.44601e-85
1.01572e-82
2.74269e-80
8.93844e-78
3.60522e-75
1.85762e-72
1.27419e-69
6.23236e-67
3.67635e-60
5.55587e-57
1.66891e-55
0.000100638
8.0907e-07
6.71794e-10
2.50368e-15
5.37647e-21
1.27204e-29
1.02809e-36
1.89795e-42
2.53513e-48
1.29591e-61
8.4704e-64
3.80518e-66
1.01e-68
2.15962e-71
2.73919e-73
8.00432e-76
3.19438e-78
1.8139e-80
1.30343e-81
8.36858e-83
4.62832e-84
1.98396e-85
5.35124e-87
7.21975e-89
3.06567e-92
1.72838e-98
4.6341e-100
1.73166e-98
1.79601e-96
2.06432e-94
2.60785e-92
3.64884e-90
5.71523e-88
1.01256e-85
2.05525e-83
4.85066e-81
1.35386e-78
4.56397e-76
1.90583e-73
1.01781e-70
7.2462e-68
3.68993e-65
2.52584e-58
2.8098e-55
7.87024e-54
0.00014138
1.15789e-06
1.47432e-09
3.2211e-15
9.92966e-21
2.50994e-29
2.02634e-36
4.56238e-42
7.00408e-48
3.48133e-61
2.64019e-63
1.41912e-65
4.77473e-68
1.36139e-70
1.83418e-72
7.1214e-75
2.33856e-77
1.71234e-78
1.44515e-79
1.09306e-80
7.284e-82
3.87853e-83
1.35727e-84
2.54751e-86
4.10102e-89
4.24543e-97
1.73681e-98
4.25139e-97
4.49358e-95
5.34277e-93
6.98287e-91
1.01087e-88
1.63845e-86
3.00456e-84
6.31454e-82
1.54383e-79
4.46649e-77
1.56196e-74
6.773e-72
3.7608e-69
2.19886e-67
1.48389e-63
1.16976e-56
9.59477e-54
2.48129e-52
0.000198401
1.65321e-06
2.9326e-09
6.04923e-15
1.88827e-20
5.16707e-29
4.26323e-36
1.08262e-41
1.89714e-47
1.00693e-60
9.0859e-63
6.30999e-65
3.06657e-67
1.31538e-69
1.13248e-71
2.80065e-74
1.87067e-75
1.78534e-76
1.74506e-77
1.55486e-78
1.24857e-79
8.26045e-81
3.75245e-82
9.79263e-84
6.03658e-86
6.74743e-96
4.27033e-97
6.75282e-96
7.22717e-94
8.91325e-92
1.20864e-89
1.8155e-87
3.05386e-85
5.81349e-83
1.26885e-80
3.22338e-78
9.69658e-76
3.52895e-73
1.59429e-70
7.76257e-68
3.63936e-65
3.98489e-62
3.61748e-55
2.14494e-52
5.03367e-51
0.000271227
2.25382e-06
4.82555e-09
1.48617e-14
3.7264e-20
1.12161e-28
1.02772e-35
2.63558e-41
5.14422e-47
3.16077e-60
3.4873e-62
3.45291e-64
2.8597e-66
1.9677e-68
8.71719e-71
1.82305e-72
1.86923e-73
2.04023e-74
2.30829e-75
2.42269e-76
2.34449e-77
1.92769e-78
1.1373e-79
4.13131e-81
5.94948e-83
7.08965e-95
6.78935e-96
7.23154e-95
7.78422e-93
9.98901e-91
1.40984e-88
2.20449e-86
3.86095e-84
7.65517e-82
1.74098e-79
4.6112e-77
1.44734e-74
5.50137e-72
2.59899e-69
8.02025e-67
6.50337e-64
7.51896e-61
7.89541e-54
3.01366e-51
6.0278e-50
0.000357556
2.89897e-06
6.78847e-09
4.63155e-14
7.73991e-20
2.60573e-28
2.89886e-35
7.31442e-41
1.57949e-46
1.11271e-59
1.61228e-61
2.68128e-63
4.31975e-65
4.1845e-67
1.86378e-69
1.75899e-70
2.06465e-71
2.57091e-72
3.36614e-73
4.16133e-74
4.85333e-75
4.96056e-76
3.80296e-77
1.92494e-78
4.39128e-80
2.06316e-94
7.2767e-95
4.12323e-94
4.20372e-92
5.62954e-90
8.29962e-88
1.35579e-85
2.48127e-83
5.14258e-81
1.22314e-78
3.39023e-76
1.11451e-73
4.44167e-71
1.89823e-68
7.13638e-66
6.1217e-63
7.46869e-60
9.13637e-53
1.75556e-50
2.57611e-49
0.000456397
3.54271e-06
8.53972e-09
6.3035e-14
1.7259e-19
6.6216e-28
8.86467e-35
2.58889e-40
6.50347e-46
4.50644e-59
1.03459e-60
3.85312e-62
1.51914e-63
3.83273e-65
1.87033e-67
1.91064e-68
2.5205e-69
3.59497e-70
5.45037e-71
7.93544e-72
1.11547e-72
1.41763e-73
1.413e-74
9.97684e-76
3.6115e-77
-1.29165e-94
4.16853e-94
1.48557e-93
1.38316e-91
1.93986e-89
2.99939e-87
5.1396e-85
9.86962e-83
2.14722e-80
5.36393e-78
1.56266e-75
5.40446e-73
2.26868e-70
6.02782e-68
4.06717e-65
3.69529e-62
4.79412e-59
6.84963e-52
4.5452e-50
3.37785e-49
0.000570433
4.19106e-06
1.01145e-08
1.00889e-13
4.22403e-19
1.9059e-27
2.75892e-34
1.1202e-39
3.51503e-45
2.08732e-58
1.01678e-59
1.21848e-60
1.21764e-61
9.22405e-63
4.44666e-64
4.72866e-66
3.55731e-67
5.61576e-68
9.84427e-69
1.68872e-69
2.8691e-70
4.53508e-71
5.88046e-72
5.79857e-73
3.33934e-74
1.09834e-91
1.49659e-93
5.35987e-92
7.14153e-90
1.05844e-87
1.72497e-85
3.11662e-83
6.31332e-81
1.44968e-78
3.8248e-76
1.17782e-73
4.3103e-71
1.2906e-68
5.41456e-66
3.88543e-63
3.76505e-60
2.14962e-53
4.65057e-51
9.78582e-50
2.91572e-49
0.000705808
4.93494e-06
1.19552e-08
2.47241e-13
1.15944e-18
6.59883e-27
9.61633e-34
5.12087e-39
1.99535e-44
1.11312e-57
1.2114e-58
3.11791e-59
6.33994e-60
1.11332e-60
1.61407e-61
1.82695e-62
1.32887e-63
1.55371e-65
2.20765e-66
4.12267e-67
8.31778e-68
1.63646e-68
2.76339e-69
3.81191e-70
3.50272e-71
4.90495e-88
3.93187e-92
3.32821e-90
4.3813e-88
8.47828e-86
1.46592e-83
2.80731e-81
6.0298e-79
1.46886e-76
4.11401e-74
1.34605e-71
5.23953e-69
1.2626e-66
7.48225e-64
5.74538e-61
1.53087e-54
6.05985e-52
2.0074e-50
1.13517e-49
1.00225e-49
0.00087481
5.99617e-06
1.48266e-08
6.45272e-13
3.67485e-18
3.0414e-26
4.87436e-33
2.62611e-38
1.21913e-43
7.00672e-57
1.20601e-57
4.98288e-58
1.75482e-58
5.7396e-59
1.7022e-59
4.56248e-60
1.08502e-60
2.20241e-61
3.49842e-62
3.44836e-63
4.88044e-65
9.27091e-66
1.69866e-66
3.12505e-67
4.48983e-68
8.41067e-75
1.87463e-90
1.25285e-88
1.91101e-86
6.17531e-84
1.17656e-81
2.40377e-79
5.50978e-77
1.43313e-74
4.289e-72
1.50087e-69
6.25591e-67
1.61623e-64
1.02933e-61
1.32215e-55
9.51205e-53
4.0775e-51
4.27152e-50
1.13517e-49
5.59627e-51
0.410586
0.0509574
0.00111887
7.59325e-06
1.9664e-08
1.7711e-12
1.42777e-17
2.16048e-25
3.79824e-32
2.10973e-37
1.20416e-42
6.23192e-56
1.08057e-56
5.69047e-57
2.87512e-57
1.42854e-57
6.8624e-58
3.17094e-58
1.40144e-58
5.88739e-59
2.3333e-59
8.63428e-60
2.93393e-60
8.91464e-61
2.35178e-61
5.32375e-62
9.40935e-63
1.37773e-64
6.33793e-68
1.04494e-68
4.58493e-69
1.79702e-69
7.19339e-70
2.91892e-70
9.88725e-71
4.2773e-72
1.49809e-69
6.24263e-67
3.1675e-64
1.02933e-61
2.86853e-55
3.38741e-53
1.13171e-51
1.43162e-50
6.53146e-50
1.14072e-49
2.05889e-53
0.437506
0.0592737
0.00140452
9.88868e-06
2.89738e-08
5.78138e-12
7.50074e-17
2.76332e-24
3.24175e-31
2.48357e-36
1.68961e-41
1.03742e-54
1.27452e-55
6.68228e-56
3.86356e-56
2.3476e-56
1.46666e-56
9.27885e-57
5.89018e-57
3.72958e-57
2.34813e-57
1.46818e-57
9.11675e-58
5.63681e-58
3.51513e-58
2.28933e-58
1.63455e-58
1.31601e-58
1.19968e-58
1.19097e-58
1.37365e-58
1.6285e-58
2.1682e-58
3.19401e-58
5.41844e-58
1.1121e-57
3.06332e-57
1.34401e-56
1.12007e-55
1.68327e-54
3.1426e-53
4.97195e-52
5.12263e-51
2.9919e-50
9.39441e-50
1.56578e-49
2.06088e-57
0.45908
0.0675517
0.00177265
1.36869e-05
4.87469e-08
2.46756e-11
5.63658e-16
7.01169e-23
3.17449e-30
2.26551e-35
1.37104e-40
2.92925e-53
3.61386e-54
1.53336e-54
7.77677e-55
4.48721e-55
2.86314e-55
1.96076e-55
1.41e-55
1.05142e-55
8.07623e-56
6.36998e-56
5.15364e-56
4.27885e-56
3.6493e-56
3.2016e-56
2.90064e-56
2.73089e-56
2.67179e-56
2.81683e-56
3.1651e-56
3.84242e-56
5.07984e-56
7.4258e-56
1.22459e-55
2.35026e-55
5.4971e-55
1.66409e-54
6.86693e-54
3.83762e-53
2.62316e-52
1.90716e-51
1.41002e-50
1.18124e-49
1.041e-48
4.31683e-48
2.07187e-59
0.4756
0.0758854
0.00226626
2.02937e-05
9.29122e-08
1.01533e-10
5.61234e-15
3.50596e-21
1.65485e-28
1.55232e-34
5.77803e-40
8.12266e-52
2.14298e-52
9.98602e-53
5.05308e-53
2.6078e-53
1.39027e-53
7.87465e-54
4.80958e-54
3.18534e-54
2.27399e-54
1.72941e-54
1.3845e-54
1.1562e-54
1.00096e-54
8.94399e-55
8.23898e-55
7.84823e-55
7.72141e-55
8.10224e-55
8.95167e-55
1.0567e-54
1.33874e-54
1.84153e-54
2.78614e-54
4.72127e-54
9.17673e-54
2.10777e-53
5.91091e-53
2.09468e-52
9.91294e-52
7.23412e-51
1.01608e-49
1.93597e-48
2.3573e-47
1.07086e-46
2.07187e-59
0.4889
0.0850408
0.00298509
3.23592e-05
1.96382e-07
4.00901e-10
7.2175e-14
2.78931e-19
2.3036e-26
9.04954e-33
1.66908e-38
1.72915e-50
9.57869e-51
7.12525e-51
4.89113e-51
3.21709e-51
2.08604e-51
1.35611e-51
8.88865e-52
5.91623e-52
4.03234e-52
2.83425e-52
2.06571e-52
1.56915e-52
1.24905e-52
1.0447e-52
9.16328e-53
8.42053e-53
8.09002e-53
8.0043e-53
8.606e-53
9.5164e-53
1.12732e-52
1.41967e-52
1.93012e-52
2.86377e-52
4.72856e-52
8.94954e-52
2.04049e-51
6.08039e-51
2.64489e-50
1.80115e-49
1.69919e-48
1.56997e-47
9.46987e-47
2.572e-46
5.67559e-55
0.501878
0.0966079
0.00414069
5.60991e-05
4.53476e-07
1.56275e-09
1.10391e-12
2.30787e-17
9.95824e-24
1.34634e-30
1.19142e-36
1.9751e-48
2.61639e-49
3.81298e-49
3.56889e-49
2.8976e-49
2.31193e-49
1.82313e-49
1.43409e-49
1.12878e-49
8.94139e-50
7.1734e-50
5.85909e-50
4.89158e-50
4.18788e-50
3.6847e-50
3.33721e-50
3.12125e-50
3.0163e-50
2.98853e-50
3.18372e-50
3.48495e-50
4.05389e-50
4.99058e-50
6.58895e-50
9.42516e-50
1.48332e-49
2.61783e-49
5.30522e-49
1.26731e-48
3.63945e-48
1.24398e-47
4.66424e-47
1.56777e-46
3.36966e-46
2.4418e-46
3.81882e-52
0.517739
0.112346
0.00608284
0.000105944
1.1255e-06
6.01082e-09
1.06828e-11
1.60503e-15
7.60733e-21
5.6092e-28
6.62914e-36
4.82352e-45
5.03149e-46
1.2529e-46
4.477e-47
2.87882e-47
2.39689e-47
2.05183e-47
1.7417e-47
1.47315e-47
1.24946e-47
1.067e-47
9.19961e-48
8.02978e-48
7.11328e-48
6.40614e-48
5.87471e-48
5.50392e-48
5.27928e-48
5.18364e-48
5.20789e-48
5.58072e-48
6.06883e-48
6.96047e-48
8.35345e-48
1.0634e-47
1.44823e-47
2.14107e-47
3.49798e-47
6.45374e-47
1.37124e-46
3.35369e-46
8.91825e-46
2.19921e-45
3.82731e-45
7.73873e-47
7.87181e-51
0.535338
0.132476
0.00921619
0.00020998
2.85981e-06
2.18457e-08
6.82972e-11
5.98064e-14
2.58483e-18
2.96413e-24
3.51485e-30
2.63703e-42
7.28064e-43
3.12665e-43
1.23387e-43
5.00622e-44
2.10007e-44
9.73578e-45
5.29502e-45
3.43291e-45
2.54307e-45
2.03593e-45
1.69803e-45
1.45032e-45
1.26073e-45
1.11412e-45
1.00223e-45
9.1989e-46
8.6248e-46
8.25897e-46
8.07315e-46
8.02387e-46
8.30479e-46
8.74063e-46
9.52004e-46
1.07079e-45
1.24794e-45
1.51611e-45
1.93081e-45
2.60215e-45
3.74685e-45
5.75e-45
8.92411e-45
1.20333e-44
1.14608e-44
2.33673e-48
3.86519e-52
0.54153
0.146957
0.0127192
0.000383793
6.63194e-06
6.7281e-08
3.15284e-10
5.8527e-13
2.40352e-16
3.92541e-21
2.30429e-26
2.89932e-40
1.32406e-40
8.4109e-41
4.94538e-41
2.91065e-41
1.67812e-41
9.5543e-42
5.40411e-42
3.0804e-42
1.81071e-42
1.13016e-42
7.67523e-43
5.7041e-43
4.5699e-43
3.8531e-43
3.34943e-43
2.96944e-43
2.67125e-43
2.43074e-43
2.23349e-43
2.07356e-43
1.9454e-43
1.84483e-43
1.76856e-43
1.71372e-43
1.67744e-43
1.65608e-43
1.64422e-43
1.63328e-43
1.60177e-43
1.50527e-43
1.26238e-43
7.59017e-44
8.59221e-45
1.77406e-51
1.44267e-53
0.495296
0.136542
0.0138829
0.000550565
1.19885e-05
1.54133e-07
9.96761e-10
2.96971e-12
3.42297e-15
6.42516e-19
9.22213e-24
7.3711e-39
3.96066e-39
3.24356e-39
2.55015e-39
1.99465e-39
1.54013e-39
1.17278e-39
8.79592e-40
6.48964e-40
4.70717e-40
3.35901e-40
2.36664e-40
1.66144e-40
1.18251e-40
8.72084e-41
6.75207e-41
5.5245e-41
4.73532e-41
4.13073e-41
3.59055e-41
3.11765e-41
2.69805e-41
2.32317e-41
1.98512e-41
1.67721e-41
1.39385e-41
1.13047e-41
8.83924e-42
6.53096e-42
4.40102e-42
2.52557e-42
1.06275e-42
2.13146e-43
1.10273e-45
1.70508e-49
7.2974e-53
0.320192
0.0812661
0.00934149
0.000480782
1.34245e-05
2.18297e-07
1.81953e-09
7.38837e-12
1.37085e-14
8.65066e-18
2.81481e-22
6.07979e-38
2.20046e-38
1.99313e-38
1.83875e-38
1.67178e-38
1.51742e-38
1.36785e-38
1.2252e-38
1.08995e-38
9.62547e-39
8.43404e-39
7.32739e-39
6.30669e-39
5.3726e-39
4.52643e-39
3.77079e-39
3.10404e-39
2.52351e-39
2.02579e-39
1.60371e-39
1.24837e-39
9.52294e-40
7.08742e-40
5.11725e-40
3.55719e-40
2.3562e-40
1.46542e-40
8.37511e-41
4.25412e-41
1.81623e-41
5.87545e-42
1.14642e-42
5.73844e-44
2.56045e-48
9.35667e-52
7.40557e-54
5.56748e-128
1.64173e-125
6.13848e-123
3.02837e-120
2.08123e-117
2.15752e-114
-8.44007e-112
4.5824e-104
3.11822e-102
1.93646e-131
3.30223e-129
6.63766e-127
1.623e-124
4.82149e-122
1.81616e-119
9.02665e-117
6.24996e-114
6.52783e-111
-1.10375e-108
1.24385e-100
8.1398e-99
2.74287e-05
8.25715e-07
4.29555e-10
3.67658e-17
5.22644e-24
6.08805e-33
2.41385e-40
1.61135e-46
1.12233e-52
3.30803e-66
8.53237e-69
1.2141e-71
8.64786e-75
4.48727e-78
8.15628e-81
4.40188e-84
4.79041e-87
3.07079e-91
1.25645e-95
4.66027e-100
2.24635e-105
1.08014e-111
2.3449e-121
2.3778e-129
1.70612e-138
5.89032e-141
3.60762e-142
2.78504e-140
2.32944e-138
2.14603e-136
2.19567e-134
2.51593e-132
3.26124e-130
4.88998e-128
8.41482e-126
1.70619e-123
4.1552e-121
1.24463e-118
4.72719e-116
2.36911e-113
1.65414e-110
1.74232e-107
1.2568e-105
2.95673e-97
1.85928e-95
2.65642e-05
8.47181e-07
4.83158e-10
1.37487e-16
7.1808e-24
8.66576e-33
3.67387e-40
2.44621e-46
1.67217e-52
5.21451e-66
1.47868e-68
2.25332e-71
1.61387e-74
8.83051e-78
1.75549e-80
8.69606e-84
9.62167e-87
8.6022e-91
3.41452e-95
1.55368e-99
1.13062e-104
1.00107e-110
1.75405e-121
6.02683e-127
1.94599e-135
6.47665e-137
7.26142e-139
5.69701e-137
4.82593e-135
4.50009e-133
4.65779e-131
5.39673e-129
7.07028e-127
1.05947e-124
1.8401e-122
3.7653e-120
9.25387e-118
2.79728e-115
1.07222e-112
5.42347e-110
3.82224e-107
4.06415e-104
1.49813e-101
6.09528e-94
3.68002e-92
2.59475e-05
8.64391e-07
5.33645e-10
4.51099e-16
9.98191e-24
1.24824e-32
5.58817e-40
3.85066e-46
2.54691e-52
8.77553e-66
2.57321e-68
4.24336e-71
3.10241e-74
1.75962e-77
4.22646e-80
1.72223e-83
1.74085e-86
2.13144e-90
1.07736e-94
5.85203e-99
6.39841e-104
1.47038e-109
1.7309e-119
1.57458e-124
1.11991e-132
3.84761e-134
1.25186e-135
9.93791e-134
8.51591e-132
8.02997e-130
8.40193e-128
9.83831e-126
1.30234e-123
1.97154e-121
3.45891e-119
7.14912e-117
1.7747e-114
5.41875e-112
2.09816e-109
1.07219e-106
7.63522e-104
2.39942e-101
6.14407e-98
1.0786e-90
6.24675e-89
2.55427e-05
8.78199e-07
5.82063e-10
1.12258e-15
1.40466e-23
1.82103e-32
8.47722e-40
6.30269e-46
4.01917e-52
1.51647e-65
4.49776e-68
8.04519e-71
6.14363e-74
3.56712e-77
1.07364e-79
3.69614e-83
3.28099e-86
5.16269e-90
4.2359e-94
2.81635e-98
4.8636e-103
2.39451e-108
2.92738e-117
4.25388e-122
6.5185e-130
1.55194e-131
1.82288e-132
1.46532e-130
1.27117e-128
1.21302e-126
1.28407e-124
1.52082e-122
2.03585e-120
3.11622e-118
5.52745e-116
1.15501e-113
2.89874e-111
8.94874e-109
3.50368e-106
1.81068e-103
1.30436e-100
7.31454e-98
1.06927e-94
1.62084e-87
8.99637e-86
2.53121e-05
8.88449e-07
6.28725e-10
2.17574e-15
2.00206e-23
2.69308e-32
1.28185e-39
1.06977e-45
6.66156e-52
2.58562e-65
7.92126e-68
1.52812e-70
1.2491e-73
7.41257e-77
2.67473e-79
9.28055e-83
8.19784e-86
1.439e-89
1.81535e-93
1.52797e-97
4.33137e-102
2.89508e-107
5.14573e-115
1.1914e-119
3.84273e-127
6.87616e-129
2.21786e-129
1.80668e-127
1.58793e-125
1.53474e-123
1.645e-121
1.97229e-119
2.67227e-117
4.13952e-115
7.43034e-113
1.57117e-110
3.99047e-108
1.24678e-105
4.94117e-103
2.58525e-100
1.88612e-97
1.07059e-94
1.31201e-91
2.04518e-84
1.08685e-82
2.52461e-05
8.93271e-07
6.70998e-10
3.47465e-15
2.89189e-23
4.04121e-32
1.93484e-39
1.86651e-45
1.16983e-51
4.42842e-65
1.41454e-67
2.90794e-70
2.5935e-73
1.59293e-76
6.27829e-79
2.72322e-82
3.15279e-85
5.25676e-89
7.23059e-93
7.77926e-97
3.58133e-101
3.70261e-106
9.42368e-113
3.46853e-117
2.27196e-124
2.94055e-126
2.22641e-126
1.83921e-124
1.63916e-122
1.60592e-120
1.7444e-118
2.11909e-116
2.90865e-114
4.5641e-112
8.29833e-110
1.77743e-107
4.57308e-105
1.44761e-102
5.81357e-100
3.08331e-97
2.28592e-94
4.49691e-92
1.32983e-88
2.1414e-81
1.08844e-79
2.53647e-05
8.72433e-07
7.02045e-10
4.80861e-15
4.2362e-23
6.15968e-32
2.92694e-39
3.30511e-45
2.17086e-51
7.9522e-65
2.58505e-67
5.57875e-70
5.47399e-73
3.56497e-76
1.39703e-78
8.37665e-82
1.32326e-84
2.22871e-88
2.71584e-92
3.90891e-96
3.06995e-100
1.1743e-104
1.80257e-110
1.05263e-114
1.35481e-121
1.43399e-123
1.82491e-123
1.5261e-121
1.38033e-119
1.37204e-117
1.5117e-115
1.86239e-113
2.59214e-111
4.12419e-109
7.60303e-107
1.65129e-104
4.30848e-102
1.38333e-99
5.63604e-97
3.03415e-94
2.29198e-91
-2.05076e-88
1.09891e-85
1.83761e-78
8.92414e-77
2.58069e-05
8.49791e-07
7.15434e-10
5.9904e-15
6.29815e-23
9.54716e-32
4.47007e-39
5.8613e-45
4.18753e-51
1.48461e-64
4.88694e-67
1.09263e-69
1.17368e-72
8.32437e-76
3.08859e-78
2.42593e-81
4.36831e-84
8.66061e-88
1.14383e-91
2.48311e-95
3.88854e-99
2.42737e-103
3.61094e-108
3.34002e-112
8.33424e-119
9.73557e-121
1.19761e-120
1.01781e-118
9.35114e-117
9.43906e-115
1.05588e-112
1.32049e-110
1.86552e-108
3.0126e-106
5.63716e-104
1.24281e-101
3.29215e-99
1.07337e-96
4.44322e-94
2.43842e-91
1.57779e-88
-6.71857e-86
7.3293e-83
1.27571e-75
5.9127e-74
2.6725e-05
8.24769e-07
7.13784e-10
6.88645e-15
9.51305e-23
1.50649e-31
6.96964e-39
1.03057e-44
8.19029e-51
2.75004e-64
9.6459e-67
2.22235e-69
2.57026e-72
2.01931e-75
7.34038e-78
6.50199e-81
1.13701e-83
2.98377e-87
6.49471e-91
2.24619e-94
6.54223e-98
1.76757e-102
7.59697e-106
1.11154e-109
5.46072e-116
1.01684e-117
6.22414e-118
5.39154e-116
5.0363e-114
5.16738e-112
5.87446e-110
7.46531e-108
1.07162e-105
1.75835e-103
3.34331e-101
7.49079e-99
2.01694e-96
6.68741e-94
2.82168e-91
1.42004e-88
8.06443e-86
4.6231e-84
1.74174e-79
7.06774e-73
3.12256e-71
2.83062e-05
7.88318e-07
6.58549e-10
7.41095e-15
1.46156e-22
2.42296e-31
1.12609e-38
1.78882e-44
1.58699e-50
5.30873e-64
1.99483e-66
4.77128e-69
5.81698e-72
5.0549e-75
2.02994e-77
1.73544e-80
2.83121e-83
1.09266e-86
4.48047e-90
2.18907e-93
7.95188e-97
9.18743e-101
1.68369e-103
3.89273e-107
3.87981e-113
1.68741e-114
2.53338e-115
2.23354e-113
2.1233e-111
2.21664e-109
2.56358e-107
3.3139e-105
4.8387e-103
8.07616e-101
1.56217e-98
3.56126e-96
9.76176e-94
3.30268e-91
1.26769e-88
5.55054e-86
3.21739e-83
9.68498e-81
1.54984e-76
3.08064e-70
1.29567e-68
3.07975e-05
7.36652e-07
6.1593e-10
7.58728e-15
2.28726e-22
3.97663e-31
1.91569e-38
3.07473e-44
3.00612e-50
1.04981e-63
4.30026e-66
1.0889e-68
1.38147e-71
1.30401e-74
6.5432e-77
5.26802e-80
9.53224e-83
5.45288e-86
2.90221e-89
1.8998e-92
8.86828e-96
1.54406e-98
3.94351e-101
1.43968e-104
2.92159e-110
1.37657e-112
7.92438e-113
7.11732e-111
6.89255e-109
7.3287e-107
8.63154e-105
1.13622e-102
1.6894e-100
2.87157e-98
5.65737e-96
1.31436e-93
3.67916e-91
1.13275e-88
3.98424e-86
1.78277e-83
1.05681e-80
4.09157e-78
1.70047e-72
1.04064e-67
4.16055e-66
3.43916e-05
6.78581e-07
5.7701e-10
7.02507e-15
3.65184e-22
6.66728e-31
3.46699e-38
5.29707e-44
5.57178e-50
2.13783e-63
9.55011e-66
2.61914e-68
3.48647e-71
3.50451e-74
2.22182e-76
2.01137e-79
5.30764e-82
3.48236e-85
1.80776e-88
1.49298e-91
1.5348e-94
2.11934e-96
9.81427e-99
5.64404e-102
2.45753e-107
2.93998e-110
2.00161e-110
1.83366e-108
1.81123e-106
1.96401e-104
2.35878e-102
3.16613e-100
4.80046e-98
8.32147e-96
1.67226e-93
3.96463e-91
1.13355e-88
3.37424e-86
1.21452e-83
5.56567e-81
3.38138e-78
1.41053e-75
2.74391e-69
2.68135e-65
1.01751e-63
3.92151e-05
6.24021e-07
5.38578e-10
4.95346e-15
5.95842e-22
1.14316e-30
6.64914e-38
9.35299e-44
1.02837e-49
4.49016e-63
2.16168e-65
6.51313e-68
9.38293e-71
1.0055e-73
7.27703e-76
8.94819e-79
2.97506e-81
2.15694e-84
1.51489e-87
1.44862e-90
1.61668e-92
2.90098e-94
2.58984e-96
2.35479e-99
2.22091e-104
2.46292e-107
4.79481e-108
4.48873e-106
4.53117e-104
5.02055e-102
6.16073e-100
8.44908e-98
1.30915e-95
2.32152e-93
4.64538e-91
9.7666e-89
2.42253e-86
7.24003e-84
2.67221e-81
1.25663e-78
7.84103e-76
3.42431e-73
1.06175e-66
5.18324e-63
1.86335e-61
4.59683e-05
5.77405e-07
5.06748e-10
3.36437e-15
9.95062e-22
2.00666e-30
1.32358e-37
1.74689e-43
1.95976e-49
9.76923e-63
4.98527e-65
1.65205e-67
2.67968e-70
3.17302e-73
2.35099e-75
3.96846e-78
1.24677e-80
1.31988e-83
2.17784e-86
6.07825e-89
1.88568e-90
4.22332e-92
5.21263e-94
1.05058e-96
2.14834e-101
2.23092e-104
8.24072e-106
7.88405e-104
8.13414e-102
9.21511e-100
1.15699e-97
1.52272e-95
2.18465e-93
3.5427e-91
6.5766e-89
1.41799e-86
3.61026e-84
1.10808e-81
4.20276e-79
2.03255e-76
1.30554e-73
5.92492e-71
2.41951e-64
7.38496e-61
2.50916e-59
5.66509e-05
5.55639e-07
4.9086e-10
2.6415e-15
1.70284e-21
3.61127e-30
2.65744e-37
3.55976e-43
4.0621e-49
2.21591e-62
1.19018e-64
4.3134e-67
8.11865e-70
1.12413e-72
8.61196e-75
1.74606e-77
4.83691e-80
7.62206e-83
1.54503e-85
6.21276e-87
2.36555e-88
6.57648e-90
1.05555e-91
5.03338e-94
2.23308e-98
8.25248e-102
9.9583e-104
8.27653e-102
8.2058e-100
8.87749e-98
1.05554e-95
1.38997e-93
2.04858e-91
3.41383e-89
6.51392e-87
1.44407e-84
3.782e-82
1.19471e-79
4.66705e-77
2.32673e-74
1.54228e-71
7.2629e-69
3.62775e-62
7.60976e-59
2.43621e-57
7.3726e-05
6.1247e-07
4.94382e-10
2.46813e-15
2.98783e-21
6.67639e-30
5.26677e-37
7.97206e-43
9.57257e-49
5.2891e-62
3.03248e-64
1.2046e-66
2.67013e-69
4.52675e-72
4.25509e-74
9.31262e-77
2.81666e-79
3.08062e-82
1.27765e-83
6.94125e-85
3.18641e-86
1.09984e-87
2.28781e-89
2.21141e-91
2.50931e-95
4.61874e-100
8.26005e-102
4.62994e-100
4.6975e-98
5.23241e-96
6.40546e-94
8.68455e-92
1.31795e-89
2.26188e-87
4.44596e-85
1.01571e-82
2.74265e-80
8.93832e-78
3.60518e-75
1.8576e-72
1.27417e-69
6.23227e-67
3.67629e-60
5.55588e-57
1.66892e-55
0.000100637
8.09067e-07
6.7179e-10
2.50366e-15
5.37637e-21
1.27201e-29
1.02808e-36
1.89793e-42
2.53515e-48
1.31395e-61
8.51124e-64
3.80737e-66