/*--------------------------------*- C++ -*----------------------------------*\
| =========                 |                                                 |
| \\      /  F ield         | OpenFOAM: The Open Source CFD Toolbox           |
|  \\    /   O peration     | Version:  v2012                                 |
|   \\  /    A nd           | Website:  www.openfoam.com                      |
|    \\/     M anipulation  |                                                 |
\*---------------------------------------------------------------------------*/
FoamFile
{
    version     2.0;
    format      ascii;
    class       volScalarField;
    location    "0.6";
    object      p_rgh;
}
// * * * * * * * * * * * * * * * * * * * * * * * * * * * * * * * * * * * * * //

dimensions      [1 -1 -2 0 0 0 0];


internalField   nonuniform List<scalar> 
3326
(
3.48773e+06
3.48773e+06
3.48772e+06
3.48767e+06
3.4876e+06
3.4875e+06
3.48736e+06
3.48719e+06
3.48694e+06
3.48753e+06
3.4876e+06
3.48765e+06
3.48768e+06
3.48769e+06
3.48767e+06
3.48763e+06
3.48756e+06
3.48746e+06
3.48732e+06
3.48716e+06
3.48691e+06
3.4999e+06
3.49773e+06
3.49583e+06
3.49409e+06
3.49257e+06
3.49125e+06
3.49013e+06
3.48918e+06
3.48838e+06
3.48773e+06
3.4872e+06
3.48677e+06
3.48645e+06
3.4862e+06
3.48603e+06
3.48591e+06
3.48585e+06
3.48583e+06
3.48584e+06
3.48589e+06
3.48596e+06
3.48606e+06
3.48616e+06
3.48629e+06
3.48641e+06
3.48655e+06
3.48668e+06
3.48682e+06
3.48695e+06
3.48708e+06
3.4872e+06
3.48731e+06
3.48741e+06
3.48749e+06
3.48756e+06
3.48761e+06
3.48764e+06
3.48765e+06
3.48763e+06
3.48759e+06
3.48752e+06
3.48742e+06
3.48728e+06
3.48712e+06
3.48687e+06
3.50459e+06
3.50127e+06
3.49866e+06
3.4963e+06
3.49433e+06
3.49264e+06
3.49123e+06
3.49005e+06
3.48907e+06
3.48827e+06
3.48763e+06
3.48711e+06
3.48671e+06
3.4864e+06
3.48618e+06
3.48603e+06
3.48593e+06
3.48589e+06
3.48588e+06
3.48591e+06
3.48597e+06
3.48605e+06
3.48615e+06
3.48627e+06
3.48639e+06
3.48652e+06
3.48665e+06
3.48679e+06
3.48692e+06
3.48704e+06
3.48716e+06
3.48727e+06
3.48737e+06
3.48745e+06
3.48752e+06
3.48757e+06
3.4876e+06
3.48761e+06
3.48759e+06
3.48755e+06
3.48748e+06
3.48739e+06
3.48725e+06
3.48709e+06
3.48685e+06
3.50959e+06
3.50504e+06
3.50164e+06
3.4986e+06
3.49614e+06
3.49405e+06
3.49234e+06
3.49091e+06
3.48975e+06
3.4888e+06
3.48804e+06
3.48743e+06
3.48696e+06
3.48659e+06
3.48632e+06
3.48613e+06
3.48601e+06
3.48594e+06
3.48592e+06
3.48593e+06
3.48598e+06
3.48605e+06
3.48614e+06
3.48625e+06
3.48637e+06
3.48649e+06
3.48662e+06
3.48675e+06
3.48688e+06
3.48701e+06
3.48712e+06
3.48723e+06
3.48733e+06
3.48741e+06
3.48748e+06
3.48753e+06
3.48756e+06
3.48757e+06
3.48756e+06
3.48752e+06
3.48745e+06
3.48735e+06
3.48722e+06
3.48706e+06
3.48682e+06
3.51472e+06
3.50894e+06
3.50468e+06
3.50094e+06
3.49796e+06
3.49546e+06
3.49343e+06
3.49176e+06
3.49041e+06
3.48931e+06
3.48843e+06
3.48774e+06
3.48719e+06
3.48677e+06
3.48645e+06
3.48623e+06
3.48607e+06
3.48598e+06
3.48594e+06
3.48594e+06
3.48598e+06
3.48604e+06
3.48613e+06
3.48623e+06
3.48634e+06
3.48646e+06
3.48659e+06
3.48672e+06
3.48685e+06
3.48697e+06
3.48709e+06
3.4872e+06
3.48729e+06
3.48738e+06
3.48744e+06
3.4875e+06
3.48753e+06
3.48754e+06
3.48752e+06
3.48749e+06
3.48742e+06
3.48733e+06
3.48719e+06
3.48704e+06
3.4868e+06
3.51987e+06
3.51291e+06
3.50771e+06
3.50327e+06
3.49974e+06
3.49683e+06
3.49448e+06
3.49257e+06
3.49103e+06
3.48979e+06
3.4888e+06
3.48801e+06
3.4874e+06
3.48692e+06
3.48657e+06
3.48631e+06
3.48613e+06
3.48602e+06
3.48596e+06
3.48595e+06
3.48598e+06
3.48603e+06
3.48611e+06
3.48621e+06
3.48632e+06
3.48644e+06
3.48656e+06
3.48669e+06
3.48681e+06
3.48694e+06
3.48705e+06
3.48716e+06
3.48726e+06
3.48734e+06
3.48741e+06
3.48746e+06
3.4875e+06
3.48751e+06
3.48749e+06
3.48746e+06
3.48739e+06
3.4873e+06
3.48717e+06
3.48702e+06
3.48678e+06
3.52496e+06
3.51688e+06
3.51064e+06
3.50551e+06
3.50142e+06
3.49811e+06
3.49545e+06
3.49331e+06
3.49159e+06
3.49021e+06
3.48912e+06
3.48825e+06
3.48757e+06
3.48705e+06
3.48666e+06
3.48637e+06
3.48617e+06
3.48604e+06
3.48597e+06
3.48595e+06
3.48597e+06
3.48602e+06
3.48609e+06
3.48618e+06
3.48629e+06
3.48641e+06
3.48653e+06
3.48666e+06
3.48678e+06
3.4869e+06
3.48702e+06
3.48713e+06
3.48723e+06
3.48731e+06
3.48738e+06
3.48743e+06
3.48747e+06
3.48748e+06
3.48747e+06
3.48743e+06
3.48737e+06
3.48728e+06
3.48715e+06
3.487e+06
3.48677e+06
3.52979e+06
3.5207e+06
3.51337e+06
3.50758e+06
3.50296e+06
3.49927e+06
3.49632e+06
3.49396e+06
3.49208e+06
3.49058e+06
3.48939e+06
3.48845e+06
3.48772e+06
3.48716e+06
3.48673e+06
3.48642e+06
3.4862e+06
3.48606e+06
3.48597e+06
3.48594e+06
3.48595e+06
3.486e+06
3.48607e+06
3.48616e+06
3.48626e+06
3.48638e+06
3.4865e+06
3.48663e+06
3.48675e+06
3.48687e+06
3.48699e+06
3.4871e+06
3.4872e+06
3.48728e+06
3.48735e+06
3.48741e+06
3.48744e+06
3.48745e+06
3.48744e+06
3.48741e+06
3.48734e+06
3.48726e+06
3.48713e+06
3.48698e+06
3.48676e+06
3.53405e+06
3.52407e+06
3.51575e+06
3.50938e+06
3.50428e+06
3.50025e+06
3.49704e+06
3.4945e+06
3.49247e+06
3.49086e+06
3.4896e+06
3.4886e+06
3.48782e+06
3.48723e+06
3.48678e+06
3.48645e+06
3.48621e+06
3.48606e+06
3.48597e+06
3.48593e+06
3.48593e+06
3.48597e+06
3.48604e+06
3.48613e+06
3.48623e+06
3.48635e+06
3.48647e+06
3.4866e+06
3.48672e+06
3.48685e+06
3.48696e+06
3.48707e+06
3.48717e+06
3.48726e+06
3.48733e+06
3.48738e+06
3.48741e+06
3.48743e+06
3.48742e+06
3.48739e+06
3.48732e+06
3.48724e+06
3.48711e+06
3.48697e+06
3.48675e+06
3.53762e+06
3.5268e+06
3.5177e+06
3.51083e+06
3.50533e+06
3.50102e+06
3.4976e+06
3.4949e+06
3.49276e+06
3.49107e+06
3.48974e+06
3.4887e+06
3.48789e+06
3.48726e+06
3.4868e+06
3.48645e+06
3.48621e+06
3.48604e+06
3.48595e+06
3.48591e+06
3.48591e+06
3.48595e+06
3.48601e+06
3.4861e+06
3.4862e+06
3.48632e+06
3.48644e+06
3.48657e+06
3.48669e+06
3.48682e+06
3.48694e+06
3.48705e+06
3.48715e+06
3.48723e+06
3.4873e+06
3.48736e+06
3.48739e+06
3.48741e+06
3.4874e+06
3.48737e+06
3.48731e+06
3.48722e+06
3.4871e+06
3.48696e+06
3.48675e+06
3.54058e+06
3.52874e+06
3.51913e+06
3.51184e+06
3.50604e+06
3.50152e+06
3.49795e+06
3.49514e+06
3.49292e+06
3.49117e+06
3.4898e+06
3.48873e+06
3.4879e+06
3.48726e+06
3.48678e+06
3.48643e+06
3.48618e+06
3.48602e+06
3.48592e+06
3.48588e+06
3.48588e+06
3.48592e+06
3.48598e+06
3.48607e+06
3.48617e+06
3.48629e+06
3.48641e+06
3.48654e+06
3.48667e+06
3.48679e+06
3.48691e+06
3.48702e+06
3.48712e+06
3.48721e+06
3.48728e+06
3.48734e+06
3.48737e+06
3.48739e+06
3.48738e+06
3.48735e+06
3.48729e+06
3.48721e+06
3.48709e+06
3.48695e+06
3.48674e+06
3.54267e+06
3.52981e+06
3.51997e+06
3.51235e+06
3.50639e+06
3.50173e+06
3.49808e+06
3.49521e+06
3.49295e+06
3.49118e+06
3.48979e+06
3.4887e+06
3.48787e+06
3.48722e+06
3.48674e+06
3.48639e+06
3.48614e+06
3.48597e+06
3.48588e+06
3.48584e+06
3.48584e+06
3.48588e+06
3.48595e+06
3.48603e+06
3.48614e+06
3.48626e+06
3.48638e+06
3.48651e+06
3.48664e+06
3.48677e+06
3.48689e+06
3.487e+06
3.4871e+06
3.48719e+06
3.48726e+06
3.48732e+06
3.48736e+06
3.48737e+06
3.48737e+06
3.48734e+06
3.48728e+06
3.4872e+06
3.48708e+06
3.48695e+06
3.48675e+06
3.54336e+06
3.52994e+06
3.52007e+06
3.51231e+06
3.50631e+06
3.50163e+06
3.49796e+06
3.49509e+06
3.49283e+06
3.49106e+06
3.48968e+06
3.48861e+06
3.48778e+06
3.48714e+06
3.48667e+06
3.48632e+06
3.48608e+06
3.48592e+06
3.48582e+06
3.48579e+06
3.48579e+06
3.48584e+06
3.48591e+06
3.486e+06
3.48611e+06
3.48623e+06
3.48635e+06
3.48648e+06
3.48662e+06
3.48674e+06
3.48687e+06
3.48698e+06
3.48708e+06
3.48717e+06
3.48725e+06
3.48731e+06
3.48734e+06
3.48736e+06
3.48735e+06
3.48733e+06
3.48727e+06
3.48719e+06
3.48708e+06
3.48695e+06
3.48675e+06
3.54256e+06
3.52917e+06
3.5194e+06
3.5117e+06
3.5058e+06
3.50118e+06
3.49759e+06
3.49477e+06
3.49257e+06
3.49084e+06
3.48949e+06
3.48845e+06
3.48764e+06
3.48702e+06
3.48656e+06
3.48623e+06
3.486e+06
3.48585e+06
3.48576e+06
3.48573e+06
3.48574e+06
3.48579e+06
3.48586e+06
3.48596e+06
3.48607e+06
3.48619e+06
3.48632e+06
3.48646e+06
3.48659e+06
3.48672e+06
3.48685e+06
3.48696e+06
3.48707e+06
3.48716e+06
3.48723e+06
3.48729e+06
3.48733e+06
3.48735e+06
3.48735e+06
3.48732e+06
3.48726e+06
3.48719e+06
3.48708e+06
3.48695e+06
3.48676e+06
3.54019e+06
3.52739e+06
3.51789e+06
3.51049e+06
3.50482e+06
3.5004e+06
3.49696e+06
3.49426e+06
3.49215e+06
3.4905e+06
3.48921e+06
3.48821e+06
3.48745e+06
3.48686e+06
3.48643e+06
3.48611e+06
3.4859e+06
3.48576e+06
3.48569e+06
3.48566e+06
3.48568e+06
3.48574e+06
3.48582e+06
3.48592e+06
3.48604e+06
3.48616e+06
3.4863e+06
3.48643e+06
3.48657e+06
3.4867e+06
3.48683e+06
3.48695e+06
3.48705e+06
3.48715e+06
3.48722e+06
3.48728e+06
3.48732e+06
3.48734e+06
3.48734e+06
3.48731e+06
3.48726e+06
3.48719e+06
3.48708e+06
3.48696e+06
3.48677e+06
3.53627e+06
3.52447e+06
3.51554e+06
3.50867e+06
3.50339e+06
3.49928e+06
3.49607e+06
3.49356e+06
3.49159e+06
3.49005e+06
3.48885e+06
3.48792e+06
3.4872e+06
3.48666e+06
3.48626e+06
3.48597e+06
3.48578e+06
3.48566e+06
3.4856e+06
3.48559e+06
3.48562e+06
3.48568e+06
3.48577e+06
3.48588e+06
3.486e+06
3.48613e+06
3.48627e+06
3.48641e+06
3.48655e+06
3.48668e+06
3.48681e+06
3.48693e+06
3.48704e+06
3.48714e+06
3.48721e+06
3.48728e+06
3.48732e+06
3.48734e+06
3.48733e+06
3.48731e+06
3.48726e+06
3.48719e+06
3.48708e+06
3.48696e+06
3.48678e+06
3.53084e+06
3.5204e+06
3.5124e+06
3.50628e+06
3.50154e+06
3.49785e+06
3.49495e+06
3.49268e+06
3.4909e+06
3.4895e+06
3.48841e+06
3.48756e+06
3.48692e+06
3.48643e+06
3.48607e+06
3.48581e+06
3.48565e+06
3.48555e+06
3.4855e+06
3.48551e+06
3.48555e+06
3.48562e+06
3.48572e+06
3.48583e+06
3.48596e+06
3.4861e+06
3.48624e+06
3.48638e+06
3.48653e+06
3.48667e+06
3.4868e+06
3.48692e+06
3.48703e+06
3.48713e+06
3.48721e+06
3.48727e+06
3.48731e+06
3.48733e+06
3.48733e+06
3.48731e+06
3.48726e+06
3.48719e+06
3.48709e+06
3.48697e+06
3.4868e+06
3.52401e+06
3.5153e+06
3.50857e+06
3.50338e+06
3.49932e+06
3.49614e+06
3.49363e+06
3.49165e+06
3.49009e+06
3.48886e+06
3.4879e+06
3.48715e+06
3.48658e+06
3.48616e+06
3.48585e+06
3.48563e+06
3.48549e+06
3.48542e+06
3.4854e+06
3.48542e+06
3.48548e+06
3.48556e+06
3.48566e+06
3.48579e+06
3.48592e+06
3.48606e+06
3.48621e+06
3.48636e+06
3.48651e+06
3.48665e+06
3.48679e+06
3.48691e+06
3.48702e+06
3.48712e+06
3.4872e+06
3.48727e+06
3.48731e+06
3.48733e+06
3.48733e+06
3.48731e+06
3.48726e+06
3.48719e+06
3.48709e+06
3.48698e+06
3.48682e+06
3.5161e+06
3.50942e+06
3.5042e+06
3.50008e+06
3.49681e+06
3.49421e+06
3.49214e+06
3.49049e+06
3.48917e+06
3.48814e+06
3.48732e+06
3.48669e+06
3.48622e+06
3.48586e+06
3.4856e+06
3.48543e+06
3.48533e+06
3.48528e+06
3.48529e+06
3.48533e+06
3.4854e+06
3.48549e+06
3.48561e+06
3.48574e+06
3.48588e+06
3.48603e+06
3.48618e+06
3.48634e+06
3.48649e+06
3.48664e+06
3.48677e+06
3.4869e+06
3.48702e+06
3.48712e+06
3.4872e+06
3.48727e+06
3.48731e+06
3.48734e+06
3.48734e+06
3.48731e+06
3.48727e+06
3.4872e+06
3.4871e+06
3.487e+06
3.48684e+06
3.50763e+06
3.50311e+06
3.49951e+06
3.49652e+06
3.49411e+06
3.49213e+06
3.49052e+06
3.48923e+06
3.48819e+06
3.48736e+06
3.4867e+06
3.4862e+06
3.48582e+06
3.48554e+06
3.48534e+06
3.48522e+06
3.48515e+06
3.48514e+06
3.48516e+06
3.48522e+06
3.48531e+06
3.48542e+06
3.48555e+06
3.48569e+06
3.48584e+06
3.486e+06
3.48616e+06
3.48632e+06
3.48647e+06
3.48662e+06
3.48677e+06
3.4869e+06
3.48702e+06
3.48712e+06
3.4872e+06
3.48727e+06
3.48732e+06
3.48734e+06
3.48734e+06
3.48732e+06
3.48727e+06
3.48721e+06
3.48711e+06
3.48701e+06
3.48686e+06
3.49919e+06
3.49676e+06
3.49473e+06
3.49288e+06
3.49131e+06
3.48996e+06
3.48884e+06
3.48791e+06
3.48714e+06
3.48653e+06
3.48605e+06
3.48567e+06
3.48539e+06
3.48519e+06
3.48506e+06
3.48499e+06
3.48497e+06
3.48498e+06
3.48504e+06
3.48512e+06
3.48522e+06
3.48535e+06
3.48549e+06
3.48564e+06
3.4858e+06
3.48597e+06
3.48613e+06
3.4863e+06
3.48646e+06
3.48661e+06
3.48676e+06
3.4869e+06
3.48702e+06
3.48712e+06
3.48721e+06
3.48728e+06
3.48732e+06
3.48735e+06
3.48735e+06
3.48733e+06
3.48728e+06
3.48722e+06
3.48713e+06
3.48703e+06
3.48689e+06
3.49128e+06
3.4907e+06
3.49009e+06
3.48929e+06
3.48852e+06
3.48778e+06
3.48713e+06
3.48656e+06
3.48607e+06
3.48568e+06
3.48536e+06
3.48512e+06
3.48495e+06
3.48484e+06
3.48477e+06
3.48475e+06
3.48477e+06
3.48482e+06
3.4849e+06
3.48501e+06
3.48513e+06
3.48527e+06
3.48543e+06
3.48559e+06
3.48576e+06
3.48593e+06
3.48611e+06
3.48628e+06
3.48645e+06
3.48661e+06
3.48676e+06
3.48689e+06
3.48702e+06
3.48713e+06
3.48722e+06
3.48729e+06
3.48733e+06
3.48736e+06
3.48736e+06
3.48734e+06
3.48729e+06
3.48723e+06
3.48714e+06
3.48705e+06
3.48691e+06
3.48419e+06
3.48515e+06
3.48574e+06
3.48587e+06
3.48583e+06
3.48565e+06
3.48544e+06
3.48521e+06
3.485e+06
3.48482e+06
3.48467e+06
3.48457e+06
3.4845e+06
3.48447e+06
3.48447e+06
3.48451e+06
3.48457e+06
3.48466e+06
3.48477e+06
3.4849e+06
3.48504e+06
3.4852e+06
3.48537e+06
3.48554e+06
3.48572e+06
3.4859e+06
3.48608e+06
3.48626e+06
3.48643e+06
3.4866e+06
3.48675e+06
3.4869e+06
3.48702e+06
3.48713e+06
3.48723e+06
3.4873e+06
3.48734e+06
3.48737e+06
3.48737e+06
3.48735e+06
3.48731e+06
3.48724e+06
3.48716e+06
3.48707e+06
3.48694e+06
3.47804e+06
3.48024e+06
3.48178e+06
3.4827e+06
3.48328e+06
3.48362e+06
3.4838e+06
3.4839e+06
3.48395e+06
3.48397e+06
3.48399e+06
3.48401e+06
3.48405e+06
3.4841e+06
3.48417e+06
3.48426e+06
3.48437e+06
3.48449e+06
3.48463e+06
3.48478e+06
3.48495e+06
3.48512e+06
3.4853e+06
3.48549e+06
3.48568e+06
3.48587e+06
3.48606e+06
3.48625e+06
3.48642e+06
3.4866e+06
3.48676e+06
3.4869e+06
3.48703e+06
3.48715e+06
3.48724e+06
3.48731e+06
3.48736e+06
3.48739e+06
3.48739e+06
3.48736e+06
3.48732e+06
3.48726e+06
3.48717e+06
3.48709e+06
3.48697e+06
3.47281e+06
3.47597e+06
3.47825e+06
3.47982e+06
3.48094e+06
3.48171e+06
3.48226e+06
3.48264e+06
3.48292e+06
3.48314e+06
3.48331e+06
3.48346e+06
3.48359e+06
3.48373e+06
3.48386e+06
3.48401e+06
3.48416e+06
3.48432e+06
3.48449e+06
3.48467e+06
3.48485e+06
3.48504e+06
3.48524e+06
3.48544e+06
3.48564e+06
3.48584e+06
3.48604e+06
3.48623e+06
3.48642e+06
3.48659e+06
3.48676e+06
3.48691e+06
3.48704e+06
3.48716e+06
3.48725e+06
3.48733e+06
3.48738e+06
3.4874e+06
3.4874e+06
3.48738e+06
3.48734e+06
3.48727e+06
3.48719e+06
3.48711e+06
3.487e+06
3.46841e+06
3.47231e+06
3.47515e+06
3.47725e+06
3.4788e+06
3.47995e+06
3.48081e+06
3.48146e+06
3.48195e+06
3.48234e+06
3.48265e+06
3.48292e+06
3.48315e+06
3.48336e+06
3.48356e+06
3.48376e+06
3.48395e+06
3.48415e+06
3.48435e+06
3.48455e+06
3.48475e+06
3.48496e+06
3.48518e+06
3.48539e+06
3.4856e+06
3.48581e+06
3.48602e+06
3.48622e+06
3.48641e+06
3.48659e+06
3.48676e+06
3.48692e+06
3.48706e+06
3.48718e+06
3.48727e+06
3.48735e+06
3.4874e+06
3.48742e+06
3.48742e+06
3.4874e+06
3.48736e+06
3.48729e+06
3.48721e+06
3.48713e+06
3.48703e+06
3.45869e+06
3.45992e+06
3.46474e+06
3.46919e+06
3.47246e+06
3.47499e+06
3.4769e+06
3.47836e+06
3.47948e+06
3.48035e+06
3.48103e+06
3.48158e+06
3.48203e+06
3.4824e+06
3.48272e+06
3.48301e+06
3.48327e+06
3.48351e+06
3.48375e+06
3.48398e+06
3.4842e+06
3.48443e+06
3.48466e+06
3.48489e+06
3.48511e+06
3.48534e+06
3.48556e+06
3.48578e+06
3.486e+06
3.48621e+06
3.48641e+06
3.4866e+06
3.48677e+06
3.48693e+06
3.48707e+06
3.4872e+06
3.48729e+06
3.48737e+06
3.48742e+06
3.48745e+06
3.48745e+06
3.48742e+06
3.48738e+06
3.48731e+06
3.48723e+06
3.48715e+06
3.48706e+06
3.45457e+06
3.45657e+06
3.46173e+06
3.46657e+06
3.47017e+06
3.47302e+06
3.47521e+06
3.47693e+06
3.47827e+06
3.47934e+06
3.48018e+06
3.48087e+06
3.48143e+06
3.4819e+06
3.4823e+06
3.48266e+06
3.48298e+06
3.48327e+06
3.48354e+06
3.48381e+06
3.48406e+06
3.48431e+06
3.48456e+06
3.48481e+06
3.48505e+06
3.48529e+06
3.48553e+06
3.48576e+06
3.48598e+06
3.4862e+06
3.48641e+06
3.4866e+06
3.48678e+06
3.48695e+06
3.48709e+06
3.48722e+06
3.48732e+06
3.4874e+06
3.48745e+06
3.48747e+06
3.48747e+06
3.48745e+06
3.4874e+06
3.48733e+06
3.48725e+06
3.48717e+06
3.48709e+06
3.4511e+06
3.45381e+06
3.45926e+06
3.46437e+06
3.46823e+06
3.47132e+06
3.47374e+06
3.47566e+06
3.47719e+06
3.47841e+06
3.4794e+06
3.4802e+06
3.48087e+06
3.48143e+06
3.48191e+06
3.48232e+06
3.48269e+06
3.48303e+06
3.48335e+06
3.48364e+06
3.48392e+06
3.4842e+06
3.48447e+06
3.48473e+06
3.48499e+06
3.48524e+06
3.48549e+06
3.48573e+06
3.48597e+06
3.4862e+06
3.48641e+06
3.48661e+06
3.4868e+06
3.48697e+06
3.48712e+06
3.48724e+06
3.48735e+06
3.48743e+06
3.48748e+06
3.4875e+06
3.4875e+06
3.48747e+06
3.48742e+06
3.48735e+06
3.48727e+06
3.48719e+06
3.48711e+06
3.44825e+06
3.45163e+06
3.4573e+06
3.46257e+06
3.46661e+06
3.46988e+06
3.47246e+06
3.47455e+06
3.47622e+06
3.47758e+06
3.47868e+06
3.47959e+06
3.48035e+06
3.48098e+06
3.48153e+06
3.482e+06
3.48242e+06
3.4828e+06
3.48315e+06
3.48348e+06
3.48379e+06
3.48408e+06
3.48437e+06
3.48465e+06
3.48493e+06
3.4852e+06
3.48546e+06
3.48571e+06
3.48596e+06
3.48619e+06
3.48641e+06
3.48662e+06
3.48682e+06
3.48699e+06
3.48714e+06
3.48727e+06
3.48738e+06
3.48746e+06
3.48751e+06
3.48754e+06
3.48753e+06
3.4875e+06
3.48745e+06
3.48738e+06
3.48729e+06
3.48721e+06
3.48714e+06
3.44583e+06
3.44986e+06
3.45571e+06
3.46107e+06
3.46524e+06
3.46864e+06
3.47135e+06
3.47356e+06
3.47535e+06
3.47682e+06
3.47802e+06
3.47902e+06
3.47986e+06
3.48056e+06
3.48117e+06
3.4817e+06
3.48216e+06
3.48258e+06
3.48296e+06
3.48332e+06
3.48365e+06
3.48397e+06
3.48428e+06
3.48458e+06
3.48487e+06
3.48515e+06
3.48542e+06
3.48569e+06
3.48595e+06
3.48619e+06
3.48642e+06
3.48664e+06
3.48684e+06
3.48702e+06
3.48717e+06
3.48731e+06
3.48741e+06
3.4875e+06
3.48755e+06
3.48757e+06
3.48757e+06
3.48753e+06
3.48747e+06
3.4874e+06
3.48731e+06
3.48723e+06
3.48716e+06
3.44395e+06
3.44854e+06
3.45449e+06
3.45986e+06
3.46411e+06
3.46758e+06
3.47038e+06
3.47269e+06
3.47457e+06
3.47613e+06
3.47742e+06
3.4785e+06
3.4794e+06
3.48017e+06
3.48083e+06
3.4814e+06
3.48191e+06
3.48236e+06
3.48277e+06
3.48316e+06
3.48352e+06
3.48386e+06
3.48419e+06
3.4845e+06
3.48481e+06
3.48511e+06
3.48539e+06
3.48567e+06
3.48594e+06
3.48619e+06
3.48643e+06
3.48665e+06
3.48686e+06
3.48704e+06
3.48721e+06
3.48734e+06
3.48745e+06
3.48754e+06
3.48759e+06
3.48761e+06
3.4876e+06
3.48756e+06
3.4875e+06
3.48742e+06
3.48733e+06
3.48725e+06
3.48718e+06
3.44219e+06
3.44727e+06
3.45336e+06
3.45874e+06
3.46307e+06
3.46661e+06
3.46951e+06
3.47189e+06
3.47387e+06
3.47551e+06
3.47687e+06
3.47802e+06
3.47898e+06
3.4798e+06
3.48051e+06
3.48112e+06
3.48166e+06
3.48215e+06
3.48259e+06
3.483e+06
3.48339e+06
3.48375e+06
3.4841e+06
3.48443e+06
3.48475e+06
3.48506e+06
3.48536e+06
3.48565e+06
3.48593e+06
3.4862e+06
3.48644e+06
3.48667e+06
3.48689e+06
3.48708e+06
3.48724e+06
3.48738e+06
3.4875e+06
3.48758e+06
3.48763e+06
3.48765e+06
3.48764e+06
3.4876e+06
3.48753e+06
3.48745e+06
3.48735e+06
3.48727e+06
3.4872e+06
3.44085e+06
3.44626e+06
3.45243e+06
3.45779e+06
3.46217e+06
3.46576e+06
3.46872e+06
3.47118e+06
3.47323e+06
3.47494e+06
3.47637e+06
3.47757e+06
3.47859e+06
3.47946e+06
3.4802e+06
3.48086e+06
3.48143e+06
3.48195e+06
3.48242e+06
3.48285e+06
3.48326e+06
3.48364e+06
3.48401e+06
3.48436e+06
3.4847e+06
3.48502e+06
3.48534e+06
3.48564e+06
3.48593e+06
3.4862e+06
3.48646e+06
3.4867e+06
3.48692e+06
3.48711e+06
3.48728e+06
3.48743e+06
3.48754e+06
3.48763e+06
3.48768e+06
3.4877e+06
3.48768e+06
3.48764e+06
3.48756e+06
3.48747e+06
3.48737e+06
3.48728e+06
3.48721e+06
3.43909e+06
3.44485e+06
3.4513e+06
3.45674e+06
3.46122e+06
3.46491e+06
3.46796e+06
3.47051e+06
3.47263e+06
3.47441e+06
3.47591e+06
3.47716e+06
3.47823e+06
3.47914e+06
3.47992e+06
3.48061e+06
3.48121e+06
3.48176e+06
3.48225e+06
3.48271e+06
3.48313e+06
3.48354e+06
3.48392e+06
3.48429e+06
3.48464e+06
3.48498e+06
3.48531e+06
3.48563e+06
3.48593e+06
3.48621e+06
3.48648e+06
3.48673e+06
3.48695e+06
3.48715e+06
3.48733e+06
3.48748e+06
3.48759e+06
3.48768e+06
3.48773e+06
3.48775e+06
3.48773e+06
3.48768e+06
3.4876e+06
3.4875e+06
3.48739e+06
3.48729e+06
3.48722e+06
3.43816e+06
3.44398e+06
3.45045e+06
3.45592e+06
3.46046e+06
3.46422e+06
3.46735e+06
3.46996e+06
3.47215e+06
3.47398e+06
3.47552e+06
3.47682e+06
3.47791e+06
3.47885e+06
3.47967e+06
3.48037e+06
3.481e+06
3.48157e+06
3.48209e+06
3.48256e+06
3.48301e+06
3.48343e+06
3.48383e+06
3.48422e+06
3.48459e+06
3.48494e+06
3.48529e+06
3.48562e+06
3.48593e+06
3.48622e+06
3.4865e+06
3.48676e+06
3.48699e+06
3.4872e+06
3.48738e+06
3.48753e+06
3.48765e+06
3.48774e+06
3.48779e+06
3.4878e+06
3.48778e+06
3.48773e+06
3.48764e+06
3.48753e+06
3.4874e+06
3.4873e+06
3.48722e+06
3.43797e+06
3.44368e+06
3.44981e+06
3.45515e+06
3.45972e+06
3.46356e+06
3.46678e+06
3.46947e+06
3.47172e+06
3.4736e+06
3.47517e+06
3.4765e+06
3.47763e+06
3.47859e+06
3.47942e+06
3.48015e+06
3.4808e+06
3.48139e+06
3.48193e+06
3.48242e+06
3.48289e+06
3.48333e+06
3.48375e+06
3.48415e+06
3.48454e+06
3.48491e+06
3.48527e+06
3.48561e+06
3.48593e+06
3.48624e+06
3.48653e+06
3.48679e+06
3.48703e+06
3.48725e+06
3.48743e+06
3.48759e+06
3.48771e+06
3.4878e+06
3.48784e+06
3.48786e+06
3.48783e+06
3.48777e+06
3.48767e+06
3.48755e+06
3.48742e+06
3.4873e+06
3.48722e+06
3.48773e+06
3.48773e+06
3.48772e+06
3.48767e+06
3.4876e+06
3.4875e+06
3.48736e+06
3.48719e+06
3.48694e+06
3.48753e+06
3.4876e+06
3.48765e+06
3.48768e+06
3.48769e+06
3.48767e+06
3.48763e+06
3.48756e+06
3.48746e+06
3.48732e+06
3.48716e+06
3.48691e+06
3.4999e+06
3.49773e+06
3.49583e+06
3.49409e+06
3.49257e+06
3.49125e+06
3.49013e+06
3.48918e+06
3.48838e+06
3.48773e+06
3.4872e+06
3.48677e+06
3.48645e+06
3.4862e+06
3.48603e+06
3.48591e+06
3.48585e+06
3.48583e+06
3.48584e+06
3.48589e+06
3.48596e+06
3.48606e+06
3.48616e+06
3.48629e+06
3.48641e+06
3.48655e+06
3.48668e+06
3.48682e+06
3.48695e+06
3.48708e+06
3.4872e+06
3.48731e+06
3.48741e+06
3.48749e+06
3.48756e+06
3.48761e+06
3.48764e+06
3.48765e+06
3.48763e+06
3.48759e+06
3.48752e+06
3.48742e+06
3.48728e+06
3.48712e+06
3.48687e+06
3.50459e+06
3.50127e+06
3.49866e+06
3.4963e+06
3.49433e+06
3.49264e+06
3.49123e+06
3.49005e+06
3.48907e+06
3.48827e+06
3.48763e+06
3.48711e+06
3.48671e+06
3.4864e+06
3.48618e+06
3.48603e+06
3.48593e+06
3.48589e+06
3.48588e+06
3.48591e+06
3.48597e+06
3.48605e+06
3.48615e+06
3.48627e+06
3.48639e+06
3.48652e+06
3.48665e+06
3.48679e+06
3.48692e+06
3.48704e+06
3.48716e+06
3.48727e+06
3.48737e+06
3.48745e+06
3.48752e+06
3.48757e+06
3.4876e+06
3.48761e+06
3.48759e+06
3.48755e+06
3.48748e+06
3.48739e+06
3.48725e+06
3.48709e+06
3.48685e+06
3.50959e+06
3.50504e+06
3.50164e+06
3.4986e+06
3.49614e+06
3.49405e+06
3.49234e+06
3.49091e+06
3.48975e+06
3.4888e+06
3.48804e+06
3.48743e+06
3.48696e+06
3.48659e+06
3.48632e+06
3.48613e+06
3.48601e+06
3.48594e+06
3.48592e+06
3.48593e+06
3.48598e+06
3.48605e+06
3.48614e+06
3.48625e+06
3.48637e+06
3.48649e+06
3.48662e+06
3.48675e+06
3.48688e+06
3.48701e+06
3.48712e+06
3.48723e+06
3.48733e+06
3.48741e+06
3.48748e+06
3.48753e+06
3.48756e+06
3.48757e+06
3.48756e+06
3.48752e+06
3.48745e+06
3.48735e+06
3.48722e+06
3.48706e+06
3.48682e+06
3.51472e+06
3.50894e+06
3.50468e+06
3.50094e+06
3.49796e+06
3.49546e+06
3.49343e+06
3.49176e+06
3.49041e+06
3.48931e+06
3.48843e+06
3.48774e+06
3.48719e+06
3.48677e+06
3.48645e+06
3.48623e+06
3.48607e+06
3.48598e+06
3.48594e+06
3.48594e+06
3.48598e+06
3.48604e+06
3.48613e+06
3.48623e+06
3.48634e+06
3.48646e+06
3.48659e+06
3.48672e+06
3.48685e+06
3.48697e+06
3.48709e+06
3.4872e+06
3.48729e+06
3.48738e+06
3.48744e+06
3.4875e+06
3.48753e+06
3.48754e+06
3.48752e+06
3.48749e+06
3.48742e+06
3.48733e+06
3.48719e+06
3.48704e+06
3.4868e+06
3.51987e+06
3.51291e+06
3.50771e+06
3.50327e+06
3.49974e+06
3.49683e+06
3.49448e+06
3.49257e+06
3.49103e+06
3.48979e+06
3.4888e+06
3.48801e+06
3.4874e+06
3.48692e+06
3.48657e+06
3.48631e+06
3.48613e+06
3.48602e+06
3.48596e+06
3.48595e+06
3.48598e+06
3.48603e+06
3.48611e+06
3.48621e+06
3.48632e+06
3.48644e+06
3.48656e+06
3.48669e+06
3.48681e+06
3.48694e+06
3.48705e+06
3.48716e+06
3.48726e+06
3.48734e+06
3.48741e+06
3.48746e+06
3.4875e+06
3.48751e+06
3.48749e+06
3.48746e+06
3.48739e+06
3.4873e+06
3.48717e+06
3.48702e+06
3.48678e+06
3.52496e+06
3.51688e+06
3.51064e+06
3.50551e+06
3.50142e+06
3.49811e+06
3.49545e+06
3.49331e+06
3.49159e+06
3.49021e+06
3.48912e+06
3.48825e+06
3.48757e+06
3.48705e+06
3.48666e+06
3.48637e+06
3.48617e+06
3.48604e+06
3.48597e+06
3.48595e+06
3.48597e+06
3.48602e+06
3.48609e+06
3.48618e+06
3.48629e+06
3.48641e+06
3.48653e+06
3.48666e+06
3.48678e+06
3.4869e+06
3.48702e+06
3.48713e+06
3.48723e+06
3.48731e+06
3.48738e+06
3.48743e+06
3.48747e+06
3.48748e+06
3.48747e+06
3.48743e+06
3.48737e+06
3.48728e+06
3.48715e+06
3.487e+06
3.48677e+06
3.52979e+06
3.5207e+06
3.51337e+06
3.50758e+06
3.50296e+06
3.49927e+06
3.49632e+06
3.49396e+06
3.49208e+06
3.49058e+06
3.48939e+06
3.48845e+06
3.48772e+06
3.48716e+06
3.48673e+06
3.48642e+06
3.4862e+06
3.48606e+06
3.48597e+06
3.48594e+06
3.48595e+06
3.486e+06
3.48607e+06
3.48616e+06
3.48626e+06
3.48638e+06
3.4865e+06
3.48663e+06
3.48675e+06
3.48687e+06
3.48699e+06
3.4871e+06
3.4872e+06
3.48728e+06
3.48735e+06
3.48741e+06
3.48744e+06
3.48745e+06
3.48744e+06
3.48741e+06
3.48734e+06
3.48726e+06
3.48713e+06
3.48698e+06
3.48676e+06
3.53405e+06
3.52407e+06
3.51575e+06
3.50938e+06
3.50428e+06
3.50025e+06
3.49704e+06
3.4945e+06
3.49247e+06
3.49086e+06
3.4896e+06
3.4886e+06
3.48782e+06
3.48723e+06
3.48678e+06
3.48645e+06
3.48621e+06
3.48606e+06
3.48597e+06
3.48593e+06
3.48593e+06
3.48597e+06
3.48604e+06
3.48613e+06
3.48623e+06
3.48635e+06
3.48647e+06
3.4866e+06
3.48672e+06
3.48685e+06
3.48696e+06
3.48707e+06
3.48717e+06
3.48726e+06
3.48733e+06
3.48738e+06
3.48741e+06
3.48743e+06
3.48742e+06
3.48739e+06
3.48732e+06
3.48724e+06
3.48711e+06
3.48697e+06
3.48675e+06
3.53762e+06
3.5268e+06
3.5177e+06
3.51083e+06
3.50533e+06
3.50102e+06
3.4976e+06
3.4949e+06
3.49276e+06
3.49107e+06
3.48974e+06
3.4887e+06
3.48789e+06
3.48726e+06
3.4868e+06
3.48645e+06
3.48621e+06
3.48604e+06
3.48595e+06
3.48591e+06
3.48591e+06
3.48595e+06
3.48601e+06
3.4861e+06
3.4862e+06
3.48632e+06
3.48644e+06
3.48657e+06
3.48669e+06
3.48682e+06
3.48694e+06
3.48705e+06
3.48715e+06
3.48723e+06
3.4873e+06
3.48736e+06
3.48739e+06
3.48741e+06
3.4874e+06
3.48737e+06
3.48731e+06
3.48722e+06
3.4871e+06
3.48696e+06
3.48675e+06
3.54058e+06
3.52874e+06
3.51913e+06
3.51184e+06
3.50604e+06
3.50152e+06
3.49795e+06
3.49514e+06
3.49292e+06
3.49117e+06
3.4898e+06
3.48873e+06
3.4879e+06
3.48726e+06
3.48678e+06
3.48643e+06
3.48618e+06
3.48602e+06
3.48592e+06
3.48588e+06
3.48588e+06
3.48592e+06
3.48598e+06
3.48607e+06
3.48617e+06
3.48629e+06
3.48641e+06
3.48654e+06
3.48667e+06
3.48679e+06
3.48691e+06
3.48702e+06
3.48712e+06
3.48721e+06
3.48728e+06
3.48734e+06
3.48737e+06
3.48739e+06
3.48738e+06
3.48735e+06
3.48729e+06
3.48721e+06
3.48709e+06
3.48695e+06
3.48674e+06
3.54267e+06
3.52981e+06
3.51997e+06
3.51235e+06
3.50639e+06
3.50173e+06
3.49808e+06
3.49521e+06
3.49295e+06
3.49118e+06
3.48979e+06
3.4887e+06
3.48787e+06
3.48722e+06
3.48674e+06
3.48639e+06
3.48614e+06
3.48597e+06
3.48588e+06
3.48584e+06
3.48584e+06
3.48588e+06
3.48595e+06
3.48603e+06
3.48614e+06
3.48626e+06
3.48638e+06
3.48651e+06
3.48664e+06
3.48677e+06
3.48689e+06
3.487e+06
3.4871e+06
3.48719e+06
3.48726e+06
3.48732e+06
3.48736e+06
3.48737e+06
3.48737e+06
3.48734e+06
3.48728e+06
3.4872e+06
3.48708e+06
3.48695e+06
3.48675e+06
3.54336e+06
3.52994e+06
3.52007e+06
3.51231e+06
3.50631e+06
3.50163e+06
3.49796e+06
3.49509e+06
3.49283e+06
3.49106e+06
3.48968e+06
3.48861e+06
3.48778e+06
3.48714e+06
3.48667e+06
3.48632e+06
3.48608e+06
3.48592e+06
3.48582e+06
3.48579e+06
3.48579e+06
3.48584e+06
3.48591e+06
3.486e+06
3.48611e+06
3.48623e+06
3.48635e+06
3.48648e+06
3.48662e+06
3.48674e+06
3.48687e+06
3.48698e+06
3.48708e+06
3.48717e+06
3.48725e+06
3.48731e+06
3.48734e+06
3.48736e+06
3.48735e+06
3.48733e+06
3.48727e+06
3.48719e+06
3.48708e+06
3.48695e+06
3.48675e+06
3.54256e+06
3.52917e+06
3.5194e+06
3.5117e+06
3.5058e+06
3.50118e+06
3.49759e+06
3.49477e+06
3.49257e+06
3.49084e+06
3.48949e+06
3.48845e+06
3.48764e+06
3.48702e+06
3.48656e+06
3.48623e+06
3.486e+06
3.48585e+06
3.48576e+06
3.48573e+06
3.48574e+06
3.48579e+06
3.48586e+06
3.48596e+06
3.48607e+06
3.48619e+06
3.48632e+06
3.48646e+06
3.48659e+06
3.48672e+06
3.48685e+06
3.48696e+06
3.48707e+06
3.48716e+06
3.48723e+06
3.48729e+06
3.48733e+06
3.48735e+06
3.48735e+06
3.48732e+06
3.48726e+06
3.48719e+06
3.48708e+06
3.48695e+06
3.48676e+06
3.54019e+06
3.52739e+06
3.51789e+06
3.51049e+06
3.50482e+06
3.5004e+06
3.49696e+06
3.49426e+06
3.49215e+06
3.4905e+06
3.48921e+06
3.48821e+06
3.48745e+06
3.48686e+06
3.48643e+06
3.48611e+06
3.4859e+06
3.48576e+06
3.48569e+06
3.48566e+06
3.48568e+06
3.48574e+06
3.48582e+06
3.48592e+06
3.48604e+06
3.48616e+06
3.4863e+06
3.48643e+06
3.48657e+06
3.4867e+06
3.48683e+06
3.48695e+06
3.48705e+06
3.48715e+06
3.48722e+06
3.48728e+06
3.48732e+06
3.48734e+06
3.48734e+06
3.48731e+06
3.48726e+06
3.48719e+06
3.48708e+06
3.48696e+06
3.48677e+06
3.53627e+06
3.52447e+06
3.51554e+06
3.50867e+06
3.50339e+06
3.49928e+06
3.49607e+06
3.49356e+06
3.49159e+06
3.49005e+06
3.48885e+06
3.48792e+06
3.4872e+06
3.48666e+06
3.48626e+06
3.48597e+06
3.48578e+06
3.48566e+06
3.4856e+06
3.48559e+06
3.48562e+06
3.48568e+06
3.48577e+06
3.48588e+06
3.486e+06
3.48613e+06
3.48627e+06
3.48641e+06
3.48655e+06
3.48668e+06
3.48681e+06
3.48693e+06
3.48704e+06
3.48714e+06
3.48721e+06
3.48728e+06
3.48732e+06
3.48734e+06
3.48733e+06
3.48731e+06
3.48726e+06
3.48719e+06
3.48708e+06
3.48696e+06
3.48678e+06
3.53084e+06
3.5204e+06
3.5124e+06
3.50628e+06
3.50154e+06
3.49785e+06
3.49495e+06
3.49268e+06
3.4909e+06
3.4895e+06
3.48841e+06
3.48756e+06
3.48692e+06
3.48643e+06
3.48607e+06
3.48581e+06
3.48565e+06
3.48555e+06
3.4855e+06
3.48551e+06
3.48555e+06
3.48562e+06
3.48572e+06
3.48583e+06
3.48596e+06
3.4861e+06
3.48624e+06
3.48638e+06
3.48653e+06
3.48667e+06
3.4868e+06
3.48692e+06
3.48703e+06
3.48713e+06
3.48721e+06
3.48727e+06
3.48731e+06
3.48733e+06
3.48733e+06
3.48731e+06
3.48726e+06
3.48719e+06
3.48709e+06
3.48697e+06
3.4868e+06
3.52401e+06
3.5153e+06
3.50857e+06
3.50338e+06
3.49932e+06
3.49614e+06
3.49363e+06
3.49165e+06
3.49009e+06
3.48886e+06
3.4879e+06
3.48715e+06
3.48658e+06
3.48616e+06
3.48585e+06
3.48563e+06
3.48549e+06
3.48542e+06
3.4854e+06
3.48542e+06
3.48548e+06
3.48556e+06
3.48566e+06
3.48579e+06
3.48592e+06
3.48606e+06
3.48621e+06
3.48636e+06
3.48651e+06
3.48665e+06
3.48679e+06
3.48691e+06
3.48702e+06
3.48712e+06
3.4872e+06
3.48727e+06
3.48731e+06
3.48733e+06
3.48733e+06
3.48731e+06
3.48726e+06
3.48719e+06
3.48709e+06
3.48698e+06
3.48682e+06
3.5161e+06