/*--------------------------------*- C++ -*----------------------------------*\
| =========                 |                                                 |
| \\      /  F ield         | OpenFOAM: The Open Source CFD Toolbox           |
|  \\    /   O peration     | Version:  v2012                                 |
|   \\  /    A nd           | Website:  www.openfoam.com                      |
|    \\/     M anipulation  |                                                 |
\*---------------------------------------------------------------------------*/
FoamFile
{
    version     2.0;
    format      ascii;
    class       volScalarField;
    location    "0.05";
    object      alpha.water;
}
// * * * * * * * * * * * * * * * * * * * * * * * * * * * * * * * * * * * * * //

dimensions      [0 0 0 0 0 0 0];


internalField   nonuniform List<scalar> 
3332
(
0.000103387
0.00052923
0.00115441
0.00191367
0.0108086
0.127881
0.467047
0.793938
0.937026
0.967387
0.958596
0.919506
0.853185
0.758979
0.637841
0.499732
0.360145
0.235336
0.13724
0.070164
1.88141e-06
5.46662e-06
9.3091e-05
0.000480844
0.00106163
0.00171546
0.00629958
0.083764
0.372582
0.719266
0.906671
0.957169
0.960199
0.944182
0.872767
0.791107
0.67811
0.543878
0.402257
0.270216
0.162168
0.085387
-1.13132e-113
-1.24688e-70
-1.7847e-60
-1.89344e-43
1.74678e-24
0.41944
0.942749
0.997805
0.999938
0.998164
0.851125
0.426722
0.0437577
0.000168731
2.11242e-06
1.76733e-06
4.9161e-06
8.21589e-05
0.000430988
0.000969709
0.00154456
0.00383604
0.050862
0.280218
0.626686
0.860236
0.946139
0.960198
0.947113
0.89094
0.818934
0.715311
0.586563
0.444637
0.306627
0.189101
0.102387
-1.56554e-112
-9.00549e-70
-5.50675e-56
-6.06036e-42
-7.28402e-35
0.553287
0.949091
0.998756
0.999964
0.99755
0.983699
0.959016
0.806376
0.343723
0.0283795
0.000139456
2.00017e-06
1.65883e-06
4.33096e-06
7.10631e-05
0.000380774
0.000877794
0.00138817
0.00259221
0.0286006
0.197176
0.521177
0.790805
0.917184
0.951137
0.950661
0.904572
0.841482
0.746902
0.624932
0.484551
0.342313
0.216451
0.120227
-1.87969e-111
-5.75697e-69
-9.92381e-52
-4.10524e-36
-1.5334e-27
0.646785
0.94951
0.999636
0.999978
0.996722
0.980342
0.950578
0.754193
0.271906
0.019524
0.000149284
1.86013e-06
1.55323e-06
3.74408e-06
6.02264e-05
0.000331319
0.000785634
0.00124339
0.00197509
0.0150263
0.12861
0.410369
0.701062
0.868561
0.930036
0.941825
0.910705
0.857943
0.773402
0.657854
0.519889
0.375021
0.242375
0.137686
0.0673829
-1.93774e-110
-3.22386e-68
-1.04848e-49
-4.36105e-30
0.00483612
0.696129
0.966287
0.999925
0.999983
0.995649
0.976481
0.939992
0.696344
0.21307
0.0143966
0.000153287
1.76034e-06
1.45269e-06
3.18252e-06
4.99673e-05
0.000283716
0.0006943
0.00110915
0.00163486
0.0076145
0.0771496
0.302943
0.594092
0.798537
0.893735
0.921068
0.915258
0.85709
0.786098
0.681981
0.550115
0.404718
0.266765
0.154576
0.0771931
-1.70824e-109
-1.56287e-67
-6.81646e-52
-8.26086e-43
0.0306597
0.717101
0.984278
0.999939
0.999985
0.994344
0.972146
0.926831
0.635387
0.167133
0.0112136
0.000157536
1.6611e-06
1.35718e-06
2.66744e-06
4.05353e-05
0.000238903
0.000605513
0.000983878
0.0014022
0.00398062
0.0423241
0.207688
0.47724
0.705989
0.834835
0.887461
0.898763
0.850137
0.783034
0.682551
0.557068
0.417071
0.28043
0.165919
0.0845834
0.0363468
-1.25037e-108
-6.34458e-67
-5.1682e-48
-2.04518e-53
0.0714808
0.724911
0.99029
0.999961
0.999988
0.9928
0.967366
0.910762
0.574189
0.132537
0.00900267
0.000159067
1.56758e-06
1.26635e-06
2.21355e-06
3.2104e-05
0.000197592
0.000520669
0.000865808
0.00121232
0.00234635
0.0212506
0.130703
0.360059
0.597556
0.753933
0.831029
0.856464
0.840037
0.770627
0.675932
0.553088
0.414963
0.279786
0.166125
0.0851896
0.0369019
-3.64249e-108
-2.05318e-66
-6.14455e-48
-1.07002e-63
0.123654
0.738074
0.992838
0.999984
0.999991
0.990995
0.962114
0.891557
0.515123
0.106997
0.00732289
0.000158815
1.48088e-06
1.17991e-06
1.82883e-06
2.47778e-05
0.000160286
0.000440855
0.000753696
0.00104718
0.00162242
0.00995925
0.0746779
0.251564
0.479275
0.656083
0.756053
0.799414
0.809105
0.743065
0.657728
0.540289
0.406508
0.274809
0.163637
0.0840703
0.0364639
-1.5976e-107
-4.89179e-66
7.93225e-48
-1.72339e-73
0.194367
0.818375
0.996002
0.999991
0.999994
0.98888
0.956313
0.869124
0.460017
0.0879777
0.00603501
0.000156157
1.40042e-06
1.09757e-06
1.51468e-06
1.85973e-05
0.00012729
0.000367079
0.000647641
0.000901693
0.00125872
0.00460436
0.038512
0.16053
0.358828
0.543925
0.663182
0.721802
0.73991
0.697055
0.622121
0.513976
0.388116
0.262954
0.156837
0.0807107
0.0350591
-1.08296e-107
-6.61136e-66
-5.58331e-44
-1.06615e-28
0.302246
0.905353
0.998499
0.999994
0.999997
0.986397
0.949855
0.843532
0.409917
0.0734667
0.00504703
0.00014981
1.32642e-06
1.01907e-06
1.26677e-06
1.35477e-05
9.87386e-05
0.000300162
0.000548738
0.000772254
0.00102686
0.00231379
0.0179811
0.0925038
0.247026
0.423084
0.554356
0.625678
0.650915
0.630223
0.565863
0.470625
0.356808
0.242261
0.144619
0.0744377
0.0323283
-2.1353e-107
8.16751e-81
-9.66732e-47
3.41168e-27
0.441971
0.941918
0.999465
0.999997
0.999998
0.983483
0.942603
0.814988
0.36529
0.0619778
0.00427336
0.000139574
1.25908e-06
9.4416e-07
1.07645e-06
9.56512e-06
7.46114e-05
0.000240613
0.000457874
0.000655856
0.000849706
0.00137767
0.00776226
0.0477205
0.154401
0.304911
0.437658
0.518752
0.550227
0.551904
0.493024
0.411707
0.312726
0.212408
0.126672
0.0650576
0.0281616
-6.66694e-107
1.28279e-78
-7.05801e-42
-7.3734e-49
0.563198
0.957405
0.99984
0.999999
0.999998
0.980059
0.934392
0.783818
0.325788
0.0528242
0.0036587
0.000127624
1.19864e-06
8.727e-07
9.3254e-07
6.54471e-06
5.47537e-05
0.000188658
0.000375603
0.000550676
0.000704905
0.000964808
0.00328841
0.0219401
0.0865055
0.200829
0.322783
0.410156
0.453526
0.465
0.411864
0.344587
0.260824
0.176399
0.104631
0.0533748
0.0229085
-6.06351e-105
1.20578e-83
-1.63995e-44
-2.79485e-23
0.637271
0.971793
0.999929
0.999993
0.999998
0.976081
0.925058
0.750404
0.29116
0.0454325
0.00316381
0.00011577
1.14542e-06
8.046e-07
8.23258e-07
4.35101e-06
3.88893e-05
0.000144288
0.000302344
0.000456168
0.00058362
0.00073874
0.00152914
0.00905827
0.0428914
0.118941
0.219151
0.305011
0.354184
0.369551
0.330883
0.277312
0.208106
0.139374
0.0817314
0.041148
0.017388
-2.50361e-103
6.75603e-80
-1.13297e-37
-7.44928e-32
0.673896
0.985366
0.999935
0.999992
0.999998
0.971566
0.914479
0.715502
0.260976
0.0394125
0.00276135
0.00010484
1.09986e-06
7.39818e-07
7.37905e-07
2.83139e-06
2.66395e-05
0.000107291
0.000238279
0.000372216
0.000480284
0.000584342
0.000863986
0.00349558
0.0186779
0.062074
0.132924
0.20588
0.254871
0.273559
0.256821
0.214248
0.159571
0.105568
0.0609305
0.0301049
0.0124424
-6.59636e-102
-3.71533e-69
-2.17729e-37
0.000416607
0.69334
0.991947
0.99996
0.999994
0.999998
0.966522
0.902527
0.679926
0.234738
0.0344763
0.00243162
9.51101e-05
1.06255e-06
6.78571e-07
6.67713e-07
1.8305e-06
1.75422e-05
7.72777e-05
0.000183316
0.000298524
0.000391433
0.000466775
0.000584563
0.00139136
0.00717476
0.0281962
0.0710542
0.125021
0.168474
0.189484
0.193547
0.15677
0.117353
0.076845
0.0436448
0.0211183
0.00850703
-1.57923e-100
-1.63437e-66
1.55145e-39
0.0157352
0.720188
0.994832
0.999984
0.999996
0.999998
0.960886
0.889017
0.644494
0.211697
0.0304027
0.00215993
8.6619e-05
1.03384e-06
6.21319e-07
6.06424e-07
1.20413e-06
1.10773e-05
5.3697e-05
0.000137175
0.000234707
0.000315131
0.000373386
0.000434283
0.000661338
0.00252037
0.0110972
0.0330289
0.0674118
0.10212
0.124149
0.130755
0.10775
0.0820442
0.053438
0.0300004
0.014248
0.0055982
-6.24312e-99
1.52885e-70
-4.43058e-62
0.0842573
0.805118
0.997543
0.999989
0.999994
0.999998
0.954561
0.873741
0.609421
0.191526
0.0270193
0.00193495
7.93121e-05
1.01478e-06
5.67666e-07
5.50833e-07
8.29962e-07
6.70356e-06
3.58491e-05
9.94251e-05
0.000180287
0.000250022
0.000297458
0.000333531
0.000399316
0.000895518
0.00379506
0.0130665
0.0311232
0.053334
0.0706098
0.0777584
0.069883
0.0535716
0.0350695
0.0196074
0.0091923
0.00353823
-1.07723e-97
1.53086e-70
-1.66959e-75
0.213991
0.910101
0.999199
0.999995
0.999996
0.999998
0.947497
0.856551
0.575081
0.173848
0.0241928
0.00174794
7.3091e-05
1.00461e-06
5.1774e-07
4.98984e-07
6.13329e-07
3.89953e-06
2.29074e-05
6.94899e-05
0.000134708
0.00019484
0.000235074
0.00025888
0.000281388
0.000386145
0.00118328
0.00431084
0.0119053
0.0235301
0.034849
0.0414743
0.0430414
0.0317541
0.0213938
0.0120044
0.00559999
0.00212609
-2.35264e-96
-1.34723e-78
-1.62029e-91
0.361013
0.961596
0.999573
0.999995
0.999996
0.999997
0.939703
0.837403
0.541861
0.158363
0.0218207
0.00159206
6.78445e-05
1.00169e-06
4.72272e-07
4.49698e-07
4.87543e-07
2.20261e-06
1.3964e-05
4.66259e-05
9.74164e-05
0.000148459
0.000183718
0.000201376
0.000209917
0.000222402
0.000398263
0.00124452
0.00379168
0.00876774
0.0150097
0.0197539
0.0214441
0.017027
0.0118711
0.0067499
0.00316338
0.00119462
-1.12519e-95
-6.41666e-64
-1.04116e-31
0.481434
0.976671
0.99972
0.999995
0.999996
0.999996
0.931156
0.81625
0.510071
0.144795
0.0198212
0.00146187
6.34609e-05
1.01812e-06
4.31602e-07
4.03303e-07
4.09928e-07
1.23561e-06
8.10186e-06
2.99085e-05
6.78429e-05
0.000109951
0.000141291
0.000156211
0.000159498
0.000154242
0.000178503
0.000360165
0.00101548
0.00259034
0.00505524
0.00746961
0.00867247
0.00818926
0.00577852
0.00339337
0.00161539
0.000612731
-1.38953e-98
-1.70215e-59
-4.82596e-74
0.560434
0.979093
0.999836
0.999995
0.999996
0.999996
0.921739
0.793171
0.479708
0.132866
0.0181269
0.0013529
5.98313e-05
1.04699e-06
3.96002e-07
3.59986e-07
3.55935e-07
7.16178e-07
4.47374e-06
1.8267e-05
4.52892e-05
7.86869e-05
0.000106128
0.000120327
0.000123503
0.000113012
0.000107416
0.000131657
0.000250453
0.000605861
0.00129772
0.00221386
0.00294924
0.00321092
0.00234622
0.00146435
0.000717454
0.000276627
3.9834e-96
-3.18662e-57
-5.38251e-63
0.609735
0.980014
0.999901
0.999996
0.999995
0.999996
0.911312
0.768236
0.450642
0.122319
0.0166822
0.00126152
5.68582e-05
1.08678e-06
3.65388e-07
3.20757e-07
3.12587e-07
4.50515e-07
2.36318e-06
1.05826e-05
2.88417e-05
5.41704e-05
7.74804e-05
9.13189e-05
9.54972e-05
8.64364e-05
7.3575e-05
6.98969e-05
7.99424e-05
0.000135571
0.000272271
0.000503499
0.00074371
0.000867098
0.00075915
0.000505164
0.000260414
0.000103664
1.7909e-93
-8.67254e-49
-7.40051e-54
0.64727
0.98475
0.999928
0.999996
0.999995
0.999996
0.899796
0.741561
0.422799
0.112937
0.015442
0.00118472
5.44585e-05
1.14491e-06
3.39634e-07
2.85869e-07
2.74561e-07
3.17135e-07
1.21331e-06
5.80238e-06
1.7433e-05
3.56552e-05
5.45794e-05
6.74173e-05
7.21568e-05
6.897e-05
5.35739e-05
4.47715e-05
4.03438e-05
3.9598e-05
5.38596e-05
8.57017e-05
0.000127588
0.000162221
0.000175959
0.000124982
6.99126e-05
2.93015e-05
7.73343e-91
-1.78636e-48
3.49356e-24
0.683508
0.989593
0.999953
0.999996
0.999997
0.999996
0.887192
0.713339
0.396212
0.104548
0.0143708
0.00112011
5.25642e-05
1.22103e-06
3.18299e-07
2.56264e-07
2.39619e-07
2.46996e-07
6.2676e-07
3.01307e-06
9.95681e-06
2.22867e-05
3.6833e-05
4.81863e-05
5.3222e-05
5.36914e-05
4.1822e-05
3.19097e-05
2.45227e-05
1.91976e-05
1.66217e-05
1.62134e-05
1.82121e-05
2.17671e-05
2.41814e-05
1.96306e-05
1.20472e-05
5.41621e-06
1.94348e-88
-4.13274e-52
-1.04325e-36
0.722387
0.992323
0.999978
0.999997
0.999997
0.999997
0.873518
0.683846
0.370904
0.09701
0.0134395
0.0010657
5.11287e-05
1.32103e-06
3.00677e-07
2.31779e-07
2.07924e-07
2.04618e-07
3.44963e-07
1.49143e-06
5.35969e-06
1.31558e-05
2.36164e-05
3.30858e-05
3.84577e-05
3.9801e-05
3.31291e-05
2.40425e-05
1.75466e-05
1.21238e-05
8.26535e-06
5.63746e-06
3.95141e-06
2.94986e-06
2.34971e-06
1.83818e-06
1.17327e-06
5.58039e-07
7.87891e-86
-2.07977e-49
1.2354e-06
0.770888
0.994958
0.999992
0.999999
0.999999
0.999999
0.858796
0.653371
0.346883
0.0902059
0.0126249
0.00101989
5.01216e-05
1.44804e-06
2.85899e-07
2.11859e-07
1.80711e-07
1.7328e-07
2.14717e-07
7.16678e-07
2.71729e-06
7.3047e-06
1.43185e-05
2.16288e-05
2.6603e-05
2.84034e-05
2.60939e-05
1.84631e-05
1.30826e-05
8.58488e-06
5.31964e-06
3.13e-06
1.72084e-06
8.73927e-07
4.12048e-07
1.88334e-07
8.40052e-08
3.36054e-08
3.10128e-83
-6.18733e-58
0.0146738
0.83676
0.997827
0.999995
0.999999
0.999999
0.999999
0.843103
0.622249
0.324175
0.0840441
0.0119087
0.000981389
4.9518e-05
1.59042e-06
2.73007e-07
1.95507e-07
1.58873e-07
1.46579e-07
1.53369e-07
3.48358e-07
1.30293e-06
3.7976e-06
8.13937e-06
1.33678e-05
1.75691e-05
1.94447e-05
1.95864e-05
1.4326e-05
9.9491e-06
6.4219e-06
3.77827e-06
2.07706e-06
1.04604e-06
4.71805e-07
1.84493e-07
6.10555e-08
1.70971e-08
4.00656e-09
1.18162e-80
-2.56278e-93
0.127332
0.909708
0.99927
0.999995
0.999999
0.999999
0.999996
0.826825
0.590973
0.302857
0.0784653
0.0112775
0.000949197
4.92434e-05
1.71923e-06
2.61152e-07
1.81583e-07
1.42207e-07
1.23274e-07
1.20578e-07
1.83343e-07
5.99266e-07
1.85071e-06
4.31233e-06
7.71608e-06
1.09801e-05
1.29586e-05
1.34899e-05
1.10415e-05
7.56456e-06
4.91848e-06
2.82999e-06
1.49446e-06
7.16714e-07
3.08001e-07
1.15138e-07
3.60351e-08
9.19545e-09
1.86114e-09
4.32821e-78
-9.76688e-117
0.328594
0.963042
0.999598
0.999993
0.999999
0.999999
0.999459
0.81094
0.560021
0.28308
0.0734414
0.0107225
0.000922617
4.91654e-05
1.83088e-06
2.49714e-07
1.6888e-07
1.29785e-07
1.04355e-07
9.83167e-08
1.11744e-07
2.7268e-07
8.5001e-07
2.13163e-06
4.14835e-06
6.3995e-06
8.09282e-06
8.78881e-06
8.17604e-06
5.67914e-06
3.7534e-06
2.17562e-06
1.12704e-06
5.2475e-07
2.17678e-07
7.90559e-08
2.44105e-08
6.18576e-09
1.24074e-09
1.52465e-75
-3.87286e-138
0.497494
0.986486
0.999667
0.999994
0.999999
0.999999
0.999098
0.796267
0.529881
0.264956
0.0689513
0.0102375
0.00090121
4.92948e-05
1.93358e-06
2.38562e-07
1.56465e-07
1.20123e-07
9.06342e-08
7.99824e-08
7.93061e-08
1.30762e-07
3.72571e-07
9.82184e-07
2.06864e-06
3.46637e-06
4.71776e-06
5.4049e-06
5.5477e-06
4.17418e-06
2.78897e-06
1.67237e-06
8.6775e-07
4.00612e-07
1.62628e-07
5.75642e-08
1.74199e-08
4.3771e-09
8.79828e-10
5.20408e-73
-1.64827e-130
0.599517
0.993054
0.999707
0.999995
0.999999
0.999999
0.998842
0.783444
0.500954
0.24841
0.0649479
0.00981492
0.000884547
4.98515e-05
2.03521e-06
2.27978e-07
1.43987e-07
1.11677e-07
8.11361e-08
6.52804e-08
6.14296e-08
7.19748e-08
1.61315e-07
4.25055e-07
9.54332e-07
1.73441e-06
2.56153e-06
3.14444e-06
3.36046e-06
2.95547e-06
1.98764e-06
1.25135e-06
6.65014e-07
3.10666e-07
1.25828e-07
4.40148e-08
1.30927e-08
3.23863e-09
6.44886e-10
1.72931e-70
-1.68659e-120
0.654967
0.993838
0.99975
0.999998
0.999999
1
0.998693
0.773091
0.473271
0.233227
0.061363
0.00944623
0.00087202
5.06104e-05
2.14046e-06
2.18436e-07
1.3144e-07
1.03198e-07
7.43112e-08
5.53545e-08
4.80644e-08
4.72789e-08
7.38139e-08
1.76489e-07
4.09881e-07
7.9806e-07
1.27707e-06
1.68568e-06
1.88743e-06
1.9125e-06
1.34956e-06
8.87983e-07
4.95513e-07
2.38048e-07
9.81168e-08
3.45589e-08
1.02639e-08
2.52249e-09
4.98546e-10
5.59531e-68
3.97172e-37
0.685419
0.991185
0.999807
0.999998
0.999999
1
0.998599
0.765548
0.446804
0.219114
0.0581153
0.00912176
0.000863
5.156e-05
2.25298e-06
2.10419e-07
1.19096e-07
9.4335e-08
6.86544e-08
4.88845e-08
3.8034e-08
3.49001e-08
3.91322e-08
7.33163e-08
1.66451e-07
3.38675e-07
5.82409e-07
8.33419e-07
1.00212e-06
1.05555e-06
8.65778e-07
5.85799e-07
3.50833e-07
1.75578e-07
7.49718e-08
2.70633e-08
8.16959e-09
2.02803e-09
4.03487e-10
1.75127e-65
5.0838e-35
0.704878
0.986465
0.999873
0.999999
1
1
0.998566
0.760985
0.421663
0.205755
0.0551238
0.00883188
0.000856898
5.27116e-05
2.37607e-06
2.04336e-07
1.07244e-07
8.51622e-08
6.30527e-08
4.43904e-08
3.18874e-08
2.62134e-08
2.50515e-08
3.29395e-08
6.59569e-08
1.34468e-07
2.42824e-07
3.71951e-07
4.79868e-07
5.3003e-07
5.05685e-07
3.55885e-07
2.30202e-07
1.21686e-07
5.46486e-08
2.05354e-08
6.40323e-09
1.63132e-09
3.31731e-10
5.32603e-63
1.16881e-64
0.722003
0.985285
0.9999
0.999999
1
1
0.998608
0.758719
0.398513
0.192877
0.0523216
0.00856837
0.000853369
5.40597e-05
2.51264e-06
2.00482e-07
9.61475e-08
7.60059e-08
5.72237e-08
4.05731e-08
2.80402e-08
2.05318e-08
1.78067e-08
1.76495e-08
2.69291e-08
5.09996e-08
9.32385e-08
1.49859e-07
2.05876e-07
2.42367e-07
2.53185e-07
1.97824e-07
1.36349e-07
7.74556e-08
3.70138e-08
1.46815e-08
4.79737e-09
1.27249e-09
2.68154e-10
3.18409e-60
-2.00706e-63
0.737969
0.988719
0.999911
1
1
1
0.998908
0.75864
0.378832
0.180353
0.049671
0.0083259
0.000852202
5.56065e-05
2.66589e-06
1.98938e-07
8.60071e-08
6.71357e-08
5.1232e-08
3.67791e-08
2.5306e-08
1.73e-08
1.29084e-08
1.14804e-08
1.24606e-08
1.93998e-08
3.37087e-08
5.51629e-08
7.95328e-08
9.92236e-08
1.08214e-07
9.92127e-08
7.12803e-08
4.42316e-08
2.26864e-08
9.61543e-09
3.33522e-09
9.33302e-10
2.06477e-10
4.62641e-58
-2.1323e-28
0.750485
0.993117
0.999936
1
1
1
0.999363
0.772947
0.365716
0.168481
0.0471742
0.00810305
0.000853067
5.73706e-05
2.83988e-06
2.01339e-07
7.70121e-08
5.87587e-08
4.5279e-08
3.28905e-08
2.27794e-08
1.5264e-08
1.03689e-08
7.85913e-09
7.08556e-09
8.10162e-09
1.20246e-08
1.88718e-08
2.76986e-08
3.6059e-08
4.14123e-08
4.29479e-08
3.24435e-08
2.20821e-08
1.22468e-08
5.60276e-09
2.08606e-09
6.23242e-10
1.46524e-10
1.3079e-55
1.1716e-54
0.762446
0.994956
0.999983
1
1
1
0.999752
0.805244
0.359318
0.1585
0.0449216
0.00791206
0.000857127
5.94002e-05
3.03896e-06
2.07716e-07
6.93689e-08
5.10196e-08
3.95116e-08
2.90322e-08
2.02788e-08
1.35732e-08
8.87414e-09
5.9754e-09
4.5464e-09
4.1118e-09
4.65425e-09
6.32613e-09
8.9944e-09
1.19085e-08
1.4213e-08
1.51287e-08
1.27364e-08
9.37783e-09
5.65828e-09
2.81423e-09
1.13529e-09
3.6596e-10
9.24372e-11
3.59026e-53
-5.43971e-47
0.789509
0.996419
0.999997
0.999999
1
1
0.999949
0.848983
0.357755
0.152403
0.0432377
0.00779307
0.000865913
6.17854e-05
3.27062e-06
2.19187e-07
6.33266e-08
4.4047e-08
3.40347e-08
2.52756e-08
1.78233e-08
1.19855e-08
7.75835e-09
4.94594e-09
3.27399e-09
2.45133e-09
2.18683e-09
2.29986e-09
2.87366e-09
3.6038e-09
4.27316e-09
4.61025e-09
4.21767e-09
3.31063e-09
2.17089e-09
1.17671e-09
5.17762e-10
1.81675e-10
4.97774e-11
1.951e-50
-2.46136e-38
0.848821
0.998636
0.999998
0.999998
1
1
1
0.898943
0.366281
0.150455
0.0424863
0.00776498
0.00088177
6.46667e-05
3.54542e-06
2.36881e-07
5.91694e-08
3.79556e-08
2.89555e-08
2.16805e-08
1.54451e-08
1.0461e-08
6.7689e-09
4.23304e-09
2.62269e-09
1.68819e-09
1.2132e-09
1.02655e-09
9.88653e-10
1.07918e-09
1.18741e-09
1.25216e-09
1.17274e-09
9.60795e-10
6.73227e-10
3.94835e-10
1.89546e-10
7.2794e-11
2.18016e-11
1
0.944902
0.396633
0.150966
0.0424282
0.00782895
0.00090765
6.82376e-05
3.87883e-06
2.62551e-07
5.70323e-08
3.28454e-08
2.43717e-08
1.83087e-08
1.31724e-08
9.00365e-09
5.85243e-09
3.63674e-09
2.19028e-09
1.31026e-09
8.10023e-10
5.45813e-10
4.18079e-10
3.61749e-10
3.37335e-10
3.18631e-10
2.8598e-10
2.32971e-10
1.67438e-10
1.03365e-10
5.3318e-11
2.23115e-11
7.32087e-12
0.000103386
0.000529223
0.00115439
0.00191365
0.0108086
0.127881
0.467048
0.793942
0.93703
0.96739
0.958596
0.919513
0.853187
0.758981
0.637842
0.499734
0.360146
0.235336
0.13724
0.0701641
1.88145e-06
5.46649e-06
9.30894e-05
0.000480838
0.00106161
0.00171543
0.00629952
0.083764
0.372582
0.719269
0.906675
0.957171
0.960199
0.9442
0.872769
0.79111
0.678112
0.54388
0.402258
0.270216
0.162168
0.0853871
-7.26795e-115
-1.36926e-76
3.3705e-62
-2.4796e-50
-2.60006e-42
0.419331
0.942738
0.997827
0.999938
0.998166
0.851126
0.426725
0.0437588
0.000168755
2.11288e-06
1.76737e-06
4.91598e-06
8.21575e-05
0.000430982
0.000969695
0.00154454
0.00383599
0.050862
0.280219
0.626688
0.860241
0.946144
0.960199
0.947127
0.890942
0.818937
0.715313
0.586565
0.444639
0.306628
0.189101
0.102387
-4.64779e-116
-6.46881e-76
1.304e-62
-5.90177e-43
-7.38586e-35
0.553171
0.949078
0.998761
0.999965
0.997551
0.9837
0.959017
0.806377
0.343726
0.0283803
0.000139478
2.00062e-06
1.65887e-06
4.33085e-06
7.10618e-05
0.000380769
0.000877781
0.00138815
0.00259217
0.0286005
0.197176
0.521177
0.790808
0.917192
0.951149
0.950672
0.904559
0.841489
0.746905
0.624934
0.484552
0.342314
0.216451
0.120227
-1.31716e-116
-3.14845e-75
1.99507e-57
-4.06084e-36
-1.59908e-27
0.646672
0.949488
0.999639
0.999978
0.996723
0.980343
0.950579
0.754194
0.271909
0.0195246
0.000149305
1.86054e-06
1.55327e-06
3.74398e-06
6.02253e-05
0.000331314
0.000785623
0.00124337
0.00197506
0.0150263
0.12861
0.41037
0.701064
0.868563
0.930038
0.941826
0.91071
0.857948
0.773406
0.657856
0.519891
0.375022
0.242376
0.137686
0.067383
-6.87735e-115
-3.42995e-74
-1.9923e-57
-4.35636e-30
0.00482683
0.696021
0.966258
0.999926
0.999983
0.995651
0.976482
0.939992
0.696346
0.213073
0.0143971
0.000153309
1.76074e-06
1.45272e-06
3.18244e-06
4.99664e-05
0.000283712
0.00069429
0.00110914
0.00163484
0.00761444
0.0771496
0.302943
0.594094
0.798541
0.893741
0.921074
0.915262
0.857096
0.786102
0.681984
0.550118
0.40472
0.266766
0.154576
0.0771933
-5.02713e-114
-1.49085e-73
-4.19434e-55
-3.17737e-36
0.0306272
0.716994
0.984251
0.999941
0.999985
0.994345
0.972148
0.926832
0.63539
0.167136
0.011214
0.000157556
1.66149e-06
1.35721e-06
2.66737e-06
4.05345e-05
0.0002389
0.000605504
0.000983863
0.00140217
0.00398058
0.042324
0.207688
0.477241
0.70599
0.834839
0.887466
0.898769
0.850143
0.783039
0.682555
0.557071
0.417073
0.280431
0.16592
0.0845838
0.036347
-1.5462e-112
-6.86867e-73
-1.07328e-52
1.01676e-34
0.0714279
0.7248
0.99027
0.999963
0.999987
0.992801
0.967367
0.910763
0.574192
0.132539
0.00900299
0.000159087
1.56797e-06
1.26637e-06
2.2135e-06
3.21033e-05
0.000197589
0.000520661
0.000865795
0.0012123
0.00234632
0.0212505
0.130704
0.36006
0.597557
0.753935
0.831033
0.856469
0.840043
0.770632
0.675936
0.553091
0.414965
0.279788
0.166125
0.08519
0.0369021
-3.9388e-113
-8.85791e-73
-2.30393e-52
-1.66245e-59
0.123595
0.737947
0.992829
0.999984
0.999991
0.990997
0.962115
0.891558
0.515126
0.107
0.00732316
0.000158834
1.48127e-06
1.17993e-06
1.82878e-06
2.47772e-05
0.000160283
0.000440849
0.000753685
0.00104717
0.00162239
0.00995918
0.0746779
0.251565
0.479276
0.656084
0.756056
0.799418
0.80911
0.743069
0.657732
0.540292
0.40651
0.27481
0.163638
0.0840707
0.0364641
-3.57508e-112
-1.19008e-80
-5.18813e-50
-3.34382e-65
0.194313
0.81825
0.996004
0.999991
0.999994
0.988881
0.956314
0.869126
0.46002
0.0879796
0.00603525
0.000156174
1.4008e-06
1.0976e-06
1.51464e-06
1.85969e-05
0.000127288
0.000367073
0.000647631
0.000901679
0.0012587
0.00460431
0.0385119
0.16053
0.358829
0.543926
0.663183
0.721804
0.739914
0.69706
0.622124
0.513979
0.388118
0.262956
0.156837
0.0807111
0.0350593
-4.61251e-111
-2.20693e-81
-1.1562e-45
-4.63587e-66
0.302194
0.905257
0.998503
0.999994
0.999996
0.986398
0.949857
0.843534
0.409921
0.0734683
0.00504725
0.000149824
1.3268e-06
1.01909e-06
1.26674e-06
1.35473e-05
9.87369e-05
0.000300158
0.00054873
0.000772242
0.00102684
0.00231376
0.017981
0.0925038
0.247027
0.423085
0.554357
0.625679
0.650917
0.630227
0.565866
0.470628
0.35681
0.242262
0.14462
0.0744381
0.0323285
-7.87686e-110
7.17404e-80
-8.09551e-47
-9.23365e-56
0.441917
0.941834
0.99947
0.999996
0.999997
0.983483
0.942606
0.814991
0.365294
0.0619794
0.00427354
0.000139586
1.25947e-06
9.4418e-07
1.07643e-06
9.56486e-06
7.46101e-05
0.00024061
0.000457867
0.000655846
0.000849693
0.00137764
0.0077622
0.0477204
0.154402
0.304911
0.437658
0.518753
0.550228
0.551907
0.493026
0.411709
0.312728
0.212409
0.126673
0.0650579
0.0281617
-5.17732e-109
1.26929e-78
-1.39157e-39
-2.12925e-50
0.563143
0.957334
0.999844
0.999998
0.999998
0.980059
0.934394
0.783821
0.325791
0.0528256
0.00365886
0.000127635
1.19903e-06
8.72717e-07
9.32527e-07
6.54451e-06
5.47526e-05
0.000188655
0.000375597
0.000550667
0.000704894
0.000964792
0.00328838
0.02194
0.0865055
0.200829
0.322783
0.410156
0.453526
0.465
0.411865
0.344589
0.260825
0.176399
0.104632
0.053375
0.0229087
-1.36607e-107
1.12673e-81
-1.41137e-37
-2.32289e-43
0.637211
0.971746
0.99993
0.999996
0.999998
0.976082
0.925061
0.750408
0.291163
0.0454338
0.00316397
0.00011578
1.14582e-06
8.04616e-07
8.2325e-07
4.35087e-06
3.88885e-05
0.000144285
0.000302339
0.000456161
0.00058361
0.000738728
0.00152911
0.00905821
0.0428914
0.118941
0.219151
0.305011
0.354184
0.369551
0.330883
0.277312
0.208107
0.139375
0.0817316
0.0411481
0.017388
-7.9126e-106
4.6688e-75
-1.41925e-35
-6.78388e-32
0.673823
0.98534
0.999935
0.999994
0.999998
0.971568
0.914482
0.715506
0.260979
0.0394137
0.00276148
0.000104849
1.10028e-06
7.39833e-07
7.37901e-07
2.83129e-06
2.66389e-05
0.000107289
0.000238275
0.00037221
0.000480276
0.000584332
0.000863972
0.00349555
0.0186778
0.062074
0.132925
0.20588
0.254871
0.273559
0.256821
0.214248
0.159571
0.105568
0.0609306
0.030105
0.0124424
-1.50083e-104
-9.26227e-69
-1.38472e-33
0.000415822
0.693249
0.991925
0.999961
0.999995
0.999998
0.966524
0.902531
0.67993
0.234742
0.0344773
0.00243175
9.51178e-05
1.06299e-06
6.78586e-07
6.67711e-07
1.83044e-06
1.75417e-05
7.72764e-05
0.000183313
0.000298519
0.000391427
0.000466768
0.000584553
0.00139134
0.00717471
0.0281961
0.0710543
0.125021
0.168474
0.189484
0.193548
0.15677
0.117353
0.076845
0.0436448
0.0211183
0.00850703
-7.97892e-103
9.32118e-69
-3.49661e-48
0.0157238
0.72007
0.994796
0.999986
0.999997
0.999998
0.960889
0.889021
0.644499
0.2117
0.0304037
0.00216004
8.66263e-05
1.0343e-06
6.21335e-07
6.06423e-07
1.20409e-06
1.1077e-05
5.3696e-05
0.000137173
0.000234704
0.000315126
0.00037338
0.000434276
0.000661328
0.00252035
0.0110971
0.0330289
0.0674119
0.102121
0.124149
0.130755
0.10775
0.0820443
0.053438
0.0300004
0.014248
0.0055982
-1.58293e-101
3.86694e-71
-4.41167e-62
0.0842247
0.804996
0.997498
0.99999
0.999995
0.999998
0.954565
0.873745
0.609427
0.19153
0.0270202
0.00193506
7.93191e-05
1.01527e-06
5.67682e-07
5.50832e-07
8.29936e-07
6.70335e-06
3.58484e-05
9.94234e-05
0.000180284
0.000250018
0.000297452
0.000333525
0.00039931
0.000895506
0.00379502
0.0130665
0.0311232
0.0533341
0.07061
0.0777586
0.0698832
0.0535717
0.0350696
0.0196074
0.0091923
0.00353822
-1.13426e-100
1.00718e-73
-1.66844e-75
0.21394
0.910007
0.999176
0.999995
0.999996
0.999997
0.947502
0.856555
0.575087
0.173851
0.0241937
0.00174804
7.30977e-05
1.00513e-06
5.17757e-07
4.98984e-07
6.13313e-07
3.89939e-06
2.29069e-05
6.94886e-05
0.000134705
0.000194837
0.00023507
0.000258876
0.000281384
0.000386139
0.00118327
0.00431082
0.0119053
0.0235301
0.0348491
0.0414744
0.0430415
0.0317542
0.0213938
0.0120044
0.0056
0.00212609
-9.78338e-101
-3.65007e-79
-1.62682e-33
0.360947
0.961513
0.999569
0.999995
0.999996
0.999997
0.939708
0.837408
0.541867
0.158366
0.0218215
0.00159216
6.78512e-05
1.00222e-06
4.72291e-07
4.49698e-07
4.87534e-07
2.20252e-06
1.39636e-05
4.6625e-05
9.74146e-05
0.000148456
0.000183715
0.000201373
0.000209913
0.000222398
0.000398256
0.00124451
0.00379167
0.00876773
0.0150097
0.019754
0.0214442
0.0170271
0.0118711
0.00674991
0.00316339
0.00119462
-1.81581e-103
-8.59647e-67
0
0.481356
0.976596
0.99972
0.999996
0.999996
0.999996
0.931161
0.816255
0.510079
0.144799
0.019822
0.00146196
6.34676e-05
1.01876e-06
4.31623e-07
4.03303e-07
4.09923e-07
1.23556e-06
8.10165e-06
2.99079e-05
6.78416e-05
0.000109949
0.000141288
0.000156209
0.000159495
0.000154239
0.0001785
0.00036016
0.00101547
0.00259033
0.00505524
0.00746962
0.00867248
0.00818928
0.00577853
0.00339338
0.00161539
0.000612731
1.00567e-98
4.08451e-62
-5.75795e-73
0.560351
0.979032
0.999831
0.999996
0.999997
0.999996
0.921744
0.793178
0.479716
0.13287
0.0181277
0.001353
5.9838e-05
1.04765e-06
3.96026e-07
3.59985e-07
3.55932e-07
7.16144e-07
4.4736e-06
1.82666e-05
4.52883e-05
7.86855e-05
0.000106126
0.000120325
0.000123501
0.00011301
0.000107414
0.000131654
0.000250449
0.000605855
0.00129771
0.00221386
0.00294925
0.00321092
0.00234622
0.00146435
0.000717455
0.000276627
4.62082e-96
-1.93881e-52
-4.9194e-63
0.609648
0.979981
0.999895
0.999997
0.999997
0.999997
0.911317
0.768243
0.450651
0.122322
0.0166829
0.00126161
5.6865e-05
1.08751e-06
3.65415e-07
3.20757e-07
3.12585e-07
4.50496e-07
2.36309e-06
1.05824e-05
2.88412e-05
5.41693e-05
7.74789e-05
9.13171e-05
9.54955e-05
8.64349e-05
7.35736e-05
6.98955e-05
7.99408e-05
0.000135569
0.000272268
0.000503495
0.000743708
0.000867097
0.000759151
0.000505165
0.000260414
0.000103665
2.05425e-93
-1.85269e-50
-7.43982e-54
0.647185
0.984755
0.999923
0.999997
0.999997
0.999997
0.899801
0.741569
0.422808
0.11294
0.0154428
0.00118482
5.44655e-05
1.14572e-06
3.39665e-07
2.8587e-07
2.74559e-07
3.17124e-07
1.21326e-06
5.80222e-06
1.74326e-05
3.56545e-05
5.45784e-05
6.7416e-05
7.21554e-05
6.89687e-05
5.35728e-05
4.47706e-05
4.0343e-05
3.95972e-05
5.38584e-05
8.57001e-05
0.000127586
0.00016222
0.000175958
0.000124982
6.99126e-05
2.93015e-05
6.75883e-91
-2.62e-48
-7.70417e-46
0.683425
0.98958
0.999947
0.999997
0.999998
0.999997
0.887197
0.713348
0.396222
0.104551
0.0143715
0.0011202
5.25715e-05
1.22193e-06
3.18335e-07
2.56266e-07
2.39617e-07
2.46989e-07
6.2673e-07
3.01298e-06
9.95657e-06
2.22862e-05
3.68323e-05
4.81854e-05
5.3221e-05
5.36903e-05
4.18211e-05
3.1909e-05
2.45222e-05
1.91972e-05
1.66213e-05
1.6213e-05
1.82117e-05
2.17667e-05
2.41811e-05
1.96305e-05
1.20471e-05
5.41618e-06
1.94149e-88
-3.58554e-46
-4.82542e-36
0.722293
0.992279
0.999975
0.999997
0.999998
0.999998
0.873525
0.683856
0.370913
0.0970132
0.0134403
0.0010658
5.11366e-05
1.32206e-06
3.00719e-07
2.31782e-07
2.07922e-07
2.04615e-07
3.44946e-07
1.49137e-06
5.35955e-06
1.31555e-05
2.36159e-05
3.30851e-05
3.84569e-05
3.98003e-05
3.31284e-05
2.4042e-05
1.75462e-05
1.21235e-05
8.26516e-06
5.63732e-06
3.9513e-06
2.94976e-06
2.34964e-06
1.83813e-06
1.17325e-06
5.5803e-07
7.876e-86
-4.80419e-44
1.21561e-06
0.770757
0.994917
0.999991
0.999999
0.999999
0.999999
0.858804
0.653381
0.346893
0.090209
0.0126257
0.00101999
5.013e-05
1.44919e-06
2.85947e-07
2.11863e-07
1.80711e-07
1.73277e-07
2.14707e-07
7.16648e-07
2.71721e-06
7.30451e-06
1.43182e-05
2.16284e-05
2.66024e-05
2.84029e-05
2.60934e-05
1.84627e-05
1.30823e-05
8.58468e-06
5.31952e-06
3.12993e-06
1.7208e-06
8.73902e-07
4.12034e-07
1.88327e-07
8.40019e-08
3.36042e-08
3.10978e-83
1.80613e-49
0.0146606
0.836586
0.997793
0.999995
0.999999
0.999999
0.999999
0.843113
0.62226
0.324185
0.0840473
0.0119094
0.000981486
4.95271e-05
1.59159e-06
2.73062e-07
1.95512e-07
1.58874e-07
1.46577e-07
1.53364e-07
3.48341e-07
1.30289e-06
3.79749e-06
8.13917e-06
1.33675e-05
1.75687e-05
1.94443e-05
1.9586e-05