/*--------------------------------*- C++ -*----------------------------------*\
| =========                 |                                                 |
| \\      /  F ield         | OpenFOAM: The Open Source CFD Toolbox           |
|  \\    /   O peration     | Version:  v2012                                 |
|   \\  /    A nd           | Website:  www.openfoam.com                      |
|    \\/     M anipulation  |                                                 |
\*---------------------------------------------------------------------------*/
FoamFile
{
    version     2.0;
    format      ascii;
    class       volScalarField;
    location    "0.2";
    object      p;
}
// * * * * * * * * * * * * * * * * * * * * * * * * * * * * * * * * * * * * * //

dimensions      [1 -1 -2 0 0 0 0];


internalField   nonuniform List<scalar> 
3332
(
3.48648e+06
3.486e+06
3.48572e+06
3.48559e+06
3.48557e+06
3.48564e+06
3.48578e+06
3.48597e+06
3.48619e+06
3.48644e+06
3.48671e+06
3.48699e+06
3.48727e+06
3.48756e+06
3.48784e+06
3.48812e+06
3.4884e+06
3.48866e+06
3.48891e+06
3.48916e+06
3.48759e+06
3.48644e+06
3.48568e+06
3.4852e+06
3.48494e+06
3.48485e+06
3.48487e+06
3.48499e+06
3.48517e+06
3.48541e+06
3.48567e+06
3.48596e+06
3.48627e+06
3.48658e+06
3.48689e+06
3.4872e+06
3.48751e+06
3.48781e+06
3.4881e+06
3.48838e+06
3.48865e+06
3.48891e+06
3.57687e+06
3.57002e+06
3.57528e+06
3.56785e+06
3.5713e+06
3.56668e+06
3.56625e+06
3.56471e+06
3.56275e+06
3.56524e+06
3.5176e+06
3.4998e+06
3.49554e+06
3.4912e+06
3.48872e+06
3.48681e+06
3.4856e+06
3.48481e+06
3.48434e+06
3.48412e+06
3.48407e+06
3.48415e+06
3.48432e+06
3.48456e+06
3.48484e+06
3.48515e+06
3.48548e+06
3.48582e+06
3.48617e+06
3.48651e+06
3.48685e+06
3.48718e+06
3.4875e+06
3.48781e+06
3.48811e+06
3.48839e+06
3.48866e+06
3.58351e+06
3.57307e+06
3.58179e+06
3.5721e+06
3.5769e+06
3.57109e+06
3.57113e+06
3.56854e+06
3.56719e+06
3.56853e+06
3.56458e+06
3.55854e+06
3.52632e+06
3.50013e+06
3.49609e+06
3.49054e+06
3.48802e+06
3.48585e+06
3.48464e+06
3.48384e+06
3.48342e+06
3.48325e+06
3.48326e+06
3.48341e+06
3.48364e+06
3.48393e+06
3.48427e+06
3.48463e+06
3.485e+06
3.48538e+06
3.48576e+06
3.48613e+06
3.4865e+06
3.48685e+06
3.4872e+06
3.48752e+06
3.48784e+06
3.48814e+06
3.48842e+06
3.58765e+06
3.57507e+06
3.58553e+06
3.57497e+06
3.58023e+06
3.57391e+06
3.57412e+06
3.57086e+06
3.57052e+06
3.57121e+06
3.56857e+06
3.56502e+06
3.53536e+06
3.50026e+06
3.49596e+06
3.48947e+06
3.48697e+06
3.48466e+06
3.48351e+06
3.48275e+06
3.48241e+06
3.48232e+06
3.48242e+06
3.48264e+06
3.48294e+06
3.48329e+06
3.48369e+06
3.4841e+06
3.48452e+06
3.48494e+06
3.48535e+06
3.48576e+06
3.48615e+06
3.48653e+06
3.48689e+06
3.48724e+06
3.48757e+06
3.48788e+06
3.48818e+06
3.48846e+06
3.58666e+06
3.57574e+06
3.58489e+06
3.57613e+06
3.58033e+06
3.57434e+06
3.57431e+06
3.57076e+06
3.57157e+06
3.57147e+06
3.57055e+06
3.56809e+06
3.54245e+06
3.49988e+06
3.49441e+06
3.48784e+06
3.48539e+06
3.48318e+06
3.48216e+06
3.48153e+06
3.48132e+06
3.48134e+06
3.48153e+06
3.48184e+06
3.48222e+06
3.48265e+06
3.4831e+06
3.48357e+06
3.48404e+06
3.4845e+06
3.48495e+06
3.48539e+06
3.48581e+06
3.48621e+06
3.4866e+06
3.48696e+06
3.48731e+06
3.48763e+06
3.48794e+06
3.48823e+06
3.5801e+06
3.57544e+06
3.57924e+06
3.57492e+06
3.57642e+06
3.57161e+06
3.5708e+06
3.56718e+06
3.56848e+06
3.56657e+06
3.5682e+06
3.56457e+06
3.54521e+06
3.49875e+06
3.49079e+06
3.48551e+06
3.48314e+06
3.48137e+06
3.48056e+06
3.48016e+06
3.48012e+06
3.48029e+06
3.48061e+06
3.48102e+06
3.48149e+06
3.482e+06
3.48252e+06
3.48304e+06
3.48356e+06
3.48406e+06
3.48455e+06
3.48502e+06
3.48547e+06
3.4859e+06
3.4863e+06
3.48669e+06
3.48705e+06
3.48739e+06
3.48771e+06
3.48801e+06
3.48829e+06
3.56762e+06
3.5728e+06
3.568e+06
3.57023e+06
3.56805e+06
3.56518e+06
3.56318e+06
3.55979e+06
3.56045e+06
3.55627e+06
3.56021e+06
3.55472e+06
3.54209e+06
3.49776e+06
3.48512e+06
3.4826e+06
3.48023e+06
3.47927e+06
3.47872e+06
3.47867e+06
3.47883e+06
3.47919e+06
3.47965e+06
3.48019e+06
3.48076e+06
3.48134e+06
3.48193e+06
3.48251e+06
3.48308e+06
3.48363e+06
3.48415e+06
3.48466e+06
3.48513e+06
3.48559e+06
3.48601e+06
3.48642e+06
3.48679e+06
3.48715e+06
3.48748e+06
3.48779e+06
3.48808e+06
3.55122e+06
3.56693e+06
3.55182e+06
3.5609e+06
3.55462e+06
3.55404e+06
3.551e+06
3.54871e+06
3.54825e+06
3.543e+06
3.54775e+06
3.54126e+06
3.53437e+06
3.49672e+06
3.47818e+06
3.47921e+06
3.47683e+06
3.47692e+06
3.4767e+06
3.47706e+06
3.47747e+06
3.47805e+06
3.47867e+06
3.47934e+06
3.48001e+06
3.48069e+06
3.48135e+06
3.48199e+06
3.48261e+06
3.4832e+06
3.48377e+06
3.4843e+06
3.48481e+06
3.48528e+06
3.48573e+06
3.48615e+06
3.48655e+06
3.48691e+06
3.48726e+06
3.48758e+06
3.48788e+06
3.52835e+06
3.55283e+06
3.53075e+06
3.54491e+06
3.53489e+06
3.5363e+06
3.53322e+06
3.5338e+06
3.5336e+06
3.52959e+06
3.53379e+06
3.52754e+06
3.52526e+06
3.49377e+06
3.47134e+06
3.47524e+06
3.47321e+06
3.47438e+06
3.47456e+06
3.47537e+06
3.47606e+06
3.47688e+06
3.47768e+06
3.47848e+06
3.47927e+06
3.48004e+06
3.48077e+06
3.48148e+06
3.48215e+06
3.48278e+06
3.48339e+06
3.48395e+06
3.48448e+06
3.48498e+06
3.48545e+06
3.48589e+06
3.4863e+06
3.48668e+06
3.48704e+06
3.48737e+06
3.48768e+06
3.50187e+06
3.52936e+06
3.5054e+06
3.52077e+06
3.50752e+06
3.50977e+06
3.50839e+06
3.5146e+06
3.51794e+06
3.51767e+06
3.52096e+06
3.51609e+06
3.51651e+06
3.48913e+06
3.46582e+06
3.47078e+06
3.46971e+06
3.47171e+06
3.47239e+06
3.47365e+06
3.47464e+06
3.4757e+06
3.47667e+06
3.47763e+06
3.47853e+06
3.47939e+06
3.48021e+06
3.48097e+06
3.4817e+06
3.48238e+06
3.48301e+06
3.48361e+06
3.48417e+06
3.48469e+06
3.48518e+06
3.48564e+06
3.48606e+06
3.48646e+06
3.48683e+06
3.48717e+06
3.48748e+06
3.47211e+06
3.49636e+06
3.47623e+06
3.48884e+06
3.47302e+06
3.47428e+06
3.47646e+06
3.49137e+06
3.50216e+06
3.50754e+06
3.51026e+06
3.5074e+06
3.50846e+06
3.48441e+06
3.4617e+06
3.46616e+06
3.46649e+06
3.46901e+06
3.47026e+06
3.47192e+06
3.47322e+06
3.47452e+06
3.47568e+06
3.47678e+06
3.47781e+06
3.47876e+06
3.47965e+06
3.48048e+06
3.48125e+06
3.48198e+06
3.48265e+06
3.48328e+06
3.48387e+06
3.48441e+06
3.48492e+06
3.48539e+06
3.48583e+06
3.48624e+06
3.48662e+06
3.48697e+06
3.48729e+06
3.4446e+06
3.46129e+06
3.44774e+06
3.45469e+06
3.43702e+06
3.43526e+06
3.44198e+06
3.46693e+06
3.48722e+06
3.49858e+06
3.50137e+06
3.50045e+06
3.50076e+06
3.48015e+06
3.45804e+06
3.46163e+06
3.46348e+06
3.46634e+06
3.46821e+06
3.47021e+06
3.47183e+06
3.47336e+06
3.47471e+06
3.47596e+06
3.47709e+06
3.47814e+06
3.47911e+06
3.48e+06
3.48083e+06
3.48159e+06
3.4823e+06
3.48296e+06
3.48357e+06
3.48414e+06
3.48467e+06
3.48515e+06
3.48561e+06
3.48603e+06
3.48642e+06
3.48677e+06
3.4871e+06
3.4247e+06
3.43417e+06
3.42671e+06
3.42865e+06
3.41098e+06
3.40622e+06
3.41559e+06
3.44776e+06
3.47524e+06
3.49041e+06
3.49319e+06
3.49373e+06
3.49308e+06
3.47565e+06
3.45423e+06
3.45731e+06
3.46061e+06
3.46377e+06
3.46624e+06
3.46856e+06
3.47049e+06
3.47224e+06
3.47377e+06
3.47516e+06
3.47641e+06
3.47754e+06
3.47858e+06
3.47953e+06
3.48041e+06
3.48122e+06
3.48196e+06
3.48265e+06
3.48329e+06
3.48387e+06
3.48442e+06
3.48492e+06
3.48539e+06
3.48582e+06
3.48622e+06
3.48659e+06
3.48692e+06
3.41941e+06
3.42563e+06
3.42034e+06
3.42137e+06
3.40583e+06
3.40183e+06
3.40862e+06
3.44085e+06
3.46818e+06
3.48287e+06
3.48501e+06
3.48642e+06
3.48532e+06
3.47049e+06
3.45034e+06
3.45337e+06
3.45788e+06
3.46136e+06
3.46439e+06
3.467e+06
3.46921e+06
3.47116e+06
3.47287e+06
3.47439e+06
3.47574e+06
3.47697e+06
3.47808e+06
3.47909e+06
3.48001e+06
3.48086e+06
3.48164e+06
3.48235e+06
3.48301e+06
3.48362e+06
3.48418e+06
3.4847e+06
3.48518e+06
3.48562e+06
3.48603e+06
3.4864e+06
3.48675e+06
3.42758e+06
3.43533e+06
3.42807e+06
3.4326e+06
3.42038e+06
3.42081e+06
3.42171e+06
3.44595e+06
3.46549e+06
3.47597e+06
3.47702e+06
3.47884e+06
3.47768e+06
3.46505e+06
3.44671e+06
3.44998e+06
3.45536e+06
3.45918e+06
3.46267e+06
3.46554e+06
3.46801e+06
3.47015e+06
3.47201e+06
3.47366e+06
3.47511e+06
3.47642e+06
3.4776e+06
3.47866e+06
3.47963e+06
3.48051e+06
3.48132e+06
3.48207e+06
3.48275e+06
3.48337e+06
3.48395e+06
3.48448e+06
3.48498e+06
3.48543e+06
3.48584e+06
3.48623e+06
3.48658e+06
3.44034e+06
3.45077e+06
3.4421e+06
3.44994e+06
3.44143e+06
3.44719e+06
3.4421e+06
3.45492e+06
3.46438e+06
3.46987e+06
3.46999e+06
3.47192e+06
3.47069e+06
3.46006e+06
3.44354e+06
3.44726e+06
3.4531e+06
3.45726e+06
3.46109e+06
3.4642e+06
3.4669e+06
3.4692e+06
3.47121e+06
3.47296e+06
3.47452e+06
3.4759e+06
3.47714e+06
3.47826e+06
3.47927e+06
3.48019e+06
3.48103e+06
3.48179e+06
3.4825e+06
3.48314e+06
3.48373e+06
3.48428e+06
3.48478e+06
3.48524e+06
3.48567e+06
3.48605e+06
3.48641e+06
3.45404e+06
3.4628e+06
3.4555e+06
3.46294e+06
3.45841e+06
3.46512e+06
3.45782e+06
3.46064e+06
3.4628e+06
3.46486e+06
3.46449e+06
3.46634e+06
3.46484e+06
3.45591e+06
3.44085e+06
3.44513e+06
3.45111e+06
3.4556e+06
3.45966e+06
3.46298e+06
3.46586e+06
3.46832e+06
3.47045e+06
3.47232e+06
3.47396e+06
3.47541e+06
3.47671e+06
3.47787e+06
3.47892e+06
3.47988e+06
3.48074e+06
3.48153e+06
3.48226e+06
3.48292e+06
3.48352e+06
3.48408e+06
3.48459e+06
3.48506e+06
3.48549e+06
3.48589e+06
3.48625e+06
3.46485e+06
3.46688e+06
3.46574e+06
3.46784e+06
3.47009e+06
3.47027e+06
3.46589e+06
3.46195e+06
3.46039e+06
3.46087e+06
3.46024e+06
3.46187e+06
3.46014e+06
3.45242e+06
3.43847e+06
3.44339e+06
3.44933e+06
3.45415e+06
3.45836e+06
3.46188e+06
3.46492e+06
3.46751e+06
3.46976e+06
3.47171e+06
3.47343e+06
3.47495e+06
3.4763e+06
3.47751e+06
3.4786e+06
3.47958e+06
3.48048e+06
3.48129e+06
3.48203e+06
3.4827e+06
3.48332e+06
3.48389e+06
3.48441e+06
3.48489e+06
3.48533e+06
3.48573e+06
3.4861e+06
3.47314e+06
3.46619e+06
3.47294e+06
3.4674e+06
3.47768e+06
3.46931e+06
3.4675e+06
3.46059e+06
3.45729e+06
3.45724e+06
3.45646e+06
3.45787e+06
3.45613e+06
3.44911e+06
3.43616e+06
3.4418e+06
3.44771e+06
3.45284e+06
3.45718e+06
3.46089e+06
3.46405e+06
3.46677e+06
3.46912e+06
3.47116e+06
3.47295e+06
3.47453e+06
3.47593e+06
3.47718e+06
3.4783e+06
3.47931e+06
3.48023e+06
3.48106e+06
3.48181e+06
3.4825e+06
3.48313e+06
3.48371e+06
3.48424e+06
3.48473e+06
3.48517e+06
3.48558e+06
3.48595e+06
3.47521e+06
3.46461e+06
3.47468e+06
3.46594e+06
3.47834e+06
3.46775e+06
3.46452e+06
3.45769e+06
3.45356e+06
3.45339e+06
3.45257e+06
3.45385e+06
3.45232e+06
3.4456e+06
3.43385e+06
3.44023e+06
3.4462e+06
3.45165e+06
3.45611e+06
3.45998e+06
3.46327e+06
3.46609e+06
3.46853e+06
3.47065e+06
3.4725e+06
3.47414e+06
3.47558e+06
3.47687e+06
3.47802e+06
3.47906e+06
3.47999e+06
3.48084e+06
3.48161e+06
3.48231e+06
3.48295e+06
3.48354e+06
3.48408e+06
3.48457e+06
3.48502e+06
3.48543e+06
3.48581e+06
3.46991e+06
3.4648e+06
3.46944e+06
3.46528e+06
3.47077e+06
3.46535e+06
3.45892e+06
3.45362e+06
3.44928e+06
3.44913e+06
3.44841e+06
3.44967e+06
3.44844e+06
3.4418e+06
3.43159e+06
3.43866e+06
3.44479e+06
3.45054e+06
3.45513e+06
3.45916e+06
3.46256e+06
3.46549e+06
3.468e+06
3.47019e+06
3.4721e+06
3.47378e+06
3.47526e+06
3.47658e+06
3.47776e+06
3.47882e+06
3.47978e+06
3.48064e+06
3.48142e+06
3.48214e+06
3.48279e+06
3.48338e+06
3.48392e+06
3.48442e+06
3.48487e+06
3.48529e+06
3.48567e+06
3.46014e+06
3.46657e+06
3.4606e+06
3.46612e+06
3.46071e+06
3.46182e+06
3.45302e+06
3.44898e+06
3.44479e+06
3.44462e+06
3.4441e+06
3.44541e+06
3.44444e+06
3.43788e+06
3.42947e+06
3.43713e+06
3.44351e+06
3.44953e+06
3.45426e+06
3.45843e+06
3.46192e+06
3.46494e+06
3.46753e+06
3.46978e+06
3.47174e+06
3.47346e+06
3.47498e+06
3.47632e+06
3.47753e+06
3.47861e+06
3.47958e+06
3.48045e+06
3.48125e+06
3.48197e+06
3.48263e+06
3.48323e+06
3.48378e+06
3.48428e+06
3.48474e+06
3.48515e+06
3.48554e+06
3.4524e+06
3.46953e+06
3.45386e+06
3.4682e+06
3.45466e+06
3.45829e+06
3.44842e+06
3.44438e+06
3.44046e+06
3.44022e+06
3.43993e+06
3.44133e+06
3.44051e+06
3.43409e+06
3.42756e+06
3.43572e+06
3.44238e+06
3.44862e+06
3.45349e+06
3.45779e+06
3.46137e+06
3.46446e+06
3.46711e+06
3.46941e+06
3.47142e+06
3.47317e+06
3.47472e+06
3.47609e+06
3.47732e+06
3.47841e+06
3.4794e+06
3.48028e+06
3.48109e+06
3.48182e+06
3.48248e+06
3.48309e+06
3.48364e+06
3.48414e+06
3.48461e+06
3.48503e+06
3.48541e+06
3.44913e+06
3.4702e+06
3.45117e+06
3.46875e+06
3.45302e+06
3.45473e+06
3.44503e+06
3.44011e+06
3.43657e+06
3.4363e+06
3.43619e+06
3.43772e+06
3.43688e+06
3.43072e+06
3.426e+06
3.4345e+06
3.44143e+06
3.44785e+06
3.45284e+06
3.45724e+06
3.46089e+06
3.46405e+06
3.46675e+06
3.4691e+06
3.47114e+06
3.47292e+06
3.4745e+06
3.47589e+06
3.47713e+06
3.47824e+06
3.47923e+06
3.48013e+06
3.48094e+06
3.48168e+06
3.48235e+06
3.48296e+06
3.48351e+06
3.48402e+06
3.48448e+06
3.48491e+06
3.48529e+06
3.44971e+06
3.46581e+06
3.45113e+06
3.46492e+06
3.45237e+06
3.45034e+06
3.44212e+06
3.4363e+06
3.43337e+06
3.43316e+06
3.43321e+06
3.43468e+06
3.4338e+06
3.42795e+06
3.42485e+06
3.43355e+06
3.4407e+06
3.44723e+06
3.45232e+06
3.45679e+06
3.4605e+06
3.46371e+06
3.46645e+06
3.46883e+06
3.4709e+06
3.47271e+06
3.4743e+06
3.47571e+06
3.47696e+06
3.47808e+06
3.47909e+06
3.47999e+06
3.48081e+06
3.48155e+06
3.48222e+06
3.48283e+06
3.48339e+06
3.4839e+06
3.48437e+06
3.48479e+06
3.48518e+06
3.45096e+06
3.45688e+06
3.45101e+06
3.4572e+06
3.45044e+06
3.44515e+06
3.4393e+06
3.4331e+06
3.431e+06
3.43088e+06
3.43102e+06
3.43234e+06
3.43143e+06
3.42587e+06
3.42413e+06
3.43289e+06
3.44019e+06
3.44676e+06
3.45192e+06
3.45644e+06
3.46019e+06
3.46344e+06
3.46621e+06
3.46862e+06
3.4707e+06
3.47253e+06
3.47414e+06
3.47556e+06
3.47682e+06
3.47795e+06
3.47896e+06
3.47987e+06
3.48069e+06
3.48143e+06
3.48211e+06
3.48272e+06
3.48328e+06
3.48379e+06
3.48426e+06
3.48468e+06
3.48507e+06
3.4512e+06
3.44634e+06
3.44968e+06
3.44806e+06
3.44718e+06
3.43987e+06
3.43661e+06
3.43061e+06
3.42939e+06
3.42938e+06
3.42956e+06
3.43062e+06
3.42971e+06
3.4244e+06
3.42379e+06
3.4325e+06
3.43988e+06
3.44645e+06
3.45165e+06
3.45618e+06
3.45996e+06
3.46323e+06
3.46602e+06
3.46845e+06
3.47055e+06
3.47239e+06
3.47401e+06
3.47544e+06
3.47671e+06
3.47784e+06
3.47885e+06
3.47976e+06
3.48059e+06
3.48133e+06
3.48201e+06
3.48262e+06
3.48318e+06
3.48369e+06
3.48416e+06
3.48458e+06
3.48497e+06
3.44986e+06
3.43652e+06
3.44715e+06
3.4396e+06
3.44331e+06
3.43517e+06
3.43417e+06
3.42879e+06
3.42834e+06
3.42842e+06
3.42859e+06
3.42935e+06
3.42849e+06
3.42338e+06
3.42371e+06
3.43232e+06
3.43974e+06
3.44627e+06
3.45149e+06
3.45602e+06
3.45982e+06
3.46309e+06
3.4659e+06
3.46833e+06
3.47044e+06
3.47229e+06
3.47391e+06
3.47534e+06
3.47662e+06
3.47775e+06
3.47876e+06
3.47967e+06
3.4805e+06
3.48124e+06
3.48191e+06
3.48253e+06
3.48309e+06
3.4836e+06
3.48406e+06
3.48449e+06
3.48487e+06
3.44748e+06
3.42883e+06
3.44398e+06
3.43285e+06
3.43946e+06
3.43137e+06
3.43203e+06
3.42746e+06
3.42758e+06
3.42773e+06
3.42784e+06
3.42834e+06
3.42757e+06
3.42263e+06
3.42383e+06
3.43231e+06
3.43974e+06
3.44621e+06
3.45143e+06
3.45595e+06
3.45975e+06
3.46302e+06
3.46583e+06
3.46826e+06
3.47037e+06
3.47222e+06
3.47384e+06
3.47528e+06
3.47655e+06
3.47768e+06
3.47869e+06
3.4796e+06
3.48042e+06
3.48116e+06
3.48183e+06
3.48245e+06
3.483e+06
3.48351e+06
3.48397e+06
3.4844e+06
3.48478e+06
3.44447e+06
3.4235e+06
3.44066e+06
3.428e+06
3.43599e+06
3.42849e+06
3.43015e+06
3.42639e+06
3.42687e+06
3.42707e+06
3.42714e+06
3.42746e+06
3.42676e+06
3.42202e+06
3.42405e+06
3.43242e+06
3.43986e+06
3.44626e+06
3.45147e+06
3.45597e+06
3.45975e+06
3.46301e+06
3.46581e+06
3.46824e+06
3.47035e+06
3.47219e+06
3.47381e+06
3.47524e+06
3.4765e+06
3.47763e+06
3.47864e+06
3.47954e+06
3.48036e+06
3.4811e+06
3.48177e+06
3.48237e+06
3.48293e+06
3.48343e+06
3.48389e+06
3.48431e+06
3.4847e+06
3.44127e+06
3.4203e+06
3.43757e+06
3.42486e+06
3.43301e+06
3.42637e+06
3.42847e+06
3.4254e+06
3.42606e+06
3.42631e+06
3.42636e+06
3.4266e+06
3.42594e+06
3.42148e+06
3.42435e+06
3.43263e+06
3.44008e+06
3.44641e+06
3.4516e+06
3.45606e+06
3.45982e+06
3.46307e+06
3.46585e+06
3.46827e+06
3.47036e+06
3.4722e+06
3.47381e+06
3.47523e+06
3.47648e+06
3.4776e+06
3.4786e+06
3.4795e+06
3.48031e+06
3.48104e+06
3.48171e+06
3.48231e+06
3.48286e+06
3.48336e+06
3.48382e+06
3.48424e+06
3.48462e+06
3.43796e+06
3.41871e+06
3.43484e+06
3.42303e+06
3.43055e+06
3.42484e+06
3.42696e+06
3.42439e+06
3.42511e+06
3.42544e+06
3.42551e+06
3.42575e+06
3.42508e+06
3.42101e+06
3.42472e+06
3.43292e+06
3.44038e+06
3.44664e+06
3.45181e+06
3.45623e+06
3.45997e+06
3.46319e+06
3.46595e+06
3.46834e+06
3.47042e+06
3.47224e+06
3.47383e+06
3.47524e+06
3.47649e+06
3.4776e+06
3.47859e+06
3.47948e+06
3.48028e+06
3.481e+06
3.48166e+06
3.48226e+06
3.4828e+06
3.4833e+06
3.48375e+06
3.48417e+06
3.48455e+06
3.43499e+06
3.41844e+06
3.43249e+06
3.42214e+06
3.42858e+06
3.42375e+06
3.42562e+06
3.42337e+06
3.4241e+06
3.42455e+06
3.42464e+06
3.42493e+06
3.42424e+06
3.42067e+06
3.42517e+06
3.43332e+06
3.44079e+06
3.44698e+06
3.45211e+06
3.45648e+06
3.46018e+06
3.46336e+06
3.4661e+06
3.46846e+06
3.47052e+06
3.47232e+06
3.47389e+06
3.47528e+06
3.47652e+06
3.47761e+06
3.47859e+06
3.47947e+06
3.48026e+06
3.48098e+06
3.48162e+06
3.48221e+06
3.48275e+06
3.48324e+06
3.48369e+06
3.4841e+06
3.48448e+06
3.43228e+06
3.41897e+06
3.43049e+06
3.42186e+06
3.42703e+06
3.423e+06
3.42447e+06
3.42243e+06
3.42315e+06
3.42375e+06
3.42385e+06
3.42422e+06
3.42349e+06
3.42054e+06
3.42576e+06
3.43385e+06
3.44131e+06
3.44741e+06
3.4525e+06
3.45681e+06
3.46047e+06
3.46361e+06
3.4663e+06
3.46863e+06
3.47066e+06
3.47243e+06
3.47399e+06
3.47535e+06
3.47657e+06
3.47765e+06
3.47861e+06
3.47947e+06
3.48025e+06
3.48096e+06
3.4816e+06
3.48218e+06
3.48271e+06
3.48319e+06
3.48364e+06
3.48404e+06
3.48442e+06
3.42993e+06
3.41999e+06
3.42884e+06
3.422e+06
3.42585e+06
3.42252e+06
3.42357e+06
3.42166e+06
3.42238e+06
3.42315e+06
3.42324e+06
3.42368e+06
3.42293e+06
3.42067e+06
3.4265e+06
3.43453e+06
3.44195e+06
3.44795e+06
3.45299e+06
3.45723e+06
3.46083e+06
3.46391e+06
3.46656e+06
3.46885e+06
3.47084e+06
3.47258e+06
3.47411e+06
3.47545e+06
3.47664e+06
3.4777e+06
3.47865e+06
3.4795e+06
3.48026e+06
3.48095e+06
3.48158e+06
3.48215e+06
3.48268e+06
3.48315e+06
3.48359e+06
3.48399e+06
3.48436e+06
3.42779e+06
3.42112e+06
3.42745e+06
3.42235e+06
3.42498e+06
3.42226e+06
3.42293e+06
3.42113e+06
3.42187e+06
3.42281e+06
3.42286e+06
3.42336e+06
3.42261e+06
3.4211e+06
3.42743e+06
3.43538e+06
3.44271e+06
3.4486e+06
3.45356e+06
3.45772e+06
3.46126e+06
3.46428e+06
3.46687e+06
3.46912e+06
3.47107e+06
3.47277e+06
3.47426e+06
3.47557e+06
3.47674e+06
3.47777e+06
3.4787e+06
3.47953e+06
3.48028e+06
3.48096e+06
3.48158e+06
3.48214e+06
3.48265e+06
3.48312e+06
3.48355e+06
3.48394e+06
3.48431e+06
3.42624e+06
3.42237e+06
3.42633e+06
3.42277e+06
3.42433e+06
3.42218e+06
3.42253e+06
3.42086e+06
3.42162e+06
3.42273e+06
3.42272e+06
3.42328e+06
3.42257e+06
3.42183e+06
3.42856e+06
3.4364e+06
3.44361e+06
3.44938e+06
3.45424e+06
3.45831e+06
3.46176e+06
3.46471e+06
3.46724e+06
3.46943e+06
3.47133e+06
3.47299e+06
3.47444e+06
3.47572e+06
3.47686e+06
3.47787e+06
3.47877e+06
3.47958e+06
3.48031e+06
3.48098e+06
3.48158e+06
3.48213e+06
3.48263e+06
3.48309e+06
3.48351e+06
3.4839e+06
3.48426e+06
3.42495e+06
3.4234e+06
3.42535e+06
3.42317e+06
3.42383e+06
3.42221e+06
3.42234e+06
3.42079e+06
3.42159e+06
3.42287e+06
3.4228e+06
3.42343e+06
3.42279e+06
3.42286e+06
3.42988e+06
3.43759e+06
3.44466e+06
3.45028e+06
3.45502e+06
3.45898e+06
3.46234e+06
3.46521e+06
3.46767e+06
3.46979e+06
3.47164e+06
3.47325e+06
3.47466e+06
3.4759e+06
3.477e+06
3.47798e+06
3.47886e+06
3.47965e+06
3.48036e+06
3.481e+06
3.48159e+06
3.48213e+06
3.48262e+06
3.48307e+06
3.48348e+06
3.48387e+06
3.48422e+06
3.42408e+06
3.42434e+06
3.42452e+06
3.42349e+06
3.42344e+06
3.42232e+06
3.42232e+06
3.42088e+06
3.4217e+06
3.42317e+06
3.42305e+06
3.42378e+06
3.42327e+06
3.42416e+06
3.43139e+06
3.43896e+06
3.44584e+06
3.4513e+06
3.45591e+06
3.45974e+06
3.463e+06
3.46577e+06
3.46815e+06
3.4702e+06
3.47198e+06
3.47354e+06
3.4749e+06
3.4761e+06
3.47717e+06
3.47811e+06
3.47896e+06
3.47973e+06
3.48042e+06
3.48104e+06
3.48161e+06
3.48214e+06
3.48261e+06
3.48306e+06
3.48346e+06
3.48384e+06
3.48418e+06
3.42297e+06
3.4247e+06
3.42366e+06
3.42374e+06
3.42317e+06
3.42251e+06
3.42243e+06
3.42107e+06
3.42192e+06
3.42359e+06
3.42347e+06
3.4243e+06
3.424e+06
3.42575e+06
3.43311e+06
3.44052e+06
3.44718e+06
3.45245e+06
3.45691e+06
3.4606e+06
3.46373e+06
3.4664e+06
3.46868e+06
3.47066e+06
3.47237e+06
3.47386e+06
3.47517e+06
3.47633e+06
3.47735e+06
3.47826e+06
3.47908e+06
3.47982e+06
3.48048e+06
3.48109e+06
3.48164e+06
3.48215e+06
3.48262e+06
3.48305e+06
3.48344e+06
3.48381e+06
3.48415e+06
3.4222e+06
3.42412e+06
3.42405e+06
3.42499e+06
3.42502e+06
3.42761e+06
3.43504e+06
3.44225e+06
3.44866e+06
3.45373e+06
3.45801e+06
3.46154e+06
3.46454e+06
3.46709e+06
3.46928e+06
3.47116e+06
3.47279e+06
3.47422e+06
3.47547e+06
3.47658e+06
3.47756e+06
3.47843e+06
3.47921e+06
3.47992e+06
3.48056e+06
3.48115e+06
3.48168e+06
3.48217e+06
3.48263e+06
3.48304e+06
3.48343e+06
3.48379e+06
3.48412e+06
3.48648e+06
3.486e+06
3.48572e+06
3.48559e+06
3.48557e+06
3.48564e+06
3.48578e+06
3.48597e+06
3.48619e+06
3.48644e+06
3.48671e+06
3.48699e+06
3.48727e+06
3.48756e+06
3.48784e+06
3.48812e+06
3.4884e+06
3.48866e+06
3.48891e+06
3.48916e+06
3.48759e+06
3.48644e+06
3.48568e+06
3.4852e+06
3.48494e+06
3.48485e+06
3.48487e+06
3.48499e+06
3.48517e+06
3.48541e+06
3.48567e+06
3.48596e+06
3.48627e+06
3.48658e+06
3.48689e+06
3.4872e+06
3.48751e+06
3.48781e+06
3.4881e+06
3.48838e+06
3.48865e+06
3.48891e+06
3.57687e+06
3.57002e+06
3.57528e+06
3.56785e+06
3.5713e+06
3.56668e+06
3.56625e+06
3.56471e+06
3.56275e+06
3.56524e+06
3.5176e+06
3.4998e+06
3.49554e+06
3.4912e+06
3.48872e+06
3.48681e+06
3.4856e+06
3.48481e+06
3.48434e+06
3.48412e+06
3.48407e+06
3.48415e+06
3.48432e+06
3.48456e+06
3.48484e+06
3.48515e+06
3.48548e+06
3.48582e+06
3.48617e+06
3.48651e+06
3.48685e+06
3.48718e+06
3.4875e+06
3.48781e+06
3.48811e+06
3.48839e+06
3.48866e+06
3.58351e+06
3.57307e+06
3.58179e+06
3.5721e+06
3.5769e+06
3.57109e+06
3.57113e+06
3.56854e+06
3.56719e+06
3.56853e+06
3.56458e+06
3.55854e+06
3.52632e+06
3.50013e+06
3.49609e+06
3.49054e+06
3.48802e+06
3.48585e+06
3.48464e+06
3.48384e+06
3.48342e+06
3.48325e+06
3.48326e+06
3.48341e+06
3.48364e+06
3.48393e+06
3.48427e+06
3.48463e+06
3.485e+06
3.48538e+06
3.48576e+06
3.48613e+06
3.4865e+06
3.48685e+06
3.4872e+06
3.48752e+06
3.48784e+06
3.48814e+06
3.48842e+06
3.58765e+06
3.57507e+06
3.58553e+06
3.57497e+06
3.58023e+06
3.57391e+06
3.57412e+06
3.57086e+06
3.57052e+06
3.57121e+06
3.56857e+06
3.56502e+06
3.53536e+06
3.50026e+06
3.49596e+06
3.48947e+06
3.48697e+06
3.48466e+06
3.48351e+06
3.48275e+06
3.48241e+06
3.48232e+06
3.48242e+06
3.48264e+06
3.48294e+06
3.48329e+06
3.48369e+06
3.4841e+06
3.48452e+06
3.48494e+06
3.48535e+06
3.48576e+06
3.48615e+06
3.48653e+06
3.48689e+06
3.48724e+06
3.48757e+06
3.48788e+06
3.48818e+06
3.48846e+06
3.58666e+06
3.57574e+06
3.58489e+06
3.57613e+06
3.58033e+06
3.57434e+06
3.57431e+06
3.57076e+06
3.57157e+06
3.57147e+06
3.57055e+06
3.56809e+06
3.54245e+06
3.49988e+06
3.49441e+06
3.48784e+06
3.48539e+06
3.48318e+06
3.48216e+06
3.48153e+06
3.48132e+06
3.48134e+06
3.48153e+06
3.48184e+06
3.48222e+06
3.48265e+06
3.4831e+06
3.48357e+06
3.48404e+06
3.4845e+06
3.48495e+06
3.48539e+06
3.48581e+06
3.48621e+06
3.4866e+06
3.48696e+06
3.48731e+06
3.48763e+06
3.48794e+06
3.48823e+06
3.5801e+06
3.57544e+06
3.57924e+06
3.57492e+06
3.57642e+06
3.57161e+06
3.5708e+06
3.56718e+06
3.56848e+06
3.56657e+06
3.5682e+06
3.56457e+06
3.54521e+06
3.49875e+06
3.49079e+06
3.48551e+06
3.48314e+06
3.48137e+06
3.48056e+06
3.48016e+06
3.48012e+06
3.48029e+06
3.48061e+06
3.48102e+06
3.48149e+06
3.482e+06
3.48252e+06
3.48304e+06
3.48356e+06
3.48406e+06
3.48455e+06
3.48502e+06
3.48547e+06
3.4859e+06
3.4863e+06
3.48669e+06
3.48705e+06
3.48739e+06
3.48771e+06
3.48801e+06
3.48829e+06
3.56762e+06
3.5728e+06
3.568e+06
3.57023e+06
3.56805e+06
3.56518e+06
3.56318e+06
3.55979e+06
3.56045e+06
3.55627e+06
3.56021e+06
3.55472e+06
3.54209e+06
3.49776e+06
3.48512e+06
3.4826e+06
3.48023e+06
3.47927e+06
3.47872e+06
3.47867e+06
3.47883e+06
3.47919e+06
3.47965e+06
3.48019e+06
3.48076e+06
3.48134e+06
3.48193e+06
3.48251e+06
3.48308e+06
3.48363e+06
3.48415e+06
3.48466e+06
3.48513e+06
3.48559e+06
3.48601e+06
3.48642e+06
3.48679e+06
3.48715e+06
3.48748e+06
3.48779e+06
3.48808e+06
3.55122e+06
3.56693e+06
3.55182e+06
3.5609e+06
3.55462e+06
3.55404e+06
3.551e+06
3.54871e+06
3.54825e+06
3.543e+06
3.54775e+06
3.54126e+06
3.53437e+06
3.49672e+06
3.47818e+06
3.47921e+06
3.47683e+06
3.47692e+06
3.4767e+06
3.47706e+06
3.47747e+06
3.47805e+06
3.47867e+06
3.47934e+06
3.48001e+06
3.48069e+06
3.48135e+06
3.48199e+06
3.48261e+06
3.4832e+06
3.48377e+06
3.4843e+06
3.48481e+06
3.48528e+06
3.48573e+06
3.48615e+06
3.48655e+06
3.48691e+06
3.48726e+06
3.48758e+06
3.48788e+06
3.52835e+06
3.55283e+06
3.53075e+06
3.54491e+06
3.53489e+06
3.5363e+06
3.53322e+06
3.5338e+06
3.5336e+06
3.52959e+06
3.53379e+06
3.52754e+06
3.52526e+06
3.49377e+06
3.47134e+06
3.47524e+06
3.47321e+06
3.47438e+06
3.47456e+06
3.47537e+06
3.47606e+06
3.47688e+06
3.47768e+06
3.47848e+06
3.47927e+06
3.48004e+06
3.48077e+06
3.48148e+06
3.48215e+06
3.48278e+06
3.48339e+06
3.48395e+06
3.48448e+06
3.48498e+06
3.48545e+06
3.48589e+06
3.4863e+06
3.48668e+06
3.48704e+06
3.48737e+06
3.48768e+06
3.50187e+06
3.52936e+06
3.5054e+06
3.52077e+06
3.50752e+06
3.50977e+06
3.50839e+06
3.5146e+06
3.51794e+06
3.51767e+06
3.52096e+06
3.51609e+06
3.51651e+06
3.48913e+06
3.46582e+06
3.47078e+06
3.46971e+06
3.47171e+06
3.47239e+06
3.47365e+06
3.47464e+06
3.4757e+06
3.47667e+06
3.47763e+06
3.47853e+06
3.47939e+06
3.48021e+06
3.48097e+06
3.4817e+06
3.48238e+06
3.48301e+06
3.48361e+06
3.48417e+06
3.48469e+06
3.48518e+06
3.48564e+06
3.48606e+06
3.48646e+06
3.48683e+06
3.48717e+06
3.48748e+06
3.47211e+06
3.49636e+06
3.47623e+06
3.48884e+06
3.47302e+06
3.47428e+06
3.47646e+06
3.49137e+06
3.50216e+06
3.50754e+06
3.51026e+06
3.5074e+06
3.50846e+06
3.48441e+06
3.4617e+06
3.46616e+06
3.46649e+06
3.46901e+06
3.47026e+06
3.47192e+06
3.47322e+06
3.47452e+06
3.47568e+06
3.47678e+06
3.47781e+06
3.47876e+06
3.47965e+06
3.48048e+06
3.48125e+06
3.48198e+06
3.48265e+06
3.48328e+06
3.48387e+06
3.48441e+06
3.48492e+06
3.48539e+06
3.48583e+06
3.48624e+06
3.48662e+06
3.48697e+06
3.48729e+06
3.4446e+06
3.46129e+06
3.44774e+06
3.45469e+06
3.43702e+06
3.43526e+06
3.44198e+06
3.46693e+06
3.48722e+06
3.49858e+06
3.50137e+06
3.50045e+06
3.50076e+06
3.48015e+06
3.45804e+06
3.46163e+06
3.46348e+06
3.46634e+06
3.46821e+06
3.47021e+06
3.47183e+06
3.47336e+06
3.47471e+06
3.47596e+06
3.47709e+06
3.47814e+06
3.47911e+06
3.48e+06
3.48083e+06
3.48159e+06
3.4823e+06
3.48296e+06
3.48357e+06
3.48414e+06
3.48467e+06
3.48515e+06
3.48561e+06
3.48603e+06
3.48642e+06
3.48677e+06
3.4871e+06
3.4247e+06
3.43417e+06
3.42671e+06
3.42865e+06
3.41098e+06
3.40622e+06
3.41559e+06
3.44776e+06
3.47524e+06
3.49041e+06
3.49319e+06
3.49373e+06
3.49308e+06
3.47565e+06
3.45423e+06
3.45731e+06
3.46061e+06
3.46377e+06
3.46624e+06
3.46856e+06
3.47049e+06
3.47224e+06
3.47377e+06
3.47516e+06
3.47641e+06
3.47754e+06
3.47858e+06
3.47953e+06
3.48041e+06
3.48122e+06
3.48196e+06
3.48265e+06
3.48329e+06
3.48387e+06
3.48442e+06
3.48492e+06
3.48539e+06
3.48582e+06
3.48622e+06
3.48659e+06
3.48692e+06
3.41941e+06
3.42563e+06
3.42034e+06
3.42137e+06
3.40583e+06
3.40183e+06
3.40862e+06
3.44085e+06
3.46818e+06
3.48287e+06
3.48501e+06
3.48642e+06
3.48532e+06
3.47049e+06
3.45034e+06
3.45337e+06
3.45788e+06
3.46136e+06
3.46439e+06
3.467e+06
3.46921e+06
3.47116e+06
3.47287e+06
3.47439e+06
3.47574e+06
3.47697e+06
3.47808e+06
3.47909e+06
3.48001e+06
3.48086e+06
3.48164e+06
3.48235e+06
3.48301e+06
3.48362e+06
3.48418e+06
3.4847e+06
3.48518e+06
3.48562e+06
3.48603e+06
3.4864e+06
3.48675e+06
3.42758e+06
3.43533e+06
3.42807e+06
3.4326e+06
3.42038e+06
3.42081e+06
3.42171e+06
3.44595e+06
3.46549e+06
3.47597e+06
3.47702e+06
3.47884e+06
3.47768e+06
3.46505e+06
3.44671e+06
3.44998e+06
3.45536e+06
3.45918e+06
3.46267e+06
3.46554e+06
3.46801e+06
3.47015e+06
3.47201e+06
3.47366e+06
3.47511e+06
3.47642e+06
3.4776e+06
3.47866e+06
3.47963e+06
3.48051e+06
3.48132e+06
3.48207e+06
3.48275e+06
3.48337e+06
3.48395e+06
3.48448e+06
3.48498e+06
3.48543e+06
3.48584e+06
3.48623e+06
3.48658e+06
3.44034e+06
3.45077e+06
3.4421e+06
3.44994e+06
3.44143e+06
3.44719e+06
3.4421e+06
3.45492e+06
3.46438e+06
3.46987e+06
3.46999e+06
3.47192e+06
3.47069e+06
3.46006e+06
3.44354e+06
3.44726e+06
3.4531e+06
3.45726e+06
3.46109e+06
3.4642e+06
3.4669e+06
3.4692e+06
3.47121e+06
3.47296e+06
3.47452e+06
3.4759e+06
3.47714e+06
3.47826e+06
3.47927e+06
3.48019e+06
3.48103e+06
3.48179e+06
3.4825e+06
3.48314e+06
3.48373e+06
3.48428e+06
3.48478e+06
3.48524e+06
3.48567e+06
3.48605e+06
3.48641e+06
3.45404e+06
3.4628e+06
3.4555e+06
3.46294e+06
3.45841e+06
3.46512e+06
3.45782e+06
3.46064e+06
3.4628e+06
3.46486e+06
3.46449e+06
3.46634e+06
3.46484e+06
3.45591e+06
3.44085e+06
3.44513e+06
3.45111e+06
3.4556e+06
3.45966e+06
3.46298e+06
3.46586e+06
3.46832e+06
3.47045e+06
3.47232e+06
3.47396e+06
3.47541e+06
3.47671e+06
3.47787e+06
3.47892e+06
3.47988e+06
3.48074e+06
3.48153e+06
3.48226e+06
3.48292e+06
3.48352e+06
3.48408e+06
3.48459e+06
3.48506e+06
3.48549e+06
3.48589e+06
3.48625e+06
3.46485e+06
3.46688e+06
3.46574e+06
3.46784e+06
3.47009e+06
3.47027e+06
3.46589e+06
3.46195e+06
3.46039e+06
3.46087e+06
3.46024e+06
3.46187e+06
3.46014e+06
3.45242e+06
3.43847e+06
3.44339e+06
3.44933e+06
3.45415e+06
3.45836e+06
3.46188e+06
3.46492e+06
3.46751e+06
3.46976e+06
3.47171e+06
3.47343e+06
3.47495e+06
3.4763e+06
3.47751e+06
3.4786e+06
3.47958e+06
3.48048e+06
3.48129e+06
3.48203e+06
3.4827e+06
3.48332e+06
3.48389e+06
3.48441e+06
3.48489e+06
3.48533e+06
3.48573e+06
3.4861e+06
3.47314e+06
3.46619e+06
3.47294e+06
3.4674e+06
3.47768e+06
3.46931e+06
3.4675e+06
3.46059e+06
3.45729e+06
3.45724e+06
3.45646e+06
3.45787e+06
3.45613e+06
3.44911e+06
3.43616e+06
3.4418e+06
3.44771e+06
3.45284e+06
3.45718e+06
3.46089e+06
3.46405e+06
3.46677e+06
3.46912e+06
3.47116e+06
3.47295e+06
3.47453e+06
3.47593e+06
3.47718e+06
3.4783e+06
3.47931e+06
3.48023e+06
3.48106e+06
3.48181e+06
3.4825e+06
3.48313e+06
3.48371e+06
3.48424e+06
3.48473e+06
3.48517e+06
3.48558e+06
3.48595e+06
3.47521e+06
3.46461e+06
3.47468e+06
3.46594e+06
3.47834e+06
3.46775e+06
3.46452e+06
3.45769e+06
3.45356e+06
3.45339e+06
3.45257e+06
3.45385e+06
3.45232e+06