/*--------------------------------*- C++ -*----------------------------------*\
| =========                 |                                                 |
| \\      /  F ield         | OpenFOAM: The Open Source CFD Toolbox           |
|  \\    /   O peration     | Version:  v2012                                 |
|   \\  /    A nd           | Website:  www.openfoam.com                      |
|    \\/     M anipulation  |                                                 |
\*---------------------------------------------------------------------------*/
FoamFile
{
    version     2.0;
    format      ascii;
    class       surfaceScalarField;
    location    "0.2";
    object      phi;
}
// * * * * * * * * * * * * * * * * * * * * * * * * * * * * * * * * * * * * * //

dimensions      [0 3 -1 0 0 0 0];
oriented        oriented;


internalField   nonuniform List<scalar> 
8162
(
-1.27716e-08
-1.14392e-07
-2.2663e-15
-1.42036e-08
-1.15921e-07
-2.1584e-15
-1.56534e-08
-1.17215e-07
-2.12862e-15
-1.71138e-08
-1.18158e-07
-2.05407e-15
-1.85768e-08
-1.1867e-07
-1.99049e-15
-2.00346e-08
-1.18655e-07
-1.89898e-15
-2.14786e-08
-1.18041e-07
-1.8352e-15
-2.29002e-08
-1.16757e-07
-1.78865e-15
-2.42903e-08
-1.14726e-07
-1.73973e-15
-2.56398e-08
-1.11907e-07
-1.70277e-15
-2.69385e-08
-1.08219e-07
-1.56718e-15
-2.81762e-08
-1.03617e-07
-1.69603e-15
-2.93422e-08
-9.80426e-08
-1.54303e-15
-3.04253e-08
-9.14397e-08
-1.4604e-15
-3.14132e-08
-8.37578e-08
-1.3569e-15
-3.22938e-08
-7.49478e-08
-1.25287e-15
-3.30536e-08
-6.49684e-08
-1.14251e-15
-3.3679e-08
-5.37794e-08
-1.03223e-15
-3.41563e-08
-4.13545e-08
-9.30981e-16
-2.76755e-08
-8.25975e-16
-1.11418e-08
-1.09647e-07
-2.79769e-15
-1.25323e-08
-1.11334e-07
-2.66793e-15
-1.3948e-08
-1.12976e-07
-2.51008e-15
-1.53836e-08
-1.14485e-07
-2.34721e-15
-1.68333e-08
-1.15766e-07
-2.23378e-15
-1.82903e-08
-1.16701e-07
-2.12304e-15
-1.97476e-08
-1.17213e-07
-2.03881e-15
-2.11974e-08
-1.17205e-07
-1.94332e-15
-2.26318e-08
-1.16607e-07
-1.87036e-15
-2.40424e-08
-1.15346e-07
-1.81619e-15
-2.54205e-08
-1.13348e-07
-1.7611e-15
-2.67568e-08
-1.10571e-07
-1.71378e-15
-2.80415e-08
-1.06934e-07
-1.53174e-15
-2.92642e-08
-1.02394e-07
-1.70854e-15
-3.04145e-08
-9.68923e-08
-1.56669e-15
-3.14808e-08
-9.03734e-08
-1.48147e-15
-3.24511e-08
-8.27876e-08
-1.37809e-15
-3.33128e-08
-7.40862e-08
-1.2724e-15
-3.40525e-08
-6.42287e-08
-1.16227e-15
-3.46564e-08
-5.31753e-08
-1.05198e-15
-3.51107e-08
-4.09002e-08
-9.49253e-16
-2.73856e-08
-8.43172e-16
2.68675e-11
-7.49655e-09
1.66374e-15
2.29943e-10
-2.35735e-08
7.24939e-15
4.29842e-10
-4.67256e-08
1.5869e-14
-1.87527e-09
-5.87148e-08
4.91609e-15
-5.01419e-09
-5.9294e-08
-1.82501e-15
-7.22868e-09
-6.99225e-08
-5.16095e-15
-7.76593e-09
-8.8705e-08
-1.51389e-14
-5.99152e-09
-1.07923e-07
-1.42014e-14
-2.77446e-09
-1.16845e-07
-2.14316e-14
-1.05192e-07
-5.61125e-14
-5.12449e-09
-9.60261e-08
-5.15055e-15
-6.66476e-09
-1.00233e-07
-5.43854e-15
-8.06687e-09
-1.03031e-07
-4.79691e-15
-9.43448e-09
-1.04938e-07
-4.81458e-15
-1.08049e-08
-1.06611e-07
-3.00681e-15
-1.21947e-08
-1.08257e-07
-3.43984e-15
-1.36051e-08
-1.09923e-07
-2.59401e-15
-1.50349e-08
-1.11546e-07
-2.40835e-15
-1.64799e-08
-1.1304e-07
-2.45988e-15
-1.79349e-08
-1.14311e-07
-2.39144e-15
-1.93939e-08
-1.15242e-07
-2.26031e-15
-2.08503e-08
-1.15757e-07
-2.14047e-15
-2.22969e-08
-1.15758e-07
-2.02076e-15
-2.3726e-08
-1.15177e-07
-1.92661e-15
-2.51297e-08
-1.13943e-07
-1.85821e-15
-2.64993e-08
-1.11979e-07
-1.79305e-15
-2.78258e-08
-1.09245e-07
-1.73926e-15
-2.90995e-08
-1.05661e-07
-1.56196e-15
-3.03102e-08
-1.01183e-07
-1.74395e-15
-3.14472e-08
-9.57553e-08
-1.59403e-15
-3.24991e-08
-8.93215e-08
-1.50433e-15
-3.34539e-08
-8.18329e-08
-1.3995e-15
-3.42987e-08
-7.32415e-08
-1.29165e-15
-3.50202e-08
-6.35072e-08
-1.1807e-15
-3.56044e-08
-5.2591e-08
-1.06924e-15
-3.60374e-08
-4.04673e-08
-9.6489e-16
-2.71189e-08
-8.57117e-16
2.29158e-11
-7.51947e-09
2.71108e-15
1.89121e-10
-2.37397e-08
4.69695e-15
2.85968e-10
-4.68225e-08
2.04428e-15
-2.3913e-09
-5.60376e-08
9.89887e-15
-5.78598e-09
-5.58993e-08
-8.83498e-16
-8.0451e-09
-6.76633e-08
2.05232e-16
-8.28637e-09
-8.84637e-08
-1.0415e-14
-6.03827e-09
-1.10171e-07
-2.34124e-14
-2.67608e-09
-1.20207e-07
-4.66544e-14
1.67362e-10
-1.08035e-07
-9.36153e-15
-1.36308e-09
-8.02909e-08
-1.649e-15
-3.76541e-09
-8.72842e-08
-5.45162e-15
-5.6452e-09
-9.41463e-08
-5.72537e-15
-7.33322e-09
-9.85446e-08
-5.36928e-15
-8.83781e-09
-1.01526e-07
-4.74896e-15
-1.02707e-08
-1.03505e-07
-5.16833e-15
-1.16898e-08
-1.05192e-07
-2.99638e-15
-1.31161e-08
-1.06831e-07
-3.9059e-15
-1.45555e-08
-1.08484e-07
-2.84486e-15
-1.60079e-08
-1.10094e-07
-2.56605e-15
-1.74703e-08
-1.11578e-07
-2.58943e-15
-1.89384e-08
-1.12842e-07
-2.46761e-15
-2.04067e-08
-1.13773e-07
-2.30487e-15
-2.18691e-08
-1.14294e-07
-2.16798e-15
-2.33188e-08
-1.14309e-07
-2.0475e-15
-2.47486e-08
-1.13748e-07
-1.94864e-15
-2.61507e-08
-1.12541e-07
-1.87884e-15
-2.75167e-08
-1.10613e-07
-1.81077e-15
-2.8838e-08
-1.07923e-07
-1.75452e-15
-3.01048e-08
-1.04394e-07
-1.56902e-15
-3.1307e-08
-9.99807e-08
-1.77433e-15
-3.24342e-08
-9.46281e-08
-1.61728e-15
-3.34748e-08
-8.82809e-08
-1.52397e-15
-3.44167e-08
-8.0891e-08
-1.41784e-15
-3.52473e-08
-7.2411e-08
-1.30822e-15
-3.59529e-08
-6.28016e-08
-1.19673e-15
-3.65196e-08
-5.20241e-08
-1.08441e-15
-3.69331e-08
-4.00538e-08
-9.78758e-16
-2.68735e-08
-8.69488e-16
1.84054e-11
-7.53788e-09
2.49479e-15
1.46898e-10
-2.38682e-08
3.87264e-15
8.94323e-11
-4.6765e-08
8.00012e-15
-3.02717e-09
-5.2921e-08
1.08358e-14
-6.71971e-09
-5.22068e-08
1.63342e-15
-8.99133e-09
-6.53916e-08
-1.36383e-16
-8.88524e-09
-8.85698e-08
-1.1296e-14
-6.18097e-09
-1.12875e-07
-1.69979e-14
-2.52143e-09
-1.23867e-07
-1.76966e-14
4.05177e-10
-1.10962e-07
-2.44827e-14
-6.8933e-10
-7.91963e-08
-1.40439e-17
-3.77116e-09
-8.42024e-08
-3.98902e-15
-5.92315e-09
-9.19943e-08
-7.73863e-15
-7.78209e-09
-9.66857e-08
-6.16164e-15
-9.41434e-09
-9.98937e-08
-5.18193e-15
-1.09281e-08
-1.01991e-07
-5.72397e-15
-1.24099e-08
-1.0371e-07
-3.05017e-15
-1.38843e-08
-1.05356e-07
-4.05935e-15
-1.53636e-08
-1.07005e-07
-2.88885e-15
-1.68487e-08
-1.08609e-07
-2.63607e-15
-1.83384e-08
-1.10088e-07
-2.73344e-15
-1.98287e-08
-1.11352e-07
-2.59624e-15
-2.13149e-08
-1.12287e-07
-2.39778e-15
-2.27914e-08
-1.12818e-07
-2.23059e-15
-2.42518e-08
-1.12848e-07
-2.09838e-15
-2.56892e-08
-1.1231e-07
-1.98802e-15
-2.7096e-08
-1.11134e-07
-1.91216e-15
-2.84643e-08
-1.09244e-07
-1.83554e-15
-2.97856e-08
-1.06602e-07
-1.76814e-15
-3.10504e-08
-1.03129e-07
-1.55191e-15
-3.22486e-08
-9.87823e-08
-1.79806e-15
-3.33698e-08
-9.35068e-08
-1.63634e-15
-3.44028e-08
-8.7248e-08
-1.53966e-15
-3.53352e-08
-7.99585e-08
-1.43242e-15
-3.61545e-08
-7.15918e-08
-1.32137e-15
-3.6847e-08
-6.2109e-08
-1.20978e-15
-3.73986e-08
-5.14723e-08
-1.09692e-15
-3.77952e-08
-3.96573e-08
-9.9055e-16
-3.80213e-08
-2.66472e-08
-8.81031e-16
-1.24403e-08
-7.67436e-16
1.37581e-11
-7.55162e-09
4.40255e-15
1.05356e-10
-2.39598e-08
2.23411e-15
-2.02175e-10
-4.64574e-08
7.41296e-15
-3.79676e-09
-4.93265e-08
1.26671e-14
-7.72474e-09
-4.82788e-08
4.17949e-15
-9.90086e-09
-6.32156e-08
-1.90748e-14
-9.39972e-09
-8.90709e-08
-1.25357e-14
-6.22329e-09
-1.16051e-07
-1.88871e-14
-2.07591e-09
-1.28014e-07
-7.11446e-15
1.58306e-09
-1.14621e-07
-3.40127e-14
1.12587e-09
-7.87392e-08
-1.41544e-14
-3.38222e-09
-7.96943e-08
-6.00318e-15
-5.9413e-09
-8.94352e-08
-8.53546e-15
-7.99799e-09
-9.4629e-08
-6.03576e-15
-9.78334e-09
-9.81083e-08
-5.0409e-15
-1.13953e-08
-1.00379e-07
-5.71776e-15
-1.29537e-08
-1.02152e-07
-3.05674e-15
-1.4488e-08
-1.03822e-07
-4.09291e-15
-1.60183e-08
-1.05474e-07
-3.12536e-15
-1.75465e-08
-1.07081e-07
-2.90181e-15
-1.90734e-08
-1.08561e-07
-2.95972e-15
-2.05955e-08
-1.0983e-07
-2.75203e-15
-2.21088e-08
-1.10774e-07
-2.49887e-15
-2.3608e-08
-1.11319e-07
-2.28919e-15
-2.50871e-08
-1.11369e-07
-2.13874e-15
-2.65396e-08
-1.10858e-07
-2.01083e-15
-2.79582e-08
-1.09715e-07
-1.92834e-15
-2.93353e-08
-1.07867e-07
-1.84397e-15
-3.06625e-08
-1.05275e-07
-1.76857e-15
-3.19306e-08
-1.01861e-07
-1.55472e-15
-3.31297e-08
-9.75831e-08
-1.82103e-15
-3.42495e-08
-9.23869e-08
-1.65143e-15
-3.52788e-08
-8.62187e-08
-1.55144e-15
-3.62055e-08
-7.90319e-08
-1.44366e-15
-3.70169e-08
-7.07806e-08
-1.33171e-15
-3.76993e-08
-6.14266e-08
-1.22055e-15
-3.82388e-08
-5.09327e-08
-1.10749e-15
-3.8621e-08
-3.92751e-08
-1.00082e-15
-3.88304e-08
-2.64376e-08
-8.90897e-16
-1.24184e-08
-7.80334e-16
9.17771e-12
-7.56078e-09
4.95914e-15
6.31694e-11
-2.40138e-08
1.41944e-15
-6.09855e-10
-4.57844e-08
-2.23334e-16
-4.66026e-09
-4.52761e-08
1.47798e-14
-8.69435e-09
-4.42447e-08
5.49693e-15
-1.07217e-08
-6.11882e-08
-2.57724e-14
-9.89726e-09
-8.98955e-08
-1.90264e-14
-6.31571e-09
-1.19633e-07
-1.50704e-14
-1.59616e-09
-1.32734e-07
-1.43561e-14
3.06544e-09
-1.19283e-07
-2.62719e-14
3.81459e-09
-7.94885e-08
-3.72062e-14
-2.57311e-09
-7.33065e-08
2.84926e-15
-5.72038e-09
-8.62879e-08
-8.55501e-15
-7.99907e-09
-9.23503e-08
-5.43797e-15
-9.95396e-09
-9.61534e-08
-5.07799e-15
-1.16781e-08
-9.86549e-08
-5.93327e-15
-1.3323e-08
-1.00507e-07
-3.07445e-15
-1.4927e-08
-1.02218e-07
-4.04723e-15
-1.65174e-08
-1.03884e-07
-3.03321e-15
-1.80979e-08
-1.055e-07
-2.75739e-15
-1.96711e-08
-1.06988e-07
-2.83372e-15
-2.1234e-08
-1.08267e-07
-2.6573e-15
-2.27831e-08
-1.09225e-07
-2.44338e-15
-2.43134e-08
-1.09788e-07
-2.2612e-15
-2.58193e-08
-1.09863e-07
-2.14096e-15
-2.72945e-08
-1.09383e-07
-2.02425e-15
-2.87321e-08
-1.08277e-07
-1.9489e-15
-3.01246e-08
-1.06475e-07
-1.86082e-15
-3.14639e-08
-1.03936e-07
-1.78022e-15
-3.2741e-08
-1.00584e-07
-1.57942e-15
-3.39462e-08
-9.63778e-08
-1.87254e-15
-3.50693e-08
-9.12637e-08
-1.66976e-15
-3.60994e-08
-8.51887e-08
-1.56149e-15
-3.70242e-08
-7.8107e-08
-1.45242e-15
-3.78314e-08
-6.99735e-08
-1.3398e-15
-3.85072e-08
-6.07508e-08
-1.22955e-15
-3.90375e-08
-5.04022e-08
-1.11673e-15
-3.94081e-08
-3.89045e-08
-1.01012e-15
-3.96036e-08
-2.6242e-08
-9.00194e-16
-3.96092e-08
-1.24131e-08
-7.91374e-16
2.55736e-09
-6.80328e-16
4.91384e-12
-7.56566e-09
5.92149e-15
1.90181e-11
-2.40279e-08
5.35929e-17
-1.11116e-09
-4.46542e-08
-4.72446e-16
-5.53004e-09
-4.08573e-08
1.36247e-14
-9.5784e-09
-4.01962e-08
4.87017e-15
-1.15728e-08
-5.91939e-08
-2.12204e-14
-1.06556e-08
-9.08127e-08
-8.38294e-15
-6.85048e-09
-1.23438e-07
-1.11293e-14
-1.6322e-09
-1.37952e-07
-2.63941e-15
3.69006e-09
-1.24605e-07
-1.90045e-14
5.99138e-09
-8.17898e-08
-1.56578e-15
-1.47018e-09
-6.5845e-08
-6.2211e-15
-5.28811e-09
-8.247e-08
-1.06211e-14
-7.81828e-09
-8.98201e-08
-5.26618e-15
-9.9468e-09
-9.40248e-08
-5.23248e-15
-1.17935e-08
-9.68083e-08
-6.07811e-15
-1.35297e-08
-9.87707e-08
-3.29671e-15
-1.52099e-08
-1.00538e-07
-4.17413e-15
-1.68664e-08
-1.02227e-07
-3.20767e-15
-1.85063e-08
-1.0386e-07
-2.96943e-15
-2.01329e-08
-1.05361e-07
-3.04474e-15
-2.17441e-08
-1.06656e-07
-2.84221e-15
-2.33367e-08
-1.07632e-07
-2.58688e-15
-2.49058e-08
-1.08219e-07
-2.35443e-15
-2.6446e-08
-1.08323e-07
-2.20225e-15
-2.79512e-08
-1.07877e-07
-2.05417e-15
-2.94146e-08
-1.06814e-07
-1.96476e-15
-3.08291e-08
-1.05061e-07
-1.86542e-15
-3.21866e-08
-1.02578e-07
-1.77823e-15
-3.34785e-08
-9.92924e-08
-1.55995e-15
-3.4695e-08
-9.51611e-08
-1.90007e-15
-3.58264e-08
-9.01322e-08
-1.68245e-15
-3.68617e-08
-8.41535e-08
-1.56841e-15
-3.77889e-08
-7.71798e-08
-1.45873e-15
-3.85956e-08
-6.9167e-08
-1.34599e-15
-3.92682e-08
-6.00781e-08
-1.23717e-15
-3.97927e-08
-4.98776e-08
-1.12509e-15
-4.01548e-08
-3.85425e-08
-1.0189e-15
-4.0339e-08
-2.60576e-08
-9.09184e-16
-4.03306e-08
-1.24217e-08
-8.01914e-16
2.34036e-09
-6.94605e-16
1.05542e-12
-7.56668e-09
5.64983e-15
-2.98548e-11
-2.3997e-08
9.89592e-17
-1.64748e-09
-4.30366e-08
-9.52946e-15
-6.29316e-09
-3.62116e-08
1.42585e-14
-1.03568e-08
-3.61326e-08
1.60728e-15
-1.25657e-08
-5.6985e-08
-2.15227e-14
-1.18319e-08
-9.15465e-08
-1.87497e-15
-7.97515e-09
-1.27295e-07
-3.99272e-15
-2.43676e-09
-1.4349e-07
-1.0898e-14
3.00387e-09
-1.30046e-07
-2.59958e-14
6.7025e-09
-8.54883e-08
2.69909e-14
-3.43625e-10
-5.87989e-08
-3.86368e-15
-4.68501e-09
-7.81286e-08
-1.06411e-14
-7.49036e-09
-8.70148e-08
-5.55472e-15
-9.78636e-09
-9.17288e-08
-4.77151e-15
-1.17632e-08
-9.48314e-08
-5.26081e-15
-1.35915e-08
-9.69425e-08
-3.42737e-15
-1.53511e-08
-9.87783e-08
-4.1947e-15
-1.70765e-08
-1.00502e-07
-3.37738e-15
-1.878e-08
-1.02157e-07
-3.05245e-15
-2.04651e-08
-1.03676e-07
-2.99299e-15
-2.21303e-08
-1.0499e-07
-2.75274e-15
-2.37725e-08
-1.0599e-07
-2.51591e-15
-2.53868e-08
-1.06605e-07
-2.31119e-15
-2.69678e-08
-1.06742e-07
-2.19263e-15
-2.85095e-08
-1.06336e-07
-2.05769e-15
-3.00051e-08
-1.05318e-07
-1.97734e-15
-3.14476e-08
-1.03618e-07
-1.87584e-15
-3.28292e-08
-1.01197e-07
-1.78039e-15
-3.41413e-08
-9.79803e-08
-1.53261e-15
-3.53744e-08
-9.39278e-08
-1.87779e-15
-3.65189e-08
-8.89877e-08
-1.6853e-15
-3.75639e-08
-8.31086e-08
-1.57224e-15
-3.84976e-08
-7.62461e-08
-1.46316e-15
-3.93077e-08
-6.8357e-08
-1.35074e-15
-3.99806e-08
-5.94051e-08
-1.2438e-15
-4.05026e-08
-4.93555e-08
-1.13291e-15
-4.08592e-08
-3.81859e-08
-1.02756e-15
-4.10351e-08
-2.58815e-08
-9.18272e-16
-4.10155e-08
-1.24416e-08
-8.12137e-16
2.10923e-09
-7.0666e-16
-2.24053e-12
-7.56442e-09
4.65577e-15
-8.21807e-11
-2.39171e-08
1.19371e-15
-2.11367e-09
-4.10051e-08
-1.15635e-14
-6.78966e-09
-3.15356e-08
7.09369e-15
-1.0901e-08
-3.20212e-08
-2.87757e-15
-1.3525e-08
-5.4361e-08
-3.52386e-15
-1.3117e-08
-9.19544e-08
9.7485e-16
-9.26847e-09
-1.31143e-07
-5.14221e-16
-3.62755e-09
-1.49131e-07
-6.14806e-15
1.62247e-09
-1.35296e-07
-3.15461e-14
6.11505e-09
-8.99808e-08
2.65155e-14
5.29115e-10
-5.32129e-08
8.41135e-15
-3.99702e-09
-7.36024e-08
-9.92709e-15
-7.05383e-09
-8.3958e-08
-5.85727e-15
-9.50476e-09
-8.92779e-08
-5.42496e-15
-1.16114e-08
-9.27247e-08
-5.82474e-15
-1.35297e-08
-9.50242e-08
-3.96945e-15
-1.53685e-08
-9.69395e-08
-4.51984e-15
-1.7163e-08
-9.87074e-08
-3.38671e-15
-1.89315e-08
-1.00388e-07
-2.98203e-15
-2.06775e-08
-1.0193e-07
-2.9581e-15
-2.24004e-08
-1.03267e-07
-2.7791e-15
-2.40964e-08
-1.04294e-07
-2.56635e-15
-2.57608e-08
-1.0494e-07
-2.35227e-15
-2.73879e-08
-1.05115e-07
-2.21689e-15
-2.89714e-08
-1.04752e-07
-2.0665e-15
-3.05047e-08
-1.03785e-07
-1.9784e-15
-3.19807e-08
-1.02142e-07
-1.87017e-15
-3.33916e-08
-9.97859e-08
-1.76895e-15
-3.4729e-08
-9.6643e-08
-1.50482e-15
-3.59836e-08
-9.26731e-08
-1.8498e-15
-3.71457e-08
-8.78255e-08
-1.67968e-15
-3.82047e-08
-8.20496e-08
-1.57178e-15
-3.9149e-08
-7.53019e-08
-1.46544e-15
-3.99662e-08
-6.75399e-08
-1.35423e-15
-4.06432e-08
-5.87282e-08
-1.24966e-15
-4.11658e-08
-4.88327e-08
-1.14041e-15
-4.15201e-08
-3.78316e-08
-1.03622e-15
-4.16906e-08
-2.57109e-08
-9.27674e-16
-4.16626e-08
-1.24698e-08
-8.22539e-16
1.86659e-09
-7.1925e-16
-4.94023e-12
-7.55946e-09
3.6489e-15
-1.31379e-10
-2.37907e-08
2.34237e-15
-2.38329e-09
-3.87533e-08
-1.73632e-14
-6.80495e-09
-2.71139e-08
-4.97631e-15
-1.0873e-08
-2.79531e-08
-3.07496e-15
-1.38581e-08
-5.13758e-08
-6.39011e-16
-1.36617e-08
-9.21508e-08
8.87118e-15
-9.80777e-09
-1.34997e-07
3.79123e-15
-4.32589e-09
-1.54613e-07
6.07078e-15
5.24396e-10
-1.40146e-07
-4.13305e-14
4.94039e-09
-9.43968e-08
-1.55822e-14
1.01546e-09
-4.9288e-08
-3.37341e-15
-3.31518e-09
-6.92718e-08
-5.08804e-15
-6.54467e-09
-8.07285e-08
-4.94021e-15
-9.13492e-09
-8.66876e-08
-4.75424e-15
-1.13611e-08
-9.04985e-08
-5.1362e-15
-1.33671e-08
-9.30183e-08
-3.85765e-15
-1.52816e-08
-9.5025e-08
-4.41969e-15
-1.71431e-08
-9.68458e-08
-3.52163e-15
-1.89758e-08
-9.85555e-08
-3.08788e-15
-2.0783e-08
-1.00123e-07
-2.9454e-15
-2.25649e-08
-1.01486e-07
-2.722e-15
-2.43171e-08
-1.02542e-07
-2.51468e-15
-2.60347e-08
-1.03223e-07
-2.32024e-15
-2.77115e-08
-1.03438e-07
-2.20738e-15
-2.93411e-08
-1.03123e-07
-2.0678e-15
-3.09164e-08
-1.02209e-07
-1.9853e-15
-3.24304e-08
-1.00628e-07
-1.8744e-15
-3.38752e-08
-9.83411e-08
-1.76592e-15
-3.52424e-08
-9.52759e-08
-1.50616e-15
-3.65228e-08
-9.13926e-08
-1.83257e-15
-3.77068e-08
-8.66414e-08
-1.67229e-15
-3.87839e-08
-8.09725e-08
-1.56909e-15
-3.97425e-08
-7.43432e-08
-1.46625e-15
-4.05706e-08
-6.67119e-08
-1.35689e-15
-4.12549e-08
-5.80439e-08
-1.25503e-15
-4.17816e-08
-4.83058e-08
-1.14776e-15
-4.21367e-08
-3.74766e-08
-1.04497e-15
-4.23046e-08
-2.55428e-08
-9.37333e-16
-4.22709e-08
-1.25038e-08
-8.3336e-16
1.61506e-09
-7.31991e-16
-6.75005e-12
-7.55271e-09
1.84595e-15
-1.59855e-10
-2.36375e-08
4.12793e-15
-2.32896e-09
-3.65842e-08
-2.14839e-14
-6.07003e-09
-2.33727e-08
-9.84628e-15
-9.72038e-09
-2.43027e-08
1.07667e-16
-1.26453e-08
-4.84508e-08
3.7363e-15
-1.22847e-08
-9.25115e-08
-7.08076e-15
-8.46574e-09
-1.38816e-07
-7.93415e-15
-3.54925e-09
-1.59529e-07
-7.95953e-15
4.891e-10
-1.44184e-07
-2.88558e-14
3.97404e-09
-9.78817e-08
-8.07948e-14
1.28621e-09
-4.66001e-08
-3.30666e-14
-2.67201e-09
-6.53135e-08
2.22619e-16
-5.98847e-09
-7.7412e-08
-4.16273e-15
-8.6996e-09
-8.39765e-08
-4.31137e-15
-1.10318e-08
-8.81663e-08
-4.86046e-15
-1.31238e-08
-9.09262e-08
-3.76315e-15
-1.51093e-08
-9.30396e-08
-4.37819e-15
-1.70349e-08
-9.49202e-08
-3.40538e-15
-1.89288e-08
-9.66616e-08
-2.94343e-15
-2.07956e-08
-9.82564e-08
-2.81927e-15
-2.26359e-08
-9.96452e-08
-2.63708e-15
-2.44449e-08
-1.00733e-07
-2.45854e-15
-2.62171e-08
-1.01451e-07
-2.27836e-15
-2.79458e-08
-1.0171e-07
-2.17271e-15
-2.96241e-08
-1.01444e-07
-2.03691e-15
-3.12447e-08
-1.00589e-07
-1.95987e-15
-3.28002e-08
-9.90729e-08
-1.85267e-15
-3.42826e-08
-9.68588e-08
-1.74531e-15
-3.56833e-08
-9.38752e-08
-1.5004e-15
-3.69932e-08
-9.00826e-08
-1.812e-15
-3.82029e-08
-8.54317e-08
-1.66065e-15
-3.93017e-08
-7.98737e-08
-1.56363e-15
-4.02783e-08
-7.33667e-08
-1.4657e-15
-4.11206e-08
-6.58696e-08
-1.35896e-15
-4.18156e-08
-5.73489e-08
-1.26012e-15
-4.23494e-08
-4.77718e-08
-1.15507e-15
-4.27081e-08
-3.7118e-08
-1.0538e-15
-4.28764e-08
-2.53743e-08
-9.47189e-16
-4.28397e-08
-1.25408e-08
-8.4439e-16
1.35725e-09
-7.45131e-16
-7.31084e-12
-7.54538e-09
4.50672e-15
-1.50462e-10
-2.34944e-08
2.78992e-15
-1.89433e-09
-3.48403e-08
-1.36127e-14
-4.40322e-09
-2.08638e-08
-2.65794e-14
-6.94947e-09
-2.17565e-08
1.15393e-15
-9.06961e-09
-4.63307e-08
-4.47089e-15
-8.00228e-09
-9.35788e-08
-6.67277e-15
-4.41363e-09
-1.42405e-07
-1.97224e-15
-6.711e-10
-1.63272e-07
5.86504e-15
1.90557e-09
-1.46761e-07
-9.58906e-15
3.73046e-09
-9.97065e-08
-1.12847e-13
1.61157e-09
-4.44812e-08
-6.76877e-14
-2.06258e-09
-6.16393e-08
-5.58571e-15
-5.414e-09
-7.40606e-08
-4.43517e-15
-8.22018e-09
-8.11703e-08
-4.41034e-15
-1.06447e-08
-8.57418e-08
-5.19192e-15
-1.28193e-08
-8.87515e-08
-3.63303e-15
-1.48705e-08
-9.09884e-08
-4.37775e-15
-1.68562e-08
-9.29346e-08
-3.43482e-15
-1.8807e-08
-9.47108e-08
-2.94863e-15
-2.07304e-08
-9.63331e-08
-2.80837e-15
-2.26268e-08
-9.77488e-08
-2.62742e-15
-2.44914e-08
-9.88682e-08
-2.45841e-15
-2.63179e-08
-9.96241e-08
-2.28311e-15
-2.80991e-08
-9.99284e-08
-2.18025e-15
-2.98275e-08
-9.9716e-08
-2.0426e-15
-3.14952e-08
-9.89209e-08
-1.96209e-15
-3.30945e-08
-9.74736e-08
-1.85036e-15
-3.46172e-08
-9.53362e-08
-1.73699e-15
-3.60545e-08
-9.2438e-08
-1.50114e-15
-3.73971e-08
-8.87399e-08
-1.79542e-15
-3.86355e-08
-8.41933e-08
-1.64955e-15
-3.97592e-08
-7.87501e-08
-1.55782e-15
-4.07568e-08
-7.2369e-08
-1.4648e-15
-4.16165e-08
-6.50101e-08
-1.36098e-15
-4.23251e-08
-5.66403e-08
-1.26524e-15
-4.2869e-08
-4.72277e-08
-1.16252e-15
-4.32343e-08
-3.67527e-08
-1.06278e-15
-4.34056e-08
-2.52027e-08
-9.57219e-16
-4.33686e-08
-1.25781e-08
-8.55553e-16
1.09573e-09
-7.58585e-16
-6.63144e-12
-7.53877e-09
-2.06195e-16
-9.98672e-11
-2.34012e-08
5.48659e-15
-1.18089e-09
-3.37594e-08
-1.41688e-14
-1.98493e-09
-2.00598e-08
-1.96573e-14
-2.68029e-09
-2.10611e-08
-5.46657e-16
-3.1004e-09
-4.59106e-08
-2.24631e-14
-8.15758e-10
-9.58634e-08
-1.232e-14
2.22062e-09
-1.45441e-07
-1.01448e-14
4.10571e-09
-1.65157e-07
2.56314e-15
4.43454e-09
-1.4709e-07
-1.1006e-14
4.07252e-09
-9.93444e-08
-9.95034e-14
1.95995e-09
-4.23686e-08
-8.09223e-14
-1.51739e-09
-5.8162e-08
-6.16825e-15
-4.85988e-09
-7.07181e-08
-4.3203e-15
-7.72529e-09
-7.83049e-08
-3.9408e-15
-1.02251e-08
-8.3242e-08
-4.9059e-15
-1.2474e-08
-8.65027e-08
-3.22434e-15
-1.45846e-08
-8.88778e-08
-4.05033e-15
-1.66247e-08
-9.08944e-08
-3.32711e-15
-1.86272e-08
-9.27083e-08
-2.90832e-15
-2.06024e-08
-9.43579e-08
-2.75331e-15
-2.25512e-08
-9.58e-08
-2.54746e-15
-2.44686e-08
-9.69509e-08
-2.37272e-15
-2.63477e-08
-9.7745e-08
-2.20699e-15
-2.81806e-08
-9.80955e-08
-2.11646e-15
-2.9959e-08
-9.79376e-08
-1.99082e-15
-3.16746e-08
-9.72052e-08
-1.92263e-15
-3.3319e-08
-9.58293e-08
-1.82102e-15
-3.48836e-08
-9.37716e-08
-1.71311e-15
-3.63595e-08
-9.09622e-08
-1.4988e-15
-3.7737e-08
-8.73622e-08
-1.77602e-15
-3.90067e-08
-8.29235e-08
-1.63759e-15
-4.01579e-08
-7.75989e-08
-1.55183e-15
-4.11793e-08
-7.13476e-08
-1.46403e-15
-4.2059e-08
-6.41305e-08
-1.36334e-15
-4.2784e-08
-5.59153e-08
-1.27062e-15
-4.33406e-08
-4.66709e-08
-1.17019e-15
-4.3715e-08
-3.63783e-08
-1.07188e-15
-4.38921e-08
-2.50255e-08
-9.67357e-16
-4.38572e-08
-1.26133e-08
-8.66742e-16
8.32957e-10
-7.72146e-16
-5.26064e-12
-7.53352e-09
2.77832e-16
-3.31018e-11
-2.33733e-08
4.77877e-15
-4.70671e-10
-3.33218e-08
-3.24715e-15
4.30912e-10
-2.09614e-08
-6.58109e-15
1.85611e-09
-2.24863e-08
4.00854e-15
3.89604e-09
-4.79505e-08
-1.04253e-14
7.65983e-09
-9.96272e-08
-1.07299e-14
9.93734e-09
-1.47719e-07
-1.77463e-14
9.48438e-09
-1.64704e-07
2.65728e-15
7.0784e-09
-1.44684e-07
-7.89002e-15
4.38657e-09
-9.66525e-08
-8.61085e-14
2.04372e-09
-4.00257e-08
-9.10793e-14
-1.11079e-09
-5.50075e-08
-1.16312e-14
-4.3647e-09
-6.74642e-08
-4.82778e-15
-7.24506e-09
-7.54245e-08
-3.86088e-15
-9.79755e-09
-8.06895e-08
-4.97724e-15
-1.21073e-08
-8.41929e-08
-3.00551e-15
-1.42694e-08
-8.67157e-08
-3.81795e-15
-1.63572e-08
-8.88066e-08
-3.11406e-15
-1.84049e-08
-9.06606e-08
-2.77349e-15
-2.04263e-08
-9.23365e-08
-2.70993e-15
-2.24226e-08
-9.38037e-08
-2.55324e-15
-2.43888e-08
-9.49847e-08
-2.40252e-15
-2.63174e-08
-9.58163e-08
-2.23981e-15
-2.81998e-08
-9.62131e-08
-2.13852e-15
-3.0027e-08
-9.61104e-08
-2.00667e-15
-3.17899e-08
-9.54422e-08
-1.92815e-15
-3.34795e-08
-9.41397e-08
-1.81925e-15
-3.50868e-08
-9.21644e-08
-1.70443e-15
-3.66024e-08
-8.94467e-08
-1.50049e-15
-3.80164e-08
-8.5948e-08
-1.76079e-15
-3.93191e-08
-8.16207e-08
-1.62813e-15
-4.04999e-08
-7.64181e-08
-1.54733e-15
-4.15473e-08
-7.03002e-08
-1.46416e-15
-4.24493e-08
-6.32286e-08
-1.36649e-15
-4.3193e-08
-5.51716e-08
-1.27656e-15
-4.37647e-08
-4.6099e-08
-1.17827e-15
-4.41508e-08
-3.59924e-08
-1.08119e-15
-4.43358e-08
-2.48403e-08
-9.77648e-16
-4.43056e-08
-1.26438e-08
-8.77883e-16
5.71304e-10
-7.85659e-16
-4.04017e-12
-7.52952e-09
-2.37556e-15
1.28801e-11
-2.33902e-08
6.73082e-15
-3.5751e-11
-3.32731e-08
6.42354e-16
1.89313e-09
-2.28904e-08
1.39396e-14
4.85495e-09
-2.54482e-08
-3.75146e-15
9.63148e-09
-5.2727e-08
1.30833e-14
1.49169e-08
-1.04913e-07
4.40003e-16
1.63565e-08
-1.49158e-07
-8.30969e-15
1.35889e-08
-1.61936e-07
1.12435e-14
8.72095e-09
-1.39816e-07
-1.6882e-14
4.15309e-09
-9.20845e-08
-4.32449e-14
1.72674e-09
-3.75994e-08
-9.21509e-14
-8.93617e-10
-5.23872e-08
-1.46129e-14
-3.95565e-09
-6.44022e-08
-4.99495e-15
-6.80278e-09
-7.25774e-08
-3.61281e-15
-9.38134e-09
-7.81109e-08
-4.76629e-15
-1.17358e-08
-8.18384e-08
-2.64556e-15
-1.39403e-08
-8.45113e-08
-3.57637e-15
-1.6068e-08
-8.66788e-08
-2.94381e-15
-1.81543e-08
-8.85743e-08
-2.65082e-15
-2.02156e-08
-9.02753e-08
-2.59868e-15
-2.22536e-08
-9.17656e-08
-2.4367e-15
-2.42637e-08
-9.29746e-08
-2.29373e-15
-2.62378e-08
-9.38422e-08
-2.15048e-15
-2.81665e-08
-9.42844e-08
-2.06797e-15
-3.004e-08
-9.42368e-08
-1.95408e-15
-3.18486e-08
-9.36336e-08
-1.8901e-15
-3.35825e-08
-9.24058e-08
-1.79301e-15
-3.52322e-08
-9.05147e-08
-1.68391e-15
-3.67878e-08
-8.78912e-08
-1.4972e-15
-3.8239e-08
-8.44966e-08
-1.74506e-15
-3.9576e-08
-8.02837e-08
-1.62024e-15
-4.07877e-08
-7.52064e-08
-1.54459e-15
-4.18627e-08
-6.92253e-08
-1.46567e-15
-4.27889e-08
-6.23025e-08
-1.37078e-15
-4.35533e-08
-5.44072e-08
-1.28324e-15
-4.41422e-08
-4.55099e-08
-1.18683e-15
-4.4542e-08
-3.55927e-08
-1.09071e-15
-4.47373e-08
-2.46448e-08
-9.87925e-16
-4.47138e-08
-1.26676e-08
-8.88897e-16
3.12994e-10
-7.98971e-16
-3.18453e-12
-7.52636e-09
-1.21759e-15
2.15914e-11
-2.3415e-08
6.44604e-15
6.97223e-11
-3.33213e-08
-5.45945e-16
2.04698e-09
-2.48676e-08
2.7323e-14
5.67902e-09
-2.90803e-08
-9.34902e-15
1.29608e-08
-6.00087e-08
2.86064e-14
1.92272e-08
-1.11179e-07
-9.10798e-15
1.96865e-08
-1.49618e-07
-1.24737e-14
1.52569e-08
-1.57507e-07
1.34061e-14
8.90691e-09
-1.33466e-07
-1.2726e-14
3.37335e-09
-8.65509e-08
-1.20128e-14
1.20315e-09
-3.54291e-08
-6.5165e-14
-8.42305e-10
-5.03418e-08
-1.70156e-14
-3.64154e-09
-6.1603e-08
-5.06905e-15
-6.41181e-09
-6.98071e-08
-3.51247e-15
-8.98999e-09
-7.55327e-08
-4.56379e-15
-1.13721e-08
-7.94563e-08
-2.39769e-15
-1.36096e-08
-8.22738e-08
-3.43283e-15
-1.57696e-08
-8.45187e-08
-2.82269e-15
-1.78877e-08
-8.64562e-08
-2.56363e-15
-1.99824e-08
-8.81807e-08
-2.55355e-15
-2.2056e-08
-8.96919e-08
-2.41834e-15
-2.41044e-08
-9.09263e-08
-2.28849e-15
-2.6119e-08
-9.18276e-08
-2.15347e-15
-2.80898e-08
-9.23136e-08
-2.06771e-15
-3.00064e-08
-9.23203e-08
-1.95511e-15
-3.18581e-08
-9.17818e-08
-1.88636e-15
-3.36345e-08
-9.06294e-08
-1.78654e-15
-3.53255e-08
-8.88239e-08
-1.67317e-15
-3.69205e-08
-8.62963e-08
-1.49053e-15
-3.8409e-08
-8.3008e-08
-1.73155e-15
-3.97805e-08
-7.89121e-08
-1.61458e-15
-4.10241e-08
-7.39629e-08
-1.54378e-15
-4.21278e-08
-6.81216e-08
-1.46867e-15
-4.30795e-08
-6.13509e-08
-1.37638e-15
-4.38662e-08
-5.36206e-08
-1.29084e-15
-4.44741e-08
-4.49018e-08
-1.19599e-15
-4.48894e-08
-3.51774e-08
-1.10048e-15
-4.50969e-08
-2.44371e-08
-9.98233e-16
-4.50822e-08
-1.26826e-08
-8.99719e-16
6.00955e-11
-8.11938e-16
-2.68825e-12
-7.52369e-09
1.92073e-16
3.85321e-12
-2.34215e-08
2.37908e-15
-3.39427e-11
-3.32835e-08
1.69361e-15
1.38918e-09
-2.62907e-08
5.50002e-15
5.54681e-09
-3.3238e-08
-6.68865e-16
1.45576e-08
-6.90194e-08
3.25923e-14
2.05369e-08
-1.17159e-07
-7.40203e-15
1.99772e-08
-1.49058e-07
-1.2289e-14
1.48387e-08
-1.52368e-07
9.83568e-15
8.1225e-09
-1.2675e-07
-2.26017e-14
2.50934e-09
-8.09378e-08
3.22615e-14
7.8829e-10
-3.3708e-08
-2.62236e-14
-8.82594e-10
-4.86709e-08
-1.11314e-14
-3.41355e-09
-5.90721e-08
-4.16738e-15
-6.07715e-09
-6.71435e-08
-3.24678e-15
-8.63203e-09
-7.29779e-08
-4.15604e-15
-1.1026e-08
-7.70623e-08
-2.16087e-15
-1.32872e-08
-8.00126e-08
-3.24103e-15
-1.54722e-08
-8.23337e-08
-2.5601e-15
-1.76157e-08
-8.43126e-08
-2.34309e-15
-1.97372e-08
-8.60592e-08
-2.38287e-15
-2.18403e-08
-8.75889e-08
-2.28801e-15
-2.39209e-08
-8.88457e-08
-2.18998e-15
-2.59706e-08
-8.97779e-08
-2.08378e-15
-2.79788e-08
-9.03054e-08
-2.02016e-15
-2.99343e-08
-9.03648e-08
-1.9228e-15
-3.18257e-08
-8.98903e-08
-1.86403e-15
-3.3642e-08
-8.88132e-08
-1.77171e-15
-3.53723e-08
-8.70937e-08
-1.6597e-15
-3.70055e-08
-8.46632e-08
-1.48057e-15
-3.85304e-08
-8.14829e-08
-1.71945e-15
-3.99364e-08
-7.75061e-08
-1.61159e-15
-4.12119e-08
-7.26874e-08
-1.54553e-15
-4.2345e-08
-6.69885e-08
-1.47365e-15
-4.33232e-08
-6.03728e-08
-1.38354e-15
-4.41333e-08
-5.28104e-08
-1.29947e-15
-4.47615e-08
-4.42734e-08
-1.20579e-15
-4.5194e-08
-3.4745e-08
-1.11049e-15
-4.54154e-08
-2.42154e-08
-1.00853e-15
-4.54114e-08
-1.26869e-08
-9.10277e-16
-1.85498e-10
-8.24448e-16
-2.26118e-12
-7.52145e-09
-6.75371e-16
-1.66626e-11
-2.34071e-08
2.425e-15
-2.3485e-10
-3.30654e-08
-5.08919e-15
7.09919e-10
-2.72354e-08
1.68563e-15
5.95012e-09
-3.84782e-08
-2.42135e-15
1.52503e-08
-7.83195e-08
1.1276e-14
1.98668e-08
-1.21775e-07
4.36952e-15
1.85255e-08
-1.47717e-07
2.26367e-15
1.34778e-08
-1.4732e-07
5.40049e-15
7.14239e-09
-1.20415e-07
-2.73541e-14
1.96166e-09
-7.5757e-08
8.28192e-14
6.1409e-10
-3.23604e-08
-7.14855e-15
-9.4641e-10
-4.71105e-08
-6.39888e-15
-3.25581e-09
-5.67627e-08
-3.06312e-15
-5.80026e-09
-6.4599e-08
-2.82195e-15
-8.31389e-09
-7.04642e-08
-3.58397e-15
-1.07056e-08
-7.46706e-08
-2.12719e-15
-1.29814e-08
-7.77368e-08
-3.26159e-15
-1.51843e-08
-8.01308e-08
-2.63669e-15
-1.73471e-08
-8.21498e-08
-2.41091e-15
-1.94892e-08
-8.39171e-08
-2.40792e-15
-2.16154e-08
-8.54627e-08
-2.29752e-15
-2.37222e-08
-8.67389e-08
-2.18795e-15
-2.58011e-08
-8.7699e-08
-2.08223e-15
-2.78414e-08
-8.82651e-08
-2.01684e-15
-2.98311e-08
-8.8375e-08
-1.92099e-15
-3.17583e-08
-8.7963e-08
-1.85962e-15
-3.36112e-08
-8.69603e-08
-1.76553e-15
-3.53782e-08
-8.53268e-08
-1.64844e-15
-3.70475e-08
-8.29939e-08
-1.46223e-15
-3.86076e-08
-7.99226e-08
-1.70648e-15
-4.00472e-08
-7.60664e-08
-1.60926e-15
-4.13544e-08
-7.13802e-08
-1.54868e-15
-4.25169e-08
-6.58261e-08
-1.48008e-15
-4.35221e-08
-5.93677e-08
-1.39213e-15
-4.43564e-08
-5.19761e-08
-1.30916e-15
-4.5006e-08
-4.36236e-08
-1.21627e-15
-4.54569e-08
-3.42942e-08
-1.1208e-15
-4.56936e-08
-2.39785e-08
-1.01879e-15
-4.57018e-08
-1.2679e-08
-9.20529e-16
-4.22077e-10
-8.36423e-16
-2.02239e-12
-7.51944e-09
1.25127e-15
-2.66551e-11
-2.33825e-08
1.55744e-15
-4.87033e-10
-3.2605e-08
-3.07859e-15
4.57332e-10
-2.81797e-08
-8.462e-15
7.04994e-09
-4.50709e-08
-9.41872e-15
1.52096e-08
-8.6479e-08
2.87093e-15
1.82244e-08
-1.2479e-07
-7.12293e-16
1.65386e-08
-1.46031e-07
-7.13458e-15
1.20003e-08
-1.42782e-07
-6.05522e-15
6.33754e-09
-1.14752e-07
-2.25871e-14
1.73937e-09
-7.11588e-08
1.04959e-13
5.80499e-10
-3.12015e-08
9.42551e-15
-1.0067e-09
-4.55233e-08
-3.79268e-15
-3.15687e-09
-5.46125e-08
-2.36347e-15
-5.58309e-09
-6.21728e-08
-2.63091e-15
-8.04209e-09
-6.80052e-08
-3.25302e-15
-1.04189e-08
-7.22937e-08
-2.038e-15
-1.26999e-08
-7.54558e-08
-3.11441e-15
-1.49136e-08
-7.79171e-08
-2.4343e-15
-1.70895e-08
-7.9974e-08
-2.24962e-15
-1.92461e-08
-8.17606e-08
-2.29537e-15
-2.13892e-08
-8.33196e-08
-2.23154e-15
-2.3516e-08
-8.46121e-08
-2.15165e-15
-2.56182e-08
-8.55967e-08
-2.06694e-15
-2.76849e-08
-8.61984e-08
-2.01187e-15
-2.97039e-08
-8.63561e-08
-1.92279e-15
-3.16624e-08
-8.60044e-08
-1.86238e-15
-3.3548e-08
-8.50747e-08
-1.76717e-15
-3.53485e-08
-8.35263e-08
-1.64332e-15
-3.70515e-08
-8.1291e-08
-1.44445e-15
-3.86448e-08
-7.83292e-08
-1.69663e-15
-4.01167e-08
-7.45945e-08
-1.6101e-15
-4.14547e-08
-7.00422e-08
-1.55454e-15