/*--------------------------------*- C++ -*----------------------------------*\
| =========                 |                                                 |
| \\      /  F ield         | OpenFOAM: The Open Source CFD Toolbox           |
|  \\    /   O peration     | Version:  v2012                                 |
|   \\  /    A nd           | Website:  www.openfoam.com                      |
|    \\/     M anipulation  |                                                 |
\*---------------------------------------------------------------------------*/
FoamFile
{
    version     2.0;
    format      ascii;
    class       volVectorField;
    location    "0.2";
    object      U;
}
// * * * * * * * * * * * * * * * * * * * * * * * * * * * * * * * * * * * * * //

dimensions      [0 1 -1 0 0 0 0];


internalField   nonuniform List<vector> 
3332
(
(-0.765282 -7.24252 0.00667905)
(-0.798732 -6.63266 0.00697104)
(-0.82753 -6.07444 0.00722244)
(-0.851885 -5.5579 0.00743505)
(-0.872023 -5.07583 0.00761086)
(-0.888124 -4.62307 0.00775143)
(-0.900361 -4.19597 0.00785828)
(-0.908891 -3.79191 0.00793276)
(-0.91386 -3.409 0.00797617)
(-0.915406 -3.0458 0.00798971)
(-0.913655 -2.70123 0.00797449)
(-0.908728 -2.37439 0.00793152)
(-0.900731 -2.06455 0.00786175)
(-0.889765 -1.77109 0.00776609)
(-0.875925 -1.49348 0.00764533)
(-0.859298 -1.23127 0.00750025)
(-0.839966 -0.98408 0.00733156)
(-0.818011 -0.7516 0.00713998)
(-0.793512 -0.533581 0.00692619)
(-0.766553 -0.329846 0.00669096)
(-0.766709 -8.56922 0.00669147)
(-0.805703 -7.82086 0.00703186)
(-0.839477 -7.15376 0.00732667)
(-0.868376 -6.55119 0.00757894)
(-0.892811 -5.99982 0.00779225)
(-0.913027 -5.48976 0.00796874)
(-0.929259 -5.0138 0.00811045)
(-0.94169 -4.56681 0.008219)
(-0.950491 -4.14515 0.00829585)
(-0.955808 -3.74622 0.00834229)
(-0.957777 -3.36814 0.00835952)
(-0.956523 -3.00949 0.00834861)
(-0.952157 -2.66919 0.00831057)
(-0.944784 -2.34637 0.00824626)
(-0.934498 -2.04031 0.0081565)
(-0.921385 -1.7504 0.00804209)
(-0.905525 -1.47613 0.0079037)
(-0.886993 -1.21705 0.007742)
(-0.86586 -0.972795 0.00755759)
(-0.842197 -0.743061 0.0073511)
(-0.816074 -0.527609 0.00712313)
(-0.787564 -0.326268 0.00687437)
(0.0769533 -47.4495 -0.000671518)
(-0.0140598 -47.4833 0.000122924)
(0.46832 -53.9162 -0.00408705)
(-0.0665588 -47.1158 0.000579021)
(-1.50271 -35.4334 0.013113)
(-1.74478 -32.1668 0.0152276)
(-2.02385 -32.4055 0.0176644)
(-1.36863 -32.1253 0.011948)
(-0.919975 -29.0557 0.00803234)
(0.150658 -22.2573 -0.00132096)
(-0.489449 -13.5845 0.00425626)
(-0.608242 -12.4671 0.00530514)
(-0.691205 -11.3295 0.00603208)
(-0.751755 -10.2564 0.00656085)
(-0.801331 -9.3016 0.00699362)
(-0.84276 -8.46249 0.00735528)
(-0.877994 -7.72322 0.00766285)
(-0.907843 -7.06435 0.00792342)
(-0.932918 -6.46939 0.00814231)
(-0.95362 -5.9251 0.00832304)
(-0.970255 -5.42167 0.00846827)
(-0.983066 -4.95193 0.00858012)
(-0.992251 -4.51078 0.00866033)
(-0.997981 -4.09461 0.00871038)
(-1.0004 -3.70083 0.00873155)
(-0.999646 -3.3276 0.00872499)
(-0.995829 -2.9735 0.00869171)
(-0.989053 -2.63747 0.00863263)
(-0.979414 -2.31867 0.00854853)
(-0.966993 -2.01639 0.00844015)
(-0.951867 -1.73002 0.00830817)
(-0.934106 -1.45908 0.00815318)
(-0.913774 -1.20312 0.00797576)
(-0.890933 -0.9618 0.00777645)
(-0.865644 -0.73481 0.00755576)
(-0.837969 -0.521924 0.00731425)
(-0.807975 -0.322974 0.00705253)
(0.0882405 -47.6084 -0.000770035)
(-0.0554248 -47.8575 0.000483903)
(0.451541 -54.0954 -0.00394069)
(-0.23032 -45.171 0.00200825)
(-1.74928 -33.5457 0.015265)
(-2.00442 -31.1568 0.0174939)
(-2.17141 -32.2608 0.0189526)
(-1.46574 -32.7326 0.012796)
(-0.808785 -29.8773 0.00706219)
(0.0282948 -22.8905 -0.000248071)
(-0.00468094 -14.9389 -0.000219736)
(-0.363631 -14.1987 0.00311523)
(-0.54271 -13.3368 0.00471594)
(-0.668457 -12.2685 0.00582921)
(-0.760348 -11.1714 0.00663539)
(-0.820643 -10.1208 0.00716213)
(-0.869768 -9.18097 0.00759095)
(-0.908879 -8.35334 0.00793239)
(-0.94171 -7.62393 0.00821898)
(-0.968755 -6.97382 0.00845509)
(-0.990995 -6.38685 0.00864924)
(-1.00881 -5.84994 0.00880481)
(-1.02261 -5.35334 0.00892523)
(-1.03263 -4.88997 0.00901279)
(-1.03912 -4.45477 0.00906946)
(-1.04226 -4.04416 0.00909685)
(-1.04219 -3.6556 0.00909631)
(-1.03906 -3.28724 0.00906902)
(-1.03298 -2.93772 0.009016)
(-1.02405 -2.60598 0.00893815)
(-1.01237 -2.29121 0.00883622)
(-0.99801 -1.99271 0.00871089)
(-0.981039 -1.70989 0.00856281)
(-0.961522 -1.44228 0.0083925)
(-0.939516 -1.18945 0.00820047)
(-0.915078 -0.951063 0.00798721)
(-0.888261 -0.72682 0.00775319)
(-0.859121 -0.516501 0.00749889)
(-0.82772 -0.319945 0.00722488)
(0.108326 -47.74 -0.000945343)
(-0.113005 -48.1552 0.000986397)
(0.447912 -54.1399 -0.00390914)
(-0.464743 -42.9078 0.00405407)
(-2.02774 -31.4839 0.0176954)
(-2.32961 -30.1201 0.0203322)
(-2.32518 -32.2284 0.020295)
(-1.58912 -33.4729 0.0138735)
(-0.707002 -30.7449 0.00617435)
(-0.0607172 -23.4608 0.000531204)
(0.168313 -14.6955 -0.00165952)
(-0.347844 -13.7779 0.00295005)
(-0.568482 -13.0574 0.00493391)
(-0.705001 -12.0505 0.00614599)
(-0.810583 -11.0009 0.00707355)
(-0.87369 -9.97814 0.00762511)
(-0.924757 -9.05556 0.00807089)
(-0.963424 -8.24094 0.00840846)
(-0.995435 -7.52226 0.00868791)
(-1.02102 -6.88157 0.00891128)
(-1.04158 -6.30306 0.00909077)
(-1.05752 -5.77387 0.0092299)
(-1.06933 -5.28439 0.00933303)
(-1.07732 -4.8276 0.00940281)
(-1.08175 -4.3985 0.00944155)
(-1.08284 -3.99358 0.00945111)
(-1.08077 -3.61031 0.00943302)
(-1.07567 -3.2469 0.00938859)
(-1.06768 -2.90201 0.0093189)
(-1.05691 -2.57461 0.00922494)
(-1.04344 -2.26389 0.00910745)
(-1.02737 -1.96919 0.00896714)
(-1.00875 -1.68995 0.00880465)
(-0.987641 -1.42568 0.00862048)
(-0.964108 -1.17599 0.00841513)
(-0.9382 -0.940546 0.00818904)
(-0.909967 -0.719057 0.00794266)
(-0.879461 -0.511312 0.00767644)
(-0.846739 -0.317156 0.00739088)
(-0.811867 -0.136515 0.00708667)
(0.13205 -47.8419 -0.00115241)
(-0.174072 -48.3773 0.00151931)
(0.441484 -53.963 -0.00385324)
(-0.796448 -40.2721 0.00694884)
(-2.32593 -29.2502 0.0202981)
(-2.66895 -29.0995 0.0232941)
(-2.45269 -32.3382 0.0214086)
(-1.69632 -34.3569 0.0148097)
(-0.583092 -31.7192 0.0050935)
(-0.0798406 -24.1382 0.000700051)
(0.570569 -14.5244 -0.00510055)
(-0.276017 -13.2066 0.0022666)
(-0.56366 -12.7333 0.00488157)
(-0.717355 -11.8098 0.00625071)
(-0.84016 -10.8149 0.00733124)
(-0.910114 -9.8268 0.00794297)
(-0.965285 -8.92409 0.00842459)
(-1.00562 -8.12433 0.00877672)
(-1.03839 -7.41739 0.00906286)
(-1.06395 -6.78692 0.009286)
(-1.08404 -6.21744 0.00946136)
(-1.09915 -5.69642 0.00959331)
(-1.1099 -5.21438 0.00968717)
(-1.11665 -4.76444 0.00974616)
(-1.11973 -4.34167 0.00977305)
(-1.11938 -3.9426 0.00977004)
(-1.11582 -3.56476 0.00973895)
(-1.10921 -3.20641 0.0096813)
(-1.0997 -2.86623 0.00959834)
(-1.08741 -2.54322 0.00949118)
(-1.07245 -2.23662 0.00936067)
(-1.05491 -1.94576 0.00920756)
(-1.03485 -1.67011 0.00903254)
(-1.01235 -1.40922 0.00883615)
(-0.987451 -1.16269 0.00861889)
(-0.960214 -0.930204 0.0083812)
(-0.930688 -0.711484 0.00812353)
(-0.898924 -0.506326 0.00784633)
(-0.864977 -0.31458 0.00755008)
(-0.828913 -0.136179 0.00723538)
(0.151523 -47.9143 -0.00132237)
(-0.223176 -48.5253 0.00194781)
(0.408862 -53.4289 -0.00356882)
(-1.22181 -37.2575 0.010661)
(-2.61433 -26.9148 0.0228155)
(-2.98242 -28.1498 0.0260302)
(-2.56954 -32.5953 0.0224291)
(-1.79817 -35.3849 0.0156991)
(-0.487496 -32.8416 0.00425995)
(-0.0760358 -25.0462 0.000668249)
(1.09923 -14.5325 -0.0096562)
(-0.133242 -12.331 0.000907245)
(-0.5296 -12.3398 0.00457139)
(-0.708793 -11.5431 0.00617174)
(-0.849645 -10.6111 0.00741333)
(-0.930801 -9.66514 0.00812344)
(-0.9915 -8.78542 0.00865336)
(-1.03556 -8.00262 0.00903806)
(-1.07047 -7.30861 0.0093428)
(-1.09738 -6.68924 0.00957771)
(-1.11813 -6.12942 0.00975892)
(-1.13346 -5.61708 0.00989279)
(-1.14406 -5.1429 0.00998531)
(-1.15038 -4.70013 0.0100405)
(-1.15281 -4.28395 0.0100617)
(-1.15164 -3.89094 0.0100516)
(-1.14712 -3.51872 0.0100122)
(-1.13947 -3.16556 0.00994543)
(-1.12885 -2.8302 0.00985277)
(-1.1154 -2.51168 0.00973551)
(-1.09926 -2.20926 0.00959464)
(-1.08051 -1.92231 0.00943105)
(-1.05925 -1.65031 0.00924552)
(-1.03555 -1.39283 0.00903865)
(-1.00946 -1.14949 0.008811)
(-0.981047 -0.919989 0.00856305)
(-0.950361 -0.70406 0.00829526)
(-0.917456 -0.501507 0.0080081)
(-0.882387 -0.312186 0.00770205)
(-0.845221 -0.136037 0.00737771)
(-0.806025 0.0269822 0.00703576)
(0.158579 -47.9581 -0.00138396)
(-0.245955 -48.5959 0.00214658)
(0.331617 -52.4079 -0.00289504)
(-1.69521 -33.9057 0.0147925)
(-2.86472 -24.5568 0.0250011)
(-3.27059 -27.2624 0.0285454)
(-2.73922 -32.9394 0.0239107)
(-1.94947 -36.5114 0.0170197)
(-0.527258 -34.1081 0.00460784)
(-0.0973982 -26.1574 0.000855502)
(1.40224 -14.8233 -0.0122599)
(0.0720335 -11.1663 -0.0010419)
(-0.466453 -11.8513 0.00400913)
(-0.684466 -11.2473 0.00595437)
(-0.840765 -10.3881 0.00733481)
(-0.937567 -9.49201 0.00818237)
(-1.00441 -8.63894 0.00876603)
(-1.05403 -7.87518 0.00919915)
(-1.09211 -7.19536 0.00953161)
(-1.12157 -6.58801 0.0097888)
(-1.14399 -6.03853 0.00998455)
(-1.16049 -5.53542 0.0101286)
(-1.17177 -5.06955 0.0102272)
(-1.17843 -4.63433 0.0102853)
(-1.18088 -4.22503 0.0103068)
(-1.17949 -3.83835 0.0102947)
(-1.17456 -3.47194 0.0102517)
(-1.16633 -3.12415 0.0101799)
(-1.15501 -2.79376 0.0100812)
(-1.14077 -2.47985 0.00995696)
(-1.12376 -2.1817 0.00980849)
(-1.10409 -1.89873 0.00963682)
(-1.08186 -1.63044 0.00944286)
(-1.05716 -1.37643 0.00922734)
(-1.03007 -1.13633 0.00899088)
(-1.00064 -0.909848 0.00873405)
(-0.968932 -0.69674 0.00845736)
(-0.935008 -0.496816 0.00816131)
(-0.898926 -0.309942 0.00784642)
(-0.860754 -0.136062 0.00751329)
(-0.820563 0.0248607 0.00716258)
(0.147341 -47.9761 -0.00128589)
(-0.234169 -48.5817 0.0020437)
(0.199708 -50.816 -0.0017442)
(-2.14306 -30.3111 0.018701)
(-3.05596 -22.2039 0.0266706)
(-3.54978 -26.3415 0.0309822)
(-3.00149 -33.2621 0.0262001)
(-2.17974 -37.6708 0.0190296)
(-0.73523 -35.4786 0.0064237)
(-0.166907 -27.3342 0.00146228)
(1.30499 -15.4007 -0.0113928)
(0.291176 -9.95735 -0.0030056)
(-0.379258 -11.2703 0.00324018)
(-0.648 -10.9185 0.0056313)
(-0.816292 -10.1463 0.00711988)
(-0.932284 -9.30653 0.00813609)
(-1.00559 -8.48443 0.00877624)
(-1.06214 -7.74163 0.00926994)
(-1.10416 -7.07734 0.0096368)
(-1.13713 -6.48286 0.00992458)
(-1.16203 -5.94442 0.010142)
(-1.1805 -5.4511 0.0103033)
(-1.19322 -4.994 0.0104144)
(-1.20089 -4.56672 0.0104814)
(-1.204 -4.16466 0.0105085)
(-1.20296 -3.78458 0.0104995)
(-1.19812 -3.42423 0.0104573)
(-1.18977 -3.08201 0.0103845)
(-1.17815 -2.75675 0.0102831)
(-1.16347 -2.44758 0.0101551)
(-1.1459 -2.15383 0.0100017)
(-1.12557 -1.87493 0.00982434)
(-1.10262 -1.61044 0.00962406)
(-1.07714 -1.35995 0.00940173)
(-1.04922 -1.12314 0.00915809)
(-1.01894 -0.899729 0.0088938)
(-0.986357 -0.689479 0.00860946)
(-0.951542 -0.492216 0.00830563)
(-0.914559 -0.307815 0.00798288)
(-0.875481 -0.136225 0.00764184)
(-0.834382 0.0225829 0.0072832)
(0.116941 -47.9712 -0.00102057)
(-0.189145 -48.4717 0.00165074)
(0.0265541 -48.6689 -0.000233353)
(-2.46769 -26.6042 0.0215341)
(-3.15113 -19.8291 0.0275014)
(-3.78497 -25.2611 0.0330348)
(-3.29246 -33.4729 0.0287398)
(-2.42243 -38.8279 0.0211479)
(-1.00633 -36.9005 0.00879017)
(-0.263436 -28.4845 0.00230451)
(0.959187 -16.1881 -0.00836922)
(0.451784 -8.91603 -0.00429373)
(-0.287774 -10.6343 0.00243)
(-0.600547 -10.5552 0.00521373)
(-0.781173 -9.88665 0.00681172)
(-0.91649 -9.10816 0.00799804)
(-0.997096 -8.32199 0.00870207)
(-1.06123 -7.60186 0.0092619)
(-1.10779 -6.95446 0.00966844)
(-1.1449 -6.37363 0.00999242)
(-1.17291 -5.84689 0.010237)
(-1.194 -5.36388 0.0104211)
(-1.20875 -4.91601 0.0105499)
(-1.21803 -4.49707 0.0106309)
(-1.22233 -4.10258 0.0106685)
(-1.22214 -3.72942 0.010667)
(-1.21786 -3.37538 0.0106296)
(-1.2098 -3.03894 0.0105594)
(-1.19826 -2.71901 0.0104587)
(-1.18348 -2.41474 0.0103297)
(-1.16564 -2.12551 0.0101741)
(-1.14494 -1.85081 0.00999337)
(-1.1215 -1.5902 0.00978883)
(-1.09545 -1.34333 0.00956151)
(-1.06689 -1.10987 0.00931231)
(-1.03592 -0.889577 0.009042)
(-1.0026 -0.68223 0.00875128)
(-0.967026 -0.487666 0.00844079)
(-0.929257 -0.305769 0.00811117)
(-0.889374 -0.136497 0.00776312)
(-0.84746 0.0201752 0.00739735)
(0.0744362 -47.9473 -0.000649607)
(-0.125852 -48.2586 0.00109835)
(-0.150205 -46.1199 0.00130907)
(-2.57053 -22.9633 0.0224316)
(-3.06916 -17.424 0.0267862)
(-3.84834 -23.9698 0.0335877)
(-3.42273 -33.5639 0.0298767)
(-2.4978 -39.9863 0.0218057)
(-1.15254 -38.3205 0.0100661)
(-0.304175 -29.5782 0.00265968)
(0.597896 -17.0455 -0.00521543)
(0.524209 -8.15135 -0.00477931)
(-0.211908 -10.001 0.00174101)
(-0.543682 -10.1643 0.00471584)
(-0.740262 -9.61088 0.00645288)
(-0.891557 -8.89748 0.00778023)
(-0.981124 -8.15185 0.0085626)
(-1.05265 -7.45601 0.009187)
(-1.10431 -6.82679 0.00963799)
(-1.14589 -6.26029 0.010001)
(-1.17746 -5.74585 0.0102767)
(-1.2016 -5.27363 0.0104874)
(-1.21886 -4.83542 0.0106381)
(-1.2302 -4.42521 0.0107371)
(-1.23615 -4.03864 0.0107891)
(-1.23725 -3.67269 0.0107988)
(-1.23392 -3.32523 0.0107697)
(-1.22653 -2.99482 0.0107054)
(-1.21541 -2.6804 0.0106084)
(-1.20083 -2.38121 0.0104812)
(-1.18302 -2.09666 0.0103258)
(-1.16219 -1.82627 0.0101439)
(-1.13849 -1.56966 0.00993711)
(-1.11207 -1.32648 0.00970658)
(-1.08306 -1.09645 0.0094534)
(-1.05155 -0.879339 0.00917847)
(-1.01765 -0.674948 0.00888262)
(-0.98144 -0.483125 0.0085666)
(-0.942998 -0.303769 0.00823112)
(-0.902415 -0.136846 0.00787694)
(-0.859776 0.0176641 0.00750486)
(0.0303533 -47.9085 -0.000264866)
(-0.0616163 -47.9618 0.00053774)
(-0.274625 -43.4655 0.00239489)
(-2.3665 -19.6597 0.0206511)
(-2.67065 -15.1053 0.0233082)
(-3.52912 -22.5715 0.0308014)
(-3.11702 -33.6305 0.0272082)
(-2.16334 -41.1536 0.0188861)
(-0.981283 -39.6653 0.00857036)
(-0.179562 -30.5598 0.00157154)
(0.38073 -17.8057 -0.00332103)
(0.541202 -7.63878 -0.00482807)
(-0.15433 -9.41952 0.00118533)
(-0.480714 -9.75813 0.00416563)
(-0.695755 -9.32085 0.00606278)
(-0.859058 -8.67585 0.00749638)
(-0.959371 -7.9742 0.00837266)
(-1.03777 -7.30447 0.00905706)
(-1.09501 -6.69454 0.00955675)
(-1.14113 -6.14298 0.00995945)
(-1.17657 -5.64135 0.0102688)
(-1.20403 -5.18033 0.0105086)
(-1.22413 -4.75217 0.0106841)
(-1.23787 -4.35104 0.010804)
(-1.24581 -3.97272 0.0108734)
(-1.24854 -3.61427 0.0108973)
(-1.2465 -3.27366 0.0108795)
(-1.2401 -2.94951 0.0108238)
(-1.22971 -2.64083 0.0107331)
(-1.21561 -2.34689 0.0106101)
(-1.19808 -2.06718 0.0104572)
(-1.17735 -1.80124 0.0102762)
(-1.1536 -1.54872 0.010069)
(-1.12701 -1.30934 0.00983697)
(-1.09771 -1.08282 0.00958132)
(-1.06584 -0.868965 0.00930314)
(-1.03149 -0.667587 0.00900339)
(-0.994768 -0.478556 0.00868294)
(-0.955769 -0.301783 0.00834259)
(-0.914586 -0.137242 0.00798319)
(-0.871317 0.0150762 0.0076056)
(-0.00551998 -47.8617 4.82286e-05)
(-0.00932018 -47.6399 8.13644e-05)
(-0.304238 -41.1071 0.00265361)
(-1.83273 -17.0881 0.0159933)
(-1.82521 -13.1878 0.0159297)
(-2.63856 -21.3415 0.0230285)
(-2.13322 -33.8469 0.0186213)
(-1.23357 -42.2958 0.01077)
(-0.368981 -40.8056 0.00322429)
(0.176922 -31.3121 -0.00154088)
(0.356382 -18.3245 -0.00310988)
(0.56109 -7.28075 -0.00495074)
(-0.103521 -8.89092 0.000656985)
(-0.416853 -9.34568 0.00360708)
(-0.648633 -9.01882 0.0056501)
(-0.821341 -8.44459 0.00716698)
(-0.933232 -7.78916 0.00814443)
(-1.01804 -7.1476 0.00888479)
(-1.08113 -6.55794 0.0094356)
(-1.13174 -6.02194 0.00987739)
(-1.17117 -5.53353 0.0102216)
(-1.20207 -5.08406 0.0104915)
(-1.22519 -4.66628 0.0106933)
(-1.24155 -4.27454 0.0108362)
(-1.25174 -3.90475 0.0109251)
(-1.25635 -3.55409 0.0109654)
(-1.25586 -3.22059 0.0109612)
(-1.25072 -2.90294 0.0109164)
(-1.24129 -2.60019 0.0108342)
(-1.22792 -2.3117 0.0107176)
(-1.2109 -2.03698 0.010569)
(-1.19048 -1.77563 0.0103908)
(-1.16688 -1.52734 0.0101849)
(-1.14029 -1.29185 0.00995287)
(-1.11087 -1.06894 0.00969617)
(-1.07877 -0.858407 0.00941605)
(-1.04411 -0.660107 0.00911358)
(-1.00701 -0.473921 0.00878976)
(-0.96756 -0.299775 0.00844551)
(-0.92588 -0.137656 0.00808177)
(-0.88207 0.0124379 0.00769946)
(-0.0305152 -47.8156 0.000266381)
(0.0303541 -47.383 -0.000264836)
(-0.241923 -39.4346 0.00211027)
(-1.07587 -15.7168 0.00938897)
(-0.574525 -12.1429 0.00501469)
(-1.18864 -20.6562 0.0103738)
(-0.454167 -34.4124 0.00396636)
(0.264802 -43.3133 -0.00230965)
(0.646529 -41.5525 -0.00564174)
(0.732644 -31.6671 -0.00639292)
(0.475416 -18.4819 -0.00415012)
(0.581097 -6.96565 -0.00510236)
(-0.0547479 -8.38954 0.000132614)
(-0.357489 -8.93108 0.00308703)
(-0.600944 -8.70808 0.00523285)
(-0.781266 -8.20506 0.00681699)
(-0.90417 -7.5972 0.0078907)
(-0.995006 -6.98585 0.00868371)
(-1.06389 -6.41731 0.00928506)
(-1.11879 -5.89747 0.00976438)
(-1.16219 -5.42261 0.0101432)
(-1.19652 -4.98498 0.0104429)
(-1.22272 -4.57784 0.0106717)
(-1.2418 -4.19574 0.0108383)
(-1.25437 -3.83476 0.0109481)
(-1.26104 -3.49214 0.0110064)
(-1.26229 -3.16598 0.0110174)
(-1.2586 -2.85504 0.0109852)
(-1.25034 -2.55844 0.0109132)
(-1.2379 -2.27557 0.0108046)
(-1.22157 -2.006 0.0106622)
(-1.20165 -1.74938 0.0104883)
(-1.17837 -1.50545 0.0102852)
(-1.15194 -1.27397 0.0100546)
(-1.12256 -1.05474 0.00979818)
(-1.09037 -0.847621 0.00951731)
(-1.05553 -0.652467 0.00921324)
(-1.01816 -0.469185 0.00888708)
(-0.97837 -0.297716 0.00853987)
(-0.93629 -0.13806 0.00817264)
(-0.892031 0.00977458 0.00778641)
(-0.0481718 -47.7776 0.000420484)
(0.0644725 -47.2606 -0.000562532)
(-0.153488 -38.6042 0.00133907)
(-0.342405 -15.8129 0.00298902)
(0.69715 -12.3574 -0.0060832)
(0.461213 -20.9206 -0.00402465)
(1.54271 -35.4779 -0.0134622)
(2.00296 -44.0921 -0.0174823)
(1.80981 -41.7446 -0.0157975)
(1.3264 -31.4544 -0.0115774)
(0.620612 -18.1983 -0.0054189)
(0.550966 -6.61724 -0.00482968)
(-0.0174282 -7.91746 -0.0002541)
(-0.306936 -8.52098 0.00264452)
(-0.555523 -8.39307 0.00483592)
(-0.741404 -7.95917 0.00646887)
(-0.873665 -7.39929 0.00762438)
(-0.970107 -6.81976 0.00846635)
(-1.0444 -6.2731 0.00911491)
(-1.10334 -5.76993 0.0096295)
(-1.15051 -5.30889 0.0100413)
(-1.18814 -4.88331 0.0103698)
(-1.21738 -4.48701 0.0106251)
(-1.23918 -4.11477 0.0108154)
(-1.25419 -3.7628 0.0109465)
(-1.263 -3.42842 0.0110234)
(-1.26611 -3.10983 0.0110507)
(-1.264 -2.8058 0.0110323)
(-1.25707 -2.51553 0.0109719)
(-1.2457 -2.23847 0.0108727)
(-1.23023 -1.97421 0.0107377)
(-1.21096 -1.72247 0.0105696)
(-1.18815 -1.483 0.0103705)
(-1.16203 -1.25564 0.0101426)
(-1.13281 -1.0402 0.00988765)
(-1.10067 -0.83657 0.00960716)
(-1.06576 -0.644632 0.00930252)
(-1.02823 -0.464314 0.00897498)
(-0.988204 -0.295574 0.0086257)
(-0.945819 -0.138426 0.0082558)
(-0.901196 0.00711097 0.00786641)
(-0.0662469 -47.7488 0.000578242)
(0.103065 -47.2681 -0.000899305)
(-0.121876 -38.4192 0.00106361)
(0.143331 -17.1208 -0.00124907)
(1.40321 -13.7788 -0.0122449)
(1.74296 -22.4643 -0.0152095)
(3.24814 -37.1115 -0.0283465)
(3.46875 -44.651 -0.0302773)
(2.7301 -41.3131 -0.0238318)
(1.74352 -30.6355 -0.0152199)
(0.680082 -17.4938 -0.00593924)
(0.449938 -6.22432 -0.00394356)
(-0.0015809 -7.50748 -0.000387427)
(-0.268144 -8.12818 0.00230636)
(-0.514637 -8.07902 0.00447918)
(-0.703654 -7.7094 0.00613922)
(-0.843001 -7.19676 0.00735668)
(-0.944534 -6.65001 0.0082431)
(-1.02364 -6.12582 0.00893367)
(-1.08631 -5.63976 0.0094808)
(-1.13696 -5.19272 0.00992295)
(-1.17768 -4.77934 0.0102784)
(-1.2098 -4.394 0.0105589)
(-1.23424 -4.03176 0.0107723)
(-1.25165 -3.68897 0.0109243)
(-1.26262 -3.36302 0.0110201)
(-1.26764 -3.05216 0.011064)
(-1.26718 -2.75524 0.0110601)
(-1.26167 -2.47147 0.011012)
(-1.25149 -2.20036 0.0109233)
(-1.237 -1.94157 0.0107968)
(-1.2185 -1.69484 0.0106354)
(-1.19629 -1.45998 0.0104416)
(-1.1706 -1.23683 0.0102175)
(-1.14167 -1.02528 0.00996498)
(-1.10968 -0.825221 0.00968586)
(-1.07482 -0.636571 0.0093816)
(-1.03723 -0.45928 0.00905359)
(-0.997069 -0.293324 0.00870308)
(-0.954469 -0.13873 0.00833131)
(-0.909567 0.00447035 0.00793948)
(-0.0885235 -47.727 0.000772678)
(0.147562 -47.3297 -0.00128766)
(-0.167534 -38.4922 0.00146225)
(0.325039 -18.8468 -0.00283468)
(1.32668 -15.8076 -0.0115765)
(2.43557 -25.247 -0.0212525)
(4.29546 -39.3337 -0.0374868)
(4.27288 -44.9606 -0.0372969)
(3.14433 -40.3519 -0.0274481)
(1.87119 -29.3666 -0.0163354)
(0.622381 -16.511 -0.00543572)
(0.316664 -5.83778 -0.00277742)
(-0.00473931 -7.18309 -0.00031931)
(-0.241889 -7.76526 0.00207892)
(-0.479424 -7.77125 0.00417245)
(-0.66922 -7.45843 0.00583857)
(-0.813181 -6.9911 0.00709638)
(-0.91921 -6.47733 0.00802204)
(-1.00243 -5.97602 0.00874851)
(-1.06848 -5.50737 0.00932515)
(-1.12224 -5.07446 0.0097945)
(-1.16578 -4.67337 0.0101746)
(-1.20058 -4.29907 0.0104784)
(-1.22749 -3.94692 0.0107134)
(-1.24721 -3.61342 0.0108855)
(-1.26028 -3.29603 0.0109996)
(-1.2672 -2.99306 0.0110601)
(-1.26843 -2.70338 0.0110709)
(-1.26439 -2.42627 0.0110357)
(-1.25547 -2.16127 0.010958)
(-1.24203 -1.90808 0.0108407)
(-1.22441 -1.66649 0.0106869)
(-1.20289 -1.43634 0.0104992)
(-1.17774 -1.21752 0.0102797)
(-1.14919 -1.00995 0.0100306)
(-1.11747 -0.813547 0.00975377)
(-1.08274 -0.628259 0.00945076)
(-1.0452 -0.454058 0.00912309)
(-1.00498 -0.290939 0.00877213)
(-0.96225 -0.138947 0.00839923)
(-0.917149 0.00187452 0.00800566)
(-0.1108 -47.7088 0.000967092)
(0.186806 -47.3691 -0.0016302)
(-0.246791 -38.5329 0.00215389)
(0.283406 -20.2356 -0.00247209)
(0.822802 -18.021 -0.00717822)
(2.91153 -29.0882 -0.0254049)
(4.67437 -41.7088 -0.0407944)
(4.40731 -44.95 -0.038471)
(3.10133 -39.0868 -0.0270726)
(1.77588 -27.9083 -0.0155035)
(0.508038 -15.4437 -0.00443675)
(0.212818 -5.51823 -0.00186883)
(-0.0153704 -6.93087 -0.000177241)
(-0.226338 -7.43724 0.00194513)
(-0.450178 -7.47399 0.00391802)
(-0.638692 -7.20874 0.00557207)
(-0.784993 -6.78377 0.00685032)
(-0.894832 -6.30245 0.00780923)
(-0.981449 -5.82424 0.00856538)
(-1.05051 -5.37319 0.0091683)
(-1.10699 -4.95449 0.00966137)
(-1.15305 -4.56573 0.0100634)
(-1.19024 -4.20249 0.0103881)
(-1.21942 -3.86048 0.0106429)
(-1.24128 -3.53632 0.0108337)
(-1.25634 -3.22759 0.0109653)
(-1.2651 -2.93261 0.0110418)
(-1.26799 -2.6503 0.0110671)
(-1.26543 -2.37998 0.0110448)
(-1.2578 -2.12121 0.0109783)
(-1.24548 -1.87375 0.0108708)
(-1.22879 -1.63741 0.0107252)
(-1.20804 -1.41209 0.0105441)
(-1.1835 -1.1977 0.0103301)
(-1.15544 -0.994194 0.0100851)
(-1.12406 -0.801526 0.00981128)
(-1.08956 -0.619672 0.00951027)
(-1.05214 -0.448624 0.00918369)
(-1.01196 -0.288399 0.00883302)
(-0.969175 -0.139058 0.00845967)
(-0.92395 -0.000656399 0.00806502)
(-0.123857 -47.6932 0.00108105)
(0.204927 -47.3577 -0.00178839)
(-0.291506 -38.4062 0.00254393)
(0.0633851 -21.0906 -0.000552566)
(0.547444 -20.6491 -0.00477395)
(3.41231 -33.4351 -0.0297752)
(4.58881 -43.7063 -0.0400494)
(4.12701 -44.6357 -0.0360248)
(2.83469 -37.7628 -0.0247444)
(1.5993 -26.4809 -0.0139617)
(0.41223 -14.4333 -0.00359921)
(0.167491 -5.27883 -0.0014721)
(-0.0255201 -6.71134 -4.13239e-05)
(-0.218442 -7.14058 0.00187771)
(-0.426887 -7.18954 0.00371552)
(-0.612385 -6.96231 0.00534244)
(-0.759138 -6.57607 0.00662465)
(-0.871977 -6.12609 0.00760973)
(-0.961295 -5.67096 0.00838946)
(-1.03296 -5.2376 0.00901506)
(-1.09174 -4.83318 0.00952824)
(-1.13998 -4.45674 0.0099493)
(-1.17925 -4.10453 0.0102922)
(-1.21045 -3.77266 0.0105646)
(-1.23425 -3.45788 0.0107724)
(-1.25116 -3.15785 0.01092)
(-1.26164 -2.87093 0.0110116)
(-1.26613 -2.59609 0.0110508)
(-1.26501 -2.33265 0.0110411)
(-1.25867 -2.08023 0.0109859)
(-1.24748 -1.8386 0.0108883)
(-1.23177 -1.60762 0.0107512)
(-1.21184 -1.38722 0.0105773)
(-1.18799 -1.17735 0.0103692)
(-1.16047 -0.977999 0.010129)
(-1.1295 -0.789146 0.00985883)
(-1.09532 -0.610794 0.00956048)
(-1.05809 -0.442961 0.00923566)
(-1.01802 -0.285686 0.00888591)
(-0.975258 -0.139042 0.00851276)
(-0.92998 -0.00310413 0.00811765)
(-0.119875 -47.6804 0.00104629)
(0.19074 -47.311 -0.0016646)
(-0.270101 -38.0273 0.00235694)
(-0.307213 -21.7222 0.00268191)
(0.826806 -24.1103 -0.00721117)
(3.74908 -37.5082 -0.0327157)
(4.26781 -45.0766 -0.0372497)
(3.68585 -44.142 -0.0321743)
(2.52816 -36.5404 -0.0220676)
(1.42738 -25.1895 -0.0124602)
(0.35697 -13.5319 -0.00311572)
(0.162559 -5.08714 -0.00142889)
(-0.0348453 -6.49313 7.41841e-05)
(-0.21584 -6.86735 0.00185598)
(-0.409634 -6.91832 0.00356554)
(-0.590633 -6.72065 0.00515262)
(-0.736312 -6.36914 0.00642542)
(-0.851181 -5.94895 0.0074282)
(-0.942493 -5.51667 0.00822533)
(-1.01629 -5.101 0.00886952)
(-1.07695 -4.71087 0.00939907)
(-1.12699 -4.34671 0.00983597)
(-1.16802 -4.0055 0.0101941)
(-1.20096 -3.68372 0.0104817)
(-1.22646 -3.37831 0.0107044)
(-1.24503 -3.08699 0.0108665)
(-1.2571 -2.80818 0.0109719)
(-1.26307 -2.54085 0.0110241)
(-1.26334 -2.28437 0.0110265)
(-1.25826 -2.03838 0.0109823)
(-1.24819 -1.80267 0.0108945)
(-1.23347 -1.57714 0.010766)
(-1.2144 -1.36175 0.0105996)
(-1.19127 -1.15649 0.0103978)
(-1.16435 -0.961363 0.0101629)
(-1.13386 -0.776395 0.00989688)
(-1.10004 -0.601612 0.00960175)
(-1.06309 -0.437056 0.00927926)
(-1.02319 -0.282782 0.00893103)
(-0.980517 -0.138885 0.00855866)
(-0.935253 -0.00545232 0.00816367)
(-0.102742 -47.6677 0.000896765)
(0.157396 -47.2578 -0.0013736)
(-0.218543 -37.3425 0.00190681)
(-0.637177 -22.5723 0.00556197)
(1.45944 -28.3213 -0.0127324)
(3.7306 -40.8107 -0.0325563)
(3.85911 -45.9042 -0.0336836)
(3.23558 -43.6196 -0.0282441)
(2.24744 -35.474 -0.0196159)
(1.27575 -24.0531 -0.0111356)
(0.323146 -12.739 -0.00281993)
(0.164175 -4.91137 -0.00144364)
(-0.0458704 -6.26772 0.000195462)
(-0.217383 -6.61003 0.00187036)
(-0.398425 -6.65969 0.00346818)
(-0.57372 -6.48483 0.00500504)
(-0.717092 -6.16402 0.00625767)
(-0.832906 -5.77178 0.00726868)
(-0.925487 -5.36188 0.00807689)
(-1.00088 -4.96377 0.00873503)
(-1.06297 -4.58791 0.00927708)
(-1.11445 -4.23597 0.00972649)
(-1.15689 -3.90568 0.010097)
(-1.19126 -3.59392 0.010397)
(-1.21821 -3.29782 0.0106323)
(-1.23822 -3.01519 0.0108071)
(-1.25171 -2.74448 0.0109249)
(-1.25905 -2.4847 0.010989)
(-1.2606 -2.23523 0.0110026)
(-1.25672 -1.99572 0.0109688)
(-1.24775 -1.766 0.0108906)
(-1.23401 -1.54599 0.0107707)
(-1.21581 -1.33569 0.0106119)
(-1.19343 -1.13511 0.0104167)
(-1.16714 -0.944287 0.0101873)
(-1.13719 -0.763273 0.00992589)
(-1.10379 -0.592121 0.00963446)
(-1.06716 -0.430896 0.0093148)
(-1.02749 -0.279677 0.00896861)
(-0.984973 -0.138573 0.00859755)
(-0.939782 -0.0076866 0.0082032)
(-0.0884222 -47.6541 0.000771778)
(0.138225 -47.2126 -0.00120628)
(-0.200294 -36.4737 0.00174749)
(-0.650517 -23.9701 0.00567877)
(2.09949 -32.6845 -0.0183189)
(3.44307 -43.2505 -0.0300487)
(3.44326 -46.4048 -0.0300542)
(2.84433 -43.1587 -0.0248291)
(1.99489 -34.549 -0.0174101)
(1.13371 -23.0544 -0.00989443)
(0.285894 -12.0387 -0.002495)
(0.152386 -4.7388 -0.00134187)
(-0.0611372 -6.04314 0.000348431)
(-0.222515 -6.36499 0.00191655)
(-0.39286 -6.41259 0.00342006)
(-0.561641 -6.25555 0.00489968)
(-0.701778 -5.96163 0.00612403)
(-0.817466 -5.59533 0.00713393)
(-0.910598 -5.20711 0.00794694)
(-0.98702 -4.82632 0.00861407)
(-1.0501 -4.46464 0.00916471)
(-1.10262 -4.12483 0.00962323)
(-1.14612 -3.80535 0.010003)
(-1.18162 -3.5035 0.0103129)
(-1.20975 -3.21663 0.0105584)
(-1.23097 -2.94264 0.0107438)
(-1.24569 -2.68001 0.0108723)
(-1.25424 -2.42778 0.010947)
(-1.25697 -2.18533 0.0109709)
(-1.25422 -1.95234 0.0109469)
(-1.24629 -1.72866 0.0108778)
(-1.23351 -1.51424 0.0107663)
(-1.21617 -1.30908 0.010615)
(-1.19455 -1.11324 0.0104264)
(-1.16893 -0.926781 0.0102028)
(-1.13953 -0.74978 0.00994635)
(-1.1066 -0.582316 0.00965898)
(-1.07035 -0.424476 0.00934258)
(-1.03096 -0.27636 0.00899889)
(-0.988646 -0.138094 0.00862961)
(-0.943584 -0.00979462 0.00823638)
(-0.0937967 -47.6415 0.000818681)
(0.161048 -47.1785 -0.00140547)
(-0.250372 -35.7307 0.00218468)
(-0.268671 -26.0902 0.00234678)
(2.54653 -36.5861 -0.0222213)
(3.09815 -44.957 -0.0270399)
(3.06318 -46.7395 -0.0267367)
(2.52579 -42.7692 -0.0220486)
(1.75744 -33.7224 -0.0153362)
(0.989024 -22.1644 -0.00863044)
(0.229022 -11.4158 -0.00199918)
(0.122242 -4.57403 -0.00108008)
(-0.0800006 -5.82687 0.000531911)
(-0.231177 -6.13095 0.00199383)
(-0.392418 -6.17591 0.00341663)
(-0.554179 -6.03308 0.00483463)
(-0.690428 -5.76264 0.00602499)
(-0.805012 -5.42026 0.00702523)
(-0.898013 -5.05284 0.00783709)
(-0.974896 -4.68903 0.00850824)
(-1.03851 -4.34137 0.00906361)
(-1.0917 -4.01357 0.00952787)
(-1.13591 -3.70478 0.00991388)
(-1.17223 -3.41272 0.0102309)
(-1.20126 -3.13497 0.0104844)
(-1.22347 -2.86953 0.0106783)
(-1.23922 -2.61493 0.0108158)
(-1.24882 -2.37021 0.0108997)
(-1.25261 -2.13479 0.0109328)
(-1.25087 -1.90833 0.0109178)
(-1.24393 -1.69072 0.0108572)
(-1.23206 -1.48191 0.0107537)
(-1.21556 -1.28195 0.0106098)
(-1.19471 -1.0909 0.0104278)
(-1.16976 -0.908858 0.0102101)
(-1.14095 -0.735924 0.00995872)
(-1.10852 -0.572198 0.0096757)
(-1.07268 -0.417793 0.00936291)
(-1.03362 -0.272825 0.00902211)
(-0.991559 -0.137439 0.00865503)
(-0.946677 -0.011766 0.00826337)
(-0.12408 -47.6344 0.00108298)
(0.228155 -47.1474 -0.00199112)
(-0.367611 -35.362 0.00320811)
(0.303862 -28.8976 -0.00264937)
(2.70369 -39.7538 -0.0235941)
(2.79132 -46.1295 -0.024363)
(2.70817 -46.9782 -0.023638)
(2.25126 -42.4164 -0.0196523)
(1.51807 -32.9515 -0.0132455)
(0.832671 -21.3562 -0.00726511)
(0.145822 -10.8594 -0.0012732)
(0.0763379 -4.43201 -0.000680919)
(-0.101704 -5.62517 0.000740233)
(-0.243309 -5.90704 0.00210148)
(-0.39649 -5.94869 0.00345258)
(-0.55098 -5.81745 0.00480679)
(-0.682886 -5.56755 0.00595919)
(-0.795536 -5.24716 0.00694254)
(-0.887785 -4.89955 0.00774783)
(-0.964584 -4.55228 0.00841824)
(-1.02833 -4.21843 0.00897468)
(-1.08179 -3.90247 0.00944143)
(-1.1264 -3.60422 0.00983086)
(-1.16324 -3.32181 0.0101524)
(-1.19291 -3.05305 0.0104115)
(-1.21586 -2.79605 0.0106119)
(-1.23244 -2.54939 0.0107566)
(-1.24293 -2.31214 0.0108483)
(-1.24763 -2.0837 0.0108894)
(-1.24682 -1.86378 0.0108824)
(-1.24077 -1.65224 0.0108297)
(-1.22977 -1.44908 0.0107337)
(-1.21408 -1.25434 0.0105968)
(-1.19398 -1.06812 0.0104214)
(-1.1697 -0.89054 0.0102096)
(-1.1415 -0.721715 0.00996346)
(-1.10959 -0.561774 0.00968502)
(-1.07419 -0.410846 0.00937611)
(-1.0355 -0.269069 0.00903853)
(-0.993737 -0.136603 0.00867403)
(-0.949078 -0.0135924 0.00828433)
(-0.170509 -47.6348 0.0014882)
(0.31678 -47.0948 -0.00276451)