/*--------------------------------*- C++ -*----------------------------------*\
| =========                 |                                                 |
| \\      /  F ield         | OpenFOAM: The Open Source CFD Toolbox           |
|  \\    /   O peration     | Version:  v2012                                 |
|   \\  /    A nd           | Website:  www.openfoam.com                      |
|    \\/     M anipulation  |                                                 |
\*---------------------------------------------------------------------------*/
FoamFile
{
    version     2.0;
    format      ascii;
    class       volScalarField;
    location    "0.15";
    object      alpha.water;
}
// * * * * * * * * * * * * * * * * * * * * * * * * * * * * * * * * * * * * * //

dimensions      [0 0 0 0 0 0 0];


internalField   nonuniform List<scalar> 
3352
(
1.00002
0.999999
1
0.999996
0.999997
0.999995
0.999998
0.999996
1
0.942866
0.585345
0.131144
0.00692662
0.000111465
1.46815e-06
8.02379e-08
4.38141e-09
3.74047e-11
9.67692e-15
1.68683e-18
4.70059e-21
1.09641e-23
2.10209e-26
3.22814e-29
3.82372e-32
3.30517e-35
1.1152e-37
9.89467e-38
2.17849e-37
5.78257e-35
6.56929e-35
4.26059e-32
1.06469e-28
9.64195e-26
2.99795e-19
3.31972e-17
3.12172e-16
2.89779e-16
1.75539e-11
1.00002
1
1
0.999997
0.999996
0.999995
0.999998
0.999993
1
0.951665
0.611418
0.144565
0.0080441
0.000131819
1.46948e-06
4.96234e-08
2.55364e-09
2.36203e-11
4.76219e-15
1.27235e-18
3.62883e-21
8.59809e-24
1.66283e-26
2.55705e-29
3.00694e-32
2.54846e-35
7.21837e-38
5.69166e-38
1.85927e-37
5.8864e-35
2.74035e-34
4.08808e-32
9.08456e-29
7.51093e-26
2.06107e-19
2.31445e-17
2.50515e-16
2.51173e-16
1.01145e-12
1.00002
1
1
0.999997
0.999997
0.999995
0.999997
0.999991
1
0.956018
0.625846
0.152597
0.00874579
0.000144418
1.53562e-06
3.97286e-08
1.98037e-09
1.92441e-11
4.05041e-15
1.07313e-18
3.09788e-21
7.40598e-24
1.43883e-26
2.20947e-29
2.57245e-32
2.12822e-35
4.74116e-38
3.53914e-38
1.7798e-37
5.72697e-35
2.83125e-33
5.05735e-32
9.48428e-29
7.16244e-26
1.70982e-19
1.87034e-17
2.1626e-16
4.87636e-16
5.83509e-13
1.00001
1
1
0.999997
0.999997
0.999995
0.999997
0.999989
1
0.960739
0.642342
0.162217
0.00962868
0.000160921
1.62754e-06
3.13514e-08
1.4708e-09
1.49083e-11
2.74665e-15
8.94275e-19
2.61182e-21
6.28536e-24
1.22155e-26
1.86111e-29
2.12441e-32
1.68895e-35
2.88569e-38
2.00322e-38
1.70561e-37
5.43614e-35
3.48673e-33
6.2904e-32
1.02652e-28
6.92649e-26
1.36612e-19
1.55424e-17
1.81531e-16
8.14101e-16
2.47656e-13
1.00001
1
1
0.999996
0.999997
0.999994
0.999996
0.999988
1
0.965017
0.658535
0.172207
0.0105941
0.000179723
1.76458e-06
2.56539e-08
1.1152e-09
1.15646e-11
1.88642e-15
7.04806e-19
2.04986e-21
4.92715e-24
9.52609e-27
1.4309e-29
1.5858e-32
1.19034e-35
1.6075e-38
1.02129e-38
1.64055e-37
4.95895e-35
2.49554e-33
7.91247e-32
1.13723e-28
6.7935e-26
1.07351e-19
1.3053e-17
1.52962e-16
7.01861e-16
9.98072e-14
1.00001
1
1
0.999996
0.999997
0.999994
0.999995
0.999986
1
0.969082
0.675144
0.183062
0.0117025
0.000202292
1.95e-06
2.15944e-08
8.48588e-10
8.7598e-12
1.10535e-15
-9.09067e-19
-1.01329e-20
-3.21035e-23
-7.27972e-26
-1.2807e-28
-1.73633e-31
-1.73834e-34
-1.12296e-37
4.87318e-39
1.5625e-37
4.26831e-35
1.10177e-33
9.99359e-32
1.25324e-28
-2.78339e-25
8.16719e-20
1.07988e-17
1.28196e-16
5.81546e-16
3.8504e-14
1.00001
1
1.00001
0.999995
0.999998
0.999994
0.999995
0.999985
1
0.972944
0.692234
0.194937
0.012988
0.000229726
2.19733e-06
1.95778e-08
6.50523e-10
6.43775e-12
3.94783e-16
-8.19288e-19
-7.73817e-21
-2.44978e-23
-5.57431e-26
-9.78106e-29
-1.30593e-31
-1.25915e-34
-7.60544e-38
2.36978e-39
1.41908e-37
3.32747e-35
1.72234e-34
1.25289e-31
1.35804e-28
-1.96816e-25
5.98576e-20
8.79633e-18
1.06917e-16
4.59136e-16
1.36746e-14
1.00001
1
1.00001
0.999995
0.999998
0.999993
0.999994
0.999982
1
0.976655
0.709991
0.208109
0.0145057
0.000263676
2.5231e-06
1.89754e-08
5.01136e-10
4.51891e-12
1.02748e-16
-6.71778e-19
-5.76169e-21
-1.82007e-23
-4.13458e-26
-7.17121e-29
-9.307e-32
-8.47317e-35
-4.54107e-38
1.4934e-39
1.156e-37
2.20002e-35
1.45393e-34
1.52478e-31
1.42001e-28
-1.49592e-25
4.18792e-20
7.00653e-18
8.84862e-17
3.55369e-16
4.5775e-15
1.00001
1.00001
1.00001
0.999995
0.999999
0.999993
0.999993
0.999979
1
0.980242
0.72856
0.222869
0.0163212
0.000306243
2.95011e-06
1.9597e-08
3.92228e-10
2.97512e-12
7.89758e-17
-5.64583e-19
-4.11796e-21
-1.27894e-23
-2.86929e-26
-4.85868e-29
-6.02662e-32
-5.04116e-35
-2.20535e-38
1.29063e-39
9.26466e-38
1.09404e-35
1.85688e-34
1.76974e-31
1.4277e-28
-1.09811e-25
2.77341e-20
5.42278e-18
7.23558e-17
2.72495e-16
1.52074e-15
1.00001
1.00001
1.00001
0.999995
0.999999
0.999993
0.99999
0.999976
1
0.983683
0.747984
0.2395
0.018514
0.000360168
3.50895e-06
2.16589e-08
3.12932e-10
1.7663e-12
6.0375e-17
-4.78874e-19
-2.86907e-21
-8.58577e-24
-1.8741e-26
-3.0553e-29
-3.55724e-32
-2.64698e-35
-8.06605e-39
1.20298e-39
6.55567e-38
3.02317e-36
2.31115e-34
1.94305e-31
1.3644e-28
-7.79792e-26
1.72326e-20
4.04953e-18
5.79287e-17
2.08178e-16
5.82924e-16
1.00001
1.00001
1.00001
0.999997
0.999999
0.999993
0.999988
0.999974
1
0.986909
0.768176
0.258248
0.0211773
0.000429036
4.24231e-06
2.53564e-08
2.55382e-10
8.53161e-13
4.6847e-17
-5.06417e-19
-2.48183e-21
-6.74211e-24
-1.36841e-26
-2.06921e-29
-2.17775e-32
-1.36283e-35
-2.28859e-39
1.02939e-39
3.65151e-38
3.26315e-37
2.76875e-34
2.00899e-31
1.2358e-28
-7.14078e-26
9.935e-21
2.90073e-18
4.48292e-17
1.59119e-16
2.97973e-16
1
1.00001
1
0.999998
0.999999
0.999994
0.999986
0.99997
1
0.989825
0.788901
0.27929
0.0244194
0.00051763
5.21155e-06
3.10231e-08
2.23218e-10
2.21241e-13
3.77349e-17
-4.26412e-19
-1.75142e-21
-4.49184e-24
-8.61557e-27
-1.20657e-29
-1.12251e-32
-5.4704e-36
-1.60709e-40
7.24964e-40
1.16477e-38
4.11813e-37
3.1122e-34
1.95584e-31
1.05737e-28
-4.74536e-26
5.19977e-21
1.98983e-18
3.33253e-17
1.21036e-16
1.91438e-16
1
1.00001
1
0.999999
1
0.999993
0.999984
0.999967
1
0.992351
0.809825
0.302733
0.0283668
0.000632426
6.50538e-06
3.92067e-08
2.12362e-10
1.01637e-14
-2.4498e-17
-3.7625e-19
-1.29912e-21
-3.08326e-24
-5.47342e-27
-6.90832e-30
-5.40941e-33
-1.72388e-36
8.69871e-41
2.49137e-40
9.09513e-40
4.97047e-37
3.24566e-34
1.77909e-31
8.51442e-29
-3.06146e-26
2.35618e-21
1.30601e-18
2.38899e-17
8.91736e-17
1.35101e-16
0.999999
1.00001
1
0.999999
1
0.999994
0.999982
0.999963
1
0.994449
0.830565
0.328616
0.0331688
0.000782269
8.25159e-06
5.08044e-08
2.19323e-10
9.82649e-15
-6.76909e-17
-3.5763e-19
-1.03478e-21
-2.22569e-24
-3.56875e-27
-3.91374e-30
-2.37689e-33
-2.68599e-37
8.40167e-41
2.11862e-40
1.00832e-39
5.67823e-37
3.18089e-34
1.52303e-31
6.47309e-29
-1.87659e-26
8.39203e-22
8.11461e-19
1.66359e-17
6.46348e-17
9.7858e-17
0.999994
1.00001
1
0.999999
1
0.999993
0.99998
0.999959
1
0.996131
0.850759
0.356932
0.0390035
0.000979276
1.0633e-05
6.71284e-08
2.50247e-10
9.74981e-15
-1.0374e-16
-3.59132e-19
-8.82367e-22
-1.68999e-24
-2.38046e-27
-2.15596e-30
-8.59986e-34
1.38489e-41
8.04111e-41
1.39831e-40
1.18608e-39
6.16564e-37
2.97678e-34
1.25443e-31
4.74771e-29
-1.10181e-26
1.90908e-22
4.71078e-19
1.11988e-17
4.65375e-17
7.08524e-17
0.999992
1.00001
1
0.999999
1
0.999993
0.999978
0.999955
1
0.997445
0.870112
0.387648
0.0460837
0.00123999
1.39079e-05
9.00582e-08
3.08749e-10
3.68701e-14
-1.36709e-16
-3.77537e-19
-8.09964e-22
-1.36339e-24
-1.63421e-27
-1.13086e-30
-1.76786e-34
1.29581e-41
7.53004e-41
9.5033e-41
1.3861e-39
6.42432e-37
2.72445e-34
1.01853e-31
3.46506e-29
-6.78172e-27
1.45211e-23
2.52506e-19
7.18888e-18
3.30219e-17
5.16899e-17
0.99999
1.00001
1
0.999999
1
0.999993
0.999976
0.999948
0.999997
0.998453
0.888424
0.420709
0.0546614
0.00158673
1.84343e-05
1.22204e-07
4.01131e-10
1.00675e-13
-1.70091e-16
-3.93422e-19
-7.44365e-22
-1.0913e-24
-1.07207e-27
-4.87857e-31
-1.73089e-40
1.03659e-41
6.63576e-41
6.84669e-41
1.54394e-39
6.40798e-37
2.39468e-34
8.02536e-32
2.46931e-29
-3.79025e-27
4.54991e-24
1.23936e-19
4.34562e-18
2.28555e-17
3.7654e-17
0.999991
1.00001
1
0.999998
1
0.999992
0.999972
0.999941
0.999983
0.999196
0.905585
0.456039
0.0650263
0.00204902
2.46941e-05
1.67012e-07
5.36452e-10
1.21115e-13
-2.02239e-16
-4.04538e-19
-6.70884e-22
-8.37658e-25
-6.31923e-28
-1.20347e-31
6.39742e-43
8.39571e-42
5.35505e-41
5.71206e-41
1.59366e-39
5.82e-37
1.9343e-34
5.8239e-32
1.6233e-29
-1.59137e-27
9.32441e-25
5.57857e-20
2.43202e-18
1.5209e-17
2.71873e-17
0.999989
1.00001
1
0.999998
1
0.999992
0.999968
0.999933
0.999968
0.999684
0.921528
0.493486
0.0774912
0.00266458
3.33062e-05
2.28697e-07
7.23639e-10
1.59195e-13
-2.33885e-16
-4.09549e-19
-5.87276e-22
-6.08331e-25
-3.12718e-28
-5.76833e-39
5.176e-43
6.34741e-42
3.91069e-41
4.34561e-41
1.56795e-39
5.05115e-37
1.49189e-34
4.03447e-32
1.01838e-29
-2.71411e-28
2.94665e-25
2.37227e-20
1.23922e-18
9.52031e-18
1.9294e-17
0.999988
1.00001
1
0.999997
1
0.999992
0.999965
0.999924
0.999951
0.999902
0.936178
0.532747
0.0923595
0.0034796
4.50184e-05
3.11843e-07
9.68046e-10
2.7514e-13
-2.65059e-16
-4.14636e-19
-5.15393e-22
-4.25895e-25
-1.08836e-28
6.13889e-44
4.6447e-43
4.78213e-42
2.63568e-41
3.13175e-41
1.5379e-39
4.39486e-37
1.15608e-34
2.81049e-32
6.42613e-30
2.62897e-28
1.54882e-25
1.02679e-20
5.72902e-19
5.41609e-18
1.33567e-17
0.999985
1.00001
0.999999
0.999997
1
0.999992
0.999962
0.999914
0.999932
0.99996
0.949379
0.573304
0.109878
0.00454797
6.06678e-05
4.20533e-07
1.26343e-09
4.55655e-13
-3.07833e-16
-4.33517e-19
-4.62188e-22
-2.84167e-25
-9.50083e-36
5.39049e-44
4.05847e-43
3.69884e-42
1.72094e-41
2.2726e-41
1.52811e-39
3.91789e-37
9.26718e-35
2.03987e-32
4.24819e-30
3.12422e-28
8.5877e-26
4.86302e-21
2.5205e-19
2.69926e-18
8.70644e-18
0.999983
1.00001
1
0.999997
0.999999
0.999992
0.99996
0.999903
0.99991
0.99996
0.960908
0.614425
0.130192
0.00592945
8.11167e-05
5.57033e-07
1.58554e-09
6.83049e-13
-3.63625e-16
-4.69396e-19
-4.24806e-22
-1.6786e-25
1.51458e-42
5.00455e-44
3.52832e-43
3.03586e-42
1.19359e-41
1.78251e-41
1.48381e-39
3.44411e-37
7.40995e-35
1.49228e-32
2.85693e-30
3.89294e-28
4.94467e-26
2.42003e-21
1.16327e-19
1.22675e-18
4.71934e-18
0.999985
1.00001
0.999999
0.999998
0.999998
0.999991
0.999958
0.99989
0.999886
0.99996
0.970591
0.655279
0.153326
0.00768743
0.000107183
7.20285e-07
1.88887e-09
9.06629e-13
-4.37755e-16
-5.25345e-19
-3.97283e-22
-6.67466e-26
1.43974e-42
4.59535e-44
3.01087e-43
2.64785e-42
9.74666e-42
1.55185e-41
1.32483e-39
2.79464e-37
5.49558e-35
1.01722e-32
1.79818e-30
3.05497e-28
2.69499e-26
1.12372e-21
5.54091e-20
5.62484e-19
2.02345e-18
0.999984
1.00001
0.999999
0.999999
0.999998
0.999991
0.999956
0.999877
0.999859
0.999959
0.978461
0.695099
0.179197
0.00988678
0.000139577
9.04471e-07
2.11242e-09
1.04979e-12
-5.37863e-16
-6.00633e-19
-3.68107e-22
3.81597e-42
1.40368e-42
4.24582e-44
2.52394e-43
2.40131e-42
9.292e-42
1.45283e-41
1.08657e-39
2.07616e-37
3.72596e-35
6.32842e-33
1.0314e-30
1.62144e-28
1.10882e-26
4.72587e-22
2.38853e-20
2.53201e-19
9.31546e-19
0.999987
1.00001
1
0.999999
0.999997
0.999991
0.999952
0.999862
0.99983
0.999958
0.984706
0.73333
0.207665
0.0125919
0.000178835
1.09797e-06
2.17688e-09
1.04362e-12
-6.64621e-16
-7.01444e-19
-3.18858e-22
1.78291e-40
1.36768e-42
3.94208e-44
2.08573e-43
2.1985e-42
9.54771e-42
1.40546e-41
8.48299e-40
1.47209e-37
2.42035e-35
3.7855e-33
5.70638e-31
8.32551e-29
4.97692e-27
1.95851e-22
9.72236e-21
1.04185e-19
3.9528e-19
0.999992
1.00001
1
0.999998
0.999997
0.999991
0.999948
0.999844
0.999797
0.999954
0.98959
0.769662
0.238573
0.0158634
0.000225147
1.28043e-06
2.07085e-09
7.39331e-13
-8.1982e-16
-8.24399e-19
-2.24882e-22
1.70061e-40
1.33646e-42
3.68239e-44
1.71017e-43
1.96916e-42
1.00955e-41
1.37062e-41
6.21004e-40
9.78939e-38
1.47785e-35
2.13288e-33
2.9797e-31
4.04224e-29
2.87842e-27
7.70209e-23
3.77054e-21
4.07215e-20
1.58072e-19
0.999993
1.00001
0.999999
0.999998
0.999997
0.999989
0.999945
0.999826
0.99976
0.999929
0.993351
0.803921
0.271731
0.0197497
0.000278059
1.42513e-06
1.71613e-09
1.10168e-13
-1.00375e-15
-8.75851e-19
-4.83287e-23
1.66497e-40
1.31083e-42
3.45684e-44
1.4057e-43
1.65841e-42
1.02316e-41
1.28939e-41
4.26285e-40
6.10174e-38
8.47613e-36
1.13117e-33
1.46745e-31
1.85456e-29
1.75548e-27
2.88441e-23
1.37827e-21
1.49058e-20
5.90037e-20
0.999996
1.00001
0.999998
0.999998
0.999996
0.999989
0.999942
0.999809
0.999719
0.999856
0.996141
0.835891
0.306841
0.0242733
0.000336109
1.47308e-06
1.18672e-09
-1.27039e-13
-1.20739e-15
-8.70324e-19
6.4718e-40
1.63315e-40
1.29128e-42
3.25625e-44
1.17527e-43
1.26347e-42
9.38231e-42
1.12139e-41
2.73229e-40
3.54954e-38
4.54641e-36
5.62159e-34
6.78538e-32
8.00378e-30
7.84302e-28
1.02454e-23
4.75484e-22
5.11004e-21
2.04729e-20
0.999997
1
0.999998
0.999998
0.999996
0.999989
0.99994
0.999793
0.999672
0.999781
0.998059
0.865212
0.343416
0.0294131
0.000396723
1.46579e-06
8.02657e-10
-3.43326e-13
-1.29228e-15
-6.76202e-19
2.33524e-38
1.61394e-40
1.27875e-42
3.072e-44
1.01286e-43
8.54178e-43
6.94205e-42
8.20727e-42
1.62201e-40
1.91684e-38
2.26799e-36
2.6032e-34
2.92889e-32
3.23037e-30
3.24102e-28
3.42545e-24
1.54051e-22
1.63667e-21
6.5819e-21
0.999999
1
0.999998
0.999998
0.999996
0.999989
0.999939
0.999782
0.999623
0.999714
0.999211
0.891456
0.380784
0.0350939
0.000456711
1.24769e-06
4.06238e-11
-5.5122e-13
-1.26469e-15
-2.1709e-19
2.16382e-38
1.60283e-40
1.27261e-42
2.89524e-44
8.97339e-44
5.44979e-43
4.13988e-42
4.92707e-42
8.92011e-41
9.56274e-39
1.04666e-36
1.11708e-34
1.17355e-32
1.2123e-30
1.23549e-28
1.07144e-24
4.6587e-23
4.88251e-22
1.95759e-21
1
1
0.999997
0.999998
0.999996
0.999989
0.999938
0.99977
0.999571
0.999653
0.99969
0.914332
0.418193
0.0411921
0.000513537
9.30297e-07
3.424e-11
-7.98393e-13
-9.54083e-16
1.72045e-29
2.1611e-38
1.59905e-40
1.27112e-42
2.71738e-44
8.02091e-44
3.77928e-43
2.12294e-42
3.28302e-42
4.71862e-41
4.39996e-39
4.45501e-37
4.42666e-35
4.3487e-33
4.21411e-31
4.37707e-29
3.12596e-25
1.30469e-23
1.34859e-22
5.37708e-22
1
1
0.999997
0.999998
0.999995
0.99999
0.999938
0.999757
0.999517
0.999597
0.999806
0.933769
0.454956
0.0475605
0.000567193
5.98017e-07
2.27971e-11
-7.39909e-13
-3.88384e-16
1.77893e-29
2.19012e-38
1.6109e-40
1.28762e-42
2.5369e-44
7.02855e-44
2.96626e-43
1.05981e-42
3.7638e-42
2.55796e-41
1.89723e-39
1.75534e-37
1.61519e-35
1.48165e-33
1.34762e-31
1.4569e-29
8.53697e-26
3.36285e-24
3.4205e-23
1.35733e-22
1.00001
1
0.999996
0.999998
0.999995
0.99999
0.999937
0.999738
0.999459
0.999541
0.999806
0.94987
0.490557
0.0540684
0.000622209
2.36688e-07
9.56892e-12
-4.48546e-13
2.06373e-21
1.8418e-29
2.25038e-38
1.64892e-40
1.31473e-42
2.36291e-44
5.79762e-44
2.44532e-43
6.19178e-43
3.86668e-42
2.51783e-41
1.37729e-39
9.56195e-38
9.01731e-36
8.65098e-34
4.66977e-32
5.26763e-30
2.2028e-26
7.96482e-25
7.90854e-24
3.12209e-23
1.00001
1
0.999996
0.999998
0.999995
0.999991
0.999935
0.999717
0.999399
0.999478
0.999806
0.96288
0.524667
0.0606454
0.000689323
1.15083e-07
-1.57503e-10
-1.16094e-13
1.98777e-21
1.9275e-29
2.3262e-38
1.69644e-40
1.35267e-42
2.2058e-44
4.35965e-44
2.01103e-43
4.42443e-43
1.62912e-42
7.75699e-41
4.35595e-39
2.21563e-37
3.87487e-35
8.26473e-33
2.13489e-31
1.49699e-29
5.43057e-27
1.73864e-25
1.66171e-24
6.48757e-24
1.00001
1
0.999996
0.999998
0.999994
0.999992
0.999932
0.999692
0.999335
0.999409
0.999805
0.973177
0.557093
0.0673217
0.000788362
1.0449e-07
-7.52875e-11
4.00152e-14
1.90322e-21
2.04691e-29
2.43542e-38
1.76693e-40
1.40959e-42
2.07405e-44
3.02635e-44
1.62557e-43
3.83719e-43
7.21638e-43
1.82644e-41
1.05944e-39
6.70261e-38
6.57494e-36
1.149e-32
6.77879e-31
1.95414e-29
1.29734e-27
3.51537e-26
3.17829e-25
1.21283e-24
1.00001
0.999999
0.999996
0.999998
0.999994
0.999993
0.99993
0.999665
0.999267
0.999334
0.999802
0.981102
0.58766
0.0742585
0.000951155
8.4224e-08
8.67318e-11
4.78672e-14
1.85742e-21
2.20481e-29
2.58615e-38
1.86529e-40
1.48609e-42
1.96397e-44
2.05892e-44
1.27311e-43
3.58262e-43
5.49872e-43
1.37311e-41
9.04085e-40
6.02339e-38
2.87498e-36
9.95415e-33
6.41539e-31
1.13199e-29
3.13734e-28
6.61915e-27
5.55597e-26
2.04507e-25
1.00002
0.999998
0.999996
0.999998
0.999994
0.999994
0.999926
0.999635
0.999194
0.999257
0.999782
0.986955
0.616115
0.0817611
0.00122392
3.13448e-08
1.04027e-10
5.43063e-14
1.83379e-21
2.4106e-29
2.78422e-38
1.99515e-40
1.58768e-42
1.87517e-44
1.45992e-44
9.56408e-44
3.5367e-43
6.45132e-43
1.07442e-41
6.29539e-40
3.94474e-38
1.65454e-36
4.83323e-33
4.19669e-31
6.60108e-30
8.29869e-29
1.17579e-27
8.89862e-27
3.13095e-26
1.00002
0.999998
0.999997
0.999999
0.999994
0.999994
0.999924
0.999602
0.999116
0.999176
0.99975
0.991031
0.642165
0.0902776
0.0016489
3.08622e-08
1.21936e-10
6.30523e-14
1.82701e-21
2.67815e-29
3.04293e-38
2.16554e-40
1.72045e-42
1.83562e-44
1.11021e-44
6.73102e-44
3.2103e-43
2.04068e-42
8.49713e-42
3.79658e-40
2.26102e-38
9.24368e-37
1.93001e-33
2.41716e-31
3.55986e-30
2.6589e-29
2.08069e-28
1.30401e-27
4.35751e-27
1.00002
0.999997
0.999997
0.999999
0.999995
0.999993
0.99992
0.999563
0.999033
0.999088
0.999725
0.993643
0.665386
0.100464
0.00221448
4.48781e-08
1.46193e-10
7.36035e-14
1.87678e-21
3.02488e-29
3.37848e-38
2.38657e-40
1.89219e-42
1.83323e-44
8.7973e-45
5.12806e-44
2.10014e-43
2.35131e-42
5.34253e-42
1.72872e-40
9.69778e-39
4.72192e-37
3.41744e-34
1.04094e-31
1.78871e-30
1.05255e-29
4.38135e-29
1.78552e-28
5.32646e-28
1.00002
0.999997
0.999997
0.999999
0.999995
0.999993
0.999921
0.999517
0.998946
0.998993
0.999705
0.995098
0.685982
0.112671
0.00288244
6.6227e-08
1.76597e-10
8.67577e-14
1.98304e-21
3.47394e-29
3.8116e-38
2.67167e-40
2.11342e-42
1.9554e-44
6.71572e-45
3.99921e-44
1.09253e-43
1.32344e-42
3.36328e-42
6.59002e-41
3.44187e-39
1.90124e-37
2.09311e-35
3.15304e-32
7.5682e-31
4.60537e-30
1.36735e-29
2.96937e-29
5.3404e-29
1.00002
0.999997
0.999997
0.999999
0.999996
0.999994
0.999921
0.999482
0.998854
0.998889
0.999685
0.995704
0.704681
0.126657
0.00363202
1.00014e-07
2.15402e-10
1.03093e-13
2.12946e-21
4.05644e-29
4.3703e-38
3.03887e-40
2.39788e-42
2.1287e-44
4.4605e-45
3.11631e-44
6.65154e-44
3.47692e-43
5.82573e-42
2.85799e-41
9.83625e-40
5.11336e-38
3.11962e-36
6.39724e-33
2.46281e-31
1.84952e-30
5.4452e-30
9.08895e-30
1.07666e-29
1.00002
0.999996
0.999997
1
0.999996
0.999995
0.999928
0.999438
0.998757
0.998776
0.99965
0.995877
0.723334
0.141053
0.00445029
1.52659e-07
2.64675e-10
1.23433e-13
2.37217e-21
4.81383e-29
5.09154e-38
3.51189e-40
2.76401e-42
2.38313e-44
2.59535e-45
2.31175e-44
5.80947e-44
7.10186e-44
4.02933e-42
4.51282e-41
2.75219e-40
1.08622e-38
4.22118e-37
8.50316e-34
6.21246e-32
6.27248e-31
2.14688e-30
3.66992e-30
4.12977e-30
1.00003
0.999997
0.999997
1
0.999997
0.999996
0.999942
0.999425
0.998653
0.998653
0.999585
0.995906
0.741943
0.156255
0.00533099
2.35362e-07
3.27171e-10
1.48757e-13
2.76532e-21
1.00003
0.999997
0.999997
1
0.999995
0.999995
0.999963
0.999423
0.998543
0.998511
0.999492
0.996039
0.760577
0.172236
0.00629579
3.65614e-07
4.06156e-10
0.999387
0.996331
1.00001
0.999999
1
0.999998
0.999998
0.999997
0.999998
0.999997
1
0.942865
0.585344
0.131143
0.0069266
0.000111465
1.46817e-06
8.02407e-08
4.38156e-09
3.74053e-11
9.6766e-15
1.68686e-18
4.70068e-21
1.09643e-23
2.10212e-26
3.22819e-29
3.82378e-32
3.30523e-35
1.11528e-37
9.89561e-38
2.17917e-37
5.78419e-35
6.57114e-35
4.26185e-32
1.06501e-28
9.64477e-26
2.99902e-19
3.31837e-17
3.11522e-16
2.89855e-16
1.83823e-11
1.00001
1
1
0.999998
0.999998
0.999997
0.999998
0.999995
1
0.951664
0.611417
0.144564
0.00804408
0.000131819
1.46949e-06
4.9625e-08
2.55372e-09
2.36205e-11
4.76206e-15
1.27237e-18
3.62889e-21
8.59821e-24
1.66285e-26
2.55708e-29
3.00698e-32
2.5485e-35
7.21888e-38
5.69214e-38
1.85982e-37
5.88802e-35
2.74067e-34
4.08929e-32
9.08723e-29
7.51312e-26
2.0617e-19
2.31478e-17
2.50566e-16
2.51233e-16
1.00037e-12
1.00001
1
1
0.999999
0.999998
0.999997
0.999997
0.999993
1
0.956017
0.625845
0.152597
0.00874577
0.000144418
1.53563e-06
3.97299e-08
1.98043e-09
1.92443e-11
4.05002e-15
1.07314e-18
3.09792e-21
7.40608e-24
1.43885e-26
2.2095e-29
2.57248e-32
2.12825e-35
4.74161e-38
3.53957e-38
1.78038e-37
5.72852e-35
2.83195e-33
5.0588e-32
9.48697e-29
7.16445e-26
1.71033e-19
1.87054e-17
2.16286e-16
4.90136e-16
5.81033e-13
1.00001
1
1
0.999998
0.999998
0.999997
0.999996
0.999992
1
0.960738
0.64234
0.162217
0.00962867
0.000160921
1.62755e-06
3.13523e-08
1.47084e-09
1.49084e-11
2.74661e-15
8.94286e-19
2.61186e-21
6.28544e-24
1.22157e-26
1.86113e-29
2.12444e-32
1.68897e-35
2.8861e-38
2.00362e-38
1.70623e-37
5.43757e-35
3.48786e-33
6.29229e-32
1.02683e-28
6.92849e-26
1.36653e-19
1.55444e-17
1.81559e-16
8.15465e-16
2.48162e-13
1.00001
1
1
0.999998
0.999998
0.999996
0.999996
0.999991
1
0.965016
0.658534
0.172207
0.010594
0.000179723
1.76459e-06
2.56546e-08
1.11523e-09
1.15647e-11
1.88642e-15
7.04815e-19
2.04989e-21
4.92722e-24
9.52622e-27
1.43091e-29
1.58582e-32
1.19035e-35
1.60788e-38
1.02166e-38
1.64131e-37
4.96022e-35
2.49458e-33
7.91489e-32
1.1376e-28
6.79572e-26
1.07388e-19
1.30565e-17
1.52986e-16
7.01636e-16
9.97661e-14
1.00001
1
1
0.999998
0.999998
0.999996
0.999995
0.999989
1
0.969081
0.675143
0.183062
0.0117025
0.000202292
1.95001e-06
2.15949e-08
8.4861e-10
8.75987e-12
1.10536e-15
-9.09101e-19
-1.0133e-20
-3.21038e-23
-7.27979e-26
-1.28072e-28
-1.73635e-31
-1.73835e-34
-1.12294e-37
4.87657e-39
1.56333e-37
4.26941e-35
1.10146e-33
9.99664e-32
1.25363e-28
-2.78323e-25
8.1698e-20
1.08012e-17
1.28217e-16
5.81672e-16
3.85138e-14
1.00001
1
1
0.999998
0.999999
0.999996
0.999994
0.999988
1
0.972943
0.692233
0.194936
0.012988
0.000229726
2.19734e-06
1.95782e-08
6.50539e-10
6.43782e-12
3.94791e-16
-8.1931e-19
-7.73828e-21
-2.44981e-23
-5.57438e-26
-9.78119e-29
-1.30595e-31
-1.25916e-34
-7.60522e-38
2.37297e-39
1.41983e-37
3.32826e-35
1.71828e-34
1.25329e-31
1.35846e-28
-1.96867e-25
5.98774e-20
8.79844e-18
1.06935e-16
4.59187e-16
1.36759e-14
1.00001
1
1
0.999998
0.999999
0.999996
0.999994
0.999986
1
0.976655
0.70999
0.208109
0.0145057
0.000263676
2.52311e-06
1.89757e-08
5.01148e-10
4.51897e-12
1.0275e-16
-6.71805e-19
-5.76179e-21
-1.8201e-23
-4.13465e-26
-7.17133e-29
-9.30714e-32
-8.4733e-35
-4.54084e-38
1.49642e-39
1.1563e-37
2.20049e-35
1.45435e-34
1.52525e-31
1.42044e-28
-1.49628e-25
4.18928e-20
7.0082e-18
8.85025e-17
3.55418e-16
4.57816e-15
1.00001
1
1
0.999998
1
0.999995
0.999992
0.999983
1
0.980242
0.72856
0.222869
0.0163212
0.000306243
2.95012e-06
1.95973e-08
3.92237e-10
2.97518e-12
7.89771e-17
-5.64597e-19
-4.11803e-21
-1.27896e-23
-2.86934e-26
-4.85876e-29
-6.02672e-32
-5.04124e-35
-2.2051e-38
1.29351e-39
9.26889e-38
1.09422e-35
1.85742e-34
1.77027e-31
1.42812e-28
-1.09838e-25
2.7743e-20
5.4241e-18
7.23696e-17
2.72534e-16
1.52095e-15
1.00001
1
1
0.999998
1
0.999995
0.999991
0.999981
1
0.983683
0.747983
0.2395
0.018514
0.000360169
3.50895e-06
2.16591e-08
3.12939e-10
1.76635e-12
6.03759e-17
-4.78885e-19
-2.86913e-21
-8.58594e-24
-1.87414e-26
-3.05536e-29
-3.55731e-32
-2.64703e-35
-8.06347e-39
1.20572e-39
6.55833e-38
3.02351e-36
2.31182e-34
1.94362e-31
1.3648e-28
-7.80031e-26
1.72381e-20
4.05052e-18
5.79401e-17
2.0821e-16
5.83006e-16
1
1
1
0.999999
1
0.999995
0.999989
0.999978
1
0.986909
0.768175
0.258248
0.0211773
0.000429036
4.24232e-06
2.53565e-08
2.55388e-10
8.53201e-13
4.68476e-17
-5.06429e-19
-2.48188e-21
-6.74224e-24
-1.36843e-26
-2.06925e-29
-2.17779e-32
-1.36286e-35
-2.28615e-39
1.03199e-39
3.65323e-38
3.26415e-37
2.76953e-34
2.00956e-31
1.23615e-28
-7.14219e-26
9.93814e-21
2.90143e-18
4.48382e-17
1.59144e-16
2.98014e-16
1
1
1
0.999999
1
0.999995
0.999987
0.999974
1
0.989825
0.788901
0.27929
0.0244194
0.000517631
5.21155e-06
3.10232e-08
2.23223e-10
2.21263e-13
3.77354e-17
-4.2642e-19
-1.75145e-21
-4.49192e-24
-8.61573e-27
-1.20659e-29
-1.12253e-32
-5.47048e-36
-1.59201e-40
7.27415e-40
1.1656e-38
4.11934e-37
3.11307e-34
1.9564e-31
1.05767e-28
-4.74659e-26
5.20145e-21
1.9903e-18
3.33321e-17
1.21056e-16
1.91465e-16
1
1
1
0.999999
1
0.999995
0.999986
0.999971
1
0.99235
0.809824
0.302733
0.0283668
0.000632427
6.50539e-06
3.92068e-08
2.12366e-10
1.01638e-14
-2.44967e-17
-3.76255e-19
-1.29914e-21
-3.08331e-24
-5.4735e-27
-6.90843e-30
-5.40948e-33
-1.7239e-36
8.92817e-41
2.51398e-40
9.13343e-40
4.97191e-37
3.24657e-34
1.7796e-31
8.51682e-29
-3.06223e-26
2.35702e-21
1.30632e-18
2.38947e-17
8.9189e-17
1.3512e-16
0.999999
1
1
0.999999
1
0.999995
0.999984
0.999966
1
0.994448
0.830564
0.328616
0.0331689
0.00078227
8.2516e-06
5.08045e-08
2.19326e-10
9.82653e-15
-6.76902e-17
-3.57632e-19
-1.03479e-21
-2.22572e-24
-3.56879e-27
-3.91378e-30
-2.37692e-33
-2.68601e-37
8.63462e-41
2.14011e-40
1.01065e-39
5.67989e-37
3.1818e-34
1.52348e-31
6.47495e-29
-1.87706e-26
8.39583e-22
8.11652e-19
1.66391e-17
6.46458e-17
9.78725e-17
0.999996
1
1
1
1
0.999995
0.999982
0.999962
1
0.996129
0.850758
0.356932
0.0390036
0.000979278
1.0633e-05
6.71285e-08
2.50249e-10
9.74983e-15
-1.03739e-16
-3.59133e-19
-8.82371e-22
-1.69e-24
-2.38047e-27
-2.15597e-30
-8.59989e-34
1.40195e-41
8.29005e-41
1.42306e-40
1.18886e-39
6.16746e-37
2.97765e-34
1.2548e-31
4.74908e-29
-1.1021e-26
1.91034e-22
4.71197e-19
1.12008e-17
4.65449e-17
7.08631e-17
0.999994
1
1
1
1
0.999995
0.999979
0.999957
0.999999
0.997444
0.870111
0.387648
0.0460838
0.00123999
1.39079e-05
9.00582e-08
3.08751e-10
3.68693e-14
-1.36708e-16
-3.77537e-19
-8.09964e-22
-1.36339e-24
-1.63421e-27
-1.13087e-30
-1.76786e-34
1.32332e-41
7.80784e-41
9.78545e-41
1.38932e-39
6.4265e-37
2.72531e-34
1.01885e-31
3.46611e-29
-6.78317e-27
1.45296e-23
2.52581e-19
7.19008e-18
3.30262e-17
5.1697e-17
0.999994
1
1
1
1
0.999994
0.999977
0.99995
0.999993
0.998452
0.888423
0.420709
0.0546615
0.00158674
1.84343e-05
1.22204e-07
4.01132e-10
1.00674e-13
-1.7009e-16
-3.93421e-19
-7.44363e-22
-1.0913e-24
-1.07207e-27
-4.87856e-31
-1.73145e-40
1.06056e-41
6.94925e-41
7.15476e-41
1.54756e-39
6.4105e-37
2.3956e-34
8.02842e-32
2.47023e-29
-3.79137e-27
4.55449e-24
1.23982e-19
4.34637e-18
2.28575e-17
3.76575e-17
0.999994
1.00001
1
0.999999
1
0.999994
0.999973
0.999943
0.999977
0.999195
0.905583
0.456039
0.0650264
0.00204903
2.46941e-05
1.67012e-07
5.36453e-10
1.21119e-13
-2.02238e-16
-4.04538e-19
-6.70883e-22
-8.37657e-25
-6.31923e-28
-1.20347e-31
5.90681e-43
8.60272e-42
5.66431e-41
6.01818e-41
1.59739e-39
5.82267e-37
1.93517e-34
5.82655e-32
1.62403e-29
-1.59208e-27
9.34374e-25
5.58123e-20
2.43253e-18
1.52096e-17
2.71874e-17
0.999993
1.00001
1
0.999999
1
0.999994
0.999969
0.999935
0.999962
0.999684
0.921527
0.493486
0.0774913
0.00266458
3.33062e-05
2.28698e-07
7.23639e-10
1.59196e-13
-2.33885e-16
-4.09549e-19
-5.87276e-22
-6.08331e-25
-3.12718e-28
-5.76844e-39
4.77235e-43
6.48666e-42
4.16878e-41
4.60339e-41
1.57123e-39
5.05345e-37
1.49257e-34
4.03639e-32
1.01887e-29
-2.71694e-28
2.94809e-25
2.37357e-20
1.23959e-18
9.52037e-18
1.92916e-17
0.999992
1.00001
1
0.999999
1
0.999993
0.999966
0.999925
0.999944
0.999902
0.936178
0.532747
0.0923596
0.00347961
4.50184e-05
3.11843e-07
9.68046e-10
2.7514e-13
-2.65059e-16
-4.14636e-19
-5.15393e-22
-4.25895e-25
-1.08836e-28
5.70952e-44
4.28516e-43
4.85181e-42
2.81569e-41
3.31372e-41
1.54022e-39
4.39633e-37
1.15649e-34
2.81156e-32
6.42866e-30
2.62886e-28
1.54948e-25
1.02726e-20
5.73142e-19
5.41633e-18
1.33532e-17
0.999991
1.00001
1
0.999999
1
0.999993
0.999962
0.999915
0.999925
0.99996
0.949379
0.573304
0.109878
0.00454798
6.06678e-05
4.20533e-07
1.26343e-09
4.55654e-13
-3.07833e-16
-4.33517e-19
-4.62188e-22
-2.84167e-25
-9.50094e-36
5.04572e-44
3.75257e-43
3.71445e-42
1.82559e-41
2.37996e-41
1.52938e-39
3.9184e-37
9.26853e-35
2.04022e-32
4.24897e-30
3.12487e-28
8.58962e-26
4.86392e-21
2.52169e-19
2.69978e-18
8.70345e-18
0.999989
1.00001
1
0.999999
1
0.999993
0.99996
0.999903
0.999904
0.99996
0.960909
0.614425
0.130192
0.00592946
8.11167e-05
5.57033e-07
1.58554e-09
6.83048e-13
-3.63625e-16
-4.69396e-19
-4.24806e-22
-1.6786e-25
1.51606e-42
4.69935e-44
3.27072e-43
3.02061e-42
1.24393e-41
1.83511e-41
1.48427e-39
3.44395e-37
7.40964e-35
1.49224e-32
2.85686e-30
3.89201e-28
4.94463e-26
2.41982e-21
1.16365e-19
1.22718e-18
4.7187e-18
0.99999
1.00001
1
0.999999
0.999999
0.999993
0.999958
0.99989
0.99988
0.99996
0.970591
0.655279
0.153326
0.00768744
0.000107183
7.20285e-07
1.88887e-09
9.0663e-13
-4.37755e-16
-5.25345e-19
-3.97283e-22
-6.67465e-26
1.46938e-42
4.32918e-44
2.79503e-43
2.62136e-42
9.96208e-42
1.57473e-41
1.32494e-39
2.79436e-37
5.49501e-35
1.01711e-32
1.798e-30
3.05464e-28
2.6947e-26
1.12351e-21
5.54146e-20
5.62655e-19
2.02437e-18
0.99999
1.00001
1
1
0.999999
0.999992
0.999955
0.999876
0.999853
0.99996
0.978462
0.695099
0.179197
0.00988679
0.000139577
9.04471e-07
2.11242e-09
1.0498e-12
-5.37862e-16
-6.00632e-19
-3.68107e-22
1.8456e-40
1.4026e-42
4.01067e-44
2.3397e-43
2.3758e-42
9.42188e-42
1.46597e-41
1.08661e-39
2.07598e-37
3.72564e-35
6.32794e-33
1.03132e-30
1.62131e-28
1.10927e-26
4.72518e-22
2.38886e-20
2.53271e-19
9.31829e-19
0.999993
1
1
1
0.999998
0.999992
0.999951
0.999861
0.999824
0.999958
0.984707
0.73333
0.207665
0.0125919
0.000178835
1.09797e-06
2.17688e-09
1.04362e-12
-6.64621e-16
-7.01444e-19
-3.18858e-22
1.74768e-40
1.37004e-42
3.73264e-44
1.92415e-43
2.1806e-42
9.69915e-42
1.42135e-41
8.48366e-40
1.47192e-37
2.42006e-35
3.78505e-33
5.70567e-31
8.32447e-29
4.97693e-27
1.95811e-22
9.72294e-21
1.04214e-19
3.95427e-19
0.999995
1
1
0.999999
0.999998
0.999992
0.999947
0.999843
0.999791
0.999955
0.989591
0.769662
0.238573
0.0158634
0.000225147
1.28043e-06
2.07085e-09
7.39331e-13
-8.1982e-16
-8.244e-19
-2.24882e-22
1.70807e-40
1.33817e-42
3.49397e-44
1.56596e-43
1.96323e-42
1.03974e-41
1.39921e-41
6.21244e-40
9.78877e-38
1.47774e-35
2.13271e-33
2.97943e-31
4.04186e-29
2.86339e-27
7.70107e-23
3.77054e-21
4.07302e-20
1.5813e-19
0.999996
1
0.999999
0.999999
0.999998
0.99999
0.999942
0.999824
0.999755
0.999929
0.993352
0.803922
0.271731
0.0197497
0.000278059
1.42513e-06
1.71613e-09
1.10168e-13
-1.00375e-15
-8.75851e-19
-4.83287e-23
1.67445e-40
1.31273e-42
3.28546e-44
1.27648e-43
1.66779e-42
1.06656e-41
1.33437e-41
4.26762e-40
6.10206e-38
8.47643e-36
1.1312e-33
1.46748e-31
1.85459e-29
1.75562e-27
2.88439e-23
1.37823e-21
1.4908e-20
5.90235e-20
0.999998
1
0.999999
0.999999
0.999998
0.999991
0.99994
0.999807
0.999714
0.999855
0.996142
0.835892
0.306841
0.0242733
0.000336109
1.47308e-06
1.18672e-09
-1.27039e-13
-1.20739e-15
-8.70324e-19