/*--------------------------------*- C++ -*----------------------------------*\
| =========                 |                                                 |
| \\      /  F ield         | OpenFOAM: The Open Source CFD Toolbox           |
|  \\    /   O peration     | Version:  v2012                                 |
|   \\  /    A nd           | Website:  www.openfoam.com                      |
|    \\/     M anipulation  |                                                 |
\*---------------------------------------------------------------------------*/
FoamFile
{
    version     2.0;
    format      ascii;
    class       volScalarField;
    location    "0.15";
    object      p;
}
// * * * * * * * * * * * * * * * * * * * * * * * * * * * * * * * * * * * * * //

dimensions      [1 -1 -2 0 0 0 0];


internalField   nonuniform List<scalar> 
3352
(
3.49489e+06
3.49321e+06
3.49565e+06
3.49664e+06
3.49712e+06
3.49839e+06
3.49997e+06
3.50001e+06
3.50051e+06
3.5001e+06
3.49805e+06
3.49639e+06
3.49709e+06
3.49804e+06
3.49881e+06
3.49944e+06
3.49995e+06
3.50036e+06
3.50067e+06
3.5009e+06
3.50105e+06
3.50115e+06
3.5012e+06
3.50121e+06
3.50119e+06
3.50115e+06
3.50109e+06
3.50102e+06
3.50094e+06
3.50085e+06
3.50076e+06
3.50065e+06
3.50055e+06
3.50044e+06
3.50033e+06
3.50021e+06
3.50008e+06
3.49994e+06
3.49977e+06
3.50541e+06
3.50474e+06
3.50501e+06
3.50311e+06
3.50418e+06
3.50244e+06
3.50208e+06
3.50224e+06
3.50231e+06
3.50188e+06
3.49945e+06
3.49702e+06
3.49767e+06
3.49847e+06
3.49891e+06
3.49916e+06
3.49933e+06
3.49945e+06
3.49956e+06
3.49966e+06
3.49976e+06
3.49985e+06
3.49993e+06
3.5e+06
3.50006e+06
3.5001e+06
3.50014e+06
3.50016e+06
3.50017e+06
3.50016e+06
3.50014e+06
3.50011e+06
3.50007e+06
3.50002e+06
3.49995e+06
3.49987e+06
3.49978e+06
3.49967e+06
3.49951e+06
3.49943e+06
3.50069e+06
3.50022e+06
3.50107e+06
3.50114e+06
3.50139e+06
3.50158e+06
3.50192e+06
3.5021e+06
3.50157e+06
3.49882e+06
3.4955e+06
3.49592e+06
3.497e+06
3.49783e+06
3.49846e+06
3.49894e+06
3.49929e+06
3.49955e+06
3.49973e+06
3.49985e+06
3.49993e+06
3.49998e+06
3.50001e+06
3.50001e+06
3.50001e+06
3.49999e+06
3.49997e+06
3.49994e+06
3.4999e+06
3.49986e+06
3.49982e+06
3.49976e+06
3.49971e+06
3.49964e+06
3.49957e+06
3.49949e+06
3.4994e+06
3.49928e+06
3.50133e+06
3.50404e+06
3.50177e+06
3.50307e+06
3.50187e+06
3.50215e+06
3.50164e+06
3.50191e+06
3.50189e+06
3.50143e+06
3.49862e+06
3.49516e+06
3.49555e+06
3.4967e+06
3.49751e+06
3.4981e+06
3.49853e+06
3.49884e+06
3.49907e+06
3.49924e+06
3.49937e+06
3.49947e+06
3.49954e+06
3.49959e+06
3.49963e+06
3.49964e+06
3.49965e+06
3.49964e+06
3.49962e+06
3.49959e+06
3.49956e+06
3.49952e+06
3.49947e+06
3.49942e+06
3.49936e+06
3.49929e+06
3.49922e+06
3.49914e+06
3.49904e+06
3.49868e+06
3.5029e+06
3.49966e+06
3.50211e+06
3.50023e+06
3.50123e+06
3.50051e+06
3.50072e+06
3.50075e+06
3.50018e+06
3.49748e+06
3.49397e+06
3.49446e+06
3.49583e+06
3.49683e+06
3.49759e+06
3.49814e+06
3.49853e+06
3.49882e+06
3.49902e+06
3.49916e+06
3.49925e+06
3.49931e+06
3.49935e+06
3.49937e+06
3.49937e+06
3.49936e+06
3.49935e+06
3.49933e+06
3.4993e+06
3.49927e+06
3.49923e+06
3.49918e+06
3.49913e+06
3.49908e+06
3.49902e+06
3.49895e+06
3.49888e+06
3.4988e+06
3.49833e+06
3.50289e+06
3.49924e+06
3.50169e+06
3.49944e+06
3.50035e+06
3.49937e+06
3.49927e+06
3.49945e+06
3.49878e+06
3.4964e+06
3.49311e+06
3.49379e+06
3.49535e+06
3.49643e+06
3.49724e+06
3.4978e+06
3.49821e+06
3.4985e+06
3.4987e+06
3.49885e+06
3.49895e+06
3.49901e+06
3.49905e+06
3.49907e+06
3.49908e+06
3.49907e+06
3.49905e+06
3.49903e+06
3.49901e+06
3.49897e+06
3.49893e+06
3.49889e+06
3.49885e+06
3.4988e+06
3.49875e+06
3.49869e+06
3.49863e+06
3.49856e+06
3.49744e+06
3.50148e+06
3.49842e+06
3.50019e+06
3.49854e+06
3.49895e+06
3.49807e+06
3.49761e+06
3.49811e+06
3.49726e+06
3.49531e+06
3.4922e+06
3.49302e+06
3.49479e+06
3.49599e+06
3.49688e+06
3.49749e+06
3.49793e+06
3.49824e+06
3.49845e+06
3.4986e+06
3.49869e+06
3.49875e+06
3.49878e+06
3.49879e+06
3.49879e+06
3.49878e+06
3.49877e+06
3.49874e+06
3.49871e+06
3.49868e+06
3.49865e+06
3.49861e+06
3.49857e+06
3.49852e+06
3.49847e+06
3.49842e+06
3.49837e+06
3.49832e+06
3.49792e+06
3.50033e+06
3.49869e+06
3.49886e+06
3.49857e+06
3.49786e+06
3.49733e+06
3.49654e+06
3.49739e+06
3.49638e+06
3.49486e+06
3.49186e+06
3.49265e+06
3.49451e+06
3.49573e+06
3.49664e+06
3.49726e+06
3.4977e+06
3.498e+06
3.4982e+06
3.49834e+06
3.49843e+06
3.49848e+06
3.49851e+06
3.49852e+06
3.49851e+06
3.4985e+06
3.49848e+06
3.49845e+06
3.49843e+06
3.49839e+06
3.49836e+06
3.49832e+06
3.49828e+06
3.49825e+06
3.4982e+06
3.49816e+06
3.49812e+06
3.49808e+06
3.49885e+06
3.4992e+06
3.49956e+06
3.49778e+06
3.4993e+06
3.49738e+06
3.49739e+06
3.4965e+06
3.49761e+06
3.4965e+06
3.49524e+06
3.4921e+06
3.49257e+06
3.49441e+06
3.49558e+06
3.49648e+06
3.49707e+06
3.4975e+06
3.49778e+06
3.49798e+06
3.4981e+06
3.49818e+06
3.49822e+06
3.49824e+06
3.49825e+06
3.49824e+06
3.49822e+06
3.4982e+06
3.49817e+06
3.49814e+06
3.49811e+06
3.49807e+06
3.49804e+06
3.498e+06
3.49797e+06
3.49794e+06
3.4979e+06
3.49787e+06
3.49784e+06
3.50025e+06
3.49876e+06
3.5007e+06
3.49751e+06
3.50051e+06
3.49798e+06
3.49849e+06
3.49776e+06
3.49892e+06
3.49779e+06
3.4966e+06
3.49305e+06
3.49289e+06
3.49459e+06
3.4956e+06
3.49642e+06
3.49695e+06
3.49734e+06
3.49759e+06
3.49777e+06
3.49788e+06
3.49794e+06
3.49797e+06
3.49798e+06
3.49798e+06
3.49796e+06
3.49794e+06
3.49791e+06
3.49788e+06
3.49785e+06
3.49782e+06
3.49779e+06
3.49776e+06
3.49773e+06
3.4977e+06
3.49767e+06
3.49764e+06
3.49761e+06
3.49759e+06
3.5011e+06
3.49934e+06
3.50135e+06
3.49826e+06
3.5015e+06
3.49964e+06
3.50033e+06
3.50009e+06
3.50106e+06
3.5e+06
3.49867e+06
3.4945e+06
3.49347e+06
3.49492e+06
3.4957e+06
3.49643e+06
3.49687e+06
3.49721e+06
3.49743e+06
3.49757e+06
3.49766e+06
3.49771e+06
3.49773e+06
3.49773e+06
3.49771e+06
3.49769e+06
3.49766e+06
3.49763e+06
3.4976e+06
3.49757e+06
3.49753e+06
3.4975e+06
3.49747e+06
3.49745e+06
3.49742e+06
3.4974e+06
3.49738e+06
3.49736e+06
3.49735e+06
3.5012e+06
3.50116e+06
3.50133e+06
3.50023e+06
3.50211e+06
3.50211e+06
3.50261e+06
3.50295e+06
3.50354e+06
3.50264e+06
3.50107e+06
3.49619e+06
3.49419e+06
3.49535e+06
3.49588e+06
3.49649e+06
3.49683e+06
3.49711e+06
3.49728e+06
3.4974e+06
3.49746e+06
3.49749e+06
3.49749e+06
3.49748e+06
3.49745e+06
3.49742e+06
3.49739e+06
3.49735e+06
3.49731e+06
3.49728e+06
3.49725e+06
3.49722e+06
3.49719e+06
3.49717e+06
3.49715e+06
3.49713e+06
3.49711e+06
3.4971e+06
3.4971e+06
3.50095e+06
3.50407e+06
3.50103e+06
3.50316e+06
3.50252e+06
3.50492e+06
3.50484e+06
3.50576e+06
3.50587e+06
3.50521e+06
3.50337e+06
3.49781e+06
3.49487e+06
3.49576e+06
3.49607e+06
3.49656e+06
3.4968e+06
3.49703e+06
3.49715e+06
3.49723e+06
3.49726e+06
3.49727e+06
3.49725e+06
3.49723e+06
3.49719e+06
3.49715e+06
3.49711e+06
3.49707e+06
3.49703e+06
3.49699e+06
3.49696e+06
3.49693e+06
3.49691e+06
3.49689e+06
3.49687e+06
3.49686e+06
3.49685e+06
3.49685e+06
3.49685e+06
3.50063e+06
3.50772e+06
3.50085e+06
3.50672e+06
3.503e+06
3.50768e+06
3.50661e+06
3.50801e+06
3.50769e+06
3.50728e+06
3.50525e+06
3.49918e+06
3.49541e+06
3.49611e+06
3.49623e+06
3.49663e+06
3.49679e+06
3.49695e+06
3.49702e+06
3.49707e+06
3.49707e+06
3.49706e+06
3.49702e+06
3.49698e+06
3.49693e+06
3.49688e+06
3.49683e+06
3.49678e+06
3.49674e+06
3.4967e+06
3.49667e+06
3.49664e+06
3.49662e+06
3.49661e+06
3.49659e+06
3.49659e+06
3.49658e+06
3.49659e+06
3.4966e+06
3.50074e+06
3.51148e+06
3.50104e+06
3.5103e+06
3.50367e+06
3.5099e+06
3.50783e+06
3.50943e+06
3.50885e+06
3.50865e+06
3.50654e+06
3.50023e+06
3.49575e+06
3.49635e+06
3.49635e+06
3.49669e+06
3.49677e+06
3.49689e+06
3.49691e+06
3.49692e+06
3.49689e+06
3.49685e+06
3.49679e+06
3.49673e+06
3.49667e+06
3.49661e+06
3.49655e+06
3.4965e+06
3.49645e+06
3.49641e+06
3.49638e+06
3.49635e+06
3.49634e+06
3.49632e+06
3.49632e+06
3.49631e+06
3.49632e+06
3.49633e+06
3.49634e+06
3.50153e+06
3.51494e+06
3.50195e+06
3.51344e+06
3.50473e+06
3.51147e+06
3.50855e+06
3.51002e+06
3.50942e+06
3.50936e+06
3.50732e+06
3.50106e+06
3.49598e+06
3.49653e+06
3.49646e+06
3.49676e+06
3.49677e+06
3.49684e+06
3.49681e+06
3.49678e+06
3.49671e+06
3.49664e+06
3.49656e+06
3.49648e+06
3.49641e+06
3.49633e+06
3.49627e+06
3.49621e+06
3.49616e+06
3.49612e+06
3.49609e+06
3.49606e+06
3.49605e+06
3.49604e+06
3.49604e+06
3.49604e+06
3.49605e+06
3.49607e+06
3.49609e+06
3.50344e+06
3.51759e+06
3.5038e+06
3.51575e+06
3.50642e+06
3.51237e+06
3.50914e+06
3.51008e+06
3.50976e+06
3.50973e+06
3.50792e+06
3.50195e+06
3.49626e+06
3.49674e+06
3.49661e+06
3.49685e+06
3.49679e+06
3.4968e+06
3.49672e+06
3.49664e+06
3.49654e+06
3.49644e+06
3.49634e+06
3.49624e+06
3.49614e+06
3.49606e+06
3.49598e+06
3.49592e+06
3.49587e+06
3.49582e+06
3.49579e+06
3.49577e+06
3.49576e+06
3.49575e+06
3.49575e+06
3.49576e+06
3.49578e+06
3.4958e+06
3.49583e+06
3.50658e+06
3.51935e+06
3.50682e+06
3.51717e+06
3.50892e+06
3.51287e+06
3.5101e+06
3.51027e+06
3.51047e+06
3.51037e+06
3.50892e+06
3.50328e+06
3.49685e+06
3.49709e+06
3.49687e+06
3.49701e+06
3.49686e+06
3.4968e+06
3.49665e+06
3.49652e+06
3.49638e+06
3.49624e+06
3.49611e+06
3.49598e+06
3.49587e+06
3.49578e+06
3.49569e+06
3.49562e+06
3.49557e+06
3.49552e+06
3.49549e+06
3.49547e+06
3.49546e+06
3.49546e+06
3.49547e+06
3.49549e+06
3.49551e+06
3.49554e+06
3.49557e+06
3.51095e+06
3.52024e+06
3.51094e+06
3.51801e+06
3.51222e+06
3.51347e+06
3.51187e+06
3.51131e+06
3.51211e+06
3.51183e+06
3.51082e+06
3.50533e+06
3.49795e+06
3.49768e+06
3.49728e+06
3.49725e+06
3.49698e+06
3.49682e+06
3.4966e+06
3.49641e+06
3.49621e+06
3.49604e+06
3.49587e+06
3.49573e+06
3.4956e+06
3.49549e+06
3.4954e+06
3.49532e+06
3.49526e+06
3.49522e+06
3.49519e+06
3.49517e+06
3.49516e+06
3.49517e+06
3.49518e+06
3.4952e+06
3.49523e+06
3.49527e+06
3.49531e+06
3.516e+06
3.52062e+06
3.51559e+06
3.51872e+06
3.51594e+06
3.51466e+06
3.5146e+06
3.51351e+06
3.51479e+06
3.51429e+06
3.51369e+06
3.50809e+06
3.49958e+06
3.49849e+06
3.49784e+06
3.49757e+06
3.49716e+06
3.49688e+06
3.49656e+06
3.4963e+06
3.49605e+06
3.49583e+06
3.49564e+06
3.49547e+06
3.49532e+06
3.49519e+06
3.49509e+06
3.49501e+06
3.49495e+06
3.4949e+06
3.49488e+06
3.49486e+06
3.49486e+06
3.49487e+06
3.49489e+06
3.49492e+06
3.49496e+06
3.495e+06
3.49505e+06
3.52181e+06
3.52091e+06
3.51994e+06
3.51965e+06
3.51944e+06
3.51654e+06
3.51789e+06
3.51655e+06
3.51806e+06
3.51744e+06
3.51704e+06
3.51123e+06
3.50157e+06
3.49943e+06
3.49851e+06
3.49795e+06
3.49737e+06
3.49695e+06
3.49654e+06
3.4962e+06
3.49589e+06
3.49562e+06
3.49539e+06
3.49519e+06
3.49503e+06
3.49489e+06
3.49478e+06
3.49469e+06
3.49463e+06
3.49458e+06
3.49456e+06
3.49455e+06
3.49455e+06
3.49457e+06
3.4946e+06
3.49464e+06
3.49468e+06
3.49473e+06
3.49479e+06
3.52554e+06
3.52119e+06
3.52317e+06
3.52072e+06
3.52214e+06
3.51885e+06
3.52095e+06
3.51968e+06
3.52112e+06
3.52054e+06
3.52012e+06
3.51429e+06
3.5036e+06
3.50037e+06
3.49921e+06
3.49833e+06
3.49759e+06
3.49702e+06
3.49651e+06
3.49609e+06
3.49571e+06
3.4954e+06
3.49513e+06
3.49491e+06
3.49472e+06
3.49457e+06
3.49445e+06
3.49436e+06
3.4943e+06
3.49426e+06
3.49424e+06
3.49423e+06
3.49424e+06
3.49427e+06
3.4943e+06
3.49435e+06
3.4944e+06
3.49446e+06
3.49453e+06
3.52782e+06
3.52085e+06
3.5248e+06
3.52149e+06
3.52386e+06
3.52105e+06
3.52323e+06
3.52213e+06
3.52329e+06
3.52291e+06
3.52235e+06
3.51683e+06
3.50542e+06
3.50119e+06
3.49986e+06
3.49869e+06
3.4978e+06
3.49708e+06
3.49646e+06
3.49596e+06
3.49552e+06
3.49516e+06
3.49486e+06
3.49461e+06
3.4944e+06
3.49424e+06
3.49412e+06
3.49402e+06
3.49396e+06
3.49392e+06
3.49391e+06
3.49391e+06
3.49393e+06
3.49396e+06
3.494e+06
3.49406e+06
3.49412e+06
3.49419e+06
3.49426e+06
3.52846e+06
3.52016e+06
3.5254e+06
3.52154e+06
3.5249e+06
3.52259e+06
3.52461e+06
3.52359e+06
3.52438e+06
3.52433e+06
3.52361e+06
3.51872e+06
3.507e+06
3.50186e+06
3.50044e+06
3.49899e+06
3.49797e+06
3.4971e+06
3.49639e+06
3.4958e+06
3.4953e+06
3.49489e+06
3.49456e+06
3.49428e+06
3.49406e+06
3.49389e+06
3.49376e+06
3.49367e+06
3.49361e+06
3.49358e+06
3.49357e+06
3.49358e+06
3.49361e+06
3.49365e+06
3.4937e+06
3.49377e+06
3.49384e+06
3.49391e+06
3.49399e+06
3.5293e+06
3.5184e+06
3.52555e+06
3.52083e+06
3.52577e+06
3.52351e+06
3.52544e+06
3.52437e+06
3.52478e+06
3.52518e+06
3.52434e+06
3.52025e+06
3.50857e+06
3.50248e+06
3.50097e+06
3.49926e+06
3.49811e+06
3.49709e+06
3.49628e+06
3.4956e+06
3.49505e+06
3.49459e+06
3.49423e+06
3.49393e+06
3.4937e+06
3.49352e+06
3.49339e+06
3.4933e+06
3.49325e+06
3.49322e+06
3.49322e+06
3.49324e+06
3.49328e+06
3.49333e+06
3.4934e+06
3.49347e+06
3.49355e+06
3.49364e+06
3.49373e+06
3.53029e+06
3.51661e+06
3.52636e+06
3.5199e+06
3.527e+06
3.52419e+06
3.5263e+06
3.52519e+06
3.52528e+06
3.52624e+06
3.52528e+06
3.52197e+06
3.51046e+06
3.50317e+06
3.50151e+06
3.49948e+06
3.49819e+06
3.49702e+06
3.49611e+06
3.49535e+06
3.49475e+06
3.49425e+06
3.49386e+06
3.49355e+06
3.49331e+06
3.49313e+06
3.493e+06
3.49292e+06
3.49287e+06
3.49285e+06
3.49286e+06
3.49289e+06
3.49294e+06
3.49301e+06
3.49308e+06
3.49317e+06
3.49326e+06
3.49336e+06
3.49346e+06
3.5327e+06
3.51512e+06
3.52836e+06
3.51965e+06
3.5288e+06
3.52516e+06
3.52763e+06
3.52659e+06
3.52649e+06
3.52813e+06
3.52694e+06
3.5243e+06
3.51279e+06
3.50399e+06
3.50205e+06
3.49966e+06
3.49821e+06
3.49687e+06
3.49587e+06
3.49504e+06
3.49439e+06
3.49386e+06
3.49345e+06
3.49313e+06
3.49289e+06
3.49271e+06
3.49259e+06
3.49251e+06
3.49248e+06
3.49247e+06
3.4925e+06
3.49254e+06
3.4926e+06
3.49268e+06
3.49277e+06
3.49287e+06
3.49297e+06
3.49308e+06
3.49319e+06
3.53601e+06
3.5152e+06
3.53152e+06
3.5208e+06
3.53095e+06
3.52676e+06
3.52944e+06
3.52865e+06
3.52871e+06
3.53051e+06
3.52914e+06
3.52699e+06
3.51528e+06
3.50482e+06
3.5025e+06
3.49971e+06
3.4981e+06
3.49661e+06
3.49553e+06
3.49464e+06
3.49395e+06
3.49341e+06
3.49299e+06
3.49267e+06
3.49243e+06
3.49226e+06
3.49215e+06
3.49209e+06
3.49207e+06
3.49208e+06
3.49212e+06
3.49218e+06
3.49226e+06
3.49235e+06
3.49245e+06
3.49256e+06
3.49268e+06
3.4928e+06
3.49292e+06
3.54022e+06
3.51713e+06
3.53504e+06
3.52338e+06
3.53284e+06
3.52881e+06
3.53116e+06
3.53078e+06
3.53104e+06
3.53271e+06
3.53129e+06
3.52942e+06
3.51743e+06
3.50538e+06
3.50268e+06
3.49955e+06
3.49782e+06
3.4962e+06
3.49507e+06
3.49414e+06
3.49344e+06
3.49288e+06
3.49247e+06
3.49216e+06
3.49193e+06
3.49178e+06
3.49169e+06
3.49164e+06
3.49164e+06
3.49167e+06
3.49173e+06
3.49181e+06
3.49191e+06
3.49201e+06
3.49213e+06
3.49226e+06
3.49239e+06
3.49252e+06
3.49265e+06
3.54237e+06
3.52077e+06
3.53791e+06
3.52658e+06
3.53384e+06
3.53069e+06
3.53213e+06
3.53218e+06
3.53247e+06
3.5339e+06
3.53262e+06
3.53086e+06
3.51879e+06
3.50539e+06
3.50242e+06
3.49907e+06
3.49729e+06
3.4956e+06
3.49446e+06
3.49352e+06
3.49282e+06
3.49228e+06
3.49188e+06
3.49159e+06
3.49139e+06
3.49126e+06
3.4912e+06
3.49118e+06
3.4912e+06
3.49125e+06
3.49133e+06
3.49143e+06
3.49155e+06
3.49167e+06
3.49181e+06
3.49195e+06
3.49209e+06
3.49224e+06
3.49238e+06
3.54263e+06
3.52446e+06
3.5392e+06
3.52926e+06
3.53378e+06
3.53157e+06
3.53203e+06
3.53237e+06
3.53267e+06
3.53352e+06
3.53262e+06
3.53081e+06
3.51904e+06
3.50462e+06
3.5016e+06
3.4982e+06
3.49646e+06
3.49477e+06
3.49367e+06
3.49275e+06
3.4921e+06
3.49159e+06
3.49123e+06
3.49097e+06
3.49081e+06
3.49071e+06
3.49068e+06
3.49069e+06
3.49074e+06
3.49082e+06
3.49092e+06
3.49105e+06
3.49118e+06
3.49133e+06
3.49148e+06
3.49164e+06
3.4918e+06
3.49195e+06
3.49211e+06
3.54021e+06
3.52748e+06
3.53877e+06
3.53047e+06
3.53263e+06
3.53105e+06
3.53087e+06
3.53121e+06
3.53143e+06
3.53171e+06
3.53123e+06
3.52926e+06
3.51815e+06
3.50303e+06
3.50018e+06
3.49689e+06
3.4953e+06
3.4937e+06
3.49269e+06
3.49185e+06
3.49126e+06
3.49081e+06
3.4905e+06
3.4903e+06
3.49018e+06
3.49013e+06
3.49013e+06
3.49018e+06
3.49026e+06
3.49037e+06
3.4905e+06
3.49065e+06
3.49081e+06
3.49098e+06
3.49115e+06
3.49132e+06
3.4915e+06
3.49167e+06
3.49184e+06
3.53644e+06
3.5285e+06
3.53635e+06
3.52978e+06
3.53053e+06
3.52921e+06
3.52881e+06
3.52889e+06
3.52902e+06
3.52874e+06
3.52865e+06
3.52652e+06
3.51618e+06
3.5007e+06
3.49817e+06
3.49515e+06
3.49382e+06
3.49238e+06
3.49152e+06
3.49079e+06
3.4903e+06
3.48994e+06
3.4897e+06
3.48957e+06
3.4895e+06
3.48951e+06
3.48956e+06
3.48965e+06
3.48977e+06
3.48991e+06
3.49007e+06
3.49025e+06
3.49043e+06
3.49062e+06
3.49082e+06
3.49101e+06
3.4912e+06
3.49139e+06
3.49157e+06
3.5312e+06
3.52786e+06
3.53267e+06
3.52743e+06
3.52782e+06
3.52628e+06
3.52604e+06
3.52566e+06
3.52575e+06
3.52499e+06
3.5252e+06
3.52297e+06
3.51334e+06
3.49776e+06
3.49562e+06
3.49302e+06
3.49202e+06
3.49081e+06
3.49016e+06
3.48958e+06
3.48922e+06
3.48897e+06
3.48883e+06
3.48878e+06
3.48879e+06
3.48885e+06
3.48895e+06
3.48909e+06
3.48926e+06
3.48944e+06
3.48964e+06
3.48984e+06
3.49005e+06
3.49027e+06
3.49048e+06
3.49069e+06
3.4909e+06
3.49111e+06
3.4913e+06
3.52577e+06
3.52537e+06
3.52812e+06
3.52392e+06
3.52472e+06
3.52265e+06
3.52273e+06
3.52183e+06
3.52189e+06
3.52077e+06
3.52112e+06
3.51891e+06
3.5098e+06
3.49435e+06
3.4926e+06
3.49055e+06
3.48993e+06
3.48903e+06
3.48861e+06
3.48823e+06
3.48804e+06
3.48792e+06
3.48789e+06
3.48793e+06
3.48803e+06
3.48816e+06
3.48833e+06
3.48852e+06
3.48873e+06
3.48896e+06
3.48919e+06
3.48943e+06
3.48967e+06
3.48991e+06
3.49015e+06
3.49038e+06
3.49061e+06
3.49082e+06
3.49103e+06
3.52043e+06
3.52231e+06
3.52339e+06
3.52022e+06
3.52116e+06
3.51873e+06
3.51897e+06
3.51763e+06
3.51756e+06
3.5162e+06
3.51652e+06
3.51448e+06
3.50572e+06
3.49054e+06
3.48916e+06
3.48777e+06
3.48758e+06
3.48704e+06
3.48691e+06
3.48676e+06
3.48675e+06
3.48679e+06
3.48689e+06
3.48704e+06
3.48723e+06
3.48744e+06
3.48768e+06
3.48793e+06
3.4882e+06
3.48847e+06
3.48874e+06
3.48901e+06
3.48928e+06
3.48955e+06
3.48981e+06
3.49006e+06
3.49031e+06
3.49054e+06
3.49077e+06
3.51618e+06
3.51896e+06
3.51905e+06
3.51664e+06
3.51743e+06
3.51481e+06
3.515e+06
3.51322e+06
3.51287e+06
3.51131e+06
3.51147e+06
3.50976e+06
3.50119e+06
3.48638e+06
3.48536e+06
3.48474e+06
3.48501e+06
3.48489e+06
3.48507e+06
3.48517e+06
3.48538e+06
3.48559e+06
3.48584e+06
3.48611e+06
3.4864e+06
3.4867e+06
3.48701e+06
3.48733e+06
3.48765e+06
3.48797e+06
3.48828e+06
3.48859e+06
3.48889e+06
3.48919e+06
3.48947e+06
3.48975e+06
3.49001e+06
3.49026e+06
3.4905e+06
3.51334e+06
3.51564e+06
3.51593e+06
3.51324e+06
3.51421e+06
3.51123e+06
3.51124e+06
3.50879e+06
3.50795e+06
3.50613e+06
3.50611e+06
3.50481e+06
3.49636e+06
3.48196e+06
3.48129e+06
3.48153e+06
3.48226e+06
3.48261e+06
3.48312e+06
3.48351e+06
3.48394e+06
3.48434e+06
3.48474e+06
3.48514e+06
3.48554e+06
3.48594e+06
3.48633e+06
3.48671e+06
3.48709e+06
3.48746e+06
3.48782e+06
3.48817e+06
3.48851e+06
3.48883e+06
3.48914e+06
3.48944e+06
3.48972e+06
3.48999e+06
3.49024e+06
3.51235e+06
3.5126e+06
3.51431e+06
3.51042e+06
3.51194e+06
3.50838e+06
3.5081e+06
3.50456e+06
3.50302e+06
3.50081e+06
3.50069e+06
3.49977e+06
3.49142e+06
3.47743e+06
3.47706e+06
3.4782e+06
3.47941e+06
3.48024e+06
3.4811e+06
3.48178e+06
3.48245e+06
3.48304e+06
3.48361e+06
3.48415e+06
3.48467e+06
3.48516e+06
3.48564e+06
3.48609e+06
3.48653e+06
3.48695e+06
3.48736e+06
3.48775e+06
3.48812e+06
3.48847e+06
3.48881e+06
3.48912e+06
3.48943e+06
3.48971e+06
3.48998e+06
3.51283e+06
3.5106e+06
3.51399e+06
3.50865e+06
3.51089e+06
3.50663e+06
3.50585e+06
3.50079e+06
3.49837e+06
3.49562e+06
3.49556e+06
3.49486e+06
3.48665e+06
3.47296e+06
3.47282e+06
3.47484e+06
3.47651e+06
3.47784e+06
3.47903e+06
3.48003e+06
3.48093e+06
3.48173e+06
3.48247e+06
3.48315e+06
3.48378e+06
3.48438e+06
3.48494e+06
3.48547e+06
3.48597e+06
3.48645e+06
3.4869e+06
3.48732e+06
3.48773e+06
3.48811e+06
3.48847e+06
3.48882e+06
3.48914e+06
3.48944e+06
3.48972e+06
3.51383e+06
3.51039e+06
3.51419e+06
3.50824e+06
3.5109e+06
3.50615e+06
3.50445e+06
3.49771e+06
3.49428e+06
3.49095e+06
3.49108e+06
3.49033e+06
3.48235e+06
3.46875e+06
3.46874e+06
3.47156e+06
3.47365e+06
3.47545e+06
3.47697e+06
3.47826e+06
3.4794e+06
3.48041e+06
3.48131e+06
3.48213e+06
3.48289e+06
3.48359e+06
3.48424e+06
3.48484e+06
3.48541e+06
3.48594e+06
3.48644e+06
3.48691e+06
3.48735e+06
3.48776e+06
3.48815e+06
3.48851e+06
3.48885e+06
3.48917e+06
3.48947e+06
3.51333e+06
3.51231e+06
3.51325e+06
3.50949e+06
3.51131e+06
3.50677e+06
3.50354e+06
3.49541e+06
3.49093e+06
3.48704e+06
3.48752e+06
3.48639e+06
3.47878e+06
3.46495e+06
3.46493e+06
3.46842e+06
3.47089e+06
3.47313e+06
3.47495e+06
3.47653e+06
3.47789e+06
3.47909e+06
3.48016e+06
3.48113e+06
3.48201e+06
3.48281e+06
3.48354e+06
3.48422e+06
3.48485e+06
3.48544e+06
3.48598e+06
3.48649e+06
3.48697e+06
3.48741e+06
3.48782e+06
3.48821e+06
3.48857e+06
3.48891e+06
3.48922e+06
3.51034e+06
3.51567e+06
3.51012e+06
3.51138e+06
3.51092e+06
3.50753e+06
3.50239e+06
3.49356e+06
3.48815e+06
3.48383e+06
3.48497e+06
3.48315e+06
3.47613e+06
3.46169e+06
3.46149e+06
3.4655e+06
3.46827e+06
3.47089e+06
3.47298e+06
3.50397e+06
3.51804e+06
3.50465e+06
3.51151e+06
3.50803e+06
3.50646e+06
3.49973e+06
3.49139e+06
3.48566e+06
3.4815e+06
3.48297e+06
3.4805e+06
3.47415e+06
3.45894e+06
3.45844e+06
3.46281e+06
3.46584e+06
3.48129e+06
3.47837e+06
3.49489e+06
3.49321e+06
3.49565e+06
3.49664e+06
3.49712e+06
3.49839e+06
3.49997e+06
3.50001e+06
3.50051e+06
3.5001e+06
3.49805e+06
3.49639e+06
3.49709e+06
3.49804e+06
3.49881e+06
3.49944e+06
3.49995e+06
3.50036e+06
3.50067e+06
3.5009e+06
3.50105e+06
3.50115e+06
3.5012e+06
3.50121e+06
3.50119e+06
3.50115e+06
3.50109e+06
3.50102e+06
3.50094e+06
3.50085e+06
3.50076e+06
3.50065e+06
3.50055e+06
3.50044e+06
3.50033e+06
3.50021e+06
3.50008e+06
3.49994e+06
3.49977e+06
3.50541e+06
3.50474e+06
3.50501e+06
3.50311e+06
3.50418e+06
3.50244e+06
3.50208e+06
3.50224e+06
3.50231e+06
3.50188e+06
3.49945e+06
3.49702e+06
3.49767e+06
3.49847e+06
3.49891e+06
3.49916e+06
3.49933e+06
3.49945e+06
3.49956e+06
3.49966e+06
3.49976e+06
3.49985e+06
3.49993e+06
3.5e+06
3.50006e+06
3.5001e+06
3.50014e+06
3.50016e+06
3.50017e+06
3.50016e+06
3.50014e+06
3.50011e+06
3.50007e+06
3.50002e+06
3.49995e+06
3.49987e+06
3.49978e+06
3.49967e+06
3.49951e+06
3.49943e+06
3.50069e+06
3.50022e+06
3.50107e+06
3.50114e+06
3.50139e+06
3.50158e+06
3.50192e+06
3.5021e+06
3.50157e+06
3.49882e+06
3.4955e+06
3.49592e+06
3.497e+06
3.49783e+06
3.49846e+06
3.49894e+06
3.49929e+06
3.49955e+06
3.49973e+06
3.49985e+06
3.49993e+06
3.49998e+06
3.50001e+06
3.50001e+06
3.50001e+06
3.49999e+06
3.49997e+06
3.49994e+06
3.4999e+06
3.49986e+06
3.49982e+06
3.49976e+06
3.49971e+06
3.49964e+06
3.49957e+06
3.49949e+06
3.4994e+06
3.49928e+06
3.50133e+06
3.50404e+06
3.50177e+06
3.50307e+06
3.50187e+06
3.50215e+06
3.50164e+06
3.50191e+06
3.50189e+06
3.50143e+06
3.49862e+06
3.49516e+06
3.49555e+06
3.4967e+06
3.49751e+06
3.4981e+06
3.49853e+06
3.49884e+06
3.49907e+06
3.49924e+06
3.49937e+06
3.49947e+06
3.49954e+06
3.49959e+06
3.49963e+06
3.49964e+06
3.49965e+06
3.49964e+06
3.49962e+06
3.49959e+06
3.49956e+06
3.49952e+06
3.49947e+06
3.49942e+06
3.49936e+06
3.49929e+06
3.49922e+06
3.49914e+06
3.49904e+06
3.49868e+06
3.5029e+06
3.49966e+06
3.50211e+06
3.50023e+06
3.50123e+06
3.50051e+06
3.50072e+06
3.50075e+06
3.50018e+06
3.49748e+06
3.49397e+06
3.49446e+06
3.49583e+06
3.49683e+06
3.49759e+06
3.49814e+06
3.49853e+06
3.49882e+06
3.49902e+06
3.49916e+06
3.49925e+06
3.49931e+06
3.49935e+06
3.49937e+06
3.49937e+06
3.49936e+06
3.49935e+06
3.49933e+06
3.4993e+06
3.49927e+06
3.49923e+06
3.49918e+06
3.49913e+06
3.49908e+06
3.49902e+06
3.49895e+06
3.49888e+06
3.4988e+06
3.49833e+06
3.50289e+06
3.49924e+06
3.50169e+06
3.49944e+06
3.50035e+06
3.49937e+06
3.49927e+06
3.49945e+06
3.49878e+06
3.4964e+06
3.49311e+06
3.49379e+06
3.49535e+06
3.49643e+06
3.49724e+06
3.4978e+06
3.49821e+06
3.4985e+06
3.4987e+06
3.49885e+06
3.49895e+06
3.49901e+06
3.49905e+06
3.49907e+06
3.49908e+06
3.49907e+06
3.49905e+06
3.49903e+06
3.49901e+06
3.49897e+06
3.49893e+06
3.49889e+06
3.49885e+06
3.4988e+06
3.49875e+06
3.49869e+06
3.49863e+06
3.49856e+06
3.49744e+06
3.50148e+06
3.49842e+06
3.50019e+06
3.49854e+06
3.49895e+06
3.49807e+06
3.49761e+06
3.49811e+06
3.49726e+06
3.49531e+06
3.4922e+06
3.49302e+06
3.49479e+06
3.49599e+06
3.49688e+06
3.49749e+06
3.49793e+06
3.49824e+06
3.49845e+06
3.4986e+06
3.49869e+06
3.49875e+06
3.49878e+06
3.49879e+06
3.49879e+06
3.49878e+06
3.49877e+06
3.49874e+06
3.49871e+06
3.49868e+06
3.49865e+06
3.49861e+06
3.49857e+06
3.49852e+06
3.49847e+06
3.49842e+06
3.49837e+06
3.49832e+06
3.49792e+06
3.50033e+06
3.49869e+06
3.49886e+06
3.49857e+06
3.49786e+06
3.49733e+06
3.49654e+06
3.49739e+06
3.49638e+06
3.49486e+06
3.49186e+06
3.49265e+06
3.49451e+06
3.49573e+06
3.49664e+06
3.49726e+06
3.4977e+06
3.498e+06
3.4982e+06
3.49834e+06
3.49843e+06
3.49848e+06
3.49851e+06
3.49852e+06
3.49851e+06
3.4985e+06
3.49848e+06
3.49845e+06
3.49843e+06
3.49839e+06
3.49836e+06
3.49832e+06
3.49828e+06
3.49825e+06
3.4982e+06
3.49816e+06
3.49812e+06
3.49808e+06
3.49885e+06
3.4992e+06
3.49956e+06
3.49778e+06
3.4993e+06
3.49738e+06
3.49739e+06
3.4965e+06
3.49761e+06
3.4965e+06
3.49524e+06
3.4921e+06
3.49257e+06
3.49441e+06
3.49558e+06
3.49648e+06
3.49707e+06
3.4975e+06
3.49778e+06
3.49798e+06
3.4981e+06
3.49818e+06
3.49822e+06
3.49824e+06
3.49825e+06
3.49824e+06
3.49822e+06
3.4982e+06
3.49817e+06
3.49814e+06
3.49811e+06
3.49807e+06
3.49804e+06
3.498e+06
3.49797e+06
3.49794e+06
3.4979e+06
3.49787e+06
3.49784e+06
3.50025e+06
3.49876e+06
3.5007e+06
3.49751e+06
3.50051e+06
3.49798e+06
3.49849e+06
3.49776e+06
3.49892e+06
3.49779e+06
3.4966e+06
3.49305e+06
3.49289e+06
3.49459e+06
3.4956e+06
3.49642e+06
3.49695e+06
3.49734e+06
3.49759e+06
3.49777e+06
3.49788e+06
3.49794e+06
3.49797e+06
3.49798e+06
3.49798e+06
3.49796e+06
3.49794e+06
3.49791e+06
3.49788e+06
3.49785e+06
3.49782e+06
3.49779e+06
3.49776e+06
3.49773e+06
3.4977e+06
3.49767e+06
3.49764e+06
3.49761e+06
3.49759e+06
3.5011e+06
3.49934e+06
3.50135e+06
3.49826e+06
3.5015e+06
3.49964e+06
3.50033e+06
3.50009e+06
3.50106e+06
3.5e+06
3.49867e+06
3.4945e+06
3.49347e+06
3.49492e+06
3.4957e+06
3.49643e+06
3.49687e+06
3.49721e+06
3.49743e+06
3.49757e+06
3.49766e+06
3.49771e+06
3.49773e+06
3.49773e+06
3.49771e+06
3.49769e+06
3.49766e+06
3.49763e+06
3.4976e+06
3.49757e+06
3.49753e+06
3.4975e+06
3.49747e+06
3.49745e+06
3.49742e+06
3.4974e+06
3.49738e+06
3.49736e+06
3.49735e+06
3.5012e+06
3.50116e+06
3.50133e+06
3.50023e+06
3.50211e+06
3.50211e+06
3.50261e+06
3.50295e+06
3.50354e+06
3.50264e+06
3.50107e+06
3.49619e+06
3.49419e+06
3.49535e+06
3.49588e+06
3.49649e+06
3.49683e+06
3.49711e+06
3.49728e+06
3.4974e+06
3.49746e+06
3.49749e+06
3.49749e+06
3.49748e+06
3.49745e+06
3.49742e+06
3.49739e+06
3.49735e+06
3.49731e+06
3.49728e+06
3.49725e+06
3.49722e+06
3.49719e+06
3.49717e+06
3.49715e+06
3.49713e+06
3.49711e+06
3.4971e+06
3.4971e+06
3.50095e+06
3.50407e+06
3.50103e+06
3.50316e+06
3.50252e+06
3.50492e+06
3.50484e+06
3.50576e+06
3.50587e+06
3.50521e+06
3.50337e+06
3.49781e+06
3.49487e+06
3.49576e+06
3.49607e+06
3.49656e+06
3.4968e+06
3.49703e+06
3.49715e+06
3.49723e+06
3.49726e+06
3.49727e+06
3.49725e+06
3.49723e+06
3.49719e+06
3.49715e+06
3.49711e+06
3.49707e+06
3.49703e+06
3.49699e+06
3.49696e+06
3.49693e+06
3.49691e+06
3.49689e+06
3.49687e+06
3.49686e+06
3.49685e+06
3.49685e+06
3.49685e+06
3.50063e+06
3.50772e+06
3.50085e+06
3.50672e+06
3.503e+06
3.50768e+06
3.50661e+06
3.50801e+06
3.50769e+06
3.50728e+06
3.50525e+06
3.49918e+06
3.49541e+06
3.49611e+06
3.49623e+06
3.49663e+06
3.49679e+06
3.49695e+06
3.49702e+06
3.49707e+06
3.49707e+06
3.49706e+06
3.49702e+06
3.49698e+06
3.49693e+06
3.49688e+06
3.49683e+06
3.49678e+06
3.49674e+06
3.4967e+06
3.49667e+06
3.49664e+06
3.49662e+06
3.49661e+06
3.49659e+06
3.49659e+06
3.49658e+06
3.49659e+06
3.4966e+06
3.50074e+06
3.51148e+06
3.50104e+06
3.5103e+06
3.50367e+06
3.5099e+06
3.50783e+06
3.50943e+06
3.50885e+06
3.50865e+06
3.50654e+06
3.50023e+06
3.49575e+06
3.49635e+06
3.49635e+06
3.49669e+06
3.49677e+06
3.49689e+06
3.49691e+06
3.49692e+06
3.49689e+06
3.49685e+06
3.49679e+06
3.49673e+06
3.49667e+06
3.49661e+06
3.49655e+06
3.4965e+06
3.49645e+06
3.49641e+06
3.49638e+06
3.49635e+06
3.49634e+06
3.49632e+06
3.49632e+06
3.49631e+06
3.49632e+06
3.49633e+06
3.49634e+06
3.50153e+06
3.51494e+06
3.50195e+06
3.51344e+06
3.50473e+06
3.51147e+06
3.50855e+06
3.51002e+06
3.50942e+06
3.50936e+06
3.50732e+06
3.50106e+06
3.49598e+06
3.49653e+06
3.49646e+06
3.49676e+06
3.49677e+06
3.49684e+06
3.49681e+06
3.49678e+06
3.49671e+06
3.49664e+06
3.49656e+06
3.49648e+06
3.49641e+06
3.49633e+06
3.49627e+06
3.49621e+06
3.49616e+06
3.49612e+06
3.49609e+06
3.49606e+06
3.49605e+06
3.49604e+06
3.49604e+06
3.49604e+06
3.49605e+06
3.49607e+06
3.49609e+06
3.50344e+06
3.51759e+06
3.5038e+06
3.51575e+06
3.50642e+06
3.51237e+06
3.50914e+06
3.51008e+06
3.50976e+06
3.50973e+06
3.50792e+06
3.50195e+06
3.49626e+06
3.49674e+06
3.49661e+06
3.49685e+06
3.49679e+06
3.4968e+06
3.49672e+06
3.49664e+06
3.49654e+06
3.49644e+06
3.49634e+06
3.49624e+06
3.49614e+06
3.49606e+06
3.49598e+06
3.49592e+06
3.49587e+06
3.49582e+06
3.49579e+06
3.49577e+06
3.49576e+06
3.49575e+06
3.49575e+06
3.49576e+06
3.49578e+06
3.4958e+06
3.49583e+06
3.50658e+06
3.51935e+06
3.50682e+06
3.51717e+06
3.50892e+06
3.51287e+06
3.5101e+06
3.51027e+06
3.51047e+06
3.51037e+06
3.50892e+06
3.50328e+06
3.49685e+06
3.49709e+06
3.49687e+06
3.49701e+06
3.49686e+06
3.4968e+06
3.49665e+06
3.49652e+06
3.49638e+06
3.49624e+06
3.49611e+06
3.49598e+06
3.49587e+06
3.49578e+06
3.49569e+06
3.49562e+06
3.49557e+06
3.49552e+06
3.49549e+06
3.49547e+06
3.49546e+06
3.49546e+06
3.49547e+06
3.49549e+06
3.49551e+06
3.49554e+06
3.49557e+06
3.51095e+06
3.52024e+06
3.51094e+06
3.51801e+06
3.51222e+06
3.51347e+06
3.51187e+06
3.51131e+06
3.51211e+06
3.51183e+06
3.51082e+06
3.50533e+06
3.49795e+06
3.49768e+06
3.49728e+06
3.49725e+06
3.49698e+06
3.49682e+06
3.4966e+06
3.49641e+06
3.49621e+06
3.49604e+06
3.49587e+06
3.49573e+06
3.4956e+06
3.49549e+06
3.4954e+06
3.49532e+06
3.49526e+06
3.49522e+06
3.49519e+06
3.49517e+06
3.49516e+06
3.49517e+06
3.49518e+06
3.4952e+06
3.49523e+06
3.49527e+06
3.49531e+06
3.516e+06
3.52062e+06
3.51559e+06
3.51872e+06
3.51594e+06
3.51466e+06
3.5146e+06
3.51351e+06
3.51479e+06
3.51429e+06
3.51369e+06
3.50809e+06
3.49958e+06
3.49849e+06
3.49784e+06
3.49757e+06
3.49716e+06
3.49688e+06
3.49656e+06
3.4963e+06
3.49605e+06
3.49583e+06
3.49564e+06
3.49547e+06
3.49532e+06
3.49519e+06
3.49509e+06
3.49501e+06
3.49495e+06
3.4949e+06
3.49488e+06
3.49486e+06
3.49486e+06