/*--------------------------------*- C++ -*----------------------------------*\
| =========                 |                                                 |
| \\      /  F ield         | OpenFOAM: The Open Source CFD Toolbox           |
|  \\    /   O peration     | Version:  v2012                                 |
|   \\  /    A nd           | Website:  www.openfoam.com                      |
|    \\/     M anipulation  |                                                 |
\*---------------------------------------------------------------------------*/
FoamFile
{
    version     2.0;
    format      ascii;
    class       volVectorField;
    location    "0.15";
    object      U;
}
// * * * * * * * * * * * * * * * * * * * * * * * * * * * * * * * * * * * * * //

dimensions      [0 1 -1 0 0 0 0];


internalField   nonuniform List<vector> 
3352
(
(0.0951277 -17.0983 -0.000829701)
(0.0541171 -32.2799 -0.000471986)
(0.303863 -38.9938 -0.00265197)
(0.130817 -39.3863 -0.00114193)
(0.249226 -42.6769 -0.00217472)
(0.422368 -43.2467 -0.00368635)
(0.27083 -36.9245 -0.00236421)
(0.335002 -27.5551 -0.00292352)
(0.35398 -18.631 -0.00308038)
(0.303802 -16.9637 -0.00264797)
(0.271966 -16.4072 -0.00237302)
(0.250184 -15.6671 -0.00218338)
(0.232017 -14.757 -0.00202503)
(0.216174 -13.7443 -0.00188685)
(0.201092 -12.731 -0.00175523)
(0.186264 -11.782 -0.00162583)
(0.171567 -10.9168 -0.00149756)
(0.156969 -10.1321 -0.00137016)
(0.142452 -9.41608 -0.00124346)
(0.128017 -8.75545 -0.00111749)
(0.11368 -8.13836 -0.000992352)
(0.0994694 -7.55549 -0.000868326)
(0.085429 -7.00014 -0.000745784)
(0.0716125 -6.46773 -0.000625195)
(0.0580811 -5.95531 -0.000507091)
(0.0449024 -5.4611 -0.000392064)
(0.0321491 -4.98406 -0.000280749)
(0.0199003 -4.5237 -0.000173834)
(0.00824047 -4.07976 -7.20583e-05)
(-0.00273803 -3.65218 2.37732e-05)
(-0.0129335 -3.24099 0.000112774)
(-0.0222339 -2.84626 0.000193965)
(-0.0305135 -2.46808 0.000266249)
(-0.0376299 -2.10659 0.000328385)
(-0.0434196 -1.76192 0.000378945)
(-0.0476868 -1.43422 0.000416225)
(-0.0501977 -1.12366 0.000438183)
(-0.0506135 -0.830495 0.000441874)
(-0.0485794 -0.554972 0.000424183)
(0.149129 -17.6975 -0.00130073)
(0.06342 -32.8615 -0.000553192)
(0.430175 -39.4484 -0.00375441)
(0.117635 -39.426 -0.00102698)
(0.327735 -43.268 -0.00285991)
(0.419058 -43.4455 -0.00365739)
(0.317095 -36.9478 -0.00276794)
(0.362441 -27.7561 -0.0031628)
(0.399041 -18.7181 -0.0034761)
(0.322323 -16.9453 -0.00281083)
(0.282192 -16.4141 -0.00246287)
(0.258256 -15.6809 -0.00225402)
(0.239329 -14.7697 -0.00208885)
(0.223374 -13.7537 -0.00194968)
(0.207956 -12.7359 -0.00181514)
(0.192413 -11.783 -0.00167949)
(0.17676 -10.9145 -0.00154287)
(0.161121 -10.1272 -0.00140639)
(0.145588 -9.40914 -0.00127083)
(0.130233 -8.74688 -0.0011368)
(0.115098 -8.12853 -0.00100472)
(0.100225 -7.54473 -0.000874904)
(0.0856468 -6.98873 -0.000747672)
(0.0714038 -6.45593 -0.000623362)
(0.0575388 -5.94334 -0.000502349)
(0.0441013 -5.44915 -0.000385067)
(0.0311476 -4.97232 -0.000272006)
(0.0187429 -4.51232 -0.000163735)
(0.00696029 -4.06887 -6.08933e-05)
(-0.00411672 -3.64192 3.57919e-05)
(-0.0143935 -3.23148 0.000125496)
(-0.0237639 -2.8376 0.000207289)
(-0.0321075 -2.4604 0.000280123)
(-0.0392877 -2.09998 0.000342806)
(-0.0451492 -1.75649 0.000393982)
(-0.0495084 -1.43008 0.000432049)
(-0.0521565 -1.12097 0.000455184)
(-0.0527974 -0.829428 0.000460811)
(-0.0512094 -0.555817 0.000446968)
(0.142025 -17.9768 -0.00123889)
(0.0404556 -33.1003 -0.000352851)
(0.365763 -39.6178 -0.00319228)
(0.0698898 -39.4073 -0.000610165)
(0.298989 -43.5115 -0.00260908)
(0.306992 -43.5014 -0.00267932)
(0.34568 -37.0368 -0.00301704)
(0.380032 -27.8696 -0.00331628)
(0.418865 -18.7569 -0.00364905)
(0.347243 -16.9181 -0.00302743)
(0.301237 -16.4063 -0.00262879)
(0.271276 -15.6819 -0.00236764)
(0.248032 -14.7731 -0.00216484)
(0.229538 -13.7569 -0.0020035)
(0.212809 -12.7376 -0.00185751)
(0.196571 -11.7829 -0.00171579)
(0.180449 -10.9128 -0.00157509)
(0.164386 -10.1242 -0.0014349)
(0.148396 -9.40499 -0.00129535)
(0.132542 -8.74181 -0.00115697)
(0.116881 -8.12269 -0.00102029)
(0.101475 -7.53826 -0.000885835)
(0.0863824 -6.98176 -0.000754104)
(0.0716553 -6.44856 -0.000625565)
(0.0573453 -5.93568 -0.000500666)
(0.0435049 -5.44132 -0.000379864)
(0.0301891 -4.96442 -0.00026364)
(0.0174596 -4.50445 -0.000152532)
(0.00538504 -4.06115 -4.71394e-05)
(-0.00595606 -3.63444 5.1853e-05)
(-0.0164742 -3.22436 0.000143665)
(-0.0260685 -2.83095 0.000227414)
(-0.034625 -2.45433 0.000302108)
(-0.0420156 -2.09461 0.000366627)
(-0.0480979 -1.75194 0.00041973)
(-0.0527092 -1.42648 0.000459997)
(-0.0556799 -1.11845 0.000485947)
(-0.056786 -0.82814 0.000495628)
(-0.0559536 -0.555917 0.000488381)
(0.152479 -18.4734 -0.0013303)
(0.072434 -33.505 -0.000632009)
(0.380932 -39.8778 -0.00332475)
(0.0669492 -39.445 -0.00058451)
(0.283929 -43.8277 -0.00247767)
(0.287429 -43.6912 -0.00250844)
(0.421722 -37.2184 -0.00368049)
(0.404047 -28.0086 -0.00352595)
(0.441303 -18.8211 -0.0038454)
(0.361769 -16.8988 -0.003154)
(0.313957 -16.4012 -0.00273978)
(0.281829 -15.6843 -0.00245978)
(0.256898 -14.778 -0.00224223)
(0.237137 -13.7618 -0.00206984)
(0.219512 -12.7403 -0.00191602)
(0.202481 -11.7829 -0.00176738)
(0.185585 -10.9104 -0.00161992)
(0.168723 -10.1197 -0.00147276)
(0.15192 -9.39889 -0.00132611)
(0.135259 -8.73447 -0.00118069)
(0.118821 -8.11444 -0.00103723)
(0.102687 -7.52939 -0.000896418)
(0.0869246 -6.97248 -0.000758843)
(0.0715903 -6.43906 -0.000625006)
(0.0567337 -5.92612 -0.000495337)
(0.0424022 -5.43182 -0.000370249)
(0.028644 -4.95509 -0.000250164)
(0.0155138 -4.49539 -0.000135559)
(0.00307329 -4.05246 -2.69723e-05)
(-0.00860524 -3.6262 7.49656e-05)
(-0.0194382 -3.21665 0.000169526)
(-0.0293309 -2.82386 0.00025588)
(-0.0381766 -2.44794 0.000333098)
(-0.0458569 -2.08899 0.000400148)
(-0.0522446 -1.74718 0.000455918)
(-0.0572014 -1.42266 0.000499201)
(-0.060599 -1.11564 0.000528877)
(-0.0622876 -0.826383 0.000543641)
(-0.0623024 -0.55522 0.000543791)
(0.141357 -18.8863 -0.00123325)
(0.0877344 -33.8376 -0.000765593)
(0.342514 -40.0176 -0.00298952)
(0.0397192 -39.4237 -0.000346825)
(0.223926 -44.0611 -0.00195399)
(0.279215 -43.9417 -0.0024366)
(0.475836 -37.4161 -0.00415271)
(0.395442 -28.0959 -0.00345092)
(0.452627 -18.8745 -0.00394484)
(0.373235 -16.8713 -0.00325377)
(0.323413 -16.3924 -0.00282228)
(0.28979 -15.6837 -0.00252928)
(0.263584 -14.7805 -0.0023006)
(0.242873 -13.7648 -0.00211992)
(0.224604 -12.7418 -0.00196047)
(0.207061 -11.7824 -0.00180737)
(0.189694 -10.9078 -0.0016558)
(0.172327 -10.1153 -0.00150423)
(0.154961 -9.39299 -0.00135266)
(0.137678 -8.72738 -0.00120182)
(0.120579 -8.10644 -0.00105259)
(0.103768 -7.52071 -0.000905856)
(0.0873322 -6.96334 -0.000762408)
(0.0713474 -6.42963 -0.000622892)
(0.0558737 -5.91655 -0.000487836)
(0.0409638 -5.42223 -0.000357699)
(0.0266674 -4.94561 -0.000232917)
(0.0130377 -4.48612 -0.000113952)
(0.000133333 -4.0435 -1.31595e-06)
(-0.0119776 -3.61766 0.000104396)
(-0.0232161 -3.20861 0.000202497)
(-0.0334934 -2.81642 0.000292207)
(-0.04271 -2.44118 0.000372662)
(-0.0507581 -2.083 0.000442921)
(-0.0575264 -1.74202 0.000502012)
(-0.0629008 -1.41841 0.000548939)
(-0.0667908 -1.11235 0.000582911)
(-0.0691093 -0.824053 0.00060317)
(-0.0699555 -0.553789 0.000610576)
(0.135824 -19.3681 -0.00118499)
(0.119456 -34.2071 -0.00104245)
(0.318082 -40.1351 -0.00277637)
(0.0270645 -39.3953 -0.000236377)
(0.170336 -44.3254 -0.00148621)
(0.330242 -44.3062 -0.00288181)
(0.503822 -37.5971 -0.00439713)
(0.351477 -28.1556 -0.00306737)
(0.449321 -18.9604 -0.00391615)
(0.378884 -16.8494 -0.00330243)
(0.328516 -16.3851 -0.0028667)
(0.294591 -15.6843 -0.00257119)
(0.268079 -14.7839 -0.00233983)
(0.247117 -13.7687 -0.00215696)
(0.228646 -12.7439 -0.00199576)
(0.210824 -11.782 -0.00184021)
(0.193097 -10.905 -0.0016855)
(0.175275 -10.1104 -0.00152996)
(0.157376 -9.38639 -0.00137374)
(0.139497 -8.71946 -0.00121771)
(0.121763 -8.09755 -0.00106293)
(0.104297 -7.51114 -0.000910483)
(0.0872038 -6.95333 -0.000761296)
(0.0705715 -6.41938 -0.000616129)
(0.0544693 -5.90622 -0.000475587)
(0.0389556 -5.41196 -0.000340179)
(0.0240829 -4.93551 -0.000210366)
(0.0099053 -4.47629 -8.66193e-05)
(-0.00351869 -4.03403 3.0552e-05)
(-0.0161223 -3.60863 0.000140565)
(-0.0278291 -3.20012 0.000242753)
(-0.0385537 -2.80855 0.000336368)
(-0.0482028 -2.434 0.000420598)
(-0.0566775 -2.07658 0.00049458)
(-0.0638803 -1.73644 0.000557463)
(-0.0697185 -1.4137 0.000608437)
(-0.0741312 -1.10854 0.00064697)
(-0.077077 -0.821136 0.000672702)
(-0.0786818 -0.551664 0.000686727)
(0.125392 -19.8408 -0.001094)
(0.144717 -34.5571 -0.0012629)
(0.286599 -40.1791 -0.00250166)
(-0.00357005 -39.3177 3.09895e-05)
(0.125223 -44.6404 -0.00109236)
(0.402543 -44.7192 -0.00351277)
(0.466846 -37.673 -0.00407481)
(0.255008 -28.179 -0.00222554)
(0.427759 -19.0984 -0.00372773)
(0.380605 -16.8336 -0.00331663)
(0.330377 -16.3774 -0.00288276)
(0.296525 -15.6844 -0.00258809)
(0.269951 -14.787 -0.00235617)
(0.24898 -13.7723 -0.00217323)
(0.230555 -12.7459 -0.00201242)
(0.212699 -11.7815 -0.00185658)
(0.194858 -10.9021 -0.00170088)
(0.176815 -10.1054 -0.00154341)
(0.158597 -9.37958 -0.0013844)
(0.140305 -8.71124 -0.00122477)
(0.122083 -8.08828 -0.00106572)
(0.104069 -7.50113 -0.000908505)
(0.0863908 -6.94284 -0.000754207)
(0.0691512 -6.40862 -0.000603739)
(0.052434 -5.89535 -0.00045783)
(0.0363085 -5.40114 -0.000317083)
(0.0208352 -4.92484 -0.000182028)
(0.00607388 -4.4659 -5.31854e-05)
(-0.00791354 -4.02401 6.89036e-05)
(-0.0210583 -3.59907 0.000183639)
(-0.0332834 -3.19111 0.000290351)
(-0.0445051 -2.80017 0.000388305)
(-0.0546336 -2.42632 0.00047672)
(-0.0635773 -2.06969 0.000554795)
(-0.0712494 -1.73037 0.000621774)
(-0.077574 -1.4085 0.000676994)
(-0.0825107 -1.10421 0.000720099)
(-0.0860468 -0.817636 0.000750982)
(-0.0883091 -0.548904 0.000770746)
(0.118257 -20.3436 -0.00103175)
(0.170367 -34.9149 -0.00148675)
(0.267115 -40.1721 -0.00233166)
(-0.0482576 -39.2143 0.000420993)
(0.119322 -45.0613 -0.00104071)
(0.467402 -45.1048 -0.00407893)
(0.359504 -37.5935 -0.00313839)
(0.117236 -28.1982 -0.00102309)
(0.390825 -19.3267 -0.00340478)
(0.377667 -16.8359 -0.00329001)
(0.32905 -16.3718 -0.00287089)
(0.295737 -15.6853 -0.00258124)
(0.269423 -14.7906 -0.00235157)
(0.248666 -13.7765 -0.00217049)
(0.230493 -12.7482 -0.00201188)
(0.212769 -11.7813 -0.0018572)
(0.194967 -10.8992 -0.00170183)
(0.176847 -10.1002 -0.00154369)
(0.158452 -9.37245 -0.00138315)
(0.139887 -8.7026 -0.00122112)
(0.121305 -8.0785 -0.00105894)
(0.102858 -7.49055 -0.000897941)
(0.0846865 -6.93173 -0.000739338)
(0.0669079 -6.39721 -0.000584167)
(0.0496199 -5.88384 -0.000433276)
(0.0329046 -5.38966 -0.000287381)
(0.0168336 -4.91354 -0.000147109)
(0.00147606 -4.45487 -1.3063e-05)
(-0.0130982 -4.01337 0.000114148)
(-0.0268146 -3.58892 0.000233874)
(-0.0395923 -3.18153 0.000345409)
(-0.0513457 -2.79123 0.000448003)
(-0.0619859 -2.41811 0.000540885)
(-0.0714252 -2.06226 0.000623286)
(-0.0795842 -1.72377 0.000694514)
(-0.0863982 -1.40276 0.000754004)
(-0.0918387 -1.09933 0.000801507)
(-0.0959079 -0.813574 0.000837043)
(-0.0987177 -0.545572 0.000861586)
(0.11254 -20.8572 -0.000981886)
(0.190755 -35.2701 -0.00166465)
(0.255202 -40.0927 -0.00222773)
(-0.11922 -39.0915 0.00104034)
(0.160508 -45.5928 -0.00140005)
(0.475846 -45.3505 -0.00415289)
(0.196143 -37.3396 -0.00171284)
(-0.0342331 -28.2471 0.0002991)
(0.348926 -19.6596 -0.00303857)
(0.371828 -16.8599 -0.00323835)
(0.325469 -16.3679 -0.00283937)
(0.292627 -15.6862 -0.00255414)
(0.266572 -14.7942 -0.0023267)
(0.246031 -13.7808 -0.0021475)
(0.228209 -12.7507 -0.00199196)
(0.210747 -11.7811 -0.00183956)
(0.193149 -10.8963 -0.00168597)
(0.175129 -10.0949 -0.0015287)
(0.156741 -9.36514 -0.00136821)
(0.138074 -8.69368 -0.0012053)
(0.119289 -8.06835 -0.00104135)
(0.100542 -7.47951 -0.000877733)
(0.0819847 -6.92009 -0.000715763)
(0.0637478 -6.38522 -0.000556592)
(0.0459447 -5.87169 -0.000401204)
(0.0286725 -5.37753 -0.00025045)
(0.0120178 -4.90157 -0.000105084)
(-0.00393673 -4.44319 3.41725e-05)
(-0.0191096 -4.00208 0.000166608)
(-0.0334163 -3.57812 0.000291486)
(-0.0467685 -3.17132 0.000408036)
(-0.0590757 -2.78169 0.000515464)
(-0.0702468 -2.40931 0.000612979)
(-0.0801946 -2.05426 0.000699819)
(-0.0888431 -1.71662 0.00077532)
(-0.0961339 -1.39647 0.000838971)
(-0.102043 -1.0939 0.000890566)
(-0.106578 -0.808976 0.000930162)
(-0.109827 -0.541725 0.000958542)
(0.109818 -21.394 -0.000958151)
(0.209735 -35.6337 -0.00183024)
(0.250986 -39.932 -0.00219098)
(-0.20236 -38.9873 0.00176606)
(0.255347 -46.2048 -0.00222773)
(0.401543 -45.3706 -0.00350483)
(0.025911 -36.963 -0.000227023)
(-0.15453 -28.3658 0.00134937)
(0.315524 -20.0875 -0.00274703)
(0.364333 -16.9057 -0.003173)
(0.320183 -16.3658 -0.00279309)
(0.287516 -15.6871 -0.00250962)
(0.261651 -14.7976 -0.00228378)
(0.241264 -13.7851 -0.0021059)
(0.223857 -12.7533 -0.00195398)
(0.206744 -11.7809 -0.00180462)
(0.189475 -10.8935 -0.0016539)
(0.171693 -10.0895 -0.00149871)
(0.153457 -9.35766 -0.00133956)
(0.134835 -8.68449 -0.00117703)
(0.115985 -8.05784 -0.00101252)
(0.0970606 -7.46802 -0.000847347)
(0.07822 -6.90793 -0.000682909)
(0.059606 -6.37263 -0.000520447)
(0.0413467 -5.85891 -0.000361079)
(0.0235563 -5.36473 -0.000205803)
(0.0063392 -4.8889 -5.55283e-05)
(-0.0102051 -4.4308 8.88754e-05)
(-0.0259794 -3.99009 0.00022656)
(-0.0408857 -3.56664 0.000356672)
(-0.0548246 -3.16044 0.000478343)
(-0.0676972 -2.7715 0.000590706)
(-0.079407 -2.39989 0.000692923)
(-0.0898643 -2.04567 0.00078421)
(-0.0989928 -1.70889 0.000863901)
(-0.106736 -1.38963 0.0009315)
(-0.113069 -1.08795 0.000986794)
(-0.117996 -0.803871 0.00102982)
(-0.121583 -0.537413 0.00106115)
(0.108048 -21.9514 -0.000942734)
(0.229824 -36.007 -0.00200552)
(0.2443 -39.68 -0.00213265)
(-0.26774 -38.9526 0.00233686)
(0.396292 -46.8221 -0.00345794)
(0.253802 -45.1351 -0.00221589)
(-0.0911619 -36.5673 0.000794986)
(-0.20776 -28.5675 0.0018143)
(0.302325 -20.5679 -0.00263253)
(0.357226 -16.9637 -0.00311214)
(0.31392 -16.364 -0.00273854)
(0.280787 -15.6871 -0.00245102)
(0.254858 -14.8003 -0.00222453)
(0.234471 -13.7891 -0.00204662)
(0.217499 -12.7557 -0.00189849)
(0.200805 -11.7808 -0.00175279)
(0.183989 -10.8906 -0.00160602)
(0.16658 -10.0841 -0.00145409)
(0.148642 -9.35006 -0.00129753)
(0.130203 -8.67509 -0.00113661)
(0.111415 -8.04702 -0.000972627)
(0.092422 -7.45612 -0.000806864)
(0.073389 -6.89526 -0.000640748)
(0.0544684 -6.35947 -0.000475611)
(0.0358042 -5.84548 -0.00031271)
(0.0175297 -5.35123 -0.000153209)
(-0.000230363 -4.87552 1.80409e-06)
(-0.0173561 -4.41767 0.000151282)
(-0.0337314 -3.97736 0.000294212)
(-0.0492412 -3.55442 0.000429592)
(-0.063772 -3.14885 0.000556428)
(-0.0772134 -2.76063 0.000673756)
(-0.0894607 -2.38982 0.000780665)
(-0.100419 -2.03645 0.000876323)
(-0.110008 -1.70058 0.000960036)
(-0.11817 -1.38224 0.00103129)
(-0.124875 -1.08147 0.00108983)
(-0.130122 -0.798289 0.00113565)
(-0.133952 -0.532679 0.0011691)
(0.105427 -22.5352 -0.000919868)
(0.256618 -36.3949 -0.00223938)
(0.22634 -39.355 -0.0019759)
(-0.27843 -39.067 0.00243041)
(0.563739 -47.3538 -0.00491959)
(0.081953 -44.6903 -0.000716471)
(-0.107077 -36.2656 0.000934254)
(-0.181391 -28.831 0.00158436)
(0.313856 -21.0437 -0.00273444)
(0.351567 -17.02 -0.00306508)
(0.307032 -16.3604 -0.00267888)
(0.272691 -15.6853 -0.00238056)
(0.246407 -14.8018 -0.00215082)
(0.22587 -13.7925 -0.00197156)
(0.209348 -12.758 -0.00182735)
(0.193144 -11.7806 -0.00168593)
(0.176891 -10.8876 -0.00154407)
(0.159972 -10.0786 -0.00139641)
(0.14245 -9.34236 -0.00124349)
(0.124303 -8.66551 -0.00108511)
(0.105673 -8.03591 -0.000922516)
(0.0866945 -7.44383 -0.000756876)
(0.0675353 -6.8821 -0.00058966)
(0.0483581 -6.34572 -0.000422284)
(0.0293243 -5.83139 -0.000256158)
(0.010588 -5.33703 -9.26276e-05)
(-0.00770309 -4.86138 6.70194e-05)
(-0.0254059 -4.40378 0.000221534)
(-0.0423823 -3.96386 0.00036971)
(-0.0584976 -3.54145 0.000510374)
(-0.0736211 -3.13652 0.000642384)
(-0.0876288 -2.74906 0.000764655)
(-0.100405 -2.37907 0.000876182)
(-0.111847 -2.0266 0.000976066)
(-0.12187 -1.69167 0.00106356)
(-0.13041 -1.3743 0.00113812)
(-0.137433 -1.0745 0.00119943)
(-0.142926 -0.792257 0.0012474)
(-0.146912 -0.527559 0.00128222)
(0.100305 -23.1483 -0.000875173)
(0.291853 -36.795 -0.00254689)
(0.192086 -38.9965 -0.00167691)
(-0.220547 -39.3952 0.0019255)
(0.726416 -47.7394 -0.0063397)
(-0.0510753 -44.1391 0.000444273)
(-0.012834 -36.126 0.000112227)
(-0.0930739 -29.1108 0.000813562)
(0.347084 -21.463 -0.0030259)
(0.348128 -17.06 -0.00303826)
(0.299828 -16.3521 -0.00261676)
(0.263471 -15.681 -0.00230037)
(0.236509 -14.8016 -0.0020645)
(0.215691 -13.7951 -0.00188273)
(0.199638 -12.7598 -0.0017426)
(0.184002 -11.7802 -0.00160614)
(0.16842 -10.8846 -0.00147014)
(0.152096 -10.0731 -0.00132767)
(0.135088 -9.33457 -0.00117923)
(0.117313 -8.65575 -0.0010241)
(0.0989077 -8.02452 -0.000863467)
(0.0799926 -7.43114 -0.000698384)
(0.0607424 -6.86843 -0.000530374)
(0.041331 -6.33137 -0.000360956)
(0.0219398 -5.81661 -0.000191712)
(0.00274603 -5.32207 -2.41887e-05)
(-0.0160772 -4.84645 0.000140102)
(-0.034361 -4.38908 0.000299687)
(-0.051943 -3.94955 0.000453149)
(-0.0686665 -3.52768 0.000599122)
(-0.0843818 -3.12343 0.000736297)
(-0.0989491 -2.73674 0.000863452)
(-0.112241 -2.36763 0.000979477)
(-0.124144 -2.01611 0.00108339)
(-0.134568 -1.68217 0.00117438)
(-0.143441 -1.36581 0.00125185)
(-0.150722 -1.06703 0.00131542)
(-0.15639 -0.7858 0.00136491)
(-0.160451 -0.522085 0.00140039)
(0.0925308 -23.7956 -0.000807313)
(0.334925 -37.2032 -0.00292281)
(0.14093 -38.6509 -0.00123038)
(-0.104531 -39.9662 0.000913169)
(0.855923 -47.9712 -0.00747028)
(-0.0973389 -43.6049 0.000847948)
(0.160761 -36.1542 -0.00140247)
(0.0237146 -29.3567 -0.000205962)
(0.391078 -21.795 -0.00341116)
(0.346962 -17.0732 -0.00303171)
(0.292487 -16.3367 -0.00255366)
(0.253361 -15.6732 -0.00221247)
(0.225451 -14.7993 -0.00196809)
(0.204266 -13.7965 -0.00178302)
(0.188714 -12.7613 -0.00164726)
(0.173733 -11.7797 -0.00151651)
(0.158914 -10.8816 -0.00138717)
(0.143264 -10.0676 -0.00125058)
(0.126831 -9.32668 -0.00110716)
(0.109469 -8.64579 -0.000955639)
(0.0913117 -8.01281 -0.000797169)
(0.0724679 -7.41801 -0.000632709)
(0.0531232 -6.85421 -0.000463876)
(0.0334663 -6.31635 -0.000292316)
(0.0137014 -5.8011 -0.000119812)
(-0.0059682 -5.30631 5.18631e-05)
(-0.0253415 -4.83069 0.000220954)
(-0.0442219 -4.37352 0.000385746)
(-0.0624209 -3.93439 0.000544593)
(-0.0797584 -3.51308 0.000695924)
(-0.0960642 -3.10953 0.000838254)
(-0.111182 -2.72367 0.000970215)
(-0.124971 -2.35549 0.00109058)
(-0.137308 -2.00496 0.00119828)
(-0.148093 -1.67207 0.00129243)
(-0.157251 -1.35679 0.00137238)
(-0.16473 -1.0591 0.00143768)
(-0.170503 -0.778943 0.00148809)
(-0.174563 -0.516286 0.00152356)
(0.0816566 -24.4789 -0.000712398)
(0.382917 -37.6099 -0.00334168)
(0.0750493 -38.3481 -0.000655337)
(0.0462681 -40.7697 -0.000402849)
(0.930895 -48.0912 -0.00812481)
(-0.0375595 -43.1906 0.000326315)
(0.352997 -36.2934 -0.00308012)
(0.129683 -29.5314 -0.00113128)
(0.42622 -22.0366 -0.00371883)
(0.34748 -17.0578 -0.00303981)
(0.285208 -16.3118 -0.00249112)
(0.24268 -15.6612 -0.00211966)
(0.213628 -14.7946 -0.00186501)
(0.192022 -13.7968 -0.00167617)
(0.177009 -12.7623 -0.00154511)
(0.162761 -11.779 -0.00142074)
(0.148772 -10.8786 -0.00129864)
(0.13384 -10.062 -0.00116833)
(0.117998 -9.31867 -0.00103007)
(0.101042 -8.63561 -0.000882087)
(0.0831058 -8.00074 -0.000725547)
(0.0642937 -7.40439 -0.000561366)
(0.0448076 -6.83937 -0.0003913)
(0.0248557 -6.30062 -0.000217167)
(0.00466914 -5.78478 -4.09834e-05)
(-0.0155201 -5.28969 0.000135226)
(-0.0354806 -4.81403 0.000309441)
(-0.0549867 -4.35706 0.000479694)
(-0.0738226 -3.91833 0.000644099)
(-0.0917838 -3.49762 0.000800876)
(-0.10868 -3.09481 0.000948357)
(-0.124337 -2.70983 0.00108503)
(-0.138602 -2.34262 0.00120955)
(-0.151341 -1.99315 0.00132075)
(-0.162446 -1.66138 0.0014177)
(-0.171835 -1.34725 0.00149967)
(-0.17945 -1.05071 0.00156616)
(-0.185259 -0.771709 0.00161688)
(-0.189244 -0.510188 0.0016517)
(0.067476 -25.1962 -0.000588612)
(0.431309 -38.0043 -0.00376405)
(0.000137463 -38.1052 -1.47727e-06)
(0.206234 -41.7575 -0.00179896)
(0.939201 -48.1693 -0.00819738)
(0.113226 -42.9495 -0.000989475)
(0.494077 -36.4392 -0.00431156)
(0.180597 -29.618 -0.00157615)
(0.425205 -22.2138 -0.00371055)
(0.347976 -17.0263 -0.00304719)
(0.278213 -16.2768 -0.00243083)
(0.231884 -15.6446 -0.00202586)
(0.201597 -14.7873 -0.00176014)
(0.179538 -13.7958 -0.00156722)
(0.165084 -12.7628 -0.00144102)
(0.151612 -11.7782 -0.00132343)
(0.138469 -10.8755 -0.00120871)
(0.124242 -10.0563 -0.00108455)
(0.108946 -9.31049 -0.000951058)
(0.0923275 -8.62511 -0.000806022)
(0.0745268 -7.98822 -0.00065067)
(0.0556531 -7.39017 -0.000485952)
(0.035931 -6.82381 -0.000313829)
(0.0155938 -6.28407 -0.000136334)
(-0.00509638 -5.76756 4.42441e-05)
(-0.0258756 -5.27213 0.000225602)
(-0.0464806 -4.79641 0.000405442)
(-0.0666554 -4.33963 0.000581531)
(-0.0861567 -3.90133 0.000751744)
(-0.104756 -3.48124 0.000914091)
(-0.122243 -3.07923 0.00106673)
(-0.138428 -2.69518 0.001208)
(-0.153144 -2.32902 0.00133646)
(-0.166249 -1.98069 0.00145086)
(-0.177627 -1.65011 0.0015502)
(-0.187192 -1.3372 0.0016337)
(-0.194881 -1.04189 0.00170084)
(-0.200655 -0.764121 0.00175126)
(-0.204493 -0.503815 0.0017848)
(0.0490431 -25.9376 -0.000427713)
(0.474926 -38.3764 -0.00414474)
(-0.0751574 -37.9279 0.000655707)
(0.351119 -42.8537 -0.00306351)
(0.882832 -48.2692 -0.0077054)
(0.300342 -42.86 -0.00262234)
(0.515715 -36.4757 -0.00450081)
(0.142316 -29.6141 -0.00124249)
(0.363655 -22.3787 -0.00317338)
(0.346186 -17.0093 -0.00303322)
(0.27191 -16.2333 -0.00237612)
(0.221677 -15.6232 -0.00193718)
(0.190121 -14.7773 -0.00166014)
(0.167551 -13.7935 -0.00146261)
(0.15361 -12.7629 -0.00134087)
(0.140889 -11.7773 -0.00122984)
(0.128529 -10.8723 -0.00112195)
(0.114915 -10.0505 -0.00100314)
(0.100045 -9.30205 -0.000873368)
(0.0836237 -8.61418 -0.000730055)
(0.0658089 -7.97511 -0.000574581)
(0.0467226 -7.37523 -0.00040801)
(0.0266203 -6.8074 -0.000232569)
(0.00576586 -6.26657 -5.05619e-05)
(-0.0155432 -5.74934 0.000135417)
(-0.0370089 -5.25352 0.000322765)
(-0.0583346 -4.77773 0.000508896)
(-0.0792341 -4.32117 0.000691309)
(-0.0994373 -3.88332 0.000867649)
(-0.118693 -3.46391 0.00103573)
(-0.136772 -3.06275 0.00119353)
(-0.15347 -2.67972 0.00133929)
(-0.168609 -2.31468 0.00147144)
(-0.18204 -1.96756 0.00158869)
(-0.193642 -1.63825 0.00168998)
(-0.203324 -1.32665 0.0017745)
(-0.21102 -1.03266 0.00184171)
(-0.21669 -0.7562 0.00189122)
(-0.220311 -0.49719 0.00192286)
(0.0255788 -26.6848 -0.000222913)
(0.509181 -38.7202 -0.00444372)
(-0.142489 -37.8124 0.00124336)
(0.460165 -43.9694 -0.00401528)
(0.777416 -48.4183 -0.00678533)
(0.446467 -42.8205 -0.00389758)
(0.37497 -36.3081 -0.00327301)
(0.0105694 -29.543 -9.29383e-05)
(0.241748 -22.5974 -0.00210915)
(0.341644 -17.0483 -0.00299285)
(0.267066 -16.1854 -0.0023337)
(0.213105 -15.5973 -0.00186272)
(0.180179 -14.7646 -0.00157354)
(0.156958 -13.7899 -0.00137018)
(0.143361 -12.7626 -0.00125141)
(0.131257 -11.7763 -0.00114576)
(0.119505 -10.8691 -0.00104319)
(0.106315 -10.0445 -0.00092808)
(0.0916584 -9.29318 -0.000800166)
(0.0752141 -8.60267 -0.000656657)
(0.0571655 -7.96124 -0.000499144)
(0.0376567 -7.35938 -0.000328888)
(0.0169805 -6.78998 -0.00014844)
(-0.00456275 -6.24798 3.95788e-05)
(-0.0266373 -5.72998 0.000232238)
(-0.0489092 -5.23376 0.000426622)
(-0.0710484 -4.75791 0.000619853)
(-0.0927393 -4.30159 0.000809174)
(-0.113687 -3.86426 0.00099201)
(-0.133619 -3.44558 0.00116599)
(-0.15229 -3.04536 0.00132897)
(-0.169484 -2.66342 0.00147905)
(-0.185015 -2.2996 0.00161463)
(-0.198728 -1.95378 0.00173434)
(-0.210499 -1.62583 0.0018371)
(-0.220235 -1.31562 0.00192211)
(-0.227872 -1.02304 0.00198879)
(-0.233367 -0.74797 0.00203678)
(-0.236699 -0.490337 0.0020659)
(-0.00332545 -27.4129 2.93591e-05)
(0.532103 -39.0353 -0.00464377)
(-0.19664 -37.7438 0.00171594)
(0.519837 -45.024 -0.00453614)
(0.647051 -48.5916 -0.00564755)
(0.480701 -42.6761 -0.00419646)
(0.0882298 -35.9082 -0.000771023)
(-0.168727 -29.4675 0.00147194)
(0.0969071 -22.9257 -0.000844811)
(0.338413 -17.1734 -0.00296092)
(0.264971 -16.138 -0.00231528)
(0.207544 -15.567 -0.00181446)
(0.172895 -14.7494 -0.00151016)
(0.148751 -13.785 -0.00129857)
(0.135146 -12.7618 -0.00117971)
(0.123381 -11.775 -0.00107701)
(0.111932 -10.8655 -0.000977085)
(0.098863 -10.038 -0.000863034)
(0.0841089 -9.28368 -0.000734275)
(0.0673398 -8.59033 -0.000587933)
(0.0487682 -7.94638 -0.000425859)
(0.0285702 -7.34242 -0.000249588)
(0.00708118 -6.77134 -6.20467e-05)
(-0.015358 -6.22812 0.000133791)
(-0.0383711 -5.70933 0.000334641)
(-0.0615877 -5.21271 0.00053727)
(-0.0846455 -4.73684 0.000738518)
(-0.107201 -4.28081 0.00093539)
(-0.128938 -3.84406 0.00112511)
(-0.149566 -3.42622 0.00130517)
(-0.168826 -3.02703 0.00147329)
(-0.186495 -2.64626 0.00162752)
(-0.202381 -2.28376 0.0017662)
(-0.216326 -1.93934 0.00188794)
(-0.228207 -1.61285 0.00199166)
(-0.237932 -1.30413 0.00207656)
(-0.245437 -1.01304 0.0021421)
(-0.250684 -0.739454 0.00218793)
(-0.253655 -0.483278 0.0022139)
(-0.0364955 -28.0956 0.000318841)
(0.543673 -39.3246 -0.00474473)
(-0.238289 -37.6967 0.00207934)
(0.529852 -45.9633 -0.00462363)
(0.513152 -48.7168 -0.00447901)
(0.375865 -42.2942 -0.00328171)
(-0.251296 -35.3534 0.00219195)
(-0.312319 -29.4746 0.00272556)
(-0.0101964 -23.3783 9.02814e-05)
(0.343663 -17.3807 -0.00300205)
(0.267374 -16.0928 -0.00233683)
(0.206403 -15.5325 -0.00180479)
(0.169356 -14.7314 -0.00147949)
(0.143867 -13.7784 -0.00125597)
(0.129704 -12.7602 -0.00113221)
(0.117856 -11.7732 -0.00102879)
(0.106265 -10.8614 -0.000927626)
(0.0929039 -10.0308 -0.000811025)
(0.0776468 -9.27326 -0.000677877)
(0.0601728 -8.57688 -0.000525386)
(0.0407259 -7.93027 -0.000355674)
(0.0195221 -7.32408 -0.000170626)
(-0.00305702 -6.75126 2.64286e-05)
(-0.0266273 -6.20678 0.000232137)
(-0.0507714 -5.6872 0.000442859)
(-0.0750836 -5.19023 0.000655051)
(-0.0991715 -4.71439 0.00086529)
(-0.122668 -4.25875 0.00107037)
(-0.145237 -3.82268 0.00126736)
(-0.166575 -3.40577 0.00145362)
(-0.186417 -3.00771 0.00162682)
(-0.204533 -2.62825 0.00178495)
(-0.22073 -2.26716 0.00192634)
(-0.234851 -1.92425 0.00204962)
(-0.246777 -1.59932 0.00215374)
(-0.256419 -1.29219 0.00223792)
(-0.263719 -1.00269 0.00230167)
(-0.268643 -0.730675 0.00234468)
(-0.27118 -0.476039 0.00236687)
(-0.0719595 -28.7112 0.000628336)
(0.546074 -39.5913 -0.00476565)
(-0.27279 -37.6417 0.00238034)
(0.506375 -46.7676 -0.00441882)
(0.38585 -48.7086 -0.00336812)
(0.173944 -41.6541 -0.00151959)
(-0.508196 -34.8074 0.00443426)
(-0.352844 -29.6278 0.00307985)
(-0.0349855 -23.916 0.000306976)
(0.363678 -17.6313 -0.0031744)
(0.276151 -16.0465 -0.00241523)
(0.210684 -15.4935 -0.00184254)
(0.17037 -14.7104 -0.00148857)
(0.143 -13.77 -0.00124844)
(0.127587 -12.7576 -0.00111374)
(0.115111 -11.7706 -0.00100483)
(0.102821 -10.8564 -0.000897566)
(0.0886593 -10.0225 -0.000773982)
(0.0724126 -9.26156 -0.000632201)
(0.0537893 -8.56198 -0.00046968)
(0.033064 -7.91257 -0.000288812)
(0.0104998 -7.30407 -9.1892e-05)
(-0.0134738 -6.72948 0.000117333)
(-0.038428 -6.18375 0.00033512)
(-0.0639058 -5.66343 0.000557482)
(-0.0894683 -5.16618 0.000780588)
(-0.114697 -4.69047 0.00100079)
(-0.139205 -4.23532 0.0012147)
(-0.162643 -3.80005 0.00141927)
(-0.1847 -3.38419 0.0016118)
(-0.205105 -2.9874 0.00178992)
(-0.223631 -2.60936 0.00195163)
(-0.240086 -2.24982 0.00209528)
(-0.254321 -1.90853 0.00221955)
(-0.26622 -1.58527 0.00232344)
(-0.275703 -1.27983 0.00240624)
(-0.282719 -0.99201 0.00246751)
(-0.287242 -0.721658 0.00250702)
(-0.28927 -0.468643 0.00252476)
(-0.104964 -29.2469 0.000916364)
(0.540916 -39.8354 -0.00472058)
(-0.306148 -37.5593 0.00267136)
(0.477713 -47.4459 -0.00416874)
(0.265867 -48.5197 -0.00232112)
(-0.0267344 -40.8781 0.000231914)
(-0.589468 -34.4293 0.0051441)
(-0.273718 -29.9248 0.00238983)
(0.0140098 -24.4675 -0.000120476)
(0.399924 -17.8775 -0.00349104)
(0.292505 -15.9909 -0.00256085)
(0.220658 -15.449 -0.00193012)
(0.176283 -14.686 -0.00154044)
(0.146455 -13.7593 -0.00127863)
(0.129058 -12.7536 -0.00112658)
(0.115341 -11.7667 -0.00100684)
(0.101721 -10.85 -0.000887973)
(0.0861867 -10.0127 -0.00075241)
(0.0684082 -9.24817 -0.000597263)
(0.0481474 -8.54523 -0.000420451)
(0.0257078 -7.89292 -0.000224622)
(0.00140679 -7.28208 -1.25447e-05)
(-0.0242783 -6.70572 0.000211618)
(-0.0508742 -6.1588 0.000443734)
(-0.0778869 -5.63781 0.000679494)
(-0.104849 -5.14039 0.000914814)
(-0.13132 -4.66494 0.00114586)
(-0.156899 -4.21042 0.00136912)
(-0.18123 -3.7761 0.00158149)
(-0.204 -3.36145 0.00178025)
(-0.22494 -2.96607 0.00196303)
(-0.243826 -2.58959 0.0021279)
(-0.260479 -2.23173 0.00227327)
(-0.274754 -1.89219 0.00239789)
(-0.286548 -1.57071 0.00250086)
(-0.29579 -1.26707 0.00258156)
(-0.302439 -0.981033 0.00263963)
(-0.30648 -0.712429 0.00267494)
(-0.30792 -0.461116 0.00268756)
(-0.130763 -29.7014 0.00114149)
(0.528265 -40.0515 -0.00461013)
(-0.336984 -37.455 0.00294041)
(0.474322 -48.0238 -0.00413917)
(0.15756 -48.1745 -0.001376)
(-0.129481 -40.1606 0.00112892)
(-0.505534 -34.2874 0.00441216)
(-0.11527 -30.2961 0.00100722)
(0.076152 -24.9622 -0.000662902)
(0.444801 -18.0976 -0.00388376)
(0.316045 -15.9185 -0.00276958)
(0.235842 -15.3982 -0.00206324)
(0.186902 -14.6581 -0.0016334)
(0.154108 -13.746 -0.00134548)
(0.134056 -12.7477 -0.00117021)
(0.118466 -11.7612 -0.00103412)
(0.102866 -10.8419 -0.000897978)
(0.0853566 -10.0009 -0.000745179)
(0.0654782 -9.23263 -0.000571706)
(0.0430724 -8.52622 -0.000376176)
(0.0184717 -7.87096 -0.000161485)
(-0.00794537 -7.25776 6.90613e-05)
(-0.0356547 -6.67969 0.000310892)
(-0.0641401 -6.13168 0.0005595)
(-0.0928749 -5.61016 0.000810292)
(-0.121368 -5.11273 0.00105898)
(-0.149164 -4.63771 0.00130159)
(-0.175856 -4.184 0.00153457)
(-0.201086 -3.7508 0.00175479)
(-0.224545 -3.33752 0.00195956)
(-0.245974 -2.94371 0.00214662)
(-0.26516 -2.56895 0.0023141)
(-0.281934 -2.2129 0.00246053)
(-0.296167 -1.87524 0.00258479)
(-0.307768 -1.55568 0.00268608)
(-0.316681 -1.25394 0.0027639)
(-0.322876 -0.969783 0.00281801)