/*--------------------------------*- C++ -*----------------------------------*\
| =========                 |                                                 |
| \\      /  F ield         | OpenFOAM: The Open Source CFD Toolbox           |
|  \\    /   O peration     | Version:  v2012                                 |
|   \\  /    A nd           | Website:  www.openfoam.com                      |
|    \\/     M anipulation  |                                                 |
\*---------------------------------------------------------------------------*/
FoamFile
{
    version     2.0;
    format      ascii;
    class       volVectorField;
    location    "0.55";
    object      U;
}
// * * * * * * * * * * * * * * * * * * * * * * * * * * * * * * * * * * * * * //

dimensions      [0 1 -1 0 0 0 0];


internalField   nonuniform List<vector> 
2625
(
(-4.58684e-06 -0.00350619 4.00531e-08)
(6.03014e-06 -0.00365271 -5.30939e-08)
(5.45432e-05 -0.00379831 -4.76374e-07)
(1.31224e-05 -0.00386454 -1.14491e-07)
(3.37471e-05 -0.00396102 -2.94198e-07)
(5.75927e-05 -0.0040024 -5.02513e-07)
(6.39543e-05 -0.00406411 -5.58736e-07)
(8.27642e-05 -0.00410341 -7.2165e-07)
(9.84403e-05 -0.00414743 -8.59159e-07)
(0.000108222 -0.00417352 -9.45061e-07)
(0.000124526 -0.00421714 -1.08681e-06)
(0.000152098 -0.0042322 -1.32756e-06)
(0.000168454 -0.0042559 -1.47025e-06)
(0.000192376 -0.00426638 -1.67898e-06)
(0.000212296 -0.00427555 -1.85288e-06)
(0.00023384 -0.00427909 -2.04085e-06)
(0.000255058 -0.00427807 -2.22605e-06)
(0.00027666 -0.00427233 -2.41456e-06)
(0.000298636 -0.00426141 -2.60633e-06)
(0.000320424 -0.00424572 -2.79648e-06)
(0.000341935 -0.00422474 -2.98417e-06)
(0.000363325 -0.00419836 -3.17085e-06)
(0.000384361 -0.00416654 -3.35443e-06)
(0.000404973 -0.0041291 -3.53432e-06)
(0.000424964 -0.00408594 -3.7088e-06)
(0.000444196 -0.00403687 -3.87666e-06)
(0.000462475 -0.00398185 -4.03621e-06)
(0.000479652 -0.00392077 -4.18614e-06)
(0.000495546 -0.0038536 -4.32489e-06)
(0.000509998 -0.00378031 -4.45107e-06)
(0.000522828 -0.00370093 -4.56307e-06)
(0.000533867 -0.00361553 -4.65944e-06)
(0.000542939 -0.00352422 -4.73866e-06)
(0.000549869 -0.00342715 -4.79918e-06)
(0.000554491 -0.00332455 -4.83955e-06)
(0.000556677 -0.0032167 -4.85867e-06)
(2.25967e-05 -0.00358378 -1.97131e-07)
(4.77203e-06 -0.00372231 -4.16638e-08)
(3.25683e-06 -0.00386712 -2.95787e-08)
(0.000113133 -0.00387287 -9.88163e-07)
(8.17943e-05 -0.00408292 -7.13809e-07)
(0.000112266 -0.00405058 -9.80216e-07)
(9.90373e-05 -0.00414701 -8.64511e-07)
(0.00011651 -0.00417874 -1.01713e-06)
(0.000129402 -0.00422864 -1.12945e-06)
(0.000140077 -0.00426157 -1.22262e-06)
(0.000156609 -0.00428663 -1.36723e-06)
(0.000181614 -0.00430565 -1.58517e-06)
(0.000194185 -0.00433041 -1.69493e-06)
(0.000215591 -0.00433925 -1.8817e-06)
(0.000231414 -0.00434854 -2.01974e-06)
(0.000250858 -0.00435086 -2.18937e-06)
(0.000270316 -0.00434891 -2.35923e-06)
(0.000290574 -0.00434155 -2.53601e-06)
(0.000310907 -0.00432888 -2.71344e-06)
(0.000331421 -0.00431122 -2.89243e-06)
(0.000352488 -0.00428815 -3.07629e-06)
(0.000373235 -0.00425965 -3.25733e-06)
(0.00039367 -0.00422544 -3.43568e-06)
(0.000413658 -0.00418548 -3.61012e-06)
(0.000433095 -0.00413961 -3.77975e-06)
(0.000451809 -0.00408774 -3.94308e-06)
(0.000469619 -0.00402979 -4.09852e-06)
(0.000486359 -0.00396571 -4.24464e-06)
(0.000501855 -0.00389546 -4.3799e-06)
(0.00051593 -0.00381905 -4.50277e-06)
(0.000528403 -0.00373652 -4.61164e-06)
(0.000539099 -0.00364796 -4.70501e-06)
(0.000547844 -0.00355348 -4.78136e-06)
(0.000554459 -0.00345326 -4.83912e-06)
(0.000558776 -0.00334756 -4.87682e-06)
(0.000560665 -0.00323667 -4.89334e-06)
(1.11729e-05 -0.00359914 -9.75401e-08)
(9.18792e-07 -0.00376133 -8.34277e-09)
(0.000100416 -0.00386981 -8.76171e-07)
(-4.06073e-05 -0.00390443 3.55034e-07)
(-6.91942e-05 -0.00410449 6.01561e-07)
(0.000181844 -0.0040791 -1.58762e-06)
(1.98943e-05 -0.00417764 -1.75442e-07)
(0.000106862 -0.00420845 -9.32234e-07)
(0.000101188 -0.00425777 -8.8321e-07)
(0.000134068 -0.00428578 -1.17003e-06)
(0.00015313 -0.00431259 -1.33636e-06)
(0.000167843 -0.00433263 -1.46472e-06)
(0.000184045 -0.004359 -1.60647e-06)
(0.000215904 -0.00436882 -1.88448e-06)
(0.000231109 -0.0043793 -2.01704e-06)
(0.0002541 -0.00438227 -2.21767e-06)
(0.000274391 -0.00438118 -2.39477e-06)
(0.000296105 -0.00437445 -2.58427e-06)
(0.000317398 -0.00436249 -2.77007e-06)
(0.00033844 -0.00434505 -2.9537e-06)
(0.000359478 -0.00432206 -3.13726e-06)
(0.000380432 -0.00429347 -3.32014e-06)
(0.000401092 -0.00425908 -3.50044e-06)
(0.000421288 -0.00421878 -3.67671e-06)
(0.000440904 -0.00417239 -3.84792e-06)
(0.000459742 -0.00411984 -4.01233e-06)
(0.000477623 -0.004061 -4.1684e-06)
(0.000494384 -0.00399587 -4.31471e-06)
(0.000509855 -0.00392439 -4.44976e-06)
(0.000523862 -0.00384658 -4.57204e-06)
(0.000536223 -0.00376249 -4.67994e-06)
(0.000546769 -0.00367222 -4.772e-06)
(0.000555325 -0.00357591 -4.8467e-06)
(0.000561714 -0.00347376 -4.90248e-06)
(0.000565767 -0.00336603 -4.93788e-06)
(0.000567359 -0.00325303 -4.95181e-06)
(1.38885e-05 -0.00367119 -1.21158e-07)
(1.53338e-06 -0.00382503 -1.37244e-08)
(0.000101445 -0.00394988 -8.85223e-07)
(1.02992e-05 -0.00404231 -8.99073e-08)
(-2.84317e-06 -0.00409764 2.25655e-08)
(0.000226933 -0.00414139 -1.98119e-06)
(5.93846e-05 -0.0041924 -5.20203e-07)
(0.00014812 -0.00421189 -1.29284e-06)
(0.000141012 -0.00431144 -1.23011e-06)
(0.000169791 -0.00432765 -1.48127e-06)
(0.00017954 -0.00437578 -1.56699e-06)
(0.000193163 -0.00439553 -1.6857e-06)
(0.000205961 -0.00441874 -1.79786e-06)
(0.000236528 -0.00442913 -2.06439e-06)
(0.00024852 -0.00443728 -2.16904e-06)
(0.0002702 -0.0044389 -2.35815e-06)
(0.000289171 -0.00443592 -2.52374e-06)
(0.000310037 -0.00442752 -2.70581e-06)
(0.000330511 -0.00441393 -2.88448e-06)
(0.000351196 -0.00439498 -3.06497e-06)
(0.000372274 -0.00437021 -3.24893e-06)
(0.00039299 -0.00433974 -3.4297e-06)
(0.000413413 -0.00430342 -3.60794e-06)
(0.000433406 -0.00426112 -3.78243e-06)
(0.000452856 -0.0042127 -3.95218e-06)
(0.000471539 -0.00415807 -4.11526e-06)
(0.000489276 -0.00409714 -4.27006e-06)
(0.000505885 -0.00402987 -4.41504e-06)
(0.000521195 -0.00395621 -4.54869e-06)
(0.000535021 -0.0038762 -4.66939e-06)
(0.000547175 -0.00378988 -4.77551e-06)
(0.000557482 -0.00369734 -4.86547e-06)
(0.000565763 -0.00359875 -4.93779e-06)
(0.000571839 -0.00349431 -4.99084e-06)
(0.000575538 -0.00338428 -5.02316e-06)
(0.000576733 -0.00326899 -5.03362e-06)
(1.37879e-05 -0.00370483 -1.20263e-07)
(2.74543e-06 -0.00386174 -2.43475e-08)
(0.00010392 -0.00398222 -9.06958e-07)
(4.49852e-06 -0.00409019 -3.91044e-08)
(-1.06745e-05 -0.0042038 9.07625e-08)
(0.000196905 -0.0043035 -1.71922e-06)
(3.18097e-05 -0.00439421 -2.79342e-07)
(4.36019e-05 -0.00440568 -3.80738e-07)
(2.73787e-05 -0.00445779 -2.39266e-07)
(0.000141112 -0.00441128 -1.23111e-06)
(0.000140756 -0.00444741 -1.22905e-06)
(0.000181847 -0.00444868 -1.58739e-06)
(0.000198106 -0.00446746 -1.72936e-06)
(0.000238323 -0.00447381 -2.08008e-06)
(0.000252435 -0.00448136 -2.20319e-06)
(0.000277306 -0.00448254 -2.42015e-06)
(0.000297663 -0.00447958 -2.5978e-06)
(0.000319928 -0.00447109 -2.7921e-06)
(0.000341372 -0.00445733 -2.97923e-06)
(0.000362904 -0.00443786 -3.16715e-06)
(0.000384438 -0.00441254 -3.35506e-06)
(0.000405586 -0.00438138 -3.53962e-06)
(0.000426399 -0.00434417 -3.72127e-06)
(0.000446734 -0.00430079 -3.89874e-06)
(0.000466442 -0.00425109 -4.07075e-06)
(0.000485308 -0.00419501 -4.23542e-06)
(0.000503152 -0.00413247 -4.39117e-06)
(0.000519802 -0.00406343 -4.53651e-06)
(0.000535089 -0.00398788 -4.66995e-06)
(0.000548828 -0.00390586 -4.7899e-06)
(0.000560831 -0.00381742 -4.89469e-06)
(0.000570922 -0.0037227 -4.98278e-06)
(0.000578922 -0.00362185 -5.05263e-06)
(0.000584653 -0.0035151 -5.10268e-06)
(0.000587945 -0.00340275 -5.13144e-06)
(0.000588669 -0.00328511 -5.1378e-06)
(1.4216e-05 -0.00377063 -1.23985e-07)
(5.12497e-06 -0.00392654 -4.50631e-08)
(9.81694e-05 -0.00402015 -8.56586e-07)
(-2.69504e-05 -0.00417962 2.35621e-07)
(-4.06181e-05 -0.00411154 3.51432e-07)
(0.000226719 -0.00422558 -1.97984e-06)
(0.000164345 -0.00430361 -1.43679e-06)
(0.000287377 -0.00410241 -2.51092e-06)
(0.000299622 -0.00457522 -2.61779e-06)
(0.000323757 -0.00433859 -2.82824e-06)
(0.000224202 -0.00448964 -1.95763e-06)
(0.000245792 -0.00447731 -2.14485e-06)
(0.000233777 -0.00451638 -2.04065e-06)
(0.000265967 -0.00452311 -2.32123e-06)
(0.000271629 -0.00453386 -2.37067e-06)
(0.000294364 -0.00453467 -2.56889e-06)
(0.000313101 -0.00453119 -2.73249e-06)
(0.000334897 -0.00452164 -2.92267e-06)
(0.000356148 -0.00450666 -3.10816e-06)
(0.000377871 -0.00448591 -3.29773e-06)
(0.000399763 -0.00445917 -3.48879e-06)
(0.00042113 -0.00442649 -3.67525e-06)
(0.000442185 -0.00438769 -3.85902e-06)
(0.000462743 -0.00434265 -4.03844e-06)
(0.000482654 -0.00429123 -4.21222e-06)
(0.000501678 -0.00423333 -4.37828e-06)
(0.000519635 -0.00416889 -4.53502e-06)
(0.000536339 -0.00409787 -4.68082e-06)
(0.000551619 -0.00402025 -4.81421e-06)
(0.000565281 -0.00393607 -4.93349e-06)
(0.000577137 -0.00384541 -5.037e-06)
(0.000587001 -0.00374839 -5.12311e-06)
(0.000594695 -0.0036452 -5.19029e-06)
(0.000600039 -0.00353608 -5.23697e-06)
(0.000602868 -0.00342133 -5.26169e-06)
(0.000603048 -0.0033013 -5.2633e-06)
(1.18168e-05 -0.00381634 -1.02905e-07)
(2.23699e-05 -0.00397362 -1.95627e-07)
(4.74131e-05 -0.00406037 -4.13961e-07)
(7.48566e-05 -0.0042227 -6.53755e-07)
(0.000125435 -0.00415191 -1.09374e-06)
(7.65039e-06 -0.00427108 -6.6585e-08)
(0.000272788 -0.00435014 -2.3832e-06)
(-0.000229339 -0.00414995 2.00663e-06)
(-0.000281739 -0.00462297 2.46107e-06)
(0.000384775 -0.00438668 -3.36179e-06)
(1.03064e-05 -0.00453802 -9.47112e-08)
(0.000215905 -0.0045268 -1.8821e-06)
(0.000192366 -0.00456605 -1.67893e-06)
(0.000260638 -0.00457337 -2.27474e-06)
(0.000270773 -0.00458419 -2.36321e-06)
(0.000302101 -0.00458477 -2.63638e-06)
(0.000323422 -0.00458099 -2.82254e-06)
(0.00034765 -0.00457091 -3.03397e-06)
(0.000370266 -0.00455522 -3.23137e-06)
(0.000393172 -0.00453354 -3.43128e-06)
(0.000415851 -0.00450577 -3.62919e-06)
(0.000437876 -0.00447188 -3.8214e-06)
(0.000459497 -0.00443173 -4.0101e-06)
(0.000480556 -0.00438517 -4.19391e-06)
(0.000500879 -0.0043321 -4.37129e-06)
(0.000520232 -0.00427242 -4.54021e-06)
(0.000538426 -0.00420607 -4.69902e-06)
(0.00055528 -0.00413302 -4.84614e-06)
(0.000570619 -0.00405327 -4.98004e-06)
(0.000584248 -0.00396686 -5.09903e-06)
(0.000595974 -0.00387388 -5.2014e-06)
(0.000605611 -0.00377449 -5.28554e-06)
(0.000612978 -0.00366887 -5.34987e-06)
(0.000617898 -0.00355729 -5.39284e-06)
(0.000620208 -0.00344006 -5.41304e-06)
(0.000619774 -0.00331755 -5.40929e-06)
(9.5162e-06 -0.00388827 -8.28194e-08)
(2.73002e-05 -0.00403034 -2.38455e-07)
(4.73947e-05 -0.00418276 -4.13899e-07)
(3.27285e-05 -0.00430952 -2.85537e-07)
(8.59832e-05 -0.00438076 -7.50249e-07)
(2.30828e-05 -0.00450214 -2.01592e-07)
(0.000400748 -0.00457472 -3.50102e-06)
(1.11587e-05 -0.0045914 -9.50643e-08)
(-1.1391e-05 -0.00463661 9.91856e-08)
(0.000565401 -0.00458986 -4.94095e-06)
(9.09413e-05 -0.00462217 -7.98912e-07)
(0.000277426 -0.00462278 -2.41841e-06)
(0.000226665 -0.00463568 -1.97833e-06)
(0.000287239 -0.00464024 -2.50684e-06)
(0.000290133 -0.00464445 -2.53217e-06)
(0.00031992 -0.00464246 -2.79182e-06)
(0.000340088 -0.00463633 -2.96799e-06)
(0.000364408 -0.00462463 -3.1802e-06)
(0.000387337 -0.00460733 -3.38035e-06)
(0.000410834 -0.00458419 -3.58541e-06)
(0.000434217 -0.00455493 -3.78949e-06)
(0.000456834 -0.00451947 -3.98686e-06)
(0.000479025 -0.00447766 -4.18055e-06)
(0.000500599 -0.00442934 -4.36884e-06)
(0.000521369 -0.00437441 -4.55012e-06)
(0.000541091 -0.00431277 -4.72226e-06)
(0.000559572 -0.00424435 -4.88357e-06)
(0.000576617 -0.00416913 -5.03236e-06)
(0.000592051 -0.00408712 -5.16709e-06)
(0.000605667 -0.00399835 -5.28597e-06)
(0.000617273 -0.00390295 -5.38729e-06)
(0.000626674 -0.00380107 -5.46937e-06)
(0.00063369 -0.00369292 -5.53064e-06)
(0.000638145 -0.00357877 -5.56956e-06)
(0.000639879 -0.00345897 -5.58473e-06)
(0.00063876 -0.00333391 -5.575e-06)
(4.18804e-05 -0.00393178 -3.65544e-07)
(5.39624e-05 -0.00411856 -4.70295e-07)
(-2.55976e-05 -0.00412909 2.23401e-07)
(0.000119965 -0.00428291 -1.04701e-06)
(0.000161528 -0.00430297 -1.40938e-06)
(6.96343e-06 -0.00440596 -6.17105e-08)
(0.000410184 -0.00444242 -3.58288e-06)
(-8.40891e-05 -0.0044784 7.36534e-07)
(-0.0001085 -0.00457326 9.46038e-07)
(0.000546149 -0.00459203 -4.7733e-06)
(6.29405e-05 -0.00463727 -5.54935e-07)
(0.000277536 -0.00465994 -2.41997e-06)
(0.000230487 -0.00467921 -2.01179e-06)
(0.000296346 -0.00469192 -2.58631e-06)
(0.000301927 -0.00469802 -2.63513e-06)
(0.000334071 -0.00469736 -2.91535e-06)
(0.000355365 -0.00469107 -3.10132e-06)
(0.000381089 -0.00467892 -3.32579e-06)
(0.000405161 -0.00466064 -3.53591e-06)
(0.000429706 -0.00463626 -3.75014e-06)
(0.000453977 -0.00460564 -3.96195e-06)
(0.000477412 -0.00456865 -4.16649e-06)
(0.00050035 -0.00452516 -4.36668e-06)
(0.000522593 -0.00447503 -4.56081e-06)
(0.000543936 -0.00441815 -4.7471e-06)
(0.000564131 -0.00435444 -4.92336e-06)
(0.000582976 -0.00428384 -5.08785e-06)
(0.000600277 -0.00420632 -5.23886e-06)
(0.000615844 -0.00412191 -5.37476e-06)
(0.000629474 -0.00403067 -5.49376e-06)
(0.000640964 -0.00393271 -5.59407e-06)
(0.00065012 -0.00382821 -5.67401e-06)
(0.000656759 -0.0037174 -5.73199e-06)
(0.000660707 -0.00360058 -5.76648e-06)
(0.000661807 -0.0034781 -5.77612e-06)
(0.00065993 -0.00335037 -5.75977e-06)
(-2.88515e-05 -0.00399993 2.51596e-07)
(7.32367e-05 -0.0041948 -6.39671e-07)
(0.000124743 -0.00424864 -1.08685e-06)
(-0.00012029 -0.00458394 1.05097e-06)
(5.65217e-05 -0.00429838 -4.92428e-07)
(-8.31348e-05 -0.00463375 7.2614e-07)
(0.000399282 -0.00457793 -3.48764e-06)
(-8.26101e-05 -0.00465698 7.22626e-07)
(-8.79966e-05 -0.00467802 7.67467e-07)
(0.000566411 -0.00470378 -4.94924e-06)
(7.4416e-05 -0.0047225 -6.55567e-07)
(0.000288597 -0.00474448 -2.51646e-06)
(0.000240693 -0.00474872 -2.10083e-06)
(0.00030763 -0.00476081 -2.68466e-06)
(0.000316412 -0.00476165 -2.76154e-06)
(0.000350148 -0.00475957 -3.05571e-06)
(0.000372719 -0.00475084 -3.25279e-06)
(0.00039959 -0.00473715 -3.48727e-06)
(0.000424877 -0.00471715 -3.70801e-06)
(0.000450411 -0.00469117 -3.93086e-06)
(0.000475668 -0.00465887 -4.1513e-06)
(0.000499989 -0.00462012 -4.36356e-06)
(0.000523742 -0.00457473 -4.57087e-06)
(0.000546708 -0.0045226 -4.77131e-06)
(0.000568679 -0.0044636 -4.96307e-06)
(0.000589397 -0.00439765 -5.14389e-06)
(0.000608654 -0.0043247 -5.31198e-06)
(0.000626245 -0.00424473 -5.46552e-06)
(0.000641974 -0.00415777 -5.60283e-06)
(0.000655628 -0.00406389 -5.72204e-06)
(0.000667002 -0.00396324 -5.82134e-06)
(0.000675896 -0.00385598 -5.89898e-06)
(0.000682127 -0.00374238 -5.9534e-06)
(0.000685521 -0.00362275 -5.98306e-06)
(0.000685926 -0.00349746 -5.98664e-06)
(0.000683216 -0.00336695 -5.96303e-06)
(4.70094e-06 -0.00407329 -4.13619e-08)
(7.43009e-05 -0.00420333 -6.48046e-07)
(-0.000138273 -0.00435264 1.2075e-06)
(0.000294668 -0.00460423 -2.57341e-06)
(0.000484796 -0.00433713 -4.22746e-06)
(-0.00029234 -0.00464473 2.55182e-06)
(0.000609032 -0.00457916 -5.31594e-06)
(-7.44919e-05 -0.00466726 6.51246e-07)
(-3.60291e-05 -0.00469148 3.13893e-07)
(0.000595593 -0.00474694 -5.20456e-06)
(9.99644e-05 -0.00476968 -8.78266e-07)
(0.000316454 -0.00480229 -2.76002e-06)
(0.00026934 -0.00480803 -2.35074e-06)
(0.000325807 -0.00482212 -2.84328e-06)
(0.000337399 -0.00482294 -2.94472e-06)
(0.000369263 -0.0048213 -3.22258e-06)
(0.000392838 -0.00481184 -3.42841e-06)
(0.000420063 -0.00479711 -3.66598e-06)
(0.000446444 -0.00477582 -3.89627e-06)
(0.000472895 -0.0047483 -4.12712e-06)
(0.000499145 -0.00471434 -4.35622e-06)
(0.000524432 -0.00467376 -4.57692e-06)
(0.000549086 -0.0046264 -4.7921e-06)
(0.000572863 -0.00457213 -4.99961e-06)
(0.000595541 -0.00451087 -5.19755e-06)
(0.000616851 -0.00444253 -5.38353e-06)
(0.000636573 -0.00436708 -5.55567e-06)
(0.000654494 -0.00428449 -5.71209e-06)
(0.000670407 -0.00419481 -5.851e-06)
(0.000684096 -0.00409814 -5.97052e-06)
(0.000695347 -0.00399461 -6.06874e-06)
(0.000703959 -0.00388444 -6.14392e-06)
(0.000709745 -0.0037679 -6.19446e-06)
(0.000712536 -0.00364532 -6.21885e-06)
(0.000712181 -0.00351709 -6.2158e-06)
(0.000708562 -0.00338367 -6.18425e-06)
(4.73266e-07 -0.00414031 -4.37452e-09)
(8.66342e-05 -0.00429859 -7.55679e-07)
(-0.000128677 -0.00440207 1.12392e-06)
(0.000180086 -0.0044968 -1.57186e-06)
(0.000328302 -0.0046318 -2.86164e-06)
(-0.000376876 -0.00475169 3.29083e-06)
(0.000543697 -0.00481349 -4.74461e-06)
(-0.000139693 -0.00493388 1.2199e-06)
(-9.23145e-05 -0.00480412 8.03473e-07)
(0.000548027 -0.00488825 -4.78979e-06)
(8.35233e-05 -0.00485675 -7.34833e-07)
(0.00030663 -0.00488451 -2.67387e-06)
(0.000273135 -0.00488314 -2.38378e-06)
(0.000333477 -0.0048924 -2.91032e-06)
(0.000350843 -0.00489129 -3.06199e-06)
(0.000385397 -0.00488768 -3.36341e-06)
(0.000412103 -0.00487687 -3.59656e-06)
(0.000441101 -0.00486049 -3.84963e-06)
(0.000469189 -0.00483763 -4.09479e-06)
(0.000496953 -0.00480838 -4.33712e-06)
(0.000524407 -0.00477254 -4.57673e-06)
(0.000550807 -0.00472995 -4.80714e-06)
(0.000576474 -0.00468042 -5.03116e-06)
(0.00060114 -0.00462385 -5.24644e-06)
(0.000624582 -0.00456015 -5.45104e-06)
(0.000646529 -0.00448925 -5.64259e-06)
(0.000666754 -0.0044111 -5.81911e-06)
(0.000685028 -0.00432571 -5.97861e-06)
(0.00070114 -0.00423313 -6.11926e-06)
(0.000714862 -0.00413348 -6.23905e-06)
(0.000725976 -0.00402692 -6.33608e-06)
(0.000734277 -0.00391366 -6.40855e-06)
(0.000739578 -0.00379401 -6.45485e-06)
(0.000741709 -0.00366831 -6.47348e-06)
(0.000740526 -0.00353699 -6.4632e-06)
(0.000735914 -0.00340053 -6.42299e-06)
(1.4486e-06 -0.00421337 -1.30529e-08)
(7.94035e-05 -0.00436309 -6.92342e-07)
(-0.000132632 -0.00448097 1.15852e-06)
(0.000194756 -0.00453303 -1.70024e-06)
(0.000350076 -0.00450762 -3.05225e-06)
(-0.000293828 -0.00447384 2.56599e-06)
(0.000622872 -0.00442632 -5.43589e-06)
(0.000154271 -0.0045685 -1.34442e-06)
(0.000224304 -0.00457389 -1.9579e-06)
(0.000636602 -0.00483384 -5.56331e-06)
(0.000208313 -0.00483597 -1.82184e-06)
(0.000355566 -0.00491785 -3.10018e-06)
(0.000319693 -0.00493031 -2.78958e-06)
(0.000360825 -0.00495493 -3.14891e-06)
(0.000376731 -0.00495692 -3.28785e-06)
(0.00040837 -0.00495533 -3.56385e-06)
(0.000435545 -0.00494406 -3.80115e-06)
(0.000465009 -0.00492679 -4.05827e-06)
(0.000494179 -0.00490239 -4.31288e-06)
(0.000523057 -0.00487136 -4.56494e-06)
(0.000551668 -0.00483356 -4.81467e-06)
(0.000579202 -0.00478879 -5.05499e-06)
(0.000605926 -0.00473694 -5.28824e-06)
(0.000631535 -0.0046779 -5.51174e-06)
(0.000655801 -0.00461158 -5.72354e-06)
(0.000678434 -0.00453792 -5.92108e-06)
(0.000699195 -0.00445688 -6.10228e-06)
(0.000717847 -0.0043685 -6.26508e-06)
(0.000734164 -0.00427283 -6.40751e-06)
(0.000747914 -0.00417001 -6.52755e-06)
(0.000758871 -0.00406021 -6.6232e-06)
(0.000766828 -0.00394368 -6.69267e-06)
(0.000771595 -0.00382074 -6.7343e-06)
(0.000773005 -0.00369176 -6.74665e-06)
(0.000770919 -0.00355719 -6.72848e-06)
(0.00076523 -0.00341754 -6.67887e-06)
(3.62358e-06 -0.00429543 -3.2084e-08)
(8.4601e-05 -0.00445056 -7.3801e-07)
(-0.000106821 -0.00464499 9.33326e-07)
(0.000304434 -0.00455535 -2.65808e-06)
(0.000454981 -0.00503128 -3.96705e-06)
(-0.000345157 -0.00495799 3.01481e-06)
(0.000292746 -0.00493853 -2.55206e-06)
(-0.000482117 -0.00568096 4.2171e-06)
(-0.000489193 -0.00450435 4.27728e-06)
(0.000174009 -0.00529142 -1.51933e-06)
(2.52376e-05 -0.00496788 -2.23643e-07)
(0.000229264 -0.00508562 -1.99869e-06)
(0.000275788 -0.00503305 -2.40673e-06)
(0.000340588 -0.00505293 -2.97237e-06)
(0.000382203 -0.00503965 -3.33558e-06)
(0.000421823 -0.00503415 -3.68141e-06)
(0.000455921 -0.00501807 -3.97899e-06)
(0.0004884 -0.0049983 -4.26244e-06)
(0.000520181 -0.00497126 -4.5398e-06)
(0.000550705 -0.00493786 -4.80624e-06)
(0.000580777 -0.00489774 -5.06874e-06)
(0.000609628 -0.00485057 -5.32055e-06)
(0.000637504 -0.00479618 -5.56385e-06)
(0.000664123 -0.00473446 -5.79619e-06)
(0.000689257 -0.00466532 -6.01555e-06)
(0.00071261 -0.00458869 -6.21938e-06)
(0.000733932 -0.00450457 -6.40548e-06)
(0.000752972 -0.00441298 -6.57166e-06)
(0.000769495 -0.00431401 -6.71589e-06)
(0.000783257 -0.0042078 -6.83603e-06)
(0.00079403 -0.00409456 -6.93008e-06)
(0.0008016 -0.00397456 -6.99617e-06)
(0.000805778 -0.00384813 -7.03267e-06)
(0.000806399 -0.00371568 -7.03812e-06)
(0.000803328 -0.00357769 -7.01136e-06)
(0.000796469 -0.00343468 -6.95154e-06)
(1.33683e-05 -0.00437729 -1.17227e-07)
(3.89726e-05 -0.00453318 -3.39836e-07)
(3.35894e-05 -0.00473644 -2.93371e-07)
(2.99139e-05 -0.00464551 -2.60576e-07)
(2.14688e-06 -0.0051258 -2.07621e-08)
(0.000279185 -0.00504661 -2.4378e-06)
(-2.52369e-06 -0.00502707 2.63228e-08)
(0.000968564 -0.0057685 -8.46689e-06)
(0.00114857 -0.00459253 -1.00324e-05)
(2.69742e-05 -0.00537797 -2.3155e-07)
(0.000647967 -0.00505389 -5.64828e-06)
(0.000344143 -0.00516894 -3.00686e-06)
(0.000431362 -0.00511523 -3.76466e-06)
(0.000399838 -0.00513333 -3.48967e-06)
(0.000434944 -0.00511856 -3.79564e-06)
(0.000456266 -0.00511154 -3.98205e-06)
(0.000488115 -0.00509377 -4.25996e-06)
(0.000517904 -0.00507221 -4.5199e-06)
(0.000550233 -0.00504316 -4.80204e-06)
(0.000581228 -0.00500758 -5.07261e-06)
(0.000612275 -0.00496509 -5.34362e-06)
(0.000642279 -0.00491536 -5.60551e-06)
(0.000671287 -0.00485826 -5.8587e-06)
(0.000698942 -0.00479367 -6.10008e-06)
(0.000724982 -0.00472149 -6.32737e-06)
(0.000749087 -0.00464169 -6.53777e-06)
(0.000770989 -0.00455425 -6.72892e-06)
(0.000790424 -0.00445923 -6.89856e-06)
(0.000807144 -0.00435674 -7.0445e-06)
(0.000820899 -0.00424693 -7.16459e-06)
(0.000831452 -0.00413003 -7.25672e-06)
(0.000838588 -0.00400634 -7.31901e-06)
(0.000842114 -0.00387622 -7.34982e-06)
(0.00084187 -0.0037401 -7.34773e-06)
(0.000837727 -0.0035985 -7.31161e-06)
(0.000829598 -0.00345197 -7.24071e-06)
(1.76307e-05 -0.00445526 -1.54345e-07)
(4.02637e-05 -0.00462415 -3.51506e-07)
(5.56299e-05 -0.00470525 -4.85478e-07)
(0.00015209 -0.00472901 -1.32792e-06)
(0.000121729 -0.00476875 -1.06312e-06)
(0.000246614 -0.00470212 -2.1526e-06)
(-0.000325858 -0.00468267 2.851e-06)
(0.000336888 -0.00481502 -2.94694e-06)
(0.000439826 -0.0048285 -3.83839e-06)
(-0.000429594 -0.00508308 3.75981e-06)
(0.000471027 -0.00508606 -4.10362e-06)
(0.000224093 -0.00516291 -1.95992e-06)
(0.000391582 -0.00517448 -3.41773e-06)
(0.000383755 -0.00519509 -3.34937e-06)
(0.000443873 -0.0051933 -3.87352e-06)
(0.000473149 -0.00518749 -4.12953e-06)
(0.000512014 -0.00517131 -4.46849e-06)
(0.000544946 -0.00514866 -4.75589e-06)
(0.000580088 -0.00511829 -5.06256e-06)
(0.0006129 -0.00508073 -5.34901e-06)
(0.000645582 -0.00503582 -5.6343e-06)
(0.000677027 -0.00498339 -5.90877e-06)
(0.000707291 -0.00492339 -6.17293e-06)
(0.000736052 -0.0048557 -6.42398e-06)
(0.000763037 -0.00478026 -6.65952e-06)
(0.000787918 -0.00469704 -6.87669e-06)
(0.000810412 -0.00460606 -7.07302e-06)
(0.00083024 -0.00450737 -7.24608e-06)
(0.000847144 -0.0044011 -7.39363e-06)
(0.000860861 -0.00428745 -7.51339e-06)
(0.000871152 -0.00416665 -7.60323e-06)
(0.000877794 -0.00403904 -7.66121e-06)
(0.000880598 -0.00390501 -7.68572e-06)
(0.000879405 -0.00376502 -7.67534e-06)
(0.000874094 -0.00361961 -7.62903e-06)
(0.000864589 -0.00346939 -7.54613e-06)
(-1.51242e-05 -0.00456235 1.31937e-07)
(9.82861e-06 -0.00469361 -8.65928e-08)
(0.000139518 -0.00494355 -1.21783e-06)
(3.94883e-05 -0.00497566 -3.45026e-07)
(2.19128e-05 -0.00515534 -1.93536e-07)
(0.000317931 -0.00518844 -2.77451e-06)
(-0.00029417 -0.0052728 2.57362e-06)
(0.000629455 -0.00536549 -5.49929e-06)
(0.000746362 -0.00523974 -6.51223e-06)
(-0.000339493 -0.00531351 2.97349e-06)
(0.000594973 -0.00528069 -5.18342e-06)
(0.000274671 -0.00529991 -2.40041e-06)
(0.000439589 -0.00529474 -3.83627e-06)
(0.000415963 -0.00529588 -3.63042e-06)
(0.000474978 -0.00528763 -4.14491e-06)
(0.000502183 -0.00527624 -4.38281e-06)
(0.000542202 -0.00525693 -4.73191e-06)
(0.000576049 -0.00523121 -5.02726e-06)
(0.000612698 -0.00519827 -5.34711e-06)
(0.000647014 -0.00515799 -5.64671e-06)
(0.000681191 -0.00511025 -5.94505e-06)
(0.000714059 -0.00505486 -6.23196e-06)
(0.000745614 -0.0049917 -6.5074e-06)
(0.000775519 -0.00492068 -6.76843e-06)
(0.000803481 -0.00484174 -7.01251e-06)
(0.000829159 -0.00475487 -7.23663e-06)
(0.000852248 -0.00466008 -7.43817e-06)
(0.000872463 -0.00455746 -7.61461e-06)
(0.000889526 -0.00444717 -7.76355e-06)
(0.000903171 -0.00432941 -7.88268e-06)
(0.000913146 -0.00420447 -7.96976e-06)
(0.00091923 -0.0040727 -8.02288e-06)
(0.000921231 -0.00393452 -8.04037e-06)
(0.000918995 -0.00379044 -8.0209e-06)
(0.00091241 -0.00364103 -7.96348e-06)
(0.000901416 -0.00348692 -7.86758e-06)
(6.19956e-05 -0.00465796 -5.41114e-07)
(-6.31589e-06 -0.00477945 5.53395e-08)
(-1.27787e-05 -0.00497541 1.09235e-07)
(0.000308812 -0.00480959 -2.69673e-06)
(0.000145127 -0.00527367 -1.26951e-06)
(0.000427567 -0.00504033 -3.73302e-06)
(-0.000285326 -0.00521065 2.49694e-06)
(0.000622269 -0.00522009 -5.43615e-06)
(0.000716684 -0.0052777 -6.25459e-06)
(-0.00036485 -0.00532287 3.19398e-06)
(0.000595637 -0.00535143 -5.18896e-06)
(0.000281799 -0.00537235 -2.46247e-06)
(0.000457386 -0.00538168 -3.99161e-06)
(0.000437394 -0.00538367 -3.8177e-06)
(0.000499898 -0.00537777 -4.36234e-06)
(0.000529464 -0.00536535 -4.62088e-06)
(0.000572597 -0.00534492 -4.99712e-06)
(0.000608445 -0.00531722 -5.30998e-06)
(0.000647155 -0.00528205 -5.64781e-06)
(0.000683258 -0.00523917 -5.96302e-06)
(0.000719057 -0.00518852 -6.27552e-06)
(0.000753421 -0.00512995 -6.57548e-06)
(0.000786324 -0.00506341 -6.8627e-06)
(0.000817416 -0.00498881 -7.1341e-06)
(0.000846386 -0.0049061 -7.38698e-06)
(0.000872871 -0.00481529 -7.61815e-06)
(0.00089656 -0.00471642 -7.82492e-06)
(0.000917143 -0.00460961 -8.00458e-06)
(0.000934339 -0.00449502 -8.15468e-06)
(0.000947863 -0.00437288 -8.27276e-06)
(0.000957463 -0.00424353 -8.35657e-06)
(0.000962911 -0.00410733 -8.40413e-06)
(0.000964019 -0.00396477 -8.41384e-06)
(0.000960637 -0.00381636 -8.38436e-06)
(0.000952665 -0.00366273 -8.31484e-06)
(0.000940057 -0.00350453 -8.20485e-06)
(2.83042e-05 -0.00475253 -2.46638e-07)
(-2.85931e-06 -0.00494703 2.4471e-08)
(0.000274291 -0.00504377 -2.39467e-06)
(-0.000126521 -0.00497363 1.10582e-06)
(-0.000300563 -0.00542406 2.61725e-06)
(0.000666072 -0.00522915 -5.81365e-06)
(-0.000486167 -0.00541539 4.24725e-06)
(0.000642898 -0.0054107 -5.61554e-06)
(0.000693153 -0.00546322 -6.04858e-06)
(-0.000355401 -0.0054628 3.11174e-06)
(0.000607006 -0.00548401 -5.28833e-06)
(0.00030143 -0.00548703 -2.63389e-06)
(0.00047968 -0.0054921 -4.18616e-06)
(0.000462949 -0.00548816 -4.04068e-06)
(0.000527462 -0.00547931 -4.603e-06)
(0.000559621 -0.00546266 -4.88403e-06)
(0.000604961 -0.00543936 -5.27959e-06)
(0.000642875 -0.0054088 -5.61045e-06)
(0.000683528 -0.00537067 -5.96524e-06)
(0.000721616 -0.00532474 -6.29779e-06)
(0.000759222 -0.00527083 -6.62606e-06)
(0.000795198 -0.00520884 -6.94011e-06)
(0.000829516 -0.00513865 -7.23966e-06)
(0.00086184 -0.0050602 -7.52182e-06)
(0.000891837 -0.00497345 -7.78366e-06)
(0.000919141 -0.00487842 -8.02198e-06)
(0.000943416 -0.00477519 -8.23387e-06)
(0.000964348 -0.00466388 -8.41658e-06)
(0.000981632 -0.00454469 -8.56745e-06)
(0.000994983 -0.00441789 -8.68402e-06)
(0.00100413 -0.00428384 -8.76392e-06)
(0.00100886 -0.00414296 -8.80519e-06)
(0.00100897 -0.00399574 -8.80621e-06)
(0.00100433 -0.00384277 -8.76575e-06)
(0.000994847 -0.00368469 -8.68302e-06)
(0.000980491 -0.0035222 -8.55779e-06)
(3.43809e-05 -0.00486741 -2.99952e-07)
(-1.10438e-05 -0.00503265 9.58963e-08)
(0.000271242 -0.00517943 -2.36814e-06)
(6.78603e-06 -0.00527661 -5.89759e-08)
(-0.000121864 -0.00529673 1.0569e-06)
(0.000774897 -0.0052997 -6.76521e-06)
(-0.000394463 -0.00534723 3.4469e-06)
(0.000739358 -0.00530748 -6.45658e-06)
(0.000782199 -0.0055202 -6.8245e-06)
(-0.00027465 -0.00548784 2.40774e-06)
(0.000654512 -0.00556753 -5.70291e-06)
(0.000345203 -0.00557073 -3.01619e-06)
(0.000513087 -0.00559094 -4.4778e-06)
(0.000496533 -0.00558751 -4.3337e-06)
(0.000560916 -0.00558082 -4.89501e-06)
(0.000594503 -0.00556278 -5.18853e-06)
(0.000640714 -0.00553786 -5.59164e-06)
(0.000680276 -0.00550495 -5.9369e-06)
(0.00072283 -0.00546391 -6.30827e-06)
(0.000762673 -0.00541477 -6.65612e-06)
(0.000801968 -0.00535743 -6.99916e-06)
(0.000839521 -0.00529174 -7.32695e-06)
(0.000875286 -0.00521764 -7.63914e-06)
(0.000908866 -0.00513504 -7.93226e-06)
(0.000939918 -0.00504395 -8.20329e-06)
(0.000968041 -0.00494439 -8.44877e-06)
(0.000992897 -0.00483647 -8.66573e-06)
(0.00101414 -0.00472035 -8.85117e-06)
(0.00103147 -0.00459625 -9.00244e-06)
(0.00104458 -0.00446449 -9.11689e-06)
(0.0010532 -0.00432544 -9.19217e-06)
(0.00105711 -0.00417958 -9.22627e-06)
(0.00105611 -0.00402744 -9.21763e-06)
(0.00105008 -0.00386965 -9.16508e-06)
(0.00103895 -0.00370689 -9.06797e-06)
(0.0010227 -0.0035399 -8.92622e-06)
(3.57938e-05 -0.00498418 -3.11982e-07)
(4.18639e-07 -0.00516119 -4.36264e-09)
(0.000284174 -0.00529463 -2.48093e-06)
(-4.14854e-07 -0.00543749 4.12135e-09)
(-0.000129669 -0.00562912 1.12534e-06)
(0.00070352 -0.00579521 -6.14213e-06)
(-0.000456543 -0.00595867 3.98873e-06)
(0.000454378 -0.00589695 -3.97087e-06)
(0.000477022 -0.00596635 -4.16305e-06)
(-0.000334308 -0.00574876 2.92876e-06)
(0.000559677 -0.00579056 -4.87712e-06)
(0.000335219 -0.00573312 -2.92993e-06)
(0.000509206 -0.00573577 -4.4444e-06)
(0.000516093 -0.00571051 -4.50453e-06)
(0.000585477 -0.00569691 -5.10947e-06)
(0.000626558 -0.00567228 -5.46834e-06)
(0.000675898 -0.00564351 -5.89877e-06)
(0.000718755 -0.00560689 -6.27278e-06)
(0.000763845 -0.00556237 -6.6663e-06)
(0.000805904 -0.00550973 -7.03347e-06)
(0.000847157 -0.00544859 -7.39357e-06)
(0.000886463 -0.00537891 -7.73667e-06)
(0.000923747 -0.00530056 -8.0621e-06)
(0.000958635 -0.0052135 -8.36663e-06)
(0.000990747 -0.00511773 -8.64692e-06)
(0.00101969 -0.00501332 -8.89956e-06)
(0.0010451 -0.00490037 -9.1213e-06)
(0.00106662 -0.0047791 -9.30916e-06)
(0.00108392 -0.00464976 -9.46024e-06)
(0.00109671 -0.00451269 -9.57192e-06)
(0.00110471 -0.00436833 -9.64172e-06)
(0.00110768 -0.00421719 -9.66768e-06)
(0.00110545 -0.00405984 -9.64827e-06)