/*--------------------------------*- C++ -*----------------------------------*\
| =========                 |                                                 |
| \\      /  F ield         | OpenFOAM: The Open Source CFD Toolbox           |
|  \\    /   O peration     | Version:  v2012                                 |
|   \\  /    A nd           | Website:  www.openfoam.com                      |
|    \\/     M anipulation  |                                                 |
\*---------------------------------------------------------------------------*/
FoamFile
{
    version     2.0;
    format      ascii;
    class       volVectorField;
    location    "0.9";
    object      U;
}
// * * * * * * * * * * * * * * * * * * * * * * * * * * * * * * * * * * * * * //

dimensions      [0 1 -1 0 0 0 0];


internalField   nonuniform List<vector> 
20000
(
(2.07321e-06 -0.00249346 -1.80967e-08)
(7.65787e-06 -0.00462102 -6.6831e-08)
(1.51537e-05 -0.00640253 -1.32252e-07)
(2.37367e-05 -0.00789171 -2.07161e-07)
(3.34022e-05 -0.00918093 -2.91525e-07)
(4.38572e-05 -0.0103251 -3.82776e-07)
(5.53396e-05 -0.0113588 -4.82987e-07)
(6.79836e-05 -0.0123046 -5.93336e-07)
(8.16579e-05 -0.0131784 -7.12688e-07)
(9.6524e-05 -0.0139916 -8.42428e-07)
(0.000112537 -0.0147529 -9.82177e-07)
(0.00012983 -0.0154684 -1.1331e-06)
(0.0001483 -0.0161433 -1.29429e-06)
(0.000168071 -0.0167813 -1.46684e-06)
(0.000189014 -0.0173855 -1.64961e-06)
(0.000211156 -0.0179581 -1.84286e-06)
(0.000234379 -0.0185009 -2.04554e-06)
(0.000258679 -0.0190152 -2.25761e-06)
(0.000283937 -0.019502 -2.47805e-06)
(0.000310116 -0.0199618 -2.70653e-06)
(0.000337107 -0.0203951 -2.94209e-06)
(0.000364848 -0.0208019 -3.1842e-06)
(0.000393199 -0.0211821 -3.43163e-06)
(0.000422083 -0.0215355 -3.68372e-06)
(0.000451345 -0.0218615 -3.93911e-06)
(0.000480869 -0.0221594 -4.19678e-06)
(0.000510468 -0.0224285 -4.45512e-06)
(0.000539976 -0.0226677 -4.71266e-06)
(0.000569168 -0.022876 -4.96745e-06)
(0.000597828 -0.0230521 -5.21761e-06)
(0.000625683 -0.0231946 -5.46074e-06)
(0.000652461 -0.0233021 -5.69446e-06)
(0.000677844 -0.0233728 -5.91603e-06)
(0.000701505 -0.0234051 -6.12257e-06)
(0.000723084 -0.023397 -6.31095e-06)
(0.000742207 -0.0233467 -6.47791e-06)
(0.000758485 -0.0232521 -6.62002e-06)
(0.000771514 -0.0231109 -6.73381e-06)
(0.000780894 -0.0229209 -6.81577e-06)
(0.00078622 -0.0226796 -6.86326e-06)
(0.000787114 -0.0223845 -6.87118e-06)
(0.000783215 -0.0220329 -6.83724e-06)
(0.000774213 -0.021622 -6.75875e-06)
(0.000759836 -0.0211485 -6.63334e-06)
(0.000739899 -0.0206094 -6.4594e-06)
(0.000714286 -0.020001 -6.23591e-06)
(0.000682991 -0.0193195 -5.96283e-06)
(0.000646113 -0.0185612 -5.641e-06)
(0.000603884 -0.0177219 -5.27243e-06)
(0.000556653 -0.0167977 -4.86021e-06)
(0.000504906 -0.0157851 -4.40854e-06)
(0.000449247 -0.0146808 -3.92271e-06)
(0.000390435 -0.0134825 -3.40932e-06)
(0.000329379 -0.0121875 -2.87634e-06)
(0.000267262 -0.0107905 -2.33404e-06)
(0.000205653 -0.00927886 -1.79616e-06)
(0.000146634 -0.00762471 -1.28082e-06)
(9.25124e-05 -0.00577912 -8.08229e-07)
(4.62328e-05 -0.00367257 -4.0383e-07)
(9.61146e-06 -0.00123052 -8.16475e-08)
(1.70168e-06 -0.00252394 -1.48483e-08)
(7.24074e-06 -0.00466389 -6.31821e-08)
(1.54244e-05 -0.00645222 -1.34606e-07)
(2.53778e-05 -0.00794566 -2.21475e-07)
(3.64676e-05 -0.00923794 -3.1826e-07)
(4.8584e-05 -0.0103847 -4.2402e-07)
(6.15181e-05 -0.0114204 -5.36908e-07)
(7.55769e-05 -0.0123682 -6.59609e-07)
(9.04923e-05 -0.0132438 -7.8979e-07)
(0.000106284 -0.0140588 -9.27625e-07)
(0.000123001 -0.0148215 -1.07352e-06)
(0.00014066 -0.0155385 -1.22764e-06)
(0.000159283 -0.0162146 -1.39017e-06)
(0.000178929 -0.0168536 -1.56163e-06)
(0.000199631 -0.0174585 -1.74231e-06)
(0.000221342 -0.0180316 -1.93179e-06)
(0.000244111 -0.0185746 -2.13051e-06)
(0.000267851 -0.019089 -2.3377e-06)
(0.000292611 -0.0195755 -2.5538e-06)
(0.000318265 -0.020035 -2.7777e-06)
(0.000344795 -0.0204676 -3.00923e-06)
(0.000372091 -0.0208736 -3.24745e-06)
(0.000400086 -0.0212528 -3.49177e-06)
(0.00042864 -0.0216049 -3.74097e-06)
(0.000457648 -0.0219295 -3.99413e-06)
(0.000486934 -0.0222258 -4.24973e-06)
(0.000516351 -0.0224931 -4.50646e-06)
(0.000545687 -0.0227303 -4.7625e-06)
(0.000574748 -0.0229364 -5.01612e-06)
(0.000603279 -0.0231102 -5.26515e-06)
(0.000631031 -0.0232501 -5.50736e-06)
(0.000657706 -0.0233548 -5.74016e-06)
(0.000682998 -0.0234227 -5.96091e-06)
(0.000706563 -0.0234519 -6.16659e-06)
(0.000728046 -0.0234407 -6.35411e-06)
(0.000747066 -0.023387 -6.52014e-06)
(0.000763231 -0.0232889 -6.66125e-06)
(0.000776137 -0.0231441 -6.77392e-06)
(0.000785376 -0.0229504 -6.85463e-06)
(0.000790545 -0.0227054 -6.90074e-06)
(0.000791259 -0.0224066 -6.90706e-06)
(0.000787164 -0.0220513 -6.87139e-06)
(0.000777937 -0.0216366 -6.79092e-06)
(0.000763319 -0.0211595 -6.66339e-06)
(0.000743111 -0.0206169 -6.48709e-06)
(0.000717212 -0.0200052 -6.2611e-06)
(0.000685604 -0.0193206 -5.98529e-06)
(0.000648402 -0.0185594 -5.66064e-06)
(0.000605827 -0.0177175 -5.28909e-06)
(0.000558249 -0.0167911 -4.87385e-06)
(0.000506145 -0.0157765 -4.41911e-06)
(0.000450138 -0.0146707 -3.93027e-06)
(0.000390978 -0.0134713 -3.41392e-06)
(0.00032959 -0.0121756 -2.87808e-06)
(0.000267145 -0.0107784 -2.33301e-06)
(0.000205227 -0.00926729 -1.79249e-06)
(0.000145925 -0.00761444 -1.27478e-06)
(9.15709e-05 -0.00577097 -8.00238e-07)
(4.51411e-05 -0.00366729 -3.94869e-07)
(7.90764e-06 -0.00122704 -7.2652e-08)
(9.98412e-07 -0.00252093 -8.71093e-09)
(5.13548e-06 -0.00466478 -4.48113e-08)
(1.18997e-05 -0.0064572 -1.03846e-07)
(2.06219e-05 -0.00795393 -1.79964e-07)
(3.08645e-05 -0.00924896 -2.69356e-07)
(4.24093e-05 -0.0103978 -3.70119e-07)
(5.51192e-05 -0.0114356 -4.81053e-07)
(6.89687e-05 -0.0123849 -6.01917e-07)
(8.38138e-05 -0.0132623 -7.31483e-07)
(9.99597e-05 -0.0140788 -8.72402e-07)
(0.000117112 -0.0148432 -1.02211e-06)
(0.000135409 -0.0155618 -1.18179e-06)
(0.000154791 -0.0162396 -1.35095e-06)
(0.000175292 -0.0168803 -1.52987e-06)
(0.00019682 -0.0174869 -1.71776e-06)
(0.000219451 -0.0180617 -1.91527e-06)
(0.000243056 -0.0186065 -2.12128e-06)
(0.000267658 -0.0191224 -2.33601e-06)
(0.00029318 -0.0196105 -2.55876e-06)
(0.000319587 -0.0200713 -2.78922e-06)
(0.000346794 -0.0205052 -3.02667e-06)
(0.00037475 -0.0209123 -3.27065e-06)
(0.000403329 -0.0212925 -3.52008e-06)
(0.000432459 -0.0216453 -3.77431e-06)
(0.000461983 -0.0219705 -4.03198e-06)
(0.00049178 -0.0222671 -4.29204e-06)
(0.000521661 -0.0225345 -4.55283e-06)
(0.000551452 -0.0227716 -4.81284e-06)
(0.000580925 -0.0229773 -5.07006e-06)
(0.000609853 -0.0231504 -5.32255e-06)
(0.00063796 -0.0232895 -5.56786e-06)
(0.000664963 -0.023393 -5.80353e-06)
(0.000690539 -0.0234594 -6.02676e-06)
(0.000714352 -0.0234869 -6.2346e-06)
(0.000736034 -0.0234737 -6.42386e-06)
(0.000755205 -0.0234178 -6.5912e-06)
(0.000771468 -0.0233172 -6.73316e-06)
(0.000784412 -0.0231698 -6.84617e-06)
(0.000793632 -0.0229731 -6.9267e-06)
(0.000798713 -0.022725 -6.97204e-06)
(0.000799275 -0.022423 -6.97702e-06)
(0.000794954 -0.0220642 -6.93936e-06)
(0.000785436 -0.0216461 -6.85634e-06)
(0.000770449 -0.0211655 -6.72558e-06)
(0.000749809 -0.0206194 -6.5455e-06)
(0.000723405 -0.0200043 -6.31509e-06)
(0.000691236 -0.0193165 -6.03437e-06)
(0.000653409 -0.0185522 -5.70426e-06)
(0.000610167 -0.0177075 -5.32687e-06)
(0.000561879 -0.0167785 -4.90544e-06)
(0.000509049 -0.0157617 -4.44435e-06)
(0.000452301 -0.014654 -3.94906e-06)
(0.000392418 -0.0134532 -3.42638e-06)
(0.000330329 -0.0121565 -2.88445e-06)
(0.000267229 -0.0107589 -2.33365e-06)
(0.000204706 -0.00924805 -1.78788e-06)
(0.000144869 -0.00759619 -1.2655e-06)
(9.00821e-05 -0.00575448 -7.87192e-07)
(4.32622e-05 -0.00365345 -3.78719e-07)
(5.78892e-06 -0.00121849 -6.03118e-08)
(1.12999e-06 -0.00254236 -9.8577e-09)
(5.58103e-06 -0.00469702 -4.87025e-08)
(1.27764e-05 -0.00649644 -1.11487e-07)
(2.22185e-05 -0.00799791 -1.93905e-07)
(3.30931e-05 -0.00929636 -2.88806e-07)
(4.54866e-05 -0.0104478 -3.96977e-07)
(5.88965e-05 -0.0114875 -5.14008e-07)
(7.35279e-05 -0.0124384 -6.41716e-07)
(8.89873e-05 -0.0133169 -7.76642e-07)
(0.000105638 -0.0141342 -9.21964e-07)
(0.000123092 -0.0148992 -1.07429e-06)
(0.000141657 -0.0156181 -1.23633e-06)
(0.000161174 -0.0162961 -1.40667e-06)
(0.00018166 -0.0169368 -1.58545e-06)
(0.000203181 -0.0175434 -1.77327e-06)
(0.000225707 -0.018118 -1.96987e-06)
(0.000249256 -0.0186624 -2.17539e-06)
(0.000273787 -0.019178 -2.38949e-06)
(0.000299337 -0.0196656 -2.61247e-06)
(0.000325773 -0.0201259 -2.84319e-06)
(0.000353102 -0.0205592 -3.0817e-06)
(0.000381218 -0.0209656 -3.32708e-06)
(0.000410053 -0.021345 -3.57874e-06)
(0.000439465 -0.021697 -3.83544e-06)
(0.000469345 -0.0220212 -4.09622e-06)
(0.000499513 -0.0223168 -4.35951e-06)
(0.000529813 -0.022583 -4.62395e-06)
(0.000560025 -0.0228188 -4.88763e-06)
(0.000589943 -0.0230232 -5.14875e-06)
(0.000619304 -0.0231947 -5.40502e-06)
(0.000647846 -0.0233321 -5.65413e-06)
(0.000675257 -0.0234338 -5.89336e-06)
(0.000701219 -0.0234981 -6.11996e-06)
(0.000725376 -0.0235234 -6.33081e-06)
(0.000747358 -0.0235079 -6.52269e-06)
(0.000766772 -0.0234495 -6.69215e-06)
(0.000783211 -0.0233462 -6.83566e-06)
(0.000796259 -0.0231959 -6.94958e-06)
(0.000805498 -0.0229963 -7.03029e-06)
(0.000810512 -0.022745 -7.07506e-06)
(0.000810906 -0.0224397 -7.07859e-06)
(0.000806322 -0.0220777 -7.03864e-06)
(0.00079643 -0.0216563 -6.95236e-06)
(0.000780969 -0.0211724 -6.81747e-06)
(0.000759744 -0.020623 -6.63227e-06)
(0.000732656 -0.0200046 -6.3959e-06)
(0.000699699 -0.0193137 -6.1083e-06)
(0.000661001 -0.0185465 -5.77058e-06)
(0.000616801 -0.0176991 -5.38483e-06)
(0.0005675 -0.0167678 -4.95455e-06)
(0.000513607 -0.0157488 -4.48418e-06)
(0.000455786 -0.0146394 -3.97951e-06)
(0.000394835 -0.0134371 -3.44751e-06)
(0.000331726 -0.0121395 -2.89665e-06)
(0.000267671 -0.0107415 -2.33753e-06)
(0.000204291 -0.00923082 -1.78425e-06)
(0.000143703 -0.00757985 -1.25532e-06)
(8.83701e-05 -0.00573976 -7.72223e-07)
(4.12136e-05 -0.00364115 -3.60848e-07)
(4.92617e-06 -0.00121113 -5.16564e-08)
(6.60404e-07 -0.00254123 -5.73899e-09)
(4.07278e-06 -0.00470074 -3.55251e-08)
(1.00748e-05 -0.00650527 -8.79276e-08)
(1.82413e-05 -0.00801126 -1.59179e-07)
(2.81282e-05 -0.00931362 -2.45487e-07)
(3.9784e-05 -0.0104683 -3.47199e-07)
(5.27978e-05 -0.011511 -4.60786e-07)
(6.72116e-05 -0.0124646 -5.86588e-07)
(8.27747e-05 -0.0133455 -7.22415e-07)
(9.97632e-05 -0.0141651 -8.70672e-07)
(0.00011769 -0.0149322 -1.02713e-06)
(0.000137042 -0.0156532 -1.19604e-06)
(0.000157397 -0.0163331 -1.37369e-06)
(0.000178921 -0.0169757 -1.56153e-06)
(0.000201509 -0.0175839 -1.75867e-06)
(0.000225164 -0.0181601 -1.96512e-06)
(0.0002498 -0.018706 -2.18013e-06)
(0.000275431 -0.0192229 -2.40383e-06)
(0.00030199 -0.0197116 -2.63562e-06)
(0.000329444 -0.0201728 -2.87523e-06)
(0.00035771 -0.0206069 -3.12192e-06)
(0.000386753 -0.0210138 -3.3754e-06)
(0.000416448 -0.0213935 -3.63456e-06)
(0.000446717 -0.0217456 -3.89873e-06)
(0.000477402 -0.0220696 -4.16654e-06)
(0.000508376 -0.0223649 -4.43686e-06)
(0.000539439 -0.0226305 -4.70797e-06)
(0.00057041 -0.0228656 -4.97827e-06)
(0.000601046 -0.0230689 -5.24565e-06)
(0.000631108 -0.0232392 -5.50804e-06)
(0.000660303 -0.023375 -5.76285e-06)
(0.000688333 -0.023475 -6.00748e-06)
(0.000714855 -0.0235375 -6.23898e-06)
(0.000739517 -0.0235606 -6.45423e-06)
(0.000761931 -0.0235427 -6.64987e-06)
(0.000781698 -0.0234817 -6.82242e-06)
(0.000798401 -0.0233757 -6.96823e-06)
(0.000811612 -0.0232225 -7.08358e-06)
(0.000820908 -0.0230198 -7.16478e-06)
(0.000825858 -0.0227654 -7.20901e-06)
(0.000826065 -0.0224569 -7.21092e-06)
(0.000821158 -0.0220915 -7.16815e-06)
(0.000810813 -0.0216666 -7.07791e-06)
(0.000794753 -0.0211794 -6.93781e-06)
(0.000772797 -0.0206267 -6.74623e-06)
(0.000744836 -0.0200051 -6.50224e-06)
(0.000710883 -0.0193111 -6.20596e-06)
(0.000671062 -0.018541 -5.85844e-06)
(0.000625643 -0.017691 -5.46205e-06)
(0.00057503 -0.0167573 -5.02032e-06)
(0.000519773 -0.0157363 -4.53804e-06)
(0.000460555 -0.0146252 -4.02119e-06)
(0.000398227 -0.0134217 -3.47716e-06)
(0.000333791 -0.0121232 -2.91473e-06)
(0.000268512 -0.0107249 -2.3449e-06)
(0.000204039 -0.00921452 -1.7821e-06)
(0.000142527 -0.00756458 -1.24509e-06)
(8.65628e-05 -0.00572628 -7.5647e-07)
(3.91896e-05 -0.00363036 -3.43118e-07)
(4.43055e-06 -0.00120526 -4.59666e-08)
(7.97486e-07 -0.00255641 -6.95215e-09)
(4.66598e-06 -0.00472486 -4.06937e-08)
(1.07845e-05 -0.00653582 -9.40979e-08)
(1.96621e-05 -0.0080466 -1.71575e-07)
(2.97832e-05 -0.00935278 -2.59904e-07)
(4.19109e-05 -0.0105104 -3.65765e-07)
(5.51289e-05 -0.0115556 -4.81138e-07)
(6.99527e-05 -0.012511 -6.10511e-07)
(8.58033e-05 -0.0133934 -7.48842e-07)
(0.000103046 -0.0142142 -8.99323e-07)
(0.000121171 -0.0149822 -1.05752e-06)
(0.000140697 -0.0157038 -1.22793e-06)
(0.000161185 -0.0163842 -1.40674e-06)
(0.000182866 -0.0170272 -1.59596e-06)
(0.000205667 -0.0176357 -1.79495e-06)
(0.000229548 -0.0182121 -2.00338e-06)
(0.000254541 -0.0187582 -2.2215e-06)
(0.000280556 -0.0192751 -2.44854e-06)
(0.000307625 -0.0197638 -2.68479e-06)
(0.000335633 -0.020225 -2.92923e-06)
(0.000364554 -0.020659 -3.18164e-06)
(0.000394291 -0.0210657 -3.44117e-06)
(0.00042477 -0.0214451 -3.70717e-06)
(0.000455841 -0.0217969 -3.97835e-06)
(0.000487388 -0.0221204 -4.25368e-06)
(0.000519222 -0.0224149 -4.53151e-06)
(0.000551177 -0.0226797 -4.8104e-06)
(0.000583021 -0.0229138 -5.08832e-06)
(0.000614535 -0.0231159 -5.36336e-06)
(0.000645438 -0.0232848 -5.6331e-06)
(0.00067545 -0.0234191 -5.89504e-06)
(0.000704242 -0.0235172 -6.14633e-06)
(0.000731475 -0.0235777 -6.38402e-06)
(0.00075677 -0.0235986 -6.60481e-06)
(0.000779736 -0.0235783 -6.80527e-06)
(0.000799957 -0.0235147 -6.98178e-06)
(0.000817003 -0.0234058 -7.13059e-06)
(0.000830438 -0.0232496 -7.24788e-06)
(0.000839819 -0.0230438 -7.32983e-06)
(0.000844712 -0.0227861 -7.37359e-06)
(0.000844704 -0.0224742 -7.37362e-06)
(0.000839425 -0.0221054 -7.32761e-06)
(0.000828534 -0.0216771 -7.23261e-06)
(0.000811765 -0.0211863 -7.08631e-06)
(0.000788922 -0.0206302 -6.887e-06)
(0.000759915 -0.0200053 -6.63388e-06)
(0.000724749 -0.0193082 -6.32701e-06)
(0.000683576 -0.0185352 -5.9677e-06)
(0.000636668 -0.0176824 -5.55831e-06)
(0.00058447 -0.0167463 -5.10274e-06)
(0.000527547 -0.0157233 -4.60592e-06)
(0.000466637 -0.0146105 -4.07429e-06)
(0.000402624 -0.0134057 -3.51557e-06)
(0.000336581 -0.0121064 -2.93909e-06)
(0.000269814 -0.0107078 -2.35629e-06)
(0.000204037 -0.0091978 -1.78209e-06)
(0.000141442 -0.00754897 -1.23564e-06)
(8.47757e-05 -0.00571261 -7.4087e-07)
(3.72488e-05 -0.00361967 -3.2611e-07)
(3.81234e-06 -0.00119976 -4.00038e-08)
(4.86226e-07 -0.00255755 -4.23623e-09)
(3.68416e-06 -0.00473132 -3.21177e-08)
(9.0308e-06 -0.00654768 -7.87758e-08)
(1.69678e-05 -0.00806339 -1.48048e-07)
(2.64037e-05 -0.00937371 -2.30385e-07)
(3.80047e-05 -0.0105351 -3.31672e-07)
(5.09143e-05 -0.0115837 -4.44341e-07)
(6.56811e-05 -0.0125422 -5.73225e-07)
(8.16553e-05 -0.0134274 -7.12631e-07)
(9.92666e-05 -0.0142507 -8.66334e-07)
(0.000117918 -0.0150212 -1.02911e-06)
(0.000138184 -0.0157449 -1.20599e-06)
(0.000159463 -0.0164273 -1.3917e-06)
(0.000182142 -0.0170719 -1.58963e-06)
(0.000205939 -0.0176821 -1.79732e-06)
(0.00023094 -0.0182599 -2.01552e-06)
(0.000257039 -0.0188071 -2.24329e-06)
(0.000284204 -0.019325 -2.48038e-06)
(0.000312379 -0.0198146 -2.72627e-06)
(0.000341536 -0.0202765 -2.98075e-06)
(0.000371573 -0.0207108 -3.2429e-06)
(0.00040245 -0.0211178 -3.51237e-06)
(0.000434032 -0.0214973 -3.78801e-06)
(0.000466231 -0.0218489 -4.06903e-06)
(0.000498878 -0.022172 -4.35395e-06)
(0.000531829 -0.0224661 -4.64153e-06)
(0.000564872 -0.0227301 -4.92992e-06)
(0.000597806 -0.0229632 -5.21735e-06)
(0.00063037 -0.0231641 -5.50156e-06)
(0.000662302 -0.0233316 -5.78027e-06)
(0.000693288 -0.0234643 -6.05071e-06)
(0.000723003 -0.0235606 -6.31005e-06)
(0.000751082 -0.0236189 -6.55513e-06)
(0.000777142 -0.0236376 -6.78259e-06)
(0.00080077 -0.0236147 -6.98884e-06)
(0.000821538 -0.0235484 -7.17013e-06)
(0.000839003 -0.0234367 -7.32259e-06)
(0.000852709 -0.0232774 -7.44225e-06)
(0.000862207 -0.0230683 -7.52523e-06)
(0.000867041 -0.0228073 -7.56851e-06)
(0.000866797 -0.0224918 -7.56648e-06)
(0.000861085 -0.0221195 -7.51669e-06)
(0.00084957 -0.0216875 -7.41624e-06)
(0.000831969 -0.0211932 -7.26268e-06)
(0.0008081 -0.0206336 -7.05442e-06)
(0.000777864 -0.0200053 -6.79057e-06)
(0.000741289 -0.0193049 -6.47141e-06)
(0.000698526 -0.0185288 -6.09822e-06)
(0.000649885 -0.0176733 -5.6737e-06)
(0.000595822 -0.0167348 -5.20186e-06)
(0.000536956 -0.0157097 -4.68808e-06)
(0.000474056 -0.0145952 -4.13909e-06)
(0.000408077 -0.0133891 -3.5632e-06)
(0.000340145 -0.0120891 -2.97025e-06)
(0.000271648 -0.0106902 -2.37232e-06)
(0.00020436 -0.00918061 -1.78494e-06)
(0.000140543 -0.00753299 -1.2278e-06)
(8.31033e-05 -0.00569872 -7.26285e-07)
(3.54524e-05 -0.00360901 -3.10421e-07)
(3.21696e-06 -0.00119452 -3.42761e-08)
(5.99979e-07 -0.00256863 -5.21716e-09)
(4.16053e-06 -0.0047501 -3.62737e-08)
(9.4321e-06 -0.00657249 -8.22875e-08)
(1.80974e-05 -0.00809298 -1.57948e-07)
(2.74619e-05 -0.00940733 -2.39687e-07)
(3.94283e-05 -0.0105722 -3.44057e-07)
(5.24538e-05 -0.0116236 -4.57743e-07)
(6.75235e-05 -0.0125845 -5.89279e-07)
(8.36641e-05 -0.0134717 -7.30171e-07)
(0.000101544 -0.0142968 -8.86203e-07)
(0.000120435 -0.0150687 -1.05108e-06)
(0.000140975 -0.0157937 -1.23034e-06)
(0.000162549 -0.0164771 -1.41863e-06)
(0.000185622 -0.0171227 -1.61999e-06)
(0.00020986 -0.0177336 -1.83153e-06)
(0.000235401 -0.0183121 -2.05444e-06)
(0.000262161 -0.0188599 -2.28799e-06)
(0.000290055 -0.0193784 -2.53144e-06)
(0.000319113 -0.0198684 -2.78503e-06)
(0.000349197 -0.0203305 -3.0476e-06)
(0.000380264 -0.020765 -3.31873e-06)
(0.000412217 -0.0211721 -3.5976e-06)
(0.000444965 -0.0215515 -3.88341e-06)
(0.000478346 -0.0219028 -4.17475e-06)
(0.000512228 -0.0222255 -4.47045e-06)
(0.000546408 -0.0225189 -4.76876e-06)
(0.000580704 -0.0227821 -5.06807e-06)
(0.000614865 -0.0230142 -5.36622e-06)
(0.000648648 -0.0232138 -5.66107e-06)
(0.000681751 -0.0233799 -5.95e-06)
(0.000713868 -0.0235108 -6.23032e-06)
(0.000744642 -0.0236053 -6.4989e-06)
(0.000773703 -0.0236615 -6.75255e-06)
(0.000800643 -0.0236777 -6.9877e-06)
(0.000825039 -0.0236523 -7.20064e-06)
(0.000846442 -0.0235831 -7.38747e-06)
(0.000864391 -0.0234684 -7.54417e-06)
(0.000878419 -0.0233058 -7.66664e-06)
(0.000888053 -0.0230934 -7.75081e-06)
(0.000892831 -0.0228289 -7.79363e-06)
(0.000892317 -0.0225098 -7.78924e-06)
(0.000886121 -0.0221337 -7.73523e-06)
(0.000873889 -0.0216981 -7.62854e-06)
(0.000855349 -0.0212001 -7.46678e-06)
(0.000830304 -0.0206368 -7.24825e-06)
(0.000798674 -0.020005 -6.97224e-06)
(0.000760483 -0.0193013 -6.63898e-06)
(0.000715916 -0.0185221 -6.25004e-06)
(0.000665289 -0.0176637 -5.8082e-06)
(0.000609108 -0.0167227 -5.31786e-06)
(0.000548017 -0.0156954 -4.78467e-06)
(0.000482855 -0.0145792 -4.21592e-06)
(0.000414627 -0.0133719 -3.62041e-06)
(0.000344549 -0.0120711 -3.00871e-06)
(0.000274078 -0.0106721 -2.39357e-06)
(0.000205087 -0.00916296 -1.7913e-06)
(0.000139909 -0.00751665 -1.22229e-06)
(8.16282e-05 -0.00568464 -7.13399e-07)
(3.38401e-05 -0.00359843 -2.96326e-07)
(2.71093e-06 -0.00118957 -2.95489e-08)
(4.00912e-07 -0.00257141 -3.48319e-09)
(3.58456e-06 -0.00475848 -3.12492e-08)
(8.43695e-06 -0.00658645 -7.35739e-08)
(1.65635e-05 -0.008112 -1.4453e-07)
(2.55252e-05 -0.00943069 -2.22745e-07)
(3.72833e-05 -0.0105996 -3.25351e-07)
(5.01398e-05 -0.0116545 -4.37506e-07)
(6.52819e-05 -0.0126186 -5.69698e-07)
(8.16342e-05 -0.0135089 -7.12422e-07)
(9.99208e-05 -0.0143367 -8.72033e-07)
(0.000119403 -0.0151111 -1.04205e-06)
(0.00014065 -0.0158384 -1.2275e-06)
(0.000163037 -0.0165239 -1.42288e-06)
(0.000187071 -0.0171713 -1.63263e-06)
(0.00021228 -0.0177839 -1.85264e-06)
(0.000238942 -0.0183637 -2.08534e-06)
(0.000266822 -0.0189128 -2.32866e-06)
(0.000295937 -0.0194322 -2.58276e-06)
(0.000326204 -0.019923 -2.84691e-06)
(0.000357577 -0.0203857 -3.12073e-06)
(0.000389952 -0.0208206 -3.40328e-06)
(0.000423265 -0.0212279 -3.69401e-06)
(0.000457365 -0.0216073 -3.99162e-06)
(0.000492144 -0.0219584 -4.29516e-06)
(0.000527416 -0.0222807 -4.603e-06)
(0.000563015 -0.0225735 -4.91369e-06)
(0.000598709 -0.0228359 -5.22521e-06)
(0.000634271 -0.0230669 -5.53558e-06)
(0.000669416 -0.0232653 -5.84231e-06)
(0.000703851 -0.0234298 -6.14287e-06)
(0.000737233 -0.023559 -6.43423e-06)
(0.000769206 -0.0236514 -6.71327e-06)
(0.000799369 -0.0237054 -6.97654e-06)
(0.000827304 -0.0237192 -7.22038e-06)
(0.000852564 -0.023691 -7.44087e-06)
(0.000874683 -0.0236189 -7.63394e-06)
(0.000893181 -0.023501 -7.79543e-06)
(0.000907567 -0.0233351 -7.92104e-06)
(0.00091736 -0.0231192 -8.00659e-06)
(0.000922071 -0.022851 -8.04886e-06)
(0.00092126 -0.0225282 -8.04189e-06)
(0.000914515 -0.0221483 -7.9831e-06)
(0.000901487 -0.0217088 -7.86946e-06)
(0.000881885 -0.0212069 -7.69843e-06)
(0.000855528 -0.0206399 -7.46846e-06)
(0.000822327 -0.0200045 -7.17874e-06)
(0.000782334 -0.0192973 -6.82974e-06)
(0.000735736 -0.0185149 -6.42309e-06)
(0.000682893 -0.0176536 -5.9619e-06)
(0.000624332 -0.0167099 -5.4508e-06)
(0.00056076 -0.0156805 -4.89594e-06)
(0.000493058 -0.0145625 -4.30503e-06)
(0.000422322 -0.013354 -3.68761e-06)
(0.000349837 -0.0120524 -3.05491e-06)
(0.000277167 -0.0106533 -2.42055e-06)
(0.000206278 -0.00914483 -1.80173e-06)
(0.000139606 -0.00749997 -1.21965e-06)
(8.04049e-05 -0.00567041 -7.02744e-07)
(3.24414e-05 -0.00358793 -2.84077e-07)
(2.28278e-06 -0.00118486 -2.5449e-08)
(4.94711e-07 -0.00257997 -4.29643e-09)
(3.84363e-06 -0.00477408 -3.34946e-08)
(8.89028e-06 -0.00660796 -7.75528e-08)
(1.72092e-05 -0.00813841 -1.50154e-07)
(2.6318e-05 -0.00946133 -2.29655e-07)
(3.83749e-05 -0.0106339 -3.34897e-07)
(5.14308e-05 -0.0116921 -4.48874e-07)
(6.6817e-05 -0.0126592 -5.83088e-07)
(8.35316e-05 -0.013552 -7.2896e-07)
(0.00010213 -0.014382 -8.91287e-07)
(0.000121992 -0.0151584 -1.06465e-06)
(0.000143682 -0.0158875 -1.25394e-06)
(0.000166582 -0.0165746 -1.45381e-06)
(0.000191241 -0.0172234 -1.66902e-06)
(0.000217142 -0.0178372 -1.89507e-06)
(0.000244617 -0.0184182 -2.13486e-06)
(0.000273422 -0.0189682 -2.38625e-06)
(0.000303568 -0.0194884 -2.64935e-06)
(0.000335005 -0.0199799 -2.92372e-06)
(0.000367593 -0.0204431 -3.20813e-06)
(0.000401282 -0.0208784 -3.50215e-06)
(0.000435969 -0.0212858 -3.80487e-06)
(0.000471533 -0.0216652 -4.11526e-06)
(0.0005078 -0.0220161 -4.43178e-06)
(0.000544613 -0.022338 -4.75307e-06)
(0.000581751 -0.0226302 -5.07719e-06)
(0.000619005 -0.0228918 -5.40232e-06)
(0.000656099 -0.0231216 -5.72607e-06)
(0.000692762 -0.0233187 -6.04605e-06)
(0.00072866 -0.0234816 -6.35938e-06)
(0.000763451 -0.023609 -6.66303e-06)
(0.000796744 -0.0236993 -6.95361e-06)
(0.000828131 -0.0237509 -7.22756e-06)
(0.000857165 -0.0237621 -7.48098e-06)
(0.000883381 -0.0237311 -7.70981e-06)
(0.00090629 -0.023656 -7.9098e-06)
(0.000925391 -0.0235347 -8.07654e-06)
(0.000940176 -0.0233654 -8.20563e-06)
(0.000950136 -0.0231458 -8.29265e-06)
(0.000954775 -0.0228738 -8.33434e-06)
(0.000953626 -0.022547 -8.32442e-06)
(0.000946277 -0.0221631 -8.26036e-06)
(0.000932357 -0.0217196 -8.13893e-06)
(0.000911584 -0.0212138 -7.9577e-06)
(0.000883766 -0.0206428 -7.71497e-06)
(0.000848833 -0.0200036 -7.41014e-06)
(0.000806836 -0.0192928 -7.04365e-06)
(0.000758001 -0.0185071 -6.61747e-06)
(0.000702701 -0.0176428 -6.13484e-06)
(0.00064152 -0.0166965 -5.60087e-06)
(0.0005752 -0.0156648 -5.02203e-06)
(0.000504705 -0.0145451 -4.40673e-06)
(0.000431193 -0.0133353 -3.76509e-06)
(0.00035606 -0.0120331 -3.10926e-06)
(0.000280961 -0.010634 -2.45372e-06)
(0.00020799 -0.00912619 -1.81669e-06)
(0.000139681 -0.00748292 -1.22034e-06)
(7.94716e-05 -0.00565601 -6.94587e-07)
(3.1264e-05 -0.00357753 -2.73807e-07)
(1.91906e-06 -0.0011804 -2.19746e-08)
(3.73756e-07 -0.00258381 -3.24161e-09)
(3.47723e-06 -0.00478383 -3.03044e-08)
(8.33773e-06 -0.00662334 -7.2717e-08)
(1.65329e-05 -0.00815889 -1.44226e-07)
(2.55243e-05 -0.00948643 -2.22707e-07)
(3.75675e-05 -0.0106633 -3.2786e-07)
(5.07102e-05 -0.0117252 -4.42555e-07)
(6.63076e-05 -0.0126957 -5.78648e-07)
(8.32751e-05 -0.0135918 -7.26709e-07)
(0.000102415 -0.0144246 -8.93775e-07)
(0.000122939 -0.0152038 -1.07289e-06)
(0.000145397 -0.0159353 -1.26891e-06)
(0.000169166 -0.0166246 -1.47635e-06)
(0.000194829 -0.0172755 -1.70033e-06)
(0.000221784 -0.0178911 -1.93557e-06)
(0.000250453 -0.0184736 -2.18578e-06)
(0.000280481 -0.0190249 -2.44785e-06)
(0.000311972 -0.0195462 -2.72269e-06)
(0.000344764 -0.0200386 -3.00888e-06)
(0.000378822 -0.0205025 -3.30612e-06)
(0.000414031 -0.0209382 -3.61341e-06)
(0.000450306 -0.0213459 -3.92999e-06)
(0.000487473 -0.0217253 -4.25437e-06)
(0.0005254 -0.0220761 -4.58537e-06)
(0.000563881 -0.0223976 -4.92121e-06)
(0.000602721 -0.0226891 -5.26019e-06)
(0.000641663 -0.0229498 -5.60006e-06)
(0.000680446 -0.0231786 -5.93855e-06)
(0.000718756 -0.0233742 -6.2729e-06)
(0.000756262 -0.0235355 -6.60026e-06)
(0.000792585 -0.023661 -6.91729e-06)
(0.000827326 -0.0237491 -7.2205e-06)
(0.000860045 -0.0237982 -7.50608e-06)
(0.000890279 -0.0238067 -7.76998e-06)
(0.000917536 -0.0237727 -8.0079e-06)
(0.000941305 -0.0236943 -8.21538e-06)
(0.000961062 -0.0235697 -8.38786e-06)
(0.000976271 -0.0233967 -8.52066e-06)
(0.000986413 -0.0231732 -8.60927e-06)
(0.000990959 -0.0228972 -8.65019e-06)
(0.000989438 -0.0225664 -8.63703e-06)
(0.000981413 -0.0221783 -8.56707e-06)
(0.000966516 -0.0217306 -8.43712e-06)
(0.000944448 -0.0212206 -8.24459e-06)
(0.000915032 -0.0206456 -7.98792e-06)
(0.000878191 -0.0200024 -7.66643e-06)
(0.000834008 -0.0192879 -7.28087e-06)
(0.000782715 -0.0184987 -6.83323e-06)
(0.000724736 -0.0176313 -6.32722e-06)
(0.000660683 -0.0166823 -5.76818e-06)
(0.000591371 -0.0156484 -5.16323e-06)
(0.000517817 -0.0145269 -4.52124e-06)
(0.000441285 -0.0133158 -3.85322e-06)
(0.000363256 -0.012013 -3.17212e-06)
(0.000285512 -0.0106139 -2.49347e-06)
(0.000210263 -0.00910698 -1.83657e-06)
(0.000140174 -0.00746547 -1.22466e-06)
(7.88493e-05 -0.00564141 -6.89182e-07)
(3.03111e-05 -0.00356716 -2.65447e-07)
(1.61193e-06 -0.00117613 -1.90642e-08)
(4.15228e-07 -0.00259096 -3.6043e-09)
(3.65673e-06 -0.00479781 -3.18693e-08)
(8.74019e-06 -0.00664333 -7.62312e-08)
(1.70437e-05 -0.00818403 -1.4867e-07)
(2.63473e-05 -0.00951609 -2.29901e-07)
(3.86124e-05 -0.0106969 -3.36975e-07)
(5.20745e-05 -0.0117625 -4.54493e-07)
(6.79013e-05 -0.0127362 -5.92565e-07)
(8.55502e-05 -0.0136353 -7.46645e-07)
(0.000105077 -0.0144708 -9.17022e-07)
(0.000126117 -0.0152524 -1.10063e-06)
(0.000149321 -0.0159861 -1.30313e-06)
(0.000173773 -0.0166775 -1.51655e-06)
(0.00020033 -0.0173302 -1.74833e-06)
(0.000228243 -0.0179474 -1.99194e-06)
(0.000257989 -0.0185314 -2.25155e-06)
(0.000289205 -0.019084 -2.52398e-06)
(0.000321984 -0.0196064 -2.81005e-06)
(0.000356191 -0.0200997 -3.1086e-06)
(0.000391732 -0.0205643 -3.41878e-06)
(0.000428527 -0.0210005 -3.7399e-06)
(0.000466446 -0.0214085 -4.07083e-06)
(0.000505348 -0.021788 -4.41035e-06)
(0.00054504 -0.0221385 -4.75676e-06)
(0.000585341 -0.0224597 -5.10849e-06)
(0.000626005 -0.0227505 -5.46339e-06)
(0.00066679 -0.0230103 -5.81934e-06)
(0.000707389 -0.0232379 -6.17368e-06)
(0.000747493 -0.0234321 -6.52369e-06)
(0.000786731 -0.0235916 -6.86617e-06)
(0.000824718 -0.0237151 -7.19772e-06)
(0.000861021 -0.0238009 -7.51456e-06)
(0.000895182 -0.0238475 -7.81273e-06)
(0.00092671 -0.0238531 -8.08792e-06)
(0.000955088 -0.023816 -8.33563e-06)
(0.000979782 -0.0237342 -8.55119e-06)
(0.00100024 -0.0236059 -8.72976e-06)
(0.0010159 -0.0234291 -8.86654e-06)
(0.00102622 -0.0232016 -8.95672e-06)
(0.00103066 -0.0229214 -8.99676e-06)
(0.00102872 -0.0225863 -8.97993e-06)
(0.00101996 -0.0221939 -8.90352e-06)
(0.00100398 -0.0217418 -8.76416e-06)
(0.000980504 -0.0212274 -8.55934e-06)
(0.000949336 -0.0206481 -8.28739e-06)
(0.000910427 -0.0200009 -7.94785e-06)
(0.000863856 -0.0192825 -7.54145e-06)
(0.000809903 -0.0184897 -7.0706e-06)
(0.000749009 -0.0176191 -6.53914e-06)
(0.000681852 -0.0166673 -5.95301e-06)
(0.000609289 -0.015631 -5.31969e-06)
(0.000532435 -0.0145077 -4.64889e-06)
(0.000452625 -0.0132954 -3.95227e-06)
(0.000371469 -0.0119921 -3.24385e-06)
(0.000290854 -0.0105931 -2.54015e-06)
(0.000213142 -0.00908716 -1.86172e-06)
(0.000141114 -0.00744757 -1.23289e-06)
(7.85557e-05 -0.00562658 -6.86615e-07)
(2.95752e-05 -0.0035568 -2.59039e-07)
(1.35616e-06 -0.001172 -1.66178e-08)
(3.60634e-07 -0.00259555 -3.12992e-09)
(3.52816e-06 -0.00480861 -3.07559e-08)
(8.56134e-06 -0.00666 -7.46697e-08)
(1.69063e-05 -0.00820596 -1.47473e-07)
(2.63114e-05 -0.0095428 -2.29575e-07)
(3.87419e-05 -0.0107281 -3.38102e-07)
(5.25499e-05 -0.0117977 -4.58635e-07)
(6.88129e-05 -0.0127753 -6.00543e-07)
(8.6815e-05 -0.0136777 -7.57684e-07)
(0.000107041 -0.0145166 -9.3417e-07)
(0.000128832 -0.015301 -1.12431e-06)
(0.000152929 -0.0160375 -1.33463e-06)
(0.000178361 -0.0167312 -1.55658e-06)
(0.000206046 -0.0173862 -1.79821e-06)
(0.00023517 -0.0180053 -2.05239e-06)
(0.000266256 -0.0185911 -2.32369e-06)
(0.000298866 -0.0191451 -2.60829e-06)
(0.000333167 -0.0196689 -2.90764e-06)
(0.000368933 -0.0201631 -3.21979e-06)
(0.000406161 -0.0206286 -3.5447e-06)
(0.000444701 -0.0210654 -3.88105e-06)
(0.000484447 -0.0214737 -4.22793e-06)
(0.00052521 -0.0218533 -4.58369e-06)
(0.000566829 -0.0222038 -4.94692e-06)
(0.000609073 -0.0225245 -5.3156e-06)
(0.000651716 -0.0228147 -5.68777e-06)
(0.000694469 -0.0230735 -6.0609e-06)
(0.000737034 -0.0232998 -6.43238e-06)
(0.000779056 -0.0234925 -6.79915e-06)
(0.000820163 -0.0236502 -7.15794e-06)
(0.000859932 -0.0237716 -7.50503e-06)
(0.000897913 -0.023855 -7.83652e-06)
(0.000933618 -0.0238988 -8.14817e-06)
(0.000966531 -0.0239014 -8.43545e-06)
(0.000996108 -0.023861 -8.69363e-06)
(0.00102178 -0.0237757 -8.91776e-06)
(0.00104298 -0.0236436 -9.10283e-06)
(0.00105912 -0.0234627 -9.24371e-06)
(0.00106962 -0.023231 -9.33551e-06)
(0.00107392 -0.0229464 -9.3744e-06)
(0.00107152 -0.0226068 -9.35353e-06)
(0.00106193 -0.0222098 -9.26997e-06)
(0.00104479 -0.0217531 -9.12041e-06)
(0.00101977 -0.0212342 -8.90214e-06)
(0.000986714 -0.0206505 -8.61369e-06)
(0.000945554 -0.019999 -8.25451e-06)
(0.000896413 -0.0192766 -7.82568e-06)
(0.000839578 -0.0184801 -7.32968e-06)
(0.000775551 -0.0176061 -6.77088e-06)