/*--------------------------------*- C++ -*----------------------------------*\
| =========                 |                                                 |
| \\      /  F ield         | OpenFOAM: The Open Source CFD Toolbox           |
|  \\    /   O peration     | Version:  v2012                                 |
|   \\  /    A nd           | Website:  www.openfoam.com                      |
|    \\/     M anipulation  |                                                 |
\*---------------------------------------------------------------------------*/
FoamFile
{
    version     2.0;
    format      ascii;
    class       volScalarField;
    location    "0.9";
    object      alpha.water;
}
// * * * * * * * * * * * * * * * * * * * * * * * * * * * * * * * * * * * * * //

dimensions      [0 0 0 0 0 0 0];


internalField   nonuniform List<scalar> 
2619
(
-1.70329e-31
-3.57966e-73
-2.35937e-32
-1.37125e-66
1.13509e-20
7.79538e-19
1.8017e-18
3.09707e-18
3.21214e-18
3.16163e-18
3.06767e-18
2.94078e-18
2.83935e-18
2.78851e-18
2.73162e-18
2.66191e-18
-6.9781e-33
-3.42756e-32
-1.58255e-31
3.37365e-19
1.76536e-18
3.80524e-18
3.77558e-18
3.75541e-18
3.31616e-18
3.37285e-18
3.44881e-18
3.49218e-18
3.49085e-18
3.42968e-18
3.34431e-18
3.25872e-18
3.15688e-18
3.04202e-18
0
5.39976e-19
2.6157e-18
4.5214e-18
4.48651e-18
3.80522e-18
4.05954e-18
4.37977e-18
4.34497e-18
4.23959e-18
4.20715e-18
4.16432e-18
4.10226e-18
4.04361e-18
3.95843e-18
3.83625e-18
3.68992e-18
3.52326e-18
3.34145e-18
3.46724e-18
5.18158e-18
5.32538e-18
4.85097e-18
5.25062e-18
5.14979e-18
5.62446e-18
5.37922e-18
5.40286e-18
5.42704e-18
5.38919e-18
5.31755e-18
5.21275e-18
5.06242e-18
4.88654e-18
4.69779e-18
4.49287e-18
4.26882e-18
4.0241e-18
5.96424e-18
5.59731e-18
5.92957e-18
6.07645e-18
6.13538e-18
6.51695e-18
6.59159e-18
6.56621e-18
6.58767e-18
6.58096e-18
6.54982e-18
6.45951e-18
6.31155e-18
6.12315e-18
5.90052e-18
5.65087e-18
5.38321e-18
5.10081e-18
4.80275e-18
6.36072e-18
6.20196e-18
5.92958e-18
6.5014e-18
6.70454e-18
7.46749e-18
7.08268e-18
7.31505e-18
7.39545e-18
7.47408e-18
7.4986e-18
7.45233e-18
7.34497e-18
7.19155e-18
6.97943e-18
6.70773e-18
6.38949e-18
6.04116e-18
5.67378e-18
6.20125e-18
6.20125e-18
6.75478e-18
7.33687e-18
7.66787e-18
7.70606e-18
8.00863e-18
8.08083e-18
8.28431e-18
8.41293e-18
8.45337e-18
8.41715e-18
8.35594e-18
8.25501e-18
8.08638e-18
7.83851e-18
7.51093e-18
7.1161e-18
6.67615e-18
1.11382e-17
1.26601e-17
1.34899e-17
1.33714e-17
1.37356e-17
1.30971e-17
1.2831e-17
1.25272e-17
1.21177e-17
1.16477e-17
1.09874e-17
1.04523e-17
1.00594e-17
9.69404e-18
9.38385e-18
9.08692e-18
8.74392e-18
8.32136e-18
7.82411e-18
1.61072e-17
1.63929e-17
1.67281e-17
1.68077e-17
1.70264e-17
1.68306e-17
1.6565e-17
1.63665e-17
1.60695e-17
1.55e-17
1.46146e-17
1.41107e-17
1.3351e-17
1.24657e-17
1.15956e-17
1.08649e-17
1.02745e-17
9.72566e-18
9.14526e-18
1.65707e-17
1.68909e-17
1.72664e-17
1.74678e-17
1.76653e-17
1.76185e-17
1.75809e-17
1.76004e-17
1.75235e-17
1.71808e-17
1.75622e-17
1.75972e-17
1.68089e-17
1.58908e-17
1.49115e-17
1.38016e-17
1.26203e-17
1.16367e-17
1.07835e-17
1.65707e-17
1.65707e-17
1.65707e-17
1.65707e-17
1.65707e-17
1.65707e-17
1.65707e-17
1.65707e-17
1.65707e-17
1.65707e-17
1.89758e-17
1.90358e-17
1.86253e-17
1.8295e-17
1.80124e-17
1.72603e-17
1.58797e-17
1.44378e-17
1.30557e-17
1.78181e-17
1.91675e-17
2.00834e-17
2.12209e-17
1.99495e-17
2.05124e-17
1.98566e-17
1.9181e-17
1.93455e-17
2.3952e-17
1.86228e-17
1.86228e-17
1.86228e-17
1.93031e-17
1.99342e-17
1.95556e-17
1.91511e-17
1.77467e-17
1.60668e-17
1.4382e-17
1.28203e-17
1.14176e-17
1.00961e-17
4.48543e-17
4.50024e-17
4.5489e-17
4.53233e-17
4.5525e-17
4.41223e-17
4.34994e-17
4.27694e-17
4.12459e-17
3.24141e-17
2.82308e-17
2.96391e-17
2.94496e-17
2.39469e-17
2.09637e-17
1.98475e-17
2.11887e-17
2.03713e-17
1.9251e-17
1.74483e-17
1.54873e-17
1.36005e-17
1.18982e-17
4.6384e-17
4.66367e-17
4.7356e-17
4.75403e-17
4.81289e-17
4.75137e-17
4.80243e-17
4.78945e-17
4.67787e-17
3.27949e-17
4.33595e-17
4.19632e-17
3.50332e-17
3.6126e-17
3.36503e-17
2.83481e-17
2.11887e-17
2.18305e-17
2.17274e-17
2.03926e-17
1.84815e-17
1.62923e-17
1.41085e-17
4.65156e-17
4.67799e-17
4.75198e-17
4.77595e-17
4.83641e-17
4.78896e-17
4.85209e-17
4.84577e-17
4.73062e-17
4.952e-17
5.15677e-17
4.42186e-17
3.50316e-17
4.03245e-17
3.86404e-17
3.97828e-17
3.55707e-17
2.75225e-17
2.30521e-17
2.27487e-17
2.12933e-17
1.91677e-17
1.67279e-17
4.65156e-17
4.65156e-17
4.65156e-17
4.65157e-17
4.65157e-17
4.65157e-17
4.65197e-17
4.65199e-17
4.65197e-17
6.38901e-17
5.30201e-17
4.35868e-17
5.19669e-17
3.86387e-17
3.86387e-17
4.26246e-17
4.5236e-17
4.00948e-17
3.30334e-17
2.59167e-17
2.38561e-17
2.18826e-17
1.94563e-17
9.90915e-17
1.0063e-16
1.0068e-16
9.92205e-17
9.81301e-17
4.95873e-17
4.65197e-17
4.65197e-17
4.65197e-17
6.54858e-17
5.23128e-17
7.15497e-17
7.26465e-17
6.04822e-17
5.30629e-17
4.26247e-17
4.72239e-17
4.59089e-17
4.45619e-17
3.73189e-17
2.87244e-17
2.48754e-17
2.21412e-17
1.3311e-16
1.3361e-16
1.33571e-16
1.33285e-16
1.31785e-16
1.49996e-16
1.48673e-16
1.44718e-16
1.18094e-16
5.39575e-17
5.3955e-17
7.87858e-17
7.42654e-17
8.36569e-17
8.16702e-17
6.16336e-17
4.72234e-17
4.78755e-17
4.78071e-17
4.67635e-17
3.93545e-17
3.09153e-17
2.55697e-17
1.33143e-16
1.33642e-16
1.3361e-16
1.33338e-16
1.31828e-16
1.52228e-16
1.55403e-16
1.54378e-16
1.4912e-16
1.54364e-16
1.68484e-16
7.4186e-17
7.4186e-17
8.58575e-17
8.31442e-17
9.11188e-17
7.70978e-17
4.8996e-17
4.76289e-17
4.92124e-17
4.77788e-17
4.02162e-17
3.16927e-17
1.31828e-16
1.31828e-16
1.31828e-16
1.31828e-16
1.31827e-16
1.52454e-16
1.55403e-16
1.54433e-16
1.50555e-16
1.78411e-16
1.73241e-16
1.64178e-16
1.48094e-16
8.30813e-17
8.30813e-17
9.12355e-17
1.05917e-16
9.94074e-17
5.91513e-17
4.92117e-17
5.00442e-17
4.6466e-17
3.98152e-17
2.2947e-16
2.31746e-16
2.31349e-16
2.28861e-16
2.24195e-16
1.50806e-16
1.50806e-16
1.50806e-16
1.50806e-16
1.78576e-16
1.65726e-16
2.01355e-16
1.94675e-16
1.86417e-16
1.44938e-16
9.12342e-17
1.05917e-16
1.00847e-16
1.03879e-16
7.70329e-17
4.81574e-17
4.81593e-17
4.47865e-17
3.96663e-16
3.96173e-16
3.93959e-16
3.93959e-16
3.83316e-16
3.53968e-16
3.03061e-16
2.98722e-16
1.50806e-16
1.50806e-16
1.50806e-16
2.01645e-16
1.92927e-16
2.20399e-16
2.1509e-16
1.73127e-16
1.0031e-16
1.0031e-16
1.0668e-16
1.07334e-16
8.91163e-17
4.63036e-17
4.4135e-17
3.96663e-16
3.96181e-16
3.94184e-16
3.83427e-16
3.78112e-16
4.62994e-16
4.63002e-16
4.4202e-16
4.67483e-16
4.31006e-16
3.00575e-16
1.92917e-16
1.92917e-16
2.20749e-16
2.10785e-16
2.27184e-16
2.22667e-16
1.00489e-16
1.00495e-16
1.08933e-16
1.08865e-16
9.69643e-17
5.19427e-17
3.78112e-16
3.78112e-16
3.78112e-16
3.78112e-16
3.78112e-16
4.63002e-16
4.63002e-16
4.42037e-16
5.21753e-16
5.21753e-16
5.12638e-16
4.6587e-16
2.27524e-16
2.10739e-16
2.10739e-16
2.21071e-16
2.65669e-16
2.66021e-16
1.21462e-16
1.08928e-16
1.10338e-16
1.06459e-16
9.08302e-17
5.60069e-16
5.61469e-16
5.53448e-16
5.51958e-16
5.69057e-16
4.42037e-16
4.42037e-16
4.42037e-16
5.21772e-16
5.21652e-16
4.89395e-16
5.76752e-16
5.76752e-16
4.13995e-16
2.10739e-16
2.10739e-16
2.37529e-16
2.71381e-16
2.72635e-16
1.49784e-16
1.06633e-16
1.06636e-16
1.01195e-16
1.34533e-15
1.34451e-15
1.34019e-15
1.34019e-15
1.32141e-15
1.07945e-15
6.09422e-16
8.00466e-16
4.8986e-16
4.8986e-16
4.89861e-16
5.76791e-16
5.58581e-16
6.45855e-16
6.42795e-16
2.32682e-16
2.32688e-16
2.6356e-16
2.74783e-16
2.72559e-16
1.49538e-16
1.00939e-16
1.00939e-16
1.34533e-15
1.34404e-15
1.34156e-15
1.26318e-15
1.24567e-15
1.59301e-15
1.59301e-15
1.58303e-15
1.47112e-15
6.73008e-16
4.8986e-16
4.8986e-16
4.97549e-16
6.23178e-16
7.33239e-16
7.33239e-16
4.72282e-16
2.63547e-16
2.74781e-16
2.74781e-16
2.6337e-16
1.45076e-16
9.05182e-17
1.24567e-15
1.24567e-15
1.24567e-15
1.24567e-15
1.24567e-15
1.59301e-15
1.56792e-15
1.47062e-15
1.7944e-15
1.77477e-15
1.79731e-15
8.40263e-16
4.97554e-16
5.17531e-16
7.23309e-16
7.33239e-16
7.33239e-16
3.59961e-16
2.56394e-16
2.56394e-16
2.61441e-16
2.51212e-16
1.26104e-16
2.31485e-15
2.29527e-15
2.25249e-15
2.06221e-15
2.11224e-15
1.47062e-15
1.47062e-15
1.47062e-15
1.7944e-15
1.73259e-15
1.91808e-15
2.03059e-15
1.08981e-15
5.17543e-16
5.96657e-16
7.33239e-16
7.22974e-16
8.01489e-16
5.85553e-16
2.52322e-16
2.5232e-16
2.51938e-16
2.40145e-16
4.94893e-15
4.95698e-15
4.95698e-15
4.95698e-15
4.95698e-15
4.53997e-15
1.47062e-15
2.75365e-15
1.73259e-15
1.73259e-15
1.73259e-15
2.0234e-15
2.59529e-15
2.16734e-15
5.96657e-16
6.87803e-16
6.87803e-16
8.03987e-16
8.03987e-16
3.72041e-16
2.48987e-16
2.48985e-16
2.49834e-16
4.94893e-15
4.95698e-15
4.95698e-15
4.75663e-15
4.61839e-15
6.00283e-15
6.00283e-15
6.00283e-15
5.21528e-15
1.73259e-15
1.73259e-15
1.97474e-15
2.59529e-15
2.59529e-15
2.0953e-15
6.87803e-16
6.88786e-16
8.04058e-16
7.56913e-16
7.97803e-16
4.83205e-16
1.49653e-16
1.98992e-16
4.61839e-15
4.61839e-15
4.61839e-15
4.61839e-15
4.61839e-15
6.00247e-15
5.9522e-15
5.51863e-15
6.85571e-15
6.85571e-15
4.82538e-15
1.97474e-15
2.59529e-15
2.5249e-15
3.16475e-15
3.07837e-15
6.88786e-16
7.29207e-16
7.29207e-16
8.05345e-16
8.01416e-16
1.49619e-16
1.41969e-16
1.0801e-14
1.05203e-14
9.44023e-15
9.53794e-15
5.22241e-15
5.22252e-15
5.51867e-15
5.51863e-15
6.85571e-15
6.32342e-15
7.64505e-15
7.26489e-15
2.50351e-15
2.50351e-15
3.16483e-15
3.1215e-15
3.13358e-15
7.29207e-16
7.29207e-16
8.06113e-16
7.91948e-16
7.361e-16
1.41963e-16
2.3784e-14
2.43521e-14
2.43521e-14
2.43521e-14
2.43521e-14
2.41894e-14
5.51863e-15
5.51863e-15
5.51863e-15
5.51863e-15
7.05438e-15
9.36109e-15
9.36123e-15
4.2397e-15
2.95802e-15
2.95802e-15
3.30318e-15
3.30332e-15
8.96023e-16
7.29943e-16
7.73682e-16
7.8047e-16
4.12057e-16
2.31337e-14
2.40449e-14
2.43521e-14
2.41362e-14
2.30751e-14
3.00591e-14
3.0059e-14
3.02018e-14
1.66831e-14
5.51863e-15
5.51863e-15
8.0748e-15
1.06907e-14
1.06587e-14
2.95802e-15
2.95802e-15
3.30332e-15
3.30332e-15
2.88201e-15
7.29943e-16
7.8178e-16
7.81781e-16
7.47707e-16
2.31337e-14
2.31337e-14
2.31337e-14
2.31337e-14
2.30751e-14
3.00591e-14
3.00591e-14
2.99305e-14
4.02055e-14
4.02055e-14
1.14908e-14
8.07429e-15
1.06907e-14
1.06587e-14
1.08231e-14
4.81065e-15
2.85167e-15
2.86436e-15
2.88307e-15
2.37103e-15
4.66172e-16
4.66174e-16
5.15774e-16
7.9378e-14
1.06056e-13
2.31344e-14
2.31337e-14
2.32209e-14
2.31337e-14
2.31337e-14
2.31337e-14
3.03098e-14
4.02055e-14
4.02055e-14
2.64987e-14
9.52384e-15
9.52384e-15
1.22604e-14
1.22604e-14
2.85167e-15
2.85167e-15
2.85402e-15
2.85402e-15
7.84477e-16
2.68012e-16
2.67996e-16
1.1884e-13
1.12825e-13
1.59528e-13
1.58284e-13
1.58284e-13
7.93864e-14
2.31337e-14
2.31337e-14
2.31337e-14
2.31337e-14
3.81429e-14
4.80636e-14
3.99736e-14
9.52384e-15
1.22604e-14
1.22558e-14
1.24667e-14
2.96989e-15
1.43377e-15
1.43377e-15
2.04735e-15
9.98129e-16
2.377e-16
1.12824e-13
1.12825e-13
1.59528e-13
1.59528e-13
1.52565e-13
1.81249e-13
2.17883e-13
2.08007e-13
2.31337e-14
2.31337e-14
2.66948e-14
4.80636e-14
4.80636e-14
4.5694e-14
1.00859e-14
1.00859e-14
1.33953e-14
9.6712e-15
1.43377e-15
2.58381e-15
2.0621e-15
3.45422e-16
3.48805e-16
3.41094e-13
1.12824e-13
1.13219e-13
1.13219e-13
1.13219e-13
1.81249e-13
2.17883e-13
2.17883e-13
2.17883e-13
1.88239e-13
2.66948e-14
2.66948e-14
4.80636e-14
4.80636e-14
1.00859e-14
2.26976e-14
1.33954e-14
4.5712e-15
5.28231e-15
3.49074e-15
6.89488e-16
7.62447e-16
7.51629e-16
7.46938e-13
1.12824e-13
1.12824e-13
3.17603e-13
1.55357e-13
1.55357e-13
1.68747e-13
2.17883e-13
2.17883e-13
2.17219e-13
2.21941e-13
9.33494e-14
4.05152e-14
4.05152e-14
7.03394e-14
3.71107e-14
7.8501e-15
8.38185e-15
6.95557e-15
1.17813e-15
1.24047e-15
1.2352e-15
3.40494e-16
1.12824e-13
1.12824e-13
1.41311e-12
1.51198e-12
1.51198e-12
1.55357e-13
1.60999e-13
1.60999e-13
2.01541e-13
1.97086e-13
2.70667e-13
2.13447e-13
4.05152e-14
8.30193e-14
7.19885e-14
1.75036e-14
1.7704e-14
9.85069e-15
2.46975e-15
2.78243e-15
2.43001e-15
3.0712e-16
3.55494e-16
3.0594e-12
3.73857e-12
3.38223e-12
1.51067e-12
1.51067e-12
1.90451e-12
2.01482e-12
9.97152e-13
2.01511e-13
2.8922e-13
2.70664e-13
1.78135e-13
2.65431e-13
1.51614e-13
3.29282e-14
3.64458e-14
2.70691e-14
4.29581e-15
4.60711e-15
4.60711e-15
7.33238e-16
3.0712e-16
3.07332e-16
3.77215e-12
3.73857e-12
1.51067e-12
1.51067e-12
1.51067e-12
2.41165e-12
2.01482e-12
2.27172e-12
2.27173e-12
4.16037e-13
2.67064e-13
4.48484e-13
3.69387e-13
6.67804e-14
6.75633e-14
3.98e-14
9.5988e-15
1.03533e-14
8.78534e-15
1.15138e-15
1.18661e-15
1.18659e-15
1.22048e-16
1.51067e-12
1.51067e-12
1.51067e-12
1.51067e-12
7.05381e-12
2.41165e-12
1.9649e-12
2.27172e-12
2.22875e-12
4.16034e-13
1.33981e-12
7.40289e-13
1.59427e-13
1.86785e-13
1.12616e-13
1.747e-14
1.83953e-14
1.83953e-14
1.7071e-15
1.15138e-15
1.27639e-15
6.04669e-16
1.22048e-16
1.51067e-12
2.66576e-11
2.05415e-11
2.20412e-11
7.13875e-12
2.41131e-12
8.44577e-12
2.03847e-12
2.03847e-12
4.11377e-12
2.38195e-12
3.04611e-13
3.13962e-13
2.47705e-13
2.6831e-14
2.69263e-14
2.69263e-14
4.56529e-15
1.70709e-15
1.8855e-15
1.4054e-15
1.7701e-16
1.77016e-16
2.51859e-11
2.79148e-11
2.79148e-11
2.30892e-11
7.13875e-12
2.87479e-11
1.99323e-11
2.03847e-12
8.95854e-12
5.31836e-12
8.19324e-13
9.00964e-13
5.28137e-13
7.61305e-14
8.03858e-14
5.95671e-14
7.06653e-15
8.77971e-15
5.2475e-15
5.87178e-16
5.90099e-16
4.44475e-16
5.47118e-17
1.86474e-11
1.86474e-11
1.86474e-11
1.86474e-11
7.9721e-11
3.92058e-11
1.62487e-11
3.62366e-11
1.91973e-11
1.73852e-12
1.8352e-12
1.38775e-12
1.49702e-13
1.51325e-13
9.71804e-14
1.28526e-14
1.29919e-14
8.80898e-15
9.56819e-16
9.59524e-16
6.39079e-16
8.06511e-17
8.09406e-17
1.86474e-11
6.37427e-10
4.12357e-10
4.36777e-10
3.70913e-11
3.70913e-11
8.42141e-11
5.67438e-11
4.81928e-12
4.9355e-12
2.02942e-12
4.29689e-13
4.4386e-13
2.38313e-13
2.43547e-14
2.45784e-14
1.6234e-14
1.49035e-15
1.49404e-15
9.49546e-16
1.05018e-16
1.05198e-16
6.34764e-17
8.93407e-10
8.90462e-10
8.90462e-10
4.88331e-10
3.70913e-11
3.76239e-10
3.35977e-10
1.10918e-11
1.10918e-11
1.14093e-11
3.80618e-13
7.83997e-13
7.83997e-13
2.2884e-15
3.40139e-14
3.40139e-14
1.7366e-16
2.05519e-15
1.42771e-15
3.0825e-17
1.2501e-16
6.90206e-17
1.69355e-17
4.37372e-10
4.34179e-10
4.34179e-10
4.34179e-10
8.92806e-10
8.93546e-10
2.02883e-11
1.10918e-11
2.45729e-11
1.14093e-11
3.80618e-13
7.83997e-13
1.7328e-13
1.82779e-15
3.01086e-14
6.15543e-15
1.7366e-16
1.05823e-15
3.9147e-16
3.08236e-17
5.03885e-17
2.12172e-17
8.618e-18
3.80704e-08
1.20247e-08
2.0212e-08
5.72274e-09
1.45171e-11
1.45171e-11
2.02883e-11
3.42124e-11
2.45729e-11
3.80618e-13
3.80618e-13
3.93046e-13
2.96379e-14
1.8271e-15
1.82664e-15
2.53131e-15
1.7366e-16
1.852e-16
8.21819e-17
3.08226e-17
1.2698e-17
5.34138e-18
2.81252e-18
3.80704e-08
3.79509e-08
3.79509e-08
1.28306e-08
1.45171e-11
1.45171e-11
6.99131e-11
3.42124e-11
3.61029e-14
4.22934e-12
1.23442e-12
2.07802e-18
3.93812e-14
1.45981e-14
2.03451e-18
5.50149e-16
1.7446e-16
4.50974e-17
1.39775e-17
4.78876e-18
2.30274e-18
1.96194e-18
2.05776e-18
4.47636e-09
4.47636e-09
4.47636e-09
4.47636e-09
4.47638e-09
1.45174e-11
1.5858e-11
4.94121e-12
3.61029e-14
3.65095e-14
1.40442e-15
2.07803e-18
2.07099e-18
2.14342e-18
2.03452e-18
2.02249e-18
2.02251e-18
2.00523e-18
2.00522e-18
2.00523e-18
1.85801e-18
1.41813e-18
8.96171e-19
4.47636e-09
1.86263e-06
1.56517e-06
4.47636e-09
4.47636e-09
4.76536e-06
5.85765e-06
5.85765e-06
2.02727e-06
4.47636e-09
4.76536e-06
3.21739e-06
-1.87482e-29
-7.78168e-41
2.78606e-07
-1.28545e-24
-3.77658e-23
-8.51327e-25
-9.39674e-23
-6.45038e-07
2.93737e-05
-6.38168e-08
-2.87849e-09
-5.65999e-07
0.105993
1
0.411726
0.365472
0.940833
1
1
1
1
1
1
1
1
1
0.999959
1
0.950261
1
1
0.999868
0.999966
0.877114
1
1
1
1
0.877114
0.999478
0.996272
1
0.987521
0.920909
1
1
1
1
0.980058
0.999999
1
1
1
0.980058
0.980057
0.999977
0.84235
0.954022
0.999989
1
0.866432
0.835748
0.835748
0.9071
1
0.866432
0.92283
0.835748
0.9071
0.994888
0.866432
0.939354
0.835748
0.999973
0.941052
0.976951
0.916819
0.928215
1
0.999991
1
1
0.999976
1
1
1
1
1
1
1
1
1
1
1
1
1
1
1
1
1
1
1
1
-8.62813e-31
-1.86914e-84
-1.77493e-31
-1.26913e-32
-2.02152e-32
1.13384e-20
7.79527e-19
1.80167e-18
3.097e-18
3.21215e-18
3.16164e-18
3.06768e-18
2.94079e-18
2.83935e-18
2.78851e-18
2.73162e-18
2.66191e-18
0
0
-1.47452e-31
3.37366e-19
1.76535e-18
3.80524e-18
3.77558e-18
3.75543e-18
3.3162e-18
3.37285e-18
3.4488e-18
3.49218e-18
3.49086e-18
3.42968e-18
3.34431e-18
3.25872e-18
3.15687e-18
3.04202e-18
0
5.40009e-19
2.61569e-18
4.52139e-18
4.48651e-18
3.80522e-18
4.05952e-18
4.37976e-18
4.34497e-18
4.2396e-18
4.20715e-18
4.16432e-18
4.10226e-18
4.04361e-18
3.95844e-18
3.83625e-18
3.68992e-18
3.52326e-18
3.34145e-18
3.46752e-18
5.1816e-18
5.32538e-18
4.85095e-18
5.25062e-18
5.14979e-18
5.62445e-18
5.37919e-18
5.40284e-18
5.42703e-18
5.38919e-18
5.31755e-18
5.21274e-18
5.06241e-18
4.88654e-18
4.69779e-18
4.49287e-18
4.26882e-18
4.0241e-18
5.96417e-18
5.59729e-18
5.92957e-18
6.07647e-18
6.13538e-18
6.51696e-18
6.5916e-18
6.5662e-18
6.58765e-18
6.58096e-18
6.54982e-18
6.4595e-18
6.31153e-18
6.12314e-18
5.90052e-18
5.65087e-18
5.38321e-18
5.10081e-18
4.80275e-18
6.36072e-18
6.20187e-18
5.92957e-18
6.50149e-18
6.70454e-18
7.46751e-18
7.08274e-18
7.31508e-18
7.39545e-18
7.4741e-18
7.4986e-18
7.45233e-18
7.34497e-18
7.19155e-18
6.97943e-18
6.70773e-18
6.38949e-18
6.04116e-18
5.67378e-18
6.20125e-18
6.20125e-18
6.75478e-18
7.33678e-18
7.66789e-18
7.70607e-18
8.00864e-18
8.08097e-18
8.28447e-18
8.41299e-18
8.4534e-18
8.41722e-18
8.35601e-18
8.25503e-18
8.08638e-18
7.83851e-18
7.51093e-18
7.1161e-18
6.67616e-18
1.11384e-17
1.26601e-17
1.34898e-17
1.33713e-17
1.37355e-17
1.30969e-17
1.28307e-17
1.25268e-17
1.21175e-17
1.16475e-17
1.09874e-17
1.04523e-17
1.00595e-17
9.69409e-18
9.38388e-18
9.08693e-18
8.74392e-18
8.32135e-18
7.82411e-18
1.61072e-17
1.63929e-17
1.67281e-17
1.68077e-17
1.70263e-17
1.68305e-17
1.65649e-17
1.63662e-17
1.60692e-17
1.54997e-17
1.46144e-17
1.41103e-17
1.33508e-17
1.24656e-17
1.15956e-17
1.08649e-17
1.02745e-17
9.72565e-18
9.14525e-18
1.65707e-17
1.68909e-17
1.72664e-17
1.74678e-17
1.76653e-17
1.76185e-17
1.7581e-17
1.76004e-17
1.75235e-17
1.71807e-17
1.75621e-17
1.75969e-17
1.68082e-17
1.58906e-17
1.49114e-17
1.38015e-17
1.26204e-17
1.16368e-17
1.07835e-17
1.65707e-17
1.65707e-17
1.65707e-17
1.65707e-17
1.65707e-17
1.65707e-17
1.65707e-17
1.65707e-17
1.65707e-17
1.65707e-17
1.89759e-17
1.90358e-17
1.86251e-17
1.8295e-17
1.8012e-17
1.72599e-17
1.58796e-17
1.44378e-17
1.30557e-17
1.78181e-17
1.91675e-17
2.00832e-17
2.12198e-17
1.99493e-17
2.05117e-17
1.98559e-17
1.91804e-17
1.93461e-17
2.39544e-17
1.86228e-17
1.86228e-17
1.86228e-17
1.93037e-17
1.99338e-17
1.95555e-17
1.91508e-17
1.77466e-17
1.60667e-17
1.4382e-17
1.28204e-17
1.14176e-17
1.00961e-17
4.48543e-17
4.50024e-17
4.54891e-17
4.53236e-17
4.55251e-17
4.41221e-17
4.3499e-17
4.27687e-17
4.12445e-17
3.2411e-17
2.82294e-17
2.96392e-17
2.94509e-17
2.39474e-17
2.09658e-17
1.98484e-17
2.11887e-17
2.03712e-17
1.92508e-17
1.74482e-17
1.54873e-17
1.36005e-17
1.18982e-17
4.6384e-17
4.66367e-17
4.73561e-17
4.75409e-17
4.81289e-17
4.75141e-17
4.80247e-17
4.78948e-17
4.67782e-17
3.27881e-17
4.33583e-17
4.1961e-17
3.50311e-17
3.61246e-17
3.36498e-17
2.83479e-17
2.11887e-17
2.18309e-17
2.17274e-17
2.03925e-17
1.84814e-17
1.62923e-17
1.41085e-17
4.65156e-17
4.67799e-17
4.75199e-17
4.77602e-17
4.83641e-17
4.789e-17
4.85215e-17
4.84582e-17
4.73056e-17
4.95305e-17
5.157e-17
4.4217e-17
3.50313e-17
4.03231e-17
3.86387e-17
3.97816e-17
3.55707e-17
2.75242e-17
2.30532e-17
2.27489e-17
2.12932e-17
1.91675e-17
1.67279e-17
4.65156e-17
4.65156e-17
4.65156e-17
4.65156e-17
4.65157e-17
4.65157e-17
4.65197e-17
4.65199e-17
4.65197e-17
6.38916e-17
5.30228e-17
4.35868e-17
5.19704e-17
3.86387e-17
3.86387e-17
4.26239e-17
4.52351e-17
4.00946e-17
3.30328e-17
2.59174e-17
2.38565e-17
2.18826e-17
1.94562e-17
9.90916e-17
1.0063e-16
1.0068e-16
9.92201e-17
9.81295e-17
4.95825e-17
4.65197e-17
4.65197e-17
4.65197e-17
6.54861e-17
5.23128e-17
7.15574e-17
7.26469e-17
6.0487e-17
5.30655e-17
4.26242e-17
4.72234e-17
4.58995e-17
4.45602e-17
3.73187e-17
2.8725e-17
2.48759e-17
2.21412e-17
1.33109e-16
1.3361e-16
1.3357e-16
1.33285e-16
1.31785e-16
1.49999e-16
1.48672e-16
1.44723e-16
1.17971e-16
5.39516e-17
5.39474e-17
7.87858e-17
7.42654e-17
8.36558e-17
8.16697e-17
6.16385e-17
4.72234e-17
4.78582e-17
4.7805e-17
4.67637e-17
3.93535e-17
3.09157e-17
2.55701e-17
1.33143e-16
1.33642e-16
1.3361e-16
1.33338e-16
1.31827e-16
1.52231e-16
1.55403e-16
1.54374e-16
1.49179e-16
1.54367e-16
1.68479e-16
7.4186e-17
7.4186e-17
8.58561e-17
8.31435e-17
9.11179e-17
7.70991e-17
4.90273e-17
4.76289e-17
4.92117e-17
4.77777e-17
4.02152e-17
3.16931e-17
1.31828e-16
1.31828e-16
1.31828e-16
1.31827e-16
1.31827e-16
1.52456e-16
1.55403e-16
1.54428e-16
1.50627e-16
1.78411e-16
1.73241e-16
1.64177e-16
1.48091e-16
8.30813e-17
8.30813e-17
9.12329e-17
1.05917e-16
9.94059e-17
5.91542e-17
4.92117e-17
5.00436e-17
4.64641e-17
3.98145e-17
2.2947e-16
2.31746e-16
2.31348e-16
2.28862e-16
2.24195e-16
1.50806e-16
1.50806e-16
1.50806e-16
1.50877e-16
1.78576e-16
1.65727e-16
2.01355e-16
1.94676e-16
1.86417e-16
1.44936e-16
9.12332e-17
1.05916e-16
1.00845e-16
1.03879e-16
7.70364e-17
4.81574e-17
4.81593e-17
4.47832e-17
3.96663e-16
3.96173e-16
3.93959e-16
3.93959e-16
3.83316e-16
3.53965e-16
3.03067e-16
2.98708e-16
1.50806e-16
1.50806e-16
1.50806e-16
2.01645e-16
1.92927e-16
2.204e-16
2.15091e-16
1.73129e-16
1.0031e-16
1.0031e-16
1.0668e-16
1.07333e-16
8.91178e-17
4.63111e-17
4.41318e-17
3.96663e-16
3.96181e-16
3.94184e-16
3.83425e-16
3.78112e-16
4.62994e-16
4.63002e-16
4.42019e-16
4.67419e-16
4.30978e-16
3.00595e-16
1.92917e-16
1.92917e-16
2.20749e-16
2.10785e-16
2.27184e-16
2.22668e-16
1.00489e-16
1.00495e-16
1.08933e-16
1.08864e-16
9.69629e-17
5.19472e-17
3.78112e-16
3.78112e-16
3.78112e-16
3.78112e-16
3.78112e-16
4.63002e-16
4.63002e-16
4.42037e-16
5.21753e-16
5.21753e-16
5.12638e-16
4.65872e-16
2.27484e-16
2.10739e-16
2.10739e-16
2.21071e-16
2.65665e-16
2.6602e-16
1.21463e-16
1.08928e-16
1.10337e-16
1.06458e-16
9.08293e-17
5.60069e-16
5.61469e-16
5.53446e-16
5.51965e-16
5.69062e-16
4.42037e-16
4.42037e-16
4.42037e-16
5.21772e-16
5.21651e-16
4.89395e-16
5.76752e-16
5.76752e-16
4.13969e-16
2.10739e-16
2.10739e-16
2.37532e-16
2.7138e-16
2.72635e-16
1.49786e-16
1.06633e-16
1.06636e-16
1.01195e-16
1.34533e-15
1.34451e-15
1.34019e-15
1.34019e-15
1.32141e-15
1.07944e-15
6.09438e-16
8.00473e-16
4.8986e-16
4.8986e-16
4.8986e-16
5.76791e-16
5.58638e-16
6.45855e-16
6.42795e-16
2.32689e-16
2.32694e-16
2.6356e-16
2.74783e-16
2.72558e-16
1.49539e-16
1.00939e-16
1.00939e-16
1.34533e-15
1.34404e-15
1.34156e-15
1.26317e-15
1.24567e-15
1.59301e-15
1.59301e-15
1.58303e-15
1.47111e-15
6.73005e-16
4.8986e-16
4.8986e-16
4.97567e-16
6.23262e-16
7.33239e-16
7.33239e-16
4.7228e-16
2.63547e-16
2.7478e-16
2.74781e-16
2.63369e-16
1.45072e-16
9.05183e-17
1.24567e-15
1.24567e-15
1.24567e-15
1.24567e-15
1.24567e-15
1.59301e-15
1.5679e-15
1.47062e-15
1.7944e-15
1.77476e-15
1.7973e-15
8.40261e-16
4.97562e-16
5.17532e-16
7.23225e-16
7.33239e-16
7.33239e-16
3.59959e-16
2.56394e-16
2.56394e-16
2.61441e-16
2.5121e-16
1.26102e-16
2.31485e-15
2.29527e-15
2.25249e-15
2.06221e-15
2.11224e-15
1.47062e-15
1.47062e-15
1.47062e-15
1.7944e-15
1.73259e-15
1.91806e-15
2.03059e-15
1.08974e-15
5.17544e-16
5.96657e-16
7.33239e-16
7.22975e-16
8.01489e-16
5.8556e-16
2.52322e-16
2.52321e-16
2.51936e-16
2.40143e-16
4.94893e-15
4.95698e-15
4.95698e-15
4.95698e-15
4.95698e-15
4.53998e-15
1.47062e-15
2.75367e-15
1.73259e-15
1.73259e-15
1.73259e-15
2.02339e-15
2.59529e-15
2.16737e-15
5.96657e-16
6.87804e-16
6.87803e-16
8.03987e-16
8.03987e-16
3.72039e-16
2.48988e-16
2.48986e-16
2.49834e-16
4.94893e-15
4.95698e-15
4.95698e-15
4.75662e-15
4.61839e-15
6.00283e-15
6.00283e-15
6.00283e-15
5.21527e-15
1.73259e-15
1.73259e-15
1.97474e-15
2.59529e-15
2.59529e-15
2.09531e-15
6.87803e-16
6.88786e-16
8.04058e-16
7.56915e-16
7.978e-16
4.8318e-16
1.49667e-16
1.98989e-16
4.61839e-15
4.61839e-15
4.61839e-15
4.61839e-15
4.61839e-15
6.00247e-15
5.95218e-15
5.51863e-15
6.85571e-15
6.85571e-15
4.82543e-15
1.97474e-15
2.59529e-15
2.5249e-15
3.16475e-15
3.07838e-15
6.88786e-16
7.29207e-16
7.29207e-16
8.05345e-16
8.01414e-16
1.49633e-16
1.41968e-16
1.0801e-14
1.05203e-14
9.44022e-15
9.53794e-15
5.22243e-15
5.22254e-15
5.51867e-15
5.51863e-15
6.85571e-15
6.32338e-15
7.64505e-15
7.26491e-15
2.50351e-15
2.50351e-15
3.16483e-15
3.1215e-15
3.13359e-15
7.29207e-16
7.29207e-16
8.06113e-16
7.91948e-16
7.36101e-16
1.41962e-16
2.3784e-14
2.43521e-14
2.43521e-14
2.43521e-14
2.43521e-14
2.41883e-14
5.51863e-15
5.51863e-15
5.51863e-15
5.51863e-15
7.05432e-15
9.36109e-15
9.36124e-15
4.23968e-15
2.95802e-15
2.95802e-15
3.30318e-15
3.30332e-15
8.96047e-16
7.29943e-16
7.73683e-16
7.8047e-16
4.12061e-16
2.31337e-14
2.40449e-14
2.43521e-14
2.41361e-14
2.30751e-14
3.00591e-14
3.0059e-14
3.02018e-14
1.66829e-14
5.51863e-15
5.51863e-15
8.0748e-15
1.06907e-14
1.06587e-14
2.95802e-15
2.95802e-15
3.30332e-15
3.30332e-15
2.88201e-15
7.29943e-16
7.8178e-16
7.81781e-16
7.47704e-16
2.31337e-14
2.31337e-14
2.31337e-14
2.31337e-14
2.30751e-14
3.00591e-14
3.00591e-14
2.99307e-14
4.02055e-14
4.02055e-14
1.14916e-14
8.07429e-15
1.06907e-14
1.06587e-14
1.08231e-14
4.81067e-15
2.85167e-15
2.86436e-15
2.88307e-15
2.37104e-15
4.66171e-16
4.66171e-16
5.15766e-16
7.93781e-14
1.06055e-13
2.31344e-14
2.31337e-14
2.32209e-14
2.31337e-14
2.31337e-14
2.31337e-14
3.03109e-14
4.02055e-14
4.02055e-14
2.6499e-14
9.52384e-15
9.52384e-15
1.22604e-14
1.22604e-14
2.85167e-15
2.85167e-15
2.85402e-15
2.85402e-15
7.84489e-16
2.68012e-16
2.67996e-16
1.1884e-13
1.12824e-13
1.59528e-13
1.58284e-13
1.58284e-13
7.93864e-14
2.31337e-14
2.31337e-14
2.31337e-14
2.31337e-14
3.81422e-14
4.80636e-14
3.99738e-14
9.52384e-15
1.22604e-14
1.22558e-14
1.24667e-14
2.96985e-15
1.43377e-15
1.43377e-15
2.04735e-15
9.98134e-16
2.377e-16
1.12824e-13
1.12824e-13
1.59528e-13
1.59528e-13
1.52564e-13
1.81248e-13
2.17883e-13
2.08005e-13
2.31337e-14
2.31337e-14
2.66948e-14
4.80636e-14
4.80636e-14
4.56942e-14
1.00859e-14
1.00859e-14
1.33952e-14
9.67122e-15
1.43377e-15
2.58378e-15
2.06209e-15
3.45422e-16
3.48803e-16
3.41094e-13
1.12824e-13
1.13219e-13
1.13219e-13
1.13219e-13
1.81248e-13
2.17883e-13
2.17883e-13
2.17883e-13
1.88238e-13
2.66948e-14
2.66948e-14
4.80636e-14
4.80636e-14
1.00859e-14
2.26976e-14
1.33953e-14
4.5712e-15
5.28233e-15
3.49075e-15
6.89488e-16
7.62448e-16
7.5163e-16
7.46938e-13
1.12824e-13
1.12824e-13
3.17605e-13
1.55359e-13
1.55357e-13
1.68749e-13
2.17883e-13
2.17883e-13
2.17219e-13
2.21941e-13
9.33476e-14
4.05152e-14
4.05152e-14
7.03395e-14
3.71107e-14
7.8501e-15
8.38185e-15
6.95558e-15
1.17813e-15
1.24047e-15
1.2352e-15
3.40494e-16
1.12824e-13
1.12824e-13
1.41311e-12
1.51198e-12
1.51198e-12
1.55357e-13
1.61e-13
1.60999e-13
2.01541e-13
1.97086e-13
2.70667e-13
2.13447e-13
4.05152e-14
8.30193e-14
7.19886e-14
1.75036e-14
1.7704e-14
9.85068e-15
2.46975e-15
2.78243e-15
2.43e-15
3.0712e-16
3.55494e-16
3.05941e-12
3.73857e-12
3.38223e-12
1.51067e-12
1.51067e-12
1.90453e-12
2.01482e-12
9.97139e-13
2.01511e-13
2.89223e-13
2.70667e-13
1.78135e-13
2.65431e-13
1.51614e-13
3.29282e-14
3.64457e-14
2.7069e-14
4.29581e-15
4.60711e-15
4.60711e-15
7.33249e-16
3.0712e-16
3.07332e-16
3.77215e-12
3.73857e-12
1.51067e-12
1.51067e-12
1.51067e-12
2.41164e-12
2.01482e-12
2.27173e-12
2.27173e-12
4.16034e-13
2.67064e-13
4.48484e-13
3.69388e-13
6.67804e-14
6.75633e-14
3.97998e-14
9.5988e-15
1.03533e-14
8.7854e-15
1.15138e-15
1.18661e-15
1.18659e-15
1.22048e-16
1.51067e-12
1.51067e-12
1.51067e-12
1.51067e-12
7.05395e-12
2.41164e-12
1.9649e-12
2.27173e-12
2.22876e-12
4.16034e-13
1.33981e-12
7.40288e-13
1.59427e-13
1.86786e-13
1.12616e-13
1.747e-14
1.83953e-14
1.83953e-14
1.7071e-15
1.15138e-15
1.27638e-15
6.0468e-16
1.22048e-16
1.51067e-12
2.66576e-11
2.05415e-11
2.20412e-11
7.13878e-12
2.41131e-12
8.44577e-12
2.03847e-12
2.03847e-12
4.11377e-12
2.38195e-12
3.04611e-13
3.13964e-13
2.47706e-13
2.6831e-14
2.69263e-14
2.69263e-14
4.56529e-15
1.70709e-15
1.8855e-15
1.4054e-15
1.7701e-16
1.77016e-16
2.5186e-11
2.79148e-11
2.79148e-11
2.3089e-11
7.13875e-12
2.87479e-11
1.99323e-11
2.03847e-12
8.95855e-12
5.31836e-12
8.19324e-13
9.00965e-13
5.28138e-13
7.61305e-14
8.03857e-14
5.9567e-14
7.06653e-15
8.77973e-15
5.24752e-15
5.87178e-16
5.90099e-16
4.44477e-16
5.47116e-17
1.86474e-11
1.86474e-11
1.86474e-11
1.86474e-11
7.9721e-11
3.92058e-11
1.62487e-11
3.62366e-11
1.91973e-11
1.73852e-12
1.8352e-12
1.38775e-12
1.49702e-13
1.51325e-13
9.71804e-14
1.28526e-14
1.29919e-14
8.809e-15
9.56819e-16
9.59524e-16
6.39078e-16
8.06511e-17
8.09406e-17
1.86474e-11
6.37427e-10
4.12357e-10
4.36777e-10
3.70913e-11
3.70913e-11
8.42144e-11
5.67438e-11
4.81928e-12
4.9355e-12
2.02945e-12
4.29689e-13
4.4386e-13
2.38313e-13
2.43547e-14
2.45784e-14
1.6234e-14
1.49035e-15
1.49404e-15
9.49543e-16
1.05018e-16
1.05198e-16
6.34762e-17
8.93407e-10
8.90462e-10
8.90462e-10
4.88331e-10
3.70913e-11
3.76239e-10
3.35976e-10
1.10918e-11
1.10918e-11
1.14093e-11
3.80618e-13
7.83997e-13
7.83997e-13
2.2884e-15
3.40139e-14
3.40139e-14
1.7366e-16
2.05519e-15
1.42771e-15
3.08249e-17
1.2501e-16
6.90203e-17
1.69355e-17
4.37372e-10
4.34179e-10
4.34179e-10
4.34179e-10
8.92806e-10
8.93546e-10
2.02883e-11
1.10918e-11
2.45728e-11
1.14092e-11
3.80618e-13
7.83997e-13
1.7328e-13
1.82779e-15
3.01086e-14
6.15544e-15
1.7366e-16
1.05823e-15
3.9147e-16
3.08235e-17
5.03883e-17
2.12171e-17
8.61802e-18
3.80704e-08
1.20247e-08
2.0212e-08
5.72274e-09
1.45171e-11
1.45171e-11
2.02883e-11
3.42124e-11
2.45728e-11
3.80618e-13
3.80618e-13
3.93046e-13
2.96386e-14
1.8271e-15
1.82664e-15
2.53131e-15
1.7366e-16
1.852e-16
8.21819e-17
3.08225e-17
1.2698e-17
5.34139e-18
2.81252e-18
3.80704e-08
3.79509e-08
3.79509e-08
1.28306e-08
1.45171e-11
1.45171e-11
6.99131e-11
3.42124e-11
3.61029e-14
4.22931e-12
1.23442e-12
2.07802e-18
3.93811e-14
1.45981e-14
2.03451e-18
5.50149e-16
1.7446e-16
4.50973e-17
1.39775e-17
4.78876e-18
2.30272e-18
1.96192e-18
2.05775e-18
4.47636e-09
4.47636e-09
4.47636e-09
4.47636e-09
4.47636e-09
1.45171e-11
1.5858e-11
4.94119e-12
3.61029e-14
3.65097e-14
1.40445e-15
2.07802e-18
2.07099e-18
2.14341e-18
2.03451e-18
2.02249e-18
2.0225e-18
2.00522e-18
2.00521e-18
2.00521e-18
1.85793e-18