/*--------------------------------*- C++ -*----------------------------------*\
| =========                 |                                                 |
| \\      /  F ield         | OpenFOAM: The Open Source CFD Toolbox           |
|  \\    /   O peration     | Version:  v2012                                 |
|   \\  /    A nd           | Website:  www.openfoam.com                      |
|    \\/     M anipulation  |                                                 |
\*---------------------------------------------------------------------------*/
FoamFile
{
    version     2.0;
    format      ascii;
    class       surfaceScalarField;
    location    "0.9";
    object      phi;
}
// * * * * * * * * * * * * * * * * * * * * * * * * * * * * * * * * * * * * * //

dimensions      [0 3 -1 0 0 0 0];
oriented        oriented;


internalField   nonuniform List<scalar> 
6347
(
1.65564e-13
-4.02466e-12
-2.39908e-18
3.79569e-13
-6.96455e-12
8.808e-19
6.88053e-13
-1.01292e-11
-5.19159e-18
1.09653e-12
-1.35319e-11
7.72927e-18
1.61003e-12
-1.71813e-11
-3.05547e-17
2.23429e-12
-2.10869e-11
-8.43153e-18
2.97411e-12
-2.52563e-11
-9.12658e-18
3.83369e-12
-2.96916e-11
-1.67791e-17
4.8171e-12
-3.44003e-11
-1.50786e-19
5.92667e-12
-3.93768e-11
-3.10634e-17
7.16405e-12
-4.46195e-11
-1.65176e-17
8.52928e-12
-5.01283e-11
-9.2342e-17
1.00239e-11
-5.58832e-11
5.76024e-17
1.16433e-11
-6.18811e-11
5.73492e-18
1.33814e-11
-6.80936e-11
2.20845e-17
-7.45007e-11
1.50894e-18
4.33646e-14
-1.34046e-12
-2.90896e-19
1.76365e-13
-4.15768e-12
4.51682e-20
4.04207e-13
-7.19242e-12
-7.88886e-18
7.32579e-13
-1.04575e-11
8.92514e-18
1.16699e-12
-1.39664e-11
-8.49309e-18
1.71319e-12
-1.77276e-11
2.7508e-18
2.37673e-12
-2.17505e-11
8.01517e-19
3.1627e-12
-2.60423e-11
2.40218e-17
4.07542e-12
-3.06044e-11
2.49639e-17
5.11857e-12
-3.54438e-11
1.75507e-17
6.2951e-12
-4.05535e-11
3.79312e-17
7.60614e-12
-4.59311e-11
2.6958e-17
9.05176e-12
-5.1575e-11
5.33216e-17
1.063e-11
-5.74638e-11
-7.74784e-17
1.23405e-11
-6.35912e-11
8.70501e-17
1.41743e-11
-6.99277e-11
7.70414e-18
1.61236e-11
-7.6451e-11
6.02561e-17
-8.31297e-11
-1.30069e-16
4.62412e-14
-1.3867e-12
2.45445e-19
1.88e-13
-4.29944e-12
-8.74572e-19
4.30743e-13
-7.43518e-12
-4.26068e-18
7.80396e-13
-1.08071e-11
2.39184e-18
1.24282e-12
-1.44289e-11
-9.57408e-19
1.82404e-12
-1.83088e-11
1.96511e-18
2.52972e-12
-2.24562e-11
2.04144e-18
3.36511e-12
-2.68776e-11
1.02266e-17
4.33462e-12
-3.15738e-11
1.33197e-17
5.44188e-12
-3.65511e-11
5.02443e-18
6.68981e-12
-4.18013e-11
3.0164e-17
8.07927e-12
-4.73206e-11
1.83661e-17
9.60987e-12
-5.31061e-11
6.09689e-17
1.12786e-11
-5.91344e-11
-4.00893e-17
1.30854e-11
-6.53968e-11
1.32132e-16
1.50199e-11
-7.18619e-11
-1.09815e-17
1.70736e-11
-7.85051e-11
2.32239e-17
1.92344e-11
-8.52925e-11
-1.52237e-16
-9.21842e-11
-8.73151e-17
4.9339e-14
-1.43604e-12
3.50046e-19
2.00527e-13
-4.45064e-12
-1.53954e-18
4.59321e-13
-7.69399e-12
-2.42661e-18
8.31934e-13
-1.11796e-11
5.11152e-18
1.32448e-12
-1.49215e-11
-4.55117e-18
1.94323e-12
-1.89276e-11
-5.85536e-19
2.69414e-12
-2.32071e-11
-6.38203e-21
3.58254e-12
-2.77659e-11
1.02158e-17
4.6129e-12
-3.26041e-11
7.48389e-18
5.78883e-12
-3.77271e-11
2.35047e-18
7.113e-12
-4.31253e-11
1.68231e-17
8.586e-12
-4.87936e-11
4.32434e-18
1.02071e-11
-5.47274e-11
4.6579e-17
1.19726e-11
-6.09013e-11
-5.10329e-17
1.38811e-11
-6.73043e-11
1.02471e-16
1.59216e-11
-7.39025e-11
-4.8029e-17
1.80851e-11
-8.06685e-11
6.66668e-18
2.03581e-11
-8.75657e-11
-1.0217e-16
-9.45514e-11
-4.61154e-17
5.26898e-14
-1.48873e-12
8.81732e-20
2.14064e-13
-4.61202e-12
-3.10578e-19
4.9015e-13
-7.9701e-12
-5.39046e-18
8.8746e-13
-1.15769e-11
2.3904e-18
1.41249e-12
-1.54466e-11
-7.42794e-18
2.07172e-12
-1.9587e-11
-4.06901e-18
2.87129e-12
-2.40067e-11
-1.38172e-18
3.81662e-12
-2.87112e-11
7.90727e-18
4.91227e-12
-3.36998e-11
2.02941e-18
6.16174e-12
-3.89767e-11
-5.46029e-18
7.56747e-12
-4.4531e-11
1.16665e-17
9.12969e-12
-5.03559e-11
1.72495e-18
1.08472e-11
-5.64451e-11
4.15141e-17
1.27155e-11
-6.27708e-11
-5.5414e-17
1.47319e-11
-6.93199e-11
9.75648e-17
1.68845e-11
-7.60553e-11
-6.36737e-17
1.91634e-11
-8.29468e-11
-1.32795e-17
2.15537e-11
-8.99549e-11
-1.01496e-16
-9.70339e-11
-2.61162e-17
5.63099e-14
-1.54504e-12
1.8865e-19
2.28682e-13
-4.7844e-12
-1.56506e-18
5.2346e-13
-8.26489e-12
-8.9103e-19
9.47418e-13
-1.20008e-11
1.10207e-18
1.50753e-12
-1.60066e-11
2.73796e-18
2.21056e-12
-2.02897e-11
1.45157e-17
3.06229e-12
-2.48586e-11
-1.39148e-17
4.06871e-12
-2.97178e-11
2.05886e-18
5.23453e-12
-3.48656e-11
9.55823e-18
6.56299e-12
-4.03052e-11
1.39052e-19
8.05605e-12
-4.60241e-11
7.46556e-18
9.71369e-12
-5.20135e-11
3.91668e-18
1.15339e-11
-5.82657e-11
4.1599e-17
1.35115e-11
-6.47496e-11
-5.31342e-17
1.56426e-11
-7.14501e-11
9.74846e-17
1.79139e-11
-7.83268e-11
-6.85268e-17
2.03144e-11
-8.53462e-11
-1.25317e-17
2.28273e-11
-9.24658e-11
-6.89656e-17
-9.96368e-11
3.21504e-19
6.02329e-14
-1.60527e-12
-1.27146e-19
2.44521e-13
-4.9687e-12
-3.27367e-19
5.59507e-13
-8.5799e-12
-3.80156e-18
1.01229e-12
-1.24536e-11
1.11196e-18
1.61026e-12
-1.66045e-11
1.36597e-18
2.36039e-12
-2.10396e-11
2.01682e-17
3.26863e-12
-2.57671e-11
-1.94261e-17
4.34105e-12
-3.07905e-11
-7.17735e-18
5.58229e-12
-3.61068e-11
3.29299e-19
6.99546e-12
-4.17185e-11
-5.08971e-18
8.58219e-12
-4.76108e-11
4.49927e-19
1.03419e-11
-5.37733e-11
2.64484e-18
1.22719e-11
-6.01959e-11
4.05233e-17
1.43658e-11
-6.68448e-11
-4.41356e-17
1.66187e-11
-7.3702e-11
1.03262e-16
1.90157e-11
-8.07239e-11
-5.68243e-17
2.1544e-11
-8.78736e-11
-1.68351e-17
2.41851e-11
-9.51052e-11
-6.81776e-17
-1.02366e-10
-3.17289e-17
6.44862e-14
-1.66976e-12
5.68165e-19
2.6168e-13
-5.1659e-12
-2.88715e-18
5.98588e-13
-8.91682e-12
1.45329e-18
1.08262e-12
-1.29377e-11
-2.19514e-18
1.7214e-12
-1.72433e-11
9.20263e-19
2.52216e-12
-2.18403e-11
2.26042e-18
3.49162e-12
-2.67363e-11
1.25946e-17
4.63565e-12
-3.1934e-11
3.84933e-17
5.95786e-12
-3.74293e-11
-1.66896e-17
7.46203e-12
-4.32229e-11
1.22939e-18
9.14929e-12
-4.92982e-11
2.92644e-18
1.10184e-11
-5.56424e-11
1.41161e-18
1.30656e-11
-6.22435e-11
3.96997e-17
1.52837e-11
-6.90642e-11
-4.04751e-17
1.76658e-11
-7.60835e-11
8.39572e-17
2.01957e-11
-8.32543e-11
-6.55544e-17
2.28587e-11
-9.05361e-11
-2.50306e-17
2.56339e-11
-9.78791e-11
-5.84568e-17
-1.05227e-10
9.78048e-19
6.91124e-14
-1.73887e-12
-4.79592e-19
2.8034e-13
-5.37714e-12
5.47868e-19
6.41035e-13
-9.27751e-12
-3.78573e-18
1.15903e-12
-1.34556e-11
5.30599e-18
1.8421e-12
-1.79265e-11
-1.0816e-17
2.6979e-12
-2.26961e-11
1.19034e-17
3.73335e-12
-2.77715e-11
2.68593e-18
4.95428e-12
-3.31545e-11
2.65339e-17
6.36415e-12
-3.88395e-11
-3.75991e-17
7.96651e-12
-4.48256e-11
-1.27534e-17
9.76179e-12
-5.10936e-11
-4.2098e-18
1.1748e-11
-5.76288e-11
-4.78405e-18
1.39208e-11
-6.44167e-11
2.04062e-17
1.62713e-11
-7.14159e-11
-5.9699e-17
1.87906e-11
-7.86024e-11
6.2886e-17
2.14613e-11
-8.59253e-11
-5.57318e-17
2.4266e-11
-9.33401e-11
-1.61346e-17
2.71816e-11
-1.00793e-10
-4.36972e-17
-1.08225e-10
-5.96085e-18
7.41455e-14
-1.81301e-12
5.97505e-19
3.00619e-13
-5.60362e-12
-1.85858e-18
6.87156e-13
-9.66403e-12
-2.77145e-19
1.24195e-12
-1.40103e-11
2.10783e-18
1.97312e-12
-1.86577e-11
-8.92553e-18
2.8886e-12
-2.36115e-11
7.4386e-18
3.99539e-12
-2.88782e-11
6.29109e-18
5.29926e-12
-3.44582e-11
1.39777e-17
6.80408e-12
-4.03443e-11
-1.09098e-17
8.51268e-12
-4.65339e-11
2.54416e-17
1.04239e-11
-5.30054e-11
-6.44291e-18
1.25355e-11
-5.97412e-11
-3.49577e-18
1.4843e-11
-6.67236e-11
6.75904e-17
1.73352e-11
-7.3908e-11
-1.46616e-17
2.00004e-11
-8.1267e-11
4.44669e-17
2.282e-11
-8.87449e-11
-3.50436e-17
2.57739e-11
-9.62933e-11
-8.87747e-18
2.88361e-11
-1.03854e-10
-2.45708e-17
-1.11363e-10
1.42888e-17
7.96405e-14
-1.89265e-12
3.90496e-19
3.22764e-13
-5.84674e-12
-6.03604e-19
7.37481e-13
-1.00787e-11
-3.80137e-19
1.33237e-12
-1.46052e-11
3.47035e-18
2.11591e-12
-1.94414e-11
-1.03634e-17
3.09628e-12
-2.45919e-11
5.97115e-18
4.28061e-12
-3.00625e-11
1.56473e-18
5.6746e-12
-3.5852e-11
1.04193e-17
7.28189e-12
-4.19516e-11
-2.52056e-17
9.10478e-12
-4.83565e-11
6.86861e-18
1.11413e-11
-5.50427e-11
-2.84152e-17
1.33882e-11
-6.1989e-11
-3.09982e-17
1.58396e-11
-6.91745e-11
3.8507e-17
1.84826e-11
-7.65508e-11
-2.65479e-17
2.1303e-11
-8.40868e-11
3.302e-17
2.42803e-11
-9.17219e-11
-1.00421e-17
2.73912e-11
-9.94035e-11
1.49358e-17
3.06068e-11
-1.07069e-10
-5.84595e-18
-1.1465e-10
-1.12271e-17
8.56335e-14
-1.97828e-12
-5.89727e-20
3.46897e-13
-6.10801e-12
-7.55011e-19
7.92322e-13
-1.05241e-11
-4.47647e-19
1.43088e-12
-1.52436e-11
5.80273e-18
2.2714e-12
-2.0282e-11
-1.08341e-17
3.32227e-12
-2.56429e-11
1.94785e-18
4.59084e-12
-3.1331e-11
3.39033e-18
6.08265e-12
-3.73436e-11
1.86734e-17
7.80086e-12
-4.36698e-11
-1.97178e-17
9.74704e-12
-5.03027e-11
-8.72389e-18
1.19192e-11
-5.72148e-11
7.04526e-18
1.43122e-11
-6.43818e-11
1.70839e-17
1.69175e-11
-7.17797e-11
1.32387e-17
1.97215e-11
-7.93549e-11
-4.10532e-18
2.2707e-11
-8.70725e-11
8.90657e-18
2.58511e-11
-9.48665e-11
-1.95645e-17
2.91272e-11
-1.0268e-10
1.10091e-17
3.25028e-11
-1.10445e-10
-1.48615e-17
3.59414e-11
-1.18088e-10
6.10774e-18
3.94018e-11
-1.25526e-10
2.39533e-18
4.28388e-11
-1.32677e-10
2.44413e-17
4.62032e-11
-1.39465e-10
-8.98509e-18
-1.45783e-10
-7.05958e-17
9.22156e-14
-2.07049e-12
4.92923e-19
3.73391e-13
-6.38919e-12
-1.02393e-18
8.52467e-13
-1.10032e-11
1.44308e-18
1.53882e-12
-1.59299e-11
3.62175e-18
2.44167e-12
-2.1185e-11
-1.46361e-17
3.56959e-12
-2.67709e-11
-8.12111e-18
4.92997e-12
-3.26913e-11
-9.04938e-19
6.52818e-12
-3.89416e-11
1.50799e-17
8.36684e-12
-4.55085e-11
-3.58827e-18
1.04467e-11
-5.23825e-11
7.42113e-18
1.2765e-11
-5.9533e-11
-5.71006e-18
1.53149e-11
-6.69315e-11
-1.22243e-17
1.80856e-11
-7.45504e-11
-2.84175e-18
2.10617e-11
-8.23309e-11
4.23332e-18
2.42229e-11
-9.02338e-11
1.897e-17
2.75435e-11
-9.81875e-11
5.74082e-18
3.09933e-11
-1.0613e-10
3.43475e-17
3.45359e-11
-1.13988e-10
-1.70653e-18
3.81313e-11
-1.21683e-10
-2.21472e-19
4.17349e-11
-1.29129e-10
-1.07961e-17
4.52978e-11
-1.36238e-10
1.06526e-17
4.87672e-11
-1.42933e-10
1.02193e-17
-1.49107e-10
-3.75608e-17
9.94166e-14
-2.16991e-12
-9.41654e-20
4.02367e-13
-6.69214e-12
1.58946e-19
9.18215e-13
-1.1519e-11
5.76503e-19
1.65669e-12
-1.66684e-11
-1.78798e-18
2.62769e-12
-2.2156e-11
-4.91418e-18
3.83996e-12
-2.79829e-11
2.0419e-17
5.30018e-12
-3.41517e-11
-2.71846e-17
7.01433e-12
-4.06555e-11
4.4304e-17
8.98356e-12
-4.74783e-11
-2.6581e-17
1.1208e-11
-5.46079e-11
-2.85236e-17
1.36847e-11
-6.20092e-11
2.42367e-17
1.64038e-11
-6.96502e-11
-3.11203e-17
1.93524e-11
-7.7499e-11
-8.69328e-18
2.25126e-11
-8.5491e-11
6.2366e-18
2.58609e-11
-9.35822e-11
1.39989e-17
2.93683e-11
-1.01695e-10
7.94803e-18
3.30006e-11
-1.09762e-10
3.40112e-17
3.67175e-11
-1.17705e-10
7.39528e-18
4.04745e-11
-1.25441e-10
8.3753e-18
4.42229e-11
-1.32876e-10
-1.1679e-17
4.791e-11
-1.39923e-10
-4.48023e-18
5.14793e-11
-1.46501e-10
1.53958e-17
-1.52502e-10
2.36504e-17
1.07374e-13
-2.27728e-12
3.24917e-19
4.34358e-13
-7.01911e-12
1.00237e-18
9.90751e-13
-1.20754e-11
2.70186e-18
1.7867e-12
-1.74644e-11
-4.73066e-18
2.83247e-12
-2.32018e-11
-8.16715e-18
4.13695e-12
-2.92871e-11
1.02819e-17
5.70674e-12
-3.57217e-11
-4.02373e-17
7.5474e-12
-4.24959e-11
2.43104e-17
9.65922e-12
-4.95907e-11
-1.73565e-17
1.20413e-11
-5.69907e-11
-2.90057e-18
1.4689e-11
-6.46562e-11
5.94514e-17
1.75903e-11
-7.25509e-11
-3.12712e-18
2.07301e-11
-8.06387e-11
7.8488e-18
2.40871e-11
-8.88479e-11
-2.91614e-18
2.76344e-11
-9.71296e-11
4.94002e-18
3.1339e-11
-1.054e-10
-2.70812e-18
3.51626e-11
-1.13585e-10
2.25032e-17
3.90604e-11
-1.21603e-10
2.32759e-18
4.29831e-11
-1.29363e-10
-2.69869e-18
4.68772e-11
-1.3677e-10
-2.51158e-17
5.06858e-11
-1.43731e-10
-2.01498e-17
5.43491e-11
-1.50164e-10
5.50672e-18
-1.55959e-10
3.00807e-17
1.16112e-13
-2.39339e-12
-3.84671e-19
4.69463e-13
-7.37245e-12
1.7711e-18
1.07031e-12
-1.26763e-11
3.44629e-19
1.92924e-12
-1.83234e-11
-5.15997e-18
3.05687e-12
-2.43294e-11
-4.25266e-18
4.46199e-12
-3.06922e-11
4.10536e-19
6.15183e-12
-3.74112e-11
-1.23146e-17
8.13114e-12
-4.4474e-11
7.47993e-17
1.0398e-11
-5.18584e-11
-7.04287e-17
1.29519e-11
-5.9545e-11
3.2073e-17
1.57845e-11
-6.74892e-11
1.40986e-17
1.88821e-11
-7.56496e-11
-5.75556e-17
2.22282e-11
-8.39842e-11
4.31074e-17
2.57962e-11
-9.24156e-11
-2.28827e-17
2.95555e-11
-1.00889e-10
-2.32561e-18
3.34687e-11
-1.09313e-10
-5.34267e-18
3.74926e-11
-1.17609e-10
1.52133e-17
4.15777e-11
-1.25688e-10
3.93961e-18
4.56696e-11
-1.33455e-10
9.20836e-18
4.97096e-11
-1.4081e-10
1.57016e-18
5.36363e-11
-1.47657e-10
5.04298e-18
5.73861e-11
-1.53913e-10
1.15186e-17
-1.59467e-10
9.0088e-18
1.25832e-13
-2.51923e-12
2.10095e-19
5.08469e-13
-7.75507e-12
6.88297e-19
1.15863e-12
-1.33264e-11
-7.96201e-19
2.08736e-12
-1.92522e-11
-2.62997e-18
3.30549e-12
-2.55476e-11
-6.19224e-18
4.8219e-12
-3.22086e-11
-2.26757e-18
6.64356e-12
-3.92325e-11
-1.59462e-17
8.7744e-12
-4.66037e-11
5.84736e-17
1.12113e-11
-5.42962e-11
-7.41608e-17
1.3952e-11
-6.2286e-11
3.56868e-17
1.69859e-11
-7.05235e-11
4.17398e-17
2.02964e-11
-7.8961e-11
-2.70876e-17
2.38639e-11
-8.7551e-11
6.43624e-17
2.76573e-11
-9.62086e-11
-2.58977e-17
3.16416e-11
-1.04873e-10
-4.09737e-18
3.57744e-11
-1.13446e-10
-9.17413e-18
4.00074e-11
-1.21842e-10
1.04351e-17
4.42854e-11
-1.29966e-10
2.95164e-19
4.85484e-11
-1.37719e-10
6.15528e-19
5.27328e-11
-1.44995e-10
-5.88545e-18
5.67724e-11
-1.51696e-10
2.45091e-18
6.05993e-11
-1.5774e-10
6.68554e-18
-1.63014e-10
-1.3523e-18
1.36533e-13
-2.65576e-12
-6.7493e-19
5.51394e-13
-8.16993e-12
1.14937e-18
1.2558e-12
-1.40308e-11
-2.38987e-18
2.2612e-12
-2.02576e-11
-4.2307e-18
3.57878e-12
-2.68653e-11
-7.904e-18
5.21736e-12
-3.38471e-11
2.25989e-18
7.18349e-12
-4.11984e-11
-1.53849e-17
9.4802e-12
-4.88993e-11
6.47671e-17
1.2103e-11
-5.69199e-11
-7.39348e-17
1.50475e-11
-6.52309e-11
3.63216e-17
1.83004e-11
-7.37766e-11
3.38585e-17
2.18418e-11
-8.25031e-11
-3.22466e-17
2.56478e-11
-9.13563e-11
5.89356e-17
2.9683e-11
-1.00243e-10
-2.72341e-17
3.39068e-11
-1.09097e-10
-6.0293e-18
3.82714e-11
-1.17811e-10
-8.42664e-18
4.27223e-11
-1.26293e-10
8.40527e-18
4.71985e-11
-1.34442e-10
4.71368e-18
5.16341e-11
-1.42154e-10
5.42986e-18
5.59599e-11
-1.49321e-10
-3.40585e-18
6.01048e-11
-1.55841e-10
2.0932e-18
6.3997e-11
-1.61631e-10
6.69474e-18
-1.66582e-10
2.07399e-19
1.48521e-13
-2.80429e-12
-4.88057e-19
5.99453e-13
-8.62085e-12
1.53827e-18
1.36449e-12
-1.47959e-11
-1.12127e-18
2.45548e-12
-2.13486e-11
-4.02584e-18
3.8838e-12
-2.82937e-11
-6.41891e-18
5.65802e-12
-3.56213e-11
-1.20417e-18
7.78409e-12
-4.33242e-11
-1.42841e-17
1.02638e-11
-5.1378e-11
6.49842e-17
1.30908e-11
-5.97477e-11
-7.18373e-17
1.62582e-11
-6.83986e-11
3.52422e-17
1.97495e-11
-7.72681e-11
3.28478e-17
2.35406e-11
-8.62949e-11
-3.689e-17
2.76033e-11
-9.54182e-11
5.81175e-17
3.18965e-11
-1.04536e-10
-2.81146e-17
3.63741e-11
-1.13574e-10
-4.54697e-18
4.09816e-11
-1.22418e-10
-4.52536e-18
4.56582e-11
-1.30969e-10
1.16225e-17
5.03363e-11
-1.3912e-10
7.09788e-18
5.49436e-11
-1.46762e-10
2.53692e-18
5.94052e-11
-1.53782e-10
-8.39455e-18
6.36451e-11
-1.6008e-10
1.67732e-18
6.75873e-11
-1.65573e-10
4.8784e-18
-1.70153e-10
-4.81626e-18
1.61766e-13
-2.96606e-12
-1.30402e-19
6.52504e-13
-9.11157e-12
2.11684e-18
1.4844e-12
-1.56278e-11
-1.10432e-18
2.66965e-12
-2.2534e-11
-6.91218e-18
4.21989e-12
-2.9844e-11
-7.22485e-18
6.14341e-12
-3.75448e-11
2.03829e-18
8.44533e-12
-4.56258e-11
-1.21351e-17
1.1126e-11
-5.40576e-11
6.8797e-17
1.41769e-11
-6.27994e-11
-7.16562e-17
1.75882e-11
-7.18102e-11
3.61563e-17
2.13393e-11
-8.10195e-11
3.20186e-17
2.54018e-11
-9.03581e-11
-3.69759e-17
2.97417e-11
-9.97574e-11
5.72784e-17
3.43119e-11
-1.09106e-10
-2.73409e-17
3.90592e-11
-1.18322e-10
-9.64389e-18
4.39223e-11
-1.27281e-10
-3.67886e-18
4.88328e-11
-1.3588e-10
7.68997e-18
5.37159e-11
-1.44003e-10
8.57728e-18
5.84928e-11
-1.51539e-10
1.40269e-17
6.30823e-11
-1.58372e-10
-4.88051e-18
6.74036e-11
-1.64401e-10
-2.77428e-18
7.1377e-11
-1.69545e-10
4.85347e-19
-1.73703e-10
-1.23276e-18
1.76745e-13
-3.1428e-12
-4.94086e-19
7.12456e-13
-9.64726e-12
2.2312e-18
1.61979e-12
-1.65351e-11
-1.58954e-18
2.91123e-12
-2.38255e-11
-5.56344e-18
4.59841e-12
-3.15313e-11
-8.41858e-18
6.68899e-12
-3.96353e-11
-1.57345e-19
9.18696e-12
-4.81235e-11
-1.53747e-17
1.20906e-11
-5.69602e-11
6.82433e-17
1.53887e-11
-6.60983e-11
-7.0512e-17
1.90676e-11
-7.54894e-11
3.8039e-17
2.31023e-11
-8.50544e-11
3.51303e-17
2.74586e-11
-9.47152e-11
-3.62411e-17
3.20964e-11
-1.04394e-10
5.99332e-17
3.69615e-11
-1.13971e-10
-2.53378e-17
4.19933e-11
-1.23354e-10
-7.33877e-18
4.71224e-11
-1.32411e-10
2.36367e-20
5.22722e-11
-1.4103e-10
9.41519e-18
5.73605e-11
-1.49092e-10
1.10764e-17
6.23011e-11
-1.5648e-10
6.28827e-18
6.70066e-11
-1.63078e-10
-1.49433e-17
7.13916e-11
-1.68785e-10
-6.32239e-18
7.53727e-11
-1.73525e-10
-2.57295e-18
-1.77202e-10
-4.65798e-18
1.93337e-13
-3.33614e-12
-3.1484e-20
7.78769e-13
-1.02327e-11
1.98425e-18
1.76941e-12
-1.75258e-11
-8.6242e-19
3.17799e-12
-2.52341e-11
-9.84139e-18
5.01627e-12
-3.33696e-11
-3.34159e-18
7.29113e-12
-4.191e-11
1.35688e-17
1.00051e-11
-5.08373e-11
-1.96516e-17
1.31543e-11
-6.01083e-11
6.81394e-17
1.67241e-11
-6.9669e-11
-6.79622e-17
2.06966e-11
-7.94622e-11
4.23021e-17
2.50413e-11
-8.93994e-11
3.53056e-17
2.97176e-11
-9.93921e-11
-3.5449e-17
3.46777e-11
-1.09354e-10
5.9864e-17
3.98592e-11
-1.19152e-10
-2.40855e-17
4.51927e-11
-1.28687e-10
-5.37545e-18
5.05999e-11
-1.37818e-10
1.12472e-18
5.59953e-11
-1.46425e-10
9.14088e-18
6.12882e-11
-1.54384e-10
1.78153e-17
6.63846e-11
-1.61577e-10
1.53858e-17
7.11914e-11
-1.67885e-10
-7.59737e-18
7.56182e-11
-1.73211e-10
-4.09e-18
7.95789e-11
-1.77485e-10
-5.44741e-18
-1.80618e-10
-8.42159e-18
2.12317e-13
-3.54846e-12
-2.80642e-19
8.54599e-13
-1.0875e-11
1.02713e-18
1.94037e-12
-1.86116e-11
-1.50069e-18
3.48244e-12
-2.67762e-11
-8.96166e-18
5.49218e-12
-3.53794e-11
-5.81334e-18
7.97519e-12
-4.4393e-11
6.20342e-18
1.09321e-11
-5.37939e-11
-2.78277e-17
1.43557e-11
-6.35308e-11
6.23011e-17
1.82271e-11
-7.35414e-11
-7.64181e-17
2.25231e-11
-8.37585e-11
3.82454e-17
2.72065e-11
-9.40831e-11
2.92272e-17
3.22291e-11
-1.04415e-10
-3.74391e-17
3.75348e-11
-1.14659e-10
5.97432e-17
4.30517e-11
-1.24668e-10
-2.2665e-17
4.87008e-11
-1.34336e-10
-3.25343e-18
5.43938e-11
-1.43511e-10
3.13471e-18
6.00357e-11
-1.52067e-10
1.0043e-17
6.55268e-11
-1.59876e-10
1.83475e-17
7.07656e-11
-1.66816e-10
1.23632e-17
7.56524e-11
-1.72772e-10
-1.13962e-17
8.00928e-11
-1.77651e-10
-6.3053e-18
8.39988e-11
-1.8139e-10
-9.50819e-18
-1.83911e-10
-1.36233e-17
2.33344e-13
-3.7818e-12
1.53201e-19
9.38495e-13
-1.15801e-11
1.90419e-18
2.12935e-12
-1.98024e-11
8.72983e-19
3.81875e-12
-2.84656e-11
-4.13622e-18
6.01774e-12
-3.75785e-11
-3.4054e-18
8.73052e-12
-4.71057e-11
-5.89446e-19
1.19555e-11
-5.70186e-11
-2.4773e-17
1.56818e-11
-6.7256e-11
8.20049e-17
1.98858e-11
-7.77461e-11
-7.57198e-17
2.45375e-11
-8.84105e-11
3.48218e-17
2.95922e-11
-9.91381e-11
3.15891e-17
3.49927e-11
-1.09816e-10
-3.28216e-17
4.06725e-11
-1.20338e-10
5.952e-17
4.6549e-11
-1.30544e-10
-2.10619e-17
5.25317e-11
-1.40319e-10
-4.33248e-18
5.8521e-11
-1.495e-10
4.48582e-18
6.44114e-11
-1.57957e-10
1.10288e-17
7.00937e-11
-1.65558e-10
1.86209e-17
7.54583e-11
-1.72181e-10
1.53972e-17
8.03999e-11
-1.77714e-10
-7.24169e-18
8.48207e-11
-1.8207e-10
-3.31455e-18
8.86315e-11
-1.852e-10
-9.90074e-18
-1.87035e-10
-1.78532e-17
2.57757e-13
-4.03955e-12
2.55018e-19
1.03588e-12
-1.23582e-11
-4.10989e-19
2.34853e-12
-2.11151e-11
5.59589e-18
4.20798e-12
-3.03254e-11
-1.93245e-17
6.62488e-12
-3.99952e-11
1.33731e-17
9.60054e-12
-5.00813e-11
-1.27218e-17
1.313e-11
-6.05479e-11
-3.01003e-17
1.71975e-11
-7.13223e-11
7.58763e-17
2.17727e-11
-8.23222e-11
-8.47124e-17
2.68178e-11
-9.3456e-11
3.00541e-17
3.22788e-11
-1.04599e-10
2.40864e-17
3.80877e-11
-1.15626e-10
-3.65074e-17
4.41667e-11
-1.26416e-10
5.58938e-17
5.04208e-11
-1.36798e-10
-2.26888e-17
5.67474e-11
-1.46645e-10
-4.91305e-18
6.30348e-11
-1.55787e-10
6.26419e-18
6.91663e-11
-1.64089e-10
1.18451e-17
7.5023e-11
-1.71414e-10
1.82331e-17
8.04875e-11
-1.77646e-10
1.31186e-17
8.54491e-11
-1.82676e-10
-9.70656e-18
8.98076e-11
-1.86428e-10
-5.25298e-18
9.34744e-11
-1.88865e-10
-1.21091e-17
-1.89938e-10
-1.96294e-17
2.84787e-13
-4.32434e-12
5.78472e-19
1.14352e-12
-1.32169e-11
1.05241e-18
2.59049e-12
-2.25621e-11
6.89916e-18
4.6376e-12
-3.23728e-11
-1.41531e-17
7.29454e-12
-4.2652e-11
1.53022e-17
1.05601e-11
-5.33469e-11
-1.10895e-17
1.44257e-11
-6.44133e-11
-2.87796e-17
1.88698e-11
-7.57653e-11
7.11397e-17
2.38549e-11
-8.73081e-11
-8.21616e-17
2.93336e-11
-9.89351e-11
3.4384e-17
3.52408e-11
-1.10507e-10
2.448e-17
4.14961e-11
-1.21882e-10
-3.8278e-17
4.80075e-11
-1.32927e-10
5.57445e-17
5.46657e-11
-1.43456e-10
-2.17796e-17
6.13536e-11
-1.53333e-10
-5.79675e-18
6.79458e-11
-1.6238e-10
5.87779e-18
7.43133e-11
-1.70456e-10
1.04307e-17
8.0327e-11
-1.77428e-10
1.79827e-17
8.58622e-11
-1.83182e-10
1.32996e-17
9.08038e-11
-1.87618e-10
-6.14586e-18
9.50508e-11
-1.90674e-10
1.91108e-19
9.85171e-11
-1.92331e-10
-7.6964e-18
-1.92557e-10
-1.96842e-17
3.16821e-13
-4.64115e-12
5.19012e-19
1.27098e-12
-1.41711e-11
8.8998e-19
2.87663e-12
-2.41677e-11
5.26901e-18
5.14456e-12
-3.46409e-11
-1.54465e-17
8.08234e-12
-4.55897e-11
1.23731e-17
1.16846e-11
-5.69491e-11
-8.05833e-18
1.59371e-11
-6.86655e-11
-2.84046e-17
2.08099e-11
-8.06371e-11
6.7641e-17
2.62559e-11
-9.27551e-11
-8.59437e-17
3.22159e-11
-1.04896e-10
3.24358e-17
3.86113e-11
-1.16903e-10
2.17955e-17
4.53468e-11
-1.28618e-10
-4.16436e-17
5.23152e-11
-1.39895e-10
5.18685e-17
5.93913e-11
-1.50532e-10
-2.48219e-17
6.64426e-11
-1.60385e-10
-8.98261e-18
7.33297e-11
-1.69267e-10
3.49377e-18
7.99111e-11
-1.77037e-10
7.86783e-18
8.60479e-11
-1.83565e-10
1.64607e-17
9.16089e-11
-1.88743e-10
1.19879e-17
9.64761e-11
-1.92486e-10
-7.80952e-18
1.00549e-10
-1.94747e-10
-2.67348e-18
1.03747e-10
-1.95528e-10
-9.51494e-18
-1.94822e-10
-1.91535e-17
3.52136e-13
-4.99328e-12
5.07338e-19
1.41124e-12
-1.52302e-11
2.0828e-19
3.19117e-12
-2.59477e-11
5.98753e-18
5.70149e-12
-3.71515e-11
-1.80868e-17
8.94777e-12
-4.88359e-11
9.38893e-18
1.29203e-11
-6.09216e-11
-1.75264e-17
1.75989e-11
-7.33438e-11
-2.8471e-17
2.29447e-11
-8.5982e-11
6.68597e-17
2.88997e-11
-9.87109e-11
-8.91545e-17
3.53905e-11
-1.11387e-10
2.97773e-17
4.23231e-11
-1.23836e-10
2.34755e-17
4.9584e-11
-1.35879e-10
-3.87823e-17
5.70473e-11
-1.47357e-10
5.07922e-17
6.45689e-11
-1.58053e-10
-2.51927e-17
7.19983e-11
-1.67814e-10
-9.30722e-18
7.91795e-11
-1.76448e-10
4.38543e-18
8.5958e-11
-1.83816e-10
7.54609e-18
9.21851e-11
-1.89792e-10
1.5461e-17
9.77241e-11
-1.94283e-10
9.26613e-18
1.02456e-10
-1.97218e-10
-8.69799e-18
1.06285e-10
-1.98575e-10
-6.51406e-19
1.09138e-10
-1.9838e-10
-4.63776e-18
-1.96653e-10
-1.48586e-17
3.95015e-13
-5.38829e-12
2.60908e-19
1.58144e-12
-1.64166e-11
1.13423e-18
3.57224e-12
-2.79385e-11
4.24761e-18
6.37445e-12
-3.99539e-11
-1.47709e-17
9.98951e-12
-5.24507e-11
2.07365e-17
1.44004e-11
-6.53322e-11
4.15432e-18
1.95773e-11
-7.85205e-11
-2.72175e-17
2.54685e-11
-9.18722e-11
6.11525e-17
3.20008e-11
-1.05244e-10
-9.24115e-17
3.90829e-11
-1.1847e-10
2.53611e-17
4.66016e-11
-1.31355e-10
1.61788e-17
5.4423e-11
-1.43701e-10
-4.44756e-17
6.24005e-11
-1.55335e-10
4.51746e-17
7.037e-11
-1.66022e-10
-2.90788e-17
7.81626e-11
-1.75607e-10
-1.33937e-17
8.56067e-11
-1.83892e-10
1.46032e-18
9.25351e-11
-1.90744e-10
4.90634e-18
9.87914e-11
-1.96048e-10
1.42078e-17
1.04235e-10
-1.99727e-10
9.87601e-18
1.0875e-10
-2.01734e-10
-7.83682e-18
1.12247e-10
-2.02071e-10
2.30387e-19
1.14663e-10
-2.00796e-10
-1.64415e-18
-1.97959e-10
-1.03801e-17
4.41956e-13
-5.83025e-12
4.98859e-19
1.76738e-12
-1.77421e-11
5.14228e-19
3.98804e-12
-3.01592e-11
4.39344e-19
7.10847e-12
-4.30744e-11
-5.37216e-18
1.11256e-11
-5.6468e-11
6.74153e-18
1.60149e-11
-7.02224e-11
-5.28836e-17
2.17386e-11
-8.42434e-11
1.30016e-17
2.82295e-11
-9.83617e-11
1.93113e-17
3.53978e-11
-1.12413e-10
-9.10622e-17
4.31318e-11
-1.26204e-10
3.51128e-17
5.12955e-11
-1.39519e-10
1.8231e-17
5.97301e-11
-1.52136e-10
-4.4775e-17
6.82638e-11
-1.63868e-10
4.60299e-17
7.67078e-11
-1.74466e-10
-2.71474e-17
8.48716e-11
-1.8377e-10
-1.4672e-17
9.25651e-11
-1.91586e-10
-3.42322e-20
9.96084e-11
-1.97788e-10
2.10868e-18
1.05838e-10
-2.02278e-10
1.1633e-17
1.11114e-10
-2.05003e-10
4.98882e-18
1.15324e-10
-2.05944e-10
-1.30913e-17
1.18391e-10
-2.05138e-10
-2.41585e-18
1.20271e-10
-2.02675e-10
1.29791e-18
-1.98642e-10
-3.16738e-18
5.00737e-13
-6.33098e-12
5.5799e-19
2.00004e-12
-1.92414e-11
1.05662e-18
4.50739e-12
-3.26665e-11
5.33158e-19
8.02204e-12
-4.6589e-11
-3.57932e-18
1.25332e-11
-6.09793e-11
2.14822e-17
1.80036e-11
-7.56934e-11
-2.45882e-17
2.43795e-11
-9.0618e-11
5.87901e-17
3.15723e-11
-1.05553e-10
7.22742e-17
3.94692e-11
-1.20311e-10
-6.89984e-17
4.79313e-11
-1.34667e-10
3.26257e-17
5.6795e-11
-1.48383e-10
2.09197e-17
6.58729e-11
-1.61215e-10
-4.67764e-17
7.49666e-11
-1.72961e-10
4.30431e-17
8.38629e-11
-1.83361e-10
-3.06093e-17
9.23507e-11
-1.92258e-10
-1.83077e-17
1.00224e-10
-1.99459e-10
-2.51088e-18
1.07294e-10
-2.04858e-10
-1.77227e-19
1.13394e-10
-2.08378e-10
1.10636e-17
1.18387e-10
-2.09997e-10
6.08599e-18
1.22172e-10
-2.0973e-10
-1.14524e-17
1.24688e-10
-2.07653e-10
8.23892e-20
1.25911e-10
-2.03897e-10
5.71825e-18
-1.98588e-10
1.90664e-18
5.64492e-13
-6.89547e-12
-7.12933e-19
2.25159e-12
-2.09285e-11
2.70792e-18
5.06783e-12
-3.54828e-11
-2.74796e-18
9.007e-12
-5.05283e-11
-6.89254e-18
1.40511e-11
-6.60235e-11
-5.24778e-18
2.01506e-11
-8.1793e-11
5.87401e-18
2.7234e-11
-9.77016e-11
-5.53968e-18
3.51913e-11
-1.13511e-10
-5.38694e-17
4.38875e-11
-1.29006e-10
1.76307e-17
5.31498e-11
-1.43929e-10
-8.92639e-18
6.27821e-11
-1.58016e-10
1.87031e-17
7.25626e-11
-1.70996e-10
-3.92719e-17
8.226e-11
-1.82658e-10
4.58865e-17
9.163e-11
-1.92731e-10
-2.9686e-17
1.00437e-10
-2.01065e-10
-1.67682e-17
1.08457e-10
-2.07479e-10
-4.47959e-19
1.15491e-10
-2.11892e-10
1.11761e-18
1.21374e-10
-2.1426e-10
1.09034e-17
1.25976e-10
-2.146e-10
2.47349e-18
1.29215e-10
-2.12969e-10
-1.69496e-17
1.31053e-10
-2.0949e-10
-4.35228e-18
1.31495e-10
-2.04338e-10
4.94506e-18
-1.9768e-10
6.06587e-18
6.47346e-13
-7.54282e-12
7.45466e-19
2.57843e-12
-2.28595e-11
1.55936e-19
5.79468e-12
-3.8699e-11
-2.85194e-18
1.02797e-11
-5.50132e-11
3.71266e-18
1.60008e-11
-7.17448e-11
-1.78166e-17
2.28862e-11
-8.86783e-11
1.66198e-17
3.08372e-11
-1.05653e-10
3.58531e-17
3.97089e-11
-1.22384e-10
-2.91793e-18
4.93301e-11
-1.38627e-10
3.77732e-17
5.94864e-11
-1.54085e-10
-1.51826e-17
6.99425e-11
-1.68472e-10
2.09606e-17
8.04376e-11
-1.81491e-10
-4.02957e-17
9.07074e-11
-1.92927e-10
4.42674e-17
1.0048e-10
-2.02503e-10
-3.20782e-17
1.09499e-10
-2.10085e-10
-1.96564e-17
1.1753e-10
-2.15511e-10
-3.14245e-18
1.24374e-10
-2.18736e-10
-1.46384e-18
1.29871e-10
-2.19757e-10
1.08166e-17
1.3391e-10
-2.18639e-10
4.60652e-18
1.36432e-10
-2.15491e-10
-1.45045e-17
1.3743e-10
-2.10486e-10
-2.76059e-18
1.36941e-10
-2.03849e-10
6.01068e-18
-1.95788e-10
6.11947e-18
7.3605e-13
-8.27887e-12
-5.32182e-19
2.92669e-12
-2.50502e-11
1.11315e-18
6.56702e-12
-4.23394e-11
-6.04806e-18
1.16299e-11
-6.00759e-11
2.63812e-18
1.80691e-11
-7.81843e-11
-2.31556e-17
2.57907e-11
-9.64e-11
1.43105e-17
3.467e-11
-1.14532e-10
1.71067e-17
4.45265e-11
-1.32241e-10
-1.98217e-17
5.51499e-11
-1.4925e-10
3.31351e-17
6.62796e-11
-1.65215e-10
-1.50107e-17
7.76345e-11
-1.79828e-10
1.76842e-17
8.89059e-11
-1.92763e-10
-3.99393e-17
9.97876e-11
-2.03808e-10
4.45564e-17
1.09971e-10
-2.12686e-10
-3.16989e-17
1.19176e-10
-2.1929e-10
-2.00203e-17
1.27156e-10
-2.2349e-10
-5.77733e-18
1.3371e-10
-2.25291e-10
-3.5141e-18
1.38694e-10
-2.24741e-10
8.67492e-18
1.42023e-10
-2.21968e-10
1.59258e-19
1.4367e-10
-2.17139e-10
-2.17017e-17
1.43671e-10
-2.10486e-10
-1.16787e-17
1.42107e-10
-2.02284e-10
-3.75641e-18
-1.92785e-10
-3.84682e-19
8.56522e-13
-9.1354e-12
-6.68079e-19
3.40013e-12
-2.75938e-11
1.0756e-18
7.61544e-12
-4.65547e-11
-4.32998e-18
1.34551e-11
-6.59153e-11
7.556e-18
2.08462e-11
-8.55757e-11
-1.87066e-17
2.96541e-11
-1.05208e-10
1.57329e-17
3.97078e-11
-1.24585e-10
1.62838e-17
5.07686e-11
-1.43302e-10
-2.55087e-17
6.25683e-11
-1.61049e-10
2.87914e-17
7.47834e-11
-1.7743e-10
-2.11143e-17
8.70777e-11
-1.92122e-10
1.10682e-17
9.90909e-11
-2.04776e-10
-4.2811e-17
1.1048e-10
-2.15197e-10
4.02356e-17
1.20908e-10
-2.23114e-10
-3.46896e-17
1.30087e-10
-2.28469e-10
-2.36123e-17
1.37769e-10
-2.31172e-10
-8.1265e-18
1.43772e-10
-2.31295e-10
-4.98813e-18
1.4798e-10
-2.28949e-10
1.00047e-17
1.50344e-10
-2.24333e-10
3.46263e-18
1.50885e-10
-2.1768e-10
-1.72673e-17
1.49682e-10
-2.09283e-10
-8.03414e-18
1.46868e-10
-1.99468e-10
-1.3932e-18
-1.8853e-10
-1.93918e-19
9.83494e-13
-1.01189e-11
2.11692e-19
3.89567e-12
-3.0506e-11
-3.99166e-19
8.70794e-12
-5.13669e-11
-2.67631e-18
1.53517e-11
-7.25589e-11
8.91083e-18
2.37293e-11
-9.39535e-11
-1.24082e-17
3.3666e-11
-1.15145e-10
1.85225e-17
4.49477e-11
-1.35867e-10
2.05973e-17
5.72767e-11
-1.55632e-10
-2.65464e-17
7.03257e-11
-1.74098e-10
2.98835e-17
8.37016e-11
-1.90806e-10
-2.36582e-17
9.70053e-11
-2.05426e-10
1.29313e-17
1.09813e-10
-2.17585e-10
-4.24842e-17
1.21734e-10
-2.27117e-10
4.09455e-17
1.32394e-10
-2.33773e-10
-3.62736e-17
1.41487e-10
-2.37562e-10
-2.13248e-17
1.48769e-10
-2.38454e-10
-7.00529e-18
1.5408e-10
-2.36606e-10
-4.79736e-19
1.57341e-10
-2.3221e-10
1.21258e-17
1.58555e-10
-2.25548e-10
1.57544e-18
1.57801e-10
-2.16927e-10
-2.09253e-17
1.55223e-10
-2.06704e-10
-1.2631e-17
1.5101e-10
-1.95254e-10
-1.00045e-17
-1.82908e-10
-1.06114e-17
1.16526e-12
-1.12842e-11
-5.06925e-19
4.60656e-12
-3.39473e-11
1.15008e-18
1.02738e-11
-5.70342e-11
-3.83898e-18
1.80583e-11
-8.03432e-11
9.81158e-18
2.78124e-11
-1.03708e-10
-2.70665e-17
3.9286e-11
-1.26619e-10
4.04469e-18
5.21844e-11
-1.48765e-10
1.51705e-17
6.61107e-11
-1.69559e-10
-2.18898e-17
8.06463e-11
-1.88633e-10
2.69484e-17
9.53019e-11
-2.05462e-10
-2.15037e-17
1.09605e-10
-2.1973e-10
1.15802e-17
1.23069e-10
-2.31049e-10
-3.88022e-17
1.3527e-10
-2.39318e-10
4.42641e-17
1.4582e-10
-2.44323e-10
-3.02547e-17
1.5443e-10
-2.46172e-10
-1.92794e-17