/*--------------------------------*- C++ -*----------------------------------*\
| =========                 |                                                 |
| \\      /  F ield         | OpenFOAM: The Open Source CFD Toolbox           |
|  \\    /   O peration     | Version:  v2012                                 |
|   \\  /    A nd           | Website:  www.openfoam.com                      |
|    \\/     M anipulation  |                                                 |
\*---------------------------------------------------------------------------*/
FoamFile
{
    version     2.0;
    format      ascii;
    class       volVectorField;
    location    "0.9";
    object      U;
}
// * * * * * * * * * * * * * * * * * * * * * * * * * * * * * * * * * * * * * //

dimensions      [0 1 -1 0 0 0 0];


internalField   nonuniform List<vector> 
2619
(
(0.000108875 -0.00800846 -9.50208e-07)
(0.000176143 -0.00792217 -1.53728e-06)
(0.000246392 -0.00783553 -2.15037e-06)
(0.000315749 -0.00774883 -2.75569e-06)
(0.000387104 -0.00766016 -3.37844e-06)
(0.000457449 -0.00756917 -3.99237e-06)
(0.000529114 -0.0074746 -4.61783e-06)
(0.000599854 -0.007376 -5.23522e-06)
(0.00067097 -0.00727255 -5.85589e-06)
(0.000741035 -0.00716381 -6.4674e-06)
(0.000810525 -0.00704919 -7.07388e-06)
(0.000878488 -0.00692831 -7.66705e-06)
(0.000945068 -0.00680076 -8.24815e-06)
(0.00100967 -0.00666633 -8.81199e-06)
(0.00107181 -0.00652463 -9.35434e-06)
(0.00113089 -0.00637551 -9.86998e-06)
(4.95315e-05 -0.00835683 -4.3227e-07)
(0.000115996 -0.00826891 -1.01236e-06)
(0.00018761 -0.00817727 -1.63736e-06)
(0.000262354 -0.00808546 -2.28968e-06)
(0.000336122 -0.00799371 -2.93349e-06)
(0.00041194 -0.00789994 -3.59518e-06)
(0.000486692 -0.0078037 -4.24759e-06)
(0.000562761 -0.00770365 -4.91148e-06)
(0.000637795 -0.00759932 -5.56635e-06)
(0.000713123 -0.00748982 -6.22378e-06)
(0.000787264 -0.00737472 -6.87086e-06)
(0.000860734 -0.00725337 -7.51208e-06)
(0.000932525 -0.00712539 -8.13866e-06)
(0.0010026 -0.00699029 -8.75029e-06)
(0.00107042 -0.00684797 -9.34218e-06)
(0.00113567 -0.00669799 -9.91167e-06)
(0.00119755 -0.00654022 -1.04518e-05)
(0.00125565 -0.0063745 -1.09589e-05)
(5.28274e-05 -0.00864053 -4.61037e-07)
(0.000123673 -0.00854642 -1.07936e-06)
(0.000199959 -0.00844892 -1.74513e-06)
(0.000279538 -0.00835152 -2.43965e-06)
(0.000358003 -0.00825428 -3.12445e-06)
(0.000438664 -0.00815493 -3.82842e-06)
(0.000518106 -0.00805298 -4.52175e-06)
(0.000598894 -0.00794697 -5.22683e-06)
(0.000678491 -0.0078364 -5.92152e-06)
(0.000758332 -0.00772034 -6.61835e-06)
(0.000836816 -0.00759829 -7.30333e-06)
(0.000914499 -0.00746962 -7.98133e-06)
(0.000990291 -0.00733391 -8.64282e-06)
(0.00106412 -0.00719072 -9.28715e-06)
(0.00113539 -0.00703977 -9.90928e-06)
(0.00120383 -0.00688079 -1.05066e-05)
(0.00126857 -0.00671366 -1.10716e-05)
(0.00132914 -0.00653826 -1.16004e-05)
(0.00138515 -0.00635459 -1.20892e-05)
(5.63794e-05 -0.00894316 -4.92035e-07)
(0.000131936 -0.00884226 -1.15148e-06)
(0.000213254 -0.00873845 -1.86116e-06)
(0.000298049 -0.00863493 -2.60121e-06)
(0.000381591 -0.00853175 -3.33032e-06)
(0.000467408 -0.00842632 -4.07929e-06)
(0.000551878 -0.00831816 -4.8165e-06)
(0.000637712 -0.00820565 -5.56562e-06)
(0.000722199 -0.00808829 -6.30298e-06)
(0.000806858 -0.00796505 -7.04186e-06)
(0.000889973 -0.00783544 -7.76726e-06)
(0.000972115 -0.00769878 -8.48417e-06)
(0.00105213 -0.00755466 -9.18254e-06)
(0.00112994 -0.00740261 -9.86162e-06)
(0.00120487 -0.00724233 -1.05156e-05)
(0.00127658 -0.0070736 -1.11416e-05)
(0.00134423 -0.00689633 -1.1732e-05)
(0.00140736 -0.00671042 -1.2283e-05)
(0.00146542 -0.00651589 -1.27898e-05)
(6.02237e-05 -0.00926615 -5.25587e-07)
(0.000140869 -0.00915792 -1.22944e-06)
(0.000227617 -0.00904718 -1.98651e-06)
(0.000317995 -0.00893705 -2.77529e-06)
(0.000407003 -0.00882738 -3.5521e-06)
(0.000498401 -0.00871537 -4.34978e-06)
(0.000588273 -0.00860041 -5.13414e-06)
(0.000679521 -0.00848081 -5.93051e-06)
(0.000769235 -0.00835606 -6.7135e-06)
(0.000859041 -0.008225 -7.49729e-06)
(0.000947082 -0.00808715 -8.26568e-06)
(0.00103396 -0.00794178 -9.02396e-06)
(0.00111845 -0.00778847 -9.76131e-06)
(0.00120044 -0.00762676 -1.04769e-05)
(0.0012792 -0.00745635 -1.11643e-05)
(0.00135433 -0.00727702 -1.18201e-05)
(0.00142497 -0.00708871 -1.24367e-05)
(0.00149067 -0.00689137 -1.30101e-05)
(0.00155076 -0.00668508 -1.35346e-05)
(6.43778e-05 -0.00961124 -5.6184e-07)
(0.00015052 -0.00949495 -1.31367e-06)
(0.000243121 -0.00937671 -2.12182e-06)
(0.000339554 -0.00925935 -2.96343e-06)
(0.000434442 -0.00914263 -3.79157e-06)
(0.000531884 -0.00902341 -4.64199e-06)
(0.000627568 -0.00890106 -5.47708e-06)
(0.000724568 -0.00877374 -6.32365e-06)
(0.000819874 -0.00864089 -7.15545e-06)
(0.000915208 -0.00850129 -7.98749e-06)
(0.0010085 -0.00835444 -8.80174e-06)
(0.00110043 -0.00819956 -9.60403e-06)
(0.00118964 -0.00803623 -1.03827e-05)
(0.00127604 -0.00786398 -1.11367e-05)
(0.0013588 -0.00768251 -1.18591e-05)
(0.00143749 -0.00749165 -1.25459e-05)
(0.00151122 -0.00729131 -1.31895e-05)
(0.0015795 -0.00708154 -1.37854e-05)
(0.00164158 -0.00686249 -1.43273e-05)
(6.88818e-05 -0.00998017 -6.01148e-07)
(0.000160974 -0.0098551 -1.40491e-06)
(0.000259923 -0.00972863 -2.26847e-06)
(0.000362868 -0.0096034 -3.16691e-06)
(0.00046412 -0.00947893 -4.05059e-06)
(0.000568041 -0.00935187 -4.95756e-06)
(0.00066999 -0.0092215 -5.84732e-06)
(0.00077324 -0.00908577 -6.74844e-06)
(0.000874561 -0.00894403 -7.63274e-06)
(0.000975778 -0.0087951 -8.51611e-06)
(0.00107468 -0.00863841 -9.37929e-06)
(0.00117196 -0.00847314 -1.02284e-05)
(0.00126618 -0.00829886 -1.10507e-05)
(0.00135722 -0.00811509 -1.18453e-05)
(0.00144417 -0.00792156 -1.26042e-05)
(0.00152657 -0.00771811 -1.33234e-05)
(0.00160346 -0.00750469 -1.39945e-05)
(0.0016743 -0.00728142 -1.46128e-05)
(0.0017383 -0.00704853 -1.51714e-05)
(7.37634e-05 -0.010375 -6.43752e-07)
(0.000172311 -0.0102403 -1.50385e-06)
(0.000278113 -0.0101049 -2.42722e-06)
(0.00038817 -0.00997107 -3.38773e-06)
(0.000496266 -0.00983816 -4.33114e-06)
(0.000607106 -0.0097025 -5.2985e-06)
(0.000715799 -0.00956331 -6.24712e-06)
(0.000825882 -0.00941834 -7.20787e-06)
(0.000933679 -0.00926692 -8.14869e-06)
(0.00104115 -0.00910777 -9.08668e-06)
(0.00114604 -0.0089403 -1.00021e-05)
(0.00124904 -0.00876365 -1.0901e-05)
(0.00134856 -0.0085774 -1.17697e-05)
(0.0014445 -0.00838104 -1.2607e-05)
(0.00153583 -0.00817433 -1.34042e-05)
(0.00162205 -0.00795714 -1.41567e-05)
(0.00170216 -0.00772948 -1.48559e-05)
(0.00177556 -0.00749151 -1.54966e-05)
(0.00184141 -0.00724357 -1.60714e-05)
(7.90821e-05 -0.0107979 -6.90166e-07)
(0.000184629 -0.0106527 -1.61136e-06)
(0.000297905 -0.0105074 -2.59995e-06)
(0.000415628 -0.0103642 -3.62737e-06)
(0.000531185 -0.0102221 -4.63589e-06)
(0.000649549 -0.010077 -5.66892e-06)
(0.000765529 -0.00992812 -6.68114e-06)
(0.000882868 -0.00977303 -7.70522e-06)
(0.000997619 -0.00961106 -8.70673e-06)
(0.00111187 -0.00944072 -9.70384e-06)
(0.00122316 -0.0092614 -1.06752e-05)
(0.00133222 -0.00907228 -1.16271e-05)
(0.00143737 -0.00887293 -1.25448e-05)
(0.00153847 -0.00866279 -1.34271e-05)
(0.00163438 -0.00844165 -1.42643e-05)
(0.00172455 -0.00820945 -1.50513e-05)
(0.00180792 -0.00796624 -1.5779e-05)
(0.00188385 -0.00771227 -1.64417e-05)
(0.00195144 -0.00744796 -1.70317e-05)
(8.48598e-05 -0.0112513 -7.40592e-07)
(0.000198039 -0.0110947 -1.72839e-06)
(0.000319391 -0.0109387 -2.78747e-06)
(0.000445464 -0.0107851 -3.88777e-06)
(0.000569084 -0.0106329 -4.96665e-06)
(0.000695616 -0.0104775 -6.07097e-06)
(0.000819464 -0.010318 -7.15186e-06)
(0.000944602 -0.0101518 -8.24401e-06)
(0.00106684 -0.00997818 -9.31089e-06)
(0.00118844 -0.00979552 -1.03722e-05)
(0.0013066 -0.00960322 -1.14034e-05)
(0.00142208 -0.00940039 -1.24113e-05)
(0.00153318 -0.00918662 -1.3381e-05)
(0.00163977 -0.00896136 -1.43112e-05)
(0.00174046 -0.00872442 -1.51901e-05)
(0.00183468 -0.0084758 -1.60125e-05)
(0.00192136 -0.0082156 -1.6769e-05)
(0.00199975 -0.00794417 -1.74533e-05)
(0.00206892 -0.00766204 -1.80571e-05)
(9.11749e-05 -0.011738 -7.95707e-07)
(0.000212672 -0.0115686 -1.8561e-06)
(0.000342863 -0.0114009 -2.99232e-06)
(0.000477994 -0.0112361 -4.17167e-06)
(0.000610401 -0.0110728 -5.32725e-06)
(0.000745808 -0.0109061 -6.50901e-06)
(0.000878186 -0.0107349 -7.66435e-06)
(0.00101179 -0.0105565 -8.83038e-06)
(0.0011421 -0.01037 -9.96771e-06)
(0.00127153 -0.0101738 -1.10973e-05)
(0.00139703 -0.00996728 -1.21927e-05)
(0.00151941 -0.00974939 -1.32608e-05)
(0.00163682 -0.00951971 -1.42855e-05)
(0.00174911 -0.00927783 -1.52656e-05)
(0.00185477 -0.00902358 -1.61878e-05)
(0.00195316 -0.00875697 -1.70466e-05)
(0.00204315 -0.00847822 -1.7832e-05)
(0.00212393 -0.00818774 -1.85371e-05)
(0.00219449 -0.0078862 -1.91531e-05)
(9.80652e-05 -0.0122612 -8.55838e-07)
(0.000228624 -0.0120779 -1.99533e-06)
(0.000368435 -0.0118973 -3.2155e-06)
(0.000513449 -0.0117201 -4.4811e-06)
(0.000655407 -0.0115446 -5.72004e-06)
(0.000800443 -0.0113654 -6.98584e-06)
(0.000942069 -0.0111814 -8.22189e-06)
(0.00108486 -0.0109895 -9.46808e-06)
(0.00122389 -0.0107888 -1.06815e-05)
(0.00136171 -0.0105777 -1.18844e-05)
(0.0014951 -0.0103554 -1.30485e-05)
(0.00162493 -0.0101209 -1.41817e-05)
(0.00174904 -0.00987373 -1.5265e-05)
(0.00186729 -0.00961357 -1.6297e-05)
(0.0019781 -0.00934028 -1.72641e-05)
(0.00208075 -0.00905393 -1.81601e-05)
(0.00217403 -0.00875484 -1.89743e-05)
(0.00225706 -0.00844354 -1.96991e-05)
(0.0023288 -0.00812083 -2.03253e-05)
(0.00238843 -0.0077877 -2.08459e-05)
(0.00243515 -0.00744534 -2.12537e-05)
(0.00246828 -0.00709509 -2.1543e-05)
(0.00248732 -0.00673853 -2.17094e-05)
(0.000105631 -0.0128239 -9.21872e-07)
(0.000246148 -0.0126253 -2.14826e-06)
(0.000396496 -0.0124305 -3.4604e-06)
(0.000552315 -0.0122396 -4.8203e-06)
(0.000704706 -0.0120508 -6.15029e-06)
(0.000860257 -0.0118579 -7.50787e-06)
(0.00101195 -0.0116597 -8.83176e-06)
(0.00116468 -0.0114529 -1.01648e-05)
(0.00131314 -0.0112366 -1.14604e-05)
(0.00146001 -0.011009 -1.27423e-05)
(0.00160184 -0.0107693 -1.39802e-05)
(0.00173954 -0.0105164 -1.5182e-05)
(0.00187074 -0.0102501 -1.63271e-05)
(0.00199525 -0.00996981 -1.74138e-05)
(0.00211138 -0.00967559 -1.84274e-05)
(0.00221836 -0.00936756 -1.93612e-05)
(0.00231488 -0.00904617 -2.02037e-05)
(0.00239999 -0.00871209 -2.09466e-05)
(0.00247262 -0.00836626 -2.15806e-05)
(0.00253193 -0.00800985 -2.20984e-05)
(0.00257715 -0.00764427 -2.24932e-05)
(0.00260762 -0.0072711 -2.27593e-05)
(0.00262283 -0.00689214 -2.28921e-05)
(0.000113914 -0.0134305 -9.94156e-07)
(0.00026531 -0.0132151 -2.3155e-06)
(0.00042719 -0.0130047 -3.72828e-06)
(0.000594769 -0.0127988 -5.19082e-06)
(0.000758545 -0.0125951 -6.62018e-06)
(0.000925638 -0.012387 -8.07848e-06)
(0.0010883 -0.0121731 -9.4981e-06)
(0.0012518 -0.0119499 -1.09251e-05)
(0.00141046 -0.0117162 -1.23098e-05)
(0.00156705 -0.0114703 -1.36765e-05)
(0.00171795 -0.0112113 -1.49935e-05)
(0.0018641 -0.0109382 -1.62691e-05)
(0.00200281 -0.0106505 -1.74797e-05)
(0.0021339 -0.010348 -1.86239e-05)
(0.00225554 -0.0100307 -1.96856e-05)
(0.0023669 -0.00969882 -2.06576e-05)
(0.00246657 -0.00935294 -2.15276e-05)
(0.00255356 -0.00899391 -2.22869e-05)
(0.00262673 -0.00862283 -2.29256e-05)
(0.00268523 -0.00824107 -2.34364e-05)
(0.0027283 -0.0078503 -2.38124e-05)
(0.00275532 -0.00745236 -2.40485e-05)
(0.00276586 -0.00704929 -2.41406e-05)
(0.000123067 -0.0140845 -1.07404e-06)
(0.000286484 -0.0138506 -2.5003e-06)
(0.000461056 -0.013623 -4.02384e-06)
(0.000641614 -0.0134004 -5.59966e-06)
(0.000817882 -0.0131804 -7.13804e-06)
(0.000997524 -0.0129555 -8.70587e-06)
(0.00117215 -0.0127243 -1.02299e-05)
(0.00134741 -0.0124828 -1.17596e-05)
(0.00151713 -0.0122301 -1.32408e-05)
(0.00168428 -0.0119639 -1.46996e-05)
(0.00184489 -0.0116835 -1.61014e-05)
(0.00199996 -0.0113878 -1.74549e-05)
(0.00214658 -0.0110767 -1.87345e-05)
(0.00228453 -0.0107496 -1.99386e-05)
(0.00241181 -0.0104068 -2.10495e-05)
(0.00252752 -0.0100487 -2.20595e-05)
(0.00263018 -0.00967588 -2.29556e-05)
(0.00271872 -0.00928949 -2.37285e-05)
(0.00279198 -0.00889082 -2.4368e-05)
(0.00284907 -0.00848149 -2.48664e-05)
(0.00288923 -0.00806339 -2.52171e-05)
(0.00291195 -0.00763864 -2.54156e-05)
(0.00291686 -0.00720955 -2.54586e-05)
(0.000133129 -0.014792 -1.16185e-06)
(0.000309716 -0.0145375 -2.70306e-06)
(0.000498219 -0.0142909 -4.34818e-06)
(0.00069298 -0.0140499 -6.04795e-06)
(0.000882926 -0.0138117 -7.70571e-06)
(0.00107625 -0.0135682 -9.39297e-06)
(0.00126392 -0.0133177 -1.10308e-05)
(0.00145212 -0.0130559 -1.26734e-05)
(0.00163387 -0.0127817 -1.42597e-05)
(0.00181242 -0.0124929 -1.5818e-05)
(0.0019835 -0.0121887 -1.73112e-05)
(0.00214802 -0.0118681 -1.87471e-05)
(0.00230302 -0.0115308 -2.00999e-05)
(0.0024482 -0.0111765 -2.1367e-05)
(0.00258128 -0.0108054 -2.25286e-05)
(0.00270132 -0.0104182 -2.35764e-05)
(0.00280675 -0.0100158 -2.44967e-05)
(0.00289646 -0.00959938 -2.52798e-05)
(0.00296924 -0.00917053 -2.59151e-05)
(0.0030242 -0.00873113 -2.6395e-05)
(0.00306063 -0.00828336 -2.67132e-05)
(0.00307807 -0.00782962 -2.68655e-05)
(0.00307627 -0.00737249 -2.68501e-05)
(0.00014432 -0.0155568 -1.25952e-06)
(0.000335563 -0.0152796 -2.92864e-06)
(0.000539474 -0.0150119 -4.70824e-06)
(0.000749989 -0.0147506 -6.5455e-06)
(0.000955043 -0.0144923 -8.33511e-06)
(0.00116345 -0.014228 -1.0154e-05)
(0.00136544 -0.013956 -1.19169e-05)
(0.00156764 -0.0136716 -1.36816e-05)
(0.00176244 -0.0133738 -1.53818e-05)
(0.00195334 -0.0130599 -1.70479e-05)
(0.00213564 -0.0127294 -1.8639e-05)
(0.00231029 -0.012381 -2.01633e-05)
(0.00247407 -0.0120146 -2.15928e-05)
(0.00262666 -0.01163 -2.29246e-05)
(0.00276555 -0.0112278 -2.41369e-05)
(0.00288977 -0.0108085 -2.52212e-05)
(0.00299762 -0.0103734 -2.61626e-05)
(0.00308796 -0.00992402 -2.69512e-05)
(0.00315955 -0.00946212 -2.75762e-05)
(0.00321152 -0.00898993 -2.803e-05)
(0.00324319 -0.00850994 -2.83066e-05)
(0.00325423 -0.00802485 -2.84031e-05)
(0.00324451 -0.00753757 -2.83185e-05)
(0.000156655 -0.0163876 -1.36716e-06)
(0.000363994 -0.016085 -3.17677e-06)
(0.00058489 -0.0157938 -5.1046e-06)
(0.000812689 -0.0155097 -7.09271e-06)
(0.00103431 -0.015229 -9.02691e-06)
(0.0012593 -0.0149415 -1.09905e-05)
(0.00147696 -0.0146455 -1.28902e-05)
(0.00169444 -0.0143358 -1.47883e-05)
(0.00190347 -0.0140113 -1.66126e-05)
(0.00210777 -0.0136693 -1.83957e-05)
(0.00230219 -0.0133091 -2.00925e-05)
(0.00248771 -0.0129296 -2.17118e-05)
(0.00266081 -0.0125308 -2.32227e-05)
(0.00282111 -0.0121126 -2.46217e-05)
(0.0029659 -0.0116756 -2.58855e-05)
(0.00309413 -0.0112208 -2.70049e-05)
(0.00320401 -0.0107496 -2.7964e-05)
(0.00329436 -0.0102639 -2.87527e-05)
(0.00336392 -0.00976575 -2.936e-05)
(0.00341187 -0.00925777 -2.97787e-05)
(0.00343763 -0.00874277 -3.00037e-05)
(0.00344095 -0.0082238 -3.0033e-05)
(0.00342191 -0.0077041 -2.9867e-05)
(0.000170471 -0.0172881 -1.48774e-06)
(0.000395846 -0.0169575 -3.45476e-06)
(0.000635712 -0.0166402 -5.54814e-06)
(0.0008828 -0.0163309 -7.70461e-06)
(0.00112285 -0.0160251 -9.79968e-06)
(0.00136619 -0.0157119 -1.19234e-05)
(0.00160112 -0.0153891 -1.39738e-05)
(0.00183537 -0.0150512 -1.60182e-05)
(0.00205987 -0.014697 -1.79776e-05)
(0.00227865 -0.0143236 -1.98871e-05)
(0.00248602 -0.0139304 -2.16969e-05)
(0.00268303 -0.0135163 -2.34165e-05)
(0.00286581 -0.0130814 -2.50118e-05)
(0.00303392 -0.0126257 -2.64792e-05)
(0.00318448 -0.0121502 -2.77933e-05)
(0.00331635 -0.011656 -2.89443e-05)
(0.00342762 -0.011145 -2.99157e-05)
(0.00351712 -0.0106193 -3.0697e-05)
(0.00358359 -0.0100814 -3.12773e-05)
(0.00362627 -0.00953434 -3.16501e-05)
(0.00364469 -0.00898131 -3.18111e-05)
(0.00363879 -0.00842574 -3.17598e-05)
(0.00360882 -0.00787124 -3.14985e-05)
(0.000185748 -0.0182709 -1.62107e-06)
(0.000431021 -0.0179087 -3.76175e-06)
(0.000691794 -0.0175624 -6.0376e-06)
(0.000960117 -0.0172246 -8.37938e-06)
(0.00122043 -0.0168908 -1.06513e-05)
(0.00148396 -0.0165484 -1.29512e-05)
(0.00173785 -0.0161954 -1.51671e-05)
(0.00199048 -0.0158255 -1.7372e-05)
(0.00223191 -0.0154377 -1.94791e-05)
(0.00246647 -0.0150288 -2.15263e-05)
(0.00268786 -0.0145984 -2.34585e-05)
(0.00289719 -0.0141452 -2.52856e-05)
(0.00309021 -0.0136697 -2.69703e-05)
(0.00326642 -0.0131721 -2.85084e-05)
(0.00342269 -0.0126535 -2.98724e-05)
(0.00355783 -0.0121156 -3.1052e-05)
(0.00366984 -0.0115604 -3.20298e-05)
(0.00375752 -0.0109906 -3.27953e-05)
(0.00381968 -0.0104091 -3.3338e-05)
(0.00385564 -0.00981927 -3.36521e-05)
(0.0038651 -0.00922491 -3.37349e-05)
(0.00384821 -0.00862981 -3.35878e-05)
(0.00380547 -0.00803798 -3.3215e-05)
(0.000203032 -0.0193393 -1.77191e-06)
(0.000470783 -0.0189421 -4.10878e-06)
(0.000755156 -0.0185633 -6.59059e-06)
(0.00104739 -0.0181939 -9.14102e-06)
(0.00133043 -0.0178287 -1.16113e-05)
(0.00161648 -0.0174537 -1.41078e-05)
(0.00189139 -0.0170669 -1.65071e-05)
(0.00216426 -0.0166614 -1.88886e-05)
(0.00242413 -0.016236 -2.11568e-05)
(0.00267572 -0.0157874 -2.33526e-05)
(0.00291203 -0.0153153 -2.5415e-05)
(0.00313427 -0.0148186 -2.73548e-05)
(0.00333775 -0.0142977 -2.91308e-05)
(0.00352196 -0.0137533 -3.07386e-05)
(0.0036835 -0.0131869 -3.21487e-05)
(0.00382116 -0.0126003 -3.33504e-05)
(0.00393284 -0.0119963 -3.43253e-05)
(0.00401738 -0.0113778 -3.50634e-05)
(0.00407364 -0.0107484 -3.55546e-05)
(0.00410109 -0.0101119 -3.57945e-05)
(0.00409964 -0.00947268 -3.57821e-05)
(0.0040697 -0.00883493 -3.55211e-05)
(0.0040121 -0.0082031 -3.50187e-05)
(0.000222197 -0.0205121 -1.93917e-06)
(0.000514797 -0.0200753 -4.49291e-06)
(0.000825201 -0.0196598 -7.20191e-06)
(0.00114379 -0.0192546 -9.98238e-06)
(0.00145186 -0.0188538 -1.26711e-05)
(0.00176277 -0.0184418 -1.53845e-05)
(0.0020608 -0.0180164 -1.79857e-05)
(0.00235593 -0.0175701 -2.05614e-05)
(0.00263605 -0.0171018 -2.30062e-05)
(0.00290624 -0.0166079 -2.53645e-05)
(0.00315876 -0.0160884 -2.75684e-05)
(0.00339487 -0.0155421 -2.96293e-05)
(0.00360939 -0.01497 -3.15017e-05)
(0.00380176 -0.0143728 -3.31808e-05)
(0.00396833 -0.0137526 -3.46347e-05)
(0.00410784 -0.0131117 -3.58525e-05)
(0.00421811 -0.0124533 -3.68152e-05)
(0.00429806 -0.011781 -3.75132e-05)
(0.00434664 -0.0110989 -3.79375e-05)
(0.00436356 -0.0104115 -3.80854e-05)
(0.00434897 -0.00972354 -3.79584e-05)
(0.00430364 -0.00903979 -3.75631e-05)
(0.00422879 -0.00836517 -3.69101e-05)
(0.000244124 -0.0217909 -2.13054e-06)
(0.000565138 -0.0213098 -4.93227e-06)
(0.000905288 -0.0208532 -7.90086e-06)
(0.00125389 -0.0204079 -1.09433e-05)
(0.00159035 -0.0199672 -1.38798e-05)
(0.00192917 -0.0195136 -1.68369e-05)
(0.00225303 -0.0190451 -1.96634e-05)
(0.00257277 -0.018553 -2.24539e-05)
(0.00287499 -0.0180366 -2.50916e-05)
(0.00316522 -0.0174919 -2.76247e-05)
(0.00343483 -0.0169192 -2.99779e-05)
(0.00368524 -0.0163174 -3.21636e-05)
(0.00391075 -0.0156878 -3.41318e-05)
(0.00411076 -0.0150317 -3.58777e-05)
(0.00428139 -0.0143515 -3.73671e-05)
(0.00442137 -0.0136501 -3.85891e-05)
(0.0045285 -0.0129315 -3.95243e-05)
(0.0046018 -0.0121998 -4.01643e-05)
(0.00464038 -0.0114599 -4.05014e-05)
(0.00464422 -0.0107169 -4.05353e-05)
(0.00461383 -0.00997604 -4.02703e-05)
(0.00455037 -0.00924279 -3.97168e-05)
(0.00445553 -0.00852248 -3.88894e-05)
(0.000268437 -0.0232043 -2.34273e-06)
(0.000620871 -0.0226729 -5.41868e-06)
(0.000993844 -0.0221698 -8.67374e-06)
(0.00137555 -0.0216786 -1.20051e-05)
(0.0017433 -0.0211921 -1.52146e-05)
(0.00211293 -0.0206907 -1.84406e-05)
(0.00246527 -0.0201723 -2.15157e-05)
(0.00281217 -0.0196273 -2.45434e-05)
(0.00313872 -0.0190553 -2.73934e-05)
(0.00345095 -0.0184521 -3.01185e-05)
(0.00373919 -0.0178181 -3.26343e-05)
(0.00400501 -0.0171527 -3.49544e-05)
(0.00424206 -0.0164576 -3.70235e-05)
(0.00444973 -0.0157345 -3.88362e-05)
(0.00462383 -0.0149865 -4.03559e-05)
(0.00476314 -0.0142174 -4.1572e-05)
(0.00486542 -0.0134315 -4.24651e-05)
(0.00492991 -0.0126341 -4.30282e-05)
(0.00495595 -0.0118305 -4.32559e-05)
(0.00494389 -0.0110266 -4.3151e-05)
(0.00489467 -0.0102285 -4.27218e-05)
(0.00481 -0.00944204 -4.19831e-05)
(0.00469212 -0.00867308 -4.09545e-05)
(0.000296665 -0.0247497 -2.58907e-06)
(0.000685574 -0.0241616 -5.98338e-06)
(0.00109663 -0.023606 -9.57081e-06)
(0.00151654 -0.0230632 -1.32355e-05)
(0.00192019 -0.0225252 -1.67584e-05)
(0.00232495 -0.0219701 -2.0291e-05)
(0.00270934 -0.0213955 -2.36458e-05)
(0.00308639 -0.0207912 -2.69367e-05)
(0.00343948 -0.0201567 -3.00183e-05)
(0.00377523 -0.0194876 -3.29488e-05)
(0.00408285 -0.018785 -3.56337e-05)
(0.00436411 -0.0180481 -3.80886e-05)
(0.00461204 -0.0172795 -4.02527e-05)
(0.00482608 -0.0164813 -4.2121e-05)
(0.00500179 -0.0156576 -4.36548e-05)
(0.00513806 -0.0148129 -4.48444e-05)
(0.00523271 -0.0139525 -4.56708e-05)
(0.00528524 -0.0130824 -4.61297e-05)
(0.00529533 -0.0122089 -4.62182e-05)
(0.00526379 -0.0113388 -4.59433e-05)
(0.00519211 -0.0104787 -4.5318e-05)
(0.0050826 -0.00963522 -4.43626e-05)
(0.00493817 -0.00881462 -4.31024e-05)
(0.00032796 -0.0264727 -2.8622e-06)
(0.000757154 -0.02582 -6.6081e-06)
(0.00121015 -0.0252043 -1.05616e-05)
(0.00167215 -0.0246019 -1.45936e-05)
(0.00211535 -0.0240041 -1.84617e-05)
(0.00255878 -0.0233861 -2.23317e-05)
(0.00297856 -0.0227458 -2.59955e-05)
(0.00338894 -0.0220718 -2.95771e-05)
(0.00377135 -0.0213641 -3.29148e-05)
(0.00413306 -0.0206181 -3.60718e-05)
(0.00446192 -0.0198354 -3.89421e-05)
(0.00475987 -0.0190158 -4.15427e-05)
(0.00501916 -0.0181624 -4.3806e-05)
(0.0052393 -0.0172784 -4.57276e-05)
(0.00541552 -0.0163687 -4.72659e-05)
(0.00554688 -0.0154387 -4.84127e-05)
(0.00563133 -0.0144948 -4.91501e-05)
(0.00566875 -0.013544 -4.94771e-05)
(0.00565928 -0.0125936 -4.93949e-05)
(0.00560435 -0.0116512 -4.89159e-05)
(0.00550616 -0.0107241 -4.80593e-05)
(0.00536779 -0.00981968 -4.68521e-05)
(0.00519296 -0.00894445 -4.53266e-05)
(0.000365062 -0.0283608 -3.18599e-06)
(0.000841955 -0.0276346 -7.3482e-06)
(0.00134455 -0.0269507 -1.17345e-05)
(0.00185602 -0.0262809 -1.61984e-05)
(0.00234535 -0.0256155 -2.0469e-05)
(0.00283339 -0.0249268 -2.47284e-05)
(0.00329338 -0.0242126 -2.87431e-05)
(0.00374094 -0.0234602 -3.26492e-05)
(0.00415525 -0.0226703 -3.62654e-05)
(0.0045444 -0.0218377 -3.96619e-05)
(0.00489474 -0.020965 -4.27197e-05)
(0.00520859 -0.0200523 -4.54591e-05)
(0.00547743 -0.0191038 -4.78057e-05)
(0.005701 -0.0181235 -4.97573e-05)
(0.00587432 -0.0171175 -5.12703e-05)
(0.00599677 -0.0160925 -5.23395e-05)
(0.00606654 -0.015056 -5.29489e-05)
(0.00608406 -0.0140162 -5.31022e-05)
(0.00605006 -0.0129816 -5.28059e-05)
(0.00596674 -0.0119606 -5.20791e-05)
(0.0058371 -0.0109616 -5.09481e-05)
(0.00566515 -0.00999216 -4.94478e-05)
(0.00545553 -0.00905948 -4.76187e-05)
(0.000406017 -0.03049 -3.54342e-06)
(0.000935352 -0.0296791 -8.16334e-06)
(0.00149233 -0.0289162 -1.30243e-05)
(0.00205806 -0.0281674 -1.79616e-05)
(0.00259799 -0.0274223 -2.2674e-05)
(0.0031351 -0.0266493 -2.73616e-05)
(0.00363943 -0.025847 -3.17632e-05)
(0.00412813 -0.025001 -3.60286e-05)
(0.00457784 -0.0241129 -3.99536e-05)
(0.00499743 -0.0231776 -4.36158e-05)
(0.00537149 -0.0221985 -4.68806e-05)
(0.00570263 -0.0211765 -4.9771e-05)
(0.00598137 -0.0201172 -5.22041e-05)
(0.00620763 -0.0190257 -5.41792e-05)
(0.00637619 -0.0179096 -5.56508e-05)
(0.00648683 -0.0167767 -5.66169e-05)
(0.00653811 -0.0156363 -5.70649e-05)
(0.00653118 -0.0144976 -5.70049e-05)
(0.0064676 -0.0133703 -5.64505e-05)
(0.00635056 -0.0122639 -5.54296e-05)
(0.00618416 -0.0111874 -5.39777e-05)
(0.0059735 -0.0101491 -5.21395e-05)
(0.00572432 -0.00915623 -4.99651e-05)
(0.000455757 -0.0328259 -3.97751e-06)
(0.00104873 -0.0319179 -9.15284e-06)
(0.0016716 -0.0310649 -1.45888e-05)
(0.00230259 -0.0302264 -2.00958e-05)
(0.00290281 -0.0293911 -2.53343e-05)
(0.00349748 -0.0285231 -3.05243e-05)
(0.00405276 -0.0276216 -3.53707e-05)
(0.00458759 -0.0266704 -4.00386e-05)
(0.00507557 -0.0256721 -4.42976e-05)
(0.00552665 -0.0246212 -4.82347e-05)
(0.00592352 -0.0235226 -5.16987e-05)
(0.00626945 -0.0223778 -5.47182e-05)
(0.0065541 -0.0211942 -5.72029e-05)
(0.00677792 -0.019978 -5.91567e-05)
(0.00693566 -0.0187388 -6.0534e-05)
(0.00702781 -0.017486 -6.13387e-05)
(0.00705351 -0.0162304 -6.15636e-05)
(0.00701488 -0.014983 -6.1227e-05)
(0.00691451 -0.0137547 -6.03515e-05)
(0.00675679 -0.012556 -5.89755e-05)
(0.00654704 -0.0113969 -5.71453e-05)
(0.00629162 -0.0102859 -5.49166e-05)
(0.00599748 -0.00923066 -5.23497e-05)
(0.000510287 -0.0354988 -4.45342e-06)
(0.00117271 -0.0344777 -1.02349e-05)
(0.00186729 -0.0335187 -1.62967e-05)
(0.00256932 -0.032573 -2.24237e-05)
(0.00323521 -0.031629 -2.82353e-05)
(0.00389266 -0.0306456 -3.39733e-05)
(0.00450393 -0.0296231 -3.93082e-05)
(0.00508989 -0.0285434 -4.44225e-05)
(0.00562044 -0.0274109 -4.90531e-05)
(0.00610674 -0.02622 -5.32976e-05)
(0.00652909 -0.0249777 -5.69841e-05)
(0.00689136 -0.0236866 -6.01462e-05)
(0.00718198 -0.0223561 -6.26831e-05)
(0.00740193 -0.0209945 -6.46033e-05)
(0.00754588 -0.0196132 -6.58601e-05)
(0.00761517 -0.0182235 -6.64655e-05)
(0.00760973 -0.0168384 -6.64186e-05)
(0.007533 -0.01547 -6.57496e-05)
(0.00738892 -0.0141309 -6.44926e-05)
(0.00718346 -0.0128324 -6.27e-05)
(0.0069235 -0.0115851 -6.04316e-05)
(0.00661696 -0.010398 -5.77567e-05)
(0.00627221 -0.0092784 -5.47481e-05)
(0.000578595 -0.03843 -5.04955e-06)
(0.00132793 -0.0372782 -1.15896e-05)
(0.00211207 -0.0361977 -1.8433e-05)
(0.00290202 -0.0351301 -2.53274e-05)
(0.00364818 -0.0340629 -3.18395e-05)
(0.00438113 -0.0329495 -3.82365e-05)
(0.00505766 -0.0317907 -4.4141e-05)
(0.00570101 -0.0305669 -4.97562e-05)
(0.00627695 -0.0292839 -5.4783e-05)
(0.00679825 -0.0279362 -5.9333e-05)
(0.00724275 -0.0265328 -6.32128e-05)
(0.00761551 -0.0250778 -6.64666e-05)
(0.00790409 -0.0235831 -6.89858e-05)
(0.00811067 -0.0220589 -7.07894e-05)
(0.00823025 -0.0205194 -7.18336e-05)
(0.0082656 -0.0189782 -7.21428e-05)
(0.00821782 -0.0174502 -7.17264e-05)
(0.00809206 -0.0159498 -7.06295e-05)
(0.00789388 -0.0144908 -6.89005e-05)
(0.00763109 -0.0130856 -6.66075e-05)
(0.00731229 -0.0117454 -6.38256e-05)
(0.00694709 -0.0104793 -6.06387e-05)
(0.00654536 -0.00929441 -5.71328e-05)
(0.000652858 -0.0418482 -5.69767e-06)
(0.00149597 -0.0405417 -1.30562e-05)
(0.00237643 -0.0393155 -2.07402e-05)
(0.00326081 -0.0380988 -2.84586e-05)
(0.00409333 -0.0368796 -3.57246e-05)
(0.00490807 -0.0356037 -4.28354e-05)
(0.00565576 -0.0342746 -4.93611e-05)
(0.00636204 -0.0328702 -5.55254e-05)
(0.00698853 -0.0313995 -6.09934e-05)
(0.00754953 -0.0298573 -6.589e-05)
(0.00801936 -0.028256 -6.9991e-05)
(0.00840426 -0.0266019 -7.33508e-05)
(0.00869042 -0.0249102 -7.5849e-05)
(0.00888122 -0.0231938 -7.75149e-05)
(0.0089719 -0.02147 -7.83071e-05)
(0.00896697 -0.0197549 -7.82648e-05)
(0.00886903 -0.0180658 -7.74108e-05)
(0.00868547 -0.0164187 -7.58094e-05)
(0.00842402 -0.0148288 -7.35282e-05)
(0.00809483 -0.0133092 -7.06557e-05)
(0.00770872 -0.0118714 -6.72864e-05)
(0.00727735 -0.010524 -6.35219e-05)
(0.00681231 -0.00927344 -5.94633e-05)
(0.000749357 -0.0455878 -6.53985e-06)
(0.00171439 -0.0441012 -1.49624e-05)
(0.00271981 -0.0427068 -2.37371e-05)
(0.00372554 -0.0413197 -3.25146e-05)
(0.00466722 -0.039928 -4.07333e-05)
(0.00558256 -0.0384691 -4.8722e-05)
(0.0064146 -0.0369491 -5.5984e-05)
(0.00719218 -0.0353428 -6.27706e-05)
(0.00787116 -0.0336625 -6.86969e-05)
(0.00846844 -0.0319033 -7.39102e-05)
(0.00895519 -0.0300817 -7.8159e-05)
(0.00933997 -0.0282059 -8.15179e-05)
(0.00960831 -0.0262953 -8.38605e-05)
(0.00976605 -0.0243658 -8.5238e-05)
(0.00980956 -0.0224384 -8.56186e-05)
(0.00974606 -0.0205322 -8.50652e-05)
(0.00958033 -0.0186674 -8.36196e-05)
(0.00932258 -0.0168619 -8.13708e-05)
(0.00898305 -0.0151324 -7.84082e-05)
(0.00857453 -0.0134926 -7.48433e-05)
(0.00811012 -0.011954 -7.07906e-05)
(0.00760358 -0.0105246 -6.637e-05)
(0.00706817 -0.00920947 -6.16973e-05)
(0.000853023 -0.0500569 -7.44455e-06)
(0.00194759 -0.0483523 -1.69977e-05)
(0.00308514 -0.0467517 -2.69255e-05)
(0.00421877 -0.0451508 -3.68193e-05)
(0.00527582 -0.0435398 -4.60448e-05)
(0.00629821 -0.0418453 -5.49679e-05)
(0.00722088 -0.0400787 -6.30209e-05)
(0.00807629 -0.0382113 -7.04869e-05)
(0.00881368 -0.0362618 -7.6923e-05)
(0.0094525 -0.0342261 -8.2499e-05)
(0.00995972 -0.032127 -8.69265e-05)
(0.0103461 -0.0299759 -9.02991e-05)
(0.0105955 -0.0277979 -9.24775e-05)
(0.0107165 -0.0256126 -9.35344e-05)
(0.0107064 -0.0234456 -9.3447e-05)
(0.0105756 -0.0213189 -9.23063e-05)
(0.0103316 -0.0192555 -9.01775e-05)
(0.00998826 -0.0172748 -8.71817e-05)
(0.00955908 -0.0153942 -8.34366e-05)
(0.00906026 -0.0136275 -7.90836e-05)
(0.00850778 -0.0119852 -7.42623e-05)
(0.0079179 -0.0104739 -6.91142e-05)
(0.00730577 -0.00909668 -6.37718e-05)
(0.000993698 -0.054921 -8.67227e-06)
(0.00226454 -0.0529603 -1.97639e-05)
(0.00358186 -0.05112 -3.12606e-05)
(0.00488739 -0.0492735 -4.26547e-05)
(0.00609646 -0.0474137 -5.3207e-05)
(0.00725528 -0.0454541 -6.33209e-05)
(0.00828764 -0.043412 -7.23312e-05)
(0.00923062 -0.0412543 -8.05616e-05)
(0.0100253 -0.0390066 -8.74981e-05)
(0.0106957 -0.0366653 -9.33497e-05)
(0.0112049 -0.0342602 -9.77945e-05)
(0.0115683 -0.0318058 -0.000100967)
(0.0117699 -0.0293341 -0.000102727)
(0.0118231 -0.0268688 -0.000103193)
(0.0117279 -0.0244409 -0.000102363)
(0.0114998 -0.0220756 -0.000100373)
(0.0111499 -0.0197994 -9.73206e-05)
(0.0106966 -0.0176331 -9.33654e-05)
(0.0101571 -0.0155952 -8.86572e-05)
(0.00955103 -0.0136989 -8.33681e-05)
(0.00889713 -0.0119533 -7.76615e-05)
(0.00821393 -0.010363 -7.16989e-05)
(0.0075181 -0.00892846 -6.56259e-05)
(0.00114271 -0.0609179 -9.97274e-06)
(0.00259728 -0.0586406 -2.26679e-05)
(0.00410052 -0.0564986 -3.57872e-05)
(0.00558287 -0.0543341 -4.87245e-05)
(0.00694849 -0.0521467 -6.06432e-05)
(0.0082487 -0.0498332 -7.19911e-05)
(0.00939597 -0.0474222 -8.20044e-05)
(0.0104326 -0.0448756 -9.10521e-05)
(0.0112904 -0.0422314 -9.85394e-05)
(0.0119979 -0.0394875 -0.000104715)
(0.0125126 -0.0366856 -0.000109209)
(0.0128546 -0.0338448 -0.000112195)
(0.0130066 -0.0310067 -0.000113522)
(0.0129871 -0.0281996 -0.000113353)
(0.0127985 -0.0254609 -0.000111708)
(0.0124621 -0.0228188 -0.000108773)
(0.0119934 -0.0203023 -0.000104684)
(0.0114167 -0.0179324 -9.96512e-05)
(0.0107536 -0.015727 -9.38645e-05)
(0.0100284 -0.0136971 -8.75356e-05)
(0.00926319 -0.0118493 -8.08575e-05)
(0.00847917 -0.0101843 -7.40149e-05)
(0.00769464 -0.00869914 -6.71676e-05)
(0.00135569 -0.0673917 -1.18314e-05)
(0.00307421 -0.064737 -2.68304e-05)