/*--------------------------------*- C++ -*----------------------------------*\
| =========                 |                                                 |
| \\      /  F ield         | OpenFOAM: The Open Source CFD Toolbox           |
|  \\    /   O peration     | Version:  v2012                                 |
|   \\  /    A nd           | Website:  www.openfoam.com                      |
|    \\/     M anipulation  |                                                 |
\*---------------------------------------------------------------------------*/
FoamFile
{
    version     2.0;
    format      ascii;
    class       volScalarField;
    location    "0.55";
    object      alpha.water;
}
// * * * * * * * * * * * * * * * * * * * * * * * * * * * * * * * * * * * * * //

dimensions      [0 0 0 0 0 0 0];


internalField   nonuniform List<scalar> 
3352
(
1
1.00001
0.999997
0.999991
0.999967
0.999597
0.996174
0.989291
0.986337
0.99194
0.997655
0.989818
0.81459
0.309157
0.0279725
0.000549095
4.81229e-06
2.48739e-08
4.71206e-11
1.0418e-14
2.05355e-18
3.57541e-21
5.00536e-24
5.43011e-27
4.30212e-30
2.24087e-33
6.06183e-37
2.54346e-41
6.07359e-57
5.60276e-89
4.15753e-93
1.10089e-96
1.40614e-93
1.68588e-90
1.81879e-87
1.84386e-84
2.37754e-81
9.31428e-79
1.61774e-64
1
1.00001
0.999999
0.999991
0.999964
0.999611
0.996079
0.98836
0.98421
0.990049
0.997387
0.994287
0.855485
0.360839
0.0369071
0.000762207
6.46505e-06
3.11283e-08
4.80919e-11
5.63783e-15
2.31784e-18
3.99469e-21
5.51658e-24
5.86652e-27
4.50681e-30
2.22862e-33
5.40061e-37
8.01061e-42
-1.40559e-57
5.95977e-89
4.13394e-93
7.9612e-98
6.89592e-103
-3.91897e-108
-1.10742e-103
5.76412e-102
-1.16596e-97
1.8282e-78
7.89607e-77
1
1.00001
0.999999
0.999992
0.999964
0.999644
0.996238
0.987987
0.982904
0.988687
0.996165
0.995685
0.873619
0.388543
0.0425119
0.000901243
7.39378e-06
3.30529e-08
3.71862e-11
1.16446e-15
2.42859e-18
4.15347e-21
5.6638e-24
5.89683e-27
4.36893e-30
2.02057e-33
4.16895e-37
-8.21529e-53
-5.66258e-60
6.15394e-89
3.91538e-93
7.8586e-98
6.82669e-103
1.89338e-108
1.40635e-105
8.01666e-104
4.7236e-104
3.80481e-102
6.06223e-96
1
1.00001
1
0.999991
0.999965
0.999677
0.99649
0.987718
0.981301
0.986991
0.995513
0.996754
0.891724
0.418622
0.0491055
0.00106894
8.34877e-06
3.36811e-08
2.30914e-11
1.22188e-15
2.52819e-18
4.26641e-21
5.69295e-24
5.72367e-27
4.00101e-30
1.66071e-33
2.56118e-37
-1.00152e-50
-5.32312e-60
6.29529e-89
3.71308e-93
6.77234e-98
6.28758e-103
3.91028e-109
1.17557e-112
9.52805e-110
4.12066e-107
4.32443e-99
1.55886e-96
1
1.00001
1
0.999992
0.999964
0.999703
0.996738
0.987591
0.97968
0.985267
0.994749
0.997219
0.90621
0.445415
0.0555298
0.00123444
9.03408e-06
3.21979e-08
8.65065e-12
1.21099e-15
2.46834e-18
4.09512e-21
5.31806e-24
5.10597e-27
3.29284e-30
1.16089e-33
9.69502e-38
-1.32147e-43
-1.39049e-60
6.82331e-89
3.53728e-93
5.87035e-98
6.14884e-103
3.90734e-109
1.05671e-115
9.10969e-124
6.7224e-108
5.62214e-104
2.12292e-102
1
1.00001
1
0.999992
0.999963
0.999726
0.996973
0.987538
0.977986
0.983528
0.993979
0.997345
0.917976
0.469286
0.0616787
0.00139045
9.32637e-06
2.78403e-08
3.00967e-12
-5.36428e-15
-2.08748e-17
-3.75425e-20
-5.35725e-23
-6.10767e-26
-5.28373e-29
-3.12725e-32
-1.00495e-35
-2.72656e-40
2.46683e-85
6.81003e-89
3.39178e-93
5.1613e-98
6.15216e-103
3.90065e-109
1.06023e-115
1.837e-123
1.83545e-123
1.87202e-123
3.38302e-120
1
1.00001
1
0.999993
0.99996
0.999742
0.997158
0.987485
0.976231
0.981782
0.993139
0.997345
0.927009
0.489258
0.0671353
0.00151953
9.32644e-06
2.27099e-08
6.84647e-13
-7.12227e-15
-2.04436e-17
-3.62174e-20
-5.09122e-23
-5.64053e-26
-4.60568e-29
-2.47972e-32
-6.11048e-36
-5.54036e-43
2.5028e-85
7.16498e-89
3.28201e-93
4.65644e-98
6.92977e-103
4.15452e-109
1.64264e-115
1.72628e-123
3.46523e-123
1.31529e-121
1.89844e-120
1
1.00001
1
0.999991
0.999962
0.999756
0.997293
0.987316
0.974403
0.980018
0.992206
0.997345
0.933511
0.504645
0.0715043
0.00160555
8.93286e-06
1.62209e-08
4.83188e-13
-7.77028e-15
-1.9938e-17
-3.47492e-20
-4.78513e-23
-5.07931e-26
-3.88987e-29
-1.77583e-32
-2.46868e-36
-6.64613e-48
2.49786e-85
7.34187e-89
3.21055e-93
4.3543e-98
9.90837e-103
5.04411e-109
2.14264e-115
1.47363e-123
8.7086e-127
6.73504e-125
1.8258e-123
1
1.00001
1
0.99999
0.999963
0.999766
0.997389
0.987013
0.972488
0.978228
0.99128
0.997334
0.937659
0.514882
0.0743972
0.00164201
8.41095e-06
9.11999e-09
4.364e-13
-7.59881e-15
-1.85491e-17
-3.19373e-20
-4.27353e-23
-4.34176e-26
-2.97113e-29
-1.06502e-32
-5.22107e-38
7.46409e-73
2.51084e-85
7.5103e-89
3.17526e-93
4.22236e-98
1.54679e-102
6.42145e-109
2.49566e-115
1.28027e-123
1.12723e-135
2.47627e-135
5.94067e-135
1
1.00001
1
0.999987
0.999965
0.999776
0.997463
0.986591
0.970488
0.976397
0.990392
0.997307
0.939718
0.520048
0.0758127
0.0016522
7.5091e-06
3.19985e-09
3.73525e-13
-7.06772e-15
-1.64148e-17
-2.77852e-20
-3.62672e-23
-3.4007e-26
-2.00725e-29
-4.76122e-33
-2.24602e-40
1.61585e-81
2.52989e-85
7.63773e-89
3.16519e-93
4.19078e-98
2.26988e-102
7.94189e-109
2.65691e-115
1.10661e-123
1.20907e-135
2.06866e-135
3.30981e-135
1
1.00001
1
0.999987
0.999965
0.999783
0.99751
0.98607
0.968391
0.974506
0.989547
0.997265
0.940458
0.521844
0.076254
0.00164066
6.22869e-06
7.50251e-10
-1.06729e-12
-6.84222e-15
-1.52748e-17
-2.45825e-20
-2.9761e-23
-2.50217e-26
-1.18336e-29
-1.03657e-33
-6.97732e-47
1.64631e-81
2.54141e-85
7.72487e-89
3.18213e-93
4.27486e-98
3.02442e-102
9.3921e-109
2.69376e-115
1.01213e-123
1.91395e-135
1.53787e-135
2.45377e-135
1
1.00001
1
0.999986
0.999965
0.999791
0.997552
0.98548
0.966182
0.972545
0.988757
0.997201
0.940538
0.521833
0.0759979
0.00155845
4.67643e-06
3.01034e-10
-1.24279e-12
-5.93734e-15
-1.22798e-17
-1.86989e-20
-2.0771e-23
-1.4943e-26
-4.88149e-30
-8.86165e-37
9.26877e-72
1.64554e-81
2.55905e-85
7.76581e-89
3.31426e-93
4.94986e-98
3.67329e-102
1.06224e-108
2.68296e-115
9.81511e-124
3.70611e-135
1.12624e-135
1.99648e-135
1.00001
1.00001
1
0.999987
0.999964
0.999796
0.997553
0.98484
0.963832
0.970513
0.988047
0.997117
0.938848
0.516551
0.0738342
0.00141318
3.07433e-06
9.34282e-11
-1.13957e-12
-4.66341e-15
-9.02028e-18
-1.27174e-20
-1.24927e-23
-7.12889e-27
-1.08519e-30
-1.83042e-40
4.17241e-78
1.66675e-81
2.57898e-85
7.7731e-89
3.5382e-93
6.49325e-98
4.11192e-102
1.14833e-108
2.55928e-115
9.85316e-124
5.79639e-135
8.2839e-136
1.56479e-135
1.00001
1.00001
1
0.999987
0.999963
0.999797
0.997569
0.984146
0.961326
0.968418
0.987451
0.996997
0.934584
0.50451
0.0696451
0.00122498
1.6973e-06
5.39624e-11
-9.28112e-13
-3.36216e-15
-6.03618e-18
-7.68076e-21
-6.35672e-24
-2.51327e-27
-7.95151e-33
-2.59781e-48
4.08502e-78
1.67717e-81
2.60348e-85
7.75682e-89
3.80185e-93
8.68572e-98
4.31762e-102
1.19015e-108
2.30487e-115
1.20901e-123
7.30912e-135
6.02143e-136
1.2263e-135
1.00001
1.00001
1
0.999988
0.999961
0.999797
0.997551
0.98335
0.958646
0.966273
0.986989
0.996797
0.927726
0.486576
0.0639155
0.00101483
7.34233e-07
3.63184e-11
-6.92521e-13
-2.20624e-15
-3.62197e-18
-4.02537e-21
-2.61414e-24
-5.07306e-28
-2.72895e-35
8.2965e-75
4.06497e-78
1.68895e-81
2.63251e-85
7.70866e-89
4.11116e-93
1.12543e-97
4.36636e-102
1.19979e-108
1.99725e-115
1.87264e-123
7.98198e-135
4.22152e-136
9.46353e-136
1.00001
1.00001
1
0.999988
0.99996
0.999789
0.997507
0.982424
0.955771
0.964096
0.98666
0.996433
0.918342
0.463863
0.057213
0.000805352
2.78033e-07
2.35167e-11
-5.39822e-13
-1.35225e-15
-1.97215e-18
-1.82024e-21
-8.09308e-25
-1.91598e-30
-2.00142e-45
8.28209e-75
4.04301e-78
1.69995e-81
2.667e-85
7.63553e-89
4.4792e-93
1.40228e-97
4.35437e-102
1.19555e-108
1.70975e-115
2.68255e-123
8.11017e-135
2.8033e-136
7.15744e-136
1.00001
1.00001
1
0.999989
0.999958
0.999787
0.997454
0.981347
0.952685
0.961898
0.986449
0.995776
0.906256
0.4373
0.0500566
0.000613658
1.44673e-07
1.47131e-11
-3.66369e-13
-7.78685e-16
-9.70828e-19
-6.90569e-22
-1.48472e-25
-7.3415e-32
7.33554e-72
8.26967e-75
4.03476e-78
1.71128e-81
2.70771e-85
7.54648e-89
4.90295e-93
1.68488e-97
4.21524e-102
1.16516e-108
1.48806e-115
3.25714e-123
8.01313e-135
1.71451e-136
5.27771e-136
1.00001
1.00001
1
0.99999
0.999957
0.999787
0.99735
0.980099
0.949378
0.959689
0.986324
0.994722
0.891167
0.407583
0.0428682
0.000449238
9.44094e-08
8.70072e-12
-2.34396e-13
-4.26492e-16
-4.33064e-19
-2.0688e-22
-2.17055e-27
-1.53121e-44
7.24831e-72
8.26515e-75
4.03356e-78
1.72326e-81
2.75563e-85
7.45131e-89
5.37114e-93
1.95811e-97
3.92076e-102
1.10932e-108
1.35265e-115
3.49955e-123
7.42421e-135
9.12774e-137
3.77966e-136
1.00001
1.00001
1
0.999991
0.999955
0.999784
0.997217
0.978667
0.945848
0.957468
0.986241
0.993214
0.872661
0.375281
0.0359478
0.00031564
6.09333e-08
-4.7546e-12
-1.43278e-13
-2.19735e-16
-1.70168e-19
-3.80674e-23
-4.47869e-29
2.74891e-59
7.18012e-72
8.27888e-75
4.06254e-78
1.73656e-81
2.81188e-85
7.36111e-89
5.87286e-93
2.20586e-97
3.52565e-102
1.04233e-108
1.29697e-115
3.5427e-123
6.42988e-135
3.94087e-137
2.52699e-136
1.00001
1.00001
1
0.999991
0.999955
0.999778
0.997055
0.977053
0.942103
0.955219
0.986142
0.991206
0.850307
0.341016
0.0295288
0.000212632
3.76705e-08
-9.15597e-12
-8.22648e-14
-1.03562e-16
-5.40573e-20
-1.08093e-24
-3.56868e-31
2.73466e-59
7.12101e-72
8.30179e-75
4.1025e-78
1.75191e-81
2.87783e-85
7.28724e-89
6.39782e-93
2.41004e-97
3.08635e-102
9.78589e-109
1.28622e-115
3.48018e-123
5.39581e-135
1.30807e-137
1.36869e-136
1.00001
1.00001
1
0.999992
0.999955
0.999769
0.996866
0.975271
0.938156
0.952918
0.98594
0.988591
0.823728
0.305576
0.0237927
0.000137378
2.22118e-08
-8.32737e-12
-4.46056e-14
-4.28272e-17
-1.07943e-20
-4.42021e-26
1.76971e-52
2.73648e-59
7.10931e-72
8.34276e-75
4.16104e-78
1.77018e-81
2.95507e-85
7.23918e-89
6.93521e-93
2.54957e-97
2.64559e-102
9.29351e-109
1.44396e-115
3.1974e-123
4.51272e-135
4.15534e-138
4.71892e-137
1.00001
1.00001
1
0.999992
0.999955
0.999757
0.996654
0.973343
0.934025
0.95053
0.985565
0.985082
0.792728
0.269889
0.0188585
8.5284e-05
1.24839e-08
-5.44542e-12
-2.19218e-14
-1.46058e-17
-5.07011e-22
-1.80859e-26
1.8357e-52
2.78565e-59
7.1105e-72
8.40283e-75
4.24317e-78
1.79242e-81
3.0455e-85
7.21987e-89
7.47444e-93
2.61354e-97
2.23684e-102
9.01191e-109
2.31011e-115
2.80704e-123
3.88164e-135
2.12459e-138
1.1992e-137
1.00001
1.00001
1
0.999992
0.999954
0.999744
0.996427
0.971296
0.92973
0.948014
0.985018
0.980354
0.757189
0.23493
0.0147693
5.10211e-05
6.6816e-09
-3.24714e-12
-9.81998e-15
-3.56461e-18
-1.7296e-22
-2.31618e-29
1.87685e-52
2.85261e-59
7.19732e-72
8.48647e-75
4.34882e-78
1.81984e-81
3.15145e-85
7.2343e-89
8.00655e-93
2.62556e-97
1.88725e-102
8.92145e-109
4.04379e-115
2.49437e-123
3.48468e-135
1.13491e-138
5.472e-138
1.00001
1.00001
1
0.999992
0.999955
0.999729
0.996185
0.969164
0.925288
0.945331
0.984382
0.973895
0.717206
0.20165
0.0114974
2.94958e-05
3.39356e-09
-2.06777e-12
-3.95704e-15
-1.79003e-19
-5.37943e-23
4.86224e-46
1.93252e-52
2.93357e-59
7.24912e-72
8.59788e-75
4.48256e-78
1.85386e-81
3.27569e-85
7.37838e-89
8.52505e-93
2.6086e-97
1.61783e-102
9.0502e-109
6.20832e-115
2.33639e-123
3.2574e-135
4.90827e-139
2.53414e-138
1.00001
1.00001
1
0.99999
0.999958
0.999717
0.995956
0.966959
0.920714
0.94245
0.983633
0.965285
0.673244
0.170889
0.00896088
1.64921e-05
1.62113e-09
-1.25662e-12
-1.29572e-15
-1.01397e-19
-8.05676e-24
4.81191e-46
1.99423e-52
3.04009e-59
7.37085e-72
8.74233e-75
4.6477e-78
1.89621e-81
3.42162e-85
7.58942e-89
9.02656e-93
2.54275e-97
1.44098e-102
1.06622e-108
8.27213e-115
2.29588e-123
3.16065e-135
2.04087e-139
1.05985e-138
1.00002
1.00001
1
0.999989
0.999961
0.999703
0.995703
0.964758
0.916023
0.939348
0.98276
0.954216
0.626147
0.143296
0.0070453
8.92629e-06
7.16237e-10
-6.81215e-13
-2.37675e-16
-3.22866e-20
-5.69831e-25
5.00683e-46
2.06604e-52
3.17688e-59
7.57248e-72
8.92605e-75
4.84905e-78
1.9489e-81
3.59341e-85
7.93897e-89
9.51146e-93
2.43471e-97
1.35401e-102
1.44928e-108
9.8077e-115
2.54107e-123
3.13668e-135
8.09064e-140
4.26257e-139
1.00002
1.00001
1
0.999989
0.999964
0.999703
0.995529
0.962439
0.911238
0.935999
0.98175
0.940441
0.577093
0.119273
0.00562508
4.78279e-06
2.88569e-10
-3.01554e-13
-2.40446e-18
-1.24545e-20
-5.62643e-27
5.24033e-46
2.14824e-52
3.34552e-59
7.75383e-72
9.15652e-75
5.09221e-78
2.01442e-81
3.79623e-85
8.45271e-89
9.98446e-93
2.29963e-97
1.32976e-102
2.04216e-108
1.05981e-114
4.8473e-123
3.31597e-135
3.00261e-140
1.60834e-139
1.00002
1.00001
1
0.999989
0.99997
0.999722
0.995258
0.960461
0.906381
0.932371
0.980571
0.92385
0.527502
0.0989461
0.00458059
2.89057e-06
1.13947e-10
-8.91876e-14
-3.67019e-18
-2.72684e-21
5.01213e-38
5.46146e-46
2.24275e-52
3.55051e-59
8.03567e-72
9.44282e-75
5.3842e-78
2.09578e-81
4.03648e-85
9.17993e-89
1.04552e-92
2.15278e-97
1.37336e-102
2.87707e-108
1.07952e-114
1.10089e-122
4.09447e-135
1.04322e-140
5.67903e-140
1.00002
1.00001
1
0.999989
0.999975
0.99977
0.995241
0.957935
0.901542
0.928411
0.97916
0.90453
0.478881
0.082184
0.00380939
2.33522e-06
6.04636e-11
4.27522e-14
-1.04677e-18
-2.6681e-22
5.26355e-38
5.75365e-46
2.35139e-52
3.79819e-59
8.36966e-72
9.79601e-75
5.73367e-78
2.19671e-81
4.32222e-85
1.01792e-88
1.09392e-92
2.01001e-97
1.99469e-102
3.96559e-108
1.07366e-114
1.97583e-122
6.34489e-135
3.37756e-141
1.86159e-140
1.00002
1.00001
1
0.99999
0.999979
0.999822
0.995251
0.956878
0.896721
0.924036
0.977421
0.882785
0.432645
0.0686529
0.00323128
2.90211e-06
9.6453e-11
1.40921e-13
-2.81435e-19
-6.87276e-24
5.78305e-38
6.0937e-46
2.47658e-52
4.09584e-59
8.78716e-72
1.02297e-74
6.15144e-78
2.32189e-81
4.6636e-85
1.15246e-88
1.14589e-92
1.88784e-97
4.08384e-102
5.25407e-108
1.03025e-114
2.81974e-122
1.54655e-134
1.02561e-141
5.62308e-141
1.00002
1.00001
1
0.999991
0.999985
0.999892
0.995804
0.9546
0.89186
0.91918
0.975197
0.859136
0.389945
0.0578982
0.00278788
4.48117e-06
3.3714e-10
1.48496e-13
-3.33208e-20
1.6095e-28
6.11547e-38
6.50153e-46
2.62124e-52
4.45243e-59
9.29721e-72
1.0761e-74
6.65104e-78
2.47722e-81
5.07356e-85
1.3308e-88
1.20463e-92
1.80184e-97
8.10382e-102
6.65444e-108
9.67917e-115
3.42014e-122
4.427e-134
2.99714e-142
1.57094e-141
1.00002
1.00001
1
0.999991
0.999988
0.999944
0.996565
0.954185
0.88683
0.913794
0.972338
0.834229
0.351543
0.0494172
0.00244006
5.96182e-06
4.4444e-10
1.49574e-13
1.1641e-20
1.804e-28
6.54871e-38
6.98619e-46
2.78897e-52
4.87929e-59
9.92068e-72
1.14109e-74
7.24954e-78
2.67027e-81
5.56865e-85
1.56428e-88
1.27458e-92
1.75932e-97
1.3964e-101
8.07427e-108
9.21428e-115
3.7197e-122
1.02082e-133
8.65088e-143
4.22342e-142
1.00002
1.00001
1
0.999991
0.99999
0.999968
0.99763
0.954557
0.881655
0.907711
0.968792
0.808699
0.317765
0.0427383
0.00215911
6.87235e-06
4.45688e-10
1.50955e-13
1.8192e-20
1.91526e-28
7.02764e-38
7.56357e-46
2.98422e-52
5.39062e-59
1.06808e-71
1.22062e-74
7.96852e-78
2.9108e-81
6.17031e-85
1.86674e-88
1.36208e-92
1.74759e-97
2.12501e-101
9.43542e-108
9.03969e-115
3.79735e-122
1.80477e-133
2.33197e-143
1.13748e-142
1.00003
1.00001
1
0.999992
0.999991
0.999977
0.998793
0.957889
0.876416
0.900743
0.964602
0.78328
0.2884
0.037404
0.00191772
7.62155e-06
4.45299e-10
1.52338e-13
2.28202e-20
2.06135e-28
7.5823e-38
8.25241e-46
3.21246e-52
6.00424e-59
1.1608e-71
1.31811e-74
8.83546e-78
3.21154e-81
6.90642e-85
2.25497e-88
1.47628e-92
1.86278e-97
2.9324e-101
1.06945e-107
9.17109e-115
3.78684e-122
2.5822e-133
5.26511e-144
2.70738e-143
1.00003
1.00001
1
0.999993
0.999992
0.999982
0.999348
0.963025
0.871206
0.892773
0.959893
0.758549
0.26283
0.033007
0.00170376
8.31641e-06
4.46174e-10
1.53676e-13
2.94309e-20
2.22031e-28
8.22181e-38
9.07652e-46
3.48047e-52
6.74253e-59
1.27406e-71
1.43793e-74
9.88547e-78
3.58925e-81
7.81364e-85
2.74929e-88
1.63066e-92
2.46658e-97
3.74151e-101
1.18593e-107
1.33221e-114
3.75829e-122
3.18972e-133
1.02383e-144
5.27934e-144
1.00003
1.00001
1
0.999994
0.999995
0.999989
0.999407
0.969813
0.866128
0.884082
0.954437
0.734716
0.240145
0.0292517
0.00151712
9.07324e-06
4.47782e-10
1.55233e-13
3.73465e-20
2.40315e-28
8.96521e-38
1.00659e-45
3.79669e-52
7.6338e-59
1.41215e-71
1.58575e-74
1.11637e-77
4.06612e-81
8.94047e-85
3.3743e-88
1.84552e-92
3.79754e-97
4.47655e-101
1.30001e-107
3.09557e-114
3.82931e-122
3.59643e-133
2.37518e-145
8.21918e-145
1.00003
1.00001
1
0.999996
0.999997
0.999995
0.99974
0.978057
0.861178
0.875096
0.947998
0.711033
0.219741
0.0260025
0.00135529
9.84589e-06
4.51717e-10
1.57058e-13
4.71232e-20
2.61272e-28
9.83436e-38
1.12586e-45
4.17164e-52
8.7139e-59
1.57897e-71
1.76896e-74
1.27285e-77
4.67185e-81
1.03517e-84
4.15996e-88
2.15185e-92
6.30292e-97
5.07719e-101
1.42745e-107
7.01772e-114
5.54365e-122
3.88905e-133
7.67419e-146
1.55703e-145
1.00003
1.00001
1
0.999997
0.999993
0.99999
0.999948
0.981789
0.856459
0.86634
0.940219
0.686476
0.201047
0.0231752
0.00121413
1.06479e-05
4.58795e-10
1.59263e-13
5.89811e-20
2.85555e-28
1.08572e-37
1.27032e-45
4.61856e-52
1.00284e-58
1.80198e-71
1.99732e-74
1.46559e-77
5.44636e-81
1.21347e-84
5.14306e-88
2.59732e-92
1.07389e-96
5.50711e-101
1.60014e-107
1.32826e-113
1.36436e-121
4.24796e-133
3.04858e-146
5.30379e-146
1.00003
1.00001
1
0.999997
0.99999
0.999989
0.999988
0.986838
0.851694
0.858072
0.930954
0.659817
0.183594
0.0206867
0.00109097
1.14856e-05
4.70117e-10
1.61966e-13
7.32835e-20
3.13899e-28
1.2069e-37
1.44618e-45
5.15418e-52
1.16354e-58
2.05448e-71
2.28373e-74
1.7045e-77
6.44375e-81
1.44079e-84
6.36934e-88
3.25526e-92
1.78651e-96
5.75625e-101
1.88705e-107
2.12496e-113
3.4097e-121
5.20984e-133
1.30134e-146
2.08203e-146
1.00003
1.00001
1
1
0.999988
0.999989
0.999997
0.987264
0.845897
0.850025
0.920524
0.629864
0.167116
0.0184878
0.000983701
1.23708e-05
4.87313e-10
1.65284e-13
9.04308e-20
3.47256e-28
1.35145e-37
1.66145e-45
5.79976e-52
1.36093e-58
2.3843e-71
2.64547e-74
2.00266e-77
7.73772e-81
1.73336e-84
7.89653e-88
4.23753e-92
2.83312e-96
5.84641e-101
2.44427e-107
2.96646e-113
6.70034e-121
8.42239e-133
6.21108e-147
8.69912e-147
1.00003
1.00001
1
1
0.999988
0.999988
0.999997
0.985383
0.836999
0.841641
0.909193
0.595938
0.151566
0.0165479
0.000890741
1.33258e-05
5.12362e-10
1.69351e-13
1.10897e-19
3.86816e-28
1.52505e-37
1.92646e-45
6.5825e-52
1.60456e-58
2.79441e-71
3.1058e-74
2.37736e-77
9.42925e-81
2.11363e-84
9.79862e-88
5.71228e-92
4.26302e-96
5.8497e-101
3.61454e-107
3.73152e-113
1.05013e-120
1.65701e-132
3.66766e-147
3.72433e-147
1.00003
1.00001
1
1
0.999989
0.999986
0.999997
0.983255
0.82474
0.832903
0.896153
0.558533
0.137076
0.0148491
0.000810911
1.43806e-05
5.47979e-10
1.74312e-13
1.35252e-19
4.34081e-28
1.73496e-37
2.2546e-45
7.53733e-52
1.9067e-58
3.31434e-71
3.69628e-74
2.85168e-77
1.16574e-80
2.61281e-84
1.21722e-87
7.92741e-92
6.1002e-96
5.80491e-101
6.07426e-107
4.35562e-113
1.39434e-120
3.1214e-132
3.20825e-147
1.59269e-147
1.00003
1.00001
1
1
0.99999
0.999985
0.999997
0.97961
0.810282
0.823851
0.880347
0.519435
0.123833
0.0133774
0.000743141
1.55547e-05
5.97805e-10
1.80313e-13
1.64173e-19
1.00003
1.00001
1
0.999999
0.999991
0.999986
0.999997
0.97499
0.794056
0.814476
0.861161
0.480596
0.111977
0.0121166
0.000686317
1.67929e-05
6.66765e-10
0.838668
0.443705
1
1.00001
0.999998
0.999993
0.999972
0.999595
0.996172
0.98929
0.986335
0.991938
0.997655
0.989818
0.814591
0.309157
0.0279726
0.000549097
4.81231e-06
2.4874e-08
4.71209e-11
1.0418e-14
2.05356e-18
3.57543e-21
5.00539e-24
5.43013e-27
4.30214e-30
2.24088e-33
6.06185e-37
2.54347e-41
8.57222e-58
5.55091e-89
4.17589e-93
4.74978e-94
6.66337e-91
7.98908e-88
8.61871e-85
8.70993e-82
8.53676e-79
4.41422e-76
2.82463e-64
1
1.00001
0.999999
0.999994
0.99997
0.999609
0.996077
0.988358
0.984208
0.990048
0.997387
0.994287
0.855486
0.36084
0.0369073
0.00076221
6.46508e-06
3.11284e-08
4.80921e-11
5.63787e-15
2.31785e-18
3.9947e-21
5.51661e-24
5.86655e-27
4.50683e-30
2.22863e-33
5.40064e-37
8.01065e-42
-1.26864e-57
5.92653e-89
4.15168e-93
7.96992e-98
6.8915e-103
-3.42608e-105
3.18983e-103
6.43273e-98
2.39867e-92
-6.26352e-92
1.77378e-73
1
1.00001
0.999999
0.999994
0.999971
0.999642
0.996236
0.987986
0.982902
0.988686
0.996165
0.995685
0.87362
0.388544
0.0425121
0.000901246
7.39382e-06
3.30531e-08
3.71864e-11
1.16447e-15
2.4286e-18
4.15349e-21
5.66383e-24
5.89686e-27
4.36895e-30
2.02058e-33
4.16897e-37
1.30633e-54
-4.03722e-60
6.05991e-89
3.93106e-93
7.86693e-98
6.82063e-103
5.86842e-109
3.86728e-102
2.01864e-100
7.0737e-102
3.293e-99
1.63016e-92
1
1.00001
1
0.999994
0.999972
0.999675
0.996489
0.987717
0.981299
0.986989
0.995512
0.996753
0.891725
0.418624
0.0491057
0.00106894
8.34881e-06
3.36812e-08
2.30915e-11
1.22189e-15
2.5282e-18
4.26643e-21
5.69298e-24
5.7237e-27
4.00103e-30
1.66072e-33
2.56119e-37
-1.08329e-50
-5.03438e-60
6.53896e-89
3.72789e-93
6.78321e-98
6.28135e-103
3.84083e-109
6.887e-110
5.59238e-107
4.37389e-104
1.82155e-101
2.44213e-94
1
1.00001
1
0.999995
0.999971
0.999701
0.996738
0.98759
0.979678
0.985266
0.994747
0.997219
0.90621
0.445416
0.05553
0.00123444
9.03412e-06
3.2198e-08
8.65069e-12
1.21099e-15
2.46835e-18
4.09514e-21
5.31808e-24
5.10599e-27
3.29286e-30
1.1609e-33
9.69511e-38
-1.32156e-43
-1.31029e-60
6.82569e-89
3.55093e-93
5.87811e-98
6.14411e-103
3.84294e-109
1.05235e-115
1.92508e-120
3.61737e-118
-1.89785e-111
1.53307e-98
1
1.00001
1
0.999995
0.99997
0.999722
0.996973
0.987537
0.977983
0.983526
0.993976
0.997345
0.917977
0.469287
0.061679
0.00139046
9.32641e-06
2.78404e-08
3.00969e-12
-5.3643e-15
-2.08749e-17
-3.75427e-20
-5.35728e-23
-6.1077e-26
-5.28375e-29
-3.12726e-32
-1.00496e-35
-2.72657e-40
2.49869e-85
6.81512e-89
3.40435e-93
5.16798e-98
6.1488e-103
3.82211e-109
1.0557e-115
1.82165e-123
2.78747e-123
-1.47699e-120
1.67681e-120
1
1.00001
1
0.999995
0.999969
0.999739
0.997158
0.987484
0.976229
0.981781
0.993138
0.997345
0.92701
0.489259
0.0671356
0.00151954
9.32648e-06
2.271e-08
6.84646e-13
-7.1223e-15
-2.04437e-17
-3.62176e-20
-5.09124e-23
-5.64056e-26
-4.6057e-29
-2.47974e-32
-6.11051e-36
-5.5404e-43
2.50271e-85
7.16917e-89
3.29354e-93
4.66225e-98
6.93737e-103
4.0343e-109
1.63432e-115
1.50048e-123
7.56098e-125
-1.82567e-121
2.1252e-115
1
1.00001
1
0.999994
0.999969
0.999753
0.997294
0.987314
0.974401
0.980016
0.992205
0.997345
0.933511
0.504646
0.0715046
0.00160556
8.9329e-06
1.6221e-08
4.8319e-13
-7.77031e-15
-1.99381e-17
-3.47494e-20
-4.78515e-23
-5.07934e-26
-3.88989e-29
-1.77584e-32
-2.46869e-36
-6.64623e-48
2.50524e-85
7.34566e-89
3.22114e-93
4.35977e-98
9.94146e-103
4.86168e-109
2.1363e-115
1.49193e-123
7.81513e-135
-1.59782e-125
1.84013e-119
1
1.00001
1
0.999993
0.99997
0.999764
0.997389
0.987012
0.972487
0.978226
0.99128
0.997334
0.93766
0.514883
0.0743975
0.00164202
8.41099e-06
9.12002e-09
4.36402e-13
-7.59884e-15
-1.85492e-17
-3.19374e-20
-4.27355e-23
-4.34179e-26
-2.97114e-29
-1.06502e-32
-5.2211e-38
1.88806e-74
2.51503e-85
7.51391e-89
3.18514e-93
4.22778e-98
1.55405e-102
6.20081e-109
2.49299e-115
1.28289e-123
3.65642e-136
2.48991e-139
4.87195e-139
1
1.00001
1
0.999991
0.999971
0.999775
0.997462
0.986589
0.970487
0.976395
0.990392
0.997307
0.939718
0.52005
0.075813
0.00165221
7.50913e-06
3.19985e-09
3.73526e-13
-7.06776e-15
-1.64148e-17
-2.77853e-20
-3.62673e-23
-3.40072e-26
-2.00726e-29
-4.76125e-33
-2.24604e-40
1.9992e-82
2.52737e-85
7.64086e-89
3.17479e-93
4.19622e-98
2.28226e-102
7.70314e-109
2.65745e-115
1.10781e-123
5.68821e-136
3.11262e-139
1.56821e-137
1
1.00001
1
0.999991
0.999971
0.999784
0.997509
0.986068
0.96839
0.974504
0.989547
0.997264
0.940459
0.521845
0.0762543
0.00164067
6.22872e-06
7.50253e-10
-1.0673e-12
-6.84225e-15
-1.52749e-17
-2.45826e-20
-2.97611e-23
-2.50219e-26
-1.18337e-29
-1.03657e-33
-6.97747e-47
1.62861e-81
2.54099e-85
7.72762e-89
3.19054e-93
4.28101e-98
3.04252e-102
9.14436e-109
2.69567e-115
1.01363e-123
1.53145e-135
3.07601e-139
5.10139e-138
1
1.00001
1
0.999991
0.999971
0.999792
0.997551
0.985478
0.966181
0.972543
0.988758
0.997201
0.940539
0.521834
0.0759982
0.00155846
4.67645e-06
3.01035e-10
-1.2428e-12
-5.93737e-15
-1.22798e-17
-1.8699e-20
-2.07711e-23
-1.49431e-26
-4.88151e-30
-8.8618e-37
5.14783e-78
1.65398e-81
2.55712e-85
7.76811e-89
3.32082e-93
4.95909e-98
3.69679e-102
1.03729e-108
2.68596e-115
9.8279e-124
3.4289e-135
3.07842e-139
2.17004e-138
1
1.00001
1
0.999991
0.999971
0.999798
0.997552
0.984838
0.963832
0.970511
0.988048
0.997116
0.938848
0.516551
0.0738345
0.00141318
3.07434e-06
9.34288e-11
-1.13958e-12
-4.66343e-15
-9.02031e-18
-1.27175e-20
-1.24928e-23
-7.12892e-27
-1.08519e-30
-1.83049e-40
4.16556e-78
1.66487e-81
2.57774e-85
7.77518e-89
3.54435e-93
6.50813e-98
4.13956e-102
1.12408e-108
2.56509e-115
9.86455e-124
5.58302e-135
2.86736e-139
6.92677e-139
1
1.00001
1
0.999991
0.99997
0.999799
0.997568
0.984143
0.961325
0.968416
0.987452
0.996997
0.934584
0.504511
0.0696454
0.00122499
1.6973e-06
5.39626e-11
-9.28115e-13
-3.36217e-15
-6.03621e-18
-7.68079e-21
-6.35674e-24
-2.51328e-27
-7.95156e-33
-2.59808e-48
4.06077e-78
1.67689e-81
2.60192e-85
7.75858e-89
3.80797e-93
8.70823e-98
4.34756e-102
1.16708e-108
2.31292e-115
1.20923e-123
7.15609e-135
2.18062e-139
3.05027e-139
1
1.00001
1
0.999992
0.999968
0.999799
0.99755
0.983348
0.958645
0.966271
0.98699
0.996798
0.927726
0.486576
0.0639157
0.00101483
7.34233e-07
3.63185e-11
-6.92523e-13
-2.20625e-15
-3.62199e-18
-4.02538e-21
-2.61415e-24
-5.07308e-28
-2.72897e-35
8.27759e-75
4.05422e-78
1.68833e-81
2.63101e-85
7.71007e-89
4.11707e-93
1.12857e-97
4.39702e-102
1.1774e-108
2.00651e-115
1.87146e-123
7.88339e-135
1.65716e-139
1.93186e-139
1
1.00001
1
0.999992
0.999967
0.99979
0.997507
0.982422
0.95577
0.964094
0.986661
0.996434
0.918342
0.463864
0.0572131
0.000805355
2.78033e-07
2.35168e-11
-5.39824e-13
-1.35226e-15
-1.97216e-18
-1.82024e-21
-8.0931e-25
-1.916e-30
-2.00144e-45
8.26811e-75
4.03438e-78
1.69936e-81
2.66544e-85
7.63662e-89
4.48497e-93
1.40637e-97
4.38523e-102
1.17393e-108
1.71969e-115
2.68004e-123
8.03878e-135
1.24932e-139
1.42946e-139
1.00001
1.00001
1
0.999992
0.999966
0.999788
0.997454
0.981345
0.952684
0.961896
0.98645
0.995778
0.906256
0.4373
0.0500567
0.00061366
1.44674e-07
1.47131e-11
-3.6637e-13
-7.78687e-16
-9.7083e-19
-6.90571e-22
-1.48472e-25
-7.34155e-32
7.33304e-72
8.24799e-75
4.02539e-78
1.71067e-81
2.70612e-85
7.54729e-89
4.90887e-93
1.68991e-97
4.2457e-102
1.14518e-108
1.49855e-115
3.25362e-123
7.97109e-135
9.55088e-140
1.0906e-139
1.00001
1
1
0.999993
0.999965
0.999789
0.99735
0.980097
0.949377
0.959687
0.986325
0.994725
0.891168
0.407583
0.0428683
0.000449239
9.44097e-08
8.70073e-12
-2.34396e-13
-4.26492e-16
-4.33065e-19
-2.0688e-22
-2.17056e-27
-1.53124e-44
7.20506e-72
8.25016e-75
4.02403e-78
1.72262e-81
2.75401e-85
7.45189e-89
5.37752e-93
1.96401e-97
3.94963e-102
1.09085e-108
1.3637e-115
3.49551e-123
7.41344e-135
7.33076e-140
9.4508e-140
1.00001
1
1
0.999993
0.999964
0.999786
0.997217
0.978665
0.945847
0.957465
0.986242
0.993216
0.872662
0.375281
0.0359478
0.00031564
6.09335e-08
-4.7546e-12
-1.43278e-13
-2.19735e-16
-1.70168e-19
-3.80674e-23
-4.47874e-29
2.73241e-59
7.1562e-72
8.25772e-75
4.05256e-78
1.73589e-81
2.81024e-85
7.36148e-89
5.87998e-93
2.2125e-97
3.55199e-102
1.02496e-108
1.30855e-115
3.53853e-123
6.43049e-135
5.37737e-140
8.40857e-140
1.00001
1
1
0.999994
0.999964
0.99978
0.997056
0.977051
0.942101
0.955217
0.986143
0.991209
0.850308
0.341016
0.0295288
0.000212632
3.76705e-08
-9.15597e-12
-8.22648e-14
-1.03562e-16
-5.40573e-20
-1.08093e-24
-3.56869e-31
2.72296e-59
7.12412e-72
8.28495e-75
4.09245e-78
1.75121e-81
2.87617e-85
7.28735e-89
6.40595e-93
2.41721e-97
3.10971e-102
9.61837e-109
1.29809e-115
3.47598e-123
5.38665e-135
3.63891e-140
7.39486e-140
1.00001
1
1
0.999994
0.999964
0.999771
0.996867
0.975269
0.938154
0.952917
0.985941
0.988593
0.823728
0.305576
0.0237927
0.000137378
2.22118e-08
-8.32736e-12
-4.46056e-14
-4.28272e-17
-1.07943e-20
-4.42025e-26
1.76868e-52
2.74636e-59
7.11259e-72
8.32523e-75
4.15059e-78
1.76946e-81
2.95339e-85
7.239e-89
6.94459e-93
2.55695e-97
2.66589e-102
9.12734e-109
1.46095e-115
3.19334e-123
4.51353e-135
2.18688e-140
4.9647e-140
1.00001
1
1
0.999994
0.999964
0.999759
0.996655
0.973341
0.934023
0.950529
0.985566
0.985084
0.792728
0.269888
0.0188585
8.5284e-05
1.24839e-08
-5.44541e-12
-2.19218e-14
-1.46058e-17
-5.07012e-22
-1.8086e-26
1.8551e-52
2.7815e-59
7.12047e-72
8.38631e-75
4.23241e-78
1.79166e-81
3.04381e-85
7.21956e-89
7.4853e-93
2.62086e-97
2.25426e-102
8.84339e-109
2.33956e-115
2.80318e-123
3.88234e-135
1.21869e-140
3.36015e-140
1.00001
1
1
0.999994
0.999963
0.999746
0.996427
0.971294
0.929728
0.948013
0.985019
0.980356
0.757188
0.23493
0.0147693
5.10211e-05
6.6816e-09
-3.24714e-12
-9.81997e-15
-3.56461e-18
-1.72961e-22
-2.31626e-29
1.84796e-52
2.85354e-59
7.1866e-72
8.47034e-75
4.33767e-78
1.81903e-81
3.14975e-85
7.23355e-89
8.01905e-93
2.63281e-97
1.90221e-102
8.75083e-109
4.084e-115
2.49057e-123
3.47936e-135
5.4534e-141
2.03705e-140
1.00001
1
1
0.999994
0.999963
0.999732
0.996185
0.969161
0.925286
0.94533
0.984383
0.973896
0.717205
0.20165
0.0114974
2.94958e-05
3.39356e-09
-2.06777e-12
-3.95703e-15
-1.79003e-19
-5.37946e-23
4.69808e-46
1.93742e-52
2.93349e-59
7.26679e-72
8.58226e-75
4.47097e-78
1.85301e-81
3.27398e-85
7.37755e-89
8.5393e-93
2.61564e-97
1.63092e-102
8.86063e-109
6.25369e-115
2.33249e-123
3.2578e-135
1.54748e-141
8.78187e-141
1.00001
1
1
0.999993
0.999965
0.99972
0.995956
0.966957
0.920713
0.94245
0.983635
0.965286
0.673243
0.170888
0.00896088
1.64921e-05
1.62113e-09
-1.25662e-12
-1.29572e-15
-1.01397e-19
-8.05681e-24
4.89547e-46
1.99272e-52
3.04019e-59
7.38593e-72
8.72713e-75
4.63563e-78
1.8953e-81
3.4199e-85
7.58822e-89
9.04262e-93
2.54936e-97
1.45285e-102
1.03979e-108
8.31983e-115
2.2919e-123
3.1626e-135
8.48155e-143
4.91458e-142
1.00001
1
1
0.999993
0.999967
0.999707
0.995703
0.964756
0.916021
0.939347
0.982761
0.954217
0.626146
0.143296
0.00704529
8.92631e-06
7.16238e-10
-6.81215e-13
-2.37675e-16
-3.22866e-20
-5.69834e-25
5.01931e-46
2.0664e-52
3.17695e-59
7.5372e-72
8.91122e-75
4.83641e-78
1.94793e-81
3.5917e-85
7.93746e-89
9.52929e-93
2.44077e-97
1.36532e-102
1.41558e-108
9.85757e-115
2.53505e-123
3.1388e-135
7.67534e-144
3.19385e-143
1.00001
1
1
0.999993
0.99997
0.999708
0.995529
0.962436
0.911236
0.935999
0.981752
0.940442
0.577091
0.119273
0.00562508
4.78279e-06
2.88569e-10
-3.01554e-13
-2.4045e-18
-1.24545e-20
-5.62648e-27
5.11998e-46
2.14811e-52
3.34561e-59
7.79531e-72
9.14199e-75