/*--------------------------------*- C++ -*----------------------------------*\
| =========                 |                                                 |
| \\      /  F ield         | OpenFOAM: The Open Source CFD Toolbox           |
|  \\    /   O peration     | Version:  v2012                                 |
|   \\  /    A nd           | Website:  www.openfoam.com                      |
|    \\/     M anipulation  |                                                 |
\*---------------------------------------------------------------------------*/
FoamFile
{
    version     2.0;
    format      ascii;
    class       volScalarField;
    location    "0.55";
    object      p_rgh;
}
// * * * * * * * * * * * * * * * * * * * * * * * * * * * * * * * * * * * * * //

dimensions      [1 -1 -2 0 0 0 0];


internalField   nonuniform List<scalar> 
3352
(
3.49553e+06
3.50023e+06
3.49642e+06
3.49777e+06
3.49698e+06
3.50032e+06
3.49907e+06
3.49936e+06
3.50015e+06
3.49963e+06
3.5004e+06
3.49994e+06
3.49974e+06
3.49822e+06
3.49811e+06
3.49903e+06
3.49954e+06
3.49999e+06
3.50032e+06
3.50058e+06
3.50078e+06
3.50092e+06
3.501e+06
3.50105e+06
3.50106e+06
3.50105e+06
3.50101e+06
3.50096e+06
3.50089e+06
3.50081e+06
3.50073e+06
3.50063e+06
3.50053e+06
3.50042e+06
3.50031e+06
3.50019e+06
3.50007e+06
3.49993e+06
3.49976e+06
3.49675e+06
3.50504e+06
3.49717e+06
3.50393e+06
3.49819e+06
3.49841e+06
3.49647e+06
3.49799e+06
3.50046e+06
3.50159e+06
3.50356e+06
3.502e+06
3.50187e+06
3.49898e+06
3.49778e+06
3.49885e+06
3.49922e+06
3.49951e+06
3.49963e+06
3.49973e+06
3.4998e+06
3.49986e+06
3.49992e+06
3.49998e+06
3.50003e+06
3.50008e+06
3.50011e+06
3.50014e+06
3.50015e+06
3.50015e+06
3.50014e+06
3.50011e+06
3.50008e+06
3.50003e+06
3.49996e+06
3.49988e+06
3.49979e+06
3.49967e+06
3.49952e+06
3.49732e+06
3.50622e+06
3.49784e+06
3.50498e+06
3.499e+06
3.50195e+06
3.49899e+06
3.50064e+06
3.50176e+06
3.50242e+06
3.50389e+06
3.50311e+06
3.50276e+06
3.49968e+06
3.49763e+06
3.49852e+06
3.49894e+06
3.49935e+06
3.49957e+06
3.49974e+06
3.49984e+06
3.49991e+06
3.49994e+06
3.49997e+06
3.49997e+06
3.49997e+06
3.49996e+06
3.49995e+06
3.49993e+06
3.4999e+06
3.49987e+06
3.49983e+06
3.49978e+06
3.49973e+06
3.49967e+06
3.4996e+06
3.49952e+06
3.49943e+06
3.49931e+06
3.5002e+06
3.50954e+06
3.5007e+06
3.50834e+06
3.50173e+06
3.50497e+06
3.50193e+06
3.50348e+06
3.50368e+06
3.50427e+06
3.50537e+06
3.5048e+06
3.50431e+06
3.50087e+06
3.49803e+06
3.49859e+06
3.49884e+06
3.49914e+06
3.49927e+06
3.49939e+06
3.49946e+06
3.49952e+06
3.49955e+06
3.49958e+06
3.49961e+06
3.49962e+06
3.49962e+06
3.49962e+06
3.49961e+06
3.4996e+06
3.49957e+06
3.49954e+06
3.4995e+06
3.49946e+06
3.4994e+06
3.49934e+06
3.49927e+06
3.49919e+06
3.49909e+06
3.50386e+06
3.51107e+06
3.50381e+06
3.51018e+06
3.50473e+06
3.50774e+06
3.50533e+06
3.50649e+06
3.50565e+06
3.50573e+06
3.50637e+06
3.50627e+06
3.50555e+06
3.50198e+06
3.49852e+06
3.49874e+06
3.49884e+06
3.49905e+06
3.49914e+06
3.49923e+06
3.49927e+06
3.49931e+06
3.49933e+06
3.49934e+06
3.49935e+06
3.49935e+06
3.49934e+06
3.49934e+06
3.49933e+06
3.49931e+06
3.49929e+06
3.49926e+06
3.49923e+06
3.49919e+06
3.49914e+06
3.49909e+06
3.49902e+06
3.49896e+06
3.49887e+06
3.50725e+06
3.5121e+06
3.50712e+06
3.51125e+06
3.50764e+06
3.50962e+06
3.50821e+06
3.50883e+06
3.50759e+06
3.50718e+06
3.50748e+06
3.50763e+06
3.50678e+06
3.50312e+06
3.49912e+06
3.49896e+06
3.49887e+06
3.49896e+06
3.49896e+06
3.499e+06
3.49901e+06
3.49902e+06
3.49903e+06
3.49904e+06
3.49905e+06
3.49905e+06
3.49905e+06
3.49904e+06
3.49903e+06
3.49902e+06
3.499e+06
3.49898e+06
3.49895e+06
3.49892e+06
3.49888e+06
3.49883e+06
3.49878e+06
3.49872e+06
3.49866e+06
3.51009e+06
3.51158e+06
3.50966e+06
3.51126e+06
3.50968e+06
3.51043e+06
3.51005e+06
3.51013e+06
3.50899e+06
3.50817e+06
3.50834e+06
3.50861e+06
3.50768e+06
3.504e+06
3.49964e+06
3.49915e+06
3.4989e+06
3.49886e+06
3.4988e+06
3.49879e+06
3.49877e+06
3.49876e+06
3.49876e+06
3.49876e+06
3.49876e+06
3.49876e+06
3.49876e+06
3.49875e+06
3.49874e+06
3.49873e+06
3.49872e+06
3.4987e+06
3.49868e+06
3.49865e+06
3.49862e+06
3.49858e+06
3.49854e+06
3.49849e+06
3.49844e+06
3.51198e+06
3.51056e+06
3.5115e+06
3.5107e+06
3.51089e+06
3.51042e+06
3.51091e+06
3.51051e+06
3.50986e+06
3.50877e+06
3.50898e+06
3.5092e+06
3.50831e+06
3.50464e+06
3.50004e+06
3.49927e+06
3.49887e+06
3.49873e+06
3.4986e+06
3.49854e+06
3.4985e+06
3.49848e+06
3.49847e+06
3.49846e+06
3.49846e+06
3.49846e+06
3.49846e+06
3.49846e+06
3.49845e+06
3.49845e+06
3.49844e+06
3.49842e+06
3.49841e+06
3.49839e+06
3.49836e+06
3.49833e+06
3.4983e+06
3.49826e+06
3.49823e+06
3.51315e+06
3.50905e+06
3.51234e+06
3.50966e+06
3.51128e+06
3.50985e+06
3.51098e+06
3.51017e+06
3.51014e+06
3.50894e+06
3.5093e+06
3.50935e+06
3.5086e+06
3.50492e+06
3.50025e+06
3.49925e+06
3.49876e+06
3.49853e+06
3.49836e+06
3.49827e+06
3.49821e+06
3.49818e+06
3.49817e+06
3.49816e+06
3.49816e+06
3.49816e+06
3.49816e+06
3.49816e+06
3.49816e+06
3.49816e+06
3.49816e+06
3.49815e+06
3.49814e+06
3.49812e+06
3.4981e+06
3.49808e+06
3.49806e+06
3.49803e+06
3.49801e+06
3.51337e+06
3.50755e+06
3.51243e+06
3.50848e+06
3.51105e+06
3.50897e+06
3.51051e+06
3.50943e+06
3.50998e+06
3.50873e+06
3.50929e+06
3.50912e+06
3.50857e+06
3.50483e+06
3.50022e+06
3.49906e+06
3.49853e+06
3.49826e+06
3.49806e+06
3.49796e+06
3.49789e+06
3.49786e+06
3.49785e+06
3.49785e+06
3.49785e+06
3.49785e+06
3.49786e+06
3.49787e+06
3.49787e+06
3.49788e+06
3.49788e+06
3.49787e+06
3.49787e+06
3.49786e+06
3.49785e+06
3.49783e+06
3.49782e+06
3.4978e+06
3.49779e+06
3.51286e+06
3.50608e+06
3.51186e+06
3.50724e+06
3.51031e+06
3.50789e+06
3.50973e+06
3.5085e+06
3.50948e+06
3.50819e+06
3.50897e+06
3.50856e+06
3.50821e+06
3.50436e+06
3.49991e+06
3.49869e+06
3.49818e+06
3.49789e+06
3.4977e+06
3.4976e+06
3.49754e+06
3.49752e+06
3.49751e+06
3.49752e+06
3.49753e+06
3.49754e+06
3.49756e+06
3.49757e+06
3.49758e+06
3.49759e+06
3.4976e+06
3.4976e+06
3.4976e+06
3.4976e+06
3.49759e+06
3.49759e+06
3.49758e+06
3.49757e+06
3.49757e+06
3.51161e+06
3.50473e+06
3.51073e+06
3.50595e+06
3.50916e+06
3.50665e+06
3.5087e+06
3.50746e+06
3.5087e+06
3.50731e+06
3.50833e+06
3.50764e+06
3.50756e+06
3.50358e+06
3.49938e+06
3.49815e+06
3.4977e+06
3.49742e+06
3.49727e+06
3.49719e+06
3.49715e+06
3.49715e+06
3.49716e+06
3.49718e+06
3.4972e+06
3.49723e+06
3.49725e+06
3.49727e+06
3.49729e+06
3.4973e+06
3.49732e+06
3.49733e+06
3.49733e+06
3.49734e+06
3.49734e+06
3.49734e+06
3.49734e+06
3.49734e+06
3.49734e+06
3.50978e+06
3.50343e+06
3.50895e+06
3.50452e+06
3.50761e+06
3.5052e+06
3.50741e+06
3.50624e+06
3.50766e+06
3.50611e+06
3.50737e+06
3.50634e+06
3.50659e+06
3.50251e+06
3.49867e+06
3.49747e+06
3.4971e+06
3.49686e+06
3.49676e+06
3.49673e+06
3.49673e+06
3.49675e+06
3.49679e+06
3.49683e+06
3.49686e+06
3.4969e+06
3.49694e+06
3.49697e+06
3.49699e+06
3.49702e+06
3.49704e+06
3.49705e+06
3.49707e+06
3.49708e+06
3.49708e+06
3.49709e+06
3.4971e+06
3.49711e+06
3.49712e+06
3.50711e+06
3.50205e+06
3.5065e+06
3.50283e+06
3.50563e+06
3.50343e+06
3.50579e+06
3.50476e+06
3.5063e+06
3.50459e+06
3.50608e+06
3.5047e+06
3.5053e+06
3.50108e+06
3.49772e+06
3.4966e+06
3.49637e+06
3.49621e+06
3.49619e+06
3.49621e+06
3.49627e+06
3.49633e+06
3.4964e+06
3.49646e+06
3.49652e+06
3.49657e+06
3.49662e+06
3.49666e+06
3.4967e+06
3.49673e+06
3.49676e+06
3.49678e+06
3.4968e+06
3.49682e+06
3.49683e+06
3.49685e+06
3.49686e+06
3.49687e+06
3.49689e+06
3.50388e+06
3.50017e+06
3.50343e+06
3.50069e+06
3.50321e+06
3.5012e+06
3.50379e+06
3.50287e+06
3.50454e+06
3.50277e+06
3.5044e+06
3.50277e+06
3.50365e+06
3.49928e+06
3.4965e+06
3.49554e+06
3.49552e+06
3.49546e+06
3.49556e+06
3.49565e+06
3.49577e+06
3.49588e+06
3.49599e+06
3.49608e+06
3.49617e+06
3.49624e+06
3.4963e+06
3.49635e+06
3.4964e+06
3.49644e+06
3.49647e+06
3.4965e+06
3.49653e+06
3.49655e+06
3.49658e+06
3.4966e+06
3.49662e+06
3.49664e+06
3.49666e+06
3.50031e+06
3.49738e+06
3.49998e+06
3.49783e+06
3.50043e+06
3.4984e+06
3.50133e+06
3.50048e+06
3.5023e+06
3.50063e+06
3.50226e+06
3.50057e+06
3.50159e+06
3.49711e+06
3.49501e+06
3.49431e+06
3.49454e+06
3.49463e+06
3.49486e+06
3.49505e+06
3.49525e+06
3.49542e+06
3.49557e+06
3.4957e+06
3.49581e+06
3.4959e+06
3.49598e+06
3.49605e+06
3.4961e+06
3.49615e+06
3.49619e+06
3.49623e+06
3.49626e+06
3.49629e+06
3.49632e+06
3.49635e+06
3.49638e+06
3.49641e+06
3.49644e+06
3.49711e+06
3.49305e+06
3.49644e+06
3.49395e+06
3.49743e+06
3.49493e+06
3.49846e+06
3.49738e+06
3.49954e+06
3.49814e+06
3.4996e+06
3.49806e+06
3.49908e+06
3.49465e+06
3.4933e+06
3.49292e+06
3.49346e+06
3.49374e+06
3.49412e+06
3.49442e+06
3.49471e+06
3.49494e+06
3.49514e+06
3.49531e+06
3.49545e+06
3.49556e+06
3.49566e+06
3.49574e+06
3.4958e+06
3.49586e+06
3.49591e+06
3.49596e+06
3.496e+06
3.49603e+06
3.49607e+06
3.4961e+06
3.49614e+06
3.49617e+06
3.49621e+06
3.49476e+06
3.48713e+06
3.49346e+06
3.48899e+06
3.49429e+06
3.49076e+06
3.49515e+06
3.49355e+06
3.49624e+06
3.49527e+06
3.49642e+06
3.49523e+06
3.49612e+06
3.49194e+06
3.49141e+06
3.49144e+06
3.49231e+06
3.49279e+06
3.49336e+06
3.49378e+06
3.49416e+06
3.49446e+06
3.49471e+06
3.49492e+06
3.49508e+06
3.49522e+06
3.49533e+06
3.49543e+06
3.4955e+06
3.49557e+06
3.49563e+06
3.49568e+06
3.49573e+06
3.49577e+06
3.49582e+06
3.49586e+06
3.4959e+06
3.49594e+06
3.49598e+06
3.49318e+06
3.4801e+06
3.491e+06
3.48335e+06
3.49105e+06
3.48608e+06
3.49144e+06
3.48914e+06
3.49244e+06
3.49204e+06
3.49277e+06
3.4921e+06
3.49275e+06
3.48911e+06
3.48943e+06
3.48991e+06
3.49113e+06
3.49184e+06
3.49258e+06
3.49313e+06
3.4936e+06
3.49398e+06
3.49428e+06
3.49452e+06
3.49472e+06
3.49488e+06
3.49501e+06
3.49512e+06
3.4952e+06
3.49528e+06
3.49535e+06
3.49541e+06
3.49546e+06
3.49551e+06
3.49556e+06
3.49561e+06
3.49566e+06
3.4957e+06
3.49575e+06
3.49197e+06
3.47323e+06
3.48888e+06
3.47789e+06
3.48773e+06
3.48127e+06
3.48729e+06
3.48445e+06
3.48819e+06
3.48847e+06
3.4887e+06
3.48872e+06
3.48906e+06
3.48627e+06
3.48743e+06
3.4884e+06
3.48995e+06
3.49089e+06
3.49182e+06
3.49249e+06
3.49306e+06
3.4935e+06
3.49386e+06
3.49414e+06
3.49436e+06
3.49454e+06
3.49469e+06
3.49481e+06
3.49491e+06
3.49499e+06
3.49507e+06
3.49513e+06
3.49519e+06
3.49525e+06
3.49531e+06
3.49536e+06
3.49541e+06
3.49547e+06
3.49552e+06
3.48984e+06
3.46752e+06
3.48666e+06
3.47326e+06
3.48397e+06
3.47692e+06
3.48273e+06
3.47981e+06
3.48358e+06
3.48468e+06
3.48426e+06
3.48519e+06
3.48522e+06
3.48355e+06
3.4855e+06
3.48696e+06
3.48883e+06
3.49e+06
3.49109e+06
3.49188e+06
3.49254e+06
3.49305e+06
3.49345e+06
3.49376e+06
3.49401e+06
3.49421e+06
3.49437e+06
3.4945e+06
3.49461e+06
3.4947e+06
3.49478e+06
3.49486e+06
3.49493e+06
3.49499e+06
3.49505e+06
3.49511e+06
3.49517e+06
3.49523e+06
3.49529e+06
3.4872e+06
3.46346e+06
3.48393e+06
3.46974e+06
3.47988e+06
3.47311e+06
3.47794e+06
3.47535e+06
3.47874e+06
3.48082e+06
3.47953e+06
3.48162e+06
3.48136e+06
3.48109e+06
3.4837e+06
3.48567e+06
3.48779e+06
3.48918e+06
3.49042e+06
3.49132e+06
3.49206e+06
3.49262e+06
3.49306e+06
3.4934e+06
3.49367e+06
3.49389e+06
3.49406e+06
3.4942e+06
3.49431e+06
3.49441e+06
3.4945e+06
3.49458e+06
3.49466e+06
3.49473e+06
3.4948e+06
3.49486e+06
3.49493e+06
3.495e+06
3.49506e+06
3.48305e+06
3.46138e+06
3.48037e+06
3.46712e+06
3.47556e+06
3.4698e+06
3.47313e+06
3.47113e+06
3.47384e+06
3.47704e+06
3.47464e+06
3.4781e+06
3.47766e+06
3.47898e+06
3.48211e+06
3.48455e+06
3.48689e+06
3.48847e+06
3.48983e+06
3.49082e+06
3.49161e+06
3.49222e+06
3.49269e+06
3.49306e+06
3.49334e+06
3.49357e+06
3.49375e+06
3.4939e+06
3.49402e+06
3.49413e+06
3.49422e+06
3.49431e+06
3.49439e+06
3.49447e+06
3.49454e+06
3.49462e+06
3.49469e+06
3.49476e+06
3.49483e+06
3.47769e+06
3.46058e+06
3.47586e+06
3.46513e+06
3.47124e+06
3.46685e+06
3.46848e+06
3.4672e+06
3.46909e+06
3.47348e+06
3.46975e+06
3.47478e+06
3.47429e+06
3.47731e+06
3.48078e+06
3.48367e+06
3.48614e+06
3.48789e+06
3.48932e+06
3.49039e+06
3.49122e+06
3.49186e+06
3.49235e+06
3.49273e+06
3.49303e+06
3.49326e+06
3.49345e+06
3.4936e+06
3.49373e+06
3.49384e+06
3.49394e+06
3.49403e+06
3.49412e+06
3.49421e+06
3.49429e+06
3.49437e+06
3.49445e+06
3.49452e+06
3.4946e+06
3.47142e+06
3.46084e+06
3.47101e+06
3.46347e+06
3.46723e+06
3.46411e+06
3.46416e+06
3.46357e+06
3.46467e+06
3.47026e+06
3.46514e+06
3.47181e+06
3.47142e+06
3.47616e+06
3.47977e+06
3.48305e+06
3.48558e+06
3.48745e+06
3.48893e+06
3.49003e+06
3.49089e+06
3.49154e+06
3.49204e+06
3.49243e+06
3.49273e+06
3.49296e+06
3.49315e+06
3.49331e+06
3.49344e+06
3.49356e+06
3.49366e+06
3.49376e+06
3.49385e+06
3.49394e+06
3.49403e+06
3.49412e+06
3.4942e+06
3.49429e+06
3.49437e+06
3.46562e+06
3.46118e+06
3.46646e+06
3.46187e+06
3.4639e+06
3.46156e+06
3.46025e+06
3.46029e+06
3.46078e+06
3.46753e+06
3.4611e+06
3.46934e+06
3.46922e+06
3.47554e+06
3.4791e+06
3.48272e+06
3.48522e+06
3.48718e+06
3.48865e+06
3.48977e+06
3.49062e+06
3.49127e+06
3.49176e+06
3.49214e+06
3.49244e+06
3.49267e+06
3.49286e+06
3.49302e+06
3.49315e+06
3.49327e+06
3.49338e+06
3.49349e+06
3.49359e+06
3.49368e+06
3.49378e+06
3.49387e+06
3.49396e+06
3.49405e+06
3.49414e+06
3.46086e+06
3.46163e+06
3.4628e+06
3.46061e+06
3.46127e+06
3.45939e+06
3.45677e+06
3.45734e+06
3.45752e+06
3.4654e+06
3.4579e+06
3.46748e+06
3.46782e+06
3.47546e+06
3.47884e+06
3.48268e+06
3.48509e+06
3.48707e+06
3.4885e+06
3.48959e+06
3.49042e+06
3.49104e+06
3.49151e+06
3.49188e+06
3.49216e+06
3.49239e+06
3.49257e+06
3.49273e+06
3.49286e+06
3.49299e+06
3.4931e+06
3.49321e+06
3.49332e+06
3.49342e+06
3.49352e+06
3.49362e+06
3.49372e+06
3.49382e+06
3.49391e+06
3.45764e+06
3.46212e+06
3.46024e+06
3.4599e+06
3.45939e+06
3.45777e+06
3.45372e+06
3.45481e+06
3.45509e+06
3.46396e+06
3.45576e+06
3.46632e+06
3.46735e+06
3.4759e+06
3.47901e+06
3.48295e+06
3.48519e+06
3.48713e+06
3.48847e+06
3.48951e+06
3.49027e+06
3.49085e+06
3.49129e+06
3.49163e+06
3.4919e+06
3.49211e+06
3.49229e+06
3.49244e+06
3.49258e+06
3.4927e+06
3.49282e+06
3.49293e+06
3.49305e+06
3.49316e+06
3.49327e+06
3.49337e+06
3.49348e+06
3.49358e+06
3.49369e+06
3.45526e+06
3.46385e+06
3.45856e+06
3.46033e+06
3.4584e+06
3.45696e+06
3.45127e+06
3.45271e+06
3.4535e+06
3.46327e+06
3.45485e+06
3.46595e+06
3.46787e+06
3.47688e+06
3.47963e+06
3.48353e+06
3.48553e+06
3.48737e+06
3.48856e+06
3.48951e+06
3.49019e+06
3.49071e+06
3.4911e+06
3.4914e+06
3.49164e+06
3.49184e+06
3.49201e+06
3.49215e+06
3.49229e+06
3.49242e+06
3.49254e+06
3.49266e+06
3.49278e+06
3.49289e+06
3.49301e+06
3.49313e+06
3.49324e+06
3.49335e+06
3.49346e+06
3.45301e+06
3.46781e+06
3.4568e+06
3.46279e+06
3.45824e+06
3.45724e+06
3.44958e+06
3.45114e+06
3.45302e+06
3.4634e+06
3.45527e+06
3.46645e+06
3.46945e+06
3.47839e+06
3.48075e+06
3.48442e+06
3.48611e+06
3.48776e+06
3.48876e+06
3.48958e+06
3.49015e+06
3.49059e+06
3.49092e+06
3.49118e+06
3.49139e+06
3.49157e+06
3.49172e+06
3.49186e+06
3.492e+06
3.49213e+06
3.49225e+06
3.49238e+06
3.49251e+06
3.49263e+06
3.49275e+06
3.49288e+06
3.493e+06
3.49312e+06
3.49323e+06
3.45124e+06
3.4743e+06
3.45571e+06
3.46683e+06
3.45908e+06
3.4586e+06
3.44913e+06
3.45014e+06
3.45384e+06
3.46447e+06
3.45707e+06
3.46794e+06
3.47215e+06
3.48046e+06
3.48238e+06
3.48561e+06
3.48692e+06
3.4883e+06
3.48907e+06
3.48972e+06
3.49016e+06
3.4905e+06
3.49076e+06
3.49097e+06
3.49114e+06
3.4913e+06
3.49144e+06
3.49157e+06
3.49171e+06
3.49184e+06
3.49197e+06
3.4921e+06
3.49223e+06
3.49237e+06
3.4925e+06
3.49263e+06
3.49276e+06
3.49288e+06
3.49301e+06
3.45128e+06
3.48109e+06
3.45643e+06
3.4714e+06
3.46093e+06
3.46094e+06
3.45039e+06
3.45028e+06
3.45595e+06
3.46668e+06
3.4603e+06
3.4706e+06
3.47606e+06
3.48314e+06
3.48451e+06
3.48708e+06
3.48795e+06
3.48896e+06
3.48946e+06
3.4899e+06
3.49018e+06
3.49042e+06
3.4906e+06
3.49075e+06
3.49089e+06
3.49102e+06
3.49115e+06
3.49128e+06
3.49141e+06
3.49154e+06
3.49168e+06
3.49182e+06
3.49196e+06
3.4921e+06
3.49224e+06
3.49238e+06
3.49252e+06
3.49265e+06
3.49278e+06
3.45385e+06
3.48628e+06
3.45909e+06
3.47562e+06
3.46347e+06
3.46416e+06
3.45375e+06
3.4531e+06
3.45979e+06
3.47046e+06
3.46513e+06
3.47467e+06
3.48124e+06
3.48643e+06
3.48712e+06
3.4888e+06
3.48915e+06
3.48971e+06
3.48989e+06
3.49011e+06
3.49022e+06
3.49033e+06
3.49043e+06
3.49052e+06
3.49062e+06
3.49073e+06
3.49085e+06
3.49097e+06
3.49111e+06
3.49125e+06
3.49139e+06
3.49154e+06
3.49169e+06
3.49184e+06
3.49199e+06
3.49213e+06
3.49228e+06
3.49242e+06
3.49256e+06
3.45847e+06
3.48845e+06
3.46328e+06
3.47835e+06
3.46603e+06
3.46796e+06
3.45968e+06
3.46045e+06
3.46579e+06
3.47643e+06
3.4717e+06
3.48056e+06
3.48763e+06
3.49032e+06
3.49014e+06
3.4907e+06
3.49046e+06
3.4905e+06
3.49034e+06
3.4903e+06
3.49024e+06
3.49023e+06
3.49024e+06
3.49028e+06
3.49035e+06
3.49043e+06
3.49054e+06
3.49066e+06
3.4908e+06
3.49094e+06
3.4911e+06
3.49125e+06
3.49141e+06
3.49157e+06
3.49173e+06
3.49189e+06
3.49204e+06
3.49219e+06
3.49234e+06
3.4648e+06
3.48699e+06
3.46825e+06
3.47922e+06
3.46817e+06
3.47196e+06
3.46848e+06
3.47333e+06
3.47529e+06
3.4847e+06
3.48014e+06
3.48845e+06
3.49492e+06
3.49466e+06
3.49337e+06
3.49268e+06
3.49178e+06
3.49126e+06
3.49076e+06
3.49045e+06
3.49022e+06
3.49008e+06
3.49002e+06
3.49001e+06
3.49005e+06
3.49012e+06
3.49022e+06
3.49034e+06
3.49048e+06
3.49064e+06
3.4908e+06
3.49096e+06
3.49113e+06
3.49131e+06
3.49148e+06
3.49164e+06
3.49181e+06
3.49196e+06
3.49212e+06
3.4726e+06
3.48513e+06
3.47405e+06
3.48022e+06
3.47083e+06
3.47696e+06
3.48002e+06
3.48963e+06
3.48918e+06
3.49431e+06
3.49047e+06
3.49802e+06
3.5027e+06
3.49914e+06
3.49658e+06
3.49457e+06
3.493e+06
3.49191e+06
3.49107e+06
3.49052e+06
3.49012e+06
3.48989e+06
3.48975e+06
3.4897e+06
3.48972e+06
3.48978e+06
3.48988e+06
3.49001e+06
3.49016e+06
3.49032e+06
3.4905e+06
3.49068e+06
3.49086e+06
3.49104e+06
3.49122e+06
3.4914e+06
3.49157e+06
3.49174e+06
3.4919e+06
3.48186e+06
3.48789e+06
3.48167e+06
3.48553e+06
3.47664e+06
3.48544e+06
3.49366e+06
3.50783e+06
3.50845e+06
3.50401e+06
3.50243e+06
3.5086e+06
3.51025e+06
3.50326e+06
3.49942e+06
3.49615e+06
3.49397e+06
3.49236e+06
3.49123e+06
3.49046e+06
3.48994e+06
3.48961e+06
3.48943e+06
3.48936e+06
3.48936e+06
3.48942e+06
3.48953e+06
3.48967e+06
3.48983e+06
3.49001e+06
3.49019e+06
3.49039e+06
3.49058e+06
3.49077e+06
3.49097e+06
3.49115e+06
3.49134e+06
3.49151e+06
3.49168e+06
3.4928e+06
3.49798e+06
3.49151e+06
3.49754e+06
3.48733e+06
3.49919e+06
3.5084e+06
3.52553e+06
3.52768e+06
3.51227e+06
3.51487e+06
3.5189e+06
3.51654e+06
3.50648e+06
3.50154e+06
3.49723e+06
3.49454e+06
3.49253e+06
3.49117e+06
3.49024e+06
3.48963e+06
3.48925e+06
3.48904e+06
3.48896e+06
3.48897e+06
3.48904e+06
3.48916e+06
3.48931e+06
3.48949e+06
3.48968e+06
3.48989e+06
3.49009e+06
3.4903e+06
3.49051e+06
3.49071e+06
3.49091e+06
3.49111e+06
3.49129e+06
3.49147e+06
3.50339e+06
3.51153e+06
3.5021e+06
3.5121e+06
3.50094e+06
3.51501e+06
3.5213e+06
3.5403e+06
3.5421e+06
3.51854e+06
3.52605e+06
3.52748e+06
3.52058e+06
3.50825e+06
3.50255e+06
3.49758e+06
3.49458e+06
3.49232e+06
3.49084e+06
3.48983e+06
3.48918e+06
3.48879e+06
3.48859e+06
3.48851e+06
3.48854e+06
3.48863e+06
3.48877e+06
3.48895e+06
3.48914e+06
3.48936e+06
3.48958e+06
3.4898e+06
3.49003e+06
3.49025e+06
3.49046e+06
3.49067e+06
3.49088e+06
3.49107e+06
3.49126e+06
3.5119e+06
3.51962e+06
3.51085e+06
3.52071e+06
3.51199e+06
3.5247e+06
3.52987e+06
3.54793e+06
3.54595e+06
3.52236e+06
3.53363e+06
3.53278e+06
3.52154e+06
3.50824e+06
3.50225e+06
3.49709e+06
3.49402e+06
3.4917e+06
3.49022e+06
3.48921e+06
3.48859e+06
3.48823e+06
3.48805e+06
3.48802e+06
3.48807e+06
3.48819e+06
3.48837e+06
3.48857e+06
3.48879e+06
3.48902e+06
3.48927e+06
3.48951e+06
3.48975e+06
3.48999e+06
3.49022e+06
3.49044e+06
3.49065e+06
3.49085e+06
3.49105e+06
3.51709e+06
3.51882e+06
3.51566e+06
3.52046e+06
3.51696e+06
3.5251e+06
3.53182e+06
3.54523e+06
3.53931e+06
3.52238e+06
3.53602e+06
3.53373e+06
3.51914e+06
3.50637e+06
3.50058e+06
3.49574e+06
3.49284e+06
3.49067e+06
3.4893e+06
3.4884e+06
3.48786e+06
3.48756e+06
3.48745e+06
3.48747e+06
3.48757e+06
3.48774e+06
3.48795e+06
3.48818e+06
3.48843e+06
3.48869e+06
3.48895e+06
3.48922e+06
3.48948e+06
3.48973e+06
3.48997e+06
3.4902e+06
3.49043e+06
3.49064e+06
3.49084e+06
3.51882e+06
3.51251e+06
3.51681e+06
3.51474e+06
3.51762e+06
3.51945e+06
3.52748e+06
3.53564e+06
3.52701e+06
3.51755e+06
3.53362e+06
3.53031e+06
3.514e+06
3.5029e+06
3.49774e+06
3.49362e+06
3.4911e+06
3.48927e+06
3.48812e+06
3.48739e+06
3.48699e+06
3.48681e+06
3.48679e+06
3.48688e+06
3.48705e+06
3.48726e+06
3.48751e+06
3.48779e+06
3.48807e+06
3.48836e+06
3.48864e+06
3.48893e+06
3.4892e+06
3.48947e+06
3.48973e+06
3.48997e+06
3.49021e+06
3.49043e+06
3.49064e+06
3.51674e+06
3.50401e+06
3.51414e+06
3.50692e+06
3.51505e+06
3.51177e+06
3.51824e+06
3.52251e+06
3.51149e+06
3.50872e+06
3.52726e+06
3.52337e+06
3.50704e+06
3.49827e+06
3.49405e+06
3.49091e+06
3.48895e+06
3.48756e+06
3.48673e+06
3.50903e+06
3.49545e+06
3.50668e+06
3.49842e+06
3.50798e+06
3.5029e+06
3.50507e+06
3.50681e+06
3.49407e+06
3.49713e+06
3.5179e+06
3.51398e+06
3.49919e+06
3.49291e+06
3.48989e+06
3.48782e+06
3.48651e+06
3.50677e+06
3.50343e+06
3.49553e+06
3.50023e+06
3.49642e+06
3.49777e+06
3.49698e+06
3.50032e+06
3.49907e+06
3.49936e+06
3.50015e+06
3.49963e+06
3.5004e+06
3.49994e+06
3.49974e+06
3.49822e+06
3.49811e+06
3.49903e+06
3.49954e+06
3.49999e+06
3.50032e+06
3.50058e+06
3.50078e+06
3.50092e+06
3.501e+06
3.50105e+06
3.50106e+06
3.50105e+06
3.50101e+06
3.50096e+06
3.50089e+06
3.50081e+06
3.50073e+06
3.50063e+06
3.50053e+06
3.50042e+06
3.50031e+06
3.50019e+06
3.50007e+06
3.49993e+06
3.49976e+06
3.49675e+06
3.50504e+06
3.49717e+06
3.50393e+06
3.49819e+06
3.49841e+06
3.49647e+06
3.49799e+06
3.50046e+06
3.50159e+06
3.50356e+06
3.502e+06
3.50187e+06
3.49898e+06
3.49778e+06
3.49885e+06
3.49922e+06
3.49951e+06
3.49963e+06
3.49973e+06
3.4998e+06
3.49986e+06
3.49992e+06
3.49998e+06
3.50003e+06
3.50008e+06
3.50011e+06
3.50014e+06
3.50015e+06
3.50015e+06
3.50014e+06
3.50011e+06
3.50008e+06
3.50003e+06
3.49996e+06
3.49988e+06
3.49979e+06
3.49967e+06
3.49952e+06
3.49732e+06
3.50622e+06
3.49784e+06
3.50498e+06
3.499e+06
3.50195e+06
3.49899e+06
3.50064e+06
3.50176e+06
3.50242e+06
3.50389e+06
3.50311e+06
3.50276e+06
3.49968e+06
3.49763e+06
3.49852e+06
3.49894e+06
3.49935e+06
3.49957e+06
3.49974e+06
3.49984e+06
3.49991e+06
3.49994e+06
3.49997e+06
3.49997e+06
3.49997e+06
3.49996e+06
3.49995e+06
3.49993e+06
3.4999e+06
3.49987e+06
3.49983e+06
3.49978e+06
3.49973e+06
3.49967e+06
3.4996e+06
3.49952e+06
3.49943e+06
3.49931e+06
3.5002e+06
3.50954e+06
3.5007e+06
3.50834e+06
3.50173e+06
3.50497e+06
3.50193e+06
3.50348e+06
3.50368e+06
3.50427e+06
3.50537e+06
3.5048e+06
3.50431e+06
3.50087e+06
3.49803e+06
3.49859e+06
3.49884e+06
3.49914e+06
3.49927e+06
3.49939e+06
3.49946e+06
3.49952e+06
3.49955e+06
3.49958e+06
3.49961e+06
3.49962e+06
3.49962e+06
3.49962e+06
3.49961e+06
3.4996e+06
3.49957e+06
3.49954e+06
3.4995e+06
3.49946e+06
3.4994e+06
3.49934e+06
3.49927e+06
3.49919e+06
3.49909e+06
3.50386e+06
3.51107e+06
3.50381e+06
3.51018e+06
3.50473e+06
3.50774e+06
3.50533e+06
3.50649e+06
3.50565e+06
3.50573e+06
3.50637e+06
3.50627e+06
3.50555e+06
3.50198e+06
3.49852e+06
3.49874e+06
3.49884e+06
3.49905e+06
3.49914e+06
3.49923e+06
3.49927e+06
3.49931e+06
3.49933e+06
3.49934e+06
3.49935e+06
3.49935e+06
3.49934e+06
3.49934e+06
3.49933e+06
3.49931e+06
3.49929e+06
3.49926e+06
3.49923e+06
3.49919e+06
3.49914e+06
3.49909e+06
3.49902e+06
3.49896e+06
3.49887e+06
3.50725e+06
3.5121e+06
3.50712e+06
3.51125e+06
3.50764e+06
3.50962e+06
3.50821e+06
3.50883e+06
3.50759e+06
3.50718e+06
3.50748e+06
3.50763e+06
3.50678e+06
3.50312e+06
3.49912e+06
3.49896e+06
3.49887e+06
3.49896e+06
3.49896e+06
3.499e+06
3.49901e+06
3.49902e+06
3.49903e+06
3.49904e+06
3.49905e+06
3.49905e+06
3.49905e+06
3.49904e+06
3.49903e+06
3.49902e+06
3.499e+06
3.49898e+06
3.49895e+06
3.49892e+06
3.49888e+06
3.49883e+06
3.49878e+06
3.49872e+06
3.49866e+06
3.51009e+06
3.51158e+06
3.50966e+06
3.51126e+06
3.50968e+06
3.51043e+06
3.51005e+06
3.51013e+06
3.50899e+06
3.50817e+06
3.50834e+06
3.50861e+06
3.50768e+06
3.504e+06
3.49964e+06
3.49915e+06
3.4989e+06
3.49886e+06
3.4988e+06
3.49879e+06
3.49877e+06
3.49876e+06
3.49876e+06
3.49876e+06
3.49876e+06
3.49876e+06
3.49876e+06
3.49875e+06
3.49874e+06
3.49873e+06
3.49872e+06
3.4987e+06
3.49868e+06
3.49865e+06
3.49862e+06
3.49858e+06
3.49854e+06
3.49849e+06
3.49844e+06
3.51198e+06
3.51056e+06
3.5115e+06
3.5107e+06
3.51089e+06
3.51042e+06
3.51091e+06
3.51051e+06
3.50986e+06
3.50877e+06
3.50898e+06
3.5092e+06
3.50831e+06
3.50464e+06
3.50004e+06
3.49927e+06
3.49887e+06
3.49873e+06
3.4986e+06
3.49854e+06
3.4985e+06
3.49848e+06
3.49847e+06
3.49846e+06
3.49846e+06
3.49846e+06
3.49846e+06
3.49846e+06
3.49845e+06
3.49845e+06
3.49844e+06
3.49842e+06
3.49841e+06
3.49839e+06
3.49836e+06
3.49833e+06
3.4983e+06
3.49826e+06
3.49823e+06
3.51315e+06
3.50905e+06
3.51234e+06
3.50966e+06
3.51128e+06
3.50985e+06
3.51098e+06
3.51017e+06
3.51014e+06
3.50894e+06
3.5093e+06
3.50935e+06
3.5086e+06
3.50492e+06
3.50025e+06
3.49925e+06
3.49876e+06
3.49853e+06
3.49836e+06
3.49827e+06
3.49821e+06
3.49818e+06
3.49817e+06
3.49816e+06
3.49816e+06
3.49816e+06
3.49816e+06
3.49816e+06
3.49816e+06
3.49816e+06
3.49816e+06
3.49815e+06
3.49814e+06
3.49812e+06
3.4981e+06
3.49808e+06
3.49806e+06
3.49803e+06
3.49801e+06
3.51337e+06
3.50755e+06
3.51243e+06
3.50848e+06
3.51105e+06
3.50897e+06
3.51051e+06
3.50943e+06
3.50998e+06
3.50873e+06
3.50929e+06
3.50912e+06
3.50857e+06
3.50483e+06
3.50022e+06
3.49906e+06
3.49853e+06
3.49826e+06
3.49806e+06
3.49796e+06
3.49789e+06
3.49786e+06
3.49785e+06
3.49785e+06
3.49785e+06
3.49785e+06
3.49786e+06
3.49787e+06
3.49787e+06
3.49788e+06
3.49788e+06
3.49787e+06
3.49787e+06
3.49786e+06
3.49785e+06
3.49783e+06
3.49782e+06
3.4978e+06
3.49779e+06
3.51286e+06
3.50608e+06
3.51186e+06
3.50724e+06
3.51031e+06
3.50789e+06
3.50973e+06
3.5085e+06
3.50948e+06
3.50819e+06
3.50897e+06
3.50856e+06
3.50821e+06
3.50436e+06
3.49991e+06
3.49869e+06
3.49818e+06
3.49789e+06
3.4977e+06
3.4976e+06
3.49754e+06
3.49752e+06
3.49751e+06
3.49752e+06
3.49753e+06
3.49754e+06
3.49756e+06
3.49757e+06
3.49758e+06
3.49759e+06
3.4976e+06
3.4976e+06
3.4976e+06
3.4976e+06
3.49759e+06
3.49759e+06
3.49758e+06
3.49757e+06
3.49757e+06
3.51161e+06
3.50473e+06
3.51073e+06
3.50595e+06
3.50916e+06
3.50665e+06
3.5087e+06
3.50746e+06
3.5087e+06
3.50731e+06
3.50833e+06
3.50764e+06
3.50756e+06
3.50358e+06
3.49938e+06
3.49815e+06
3.4977e+06
3.49742e+06
3.49727e+06
3.49719e+06
3.49715e+06
3.49715e+06
3.49716e+06
3.49718e+06
3.4972e+06
3.49723e+06
3.49725e+06
3.49727e+06
3.49729e+06
3.4973e+06
3.49732e+06
3.49733e+06
3.49733e+06
3.49734e+06
3.49734e+06
3.49734e+06
3.49734e+06
3.49734e+06
3.49734e+06
3.50978e+06
3.50343e+06
3.50895e+06
3.50452e+06
3.50761e+06
3.5052e+06
3.50741e+06
3.50624e+06
3.50766e+06
3.50611e+06
3.50737e+06
3.50634e+06
3.50659e+06
3.50251e+06
3.49867e+06
3.49747e+06
3.4971e+06
3.49686e+06
3.49676e+06
3.49673e+06
3.49673e+06
3.49675e+06
3.49679e+06
3.49683e+06
3.49686e+06
3.4969e+06
3.49694e+06
3.49697e+06
3.49699e+06
3.49702e+06
3.49704e+06
3.49705e+06
3.49707e+06
3.49708e+06
3.49708e+06
3.49709e+06
3.4971e+06
3.49711e+06
3.49712e+06
3.50711e+06
3.50205e+06
3.5065e+06
3.50283e+06
3.50563e+06
3.50343e+06
3.50579e+06
3.50476e+06
3.5063e+06
3.50459e+06
3.50608e+06
3.5047e+06
3.5053e+06
3.50108e+06
3.49772e+06
3.4966e+06
3.49637e+06
3.49621e+06
3.49619e+06
3.49621e+06
3.49627e+06
3.49633e+06
3.4964e+06
3.49646e+06
3.49652e+06
3.49657e+06
3.49662e+06
3.49666e+06
3.4967e+06
3.49673e+06
3.49676e+06
3.49678e+06
3.4968e+06
3.49682e+06
3.49683e+06
3.49685e+06
3.49686e+06
3.49687e+06
3.49689e+06
3.50388e+06
3.50017e+06
3.50343e+06
3.50069e+06
3.50321e+06
3.5012e+06
3.50379e+06
3.50287e+06
3.50454e+06
3.50277e+06
3.5044e+06
3.50277e+06
3.50365e+06
3.49928e+06
3.4965e+06
3.49554e+06
3.49552e+06
3.49546e+06
3.49556e+06
3.49565e+06
3.49577e+06
3.49588e+06
3.49599e+06
3.49608e+06
3.49617e+06
3.49624e+06
3.4963e+06
3.49635e+06
3.4964e+06
3.49644e+06
3.49647e+06
3.4965e+06
3.49653e+06
3.49655e+06
3.49658e+06
3.4966e+06
3.49662e+06
3.49664e+06
3.49666e+06
3.50031e+06
3.49738e+06
3.49998e+06
3.49783e+06
3.50043e+06
3.4984e+06
3.50133e+06
3.50048e+06
3.5023e+06
3.50063e+06
3.50226e+06
3.50057e+06
3.50159e+06
3.49711e+06
3.49501e+06
3.49431e+06
3.49454e+06
3.49463e+06
3.49486e+06
3.49505e+06
3.49525e+06
3.49542e+06
3.49557e+06
3.4957e+06
3.49581e+06
3.4959e+06
3.49598e+06
3.49605e+06
3.4961e+06
3.49615e+06
3.49619e+06
3.49623e+06
3.49626e+06
3.49629e+06
3.49632e+06
3.49635e+06
3.49638e+06
3.49641e+06
3.49644e+06
3.49711e+06
3.49305e+06
3.49644e+06
3.49395e+06
3.49743e+06
3.49493e+06
3.49846e+06
3.49738e+06
3.49954e+06
3.49814e+06
3.4996e+06
3.49806e+06
3.49908e+06
3.49465e+06
3.4933e+06
3.49292e+06
3.49346e+06
3.49374e+06
3.49412e+06
3.49442e+06
3.49471e+06
3.49494e+06
3.49514e+06
3.49531e+06
3.49545e+06
3.49556e+06
3.49566e+06
3.49574e+06
3.4958e+06
3.49586e+06
3.49591e+06
3.49596e+06
3.496e+06
3.49603e+06
3.49607e+06
3.4961e+06
3.49614e+06
3.49617e+06
3.49621e+06
3.49476e+06
3.48713e+06
3.49346e+06
3.48899e+06
3.49429e+06
3.49076e+06
3.49515e+06
3.49355e+06
3.49624e+06
3.49527e+06
3.49642e+06
3.49523e+06
3.49612e+06
3.49194e+06
3.49141e+06
3.49144e+06
3.49231e+06
3.49279e+06
3.49336e+06
3.49378e+06
3.49416e+06
3.49446e+06
3.49471e+06
3.49492e+06
3.49508e+06
3.49522e+06
3.49533e+06
3.49543e+06
3.4955e+06
3.49557e+06
3.49563e+06
3.49568e+06
3.49573e+06
3.49577e+06
3.49582e+06
3.49586e+06
3.4959e+06
3.49594e+06
3.49598e+06
3.49318e+06
3.4801e+06
3.491e+06
3.48335e+06
3.49105e+06
3.48608e+06
3.49144e+06
3.48914e+06
3.49244e+06
3.49204e+06
3.49277e+06
3.4921e+06
3.49275e+06
3.48911e+06
3.48943e+06
3.48991e+06
3.49113e+06
3.49184e+06
3.49258e+06
3.49313e+06
3.4936e+06
3.49398e+06
3.49428e+06
3.49452e+06
3.49472e+06
3.49488e+06
3.49501e+06
3.49512e+06
3.4952e+06
3.49528e+06
3.49535e+06
3.49541e+06
3.49546e+06
3.49551e+06
3.49556e+06
3.49561e+06
3.49566e+06
3.4957e+06
3.49575e+06
3.49197e+06
3.47323e+06
3.48888e+06
3.47789e+06
3.48773e+06
3.48127e+06
3.48729e+06
3.48445e+06
3.48819e+06
3.48847e+06
3.4887e+06
3.48872e+06
3.48906e+06
3.48627e+06
3.48743e+06
3.4884e+06
3.48995e+06
3.49089e+06
3.49182e+06
3.49249e+06
3.49306e+06
3.4935e+06
3.49386e+06
3.49414e+06
3.49436e+06
3.49454e+06
3.49469e+06
3.49481e+06
3.49491e+06
3.49499e+06
3.49507e+06
3.49513e+06
3.49519e+06
3.49525e+06