/*--------------------------------*- C++ -*----------------------------------*\
| =========                 |                                                 |
| \\      /  F ield         | OpenFOAM: The Open Source CFD Toolbox           |
|  \\    /   O peration     | Version:  v2012                                 |
|   \\  /    A nd           | Website:  www.openfoam.com                      |
|    \\/     M anipulation  |                                                 |
\*---------------------------------------------------------------------------*/
FoamFile
{
    version     2.0;
    format      ascii;
    class       surfaceScalarField;
    location    "0.2";
    object      phi;
}
// * * * * * * * * * * * * * * * * * * * * * * * * * * * * * * * * * * * * * //

dimensions      [0 3 -1 0 0 0 0];
oriented        oriented;


internalField   nonuniform List<scalar> 
8134
(
-3.74953e-08
-7.36811e-09
-2.04212e-15
-3.12464e-08
-6.2489e-09
-1.27826e-15
-2.59156e-08
-5.33074e-09
-9.19892e-16
-2.13615e-08
-4.55412e-09
-7.72069e-16
-1.74754e-08
-3.8861e-09
-8.95712e-16
-1.41716e-08
-3.30384e-09
-7.01558e-16
-1.13774e-08
-2.79418e-09
-7.40137e-16
-9.02976e-09
-2.34764e-09
-1.68537e-16
-7.07187e-09
-1.95789e-09
1.40932e-15
-5.4522e-09
-1.61966e-09
1.30384e-15
-4.124e-09
-1.32821e-09
2.8006e-16
-3.04467e-09
-1.07933e-09
-4.19268e-16
-2.17631e-09
-8.6836e-10
-1.7117e-16
-1.48519e-09
-6.91114e-10
-4.67208e-16
-9.41813e-10
-5.43368e-10
-1.39327e-15
-5.20637e-10
-4.21174e-10
-1.02198e-15
-1.99698e-10
-3.20941e-10
1.07247e-15
3.96769e-11
-2.39378e-10
7.93027e-16
2.13705e-10
-1.7403e-10
1.0657e-15
3.35249e-10
-1.21549e-10
1.07108e-15
4.1556e-10
-8.03133e-11
9.50285e-16
4.63831e-10
-4.8275e-11
7.96363e-16
4.87575e-10
-2.37425e-11
4.71645e-16
4.92913e-10
-5.34082e-12
1.75649e-16
4.84707e-10
8.20734e-12
5.33669e-17
4.66903e-10
1.78029e-11
-1.57897e-17
4.42505e-10
2.43986e-11
-1.22075e-16
4.13847e-10
2.86604e-11
-1.4363e-16
3.82657e-10
3.11887e-11
-6.5424e-17
3.50237e-10
3.24219e-11
-3.14771e-17
3.17484e-10
3.27524e-11
1.17805e-16
2.85017e-10
3.2467e-11
-4.72736e-17
2.53211e-10
3.18082e-11
-2.43568e-16
2.22249e-10
3.0961e-11
-1.36151e-17
1.92207e-10
3.00428e-11
1.81245e-16
1.63044e-10
2.91629e-11
1.8846e-16
1.34668e-10
2.83756e-11
8.84664e-17
1.06985e-10
2.76829e-11
5.19227e-17
8.00511e-11
2.69338e-11
1.52526e-17
5.41539e-11
2.58972e-11
-1.34542e-17
3.04714e-11
2.36826e-11
-3.63758e-18
1.1233e-11
1.92382e-11
-1.04627e-17
1.12329e-11
-5.86781e-18
-4.88014e-08
-1.38978e-08
-2.46077e-15
-4.28709e-08
-1.21793e-08
-1.92393e-15
-3.74702e-08
-1.07314e-08
-1.56314e-15
-3.25456e-08
-9.47877e-09
-1.39678e-15
-2.8056e-08
-8.37564e-09
-1.52684e-15
-2.39732e-08
-7.38672e-09
-1.27537e-15
-2.02758e-08
-6.49153e-09
-1.37685e-15
-1.69484e-08
-5.67501e-09
-6.64943e-16
-1.39774e-08
-4.92893e-09
9.22457e-16
-1.1349e-08
-4.24795e-09
9.02013e-16
-9.04865e-09
-3.62863e-09
-7.01745e-16
-7.05846e-09
-3.06953e-09
-2.04925e-15
-5.35862e-09
-2.56822e-09
-1.68774e-15
-3.92656e-09
-2.12315e-09
-1.24554e-15
-2.738e-09
-1.73191e-09
-1.36362e-15
-1.76757e-09
-1.3916e-09
-4.81068e-16
-9.89533e-10
-1.09898e-09
1.38418e-16
-3.78569e-10
-8.50346e-10
7.73573e-16
8.94179e-11
-6.4202e-10
1.14883e-15
4.37505e-10
-4.6964e-10
1.01481e-15
6.86074e-10
-3.28884e-10
8.26802e-16
8.53727e-10
-2.15934e-10
5.87403e-16
9.56683e-10
-1.26694e-10
3.87112e-16
1.00893e-09
-5.75942e-11
-8.92488e-17
1.02232e-09
-5.18101e-12
-5.1523e-16
1.00665e-09
3.34787e-11
-7.47444e-16
9.699e-10
6.11474e-11
-9.44729e-16
9.18464e-10
8.0103e-11
-7.41746e-16
8.57264e-10
9.23858e-11
-5.92655e-16
7.90122e-10
9.95681e-11
-5.58841e-16
7.19807e-10
1.03067e-10
-3.67134e-16
6.48316e-10
1.03957e-10
-3.96274e-16
5.76983e-10
1.03146e-10
-5.06465e-16
5.06593e-10
1.01351e-10
-2.71327e-16
4.37588e-10
9.90486e-11
9.61687e-17
3.70099e-10
9.66521e-11
1.39837e-16
3.04102e-10
9.43718e-11
4.37027e-17
2.39608e-10
9.21762e-11
4.0134e-17
1.7698e-10
8.95625e-11
2.31163e-17
1.17387e-10
8.54898e-11
-1.01769e-17
6.38674e-11
7.72024e-11
4.06955e-18
2.22214e-11
6.0884e-11
-9.5784e-18
3.34543e-11
-8.54132e-18
-4.74572e-08
-1.89731e-08
-3.41333e-15
-4.26679e-08
-1.69686e-08
-2.6479e-15
-3.81657e-08
-1.52336e-08
-2.167e-15
-3.39399e-08
-1.37047e-08
-1.86593e-15
-2.99779e-08
-1.23375e-08
-1.88988e-15
-2.62703e-08
-1.10944e-08
-1.59554e-15
-2.28103e-08
-9.95157e-09
-1.63491e-15
-1.95954e-08
-8.8899e-09
-1.3158e-15
-1.66259e-08
-7.89835e-09
-9.36478e-16
-1.39041e-08
-6.96977e-09
-1.21192e-15
-1.14325e-08
-6.10018e-09
-1.58414e-15
-9.21234e-09
-5.28974e-09
-1.59987e-15
-7.24266e-09
-4.53791e-09
-1.49099e-15
-5.51919e-09
-3.8466e-09
-6.98021e-16
-4.03406e-09
-3.21703e-09
-2.29451e-17
-2.77572e-09
-2.64995e-09
2.64528e-16
-1.72919e-09
-2.14551e-09
-3.15421e-16
-8.76769e-10
-1.70277e-09
6.00805e-16
-1.98885e-10
-1.31991e-09
8.92407e-16
3.25257e-10
-9.93784e-10
9.30879e-16
7.16697e-10
-7.20325e-10
6.41311e-16
9.95828e-10
-4.95071e-10
2.29695e-16
1.18182e-09
-3.12675e-10
-3.51209e-17
1.29224e-09
-1.68028e-10
-2.30184e-16
1.34275e-09
-5.56866e-11
-3.64312e-16
1.34688e-09
2.93448e-11
-4.96173e-16
1.31613e-09
9.19e-11
-6.8313e-16
1.26001e-09
1.36238e-10
-7.27112e-16
1.1861e-09
1.66292e-10
-7.73431e-16
1.10045e-09
1.85223e-10
-8.19191e-16
1.00759e-09
1.9592e-10
-6.12576e-16
9.10913e-10
2.00636e-10
-5.16524e-16
8.12769e-10
2.01295e-10
-4.89907e-16
7.14672e-10
1.99446e-10
-2.7975e-16
6.17569e-10
1.96153e-10
-3.2506e-17
5.21917e-10
1.92305e-10
4.75654e-17
4.27923e-10
1.88364e-10
-3.56697e-18
3.35859e-10
1.8424e-10
9.61053e-18
2.46506e-10
1.78916e-10
5.51986e-18
1.61913e-10
1.70083e-10
-1.57524e-17
8.66527e-11
1.52463e-10
-2.87482e-18
2.9177e-11
1.18359e-10
-7.26992e-18
6.26312e-11
-1.09057e-17
-4.35321e-08
-2.28258e-08
-2.46175e-15
-3.97266e-08
-2.0774e-08
-2.1691e-15
-3.60289e-08
-1.89313e-08
-1.83586e-15
-3.24712e-08
-1.72624e-08
-1.73542e-15
-2.90701e-08
-1.57385e-08
-1.92268e-15
-2.58342e-08
-1.43303e-08
-1.72763e-15
-2.27671e-08
-1.30186e-08
-1.80079e-15
-1.9872e-08
-1.1785e-08
-1.45417e-15
-1.71521e-08
-1.06183e-08
-1.29525e-15
-1.46116e-08
-9.51027e-09
-1.1874e-15
-1.2256e-08
-8.45579e-09
-1.17976e-15
-1.00908e-08
-7.45494e-09
-1.15124e-15
-8.12162e-09
-6.50711e-09
-1.25772e-15
-6.35244e-09
-5.61574e-09
-7.61966e-16
-4.7852e-09
-4.78426e-09
-5.94385e-16
-3.41882e-09
-4.01633e-09
-9.89052e-16
-2.24874e-09
-3.3156e-09
-4.41226e-16
-1.26684e-09
-2.68468e-09
9.66441e-17
-4.61664e-10
-2.12508e-09
3.48716e-16
1.81061e-10
-1.63651e-09
6.94818e-16
6.77875e-10
-1.21714e-09
6.27839e-16
1.04649e-09
-8.6369e-10
2.73857e-16
1.305e-09
-5.71176e-10
-7.96061e-17
1.4712e-09
-3.34235e-10
-2.79159e-16
1.56179e-09
-1.46277e-10
-3.45897e-16
1.59203e-09
-8.97089e-13
-4.88013e-16
1.57539e-09
1.08538e-10
-6.13708e-16
1.52346e-09
1.88183e-10
-4.91845e-16
1.44579e-09
2.43948e-10
-4.89407e-16
1.35025e-09
2.8077e-10
-5.76767e-16
1.2429e-09
3.03266e-10
-4.50614e-16
1.12841e-09
3.15133e-10
-4.14315e-16
1.01014e-09
3.19567e-10
-4.02927e-16
8.9038e-10
3.19201e-10
-2.60777e-16
7.70663e-10
3.15872e-10
-1.36319e-16
6.51862e-10
3.11106e-10
-1.24058e-17
5.34519e-10
3.05706e-10
-1.55615e-17
4.19245e-10
2.99514e-10
-2.09744e-17
3.07283e-10
2.90878e-10
-1.4678e-17
2.01455e-10
2.75911e-10
-1.84479e-17
1.07572e-10
2.46347e-10
-7.33006e-18
3.59771e-11
1.89953e-10
-1.63874e-17
9.86083e-11
-1.15914e-17
-3.91196e-08
-2.56715e-08
-3.28635e-15
-3.61534e-08
-2.37401e-08
-2.73861e-15
-3.31539e-08
-2.19309e-08
-2.28862e-15
-3.01805e-08
-2.02358e-08
-2.04277e-15
-2.72736e-08
-1.86454e-08
-2.06818e-15
-2.44605e-08
-1.71435e-08
-1.83758e-15
-2.17585e-08
-1.57206e-08
-1.84669e-15
-1.91794e-08
-1.43641e-08
-1.51586e-15
-1.67314e-08
-1.30663e-08
-1.41066e-15
-1.44207e-08
-1.18209e-08
-1.29244e-15
-1.22534e-08
-1.06231e-08
-1.25798e-15
-1.02348e-08
-9.47354e-09
-1.22287e-15
-8.37087e-09
-8.37105e-09
-1.31609e-15
-6.66709e-09
-7.31948e-09
-7.7865e-16
-5.1284e-09
-6.32294e-09
-6.858e-16
-3.75828e-09
-5.38646e-09
-7.29354e-16
-2.55804e-09
-4.51584e-09
-4.76615e-16
-1.52629e-09
-3.71644e-09
-5.99045e-16
-6.58456e-10
-2.99291e-09
-2.75042e-16
5.3101e-11
-2.34807e-09
1.50174e-16
6.19354e-10
-1.7834e-09
4.10039e-16
1.05323e-09
-1.29757e-09
3.11352e-16
1.36958e-09
-8.87522e-10
3.75227e-17
1.58425e-09
-5.48912e-10
-2.31283e-16
1.71304e-09
-2.7506e-10
-3.81543e-16
1.77119e-09
-5.90551e-11
-4.488e-16
1.77283e-09
1.06905e-10
-5.60746e-16
1.73056e-09
2.30462e-10
-4.76033e-16
1.65521e-09
3.19287e-10
-4.41414e-16
1.55593e-09
3.80054e-10
-5.21375e-16
1.44003e-09
4.19165e-10
-4.1103e-16
1.31327e-09
4.4189e-10
-3.63361e-16
1.17998e-09
4.52868e-10
-3.60929e-16
1.04319e-09
4.55987e-10
-2.65102e-16
9.05049e-10
4.54014e-10
-1.93333e-16
7.66914e-10
4.49241e-10
-4.86474e-17
6.29722e-10
4.42897e-10
-3.43702e-17
4.94473e-10
4.34762e-10
-4.4328e-17
3.62878e-10
4.22473e-10
-3.20776e-17
2.38426e-10
4.00363e-10
-4.32075e-17
1.27899e-10
3.56875e-10
-2.3952e-17
4.30362e-11
2.74815e-10
-2.4726e-17
1.41644e-10
-1.20222e-17
-3.46604e-08
-2.76745e-08
-2.24082e-15
-3.24254e-08
-2.59751e-08
-2.00454e-15
-3.00521e-08
-2.43042e-08
-1.70686e-15
-2.76124e-08
-2.26756e-08
-1.67215e-15
-2.51607e-08
-2.10971e-08
-1.85627e-15
-2.27377e-08
-1.95665e-08
-1.73969e-15
-2.03728e-08
-1.80855e-08
-1.79234e-15
-1.80873e-08
-1.66495e-08
-1.52878e-15
-1.58964e-08
-1.52572e-08
-1.42064e-15
-1.38109e-08
-1.39064e-08
-1.32287e-15
-1.18391e-08
-1.25949e-08
-1.30393e-15
-9.9872e-09
-1.13255e-08
-1.28549e-15
-8.26088e-09
-1.00974e-08
-1.37571e-15
-6.66529e-09
-8.91505e-09
-8.85097e-16
-5.2054e-09
-7.78282e-09
-7.365e-16
-3.88568e-09
-6.70618e-09
-5.85747e-16
-2.70964e-09
-5.69188e-09
-5.47153e-16
-1.67925e-09
-4.74683e-09
-5.10574e-16
-7.94291e-10
-3.87787e-09
-4.32435e-16
-5.19471e-11
-3.09041e-09
-4.84459e-16
5.53448e-10
-2.38879e-09
-7.70491e-17
1.03039e-09
-1.77452e-09
1.04433e-16
1.38962e-09
-1.24675e-09
6.63744e-17
1.64388e-09
-8.03176e-10
-1.00624e-16
1.80683e-09
-4.38005e-10
-3.52379e-16
1.89251e-09
-1.44743e-10
-4.17896e-16
1.91457e-09
8.48446e-11
-5.36617e-16
1.88575e-09
2.59286e-10
-4.78515e-16
1.81743e-09
3.87597e-10
-4.30972e-16
1.71954e-09
4.77958e-10
-4.84437e-16
1.60025e-09
5.3845e-10
-3.81948e-16
1.46622e-09
5.75913e-10
-3.31386e-16
1.3226e-09
5.96497e-10
-3.4131e-16
1.17313e-09
6.0545e-10
-2.79206e-16
1.02058e-09
6.06572e-10
-2.31086e-16
8.6679e-10
6.03027e-10
-8.48607e-17
7.13146e-10
5.9654e-10
-6.54512e-17
5.61063e-10
5.86845e-10
-6.45577e-17
4.1271e-10
5.70826e-10
-4.56244e-17
2.72149e-10
5.40924e-10
-5.85244e-17
1.46926e-10
4.82097e-10
-3.222e-17
4.98854e-11
3.71856e-10
-2.55661e-17
1.9153e-10
-1.51985e-17
-3.04127e-08
-2.90213e-08
-3.26027e-15
-2.87808e-08
-2.7607e-08
-2.8317e-15
-2.69477e-08
-2.61372e-08
-2.24858e-15
-2.49844e-08
-2.46389e-08
-1.98355e-15
-2.29489e-08
-2.31326e-08
-1.97626e-15
-2.08882e-08
-2.16272e-08
-1.78873e-15
-1.88388e-08
-2.01349e-08
-1.81014e-15
-1.6829e-08
-1.86593e-08
-1.51369e-15
-1.48802e-08
-1.7206e-08
-1.42171e-15
-1.3008e-08
-1.57785e-08
-1.33375e-15
-1.12245e-08
-1.43785e-08
-1.32367e-15
-9.53771e-09
-1.30123e-08
-1.3167e-15
-7.95441e-09
-1.16807e-08
-1.39685e-15
-6.47971e-09
-1.03897e-08
-9.5141e-16
-5.11822e-09
-9.14429e-09
-8.06914e-16
-3.87419e-09
-7.95021e-09
-6.50674e-16
-2.75141e-09
-6.81466e-09
-5.5059e-16
-1.75302e-09
-5.74523e-09
-5.23092e-16
-8.80935e-10
-4.74996e-09
-4.70637e-16
-1.35347e-10
-3.836e-09
-4.85323e-16
4.8573e-10
-3.00987e-09
-5.39111e-16
9.86909e-10
-2.2757e-09
-2.56302e-16
1.37513e-09
-1.63496e-09
-8.8036e-17
1.65973e-09
-1.08779e-09
-6.83119e-17
1.85164e-09
-6.29907e-10
-2.14503e-16
1.96294e-09
-2.56049e-10
-4.04121e-16
2.00603e-09
4.17563e-11
-4.33513e-16
1.99304e-09
2.72282e-10
-4.97864e-16
1.93527e-09
4.4536e-10
-4.42703e-16
1.84291e-09
5.70322e-10
-4.74226e-16
1.72467e-09
6.56685e-10
-3.6866e-16
1.58784e-09
7.12749e-10
-3.14107e-16
1.4382e-09
7.46142e-10
-3.27516e-16
1.28014e-09
7.63505e-10
-2.8103e-16
1.11699e-09
7.69726e-10
-2.48254e-16
9.51109e-10
7.68907e-10
-1.07598e-16
7.84321e-10
7.63326e-10
-9.18885e-17
6.18472e-10
7.52695e-10
-8.02029e-17
4.5617e-10
7.33127e-10
-5.89859e-17
3.01973e-10
6.95122e-10
-6.60877e-17
1.64042e-10
6.20029e-10
-4.21492e-17
5.61518e-11
4.79746e-10
-3.06367e-17
2.47682e-10
-1.71193e-17
-2.64793e-08
-2.98664e-08
-2.18453e-15
-2.53318e-08
-2.87545e-08
-1.96066e-15
-2.39518e-08
-2.75172e-08
-1.56567e-15
-2.24027e-08
-2.6188e-08
-1.53528e-15
-2.07401e-08
-2.47951e-08
-1.66258e-15
-1.90115e-08
-2.33558e-08
-1.6135e-15
-1.72562e-08
-2.18903e-08
-1.66122e-15
-1.55061e-08
-2.04094e-08
-1.47568e-15
-1.37866e-08
-1.89255e-08
-1.38e-15
-1.21174e-08
-1.74477e-08
-1.30122e-15
-1.05135e-08
-1.59824e-08
-1.29952e-15
-8.98588e-09
-1.45399e-08
-1.31056e-15
-7.54277e-09
-1.31238e-08
-1.37289e-15
-6.19011e-09
-1.17423e-08
-1.02593e-15
-4.93269e-09
-1.04017e-08
-8.48305e-16
-3.77451e-09
-9.1084e-09
-6.97205e-16
-2.71913e-09
-7.87004e-09
-6.03644e-16
-1.76982e-09
-6.69455e-09
-5.37478e-16
-9.29245e-10
-5.59053e-09
-5.25047e-16
-1.99161e-10
-4.56608e-09
-4.82326e-16
4.20147e-10
-3.62918e-09
-5.06613e-16
9.3041e-10
-2.78597e-09
-5.38786e-16
1.33545e-09
-2.04e-09
-3.66258e-16
1.6415e-09
-1.39385e-09
-1.72013e-16
1.85661e-09
-8.45012e-10
-1.81702e-16
1.99055e-09
-3.89996e-10
-3.54444e-16
2.05399e-09
-2.16833e-11
-5.04426e-16
2.05793e-09
2.6835e-10
-4.43109e-16
2.01306e-09
4.90223e-10
-4.70246e-16
1.92941e-09
6.53981e-10
-4.82504e-16
1.81583e-09
7.70254e-10
-3.7147e-16
1.67998e-09
8.48597e-10
-3.10552e-16
1.52813e-09
8.98e-10
-3.2771e-16
1.36517e-09
9.2646e-10
-2.87697e-16
1.19494e-09
9.39959e-10
-2.62235e-16
1.02028e-09
9.43566e-10
-1.26342e-16
8.43457e-10
9.40147e-10
-1.10051e-16
6.66736e-10
9.29416e-10
-9.17579e-17
4.93144e-10
9.06719e-10
-6.9847e-17
3.27665e-10
8.60601e-10
-7.0051e-17
1.78968e-10
7.68726e-10
-4.44376e-17
6.16567e-11
5.97056e-10
-3.71569e-17
3.09338e-10
-1.87093e-17
-2.29255e-08
-3.03463e-08
-2.89497e-15
-2.2152e-08
-2.9528e-08
-2.71485e-15
-2.11387e-08
-2.85305e-08
-2.21396e-15
-1.99385e-08
-2.73883e-08
-2.0182e-15
-1.86003e-08
-2.61333e-08
-1.95225e-15
-1.71687e-08
-2.47874e-08
-1.76543e-15
-1.56821e-08
-2.33769e-08
-1.74991e-15
-1.41734e-08
-2.19181e-08
-1.48439e-15
-1.26697e-08
-2.04292e-08
-1.38117e-15
-1.11928e-08
-1.89245e-08
-1.29275e-15
-9.7602e-09
-1.7415e-08
-1.28571e-15
-8.38496e-09
-1.59151e-08
-1.30493e-15
-7.07704e-09
-1.44318e-08
-1.35896e-15
-5.8436e-09
-1.29758e-08
-1.04835e-15
-4.69003e-09
-1.15553e-08
-8.77014e-16
-3.62048e-09
-1.01779e-08
-7.27362e-16
-2.63838e-09
-8.85214e-09
-6.35737e-16
-1.74685e-09
-7.58608e-09
-5.71878e-16
-9.48684e-10
-6.3887e-09
-5.42083e-16
-2.46254e-10
-5.26851e-09
-5.18145e-16
3.58901e-10
-4.23433e-09
-4.95512e-16
8.66603e-10
-3.29367e-09
-5.00954e-16
1.27834e-09
-2.45173e-09
-5.38005e-16
1.59774e-09
-1.71326e-09
-3.83374e-16
1.83025e-09
-1.07751e-09
-2.62169e-16
1.98323e-09
-5.42987e-10
-2.96548e-16
2.06542e-09
-1.03866e-10
-4.13833e-16
2.08633e-09
2.47448e-10
-3.81899e-16
2.05567e-09
5.20867e-10
-4.74314e-16
1.98295e-09
7.26717e-10
-5.02311e-16
1.87684e-09
8.76359e-10
-3.85019e-16
1.74509e-09
9.80336e-10
-3.19609e-16
1.59428e-09
1.04882e-09
-3.36996e-16
1.42966e-09
1.09107e-09
-3.00309e-16
1.2555e-09
1.11412e-09
-2.75913e-16
1.07508e-09
1.12399e-09
-1.43093e-16
8.91083e-10
1.12415e-09
-1.25313e-16
7.06171e-10
1.11433e-09
-1.02483e-16
5.23759e-10
1.08913e-09
-7.94757e-17
3.49207e-10
1.03515e-09
-7.49128e-17
1.9161e-10
9.26324e-10
-4.50791e-17
6.63315e-11
7.22334e-10
-4.05514e-17
3.7567e-10
-2.01815e-17
-1.97615e-08
-1.99687e-15
-1.92706e-08
-1.85513e-15
-1.85476e-08
-2.92535e-08
-1.54245e-15
-1.76343e-08
-2.83016e-08
-1.58072e-15
-1.6572e-08
-2.71955e-08
-1.65011e-15
-1.54001e-08
-2.59594e-08
-1.59857e-15
-1.41541e-08
-2.46228e-08
-1.60094e-15
-1.28658e-08
-2.32064e-08
-1.46892e-15
-1.15621e-08
-2.17329e-08
-1.35182e-15
-1.02657e-08
-2.02208e-08
-1.26306e-15
-8.99526e-09
-1.86855e-08
-1.25038e-15
-7.76515e-09
-1.71453e-08
-1.27459e-15
-6.5867e-09
-1.56102e-08
-1.33758e-15
-5.46823e-09
-1.40942e-08
-1.04146e-15
-4.41592e-09
-1.26075e-08
-8.88806e-16
-3.43436e-09
-1.11595e-08
-7.4422e-16
-2.52709e-09
-9.75941e-09
-6.54339e-16
-1.69713e-09
-8.41605e-09
-5.93901e-16
-9.47212e-10
-7.13861e-09
-5.59213e-16
-2.79889e-10
-5.93583e-09
-5.4022e-16
3.02706e-10
-4.81693e-09
-5.16559e-16
7.99249e-10
-3.79022e-09
-4.97093e-16
1.20959e-09
-2.86206e-09
-5.01834e-16
1.53536e-09
-2.03903e-09
-5.23168e-16
1.77978e-09
-1.32192e-09
-3.7196e-16
1.94798e-09
-7.11196e-10
-3.61487e-16
2.0467e-09
-2.02585e-10
-4.04323e-16
2.08383e-09
2.10325e-10
-5.13949e-16
2.06786e-09
5.36828e-10
-3.56224e-16
2.00745e-09
7.87132e-10
-5.16674e-16
1.91086e-09
9.72942e-10
-4.05456e-16
1.78571e-09
1.10549e-09
-3.38404e-16
1.63863e-09
1.19591e-09
-3.52478e-16
1.47515e-09
1.25455e-09
-3.16416e-16
1.29985e-09
1.28942e-09
-2.9071e-16
1.11639e-09
1.30745e-09
-1.59233e-16
9.27814e-10
1.31272e-09
-1.38722e-16
7.37173e-10
1.30497e-09
-1.12579e-16
5.4823e-10
1.27807e-09
-8.83713e-17
3.66671e-10
1.21671e-09
-8.04685e-17
2.01961e-10
1.09103e-09
-4.69948e-17
7.01591e-11
8.54135e-10
-4.17563e-17
4.45829e-10
-2.11975e-17
-1.6197e-08
-2.97522e-08
-1.97552e-15
-1.55147e-08
-2.89839e-08
-1.86919e-15
-1.46821e-08
-2.80281e-08
-1.78804e-15
-1.37327e-08
-2.69088e-08
-1.66653e-15
-1.26981e-08
-2.56575e-08
-1.64336e-15
-1.16073e-08
-2.42972e-08
-1.45219e-15
-1.04862e-08
-2.2854e-08
-1.33707e-15
-9.35688e-09
-2.13501e-08
-1.2441e-15
-8.23818e-09
-1.98042e-08
-1.22574e-15
-7.1451e-09
-1.82384e-08
-1.24746e-15
-6.08974e-09
-1.66656e-08
-1.3141e-15
-5.08125e-09
-1.51027e-08
-1.04094e-15
-4.12653e-09
-1.35623e-08
-8.93653e-16
-3.23069e-09
-1.20554e-08
-7.54089e-16
-2.39752e-09
-1.05926e-08
-6.65091e-16
-1.63012e-09
-9.18346e-09
-6.06705e-16
-9.31154e-10
-7.83758e-09
-5.73375e-16
-3.03189e-10
-6.56379e-09
-5.48254e-16
2.51407e-10
-5.37152e-09
-5.3658e-16
7.30673e-10
-4.26948e-09
-5.13015e-16
1.1334e-09
-3.26479e-09
-5.04037e-16
1.45973e-09
-2.36537e-09
-5.18581e-16
1.71111e-09
-1.57329e-09
-4.50095e-16
1.89075e-09
-8.90842e-10
-4.39819e-16
2.00347e-09
-3.15312e-10
-3.78799e-16
2.05553e-09
1.58281e-10
-4.61301e-16
2.05404e-09
5.38306e-10
-4.97038e-16
2.00666e-09
8.34517e-10
-4.75982e-16
1.92099e-09
1.0586e-09
-4.26326e-16
1.80431e-09
1.22217e-09
-3.59122e-16
1.66317e-09
1.33705e-09
-3.72173e-16
1.50319e-09
1.41453e-09
-3.3384e-16
1.32918e-09
1.46343e-09
-3.06053e-16
1.14509e-09
1.49155e-09
-1.75523e-16
9.5429e-10
1.50351e-09
-1.50473e-16
7.60169e-10
1.49909e-09
-1.21847e-16
5.66806e-10
1.47144e-09
-9.68478e-17
3.80174e-10
1.40335e-09
-8.64264e-17
2.10058e-10
1.26115e-09
-4.9827e-17
7.31498e-11
9.91042e-10
-4.34583e-17
5.18979e-10
-2.20474e-17
-1.40889e-08
-3.00809e-08
-1.6222e-15
-1.35894e-08
-2.94834e-08
-1.64589e-15
-1.2945e-08
-2.86724e-08
-1.64283e-15
-1.21832e-08
-2.76705e-08
-1.6109e-15
-1.13312e-08
-2.65095e-08
-1.64615e-15
-1.04148e-08
-2.52136e-08
-1.52156e-15
-9.45771e-09
-2.38111e-08
-1.34047e-15
-8.48084e-09
-2.2327e-08
-1.23591e-15
-7.5024e-09
-2.07826e-08
-1.20314e-15
-6.53732e-09
-1.92035e-08
-1.21558e-15
-5.59792e-09
-1.7605e-08
-1.28222e-15
-4.69378e-09
-1.60068e-08
-1.0313e-15
-3.8323e-09
-1.44237e-08
-8.90549e-16
-3.019e-09
-1.28687e-08
-7.57396e-16
-2.258e-09
-1.13536e-08
-6.69812e-16
-1.55253e-09
-9.88893e-09
-6.13119e-16
-9.05282e-10
-8.48482e-09
-5.81316e-16
-3.18794e-10
-7.15027e-09
-5.55648e-16
2.04495e-10
-5.89481e-09
-5.45591e-16
6.62302e-10
-4.72729e-09
-5.27134e-16
1.05276e-09
-3.65524e-09
-5.16913e-16
1.37498e-09
-2.68759e-09
-5.12328e-16
1.62904e-09
-1.82735e-09
-5.17225e-16
1.81656e-09
-1.07837e-09
-4.50312e-16
1.94066e-09
-4.39413e-10
-4.00362e-16
2.00599e-09
9.29625e-11
-4.60816e-16
2.01828e-09
5.25997e-10
-5.14495e-16
1.98408e-09
8.68725e-10
-4.22559e-16
1.91018e-09
1.13251e-09
-4.33083e-16
1.80333e-09
1.32902e-09
-3.80549e-16
1.66985e-09
1.47054e-09
-3.9442e-16
1.51533e-09
1.56904e-09
-3.51635e-16
1.34469e-09
1.63407e-09
-3.2133e-16
1.16208e-09
1.67416e-09
-1.90604e-16
9.7117e-10
1.69442e-09
-1.61595e-16
7.75614e-10
1.69465e-09
-1.30851e-16
5.79773e-10
1.66728e-09
-1.04969e-16
3.89871e-10
1.59325e-09
-9.20451e-17
2.15974e-10
1.43505e-09
-5.28171e-17
7.53317e-11
1.13168e-09
-4.53271e-17
5.9431e-10
-2.27907e-17
-1.22155e-08
-3.02833e-08
-1.74997e-15
-1.18582e-08
-2.98407e-08
-1.77524e-15
-1.13658e-08
-2.91649e-08
-1.7033e-15
-1.076e-08
-2.82763e-08
-1.6313e-15
-1.00637e-08
-2.72058e-08
-1.61238e-15
-9.29908e-09
-2.59781e-08
-1.46952e-15
-8.48742e-09
-2.46228e-08
-1.32382e-15
-7.64786e-09
-2.31665e-08
-1.21864e-15
-6.79748e-09
-2.1633e-08
-1.18294e-15
-5.95062e-09
-2.00503e-08
-1.18968e-15
-5.11937e-09
-1.84363e-08
-1.25548e-15
-4.31337e-09
-1.68128e-08
-1.01292e-15
-3.54021e-09
-1.51969e-08
-8.86594e-16
-2.80569e-09
-1.36032e-08
-7.58571e-16
-2.11417e-09
-1.20451e-08
-6.71555e-16
-1.46905e-09
-1.05341e-08
-6.15772e-16
-8.73077e-10
-9.0808e-09
-5.84691e-16
-3.28777e-10
-7.69457e-09
-5.60308e-16
1.61401e-10
-6.38499e-09
-5.4935e-16
5.95029e-10
-5.16092e-09
-5.35519e-16
9.69863e-10
-4.03007e-09
-5.26604e-16
1.28431e-09
-3.00205e-09
-5.20936e-16
1.53745e-09
-2.08048e-09
-5.31016e-16
1.72963e-09
-1.27055e-09
-4.83392e-16
1.86251e-09
-5.72295e-10
-5.01398e-16
1.93927e-09
1.62081e-11
-4.67767e-16
1.96431e-09
5.00949e-10
-4.9708e-16
1.943e-09
8.90044e-10
-5.36458e-16
1.88122e-09
1.19428e-09
-4.19889e-16
1.7851e-09
1.42513e-09
-4.01428e-16
1.66059e-09
1.59506e-09
-4.15713e-16
1.5131e-09
1.71653e-09
-3.68921e-16
1.34758e-09
1.7996e-09
-3.36026e-16
1.1683e-09
1.85343e-09
-2.04473e-16
9.79139e-10
1.88358e-09
-1.73183e-16
7.83988e-10
1.8898e-09
-1.40191e-16
5.87445e-10
1.86382e-09
-1.12705e-16
3.9595e-10
1.78474e-09
-9.71893e-17
2.19808e-10
1.61119e-09
-5.58593e-17
7.67456e-11
1.27474e-09
-4.72655e-17
6.71056e-10
-2.35124e-17
-1.05624e-08
-3.03935e-08
-1.80583e-15
-1.03143e-08
-3.00888e-08
-1.83886e-15
-9.94292e-09
-2.95363e-08
-1.76974e-15
-9.46541e-09
-2.87538e-08
-1.70966e-15
-8.90023e-09
-2.7771e-08
-1.70987e-15
-8.26634e-09
-2.6612e-08
-1.5354e-15
-7.58217e-09
-2.53069e-08
-1.36528e-15
-6.86488e-09
-2.38838e-08
-1.23651e-15
-6.13011e-09
-2.23678e-08
-1.18116e-15
-5.39128e-09
-2.07892e-08
-1.17204e-15
-4.65989e-09
-1.91677e-08
-1.23825e-15
-3.94532e-09
-1.75273e-08
-9.82445e-16
-3.25512e-09
-1.58871e-08
-8.79908e-16
-2.59517e-09
-1.42631e-08
-7.57274e-16
-1.96995e-09
-1.26703e-08
-6.71112e-16
-1.38297e-09
-1.1121e-08
-6.15963e-16
-8.37042e-10
-9.62672e-09
-5.85125e-16
-3.34705e-10
-8.19691e-09
-5.62012e-16
1.21615e-10
-6.84131e-09
-5.51355e-16
5.29433e-10
-5.56874e-09
-5.3974e-16
8.86308e-10
-4.38694e-09
-5.32585e-16
1.1902e-09
-3.30594e-09
-5.28748e-16
1.43946e-09
-2.32974e-09
-5.3456e-16
1.63347e-09
-1.46457e-09
-5.17016e-16
1.77269e-09
-7.11519e-10
-5.70712e-16
1.85897e-09
-7.00578e-11
-4.47069e-16
1.89548e-09
4.64424e-10
-5.10876e-16
1.88644e-09
8.99096e-10
-5.61889e-16
1.83677e-09
1.24394e-09
-4.10052e-16
1.75189e-09
1.51001e-09
-4.15522e-16
1.63725e-09
1.7097e-09
-4.35079e-16
1.49803e-09
1.85575e-09
-3.85171e-16
1.33906e-09
1.95857e-09
-3.49611e-16
1.16468e-09
2.02781e-09
-2.17683e-16
9.78897e-10
2.06936e-09
-1.85036e-16
7.85796e-10
2.0829e-09
-1.49284e-16
5.90166e-10
2.05945e-09
-1.19923e-16
3.98626e-10
1.97628e-09
-1.02034e-16
2.2168e-10
1.78814e-09
-5.90073e-17
7.74403e-11
1.41898e-09
-4.9149e-17
7.48496e-10
-2.39685e-17
-9.11182e-09
-3.04382e-08
-1.60113e-15
-8.94634e-09
-3.02543e-08
-1.74594e-15
-8.67042e-09
-2.98122e-08
-1.71398e-15
-8.29722e-09
-2.9127e-08
-1.66908e-15
-7.84154e-09
-2.82267e-08
-1.65676e-15
-7.31907e-09
-2.71345e-08
-1.52886e-15
-6.74557e-09
-2.58804e-08
-1.35164e-15
-6.13611e-09
-2.44932e-08
-1.22661e-15
-5.5047e-09
-2.29992e-08
-1.17004e-15
-4.86362e-09
-2.14303e-08
-1.15296e-15
-4.22358e-09
-1.98077e-08
-1.20995e-15
-3.59345e-09
-1.81574e-08
-9.58335e-16
-2.98052e-09
-1.65e-08
-8.73331e-16
-2.39056e-09
-1.48531e-08
-7.55786e-16
-1.82808e-09
-1.32328e-08
-6.70062e-16
-1.2966e-09
-1.16525e-08
-6.151e-16
-7.9898e-10
-1.01243e-08
-5.83949e-16
-3.37742e-10
-8.65814e-09
-5.6172e-16
8.46859e-11
-7.26374e-09
-5.51653e-16
4.65898e-10
-5.94995e-09
-5.41576e-16
8.03285e-10
-4.72432e-09
-5.36247e-16
1.09456e-09
-3.59722e-09
-5.33065e-16
1.33758e-09
-2.57276e-09
-5.34252e-16
1.53099e-09
-1.65798e-09
-5.17126e-16
1.67429e-09
-8.54826e-10
-5.13361e-16
1.76822e-09
-1.63976e-10
-4.47273e-16
1.8148e-09
4.17832e-10
-5.0838e-16
1.81717e-09
8.96739e-10
-5.63441e-16
1.77929e-09
1.28181e-09
-4.34146e-16
1.70582e-09
1.58348e-09
-4.18117e-16
1.60164e-09
1.81388e-09
-4.54224e-16
1.47158e-09
1.9858e-09
-4.00924e-16
1.32031e-09
2.10984e-09
-3.61545e-16
1.15215e-09
2.19598e-09
-2.30696e-16
9.71155e-10
2.25035e-09
-1.96438e-16
7.81559e-10
2.2725e-09
-1.57618e-16
5.88296e-10
2.25271e-09
-1.26706e-16
3.98132e-10
2.16645e-09
-1.06404e-16
2.21724e-10
1.96455e-09
-6.20411e-17
7.74699e-11
1.56324e-09
-5.10807e-17
8.25966e-10
-2.43747e-17
-7.84459e-09
-3.04372e-08
-1.87027e-15
-7.74071e-09
-3.03582e-08
-1.92628e-15
-7.53927e-09
-3.00136e-08
-1.86067e-15
-7.25021e-09
-2.9416e-08
-1.78989e-15
-6.88515e-09
-2.85917e-08
-1.75244e-15
-6.45692e-09
-2.75627e-08
-1.55428e-15
-5.97873e-09
-2.63586e-08
-1.40056e-15
-5.46357e-09
-2.50083e-08
-1.25401e-15
-4.92379e-09
-2.3539e-08
-1.18013e-15
-4.37041e-09
-2.19836e-08
-1.14525e-15
-3.81321e-09
-2.03649e-08
-1.19841e-15
-3.26041e-09
-1.87102e-08
-9.44733e-16
-2.71887e-09
-1.70415e-08
-8.66575e-16
-2.19413e-09
-1.53778e-08
-7.53681e-16
-1.69055e-09
-1.37364e-08
-6.68593e-16
-1.21164e-09
-1.21314e-08
-6.13673e-16
-7.60205e-10
-1.05758e-08
-5.81998e-16
-3.38755e-10
-9.07959e-09
-5.60271e-16
5.03504e-11
-7.65284e-09
-5.50547e-16
4.04688e-10
-6.30429e-09
-5.41851e-16
7.21678e-10
-5.04131e-09
-5.38198e-16
9.98866e-10
-3.87441e-09
-5.36019e-16
1.2338e-09
-2.80769e-09
-5.3634e-16
1.42456e-09
-1.84875e-09
-5.40158e-16
1.56994e-09
-1.0002e-09
-4.9826e-16
1.66972e-09
-2.63748e-10
-5.51266e-16
1.72493e-09
3.62619e-10
-5.11167e-16
1.73768e-09
8.8399e-10
-5.57908e-16
1.71105e-09
1.30843e-09
-5.00728e-16
1.64888e-09
1.64565e-09
-4.25963e-16
1.55546e-09
1.9073e-09
-4.69376e-16
1.4352e-09
2.10606e-09
-4.15814e-16
1.29252e-09
2.25253e-09
-3.71661e-16
1.13163e-09
2.35687e-09
-2.42944e-16
9.56628e-10
2.42534e-09
-2.06439e-16
7.71807e-10
2.45732e-09
-1.64733e-16
5.82213e-10
2.44231e-09
-1.32753e-16
3.94716e-10
2.35395e-09
-1.10454e-16
2.20085e-10
2.13918e-09
-6.47671e-17
7.68913e-11
1.70643e-09
-5.28007e-17
9.02857e-10
-2.46898e-17
-6.74133e-09
-3.04056e-08
-1.78856e-15
-6.68274e-09
-3.04168e-08
-1.76022e-15
-6.53887e-09
-3.01574e-08
-1.76976e-15
-6.31712e-09
-2.96378e-08
-1.74471e-15
-6.02656e-09
-2.88823e-08
-1.71319e-15
-5.67748e-09
-2.79118e-08
-1.54014e-15
-5.28081e-09
-2.67553e-08
-1.38925e-15
-4.84755e-09
-2.54416e-08
-1.24811e-15
-4.38841e-09
-2.39982e-08
-1.17403e-15
-3.91314e-09
-2.24589e-08
-1.13334e-15
-3.43049e-09
-2.08476e-08
-1.18286e-15
-2.94797e-09
-1.91927e-08
-9.34264e-16
-2.4719e-09
-1.75176e-08
-8.60392e-16
-2.00747e-09
-1.58423e-08
-7.51921e-16
-1.55882e-09
-1.4185e-08
-6.67454e-16
-1.12931e-09
-1.2561e-08
-6.12378e-16
-7.21698e-10
-1.09834e-08
-5.79946e-16
-3.38407e-10
-9.46288e-09
-5.58328e-16
1.82493e-11
-8.0095e-09
-5.4852e-16
3.45967e-10
-6.63201e-09
-5.41004e-16
6.42137e-10
-5.33747e-09
-5.38701e-16
9.0426e-10
-4.13654e-09
-5.37832e-16
1.12969e-09
-3.03311e-09
-5.39515e-16
1.31614e-09
-2.03521e-09
-5.51534e-16
1.46183e-09
-1.14589e-09
-5.19061e-16
1.56579e-09
-3.67705e-10
-6.14058e-16
1.62818e-09
3.00222e-10
-4.97705e-16
1.65022e-09
8.61956e-10
-5.69291e-16
1.63412e-09
1.32453e-09
-5.08046e-16
1.58293e-09
1.69684e-09
-4.25129e-16
1.50032e-09
1.98991e-09
-4.82446e-16
1.39023e-09
2.21614e-09
-4.31413e-16
1.25679e-09
2.38597e-09
-3.8094e-16
1.10404e-09
2.50962e-09
-2.54093e-16
9.36027e-10
2.59335e-09
-2.15556e-16
7.57078e-10
2.63627e-09
-1.71438e-16
5.72301e-10
2.62708e-09
-1.38462e-16
3.88637e-10
2.53761e-09
-1.14242e-16
2.16911e-10
2.3109e-09
-6.76818e-17
7.57628e-11
1.84758e-09
-5.43381e-17
9.7862e-10
-2.50174e-17
-5.7834e-09
-3.03544e-08
-2.23193e-15
-5.75757e-09
-3.04426e-08
-1.902e-15
-5.65784e-09
-3.02572e-08
-1.80955e-15
-5.48961e-09
-2.9806e-08
-1.82692e-15
-5.2599e-09
-2.9112e-08
-1.78132e-15
-4.97691e-09
-2.81948e-08
-1.58676e-15
-4.64954e-09
-2.70827e-08
-1.43128e-15
-4.28699e-09
-2.58041e-08
-1.27667e-15
-3.89839e-09
-2.43868e-08
-1.18886e-15
-3.49223e-09
-2.28651e-08
-1.13288e-15
-3.07625e-09
-2.12636e-08
-1.16967e-15
-2.65718e-09
-1.96118e-08
-9.22971e-16
-2.24074e-09
-1.7934e-08
-8.5476e-16
-1.8317e-09
-1.62513e-08
-7.50261e-16
-1.43391e-09
-1.45828e-08
-6.66528e-16
-1.05054e-09
-1.29443e-08
-6.11363e-16
-6.842e-10
-1.13497e-08
-5.78142e-16
-3.37209e-10
-9.80987e-09
-5.5632e-16
-1.1762e-11
-8.33495e-09
-5.46064e-16
2.89838e-10
-6.93361e-09
-5.39597e-16
5.65136e-10
-5.61277e-09
-5.38138e-16
8.11604e-10
-4.38301e-09
-5.3842e-16
1.0265e-09
-3.248e-09
-5.40709e-16
1.20729e-09
-2.216e-09
-5.46242e-16
1.35177e-09
-1.29037e-09
-5.28632e-16
1.4584e-09
-4.7433e-10
-5.463e-16
1.52659e-09
2.32023e-10
-4.73858e-16
1.55677e-09
8.31778e-10
-5.79809e-16
1.55036e-09
1.33094e-09
-5.28899e-16
1.50967e-09
1.73752e-09
-4.45059e-16
1.43774e-09
2.06186e-09
-4.85055e-16
1.338e-09
2.31588e-09
-4.46656e-16
1.21422e-09
2.50975e-09
-3.90616e-16
1.07026e-09
2.65358e-09
-2.64146e-16
9.10052e-10
2.75356e-09
-2.24798e-16
7.37904e-10
2.80841e-09
-1.78246e-16
5.58949e-10
2.80604e-09
-1.43649e-16
3.80155e-10
2.71641e-09
-1.17273e-16
2.12355e-10
2.47871e-09
-7.03898e-17
7.41426e-11
1.98579e-09
-5.55968e-17
1.05276e-09
-2.5037e-17
-4.95336e-09
-3.02916e-08
-2.1776e-15
-4.95083e-09
-3.04452e-08
-1.98327e-15
-4.88467e-09
-3.03233e-08
-1.83344e-15
-4.75877e-09
-2.99319e-08
-1.81534e-15
-4.57851e-09
-2.92923e-08
-1.78736e-15
-4.35042e-09
-2.84229e-08
-1.59546e-15
-4.08169e-09
-2.73514e-08
-1.4384e-15
-3.77987e-09
-2.61059e-08
-1.2831e-15
-3.45266e-09
-2.4714e-08
-1.19187e-15
-3.10731e-09
-2.32104e-08
-1.12801e-15
-2.75061e-09
-2.16203e-08
-1.15172e-15
-2.38847e-09
-1.99739e-08
-9.11306e-16
-2.02602e-09
-1.82965e-08
-8.49302e-16
-1.66754e-09
-1.66098e-08
-7.48774e-16
-1.31656e-09
-1.49338e-08
-6.66093e-16
-9.76e-10
-1.32849e-08
-6.10799e-16
-6.48279e-10
-1.16774e-08
-5.76756e-16
-3.3558e-10
-1.01226e-08
-5.54557e-16
-3.9978e-11
-8.63055e-09
-5.4375e-16
2.36339e-10
-7.20993e-09
-5.38076e-16
4.91006e-10
-5.86743e-09
-5.36899e-16
7.21545e-10