/*--------------------------------*- C++ -*----------------------------------*\
| =========                 |                                                 |
| \\      /  F ield         | OpenFOAM: The Open Source CFD Toolbox           |
|  \\    /   O peration     | Version:  v2012                                 |
|   \\  /    A nd           | Website:  www.openfoam.com                      |
|    \\/     M anipulation  |                                                 |
\*---------------------------------------------------------------------------*/
FoamFile
{
    version     2.0;
    format      ascii;
    class       volVectorField;
    location    "0.2";
    object      U;
}
// * * * * * * * * * * * * * * * * * * * * * * * * * * * * * * * * * * * * * //

dimensions      [0 1 -1 0 0 0 0];


internalField   nonuniform List<vector> 
3320
(
(-2.97572 -0.270273 0.0259694)
(-2.30825 -0.19561 0.0201443)
(-1.78756 -0.14233 0.0156003)
(-1.38047 -0.103595 0.0120475)
(-1.06099 -0.0751745 0.00925933)
(-0.810488 -0.0542533 0.00707312)
(-0.614432 -0.0388764 0.00536212)
(-0.461583 -0.0276289 0.00402821)
(-0.343009 -0.0194613 0.00299342)
(-0.251579 -0.0135811 0.00219552)
(-0.181575 -0.00938813 0.00158461)
(-0.128397 -0.00642561 0.00112053)
(-0.0883662 -0.00435012 0.000771192)
(-0.058546 -0.00290907 0.000510953)
(-0.0366045 -0.00191616 0.000319465)
(-0.020702 -0.00123759 0.000180679)
(-0.00939421 -0.000777845 8.19909e-05)
(-0.00154856 -0.000468773 1.35163e-05)
(0.00370798 -0.000268384 -3.2363e-05)
(0.00705409 -0.000132621 -6.15694e-05)
(0.00901521 -4.77317e-05 -7.86874e-05)
(0.009985 4.51191e-06 -8.71531e-05)
(0.0102632 3.52095e-05 -8.95832e-05)
(0.0100741 5.17573e-05 -8.79332e-05)
(0.0095823 5.83456e-05 -8.36414e-05)
(0.00890843 6.0157e-05 -7.77601e-05)
(0.00813851 5.84714e-05 -7.10403e-05)
(0.00733183 5.48505e-05 -6.39996e-05)
(0.0065284 5.03051e-05 -5.69866e-05)
(0.00575396 4.54495e-05 -5.02273e-05)
(0.00502402 4.06525e-05 -4.38556e-05)
(0.00434663 3.61439e-05 -3.79427e-05)
(0.00372465 3.20696e-05 -3.25139e-05)
(0.00315734 2.84635e-05 -2.75618e-05)
(0.00264192 2.53082e-05 -2.3063e-05)
(0.00217435 2.26008e-05 -1.89816e-05)
(0.00174998 2.03069e-05 -1.52773e-05)
(0.00136397 1.84118e-05 -1.1908e-05)
(0.00101323 1.67367e-05 -8.84644e-06)
(0.000695348 1.53317e-05 -6.07156e-06)
(0.00041645 1.34724e-05 -3.63646e-06)
(0.000183541 1.11656e-05 -1.60268e-06)
(3.4263e-05 8.18104e-06 -3.11836e-07)
(-3.78124 -0.864019 0.0330096)
(-3.09279 -0.670286 0.0269998)
(-2.52462 -0.524314 0.0220399)
(-2.05455 -0.411786 0.0179364)
(-1.66411 -0.323818 0.0145281)
(-1.3396 -0.254305 0.0116952)
(-1.07007 -0.199058 0.00934222)
(-0.846808 -0.15505 0.00739322)
(-0.66272 -0.120026 0.00578613)
(-0.511871 -0.092246 0.0044692)
(-0.389225 -0.0703261 0.00339846)
(-0.290428 -0.0531409 0.00253592)
(-0.211695 -0.0397664 0.00184853)
(-0.149715 -0.0294401 0.0013074)
(-0.101597 -0.0215331 0.000887266)
(-0.0648311 -0.0155313 0.000566254)
(-0.0372594 -0.0110182 0.000325508)
(-0.0170377 -0.00765793 0.000148931)
(-0.00261433 -0.00519118 2.2979e-05)
(0.00729931 -0.00339443 -6.35985e-05)
(0.0137698 -0.00210889 -0.000120113)
(0.0176574 -0.00120561 -0.000154073)
(0.0196464 -0.000584093 -0.000171456)
(0.0202769 -0.000168445 -0.000176974)
(0.0199667 9.79949e-05 -0.000174277)
(0.0190343 0.000260797 -0.000166146)
(0.0177165 0.000350922 -0.000154649)
(0.0161866 0.000391957 -0.000141298)
(0.014567 0.000401065 -0.000127162)
(0.0129416 0.000390322 -0.000112976)
(0.0113656 0.000368152 -9.92194e-05)
(0.00987242 0.000340317 -8.61856e-05)
(0.00848008 0.000310644 -7.40323e-05)
(0.00719529 0.000281512 -6.28168e-05)
(0.00601765 0.000254315 -5.25372e-05)
(0.00494213 0.000229791 -4.31485e-05)
(0.00396122 0.000208071 -3.45858e-05)
(0.00306665 0.000188838 -2.67769e-05)
(0.00225388 0.000170883 -1.96819e-05)
(0.00152095 0.000152516 -1.32837e-05)
(0.000885784 0.0001294 -7.73802e-06)
(0.00036934 9.69265e-05 -3.22867e-06)
(5.62565e-05 5.1379e-05 -5.25934e-07)
(-3.63834 -1.29702 0.0317612)
(-3.0461 -1.03219 0.0265915)
(-2.54469 -0.827904 0.0222146)
(-2.11973 -0.667486 0.0185049)
(-1.75857 -0.539759 0.0153523)
(-1.45126 -0.436792 0.0126697)
(-1.18964 -0.353025 0.0103858)
(-0.96713 -0.284444 0.00844345)
(-0.778382 -0.228108 0.00679575)
(-0.61896 -0.181799 0.00540404)
(-0.485132 -0.143802 0.00423572)
(-0.373671 -0.112747 0.00326267)
(-0.281738 -0.0875132 0.00246007)
(-0.206786 -0.0671598 0.0018057)
(-0.146495 -0.0508845 0.00127932)
(-0.0987487 -0.0379974 0.000862448)
(-0.0616167 -0.0279045 0.000538236)
(-0.0333462 -0.0200946 0.000291387)
(-0.0123679 -0.014133 0.000108201)
(0.00270519 -0.00964804 -2.3429e-05)
(0.0130856 -0.00632454 -0.000114087)
(0.019809 -0.00390902 -0.000172814)
(0.0237424 -0.00218879 -0.00020718)
(0.0256002 -0.000994622 -0.000223421)
(0.0259587 -0.000191964 -0.000226569)
(0.025275 0.000324978 -0.000220614)
(0.0239015 0.00063756 -0.000208635)
(0.0221056 0.000807427 -0.000192966)
(0.0200836 0.000880698 -0.000175319)
(0.0179751 0.00089097 -0.000156917)
(0.0158764 0.000862355 -0.000138599)
(0.0138499 0.0008118 -0.00012091)
(0.0119331 0.000750898 -0.000104179)
(0.0101449 0.000687209 -8.85699e-05)
(0.00849205 0.000625417 -7.41418e-05)
(0.00697263 0.000568146 -6.08781e-05)
(0.00558026 0.000516249 -4.87236e-05)
(0.00430676 0.000469089 -3.76068e-05)
(0.00314881 0.000423845 -2.74984e-05)
(0.00210726 0.000375673 -1.8406e-05)
(0.00121025 0.000314681 -1.05741e-05)
(0.000491204 0.000229185 -4.29583e-06)
(6.46679e-05 0.000115207 -6.16345e-07)
(-3.31334 -1.64524 0.0289237)
(-2.8176 -1.33357 0.0245964)
(-2.38748 -1.08692 0.0208419)
(-2.01574 -0.889518 0.0175969)
(-1.69482 -0.729927 0.0147955)
(-1.41798 -0.599644 0.0123789)
(-1.17927 -0.492412 0.0102952)
(-0.973623 -0.403561 0.00849998)
(-0.796738 -0.329591 0.00695586)
(-0.645014 -0.267841 0.00563137)
(-0.515421 -0.216262 0.00450007)
(-0.405376 -0.173243 0.00353939)
(-0.312644 -0.137489 0.00272985)
(-0.235257 -0.107937 0.00205425)
(-0.171434 -0.0836879 0.00149704)
(-0.119537 -0.063968 0.00104395)
(-0.0780414 -0.0481006 0.000681653)
(-0.0455175 -0.0354865 0.000397677)
(-0.0206284 -0.0255949 0.000180352)
(-0.00213504 -0.017955 1.8862e-05)
(0.0110947 -0.0121504 -9.66732e-05)
(0.0200813 -0.00782367 -0.000175162)
(0.0257219 -0.00466406 -0.000224436)
(0.0287876 -0.00241232 -0.000251226)
(0.0299271 -0.000854542 -0.000261196)
(0.0296749 0.000183071 -0.000259013)
(0.028459 0.000839417 -0.000248413)
(0.026615 0.00122297 -0.000232327)
(0.0243976 0.00141685 -0.000212977)
(0.0219949 0.00148323 -0.000192009)
(0.0195409 0.00146783 -0.00017059)
(0.0171268 0.00140344 -0.000149518)
(0.014811 0.00131303 -0.000129305)
(0.012627 0.001212 -0.00011024)
(0.0105906 0.00111023 -9.24649e-05)
(0.00870619 0.00101344 -7.60149e-05)
(0.00697061 0.0009239 -6.08644e-05)
(0.00537791 0.000840807 -4.69612e-05)
(0.0039274 0.000759445 -3.42989e-05)
(0.00262361 0.000670842 -2.2917e-05)
(0.00150284 0.000558429 -1.31314e-05)
(0.000608531 0.000401756 -5.32332e-06)
(7.48876e-05 0.000195963 -7.24762e-07)
(-2.95898 -1.90014 0.0258299)
(-2.55028 -1.56664 0.0222625)
(-2.18645 -1.29547 0.0190868)
(-1.86534 -1.07371 0.0162837)
(-1.58346 -0.891266 0.0138232)
(-1.33703 -0.740225 0.0116721)
(-1.12221 -0.61445 0.00979693)
(-0.935416 -0.509174 0.00816631)
(-0.77336 -0.420697 0.00675167)
(-0.633146 -0.346127 0.00552767)
(-0.512246 -0.283194 0.00447226)
(-0.408463 -0.230094 0.00356627)
(-0.319899 -0.185379 0.00279312)
(-0.244901 -0.147869 0.0021384)
(-0.182005 -0.116579 0.0015893)
(-0.129894 -0.0906738 0.00113435)
(-0.0873543 -0.0694268 0.000762953)
(-0.05325 -0.0521948 0.000465189)
(-0.0265028 -0.0384004 0.00023165)
(-0.00608565 -0.0275192 5.33691e-05)
(0.00896976 -0.0190786 -7.81025e-05)
(0.0195725 -0.0126505 -0.0001707)
(0.0265571 -0.00785619 -0.000231709)
(0.0306714 -0.00436413 -0.000267655)
(0.0325704 -0.00189116 -0.000284259)
(0.0328147 -0.00019965 -0.000286413)
(0.0318695 0.000906029 -0.000278178)
(0.0301122 0.00158302 -0.000262851)
(0.027839 0.00195511 -0.000243016)
(0.0252756 0.00211717 -0.000220647)
(0.0225886 0.00214044 -0.000197195)
(0.0198953 0.00207719 -0.000173687)
(0.0172749 0.00196468 -0.000150815)
(0.014776 0.00182854 -0.000129002)
(0.0124256 0.00168561 -0.000108486)
(0.0102354 0.00154597 -8.9367e-05)
(0.0082075 0.00141407 -7.1665e-05)
(0.00633964 0.00128926 -5.53598e-05)
(0.00463465 0.00116488 -4.0476e-05)
(0.0031011 0.00102732 -2.70883e-05)
(0.00178184 0.000852716 -1.55698e-05)
(0.000728026 0.000611028 -6.36958e-06)
(8.80273e-05 0.000294033 -8.60721e-07)
(-2.60586 -2.08609 0.0227471)
(-2.27533 -1.74687 0.0198621)
(-1.97289 -1.46381 0.0172223)
(-1.69979 -1.22724 0.0148384)
(-1.45554 -1.02904 0.0127063)
(-1.23871 -0.862454 0.0108137)
(-1.04736 -0.722005 0.00914336)
(-0.879284 -0.603234 0.0076762)
(-0.732259 -0.50254 0.00639278)
(-0.604131 -0.417013 0.0052743)
(-0.492902 -0.344302 0.00430332)
(-0.396753 -0.282489 0.00346398)
(-0.314058 -0.230011 0.00274208)
(-0.243384 -0.185582 0.00212511)
(-0.183463 -0.148129 0.00160199)
(-0.133169 -0.116749 0.00116291)
(-0.0914881 -0.0906658 0.000799026)
(-0.0574899 -0.0691987 0.000502197)
(-0.0302998 -0.0517395 0.000264798)
(-0.00908323 -0.0377349 7.95444e-05)
(0.0069593 -0.0266819 -6.0541e-05)
(0.0185971 -0.0181106 -0.000162172)
(0.0265596 -0.0115986 -0.000231718)
(0.0315253 -0.00676428 -0.000275097)
(0.034111 -0.00327093 -0.000297697)
(0.034865 -0.00082722 -0.000304301)
(0.0342582 0.000813296 -0.000299023)
(0.0326855 0.0018538 -0.00028531)
(0.0304675 0.0024587 -0.000265958)
(0.0278561 0.00275686 -0.000243171)
(0.0250432 0.00284726 -0.000218621)
(0.0221688 0.00280392 -0.000193534)
(0.0193311 0.00268067 -0.000168766)
(0.0165939 0.00251535 -0.000144874)
(0.0139959 0.0023333 -0.000122196)
(0.0115574 0.00215019 -0.00010091)
(0.00928693 0.00197343 -8.10904e-05)
(0.00718699 0.00180298 -6.27595e-05)
(0.00526477 0.00163033 -4.59794e-05)
(0.00353305 0.0014371 -3.08617e-05)
(0.00204003 0.00119182 -1.7826e-05)
(0.000842976 0.000854336 -7.37594e-06)
(0.000101881 0.000409591 -1.003e-06)
(-2.27363 -2.21259 0.0198467)
(-2.00948 -1.8795 0.0175412)
(-1.7613 -1.59467 0.015375)
(-1.53204 -1.35151 0.0133739)
(-1.32301 -1.14402 0.0115494)
(-1.13443 -0.966905 0.00990324)
(-0.96573 -0.815603 0.00843067)
(-0.815884 -0.686239 0.00712266)
(-0.683589 -0.575551 0.00596783)
(-0.567412 -0.4808 0.00495368)
(-0.465896 -0.399698 0.0040675)
(-0.377619 -0.330324 0.00329689)
(-0.301248 -0.271069 0.0026302)
(-0.235559 -0.22058 0.00205676)
(-0.179446 -0.177716 0.00156689)
(-0.131922 -0.14151 0.001152)
(-0.0921058 -0.111132 0.000804397)
(-0.0592019 -0.0858611 0.000517128)
(-0.0324789 -0.06506 0.000283813)
(-0.0112496 -0.0481529 9.84549e-05)
(0.00514242 -0.0346157 -4.46772e-05)
(0.0173337 -0.0239587 -0.000151137)
(0.0259412 -0.0157311 -0.000226311)
(0.0315548 -0.00951879 -0.000275346)
(0.0347277 -0.00494873 -0.000303072)
(0.0359698 -0.00168836 -0.000313938)
(0.0357344 0.000550925 -0.000311903)
(0.034414 0.00201282 -0.000300393)
(0.0323375 0.00289943 -0.000282278)
(0.0297716 0.00337274 -0.00025989)
(0.0269261 0.00355982 -0.000235057)
(0.0239589 0.0035576 -0.00020916)
(0.0209846 0.00343795 -0.0001832)
(0.0180812 0.00325235 -0.000157858)
(0.0152993 0.00303603 -0.000133575)
(0.0126682 0.00281124 -0.000110608)
(0.0102038 0.0025892 -8.9096e-05)
(0.0079142 0.00237095 -6.91098e-05)
(0.00581147 0.00214643 -5.0754e-05)
(0.00391275 0.00189255 -3.41784e-05)
(0.00227077 0.00157013 -1.98423e-05)
(0.000947932 0.00112842 -8.29477e-06)
(0.000114824 0.000541593 -1.13589e-06)
(-1.96911 -2.29514 0.0171883)
(-1.76022 -1.97467 0.0153652)
(-1.55879 -1.6945 0.013607)
(-1.36849 -1.45053 0.0119461)
(-1.19161 -1.2387 0.0104021)
(-1.02936 -1.05513 0.00898594)
(-0.882157 -0.896247 0.00770103)
(-0.749827 -0.758888 0.00654593)
(-0.63181 -0.640248 0.00551575)
(-0.527288 -0.537881 0.00460335)
(-0.435302 -0.449666 0.00380037)
(-0.35482 -0.373765 0.00309781)
(-0.284805 -0.30859 0.00248661)
(-0.224256 -0.252774 0.00195804)
(-0.172234 -0.205138 0.00150389)
(-0.127878 -0.164665 0.00111667)
(-0.0904138 -0.130479 0.000789602)
(-0.0591451 -0.101818 0.000516613)
(-0.0334412 -0.0780104 0.000292201)
(-0.0127221 -0.0584588 0.000111301)
(0.00355845 -0.0426206 -3.08523e-05)
(0.0159255 -0.0299932 -0.000138843)
(0.0248923 -0.0201091 -0.000217151)
(0.0309595 -0.0125343 -0.000270143)
(0.0346068 -0.00687181 -0.00030201)
(0.0362906 -0.00276087 -0.000316732)
(0.0364307 0.000119819 -0.000317975)
(0.0354019 0.0020475 -0.000309012)
(0.0335285 0.00325719 -0.000292671)
(0.0310814 0.00394137 -0.000271322)
(0.0282805 0.00425414 -0.000246879)
(0.0252964 0.00431538 -0.000220835)
(0.0222569 0.00421564 -0.000194307)
(0.0192528 0.00402098 -0.000168086)
(0.0163456 0.00377749 -0.00014271)
(0.013574 0.00351494 -0.000118517)
(0.0109615 0.00324906 -9.57124e-05)
(0.00852254 0.00298256 -7.4422e-05)
(0.00627422 0.00270414 -5.47954e-05)
(0.00423819 0.00238625 -3.70212e-05)
(0.00247121 0.00198201 -2.15939e-05)
(0.00104024 0.00142955 -9.10293e-06)
(0.000126115 0.000688283 -1.25216e-06)
(-1.69661 -2.34424 0.0148095)
(-1.53241 -2.03996 0.0133765)
(-1.37012 -1.76851 0.01196)
(-1.21346 -1.5278 0.0105927)
(-1.0651 -1.31535 0.00929775)
(-0.926783 -1.12857 0.00809041)
(-0.799499 -0.964872 0.00697938)
(-0.683665 -0.821798 0.0059683)
(-0.579265 -0.697061 0.00505699)
(-0.485962 -0.588572 0.00424254)
(-0.403211 -0.494445 0.00352018)
(-0.330327 -0.412987 0.00288394)
(-0.266551 -0.342687 0.00232722)
(-0.211104 -0.282208 0.00184319)
(-0.163216 -0.230365 0.00142513)
(-0.122156 -0.186117 0.00106668)
(-0.0872505 -0.148553 0.000761961)
(-0.0578887 -0.116875 0.000505625)
(-0.0335183 -0.0903804 0.000292859)
(-0.013639 -0.0684452 0.000119295)
(0.00221175 -0.0505087 -1.91026e-05)
(0.0144713 -0.0360564 -0.000126151)
(0.0235648 -0.02461 -0.000205562)
(0.0299113 -0.0157236 -0.00026099)
(0.033918 -0.00898494 -0.000295993)
(0.0359821 -0.00401524 -0.000314035)
(0.0364801 -0.00047011 -0.000318402)
(0.0357591 0.00195406 -0.000312126)
(0.0341283 0.00351959 -0.000297904)
(0.031854 0.00444565 -0.000278063)
(0.0291588 0.00491121 -0.000254544)
(0.0262208 0.00505817 -0.000228903)
(0.0231776 0.00499565 -0.000202343)
(0.0201304 0.0048047 -0.000175747)
(0.0171506 0.0045429 -0.000149737)
(0.014286 0.00424824 -0.000124733)
(0.0115678 0.0039416 -0.000101006)
(0.00901667 0.00362787 -7.87369e-05)
(0.00665533 0.00329496 -5.81238e-05)
(0.0045098 0.00291115 -3.93938e-05)
(0.00264057 0.002422 -2.30738e-05)
(0.00111886 0.00175386 -9.79119e-06)
(0.000135497 0.000847636 -1.34925e-06)
(-1.456 -2.36966 0.0127091)
(-1.32757 -2.08269 0.0115883)
(-1.19756 -1.82205 0.0104536)
(-1.06944 -1.58708 0.00933536)
(-0.945888 -1.37657 0.00825698)
(-0.828853 -1.189 0.00723546)
(-0.719647 -1.02265 0.00628225)
(-0.619046 -0.875746 0.00540414)
(-0.527403 -0.746511 0.0046042)
(-0.444735 -0.633232 0.00388259)
(-0.370819 -0.534293 0.00323736)
(-0.305254 -0.44818 0.00266503)
(-0.247526 -0.373497 0.0021611)
(-0.197056 -0.308969 0.00172052)
(-0.153239 -0.253436 0.00133801)
(-0.115473 -0.205856 0.00100832)
(-0.0831863 -0.1653 0.000726457)
(-0.055848 -0.130943 0.000487789)
(-0.0329752 -0.102053 0.0002881)
(-0.0141317 -0.077982 0.000123583)
(0.00107984 -0.0581502 -9.23053e-06)
(0.0130282 -0.0420301 -0.000113559)
(0.022067 -0.0291345 -0.000192488)
(0.0285445 -0.0190097 -0.000249058)
(0.0328024 -0.0112344 -0.000286252)
(0.0351788 -0.00541853 -0.000307018)
(0.036003 -0.0012028 -0.000314233)
(0.0355882 0.00173564 -0.00031063)
(0.0342213 0.0036808 -0.000298712)
(0.0321569 0.00487419 -0.000280704)
(0.0296139 0.0055167 -0.000258514)
(0.0267728 0.00577057 -0.00023372)
(0.0237775 0.00576273 -0.000207579)
(0.020737 0.00558914 -0.000181042)
(0.0177313 0.00531912 -0.000154807)
(0.0148165 0.00499934 -0.000129365)
(0.012031 0.00465636 -0.00010505)
(0.0094022 0.00429774 -8.21033e-05)
(0.006958 0.00391102 -6.0767e-05)
(0.00472891 0.0034607 -4.13076e-05)
(0.00277897 0.00288487 -2.42831e-05)
(0.00118348 0.00209748 -1.0357e-05)
(0.00014293 0.00101755 -1.42674e-06)
(-1.04205 -1.85956 0.00909603)
(-0.937751 -1.63171 0.00818575)
(-0.835418 -1.42481 0.00729259)
(-0.736993 -1.23817 0.00643351)
(-0.643904 -1.07082 0.00562099)
(-0.557121 -0.921589 0.00486351)
(-0.477227 -0.789187 0.00416613)
(-0.404481 -0.672269 0.00353114)
(-0.338898 -0.569496 0.00295866)
(-0.280297 -0.479549 0.00244712)
(-0.228364 -0.401169 0.00199378)
(-0.182694 -0.333164 0.00159511)
(-0.142829 -0.274422 0.0012471)
(-0.10829 -0.223918 0.000945583)
(-0.0786032 -0.18072 0.000686423)
(-0.0533173 -0.143988 0.000465675)
(-0.0320139 -0.112969 0.00027969)
(-0.0143133 -0.0869922 0.000125154)
(0.000128378 -0.0654591 -9.35253e-07)
(0.011625 -0.0478286 -0.000101316)
(0.0204726 -0.0336049 -0.000178574)
(0.0269606 -0.0223278 -0.000235233)
(0.0313728 -0.0135709 -0.000273771)
(0.0339933 -0.00693721 -0.000296668)
(0.0351042 -0.00205873 -0.000306384)
(0.0349814 0.00140027 -0.00030533)
(0.0338855 0.0037402 -0.000295778)
(0.0320538 0.00522046 -0.000279801)
(0.0296965 0.00606048 -0.000259233)
(0.0269922 0.00644062 -0.000235633)
(0.0240871 0.00650437 -0.000210281)
(0.0210958 0.00636203 -0.000184173)
(0.0181051 0.00609462 -0.000158069)
(0.0151781 0.0057577 -0.000132521)
(0.0123602 0.00538388 -0.000107924)
(0.00968501 0.0049838 -8.45727e-05)
(0.00718577 0.00454506 -6.27561e-05)
(0.00489729 0.00402874 -4.27784e-05)
(0.00288702 0.00336561 -2.52272e-05)
(0.00123423 0.00245657 -1.08013e-05)
(0.000148478 0.00119591 -1.48518e-06)
(-0.903416 -1.88484 0.00788585)
(-0.8188 -1.6647 0.00714735)
(-0.7344 -1.46234 0.00641072)
(-0.652028 -1.27778 0.00569178)
(-0.573105 -1.11063 0.00500292)
(-0.498674 -0.960232 0.00435324)
(-0.42944 -0.825736 0.00374893)
(-0.365819 -0.706143 0.00319359)
(-0.307987 -0.600379 0.00268878)
(-0.255928 -0.507327 0.00223435)
(-0.209484 -0.42587 0.00182893)
(-0.168393 -0.354915 0.00147023)
(-0.132323 -0.293408 0.00115536)
(-0.100904 -0.240357 0.000881085)
(-0.0737557 -0.19484 0.000644083)
(-0.0505005 -0.156012 0.000441065)
(-0.0307823 -0.123106 0.000268921)
(-0.0142738 -0.0954348 0.000124794)
(-0.000677601 -0.0723817 6.08906e-06)
(0.0102746 -0.0533924 -8.95366e-05)
(0.018832 -0.0379624 -0.000164258)
(0.0252353 -0.0256252 -0.000220175)
(0.029719 -0.015951 -0.000259335)
(0.0325192 -0.00853914 -0.000283799)
(0.0338737 -0.0030168 -0.000295641)
(0.0340207 0.000959318 -0.000296941)
(0.033192 0.00370119 -0.000289721)
(0.0316043 0.0054819 -0.000275875)
(0.0294553 0.00653603 -0.000257125)
(0.0269174 0.00705943 -0.000234979)
(0.0241365 0.00721056 -0.000210711)
(0.0212298 0.00711311 -0.000185342)
(0.018289 0.00685944 -0.000159675)
(0.0153834 0.006514 -0.000134313)
(0.0125644 0.00611563 -0.000109706)
(0.00987128 0.00567841 -8.6199e-05)
(0.00734253 0.00519037 -6.4125e-05)
(0.00501711 0.00460951 -4.3825e-05)
(0.00296573 0.00385945 -2.5915e-05)
(0.00127153 0.00282741 -1.11278e-05)
(0.000152249 0.00138067 -1.52562e-06)
(-0.780895 -1.90094 0.00681632)
(-0.712401 -1.68854 0.00621854)
(-0.643007 -1.49119 0.00561289)
(-0.574338 -1.3094 0.00501355)
(-0.507724 -1.14327 0.00443214)
(-0.444199 -0.992569 0.00387767)
(-0.384518 -0.856821 0.00335675)
(-0.32918 -0.735338 0.00287372)
(-0.278468 -0.627296 0.00243106)
(-0.232482 -0.53177 0.00202965)
(-0.191179 -0.447787 0.00166911)
(-0.15441 -0.374355 0.00134814)
(-0.121947 -0.31049 0.00106476)
(-0.093516 -0.255239 0.000816562)
(-0.0688151 -0.207701 0.00060093)
(-0.0475378 -0.167033 0.000415182)
(-0.0293862 -0.132464 0.000256716)
(-0.0140813 -0.103292 0.000123099)
(-0.00136831 -0.0788871 1.21066e-05)
(0.00898205 -0.058682 -7.82623e-05)
(0.0171798 -0.0421638 -0.000149841)
(0.0234255 -0.02886 -0.00020438)
(0.0279119 -0.0183377 -0.000243562)
(0.0308336 -0.0101947 -0.000269084)
(0.0323882 -0.00405573 -0.000282673)
(0.0327779 0.000426253 -0.00028609)
(0.0322048 0.00357 -0.0002811)
(0.0308634 0.00565917 -0.000269404)
(0.0289358 0.00693987 -0.000252588)
(0.0265856 0.00762086 -0.000232081)
(0.023955 0.00787359 -0.000209125)
(0.0211618 0.00783401 -0.000184746)
(0.0183006 0.00760514 -0.000159774)
(0.0154453 0.0072601 -0.000134853)
(0.0126527 0.00684404 -0.000110478)
(0.00996746 0.00637468 -8.70385e-05)
(0.0074325 0.0058408 -6.49105e-05)
(0.00509088 0.00519767 -4.44692e-05)
(0.00301644 0.00436186 -2.63581e-05)
(0.00129598 0.00320641 -1.1342e-05)
(0.000154384 0.00156987 -1.54941e-06)
(-0.67332 -1.9103 0.00587727)
(-0.617958 -1.70534 0.00539411)
(-0.561035 -1.51308 0.0048973)
(-0.503965 -1.33442 0.00439921)
(-0.447949 -1.16984 0.0039103)
(-0.393961 -1.01945 0.00343908)
(-0.34275 -0.883093 0.0029921)
(-0.294851 -0.760347 0.00257401)
(-0.250608 -0.650614 0.00218782)
(-0.210197 -0.553151 0.00183507)
(-0.173658 -0.467121 0.00151613)
(-0.140928 -0.391635 0.00123042)
(-0.111862 -0.325777 0.00097669)
(-0.0862625 -0.268644 0.000753219)
(-0.0638991 -0.219357 0.000557994)
(-0.0445267 -0.177086 0.000388876)
(-0.0279002 -0.141057 0.000243727)
(-0.0137861 -0.110562 0.000120508)
(-0.00196787 -0.0849601 1.73284e-05)
(0.00774877 -0.0636725 -6.7506e-05)
(0.0155404 -0.0461787 -0.000135538)
(0.0215742 -0.0319998 -0.000188224)
(0.0260077 -0.0207005 -0.000226942)
(0.0289999 -0.0118775 -0.000253078)
(0.030713 -0.00515513 -0.000268049)
(0.0313157 -0.000185253 -0.000273324)
(0.0309812 0.00335483 -0.000270418)
(0.0298814 0.00575532 -0.00026083)
(0.0281808 0.0072711 -0.000245995)
(0.026032 0.00812113 -0.000227245)
(0.023571 0.00848785 -0.00020577)
(0.0209139 0.00851808 -0.000182581)
(0.0181568 0.00832468 -0.000158518)
(0.0153768 0.00798901 -0.000134254)
(0.0126349 0.00756242 -0.000110321)
(0.00998024 0.00706641 -8.71498e-05)
(0.00746016 0.00649075 -6.51519e-05)
(0.00512139 0.00578825 -4.47356e-05)
(0.00304072 0.00486856 -2.65702e-05)
(0.00130837 0.00359016 -1.14505e-05)
(0.000155032 0.00176166 -1.558e-06)
(-0.579357 -1.91481 0.00505705)
(-0.534646 -1.71676 0.00466685)
(-0.488029 -1.52945 0.00426)
(-0.440713 -1.35405 0.00384704)
(-0.393754 -1.19132 0.0034372)
(-0.348039 -1.04167 0.00303819)
(-0.304275 -0.905169 0.00265621)
(-0.262997 -0.781648 0.00229591)
(-0.224576 -0.670701 0.00196055)
(-0.189234 -0.571749 0.00165205)
(-0.157068 -0.484083 0.00137127)
(-0.128077 -0.40691 0.00111821)
(-0.10218 -0.339386 0.000892143)
(-0.0792418 -0.280655 0.000691909)
(-0.0590911 -0.229867 0.000516002)
(-0.0415358 -0.186208 0.000362749)
(-0.026378 -0.148907 0.000230422)
(-0.0134248 -0.117253 0.00011734)
(-0.00249488 -0.0905963 2.19169e-05)
(0.00657465 -0.0683504 -5.72663e-05)
(0.0139313 -0.0499864 -0.000121499)
(0.0197139 -0.0350205 -0.00017199)
(0.0240505 -0.0230146 -0.00020986)
(0.0270694 -0.0135648 -0.000236227)
(0.0289025 -0.00629601 -0.000252244)
(0.0296881 -0.000860894 -0.000259116)
(0.0295723 0.00306505 -0.000258117)
(0.028704 0.00577526 -0.00025055)
(0.0272299 0.00753083 -0.000237692)
(0.0252896 0.00855846 -0.000220763)
(0.0230114 0.00904956 -0.000200884)
(0.0205079 0.0091603 -0.000179035)
(0.0178746 0.00901237 -0.000156054)
(0.0151907 0.00869482 -0.000132629)
(0.0125203 0.00826497 -0.000109321)
(0.00991647 0.0077481 -8.65927e-05)
(0.00743021 0.00713514 -6.48901e-05)
(0.00511166 0.00637669 -4.46506e-05)
(0.00304035 0.00537557 -2.6567e-05)
(0.00130954 0.00397544 -1.14609e-05)
(0.000154346 0.00195431 -1.55292e-06)
(-0.497605 -1.91591 0.00434343)
(-0.461515 -1.72416 0.00402847)
(-0.423383 -1.5415 0.00369569)
(-0.38423 -1.36932 0.00335397)
(-0.344967 -1.20858 0.0030113)
(-0.30638 -1.05992 0.00267451)
(-0.269117 -0.92362 0.00234928)
(-0.233687 -0.799695 0.00204003)
(-0.200464 -0.687914 0.00175004)
(-0.169692 -0.587841 0.00148144)
(-0.141506 -0.498884 0.0012354)
(-0.115946 -0.420342 0.00101229)
(-0.0929812 -0.351439 0.000811823)
(-0.0725242 -0.291363 0.000633247)
(-0.0544511 -0.239299 0.000475478)
(-0.0386148 -0.194447 0.000337232)
(-0.0248581 -0.156045 0.000217139)
(-0.0130244 -0.12338 0.00011383)
(-0.00296377 -0.0957999 2.59983e-05)
(0.00545869 -0.0727097 -4.75343e-05)
(0.012365 -0.053574 -0.000107834)
(0.0178692 -0.0379044 -0.000155893)
(0.0220748 -0.0252603 -0.000192617)
(0.0250839 -0.0152371 -0.000218898)
(0.0270023 -0.00746115 -0.000235657)
(0.0279415 -0.00158641 -0.000243868)
(0.0280224 0.00271067 -0.000244586)
(0.0273719 0.00572511 -0.00023892)
(0.0261189 0.00772173 -0.000227992)
(0.0243893 0.00893274 -0.000212902)
(0.022302 0.00955652 -0.000194689)
(0.0199645 0.00975704 -0.00017429)
(0.0174706 0.00966373 -0.000152525)
(0.0148998 0.00937263 -0.000130088)
(0.0123187 0.0089467 -0.000107559)
(0.00978311 0.00841491 -8.54278e-05)
(0.00734748 0.00776943 -6.41674e-05)
(0.00506488 0.00695881 -4.42418e-05)
(0.00301723 0.00587919 -2.63649e-05)
(0.00130044 0.00435927 -1.13813e-05)
(0.000152475 0.00214625 -1.53564e-06)
(-0.426695 -1.91469 0.00372446)
(-0.397575 -1.72858 0.00347033)
(-0.366414 -1.5502 0.00319838)
(-0.334066 -1.38108 0.00291607)
(-0.301312 -1.22236 0.0026302)
(-0.268835 -1.07483 0.00234675)
(-0.237213 -0.938961 0.00207075)
(-0.206915 -0.814907 0.0018063)
(-0.178301 -0.702588 0.00155654)
(-0.151621 -0.601693 0.00132366)
(-0.127029 -0.511734 0.001109)
(-0.104595 -0.432094 0.000913182)
(-0.0843219 -0.362059 0.000736211)
(-0.0661597 -0.300863 0.000577668)
(-0.0500225 -0.247721 0.0004368)
(-0.0358 -0.201852 0.000312644)
(-0.0233693 -0.162504 0.000204128)
(-0.0126051 -0.128966 0.000110157)
(-0.00338558 -0.100581 2.96691e-05)
(0.00439973 -0.0767509 -3.82998e-05)
(0.0108504 -0.0569346 -9.46189e-05)
(0.0160588 -0.0406396 -0.000140095)
(0.0201075 -0.0274224 -0.000175449)
(0.0230769 -0.0168785 -0.00020138)
(0.0250498 -0.00863534 -0.000218614)
(0.0261147 -0.00234907 -0.000227923)
(0.0263699 0.00230172 -0.000230161)
(0.0259214 0.00561176 -0.000226257)
(0.0248807 0.00784768 -0.000217182)
(0.0233595 0.00924522 -0.000203911)
(0.0214668 0.0100079 -0.000187397)
(0.0193035 0.0103059 -0.000168519)
(0.0169604 0.0102754 -0.00014807)
(0.0145164 0.0100185 -0.00012674)
(0.0120393 0.00960344 -0.000105119)
(0.00958711 0.00906264 -8.3716e-05)
(0.00721689 0.00838956 -6.30268e-05)
(0.00498432 0.00753082 -4.3538e-05)
(0.00297333 0.00637602 -2.59813e-05)
(0.001282 0.0047389 -1.122e-05)
(0.000149562 0.00233603 -1.50761e-06)
(-0.36533 -1.91193 0.00318881)
(-0.341845 -1.73082 0.00298386)
(-0.316405 -1.55632 0.00276184)
(-0.289719 -1.39005 0.00252895)
(-0.26245 -1.23329 0.00229095)
(-0.235186 -1.08696 0.002053)
(-0.208436 -0.951651 0.00181952)
(-0.182618 -0.827666 0.00159418)
(-0.158068 -0.715037 0.0013799)
(-0.135028 -0.613558 0.0011788)
(-0.113662 -0.522836 0.000992293)
(-0.0940556 -0.442325 0.000821157)
(-0.0762363 -0.37137 0.000665609)
(-0.0601821 -0.309249 0.000525469)
(-0.0458362 -0.255205 0.000400239)
(-0.0331179 -0.208477 0.000289215)
(-0.0219331 -0.168322 0.000191576)
(-0.0121826 -0.134033 0.000106457)
(-0.00376936 -0.104952 3.30084e-05)
(0.00339603 -0.0804785 -2.95473e-05)
(0.00939344 -0.0600659 -8.19086e-05)
(0.0142964 -0.0432181 -0.000124716)
(0.0181697 -0.0294898 -0.000158537)
(0.0210749 -0.0184759 -0.000183908)
(0.0230758 -0.00980542 -0.000201384)
(0.0242408 -0.003137 -0.000211565)
(0.024648 0.00184801 -0.000215129)
(0.0243842 0.00544252 -0.000212837)
(0.0235443 0.00791334 -0.000205515)
(0.0222263 0.00949818 -0.000194017)
(0.0205281 0.010404 -0.000179201)
(0.0185436 0.0108057 -0.000161883)
(0.0163593 0.010845 -0.000142822)
(0.0140526 0.0106294 -0.00012269)
(0.0116914 0.0102317 -0.000102081)
(0.00933538 0.00968769 -8.15175e-05)
(0.00704339 0.00899197 -6.15114e-05)
(0.00487332 0.00808935 -4.25683e-05)
(0.0029107 0.00686299 -2.5434e-05)
(0.0012552 0.00511182 -1.09855e-05)
(0.000145743 0.00252237 -1.47019e-06)
(-0.312315 -1.90824 0.00272604)
(-0.293392 -1.73151 0.00256091)
(-0.272648 -1.56047 0.00237988)
(-0.250667 -1.39681 0.00218805)
(-0.228009 -1.24189 0.0019903)
(-0.205179 -1.09675 0.00179105)
(-0.182617 -0.962094 0.00159413)
(-0.160692 -0.838314 0.00140277)
(-0.139706 -0.725544 0.0012196)
(-0.119889 -0.623671 0.00104662)
(-0.101401 -0.532378 0.000885246)
(-0.084338 -0.451187 0.00073631)
(-0.0687423 -0.379494 0.000600174)
(-0.0546121 -0.316616 0.00047683)
(-0.041913 -0.261824 0.000365977)
(-0.0305878 -0.214376 0.000267115)
(-0.0205655 -0.173538 0.000179624)
(-0.0117692 -0.138609 0.000102836)
(-0.00412246 -0.108931 3.60804e-05)
(0.00244567 -0.083901 -2.12602e-05)
(0.0079981 -0.062969 -6.97358e-05)
(0.0125921 -0.0456359 -0.000109845)
(0.0162771 -0.0314543 -0.00014202)
(0.0190991 -0.020019 -0.000166663)
(0.0211052 -0.0109602 -0.000184184)
(0.0223471 -0.00393946 -0.000195035)
(0.0228848 0.00135886 -0.000199738)
(0.022788 0.00522474 -0.000198902)
(0.0221359 0.00792391 -0.000193218)
(0.0210129 0.00969466 -0.000183424)
(0.0195063 0.0107459 -0.00017028)
(0.017702 0.0112561 -0.000154536)
(0.0156816 0.0113711 -0.000136904)
(0.0135199 0.011203 -0.000118038)
(0.0112841 0.0108288 -9.85247e-05)
(0.0090347 0.010287 -7.88917e-05)
(0.0068319 0.00957359 -5.96642e-05)
(0.00473523 0.00863139 -4.13621e-05)
(0.00283136 0.00733734 -2.47408e-05)
(0.00122098 0.0054758 -1.06861e-05)
(0.000141145 0.00270412 -1.42468e-06)
(-0.266572 -1.90402 0.00232676)
(-0.251347 -1.73111 0.0021939)
(-0.234462 -1.56313 0.00204655)
(-0.216391 -1.40182 0.00188885)
(-0.197605 -1.24861 0.00172489)
(-0.178535 -1.10462 0.00155846)
(-0.159562 -0.970641 0.00139286)
(-0.141006 -0.847152 0.00123091)
(-0.123135 -0.734367 0.00107492)
(-0.106156 -0.632245 0.00092673)
(-0.0902237 -0.540538 0.000787661)
(-0.075436 -0.458823 0.000658585)
(-0.061844 -0.386545 0.00053994)
(-0.0494598 -0.323054 0.000431839)
(-0.0382657 -0.267649 0.000334124)
(-0.0282228 -0.219602 0.000246456)
(-0.0192786 -0.178193 0.000168378)
(-0.0113745 -0.142723 9.9379e-05)
(-0.00445127 -0.112537 3.89407e-05)
(0.00154629 -0.0870291 -1.34179e-05)
(0.00666657 -0.065648 -5.81196e-05)
(0.0109529 -0.0478915 -9.55415e-05)
(0.0144416 -0.0333106 -0.000126003)
(0.0171657 -0.0214996 -0.000149789)
(0.0191581 -0.0120903 -0.00016719)
(0.020456 -0.00474693 -0.000178528)
(0.0211041 0.000842941 -0.000184194)
(0.0211566 0.00496567 -0.000184661)
(0.0206781 0.00788488 -0.000180493)
(0.0197406 0.0098383 -0.000172316)
(0.0184203 0.0110356 -0.000160799)
(0.0167951 0.0116574 -0.000146617)
(0.0149409 0.0118529 -0.000130437)
(0.0129292 0.0117377 -0.00011288)
(0.010826 0.0113924 -9.45246e-05)
(0.00869171 0.0108582 -7.58964e-05)
(0.00658727 0.0101318 -5.75276e-05)
(0.00457338 0.00915432 -3.99483e-05)
(0.00273737 0.00779661 -2.39194e-05)
(0.0011803 0.00582883 -1.03301e-05)