/*--------------------------------*- C++ -*----------------------------------*\
| =========                 |                                                 |
| \\      /  F ield         | OpenFOAM: The Open Source CFD Toolbox           |
|  \\    /   O peration     | Version:  v2012                                 |
|   \\  /    A nd           | Website:  www.openfoam.com                      |
|    \\/     M anipulation  |                                                 |
\*---------------------------------------------------------------------------*/
FoamFile
{
    version     2.0;
    format      ascii;
    class       volScalarField;
    location    "0.35";
    object      alpha.water;
}
// * * * * * * * * * * * * * * * * * * * * * * * * * * * * * * * * * * * * * //

dimensions      [0 0 0 0 0 0 0];


internalField   nonuniform List<scalar> 
3352
(
0.999984
0.999996
1
0.999996
0.999998
0.999999
1
0.962757
0.699968
0.347371
0.326736
0.353623
0.263911
0.0831071
0.00829297
0.00017505
4.93295e-07
3.1353e-10
3.62179e-14
9.42719e-17
2.03163e-19
3.56085e-22
4.94439e-25
5.22883e-28
3.95221e-31
1.90084e-34
4.39629e-38
3.18724e-43
8.05683e-60
1.07158e-73
2.59025e-70
7.97252e-67
1.11537e-63
1.34395e-60
1.46562e-57
1.50373e-54
1.50162e-51
7.91398e-49
6.74272e-38
0.999985
0.999995
1
0.999996
0.999998
0.999998
1
0.96197
0.689702
0.326612
0.291964
0.33235
0.217007
0.062383
0.00566456
0.000114837
3.49634e-07
2.45697e-10
6.79683e-14
1.06255e-16
2.4121e-19
4.41576e-22
6.35576e-25
6.91426e-28
5.32734e-31
2.57524e-34
5.77504e-38
-1.07337e-53
2.21801e-66
7.81011e-80
5.14169e-83
1.45485e-81
-2.74546e-77
2.78909e-75
4.85817e-72
2.8498e-70
9.25103e-55
1.55353e-48
6.45727e-47
0.999986
0.999994
1
0.999997
0.999998
0.999999
1
0.961276
0.682704
0.315131
0.274047
0.280395
0.193564
0.0534692
0.00467426
9.49051e-05
3.03743e-07
1.56145e-10
4.1666e-14
1.22937e-16
2.95476e-19
5.69319e-22
8.57363e-25
9.69666e-28
7.7064e-31
3.7949e-34
8.38623e-38
1.02862e-53
5.85462e-65
1.5606e-79
5.0462e-83
4.31889e-83
2.49162e-81
1.91046e-78
4.0999e-72
4.29939e-70
4.86563e-69
1.16521e-68
7.30466e-63
0.999987
0.999993
1
0.999998
0.999998
0.999999
1
0.960263
0.673351
0.301238
0.253894
0.257659
0.168867
0.0443045
0.0037256
7.61979e-05
2.58932e-07
8.24958e-11
4.40749e-14
1.37587e-16
3.47731e-19
7.00271e-22
1.09518e-24
1.2767e-27
1.03494e-30
5.1002e-34
1.06341e-37
-2.28919e-52
-2.54617e-69
1.58626e-79
5.03366e-83
1.20439e-85
1.32706e-82
7.69122e-80
1.15778e-76
5.60909e-74
8.25345e-68
1.22836e-64
2.42546e-63
0.999986
0.999993
1
0.999997
0.999998
0.999999
1
0.959235
0.664029
0.287832
0.235258
0.231681
0.146668
0.0368322
0.00299938
6.24473e-05
2.28242e-07
5.10835e-11
4.278e-14
1.39108e-16
3.66309e-19
7.66476e-22
1.2385e-24
1.47831e-27
1.20971e-30
5.84966e-34
1.08311e-37
-7.03499e-45
2.21472e-76
1.59924e-79
5.03544e-83
5.32165e-87
1.23672e-85
7.92811e-83
4.00224e-80
5.06011e-79
6.76547e-72
6.40174e-68
2.35148e-66
0.999987
0.999992
1
0.999997
0.999998
0.999999
1
0.958093
0.654135
0.274193
0.21716
0.208001
0.126441
0.03042
0.00241085
5.15681e-05
2.03167e-07
3.21351e-11
-1.40601e-13
-7.60059e-16
-2.18202e-18
-4.65835e-21
-7.82152e-24
-1.01548e-26
-9.86119e-30
-6.68895e-33
-2.76519e-36
-4.33831e-40
2.07602e-76
1.61238e-79
5.07457e-83
5.09986e-87
5.22607e-87
1.63644e-82
4.01185e-80
1.31287e-79
9.50063e-79
2.95297e-76
2.23285e-70
0.999989
0.999992
1
0.999997
0.999998
0.999999
1
0.956934
0.644143
0.260665
0.19979
0.185535
0.10833
0.0250279
0.00194005
4.30442e-05
1.8281e-07
2.68757e-11
-1.40008e-13
-7.55933e-16
-2.33388e-18
-5.39265e-21
-9.66211e-24
-1.32987e-26
-1.35416e-29
-9.45144e-33
-3.81883e-36
-4.35426e-40
1.83091e-76
1.62308e-79
5.08776e-83
5.02024e-87
5.06072e-87
9.97431e-85
3.54933e-80
8.5331e-79
9.51188e-79
9.35022e-78
5.50637e-72
0.99999
0.999991
1
0.999997
0.999999
0.999999
1
0.955708
0.633893
0.247204
0.183186
0.164689
0.092269
0.0205128
0.00156265
3.62801e-05
1.64634e-07
2.62028e-11
-1.23724e-13
-6.79958e-16
-2.18823e-18
-5.30795e-21
-9.96321e-24
-1.42414e-26
-1.48022e-29
-1.02029e-32
-3.74227e-36
-1.3183e-40
1.8935e-76
1.63159e-79
5.0981e-83
4.95722e-87
4.98798e-87
1.15464e-85
1.83418e-80
7.13866e-79
2.94779e-78
3.18422e-78
1.30656e-73
0.999991
0.99999
1
0.999997
0.999999
0.999999
1
0.954436
0.62348
0.233905
0.167403
0.145466
0.0781587
0.0167544
0.00125996
3.08572e-05
1.47791e-07
2.58902e-11
-1.05413e-13
-5.61902e-16
-1.85802e-18
-4.62514e-21
-8.86707e-24
-1.27998e-26
-1.31394e-29
-8.53064e-33
-2.52646e-36
1.82481e-66
2.09041e-76
1.63778e-79
5.10317e-83
4.89564e-87
4.92583e-87
2.74846e-86
1.3022e-80
5.69841e-79
2.96977e-78
2.97228e-78
2.99796e-75
0.999991
0.999989
1
0.999999
0.999999
0.999999
1
0.953085
0.612815
0.220786
0.152468
0.127906
0.0658788
0.0136447
0.00101718
2.64483e-05
1.31536e-07
2.46783e-11
-8.49998e-14
-4.62107e-16
-1.49424e-18
-3.67582e-21
-7.03747e-24
-9.95977e-27
-9.69735e-30
-5.5304e-33
-1.0423e-36
2.25246e-73
2.08352e-76
1.64171e-79
5.10508e-83
4.83913e-87
4.86672e-87
2.12803e-86
8.51559e-81
4.23321e-79
2.34784e-78
4.11611e-78
6.77395e-77
0.999992
0.999989
1
0.999999
1
0.999999
1
0.951659
0.601929
0.207917
0.138399
0.111985
0.0552769
0.0110837
0.000822323
2.2804e-05
1.15829e-07
2.26731e-11
-8.89964e-14
-4.1865e-16
-1.28264e-18
-3.0384e-21
-5.46561e-24
-7.19455e-27
-6.29e-30
-2.89236e-33
-1.20648e-37
2.20627e-73
2.0847e-76
1.64359e-79
5.10548e-83
4.78953e-87
4.73339e-87
1.76693e-86
5.30596e-81
3.17597e-79
1.95392e-78
3.44347e-78
4.34457e-78
0.999992
0.999988
1
1
1
0.999999
1
0.950156
0.590838
0.19536
0.12521
0.0976526
0.0461937
0.00898579
0.000665949
1.97358e-05
1.00767e-07
2.00737e-11
-7.01417e-14
-3.20221e-16
-9.47417e-19
-2.13902e-21
-3.63499e-24
-4.36182e-27
-3.22409e-30
-9.78005e-34
4.39288e-64
2.16148e-73
2.10126e-76
1.64395e-79
5.1062e-83
4.74142e-87
4.7497e-87
1.42225e-86
3.07242e-81
2.2551e-79
1.53312e-78
2.70274e-78
2.43024e-78
0.999993
0.999989
1
1
1
1
1
0.948602
0.579657
0.183216
0.112908
0.0848338
0.0384673
0.00727548
0.000540441
1.71051e-05
8.66478e-08
1.71269e-11
-5.21869e-14
-2.29865e-16
-6.45762e-19
-1.36079e-21
-2.10194e-24
-2.18436e-27
-1.2445e-30
-1.46278e-34
4.62497e-71
2.12004e-73
2.12277e-76
1.64329e-79
5.11009e-83
4.68767e-87
4.71796e-87
1.11481e-86
1.62206e-81
1.53364e-79
1.1776e-78
2.18605e-78
1.91457e-78
0.999993
0.999988
1
1
1
1
1
0.947043
0.568549
0.171597
0.101496
0.0734414
0.0319411
0.00588798
0.000439689
1.48148e-05
7.37638e-08
1.41236e-11
-3.73081e-14
-1.55221e-16
-4.07187e-19
-7.82234e-22
-1.06149e-24
-8.9992e-28
-3.33162e-31
-1.379e-55
1.20895e-70
2.07978e-73
2.14941e-76
1.64216e-79
5.12037e-83
4.6294e-87
4.64214e-87
8.61946e-87
7.56565e-82
9.89743e-80
8.84199e-79
1.74387e-78
1.62576e-78
0.999993
0.999988
1
1
1
1
1
0.945515
0.557766
0.160633
0.0909701
0.0633784
0.0264653
0.00476713
0.000358735
1.28008e-05
6.23585e-08
1.13059e-11
-2.54897e-14
-9.95157e-17
-2.3744e-19
-4.03751e-22
-4.61085e-25
-2.90847e-28
-4.22108e-32
7.55732e-68
1.3559e-70
2.0451e-73
2.18516e-76
1.64135e-79
5.14061e-83
4.57168e-87
3.90736e-87
4.97212e-87
2.97144e-82
5.95717e-80
6.43661e-79
1.38898e-78
1.35491e-78
0.999993
0.999988
1
1
1
1
1
0.944175
0.547596
0.15046
0.0813214
0.0545415
0.0218995
0.00386473
0.000293577
1.10233e-05
5.25346e-08
8.83369e-12
-1.81026e-14
-6.19276e-17
-1.30315e-19
-1.89117e-22
-1.70219e-25
-6.64137e-29
-6.03802e-54
7.59186e-68
1.36962e-70
2.0161e-73
2.2288e-76
1.64156e-79
5.17482e-83
4.53179e-87
1.78842e-87
1.86236e-87
9.03673e-83
3.28901e-80
4.48076e-79
1.10007e-78
1.13533e-78
0.999993
0.999988
1
1
1
1
1
0.942977
0.538407
0.141204
0.0725322
0.0468231
0.0181127
0.00313964
0.000240989
9.4571e-06
4.42489e-08
6.77516e-12
-1.16693e-14
-3.58391e-17
-6.53365e-20
-7.76923e-23
-5.01614e-26
-6.63943e-30
4.18122e-64
7.7115e-68
1.39923e-70
1.99408e-73
2.28043e-76
1.64419e-79
5.22746e-83
4.52636e-87
8.21574e-88
7.37889e-88
1.71589e-83
1.63461e-80
2.94004e-79
8.58168e-79
9.50111e-79
0.999994
0.999987
1
1
1
1
1
0.942278
0.530521
0.132975
0.0645759
0.0401142
0.014985
0.00255727
0.000198391
8.08383e-06
3.73353e-08
5.12619e-12
-7.24755e-15
-1.96768e-17
-3.01767e-20
-2.77035e-23
-1.04544e-26
-4.85248e-53
4.33535e-64
7.81158e-68
1.4327e-70
1.97997e-73
2.34069e-76
1.65023e-79
5.30348e-83
4.65999e-87
3.66273e-88
2.89233e-88
6.38232e-85
7.14324e-81
1.79662e-79
6.47984e-79
7.92811e-79
0.999993
0.999987
1
1
1
1
1
0.941663
0.524206
0.125851
0.0574176
0.0343064
0.0124086
0.00208891
0.000163729
6.88636e-06
3.15653e-08
3.84326e-12
-4.38381e-15
-1.03288e-17
-1.28616e-20
-8.28424e-24
-8.38899e-28
9.72371e-61
4.44231e-64
7.95383e-68
1.47524e-70
1.97365e-73
2.40986e-76
1.66102e-79
5.40847e-83
4.784e-87
1.45387e-88
9.09603e-89
9.12694e-86
2.63112e-81
9.97675e-80
4.66297e-79
6.49971e-79
0.999994
0.999986
1
1
1
1
1
0.941555
0.519975
0.119874
0.0510138
0.0292953
0.0102881
0.00171116
0.000135379
5.8471e-06
2.67019e-08
2.86728e-12
-2.60276e-15
-5.25272e-18
-5.0606e-21
-1.8696e-24
-3.01082e-40
1.02088e-60
4.57998e-64
8.12331e-68
1.52536e-70
1.97258e-73
2.48844e-76
1.67804e-79
5.54869e-83
4.95433e-87
5.54126e-89
2.75877e-89
1.10237e-86
7.72421e-82
4.85772e-80
3.12155e-79
5.13864e-79
0.999994
0.999986
1
1
1
1
1
0.942093
0.517256
0.115045
0.0453144
0.0249826
0.00854123
0.00140514
0.000112061
4.94804e-06
2.2538e-08
2.13875e-12
-1.58437e-15
-2.64243e-18
-1.83405e-21
-1.81643e-25
2.44683e-52
1.04852e-60
4.72939e-64
8.32645e-68
1.58419e-70
1.99281e-73
2.57713e-76
1.70296e-79
5.7313e-83
5.15045e-87
2.46943e-89
1.89213e-89
3.48744e-87
1.70356e-82
1.96123e-80
1.87221e-79
3.81959e-79
0.999996
0.999985
1
1
1
1
0.999993
0.943029
0.5163
0.111309
0.040265
0.0212779
0.00709871
0.00115593
9.27752e-05
4.17175e-06
1.89122e-08
1.60417e-12
-9.58198e-16
-1.326e-18
-5.85968e-22
-3.46268e-36
2.52006e-52
1.0827e-60
4.90233e-64
8.56443e-68
1.65219e-70
2.02487e-73
2.67677e-76
1.73772e-79
5.96454e-83
5.38013e-87
1.45571e-89
1.63249e-89
1.06417e-87
3.48484e-83
6.01669e-81
9.39824e-80
2.62817e-79
0.999996
0.999984
1
1
1
1
0.999979
0.944276
0.517067
0.108661
0.0358084
0.0180999
0.0059032
0.000951765
7.67393e-05
3.5023e-06
1.5712e-08
1.21505e-12
-5.98427e-16
-6.81473e-19
-1.40831e-22
-4.27122e-38
2.55668e-52
1.11757e-60
5.09277e-64
8.83948e-68
1.72993e-70
2.06915e-73
2.78847e-76
1.78458e-79
6.25796e-83
5.64791e-87
9.63108e-90
1.20837e-89
4.73618e-88
1.70719e-83
1.35086e-81
3.36585e-80
1.66764e-79
0.999997
0.999984
1
1
1
1
0.999982
0.945873
0.520533
0.106986
0.0318865
0.0153769
0.00490838
0.000783535
6.33455e-05
2.92568e-06
1.2869e-08
1.13315e-12
-3.95918e-16
-3.67061e-19
-5.33043e-32
9.71746e-46
2.60017e-52
1.15453e-60
5.30388e-64
9.15439e-68
1.81816e-70
2.13308e-73
2.91367e-76
1.8462e-79
6.6228e-83
5.96342e-87
5.8971e-90
8.90779e-90
3.32549e-88
1.31956e-83
4.14559e-82
7.68952e-81
7.17524e-80
0.999997
0.999984
1
1
1
1
0.999985
0.947659
0.524502
0.106255
0.0284422
0.0130462
0.00407738
0.000644183
5.21214e-05
2.42997e-06
1.03512e-08
1.48298e-12
-2.82709e-16
-2.08309e-19
-3.91827e-33
1.02072e-45
2.64186e-52
1.1931e-60
5.53544e-64
9.51245e-68
1.91773e-70
2.2165e-73
3.05419e-76
1.9258e-79
7.07234e-83
6.33881e-87
3.28995e-90
5.88014e-90
7.84534e-88
7.86263e-84
2.33363e-82
1.9468e-81
9.15888e-81
0.999997
0.999982
0.999997
1
1
0.999999
0.999995
0.949622
0.529738
0.105942
0.0254201
0.0110537
0.00338117
0.000528276
4.26988e-05
2.00515e-06
8.15208e-09
1.31576e-12
-2.18316e-16
-1.21891e-19
-1.55108e-34
1.06954e-45
2.68416e-52
1.23334e-60
5.7886e-64
9.91776e-68
2.02966e-70
2.32357e-73
3.21237e-76
2.02727e-79
7.62246e-83
6.78987e-87
2.06911e-90
3.28416e-90
2.52942e-88
2.92341e-84
1.10804e-82
9.2374e-82
2.96503e-81
0.999998
0.999982
0.999996
1
1
0.999999
0.999999
0.951677
0.535631
0.106087
0.0227686
0.00935252
0.00279686
0.000431621
3.4789e-05
1.64282e-06
6.2746e-09
8.15656e-13
-1.75999e-16
-6.81203e-20
-4.22626e-37
1.09997e-45
2.72684e-52
1.27529e-60
6.06466e-64
1.03756e-67
2.15522e-70
2.45818e-73
3.39117e-76
2.15541e-79
8.2923e-83
7.33675e-87
1.55784e-90
2.06683e-90
8.83192e-89
1.01021e-84
4.04878e-83
3.70958e-82
1.23853e-81
0.999997
0.999981
0.999995
1
1
0.999999
0.999999
0.953695
0.542057
0.107016
0.0204384
0.00790217
0.0023063
0.000350959
2.81635e-05
1.33578e-06
4.71845e-09
4.43854e-13
-1.47245e-16
-2.79675e-20
8.45313e-38
1.1342e-45
2.77066e-52
1.31911e-60
6.3656e-64
1.08925e-67
2.29598e-70
2.6252e-73
3.59438e-76
2.31614e-79
9.10511e-83
8.00539e-87
1.35487e-90
1.55675e-90
3.55048e-89
3.51811e-85
1.41023e-83
1.32418e-82
4.6619e-82
0.999997
0.999981
0.999995
1
1
0.999999
0.999999
0.955624
0.548549
0.108119
0.0183795
0.00666721
0.00189481
0.00028372
2.26374e-05
1.07772e-06
3.47177e-09
2.68512e-13
-1.23476e-16
2.31975e-28
8.54497e-38
1.16656e-45
2.81655e-52
1.36513e-60
6.6942e-64
1.14772e-67
2.4539e-70
2.83073e-73
3.82687e-76
2.51685e-79
1.00894e-82
8.82932e-87
1.29056e-90
1.35214e-90
1.35e-89
1.14724e-85
4.65925e-84
4.41473e-83
1.5929e-82
0.999996
0.999981
0.999994
1
1
0.999999
1
0.957432
0.555186
0.108849
0.0165397
0.0056166
0.0015503
0.000227843
1.80577e-05
8.62929e-07
2.51077e-09
1.93335e-13
-9.46536e-17
2.3025e-28
8.57193e-38
1.1988e-45
2.86586e-52
1.41387e-60
7.05432e-64
1.21408e-67
2.63151e-70
3.08228e-73
4.09487e-76
2.76683e-79
1.12805e-82
9.85199e-87
1.28001e-90
1.23544e-90
5.03938e-90
3.43925e-86
1.43332e-84
1.36678e-83
4.97814e-83
0.999996
0.99998
0.999993
1
1
0.999999
1
0.959074
0.559784
0.109632
0.0148644
0.00472305
0.00126265
0.000181638
1.42943e-05
6.86119e-07
1.80419e-09
1.31889e-13
-6.61978e-17
2.27174e-28
8.60176e-38
1.2309e-45
2.92043e-52
1.46609e-60
7.45121e-64
1.28974e-67
2.83201e-70
3.38926e-73
4.40645e-76
3.07779e-79
1.27226e-82
1.113e-86
1.26408e-90
3.94203e-91
1.46282e-90
9.27596e-87
4.04791e-85
3.90894e-84
1.42923e-83
0.999995
0.99998
0.999992
1
1
0.999999
1
0.960211
0.564442
0.109818
0.0133031
0.00396298
0.00102333
0.000143696
1.12335e-05
5.42321e-07
1.31778e-09
8.59549e-14
-3.45365e-17
2.24185e-28
8.62789e-38
1.26355e-45
2.98265e-52
1.52283e-60
7.89188e-64
1.37654e-67
3.05951e-70
3.76342e-73
4.77209e-76
3.46455e-79
1.44715e-82
1.27375e-86
1.68912e-90
9.07996e-92
3.49367e-91
2.20151e-87
1.02699e-85
1.01942e-84
3.76264e-84
0.999995
0.99998
0.999991
1
1
0.999999
1
0.961105
0.565928
0.107965
0.0118079
0.00331631
0.000825049
0.000112816
8.77322e-06
4.26841e-07
1.01461e-09
5.60104e-14
-2.77406e-18
2.21187e-28
8.66013e-38
1.29758e-45
3.05554e-52
1.58549e-60
8.38557e-64
1.47685e-67
3.3193e-70
4.21956e-73
5.20551e-76
3.94604e-79
1.6599e-82
1.47717e-86
2.65219e-90
1.8339e-92
7.32851e-92
4.55302e-88
2.29372e-86
2.37213e-85
8.98264e-85
0.999993
0.99998
0.999991
1
1
0.999999
1
0.961304
0.564159
0.10486
0.0103517
0.00276645
0.000661652
8.7955e-05
6.82104e-06
3.35274e-07
8.60032e-10
3.50865e-14
8.60034e-20
2.18426e-28
8.70513e-38
1.33411e-45
3.14292e-52
1.65587e-60
8.94428e-64
1.5937e-67
3.61822e-70
4.77642e-73
5.72484e-76
4.54645e-79
1.91977e-82
1.73617e-86
3.56072e-90
3.24142e-93
1.35801e-92
8.16141e-89
4.46349e-87
4.84271e-86
1.90671e-85
0.999993
0.999979
0.99999
1
1
0.999999
1
0.960321
0.557228
0.0996106
0.00892902
0.00230028
0.000527892
6.81933e-05
5.29251e-06
2.63566e-07
8.05928e-10
1.89889e-14
8.15535e-20
2.16089e-28
8.77291e-38
1.37458e-45
3.24952e-52
1.73627e-60
9.58354e-64
1.73103e-67
3.96508e-70
5.45782e-73
6.35423e-76
5.297e-79
2.23894e-82
2.06791e-86
4.66645e-90
5.47705e-94
2.25266e-93
1.24781e-89
7.44554e-88
8.52166e-87
3.51288e-86
0.999992
0.99998
0.99999
1
1
0.999999
0.999999
0.958683
0.546438
0.0923988
0.0075659
0.00190737
0.000419307
5.27099e-05
4.11103e-06
2.08034e-07
8.39719e-10
1.6659e-14
7.66306e-20
2.144e-28
8.87446e-38
1.42079e-45
3.38123e-52
1.82962e-60
1.03233e-63
1.89389e-67
4.37133e-70
6.29427e-73
7.12617e-76
6.23811e-79
2.63359e-82
2.49543e-86
5.83314e-90
1.4278e-94
3.90441e-94
1.61395e-90
1.03102e-88
1.2477e-87
5.418e-87
0.999993
0.999979
0.99999
1
1
0.999998
0.999999
0.956013
0.530399
0.0834956
0.00631228
0.00157916
0.000332068
4.07616e-05
3.20884e-06
1.65523e-07
8.93614e-10
1.47566e-14
7.20543e-20
2.1363e-28
9.02277e-38
1.47492e-45
3.54538e-52
1.93959e-60
1.11891e-63
2.08887e-67
4.85188e-70
7.32501e-73
8.08473e-76
7.42252e-79
3.12551e-82
3.04986e-86
7.02017e-90
8.88882e-95
1.5582e-94
1.8757e-91
1.14635e-89
1.44524e-88
6.61924e-88
0.999993
0.99998
0.99999
1
1
0.999998
0.999999
0.952533
0.510327
0.0736143
0.0052227
0.00130792
0.000262832
3.16849e-05
2.52571e-06
1.33261e-07
8.91868e-10
1.32802e-14
6.78855e-20
2.14169e-28
9.23297e-38
1.53964e-45
3.75117e-52
2.07081e-60
1.22137e-63
2.32451e-67
5.42624e-70
8.60086e-73
9.29039e-76
8.91954e-79
3.74443e-82
3.77369e-86
8.17955e-90
7.25251e-95
7.86983e-94
2.446e-92
1.01176e-90
1.22939e-89
5.82027e-89
0.999993
0.99998
0.99999
1
1
0.999998
0.999999
0.94836
0.487239
0.0636539
0.00433696
0.00108604
0.000208714
2.48698e-05
2.01781e-06
1.07871e-07
8.6999e-10
1.20537e-14
6.41739e-20
2.1641e-28
9.52267e-38
1.61815e-45
4.01022e-52
2.22912e-60
1.34391e-63
2.61201e-67
6.12009e-70
1.0188e-72
1.08269e-75
1.0821e-78
4.53149e-82
4.7255e-86
9.28449e-90
6.48276e-95
5.45776e-94
4.90047e-93
8.05684e-92
7.05927e-91
2.94748e-90
0.999994
0.99998
0.99999
1
1
0.999998
0.999999
0.943893
0.46276
0.0545016
0.003663
0.000906233
0.000167008
1.98551e-05
1.62944e-06
8.75372e-08
8.5696e-10
1.10641e-14
6.09674e-20
2.20675e-28
9.91278e-38
1.71432e-45
4.3374e-52
2.42193e-60
1.49195e-63
2.9661e-67
6.96751e-70
1.21731e-72
1.28113e-75
1.32495e-78
5.54438e-82
5.98704e-86
1.03391e-89
4.40896e-95
2.87198e-94
1.35723e-93
6.95453e-93
2.17891e-92
6.87455e-92
0.999998
0.99998
0.999989
1
1
0.999998
0.999998
0.93933
0.440184
0.0470824
0.0031881
0.000760971
0.000135705
1.61039e-05
1.32404e-06
7.20157e-08
8.49882e-10
1.03053e-14
5.82854e-20
2.27389e-28
1.04283e-37
1.83285e-45
4.75187e-52
2.65871e-60
1.67252e-63
3.40629e-67
8.014e-70
1.46703e-72
1.54089e-75
1.63703e-78
6.86515e-82
7.67388e-86
1.13897e-89
2.89645e-95
1.33703e-94
3.62804e-94
5.17857e-94
6.67032e-94
8.54194e-94
0.999999
0.99998
0.999991
1
1
0.999998
0.999998
0.936112
0.419915
0.0414714
0.00287164
0.000646089
0.000112097
1.32284e-05
1.09321e-06
6.02609e-08
8.47602e-10
9.7781e-15
5.61348e-20
2.37087e-28
1.10995e-37
1.97953e-45
5.27861e-52
2.95166e-60
1.89476e-63
3.95859e-67
9.32094e-70
1.78309e-72
1.88545e-75
2.04085e-78
8.61213e-82
9.95174e-86
1.25477e-89
2.04144e-95
5.08816e-95
1.92033e-94
2.87298e-94
2.81344e-94
1.24803e-97
1
0.99998
0.999992
1
1
0.999998
0.999998
0.933176
0.407991
0.0392244
0.00272429
0.000553624
9.40196e-05
1.10656e-05
9.20853e-07
5.14243e-08
8.59144e-10
9.47684e-15
5.45384e-20
1
0.999979
0.999992
1
0.999999
0.999998
0.999998
0.932282
0.39897
0.0379114
0.00266677
0.000477947
8.04339e-05
9.46722e-06
7.93062e-07
4.48547e-08
8.80436e-10
0.00260669
0.000420433
0.99999
0.999997
1
0.999998
0.999999
0.999999
1
0.962756
0.699966
0.34737
0.326737
0.353623
0.263909
0.0831064
0.00829294
0.000175051
4.93306e-07
3.13547e-10
3.62184e-14
9.42731e-17
2.03166e-19
3.5609e-22
4.94445e-25
5.2289e-28
3.95226e-31
1.90087e-34
4.39635e-38
3.18729e-43
-3.61939e-59
4.67829e-71
1.98948e-67
3.4861e-64
4.87396e-61
5.87278e-58
6.40447e-55
6.57094e-52
6.56072e-49
3.45358e-46
1.17729e-37
0.999991
0.999997
1
0.999998
0.999999
0.999999
1
0.961969
0.6897
0.326611
0.291965
0.332349
0.217005
0.0623825
0.00566455
0.000114838
3.49642e-07
2.45706e-10
6.7971e-14
1.06256e-16
2.41213e-19
4.41582e-22
6.35584e-25
6.91435e-28
5.32741e-31
2.57527e-34
5.77511e-38
1.82597e-55
2.41647e-67
7.81289e-80
1.09705e-82
9.89013e-80
-7.15501e-75
2.73002e-73
2.21435e-70
2.22713e-67
1.33023e-64
3.86198e-62
1.75202e-43
0.999991
0.999996
1
0.999998
0.999999
0.999999
1
0.961275
0.682701
0.315131
0.274048
0.280396
0.193563
0.0534689
0.00467426
9.4906e-05
3.03749e-07
1.5615e-10
4.16665e-14
1.22938e-16
2.95479e-19
5.69326e-22
8.57373e-25
9.69678e-28
7.7065e-31
3.79495e-34
8.38634e-38
4.24257e-53
3.34936e-66
1.5599e-79
5.19014e-83
1.51709e-82
1.61414e-79
2.15315e-76
2.51777e-73
2.65261e-70
2.24409e-68
5.30869e-66
2.31575e-58
0.999991
0.999996
1
0.999999
0.999999
0.999999
1
0.960263
0.673349
0.301237
0.253895
0.25766
0.168867
0.0443042
0.0037256
7.61987e-05
2.58937e-07
8.24994e-11
4.40754e-14
1.37588e-16
3.47735e-19
7.00279e-22
1.09519e-24
1.27671e-27
1.03495e-30
5.10026e-34
1.06342e-37
-2.79802e-52
-7.83315e-68
1.58502e-79
5.02658e-83
4.90997e-83
9.2188e-81
1.14695e-77
1.23901e-74
1.2118e-71
1.13107e-68
5.28546e-66
5.48512e-60
0.999991
0.999996
1
0.999998
0.999999
0.999999
1
0.959234
0.664027
0.287831
0.235259
0.231682
0.146667
0.0368321
0.00299939
6.2448e-05
2.28246e-07
5.10858e-11
4.27805e-14
1.3911e-16
3.66313e-19
7.66485e-22
1.23851e-24
1.47833e-27
1.20972e-30
5.84973e-34
1.08313e-37
-7.03818e-45
2.21475e-76
1.59874e-79
5.02131e-83
5.17446e-87
9.82206e-86
9.03066e-83
4.09257e-80
9.76077e-79
4.87098e-76
1.87943e-73
1.66464e-62
0.999993
0.999995
1
0.999998
0.999999
0.999999
1
0.958092
0.654132
0.274192
0.217161
0.208002
0.12644
0.0304199
0.00241086
5.15687e-05
2.0317e-07
3.21365e-11
-1.40601e-13
-7.60067e-16
-2.18204e-18
-4.65841e-21
-7.82162e-24
-1.01549e-26
-9.86132e-30
-6.68904e-33
-2.76522e-36
-4.33837e-40
2.17161e-76
1.6157e-79
5.02274e-83
5.06813e-87
5.12701e-87
4.25458e-83
3.94875e-80
2.97507e-79
1.02969e-78
-1.21883e-75
2.02554e-70
0.999993
0.999995
1
0.999998
0.999999
0.999999
1
0.956933
0.64414
0.260664
0.199791
0.185535
0.10833
0.0250279
0.00194006
4.30447e-05
1.82813e-07
2.68765e-11
-1.40009e-13
-7.5594e-16
-2.3339e-18
-5.39271e-21
-9.66222e-24
-1.32988e-26
-1.35418e-29
-9.45156e-33
-3.81888e-36
-4.35431e-40
2.15393e-76
1.62703e-79
5.05535e-83
4.9904e-87
5.02936e-87
8.39177e-85
3.42453e-80
8.7353e-79
9.79274e-79
9.56027e-78
5.62792e-72
0.999993
0.999994
1
0.999998
0.999999
0.999999
1
0.955707
0.633891
0.247203
0.183187
0.164689
0.092269
0.0205128
0.00156266
3.62805e-05
1.64636e-07
2.62033e-11
-1.23725e-13
-6.79965e-16
-2.18826e-18
-5.30801e-21
-9.96333e-24
-1.42415e-26
-1.48023e-29
-1.0203e-32
-3.74232e-36
-1.31831e-40
2.13949e-76
1.63719e-79
5.06526e-83
4.93062e-87
4.95975e-87
4.54333e-86
1.73426e-80
7.37826e-79
3.1575e-78
3.39526e-78
1.3079e-73
0.999994
0.999994
1
0.999999
0.999999
0.999999
1
0.954435
0.623477
0.233904
0.167404
0.145466
0.0781587
0.0167545
0.00125997
3.08576e-05
1.47793e-07
2.58907e-11
-1.05414e-13
-5.61908e-16
-1.85804e-18
-4.62519e-21
-8.86718e-24
-1.28e-26
-1.31396e-29
-8.53074e-33
-2.52649e-36
6.13322e-71
2.13142e-76
1.64475e-79
5.07285e-83
4.87277e-87
4.90099e-87
2.37197e-86
1.21317e-80
5.83498e-79
3.17334e-78
3.06862e-78
2.98886e-75
0.999994
0.999994
1
1
1
0.999999
1
0.953083
0.612812
0.220785
0.152468
0.127906
0.0658789
0.0136447
0.00101719
2.64487e-05
1.31538e-07
2.46787e-11
-8.50006e-14
-4.62112e-16
-1.49425e-18
-3.67586e-21
-7.03755e-24
-9.9599e-27
-9.69746e-30
-5.53046e-33
-1.04231e-36
2.69799e-73
2.12851e-76
1.65007e-79
5.07665e-83
4.82043e-87
4.84395e-87
2.00286e-86
7.81674e-81
4.29395e-79
2.50067e-78
4.4587e-78
6.44146e-77
0.999995
0.999994
1
1
1
0.999999
1
0.951657
0.601926
0.207916
0.1384
0.111986
0.055277
0.0110838
0.000822331
2.28042e-05
1.15831e-07
2.26735e-11
-8.89972e-14
-4.18655e-16
-1.28265e-18
-3.03844e-21
-5.46568e-24
-7.19465e-27
-6.29008e-30
-2.89239e-33
-1.2065e-37
2.21263e-73
2.12942e-76
1.65334e-79
5.07905e-83
4.77146e-87
4.73757e-87
1.65359e-86
4.78527e-81
3.19856e-79
2.07598e-78
3.61925e-78
3.82231e-78
0.999995
0.999993
1
1
1
1
1
0.950155
0.590835
0.195359
0.125211
0.0976531
0.0461938
0.00898583
0.000665956
1.97361e-05
1.00768e-07
2.0074e-11
-7.01425e-14
-3.20225e-16
-9.4743e-19
-2.13905e-21
-3.63503e-24
-4.36188e-27
-3.22413e-30
-9.78018e-34
3.34195e-72
2.20378e-73
2.14601e-76
1.65495e-79
5.08184e-83
4.71736e-87
4.74138e-87
1.32331e-86
2.70979e-81
2.23826e-79
1.60599e-78
2.8917e-78
2.34228e-78
0.999995
0.999993
1
1
1
1
1
0.948601
0.579654
0.183215
0.112909
0.0848342
0.0384674
0.00727552
0.000540447
1.71054e-05
8.66491e-08
1.71272e-11
-5.21875e-14
-2.29869e-16
-6.4577e-19
-1.36081e-21
-2.10196e-24
-2.18439e-27
-1.24452e-30
-1.4628e-34
1.30975e-70
2.15881e-73
2.1677e-76
1.65546e-79
5.08778e-83
4.65686e-87
4.6865e-87
1.03394e-86
1.38664e-81
1.50907e-79
1.2318e-78
2.3289e-78
2.00155e-78
0.999995
0.999992
1
1
1
1
1
0.947042
0.568546
0.171596
0.101496
0.0734417
0.0319412
0.00588802
0.000439694
1.4815e-05
7.3765e-08
1.41238e-11
-3.73086e-14
-1.55223e-16
-4.07192e-19
-7.82245e-22
-1.06151e-24
-8.99934e-28
-3.33167e-31
-1.49846e-55
1.20801e-70
2.11708e-73
2.19455e-76
1.65551e-79
5.10003e-83
4.59381e-87
4.57613e-87
6.40327e-87
6.17979e-82
9.58002e-80
9.19792e-79
1.86145e-78
1.69125e-78
0.999996
0.999993
1
1
1
1
1
0.945513
0.557762
0.160632
0.0909705
0.0633787
0.0264654
0.00476717
0.00035874
1.2801e-05
6.23595e-08
1.13061e-11
-2.549e-14
-9.95171e-17
-2.37443e-19
-4.03757e-22
-4.61092e-25
-2.90852e-28
-4.22114e-32
7.52488e-68
1.35362e-70
2.08051e-73
2.23065e-76
1.65573e-79
5.12218e-83
4.53577e-87
3.23536e-87
3.54875e-87
2.27209e-82
5.6522e-80
6.64484e-79
1.48331e-78
1.43572e-78
0.999996
0.999992
1
1
1
1
1
0.944173
0.547593
0.150459
0.0813218
0.0545418
0.0218996
0.00386476
0.000293581
1.10234e-05
5.25355e-08
8.83384e-12
-1.81029e-14
-6.19285e-17
-1.30317e-19
-1.8912e-22
-1.70221e-25
-6.64148e-29
-6.72993e-54
7.67569e-68
1.36698e-70
2.04973e-73
2.27476e-76
1.65713e-79
5.15823e-83
4.50485e-87
1.51271e-87
1.38275e-87
6.19157e-83
3.03724e-80
4.57229e-79
1.17489e-78
1.21428e-78
0.999996
0.999992
1
1
1
1
1
0.942975
0.538404
0.141203
0.0725325
0.0468234
0.0181128
0.00313967
0.000240993
9.45725e-06
4.42497e-08
6.77527e-12
-1.16695e-14
-3.58397e-17
-6.53375e-20
-7.76936e-23
-5.01622e-26
-6.63955e-30
4.23664e-64
7.66564e-68
1.39591e-70
2.02599e-73
2.32698e-76
1.66076e-79
5.21262e-83
4.53034e-87
7.09214e-88
5.8009e-88
9.57019e-84
1.45714e-80
2.953e-79
9.14713e-79
1.02438e-78
0.999996
0.999992
1
1
1
1
1
0.942276
0.530517
0.132974
0.0645762
0.0401144
0.0149851
0.00255729
0.000198394
8.08396e-06
3.73359e-08
5.12628e-12
-7.24767e-15
-1.96772e-17
-3.01773e-20
-2.77039e-23
-1.04546e-26
-6.06573e-53
4.39434e-64
7.81476e-68
1.42866e-70
2.01039e-73
2.38797e-76
1.66781e-79
5.29034e-83
4.66317e-87
3.19684e-88
2.27871e-88
3.98706e-85
6.07193e-81
1.76559e-79
6.86506e-79
8.57883e-79
0.999996
0.999992
1
1
1
1
1
0.941661
0.524203
0.12585
0.0574178
0.0343066
0.0124086
0.00208894
0.000163732
6.88648e-06
3.15659e-08
3.84333e-12
-4.38389e-15
-1.0329e-17
-1.28618e-20
-8.28439e-24
-8.38915e-28
9.79308e-61
4.49963e-64
7.95404e-68
1.47071e-70
2.0028e-73
2.45802e-76
1.67961e-79
5.39693e-83
4.78949e-87
1.40276e-88
8.01138e-89
2.97524e-86
2.09085e-81
9.50039e-80
4.88772e-79
7.04489e-79
0.999996
0.999991
1
1
1
1
1
0.941553
0.519971
0.119873
0.051014
0.0292955
0.0102881
0.00171118
0.000135381
5.8472e-06
2.67025e-08
2.86734e-12
-2.60281e-15
-5.25282e-18
-5.0607e-21
-1.86963e-24
-3.01091e-40
1.00563e-60
4.63874e-64
8.12924e-68
1.52044e-70
2.0009e-73
2.53764e-76
1.69768e-79
5.53869e-83
4.96034e-87
7.13106e-89
4.85617e-89
8.45377e-87
5.55675e-82
4.41176e-80
3.21197e-79
5.556e-79
0.999996
0.999991
1
1
1
1
1
0.942092
0.517252
0.115044
0.0453146
0.0249828
0.00854129
0.00140516
0.000112063
4.94813e-06
2.25385e-08
2.13879e-12
-1.5844e-15
-2.64248e-18
-1.83409e-21
-1.81647e-25
2.44466e-52
1.05575e-60
4.79244e-64
8.33759e-68
1.57892e-70
2.0181e-73
2.62752e-76
1.7237e-79
5.72279e-83
5.15529e-87
4.69096e-89
4.82096e-89
1.36487e-86
1.08151e-82
1.6495e-80
1.86525e-79
4.10844e-79
0.999997
0.999991
1
1
1
1
0.999992
0.943028
0.516296
0.111308
0.0402652
0.021278
0.00709876
0.00115594
9.27769e-05
4.17183e-06
1.89126e-08
1.60421e-12
-9.58217e-16
-1.32603e-18
-5.85981e-22
-3.46269e-36
2.53431e-52
1.08548e-60
4.96658e-64
8.58158e-68
1.64668e-70
2.04988e-73
2.72853e-76
1.75966e-79
5.95746e-83
5.38347e-87
2.47578e-89
3.24093e-89
4.92148e-85
2.5078e-83
4.41424e-81
8.79833e-80
2.79738e-79
0.999998
0.99999
1
1
1
1
0.999978
0.944275
0.517063
0.10866
0.0358085
0.0181
0.00590324
0.000951779
7.67407e-05
3.50237e-06
1.57124e-08
1.21507e-12
-5.9844e-16
-6.81488e-19
-1.40834e-22
-4.27243e-38
2.52934e-52
1.12159e-60
5.16006e-64
8.86341e-68
1.72428e-70
2.09232e-73
2.84181e-76
1.80784e-79
6.25229e-83
5.65003e-87
1.45587e-89
3.591e-89
5.0338e-85
1.78055e-83
7.69344e-82
2.83053e-80
1.69197e-79
0.999998
0.99999
1
1
1
1
0.999982
0.945872
0.520529
0.106985
0.0318866
0.015377
0.00490842
0.000783547
6.33468e-05
2.92574e-06
1.28693e-08
1.13319e-12
-3.95927e-16
-3.67069e-19
-5.33045e-32
9.7474e-46
2.60403e-52
1.15826e-60
5.37368e-64
9.18605e-68
1.81248e-70
2.1547e-73
2.9688e-76
1.87097e-79
6.61851e-83
5.96452e-87
9.63156e-90
2.41579e-89
3.37742e-85
1.49423e-83
1.87201e-82
5.28838e-81
6.38625e-80
0.999998
0.99999
1
1
1
0.999999
0.999984
0.947658
0.524498
0.106254
0.0284423
0.0130463
0.00407742
0.000644193
5.21225e-05
2.43002e-06
1.03514e-08
1.48304e-12
-2.82715e-16
-2.08314e-19
-3.91822e-33
1.03567e-45
2.64066e-52
1.19691e-60
5.60799e-64
9.55292e-68
1.91212e-70
2.23659e-73
3.11134e-76
1.95231e-79
7.06945e-83
6.33913e-87
5.89992e-90
1.12234e-89
1.63176e-85
1.02921e-83
1.10129e-82
8.40823e-82
7.68476e-81
0.999998
0.999989
0.999998
1
1
0.999999
0.999994
0.949621
0.529734
0.105941
0.0254202
0.0110537
0.0033812
0.000528285
4.26997e-05
2.0052e-06
8.15227e-09
1.3158e-12
-2.18322e-16
-1.21894e-19
-1.55136e-34
1.06596e-45
2.68442e-52
1.23714e-60
5.86392e-64
9.96833e-68
2.02423e-70
2.34188e-73
3.2718e-76
2.05583e-79
7.621e-83
6.78971e-87
3.28531e-90
5.78112e-90
5.38933e-86
5.72153e-84
6.81565e-83
3.1831e-82
1.27281e-81
0.999998
0.999989
0.999998
1
1
0.999999
0.999998
0.951677
0.535628
0.106085
0.0227686
0.00935259
0.00279689
0.000431628
3.47898e-05
1.64286e-06
6.27474e-09
8.15675e-13
-1.76003e-16
-6.81219e-20
-4.22495e-37
1.10097e-45
2.72673e-52
1.27907e-60
6.14281e-64
1.04377e-67
2.15009e-70
2.47469e-73
3.45318e-76
2.18639e-79
8.29234e-83
7.33635e-87
1.99917e-90
2.93828e-90
1.18165e-86
2.44807e-84
3.65253e-83
1.58667e-82
3.55952e-82
0.999998
0.999988
0.999997
1
1
0.999999
0.999999
0.953694
0.542053
0.107014
0.0204384
0.00790222
0.00230633
0.000350965
2.81642e-05
1.33581e-06
4.71855e-09
4.43864e-13
-1.47249e-16
-2.79681e-20
8.4529e-38
1.13393e-45
2.77065e-52
1.32286e-60
6.44661e-64
1.09681e-67
2.29127e-70
2.6397e-73
3.65931e-76
2.35001e-79
9.10674e-83
8.00486e-87
1.47304e-90
1.78159e-90
1.62437e-87
8.35939e-85
1.57895e-83
7.84131e-83
1.69423e-82
0.999998
0.999989
0.999997
1
1
0.999999
0.999999
0.955622
0.548546
0.108118
0.0183795
0.00666726
0.00189483
0.000283725
2.26379e-05
1.07775e-06