/*--------------------------------*- C++ -*----------------------------------*\
| =========                 |                                                 |
| \\      /  F ield         | OpenFOAM: The Open Source CFD Toolbox           |
|  \\    /   O peration     | Version:  v2012                                 |
|   \\  /    A nd           | Website:  www.openfoam.com                      |
|    \\/     M anipulation  |                                                 |
\*---------------------------------------------------------------------------*/
FoamFile
{
    version     2.0;
    format      ascii;
    class       surfaceScalarField;
    location    "0.95";
    object      phi;
}
// * * * * * * * * * * * * * * * * * * * * * * * * * * * * * * * * * * * * * //

dimensions      [0 3 -1 0 0 0 0];
oriented        oriented;


internalField   nonuniform List<scalar> 
39020
(
5.28679e-15
-6.96826e-13
3.21124e-19
2.15822e-14
-2.17193e-12
-1.80236e-18
4.95676e-14
-3.77498e-12
-2.76377e-18
9.08137e-14
-5.51279e-12
2.28327e-18
1.46724e-13
-7.39499e-12
-3.01089e-18
2.19339e-13
-9.42883e-12
-2.33616e-18
3.10573e-13
-1.16236e-11
-4.23682e-18
4.22824e-13
-1.39877e-11
-1.90945e-17
5.58406e-13
-1.65282e-11
-4.19882e-18
7.19768e-13
-1.92556e-11
-5.25347e-17
9.0995e-13
-2.21743e-11
7.43431e-18
1.13087e-12
-2.52926e-11
-3.62506e-17
1.38486e-12
-2.86203e-11
-1.64156e-17
1.6739e-12
-3.21579e-11
-3.49877e-17
1.99993e-12
-3.59156e-11
-2.16841e-17
2.36424e-12
-3.98925e-11
-3.0406e-17
2.7679e-12
-4.40928e-11
-2.18471e-17
3.21151e-12
-4.85178e-11
-3.38326e-17
3.69582e-12
-5.31672e-11
-3.37909e-17
4.22122e-12
-5.80356e-11
-3.12473e-17
4.78745e-12
-6.31167e-11
-2.44691e-17
5.39284e-12
-6.84051e-11
-2.23868e-17
6.03499e-12
-7.38777e-11
6.25398e-18
6.71108e-12
-7.95318e-11
-3.1218e-17
7.42065e-12
-8.53457e-11
-6.08915e-17
8.16402e-12
-9.13034e-11
-9.68015e-18
8.93718e-12
-9.73705e-11
8.98121e-18
9.73272e-12
-1.03493e-10
5.53657e-17
1.05408e-11
-1.09643e-10
7.02899e-17
1.13527e-11
-1.15766e-10
6.50674e-18
1.21646e-11
-1.21845e-10
-1.15251e-17
1.2974e-11
-1.27839e-10
1.28899e-17
1.37735e-11
-1.33677e-10
9.3197e-18
1.45505e-11
-1.39273e-10
7.46527e-18
1.52893e-11
-1.44536e-10
1.91299e-17
1.59746e-11
-1.49401e-10
5.80361e-17
1.65938e-11
-1.53821e-10
5.90333e-17
1.71393e-11
-1.57777e-10
6.85356e-18
1.76057e-11
-1.61222e-10
-9.56695e-17
1.79865e-11
-1.64028e-10
-2.09417e-16
1.82691e-11
-1.66139e-10
-2.26238e-16
1.84346e-11
-1.67281e-10
-1.07324e-16
1.84609e-11
-1.67443e-10
1.08668e-16
1.83331e-11
-1.66578e-10
3.35486e-16
1.80513e-11
-1.64831e-10
4.5279e-16
1.7627e-11
-1.6245e-10
4.41125e-16
1.70691e-11
-1.59252e-10
3.2858e-16
1.63683e-11
-1.55115e-10
1.12438e-16
1.55091e-11
-1.49792e-10
-1.18092e-16
1.44921e-11
-1.43356e-10
-1.27331e-16
1.33291e-11
-1.35988e-10
-4.32423e-17
1.20348e-11
-1.27723e-10
1.2647e-17
1.06228e-11
-1.18631e-10
1.90173e-17
9.10904e-12
-1.08711e-10
7.22043e-18
7.51489e-12
-9.79046e-11
-2.14989e-18
5.86907e-12
-8.61067e-11
-4.27699e-18
4.20911e-12
-7.30899e-11
-3.05541e-18
2.59255e-12
-5.82905e-11
-1.2865e-18
1.09066e-12
-4.06322e-11
-4.65607e-19
-1.73152e-11
-1.92988e-19
6.86439e-15
-7.03698e-13
-1.70919e-18
2.78654e-14
-2.19293e-12
-2.13338e-18
6.34379e-14
-3.81059e-12
-3.22571e-18
1.14966e-13
-5.56439e-12
-7.61009e-18
1.83459e-13
-7.46356e-12
-2.74685e-18
2.70523e-13
-9.5159e-12
2.07665e-18
3.77447e-13
-1.17305e-11
1.31001e-18
5.05912e-13
-1.41163e-11
1.04644e-17
6.57445e-13
-1.66799e-11
1.63616e-17
8.33741e-13
-1.94323e-11
-7.67235e-18
1.03727e-12
-2.23777e-11
3.34698e-17
1.26939e-12
-2.55246e-11
5.88948e-18
1.53226e-12
-2.88832e-11
1.22714e-17
1.82774e-12
-3.24537e-11
-9.01859e-19
2.15787e-12
-3.6246e-11
7.8473e-18
2.52428e-12
-4.02592e-11
7.40595e-18
2.92813e-12
-4.44972e-11
1.33209e-17
3.37045e-12
-4.89612e-11
-7.80849e-19
3.85279e-12
-5.365e-11
1.32389e-18
4.37626e-12
-5.85584e-11
-2.90525e-17
4.94135e-12
-6.36797e-11
-8.028e-19
5.54552e-12
-6.9009e-11
2.5091e-17
6.1841e-12
-7.45224e-11
2.67054e-17
6.85354e-12
-8.02146e-11
-6.0138e-17
7.55659e-12
-8.60597e-11
-1.10047e-16
8.29825e-12
-9.20411e-11
-4.64061e-17
9.07526e-12
-9.81288e-11
9.96264e-18
9.87596e-12
-1.04273e-10
1.03957e-16
1.06836e-11
-1.10447e-10
1.30871e-16
1.14863e-11
-1.1659e-10
2.5206e-17
1.22858e-11
-1.22673e-10
-1.89955e-17
1.30887e-11
-1.28652e-10
9.40091e-19
1.38907e-11
-1.34463e-10
-1.76049e-17
1.46751e-11
-1.40027e-10
-1.96753e-17
1.54174e-11
-1.45256e-10
2.23059e-17
1.60957e-11
-1.50086e-10
1.36453e-16
1.66972e-11
-1.54458e-10
1.48663e-16
1.7222e-11
-1.58339e-10
1.64353e-17
1.76766e-11
-1.61678e-10
-2.45098e-16
1.80619e-11
-1.64353e-10
-5.24317e-16
1.83628e-11
-1.66333e-10
-5.57432e-16
1.85461e-11
-1.67376e-10
-2.5239e-16
1.85714e-11
-1.6748e-10
2.93062e-16
1.8416e-11
-1.66574e-10
8.51108e-16
1.80914e-11
-1.64746e-10
1.13927e-15
1.76351e-11
-1.62196e-10
1.10534e-15
1.70731e-11
-1.58757e-10
8.14054e-16
1.63861e-11
-1.54382e-10
2.76922e-16
1.55348e-11
-1.4888e-10
-3.19782e-16
1.45138e-11
-1.42311e-10
-3.41405e-16
1.33413e-11
-1.34821e-10
-1.12552e-16
1.20378e-11
-1.26432e-10
3.82218e-17
1.06189e-11
-1.17218e-10
5.77521e-17
9.09967e-12
-1.07193e-10
2.32099e-17
7.50022e-12
-9.63034e-11
-4.214e-18
5.8487e-12
-8.4454e-11
-1.14066e-17
4.18235e-12
-7.14235e-11
-7.75713e-18
2.55833e-12
-5.66671e-11
-2.59147e-18
1.0494e-12
-3.91241e-11
2.1079e-19
-1.62662e-11
1.1878e-18
6.7434e-15
-7.10443e-13
1.6479e-19
2.71816e-14
-2.21338e-12
-9.69864e-19
6.20054e-14
-3.8454e-12
-6.39833e-18
1.12445e-13
-5.61478e-12
1.58671e-19
1.79635e-13
-7.53088e-12
-1.3478e-17
2.6554e-13
-9.60183e-12
-4.24879e-19
3.718e-13
-1.18368e-11
4.86115e-20
5.00449e-13
-1.42449e-11
5.19408e-18
6.53388e-13
-1.68328e-11
2.65788e-18
8.32708e-13
-1.96117e-11
1.32568e-18
1.04045e-12
-2.25857e-11
-1.97995e-19
1.27845e-12
-2.57631e-11
-2.94845e-17
1.54931e-12
-2.9154e-11
1.16392e-17
1.85421e-12
-3.27586e-11
-1.03196e-17
2.19485e-12
-3.65867e-11
-7.90198e-18
2.57262e-12
-4.0637e-11
4.59273e-18
2.98813e-12
-4.49135e-11
-4.79415e-18
3.44215e-12
-4.94166e-11
-1.51187e-17
3.93601e-12
-5.4145e-11
-2.38209e-17
4.47102e-12
-5.90927e-11
-3.62375e-17
5.04786e-12
-6.42536e-11
-1.00263e-17
5.66389e-12
-6.96225e-11
5.57606e-17
6.31303e-12
-7.51749e-11
9.5031e-17
6.99078e-12
-8.0904e-11
2.96552e-17
7.70057e-12
-8.67812e-11
-6.19364e-17
8.44952e-12
-9.27887e-11
-8.73227e-17
9.23668e-12
-9.88982e-11
-5.69233e-17
1.00489e-11
-1.05063e-10
6.41326e-17
1.0865e-11
-1.11258e-10
1.3456e-16
1.16699e-11
-1.17415e-10
5.67969e-17
1.24674e-11
-1.23502e-10
-1.29793e-17
1.32697e-11
-1.29467e-10
-3.8687e-17
1.40772e-11
-1.35251e-10
-7.38801e-17
1.4871e-11
-1.40783e-10
-6.21462e-17
1.56194e-11
-1.45979e-10
2.43381e-17
1.62939e-11
-1.5077e-10
2.08984e-16
1.68803e-11
-1.55092e-10
2.34496e-16
1.73853e-11
-1.58898e-10
3.01672e-17
1.78264e-11
-1.62127e-10
-3.85414e-16
1.82125e-11
-1.64666e-10
-8.29126e-16
1.85271e-11
-1.6651e-10
-8.82684e-16
1.87245e-11
-1.67452e-10
-3.93909e-16
1.87463e-11
-1.67506e-10
4.85641e-16
1.85601e-11
-1.66573e-10
1.38518e-15
1.81868e-11
-1.64674e-10
1.85596e-15
1.76899e-11
-1.61954e-10
1.80913e-15
1.71154e-11
-1.58261e-10
1.33971e-15
1.6436e-11
-1.53632e-10
4.6551e-16
1.55879e-11
-1.47946e-10
-5.37174e-16
1.45573e-11
-1.41247e-10
-5.88589e-16
1.33682e-11
-1.33641e-10
-2.00808e-16
1.20484e-11
-1.2513e-10
6.49242e-17
1.06158e-11
-1.15795e-10
1.04267e-16
9.08473e-12
-1.05661e-10
4.38355e-17
7.47398e-12
-9.46895e-11
-6.83602e-18
5.81092e-12
-8.27886e-11
-2.14947e-17
4.13274e-12
-6.97447e-11
-1.51854e-17
2.49802e-12
-5.50328e-11
-5.33727e-18
9.93444e-13
-3.76204e-11
5.37549e-19
-1.52734e-11
2.75986e-18
7.9276e-15
-7.18371e-13
3.28524e-20
3.19346e-14
-2.2374e-12
-6.70285e-19
7.27556e-14
-3.8862e-12
-2.71975e-18
1.31529e-13
-5.67341e-12
6.82744e-18
2.08996e-13
-7.60844e-12
-6.77782e-18
3.06731e-13
-9.69965e-12
-5.52164e-18
4.26004e-13
-1.19561e-11
-2.43894e-18
5.68284e-13
-1.43872e-11
2.77186e-18
7.34927e-13
-1.69995e-11
8.81473e-19
9.27527e-13
-1.98043e-11
1.37978e-18
1.14763e-12
-2.2806e-11
8.0917e-18
1.39682e-12
-2.60128e-11
-1.95356e-17
1.67778e-12
-2.94348e-11
1.86256e-17
1.9916e-12
-3.30723e-11
-6.32774e-18
2.34011e-12
-3.69351e-11
-1.67333e-18
2.72499e-12
-4.10218e-11
9.78431e-18
3.14713e-12
-4.53361e-11
4.96537e-18
3.60761e-12
-4.98783e-11
-1.5332e-19
4.10779e-12
-5.46463e-11
-9.58093e-18
4.64891e-12
-5.96341e-11
-5.94801e-17
5.23266e-12
-6.48346e-11
-2.05359e-17
5.85682e-12
-7.02424e-11
5.82749e-17
6.51458e-12
-7.58329e-11
9.88703e-17
7.20055e-12
-8.15987e-11
3.92371e-17
7.91738e-12
-8.75097e-11
-5.77793e-17
8.67263e-12
-9.35465e-11
-1.0719e-16
9.46744e-12
-9.96797e-11
-7.18595e-17
1.0289e-11
-1.05864e-10
5.06546e-17
1.1114e-11
-1.12074e-10
1.23853e-16
1.19252e-11
-1.18242e-10
6.23626e-17
1.27253e-11
-1.2433e-10
-3.13956e-17
1.35287e-11
-1.30283e-10
-9.36205e-17
1.43398e-11
-1.36043e-10
-1.20642e-16
1.51398e-11
-1.41542e-10
-7.44566e-17
1.58924e-11
-1.46703e-10
4.91857e-17
1.65639e-11
-1.51455e-10
2.54922e-16
1.7139e-11
-1.55726e-10
2.84236e-16
1.76286e-11
-1.59455e-10
4.94238e-17
1.80564e-11
-1.62571e-10
-4.41423e-16
1.84356e-11
-1.64967e-10
-9.74541e-16
1.87495e-11
-1.66668e-10
-1.04709e-15
1.89462e-11
-1.67506e-10
-4.715e-16
1.89582e-11
-1.67512e-10
5.75379e-16
1.8747e-11
-1.66559e-10
1.64532e-15
1.83375e-11
-1.64598e-10
2.20877e-15
1.78062e-11
-1.61711e-10
2.16059e-15
1.72107e-11
-1.57758e-10
1.61318e-15
1.6522e-11
-1.52866e-10
5.92112e-16
1.56638e-11
-1.4699e-10
-6.44114e-16
1.46167e-11
-1.40161e-10
-7.33902e-16
1.34073e-11
-1.3244e-10
-2.62701e-16
1.2067e-11
-1.23809e-10
7.53573e-17
1.06156e-11
-1.14354e-10
1.32699e-16
9.06724e-12
-1.04113e-10
5.90807e-17
7.44016e-12
-9.30585e-11
-6.85301e-18
5.76132e-12
-8.11066e-11
-2.78114e-17
4.06862e-12
-6.80507e-11
-2.05817e-17
2.42417e-12
-5.33883e-11
-7.56588e-18
9.35205e-13
-3.61319e-11
8.68014e-19
-1.43387e-11
4.55483e-18
7.82921e-15
-7.26202e-13
-1.45687e-19
3.16278e-14
-2.26118e-12
2.15474e-18
7.22079e-14
-3.92675e-12
-1.07456e-18
1.30745e-13
-5.73189e-12
3.40145e-18
2.08337e-13
-7.68617e-12
-9.38211e-18
3.06753e-13
-9.79822e-12
-1.11444e-17
4.27686e-13
-1.20772e-11
-5.16208e-18
5.7297e-13
-1.45324e-11
1.54298e-17
7.44298e-13
-1.71708e-11
6.72929e-20
9.43481e-13
-2.00035e-11
5.59531e-19
1.17227e-12
-2.30349e-11
5.80461e-18
1.43232e-12
-2.62732e-11
-2.3282e-17
1.72615e-12
-2.97284e-11
1.92236e-17
2.05467e-12
-3.34007e-11
-5.60041e-18
2.4193e-12
-3.72996e-11
-7.54993e-19
2.82138e-12
-4.14237e-11
9.55621e-18
3.26148e-12
-4.57765e-11
4.38898e-18
3.74029e-12
-5.03579e-11
2.1053e-18
4.25855e-12
-5.51658e-11
-1.22785e-17
4.81738e-12
-6.01934e-11
-5.15943e-17
5.4187e-12
-6.54334e-11
-2.13855e-17
6.06042e-12
-7.08797e-11
4.19507e-17
6.73542e-12
-7.65072e-11
6.74953e-17
7.43788e-12
-8.23085e-11
2.37288e-17
8.16976e-12
-8.82529e-11
-4.90021e-17
8.93851e-12
-9.43197e-11
-8.42738e-17
9.74636e-12
-1.00477e-10
-4.08745e-17
1.05811e-11
-1.06679e-10
5.78675e-17
1.1419e-11
-1.12902e-10
9.98282e-17
1.22413e-11
-1.19076e-10
2.96857e-17
1.3049e-11
-1.25161e-10
-7.67828e-17
1.38571e-11
-1.31103e-10
-1.42347e-16
1.46725e-11
-1.3684e-10
-1.35218e-16
1.54773e-11
-1.42306e-10
-5.11395e-17
1.62329e-11
-1.47429e-10
8.11554e-17
1.69023e-11
-1.52139e-10
2.56153e-16
1.74704e-11
-1.56356e-10
2.82962e-16
1.79495e-11
-1.60007e-10
7.4344e-17
1.83647e-11
-1.63007e-10
-3.95122e-16
1.87294e-11
-1.65258e-10
-9.31145e-16
1.90273e-11
-1.66811e-10
-1.02614e-15
1.92069e-11
-1.67538e-10
-4.82694e-16
1.92014e-11
-1.6749e-10
5.35064e-16
1.89716e-11
-1.66514e-10
1.58168e-15
1.85407e-11
-1.64494e-10
2.14073e-15
1.79836e-11
-1.61446e-10
2.11076e-15
1.73595e-11
-1.57237e-10
1.60295e-15
1.66436e-11
-1.52081e-10
6.44338e-16
1.57608e-11
-1.4601e-10
-6.28948e-16
1.46905e-11
-1.39049e-10
-7.59117e-16
1.34575e-11
-1.31214e-10
-2.88928e-16
1.20935e-11
-1.22465e-10
6.83862e-17
1.06189e-11
-1.12891e-10
1.38626e-16
9.04866e-12
-1.02544e-10
6.55693e-17
7.40115e-12
-9.14074e-11
-5.13859e-18
5.70362e-12
-7.94059e-11
-3.00063e-17
3.99553e-12
-6.63412e-11
-2.35425e-17
2.34414e-12
-5.17368e-11
-9.33392e-18
8.77558e-13
-3.46659e-11
6.79001e-19
-1.34621e-11
5.49028e-18
8.74278e-15
-7.34947e-13
-3.83726e-20
3.53089e-14
-2.28777e-12
-2.60678e-18
8.06055e-14
-3.97205e-12
-5.80466e-18
1.45767e-13
-5.797e-12
2.8072e-18
2.31731e-13
-7.77232e-12
-1.38068e-17
3.40042e-13
-9.90672e-12
-2.35929e-17
4.7207e-13
-1.22094e-11
-6.44027e-18
6.29332e-13
-1.46897e-11
6.37074e-19
8.13053e-13
-1.73545e-11
5.00866e-18
1.02479e-12
-2.02153e-11
2.67935e-18
1.26615e-12
-2.32764e-11
4.79243e-18
1.5386e-12
-2.65461e-11
-2.18743e-17
1.84477e-12
-3.00344e-11
1.32932e-17
2.1856e-12
-3.37414e-11
-4.51365e-18
2.56272e-12
-3.76766e-11
-3.55659e-18
2.97763e-12
-4.18385e-11
9.21353e-18
3.4312e-12
-4.62303e-11
3.66328e-18
3.92421e-12
-5.08516e-11
5.47161e-18
4.45725e-12
-5.57001e-11
-9.89031e-18
5.03142e-12
-6.07684e-11
-5.81093e-17
5.64903e-12
-6.60486e-11
-1.53392e-17
6.30788e-12
-7.15341e-11
4.92784e-17
7.00027e-12
-7.7199e-11
5.62154e-17
7.72003e-12
-8.30358e-11
4.67424e-18
8.46884e-12
-8.90132e-11
-5.81752e-17
9.25405e-12
-9.51095e-11
-7.33528e-17
1.00781e-11
-1.01292e-10
-7.13243e-18
1.09286e-11
-1.07511e-10
8.10024e-17
1.17814e-11
-1.13744e-10
9.09657e-17
1.26171e-11
-1.19921e-10
2.24448e-18
1.34352e-11
-1.26003e-10
-1.09894e-16
1.42505e-11
-1.31932e-10
-1.5752e-16
1.50711e-11
-1.37643e-10
-1.10879e-16
1.58797e-11
-1.43075e-10
-9.43176e-18
1.66372e-11
-1.48157e-10
9.14474e-17
1.73057e-11
-1.5282e-10
1.97217e-16
1.78706e-11
-1.56978e-10
2.24025e-16
1.83442e-11
-1.60547e-10
1.01543e-16
1.8748e-11
-1.63434e-10
-2.51315e-16
1.90914e-11
-1.65543e-10
-7.073e-16
1.93586e-11
-1.6695e-10
-8.28459e-16
1.95051e-11
-1.67556e-10
-4.32019e-16
1.94742e-11
-1.67434e-10
3.6689e-16
1.92313e-11
-1.66412e-10
1.20579e-15
1.87929e-11
-1.6432e-10
1.66834e-15
1.82189e-11
-1.61119e-10
1.67248e-15
1.75599e-11
-1.56677e-10
1.30875e-15
1.67999e-11
-1.51273e-10
5.92063e-16
1.58786e-11
-1.4501e-10
-4.9711e-16
1.47781e-11
-1.3791e-10
-6.56185e-16
1.35185e-11
-1.29957e-10
-2.72967e-16
1.21279e-11
-1.2109e-10
4.48427e-17
1.06265e-11
-1.114e-10
1.20282e-16
9.03036e-12
-1.0095e-10
6.28105e-17
7.35906e-12
-8.97337e-11
-7.67811e-19
5.64083e-12
-7.76849e-11
-2.66308e-17
3.9175e-12
-6.46164e-11
-2.28527e-17
2.26245e-12
-5.00815e-11
-9.83924e-18
8.22301e-13
-3.32263e-11
4.30829e-19
-1.26408e-11
6.06767e-18
8.83386e-15
-7.43781e-13
-1.30437e-19
3.57455e-14
-2.31472e-12
-3.93715e-18
8.17164e-14
-4.01807e-12
-6.19715e-18
1.48025e-13
-5.86332e-12
-1.58906e-18
2.35982e-13
-7.86031e-12
-8.24968e-18
3.47268e-13
-1.00179e-11
9.06492e-18
4.83625e-13
-1.23454e-11
1.95858e-19
6.4707e-13
-1.48524e-11
5.2026e-17
8.37968e-13
-1.75457e-11
-2.11991e-17
1.05915e-12
-2.04367e-11
1.98619e-17
1.31231e-12
-2.35297e-11
7.69726e-18
1.59874e-12
-2.6833e-11
-2.9504e-17
1.92099e-12
-3.03564e-11
1.73813e-17
2.2798e-12
-3.40999e-11
-8.78673e-18
2.67642e-12
-3.80731e-11
-1.34459e-18
3.11216e-12
-4.2274e-11
1.14194e-17
3.58751e-12
-4.67056e-11
8.6656e-18
4.10299e-12
-5.13675e-11
1.12199e-17
4.65883e-12
-5.6257e-11
-7.42634e-18
5.25599e-12
-6.13664e-11
-6.22113e-17
5.89691e-12
-6.6687e-11
-1.41425e-17
6.57909e-12
-7.22116e-11
5.88714e-17
7.29427e-12
-7.79139e-11
6.67975e-17
8.03609e-12
-8.37857e-11
1.13616e-17
8.80632e-12
-8.97952e-11
-6.05408e-17
9.6126e-12
-9.592e-11
-7.36876e-17
1.04573e-11
-1.02126e-10
6.76121e-18
1.13275e-11
-1.08362e-10
9.33191e-17
1.21982e-11
-1.14605e-10
8.7934e-17
1.30495e-11
-1.20784e-10
-1.03297e-17
1.38804e-11
-1.26859e-10
-1.16305e-16
1.47052e-11
-1.32772e-10
-1.34912e-16
1.55321e-11
-1.38457e-10
-5.59312e-17
1.63443e-11
-1.43851e-10
3.43944e-17
1.71028e-11
-1.48886e-10
6.47304e-17
1.77709e-11
-1.53495e-10
7.80084e-17
1.83358e-11
-1.57587e-10
1.12129e-16
1.88079e-11
-1.61071e-10
1.26644e-16
1.92012e-11
-1.63849e-10
-3.46665e-17
1.95179e-11
-1.65827e-10
-3.45994e-16
1.97421e-11
-1.67092e-10
-4.9496e-16
1.98418e-11
-1.67568e-10
-3.31425e-16
1.97777e-11
-1.6734e-10
1.05625e-16
1.95248e-11
-1.6623e-10
5.9826e-16
1.90894e-11
-1.64038e-10
8.94354e-16
1.85058e-11
-1.60691e-10
9.40922e-16
1.78071e-11
-1.56052e-10
7.8958e-16
1.69891e-11
-1.50436e-10
4.44845e-16
1.60171e-11
-1.43992e-10
-2.82025e-16
1.48798e-11
-1.36746e-10
-4.4496e-16
1.35904e-11
-1.28666e-10
-2.13864e-16
1.21704e-11
-1.19679e-10
1.23791e-17
1.06389e-11
-1.09876e-10
8.17131e-17
9.01356e-12
-9.93272e-11
4.96884e-17
7.31583e-12
-8.80349e-11
3.57957e-18
5.57563e-12
-7.59427e-11
-1.96311e-17
3.83778e-12
-6.28772e-11
-1.94183e-17
2.18221e-12
-4.84256e-11
-9.47505e-18
7.70847e-13
-3.18155e-11
-2.02272e-19
-1.1871e-11
5.59986e-18
9.59825e-15
-7.53381e-13
-8.29967e-20
3.88833e-14
-2.34401e-12
-1.51148e-18
8.88859e-14
-4.06812e-12
-5.46205e-18
1.60836e-13
-5.93533e-12
-6.27413e-18
2.56086e-13
-7.95565e-12
-1.2491e-17
3.7622e-13
-1.01379e-11
7.1406e-19
5.22738e-13
-1.24917e-11
8.35072e-19
6.97496e-13
-1.50264e-11
3.26424e-17
9.0061e-13
-1.77491e-11
-1.70778e-17
1.13483e-12
-2.06711e-11
2.28839e-17
1.40177e-12
-2.37968e-11
9.60091e-18
1.70265e-12
-2.71343e-11
-2.29797e-17
2.04017e-12
-3.06936e-11
1.37013e-17
2.41509e-12
-3.44746e-11
-7.28913e-18
2.82887e-12
-3.84867e-11
-5.4701e-18
3.28291e-12
-4.27277e-11
1.62646e-17
3.77772e-12
-4.72005e-11
1.11305e-17
4.31383e-12
-5.19042e-11
1.61683e-17
4.89144e-12
-5.68358e-11
-5.76696e-18
5.5116e-12
-6.19871e-11
-5.48197e-17
6.17667e-12
-6.73488e-11
1.1041e-18
6.8836e-12
-7.29135e-11
6.91744e-17
7.62345e-12
-7.86538e-11
6.69857e-17
8.38957e-12
-8.45609e-11
5.46583e-18
9.18383e-12
-9.06021e-11
-6.91758e-17
1.00142e-11
-9.67542e-11
-7.31466e-17
1.08829e-11
-1.02982e-10
2.04493e-17
1.17758e-11
-1.09235e-10
1.049e-16
1.26672e-11
-1.15486e-10
8.82921e-17
1.35364e-11
-1.21665e-10
-1.32068e-17
1.43821e-11
-1.27732e-10
-1.03837e-16
1.52184e-11
-1.33626e-10
-8.78311e-17
1.60529e-11
-1.39282e-10
1.5187e-17
1.68687e-11
-1.44635e-10
7.17828e-17
1.76278e-11
-1.49617e-10
7.12272e-18
1.82959e-11
-1.54161e-10
-8.08477e-17
1.88623e-11
-1.58178e-10
-3.37263e-17
1.93349e-11
-1.61575e-10
1.4508e-16
1.9718e-11
-1.64252e-10
2.15678e-16
2.00042e-11
-1.66112e-10
8.47972e-17
2.01775e-11
-1.67246e-10
-8.85788e-17
2.02205e-11
-1.67579e-10
-1.97155e-16
2.01164e-11
-1.67206e-10
-1.91908e-16
1.9853e-11
-1.65953e-10
-1.12889e-16
1.9425e-11
-1.6362e-10
-1.95116e-17
1.88351e-11
-1.60132e-10
6.69351e-17
1.80935e-11
-1.55342e-10
1.47421e-16
1.72079e-11
-1.49561e-10
2.0399e-16
1.61759e-11
-1.42953e-10
-2.58433e-17
1.49959e-11
-1.35556e-10
-1.61022e-16
1.36731e-11
-1.27338e-10
-1.20673e-16
1.2221e-11
-1.18228e-10
-2.33454e-17
1.06565e-11
-1.08315e-10
2.92848e-17
8.9992e-12
-9.76726e-11
2.90057e-17
7.27309e-12
-8.63092e-11
7.93779e-18
5.51022e-12
-7.41789e-11
-9.65442e-18
3.75889e-12
-6.11247e-11
-1.34984e-17
2.10551e-12
-4.67717e-11
-7.98861e-18
7.23951e-13
-3.04342e-11
-6.86698e-19
-1.1148e-11
4.96776e-18
9.87269e-15
-7.63261e-13
-1.32142e-18
4.00756e-14
-2.3742e-12
8.99684e-19
9.17287e-14
-4.1198e-12
-1.95884e-18
1.66197e-13
-6.00986e-12
-9.26425e-18
2.6502e-13
-8.05456e-12
-9.83513e-18
3.89923e-13
-1.02629e-11
-5.34096e-18
5.42778e-13
-1.26443e-11
-4.30245e-18
7.25624e-13
-1.52086e-11
3.99857e-17
9.38779e-13
-1.79626e-11
-2.07257e-17
1.18515e-12
-2.09178e-11
3.18674e-17
1.46642e-12
-2.40783e-11
1.48171e-17
1.7838e-12
-2.74523e-11
-1.84715e-17
2.13992e-12
-3.10496e-11
1.7868e-17
2.53542e-12
-3.487e-11
-9.86265e-18
2.97157e-12
-3.89228e-11
-2.77943e-18
3.44955e-12
-4.32055e-11
1.63847e-17
3.96958e-12
-4.77207e-11
1.48087e-17
4.53195e-12
-5.24673e-11
1.57601e-17
5.13671e-12
-5.74419e-11
-6.12658e-18
5.78481e-12
-6.26357e-11
-6.46521e-17
6.47854e-12
-6.80391e-11
-7.92279e-18
7.21449e-12
-7.36441e-11
7.09306e-17
7.98311e-12
-7.94224e-11
7.82823e-17
8.77731e-12
-8.53646e-11
1.66192e-17
9.59909e-12
-9.14371e-11
-6.75508e-17
1.04568e-11
-9.76158e-11
-8.01338e-17
1.13525e-11
-1.03864e-10
1.30691e-17
1.22712e-11
-1.10131e-10
9.75301e-17
1.3186e-11
-1.16389e-10
8.00626e-17
1.40755e-11
-1.22567e-10
-1.41311e-17
1.49382e-11
-1.28623e-10
-8.24427e-17
1.57878e-11
-1.34497e-10
-3.21337e-17
1.66315e-11
-1.4012e-10
8.74817e-17
1.74515e-11
-1.45427e-10
1.01581e-16
1.8211e-11
-1.50348e-10
-6.24937e-17
1.88787e-11
-1.54819e-10
-2.47315e-16
1.94462e-11
-1.58751e-10
-1.874e-16
1.99188e-11
-1.62058e-10
1.52852e-16
2.0291e-11
-1.6464e-10
4.54721e-16
2.05452e-11
-1.66398e-10
5.07613e-16
2.06648e-11
-1.67411e-10
3.18658e-16
2.06468e-11
-1.6759e-10
-4.82162e-17
2.04975e-11
-1.67029e-10
-4.61901e-16
2.02185e-11
-1.65574e-10
-7.85999e-16
1.97943e-11
-1.63059e-10
-8.94027e-16
1.91959e-11
-1.5943e-10
-7.80655e-16
1.84092e-11
-1.54533e-10
-5.00001e-16
1.74519e-11
-1.48639e-10
-7.84341e-17
1.63548e-11
-1.4189e-10
2.15527e-16
1.51271e-11
-1.34337e-10
1.38541e-16
1.37669e-11
-1.25972e-10
-9.62962e-18
1.22794e-11
-1.16735e-10
-5.30988e-17
1.06793e-11
-1.06715e-10
-2.59409e-17
8.98797e-12
-9.59835e-11
3.82682e-18
7.23212e-12
-8.45551e-11
1.00411e-17
5.44634e-12
-7.23932e-11
1.84497e-19
3.68269e-12
-5.93603e-11
-7.05805e-18
2.03366e-12
-4.5122e-11
-6.23339e-18
6.81855e-13
-2.90826e-11
-1.30356e-18
-1.04669e-11
3.82848e-18
1.05876e-14
-7.73845e-13
1.0177e-18
4.29632e-14
-2.40658e-12
-8.70868e-19
9.83644e-14
-4.1752e-12
-2.77132e-18
1.7819e-13
-6.08971e-12
3.54311e-18
2.83963e-13
-8.1604e-12
-1.14204e-17
4.17429e-13
-1.03963e-11
8.04329e-19
5.80334e-13
-1.2807e-11
-3.26259e-21
7.74632e-13
-1.54022e-11
3.06195e-17
1.00067e-12
-1.8189e-11
-3.11305e-17
1.26132e-12
-2.11787e-11
1.13093e-17
1.55821e-12
-2.43755e-11
-3.19093e-18
1.89265e-12
-2.77874e-11
-3.84472e-17
2.26704e-12
-3.1424e-11
8.96004e-18
2.68235e-12
-3.52852e-11
-8.6012e-18
3.13993e-12
-3.93802e-11
-2.91776e-18
3.64097e-12
-4.37063e-11
1.80137e-17
4.18574e-12
-4.82656e-11
1.43271e-17
4.77439e-12
-5.30567e-11
1.54201e-17
5.40685e-12
-5.80757e-11
-9.10668e-18
6.08391e-12
-6.33134e-11
-6.68264e-17
6.80786e-12
-6.87595e-11
-4.35485e-18
7.57495e-12
-7.44054e-11
7.94517e-17
8.37479e-12
-8.02223e-11
7.84566e-17
9.19976e-12
-8.61998e-11
1.02733e-17
1.00519e-11
-9.23033e-11
-7.11721e-17
1.09398e-11
-9.85078e-11
-7.84323e-17
1.18652e-11
-1.04776e-10
1.83229e-17
1.28124e-11
-1.11055e-10
9.94479e-17
1.37529e-11
-1.17317e-10
7.3801e-17
1.46648e-11
-1.2349e-10
-1.89688e-17
1.55463e-11
-1.29533e-10
-6.96271e-17
1.64112e-11
-1.35383e-10
1.05288e-17
1.72657e-11
-1.40971e-10
1.45259e-16
1.80913e-11
-1.46228e-10
1.23669e-16
1.88516e-11
-1.51082e-10
-1.23382e-16
1.95177e-11
-1.5547e-10
-3.88154e-16
2.00837e-11
-1.59308e-10
-3.21952e-16
2.05532e-11
-1.6252e-10
1.46742e-16
2.09128e-11
-1.65013e-10
6.38465e-16
2.11357e-11
-1.66681e-10
8.46296e-16
2.12041e-11
-1.67579e-10
6.56056e-16
2.11264e-11
-1.67595e-10
9.45293e-17
2.09283e-11
-1.66812e-10
-6.47045e-16
2.06245e-11
-1.65105e-10
-1.29003e-15
2.01921e-11
-1.62366e-10
-1.56375e-15
1.9577e-11
-1.58595e-10
-1.44353e-15
1.87436e-11
-1.53626e-10
-1.03012e-15
1.7716e-11
-1.47664e-10
-3.59774e-16
1.6553e-11
-1.40793e-10
3.99777e-16
1.5274e-11
-1.33082e-10
4.00693e-16
1.38719e-11
-1.24563e-10
9.86704e-17
1.23454e-11
-1.15196e-10
-7.21979e-17
1.07072e-11
-1.05072e-10
-7.41748e-17
8.98031e-12
-9.42583e-11
-2.03298e-17
7.19389e-12
-8.27712e-11
1.07198e-17
5.38533e-12
-7.05855e-11
8.93529e-18
3.61049e-12
-5.75848e-11
-8.31612e-19
1.96739e-12
-4.34783e-11
-4.20261e-18
6.44495e-13
-2.77598e-11
-1.52392e-18
-9.82321e-12
3.18293e-18
1.10219e-14
-7.84864e-13
8.77738e-20
4.47951e-14
-2.44034e-12
6.56523e-19
1.026e-13
-4.23306e-12
-2.13516e-18
1.86028e-13
-6.17323e-12
-1.10071e-17
2.96784e-13
-8.27126e-12
-9.88269e-18
4.36741e-13
-1.05363e-11
-3.73293e-18
6.07834e-13
-1.29779e-11
3.90445e-18
8.12024e-13
-1.5606e-11
2.08156e-17
1.05041e-12
-1.84274e-11
-5.88508e-18
1.32551e-12
-2.14537e-11
3.66353e-17
1.63914e-12
-2.46887e-11
1.00992e-17
1.99294e-12
-2.81407e-11
3.04681e-17
2.38802e-12
-3.18192e-11
-1.23561e-17
2.82637e-12
-3.57236e-11
8.46513e-18
3.30916e-12
-3.98629e-11
4.61998e-18
3.8373e-12
-4.4234e-11
2.22456e-17
4.41089e-12
-4.88391e-11
2.05478e-17
5.02986e-12
-5.36762e-11
2.18264e-17
5.69389e-12
-5.8741e-11
-6.08007e-18
6.40357e-12
-6.40239e-11
-8.05403e-17
7.16121e-12
-6.95137e-11
-1.5624e-17
7.96265e-12
-7.5201e-11
7.78774e-17
8.79682e-12
-8.10564e-11
8.32855e-17
9.65566e-12
-8.70691e-11
1.45016e-17
1.05413e-11
-9.32034e-11
-7.22406e-17
1.14623e-11
-9.94332e-11
-8.38368e-17
1.24203e-11
-1.0572e-10
1.39869e-17
1.33983e-11
-1.12009e-10
9.33743e-17
1.43666e-11
-1.18272e-10
6.32722e-17
1.53025e-11
-1.24437e-10
-2.95244e-17
1.62044e-11
-1.30463e-10
-6.91954e-17
1.70862e-11
-1.36286e-10
3.22356e-17
1.79536e-11
-1.41835e-10
1.80768e-16
1.87867e-11
-1.47038e-10
1.40674e-16
1.95485e-11
-1.5182e-10
-1.57011e-16
2.02113e-11
-1.56116e-10
-4.74732e-16
2.07714e-11
-1.59852e-10
-4.1411e-16
2.12325e-11
-1.62963e-10
1.25101e-16
2.15767e-11
-1.65367e-10
7.32242e-16
2.17709e-11
-1.66948e-10
1.0404e-15
2.17949e-11
-1.67737e-10
8.65634e-16
2.16637e-11
-1.67583e-10
2.10258e-16
2.14152e-11
-1.66557e-10
-7.08778e-16
2.10738e-11
-1.64566e-10
-1.53116e-15
2.06146e-11
-1.61578e-10
-1.90695e-15
1.99689e-11
-1.57655e-10
-1.803e-15
1.90872e-11
-1.52633e-10
-1.34961e-15
1.79953e-11
-1.46629e-10
-5.77113e-16
1.67693e-11
-1.39653e-10
4.91775e-16
1.54366e-11
-1.31786e-10
5.72667e-16
1.39881e-11
-1.23109e-10
1.81837e-16
1.24188e-11
-1.13612e-10
-7.79697e-17
1.07402e-11
-1.03386e-10
-1.06436e-16
8.97647e-12
-9.24955e-11
-3.92147e-17
7.15909e-12
-8.09568e-11
9.40988e-18
5.32811e-12
-6.87557e-11
1.44128e-17
3.54314e-12
-5.57994e-11
3.4541e-18
1.90704e-12
-4.18415e-11
-2.81246e-18
6.11636e-13
-2.64646e-11
-1.73482e-18
-9.21242e-12
2.60292e-18
1.17296e-14
-7.96592e-13
-3.48053e-19
4.76913e-14
-2.4763e-12
1.92235e-19
1.09253e-13
-4.2947e-12
-7.55794e-18
1.98064e-13
-6.26217e-12
-1.08032e-17
3.15941e-13
-8.38923e-12
-1.50735e-17
4.64734e-13
-1.06851e-11
-3.49148e-18
6.46406e-13
-1.31595e-11
2.77314e-19
8.62915e-13
-1.58222e-11
1.7954e-17
1.11541e-12
-1.868e-11
-1.74677e-17
1.40641e-12
-2.17446e-11
1.164e-17
1.73779e-12
-2.50199e-11
-7.25934e-18
2.1113e-12
-2.85138e-11
6.83788e-18
2.52778e-12
-3.2236e-11
-1.69323e-17
2.98952e-12
-3.61854e-11
9.42981e-18
3.49775e-12
-4.0371e-11
9.3066e-18
4.05331e-12
-4.47893e-11
2.22363e-17
4.65627e-12
-4.9442e-11
1.98526e-17
5.30639e-12
-5.43269e-11
1.68052e-17
6.00326e-12
-5.94393e-11
-1.22728e-17
6.74747e-12
-6.47685e-11
-7.24077e-17
7.54103e-12
-7.03031e-11
-1.69846e-18
8.37908e-12
-7.6033e-11
8.20811e-17
9.24988e-12
-8.19277e-11
7.76318e-17
1.01451e-11
-8.79756e-11
7.58384e-18
1.10668e-11
-9.41402e-11
-7.63399e-17
1.20239e-11
-1.00394e-10
-8.04342e-17
1.30173e-11
-1.06698e-10
2.33646e-17
1.40285e-11
-1.12995e-10
1.00824e-16
1.50264e-11
-1.19257e-10
6.35664e-17
1.59875e-11
-1.25411e-10
-3.62502e-17
1.69108e-11
-1.31415e-10
-7.7567e-17
1.78109e-11
-1.37207e-10
3.10567e-17
1.86934e-11
-1.42713e-10
1.90825e-16
1.95363e-11
-1.47857e-10
1.53929e-16
2.03005e-11
-1.5256e-10
-1.54307e-16
2.0958e-11
-1.56759e-10
-4.92825e-16
2.15067e-11
-1.60386e-10
-4.51096e-16
2.19526e-11
-1.63389e-10
8.83421e-17
2.22778e-11
-1.65696e-10
7.18096e-16
2.24466e-11
-1.67186e-10
1.05613e-15
2.24356e-11
-1.67862e-10
9.12417e-16
2.22598e-11
-1.67539e-10
2.80911e-16
2.19606e-11
-1.66268e-10
-6.35713e-16
2.15677e-11
-1.63988e-10
-1.46934e-15
2.10592e-11
-1.60739e-10
-1.86882e-15
2.03656e-11
-1.56656e-10
-1.80146e-15
1.94334e-11
-1.51575e-10
-1.40077e-15
1.82857e-11
-1.45533e-10
-6.82517e-16
1.70021e-11
-1.38456e-10
4.7988e-16
1.56144e-11
-1.30438e-10
6.24787e-16
1.4115e-11
-1.21606e-10
2.24117e-16
1.24991e-11
-1.1198e-10
-6.95851e-17
1.07779e-11
-1.01657e-10
-1.16546e-16
8.97656e-12
-9.06947e-11
-4.82134e-17
7.12817e-12
-7.91112e-11
7.72465e-18
5.2753e-12
-6.69041e-11
1.66786e-17
3.48113e-12
-5.40048e-11
5.64388e-18
1.85261e-12
-4.02123e-11
-1.91079e-18
5.82944e-13
-2.5195e-11
-1.53277e-18
-8.63043e-12
2.85446e-18
1.23064e-14
-8.08897e-13
1.57476e-19
5.00488e-14
-2.51405e-12
-3.09003e-18
1.14759e-13
-4.35946e-12
-4.80766e-18
2.08241e-13
-6.35569e-12
-3.57106e-18
3.32349e-13
-8.51342e-12
-8.25486e-18
4.89112e-13
-1.08419e-11
-6.10221e-18
6.80663e-13
-1.33509e-11
3.53348e-18
9.09097e-13
-1.60503e-11
7.74062e-18
1.17574e-12
-1.89468e-11
-1.50008e-17
1.48322e-12
-2.20522e-11
1.58335e-17
1.8335e-12
-2.537e-11
-6.53781e-18
2.22834e-12
-2.89083e-11
2.00669e-17
2.66858e-12
-3.26766e-11
-1.58569e-17
3.15638e-12
-3.66734e-11
1.59727e-17
3.69302e-12
-4.09076e-11
1.00395e-17
4.27914e-12
-4.53753e-11
2.50322e-17
4.91457e-12
-5.00777e-11
1.67355e-17
5.59895e-12
-5.50123e-11
1.56538e-17
6.3318e-12
-6.01737e-11
-1.41129e-17
7.11351e-12
-6.55507e-11
-8.5197e-17
7.94582e-12
-7.11312e-11
-1.25133e-17
8.82335e-12
-7.69043e-11
8.43629e-17
9.7336e-12
-8.28386e-11
8.61493e-17
1.06678e-11
-8.89217e-11
8.66758e-18
1.16283e-11
-9.51162e-11
-8.74177e-17
1.26241e-11
-1.01394e-10
-9.64241e-17
1.36555e-11
-1.07712e-10
1.52143e-17
1.47024e-11
-1.14016e-10
1.05906e-16
1.57316e-11
-1.20274e-10
7.35945e-17
1.6719e-11
-1.26413e-10
-3.39322e-17
1.76643e-11
-1.32391e-10
-8.86093e-17
1.85839e-11
-1.38147e-10
1.15015e-17
1.94832e-11
-1.43604e-10
1.77754e-16
2.0338e-11
-1.48684e-10
1.63876e-16
2.11056e-11
-1.53304e-10
-1.15703e-16
2.17558e-11
-1.57401e-10
-4.42083e-16
2.22877e-11
-1.60914e-10
-4.30589e-16
2.27112e-11
-1.63799e-10
4.03943e-17
2.30133e-11
-1.65996e-10
5.99063e-16
2.31593e-11
-1.6738e-10
8.93855e-16
2.31227e-11
-1.67935e-10
7.91253e-16
2.29118e-11
-1.67445e-10
2.94062e-16
2.25627e-11
-1.65946e-10
-4.45753e-16
2.21049e-11
-1.63397e-10
-1.12635e-15
2.15248e-11
-1.59898e-10
-1.46944e-15
2.07652e-11
-1.55642e-10
-1.45181e-15
1.97794e-11
-1.50476e-10
-1.18218e-15
1.85844e-11
-1.44375e-10
-6.57458e-16
1.72495e-11
-1.37193e-10
3.73695e-16
1.58061e-11
-1.29029e-10
5.50044e-16
1.4252e-11
-1.20051e-10
2.16272e-16
1.25858e-11
-1.10302e-10
-5.20488e-17
1.08202e-11
-9.98848e-11
-1.04835e-16
8.98057e-12
-8.88555e-11
-4.64281e-17
7.10133e-12
-7.72343e-11
5.95291e-18
5.22721e-12
-6.50309e-11
1.52577e-17
3.42465e-12
-5.22016e-11
5.05307e-18
1.80394e-12
-3.85908e-11
-2.11418e-18
5.5804e-13
-2.39494e-11
-1.40727e-18
-8.07348e-12
3.26066e-18
1.30628e-14
-8.21957e-13
-1.29537e-19
5.31644e-14
-2.55413e-12
1.17151e-18
1.21893e-13
-4.42824e-12
-2.57014e-18
2.21134e-13
-6.45498e-12
-4.10592e-18
3.52889e-13
-8.64521e-12
-7.74284e-18
5.1918e-13
-1.10082e-11
3.23632e-18
7.22273e-13