/*--------------------------------*- C++ -*----------------------------------*\
| =========                 |                                                 |
| \\      /  F ield         | OpenFOAM: The Open Source CFD Toolbox           |
|  \\    /   O peration     | Version:  v2012                                 |
|   \\  /    A nd           | Website:  www.openfoam.com                      |
|    \\/     M anipulation  |                                                 |
\*---------------------------------------------------------------------------*/
FoamFile
{
    version     2.0;
    format      ascii;
    class       volVectorField;
    location    "0.95";
    object      U;
}
// * * * * * * * * * * * * * * * * * * * * * * * * * * * * * * * * * * * * * //

dimensions      [0 1 -1 0 0 0 0];


internalField   nonuniform List<vector> 
15860
(
(5.96961e-06 -0.00438446 -5.20964e-08)
(1.42545e-05 -0.00435916 -1.24409e-07)
(2.28856e-05 -0.00433096 -1.99735e-07)
(3.23143e-05 -0.00430033 -2.82017e-07)
(4.19027e-05 -0.00426949 -3.65704e-07)
(5.21937e-05 -0.00423742 -4.55514e-07)
(6.29048e-05 -0.00420466 -5.48993e-07)
(7.42994e-05 -0.00417066 -6.48437e-07)
(8.62757e-05 -0.0041355 -7.52961e-07)
(9.89101e-05 -0.0040989 -8.63217e-07)
(0.000112195 -0.00406081 -9.79149e-07)
(0.000126132 -0.00402098 -1.10079e-06)
(0.000140614 -0.0039793 -1.22718e-06)
(0.000155591 -0.00393562 -1.35789e-06)
(0.000170986 -0.0038898 -1.49225e-06)
(0.000186706 -0.00384168 -1.62944e-06)
(0.00020264 -0.00379111 -1.76851e-06)
(0.000218673 -0.00373796 -1.90845e-06)
(0.000234704 -0.00368211 -2.04837e-06)
(0.000250652 -0.00362343 -2.18755e-06)
(0.000266421 -0.0035617 -2.32518e-06)
(0.000281879 -0.00349674 -2.46009e-06)
(0.000296865 -0.00342843 -2.5909e-06)
(0.00031122 -0.00335684 -2.7162e-06)
(0.000324871 -0.00328219 -2.83537e-06)
(0.000337852 -0.00320444 -2.94869e-06)
(0.00035012 -0.00312321 -3.05576e-06)
(0.00036148 -0.00303809 -3.15491e-06)
(0.000371671 -0.00294901 -3.24386e-06)
(0.000380459 -0.00285637 -3.3206e-06)
(0.00038778 -0.00276091 -3.38455e-06)
(0.000393713 -0.00266298 -3.43636e-06)
(0.000398267 -0.00256236 -3.47614e-06)
(0.000401311 -0.00245866 -3.50271e-06)
(0.00040263 -0.0023518 -3.51424e-06)
(0.000402031 -0.00224226 -3.50903e-06)
(0.000399408 -0.00213098 -3.48615e-06)
(0.000394779 -0.00201902 -3.44582e-06)
(0.000388269 -0.00190706 -3.38906e-06)
(0.000380011 -0.00179503 -3.31702e-06)
(0.000370059 -0.00168237 -3.23015e-06)
(0.000358345 -0.0015686 -3.12787e-06)
(0.000344723 -0.0014541 -3.00895e-06)
(0.000329123 -0.00134049 -2.87282e-06)
(0.000311702 -0.00123006 -2.72087e-06)
(0.000292844 -0.00112444 -2.55641e-06)
(0.000272971 -0.00102351 -2.383e-06)
(0.000252265 -0.000925846 -2.20225e-06)
(0.000230693 -0.000830659 -2.0139e-06)
(0.000208313 -0.0007388 -1.81854e-06)
(0.000185389 -0.000651403 -1.61847e-06)
(0.000162241 -0.000569046 -1.41645e-06)
(0.000139147 -0.000491801 -1.21488e-06)
(0.000116352 -0.00041949 -1.0159e-06)
(9.41098e-05 -0.000351826 -8.21741e-07)
(7.27028e-05 -0.00028834 -6.34866e-07)
(5.24639e-05 -0.000228202 -4.58177e-07)
(3.37497e-05 -0.0001699 -2.94789e-07)
(1.72272e-05 -0.000110832 -1.50578e-07)
(3.16749e-06 -4.46316e-05 -2.97786e-08)
(7.79107e-06 -0.00445144 -6.79943e-08)
(1.84579e-05 -0.00442491 -1.61087e-07)
(2.94559e-05 -0.00439511 -2.57084e-07)
(4.1168e-05 -0.00436408 -3.59296e-07)
(5.27613e-05 -0.00433271 -4.60465e-07)
(6.48532e-05 -0.00430044 -5.66009e-07)
(7.7056e-05 -0.00426743 -6.72505e-07)
(8.9636e-05 -0.00423324 -7.82297e-07)
(0.000102431 -0.00419784 -8.93972e-07)
(0.000115531 -0.00416092 -1.00829e-06)
(0.000128925 -0.00412236 -1.12519e-06)
(0.000142668 -0.00408196 -1.24514e-06)
(0.000156674 -0.0040396 -1.36738e-06)
(0.000170979 -0.00399504 -1.49221e-06)
(0.000185535 -0.00394815 -1.61925e-06)
(0.000200335 -0.00389878 -1.74842e-06)
(0.000215295 -0.00384677 -1.87898e-06)
(0.000230344 -0.00379202 -2.01033e-06)
(0.000245425 -0.0037344 -2.14195e-06)
(0.000260509 -0.0036738 -2.27361e-06)
(0.000275534 -0.00361007 -2.40473e-06)
(0.000290356 -0.00354305 -2.53407e-06)
(0.000304705 -0.00347261 -2.65931e-06)
(0.000318335 -0.00339878 -2.77829e-06)
(0.000331244 -0.00332165 -2.891e-06)
(0.000343667 -0.00324125 -2.99944e-06)
(0.000355663 -0.0031574 -3.10412e-06)
(0.000366924 -0.00306984 -3.20237e-06)
(0.000376938 -0.00297848 -3.28976e-06)
(0.00038528 -0.00288361 -3.3626e-06)
(0.00039197 -0.00278571 -3.42106e-06)
(0.00039737 -0.00268514 -3.46824e-06)
(0.000401686 -0.00258187 -3.50592e-06)
(0.000404728 -0.0024757 -3.53245e-06)
(0.000406057 -0.00236663 -3.54404e-06)
(0.000405263 -0.00225508 -3.53712e-06)
(0.000402177 -0.00214183 -3.5102e-06)
(0.000396943 -0.0020278 -3.46461e-06)
(0.000389945 -0.00191361 -3.40361e-06)
(0.000381529 -0.00179936 -3.33019e-06)
(0.000371766 -0.0016848 -3.24494e-06)
(0.000360367 -0.0015697 -3.14537e-06)
(0.000346843 -0.00145448 -3.02728e-06)
(0.000330891 -0.00134041 -2.8881e-06)
(0.000312753 -0.00122931 -2.72995e-06)
(0.000293198 -0.00112249 -2.55945e-06)
(0.000273022 -0.00102006 -2.38343e-06)
(0.000252419 -0.000921144 -2.20356e-06)
(0.000231021 -0.000825258 -2.01671e-06)
(0.000208653 -0.000733091 -1.82146e-06)
(0.000185616 -0.00064553 -1.62041e-06)
(0.000162334 -0.000563058 -1.41724e-06)
(0.000139138 -0.000485759 -1.21479e-06)
(0.000116272 -0.000413492 -1.01521e-06)
(9.39722e-05 -0.000345984 -8.20562e-07)
(7.2511e-05 -0.000282767 -6.33229e-07)
(5.22171e-05 -0.000223008 -4.56077e-07)
(3.34386e-05 -0.000165221 -2.92149e-07)
(1.6856e-05 -0.000106811 -1.47488e-07)
(2.7912e-06 -4.20001e-05 -2.75311e-08)
(7.74028e-06 -0.00447161 -6.75498e-08)
(1.79788e-05 -0.00444428 -1.56909e-07)
(2.87812e-05 -0.00441375 -2.51173e-07)
(4.02495e-05 -0.00438234 -3.51268e-07)
(5.15937e-05 -0.00435078 -4.50285e-07)
(6.35837e-05 -0.00431854 -5.54914e-07)
(7.57286e-05 -0.00428573 -6.60917e-07)
(8.84784e-05 -0.00425188 -7.72188e-07)
(0.00010154 -0.00421692 -8.86178e-07)
(0.000115104 -0.00418054 -1.00456e-06)
(0.00012905 -0.00414258 -1.12628e-06)
(0.000143403 -0.00410284 -1.25154e-06)
(0.000158122 -0.00406116 -1.37999e-06)
(0.000173195 -0.00401729 -1.51155e-06)
(0.0001885 -0.00397107 -1.64512e-06)
(0.000204001 -0.00392231 -1.78042e-06)
(0.000219595 -0.00387085 -1.91651e-06)
(0.000235183 -0.00381654 -2.05256e-06)
(0.00025071 -0.00375923 -2.18809e-06)
(0.00026616 -0.00369881 -2.32294e-06)
(0.0002815 -0.00363515 -2.45681e-06)
(0.000296596 -0.00356811 -2.58856e-06)
(0.000311147 -0.00349753 -2.71555e-06)
(0.000324851 -0.00342337 -2.83518e-06)
(0.000337716 -0.00334562 -2.94751e-06)
(0.000350061 -0.00326434 -3.05528e-06)
(0.000362054 -0.00317952 -3.15994e-06)
(0.000373401 -0.00309104 -3.25894e-06)
(0.000383454 -0.00299881 -3.34666e-06)
(0.000391645 -0.00290298 -3.41819e-06)
(0.000397996 -0.00280384 -3.47368e-06)
(0.00040303 -0.00270173 -3.51768e-06)
(0.000407133 -0.00259681 -3.55351e-06)
(0.000410137 -0.00248906 -3.5797e-06)
(0.000411441 -0.00237852 -3.59106e-06)
(0.000410436 -0.00226557 -3.58229e-06)
(0.000406869 -0.00215088 -3.55117e-06)
(0.000400987 -0.00203523 -3.49993e-06)
(0.000393408 -0.00191922 -3.43388e-06)
(0.000384693 -0.00180311 -3.35784e-06)
(0.000374954 -0.00168691 -3.27279e-06)
(0.000363726 -0.00157066 -3.17469e-06)
(0.000350191 -0.00145477 -3.05648e-06)
(0.00033379 -0.00134025 -2.91337e-06)
(0.000314807 -0.00122844 -2.74786e-06)
(0.000294382 -0.00112043 -2.5698e-06)
(0.000273727 -0.00101651 -2.38962e-06)
(0.000253095 -0.000916343 -2.20947e-06)
(0.000231781 -0.000819728 -2.02333e-06)
(0.000209337 -0.000727191 -1.8274e-06)
(0.000186085 -0.000639392 -1.62449e-06)
(0.000162567 -0.00055673 -1.41926e-06)
(0.000139176 -0.000479313 -1.21512e-06)
(0.00011616 -0.000407038 -1.01423e-06)
(9.37353e-05 -0.000339648 -8.18496e-07)
(7.21593e-05 -0.000276675 -6.30164e-07)
(5.17555e-05 -0.000217285 -4.52059e-07)
(3.28723e-05 -0.000160026 -2.87223e-07)
(1.62173e-05 -0.000102327 -1.41951e-07)
(2.42619e-06 -3.9145e-05 -2.44863e-08)
(9.10245e-06 -0.00453695 -7.94397e-08)
(2.11255e-05 -0.00450745 -1.84371e-07)
(3.38182e-05 -0.00447523 -2.95136e-07)
(4.71735e-05 -0.00444259 -4.11701e-07)
(6.02447e-05 -0.00440988 -5.25781e-07)
(7.37371e-05 -0.00437656 -6.43534e-07)
(8.71553e-05 -0.00434263 -7.60649e-07)
(0.000100956 -0.00430763 -8.81092e-07)
(0.000114777 -0.00427145 -1.00171e-06)
(0.000128854 -0.00423379 -1.12458e-06)
(0.000143047 -0.0041945 -1.24845e-06)
(0.000157417 -0.00415335 -1.37386e-06)
(0.000171975 -0.00411018 -1.50091e-06)
(0.000186762 -0.00406478 -1.62996e-06)
(0.000201681 -0.004017 -1.76018e-06)
(0.00021675 -0.00396665 -1.89169e-06)
(0.000231893 -0.00391358 -2.02385e-06)
(0.000247048 -0.00385764 -2.15612e-06)
(0.000262165 -0.00379867 -2.28806e-06)
(0.000277223 -0.00373656 -2.41948e-06)
(0.000292211 -0.00367122 -2.5503e-06)
(0.000307041 -0.0036025 -2.67972e-06)
(0.000321387 -0.00353028 -2.80491e-06)
(0.000334892 -0.00345444 -2.92279e-06)
(0.000347523 -0.00337497 -3.03307e-06)
(0.000359592 -0.00329188 -3.13844e-06)
(0.000371334 -0.00320523 -3.24093e-06)
(0.000382508 -0.00311499 -3.33843e-06)
(0.00039242 -0.00302111 -3.42492e-06)
(0.000400417 -0.00292365 -3.49473e-06)
(0.000406463 -0.00282278 -3.54757e-06)
(0.000411118 -0.0027188 -3.58826e-06)
(0.000414885 -0.00261197 -3.62116e-06)
(0.000417659 -0.00250241 -3.64535e-06)
(0.000418761 -0.00239025 -3.65494e-06)
(0.000417436 -0.00227579 -3.64337e-06)
(0.000413364 -0.00215961 -3.60786e-06)
(0.000406857 -0.00204232 -3.55118e-06)
(0.000398677 -0.00192446 -3.47989e-06)
(0.000389503 -0.00180645 -3.39986e-06)
(0.000379483 -0.0016886 -3.31235e-06)
(0.000368064 -0.00157127 -3.21255e-06)
(0.000354262 -0.00145492 -3.09198e-06)
(0.000337377 -0.0013402 -2.94465e-06)
(0.000317698 -0.0012279 -2.7731e-06)
(0.000296545 -0.00111875 -2.58871e-06)
(0.000275354 -0.00101331 -2.40387e-06)
(0.000254444 -0.000911836 -2.22128e-06)
(0.000232955 -0.000814507 -2.03358e-06)
(0.00021028 -0.000721668 -1.83563e-06)
(0.000186738 -0.000633699 -1.63019e-06)
(0.000162928 -0.000550891 -1.42242e-06)
(0.00013928 -0.000473374 -1.21604e-06)
(0.000116048 -0.000401094 -1.01326e-06)
(9.34383e-05 -0.000333814 -8.15906e-07)
(7.16986e-05 -0.000271068 -6.26144e-07)
(5.11497e-05 -0.000212021 -4.46771e-07)
(3.21544e-05 -0.000155253 -2.80954e-07)
(1.54641e-05 -9.82615e-05 -1.35365e-07)
(2.1186e-06 -3.66979e-05 -2.15509e-08)
(8.98405e-06 -0.00457216 -7.84053e-08)
(2.08735e-05 -0.00454153 -1.82172e-07)
(3.35496e-05 -0.00450833 -2.92792e-07)
(4.68345e-05 -0.00447504 -4.08743e-07)
(5.99564e-05 -0.0044419 -5.23264e-07)
(7.36129e-05 -0.00440841 -6.42447e-07)
(8.73e-05 -0.00437443 -7.61906e-07)
(0.000101571 -0.00433955 -8.86455e-07)
(0.000115965 -0.00430356 -1.01208e-06)
(0.000130792 -0.00426618 -1.14148e-06)
(0.000145813 -0.00422719 -1.27258e-06)
(0.000161126 -0.00418636 -1.40622e-06)
(0.00017666 -0.00414347 -1.54179e-06)
(0.000192441 -0.00409831 -1.67953e-06)
(0.00020832 -0.00405067 -1.81812e-06)
(0.000224285 -0.00400038 -1.95745e-06)
(0.00024024 -0.00394724 -2.0967e-06)
(0.00025611 -0.0038911 -2.23522e-06)
(0.000271824 -0.00383178 -2.37237e-06)
(0.000287353 -0.00376918 -2.50791e-06)
(0.000302714 -0.00370317 -2.64198e-06)
(0.000317844 -0.00363364 -2.77402e-06)
(0.000332426 -0.00356047 -2.90127e-06)
(0.000346092 -0.00348358 -3.02055e-06)
(0.000358794 -0.00340295 -3.13145e-06)
(0.000370836 -0.00331857 -3.23658e-06)
(0.000382489 -0.00323048 -3.33831e-06)
(0.000393563 -0.0031387 -3.43494e-06)
(0.000403367 -0.00304324 -3.52048e-06)
(0.000411215 -0.00294418 -3.58899e-06)
(0.000417022 -0.00284164 -3.63973e-06)
(0.000421334 -0.0027359 -3.67743e-06)
(0.000424722 -0.00262725 -3.70702e-06)
(0.000427148 -0.00251591 -3.72818e-06)
(0.000427909 -0.00240209 -3.73479e-06)
(0.000426173 -0.0022861 -3.71963e-06)
(0.000421581 -0.0021684 -3.67958e-06)
(0.000414487 -0.00204944 -3.61778e-06)
(0.000405701 -0.00192968 -3.5412e-06)
(0.000395925 -0.00180968 -3.45592e-06)
(0.000385309 -0.00169011 -3.36321e-06)
(0.000373311 -0.00157166 -3.25837e-06)
(0.000358961 -0.00145486 -3.13302e-06)
(0.000341555 -0.00134 -2.98113e-06)
(0.000321359 -0.00122728 -2.80505e-06)
(0.000299662 -0.00111705 -2.61592e-06)
(0.000277908 -0.00101007 -2.42616e-06)
(0.000256468 -0.000907252 -2.23895e-06)
(0.000234524 -0.000809193 -2.04729e-06)
(0.000211457 -0.000716066 -1.84592e-06)
(0.000187556 -0.00062796 -1.63734e-06)
(0.000163409 -0.000545037 -1.42663e-06)
(0.000139454 -0.000467445 -1.21756e-06)
(0.000115949 -0.000395175 -1.0124e-06)
(9.31027e-05 -0.000328019 -8.12981e-07)
(7.11613e-05 -0.000265511 -6.21458e-07)
(5.0447e-05 -0.000206817 -4.4064e-07)
(3.13506e-05 -0.000150561 -2.73936e-07)
(1.46779e-05 -9.43453e-05 -1.28488e-07)
(1.84233e-06 -3.4467e-05 -1.88907e-08)
(1.00327e-05 -0.00463623 -8.75576e-08)
(2.33078e-05 -0.00460357 -2.03418e-07)
(3.74525e-05 -0.00456876 -3.26853e-07)
(5.22737e-05 -0.00453409 -4.5621e-07)
(6.67889e-05 -0.00449964 -5.82902e-07)
(8.1762e-05 -0.00446488 -7.13563e-07)
(9.66006e-05 -0.00442959 -8.43082e-07)
(0.000111852 -0.00439335 -9.7619e-07)
(0.00012705 -0.00435596 -1.10883e-06)
(0.000142472 -0.00431713 -1.24342e-06)
(0.000157939 -0.00427671 -1.37841e-06)
(0.000173545 -0.00423442 -1.51462e-06)
(0.000189271 -0.00419006 -1.65186e-06)
(0.00020516 -0.00414344 -1.79054e-06)
(0.000221107 -0.00409436 -1.92972e-06)
(0.000237114 -0.00404263 -2.06942e-06)
(0.000253114 -0.00398808 -2.20906e-06)
(0.000269044 -0.00393053 -2.34809e-06)
(0.000284826 -0.00386982 -2.48584e-06)
(0.00030042 -0.00380581 -2.62194e-06)
(0.000315853 -0.00373838 -2.75665e-06)
(0.000331073 -0.00366739 -2.88947e-06)
(0.000345736 -0.00359274 -3.01743e-06)
(0.000359451 -0.00351435 -3.13715e-06)
(0.00037216 -0.0034322 -3.2481e-06)
(0.000384163 -0.00334627 -3.3529e-06)
(0.000395743 -0.00325655 -3.45398e-06)
(0.000406715 -0.00316306 -3.54973e-06)
(0.000416383 -0.00306584 -3.63408e-06)
(0.000424047 -0.002965 -3.70099e-06)
(0.000429593 -0.00286069 -3.74945e-06)
(0.000433548 -0.00275314 -3.78403e-06)
(0.000436513 -0.00264266 -3.80994e-06)
(0.000438494 -0.0025295 -3.82722e-06)
(0.000438794 -0.00241397 -3.8298e-06)
(0.000436555 -0.00229639 -3.81027e-06)
(0.000431429 -0.00217711 -3.76554e-06)
(0.000423787 -0.00205646 -3.69895e-06)
(0.000414401 -0.00193481 -3.61712e-06)
(0.000403892 -0.00181284 -3.52545e-06)
(0.000392386 -0.00169153 -3.42499e-06)
(0.000379437 -0.00157189 -3.31188e-06)
(0.000364259 -0.00145453 -3.17931e-06)
(0.000346284 -0.00133943 -3.02245e-06)
(0.000325734 -0.00122628 -2.84324e-06)
(0.000303677 -0.00111504 -2.65093e-06)
(0.000281347 -0.00100662 -2.45614e-06)
(0.000259146 -0.000902523 -2.26232e-06)
(0.000236481 -0.000803732 -2.06439e-06)
(0.000212862 -0.000710303 -1.8582e-06)
(0.000188534 -0.000622056 -1.64588e-06)
(0.000164011 -0.000539033 -1.43188e-06)
(0.000139702 -0.000461383 -1.21973e-06)
(0.000115874 -0.000389141 -1.01175e-06)
(9.27477e-05 -0.00032212 -8.09887e-07)
(7.05751e-05 -0.000259864 -6.16345e-07)
(4.96848e-05 -0.000201544 -4.3399e-07)
(3.05061e-05 -0.000145834 -2.66564e-07)
(1.39019e-05 -9.0481e-05 -1.21701e-07)
(1.59449e-06 -3.23689e-05 -1.65185e-08)
(1.01265e-05 -0.00468306 -8.83765e-08)
(2.35696e-05 -0.00464914 -2.05703e-07)
(3.79466e-05 -0.00461321 -3.31177e-07)
(5.30148e-05 -0.00457769 -4.62685e-07)
(6.7918e-05 -0.00454259 -5.92743e-07)
(8.33599e-05 -0.00450735 -7.27528e-07)
(9.88068e-05 -0.0044717 -8.62341e-07)
(0.000114796 -0.00443519 -1.00187e-06)
(0.000130777 -0.00439759 -1.14133e-06)
(0.000147055 -0.0043586 -1.28342e-06)
(0.000163459 -0.00431801 -1.42659e-06)
(0.000180124 -0.00427552 -1.57203e-06)
(0.000196895 -0.00423091 -1.71841e-06)
(0.000213846 -0.00418397 -1.86635e-06)
(0.000230803 -0.00413447 -2.01434e-06)
(0.000247758 -0.00408222 -2.16232e-06)
(0.000264623 -0.00402703 -2.3095e-06)
(0.000281325 -0.00396872 -2.45528e-06)
(0.000297774 -0.00390714 -2.59885e-06)
(0.000313932 -0.00384215 -2.73988e-06)
(0.000329842 -0.00377362 -2.87875e-06)
(0.000345462 -0.0037014 -3.01506e-06)
(0.000360434 -0.00362541 -3.14572e-06)
(0.00037436 -0.0035456 -3.26727e-06)
(0.000387194 -0.00346196 -3.37932e-06)
(0.000399259 -0.00337447 -3.48466e-06)
(0.000410854 -0.00328311 -3.58587e-06)
(0.000421787 -0.00318788 -3.68128e-06)
(0.000431342 -0.00308886 -3.76465e-06)
(0.00043881 -0.00298617 -3.82985e-06)
(0.00044407 -0.00288 -3.87581e-06)
(0.000447647 -0.00277059 -3.90709e-06)
(0.00045015 -0.00265822 -3.92898e-06)
(0.000451608 -0.00254319 -3.94169e-06)
(0.00045134 -0.00242587 -3.93933e-06)
(0.000448515 -0.0023066 -3.91467e-06)
(0.000442827 -0.00218567 -3.86504e-06)
(0.000434656 -0.0020633 -3.79381e-06)
(0.000424664 -0.0019398 -3.70668e-06)
(0.00041331 -0.00181596 -3.60763e-06)
(0.000400664 -0.00169295 -3.49724e-06)
(0.000386442 -0.00157203 -3.37307e-06)
(0.000370181 -0.00145389 -3.2311e-06)
(0.000351568 -0.00133831 -3.06865e-06)
(0.000330772 -0.00122461 -2.88724e-06)
(0.000308493 -0.00111246 -2.69292e-06)
(0.00028558 -0.00100284 -2.49301e-06)
(0.000262431 -0.000897636 -2.29096e-06)
(0.000238816 -0.000798161 -2.08479e-06)
(0.000214498 -0.0007044 -1.87251e-06)
(0.000189672 -0.000615991 -1.65584e-06)
(0.000164731 -0.000532871 -1.43818e-06)
(0.000140029 -0.000455184 -1.22258e-06)
(0.000115835 -0.000382991 -1.01141e-06)
(9.23913e-05 -0.000316124 -8.06781e-07)
(6.9965e-05 -0.000254135 -6.11024e-07)
(4.8895e-05 -0.000196211 -4.271e-07)
(2.96553e-05 -0.000141089 -2.59138e-07)
(1.31624e-05 -8.66801e-05 -1.15234e-07)
(1.37767e-06 -3.03963e-05 -1.44372e-08)
(1.09918e-05 -0.00474824 -9.5928e-08)
(2.56252e-05 -0.00471249 -2.23644e-07)
(4.1298e-05 -0.00467502 -3.60426e-07)
(5.76388e-05 -0.0046381 -5.03036e-07)
(7.37588e-05 -0.00460167 -6.43727e-07)
(9.03987e-05 -0.00456509 -7.88954e-07)
(0.000106946 -0.00452812 -9.33378e-07)
(0.000123919 -0.00449029 -1.0815e-06)
(0.000140777 -0.00445138 -1.22861e-06)
(0.000157805 -0.00441104 -1.37725e-06)
(0.000174874 -0.00436906 -1.52621e-06)
(0.000192108 -0.00432518 -1.67662e-06)
(0.000209395 -0.00427919 -1.82749e-06)
(0.000226809 -0.00423086 -1.97948e-06)
(0.000244209 -0.00417998 -2.13135e-06)
(0.000261593 -0.00412636 -2.28306e-06)
(0.000278882 -0.00406979 -2.43396e-06)
(0.000295998 -0.00401011 -2.58334e-06)
(0.000312848 -0.00394713 -2.73041e-06)
(0.000329393 -0.00388072 -2.87482e-06)
(0.000345681 -0.00381072 -3.01698e-06)
(0.000361648 -0.003737 -3.15632e-06)
(0.000376905 -0.00365945 -3.28948e-06)
(0.000391038 -0.00357803 -3.41284e-06)
(0.000404005 -0.00349272 -3.52605e-06)
(0.000416153 -0.00340351 -3.63212e-06)
(0.000427794 -0.00331037 -3.73373e-06)
(0.000438715 -0.00321331 -3.82902e-06)
(0.000448168 -0.0031124 -3.91151e-06)
(0.00045543 -0.00300779 -3.97491e-06)
(0.00046038 -0.00289969 -4.01816e-06)
(0.00046355 -0.00278832 -4.04589e-06)
(0.000465553 -0.00267399 -4.06342e-06)
(0.000466421 -0.00255701 -4.071e-06)
(0.000465495 -0.00243779 -4.0629e-06)
(0.000462001 -0.0023167 -4.03241e-06)
(0.000455704 -0.00219401 -3.97745e-06)
(0.000446983 -0.00206989 -3.90139e-06)
(0.000436352 -0.00194465 -3.80866e-06)
(0.000424055 -0.00181907 -3.70138e-06)
(0.000410087 -0.00169445 -3.57949e-06)
(0.00039436 -0.00157214 -3.44224e-06)
(0.000376814 -0.0014529 -3.2891e-06)
(0.000357463 -0.00133648 -3.12022e-06)
(0.000336436 -0.00122202 -2.93672e-06)
(0.000313985 -0.00110907 -2.7408e-06)
(0.000290466 -0.000998576 -2.53557e-06)
(0.000266238 -0.000892551 -2.32414e-06)
(0.000241507 -0.000792485 -2.10829e-06)
(0.000216369 -0.000698366 -1.88888e-06)
(0.000190976 -0.000609758 -1.66724e-06)
(0.000165571 -0.000526542 -1.44551e-06)
(0.000140434 -0.000448842 -1.22612e-06)
(0.000115838 -0.000376726 -1.01144e-06)
(9.20483e-05 -0.000310035 -8.03792e-07)
(6.93523e-05 -0.000248335 -6.05682e-07)
(4.81038e-05 -0.000190836 -4.20197e-07)
(2.88239e-05 -0.000136345 -2.5188e-07)
(1.2475e-05 -8.29571e-05 -1.09222e-07)
(1.19135e-06 -2.85453e-05 -1.26389e-08)
(1.12967e-05 -0.0048048 -9.85891e-08)
(2.63775e-05 -0.00476763 -2.30206e-07)
(4.26005e-05 -0.00472899 -3.7179e-07)
(5.95087e-05 -0.00469104 -5.19361e-07)
(7.62709e-05 -0.00465378 -6.65646e-07)
(9.36185e-05 -0.00461644 -8.17053e-07)
(0.000110927 -0.00457884 -9.68118e-07)
(0.000128796 -0.00454039 -1.12406e-06)
(0.000146589 -0.00450092 -1.27934e-06)
(0.000164658 -0.00446002 -1.43705e-06)
(0.000182787 -0.00441747 -1.59528e-06)
(0.000201131 -0.00437296 -1.75537e-06)
(0.000219516 -0.00432628 -1.91583e-06)
(0.000238024 -0.00427718 -2.07736e-06)
(0.00025647 -0.00422545 -2.23835e-06)
(0.000274851 -0.00417088 -2.39877e-06)
(0.00029306 -0.00411327 -2.5577e-06)
(0.000311014 -0.00405244 -2.7144e-06)
(0.000328613 -0.00398822 -2.86801e-06)
(0.000345827 -0.00392046 -3.01825e-06)
(0.000362704 -0.00384903 -3.16556e-06)
(0.000379184 -0.00377379 -3.30938e-06)
(0.00039486 -0.00369465 -3.44618e-06)
(0.000409302 -0.00361154 -3.57224e-06)
(0.000422477 -0.00352447 -3.68727e-06)
(0.000434759 -0.00343343 -3.79451e-06)
(0.000446478 -0.00333841 -3.8968e-06)
(0.000457409 -0.00323941 -3.99218e-06)
(0.000466772 -0.00313652 -4.07389e-06)
(0.000473823 -0.0030299 -4.13545e-06)
(0.000478446 -0.00291977 -4.17585e-06)
(0.000481185 -0.00280637 -4.19981e-06)
(0.000482654 -0.00268999 -4.21269e-06)
(0.00048288 -0.00257097 -4.21466e-06)
(0.000481224 -0.00244973 -4.2002e-06)
(0.000476979 -0.00232667 -4.16317e-06)
(0.000469992 -0.0022021 -4.10218e-06)
(0.000460646 -0.00207622 -4.02064e-06)
(0.000449303 -0.00194934 -3.92166e-06)
(0.000435986 -0.00182221 -3.80547e-06)
(0.0004206 -0.00169607 -3.67124e-06)
(0.000403249 -0.00157225 -3.51988e-06)
(0.000384284 -0.00145155 -3.35442e-06)
(0.000364066 -0.00133384 -3.17796e-06)
(0.000342702 -0.00121837 -2.99145e-06)
(0.000320007 -0.00110472 -2.79331e-06)
(0.00029583 -0.000993715 -2.58229e-06)
(0.000270458 -0.000887216 -2.36092e-06)
(0.000244524 -0.000786687 -2.13463e-06)
(0.00021848 -0.000692191 -1.90734e-06)
(0.00019245 -0.000603345 -1.68014e-06)
(0.000166528 -0.000520028 -1.45388e-06)
(0.000140917 -0.000442342 -1.23034e-06)
(0.000115888 -0.000370334 -1.01188e-06)
(9.173e-05 -0.000303849 -8.01018e-07)
(6.87542e-05 -0.000242464 -6.00465e-07)
(4.73312e-05 -0.000185423 -4.13456e-07)
(2.80298e-05 -0.000131612 -2.44948e-07)
(1.18475e-05 -7.93145e-05 -1.03733e-07)
(1.03295e-06 -2.68052e-05 -1.11028e-08)
(1.21126e-05 -0.00487351 -1.05711e-07)
(2.82857e-05 -0.0048346 -2.46869e-07)
(4.56711e-05 -0.00479441 -3.9858e-07)
(6.38211e-05 -0.00475511 -5.56988e-07)
(8.17546e-05 -0.00471653 -7.13515e-07)
(0.000100278 -0.00467793 -8.75165e-07)
(0.000118687 -0.00463902 -1.03585e-06)
(0.000137612 -0.00459929 -1.20101e-06)
(0.000156371 -0.00455852 -1.36471e-06)
(0.000175383 -0.0045163 -1.53065e-06)
(0.00019438 -0.00447239 -1.69646e-06)
(0.000213561 -0.00442652 -1.86385e-06)
(0.000232731 -0.00437842 -2.03116e-06)
(0.000251982 -0.00432791 -2.19918e-06)
(0.000271159 -0.00427477 -2.36655e-06)
(0.000290254 -0.00421876 -2.53321e-06)
(0.000309164 -0.00415968 -2.69824e-06)
(0.000327795 -0.00409735 -2.86085e-06)
(0.000346042 -0.00403159 -3.02011e-06)
(0.000363859 -0.00396224 -3.17563e-06)
(0.000381299 -0.00388916 -3.32785e-06)
(0.000398294 -0.00381221 -3.47617e-06)
(0.000414413 -0.00373129 -3.61683e-06)
(0.000429194 -0.00364636 -3.74585e-06)
(0.000442609 -0.00355739 -3.86299e-06)
(0.000455055 -0.00346439 -3.97166e-06)
(0.000466874 -0.00336734 -4.07482e-06)
(0.000477825 -0.00326628 -4.17038e-06)
(0.000487098 -0.00316128 -4.25129e-06)
(0.000493926 -0.00305253 -4.31091e-06)
(0.000498199 -0.00294027 -4.34826e-06)
(0.00050048 -0.00282475 -4.36823e-06)
(0.000501388 -0.00270625 -4.3762e-06)
(0.000500938 -0.00258509 -4.37228e-06)
(0.000498499 -0.00246169 -4.351e-06)
(0.000493421 -0.00233652 -4.3067e-06)
(0.00048563 -0.00220995 -4.23868e-06)
(0.000475525 -0.00208228 -4.15051e-06)
(0.000463356 -0.00195386 -4.0443e-06)
(0.000448958 -0.00182534 -3.91866e-06)
(0.000432146 -0.00169778 -3.77201e-06)
(0.000413172 -0.00157234 -3.60654e-06)
(0.000392728 -0.00144985 -3.42822e-06)
(0.000371483 -0.00133042 -3.2428e-06)
(0.000349556 -0.00121368 -3.05132e-06)
(0.000326417 -0.00109939 -2.84923e-06)
(0.000301489 -0.000988214 -2.63162e-06)
(0.000274968 -0.000881581 -2.40024e-06)
(0.00024783 -0.000780731 -2.16349e-06)
(0.000220836 -0.000685854 -1.92793e-06)
(0.000194102 -0.000596739 -1.69458e-06)
(0.000167604 -0.00051332 -1.46328e-06)
(0.000141477 -0.000435672 -1.23523e-06)
(0.000115987 -0.000363807 -1.01275e-06)
(9.14448e-05 -0.000297558 -7.98533e-07)
(6.81837e-05 -0.00023652 -5.9549e-07)
(4.65924e-05 -0.000179975 -4.0701e-07)
(2.72846e-05 -0.000126895 -2.38442e-07)
(1.12825e-05 -7.57504e-05 -9.8791e-08)
(8.99329e-07 -2.51635e-05 -9.80181e-09)
(1.25924e-05 -0.00493901 -1.09899e-07)
(2.94753e-05 -0.00489861 -2.57245e-07)
(4.76347e-05 -0.00485711 -4.15741e-07)
(6.65768e-05 -0.00481666 -5.8105e-07)
(8.54073e-05 -0.00477707 -7.45383e-07)
(0.00010485 -0.00473751 -9.15083e-07)
(0.00012425 -0.00469773 -1.08439e-06)
(0.000144185 -0.00465713 -1.25837e-06)
(0.000164033 -0.0046155 -1.43157e-06)
(0.000184204 -0.00457239 -1.60764e-06)
(0.000204381 -0.00452758 -1.78373e-06)
(0.000224777 -0.00448074 -1.96174e-06)
(0.000245122 -0.00443161 -2.1393e-06)
(0.000265481 -0.00437999 -2.31699e-06)
(0.000285756 -0.00432566 -2.49395e-06)
(0.000305916 -0.00426836 -2.6699e-06)
(0.000325826 -0.00420792 -2.84367e-06)
(0.000345393 -0.00414413 -3.01444e-06)
(0.000364495 -0.00407681 -3.18117e-06)
(0.000383085 -0.00400582 -3.34343e-06)
(0.000401218 -0.00393102 -3.5017e-06)
(0.00041883 -0.00385225 -3.6554e-06)
(0.000435465 -0.00376944 -3.80057e-06)
(0.000450646 -0.00368255 -3.93309e-06)
(0.000464352 -0.00359156 -4.05276e-06)
(0.000477002 -0.00349647 -4.16321e-06)
(0.000488947 -0.00339727 -4.26748e-06)
(0.000499931 -0.00329398 -4.36333e-06)
(0.000509106 -0.00318673 -4.44338e-06)
(0.000515686 -0.00307572 -4.50083e-06)
(0.000519575 -0.00296121 -4.53484e-06)
(0.000521365 -0.00284348 -4.55052e-06)
(0.000521689 -0.00272276 -4.5534e-06)
(0.000520546 -0.00259937 -4.54344e-06)
(0.000517289 -0.00247371 -4.51502e-06)
(0.000511297 -0.00234628 -4.46274e-06)
(0.000502557 -0.00221759 -4.38645e-06)
(0.000491514 -0.00208809 -4.29007e-06)
(0.00047837 -0.00195817 -4.17534e-06)
(0.000462842 -0.00182838 -4.03983e-06)
(0.000444667 -0.00169945 -3.8813e-06)
(0.000424169 -0.00157233 -3.70256e-06)
(0.000402252 -0.0014478 -3.51141e-06)
(0.000379804 -0.00132635 -3.3155e-06)
(0.000356992 -0.00120813 -3.11626e-06)
(0.000333099 -0.00109323 -2.90754e-06)
(0.000307285 -0.000982112 -2.68217e-06)
(0.000279657 -0.000875608 -2.44115e-06)
(0.000251383 -0.000774562 -2.19451e-06)
(0.000223431 -0.000679319 -1.95061e-06)
(0.000195931 -0.000589925 -1.71057e-06)
(0.000168794 -0.000506411 -1.47368e-06)
(0.000142108 -0.000428827 -1.24075e-06)
(0.000116135 -0.000357138 -1.01404e-06)
(9.11983e-05 -0.000291161 -7.96387e-07)
(6.76503e-05 -0.000230503 -5.90838e-07)
(4.58977e-05 -0.000174494 -4.00948e-07)
(2.65952e-05 -0.000122195 -2.32424e-07)
(1.07791e-05 -7.22617e-05 -9.43874e-08)
(7.87368e-07 -2.3609e-05 -8.70742e-09)
(1.34001e-05 -0.00501324 -1.16944e-07)
(3.13703e-05 -0.00497112 -2.73785e-07)
(5.07266e-05 -0.00492813 -4.42722e-07)
(7.08923e-05 -0.0048863 -6.18708e-07)
(9.09226e-05 -0.00484537 -7.93526e-07)
(0.000111612 -0.00480452 -9.74097e-07)
(0.000132171 -0.00476342 -1.15353e-06)
(0.00015329 -0.0047215 -1.33783e-06)
(0.000174246 -0.0046785 -1.52071e-06)
(0.000195531 -0.00463402 -1.7065e-06)
(0.000216764 -0.0045878 -1.89181e-06)
(0.000238219 -0.00453953 -2.07906e-06)
(0.000259571 -0.00448896 -2.26541e-06)
(0.000280909 -0.00443585 -2.45164e-06)
(0.000302142 -0.00437997 -2.63696e-06)
(0.000323241 -0.00432108 -2.8211e-06)
(0.000344058 -0.00425899 -3.00279e-06)
(0.000364494 -0.00419349 -3.18115e-06)
(0.000384417 -0.00412441 -3.35504e-06)
(0.00040378 -0.0040516 -3.52405e-06)
(0.000422636 -0.00397488 -3.68863e-06)
(0.000440893 -0.00389414 -3.84796e-06)
(0.000458068 -0.00380928 -3.99785e-06)
(0.000473674 -0.00372027 -4.13407e-06)
(0.000487699 -0.0036271 -4.25653e-06)
(0.000500581 -0.00352977 -4.36901e-06)
(0.000512679 -0.00342827 -4.47462e-06)
(0.000523707 -0.00332262 -4.57084e-06)
(0.000532773 -0.00321296 -4.64995e-06)
(0.00053907 -0.00309953 -4.70493e-06)
(0.000542527 -0.00298264 -4.73517e-06)
(0.000543783 -0.00286257 -4.7462e-06)
(0.0005435 -0.00273953 -4.74378e-06)
(0.000541655 -0.00261381 -4.72768e-06)
(0.000537558 -0.00248578 -4.69193e-06)
(0.000530571 -0.00235599 -4.63098e-06)
(0.000520725 -0.00222508 -4.54503e-06)
(0.000508534 -0.00209367 -4.43864e-06)
(0.000494241 -0.00196223 -4.31388e-06)
(0.000477537 -0.00183117 -4.1681e-06)
(0.000458101 -0.00170091 -3.99856e-06)
(0.000436235 -0.00157208 -3.80788e-06)
(0.000412898 -0.00144544 -3.60434e-06)
(0.00038907 -0.00132183 -3.39641e-06)
(0.000364999 -0.00120202 -3.18619e-06)
(0.000339979 -0.0010865 -2.96762e-06)
(0.000313112 -0.000975521 -2.73304e-06)
(0.000284441 -0.000869273 -2.48291e-06)
(0.000255144 -0.000768117 -2.22735e-06)
(0.000226254 -0.000672544 -1.97526e-06)
(0.000197935 -0.000582886 -1.72807e-06)
(0.000170094 -0.000499296 -1.48504e-06)
(0.000142808 -0.000421804 -1.24687e-06)
(0.000116332 -0.000350325 -1.01577e-06)
(9.09939e-05 -0.000284653 -7.94608e-07)
(6.71603e-05 -0.000224413 -5.86565e-07)
(4.52538e-05 -0.000168984 -3.95329e-07)
(2.5965e-05 -0.000117517 -2.26921e-07)
(1.03344e-05 -6.88441e-05 -9.04972e-08)
(6.941e-07 -2.21308e-05 -7.79212e-09)
(1.40547e-05 -0.00508772 -1.2266e-07)
(3.29206e-05 -0.00504402 -2.87314e-07)
(5.32379e-05 -0.00499961 -4.64639e-07)
(7.45127e-05 -0.00495651 -6.50304e-07)
(9.56229e-05 -0.00491441 -8.34547e-07)
(0.00011743 -0.00487243 -1.02487e-06)
(0.000139148 -0.00483023 -1.21442e-06)
(0.000161443 -0.00478721 -1.40898e-06)
(0.000183627 -0.00474311 -1.60258e-06)
(0.000206155 -0.00469747 -1.79922e-06)
(0.000228662 -0.00465006 -1.99565e-06)
(0.000251386 -0.00460053 -2.19397e-06)
(0.000274005 -0.00454866 -2.39138e-06)
(0.00029658 -0.00449414 -2.58841e-06)
(0.000319019 -0.00443677 -2.78425e-06)
(0.000341278 -0.00437631 -2.97852e-06)
(0.000363195 -0.00431254 -3.16981e-06)
(0.00038466 -0.00424528 -3.35715e-06)
(0.00040554 -0.00417435 -3.5394e-06)
(0.000425788 -0.00409958 -3.71614e-06)
(0.00044545 -0.00402083 -3.88774e-06)
(0.000464421 -0.00393797 -4.05331e-06)
(0.000482195 -0.00385091 -4.20842e-06)
(0.000498266 -0.00375962 -4.34871e-06)
(0.000512639 -0.00366411 -4.4742e-06)
(0.000525779 -0.00356438 -4.58894e-06)
(0.00053805 -0.00346041 -4.69606e-06)
(0.000549132 -0.00335224 -4.79275e-06)
(0.000558076 -0.00324002 -4.8708e-06)