/*--------------------------------*- C++ -*----------------------------------*\
| =========                 |                                                 |
| \\      /  F ield         | OpenFOAM: The Open Source CFD Toolbox           |
|  \\    /   O peration     | Version:  v2012                                 |
|   \\  /    A nd           | Website:  www.openfoam.com                      |
|    \\/     M anipulation  |                                                 |
\*---------------------------------------------------------------------------*/
FoamFile
{
    version     2.0;
    format      ascii;
    class       volVectorField;
    location    "0.35";
    object      U;
}
// * * * * * * * * * * * * * * * * * * * * * * * * * * * * * * * * * * * * * //

dimensions      [0 1 -1 0 0 0 0];


internalField   nonuniform List<vector> 
3352
(
(1.74611e-07 -0.000132728 -1.51999e-09)
(1.50703e-06 -0.000647951 -1.31633e-08)
(3.84898e-06 -0.00141486 -3.36173e-08)
(6.79684e-06 -0.00230925 -5.93606e-08)
(9.98536e-06 -0.00327737 -8.72011e-08)
(1.34751e-05 -0.00428994 -1.17656e-07)
(1.7782e-05 -0.00532783 -1.55242e-07)
(2.25715e-05 -0.00637819 -1.97041e-07)
(2.79539e-05 -0.00743189 -2.44017e-07)
(3.3999e-05 -0.00848244 -2.96774e-07)
(4.05899e-05 -0.00952457 -3.54293e-07)
(4.79706e-05 -0.0105543 -4.18699e-07)
(5.60874e-05 -0.0115684 -4.89539e-07)
(6.50221e-05 -0.0125641 -5.67512e-07)
(7.48148e-05 -0.0135391 -6.5297e-07)
(8.54714e-05 -0.0144914 -7.45969e-07)
(9.70147e-05 -0.015419 -8.46709e-07)
(0.000109496 -0.0163203 -9.55632e-07)
(0.000122898 -0.0171936 -1.07259e-06)
(0.000137151 -0.0180373 -1.19698e-06)
(0.00015234 -0.01885 -1.32954e-06)
(0.000168498 -0.0196302 -1.47054e-06)
(0.000185596 -0.0203763 -1.61976e-06)
(0.000203619 -0.0210867 -1.77705e-06)
(0.000222528 -0.0217597 -1.94206e-06)
(0.000242265 -0.0223936 -2.11432e-06)
(0.000262759 -0.0229868 -2.29317e-06)
(0.000283915 -0.0235372 -2.47781e-06)
(0.000305617 -0.024043 -2.66722e-06)
(0.000327722 -0.0245022 -2.86014e-06)
(0.000350055 -0.0249127 -3.05507e-06)
(0.000372413 -0.0252722 -3.2502e-06)
(0.000394561 -0.0255785 -3.44351e-06)
(0.000416227 -0.0258292 -3.63263e-06)
(0.000437111 -0.0260218 -3.81493e-06)
(0.000456881 -0.0261536 -3.9875e-06)
(0.000475177 -0.026222 -4.14722e-06)
(0.000491611 -0.0262243 -4.29071e-06)
(0.000505779 -0.0261575 -4.41444e-06)
(2.74625e-09 -0.000137424 -1.63968e-11)
(1.19174e-06 -0.000658545 -1.03889e-08)
(3.2993e-06 -0.00142907 -2.8787e-08)
(6.54519e-06 -0.00232596 -5.71372e-08)
(1.05139e-05 -0.00329635 -9.1792e-08)
(1.42361e-05 -0.00431078 -1.24288e-07)
(1.85118e-05 -0.00535008 -1.61601e-07)
(2.38318e-05 -0.00640171 -2.08039e-07)
(2.9327e-05 -0.00745662 -2.55998e-07)
(3.54824e-05 -0.00850847 -3.09721e-07)
(4.24532e-05 -0.00955182 -3.70561e-07)
(4.99971e-05 -0.0105828 -4.36397e-07)
(5.82789e-05 -0.0115981 -5.08675e-07)
(6.73028e-05 -0.0125949 -5.87429e-07)
(7.70878e-05 -0.0135711 -6.72823e-07)
(8.77376e-05 -0.0145243 -7.65768e-07)
(9.92447e-05 -0.0154529 -8.66193e-07)
(0.000111668 -0.0163552 -9.74614e-07)
(0.000125116 -0.0172293 -1.09197e-06)
(0.000139371 -0.0180738 -1.21638e-06)
(0.000154437 -0.0188872 -1.34786e-06)
(0.000170517 -0.019668 -1.4882e-06)
(0.000187622 -0.0204144 -1.63747e-06)
(0.000205701 -0.021125 -1.79525e-06)
(0.000224689 -0.0217981 -1.96096e-06)
(0.000244521 -0.0224319 -2.13404e-06)
(0.000265122 -0.0230247 -2.31382e-06)
(0.000286398 -0.0235746 -2.4995e-06)
(0.000308231 -0.0240797 -2.69004e-06)
(0.000330474 -0.0245379 -2.88418e-06)
(0.000352952 -0.0249472 -3.08035e-06)
(0.000375457 -0.0253052 -3.27675e-06)
(0.000397748 -0.0256098 -3.4713e-06)
(0.000419553 -0.0258584 -3.66161e-06)
(0.000440565 -0.0260487 -3.845e-06)
(0.000460449 -0.026178 -4.01856e-06)
(0.000478841 -0.0262436 -4.1791e-06)
(0.000495351 -0.0262429 -4.32322e-06)
(0.000509568 -0.0261728 -4.44735e-06)
(-6.23153e-08 -0.000136005 5.50575e-10)
(6.74273e-07 -0.000657263 -5.87328e-09)
(2.2338e-06 -0.00142901 -1.94768e-08)
(4.60402e-06 -0.002327 -4.01685e-08)
(7.88003e-06 -0.00329857 -6.87817e-08)
(1.16299e-05 -0.00431435 -1.01528e-07)
(1.62447e-05 -0.00535456 -1.41799e-07)
(2.13021e-05 -0.00640732 -1.8594e-07)
(2.64175e-05 -0.00746331 -2.30593e-07)
(3.24145e-05 -0.00851591 -2.82933e-07)
(3.91758e-05 -0.00956019 -3.41941e-07)
(4.67021e-05 -0.0105921 -4.07623e-07)
(5.51321e-05 -0.0116084 -4.81196e-07)
(6.42937e-05 -0.0126064 -5.61148e-07)
(7.43436e-05 -0.0135836 -6.4886e-07)
(8.52901e-05 -0.014538 -7.44393e-07)
(9.70431e-05 -0.0154678 -8.46966e-07)
(0.000109819 -0.0163712 -9.58461e-07)
(0.00012357 -0.0172466 -1.07847e-06)
(0.000138107 -0.0180925 -1.20534e-06)
(0.000153557 -0.0189072 -1.34017e-06)
(0.000170026 -0.0196892 -1.4839e-06)
(0.000187512 -0.0204369 -1.6365e-06)
(0.000205983 -0.0211486 -1.7977e-06)
(0.000225377 -0.0218227 -1.96696e-06)
(0.000245629 -0.0224575 -2.14371e-06)
(0.000266662 -0.0230512 -2.32727e-06)
(0.000288382 -0.0236019 -2.51683e-06)
(0.000310666 -0.0241076 -2.71131e-06)
(0.000333366 -0.0245663 -2.90943e-06)
(0.000356301 -0.0249759 -3.10959e-06)
(0.000379258 -0.0253342 -3.30994e-06)
(0.000401991 -0.0256387 -3.50835e-06)
(0.000424218 -0.0258872 -3.70235e-06)
(0.000445629 -0.026077 -3.88923e-06)
(0.000465878 -0.0262057 -4.06597e-06)
(0.000484598 -0.0262704 -4.22937e-06)
(0.000501387 -0.0262685 -4.37593e-06)
(0.00051583 -0.0261971 -4.50203e-06)
(-6.79067e-08 -0.000139018 5.99193e-10)
(7.44471e-07 -0.000664563 -6.48257e-09)
(2.15918e-06 -0.00143943 -1.88275e-08)
(4.9226e-06 -0.00233971 -4.29483e-08)
(8.11329e-06 -0.00331292 -7.0793e-08)
(1.21569e-05 -0.00433001 -1.06112e-07)
(1.67692e-05 -0.00537162 -1.46366e-07)
(2.1781e-05 -0.00642592 -1.90108e-07)
(2.72697e-05 -0.0074831 -2.38016e-07)
(3.33741e-05 -0.00853673 -2.913e-07)
(3.99828e-05 -0.00958195 -3.48981e-07)
(4.74708e-05 -0.0106147 -4.14329e-07)
(5.57916e-05 -0.0116317 -4.86949e-07)
(6.49079e-05 -0.0126303 -5.6651e-07)
(7.49284e-05 -0.0136082 -6.53962e-07)
(8.57985e-05 -0.0145633 -7.48829e-07)
(9.75425e-05 -0.0154937 -8.51321e-07)
(0.000110293 -0.0163977 -9.62602e-07)
(0.00012407 -0.0172737 -1.08283e-06)
(0.000138697 -0.0181201 -1.21048e-06)
(0.000154305 -0.0189353 -1.3467e-06)
(0.000171023 -0.0197178 -1.4926e-06)
(0.000188795 -0.0204658 -1.64769e-06)
(0.000207589 -0.0211778 -1.81171e-06)
(0.000227354 -0.0218522 -1.9842e-06)
(0.000248026 -0.0224872 -2.16461e-06)
(0.000269521 -0.023081 -2.3522e-06)
(0.000291742 -0.0236316 -2.54613e-06)
(0.000314557 -0.0241372 -2.74525e-06)
(0.000337814 -0.0245957 -2.94822e-06)
(0.000361322 -0.0250049 -3.15339e-06)
(0.00038486 -0.0253626 -3.35882e-06)
(0.000408173 -0.0256664 -3.56229e-06)
(0.000430967 -0.025914 -3.76124e-06)
(0.000452918 -0.0261027 -3.95283e-06)
(0.000473673 -0.0262301 -4.134e-06)
(0.00049285 -0.0262934 -4.30139e-06)
(0.000510037 -0.0262898 -4.45142e-06)
(0.000524802 -0.0262166 -4.58035e-06)
(-4.6797e-08 -0.000137917 4.20873e-10)
(5.14515e-07 -0.000663797 -4.46777e-09)
(1.38271e-06 -0.00143984 -1.20445e-08)
(3.35247e-06 -0.00234171 -2.92485e-08)
(6.02324e-06 -0.00331645 -5.25442e-08)
(9.52654e-06 -0.00433492 -8.31386e-08)
(1.36923e-05 -0.00537809 -1.19502e-07)
(1.85479e-05 -0.00643373 -1.6188e-07)
(2.42577e-05 -0.00749226 -2.11713e-07)
(3.03605e-05 -0.0085474 -2.6498e-07)
(3.6898e-05 -0.00959401 -3.22045e-07)
(4.44595e-05 -0.0106281 -3.88034e-07)
(5.28634e-05 -0.0116464 -4.6138e-07)
(6.21591e-05 -0.0126464 -5.42508e-07)
(7.24319e-05 -0.0136256 -6.32163e-07)
(8.35758e-05 -0.014582 -7.2942e-07)
(9.5703e-05 -0.0155137 -8.3526e-07)
(0.000108806 -0.016419 -9.49614e-07)
(0.000122938 -0.0172962 -1.07295e-06)
(0.000138052 -0.0181438 -1.20485e-06)
(0.000154184 -0.0189602 -1.34564e-06)
(0.000171443 -0.0197436 -1.49626e-06)
(0.000189784 -0.0204926 -1.65633e-06)
(0.000209178 -0.0212055 -1.82558e-06)
(0.000229571 -0.0218806 -2.00355e-06)
(0.000250904 -0.0225162 -2.18972e-06)
(0.00027309 -0.0231104 -2.38335e-06)
(0.000296031 -0.0236614 -2.58356e-06)
(0.00031959 -0.0241671 -2.78916e-06)
(0.000343608 -0.0246255 -2.99879e-06)
(0.00036789 -0.0250345 -3.21071e-06)
(0.000392204 -0.0253917 -3.42291e-06)
(0.000416283 -0.0256949 -3.63307e-06)
(0.000439821 -0.0259416 -3.83851e-06)
(0.000462482 -0.0261292 -4.0363e-06)
(0.000483896 -0.0262553 -4.22321e-06)
(0.000503669 -0.026317 -4.39581e-06)
(0.000521374 -0.0263117 -4.55036e-06)
(0.000536564 -0.0262365 -4.683e-06)
(-1.50509e-07 -0.000139804 1.31575e-09)
(7.45507e-07 -0.000668634 -6.50242e-09)
(1.61301e-06 -0.0014471 -1.40139e-08)
(3.91047e-06 -0.00235096 -3.40962e-08)
(6.30517e-06 -0.00332737 -5.50205e-08)
(9.99375e-06 -0.00434727 -8.72035e-08)
(1.37384e-05 -0.00539171 -1.19897e-07)
(1.87321e-05 -0.00644845 -1.63486e-07)
(2.43683e-05 -0.00750816 -2.12672e-07)
(3.04462e-05 -0.00856453 -2.65716e-07)
(3.70148e-05 -0.00961224 -3.2305e-07)
(4.45208e-05 -0.0106473 -3.88562e-07)
(5.28153e-05 -0.0116666 -4.60952e-07)
(6.20678e-05 -0.0126674 -5.41704e-07)
(7.22528e-05 -0.0136474 -6.30592e-07)
(8.33769e-05 -0.0146047 -7.27678e-07)
(9.5588e-05 -0.0155373 -8.34248e-07)
(0.00010881 -0.0164435 -9.49641e-07)
(0.000123125 -0.0173216 -1.07457e-06)
(0.000138529 -0.01817 -1.209e-06)
(0.00015504 -0.0189872 -1.3531e-06)
(0.000172768 -0.0197714 -1.50781e-06)
(0.000191664 -0.0205211 -1.67272e-06)
(0.000211682 -0.0212347 -1.84742e-06)
(0.000232761 -0.0219104 -2.03138e-06)
(0.000254838 -0.0225464 -2.22405e-06)
(0.000277821 -0.023141 -2.42463e-06)
(0.000301603 -0.0236922 -2.63218e-06)
(0.000326042 -0.024198 -2.84547e-06)
(0.00035097 -0.0246563 -3.06303e-06)
(0.000376179 -0.025065 -3.28305e-06)
(0.000401426 -0.0254218 -3.50339e-06)
(0.00042643 -0.0257243 -3.72162e-06)
(0.000450868 -0.02597 -3.93492e-06)
(0.000474387 -0.0261566 -4.1402e-06)
(0.000496602 -0.0262813 -4.3341e-06)
(0.000517098 -0.0263415 -4.51301e-06)
(0.000535431 -0.0263344 -4.67305e-06)
(0.000551133 -0.0262572 -4.81015e-06)
(-1.69808e-07 -0.00013922 1.48526e-09)
(5.07079e-07 -0.00066839 -4.41938e-09)
(1.02009e-06 -0.00144816 -8.82707e-09)
(2.76434e-06 -0.00235337 -2.40809e-08)
(4.87685e-06 -0.00333151 -4.25538e-08)
(8.206e-06 -0.00435284 -7.16025e-08)
(1.15368e-05 -0.00539899 -1.00665e-07)
(1.63408e-05 -0.00645695 -1.42604e-07)
(2.1789e-05 -0.0075184 -1.90148e-07)
(2.79116e-05 -0.00857622 -2.43581e-07)
(3.46932e-05 -0.00962551 -3.02775e-07)
(4.23993e-05 -0.010662 -3.70032e-07)
(5.08143e-05 -0.0116828 -4.43475e-07)
(6.02649e-05 -0.0126851 -5.25956e-07)
(7.06588e-05 -0.0136666 -6.1667e-07)
(8.20545e-05 -0.0146252 -7.16126e-07)
(9.45985e-05 -0.0155592 -8.25603e-07)
(0.000108207 -0.0164666 -9.44364e-07)
(0.000122936 -0.017346 -1.07291e-06)
(0.000138883 -0.0181957 -1.21208e-06)
(0.000156042 -0.019014 -1.36183e-06)
(0.00017445 -0.0197993 -1.52248e-06)
(0.000194081 -0.02055 -1.6938e-06)
(0.000214893 -0.0212644 -1.87544e-06)
(0.000236824 -0.0219408 -2.06683e-06)
(0.000259809 -0.0225775 -2.26742e-06)
(0.000283749 -0.0231725 -2.47635e-06)
(0.000308534 -0.023724 -2.69266e-06)
(0.000334013 -0.0242299 -2.91502e-06)
(0.000360009 -0.0246882 -3.14191e-06)
(0.000386303 -0.0250966 -3.3714e-06)
(0.000412641 -0.0254529 -3.60126e-06)
(0.000438724 -0.0257547 -3.8289e-06)
(0.000464211 -0.0259995 -4.05136e-06)
(0.00048873 -0.0261849 -4.26537e-06)
(0.000511874 -0.0263082 -4.46738e-06)
(0.000533212 -0.0263667 -4.65364e-06)
(0.000552272 -0.0263578 -4.82003e-06)
(0.00056857 -0.0262785 -4.96233e-06)
(-1.53747e-07 -0.000140419 1.34712e-09)
(6.70799e-07 -0.000671642 -5.85451e-09)
(1.2008e-06 -0.00145333 -1.04726e-08)
(2.98803e-06 -0.00236024 -2.60905e-08)
(4.60559e-06 -0.00333991 -4.01373e-08)
(8.55773e-06 -0.00436265 -7.46795e-08)
(1.12986e-05 -0.00541013 -9.85743e-08)
(1.63334e-05 -0.00646934 -1.42523e-07)
(2.12231e-05 -0.00753205 -1.8521e-07)
(2.76464e-05 -0.00859111 -2.41263e-07)
(3.44368e-05 -0.00964168 -3.00528e-07)
(4.22176e-05 -0.0106794 -3.68435e-07)
(5.06085e-05 -0.0117015 -4.41669e-07)
(6.01413e-05 -0.0127049 -5.24868e-07)
(7.05761e-05 -0.0136876 -6.15936e-07)
(8.20727e-05 -0.0146474 -7.16274e-07)
(9.47862e-05 -0.0155825 -8.2723e-07)
(0.000108646 -0.0164912 -9.48186e-07)
(0.000123756 -0.0173717 -1.08006e-06)
(0.000140181 -0.0182225 -1.2234e-06)
(0.000157906 -0.0190418 -1.37809e-06)
(0.000176999 -0.0198282 -1.54472e-06)
(0.000197423 -0.0205798 -1.72296e-06)
(0.000219115 -0.0212951 -1.91227e-06)
(0.000242005 -0.0219723 -2.11203e-06)
(0.000266016 -0.0226096 -2.32159e-06)
(0.000291046 -0.0232051 -2.54003e-06)
(0.000316974 -0.0237569 -2.76631e-06)
(0.000343639 -0.024263 -2.99902e-06)
(0.000370854 -0.0247212 -3.23655e-06)
(0.000398386 -0.0251294 -3.47684e-06)
(0.000425966 -0.0254852 -3.71754e-06)
(0.000453275 -0.0257863 -3.95589e-06)
(0.000479954 -0.0260302 -4.18875e-06)
(0.000505608 -0.0262143 -4.41266e-06)
(0.000529807 -0.0263362 -4.62389e-06)
(0.000552094 -0.026393 -4.81843e-06)
(0.000571977 -0.026382 -4.992e-06)
(0.000588941 -0.0263005 -5.14012e-06)
(-1.54456e-07 -0.000140126 1.35386e-09)
(5.44524e-07 -0.000671857 -4.75554e-09)
(7.61234e-07 -0.0014548 -6.62147e-09)
(2.27462e-06 -0.0023632 -1.98348e-08)
(3.77477e-06 -0.00334414 -3.2861e-08)
(7.62116e-06 -0.00436835 -6.65191e-08)
(1.00101e-05 -0.00541738 -8.73286e-08)
(1.49233e-05 -0.00647808 -1.30184e-07)
(1.94943e-05 -0.00754247 -1.7009e-07)
(2.59308e-05 -0.00860297 -2.26295e-07)
(3.29283e-05 -0.00965524 -2.87345e-07)
(4.10104e-05 -0.0106946 -3.5789e-07)
(4.95803e-05 -0.0117183 -4.32682e-07)
(5.93858e-05 -0.0127233 -5.18261e-07)
(7.00202e-05 -0.0137076 -6.11074e-07)
(8.18229e-05 -0.014669 -7.14083e-07)
(9.49014e-05 -0.0156056 -8.28225e-07)
(0.000109234 -0.0165157 -9.53305e-07)
(0.000124866 -0.0173977 -1.08974e-06)
(0.000141936 -0.0182498 -1.2387e-06)
(0.00016043 -0.0190704 -1.40011e-06)
(0.000180363 -0.0198579 -1.57406e-06)
(0.000201706 -0.0206106 -1.76033e-06)
(0.000224404 -0.0213269 -1.95842e-06)
(0.000248383 -0.022005 -2.16769e-06)
(0.00027356 -0.022643 -2.38741e-06)
(0.000299822 -0.0232391 -2.61661e-06)
(0.000327042 -0.0237913 -2.85416e-06)
(0.000355043 -0.0242975 -3.09854e-06)
(0.000383629 -0.0247557 -3.34803e-06)
(0.00041255 -0.0251636 -3.60045e-06)
(0.00044152 -0.0255189 -3.85328e-06)
(0.000470201 -0.0258192 -4.1036e-06)
(0.00049821 -0.0260621 -4.34807e-06)
(0.000525128 -0.026245 -4.58302e-06)
(0.000550498 -0.0263653 -4.80446e-06)
(0.00057384 -0.0264203 -5.00821e-06)
(0.00059463 -0.0264073 -5.1897e-06)
(0.00061233 -0.0263235 -5.34425e-06)
(-1.37695e-07 -0.000140927 1.20912e-09)
(5.30413e-07 -0.000674154 -4.61866e-09)
(9.09628e-07 -0.00145863 -7.92566e-09)
(2.43137e-06 -0.00236846 -2.12295e-08)
(4.39703e-06 -0.00335085 -3.84197e-08)
(7.19321e-06 -0.00437644 -6.27675e-08)
(9.70062e-06 -0.00542691 -8.45939e-08)
(1.44011e-05 -0.00648896 -1.25689e-07)
(1.88878e-05 -0.00755469 -1.64811e-07)
(2.55762e-05 -0.00861656 -2.23153e-07)
(3.2493e-05 -0.00967024 -2.83539e-07)
(4.08597e-05 -0.010711 -3.56557e-07)
(4.95882e-05 -0.0117362 -4.32742e-07)
(5.96097e-05 -0.0127427 -5.20201e-07)
(7.04343e-05 -0.0137285 -6.14675e-07)
(8.24859e-05 -0.0146914 -7.19858e-07)
(9.59213e-05 -0.0156296 -8.37115e-07)
(0.000110734 -0.0165412 -9.66391e-07)
(0.000126952 -0.0174246 -1.10793e-06)
(0.000144678 -0.018278 -1.26263e-06)
(0.000163925 -0.0191 -1.4306e-06)
(0.000184746 -0.0198888 -1.6123e-06)
(0.0002071 -0.0206427 -1.80739e-06)
(0.000230911 -0.02136 -2.0152e-06)
(0.000256101 -0.022039 -2.23503e-06)
(0.000282574 -0.0226778 -2.46607e-06)
(0.000310208 -0.0232745 -2.70724e-06)
(0.000338862 -0.0238271 -2.95731e-06)
(0.000368349 -0.0243336 -3.21465e-06)
(0.000398455 -0.0247917 -3.47741e-06)
(0.000428915 -0.0251994 -3.74326e-06)
(0.000459423 -0.0255542 -4.00952e-06)
(0.000489618 -0.0258537 -4.27305e-06)
(0.000519092 -0.0260955 -4.53031e-06)
(0.0005474 -0.0262771 -4.77738e-06)
(0.000574056 -0.0263957 -5.01006e-06)
(0.00059855 -0.0264488 -5.22387e-06)
(0.00062033 -0.0264336 -5.414e-06)
(0.000638825 -0.0263473 -5.57549e-06)
(-1.31421e-07 -0.000140811 1.15183e-09)
(4.48695e-07 -0.000674602 -3.91236e-09)
(6.80711e-07 -0.00146026 -5.92326e-09)
(1.96294e-06 -0.00237132 -1.71189e-08)
(3.85731e-06 -0.00335523 -3.37065e-08)
(6.65597e-06 -0.00438251 -5.80744e-08)
(9.0773e-06 -0.00543416 -7.90768e-08)
(1.38377e-05 -0.00649782 -1.20766e-07)
(1.79502e-05 -0.00756512 -1.56676e-07)
(2.47152e-05 -0.00862839 -2.15607e-07)
(3.18095e-05 -0.00968396 -2.77538e-07)
(4.04566e-05 -0.0107264 -3.53047e-07)
(4.93839e-05 -0.0117534 -4.30938e-07)
(5.97787e-05 -0.0127617 -5.21668e-07)
(7.08912e-05 -0.0137493 -6.18649e-07)
(8.33684e-05 -0.014714 -7.27547e-07)
(9.72863e-05 -0.0156539 -8.49017e-07)
(0.000112716 -0.0165671 -9.83677e-07)
(0.000129612 -0.0174522 -1.13113e-06)
(0.000148157 -0.0183072 -1.29298e-06)
(0.000168355 -0.0191307 -1.46925e-06)
(0.000190216 -0.0199208 -1.66003e-06)
(0.000213702 -0.020676 -1.865e-06)
(0.000238747 -0.0213945 -2.08357e-06)
(0.000265271 -0.0220745 -2.31505e-06)
(0.000293173 -0.0227141 -2.55855e-06)
(0.000322319 -0.0233115 -2.81292e-06)
(0.000352555 -0.0238646 -3.0768e-06)
(0.000383677 -0.0243713 -3.34841e-06)
(0.000415455 -0.0248295 -3.62577e-06)
(0.000447605 -0.0252369 -3.90636e-06)
(0.000479797 -0.0255912 -4.18732e-06)
(0.000511648 -0.0258899 -4.46531e-06)
(0.000542721 -0.0261306 -4.73651e-06)
(0.000572542 -0.0263107 -4.9968e-06)
(0.000600593 -0.0264276 -5.24166e-06)
(0.000626335 -0.0264786 -5.46636e-06)
(0.00064918 -0.0264611 -5.66579e-06)
(0.000668527 -0.0263723 -5.83473e-06)
(-1.03682e-07 -0.000141385 9.09709e-10)
(3.79694e-07 -0.000676319 -3.30522e-09)
(5.98966e-07 -0.00146325 -5.23544e-09)
(2.16213e-06 -0.00237564 -1.88744e-08)
(4.19124e-06 -0.00336094 -3.6537e-08)
(6.64422e-06 -0.00438968 -5.80206e-08)
(9.40333e-06 -0.00544279 -8.22222e-08)
(1.31372e-05 -0.00650787 -1.14554e-07)
(1.78229e-05 -0.00757661 -1.55431e-07)
(2.43037e-05 -0.00864138 -2.12149e-07)
(3.13806e-05 -0.00969851 -2.73832e-07)
(4.05351e-05 -0.0107426 -3.53694e-07)
(4.95912e-05 -0.0117714 -4.32755e-07)
(6.04913e-05 -0.0127815 -5.27871e-07)
(7.19952e-05 -0.0137709 -6.28276e-07)
(8.49568e-05 -0.0147374 -7.41398e-07)
(9.94418e-05 -0.0156791 -8.67817e-07)
(0.00011554 -0.0165941 -1.00831e-06)
(0.000133226 -0.0174809 -1.16266e-06)
(0.000152672 -0.0183376 -1.33237e-06)
(0.000173876 -0.0191626 -1.51741e-06)
(0.000196862 -0.0199543 -1.71802e-06)
(0.000221595 -0.0207109 -1.93387e-06)
(0.000248 -0.0214306 -2.16431e-06)
(0.000275995 -0.0221117 -2.40863e-06)
(0.000305467 -0.0227523 -2.66584e-06)
(0.000336272 -0.0233504 -2.93468e-06)
(0.00036824 -0.023904 -3.21367e-06)
(0.00040115 -0.024411 -3.5009e-06)
(0.000434755 -0.0248692 -3.79419e-06)
(0.000468745 -0.0252763 -4.09084e-06)
(0.00050277 -0.02563 -4.3878e-06)
(0.000536416 -0.0259279 -4.68146e-06)
(0.000569221 -0.0261674 -4.96779e-06)
(0.000600675 -0.026346 -5.24233e-06)
(0.000630231 -0.0264611 -5.50032e-06)
(0.00065731 -0.0265099 -5.7367e-06)
(0.000681295 -0.02649 -5.94607e-06)
(0.000701544 -0.0263984 -6.12289e-06)
(-8.82606e-08 -0.000141362 7.76635e-10)
(3.82424e-07 -0.00067697 -3.33547e-09)
(5.24436e-07 -0.00146491 -4.57961e-09)
(1.83129e-06 -0.00237852 -1.59849e-08)
(3.73117e-06 -0.00336524 -3.25439e-08)
(6.23795e-06 -0.00439538 -5.44687e-08)
(9.23669e-06 -0.0054502 -8.069e-08)
(1.31665e-05 -0.00651706 -1.14825e-07)
(1.75927e-05 -0.00758727 -1.53481e-07)
(2.41384e-05 -0.00865403 -2.10665e-07)
(3.13352e-05 -0.00971269 -2.73407e-07)
(4.07368e-05 -0.0107588 -3.55463e-07)
(5.00958e-05 -0.0117894 -4.37141e-07)
(6.14815e-05 -0.0128015 -5.36507e-07)
(7.34528e-05 -0.0137929 -6.40986e-07)
(8.70171e-05 -0.0147613 -7.59369e-07)
(0.000102152 -0.015705 -8.91458e-07)
(0.000119052 -0.0166221 -1.03895e-06)
(0.000137638 -0.0175107 -1.20115e-06)
(0.000158136 -0.0183693 -1.38004e-06)
(0.000180509 -0.0191961 -1.57529e-06)
(0.000204769 -0.0199894 -1.78702e-06)
(0.000230885 -0.0207475 -2.01493e-06)
(0.000258789 -0.0214686 -2.25845e-06)
(0.000288393 -0.0221509 -2.51682e-06)
(0.000319579 -0.0227925 -2.78898e-06)
(0.000352191 -0.0233914 -3.07359e-06)
(0.000386043 -0.0239456 -3.36903e-06)
(0.000420897 -0.0244529 -3.67322e-06)
(0.000456481 -0.0249111 -3.98379e-06)
(0.000492466 -0.0253179 -4.29785e-06)
(0.000528471 -0.025671 -4.61209e-06)
(0.000564056 -0.0259679 -4.92268e-06)
(0.000598724 -0.0262062 -5.22526e-06)
(0.000631933 -0.0263831 -5.51513e-06)
(0.000663097 -0.0264963 -5.78715e-06)
(0.000691603 -0.0265429 -6.03599e-06)
(0.000716793 -0.0265202 -6.25589e-06)
(0.000737993 -0.0264257 -6.44101e-06)
(-7.03586e-08 -0.000141789 6.19811e-10)
(3.64174e-07 -0.000678336 -3.17324e-09)
(6.32518e-07 -0.00146742 -5.5206e-09)
(1.93727e-06 -0.00238231 -1.69011e-08)
(4.00091e-06 -0.00337041 -3.49213e-08)
(6.23655e-06 -0.00440204 -5.44578e-08)
(9.4558e-06 -0.00545838 -8.25862e-08)
(1.31633e-05 -0.00652685 -1.14818e-07)
(1.78398e-05 -0.00759875 -1.55647e-07)
(2.44251e-05 -0.00866719 -2.13142e-07)
(3.16089e-05 -0.00972761 -2.758e-07)
(4.13274e-05 -0.0107756 -3.6061e-07)
(5.10801e-05 -0.0118082 -4.45726e-07)
(6.29485e-05 -0.0128223 -5.493e-07)
(7.55046e-05 -0.0138158 -6.58883e-07)
(8.97178e-05 -0.0147864 -7.82929e-07)
(0.000105624 -0.0157322 -9.21746e-07)
(0.00012343 -0.0166513 -1.07715e-06)
(0.000143066 -0.017542 -1.24851e-06)
(0.000164725 -0.0184025 -1.43753e-06)
(0.00018836 -0.0192312 -1.6438e-06)
(0.000214014 -0.0200262 -1.86768e-06)
(0.000241651 -0.020786 -2.10887e-06)
(0.000271198 -0.0215086 -2.36674e-06)
(0.000302563 -0.0221922 -2.64046e-06)
(0.000335616 -0.0228349 -2.92892e-06)
(0.000370191 -0.0234346 -3.23067e-06)
(0.000406087 -0.0239894 -3.54395e-06)
(0.000443044 -0.024497 -3.86648e-06)
(0.000480768 -0.0249553 -4.19574e-06)
(0.000518902 -0.0253618 -4.52856e-06)
(0.000557039 -0.0257143 -4.8614e-06)
(0.000594704 -0.0260102 -5.19015e-06)
(0.000631368 -0.0262471 -5.51015e-06)
(0.00066645 -0.0264223 -5.81636e-06)
(0.000699327 -0.0265333 -6.10334e-06)
(0.000729344 -0.0265775 -6.36537e-06)
(0.000755807 -0.0265521 -6.59639e-06)
(0.000777997 -0.0264544 -6.79016e-06)
(-7.44033e-08 -0.000141855 6.53738e-10)
(3.50142e-07 -0.000679038 -3.05539e-09)
(6.24614e-07 -0.00146926 -5.45358e-09)
(1.73598e-06 -0.00238538 -1.5146e-08)
(3.60571e-06 -0.00337494 -3.14713e-08)
(5.96038e-06 -0.00440805 -5.20509e-08)
(9.46178e-06 -0.00546603 -8.26449e-08)
(1.33962e-05 -0.00653631 -1.16846e-07)
(1.81327e-05 -0.00761003 -1.58191e-07)
(2.48466e-05 -0.00868044 -2.16826e-07)
(3.21898e-05 -0.00974278 -2.80866e-07)
(4.21922e-05 -0.0107929 -3.68156e-07)
(5.23585e-05 -0.0118275 -4.5688e-07)
(6.47806e-05 -0.0128439 -5.65284e-07)
(7.79677e-05 -0.0138396 -6.80371e-07)
(9.29732e-05 -0.0148125 -8.1133e-07)
(0.000109778 -0.0157605 -9.5799e-07)
(0.000128628 -0.0166819 -1.1225e-06)
(0.000149421 -0.0175748 -1.30396e-06)
(0.00017239 -0.0184375 -1.50442e-06)
(0.000197473 -0.0192682 -1.72331e-06)
(0.000224688 -0.0200651 -1.96082e-06)
(0.000254002 -0.0208266 -2.21665e-06)
(0.000285348 -0.0215508 -2.49021e-06)
(0.000318628 -0.0222358 -2.78065e-06)
(0.000353706 -0.0228797 -3.08679e-06)
(0.000390406 -0.0234804 -3.40708e-06)
(0.000428507 -0.0240358 -3.7396e-06)
(0.00046773 -0.0245438 -4.08191e-06)
(0.000507754 -0.025002 -4.43124e-06)
(0.000548197 -0.0254082 -4.78421e-06)
(0.000588617 -0.02576 -5.13698e-06)
(0.000628508 -0.0260549 -5.48515e-06)
(0.000667298 -0.0262903 -5.82372e-06)
(0.000704373 -0.0264637 -6.14733e-06)
(0.000739063 -0.0265724 -6.45014e-06)
(0.000770677 -0.026614 -6.7261e-06)
(0.000798472 -0.0265856 -6.96875e-06)
(0.000821693 -0.0264846 -7.17152e-06)
(-5.19932e-08 -0.000142189 4.57041e-10)
(2.8094e-07 -0.000680225 -2.44773e-09)
(5.57224e-07 -0.00147157 -4.87392e-09)
(1.95359e-06 -0.00238898 -1.70496e-08)
(3.9065e-06 -0.00338 -3.40809e-08)
(6.35965e-06 -0.00441465 -5.55265e-08)
(9.90177e-06 -0.00547431 -8.64837e-08)
(1.3782e-05 -0.00654642 -1.20212e-07)
(1.881e-05 -0.00762206 -1.64105e-07)
(2.57787e-05 -0.00869443 -2.24958e-07)
(3.32129e-05 -0.00975881 -2.89789e-07)
(4.35656e-05 -0.0108111 -3.80137e-07)
(5.41627e-05 -0.0118479 -4.72624e-07)
(6.71511e-05 -0.0128666 -5.85965e-07)
(8.11063e-05 -0.0138647 -7.07752e-07)
(9.69663e-05 -0.01484 -8.46173e-07)
(0.000114784 -0.0157905 -1.00168e-06)
(0.000134791 -0.0167142 -1.17627e-06)
(0.000156883 -0.0176094 -1.36907e-06)
(0.000181301 -0.0184744 -1.58216e-06)
(0.000207945 -0.0193072 -1.81469e-06)
(0.000236861 -0.0201062 -2.06704e-06)
(0.000268006 -0.0208696 -2.33885e-06)
(0.000301314 -0.0215955 -2.62953e-06)
(0.000336676 -0.022282 -2.93815e-06)
(0.000373952 -0.0229271 -3.26346e-06)
(0.000412948 -0.0235288 -3.60379e-06)
(0.000453429 -0.0240849 -3.95708e-06)
(0.000495089 -0.0245933 -4.32067e-06)
(0.000537584 -0.0250515 -4.69156e-06)
(0.000580497 -0.0254574 -5.06609e-06)
(0.000623357 -0.0258084 -5.44016e-06)
(0.000665617 -0.0261021 -5.80901e-06)
(0.00070667 -0.026336 -6.16733e-06)
(0.000745854 -0.0265074 -6.50935e-06)
(0.00078246 -0.0266137 -6.82888e-06)
(0.000815749 -0.0266524 -7.11947e-06)
(0.000844936 -0.0266209 -7.37427e-06)
(0.000869219 -0.0265164 -7.58632e-06)
(-5.62547e-08 -0.000142327 4.94613e-10)
(3.02068e-07 -0.000681086 -2.63658e-09)
(6.29384e-07 -0.00147345 -5.50561e-09)
(1.87764e-06 -0.00239218 -1.63901e-08)
(3.70036e-06 -0.0033846 -3.22834e-08)
(6.29078e-06 -0.00442089 -5.49243e-08)
(1.00767e-05 -0.00548243 -8.80085e-08)
(1.42035e-05 -0.00655655 -1.23889e-07)
(1.95453e-05 -0.00763424 -1.70522e-07)
(2.68413e-05 -0.00870883 -2.3423e-07)
(3.45229e-05 -0.00977549 -3.01218e-07)
(4.52404e-05 -0.0108301 -3.9475e-07)
(5.63674e-05 -0.0118694 -4.91861e-07)
(7.00239e-05 -0.0128906 -6.11029e-07)
(8.48183e-05 -0.0138912 -7.40139e-07)
(0.000101677 -0.0148691 -8.87277e-07)
(0.00012064 -0.0158221 -1.05277e-06)
(0.000141942 -0.0167484 -1.23866e-06)
(0.000165459 -0.0176461 -1.4439e-06)
(0.000191459 -0.0185134 -1.6708e-06)
(0.00021984 -0.0193486 -1.91849e-06)
(0.000250623 -0.0201498 -2.18713e-06)
(0.000283771 -0.0209153 -2.47642e-06)
(0.000319211 -0.021643 -2.78571e-06)
(0.000356835 -0.0223311 -3.11406e-06)
(0.000396486 -0.0229775 -3.4601e-06)
(0.000437959 -0.0235803 -3.82206e-06)
(0.000480997 -0.0241371 -4.19766e-06)
(0.000525271 -0.0246458 -4.58406e-06)
(0.000570407 -0.0251041 -4.97801e-06)
(0.00061596 -0.0255095 -5.37558e-06)
(0.000661417 -0.0258597 -5.77231e-06)
(0.000706196 -0.0261522 -6.16315e-06)
(0.000749644 -0.0263843 -6.54238e-06)
(0.000791058 -0.0265536 -6.90386e-06)
(0.000829678 -0.0266574 -7.24097e-06)
(0.000864722 -0.0266931 -7.54688e-06)
(0.000895353 -0.0266581 -7.81429e-06)
(0.000920729 -0.0265498 -8.03589e-06)
(-3.37127e-08 -0.000142602 2.96011e-10)
(2.77616e-07 -0.000682197 -2.42303e-09)
(6.39805e-07 -0.0014757 -5.59929e-09)
(2.01941e-06 -0.00239581 -1.76279e-08)
(4.06803e-06 -0.00338977 -3.55016e-08)
(6.56382e-06 -0.00442777 -5.73064e-08)
(1.04255e-05 -0.00549119 -9.10462e-08)
(1.4836e-05 -0.00656732 -1.29411e-07)
(2.06511e-05 -0.00764719 -1.80171e-07)
(2.82747e-05 -0.0087241 -2.46733e-07)
(3.62696e-05 -0.0097932 -3.16457e-07)
(4.74506e-05 -0.0108503 -4.14036e-07)
(5.91592e-05 -0.0118922 -5.1622e-07)
(7.35803e-05 -0.0129161 -6.4206e-07)
(8.93214e-05 -0.0139194 -7.7943e-07)
(0.000107267 -0.0149 -9.36051e-07)
(0.000127486 -0.0158557 -1.1125e-06)
(0.00015021 -0.0167847 -1.31081e-06)
(0.000175299 -0.017685 -1.52976e-06)
(0.000203016 -0.018555 -1.77165e-06)
(0.000233254 -0.0193926 -2.03554e-06)
(0.000266062 -0.0201962 -2.32185e-06)
(0.000301382 -0.0209637 -2.6301e-06)
(0.000339139 -0.0216934 -2.9596e-06)
(0.000379208 -0.0223832 -3.3093e-06)
(0.000421425 -0.0230311 -3.67774e-06)
(0.000465565 -0.0236349 -4.06296e-06)
(0.00051135 -0.0241925 -4.46254e-06)
(0.000558423 -0.0247016 -4.87338e-06)
(0.000606383 -0.0251598 -5.29197e-06)
(0.000654745 -0.0255648 -5.71406e-06)
(0.000702965 -0.0259141 -6.1349e-06)
(0.000750412 -0.0262052 -6.54903e-06)
(0.000796394 -0.0264355 -6.95037e-06)
(0.000840154 -0.0266025 -7.33233e-06)
(0.000880889 -0.0267035 -7.68791e-06)
(0.000917761 -0.026736 -8.00979e-06)
(0.000949891 -0.0266973 -8.29029e-06)
(0.000976381 -0.0265849 -8.52161e-06)
(-5.27022e-08 -0.000142807 4.58823e-10)
(2.92748e-07 -0.000683126 -2.56086e-09)
(7.59282e-07 -0.00147786 -6.64946e-09)
(2.0311e-06 -0.0023993 -1.77362e-08)
(3.99283e-06 -0.00339492 -3.48505e-08)
(6.66417e-06 -0.00443469 -5.81831e-08)
(1.08023e-05 -0.00550006 -9.43329e-08)
(1.55083e-05 -0.00657828 -1.35272e-07)
(2.17179e-05 -0.00766057 -1.89478e-07)
(2.97909e-05 -0.00874002 -2.59958e-07)
(3.82362e-05 -0.0098118 -3.33613e-07)
(5.00131e-05 -0.0108716 -4.36392e-07)
(6.24288e-05 -0.0119163 -5.44745e-07)
(7.77234e-05 -0.0129431 -6.78208e-07)
(9.45563e-05 -0.0139493 -8.25106e-07)
(0.000113736 -0.0149328 -9.92498e-07)
(0.000135354 -0.0158914 -1.18116e-06)
(0.000159622 -0.0168233 -1.39294e-06)
(0.000186384 -0.0177265 -1.62649e-06)
(0.000215971 -0.0185991 -1.88469e-06)
(0.000248266 -0.0194394 -2.16654e-06)
(0.000283284 -0.0202455 -2.47214e-06)
(0.000320964 -0.0210154 -2.80098e-06)
(0.000361223 -0.0217471 -3.15232e-06)
(0.000403933 -0.0224387 -3.52507e-06)
(0.000448912 -0.0230881 -3.91761e-06)
(0.000495917 -0.0236931 -4.32784e-06)
(0.000544642 -0.0242514 -4.75308e-06)
(0.000594708 -0.0247609 -5.19003e-06)
(0.000645675 -0.0252191 -5.63487e-06)
(0.000697028 -0.0256236 -6.08306e-06)
(0.000748174 -0.0259719 -6.52945e-06)
(0.000798447 -0.0262615 -6.96824e-06)
(0.000847097 -0.0264898 -7.39288e-06)
(0.000893326 -0.0266543 -7.79639e-06)
(0.000936271 -0.0267523 -8.17126e-06)
(0.000975049 -0.0267813 -8.50977e-06)
(0.00100872 -0.0267387 -8.80374e-06)
(0.00103635 -0.026622 -9.04499e-06)
(-1.45414e-08 -0.000143052 1.24144e-10)
(2.20895e-07 -0.000684218 -1.93222e-09)
(7.08916e-07 -0.00148017 -6.21366e-09)
(2.2903e-06 -0.00240316 -2.00006e-08)
(4.38663e-06 -0.00340049 -3.82762e-08)
(7.14383e-06 -0.00444219 -6.23711e-08)
(1.14732e-05 -0.00550968 -1.00194e-07)
(1.63432e-05 -0.00659018 -1.42555e-07)
(2.29602e-05 -0.00767494 -2.00312e-07)
(3.1545e-05 -0.00875706 -2.75264e-07)
(4.05738e-05 -0.00983163 -3.54008e-07)
(5.31125e-05 -0.0108943 -4.63432e-07)
(6.63077e-05 -0.011942 -5.78586e-07)
(8.2595e-05 -0.0129718 -7.20714e-07)
(0.000100627 -0.0139811 -8.78076e-07)
(0.000121148 -0.0149678 -1.05717e-06)
(0.000144313 -0.0159295 -1.25933e-06)
(0.000170268 -0.0168644 -1.48584e-06)
(0.000198868 -0.0177706 -1.73542e-06)
(0.000230483 -0.0186463 -2.01133e-06)
(0.000264973 -0.0194894 -2.31232e-06)
(0.000302369 -0.0202981 -2.63868e-06)
(0.000342596 -0.0210704 -2.98974e-06)
(0.000385561 -0.0218043 -3.36471e-06)
(0.00043112 -0.0224978 -3.76232e-06)
(0.000479074 -0.0231488 -4.18082e-06)