/*--------------------------------*- C++ -*----------------------------------*\
| =========                 |                                                 |
| \\      /  F ield         | OpenFOAM: The Open Source CFD Toolbox           |
|  \\    /   O peration     | Version:  v2012                                 |
|   \\  /    A nd           | Website:  www.openfoam.com                      |
|    \\/     M anipulation  |                                                 |
\*---------------------------------------------------------------------------*/
FoamFile
{
    version     2.0;
    format      ascii;
    class       volVectorField;
    location    "0.15";
    object      U;
}
// * * * * * * * * * * * * * * * * * * * * * * * * * * * * * * * * * * * * * //

dimensions      [0 1 -1 0 0 0 0];


internalField   nonuniform List<vector> 
2625
(
(-3.16197e-05 0.0013769 2.76297e-07)
(-3.06739e-05 0.000822449 2.68159e-07)
(8.77088e-05 0.000266495 -7.65209e-07)
(1.2029e-05 -7.61958e-05 -1.05054e-07)
(3.09874e-06 -0.000402186 -2.73193e-08)
(5.65883e-05 -0.000663281 -4.94024e-07)
(6.86088e-05 -0.000884996 -5.98946e-07)
(8.01345e-05 -0.00111683 -6.99434e-07)
(0.000114071 -0.00131563 -9.96182e-07)
(0.00016791 -0.00151465 -1.46703e-06)
(0.000167071 -0.00161924 -1.45895e-06)
(0.00013366 -0.00179991 -1.16627e-06)
(0.000160836 -0.00193686 -1.40331e-06)
(0.000165559 -0.00207662 -1.44465e-06)
(0.000180992 -0.0022104 -1.57943e-06)
(0.000201671 -0.00233117 -1.75996e-06)
(0.000221271 -0.00244436 -1.93106e-06)
(0.00024197 -0.00254899 -2.11172e-06)
(0.000261873 -0.00264775 -2.28546e-06)
(0.000284436 -0.00273658 -2.48241e-06)
(0.000307423 -0.00281689 -2.68307e-06)
(0.000329707 -0.00289032 -2.87758e-06)
(0.000352102 -0.00295538 -3.07307e-06)
(0.000373896 -0.00301238 -3.2633e-06)
(0.000395221 -0.00306086 -3.44944e-06)
(0.000415833 -0.00310136 -3.62936e-06)
(0.000435826 -0.00313337 -3.80387e-06)
(0.000454906 -0.00315706 -3.97042e-06)
(0.000472971 -0.00317218 -4.1281e-06)
(0.00048976 -0.00317879 -4.27466e-06)
(0.00050508 -0.00317672 -4.40839e-06)
(0.000518654 -0.00316606 -4.52688e-06)
(0.000530322 -0.00314695 -4.62876e-06)
(0.000540197 -0.0031196 -4.71499e-06)
(0.000548227 -0.00308344 -4.78512e-06)
(0.000553828 -0.00303843 -4.83404e-06)
(3.38096e-05 0.00133004 -2.95072e-07)
(-6.8083e-05 0.000783905 5.9539e-07)
(-0.000101588 0.000331986 8.87515e-07)
(0.000235684 0.000173238 -2.05683e-06)
(0.000166784 -0.000515263 -1.45617e-06)
(0.000164169 -0.000632847 -1.43276e-06)
(0.000114824 -0.00087911 -1.00225e-06)
(8.76859e-05 -0.00110699 -7.65249e-07)
(8.01236e-05 -0.00131778 -6.98959e-07)
(0.000129938 -0.00152601 -1.13508e-06)
(0.000146699 -0.00173893 -1.28098e-06)
(0.000122475 -0.00191535 -1.06883e-06)
(0.000158597 -0.00202305 -1.3839e-06)
(0.000168112 -0.00217423 -1.46712e-06)
(0.000191933 -0.00229826 -1.67501e-06)
(0.000215013 -0.00241909 -1.87652e-06)
(0.000235231 -0.00252749 -2.05302e-06)
(0.000254218 -0.00263061 -2.21874e-06)
(0.00027626 -0.00272512 -2.41114e-06)
(0.000299216 -0.00280909 -2.6115e-06)
(0.000319026 -0.00288639 -2.78436e-06)
(0.00033934 -0.002956 -2.96166e-06)
(0.000360437 -0.00301834 -3.1458e-06)
(0.00038162 -0.00307225 -3.3307e-06)
(0.000402338 -0.00311806 -3.51154e-06)
(0.000422509 -0.0031555 -3.68759e-06)
(0.000442114 -0.00318461 -3.85871e-06)
(0.000460876 -0.00320519 -4.02248e-06)
(0.00047864 -0.0032172 -4.17753e-06)
(0.000495188 -0.00322055 -4.32197e-06)
(0.000510328 -0.0032152 -4.45412e-06)
(0.000523735 -0.00320116 -4.57114e-06)
(0.00053519 -0.00317868 -4.67115e-06)
(0.000544873 -0.00314795 -4.7557e-06)
(0.000552745 -0.00310862 -4.82444e-06)
(0.00055806 -0.0030606 -4.87084e-06)
(6.27536e-06 0.00132881 -5.46277e-08)
(2.26378e-05 0.000707671 -1.97555e-07)
(0.000236776 0.000341738 -2.06654e-06)
(-0.000346775 0.000135989 3.03194e-06)
(-0.000526681 -0.000553491 4.60001e-06)
(0.000361549 -0.000662661 -3.15534e-06)
(2.19471e-05 -0.000915888 -1.9164e-07)
(3.58588e-05 -0.00115538 -3.13128e-07)
(5.75369e-05 -0.00138146 -5.02255e-07)
(8.42933e-05 -0.00156691 -7.35398e-07)
(0.000107858 -0.00176693 -9.41241e-07)
(0.000187561 -0.00193413 -1.63816e-06)
(0.000218592 -0.00203838 -1.90911e-06)
(0.000171268 -0.00218933 -1.49501e-06)
(0.000202312 -0.00231459 -1.76544e-06)
(0.000219059 -0.0024367 -1.91182e-06)
(0.000239023 -0.00254722 -2.08612e-06)
(0.000256201 -0.0026522 -2.23603e-06)
(0.000278855 -0.0027472 -2.4338e-06)
(0.000302003 -0.00283508 -2.63585e-06)
(0.000322644 -0.00291511 -2.816e-06)
(0.000343589 -0.00298648 -2.9988e-06)
(0.000365373 -0.00304972 -3.18895e-06)
(0.000387265 -0.0031042 -3.38003e-06)
(0.000408451 -0.00315027 -3.56496e-06)
(0.000428984 -0.00318759 -3.74418e-06)
(0.00044884 -0.00321636 -3.91748e-06)
(0.000467816 -0.00323628 -4.08311e-06)
(0.000485723 -0.00324744 -4.2394e-06)
(0.000502391 -0.00324969 -4.38489e-06)
(0.000517601 -0.00324302 -4.51765e-06)
(0.000530977 -0.00322743 -4.6344e-06)
(0.000542282 -0.00320312 -4.7331e-06)
(0.000551831 -0.00317022 -4.81648e-06)
(0.000559668 -0.00312877 -4.88491e-06)
(0.000564878 -0.00307876 -4.93039e-06)
(5.15639e-06 0.0012857 -4.52415e-08)
(7.6372e-06 0.000683457 -6.66809e-08)
(0.000254192 0.000179414 -2.21903e-06)
(-0.000210046 -0.000220061 1.83788e-06)
(-0.000320606 -0.000513234 2.80128e-06)
(0.000492124 -0.000740583 -4.29485e-06)
(5.74679e-05 -0.000968381 -5.01837e-07)
(2.70061e-05 -0.00117749 -2.35922e-07)
(5.58844e-05 -0.00147275 -4.8816e-07)
(0.000114424 -0.00164394 -9.9851e-07)
(0.000124176 -0.00179596 -1.08319e-06)
(0.000191978 -0.0019535 -1.67645e-06)
(0.000217679 -0.00208916 -1.90119e-06)
(0.000168143 -0.00223254 -1.46785e-06)
(0.000206093 -0.00236226 -1.79839e-06)
(0.000225055 -0.0024834 -1.96415e-06)
(0.00024588 -0.00259492 -2.14595e-06)
(0.000263795 -0.00269909 -2.30233e-06)
(0.000287196 -0.0027926 -2.50656e-06)
(0.00030937 -0.00287876 -2.70012e-06)
(0.000330045 -0.00295726 -2.88057e-06)
(0.000351446 -0.00302711 -3.06737e-06)
(0.000373507 -0.00308872 -3.25993e-06)
(0.000395715 -0.00314197 -3.45379e-06)
(0.000417189 -0.0031868 -3.64122e-06)
(0.000438011 -0.00322296 -3.82296e-06)
(0.000458112 -0.00325046 -3.99841e-06)
(0.000477337 -0.00326905 -4.1662e-06)
(0.000495436 -0.00327874 -4.32417e-06)
(0.000512271 -0.00327939 -4.47113e-06)
(0.000527593 -0.00327101 -4.60486e-06)
(0.000540996 -0.00325358 -4.72184e-06)
(0.000552225 -0.00322725 -4.81986e-06)
(0.000561619 -0.0031921 -4.90189e-06)
(0.000569274 -0.00314843 -4.96875e-06)
(0.000574286 -0.00309634 -5.0125e-06)
(5.894e-06 0.00127468 -5.16703e-08)
(1.37598e-05 0.000677 -1.20397e-07)
(0.000260159 0.000193314 -2.27065e-06)
(-0.000214029 -0.000245489 1.87269e-06)
(-0.000319491 -0.000699022 2.79149e-06)
(0.000494835 -0.00112949 -4.3183e-06)
(5.59381e-05 -0.00147132 -4.88174e-07)
(-7.71828e-05 -0.00162145 6.73096e-07)
(-4.49941e-05 -0.00178179 3.92216e-07)
(0.000163258 -0.00176697 -1.42517e-06)
(0.000157789 -0.00186478 -1.37669e-06)
(0.000218566 -0.00200501 -1.90855e-06)
(0.000238865 -0.00213701 -2.08602e-06)
(0.000172659 -0.00227516 -1.50719e-06)
(0.000209803 -0.00240407 -1.83074e-06)
(0.000227936 -0.00252427 -1.98926e-06)
(0.000248828 -0.0026364 -2.17169e-06)
(0.000268135 -0.0027398 -2.34021e-06)
(0.000293281 -0.0028336 -2.55967e-06)
(0.000315781 -0.00291946 -2.75604e-06)
(0.000337222 -0.00299736 -2.94317e-06)
(0.000359465 -0.00306651 -3.13732e-06)
(0.000382087 -0.0031272 -3.33479e-06)
(0.000404815 -0.00317948 -3.53319e-06)
(0.000426871 -0.00322318 -3.7257e-06)
(0.000448248 -0.00325819 -3.91229e-06)
(0.00046888 -0.00328441 -4.09238e-06)
(0.000488591 -0.00330166 -4.26442e-06)
(0.000507104 -0.00330988 -4.42601e-06)
(0.000524278 -0.00330896 -4.57592e-06)
(0.00053985 -0.0032989 -4.71184e-06)
(0.000553408 -0.0032797 -4.83016e-06)
(0.000564687 -0.00325143 -4.92863e-06)
(0.000573987 -0.00321419 -5.00983e-06)
(0.000581412 -0.00316834 -5.07468e-06)
(0.000586179 -0.00311411 -5.1163e-06)
(5.55672e-06 0.00124414 -4.85043e-08)
(5.83707e-06 0.000654119 -5.10232e-08)
(0.000211263 0.000201297 -1.84428e-06)
(-0.000362449 -0.00032837 3.16767e-06)
(-0.000485849 -0.000190546 4.24213e-06)
(0.000504697 -0.000534695 -4.4066e-06)
(0.000429689 -0.000704338 -3.75295e-06)
(0.00055465 -0.000306914 -4.84319e-06)
(0.000622455 -0.00188653 -5.4336e-06)
(0.000631104 -0.00158334 -5.50787e-06)
(0.000301858 -0.00181745 -2.63439e-06)
(0.000262436 -0.00199592 -2.29138e-06)
(0.000254625 -0.00216734 -2.22362e-06)
(0.000180286 -0.00231397 -1.5738e-06)
(0.000217491 -0.00244898 -1.89782e-06)
(0.000235759 -0.00257049 -2.05757e-06)
(0.00025703 -0.00268471 -2.24326e-06)
(0.000277438 -0.00278696 -2.42141e-06)
(0.000302791 -0.00288097 -2.64264e-06)
(0.000325285 -0.00296643 -2.83895e-06)
(0.000347165 -0.00304323 -3.02988e-06)
(0.000370182 -0.00311119 -3.23078e-06)
(0.000393377 -0.00317042 -3.43326e-06)
(0.000416631 -0.00322109 -3.63626e-06)
(0.00043918 -0.00326307 -3.83308e-06)
(0.000461012 -0.00329633 -4.02363e-06)
(0.000482092 -0.00332074 -4.20765e-06)
(0.000502243 -0.00333618 -4.38352e-06)
(0.000521153 -0.0033425 -4.54859e-06)
(0.000538661 -0.00333967 -4.70142e-06)
(0.000554488 -0.00332764 -4.83957e-06)
(0.000568219 -0.00330643 -4.95942e-06)
(0.000579589 -0.00327607 -5.05868e-06)
(0.000588817 -0.00323665 -5.13926e-06)
(0.000595991 -0.00318854 -5.20191e-06)
(0.000600475 -0.00313205 -5.24108e-06)
(5.79413e-06 0.00122763 -5.06342e-08)
(1.644e-05 0.000631834 -1.4343e-07)
(7.27824e-05 0.000173213 -6.34788e-07)
(0.000136448 -0.00036063 -1.19033e-06)
(0.000175565 -0.000223183 -1.53035e-06)
(8.28223e-05 -0.000569786 -7.19364e-07)
(0.000582878 -0.000741767 -5.08186e-06)
(-0.00141193 -0.00034462 1.23504e-05)
(-0.00161492 -0.0019247 1.4097e-05)
(0.000849261 -0.00162835 -7.41071e-06)
(1.58592e-05 -0.00186332 -1.38424e-07)
(0.000155699 -0.00204017 -1.35987e-06)
(0.000200101 -0.00221413 -1.74762e-06)
(0.000162388 -0.00236099 -1.4176e-06)
(0.000210686 -0.00249687 -1.83839e-06)
(0.000234843 -0.00261924 -2.04948e-06)
(0.000259587 -0.00273372 -2.26558e-06)
(0.000283997 -0.00283562 -2.47859e-06)
(0.000310417 -0.00292926 -2.70917e-06)
(0.000334729 -0.00301369 -2.92135e-06)
(0.000358197 -0.00308958 -3.12611e-06)
(0.000382371 -0.00315662 -3.33709e-06)
(0.000406438 -0.00321468 -3.54719e-06)
(0.000430367 -0.00326397 -3.75608e-06)
(0.000453544 -0.00330442 -3.95837e-06)
(0.000475942 -0.003336 -4.15388e-06)
(0.000497565 -0.00335861 -4.34263e-06)
(0.000518216 -0.00337213 -4.52288e-06)
(0.000537572 -0.00337646 -4.69184e-06)
(0.000555439 -0.00337155 -4.84782e-06)
(0.000571532 -0.00335737 -4.98831e-06)
(0.000585445 -0.00333396 -5.10975e-06)
(0.000596911 -0.00330133 -5.20984e-06)
(0.000606066 -0.00325959 -5.28978e-06)
(0.000612968 -0.00320911 -5.35007e-06)
(0.000617123 -0.0031502 -5.38637e-06)
(4.47684e-06 0.00119102 -3.91874e-08)
(7.02609e-06 0.000586773 -6.10612e-08)
(2.49662e-05 6.96218e-05 -2.17426e-07)
(-2.58772e-06 -0.000394098 2.31307e-08)
(1.67391e-05 -0.000826014 -1.45488e-07)
(9.32421e-05 -0.00126169 -8.12403e-07)
(0.000958647 -0.00160506 -8.36422e-06)
(-0.00077761 -0.00175859 6.81261e-06)
(-0.000954318 -0.00191788 8.33075e-06)
(0.00130949 -0.00191713 -1.14269e-05)
(0.000164357 -0.00201441 -1.43498e-06)
(0.000201352 -0.00214918 -1.7583e-06)
(0.00021459 -0.00229337 -1.87425e-06)
(0.000171013 -0.00243181 -1.49291e-06)
(0.000218599 -0.00255938 -1.90749e-06)
(0.000243608 -0.00267952 -2.12603e-06)
(0.00027007 -0.0027899 -2.35709e-06)
(0.000296142 -0.0028904 -2.58459e-06)
(0.000323321 -0.00298184 -2.82172e-06)
(0.000348009 -0.00306419 -3.03716e-06)
(0.00037168 -0.00313854 -3.24373e-06)
(0.000396765 -0.0032041 -3.46267e-06)
(0.000421746 -0.00326073 -3.68072e-06)
(0.000446437 -0.00330852 -3.89625e-06)
(0.000470278 -0.00334736 -4.10435e-06)
(0.000493276 -0.00337721 -4.30509e-06)
(0.000515446 -0.00339794 -4.49863e-06)
(0.000536608 -0.00340947 -4.68334e-06)
(0.000556415 -0.00341169 -4.85625e-06)
(0.000574647 -0.00340457 -5.01542e-06)
(0.000591008 -0.00338811 -5.15825e-06)
(0.000605096 -0.00336233 -5.28123e-06)
(0.00061664 -0.00332728 -5.38201e-06)
(0.000625701 -0.00328308 -5.46113e-06)
(0.000632307 -0.00323008 -5.51884e-06)
(0.000636078 -0.00316861 -5.5518e-06)
(2.90091e-05 0.00117772 -2.53733e-07)
(3.6724e-05 0.000533501 -3.20731e-07)
(-2.68536e-05 0.000120179 2.3498e-07)
(3.47698e-05 -0.000298016 -3.02633e-07)
(7.75065e-05 -0.00061402 -6.75783e-07)
(9.78221e-05 -0.000913641 -8.52501e-07)
(0.000957663 -0.00116753 -8.35527e-06)
(-0.000882004 -0.00140638 7.72323e-06)
(-0.00105955 -0.00171229 9.24937e-06)
(0.00135331 -0.00190984 -1.18099e-05)
(0.000208344 -0.00207198 -1.81901e-06)
(0.000224548 -0.00221765 -1.96128e-06)
(0.000227571 -0.00236203 -1.98769e-06)
(0.000183594 -0.00249179 -1.60282e-06)
(0.000231117 -0.00261561 -2.01683e-06)
(0.000254497 -0.00273394 -2.22116e-06)
(0.000282316 -0.00284367 -2.46397e-06)
(0.000309369 -0.00294357 -2.69999e-06)
(0.000337743 -0.00303456 -2.94754e-06)
(0.000363122 -0.00311631 -3.16902e-06)
(0.000387441 -0.00318946 -3.3812e-06)
(0.000413383 -0.00325358 -3.60761e-06)
(0.000439102 -0.00330872 -3.8321e-06)
(0.000464498 -0.00335493 -4.05379e-06)
(0.000489064 -0.00339205 -4.26822e-06)
(0.000512751 -0.00342005 -4.47498e-06)
(0.000535569 -0.00343879 -4.67418e-06)
(0.000557312 -0.00344821 -4.86397e-06)
(0.000577623 -0.00344821 -5.04129e-06)
(0.000596252 -0.00343876 -5.20393e-06)
(0.000612894 -0.00341986 -5.34923e-06)
(0.000627156 -0.00339158 -5.47374e-06)
(0.000638758 -0.00335395 -5.57502e-06)
(0.000647695 -0.00330714 -5.65308e-06)
(0.000653973 -0.00325148 -5.70793e-06)
(0.000657299 -0.00318733 -5.73701e-06)
(-1.5085e-05 0.00115237 1.31804e-07)
(6.60206e-05 0.000504025 -5.77181e-07)
(0.000116861 3.29787e-06 -1.02082e-06)
(-0.000113961 -0.000549437 9.94827e-07)
(-2.47631e-05 -0.000606653 2.17231e-07)
(3.10652e-05 -0.0010173 -2.70044e-07)
(0.000918586 -0.00124976 -8.01429e-06)
(-0.000930014 -0.00150336 8.14222e-06)
(-0.00107806 -0.00167764 9.41028e-06)
(0.00137051 -0.00188385 -1.19603e-05)
(0.00024839 -0.00205331 -2.16924e-06)
(0.000265683 -0.00218905 -2.32055e-06)
(0.000262093 -0.00240494 -2.28915e-06)
(0.000214337 -0.00252863 -1.87119e-06)
(0.00024991 -0.00266313 -2.18094e-06)
(0.000269172 -0.00278273 -2.34923e-06)
(0.000296757 -0.0028961 -2.59002e-06)
(0.000324926 -0.00299602 -2.83574e-06)
(0.000353873 -0.00308805 -3.08829e-06)
(0.000380192 -0.00317 -3.31791e-06)
(0.000405339 -0.00324216 -3.53734e-06)
(0.000432239 -0.00330496 -3.77209e-06)
(0.000458809 -0.00335863 -4.00402e-06)
(0.00048501 -0.0034032 -4.23272e-06)
(0.000510328 -0.00343855 -4.45373e-06)
(0.000534691 -0.0034646 -4.66639e-06)
(0.00055814 -0.00348125 -4.8711e-06)
(0.00058045 -0.00348843 -5.06585e-06)
(0.00060126 -0.00348607 -5.24753e-06)
(0.000620282 -0.00347415 -5.41361e-06)
(0.0006372 -0.00345268 -5.56134e-06)
(0.00065162 -0.00342174 -5.68722e-06)
(0.000663248 -0.00338139 -5.78875e-06)
(0.000672024 -0.00333182 -5.8654e-06)
(0.000677934 -0.00327336 -5.91705e-06)
(0.000680749 -0.00320638 -5.94167e-06)
(4.34794e-06 0.00112528 -3.82896e-08)
(2.29976e-06 0.000519454 -2.03464e-08)
(-0.000123945 -5.05814e-05 1.08217e-06)
(0.00030138 -0.000577426 -2.63338e-06)
(0.000456038 -0.000647531 -3.98209e-06)
(-0.000110926 -0.00107343 9.69437e-07)
(0.000977696 -0.00131328 -8.53045e-06)
(-0.000862203 -0.00156515 7.54949e-06)
(-0.00102172 -0.00171879 8.91883e-06)
(0.00134267 -0.00192817 -1.17169e-05)
(0.000253352 -0.00210276 -2.21188e-06)
(0.000184513 -0.00224318 -1.61072e-06)
(0.000175069 -0.0024625 -1.52856e-06)
(0.000218727 -0.00258728 -1.90934e-06)
(0.000246173 -0.00272241 -2.14836e-06)
(0.000274751 -0.00284161 -2.39783e-06)
(0.000305739 -0.00295525 -2.66827e-06)
(0.000338488 -0.0030545 -2.95401e-06)
(0.000368617 -0.00314562 -3.21692e-06)
(0.000397829 -0.00322603 -3.47187e-06)
(0.00042504 -0.00329701 -3.70921e-06)
(0.000453087 -0.00335864 -3.95395e-06)
(0.000480497 -0.00341088 -4.1932e-06)
(0.000507509 -0.00345374 -4.429e-06)
(0.000533642 -0.0034872 -4.65712e-06)
(0.000558804 -0.00351116 -4.87676e-06)
(0.000582978 -0.00352555 -5.08782e-06)
(0.000605932 -0.00353033 -5.28819e-06)
(0.00062728 -0.00352545 -5.47457e-06)
(0.000646718 -0.00351088 -5.6443e-06)
(0.000663915 -0.00348666 -5.79446e-06)
(0.000678477 -0.00345289 -5.9216e-06)
(0.000690096 -0.00340965 -6.02306e-06)
(0.00069867 -0.00335716 -6.09795e-06)
(0.000704164 -0.00329574 -6.14597e-06)
(0.000706397 -0.0032258 -6.16553e-06)
(5.39839e-06 0.00110023 -4.70232e-08)
(1.29835e-05 0.000468013 -1.13764e-07)
(-0.000132411 -1.51519e-05 1.15602e-06)
(0.000208757 -0.000408423 -1.82533e-06)
(0.000318431 -0.000772844 -2.78086e-06)
(-0.000192156 -0.0011074 1.67806e-06)
(0.00095367 -0.0013846 -8.32069e-06)
(-0.000863748 -0.0016445 7.56246e-06)
(-0.00100841 -0.00180075 8.80227e-06)
(0.00134775 -0.00201405 -1.17616e-05)
(0.000281431 -0.0022085 -2.45754e-06)
(0.000217748 -0.00237062 -1.90125e-06)
(0.000207506 -0.00253154 -1.8118e-06)
(0.000251071 -0.00266556 -2.19165e-06)
(0.000268139 -0.0027928 -2.34014e-06)
(0.000292704 -0.00291002 -2.55447e-06)
(0.000323411 -0.00302157 -2.82252e-06)
(0.000358246 -0.00311908 -3.12639e-06)
(0.000389472 -0.00320755 -3.39888e-06)
(0.000419532 -0.00328593 -3.66115e-06)
(0.000446939 -0.00335542 -3.90031e-06)
(0.000475959 -0.00341538 -4.15355e-06)
(0.000504528 -0.00346589 -4.4029e-06)
(0.00053254 -0.00350684 -4.6474e-06)
(0.000559566 -0.00353822 -4.8833e-06)
(0.000585522 -0.00355989 -5.10989e-06)
(0.000610392 -0.00357185 -5.32702e-06)
(0.00063395 -0.00357404 -5.53268e-06)
(0.000655808 -0.00356644 -5.72352e-06)
(0.000675633 -0.00354903 -5.89663e-06)
(0.00069308 -0.00352189 -6.04898e-06)
(0.000707747 -0.0034851 -6.17704e-06)
(0.00071931 -0.0034388 -6.27801e-06)
(0.000727625 -0.0033832 -6.35066e-06)
(0.000732646 -0.00331867 -6.39455e-06)
(0.000734221 -0.0032456 -6.40837e-06)
(5.11791e-06 0.00107381 -4.45963e-08)
(8.16863e-06 0.00042706 -7.14846e-08)
(-0.000136625 -7.89293e-05 1.19256e-06)
(0.000210262 -0.000450563 -1.83833e-06)
(0.00031621 -0.000707245 -2.76175e-06)
(-0.000195329 -0.000901266 1.70527e-06)
(0.000950472 -0.00110482 -8.29315e-06)
(-0.000789589 -0.00139638 6.91526e-06)
(-0.000937877 -0.00164558 8.18641e-06)
(0.00131271 -0.00198672 -1.14557e-05)
(0.000260217 -0.00222555 -2.27273e-06)
(0.000207213 -0.00241162 -1.80951e-06)
(0.000202332 -0.00257981 -1.76682e-06)
(0.000261742 -0.00272639 -2.28477e-06)
(0.000283435 -0.00285643 -2.47363e-06)
(0.000308254 -0.00297326 -2.69022e-06)
(0.000340826 -0.00308608 -2.97448e-06)
(0.000379882 -0.00318196 -3.31522e-06)
(0.000411765 -0.00326996 -3.59335e-06)
(0.000442924 -0.00334778 -3.86528e-06)
(0.000471574 -0.00341601 -4.11526e-06)
(0.000501656 -0.00347442 -4.37777e-06)
(0.000530994 -0.00352328 -4.63382e-06)
(0.000559881 -0.00356236 -4.88596e-06)
(0.000587786 -0.00359156 -5.12954e-06)
(0.000614603 -0.00361085 -5.36365e-06)
(0.000640227 -0.00362022 -5.58736e-06)
(0.000664436 -0.00361965 -5.79871e-06)
(0.000686818 -0.00360914 -5.99412e-06)
(0.000707029 -0.00358872 -6.17062e-06)
(0.000724703 -0.00355845 -6.32496e-06)
(0.000739439 -0.00351845 -6.45363e-06)
(0.000750893 -0.00346889 -6.55366e-06)
(0.000758892 -0.00341 -6.62355e-06)
(0.00076337 -0.00334217 -6.6627e-06)
(0.000764205 -0.00326581 -6.67007e-06)
(6.16393e-06 0.00104208 -5.39316e-08)
(1.51296e-05 0.000376235 -1.32249e-07)
(-9.90131e-05 -0.000164764 8.64526e-07)
(0.0003151 -0.00047702 -2.75348e-06)
(0.000436166 -0.0011569 -3.80864e-06)
(-0.000197272 -0.00140789 1.72385e-06)
(0.000697765 -0.0017417 -6.08619e-06)
(-0.00122324 -0.0024256 1.07014e-05)
(-0.00139252 -0.00166362 1.21548e-05)
(0.000999188 -0.00222354 -8.72012e-06)
(0.000170265 -0.00235646 -1.48774e-06)
(0.000189709 -0.00252138 -1.65694e-06)
(0.000208386 -0.00264179 -1.81958e-06)
(0.00027629 -0.00277986 -2.41176e-06)
(0.000305462 -0.00290707 -2.66588e-06)
(0.000328231 -0.00302163 -2.86456e-06)
(0.000361499 -0.00314321 -3.15502e-06)
(0.000404312 -0.00323979 -3.52841e-06)
(0.000435787 -0.00333125 -3.803e-06)
(0.000468348 -0.00341108 -4.0871e-06)
(0.000497933 -0.00347903 -4.34528e-06)
(0.000529057 -0.00353646 -4.61688e-06)
(0.000559583 -0.00358372 -4.88331e-06)
(0.000589684 -0.00362075 -5.14603e-06)
(0.000618675 -0.00364757 -5.3991e-06)
(0.000646375 -0.00366424 -5.64091e-06)
(0.000672749 -0.0036708 -5.87117e-06)
(0.000697566 -0.00366727 -6.08783e-06)
(0.000720437 -0.00365365 -6.28753e-06)
(0.000740987 -0.00363 -6.46698e-06)
(0.000758843 -0.00359639 -6.62292e-06)
(0.000773589 -0.00355299 -6.75168e-06)
(0.000784871 -0.00349996 -6.85022e-06)
(0.000792479 -0.00343759 -6.9167e-06)
(0.000796336 -0.00336625 -6.95044e-06)
(0.000796337 -0.00328641 -6.95053e-06)
(5.88024e-06 0.00101446 -5.13328e-08)
(6.85529e-06 0.000338854 -5.9976e-08)
(-1.34383e-06 -0.000207297 1.11488e-08)
(-2.21757e-05 -0.000524236 1.9286e-07)
(-1.04793e-05 -0.0012081 9.07472e-08)
(0.0001095 -0.00146056 -9.57313e-07)
(0.000576948 -0.00179843 -5.03609e-06)
(0.00018157 -0.0024849 -1.57996e-06)
(0.000186316 -0.00172721 -1.62642e-06)
(0.000842935 -0.00228548 -7.35732e-06)
(0.000386559 -0.0024211 -3.37593e-06)
(0.000292703 -0.0025916 -2.55579e-06)
(0.000284289 -0.00271258 -2.48174e-06)
(0.000300239 -0.00285151 -2.62041e-06)
(0.000324063 -0.00297899 -2.82797e-06)
(0.000334531 -0.00309313 -2.91935e-06)
(0.000367053 -0.00321418 -3.2035e-06)
(0.000421782 -0.00330982 -3.68083e-06)
(0.000453239 -0.00339997 -3.95523e-06)
(0.000491345 -0.00347742 -4.28782e-06)
(0.000525291 -0.0035441 -4.58403e-06)
(0.000558619 -0.0036007 -4.87486e-06)
(0.000590674 -0.00364643 -5.15464e-06)
(0.00062207 -0.00368144 -5.42868e-06)
(0.000652127 -0.00370587 -5.69104e-06)
(0.000680745 -0.00371988 -5.94087e-06)
(0.000707872 -0.00372353 -6.17771e-06)
(0.000733314 -0.00371689 -6.39983e-06)
(0.000756658 -0.0037 -6.60365e-06)
(0.000777527 -0.00367292 -6.78589e-06)
(0.000795519 -0.00363578 -6.94302e-06)
(0.000810223 -0.00358875 -7.07142e-06)
(0.000821262 -0.00353204 -7.16784e-06)
(0.000828403 -0.00346597 -7.23024e-06)
(0.000831549 -0.00339093 -7.25779e-06)
(0.000830616 -0.00330742 -7.24973e-06)
(5.55599e-06 0.000980379 -4.83178e-08)
(1.30193e-05 0.00032256 -1.13999e-07)
(3.90807e-05 -0.000211479 -3.41649e-07)
(8.35415e-05 -0.000602274 -7.30084e-07)
(0.000112632 -0.000874064 -9.83749e-07)
(0.000108678 -0.00107336 -9.48876e-07)
(0.000321893 -0.00128996 -2.80839e-06)
(-0.000254527 -0.0015866 2.22747e-06)
(-0.000266012 -0.00184501 2.32198e-06)
(0.000533435 -0.00218338 -4.657e-06)
(0.000290495 -0.00242656 -2.5373e-06)
(0.000272077 -0.00262399 -2.37587e-06)
(0.000293786 -0.00278805 -2.56438e-06)
(0.00031799 -0.00293608 -2.7754e-06)
(0.000350295 -0.00306811 -3.05691e-06)
(0.000359078 -0.003184 -3.13362e-06)
(0.000392317 -0.0032964 -3.4241e-06)
(0.000451108 -0.00338994 -3.93677e-06)
(0.000483079 -0.00347521 -4.21567e-06)
(0.000522051 -0.00354958 -4.55576e-06)
(0.000555053 -0.00361443 -4.84376e-06)
(0.000589467 -0.00366902 -5.14409e-06)
(0.000623612 -0.00371257 -5.44213e-06)
(0.000656706 -0.00374514 -5.73097e-06)
(0.000688122 -0.00376692 -6.00521e-06)
(0.000717758 -0.00377802 -6.26391e-06)
(0.000745696 -0.00377857 -6.50783e-06)
(0.000771756 -0.00376862 -6.73534e-06)
(0.000795561 -0.00374824 -6.94319e-06)
(0.000816704 -0.00371753 -7.12783e-06)
(0.000834786 -0.00367664 -7.28575e-06)
(0.000849379 -0.00362576 -7.41318e-06)
(0.000860099 -0.00356516 -7.50681e-06)
(0.000866681 -0.00349516 -7.56435e-06)
(0.00086902 -0.00341621 -7.58484e-06)
(0.000867039 -0.00332883 -7.56765e-06)
(3.11049e-05 0.000955963 -2.71121e-07)
(4.39293e-05 0.000247335 -3.83674e-07)
(-1.69666e-05 -0.000203533 1.47396e-07)
(7.16952e-05 -0.000652148 -6.26919e-07)
(0.000111611 -0.00104284 -9.748e-07)
(0.000108227 -0.00138765 -9.45049e-07)
(0.000319978 -0.00169002 -2.7922e-06)
(-0.000173827 -0.00194649 1.52351e-06)
(-0.000186108 -0.00210659 1.62389e-06)
(0.000510491 -0.00231611 -4.45628e-06)
(0.000270871 -0.00251539 -2.36635e-06)
(0.000269477 -0.00269785 -2.35281e-06)
(0.000302389 -0.00286141 -2.63953e-06)
(0.000332644 -0.00300863 -2.90315e-06)
(0.00037016 -0.00314207 -3.23029e-06)
(0.00038068 -0.0032592 -3.32212e-06)
(0.00041599 -0.00337001 -3.63069e-06)
(0.000480128 -0.00346452 -4.19002e-06)
(0.00051182 -0.00354948 -4.46646e-06)
(0.000552145 -0.00362367 -4.81841e-06)
(0.000587796 -0.00368732 -5.12956e-06)
(0.000624305 -0.00373965 -5.44819e-06)
(0.000659984 -0.003781 -5.7596e-06)
(0.000694434 -0.00381113 -6.06029e-06)
(0.000726953 -0.00383025 -6.34414e-06)
(0.000757549 -0.00383842 -6.61122e-06)
(0.000786249 -0.00383578 -6.86178e-06)
(0.000812927 -0.00382241 -7.09469e-06)
(0.000837162 -0.00379838 -7.3063e-06)
(0.000858554 -0.00376385 -7.49311e-06)
(0.000876671 -0.00371899 -7.65134e-06)
(0.00089109 -0.00366405 -7.77725e-06)
(0.000901407 -0.00359932 -7.86737e-06)
(0.000907338 -0.00352516 -7.91923e-06)
(0.000908758 -0.00344207 -7.9317e-06)
(0.000905611 -0.00335062 -7.90433e-06)
(-1.57586e-05 0.000921624 1.37202e-07)
(7.55968e-05 0.000204085 -6.60506e-07)
(0.000133038 -0.000352602 -1.16078e-06)
(-0.000102474 -0.000951832 8.94202e-07)
(-2.23287e-05 -0.00104081 1.93319e-07)
(2.71234e-05 -0.00148729 -2.36775e-07)
(0.000305052 -0.00176165 -2.66174e-06)
(-0.000146393 -0.00200934 1.28353e-06)
(-0.00016 -0.0022109 1.39649e-06)
(0.000516467 -0.00241176 -4.50888e-06)
(0.000276455 -0.00259934 -2.41469e-06)
(0.000276494 -0.00277874 -2.41428e-06)
(0.000316263 -0.00294092 -2.76056e-06)
(0.000351909 -0.00308766 -3.0715e-06)
(0.000395227 -0.00321976 -3.44907e-06)
(0.000407414 -0.00333599 -3.55548e-06)
(0.000443735 -0.0034447 -3.87286e-06)
(0.000510301 -0.00353933 -4.45334e-06)
(0.000543762 -0.00362477 -4.74523e-06)
(0.000585715 -0.00369923 -5.11139e-06)
(0.000622214 -0.00376202 -5.42996e-06)
(0.0006604 -0.00381292 -5.76323e-06)
(0.000697934 -0.00385228 -6.09085e-06)
(0.000734139 -0.00388 -6.40685e-06)
(0.000768111 -0.00389632 -6.70339e-06)
(0.000799839 -0.00390141 -6.98036e-06)
(0.000829438 -0.0038954 -7.23876e-06)
(0.000856782 -0.00387839 -7.47749e-06)
(0.00088148 -0.00385052 -7.69313e-06)
(0.0009031 -0.00381194 -7.88194e-06)
(0.000921217 -0.00376288 -8.04016e-06)
(0.000935392 -0.00370363 -8.16395e-06)
(0.000945222 -0.00363452 -8.24982e-06)
(0.000950396 -0.00355597 -8.29507e-06)
(0.000950781 -0.00346852 -8.29851e-06)
(0.000946335 -0.00337276 -8.2598e-06)
(5.00476e-06 0.000880501 -4.34028e-08)
(7.74149e-06 0.000204768 -6.75073e-08)
(-0.000128259 -0.000427601 1.11735e-06)
(0.000346439 -0.00100501 -3.02954e-06)
(0.000502839 -0.00110046 -4.38952e-06)
(-0.000115073 -0.00155735 1.00304e-06)
(0.000381881 -0.00183577 -3.332e-06)
(-0.000100397 -0.00208741 8.83052e-07)
(-0.000113607 -0.00229099 9.91477e-07)
(0.000539984 -0.00249539 -4.71386e-06)
(0.000288259 -0.00268456 -2.51789e-06)
(0.000285594 -0.00286495 -2.49378e-06)
(0.00033137 -0.00302813 -2.89298e-06)
(0.000371552 -0.00317236 -3.24291e-06)
(0.000419795 -0.00330401 -3.66344e-06)
(0.000433583 -0.00341972 -3.7838e-06)
(0.00047043 -0.00352717 -4.10587e-06)
(0.000539273 -0.00362143 -4.70613e-06)
(0.000572467 -0.00370548 -4.99568e-06)
(0.000617202 -0.00377785 -5.38618e-06)
(0.000657961 -0.00383908 -5.742e-06)
(0.000699125 -0.00388884 -6.10126e-06)
(0.000738827 -0.00392622 -6.44781e-06)
(0.000776793 -0.00395153 -6.77918e-06)
(0.000812121 -0.00396499 -7.08756e-06)
(0.000844962 -0.00396689 -7.37423e-06)
(0.000875426 -0.00395738 -7.64019e-06)
(0.000903444 -0.00393658 -7.88479e-06)
(0.000928579 -0.00390466 -8.10426e-06)
(0.000950406 -0.00386182 -8.29487e-06)
(0.000968467 -0.00380832 -8.4526e-06)
(0.000982331 -0.00374451 -8.57367e-06)
(0.000991577 -0.00367077 -8.65444e-06)
(0.000995885 -0.00358758 -8.69213e-06)
(0.000995106 -0.00349551 -8.68542e-06)
(0.000989219 -0.00339523 -8.63413e-06)
(7.00019e-06 0.000843339 -6.11364e-08)
(2.02629e-05 0.000135252 -1.76499e-07)
(-0.000138915 -0.000403383 1.21097e-06)
(0.000246071 -0.000839441 -2.15259e-06)
(0.000356347 -0.00124433 -3.11159e-06)
(-0.000203052 -0.00160595 1.77157e-06)
(0.0003702 -0.00191683 -3.22991e-06)
(-6.88853e-05 -0.00218028 6.08186e-07)
(-8.51345e-05 -0.00234204 7.43669e-07)
(0.000547506 -0.00256153 -4.77907e-06)
(0.000297672 -0.0027664 -2.59989e-06)
(0.000296311 -0.00294981 -2.58773e-06)
(0.000351894 -0.00312003 -3.07219e-06)
(0.000398321 -0.00326242 -3.47677e-06)
(0.000448673 -0.00339535 -3.91545e-06)
(0.000464446 -0.00351177 -4.05322e-06)
(0.000501632 -0.00361789 -4.37818e-06)
(0.000572572 -0.00371177 -4.9968e-06)
(0.000608918 -0.00379316 -5.31383e-06)
(0.00065506 -0.00386226 -5.71663e-06)
(0.000695448 -0.00392112 -6.06916e-06)
(0.000738461 -0.00396872 -6.44458e-06)
(0.000780967 -0.00400373 -6.81563e-06)
(0.000821191 -0.00402631 -7.16673e-06)
(0.000858319 -0.00403671 -7.49082e-06)
(0.000892499 -0.00403521 -7.78919e-06)
(0.000924027 -0.00402197 -8.06442e-06)
(0.000952808 -0.00399715 -8.31569e-06)
(0.000978449 -0.00396093 -8.53957e-06)
(0.00100048 -0.00391355 -8.73198e-06)
(0.00101846 -0.00385535 -8.889e-06)
(0.00103194 -0.00378671 -9.00671e-06)
(0.00104051 -0.00370807 -9.08158e-06)
(0.00104383 -0.00361997 -9.11065e-06)
(0.00104175 -0.00352304 -9.09258e-06)
(0.00103427 -0.00341799 -9.02736e-06)
(6.31793e-06 0.00080132 -5.53139e-08)
(1.70788e-05 7.51822e-05 -1.49061e-07)
(-0.00014239 -0.000488481 1.24159e-06)
(0.000248372 -0.000904846 -2.17239e-06)
(0.000357316 -0.00119425 -3.11947e-06)
(-0.000198397 -0.0014028 1.73135e-06)
(0.000375492 -0.00163075 -3.27545e-06)
(2.29184e-05 -0.00194685 -1.92843e-07)
(1.18705e-06 -0.00222185 -8.6684e-09)
(0.000521263 -0.00259133 -4.54945e-06)
(0.000284267 -0.00284675 -2.48273e-06)
(0.000296275 -0.00303996 -2.58739e-06)
(0.00036465 -0.00321097 -3.18361e-06)
(0.000423027 -0.00335302 -3.69227e-06)
(0.000474522 -0.00348524 -4.14112e-06)
(0.000494449 -0.00360313 -4.31496e-06)
(0.000533035 -0.00370914 -4.65232e-06)
(0.00060689 -0.00380375 -5.29629e-06)
(0.000645289 -0.00388393 -5.6313e-06)
(0.000693116 -0.00395222 -6.04878e-06)
(0.000736044 -0.00400884 -6.42355e-06)
(0.000781623 -0.00405324 -6.82136e-06)
(0.00082648 -0.00408524 -7.21294e-06)
(0.000868736 -0.00410464 -7.58176e-06)
(0.000907473 -0.00411169 -7.91989e-06)
(0.00094298 -0.00410651 -8.22984e-06)
(0.000975534 -0.00408929 -8.51404e-06)
(0.0010051 -0.00406017 -8.77213e-06)
(0.00103122 -0.00401937 -9.0002e-06)
(0.00105344 -0.00396719 -9.19423e-06)
(0.00107127 -0.00390398 -9.34998e-06)
(0.00108429 -0.00383021 -9.46365e-06)
(0.00109207 -0.00374639 -9.53161e-06)