/*--------------------------------*- C++ -*----------------------------------*\
| =========                 |                                                 |
| \\      /  F ield         | OpenFOAM: The Open Source CFD Toolbox           |
|  \\    /   O peration     | Version:  v2012                                 |
|   \\  /    A nd           | Website:  www.openfoam.com                      |
|    \\/     M anipulation  |                                                 |
\*---------------------------------------------------------------------------*/
FoamFile
{
    version     2.0;
    format      ascii;
    class       surfaceScalarField;
    location    "0.65";
    object      alphaPhi0.water;
}
// * * * * * * * * * * * * * * * * * * * * * * * * * * * * * * * * * * * * * //

dimensions      [0 3 -1 0 0 0 0];
oriented        oriented;


internalField   nonuniform List<scalar> 
8212
(
4.66396e-12
-6.90367e-09
-5.7078e-16
1.94195e-11
-2.11577e-08
-4.78736e-15
4.78575e-11
-3.6283e-08
-1.09386e-14
1.36198e-10
-5.19844e-08
-4.45569e-15
8.37907e-10
-7.86012e-08
-2.13046e-15
4.76109e-10
-9.71624e-08
-1.51771e-14
-5.72518e-10
-9.9124e-08
-7.83426e-15
-1.62435e-10
-9.49966e-08
-2.91286e-15
1.33064e-09
-8.39648e-08
-3.95272e-14
1.70797e-09
-7.62656e-08
-3.07241e-14
1.3278e-09
-7.52821e-08
-2.94542e-15
3.87042e-10
-4.19617e-08
-9.66174e-16
2.10464e-11
-6.99008e-09
-1.36063e-16
3.22392e-13
-2.83882e-10
-3.82583e-18
3.67773e-15
-4.91222e-12
-6.59564e-20
3.32038e-17
-5.46357e-14
-6.84091e-22
2.25924e-19
-4.1739e-16
-5.23562e-24
1.85883e-21
-1.91826e-18
-2.74939e-26
1.16364e-23
-8.72942e-21
-1.11153e-28
4.79024e-26
-3.37023e-23
-3.87878e-31
1.43966e-28
-1.04335e-25
-1.08974e-33
3.33417e-31
-2.63944e-28
-2.62296e-36
5.98752e-34
-5.42662e-31
-5.29719e-39
8.1725e-37
-8.90213e-34
-8.69465e-42
8.11712e-40
-1.1288e-36
-1.09102e-44
5.41531e-43
-1.05167e-39
-1.00768e-47
2.06186e-46
-6.60107e-43
-6.32643e-51
2.76695e-50
-2.33757e-46
-2.27721e-54
-4.41589e-102
-2.57018e-50
-2.76693e-58
-5.26741e-106
-5.80516e-99
-2.23225e-107
-1.24569e-108
-1.78414e-103
-1.4271e-111
-2.11851e-106
-1.79445e-107
-3.77479e-114
-3.12777e-103
-4.48406e-113
-5.29576e-111
-3.76694e-100
-1.96035e-112
-6.49286e-108
-3.94041e-97
-1.98423e-109
-6.99817e-105
-3.72308e-94
-1.82628e-106
-6.9314e-102
-3.26788e-91
-1.59139e-103
-6.52742e-99
-2.71351e-88
-2.2124e-100
-8.42026e-96
-8.37739e-99
-1.03946e-92
6.6689e-12
-6.91035e-09
-1.13338e-15
1.72751e-11
-2.11683e-08
2.78374e-16
-5.66971e-12
-3.626e-08
-7.18733e-15
8.44508e-11
-5.20746e-08
-1.40212e-14
8.72269e-10
-7.9389e-08
-5.46234e-15
-1.41744e-10
-9.61483e-08
-2.09059e-15
-1.39592e-09
-9.78688e-08
-6.08716e-15
-5.51785e-10
-9.58386e-08
-3.90128e-15
1.50304e-09
-8.60179e-08
-5.81763e-14
1.88804e-09
-7.67371e-08
-2.63266e-14
1.47417e-09
-7.64582e-08
-9.70675e-16
4.70962e-10
-4.47587e-08
-7.3146e-16
2.86564e-11
-8.02114e-09
-1.52077e-16
4.56889e-13
-3.46048e-10
-5.75371e-18
5.22829e-15
-6.12947e-12
-9.9371e-20
4.68633e-17
-6.89562e-14
-1.12804e-21
2.88154e-19
-5.11721e-16
-6.86569e-24
1.47793e-21
-2.27207e-18
-3.40981e-26
1.28375e-23
-1.25335e-20
-1.62699e-28
5.83363e-26
-5.0427e-23
-5.467e-31
1.82956e-28
-1.59424e-25
-1.58824e-33
4.3327e-31
-4.08519e-28
-4.10007e-36
7.87229e-34
-8.46276e-31
-8.54098e-39
1.0787e-36
-1.39141e-33
-1.38447e-41
1.06695e-39
-1.75662e-36
-1.69541e-44
7.00789e-43
-1.614e-39
-1.51984e-47
2.54291e-46
-9.83372e-43
-9.12456e-51
3.33018e-50
-3.29027e-46
-3.03955e-54
-6.6521e-102
-2.53732e-50
-2.8642e-58
-5.91359e-106
-6.09677e-99
-2.04865e-107
-9.86012e-110
-1.78969e-103
-1.55681e-111
-3.56316e-115
-1.6311e-107
-1.90694e-115
-2.04834e-115
-3.82969e-113
-7.89888e-121
-1.9624e-112
-1.79134e-119
-4.51454e-118
-1.98619e-109
-4.25758e-126
-4.68317e-115
-1.82826e-106
-5.72745e-129
-4.47266e-112
-1.59321e-103
-3.12261e-125
-4.08347e-109
-2.09065e-100
-5.75547e-122
-3.60232e-106
-9.73691e-121
-3.75253e-103
7.27281e-12
-6.91763e-09
-2.42974e-15
1.94666e-11
-2.11805e-08
-4.95999e-15
-4.98851e-11
-3.61907e-08
-3.3377e-15
3.0072e-11
-5.21545e-08
-1.69738e-14
3.94898e-10
-7.97539e-08
-1.07964e-14
-7.08433e-10
-9.50449e-08
-1.00411e-14
-1.02727e-09
-9.7549e-08
5.99311e-16
5.80062e-11
-9.69216e-08
-2.15477e-14
1.76717e-09
-8.7724e-08
-6.0744e-14
2.08178e-09
-7.71193e-08
-1.02859e-14
1.64724e-09
-7.75152e-08
-1.41699e-15
5.51542e-10
-4.75725e-08
-7.85708e-16
3.56568e-11
-9.15915e-09
-1.51145e-16
5.79029e-13
-4.19698e-10
-6.37118e-18
6.58603e-15
-7.60241e-12
-1.09845e-19
5.90508e-17
-8.64893e-14
-1.29399e-21
3.56657e-19
-6.32553e-16
-7.54353e-24
2.01282e-21
-2.88421e-18
-3.85906e-26
1.67249e-23
-1.78006e-20
-1.99293e-28
7.97691e-26
-7.33223e-23
-7.47708e-31
2.54879e-28
-2.32735e-25
-2.26901e-33
6.09016e-31
-5.97357e-28
-5.94358e-36
1.10885e-33
-1.2358e-30
-1.24385e-38
1.51159e-36
-2.01925e-33
-2.02804e-41
1.47335e-39
-2.51405e-36
-2.48033e-44
9.39054e-43
-2.24941e-39
-2.17743e-47
3.38464e-46
-1.30402e-42
-1.2554e-50
3.67316e-50
-3.76856e-46
-3.81436e-54
-9.06449e-102
-1.24233e-50
-2.4009e-58
-6.6842e-106
-6.28218e-99
-2.74521e-107
-9.72379e-110
-1.78613e-103
-1.73164e-111
-3.27092e-115
-1.44073e-107
-1.74716e-115
-2.26686e-121
-3.2371e-113
-3.99024e-121
-6.45078e-128
-1.79409e-119
-1.75722e-127
-2.35272e-128
-3.22577e-126
-6.1476e-134
-3.0927e-128
-3.26227e-129
-1.23902e-132
-2.88457e-125
-2.41364e-126
-5.47681e-131
-5.42779e-122
-3.30644e-123
-9.05975e-128
-9.73423e-121
-5.1929e-128
9.33199e-12
-6.92698e-09
6.32919e-16
2.82119e-11
-2.11994e-08
-2.17776e-15
-9.0557e-11
-3.60719e-08
-9.29981e-15
-5.13038e-11
-5.21938e-08
-1.05613e-14
9.51128e-11
-7.99002e-08
-1.52213e-14
-7.38592e-10
-9.42111e-08
-1.14347e-14
-4.33482e-10
-9.7853e-08
-9.28747e-15
6.00292e-10
-9.79529e-08
-2.52529e-14
2.05228e-09
-8.91729e-08
-6.90696e-14
2.2482e-09
-7.73619e-08
-1.67522e-14
1.79908e-09
-7.84293e-08
4.61353e-16
6.42914e-10
-5.04172e-08
-8.15042e-16
4.50884e-11
-1.04339e-08
-1.93787e-16
7.53922e-13
-5.08958e-10
-8.71918e-18
8.52409e-15
-9.4284e-12
-1.29298e-19
7.64299e-17
-1.08397e-13
-1.7922e-21
4.56236e-19
-7.89209e-16
-9.89954e-24
2.80423e-21
-3.70169e-18
-5.02632e-26
2.38661e-23
-2.45513e-20
-2.82225e-28
1.13316e-25
-1.02171e-22
-1.1218e-30
3.60133e-28
-3.23794e-25
-3.42998e-33
8.54726e-31
-8.29409e-28
-8.69878e-36
1.53965e-33
-1.7074e-30
-1.76823e-38
2.06178e-36
-2.76006e-33
-2.83026e-41
1.94921e-39
-3.36711e-36
-3.39793e-44
1.16053e-42
-2.90437e-39
-2.88716e-47
3.79645e-46
-1.58928e-42
-1.56344e-50
1.99715e-50
-3.7414e-46
-4.11541e-54
-1.28265e-101
9.8284e-66
-8.8791e-59
-7.76483e-106
-6.5609e-99
-2.69079e-107
-9.50079e-110
-1.77977e-103
-1.8799e-111
-3.03142e-115
-1.25169e-107
-1.54178e-115
-2.54271e-121
-2.71994e-113
-3.40058e-121
-5.47734e-128
-1.9636e-119
-2.07785e-127
-7.74397e-131
-2.81258e-126
-2.96415e-134
-3.33968e-129
-3.35301e-134
-1.85264e-135
-2.41696e-126
-7.10428e-132
-1.86319e-132
-4.16955e-123
-6.6449e-129
-1.11887e-129
-1.84108e-127
-1.37943e-126
9.56772e-12
-6.93655e-09
-1.63241e-15
2.86266e-11
-2.12184e-08
-5.74344e-15
-1.51326e-10
-3.58919e-08
-9.00262e-15
-1.53249e-10
-5.21918e-08
-1.19438e-14
-1.68313e-10
-7.98852e-08
-1.31114e-14
-5.15739e-10
-9.38635e-08
-1.18882e-14
3.08636e-10
-9.86762e-08
-4.1254e-15
1.12714e-09
-9.87686e-08
-3.10072e-14
2.25286e-09
-9.0295e-08
-8.40011e-14
2.39493e-09
-7.75314e-08
-1.21125e-14
1.93313e-09
-7.91981e-08
2.7929e-15
7.37041e-10
-5.32743e-08
-9.93779e-16
5.62803e-11
-1.18527e-08
-2.27952e-16
9.73147e-13
-6.16639e-10
-9.97491e-18
1.09283e-14
-1.16835e-11
-1.54854e-19
9.80485e-17
-1.35533e-13
-2.25218e-21
5.84763e-19
-9.87948e-16
-1.25078e-23
3.83681e-21
-4.72831e-18
-6.61983e-26
3.45751e-23
-3.30433e-20
-4.08557e-28
1.60305e-25
-1.36437e-22
-1.62384e-30
5.0306e-28
-4.30099e-25
-4.93141e-33
1.17984e-30
-1.09591e-27
-1.23108e-35
2.09169e-33
-2.23597e-30
-2.44385e-38
2.73287e-36
-3.55649e-33
-3.80998e-41
2.47544e-39
-4.21674e-36
-4.43707e-44
1.49109e-42
-3.46545e-39
-3.60174e-47
3.85521e-46
-1.6247e-42
-1.79215e-50
2.82759e-69
-3.01699e-46
-3.8104e-54
-1.87637e-101
-2.55273e-95
9.86607e-74
-9.1004e-106
-7.3753e-99
-7.67735e-107
-9.31059e-110
-1.76202e-103
-2.02707e-111
-2.84885e-115
-1.06759e-107
-1.35026e-115
-3.3983e-121
-2.294e-113
-2.8995e-121
-5.42913e-128
-2.58784e-119
-2.8782e-127
-7.80083e-136
-2.58653e-126
-2.70228e-134
-9.6581e-135
-2.58252e-134
-2.86902e-140
-7.14736e-132
-2.33126e-146
-1.94928e-137
-6.30485e-129
-5.11696e-147
-1.32316e-134
-6.66513e-146
-1.38268e-131
1.06035e-11
-6.94717e-09
1.23223e-16
3.58269e-11
-2.12436e-08
-2.41372e-15
-1.98706e-10
-3.56574e-08
-1.14791e-14
-2.00157e-10
-5.21904e-08
-5.10865e-15
-1.89895e-10
-7.98954e-08
-1.30067e-14
-9.73434e-12
-9.40435e-08
-1.49715e-14
9.45959e-10
-9.96306e-08
-8.36496e-15
1.39321e-09
-9.92127e-08
-4.35879e-14
2.26433e-09
-9.1162e-08
-8.28289e-14
2.49054e-09
-7.77664e-08
2.80842e-15
2.03966e-09
-7.98461e-08
4.3542e-15
8.30864e-10
-5.61429e-08
-1.17929e-15
6.94661e-11
-1.3436e-08
-2.7386e-16
1.24999e-12
-7.47394e-10
-1.17632e-17
1.39476e-14
-1.44917e-11
-2.08083e-19
1.25166e-16
-1.69266e-13
-2.79327e-21
7.51135e-19
-1.238e-15
-1.59534e-23
5.25542e-21
-6.01329e-18
-9.04248e-26
4.88764e-23
-4.29932e-20
-5.51704e-28
2.17568e-25
-1.74539e-22
-2.02185e-30
6.68045e-28
-5.47894e-25
-6.01943e-33
1.53601e-30
-1.38646e-27
-1.51435e-35
2.65561e-33
-2.79361e-30
-3.03211e-38
3.33431e-36
-4.3486e-33
-4.71002e-41
2.96558e-39
-4.98106e-36
-5.35257e-44
1.49314e-42
-3.73171e-39
-4.11224e-47
3.38893e-46
-1.54694e-42
-1.81998e-50
-2.29327e-98
-1.60424e-46
-2.72301e-54
-2.51962e-101
-2.71517e-95
-2.45065e-103
-1.06532e-105
-7.64162e-99
-3.63895e-107
-9.02945e-110
-1.73296e-103
-2.15795e-111
-2.73175e-115
-8.96293e-108
-1.16078e-115
-5.19791e-121
-1.97421e-113
-2.49066e-121
-5.67782e-128
-3.59833e-119
-3.98716e-127
-7.45031e-136
-2.51872e-126
-2.54909e-134
-7.67574e-148
-2.77528e-134
-2.78513e-142
-7.2822e-150
-2.58582e-146
-2.36922e-154
-5.11067e-147
-1.31263e-149
-4.14849e-154
-4.29401e-147
-5.47541e-152
1.10646e-11
-6.95825e-09
4.75333e-16
4.02582e-11
-2.12728e-08
-3.74776e-15
-2.38042e-10
-3.5379e-08
-1.14587e-14
-1.54994e-10
-5.22735e-08
1.53077e-15
3.32173e-11
-8.00836e-08
-9.54033e-15
5.50678e-10
-9.45608e-08
-1.46797e-14
1.17505e-09
-1.00253e-07
-1.5476e-14
1.20836e-09
-9.92425e-08
-4.96431e-14
1.99653e-09
-9.19458e-08
-7.09448e-14
2.51969e-09
-7.829e-08
5.59782e-15
2.11731e-09
-8.04187e-08
3.30465e-15
9.21536e-10
-5.90269e-08
-1.37167e-15
8.46596e-11
-1.52094e-08
-3.40929e-16
1.59332e-12
-9.07438e-10
-1.54649e-17
1.76536e-14
-1.80254e-11
-2.94298e-19
1.58213e-16
-2.11475e-13
-3.5019e-21
9.57541e-19
-1.55155e-15
-2.09913e-23
7.4562e-21
-7.57599e-18
-1.19261e-25
6.50059e-23
-5.44618e-20
-7.35446e-28
2.82538e-25
-2.1692e-22
-2.762e-30
8.51221e-28
-6.73644e-25
-8.16209e-33
1.91394e-30
-1.67984e-27
-1.99681e-35
3.19797e-33
-3.31353e-30
-3.86163e-38
3.99283e-36
-5.00682e-33
-5.75419e-41
3.19509e-39
-5.30959e-36
-6.18916e-44
1.43549e-42
-3.6257e-39
-4.36863e-47
2.35452e-46
-1.2251e-42
-1.63225e-50
-4.55176e-98
8.45829e-52
-1.2337e-54
-3.32336e-101
-2.70891e-95
-2.29205e-103
-1.24009e-105
-7.84536e-99
-4.02844e-107
-8.67064e-110
-1.69629e-103
-2.27179e-111
-2.7089e-115
-7.42929e-108
-9.8719e-116
-7.86483e-121
-1.76494e-113
-2.19134e-121
-6.22827e-128
-4.70809e-119
-5.10112e-127
-8.90815e-136
-2.51799e-126
-2.52918e-134
-1.11813e-147
-2.76661e-134
-3.06167e-142
-1.75193e-148
-2.6876e-146
-3.03766e-154
-1.87804e-148
-7.32641e-152
-5.62217e-153
-1.46894e-150
-6.10611e-150
1.17896e-11
-6.97005e-09
-9.44046e-16
4.61583e-11
-2.13072e-08
-4.38157e-15
-2.46122e-10
-3.50867e-08
-1.02655e-14
3.01174e-11
-5.25497e-08
-4.01218e-15
4.65697e-10
-8.05192e-08
-1.34354e-14
9.6517e-10
-9.50601e-08
-1.218e-14
8.65893e-10
-1.00152e-07
-1.00639e-14
5.62405e-10
-9.89351e-08
-5.45949e-14
1.48203e-09
-9.28602e-08
-4.18116e-14
2.46725e-09
-7.92748e-08
2.87556e-15
2.1649e-09
-8.09729e-08
-1.94716e-15
1.00767e-09
-6.19352e-08
-1.72173e-15
1.02105e-10
-1.72055e-08
-3.50529e-16
2.02061e-12
-1.10502e-09
-1.92499e-17
2.22087e-14
-2.25212e-11
-3.9486e-19
1.98239e-16
-2.64695e-13
-4.75277e-21
1.2074e-18
-1.94418e-15
-2.9492e-23
1.01789e-20
-9.42778e-18
-1.54531e-25
8.41693e-23
-6.71787e-20
-9.73557e-28
3.55948e-25
-2.61306e-22
-3.52371e-30
1.04461e-27
-7.95742e-25
-1.00831e-32
2.26739e-30
-1.93681e-27
-2.39504e-35
3.79559e-33
-3.70991e-30
-4.49322e-38
4.27962e-36
-5.21336e-33
-6.43309e-41
3.1028e-39
-5.17368e-36
-6.50265e-44
1.19181e-42
-3.11694e-39
-4.11423e-47
3.86124e-56
-7.36288e-43
-1.19906e-50
-6.97396e-98
-6.41928e-78
9.53035e-60
-4.24573e-101
-2.54671e-95
-2.36789e-103
-1.43294e-105
-7.92692e-99
-4.29564e-107
-8.24385e-110
-1.65486e-103
-2.35344e-111
-2.80996e-115
-6.11196e-108
-8.3083e-116
-1.10434e-120
-1.65856e-113
-2.00441e-121
-7.14829e-128
-5.65576e-119
-5.97301e-127
-9.89002e-136
-2.78059e-126
-2.64531e-134
-1.27106e-147
-2.72652e-134
-3.09311e-142
-2.93113e-153
-2.69288e-146
-3.19405e-154
-7.07448e-152
-1.1681e-160
-1.6173e-157
-5.07148e-164
-1.39267e-154
1.2465e-11
-6.98252e-09
1.56131e-15
4.9486e-11
-2.13442e-08
-1.43277e-15
-2.25905e-10
-3.48113e-08
-1.07319e-14
3.22816e-10
-5.30984e-08
3.58018e-15
9.51584e-10
-8.11479e-08
-9.1374e-15
1.01333e-09
-9.51216e-08
-1.24589e-14
6.85536e-11
-9.92057e-08
-1.75097e-14
-3.3964e-10
-9.85225e-08
-5.54386e-14
8.68929e-10
-9.40628e-08
-2.52712e-14
2.36447e-09
-8.07699e-08
1.16946e-14
2.19032e-09
-8.15474e-08
-7.62996e-16
1.08979e-09
-6.48677e-08
-1.9397e-15
1.22155e-10
-1.9458e-08
-4.45937e-16
2.55405e-12
-1.35058e-09
-2.79754e-17
2.77987e-14
-2.82952e-11
-5.98415e-19
2.46247e-16
-3.32294e-13
-6.65333e-21
1.50136e-18
-2.43604e-15
-4.26885e-23
1.3296e-20
-1.15858e-17
-2.04746e-25
1.05104e-22
-8.08029e-20
-1.29505e-27
4.31217e-25
-3.05318e-22
-4.59062e-30
1.22159e-27
-9.02605e-25
-1.26895e-32
2.64538e-30
-2.12334e-27
-2.8839e-35
3.97216e-33
-3.80164e-30
-5.12637e-38
4.18662e-36
-5.0749e-33
-6.84926e-41
2.73428e-39
-4.56152e-36
-6.28394e-44
8.0273e-43
-2.24858e-39
-3.38478e-47
-5.84209e-81
-2.54088e-43
-6.55601e-51
-9.20453e-98
-1.09641e-91
-3.9905e-86
-5.26434e-101
-2.7949e-95
-2.45046e-103
-1.64271e-105
-7.91619e-99
-4.59523e-107
-7.79975e-110
-1.61119e-103
-2.4074e-111
-3.05089e-115
-5.03602e-108
-6.96125e-116
-1.42976e-120
-1.62794e-113
-1.92234e-121
-9.97627e-128
-6.2708e-119
-6.5045e-127
-1.05627e-135
-3.88679e-126
-3.46316e-134
-1.41138e-147
-2.51457e-134
-3.04074e-142
-8.39794e-162
-2.64717e-146
-3.2393e-154
-5.45358e-165
-1.22925e-160
-2.16391e-168
-1.92543e-165
-5.79946e-168
1.3196e-11
-6.99572e-09
-1.26958e-15
5.04402e-11
-2.13814e-08
-4.45385e-15
-1.85339e-10
-3.45756e-08
-9.9212e-15
6.42841e-10
-5.39266e-08
-5.47608e-16
1.29817e-09
-8.18032e-08
-1.1305e-14
6.2987e-10
-9.4453e-08
-1.16626e-14
-9.10181e-10
-9.76637e-08
-1.84586e-14
-1.08697e-09
-9.83409e-08
-5.24128e-14
3.92557e-10
-9.55355e-08
-1.18889e-14
2.26967e-09
-8.26466e-08
3.17985e-15
2.20498e-09
-8.21298e-08
-2.10411e-15
1.16934e-09
-6.78044e-08
-2.17695e-15
1.45314e-10
-2.19961e-08
-5.75574e-16
3.22484e-12
-1.6568e-09
-3.78186e-17
3.46856e-14
-3.57602e-11
-8.21162e-19
3.03668e-16
-4.18704e-13
-8.82028e-21
1.83821e-18
-3.05334e-15
-5.66245e-23
1.66755e-20
-1.40266e-17
-2.49658e-25
1.26783e-22
-9.49494e-20
-1.61476e-27
5.0282e-25
-3.46514e-22
-5.67008e-30
1.38627e-27
-9.83827e-25
-1.497e-32
2.7359e-30
-2.18984e-27
-3.209e-35
3.92044e-33
-3.70956e-30
-5.34271e-38
3.7799e-36
-4.53658e-33
-6.57415e-41
2.07036e-39
-3.52815e-36
-5.35212e-44
3.30614e-43
-1.28807e-39
-2.31121e-47
-2.09728e-94
1.27242e-50
-1.97129e-51
-1.36501e-97
-1.07281e-91
-2.39624e-98
-6.3803e-101
-2.84794e-95
-2.52695e-103
-1.86921e-105
-7.8809e-99
-4.89122e-107
-7.4187e-110
-1.56786e-103
-2.44537e-111
-3.40932e-115
-4.21669e-108
-5.84567e-116
-1.72385e-120
-1.62824e-113
-1.91679e-121
-1.6062e-127
-6.52126e-119
-6.75121e-127
-1.04612e-135
-5.57782e-126
-5.30862e-134
-1.51032e-147
-2.16068e-134
-2.7888e-142
-9.82155e-162
-2.48777e-146
-3.18263e-154
-2.30461e-166
-1.30462e-160
-1.75069e-168
-6.04e-166
-5.10126e-174
1.38612e-11
-7.00959e-09
2.7757e-16
4.87393e-11
-2.14163e-08
-1.42467e-15
-1.39863e-10
-3.43869e-08
-7.89306e-15
9.05593e-10
-5.49721e-08
-4.58838e-15
1.36336e-09
-8.22609e-08
-1.24905e-14
-3.84378e-11
-9.3051e-08
-1.12394e-14
-1.66154e-09
-9.60387e-08
-2.78529e-14
-1.3933e-09
-9.86039e-08
-4.18314e-14
2.24018e-10
-9.71454e-08
-2.56264e-15
2.24051e-09
-8.46624e-08
8.06372e-15
2.22143e-09
-8.26573e-08
-3.75046e-15
1.2478e-09
-7.06985e-08
-2.56406e-15
1.721e-10
-2.4837e-08
-7.37116e-16
4.07162e-12
-2.03858e-09
-5.5744e-17
4.31852e-14
-4.54563e-11
-1.20231e-18
3.72167e-16
-5.29874e-13
-1.25352e-20
2.21563e-18
-3.83168e-15
-8.0018e-23
1.99485e-20
-1.67287e-17
-3.24943e-25
1.46997e-22
-1.09545e-19
-2.05003e-27
5.62663e-25
-3.83867e-22
-6.74409e-30
1.4678e-27
-1.03636e-24
-1.69592e-32
2.72887e-30
-2.16199e-27
-3.43568e-35
3.59901e-33
-3.3961e-30
-5.3037e-38
3.03322e-36
-3.69171e-33
-5.87156e-41
1.29143e-39
-2.35714e-36
-4.055e-44
3.3914e-54
-5.09249e-40
-1.24577e-47
-3.28199e-94
-1.46212e-79
1.57419e-58
-1.77246e-97
-1.05614e-91
-9.07941e-100
-7.58392e-101
-2.89664e-95
-2.59963e-103
-2.11387e-105
-7.7772e-99
-5.17807e-107
-7.20812e-110
-1.52746e-103
-2.46736e-111
-3.95727e-115
-3.65796e-108
-4.98263e-116
-1.97365e-120
-1.78058e-113
-1.95718e-121
-2.41855e-127
-6.53321e-119
-6.86693e-127
-9.84381e-136
-7.09918e-126
-7.57369e-134
-1.57123e-147
-1.80638e-134
-2.4228e-142
-1.15526e-161
-2.34771e-146
-3.05491e-154
-8.02037e-167
-1.39723e-160
-1.91074e-168
-1.99974e-166
-6.10629e-175
1.4437e-11
-7.02403e-09
5.68315e-16
4.53175e-11
-2.14472e-08
-4.43491e-15
-9.87129e-11
-3.42429e-08
-9.40769e-15
1.05905e-09
-5.61299e-08
-2.95783e-15
1.1528e-09
-8.23546e-08
-7.58303e-15
-6.64008e-10
-9.1234e-08
-1.4139e-14
-1.86089e-09
-9.48398e-08
-1.93526e-14
-1.15543e-09
-9.93035e-08
-3.3352e-14
3.90658e-10
-9.86832e-08
-1.26375e-15
2.30233e-09
-8.65697e-08
5.00251e-15
2.24716e-09
-8.30478e-08
-3.57502e-16
1.32516e-09
-7.34835e-08
-2.63029e-15
2.02913e-10
-2.79836e-08
-9.51265e-16
5.14193e-12
-2.51312e-09
-7.69058e-17
5.3704e-14
-5.80977e-11
-1.69642e-18
4.54026e-16
-6.73996e-13
-1.73794e-20
2.63063e-18
-4.82106e-15
-1.11097e-22
2.24575e-20
-1.97032e-17
-4.11605e-25
1.62164e-22
-1.25145e-19
-2.51886e-27
6.01476e-25
-4.19124e-22
-7.9462e-30
1.47248e-27
-1.06695e-24
-1.87849e-32
2.55918e-30
-2.06969e-27
-3.50628e-35
3.01946e-33
-2.93612e-30
-4.89758e-38
2.13052e-36
-2.74413e-33
-4.73847e-41
6.12111e-40
-1.31985e-36
-2.62526e-44
-2.00894e-82
-5.25607e-41
-4.47009e-48
-4.59757e-94
-1.17305e-87
-1.84517e-87
-2.2455e-97
-1.0534e-91
-9.58195e-100
-8.81097e-101
-2.93717e-95
-2.66606e-103
-2.38008e-105
-7.58726e-99
-5.44936e-107
-7.28385e-110
-1.49253e-103
-2.45746e-111
-5.42371e-115
-3.3458e-108
-4.38413e-116
-2.20151e-120
-2.38901e-113
-2.22984e-121
-3.21531e-127
-6.48347e-119
-6.85523e-127
-9.20233e-136
-8.00102e-126
-9.4715e-134
-1.66426e-147
-1.54023e-134
-2.07905e-142
-1.36728e-161
-2.29793e-146
-2.9977e-154
-2.93635e-167
-1.51085e-160
-2.10774e-168
-6.74405e-167
-7.12427e-176
1.48463e-11
-7.03888e-09
-3.96316e-16
4.1645e-11
-2.1474e-08
-1.591e-15
-6.48436e-11
-3.41364e-08
-5.63877e-15
1.08699e-09
-5.72817e-08
-7.90329e-15
7.94752e-10
-8.20623e-08
-7.45996e-15
-9.58738e-10
-8.94803e-08
-7.89013e-15
-1.47807e-09
-9.43184e-08
-2.30864e-14
-5.59615e-10
-1.00216e-07
-2.83204e-14
7.32657e-10
-9.99664e-08
-1.17898e-15
2.41773e-09
-8.82462e-08
8.02904e-15
2.28222e-09
-8.32601e-08
3.0905e-15
1.39987e-09
-7.60901e-08
-2.89211e-15
2.37946e-10
-3.14251e-08
-1.16372e-15
6.49293e-12
-3.1003e-09
-1.0336e-16
6.67696e-14
-7.46448e-11
-2.3099e-18
5.52395e-16
-8.62571e-13
-2.42714e-20
3.11472e-18
-6.09288e-15
-1.51727e-22
2.29208e-20
-2.38244e-17
-5.27035e-25
1.69112e-22
-1.43527e-19
-3.07281e-27
6.11623e-25
-4.56372e-22
-9.11706e-30
1.41797e-27
-1.08716e-24
-2.01709e-32
2.24621e-30
-1.92471e-27
-3.45623e-35
2.31109e-33
-2.41047e-30
-4.29894e-38
1.28062e-36
-1.8456e-33
-3.51107e-41
6.30084e-41
-5.6123e-37
-1.41597e-44
-7.54137e-91
1.57812e-51
-4.1154e-49
-6.12654e-94
-1.17502e-87
-9.20908e-97
-2.77134e-97
-1.06343e-91
-9.80069e-100
-1.00246e-100
-2.96953e-95
-2.72224e-103
-2.67348e-105
-7.33127e-99
-5.69072e-107
-7.72756e-110
-1.46529e-103
-2.41453e-111
-8.62431e-115
-3.23196e-108
-4.04399e-116
-2.4089e-120
-3.45663e-113
-3.04584e-121
-3.85552e-127
-6.2689e-119
-6.55749e-127
-8.90995e-136
-8.28508e-126
-1.06168e-133
-1.81041e-147
-1.39256e-134
-1.83643e-142
-1.62914e-161
-2.30546e-146
-3.03169e-154
-1.09169e-167
-1.65015e-160
-2.34882e-168
-2.27676e-167
-8.54584e-177
1.51479e-11
-7.05403e-09
9.44434e-16
3.91838e-11
-2.1498e-08
-4.08936e-15
-3.74391e-11
-3.40598e-08
-5.58261e-15
1.01132e-09
-5.83305e-08
-8.39272e-15
4.59788e-10
-8.15107e-08
-8.51688e-15
-8.49228e-10
-8.8171e-08
-9.56082e-15
-7.92069e-10
-9.43732e-08
-1.8539e-14
-1.77273e-12
-1.00999e-07
-2.35435e-14
9.43085e-10
-1.00901e-07
-5.87095e-15
2.48338e-09
-8.9777e-08
2.07711e-14
2.31746e-09
-8.33553e-08
5.66335e-15
1.46954e-09
-7.84667e-08
-3.27505e-15
2.77242e-10
-3.51423e-08
-1.43324e-15
8.19695e-12
-3.82314e-09
-1.45101e-16
8.31213e-14
-9.63961e-11
-3.21961e-18
6.71926e-16
-1.11172e-12
-3.42953e-20
3.72442e-18
-7.74754e-15
-2.04914e-22
2.17682e-20
-3.05404e-17
-7.00266e-25
1.72463e-22
-1.66126e-19
-3.75563e-27
6.19046e-25
-4.96221e-22
-1.02792e-29
1.31529e-27
-1.08192e-24
-2.09443e-32
1.8669e-30
-1.73192e-27
-3.25811e-35
1.61249e-33
-1.85467e-30
-3.53801e-38
6.2338e-37
-1.07632e-33
-2.31841e-41
1.53296e-54
-1.13205e-37
-5.61233e-45
-4.69931e-90
-4.09927e-84
2.16124e-59
-7.91685e-94
-1.18645e-87
-6.96776e-96
-3.35245e-97
-1.07203e-91
-1.00775e-99
-1.12026e-100
-2.99375e-95
-2.77179e-103
-3.00139e-105
-7.02726e-99
-5.90358e-107
-8.51809e-110
-1.44733e-103
-2.34683e-111
-1.36628e-114
-3.21932e-108
-3.92442e-116
-2.53445e-120
-4.7769e-113
-4.38502e-121
-4.33607e-127
-5.82321e-119
-6.01546e-127
-9.14826e-136
-8.2357e-126
-1.10985e-133
-2.1143e-147
-1.34607e-134
-1.71832e-142
-1.95526e-161
-2.75504e-146
-3.29983e-154
-4.05141e-168
-1.8209e-160
-2.6429e-168
-7.55958e-168
-1.12759e-177
1.5281e-11
-7.06931e-09
3.57618e-16
3.93877e-11
-2.15221e-08
-2.03349e-15
-1.42892e-11
-3.40061e-08
-2.71813e-15
8.77071e-10
-5.92218e-08
-1.03396e-14
2.61518e-10
-8.08951e-08
-6.97409e-15
-5.11643e-10
-8.73975e-08
-7.72118e-15
-2.70574e-10
-9.46116e-08
-1.74553e-14
9.0931e-11
-1.01353e-07
-2.12684e-14
7.25267e-10
-1.01525e-07
9.65622e-15
2.37988e-09
-9.14214e-08
2.60539e-14
2.33965e-09
-8.35051e-08
4.80339e-15
1.53324e-09
-8.05931e-08
-3.92974e-15
3.21019e-10
-3.91102e-08
-1.81817e-15
1.03542e-11
-4.70786e-09
-1.90067e-16
1.0385e-13
-1.25079e-10
-4.38784e-18
8.19466e-16
-1.44339e-12
-4.65389e-20
4.46749e-18
-9.9201e-15
-2.71507e-22
2.2721e-20
-3.9388e-17
-9.39288e-25
1.81029e-22
-1.91207e-19
-4.41778e-27
6.04692e-25
-5.32261e-22
-1.1542e-29
1.19298e-27
-1.06113e-24
-2.16756e-32
1.47339e-30
-1.48972e-27
-2.98938e-35
1.0029e-33
-1.30702e-30
-2.71777e-38
1.37581e-37
-4.97567e-34
-1.30848e-41
-9.37882e-87
3.61487e-49
-1.02061e-45
-6.58208e-90
-4.08612e-84
-2.49439e-92
-9.86823e-94
-1.19504e-87
-7.14852e-96
-3.98681e-97
-1.08227e-91
-1.03191e-99
-1.23247e-100
-3.01035e-95
-2.80806e-103
-3.37067e-105
-6.68967e-99
-6.07172e-107
-9.63645e-110
-1.43909e-103
-2.25631e-111
-2.02619e-114
-3.38359e-108
-3.93297e-116
-2.56597e-120
-6.1702e-113
-6.02332e-121
-4.75075e-127
-5.24299e-119
-5.3497e-127
-9.8414e-136
-8.09875e-126
-1.12631e-133
-3.13808e-147
-1.34678e-134
-1.69991e-142
-2.36474e-161
-4.01482e-146
-4.57503e-154
-1.47489e-168
-2.03037e-160
-3.00127e-168
-2.44038e-168
-1.82358e-178
1.527e-11
-7.08458e-09
-4.79144e-17
4.25358e-11
-2.15494e-08
-3.75151e-15
3.4029e-12
-3.3967e-08
-6.45122e-15
7.27878e-10
-5.99463e-08
-1.20505e-14
1.99705e-10
-8.03669e-08
-5.85562e-15
-2.65225e-10
-8.69323e-08
-1.02876e-14
-3.38619e-10
-9.45353e-08
-1.33969e-14
-5.09027e-10
-1.01174e-07
-2.02843e-14
5.32004e-12
-1.02027e-07
1.9484e-14
2.06685e-09
-9.34716e-08
2.22561e-14
2.34292e-09
-8.3914e-08
3.37314e-15
1.594e-09
-8.2475e-08
-4.62875e-15
3.70239e-10
-4.32955e-08
-2.17952e-15
1.31169e-11
-5.78243e-09
-2.45413e-16
1.30625e-13
-1.62891e-10
-6.09373e-18
1.00501e-15
-1.88572e-12
-6.49576e-20
5.37061e-18
-1.27778e-14
-3.65074e-22
2.58706e-20
-4.97679e-17
-1.2522e-24
1.92462e-22
-2.16807e-19
-5.27877e-27
5.97116e-25
-5.62084e-22
-1.23264e-29
1.04684e-27
-1.01273e-24
-2.08103e-32
1.08294e-30
-1.22308e-27
-2.52565e-35
5.24839e-34
-8.2804e-31
-1.86572e-38
2.426e-52
-1.37924e-34
-5.66201e-42
-1.50124e-86
-5.80501e-81
5.39629e-57
-8.60384e-90
-4.06565e-84
-5.72094e-92
-1.20586e-93
-1.2029e-87
-7.26984e-96
-4.67381e-97
-1.09418e-91
-1.05789e-99
-1.33765e-100
-3.02015e-95
-2.83776e-103
-3.78208e-105
-6.33181e-99
-6.20277e-107
-1.26699e-109
-1.43947e-103
-2.15154e-111
-2.80728e-114
-4.48892e-108
-4.14302e-116
-2.52741e-120
-7.49727e-113
-7.76945e-121
-5.01884e-127
-4.62907e-119
-4.66671e-127
-1.14269e-135
-7.56098e-126
-1.10912e-133
-4.88254e-147
-1.6276e-134
-1.7564e-142
-2.88292e-161
-5.4338e-146
-6.65023e-154
-5.20787e-169
-2.28773e-160
-3.43864e-168
-7.6975e-169
-3.91693e-179
1.50709e-11
-7.09965e-09
-3.4725e-16
4.79626e-11
-2.15823e-08
1.25639e-15
1.24926e-11
-3.39316e-08
-5.71764e-15
5.91722e-10
-6.05255e-08
-1.23195e-14
1.71822e-10
-7.9947e-08
-6.9202e-15
-3.99568e-10
-8.63606e-08
-1.22666e-14
-1.12422e-09
-9.38078e-08
-1.88301e-14
-1.65601e-09
-1.00634e-07
-1.77315e-14
-9.57066e-10
-1.02712e-07
2.42621e-14
1.64581e-09
-9.60615e-08
2.22722e-14
2.34102e-09
-8.4694e-08
2.86942e-15
1.66021e-09
-8.41214e-08
-5.32571e-15
4.27217e-10
-4.76454e-08
-2.4879e-15
1.67266e-11
-7.07231e-09
-3.08113e-16
1.66026e-13
-2.12424e-10
-8.28233e-18
1.24269e-15
-2.47139e-12
-8.70849e-20
6.47806e-18
-1.64997e-14
-4.82864e-22
2.90602e-20
-6.19165e-17
-1.58847e-24
2.01477e-22
-2.4426e-19
-5.93603e-27
5.73811e-25
-5.90384e-22
-1.33625e-29
8.81303e-28
-9.5254e-25
-2.03023e-32
7.30378e-31
-9.64976e-28
-2.0869e-35
1.74026e-34
-4.55223e-31
-1.1558e-38
-1.16404e-83
1.84858e-47
-1.42078e-42
-2.13979e-86
-5.59865e-81
-6.52663e-89
-1.08248e-89
-4.04511e-84
-2.52316e-92
-1.44911e-93
-1.20982e-87
-7.38563e-96
-5.41358e-97
-1.108e-91
-1.08386e-99
-1.43524e-100
-3.02436e-95
-2.85847e-103
-4.29709e-105
-5.96674e-99
-6.28829e-107
-2.09665e-109
-1.47165e-103
-2.03694e-111
-3.65843e-114
-7.09575e-108
-5.36195e-116
-2.45039e-120
-8.60301e-113
-9.47183e-121
-5.00998e-127
-4.0576e-119
-4.05117e-127
-1.82128e-135
-6.70697e-126
-1.03158e-133
-6.74772e-147
-2.71648e-134
-2.33095e-142
-3.54363e-161
-6.4443e-146
-8.59848e-154
-1.79286e-169
-2.60482e-160
-3.97446e-168
-2.47638e-169
-1.1604e-179
1.46802e-11
-7.11433e-09
-6.60338e-16
5.2757e-11
-2.16203e-08
-2.84086e-15
7.49015e-12
-3.38863e-08
-7.58099e-15
4.73351e-10
-6.09914e-08
-1.23536e-14
3.80879e-11
-7.95117e-08
-6.68959e-15
-1.00765e-09
-8.53145e-08
-1.42426e-14
-2.3575e-09
-9.24552e-08
-2.02984e-14
-2.87484e-09
-1.00107e-07
-1.43213e-14
-1.70728e-09
-1.03863e-07
1.93551e-14
1.31084e-09
-9.90654e-08
1.84915e-14
2.36765e-09
-8.57947e-08
-5.15231e-15
1.74399e-09
-8.55197e-08
-6.60185e-15
4.95807e-10
-5.20774e-08
-2.7275e-15
2.15556e-11
-8.59343e-09
-3.85376e-16
2.13958e-13
-2.76399e-10
-1.10983e-17
1.55163e-15
-3.23254e-12
-1.14154e-19
7.85197e-18
-2.12274e-14
-6.27097e-22
3.25652e-20
-7.60718e-17
-1.97887e-24
2.10709e-22
-2.74938e-19
-6.84845e-27
5.43951e-25
-6.21428e-22
-1.39965e-29
7.18471e-28
-8.91279e-25
-1.88115e-32
4.47923e-31
-7.32365e-28
-1.61575e-35
6.60743e-51
-1.90364e-31
-6.03721e-39
-1.9177e-83
-5.24208e-66
2.9938e-55
-2.80014e-86
-5.43897e-81
-4.59772e-89
-1.32352e-89
-4.02967e-84
-2.53632e-92
-1.72031e-93
-1.2161e-87
-7.47655e-96
-6.2081e-97
-1.12396e-91
-1.10962e-99
-1.52589e-100
-3.02451e-95
-2.87146e-103
-4.9562e-105
-5.60751e-99
-6.33716e-107
-3.68525e-109
-1.52272e-103
-1.92085e-111
-4.49639e-114
-1.10517e-107
-8.36451e-116
-2.37075e-120
-9.3166e-113
-1.09785e-120
-4.80815e-127
-3.58628e-119
-3.57015e-127
-3.29082e-135
-5.80845e-126
-9.15403e-134
-8.29853e-147
-4.28054e-134
-3.84914e-142
-4.39243e-161
-6.9252e-146
-9.90463e-154
-6.28274e-170
-2.99714e-160
-4.63495e-168
-9.02724e-170
-5.46409e-180
1.40783e-11
-7.1284e-09
-1.70475e-15
5.28591e-11
-2.16591e-08
2.67643e-15
-1.34094e-11
-3.38201e-08
-7.49589e-15
3.6664e-10
-6.13714e-08
-1.07222e-14
-2.76729e-10
-7.88683e-08
-7.40881e-15
-1.91963e-09
-8.36714e-08
-1.19447e-14
-3.53232e-09
-9.08399e-08
-2.54925e-14
-3.64419e-09
-9.99859e-08
-1.83822e-14
-1.91056e-09
-1.05579e-07
1.29955e-14
1.21704e-09
-1.02177e-07
1.53033e-14
2.46208e-09
-8.70516e-08
-7.46033e-15
1.85791e-09
-8.66307e-08
-6.27855e-15
5.80995e-10
-5.64752e-08
-2.87204e-15
2.81409e-11
-1.03435e-08
-4.69679e-16
2.80095e-13
-3.57163e-10
-1.44316e-17
1.95592e-15
-4.1914e-12
-1.49734e-19
9.55084e-18
-2.69788e-14
-8.03462e-22
3.67062e-20
-9.15184e-17
-2.40005e-24
2.23395e-22
-3.10756e-19
-7.70554e-27
5.1521e-25
-6.58138e-22
-1.49356e-29
5.71364e-28
-8.3419e-25
-1.76452e-32
2.39988e-31
-5.29366e-28
-1.20504e-35
-8.53875e-69
-2.01348e-32
-2.3061e-39
-2.67612e-83
-5.05177e-66
-6.27346e-74
-3.50839e-86
-5.25117e-81
-8.37613e-89
-1.58536e-89
-4.01769e-84
-2.55379e-92
-2.02321e-93
-1.222e-87
-7.56296e-96
-7.0618e-97
-1.14235e-91
-1.13755e-99
-1.61178e-100
-3.02245e-95
-2.88327e-103
-5.7478e-105
-5.26722e-99
-6.36434e-107
-6.08829e-109
-1.59581e-103
-1.81357e-111
-5.22591e-114
-1.59105e-107
-1.31025e-115
-2.32746e-120
-9.57089e-113
-1.21118e-120
-4.56677e-127
-3.25429e-119
-3.2627e-127
-5.10966e-135
-5.06707e-126
-7.94247e-134
-9.43315e-147
-5.57076e-134
-5.76672e-142
-5.49143e-161
-7.02511e-146
-1.05631e-153
-2.49019e-170
-3.4854e-160
-5.45579e-168
-4.19115e-170
-4.51061e-180
1.33685e-11
-7.14176e-09
-5.0064e-16
4.28452e-11
-2.16886e-08
-2.82819e-15
-4.66779e-11
-3.37306e-08
-1.31465e-14
2.67237e-10
-6.16853e-08
-8.50572e-15
-7.26654e-10
-7.78744e-08
-4.25267e-15
-2.8101e-09
-8.15877e-08
-1.44252e-14
-4.22072e-09
-8.94269e-08
-2.45931e-14
-3.705e-09
-1.00492e-07
-2.35269e-14
-1.5311e-09
-1.07734e-07
7.90364e-15
1.39128e-09
-1.05082e-07
5.49155e-15
2.65137e-09
-8.83106e-08
-1.15195e-14
2.01118e-09
-8.74006e-08
-5.53713e-15
6.87827e-10
-6.06996e-08
-3.01664e-15
3.71821e-11
-1.22943e-08
-5.62077e-16
3.72069e-13
-4.55963e-10
-1.81545e-17
2.48189e-15
-5.34687e-12
-1.9224e-19
1.16029e-17