/*--------------------------------*- C++ -*----------------------------------*\
| =========                 |                                                 |
| \\      /  F ield         | OpenFOAM: The Open Source CFD Toolbox           |
|  \\    /   O peration     | Version:  v2012                                 |
|   \\  /    A nd           | Website:  www.openfoam.com                      |
|    \\/     M anipulation  |                                                 |
\*---------------------------------------------------------------------------*/
FoamFile
{
    version     2.0;
    format      ascii;
    class       volVectorField;
    location    "0.65";
    object      U;
}
// * * * * * * * * * * * * * * * * * * * * * * * * * * * * * * * * * * * * * //

dimensions      [0 1 -1 0 0 0 0];


internalField   nonuniform List<vector> 
3352
(
(0.0467561 -43.7393 -0.000408091)
(-0.0585814 -42.7602 0.000511126)
(0.108069 -41.9213 -0.00094342)
(-0.075091 -40.8378 0.000655234)
(0.198964 -45.4781 -0.00173606)
(0.303566 -44.0591 -0.00265028)
(-0.162224 -36.3233 0.00141483)
(-0.210974 -28.4971 0.00184215)
(0.159176 -21.0548 -0.00138771)
(0.268109 -16.3533 -0.00233885)
(0.236437 -15.6333 -0.00206196)
(0.21339 -15.1266 -0.00186278)
(0.197081 -14.4359 -0.00172027)
(0.183255 -13.6056 -0.00159957)
(0.171506 -12.7007 -0.00149704)
(0.159724 -11.8047 -0.00139422)
(0.147786 -10.9591 -0.00129003)
(0.135539 -10.1756 -0.00118314)
(0.123086 -9.45165 -0.00107446)
(0.110452 -8.77973 -0.000964198)
(0.097713 -8.15135 -0.000853014)
(0.0849263 -7.55887 -0.000741414)
(0.0721653 -6.99615 -0.000630037)
(0.0595033 -6.4586 -0.000519522)
(0.0470189 -5.94295 -0.000410556)
(0.0347935 -5.44698 -0.000303848)
(0.0229118 -4.96926 -0.000200139)
(0.0114629 -4.5089 -0.000100205)
(0.000540452 -4.06541 -4.8638e-06)
(-0.00975528 -3.63852 8.50098e-05)
(-0.0193156 -3.22813 0.000168468)
(-0.028022 -2.83422 0.000244475)
(-0.0357432 -2.45685 0.000311887)
(-0.0423316 -2.09614 0.000369415)
(-0.0476186 -1.7522 0.00041559)
(-0.0514032 -1.42519 0.000448658)
(-0.0534456 -1.11531 0.000466529)
(-0.0533982 -0.8228 0.000466179)
(-0.0508973 -0.547918 0.000444416)
(0.0430368 -43.7976 -0.000375621)
(-0.0448279 -42.8128 0.000391077)
(0.0944058 -41.9583 -0.000824284)
(-0.142408 -40.9567 0.00124275)
(0.266829 -46.1715 -0.00232844)
(0.167373 -43.5763 -0.00146192)
(-0.360424 -35.6303 0.00314467)
(-0.278557 -28.773 0.00243223)
(0.165623 -21.7444 -0.00144364)
(0.31695 -16.4967 -0.00277296)
(0.253917 -15.6283 -0.00221575)
(0.222739 -15.1301 -0.00194527)
(0.203035 -14.4443 -0.00177249)
(0.187816 -13.6143 -0.00163938)
(0.176037 -12.707 -0.00153658)
(0.164128 -11.8072 -0.00143265)
(0.151782 -10.9582 -0.0013249)
(0.13888 -10.1718 -0.00121229)
(0.125685 -9.44561 -0.00109713)
(0.112308 -8.77191 -0.000980378)
(0.0988926 -8.14217 -0.000863295)
(0.0855215 -7.54868 -0.000746594)
(0.0722764 -6.98525 -0.000630992)
(0.0592229 -6.44726 -0.000517063)
(0.0464279 -5.93139 -0.000405388)
(0.0339582 -5.43541 -0.000296551)
(0.0218847 -4.95785 -0.000191172)
(0.0102846 -4.49784 -8.99235e-05)
(-0.000758353 -4.05482 6.46416e-06)
(-0.0111519 -3.62854 9.71855e-05)
(-0.0207938 -3.21887 0.000181349)
(-0.0295709 -2.82581 0.000257965)
(-0.0373572 -2.4494 0.000325936)
(-0.0440108 -2.08975 0.000384023)
(-0.0493713 -1.74698 0.000430828)
(-0.0532502 -1.42128 0.000464704)
(-0.0554334 -1.11284 0.000483783)
(-0.0556174 -0.821954 0.000485422)
(-0.0535757 -0.548998 0.000467621)
(0.0314844 -43.8247 -0.000274791)
(-0.0229936 -42.806 0.000200524)
(0.0719433 -41.8663 -0.000628326)
(-0.168904 -41.0023 0.00147403)
(0.225141 -46.3189 -0.00196496)
(-0.112192 -43.0301 0.000977945)
(-0.271514 -35.5322 0.00236947)
(-0.1085 -29.1039 0.000948257)
(0.250397 -22.1215 -0.00218375)
(0.346026 -16.5463 -0.00302277)
(0.279468 -15.6051 -0.0024389)
(0.240295 -15.12 -0.00209831)
(0.213876 -14.442 -0.00186714)
(0.194248 -13.6159 -0.00169556)
(0.180141 -12.7093 -0.00157242)
(0.167162 -11.8082 -0.00145914)
(0.154324 -10.9575 -0.0013471)
(0.141099 -10.1697 -0.00123168)
(0.127613 -9.44214 -0.00111398)
(0.113903 -8.7674 -0.000994314)
(0.100116 -8.1368 -0.000873982)
(0.0863431 -7.54261 -0.000753777)
(0.0726884 -6.97863 -0.000634598)
(0.0592323 -6.4402 -0.000517153)
(0.0460538 -5.92401 -0.000402127)
(0.0332255 -5.42783 -0.000290159)
(0.0208213 -4.95018 -0.000181891)
(0.00891791 -4.49018 -7.7992e-05)
(-0.00240284 -4.0473 2.08223e-05)
(-0.0130515 -3.62125 0.000113772)
(-0.0229291 -3.21194 0.000199995)
(-0.0319272 -2.81934 0.000278541)
(-0.0399252 -2.44351 0.000348361)
(-0.0467892 -2.08456 0.000408286)
(-0.0523719 -1.74261 0.000457029)
(-0.0565059 -1.41785 0.000493132)
(-0.0590174 -1.1105 0.000515074)
(-0.0596766 -0.820847 0.000520856)
(-0.0584093 -0.549286 0.000509814)
(0.027663 -43.8893 -0.000241432)
(-0.00701964 -42.8587 6.11136e-05)
(0.0681648 -41.7696 -0.00059542)
(-0.211341 -41.0568 0.00184439)
(0.193285 -46.4348 -0.00168711)
(-0.24709 -42.631 0.00215564)
(-0.0748625 -35.6168 0.000653739)
(0.00731437 -29.4291 -6.28507e-05)
(0.329333 -22.5083 -0.00287364)
(0.370886 -16.6009 -0.00323978)
(0.298768 -15.5813 -0.00260801)
(0.254412 -15.1075 -0.00222175)
(0.224316 -14.4378 -0.00195838)
(0.201915 -13.6169 -0.0017625)
(0.186042 -12.7117 -0.00162394)
(0.171946 -11.8091 -0.00150091)
(0.158274 -10.9562 -0.00138158)
(0.144326 -10.1663 -0.00125984)
(0.130165 -9.437 -0.00113625)
(0.115802 -8.76087 -0.00101089)
(0.10139 -8.12925 -0.000885106)
(0.0870239 -7.53432 -0.000759724)
(0.0728149 -6.96984 -0.000635709)
(0.0588453 -6.43112 -0.000513782)
(0.0451937 -5.91482 -0.000394629)
(0.0319303 -5.41865 -0.000278863)
(0.0191251 -4.94114 -0.000167095)
(0.00685062 -4.48138 -5.99581e-05)
(-0.00481542 -4.03884 4.187e-05)
(-0.0157876 -3.61322 0.000137644)
(-0.0259713 -3.20443 0.000226538)
(-0.0352625 -2.81244 0.000307643)
(-0.043547 -2.4373 0.000379965)
(-0.0507003 -2.07911 0.000442416)
(-0.0565901 -1.73802 0.00049384)
(-0.0610733 -1.41419 0.000532991)
(-0.0640185 -1.10784 0.000558719)
(-0.0652719 -0.819251 0.000569686)
(-0.0648713 -0.54875 0.000566212)
(0.0231096 -43.9428 -0.00020169)
(0.00257083 -42.8827 -2.25788e-05)
(0.0543377 -41.5748 -0.000474793)
(-0.259771 -41.0492 0.00226709)
(0.150969 -46.3994 -0.00131787)
(-0.313881 -42.4412 0.00273902)
(0.164649 -35.9208 -0.00143619)
(0.104735 -29.6881 -0.00091355)
(0.382641 -22.7867 -0.00333914)
(0.386488 -16.6266 -0.0033737)
(0.315141 -15.5463 -0.00275125)
(0.265798 -15.0905 -0.0023213)
(0.233179 -14.4303 -0.00203582)
(0.208563 -13.6152 -0.00182055)
(0.191169 -12.7123 -0.0016687)
(0.176063 -11.809 -0.00153685)
(0.161655 -10.9545 -0.0014111)
(0.1471 -10.1628 -0.00128406)
(0.132382 -9.43199 -0.00115561)
(0.117463 -8.75459 -0.0010254)
(0.102487 -8.12196 -0.00089469)
(0.0875484 -7.52627 -0.000764308)
(0.0727681 -6.96124 -0.000635306)
(0.0582376 -6.42216 -0.000508483)
(0.0440438 -5.90564 -0.000384597)
(0.0302619 -5.40941 -0.000264306)
(0.0169647 -4.93196 -0.000148243)
(0.0042252 -4.47238 -3.70469e-05)
(-0.00787986 -4.03012 6.86131e-05)
(-0.0192671 -3.6049 0.00016801)
(-0.0298448 -3.19659 0.000260343)
(-0.0395135 -2.80518 0.000344743)
(-0.0481653 -2.43071 0.000420269)
(-0.0556855 -2.07328 0.000485922)
(-0.0619572 -1.73303 0.000540679)
(-0.0668622 -1.4101 0.00058351)
(-0.070307 -1.10471 0.000613597)
(-0.0722021 -0.817074 0.000630162)
(-0.0726506 -0.547464 0.000634097)
(0.0200244 -44.0102 -0.000174755)
(0.0147411 -42.9342 -0.00012878)
(0.0481136 -41.331 -0.000420511)
(-0.296264 -41.0369 0.00258567)
(0.152412 -46.3831 -0.00133037)
(-0.248942 -42.5214 0.00217266)
(0.372357 -36.2985 -0.00324888)
(0.129497 -29.8389 -0.00113022)
(0.372862 -23.0033 -0.0032536)
(0.387512 -16.671 -0.00337977)
(0.326755 -15.5083 -0.00285237)
(0.273377 -15.0719 -0.00238753)
(0.239441 -14.4219 -0.00209056)
(0.213492 -13.613 -0.00186358)
(0.195221 -12.7125 -0.00170406)
(0.17947 -11.8085 -0.00156659)
(0.164502 -10.9523 -0.00143595)
(0.149403 -10.1587 -0.00130417)
(0.134138 -9.42628 -0.00117094)
(0.118657 -8.74752 -0.00103583)
(0.103109 -8.11384 -0.000900123)
(0.0875891 -7.51739 -0.00076467)
(0.072227 -6.95184 -0.000630591)
(0.0571196 -6.41243 -0.000498732)
(0.0423593 -5.89576 -0.000369902)
(0.0280253 -5.39951 -0.000244791)
(0.014193 -4.92218 -0.000124059)
(0.00093744 -4.46282 -8.35817e-06)
(-0.0116637 -4.02089 0.000101631)
(-0.0235268 -3.59609 0.000205182)
(-0.0345615 -3.1883 0.000301504)
(-0.0446705 -2.79749 0.000389747)
(-0.0537512 -2.42371 0.000469017)
(-0.0616972 -2.06704 0.000538386)
(-0.0684053 -1.7276 0.000596952)
(-0.0737784 -1.40555 0.000643868)
(-0.0777532 -1.10105 0.00067858)
(-0.0802866 -0.814297 0.000700713)
(-0.0815087 -0.545471 0.000711399)
(0.015063 -44.0771 -0.000131448)
(0.0282561 -42.9855 -0.000246716)
(0.0332265 -41.0205 -0.000290591)
(-0.306888 -41.0591 0.00267854)
(0.212109 -46.4648 -0.0018512)
(-0.0926084 -42.7744 0.000808333)
(0.458741 -36.5679 -0.00400306)
(0.056373 -29.8577 -0.000492515)
(0.281721 -23.1892 -0.00245758)
(0.371451 -16.7727 -0.00323762)
(0.333805 -15.4721 -0.00291314)
(0.277468 -15.0515 -0.00242321)
(0.242871 -14.4124 -0.00212058)
(0.216068 -13.6099 -0.00188608)
(0.197318 -12.7122 -0.00172237)
(0.181259 -11.8078 -0.00158221)
(0.166003 -10.9499 -0.00144906)
(0.150585 -10.1544 -0.00131449)
(0.134952 -9.42029 -0.00117805)
(0.119049 -8.74013 -0.00103925)
(0.103029 -8.10536 -0.000899439)
(0.086998 -7.50809 -0.000759518)
(0.0710935 -6.94198 -0.000620704)
(0.0554234 -6.40221 -0.000483934)
(0.0400902 -5.88536 -0.000350104)
(0.0251813 -5.38908 -0.000219975)
(0.010779 -4.91185 -9.42681e-05)
(-0.00303609 -4.45272 2.63163e-05)
(-0.0161823 -4.01112 0.000141064)
(-0.0285735 -3.58676 0.000249224)
(-0.0401178 -3.1795 0.000349994)
(-0.0507188 -2.7893 0.000442531)
(-0.0602769 -2.41621 0.000525968)
(-0.0686922 -2.0603 0.000599433)
(-0.0758723 -1.72169 0.000662118)
(-0.0817367 -1.40049 0.000713321)
(-0.0862426 -1.09686 0.000752668)
(-0.0893765 -0.810929 0.000780041)
(-0.0912682 -0.542831 0.000796572)
(0.00662027 -44.1506 -5.7758e-05)
(0.0498947 -43.0532 -0.000435549)
(0.0088875 -40.6866 -7.81415e-05)
(-0.26712 -41.2128 0.00233165)
(0.337384 -46.706 -0.00294437)
(0.0990728 -43.0482 -0.000864897)
(0.383131 -36.5729 -0.00334377)
(-0.0995921 -29.7633 0.000868421)
(0.130763 -23.4076 -0.00113919)
(0.341583 -16.9761 -0.00297548)
(0.336226 -15.4488 -0.0029333)
(0.278614 -15.0311 -0.00243303)
(0.243721 -14.4026 -0.0021281)
(0.216445 -13.6065 -0.00188939)
(0.197478 -12.712 -0.00172378)
(0.181383 -11.807 -0.00158329)
(0.166051 -10.9473 -0.00144947)
(0.150492 -10.1499 -0.00131368)
(0.134636 -9.41393 -0.0011753)
(0.118434 -8.73229 -0.00103389)
(0.102046 -8.09636 -0.000890859)
(0.0855842 -7.49823 -0.000747184)
(0.0691982 -6.93151 -0.000604168)
(0.0530056 -6.39136 -0.000462839)
(0.0371199 -5.87432 -0.000324186)
(0.0216386 -5.37802 -0.000189062)
(0.00665401 -4.9009 -5.82719e-05)
(-0.00774476 -4.442 6.74065e-05)
(-0.0214684 -4.00075 0.000187194)
(-0.0344249 -3.57683 0.000300287)
(-0.0465179 -3.17012 0.000405848)
(-0.0576492 -2.78055 0.000503013)
(-0.0677196 -2.40817 0.000590922)
(-0.076633 -2.05303 0.000668734)
(-0.084304 -1.71524 0.000735704)
(-0.0906635 -1.39489 0.000791228)
(-0.0956807 -1.09211 0.000835037)
(-0.0993567 -0.80699 0.000867141)
(-0.101806 -0.53961 0.000888538)
(-0.00724752 -44.2271 6.32779e-05)
(0.0798938 -43.1264 -0.000697354)
(-0.0296038 -40.3599 0.000257851)
(-0.182701 -41.5738 0.00159509)
(0.49344 -47.0767 -0.00430629)
(0.235119 -43.1342 -0.00205292)
(0.156092 -36.2499 -0.00136298)
(-0.277606 -29.6224 0.00242216)
(-0.0274934 -23.7005 0.000242871)
(0.309708 -17.2944 -0.00269627)
(0.335783 -15.4443 -0.00292904)
(0.277948 -15.0107 -0.00242703)
(0.242541 -14.3921 -0.00211792)
(0.214876 -13.6026 -0.00187572)
(0.195702 -12.7115 -0.00170828)
(0.179725 -11.8061 -0.00156882)
(0.16447 -10.9446 -0.00143568)
(0.148947 -10.1451 -0.0013002)
(0.133028 -9.40734 -0.00116127)
(0.116676 -8.72413 -0.00101855)
(0.100043 -8.08695 -0.000873378)
(0.0832511 -7.48789 -0.000726825)
(0.0664586 -6.9205 -0.000580262)
(0.0497951 -6.37993 -0.000434823)
(0.0333867 -5.86266 -0.000291609)
(0.0173447 -5.36631 -0.000151591)
(0.00177422 -4.88928 -1.56881e-05)
(-0.0132231 -4.43062 0.000115214)
(-0.027547 -3.98972 0.000240241)
(-0.0410959 -3.56626 0.000358505)
(-0.0537665 -3.16011 0.000469106)
(-0.0654553 -2.77119 0.000571138)
(-0.0760611 -2.39953 0.00066372)
(-0.0854883 -2.04519 0.000746017)
(-0.093655 -1.70823 0.000817313)
(-0.100498 -1.38874 0.00087706)
(-0.105992 -1.08681 0.000925028)
(-0.110142 -0.802507 0.000961267)
(-0.113039 -0.535866 0.000986572)
(-0.0256668 -44.3091 0.000224038)
(0.116974 -43.2035 -0.00102096)
(-0.079032 -40.0748 0.000689311)
(-0.0707767 -42.1663 0.000618428)
(0.632163 -47.4869 -0.00551711)
(0.24752 -42.879 -0.00216196)
(-0.134932 -35.6793 0.0011764)
(-0.391915 -29.5452 0.00342027)
(-0.136786 -24.0707 0.00119733)
(0.291595 -17.7043 -0.00253824)
(0.33473 -15.4573 -0.0029208)
(0.276489 -14.9903 -0.00241429)
(0.239949 -14.3807 -0.00209545)
(0.211784 -13.598 -0.00184878)
(0.192251 -12.7108 -0.00167817)
(0.17645 -11.8051 -0.00154025)
(0.161348 -10.9419 -0.00140843)
(0.145984 -10.1403 -0.00127434)
(0.130125 -9.40053 -0.00113593)
(0.113744 -8.71566 -0.000992962)
(0.0969741 -8.07715 -0.0008466)
(0.0799459 -7.47707 -0.000697981)
(0.0628201 -6.90895 -0.00054851)
(0.045739 -6.36788 -0.000399427)
(0.0288419 -5.85034 -0.000251948)
(0.0122558 -5.3539 -0.000107183)
(-0.00389779 -4.87696 3.38102e-05)
(-0.0195017 -4.41852 0.000170007)
(-0.0344412 -3.97798 0.000300406)
(-0.0486018 -3.55499 0.00042401)
(-0.0618698 -3.14942 0.000539825)
(-0.0741339 -2.76118 0.000646878)
(-0.0852876 -2.39027 0.000744242)
(-0.0952332 -2.03674 0.000831064)
(-0.103889 -1.70064 0.000906626)
(-0.111193 -1.38203 0.000970395)
(-0.117119 -1.08097 0.00102214)
(-0.12167 -0.79751 0.00106188)
(-0.124911 -0.531651 0.00109019)
(-0.0473723 -44.3952 0.000413476)
(0.15785 -43.2767 -0.00137769)
(-0.135136 -39.842 0.00117903)
(0.0479542 -42.9501 -0.000417723)
(0.704332 -47.796 -0.00614725)
(0.136317 -42.2609 -0.00119204)
(-0.370249 -35.0554 0.00323003)
(-0.392001 -29.6082 0.00342169)
(-0.15811 -24.4824 0.00138361)
(0.297684 -18.1509 -0.0025922)
(0.33559 -15.4762 -0.00293102)
(0.274979 -14.9681 -0.00240146)
(0.236425 -14.3675 -0.00206493)
(0.207473 -13.5922 -0.0018112)
(0.187338 -12.7096 -0.00163529)
(0.171706 -11.804 -0.00149884)
(0.156789 -10.9391 -0.00136865)
(0.141682 -10.1353 -0.0012368)
(0.125982 -9.39354 -0.00109978)
(0.109679 -8.70692 -0.000957484)
(0.0928661 -8.06699 -0.000810748)
(0.0756804 -7.46579 -0.000660755)
(0.0582826 -6.89685 -0.000508911)
(0.0408274 -6.35523 -0.000356564)
(0.0234686 -5.83735 -0.000205056)
(0.00635125 -5.34079 -5.56539e-05)
(-0.0103844 -4.8639 9.0418e-05)
(-0.0266021 -4.40567 0.000231971)
(-0.0421693 -3.96549 0.00036785)
(-0.0569561 -3.54299 0.000496919)
(-0.0708351 -3.13802 0.000618067)
(-0.0836846 -2.75047 0.000730229)
(-0.0953902 -2.38035 0.000832411)
(-0.105849 -2.02766 0.000923715)
(-0.114977 -1.69245 0.0010034)
(-0.12271 -1.37476 0.00107092)
(-0.129018 -1.07461 0.00112599)
(-0.133897 -0.792029 0.0011686)
(-0.137389 -0.527008 0.0011991)
(-0.0700764 -44.4853 0.000611629)
(0.199218 -43.3426 -0.00173872)
(-0.192887 -39.6619 0.00168311)
(0.160749 -43.8485 -0.00140216)
(0.684685 -47.8919 -0.00597613)
(-0.0288394 -41.4203 0.000249227)
(-0.45624 -34.5857 0.00398091)
(-0.278632 -29.8148 0.00243287)
(-0.102453 -24.8813 0.00089778)
(0.326861 -18.5762 -0.00284724)
(0.339393 -15.4853 -0.00296837)
(0.273608 -14.9415 -0.00239024)
(0.232208 -14.3516 -0.00202843)
(0.20215 -13.5847 -0.00176483)
(0.181196 -12.7076 -0.0015817)
(0.165707 -11.8025 -0.00144648)
(0.150995 -10.9361 -0.00131808)
(0.136215 -10.1302 -0.00118908)
(0.120747 -9.38637 -0.00105408)
(0.104597 -8.69792 -0.000913128)
(0.0878053 -8.05647 -0.000766579)
(0.0705155 -7.45406 -0.000615679)
(0.0528844 -6.8842 -0.000461799)
(0.0350805 -6.34193 -0.000306409)
(0.0172726 -5.82366 -0.000150983)
(-0.000373575 -5.32692 3.03401e-06)
(-0.0176966 -4.85005 0.000154232)
(-0.0345385 -4.39203 0.000301233)
(-0.0507462 -3.9522 0.000442701)
(-0.0661713 -3.53021 0.000577342)
(-0.0806707 -3.12586 0.000703905)
(-0.0941096 -2.73905 0.000821212)
(-0.106364 -2.36974 0.000928185)
(-0.117325 -2.01794 0.00102386)
(-0.1269 -1.68367 0.00110746)
(-0.135025 -1.36693 0.00117839)
(-0.141661 -1.06773 0.00123633)
(-0.146795 -0.78609 0.00128117)
(-0.15045 -0.521973 0.0013131)
(-0.0924004 -44.5783 0.000806462)
(0.238222 -43.399 -0.00207912)
(-0.245903 -39.5267 0.00214585)
(0.25807 -44.7651 -0.00225161)
(0.577628 -47.7488 -0.00504206)
(-0.149122 -40.5902 0.00129933)
(-0.382103 -34.375 0.00333454)
(-0.10646 -30.0998 0.000930563)
(-0.0288298 -25.2165 0.000255143)
(0.358302 -18.9469 -0.00312189)
(0.3455 -15.4746 -0.00302646)
(0.272248 -14.9081 -0.0023793)
(0.227372 -14.3324 -0.00198661)
(0.195968 -13.5751 -0.00171097)
(0.174049 -12.7045 -0.00151934)
(0.158686 -11.8006 -0.0013852)
(0.144204 -10.9328 -0.00125881)
(0.129806 -10.125 -0.00113314)
(0.114618 -9.37901 -0.00100059)
(0.0986662 -8.68865 -0.000861367)
(0.081928 -8.04557 -0.000715283)
(0.0645548 -7.44184 -0.000563656)
(0.0466994 -6.87097 -0.00040782)
(0.0285461 -6.32797 -0.000249382)
(0.0102807 -5.80923 -8.9963e-05)
(-0.00790835 -5.31226 6.8791e-05)
(-0.0258358 -4.83538 0.000225264)
(-0.0433194 -4.37754 0.000377866)
(-0.0601837 -3.93808 0.000525064)
(-0.0762596 -3.51661 0.000665385)
(-0.0913862 -3.11291 0.000797423)
(-0.105415 -2.72687 0.000919876)
(-0.118209 -2.35843 0.00103156)
(-0.129652 -2.00756 0.00113146)
(-0.139646 -1.67427 0.0012187)
(-0.148119 -1.35854 0.00129267)
(-0.155025 -1.06036 0.00135298)
(-0.160345 -0.77972 0.00139943)
(-0.164082 -0.51658 0.00143208)
(-0.112118 -44.6736 0.00097855)
(0.271984 -43.448 -0.00237376)
(-0.288063 -39.4289 0.00251384)
(0.332754 -45.6155 -0.00290355)
(0.419887 -47.4357 -0.00366551)
(-0.165863 -39.9641 0.00144603)
(-0.229512 -34.398 0.00200335)
(0.0375483 -30.3561 -0.00032625)
(-0.012765 -25.4612 0.000114915)
(0.360276 -19.2757 -0.00313928)
(0.350636 -15.4516 -0.0030756)
(0.270718 -14.8665 -0.00236669)
(0.221995 -14.3092 -0.00194011)
(0.189166 -13.5631 -0.00165173)
(0.166211 -12.7002 -0.00145094)
(0.150967 -11.7982 -0.00131784)
(0.13674 -10.9294 -0.00119366)
(0.122751 -10.1195 -0.00107156)
(0.107856 -9.37143 -0.000941573)
(0.0921059 -8.67908 -0.000804108)
(0.0754101 -8.03426 -0.000658396)
(0.0579335 -7.4291 -0.000505868)
(0.0398258 -6.8571 -0.00034783)
(0.0212905 -6.31327 -0.000186059)
(0.00253267 -5.794 -2.23441e-05)
(-0.0162336 -5.29675 0.000141447)
(-0.0347974 -4.81983 0.000303473)
(-0.0529504 -4.36217 0.000461917)
(-0.0704929 -3.92308 0.000615034)
(-0.0872338 -3.50215 0.00076116)
(-0.102994 -3.09914 0.000898726)
(-0.117608 -2.71392 0.0010263)
(-0.13093 -2.34639 0.00114258)
(-0.142831 -1.99652 0.00124648)
(-0.153208 -1.66427 0.00133707)
(-0.161982 -1.34961 0.00141366)
(-0.1691 -1.05252 0.00147582)
(-0.174535 -0.772944 0.00152328)
(-0.178279 -0.510855 0.00155599)
(-0.128589 -44.7702 0.00112229)
(0.298484 -43.4943 -0.00260502)
(-0.313446 -39.3606 0.00273539)
(0.379548 -46.3473 -0.0033121)
(0.259581 -47.0725 -0.00226643)
(-0.086958 -39.6029 0.000757932)
(-0.121554 -34.5119 0.00106123)
(0.064064 -30.4831 -0.000557859)
(-0.106197 -25.6186 0.000930414)
(0.308958 -19.6173 -0.00269084)
(0.35102 -15.4459 -0.00308177)
(0.269222 -14.8181 -0.00235391)
(0.216442 -14.2821 -0.00189205)
(0.182213 -13.5487 -0.0015912)
(0.158151 -12.6946 -0.00138061)
(0.142991 -11.7952 -0.00124823)
(0.129006 -10.9256 -0.00112616)
(0.115405 -10.1138 -0.00100745)
(0.100768 -9.36358 -0.000879701)
(0.0851686 -8.66914 -0.00074356)
(0.0684535 -8.02247 -0.000597681)
(0.050806 -7.41575 -0.000443662)
(0.0323754 -6.84252 -0.000282808)
(0.0133892 -6.29777 -0.000117103)
(-0.00592546 -5.77788 5.14719e-05)
(-0.0253266 -5.28031 0.000220804)
(-0.0445757 -4.80333 0.000388811)
(-0.0634372 -4.34585 0.000553438)
(-0.0816862 -3.90715 0.000712722)
(-0.0991093 -3.48679 0.000864802)
(-0.115508 -3.08452 0.00100795)
(-0.130703 -2.70016 0.00114058)
(-0.144534 -2.33361 0.00126132)
(-0.156865 -1.9848 0.00136896)
(-0.167585 -1.65366 0.00146255)
(-0.176609 -1.34015 0.00154133)
(-0.18388 -1.04421 0.00160481)
(-0.189362 -0.765783 0.00165269)
(-0.193039 -0.504826 0.00168482)
(-0.140649 -44.8674 0.00122755)
(0.316388 -43.5449 -0.00276126)
(-0.321225 -39.3138 0.00280325)
(0.396084 -46.9466 -0.00345655)
(0.132801 -46.76 -0.00115987)
(0.0177484 -39.4113 -0.000155702)
(-0.159513 -34.5215 0.00139204)
(-0.0687668 -30.4386 0.000601122)
(-0.295733 -25.7337 0.00258482)
(0.209047 -20.0397 -0.00181797)
(0.346089 -15.4961 -0.0030393)
(0.268542 -14.7665 -0.00234784)
(0.211545 -14.2509 -0.00184966)
(0.175856 -13.5318 -0.00153589)
(0.150538 -12.6876 -0.00131419)
(0.135329 -11.7916 -0.00118135)
(0.121496 -10.9215 -0.00106061)
(0.10818 -10.1079 -0.000944392)
(0.0936929 -9.35538 -0.000817954)
(0.078128 -8.65873 -0.000682111)
(0.0612719 -8.01008 -0.000535002)
(0.0433316 -7.40169 -0.000378429)
(0.0244615 -6.82711 -0.000213741)
(0.00491688 -6.28136 -4.31625e-05)
(-0.0150504 -5.7608 0.000131107)
(-0.0351681 -5.26286 0.000306692)
(-0.055169 -4.7858 0.000481261)
(-0.0747898 -4.32851 0.000652515)
(-0.0937804 -3.89022 0.000818272)
(-0.111906 -3.47049 0.000976481)
(-0.128949 -3.06901 0.00112525)
(-0.144716 -2.68559 0.00126288)
(-0.159035 -2.32008 0.00138788)
(-0.171763 -1.9724 0.00149898)
(-0.182781 -1.64246 0.00159518)
(-0.192001 -1.33016 0.00167568)
(-0.199361 -1.03546 0.00173994)
(-0.204822 -0.75826 0.00178762)
(-0.208361 -0.498516 0.00181856)
(-0.148722 -44.9638 0.001298)
(0.326402 -43.6059 -0.00284864)
(-0.315274 -39.2768 0.00275125)
(0.385217 -47.4266 -0.00336181)
(0.050958 -46.523 -0.000445513)
(0.0539043 -39.1917 -0.000471478)
(-0.364434 -34.2817 0.00317964)
(-0.324039 -30.2668 0.00282874)
(-0.500557 -25.8848 0.00437286)
(0.101851 -20.5831 -0.000881826)
(0.339898 -15.6265 -0.00298315)
(0.270022 -14.7154 -0.00236084)
(0.208548 -14.2159 -0.00182383)
(0.171044 -13.5122 -0.00149409)
(0.144197 -12.679 -0.00125887)
(0.128639 -11.7873 -0.00112297)
(0.114753 -10.917 -0.00100177)
(0.101515 -10.1015 -0.000886219)
(0.0869825 -9.34667 -0.000759386)
(0.071256 -8.6477 -0.000622135)
(0.0540703 -7.99695 -0.000472151)
(0.0356587 -7.38676 -0.000311465)
(0.0161849 -6.81074 -0.000141509)
(-0.00406456 -6.26391 3.52198e-05)
(-0.0248106 -5.74262 0.000216285)
(-0.0457494 -5.24429 0.000399037)
(-0.066585 -4.76717 0.00058089)
(-0.0870263 -4.31008 0.000759306)
(-0.106799 -3.87226 0.000931893)
(-0.125648 -3.4532 0.00109642)
(-0.14334 -3.05258 0.00125085)
(-0.159667 -2.67017 0.00139337)
(-0.17445 -2.30579 0.00152241)
(-0.187536 -1.95933 0.00163665)
(-0.198804 -1.63066 0.00173502)
(-0.208163 -1.31967 0.00181673)
(-0.215547 -1.02628 0.00188121)
(-0.220917 -0.750398 0.0019281)
(-0.224248 -0.491949 0.00195722)
(-0.153366 -45.0584 0.00133853)
(0.330465 -43.6798 -0.00288408)
(-0.306004 -39.2337 0.00267027)
(0.355814 -47.8122 -0.00310524)
(-0.00151384 -46.2945 1.24036e-05)
(-0.0401593 -38.7555 0.000349002)
(-0.665366 -33.7877 0.00580525)
(-0.593836 -30.0843 0.00518329)
(-0.629756 -26.1545 0.00550089)
(0.0354527 -21.2255 -0.00030221)
(0.340922 -15.8295 -0.0029874)
(0.275416 -14.6648 -0.00240903)
(0.208774 -14.1765 -0.00182615)
(0.168748 -13.4897 -0.00147427)
(0.139971 -12.6686 -0.00122203)
(0.123584 -11.782 -0.00107886)
(0.109316 -10.9118 -0.000954309)
(0.0958274 -10.0945 -0.000836578)
(0.0809603 -9.33727 -0.000706828)
(0.0647949 -8.63585 -0.000565747)
(0.0470241 -7.98286 -0.000410657)
(0.0279063 -7.37076 -0.00024381)
(0.00761947 -6.79321 -6.67586e-05)
(-0.0135171 -6.24525 0.000117712)
(-0.0351952 -5.7232 0.000306913)
(-0.0570796 -5.22449 0.000497917)
(-0.0788457 -4.74732 0.000687892)
(-0.100177 -4.29048 0.000874072)
(-0.120776 -3.85318 0.00105387)
(-0.140371 -3.43487 0.00122491)
(-0.158712 -3.0352 0.00138501)
(-0.175584 -2.65389 0.00153228)
(-0.190798 -2.29073 0.0016651)
(-0.2042 -1.94558 0.00178209)
(-0.215664 -1.61827 0.00188218)
(-0.2251 -1.30869 0.00196456)
(-0.232441 -1.0167 0.00202866)
(-0.237649 -0.742218 0.00207415)
(-0.240701 -0.485148 0.00210083)
(-0.156264 -45.1498 0.00136381)
(0.331487 -43.7615 -0.00289299)
(-0.305601 -39.1686 0.00266668)
(0.323538 -48.124 -0.00282355)
(-0.0520338 -45.9536 0.000453157)
(-0.249715 -38.0299 0.00217752)
(-0.945694 -33.1745 0.00825156)
(-0.767569 -30.0196 0.00669974)
(-0.632068 -26.5756 0.00552133)
(0.0339578 -21.8998 -0.000289224)
(0.356087 -16.0721 -0.00311518)
(0.286482 -14.6105 -0.0025082)
(0.213224 -14.1319 -0.00186546)
(0.169774 -13.4638 -0.00148347)
(0.138573 -12.6559 -0.00120987)
(0.120733 -11.7754 -0.00105398)
(0.105639 -10.9056 -0.000922229)
(0.0914644 -10.0866 -0.000798503)
(0.0758863 -9.32688 -0.000662549)
(0.0589284 -8.62292 -0.000514551)
(0.0402552 -7.96758 -0.000351588)
(0.0201463 -7.35348 -0.000176091)
(-0.00120218 -6.77434 1.02261e-05)
(-0.0234377 -6.2252 0.000204288)
(-0.0462229 -5.7024 0.000403151)
(-0.0691915 -5.20333 0.000603618)
(-0.0919926 -4.72615 0.000802627)
(-0.114286 -4.26964 0.000997207)
(-0.135756 -3.83294 0.00118461)
(-0.156114 -3.41547 0.00136231)
(-0.175103 -3.01684 0.00152806)
(-0.192497 -2.63673 0.0016799)
(-0.208106 -2.2749 0.00181616)
(-0.221773 -1.93115 0.00193547)
(-0.233375 -1.60531 0.00203675)
(-0.24282 -1.29722 0.00211923)
(-0.250048 -1.00674 0.00218234)
(-0.255021 -0.733745 0.00222577)
(-0.257722 -0.478136 0.00224939)
(-0.157698 -45.2368 0.00137632)
(0.330601 -43.8355 -0.00288526)
(-0.325519 -39.0733 0.00284041)
(0.306424 -48.3767 -0.00267419)
(-0.121528 -45.4061 0.00105942)
(-0.494185 -37.0819 0.00431101)
(-1.11377 -32.6259 0.00971879)
(-0.795567 -30.1482 0.00694459)
(-0.517167 -27.1169 0.00451873)
(0.0868316 -22.5342 -0.000750714)
(0.388436 -16.3189 -0.00339603)
(0.304445 -14.5446 -0.00266893)
(0.222383 -14.0811 -0.001946)
(0.174625 -13.434 -0.00152606)
(0.14046 -12.6406 -0.00122639)
(0.120479 -11.7671 -0.00105178)
(0.104035 -10.8981 -0.00090823)
(0.088654 -10.0774 -0.000773984)
(0.0719176 -9.31518 -0.00062792)
(0.0537519 -8.60857 -0.000469382)
(0.0338102 -7.9508 -0.000295348)
(0.0123863 -7.33464 -0.000108374)
(-0.0103014 -6.75387 8.96311e-05)
(-0.0338685 -6.20356 0.000295315)
(-0.0579487 -5.68004 0.000505481)
(-0.0821476 -5.18066 0.000716686)
(-0.10609 -4.70355 0.00092566)
(-0.129417 -4.24745 0.00112926)
(-0.151797 -3.81146 0.0013246)
(-0.172932 -3.39495 0.00150909)
(-0.192556 -2.99747 0.00168039)
(-0.210443 -2.61868 0.00183653)
(-0.226402 -2.25829 0.00197584)
(-0.240277 -1.91606 0.00209697)
(-0.25195 -1.5918 0.00219888)
(-0.261334 -1.28531 0.00228081)
(-0.268373 -0.99642 0.00234228)
(-0.273035 -0.725 0.00238301)
(-0.27531 -0.470937 0.00240291)
(-0.156854 -45.3188 0.00136896)
(0.324366 -43.8756 -0.00283084)
(-0.363711 -38.9556 0.00317371)
(0.323788 -48.5809 -0.00282575)
(-0.212706 -44.6319 0.00185493)
(-0.685509 -36.06 0.00598093)
(-1.14509 -32.271 0.00999284)
(-0.700684 -30.4723 0.00611722)
(-0.33482 -27.7154 0.00292757)
(0.167469 -23.0833 -0.00145467)
(0.436185 -16.5478 -0.00381338)
(0.329453 -14.46 -0.00289206)
(0.23628 -14.0228 -0.00206797)
(0.183452 -13.4 -0.00160336)
(0.145801 -12.6223 -0.00127307)
(0.122998 -11.7566 -0.00107378)
(0.104624 -10.8888 -0.000913391)
(0.0874711 -10.0666 -0.000763674)
(0.0690804 -9.30177 -0.000603171)
(0.0492511 -8.59246 -0.000430114)
(0.0276424 -7.93221 -0.00024153)
(0.00455578 -7.31396 -4.00451e-05)
(-0.0197644 -6.73156 0.000172208)
(-0.0449043 -6.18012 0.000391619)
(-0.0704704 -5.65594 0.000614755)
(-0.0960434 -5.15634 0.000837955)
(-0.121229 -4.67941 0.00105778)
(-0.145652 -4.22385 0.00127095)
(-0.168972 -3.78869 0.0014745)
(-0.190885 -3.37326 0.00166577)
(-0.211124 -2.97708 0.00184244)
(-0.229463 -2.59973 0.00200253)
(-0.245716 -2.2409 0.00214441)
(-0.259734 -1.90032 0.00226679)
(-0.271405 -1.57774 0.00236868)
(-0.280649 -1.27295 0.00244941)
(-0.28742 -0.985763 0.00250853)
(-0.291693 -0.716011 0.00254586)
(-0.293466 -0.463576 0.00256139)
(-0.146538 -45.395 0.00127892)
(0.301316 -43.855 -0.0026297)
(-0.399232 -38.8603 0.00348379)
(0.388636 -48.7422 -0.00339176)
(-0.311977 -43.6751 0.0027211)
(-0.780094 -35.1039 0.00680678)
(-1.07481 -32.146 0.00938035)
(-0.54319 -30.9451 0.00474346)
(-0.140196 -28.3147 0.00122927)
(0.252876 -23.539 -0.00220056)
(0.493841 -16.7532 -0.00431627)
(0.360307 -14.3525 -0.00316665)
(0.254547 -13.9558 -0.00222803)
(0.196029 -13.3614 -0.00171337)
(0.154456 -12.6005 -0.00134867)
(0.128207 -11.7435 -0.00111927)
(0.107314 -10.8773 -0.000936884)
(0.0878086 -10.0536 -0.000766638)
(0.0672474 -9.28624 -0.00058719)
(0.0452831 -8.57419 -0.0003955)
(0.021598 -7.91143 -0.000188794)
(-0.00350388 -7.29111 3.02807e-05)
(-0.029749 -6.70714 0.000259335)
(-0.0566975 -6.15465 0.000494533)
(-0.0839311 -5.62991 0.000732224)
(-0.11101 -5.13022 0.00096857)
(-0.137526 -4.65362 0.0012)
(-0.163093 -4.19874 0.00142316)
(-0.187367 -3.76457 0.00163505)
(-0.210045 -3.35038 0.001833)
(-0.230862 -2.95564 0.00201472)
(-0.249601 -2.57988 0.00217829)
(-0.266082 -2.22275 0.00232217)
(-0.280167 -1.88394 0.00244513)
(-0.291754 -1.56317 0.0025463)
(-0.300775 -1.26019 0.00262507)
(-0.307193 -0.974796 0.00268111)
(-0.310993 -0.706804 0.00271433)
(-0.312187 -0.45608 0.00272479)
(-0.122214 -45.4643 0.00106663)
(0.250657 -43.7591 -0.00218761)
(-0.394195 -38.8754 0.00344004)
(0.504036 -48.8534 -0.00439901)
(-0.397358 -42.5998 0.00346603)
(-0.784805 -34.2876 0.00684834)
(-0.956667 -32.2172 0.00835006)
(-0.375717 -31.5094 0.00328248)
(0.0302583 -28.8873 -0.00025815)
(0.331643 -23.9178 -0.00288834)
(0.555572 -16.9376 -0.00485281)
(0.395093 -14.2223 -0.0034757)
(0.276499 -13.8797 -0.00242011)
(0.211823 -13.3181 -0.00185143)
(0.166007 -12.5751 -0.00144956)
(0.135771 -11.7274 -0.00118531)
(0.111789 -10.8631 -0.000975965)
(0.0893701 -10.0381 -0.000780288)
(0.0661293 -9.26813 -0.000577453)
(0.0415691 -8.55336 -0.000363107)
(0.0154101 -7.88812 -0.000134808)
(-0.0120441 -7.26579 0.000104798)
(-0.0404885 -6.68034 0.000353048)
(-0.0694605 -6.12692 0.000605908)
(-0.0985207 -5.60178 0.000859543)
(-0.127214 -5.10217 0.00110998)
(-0.155124 -4.62607 0.00135358)
(-0.181861 -4.17206 0.00158696)
(-0.207083 -3.73906 0.00180711)
(-0.230492 -3.32629 0.00201146)
(-0.251835 -2.93315 0.00219776)
(-0.270904 -2.55914 0.00236422)
(-0.287533 -2.20386 0.00250939)
(-0.301598 -1.86695 0.00263219)
(-0.313011 -1.5481 0.00273183)