/*--------------------------------*- C++ -*----------------------------------*\
| =========                 |                                                 |
| \\      /  F ield         | OpenFOAM: The Open Source CFD Toolbox           |
|  \\    /   O peration     | Version:  v2012                                 |
|   \\  /    A nd           | Website:  www.openfoam.com                      |
|    \\/     M anipulation  |                                                 |
\*---------------------------------------------------------------------------*/
FoamFile
{
    version     2.0;
    format      ascii;
    class       surfaceScalarField;
    location    "0.15";
    object      phi;
}
// * * * * * * * * * * * * * * * * * * * * * * * * * * * * * * * * * * * * * //

dimensions      [0 3 -1 0 0 0 0];
oriented        oriented;


internalField   nonuniform List<scalar> 
8145
(
2.74171e-10
-1.52027e-09
-2.50338e-17
2.31796e-10
-1.49757e-09
-1.65055e-17
1.88506e-10
-1.45487e-09
-1.48919e-17
1.45359e-10
-1.38519e-09
-1.29335e-17
1.03732e-10
-1.27993e-09
-1.13211e-17
6.54407e-11
-1.12852e-09
-1.10954e-17
3.29377e-11
-9.17107e-10
-6.41801e-18
9.57403e-12
-6.28917e-10
-6.31732e-18
-2.41932e-10
-6.13462e-18
3.98525e-10
-1.47984e-09
-3.24634e-17
3.61647e-10
-1.48771e-09
-3.08734e-17
3.21968e-10
-1.48841e-09
-2.78373e-17
2.80026e-10
-1.47833e-09
-2.29258e-17
2.36471e-10
-1.45401e-09
-1.45004e-17
1.92119e-10
-1.41052e-09
-1.34706e-17
1.48031e-10
-1.3411e-09
-1.212e-17
1.05583e-10
-1.23748e-09
-1.10617e-17
6.65936e-11
-1.08953e-09
-1.13317e-17
3.35237e-11
-8.84038e-10
-6.94131e-18
9.75305e-12
-6.05147e-10
-7.121e-18
-2.3218e-10
-7.11787e-18
3.7663e-11
-1.09354e-10
5.60832e-18
4.87529e-11
-1.35897e-10
1.17885e-18
6.19922e-11
-1.66429e-10
-1.11145e-17
7.75348e-11
-2.01072e-10
-1.39705e-17
9.54898e-11
-2.39856e-10
-1.20657e-17
1.1591e-10
-2.82716e-10
-8.85046e-18
1.38783e-10
-3.29508e-10
-5.60819e-18
1.64021e-10
-3.79907e-10
-2.70871e-18
1.91458e-10
-4.33582e-10
-8.69325e-19
2.20847e-10
-4.90005e-10
-6.17082e-19
2.51862e-10
-5.48636e-10
-8.11928e-19
2.84103e-10
-6.08837e-10
-1.0895e-18
3.17108e-10
-6.69859e-10
-1.73455e-18
3.50364e-10
-7.31113e-10
-2.07501e-18
3.83317e-10
-7.91764e-10
-1.68125e-18
4.15397e-10
-8.51214e-10
-5.42246e-18
4.46036e-10
-9.08843e-10
-5.64463e-18
4.74674e-10
-9.64086e-10
-5.75467e-18
5.00785e-10
-1.01651e-09
-5.83769e-18
5.23886e-10
-1.06578e-09
-6.39177e-18
5.43546e-10
-1.11172e-09
-6.901e-18
5.59398e-10
-1.15418e-09
-7.4307e-18
5.71149e-10
-1.19321e-09
-7.88322e-18
5.78563e-10
-1.22893e-09
-8.17837e-18
5.81489e-10
-1.26124e-09
-8.53209e-18
5.79821e-10
-1.2911e-09
-9.30226e-18
5.73536e-10
-1.31797e-09
-1.09047e-17
5.62649e-10
-1.34285e-09
-1.34353e-17
5.47243e-10
-1.36541e-09
-1.62329e-17
5.27445e-10
-1.38575e-09
-1.86812e-17
5.03404e-10
-1.40476e-09
-2.10179e-17
4.75348e-10
-1.42095e-09
-2.53473e-17
4.43518e-10
-1.43469e-09
-3.0903e-17
4.08222e-10
-1.44454e-09
-2.62317e-17
3.69826e-10
-1.44931e-09
-2.60182e-17
3.28749e-10
-1.44733e-09
-2.38468e-17
2.85534e-10
-1.43511e-09
-2.08351e-17
2.40833e-10
-1.40931e-09
-1.27161e-17
1.95465e-10
-1.36515e-09
-1.21912e-17
1.50488e-10
-1.29612e-09
-1.13415e-17
1.07274e-10
-1.19426e-09
-1.07542e-17
6.76414e-11
-1.0499e-09
-1.14541e-17
3.40553e-11
-8.50452e-10
-7.31665e-18
9.91587e-12
-5.81008e-10
-7.73309e-18
-2.22265e-10
-7.82092e-18
4.27288e-11
-1.19643e-10
-6.38397e-18
5.51863e-11
-1.48354e-10
-6.81223e-18
7.00009e-11
-1.81243e-10
-9.53786e-18
8.73196e-11
-2.18391e-10
-1.4582e-17
1.07235e-10
-2.59772e-10
-1.15284e-17
1.29775e-10
-3.05256e-10
-7.14595e-18
1.54891e-10
-3.54624e-10
-3.57365e-18
1.82449e-10
-4.07466e-10
-1.40055e-18
2.12233e-10
-4.63366e-10
-1.21121e-18
2.43937e-10
-5.21709e-10
-2.26553e-18
2.77174e-10
-5.81874e-10
-3.75085e-18
3.11484e-10
-6.43149e-10
-4.88886e-18
3.46346e-10
-7.04722e-10
-6.24783e-18
3.81196e-10
-7.65964e-10
-7.14367e-18
4.15437e-10
-8.26006e-10
-7.08488e-18
4.48465e-10
-8.84244e-10
-1.08189e-17
4.79688e-10
-9.40069e-10
-1.10003e-17
5.0854e-10
-9.92939e-10
-1.0869e-17
5.34496e-10
-1.04247e-09
-1.02955e-17
5.57087e-10
-1.08837e-09
-1.0063e-17
5.75905e-10
-1.13054e-09
-9.47202e-18
5.90618e-10
-1.16889e-09
-8.96948e-18
6.0097e-10
-1.20357e-09
-8.27859e-18
6.06768e-10
-1.23473e-09
-7.68736e-18
6.07908e-10
-1.26237e-09
-7.21397e-18
6.04328e-10
-1.28752e-09
-7.30912e-18
5.9605e-10
-1.30969e-09
-8.34644e-18
5.8313e-10
-1.32994e-09
-1.02067e-17
5.6569e-10
-1.34797e-09
-1.24802e-17
5.43889e-10
-1.36395e-09
-1.46384e-17
5.17905e-10
-1.37878e-09
-1.68687e-17
4.8799e-10
-1.39103e-09
-2.12902e-17
4.54402e-10
-1.4011e-09
-2.38831e-17
4.17468e-10
-1.40761e-09
-2.06236e-17
3.7756e-10
-1.4094e-09
-2.14692e-17
3.35105e-10
-1.40487e-09
-2.02343e-17
2.9065e-10
-1.39065e-09
-1.87358e-17
2.44848e-10
-1.36351e-09
-1.11441e-17
1.98515e-10
-1.31882e-09
-1.11239e-17
1.52705e-10
-1.25031e-09
-1.07481e-17
1.08788e-10
-1.15035e-09
-1.05779e-17
6.85734e-11
-1.00968e-09
-1.16565e-17
3.45266e-11
-8.16405e-10
-7.72731e-18
1.00607e-11
-5.56542e-10
-8.35357e-18
-2.12205e-10
-8.49556e-18
4.86175e-11
-1.31266e-10
-2.11004e-17
6.2635e-11
-1.62372e-10
-1.54646e-17
7.92351e-11
-1.97843e-10
-7.42816e-18
9.85531e-11
-2.37709e-10
-1.37722e-17
1.20659e-10
-2.81878e-10
-1.17921e-17
1.45545e-10
-3.30142e-10
-9.28925e-18
1.7312e-10
-3.822e-10
-5.63003e-18
2.03197e-10
-4.37543e-10
-3.05579e-18
2.35496e-10
-4.95666e-10
-2.89256e-18
2.69646e-10
-5.5586e-10
-4.14294e-18
3.05194e-10
-6.17423e-10
-6.50596e-18
3.41614e-10
-6.79571e-10
-8.52062e-18
3.78325e-10
-7.41434e-10
-1.09274e-17
4.1471e-10
-8.0235e-10
-1.25675e-17
4.50132e-10
-8.61428e-10
-1.31188e-17
4.83955e-10
-9.18071e-10
-1.67357e-17
5.15574e-10
-9.71691e-10
-1.69849e-17
5.4442e-10
-1.02179e-09
-1.64764e-17
5.69978e-10
-1.06803e-09
-1.53087e-17
5.91802e-10
-1.1102e-09
-1.42094e-17
6.09518e-10
-1.14826e-09
-1.26522e-17
6.22832e-10
-1.18221e-09
-1.10908e-17
6.31535e-10
-1.21227e-09
-9.39714e-18
6.35484e-10
-1.23868e-09
-7.88363e-18
6.34623e-10
-1.26151e-09
-6.66606e-18
6.28939e-10
-1.28184e-09
-6.08919e-18
6.18503e-10
-1.29925e-09
-6.54489e-18
6.03411e-10
-1.31485e-09
-7.77556e-18
5.83823e-10
-1.32838e-09
-9.60963e-18
5.59933e-10
-1.34006e-09
-1.1468e-17
5.31942e-10
-1.35079e-09
-1.36068e-17
5.00128e-10
-1.35921e-09
-1.77535e-17
4.64765e-10
-1.36573e-09
-1.85706e-17
4.2619e-10
-1.36903e-09
-1.56667e-17
3.84786e-10
-1.36799e-09
-1.73386e-17
3.40982e-10
-1.36107e-09
-1.66958e-17
2.95329e-10
-1.345e-09
-1.66075e-17
2.48476e-10
-1.31665e-09
-9.50783e-18
2.01238e-10
-1.27158e-09
-1.00432e-17
1.54662e-10
-1.20374e-09
-1.01377e-17
1.10108e-10
-1.10579e-09
-1.03702e-17
6.93786e-11
-9.68955e-10
-1.18055e-17
3.49319e-11
-7.81957e-10
-8.07684e-18
1.01857e-11
-5.31795e-10
-8.89517e-18
-2.02019e-10
-9.0822e-18
5.54715e-11
-1.44425e-10
-1.76632e-17
7.12743e-11
-1.78175e-10
-2.33376e-17
8.99028e-11
-2.16471e-10
-6.25202e-18
1.11473e-10
-2.59279e-10
-1.48428e-18
1.36025e-10
-3.06429e-10
-1.05405e-18
1.63507e-10
-3.57625e-10
-1.50331e-18
1.93773e-10
-4.12467e-10
-8.80835e-19
2.26572e-10
-4.70342e-10
-1.30759e-18
2.61553e-10
-5.30649e-10
-4.37595e-18
2.98273e-10
-5.92581e-10
-7.94544e-18
3.36203e-10
-6.55354e-10
-1.21057e-17
3.74749e-10
-7.18119e-10
-1.51866e-17
4.13267e-10
-7.79953e-10
-1.81318e-17
4.51092e-10
-8.40175e-10
-2.00358e-17
4.87545e-10
-8.97881e-10
-2.04547e-17
5.2197e-10
-9.52499e-10
-2.34512e-17
5.53754e-10
-1.00348e-09
-2.32523e-17
5.82334e-10
-1.05037e-09
-2.22213e-17
6.07215e-10
-1.09291e-09
-2.0155e-17
6.27985e-10
-1.13097e-09
-1.81963e-17
6.44309e-10
-1.16458e-09
-1.55378e-17
6.55943e-10
-1.19385e-09
-1.30218e-17
6.62731e-10
-1.21906e-09
-1.03005e-17
6.64584e-10
-1.24054e-09
-7.9925e-18
6.61502e-10
-1.25842e-09
-6.02771e-18
6.5352e-10
-1.27386e-09
-4.87977e-18
6.40761e-10
-1.28649e-09
-4.74193e-18
6.23362e-10
-1.29745e-09
-5.47438e-18
6.0152e-10
-1.30654e-09
-6.92517e-18
5.75461e-10
-1.31399e-09
-8.56951e-18
5.45412e-10
-1.32074e-09
-1.0629e-17
5.11669e-10
-1.32546e-09
-1.48307e-17
4.74521e-10
-1.32858e-09
-1.39181e-17
4.34315e-10
-1.32883e-09
-1.09306e-17
3.9144e-10
-1.32512e-09
-1.30957e-17
3.46327e-10
-1.31596e-09
-1.33147e-17
2.99525e-10
-1.2982e-09
-1.39344e-17
2.51682e-10
-1.26881e-09
-7.53799e-18
2.03605e-10
-1.2235e-09
-8.69633e-18
1.56333e-10
-1.15646e-09
-9.32478e-18
1.11217e-10
-1.06068e-09
-9.9972e-18
7.0046e-11
-9.27783e-10
-1.1812e-17
3.52653e-11
-7.47176e-10
-8.29874e-18
1.0289e-11
-5.06819e-10
-9.31047e-18
-1.9173e-10
-9.57435e-18
6.34923e-11
-1.59351e-10
-2.32626e-17
8.13362e-11
-1.96019e-10
-2.82478e-17
1.02266e-10
-2.374e-10
-3.08188e-18
1.26372e-10
-2.83385e-10
-1.24946e-18
1.5365e-10
-3.33708e-10
-1.9406e-18
1.83996e-10
-3.87971e-10
-2.6962e-18
2.17196e-10
-4.45668e-10
-2.16367e-18
2.52924e-10
-5.06071e-10
-2.42157e-18
2.9075e-10
-5.68476e-10
-6.20281e-18
3.30145e-10
-6.31977e-10
-1.0555e-17
3.70503e-10
-6.95714e-10
-1.60632e-17
4.11156e-10
-7.58775e-10
-2.02782e-17
4.51401e-10
-8.20198e-10
-2.42687e-17
4.90523e-10
-8.79297e-10
-2.67227e-17
5.27814e-10
-9.35171e-10
-2.74467e-17
5.62599e-10
-9.87288e-10
-2.96912e-17
5.9427e-10
-1.03515e-09
-2.92651e-17
6.2228e-10
-1.07838e-09
-2.75711e-17
6.46167e-10
-1.1168e-09
-2.46849e-17
6.6556e-10
-1.15036e-09
-2.17095e-17
6.80176e-10
-1.1792e-09
-1.80309e-17
6.89828e-10
-1.2035e-09
-1.44687e-17
6.94419e-10
-1.22365e-09
-1.08269e-17
6.93921e-10
-1.24004e-09
-7.67843e-18
6.88392e-10
-1.25289e-09
-5.05865e-18
6.7792e-10
-1.26339e-09
-3.30772e-18
6.62677e-10
-1.27125e-09
-2.6512e-18
6.42842e-10
-1.27762e-09
-2.87796e-18
6.18649e-10
-1.28235e-09
-3.99652e-18
5.90354e-10
-1.28569e-09
-5.42512e-18
5.58203e-10
-1.28859e-09
-7.46564e-18
5.22513e-10
-1.28977e-09
-1.14799e-17
4.83583e-10
-1.28965e-09
-9.6832e-18
4.41767e-10
-1.28701e-09
-5.84589e-18
3.97456e-10
-1.2808e-09
-8.71347e-18
3.51083e-10
-1.26958e-09
-9.4965e-18
3.03192e-10
-1.2503e-09
-1.12629e-17
2.54426e-10
-1.22004e-09
-5.44891e-18
2.05584e-10
-1.17466e-09
-7.2533e-18
1.57696e-10
-1.10857e-09
-8.41178e-18
1.12099e-10
-1.01508e-09
-9.51468e-18
7.05644e-11
-8.86248e-10
-1.16874e-17
3.55208e-11
-7.12132e-10
-8.3811e-18
1.03686e-11
-4.81666e-10
-9.56511e-18
-1.81361e-10
-9.89111e-18
7.28837e-11
-1.76322e-10
-2.40747e-17
9.30702e-11
-2.16206e-10
-3.04474e-17
1.16618e-10
-2.60947e-10
2.81323e-18
1.43578e-10
-3.10345e-10
9.14731e-18
1.73895e-10
-3.64025e-10
7.41002e-18
2.07394e-10
-4.21471e-10
3.55856e-18
2.43783e-10
-4.82059e-10
3.3187e-19
2.82647e-10
-5.44936e-10
-3.20937e-18
3.23465e-10
-6.09295e-10
-9.93058e-18
3.65617e-10
-6.74131e-10
-1.62816e-17
4.08414e-10
-7.38512e-10
-2.31231e-17
4.51114e-10
-8.01478e-10
-2.81061e-17
4.92955e-10
-8.62039e-10
-3.22651e-17
5.33179e-10
-9.19521e-10
-3.4683e-17
5.71056e-10
-9.73047e-10
-3.49753e-17
6.05907e-10
-1.02214e-09
-3.60012e-17
6.37135e-10
-1.06638e-09
-3.49406e-17
6.64226e-10
-1.10547e-09
-3.2551e-17
6.8676e-10
-1.13933e-09
-2.86208e-17
7.0442e-10
-1.16801e-09
-2.47035e-17
7.16985e-10
-1.19176e-09
-1.98962e-17
7.24333e-10
-1.21085e-09
-1.54035e-17
7.26434e-10
-1.22575e-09
-1.07932e-17
7.23323e-10
-1.23693e-09
-6.91448e-18
7.15121e-10
-1.24468e-09
-3.60717e-18
7.01969e-10
-1.25024e-09
-1.33873e-18
6.84088e-10
-1.25336e-09
-1.5845e-19
6.61698e-10
-1.25523e-09
3.89603e-20
6.35068e-10
-1.25572e-09
-7.43199e-19
6.04479e-10
-1.2551e-09
-1.99437e-18
5.70199e-10
-1.25431e-09
-4.00736e-18
5.32557e-10
-1.25213e-09
-8.15223e-18
4.9186e-10
-1.24896e-09
-4.99428e-18
4.48466e-10
-1.24362e-09
-1.08877e-18
4.02768e-10
-1.2351e-09
-4.41532e-18
3.55193e-10
-1.22201e-09
-5.90097e-18
3.06282e-10
-1.20139e-09
-8.11708e-18
2.5667e-10
-1.17043e-09
-3.03383e-18
2.07146e-10
-1.12514e-09
-5.52051e-18
1.58727e-10
-1.06015e-09
-7.25197e-18
1.12736e-10
-9.69085e-10
-8.808e-18
7.09229e-11
-8.44434e-10
-1.13525e-17
3.56925e-11
-6.769e-10
-8.26264e-18
1.04226e-11
-4.56395e-10
-9.61754e-18
-1.70938e-10
-1.0016e-17
8.39516e-11
-1.95654e-10
-2.67862e-17
1.06819e-10
-2.39073e-10
-3.30235e-17
1.33336e-10
-2.87464e-10
3.4269e-18
1.63502e-10
-3.40511e-10
6.65021e-18
1.97192e-10
-3.97716e-10
4.06974e-18
2.34149e-10
-4.58429e-10
1.13544e-18
2.73984e-10
-5.21896e-10
-1.80733e-18
3.1618e-10
-5.87134e-10
-4.86472e-18
3.60115e-10
-6.53231e-10
-1.22251e-17
4.05072e-10
-7.19089e-10
-1.92966e-17
4.50273e-10
-7.83714e-10
-2.73105e-17
4.94905e-10
-8.46112e-10
-3.32228e-17
5.38151e-10
-9.05284e-10
-3.81706e-17
5.7922e-10
-9.6059e-10
-4.08903e-17
6.1737e-10
-1.01119e-09
-4.13338e-17
6.51929e-10
-1.0567e-09
-4.10789e-17
6.82331e-10
-1.09678e-09
-3.96874e-17
7.08103e-10
-1.13124e-09
-3.65295e-17
7.28884e-10
-1.16011e-09
-3.17451e-17
7.44422e-10
-1.18355e-09
-2.68075e-17
7.54569e-10
-1.20191e-09
-2.10422e-17
7.59274e-10
-1.21556e-09
-1.55802e-17
7.58582e-10
-1.22505e-09
-1.01616e-17
7.52593e-10
-1.23095e-09
-5.53742e-18
7.41493e-10
-1.23358e-09
-1.6716e-18
7.25477e-10
-1.23423e-09
1.11615e-18
7.04815e-10
-1.2327e-09
2.6987e-18
6.79764e-10
-1.23018e-09
3.28652e-18
6.50624e-10
-1.22658e-09
2.74649e-18
6.17701e-10
-1.22218e-09
1.64976e-18
5.81276e-10
-1.21789e-09
-4.114e-19
5.41692e-10
-1.21254e-09
-4.48778e-18
4.99257e-10
-1.20652e-09
-6.89933e-19
4.54333e-10
-1.19869e-09
3.99037e-18
4.07307e-10
-1.18807e-09
-7.1742e-20
3.58601e-10
-1.1733e-09
-1.91538e-18
3.08749e-10
-1.15154e-09
-5.06531e-18
2.58377e-10
-1.12005e-09
-5.62495e-19
2.08261e-10
-1.07502e-09
-3.72895e-18
1.59405e-10
-1.0113e-09
-6.01605e-18
1.13112e-10
-9.22792e-10
-8.00608e-18
7.11107e-11
-8.02431e-10
-1.08966e-17
3.57745e-11
-6.41563e-10
-8.01934e-18
1.04491e-11
-4.31069e-10
-9.5257e-18
-1.60489e-10
-9.98648e-18
9.69889e-11
-2.17726e-10
-2.28205e-17
1.22939e-10
-2.65024e-10
-3.25861e-17
1.52833e-10
-3.17357e-10
5.30035e-18
1.86601e-10
-3.7428e-10
6.2462e-18
2.24032e-10
-4.35147e-10
3.2981e-18
2.64766e-10
-4.99163e-10
-1.14524e-18
3.08303e-10
-5.65435e-10
-6.05929e-18
3.54012e-10
-6.32844e-10
-1.05836e-17
4.01156e-10
-7.00377e-10
-1.88489e-17
4.48917e-10
-7.66851e-10
-2.63807e-17
4.9643e-10
-8.31227e-10
-3.44489e-17
5.42811e-10
-8.92495e-10
-4.03523e-17
5.87199e-10
-9.49671e-10
-4.49263e-17
6.28782e-10
-1.00217e-09
-4.73364e-17
6.66818e-10
-1.04923e-09
-4.72946e-17
7.00664e-10
-1.09055e-09
-4.54132e-17
7.29795e-10
-1.12591e-09
-4.33818e-17
7.53799e-10
-1.15524e-09
-3.95109e-17
7.72385e-10
-1.17869e-09
-3.37489e-17
7.85382e-10
-1.19654e-09
-2.79764e-17
7.9272e-10
-1.20925e-09
-2.12347e-17
7.94431e-10
-1.21727e-09
-1.50012e-17
7.90635e-10
-1.22126e-09
-8.78718e-18
7.81505e-10
-1.22182e-09
-3.58331e-18
7.6729e-10
-1.21936e-09
8.30246e-19
7.48238e-10
-1.21518e-09
4.00347e-18
7.24664e-10
-1.20912e-09
5.94934e-18
6.96861e-10
-1.20238e-09
6.79586e-18
6.65156e-10
-1.19487e-09
6.46524e-18
6.29875e-10
-1.18689e-09
5.44746e-18
5.91309e-10
-1.17933e-09
3.33446e-18
5.49807e-10
-1.17103e-09
-9.757e-19
5.0568e-10
-1.1624e-09
3.9692e-18
4.59285e-10
-1.1523e-09
8.40819e-18
4.11004e-10
-1.13979e-09
4.15836e-18
3.6125e-10
-1.12355e-09
1.76879e-18
3.10547e-10
-1.10083e-09
-1.66032e-18
2.59509e-10
-1.06901e-09
2.12774e-18
2.08899e-10
-1.02441e-09
-1.72267e-18
1.59706e-10
-9.62103e-10
-4.58602e-18
1.13211e-10
-8.76296e-10
-7.01998e-18
7.1117e-11
-7.60336e-10
-1.02589e-17
3.57609e-11
-6.06205e-10
-7.59973e-18
1.04461e-11
-4.05753e-10
-9.2542e-18
-1.50042e-10
-9.77376e-18
1.12465e-10
-2.42964e-10
-2.21784e-17
1.41942e-10
-2.945e-10
-3.33778e-17
1.75656e-10
-3.51071e-10
3.02024e-18
2.13451e-10
-4.12075e-10
3.24511e-18
2.55005e-10
-4.76702e-10
1.236e-19
2.99837e-10
-5.43995e-10
-3.34915e-18
3.47316e-10
-6.12916e-10
-8.39917e-18
3.96683e-10
-6.82211e-10
-1.29087e-17
4.47079e-10
-7.50775e-10
-2.17372e-17
4.9758e-10
-8.17352e-10
-2.96401e-17
5.47235e-10
-8.80882e-10
-3.8251e-17
5.951e-10
-9.40363e-10
-4.44306e-17
6.40283e-10
-9.94852e-10
-4.92255e-17
6.81964e-10
-1.04385e-09
-5.15182e-17
7.19424e-10
-1.08669e-09
-5.15115e-17
7.52061e-10
-1.12319e-09
-4.78768e-17
7.79414e-10
-1.15326e-09
-4.559e-17
8.01149e-10
-1.17697e-09
-4.10014e-17
8.17059e-10
-1.1946e-09
-3.45538e-17
8.27065e-10
-1.20654e-09
-2.79528e-17
8.31187e-10
-1.21337e-09
-2.04979e-17
8.29543e-10
-1.21563e-09
-1.352e-17
8.22335e-10
-1.21405e-09
-6.73317e-18
8.09807e-10
-1.2093e-09
-9.7734e-19
7.9227e-10
-1.20181e-09
3.81395e-18
7.70024e-10
-1.19294e-09
7.33735e-18
7.43426e-10
-1.18252e-09
9.50256e-18
7.12799e-10
-1.17175e-09
1.05589e-17
6.78493e-10
-1.16057e-09
1.03219e-17
6.4085e-10
-1.14925e-09
9.34623e-18
6.00165e-10
-1.13865e-09
7.0971e-18
5.5679e-10
-1.12766e-09
2.78591e-18
5.11032e-10
-1.11664e-09
8.26244e-18
4.63242e-10
-1.10451e-09
1.31025e-17
4.13792e-10
-1.09034e-09
8.35276e-18
3.63084e-10
-1.07284e-09
5.74358e-18
3.1163e-10
-1.04938e-09
1.51698e-18
2.6003e-10
-1.01741e-09
4.75595e-18
2.09033e-10
-9.73414e-10
2.48847e-19
1.59609e-10
-9.12678e-10
-3.15137e-18
1.13018e-10
-8.29704e-10
-5.99577e-18
7.09316e-11
-7.18248e-10
-9.55149e-18
3.56462e-11
-5.70919e-10
-7.09663e-18
1.04118e-11
-3.80517e-10
-8.88063e-18
-1.39629e-10
-9.45131e-18
1.30802e-10
-2.71889e-10
-2.13181e-17
1.64335e-10
-3.28033e-10
-3.45725e-17
2.02386e-10
-3.89122e-10
-1.03069e-18
2.44681e-10
-4.54371e-10
-2.73514e-18
2.90768e-10
-5.2279e-10
-6.30096e-18
3.40019e-10
-5.93247e-10
-9.90985e-18
3.91657e-10
-6.64557e-10
-1.48346e-17
4.4478e-10
-7.35335e-10
-1.91084e-17
4.98404e-10
-8.044e-10
-2.7324e-17
5.51498e-10
-8.70447e-10
-3.47278e-17
6.03034e-10
-9.32418e-10
-4.26965e-17
6.52021e-10
-9.89353e-10
-4.84928e-17
6.97551e-10
-1.04038e-09
-5.27126e-17
7.38821e-10
-1.08512e-09
-5.46522e-17
7.75153e-10
-1.12301e-09
-5.43299e-17
8.0601e-10
-1.15405e-09
-4.8753e-17
8.31016e-10
-1.17827e-09
-4.61433e-17
8.4993e-10
-1.19588e-09
-4.1094e-17
8.62646e-10
-1.20732e-09
-3.39646e-17
8.69188e-10
-1.21308e-09
-2.68222e-17
8.69673e-10
-1.21385e-09
-1.87056e-17
8.64311e-10
-1.21027e-09
-1.12443e-17
8.53387e-10
-1.20312e-09
-3.93863e-18
8.37215e-10
-1.19313e-09
2.16354e-18
8.16168e-10
-1.18076e-09
7.29139e-18
7.90589e-10
-1.16737e-09
1.10062e-17
7.60877e-10
-1.15281e-09
1.33448e-17
7.27377e-10
-1.13826e-09
1.4472e-17
6.90459e-10
-1.12365e-09
1.42827e-17
6.5047e-10
-1.10926e-09
1.32617e-17
6.07708e-10
-1.09589e-09
1.08786e-17
5.62523e-10
-1.08247e-09
6.28483e-18
5.15214e-10
-1.06933e-09
1.28098e-17
4.6612e-10
-1.05541e-09
1.7457e-17
4.15602e-10
-1.03982e-09
1.23698e-17
3.64047e-10
-1.02129e-09
9.29964e-18
3.11953e-10
-9.9728e-10
4.88845e-18
2.59905e-10
-9.65364e-10
7.46886e-18
2.08634e-10
-9.22143e-10
2.33607e-18
1.59093e-10
-8.63136e-10
-1.59513e-18
1.12517e-10
-7.83128e-10
-4.84198e-18
7.05447e-11
-6.76274e-10
-8.70212e-18
3.54249e-11
-5.35797e-10
-6.45423e-18
1.03441e-11
-3.55435e-10
-8.35893e-18
-1.29283e-10
-8.97321e-18
1.5273e-10
-3.05069e-10
-2.17754e-17
1.90888e-10
-3.66192e-10
-3.70074e-17
2.33816e-10
-4.3205e-10
-6.708e-18
2.81098e-10
-5.01653e-10
-8.49663e-18
3.32117e-10
-5.7381e-10
-1.16473e-17
3.86079e-10
-6.47209e-10
-1.34199e-17
4.42039e-10
-7.20519e-10
-1.7599e-17
4.98943e-10
-7.92239e-10
-2.12813e-17
5.55677e-10
-8.61135e-10
-2.93305e-17
6.1111e-10
-9.25881e-10
-3.64839e-17
6.64151e-10
-9.85459e-10
-4.43994e-17
7.1378e-10
-1.03898e-09
-4.99609e-17
7.59098e-10
-1.0857e-09
-5.40354e-17
7.99341e-10
-1.12536e-09
-5.56408e-17
8.339e-10
-1.15757e-09
-5.54195e-17
8.62328e-10
-1.18248e-09
-4.75465e-17
8.84352e-10
-1.20029e-09
-4.5015e-17
8.99847e-10
-1.21138e-09
-3.95318e-17
9.0882e-10
-1.21629e-09
-3.20695e-17
9.11406e-10
-1.21566e-09
-2.44406e-17
9.07829e-10
-1.21027e-09
-1.59837e-17
8.98391e-10
-1.20084e-09
-8.1037e-18
8.83459e-10
-1.18819e-09
-5.4444e-19
8.63417e-10
-1.17309e-09
5.85205e-18
8.38693e-10
-1.15603e-09
1.11121e-17
8.09671e-10
-1.13835e-09
1.49827e-17
7.7678e-10
-1.11992e-09
1.73424e-17
7.40386e-10
-1.10187e-09
1.85011e-17
7.00866e-10
-1.08413e-09
1.82469e-17
6.58574e-10
-1.06696e-09
1.71476e-17
6.13802e-10
-1.05113e-09
1.45474e-17
5.66891e-10
-1.03556e-09
9.90629e-18
5.18128e-10
-1.02057e-09
1.68818e-17
4.67839e-10
-1.00513e-09
2.18313e-17
4.16368e-10
-9.88345e-10
1.62234e-17
3.64086e-10
-9.69005e-10
1.29948e-17
3.11474e-10
-9.44667e-10
7.91337e-18
2.591e-10
-9.12989e-10
1.00072e-17
2.07678e-10
-8.70721e-10
4.30227e-18
1.5814e-10
-8.13597e-10
-1.01535e-19
1.11696e-10
-7.36682e-10
-3.70192e-18
6.99471e-11
-6.34524e-10
-7.82409e-18
3.50918e-11
-5.00941e-10
-5.76476e-18
1.02414e-11
-3.30584e-10
-7.76489e-18
-1.19041e-10
-8.41795e-18
1.7885e-10
-3.4321e-10
-2.26173e-17
2.22319e-10
-4.09661e-10
-4.39416e-17
2.70752e-10
-4.80482e-10
-1.64781e-17
3.23553e-10
-5.54455e-10
-1.67742e-17
3.79914e-10
-6.30172e-10
-1.86042e-17
4.38846e-10
-7.06141e-10
-1.86229e-17
4.99225e-10
-7.809e-10
-2.07149e-17
5.59839e-10
-8.52853e-10
-2.29671e-17
6.19448e-10
-9.20745e-10
-2.97762e-17
6.76836e-10
-9.8327e-10
-3.62915e-17
7.30869e-10
-1.03949e-09
-4.37103e-17
7.80525e-10
-1.08864e-09
-4.91489e-17
8.24942e-10
-1.13011e-09
-5.29706e-17
8.63428e-10
-1.16384e-09
-5.45815e-17
8.95471e-10
-1.18961e-09
-5.45512e-17
9.20741e-10
-1.20775e-09
-4.43879e-17
9.39091e-10
-1.21864e-09
-4.20288e-17
9.50526e-10
-1.22281e-09
-3.64831e-17
9.55183e-10
-1.22094e-09
-2.87633e-17
9.53314e-10
-1.21379e-09
-2.09907e-17
9.45252e-10
-1.20221e-09
-1.22799e-17
9.31393e-10
-1.18698e-09
-4.27886e-18
9.12184e-10
-1.16898e-09
3.45745e-18
8.88071e-10
-1.14898e-09
9.91164e-18
8.59533e-10
-1.12749e-09
1.52539e-17
8.26987e-10
-1.10581e-09
1.91082e-17
7.90885e-10
-1.08381e-09
2.14493e-17
7.51604e-10
-1.06259e-09
2.25151e-17
7.09527e-10
-1.04205e-09
2.21686e-17
6.65e-10
-1.02243e-09
2.09119e-17
6.18308e-10
-1.00444e-09
1.81091e-17
5.69777e-10
-9.87028e-10
1.31621e-17
5.19679e-10
-9.70476e-10
2.10203e-17
4.68319e-10
-9.5377e-10
2.5726e-17
4.16026e-10
-9.3605e-10
1.97832e-17
3.6315e-10
-9.1613e-10
1.61708e-17
3.10153e-10
-8.91669e-10
1.09777e-17
2.57584e-10
-8.6042e-10
1.25096e-17
2.06141e-10
-8.19278e-10
6.28782e-18
1.56731e-10
-7.64186e-10
1.44607e-18
1.1054e-10
-6.9049e-10
-2.47871e-18
6.91304e-11
-5.93113e-10
-6.83853e-18
3.4642e-11
-4.66451e-10
-4.96102e-18
1.01018e-11
-3.06042e-10
-7.04492e-18
-1.08938e-10
-7.72482e-18
2.1031e-10
-3.87053e-10
-3.07394e-17
2.59789e-10
-4.59141e-10
-5.08613e-17
3.14345e-10
-5.35038e-10
-2.2126e-17
3.73164e-10
-6.13274e-10
-1.95467e-17
4.35212e-10
-6.9222e-10
-2.04272e-17
4.99284e-10
-7.70212e-10
-2.00114e-17
5.6406e-10
-8.45679e-10
-2.18051e-17
6.2817e-10
-9.16964e-10
-2.36505e-17
6.90263e-10
-9.82838e-10
-2.99902e-17
7.49058e-10
-1.04207e-09
-3.58425e-17
8.03405e-10
-1.09384e-09
-4.28308e-17
8.52316e-10
-1.13756e-09
-4.76979e-17
8.95004e-10
-1.1728e-09
-5.11645e-17
9.30882e-10
-1.19972e-09
-5.23548e-17
9.59568e-10
-1.21829e-09
-5.26475e-17
9.80873e-10
-1.22906e-09
-3.95513e-17
9.94803e-10
-1.23257e-09
-3.76458e-17
1.00151e-09
-1.22951e-09
-3.19848e-17
1.00126e-09
-1.22069e-09
-2.43289e-17
9.94438e-10
-1.20696e-09
-1.64516e-17
9.81483e-10
-1.18925e-09
-7.81337e-18
9.62883e-10
-1.16839e-09
2.412e-19
9.39157e-10
-1.14525e-09
7.87542e-18
9.10809e-10
-1.12064e-09
1.43206e-17
8.78356e-10
-1.09503e-09
1.95385e-17
8.42241e-10
-1.0697e-09
2.3333e-17
8.02932e-10
-1.0445e-09
2.55088e-17
7.60807e-10
-1.02047e-09
2.64573e-17
7.16245e-10
-9.97494e-10
2.59261e-17
6.69583e-10
-9.75769e-10
2.45009e-17
6.21086e-10
-9.55946e-10
2.14253e-17
5.71066e-10
-9.37007e-10
1.63824e-17
5.1977e-10
-9.19183e-10
2.45525e-17
4.67484e-10
-9.01487e-10
2.94492e-17
4.14514e-10
-8.83078e-10
2.30487e-17
3.61189e-10
-8.62807e-10
1.93336e-17
3.0795e-10
-8.38431e-10
1.36195e-17
2.55329e-10
-8.07798e-10
1.47537e-17
2.04e-10
-7.67949e-10
8.08499e-18
1.54852e-10
-7.15037e-10
2.87587e-18
1.0904e-10
-6.44677e-10
-1.31667e-18
6.80869e-11
-5.52159e-10
-5.86075e-18
3.40712e-11
-4.32433e-10
-4.14297e-18
9.92364e-12
-2.81893e-10
-6.27904e-18
-9.90128e-11
-6.98295e-18
2.47951e-10
-4.37534e-10
-3.37732e-17
3.04291e-10
-5.15482e-10
-5.59421e-17
3.65683e-10
-5.9643e-10
-2.57456e-17
4.31048e-10
-6.78639e-10
-2.43188e-17
4.99095e-10
-7.60268e-10
-2.28343e-17
5.68383e-10
-8.395e-10
-1.98866e-17
6.37398e-10
-9.14696e-10
-1.92312e-17
7.04625e-10
-9.84191e-10
-1.97635e-17
7.68622e-10
-1.04684e-09
-2.52154e-17
8.2808e-10
-1.10152e-09
-3.07715e-17
8.81876e-10
-1.14763e-09
-3.77055e-17
9.29099e-10
-1.18478e-09
-4.28191e-17
9.69077e-10
-1.21277e-09
-4.63637e-17
1.00137e-09
-1.23201e-09
-4.78758e-17
1.02576e-09
-1.24268e-09
-4.88328e-17
1.04223e-09
-1.24553e-09
-3.29104e-17
1.05095e-09
-1.24129e-09
-3.16216e-17
1.05223e-09
-1.23079e-09
-2.6272e-17
1.04649e-09
-1.21495e-09
-1.87546e-17
1.03423e-09
-1.1947e-09
-1.11135e-17
1.016e-09
-1.17102e-09
-2.61105e-18
9.92378e-10
-1.14476e-09
5.21058e-18
9.63938e-10
-1.11681e-09
1.26768e-17
9.31231e-10
-1.08793e-09
1.88828e-17
8.94808e-10
-1.0586e-09
2.392e-17
8.55124e-10
-1.03002e-09
2.74845e-17
8.12652e-10
-1.00203e-09
2.9467e-17
7.67764e-10
-9.75588e-10
3.01863e-17
7.20826e-10
-9.50558e-10
2.94619e-17
6.72158e-10
-9.27099e-10
2.78107e-17
6.22001e-10
-9.05796e-10
2.44964e-17
5.70644e-10
-8.85649e-10
1.91399e-17
5.1831e-10
-8.66852e-10
2.7941e-17
4.6526e-10
-8.48439e-10
3.25874e-17
4.11774e-10
-8.29591e-10
2.59292e-17
3.58158e-10
-8.09193e-10
2.19248e-17
3.04833e-10
-7.85105e-10
1.61704e-17
2.52308e-10
-7.55272e-10
1.68633e-17
2.01238e-10
-7.16879e-10
9.82027e-18
1.52488e-10
-6.66286e-10
4.29394e-18
1.07185e-10
-5.99373e-10
-1.242e-19
6.68102e-11
-5.11783e-10
-4.81671e-18
3.33754e-11
-3.98997e-10
-3.24483e-18
9.70543e-12
-2.58222e-10
-5.4153e-18
-8.9306e-11
-6.12489e-18
2.93588e-10
-4.95566e-10
-4.33621e-17
3.57579e-10
-5.79474e-10
-6.21752e-17
4.26419e-10
-6.65269e-10
-2.65963e-17
4.98721e-10
-7.50942e-10
-2.38551e-17
5.72906e-10
-8.34454e-10
-2.2647e-17
6.47286e-10
-9.1388e-10
-2.05311e-17
7.20156e-10
-9.87569e-10
-1.99268e-17
7.89876e-10
-1.05391e-09
-2.01613e-17
8.54954e-10
-1.11192e-09
-2.49766e-17
9.14097e-10
-1.16067e-09
-2.94708e-17
9.66261e-10
-1.1998e-09
-3.56523e-17
1.01066e-09
-1.22919e-09
-3.98608e-17
1.04679e-09
-1.2489e-09
-4.27811e-17
1.0744e-09
-1.25961e-09
-4.36888e-17
1.09347e-09
-1.26174e-09
-4.51082e-17
1.10417e-09
-1.25623e-09
-2.53259e-17
1.10686e-09
-1.24398e-09
-2.47965e-17
1.10202e-09
-1.22595e-09
-1.96028e-17
1.09022e-09
-1.20315e-09
-1.2487e-17
1.07208e-09
-1.17656e-09
-5.05662e-18
1.04824e-09
-1.14719e-09
3.02467e-18
1.01935e-09
-1.11588e-09
1.05864e-17
9.86052e-10
-1.08351e-09
1.76297e-17
9.48918e-10
-1.0508e-09
2.35536e-17
9.0852e-10
-1.0182e-09
2.82099e-17
8.65316e-10
-9.86827e-10
3.1516e-17
8.19771e-10
-9.56485e-10
3.31693e-17
7.72242e-10
-9.28063e-10
3.36519e-17
7.23074e-10
-9.01392e-10
3.26559e-17
6.72561e-10
-8.76585e-10
3.07889e-17
6.20917e-10
-8.54158e-10
2.71891e-17
5.68403e-10
-8.33135e-10
2.17073e-17
5.15212e-10
-8.13663e-10
3.06462e-17
4.61577e-10
-7.94807e-10
3.54012e-17
4.07751e-10
-7.75765e-10
2.84211e-17
3.54017e-10
-7.5546e-10
2.43749e-17
3.0077e-10
-7.31859e-10
1.82673e-17
2.48499e-10
-7.03001e-10
1.86606e-17
1.97838e-10
-6.66217e-10
1.13195e-17
1.49627e-10
-6.18075e-10
5.55164e-18
1.04967e-10
-5.54712e-10
9.65841e-19
6.5295e-11
-4.7211e-10
-3.82054e-18
3.25515e-11
-3.66252e-10
-2.37439e-18
9.44577e-12
-2.35115e-10
-4.54132e-18
-7.98589e-11
-5.25743e-18
3.48348e-10
-5.62339e-10
-3.75058e-17
4.20966e-10
-6.52093e-10
-6.14329e-17
4.9795e-10
-7.42252e-10
-2.33888e-17
5.77559e-10
-8.30551e-10
-2.06281e-17
6.57907e-10
-9.14802e-10
-1.76791e-17
7.37063e-10
-9.93036e-10
-1.42664e-17
8.1316e-10
-1.06367e-09
-1.25411e-17
8.84482e-10
-1.12523e-09
-1.24441e-17
9.49543e-10
-1.17698e-09
-1.7073e-17
1.00713e-09
-1.21826e-09
-2.15727e-17
1.05635e-09
-1.24901e-09
-2.80427e-17
1.09659e-09
-1.26944e-09
-3.27957e-17
1.12758e-09
-1.27989e-09
-3.59816e-17
1.14929e-09
-1.28132e-09
-3.73933e-17
1.16193e-09
-1.27438e-09
-3.97953e-17
1.1659e-09
-1.2602e-09
-1.62974e-17
1.16174e-09
-1.23983e-09
-1.67569e-17
1.15011e-09
-1.21432e-09
-1.22087e-17
1.13171e-09
-1.18475e-09
-5.54118e-18
1.10729e-09
-1.15213e-09
1.37136e-18
1.07756e-09
-1.11746e-09
9.02341e-18
1.04324e-09
-1.08156e-09
1.60716e-17
1.00499e-09
-1.04527e-09
2.26784e-17
9.63428e-10
-1.00924e-09
2.8117e-17
9.1911e-10
-9.7388e-10
3.23688e-17
8.72488e-10
-9.40211e-10
3.52642e-17
8.2401e-10
-9.08006e-10
3.65806e-17
7.74006e-10
-8.78065e-10
3.67288e-17
7.22794e-10
-8.50181e-10
3.54704e-17
6.70633e-10
-8.24423e-10
3.33449e-17
6.17706e-10
-8.01237e-10
2.95143e-17
5.64238e-10
-7.79667e-10
2.37557e-17
5.10392e-10
-7.5982e-10
3.30443e-17
4.5637e-10
-7.40788e-10
3.75894e-17
4.02397e-10
-7.21791e-10
3.04693e-17
3.48728e-10
-7.01793e-10
2.62448e-17
2.95735e-10
-6.78866e-10
2.01672e-17
2.43884e-10
-6.51149e-10
2.0246e-17
1.93787e-10
-6.16121e-10
1.26864e-17
1.46263e-10
-5.70551e-10
6.7378e-18
1.02382e-10
-5.1083e-10
2.03613e-18
6.35376e-11
-4.33264e-10
-2.80335e-18
3.15968e-11
-3.3431e-10
-1.47774e-18
9.1435e-12
-2.1266e-10
-3.60725e-18
-7.0714e-11
-4.30784e-18
4.15096e-10
-6.38861e-10
-4.20045e-17
4.97072e-10
-7.3407e-10
-6.61217e-17
5.82596e-10
-8.27775e-10
-2.26626e-17
6.69539e-10
-9.17495e-10
-2.18639e-17
7.55702e-10
-1.00097e-09
-1.97305e-17
8.38929e-10
-1.07626e-09
-1.59855e-17
9.17237e-10
-1.14198e-09
-1.35451e-17
9.88892e-10
-1.19689e-09
-1.2712e-17
1.05249e-09
-1.24058e-09
-1.65985e-17
1.10698e-09
-1.27275e-09
-1.97799e-17
1.15167e-09
-1.29371e-09
-2.55383e-17
1.18623e-09
-1.304e-09
-2.94187e-17
1.21064e-09
-1.3043e-09
-3.19489e-17
1.22514e-09
-1.29583e-09
-3.26388e-17
1.23021e-09
-1.27944e-09
-3.5523e-17
1.22646e-09
-1.25645e-09
-7.08059e-18
1.21465e-09
-1.22802e-09
-8.6361e-18
1.1956e-09
-1.19526e-09
-4.50047e-18
1.17014e-09
-1.15928e-09
1.5337e-18
1.1391e-09
-1.12109e-09
8.04803e-18
1.10328e-09
-1.08164e-09
1.50499e-17
1.06343e-09
-1.04172e-09
2.16197e-17
1.02024e-09
-1.00207e-09
2.75801e-17
9.74302e-10
-9.63314e-10
3.25374e-17
9.26186e-10
-9.2576e-10
3.62191e-17
8.7631e-10
-8.90342e-10
3.87027e-17
8.25093e-10
-8.56789e-10
3.9568e-17
7.72829e-10
-8.25807e-10
3.93937e-17
7.19798e-10
-7.97152e-10
3.78101e-17
6.66222e-10
-7.70847e-10
3.54543e-17
6.12244e-10
-7.47264e-10
3.13701e-17
5.58053e-10
-7.25476e-10
2.54947e-17
5.03776e-10
-7.05547e-10
3.47535e-17
4.49583e-10
-6.86598e-10
3.93459e-17
3.95668e-10
-6.67876e-10
3.20711e-17
3.4226e-10
-6.48386e-10
2.7869e-17
2.89706e-10
-6.26311e-10
2.16138e-17
2.38447e-10
-5.99891e-10
2.14917e-17
1.89076e-10
-5.6675e-10
1.37888e-17
1.42389e-10
-5.23864e-10
7.73038e-18
9.9426e-11
-4.67866e-10
2.97086e-18
6.15357e-11
-3.95373e-10
-1.87156e-18
3.05098e-11
-3.03283e-10
-6.79636e-19
8.79767e-12