/*--------------------------------*- C++ -*----------------------------------*\
| =========                 |                                                 |
| \\      /  F ield         | OpenFOAM: The Open Source CFD Toolbox           |
|  \\    /   O peration     | Version:  v2012                                 |
|   \\  /    A nd           | Website:  www.openfoam.com                      |
|    \\/     M anipulation  |                                                 |
\*---------------------------------------------------------------------------*/
FoamFile
{
    version     2.0;
    format      ascii;
    class       volScalarField;
    location    "0.45";
    object      alpha.water;
}
// * * * * * * * * * * * * * * * * * * * * * * * * * * * * * * * * * * * * * //

dimensions      [0 0 0 0 0 0 0];


internalField   nonuniform List<scalar> 
3338
(
8.34383e-49
8.53709e-48
-3.85736e-179
5.82571e-178
2.18435e-278
2.61076e-276
5.08025e-274
1.4074e-271
5.20412e-269
2.48152e-266
1.49314e-263
1.11745e-260
1.0309e-257
1.16718e-254
1.6243e-251
2.80351e-248
6.11702e-245
1.74865e-241
7.00771e-238
4.55239e-234
7.19146e-230
2.77282e-60
6.12127e-59
2.24046e-115
3.67748e-176
3.08174e-263
1.26599e-261
8.33219e-260
7.76506e-258
9.63038e-256
1.53604e-253
3.08361e-251
7.68359e-249
2.35721e-246
8.87326e-244
4.10927e-241
2.36476e-238
1.7252e-235
1.65458e-232
2.2311e-229
4.85834e-226
2.49114e-222
5.21923e-78
8.06892e-91
4.42714e-115
1.00469e-174
4.11711e-257
1.0459e-255
4.19868e-254
2.37303e-252
1.7786e-250
1.70917e-248
2.06158e-246
3.07994e-244
5.65831e-242
1.27531e-239
3.53959e-237
1.22317e-234
5.3738e-232
3.11385e-229
2.54281e-226
3.33865e-223
9.9031e-220
2.78976e-78
3.2221e-77
1.18973e-113
1.69731e-173
1.47533e-252
2.75913e-251
8.04967e-250
3.28565e-248
1.77156e-246
1.22097e-244
1.05365e-242
1.12414e-240
1.47327e-238
2.36821e-236
4.69013e-234
1.15786e-231
3.64002e-229
1.51179e-226
8.85316e-224
8.29792e-221
1.71304e-217
5.87227e-83
8.25625e-82
-1.82006e-135
2.04535e-172
8.4578e-249
1.26654e-247
2.92382e-246
9.38336e-245
3.96186e-243
2.13177e-241
1.43287e-239
1.18869e-237
1.21009e-235
1.51033e-233
2.32295e-231
4.45669e-229
1.08988e-226
3.52421e-224
1.60651e-221
1.16752e-218
1.83706e-215
4.18528e-98
8.4088e-97
9.0436e-113
1.89791e-171
1.56528e-245
1.97079e-244
3.7842e-243
1.00395e-241
3.49001e-240
1.54153e-238
8.48635e-237
5.75684e-235
4.78726e-233
4.87847e-231
6.12627e-229
9.60006e-227
1.91864e-224
5.07247e-222
1.8897e-219
1.11868e-216
1.41629e-213
9.63967e-100
9.71688e-99
1.72904e-112
1.42278e-170
1.33238e-242
1.45563e-241
2.40166e-240
5.44313e-239
1.61013e-237
6.03441e-236
2.81269e-234
1.61298e-232
1.13275e-230
9.74314e-229
1.03257e-226
1.36578e-224
2.30471e-222
5.14553e-220
1.6179e-217
8.06215e-215
8.51418e-212
6.89275e-102
6.13952e-101
3.87361e-112
2.856e-167
6.40597e-240
6.2066e-239
9.0011e-238
1.78343e-236
4.59489e-235
1.49577e-233
6.04336e-232
2.99967e-230
1.82153e-228
1.35397e-226
1.23977e-224
1.41683e-222
2.06598e-220
3.98579e-218
1.08232e-215
4.64745e-213
4.20059e-210
5.33156e-104
3.31821e-103
8.46731e-112
1.25081e-181
1.98268e-237
1.73089e-236
2.24345e-235
3.95269e-234
9.02417e-233
2.59638e-231
9.25376e-230
4.04612e-228
2.16227e-226
1.41363e-224
1.13813e-222
1.14355e-220
1.46606e-218
2.48643e-216
5.93201e-214
2.23385e-211
1.76154e-208
2.36276e-105
1.17581e-104
1.7579e-111
2.74161e-127
4.31757e-235
3.43746e-234
4.0326e-233
6.40083e-232
1.31221e-230
3.38191e-229
1.07777e-227
4.20806e-226
2.00625e-224
1.16946e-222
8.39199e-221
7.51419e-219
8.58401e-217
1.29702e-214
2.75523e-212
9.22445e-210
6.44139e-207
2.31111e-106
9.72547e-106
3.47793e-111
-1.63304e-145
7.04883e-233
5.16647e-232
5.54059e-231
8.00454e-230
1.48904e-228
3.47446e-227
1.00077e-225
3.52719e-224
1.51664e-222
7.96843e-221
5.15207e-219
4.15559e-217
4.27567e-215
5.8173e-213
1.11214e-210
3.34674e-208
2.09407e-205
2.73164e-107
9.05931e-107
6.4208e-111
1.18842e-127
9.04371e-231
6.14891e-230
6.07637e-229
8.05652e-228
1.37153e-226
2.92251e-225
7.67503e-224
2.46343e-222
9.63805e-221
4.60484e-219
2.70638e-217
1.98377e-215
1.8545e-213
2.29186e-211
3.97786e-209
1.08561e-206
6.14531e-204
5.57121e-108
8.00334e-108
1.19585e-110
1.3856e-127
1.13746e-185
5.99959e-228
5.49925e-227
6.73728e-226
1.05698e-224
2.0715e-223
4.99609e-222
1.47105e-220
5.27543e-219
2.30893e-217
1.24262e-215
8.33813e-214
7.13387e-212
8.06644e-210
1.28036e-207
3.19266e-205
1.64803e-202
2.88582e-108
7.05148e-109
1.76053e-110
2.02675e-127
3.34877e-147
4.93189e-226
4.21616e-225
4.8001e-224
6.98073e-223
1.26586e-221
2.82094e-220
7.6665e-219
2.53567e-217
1.02298e-215
5.07262e-214
3.13524e-212
2.47013e-210
2.57121e-208
3.75536e-206
8.60987e-204
4.07987e-201
2.04375e-108
4.45925e-109
2.25192e-110
2.37817e-141
1.10865e-146
3.4913e-224
2.79665e-223
2.9732e-222
4.02815e-221
6.79311e-220
1.40601e-218
3.54546e-217
1.08724e-215
4.06457e-214
1.86689e-212
1.06845e-210
7.79259e-209
7.50659e-207
1.01418e-204
2.14942e-202
9.40294e-200
1.43107e-108
2.79012e-109
2.23183e-110
6.71616e-126
2.98934e-146
2.16678e-222
1.6329e-221
1.62782e-220
2.06337e-219
3.2503e-218
6.27613e-217
1.47509e-215
4.21312e-214
1.4662e-212
6.26642e-211
3.33609e-209
2.26266e-207
2.02628e-205
2.54398e-203
5.00727e-201
2.03212e-198
1.05054e-108
1.92159e-109
2.09334e-110
1.73903e-137
5.62606e-146
1.1966e-220
8.51358e-220
7.98711e-219
9.50758e-218
1.40428e-216
2.53955e-215
5.58512e-214
1.49167e-212
4.85167e-211
1.93719e-209
9.63166e-208
6.09908e-206
5.09791e-204
5.97156e-202
1.09602e-199
4.14385e-197
7.88045e-109
1.53002e-109
1.83006e-110
1.93667e-126
4.49324e-148
5.95411e-219
4.0118e-218
3.55331e-217
3.98513e-216
5.53757e-215
9.41101e-214
1.94339e-212
4.87045e-211
1.48572e-209
5.56154e-208
2.59155e-206
1.53755e-204
1.20373e-202
1.32018e-200
2.26756e-198
8.01652e-196
5.87681e-109
1.49279e-109
1.48112e-110
2.106e-126
1.83804e-143
2.698e-217
1.7263e-216
1.44761e-215
1.53409e-214
2.01144e-213
3.22218e-212
6.2669e-211
1.47832e-209
4.24262e-208
1.49355e-206
6.54292e-205
3.64836e-203
2.68362e-201
2.76438e-199
4.45752e-197
1.47835e-194
4.06233e-109
2.35101e-109
1.17178e-110
2.5559e-126
1.16026e-145
1.12358e-215
6.84382e-215
5.44726e-214
5.46878e-213
6.78384e-212
1.0271e-210
1.88659e-209
4.20048e-208
1.13727e-206
3.7756e-205
1.55931e-203
8.19451e-202
5.67912e-200
5.50988e-198
8.36441e-196
2.60996e-193
2.06562e-109
2.49648e-109
1.05601e-110
3.18285e-137
9.77746e-144
4.33472e-214
2.51909e-213
1.90747e-212
1.81843e-211
2.13917e-210
3.0685e-209
5.33603e-208
1.12413e-206
2.87848e-205
9.03452e-204
3.5264e-202
1.75096e-200
1.14619e-198
1.05001e-196
1.50449e-194
4.42821e-192
7.18177e-110
8.91528e-110
6.73197e-111
2.80089e-126
3.01983e-144
1.56011e-212
8.6677e-212
6.25677e-211
5.67592e-210
6.34573e-209
8.64289e-208
1.42607e-206
2.84897e-205
6.91499e-204
2.05652e-202
7.60363e-201
3.57521e-199
2.21559e-197
1.92086e-195
2.60367e-193
7.24564e-191
2.87836e-110
1.00875e-110
3.52652e-111
2.8822e-126
3.93193e-144
5.27085e-211
2.80476e-210
1.93374e-209
1.6725e-208
1.78058e-207
2.30728e-206
3.61946e-205
6.87106e-204
1.58406e-202
4.47305e-201
1.56981e-199
7.00421e-198
4.11767e-196
3.38549e-194
4.35025e-192
1.14703e-189
2.10151e-110
3.78196e-111
3.1504e-111
5.13804e-126
4.44238e-143
1.6809e-209
8.58144e-209
5.66074e-208
4.67623e-207
4.74922e-206
5.86558e-205
8.76434e-204
1.58393e-202
3.4749e-201
9.33424e-200
3.11527e-198
1.32146e-196
7.3836e-195
5.768e-193
7.03954e-191
1.76201e-188
1.62082e-110
1.03213e-110
2.08496e-111
5.23599e-127
2.31361e-145
5.08526e-208
2.49468e-207
1.57702e-206
1.2463e-205
1.20948e-204
1.42616e-203
2.03317e-202
3.50407e-201
7.32791e-200
1.87573e-198
5.96359e-197
2.40915e-195
1.2816e-193
9.52907e-192
1.10651e-189
2.63383e-187
6.3861e-111
5.61959e-111
1.16174e-111
6.13295e-126
1.36271e-144
1.46613e-206
6.92131e-206
4.19918e-205
3.17959e-204
2.95302e-203
3.32957e-202
4.53602e-201
7.46685e-200
1.49085e-198
3.64224e-197
1.10489e-195
4.25763e-194
2.15986e-192
1.53095e-190
1.69413e-188
3.84106e-186
2.97563e-111
2.01596e-111
5.786e-112
4.06626e-126
6.25066e-145
4.04519e-205
1.84017e-204
1.07298e-203
7.79531e-203
6.93851e-202
7.49151e-201
9.76714e-200
1.5379e-198
2.936e-197
6.85605e-196
1.98738e-194
7.31583e-193
3.54433e-191
2.39855e-189
2.53317e-187
5.47889e-185
1.43576e-111
7.98963e-112
2.68004e-112
2.99088e-126
1.79373e-146
1.07228e-203
4.70626e-203
2.64081e-202
1.84325e-201
1.57448e-200
1.63007e-199
2.0366e-198
3.07157e-197
5.61451e-196
1.2549e-194
3.48074e-193
1.22571e-191
5.67898e-190
3.67423e-188
3.70864e-186
7.66248e-184
7.33566e-112
3.88708e-112
1.11168e-112
2.26629e-126
5.08123e-144
2.74077e-202
1.162e-201
6.28234e-201
4.21811e-200
3.46206e-199
3.44129e-198
4.12548e-197
5.96731e-196
1.04571e-194
2.24001e-193
5.95286e-192
2.00787e-190
8.90823e-189
5.51737e-187
5.32936e-185
1.05323e-182
3.40475e-112
3.28527e-112
3.9452e-113
2.13454e-126
7.10512e-144
6.77879e-201
2.77929e-200
1.44946e-199
9.37265e-199
7.40046e-198
7.07099e-197
8.14347e-196
1.13106e-194
1.90251e-193
3.91051e-192
9.96893e-191
3.22463e-189
1.37163e-187
8.14237e-186
7.53561e-184
1.42623e-181
1.06942e-112
1.19924e-112
1.24564e-113
2.01898e-126
1.02544e-143
1.62786e-199
6.46105e-199
3.25394e-198
2.02865e-197
1.54267e-196
1.41847e-195
1.57116e-194
2.09781e-193
3.39087e-192
6.69547e-191
1.63921e-189
5.09081e-188
2.07848e-186
1.18394e-184
1.05105e-182
1.90732e-180
2.42588e-113
2.70305e-113
3.52737e-114
1.96829e-126
1.00991e-143
3.80809e-198
1.46465e-197
7.13057e-197
4.29066e-196
3.14574e-195
2.78655e-194
2.97172e-193
3.81851e-192
5.93766e-191
1.12752e-189
2.65393e-188
7.92201e-187
3.10791e-185
1.7006e-183
1.44977e-181
2.52522e-179
5.78564e-114
6.22226e-114
9.10958e-115
1.91327e-126
8.27407e-143
8.70684e-197
3.24816e-196
1.53019e-195
8.89587e-195
6.29458e-194
5.37718e-193
5.52695e-192
6.84167e-191
1.0245e-189
1.87288e-188
4.24268e-187
1.21852e-185
4.59828e-184
2.41953e-182
1.98282e-180
3.31852e-178
1.38043e-114
1.45813e-114
2.12163e-115
1.82025e-126
2.72469e-145
1.95222e-195
7.0705e-195
3.22617e-194
1.81383e-193
1.23989e-192
1.02246e-191
1.01391e-190
1.21032e-189
1.74708e-188
3.07774e-187
6.71681e-186
1.85796e-184
6.75091e-183
3.41929e-181
2.69638e-179
4.34053e-177
3.09275e-115
3.2076e-115
4.30267e-116
1.65679e-126
1.62023e-144
4.3073e-194
1.51582e-193
6.70519e-193
3.64919e-192
2.41214e-191
1.92201e-190
1.84055e-189
2.12075e-188
2.95381e-187
5.01932e-186
1.05632e-184
2.81689e-183
9.86458e-182
4.81405e-180
3.65656e-178
5.66706e-176
6.39724e-116
5.75815e-116
7.6307e-117
1.40035e-126
3.96258e-146
9.38511e-193
3.2119e-192
1.3786e-191
7.26931e-191
4.65071e-190
3.58397e-189
3.31743e-188
3.6931e-187
4.96786e-186
8.15041e-185
1.65559e-183
4.26026e-182
1.43925e-180
6.77384e-179
4.96046e-177
7.40873e-175
1.38772e-116
9.68449e-117
1.27852e-117
1.06551e-126
5.09535e-144
2.02703e-191
6.7517e-191
2.81431e-190
1.43906e-189
8.91897e-189
6.65341e-188
5.95824e-187
6.41428e-186
8.34077e-185
1.32239e-183
2.59509e-182
6.44968e-181
2.1039e-179
9.55847e-178
6.75461e-176
9.73101e-174
3.04475e-117
2.02362e-117
2.2812e-118
7.24393e-127
2.37823e-145
4.357e-190
1.41354e-189
5.72679e-189
2.84212e-188
1.70791e-187
1.23441e-186
1.07042e-185
1.11534e-184
1.40324e-183
2.15184e-182
4.08326e-181
9.81029e-180
3.09273e-178
1.35755e-176
9.26575e-175
1.28874e-172
6.63793e-118
4.64333e-118
4.59876e-119
4.65982e-127
2.08281e-145
9.3593e-189
2.95977e-188
1.16642e-187
5.62304e-187
3.27906e-186
2.29817e-185
1.93138e-184
1.94949e-183
2.37511e-182
3.52585e-181
6.475e-180
1.50514e-178
4.58972e-177
1.94817e-175
1.28541e-173
1.72756e-171
1.44556e-118
1.05719e-118
1.02224e-119
3.16217e-127
1.585e-145
2.01812e-187
6.22544e-187
2.38836e-186
1.11932e-185
6.33939e-185
4.312e-184
3.51497e-183
3.43984e-182
4.06164e-181
5.84182e-180
1.03912e-178
2.339e-177
6.90481e-176
2.83651e-174
1.81073e-172
2.35353e-170
3.34556e-119
2.71456e-119
2.67405e-120
2.36521e-127
8.27824e-146
4.38844e-186
1.32143e-185
4.93895e-185
2.25201e-184
1.23972e-183
8.19041e-183
6.48123e-182
6.15443e-181
7.04866e-180
9.83038e-179
1.69505e-177
3.69763e-176
1.05757e-174
4.20806e-173
2.6011e-171
3.27228e-169
8.17548e-120
8.10811e-120
1.08985e-120
1.8639e-127
6.45727e-146
9.66933e-185
2.84402e-184
1.03634e-183
4.60093e-183
2.46375e-182
1.58222e-181
1.21637e-180
1.12163e-179
1.24698e-178
1.68763e-177
2.82304e-176
5.9727e-175
1.65634e-173
6.38848e-172
3.82657e-170
4.66297e-168
1.77629e-120
2.22387e-120
6.73416e-121
1.46272e-127
5.14481e-146
2.16903e-183
6.23568e-183
2.21682e-182
9.58952e-182
4.99877e-181
3.12278e-180
2.33404e-179
2.09154e-178
2.25886e-177
2.96877e-176
4.82125e-175
9.90003e-174
2.66392e-172
9.96667e-171
5.78904e-169
6.83791e-167
2.2463e-121
4.04823e-121
3.46117e-121
1.09582e-127
4.53793e-146
4.97607e-182
1.3991e-181
4.85577e-181
2.04805e-180
1.03998e-179
6.32428e-179
4.59883e-178
4.00753e-177
4.20731e-176
5.37346e-175
8.47752e-174
1.69065e-172
4.41698e-171
1.60404e-169
9.04045e-168
1.03573e-165
1.41623e-122
3.37377e-122
5.42554e-122
7.56868e-128
3.74642e-146
1.17237e-180
3.22562e-180
1.09358e-179
4.50014e-179
2.22742e-178
1.3194e-177
9.34024e-177
7.92011e-176
8.08787e-175
1.00441e-173
1.54034e-172
2.98515e-171
7.57661e-170
2.67221e-168
1.4622e-166
1.62569e-164
2.89309e-123
1.19403e-123
1.298e-123
4.66751e-128
2.90848e-146
2.84681e-179
7.66867e-179
2.54116e-178
1.02082e-177
4.92801e-177
2.84504e-176
1.96183e-175
1.61967e-174
1.60969e-173
1.94482e-172
2.90073e-171
5.46567e-170
1.34836e-168
4.62083e-167
2.45597e-165
2.65114e-163
3.32528e-124
3.30514e-125
2.52632e-128
1.99833e-146
7.14444e-178
1.88516e-177
6.10876e-177
2.39685e-176
1.12912e-175
6.35656e-175
4.2718e-174
3.43541e-173
3.32445e-172
3.90948e-171
5.67362e-170
1.03985e-168
2.49442e-167
8.30947e-166
4.2915e-164
4.49942e-162
2.16475e-124
2.08387e-125
1.24663e-128
1.37721e-146
1.85653e-176
4.80051e-176
1.5219e-175
5.83514e-175
2.68367e-174
1.47393e-173
9.65771e-173
7.5689e-172
7.13471e-171
8.16976e-170
1.15406e-168
2.05811e-167
4.80231e-166
1.55555e-164
7.80884e-163
7.95423e-161
1.43892e-125
6.32704e-129
8.80058e-147
4.9997e-175
1.26738e-174
3.93261e-174
1.47402e-173
6.62126e-173
3.54919e-172
2.26832e-171
1.73306e-170
1.59189e-169
1.77551e-168
2.44205e-167
4.23887e-166
9.62345e-165
3.03183e-163
1.47969e-161
1.46467e-159
9.70604e-126
3.65095e-129
5.59486e-147
1.39534e-173
3.46876e-173
1.05387e-172
3.86309e-172
1.69548e-171
8.87314e-171
5.5332e-170
4.12266e-169
3.69114e-168
4.01114e-167
5.37308e-166
9.0798e-165
2.00608e-163
6.14816e-162
2.91778e-160
2.807e-158
6.84816e-126
2.31572e-129
3.42613e-147
4.03355e-172
9.83694e-172
2.92731e-171
1.04977e-170
4.50321e-170
2.30168e-169
1.40089e-168
1.01817e-167
8.88807e-167
9.41285e-166
1.22829e-164
2.02116e-163
4.34656e-162
1.29609e-160
5.98203e-159
5.59395e-157
5.13154e-126
1.46668e-129
2.08396e-147
1.20618e-170
2.88671e-170
8.41683e-170
2.95387e-169
1.23887e-168
6.18611e-168
3.67584e-167
2.60677e-166
2.21916e-165
2.29086e-164
2.9126e-163
4.66765e-162
9.77186e-161
2.83539e-159
1.27283e-157
1.15704e-155
3.9893e-126
8.48526e-130
1.25157e-147
3.72357e-169
8.74773e-169
2.49983e-168
8.58817e-168
3.52262e-167
1.71886e-166
9.97384e-166
6.90289e-165
5.73199e-164
5.76881e-163
7.14717e-162
1.11563e-160
2.27392e-159
6.42079e-158
2.80356e-156
2.47749e-154
3.16963e-126
4.17116e-130
7.48341e-148
1.18409e-167
2.73146e-167
7.65256e-167
2.57437e-166
1.03297e-165
4.92666e-165
2.7923e-164
1.88645e-163
1.52824e-162
1.49973e-161
1.81089e-160
2.7536e-159
5.46479e-158
1.50174e-156
6.37834e-155
5.47957e-153
2.62741e-126
1.69098e-130
4.46823e-148
3.87034e-166
8.76912e-166
2.40931e-165
7.93877e-165
3.11697e-164
1.45345e-163
8.04814e-163
5.30864e-162
4.19638e-161
4.01615e-160
4.72688e-159
7.00252e-158
1.35327e-156
3.61946e-155
1.49542e-153
1.24895e-151
1.98595e-126
5.96969e-131
2.66489e-148
1.29682e-164
2.8865e-164
7.77904e-164
2.51116e-163
9.64946e-163
4.39997e-162
2.38067e-161
1.53338e-160
1.18287e-159
1.10413e-158
1.26677e-157
1.82836e-156
3.44071e-155
8.95639e-154
3.59941e-152
2.9222e-150
4.84703e-127
1.89893e-131
1.58323e-148
4.51184e-163
9.84932e-163
2.60039e-162
8.21591e-162
3.08745e-161
1.37577e-160
7.26956e-160
4.56986e-159
3.43863e-158
3.12909e-157
3.49789e-156
4.91634e-155
9.00433e-154
2.27977e-152
8.90491e-151
7.01936e-149
1.3383e-128
4.36755e-132
9.32981e-149
2.54689e-161
5.18874e-161
1.28693e-160
3.8385e-160
1.36671e-159
5.78587e-159
2.91026e-158
1.7439e-157
1.2519e-156
1.08725e-155
1.15984e-154
1.55465e-153
2.71177e-152
6.52278e-151
2.40932e-149
1.77572e-147
1.93006e-131
4.06133e-133
5.42181e-149
5.06261e-159
1.00451e-158
2.42632e-158
7.04837e-158
2.44392e-157
1.00699e-156
4.92436e-156
2.86337e-155
1.98884e-154
1.66404e-153
1.69921e-152
2.15889e-151
3.51261e-150
7.65393e-149
2.40251e-147
1.26649e-145
3.52777e-134
1.34917e-134
3.09481e-149
4.2902e-157
9.23749e-157
2.3948e-156
7.39774e-156
2.70648e-155
1.1692e-154
5.96476e-154
3.60554e-153
2.59809e-152
2.25398e-151
2.38892e-150
3.15821e-149
5.37214e-148
1.24689e-146
6.44771e-145
9.43116e-143
3.87744e-134
2.30877e-135
1.73046e-149
1.34633e-155
2.80976e-155
7.00291e-155
2.06521e-154
7.16882e-154
2.92228e-153
1.39995e-152
7.91279e-152
5.31144e-151
4.27662e-150
4.18854e-149
5.09028e-148
7.97963e-147
8.63756e-146
5.11685e-142
7.15817e-140
1.87613e-134
7.14055e-136
9.47845e-150
2.8769e-154
5.79839e-154
1.39076e-153
3.93761e-153
1.31088e-152
5.12816e-152
2.36345e-151
1.29037e-150
8.40715e-150
6.59993e-149
6.32991e-148
7.65102e-147
9.22158e-146
1.19423e-145
3.99135e-139
5.41581e-137
1.94641e-135
9.71063e-137
5.10207e-150
5.0326e-153
9.87752e-153
2.30399e-152
6.34624e-152
2.06031e-151
7.8921e-151
3.57818e-150
1.92808e-149
1.23971e-148
9.58025e-148
9.13236e-147
9.45005e-146
2.19658e-145
-1.37305e-143
3.09078e-136
4.06837e-134
1.842e-137
2.9347e-138
2.75545e-150
7.63305e-152
1.46846e-151
3.35596e-151
9.07278e-151
2.89999e-150
1.09638e-149
4.90167e-149
2.58926e-148
1.61967e-147
1.23138e-146
1.01619e-145
2.25366e-145
2.92503e-143
-9.77274e-141
2.36702e-133
3.02218e-131
1.4901e-140
1.2036e-140
2.06452e-150
1.00564e-150
1.90325e-150
4.28098e-150
1.14109e-149
3.59674e-149
1.33486e-148
5.79957e-148
2.94938e-147
1.81217e-146
1.14125e-145
2.41948e-145
2.90632e-143
2.22109e-140
-6.68384e-138
1.78544e-130
2.21091e-128
2.27489e-143
1.50046e-144
7.95428e-150
1.12773e-149
2.1106e-149
4.69748e-149
1.23673e-148
3.82073e-148
1.37153e-147
5.71712e-147
2.89392e-146
1.31606e-145
2.81901e-145
3.10237e-143
2.20716e-140
1.66691e-137
-4.44189e-135
1.32093e-127
1.58615e-125
5.52116e-145
2.61851e-145
6.75602e-149
1.04769e-148
1.95169e-148
4.30808e-148
1.11374e-147
3.33306e-147
1.15871e-146
4.99193e-146
1.54932e-145
3.65372e-145
4.58356e-143
2.31646e-140
1.65725e-137
1.21952e-134
-2.85192e-132
9.54447e-125
1.11114e-122
1.62083e-145
1.25233e-145
4.99745e-148
7.7841e-148
1.44078e-147
3.12773e-147
7.87794e-147
2.33433e-146
8.8509e-146
1.89313e-145
5.68519e-145
8.7868e-143
3.35542e-140
1.7017e-137
1.21312e-134
8.65961e-132
-1.75781e-129
6.70608e-122
7.56738e-120
4.12911e-146
3.00424e-146
2.89384e-147
4.47565e-147
8.14754e-147
1.73477e-146
4.43648e-146
1.45987e-145
2.44122e-145
1.17531e-144
2.08867e-142
6.27359e-140
2.39848e-137
1.21317e-134
8.42259e-132
5.9416e-129
-1.03267e-126
4.56152e-119
4.98811e-117
1.97324e-146
1.73216e-146
1.33496e-146
2.04574e-146
3.67208e-146
8.06994e-146
2.06502e-145
3.23895e-145
3.31723e-144
5.93343e-142
1.44464e-139
4.33789e-137
1.65459e-134
8.35418e-132
5.57058e-129
3.92158e-126
-5.73464e-124
2.9904e-116
3.16798e-114
3.95392e-146
4.14808e-146
5.1129e-146
7.91084e-146
1.52398e-145
2.69047e-145
4.57447e-145
1.18787e-143
1.95344e-141
3.94798e-139
9.60611e-137
2.87988e-134
1.09662e-131
5.5309e-129
3.52592e-126
2.47862e-123
-2.97984e-121
1.88092e-113
1.92979e-111
1.10916e-145
1.21902e-145
1.62474e-145
2.70249e-145
3.63911e-145
8.4174e-145
4.98635e-143
7.26004e-141
1.24208e-138
2.50954e-136
6.10137e-134
1.8274e-131
6.95129e-129
3.50454e-126
2.12611e-123
1.4934e-120
-1.42961e-118
1.12997e-110
1.12239e-108
2.77194e-145
3.13163e-145
4.03404e-145
5.16337e-145
2.61471e-144
2.32327e-142
2.97562e-140
4.38332e-138
7.50209e-136
1.51583e-133
3.68485e-131
1.10328e-128
4.19515e-126
2.11558e-123
1.21581e-120
8.53864e-118
-6.20946e-116
6.45437e-108
6.20439e-106
5.52825e-145
5.83571e-145
7.76689e-145
1.22249e-143
1.16263e-141
1.31798e-139
1.69531e-137
2.5004e-135
4.28345e-133
8.66091e-131
2.10642e-128
6.30874e-126
2.3995e-123
1.21117e-120
6.56346e-118
4.6118e-115
-2.35967e-113
3.4896e-105
3.24493e-103
8.54221e-145
1.66683e-144
6.80778e-143
6.11329e-141
6.19229e-139
7.04205e-137
9.07775e-135
1.34134e-132
2.30146e-130
4.6596e-128
1.13453e-125
3.40117e-123
1.29482e-120
6.54608e-118
3.32972e-115
2.34232e-112
-7.26843e-111
1.77775e-102
1.59841e-100
6.38498e-144
4.02404e-142
3.32039e-140
3.03304e-138
3.08364e-136
3.51786e-134
4.54744e-132
6.73598e-130
1.15829e-127
2.34973e-125
5.73128e-123
1.72113e-120
6.56956e-118
3.12728e-115
1.57995e-112
1.11359e-109
-1.366e-108
8.49511e-100
7.38172e-98
2.38598e-141
1.83262e-139
1.52414e-137
1.39875e-135
1.42803e-133
1.63526e-131
2.12108e-129
3.15163e-127
5.43479e-125
1.10538e-122
2.70265e-120
8.13587e-118
3.11608e-115
1.37795e-112
6.97984e-110
4.93272e-107
2.53988e-106
3.79029e-97
3.18127e-95
9.99948e-139
7.73287e-137
6.46835e-135
5.9674e-133
6.12154e-131
7.04068e-129
9.16926e-127
1.36751e-124
2.36637e-122
4.82858e-120
1.1842e-117
3.57594e-115
1.37515e-112
5.62185e-110
2.85712e-107
2.02601e-104
4.27966e-103
1.57154e-94
1.27333e-92
3.85346e-136
3.00034e-134
2.52569e-132
2.34373e-130
2.41728e-128
2.79416e-126
3.65588e-124
5.47621e-122
9.51511e-120
1.94913e-117
4.79837e-115
1.4551e-112
5.46674e-110
2.11293e-107
1.07822e-104
7.67745e-102
2.78149e-100
6.02533e-92
4.70999e-90
1.35769e-133
1.06494e-131
9.02708e-130
8.43086e-128
8.74771e-126
1.01685e-123
1.33748e-121
2.01345e-119
3.51509e-117
7.23329e-115
1.78902e-112
5.45677e-110
1.87344e-107
7.27584e-105
3.73138e-102
2.66998e-99
1.36719e-97
2.12508e-89
1.60158e-87
4.34961e-131
3.43895e-129
2.93703e-127
2.76239e-125
2.88518e-123
3.37471e-121
4.46509e-119
6.75969e-117
1.18649e-114
2.45428e-112
6.10297e-110
1.87343e-107
5.84533e-105
2.28273e-102
1.17746e-99
8.47341e-97
5.77502e-95
6.8564e-87
4.9784e-85
1.25996e-128
1.00467e-126
8.65003e-125
8.19785e-123
8.62409e-121
1.01565e-118
1.35261e-116
2.06058e-114
3.63878e-112
7.57389e-110
1.89714e-107
5.32442e-105
1.64982e-102
6.48545e-100
3.36733e-97
2.43912e-94
2.14597e-92
2.01166e-84
1.40617e-82
2.03843e-126
2.63812e-124
2.29113e-122
2.18926e-120
2.32105e-118
2.75398e-116
3.69395e-114
5.66644e-112
1.00742e-109
1.97128e-107
4.13143e-121
6.09702e-122
5.39665e-120
5.19345e-118
5.54426e-116
6.62306e-114
8.43864e-112
1.468e-48
1.5019e-47
1.06022e-136
7.51293e-173
1.44349e-278
1.72528e-276
3.3572e-274
9.3006e-272
3.43906e-269
1.63988e-266
9.86717e-264
7.3845e-261
6.81255e-258
7.71312e-255
1.07339e-251
1.85265e-248
4.04233e-245
1.15557e-241
4.63093e-238
3.00837e-234
4.75236e-230
7.40611e-55
1.549e-53
7.63987e-122
2.83134e-171
3.08175e-263
1.26599e-261
8.33219e-260
7.76506e-258
9.63041e-256
1.53605e-253
3.08361e-251
7.68359e-249
2.35721e-246
8.87328e-244
4.10927e-241
2.36476e-238
1.7252e-235
1.65458e-232
2.23111e-229
4.85834e-226
2.49114e-222
3.51495e-74
-1.84306e-96
1.52205e-120
5.57427e-170
4.11712e-257
1.0459e-255
4.19869e-254
2.37304e-252
1.77861e-250
1.70918e-248
2.06159e-246
3.07995e-244
5.65832e-242
1.27532e-239
3.5396e-237
1.22317e-234
5.37381e-232
3.11386e-229
2.54281e-226
3.33865e-223
9.90312e-220
1.85347e-74
1.96983e-73
1.15239e-119
7.43508e-169
1.47533e-252
2.75914e-251
8.04969e-250
3.28565e-248
1.77157e-246
1.22098e-244
1.05365e-242
1.12414e-240
1.47328e-238
2.36822e-236
4.69014e-234
1.15787e-231
3.64003e-229
1.5118e-226
8.85319e-224
8.29794e-221
1.71304e-217
1.04171e-77
1.36036e-76
1.50566e-116
7.45638e-168
8.45781e-249
1.26654e-247
2.92382e-246
9.38338e-245
3.96188e-243
2.13178e-241
1.43287e-239
1.18869e-237
1.21009e-235
1.51033e-233
2.32295e-231
4.4567e-229
1.08988e-226
3.52421e-224
1.60651e-221
1.16752e-218
1.83706e-215
2.14173e-98
-4.36076e-108
1.26985e-117
5.95541e-167
1.56529e-245
1.97079e-244
3.78421e-243
1.00395e-241
3.49003e-240
1.54153e-238
8.48636e-237
5.75685e-235
4.78727e-233
4.87849e-231
6.12628e-229
9.60007e-227
1.91865e-224
5.07248e-222
1.8897e-219
1.11868e-216
1.4163e-213
1.97439e-94
7.94338e-94
5.52913e-116
3.93275e-166
1.33239e-242
1.45563e-241
2.40166e-240
5.44313e-239
1.61014e-237
6.03443e-236
2.81269e-234
1.61298e-232
1.13275e-230
9.74317e-229
1.03258e-226
1.36578e-224
2.30471e-222
5.14554e-220
1.61791e-217
8.06216e-215
8.51419e-212
4.33493e-97
3.74684e-96
1.18172e-115
5.67849e-163
6.40598e-240
6.20661e-239
9.00112e-238
1.78343e-236
4.59491e-235
1.49577e-233
6.04337e-232
2.99967e-230
1.82153e-228
1.35398e-226
1.23977e-224
1.41683e-222
2.06599e-220
3.9858e-218
1.08232e-215
4.64746e-213
4.20059e-210
3.0281e-104
2.00052e-103
2.99475e-115
1.65201e-155
1.98268e-237
1.7309e-236
2.24345e-235
3.9527e-234
9.0242e-233
2.59638e-231
9.25377e-230
4.04613e-228
2.16227e-226
1.41364e-224
1.13813e-222
1.14355e-220
1.46606e-218
2.48643e-216
5.93202e-214
2.23385e-211
1.76155e-208
3.32554e-106
1.96543e-105
7.79965e-115
9.95936e-146
4.31757e-235
3.43747e-234
4.0326e-233
6.40084e-232
1.31221e-230
3.38192e-229
1.07777e-227
4.20806e-226
2.00626e-224
1.16946e-222
8.392e-221
7.5142e-219
8.58402e-217
1.29702e-214
2.75524e-212
9.22446e-210
6.4414e-207
2.53879e-108
1.48047e-107
1.62076e-114
6.4037e-133
7.04884e-233
5.16648e-232
5.5406e-231
8.00455e-230
1.48905e-228
3.47447e-227
1.00077e-225
3.52719e-224
1.51664e-222
7.96845e-221
5.15208e-219
4.1556e-217
4.27568e-215
5.81731e-213
1.11214e-210
3.34674e-208
2.09408e-205
2.86684e-114
7.45169e-110
8.36539e-114
9.39879e-133
9.04372e-231
6.14891e-230
6.07638e-229
8.05653e-228
1.37154e-226
2.92251e-225
7.67504e-224
2.46344e-222
9.63806e-221
4.60485e-219
2.70638e-217
1.98378e-215
1.8545e-213
2.29186e-211
3.97787e-209
1.08561e-206
6.14532e-204
2.37977e-114
3.4608e-112
6.90113e-133
1.37764e-132
4.64943e-180
5.99959e-228
5.49926e-227
6.73729e-226
1.05698e-224
2.0715e-223
4.9961e-222
1.47105e-220
5.27543e-219
2.30894e-217
1.24262e-215
8.33814e-214
7.13388e-212
8.06645e-210
1.28036e-207
3.19266e-205
1.64803e-202
1.26478e-114
8.40924e-114
1.44631e-132
2.89681e-132
1.60267e-152
4.9319e-226
4.21616e-225
4.8001e-224
6.98075e-223
1.26586e-221
2.82094e-220
7.66651e-219
2.53567e-217
1.02298e-215
5.07263e-214
3.13524e-212
2.47013e-210
2.57121e-208
3.75536e-206
8.60988e-204
4.07987e-201
1.4089e-115
1.3196e-115
1.3136e-115
1.23454e-147
7.42454e-152
3.4913e-224
2.79665e-223
2.9732e-222
4.02816e-221
6.79313e-220
1.40601e-218
3.54546e-217
1.08724e-215
4.06458e-214
1.86689e-212
1.06846e-210
7.7926e-209
7.5066e-207
1.01418e-204
2.14942e-202
9.40295e-200
1.56095e-110
1.4089e-115
1.27922e-114
1.21717e-129
2.01988e-151
2.16678e-222
1.63291e-221
1.62782e-220
2.06338e-219
3.25031e-218
6.27614e-217
1.47509e-215
4.21313e-214
1.4662e-212
6.26643e-211
3.33609e-209
2.26266e-207
2.02628e-205
2.54399e-203
5.00728e-201
2.03212e-198
3.90084e-110
1.53543e-115
7.15851e-114
2.57842e-146
4.05036e-151
1.1966e-220
8.51359e-220
7.98712e-219
9.50761e-218
1.40429e-216
2.53955e-215
5.58513e-214
1.49167e-212
4.85168e-211
1.93719e-209
9.63167e-208
6.09909e-206
5.09792e-204
5.97157e-202
1.09602e-199
4.14385e-197
5.81315e-110
1.7303e-115
2.81509e-113
7.9762e-129
5.97246e-151
5.95411e-219
4.01181e-218
3.55331e-217
3.98514e-216
5.53758e-215
9.41102e-214
1.9434e-212
4.87046e-211
1.48572e-209
5.56155e-208
2.59155e-206
1.53755e-204
1.20373e-202
1.32018e-200
2.26756e-198
8.01653e-196
7.99425e-110
2.39412e-115
8.62872e-113
3.22467e-129
3.04614e-149
2.698e-217
1.7263e-216
1.44762e-215
1.5341e-214
2.01145e-213
3.22218e-212
6.2669e-211
1.47832e-209
4.24263e-208
1.49356e-206
6.54293e-205
3.64837e-203
2.68363e-201
2.76438e-199
4.45752e-197
1.47835e-194
1.0207e-109
4.46559e-115
1.80349e-112
2.79087e-129
3.8248e-149
1.12358e-215
6.84383e-215
5.44726e-214
5.4688e-213
6.78386e-212
1.0271e-210
1.88659e-209
4.20048e-208
1.13727e-206
3.7756e-205
1.55931e-203
8.19452e-202
5.67913e-200
5.50989e-198
8.36442e-196
2.60996e-193
1.19501e-109
9.29721e-115
4.63814e-112
1.1593e-145
5.298e-149
4.33472e-214
2.5191e-213
1.90747e-212
1.81844e-211
2.13917e-210
3.06851e-209
5.33604e-208
1.12413e-206
2.87849e-205
9.03453e-204
3.5264e-202
1.75096e-200
1.14619e-198
1.05002e-196
1.50449e-194
4.42821e-192
1.2585e-109
2.08075e-110
3.87206e-112
2.92944e-129
5.96958e-149
1.56011e-212
8.66771e-212
6.25678e-211
5.67594e-210
6.34575e-209
8.6429e-208
1.42607e-206
2.84897e-205
6.91501e-204
2.05652e-202
7.60364e-201
3.57521e-199
2.2156e-197
1.92086e-195
2.60367e-193
7.24565e-191
1.05268e-109
5.76301e-111
1.97439e-112
2.09928e-129
6.8799e-149
5.27086e-211
2.80476e-210
1.93374e-209
1.67251e-208
1.78059e-207
2.30728e-206
3.61946e-205
6.87107e-204
1.58407e-202
4.47306e-201
1.56982e-199
7.00421e-198
4.11767e-196
3.3855e-194
4.35025e-192
1.14703e-189
7.50664e-110
8.65835e-110
2.44129e-112
1.90093e-129
1.37696e-148
1.6809e-209
8.58145e-209
5.66074e-208
4.67624e-207
4.74924e-206
5.86559e-205
8.76435e-204
1.58394e-202
3.47491e-201
9.33425e-200
3.11527e-198
1.32146e-196
7.38361e-195
5.76801e-193
7.03955e-191
1.76201e-188
9.36395e-111
1.49691e-110
2.16121e-112
7.27438e-146
1.36751e-148
5.08526e-208
2.49468e-207
1.57702e-206
1.2463e-205
1.20948e-204
1.42616e-203
2.03318e-202
3.50407e-201
7.32793e-200
1.87573e-198
5.96359e-197
2.40915e-195
1.2816e-193
9.52909e-192
1.10651e-189
2.63383e-187
8.83371e-112
1.38818e-111
1.15886e-112
3.42948e-129
1.35539e-148
1.46613e-206
6.92132e-206
4.19919e-205
3.1796e-204
2.95303e-203
3.32958e-202
4.53603e-201
7.46685e-200
1.49086e-198
3.64224e-197
1.10489e-195
4.25764e-194
2.15987e-192
1.53095e-190
1.69413e-188
3.84107e-186
1.64852e-112
2.73036e-112
4.3383e-113
7.27689e-146
1.29244e-148
4.04519e-205
1.84017e-204
1.07298e-203
7.79533e-203
6.93853e-202
7.49152e-201
9.76715e-200
1.53791e-198
2.93601e-197
6.85605e-196
1.98738e-194
7.31584e-193
3.54433e-191
2.39856e-189
2.53318e-187
5.47889e-185
4.03157e-113
5.69632e-113
7.09559e-114
3.39389e-129
1.21061e-148
1.07228e-203
4.70626e-203
2.64081e-202
1.84326e-201
1.57448e-200
1.63007e-199
2.0366e-198
3.07157e-197
5.61453e-196
1.25491e-194
3.48074e-193
1.22571e-191
5.67898e-190
3.67424e-188
3.70864e-186
7.66248e-184
1.45425e-113
1.85294e-113
1.27628e-129