/*--------------------------------*- C++ -*----------------------------------*\
| =========                 |                                                 |
| \\      /  F ield         | OpenFOAM: The Open Source CFD Toolbox           |
|  \\    /   O peration     | Version:  v2012                                 |
|   \\  /    A nd           | Website:  www.openfoam.com                      |
|    \\/     M anipulation  |                                                 |
\*---------------------------------------------------------------------------*/
FoamFile
{
    version     2.0;
    format      ascii;
    class       surfaceScalarField;
    location    "0.35";
    object      alphaPhi0.water;
}
// * * * * * * * * * * * * * * * * * * * * * * * * * * * * * * * * * * * * * //

dimensions      [0 3 -1 0 0 0 0];
oriented        oriented;


internalField   nonuniform List<scalar> 
8212
(
4.21315e-12
-6.89799e-09
8.15151e-16
6.06117e-12
-2.11472e-08
8.11178e-16
-1.30822e-10
-3.51874e-08
-6.89516e-15
-1.95233e-10
-4.91607e-08
-1.05534e-14
2.24821e-11
-6.12836e-08
-1.02308e-14
5.74785e-10
-7.52326e-08
-8.63396e-15
9.78496e-10
-7.38975e-08
-2.8559e-15
1.0368e-09
-7.73637e-08
-5.6747e-16
7.00509e-10
-6.37108e-08
5.37102e-16
4.75779e-10
-3.39691e-08
8.22928e-16
5.1547e-10
-3.22767e-08
3.97138e-16
5.99063e-10
-3.38673e-08
2.08602e-16
3.58761e-10
-2.35932e-08
2.33238e-17
5.82674e-11
-7.07313e-09
-4.55145e-17
2.30051e-12
-7.0392e-10
-7.71983e-18
2.0477e-14
-1.68352e-11
-1.90573e-19
6.73614e-17
-9.71412e-14
-9.29526e-22
2.64696e-19
-3.94568e-16
-3.46757e-24
1.55297e-21
-1.6843e-18
-1.19356e-26
6.25311e-24
-6.23207e-21
-4.64824e-29
1.83308e-26
-1.84032e-23
-1.51096e-31
4.05398e-29
-4.36881e-26
-3.6001e-34
6.75664e-32
-8.25195e-29
-6.66681e-37
8.27065e-35
-1.21336e-31
-9.50919e-40
7.03728e-38
-1.33793e-34
-1.01884e-42
3.72836e-41
-1.03875e-37
-7.82254e-46
9.40196e-45
-5.04535e-41
-3.81899e-49
1.66354e-49
-1.14649e-44
-8.88001e-53
-1.54376e-75
-9.14343e-72
-6.55622e-58
-5.39938e-73
-2.83003e-80
-5.53681e-81
-1.32883e-69
-6.66559e-77
-2.04277e-77
-2.27934e-66
-1.10528e-73
-3.36313e-74
-3.08032e-63
-1.45243e-70
-4.59102e-71
-3.51867e-60
-1.61856e-67
-5.34583e-68
-3.55833e-57
-1.59944e-64
-5.57578e-65
-3.29377e-54
-1.44731e-61
-5.4117e-62
-2.86086e-51
-1.25591e-58
-5.0437e-59
-2.37063e-48
-1.7433e-55
-6.50998e-56
-6.14839e-54
-8.08181e-53
8.14811e-12
-6.90613e-09
8.73982e-16
1.2492e-11
-2.11515e-08
-1.89434e-15
-1.79426e-10
-3.49954e-08
-8.43595e-15
-2.43611e-10
-4.90965e-08
-5.57965e-15
4.28765e-11
-6.15701e-08
-7.43996e-15
7.71099e-10
-7.59608e-08
-6.86725e-15
1.18637e-09
-7.43128e-08
-7.20345e-15
1.31039e-09
-7.75356e-08
1.11478e-15
9.02506e-10
-6.32143e-08
7.06323e-16
5.67517e-10
-3.27552e-08
4.05597e-16
5.7939e-10
-3.01243e-08
3.27945e-16
6.5416e-10
-3.09336e-08
-1.08636e-16
3.18928e-10
-2.08504e-08
-1.12385e-16
4.82654e-11
-5.97289e-09
-5.69151e-17
1.74953e-12
-5.69227e-10
-4.72496e-18
1.59516e-14
-1.3656e-11
-1.52053e-19
5.97056e-17
-8.43231e-14
-8.25844e-22
2.50915e-19
-3.66318e-16
-2.70575e-24
1.51534e-21
-1.84984e-18
-1.58013e-26
6.29954e-24
-7.72286e-21
-8.32242e-29
1.9188e-26
-2.48212e-23
-2.59855e-31
4.41285e-29
-6.29482e-26
-5.68795e-34
7.63711e-32
-1.25539e-28
-1.02427e-36
9.67506e-35
-1.93204e-31
-1.4567e-39
8.47153e-38
-2.21298e-34
-1.60788e-42
4.57057e-41
-1.77069e-37
-1.27311e-45
1.13947e-44
-8.76775e-41
-6.27011e-49
-5.7801e-77
-1.98228e-44
-1.41127e-52
-3.18292e-83
-8.79178e-72
-3.93452e-82
-2.83321e-80
-2.28596e-86
-6.15404e-86
-6.6684e-77
-7.38065e-90
-1.32754e-82
-1.10594e-73
-4.06571e-88
-2.25573e-79
-1.45353e-70
-4.09904e-85
-2.96981e-76
-1.62001e-67
-5.52208e-82
-3.33692e-73
-1.60105e-64
-5.63292e-79
-3.36684e-70
-1.44891e-61
-4.76852e-77
-3.16323e-67
-1.2572e-58
-2.43471e-74
-2.85173e-64
-1.60824e-55
-2.73103e-71
-2.53638e-61
-3.44538e-70
-2.81583e-58
7.57587e-12
-6.91371e-09
1.75296e-15
9.76067e-12
-2.11537e-08
-2.97448e-15
-1.2209e-10
-3.48636e-08
-1.209e-14
-1.00865e-10
-4.91177e-08
-2.96218e-15
1.74837e-10
-6.18458e-08
-6.30593e-15
8.89233e-10
-7.66752e-08
-8.68308e-15
1.36253e-09
-7.47861e-08
-7.79836e-15
1.57322e-09
-7.77955e-08
7.18192e-16
1.06519e-09
-6.26229e-08
7.32699e-16
6.1432e-10
-3.14558e-08
3.37901e-16
5.83478e-10
-2.79939e-08
2.64338e-16
5.75018e-10
-2.81319e-08
1.06563e-16
2.99867e-10
-1.83312e-08
-4.54454e-17
4.20149e-11
-4.99764e-09
-4.5317e-17
1.50902e-12
-4.5808e-10
-3.87954e-18
1.44343e-14
-1.10898e-11
-1.3639e-19
5.8008e-17
-7.31421e-14
-8.29495e-22
2.86382e-19
-3.36232e-16
-3.50467e-24
1.72939e-21
-1.97783e-18
-2.17994e-26
7.73781e-24
-9.20993e-21
-1.01182e-28
2.44743e-26
-3.13688e-23
-3.14697e-31
5.79702e-29
-8.36378e-26
-7.23918e-34
1.02885e-31
-1.74128e-28
-1.41171e-36
1.33171e-34
-2.7805e-31
-2.11168e-39
1.1858e-37
-3.28374e-34
-2.42752e-42
6.45425e-41
-2.68754e-37
-1.97061e-45
1.56801e-44
-1.34333e-40
-9.87805e-49
-1.31769e-75
-2.98507e-44
-2.18923e-52
-5.07823e-89
3.81583e-76
-4.57004e-81
-3.28286e-92
-2.30528e-86
-2.12117e-94
-2.75406e-91
-7.12138e-90
-1.35072e-97
-3.79242e-88
-2.75699e-89
-1.1229e-94
-3.78309e-85
-3.19421e-86
-1.3911e-91
-5.18116e-82
-3.44446e-83
-1.61174e-88
-5.05081e-79
-2.7718e-80
-1.41073e-85
-2.7831e-77
-1.68348e-77
-1.25504e-82
-1.35633e-74
-1.21716e-74
-1.06879e-79
-1.93768e-71
-7.94565e-72
-1.73304e-76
-1.91916e-70
-1.31542e-73
8.5078e-12
-6.92221e-09
4.57838e-16
9.80645e-12
-2.1155e-08
1.80196e-15
-1.13219e-10
-3.47405e-08
-8.40527e-15
-6.38923e-11
-4.91671e-08
-4.00566e-15
2.19717e-10
-6.21294e-08
-6.09023e-15
9.79829e-10
-7.74353e-08
-1.16042e-14
1.41186e-09
-7.52181e-08
-5.20064e-15
1.64502e-09
-7.80802e-08
2.49338e-16
1.10092e-09
-6.20047e-08
1.0412e-15
6.05251e-10
-3.0138e-08
4.26172e-16
5.67895e-10
-2.59451e-08
2.87143e-16
5.50054e-10
-2.54323e-08
8.24262e-17
2.63191e-10
-1.59861e-08
-5.91694e-17
3.54089e-11
-4.16714e-09
-3.92071e-17
1.26615e-12
-3.6938e-10
-3.69648e-18
1.27703e-14
-9.08227e-12
-1.04064e-19
5.52952e-17
-6.36617e-14
-7.23663e-22
3.41682e-19
-3.05769e-16
-3.88321e-24
2.67889e-21
-2.04382e-18
-2.49472e-26
1.08277e-23
-9.83592e-21
-1.00796e-28
3.31194e-26
-3.58183e-23
-3.36831e-31
7.97613e-29
-1.00557e-25
-8.73912e-34
1.42683e-31
-2.16069e-28
-1.87292e-36
1.85151e-34
-3.55178e-31
-2.92486e-39
1.6366e-37
-4.29546e-34
-3.43414e-42
8.79905e-41
-3.57347e-37
-2.80768e-45
2.5167e-44
-1.77804e-40
-1.39483e-48
1.31334e-79
-3.27679e-44
-2.8951e-52
-5.88543e-89
-3.29482e-83
1.08495e-82
-3.53614e-92
-2.32203e-86
-2.17679e-94
-4.96693e-92
-7.09038e-90
-6.57296e-98
-2.75994e-89
-1.824e-92
-6.54547e-96
-3.19491e-86
-1.85753e-89
-7.50711e-93
-3.44571e-83
-1.8354e-86
-8.12213e-90
-2.77372e-80
-1.36147e-83
-6.66928e-87
-1.68504e-77
-1.13033e-80
-6.24291e-84
-1.17864e-74
-7.73895e-78
-4.41851e-81
-7.10725e-72
-8.36681e-75
-3.43559e-78
-2.23705e-73
-4.46056e-75
9.93305e-12
-6.93214e-09
2.60455e-15
1.00853e-11
-2.11551e-08
-3.54581e-15
-6.53664e-11
-3.46651e-08
-9.2232e-15
2.86683e-11
-4.92611e-08
-1.98368e-15
3.02921e-10
-6.24037e-08
-4.26129e-15
1.0899e-09
-7.82223e-08
-1.23816e-14
1.50748e-09
-7.56357e-08
-4.73888e-15
1.73499e-09
-7.83619e-08
-2.43367e-17
1.12932e-09
-6.13359e-08
1.13922e-15
5.90378e-10
-2.87982e-08
4.85077e-16
5.39518e-10
-2.39723e-08
3.45306e-16
5.02215e-10
-2.28575e-08
9.16376e-17
2.31493e-10
-1.38436e-08
-3.85481e-17
2.96656e-11
-3.45836e-09
-2.82477e-17
1.05194e-12
-2.97992e-10
-2.8151e-18
1.11924e-14
-7.49302e-12
-8.09296e-20
5.16176e-17
-5.55738e-14
-5.91971e-22
4.16038e-19
-2.75144e-16
-3.20286e-24
2.99362e-21
-2.01017e-18
-2.22009e-26
1.43616e-23
-1.00668e-20
-1.04457e-28
4.81747e-26
-3.68308e-23
-3.72069e-31
1.13622e-28
-1.0409e-25
-1.00354e-33
2.03018e-31
-2.31029e-28
-2.22958e-36
2.6667e-34
-3.88182e-31
-3.57539e-39
2.43609e-37
-4.7252e-34
-4.25647e-42
1.34383e-40
-3.84352e-37
-3.46873e-45
2.78988e-44
-1.79009e-40
-1.67493e-48
-2.10806e-86
-2.99374e-44
-3.07907e-52
-6.95493e-89
-3.23367e-83
-3.08786e-91
-3.95549e-92
-2.33647e-86
-2.21761e-94
-8.72956e-95
-7.11262e-90
-6.15615e-98
-1.75882e-92
-7.19403e-94
-4.22786e-98
-1.85646e-89
-2.61552e-92
-4.48162e-95
-1.8339e-86
-3.21755e-89
-4.44754e-92
-1.36279e-83
-4.66272e-87
-3.3853e-89
-1.13169e-80
-6.14733e-86
-2.97601e-86
-7.4146e-78
-4.46662e-83
-1.90896e-83
-7.65199e-75
-2.59796e-80
-1.36209e-80
-2.43864e-77
-1.51819e-77
1.06625e-11
-6.9428e-09
1.49372e-15
6.15541e-12
-2.11506e-08
4.1873e-16
-6.57852e-12
-3.46524e-08
-9.75391e-15
1.13265e-10
-4.93809e-08
-2.594e-15
3.66622e-10
-6.2657e-08
-6.13031e-15
1.17262e-09
-7.90283e-08
-1.17422e-14
1.53237e-09
-7.59955e-08
-9.2863e-15
1.75306e-09
-7.86401e-08
7.86038e-16
1.11782e-09
-6.06509e-08
9.94592e-16
5.60751e-10
-2.74607e-08
4.03839e-16
5.03331e-10
-2.20798e-08
2.97941e-16
4.60014e-10
-2.04323e-08
9.15972e-17
2.02038e-10
-1.19102e-08
-3.29775e-17
2.47384e-11
-2.85739e-09
-2.40618e-17
8.72535e-13
-2.40462e-10
-2.33964e-18
9.80368e-15
-6.22508e-12
-7.65289e-20
4.76129e-17
-4.85608e-14
-5.89968e-22
4.99525e-19
-2.44428e-16
-3.01451e-24
3.61866e-21
-1.85917e-18
-2.22183e-26
1.61192e-23
-9.44198e-21
-1.07351e-28
5.18781e-26
-3.5236e-23
-3.94074e-31
1.2844e-28
-1.01725e-25
-1.07975e-33
2.35025e-31
-2.2677e-28
-2.40115e-36
3.06662e-34
-3.81404e-31
-3.84943e-39
2.65247e-37
-4.62241e-34
-4.5517e-42
1.33491e-40
-3.702e-37
-3.63332e-45
2.81399e-44
-1.61952e-40
-1.65692e-48
-3.32917e-86
-1.83308e-44
-2.42093e-52
-8.40258e-89
-2.89555e-83
-2.93783e-91
-4.53854e-92
-2.34766e-86
-2.26078e-94
-6.66476e-96
-7.11758e-90
-6.19094e-98
-3.17055e-95
-6.83101e-94
-6.09473e-102
-1.94105e-92
-6.75884e-93
-7.54583e-101
-1.90013e-89
-4.14963e-90
-7.11719e-98
-8.72238e-89
-4.18254e-87
-3.99947e-95
1.91071e-86
-8.38062e-86
-6.14196e-94
-4.33686e-83
-1.26714e-84
-2.27509e-91
-2.52085e-80
-8.09105e-82
-1.80346e-88
-5.72379e-79
-1.63969e-85
1.15715e-11
-6.95437e-09
2.06461e-15
4.38354e-12
-2.11434e-08
-2.24498e-15
8.55011e-11
-3.47335e-08
-9.23301e-15
2.1755e-10
-4.9513e-08
-4.55879e-15
4.48219e-10
-6.28877e-08
-3.27293e-15
1.27795e-09
-7.9858e-08
-8.96831e-15
1.59181e-09
-7.63094e-08
-5.32845e-15
1.78998e-09
-7.88992e-08
6.46603e-16
1.1069e-09
-5.99328e-08
9.10773e-16
5.28948e-10
-2.61244e-08
3.46437e-16
4.6323e-10
-2.02703e-08
2.1615e-16
4.12664e-10
-1.81716e-08
4.68695e-17
1.73185e-10
-1.01857e-08
-4.97524e-17
2.03324e-11
-2.35156e-09
-2.33645e-17
7.16648e-13
-1.94147e-10
-2.1612e-18
8.52869e-15
-5.20912e-12
-6.93156e-20
4.30683e-17
-4.24064e-14
-5.57389e-22
4.94884e-19
-2.14617e-16
-2.76874e-24
3.60074e-21
-1.66618e-18
-2.05414e-26
1.62894e-23
-8.48887e-21
-1.03588e-28
5.3308e-26
-3.18581e-23
-3.83723e-31
1.30275e-28
-9.24019e-26
-1.05881e-33
2.36012e-31
-2.06056e-28
-2.35835e-36
3.05838e-34
-3.43546e-31
-3.77977e-39
2.62838e-37
-4.0573e-34
-4.40076e-42
1.27288e-40
-3.06184e-37
-3.3668e-45
2.15141e-44
-1.15567e-40
-1.38298e-48
-4.56636e-86
-3.7288e-45
-1.26991e-52
-1.02599e-88
-2.73596e-83
-2.85267e-91
-5.24047e-92
-2.35521e-86
-2.30552e-94
-7.27058e-96
-7.11473e-90
-6.27351e-98
-1.0669e-95
-6.69413e-94
-6.01591e-102
-2.65903e-93
-4.09873e-93
-4.71191e-101
-2.05236e-90
-2.08542e-90
-2.70609e-98
-1.36072e-87
-2.41851e-87
-3.4492e-95
-2.27298e-87
-7.35536e-86
-8.30239e-94
-9.88801e-85
-2.69251e-85
-8.2791e-93
-7.86559e-82
-2.33709e-83
-6.09838e-90
-1.32279e-80
-4.5152e-87
1.21989e-11
-6.96657e-09
1.45309e-15
4.29389e-12
-2.11355e-08
-5.21396e-16
2.03144e-10
-3.49324e-08
-5.91592e-15
3.19989e-10
-4.96298e-08
-4.85395e-16
5.32053e-10
-6.30998e-08
-9.66855e-15
1.38331e-09
-8.07093e-08
-1.20637e-14
1.63785e-09
-7.65639e-08
-4.36656e-15
1.81315e-09
-7.91393e-08
-1.01238e-15
1.08773e-09
-5.91887e-08
6.25027e-16
4.94626e-10
-2.47977e-08
2.40563e-16
4.22852e-10
-1.85499e-08
1.26323e-16
3.66206e-10
-1.60834e-08
-2.39219e-17
1.46574e-10
-8.66159e-09
-5.46099e-17
1.65664e-11
-1.92809e-09
-2.30485e-17
5.86389e-13
-1.56813e-10
-2.07177e-18
7.41174e-15
-4.38786e-12
-5.87197e-20
3.96047e-17
-3.69048e-14
-5.2653e-22
4.74935e-19
-1.85462e-16
-2.63738e-24
3.43481e-21
-1.44393e-18
-1.95532e-26
1.55609e-23
-7.28792e-21
-9.43509e-29
5.09922e-26
-2.70997e-23
-3.45612e-31
1.24318e-28
-7.7638e-26
-9.5105e-34
2.22848e-31
-1.69869e-28
-2.09132e-36
2.81421e-34
-2.74513e-31
-3.27933e-39
2.29056e-37
-3.07255e-34
-3.6628e-42
9.79663e-41
-2.09486e-37
-2.59883e-45
4.57833e-45
-6.13307e-41
-8.99796e-49
-6.80984e-86
-2.57935e-73
-2.12702e-53
-1.25608e-88
-3.09488e-83
-2.71226e-91
-6.08638e-92
-2.35893e-86
-2.34721e-94
-8.12045e-96
-7.10252e-90
-6.32326e-98
-9.44986e-96
-6.58536e-94
-5.96907e-102
-5.22084e-94
-3.5753e-93
-3.28041e-101
-4.8081e-91
-1.60371e-90
-1.5861e-98
-5.42305e-88
-1.67633e-87
-1.81321e-95
-6.0439e-87
-5.97037e-86
-6.99749e-94
5.52943e-87
-2.45472e-85
-2.98119e-93
-2.25618e-83
-7.60944e-85
-1.692e-91
-2.96778e-82
-1.05076e-88
1.27799e-11
-6.97935e-09
1.75279e-15
9.05912e-12
-2.11317e-08
-3.01746e-15
3.41073e-10
-3.52644e-08
-4.59771e-15
4.0985e-10
-4.96985e-08
-4.305e-15
6.20862e-10
-6.33108e-08
-1.32431e-14
1.50056e-09
-8.1589e-08
-1.03788e-14
1.70735e-09
-7.67707e-08
-5.93189e-15
1.85208e-09
-7.9353e-08
-1.62865e-15
1.07193e-09
-5.84076e-08
9.43899e-17
4.61235e-10
-2.34815e-08
2.09019e-17
3.83031e-10
-1.69198e-08
-2.06823e-17
3.20566e-10
-1.41699e-08
-1.10939e-16
1.22101e-10
-7.32737e-09
-8.22765e-17
1.33312e-11
-1.57572e-09
-2.54265e-17
4.76189e-13
-1.2673e-10
-2.10589e-18
6.41074e-15
-3.71872e-12
-5.51466e-20
3.62084e-17
-3.19332e-14
-4.98372e-22
4.37028e-19
-1.57484e-16
-2.41497e-24
3.10262e-21
-1.21116e-18
-1.75128e-26
1.38926e-23
-5.98236e-21
-8.35574e-29
4.48812e-26
-2.17101e-23
-2.97902e-31
1.07255e-28
-6.04009e-26
-7.97732e-34
1.86448e-31
-1.27133e-28
-1.6968e-36
2.23863e-34
-1.94385e-31
-2.55561e-39
1.66217e-37
-1.99453e-34
-2.67697e-42
5.74545e-41
-1.15846e-37
-1.6882e-45
-1.53325e-76
-2.09941e-41
-4.38105e-49
-1.04604e-85
-3.46046e-80
-1.87779e-84
-1.5322e-88
-3.07577e-83
-3.09334e-91
-7.07725e-92
-2.35885e-86
-2.38916e-94
-9.11224e-96
-7.0831e-90
-6.37641e-98
-1.07125e-95
-6.48094e-94
-5.9392e-102
-5.14143e-94
-3.06186e-93
-2.91368e-101
-3.98035e-91
-1.20573e-90
-1.25188e-98
-4.02802e-88
-1.13056e-87
-1.28992e-95
-8.53911e-87
-4.4929e-86
-5.59198e-94
-1.29517e-86
-2.03894e-85
-2.82685e-93
-4.30896e-85
-3.02679e-85
-6.79419e-93
-6.41936e-84
-2.41346e-90
1.31979e-11
-6.99255e-09
1.4531e-15
1.88117e-11
-2.11373e-08
3.07315e-16
4.80171e-10
-3.57257e-08
-1.43919e-15
4.63e-10
-4.96814e-08
-8.21546e-15
6.99372e-10
-6.35472e-08
-1.20534e-14
1.60937e-09
-8.24989e-08
1.58777e-15
1.77691e-09
-7.69383e-08
-1.18828e-14
1.8903e-09
-7.954e-08
-2.86468e-15
1.05379e-09
-5.75894e-08
-5.60489e-16
4.27731e-10
-2.21811e-08
-2.35201e-16
3.4416e-10
-1.53814e-08
-1.90267e-16
2.77321e-10
-1.24298e-08
-1.8484e-16
1.00365e-10
-6.16894e-09
-1.07826e-16
1.06217e-11
-1.28392e-09
-2.48009e-17
3.84589e-13
-1.02475e-10
-1.95319e-18
5.52492e-15
-3.16725e-12
-5.29855e-20
3.26062e-17
-2.74088e-14
-4.61457e-22
3.9076e-19
-1.31063e-16
-2.13927e-24
2.69198e-21
-9.79713e-19
-1.55306e-26
1.17028e-23
-4.66822e-21
-7.27887e-29
3.6632e-26
-1.62933e-23
-2.49479e-31
8.41952e-29
-4.32715e-26
-6.36429e-34
1.38704e-31
-8.58076e-29
-1.27326e-36
1.53429e-34
-1.20813e-31
-1.7825e-39
9.8391e-38
-1.0903e-34
-1.68087e-42
2.32006e-41
-4.92978e-38
-8.83615e-46
-5.15209e-83
-1.88545e-42
-1.34485e-49
-1.39272e-85
-3.35769e-80
-3.7582e-88
-1.85494e-88
-3.06636e-83
-3.12046e-91
-8.2166e-92
-2.35513e-86
-2.42484e-94
-1.02329e-95
-7.05861e-90
-6.42631e-98
-1.17069e-95
-6.38414e-94
-5.91695e-102
-5.3228e-94
-2.53198e-93
-2.45585e-101
-3.11228e-91
-8.94811e-91
-9.48554e-99
-3.08862e-88
-7.26519e-88
-8.47988e-96
-6.39594e-87
-3.38552e-86
-4.17193e-94
-1.17633e-86
-1.68828e-85
-2.25809e-93
-1.88198e-86
-2.39502e-85
-3.76193e-93
-2.90854e-85
-5.22028e-92
1.3478e-11
-7.00603e-09
8.62122e-16
3.31092e-11
-2.1157e-08
-2.15877e-15
5.9426e-10
-3.62869e-08
-1.58099e-15
4.56932e-10
-4.95441e-08
-1.09977e-14
7.53645e-10
-6.38439e-08
-1.90004e-14
1.69706e-09
-8.34423e-08
4.13519e-15
1.84966e-09
-7.70909e-08
-1.51966e-14
1.93056e-09
-7.96996e-08
-4.57966e-15
1.03361e-09
-5.67317e-08
-1.60192e-15
3.94108e-10
-2.09009e-08
-5.33082e-16
3.06162e-10
-1.39351e-08
-3.42297e-16
2.36639e-10
-1.08581e-08
-2.66428e-16
8.12656e-11
-5.17089e-09
-1.23171e-16
8.36407e-12
-1.04355e-09
-2.40218e-17
3.08268e-13
-8.293e-11
-1.7386e-18
4.72947e-15
-2.70721e-12
-5.23216e-20
2.87508e-17
-2.32963e-14
-4.37237e-22
3.38684e-19
-1.06752e-16
-1.91255e-24
2.21241e-21
-7.60785e-19
-1.32929e-26
9.19364e-24
-3.46019e-21
-5.80668e-29
2.74099e-26
-1.14536e-23
-1.88729e-31
5.93466e-29
-2.85346e-26
-4.55185e-34
9.02812e-32
-5.2151e-29
-8.47575e-37
8.84888e-35
-6.54993e-32
-1.08277e-39
4.51994e-38
-4.91527e-35
-8.86641e-43
2.10083e-42
-1.45851e-38
-3.54669e-46
-8.82783e-83
-6.63301e-71
-1.07882e-50
-1.80272e-85
-3.26052e-80
-3.3264e-88
-2.22405e-88
-3.06846e-83
-3.16149e-91
-9.50657e-92
-2.34771e-86
-2.46179e-94
-1.14863e-95
-7.03242e-90
-6.48814e-98
-1.3183e-95
-6.29093e-94
-5.90446e-102
-5.57629e-94
-1.97924e-93
-1.96804e-101
-2.50408e-91
-6.44783e-91
-7.10545e-99
-2.26897e-88
-4.39171e-88
-5.33277e-96
-5.87334e-87
-2.44296e-86
-3.14413e-94
-1.56785e-86
-1.34191e-85
-1.89759e-93
-2.03761e-86
-1.87439e-85
-3.05442e-93
-1.28525e-85
-2.989e-93
1.36025e-11
-7.01964e-09
1.30503e-15
5.00919e-11
-2.11934e-08
1.52806e-15
6.55144e-10
-3.68919e-08
8.11393e-16
3.76052e-10
-4.9265e-08
-1.5034e-14
7.66107e-10
-6.4234e-08
-1.98238e-14
1.74116e-09
-8.44174e-08
-2.81669e-16
1.90671e-09
-7.72565e-08
-5.3331e-15
1.95906e-09
-7.98366e-08
-4.01326e-15
1.00625e-09
-5.58413e-08
-3.04541e-15
3.59324e-10
-1.96495e-08
-8.57916e-16
2.6886e-10
-1.25816e-08
-5.1303e-16
1.98903e-10
-9.4476e-09
-3.51652e-16
6.4811e-11
-4.31731e-09
-1.38841e-16
6.51153e-12
-8.46521e-10
-2.47892e-17
2.45226e-13
-6.71877e-11
-1.65707e-18
4.01452e-15
-2.31823e-12
-5.07185e-20
2.48472e-17
-1.95853e-14
-4.02896e-22
2.77855e-19
-8.49362e-17
-1.64824e-24
1.7184e-21
-5.69188e-19
-1.07379e-26
6.74628e-24
-2.4374e-21
-4.40315e-29
1.88449e-26
-7.52836e-24
-1.34358e-31
3.76534e-29
-1.72504e-26
-3.01169e-34
5.131e-32
-2.82926e-29
-5.11076e-37
4.22608e-35
-3.04188e-32
-5.77066e-40
1.48658e-38
-1.74045e-35
-3.86826e-43
-6.05272e-74
-1.98631e-39
-9.8291e-47
-1.29377e-82
-4.59805e-77
-1.66038e-86
-2.28776e-85
-3.18664e-80
-3.36535e-88
-2.63905e-88
-3.08528e-83
-3.22964e-91
-1.095e-91
-2.33852e-86
-2.49648e-94
-1.28582e-95
-7.00645e-90
-6.56507e-98
-1.48607e-95
-6.19064e-94
-5.89199e-102
-4.48506e-94
-1.53607e-93
-1.56846e-101
-2.07733e-91
-4.37363e-91
-5.03306e-99
-1.57553e-88
-2.45969e-88
-3.1255e-96
-5.02783e-87
-1.68537e-86
-2.22762e-94
-1.62649e-86
-1.03373e-85
-1.48711e-93
-1.6718e-86
-1.49922e-85
-2.47619e-93
-9.40514e-86
-1.83095e-93
1.35912e-11
-7.03323e-09
5.33077e-16
6.68844e-11
-2.12467e-08
-2.05436e-15
6.418e-10
-3.74668e-08
-9.37893e-16
2.21998e-10
-4.88452e-08
-1.76376e-14
7.24126e-10
-6.47362e-08
-2.13815e-14
1.72778e-09
-8.5421e-08
2.89167e-15
1.93919e-09
-7.74679e-08
-9.84372e-15
1.96871e-09
-7.99574e-08
-5.96399e-15
9.69332e-10
-5.493e-08
-4.20517e-15
3.23117e-10
-1.84369e-08
-1.13819e-15
2.32302e-10
-1.13213e-08
-6.26758e-16
1.64263e-10
-8.18985e-09
-4.01566e-16
5.08289e-11
-3.59255e-09
-1.43606e-16
5.00564e-12
-6.85863e-10
-2.30658e-17
1.93272e-13
-5.45189e-11
-1.47715e-18
3.36739e-15
-1.98534e-12
-4.70262e-20
2.09376e-17
-1.62834e-14
-3.54909e-22
2.18877e-19
-6.59588e-17
-1.3589e-24
1.26546e-21
-4.09983e-19
-8.11515e-27
4.62144e-24
-1.62903e-21
-3.13759e-29
1.18677e-26
-4.61332e-24
-8.93993e-32
2.13236e-29
-9.50713e-27
-1.82705e-34
2.50238e-32
-1.35487e-29
-2.74192e-37
1.59902e-35
-1.17757e-32
-2.61675e-40
2.18253e-39
-4.35629e-36
-1.31312e-43
-2.27444e-80
2.07858e-62
-1.23461e-47
-1.74673e-82
-1.81512e-77
-2.06745e-85
-2.84568e-85
-3.11332e-80
-3.33809e-88
-3.09947e-88
-3.10774e-83
-3.30318e-91
-1.25533e-91
-2.32767e-86
-2.53453e-94
-1.43233e-95
-6.98505e-90
-6.65017e-98
-1.66287e-95
-6.08166e-94
-5.87323e-102
-3.51164e-94
-1.19246e-93
-1.23707e-101
-1.65293e-91
-2.72324e-91
-3.30188e-99
-1.01603e-88
-1.25164e-88
-1.6823e-96
-4.01746e-87
-1.10833e-86
-1.52149e-94
-1.43691e-86
-7.79452e-86
-1.15509e-93
-1.52359e-86
-1.19032e-85
-2.02275e-93
-7.82309e-86
-1.58922e-93
1.34953e-11
-7.04673e-09
1.03721e-15
8.08169e-11
-2.1314e-08
2.00784e-15
5.48567e-10
-3.79346e-08
-2.72551e-15
1.57616e-11
-4.83124e-08
-2.00423e-14
6.21819e-10
-6.53422e-08
-1.62641e-14
1.64961e-09
-8.64488e-08
9.2127e-15
1.93341e-09
-7.77517e-08
-1.23461e-14
1.94836e-09
-8.00712e-08
-6.91016e-15
9.19912e-10
-5.40182e-08
-5.04677e-15
2.85418e-10
-1.72763e-08
-1.37749e-15
1.96772e-10
-1.01544e-08
-7.30863e-16
1.3297e-10
-7.07535e-09
-4.21883e-16
3.91635e-11
-2.9815e-09
-1.41495e-16
3.79842e-12
-5.55503e-10
-2.10156e-17
1.50778e-13
-4.43279e-11
-1.33932e-18
2.78392e-15
-1.69786e-12
-4.21172e-20
1.71632e-17
-1.34012e-14
-3.05603e-22
1.65283e-19
-4.99905e-17
-1.08401e-24
8.8184e-22
-2.84248e-19
-5.95589e-27
2.94707e-24
-1.03218e-21
-2.09338e-29
6.80991e-27
-2.62896e-24
-5.42574e-32
1.06695e-29
-4.74628e-27
-9.91718e-35
1.02172e-32
-5.63507e-30
-1.28506e-37
4.38219e-36
-3.6151e-33
-9.83335e-41
1.30078e-65
-5.23276e-37
-3.11706e-44
-6.85069e-80
-1.13566e-74
2.47012e-70
-2.23582e-82
-2.00796e-77
-1.94325e-85
-3.48084e-85
-3.04649e-80
-3.31923e-88
-3.605e-88
-3.14092e-83
-3.38952e-91
-1.43277e-91
-2.31594e-86
-2.57402e-94
-1.58752e-95
-6.9728e-90
-6.75034e-98
-1.84746e-95
-5.964e-94
-5.85466e-102
-3.04537e-94
-8.94879e-94
-9.65497e-102
-1.20502e-91
-1.52059e-91
-1.95801e-99
-5.95734e-89
-5.64447e-89
-8.12592e-97
-3.0965e-87
-6.83881e-87
-9.79563e-95
-1.24843e-86
-5.71965e-86
-8.73482e-94
-1.33756e-86
-9.41272e-86
-1.63941e-93
-6.46758e-86
-1.36363e-93
1.33472e-11
-7.06007e-09
3.0076e-16
8.87371e-11
-2.13894e-08
5.24375e-16
3.84093e-10
-3.82299e-08
-4.67104e-15
-2.13749e-10
-4.77145e-08
-2.17243e-14
4.61216e-10
-6.60172e-08
-1.44957e-14
1.51013e-09
-8.74977e-08
7.17348e-15
1.88253e-09
-7.81241e-08
-1.37876e-14
1.89142e-09
-8.01869e-08
-7.99641e-15
8.57198e-10
-5.3132e-08
-5.94373e-15
2.46781e-10
-1.61817e-08
-1.57635e-15
1.62801e-10
-9.08065e-09
-7.82907e-16
1.0522e-10
-6.0939e-09
-4.24459e-16
2.96059e-11
-2.46983e-09
-1.33894e-16
2.84283e-12
-4.50183e-10
-1.94038e-17
1.16263e-13
-3.61293e-11
-1.21337e-18
2.26251e-15
-1.44848e-12
-3.78795e-20
1.36409e-17
-1.09412e-14
-2.63373e-22
1.19491e-19
-3.7031e-17
-8.44075e-25
5.8094e-22
-1.89869e-19
-4.1926e-27
1.74484e-24
-6.20076e-22
-1.33438e-29
3.53923e-27
-1.39065e-24
-3.10135e-32
4.64746e-30
-2.13016e-27
-4.92921e-35
3.34126e-33
-1.9846e-30
-5.2568e-38
5.65904e-37
-7.8551e-34
-2.92038e-41
-2.42656e-77
9.03197e-61
-3.50203e-45
-1.10575e-79
-1.13756e-74
-1.25601e-82
-2.76323e-82
-2.02714e-77
-2.19495e-85
-4.20594e-85
-2.9872e-80
-3.29286e-88
-4.15646e-88
-3.185e-83
-3.47775e-91
-1.62909e-91
-2.30553e-86
-2.59382e-94
-1.75223e-95
-6.9746e-90
-6.84561e-98
-1.91709e-95
-5.85184e-94
-5.8373e-102
-3.87871e-94
-4.73314e-94
-6.2714e-102
-7.7683e-92
-7.46881e-92
-1.02871e-99
-3.0729e-89
-2.20378e-89
-3.4519e-97
-2.24084e-87
-3.89454e-87
-5.87053e-95
-1.07969e-86
-4.03358e-86
-6.3906e-94
-1.15847e-86
-7.4185e-86
-1.32444e-93
-5.35016e-86
-1.17502e-93
1.32143e-11
-7.07329e-09
4.55162e-16
8.78923e-11
-2.14641e-08
1.3242e-15
1.69511e-10
-3.83115e-08
-6.0108e-15
-4.36344e-10
-4.71087e-08
-2.48891e-14
2.52991e-10
-6.67065e-08
-9.08667e-15
1.31955e-09
-8.85643e-08
8.33183e-15
1.78149e-09
-7.8586e-08
-9.66026e-15
1.79288e-09
-8.03153e-08
-9.67204e-15
7.81437e-10
-5.23041e-08
-6.63374e-15
2.08071e-10
-1.5168e-08
-1.68147e-15
1.3105e-10
-8.09916e-09
-7.68295e-16
8.11737e-11
-5.23474e-09
-4.07123e-16
2.1938e-11
-2.044e-09
-1.20345e-16
2.09773e-12
-3.65368e-10
-1.65849e-17
8.8535e-14
-2.95271e-11
-1.04138e-18
1.80531e-15
-1.23219e-12
-3.35587e-20
1.05067e-17
-8.88749e-15
-2.2082e-22
8.27466e-20
-2.68831e-17
-6.30688e-25
3.6121e-22
-1.22439e-19
-2.82811e-27
9.5645e-25
-3.54221e-22
-8.1351e-30
1.65337e-27
-6.83109e-25
-1.65274e-32
1.72224e-30
-8.51784e-28
-2.19866e-35
7.95084e-34
-5.65189e-31
-1.8116e-38
5.68521e-64
-7.57356e-35
-6.05516e-42
-4.31611e-77
-6.25139e-71
1.2199e-68
-1.48989e-79
-1.14291e-74
-1.29021e-82
-3.32935e-82
-2.05412e-77
-2.24116e-85
-5.02843e-85
-2.93703e-80
-3.27832e-88
-4.75599e-88
-3.23913e-83
-3.57932e-91
-1.84695e-91
-2.29599e-86
-2.60225e-94
-1.93391e-95
-6.99583e-90
-6.9522e-98
-1.4651e-95
-5.80744e-94
-5.85314e-102
-2.4479e-94
-2.2007e-94
-3.04939e-102
-4.21735e-92
-3.27307e-92
-4.79639e-100
-1.35197e-89
-7.36804e-90
-1.27352e-97
-1.48691e-87
-2.01124e-87
-3.21246e-95
-9.08459e-87
-2.69307e-86
-4.45384e-94
-1.02267e-86
-5.78773e-86
-1.06331e-93
-4.42563e-86
-1.00851e-93
1.31721e-11
-7.08646e-09
9.01038e-16
7.7248e-11
-2.15282e-08
9.12595e-16
-6.3571e-11
-3.81707e-08
-1.07472e-14
-6.2551e-10
-4.65468e-08
-2.66869e-14
1.54144e-11
-6.73475e-08
-5.53891e-15
1.09171e-09
-8.96406e-08
2.92417e-15
1.63114e-09
-7.91254e-08
-8.00431e-15
1.65251e-09
-8.04668e-08
-1.03851e-14
6.9458e-10
-5.15673e-08
-7.0561e-15
1.70437e-10
-1.42488e-08
-1.76357e-15
1.02208e-10
-7.20804e-09
-7.53623e-16
6.08781e-11
-4.48675e-09
-3.75809e-16
1.59204e-11
-1.69143e-09
-1.06721e-16
1.52568e-12
-2.97191e-10
-1.42787e-17
6.65488e-14
-2.42004e-11
-8.92094e-19
1.41415e-15
-1.04529e-12
-2.97644e-20
7.84687e-18
-7.20565e-15
-1.8654e-22
5.47228e-20
-1.9206e-17
-4.68552e-25
2.12441e-22
-7.67311e-20
-1.873e-27
4.85866e-25
-1.93436e-22
-4.65342e-30
6.89559e-28
-3.11844e-25
-8.05264e-33
5.22752e-31
-2.9844e-28
-8.63032e-36
8.11164e-35
-1.15412e-31
-4.97451e-39
-1.4059e-73
7.1642e-60
-5.46957e-43
-6.42575e-77
-6.34917e-71
-7.42613e-79
-1.9317e-79
-1.153e-74
-1.29352e-82
-3.93835e-82
-2.09093e-77
-2.29689e-85
-5.9589e-85
-2.89726e-80
-3.25639e-88
-5.40867e-88
-3.30384e-83
-3.67991e-91
-2.09009e-91
-2.28996e-86
-2.61545e-94
-2.14313e-95
-7.04232e-90
-7.0647e-98
-7.4931e-96
-5.85898e-94
-5.93384e-102
-1.16298e-94
-1.0074e-94
-1.45227e-102
-1.9154e-92
-1.36814e-92
-2.06642e-100
-4.8414e-90
-2.30407e-90
-4.26656e-98
-8.85939e-88
-9.23867e-88
-1.57627e-95
-7.15409e-87
-1.68359e-86
-2.91408e-94
-9.21793e-87
-4.39828e-86
-8.38842e-94
-3.66081e-86
-8.63204e-94
1.31659e-11
-7.09963e-09
-4.07248e-16
6.06966e-11
-2.15757e-08
-3.57856e-16
-2.68696e-10
-3.78413e-08
-1.25772e-14
-7.66533e-10
-4.60489e-08
-2.78186e-14
-2.40232e-10
-6.78738e-08
-6.51687e-16
8.39186e-10
-9.072e-08
5.90379e-15
1.43406e-09
-7.97203e-08
-9.01963e-15
1.47406e-09
-8.06402e-08
-1.21236e-14
5.99696e-10
-5.096e-08
-7.26633e-15
1.35082e-10
-1.34357e-08
-1.73684e-15
7.68815e-11
-6.40443e-09
-7.12512e-16
4.42618e-11
-3.83867e-09
-3.38956e-16
1.13113e-11
-1.40061e-09
-9.11486e-17
1.09419e-12
-2.42398e-10
-1.21043e-17
4.94072e-14
-1.98903e-11
-7.42043e-19
1.08925e-15
-8.84577e-13
-2.54091e-20
5.69666e-18
-5.84706e-15
-1.51176e-22
3.48205e-20
-1.35766e-17
-3.28371e-25
1.18796e-22
-4.70805e-20
-1.1639e-27
2.2912e-25
-1.01735e-22
-2.54964e-30
2.53583e-28
-1.32422e-25
-3.6682e-33
1.18343e-31
-8.84032e-29
-2.97018e-36
5.83174e-63
-9.14921e-33
-9.6787e-40
-2.56139e-73
-1.43595e-67
1.12112e-67
-8.7161e-77
-6.4904e-71
-7.62367e-79
-2.42646e-79
-1.16685e-74
-1.32554e-82
-4.59634e-82
-2.13838e-77
-2.36624e-85
-7.01141e-85
-2.86907e-80
-3.25318e-88
-6.12161e-88
-3.37933e-83
-3.80016e-91
-2.36368e-91
-2.28886e-86
-2.63973e-94
-2.43668e-95
-7.12046e-90
-7.20258e-98
-3.75206e-96
-5.96966e-94
-6.15037e-102
-5.56224e-95
-4.41941e-95
-6.80217e-103
-7.86796e-93
-5.86442e-93
-8.81971e-101
-1.34956e-90
-9.53276e-91
-1.56936e-98
-4.69088e-88
-3.64601e-88
-6.77291e-96
-5.30148e-87
-9.64933e-87
-1.76552e-94
-8.26276e-87
-3.2077e-86
-6.37735e-94
-2.9946e-86
-7.33164e-94
1.30917e-11
-7.11272e-09
7.07248e-16
4.59136e-11
-2.16085e-08
-1.22721e-15
-4.08313e-10
-3.73871e-08
-1.76896e-14
-8.54337e-10
-4.56029e-08
-2.78202e-14
-4.75561e-10
-6.82525e-08
2.12441e-15
5.81256e-10
-9.17769e-08
5.11027e-17
1.2045e-09
-8.03436e-08
-9.04218e-15
1.26635e-09
-8.0849e-08
-1.22943e-14
5.01046e-10
-5.04911e-08
-7.32821e-15
1.03142e-10
-1.27369e-08
-1.70921e-15
5.55048e-11
-5.6844e-09
-6.52359e-16
3.11214e-11
-3.2794e-09
-2.95393e-16
7.87294e-12
-1.16122e-09
-7.7315e-17
7.75089e-13
-1.98293e-10
-9.99882e-18
3.63051e-14
-1.63892e-11
-6.14388e-19
8.27709e-16
-7.47004e-13
-2.16921e-20
4.0314e-18
-4.75739e-15
-1.2349e-22
2.14316e-20
-9.56182e-18
-2.31877e-25
6.3578e-23
-2.85821e-20
-7.1182e-28
1.00557e-25
-5.211e-23
-1.31611e-30
8.02107e-29
-5.23083e-26
-1.52117e-33
9.81346e-33
-1.99917e-29
-8.4534e-37
-3.51751e-70
4.36416e-47
-7.13824e-41
-3.81422e-73
-1.47146e-67
-1.78708e-75
-1.12486e-76
-6.65242e-71
-7.8629e-79
-2.98916e-79
-1.18482e-74
-1.34409e-82
-5.31057e-82
-2.19627e-77
-2.43255e-85
-8.20184e-85
-2.85337e-80
-3.24374e-88
-6.90568e-88
-3.46586e-83
-3.92042e-91
-2.67458e-91
-2.29448e-86
-2.66661e-94
-2.75428e-95
-7.23726e-90
-7.37135e-98
-1.7786e-96
-6.12017e-94
-6.35545e-102
-2.66824e-95
-1.74669e-95
-3.06914e-103
-3.7214e-93
-2.16815e-93
-3.57414e-101
-6.11377e-91
-3.4413e-91
-6.24179e-99
-2.12597e-88
-1.18282e-88
-2.44733e-96
-3.63311e-87
-4.90774e-87
-9.63298e-95
-7.25907e-87
-2.19883e-86
-4.59749e-94
-2.38237e-86
-6.1031e-94
1.28035e-11
-7.12552e-09
-4.06992e-16
3.82835e-11
-2.16339e-08
-1.51743e-15
-4.78754e-10
-3.68701e-08
-2.00738e-14
-8.90991e-10
-4.51907e-08
-2.61194e-14
-6.54309e-10
-6.84892e-08
8.17082e-15
3.43146e-10
-9.27743e-08
3.08179e-15
9.63537e-10
-8.0964e-08
-2.49504e-15
1.04261e-09
-8.10807e-08
-1.27595e-14
4.03122e-10
-5.02183e-08
-7.25496e-15
7.54987e-11
-1.21562e-08
-1.62076e-15
3.82679e-11
-5.04313e-09
-5.69852e-16
2.11374e-11
-2.79824e-09
-2.48897e-16
5.38342e-12
-9.6421e-10
-6.26878e-17
5.44534e-13
-1.62679e-10
-7.8655e-18
2.65241e-14
-1.35319e-11
-4.90509e-19
6.23913e-16
-6.29595e-13
-1.74874e-20
2.79044e-18
-3.88362e-15
-9.832e-23
1.28582e-20
-6.76593e-18
-1.59294e-25
3.29032e-23
-1.74073e-20
-4.24302e-28
4.12418e-26
-2.63911e-23
-6.56093e-31
2.04663e-29
-1.90975e-26
-5.80365e-34
4.27189e-50
-1.94985e-30
-1.79257e-37
-6.20821e-70
-3.54244e-59
5.75619e-55
-5.20987e-73
-1.51013e-67
-1.86016e-75
-1.40403e-76
-6.83293e-71
-8.07898e-79
-3.62807e-79
-1.20692e-74
-1.37415e-82
-6.08373e-82
-2.265e-77
-2.52102e-85
-9.54972e-85
-2.84962e-80
-3.25388e-88
-7.77613e-88
-3.5639e-83
-4.06517e-91
-3.03178e-91
-2.30876e-86
-2.70793e-94
-3.1295e-95
-7.40052e-90
-7.59006e-98
-7.63504e-97
-6.30467e-94
-6.62304e-102