/*--------------------------------*- C++ -*----------------------------------*\
| =========                 |                                                 |
| \\      /  F ield         | OpenFOAM: The Open Source CFD Toolbox           |
|  \\    /   O peration     | Version:  v2012                                 |
|   \\  /    A nd           | Website:  www.openfoam.com                      |
|    \\/     M anipulation  |                                                 |
\*---------------------------------------------------------------------------*/
FoamFile
{
    version     2.0;
    format      ascii;
    class       volScalarField;
    location    "0.35";
    object      p;
}
// * * * * * * * * * * * * * * * * * * * * * * * * * * * * * * * * * * * * * //

dimensions      [1 -1 -2 0 0 0 0];


internalField   nonuniform List<scalar> 
3352
(
3.49944e+06
3.50014e+06
3.50017e+06
3.49989e+06
3.49849e+06
3.49853e+06
3.49868e+06
3.4988e+06
3.49781e+06
3.49385e+06
3.49485e+06
3.49606e+06
3.49796e+06
3.50041e+06
3.49994e+06
3.50047e+06
3.50075e+06
3.50104e+06
3.50121e+06
3.5013e+06
3.50134e+06
3.50134e+06
3.50131e+06
3.50127e+06
3.50122e+06
3.50115e+06
3.50108e+06
3.501e+06
3.50092e+06
3.50083e+06
3.50073e+06
3.50063e+06
3.50053e+06
3.50042e+06
3.50031e+06
3.50019e+06
3.50006e+06
3.49992e+06
3.49975e+06
3.49859e+06
3.50045e+06
3.4986e+06
3.50069e+06
3.50036e+06
3.50178e+06
3.50129e+06
3.50219e+06
3.5025e+06
3.50019e+06
3.49864e+06
3.50242e+06
3.50787e+06
3.50708e+06
3.50468e+06
3.50289e+06
3.50188e+06
3.5012e+06
3.50081e+06
3.50055e+06
3.50041e+06
3.50032e+06
3.50028e+06
3.50026e+06
3.50025e+06
3.50025e+06
3.50025e+06
3.50024e+06
3.50023e+06
3.50021e+06
3.50019e+06
3.50015e+06
3.5001e+06
3.50004e+06
3.49997e+06
3.49989e+06
3.49979e+06
3.49967e+06
3.49951e+06
3.4977e+06
3.49996e+06
3.49802e+06
3.49972e+06
3.49863e+06
3.49961e+06
3.49929e+06
3.49969e+06
3.49981e+06
3.4975e+06
3.49511e+06
3.50025e+06
3.50706e+06
3.5056e+06
3.50436e+06
3.50299e+06
3.50229e+06
3.50173e+06
3.50136e+06
3.50107e+06
3.50085e+06
3.50068e+06
3.50055e+06
3.50044e+06
3.50035e+06
3.50027e+06
3.5002e+06
3.50014e+06
3.50008e+06
3.50002e+06
3.49996e+06
3.4999e+06
3.49984e+06
3.49977e+06
3.4997e+06
3.49962e+06
3.49953e+06
3.49943e+06
3.4993e+06
3.49713e+06
3.49962e+06
3.49742e+06
3.49942e+06
3.49853e+06
3.49952e+06
3.49937e+06
3.49993e+06
3.50077e+06
3.49964e+06
3.49974e+06
3.50329e+06
3.50819e+06
3.5077e+06
3.50578e+06
3.5041e+06
3.50296e+06
3.50207e+06
3.50147e+06
3.50102e+06
3.50071e+06
3.50048e+06
3.50032e+06
3.50019e+06
3.5001e+06
3.50002e+06
3.49995e+06
3.49989e+06
3.49983e+06
3.49977e+06
3.49971e+06
3.49965e+06
3.49959e+06
3.49952e+06
3.49945e+06
3.49937e+06
3.49929e+06
3.4992e+06
3.49909e+06
3.49616e+06
3.4983e+06
3.49667e+06
3.4982e+06
3.49764e+06
3.49815e+06
3.49831e+06
3.49826e+06
3.4992e+06
3.49826e+06
3.49858e+06
3.50252e+06
3.50763e+06
3.50696e+06
3.50544e+06
3.50398e+06
3.50299e+06
3.50216e+06
3.50157e+06
3.5011e+06
3.50075e+06
3.50047e+06
3.50026e+06
3.50009e+06
3.49996e+06
3.49985e+06
3.49976e+06
3.49967e+06
3.4996e+06
3.49953e+06
3.49947e+06
3.4994e+06
3.49934e+06
3.49927e+06
3.4992e+06
3.49913e+06
3.49905e+06
3.49897e+06
3.49887e+06
3.49615e+06
3.49674e+06
3.49639e+06
3.49714e+06
3.49736e+06
3.49738e+06
3.49806e+06
3.49778e+06
3.49921e+06
3.49888e+06
3.5001e+06
3.50366e+06
3.50809e+06
3.50736e+06
3.50575e+06
3.50426e+06
3.50317e+06
3.50226e+06
3.50158e+06
3.50105e+06
3.50066e+06
3.50035e+06
3.50011e+06
3.49992e+06
3.49977e+06
3.49965e+06
3.49954e+06
3.49945e+06
3.49937e+06
3.49929e+06
3.49922e+06
3.49916e+06
3.49909e+06
3.49902e+06
3.49895e+06
3.49888e+06
3.49881e+06
3.49874e+06
3.49866e+06
3.49641e+06
3.49471e+06
3.49634e+06
3.4957e+06
3.49699e+06
3.49632e+06
3.49756e+06
3.49679e+06
3.49841e+06
3.49814e+06
3.49977e+06
3.50326e+06
3.50741e+06
3.50665e+06
3.50528e+06
3.50395e+06
3.50297e+06
3.50212e+06
3.50148e+06
3.50095e+06
3.50054e+06
3.50022e+06
3.49996e+06
3.49975e+06
3.49959e+06
3.49945e+06
3.49933e+06
3.49923e+06
3.49914e+06
3.49906e+06
3.49898e+06
3.49891e+06
3.49884e+06
3.49878e+06
3.49871e+06
3.49864e+06
3.49858e+06
3.49851e+06
3.49844e+06
3.4974e+06
3.49247e+06
3.49671e+06
3.49433e+06
3.4969e+06
3.49552e+06
3.49729e+06
3.49628e+06
3.49813e+06
3.49812e+06
3.5002e+06
3.50347e+06
3.50716e+06
3.50632e+06
3.50504e+06
3.50377e+06
3.50281e+06
3.50198e+06
3.50133e+06
3.5008e+06
3.50038e+06
3.50005e+06
3.49978e+06
3.49956e+06
3.49938e+06
3.49923e+06
3.49911e+06
3.499e+06
3.4989e+06
3.49882e+06
3.49874e+06
3.49867e+06
3.4986e+06
3.49853e+06
3.49847e+06
3.4984e+06
3.49834e+06
3.49828e+06
3.49823e+06
3.49838e+06
3.49027e+06
3.49738e+06
3.49296e+06
3.49676e+06
3.49468e+06
3.4968e+06
3.4956e+06
3.49744e+06
3.49752e+06
3.4999e+06
3.503e+06
3.50633e+06
3.50552e+06
3.50444e+06
3.50331e+06
3.50246e+06
3.5017e+06
3.50109e+06
3.50059e+06
3.50018e+06
3.49985e+06
3.49958e+06
3.49936e+06
3.49917e+06
3.49902e+06
3.49888e+06
3.49877e+06
3.49867e+06
3.49858e+06
3.49849e+06
3.49842e+06
3.49835e+06
3.49829e+06
3.49822e+06
3.49816e+06
3.49811e+06
3.49806e+06
3.49801e+06
3.4996e+06
3.4883e+06
3.49811e+06
3.49181e+06
3.49657e+06
3.49396e+06
3.4961e+06
3.495e+06
3.49667e+06
3.49706e+06
3.49969e+06
3.50266e+06
3.50561e+06
3.50483e+06
3.50389e+06
3.50287e+06
3.5021e+06
3.50139e+06
3.50083e+06
3.50035e+06
3.49996e+06
3.49963e+06
3.49936e+06
3.49914e+06
3.49895e+06
3.49879e+06
3.49865e+06
3.49853e+06
3.49843e+06
3.49833e+06
3.49825e+06
3.49817e+06
3.4981e+06
3.49804e+06
3.49798e+06
3.49793e+06
3.49787e+06
3.49783e+06
3.49778e+06
3.5002e+06
3.48703e+06
3.49851e+06
3.49089e+06
3.49606e+06
3.49323e+06
3.49493e+06
3.49416e+06
3.49542e+06
3.49623e+06
3.49902e+06
3.50195e+06
3.50459e+06
3.50393e+06
3.50316e+06
3.5023e+06
3.50164e+06
3.50102e+06
3.50051e+06
3.50006e+06
3.4997e+06
3.49939e+06
3.49913e+06
3.49891e+06
3.49872e+06
3.49855e+06
3.49841e+06
3.49829e+06
3.49818e+06
3.49809e+06
3.498e+06
3.49793e+06
3.49786e+06
3.4978e+06
3.49774e+06
3.49769e+06
3.49764e+06
3.4976e+06
3.49756e+06
3.49979e+06
3.48652e+06
3.49808e+06
3.49029e+06
3.49509e+06
3.49248e+06
3.49325e+06
3.49313e+06
3.49379e+06
3.49528e+06
3.49819e+06
3.50119e+06
3.50355e+06
3.50305e+06
3.50244e+06
3.50173e+06
3.50117e+06
3.50062e+06
3.50017e+06
3.49976e+06
3.49942e+06
3.49913e+06
3.49888e+06
3.49866e+06
3.49848e+06
3.49831e+06
3.49817e+06
3.49805e+06
3.49794e+06
3.49784e+06
3.49776e+06
3.49768e+06
3.49761e+06
3.49755e+06
3.49749e+06
3.49745e+06
3.4974e+06
3.49737e+06
3.49734e+06
3.49766e+06
3.48705e+06
3.49648e+06
3.48998e+06
3.49346e+06
3.49166e+06
3.491e+06
3.49179e+06
3.49167e+06
3.49406e+06
3.49702e+06
3.50023e+06
3.50235e+06
3.50208e+06
3.50165e+06
3.50111e+06
3.50065e+06
3.5002e+06
3.4998e+06
3.49944e+06
3.49913e+06
3.49886e+06
3.49862e+06
3.49841e+06
3.49823e+06
3.49807e+06
3.49793e+06
3.4978e+06
3.49769e+06
3.49759e+06
3.49751e+06
3.49743e+06
3.49736e+06
3.4973e+06
3.49725e+06
3.49721e+06
3.49717e+06
3.49713e+06
3.49711e+06
3.494e+06
3.48843e+06
3.49354e+06
3.48993e+06
3.49115e+06
3.49076e+06
3.48835e+06
3.49021e+06
3.48925e+06
3.49271e+06
3.49569e+06
3.4992e+06
3.50114e+06
3.50114e+06
3.50087e+06
3.5005e+06
3.50014e+06
3.49977e+06
3.49944e+06
3.49912e+06
3.49884e+06
3.49858e+06
3.49836e+06
3.49816e+06
3.49798e+06
3.49782e+06
3.49767e+06
3.49755e+06
3.49744e+06
3.49734e+06
3.49725e+06
3.49718e+06
3.49711e+06
3.49705e+06
3.497e+06
3.49696e+06
3.49693e+06
3.4969e+06
3.49688e+06
3.48904e+06
3.49079e+06
3.48957e+06
3.49016e+06
3.4883e+06
3.48972e+06
3.48553e+06
3.4884e+06
3.48666e+06
3.49125e+06
3.49423e+06
3.49811e+06
3.49991e+06
3.50021e+06
3.5001e+06
3.4999e+06
3.49964e+06
3.49936e+06
3.49907e+06
3.4988e+06
3.49854e+06
3.49831e+06
3.49809e+06
3.4979e+06
3.49772e+06
3.49756e+06
3.49742e+06
3.49729e+06
3.49718e+06
3.49708e+06
3.497e+06
3.49692e+06
3.49686e+06
3.4968e+06
3.49676e+06
3.49672e+06
3.49669e+06
3.49667e+06
3.49665e+06
3.48347e+06
3.49354e+06
3.48517e+06
3.49052e+06
3.48539e+06
3.48857e+06
3.48291e+06
3.48653e+06
3.48424e+06
3.48983e+06
3.49284e+06
3.49708e+06
3.49878e+06
3.49937e+06
3.4994e+06
3.49935e+06
3.49918e+06
3.49897e+06
3.49873e+06
3.49849e+06
3.49825e+06
3.49803e+06
3.49783e+06
3.49764e+06
3.49746e+06
3.4973e+06
3.49716e+06
3.49704e+06
3.49693e+06
3.49683e+06
3.49674e+06
3.49667e+06
3.49661e+06
3.49655e+06
3.49651e+06
3.49647e+06
3.49645e+06
3.49643e+06
3.49642e+06
3.47846e+06
3.49591e+06
3.48112e+06
3.49085e+06
3.48286e+06
3.48742e+06
3.48091e+06
3.48478e+06
3.48227e+06
3.48859e+06
3.49165e+06
3.49617e+06
3.4978e+06
3.49865e+06
3.49879e+06
3.49888e+06
3.49877e+06
3.49862e+06
3.49841e+06
3.4982e+06
3.49798e+06
3.49777e+06
3.49756e+06
3.49738e+06
3.4972e+06
3.49705e+06
3.4969e+06
3.49678e+06
3.49667e+06
3.49657e+06
3.49648e+06
3.49641e+06
3.49635e+06
3.4963e+06
3.49626e+06
3.49623e+06
3.49621e+06
3.49619e+06
3.49618e+06
3.47545e+06
3.49699e+06
3.47874e+06
3.4908e+06
3.48142e+06
3.4864e+06
3.4799e+06
3.4835e+06
3.48114e+06
3.48772e+06
3.49085e+06
3.49549e+06
3.49707e+06
3.4981e+06
3.49832e+06
3.4985e+06
3.49843e+06
3.49832e+06
3.49813e+06
3.49793e+06
3.49772e+06
3.49751e+06
3.49731e+06
3.49712e+06
3.49694e+06
3.49679e+06
3.49664e+06
3.49651e+06
3.4964e+06
3.4963e+06
3.49622e+06
3.49615e+06
3.49609e+06
3.49605e+06
3.49601e+06
3.49598e+06
3.49596e+06
3.49595e+06
3.49595e+06
3.47523e+06
3.4967e+06
3.47854e+06
3.49057e+06
3.48133e+06
3.486e+06
3.4802e+06
3.48313e+06
3.48116e+06
3.48745e+06
3.4906e+06
3.49515e+06
3.49666e+06
3.49777e+06
3.49803e+06
3.49825e+06
3.49819e+06
3.49809e+06
3.4979e+06
3.4977e+06
3.49748e+06
3.49727e+06
3.49706e+06
3.49687e+06
3.49669e+06
3.49652e+06
3.49638e+06
3.49625e+06
3.49614e+06
3.49604e+06
3.49596e+06
3.49589e+06
3.49583e+06
3.49579e+06
3.49575e+06
3.49573e+06
3.49572e+06
3.49571e+06
3.49571e+06
3.47743e+06
3.49614e+06
3.48035e+06
3.49079e+06
3.48278e+06
3.48657e+06
3.48203e+06
3.48395e+06
3.48249e+06
3.48794e+06
3.49101e+06
3.49523e+06
3.49662e+06
3.49768e+06
3.49792e+06
3.49812e+06
3.49804e+06
3.49792e+06
3.49772e+06
3.4975e+06
3.49726e+06
3.49703e+06
3.49682e+06
3.49661e+06
3.49643e+06
3.49626e+06
3.49611e+06
3.49598e+06
3.49587e+06
3.49577e+06
3.49569e+06
3.49562e+06
3.49557e+06
3.49553e+06
3.4955e+06
3.49548e+06
3.49547e+06
3.49547e+06
3.49548e+06
3.48128e+06
3.49601e+06
3.48396e+06
3.49189e+06
3.48579e+06
3.48836e+06
3.48539e+06
3.48613e+06
3.48522e+06
3.48932e+06
3.49214e+06
3.49578e+06
3.49697e+06
3.49787e+06
3.49803e+06
3.49814e+06
3.49801e+06
3.49783e+06
3.49758e+06
3.49733e+06
3.49707e+06
3.49682e+06
3.49658e+06
3.49637e+06
3.49617e+06
3.49599e+06
3.49584e+06
3.49571e+06
3.49559e+06
3.4955e+06
3.49542e+06
3.49535e+06
3.4953e+06
3.49527e+06
3.49524e+06
3.49523e+06
3.49522e+06
3.49523e+06
3.49524e+06
3.48725e+06
3.49692e+06
3.48923e+06
3.49423e+06
3.49038e+06
3.49154e+06
3.49019e+06
3.48979e+06
3.48937e+06
3.49163e+06
3.49402e+06
3.49683e+06
3.49772e+06
3.49832e+06
3.49834e+06
3.49831e+06
3.49807e+06
3.49781e+06
3.4975e+06
3.49719e+06
3.49689e+06
3.49661e+06
3.49635e+06
3.49612e+06
3.49591e+06
3.49573e+06
3.49557e+06
3.49543e+06
3.49531e+06
3.49522e+06
3.49514e+06
3.49508e+06
3.49503e+06
3.495e+06
3.49498e+06
3.49497e+06
3.49497e+06
3.49498e+06
3.495e+06
3.49466e+06
3.49954e+06
3.49604e+06
3.49799e+06
3.49645e+06
3.49611e+06
3.49621e+06
3.4949e+06
3.49469e+06
3.49475e+06
3.49657e+06
3.49833e+06
3.49885e+06
3.49903e+06
3.49884e+06
3.4986e+06
3.49823e+06
3.49785e+06
3.49746e+06
3.49708e+06
3.49673e+06
3.49641e+06
3.49612e+06
3.49587e+06
3.49565e+06
3.49545e+06
3.49529e+06
3.49515e+06
3.49503e+06
3.49493e+06
3.49486e+06
3.4948e+06
3.49476e+06
3.49474e+06
3.49472e+06
3.49472e+06
3.49472e+06
3.49474e+06
3.49476e+06
3.50334e+06
3.50369e+06
3.50395e+06
3.50316e+06
3.50375e+06
3.50193e+06
3.50305e+06
3.50117e+06
3.50098e+06
3.49872e+06
3.4997e+06
3.50027e+06
3.5003e+06
3.49997e+06
3.49951e+06
3.499e+06
3.49846e+06
3.49794e+06
3.49745e+06
3.49699e+06
3.49658e+06
3.49622e+06
3.49589e+06
3.49562e+06
3.49538e+06
3.49517e+06
3.495e+06
3.49486e+06
3.49474e+06
3.49465e+06
3.49458e+06
3.49452e+06
3.49449e+06
3.49447e+06
3.49446e+06
3.49446e+06
3.49447e+06
3.49449e+06
3.49452e+06
3.51231e+06
3.50954e+06
3.51255e+06
3.50959e+06
3.51175e+06
3.50866e+06
3.51039e+06
3.50819e+06
3.50792e+06
3.50337e+06
3.5033e+06
3.50256e+06
3.502e+06
3.50109e+06
3.50029e+06
3.49949e+06
3.49875e+06
3.49807e+06
3.49745e+06
3.4969e+06
3.49643e+06
3.49601e+06
3.49566e+06
3.49535e+06
3.4951e+06
3.49488e+06
3.4947e+06
3.49456e+06
3.49444e+06
3.49435e+06
3.49429e+06
3.49424e+06
3.49421e+06
3.49419e+06
3.49419e+06
3.4942e+06
3.49422e+06
3.49424e+06
3.49428e+06
3.52113e+06
3.51643e+06
3.52091e+06
3.51685e+06
3.51979e+06
3.51593e+06
3.51784e+06
3.51555e+06
3.51512e+06
3.50837e+06
3.50718e+06
3.50508e+06
3.50387e+06
3.50231e+06
3.50115e+06
3.50001e+06
3.49906e+06
3.49819e+06
3.49745e+06
3.49681e+06
3.49626e+06
3.4958e+06
3.4954e+06
3.49508e+06
3.4948e+06
3.49458e+06
3.4944e+06
3.49425e+06
3.49414e+06
3.49405e+06
3.49399e+06
3.49395e+06
3.49393e+06
3.49392e+06
3.49392e+06
3.49394e+06
3.49396e+06
3.494e+06
3.49403e+06
3.52882e+06
3.52401e+06
3.52836e+06
3.52428e+06
3.5272e+06
3.52333e+06
3.52514e+06
3.52295e+06
3.52236e+06
3.51359e+06
3.51113e+06
3.50769e+06
3.50578e+06
3.50357e+06
3.50202e+06
3.50054e+06
3.49935e+06
3.4983e+06
3.49743e+06
3.49669e+06
3.49607e+06
3.49556e+06
3.49513e+06
3.49478e+06
3.49449e+06
3.49426e+06
3.49408e+06
3.49393e+06
3.49382e+06
3.49374e+06
3.49369e+06
3.49366e+06
3.49364e+06
3.49364e+06
3.49365e+06
3.49368e+06
3.49371e+06
3.49375e+06
3.49379e+06
3.53509e+06
3.53112e+06
3.53442e+06
3.53111e+06
3.53352e+06
3.53052e+06
3.53223e+06
3.5302e+06
3.52952e+06
3.51887e+06
3.51503e+06
3.5103e+06
3.50764e+06
3.50478e+06
3.50283e+06
3.501e+06
3.49959e+06
3.49836e+06
3.49736e+06
3.49653e+06
3.49585e+06
3.49528e+06
3.49483e+06
3.49446e+06
3.49416e+06
3.49393e+06
3.49374e+06
3.4936e+06
3.4935e+06
3.49343e+06
3.49338e+06
3.49336e+06
3.49335e+06
3.49336e+06
3.49338e+06
3.49341e+06
3.49345e+06
3.4935e+06
3.49355e+06
3.53995e+06
3.53681e+06
3.53906e+06
3.53661e+06
3.53859e+06
3.53727e+06
3.53925e+06
3.53736e+06
3.53655e+06
3.52402e+06
3.51878e+06
3.51273e+06
3.50933e+06
3.50584e+06
3.5035e+06
3.50135e+06
3.49972e+06
3.49833e+06
3.49722e+06
3.4963e+06
3.49556e+06
3.49497e+06
3.49449e+06
3.49411e+06
3.49381e+06
3.49357e+06
3.49339e+06
3.49326e+06
3.49317e+06
3.4931e+06
3.49307e+06
3.49305e+06
3.49306e+06
3.49308e+06
3.49311e+06
3.49315e+06
3.49319e+06
3.49325e+06
3.49331e+06
3.54365e+06
3.5406e+06
3.5425e+06
3.54047e+06
3.54256e+06
3.54344e+06
3.54641e+06
3.54456e+06
3.54357e+06
3.52894e+06
3.52216e+06
3.51484e+06
3.51072e+06
3.50665e+06
3.50395e+06
3.50152e+06
3.49971e+06
3.49817e+06
3.49697e+06
3.49599e+06
3.49522e+06
3.4946e+06
3.49411e+06
3.49372e+06
3.49342e+06
3.4932e+06
3.49303e+06
3.4929e+06
3.49282e+06
3.49277e+06
3.49275e+06
3.49275e+06
3.49276e+06
3.49279e+06
3.49283e+06
3.49288e+06
3.49294e+06
3.493e+06
3.49306e+06
3.54634e+06
3.54285e+06
3.54494e+06
3.54302e+06
3.54574e+06
3.54901e+06
3.55344e+06
3.55179e+06
3.55009e+06
3.53298e+06
3.52478e+06
3.51633e+06
3.5116e+06
3.50706e+06
3.50409e+06
3.50144e+06
3.49949e+06
3.49786e+06
3.4966e+06
3.49558e+06
3.49479e+06
3.49416e+06
3.49367e+06
3.49329e+06
3.49301e+06
3.49279e+06
3.49264e+06
3.49253e+06
3.49247e+06
3.49243e+06
3.49242e+06
3.49243e+06
3.49246e+06
3.4925e+06
3.49255e+06
3.49261e+06
3.49268e+06
3.49275e+06
3.49282e+06
3.54793e+06
3.54468e+06
3.54644e+06
3.54505e+06
3.54817e+06
3.55393e+06
3.55931e+06
3.55833e+06
3.55506e+06
3.53572e+06
3.52635e+06
3.517e+06
3.51183e+06
3.50697e+06
3.50381e+06
3.50104e+06
3.49903e+06
3.49735e+06
3.49608e+06
3.49505e+06
3.49427e+06
3.49365e+06
3.49318e+06
3.49282e+06
3.49256e+06
3.49236e+06
3.49223e+06
3.49215e+06
3.4921e+06
3.49208e+06
3.49209e+06
3.49212e+06
3.49216e+06
3.49221e+06
3.49228e+06
3.49235e+06
3.49242e+06
3.4925e+06
3.49258e+06
3.54826e+06
3.54679e+06
3.54694e+06
3.54745e+06
3.54937e+06
3.55745e+06
3.56284e+06
3.56269e+06
3.55738e+06
3.53642e+06
3.52624e+06
3.51649e+06
3.51115e+06
3.50622e+06
3.50303e+06
3.50026e+06
3.49827e+06
3.49662e+06
3.49538e+06
3.49439e+06
3.49364e+06
3.49306e+06
3.49263e+06
3.4923e+06
3.49207e+06
3.49191e+06
3.4918e+06
3.49174e+06
3.49172e+06
3.49172e+06
3.49175e+06
3.49179e+06
3.49185e+06
3.49192e+06
3.492e+06
3.49208e+06
3.49216e+06
3.49225e+06
3.49234e+06
3.54679e+06
3.54758e+06
3.54592e+06
3.54858e+06
3.54905e+06
3.5581e+06
3.56292e+06
3.56349e+06
3.55622e+06
3.53456e+06
3.52416e+06
3.51467e+06
3.50946e+06
3.50474e+06
3.50169e+06
3.49907e+06
3.49719e+06
3.49565e+06
3.49449e+06
3.49359e+06
3.49291e+06
3.49239e+06
3.49201e+06
3.49174e+06
3.49155e+06
3.49143e+06
3.49136e+06
3.49133e+06
3.49133e+06
3.49136e+06
3.49141e+06
3.49147e+06
3.49154e+06
3.49163e+06
3.49172e+06
3.49181e+06
3.49191e+06
3.492e+06
3.4921e+06
3.54239e+06
3.54463e+06
3.54202e+06
3.54596e+06
3.54592e+06
3.55441e+06
3.55849e+06
3.55931e+06
3.55036e+06
3.5295e+06
3.51983e+06
3.51131e+06
3.50663e+06
3.50245e+06
3.49974e+06
3.49743e+06
3.49577e+06
3.49442e+06
3.49342e+06
3.49264e+06
3.49207e+06
3.49164e+06
3.49134e+06
3.49113e+06
3.491e+06
3.49092e+06
3.49089e+06
3.4909e+06
3.49093e+06
3.49099e+06
3.49106e+06
3.49114e+06
3.49124e+06
3.49133e+06
3.49144e+06
3.49154e+06
3.49165e+06
3.49175e+06
3.49186e+06
3.53452e+06
3.53712e+06
3.5345e+06
3.53876e+06
3.53879e+06
3.54568e+06
3.54908e+06
3.5497e+06
3.53955e+06
3.52126e+06
3.51319e+06
3.50645e+06
3.50268e+06
3.49938e+06
3.49719e+06
3.49536e+06
3.49402e+06
3.49295e+06
3.49216e+06
3.49156e+06
3.49113e+06
3.49082e+06
3.49061e+06
3.49048e+06
3.49041e+06
3.49039e+06
3.49041e+06
3.49046e+06
3.49053e+06
3.49061e+06
3.49071e+06
3.49081e+06
3.49093e+06
3.49104e+06
3.49116e+06
3.49128e+06
3.49139e+06
3.49151e+06
3.49162e+06
3.52337e+06
3.5244e+06
3.52355e+06
3.52652e+06
3.52772e+06
3.53206e+06
3.53493e+06
3.53508e+06
3.52434e+06
3.51039e+06
3.50458e+06
3.5003e+06
3.49773e+06
3.4956e+06
3.49409e+06
3.49288e+06
3.49197e+06
3.49126e+06
3.49074e+06
3.49036e+06
3.49009e+06
3.48992e+06
3.48983e+06
3.48979e+06
3.4898e+06
3.48985e+06
3.48992e+06
3.49001e+06
3.49012e+06
3.49023e+06
3.49036e+06
3.49049e+06
3.49062e+06
3.49075e+06
3.49088e+06
3.49101e+06
3.49114e+06
3.49126e+06
3.49139e+06
3.50993e+06
3.50707e+06
3.50978e+06
3.50973e+06
3.51303e+06
3.51448e+06
3.51688e+06
3.5164e+06
3.50547e+06
3.49728e+06
3.49429e+06
3.49306e+06
3.49193e+06
3.49122e+06
3.49054e+06
3.49008e+06
3.48967e+06
3.48939e+06
3.48918e+06
3.48905e+06
3.48899e+06
3.48898e+06
3.48901e+06
3.48908e+06
3.48918e+06
3.48929e+06
3.48942e+06
3.48956e+06
3.48971e+06
3.48986e+06
3.49001e+06
3.49016e+06
3.49031e+06
3.49046e+06
3.49061e+06
3.49075e+06
3.49089e+06
3.49102e+06
3.49115e+06
3.49454e+06
3.48718e+06
3.49391e+06
3.49034e+06
3.49561e+06
3.49461e+06
3.49631e+06
3.49529e+06
3.48438e+06
3.48292e+06
3.48295e+06
3.48513e+06
3.48556e+06
3.48644e+06
3.48667e+06
3.48704e+06
3.48719e+06
3.48738e+06
3.48752e+06
3.48768e+06
3.48783e+06
3.488e+06
3.48817e+06
3.48835e+06
3.48854e+06
3.48873e+06
3.48892e+06
3.48911e+06
3.4893e+06
3.48948e+06
3.48966e+06
3.48984e+06
3.49001e+06
3.49017e+06
3.49033e+06
3.49049e+06
3.49064e+06
3.49078e+06
3.49092e+06
3.47836e+06
3.46761e+06
3.47701e+06
3.47107e+06
3.47686e+06
3.47432e+06
3.47489e+06
3.47353e+06
3.46255e+06
3.46798e+06
3.47109e+06
3.47683e+06
3.47889e+06
3.48143e+06
3.48264e+06
3.48388e+06
3.48463e+06
3.48531e+06
3.48582e+06
3.48627e+06
3.48665e+06
3.48701e+06
3.48733e+06
3.48762e+06
3.4879e+06
3.48817e+06
3.48842e+06
3.48866e+06
3.48889e+06
3.48911e+06
3.48932e+06
3.48952e+06
3.48971e+06
3.48989e+06
3.49006e+06
3.49023e+06
3.49039e+06
3.49055e+06
3.49069e+06
3.46199e+06
3.45133e+06
3.46061e+06
3.45463e+06
3.45851e+06
3.45535e+06
3.45443e+06
3.45282e+06
3.44171e+06
3.45353e+06
3.4595e+06
3.46865e+06
3.47229e+06
3.47646e+06
3.47862e+06
3.48073e+06
3.48207e+06
3.48325e+06
3.48412e+06
3.48487e+06
3.48549e+06
3.48602e+06
3.48649e+06
3.4869e+06
3.48728e+06
3.48762e+06
3.48793e+06
3.48822e+06
3.48849e+06
3.48874e+06
3.48898e+06
3.4892e+06
3.48941e+06
3.48961e+06
3.4898e+06
3.48998e+06
3.49015e+06
3.49031e+06
3.49047e+06
3.44756e+06
3.44006e+06
3.44593e+06
3.44278e+06
3.44236e+06
3.43908e+06
3.43665e+06
3.43485e+06
3.42342e+06
3.44013e+06
3.44883e+06
3.46095e+06
3.4661e+06
3.47174e+06
3.47481e+06
3.47771e+06
3.47962e+06
3.48126e+06
3.48249e+06
3.48352e+06
3.48436e+06
3.48507e+06
3.48568e+06
3.48621e+06
3.48667e+06
3.48708e+06
3.48746e+06
3.48779e+06
3.4881e+06
3.48839e+06
3.48865e+06
3.48889e+06
3.48912e+06
3.48934e+06
3.48954e+06
3.48973e+06
3.48991e+06
3.49008e+06
3.49024e+06
3.43609e+06
3.43499e+06
3.43485e+06
3.4359e+06
3.43018e+06
3.42669e+06
3.42327e+06
3.42113e+06
3.40954e+06
3.42894e+06
3.43987e+06
3.45421e+06
3.46068e+06
3.46751e+06
3.47139e+06
3.47497e+06
3.47738e+06
3.47944e+06
3.48098e+06
3.42975e+06
3.43378e+06
3.42855e+06
3.43295e+06
3.42329e+06
3.41922e+06
3.41577e+06
3.41302e+06
3.40111e+06
3.42078e+06
3.43337e+06
3.44885e+06
3.45636e+06
3.46398e+06
3.46852e+06
3.47261e+06
3.47544e+06
3.42911e+06
3.44488e+06
3.49944e+06
3.50014e+06
3.50017e+06
3.49989e+06
3.49849e+06
3.49853e+06
3.49868e+06
3.4988e+06
3.49781e+06
3.49385e+06
3.49485e+06
3.49606e+06
3.49796e+06
3.50041e+06
3.49994e+06
3.50047e+06
3.50075e+06
3.50104e+06
3.50121e+06
3.5013e+06
3.50134e+06
3.50134e+06
3.50131e+06
3.50127e+06
3.50122e+06
3.50115e+06
3.50108e+06
3.501e+06
3.50092e+06
3.50083e+06
3.50073e+06
3.50063e+06
3.50053e+06
3.50042e+06
3.50031e+06
3.50019e+06
3.50006e+06
3.49992e+06
3.49975e+06
3.49859e+06
3.50045e+06
3.4986e+06
3.50069e+06
3.50036e+06
3.50178e+06
3.50129e+06
3.50219e+06
3.5025e+06
3.50019e+06
3.49864e+06
3.50242e+06
3.50787e+06
3.50708e+06
3.50468e+06
3.50289e+06
3.50188e+06
3.5012e+06
3.50081e+06
3.50055e+06
3.50041e+06
3.50032e+06
3.50028e+06
3.50026e+06
3.50025e+06
3.50025e+06
3.50025e+06
3.50024e+06
3.50023e+06
3.50021e+06
3.50019e+06
3.50015e+06
3.5001e+06
3.50004e+06
3.49997e+06
3.49989e+06
3.49979e+06
3.49967e+06
3.49951e+06
3.4977e+06
3.49996e+06
3.49802e+06
3.49972e+06
3.49863e+06
3.49961e+06
3.49929e+06
3.49969e+06
3.49981e+06
3.4975e+06
3.49511e+06
3.50025e+06
3.50706e+06
3.5056e+06
3.50436e+06
3.50299e+06
3.50229e+06
3.50173e+06
3.50136e+06
3.50107e+06
3.50085e+06
3.50068e+06
3.50055e+06
3.50044e+06
3.50035e+06
3.50027e+06
3.5002e+06
3.50014e+06
3.50008e+06
3.50002e+06
3.49996e+06
3.4999e+06
3.49984e+06
3.49977e+06
3.4997e+06
3.49962e+06
3.49953e+06
3.49943e+06
3.4993e+06
3.49713e+06
3.49962e+06
3.49742e+06
3.49942e+06
3.49853e+06
3.49952e+06
3.49937e+06
3.49993e+06
3.50077e+06
3.49964e+06
3.49974e+06
3.50329e+06
3.50819e+06
3.5077e+06
3.50578e+06
3.5041e+06
3.50296e+06
3.50207e+06
3.50147e+06
3.50102e+06
3.50071e+06
3.50048e+06
3.50032e+06
3.50019e+06
3.5001e+06
3.50002e+06
3.49995e+06
3.49989e+06
3.49983e+06
3.49977e+06
3.49971e+06
3.49965e+06
3.49959e+06
3.49952e+06
3.49945e+06
3.49937e+06
3.49929e+06
3.4992e+06
3.49909e+06
3.49616e+06
3.4983e+06
3.49667e+06
3.4982e+06
3.49764e+06
3.49815e+06
3.49831e+06
3.49826e+06
3.4992e+06
3.49826e+06
3.49858e+06
3.50252e+06
3.50763e+06
3.50696e+06
3.50544e+06
3.50398e+06
3.50299e+06
3.50216e+06
3.50157e+06
3.5011e+06
3.50075e+06
3.50047e+06
3.50026e+06
3.50009e+06
3.49996e+06
3.49985e+06
3.49976e+06
3.49967e+06
3.4996e+06
3.49953e+06
3.49947e+06
3.4994e+06
3.49934e+06
3.49927e+06
3.4992e+06
3.49913e+06
3.49905e+06
3.49897e+06
3.49887e+06
3.49615e+06
3.49674e+06
3.49639e+06
3.49714e+06
3.49736e+06
3.49738e+06
3.49806e+06
3.49778e+06
3.49921e+06
3.49888e+06
3.5001e+06
3.50366e+06
3.50809e+06
3.50736e+06
3.50575e+06
3.50426e+06
3.50317e+06
3.50226e+06
3.50158e+06
3.50105e+06
3.50066e+06
3.50035e+06
3.50011e+06
3.49992e+06
3.49977e+06
3.49965e+06
3.49954e+06
3.49945e+06
3.49937e+06
3.49929e+06
3.49922e+06
3.49916e+06
3.49909e+06
3.49902e+06
3.49895e+06
3.49888e+06
3.49881e+06
3.49874e+06
3.49866e+06
3.49641e+06
3.49471e+06
3.49634e+06
3.4957e+06
3.49699e+06
3.49632e+06
3.49756e+06
3.49679e+06
3.49841e+06
3.49814e+06
3.49977e+06
3.50326e+06
3.50741e+06
3.50665e+06
3.50528e+06
3.50395e+06
3.50297e+06
3.50212e+06
3.50148e+06
3.50095e+06
3.50054e+06
3.50022e+06
3.49996e+06
3.49975e+06
3.49959e+06
3.49945e+06
3.49933e+06
3.49923e+06
3.49914e+06
3.49906e+06
3.49898e+06
3.49891e+06
3.49884e+06
3.49878e+06
3.49871e+06
3.49864e+06
3.49858e+06
3.49851e+06
3.49844e+06
3.4974e+06
3.49247e+06
3.49671e+06
3.49433e+06
3.4969e+06
3.49552e+06
3.49729e+06
3.49628e+06
3.49813e+06
3.49812e+06
3.5002e+06
3.50347e+06
3.50716e+06
3.50632e+06
3.50504e+06
3.50377e+06
3.50281e+06
3.50198e+06
3.50133e+06
3.5008e+06
3.50038e+06
3.50005e+06
3.49978e+06
3.49956e+06
3.49938e+06
3.49923e+06
3.49911e+06
3.499e+06
3.4989e+06
3.49882e+06
3.49874e+06
3.49867e+06
3.4986e+06
3.49853e+06
3.49847e+06
3.4984e+06
3.49834e+06
3.49828e+06
3.49823e+06
3.49838e+06
3.49027e+06
3.49738e+06
3.49296e+06
3.49676e+06
3.49468e+06
3.4968e+06
3.4956e+06
3.49744e+06
3.49752e+06
3.4999e+06
3.503e+06
3.50633e+06
3.50552e+06
3.50444e+06
3.50331e+06
3.50246e+06
3.5017e+06
3.50109e+06
3.50059e+06
3.50018e+06
3.49985e+06
3.49958e+06
3.49936e+06
3.49917e+06
3.49902e+06
3.49888e+06
3.49877e+06
3.49867e+06
3.49858e+06
3.49849e+06
3.49842e+06
3.49835e+06
3.49829e+06
3.49822e+06
3.49816e+06
3.49811e+06
3.49806e+06
3.49801e+06
3.4996e+06
3.4883e+06
3.49811e+06
3.49181e+06
3.49657e+06
3.49396e+06
3.4961e+06
3.495e+06
3.49667e+06
3.49706e+06
3.49969e+06
3.50266e+06
3.50561e+06
3.50483e+06
3.50389e+06
3.50287e+06
3.5021e+06
3.50139e+06
3.50083e+06
3.50035e+06
3.49996e+06
3.49963e+06
3.49936e+06
3.49914e+06
3.49895e+06
3.49879e+06
3.49865e+06
3.49853e+06
3.49843e+06
3.49833e+06
3.49825e+06
3.49817e+06
3.4981e+06
3.49804e+06
3.49798e+06
3.49793e+06
3.49787e+06
3.49783e+06
3.49778e+06
3.5002e+06
3.48703e+06
3.49851e+06
3.49089e+06
3.49606e+06
3.49323e+06
3.49493e+06
3.49416e+06
3.49542e+06
3.49623e+06
3.49902e+06
3.50195e+06
3.50459e+06
3.50393e+06
3.50316e+06
3.5023e+06
3.50164e+06
3.50102e+06
3.50051e+06
3.50006e+06
3.4997e+06
3.49939e+06
3.49913e+06
3.49891e+06
3.49872e+06
3.49855e+06
3.49841e+06
3.49829e+06
3.49818e+06
3.49809e+06
3.498e+06
3.49793e+06
3.49786e+06
3.4978e+06
3.49774e+06
3.49769e+06
3.49764e+06
3.4976e+06
3.49756e+06
3.49979e+06
3.48652e+06
3.49808e+06
3.49029e+06
3.49509e+06
3.49248e+06
3.49325e+06
3.49313e+06
3.49379e+06
3.49528e+06
3.49819e+06
3.50119e+06
3.50355e+06
3.50305e+06
3.50244e+06
3.50173e+06
3.50117e+06
3.50062e+06
3.50017e+06
3.49976e+06
3.49942e+06
3.49913e+06
3.49888e+06
3.49866e+06
3.49848e+06
3.49831e+06
3.49817e+06
3.49805e+06
3.49794e+06
3.49784e+06
3.49776e+06
3.49768e+06
3.49761e+06
3.49755e+06
3.49749e+06
3.49745e+06
3.4974e+06
3.49737e+06
3.49734e+06
3.49766e+06
3.48705e+06
3.49648e+06
3.48998e+06
3.49346e+06
3.49166e+06
3.491e+06
3.49179e+06
3.49167e+06
3.49406e+06
3.49702e+06
3.50023e+06
3.50235e+06
3.50208e+06
3.50165e+06
3.50111e+06
3.50065e+06
3.5002e+06
3.4998e+06
3.49944e+06
3.49913e+06
3.49886e+06
3.49862e+06
3.49841e+06
3.49823e+06
3.49807e+06
3.49793e+06
3.4978e+06
3.49769e+06
3.49759e+06
3.49751e+06
3.49743e+06
3.49736e+06
3.4973e+06
3.49725e+06
3.49721e+06
3.49717e+06
3.49713e+06
3.49711e+06
3.494e+06
3.48843e+06
3.49354e+06
3.48993e+06
3.49115e+06
3.49076e+06
3.48835e+06
3.49021e+06
3.48925e+06
3.49271e+06
3.49569e+06
3.4992e+06
3.50114e+06
3.50114e+06
3.50087e+06
3.5005e+06
3.50014e+06
3.49977e+06
3.49944e+06
3.49912e+06
3.49884e+06
3.49858e+06
3.49836e+06
3.49816e+06
3.49798e+06
3.49782e+06
3.49767e+06
3.49755e+06
3.49744e+06
3.49734e+06
3.49725e+06
3.49718e+06
3.49711e+06
3.49705e+06
3.497e+06
3.49696e+06
3.49693e+06
3.4969e+06
3.49688e+06
3.48904e+06
3.49079e+06
3.48957e+06
3.49016e+06
3.4883e+06
3.48972e+06
3.48553e+06
3.4884e+06
3.48666e+06
3.49125e+06
3.49423e+06
3.49811e+06
3.49991e+06
3.50021e+06
3.5001e+06
3.4999e+06
3.49964e+06
3.49936e+06
3.49907e+06
3.4988e+06
3.49854e+06
3.49831e+06
3.49809e+06
3.4979e+06
3.49772e+06
3.49756e+06
3.49742e+06
3.49729e+06
3.49718e+06
3.49708e+06
3.497e+06
3.49692e+06
3.49686e+06
3.4968e+06
3.49676e+06
3.49672e+06
3.49669e+06
3.49667e+06
3.49665e+06
3.48347e+06
3.49354e+06
3.48517e+06
3.49052e+06
3.48539e+06
3.48857e+06
3.48291e+06
3.48653e+06
3.48424e+06
3.48983e+06
3.49284e+06
3.49708e+06
3.49878e+06
3.49937e+06
3.4994e+06
3.49935e+06
3.49918e+06
3.49897e+06
3.49873e+06
3.49849e+06
3.49825e+06
3.49803e+06
3.49783e+06
3.49764e+06
3.49746e+06
3.4973e+06
3.49716e+06
3.49704e+06
3.49693e+06
3.49683e+06
3.49674e+06
3.49667e+06
3.49661e+06
3.49655e+06
3.49651e+06
3.49647e+06
3.49645e+06
3.49643e+06
3.49642e+06
3.47846e+06
3.49591e+06
3.48112e+06
3.49085e+06
3.48286e+06
3.48742e+06
3.48091e+06
3.48478e+06
3.48227e+06
3.48859e+06
3.49165e+06
3.49617e+06
3.4978e+06
3.49865e+06
3.49879e+06
3.49888e+06
3.49877e+06
3.49862e+06
3.49841e+06
3.4982e+06
3.49798e+06
3.49777e+06
3.49756e+06
3.49738e+06
3.4972e+06
3.49705e+06
3.4969e+06
3.49678e+06
3.49667e+06
3.49657e+06
3.49648e+06
3.49641e+06
3.49635e+06
3.4963e+06
3.49626e+06
3.49623e+06
3.49621e+06
3.49619e+06
3.49618e+06
3.47545e+06
3.49699e+06
3.47874e+06
3.4908e+06
3.48142e+06
3.4864e+06
3.4799e+06
3.4835e+06
3.48114e+06
3.48772e+06
3.49085e+06
3.49549e+06
3.49707e+06
3.4981e+06
3.49832e+06
3.4985e+06
3.49843e+06
3.49832e+06
3.49813e+06
3.49793e+06
3.49772e+06
3.49751e+06
3.49731e+06
3.49712e+06
3.49694e+06
3.49679e+06
3.49664e+06
3.49651e+06
3.4964e+06
3.4963e+06
3.49622e+06
3.49615e+06
3.49609e+06
3.49605e+06
3.49601e+06
3.49598e+06
3.49596e+06
3.49595e+06
3.49595e+06
3.47523e+06
3.4967e+06
3.47854e+06
3.49057e+06
3.48133e+06
3.486e+06
3.4802e+06
3.48313e+06
3.48116e+06
3.48745e+06
3.4906e+06
3.49515e+06
3.49666e+06
3.49777e+06
3.49803e+06
3.49825e+06
3.49819e+06
3.49809e+06
3.4979e+06
3.4977e+06
3.49748e+06
3.49727e+06
3.49706e+06
3.49687e+06
3.49669e+06
3.49652e+06
3.49638e+06
3.49625e+06
3.49614e+06
3.49604e+06
3.49596e+06
3.49589e+06
3.49583e+06
3.49579e+06
3.49575e+06
3.49573e+06
3.49572e+06
3.49571e+06
3.49571e+06
3.47743e+06
3.49614e+06
3.48035e+06
3.49079e+06
3.48278e+06
3.48657e+06
3.48203e+06
3.48395e+06
3.48249e+06
3.48794e+06
3.49101e+06
3.49523e+06
3.49662e+06
3.49768e+06
3.49792e+06
3.49812e+06
3.49804e+06
3.49792e+06
3.49772e+06
3.4975e+06
3.49726e+06
3.49703e+06
3.49682e+06
3.49661e+06
3.49643e+06
3.49626e+06
3.49611e+06
3.49598e+06
3.49587e+06
3.49577e+06
3.49569e+06
3.49562e+06
3.49557e+06
3.49553e+06
3.4955e+06