/*--------------------------------*- C++ -*----------------------------------*\
| =========                 |                                                 |
| \\      /  F ield         | OpenFOAM: The Open Source CFD Toolbox           |
|  \\    /   O peration     | Version:  v2012                                 |
|   \\  /    A nd           | Website:  www.openfoam.com                      |
|    \\/     M anipulation  |                                                 |
\*---------------------------------------------------------------------------*/
FoamFile
{
    version     2.0;
    format      ascii;
    class       volScalarField;
    location    "0.7";
    object      p;
}
// * * * * * * * * * * * * * * * * * * * * * * * * * * * * * * * * * * * * * //

dimensions      [1 -1 -2 0 0 0 0];


internalField   nonuniform List<scalar> 
3332
(
3.49761e+06
3.49754e+06
3.49733e+06
3.49743e+06
3.49779e+06
3.49792e+06
3.49816e+06
3.49834e+06
3.49832e+06
3.49755e+06
3.49718e+06
3.49771e+06
3.49809e+06
3.4979e+06
3.49791e+06
3.49802e+06
3.49805e+06
3.49813e+06
3.49831e+06
3.49844e+06
3.49855e+06
3.49857e+06
3.49863e+06
3.49848e+06
3.49752e+06
3.49699e+06
3.49743e+06
3.4978e+06
3.49783e+06
3.49802e+06
3.49812e+06
3.49808e+06
3.49815e+06
3.49822e+06
3.49833e+06
3.49845e+06
3.49849e+06
3.49857e+06
3.4983e+06
3.49734e+06
3.49684e+06
3.49726e+06
3.49758e+06
3.49775e+06
3.49797e+06
3.49798e+06
3.49798e+06
3.49803e+06
3.49811e+06
3.49822e+06
3.49837e+06
3.49841e+06
3.49851e+06
3.49823e+06
3.49729e+06
3.49683e+06
3.49724e+06
3.49751e+06
3.49768e+06
3.4979e+06
3.4979e+06
3.49793e+06
3.49796e+06
3.49803e+06
3.49814e+06
3.49828e+06
3.49833e+06
3.49843e+06
3.49762e+06
3.4973e+06
3.49684e+06
3.49711e+06
3.49739e+06
3.49759e+06
3.49781e+06
3.49778e+06
3.49781e+06
3.49785e+06
3.49794e+06
3.49805e+06
3.49819e+06
3.49825e+06
3.49836e+06
3.49751e+06
3.49717e+06
3.49683e+06
3.49716e+06
3.49747e+06
3.4976e+06
3.49776e+06
3.49772e+06
3.49771e+06
3.49775e+06
3.49785e+06
3.49797e+06
3.49812e+06
3.49818e+06
3.49829e+06
3.49705e+06
3.49696e+06
3.49671e+06
3.49691e+06
3.49723e+06
3.49735e+06
3.49754e+06
3.49755e+06
3.49756e+06
3.49762e+06
3.49774e+06
3.49786e+06
3.49801e+06
3.49808e+06
3.49819e+06
3.49693e+06
3.4969e+06
3.49685e+06
3.49702e+06
3.49732e+06
3.49728e+06
3.49726e+06
3.49737e+06
3.49741e+06
3.4975e+06
3.49767e+06
3.4978e+06
3.49793e+06
3.498e+06
3.4981e+06
3.4975e+06
3.49716e+06
3.497e+06
3.49681e+06
3.49711e+06
3.49754e+06
3.49755e+06
3.49752e+06
3.49748e+06
3.49754e+06
3.4976e+06
3.49767e+06
3.49778e+06
3.49787e+06
3.49797e+06
3.49744e+06
3.49718e+06
3.49729e+06
3.49705e+06
3.49729e+06
3.49755e+06
3.49732e+06
3.49737e+06
3.49735e+06
3.49744e+06
3.49753e+06
3.49761e+06
3.49771e+06
3.49779e+06
3.49788e+06
3.49643e+06
3.49679e+06
3.49708e+06
3.49667e+06
3.49695e+06
3.49717e+06
3.497e+06
3.49711e+06
3.49712e+06
3.49723e+06
3.49736e+06
3.49745e+06
3.49755e+06
3.49765e+06
3.49774e+06
3.49657e+06
3.49687e+06
3.49741e+06
3.49702e+06
3.4971e+06
3.49722e+06
3.49696e+06
3.49707e+06
3.4971e+06
3.49718e+06
3.4973e+06
3.49738e+06
3.49747e+06
3.49755e+06
3.49764e+06
3.49492e+06
3.49671e+06
3.49739e+06
3.49657e+06
3.49649e+06
3.49708e+06
3.49674e+06
3.49688e+06
3.49683e+06
3.49693e+06
3.49703e+06
3.49715e+06
3.49727e+06
3.49738e+06
3.49747e+06
3.4953e+06
3.49684e+06
3.49767e+06
3.4967e+06
3.49645e+06
3.49703e+06
3.49673e+06
3.49687e+06
3.49687e+06
3.49692e+06
3.49699e+06
3.49708e+06
3.49716e+06
3.49725e+06
3.49733e+06
3.49364e+06
3.49618e+06
3.49673e+06
3.49653e+06
3.49637e+06
3.49633e+06
3.49624e+06
3.49633e+06
3.49637e+06
3.49648e+06
3.49661e+06
3.49671e+06
3.49683e+06
3.49697e+06
3.49709e+06
3.49393e+06
3.4964e+06
3.49726e+06
3.49693e+06
3.49679e+06
3.49668e+06
3.49658e+06
3.49659e+06
3.49657e+06
3.4966e+06
3.4967e+06
3.49676e+06
3.49683e+06
3.49692e+06
3.49698e+06
3.49675e+06
3.49634e+06
3.49631e+06
3.49578e+06
3.49556e+06
3.49554e+06
3.4955e+06
3.49561e+06
3.49568e+06
3.4958e+06
3.49604e+06
3.49616e+06
3.49635e+06
3.49653e+06
3.49663e+06
3.4975e+06
3.49686e+06
3.49732e+06
3.4969e+06
3.49667e+06
3.49649e+06
3.49632e+06
3.49627e+06
3.4962e+06
3.49615e+06
3.4963e+06
3.49632e+06
3.49642e+06
3.49651e+06
3.4965e+06
3.49397e+06
3.49361e+06
3.49464e+06
3.49438e+06
3.49426e+06
3.49423e+06
3.49434e+06
3.49449e+06
3.49465e+06
3.49481e+06
3.49518e+06
3.49535e+06
3.4956e+06
3.49583e+06
3.49594e+06
3.49586e+06
3.49606e+06
3.49726e+06
3.49663e+06
3.49636e+06
3.49607e+06
3.4959e+06
3.49577e+06
3.4957e+06
3.49558e+06
3.49573e+06
3.49566e+06
3.49572e+06
3.49579e+06
3.49579e+06
3.49151e+06
3.49313e+06
3.49254e+06
3.49144e+06
3.49147e+06
3.49172e+06
3.4921e+06
3.49239e+06
3.49282e+06
3.49312e+06
3.49369e+06
3.49398e+06
3.49436e+06
3.49468e+06
3.49488e+06
3.49538e+06
3.49762e+06
3.49724e+06
3.49576e+06
3.49551e+06
3.49524e+06
3.49522e+06
3.495e+06
3.495e+06
3.49476e+06
3.4949e+06
3.49474e+06
3.49477e+06
3.49479e+06
3.4948e+06
3.48562e+06
3.48593e+06
3.48695e+06
3.48608e+06
3.48618e+06
3.48703e+06
3.48771e+06
3.48836e+06
3.48938e+06
3.48994e+06
3.49096e+06
3.49155e+06
3.49227e+06
3.49282e+06
3.49329e+06
3.49258e+06
3.49216e+06
3.4945e+06
3.49384e+06
3.49404e+06
3.49422e+06
3.49442e+06
3.49404e+06
3.49415e+06
3.49366e+06
3.49371e+06
3.49338e+06
3.49342e+06
3.49338e+06
3.49348e+06
3.46789e+06
3.47348e+06
3.47503e+06
3.47462e+06
3.47648e+06
3.47755e+06
3.47982e+06
3.48114e+06
3.48325e+06
3.48446e+06
3.48627e+06
3.48742e+06
3.48881e+06
3.48979e+06
3.49082e+06
3.48143e+06
3.48499e+06
3.48812e+06
3.48874e+06
3.49124e+06
3.49125e+06
3.49257e+06
3.49206e+06
3.4926e+06
3.49191e+06
3.49208e+06
3.49151e+06
3.49166e+06
3.44959e+06
3.44908e+06
3.45016e+06
3.45295e+06
3.45813e+06
3.46003e+06
3.46505e+06
3.46759e+06
3.47203e+06
3.47449e+06
3.47821e+06
3.4804e+06
3.48337e+06
3.47264e+06
3.46867e+06
3.47417e+06
3.47954e+06
3.4843e+06
3.48571e+06
3.48889e+06
3.48874e+06
3.49071e+06
3.4895e+06
3.49038e+06
3.48907e+06
3.48968e+06
3.3431e+06
3.37923e+06
3.39504e+06
3.40602e+06
3.41636e+06
3.42348e+06
3.43495e+06
3.4402e+06
3.45093e+06
3.45549e+06
3.46406e+06
3.46792e+06
3.47443e+06
3.36075e+06
3.44445e+06
3.43812e+06
3.4655e+06
3.4642e+06
3.47919e+06
3.48306e+06
3.48499e+06
3.49095e+06
3.48756e+06
3.49097e+06
3.48665e+06
3.48856e+06
3.10203e+06
3.24619e+06
3.21682e+06
3.29905e+06
3.3007e+06
3.34545e+06
3.36798e+06
3.38176e+06
3.41274e+06
3.41877e+06
3.44133e+06
3.44576e+06
3.4607e+06
3.46546e+06
3.6734e+06
3.30478e+06
3.45317e+06
3.3825e+06
3.45337e+06
3.45577e+06
3.46903e+06
3.49212e+06
3.48142e+06
3.49712e+06
3.48104e+06
3.48929e+06
2.65713e+06
2.72674e+06
2.89256e+06
3.13739e+06
3.03966e+06
3.22085e+06
3.25287e+06
3.28222e+06
3.35758e+06
3.34291e+06
3.41606e+06
3.40677e+06
3.44506e+06
3.21811e+06
3.08385e+06
3.04643e+06
3.33648e+06
3.36759e+06
3.43939e+06
3.4777e+06
3.35266e+06
3.58285e+06
3.53271e+06
3.55791e+06
3.45905e+06
3.49518e+06
3.99917e+06
4.0008e+06
1.93427e+06
2.43242e+06
2.54929e+06
2.71431e+06
3.04913e+06
3.14549e+06
3.19858e+06
3.00545e+06
3.34591e+06
3.27837e+06
3.42404e+06
4.0009e+06
4.00073e+06
4.00049e+06
4.00021e+06
4.00068e+06
3.99803e+06
3.68921e+06
2.27513e+06
3.93122e+06
3.99922e+06
3.93432e+06
3.3233e+06
3.53629e+06
4.00095e+06
4.00079e+06
4.00065e+06
4.00055e+06
4.00051e+06
4.00047e+06
4.00052e+06
4.00056e+06
4.00066e+06
4.00074e+06
4.00096e+06
4.00084e+06
4.00079e+06
4.00076e+06
4.00073e+06
4.00074e+06
4.00077e+06
4.00084e+06
4.00098e+06
4.00111e+06
4.00098e+06
4.00088e+06
4.00081e+06
4.00076e+06
4.00076e+06
4.00078e+06
4.00083e+06
4.00091e+06
4.00101e+06
4.00114e+06
4.00101e+06
4.00092e+06
4.00087e+06
4.00085e+06
4.00084e+06
4.00086e+06
4.00091e+06
4.001e+06
4.00111e+06
4.0232e+06
4.04514e+06
4.04159e+06
4.03918e+06
4.03783e+06
4.04e+06
4.04648e+06
4.05729e+06
4.07066e+06
4.08212e+06
4.08536e+06
4.1696e+06
4.17077e+06
4.17003e+06
4.17017e+06
4.1691e+06
4.16852e+06
4.1675e+06
4.16709e+06
4.16616e+06
4.16742e+06
4.22595e+06
4.2314e+06
4.23111e+06
4.23419e+06
4.23473e+06
4.2348e+06
4.23405e+06
4.23152e+06
4.22997e+06
4.22739e+06
4.34381e+06
4.35453e+06
4.35446e+06
4.3573e+06
4.35527e+06
4.35136e+06
4.34494e+06
4.33627e+06
4.32838e+06
4.32186e+06
4.35553e+06
4.40101e+06
4.41766e+06
4.4343e+06
4.43678e+06
4.43115e+06
4.41879e+06
4.39364e+06
4.37107e+06
4.33833e+06
4.45578e+06
4.50828e+06
4.55393e+06
4.56897e+06
4.56984e+06
4.55993e+06
4.54241e+06
4.51291e+06
4.4804e+06
4.40474e+06
4.48847e+06
4.49817e+06
4.50091e+06
4.50065e+06
4.50051e+06
4.50025e+06
4.5e+06
4.4995e+06
4.50003e+06
4.48957e+06
4.49858e+06
4.49828e+06
4.49799e+06
4.49789e+06
4.49783e+06
4.4979e+06
4.49805e+06
4.49823e+06
4.49845e+06
4.49867e+06
4.49853e+06
4.49911e+06
4.4993e+06
4.49932e+06
4.49927e+06
4.49907e+06
4.49898e+06
4.49855e+06
4.49857e+06
4.49766e+06
4.4985e+06
4.49843e+06
4.49836e+06
4.4983e+06
4.49826e+06
4.49826e+06
4.49824e+06
4.49825e+06
4.49829e+06
4.49833e+06
4.49898e+06
4.49904e+06
4.49899e+06
4.49893e+06
4.49886e+06
4.49862e+06
4.49838e+06
4.49815e+06
4.49818e+06
4.49808e+06
4.49867e+06
4.49866e+06
4.49857e+06
4.4985e+06
4.49847e+06
4.49829e+06
4.49804e+06
4.49793e+06
4.49796e+06
4.49797e+06
4.4989e+06
4.49895e+06
4.49887e+06
4.49878e+06
4.49871e+06
4.49852e+06
4.49823e+06
4.49809e+06
4.4981e+06
4.49809e+06
4.49874e+06
4.49874e+06
4.49865e+06
4.49855e+06
4.49848e+06
4.49833e+06
4.49812e+06
4.49803e+06
4.49805e+06
4.49806e+06
4.49892e+06
4.49899e+06
4.49895e+06
4.49864e+06
4.49824e+06
4.49813e+06
4.49812e+06
4.4981e+06
4.4981e+06
4.4981e+06
4.49886e+06
4.49888e+06
4.49883e+06
4.4985e+06
4.49809e+06
4.498e+06
4.49806e+06
4.49806e+06
4.49808e+06
4.49808e+06
4.49893e+06
4.49899e+06
4.49893e+06
4.49859e+06
4.49817e+06
4.49808e+06
4.49811e+06
4.49812e+06
4.49812e+06
4.49812e+06
4.49888e+06
4.49891e+06
4.49888e+06
4.49854e+06
4.49813e+06
4.49805e+06
4.49808e+06
4.49809e+06
4.4981e+06
4.4981e+06
4.49843e+06
4.49859e+06
4.49885e+06
4.49861e+06
4.49817e+06
4.49808e+06
4.49813e+06
4.49813e+06
4.49814e+06
4.49814e+06
4.49831e+06
4.49839e+06
4.49868e+06
4.49853e+06
4.49812e+06
4.49806e+06
4.49811e+06
4.49812e+06
4.49813e+06
4.49814e+06
4.4982e+06
4.4982e+06
4.4982e+06
4.49816e+06
4.49817e+06
4.49816e+06
4.49816e+06
4.49817e+06
4.49817e+06
4.49817e+06
4.49814e+06
4.49809e+06
4.49808e+06
4.4981e+06
4.49815e+06
4.49816e+06
4.49817e+06
4.49818e+06
4.49818e+06
4.49819e+06
4.49817e+06
4.49815e+06
4.49816e+06
4.49818e+06
4.4982e+06
4.49821e+06
4.49822e+06
4.49822e+06
4.49823e+06
4.49823e+06
4.4982e+06
4.49818e+06
4.49819e+06
4.4982e+06
4.49823e+06
4.49824e+06
4.49825e+06
4.49826e+06
4.49826e+06
4.49827e+06
4.49828e+06
4.49824e+06
4.49827e+06
4.49828e+06
4.49829e+06
4.49829e+06
4.4983e+06
4.4983e+06
4.4983e+06
4.4983e+06
4.49832e+06
4.4983e+06
4.49833e+06
4.49833e+06
4.49834e+06
4.49836e+06
4.49838e+06
4.49839e+06
4.4984e+06
4.4984e+06
4.49858e+06
4.49853e+06
4.4984e+06
4.49837e+06
4.49836e+06
4.49843e+06
4.49856e+06
4.4986e+06
4.49858e+06
4.49858e+06
4.49865e+06
4.49865e+06
4.4985e+06
4.49845e+06
4.49843e+06
4.4985e+06
4.49864e+06
4.49869e+06
4.49868e+06
4.49867e+06
4.49879e+06
4.4988e+06
4.49881e+06
4.49869e+06
4.49852e+06
4.49855e+06
4.4987e+06
4.49874e+06
4.49873e+06
4.49873e+06
4.49884e+06
4.49889e+06
4.4989e+06
4.49877e+06
4.49859e+06
4.4986e+06
4.49874e+06
4.49877e+06
4.49876e+06
4.49876e+06
4.49895e+06
4.49894e+06
4.49893e+06
4.49889e+06
4.49886e+06
4.49885e+06
4.49886e+06
4.49886e+06
4.49886e+06
4.49886e+06
4.49895e+06
4.49896e+06
4.49894e+06
4.49892e+06
4.4989e+06
4.49888e+06
4.49887e+06
4.49886e+06
4.49886e+06
4.49885e+06
4.4991e+06
4.49909e+06
4.49908e+06
4.49905e+06
4.49903e+06
4.49901e+06
4.499e+06
4.49899e+06
4.49898e+06
4.49898e+06
4.49907e+06
4.49907e+06
4.49905e+06
4.49903e+06
4.49901e+06
4.49898e+06
4.49896e+06
4.49893e+06
4.49892e+06
4.4989e+06
4.49926e+06
4.49926e+06
4.49925e+06
4.49923e+06
4.49922e+06
4.49919e+06
4.49918e+06
4.49915e+06
4.49914e+06
4.49913e+06
4.49923e+06
4.49923e+06
4.49922e+06
4.4992e+06
4.49917e+06
4.49913e+06
4.4991e+06
4.49902e+06
4.49897e+06
4.49883e+06
4.49946e+06
4.49946e+06
4.49945e+06
4.49944e+06
4.49944e+06
4.49943e+06
4.49944e+06
4.49942e+06
4.49946e+06
4.49939e+06
4.49964e+06
4.49959e+06
4.49965e+06
4.49964e+06
4.49966e+06
4.49966e+06
4.49966e+06
4.49945e+06
4.49944e+06
4.49943e+06
4.49943e+06
4.49943e+06
4.49942e+06
4.49943e+06
4.49942e+06
4.49945e+06
4.49941e+06
4.49957e+06
4.49958e+06
4.49963e+06
4.49963e+06
4.49965e+06
4.49965e+06
4.49966e+06
4.49961e+06
4.4996e+06
4.49959e+06
4.4996e+06
4.49959e+06
4.49955e+06
4.49956e+06
4.49956e+06
4.49958e+06
4.49958e+06
4.49963e+06
4.49962e+06
4.49964e+06
4.49964e+06
4.49965e+06
4.49965e+06
4.49965e+06
4.4996e+06
4.49958e+06
4.49957e+06
4.49958e+06
4.49957e+06
4.49954e+06
4.49954e+06
4.49954e+06
4.49957e+06
4.49957e+06
4.49961e+06
4.49961e+06
4.49963e+06
4.49963e+06
4.49964e+06
4.49965e+06
4.49965e+06
4.49967e+06
4.49966e+06
4.49965e+06
4.49966e+06
4.49965e+06
4.49962e+06
4.49961e+06
4.49962e+06
4.49962e+06
4.49962e+06
4.49964e+06
4.49963e+06
4.49964e+06
4.49964e+06
4.49965e+06
4.49965e+06
4.49965e+06
4.49966e+06
4.49963e+06
4.49963e+06
4.49964e+06
4.49963e+06
4.4996e+06
4.4996e+06
4.49961e+06
4.49961e+06
4.49962e+06
4.49963e+06
4.49963e+06
4.49964e+06
4.49964e+06
4.49964e+06
4.49965e+06
4.49965e+06
4.49967e+06
4.49964e+06
4.49963e+06
4.49963e+06
4.49963e+06
4.49963e+06
4.49963e+06
4.49963e+06
4.49964e+06
4.49964e+06
4.49964e+06
4.49964e+06
4.49964e+06
4.49964e+06
4.49964e+06
4.49965e+06
4.49965e+06
4.49966e+06
4.49962e+06
4.49961e+06
4.49961e+06
4.49962e+06
4.49962e+06
4.49962e+06
4.49963e+06
4.49963e+06
4.49963e+06
4.49963e+06
4.49964e+06
4.49964e+06
4.49964e+06
4.49964e+06
4.49964e+06
4.49965e+06
4.49963e+06
4.49964e+06
4.49963e+06
4.49964e+06
4.49964e+06
4.49964e+06
4.49964e+06
4.49964e+06
4.49964e+06
4.49964e+06
4.49964e+06
4.49964e+06
4.49964e+06
4.49964e+06
4.49964e+06
4.49964e+06
4.49964e+06
4.49963e+06
4.49963e+06
4.49962e+06
4.49963e+06
4.49963e+06
4.49963e+06
4.49964e+06
4.49964e+06
4.49964e+06
4.49964e+06
4.49964e+06
4.49964e+06
4.49964e+06
4.49964e+06
4.49964e+06
4.49964e+06
4.49964e+06
4.49963e+06
4.49963e+06
4.49964e+06
4.49964e+06
4.49964e+06
4.49964e+06
4.49964e+06
4.49964e+06
4.49964e+06
4.49964e+06
4.49964e+06
4.49964e+06
4.49964e+06
4.49964e+06
4.49964e+06
4.49964e+06
4.49964e+06
4.49964e+06
4.49964e+06
4.49963e+06
4.49963e+06
4.49963e+06
4.49964e+06
4.49964e+06
4.49964e+06
4.49964e+06
4.49964e+06
4.49964e+06
4.49964e+06
4.49964e+06
4.49964e+06
4.49964e+06
4.49964e+06
4.49964e+06
4.49964e+06
4.49964e+06
4.49964e+06
4.49964e+06
4.49963e+06
4.49963e+06
4.49964e+06
4.49964e+06
4.49964e+06
4.49964e+06
4.49964e+06
4.49964e+06
4.49964e+06
4.49964e+06
4.49964e+06
4.49964e+06
4.49964e+06
4.49964e+06
4.49964e+06
4.49964e+06
4.49964e+06
4.49964e+06
4.49964e+06
4.49963e+06
4.49963e+06
4.49963e+06
4.49964e+06
4.49964e+06
4.49964e+06
4.49964e+06
4.49964e+06
4.49964e+06
4.49964e+06
4.49964e+06
4.49964e+06
4.49963e+06
4.49964e+06
4.49964e+06
4.49964e+06
4.49964e+06
4.49964e+06
4.49964e+06
4.49963e+06
4.49964e+06
4.49964e+06
4.49964e+06
4.49964e+06
4.49964e+06
4.49964e+06
4.49964e+06
4.49964e+06
4.49964e+06
4.49964e+06
4.49964e+06
4.49963e+06
4.49963e+06
4.49963e+06
4.49963e+06
4.49963e+06
4.49963e+06
4.49963e+06
4.49963e+06
4.49963e+06
4.49964e+06
4.49964e+06
4.49964e+06
4.49964e+06
4.49964e+06
4.49964e+06
4.49964e+06
4.49964e+06
4.49964e+06
4.49964e+06
4.49963e+06
4.49963e+06
4.49963e+06
4.49963e+06
4.49963e+06
4.49963e+06
4.49963e+06
4.49963e+06
4.49963e+06
4.49963e+06
4.49964e+06
4.49964e+06
4.49964e+06
4.49964e+06
4.49964e+06
4.49963e+06
4.49963e+06
4.49963e+06
4.49963e+06
4.49963e+06
4.49963e+06
4.49963e+06
4.49963e+06
4.49963e+06
4.49963e+06
4.49963e+06
4.49963e+06
4.49963e+06
4.49963e+06
4.49963e+06
4.49963e+06
4.49963e+06
4.49964e+06
4.49963e+06
4.49963e+06
4.49963e+06
4.49963e+06
4.49963e+06
4.49963e+06
4.49963e+06
4.49963e+06
4.49963e+06
4.49963e+06
4.49963e+06
4.49963e+06
4.49963e+06
4.49963e+06
4.49963e+06
4.49963e+06
4.49963e+06
4.49963e+06
4.49964e+06
4.49963e+06
4.49963e+06
4.49963e+06
4.49963e+06
4.49963e+06
4.49963e+06
4.49963e+06
4.49963e+06
4.49963e+06
4.49963e+06
4.49963e+06
4.49963e+06
4.49963e+06
4.49963e+06
4.49963e+06
4.49963e+06
4.49963e+06
4.49963e+06
4.49963e+06
4.49963e+06
4.49962e+06
4.49962e+06
4.49962e+06
4.49962e+06
4.49962e+06
4.49962e+06
4.49962e+06
4.49962e+06
4.49962e+06
4.49962e+06
4.49962e+06
4.49963e+06
4.49963e+06
4.49963e+06
4.49963e+06
4.49963e+06
4.49963e+06
4.49963e+06
4.49963e+06
4.49962e+06
4.49962e+06
4.49962e+06
4.49962e+06
4.49962e+06
4.49962e+06
4.49962e+06
4.49962e+06
4.49962e+06
4.49962e+06
4.49962e+06
4.49962e+06
4.49962e+06
4.49963e+06
4.49963e+06
4.49963e+06
4.49963e+06
4.49963e+06
4.49963e+06
4.49962e+06
4.49962e+06
4.49962e+06
4.49962e+06
4.49962e+06
4.49962e+06
4.49962e+06
4.49962e+06
4.49962e+06
4.49962e+06
4.49962e+06
4.49962e+06
4.49962e+06
4.49962e+06
4.49962e+06
4.49962e+06
4.49963e+06
4.49963e+06
4.49963e+06
4.49962e+06
4.49962e+06
4.49962e+06
4.49962e+06
4.49962e+06
4.49962e+06
4.49962e+06
4.49962e+06
4.49962e+06
4.49962e+06
4.49962e+06
4.49962e+06
4.49962e+06
4.49962e+06
4.49962e+06
4.49962e+06
4.49962e+06
4.49962e+06
4.49962e+06
4.49962e+06
4.49962e+06
4.49962e+06
4.49962e+06
4.49962e+06
4.49962e+06
4.49962e+06
4.49962e+06
4.49962e+06
4.49962e+06
4.49962e+06
4.49962e+06
4.49961e+06
4.49962e+06
4.49962e+06
4.49962e+06
4.49962e+06
4.49962e+06
4.49962e+06
4.49961e+06
4.49961e+06
4.49961e+06
4.49961e+06
4.49961e+06
4.49961e+06
4.49961e+06
4.49961e+06
4.49961e+06
4.49961e+06
4.49961e+06
4.49961e+06
4.49961e+06
4.49962e+06
4.49962e+06
4.49962e+06
4.49962e+06
4.49962e+06
4.49962e+06
4.49961e+06
4.49961e+06
4.49961e+06
4.49961e+06
4.49961e+06
4.49961e+06
4.49961e+06
4.49961e+06
4.49961e+06
4.49961e+06
4.49961e+06
4.49961e+06
4.49961e+06
4.49961e+06
4.49961e+06
4.49961e+06
4.49961e+06
4.49961e+06
4.49961e+06
4.49961e+06
4.49961e+06
4.49961e+06
4.49961e+06
4.49961e+06
4.49961e+06
4.49961e+06
4.49961e+06
4.49961e+06
4.49961e+06
4.49961e+06
4.49961e+06
4.49961e+06
4.49961e+06
4.49961e+06
4.49961e+06
4.49961e+06
4.49961e+06
4.49961e+06
4.49961e+06
4.49961e+06
4.49961e+06
4.49961e+06
4.49961e+06
4.49961e+06
4.49961e+06
4.49961e+06
4.49961e+06
4.49961e+06
4.49961e+06
4.49961e+06
4.49961e+06
4.49961e+06
4.49961e+06
4.49961e+06
4.49961e+06
4.49961e+06
4.49961e+06
4.49961e+06
4.49961e+06
4.49961e+06
4.49961e+06
4.49961e+06
4.49961e+06
4.49961e+06
4.49961e+06
4.49961e+06
4.49961e+06
4.49961e+06
4.4996e+06
4.4996e+06
4.49961e+06
4.49961e+06
4.49961e+06
4.49961e+06
4.49961e+06
4.49961e+06
4.4996e+06
4.4996e+06
4.4996e+06
4.4996e+06
4.4996e+06
4.4996e+06
4.4996e+06
4.4996e+06
4.4996e+06
4.4996e+06
4.4996e+06
4.4996e+06
4.4996e+06
4.4996e+06
4.4996e+06
4.4996e+06
4.4996e+06
4.4996e+06
4.4996e+06
4.4996e+06
4.4996e+06
4.4996e+06
4.4996e+06
4.4996e+06
4.4996e+06
4.4996e+06
4.4996e+06
4.4996e+06
4.4996e+06
4.4996e+06
4.4996e+06
4.4996e+06
4.4996e+06
4.4996e+06
4.4996e+06
4.4996e+06
4.4996e+06
4.4996e+06
4.4996e+06
4.4996e+06
4.4996e+06
4.4996e+06
4.4996e+06
4.4996e+06
4.4996e+06
4.4996e+06
4.4996e+06
4.4996e+06
4.4996e+06
4.4996e+06
4.4996e+06
4.4996e+06
4.4996e+06
4.4996e+06
4.4996e+06
4.4996e+06
4.4996e+06
4.4996e+06
4.4996e+06
4.4996e+06
4.4996e+06
4.4996e+06
4.4996e+06
4.4996e+06
4.4996e+06
4.4996e+06
4.4996e+06
4.4996e+06
4.4996e+06
4.4996e+06
4.4996e+06
4.4996e+06
4.4996e+06
4.4996e+06
4.4996e+06
4.4996e+06
4.4996e+06
4.4996e+06
4.4996e+06
4.4996e+06
4.4996e+06
4.4996e+06
4.4996e+06
4.4996e+06
4.4996e+06
4.4996e+06
4.4996e+06
4.49959e+06
4.49959e+06
4.49959e+06
4.4996e+06
4.4996e+06
4.4996e+06
4.4996e+06
4.4996e+06
4.4996e+06
4.49959e+06
4.49959e+06
4.49959e+06
4.49959e+06
4.49959e+06
4.49959e+06
4.49959e+06
4.49959e+06
4.49959e+06
4.49959e+06
4.49959e+06
4.49959e+06
4.49959e+06
4.49959e+06
4.49959e+06
4.49959e+06
4.49959e+06
4.49959e+06
4.49959e+06
4.49959e+06
4.49959e+06
4.49959e+06
4.49959e+06
4.49959e+06
4.49959e+06
4.49959e+06
4.49959e+06
4.49959e+06
4.49959e+06
4.49959e+06
4.49959e+06
4.49959e+06
4.49959e+06
4.49959e+06
4.49959e+06
4.49959e+06
4.49959e+06
4.49959e+06
4.49959e+06
4.49959e+06
4.49959e+06
4.49959e+06
4.49959e+06
4.49959e+06
4.49959e+06
4.49959e+06
4.49959e+06
4.49959e+06
4.49959e+06
4.49959e+06
4.49959e+06
4.49959e+06
4.49959e+06
4.49959e+06
4.49959e+06
4.49959e+06
4.49959e+06
4.49959e+06
4.49959e+06
4.49959e+06
4.49959e+06
4.49959e+06
4.49959e+06
4.49959e+06
4.49959e+06
4.49959e+06
4.49959e+06
4.49958e+06
4.49958e+06
4.49958e+06
4.49959e+06
4.49959e+06
4.49959e+06
4.49959e+06
4.49959e+06
4.49959e+06
4.49959e+06
4.49959e+06
4.49959e+06
4.49958e+06
4.49959e+06
4.49959e+06
4.49959e+06
4.49959e+06
4.49959e+06
4.49959e+06
4.49959e+06
4.49959e+06
4.49959e+06
4.49959e+06
4.49958e+06
4.49958e+06
4.49958e+06
4.49958e+06
4.49958e+06
4.49959e+06
4.49958e+06
4.49958e+06
4.49958e+06
4.49958e+06
4.49958e+06
4.49958e+06
4.49958e+06
4.49958e+06
4.49958e+06
3.49761e+06
3.49754e+06
3.49733e+06
3.49743e+06
3.49779e+06
3.49792e+06
3.49816e+06
3.49834e+06
3.49832e+06
3.49755e+06
3.49718e+06
3.49771e+06
3.49809e+06
3.4979e+06
3.49791e+06
3.49802e+06
3.49805e+06
3.49813e+06
3.49831e+06
3.49844e+06
3.49855e+06
3.49857e+06
3.49863e+06
3.49848e+06
3.49752e+06
3.49699e+06
3.49743e+06
3.4978e+06
3.49783e+06
3.49802e+06
3.49811e+06
3.49808e+06
3.49815e+06
3.49822e+06
3.49833e+06
3.49845e+06
3.49849e+06
3.49857e+06
3.4983e+06
3.49734e+06
3.49684e+06
3.49726e+06
3.49758e+06
3.49775e+06
3.49797e+06
3.49798e+06
3.49798e+06
3.49803e+06
3.49811e+06
3.49822e+06
3.49837e+06
3.49841e+06
3.49851e+06
3.49823e+06
3.49729e+06
3.49683e+06
3.49724e+06
3.49751e+06
3.49768e+06
3.4979e+06
3.4979e+06
3.49793e+06
3.49796e+06
3.49803e+06
3.49814e+06
3.49828e+06
3.49833e+06
3.49843e+06
3.49762e+06
3.4973e+06
3.49684e+06
3.49711e+06
3.49739e+06
3.49759e+06
3.49781e+06
3.49778e+06
3.49781e+06
3.49785e+06
3.49793e+06
3.49805e+06
3.49819e+06
3.49825e+06
3.49836e+06
3.49751e+06
3.49717e+06
3.49683e+06
3.49716e+06
3.49747e+06
3.4976e+06
3.49776e+06
3.49772e+06
3.49771e+06
3.49775e+06
3.49785e+06
3.49797e+06
3.49812e+06
3.49818e+06
3.49829e+06
3.49705e+06
3.49696e+06
3.49671e+06
3.49691e+06
3.49723e+06
3.49735e+06
3.49754e+06
3.49755e+06
3.49756e+06
3.49762e+06
3.49774e+06
3.49786e+06
3.49801e+06
3.49808e+06
3.49819e+06
3.49693e+06
3.4969e+06
3.49685e+06
3.49702e+06
3.49732e+06
3.49728e+06
3.49726e+06
3.49737e+06
3.49741e+06
3.4975e+06
3.49767e+06
3.4978e+06
3.49793e+06
3.498e+06
3.4981e+06
3.4975e+06
3.49716e+06
3.497e+06
3.49681e+06
3.49711e+06
3.49754e+06
3.49755e+06
3.49752e+06
3.49748e+06
3.49754e+06
3.4976e+06
3.49767e+06
3.49779e+06
3.49787e+06
3.49797e+06
3.49744e+06
3.49718e+06
3.49729e+06
3.49705e+06
3.49729e+06
3.49755e+06
3.49732e+06
3.49737e+06
3.49735e+06
3.49744e+06
3.49753e+06
3.49761e+06
3.49771e+06
3.49779e+06
3.49788e+06
3.49643e+06
3.49679e+06
3.49708e+06
3.49667e+06
3.49695e+06
3.49717e+06
3.497e+06
3.49711e+06
3.49712e+06
3.49723e+06
3.49736e+06
3.49745e+06
3.49755e+06
3.49765e+06
3.49774e+06
3.49657e+06
3.49687e+06
3.49741e+06
3.49702e+06
3.4971e+06
3.49722e+06
3.49696e+06
3.49707e+06
3.4971e+06
3.49718e+06
3.4973e+06
3.49738e+06
3.49747e+06
3.49755e+06
3.49764e+06
3.49492e+06
3.49671e+06
3.49739e+06
3.49657e+06
3.4965e+06
3.49708e+06
3.49674e+06
3.49688e+06
3.49683e+06
3.49693e+06
3.49703e+06
3.49715e+06
3.49727e+06
3.49738e+06
3.49747e+06
3.4953e+06
3.49684e+06
3.49767e+06
3.4967e+06
3.49645e+06
3.49703e+06
3.49673e+06
3.49687e+06
3.49687e+06
3.49692e+06
3.49699e+06
3.49708e+06
3.49716e+06
3.49725e+06
3.49733e+06
3.49364e+06
3.49618e+06
3.49673e+06
3.49653e+06
3.49637e+06
3.49633e+06
3.49624e+06
3.49633e+06
3.49637e+06
3.49648e+06
3.49661e+06
3.49671e+06
3.49683e+06
3.49697e+06
3.49709e+06
3.49393e+06
3.4964e+06
3.49726e+06
3.49693e+06
3.49679e+06
3.49668e+06
3.49658e+06
3.49659e+06
3.49657e+06
3.4966e+06
3.4967e+06
3.49676e+06
3.49683e+06
3.49692e+06
3.49698e+06
3.49675e+06
3.49634e+06
3.49631e+06
3.49578e+06
3.49556e+06
3.49554e+06
3.4955e+06
3.49561e+06
3.49568e+06
3.4958e+06
3.49604e+06
3.49616e+06
3.49635e+06
3.49653e+06
3.49662e+06
3.4975e+06
3.49686e+06
3.49732e+06
3.4969e+06
3.49667e+06
3.49649e+06
3.49632e+06
3.49627e+06
3.4962e+06
3.49615e+06
3.4963e+06
3.49632e+06
3.49642e+06
3.49651e+06
3.4965e+06
3.49397e+06
3.49361e+06
3.49464e+06
3.49438e+06
3.49426e+06
3.49423e+06
3.49434e+06
3.49449e+06
3.49465e+06
3.49481e+06
3.49518e+06
3.49534e+06
3.4956e+06
3.49583e+06
3.49594e+06
3.49586e+06
3.49606e+06
3.49726e+06
3.49663e+06
3.49636e+06
3.49607e+06
3.4959e+06
3.49577e+06
3.4957e+06
3.49558e+06
3.49573e+06
3.49566e+06
3.49572e+06
3.49579e+06
3.49578e+06
3.49151e+06
3.49313e+06
3.49254e+06
3.49144e+06
3.49147e+06
3.49172e+06
3.4921e+06
3.49239e+06
3.49282e+06
3.49312e+06
3.49369e+06
3.49398e+06
3.49436e+06
3.49468e+06
3.49488e+06
3.49538e+06
3.49762e+06
3.49724e+06
3.49576e+06
3.49551e+06
3.49524e+06
3.49522e+06
3.495e+06
3.495e+06
3.49476e+06
3.4949e+06
3.49474e+06
3.49477e+06
3.49479e+06
3.4948e+06
3.48562e+06
3.48593e+06
3.48695e+06
3.48608e+06
3.48618e+06
3.48703e+06
3.48771e+06
3.48837e+06
3.48938e+06
3.48994e+06
3.49096e+06
3.49155e+06
3.49228e+06
3.49282e+06
3.49329e+06
3.49258e+06
3.49216e+06
3.4945e+06
3.49384e+06
3.49404e+06
3.49422e+06
3.49442e+06
3.49404e+06
3.49415e+06
3.49366e+06
3.49371e+06
3.49338e+06
3.49342e+06
3.49338e+06
3.49348e+06
3.46789e+06
3.47348e+06
3.47503e+06
3.47462e+06
3.47648e+06
3.47755e+06
3.47982e+06
3.48114e+06
3.48325e+06
3.48446e+06
3.48627e+06
3.48742e+06
3.48881e+06
3.48979e+06
3.49081e+06
3.48143e+06
3.48499e+06
3.48812e+06
3.48874e+06
3.49124e+06
3.49125e+06
3.49257e+06
3.49206e+06
3.4926e+06
3.49191e+06
3.49208e+06
3.49151e+06
3.49166e+06
3.44959e+06
3.44908e+06
3.45016e+06
3.45295e+06
3.45813e+06
3.46003e+06
3.46505e+06
3.46759e+06
3.47203e+06
3.47449e+06
3.47821e+06
3.4804e+06
3.48337e+06
3.47264e+06
3.46867e+06
3.47417e+06
3.47954e+06
3.4843e+06
3.48571e+06
3.48889e+06
3.48874e+06
3.49071e+06
3.4895e+06
3.49038e+06
3.48907e+06
3.48968e+06
3.34311e+06
3.37923e+06
3.39504e+06
3.40602e+06
3.41636e+06
3.42348e+06
3.43495e+06
3.4402e+06
3.45093e+06
3.45549e+06
3.46406e+06
3.46792e+06
3.47443e+06
3.36075e+06
3.44444e+06
3.43812e+06
3.46551e+06
3.46421e+06
3.47919e+06
3.48306e+06
3.48498e+06
3.49096e+06
3.48756e+06
3.49098e+06
3.48665e+06
3.48856e+06
3.10203e+06
3.24614e+06
3.2168e+06
3.29909e+06
3.30071e+06
3.34545e+06
3.36797e+06
3.38176e+06
3.41274e+06
3.41877e+06
3.44133e+06
3.44576e+06
3.4607e+06
3.46539e+06
3.6734e+06
3.30478e+06
3.4533e+06
3.38251e+06
3.45326e+06
3.45574e+06
3.46904e+06
3.49218e+06
3.48142e+06
3.49711e+06
3.48104e+06
3.48929e+06
2.65711e+06
2.72688e+06
2.89258e+06
3.13838e+06
3.0395e+06
3.22031e+06
3.25277e+06
3.28218e+06
3.35812e+06
3.34291e+06
3.41605e+06
3.40677e+06
3.44506e+06
3.21815e+06
3.0839e+06
3.04649e+06
3.33649e+06
3.36755e+06
3.43932e+06
3.47762e+06
3.35266e+06
3.58278e+06
3.53269e+06
3.55792e+06
3.45905e+06
3.49519e+06
3.99918e+06
4.00082e+06
1.93448e+06
2.43282e+06
2.54923e+06
2.71394e+06
3.04881e+06
3.14524e+06
3.19858e+06
3.00543e+06
3.34694e+06
3.27836e+06
3.42419e+06
4.0009e+06
4.00073e+06
4.00049e+06
4.00021e+06
4.00066e+06
3.89994e+06
3.77566e+06
2.27517e+06
3.96136e+06
3.99942e+06
3.93577e+06
3.32334e+06
3.53662e+06
4.00095e+06
4.00079e+06
4.00065e+06
4.00055e+06
4.00051e+06
4.00048e+06
4.00048e+06
4.00056e+06
4.00067e+06
4.00074e+06
4.00096e+06
4.00084e+06
4.00079e+06
4.00076e+06
4.00073e+06
4.00075e+06
4.00078e+06
4.00084e+06
4.00098e+06
4.00111e+06
4.00098e+06
4.00088e+06
4.00081e+06
4.00076e+06
4.00076e+06
4.00078e+06
4.00083e+06
4.00091e+06
4.00101e+06
4.00114e+06
4.00101e+06
4.00092e+06
4.00087e+06
4.00085e+06
4.00084e+06
4.00086e+06
4.00091e+06
4.001e+06
4.00112e+06
4.02319e+06
4.04514e+06
4.04159e+06
4.03918e+06
4.03782e+06
4.04e+06
4.04647e+06
4.0573e+06
4.07066e+06
4.08211e+06
4.08536e+06
4.1696e+06
4.17077e+06
4.17003e+06
4.17017e+06
4.1691e+06
4.16852e+06
4.16749e+06
4.1671e+06
4.16616e+06
4.16742e+06
4.22595e+06
4.2314e+06
4.23111e+06
4.23419e+06
4.23473e+06
4.2348e+06
4.23406e+06
4.23151e+06
4.22998e+06
4.22739e+06
4.34381e+06
4.35453e+06
4.35446e+06
4.3573e+06
4.35527e+06
4.35136e+06
4.34494e+06
4.33627e+06
4.32838e+06
4.32186e+06
4.35553e+06
4.40101e+06
4.41766e+06
4.4343e+06
4.43678e+06
4.43115e+06
4.41879e+06
4.39364e+06
4.37107e+06
4.33833e+06
4.45578e+06
4.50828e+06
4.55393e+06
4.56897e+06
4.56984e+06
4.55993e+06
4.54241e+06
4.51291e+06
4.4804e+06
4.40474e+06
4.48847e+06
4.49817e+06
4.50091e+06
4.50065e+06
4.50051e+06
4.50025e+06
4.5e+06
4.4995e+06
4.50003e+06
4.48957e+06
4.49858e+06
4.49828e+06
4.49799e+06
4.49789e+06
4.49783e+06
4.4979e+06
4.49805e+06
4.49823e+06
4.49845e+06
4.49867e+06
4.49853e+06
4.49911e+06
4.4993e+06
4.49932e+06
4.49927e+06
4.49907e+06
4.49898e+06
4.49855e+06
4.49857e+06
4.49766e+06
4.4985e+06
4.49843e+06
4.49836e+06
4.4983e+06
4.49826e+06
4.49826e+06
4.49824e+06
4.49825e+06
4.49829e+06
4.49833e+06
4.49898e+06
4.49904e+06
4.49899e+06
4.49893e+06
4.49886e+06
4.49862e+06
4.49838e+06
4.49815e+06
4.49818e+06
4.49808e+06
4.49867e+06
4.49866e+06
4.49857e+06
4.4985e+06
4.49847e+06
4.49829e+06
4.49804e+06
4.49793e+06
4.49796e+06
4.49797e+06
4.4989e+06
4.49895e+06
4.49887e+06
4.49877e+06
4.49871e+06
4.49852e+06
4.49823e+06
4.49809e+06
4.4981e+06
4.49809e+06
4.49874e+06
4.49874e+06
4.49865e+06
4.49855e+06
4.49848e+06
4.49833e+06
4.49812e+06
4.49803e+06
4.49805e+06
4.49806e+06
4.49892e+06
4.49899e+06
4.49895e+06
4.49864e+06
4.49824e+06
4.49813e+06
4.49812e+06
4.4981e+06
4.4981e+06
4.4981e+06
4.49886e+06
4.49888e+06
4.49883e+06
4.4985e+06
4.49809e+06
4.498e+06
4.49806e+06
4.49806e+06
4.49808e+06
4.49808e+06
4.49893e+06
4.49899e+06
4.49893e+06
4.49859e+06
4.49817e+06
4.49808e+06
4.49811e+06
4.49812e+06
4.49812e+06
4.49812e+06
4.49888e+06
4.49891e+06
4.49888e+06
4.49854e+06
4.49813e+06
4.49805e+06
4.49808e+06
4.49809e+06
4.4981e+06
4.4981e+06
4.49843e+06
4.49859e+06
4.49885e+06
4.49861e+06
4.49817e+06
4.49808e+06
4.49813e+06
4.49813e+06
4.49814e+06
4.49814e+06
4.49831e+06
4.49839e+06
4.49868e+06
4.49853e+06
4.49812e+06
4.49806e+06
4.49811e+06
4.49812e+06
4.49813e+06
4.49814e+06
4.4982e+06
4.4982e+06
4.4982e+06
4.49816e+06
4.49817e+06
4.49816e+06
4.49816e+06
4.49817e+06
4.49817e+06
4.49817e+06
4.49814e+06
4.49809e+06
4.49808e+06
4.4981e+06
4.49815e+06
4.49816e+06
4.49817e+06
4.49818e+06
4.49818e+06
4.49819e+06
4.49817e+06
4.49815e+06
4.49816e+06