/*--------------------------------*- C++ -*----------------------------------*\
| =========                 |                                                 |
| \\      /  F ield         | OpenFOAM: The Open Source CFD Toolbox           |
|  \\    /   O peration     | Version:  v2012                                 |
|   \\  /    A nd           | Website:  www.openfoam.com                      |
|    \\/     M anipulation  |                                                 |
\*---------------------------------------------------------------------------*/
FoamFile
{
    version     2.0;
    format      ascii;
    class       surfaceScalarField;
    location    "0.7";
    object      alphaPhi0.water;
}
// * * * * * * * * * * * * * * * * * * * * * * * * * * * * * * * * * * * * * //

dimensions      [0 3 -1 0 0 0 0];
oriented        oriented;


internalField   nonuniform List<scalar> 
8162
(
-1.3859e-45
-2.92693e-35
-8.1136e-43
-2.01236e-53
-1.39562e-44
-3.56246e-52
-1.10153e-59
-1.82854e-52
-4.28407e-60
-2.39926e-66
-9.10995e-59
-1.99444e-66
-1.61368e-80
-1.84144e-65
-3.74292e-73
-8.49508e-86
-1.10843e-79
-2.9112e-87
-5.36936e-89
-5.45141e-85
-1.31452e-92
-8.58144e-93
-3.16489e-88
-7.39465e-96
-6.51781e-96
-4.70533e-92
-8.67061e-100
-2.004e-99
-3.25371e-95
-4.41701e-103
-3.00462e-104
-9.08432e-99
-1.58785e-106
-3.98771e-108
-1.3542e-103
-2.2279e-111
-3.57069e-113
-1.82429e-107
-2.55238e-115
-1.02372e-118
-1.18045e-112
-2.15307e-120
-7.92635e-125
-3.75224e-118
-5.70211e-126
-1.57683e-133
-2.20952e-124
-3.24506e-132
-4.85782e-144
-3.98636e-133
-1.20555e-140
-1.57108e-157
-1.29604e-143
-2.11327e-151
-1.43819e-167
-3.41631e-157
-6.32828e-165
-2.53222e-167
-5.29399e-175
-3.82996e-29
-2.33465e-20
-8.44013e-28
-3.50515e-36
-4.44946e-28
-1.37388e-35
-1.84485e-45
-3.53981e-35
-1.01917e-42
-2.65339e-53
-1.68033e-44
-4.4307e-52
-1.43968e-59
-2.20274e-52
-5.30501e-60
-3.22416e-66
-1.09416e-58
-2.46136e-66
-2.35051e-80
-2.29194e-65
-4.76967e-73
-1.10579e-85
-1.40897e-79
-4.30864e-87
-6.93002e-89
-6.64432e-85
-1.63843e-92
-1.13129e-92
-3.84303e-88
-9.14671e-96
-8.38017e-96
-5.85699e-92
-1.09698e-99
-2.49904e-99
-3.95456e-95
-5.7391e-103
-4.71977e-104
-1.06526e-98
-1.89843e-106
-7.7152e-108
-2.04935e-103
-3.42693e-111
-4.32895e-113
-3.24699e-107
-4.7773e-115
-1.99649e-118
-1.34978e-112
-2.52802e-120
-1.13818e-124
-6.67223e-118
-1.09349e-125
-2.61827e-133
-2.89746e-124
-4.56115e-132
-1.4108e-143
-5.92815e-133
-1.87707e-140
-2.94717e-157
-3.13408e-143
-5.99279e-151
-3.33287e-167
-6.22952e-157
-1.15443e-164
-5.75771e-167
-1.19169e-174
2.4117e-11
-7.50835e-09
3.75961e-15
1.00746e-10
-2.38557e-08
2.55214e-15
-1.7564e-09
-4.08028e-08
2.95695e-15
-5.80651e-09
-3.36464e-08
3.28467e-16
-9.19952e-09
-3.98127e-08
-1.56834e-14
-1.19257e-08
-6.66985e-08
-9.80272e-15
-1.24217e-08
-1.04022e-07
2.09095e-14
-1.02633e-08
-1.37212e-07
-1.65084e-14
-6.56261e-09
-1.47246e-07
-1.94406e-14
-1.31474e-07
-8.39001e-15
-1.1e-09
-6.58564e-08
-5.56672e-15
-5.41418e-11
-1.84518e-08
-1.09553e-15
-5.32099e-15
-8.17506e-10
-4.12611e-17
-4.72922e-18
-9.20558e-14
-3.73879e-21
-2.4657e-21
-6.22802e-17
-2.55061e-24
-5.74643e-29
-2.7932e-20
-1.0223e-27
-4.72694e-36
-6.15502e-28
-1.89114e-35
-2.45883e-45
-4.33303e-35
-1.2755e-42
-3.5194e-53
-2.04978e-44
-5.52142e-52
-1.88787e-59
-2.69602e-52
-6.63781e-60
-4.36358e-66
-1.32967e-58
-3.07469e-66
-2.72108e-80
-2.89297e-65
-6.18624e-73
-1.45244e-85
-1.75017e-79
-4.93796e-87
-9.03697e-89
-8.21569e-85
-2.07955e-92
-1.50663e-92
-4.7372e-88
-1.15097e-95
-1.08389e-95
-7.3957e-92
-1.40932e-99
-3.07951e-99
-4.85593e-95
-7.56276e-103
-7.62816e-104
-1.23946e-98
-2.25949e-106
-1.37211e-107
-3.17869e-103
-5.4047e-111
-5.18054e-113
-5.32168e-107
-8.24875e-115
-3.48322e-118
-1.5353e-112
-2.93414e-120
-1.50814e-124
-1.06503e-117
-1.87183e-125
-3.85606e-133
-3.5575e-124
-5.91931e-132
-3.01656e-143
-7.96773e-133
-2.63655e-140
-5.58865e-157
-5.67496e-143
-1.2533e-150
-7.86841e-167
-1.14883e-156
-2.13626e-164
-1.33567e-166
-2.74518e-174
1.91455e-11
-7.52751e-09
4.71337e-15
9.8866e-12
-2.38464e-08
-5.15542e-16
-2.19355e-09
-3.85993e-08
-1.02661e-14
-6.39296e-09
-2.9447e-08
2.41048e-15
-1.0332e-08
-3.58736e-08
-4.58232e-15
-1.37365e-08
-6.32941e-08
4.23314e-15
-1.45296e-08
-1.03229e-07
7.02796e-15
-1.20712e-08
-1.39669e-07
-2.41227e-14
-7.79471e-09
-1.51503e-07
-1.06315e-14
-3.27636e-09
-1.35968e-07
-2.57317e-14
-4.79121e-12
-9.92353e-08
-4.39649e-14
-1.55152e-09
-7.12298e-08
8.28921e-16
-1.36622e-09
-6.55018e-08
-6.31456e-15
-7.2291e-11
-1.95616e-08
-1.20149e-15
-9.15584e-15
-9.23372e-10
-5.09193e-17
-6.44374e-18
-1.40739e-13
-6.16794e-21
-3.26909e-21
-7.60431e-17
-3.33061e-24
-9.08929e-29
-3.34819e-20
-1.28e-27
-6.35908e-36
-9.10069e-28
-2.89935e-35
-3.27979e-45
-5.35997e-35
-1.68104e-42
-4.69366e-53
-2.52991e-44
-7.20321e-52
-2.48251e-59
-3.34874e-52
-8.61589e-60
-5.94116e-66
-1.63332e-58
-3.92318e-66
-3.84346e-80
-3.69774e-65
-8.15074e-73
-1.92429e-85
-2.23174e-79
-6.61115e-87
-1.19038e-88
-1.02996e-84
-2.67014e-92
-2.0265e-92
-5.92553e-88
-1.46609e-95
-1.41207e-95
-9.46976e-92
-1.83214e-99
-3.75655e-99
-6.0316e-95
-1.0084e-102
-1.24822e-103
-1.43343e-98
-2.65155e-106
-2.25478e-107
-4.97481e-103
-8.64468e-111
-6.21372e-113
-8.10261e-107
-1.31946e-114
-5.50711e-118
-1.76896e-112
-3.4189e-120
-1.9056e-124
-1.5525e-117
-2.90013e-125
-5.30013e-133
-4.23444e-124
-7.32595e-132
-5.26008e-143
-1.02428e-132
-3.49495e-140
-1.06954e-156
-8.81872e-143
-2.13998e-150
-1.89068e-166
-2.14187e-156
-3.99731e-164
-3.15805e-166
-6.45224e-174
1.40991e-11
-7.54161e-09
3.17475e-15
-7.15132e-11
-2.37608e-08
-1.21104e-15
-2.35704e-09
-3.63138e-08
-1.94766e-14
-6.34785e-09
-2.54561e-08
4.33094e-15
-1.04676e-08
-3.17538e-08
1.91088e-15
-1.4182e-08
-5.95797e-08
-1.55708e-15
-1.50716e-08
-1.02339e-07
-1.2878e-14
-1.24058e-08
-1.42334e-07
-1.61217e-14
-7.91563e-09
-1.55972e-07
-9.13688e-15
-3.34652e-09
-1.40511e-07
-2.36937e-14
-3.53609e-10
-1.02215e-07
-3.22848e-14
-1.87882e-09
-6.96665e-08
-3.97641e-15
-1.61364e-09
-6.50396e-08
-6.39769e-15
-9.24574e-11
-2.06177e-08
-1.3273e-15
-1.53292e-14
-1.03483e-09
-5.73316e-17
-8.58061e-18
-2.14436e-13
-9.301e-21
-4.26478e-21
-9.25523e-17
-4.27217e-24
-1.50539e-28
-4.01529e-20
-1.5947e-27
-8.5305e-36
-1.42233e-27
-4.58624e-35
-4.37597e-45
-6.68886e-35
-2.16111e-42
-6.29027e-53
-3.15445e-44
-9.2279e-52
-3.2717e-59
-4.21548e-52
-1.11283e-59
-8.12792e-66
-2.02566e-58
-5.00094e-66
-5.00976e-80
-4.77835e-65
-1.08104e-72
-2.57022e-85
-2.85298e-79
-8.59976e-87
-1.58334e-88
-1.30813e-84
-3.47321e-92
-2.75199e-92
-7.51705e-88
-1.89305e-95
-1.85545e-95
-1.22893e-91
-2.41143e-99
-4.54586e-99
-7.58812e-95
-1.35821e-102
-2.03983e-103
-1.65143e-98
-3.08198e-106
-3.45719e-107
-7.75965e-103
-1.38208e-110
-7.65892e-113
-1.15854e-106
-1.97192e-114
-8.0294e-118
-2.12975e-112
-4.09888e-120
-2.39153e-124
-2.10486e-117
-4.13981e-125
-7.26622e-133
-5.12669e-124
-8.99951e-132
-8.56476e-143
-1.36565e-132
-4.64941e-140
-2.06506e-156
-1.37689e-142
-3.41255e-150
-4.61964e-166
-4.04269e-156
-7.55122e-164
-1.31964e-173
-7.60226e-166
-1.54161e-173
-1.60492e-173
-4.10233e-181
9.79232e-12
-7.5514e-09
1.1047e-18
-1.17935e-10
-2.36331e-08
-2.46006e-16
-2.10855e-09
-3.43232e-08
-2.41319e-14
-5.32114e-09
-2.22435e-08
-7.22431e-15
-8.94205e-09
-2.81328e-08
1.44899e-14
-1.23817e-08
-5.61402e-08
3.42963e-16
-1.30575e-08
-1.01663e-07
-1.12633e-14
-1.04142e-08
-1.4498e-07
-4.36086e-15
-6.31234e-09
-1.60052e-07
-9.51987e-16
-2.41051e-09
-1.44384e-07
-1.91612e-14
-3.0941e-10
-1.04301e-07
-1.61394e-14
-2.05982e-09
-6.78844e-08
6.42861e-15
-1.82513e-09
-6.44017e-08
-4.27284e-15
-1.13815e-10
-2.15772e-08
-1.45074e-15
-2.49982e-14
-1.149e-09
-6.71412e-17
-1.11775e-17
-3.24654e-13
-1.5064e-20
-5.47846e-21
-1.12071e-16
-5.46718e-24
-2.57808e-28
-4.81043e-20
-2.01802e-27
-1.14054e-35
-2.31338e-27
-7.59409e-35
-5.8364e-45
-8.40617e-35
-2.78893e-42
-8.46508e-53
-3.96699e-44
-1.19211e-51
-4.31867e-59
-5.3699e-52
-1.45846e-59
-1.11592e-65
-2.5334e-58
-6.44939e-66
-6.13138e-80
-6.23208e-65
-1.45153e-72
-3.45909e-85
-3.60469e-79
-1.14801e-86
-2.12571e-88
-1.68175e-84
-4.57348e-92
-3.77158e-92
-9.66461e-88
-2.47475e-95
-2.46268e-95
-1.61534e-91
-3.20819e-99
-5.47325e-99
-9.68195e-95
-1.84394e-102
-3.2966e-103
-1.90151e-98
-3.54835e-106
-4.99594e-107
-1.19635e-102
-2.17763e-110
-1.0132e-112
-1.57082e-106
-2.78037e-114
-1.09894e-117
-2.82747e-112
-5.28359e-120
-3.19028e-124
-2.70213e-117
-5.54597e-125
-1.1102e-132
-6.90681e-124
-1.17456e-131
-1.54813e-142
-2.18695e-132
-6.89969e-140
-4.02849e-156
-2.66803e-142
-6.04388e-150
-1.14661e-165
-7.75041e-156
-1.44324e-163
-5.35192e-173
-1.8609e-165
-3.74976e-173
-6.45336e-173
-1.62464e-180
6.71419e-12
-7.55811e-09
8.55966e-17
-1.12369e-10
-2.3514e-08
9.19301e-16
-1.44151e-09
-3.29941e-08
-3.50169e-14
-3.20499e-09
-2.04801e-08
-5.31596e-15
-5.46789e-09
-2.58698e-08
2.86657e-15
-7.92013e-09
-5.36879e-08
-1.2094e-14
-7.96499e-09
-1.01619e-07
-4.08628e-15
-5.66236e-09
-1.47281e-07
-2.7445e-15
-2.68582e-09
-1.63006e-07
-1.55352e-15
-2.91325e-10
-1.46748e-07
-1.39439e-14
2.65508e-10
-1.04842e-07
8.90052e-15
-2.03621e-09
-6.55553e-08
1.46199e-14
-1.98344e-09
-6.34484e-08
-3.07656e-15
-1.35313e-10
-2.23791e-08
-1.51889e-15
-3.97304e-14
-1.26163e-09
-7.46484e-17
-1.42566e-17
-4.86907e-13
-2.31291e-20
-6.93454e-21
-1.3477e-16
-6.87426e-24
-4.49872e-28
-5.74913e-20
-2.56404e-27
-1.51918e-35
-3.85251e-27
-1.31975e-34
-7.77661e-45
-1.06207e-34
-3.67895e-42
-1.14305e-52
-5.02358e-44
-1.55499e-51
-5.70629e-59
-6.91113e-52
-1.91687e-59
-1.53569e-65
-3.19109e-58
-8.26964e-66
-9.80636e-80
-8.18949e-65
-1.93865e-72
-4.68802e-85
-4.81077e-79
-1.53732e-86
-2.87914e-88
-2.18654e-84
-6.05079e-92
-5.21392e-92
-1.25833e-87
-3.26257e-95
-3.3068e-95
-2.14899e-91
-4.30476e-99
-6.58643e-99
-1.25467e-94
-2.51954e-102
-5.23746e-103
-2.19978e-98
-4.06188e-106
-6.86342e-107
-1.81467e-102
-3.36249e-110
-1.53493e-112
-2.03571e-106
-3.72927e-114
-1.43835e-117
-4.43964e-112
-7.81712e-120
-5.13175e-124
-3.34911e-117
-7.1046e-125
-2.23658e-132
-1.20859e-123
-1.84894e-131
-3.73977e-142
-4.97391e-132
-1.33494e-139
-7.96714e-156
-7.28525e-142
-1.43123e-149
-2.88756e-165
-1.5162e-155
-2.79904e-163
-2.19695e-172
-4.62518e-165
-9.26422e-173
-2.32542e-190
-2.62902e-172
-6.53293e-180
1.80019e-191
-1.08051e-201
4.73098e-12
-7.56282e-09
-6.11693e-15
-6.44967e-11
-2.34448e-08
-3.7044e-16
-5.81197e-10
-3.24774e-08
-3.21161e-14
-4.58669e-10
-2.06026e-08
-8.10251e-15
-7.3445e-10
-2.5594e-08
-1.33162e-14
-1.51634e-09
-5.2906e-08
-2.90659e-14
-4.4776e-10
-1.02687e-07
-2.22553e-14
1.27651e-09
-1.49006e-07
-2.68991e-15
2.49921e-09
-1.64202e-07
-3.57905e-15
2.69717e-09
-1.46915e-07
-1.22144e-14
1.24692e-09
-1.03379e-07
3.48024e-15
-1.82374e-09
-6.24596e-08
1.81988e-14
-2.07936e-09
-6.20368e-08
-2.48132e-15
-1.5591e-10
-2.2953e-08
-1.57771e-15
-6.15773e-14
-1.36762e-09
-8.24899e-17
-1.78251e-17
-7.21207e-13
-3.55881e-20
-8.65612e-21
-1.60703e-16
-8.31784e-24
-7.89008e-28
-6.84588e-20
-3.16023e-27
-2.01513e-35
-6.47475e-27
-2.24268e-34
-1.03458e-44
-1.34682e-34
-4.72912e-42
-1.54747e-52
-6.39592e-44
-2.01662e-51
-7.54276e-59
-8.97212e-52
-2.54616e-59
-2.11586e-65
-4.0433e-58
-1.0751e-65
-1.34644e-79
-1.08248e-64
-2.62302e-72
-6.39438e-85
-6.45098e-79
-2.11746e-86
-3.93197e-88
-2.87225e-84
-8.10096e-92
-7.2667e-92
-1.6577e-87
-4.35375e-95
-4.49943e-95
-2.89129e-91
-5.83456e-99
-7.98074e-99
-1.65369e-94
-3.46651e-102
-8.1566e-103
-2.5794e-98
-4.63437e-106
-9.02817e-107
-2.70282e-102
-5.08018e-110
-2.79818e-112
-2.53801e-106
-4.79429e-114
-1.8416e-117
-8.45955e-112
-1.39504e-119
-1.11872e-123
-4.11123e-117
-8.90244e-125
-6.08086e-132
-2.90089e-123
-3.95983e-131
-1.11631e-141
-1.43066e-131
-3.4324e-139
-1.60488e-155
-2.16062e-141
-4.19029e-149
-7.36834e-165
-3.0396e-155
-5.53273e-163
-9.10901e-172
-1.16542e-164
-2.32191e-172
-1.01122e-190
-1.08275e-171
-2.66158e-179
7.0791e-192
-4.59271e-202
3.34152e-12
-7.56615e-09
-9.90056e-16
-1.37439e-11
-2.34277e-08
-3.3032e-16
8.52291e-11
-3.25763e-08
-2.90661e-14
1.84893e-09
-2.23663e-08
-1.68422e-16
3.42529e-09
-2.71703e-08
-3.15513e-14
4.78943e-09
-5.42701e-08
-3.83717e-14
7.41314e-09
-1.05311e-07
-3.79531e-14
8.61545e-09
-1.50209e-07
-1.11108e-15
7.85464e-09
-1.63408e-07
-6.76116e-15
5.62921e-09
-1.44655e-07
-1.57907e-14
2.11232e-09
-9.9849e-08
-1.66443e-15
-1.55553e-09
-5.87674e-08
2.10891e-14
-2.12179e-09
-6.01408e-08
-1.62791e-15
-1.74882e-10
-2.32428e-08
-1.6263e-15
-9.31537e-14
-1.46189e-09
-9.22957e-17
-2.18791e-17
-1.05212e-12
-5.41263e-20
-1.06656e-20
-1.89806e-16
-9.91984e-24
-1.3754e-27
-8.11355e-20
-3.8289e-27
-2.66123e-35
-1.08545e-26
-3.80525e-34
-1.3736e-44
-1.71178e-34
-6.05836e-42
-2.0988e-52
-8.17536e-44
-2.59223e-51
-9.96904e-59
-1.17306e-51
-3.34401e-59
-2.91546e-65
-5.14747e-58
-1.37804e-65
-1.98719e-79
-1.43692e-64
-3.51003e-72
-8.77283e-85
-8.85628e-79
-2.38071e-86
-5.41125e-88
-3.80845e-84
-1.08781e-91
-1.02047e-91
-2.20761e-87
-5.84923e-95
-6.21387e-95
-3.93075e-91
-7.96812e-99
-9.85684e-99
-2.2199e-94
-4.7993e-102
-1.24436e-102
-3.11095e-98
-5.37512e-106
-1.14424e-106
-3.95259e-102
-7.51475e-110
-5.93691e-112
-3.06192e-106
-5.94648e-114
-2.38526e-117
-1.81803e-111
-2.89979e-119
-2.96316e-123
-5.20805e-117
-1.12789e-124
-1.74185e-131
-7.71033e-123
-1.03564e-130
-3.08359e-141
-3.87154e-131
-9.33634e-139
-3.30789e-155
-5.31752e-141
-1.13597e-148
-1.90241e-164
-6.2557e-155
-1.11893e-162
-3.80735e-171
-2.97275e-164
-5.89261e-172
-4.25094e-191
-4.49901e-171
-1.09384e-178
2.65646e-192
-1.91615e-202
1.65807e-12
-7.56779e-09
-2.1954e-15
5.72733e-12
-2.34318e-08
-2.92931e-15
3.35431e-10
-3.2906e-08
-1.9237e-14
2.74319e-09
-2.47742e-08
-1.2352e-14
5.28525e-09
-2.97125e-08
-2.99425e-14
9.01477e-09
-5.79996e-08
-3.74852e-14
1.34198e-08
-1.09716e-07
-3.02609e-14
1.42748e-08
-1.51064e-07
7.5625e-16
1.17395e-08
-1.60832e-07
-1.07469e-14
7.45674e-09
-1.40336e-07
-2.29826e-14
2.3769e-09
-9.47588e-08
1.08066e-14
-1.39916e-09
-5.49671e-08
3.50435e-14
-2.13359e-09
-5.78856e-08
-4.96086e-16
-1.91863e-10
-2.32275e-08
-1.6591e-15
-1.37665e-13
-1.54022e-09
-9.96904e-17
-2.64069e-17
-1.50813e-12
-7.78265e-20
-1.2984e-20
-2.21929e-16
-1.15599e-23
-2.36293e-27
-9.56296e-20
-4.54542e-27
-3.49854e-35
-1.79895e-26
-6.47317e-34
-1.81932e-44
-2.17787e-34
-7.94275e-42
-2.84963e-52
-1.04779e-43
-3.42693e-51
-1.31684e-58
-1.54235e-51
-4.52264e-59
-4.01366e-65
-6.57749e-58
-1.80769e-65
-2.39964e-79
-1.91272e-64
-4.78365e-72
-1.20999e-84
-1.17154e-78
-3.86772e-86
-7.50009e-88
-5.09266e-84
-1.4771e-91
-1.44313e-91
-2.96926e-87
-7.94042e-95
-8.72324e-95
-5.39531e-91
-1.09793e-98
-1.26574e-98
-3.03865e-94
-6.69037e-102
-1.86125e-102
-3.95123e-98
-6.45335e-106
-1.40635e-106
-5.68215e-102
-1.09092e-109
-1.32424e-111
-3.59798e-106
-7.16635e-114
-3.31288e-117
-3.94467e-111
-6.33439e-119
-7.5989e-123
-7.33658e-117
-1.52999e-124
-4.33308e-131
-1.84383e-122
-2.62512e-130
-7.07541e-141
-8.69871e-131
-2.23879e-138
-6.98586e-155
-1.07565e-140
-2.55965e-148
-4.96324e-164
-1.31803e-154
-2.32013e-162
-1.60147e-170
-7.66833e-164
-1.51206e-171
-1.72636e-191
-1.88273e-170
-4.52623e-178
9.48091e-193
-7.75468e-203
-3.34207e-13
-7.56744e-09
-3.07816e-15
-5.29664e-12
-2.34269e-08
-1.76835e-16
2.61417e-10
-3.31727e-08
-1.19267e-14
2.22461e-09
-2.67375e-08
-2.85724e-14
4.97803e-09
-3.24659e-08
-2.61344e-14
1.10726e-08
-6.40941e-08
-2.17158e-14
1.67563e-08
-1.15399e-07
-2.72606e-14
1.71219e-08
-1.51429e-07
1.1158e-15
1.33153e-08
-1.56977e-07
-1.4831e-14
7.75381e-09
-1.34736e-07
-1.99716e-14
1.92098e-09
-8.89278e-08
1.84901e-14
-1.43221e-09
-5.15885e-08
3.06187e-14
-2.13709e-09
-5.55118e-08
-7.37401e-16
-2.06683e-10
-2.29271e-08
-1.75241e-15
-1.98827e-13
-1.59972e-09
-1.1123e-16
-3.13922e-17
-2.12014e-12
-1.17195e-19
-1.56293e-20
-2.56911e-16
-1.3509e-23
-3.97604e-27
-1.12021e-19
-5.38771e-27
-4.5781e-35
-2.92798e-26
-1.05591e-33
-2.40319e-44
-2.77093e-34
-1.0067e-41
-3.87059e-52
-1.34504e-43
-4.40078e-51
-1.73794e-58
-2.03646e-51
-5.9855e-59
-5.51593e-65
-8.42846e-58
-2.33043e-65
-4.0143e-79
-2.54976e-64
-6.43484e-72
-1.67694e-84
-1.64704e-78
-5.33899e-86
-1.04632e-87
-6.86198e-84
-2.01185e-91
-2.05405e-91
-4.0298e-87
-1.08553e-94
-1.24634e-94
-7.47055e-91
-1.52494e-98
-1.74033e-98
-4.24477e-94
-9.39308e-102
-2.73493e-102
-5.46281e-98
-8.31383e-106
-1.69014e-106
-8.04738e-102
-1.55903e-109
-2.84589e-111
-4.15618e-106
-8.46544e-114
-5.42925e-117
-8.04883e-111
-1.33281e-118
-1.68798e-122
-1.28284e-116
-2.44172e-124
-9.0625e-131
-3.73831e-122
-5.75548e-130
-1.45427e-140
-1.64655e-130
-4.57629e-138
-1.51081e-154
-2.05999e-140
-5.16954e-148
-1.30725e-163
-2.82473e-154
-4.91234e-162
-6.76863e-170
-1.99956e-163
-3.91958e-171
-6.82214e-192
-7.92247e-170
-1.88299e-177
3.22911e-193
-1.50514e-201
-2.16407e-12
-7.56527e-09
-9.77414e-16
-2.6991e-11
-2.3402e-08
-9.52502e-16
5.95724e-11
-3.32593e-08
-7.82193e-15
1.16825e-09
-2.78462e-08
-1.90561e-14
4.30484e-09
-3.56026e-08
-1.34057e-14
1.21891e-08
-7.19784e-08
-1.95334e-14
1.79498e-08
-1.2116e-07
-3.4372e-14
1.75099e-08
-1.50989e-07
3.41812e-15
1.29365e-08
-1.52346e-07
-2.27992e-14
6.85371e-09
-1.28616e-07
-5.8493e-15
9.98368e-10
-8.30774e-08
8.71243e-15
-1.61302e-09
-4.89444e-08
1.03925e-14
-2.14292e-09
-5.32392e-08
-1.32356e-15
-2.19169e-10
-2.23846e-08
-1.73905e-15
-2.8063e-13
-1.6388e-09
-1.13854e-16
-3.68235e-17
-2.91912e-12
-1.61e-19
-1.86136e-20
-2.94698e-16
-1.5508e-23
-6.52427e-27
-1.30349e-19
-6.27805e-27
-5.96319e-35
-4.6581e-26
-1.71949e-33
-3.16527e-44
-3.52269e-34
-1.30672e-41
-5.25611e-52
-1.72782e-43
-5.7653e-51
-2.29121e-58
-2.69685e-51
-8.05306e-59
-7.56185e-65
-1.0823e-57
-3.03334e-65
-4.81029e-79
-3.39991e-64
-8.68234e-72
-2.3344e-84
-2.20862e-78
-6.74923e-86
-1.46841e-87
-9.30973e-84
-2.75232e-91
-2.94096e-91
-5.51375e-87
-1.49219e-94
-1.81372e-94
-1.04264e-90
-2.12996e-98
-2.65151e-98
-6.05303e-94
-1.32532e-101
-3.95953e-102
-8.49741e-98
-1.18825e-105
-2.01196e-106
-1.12633e-101
-2.20112e-109
-5.65632e-111
-4.7935e-106
-9.92988e-114
-1.13638e-116
-1.50625e-110
-2.59377e-118
-3.21774e-122
-2.89892e-116
-4.96996e-124
-1.66525e-130
-6.5294e-122
-1.08113e-129
-3.2167e-140
-2.79837e-130
-8.30537e-138
-3.31786e-154
-4.81094e-140
-1.12428e-147
-3.47511e-163
-6.09775e-154
-1.05886e-161
-2.87085e-169
-5.27175e-163
-1.0261e-170
-5.23339e-191
-3.34774e-169
-7.86538e-177
2.08163e-192
-1.22524e-198
-3.53666e-12
-7.56171e-09
-3.80748e-15
-4.11293e-11
-2.33645e-08
1.32455e-15
-1.59375e-10
-3.3141e-08
4.36944e-16
4.21966e-10
-2.84275e-08
-6.27785e-15
4.64557e-09
-3.98263e-08
4.93699e-15
1.30264e-08
-8.03592e-08
-1.93408e-14
1.78085e-08
-1.25942e-07
-3.11414e-14
1.63973e-08
-1.49578e-07
1.28343e-14
1.1454e-08
-1.47335e-07
-1.85111e-14
5.37488e-09
-1.22505e-07
-1.20863e-14
6.39217e-12
-7.77078e-08
9.90907e-16
-1.85125e-09
-4.7044e-08
-2.90257e-15
-2.15106e-09
-5.10554e-08
-3.32277e-15
-2.2911e-10
-2.16835e-08
-1.69096e-15
-3.87054e-13
-1.65697e-09
-1.15316e-16
-4.27189e-17
-3.93306e-12
-2.20456e-19
-2.19418e-20
-3.3554e-16
-1.77517e-23
-1.04099e-26
-1.50599e-19
-7.25299e-27
-7.73208e-35
-7.22036e-26
-2.6898e-33
-4.15659e-44
-4.47199e-34
-1.66817e-41
-7.13197e-52
-2.21945e-43
-7.48462e-51
-3.01722e-58
-3.57795e-51
-1.08023e-58
-1.03353e-64
-1.39194e-57
-3.94496e-65
-8.09778e-79
-4.53031e-64
-1.17019e-71
-3.26304e-84
-3.14072e-78
-1.06316e-85
-2.07198e-87
-1.27095e-83
-3.79589e-91
-4.23373e-91
-7.59941e-87
-2.07071e-94
-2.68859e-94
-1.46565e-90
-3.00164e-98
-4.56901e-98
-8.80746e-94
-1.88295e-101
-5.67089e-102
-1.50035e-97
-1.94965e-105
-2.42866e-106
-1.56466e-101
-3.07565e-109
-1.03066e-110
-5.68845e-106
-1.18459e-113
-2.84797e-116
-2.58488e-110
-4.6297e-118
-5.41902e-122
-7.41074e-116
-1.21606e-123
-2.89627e-130
-1.02017e-121
-1.79253e-129
-9.82884e-140
-4.66776e-130
-1.43693e-137
-7.37179e-154
-1.75135e-139
-3.37968e-147
-9.32735e-163
-1.31823e-153
-2.29807e-161
-1.22062e-168
-1.406e-162
-2.71394e-170
-1.13232e-188
-1.41887e-168
-3.29529e-176
3.65581e-190
-2.74097e-196
-4.5617e-12
-7.55713e-09
-2.38764e-15
-4.26763e-11
-2.33264e-08
1.058e-15
-3.86534e-10
-3.27972e-08
3.36188e-15
2.12087e-10
-2.90262e-08
-2.47608e-15
5.80307e-09
-4.54173e-08
-4.37859e-15
1.34458e-08
-8.80019e-08
-2.34757e-14
1.68429e-08
-1.29339e-07
-3.2126e-14
1.45731e-08
-1.47307e-07
-2.13839e-15
9.55719e-09
-1.42241e-07
-2.28272e-14
3.81975e-09
-1.16738e-07
-2.17352e-14
-8.58175e-10
-7.30233e-08
-4.48847e-15
-2.08541e-09
-4.57614e-08
-8.77067e-15
-2.15888e-09
-4.89085e-08
-4.22995e-15
-2.36282e-10
-2.08931e-08
-1.60548e-15
-5.21817e-13
-1.65477e-09
-1.1317e-16
-4.91662e-17
-5.18416e-12
-2.91015e-19
-2.56114e-20
-3.80281e-16
-2.02291e-23
-1.61248e-26
-1.72691e-19
-8.3575e-27
-9.98167e-35
-1.0884e-25
-4.10644e-33
-5.44212e-44
-5.66619e-34
-2.11815e-41
-9.66509e-52
-2.84923e-43
-9.62251e-51
-3.96919e-58
-4.75087e-51
-1.43481e-58
-1.40772e-64
-1.79236e-57
-5.08245e-65
-1.02904e-78
-6.02736e-64
-1.56039e-71
-4.57894e-84
-4.30817e-78
-1.3655e-85
-2.93818e-87
-1.745e-83
-5.22371e-91
-6.12523e-91
-1.05426e-86
-2.87454e-94
-4.05715e-94
-2.07367e-90
-4.23705e-98
-8.76732e-98
-1.30606e-93
-2.67866e-101
-8.07896e-102
-2.91275e-97
-3.63224e-105
-3.1181e-106
-2.17032e-101
-4.27958e-109
-1.73195e-110
-7.40335e-106
-1.50618e-113
-7.25885e-116
-4.10621e-110
-7.62223e-118
-8.4034e-122
-1.81515e-115
-3.04238e-123
-5.28213e-130
-1.49283e-121
-2.73721e-129
-4.12973e-139
-8.64961e-130
-2.60805e-137
-1.62359e-153
-7.84272e-139
-1.398e-146
-2.52939e-162
-2.79536e-153
-5.0084e-161
-5.19774e-168
-3.7938e-162
-7.25776e-170
-1.32756e-186
-6.02507e-168
-1.38359e-175
3.30535e-188
-3.16284e-194
-5.4993e-12
-7.55162e-09
-1.89889e-16
-3.75176e-11
-2.32944e-08
-2.67801e-15
-5.98302e-10
-3.22364e-08
2.17132e-15
3.96772e-10
-3.00213e-08
-2.55674e-14
6.90743e-09
-5.1928e-08
5.47505e-15
1.3214e-08
-9.43084e-08
-2.96418e-14
1.53513e-08
-1.31476e-07
-2.77301e-14
1.25324e-08
-1.44479e-07
-1.52866e-14
7.67814e-09
-1.37297e-07
-3.50213e-14
2.51595e-09
-1.11547e-07
-3.37463e-14
-1.40398e-09
-6.90929e-08
-2.33539e-14
-2.27698e-09
-4.48217e-08
-8.33734e-15
-2.16251e-09
-4.68414e-08
-4.93986e-15
-2.40661e-10
-1.99955e-08
-1.508e-15
-6.88195e-13
-1.63391e-09
-1.08233e-16
-5.63826e-17
-6.68653e-12
-3.66689e-19
-2.96131e-20
-4.30781e-16
-2.27603e-23
-2.42347e-26
-1.9646e-19
-9.4678e-27
-1.28324e-34
-1.5941e-25
-6.07925e-33
-7.1048e-44
-7.1629e-34
-2.69328e-41
-1.30763e-51
-3.65391e-43
-1.24774e-50
-5.21753e-58
-6.30792e-51
-1.93027e-58
-1.91028e-64
-2.31047e-57
-6.6418e-65
-1.47487e-78
-8.0018e-64
-2.09989e-71
-6.44991e-84
-5.95992e-78
-1.95203e-85
-4.1855e-87
-2.40857e-83
-7.2873e-91
-8.90265e-91
-1.47116e-86
-4.03992e-94
-6.22368e-94
-2.95113e-90
-6.0391e-98
-1.78547e-97
-1.96999e-93
-3.83427e-101
-1.15354e-101
-5.8803e-97
-7.36075e-105
-4.67716e-106
-3.03113e-101
-5.97437e-109
-2.71423e-110
-1.18775e-105
-2.23813e-113
-1.68685e-115
-6.11278e-110
-1.17075e-117
-1.26449e-121
-3.94546e-115
-6.96332e-123
-1.14729e-129
-2.17378e-121
-4.06451e-129
-1.63743e-138
-2.03339e-129
-5.54112e-137
-3.65653e-153
-2.82683e-138
-5.46189e-146
-6.93192e-162
-5.98255e-153
-1.05082e-160
-2.21485e-167
-1.03455e-161
-1.96306e-169
-9.99071e-185
-2.56075e-167
-5.81693e-175
1.76269e-186
-2.34407e-192
-6.09593e-12
-7.54553e-09
3.82983e-15
-3.17074e-11
-2.32688e-08
-1.00304e-15
-6.87305e-10
-3.15809e-08
-3.68906e-15
9.47331e-10
-3.16559e-08
-3.22632e-14
7.55778e-09
-5.85385e-08
-9.50845e-15
1.24319e-08
-9.91826e-08
-1.39151e-14
1.36461e-08
-1.3269e-07
-2.33995e-14
1.05915e-08
-1.41418e-07
-2.45912e-14
6.05341e-09
-1.3266e-07
-5.56152e-14
1.59031e-09
-1.07055e-07
-4.88535e-14
-1.65421e-09
-6.58376e-08
-2.53903e-14
-2.42167e-09
-4.39727e-08
-7.82792e-15
-2.14345e-09
-4.48204e-08
-5.41336e-15
-2.43064e-10
-1.88828e-08
-1.38753e-15
-8.88988e-13
-1.59797e-09
-1.05346e-16
-6.48002e-17
-8.44492e-12
-4.5831e-19
-3.39312e-20
-4.9056e-16
-2.57456e-23
-3.53521e-26
-2.2165e-19
-1.0603e-26
-1.64347e-34
-2.2684e-25
-8.64066e-33
-9.25085e-44
-9.03204e-34
-3.35462e-41
-1.76569e-51
-4.67951e-43
-1.57951e-50
-6.85626e-58
-8.36836e-51
-2.53297e-58
-2.58233e-64
-2.98174e-57
-8.49283e-65
-1.97967e-78
-1.05953e-63
-2.77128e-71
-9.11975e-84
-8.15121e-78
-2.67774e-85
-5.98749e-87
-3.3411e-83
-1.00779e-90
-1.29949e-90
-2.06374e-86
-5.64881e-94
-9.68516e-94
-4.22219e-90
-8.58374e-98
-3.66081e-97
-3.01486e-93
-5.47733e-101
-1.66774e-101
-1.17471e-96
-1.51598e-104
-9.16187e-106
-4.31117e-101
-8.43805e-109
-4.0197e-110
-2.56693e-105
-4.30964e-113
-3.46328e-115
-8.64621e-110
-1.69927e-117
-1.99181e-121
-7.5421e-115
-1.41009e-122
-3.14267e-129
-3.46118e-121
-6.35525e-129
-4.93097e-138
-5.97139e-129
-1.43184e-136
-8.7694e-153
-7.39152e-138
-1.62224e-145
-1.91807e-161
-1.3302e-152
-2.56496e-160
-9.43711e-167
-2.84339e-161
-5.36503e-169
-5.39254e-183
-1.08843e-166
-2.44721e-174
5.68935e-185
-1.24697e-190
-5.94158e-12
-7.53959e-09
4.09225e-15
-2.57121e-11
-2.3249e-08
-8.53467e-15
-5.61945e-10
-3.10446e-08
-1.4113e-14
1.8833e-09
-3.41012e-08
-3.13061e-14
7.88035e-09
-6.45356e-08
-2.78738e-15
1.14611e-08
-1.02763e-07
-7.75947e-15
1.20559e-08
-1.33285e-07
-3.26093e-15
8.94696e-09
-1.383e-07
-2.97551e-14
4.78113e-09
-1.28385e-07
-5.25751e-14
1.02223e-09
-1.03271e-07
-4.41417e-14
-1.72395e-09
-6.30808e-08
-2.61161e-14
-2.53005e-09
-4.30653e-08
-9.70506e-15
-2.11035e-09
-4.28289e-08
-5.04737e-15
-2.43901e-10
-1.77586e-08
-1.26342e-15
-1.12666e-12
-1.55203e-09
-9.78561e-17
-7.52006e-17
-1.04545e-11
-5.43395e-19
-3.85437e-20
-5.65819e-16
-2.91221e-23
-5.01036e-26
-2.47899e-19
-1.16958e-26
-2.09775e-34
-3.13799e-25
-1.19777e-32
-1.20169e-43
-1.13585e-33
-4.20871e-41
-2.37903e-51
-5.98374e-43
-2.02665e-50
-9.01219e-58
-1.10853e-50
-3.37928e-58
-3.47754e-64
-3.85342e-57
-1.10747e-64
-3.21164e-78
-1.39887e-63
-3.70466e-71
-1.29445e-83
-1.16104e-77
-3.65294e-85
-8.5992e-87
-4.65705e-83
-1.41573e-90
-1.90445e-90
-2.90885e-86
-8.00627e-94
-1.52518e-93
-6.06992e-90
-1.23225e-97
-7.28216e-97
-4.66821e-93
-7.87678e-101
-2.4741e-101
-2.25344e-96
-3.05321e-104
-2.28878e-105
-6.33578e-101
-1.22784e-108
-5.71463e-110
-6.72866e-105
-1.04967e-112
-6.33423e-115
-1.18183e-109
-2.36982e-117
-3.67479e-121
-1.2907e-114
-2.54626e-122
-9.54004e-129
-6.86488e-121
-1.17795e-128
-1.14476e-137
-1.79152e-128
-4.0117e-136
-2.53003e-152
-1.51782e-137
-3.71842e-145
-5.34478e-161
-3.35588e-152
-7.27146e-160
-4.01824e-166
-7.84488e-161
-1.47783e-168
-2.23819e-181
-4.62455e-166
-1.02974e-173
8.15722e-184
-5.10539e-189
-5.08411e-12
-7.5345e-09
2.20655e-15
-2.35441e-11
-2.32305e-08
-1.22717e-15
-2.83884e-10
-3.07843e-08
-1.35027e-14
2.94617e-09
-3.73312e-08
-3.27894e-14
7.96994e-09
-6.95594e-08
-4.13069e-15
1.05178e-08
-1.05311e-07
-1.30525e-14
1.07029e-08
-1.3347e-07
-8.38665e-15
7.61381e-09
-1.352e-07
-1.86728e-14
3.81673e-09
-1.24467e-07
-5.33889e-14
6.90033e-10
-1.00122e-07
-3.55982e-14
-1.73218e-09
-6.06479e-08
-3.19327e-14
-2.61937e-09
-4.20523e-08
-1.12761e-14
-2.07576e-09
-4.0856e-08
-4.78338e-15
-2.43777e-10
-1.66492e-08
-1.16212e-15
-1.4036e-12
-1.49984e-09
-9.27713e-17
-8.8936e-17
-1.27015e-11
-6.52547e-19
-4.34212e-20
-6.67075e-16
-3.37408e-23
-6.90956e-26
-2.74736e-19
-1.2816e-26
-2.66994e-34
-4.2244e-25
-1.59967e-32
-1.55792e-43
-1.42454e-33
-5.17906e-41
-3.19798e-51
-7.63899e-43
-2.54236e-50
-1.18585e-57
-1.46542e-50
-4.3961e-58
-4.66616e-64
-4.98915e-57
-1.41304e-64
-4.18462e-78
-1.84138e-63
-4.83453e-71
-1.84473e-83
-1.6058e-77
-5.56673e-85
-1.23968e-86
-6.52208e-83
-1.96984e-90
-2.80171e-90
-4.11803e-86
-1.12815e-93
-2.42404e-93
-8.76505e-90
-1.76325e-97
-1.37923e-96
-7.29256e-93
-1.13233e-100
-3.82538e-101
-4.09751e-96
-5.84584e-104
-6.12123e-105
-9.77777e-101
-1.88094e-108
-7.96479e-110
-1.76023e-104
-2.73937e-112
-1.05574e-114
-1.59935e-109
-3.24471e-117
-8.69717e-121
-2.03003e-114
-4.19324e-122
-2.68992e-128
-1.77587e-120
-2.83363e-128
-2.26935e-137
-4.70707e-128
-1.0494e-135
-1.34452e-151
-2.78779e-137
-7.28587e-145
-1.49405e-160
-1.82027e-151
-4.00914e-159
-1.70937e-165
-2.16376e-160
-4.08723e-168
-7.63816e-180
-1.96448e-165
-4.3331e-173
-6.85285e-181
-1.7203e-187
-3.81254e-12
-7.53068e-09
6.50976e-16
-3.16695e-11
-2.32027e-08
-4.62447e-15
-1.30429e-11
-3.08029e-08
-2.0375e-14
3.68377e-09
-4.1028e-08
-1.22211e-14
7.67425e-09
-7.35499e-08
-5.42547e-15
9.52245e-09
-1.07159e-07
2.45054e-15
9.47009e-09
-1.33418e-07
-1.08803e-14
6.45624e-09
-1.32172e-07
-1.6259e-14
3.02589e-09
-1.20904e-07
-5.58133e-14
4.44458e-10
-9.75196e-08
-2.84147e-14
-1.76486e-09
-5.84277e-08
-4.0646e-14
-2.70546e-09
-4.09545e-08
-1.22522e-14
-2.03866e-09
-3.88873e-08
-3.93436e-15
-2.43586e-10
-1.55342e-08
-1.04862e-15
-1.72241e-12
-1.44368e-09
-8.51642e-17
-1.08291e-16
-1.51655e-11
-7.38256e-19
-4.85243e-20
-8.11706e-16
-3.97558e-23
-9.28861e-26
-3.0158e-19
-1.38893e-26
-3.39033e-34
-5.54184e-25
-2.11122e-32
-2.01667e-43
-1.78182e-33
-6.5139e-41
-4.28848e-51
-9.73627e-43
-3.28638e-50
-1.56343e-57
-1.93238e-50
-5.90188e-58
-6.24048e-64
-6.47566e-57
-1.86523e-64
-6.06406e-78
-2.41683e-63
-6.46581e-71
-2.6401e-83
-2.23808e-77
-7.47014e-85
-1.79375e-86
-9.17738e-83
-2.79864e-90
-4.13692e-90
-5.85384e-86
-1.61609e-93
-3.87853e-93
-1.27092e-89
-2.55358e-97
-2.47188e-96
-1.14635e-92
-1.64712e-100
-6.25588e-101
-7.04393e-96
-1.06713e-103
-1.52199e-104
-1.60588e-100
-3.12824e-108
-1.12387e-109
-4.12837e-104
-6.71794e-112
-1.65075e-114
-2.22819e-109
-4.51398e-117
-2.44302e-120
-3.02904e-114
-6.48602e-122
-6.573e-128
-5.08802e-120
-8.069e-128
-4.4007e-137
-1.05741e-127
-2.41211e-135
-7.58587e-151
-5.38101e-137
-1.39822e-144
-4.17287e-160
-1.01924e-150
-2.20239e-158
-7.2676e-165
-5.95267e-160
-1.13053e-167
-2.26028e-178
-8.34944e-165
-1.82414e-172
-5.30097e-179
-5.03156e-186
-2.64694e-12
-7.52802e-09
-1.65626e-15
-4.94861e-11
-2.31559e-08
-6.07433e-17
1.46358e-10
-3.09988e-08
-1.91483e-14
3.83337e-09
-4.4715e-08
-7.50106e-15
6.89863e-09
-7.66152e-08
-2.22306e-15
8.37414e-09
-1.08635e-07
-3.81239e-15
8.22767e-09
-1.33271e-07
-1.05069e-14
5.35561e-09
-1.29283e-07
-1.52505e-14
2.3053e-09
-1.1771e-07
-5.09952e-14
1.8798e-10
-9.53832e-08
-2.90282e-14
-1.85842e-09
-5.63697e-08
-2.88036e-14
-2.79841e-09
-3.98162e-08
-9.55118e-15
-1.99868e-09
-3.69187e-08
-3.53413e-15
-2.41616e-10
-1.44204e-08
-9.3903e-16
-2.08606e-12
-1.37332e-09
-8.03675e-17
-1.37044e-16
-1.78245e-11