/*--------------------------------*- C++ -*----------------------------------*\
| =========                 |                                                 |
| \\      /  F ield         | OpenFOAM: The Open Source CFD Toolbox           |
|  \\    /   O peration     | Version:  v2012                                 |
|   \\  /    A nd           | Website:  www.openfoam.com                      |
|    \\/     M anipulation  |                                                 |
\*---------------------------------------------------------------------------*/
FoamFile
{
    version     2.0;
    format      ascii;
    class       volVectorField;
    location    "0.7";
    object      U;
}
// * * * * * * * * * * * * * * * * * * * * * * * * * * * * * * * * * * * * * //

dimensions      [0 1 -1 0 0 0 0];


internalField   nonuniform List<vector> 
3332
(
(-0.757398 -7.30321 0.00661018)
(-0.794285 -6.67391 0.00693219)
(-0.825956 -6.09866 0.00720865)
(-0.852779 -5.56873 0.00744282)
(-0.875064 -5.07693 0.00763737)
(-0.893037 -4.61759 0.00779428)
(-0.906897 -4.1864 0.00791529)
(-0.916819 -3.78008 0.00800194)
(-0.922963 -3.39618 0.0080556)
(-0.925475 -3.03283 0.00807757)
(-0.924493 -2.68858 0.00806907)
(-0.920146 -2.36234 0.00803117)
(-0.912555 -2.05321 0.00796495)
(-0.901833 -1.76047 0.00787141)
(-0.888088 -1.48355 0.00775148)
(-0.871422 -1.22198 0.00760606)
(-0.851933 -0.975351 0.00743601)
(-0.829718 -0.743366 0.00724216)
(-0.804871 -0.525782 0.00702534)
(-0.777491 -0.322429 0.00678643)
(-0.751711 -8.64797 0.00656046)
(-0.797491 -7.89461 0.0069601)
(-0.836019 -7.21086 0.00729643)
(-0.868408 -6.58952 0.00757917)
(-0.895638 -6.02156 0.00781689)
(-0.918142 -5.49841 0.00801335)
(-0.936295 -5.01297 0.00817183)
(-0.950343 -4.55961 0.00829449)
(-0.960501 -4.13406 0.00838319)
(-0.966942 -3.73305 0.00843945)
(-0.969822 -3.35415 0.00846463)
(-0.969279 -2.9955 0.00845993)
(-0.965438 -2.65569 0.00842647)
(-0.958416 -2.33361 0.00836522)
(-0.948319 -2.02838 0.00827713)
(-0.935248 -1.73932 0.00816308)
(-0.919295 -1.46584 0.00802389)
(-0.900552 -1.20749 0.00786034)
(-0.879104 -0.963877 0.00767319)
(-0.855036 -0.73471 0.00746316)
(-0.828432 -0.519752 0.007231)
(-0.799382 -0.318842 0.00697752)
(0.0677779 -47.5321 -0.000591482)
(0.0157458 -48.2027 -0.000137422)
(0.0992933 -47.9159 -0.000868346)
(-2.24321 -27.5128 0.0195753)
(-2.64433 -23.9766 0.0230781)
(-3.35436 -30.7942 0.0292761)
(-3.10614 -38.0842 0.0271124)
(-2.54492 -41.0316 0.0222157)
(-1.46401 -36.834 0.0127867)
(-0.804889 -27.9689 0.00703712)
(-0.280547 -11.8861 0.00241701)
(-0.465237 -11.5897 0.0040487)
(-0.605445 -10.9635 0.005281)
(-0.706985 -10.1734 0.00616971)
(-0.778158 -9.33592 0.0067912)
(-0.832741 -8.53211 0.00726771)
(-0.875333 -7.79119 0.00763954)
(-0.910151 -7.11737 0.00794349)
(-0.938564 -6.50458 0.00819154)
(-0.961805 -5.94427 0.00839443)
(-0.980384 -5.42813 0.00855664)
(-0.994754 -4.9492 0.00868211)
(-1.00518 -4.50193 0.00877319)
(-1.01191 -4.08207 0.00883193)
(-1.01511 -3.68641 0.00885987)
(-1.01493 -3.31253 0.00885838)
(-1.01151 -2.95859 0.0088286)
(-1.00497 -2.6232 0.00877158)
(-0.995417 -2.30527 0.00868821)
(-0.982939 -2.00395 0.00857932)
(-0.967628 -1.71854 0.00844573)
(-0.949567 -1.44849 0.00828813)
(-0.928834 -1.19335 0.00810721)
(-0.905504 -0.95275 0.00790363)
(-0.879654 -0.726392 0.00767805)
(-0.851357 -0.514055 0.00743111)
(-0.820694 -0.315581 0.00716356)
(0.0341579 -47.6687 -0.000298066)
(0.0528071 -48.2484 -0.000460936)
(-0.12335 -45.4377 0.00107453)
(-2.44745 -24.2072 0.0213582)
(-2.87127 -21.7549 0.0250588)
(-3.77241 -29.3179 0.0329245)
(-3.55864 -37.8126 0.0310618)
(-2.89663 -41.7442 0.0252868)
(-1.71095 -37.8869 0.0149428)
(-0.898083 -28.9259 0.0078524)
(0.0249553 -18.2132 -0.000216772)
(-0.082701 -11.6004 0.000511898)
(-0.331316 -11.5749 0.00285659)
(-0.524561 -11.3286 0.00456548)
(-0.672602 -10.7537 0.00586673)
(-0.779088 -10.0052 0.00679897)
(-0.851864 -9.19664 0.0074345)
(-0.905768 -8.41224 0.00790511)
(-0.94625 -7.68533 0.00825854)
(-0.978236 -7.02241 0.00853777)
(-1.00343 -6.41879 0.00875777)
(-1.02333 -5.86654 0.0089315)
(-1.03856 -5.35769 0.0090644)
(-1.04963 -4.88546 0.00916113)
(-1.05687 -4.44439 0.00922438)
(-1.06054 -4.03031 0.00925641)
(-1.06082 -3.64004 0.00925887)
(-1.05787 -3.27121 0.00923317)
(-1.05182 -2.922 0.00918046)
(-1.0428 -2.59104 0.00910176)
(-1.0309 -2.27728 0.00899789)
(-1.0162 -1.97985 0.00886965)
(-0.998791 -1.6981 0.00871775)
(-0.978746 -1.43148 0.00854284)
(-0.956134 -1.17954 0.00834552)
(-0.931022 -0.941944 0.00812637)
(-0.903476 -0.71839 0.00788599)
(-0.873564 -0.508669 0.00762496)
(-0.841359 -0.312629 0.00734394)
(0.00224511 -47.7725 -1.95502e-05)
(0.0810409 -48.1211 -0.000707394)
(-0.296488 -42.73 0.00258533)
(-2.36736 -20.9346 0.0206596)
(-2.79984 -19.3173 0.0244355)
(-3.78239 -27.6297 0.0330113)
(-3.60483 -37.4825 0.0314649)
(-2.87666 -42.5439 0.0251138)
(-1.70749 -39.0393 0.0149127)
(-0.845155 -29.9388 0.00739145)
(-0.0193027 -18.7964 0.000171892)
(-0.119338 -11.3507 0.000821648)
(-0.369101 -11.255 0.00318219)
(-0.56931 -11.0515 0.00495513)
(-0.725786 -10.5297 0.00633048)
(-0.838444 -9.82633 0.00731697)
(-0.914502 -9.05015 0.00798119)
(-0.969166 -8.2877 0.00845845)
(-1.00884 -7.57647 0.00880481)
(-1.03906 -6.92553 0.00906867)
(-1.06197 -6.33177 0.00926872)
(-1.07932 -5.78804 0.0094202)
(-1.09188 -5.2868 0.00952981)
(-1.10026 -4.82149 0.00960303)
(-1.10483 -4.38679 0.009643)
(-1.10589 -3.9786 0.00965229)
(-1.10365 -3.59381 0.00963273)
(-1.09827 -3.23008 0.00958583)
(-1.0899 -2.88564 0.0095128)
(-1.07865 -2.55914 0.00941468)
(-1.06462 -2.24954 0.00929229)
(-1.0479 -1.95603 0.00914639)
(-1.02857 -1.67794 0.00897769)
(-1.00669 -1.41474 0.00878677)
(-0.982332 -1.16602 0.0085742)
(-0.955552 -0.931424 0.0083405)
(-0.926413 -0.710676 0.00808621)
(-0.894977 -0.503571 0.00781188)
(-0.861311 -0.309964 0.00751808)
(-0.825489 -0.129793 0.00720558)
(-0.0188658 -47.8463 0.000164688)
(0.0898515 -47.8732 -0.000784314)
(-0.35934 -40.2087 0.00313392)
(-1.92195 -18.0941 0.0167725)
(-2.23596 -17.0063 0.0195143)
(-3.17498 -25.9664 0.0277098)
(-3.01414 -37.1897 0.0263091)
(-2.30284 -43.372 0.0201053)
(-1.32839 -40.1548 0.0116032)
(-0.58185 -30.8678 0.0050931)
(0.0283327 -19.2544 -0.000241663)
(-0.134219 -11.0796 0.000944975)
(-0.392121 -10.927 0.00337757)
(-0.598656 -10.7606 0.00521026)
(-0.764127 -10.292 0.00666468)
(-0.884049 -9.63636 0.00771493)
(-0.965027 -8.89571 0.00842215)
(-1.02195 -8.15776 0.0089191)
(-1.06219 -7.46398 0.00927045)
(-1.09181 -6.8262 0.00952905)
(-1.11345 -6.24308 0.009718)
(-1.12912 -5.7084 0.00985483)
(-1.13976 -5.21514 0.0099478)
(-1.14612 -4.75702 0.0100033)
(-1.14861 -4.32888 0.0100251)
(-1.14757 -3.92673 0.0100161)
(-1.14325 -3.54752 0.00997839)
(-1.13583 -3.18898 0.00991369)
(-1.12547 -2.84937 0.0098233)
(-1.11229 -2.52738 0.00970833)
(-1.0964 -2.22199 0.00956967)
(-1.07788 -1.9324 0.00940808)
(-1.05682 -1.65799 0.00922428)
(-1.03328 -1.39824 0.00901883)
(-1.00732 -1.15274 0.0087923)
(-0.979002 -0.921154 0.00854519)
(-0.948385 -0.703216 0.008278)
(-0.915527 -0.498731 0.00799125)
(-0.880489 -0.30756 0.00768549)
(-0.843346 -0.129647 0.00736137)
(-0.024798 -47.8974 0.000216453)
(0.0783924 -47.605 -0.000684304)
(-0.297344 -38.3526 0.00259327)
(-1.15171 -16.2292 0.0100507)
(-1.11467 -15.3197 0.00972813)
(-1.91011 -24.6367 0.0166703)
(-1.69975 -37.0627 0.0148366)
(-1.11926 -44.1231 0.00977329)
(-0.527635 -41.0427 0.00461315)
(-0.0883988 -31.5276 0.000785187)
(0.181043 -19.4591 -0.00157498)
(-0.117389 -10.7366 0.000796563)
(-0.399035 -10.5833 0.00343094)
(-0.613268 -10.4568 0.00533659)
(-0.7881 -10.0412 0.00687346)
(-0.916099 -9.43516 0.00799457)
(-1.00332 -8.73274 0.0087563)
(-1.06384 -8.02179 0.00928474)
(-1.10595 -7.34727 0.00965237)
(-1.13609 -6.72389 0.00991557)
(-1.15746 -6.15226 0.0101022)
(-1.17233 -5.62722 0.010232)
(-1.18185 -5.14237 0.0103151)
(-1.18686 -4.69174 0.010359)
(-1.18788 -4.2704 0.0103679)
(-1.18529 -3.87447 0.0103453)
(-1.17936 -3.501 0.0102936)
(-1.17032 -3.14775 0.0102147)
(-1.15833 -2.81306 0.0101101)
(-1.14354 -2.49563 0.00998112)
(-1.12606 -2.1945 0.00982861)
(-1.10599 -1.90889 0.00965345)
(-1.08341 -1.63819 0.0094564)
(-1.05839 -1.38191 0.00923806)
(-1.031 -1.13965 0.008999)
(-1.00129 -0.911087 0.00873973)
(-0.969319 -0.695972 0.00846074)
(-0.93515 -0.494116 0.00816254)
(-0.898841 -0.305389 0.00784568)
(-0.860463 -0.129741 0.00751076)
(-0.82009 0.0328553 0.00715854)
(-0.0220228 -47.9342 0.000192225)
(0.0613297 -47.4255 -0.000535379)
(-0.172403 -37.4778 0.00150349)
(-0.289718 -15.8274 0.00252881)
(0.30944 -14.7384 -0.00270094)
(-0.289644 -23.9482 0.00252713)
(0.111176 -37.2653 -0.000969418)
(0.482146 -44.694 -0.00420626)
(0.571395 -41.513 -0.00497864)
(0.555174 -31.7392 -0.00483323)
(0.395873 -19.3119 -0.00345185)
(-0.0765546 -10.2785 0.000443856)
(-0.391604 -10.2127 0.00335859)
(-0.615686 -10.14 0.00535637)
(-0.799589 -9.77831 0.0069733)
(-0.935921 -9.223 0.00816749)
(-1.03011 -8.56102 0.00899013)
(-1.09525 -7.87934 0.00955882)
(-1.14027 -7.22587 0.00995193)
(-1.17193 -6.61818 0.0102284)
(-1.19395 -6.05893 0.0104206)
(-1.20884 -5.54415 0.0105506)
(-1.21797 -5.06816 0.0106304)
(-1.22232 -4.62538 0.0106684)
(-1.22246 -4.21111 0.0106697)
(-1.21885 -3.82161 0.0106382)
(-1.2118 -3.45403 0.0105768)
(-1.20156 -3.10622 0.0104874)
(-1.18833 -2.77655 0.010372)
(-1.17226 -2.46378 0.0102318)
(-1.15349 -2.16698 0.010068)
(-1.13212 -1.88541 0.00988152)
(-1.10825 -1.61846 0.00967319)
(-1.08195 -1.36568 0.00944367)
(-1.05329 -1.12669 0.00919359)
(-1.02234 -0.901175 0.00892348)
(-0.989153 -0.688903 0.00863387)
(-0.953791 -0.489692 0.00832527)
(-0.916316 -0.303422 0.00799822)
(-0.876799 -0.130048 0.00765335)
(-0.835312 0.0304512 0.00729133)
(-0.0225966 -47.9615 0.000197229)
(0.0583936 -47.3707 -0.000509709)
(-0.0920339 -37.4801 0.000802697)
(0.339036 -16.9485 -0.00295773)
(1.41323 -15.3984 -0.0123341)
(1.08511 -24.1996 -0.00947103)
(1.87738 -37.99 -0.0163844)
(2.06876 -45.0583 -0.018057)
(1.66881 -41.4778 -0.0145539)
(1.16031 -31.4188 -0.010116)
(0.573525 -18.7617 -0.00500462)
(-0.0393911 -9.70657 0.000127034)
(-0.376553 -9.81313 0.0032213)
(-0.609954 -9.81103 0.00530526)
(-0.801627 -9.50491 0.00699071)
(-0.945625 -9.00077 0.00825209)
(-1.04683 -8.38084 0.00913595)
(-1.11708 -7.73035 0.0097493)
(-1.16573 -7.09956 0.0101741)
(-1.19968 -6.50877 0.0104705)
(-1.2231 -5.96277 0.0106751)
(-1.23873 -5.4589 0.0108116)
(-1.24816 -4.99225 0.0108939)
(-1.25246 -4.55768 0.0109315)
(-1.25231 -4.15076 0.0109302)
(-1.2482 -3.76793 0.0108944)
(-1.24049 -3.40644 0.0108272)
(-1.22948 -3.06422 0.0107311)
(-1.21537 -2.7397 0.010608)
(-1.19836 -2.4317 0.0104596)
(-1.17859 -2.13932 0.0102871)
(-1.15619 -1.86184 0.0100916)
(-1.13125 -1.59871 0.00987396)
(-1.10387 -1.34949 0.00963504)
(-1.07413 -1.1138 0.00937551)
(-1.0421 -0.891369 0.00909595)
(-1.00783 -0.681965 0.00879693)
(-0.971405 -0.48542 0.00847901)
(-0.932874 -0.301624 0.00814275)
(-0.892315 -0.13054 0.00778879)
(-0.849804 0.0278511 0.00741782)
(-0.0350097 -47.9789 0.000305562)
(0.0754803 -47.3846 -0.000658792)
(-0.102248 -37.8835 0.000892259)
(0.573336 -18.929 -0.00500287)
(1.66194 -16.844 -0.0145045)
(1.79183 -25.5316 -0.0156377)
(3.13311 -39.4096 -0.0273434)
(3.214 -45.348 -0.0280549)
(2.43461 -40.9612 -0.0212345)
(1.53867 -30.6001 -0.0134185)
(0.620576 -17.8722 -0.005422)
(-0.0335578 -9.09024 8.67211e-05)
(-0.362445 -9.39994 0.00309584)
(-0.600226 -9.47375 0.00521994)
(-0.797316 -9.22361 0.00695281)
(-0.947424 -8.77014 0.00826771)
(-1.05508 -8.19303 0.00920798)
(-1.13048 -7.57511 0.00986621)
(-1.18315 -6.96834 0.0103261)
(-1.21991 -6.39555 0.0106471)
(-1.24533 -5.86362 0.010869)
(-1.2623 -5.37125 0.0110172)
(-1.2726 -4.9144 0.0111073)
(-1.27741 -4.48841 0.0111492)
(-1.27747 -4.08915 0.0111498)
(-1.27334 -3.71323 0.0111139)
(-1.26543 -3.35804 0.0110448)
(-1.25404 -3.02159 0.0109454)
(-1.23942 -2.70237 0.0108179)
(-1.22179 -2.39926 0.0106641)
(-1.20131 -2.1114 0.0104854)
(-1.17813 -1.83811 0.0102831)
(-1.15236 -1.57887 0.0100583)
(-1.12411 -1.33325 0.00981173)
(-1.09347 -1.10093 0.00954433)
(-1.06052 -0.881617 0.00925673)
(-1.02532 -0.675113 0.00894957)
(-0.987951 -0.481263 0.00862345)
(-0.948479 -0.299963 0.00827897)
(-0.906981 -0.131186 0.00791681)
(-0.863536 0.0250809 0.00753769)
(-0.0556718 -47.9833 0.000485893)
(0.102188 -47.389 -0.000891862)
(-0.166426 -38.2713 0.0014525)
(0.51356 -20.7281 -0.00448178)
(1.12882 -18.4311 -0.00985108)
(2.06492 -27.9765 -0.0180192)
(3.80577 -41.4452 -0.0332135)
(3.76423 -45.5236 -0.0328597)
(2.73046 -40.079 -0.023814)
(1.62192 -29.4459 -0.0141455)
(0.525496 -16.7957 -0.00459938)
(-0.0642418 -8.52082 0.000367774)
(-0.355026 -8.998 0.0030328)
(-0.589583 -9.13503 0.00512742)
(-0.789004 -8.93771 0.00688016)
(-0.943184 -8.53324 0.00823064)
(-1.05639 -7.9988 0.00921933)
(-1.13662 -7.41422 0.0099198)
(-1.19343 -6.83246 0.0104158)
(-1.23333 -6.27856 0.0107642)
(-1.26117 -5.7614 0.0110073)
(-1.27995 -5.28109 0.0111713)
(-1.2916 -4.83447 0.0112731)
(-1.29738 -4.41742 0.0113236)
(-1.29812 -4.02611 0.01133)
(-1.2944 -3.65736 0.0112976)
(-1.28667 -3.30869 0.0112302)
(-1.27527 -2.97819 0.0111308)
(-1.26049 -2.66443 0.0110018)
(-1.24255 -2.36635 0.0108453)
(-1.22164 -2.08313 0.0106629)
(-1.19793 -1.81413 0.010456)
(-1.17156 -1.55886 0.0102258)
(-1.14264 -1.31692 0.00997346)
(-1.11128 -1.08801 0.00969977)
(-1.07757 -0.871865 0.00940554)
(-1.04158 -0.668303 0.00909149)
(-1.0034 -0.477179 0.0087583)
(-0.963103 -0.298404 0.00840662)
(-0.92077 -0.131956 0.00803718)
(-0.876485 0.0221673 0.00765072)
(-0.0763231 -47.9743 0.000666132)
(0.126475 -47.3491 -0.00110381)
(-0.229866 -38.453 0.00200624)
(0.320405 -21.7852 -0.0027962)
(0.466683 -20.0661 -0.00407115)
(2.40668 -31.4209 -0.0210002)
(4.05411 -43.642 -0.0353813)
(3.83714 -45.4695 -0.0334988)
(2.65831 -38.9683 -0.0231822)
(1.47864 -28.1378 -0.0128973)
(0.345574 -15.6851 -0.0030274)
(-0.115476 -8.06387 0.000831612)
(-0.355127 -8.62658 0.00303786)
(-0.579721 -8.80214 0.00504222)
(-0.7781 -8.65075 0.00678503)
(-0.934324 -8.29231 0.00815326)
(-1.05199 -7.79949 0.00918086)
(-1.13659 -7.24843 0.00991955)
(-1.19748 -6.69229 0.0104511)
(-1.24069 -6.15795 0.0108284)
(-1.27125 -5.65615 0.0110952)
(-1.29218 -5.18838 0.011278)
(-1.30556 -4.75238 0.0113949)
(-1.3127 -4.34459 0.0114573)
(-1.31448 -3.96152 0.0114729)
(-1.31154 -3.60019 0.0114473)
(-1.30435 -3.25825 0.0113845)
(-1.29328 -2.9339 0.011288)
(-1.27863 -2.62578 0.0111602)
(-1.26067 -2.33287 0.0110034)
(-1.2396 -2.05441 0.0108196)
(-1.2156 -1.7898 0.0106102)
(-1.18884 -1.53859 0.0103766)
(-1.15945 -1.30041 0.0101201)
(-1.12754 -1.07498 0.00984168)
(-1.09322 -0.862064 0.00954221)
(-1.05659 -0.661489 0.00922253)
(-1.01773 -0.47313 0.00888339)
(-0.976725 -0.296911 0.00852552)
(-0.933662 -0.132821 0.0081497)
(-0.888631 0.0191373 0.00775674)
(-0.0883977 -47.9551 0.000771517)
(0.134151 -47.2734 -0.00117078)
(-0.242993 -38.4022 0.00212084)
(0.0370495 -22.2596 -0.000323099)
(0.290958 -22.2219 -0.00253603)
(2.8788 -35.2914 -0.0251202)
(4.05285 -45.5376 -0.0353719)
(3.61761 -45.1106 -0.0315855)
(2.39185 -37.7409 -0.0208554)
(1.22012 -26.8059 -0.0106438)
(0.153119 -14.6543 -0.00133869)
(-0.169741 -7.73098 0.00132279)
(-0.360545 -8.29147 0.00309031)
(-0.571247 -8.48046 0.00496933)
(-0.765526 -8.36599 0.00667543)
(-0.921999 -8.04947 0.00804567)
(-1.04295 -7.59643 0.009102)
(-1.13142 -7.07852 0.00987435)
(-1.1962 -6.54825 0.0104399)
(-1.24278 -6.03395 0.0108466)
(-1.27623 -5.54796 0.0111387)
(-1.29956 -5.09313 0.0113424)
(-1.31495 -4.6681 0.0114768)
(-1.32374 -4.26987 0.0115536)
(-1.32688 -3.8953 0.011581)
(-1.32501 -3.54163 0.0115648)
(-1.31865 -3.20663 0.0115094)
(-1.30819 -2.88862 0.0114181)
(-1.29396 -2.58631 0.0112939)
(-1.27622 -2.29872 0.0111392)
(-1.25522 -2.02516 0.0109559)
(-1.23116 -1.76507 0.0107459)
(-1.20421 -1.51801 0.0105108)
(-1.17452 -1.28368 0.0102517)
(-1.14224 -1.0618 0.00997003)
(-1.10748 -0.852165 0.00966667)
(-1.07034 -0.654628 0.00934257)
(-1.03093 -0.469079 0.00899858)
(-0.989328 -0.295452 0.00863553)
(-0.94564 -0.133749 0.00825426)
(-0.899959 0.0160178 0.00785562)
(-0.0852448 -47.929 0.000744002)
(0.116352 -47.1902 -0.00101543)
(-0.200359 -38.1014 0.00174863)
(-0.324062 -22.6359 0.00282879)
(0.650406 -25.2368 -0.00567219)
(3.21442 -38.9237 -0.0280501)
(3.90555 -46.9165 -0.0340877)
(3.24665 -44.4672 -0.0283486)
(2.05559 -36.4786 -0.0179205)
(0.934167 -25.5338 -0.00814876)
(0.00634802 -13.7512 -5.02153e-05)
(-0.210931 -7.50446 0.00169611)
(-0.368616 -7.98995 0.00316684)
(-0.564219 -8.17289 0.00490909)
(-0.752118 -8.08611 0.00655862)
(-0.907271 -7.80665 0.00791712)
(-1.03034 -7.39091 0.00899191)
(-1.12209 -6.90528 0.00979288)
(-1.19049 -6.40084 0.0103901)
(-1.2404 -5.90683 0.0108258)
(-1.27681 -5.43699 0.0111437)
(-1.30269 -4.99543 0.0113697)
(-1.32027 -4.58166 0.0115232)
(-1.33092 -4.19325 0.0116163)
(-1.33564 -3.82742 0.0116575)
(-1.33509 -3.48162 0.0116528)
(-1.3298 -3.15378 0.0116067)
(-1.32019 -2.8423 0.0115228)
(-1.30659 -2.54595 0.0114042)
(-1.2893 -2.26385 0.0112534)
(-1.26858 -1.99532 0.0110726)
(-1.24465 -1.73985 0.0108637)
(-1.2177 -1.49706 0.0106285)
(-1.1879 -1.26666 0.0103685)
(-1.15541 -1.0484 0.0100849)
(-1.12034 -0.842123 0.00977893)
(-1.08283 -0.647681 0.00945159)
(-1.04299 -0.464987 0.00910384)
(-1.00091 -0.293993 0.00873659)
(-0.956694 -0.134712 0.00835075)
(-0.910457 0.0128357 0.00794726)
(-0.0709147 -47.8963 0.000618935)
(0.0848422 -47.1198 -0.00074044)
(-0.144687 -37.5228 0.00126239)
(-0.638194 -23.2643 0.00557051)
(1.22779 -28.9528 -0.0107109)
(3.25792 -41.979 -0.0284309)
(3.65133 -47.7998 -0.0318699)
(2.82297 -43.6336 -0.0246514)
(1.71613 -35.245 -0.0149586)
(0.680926 -24.3794 -0.00593731)
(-0.0822959 -12.9909 0.000725831)
(-0.239953 -7.34271 0.0019597)
(-0.37711 -7.7158 0.00324649)
(-0.558461 -7.88016 0.00485981)
(-0.738596 -7.81304 0.00644085)
(-0.891142 -7.56549 0.00777636)
(-1.01521 -7.18414 0.00885979)
(-1.1096 -6.72952 0.00968381)
(-1.18125 -6.25054 0.0103094)
(-1.23435 -5.77691 0.010773)
(-1.2737 -5.32344 0.0111165)
(-1.30218 -4.8954 0.0113652)
(-1.32205 -4.49313 0.0115387)
(-1.3347 -4.11477 0.0116492)
(-1.34115 -3.75789 0.0117056)
(-1.34209 -3.42016 0.0117138)
(-1.33805 -3.09966 0.0116786)
(-1.32946 -2.79488 0.0116037)
(-1.31669 -2.50467 0.0114923)
(-1.30004 -2.22819 0.0113471)
(-1.27978 -1.96482 0.0111703)
(-1.25616 -1.7141 0.0109641)
(-1.22937 -1.47568 0.0107304)
(-1.19961 -1.2493 0.0104707)
(-1.16705 -1.03476 0.0101865)
(-1.13182 -0.831897 0.00987912)
(-1.09407 -0.640608 0.00954965)
(-1.05391 -0.460821 0.00919917)
(-1.01145 -0.292503 0.00882866)
(-0.966821 -0.13568 0.00843914)
(-0.92012 0.00961682 0.0080316)
(-0.0584262 -47.8578 0.000509944)
(0.0656452 -47.0636 -0.000572923)
(-0.122738 -36.7475 0.00107053)
(-0.703779 -24.3379 0.00614314)
(1.78708 -32.8867 -0.0155922)
(3.07869 -44.3781 -0.0268682)
(3.33673 -48.3127 -0.0291246)
(2.41991 -42.7126 -0.021135)
(1.4094 -34.0857 -0.0122827)
(0.487534 -23.3766 -0.00424833)
(-0.120824 -12.3639 0.00106097)
(-0.258824 -7.20091 0.00213246)
(-0.38573 -7.46135 0.00332604)
(-0.553943 -7.60177 0.00482128)
(-0.725649 -7.54799 0.00632815)
(-0.874585 -7.32737 0.00763188)
(-0.998592 -6.97725 0.00871476)
(-1.09493 -6.55201 0.0095558)
(-1.16938 -6.09789 0.0102057)
(-1.22544 -5.64453 0.0106952)
(-1.26761 -5.20755 0.0110633)
(-1.29866 -4.79321 0.0113345)
(-1.32084 -4.40263 0.0115281)
(-1.33554 -4.0345 0.0116566)
(-1.3438 -3.68675 0.0117287)
(-1.34633 -3.35727 0.0117508)
(-1.34366 -3.04428 0.0117276)
(-1.33624 -2.74635 0.0116629)
(-1.32444 -2.46243 0.01156)
(-1.30857 -2.19171 0.0114216)
(-1.28893 -1.93364 0.0112501)
(-1.26576 -1.68779 0.0110479)
(-1.23928 -1.45384 0.0108169)
(-1.2097 -1.23158 0.0105588)
(-1.1772 -1.02082 0.0102751)
(-1.14194 -0.82145 0.00996743)
(-1.10406 -0.633376 0.00963687)
(-1.0637 -0.456549 0.00928462)
(-1.02098 -0.290953 0.00891178)
(-0.976018 -0.136626 0.00851942)
(-0.928943 0.00638627 0.00810862)
(-0.0608216 -47.8178 0.000530854)
(0.0807189 -47.0197 -0.000704492)
(-0.155647 -36.0242 0.00135772)
(-0.425588 -26.0211 0.00371575)
(2.24271 -36.5439 -0.0195694)
(2.83885 -46.159 -0.0247764)
(3.02436 -48.5766 -0.0263983)
(2.08465 -41.7697 -0.0182084)
(1.15439 -33.0208 -0.010058)
(0.356146 -22.5306 -0.00310103)
(-0.127513 -11.8358 0.00111738)
(-0.272655 -7.05361 0.00226057)
(-0.39442 -7.22049 0.00340548)
(-0.550816 -7.33704 0.00479479)
(-0.713931 -7.29161 0.00622619)
(-0.858478 -7.09335 0.00749133)
(-0.981494 -6.77125 0.00856553)
(-1.07905 -6.37355 0.0094172)
(-1.15576 -5.94346 0.0100869)
(-1.21444 -5.5101 0.0105992)
(-1.25923 -5.08961 0.0109902)
(-1.29274 -4.68907 0.0112828)
(-1.31716 -4.31031 0.011496)
(-1.33391 -3.95256 0.0116422)
(-1.344 -3.61408 0.0117304)
(-1.34815 -3.293 0.0117667)
(-1.34692 -2.98766 0.0117561)
(-1.34076 -2.69673 0.0117023)
(-1.33003 -2.41923 0.0116087)
(-1.31506 -2.15441 0.0114781)
(-1.29614 -1.90175 0.0113131)
(-1.27354 -1.66087 0.0111159)
(-1.2475 -1.4315 0.0108886)
(-1.21822 -1.21344 0.0106331)
(-1.18591 -1.00656 0.0103511)
(-1.15073 -0.810751 0.0100441)
(-1.11283 -0.625954 0.00971343)
(-1.07237 -0.452141 0.00936033)
(-1.02948 -0.289314 0.00898601)
(-0.984291 -0.137526 0.00859163)
(-0.936929 0.00316788 0.00817833)
(-0.0841132 -47.7822 0.000734131)
(0.135005 -46.9853 -0.00117828)
(-0.247568 -35.6002 0.00216008)
(0.072689 -28.3832 -0.000632379)
(2.51171 -39.6536 -0.0219182)
(2.62035 -47.4295 -0.0228705)
(2.73277 -48.672 -0.0238535)
(1.81598 -40.8305 -0.0158622)
(0.946074 -32.0491 -0.00824101)
(0.268233 -21.8257 -0.00233271)
(-0.123932 -11.3709 0.00108393)
(-0.285673 -6.89152 0.00238204)
(-0.403249 -6.9894 0.00348569)
(-0.5494 -7.08489 0.00478315)
(-0.704046 -7.04415 0.00614021)
(-0.84361 -6.86423 0.00736161)
(-0.964817 -6.56703 0.00841998)
(-1.06284 -6.19488 0.00927573)
(-1.14123 -5.78781 0.00996002)
(-1.20212 -5.37404 0.0104916)
(-1.24923 -4.96994 0.0109029)
(-1.285 -4.58323 0.0112152)
(-1.31154 -4.21638 0.0114469)
(-1.33023 -3.86911 0.0116102)
(-1.34211 -3.54001 0.0117139)
(-1.34789 -3.22744 0.0117644)
(-1.34812 -2.92986 0.0117665)
(-1.34324 -2.64605 0.011724)
(-1.33364 -2.37509 0.0116402)
(-1.31965 -2.11628 0.0115182)
(-1.30155 -1.86915 0.0113603)
(-1.27962 -1.63335 0.0111689)
(-1.25411 -1.40865 0.0109463)
(-1.22524 -1.19489 0.0106944)
(-1.19322 -0.991952 0.0104149)
(-1.15822 -0.799774 0.0101095)
(-1.12041 -0.618317 0.00977955)
(-1.07995 -0.447572 0.00942646)
(-1.03698 -0.287562 0.00905147)
(-0.991645 -0.138354 0.00865583)
(-0.94408 -1.59121e-05 0.00824075)
(-0.124267 -47.7543 0.00108457)
(0.215634 -46.9419 -0.00188198)
(-0.381703 -35.5387 0.0033309)
(0.557096 -31.2462 -0.00485959)
(2.49936 -42.1562 -0.0218113)
(2.39508 -48.3376 -0.020905)
(2.4341 -48.6609 -0.0212469)
(1.57872 -39.9079 -0.0137899)
(0.76405 -31.1664 -0.00665355)
(0.199376 -21.2411 -0.00172985)
(-0.126493 -10.9456 0.00110423)
(-0.300267 -6.71741 0.00251836)
(-0.412725 -6.76633 0.0035713)
(-0.54998 -6.84401 0.00478889)
(-0.696433 -6.80554 0.00607406)
(-0.830608 -6.64059 0.00724818)
(-0.949304 -6.36533 0.0082846)
(-1.04707 -6.01672 0.00913805)
(-1.12651 -5.63154 0.00983152)
(-1.18913 -5.23681 0.0103782)
(-1.23821 -4.84888 0.0108067)
(-1.27597 -4.47596 0.0111364)
(-1.30444 -4.12104 0.011385)
(-1.32495 -3.78431 0.011564)
(-1.33852 -3.46467 0.0116825)
(-1.34585 -3.16068 0.0117466)
(-1.34751 -2.87096 0.0117612)
(-1.34393 -2.59438 0.01173)
(-1.33549 -2.33005 0.0116563)
(-1.3225 -2.07735 0.0115431)
(-1.30529 -1.83584 0.0113929)
(-1.2841 -1.60522 0.011208)
(-1.25921 -1.38528 0.0109908)
(-1.23083 -1.17589 0.0107432)
(-1.19918 -0.976976 0.010467)
(-1.16445 -0.788499 0.0101639)
(-1.12682 -0.610442 0.00983551)
(-1.08645 -0.442821 0.00948319)
(-1.04349 -0.285675 0.00910828)
(-0.998094 -0.139089 0.00871211)
(-0.950404 -0.00314424 0.00829595)
(-0.168552 -47.7348 0.00147108)
(0.295692 -46.8624 -0.00258068)
(-0.512741 -35.7288 0.00447466)
(0.87065 -34.2294 -0.00759593)
(2.20985 -44.0944 -0.0192855)
(2.13074 -49.041 -0.0185979)
(2.11102 -48.6005 -0.0184273)
(1.3464 -39.022 -0.0117602)
(0.593904 -30.3753 -0.00516978)
(0.135229 -20.759 -0.00116807)
(-0.141623 -10.5506 0.00123452)
(-0.317181 -6.53929 0.00267627)
(-0.423423 -6.55088 0.00366749)
(-0.552724 -6.61334 0.00481352)
(-0.691315 -6.57551 0.00602967)
(-0.819884 -6.42276 0.00715463)
(-0.935501 -6.16678 0.00816414)
(-1.03233 -5.83972 0.00900945)
(-1.11221 -5.47521 0.0097067)
(-1.17604 -5.09886 0.010264)
(-1.2267 -4.72681 0.0107062)
(-1.26615 -4.36756 0.0110506)
(-1.2963 -4.02455 0.0113138)
(-1.31843 -3.69836 0.0115071)
(-1.33355 -3.38822 0.0116391)
(-1.34235 -3.09287 0.011716)
(-1.34537 -2.81107 0.0117424)
(-1.34304 -2.54177 0.0117222)
(-1.33574 -2.28416 0.0116586)
(-1.32379 -2.03766 0.0115543)
(-1.30748 -1.80185 0.011412)
(-1.28709 -1.57648 0.0112341)
(-1.26287 -1.36138 0.0110228)
(-1.23506 -1.15644 0.01078)
(-1.20386 -0.961623 0.0105078)
(-1.16948 -0.77691 0.0102078)
(-1.1321 -0.602312 0.00988162)
(-1.0919 -0.437867 0.00953077)
(-1.04903 -0.283634 0.00915663)
(-1.00365 -0.139712 0.0087606)
(-0.95591 -0.00619794 0.00834401)
(-0.202289 -47.7214 0.00176553)
(0.350615 -46.7399 -0.00306005)
(-0.593171 -36.0338 0.0051767)
(0.990842 -36.9614 -0.00864501)
(1.77668 -45.5688 -0.0155055)
(1.84839 -49.6558 -0.0161333)
(1.7823 -48.5266 -0.0155585)
(1.11927 -38.1918 -0.00977575)
(0.43588 -29.6786 -0.00379175)
(0.0727891 -20.3621 -0.000620823)
(-0.169778 -10.1832 0.00147879)
(-0.335727 -6.36428 0.00284922)
(-0.435688 -6.34314 0.00377722)
(-0.557688 -6.39195 0.0048575)
(-0.688762 -6.35368 0.00600767)
(-0.811658 -6.2109 0.0070829)
(-0.923762 -5.97181 0.00806171)
(-1.01908 -5.66444 0.00889377)
(-1.0988 -5.31935 0.00958966)
(-1.16333 -4.96067 0.0101531)
(-1.21513 -4.60411 0.0106052)
(-1.25592 -4.25834 0.0109613)
(-1.28747 -3.92716 0.0112368)
(-1.31102 -3.61149 0.0114424)
(-1.32751 -3.31084 0.0115864)
(-1.33763 -3.02415 0.0116748)
(-1.34192 -2.7503 0.0117123)
(-1.34079 -2.48834 0.0117025)
(-1.3346 -2.2375 0.0116485)
(-1.32366 -1.99724 0.0115532)
(-1.30828 -1.76721 0.0114189)
(-1.2887 -1.54716 0.0112481)
(-1.2652 -1.33696 0.011043)
(-1.23799 -1.13655 0.0108057)
(-1.20731 -0.945887 0.0105379)
(-1.17335 -0.764997 0.0102415)
(-1.1363 -0.593914 0.0099182)
(-1.09633 -0.432696 0.00956944)
(-1.05362 -0.281421 0.00919671)
(-1.00833 -0.140206 0.00880144)
(-0.960611 -0.00915961 0.00838503)
(-0.216709 -47.7123 0.00189138)
(0.36915 -46.592 -0.00322182)
(-0.603959 -36.3702 0.00527099)
(0.977785 -39.254 -0.0085314)
(1.35199 -46.7095 -0.0117994)
(1.58484 -50.2282 -0.0138327)
(1.48003 -48.4484 -0.0129205)
(0.910889 -37.4261 -0.00795521)
(0.296607 -29.0718 -0.00257725)
(0.013822 -20.0334 -0.000100031)
(-0.209727 -9.84082 0.0018265)
(-0.35519 -6.19656 0.00303009)
(-0.449642 -6.143 0.00390153)
(-0.564805 -6.17903 0.00492026)
(-0.688726 -6.13954 0.00600761)
(-0.805993 -6.00497 0.00703351)
(-0.914272 -5.78075 0.0079789)
(-1.00758 -5.49133 0.00879345)
(-1.08661 -5.16444 0.0094833)
(-1.15135 -4.82266 0.0100484)
(-1.20385 -4.48115 0.0105068)
(-1.24562 -4.14862 0.0108714)
(-1.27828 -3.82914 0.0111566)
(-1.30299 -3.52392 0.0113723)
(-1.32066 -3.23272 0.0115266)
(-1.33195 -2.95467 0.0116252)
(-1.33738 -2.68878 0.0116727)
(-1.33735 -2.43417 0.0116725)
(-1.33221 -2.19013 0.0116277)
(-1.32226 -1.95617 0.0115409)
(-1.30778 -1.73196 0.0114146)
(-1.28904 -1.51729 0.011251)
(-1.26627 -1.31206 0.0110524)
(-1.23971 -1.11621 0.0108207)
(-1.20959 -0.929768 0.0105578)
(-1.1761 -0.752757 0.0102655)
(-1.13943 -0.58524 0.00994558)
(-1.09977 -0.427297 0.00959948)
(-1.05729 -0.279025 0.00922872)
(-1.01215 -0.140556 0.00883479)
(-0.964519 -0.0120137 0.00841914)
(-0.211033 -47.706 0.00184184)
(0.353413 -46.4442 -0.00308443)
(-0.554064 -36.7123 0.0048357)
(0.90417 -41.0883 -0.00788933)
(1.01802 -47.6287 -0.00888484)
(1.35959 -50.7567 -0.0118665)
(1.22659 -48.363 -0.0107088)
(0.731379 -36.7226 -0.00638693)
(0.179103 -28.5419 -0.00155252)
(-0.039329 -19.7533 0.000371621)
(-0.253513 -9.51927 0.00220838)
(-0.376302 -6.03768 0.00322484)
(-0.465256 -5.95027 0.00404012)
(-0.573956 -5.97381 0.00500075)
(-0.691063 -5.93259 0.00602826)
(-0.802819 -5.80485 0.00700585)
(-0.907062 -5.59376 0.007916)
(-0.997977 -5.32075 0.00870961)
(-1.07584 -5.01088 0.00938931)
(-1.14032 -4.68522 0.00995214)
(-1.19311 -4.35828 0.010413)
(-1.2355 -4.03871 0.0107831)
(-1.26897 -3.73074 0.0110753)
(-1.29458 -3.43587 0.0112989)
(-1.31322 -3.15405 0.0114616)
(-1.3255 -2.8846 0.0115689)
(-1.33194 -2.62665 0.0116252)
(-1.33291 -2.37938 0.0116337)
(-1.32874 -2.14216 0.0115974)
(-1.31972 -1.91452 0.0115187)
(-1.30612 -1.69616 0.0114001)
(-1.28819 -1.48691 0.0112437)
(-1.26617 -1.28668 0.0110516)
(-1.24029 -1.09546 0.0108257)
(-1.21076 -0.913273 0.010568)
(-1.17779 -0.740188 0.0102803)
(-1.14156 -0.576284 0.00996413)
(-1.10226 -0.42166 0.00962116)
(-1.06006 -0.276432 0.00925289)
(-1.01513 -0.140749 0.00886083)
(-0.967649 -0.0147464 0.00844646)
(-0.188929 -47.7023 0.00164892)
(0.311503 -46.3158 -0.00271858)
(-0.464554 -37.0711 0.00405469)
(0.821102 -42.5318 -0.00716472)
(0.790298 -48.399 -0.00689755)
(1.17784 -51.2304 -0.01028)
(1.03028 -48.2655 -0.00899561)
(0.58381 -36.0704 -0.00509783)
(0.0844918 -28.0721 -0.000727277)
(-0.0883921 -19.5014 0.000805523)
(-0.297435 -9.21834 0.00259267)
(-0.398841 -5.88733 0.00343112)
(-0.482366 -5.76464 0.00419154)
(-0.584917 -5.77563 0.005097)
(-0.695537 -5.7323 0.00606754)
(-0.801948 -5.61032 0.00699831)
(-0.902037 -5.41094 0.00787217)
(-0.990259 -5.15295 0.00864227)
(-1.06657 -4.85902 0.00930836)
(-1.13037 -4.5487 0.00986531)
(-1.18306 -4.23583 0.0103253)
(-1.22573 -3.92889 0.0106978)
(-1.2597 -3.63223 0.0109944)
(-1.28597 -3.34756 0.0112238)
(-1.30535 -3.07503 0.011393)
(-1.31846 -2.81411 0.0115074)
(-1.32575 -2.56404 0.0115711)
(-1.32759 -2.32409 0.0115873)
(-1.3243 -2.09366 0.0115587)
(-1.31615 -1.87234 0.0114876)
(-1.30339 -1.65986 0.0113763)
(-1.28626 -1.45605 0.0112268)
(-1.26499 -1.26086 0.0110412)
(-1.2398 -1.07429 0.0108214)
(-1.21089 -0.896412 0.0105691)
(-1.17846 -0.727295 0.0102862)
(-1.14271 -0.567044 0.0099742)
(-1.10382 -0.41578 0.00963479)
(-1.06196 -0.273636 0.00926946)
(-1.0173 -0.140774 0.00887974)
(-0.970019 -0.0173459 0.00846715)
(-0.155626 -47.7012 0.00135826)
(0.252735 -46.2162 -0.00220563)
(-0.35477 -37.4716 0.00309671)
(0.753956 -43.6784 -0.00657901)
(0.652979 -49.0625 -0.00569917)