/*--------------------------------*- C++ -*----------------------------------*\
| =========                 |                                                 |
| \\      /  F ield         | OpenFOAM: The Open Source CFD Toolbox           |
|  \\    /   O peration     | Version:  v2012                                 |
|   \\  /    A nd           | Website:  www.openfoam.com                      |
|    \\/     M anipulation  |                                                 |
\*---------------------------------------------------------------------------*/
FoamFile
{
    version     2.0;
    format      ascii;
    class       surfaceScalarField;
    location    "0.8";
    object      phi;
}
// * * * * * * * * * * * * * * * * * * * * * * * * * * * * * * * * * * * * * //

dimensions      [0 3 -1 0 0 0 0];
oriented        oriented;


internalField   nonuniform List<scalar> 
8212
(
4.86992e-12
-6.90466e-09
-9.38342e-16
2.08288e-11
-2.10516e-08
-1.16614e-15
1.84893e-10
-3.5637e-08
-4.64383e-15
1.79824e-10
-5.00711e-08
-1.65206e-14
4.48998e-10
-6.93072e-08
-3.32936e-15
1.0271e-09
-8.86503e-08
-8.63156e-15
1.52063e-09
-8.93268e-08
-1.96581e-15
1.73047e-09
-7.16039e-08
4.05259e-15
1.74618e-09
-7.72502e-08
-9.80625e-16
1.80547e-09
-8.72974e-08
-1.25206e-15
1.8754e-09
-9.57828e-08
-1.36713e-15
1.94211e-09
-1.02371e-07
-1.40307e-15
1.9972e-09
-1.07275e-07
-1.32772e-15
2.03616e-09
-1.11313e-07
-1.45717e-15
2.05653e-09
-1.15256e-07
-1.32768e-15
2.0565e-09
-1.19454e-07
-1.32605e-15
2.03434e-09
-1.23985e-07
-1.3308e-15
1.98855e-09
-1.28748e-07
-1.3034e-15
1.91796e-09
-1.33564e-07
-1.35008e-15
1.82182e-09
-1.38231e-07
-1.36566e-15
1.69981e-09
-1.42564e-07
-1.4488e-15
1.55199e-09
-1.46417e-07
-1.49491e-15
1.37882e-09
-1.49637e-07
-1.54368e-15
1.18109e-09
-1.52134e-07
-1.57379e-15
9.59957e-10
-1.53798e-07
-1.57523e-15
7.16917e-10
-1.54557e-07
-1.56676e-15
4.53914e-10
-1.54329e-07
-1.5525e-15
1.73459e-10
-1.53023e-07
-1.53093e-15
-1.21332e-10
-1.50591e-07
-1.50715e-15
-4.2646e-10
-1.46925e-07
-1.56125e-15
-7.3694e-10
-1.41964e-07
-1.41177e-15
-1.04655e-09
-1.35628e-07
-1.30842e-15
-1.34754e-09
-1.27835e-07
-1.25041e-15
-1.63026e-09
-1.18513e-07
-1.18567e-15
-1.88265e-09
-1.07595e-07
-1.11345e-15
-2.0894e-09
-9.50221e-08
-1.03359e-15
-2.23035e-09
-8.07436e-08
-9.44572e-16
-2.27856e-09
-6.4733e-08
-8.44518e-16
-4.69815e-08
-7.28545e-16
7.33394e-12
-6.91199e-09
2.7171e-16
2.32439e-11
-2.10675e-08
-3.29884e-15
2.73637e-10
-3.58874e-08
-5.69662e-15
1.44294e-10
-4.99417e-08
-1.63477e-14
5.14067e-10
-6.9677e-08
-5.1495e-15
1.18484e-09
-8.93212e-08
-7.85244e-15
1.77996e-09
-8.99219e-08
-1.37936e-14
1.86861e-09
-7.16926e-08
-2.27486e-17
1.83954e-09
-7.72211e-08
-8.74811e-16
1.90319e-09
-8.73611e-08
-1.33101e-15
1.98738e-09
-9.5867e-08
-1.51372e-15
2.06626e-09
-1.0245e-07
-1.47252e-15
2.12733e-09
-1.07337e-07
-1.41034e-15
2.16578e-09
-1.11352e-07
-1.42603e-15
2.17983e-09
-1.1527e-07
-1.47484e-15
2.1688e-09
-1.19443e-07
-1.34602e-15
2.13224e-09
-1.23948e-07
-1.38985e-15
2.07012e-09
-1.28686e-07
-1.35591e-15
1.98259e-09
-1.33476e-07
-1.43715e-15
1.87e-09
-1.38118e-07
-1.44157e-15
1.73279e-09
-1.42427e-07
-1.55736e-15
1.57142e-09
-1.46256e-07
-1.58536e-15
1.38652e-09
-1.49452e-07
-1.61082e-15
1.17876e-09
-1.51926e-07
-1.59487e-15
9.49094e-10
-1.53569e-07
-1.58396e-15
6.98758e-10
-1.54306e-07
-1.57863e-15
4.2942e-10
-1.54059e-07
-1.56383e-15
1.43337e-10
-1.52737e-07
-1.5436e-15
-1.56591e-10
-1.50291e-07
-1.51903e-15
-4.66547e-10
-1.46615e-07
-1.47832e-15
-7.81706e-10
-1.41649e-07
-1.33115e-15
-1.096e-09
-1.35313e-07
-1.3205e-15
-1.40187e-09
-1.27529e-07
-1.26549e-15
-1.68991e-09
-1.18225e-07
-1.20015e-15
-1.94852e-09
-1.07336e-07
-1.12766e-15
-2.16319e-09
-9.48075e-08
-1.04741e-15
-2.31551e-09
-8.05913e-08
-9.57967e-16
-2.38244e-09
-6.46661e-08
-8.57281e-16
-4.70315e-08
-7.39545e-16
6.88766e-12
-6.91887e-09
1.60254e-16
2.58001e-11
-2.10864e-08
-4.85307e-15
2.56998e-10
-3.61186e-08
-1.06705e-14
1.00407e-10
-4.97851e-08
-1.50634e-14
5.30684e-10
-7.01073e-08
-7.73469e-16
1.13429e-09
-8.99248e-08
-2.13277e-15
1.76216e-09
-9.05498e-08
-6.44245e-15
1.97038e-09
-7.19008e-08
-6.96614e-15
1.98513e-09
-7.72359e-08
-1.35426e-15
2.04247e-09
-8.74184e-08
-1.51063e-15
2.11184e-09
-9.59364e-08
-1.54939e-15
2.17744e-09
-1.02515e-07
-1.51167e-15
2.23036e-09
-1.07389e-07
-1.44828e-15
2.26533e-09
-1.11387e-07
-1.43547e-15
2.27796e-09
-1.15283e-07
-1.47436e-15
2.26493e-09
-1.1943e-07
-1.45317e-15
2.22418e-09
-1.23907e-07
-1.48336e-15
2.15512e-09
-1.28616e-07
-1.43717e-15
2.05813e-09
-1.33379e-07
-1.561e-15
1.93422e-09
-1.37994e-07
-1.5296e-15
1.78455e-09
-1.42277e-07
-1.6215e-15
1.61026e-09
-1.46082e-07
-1.6207e-15
1.41244e-09
-1.49254e-07
-1.64592e-15
1.1921e-09
-1.51706e-07
-1.62473e-15
9.50317e-10
-1.53327e-07
-1.61221e-15
6.88351e-10
-1.54044e-07
-1.59699e-15
4.07811e-10
-1.53779e-07
-1.5774e-15
1.10851e-10
-1.5244e-07
-1.55472e-15
-1.99757e-10
-1.4998e-07
-1.53013e-15
-5.20334e-10
-1.46294e-07
-1.5207e-15
-8.46208e-10
-1.41323e-07
-1.37005e-15
-1.1715e-09
-1.34988e-07
-1.33028e-15
-1.48891e-09
-1.27211e-07
-1.27443e-15
-1.78948e-09
-1.17925e-07
-1.2096e-15
-2.06231e-09
-1.07063e-07
-1.138e-15
-2.29431e-09
-9.45755e-08
-1.05902e-15
-2.46978e-09
-8.04158e-08
-9.71401e-16
-2.57127e-09
-6.45646e-08
-8.7355e-16
-4.70226e-08
-7.59813e-16
8.49404e-12
-6.92736e-09
1.04596e-16
3.62073e-11
-2.11141e-08
-1.16207e-15
2.53434e-10
-3.63359e-08
-4.92852e-15
7.66474e-11
-4.96083e-08
-1.8092e-14
5.58067e-10
-7.05887e-08
-3.37631e-15
1.18702e-09
-9.05537e-08
-4.16948e-15
1.83214e-09
-9.11949e-08
-9.95694e-15
2.02861e-09
-7.20974e-08
-6.66763e-15
2.06619e-09
-7.72734e-08
-1.51035e-15
2.13911e-09
-8.74914e-08
-1.47512e-15
2.21789e-09
-9.60152e-08
-1.54425e-15
2.28993e-09
-1.02587e-07
-1.55618e-15
2.3477e-09
-1.07447e-07
-1.63819e-15
2.38602e-09
-1.11425e-07
-1.59227e-15
2.39952e-09
-1.15296e-07
-1.51375e-15
2.38383e-09
-1.19414e-07
-1.60027e-15
2.33642e-09
-1.2386e-07
-1.63082e-15
2.25699e-09
-1.28537e-07
-1.61706e-15
2.14672e-09
-1.33269e-07
-1.67081e-15
2.00759e-09
-1.37855e-07
-1.53717e-15
1.84174e-09
-1.42112e-07
-1.60075e-15
1.65104e-09
-1.45891e-07
-1.59253e-15
1.43706e-09
-1.4904e-07
-1.63489e-15
1.20106e-09
-1.5147e-07
-1.62775e-15
9.4418e-10
-1.5307e-07
-1.62809e-15
6.67622e-10
-1.53768e-07
-1.61902e-15
3.72861e-10
-1.53484e-07
-1.60108e-15
6.18836e-11
-1.52129e-07
-1.57776e-15
-2.62715e-10
-1.49656e-07
-1.55184e-15
-5.97436e-10
-1.4596e-07
-1.53829e-15
-9.37798e-10
-1.40983e-07
-1.38443e-15
-1.27816e-09
-1.34648e-07
-1.3458e-15
-1.61156e-09
-1.26878e-07
-1.28912e-15
-1.92956e-09
-1.17607e-07
-1.22366e-15
-2.22216e-09
-1.06771e-07
-1.15196e-15
-2.47782e-09
-9.43198e-08
-1.07328e-15
-2.68371e-09
-8.02099e-08
-9.86658e-16
-2.82746e-09
-6.44208e-08
-8.91497e-16
-4.69499e-08
-7.8335e-16
9.13841e-12
-6.9365e-09
6.82458e-16
4.2285e-11
-2.11473e-08
-6.80583e-15
2.07498e-10
-3.65011e-08
-7.12339e-15
3.42559e-11
-4.94351e-08
-1.84357e-14
5.46349e-10
-7.11008e-08
-8.36046e-16
1.18391e-09
-9.11912e-08
-4.23798e-15
1.84226e-09
-9.18533e-08
-9.4696e-15
2.08434e-09
-7.23395e-08
-1.85514e-15
2.13268e-09
-7.73218e-08
-1.07257e-15
2.20982e-09
-8.75685e-08
-1.44176e-15
2.29251e-09
-9.60979e-08
-1.57723e-15
2.36829e-09
-1.02663e-07
-1.57804e-15
2.43044e-09
-1.07509e-07
-1.66172e-15
2.4734e-09
-1.11468e-07
-1.64754e-15
2.49097e-09
-1.15314e-07
-1.61047e-15
2.47736e-09
-1.194e-07
-1.60797e-15
2.42895e-09
-1.23811e-07
-1.63809e-15
2.34484e-09
-1.28453e-07
-1.65264e-15
2.22628e-09
-1.33151e-07
-1.68016e-15
2.07579e-09
-1.37704e-07
-1.6844e-15
1.89621e-09
-1.41932e-07
-1.78239e-15
1.69015e-09
-1.45685e-07
-1.73923e-15
1.45983e-09
-1.4881e-07
-1.73502e-15
1.20696e-09
-1.51217e-07
-1.696e-15
9.3297e-10
-1.52796e-07
-1.6743e-15
6.39209e-10
-1.53474e-07
-1.65438e-15
3.27169e-10
-1.53172e-07
-1.63151e-15
-1.20902e-12
-1.51801e-07
-1.60551e-15
-3.43432e-10
-1.49313e-07
-1.57771e-15
-6.96128e-10
-1.45607e-07
-1.56378e-15
-1.05499e-09
-1.40624e-07
-1.40306e-15
-1.4146e-09
-1.34288e-07
-1.36444e-15
-1.76835e-09
-1.26524e-07
-1.30696e-15
-2.10834e-09
-1.17267e-07
-1.24066e-15
-2.42549e-09
-1.06453e-07
-1.16837e-15
-2.70976e-09
-9.40355e-08
-1.08936e-15
-2.95084e-09
-7.99688e-08
-1.00302e-15
-3.14017e-09
-6.42315e-08
-9.10134e-16
-4.68158e-08
-8.08442e-16
9.97472e-12
-6.94647e-09
3.30518e-16
4.97045e-11
-2.1187e-08
-3.93172e-15
1.54479e-10
-3.66059e-08
-7.87246e-15
1.09155e-11
-4.92915e-08
-1.59326e-14
5.34062e-10
-7.16239e-08
-3.22289e-15
1.19082e-09
-9.1848e-08
-1.01329e-14
1.84309e-09
-9.25056e-08
-1.00395e-14
2.10219e-09
-7.25985e-08
-1.39113e-15
2.16374e-09
-7.73833e-08
-1.64201e-15
2.25001e-09
-8.76548e-08
-1.66871e-15
2.34171e-09
-9.61896e-08
-1.65515e-15
2.42609e-09
-1.02748e-07
-1.74364e-15
2.49599e-09
-1.07579e-07
-1.73473e-15
2.54518e-09
-1.11517e-07
-1.76821e-15
2.56708e-09
-1.15336e-07
-1.75835e-15
2.55528e-09
-1.19389e-07
-1.65048e-15
2.50566e-09
-1.23762e-07
-1.73642e-15
2.41707e-09
-1.28364e-07
-1.76779e-15
2.29086e-09
-1.33024e-07
-1.77345e-15
2.12987e-09
-1.37543e-07
-1.68859e-15
1.93746e-09
-1.4174e-07
-1.77132e-15
1.71676e-09
-1.45464e-07
-1.74547e-15
1.47045e-09
-1.48563e-07
-1.75825e-15
1.2006e-09
-1.50947e-07
-1.73334e-15
9.0887e-10
-1.52504e-07
-1.71574e-15
5.96739e-10
-1.53162e-07
-1.69691e-15
2.65758e-10
-1.52841e-07
-1.6726e-15
-8.21395e-11
-1.51453e-07
-1.6434e-15
-4.44502e-10
-1.48951e-07
-1.61181e-15
-8.18033e-10
-1.45233e-07
-1.59537e-15
-1.19854e-09
-1.40243e-07
-1.42843e-15
-1.5808e-09
-1.33906e-07
-1.38702e-15
-1.95847e-09
-1.26147e-07
-1.3277e-15
-2.32419e-09
-1.16901e-07
-1.25994e-15
-2.66964e-09
-1.06108e-07
-1.18651e-15
-2.98607e-09
-9.37191e-08
-1.10655e-15
-3.26507e-09
-7.96898e-08
-1.01981e-15
-3.50053e-09
-6.39961e-08
-9.28567e-16
-4.66247e-08
-8.33381e-16
1.06744e-11
-6.95714e-09
8.25323e-16
5.28364e-11
-2.12292e-08
-6.80592e-15
8.51634e-11
-3.66382e-08
-1.08839e-14
-1.24712e-11
-4.91938e-08
-9.9159e-15
5.03837e-10
-7.21402e-08
-8.32381e-16
1.18773e-09
-9.25319e-08
-8.90074e-15
1.82886e-09
-9.31467e-08
-1.14303e-14
2.11692e-09
-7.28866e-08
-2.1312e-15
2.18422e-09
-7.74506e-08
-1.83197e-15
2.27357e-09
-8.77441e-08
-1.93624e-15
2.36956e-09
-9.62856e-08
-1.91037e-15
2.45873e-09
-1.02837e-07
-1.98253e-15
2.53336e-09
-1.07654e-07
-1.96797e-15
2.58664e-09
-1.1157e-07
-2.01832e-15
2.61178e-09
-1.15361e-07
-1.97099e-15
2.60192e-09
-1.19379e-07
-1.83663e-15
2.55242e-09
-1.23712e-07
-1.9031e-15
2.46158e-09
-1.28273e-07
-1.88019e-15
2.33043e-09
-1.32893e-07
-1.90104e-15
2.16173e-09
-1.37375e-07
-1.81598e-15
1.95898e-09
-1.41537e-07
-1.87573e-15
1.72559e-09
-1.45231e-07
-1.83124e-15
1.46459e-09
-1.48302e-07
-1.82417e-15
1.17836e-09
-1.50661e-07
-1.79072e-15
8.68812e-10
-1.52195e-07
-1.7627e-15
5.37621e-10
-1.52831e-07
-1.73932e-15
1.86461e-10
-1.5249e-07
-1.71229e-15
-1.82659e-10
-1.51084e-07
-1.6806e-15
-5.67257e-10
-1.48566e-07
-1.64633e-15
-9.6404e-10
-1.44837e-07
-1.62866e-15
-1.36886e-09
-1.39838e-07
-1.45567e-15
-1.77662e-09
-1.33498e-07
-1.41164e-15
-2.18121e-09
-1.25742e-07
-1.35022e-15
-2.57561e-09
-1.16507e-07
-1.28075e-15
-2.95218e-09
-1.05731e-07
-1.20581e-15
-3.30308e-09
-9.33682e-08
-1.12444e-15
-3.6212e-09
-7.93717e-08
-1.03673e-15
-3.90171e-09
-6.37156e-08
-9.46354e-16
-4.63823e-08
-8.56763e-16
1.1446e-11
-6.96859e-09
2.508e-16
5.41819e-11
-2.12719e-08
-3.70895e-15
1.71839e-11
-3.66012e-08
-1.44747e-14
-2.40289e-11
-4.91526e-08
-1.1113e-14
4.7551e-10
-7.26398e-08
-4.18928e-15
1.19486e-09
-9.32513e-08
-7.63866e-15
1.8106e-09
-9.37624e-08
-1.09645e-14
2.11409e-09
-7.31901e-08
-5.58687e-15
2.18616e-09
-7.75227e-08
-2.46937e-15
2.27882e-09
-8.78368e-08
-2.40402e-15
2.37825e-09
-9.6385e-08
-2.36395e-15
2.47092e-09
-1.02929e-07
-2.37605e-15
2.54858e-09
-1.07732e-07
-2.25992e-15
2.60399e-09
-1.11626e-07
-2.27493e-15
2.6304e-09
-1.15387e-07
-2.15937e-15
2.6209e-09
-1.19369e-07
-2.0365e-15
2.57065e-09
-1.23662e-07
-2.1161e-15
2.47757e-09
-1.2818e-07
-2.03829e-15
2.3423e-09
-1.32758e-07
-2.04565e-15
2.1673e-09
-1.372e-07
-1.94749e-15
1.95592e-09
-1.41325e-07
-1.9833e-15
1.71155e-09
-1.44987e-07
-1.92048e-15
1.43731e-09
-1.48028e-07
-1.89705e-15
1.13571e-09
-1.50359e-07
-1.85772e-15
8.08841e-10
-1.51868e-07
-1.82247e-15
4.58516e-10
-1.5248e-07
-1.7942e-15
8.65566e-11
-1.52118e-07
-1.76292e-15
-3.04902e-10
-1.50692e-07
-1.72634e-15
-7.13279e-10
-1.48158e-07
-1.6874e-15
-1.1352e-09
-1.44415e-07
-1.6665e-15
-1.56649e-09
-1.39407e-07
-1.48585e-15
-2.00207e-09
-1.33062e-07
-1.43861e-15
-2.43593e-09
-1.25308e-07
-1.37451e-15
-2.86133e-09
-1.16081e-07
-1.30282e-15
-3.27101e-09
-1.05322e-07
-1.22595e-15
-3.65774e-09
-9.29815e-08
-1.14277e-15
-4.0151e-09
-7.90143e-08
-1.05371e-15
-4.33869e-09
-6.3392e-08
-9.63468e-16
-4.60935e-08
-8.7813e-16
1.22247e-11
-6.98081e-09
8.26677e-16
5.2522e-11
-2.13122e-08
-5.39583e-15
-4.54595e-11
-3.65033e-08
-1.84968e-14
-3.61407e-11
-4.91619e-08
-3.22278e-15
4.49945e-10
-7.31259e-08
-3.605e-15
1.21275e-09
-9.40141e-08
-7.95187e-15
1.79216e-09
-9.43418e-08
-1.40147e-14
2.10683e-09
-7.35047e-08
-4.56151e-15
2.17794e-09
-7.75938e-08
-2.93183e-15
2.26991e-09
-8.79288e-08
-2.97844e-15
2.36867e-09
-9.64838e-08
-2.92688e-15
2.46086e-09
-1.03022e-07
-2.8826e-15
2.53793e-09
-1.07809e-07
-2.74866e-15
2.59252e-09
-1.1168e-07
-2.64341e-15
2.61804e-09
-1.15413e-07
-2.4698e-15
2.60766e-09
-1.19359e-07
-2.29481e-15
2.55636e-09
-1.23611e-07
-2.34234e-15
2.46159e-09
-1.28086e-07
-2.21935e-15
2.32342e-09
-1.3262e-07
-2.19726e-15
2.14379e-09
-1.3702e-07
-2.08659e-15
1.92562e-09
-1.41107e-07
-2.10105e-15
1.67206e-09
-1.44733e-07
-2.01999e-15
1.3861e-09
-1.47742e-07
-1.97337e-15
1.07024e-09
-1.50043e-07
-1.92446e-15
7.26676e-10
-1.51524e-07
-1.88004e-15
3.57338e-10
-1.52111e-07
-1.84639e-15
-3.57955e-11
-1.51725e-07
-1.81078e-15
-4.5042e-10
-1.50278e-07
-1.77021e-15
-8.83791e-10
-1.47725e-07
-1.72707e-15
-1.33238e-09
-1.43966e-07
-1.70368e-15
-1.79188e-09
-1.38948e-07
-1.5156e-15
-2.25714e-09
-1.32597e-07
-1.46578e-15
-2.72214e-09
-1.24843e-07
-1.39921e-15
-3.18023e-09
-1.15623e-07
-1.32533e-15
-3.62436e-09
-1.04878e-07
-1.24641e-15
-4.04755e-09
-9.25583e-08
-1.16127e-15
-4.44362e-09
-7.86182e-08
-1.07071e-15
-4.80796e-09
-6.30276e-08
-9.8013e-16
-4.57633e-08
-8.97736e-16
1.30044e-11
-6.99382e-09
2.22199e-16
5.07022e-11
-2.13499e-08
-2.67897e-15
-9.16527e-11
-3.63609e-08
-1.84571e-14
-5.24723e-11
-4.9201e-08
-5.61498e-15
4.40061e-10
-7.36184e-08
-1.3111e-15
1.24571e-09
-9.48197e-08
-5.43232e-15
1.77138e-09
-9.48674e-08
-6.16423e-15
2.08799e-09
-7.38214e-08
-6.83943e-15
2.15456e-09
-7.76603e-08
-3.44552e-15
2.24376e-09
-8.8018e-08
-3.67698e-15
2.33927e-09
-9.65793e-08
-3.61908e-15
2.42828e-09
-1.03111e-07
-3.56508e-15
2.50224e-09
-1.07883e-07
-3.29121e-15
2.55387e-09
-1.11732e-07
-3.102e-15
2.57675e-09
-1.15435e-07
-2.87317e-15
2.56426e-09
-1.19346e-07
-2.61579e-15
2.51127e-09
-1.23558e-07
-2.62736e-15
2.4148e-09
-1.27989e-07
-2.48005e-15
2.27433e-09
-1.32479e-07
-2.39991e-15
2.0911e-09
-1.36837e-07
-2.19236e-15
1.86745e-09
-1.40884e-07
-2.18321e-15
1.60606e-09
-1.44472e-07
-2.10231e-15
1.30961e-09
-1.47446e-07
-2.04797e-15
9.80475e-10
-1.49714e-07
-1.99555e-15
6.20801e-10
-1.51165e-07
-1.94476e-15
2.32616e-10
-1.51723e-07
-1.90506e-15
-1.81951e-10
-1.5131e-07
-1.86435e-15
-6.20399e-10
-1.49839e-07
-1.81821e-15
-1.07976e-09
-1.47265e-07
-1.77012e-15
-1.55627e-09
-1.4349e-07
-1.74284e-15
-2.04541e-09
-1.38458e-07
-1.54665e-15
-2.54184e-09
-1.32101e-07
-1.49369e-15
-3.03943e-09
-1.24345e-07
-1.42434e-15
-3.53144e-09
-1.15131e-07
-1.34797e-15
-4.01081e-09
-1.04398e-07
-1.26684e-15
-4.47057e-09
-9.20985e-08
-1.17966e-15
-4.90439e-09
-7.81844e-08
-1.08764e-15
-5.30709e-09
-6.26249e-08
-9.96477e-16
-4.53955e-08
-9.16052e-16
1.36887e-11
-7.00751e-09
3.6961e-16
4.94812e-11
-2.13857e-08
-2.98384e-15
-1.22947e-10
-3.61885e-08
-2.22238e-14
-8.30164e-11
-4.92409e-08
4.11059e-16
4.49927e-10
-7.41513e-08
-1.83686e-15
1.28589e-09
-9.56557e-08
-7.16442e-15
1.73901e-09
-9.53205e-08
-7.43434e-15
2.05858e-09
-7.41409e-08
-6.65034e-15
2.11665e-09
-7.77184e-08
-4.28611e-15
2.19946e-09
-8.81008e-08
-4.52281e-15
2.28831e-09
-9.66681e-08
-4.45161e-15
2.37106e-09
-1.03193e-07
-4.42212e-15
2.43946e-09
-1.07951e-07
-3.99502e-15
2.48634e-09
-1.11779e-07
-3.70771e-15
2.50547e-09
-1.15455e-07
-3.33376e-15
2.49036e-09
-1.19331e-07
-2.91351e-15
2.43567e-09
-1.23503e-07
-2.86195e-15
2.33794e-09
-1.27891e-07
-2.6682e-15
2.19593e-09
-1.32337e-07
-2.52579e-15
2.01011e-09
-1.36651e-07
-2.34129e-15
1.78209e-09
-1.40656e-07
-2.31279e-15
1.51394e-09
-1.44204e-07
-2.20791e-15
1.20793e-09
-1.4714e-07
-2.12524e-15
8.66171e-10
-1.49372e-07
-2.06134e-15
4.90743e-10
-1.50789e-07
-2.00296e-15
8.37164e-11
-1.51316e-07
-1.95821e-15
-3.52628e-10
-1.50874e-07
-1.91336e-15
-8.15557e-10
-1.49376e-07
-1.86285e-15
-1.30183e-09
-1.46779e-07
-1.81029e-15
-1.80738e-09
-1.42984e-07
-1.77981e-15
-2.32737e-09
-1.37938e-07
-1.576e-15
-2.8562e-09
-1.31572e-07
-1.52039e-15
-3.38748e-09
-1.23814e-07
-1.44854e-15
-3.91425e-09
-1.14604e-07
-1.3699e-15
-4.42927e-09
-1.03883e-07
-1.28664e-15
-4.92534e-09
-9.16024e-08
-1.19755e-15
-5.39571e-09
-7.7714e-08
-1.10423e-15
-5.83444e-09
-6.21862e-08
-1.01246e-15
-4.49938e-08
-9.33354e-16
1.42517e-11
-7.02177e-09
2.81228e-16
4.94928e-11
-2.1421e-08
-1.63939e-15
-1.45471e-10
-3.59936e-08
-1.9393e-14
-1.31732e-10
-4.92547e-08
-3.01369e-15
4.79471e-10
-7.47625e-08
-9.42589e-16
1.31764e-09
-9.64938e-08
-4.4645e-15
1.67929e-09
-9.56822e-08
-6.25111e-15
2.01226e-09
-7.44739e-08
-9.0745e-15
2.06038e-09
-7.77665e-08
-4.2753e-15
2.13382e-09
-8.81743e-08
-5.46705e-15
2.21339e-09
-9.67477e-08
-5.25852e-15
2.28784e-09
-1.03268e-07
-5.11212e-15
2.34938e-09
-1.08013e-07
-4.76325e-15
2.39086e-09
-1.1182e-07
-4.16059e-15
2.40602e-09
-1.1547e-07
-3.78012e-15
2.38843e-09
-1.19314e-07
-3.21896e-15
2.3324e-09
-1.23447e-07
-3.14016e-15
2.23395e-09
-1.27793e-07
-2.90516e-15
2.09104e-09
-1.32194e-07
-2.72016e-15
1.90332e-09
-1.36463e-07
-2.4741e-15
1.6716e-09
-1.40424e-07
-2.42253e-15
1.3973e-09
-1.43929e-07
-2.31167e-15
1.08216e-09
-1.46824e-07
-2.21517e-15
7.2802e-10
-1.49018e-07
-2.14161e-15
3.36813e-10
-1.50398e-07
-2.07307e-15
-8.93522e-11
-1.5089e-07
-2.01897e-15
-5.48029e-10
-1.50415e-07
-1.96709e-15
-1.03622e-09
-1.48888e-07
-1.90989e-15
-1.55036e-09
-1.46265e-07
-1.85185e-15
-2.08601e-09
-1.42448e-07
-1.817e-15
-2.63796e-09
-1.37386e-07
-1.60523e-15
-3.20022e-09
-1.3101e-07
-1.54649e-15
-3.76604e-09
-1.23248e-07
-1.47195e-15
-4.32813e-09
-1.14042e-07
-1.39091e-15
-4.87892e-09
-1.03332e-07
-1.30551e-15
-5.41077e-09
-9.10706e-08
-1.2146e-15
-5.9164e-09
-7.72083e-08
-1.12019e-15
-6.38894e-09
-6.17137e-08
-1.02784e-15
-4.4561e-08
-9.4964e-16
1.46553e-11
-7.03643e-09
-2.40262e-16
5.01501e-11
-2.14565e-08
-1.71988e-15
-1.68171e-10
-3.57752e-08
-2.02648e-14
-1.99591e-10
-4.92232e-08
-1.567e-16
5.16233e-10
-7.54783e-08
-1.34528e-15
1.31445e-09
-9.7292e-08
-7.27276e-15
1.57515e-09
-9.59429e-08
-5.86541e-15
1.94587e-09
-7.48447e-08
-8.54965e-15
1.98468e-09
-7.78053e-08
-4.98286e-15
2.04557e-09
-8.82351e-08
-6.35891e-15
2.1133e-09
-9.68155e-08
-6.19652e-15
2.17784e-09
-1.03332e-07
-6.02216e-15
2.23196e-09
-1.08067e-07
-5.50376e-15
2.26823e-09
-1.11857e-07
-4.80019e-15
2.28011e-09
-1.15482e-07
-4.23812e-15
2.2609e-09
-1.19295e-07
-3.59471e-15
2.20446e-09
-1.23391e-07
-3.41047e-15
2.10613e-09
-1.27695e-07
-3.10445e-15
1.96304e-09
-1.32051e-07
-2.88003e-15
1.77397e-09
-1.36274e-07
-2.61428e-15
1.53891e-09
-1.40189e-07
-2.52295e-15
1.25859e-09
-1.43649e-07
-2.38818e-15
9.34276e-10
-1.465e-07
-2.27273e-15
5.67459e-10
-1.48651e-07
-2.19442e-15
1.59968e-10
-1.49991e-07
-2.12372e-15
-2.8604e-10
-1.50444e-07
-2.06718e-15
-7.67929e-10
-1.49933e-07
-2.01264e-15
-1.2824e-09
-1.48374e-07
-1.95141e-15
-1.8255e-09
-1.45722e-07
-1.88913e-15
-2.39236e-09
-1.41882e-07
-1.85079e-15
-2.97732e-09
-1.36801e-07
-1.63172e-15
-3.57391e-09
-1.30413e-07
-1.57031e-15
-4.17496e-09
-1.22647e-07
-1.49342e-15
-4.77272e-09
-1.13445e-07
-1.41028e-15
-5.35916e-09
-1.02746e-07
-1.32297e-15
-5.92613e-09
-9.05036e-08
-1.23045e-15
-6.46564e-09
-7.66688e-08
-1.13518e-15
-6.96994e-09
-6.12094e-08
-1.04232e-15
-4.40999e-08
-9.6472e-16
1.49008e-11
-7.05133e-09
-1.47691e-16
5.1186e-11
-2.14927e-08
-1.26091e-15
-1.97813e-10
-3.55262e-08
-1.79099e-14
-2.84143e-10
-4.91369e-08
1.01783e-15
5.36663e-10
-7.62992e-08
-2.48971e-15
1.24616e-09
-9.80015e-08
-1.1083e-14
1.41522e-09
-9.61119e-08
-2.79735e-15
1.85702e-09
-7.52865e-08
-5.1423e-15
1.88895e-09
-7.78372e-08
-9.1545e-15
1.93451e-09
-8.82807e-08
-7.62279e-15
1.98838e-09
-9.68693e-08
-7.01365e-15
2.0422e-09
-1.03386e-07
-6.83516e-15
2.08933e-09
-1.08114e-07
-6.1637e-15
2.12151e-09
-1.11889e-07
-5.33495e-15
2.13153e-09
-1.15492e-07
-4.6498e-15
2.11215e-09
-1.19275e-07
-3.96443e-15
2.05653e-09
-1.23335e-07
-3.67403e-15
1.95923e-09
-1.27597e-07
-3.31235e-15
1.81651e-09
-1.31909e-07
-3.06895e-15
1.62629e-09
-1.36084e-07
-2.75171e-15
1.38776e-09
-1.3995e-07
-2.63836e-15
1.10101e-09
-1.43362e-07
-2.49549e-15
7.6683e-10
-1.46166e-07
-2.36332e-15
3.86451e-10
-1.48271e-07
-2.27189e-15
-3.83847e-11
-1.49566e-07
-2.18945e-15
-5.0543e-10
-1.49977e-07
-2.12262e-15
-1.01181e-09
-1.49427e-07
-2.06082e-15
-1.55387e-09
-1.47832e-07
-1.9929e-15
-2.12723e-09
-1.45148e-07
-1.9254e-15
-2.72651e-09
-1.41282e-07
-1.88297e-15
-3.34554e-09
-1.36182e-07
-1.6566e-15
-3.97733e-09
-1.29781e-07
-1.59236e-15
-4.61417e-09
-1.22011e-07
-1.51314e-15
-5.24779e-09
-1.12811e-07
-1.42796e-15
-5.86962e-09
-1.02124e-07
-1.33888e-15
-6.47091e-09
-8.99023e-08
-1.24492e-15
-7.04293e-09
-7.60967e-08
-1.14901e-15
-7.57704e-09
-6.06753e-08
-1.05566e-15
-4.36128e-08
-9.7839e-16
1.49715e-11
-7.06631e-09
-6.00472e-16
5.20128e-11
-2.15298e-08
-7.91987e-16
-2.39637e-10
-3.52346e-08
-1.49979e-14
-3.85725e-10
-4.89908e-08
5.02249e-16
5.07674e-10
-7.71926e-08
-2.68555e-15
1.08889e-09
-9.85828e-08
-1.35289e-14
1.20246e-09
-9.62255e-08
-4.15184e-16
1.74887e-09
-7.58329e-08
-6.72409e-15
1.77582e-09
-7.78642e-08
-9.63522e-15
1.80327e-09
-8.83082e-08
-8.31505e-15
1.84148e-09
-9.69075e-08
-7.77023e-15
1.88425e-09
-1.03429e-07
-7.47352e-15
1.92539e-09
-1.08155e-07
-6.71425e-15
1.95521e-09
-1.11919e-07
-5.72783e-15
1.96531e-09
-1.15502e-07
-4.9423e-15
1.94752e-09
-1.19257e-07
-4.23793e-15
1.89408e-09
-1.23282e-07
-3.8266e-15
1.79867e-09
-1.27502e-07
-3.45713e-15
1.65662e-09
-1.31766e-07
-3.17058e-15
1.46502e-09
-1.35892e-07
-2.85587e-15
1.22234e-09
-1.39708e-07
-2.71712e-15
9.28113e-10
-1.43068e-07
-2.55701e-15
5.82739e-10
-1.45821e-07
-2.40964e-15
1.87257e-10
-1.47876e-07
-2.31445e-15
-2.56594e-10
-1.49122e-07
-2.23078e-15
-7.46406e-10
-1.49487e-07
-2.16213e-15
-1.279e-09
-1.48894e-07
-2.09848e-15
-1.85031e-09
-1.4726e-07
-2.02713e-15
-2.45546e-09
-1.44543e-07
-1.95603e-15
-3.08852e-09
-1.40649e-07
-1.91066e-15
-3.74273e-09
-1.35528e-07
-1.67776e-15
-4.41055e-09
-1.29113e-07
-1.61131e-15
-5.08366e-09
-1.21337e-07
-1.53024e-15
-5.75324e-09
-1.12141e-07
-1.44349e-15
-6.41008e-09
-1.01467e-07
-1.35298e-15
-7.04481e-09
-8.92676e-08
-1.25788e-15
-7.64795e-09
-7.54936e-08
-1.16152e-15
-8.21002e-09
-6.01132e-08
-1.06772e-15
-4.31018e-08
-9.90502e-16
1.48792e-11
-7.08119e-09
-2.70415e-16
5.22325e-11
-2.15671e-08
-1.61399e-15
-2.95527e-10
-3.48868e-08
-1.2763e-14
-5.05227e-10
-4.87811e-08
6.60726e-16
4.03772e-10
-7.81016e-08
-4.27631e-15
8.43324e-10
-9.90224e-08
-1.51429e-14
9.61392e-10
-9.63436e-08
4.79205e-17
1.63003e-09
-7.65015e-08
-2.5612e-15
1.65034e-09
-7.78845e-08
-9.84383e-15
1.65694e-09
-8.83148e-08
-8.95054e-15
1.67809e-09
-9.69287e-08
-8.76901e-15
1.70996e-09
-1.03461e-07
-8.29443e-15
1.74657e-09
-1.08192e-07
-7.3812e-15
1.7761e-09
-1.11948e-07
-6.41546e-15
1.78839e-09
-1.15514e-07
-5.41468e-15
1.77394e-09
-1.19243e-07
-4.77493e-15
1.72386e-09
-1.23232e-07
-4.05067e-15
1.63079e-09
-1.27409e-07
-3.68495e-15
1.48919e-09
-1.31625e-07
-3.33241e-15
1.29537e-09
-1.35699e-07
-2.93712e-15
1.04717e-09
-1.39459e-07
-2.78587e-15
7.43684e-10
-1.42764e-07
-2.62803e-15
3.85045e-10
-1.45462e-07
-2.47115e-15
-2.77822e-11
-1.47463e-07
-2.36799e-15
-4.9296e-10
-1.48657e-07
-2.27688e-15
-1.00783e-09
-1.48972e-07
-2.20124e-15
-1.56883e-09
-1.48333e-07
-2.13292e-15
-2.17141e-09
-1.46658e-07
-2.05704e-15
-2.81013e-09
-1.43905e-07
-1.98248e-15
-3.47848e-09
-1.39981e-07
-1.93465e-15
-4.16908e-09
-1.34838e-07
-1.69571e-15
-4.87374e-09
-1.28409e-07
-1.62746e-15
-5.58356e-09
-1.20628e-07
-1.54494e-15
-6.28907e-09
-1.11436e-07
-1.45695e-15
-6.98046e-09
-1.00776e-07
-1.36536e-15
-7.64768e-09
-8.86004e-08
-1.26938e-15
-8.28055e-09
-7.48607e-08
-1.17275e-15
-8.86878e-09
-5.9525e-08
-1.07847e-15
-4.25691e-08
-1.00103e-15
1.4606e-11
-7.09581e-09
-1.21499e-15
5.13508e-11
-2.16039e-08
-1.07254e-15
-3.65042e-10
-3.44704e-08
-1.02679e-14
-6.39e-10
-4.85072e-08
1.92272e-16
2.28203e-10
-7.89688e-08
-3.80824e-15
5.47524e-10
-9.93417e-08
-1.21145e-14
7.36236e-10
-9.65323e-08
1.99847e-15
1.51336e-09
-7.72786e-08
3.52611e-16
1.52022e-09
-7.78914e-08
-1.0683e-14
1.50315e-09
-8.82977e-08
-9.35251e-15
1.50622e-09
-9.69318e-08
-9.21135e-15
1.52765e-09
-1.03482e-07
-8.63846e-15
1.56133e-09
-1.08225e-07
-7.63624e-15
1.59263e-09
-1.11979e-07
-6.66999e-15
1.60903e-09
-1.1553e-07
-5.5775e-15
1.59931e-09
-1.19233e-07
-4.92161e-15
1.55324e-09
-1.23185e-07
-4.09983e-15
1.46237e-09
-1.27318e-07
-3.7606e-15
1.3203e-09
-1.31483e-07
-3.36242e-15
1.12263e-09
-1.35501e-07
-2.99244e-15
8.66741e-10
-1.39203e-07
-2.82857e-15
5.51407e-10
-1.42449e-07
-2.65913e-15
1.76658e-10
-1.45087e-07
-2.49348e-15
-2.56479e-10
-1.4703e-07
-2.39239e-15
-7.45943e-10
-1.48167e-07
-2.30454e-15
-1.28871e-09
-1.48429e-07
-2.22946e-15
-1.88076e-09
-1.47741e-07
-2.16035e-15
-2.51697e-09
-1.46022e-07
-2.08172e-15
-3.19131e-09
-1.4323e-07
-2.00419e-15
-3.89661e-09
-1.39276e-07
-1.95449e-15
-4.62483e-09
-1.34109e-07
-1.70978e-15
-5.36717e-09
-1.27666e-07
-1.64031e-15
-6.11405e-09
-1.19881e-07
-1.5569e-15
-6.8554e-09
-1.10694e-07
-1.46823e-15
-7.58078e-09
-1.00051e-07
-1.37599e-15
-8.27949e-09
-8.79017e-08
-1.27947e-15
-8.94065e-09
-7.41995e-08
-1.18276e-15
-9.55329e-09
-5.89124e-08
-1.08797e-15
-4.20165e-08
-1.01005e-15
1.4176e-11
-7.10998e-09
-4.96086e-16
4.95442e-11
-2.16392e-08
-1.6282e-15
-4.42281e-10
-3.39786e-08
-1.0484e-14
-7.62994e-10
-4.81865e-08
4.9836e-15
3.38916e-11
-7.97657e-08
-8.68615e-15
2.78267e-10
-9.9586e-08
-1.45616e-14
5.78903e-10
-9.6833e-08
-2.64345e-16
1.41069e-09
-7.81104e-08
4.68315e-16
1.39461e-09
-7.78753e-08
-1.02746e-14
1.35137e-09
-8.82545e-08
-9.6263e-15
1.33595e-09
-9.69164e-08
-9.58593e-15
1.34768e-09
-1.03494e-07
-8.91371e-15
1.37997e-09
-1.08258e-07
-7.89182e-15
1.41476e-09
-1.12014e-07
-6.80663e-15
1.43665e-09
-1.15552e-07
-5.74354e-15
1.43235e-09
-1.19229e-07
-5.04219e-15
1.39013e-09
-1.23143e-07
-4.16951e-15
1.30042e-09
-1.27228e-07
-3.84101e-15
1.15599e-09
-1.31338e-07
-3.43808e-15
9.51932e-10
-1.35297e-07
-3.02771e-15
6.85256e-10
-1.38937e-07
-2.85707e-15
3.54621e-10
-1.42118e-07
-2.69069e-15
-3.98867e-11
-1.44693e-07
-2.51995e-15
-4.9702e-10
-1.46572e-07
-2.41567e-15
-1.01435e-09
-1.4765e-07
-2.32503e-15
-1.58839e-09
-1.47855e-07
-2.24693e-15
-2.21454e-09
-1.47115e-07
-2.17657e-15
-2.88706e-09
-1.45349e-07
-2.0966e-15
-3.59925e-09
-1.42518e-07
-2.01823e-15
-4.34327e-09
-1.38532e-07
-1.96872e-15
-5.11041e-09
-1.33342e-07
-1.71953e-15
-5.8912e-09
-1.26886e-07
-1.64984e-15
-6.67545e-09
-1.19096e-07
-1.56628e-15
-7.45244e-09
-1.09917e-07
-1.4775e-15
-8.21116e-09
-9.9292e-08
-1.38509e-15
-8.94026e-09
-8.71726e-08
-1.28836e-15
-9.62825e-09
-7.35114e-08
-1.19175e-15
-1.02635e-08
-5.82771e-08
-1.09642e-15
-4.14462e-08
-1.01779e-15
1.35809e-11
-7.12357e-09
-1.34953e-15
4.81555e-11
-2.16738e-08
-7.54343e-16
-5.11968e-10
-3.34184e-08
-7.66406e-15
-8.18933e-10
-4.78795e-08
7.49885e-15
-7.68084e-11
-8.05078e-08
-5.05591e-15
1.32281e-10
-9.97951e-08
-8.88999e-15
5.30803e-10
-9.72315e-08
3.61571e-15
1.32907e-09
-7.89086e-08
-5.3512e-17
1.28303e-09
-7.78293e-08
-1.04608e-14
1.21206e-09
-8.81835e-08
-9.58502e-15
1.17852e-09
-9.68828e-08
-9.75573e-15
1.18152e-09
-1.03497e-07
-8.96438e-15
1.21371e-09
-1.0829e-07
-7.95372e-15
1.2531e-09
-1.12054e-07
-6.86903e-15
1.28101e-09
-1.1558e-07
-5.77015e-15
1.28182e-09
-1.1923e-07
-5.09656e-15
1.24222e-09
-1.23104e-07
-4.18697e-15
1.15154e-09
-1.27138e-07
-3.86627e-15
1.00184e-09
-1.31189e-07
-3.44719e-15
7.87799e-10
-1.35083e-07
-3.04641e-15
5.06285e-10
-1.38655e-07
-2.87735e-15
1.56013e-10
-1.41768e-07
-2.70875e-15
-2.62687e-10
-1.44274e-07
-2.53333e-15
-7.48182e-10
-1.46087e-07
-2.43149e-15
-1.29754e-09
-1.47101e-07
-2.34398e-15
-1.90667e-09
-1.47246e-07
-2.26583e-15
-2.57032e-09
-1.46452e-07
-2.19402e-15
-3.28206e-09
-1.44637e-07
-2.11134e-15
-4.03449e-09
-1.41766e-07
-2.03038e-15
-4.81906e-09
-1.37747e-07
-1.98044e-15
-5.62638e-09
-1.32535e-07
-1.72627e-15
-6.44635e-09
-1.26066e-07
-1.65664e-15
-7.26815e-09
-1.18275e-07
-1.57338e-15
-8.08049e-09
-1.09105e-07
-1.48503e-15
-8.87176e-09
-9.85008e-08
-1.39289e-15
-9.63007e-09
-8.64143e-08
-1.29628e-15
-1.03433e-08
-7.27981e-08
-1.19993e-15
-1.09994e-08
-5.7621e-08
-1.10407e-15
-4.08599e-08
-1.02451e-15
1.29067e-11
-7.13647e-09
-5.37819e-17
5.01182e-11
-2.1711e-08
-1.00899e-15
-5.4727e-10
-3.28211e-08
-7.96548e-15
-7.14895e-10
-4.77119e-08
1.24452e-14
1.9546e-11
-8.12422e-08
-9.15976e-15
1.9716e-10
-9.99727e-08
-8.21594e-15
6.12088e-10
-9.76464e-08
-1.36561e-15
1.2753e-09
-7.95718e-08
2.78472e-15
1.19504e-09
-7.7749e-08
-1.00834e-14
1.09602e-09
-8.80845e-08
-9.32485e-15
1.04557e-09
-9.68324e-08
-9.5817e-15
1.04096e-09
-1.03492e-07
-8.79303e-15
1.07392e-09
-1.08323e-07
-7.95225e-15
1.11817e-09
-1.12098e-07
-6.88132e-15
1.15155e-09
-1.15614e-07
-5.7399e-15
1.15598e-09
-1.19234e-07
-5.12395e-15
1.11655e-09
-1.23064e-07
-4.18814e-15
1.02155e-09
-1.27043e-07
-3.8641e-15
8.62489e-10
-1.3103e-07
-3.43507e-15
6.33808e-10
-1.34854e-07
-3.0689e-15
3.32434e-10
-1.38354e-07
-2.90476e-15
-4.26609e-11
-1.41393e-07
-2.72583e-15
-4.90717e-10
-1.43826e-07
-2.53762e-15
-1.00954e-09
-1.45568e-07
-2.42841e-15
-1.59556e-09
-1.46515e-07
-2.33829e-15
-2.24397e-09
-1.46598e-07
-2.25972e-15
-2.94876e-09
-1.45747e-07
-2.19018e-15
-3.70278e-09
-1.43883e-07
-2.11002e-15
-4.49788e-09
-1.40971e-07
-2.03137e-15
-5.32481e-09
-1.3692e-07
-1.98489e-15
-6.17352e-09
-1.31686e-07