/*--------------------------------*- C++ -*----------------------------------*\
| =========                 |                                                 |
| \\      /  F ield         | OpenFOAM: The Open Source CFD Toolbox           |
|  \\    /   O peration     | Version:  v2012                                 |
|   \\  /    A nd           | Website:  www.openfoam.com                      |
|    \\/     M anipulation  |                                                 |
\*---------------------------------------------------------------------------*/
FoamFile
{
    version     2.0;
    format      ascii;
    class       volVectorField;
    location    "0.8";
    object      U;
}
// * * * * * * * * * * * * * * * * * * * * * * * * * * * * * * * * * * * * * //

dimensions      [0 1 -1 0 0 0 0];


internalField   nonuniform List<vector> 
3352
(
(0.0176162 -43.7456 -0.00015377)
(-0.0125554 -42.541 0.000109479)
(0.0652489 -41.0041 -0.000569502)
(0.12923 -39.3637 -0.00112839)
(0.0278608 -40.1675 -0.000243147)
(0.248002 -39.8997 -0.00216411)
(0.312565 -32.3919 -0.00272809)
(0.351601 -21.4634 -0.00305758)
(0.301342 -19.4785 -0.00262538)
(0.273954 -18.7192 -0.00238991)
(0.253521 -17.67 -0.00221233)
(0.23623 -16.3972 -0.00206184)
(0.220533 -15.0304 -0.00192496)
(0.20547 -13.7307 -0.00179349)
(0.190726 -12.5835 -0.00166481)
(0.176153 -11.5981 -0.00153763)
(0.161668 -10.7491 -0.00141121)
(0.147222 -10.0026 -0.00128513)
(0.132802 -9.32829 -0.00115928)
(0.118428 -8.70351 -0.00103382)
(0.10414 -8.11305 -0.000909123)
(0.0899975 -7.54769 -0.000785686)
(0.0760658 -7.00232 -0.000664089)
(0.0624143 -6.47442 -0.000544937)
(0.0491121 -5.96299 -0.00042883)
(0.0362278 -5.46777 -0.000316371)
(0.0238302 -4.98883 -0.000208157)
(0.0119905 -4.52638 -0.000104812)
(0.000784034 -4.0806 -6.9907e-06)
(-0.00970683 -3.6516 8.45866e-05)
(-0.0193899 -3.23948 0.000169117)
(-0.0281615 -2.84427 0.000245693)
(-0.0359031 -2.46602 0.000313283)
(-0.0424777 -2.10475 0.000370691)
(-0.047726 -1.76051 0.000416528)
(-0.0514547 -1.43339 0.000449108)
(-0.0534309 -1.1235 0.000466401)
(-0.0533143 -0.831027 0.000465448)
(-0.0507488 -0.556194 0.00044312)
(0.0724243 -43.8066 -0.000632109)
(-0.0984544 -42.5966 0.000859126)
(0.184703 -41.3665 -0.00161193)
(0.082819 -39.3227 -0.000723523)
(0.0602904 -40.4412 -0.000526137)
(0.255837 -40.3511 -0.00223246)
(0.383848 -32.7013 -0.00335017)
(0.39081 -21.5411 -0.00340052)
(0.317998 -19.4806 -0.00277057)
(0.288048 -18.7422 -0.00251296)
(0.268033 -17.6937 -0.00233895)
(0.251016 -16.4165 -0.00219087)
(0.234939 -15.044 -0.00205069)
(0.21881 -13.7388 -0.00190993)
(0.202577 -12.5869 -0.00176826)
(0.186265 -11.5977 -0.00162589)
(0.169967 -10.7456 -0.00148364)
(0.153757 -9.99656 -0.00134217)
(0.137726 -9.32027 -0.00120224)
(0.121947 -8.69394 -0.00106453)
(0.106488 -8.10234 -0.000929604)
(0.0914012 -7.53618 -0.000797927)
(0.0767304 -6.9903 -0.00066988)
(0.0625129 -6.46216 -0.000545789)
(0.0487838 -5.95069 -0.00042596)
(0.0355803 -5.45562 -0.000310717)
(0.0229438 -4.97699 -0.000200422)
(0.0109241 -4.51499 -9.55094e-05)
(-0.000420431 -4.06978 3.51113e-06)
(-0.0110197 -3.64146 9.60287e-05)
(-0.0207908 -3.23013 0.000181321)
(-0.0296373 -2.83582 0.000258543)
(-0.0374468 -2.45856 0.000326717)
(-0.0440888 -2.09837 0.000384704)
(-0.0494125 -1.75533 0.000431187)
(-0.0532371 -1.42952 0.00046459)
(-0.0553556 -1.12107 0.000483105)
(-0.0554712 -0.830227 0.000484147)
(-0.0533639 -0.557313 0.000465773)
(0.0958897 -43.8392 -0.000836904)
(-0.139743 -42.6107 0.00121946)
(0.23747 -41.598 -0.00207248)
(0.00740017 -39.1827 -6.53334e-05)
(0.101329 -40.6327 -0.000884177)
(0.226117 -40.5613 -0.00197313)
(0.383243 -32.874 -0.00334483)
(0.396071 -21.5626 -0.00344498)
(0.344098 -19.4694 -0.00299763)
(0.31036 -18.748 -0.00270745)
(0.286166 -17.7024 -0.00249719)
(0.265327 -16.4238 -0.0023158)
(0.246727 -15.0488 -0.00215359)
(0.228993 -13.7412 -0.00199883)
(0.211757 -12.5873 -0.00184839)
(0.194593 -11.5962 -0.00169859)
(0.177425 -10.7426 -0.00154875)
(0.16025 -9.99228 -0.00139886)
(0.143188 -9.31498 -0.00124994)
(0.126364 -8.68785 -0.0011031)
(0.1099 -8.09564 -0.0009594)
(0.0938853 -7.52899 -0.000819625)
(0.0783865 -6.98276 -0.000684347)
(0.0634465 -6.45436 -0.000553947)
(0.0490962 -5.94273 -0.000428692)
(0.0353622 -5.44759 -0.000308816)
(0.0222729 -4.96899 -0.000194567)
(0.00986471 -4.5071 -8.62604e-05)
(-0.00181627 -4.06208 1.56994e-05)
(-0.0127108 -3.63407 0.000110796)
(-0.0227452 -3.22313 0.000198388)
(-0.0318315 -2.82932 0.000277705)
(-0.0398658 -2.45266 0.000347842)
(-0.0467276 -2.09319 0.000407748)
(-0.0522803 -1.75098 0.00045623)
(-0.0563654 -1.42613 0.000491905)
(-0.0588161 -1.11877 0.000513317)
(-0.0594094 -0.829163 0.000518525)
(-0.0580765 -0.557642 0.00050691)
(0.121414 -43.8934 -0.00105966)
(-0.174129 -42.6703 0.00151954)
(0.294865 -41.8918 -0.00257343)
(-0.0558422 -39.0642 0.000486581)
(0.142242 -40.9211 -0.00124117)
(0.210797 -40.8696 -0.00183947)
(0.416423 -33.1302 -0.00363426)
(0.402014 -21.638 -0.00349593)
(0.357186 -19.4843 -0.00311105)
(0.324442 -18.766 -0.00283011)
(0.300328 -17.7187 -0.00262072)
(0.278876 -16.4368 -0.00243405)
(0.259625 -15.0582 -0.00226617)
(0.241132 -13.7468 -0.00210478)
(0.223095 -12.5893 -0.00194736)
(0.204937 -11.595 -0.00178888)
(0.186599 -10.7385 -0.00162883)
(0.168104 -9.9861 -0.00146741)
(0.149662 -9.30719 -0.00130645)
(0.131476 -8.67896 -0.00114773)
(0.113734 -8.08605 -0.000992878)
(0.0965661 -7.51902 -0.000843034)
(0.0800531 -6.97262 -0.000698905)
(0.0642367 -6.44422 -0.000560855)
(0.0491355 -5.93272 -0.000429047)
(0.0347587 -5.4378 -0.000303561)
(0.0211163 -4.95949 -0.000184483)
(0.00822726 -4.49798 -7.19796e-05)
(-0.00387735 -4.0534 3.36779e-05)
(-0.0151509 -3.62589 0.000132083)
(-0.0255303 -3.21554 0.000222687)
(-0.0349372 -2.82237 0.000304803)
(-0.0432776 -2.44643 0.000377613)
(-0.0504428 -2.08776 0.000440168)
(-0.0563129 -1.74642 0.000491421)
(-0.0607551 -1.4225 0.000530214)
(-0.0636455 -1.11616 0.000555465)
(-0.0648373 -0.827611 0.000565894)
(-0.0643729 -0.557148 0.000561863)
(0.135625 -43.9472 -0.00118369)
(-0.191947 -42.7242 0.00167504)
(0.319978 -42.1048 -0.00279266)
(-0.127023 -38.9115 0.00110784)
(0.171395 -41.2029 -0.0014955)
(0.185519 -41.1437 -0.00161894)
(0.428831 -33.3584 -0.00374248)
(0.405745 -21.6959 -0.00352842)
(0.3691 -19.4905 -0.00321464)
(0.33491 -18.7798 -0.00292139)
(0.310452 -17.7319 -0.00270904)
(0.288269 -16.4473 -0.00251604)
(0.268653 -15.0654 -0.00234497)
(0.249774 -13.751 -0.00218022)
(0.231461 -12.5905 -0.00202038)
(0.212898 -11.5933 -0.00185838)
(0.194004 -10.7344 -0.00169347)
(0.174745 -9.97985 -0.00152539)
(0.155381 -9.29939 -0.00135638)
(0.136166 -8.67008 -0.00118868)
(0.117359 -8.07647 -0.00102453)
(0.099144 -7.50903 -0.000865545)
(0.0816416 -6.96244 -0.000712779)
(0.0649155 -6.43401 -0.000566789)
(0.0489929 -5.92259 -0.00042781)
(0.0338814 -5.42784 -0.000295909)
(0.0195835 -4.94979 -0.00017111)
(0.00610847 -4.4886 -5.34916e-05)
(-0.00652324 -4.04443 5.67671e-05)
(-0.0182752 -3.6174 0.000159348)
(-0.0290939 -3.2076 0.000253787)
(-0.0389105 -2.81507 0.000339478)
(-0.047641 -2.43984 0.000415692)
(-0.0551896 -2.08194 0.000481593)
(-0.061454 -1.74145 0.000536287)
(-0.0663271 -1.41845 0.00057884)
(-0.0697243 -1.11307 0.000608512)
(-0.0715633 -0.82548 0.000624587)
(-0.0719515 -0.55591 0.000627996)
(0.137332 -44.009 -0.00119858)
(-0.187291 -42.8037 0.0016344)
(0.31925 -42.2715 -0.0027864)
(-0.175687 -38.7884 0.00153261)
(0.19149 -41.5119 -0.00167082)
(0.169576 -41.4411 -0.00147988)
(0.438174 -33.603 -0.00382409)
(0.4045 -21.7754 -0.00351746)
(0.374206 -19.5074 -0.0032587)
(0.3404 -18.7988 -0.00296917)
(0.316718 -17.749 -0.00276369)
(0.294897 -16.4609 -0.00257387)
(0.275631 -15.0753 -0.00240588)
(0.256802 -13.7572 -0.00224156)
(0.238409 -12.5929 -0.00208102)
(0.219539 -11.5922 -0.00191634)
(0.200162 -10.7301 -0.00174722)
(0.180232 -9.97306 -0.00157328)
(0.160057 -9.29072 -0.00139721)
(0.139936 -8.66013 -0.00122159)
(0.120181 -8.06575 -0.00104917)
(0.101017 -7.49792 -0.000881905)
(0.0825978 -6.9512 -0.000721136)
(0.0650062 -6.42283 -0.00056759)
(0.0482787 -5.91159 -0.000421586)
(0.032425 -5.41711 -0.000283208)
(0.0174451 -4.9394 -0.000152455)
(0.00334291 -4.47861 -2.93618e-05)
(-0.00986719 -4.03491 8.59455e-05)
(-0.0221551 -3.6084 0.000193206)
(-0.033474 -3.19919 0.00029201)
(-0.043762 -2.80732 0.000381816)
(-0.0529436 -2.43281 0.000461967)
(-0.0609341 -2.0757 0.000531725)
(-0.0676466 -1.73605 0.00059033)
(-0.072997 -1.41394 0.000637049)
(-0.0769316 -1.10946 0.000671409)
(-0.0794147 -0.822753 0.000693104)
(-0.0805811 -0.553967 0.000703304)
(0.126434 -44.0738 -0.00110346)
(-0.161585 -42.8851 0.00141006)
(0.284572 -42.3481 -0.00248385)
(-0.205391 -38.6878 0.00179196)
(0.191933 -41.8139 -0.00167466)
(0.160812 -41.7414 -0.00140345)
(0.437476 -33.8373 -0.00381804)
(0.404368 -21.8557 -0.00351662)
(0.377869 -19.5222 -0.0032904)
(0.343689 -18.817 -0.00299783)
(0.320303 -17.7658 -0.00279497)
(0.298615 -16.4744 -0.00260633)
(0.279596 -15.0852 -0.00244049)
(0.260828 -13.7633 -0.0022767)
(0.242455 -12.5954 -0.00211635)
(0.223476 -11.5911 -0.00195071)
(0.203889 -10.7258 -0.00177976)
(0.183605 -9.96609 -0.00160273)
(0.162947 -9.28174 -0.00142243)
(0.142222 -8.64978 -0.00124155)
(0.121775 -8.05453 -0.00106309)
(0.101865 -7.48624 -0.000889313)
(0.0826763 -6.93936 -0.00072183)
(0.0643171 -6.41102 -0.000561584)
(0.0468411 -5.89996 -0.000409047)
(0.0302685 -5.40576 -0.000264393)
(0.0146047 -4.9284 -0.000127671)
(-0.000144547 -4.46804 1.06922e-06)
(-0.0139652 -4.02482 0.000121706)
(-0.026829 -3.59886 0.000233992)
(-0.038692 -3.19026 0.000337546)
(-0.0494964 -2.79906 0.000431859)
(-0.0591728 -2.42529 0.00051633)
(-0.0676452 -2.06898 0.000590294)
(-0.0748391 -1.73017 0.0006531)
(-0.0806882 -1.40892 0.00070417)
(-0.0851602 -1.10531 0.000743221)
(-0.0882491 -0.819438 0.000770202)
(-0.0900902 -0.551382 0.000786291)
(0.103694 -44.1443 -0.000904987)
(-0.116159 -42.9742 0.00101362)
(0.224252 -42.3458 -0.00195752)
(-0.207939 -38.634 0.00181433)
(0.17598 -42.1112 -0.00153543)
(0.16658 -42.0591 -0.00145379)
(0.43135 -34.0684 -0.00376456)
(0.403392 -21.9462 -0.0035085)
(0.377969 -19.5409 -0.00329103)
(0.344254 -18.8371 -0.00300274)
(0.32129 -17.7844 -0.00280358)
(0.299917 -16.4894 -0.00261769)
(0.281173 -15.0962 -0.00245426)
(0.262507 -13.7703 -0.00229135)
(0.244154 -12.5984 -0.00213118)
(0.2251 -11.5903 -0.00196489)
(0.20538 -10.7215 -0.00179278)
(0.18488 -9.95894 -0.00161386)
(0.163918 -9.27241 -0.00143092)
(0.142796 -8.63892 -0.00124657)
(0.121869 -8.04271 -0.00106391)
(0.101406 -7.4739 -0.000885314)
(0.0816131 -6.92682 -0.000712558)
(0.0626159 -6.39851 -0.000546745)
(0.0444851 -5.88762 -0.000388492)
(0.0272543 -5.39371 -0.000238094)
(0.0109391 -4.91673 -9.56862e-05)
(-0.00444689 -4.45681 3.86123e-05)
(-0.0188844 -4.0141 0.000164633)
(-0.0323418 -3.58871 0.000282101)
(-0.0447734 -3.18075 0.000390618)
(-0.0561217 -2.79025 0.000489678)
(-0.0663196 -2.41723 0.000578701)
(-0.0752965 -2.06172 0.000657068)
(-0.0829862 -1.72375 0.000724202)
(-0.0893345 -1.40337 0.000779629)
(-0.0943217 -1.10062 0.000823176)
(-0.097957 -0.815556 0.000854925)
(-0.10036 -0.548219 0.00087592)
(0.0735255 -44.219 -0.000641684)
(-0.0594738 -43.0581 0.000518924)
(0.148195 -42.2627 -0.00129386)
(-0.190431 -38.6235 0.00166168)
(0.143047 -42.3956 -0.00124801)
(0.186963 -42.3937 -0.00163162)
(0.420294 -34.287 -0.00366807)
(0.4038 -22.0392 -0.00351271)
(0.3764 -19.5588 -0.00327726)
(0.342952 -18.8568 -0.00299141)
(0.320005 -17.8026 -0.00279239)
(0.298703 -16.5042 -0.00260711)
(0.280022 -15.107 -0.00244423)
(0.261383 -13.777 -0.00228156)
(0.243045 -12.6012 -0.00212151)
(0.224004 -11.5893 -0.00195532)
(0.2043 -10.7171 -0.00178336)
(0.183786 -9.95164 -0.00160432)
(0.162755 -9.26286 -0.00142077)
(0.141478 -8.62775 -0.00123507)
(0.120302 -8.03048 -0.00105025)
(0.0994962 -7.46107 -0.000868651)
(0.0792759 -6.91371 -0.000692165)
(0.0597822 -6.38538 -0.000522018)
(0.0411027 -5.87464 -0.000358977)
(0.0232878 -5.381 -0.000203481)
(0.00636814 -4.90439 -5.57978e-05)
(-0.00962973 -4.44491 8.38407e-05)
(-0.0246758 -4.00272 0.000215173)
(-0.0387298 -3.57792 0.000337849)
(-0.05174 -3.17061 0.000451416)
(-0.063645 -2.78083 0.000555335)
(-0.0743766 -2.40858 0.000649016)
(-0.0838655 -2.0539 0.000731852)
(-0.0920496 -1.71679 0.000803301)
(-0.0988813 -1.39727 0.000862946)
(-0.104346 -1.09538 0.00091066)
(-0.108457 -0.811135 0.000946562)
(-0.111311 -0.544538 0.000971496)
(0.0417511 -44.2992 -0.000364364)
(-0.00191091 -43.1372 1.65732e-05)
(0.0751041 -42.1191 -0.000656064)
(-0.162693 -38.6485 0.00141972)
(0.101039 -42.6763 -0.000881379)
(0.222019 -42.7497 -0.00193748)
(0.405808 -34.4903 -0.00354171)
(0.403731 -22.1348 -0.00351292)
(0.372151 -19.5767 -0.00324022)
(0.339191 -18.8765 -0.00295865)
(0.316146 -17.8208 -0.00275875)
(0.294874 -16.5189 -0.0025737)
(0.276188 -15.1178 -0.00241077)
(0.257593 -13.7837 -0.00224849)
(0.239307 -12.6039 -0.00208888)
(0.220368 -11.5882 -0.00192359)
(0.200802 -10.7126 -0.00175282)
(0.180433 -9.94421 -0.00157505)
(0.159514 -9.25312 -0.00139248)
(0.13828 -8.61631 -0.00120715)
(0.117051 -8.0179 -0.00102187)
(0.0960859 -7.44779 -0.000838889)
(0.0756007 -6.90008 -0.000660091)
(0.0557456 -6.37166 -0.000486792)
(0.0366239 -5.86102 -0.000319892)
(0.0183034 -5.36762 -0.000159984)
(0.000833394 -4.89135 -7.49735e-06)
(-0.0157425 -4.43232 0.000137186)
(-0.0313787 -3.99065 0.000273669)
(-0.046022 -3.56645 0.000401487)
(-0.0596098 -3.15982 0.000520096)
(-0.0720728 -2.77077 0.000628886)
(-0.083338 -2.39932 0.000727225)
(-0.0933338 -2.04548 0.000814485)
(-0.101998 -1.70925 0.000890124)
(-0.109285 -1.39062 0.000953742)
(-0.115179 -1.08961 0.0010052)
(-0.11969 -0.806206 0.0010446)
(-0.122891 -0.54039 0.00107256)
(0.0144056 -44.3839 -0.000125701)
(0.046269 -43.2106 -0.000403892)
(0.0179499 -41.9337 -0.000157336)
(-0.140936 -38.6853 0.00122993)
(0.0580355 -42.9687 -0.00050603)
(0.267242 -43.1235 -0.00233208)
(0.386568 -34.6705 -0.00337386)
(0.40236 -22.23 -0.00350191)
(0.365578 -19.5924 -0.00318304)
(0.332881 -18.8951 -0.0029037)
(0.309523 -17.8379 -0.002701)
(0.288168 -16.5327 -0.00251519)
(0.269432 -15.1278 -0.00235182)
(0.25094 -13.7898 -0.00219042)
(0.232814 -12.6062 -0.00203222)
(0.214136 -11.5869 -0.0018692)
(0.194888 -10.7079 -0.00170121)
(0.174861 -9.93666 -0.00152643)
(0.154255 -9.24325 -0.00134658)
(0.133259 -8.60469 -0.00116334)
(0.112163 -8.00505 -0.000979209)
(0.0912048 -7.43414 -0.000796289)
(0.0705984 -6.88599 -0.000616434)
(0.0505012 -6.35739 -0.000441022)
(0.0310313 -5.84678 -0.000271084)
(0.0122763 -5.35357 -0.000107384)
(-0.00569366 -4.87762 4.94646e-05)
(-0.0228138 -4.41901 0.000198897)
(-0.0390189 -3.97786 0.000340346)
(-0.0542386 -3.55428 0.000473195)
(-0.0683959 -3.14833 0.000596774)
(-0.08141 -2.76004 0.000710375)
(-0.0931994 -2.38942 0.000813289)
(-0.103687 -2.03645 0.000904841)
(-0.112807 -1.70113 0.000984459)
(-0.120511 -1.38342 0.00105172)
(-0.12678 -1.08332 0.00110645)
(-0.131616 -0.800801 0.00114868)
(-0.135067 -0.53582 0.00117883)
(-0.00508025 -44.4728 4.43641e-05)
(0.0797154 -43.282 -0.000695773)
(-0.0171071 -41.7206 0.000148563)
(-0.136752 -38.7112 0.00119349)
(0.0223066 -43.2963 -0.000194136)
(0.315747 -43.5067 -0.00275536)
(0.359511 -34.8207 -0.00313778)
(0.39736 -22.3269 -0.00345932)
(0.356042 -19.6059 -0.00310014)
(0.323467 -18.9121 -0.00282171)
(0.299756 -17.8536 -0.00261584)
(0.278347 -16.5454 -0.00242951)
(0.259674 -15.1369 -0.00226666)
(0.241464 -13.7953 -0.00210773)
(0.223702 -12.6081 -0.00195269)
(0.205499 -11.5853 -0.00179382)
(0.186776 -10.7031 -0.00163041)
(0.167287 -9.92903 -0.00146032)
(0.147176 -9.23329 -0.00128479)
(0.126587 -8.59293 -0.0011051)
(0.105773 -7.99197 -0.000923436)
(0.0849542 -7.42016 -0.000741734)
(0.064339 -6.87147 -0.000561804)
(0.0440918 -6.3426 -0.000385084)
(0.0243466 -5.83194 -0.000212744)
(0.00521194 -5.33886 -4.57317e-05)
(-0.0132181 -4.86318 0.000115132)
(-0.0308547 -4.40497 0.000269072)
(-0.0476098 -3.96434 0.00041532)
(-0.0633923 -3.54137 0.000553082)
(-0.0781074 -3.13613 0.00068153)
(-0.0916601 -2.74863 0.000799831)
(-0.103958 -2.37886 0.00090718)
(-0.114914 -2.0268 0.00100283)
(-0.124458 -1.69242 0.00108614)
(-0.132536 -1.37568 0.00115667)
(-0.13912 -1.07654 0.00121416)
(-0.144205 -0.794949 0.00125856)
(-0.147818 -0.530865 0.00129012)
(-0.0156692 -44.5647 0.000136777)
(0.0972322 -43.3531 -0.000848634)
(-0.0312625 -41.483 0.000272073)
(-0.157071 -38.7068 0.00137087)
(-0.00189137 -43.6798 1.71486e-05)
(0.356608 -43.8827 -0.00311198)
(0.32037 -34.9344 -0.00279626)
(0.387017 -22.4304 -0.0033701)
(0.343459 -19.6168 -0.00299077)
(0.310742 -18.9266 -0.00271086)
(0.286666 -17.8673 -0.0025017)
(0.265274 -16.5566 -0.00231544)
(0.246868 -15.145 -0.0021549)
(0.229208 -13.8 -0.00200076)
(0.212093 -12.6095 -0.00185137)
(0.194637 -11.5835 -0.00169902)
(0.176685 -10.6982 -0.00154233)
(0.157947 -9.92137 -0.0013788)
(0.13851 -9.2233 -0.00120915)
(0.118475 -8.58107 -0.0010343)
(0.0980647 -7.97869 -0.000856158)
(0.0774832 -7.40588 -0.000676526)
(0.0569366 -6.85653 -0.000497196)
(0.0365992 -6.32728 -0.000319691)
(0.0166235 -5.81648 -0.00014534)
(-0.00285828 -5.32346 2.47006e-05)
(-0.0217255 -4.84801 0.000189379)
(-0.0398622 -4.39017 0.000347684)
(-0.057155 -3.95004 0.000498624)
(-0.0734892 -3.52769 0.000641202)
(-0.0887502 -3.12318 0.000774414)
(-0.102826 -2.7365 0.000897281)
(-0.115611 -2.36763 0.00100888)
(-0.127008 -2.01652 0.00110838)
(-0.136938 -1.68313 0.00119507)
(-0.145341 -1.3674 0.00126843)
(-0.15218 -1.06927 0.00132814)
(-0.15744 -0.788676 0.00137408)
(-0.161131 -0.52556 0.00140632)
(-0.0188655 -44.6587 0.00016467)
(0.101741 -43.4256 -0.000887983)
(-0.0298029 -41.216 0.000259334)
(-0.201799 -38.6617 0.00176126)
(-0.0149528 -44.1291 0.000131243)
(0.376173 -44.2296 -0.00328282)
(0.266323 -35.0109 -0.00232461)
(0.370132 -22.5498 -0.00322373)
(0.32775 -19.6255 -0.00285425)
(0.29464 -18.9382 -0.00257058)
(0.270259 -17.8786 -0.00235863)
(0.249038 -16.5661 -0.00217376)
(0.231201 -15.1521 -0.00201817)
(0.214438 -13.8042 -0.00187185)
(0.198314 -12.6107 -0.00173111)
(0.181909 -11.5816 -0.00158792)
(0.164977 -10.6933 -0.00144015)
(0.147189 -9.91375 -0.00128489)
(0.128575 -9.21331 -0.00112243)
(0.109204 -8.56913 -0.000953374)
(0.0892746 -7.96523 -0.000779435)
(0.0689829 -7.39129 -0.000602334)
(0.0485393 -6.84115 -0.000423904)
(0.0281326 -6.31141 -0.000245796)
(0.00793785 -5.80038 -6.95352e-05)
(-0.0118856 -5.30734 0.000103486)
(-0.0311877 -4.83207 0.00027196)
(-0.0498234 -4.37458 0.000434619)
(-0.0676512 -3.93495 0.000590229)
(-0.0845316 -3.51324 0.000737574)
(-0.100328 -3.10947 0.000875459)
(-0.11491 -2.72365 0.00100275)
(-0.128158 -2.35571 0.00111839)
(-0.139964 -2.00561 0.00122145)
(-0.150239 -1.67327 0.00131115)
(-0.158914 -1.3586 0.00138689)
(-0.165946 -1.06154 0.00144829)
(-0.17131 -0.782008 0.00149513)
(-0.175002 -0.519933 0.00152738)
(-0.0173239 -44.7537 0.00015121)
(0.098271 -43.4997 -0.000857702)
(-0.0210894 -40.9074 0.000183308)
(-0.266259 -38.571 0.00232384)
(-0.0238435 -44.6347 0.000208919)
(0.361004 -44.5251 -0.00315055)
(0.19855 -35.0577 -0.00173307)
(0.347146 -22.6959 -0.00302403)
(0.309431 -19.6329 -0.00269509)
(0.275544 -18.9462 -0.0024042)
(0.250903 -17.8872 -0.00218984)
(0.230014 -16.5738 -0.00200775)
(0.213079 -15.1582 -0.00186001)
(0.197587 -13.808 -0.00172478)
(0.182813 -12.6117 -0.00159582)
(0.16776 -11.5797 -0.00146443)
(0.152086 -10.6886 -0.00132762)
(0.135414 -9.90626 -0.00118211)
(0.117733 -9.20337 -0.0010278)
(0.0990882 -8.55713 -0.000865078)
(0.079667 -7.95156 -0.000695577)
(0.0596679 -7.37635 -0.000521031)
(0.0393143 -6.82528 -0.000343389)
(0.0188168 -6.29494 -0.00016449)
(-0.00162194 -5.78358 1.38994e-05)
(-0.0218115 -5.29045 0.000190116)
(-0.0415699 -4.81531 0.00036257)
(-0.0607204 -4.35815 0.000529722)
(-0.0790923 -3.91902 0.00069008)
(-0.0965199 -3.49796 0.000842202)
(-0.112844 -3.09498 0.000984696)
(-0.127917 -2.71005 0.00111626)
(-0.141602 -2.3431 0.00123573)
(-0.153781 -1.99406 0.00134205)
(-0.164355 -1.66282 0.00143436)
(-0.173249 -1.34929 0.00151201)
(-0.18041 -1.05337 0.00157454)
(-0.185807 -0.77497 0.00162166)
(-0.189425 -0.514011 0.00165328)
(-0.0146307 -44.8486 0.000127699)
(0.0928897 -43.5753 -0.00081074)
(-0.0132542 -40.5418 0.000114952)
(-0.343205 -38.4319 0.00299539)
(-0.0377473 -45.1683 0.000330307)
(0.304326 -44.7557 -0.00265601)
(0.125202 -35.0934 -0.00109282)
(0.3202 -22.8778 -0.00278971)
(0.289445 -19.6391 -0.0025216)
(0.25421 -18.95 -0.00221833)
(0.229324 -17.8927 -0.00200167)
(0.208913 -16.5798 -0.00182361)
(0.193199 -15.1636 -0.0016865)
(0.179331 -13.8116 -0.00156543)
(0.166234 -12.6129 -0.00145111)
(0.152788 -11.5781 -0.00133374)
(0.138551 -10.6841 -0.00120948)
(0.123102 -9.89893 -0.00107464)
(0.106398 -9.19348 -0.000928861)
(0.0884769 -8.54502 -0.000772457)
(0.0695285 -7.93763 -0.000607084)
(0.0497663 -7.36098 -0.000434608)
(0.0294372 -6.80886 -0.000257183)
(0.00878152 -6.27779 -7.69041e-05)
(-0.0119649 -5.766 0.000104169)
(-0.0325765 -5.27273 0.000284067)
(-0.0528365 -4.79768 0.000460899)
(-0.0725354 -4.34083 0.000632837)
(-0.0914725 -3.90221 0.000798129)
(-0.109456 -3.48182 0.000955101)
(-0.126304 -3.07967 0.00110217)
(-0.141851 -2.69569 0.00123788)
(-0.155947 -2.32979 0.00136092)
(-0.168461 -1.98187 0.00147017)
(-0.179287 -1.65181 0.00156468)
(-0.188342 -1.33948 0.00164374)
(-0.195569 -1.04478 0.00170684)
(-0.200929 -0.767585 0.00175365)
(-0.204401 -0.50782 0.00178399)
(-0.0137432 -44.9424 0.000119946)
(0.0904338 -43.6507 -0.00078931)
(-0.0125826 -40.1033 0.000109113)
(-0.426024 -38.2411 0.0037182)
(-0.0600149 -45.692 0.000524644)
(0.211651 -44.923 -0.00184724)
(0.0617524 -35.1434 -0.000538915)
(0.292386 -23.0972 -0.00254781)
(0.269272 -19.643 -0.00234683)
(0.231781 -18.949 -0.00202295)
(0.206601 -17.895 -0.00180352)
(0.186748 -16.5841 -0.00163019)
(0.172503 -15.1685 -0.00150585)
(0.160531 -13.8153 -0.00140134)
(0.149355 -12.6144 -0.00130378)
(0.137685 -11.5769 -0.00120192)
(0.124978 -10.6799 -0.00109101)
(0.11077 -9.8918 -0.000967004)
(0.0950057 -9.1836 -0.000829424)
(0.0777282 -8.53273 -0.000678638)
(0.0591466 -7.92334 -0.000516469)
(0.0395026 -7.34508 -0.000345026)
(0.0190774 -6.79175 -0.000166764)
(-0.00185087 -6.25984 1.5892e-05)
(-0.0230072 -5.74755 0.000200541)
(-0.0441274 -5.25407 0.000384878)
(-0.064958 -4.77909 0.00056669)
(-0.0852559 -4.32256 0.000743855)
(-0.104791 -3.88446 0.000914364)
(-0.123345 -3.46479 0.00107632)
(-0.140717 -3.06351 0.00122796)
(-0.156722 -2.68055 0.00136767)
(-0.171199 -2.31577 0.00149404)
(-0.184008 -1.96904 0.00160586)
(-0.195036 -1.64024 0.00170213)
(-0.204193 -1.32919 0.00178209)
(-0.211419 -1.03578 0.00184518)
(-0.216672 -0.759876 0.00189106)
(-0.219929 -0.501382 0.00191952)
(-0.0164869 -45.0339 0.000143886)
(0.0936804 -43.7239 -0.000817642)
(-0.0211207 -39.5792 0.000183641)
(-0.507015 -38.0013 0.00442509)
(-0.077117 -46.177 0.000673864)
(0.103345 -45.0449 -0.000901982)
(0.0279754 -35.2306 -0.000243946)
(0.265965 -23.3443 -0.0023181)
(0.250685 -19.6425 -0.00218631)
(0.20966 -18.9426 -0.00183031)
(0.184091 -17.8938 -0.00160726)
(0.164791 -16.5867 -0.00143858)
(0.152151 -15.1731 -0.00132822)
(0.142221 -13.8193 -0.00124152)
(0.13308 -12.6165 -0.00116172)
(0.123227 -11.5762 -0.00107571)
(0.11202 -10.6761 -0.0009779)
(0.0989609 -9.88482 -0.000863927)
(0.0839975 -9.17364 -0.000733338)
(0.0671937 -8.52014 -0.00058669)
(0.0487948 -7.90853 -0.000426118)
(0.0290831 -7.3285 -0.000254087)
(0.00838505 -6.77382 -7.34444e-05)
(-0.0129764 -6.24096 0.000112991)
(-0.0346819 -5.72809 0.000302432)
(-0.0564259 -5.23437 0.000492212)
(-0.0779173 -4.75946 0.000679791)
(-0.0988795 -4.30325 0.000862755)
(-0.119054 -3.86572 0.00103884)
(-0.138199 -3.44682 0.00120596)
(-0.156095 -3.04649 0.00136217)
(-0.172542 -2.66461 0.00150574)
(-0.18737 -2.30103 0.00163518)
(-0.20043 -1.95559 0.00174919)
(-0.211605 -1.62811 0.00184675)
(-0.220804 -1.31844 0.00192707)
(-0.227962 -1.0264 0.00198957)
(-0.233038 -0.751865 0.00203391)
(-0.236009 -0.49472 0.00205987)
(-0.0231819 -45.1222 0.000202313)
(0.102934 -43.7939 -0.000898393)
(-0.036241 -38.9665 0.00031561)
(-0.571868 -37.7375 0.00499121)
(-0.0545849 -46.6191 0.000477154)
(0.0110248 -45.1446 -9.6211e-05)
(0.0410643 -35.3625 -0.000358029)
(0.24161 -23.5968 -0.00210641)
(0.235435 -19.6349 -0.00205538)
(0.189392 -18.9304 -0.00165387)
(0.163313 -17.8893 -0.00142611)
(0.144461 -16.5878 -0.00126116)
(0.133423 -15.1776 -0.00116475)
(0.125515 -13.8239 -0.00109569)
(0.118357 -12.6192 -0.0010332)
(0.110203 -11.5761 -0.000962027)
(0.100326 -10.6726 -0.00087582)
(0.0881954 -9.87786 -0.000769959)
(0.0737834 -9.16344 -0.000644186)
(0.0571893 -8.50705 -0.00049937)
(0.0387093 -7.89301 -0.000338093)
(0.0186782 -7.31103 -0.000163276)
(-0.00252343 -6.75486 2.17593e-05)
(-0.0245212 -6.22097 0.000213747)
(-0.046948 -5.70748 0.000409483)
(-0.0694554 -5.21351 0.000605926)
(-0.0917148 -4.73867 0.000800208)
(-0.113418 -4.28283 0.000989637)
(-0.134279 -3.84592 0.00117173)
(-0.154038 -3.42787 0.0013442)
(-0.172458 -3.02856 0.00150498)
(-0.189329 -2.64785 0.00165225)
(-0.204472 -2.28556 0.00178444)
(-0.217737 -1.9415 0.00190024)
(-0.229002 -1.61545 0.00199859)
(-0.238177 -1.30723 0.0020787)
(-0.245198 -1.01666 0.00214001)
(-0.250026 -0.743575 0.00218218)
(-0.252639 -0.487859 0.00220503)
(-0.0331708 -45.2062 0.000289487)
(0.117759 -43.8639 -0.00102776)
(-0.0527594 -38.2846 0.00045979)
(-0.592944 -37.5198 0.00517536)
(0.0528691 -47.0409 -0.000460739)
(-0.0299544 -45.2344 0.000261407)
(0.107841 -35.5215 -0.000940799)
(0.221204 -23.8239 -0.00192918)
(0.224995 -19.6193 -0.00196681)
(0.172592 -18.9122 -0.0015077)
(0.145828 -17.8815 -0.0012737)
(0.127228 -16.5876 -0.00111078)
(0.117622 -15.1821 -0.00102682)
(0.111528 -13.829 -0.000973596)
(0.106114 -12.6226 -0.00092633)
(0.0993685 -11.5764 -0.00086745)
(0.0904927 -10.6692 -0.00078999)
(0.0789378 -9.87073 -0.000689154)
(0.0647141 -9.15274 -0.000565029)
(0.0479711 -8.4932 -0.000418916)
(0.0290692 -7.87651 -0.000253958)
(0.0084052 -7.29242 -7.36202e-05)
(-0.0135786 -6.73467 0.000118241)
(-0.0364524 -6.19968 0.000317873)
(-0.0597992 -5.68555 0.000521639)
(-0.0832278 -5.19133 0.000726122)
(-0.106374 -4.71661 0.000928143)
(-0.1289 -4.26121 0.00112476)
(-0.150499 -3.82501 0.00131328)
(-0.170892 -3.40788 0.0014913)
(-0.189833 -3.00971 0.00165663)
(-0.207104 -2.63028 0.00180739)
(-0.222524 -2.26938 0.00194199)
(-0.235939 -1.92678 0.00205911)
(-0.247233 -1.60227 0.00215771)
(-0.256316 -1.2956 0.00223702)
(-0.263128 -1.00658 0.00229651)
(-0.267634 -0.735029 0.00233587)
(-0.269819 -0.480822 0.00235499)
(-0.0461096 -45.2858 0.000402404)
(0.1389 -43.9445 -0.00121225)
(-0.0701383 -37.586 0.000611511)
(-0.534437 -37.475 0.00466499)
(0.272778 -47.4746 -0.00238013)
(0.0096107 -45.3054 -8.41195e-05)
(0.217987 -35.6654 -0.0019023)
(0.2117 -23.9952 -0.00184712)
(0.220474 -19.5944 -0.00193004)
(0.160826 -18.8879 -0.00140546)
(0.133073 -17.8707 -0.00116256)
(0.114448 -16.5863 -0.000999258)
(0.105927 -15.1868 -0.00092474)
(0.101256 -13.8348 -0.000883929)
(0.0971579 -12.6265 -0.000848146)
(0.0913592 -11.5769 -0.000797536)
(0.0830071 -10.6657 -0.000724651)
(0.0715464 -9.86311 -0.00062464)
(0.057042 -9.14123 -0.000498068)
(0.0397061 -8.47827 -0.000346784)
(0.0199738 -7.85873 -0.000174582)
(-0.00168803 -7.27239 1.44637e-05)
(-0.0247709 -6.71297 0.000215917)
(-0.0487874 -6.17686 0.000425522)
(-0.0732705 -5.66209 0.000639205)
(-0.0977885 -5.16769 0.000853197)
(-0.121944 -4.69316 0.00106403)
(-0.145376 -4.23829 0.00126855)
(-0.167759 -3.8029 0.00146392)
(-0.188803 -3.38683 0.00164761)
(-0.208254 -2.98989 0.00181741)
(-0.225896 -2.61186 0.0019714)
(-0.241544 -2.25247 0.00210801)
(-0.255053 -1.91146 0.00222594)
(-0.266307 -1.58857 0.00232419)
(-0.275224 -1.28355 0.00240206)
(-0.281752 -0.996177 0.00245907)
(-0.285862 -0.726252 0.00249497)
(-0.287544 -0.473632 0.0025097)
(-0.0637366 -45.361 0.000556246)
(0.169988 -44.0473 -0.00148355)
(-0.0998941 -36.9451 0.000871283)
(-0.378012 -37.7637 0.00330005)
(0.575752 -47.9367 -0.00502451)
(0.139475 -45.3345 -0.00121795)
(0.343616 -35.7423 -0.00299905)
(0.222765 -24.0918 -0.00194457)
(0.222708 -19.5565 -0.00195206)
(0.155452 -18.8578 -0.001359)
(0.126206 -17.8572 -0.0011028)
(0.107221 -16.5841 -0.000936206)
(0.099274 -15.1916 -0.000866657)
(0.0954769 -13.841 -0.000833478)
(0.0920948 -12.6307 -0.000803946)
(0.0866327 -11.5774 -0.000756278)
(0.0781928 -10.6618 -0.00068263)
(0.0662349 -9.85459 -0.000578285)
(0.050891 -9.1285 -0.00044439)
(0.0324484 -8.46187 -0.000283449)
(0.0114247 -7.8393 -9.99779e-05)
(-0.0116376 -7.25061 0.00010129)
(-0.0361617 -6.68949 0.000315321)
(-0.0616021 -6.15227 0.000537355)
(-0.0874446 -5.63693 0.000762903)
(-0.11322 -5.14243 0.000987873)
(-0.138505 -4.66821 0.00120856)
(-0.162917 -4.21399 0.00142164)
(-0.186121 -3.77954 0.00162418)
(-0.207822 -3.36466 0.0018136)
(-0.227764 -2.96911 0.00198769)
(-0.245735 -2.5926 0.00214456)
(-0.261557 -2.23484 0.00228268)
(-0.275091 -1.89553 0.00240083)
(-0.286232 -1.57439 0.0024981)
(-0.294906 -1.27112 0.00257385)
(-0.30107 -0.985485 0.00262768)
(-0.304704 -0.71727 0.00265944)
(-0.30581 -0.466315 0.00266913)
(-0.0871487 -45.4323 0.000760576)
(0.212558 -44.1724 -0.00185504)
(-0.155125 -36.4193 0.00135339)
(-0.157199 -38.5114 0.00137312)
(0.865555 -48.4296 -0.00755393)
(0.335168 -45.3041 -0.00292635)
(0.444685 -35.7146 -0.00388137)
(0.256644 -24.1159 -0.00224095)
(0.231825 -19.4998 -0.00203365)
(0.15727 -18.8215 -0.00137527)
(0.125882 -17.8416 -0.00110012)
(0.106197 -16.5811 -0.000927283)
(0.0982011 -15.1966 -0.000857281)
(0.094631 -13.8474 -0.000826085)
(0.0912408 -12.6348 -0.000796487)
(0.0853972 -11.5773 -0.000745494)
(0.0761589 -10.6568 -0.000664883)
(0.0630327 -9.8447 -0.000550345)
(0.0462268 -9.11408 -0.000403693)
(0.026117 -8.44355 -0.000228203)
(0.00330923 -7.81783 -2.91622e-05)
(-0.0215752 -7.22674 0.000188008)
(-0.0478906 -6.66393 0.000417674)
(-0.0750363 -6.12567 0.000654591)
(-0.102455 -5.60986 0.000893895)
(-0.129646 -5.11538 0.00113122)
(-0.156164 -4.64162 0.00136268)
(-0.181617 -4.18821 0.00158484)
(-0.205664 -3.75488 0.00179474)
(-0.228012 -3.34135 0.00198982)
(-0.248411 -2.94732 0.00216789)
(-0.266658 -2.57249 0.00232717)
(-0.282587 -2.2165 0.00246623)
(-0.29607 -1.87902 0.00258394)