/*--------------------------------*- C++ -*----------------------------------*\
| =========                 |                                                 |
| \\      /  F ield         | OpenFOAM: The Open Source CFD Toolbox           |
|  \\    /   O peration     | Version:  v2012                                 |
|   \\  /    A nd           | Website:  www.openfoam.com                      |
|    \\/     M anipulation  |                                                 |
\*---------------------------------------------------------------------------*/
FoamFile
{
    version     2.0;
    format      ascii;
    class       surfaceScalarField;
    location    "0.45";
    object      phi;
}
// * * * * * * * * * * * * * * * * * * * * * * * * * * * * * * * * * * * * * //

dimensions      [0 3 -1 0 0 0 0];
oriented        oriented;


internalField   nonuniform List<scalar> 
8145
(
-2.33742e-08
8.10939e-08
1.33054e-16
-1.98312e-08
8.53534e-08
-2.40332e-16
-1.61607e-08
8.74842e-08
-8.99953e-17
-1.24655e-08
8.68804e-08
-6.56415e-18
-8.88012e-09
8.28654e-08
9.28971e-17
-5.57851e-09
7.46987e-08
2.65698e-16
-2.78704e-09
6.15121e-08
4.19458e-17
-7.99252e-10
4.23907e-08
6.18688e-17
1.62191e-08
3.60573e-17
-3.2278e-08
5.77957e-08
-5.72051e-16
-2.95286e-08
6.53667e-08
-2.61675e-16
-2.64789e-08
7.2159e-08
-3.18167e-17
-2.31699e-08
7.77848e-08
1.16266e-16
-1.96579e-08
8.18414e-08
-2.51936e-16
-1.60194e-08
8.38458e-08
-1.00696e-16
-1.23565e-08
8.32176e-08
-1.28916e-17
-8.80276e-09
7.93116e-08
8.97296e-17
-5.53048e-09
7.14264e-08
2.67141e-16
-2.76368e-09
5.87453e-08
4.85601e-17
-7.92976e-10
4.042e-08
6.55472e-17
1.54262e-08
4.07904e-17
-2.18752e-09
-3.45806e-08
-7.51389e-15
-3.75265e-09
-3.49905e-08
-7.20213e-15
-5.36786e-09
-3.57598e-08
-4.18161e-15
-7.05839e-09
-3.68193e-08
-4.02699e-15
-8.82464e-09
-3.80524e-08
-4.11053e-15
-1.06618e-08
-3.93526e-08
-3.72556e-15
-1.25602e-08
-4.06293e-08
-3.53148e-15
-1.45087e-08
-4.18032e-08
-3.47462e-15
-1.64954e-08
-4.28212e-08
-3.1361e-15
-1.85079e-08
-4.36317e-08
-2.81618e-15
-2.05333e-08
-4.41986e-08
-2.59395e-15
-2.25584e-08
-4.44879e-08
-2.46512e-15
-2.45693e-08
-4.44649e-08
-2.41031e-15
-2.65517e-08
-4.41092e-08
-2.36454e-15
-2.84899e-08
-4.33851e-08
-2.33396e-15
-3.03676e-08
-4.22708e-08
-2.19732e-15
-3.21679e-08
-4.07399e-08
-2.10582e-15
-3.38725e-08
-3.87664e-08
-2.02545e-15
-3.54624e-08
-3.63274e-08
-1.91487e-15
-3.6918e-08
-3.34015e-08
-1.79279e-15
-3.82184e-08
-2.99713e-08
-1.63542e-15
-3.93427e-08
-2.6021e-08
-1.48294e-15
-4.02698e-08
-2.15418e-08
-1.31701e-15
-4.09778e-08
-1.65298e-08
-1.16837e-15
-4.14458e-08
-1.09873e-08
-1.02194e-15
-4.16522e-08
-4.93422e-09
-8.89022e-16
-4.15777e-08
1.61017e-09
-7.60655e-16
-4.1203e-08
8.60567e-09
-6.36233e-16
-4.05121e-08
1.59966e-08
-5.13297e-16
-3.94911e-08
2.37037e-08
-3.94626e-16
-3.81284e-08
3.16478e-08
-2.66537e-16
-3.64193e-08
3.96807e-08
-4.99675e-17
-3.43627e-08
4.7667e-08
-3.09072e-16
-3.19658e-08
5.53989e-08
-5.56886e-16
-2.92447e-08
6.26455e-08
-2.71563e-16
-2.6225e-08
6.91393e-08
-6.727e-17
-2.29476e-08
7.45074e-08
9.63063e-17
-1.94688e-08
7.83626e-08
-2.62901e-16
-1.58647e-08
8.02417e-08
-1.09667e-16
-1.22369e-08
7.95898e-08
-1.8206e-17
-8.71761e-09
7.57923e-08
8.71097e-17
-5.47741e-09
6.81862e-08
2.6813e-16
-2.73774e-09
5.60057e-08
5.51586e-17
-7.85947e-10
3.84682e-08
6.92222e-17
1.46402e-08
4.46389e-17
-1.19475e-09
-3.2874e-08
-7.58707e-15
-2.85768e-09
-3.33275e-08
-6.2956e-15
-4.53956e-09
-3.40779e-08
-4.21003e-15
-6.27706e-09
-3.50818e-08
-4.03059e-15
-8.07674e-09
-3.62527e-08
-4.15537e-15
-9.93831e-09
-3.7491e-08
-3.80237e-15
-1.18548e-08
-3.87128e-08
-3.51598e-15
-1.38171e-08
-3.98409e-08
-3.39368e-15
-1.58147e-08
-4.08236e-08
-3.09574e-15
-1.78359e-08
-4.16104e-08
-2.80393e-15
-1.98688e-08
-4.21657e-08
-2.61661e-15
-2.19007e-08
-4.24559e-08
-2.49916e-15
-2.39181e-08
-4.24476e-08
-2.43596e-15
-2.59068e-08
-4.21205e-08
-2.38169e-15
-2.78517e-08
-4.14403e-08
-2.34096e-15
-2.97364e-08
-4.03859e-08
-2.18422e-15
-3.15443e-08
-3.8932e-08
-2.0887e-15
-3.32573e-08
-3.70534e-08
-2.00642e-15
-3.48564e-08
-3.47283e-08
-1.89925e-15
-3.63221e-08
-3.1936e-08
-1.78005e-15
-3.76337e-08
-2.86598e-08
-1.63145e-15
-3.87701e-08
-2.48844e-08
-1.48425e-15
-3.97104e-08
-2.06015e-08
-1.32527e-15
-4.04327e-08
-1.58073e-08
-1.17945e-15
-4.0916e-08
-1.05042e-08
-1.03484e-15
-4.11389e-08
-4.7111e-09
-9.01677e-16
-4.1082e-08
1.55317e-09
-7.70698e-16
-4.07262e-08
8.25001e-09
-6.43927e-16
-4.00553e-08
1.53257e-08
-5.18969e-16
-3.90557e-08
2.27039e-08
-3.97621e-16
-3.77157e-08
3.03081e-08
-2.67955e-16
-3.60309e-08
3.79958e-08
-5.25606e-17
-3.40001e-08
4.56363e-08
-3.03677e-16
-3.16308e-08
5.30297e-08
-5.57038e-16
-2.89392e-08
5.99538e-08
-2.87495e-16
-2.59509e-08
6.61511e-08
-1.01009e-16
-2.2707e-08
7.12635e-08
7.4748e-17
-1.92636e-08
7.49192e-08
-2.73094e-16
-1.56965e-08
7.66746e-08
-1.16799e-16
-1.21064e-08
7.59997e-08
-2.20832e-17
-8.62442e-09
7.23104e-08
8.56829e-17
-5.41911e-09
6.49809e-08
2.69161e-16
-2.70912e-09
5.32957e-08
6.15665e-17
-7.78131e-10
3.65372e-08
7.34252e-17
1.38621e-08
4.87059e-17
-3.72977e-10
-3.1044e-08
-6.20712e-15
-2.10365e-09
-3.15969e-08
-5.47873e-15
-3.82973e-09
-3.23518e-08
-4.90475e-15
-5.59412e-09
-3.33174e-08
-4.55235e-15
-7.41121e-09
-3.44356e-08
-4.30589e-15
-9.28385e-09
-3.56184e-08
-3.89057e-15
-1.12076e-08
-3.6789e-08
-3.53116e-15
-1.31746e-08
-3.78738e-08
-3.35863e-15
-1.51753e-08
-3.88229e-08
-3.08452e-15
-1.71989e-08
-3.95869e-08
-2.80454e-15
-1.92337e-08
-4.01308e-08
-2.63253e-15
-2.12674e-08
-4.04222e-08
-2.51947e-15
-2.32867e-08
-4.04283e-08
-2.44718e-15
-2.52778e-08
-4.01295e-08
-2.38188e-15
-2.72254e-08
-3.94927e-08
-2.33527e-15
-2.91136e-08
-3.84976e-08
-2.15923e-15
-3.09256e-08
-3.71199e-08
-2.06363e-15
-3.26437e-08
-3.53354e-08
-1.98144e-15
-3.42488e-08
-3.31231e-08
-1.87907e-15
-3.57216e-08
-3.04633e-08
-1.76477e-15
-3.70413e-08
-2.734e-08
-1.62344e-15
-3.81871e-08
-2.37384e-08
-1.48168e-15
-3.9138e-08
-1.96507e-08
-1.32741e-15
-3.98721e-08
-1.5073e-08
-1.18405e-15
-4.03687e-08
-1.00079e-08
-1.04012e-15
-4.06062e-08
-4.47341e-09
-9.06613e-16
-4.05653e-08
1.51219e-09
-7.73919e-16
-4.0227e-08
7.91184e-09
-6.45575e-16
-3.95751e-08
1.46738e-08
-5.19183e-16
-3.85961e-08
2.17247e-08
-3.96416e-16
-3.72786e-08
2.89908e-08
-2.66523e-16
-3.5618e-08
3.63351e-08
-5.44829e-17
-3.36134e-08
4.36318e-08
-2.98967e-16
-3.12725e-08
5.06889e-08
-5.60666e-16
-2.86116e-08
5.72927e-08
-3.03513e-16
-2.56563e-08
6.3196e-08
-1.32024e-16
-2.24478e-08
6.80549e-08
5.56319e-17
-1.9042e-08
7.15134e-08
-2.80992e-16
-1.55143e-08
7.31469e-08
-1.22099e-16
-1.19647e-08
7.24501e-08
-2.47501e-17
-8.52295e-09
6.88686e-08
8.47621e-17
-5.35541e-09
6.18134e-08
2.69576e-16
-2.6777e-09
5.06179e-08
6.55661e-17
-7.69491e-10
3.4629e-08
7.69402e-17
1.30926e-08
5.18131e-17
2.35253e-10
-2.91484e-08
-7.10945e-15
-1.52266e-09
-2.9839e-08
-5.64037e-15
-3.26149e-09
-3.0613e-08
-4.81199e-15
-5.02758e-09
-3.15513e-08
-4.35408e-15
-6.84211e-09
-3.26211e-08
-4.00105e-15
-8.70969e-09
-3.37508e-08
-3.73675e-15
-1.06275e-08
-3.48712e-08
-3.55537e-15
-1.25885e-08
-3.59128e-08
-3.46733e-15
-1.45836e-08
-3.68279e-08
-3.21925e-15
-1.6602e-08
-3.75684e-08
-2.91692e-15
-1.86323e-08
-3.81005e-08
-2.70691e-15
-2.06621e-08
-3.83923e-08
-2.56347e-15
-2.26784e-08
-3.84121e-08
-2.46177e-15
-2.46671e-08
-3.81408e-08
-2.37741e-15
-2.66133e-08
-3.75466e-08
-2.3231e-15
-2.85009e-08
-3.66099e-08
-2.12862e-15
-3.03134e-08
-3.53073e-08
-2.03306e-15
-3.20329e-08
-3.36159e-08
-1.95072e-15
-3.36406e-08
-3.15154e-08
-1.85315e-15
-3.51171e-08
-2.89869e-08
-1.74443e-15
-3.64419e-08
-2.60151e-08
-1.61058e-15
-3.75942e-08
-2.2586e-08
-1.47515e-15
-3.85529e-08
-1.8692e-08
-1.32574e-15
-3.92964e-08
-1.43294e-08
-1.1854e-15
-3.98039e-08
-9.50063e-09
-1.04226e-15
-4.00539e-08
-4.22316e-09
-9.08591e-16
-4.00273e-08
1.48549e-09
-7.74535e-16
-3.97051e-08
7.58975e-09
-6.44952e-16
-3.90712e-08
1.40399e-08
-5.17257e-16
-3.81121e-08
2.07654e-08
-3.93524e-16
-3.68166e-08
2.76955e-08
-2.64021e-16
-3.51802e-08
3.46986e-08
-5.63687e-17
-3.32023e-08
4.1654e-08
-2.95697e-16
-3.08906e-08
4.83773e-08
-5.56473e-16
-2.82614e-08
5.46635e-08
-3.17172e-16
-2.53407e-08
6.02754e-08
-1.55897e-16
-2.21695e-08
6.48837e-08
3.64678e-17
-1.88036e-08
6.81475e-08
-2.88512e-16
-1.53178e-08
6.96613e-08
-1.27583e-16
-1.18116e-08
6.89439e-08
-2.79437e-17
-8.41294e-09
6.547e-08
8.30771e-17
-5.28612e-09
5.86865e-08
2.68581e-16
-2.64337e-09
4.79752e-08
6.83567e-17
-7.59986e-10
3.27456e-08
7.9329e-17
1.23326e-08
5.41561e-17
6.2316e-10
-2.72597e-08
-6.69319e-15
-1.12057e-09
-2.80952e-08
-5.81078e-15
-2.83918e-09
-2.88944e-08
-5.41077e-15
-4.58216e-09
-2.98083e-08
-4.73273e-15
-6.37404e-09
-3.08292e-08
-4.15192e-15
-8.22039e-09
-3.19045e-08
-3.73584e-15
-1.01191e-08
-3.29724e-08
-3.42004e-15
-1.20631e-08
-3.39688e-08
-3.29077e-15
-1.40432e-08
-3.48478e-08
-3.11047e-15
-1.60486e-08
-3.55631e-08
-2.88023e-15
-1.80675e-08
-3.60815e-08
-2.70976e-15
-2.00875e-08
-3.63722e-08
-2.5816e-15
-2.20953e-08
-3.64043e-08
-2.46825e-15
-2.40768e-08
-3.61593e-08
-2.36761e-15
-2.6017e-08
-3.56064e-08
-2.30398e-15
-2.78998e-08
-3.47269e-08
-2.09085e-15
-2.97086e-08
-3.34984e-08
-1.99506e-15
-3.14258e-08
-3.18987e-08
-1.91292e-15
-3.30324e-08
-2.99087e-08
-1.82144e-15
-3.45093e-08
-2.75102e-08
-1.71946e-15
-3.58358e-08
-2.46885e-08
-1.59403e-15
-3.69914e-08
-2.14303e-08
-1.46574e-15
-3.79551e-08
-1.77283e-08
-1.32169e-15
-3.87053e-08
-1.3579e-08
-1.18486e-15
-3.92214e-08
-8.98483e-09
-1.04281e-15
-3.94819e-08
-3.96244e-09
-9.09259e-16
-3.94678e-08
1.47127e-09
-7.74102e-16
-3.91602e-08
7.28226e-09
-6.43603e-16
-3.85431e-08
1.34228e-08
-5.14784e-16
-3.76031e-08
1.98253e-08
-3.90309e-16
-3.63293e-08
2.64218e-08
-2.61359e-16
-3.47172e-08
3.30864e-08
-5.88187e-17
-3.27663e-08
3.97032e-08
-2.91779e-16
-3.04845e-08
4.60956e-08
-5.5116e-16
-2.78883e-08
5.20672e-08
-3.27405e-16
-2.50037e-08
5.73908e-08
-1.76621e-16
-2.18716e-08
6.17516e-08
2.10591e-17
-1.85479e-08
6.48237e-08
-2.9379e-16
-1.51067e-08
6.62202e-08
-1.32095e-16
-1.16466e-08
6.54837e-08
-3.0822e-17
-8.29413e-09
6.21175e-08
8.10449e-17
-5.21104e-09
5.56034e-08
2.66364e-16
-2.60602e-09
4.53702e-08
6.96755e-17
-7.49573e-10
3.08892e-08
8.03759e-17
1.1583e-08
5.51808e-17
8.28017e-10
-2.54336e-08
-6.76723e-15
-8.7212e-10
-2.63951e-08
-5.80525e-15
-2.54681e-09
-2.72197e-08
-5.39544e-15
-4.24846e-09
-2.81066e-08
-4.36387e-15
-6.00191e-09
-2.90758e-08
-3.7216e-15
-7.8137e-09
-3.00927e-08
-3.55985e-15
-9.68179e-09
-3.11043e-08
-3.50277e-15
-1.15989e-08
-3.20517e-08
-3.46571e-15
-1.35555e-08
-3.28912e-08
-3.28621e-15
-1.55402e-08
-3.35783e-08
-3.00431e-15
-1.75411e-08
-3.40807e-08
-2.77172e-15
-1.95452e-08
-3.43681e-08
-2.60202e-15
-2.15389e-08
-3.44106e-08
-2.45542e-15
-2.35081e-08
-3.41901e-08
-2.33701e-15
-2.54375e-08
-3.36771e-08
-2.26691e-15
-2.7311e-08
-3.28533e-08
-2.04408e-15
-2.9112e-08
-3.16973e-08
-1.95086e-15
-3.08228e-08
-3.0188e-08
-1.87023e-15
-3.24246e-08
-2.8307e-08
-1.78539e-15
-3.38981e-08
-2.60368e-08
-1.69064e-15
-3.52231e-08
-2.33635e-08
-1.574e-15
-3.63788e-08
-2.02744e-08
-1.45339e-15
-3.73445e-08
-1.67625e-08
-1.31515e-15
-3.80988e-08
-1.28246e-08
-1.18232e-15
-3.86209e-08
-8.46294e-09
-1.04171e-15
-3.88897e-08
-3.6934e-09
-9.08664e-16
-3.88863e-08
1.46771e-09
-7.72722e-16
-3.85917e-08
6.98787e-09
-6.41658e-16
-3.79903e-08
1.28214e-08
-5.11948e-16
-3.70688e-08
1.89036e-08
-3.87037e-16
-3.58161e-08
2.51694e-08
-2.58803e-16
-3.42283e-08
3.14984e-08
-6.06333e-17
-3.23048e-08
3.77797e-08
-2.88367e-16
-3.00537e-08
4.38446e-08
-5.44238e-16
-2.74916e-08
4.95051e-08
-3.33818e-16
-2.46447e-08
5.4544e-08
-1.90346e-16
-2.15539e-08
5.86607e-08
6.47742e-18
-1.82745e-08
6.15443e-08
-2.99003e-16
-1.48806e-08
6.28264e-08
-1.37076e-16
-1.14695e-08
6.20726e-08
-3.45362e-17
-8.16624e-09
5.88142e-08
7.79534e-17
-5.12995e-09
5.25671e-08
2.62653e-16
-2.56551e-09
4.28057e-08
6.96482e-17
-7.38204e-10
2.90619e-08
8.02087e-17
1.08448e-08
5.5274e-17
9.08499e-10
-2.3693e-08
-6.23593e-15
-7.35379e-10
-2.47512e-08
-5.35491e-15
-2.3565e-09
-2.55986e-08
-5.35191e-15
-4.0079e-09
-2.64552e-08
-4.58894e-15
-5.71382e-09
-2.73698e-08
-3.89251e-15
-7.48221e-09
-2.83243e-08
-3.64387e-15
-9.31122e-09
-2.92753e-08
-3.47617e-15
-1.11935e-08
-3.01694e-08
-3.35535e-15
-1.31192e-08
-3.09655e-08
-3.19022e-15
-1.50765e-08
-3.1621e-08
-2.94625e-15
-1.7053e-08
-3.21042e-08
-2.74211e-15
-1.90354e-08
-3.23856e-08
-2.58971e-15
-2.10097e-08
-3.24363e-08
-2.43825e-15
-2.29615e-08
-3.22383e-08
-2.30977e-15
-2.48753e-08
-3.17633e-08
-2.23088e-15
-2.6735e-08
-3.09935e-08
-1.99854e-15
-2.85238e-08
-2.99085e-08
-1.90539e-15
-3.02241e-08
-2.84878e-08
-1.82461e-15
-3.18171e-08
-2.6714e-08
-1.74593e-15
-3.32836e-08
-2.45704e-08
-1.65832e-15
-3.46034e-08
-2.20437e-08
-1.55074e-15
-3.5756e-08
-1.91217e-08
-1.43804e-15
-3.67207e-08
-1.57978e-08
-1.306e-15
-3.74762e-08
-1.2069e-08
-1.17752e-15
-3.80019e-08
-7.93744e-09
-1.03879e-15
-3.82769e-08
-3.41825e-09
-9.06577e-16
-3.82822e-08
1.47291e-09
-7.70236e-16
-3.79992e-08
6.70503e-09
-6.38906e-16
-3.74123e-08
1.22345e-08
-5.0862e-16
-3.65083e-08
1.79994e-08
-3.83604e-16
-3.52765e-08
2.39378e-08
-2.56126e-16
-3.37129e-08
2.99347e-08
-6.18349e-17
-3.18172e-08
3.58841e-08
-2.84721e-16
-2.95977e-08
4.16251e-08
-5.37175e-16
-2.7071e-08
4.69783e-08
-3.37262e-16
-2.42634e-08
5.17364e-08
-2.01795e-16
-2.12156e-08
5.5613e-08
-4.21809e-18
-1.79831e-08
5.83117e-08
-3.02269e-16
-1.4639e-08
5.94824e-08
-1.41013e-16
-1.12799e-08
5.87135e-08
-3.78871e-17
-8.02897e-09
5.55633e-08
7.46127e-17
-5.04266e-09
4.95808e-08
2.58006e-16
-2.52172e-09
4.02848e-08
6.85395e-17
-7.25832e-10
2.7266e-08
7.90428e-17
1.0119e-08
5.43643e-17
9.15542e-10
-2.20376e-08
-5.37709e-15
-6.71483e-10
-2.31642e-08
-5.03058e-15
-2.24006e-09
-2.403e-08
-5.02407e-15
-3.83996e-09
-2.48553e-08
-4.00276e-15
-5.49539e-09
-2.57144e-08
-3.46932e-15
-7.21602e-09
-2.66037e-08
-3.36262e-15
-9.00073e-09
-2.74906e-08
-3.26552e-15
-1.08426e-08
-2.83275e-08
-3.18441e-15
-1.27317e-08
-2.90765e-08
-3.08158e-15
-1.46559e-08
-2.96967e-08
-2.87476e-15
-1.66025e-08
-3.01576e-08
-2.68633e-15
-1.85577e-08
-3.04303e-08
-2.54101e-15
-2.05074e-08
-3.04867e-08
-2.38649e-15
-2.24368e-08
-3.0309e-08
-2.25727e-15
-2.43303e-08
-2.98698e-08
-2.18176e-15
-2.61715e-08
-2.91522e-08
-1.94771e-15
-2.79438e-08
-2.81361e-08
-1.85755e-15
-2.96293e-08
-2.68023e-08
-1.77779e-15
-3.12095e-08
-2.51338e-08
-1.70478e-15
-3.26652e-08
-2.31147e-08
-1.62373e-15
-3.39763e-08
-2.07325e-08
-1.52468e-15
-3.51225e-08
-1.79754e-08
-1.41971e-15
-3.60831e-08
-1.48372e-08
-1.29396e-15
-3.68369e-08
-1.1315e-08
-1.17012e-15
-3.73637e-08
-7.41087e-09
-1.03371e-15
-3.76426e-08
-3.13921e-09
-9.02736e-16
-3.76548e-08
1.48498e-09
-7.66364e-16
-3.73818e-08
6.43222e-09
-6.35188e-16
-3.68082e-08
1.16608e-08
-5.04678e-16
-3.5921e-08
1.71121e-08
-3.799e-16
-3.47097e-08
2.27267e-08
-2.53371e-16
-3.31703e-08
2.83952e-08
-6.24641e-17
-3.13029e-08
3.40168e-08
-2.81951e-16
-2.91157e-08
3.9438e-08
-5.33849e-16
-2.66257e-08
4.44882e-08
-3.38557e-16
-2.3859e-08
4.89698e-08
-2.07836e-16
-2.08565e-08
5.26104e-08
-1.40159e-17
-1.76731e-08
5.51283e-08
-3.05199e-16
-1.43816e-08
5.6191e-08
-1.45237e-16
-1.10775e-08
5.54094e-08
-4.19369e-17
-7.88206e-09
5.23679e-08
7.03369e-17
-4.94893e-09
4.66477e-08
2.52078e-16
-2.4745e-09
3.78103e-08
6.63634e-17
-7.12403e-10
2.55039e-08
7.69228e-17
9.4066e-09
5.26967e-17
8.80359e-10
-2.04586e-08
-4.8455e-15
-6.54079e-10
-2.16297e-08
-4.77978e-15
-2.17548e-09
-2.25086e-08
-4.60198e-15
-3.72693e-09
-2.33039e-08
-3.90026e-15
-5.33295e-09
-2.41084e-08
-3.48105e-15
-7.00485e-09
-2.49318e-08
-3.43715e-15
-8.74283e-09
-2.57526e-08
-3.29564e-15
-1.05408e-08
-2.65295e-08
-3.12486e-15
-1.23891e-08
-2.72282e-08
-2.99119e-15
-1.42756e-08
-2.78101e-08
-2.78107e-15
-1.61875e-08
-2.82457e-08
-2.60888e-15
-1.81108e-08
-2.8507e-08
-2.4826e-15
-2.0031e-08
-2.85665e-08
-2.33674e-15
-2.19332e-08
-2.84068e-08
-2.2113e-15
-2.38017e-08
-2.80014e-08
-2.13688e-15
-2.56199e-08
-2.73338e-08
-1.90444e-15
-2.73712e-08
-2.63848e-08
-1.81387e-15
-2.90378e-08
-2.51357e-08
-1.7326e-15
-3.06011e-08
-2.35704e-08
-1.66335e-15
-3.20422e-08
-2.16738e-08
-1.58748e-15
-3.3341e-08
-1.94336e-08
-1.49614e-15
-3.44773e-08
-1.6839e-08
-1.39836e-15
-3.54307e-08
-1.38839e-08
-1.27883e-15
-3.61801e-08
-1.05654e-08
-1.15975e-15
-3.67054e-08
-6.88579e-09
-1.0261e-15
-3.69859e-08
-2.85851e-09
-8.96815e-16
-3.70031e-08
1.50204e-09
-7.60848e-16
-3.67386e-08
6.16789e-09
-6.30269e-16
-3.61772e-08
1.10994e-08
-4.99952e-16
-3.5306e-08
1.62408e-08
-3.75783e-16
-3.41148e-08
2.15357e-08
-2.50445e-16
-3.25998e-08
2.68801e-08
-6.29295e-17
-3.07611e-08
3.21782e-08
-2.78776e-16
-2.86072e-08
3.72843e-08
-5.31423e-16
-2.61552e-08
4.2036e-08
-3.38324e-16
-2.34311e-08
4.62459e-08
-2.12789e-16
-2.04759e-08
4.96551e-08
-2.05168e-17
-1.73441e-08
5.19965e-08
-3.06224e-16
-1.4108e-08
5.2955e-08
-1.48289e-16
-1.08619e-08
5.21632e-08
-4.54508e-17
-7.7252e-09
4.92312e-08
6.60289e-17
-4.84854e-09
4.3771e-08
2.45503e-16
-2.42372e-09
3.53855e-08
6.34171e-17
-6.97862e-10
2.37781e-08
7.41397e-17
8.70874e-09
5.03717e-17
8.16404e-10
-1.89488e-08
-4.42599e-15
-6.69319e-10
-2.0144e-08
-4.61788e-15
-2.14849e-09
-2.10294e-08
-4.25437e-15
-3.6557e-09
-2.17966e-08
-3.77419e-15
-5.21523e-09
-2.25488e-08
-3.238e-15
-6.83947e-09
-2.33076e-08
-3.08305e-15
-8.53019e-09
-2.40618e-08
-2.924e-15
-1.02824e-08
-2.47773e-08
-2.8017e-15
-1.2087e-08
-2.54236e-08
-2.76252e-15
-1.39324e-08
-2.59648e-08
-2.62389e-15
-1.58056e-08
-2.63726e-08
-2.50024e-15
-1.76926e-08
-2.66199e-08
-2.40211e-15
-1.95788e-08
-2.66803e-08
-2.26932e-15
-2.14493e-08
-2.65363e-08
-2.15184e-15
-2.32882e-08
-2.61626e-08
-2.0822e-15
-2.5079e-08
-2.55429e-08
-1.86058e-15
-2.6805e-08
-2.46588e-08
-1.77203e-15
-2.84484e-08
-2.34922e-08
-1.68942e-15
-2.99909e-08
-2.20279e-08
-1.6225e-15
-3.14135e-08
-2.02513e-08
-1.55038e-15
-3.26964e-08
-1.81508e-08
-1.46539e-15
-3.38194e-08
-1.57159e-08
-1.37399e-15
-3.47624e-08
-1.29409e-08
-1.26036e-15
-3.55045e-08
-9.82316e-09
-1.14612e-15
-3.60258e-08
-6.36473e-09
-1.01553e-15
-3.63057e-08
-2.57837e-09
-8.8842e-16
-3.6326e-08
1.5222e-09
-7.5342e-16
-3.60685e-08
5.91054e-09
-6.2397e-16
-3.55182e-08
1.05491e-08
-4.94254e-16
-3.46624e-08
1.53848e-08
-3.71107e-16
-3.34909e-08
2.03644e-08
-2.47233e-16
-3.20004e-08
2.53895e-08
-6.32451e-17
-3.0191e-08
3.03689e-08
-2.74504e-16
-2.80714e-08
3.51647e-08
-5.2641e-16
-2.56587e-08
3.96232e-08
-3.36678e-16
-2.29791e-08
4.35664e-08
-2.1391e-16
-2.00733e-08
4.67493e-08
-2.61312e-17
-1.69957e-08
4.89188e-08
-3.0672e-16
-1.38178e-08
4.97772e-08
-1.51383e-16
-1.06327e-08
4.89781e-08
-4.94265e-17
-7.5581e-09
4.61566e-08
6.09853e-17
-4.74127e-09
4.09542e-08
2.37827e-16
-2.36923e-09
3.30135e-08
5.95048e-17
-6.82153e-10
2.2091e-08
7.05897e-17
8.02659e-09
4.74318e-17
7.2722e-10
-1.75046e-08
-4.66608e-15
-7.11324e-10
-1.87055e-08
-4.74858e-15
-2.15097e-09
-1.95898e-08
-4.07875e-15
-3.61753e-09
-2.03301e-08
-3.61614e-15
-5.13373e-09
-2.10326e-08
-3.19486e-15
-6.71228e-09
-2.17291e-08
-3.1536e-15
-8.35633e-09
-2.24178e-08
-2.97539e-15
-1.0062e-08
-2.30716e-08
-2.77655e-15
-1.18212e-08
-2.36644e-08
-2.69166e-15
-1.36226e-08
-2.41633e-08
-2.52871e-15
-1.54537e-08
-2.45415e-08
-2.40796e-15
-1.73006e-08
-2.4773e-08
-2.32289e-15
-1.91488e-08
-2.48321e-08
-2.20281e-15
-2.09833e-08
-2.47018e-08
-2.09458e-15
-2.27882e-08
-2.43577e-08
-2.02979e-15
-2.45472e-08
-2.37838e-08
-1.83946e-15
-2.62436e-08
-2.29623e-08
-1.73648e-15
-2.78598e-08
-2.18761e-08
-1.64966e-15
-2.93774e-08
-2.05103e-08
-1.58268e-15
-3.07777e-08
-1.88511e-08
-1.51252e-15
-3.2041e-08
-1.68874e-08
-1.43254e-15
-3.31474e-08
-1.46093e-08
-1.34655e-15
-3.40769e-08
-1.20113e-08
-1.23845e-15
-3.48089e-08
-9.09102e-09
-1.12901e-15
-3.53237e-08
-5.85023e-09
-1.0018e-15
-3.56009e-08
-2.30098e-09
-8.77304e-16
-3.56224e-08
1.54364e-09
-7.43855e-16
-3.53705e-08
5.65872e-09
-6.16009e-16
-3.48301e-08
1.00087e-08
-4.87424e-16
-3.3989e-08
1.45435e-08
-3.65711e-16
-3.28371e-08
1.92128e-08
-2.43594e-16
-3.13712e-08
2.39235e-08
-6.31691e-17
-2.95918e-08
2.85895e-08
-2.69891e-16
-2.75076e-08
3.30806e-08
-5.16453e-16
-2.51356e-08
3.72512e-08
-3.33381e-16
-2.25024e-08
4.09332e-08
-2.14532e-16
-1.96483e-08
4.38951e-08
-2.89537e-17
-1.66273e-08
4.58978e-08
-3.05415e-16
-1.35105e-08
4.66604e-08
-1.5327e-16
-1.03897e-08
4.58573e-08
-5.27205e-17
-7.38048e-09
4.31473e-08
5.60988e-17
-4.6269e-09
3.82006e-08
2.29694e-16
-2.31089e-09
3.06975e-08
5.50665e-17
-6.65216e-10
2.04453e-08
6.66127e-17
7.36137e-09
4.40932e-17
6.13316e-10
-1.61249e-08
-4.42947e-15
-7.77733e-10
-1.73144e-08
-4.62711e-15
-2.1786e-09
-1.81889e-08
-3.83221e-15
-3.60687e-09
-1.89018e-08
-3.69949e-15
-5.08241e-09
-1.95571e-08
-3.15075e-15
-6.61736e-09
-2.01941e-08
-2.98771e-15
-8.21575e-09
-2.08194e-08
-2.76895e-15
-9.87477e-09
-2.14126e-08
-2.58661e-15
-1.15872e-08
-2.1952e-08
-2.54662e-15
-1.33425e-08
-2.2408e-08
-2.42268e-15
-1.51285e-08
-2.27554e-08
-2.32655e-15
-1.69319e-08
-2.29696e-08
-2.25585e-15
-1.87382e-08
-2.30258e-08
-2.14205e-15
-2.05327e-08
-2.29074e-08
-2.03522e-15
-2.22995e-08
-2.25908e-08
-1.96786e-15
-2.40226e-08
-2.20606e-08
-1.846e-15
-2.56853e-08
-2.12996e-08
-1.70484e-15
-2.72701e-08
-2.02913e-08
-1.61196e-15
-2.87589e-08
-1.90214e-08
-1.5435e-15
-3.01331e-08
-1.74769e-08
-1.47397e-15
-3.13733e-08
-1.56472e-08
-1.3976e-15
-3.24597e-08
-1.35228e-08
-1.31613e-15
-3.33727e-08
-1.10984e-08
-1.21297e-15
-3.40918e-08
-8.37179e-09
-1.10825e-15
-3.45975e-08
-5.34475e-09
-9.84671e-16
-3.48698e-08
-2.02849e-09
-8.63258e-16
-3.48908e-08
1.56458e-09
-7.32018e-16
-3.4643e-08
5.41103e-09
-6.06263e-16
-3.41116e-08
9.47731e-09
-4.7932e-16
-3.32846e-08
1.37164e-08
-3.59483e-16
-3.21522e-08
1.80806e-08
-2.39391e-16
-3.07113e-08
2.24825e-08
-6.2747e-17
-2.89625e-08
2.68408e-08
-2.64526e-16
-2.69148e-08
3.10329e-08
-5.0299e-16
-2.45852e-08
3.49216e-08
-3.28753e-16
-2.20003e-08
3.83483e-08
-2.12412e-16
-1.92002e-08
4.1095e-08
-3.0882e-17
-1.62386e-08
4.29362e-08
-3.03476e-16
-1.31859e-08
4.36077e-08
-1.54995e-16
-1.01325e-08
4.2804e-08
-5.62345e-17
-7.19207e-09
4.02069e-08
5.06884e-17
-4.50521e-09
3.55137e-08
2.2062e-16
-2.24855e-09
2.84408e-08
4.97592e-17
-6.46989e-10
1.88438e-08
6.20216e-17
6.71438e-09
4.02352e-17
4.75017e-10
-1.48095e-08
-4.5058e-15
-8.67539e-10
-1.59719e-08
-4.69563e-15
-2.22928e-09
-1.68272e-08
-3.74508e-15
-3.62054e-09
-1.75105e-08
-3.54406e-15
-5.05729e-09
-1.81203e-08
-3.07049e-15
-6.55033e-09
-1.87011e-08
-2.97763e-15
-8.10399e-09
-1.92657e-08
-2.74696e-15
-9.7163e-09
-1.98003e-08
-2.53185e-15
-1.13809e-08
-2.02874e-08
-2.46569e-15
-1.30882e-08
-2.07006e-08
-2.32736e-15
-1.48267e-08
-2.10169e-08
-2.23202e-15
-1.65833e-08
-2.12129e-08
-2.16964e-15
-1.83442e-08
-2.12649e-08
-2.06444e-15
-2.00948e-08
-2.11569e-08
-1.95769e-15
-2.18196e-08
-2.08661e-08
-1.86406e-15
-2.35027e-08
-2.03775e-08
-1.78182e-15
-2.51276e-08
-1.96747e-08
-1.66786e-15
-2.6677e-08
-1.87418e-08
-1.57378e-15
-2.81332e-08
-1.75653e-08
-1.50386e-15
-2.94776e-08
-1.61326e-08
-1.43417e-15
-3.06912e-08
-1.44336e-08
-1.36036e-15
-3.17544e-08
-1.24594e-08
-1.28255e-15
-3.26478e-08
-1.0205e-08
-1.18391e-15
-3.33513e-08
-7.66821e-09
-1.08369e-15
-3.38455e-08
-4.85072e-09
-9.6407e-16
-3.41109e-08
-1.76297e-09
-8.4616e-16
-3.41297e-08
1.58329e-09
-7.17712e-16
-3.38847e-08
5.16614e-09
-5.9461e-16
-3.33614e-08
8.95402e-09
-4.6985e-16
-3.2548e-08
1.29028e-08
-3.52323e-16
-3.1435e-08
1.69678e-08
-2.34551e-16
-3.00194e-08
2.10668e-08
-6.15866e-17
-2.83021e-08
2.51237e-08
-2.58624e-16
-2.62922e-08
2.9023e-08
-4.88236e-16
-2.40067e-08
3.26361e-08
-3.22708e-16
-2.14721e-08
3.58138e-08
-2.09951e-16
-1.87285e-08
3.83513e-08
-3.10499e-17
-1.58291e-08
4.00368e-08
-3.00027e-16
-1.28434e-08
4.06221e-08
-1.55571e-16
-9.86083e-09
3.98214e-08
-5.89964e-17
-6.99261e-09
3.73386e-08
4.55769e-17
-4.376e-09
3.28971e-08
2.11255e-16
-2.18206e-09
2.62469e-08
4.37785e-17
-6.27411e-10
1.72891e-08
5.71735e-17
6.08697e-09
3.61704e-17
3.12833e-10
-1.35581e-08
-4.33686e-15
-9.80485e-10
-1.46786e-08
-4.64172e-15
-2.30242e-09
-1.55052e-08
-3.70069e-15
-3.65705e-09
-1.61559e-08
-3.46175e-15
-5.05597e-09
-1.67214e-08
-2.97096e-15
-6.50809e-09
-1.7249e-08
-2.87708e-15
-8.01753e-09
-1.77562e-08
-2.64548e-15
-9.5829e-09
-1.82349e-08
-2.44448e-15
-1.11987e-08
-1.86716e-08
-2.39094e-15
-1.28562e-08
-1.90431e-08
-2.26319e-15
-1.45446e-08
-1.93285e-08
-2.17104e-15
-1.62515e-08
-1.95059e-08
-2.1093e-15
-1.79636e-08
-1.95529e-08
-1.9985e-15
-1.96667e-08
-1.94538e-08
-1.8726e-15
-2.13456e-08
-1.91871e-08
-1.70449e-15
-2.29848e-08
-1.87383e-08
-1.67478e-15
-2.45679e-08
-1.80914e-08
-1.61837e-15
-2.60782e-08
-1.72315e-08
-1.53196e-15
-2.7498e-08
-1.61455e-08
-1.46243e-15
-2.88091e-08
-1.48216e-08
-1.39263e-15
-2.99927e-08
-1.325e-08
-1.32058e-15
-3.10295e-08
-1.14224e-08
-1.24571e-15
-3.19004e-08
-9.33411e-09
-1.15126e-15
-3.25855e-08
-6.98293e-09
-1.05539e-15
-3.3066e-08
-4.37048e-09
-9.39999e-16
-3.33223e-08
-1.50641e-09
-8.26e-16
-3.33373e-08
1.59815e-09
-7.00907e-16
-3.30939e-08
4.92282e-09
-5.80999e-16
-3.25778e-08
8.43801e-09
-4.58963e-16
-3.17777e-08
1.21025e-08
-3.44186e-16
-3.06841e-08
1.58745e-08
-2.28998e-16
-2.92945e-08
1.9677e-08
-6.00305e-17
-2.76097e-08
2.34389e-08
-2.51869e-16
-2.56389e-08
2.70523e-08
-4.73901e-16
-2.33994e-08
3.03965e-08
-3.15614e-16
-2.09174e-08
3.33319e-08
-2.05595e-16
-1.82327e-08
3.56666e-08
-3.09026e-17
-1.53983e-08
3.72024e-08
-2.95953e-16
-1.24829e-08
3.77067e-08
-1.55818e-16
-9.57436e-09
3.69129e-08
-6.17639e-17
-6.78188e-09
3.45462e-08
4.01527e-17
-4.23908e-09
3.03543e-08
2.01167e-16
-2.1113e-09
2.41191e-08
3.71346e-17
-6.06418e-10
1.57843e-08
5.17959e-17
5.48056e-09
3.16464e-17
1.26894e-10
-1.23691e-08
-4.14528e-15
-1.11713e-09
-1.34346e-08
-4.49935e-15
-2.39856e-09
-1.42238e-08
-3.57114e-15
-3.71618e-09
-1.48383e-08
-3.29695e-15
-5.07725e-09
-1.53603e-08
-2.83151e-15
-6.48852e-09
-1.58377e-08
-2.74521e-15
-7.95354e-09
-1.62912e-08
-2.52112e-15
-9.47125e-09
-1.67172e-08
-2.33987e-15
-1.10369e-08
-1.71059e-08
-2.28613e-15
-1.26427e-08
-1.74374e-08
-2.15201e-15
-1.42785e-08
-1.76927e-08
-2.06901e-15
-1.59328e-08
-1.78515e-08
-2.01335e-15
-1.75929e-08
-1.78929e-08
-1.90639e-15
-1.92449e-08
-1.78018e-08
-1.7711e-15
-2.08743e-08
-1.75577e-08
-1.54973e-15
-2.24658e-08
-1.71467e-08
-1.59102e-15
-2.40036e-08
-1.65536e-08
-1.56353e-15
-2.5471e-08
-1.57641e-08
-1.48632e-15
-2.68507e-08
-1.47658e-08
-1.41812e-15
-2.8125e-08
-1.35474e-08
-1.34848e-15
-2.92752e-08
-1.20998e-08
-1.27799e-15
-3.02825e-08
-1.0415e-08
-1.20554e-15
-3.1128e-08
-8.48859e-09
-1.11511e-15
-3.17923e-08
-6.31851e-09
-1.02347e-15
-3.22567e-08
-3.90627e-09
-9.12572e-16
-3.25022e-08
-1.26074e-09
-8.0285e-16
-3.25118e-08
1.60764e-09
-6.81642e-16
-3.22688e-08
4.67994e-09
-5.65443e-16
-3.17594e-08
7.92858e-09
-4.46659e-16
-3.09722e-08
1.13152e-08
-3.35057e-16
-2.98983e-08
1.48008e-08
-2.22788e-16
-2.85352e-08
1.83138e-08
-5.77428e-17
-2.6884e-08
2.17878e-08
-2.4471e-16
-2.4954e-08
2.51223e-08
-4.59441e-16
-2.27623e-08
2.82048e-08
-3.07322e-16
-2.03353e-08
3.09049e-08
-2.00844e-16
-1.77124e-08
3.30437e-08
-3.00443e-17
-1.49459e-08
3.44359e-08
-2.90702e-16
-1.21039e-08
3.48648e-08
-1.5505e-16
-9.27288e-09
3.40818e-08
-6.37952e-17
-6.55968e-09
3.1833e-08
3.51326e-17
-4.09428e-09
2.78889e-08
1.91084e-16
-2.03614e-09
2.20609e-08
3.08041e-17
-5.8395e-10
1.43321e-08
4.63171e-17
4.89661e-09
2.70569e-17
-8.49109e-11
-1.12405e-08
-3.7851e-15
-1.27956e-09
-1.22399e-08
-4.21048e-15
-2.51932e-09
-1.2984e-08
-3.32506e-15
-3.79859e-09
-1.3559e-08
-3.18354e-15
-5.12066e-09
-1.40383e-08
-2.78269e-15
-6.49008e-09
-1.44683e-08
-2.69339e-15
-7.90958e-09
-1.48717e-08
-2.44598e-15
-9.37825e-09
-1.52485e-08
-2.26059e-15
-1.0892e-08
-1.55921e-08
-2.20514e-15
-1.24439e-08
-1.58855e-08
-2.07288e-15
-1.40246e-08
-1.61119e-08
-1.99569e-15
-1.56235e-08
-1.62526e-08
-1.94064e-15
-1.72282e-08
-1.62882e-08
-1.83089e-15
-1.88259e-08
-1.62042e-08
-1.68813e-15
-2.04023e-08
-1.59814e-08
-1.47036e-15
-2.19425e-08
-1.56064e-08
-1.53035e-15
-2.34312e-08
-1.50649e-08
-1.51046e-15
-2.48522e-08
-1.43431e-08
-1.43746e-15
-2.61884e-08
-1.34296e-08
-1.3703e-15
-2.74224e-08
-1.23134e-08
-1.30116e-15
-2.85361e-08
-1.09861e-08
-1.23224e-15
-2.95109e-08
-9.4401e-09
-1.16208e-15
-3.03283e-08
-7.67118e-09
-1.07551e-15
-3.09693e-08
-5.67744e-09
-9.88119e-16
-3.14155e-08
-3.46025e-09
-8.81972e-16
-3.16483e-08
-1.02774e-09
-7.76869e-16
-3.16511e-08
1.61034e-09
-6.6001e-16
-3.14075e-08
4.43651e-09
-5.47994e-16
-3.09041e-08
7.42516e-09
-4.32974e-16
-3.01298e-08
1.05407e-08
-3.2496e-16
-2.9076e-08
1.37472e-08
-2.15924e-16
-2.77402e-08
1.6978e-08
-5.53548e-17
-2.6124e-08
2.01716e-08
-2.36613e-16
-2.42364e-08
2.32348e-08
-4.44903e-16
-2.20948e-08
2.60631e-08
-2.98236e-16
-1.97252e-08
2.85354e-08
-1.94983e-16
-1.71669e-08
3.04853e-08
-2.90638e-17
-1.44715e-08
3.17406e-08
-2.84786e-16
-1.17063e-08
3.20995e-08
-1.53822e-16
-8.95619e-09
3.13318e-08
-6.56724e-17
-6.32585e-09
2.92026e-08
3.00033e-17
-3.94147e-09
2.55045e-08
1.80643e-16
-1.95647e-09
2.00759e-08
2.44527e-17
-5.59946e-10
1.29356e-08
4.04253e-17
4.33666e-09
2.20684e-17
-3.25656e-10
-1.01703e-08
-3.54233e-15
-1.47042e-09
-1.10952e-08
-3.95441e-15
-2.66661e-09
-1.17878e-08
-3.08161e-15
-3.90512e-09
-1.23205e-08
-2.98372e-15
-5.18584e-09
-1.27575e-08
-2.6319e-15
-6.51126e-09
-1.31429e-08
-2.55657e-15
-7.88319e-09
-1.34997e-08
-2.33062e-15
-9.30077e-09
-1.38309e-08
-2.16465e-15
-1.07605e-08
-1.41325e-08
-2.10854e-15
-1.2256e-08
-1.439e-08
-1.97244e-15
-1.3779e-08
-1.45889e-08
-1.89491e-15
-1.53194e-08
-1.47122e-08
-1.8411e-15
-1.68658e-08
-1.47418e-08
-1.73659e-15
-1.84058e-08
-1.46642e-08
-1.60219e-15
-1.99258e-08
-1.44614e-08
-1.40105e-15
-2.14113e-08
-1.41208e-08
-1.50083e-15
-2.28475e-08
-1.36286e-08
-1.4611e-15
-2.42186e-08
-1.29721e-08
-1.3855e-15
-2.55079e-08
-1.21402e-08
-1.31849e-15
-2.66985e-08
-1.11229e-08
-1.25019e-15
-2.77725e-08
-9.91203e-09
-1.18297e-15
-2.87119e-08
-8.50058e-09
-1.11538e-15
-2.94986e-08
-6.88453e-09
-1.03258e-15
-3.01138e-08
-5.06207e-09
-9.49576e-16
-3.05398e-08
-3.03447e-09
-8.48455e-16
-3.07583e-08
-8.09096e-10
-7.48271e-16
-3.0753e-08
1.60495e-09
-6.36171e-16
-3.0508e-08
4.19165e-09
-5.28754e-16