/*--------------------------------*- C++ -*----------------------------------*\
| =========                 |                                                 |
| \\      /  F ield         | OpenFOAM: The Open Source CFD Toolbox           |
|  \\    /   O peration     | Version:  v2012                                 |
|   \\  /    A nd           | Website:  www.openfoam.com                      |
|    \\/     M anipulation  |                                                 |
\*---------------------------------------------------------------------------*/
FoamFile
{
    version     2.0;
    format      ascii;
    class       volVectorField;
    location    "0.45";
    object      U;
}
// * * * * * * * * * * * * * * * * * * * * * * * * * * * * * * * * * * * * * //

dimensions      [0 1 -1 0 0 0 0];


internalField   nonuniform List<vector> 
3326
(
(-0.320127 0.366284 0.00279512)
(-0.264983 0.358389 0.00231377)
(-0.211747 0.341556 0.00184907)
(-0.161389 0.315516 0.00140948)
(-0.115074 0.280041 0.00100515)
(-0.0740568 0.234967 0.000647041)
(-0.0400234 0.180185 0.000349849)
(-0.0145317 0.115649 0.000127286)
(-0.000615645 0.0412511 7.6566e-06)
(-0.484575 0.325878 0.00423043)
(-0.42899 0.342282 0.00374527)
(-0.37302 0.350943 0.00325676)
(-0.317328 0.35157 0.00277061)
(-0.262668 0.343875 0.00229351)
(-0.209895 0.327578 0.00183286)
(-0.159976 0.30243 0.00139711)
(-0.114069 0.26823 0.000996347)
(-0.0734148 0.224848 0.000641418)
(-0.0396834 0.172222 0.000346869)
(-0.0144148 0.110372 0.00012626)
(-0.000613453 0.0392744 7.61987e-06)
(-0.12409 -3.43682 0.00108202)
(-0.238234 -3.10328 0.00207834)
(-0.335341 -2.84152 0.00292601)
(-0.423999 -2.63028 0.00369987)
(-0.50431 -2.45067 0.00440089)
(-0.57768 -2.29049 0.00504132)
(-0.644261 -2.14179 0.0056225)
(-0.704353 -2.00004 0.00614704)
(-0.758104 -1.86276 0.00661625)
(-0.805693 -1.72873 0.00703167)
(-0.847284 -1.59747 0.00739473)
(-0.883047 -1.46889 0.00770693)
(-0.91314 -1.34308 0.00796965)
(-0.937719 -1.22025 0.00818424)
(-0.956925 -1.1006 0.00835196)
(-0.97089 -0.984364 0.0084739)
(-0.979735 -0.871744 0.00855115)
(-0.983576 -0.762937 0.00858474)
(-0.982523 -0.658128 0.00857562)
(-0.976687 -0.557497 0.00852475)
(-0.96618 -0.461215 0.00843311)
(-0.951119 -0.369453 0.00830172)
(-0.931632 -0.282384 0.0081317)
(-0.907856 -0.200182 0.00792425)
(-0.879949 -0.123031 0.00768074)
(-0.848082 -0.0511047 0.00740267)
(-0.812445 0.015413 0.00709179)
(-0.773257 0.0763274 0.00674982)
(-0.730764 0.131445 0.00637899)
(-0.685251 0.180554 0.0059818)
(-0.637025 0.223451 0.00556093)
(-0.586442 0.259912 0.00511947)
(-0.533906 0.289699 0.00466096)
(-0.479872 0.312565 0.00418929)
(-0.424858 0.328251 0.00370914)
(-0.369442 0.336487 0.00322546)
(-0.314287 0.336992 0.00274404)
(-0.260145 0.329493 0.00227147)
(-0.207872 0.313727 0.00181519)
(-0.158429 0.289464 0.00138359)
(-0.112963 0.256528 0.000986688)
(-0.0727065 0.214824 0.000635225)
(-0.0393064 0.164333 0.000343572)
(-0.0142843 0.105142 0.000125115)
(-0.000610686 0.0373141 7.57612e-06)
(-0.0351211 -3.2782 0.000305273)
(-0.164743 -2.96291 0.00143679)
(-0.273021 -2.71318 0.00238198)
(-0.369782 -2.51036 0.00322659)
(-0.456203 -2.33828 0.00398096)
(-0.534399 -2.18517 0.00466352)
(-0.604866 -2.04342 0.00527862)
(-0.668197 -1.90854 0.00583143)
(-0.7247 -1.778 0.00632466)
(-0.774679 -1.65057 0.00676095)
(-0.818382 -1.52573 0.00714245)
(-0.856038 -1.40337 0.00747117)
(-0.88785 -1.28356 0.0077489)
(-0.914006 -1.1665 0.00797725)
(-0.934672 -1.0524 0.00815771)
(-0.949997 -0.941488 0.00829154)
(-0.96012 -0.83396 0.00837993)
(-0.965165 -0.730018 0.00842404)
(-0.965253 -0.629848 0.00842488)
(-0.960502 -0.53363 0.00838347)
(-0.951028 -0.441535 0.00830085)
(-0.936954 -0.353734 0.00817808)
(-0.91841 -0.270397 0.00801629)
(-0.895538 -0.191696 0.00781672)
(-0.868495 -0.117814 0.00758076)
(-0.837457 -0.048922 0.00730992)
(-0.802615 0.0147991 0.00700589)
(-0.764191 0.0731593 0.00667058)
(-0.722431 0.125968 0.00630615)
(-0.677623 0.173019 0.00591512)
(-0.630078 0.214112 0.00550018)
(-0.58015 0.249028 0.00506445)
(-0.528249 0.277539 0.00461149)
(-0.474831 0.299402 0.00414526)
(-0.420417 0.314368 0.00367035)
(-0.365585 0.322176 0.00319177)
(-0.310999 0.322558 0.00271533)
(-0.257411 0.315252 0.00224759)
(-0.205674 0.300012 0.00179599)
(-0.156743 0.276627 0.00136886)
(-0.111755 0.244945 0.000976136)
(-0.0719296 0.204903 0.000628437)
(-0.0388912 0.156526 0.000339942)
(-0.0141394 0.0999649 0.000123846)
(-0.000607291 0.0353723 7.52464e-06)
(0.0374572 -3.10549 -0.000328459)
(-0.103022 -2.81504 0.000898007)
(-0.220211 -2.5803 0.00192098)
(-0.322759 -2.38772 0.00281612)
(-0.413755 -2.22419 0.00361042)
(-0.49552 -2.07878 0.00432414)
(-0.568942 -1.94437 0.00496504)
(-0.634782 -1.81657 0.00553976)
(-0.693473 -1.69293 0.00605209)
(-0.745398 -1.57219 0.00650535)
(-0.790856 -1.45382 0.00690217)
(-0.830115 -1.3377 0.0072449)
(-0.863408 -1.22391 0.00753554)
(-0.89094 -1.11264 0.00777592)
(-0.912895 -1.00409 0.00796763)
(-0.929436 -0.89849 0.00811206)
(-0.940708 -0.79605 0.0082105)
(-0.946848 -0.696967 0.00826415)
(-0.947981 -0.601431 0.00827411)
(-0.944229 -0.509621 0.00824143)
(-0.935716 -0.421709 0.0081672)
(-0.922566 -0.337864 0.00805249)
(-0.904913 -0.258256 0.00789848)
(-0.8829 -0.183055 0.00770641)
(-0.856688 -0.11244 0.0074777)
(-0.826453 -0.0465817 0.00721386)
(-0.792388 0.0143433 0.00691661)
(-0.754717 0.0701491 0.00658787)
(-0.713687 0.120649 0.00622981)
(-0.669587 0.16564 0.00584495)
(-0.62273 0.204928 0.00543602)
(-0.573472 0.2383 0.00500615)
(-0.522226 0.265533 0.0045589)
(-0.469447 0.286394 0.00409826)
(-0.41566 0.300639 0.00362881)
(-0.361443 0.308019 0.00315561)
(-0.307459 0.308276 0.00268443)
(-0.254461 0.301162 0.00222183)
(-0.203296 0.286443 0.00177523)
(-0.154914 0.263929 0.00135289)
(-0.110442 0.23349 0.000964662)
(-0.071082 0.195093 0.000621031)
(-0.0384362 0.148808 0.000335965)
(-0.0139796 0.0948461 0.000122446)
(-0.000603207 0.0334508 7.46481e-06)
(0.0903742 -2.92293 -0.000790603)
(-0.056311 -2.66289 0.000490264)
(-0.178687 -2.44508 0.0015585)
(-0.28433 -2.26402 0.00248068)
(-0.377935 -2.1096 0.00329776)
(-0.461776 -1.9722 0.0040296)
(-0.53704 -1.84527 0.00468658)
(-0.604535 -1.72463 0.00527574)
(-0.664755 -1.6079 0.00580141)
(-0.718107 -1.49385 0.00626714)
(-0.76491 -1.38195 0.0066757)
(-0.805442 -1.27206 0.00702953)
(-0.839942 -1.16428 0.00733072)
(-0.868625 -1.05877 0.00758113)
(-0.891678 -0.955754 0.00778242)
(-0.90927 -0.855457 0.00793603)
(-0.921552 -0.75809 0.00804328)
(-0.928664 -0.663853 0.00810542)
(-0.930735 -0.572938 0.00812357)
(-0.927893 -0.485523 0.00809883)
(-0.920261 -0.401783 0.00803229)
(-0.907968 -0.321885 0.00792506)
(-0.891149 -0.245997 0.00777833)
(-0.869949 -0.174288 0.00759336)
(-0.84453 -0.106935 0.00737157)
(-0.815069 -0.0441036 0.00711449)
(-0.781762 0.0140299 0.00682384)
(-0.744831 0.0672849 0.00650157)
(-0.704526 0.115479 0.00614984)
(-0.661137 0.158412 0.00577118)
(-0.614976 0.195898 0.00536833)
(-0.566403 0.227728 0.00494443)
(-0.51583 0.253685 0.00450306)
(-0.463715 0.273545 0.00404821)
(-0.410582 0.287071 0.00358448)
(-0.35701 0.294023 0.00311691)
(-0.303663 0.294156 0.00265128)
(-0.251289 0.28723 0.00219414)
(-0.200734 0.27303 0.00175286)
(-0.152939 0.25138 0.00133565)
(-0.10902 0.222173 0.000952239)
(-0.0701613 0.185405 0.000612986)
(-0.03794 0.141185 0.000331627)
(-0.0138042 0.0897907 0.00012091)
(-0.000598367 0.0315519 7.39587e-06)
(0.123399 -2.73744 -0.00107911)
(-0.0253359 -2.51025 0.000219885)
(-0.148658 -2.3102 0.0012964)
(-0.254848 -2.14113 0.00222335)
(-0.349018 -1.99583 0.00304535)
(-0.433446 -1.86638 0.00378232)
(-0.509406 -1.74681 0.00444537)
(-0.577675 -1.63322 0.00504129)
(-0.638736 -1.52331 0.0055743)
(-0.692972 -1.41586 0.00604775)
(-0.740683 -1.31035 0.00646423)
(-0.782132 -1.20664 0.00682607)
(-0.817547 -1.10481 0.00713524)
(-0.847136 -1.00503 0.00739356)
(-0.87108 -0.907511 0.00760263)
(-0.889547 -0.812485 0.00776388)
(-0.902688 -0.720162 0.00787862)
(-0.910641 -0.630747 0.00794811)
(-0.913538 -0.54443 0.00797346)
(-0.911506 -0.461392 0.0079558)
(-0.904672 -0.381804 0.00789622)
(-0.893164 -0.305837 0.00779584)
(-0.877119 -0.233655 0.00765587)
(-0.856683 -0.165425 0.00747756)
(-0.832019 -0.101322 0.00726235)
(-0.803302 -0.0415086 0.00701178)
(-0.770731 0.0138423 0.00672755)
(-0.734528 0.0645541 0.00641163)
(-0.694942 0.110448 0.00606618)
(-0.652265 0.151331 0.00569374)
(-0.606809 0.187019 0.00529704)
(-0.558935 0.217311 0.00487923)
(-0.509054 0.241997 0.00444391)
(-0.457627 0.260858 0.00399506)
(-0.405176 0.273668 0.00353728)
(-0.352281 0.280196 0.00307562)
(-0.299604 0.280204 0.00261585)
(-0.247892 0.273468 0.00216448)
(-0.197984 0.259783 0.00172884)
(-0.150814 0.23899 0.00131709)
(-0.107485 0.211003 0.000938838)
(-0.0691649 0.175846 0.000604281)
(-0.0374009 0.133667 0.000326915)
(-0.0136124 0.0848042 0.000119229)
(-0.000592695 0.0296776 7.31704e-06)
(0.139892 -2.55606 -0.00122326)
(-0.00762019 -2.3605 6.5255e-05)
(-0.128696 -2.17808 0.00112219)
(-0.233511 -2.02065 0.00203712)
(-0.326574 -1.88408 0.00284946)
(-0.410336 -1.7622 0.00358062)
(-0.485976 -1.64967 0.00424087)
(-0.554212 -1.54286 0.0048365)
(-0.615463 -1.43954 0.00537117)
(-0.670055 -1.33853 0.00584772)
(-0.718241 -1.23928 0.00626835)
(-0.760249 -1.14164 0.00663507)
(-0.79628 -1.04568 0.00694961)
(-0.826521 -0.951551 0.00721362)
(-0.851142 -0.859475 0.0074286)
(-0.8703 -0.769672 0.00759588)
(-0.88414 -0.682354 0.00771673)
(-0.892797 -0.597725 0.00779235)
(-0.896401 -0.515974 0.00782388)
(-0.895077 -0.437283 0.00781239)
(-0.888953 -0.361824 0.007759)
(-0.878156 -0.289764 0.00766483)
(-0.862822 -0.221267 0.00753107)
(-0.843098 -0.156498 0.00735898)
(-0.819147 -0.0956283 0.00715)
(-0.791144 -0.0388182 0.00690565)
(-0.759287 0.0137633 0.00662766)
(-0.723798 0.0619437 0.00631797)
(-0.684926 0.105548 0.00597875)
(-0.642963 0.14439 0.00561254)
(-0.59822 0.178289 0.00522206)
(-0.551059 0.20705 0.00481048)
(-0.501891 0.230471 0.00438137)
(-0.451175 0.24834 0.00393874)
(-0.399435 0.260438 0.00348716)
(-0.347249 0.266544 0.00303169)
(-0.295277 0.26643 0.00257807)
(-0.244263 0.259883 0.00213279)
(-0.195041 0.246711 0.00170314)
(-0.148535 0.22677 0.00129719)
(-0.105836 0.199992 0.000924429)
(-0.0680904 0.166426 0.000594894)
(-0.0368171 0.126261 0.000321812)
(-0.0134034 0.0798925 0.000117399)
(-0.000586105 0.0278304 7.22742e-06)
(0.144985 -2.38268 -0.00126784)
(0.000964629 -2.21545 -9.66046e-06)
(-0.116471 -2.05002 0.00101552)
(-0.218784 -1.90353 0.00190861)
(-0.309699 -1.77514 0.0027022)
(-0.391908 -1.66031 0.00341979)
(-0.466446 -1.55437 0.00407042)
(-0.533986 -1.45397 0.00465997)
(-0.594862 -1.35695 0.00519136)
(-0.649331 -1.26214 0.00566684)
(-0.697586 -1.16897 0.00608807)
(-0.739808 -1.07725 0.00645665)
(-0.77616 -0.987037 0.006774)
(-0.806801 -0.898476 0.0070415)
(-0.831881 -0.811765 0.00726048)
(-0.851541 -0.727122 0.00743214)
(-0.865917 -0.644755 0.00755766)
(-0.875136 -0.564864 0.0076382)
(-0.879324 -0.487639 0.00767482)
(-0.878603 -0.413259 0.00766859)
(-0.873097 -0.341895 0.00762061)
(-0.862934 -0.273712 0.00753197)
(-0.848248 -0.208873 0.00740386)
(-0.829185 -0.14754 0.00723753)
(-0.805905 -0.0898816 0.00703441)
(-0.778584 -0.0360547 0.00679601)
(-0.747418 0.0137754 0.00652406)
(-0.71263 0.0594403 0.00622048)
(-0.674467 0.10077 0.00588745)
(-0.633219 0.137582 0.00552748)
(-0.589199 0.169703 0.00514331)
(-0.542765 0.196944 0.00473808)
(-0.49433 0.219108 0.00431537)
(-0.444351 0.235993 0.00387917)
(-0.393351 0.247386 0.00343405)
(-0.341906 0.253075 0.00298504)
(-0.290675 0.252843 0.00253789)
(-0.240397 0.246486 0.00209904)
(-0.191899 0.233825 0.00167571)
(-0.146098 0.214729 0.0012759)
(-0.104067 0.189148 0.000908983)
(-0.0669351 0.157156 0.0005848)
(-0.0361871 0.118975 0.000316305)
(-0.0131764 0.0750614 0.00011541)
(-0.000578503 0.0260126 7.12602e-06)
(0.143298 -2.218 -0.0012532)
(0.00403793 -2.07549 -3.64599e-05)
(-0.109697 -1.92624 0.000956427)
(-0.209034 -1.79007 0.00182353)
(-0.297344 -1.66937 0.00259438)
(-0.377469 -1.56107 0.00329378)
(-0.450379 -1.46126 0.0039302)
(-0.516724 -1.36686 0.00450932)
(-0.576767 -1.27581 0.00503344)
(-0.630704 -1.18693 0.00550426)
(-0.678665 -1.09962 0.00592293)
(-0.720781 -1.01365 0.00629058)
(-0.757173 -0.929051 0.00660827)
(-0.787968 -0.84594 0.00687712)
(-0.813291 -0.764502 0.00709822)
(-0.833265 -0.684941 0.00727262)
(-0.848012 -0.607457 0.00740138)
(-0.85765 -0.532246 0.00748558)
(-0.862298 -0.459495 0.00752621)
(-0.862073 -0.38938 0.00752431)
(-0.857094 -0.322069 0.00748092)
(-0.847487 -0.257727 0.00739713)
(-0.833384 -0.196512 0.00727411)
(-0.814927 -0.138585 0.00711308)
(-0.792277 -0.0841092 0.00691545)
(-0.765607 -0.0332404 0.00668274)
(-0.735111 0.0138608 0.00641663)
(-0.701011 0.0570306 0.00611905)
(-0.663551 0.0961036 0.00579216)
(-0.623022 0.130903 0.00543847)
(-0.579733 0.161261 0.00506068)
(-0.534043 0.186994 0.00466194)
(-0.486361 0.207913 0.00424581)
(-0.437145 0.223822 0.00381626)
(-0.386915 0.234519 0.00337787)
(-0.336246 0.239797 0.00293563)
(-0.285792 0.239451 0.00249526)
(-0.236288 0.233286 0.00206316)
(-0.188555 0.221134 0.00164651)
(-0.143499 0.202878 0.0012532)
(-0.102176 0.178482 0.000892469)
(-0.0656963 0.148044 0.000573977)
(-0.0355089 0.111819 0.000310377)
(-0.0129305 0.0703171 0.000113256)
(-0.000569783 0.0242268 7.01177e-06)
(0.137827 -2.06123 -0.00120552)
(0.00380544 -1.94031 -3.44048e-05)
(-0.106628 -1.80636 0.000929672)
(-0.202918 -1.68015 0.00177018)
(-0.28854 -1.56679 0.00251757)
(-0.366327 -1.46462 0.00319655)
(-0.4373 -1.37053 0.00381607)
(-0.502103 -1.28175 0.00438172)
(-0.560965 -1.19634 0.00489552)
(-0.614031 -1.1131 0.00535874)
(-0.661383 -1.03141 0.0057721)
(-0.703104 -0.95101 0.00613629)
(-0.739274 -0.871866 0.00645205)
(-0.769989 -0.794077 0.0067202)
(-0.795347 -0.717803 0.0069416)
(-0.81545 -0.643231 0.00711712)
(-0.830405 -0.570551 0.00724771)
(-0.84032 -0.499952 0.00733431)
(-0.845303 -0.431614 0.00737787)
(-0.845465 -0.365709 0.00737935)
(-0.840922 -0.302402 0.00733976)
(-0.831793 -0.241855 0.00726015)
(-0.818208 -0.184224 0.00714164)
(-0.800306 -0.129665 0.00698546)
(-0.778244 -0.0783391 0.00679297)
(-0.752194 -0.0303979 0.00656566)
(-0.722347 0.0140019 0.00630521)
(-0.688922 0.0547013 0.00601353)
(-0.652162 0.0915397 0.00569275)
(-0.612355 0.124346 0.00534535)
(-0.569808 0.152958 0.00497404)
(-0.524878 0.177199 0.00458194)
(-0.477973 0.196887 0.00417258)
(-0.429548 0.211833 0.00374994)
(-0.380119 0.221842 0.00331854)
(-0.33026 0.226719 0.00288337)
(-0.280621 0.226264 0.00245011)
(-0.23193 0.220294 0.00202511)
(-0.185002 0.20865 0.00161549)
(-0.140732 0.191227 0.00122904)
(-0.10016 0.168005 0.000874856)
(-0.0643712 0.1391 0.000562401)
(-0.0347807 0.104799 0.000304012)
(-0.0126648 0.0656662 0.000110929)
(-0.00055983 0.0224756 6.88347e-06)
(0.129926 -1.91144 -0.0011366)
(0.00123175 -1.80948 -1.19174e-05)
(-0.106177 -1.68993 0.000925767)
(-0.199505 -1.57346 0.00174042)
(-0.282513 -1.46725 0.00246499)
(-0.35788 -1.37092 0.00312286)
(-0.426759 -1.28223 0.00372408)
(-0.489793 -1.19875 0.00427429)
(-0.547216 -1.11867 0.00477554)
(-0.599141 -1.04081 0.0052288)
(-0.645617 -0.964515 0.00563449)
(-0.686686 -0.889475 0.005993)
(-0.722396 -0.815621 0.00630474)
(-0.75281 -0.743013 0.00657026)
(-0.778003 -0.671782 0.00679022)
(-0.798056 -0.602096 0.00696531)
(-0.813061 -0.534131 0.00709632)
(-0.823112 -0.468063 0.00718412)
(-0.828308 -0.404066 0.00722953)
(-0.828752 -0.342308 0.00723347)
(-0.824553 -0.282948 0.00719689)
(-0.815826 -0.226143 0.00712078)
(-0.802695 -0.172048 0.00700624)
(-0.785296 -0.120814 0.00685444)
(-0.763783 -0.0725993 0.00666674)
(-0.738323 -0.02755 0.00644458)
(-0.709104 0.0141808 0.00618962)
(-0.676344 0.052439 0.00590374)
(-0.640282 0.0870692 0.00558904)
(-0.601201 0.117906 0.00524799)
(-0.559409 0.144794 0.00488327)
(-0.515258 0.167561 0.00449796)
(-0.469154 0.186034 0.00409559)
(-0.421547 0.20003 0.00368009)
(-0.372953 0.209364 0.00325598)
(-0.32394 0.213847 0.00282819)
(-0.275154 0.213291 0.00240238)
(-0.227318 0.207518 0.00198484)
(-0.181237 0.196383 0.00158261)
(-0.137795 0.179789 0.00120339)
(-0.0980142 0.157729 0.000856115)
(-0.0629573 0.130336 0.000550048)
(-0.0340006 0.0979266 0.000297194)
(-0.0123782 0.0611151 0.000108419)
(-0.000548516 0.020762 6.73981e-06)
(0.119948 -1.76809 -0.00104955)
(-0.00339387 -1.68276 2.8477e-05)
(-0.107766 -1.57661 0.000939658)
(-0.198216 -1.46972 0.0017292)
(-0.278702 -1.37053 0.00243175)
(-0.351654 -1.27989 0.00306853)
(-0.418366 -1.19636 0.00365085)
(-0.479488 -1.11792 0.00418438)
(-0.535284 -1.0429 0.00467141)
(-0.585853 -0.970176 0.00511283)
(-0.631225 -0.899049 0.00550889)
(-0.671417 -0.829176 0.00585974)
(-0.706448 -0.760442 0.00616556)
(-0.736358 -0.692866 0.00642667)
(-0.761197 -0.62655 0.00664354)
(-0.78103 -0.561637 0.00681671)
(-0.795932 -0.498285 0.00694682)
(-0.805983 -0.43666 0.00703461)
(-0.811273 -0.376925 0.00708084)
(-0.811895 -0.31924 0.00708634)
(-0.807952 -0.263761 0.00705199)
(-0.799552 -0.210639 0.00697873)
(-0.786813 -0.160026 0.00686761)
(-0.769868 -0.112067 0.00671978)
(-0.748864 -0.0669175 0.00653652)
(-0.723967 -0.024719 0.00631927)
(-0.695359 0.0143803 0.00606964)
(-0.663254 0.050231 0.00578948)
(-0.627889 0.0826833 0.00548086)
(-0.589543 0.111578 0.00514622)
(-0.548519 0.136765 0.0047882)
(-0.505167 0.158081 0.00440987)
(-0.459889 0.175356 0.00401471)
(-0.413132 0.18842 0.00360663)
(-0.365407 0.197092 0.0031901)
(-0.317278 0.201192 0.00277003)
(-0.269384 0.200541 0.00235201)
(-0.222444 0.194971 0.00194229)
(-0.177253 0.184344 0.00154782)
(-0.134682 0.168573 0.00117621)
(-0.0957358 0.147662 0.000836215)
(-0.0614517 0.121761 0.000536895)
(-0.0331667 0.0912097 0.000289905)
(-0.01207 0.056671 0.00010572)
(-0.000535698 0.0190889 6.57939e-06)
(0.107918 -1.63101 -0.000944563)
(-0.00999673 -1.5601 8.61302e-05)
(-0.111112 -1.46631 0.00096889)
(-0.198711 -1.36871 0.00173354)
(-0.276725 -1.27644 0.00241452)
(-0.347289 -1.19139 0.00303046)
(-0.411803 -1.11287 0.00359359)
(-0.47092 -1.03926 0.00410961)
(-0.524945 -0.969102 0.00458119)
(-0.573983 -0.901287 0.00500924)
(-0.618058 -0.835125 0.00539398)
(-0.657172 -0.770231 0.00573542)
(-0.691327 -0.706445 0.00603359)
(-0.720544 -0.643749 0.00628865)
(-0.744853 -0.582212 0.0065009)
(-0.764304 -0.52195 0.00667072)
(-0.778956 -0.463104 0.00679865)
(-0.788877 -0.405822 0.00688531)
(-0.794146 -0.350259 0.00693136)
(-0.794848 -0.296568 0.00693755)
(-0.791075 -0.244895 0.00690468)
(-0.78293 -0.19539 0.00683365)
(-0.770525 -0.148196 0.00672544)
(-0.753986 -0.103457 0.00658115)
(-0.733457 -0.0613212 0.00640203)
(-0.709096 -0.0219268 0.00618947)
(-0.681084 0.0145831 0.00594503)
(-0.649627 0.0480648 0.00567053)
(-0.61496 0.0783737 0.00536801)
(-0.577357 0.105357 0.00503985)
(-0.537118 0.128871 0.00468868)
(-0.494588 0.148759 0.00431752)
(-0.450163 0.164859 0.00392981)
(-0.404289 0.177007 0.00352943)
(-0.357469 0.185032 0.0031208)
(-0.310263 0.188762 0.00270879)
(-0.263305 0.188025 0.00229893)
(-0.217304 0.182663 0.00189741)
(-0.173046 0.172544 0.00151109)
(-0.131391 0.157592 0.00114746)
(-0.0933216 0.137818 0.000815129)
(-0.0598521 0.113386 0.00052292)
(-0.0322772 0.084658 0.000282131)
(-0.011739 0.0523407 0.00010282)
(-0.000521223 0.0174594 6.40063e-06)
(0.0938347 -1.50018 -0.000821619)
(-0.0185334 -1.4416 0.000160666)
(-0.116098 -1.35902 0.00101244)
(-0.200806 -1.27031 0.00175186)
(-0.276344 -1.18483 0.00241122)
(-0.344533 -1.10532 0.00300643)
(-0.406823 -1.03171 0.00355014)
(-0.46386 -0.962797 0.00404801)
(-0.515997 -0.897312 0.00450311)
(-0.563351 -0.834224 0.00491647)
(-0.605959 -0.772839 0.0052884)
(-0.643816 -0.712744 0.00561886)
(-0.676916 -0.65374 0.00590781)
(-0.705264 -0.595769 0.0061553)
(-0.72888 -0.538869 0.00636149)
(-0.747797 -0.48313 0.00652665)
(-0.762061 -0.428671 0.0066512)
(-0.77173 -0.375627 0.00673564)
(-0.776869 -0.324139 0.00678056)
(-0.777555 -0.274351 0.00678661)
(-0.773872 -0.226405 0.00675453)
(-0.765914 -0.180441 0.00668513)
(-0.753788 -0.136598 0.00657935)
(-0.737612 -0.0950164 0.00643823)
(-0.717523 -0.0558373 0.00626296)
(-0.693677 -0.019195 0.00605488)
(-0.666246 0.014773 0.00581552)
(-0.635435 0.0459284 0.00554665)
(-0.60147 0.0741326 0.00525025)
(-0.564622 0.0992398 0.00492869)
(-0.525186 0.121111 0.00458453)
(-0.483502 0.139598 0.00422075)
(-0.439963 0.154547 0.00384076)
(-0.395005 0.1658 0.00344838)
(-0.349129 0.173194 0.00304799)
(-0.302888 0.176567 0.0026444)
(-0.256908 0.175754 0.00224308)
(-0.211891 0.170604 0.00185015)
(-0.168612 0.160995 0.00147237)
(-0.127916 0.146856 0.00111712)
(-0.0907685 0.128207 0.00079283)
(-0.0581558 0.105222 0.000508101)
(-0.0313304 0.0782811 0.000273856)
(-0.0113842 0.0481318 9.97129e-05)
(-0.000504922 0.0158767 6.20187e-06)
(0.077733 -1.37559 -0.000681012)
(-0.0289716 -1.32735 0.000251807)
(-0.122711 -1.25479 0.00107019)
(-0.204432 -1.17446 0.00178353)
(-0.277431 -1.09562 0.00242073)
(-0.343221 -1.02159 0.002995)
(-0.403236 -0.952831 0.00351887)
(-0.458115 -0.888515 0.00399789)
(-0.508252 -0.827572 0.00443554)
(-0.553786 -0.769054 0.004833)
(-0.594771 -0.712279 0.00519076)
(-0.631206 -0.656814 0.00550882)
(-0.663085 -0.602427 0.00578711)
(-0.690405 -0.549027 0.00602562)
(-0.713175 -0.496618 0.00622442)
(-0.731416 -0.445267 0.00638369)
(-0.745164 -0.395071 0.00650373)
(-0.754465 -0.34615 0.00658496)
(-0.759373 -0.298632 0.00662785)
(-0.759954 -0.252651 0.00663299)
(-0.756286 -0.208341 0.00660103)
(-0.748453 -0.165836 0.00653272)
(-0.736553 -0.125271 0.00642892)
(-0.7207 -0.086777 0.00629061)
(-0.701023 -0.0504919 0.00611893)
(-0.677671 -0.0165441 0.00591517)
(-0.650813 0.0149342 0.00568081)
(-0.620645 0.0438108 0.00541755)
(-0.58739 0.0699531 0.00512735)
(-0.551313 0.0932222 0.00481251)
(-0.512702 0.113486 0.00447555)
(-0.471892 0.130602 0.0041194)
(-0.429269 0.144425 0.00374741)
(-0.385266 0.154805 0.00336337)
(-0.340375 0.161587 0.00297157)
(-0.295142 0.164617 0.00257678)
(-0.250187 0.163738 0.0021844)
(-0.206199 0.158807 0.00180045)
(-0.163945 0.149708 0.00143162)
(-0.124255 0.136378 0.00108516)
(-0.0880738 0.118841 0.000769295)
(-0.0563608 0.0972794 0.00049242)
(-0.0303245 0.0720888 0.000265064)
(-0.0110046 0.0440516 9.63887e-05)
(-0.000486612 0.0143444 5.98131e-06)
(0.0596354 -1.25716 -0.000522938)
(-0.0413267 -1.21738 0.000359689)
(-0.131013 -1.15367 0.00114269)
(-0.209602 -1.08117 0.00182869)
(-0.27994 -1.00877 0.00244266)
(-0.343248 -0.940167 0.00299527)
(-0.400903 -0.876222 0.00349853)
(-0.453525 -0.816436 0.00395785)
(-0.501542 -0.759931 0.00437699)
(-0.545119 -0.705848 0.00475738)
(-0.584332 -0.653532 0.00509967)
(-0.619193 -0.602536 0.00540399)
(-0.649698 -0.552605 0.00567029)
(-0.675841 -0.503618 0.00589852)
(-0.697625 -0.455551 0.00608871)
(-0.715061 -0.408447 0.00624094)
(-0.728174 -0.362383 0.00635543)
(-0.736998 -0.317463 0.00643252)
(-0.741581 -0.273802 0.00647257)
(-0.741977 -0.231524 0.00647609)
(-0.738253 -0.190755 0.00644364)
(-0.730486 -0.151621 0.00637591)
(-0.718767 -0.114251 0.00627368)
(-0.703201 -0.0787701 0.00613788)
(-0.683911 -0.0453102 0.00596957)
(-0.661039 -0.0139941 0.00576999)
(-0.634747 0.0150519 0.00554057)
(-0.605225 0.0417017 0.00528295)
(-0.572691 0.0658291 0.00499904)
(-0.537401 0.087302 0.00469107)
(-0.49964 0.105995 0.00436153)
(-0.459735 0.121773 0.00401327)
(-0.418066 0.134499 0.00364961)
(-0.375057 0.14403 0.00327425)
(-0.331195 0.15022 0.00289143)
(-0.287017 0.152923 0.00250584)
(-0.243132 0.151989 0.00212281)
(-0.200224 0.147283 0.00174828)
(-0.159043 0.138696 0.00138881)
(-0.120405 0.126169 0.00105153)
(-0.0852351 0.109731 0.000744502)
(-0.0544652 0.0895695 0.000475859)
(-0.0292581 0.066091 0.000255743)
(-0.0105993 0.040108 9.28393e-05)
(-0.000466097 0.012866 5.73699e-06)
(0.0393524 -1.1447 -0.000345763)
(-0.0557582 -1.11168 0.000485703)
(-0.141156 -1.05574 0.00123125)
(-0.216395 -0.990497 0.00188801)
(-0.283877 -0.924328 0.00247705)
(-0.344551 -0.861082 0.00300667)
(-0.399708 -0.801918 0.00348812)
(-0.44994 -0.74661 0.00392659)
(-0.495701 -0.694454 0.00432603)
(-0.53718 -0.644686 0.00468811)
(-0.574478 -0.596684 0.00501369)
(-0.60762 -0.550003 0.005303)
(-0.636609 -0.504368 0.00555606)
(-0.661439 -0.459636 0.00577283)
(-0.682107 -0.415758 0.00595328)
(-0.698618 -0.372755 0.00609744)
(-0.710987 -0.330686 0.00620544)
(-0.71924 -0.289637 0.00627752)
(-0.723411 -0.249714 0.00631398)
(-0.723546 -0.211027 0.00631522)
(-0.719704 -0.173696 0.00628174)
(-0.711952 -0.137838 0.00621413)
(-0.700372 -0.103574 0.00611312)
(-0.685062 -0.0710255 0.00597955)
(-0.666138 -0.0403164 0.00581444)
(-0.643734 -0.0115638 0.00561895)
(-0.618006 0.0151123 0.00539444)
(-0.589137 0.0395919 0.00514252)
(-0.557337 0.0617555 0.00486502)
(-0.522858 0.0814781 0.00456413)
(-0.485975 0.098641 0.00424224)
(-0.447009 0.113117 0.00390219)
(-0.406333 0.124776 0.00354719)
(-0.364363 0.133485 0.00318089)
(-0.321576 0.139105 0.00280745)
(-0.278501 0.141496 0.0024315)
(-0.235739 0.140519 0.00205826)
(-0.193959 0.136046 0.00169358)
(-0.1539 0.127971 0.00134391)
(-0.116363 0.116242 0.00101624)
(-0.0822508 0.100889 0.000718437)
(-0.0524674 0.0821034 0.000458406)
(-0.0281298 0.0602976 0.000245882)
(-0.0101674 0.0363088 8.90568e-05)
(-0.000443164 0.0114452 5.46689e-06)
(0.0166068 -1.03801 -0.00014707)
(-0.0724924 -1.01028 0.000631824)
(-0.153314 -0.961098 0.00133741)
(-0.224903 -0.902565 0.0019623)
(-0.289255 -0.842392 0.00252402)
(-0.347071 -0.784422 0.00302869)
(-0.399537 -0.729999 0.00348666)
(-0.447211 -0.679116 0.0039028)
(-0.490561 -0.631225 0.0042812)
(-0.529795 -0.585657 0.00462368)
(-0.565035 -0.541829 0.00493129)
(-0.596321 -0.499308 0.0052044)
(-0.623663 -0.457809 0.00544308)
(-0.647055 -0.41717 0.0056473)
(-0.666491 -0.377324 0.005817)
(-0.68197 -0.33827 0.00595215)
(-0.693498 -0.300051 0.0060528)
(-0.70109 -0.26274 0.00611912)
(-0.704772 -0.226427 0.00615131)
(-0.70458 -0.191214 0.00614969)
(-0.700563 -0.15721 0.00611468)
(-0.692779 -0.124526 0.0060468)
(-0.681303 -0.0932752 0.00594669)
(-0.666224 -0.0635719 0.00581513)
(-0.64765 -0.0355334 0.00565307)
(-0.625708 -0.00927073 0.0054616)
(-0.600546 0.0151025 0.00524204)
(-0.572341 0.0374732 0.00499591)
(-0.541295 0.0577282 0.00472499)
(-0.507651 0.0757502 0.00443139)
(-0.471679 0.0914271 0.00411745)
(-0.433691 0.10464 0.00378593)
(-0.394051 0.115266 0.00343998)
(-0.353167 0.12318 0.00308315)
(-0.311506 0.128251 0.00271954)
(-0.269587 0.130349 0.00235367)
(-0.227998 0.129341 0.00199068)
(-0.187399 0.125107 0.00163631)
(-0.148515 0.117546 0.00129688)
(-0.112128 0.106609 0.000979251)
(-0.0791194 0.0923276 0.000691088)
(-0.0503664 0.0748922 0.000440052)
(-0.0269386 0.0547188 0.000235472)
(-0.00970808 0.032662 8.50339e-05)
(-0.000417591 0.010086 5.16883e-06)
(-0.0087296 -0.936878 7.42556e-05)
(-0.091642 -0.913223 0.000799036)
(-0.167563 -0.86993 0.00146182)
(-0.235146 -0.817579 0.00205174)
(-0.296032 -0.763148 0.00258321)
(-0.350709 -0.710341 0.00306048)
(-0.400249 -0.660594 0.00349291)
(-0.445171 -0.614067 0.00388502)
(-0.48594 -0.570348 0.00424089)
(-0.522777 -0.528858 0.00456245)
(-0.555821 -0.489064 0.00485089)
(-0.585122 -0.450546 0.00510667)
(-0.610696 -0.413018 0.00532993)
(-0.632538 -0.376308 0.00552061)
(-0.650639 -0.340331 0.00567866)
(-0.66499 -0.30507 0.00580396)
(-0.67559 -0.270552 0.00589651)
(-0.682443 -0.236836 0.00595638)
(-0.685568 -0.204 0.0059837)
(-0.68499 -0.172137 0.00597871)
(-0.680748 -0.141344 0.00594174)
(-0.672894 -0.111726 0.00587324)
(-0.661492 -0.0833878 0.00577377)
(-0.646623 -0.0564367 0.00564405)
(-0.628389 -0.0309831 0.00548495)
(-0.606907 -0.00713149 0.0052975)
(-0.582319 0.0150112 0.00508294)
(-0.554793 0.0353385 0.00484274)
(-0.524524 0.0537445 0.00457859)
(-0.491747 0.0701191 0.00429256)
(-0.456723 0.0843574 0.0039869)
(-0.419755 0.096348 0.00366428)
(-0.381199 0.105976 0.00332778)
(-0.341452 0.113125 0.00298088)
(-0.30097 0.117673 0.00262756)
(-0.260262 0.119496 0.00227227)
(-0.219905 0.11847 0.00192001)
(-0.180542 0.114481 0.00157643)
(-0.142884 0.107434 0.00124772)
(-0.107698 0.0972826 0.000940564)
(-0.0758406 0.084058 0.000662451)
(-0.0481618 0.0679472 0.000420793)
(-0.0256841 0.0493645 0.000224507)
(-0.00922059 0.0291757 8.07648e-05)
(-0.000389142 0.00879233 4.8406e-06)
(-0.0366149 -0.84112 0.000317842)
(-0.113154 -0.820593 0.000986873)
(-0.183831 -0.782445 0.00160385)
(-0.247021 -0.735794 0.00215543)
(-0.304075 -0.686831 0.00265344)
(-0.3553 -0.639037 0.00310058)
(-0.401656 -0.593868 0.00350522)
(-0.443615 -0.551602 0.00387148)
(-0.481629 -0.511943 0.0042033)
(-0.515922 -0.474399 0.00450264)
(-0.546639 -0.438487 0.00477078)
(-0.573839 -0.403809 0.00500822)
(-0.597539 -0.370084 0.00521511)
(-0.617733 -0.337132 0.00539141)
(-0.634407 -0.304857 0.005537)
(-0.647546 -0.273227 0.00565172)
(-0.657141 -0.242255 0.0057355)
(-0.663188 -0.211987 0.00578832)
(-0.665695 -0.18249 0.00581026)
(-0.66468 -0.153846 0.00580145)
(-0.660173 -0.126142 0.00576215)
(-0.652215 -0.0994755 0.00569275)
(-0.640864 -0.0739435 0.00559372)
(-0.626192 -0.0496459 0.00546571)
(-0.608291 -0.0266858 0.00530953)
(-0.587274 -0.00516115 0.00512613)
(-0.563272 0.0148281 0.00491669)
(-0.536446 0.0331825 0.0046826)
(-0.506983 0.0498031 0.00442548)
(-0.475108 0.0645874 0.00414732)
(-0.441074 0.0774377 0.0038503)
(-0.405175 0.0882504 0.003537)
(-0.367754 0.096919 0.00321042)
(-0.329199 0.103334 0.00287392)
(-0.289956 0.107383 0.00253141)
(-0.250518 0.10895 0.0021872)
(-0.21145 0.107919 0.0018462)
(-0.173382 0.104182 0.00151392)
(-0.137006 0.09765 0.00119639)
(-0.103072 0.0882765 0.000900174)
(-0.0724148 0.0760926 0.000632531)
(-0.045854 0.0612793 0.000400632)
(-0.024366 0.0442448 0.000212987)
(-0.00870449 0.0258579 7.6245e-05)
(-0.000357577 0.00756832 4.47994e-06)
(-0.0667636 -0.750576 0.000581189)
(-0.136752 -0.732488 0.00119291)
(-0.201845 -0.69888 0.00176113)
(-0.260265 -0.657487 0.00227108)
(-0.313123 -0.613706 0.00273246)
(-0.360587 -0.570738 0.00314677)
(-0.403506 -0.530005 0.0035214)
(-0.442299 -0.491872 0.00386003)
(-0.477394 -0.456137 0.00416637)
(-0.509007 -0.42239 0.00444232)
(-0.537284 -0.390196 0.00468915)
(-0.56228 -0.359188 0.00490736)
(-0.584013 -0.329092 0.00509708)
(-0.602474 -0.299723 0.00525825)
(-0.617644 -0.270977 0.0053907)
(-0.629499 -0.242812 0.00549422)
(-0.638024 -0.215226 0.00556865)
(-0.643206 -0.188254 0.00561393)