/*--------------------------------*- C++ -*----------------------------------*\
| =========                 |                                                 |
| \\      /  F ield         | OpenFOAM: The Open Source CFD Toolbox           |
|  \\    /   O peration     | Version:  v2012                                 |
|   \\  /    A nd           | Website:  www.openfoam.com                      |
|    \\/     M anipulation  |                                                 |
\*---------------------------------------------------------------------------*/
FoamFile
{
    version     2.0;
    format      ascii;
    class       volScalarField;
    location    "0.15";
    object      p_rgh;
}
// * * * * * * * * * * * * * * * * * * * * * * * * * * * * * * * * * * * * * //

dimensions      [1 -1 -2 0 0 0 0];


internalField   nonuniform List<scalar> 
3332
(
3.47484e+06
3.47642e+06
3.47782e+06
3.47905e+06
3.48015e+06
3.48114e+06
3.48205e+06
3.48287e+06
3.48362e+06
3.48432e+06
3.48496e+06
3.48555e+06
3.4861e+06
3.48661e+06
3.48708e+06
3.48752e+06
3.48793e+06
3.48831e+06
3.48866e+06
3.48898e+06
3.46879e+06
3.47112e+06
3.47321e+06
3.47499e+06
3.47656e+06
3.47795e+06
3.47918e+06
3.48029e+06
3.48129e+06
3.4822e+06
3.48302e+06
3.48378e+06
3.48447e+06
3.48511e+06
3.4857e+06
3.48624e+06
3.48674e+06
3.48721e+06
3.48764e+06
3.48803e+06
3.4884e+06
3.48874e+06
3.49528e+06
3.51564e+06
3.49554e+06
3.50704e+06
3.50027e+06
3.50076e+06
3.49373e+06
3.48776e+06
3.48306e+06
3.47979e+06
3.47278e+06
3.45681e+06
3.45583e+06
3.46039e+06
3.46362e+06
3.46681e+06
3.46935e+06
3.47165e+06
3.47361e+06
3.47535e+06
3.47688e+06
3.47824e+06
3.47946e+06
3.48055e+06
3.48154e+06
3.48244e+06
3.48325e+06
3.484e+06
3.48468e+06
3.48531e+06
3.48588e+06
3.48641e+06
3.4869e+06
3.48735e+06
3.48777e+06
3.48815e+06
3.48851e+06
3.47942e+06
3.50317e+06
3.48083e+06
3.49459e+06
3.48481e+06
3.48701e+06
3.48187e+06
3.48101e+06
3.47963e+06
3.47824e+06
3.48004e+06
3.47688e+06
3.47185e+06
3.45524e+06
3.45363e+06
3.45821e+06
3.46159e+06
3.46496e+06
3.46769e+06
3.47018e+06
3.4723e+06
3.4742e+06
3.47586e+06
3.47734e+06
3.47866e+06
3.47984e+06
3.48091e+06
3.48187e+06
3.48275e+06
3.48354e+06
3.48427e+06
3.48493e+06
3.48554e+06
3.48609e+06
3.4866e+06
3.48708e+06
3.48751e+06
3.48791e+06
3.48828e+06
3.45939e+06
3.48048e+06
3.4608e+06
3.47271e+06
3.46045e+06
3.46329e+06
3.46261e+06
3.47017e+06
3.4751e+06
3.4768e+06
3.47901e+06
3.47614e+06
3.47155e+06
3.45419e+06
3.4518e+06
3.45623e+06
3.45973e+06
3.46323e+06
3.46612e+06
3.46878e+06
3.47106e+06
3.47309e+06
3.47488e+06
3.47648e+06
3.47789e+06
3.47916e+06
3.4803e+06
3.48133e+06
3.48226e+06
3.4831e+06
3.48386e+06
3.48456e+06
3.4852e+06
3.48578e+06
3.48632e+06
3.48681e+06
3.48726e+06
3.48767e+06
3.48805e+06
3.4884e+06
3.43604e+06
3.44969e+06
3.43743e+06
3.44399e+06
3.42999e+06
3.43183e+06
3.43745e+06
3.45588e+06
3.46963e+06
3.47539e+06
3.4784e+06
3.47602e+06
3.47172e+06
3.45332e+06
3.45014e+06
3.45436e+06
3.45798e+06
3.46159e+06
3.46464e+06
3.46745e+06
3.46988e+06
3.47205e+06
3.47396e+06
3.47566e+06
3.47717e+06
3.47852e+06
3.47972e+06
3.48081e+06
3.48179e+06
3.48267e+06
3.48348e+06
3.48421e+06
3.48487e+06
3.48548e+06
3.48604e+06
3.48655e+06
3.48701e+06
3.48744e+06
3.48783e+06
3.48819e+06
3.41665e+06
3.42179e+06
3.41696e+06
3.41734e+06
3.40264e+06
3.40205e+06
3.41346e+06
3.44188e+06
3.46428e+06
3.47396e+06
3.4779e+06
3.47607e+06
3.47185e+06
3.45221e+06
3.44834e+06
3.45244e+06
3.45626e+06
3.45999e+06
3.46323e+06
3.46619e+06
3.46877e+06
3.47107e+06
3.47309e+06
3.47489e+06
3.47648e+06
3.4779e+06
3.47918e+06
3.48032e+06
3.48134e+06
3.48227e+06
3.48311e+06
3.48387e+06
3.48456e+06
3.48519e+06
3.48577e+06
3.4863e+06
3.48678e+06
3.48722e+06
3.48762e+06
3.48799e+06
3.48832e+06
3.40738e+06
3.40833e+06
3.40688e+06
3.40486e+06
3.39115e+06
3.3889e+06
3.40145e+06
3.43401e+06
3.46082e+06
3.47245e+06
3.47658e+06
3.47529e+06
3.47096e+06
3.45033e+06
3.44611e+06
3.45035e+06
3.45449e+06
3.45841e+06
3.46187e+06
3.46499e+06
3.46772e+06
3.47014e+06
3.47228e+06
3.47417e+06
3.47584e+06
3.47733e+06
3.47866e+06
3.47985e+06
3.48092e+06
3.48189e+06
3.48276e+06
3.48355e+06
3.48427e+06
3.48492e+06
3.48551e+06
3.48605e+06
3.48655e+06
3.487e+06
3.48741e+06
3.48779e+06
3.48814e+06
3.4103e+06
3.41374e+06
3.41008e+06
3.41192e+06
3.40025e+06
3.39951e+06
3.40748e+06
3.43563e+06
3.45951e+06
3.47002e+06
3.47336e+06
3.47267e+06
3.46817e+06
3.4473e+06
3.44334e+06
3.44803e+06
3.45265e+06
3.45684e+06
3.46055e+06
3.46385e+06
3.46674e+06
3.46928e+06
3.47152e+06
3.4735e+06
3.47524e+06
3.4768e+06
3.47818e+06
3.47942e+06
3.48053e+06
3.48153e+06
3.48243e+06
3.48324e+06
3.48398e+06
3.48465e+06
3.48527e+06
3.48582e+06
3.48633e+06
3.48679e+06
3.48722e+06
3.4876e+06
3.48795e+06
3.42208e+06
3.42975e+06
3.42231e+06
3.42875e+06
3.42003e+06
3.42336e+06
3.42428e+06
3.44287e+06
3.4586e+06
3.46591e+06
3.46802e+06
3.46803e+06
3.46339e+06
3.44329e+06
3.44026e+06
3.44557e+06
3.4508e+06
3.45531e+06
3.4593e+06
3.46278e+06
3.46583e+06
3.46849e+06
3.47083e+06
3.47288e+06
3.4747e+06
3.47631e+06
3.47774e+06
3.47902e+06
3.48016e+06
3.48119e+06
3.48212e+06
3.48296e+06
3.48372e+06
3.4844e+06
3.48503e+06
3.4856e+06
3.48612e+06
3.48659e+06
3.48702e+06
3.48742e+06
3.48777e+06
3.43458e+06
3.44327e+06
3.43529e+06
3.4429e+06
3.43722e+06
3.44395e+06
3.43963e+06
3.44834e+06
3.45614e+06
3.46035e+06
3.46134e+06
3.46206e+06
3.45739e+06
3.4389e+06
3.43724e+06
3.44318e+06
3.44904e+06
3.45387e+06
3.45815e+06
3.46181e+06
3.465e+06
3.46777e+06
3.4702e+06
3.47232e+06
3.4742e+06
3.47586e+06
3.47733e+06
3.47865e+06
3.47982e+06
3.48088e+06
3.48183e+06
3.48269e+06
3.48346e+06
3.48417e+06
3.48481e+06
3.48539e+06
3.48592e+06
3.4864e+06
3.48684e+06
3.48724e+06
3.4876e+06
3.44398e+06
3.44982e+06
3.44457e+06
3.44969e+06
3.44746e+06
3.45262e+06
3.44846e+06
3.44921e+06
3.45207e+06
3.45438e+06
3.45457e+06
3.45589e+06
3.45132e+06
3.43489e+06
3.43464e+06
3.44107e+06
3.4475e+06
3.45261e+06
3.45713e+06
3.46094e+06
3.46427e+06
3.46713e+06
3.46964e+06
3.47183e+06
3.47375e+06
3.47545e+06
3.47696e+06
3.47831e+06
3.47951e+06
3.48059e+06
3.48156e+06
3.48244e+06
3.48323e+06
3.48395e+06
3.4846e+06
3.48519e+06
3.48573e+06
3.48622e+06
3.48666e+06
3.48707e+06
3.48744e+06
3.45099e+06
3.44997e+06
3.45116e+06
3.45008e+06
3.45399e+06
3.452e+06
3.45182e+06
3.44705e+06
3.44747e+06
3.44903e+06
3.44867e+06
3.4505e+06
3.44609e+06
3.4317e+06
3.43263e+06
3.4394e+06
3.44624e+06
3.45155e+06
3.45626e+06
3.46021e+06
3.46363e+06
3.46658e+06
3.46915e+06
3.47139e+06
3.47336e+06
3.4751e+06
3.47664e+06
3.47801e+06
3.47923e+06
3.48033e+06
3.48132e+06
3.48221e+06
3.48301e+06
3.48374e+06
3.4844e+06
3.485e+06
3.48554e+06
3.48604e+06
3.48649e+06
3.4869e+06
3.48728e+06
3.45696e+06
3.44799e+06
3.45619e+06
3.44842e+06
3.45898e+06
3.4499e+06
3.45175e+06
3.44421e+06
3.44342e+06
3.44489e+06
3.44429e+06
3.4461e+06
3.44196e+06
3.42941e+06
3.43123e+06
3.4382e+06
3.44529e+06
3.45073e+06
3.45558e+06
3.45961e+06
3.46311e+06
3.46612e+06
3.46873e+06
3.47101e+06
3.47302e+06
3.47478e+06
3.47635e+06
3.47774e+06
3.47898e+06
3.48009e+06
3.48109e+06
3.48199e+06
3.48281e+06
3.48355e+06
3.48421e+06
3.48482e+06
3.48537e+06
3.48587e+06
3.48633e+06
3.48675e+06
3.48712e+06
3.4591e+06
3.44715e+06
3.45782e+06
3.44773e+06
3.46012e+06
3.44949e+06
3.44948e+06
3.44157e+06
3.44026e+06
3.44195e+06
3.44122e+06
3.44281e+06
3.43903e+06
3.42797e+06
3.43041e+06
3.43743e+06
3.44463e+06
3.45014e+06
3.45506e+06
3.45914e+06
3.4627e+06
3.46574e+06
3.46839e+06
3.4707e+06
3.47273e+06
3.47451e+06
3.4761e+06
3.4775e+06
3.47876e+06
3.47988e+06
3.48089e+06
3.4818e+06
3.48262e+06
3.48337e+06
3.48404e+06
3.48465e+06
3.48521e+06
3.48572e+06
3.48618e+06
3.4866e+06
3.48698e+06
3.4555e+06
3.44805e+06
3.45431e+06
3.44796e+06
3.45531e+06
3.44901e+06
3.44583e+06
3.43915e+06
3.4379e+06
3.4399e+06
3.43912e+06
3.44037e+06
3.43692e+06
3.42702e+06
3.43e+06
3.43702e+06
3.44423e+06
3.44975e+06
3.4547e+06
3.4588e+06
3.46238e+06
3.46545e+06
3.46812e+06
3.47045e+06
3.47249e+06
3.47429e+06
3.47588e+06
3.4773e+06
3.47856e+06
3.47969e+06
3.48071e+06
3.48163e+06
3.48245e+06
3.4832e+06
3.48388e+06
3.4845e+06
3.48506e+06
3.48557e+06
3.48603e+06
3.48645e+06
3.48683e+06
3.44698e+06
3.44994e+06
3.44762e+06
3.44935e+06
3.44776e+06
3.44772e+06
3.44221e+06
3.43703e+06
3.43618e+06
3.43835e+06
3.43753e+06
3.43849e+06
3.43528e+06
3.42634e+06
3.42986e+06
3.43686e+06
3.44402e+06
3.44953e+06
3.45447e+06
3.45858e+06
3.46217e+06
3.46524e+06
3.46792e+06
3.47026e+06
3.47231e+06
3.47411e+06
3.47571e+06
3.47713e+06
3.4784e+06
3.47953e+06
3.48055e+06
3.48147e+06
3.4823e+06
3.48305e+06
3.48374e+06
3.48435e+06
3.48492e+06
3.48543e+06
3.48589e+06
3.48632e+06
3.4867e+06
3.44097e+06
3.45419e+06
3.44249e+06
3.45282e+06
3.44314e+06
3.44672e+06
3.43981e+06
3.43522e+06
3.43479e+06
3.43697e+06
3.43609e+06
3.43692e+06
3.43382e+06
3.42579e+06
3.42986e+06
3.43685e+06
3.44397e+06
3.44945e+06
3.45437e+06
3.45846e+06
3.46204e+06
3.46511e+06
3.46779e+06
3.47012e+06
3.47217e+06
3.47397e+06
3.47557e+06
3.47699e+06
3.47826e+06
3.4794e+06
3.48042e+06
3.48134e+06
3.48217e+06
3.48292e+06
3.4836e+06
3.48422e+06
3.48479e+06
3.4853e+06
3.48576e+06
3.48619e+06
3.48657e+06
3.43876e+06
3.45812e+06
3.44099e+06
3.45675e+06
3.44311e+06
3.44607e+06
3.43852e+06
3.43344e+06
3.4334e+06
3.43555e+06
3.43463e+06
3.43546e+06
3.43236e+06
3.42529e+06
3.42994e+06
3.43695e+06
3.44403e+06
3.44949e+06
3.45437e+06
3.45844e+06
3.462e+06
3.46505e+06
3.46771e+06
3.47004e+06
3.47208e+06
3.47388e+06
3.47547e+06
3.47688e+06
3.47815e+06
3.47928e+06
3.4803e+06
3.48122e+06
3.48205e+06
3.4828e+06
3.48348e+06
3.4841e+06
3.48466e+06
3.48518e+06
3.48564e+06
3.48607e+06
3.48645e+06
3.44041e+06
3.45852e+06
3.44249e+06
3.45754e+06
3.4448e+06
3.44455e+06
3.43741e+06
3.43146e+06
3.43188e+06
3.43407e+06
3.4331e+06
3.43402e+06
3.43089e+06
3.42486e+06
3.43008e+06
3.43714e+06
3.44418e+06
3.44962e+06
3.45446e+06
3.4585e+06
3.46202e+06
3.46505e+06
3.4677e+06
3.47e+06
3.47203e+06
3.47382e+06
3.4754e+06
3.47681e+06
3.47807e+06
3.47919e+06
3.48021e+06
3.48112e+06
3.48195e+06
3.48269e+06
3.48337e+06
3.48399e+06
3.48455e+06
3.48506e+06
3.48553e+06
3.48595e+06
3.48634e+06
3.4429e+06
3.45381e+06
3.44421e+06
3.4538e+06
3.44525e+06
3.44154e+06
3.43586e+06
3.42935e+06
3.43035e+06
3.43258e+06
3.43158e+06
3.43261e+06
3.42945e+06
3.42456e+06
3.43029e+06
3.43743e+06
3.44443e+06
3.44983e+06
3.45464e+06
3.45863e+06
3.46212e+06
3.46512e+06
3.46774e+06
3.47002e+06
3.47203e+06
3.4738e+06
3.47536e+06
3.47676e+06
3.47801e+06
3.47913e+06
3.48013e+06
3.48104e+06
3.48186e+06
3.4826e+06
3.48328e+06
3.48389e+06
3.48445e+06
3.48496e+06
3.48542e+06
3.48584e+06
3.48623e+06
3.44458e+06
3.4459e+06
3.44458e+06
3.44704e+06
3.44372e+06
3.43749e+06
3.43386e+06
3.42729e+06
3.42885e+06
3.43109e+06
3.43022e+06
3.43126e+06
3.42815e+06
3.42443e+06
3.43062e+06
3.43782e+06
3.44477e+06
3.45014e+06
3.45489e+06
3.45884e+06
3.46228e+06
3.46524e+06
3.46783e+06
3.47008e+06
3.47206e+06
3.47381e+06
3.47536e+06
3.47674e+06
3.47797e+06
3.47908e+06
3.48008e+06
3.48097e+06
3.48179e+06
3.48253e+06
3.48319e+06
3.4838e+06
3.48436e+06
3.48486e+06
3.48532e+06
3.48574e+06
3.48613e+06
3.4445e+06
3.43715e+06
3.44329e+06
3.43947e+06
3.44087e+06
3.43328e+06
3.43171e+06
3.42552e+06
3.42749e+06
3.42976e+06
3.42903e+06
3.43006e+06
3.42708e+06
3.42453e+06
3.43108e+06
3.43833e+06
3.44521e+06
3.45053e+06
3.45522e+06
3.45911e+06
3.46251e+06
3.46542e+06
3.46796e+06
3.47018e+06
3.47214e+06
3.47386e+06
3.47539e+06
3.47675e+06
3.47797e+06
3.47906e+06
3.48004e+06
3.48093e+06
3.48173e+06
3.48246e+06
3.48312e+06
3.48373e+06
3.48428e+06
3.48478e+06
3.48523e+06
3.48565e+06
3.48603e+06
3.44313e+06
3.42945e+06
3.44094e+06
3.43267e+06
3.43755e+06
3.42956e+06
3.42969e+06
3.42418e+06
3.42637e+06
3.42867e+06
3.42808e+06
3.42908e+06
3.42631e+06
3.42489e+06
3.43171e+06
3.43898e+06
3.44575e+06
3.45102e+06
3.45563e+06
3.45946e+06
3.46279e+06
3.46565e+06
3.46815e+06
3.47033e+06
3.47225e+06
3.47394e+06
3.47544e+06
3.47678e+06
3.47798e+06
3.47905e+06
3.48002e+06
3.4809e+06
3.48169e+06
3.48241e+06
3.48306e+06
3.48366e+06
3.4842e+06
3.4847e+06
3.48515e+06
3.48556e+06
3.48594e+06
3.44056e+06
3.42337e+06
3.43814e+06
3.42742e+06
3.43441e+06
3.4267e+06
3.42801e+06
3.42331e+06
3.42553e+06
3.42787e+06
3.42743e+06
3.42839e+06
3.42589e+06
3.42554e+06
3.43252e+06
3.43976e+06
3.44641e+06
3.45159e+06
3.45611e+06
3.45987e+06
3.46313e+06
3.46593e+06
3.46838e+06
3.47052e+06
3.4724e+06
3.47406e+06
3.47553e+06
3.47684e+06
3.47802e+06
3.47907e+06
3.48002e+06
3.48088e+06
3.48166e+06
3.48237e+06
3.48301e+06
3.4836e+06
3.48414e+06
3.48463e+06
3.48508e+06
3.48548e+06
3.48586e+06
3.43835e+06
3.41959e+06
3.43559e+06
3.42389e+06
3.43183e+06
3.4248e+06
3.42675e+06
3.42288e+06
3.42498e+06
3.4274e+06
3.42708e+06
3.42802e+06
3.42585e+06
3.42646e+06
3.43352e+06
3.4407e+06
3.44718e+06
3.45226e+06
3.45667e+06
3.46034e+06
3.46353e+06
3.46627e+06
3.46866e+06
3.47074e+06
3.47258e+06
3.4742e+06
3.47564e+06
3.47693e+06
3.47808e+06
3.47911e+06
3.48004e+06
3.48088e+06
3.48165e+06
3.48234e+06
3.48298e+06
3.48356e+06
3.48408e+06
3.48457e+06
3.48501e+06
3.48541e+06
3.48578e+06
3.43634e+06
3.41757e+06
3.43355e+06
3.42192e+06
3.42996e+06
3.42378e+06
3.42592e+06
3.42284e+06
3.42469e+06
3.42723e+06
3.42706e+06
3.42798e+06
3.42618e+06
3.42766e+06
3.43471e+06
3.44178e+06
3.44806e+06
3.45302e+06
3.45731e+06
3.46089e+06
3.46399e+06
3.46665e+06
3.46897e+06
3.471e+06
3.47279e+06
3.47437e+06
3.47578e+06
3.47703e+06
3.47815e+06
3.47916e+06
3.48007e+06
3.4809e+06
3.48165e+06
3.48233e+06
3.48295e+06
3.48352e+06
3.48404e+06
3.48451e+06
3.48495e+06
3.48534e+06
3.48571e+06
3.43498e+06
3.41715e+06
3.43225e+06
3.42125e+06
3.42879e+06
3.42348e+06
3.42548e+06
3.4231e+06
3.42463e+06
3.42731e+06
3.42738e+06
3.42824e+06
3.4269e+06
3.4291e+06
3.43608e+06
3.44299e+06
3.44905e+06
3.45388e+06
3.45803e+06
3.46149e+06
3.46449e+06
3.46708e+06
3.46933e+06
3.4713e+06
3.47304e+06
3.47458e+06
3.47594e+06
3.47716e+06
3.47825e+06
3.47924e+06
3.48013e+06
3.48093e+06
3.48166e+06
3.48233e+06
3.48293e+06
3.48349e+06
3.484e+06
3.48446e+06
3.48489e+06
3.48528e+06
3.48564e+06
3.43387e+06
3.41774e+06
3.43155e+06
3.42155e+06
3.42824e+06
3.42373e+06
3.42536e+06
3.42358e+06
3.42477e+06
3.42761e+06
3.42802e+06
3.4288e+06
3.42799e+06
3.43076e+06
3.43762e+06
3.44433e+06
3.45015e+06
3.45481e+06
3.45881e+06
3.46216e+06
3.46505e+06
3.46755e+06
3.46973e+06
3.47164e+06
3.47332e+06
3.47481e+06
3.47613e+06
3.47731e+06
3.47837e+06
3.47933e+06
3.48019e+06
3.48097e+06
3.48169e+06
3.48233e+06
3.48293e+06
3.48347e+06
3.48397e+06
3.48442e+06
3.48484e+06
3.48523e+06
3.48558e+06
3.43332e+06
3.41927e+06
3.43132e+06
3.42251e+06
3.42814e+06
3.42434e+06
3.4255e+06
3.42422e+06
3.42506e+06
3.42811e+06
3.42897e+06
3.42961e+06
3.42944e+06
3.43262e+06
3.43933e+06
3.44578e+06
3.45135e+06
3.45583e+06
3.45966e+06
3.46288e+06
3.46566e+06
3.46807e+06
3.47016e+06
3.472e+06
3.47363e+06
3.47506e+06
3.47634e+06
3.47748e+06
3.47851e+06
3.47943e+06
3.48027e+06
3.48103e+06
3.48172e+06
3.48235e+06
3.48293e+06
3.48346e+06
3.48394e+06
3.48439e+06
3.4848e+06
3.48518e+06
3.48552e+06
3.43287e+06
3.42126e+06
3.43128e+06
3.42381e+06
3.42834e+06
3.42515e+06
3.42584e+06
3.42493e+06
3.42547e+06
3.42873e+06
3.43021e+06
3.43064e+06
3.43122e+06
3.43464e+06
3.44119e+06
3.44734e+06
3.45264e+06
3.45692e+06
3.46058e+06
3.46366e+06
3.46632e+06
3.46862e+06
3.47064e+06
3.4724e+06
3.47396e+06
3.47534e+06
3.47657e+06
3.47768e+06
3.47866e+06
3.47956e+06
3.48037e+06
3.4811e+06
3.48177e+06
3.48238e+06
3.48294e+06
3.48346e+06
3.48393e+06
3.48436e+06
3.48477e+06
3.48513e+06
3.48547e+06
3.43242e+06
3.42344e+06
3.43133e+06
3.42526e+06
3.42869e+06
3.42602e+06
3.4263e+06
3.42563e+06
3.42589e+06
3.42942e+06
3.43172e+06
3.43188e+06
3.43332e+06
3.43681e+06
3.44319e+06
3.44899e+06
3.45402e+06
3.45808e+06
3.46155e+06
3.46448e+06
3.46702e+06
3.46922e+06
3.47114e+06
3.47283e+06
3.47432e+06
3.47565e+06
3.47683e+06
3.47789e+06
3.47884e+06
3.4797e+06
3.48047e+06
3.48118e+06
3.48183e+06
3.48242e+06
3.48296e+06
3.48346e+06
3.48392e+06
3.48435e+06
3.48474e+06
3.4851e+06
3.48543e+06
3.43158e+06
3.42541e+06
3.43131e+06
3.42664e+06
3.42906e+06
3.42683e+06
3.42684e+06
3.42624e+06
3.4263e+06
3.43007e+06
3.43347e+06
3.43329e+06
3.43572e+06
3.43908e+06
3.44531e+06
3.45071e+06
3.45547e+06
3.45929e+06
3.46259e+06
3.46536e+06
3.46777e+06
3.46985e+06
3.47168e+06
3.47329e+06
3.47471e+06
3.47598e+06
3.4771e+06
3.47812e+06
3.47903e+06
3.47985e+06
3.4806e+06
3.48128e+06
3.4819e+06
3.48247e+06
3.48299e+06
3.48348e+06
3.48392e+06
3.48433e+06
3.48471e+06
3.48506e+06
3.48539e+06
3.43099e+06
3.42731e+06
3.4312e+06
3.42783e+06
3.42941e+06
3.42754e+06
3.42742e+06
3.42677e+06
3.42665e+06
3.43058e+06
3.43544e+06
3.43482e+06
3.43838e+06
3.44144e+06
3.44753e+06
3.4525e+06
3.45699e+06
3.46056e+06
3.46367e+06
3.46628e+06
3.46855e+06
3.47052e+06
3.47226e+06
3.47378e+06
3.47513e+06
3.47633e+06
3.4774e+06
3.47836e+06
3.47923e+06
3.48002e+06
3.48073e+06
3.48138e+06
3.48198e+06
3.48253e+06
3.48303e+06
3.4835e+06
3.48393e+06
3.48432e+06
3.48469e+06
3.48503e+06
3.48535e+06
3.43037e+06
3.42881e+06
3.43093e+06
3.42871e+06
3.42969e+06
3.4281e+06
3.42802e+06
3.42719e+06
3.42687e+06
3.43085e+06
3.43757e+06
3.4364e+06
3.44126e+06
3.44383e+06
3.44983e+06
3.45432e+06
3.45857e+06
3.46188e+06
3.46479e+06
3.46724e+06
3.46937e+06
3.47123e+06
3.47286e+06
3.47429e+06
3.47557e+06
3.4767e+06
3.47772e+06
3.47863e+06
3.47945e+06
3.4802e+06
3.48088e+06
3.4815e+06
3.48207e+06
3.48259e+06
3.48307e+06
3.48352e+06
3.48394e+06
3.48432e+06
3.48468e+06
3.48501e+06
3.48532e+06
3.42978e+06
3.42991e+06
3.43061e+06
3.42926e+06
3.42983e+06
3.42844e+06
3.42859e+06
3.42749e+06
3.42693e+06
3.43079e+06
3.43978e+06
3.43798e+06
3.4443e+06
3.44623e+06
3.4522e+06
3.45617e+06
3.4602e+06
3.46323e+06
3.46596e+06
3.46823e+06
3.47023e+06
3.47196e+06
3.47349e+06
3.47484e+06
3.47603e+06
3.4771e+06
3.47805e+06
3.47891e+06
3.47968e+06
3.48039e+06
3.48103e+06
3.48162e+06
3.48216e+06
3.48266e+06
3.48313e+06
3.48356e+06
3.48395e+06
3.48433e+06
3.48467e+06
3.48499e+06
3.48529e+06
3.42895e+06
3.43038e+06
3.43011e+06
3.42942e+06
3.42977e+06
3.42851e+06
3.42905e+06
3.42756e+06
3.42671e+06
3.4303e+06
3.44196e+06
3.43951e+06
3.44741e+06
3.4486e+06
3.45459e+06
3.45804e+06
3.46186e+06
3.46462e+06
3.46717e+06
3.46927e+06
3.47113e+06
3.47273e+06
3.47415e+06
3.4754e+06
3.47652e+06
3.47751e+06
3.4784e+06
3.4792e+06
3.47993e+06
3.48059e+06
3.4812e+06
3.48176e+06
3.48227e+06
3.48274e+06
3.48318e+06
3.48359e+06
3.48398e+06
3.48433e+06
3.48467e+06
3.48498e+06
3.48527e+06
3.42825e+06
3.43049e+06
3.42938e+06
3.42914e+06
3.42943e+06
3.42823e+06
3.42928e+06
3.42735e+06
3.42613e+06
3.42931e+06
3.444e+06
3.44095e+06
3.45052e+06
3.45092e+06
3.45699e+06
3.45991e+06
3.46355e+06
3.46604e+06
3.46841e+06
3.47033e+06
3.47205e+06
3.47353e+06
3.47484e+06
3.476e+06
3.47703e+06
3.47795e+06
3.47877e+06
3.47952e+06
3.48019e+06
3.48081e+06
3.48138e+06
3.4819e+06
3.48238e+06
3.48283e+06
3.48325e+06
3.48364e+06
3.484e+06
3.48435e+06
3.48467e+06
3.48497e+06
3.48525e+06
3.4272e+06
3.43001e+06
3.42823e+06
3.4284e+06
3.42872e+06
3.42751e+06
3.42922e+06
3.42665e+06
3.42507e+06
3.4278e+06
3.44575e+06
3.44227e+06
3.45352e+06
3.45317e+06
3.45937e+06
3.46179e+06
3.46527e+06
3.46749e+06
3.46969e+06
3.47144e+06
3.47302e+06
3.47436e+06
3.47556e+06
3.47662e+06
3.47756e+06
3.4784e+06
3.47916e+06
3.47984e+06
3.48047e+06
3.48104e+06
3.48156e+06
3.48205e+06
3.4825e+06
3.48292e+06
3.48332e+06
3.48369e+06
3.48404e+06
3.48436e+06
3.48467e+06
3.48496e+06
3.48523e+06
3.42602e+06
3.42933e+06
3.42671e+06
3.42736e+06
3.42763e+06
3.42636e+06
3.42885e+06
3.42505e+06
3.42332e+06
3.42575e+06
3.44702e+06
3.44346e+06
3.45636e+06
3.45538e+06
3.46173e+06
3.46368e+06
3.46702e+06
3.46898e+06
3.47102e+06
3.47258e+06
3.47402e+06
3.47523e+06
3.47631e+06
3.47726e+06
3.47811e+06
3.47887e+06
3.47956e+06
3.48018e+06
3.48075e+06
3.48127e+06
3.48176e+06
3.48221e+06
3.48263e+06
3.48302e+06
3.48339e+06
3.48374e+06
3.48407e+06
3.48438e+06
3.48468e+06
3.48496e+06
3.48522e+06
3.4238e+06
3.4279e+06
3.4246e+06
3.42616e+06
3.42626e+06
3.425e+06
3.42821e+06
3.42292e+06
3.42126e+06
3.42335e+06
3.44785e+06
3.44465e+06
3.45904e+06
3.45761e+06
3.46408e+06
3.46561e+06
3.46882e+06
3.47052e+06
3.47239e+06
3.47377e+06
3.47506e+06
3.47613e+06
3.47709e+06
3.47793e+06
3.47869e+06
3.47936e+06
3.47997e+06
3.48053e+06
3.48104e+06
3.48152e+06
3.48196e+06
3.48237e+06
3.48276e+06
3.48312e+06
3.48347e+06
3.4838e+06
3.48411e+06
3.48441e+06
3.48469e+06
3.48496e+06
3.48521e+06
3.41929e+06
3.4208e+06
3.4485e+06
3.446e+06
3.46165e+06
3.45994e+06
3.46646e+06
3.46763e+06
3.47068e+06
3.47212e+06
3.47382e+06
3.47501e+06
3.47614e+06
3.47707e+06
3.4779e+06
3.47863e+06
3.47928e+06
3.47987e+06
3.4804e+06
3.4809e+06
3.48135e+06
3.48177e+06
3.48217e+06
3.48254e+06
3.4829e+06
3.48323e+06
3.48355e+06
3.48386e+06
3.48415e+06
3.48443e+06
3.4847e+06
3.48496e+06
3.4852e+06
3.47484e+06
3.47642e+06
3.47782e+06
3.47905e+06
3.48015e+06
3.48114e+06
3.48205e+06
3.48287e+06
3.48362e+06
3.48432e+06
3.48496e+06
3.48555e+06
3.4861e+06
3.48661e+06
3.48708e+06
3.48752e+06
3.48793e+06
3.48831e+06
3.48866e+06
3.48898e+06
3.46879e+06
3.47112e+06
3.47321e+06
3.47499e+06
3.47656e+06
3.47795e+06
3.47918e+06
3.48029e+06
3.48129e+06
3.4822e+06
3.48302e+06
3.48378e+06
3.48447e+06
3.48511e+06
3.4857e+06
3.48624e+06
3.48674e+06
3.48721e+06
3.48764e+06
3.48803e+06
3.4884e+06
3.48874e+06
3.49528e+06
3.51564e+06
3.49554e+06
3.50704e+06
3.50027e+06
3.50076e+06
3.49373e+06
3.48776e+06
3.48306e+06
3.47979e+06
3.47278e+06
3.45681e+06
3.45583e+06
3.46039e+06
3.46362e+06
3.46681e+06
3.46935e+06
3.47165e+06
3.47361e+06
3.47535e+06
3.47688e+06
3.47824e+06
3.47946e+06
3.48055e+06
3.48154e+06
3.48244e+06
3.48325e+06
3.484e+06
3.48468e+06
3.48531e+06
3.48588e+06
3.48641e+06
3.4869e+06
3.48735e+06
3.48777e+06
3.48815e+06
3.48851e+06
3.47942e+06
3.50317e+06
3.48083e+06
3.49459e+06
3.48481e+06
3.48701e+06
3.48187e+06
3.48101e+06
3.47963e+06
3.47824e+06
3.48004e+06
3.47688e+06
3.47185e+06
3.45524e+06
3.45363e+06
3.45821e+06
3.46159e+06
3.46496e+06
3.46769e+06
3.47018e+06
3.4723e+06
3.4742e+06
3.47586e+06
3.47734e+06
3.47866e+06
3.47984e+06
3.48091e+06
3.48187e+06
3.48275e+06
3.48354e+06
3.48427e+06
3.48493e+06
3.48554e+06
3.48609e+06
3.4866e+06
3.48708e+06
3.48751e+06
3.48791e+06
3.48828e+06
3.45939e+06
3.48048e+06
3.4608e+06
3.47271e+06
3.46045e+06
3.46329e+06
3.46261e+06
3.47017e+06
3.4751e+06
3.4768e+06
3.47901e+06
3.47614e+06
3.47155e+06
3.45419e+06
3.4518e+06
3.45623e+06
3.45973e+06
3.46323e+06
3.46612e+06
3.46878e+06
3.47106e+06
3.47309e+06
3.47488e+06
3.47648e+06
3.47789e+06
3.47916e+06
3.4803e+06
3.48133e+06
3.48226e+06
3.4831e+06
3.48386e+06
3.48456e+06
3.4852e+06
3.48578e+06
3.48632e+06
3.48681e+06
3.48726e+06
3.48767e+06
3.48805e+06
3.4884e+06
3.43604e+06
3.44969e+06
3.43743e+06
3.44399e+06
3.42999e+06
3.43183e+06
3.43745e+06
3.45588e+06
3.46963e+06
3.47539e+06
3.4784e+06
3.47602e+06
3.47172e+06
3.45332e+06
3.45014e+06
3.45436e+06
3.45798e+06
3.46159e+06
3.46464e+06
3.46745e+06
3.46988e+06
3.47205e+06
3.47396e+06
3.47566e+06
3.47717e+06
3.47852e+06
3.47972e+06
3.48081e+06
3.48179e+06
3.48267e+06
3.48348e+06
3.48421e+06
3.48487e+06
3.48548e+06
3.48604e+06
3.48655e+06
3.48701e+06
3.48744e+06
3.48783e+06
3.48819e+06
3.41665e+06
3.42179e+06
3.41696e+06
3.41734e+06
3.40264e+06
3.40205e+06
3.41346e+06
3.44188e+06
3.46428e+06
3.47396e+06
3.4779e+06
3.47607e+06
3.47185e+06
3.45221e+06
3.44834e+06
3.45244e+06
3.45626e+06
3.45999e+06
3.46323e+06
3.46619e+06
3.46877e+06
3.47107e+06
3.47309e+06
3.47489e+06
3.47648e+06
3.4779e+06
3.47918e+06
3.48032e+06
3.48134e+06
3.48227e+06
3.48311e+06
3.48387e+06
3.48456e+06
3.48519e+06
3.48577e+06
3.4863e+06
3.48678e+06
3.48722e+06
3.48762e+06
3.48799e+06
3.48832e+06
3.40738e+06
3.40833e+06
3.40688e+06
3.40486e+06
3.39115e+06
3.3889e+06
3.40145e+06
3.43401e+06
3.46082e+06
3.47245e+06
3.47658e+06
3.47529e+06
3.47096e+06
3.45033e+06
3.44611e+06
3.45035e+06
3.45449e+06
3.45841e+06
3.46187e+06
3.46499e+06
3.46772e+06
3.47014e+06
3.47228e+06
3.47417e+06
3.47584e+06
3.47733e+06
3.47866e+06
3.47985e+06
3.48092e+06
3.48189e+06
3.48276e+06
3.48355e+06
3.48427e+06
3.48492e+06
3.48551e+06
3.48605e+06
3.48655e+06
3.487e+06
3.48741e+06
3.48779e+06
3.48814e+06
3.4103e+06
3.41374e+06
3.41008e+06
3.41192e+06
3.40025e+06
3.39951e+06
3.40748e+06
3.43563e+06
3.45951e+06
3.47002e+06
3.47336e+06
3.47267e+06
3.46817e+06
3.4473e+06
3.44334e+06
3.44803e+06
3.45265e+06
3.45684e+06
3.46055e+06
3.46385e+06
3.46674e+06
3.46928e+06
3.47152e+06
3.4735e+06
3.47524e+06
3.4768e+06
3.47818e+06
3.47942e+06
3.48053e+06
3.48153e+06
3.48243e+06
3.48324e+06
3.48398e+06
3.48465e+06
3.48527e+06
3.48582e+06
3.48633e+06
3.48679e+06
3.48722e+06
3.4876e+06
3.48795e+06
3.42208e+06
3.42975e+06
3.42231e+06
3.42875e+06
3.42003e+06
3.42336e+06
3.42428e+06
3.44287e+06
3.4586e+06
3.46591e+06
3.46802e+06
3.46803e+06
3.46339e+06
3.44329e+06
3.44026e+06
3.44557e+06
3.4508e+06
3.45531e+06
3.4593e+06
3.46278e+06
3.46583e+06
3.46849e+06
3.47083e+06
3.47288e+06
3.4747e+06
3.47631e+06
3.47774e+06
3.47902e+06
3.48016e+06
3.48119e+06
3.48212e+06
3.48296e+06
3.48372e+06
3.4844e+06
3.48503e+06
3.4856e+06
3.48612e+06
3.48659e+06
3.48702e+06
3.48742e+06
3.48777e+06
3.43458e+06
3.44327e+06
3.43529e+06
3.4429e+06
3.43722e+06
3.44395e+06
3.43963e+06
3.44834e+06
3.45614e+06
3.46035e+06
3.46134e+06
3.46206e+06
3.45739e+06
3.4389e+06
3.43724e+06
3.44318e+06
3.44904e+06
3.45387e+06
3.45815e+06
3.46181e+06
3.465e+06
3.46777e+06
3.4702e+06
3.47232e+06
3.4742e+06
3.47586e+06
3.47733e+06
3.47865e+06
3.47982e+06
3.48088e+06
3.48183e+06
3.48269e+06
3.48346e+06
3.48417e+06
3.48481e+06
3.48539e+06
3.48592e+06
3.4864e+06
3.48684e+06
3.48724e+06
3.4876e+06
3.44398e+06
3.44982e+06
3.44457e+06
3.44969e+06
3.44746e+06
3.45262e+06
3.44846e+06
3.44921e+06
3.45207e+06
3.45438e+06
3.45457e+06
3.45589e+06
3.45132e+06
3.43489e+06
3.43464e+06
3.44107e+06
3.4475e+06
3.45261e+06
3.45713e+06
3.46094e+06
3.46427e+06
3.46713e+06
3.46964e+06
3.47183e+06
3.47375e+06
3.47545e+06
3.47696e+06
3.47831e+06
3.47951e+06
3.48059e+06
3.48156e+06
3.48244e+06
3.48323e+06
3.48395e+06
3.4846e+06
3.48519e+06
3.48573e+06
3.48622e+06
3.48666e+06
3.48707e+06
3.48744e+06
3.45099e+06
3.44997e+06
3.45116e+06
3.45008e+06
3.45399e+06
3.452e+06
3.45182e+06
3.44705e+06
3.44747e+06
3.44903e+06
3.44867e+06
3.4505e+06
3.44609e+06
3.4317e+06
3.43263e+06
3.4394e+06
3.44624e+06
3.45155e+06
3.45626e+06
3.46021e+06
3.46363e+06
3.46658e+06
3.46915e+06
3.47139e+06
3.47336e+06
3.4751e+06
3.47664e+06
3.47801e+06
3.47923e+06
3.48033e+06
3.48132e+06
3.48221e+06
3.48301e+06
3.48374e+06
3.4844e+06
3.485e+06
3.48554e+06
3.48604e+06
3.48649e+06
3.4869e+06
3.48728e+06
3.45696e+06
3.44799e+06
3.45619e+06
3.44842e+06
3.45898e+06
3.4499e+06
3.45175e+06
3.44421e+06
3.44342e+06
3.44489e+06
3.44429e+06
3.4461e+06
3.44196e+06
3.42941e+06
3.43123e+06
3.4382e+06
3.44529e+06
3.45073e+06
3.45558e+06
3.45961e+06
3.46311e+06
3.46612e+06
3.46873e+06
3.47101e+06
3.47302e+06
3.47478e+06
3.47635e+06
3.47774e+06
3.47898e+06
3.48009e+06
3.48109e+06
3.48199e+06
3.48281e+06
3.48355e+06
3.48421e+06
3.48482e+06
3.48537e+06
3.48587e+06
3.48633e+06
3.48675e+06
3.48712e+06
3.4591e+06
3.44715e+06
3.45782e+06
3.44773e+06
3.46012e+06
3.44949e+06
3.44948e+06
3.44157e+06
3.44026e+06
3.44195e+06
3.44122e+06
3.44281e+06
3.43903e+06
3.42797e+06
3.43041e+06
3.43743e+06
3.44463e+06
3.45014e+06
3.45506e+06
3.45914e+06
3.4627e+06
3.46574e+06
3.46839e+06
3.4707e+06
3.47273e+06
3.47451e+06
3.4761e+06
3.4775e+06
3.47876e+06
3.47988e+06
3.48089e+06
3.4818e+06
3.48262e+06
3.48337e+06
3.48404e+06
3.48465e+06
3.48521e+06
3.48572e+06
3.48618e+06
3.4866e+06
3.48698e+06
3.4555e+06
3.44805e+06
3.45431e+06
3.44796e+06
3.45531e+06
3.44901e+06
3.44583e+06
3.43915e+06
3.4379e+06
3.4399e+06
3.43912e+06
3.44037e+06
3.43692e+06
3.42702e+06
3.43e+06
3.43702e+06
3.44423e+06
3.44975e+06
3.4547e+06
3.4588e+06
3.46238e+06
3.46545e+06
3.46812e+06
3.47045e+06
3.47249e+06
3.47429e+06
3.47588e+06
3.4773e+06
3.47856e+06
3.47969e+06
3.48071e+06
3.48163e+06
3.48245e+06
3.4832e+06
3.48388e+06
3.4845e+06
3.48506e+06
3.48557e+06
3.48603e+06
3.48645e+06
3.48683e+06
3.44698e+06
3.44994e+06
3.44762e+06
3.44935e+06
3.44776e+06
3.44772e+06
3.44221e+06
3.43703e+06
3.43618e+06
3.43835e+06
3.43753e+06
3.43849e+06
3.43528e+06
3.42634e+06
3.42986e+06
3.43686e+06
3.44402e+06
3.44953e+06
3.45447e+06
3.45858e+06
3.46217e+06
3.46524e+06
3.46792e+06
3.47026e+06
3.47231e+06
3.47411e+06
3.47571e+06
3.47713e+06
3.4784e+06
3.47953e+06
3.48055e+06
3.48147e+06
3.4823e+06
3.48305e+06
3.48374e+06
3.48435e+06
3.48492e+06
3.48543e+06
3.48589e+06
3.48632e+06
3.4867e+06
3.44097e+06
3.45419e+06
3.44249e+06
3.45282e+06
3.44314e+06
3.44672e+06
3.43981e+06
3.43522e+06
3.43479e+06
3.43697e+06
3.43609e+06
3.43692e+06
3.43382e+06
3.42579e+06
3.42986e+06
3.43685e+06
3.44397e+06
3.44945e+06
3.45437e+06
3.45846e+06
3.46204e+06
3.46511e+06
3.46779e+06
3.47012e+06
3.47217e+06
3.47397e+06
3.47557e+06
3.47699e+06
3.47826e+06
3.4794e+06
3.48042e+06
3.48134e+06
3.48217e+06
3.48292e+06
3.4836e+06
3.48422e+06
3.48479e+06
3.4853e+06
3.48576e+06
3.48619e+06
3.48657e+06
3.43876e+06
3.45812e+06
3.44099e+06
3.45675e+06
3.44311e+06
3.44607e+06
3.43852e+06
3.43344e+06
3.4334e+06
3.43555e+06
3.43463e+06
3.43546e+06
3.43236e+06
3.42529e+06
3.42994e+06
3.43695e+06
3.44403e+06
3.44949e+06
3.45437e+06
3.45844e+06
3.462e+06
3.46505e+06
3.46771e+06
3.47004e+06
3.47208e+06
3.47388e+06
3.47547e+06
3.47688e+06
3.47815e+06
3.47928e+06
3.4803e+06
3.48122e+06
3.48205e+06
3.4828e+06
3.48348e+06
3.4841e+06
3.48466e+06
3.48518e+06
3.48564e+06
3.48607e+06
3.48645e+06
3.44041e+06
3.45852e+06
3.44249e+06
3.45754e+06
3.4448e+06
3.44455e+06
3.43741e+06
3.43146e+06
3.43188e+06
3.43407e+06
3.4331e+06
3.43402e+06
3.43089e+06
3.42486e+06
3.43008e+06
3.43714e+06
3.44418e+06
3.44962e+06
3.45446e+06
3.4585e+06
3.46202e+06
3.46505e+06
3.4677e+06
3.47e+06
3.47203e+06
3.47382e+06
3.4754e+06
3.47681e+06
3.47807e+06
3.47919e+06
3.48021e+06
3.48112e+06
3.48195e+06
3.48269e+06
3.48337e+06
3.48399e+06
3.48455e+06
3.48506e+06
3.48553e+06
3.48595e+06
3.48634e+06
3.4429e+06
3.45381e+06
3.44421e+06
3.4538e+06
3.44525e+06
3.44154e+06
3.43586e+06
3.42935e+06
3.43035e+06
3.43258e+06
3.43158e+06
3.43261e+06
3.42945e+06