/*--------------------------------*- C++ -*----------------------------------*\
| =========                 |                                                 |
| \\      /  F ield         | OpenFOAM: The Open Source CFD Toolbox           |
|  \\    /   O peration     | Version:  v2012                                 |
|   \\  /    A nd           | Website:  www.openfoam.com                      |
|    \\/     M anipulation  |                                                 |
\*---------------------------------------------------------------------------*/
FoamFile
{
    version     2.0;
    format      ascii;
    class       surfaceScalarField;
    location    "0.15";
    object      phi;
}
// * * * * * * * * * * * * * * * * * * * * * * * * * * * * * * * * * * * * * //

dimensions      [0 3 -1 0 0 0 0];
oriented        oriented;


internalField   nonuniform List<scalar> 
8162
(
-1.28799e-08
-1.15259e-07
-2.23507e-15
-1.43595e-08
-1.16583e-07
-2.03577e-15
-1.58539e-08
-1.17655e-07
-1.85292e-15
-1.73568e-08
-1.18389e-07
-1.72015e-15
-1.8861e-08
-1.18723e-07
-1.60555e-15
-2.03585e-08
-1.18564e-07
-1.50428e-15
-2.1841e-08
-1.17843e-07
-1.41707e-15
-2.32993e-08
-1.16483e-07
-1.33988e-15
-2.47243e-08
-1.14402e-07
-1.26022e-15
-2.61063e-08
-1.11552e-07
-1.17399e-15
-2.74349e-08
-1.07847e-07
-9.99095e-16
-2.86995e-08
-1.03236e-07
-1.17526e-15
-2.9889e-08
-9.76584e-08
-1.07348e-15
-3.0992e-08
-9.10533e-08
-9.97806e-16
-3.19962e-08
-8.33682e-08
-9.24294e-16
-3.28891e-08
-7.45524e-08
-8.44287e-16
-3.36572e-08
-6.45636e-08
-7.68697e-16
-3.42871e-08
-5.33608e-08
-6.88254e-16
-3.47649e-08
-4.09173e-08
-6.29933e-16
-2.72151e-08
-5.65518e-16
-1.1152e-08
-1.10476e-07
-2.9758e-15
-1.26223e-08
-1.12247e-07
-2.61767e-15
-1.41012e-08
-1.1378e-07
-2.38194e-15
-1.55912e-08
-1.15093e-07
-2.16743e-15
-1.709e-08
-1.16156e-07
-1.96083e-15
-1.85927e-08
-1.16886e-07
-1.81253e-15
-2.00931e-08
-1.17222e-07
-1.68385e-15
-2.15838e-08
-1.17074e-07
-1.57712e-15
-2.3057e-08
-1.1637e-07
-1.48184e-15
-2.4504e-08
-1.15036e-07
-1.39565e-15
-2.59161e-08
-1.1299e-07
-1.30463e-15
-2.72836e-08
-1.10184e-07
-1.20186e-15
-2.85966e-08
-1.06534e-07
-1.02416e-15
-2.98442e-08
-1.01988e-07
-1.21304e-15
-3.10158e-08
-9.64868e-08
-1.10718e-15
-3.20996e-08
-8.99694e-08
-1.03322e-15
-3.30835e-08
-8.23843e-08
-9.58287e-16
-3.39549e-08
-7.36812e-08
-8.76629e-16
-3.47002e-08
-6.38182e-08
-7.97522e-16
-3.53058e-08
-5.2755e-08
-7.14628e-16
-3.57578e-08
-4.04653e-08
-6.48229e-16
-2.69312e-08
-5.78011e-16
7.688e-11
-6.87047e-09
1.06478e-14
1.83574e-10
-2.35535e-08
8.13815e-15
-1.65163e-09
-4.07023e-08
1.06415e-14
-5.70962e-09
-3.34613e-08
1.4704e-14
-9.10344e-09
-3.93667e-08
-1.04577e-15
-1.18095e-08
-6.63027e-08
-7.50699e-15
-1.22982e-08
-1.03894e-07
1.91351e-14
-1.01892e-08
-1.37249e-07
-8.35066e-15
-6.55555e-09
-1.47302e-07
-5.73435e-15
-1.31329e-07
4.47462e-15
-3.5094e-09
-8.35897e-08
-4.74921e-15
-5.58342e-09
-9.27965e-08
-4.11571e-15
-7.45448e-09
-9.93364e-08
-3.79643e-15
-9.14387e-09
-1.03782e-07
-3.60719e-15
-1.07196e-08
-1.06756e-07
-3.42974e-15
-1.22426e-08
-1.08953e-07
-3.02316e-15
-1.37464e-08
-1.10743e-07
-2.68689e-15
-1.52478e-08
-1.12278e-07
-2.46057e-15
-1.67522e-08
-1.13588e-07
-2.24856e-15
-1.82593e-08
-1.14649e-07
-2.04746e-15
-1.97657e-08
-1.1538e-07
-1.90725e-15
-2.12658e-08
-1.15722e-07
-1.77584e-15
-2.27531e-08
-1.15586e-07
-1.66609e-15
-2.42202e-08
-1.14903e-07
-1.55835e-15
-2.5659e-08
-1.13597e-07
-1.45819e-15
-2.70609e-08
-1.11588e-07
-1.35267e-15
-2.84167e-08
-1.08829e-07
-1.23483e-15
-2.97163e-08
-1.05234e-07
-1.06343e-15
-3.09493e-08
-1.00755e-07
-1.25213e-15
-3.21049e-08
-9.53311e-08
-1.13908e-15
-3.31716e-08
-8.89028e-08
-1.06591e-15
-3.4137e-08
-8.14189e-08
-9.90616e-16
-3.49885e-08
-7.28298e-08
-9.07626e-16
-3.57126e-08
-6.30941e-08
-8.26229e-16
-3.62955e-08
-5.2172e-08
-7.40876e-16
-3.67231e-08
-4.00377e-08
-6.68964e-16
-2.66736e-08
-5.94473e-16
6.8374e-11
-6.93882e-09
1.14591e-14
8.77628e-11
-2.35729e-08
5.50495e-15
-2.07854e-09
-3.8536e-08
-1.50358e-15
-6.24899e-09
-2.92909e-08
1.80545e-14
-1.01517e-08
-3.54639e-08
7.44842e-15
-1.35113e-08
-6.2943e-08
3.61629e-15
-1.42789e-08
-1.03126e-07
8.45154e-15
-1.1877e-08
-1.39651e-07
-1.40032e-14
-7.6875e-09
-1.51491e-07
2.95006e-15
-3.25768e-09
-1.35759e-07
-1.92314e-14
-5.42485e-11
-9.88415e-08
-1.42126e-14
-1.68172e-09
-7.12582e-08
1.14701e-14
-3.98079e-09
-8.12906e-08
-4.97465e-15
-6.19015e-09
-9.05871e-08
-4.17756e-15
-8.1917e-09
-9.73349e-08
-4.21263e-15
-9.98815e-09
-1.01985e-07
-3.9501e-15
-1.16432e-08
-1.05101e-07
-3.73325e-15
-1.32232e-08
-1.07373e-07
-3.17532e-15
-1.47675e-08
-1.09198e-07
-2.93698e-15
-1.62978e-08
-1.10748e-07
-2.70889e-15
-1.78227e-08
-1.12064e-07
-2.4431e-15
-1.93439e-08
-1.13128e-07
-2.19121e-15
-2.08592e-08
-1.13864e-07
-2.02025e-15
-2.23642e-08
-1.14217e-07
-1.86416e-15
-2.3853e-08
-1.14098e-07
-1.74553e-15
-2.53186e-08
-1.13437e-07
-1.62295e-15
-2.67534e-08
-1.12162e-07
-1.51144e-15
-2.8149e-08
-1.10192e-07
-1.39462e-15
-2.94966e-08
-1.07481e-07
-1.26617e-15
-3.07863e-08
-1.03945e-07
-1.09452e-15
-3.20077e-08
-9.95335e-08
-1.28978e-15
-3.31503e-08
-9.41885e-08
-1.16868e-15
-3.42023e-08
-8.78508e-08
-1.09612e-15
-3.51516e-08
-8.04696e-08
-1.02073e-15
-3.59856e-08
-7.1996e-08
-9.36802e-16
-3.66905e-08
-6.23891e-08
-8.53624e-16
-3.72526e-08
-5.16098e-08
-7.66211e-16
-3.76577e-08
-3.96326e-08
-6.89816e-16
-2.64402e-08
-6.12201e-16
6.10274e-11
-6.99983e-09
1.00977e-14
3.29521e-12
-2.35152e-08
5.15198e-15
-2.22475e-09
-3.63079e-08
-1.01774e-14
-6.13651e-09
-2.53793e-08
2.36952e-14
-1.01648e-08
-3.14356e-08
1.24654e-14
-1.37943e-08
-5.93136e-08
-1.08496e-15
-1.46297e-08
-1.02291e-07
-7.04968e-15
-1.20341e-08
-1.42247e-07
-5.8752e-15
-7.66817e-09
-1.55857e-07
2.24483e-16
-3.23367e-09
-1.40193e-07
-1.60086e-14
-3.55111e-10
-1.0172e-07
7.4385e-15
-1.98049e-09
-6.96328e-08
6.24786e-15
-4.32545e-09
-7.89456e-08
-4.97482e-15
-6.65077e-09
-8.82618e-08
-4.35023e-15
-8.77848e-09
-9.52072e-08
-4.11085e-15
-1.06863e-08
-1.00077e-07
-3.76649e-15
-1.24288e-08
-1.03359e-07
-3.94351e-15
-1.40743e-08
-1.05727e-07
-3.28333e-15
-1.56674e-08
-1.07605e-07
-3.03614e-15
-1.72344e-08
-1.09181e-07
-2.81011e-15
-1.8787e-08
-1.10511e-07
-2.53305e-15
-2.03292e-08
-1.11586e-07
-2.27826e-15
-2.18601e-08
-1.12333e-07
-2.10565e-15
-2.33762e-08
-1.12701e-07
-1.94448e-15
-2.48722e-08
-1.12601e-07
-1.82816e-15
-2.63418e-08
-1.11967e-07
-1.68878e-15
-2.77777e-08
-1.10726e-07
-1.56453e-15
-2.91719e-08
-1.08798e-07
-1.43561e-15
-3.05157e-08
-1.06137e-07
-1.29502e-15
-3.17996e-08
-1.02661e-07
-1.11599e-15
-3.30132e-08
-9.83198e-08
-1.32237e-15
-3.4146e-08
-9.30556e-08
-1.19466e-15
-3.51867e-08
-8.68102e-08
-1.12269e-15
-3.61228e-08
-7.95334e-08
-1.04754e-15
-3.69419e-08
-7.11771e-08
-9.62852e-16
-3.76301e-08
-6.17008e-08
-8.78256e-16
-3.81737e-08
-5.10661e-08
-7.89046e-16
-3.85585e-08
-3.92479e-08
-7.08929e-16
-3.87693e-08
-2.62293e-08
-6.27514e-16
-1.20082e-08
-5.53848e-16
5.59896e-11
-7.05583e-09
6.81866e-15
-4.31122e-11
-2.34161e-08
6.11218e-15
-1.96061e-09
-3.43903e-08
-1.43658e-14
-5.0386e-09
-2.23014e-08
1.19761e-14
-8.50303e-09
-2.79711e-08
2.6925e-14
-1.18102e-08
-5.60065e-08
1.66574e-15
-1.23999e-08
-1.01701e-07
-3.78239e-15
-9.84764e-09
-1.44799e-07
3.28226e-15
-5.91677e-09
-1.59788e-07
6.48048e-15
-2.20282e-09
-1.43907e-07
-1.39591e-14
-2.6141e-10
-1.03662e-07
2.4064e-14
-2.12345e-09
-6.77708e-08
1.70402e-14
-4.53285e-09
-7.65362e-08
-2.01452e-15
-6.95925e-09
-8.58354e-08
-4.48679e-15
-9.20672e-09
-9.29597e-08
-4.31972e-15
-1.12281e-08
-9.80562e-08
-4.05495e-15
-1.30653e-08
-1.01521e-07
-4.18443e-15
-1.47847e-08
-1.04008e-07
-3.49589e-15
-1.6435e-08
-1.05955e-07
-3.13455e-15
-1.80466e-08
-1.07569e-07
-2.88517e-15
-1.96346e-08
-1.08923e-07
-2.60972e-15
-2.1205e-08
-1.10015e-07
-2.36368e-15
-2.27585e-08
-1.1078e-07
-2.19237e-15
-2.42924e-08
-1.11167e-07
-2.02489e-15
-2.58021e-08
-1.11092e-07
-1.9057e-15
-2.72818e-08
-1.10488e-07
-1.74812e-15
-2.87245e-08
-1.09283e-07
-1.61129e-15
-3.01226e-08
-1.074e-07
-1.4704e-15
-3.14676e-08
-1.04792e-07
-1.31674e-15
-3.27502e-08
-1.01378e-07
-1.1166e-15
-3.39602e-08
-9.71096e-08
-1.34732e-15
-3.50873e-08
-9.19284e-08
-1.21633e-15
-3.61201e-08
-8.57774e-08
-1.14582e-15
-3.70465e-08
-7.86071e-08
-1.07127e-15
-3.78537e-08
-7.037e-08
-9.86179e-16
-3.85281e-08
-6.10263e-08
-9.00473e-16
-3.90558e-08
-5.05382e-08
-8.09803e-16
-3.94227e-08
-3.8881e-08
-7.27258e-16
-3.96135e-08
-2.60383e-08
-6.43725e-16
-1.20082e-08
-5.63314e-16
5.32606e-11
-7.10909e-09
7.06522e-15
-3.71044e-11
-2.33257e-08
7.4019e-15
-1.29496e-09
-3.31325e-08
-2.56014e-14
-2.88803e-09
-2.07083e-08
1.29276e-14
-4.94742e-09
-2.59117e-08
1.48016e-14
-7.22543e-09
-5.37285e-08
-9.31815e-15
-7.16089e-09
-1.01766e-07
8.97264e-16
-4.96422e-09
-1.46995e-07
5.73233e-15
-2.19346e-09
-1.62559e-07
3.11065e-15
-2.31041e-11
-1.46078e-07
-1.17372e-14
3.57561e-10
-1.04042e-07
4.23035e-14
-2.05976e-09
-6.53534e-08
2.17154e-14
-4.60023e-09
-7.39958e-08
-2.52393e-16
-7.12272e-09
-8.33129e-08
-4.35041e-15
-9.48179e-09
-9.06006e-08
-4.22248e-15
-1.16156e-08
-9.59224e-08
-4.03468e-15
-1.35517e-08
-9.95854e-08
-4.32598e-15
-1.53515e-08
-1.02208e-07
-3.71946e-15
-1.70662e-08
-1.0424e-07
-3.31875e-15
-1.87296e-08
-1.05906e-07
-3.02909e-15
-2.036e-08
-1.07293e-07
-2.69195e-15
-2.19656e-08
-1.08409e-07
-2.41943e-15
-2.35484e-08
-1.09197e-07
-2.23702e-15
-2.51067e-08
-1.09609e-07
-2.06614e-15
-2.66366e-08
-1.09562e-07
-1.95404e-15
-2.81325e-08
-1.08992e-07
-1.78978e-15
-2.9588e-08
-1.07828e-07
-1.64778e-15
-3.09956e-08
-1.05992e-07
-1.498e-15
-3.23471e-08
-1.03441e-07
-1.33068e-15
-3.36334e-08
-1.00092e-07
-1.10503e-15
-3.48444e-08
-9.58984e-08
-1.36411e-15
-3.59701e-08
-9.08028e-08
-1.23342e-15
-3.6999e-08
-8.47485e-08
-1.16529e-15
-3.79191e-08
-7.7687e-08
-1.09187e-15
-3.87178e-08
-6.95714e-08
-1.00673e-15
-3.93815e-08
-6.03626e-08
-9.20294e-16
-3.98963e-08
-5.00233e-08
-8.28554e-16
-4.02479e-08
-3.85294e-08
-7.44297e-16
-4.04212e-08
-2.58649e-08
-6.59365e-16
-4.04016e-08
-1.20281e-08
-5.75138e-16
2.95663e-09
-4.90982e-16
5.1508e-11
-7.16066e-09
1.07848e-15
7.58324e-12
-2.32817e-08
6.13847e-15
-4.70792e-10
-3.26541e-08
-2.20672e-14
-2.0297e-10
-2.09761e-08
8.86393e-15
-2.8787e-10
-2.58268e-08
-2.30498e-16
-8.652e-10
-5.31512e-08
-2.29465e-14
3.18342e-10
-1.02949e-07
-1.38342e-14
1.93623e-09
-1.48613e-07
4.48742e-15
2.96493e-09
-1.63588e-07
-2.61492e-15
2.95074e-09
-1.46063e-07
-8.05347e-15
1.33769e-09
-1.02429e-07
3.1113e-14
-1.81857e-09
-6.2197e-08
2.40484e-14
-4.54684e-09
-7.12675e-08
5.64089e-16
-7.16361e-09
-8.06962e-08
-4.19675e-15
-9.62233e-09
-8.81419e-08
-4.15619e-15
-1.18624e-08
-9.36823e-08
-4.12739e-15
-1.38968e-08
-9.7551e-08
-4.30073e-15
-1.57799e-08
-1.00325e-07
-3.81691e-15
-1.75636e-08
-1.02457e-07
-3.33797e-15
-1.92842e-08
-1.04185e-07
-3.05513e-15
-2.09626e-08
-1.05614e-07
-2.74075e-15
-2.26093e-08
-1.06763e-07
-2.4864e-15
-2.42274e-08
-1.07579e-07
-2.30597e-15
-2.58163e-08
-1.0802e-07
-2.12396e-15
-2.73724e-08
-1.08006e-07
-1.99494e-15
-2.88906e-08
-1.07474e-07
-1.83082e-15
-3.03646e-08
-1.06354e-07
-1.68133e-15
-3.17874e-08
-1.0457e-07
-1.52079e-15
-3.31507e-08
-1.02078e-07
-1.33876e-15
-3.44456e-08
-9.87972e-08
-1.0783e-15
-3.56624e-08
-9.46815e-08
-1.37396e-15
-3.67909e-08
-8.96742e-08
-1.24645e-15
-3.782e-08
-8.37194e-08
-1.18144e-15
-3.87377e-08
-7.67694e-08
-1.10941e-15
-3.95315e-08
-6.87777e-08
-1.0246e-15
-4.01878e-08
-5.97063e-08
-9.37774e-16
-4.06926e-08
-4.95183e-08
-8.45395e-16
-4.1032e-08
-3.81901e-08
-7.59983e-16
-4.11904e-08
-2.57063e-08
-6.7458e-16
-4.11535e-08
-1.20653e-08
-5.89067e-16
2.70848e-09
-4.93741e-16
4.89937e-11
-7.20967e-09
5.80636e-15
5.08537e-11
-2.32836e-08
6.30987e-15
1.36204e-10
-3.27395e-08
-1.70956e-14
1.93899e-09
-2.27789e-08
1.34232e-14
3.61738e-09
-2.75052e-08
-1.73662e-14
5.19641e-09
-5.47303e-08
-2.83148e-14
7.92295e-09
-1.05676e-07
-2.57307e-14
9.05167e-09
-1.49742e-07
5.07163e-15
8.15797e-09
-1.62694e-07
-4.05409e-15
5.78746e-09
-1.43693e-07
-9.85665e-15
2.17009e-09
-9.88119e-08
2.63081e-14
-1.53854e-09
-5.84882e-08
2.75495e-14
-4.42248e-09
-6.83835e-08
1.71362e-15
-7.11763e-09
-7.8001e-08
-4.0361e-15
-9.65728e-09
-8.56022e-08
-4.21284e-15
-1.19906e-08
-9.1349e-08
-4.24741e-15
-1.41167e-08
-9.54249e-08
-4.23115e-15
-1.60816e-08
-9.836e-08
-3.83366e-15
-1.79353e-08
-1.00603e-07
-3.31403e-15
-1.97158e-08
-1.02405e-07
-3.0291e-15
-2.1446e-08
-1.03884e-07
-2.71937e-15
-2.31381e-08
-1.05071e-07
-2.47676e-15
-2.47965e-08
-1.05921e-07
-2.30893e-15
-2.64211e-08
-1.06395e-07
-2.13427e-15
-2.80088e-08
-1.06418e-07
-2.01714e-15
-2.95547e-08
-1.05928e-07
-1.85447e-15
-3.10527e-08
-1.04856e-07
-1.70375e-15
-3.24958e-08
-1.03127e-07
-1.53726e-15
-3.3876e-08
-1.00698e-07
-1.34244e-15
-3.51846e-08
-9.74887e-08
-1.04985e-15
-3.64118e-08
-9.34542e-08
-1.37929e-15
-3.75476e-08
-8.85383e-08
-1.25649e-15
-3.8581e-08
-8.2686e-08
-1.19464e-15
-3.95001e-08
-7.58502e-08
-1.12411e-15
-4.02926e-08
-6.79854e-08
-1.03985e-15
-4.09448e-08
-5.9054e-08
-9.53012e-16
-4.1443e-08
-4.90199e-08
-8.60393e-16
-4.1773e-08
-3.78602e-08
-7.74359e-16
-4.19194e-08
-2.55596e-08
-6.88734e-16
-4.18679e-08
-1.21171e-08
-6.02104e-16
2.44303e-09
-5.00997e-16
4.42643e-11
-7.25395e-09
4.68231e-15
6.15171e-11
-2.33008e-08
3.70409e-15
3.42517e-10
-3.30206e-08
-8.43055e-15
2.66247e-09
-2.50988e-08
-7.94292e-16
5.20681e-09
-3.00495e-08
-1.40608e-14
9.13903e-09
-5.86625e-08
-2.47126e-14
1.35922e-08
-1.10129e-07
-2.08408e-14
1.43861e-08
-1.50536e-07
7.44578e-15
1.18159e-08
-1.60124e-07
-6.46512e-15
7.49146e-09
-1.39369e-07
-1.47949e-14
2.39961e-09
-9.37202e-08
4.15578e-14
-1.38049e-09
-5.4708e-08
4.26621e-14
-4.28813e-09
-6.54759e-08
3.31963e-15
-7.02219e-09
-7.5267e-08
-3.83405e-15
-9.61692e-09
-8.30075e-08
-4.10223e-15
-1.20245e-08
-8.89414e-08
-4.11538e-15
-1.42305e-08
-9.32189e-08
-4.06871e-15
-1.62711e-08
-9.63194e-08
-3.77174e-15
-1.81928e-08
-9.86812e-08
-3.35829e-15
-2.00333e-08
-1.00564e-07
-3.1143e-15
-2.1817e-08
-1.021e-07
-2.80638e-15
-2.35572e-08
-1.0333e-07
-2.55113e-15
-2.52593e-08
-1.04219e-07
-2.37011e-15
-2.69236e-08
-1.04731e-07
-2.18364e-15
-2.85472e-08
-1.04795e-07
-2.04956e-15
-3.01255e-08
-1.04349e-07
-1.8795e-15
-3.16523e-08
-1.03329e-07
-1.72329e-15
-3.31205e-08
-1.01659e-07
-1.55043e-15
-3.45224e-08
-9.92957e-08
-1.34459e-15
-3.58492e-08
-9.6162e-08
-1.02225e-15
-3.70912e-08
-9.22121e-08
-1.38274e-15
-3.82386e-08
-8.73909e-08
-1.26467e-15
-3.92804e-08
-8.16443e-08
-1.20553e-15
-4.02048e-08
-7.49258e-08
-1.13623e-15
-4.09995e-08
-6.71908e-08
-1.05268e-15
-4.16511e-08
-5.84024e-08
-9.66123e-16
-4.21458e-08
-4.85251e-08
-8.7366e-16
-4.24694e-08
-3.75366e-08
-7.87415e-16
-4.26067e-08
-2.54221e-08
-7.01865e-16
-4.25433e-08
-1.21808e-08
-6.14067e-16
2.16287e-09
-5.09454e-16
3.7648e-11
-7.29163e-09
3.1744e-15
4.30608e-11
-2.33062e-08
5.86876e-15
2.56913e-10
-3.32345e-08
-1.02339e-15
2.07959e-09
-2.69214e-08
-1.1149e-14
4.82692e-09
-3.27969e-08
-1.18183e-14
1.1061e-08
-6.48966e-08
-1.21947e-14
1.66765e-08
-1.15744e-07
-2.20305e-14
1.69774e-08
-1.50837e-07
8.75734e-15
1.32269e-08
-1.56373e-07
-1.03354e-14
7.7145e-09
-1.33856e-07
-1.1441e-14
1.93663e-09
-8.79423e-08
4.84727e-14
-1.41231e-09
-5.1359e-08
4.32442e-14
-4.18761e-09
-6.27006e-08
3.85424e-15
-6.90621e-09
-7.25484e-08
-3.92922e-15
-9.52578e-09
-8.03879e-08
-4.33049e-15
-1.19852e-08
-8.6482e-08
-4.39471e-15
-1.42564e-08
-9.09477e-08
-4.01258e-15
-1.63639e-08
-9.42119e-08
-3.76416e-15
-1.83488e-08
-9.66962e-08
-3.27391e-15
-2.02474e-08
-9.86658e-08
-3.04306e-15
-2.20844e-08
-1.00263e-07
-2.76824e-15
-2.38739e-08
-1.01541e-07
-2.53349e-15
-2.56217e-08
-1.02471e-07
-2.36718e-15
-2.73284e-08
-1.03024e-07
-2.19019e-15
-2.89913e-08
-1.03132e-07
-2.05918e-15
-3.06056e-08
-1.02735e-07
-1.8911e-15
-3.2165e-08
-1.01769e-07
-1.73573e-15
-3.36626e-08
-1.00161e-07
-1.561e-15
-3.50903e-08
-9.7868e-08
-1.34755e-15
-3.64395e-08
-9.4813e-08
-1.00353e-15
-3.77004e-08
-9.0951e-08
-1.38628e-15
-3.88633e-08
-8.62279e-08
-1.2721e-15
-3.99173e-08
-8.05903e-08
-1.21455e-15
-4.08506e-08
-7.39925e-08
-1.14607e-15
-4.16512e-08
-6.63904e-08
-1.06322e-15
-4.23055e-08
-5.77481e-08
-9.77229e-16
-4.27998e-08
-4.80306e-08
-8.85327e-16
-4.31201e-08
-3.72163e-08
-7.99146e-16
-4.32512e-08
-2.52909e-08
-7.13783e-16
-4.31787e-08
-1.22537e-08
-6.25014e-16
1.87064e-09
-5.1688e-16
3.06573e-11
-7.3223e-09
4.51898e-15
1.61073e-11
-2.32917e-08
5.01968e-15
6.20682e-11
-3.32805e-08
3.83556e-15
1.07166e-09
-2.79309e-08
-8.47728e-16
4.27524e-09
-3.60004e-08
1.60182e-16
1.21576e-08
-7.2779e-08
-1.47361e-14
1.77516e-08
-1.21338e-07
-2.77951e-14
1.72558e-08
-1.50341e-07
1.04198e-14
1.28005e-08
-1.51918e-07
-2.05779e-14
6.80431e-09
-1.2786e-07
5.70865e-16
1.03197e-09
-8.217e-08
3.04682e-14
-1.59002e-09
-4.87369e-08
2.67918e-14
-4.13433e-09
-6.01563e-08
4.49785e-15
-6.78656e-09
-6.98961e-08
-3.70994e-15
-9.40056e-09
-7.77739e-08
-4.10989e-15
-1.18893e-08
-8.39933e-08
-4.1934e-15
-1.42101e-08
-8.86269e-08
-3.86498e-15
-1.63744e-08
-9.20476e-08
-3.66343e-15
-1.84164e-08
-9.46542e-08
-3.25931e-15
-2.03696e-08
-9.67126e-08
-3.05875e-15
-2.22584e-08
-9.83747e-08
-2.7859e-15
-2.40968e-08
-9.97023e-08
-2.5433e-15
-2.5891e-08
-1.00677e-07
-2.37193e-15
-2.76417e-08
-1.01274e-07
-2.19173e-15
-2.9346e-08
-1.01427e-07
-2.05829e-15
-3.09989e-08
-1.01082e-07
-1.89093e-15
-3.25941e-08
-1.00174e-07
-1.73771e-15
-3.41243e-08
-9.8631e-08
-1.56471e-15
-3.55813e-08
-9.6411e-08
-1.34866e-15
-3.69564e-08
-9.3438e-08
-9.86313e-16
-3.82398e-08
-8.96674e-08
-1.38972e-15
-3.94218e-08
-8.50458e-08
-1.27851e-15
-4.04915e-08
-7.95206e-08
-1.22171e-15
-4.14373e-08
-7.30467e-08
-1.15372e-15
-4.2247e-08
-6.55809e-08
-1.07168e-15
-4.29072e-08
-5.70878e-08
-9.86484e-16
-4.34043e-08
-4.75334e-08
-8.95382e-16
-4.37243e-08
-3.68963e-08
-8.09619e-16
-4.3852e-08
-2.5163e-08
-7.2454e-16
-4.3773e-08
-1.23329e-08
-6.3497e-16
1.569e-09
-5.23698e-16
2.47297e-11
-7.34706e-09
9.95609e-16
-1.51511e-12
-2.32654e-08
7.52233e-15
-1.51032e-10
-3.3131e-08
1.05776e-14
4.04152e-10
-2.84861e-08
3.9089e-15
4.73845e-09
-4.03346e-08
1.68328e-14
1.29791e-08
-8.10197e-08
-1.42533e-14
1.7577e-08
-1.25936e-07
-2.30433e-14
1.61359e-08
-1.489e-07
1.51507e-14
1.13396e-08
-1.47122e-07
-1.29536e-14
5.34466e-09
-1.21865e-07
-4.88684e-15
5.40662e-11
-7.68794e-08
1.02407e-14
-1.82746e-09
-4.68553e-08
7.99124e-15
-4.12071e-09
-5.78631e-08
8.85944e-16
-6.6716e-09
-6.73452e-08
-3.54075e-15
-9.25295e-09
-7.51925e-08
-3.96783e-15
-1.17504e-08
-8.14958e-08
-4.11534e-15
-1.41055e-08
-8.62718e-08
-3.76433e-15
-1.6316e-08
-8.98371e-08
-3.56237e-15
-1.84083e-08
-9.25618e-08
-3.17929e-15
-2.04119e-08
-9.4709e-08
-3.01946e-15
-2.23497e-08
-9.64369e-08
-2.78119e-15
-2.42356e-08
-9.78164e-08
-2.54883e-15
-2.60758e-08
-9.88365e-08
-2.37866e-15
-2.78708e-08
-9.94787e-08
-2.19655e-15
-2.96175e-08
-9.96806e-08
-2.06265e-15
-3.13108e-08
-9.93889e-08
-1.89488e-15
-3.29437e-08
-9.85408e-08
-1.74221e-15
-3.45089e-08
-9.70658e-08
-1.5707e-15
-3.5998e-08
-9.4922e-08
-1.35362e-15
-3.74019e-08
-9.20341e-08
-9.78818e-16
-3.87109e-08
-8.83583e-08
-1.39462e-15
-3.99151e-08
-8.38415e-08
-1.28432e-15
-4.10037e-08
-7.8432e-08
-1.22714e-15
-4.1965e-08
-7.20854e-08
-1.15942e-15
-4.27868e-08
-6.47592e-08
-1.07823e-15
-4.3456e-08
-5.64187e-08
-9.94068e-16
-4.39588e-08
-4.70304e-08
-9.03973e-16
-4.42813e-08
-3.65738e-08
-8.18919e-16
-4.44084e-08
-2.50357e-08
-7.34252e-16
-4.43258e-08
-1.24159e-08
-6.44013e-16
1.26057e-09
-5.29822e-16
2.05037e-11
-7.36759e-09
2.18638e-15
-5.73918e-12
-2.32392e-08
6.65767e-15
-3.78924e-10
-3.27579e-08
1.13368e-14
2.40825e-10
-2.91058e-08
1.56615e-15
5.90576e-09
-4.59995e-08
-5.96459e-16
1.33557e-08
-8.84697e-08
-1.5727e-14
1.6609e-08
-1.2919e-07
-2.29535e-14
1.43431e-08
-1.46634e-07
-1.21565e-15
9.48027e-09
-1.42259e-07
-2.02701e-14
3.8105e-09
-1.16195e-07
-2.59646e-14
-7.9858e-10
-7.22702e-08
-1.66485e-15
-2.06701e-09
-4.55868e-08
-3.46173e-15
-4.13263e-09
-5.57974e-08
-3.05379e-15
-6.56531e-09
-6.49126e-08
-3.42182e-15
-9.09267e-09
-7.26652e-08
-3.71758e-15
-1.15803e-08
-7.90082e-08
-3.93789e-15
-1.39553e-08
-8.38968e-08
-3.674e-15
-1.62018e-08
-8.75906e-08
-3.47995e-15
-1.83373e-08
-9.04264e-08
-3.11146e-15
-2.03861e-08
-9.26601e-08
-2.9548e-15
-2.23696e-08
-9.44535e-08
-2.72296e-15
-2.43007e-08
-9.58852e-08
-2.49682e-15
-2.61854e-08
-9.69519e-08
-2.3356e-15
-2.8024e-08
-9.76401e-08
-2.16378e-15
-2.98131e-08
-9.78914e-08
-2.03796e-15
-3.15472e-08
-9.76548e-08
-1.87466e-15
-3.3219e-08
-9.68689e-08
-1.72811e-15
-3.48208e-08
-9.54642e-08
-1.56392e-15
-3.63438e-08
-9.33991e-08
-1.35231e-15
-3.77788e-08
-9.05992e-08
-9.7131e-16
-3.91157e-08
-8.70212e-08
-1.39732e-15
-4.03447e-08
-8.26125e-08
-1.28754e-15
-4.14549e-08
-7.73219e-08
-1.23017e-15
-4.24344e-08
-7.11059e-08
-1.16306e-15
-4.32712e-08
-6.39226e-08
-1.08306e-15
-4.3952e-08
-5.57378e-08
-1.00021e-15
-4.44632e-08
-4.6519e-08
-9.11352e-16
-4.4791e-08
-3.62461e-08
-8.27205e-16
-4.49202e-08
-2.49063e-08
-7.43118e-16
-4.48364e-08
-1.24999e-08
-6.52175e-16
9.47907e-10
-5.35324e-16
1.78122e-11
-7.3854e-09
4.26262e-15
-2.97358e-12
-2.32184e-08
2.72873e-15
-5.86115e-10
-3.21747e-08
8.28573e-15
4.50315e-10
-3.01422e-08
-2.62213e-14
6.9534e-09
-5.25025e-08
1.14523e-14
1.30818e-08
-9.45983e-08
-1.94108e-14
1.51267e-08
-1.31235e-07
-1.56762e-14
1.23382e-08
-1.43846e-07
-1.42257e-14
7.62733e-09
-1.37548e-07
-3.66242e-14
2.5157e-09
-1.11084e-07
-4.4582e-14
-1.35848e-09
-6.83961e-08
-2.13149e-14
-2.27077e-09
-4.46745e-08
-6.96472e-15
-4.15652e-09
-5.39117e-08
-5.52542e-15
-6.46935e-09
-6.25997e-08
-3.26425e-15
-8.92831e-09
-7.02062e-08
-3.42544e-15
-1.13907e-08
-7.65458e-08
-3.65689e-15
-1.37722e-08
-8.15152e-08
-3.54701e-15
-1.60445e-08
-8.53183e-08
-3.36072e-15
-1.82156e-08
-8.82553e-08
-3.04097e-15
-2.03044e-08
-9.05713e-08
-2.91966e-15
-2.23294e-08
-9.24286e-08
-2.71765e-15
-2.43026e-08
-9.3912e-08
-2.50349e-15
-2.62294e-08
-9.50251e-08
-2.3454e-15
-2.81099e-08
-9.57596e-08
-2.16891e-15
-2.99405e-08
-9.60609e-08
-2.04086e-15
-3.17149e-08
-9.58804e-08
-1.87545e-15
-3.34258e-08
-9.5158e-08
-1.72649e-15
-3.50647e-08
-9.38253e-08
-1.56312e-15
-3.66227e-08
-9.18411e-08
-1.35378e-15
-3.80902e-08
-8.91318e-08
-9.70927e-16
-3.94569e-08
-8.56543e-08
-1.39903e-15
-4.07127e-08
-8.13566e-08
-1.28883e-15
-4.18465e-08
-7.61882e-08
-1.23127e-15
-4.28466e-08
-7.01059e-08
-1.16506e-15
-4.37007e-08
-6.30686e-08
-1.0865e-15
-4.43957e-08
-5.50428e-08
-1.00519e-15
-4.49178e-08
-4.59967e-08
-9.17829e-16
-4.52533e-08
-3.59106e-08
-8.34677e-16
-4.53871e-08
-2.47724e-08
-7.51192e-16
-4.53047e-08
-1.25826e-08
-6.59622e-16
6.33489e-10
-5.40324e-16
1.63946e-11
-7.40177e-09
7.89781e-15
8.30081e-13
-2.32029e-08
4.20678e-15
-6.5859e-10
-3.15153e-08
1.83361e-15
1.03199e-09
-3.18328e-08
-3.02941e-14
7.56156e-09
-5.90321e-08
-2.2261e-15
1.22912e-08
-9.9328e-08
-4.50887e-15
1.34464e-08
-1.3239e-07
-1.48477e-14
1.04309e-08
-1.4083e-07
-2.08448e-14
6.0167e-09
-1.33134e-07
-5.4981e-14
1.58507e-09
-1.06652e-07
-5.76835e-14
-1.62678e-09
-6.51843e-08
-2.336e-14
-2.43251e-09
-4.38688e-08
-7.54614e-15
-4.18798e-09
-5.21562e-08
-5.93721e-15
-6.38551e-09
-6.04022e-08
-3.03956e-15
-8.76761e-09
-6.78241e-08
-3.2928e-15
-1.11926e-08
-7.41208e-08
-3.45933e-15
-1.35686e-08
-7.91392e-08
-3.44925e-15
-1.58568e-08
-8.30301e-08
-3.23458e-15
-1.80558e-08
-8.60563e-08
-2.92723e-15
-2.01785e-08
-8.84485e-08
-2.81039e-15
-2.22404e-08
-9.03668e-08
-2.61978e-15
-2.42518e-08
-9.19005e-08
-2.41753e-15
-2.62176e-08
-9.30593e-08
-2.27461e-15
-2.81376e-08
-9.38397e-08
-2.11816e-15
-3.00075e-08
-9.4191e-08
-2.00277e-15
-3.18211e-08
-9.40668e-08
-1.83984e-15
-3.35702e-08
-9.34088e-08
-1.69731e-15
-3.52461e-08
-9.21494e-08
-1.5425e-15
-3.68394e-08
-9.02479e-08
-1.34156e-15
-3.834e-08
-8.76313e-08
-9.64213e-16
-3.97375e-08
-8.42567e-08
-1.3955e-15
-4.10215e-08
-8.00726e-08
-1.28658e-15
-4.21806e-08
-7.5029e-08
-1.23003e-15
-4.32031e-08
-6.90834e-08
-1.16546e-15
-4.40766e-08
-6.21953e-08
-1.08881e-15
-4.47878e-08
-5.43316e-08
-1.00929e-15
-4.53231e-08
-4.54611e-08
-9.23695e-16
-4.56687e-08
-3.5565e-08
-8.4158e-16
-4.58093e-08
-2.46315e-08
-7.58687e-16
-4.57307e-08
-1.26615e-08
-6.66549e-16
3.19681e-10
-5.44974e-16
1.58689e-11
-7.41761e-09
7.89993e-15
4.49622e-12
-2.31916e-08
-3.10604e-15
-5.16808e-10
-3.0994e-08
-6.84239e-15
1.98953e-09
-3.43391e-08
-2.12619e-14
7.8715e-09
-6.49141e-08
4.82083e-15
1.13396e-08
-1.02796e-07
2.36205e-15
1.1888e-08
-1.32938e-07
3.12424e-15
8.81569e-09
-1.37758e-07
-1.97663e-14
4.7507e-09
-1.29069e-07
-5.22166e-14
1.00609e-09
-1.02907e-07
-5.07632e-14
-1.71245e-09
-6.24658e-08
-3.11157e-14
-2.56125e-09
-4.302e-08
-6.06055e-15
-4.22683e-09
-5.04906e-08
-4.573e-15
-6.31653e-09
-5.83125e-08
-2.79031e-15
-8.61798e-09
-6.55226e-08
-2.97624e-15
-1.09964e-08
-7.17424e-08
-3.13251e-15
-1.33563e-08
-7.67793e-08
-3.30719e-15
-1.56508e-08
-8.07356e-08
-3.08472e-15
-1.78697e-08
-8.38374e-08
-2.82951e-15
-2.002e-08
-8.62982e-08
-2.74442e-15
-2.21134e-08
-8.82735e-08
-2.58174e-15
-2.41586e-08
-8.98553e-08
-2.39613e-15
-2.61596e-08
-9.10583e-08
-2.26451e-15
-2.81157e-08
-9.18836e-08
-2.11357e-15
-3.00224e-08
-9.22843e-08
-1.99326e-15
-3.18729e-08
-9.22163e-08
-1.83097e-15
-3.36587e-08
-9.16229e-08
-1.68555e-15
-3.53705e-08
-9.04376e-08
-1.53022e-15
-3.69985e-08
-8.86199e-08
-1.33158e-15
-3.85323e-08
-8.60976e-08
-9.61386e-16
-3.9961e-08
-8.28278e-08
-1.39579e-15
-4.12739e-08
-7.87596e-08
-1.28528e-15
-4.24595e-08
-7.38435e-08
-1.2285e-15
-4.35057e-08
-6.80372e-08
-1.1653e-15
-4.44002e-08
-6.13009e-08
-1.09057e-15
-4.51295e-08
-5.36022e-08
-1.01295e-15
-4.56799e-08
-4.49106e-08
-9.29105e-16
-4.60375e-08
-3.52074e-08
-8.48134e-16
-4.61872e-08
-2.44817e-08
-7.65787e-16
-4.61145e-08
-1.27345e-08
-6.73127e-16
8.71093e-12
-5.49423e-16
1.55188e-11
-7.43312e-09
5.67572e-15
2.93611e-12
-2.3179e-08
4.52221e-15
-2.37468e-10
-3.07536e-08
-3.27974e-15
3.03371e-09
-3.76103e-08
-1.75979e-14
7.94249e-09
-6.98229e-08
5.81071e-15
1.04061e-08
-1.0526e-07
-2.43009e-15
1.05522e-08
-1.33084e-07
-2.06591e-16
7.49889e-09
-1.34705e-07
-1.07891e-14
3.78341e-09
-1.25353e-07
-5.2094e-14
6.61038e-10
-9.97851e-08
-4.40645e-14
-1.73148e-09
-6.00733e-08
-4.43117e-14
-2.67392e-09
-4.20775e-08
-6.47093e-15
-4.27403e-09
-4.88905e-08
-3.76915e-15
-6.2661e-09
-5.63204e-08
-2.59676e-15
-8.48633e-09
-6.33024e-08
-2.81254e-15
-1.08114e-08
-6.94173e-08
-2.96995e-15
-1.31462e-08
-7.44446e-08
-3.21031e-15
-1.54379e-08
-7.84439e-08
-2.95966e-15
-1.76687e-08
-8.16066e-08
-2.70251e-15
-1.98397e-08
-8.41271e-08
-2.61948e-15
-2.19588e-08
-8.61544e-08
-2.47169e-15
-2.40328e-08
-8.77813e-08
-2.29916e-15
-2.60645e-08
-8.90265e-08
-2.18248e-15
-2.80529e-08
-8.98953e-08
-2.04773e-15
-2.99929e-08
-9.03442e-08
-1.93867e-15
-3.18774e-08
-9.03318e-08
-1.78645e-15
-3.36975e-08
-8.98027e-08
-1.64797e-15
-3.54436e-08
-8.86917e-08
-1.49977e-15
-3.71051e-08
-8.69584e-08
-1.30953e-15
-3.86714e-08
-8.45314e-08
-9.55997e-16
-4.0131e-08
-8.1368e-08
-1.41058e-15
-4.14731e-08
-7.74175e-08
-1.28802e-15
-4.26857e-08
-7.26309e-08
-1.22769e-15
-4.37566e-08
-6.69663e-08
-1.16509e-15
-4.46733e-08
-6.03845e-08
-1.0922e-15
-4.54221e-08
-5.28534e-08
-1.01651e-15
-4.59892e-08
-4.43433e-08
-9.34376e-16
-4.63606e-08
-3.4836e-08
-8.54611e-16
-4.65212e-08
-2.43209e-08
-7.72691e-16
-4.64565e-08
-1.27995e-08
-6.79515e-16
-2.9734e-10
-5.53808e-16
1.47801e-11
-7.4479e-09
3.91273e-15
-1.01697e-11
-2.3154e-08
1.61095e-15
2.01964e-11
-3.0784e-08
-7.46049e-15
3.71727e-09
-4.13074e-08
4.87294e-15
7.60705e-09
-7.37127e-08
4.29745e-15
9.39708e-09
-1.0705e-07
9.90214e-15
9.31786e-09
-1.33005e-07
-1.01424e-15
6.34578e-09
-1.31732e-07
-9.27811e-15
2.98446e-09
-1.21992e-07
-5.42121e-14
4.06e-10
-9.72066e-08
-3.74444e-14
-1.76856e-09
-5.78988e-08
-5.43483e-14
-2.7867e-09
-4.10594e-08
-7.83809e-15
-4.33256e-09
-4.73446e-08
-2.77958e-15
-6.23735e-09
-5.44157e-08
-2.36852e-15
-8.37812e-09
-6.11616e-08
-2.52377e-15
-1.06455e-08
-6.71499e-08
-2.64221e-15
-1.29476e-08
-7.21425e-08
-3.05584e-15
-1.5228e-08
-7.61634e-08
-2.82159e-15
-1.74628e-08
-7.93718e-08
-2.6248e-15
-1.96475e-08
-8.19424e-08
-2.57847e-15
-2.17862e-08
-8.40158e-08
-2.46275e-15
-2.38833e-08
-8.5684e-08
-2.30303e-15
-2.59409e-08
-8.6969e-08
-2.19067e-15
-2.7957e-08
-8.78791e-08
-2.05526e-15
-2.99264e-08
-8.83748e-08
-1.94083e-15
-3.18415e-08
-8.84167e-08
-1.78089e-15
-3.36931e-08
-8.79511e-08
-1.63498e-15
-3.54709e-08
-8.69139e-08
-1.48334e-15
-3.71641e-08
-8.52652e-08
-1.29584e-15
-3.87615e-08
-8.29341e-08
-9.65882e-16
-4.02513e-08
-7.9878e-08
-1.46813e-15
-4.16222e-08
-7.60466e-08
-1.30299e-15
-4.28619e-08
-7.13911e-08
-1.23084e-15
-4.3958e-08
-6.58703e-08
-1.16629e-15
-4.48976e-08
-5.9445e-08
-1.09447e-15
-4.56669e-08
-5.20841e-08
-1.02037e-15
-4.6252e-08
-4.37579e-08
-9.39745e-16
-4.66389e-08
-3.44492e-08
-8.61032e-16
-4.6812e-08
-2.41476e-08
-7.79518e-16
-4.67571e-08
-1.28548e-08
-6.8583e-16
-5.96557e-10
-5.58252e-16
1.32785e-11
-7.4612e-09
1.66361e-15
-3.27577e-11
-2.3108e-08
6.30298e-15
1.6488e-10
-3.09817e-08
-4.41703e-15
3.81244e-09
-4.4955e-08
5.72436e-15
6.7953e-09
-7.66956e-08
7.49576e-15
8.23238e-09
-1.08487e-07
3.74441e-15
8.07229e-09
-1.32845e-07
-4.37734e-16
5.25003e-09
-1.2891e-07
-9.89099e-15
2.25946e-09
-1.19001e-07
-4.85629e-14
1.48302e-10
-9.50955e-08
-3.51316e-14
-1.86044e-09
-5.589e-08
-4.46058e-14
-2.91079e-09
-4.0009e-08
-7.13621e-15
-4.40576e-09
-4.58496e-08
-2.65833e-15
-6.23204e-09
-5.25894e-08
-2.18456e-15
-8.29664e-09
-5.9097e-08
-2.41701e-15
-1.0504e-08
-6.49426e-08
-2.43574e-15
-1.27676e-08
-6.98789e-08
-2.9172e-15
-1.50294e-08
-7.39016e-08
-2.70099e-15
-1.72605e-08
-7.71406e-08
-2.48742e-15
-1.94519e-08
-7.97511e-08
-2.44496e-15
-2.16037e-08
-8.18641e-08
-2.34999e-15
-2.37183e-08
-8.35694e-08
-2.20529e-15
-2.57964e-08
-8.48909e-08
-2.10863e-15
-2.78354e-08
-8.58401e-08
-1.98829e-15
-2.98298e-08
-8.63805e-08
-1.87713e-15
-3.17716e-08
-8.64749e-08
-1.73616e-15
-3.36511e-08
-8.60715e-08
-1.59781e-15
-3.54577e-08
-8.51073e-08
-1.45252e-15
-3.71803e-08
-8.35427e-08
-1.27544e-15
-3.8807e-08
-8.13075e-08
-9.78829e-16
-4.03256e-08
-7.83592e-08
-1.54257e-15
-4.17245e-08
-7.46477e-08
-1.32586e-15
-4.2991e-08
-7.01247e-08
-1.23752e-15
-4.41122e-08
-6.4749e-08
-1.16917e-15
-4.50751e-08
-5.84823e-08
-1.09779e-15