/*--------------------------------*- C++ -*----------------------------------*\
| =========                 |                                                 |
| \\      /  F ield         | OpenFOAM: The Open Source CFD Toolbox           |
|  \\    /   O peration     | Version:  v2012                                 |
|   \\  /    A nd           | Website:  www.openfoam.com                      |
|    \\/     M anipulation  |                                                 |
\*---------------------------------------------------------------------------*/
FoamFile
{
    version     2.0;
    format      ascii;
    class       volScalarField;
    location    "0.7";
    object      alpha.water;
}
// * * * * * * * * * * * * * * * * * * * * * * * * * * * * * * * * * * * * * //

dimensions      [0 0 0 0 0 0 0];


internalField   nonuniform List<scalar> 
2625
(
-2.53411e-69
-3.52489e-69
-1.50288e-69
-7.06618e-70
-1.30917e-70
-2.13481e-71
-3.06015e-72
-4.64419e-73
-5.92658e-74
-6.2001e-75
-5.45136e-76
-4.37766e-77
-3.33224e-78
-2.24594e-79
-1.39576e-80
-8.19154e-82
-6.33772e-83
-9.33171e-80
-1.03342e-75
-1.82236e-71
-4.74494e-67
-1.65558e-62
-1.64151e-57
-5.77428e-55
-1.12851e-54
-1.07216e-54
-6.54602e-55
-2.8692e-55
-9.56707e-56
-2.51124e-56
-5.3048e-57
-9.15604e-58
-1.30522e-58
-1.54855e-59
-1.53745e-60
-1.28214e-61
-1.61311e-68
-2.13027e-68
-8.8236e-69
-3.9994e-69
-7.43367e-70
-1.1858e-70
-1.6811e-71
-2.49742e-72
-3.11185e-73
-3.15359e-74
-2.78828e-75
-2.2344e-76
-1.68699e-77
-1.1188e-78
-6.88705e-80
-4.00146e-81
-2.67024e-82
-2.43399e-79
-2.89941e-75
-5.75708e-71
-1.68137e-66
-6.30696e-62
-7.53671e-57
-2.58791e-54
-5.18285e-54
-5.0501e-54
-3.1644e-54
-1.42433e-54
-4.87963e-55
-1.31641e-55
-2.8586e-56
-5.07275e-57
-7.43604e-58
-9.07352e-59
-9.26594e-60
-7.94846e-61
-9.77932e-68
-1.2228e-67
-4.92226e-68
-2.20485e-68
-3.97624e-69
-6.12737e-70
-8.49733e-71
-1.3033e-71
-1.56948e-72
-1.54371e-73
-1.32573e-74
-1.07819e-75
-8.0499e-77
-5.25068e-78
-3.19899e-79
-1.84136e-80
-1.12151e-81
-6.05625e-79
-7.59122e-75
-1.73037e-70
-5.63453e-66
-2.2927e-61
-3.31437e-56
-1.11661e-53
-2.29344e-53
-2.29383e-53
-1.47642e-53
-6.83053e-54
-2.40653e-54
-6.67862e-55
-1.49215e-55
-2.72482e-56
-4.11103e-57
-5.16394e-58
-5.42948e-59
-4.79572e-60
-5.67405e-67
-6.76007e-67
-2.64005e-67
-1.11205e-67
-2.03204e-68
-3.13089e-69
-4.17844e-70
-6.37626e-71
-7.56658e-72
-7.24221e-73
-6.12825e-74
-4.90099e-75
-3.64549e-76
-2.34229e-77
-1.41313e-78
-8.02524e-80
-4.63021e-81
-1.54981e-78
-2.36093e-74
-5.9734e-70
-1.89863e-65
-8.11794e-61
-1.39382e-55
-4.63266e-53
-9.76767e-53
-1.00374e-52
-6.64249e-53
-3.1616e-53
-1.14659e-53
-3.27628e-54
-7.53771e-55
-1.41761e-55
-2.20315e-56
-2.8513e-57
-3.08938e-58
-2.81239e-59
-3.1558e-66
-3.57373e-66
-1.3524e-66
-5.51594e-67
-9.82758e-68
-1.45597e-68
-1.96968e-69
-2.97084e-70
-3.44005e-71
-3.22414e-72
-2.68342e-73
-2.10769e-74
-1.54256e-75
-9.77209e-77
-5.83083e-78
-3.27168e-79
-1.82407e-80
-4.10138e-78
-7.31507e-74
-2.06152e-69
-7.04331e-65
-3.33699e-60
-5.59771e-55
-1.84626e-52
-3.99973e-52
-4.22681e-52
-2.87866e-52
-1.41092e-52
-5.27193e-53
-1.55238e-53
-3.68079e-54
-7.13491e-55
-1.14311e-55
-1.52548e-56
-1.70472e-57
-1.60084e-58
-1.67594e-65
-1.79937e-65
-6.65072e-66
-2.58044e-66
-4.52781e-67
-6.79333e-68
-8.80665e-69
-1.29183e-69
-1.49677e-70
-1.36809e-71
-1.11564e-72
-8.55048e-74
-6.14399e-75
-3.83086e-76
-2.25481e-77
-1.24573e-78
-6.77371e-80
-1.163e-77
-2.36596e-73
-6.72193e-69
-2.50692e-64
-1.43189e-59
-2.14302e-54
-7.05831e-52
-1.57272e-51
-1.71086e-51
-1.20028e-51
-6.06381e-52
-2.33663e-52
-7.09656e-53
-1.73546e-53
-3.46986e-54
-5.73514e-55
-7.89778e-56
-9.10991e-57
-8.8321e-58
-8.45602e-65
-8.72295e-65
-3.06433e-65
-1.11965e-65
-1.98513e-66
-2.80582e-67
-3.67039e-68
-5.32779e-69
-6.13856e-70
-5.43136e-71
-4.30404e-72
-3.24596e-73
-2.27655e-74
-1.39036e-75
-8.05907e-77
-4.36787e-78
-2.31498e-79
-2.64578e-77
-5.73052e-73
-1.74585e-68
-7.21472e-64
-4.74085e-59
-7.80637e-54
-2.58486e-51
-5.93008e-51
-6.64742e-51
-4.80895e-51
-2.50667e-51
-9.97108e-52
-3.12611e-52
-7.89083e-53
-1.62845e-53
-2.77867e-54
-3.95143e-55
-4.70818e-56
-4.71632e-57
-4.06418e-64
-3.99667e-64
-1.36035e-64
-4.7318e-65
-8.23152e-66
-1.15086e-66
-1.47723e-67
-2.03958e-68
-2.32517e-69
-2.01809e-70
-1.56332e-71
-1.14718e-72
-7.81872e-74
-4.67627e-75
-2.65087e-76
-1.40132e-77
-7.19405e-79
-3.89452e-77
-8.90606e-73
-2.82473e-68
-1.24982e-63
-9.64782e-59
-2.6998e-53
-9.05269e-51
-2.1408e-50
-2.4756e-50
-1.84875e-50
-9.95333e-51
-4.09125e-51
-1.32527e-51
-3.45536e-52
-7.36526e-53
-1.29828e-53
-1.90782e-54
-2.34986e-55
-2.43404e-56
-1.8353e-63
-1.75556e-63
-5.75643e-64
-1.93421e-64
-3.25476e-65
-4.4247e-66
-5.54303e-67
-7.44701e-68
-8.23444e-69
-6.96284e-70
-5.23038e-71
-3.72747e-72
-2.45108e-73
-1.42475e-74
-7.85034e-76
-4.02407e-77
-1.98452e-78
-3.41094e-77
-8.53806e-73
-2.95926e-68
-1.35985e-63
-1.03865e-58
-8.84398e-53
-3.02637e-50
-7.38658e-50
-8.82238e-50
-6.80913e-50
-3.79065e-50
-1.61182e-50
-5.39924e-51
-1.45515e-51
-3.20571e-52
-5.8411e-53
-8.87575e-54
-1.1309e-54
-1.21221e-55
-7.83589e-63
-7.1289e-63
-2.24376e-63
-7.44494e-64
-1.20885e-64
-1.61563e-65
-1.97746e-66
-2.53496e-67
-2.71644e-68
-2.21904e-69
-1.607e-70
-1.10546e-71
-6.93871e-73
-3.88486e-74
-2.05276e-75
-1.00478e-76
-4.67626e-78
-2.17084e-77
-6.31563e-73
-2.7809e-68
-2.04283e-63
-2.60237e-58
-2.73653e-52
-9.63717e-50
-2.43113e-49
-3.00309e-49
-2.39849e-49
-1.38238e-49
-6.08773e-50
-2.11073e-50
-5.88428e-51
-1.3406e-51
-2.52655e-52
-3.97249e-53
-5.23965e-54
-5.81638e-55
-3.06829e-62
-2.67245e-62
-8.03974e-63
-2.59606e-63
-4.30467e-64
-5.5146e-65
-6.77278e-66
-7.95098e-67
-8.30963e-68
-6.52944e-69
-4.52557e-70
-2.91617e-71
-1.72415e-72
-9.17909e-74
-4.53145e-75
-2.02743e-76
-8.59604e-78
-1.20021e-77
-4.73361e-73
-3.8546e-68
-3.27562e-63
-6.42721e-58
-7.97365e-52
-2.9162e-49
-7.61565e-49
-9.74384e-49
-8.06462e-49
-4.81866e-49
-2.20059e-49
-7.90452e-50
-2.28095e-50
-5.37736e-51
-1.04886e-51
-1.7075e-52
-2.33311e-53
-2.68423e-54
-1.13967e-61
-9.35307e-62
-2.67745e-62
-8.31533e-63
-1.32075e-63
-1.6573e-64
-1.95241e-65
-2.27401e-66
-2.25186e-67
-1.67379e-68
-1.09111e-69
-6.59266e-71
-3.59483e-72
-1.73043e-73
-7.53429e-75
-2.67135e-76
-9.28928e-78
-6.61616e-78
-4.75381e-73
-4.70171e-68
-4.71935e-63
-1.52767e-57
-2.18011e-51
-8.36209e-49
-2.26482e-48
-3.00648e-48
-2.58281e-48
-1.60232e-48
-7.5991e-49
-2.83048e-49
-8.45975e-50
-2.06492e-50
-4.17094e-51
-7.03529e-52
-9.96589e-53
-1.1893e-53
-3.99308e-61
-3.11174e-61
-8.3982e-62
-2.46272e-62
-3.92457e-63
-4.60695e-64
-5.34685e-65
-5.87154e-66
-5.48468e-67
-3.73804e-68
-2.26337e-69
-1.21222e-70
-5.64656e-72
-2.08321e-73
-5.27274e-75
-8.93188e-99
1.78443e-79
9.36075e-80
-3.64885e-73
-4.91193e-68
-6.13265e-63
-3.38444e-57
-5.57015e-51
-2.26478e-48
-6.37547e-48
-8.79812e-48
-7.85965e-48
-5.07134e-48
-2.5017e-48
-9.67137e-49
-2.99564e-49
-7.5747e-50
-1.58545e-50
-2.77281e-51
-4.07537e-52
-5.04909e-53
-1.28961e-60
-9.58088e-61
-2.40871e-61
-6.75836e-62
-1.04085e-62
-1.12961e-63
-1.2012e-64
-1.34642e-65
-1.10837e-66
-6.82837e-68
-3.60347e-69
-1.44439e-70
-2.7864e-72
-4.06876e-96
1.23215e-75
3.19604e-75
2.40275e-75
1.25391e-75
1.22047e-76
-4.10464e-68
-7.43981e-63
-6.76659e-57
-1.32327e-50
-5.7711e-48
-1.69293e-47
-2.43432e-47
-2.26623e-47
-1.52388e-47
-7.83363e-48
-3.14581e-48
-1.01029e-48
-2.64778e-49
-5.74669e-50
-1.04293e-50
-1.59189e-51
-2.04953e-52
-3.88852e-60
-2.55244e-60
-6.32837e-61
-1.66405e-61
-2.30917e-62
-2.63432e-63
-2.45265e-64
-2.46271e-65
-1.70301e-66
-8.13039e-68
-2.66321e-69
1.06938e-92
1.46532e-72
8.53314e-72
1.42975e-71
1.45376e-71
1.08409e-71
5.70065e-72
1.76551e-72
-2.05018e-68
-9.03437e-63
-1.18256e-56
-2.90471e-50
-1.377e-47
-4.22291e-47
-6.34495e-47
-6.17138e-47
-4.3349e-47
-2.32712e-47
-9.71395e-48
-3.23569e-48
-8.79404e-49
-1.98066e-49
-3.73365e-50
-5.9246e-51
-7.93567e-52
-1.07348e-59
-6.30431e-60
-1.53181e-60
-3.69654e-61
-4.81745e-62
-4.67075e-63
-3.8376e-64
-3.05954e-65
-1.56983e-66
1.49119e-85
4.02637e-70
5.16046e-69
1.67395e-68
3.79349e-68
6.34516e-68
6.46676e-68
4.84388e-68
2.561e-68
8.59084e-69
3.26686e-70
-1.05071e-62
-1.74034e-56
-5.84235e-50
-3.0578e-47
-9.8444e-47
-1.551e-46
-1.5811e-46
-1.16342e-46
-6.539e-47
-2.83823e-47
-9.80664e-48
-2.76544e-48
-6.46965e-49
-1.26824e-49
-2.09489e-50
-2.92313e-51
-2.76589e-59
-1.35628e-59
-3.3605e-60
-7.29439e-61
-8.69165e-62
-6.70005e-63
-4.01662e-64
-4.75562e-88
9.61228e-69
7.50095e-67
4.59018e-66
2.23842e-65
7.25749e-65
1.65187e-64
2.77752e-64
2.84285e-64
2.14081e-64
1.13877e-64
3.8473e-65
6.77754e-66
-4.68975e-63
-2.03759e-56
-1.06384e-49
-6.26863e-47
-2.1306e-46
-3.53605e-46
-3.79309e-46
-2.93413e-46
-1.73194e-46
-7.81456e-47
-2.80014e-47
-8.19827e-48
-1.99471e-48
-4.07262e-49
-7.01416e-50
-1.02126e-50
-6.13322e-59
-2.39479e-59
-6.16275e-60
-1.16129e-60
-1.1328e-61
-5.33315e-63
4.88637e-81
3.55621e-65
5.10457e-64
3.26335e-63
1.99521e-62
9.69293e-62
3.13141e-61
7.11794e-61
1.20042e-60
1.23489e-60
9.33641e-61
4.99477e-61
1.70019e-61
3.35032e-62
3.12192e-65
-1.65758e-56
-1.72007e-49
-1.17283e-46
-4.24285e-46
-7.46457e-46
-8.47045e-46
-6.91937e-46
-4.30607e-46
-2.01675e-46
-7.48905e-47
-2.27849e-47
-5.776e-48
-1.23089e-48
-2.21519e-49
-3.37249e-50
-1.14748e-58
-2.8336e-59
-7.3542e-60
-1.24157e-60
1.49122e-84
2.28816e-64
1.37813e-62
2.20858e-61
2.13326e-60
1.34792e-59
8.26262e-59
4.02929e-58
1.31747e-57
3.01323e-57
5.11752e-57
5.30644e-57
4.03748e-57
2.17489e-57
7.45191e-58
1.48247e-58
1.04815e-59
-3.13636e-58
-2.38129e-49
-1.96736e-46
-7.67392e-46
-1.44457e-45
-1.74702e-45
-1.51629e-45
-9.99882e-46
-4.84287e-46
-1.86124e-46
-5.89292e-47
-1.56074e-47
-3.48228e-48
-6.568e-49
-1.04841e-49
-1.66372e-58
-1.61279e-59
-5.28966e-60
3.38805e-82
1.19326e-61
4.10379e-60
5.77073e-59
9.27193e-58
8.92622e-57
5.60848e-56
3.44518e-55
1.67906e-54
5.51454e-54
1.26578e-53
2.16136e-53
2.25515e-53
1.72368e-53
9.34761e-54
3.22719e-54
6.49429e-55
5.57527e-56
1.58024e-59
-2.59219e-49
-2.86682e-46
-1.23459e-45
-2.52496e-45
-3.29157e-45
-3.06209e-45
-2.15437e-45
-1.07032e-45
-4.24881e-46
-1.40381e-46
-3.90201e-47
-9.15758e-48
-1.81786e-48
-3.05356e-49
-1.7203e-58
1.20437e-59
3.7376e-64
1.94149e-59
7.4646e-58
1.69202e-56
2.38085e-55
3.76115e-54
3.62465e-53
2.32224e-52
1.42409e-51
6.88723e-51
2.26187e-50
5.22228e-50
8.97384e-50
9.42217e-50
7.24066e-50
3.95681e-50
1.37758e-50
2.80828e-51
2.48975e-52
1.86467e-54
-1.63685e-49
-3.38151e-46
-1.6996e-45
-3.88885e-45
-5.57123e-45
-5.63177e-45
-4.27006e-45
-2.13836e-45
-8.74758e-46
-3.03394e-46
-8.9202e-47
-2.21819e-47
-4.66309e-48
-8.28451e-49
-1.30082e-80
8.83429e-57
1.77396e-57
7.92149e-56
2.99977e-54
6.76587e-53
9.55759e-52
1.46987e-50
1.42365e-49
9.47624e-49
5.80899e-48
2.84149e-47
9.48784e-47
2.19493e-46
3.77643e-46
3.98213e-46
3.07285e-46
1.69113e-46
5.93386e-47
1.21777e-47
1.08853e-48
2.21789e-50
3.32438e-54
-2.5607e-46
-1.82984e-45
-5.0281e-45
-8.22959e-45
-9.26218e-45
-7.6897e-45
-3.73182e-45
-1.57275e-45
-5.80687e-46
-1.83259e-46
-4.88721e-47
-1.09831e-47
-2.07878e-48
7.31185e-61
1.56407e-54
7.12983e-54
3.1677e-52
1.20981e-50
2.7285e-49
3.87459e-48
5.9784e-47
5.86185e-46
3.78956e-45
2.26788e-44
1.10532e-43
3.65119e-43
8.45338e-43
1.46935e-42
1.56546e-42
1.2209e-42
6.79257e-43
2.41979e-43
5.06764e-44
4.61352e-45
9.17612e-47
1.30418e-49
-1.40842e-63
-1.10388e-45
-4.75118e-45
-9.96886e-45
-1.31844e-44
-1.23399e-44
-5.24855e-45
-2.30397e-45
-9.42198e-46
-3.29094e-46
-9.6154e-47
-2.34531e-47
-4.78031e-48
3.50878e-57
3.9403e-51
2.76725e-50
1.25119e-48
4.74925e-47
1.07543e-45
1.5156e-44
2.27902e-43
2.23896e-42
1.45601e-41
9.06232e-41
4.357e-40
1.44336e-39
3.37759e-39
5.91103e-39
6.33603e-39
4.98622e-39
2.80546e-39
1.0076e-39
2.13859e-40
2.06918e-41
5.12209e-43
6.3238e-46
7.13855e-48
0
0
-8.0591e-45
-1.50962e-44
-1.70354e-44
-4.46185e-45
-2.20974e-45
-1.17551e-45
-4.90909e-46
-1.6395e-46
-4.45675e-47
-9.9506e-48
1.6442e-53
1.58997e-47
1.08652e-46
4.9184e-45
1.81674e-43
4.08773e-42
5.66546e-41
8.7782e-40
8.52588e-39
5.93925e-38
3.89039e-37
1.86971e-36
6.169e-36
1.45352e-35
2.54239e-35
2.72293e-35
2.16442e-35
1.23326e-35
4.48484e-36
9.68721e-37
9.84949e-38
2.11519e-39
3.05624e-42
3.62527e-44
5.61649e-46
3.59861e-48
8.39481e-71
-1.09231e-44
-1.86751e-44
3.96261e-45
1.08919e-46
-8.08591e-46
-5.38959e-46
-2.28465e-46
-7.30918e-47
-1.84149e-47
7.97214e-50
6.48688e-44
3.96439e-43
1.87249e-41
6.86532e-40
1.54577e-38
2.38607e-37
3.62472e-36
3.47906e-35
2.15192e-34
1.31438e-33
6.71481e-33
2.35403e-32
5.8251e-32
1.07055e-31
1.19376e-31
9.61652e-32
5.47532e-32
1.9994e-32
4.35664e-33
4.55441e-34
1.53767e-35
1.69786e-38
1.81074e-40
2.86918e-42
1.88358e-44
6.20224e-47
3.35792e-70
-1.25013e-44
3.2451e-43
5.91831e-44
5.82641e-46
-2.0643e-46
-2.17938e-46
-9.71966e-47
-2.94155e-47
3.35309e-46
1.04105e-39
1.74673e-39
6.86299e-38
2.79717e-36
6.16472e-35
8.16946e-34
1.28802e-32
1.39179e-31
1.16069e-30
1.09425e-29
8.6699e-29
4.03998e-28
1.19301e-27
2.42952e-27
2.81289e-27
2.23233e-27
1.20334e-27
3.93715e-28
7.27858e-29
6.65e-30
3.77674e-31
1.17772e-32
1.00954e-36
1.44188e-38
9.70669e-41
3.28589e-43
4.36303e-46
-1.28194e-54
2.25802e-42
2.94558e-42
2.78722e-43
1.90925e-45
1.04731e-48
-8.57774e-47
-3.82143e-47
2.62894e-42
4.32671e-36
7.46459e-36
2.64785e-34
9.6196e-33
2.47078e-31
5.36562e-30
1.75724e-28
3.00108e-27
2.85978e-26
1.89504e-25
8.58594e-25
2.59966e-24
5.59386e-24
9.25863e-24
1.01768e-23
8.65328e-24
5.56154e-24
2.50499e-24
7.43588e-25
1.29068e-25
1.19762e-26
5.37922e-28
6.25606e-30
8.56514e-33
4.92435e-37
1.71483e-39
2.34864e-42
1.43863e-45
4.22012e-42
2.29151e-41
1.13174e-41
8.50493e-43
5.41564e-45
1.89745e-48
-3.36558e-47
3.16233e-36
1.32427e-33
2.00108e-32
1.22737e-30
1.1377e-28
5.41196e-27
1.11995e-25
1.49126e-24
1.12283e-23
5.46786e-23
1.86869e-22
4.7718e-22
9.54228e-22
1.52967e-21
2.08362e-21
2.1783e-21
1.9633e-21
1.47711e-21
8.89997e-22
4.12442e-22
1.37362e-22
2.91727e-23
3.20566e-24
1.29539e-25
1.64731e-27
2.90975e-30
8.81491e-36
1.24622e-38
7.90212e-42
4.2236e-42
4.56171e-41
8.83791e-41
3.10905e-41
1.49135e-42
2.01567e-45
1.3997e-32
5.54617e-31
2.62056e-28
2.96406e-26
1.13499e-24
1.78126e-23
1.43919e-22
7.23612e-22
2.55025e-21
6.82778e-21
1.4584e-20
2.5808e-20
3.90411e-20
5.14643e-20
6.13604e-20
6.22238e-20
5.81774e-20
4.86121e-20
3.54507e-20
2.19698e-20
1.10505e-20
4.16943e-21
1.03825e-21
1.39162e-22
7.20175e-24
7.98505e-26
1.58469e-28
6.51784e-35
4.28208e-38
2.17103e-41
4.24097e-41
1.82785e-40
1.84043e-40
3.88277e-41
1.50068e-28
1.46891e-26
2.34835e-24
6.38583e-23
6.53598e-22
3.64464e-21
1.33197e-20
3.57498e-20
7.5975e-20
1.34908e-19
2.0744e-19
2.84021e-19
3.54221e-19
4.08197e-19
4.43699e-19
4.42189e-19
4.22204e-19
3.78171e-19
3.13779e-19
2.37154e-19
1.58506e-19
8.89881e-20
3.85149e-20
1.11756e-20
1.73692e-21
1.01269e-22
1.24472e-24
1.89304e-27
1.15282e-31
9.72586e-38
7.01509e-41
1.71241e-40
3.22566e-40
1.77967e-40
1.69784e-24
5.1691e-23
1.17511e-21
8.7942e-21
3.624e-20
1.00969e-19
2.13348e-19
3.7061e-19
5.5729e-19
7.52057e-19
9.33554e-19
1.08606e-18
1.20111e-18
1.27442e-18
1.30841e-18
1.29247e-18
1.24488e-18
1.1601e-18
1.03908e-18
8.86077e-19
7.07428e-19
5.13224e-19
3.21097e-19
1.5832e-19
5.27371e-20
9.16568e-21
5.51394e-22
6.37629e-24
7.70563e-27
1.39251e-30
1.50407e-37
2.02588e-40
2.66105e-40
2.76609e-40
1.06295e-21
2.10785e-18
1.9606e-18
1.77902e-18
1.56187e-18
1.30703e-18
1.0142e-18
6.93618e-19
3.80655e-19
1.41007e-19
2.59674e-20
1.46602e-21
1.37009e-23
1.51218e-26
4.1249e-30
1.09852e-37
2.89824e-40
2.76613e-40
2.79122e-18
2.60039e-18
2.38288e-18
2.1339e-18
1.84409e-18
1.50033e-18
1.09399e-18
6.47264e-19
2.54562e-19
4.60298e-20
2.172e-21
1.45345e-23
1.44664e-26
4.78413e-30
2.3261e-35
2.92365e-40
3.29146e-18
3.06073e-18
2.81352e-18
2.54459e-18
2.24099e-18
1.87886e-18
1.42686e-18
8.78852e-19
3.46045e-19
5.56175e-20
1.91559e-21
8.40117e-24
7.75072e-27
3.59741e-30
5.51562e-34
3.9439e-18
3.67021e-18
3.39086e-18
3.10746e-18
2.8163e-18
2.5029e-18
2.13407e-18
1.65362e-18
1.02109e-18
3.7399e-19
4.71585e-20
1.02735e-21
2.86389e-24
2.54833e-27
1.46568e-30
4.66436e-18
4.31973e-18
3.97371e-18
3.63323e-18
3.30354e-18
2.98364e-18
2.65782e-18
2.28161e-18
1.76819e-18
1.04598e-18
3.23822e-19
2.75925e-20
3.33889e-22
6.22892e-25
5.5199e-28
5.52173e-18
5.0863e-18
4.64919e-18
4.21965e-18
3.80812e-18
3.42442e-18
3.07125e-18
2.73058e-18
2.33933e-18
1.76961e-18
9.41914e-19
2.17056e-19
1.05943e-20
6.57266e-23
9.25763e-26
6.54565e-18
6.00345e-18
5.45927e-18
4.92261e-18
4.40446e-18
3.91818e-18
3.4786e-18
3.09333e-18
2.73794e-18
2.31533e-18
1.64818e-18
7.19052e-19
1.04855e-19
2.49846e-21
8.12508e-24
7.75793e-18
7.08819e-18
6.41849e-18
5.75909e-18
5.12072e-18
4.51517e-18
3.95745e-18
3.46762e-18
3.05918e-18
2.68839e-18
2.2018e-18
1.38716e-18
4.32305e-19
3.30643e-20
3.42743e-22
9.1947e-18
8.36779e-18
7.54575e-18
6.74006e-18
5.96261e-18
5.22508e-18
4.53891e-18
3.91907e-18
3.39351e-18
2.97733e-18
2.57894e-18
1.9712e-18
9.90959e-19
1.83294e-19
6.08627e-21
1.09087e-17
9.88418e-18
8.87328e-18
7.88895e-18
6.94382e-18
6.05099e-18
5.22251e-18
4.4674e-18
3.80079e-18
3.26532e-18
2.85291e-18
2.38726e-18
1.58533e-18
5.40899e-19
4.77227e-20
1.29691e-17
1.16933e-17
1.04442e-17
9.23843e-18
8.08917e-18
7.00889e-18
6.01101e-18
5.10647e-18
4.29818e-18
3.61083e-18
3.09914e-18
2.67621e-18
2.06517e-18
1.04794e-18
-1.40408e-66
-2.56666e-66
-8.74893e-67
-2.01323e-67
-3.78871e-68
-5.99928e-69
-8.43444e-70
-1.07027e-70
-1.26247e-71
-1.35892e-72
-1.32559e-73
-1.1936e-74
-1.00853e-75
-7.92163e-77
-5.81107e-78
-4.01204e-79
-2.61437e-80
-4.67595e-80
-4.93607e-76
-8.65375e-72
-2.24477e-67
-7.7433e-63
-7.38553e-58
-3.18441e-55
-6.21816e-55
-5.90423e-55
-3.60442e-55
-1.58039e-55
-5.27328e-56
-1.38547e-56
-2.92991e-57
-5.06323e-58
-7.22737e-59
-8.5869e-60
-8.53789e-61
-7.1309e-62
-8.91412e-66
-1.54442e-65
-5.07809e-66
-1.139e-66
-2.104e-67
-3.278e-68
-4.53814e-69
-5.68722e-70
-6.61874e-71
-7.0369e-72
-6.7974e-73
-6.06768e-74
-5.08465e-75
-3.95755e-76
-2.87874e-77
-1.97128e-78
-1.27403e-79
-1.25341e-79
-1.38247e-75
-2.73015e-71
-7.94286e-67
-2.94049e-62
-3.36906e-57
-1.42477e-54
-2.85113e-54
-2.77656e-54
-1.73966e-54
-7.83324e-55
-2.68552e-55
-7.25189e-56
-1.57651e-56
-2.80109e-57
-4.11157e-58
-5.02413e-59
-5.13833e-60
-4.41452e-61
-5.42073e-65
-8.90421e-65
-2.82304e-65
-6.16705e-66
-1.11537e-66
-1.70837e-67
-2.32856e-68
-2.88707e-69
-3.30817e-70
-3.47456e-71
-3.31435e-72
-2.93162e-73
-2.43496e-74
-1.87495e-75
-1.35059e-76
-9.16334e-78
-5.86946e-79
-3.27519e-79
-3.61591e-75
-8.19367e-71
-2.65706e-66
-1.06392e-61
-1.47124e-56
-6.13663e-54
-1.2595e-53
-1.25906e-53
-8.10354e-54
-3.75052e-54
-1.32237e-54
-3.67348e-55
-8.21671e-56
-1.50234e-56
-2.2697e-57
-2.8551e-58
-3.00645e-59
-2.65967e-60
-3.15524e-64
-4.9149e-64
-1.50412e-64
-3.20361e-65
-5.67763e-66
-8.55317e-67
-1.14585e-67
-1.4002e-68
-1.5833e-69
-1.64103e-70
-1.54651e-71
-1.35212e-72
-1.10973e-73
-8.44872e-75
-6.02277e-76
-4.04399e-77
-2.56395e-78
-8.97661e-79
-1.1193e-74
-2.82032e-70
-8.92024e-66
-3.73875e-61
-6.14021e-56
-2.54128e-53
-5.35469e-53
-5.49988e-53
-3.63966e-53
-1.73311e-53
-6.29028e-54
-1.79922e-54
-4.14425e-55
-7.80393e-56
-1.21449e-56
-1.57405e-57
-1.70809e-58
-1.55741e-59
-1.75341e-63
-2.59088e-63
-7.65397e-64
-1.58793e-64
-2.75417e-65
-4.07454e-66
-5.36683e-67
-6.46627e-68
-7.20225e-69
-7.35257e-70
-6.83444e-71
-5.89768e-72
-4.77576e-73
-3.58926e-74
-2.52793e-75
-1.6771e-76
-1.0509e-77
-2.58001e-78
-3.45249e-74
-9.67143e-70
-3.27206e-65
-1.50876e-60
-2.44559e-55
-1.01081e-52
-2.18862e-52
-2.31187e-52
-1.57455e-52
-7.72105e-53
-2.88741e-53
-8.51126e-54
-2.02045e-54
-3.92149e-55
-6.29139e-56
-8.40808e-57
-9.4105e-58
-8.85126e-59
-9.29496e-63
-1.30289e-62
-3.7186e-63
-7.51702e-64
-1.27576e-64
-1.85498e-65
-2.39842e-66
-2.83702e-67
-3.11891e-68
-3.13398e-69
-2.86697e-70
-2.43574e-71
-1.94199e-72
-1.43789e-73
-9.98156e-75
-6.52773e-76
-4.03316e-77
-7.84511e-78
-1.10405e-73
-3.11547e-69
-1.14552e-64
-6.35452e-60
-9.278e-55
-3.85645e-52
-8.58908e-52
-9.33997e-52
-6.55315e-52
-3.31242e-52
-1.27755e-52
-3.88429e-53
-9.5104e-54
-1.90395e-54
-3.15127e-55
-4.34595e-56
-5.02077e-57
-4.87558e-58
-4.68861e-62
-6.23352e-62
-1.71858e-62
-3.38119e-63
-5.61383e-64
-7.98908e-65
-1.01569e-65
-1.17772e-66
-1.27506e-67
-1.25621e-68
-1.12959e-69
-9.44007e-71
-7.38953e-72
-5.37599e-73
-3.66837e-74
-2.3584e-75
-1.43275e-76
-2.05955e-77
-2.64784e-73
-7.99445e-69
-3.24872e-64
-2.0725e-59
-3.34606e-54
-1.40923e-51
-3.23195e-51
-3.62178e-51
-2.62049e-51
-1.36675e-51
-5.44191e-52
-1.70809e-52
-4.31676e-53
-8.92015e-54
-1.52418e-54
-2.17067e-55
-2.59046e-56
-2.59923e-57
-2.2472e-61
-2.83429e-61
-7.5507e-62
-1.44512e-62
-2.34716e-63
-3.26895e-64
-4.07334e-65
-4.628e-66
-4.91508e-67
-4.74579e-68
-4.1859e-69
-3.42836e-70
-2.62557e-71
-1.86989e-72
-1.24893e-73
-7.85882e-75
-4.67276e-76
-4.45078e-77
-4.12187e-73
-1.29753e-68
-5.64311e-64
-4.18814e-59
-1.14451e-53
-4.92408e-51
-1.16423e-50
-1.34599e-50
-1.00539e-50
-5.41646e-51
-2.22872e-51
-7.22801e-52
-1.8869e-52
-4.02725e-53
-7.1087e-54
-1.04618e-54
-1.29063e-55
-1.33911e-56
-1.02084e-60
-1.22127e-60
-3.14189e-61
-5.84644e-62
-9.26999e-63
-1.26113e-63
-1.53736e-64
-1.7112e-65
-1.77331e-66
-1.67321e-67
-1.44146e-68
-1.15257e-69
-8.5947e-71
-5.96515e-72
-3.87908e-73
-2.37532e-74
-1.37374e-75
-9.13586e-77
-4.00939e-73
-1.38653e-68
-6.3393e-64
-4.60031e-59
-3.70348e-53
-1.64212e-50
-4.00782e-50
-4.78614e-50
-3.69505e-50
-2.05861e-50
-8.76331e-51
-2.93917e-51
-7.93135e-52
-1.74957e-52
-3.19231e-53
-4.85809e-54
-6.19986e-55
-6.65696e-56
-4.38687e-60
-4.97578e-60
-1.23581e-60
-2.23357e-61
-3.44962e-62
-4.57926e-63
-5.45181e-64
-5.92124e-65
-5.97813e-66
-5.48815e-67
-4.59784e-68
-3.57017e-69
-2.57421e-70
-1.72876e-71
-1.08493e-72
-6.40041e-74
-3.56173e-75
-1.97765e-76
-2.96738e-73
-1.30367e-68
-9.59476e-64
-1.13072e-58
-1.13038e-52
-5.2155e-50
-1.31586e-49
-1.62535e-49
-1.29864e-49
-7.49121e-50
-3.30307e-50
-1.14673e-50
-3.20095e-51
-7.30219e-52
-1.37811e-52
-2.17006e-53
-2.86694e-54
-3.18804e-55
-1.77863e-59
-1.91072e-59
-4.57847e-60
-8.02305e-61
-1.20803e-61
-1.55558e-62
-1.79992e-63
-1.89682e-64
-1.86087e-65
-1.65165e-66
-1.33487e-67
-9.97653e-69
-6.88923e-70
-4.42478e-71
-2.64407e-72
-1.47706e-73
-7.76799e-75
-3.89695e-76
-2.21218e-73
-1.80232e-68
-1.53589e-63
-2.74148e-58
-3.24362e-52
-1.57377e-49
-4.11118e-49
-5.26041e-49
-4.35605e-49
-2.60534e-49
-1.19142e-49
-4.28543e-50
-1.23822e-50
-2.92293e-51
-5.7091e-52
-9.30829e-53
-1.27397e-53
-1.46831e-54
-6.78488e-59
-6.89148e-59
-1.59113e-59
-2.699e-60
-3.92684e-61
-4.89787e-62
-5.50357e-63
-5.59771e-64
-5.29386e-65
-4.50995e-66
-3.48421e-67
-2.47677e-68
-1.61441e-69
-9.69398e-71
-5.35496e-72
-2.718e-73
-1.29691e-74
-5.49841e-76
-2.19176e-73
-2.19083e-68
-2.20388e-63
-6.41524e-58
-8.71724e-52
-4.499e-49
-1.21917e-48
-1.61874e-48
-1.39152e-48
-8.64241e-49
-4.10488e-49
-1.53115e-49
-4.58225e-50
-1.11992e-50
-2.26527e-51
-3.82677e-52
-5.42995e-53
-6.49173e-54
-2.42679e-58
-2.32377e-58
-5.15999e-59
-8.44402e-60
-1.1874e-60
-1.42394e-61
-1.53489e-62
-1.49559e-63
-1.35013e-64
-1.08792e-65
-7.90131e-67
-5.21046e-68
-3.09299e-69
-1.6553e-70
-7.5833e-72
-3.1386e-73
-1.11997e-74
4.13896e-102
-1.60753e-73
-2.27556e-68
-2.82994e-63
-1.40353e-57
-2.1845e-51
-1.21447e-48
-3.42144e-48
-4.72333e-48
-4.22284e-48
-2.72826e-48
-1.34811e-48
-5.21935e-49
-1.61875e-49
-4.09837e-50
-8.59013e-51
-1.50467e-51
-2.21531e-52
-2.74976e-53
-8.10731e-58
-7.28268e-58
-1.55237e-58
-2.44138e-59
-3.28901e-60
-3.76857e-61
-3.87681e-62
-3.57034e-63
-3.00568e-64
-2.25591e-65
-1.48299e-66
-8.5993e-68
-4.06595e-69
-1.70103e-70
9.45988e-96
9.08397e-76
8.97045e-76
9.82933e-76
1.22237e-76
-1.87381e-68
-3.31397e-63
-2.77594e-57
-5.07744e-51
-3.08343e-48
-9.0547e-48
-1.30275e-47
-1.21398e-47
-8.17538e-48
-4.2105e-48
-1.69337e-48
-5.44518e-49
-1.42888e-49
-3.10554e-50
-5.645e-51
-8.6316e-52
-1.11347e-52
-2.518e-57
-2.10494e-57
-4.30153e-58
-6.4635e-59
-8.24993e-60
-8.96031e-61
-8.61171e-62
-7.29476e-63
-5.53259e-64
-3.63854e-65
-1.90896e-66
-8.31606e-68
-1.50685e-92
3.28012e-72
9.91043e-72
1.45152e-71
1.08422e-71
5.70139e-72
1.76575e-72
-8.28717e-69
-3.70015e-63
-4.79673e-57
-1.08742e-50
-7.32731e-48
-2.25022e-47
-3.38381e-47
-3.29517e-47
-2.31861e-47
-1.24735e-47
-5.21439e-48
-1.73897e-48
-4.73206e-49
-1.0673e-49
-2.01523e-50
-3.20372e-51
-4.29996e-52
-7.22614e-57
-5.54058e-57
-1.08233e-57
-1.53968e-58
-1.83933e-59
-1.84649e-60
-1.627e-61
-1.1997e-62
-7.5329e-64
-3.60174e-65
-5.96513e-85
1.93264e-69
1.52522e-68
3.79217e-68
6.3457e-68
6.4677e-68
4.84448e-68
2.56141e-68
8.59217e-69
3.29015e-70
-3.65557e-63
-6.9525e-57
-2.12724e-50
-1.61966e-47
-5.22368e-47
-8.23974e-47
-8.412e-47
-6.20238e-47
-3.49445e-47
-1.51882e-47
-5.25346e-48
-1.48326e-48
-3.47514e-49
-6.82415e-50
-1.12943e-50
-1.57938e-51
-1.90013e-56
-1.30478e-56
-2.43365e-57
-3.22902e-58
-3.52213e-59
-3.15322e-60
-2.376e-61
-1.27371e-62
-2.27427e-64
-3.20379e-87
4.06705e-66
2.23726e-65
7.25696e-65
1.65188e-64
2.77772e-64
2.84328e-64
2.14105e-64
1.13893e-64
3.84778e-65
7.06968e-66
5.32538e-69
-7.93044e-57
-3.75366e-50
-3.30272e-47
-1.12509e-46
-1.87038e-46
-2.00999e-46
-1.55856e-46
-9.22529e-47
-4.16706e-47
-1.49447e-47
-4.3808e-48
-1.06757e-48
-2.18379e-49
-3.76915e-50
-5.5007e-51
-4.52232e-56
-2.6735e-56
-4.74824e-57
-5.70718e-58
-5.39296e-59
-3.83351e-60
-2.01056e-61
7.82889e-85
1.8723e-64
3.25639e-63
1.99455e-62
9.69106e-62
3.13113e-61
7.11797e-61
1.20053e-60
1.23508e-60
9.33769e-61
4.99571e-61
1.70049e-61
3.35163e-62
1.30805e-63
-6.02479e-57
-5.85397e-50
-6.13985e-47
-2.22763e-46
-3.92856e-46
-4.46817e-46
-3.66058e-46
-2.28541e-46
-1.07095e-46
-3.97922e-47
-1.21217e-47
-3.07835e-48
-6.5742e-49
-1.18597e-49
-1.81021e-50
-9.54487e-56
-4.55048e-56
-7.63402e-57
-7.79141e-58
-5.27744e-59
6.71048e-83
2.4063e-63
2.20846e-61
2.13475e-60
1.34748e-59
8.26088e-59
4.02901e-58
1.3174e-57
3.01333e-57
5.11809e-57
5.30719e-57
4.03794e-57
2.17523e-57
7.45304e-58
1.48261e-58
1.22624e-59
3.00884e-63
-7.75969e-50
-1.02158e-46
-4.00019e-46
-7.55729e-46
-9.16683e-46
-7.98474e-46
-5.28548e-46
-2.55849e-46
-9.83468e-47
-3.11824e-47
-8.27666e-48
-1.8514e-48
-3.50169e-49
-5.60582e-50
-1.72103e-55
-5.88557e-56
-9.01314e-57
-6.2508e-58
-1.60116e-76
1.95456e-60
5.76797e-59
9.2704e-58
8.93142e-57
5.60687e-56
3.44451e-55
1.67886e-54
5.514e-54
1.2658e-53
2.16157e-53
2.25544e-53
1.7239e-53
9.34914e-54
3.22773e-54
6.495e-55
5.62474e-56
3.99057e-58
-7.94433e-50
-1.47161e-46
-6.37365e-46
-1.31106e-45
-1.71611e-45
-1.60382e-45
-1.13362e-45
-5.61599e-46
-2.22866e-46
-7.37778e-47
-2.0567e-47
-4.84256e-48
-9.64529e-49
-1.62567e-49
-2.4364e-55
-4.53693e-56
-4.55029e-57
4.19744e-62
7.47683e-58
1.6914e-56
2.37971e-55
3.76041e-54
3.62437e-53
2.32158e-52
1.42382e-51
6.88671e-51
2.26175e-50
5.22245e-50
8.97483e-50
9.42355e-50
7.24168e-50
3.95744e-50
1.37781e-50
2.80864e-51
2.48993e-52
1.86624e-54
-3.97172e-50
-1.70275e-46
-8.64788e-46
-1.99865e-45
-2.88106e-45
-2.93059e-45
-2.2349e-45
-1.1108e-45
-4.54089e-46
-1.58009e-46
-4.66582e-47
-1.16537e-47
-2.46029e-48
-4.38881e-49
-2.08053e-55
4.0489e-61
5.61828e-58
7.92212e-56
2.99847e-54
6.76677e-53
9.55648e-52
1.46949e-50
1.42367e-49
9.47273e-49
5.80751e-48
2.84121e-47
9.48618e-47
2.19479e-46
3.77648e-46
3.98241e-46
3.07315e-46
1.69135e-46
5.93483e-47
1.21794e-47
1.08862e-48
2.21752e-50
3.32152e-54
-1.23839e-46
-9.06393e-46
-2.54064e-45
-4.20714e-45
-4.77964e-45
-3.99864e-45
-1.90626e-45
-8.02964e-46
-2.98537e-46
-9.48946e-47
-2.54691e-47
-5.75613e-48
-1.095e-48
1.69632e-58
8.04434e-55
7.09977e-54
3.16588e-52
1.20995e-50
2.72686e-49
3.8737e-48
5.97474e-47
5.86021e-46
3.7885e-45
2.2674e-44
1.10522e-43
3.65108e-43
8.45403e-43
1.46959e-42
1.56577e-42
1.22112e-42
6.7939e-43
2.42028e-43
5.06838e-44
4.61401e-45
9.17559e-47
1.30411e-49
-1.04935e-71
-4.77629e-46
-2.28672e-45
-4.99543e-45
-6.72292e-45
-6.36291e-45
-2.58992e-45
-1.13989e-45
-4.74628e-46
-1.68029e-46
-4.95883e-47
-1.21915e-47
-2.50129e-48
9.45978e-54
3.13459e-51
2.76577e-50
1.2506e-48
4.74926e-47
1.0754e-45
1.51564e-44
2.27785e-43
2.23804e-42
1.45573e-41
9.06025e-41
4.35674e-40
1.44327e-39
3.37779e-39
5.91183e-39
6.33703e-39
4.98713e-39
2.80596e-39
1.0078e-39
2.13894e-40
2.06941e-41
5.12211e-43
6.32341e-46
7.13897e-48
-1.80277e-61
-7.04208e-64
-3.85412e-45
-7.54308e-45
-8.67778e-45
-1.86095e-45
-1.01419e-45
-5.70332e-46
-2.45246e-46
-8.33391e-47
-2.29283e-47
-5.16506e-48
3.6402e-50
1.28397e-47
1.08603e-46
4.91767e-45
1.81652e-43
4.08696e-42
5.66517e-41
8.77511e-40
8.52036e-39
5.93872e-38
3.88968e-37
1.86963e-36
6.1691e-36
1.4536e-35
2.54276e-35
2.72345e-35
2.16477e-35
1.23349e-35
4.48574e-36
9.68858e-37
9.85051e-38
2.11517e-39
3.05615e-42
3.62548e-44
5.61705e-46
3.59935e-48
-1.12673e-62
-5.222e-45
-9.3188e-45
4.86083e-45
1.50123e-46
-3.45237e-46
-2.56449e-46
-1.13441e-46
-3.70728e-47
-9.46353e-48
1.69913e-46
5.16912e-44
3.96144e-43
1.87209e-41
6.86445e-40
1.54554e-38
2.38556e-37
3.62347e-36
3.47682e-35
2.15229e-34
1.31445e-33
6.71534e-33
2.35431e-32
5.82543e-32
1.07072e-31
1.19399e-31
9.61814e-32
5.47638e-32
1.99979e-32
4.35732e-33
4.55498e-34
1.53782e-35
1.69784e-38
1.81085e-40
2.86946e-42
1.88396e-44
6.20426e-47
-9.01386e-62
-5.92313e-45
3.33537e-43
6.14198e-44
6.06736e-46
-2.21692e-47
-1.02232e-46
-4.81498e-47
-1.4913e-47
5.35132e-43
7.60694e-40
1.7447e-39
6.85787e-38
2.79734e-36
6.16368e-35
8.1699e-34
1.28747e-32
1.39102e-31
1.1606e-30
1.09408e-29
8.66903e-29
4.0398e-28
1.19307e-27
2.42985e-27
2.81342e-27
2.23277e-27
1.20357e-27
3.93793e-28
7.27973e-29
6.6508e-30
3.77701e-31
1.1778e-32
1.00962e-36
1.44202e-38
9.70867e-41
3.28695e-43
4.36502e-46
-9.21329e-55
2.27143e-42
2.95793e-42
2.80936e-43
1.94116e-45
1.09269e-48
-4.02371e-47
-1.89387e-47
3.44119e-39
3.59302e-36
7.45849e-36
2.64679e-34
9.61983e-33
2.46977e-31
5.36505e-30
1.75695e-28
3.00059e-27
2.85923e-26
1.89474e-25
8.58516e-25
2.59953e-24
5.59401e-24
9.25945e-24
1.01782e-23
8.65447e-24
5.56232e-24
2.50534e-24
7.43675e-25
1.2908e-25
1.1977e-26
5.37948e-28
6.25653e-30
8.56825e-33
4.92535e-37
1.71539e-39
2.34971e-42
1.43954e-45
4.23415e-42
2.29817e-41
1.13596e-41
8.5652e-43
5.54042e-45
2.03724e-48
-1.57938e-47
1.00025e-34
1.26168e-33
2.00099e-32
1.22697e-30
1.1377e-28
5.41139e-27
1.11988e-25
1.49107e-24
1.1227e-23
5.46719e-23
1.8685e-22
4.77153e-22
9.54205e-22