/*--------------------------------*- C++ -*----------------------------------*\
| =========                 |                                                 |
| \\      /  F ield         | OpenFOAM: The Open Source CFD Toolbox           |
|  \\    /   O peration     | Version:  v2012                                 |
|   \\  /    A nd           | Website:  www.openfoam.com                      |
|    \\/     M anipulation  |                                                 |
\*---------------------------------------------------------------------------*/
FoamFile
{
    version     2.0;
    format      ascii;
    class       surfaceScalarField;
    location    "0.7";
    object      phi;
}
// * * * * * * * * * * * * * * * * * * * * * * * * * * * * * * * * * * * * * //

dimensions      [0 3 -1 0 0 0 0];
oriented        oriented;


internalField   nonuniform List<scalar> 
6403
(
6.67431e-15
-6.63215e-13
-3.49582e-17
2.87424e-14
-2.11768e-12
1.89975e-16
5.99709e-14
-3.7726e-12
-2.98528e-16
9.90968e-14
-5.58616e-12
5.23269e-17
1.88176e-13
-7.67306e-12
-2.43199e-16
2.39898e-13
-9.84542e-12
4.117e-16
3.55696e-13
-1.2376e-11
-5.65856e-16
4.4154e-13
-1.50376e-11
-4.54245e-16
5.65872e-13
-1.80066e-11
1.93382e-16
7.66571e-13
-2.12537e-11
6.48103e-16
1.03643e-12
-2.47691e-11
-3.10249e-16
1.34709e-12
-2.85564e-11
-4.74103e-16
1.71504e-12
-3.26805e-11
-1.03503e-16
2.11147e-12
-3.70968e-11
5.85595e-17
2.55307e-12
-4.18575e-11
-1.92883e-16
3.03315e-12
-4.69572e-11
-1.55136e-16
3.56089e-12
-5.24413e-11
-1.00837e-16
4.13924e-12
-5.82659e-11
-1.71186e-16
4.77089e-12
-6.45003e-11
-1.92376e-16
5.45924e-12
-7.10985e-11
-1.72715e-16
6.20304e-12
-7.80989e-11
-1.20714e-16
7.00496e-12
-8.54895e-11
-1.95395e-16
7.86279e-12
-9.32648e-11
-1.205e-16
8.77574e-12
-1.01428e-10
-1.48218e-16
9.74087e-12
-1.09958e-10
-9.82227e-17
1.07554e-11
-1.18846e-10
-9.1015e-17
1.18151e-11
-1.2807e-10
-5.96461e-17
1.29148e-11
-1.3759e-10
-5.38968e-17
1.40479e-11
-1.47394e-10
-3.70614e-17
1.52068e-11
-1.57415e-10
-3.09996e-17
1.63819e-11
-1.67618e-10
-2.59007e-17
1.75627e-11
-1.77945e-10
-3.08524e-17
1.87366e-11
-1.88327e-10
-2.53649e-17
1.98894e-11
-1.98692e-10
-8.6493e-18
2.10057e-11
-2.08958e-10
7.91994e-18
-2.19045e-10
1.44034e-17
7.68434e-15
-6.70363e-13
-2.02388e-16
2.88484e-14
-2.14051e-12
5.46682e-16
7.68576e-14
-3.82098e-12
8.07863e-16
1.39269e-13
-5.6453e-12
-1.39073e-15
2.28815e-13
-7.76438e-12
5.94881e-16
3.55184e-13
-9.97063e-12
-4.33388e-16
5.42857e-13
-1.25641e-11
-1.18807e-17
7.30807e-13
-1.52261e-11
5.07398e-16
9.80815e-13
-1.82551e-11
-5.36402e-16
1.19508e-12
-2.14708e-11
1.05112e-15
1.44729e-12
-2.50185e-11
-1.26305e-15
1.72196e-12
-2.88302e-11
-4.15984e-16
2.04391e-12
-3.30032e-11
2.59239e-16
2.38563e-12
-3.74381e-11
-1.20847e-16
2.79436e-12
-4.2266e-11
-1.48297e-17
3.25172e-12
-4.74148e-11
-2.45919e-17
3.76458e-12
-5.29541e-11
-1.53445e-16
4.33449e-12
-5.88357e-11
-1.11697e-16
4.95894e-12
-6.51245e-11
-7.97782e-17
5.64341e-12
-7.17827e-11
-7.52434e-17
6.38497e-12
-7.88399e-11
-2.85008e-16
7.18351e-12
-8.62879e-11
-1.43552e-16
8.03847e-12
-9.41194e-11
-2.07499e-16
8.94898e-12
-1.02338e-10
-1.39381e-16
9.91267e-12
-1.10922e-10
-1.55145e-16
1.09264e-11
-1.1986e-10
-9.70103e-17
1.19857e-11
-1.29129e-10
-9.77682e-17
1.30851e-11
-1.38689e-10
-6.78091e-17
1.42179e-11
-1.48527e-10
-6.49739e-17
1.5376e-11
-1.58573e-10
-4.7344e-17
1.65498e-11
-1.68791e-10
-4.71224e-17
1.77286e-11
-1.79124e-10
-4.56032e-17
1.88998e-11
-1.89498e-10
-3.8594e-17
2.00496e-11
-1.99841e-10
-1.39686e-17
2.11625e-11
-2.10071e-10
1.03791e-17
-2.20104e-10
1.73967e-17
7.22236e-15
-6.77235e-13
-1.72222e-16
3.1911e-14
-2.16435e-12
-3.76006e-16
6.4791e-14
-3.85221e-12
-1.17926e-15
1.2988e-13
-5.71749e-12
1.1677e-15
1.94444e-13
-7.82791e-12
1.26613e-15
2.95146e-13
-1.0068e-11
-1.68268e-15
3.87849e-13
-1.26605e-11
1.42068e-15
5.16352e-13
-1.53506e-11
-1.13385e-15
7.17948e-13
-1.84563e-11
1.04569e-15
9.36241e-13
-2.16885e-11
-1.2024e-15
1.22939e-12
-2.53125e-11
3.63251e-16
1.52564e-12
-2.913e-11
7.28229e-16
1.89825e-12
-3.33764e-11
6.24253e-16
2.30511e-12
-3.78429e-11
-9.39861e-16
2.75773e-12
-4.2719e-11
6.25131e-16
3.25237e-12
-4.79091e-11
-9.40788e-17
3.79372e-12
-5.34955e-11
2.3732e-16
4.3892e-12
-5.94304e-11
-1.49019e-16
5.0354e-12
-6.57704e-11
2.44466e-17
5.73703e-12
-7.24845e-11
3.41085e-17
6.49277e-12
-7.95961e-11
1.45645e-16
7.30696e-12
-8.71021e-11
-3.86064e-17
8.17825e-12
-9.49909e-11
1.59453e-17
9.10442e-12
-1.03264e-10
-5.7597e-17
1.00829e-11
-1.119e-10
-3.1532e-17
1.11107e-11
-1.20888e-10
-5.93024e-17
1.21834e-11
-1.30202e-10
-4.45354e-17
1.32953e-11
-1.39801e-10
-5.26702e-17
1.44396e-11
-1.49671e-10
-4.31295e-17
1.5608e-11
-1.59741e-10
-3.89906e-17
1.67908e-11
-1.69975e-10
-3.21102e-17
1.79769e-11
-1.8031e-10
-2.81948e-17
1.91538e-11
-1.90675e-10
-1.86864e-17
2.03075e-11
-2.00995e-10
-1.53738e-18
2.14229e-11
-2.11186e-10
2.01666e-17
-2.21164e-10
2.51786e-17
8.83722e-15
-6.85918e-13
-6.38451e-17
4.05046e-14
-2.19535e-12
-2.61172e-16
9.18881e-14
-3.90144e-12
-1.01522e-15
1.69531e-13
-5.8019e-12
1.3743e-15
2.62431e-13
-7.92015e-12
1.66447e-15
4.34895e-13
-1.02351e-11
-2.15188e-15
6.12028e-13
-1.28407e-11
1.13988e-15
8.14254e-13
-1.55512e-11
-2.75495e-16
1.06828e-12
-1.87104e-11
7.636e-16
1.24787e-12
-2.18677e-11
1.15836e-17
1.56004e-12
-2.56216e-11
-1.07046e-15
1.8252e-12
-2.93994e-11
1.32866e-15
2.1572e-12
-3.3707e-11
-3.41798e-16
2.5334e-12
-3.82182e-11
-3.8913e-16
2.96227e-12
-4.31481e-11
3.62739e-16
3.44635e-12
-4.83934e-11
1.81074e-16
3.98452e-12
-5.40333e-11
-2.89317e-17
4.57966e-12
-6.00258e-11
8.61941e-17
5.2303e-12
-6.6421e-11
-9.65559e-17
5.94105e-12
-7.31953e-11
2.89242e-17
6.70855e-12
-8.03636e-11
-1.05072e-16
7.53319e-12
-8.79271e-11
6.75073e-17
8.41485e-12
-9.58728e-11
-1.25219e-17
9.35237e-12
-1.04202e-10
6.47642e-18
1.03434e-11
-1.12892e-10
-3.36493e-17
1.13842e-11
-1.21929e-10
-1.6904e-17
1.24702e-11
-1.31289e-10
-2.92697e-17
1.35954e-11
-1.40927e-10
-2.43873e-17
1.47526e-11
-1.50829e-10
-2.96043e-17
1.59332e-11
-1.60922e-10
-2.35787e-17
1.71271e-11
-1.71169e-10
-2.35788e-17
1.83229e-11
-1.81506e-10
-1.92892e-17
1.9508e-11
-1.9186e-10
-1.3006e-17
2.06678e-11
-2.02155e-10
3.97314e-18
2.17871e-11
-2.12305e-10
2.39136e-17
-2.22226e-10
3.24844e-17
7.65848e-15
-6.93542e-13
-5.13195e-17
3.20576e-14
-2.21933e-12
-1.83628e-16
6.13617e-14
-3.92921e-12
-9.43403e-16
1.20601e-13
-5.86657e-12
6.29532e-16
1.67499e-13
-7.96504e-12
1.34516e-15
2.58915e-13
-1.03246e-11
-1.20018e-15
3.79424e-13
-1.29625e-11
4.12871e-16
4.44833e-13
-1.5613e-11
-1.42153e-15
7.43295e-13
-1.90116e-11
1.30273e-15
8.8893e-13
-2.20105e-11
-7.88323e-16
1.26531e-12
-2.59964e-11
2.9951e-16
1.5963e-12
-2.97325e-11
1.93138e-16
2.01469e-12
-3.41259e-11
4.75069e-16
2.46879e-12
-3.86697e-11
-1.3506e-15
2.95689e-12
-4.3638e-11
1.07741e-15
3.49186e-12
-4.89279e-11
-3.7018e-16
4.06878e-12
-5.46108e-11
3.54142e-16
4.69999e-12
-6.0657e-11
-2.3896e-16
5.3808e-12
-6.7102e-11
3.84527e-17
6.11913e-12
-7.39333e-11
-1.12461e-16
6.91189e-12
-8.11566e-11
6.29673e-17
7.76243e-12
-8.87779e-11
1.82803e-18
8.66895e-12
-9.67797e-11
3.8397e-17
9.63067e-12
-1.05164e-10
-2.64891e-17
1.06449e-11
-1.13906e-10
-1.23168e-17
1.17084e-11
-1.22993e-10
-2.96644e-17
1.28162e-11
-1.32397e-10
-1.81396e-17
1.39622e-11
-1.42073e-10
-2.61955e-17
1.51391e-11
-1.52006e-10
-2.14094e-17
1.6338e-11
-1.62121e-10
-2.06253e-17
1.75484e-11
-1.7238e-10
-1.56232e-17
1.87588e-11
-1.82717e-10
-1.12639e-17
1.99559e-11
-1.93057e-10
-2.97851e-18
2.11252e-11
-2.03324e-10
1.04096e-17
2.22508e-11
-2.13431e-10
2.78171e-17
-2.23291e-10
3.86293e-17
9.15691e-15
-7.02643e-13
-5.38609e-17
4.34454e-14
-2.25336e-12
-7.41853e-17
9.71425e-14
-3.98114e-12
-7.96536e-16
1.8672e-13
-5.96391e-12
1.5006e-15
2.95391e-13
-8.07189e-12
2.73673e-15
4.69314e-13
-1.04894e-11
-1.80541e-15
6.68228e-13
-1.31596e-11
2.07406e-15
8.71652e-13
-1.57985e-11
-3.16048e-15
1.16946e-12
-1.93073e-11
1.74592e-15
1.35986e-12
-2.22011e-11
1.65139e-16
1.7211e-12
-2.63554e-11
-1.05923e-15
1.97475e-12
-2.99905e-11
1.56824e-15
2.33018e-12
-3.44806e-11
-2.77222e-16
2.72803e-12
-3.90668e-11
-4.77787e-16
3.18628e-12
-4.40961e-11
1.24141e-16
3.70368e-12
-4.94464e-11
2.947e-16
4.27792e-12
-5.51846e-11
-1.89008e-16
4.91461e-12
-6.12945e-11
1.32914e-16
5.60747e-12
-6.77949e-11
-1.73391e-16
6.3627e-12
-7.46886e-11
-3.32602e-17
7.17647e-12
-8.19704e-11
-7.77893e-17
8.04934e-12
-8.96512e-11
8.75008e-17
8.97991e-12
-9.77105e-11
-9.29175e-18
9.96659e-12
-1.06151e-10
-1.51042e-17
1.10065e-11
-1.14946e-10
-3.80899e-17
1.20956e-11
-1.24082e-10
-1.92921e-17
1.32289e-11
-1.33531e-10
-2.36084e-17
1.43999e-11
-1.43244e-10
-1.84788e-17
1.56007e-11
-1.53207e-10
-1.82134e-17
1.6822e-11
-1.63343e-10
-1.10707e-17
1.80529e-11
-1.73611e-10
-5.71987e-18
1.92815e-11
-1.83946e-10
2.18022e-18
2.0494e-11
-1.9427e-10
1.03894e-17
2.16754e-11
-2.04506e-10
2.23004e-17
2.28095e-11
-2.14564e-10
3.52935e-17
-2.24359e-10
4.70659e-17
9.02892e-15
-7.11727e-13
4.61903e-18
3.87983e-14
-2.28274e-12
-2.47978e-16
9.86254e-14
-4.04055e-12
-2.5801e-16
1.68141e-13
-6.03247e-12
-2.42085e-16
2.45264e-13
-8.1475e-12
-1.30947e-15
3.40657e-13
-1.05879e-11
-1.68013e-15
4.33727e-13
-1.32524e-11
-3.0144e-15
5.69693e-13
-1.59849e-11
4.34366e-15
7.43044e-13
-1.94673e-11
4.9768e-15
1.07465e-12
-2.25213e-11
-6.14896e-15
1.32844e-12
-2.66115e-11
1.38848e-15
1.76442e-12
-3.04275e-11
-2.79942e-16
2.19171e-12
-3.49101e-11
1.13667e-15
2.68426e-12
-3.95561e-11
-1.36868e-15
3.21216e-12
-4.46262e-11
1.2013e-15
3.79003e-12
-5.00236e-11
-3.1767e-16
4.41126e-12
-5.58065e-11
3.54472e-16
5.0909e-12
-6.19747e-11
-7.91771e-17
5.82003e-12
-6.85247e-11
1.18503e-16
6.6102e-12
-7.54783e-11
-2.24334e-16
7.457e-12
-8.28173e-11
-3.51231e-18
8.36247e-12
-9.05571e-11
2.71721e-17
9.32538e-12
-9.86739e-11
1.60085e-17
1.03445e-11
-1.0717e-10
-4.37949e-17
1.14166e-11
-1.16019e-10
-2.48133e-17
1.25377e-11
-1.25203e-10
-1.8853e-17
1.37023e-11
-1.34695e-10
-2.17078e-18
1.49035e-11
-1.44446e-10
-3.53987e-20
1.61332e-11
-1.54437e-10
6.09227e-18
1.73815e-11
-1.64591e-10
9.30971e-18
1.86372e-11
-1.74867e-10
1.46808e-17
1.98877e-11
-1.85196e-10
1.95117e-17
2.11188e-11
-1.95501e-10
2.69679e-17
2.2315e-11
-2.05702e-10
3.59909e-17
2.34595e-11
-2.15709e-10
4.62746e-17
-2.25434e-10
5.62218e-17
1.04881e-14
-7.2236e-13
-3.06261e-17
4.25634e-14
-2.31439e-12
-4.79166e-17
8.02421e-14
-4.07827e-12
-4.67001e-17
1.51551e-13
-6.10452e-12
2.65296e-16
2.8381e-13
-8.27834e-12
-1.68943e-16
4.5784e-13
-1.07603e-11
-1.97756e-15
6.5277e-13
-1.34453e-11
-1.32208e-15
9.21241e-13
-1.62886e-11
2.814e-15
1.09855e-12
-1.96249e-11
5.08603e-15
1.49262e-12
-2.29058e-11
-5.68618e-15
1.74187e-12
-2.68608e-11
-4.04937e-16
2.11943e-12
-3.08083e-11
1.12904e-15
2.49204e-12
-3.52836e-11
5.1748e-16
2.94868e-12
-4.00111e-11
-6.24899e-16
3.45313e-12
-4.5131e-11
2.27859e-16
4.02182e-12
-5.05929e-11
2.82683e-16
4.64802e-12
-5.64326e-11
-8.10365e-17
5.33897e-12
-6.26666e-11
2.32216e-16
6.09037e-12
-6.92762e-11
-1.32123e-16
6.9055e-12
-7.62934e-11
-1.00304e-16
7.78186e-12
-8.3694e-11
-3.92581e-17
8.7195e-12
-9.14953e-11
7.35172e-17
9.71663e-12
-9.96714e-11
4.70696e-18
1.07709e-11
-1.08225e-10
-1.70615e-17
1.18789e-11
-1.17127e-10
-1.81718e-17
1.3036e-11
-1.2636e-10
2.33041e-18
1.42362e-11
-1.35896e-10
1.3503e-17
1.54721e-11
-1.45681e-10
1.96698e-17
1.6735e-11
-1.557e-10
2.2654e-17
1.80145e-11
-1.65871e-10
2.85484e-17
1.92988e-11
-1.76151e-10
3.23186e-17
2.05746e-11
-1.86472e-10
3.7262e-17
2.18273e-11
-1.96753e-10
4.24354e-17
2.30407e-11
-2.06915e-10
5.00319e-17
2.41975e-11
-2.16865e-10
5.6844e-17
-2.26516e-10
6.48965e-17
8.57623e-15
-7.31255e-13
1.59248e-16
3.74561e-14
-2.34296e-12
-3.98767e-16
8.40474e-14
-4.12641e-12
5.28136e-16
1.8796e-13
-6.20724e-12
-5.14302e-16
2.14687e-13
-8.30369e-12
-2.67001e-16
4.17654e-13
-1.09633e-11
-1.17148e-15
4.95306e-13
-1.35159e-11
-2.93998e-15
7.32693e-13
-1.65623e-11
2.2143e-15
9.48349e-13
-1.98228e-11
5.83212e-15
1.33416e-12
-2.32822e-11
-5.73709e-15
1.62642e-12
-2.71556e-11
1.34703e-15
2.07567e-12
-3.126e-11
3.19514e-16
2.51058e-12
-3.57201e-11
1.10312e-15
3.02314e-12
-4.05216e-11
-1.24498e-15
3.57188e-12
-4.56815e-11
8.31606e-16
4.1841e-12
-5.12053e-11
-1.36363e-16
4.84905e-12
-5.70982e-11
2.13864e-16
5.57692e-12
-6.33948e-11
-1.31828e-16
6.3658e-12
-7.00654e-11
3.69507e-17
7.21815e-12
-7.71451e-11
-1.2645e-16
8.13345e-12
-8.46091e-11
-4.07186e-18
9.11035e-12
-9.24724e-11
7.43298e-17
1.01474e-11
-1.00709e-10
2.57047e-17
1.12422e-11
-1.0932e-10
-2.05143e-17
1.23911e-11
-1.18276e-10
-1.80217e-17
1.35889e-11
-1.27558e-10
3.61325e-18
1.48293e-11
-1.37136e-10
2.37639e-17
1.61042e-11
-1.46956e-10
3.46081e-17
1.74045e-11
-1.57e-10
4.15666e-17
1.87191e-11
-1.67185e-10
4.67615e-17
2.00355e-11
-1.77467e-10
5.01947e-17
2.13399e-11
-1.87776e-10
5.20659e-17
2.26169e-11
-1.9803e-10
5.56936e-17
2.38497e-11
-2.08147e-10
6.03882e-17
2.50204e-11
-2.18035e-10
6.55054e-17
-2.27605e-10
7.11578e-17
1.04305e-14
-7.4283e-13
4.49262e-16
5.19641e-14
-2.38022e-12
-1.49588e-15
1.0812e-13
-4.1812e-12
-2.02727e-15
2.11798e-13
-6.32068e-12
3.59408e-15
3.45744e-13
-8.43134e-12
-1.9355e-15
5.24877e-13
-1.1143e-11
8.75708e-17
6.17842e-13
-1.36024e-11
-1.77398e-15
8.76395e-13
-1.68526e-11
1.12541e-15
1.0483e-12
-1.99765e-11
6.27525e-15
1.44092e-12
-2.36615e-11
-6.21386e-15
1.74155e-12
-2.74573e-11
1.97572e-15
2.17781e-12
-3.16989e-11
4.5523e-16
2.63623e-12
-3.61782e-11
3.74513e-16
3.17074e-12
-4.10551e-11
-6.45111e-16
3.74883e-12
-4.62609e-11
6.11975e-16
4.39079e-12
-5.18473e-11
-2.25752e-17
5.0897e-12
-5.7797e-11
9.10814e-17
5.85104e-12
-6.41567e-11
-5.1912e-17
6.67719e-12
-7.08917e-11
2.33977e-18
7.56659e-12
-7.80342e-11
-1.06084e-16
8.52089e-12
-8.55634e-11
-1.54787e-17
9.53948e-12
-9.34912e-11
5.86727e-17
1.06197e-11
-1.01789e-10
4.12384e-17
1.17589e-11
-1.1046e-10
-6.83273e-19
1.29526e-11
-1.1947e-10
6.89337e-18
1.41954e-11
-1.28801e-10
2.42375e-17
1.54801e-11
-1.38421e-10
4.30734e-17
1.67984e-11
-1.48275e-10
5.01637e-17
1.81401e-11
-1.58342e-10
5.46651e-17
1.94936e-11
-1.68539e-10
5.90081e-17
2.08455e-11
-1.78819e-10
6.0806e-17
2.21815e-11
-1.89112e-10
6.24042e-17
2.34853e-11
-1.99334e-10
6.3498e-17
2.47396e-11
-2.09401e-10
6.72883e-17
2.59257e-11
-2.19221e-10
7.0404e-17
-2.28703e-10
7.56013e-17
1.07227e-14
-7.54509e-13
5.30112e-16
4.37196e-14
-2.41561e-12
1.08976e-15
1.21986e-13
-4.26389e-12
3.31718e-15
1.87689e-13
-6.36848e-12
-3.46754e-15
3.54255e-13
-8.59783e-12
-4.44303e-15
4.98204e-13
-1.12959e-11
3.46486e-15
8.14005e-13
-1.39061e-11
-5.6103e-15
1.0585e-12
-1.71399e-11
5.45269e-15
1.35027e-12
-2.02474e-11
3.69759e-15
1.72994e-12
-2.40281e-11
-4.64651e-15
2.03963e-12
-2.77639e-11
3.60747e-16
2.45925e-12
-3.21159e-11
-8.19112e-16
2.89344e-12
-3.6611e-11
-2.0033e-16
3.41144e-12
-4.15736e-11
2.80467e-16
3.98721e-12
-4.68365e-11
2.558e-16
4.64126e-12
-5.25016e-11
-4.42005e-19
5.36138e-12
-5.85167e-11
-5.25512e-17
6.15165e-12
-6.49475e-11
6.69127e-17
7.01227e-12
-7.17523e-11
-2.81267e-17
7.94276e-12
-7.89642e-11
3.73348e-17
8.94192e-12
-8.6562e-11
-1.66069e-17
1.00065e-11
-9.45557e-11
1.35597e-16
1.11341e-11
-1.02917e-10
4.69893e-17
1.23217e-11
-1.11648e-10
3.06112e-17
1.35645e-11
-1.20713e-10
1.06986e-17
1.48563e-11
-1.30093e-10
3.98872e-17
1.61894e-11
-1.39754e-10
5.10723e-17
1.75546e-11
-1.4964e-10
6.20342e-17
1.89413e-11
-1.59728e-10
6.42338e-17
2.0337e-11
-1.69934e-10
6.73444e-17
2.17276e-11
-1.8021e-10
6.82614e-17
2.30979e-11
-1.90482e-10
6.74506e-17
2.44308e-11
-2.00666e-10
6.80738e-17
2.57082e-11
-2.10678e-10
6.99469e-17
2.69109e-11
-2.20423e-10
7.33027e-17
-2.29811e-10
7.77996e-17
1.1101e-14
-7.65645e-13
1.93716e-17
3.51957e-14
-2.44138e-12
6.74863e-16
9.08583e-14
-4.32561e-12
2.87148e-15
1.72124e-13
-6.43377e-12
-3.42751e-15
3.1787e-13
-8.74129e-12
-4.89571e-15
3.36012e-13
-1.13266e-11
3.92407e-15
4.66138e-13
-1.40243e-11
-5.09622e-15
6.1076e-13
-1.73221e-11
3.26714e-15
8.05265e-13
-2.04202e-11
4.25313e-15
1.30776e-12
-2.45225e-11
-6.13791e-15
1.64788e-12
-2.81118e-11
3.35566e-15
2.24923e-12
-3.2715e-11
-1.64594e-15
2.80611e-12
-3.71699e-11
8.73736e-16
3.44906e-12
-4.2216e-11
-6.68635e-16
4.10894e-12
-4.7497e-11
4.86446e-16
4.83437e-12
-5.32268e-11
-5.77196e-16
5.61311e-12
-5.9296e-11
2.2488e-16
6.45697e-12
-6.57913e-11
-2.31625e-16
7.36718e-12
-7.26627e-11
1.0854e-16
8.34608e-12
-7.99425e-11
-9.9689e-17
9.39326e-12
-8.76089e-11
5.59213e-17
1.05083e-11
-9.56705e-11
5.30249e-17
1.16881e-11
-1.04097e-10
9.63394e-17
1.29287e-11
-1.12888e-10
2.36225e-17
1.42248e-11
-1.22009e-10
4.89342e-17
1.55698e-11
-1.31438e-10
5.10153e-17
1.69554e-11
-1.4114e-10
7.21329e-17
1.83717e-11
-1.51056e-10
7.32331e-17
1.98071e-11
-1.61164e-10
7.4279e-17
2.12484e-11
-1.71375e-10
7.39834e-17
2.26806e-11
-1.81642e-10
7.21894e-17
2.40877e-11
-1.91889e-10
7.09599e-17
2.54518e-11
-2.0203e-10
6.9455e-17
2.67539e-11
-2.1198e-10
7.17066e-17
2.7974e-11
-2.21643e-10
7.42311e-17
-2.30928e-10
7.97822e-17
1.35765e-14
-7.79107e-13
8.24228e-17
5.3906e-14
-2.48269e-12
4.03088e-16
1.58066e-13
-4.43476e-12
2.85945e-15
2.61193e-13
-6.52324e-12
-1.89063e-15
5.1932e-13
-9.00036e-12
-4.8859e-15
7.52439e-13
-1.15648e-11
3.06375e-15
1.06149e-12
-1.43259e-11
-3.1119e-15
1.58941e-12
-1.7893e-11
6.42161e-15
1.70973e-12
-2.05141e-11
3.09625e-15
2.30822e-12
-2.51168e-11
-4.44892e-15
2.49939e-12
-2.83071e-11
-1.25278e-16
2.94351e-12
-3.31593e-11
5.32411e-16
3.3433e-12
-3.75694e-11
-3.26812e-16
3.86793e-12
-4.27431e-11
1.14192e-15
4.4746e-12
-4.81021e-11
-1.07068e-15
5.17463e-12
-5.39281e-11
6.92658e-16
5.96048e-12
-6.00811e-11
-4.44241e-16
6.82451e-12
-6.66567e-11
4.51439e-16
7.76981e-12
-7.36077e-11
-2.51266e-16
8.79144e-12
-8.09636e-11
9.4246e-17
9.88744e-12
-8.87039e-11
-5.61243e-17
1.10539e-11
-9.68367e-11
1.74948e-16
1.22878e-11
-1.0533e-10
5.80061e-17
1.35841e-11
-1.14184e-10
7.2142e-17
1.49369e-11
-1.23362e-10
4.83698e-17
1.63384e-11
-1.3284e-10
8.21404e-17
1.77799e-11
-1.42581e-10
8.72489e-17
1.92504e-11
-1.52526e-10
9.2429e-17
2.07376e-11
-1.62651e-10
8.60279e-17
2.22274e-11
-1.72865e-10
8.23818e-17
2.37038e-11
-1.83118e-10
7.78928e-17
2.51499e-11
-1.93335e-10
7.33584e-17
2.6547e-11
-2.03427e-10
7.17917e-17
2.78751e-11
-2.13308e-10
7.25433e-17
2.91134e-11
-2.22881e-10
7.62587e-17
-2.32054e-10
8.14125e-17
1.3552e-14
-7.926e-13
1.0717e-16
4.63171e-14
-2.51605e-12
3.20671e-16
1.21694e-13
-4.51544e-12
2.24982e-15
2.02484e-13
-6.58307e-12
-4.24816e-15
3.47436e-13
-9.1471e-12
-8.07751e-15
3.8883e-13
-1.1625e-11
3.03432e-15
4.96735e-13
-1.44324e-11
-7.09322e-15
6.41662e-13
-1.81212e-11
1.16223e-14
7.84652e-13
-2.06468e-11
3.23219e-15
1.33058e-12
-2.56511e-11
-6.92887e-15
1.65539e-12
-2.8636e-11
2.79167e-15
2.36495e-12
-3.38658e-11
-2.64742e-15
3.01862e-12
-3.82262e-11
9.29333e-16
3.75357e-12
-4.34772e-11
-5.10975e-16
4.51695e-12
-4.88678e-11
9.10289e-16
5.33997e-12
-5.47498e-11
-5.18342e-16
6.21439e-12
-6.09566e-11
5.99596e-16
7.15651e-12
-6.75985e-11
-3.29015e-16
8.16692e-12
-7.46185e-11
2.10786e-16
9.25007e-12
-8.20459e-11
-1.57758e-16
1.04052e-11
-8.98586e-11
8.15509e-17
1.16319e-11
-9.8063e-11
3.04167e-17
1.29261e-11
-1.06624e-10
1.29513e-16
1.42835e-11
-1.15542e-10
6.3949e-17
1.56974e-11
-1.24775e-10
8.67857e-17
1.716e-11
-1.34302e-10
8.21935e-17
1.86613e-11
-1.44082e-10
1.0592e-16
2.01898e-11
-1.54054e-10
1.02446e-16
2.17323e-11
-1.64193e-10
9.81564e-17
2.32735e-11
-1.74406e-10
9.10477e-17
2.47967e-11
-1.84641e-10
8.34043e-17
2.62839e-11
-1.94822e-10
7.82999e-17
2.77155e-11
-2.04859e-10
7.45261e-17
2.90705e-11
-2.14663e-10
7.61494e-17
3.03275e-11
-2.24138e-10
7.88528e-17
-2.33191e-10
8.49449e-17
1.37979e-14
-8.06213e-13
-1.04649e-16
5.72849e-14
-2.56065e-12
3.46176e-16
1.10655e-13
-4.56982e-12
7.5842e-16
2.3776e-13
-6.7146e-12
1.31715e-15
4.0759e-13
-9.31709e-12
3.26563e-15
7.15194e-13
-1.19283e-11
4.02955e-15
1.10643e-12
-1.48242e-11
7.03602e-15
1.55864e-12
-1.84734e-11
-1.48595e-14
2.08184e-12
-2.11778e-11
-7.06891e-15
2.32874e-12
-2.59251e-11
1.31875e-14
2.91264e-12
-2.92106e-11
-5.63589e-15
3.23733e-12
-3.41959e-11
2.72292e-15
3.74616e-12
-3.87319e-11
-2.01608e-15
4.31141e-12
-4.40454e-11
8.67746e-16
4.98743e-12
-4.95409e-11
-1.47312e-15
5.75887e-12
-5.55225e-11
6.01413e-17
6.62738e-12
-6.18241e-11
-5.28556e-16
7.58396e-12
-6.85563e-11
3.16191e-16
8.63158e-12
-7.56653e-11
-5.29044e-16
9.76092e-12
-8.31752e-11
3.59973e-16
1.09718e-11
-9.10684e-11
-6.54954e-17
1.22574e-11
-9.9348e-11
1.38697e-16
1.36133e-11
-1.0798e-10
5.24807e-17
1.50338e-11
-1.16962e-10
1.09511e-16
1.65117e-11
-1.26253e-10
7.76023e-17
1.80381e-11
-1.35828e-10
1.15181e-16
1.96021e-11
-1.45646e-10
1.21617e-16
2.11914e-11
-1.55643e-10
1.25212e-16
2.27918e-11
-1.65793e-10
1.13542e-16
2.43869e-11
-1.76001e-10
1.03373e-16
2.59591e-11
-1.86214e-10
9.31891e-17
2.74891e-11
-1.96352e-10
8.43242e-17
2.89564e-11
-2.06326e-10
8.07817e-17
3.03392e-11
-2.16046e-10
8.07328e-17
3.16149e-11
-2.25413e-10
8.45273e-17
-2.34336e-10
8.92326e-17
1.39002e-14
-8.19844e-13
-7.91858e-17
5.90257e-14
-2.60658e-12
1.72017e-16
1.39591e-13
-4.65094e-12
1.14104e-16
2.89771e-13
-6.86292e-12
-5.26685e-16
3.62752e-13
-9.39094e-12
1.82436e-16
4.93787e-13
-1.20656e-11
4.02346e-15
6.65516e-13
-1.49995e-11
2.84022e-15
7.50617e-13
-1.84993e-11
-1.00494e-14
1.29391e-12
-2.17476e-11
-6.11537e-15
1.45904e-12
-2.61116e-11
1.11945e-14
2.14548e-12
-2.98908e-11
-1.77942e-15
2.71579e-12
-3.47673e-11
-6.93074e-16
3.46784e-12
-3.94838e-11
-6.5762e-16
4.22679e-12
-4.4804e-11
-8.03211e-16
5.06289e-12
-5.03784e-11
7.42774e-16
5.95776e-12
-5.64157e-11
-1.23615e-15
6.92293e-12
-6.27902e-11
5.68458e-16
7.96592e-12
-6.95989e-11
-4.55358e-16
9.08588e-12
-7.67853e-11
3.09873e-17
1.02855e-11
-8.43742e-11
7.71126e-18
1.15629e-11
-9.23453e-11
8.11993e-17
1.29158e-11
-1.007e-10
3.23849e-17
1.434e-11
-1.09404e-10
1.42012e-16
1.58293e-11
-1.18451e-10
7.77592e-17
1.73759e-11
-1.278e-10
1.08522e-16
1.89704e-11
-1.37422e-10
1.06738e-16
2.06011e-11
-1.47276e-10
1.33169e-16
2.22548e-11
-1.57297e-10
1.31584e-16
2.39161e-11
-1.67454e-10
1.24524e-16
2.55678e-11
-1.77652e-10
1.13631e-16
2.71909e-11
-1.87837e-10
1.0114e-16
2.87654e-11
-1.97927e-10
9.29119e-17
3.02695e-11
-2.0783e-10
8.75039e-17
3.16804e-11
-2.17456e-10
8.9071e-17
3.29747e-11
-2.26707e-10
9.11038e-17
-2.35489e-10
9.58391e-17
1.79048e-14
-8.36924e-13
-3.94085e-16
7.35022e-14
-2.6628e-12
4.8273e-16
1.71571e-13
-4.7483e-12
-5.94003e-17
2.80118e-13
-6.97068e-12
1.67225e-16
5.50232e-13
-9.66545e-12
9.99931e-16
7.38344e-13
-1.22532e-11
2.65538e-15
1.18682e-12
-1.54621e-11
5.69959e-15
1.50989e-12
-1.87648e-11
-6.90719e-15
2.01293e-12
-2.22718e-11
-7.98935e-15
2.27743e-12
-2.63992e-11
1.23648e-14
2.89574e-12
-3.04968e-11
-6.45997e-15
3.33622e-12
-3.52118e-11
1.82009e-15
3.98646e-12
-4.01315e-11
-2.20588e-15
4.66819e-12
-4.54876e-11
1.09377e-15
5.485e-12
-5.11936e-11
-9.47845e-16
6.37398e-12
-5.73048e-11
1.40718e-16
7.36624e-12
-6.37816e-11
-2.83262e-16
8.44289e-12
-7.06767e-11
4.62025e-16
9.61191e-12
-7.79534e-11
-4.2563e-16
1.08673e-11
-8.56294e-11
2.76919e-16
1.22071e-11
-9.36841e-11
-4.96178e-17
1.3626e-11
-1.02119e-10
1.47328e-16
1.51191e-11
-1.10897e-10
7.58529e-17
1.66787e-11
-1.20011e-10
1.14582e-16
1.82964e-11
-1.29417e-10
9.10334e-17
1.99615e-11
-1.39087e-10
1.271e-16
2.16615e-11
-1.48976e-10
1.39294e-16
2.33819e-11
-1.59017e-10
1.46209e-16
2.51065e-11
-1.69178e-10
1.36157e-16
2.68168e-11
-1.79362e-10
1.24087e-16
2.84926e-11
-1.89512e-10
1.11735e-16
3.01128e-11
-1.99547e-10
1.007e-16
3.16543e-11
-2.09371e-10
9.71319e-17
3.30935e-11
-2.18895e-10
9.71903e-17
3.44059e-11
-2.28019e-10
1.00183e-16
-2.3665e-10
1.02351e-16
1.696e-14
-8.52713e-13
-4.53713e-16
6.293e-14
-2.71207e-12
1.06246e-15
1.5799e-13
-4.84584e-12
2.27264e-15
2.79705e-13
-7.08338e-12
-2.52977e-15
4.3763e-13
-9.82959e-12
7.07444e-16
6.17519e-13
-1.24346e-11
1.38147e-15
9.85091e-13
-1.58439e-11
4.91564e-15
1.27114e-12
-1.8995e-11
-7.05876e-15
1.81052e-12
-2.28329e-11
-7.954e-15
2.13321e-12
-2.67515e-11
1.15264e-14
2.76894e-12
-3.11288e-11
-5.09339e-15
3.35295e-12
-3.57989e-11
4.55397e-16
4.08058e-12
-4.0861e-11
-6.2191e-16
4.86126e-12
-4.6268e-11
-2.3421e-16
5.74604e-12
-5.20786e-11
-3.87362e-17
6.7055e-12
-5.82631e-11
-7.56746e-16
7.76481e-12
-6.48416e-11
3.17475e-16
8.908e-12
-7.18201e-11
1.17475e-17
1.01457e-11
-7.91909e-11
-1.26533e-16
1.14715e-11
-8.69546e-11
6.48536e-17
1.28827e-11
-9.50947e-11
6.19162e-17
1.4375e-11
-1.03611e-10
7.17832e-17
1.59423e-11
-1.12464e-10
1.38984e-16
1.75771e-11
-1.21645e-10
9.7498e-17
1.92699e-11
-1.3111e-10
1.18602e-16
2.10095e-11
-1.40827e-10
1.25685e-16
2.27823e-11
-1.50749e-10
1.48046e-16
2.45728e-11
-1.60807e-10
1.48706e-16
2.63634e-11
-1.70968e-10
1.40957e-16
2.81344e-11
-1.81133e-10
1.30798e-16
2.98646e-11
-1.91243e-10
1.16958e-16
3.15314e-11
-2.01213e-10
1.08756e-16
3.31109e-11
-2.1095e-10
1.04087e-16
3.45782e-11
-2.20362e-10
1.06842e-16
3.59078e-11
-2.29348e-10
1.07935e-16
-2.37816e-10
1.09877e-16
1.80777e-14
-8.69693e-13
-6.02901e-16
7.351e-14
-2.76593e-12
-7.38942e-16
1.51565e-13
-4.91927e-12
-3.45238e-15
3.26951e-13
-7.27407e-12
2.4735e-15
4.65202e-13
-9.97064e-12
5.99832e-15
7.34124e-13
-1.26966e-11
-2.29737e-15
9.1022e-13
-1.60374e-11
7.70589e-15
1.28272e-12
-1.93047e-11
-9.93887e-15
1.72011e-12
-2.32898e-11
-7.17014e-15
2.15405e-12
-2.72167e-11
1.12442e-14
2.82532e-12
-3.17989e-11
-3.81832e-15
3.49045e-12
-3.64708e-11
2.27004e-15
4.27729e-12
-4.16485e-11
-1.31348e-15
5.12794e-12
-4.71187e-11
-3.49768e-16
6.07122e-12
-5.30214e-11
-3.83819e-16
7.0916e-12
-5.92835e-11
-2.33983e-16
8.21512e-12
-6.59652e-11
2.05001e-17
9.42164e-12
-7.30274e-11
3.0178e-16
1.07279e-11
-8.04966e-11
-3.26614e-16
1.21226e-11
-8.83491e-11
2.25376e-16
1.36065e-11
-9.65778e-11
-6.13965e-18
1.51738e-11
-1.05178e-10
1.42363e-16
1.6818e-11
-1.14108e-10
1.06268e-16
1.85308e-11
-1.23358e-10
1.20651e-16
2.03019e-11
-1.32881e-10
1.0039e-16
2.21189e-11
-1.42644e-10
1.26447e-16
2.39672e-11
-1.52597e-10
1.42429e-16
2.583e-11
-1.62669e-10
1.4809e-16
2.76886e-11
-1.72827e-10
1.43138e-16
2.95221e-11
-1.82966e-10
1.3239e-16
3.13078e-11
-1.93028e-10
1.22273e-16
3.3022e-11
-2.02928e-10
1.12179e-16
3.46395e-11
-2.12568e-10
1.1139e-16
3.61342e-11
-2.21857e-10
1.13034e-16
3.74799e-11
-2.30694e-10
1.15794e-16
-2.38986e-10
1.14997e-16
1.95982e-14
-8.89243e-13
-2.83836e-17
9.21555e-14
-2.83709e-12
-5.51589e-16
2.04978e-13
-5.02561e-12
-3.1237e-15
3.76018e-13
-7.46131e-12
3.38387e-15
5.54075e-13
-1.01531e-11
5.50183e-15
9.76115e-13
-1.31068e-11
-2.56475e-15
1.36774e-12
-1.64461e-11
7.8223e-15
1.88349e-12
-1.97614e-11
-8.25482e-15
2.4383e-12
-2.38661e-11
-7.20277e-15
2.78001e-12
-2.75802e-11
1.19288e-14
3.44528e-12
-3.24525e-11
-5.3114e-15
3.98218e-12
-3.70126e-11
1.88943e-15
4.72375e-12
-4.23896e-11
-1.38283e-15
5.53895e-12
-4.79336e-11
-2.92618e-17
6.49522e-12
-5.39777e-11
2.67176e-17
7.54564e-12
-6.03331e-11
-1.22916e-16
8.71465e-12
-6.7134e-11
3.29469e-16
9.97708e-12
-7.42907e-11
2.73621e-16
1.13477e-11
-8.18669e-11
-8.15263e-17
1.28134e-11
-8.98144e-11
2.07495e-16
1.43732e-11
-9.81369e-11
8.77503e-17
1.60193e-11
-1.06824e-10
1.26866e-16
1.77443e-11
-1.15833e-10
1.5534e-16
1.95388e-11
-1.25153e-10
1.31356e-16
2.13916e-11
-1.34734e-10
1.2939e-16
2.32893e-11
-1.44541e-10
1.37069e-16
2.52161e-11
-1.54524e-10
1.50679e-16
2.7154e-11
-1.64607e-10
1.49838e-16
2.90829e-11
-1.74755e-10
1.39929e-16
3.09805e-11
-1.84864e-10
1.32572e-16
3.28229e-11
-1.94871e-10
1.19659e-16
3.45849e-11
-2.04689e-10
1.14533e-16
3.62402e-11
-2.14223e-10
1.12594e-16
3.77615e-11
-2.23378e-10
1.1823e-16
3.91217e-11
-2.32053e-10
1.1932e-16
-2.40157e-10
1.18986e-16
1.86962e-14
-9.07951e-13
-1.46597e-16
7.84297e-14
-2.89627e-12
-2.05417e-16
1.53e-13
-5.09507e-12
-3.00166e-15
3.04762e-13
-7.62606e-12
1.61031e-15
4.01111e-13
-1.02512e-11
5.75342e-15
6.11375e-13
-1.33115e-11
-2.18497e-15
8.55428e-13
-1.67026e-11
5.68655e-15
1.01755e-12
-1.98587e-11
-1.2202e-14
1.69224e-12
-2.45693e-11
-5.22925e-15
2.0142e-12
-2.79193e-11
1.03953e-14
2.90472e-12
-3.33322e-11
-2.80416e-15
3.67453e-12
-3.77877e-11
8.62046e-16
4.64209e-12
-4.33567e-11
-1.29758e-15
5.65126e-12
-4.89411e-11
-9.32527e-16
6.74021e-12
-5.50669e-11
5.43473e-16
7.90885e-12
-6.15006e-11
-8.27499e-16
9.17518e-12
-6.84e-11
3.03467e-16
1.0531e-11
-7.56461e-11
-3.78683e-16
1.19883e-11
-8.33239e-11
-8.47335e-18
1.3538e-11
-9.1364e-11
3.44501e-16
1.51821e-11
-9.97803e-11
7.84819e-17
1.69127e-11
-1.08554e-10
1.50204e-16
1.87232e-11
-1.17643e-10
1.60586e-16
2.06036e-11
-1.27033e-10
1.43e-16
2.25421e-11
-1.36673e-10
1.23137e-16
2.4524e-11
-1.46523e-10
1.26148e-16
2.65322e-11
-1.56532e-10
1.40016e-16
2.85476e-11
-1.66622e-10
1.3719e-16
3.05487e-11
-1.76756e-10
1.34407e-16
3.25118e-11
-1.86826e-10
1.23746e-16
3.44114e-11
-1.9677e-10
1.17156e-16
3.62214e-11
-2.06499e-10
1.09413e-16
3.79137e-11
-2.15915e-10
1.12978e-16
3.94603e-11
-2.24924e-10
1.1713e-16
4.08328e-11
-2.33425e-10
1.21077e-16
-2.41327e-10
1.18284e-16
2.08491e-14
-9.28803e-13
-1.63227e-16
9.38493e-14
-2.96909e-12
-1.54037e-16
2.06664e-13
-5.20218e-12
-2.44735e-15
3.96512e-13
-7.83687e-12
3.9503e-15
6.2628e-13
-1.04825e-11
9.81473e-15
1.04828e-12
-1.37179e-11
-7.62702e-16
1.54165e-12
-1.72002e-11
8.03999e-15
2.1346e-12
-2.03451e-11
-1.76371e-14
2.83676e-12
-2.52805e-11
-6.87538e-15
3.25701e-12
-2.83666e-11
1.33863e-14
4.0614e-12
-3.41279e-11
-5.34884e-15
4.6369e-12
-3.83699e-11
3.3297e-15
5.42667e-12
-4.41454e-11
-1.10732e-15
6.32416e-12
-4.98374e-11
-7.80591e-16
7.35247e-12
-5.60931e-11
-5.91462e-16
8.50963e-12
-6.26573e-11
-6.2417e-16
9.79538e-12
-6.96846e-11
-2.25563e-16
1.11918e-11
-7.70427e-11
-5.17965e-17
1.27079e-11
-8.48395e-11
-1.82386e-16
1.43277e-11
-9.29835e-11
3.35111e-16
1.60499e-11
-1.01502e-10
1.32374e-16
1.7864e-11
-1.10367e-10
2.22474e-16
1.97613e-11
-1.1954e-10
1.8018e-16
2.173e-11
-1.29002e-10
1.50948e-16
2.37566e-11
-1.38699e-10
1.35253e-16
2.58252e-11
-1.48592e-10
1.46175e-16
2.79173e-11
-1.58624e-10
1.42989e-16
3.00123e-11
-1.68717e-10
1.40748e-16
3.20873e-11
-1.78831e-10
1.24501e-16
3.4117e-11
-1.88856e-10
1.18958e-16
3.60746e-11
-1.98728e-10
1.06029e-16
3.79321e-11
-2.08357e-10
1.04631e-16
3.96606e-11
-2.17643e-10
1.05342e-16
4.12306e-11
-2.26493e-10
1.141e-16
4.2613e-11
-2.34807e-10
1.16205e-16
-2.42493e-10
1.15319e-16
2.25005e-14
-9.51353e-13
6.64515e-17