/*--------------------------------*- C++ -*----------------------------------*\
| =========                 |                                                 |
| \\      /  F ield         | OpenFOAM: The Open Source CFD Toolbox           |
|  \\    /   O peration     | Version:  v2012                                 |
|   \\  /    A nd           | Website:  www.openfoam.com                      |
|    \\/     M anipulation  |                                                 |
\*---------------------------------------------------------------------------*/
FoamFile
{
    version     2.0;
    format      ascii;
    class       surfaceScalarField;
    location    "0.75";
    object      phi;
}
// * * * * * * * * * * * * * * * * * * * * * * * * * * * * * * * * * * * * * //

dimensions      [0 3 -1 0 0 0 0];
oriented        oriented;


internalField   nonuniform List<scalar> 
8212
(
4.16377e-12
-6.9051e-09
-1.01856e-15
3.62016e-11
-2.1078e-08
-1.92178e-15
1.53098e-10
-3.60929e-08
-4.34258e-15
9.49009e-11
-5.02605e-08
-1.41663e-14
4.34736e-10
-7.17188e-08
-3.99442e-15
9.99435e-10
-9.24066e-08
-4.95282e-15
1.504e-09
-9.60772e-08
7.33891e-16
1.80761e-09
-7.82428e-08
4.07905e-15
1.77688e-09
-7.36082e-08
4.95134e-17
1.79321e-09
-8.32887e-08
-2.22153e-15
1.84608e-09
-9.2659e-08
-2.40908e-15
1.90501e-09
-1.00491e-07
-2.37398e-15
1.95916e-09
-1.06722e-07
-2.29059e-15
1.99979e-09
-1.11734e-07
-2.24547e-15
2.0227e-09
-1.16223e-07
-2.16523e-15
2.02566e-09
-1.20606e-07
-1.98812e-15
2.00704e-09
-1.25065e-07
-1.90924e-15
1.96535e-09
-1.2961e-07
-1.8339e-15
1.89934e-09
-1.34153e-07
-1.78979e-15
1.80806e-09
-1.38556e-07
-1.75748e-15
1.69096e-09
-1.4267e-07
-1.78249e-15
1.54785e-09
-1.46361e-07
-1.79591e-15
1.379e-09
-1.49475e-07
-1.81592e-15
1.18504e-09
-1.51915e-07
-1.83611e-15
9.67042e-10
-1.5356e-07
-1.82831e-15
7.26491e-10
-1.54323e-07
-1.81213e-15
4.65355e-10
-1.54115e-07
-1.78903e-15
1.86207e-10
-1.52835e-07
-1.75488e-15
-1.07758e-10
-1.50428e-07
-1.7166e-15
-4.12453e-10
-1.46785e-07
-1.75246e-15
-7.22816e-10
-1.4184e-07
-1.5802e-15
-1.03256e-09
-1.35513e-07
-1.47021e-15
-1.33388e-09
-1.27722e-07
-1.40117e-15
-1.61711e-09
-1.18396e-07
-1.32375e-15
-1.87017e-09
-1.07467e-07
-1.23798e-15
-2.07777e-09
-9.48791e-08
-1.14411e-15
-2.21976e-09
-8.05812e-08
-1.04093e-15
-2.26924e-09
-6.4548e-08
-9.2644e-16
-4.67713e-08
-7.95959e-16
6.108e-12
-6.91121e-09
1.42271e-16
3.93252e-11
-2.11112e-08
-3.06958e-15
1.8233e-10
-3.62359e-08
-5.44277e-15
3.19343e-11
-5.01101e-08
-1.41128e-14
4.80036e-10
-7.21669e-08
-7.36935e-15
1.21012e-09
-9.31367e-08
-7.19255e-15
1.73529e-09
-9.66024e-08
-6.156e-15
2.03597e-09
-7.85435e-08
-6.37768e-15
1.89773e-09
-7.34699e-08
-1.18235e-15
1.88042e-09
-8.32714e-08
-2.26707e-15
1.93284e-09
-9.27114e-08
-2.47733e-15
1.99899e-09
-1.00558e-07
-2.2653e-15
2.06046e-09
-1.06783e-07
-2.32362e-15
2.10359e-09
-1.11777e-07
-2.08766e-15
2.12333e-09
-1.16243e-07
-1.9578e-15
2.11831e-09
-1.20601e-07
-1.88115e-15
2.0883e-09
-1.25035e-07
-1.89116e-15
2.0332e-09
-1.29555e-07
-1.8821e-15
1.95297e-09
-1.34073e-07
-1.91348e-15
1.84764e-09
-1.38451e-07
-1.80757e-15
1.7173e-09
-1.4254e-07
-1.81653e-15
1.56219e-09
-1.46206e-07
-1.83474e-15
1.38273e-09
-1.49295e-07
-1.86633e-15
1.17955e-09
-1.51712e-07
-1.87019e-15
9.53586e-10
-1.53334e-07
-1.85772e-15
7.06136e-10
-1.54076e-07
-1.84202e-15
4.38955e-10
-1.53848e-07
-1.81334e-15
1.54405e-10
-1.5255e-07
-1.77441e-15
-1.44507e-10
-1.50129e-07
-1.73256e-15
-4.53864e-10
-1.46475e-07
-1.6715e-15
-7.68755e-10
-1.41525e-07
-1.50617e-15
-1.08305e-09
-1.35198e-07
-1.48295e-15
-1.38912e-09
-1.27416e-07
-1.41551e-15
-1.67756e-09
-1.18107e-07
-1.33646e-15
-1.93674e-09
-1.07208e-07
-1.24952e-15
-2.15217e-09
-9.46637e-08
-1.15438e-15
-2.30545e-09
-8.04279e-08
-1.05003e-15
-2.37358e-09
-6.44798e-08
-9.34377e-16
-4.68198e-08
-8.02291e-16
6.49826e-12
-6.9177e-09
2.31429e-16
3.07391e-11
-2.11355e-08
-5.33224e-15
1.23662e-10
-3.63288e-08
-1.14996e-14
3.00639e-11
-5.00164e-08
-7.33985e-15
5.11887e-10
-7.26487e-08
-3.76108e-15
1.23391e-09
-9.38587e-08
-6.45785e-15
1.66824e-09
-9.70367e-08
-8.54254e-15
2.07753e-09
-7.89528e-08
-1.0024e-14
2.03828e-09
-7.34307e-08
-2.05119e-15
2.02221e-09
-8.32553e-08
-2.13852e-15
2.05487e-09
-9.27441e-08
-2.28631e-15
2.10236e-09
-1.00605e-07
-2.26223e-15
2.15082e-09
-1.06832e-07
-2.28815e-15
2.18653e-09
-1.11813e-07
-2.07395e-15
2.20219e-09
-1.16259e-07
-2.00613e-15
2.19397e-09
-1.20593e-07
-1.82512e-15
2.16e-09
-1.25001e-07
-1.91275e-15
2.09932e-09
-1.29494e-07
-1.88091e-15
2.0117e-09
-1.33986e-07
-1.88188e-15
1.89738e-09
-1.38336e-07
-1.80821e-15
1.7569e-09
-1.42399e-07
-1.80313e-15
1.59093e-09
-1.4604e-07
-1.81191e-15
1.40032e-09
-1.49105e-07
-1.85218e-15
1.18599e-09
-1.51498e-07
-1.8659e-15
9.49048e-10
-1.53097e-07
-1.86415e-15
6.90869e-10
-1.53818e-07
-1.8473e-15
4.13202e-10
-1.5357e-07
-1.82093e-15
1.18354e-10
-1.52256e-07
-1.78205e-15
-1.90761e-10
-1.4982e-07
-1.74265e-15
-5.10337e-10
-1.46156e-07
-1.71414e-15
-8.35597e-10
-1.412e-07
-1.54682e-15
-1.16059e-09
-1.34873e-07
-1.49234e-15
-1.47795e-09
-1.27098e-07
-1.42272e-15
-1.77869e-09
-1.17807e-07
-1.34312e-15
-2.05191e-09
-1.06934e-07
-1.25622e-15
-2.28449e-09
-9.44311e-08
-1.16156e-15
-2.46077e-09
-8.02516e-08
-1.05848e-15
-2.5633e-09
-6.43773e-08
-9.45115e-16
-4.68096e-08
-8.1668e-16
8.55918e-12
-6.92626e-09
-2.83951e-16
3.90842e-11
-2.1166e-08
-1.67451e-15
9.96869e-11
-3.63894e-08
-6.82304e-15
3.08357e-11
-4.99476e-08
-1.21399e-14
6.06294e-10
-7.32242e-08
-1.7232e-15
1.36996e-09
-9.46224e-08
-9.128e-15
1.71098e-09
-9.73777e-08
-1.05085e-14
2.14779e-09
-7.93897e-08
-8.0434e-15
2.118e-09
-7.34009e-08
-2.52724e-15
2.11628e-09
-8.32536e-08
-1.85785e-15
2.1549e-09
-9.27827e-08
-1.97592e-15
2.20491e-09
-1.00655e-07
-2.06429e-15
2.25454e-09
-1.06881e-07
-2.05938e-15
2.29023e-09
-1.11848e-07
-1.99465e-15
2.30413e-09
-1.16273e-07
-1.95373e-15
2.2917e-09
-1.20581e-07
-1.76724e-15
2.25083e-09
-1.2496e-07
-1.96394e-15
2.18067e-09
-1.29424e-07
-1.88784e-15
2.08147e-09
-1.33886e-07
-1.96429e-15
1.95409e-09
-1.38209e-07
-1.87503e-15
1.79968e-09
-1.42245e-07
-1.87478e-15
1.61943e-09
-1.45859e-07
-1.87843e-15
1.41454e-09
-1.489e-07
-1.91253e-15
1.18613e-09
-1.51269e-07
-1.91444e-15
9.35412e-10
-1.52846e-07
-1.90549e-15
6.63718e-10
-1.53546e-07
-1.88187e-15
3.72715e-10
-1.53279e-07
-1.84984e-15
6.45857e-11
-1.51947e-07
-1.80564e-15
-2.57898e-10
-1.49498e-07
-1.76337e-15
-5.91084e-10
-1.45822e-07
-1.72978e-15
-9.30372e-10
-1.4086e-07
-1.55987e-15
-1.27003e-09
-1.34534e-07
-1.50532e-15
-1.60304e-09
-1.26765e-07
-1.43415e-15
-1.9209e-09
-1.17489e-07
-1.35328e-15
-2.21363e-09
-1.06642e-07
-1.26583e-15
-2.46965e-09
-9.4175e-08
-1.17122e-15
-2.67616e-09
-8.00451e-08
-1.06913e-15
-2.82076e-09
-6.42327e-08
-9.58171e-16
-4.67359e-08
-8.3416e-16
9.26152e-12
-6.93551e-09
1.03501e-15
3.8002e-11
-2.11947e-08
-7.60815e-15
4.72502e-11
-3.63987e-08
-1.11189e-14
2.57204e-11
-4.99261e-08
-1.05856e-14
6.98144e-10
-7.38966e-08
-6.05597e-16
1.43889e-09
-9.53632e-08
-1.02122e-14
1.65625e-09
-9.75951e-08
-7.81264e-15
2.1697e-09
-7.99031e-08
-6.11014e-15
2.17928e-09
-7.34105e-08
-1.58736e-15
2.18491e-09
-8.32592e-08
-1.56811e-15
2.22671e-09
-9.28245e-08
-1.69569e-15
2.27855e-09
-1.00707e-07
-1.89297e-15
2.32974e-09
-1.06933e-07
-1.92098e-15
2.36694e-09
-1.11885e-07
-1.98604e-15
2.38181e-09
-1.16288e-07
-1.96233e-15
2.36901e-09
-1.20568e-07
-1.83306e-15
2.32566e-09
-1.24916e-07
-2.05559e-15
2.25045e-09
-1.29349e-07
-1.90278e-15
2.14355e-09
-1.33779e-07
-2.05339e-15
2.00605e-09
-1.38072e-07
-1.98639e-15
1.83951e-09
-1.42078e-07
-1.973e-15
1.64563e-09
-1.45665e-07
-1.96235e-15
1.42606e-09
-1.4868e-07
-1.97892e-15
1.1823e-09
-1.51025e-07
-1.96541e-15
9.15787e-10
-1.5258e-07
-1.94411e-15
6.28012e-10
-1.53258e-07
-1.91224e-15
3.20683e-10
-1.52972e-07
-1.87624e-15
-4.03953e-12
-1.51623e-07
-1.82885e-15
-3.43454e-10
-1.49158e-07
-1.78519e-15
-6.94018e-10
-1.45472e-07
-1.75119e-15
-1.05128e-09
-1.40503e-07
-1.57568e-15
-1.40974e-09
-1.34175e-07
-1.51992e-15
-1.7627e-09
-1.26412e-07
-1.44733e-15
-2.10222e-09
-1.17149e-07
-1.36517e-15
-2.4192e-09
-1.06325e-07
-1.27712e-15
-2.70357e-09
-9.38907e-08
-1.18251e-15
-2.94504e-09
-7.98036e-08
-1.08135e-15
-3.135e-09
-6.40427e-08
-9.72784e-16
-4.66008e-08
-8.53447e-16
1.03956e-11
-6.94591e-09
2.7281e-17
4.04995e-11
-2.12248e-08
-3.35445e-15
6.18426e-12
-3.63643e-08
-1.13061e-14
3.77916e-11
-4.99577e-08
-8.32504e-15
8.06546e-10
-7.46653e-08
-1.35258e-15
1.47012e-09
-9.60268e-08
-1.04427e-14
1.56264e-09
-9.76876e-08
-3.03934e-15
2.16133e-09
-8.05018e-08
-6.14394e-15
2.20384e-09
-7.3453e-08
-1.84012e-15
2.2204e-09
-8.32758e-08
-1.52578e-15
2.2697e-09
-9.28738e-08
-1.55704e-15
2.32829e-09
-1.00765e-07
-1.77876e-15
2.38547e-09
-1.0699e-07
-1.86519e-15
2.42737e-09
-1.11927e-07
-1.94491e-15
2.44503e-09
-1.16305e-07
-1.98539e-15
2.43272e-09
-1.20555e-07
-1.89903e-15
2.38726e-09
-1.24871e-07
-2.20489e-15
2.30726e-09
-1.29269e-07
-2.01329e-15
2.19298e-09
-1.33665e-07
-2.18065e-15
2.04574e-09
-1.37924e-07
-2.05939e-15
1.86747e-09
-1.419e-07
-2.02458e-15
1.66021e-09
-1.45458e-07
-2.01327e-15
1.42595e-09
-1.48446e-07
-2.03043e-15
1.16644e-09
-1.50766e-07
-2.01647e-15
8.83319e-10
-1.52297e-07
-1.99081e-15
5.78176e-10
-1.52953e-07
-1.95401e-15
2.52781e-10
-1.52646e-07
-1.91303e-15
-9.06947e-11
-1.51279e-07
-1.86035e-15
-4.49579e-10
-1.488e-07
-1.81291e-15
-8.2039e-10
-1.45101e-07
-1.77625e-15
-1.19878e-09
-1.40125e-07
-1.59442e-15
-1.57943e-09
-1.33795e-07
-1.53651e-15
-1.95592e-09
-1.26036e-07
-1.46193e-15
-2.32081e-09
-1.16784e-07
-1.37827e-15
-2.66579e-09
-1.0598e-07
-1.28951e-15
-2.98206e-09
-9.35744e-08
-1.19483e-15
-3.26121e-09
-7.95245e-08
-1.09451e-15
-3.49711e-09
-6.38068e-08
-9.88242e-16
-4.64091e-08
-8.73503e-16
1.11946e-11
-6.9571e-09
8.15366e-16
4.0253e-11
-2.12539e-08
-6.89335e-15
-3.83731e-11
-3.62857e-08
-1.37306e-14
4.0218e-11
-5.00363e-08
-5.75588e-15
8.72255e-10
-7.54974e-08
1.06341e-15
1.40572e-09
-9.65602e-08
-8.45942e-15
1.41503e-09
-9.76969e-08
4.98635e-15
2.12939e-09
-8.12162e-08
-3.22747e-15
2.21469e-09
-7.35383e-08
-1.68163e-15
2.23686e-09
-8.3298e-08
-1.60118e-15
2.28942e-09
-9.29264e-08
-1.60356e-15
2.3518e-09
-1.00828e-07
-1.8771e-15
2.41306e-09
-1.07051e-07
-2.00605e-15
2.45878e-09
-1.11973e-07
-2.07287e-15
2.47928e-09
-1.16326e-07
-2.13912e-15
2.46842e-09
-1.20545e-07
-2.01453e-15
2.42257e-09
-1.24825e-07
-2.34258e-15
2.33998e-09
-1.29186e-07
-2.10379e-15
2.22071e-09
-1.33546e-07
-2.2656e-15
2.06604e-09
-1.3777e-07
-2.2183e-15
1.87799e-09
-1.41712e-07
-2.16874e-15
1.65881e-09
-1.45239e-07
-2.12701e-15
1.41072e-09
-1.48198e-07
-2.11198e-15
1.13571e-09
-1.50491e-07
-2.07842e-15
8.35629e-10
-1.51997e-07
-2.03775e-15
5.12222e-10
-1.5263e-07
-1.99276e-15
1.67372e-10
-1.52301e-07
-1.94704e-15
-1.96675e-10
-1.50915e-07
-1.89057e-15
-5.77213e-10
-1.48419e-07
-1.84058e-15
-9.70754e-10
-1.44708e-07
-1.80235e-15
-1.373e-09
-1.39722e-07
-1.61513e-15
-1.77873e-09
-1.33389e-07
-1.55407e-15
-2.18176e-09
-1.25633e-07
-1.47739e-15
-2.57503e-09
-1.16391e-07
-1.39217e-15
-2.95084e-09
-1.05604e-07
-1.30265e-15
-3.30134e-09
-9.32239e-08
-1.20781e-15
-3.61939e-09
-7.92064e-08
-1.10821e-15
-3.90016e-09
-6.35261e-08
-1.00399e-15
-4.6166e-08
-8.93444e-16
1.2011e-11
-6.96911e-09
3.08079e-16
4.25346e-11
-2.12844e-08
-1.85608e-15
-7.1911e-11
-3.61713e-08
-1.58064e-14
3.59934e-11
-5.01442e-08
-5.65033e-15
8.74307e-10
-7.63357e-08
-3.3007e-16
1.25436e-09
-9.69403e-08
-9.61458e-15
1.25263e-09
-9.76952e-08
6.85191e-15
2.08443e-09
-8.2048e-08
-2.86344e-15
2.20618e-09
-7.366e-08
-2.38267e-15
2.23353e-09
-8.33253e-08
-1.80967e-15
2.2883e-09
-9.29811e-08
-1.84003e-15
2.35322e-09
-1.00893e-07
-2.12809e-15
2.41739e-09
-1.07115e-07
-2.16e-15
2.46585e-09
-1.12021e-07
-2.23008e-15
2.48828e-09
-1.16348e-07
-2.30153e-15
2.47827e-09
-1.20535e-07
-2.09373e-15
2.43188e-09
-1.24779e-07
-2.51106e-15
2.34713e-09
-1.29101e-07
-2.24116e-15
2.22379e-09
-1.33423e-07
-2.39963e-15
2.06295e-09
-1.37609e-07
-2.30968e-15
1.86654e-09
-1.41515e-07
-2.24215e-15
1.63677e-09
-1.45009e-07
-2.20029e-15
1.37594e-09
-1.47937e-07
-2.18269e-15
1.08611e-09
-1.50201e-07
-2.14502e-15
7.69266e-10
-1.5168e-07
-2.09647e-15
4.27278e-10
-1.52288e-07
-2.04379e-15
6.2154e-11
-1.51936e-07
-1.99108e-15
-3.23744e-10
-1.50529e-07
-1.92797e-15
-7.27611e-10
-1.48015e-07
-1.87291e-15
-1.14588e-09
-1.44289e-07
-1.83112e-15
-1.57422e-09
-1.39294e-07
-1.63708e-15
-2.00743e-09
-1.32956e-07
-1.57245e-15
-2.43944e-09
-1.25201e-07
-1.49348e-15
-2.86343e-09
-1.15967e-07
-1.4066e-15
-3.27212e-09
-1.05195e-07
-1.31625e-15
-3.65825e-09
-9.28378e-08
-1.2212e-15
-4.01537e-09
-7.88493e-08
-1.12217e-15
-4.33907e-09
-6.32024e-08
-1.0197e-15
-4.58769e-08
-9.12756e-16
1.26551e-11
-6.98177e-09
3.11873e-16
4.51098e-11
-2.13169e-08
-5.43183e-15
-1.01755e-10
-3.60244e-08
-1.81273e-14
5.0287e-12
-5.0251e-08
-2.05718e-15
7.83003e-10
-7.71136e-08
1.85706e-16
1.0368e-09
-9.71941e-08
-6.72506e-15
1.11403e-09
-9.77724e-08
4.40695e-15
2.04676e-09
-8.29807e-08
-4.20221e-15
2.18992e-09
-7.38032e-08
-4.08115e-15
2.21658e-09
-8.3352e-08
-2.34506e-15
2.26926e-09
-9.30338e-08
-2.34061e-15
2.33287e-09
-1.00956e-07
-2.56593e-15
2.39673e-09
-1.07179e-07
-2.57336e-15
2.44549e-09
-1.1207e-07
-2.62994e-15
2.46824e-09
-1.16371e-07
-2.64136e-15
2.45833e-09
-1.20525e-07
-2.32123e-15
2.41148e-09
-1.24732e-07
-2.73434e-15
2.32532e-09
-1.29015e-07
-2.41021e-15
2.19917e-09
-1.33296e-07
-2.52256e-15
2.03372e-09
-1.37443e-07
-2.43874e-15
1.83056e-09
-1.41312e-07
-2.34212e-15
1.5917e-09
-1.4477e-07
-2.28283e-15
1.31933e-09
-1.47664e-07
-2.25065e-15
1.0155e-09
-1.49897e-07
-2.2045e-15
6.82244e-10
-1.51346e-07
-2.14719e-15
3.21552e-10
-1.51927e-07
-2.0883e-15
-6.44308e-11
-1.5155e-07
-2.03056e-15
-4.73187e-10
-1.50121e-07
-1.96282e-15
-9.01753e-10
-1.47587e-07
-1.90403e-15
-1.34641e-09
-1.43845e-07
-1.85936e-15
-1.8027e-09
-1.38838e-07
-1.65816e-15
-2.26536e-09
-1.32493e-07
-1.59081e-15
-2.72829e-09
-1.24738e-07
-1.50974e-15
-3.18479e-09
-1.15511e-07
-1.42122e-15
-3.62776e-09
-1.04752e-07
-1.33003e-15
-4.0502e-09
-9.24153e-08
-1.23469e-15
-4.44591e-09
-7.84535e-08
-1.13612e-15
-4.81027e-09
-6.2838e-08
-1.0351e-15
-4.55463e-08
-9.31201e-16
1.32445e-11
-6.99501e-09
5.99075e-16
4.84445e-11
-2.13521e-08
-9.58531e-16
-1.29457e-10
-3.58465e-08
-1.82787e-14
-5.96011e-11
-5.03208e-08
-9.74546e-16
6.07498e-10
-7.77807e-08
-2.07093e-15
8.09396e-10
-9.7396e-08
-8.68239e-15
1.03623e-09
-9.79992e-08
1.29684e-15
2.02421e-09
-8.39687e-08
-3.89718e-15
2.16438e-09
-7.39433e-08
-2.00432e-15
2.18469e-09
-8.33723e-08
-2.82219e-15
2.23207e-09
-9.30812e-08
-2.99604e-15
2.29138e-09
-1.01016e-07
-3.17674e-15
2.35238e-09
-1.0724e-07
-3.12624e-15
2.39942e-09
-1.12117e-07
-3.15421e-15
2.421e-09
-1.16393e-07
-3.08789e-15
2.41026e-09
-1.20514e-07
-2.68278e-15
2.3626e-09
-1.24684e-07
-3.11694e-15
2.27523e-09
-1.28928e-07
-2.74258e-15
2.14696e-09
-1.33168e-07
-2.74713e-15
1.97792e-09
-1.37274e-07
-2.58616e-15
1.76921e-09
-1.41103e-07
-2.4629e-15
1.52246e-09
-1.44524e-07
-2.39103e-15
1.23956e-09
-1.47382e-07
-2.34458e-15
9.2247e-10
-1.4958e-07
-2.2845e-15
5.7317e-10
-1.50997e-07
-2.21418e-15
1.93727e-10
-1.51548e-07
-2.1441e-15
-2.13573e-10
-1.51143e-07
-2.07755e-15
-6.46023e-10
-1.49688e-07
-2.00219e-15
-1.10044e-09
-1.47132e-07
-1.93762e-15
-1.57289e-09
-1.43372e-07
-1.88868e-15
-2.05869e-09
-1.38352e-07
-1.67947e-15
-2.5524e-09
-1.31999e-07
-1.60921e-15
-3.0478e-09
-1.24242e-07
-1.52593e-15
-3.53811e-09
-1.1502e-07
-1.43576e-15
-4.01624e-09
-1.04274e-07
-1.34372e-15
-4.47518e-09
-9.19564e-08
-1.24806e-15
-4.90859e-09
-7.80201e-08
-1.14984e-15
-5.31126e-09
-6.24354e-08
-1.05003e-15
-4.51782e-08
-9.48677e-16
1.37066e-11
-7.00873e-09
-8.67133e-17
5.03751e-11
-2.13887e-08
-2.84498e-15
-1.6313e-10
-3.5633e-08
-2.01221e-14
-1.67368e-10
-5.03165e-08
9.12139e-16
3.78026e-10
-7.83261e-08
-2.79213e-15
6.2588e-10
-9.76438e-08
-4.95408e-15
1.02704e-09
-9.84003e-08
7.23775e-16
2.0105e-09
-8.49522e-08
-6.19125e-15
2.1319e-09
-7.40647e-08
-6.07324e-15
2.13854e-09
-8.33789e-08
-4.00283e-15
2.17647e-09
-9.31192e-08
-3.94261e-15
2.22801e-09
-1.01067e-07
-4.02133e-15
2.2835e-09
-1.07296e-07
-3.84368e-15
2.32694e-09
-1.12161e-07
-3.77999e-15
2.34619e-09
-1.16412e-07
-3.56547e-15
2.3341e-09
-1.20502e-07
-3.06872e-15
2.28565e-09
-1.24636e-07
-3.42907e-15
2.19753e-09
-1.2884e-07
-2.98573e-15
2.06789e-09
-1.33038e-07
-2.9347e-15
1.89622e-09
-1.37103e-07
-2.75609e-15
1.68298e-09
-1.4089e-07
-2.58896e-15
1.42927e-09
-1.4427e-07
-2.48871e-15
1.13662e-09
-1.47089e-07
-2.42142e-15
8.06752e-10
-1.4925e-07
-2.34863e-15
4.41576e-10
-1.50632e-07
-2.26809e-15
4.32063e-11
-1.51149e-07
-2.19054e-15
-3.85926e-10
-1.50714e-07
-2.11801e-15
-8.4289e-10
-1.49231e-07
-2.03746e-15
-1.32424e-09
-1.46651e-07
-1.96865e-15
-1.82572e-09
-1.42871e-07
-1.91635e-15
-2.34238e-09
-1.37835e-07
-1.6998e-15
-2.86847e-09
-1.31473e-07
-1.62692e-15
-3.39756e-09
-1.23713e-07
-1.54163e-15
-3.92263e-09
-1.14495e-07
-1.44991e-15
-4.43641e-09
-1.0376e-07
-1.35707e-15
-4.93167e-09
-9.14611e-08
-1.26107e-15
-5.40165e-09
-7.75501e-08
-1.16313e-15
-5.84038e-09
-6.19966e-08
-1.0643e-15
-4.47761e-08
-9.65117e-16
1.40949e-11
-7.02282e-09
5.47401e-16
5.05219e-11
-2.14252e-08
-7.59652e-16
-2.07801e-10
-3.53747e-08
-1.61465e-14
-3.11489e-10
-5.02129e-08
-1.36629e-15
1.49193e-10
-7.87867e-08
-5.38488e-15
5.24817e-10
-9.80195e-08
-3.44829e-15
1.06554e-09
-9.89411e-08
-1.42618e-15
1.98097e-09
-8.58677e-08
-9.26684e-15
2.08788e-09
-7.41716e-08
-1.55102e-15
2.07581e-09
-8.33669e-08
-5.05314e-15
2.10096e-09
-9.31443e-08
-4.99135e-15
2.14215e-09
-1.01108e-07
-4.85151e-15
2.19038e-09
-1.07344e-07
-4.71163e-15
2.22922e-09
-1.122e-07
-4.42882e-15
2.24575e-09
-1.16428e-07
-4.09385e-15
2.23227e-09
-1.20488e-07
-3.49815e-15
2.18329e-09
-1.24587e-07
-3.76226e-15
2.09489e-09
-1.28751e-07
-3.23756e-15
1.96449e-09
-1.32908e-07
-3.13668e-15
1.79084e-09
-1.36929e-07
-2.93189e-15
1.57368e-09
-1.40673e-07
-2.73126e-15
1.31352e-09
-1.4401e-07
-2.6054e-15
1.01145e-09
-1.46787e-07
-2.51729e-15
6.6891e-10
-1.48908e-07
-2.4267e-15
2.87696e-10
-1.50251e-07
-2.33192e-15
-1.3004e-10
-1.50731e-07
-2.24261e-15
-5.81705e-10
-1.50262e-07
-2.1614e-15
-1.06411e-09
-1.48749e-07
-2.07375e-15
-1.57347e-09
-1.46141e-07
-1.99962e-15
-2.1052e-09
-1.42339e-07
-1.94336e-15
-2.65392e-09
-1.37286e-07
-1.71935e-15
-3.21355e-09
-1.30913e-07
-1.64381e-15
-3.77728e-09
-1.2315e-07
-1.55657e-15
-4.33777e-09
-1.13935e-07
-1.46343e-15
-4.8874e-09
-1.03211e-07
-1.36984e-15
-5.41855e-09
-9.093e-08
-1.27352e-15
-5.92388e-09
-7.70448e-08
-1.17579e-15
-6.39653e-09
-6.1524e-08
-1.07778e-15
-4.43428e-08
-9.80442e-16
1.43477e-11
-7.03718e-09
-5.72518e-16
4.84404e-11
-2.14592e-08
-2.42297e-15
-2.67915e-10
-3.50583e-08
-1.59046e-14
-4.70266e-10
-5.00105e-08
-1.51692e-15
-1.60276e-11
-7.9241e-08
-5.62894e-15
5.18855e-10
-9.85544e-08
-1.98337e-15
1.11268e-09
-9.95349e-08
1.20591e-15
1.9066e-09
-8.66616e-08
-8.73542e-15
2.02823e-09
-7.42932e-08
-3.082e-15
1.99555e-09
-8.33342e-08
-6.25618e-15
2.005e-09
-9.31538e-08
-6.07709e-15
2.03372e-09
-1.01137e-07
-5.84861e-15
2.0736e-09
-1.07384e-07
-5.57991e-15
2.1076e-09
-1.12234e-07
-5.13856e-15
2.12168e-09
-1.16442e-07
-4.63841e-15
2.10739e-09
-1.20474e-07
-3.94485e-15
2.05858e-09
-1.24538e-07
-4.09426e-15
1.97057e-09
-1.28663e-07
-3.49632e-15
1.84001e-09
-1.32778e-07
-3.34328e-15
1.66482e-09
-1.36754e-07
-3.09006e-15
1.44402e-09
-1.40452e-07
-2.84193e-15
1.17748e-09
-1.43743e-07
-2.69054e-15
8.65834e-10
-1.46475e-07
-2.58659e-15
5.1023e-10
-1.48552e-07
-2.48574e-15
1.12367e-10
-1.49853e-07
-2.38215e-15
-3.25554e-10
-1.50294e-07
-2.28568e-15
-8.00746e-10
-1.49787e-07
-2.19843e-15
-1.30971e-09
-1.4824e-07
-2.10571e-15
-1.84831e-09
-1.45603e-07
-2.02743e-15
-2.41149e-09
-1.41776e-07
-1.968e-15
-2.99344e-09
-1.36705e-07
-1.73716e-15
-3.58763e-09
-1.30319e-07
-1.65935e-15
-4.18679e-09
-1.2255e-07
-1.57046e-15
-4.78314e-09
-1.13339e-07
-1.47608e-15
-5.36861e-09
-1.02625e-07
-1.38187e-15
-5.93505e-09
-9.03635e-08
-1.28524e-15
-6.47444e-09
-7.65053e-08
-1.18767e-15
-6.97902e-09
-6.10194e-08
-1.09033e-15
-4.3881e-08
-9.94573e-16
1.44863e-11
-7.05167e-09
-9.25416e-17
4.51561e-11
-2.14899e-08
-1.29265e-15
-3.39965e-10
-3.46732e-08
-1.2335e-14
-5.979e-10
-4.97526e-08
-7.55141e-16
-5.22152e-11
-7.97866e-08
-6.47532e-15
6.05008e-10
-9.92116e-08
-2.10461e-15
1.12915e-09
-1.00059e-07
2.76856e-15
1.76704e-09
-8.72995e-08
-4.58535e-15
1.94882e-09
-7.44749e-08
-7.51207e-15
1.89757e-09
-8.3283e-08
-7.2597e-15
1.88936e-09
-9.31456e-08
-6.83251e-15
1.90433e-09
-1.01152e-07
-6.73846e-15
1.93558e-09
-1.07415e-07
-6.39152e-15
1.96529e-09
-1.12263e-07
-5.81698e-15
1.97789e-09
-1.16455e-07
-5.1784e-15
1.96384e-09
-1.2046e-07
-4.37287e-15
1.91612e-09
-1.2449e-07
-4.4188e-15
1.8292e-09
-1.28576e-07
-3.75381e-15
1.69886e-09
-1.32647e-07
-3.54229e-15
1.52221e-09
-1.36577e-07
-3.24352e-15
1.29754e-09
-1.40228e-07
-2.9629e-15
1.02411e-09
-1.4347e-07
-2.78862e-15
7.0214e-10
-1.46153e-07
-2.66592e-15
3.32509e-10
-1.48182e-07
-2.54911e-15
-8.31499e-11
-1.49437e-07
-2.43327e-15
-5.42538e-10
-1.49834e-07
-2.32711e-15
-1.04263e-09
-1.49287e-07
-2.23294e-15
-1.57957e-09
-1.47703e-07
-2.13487e-15
-2.14878e-09
-1.45034e-07
-2.05263e-15
-2.74473e-09
-1.4118e-07
-1.9903e-15
-3.36108e-09
-1.36088e-07
-1.75293e-15
-3.99077e-09
-1.2969e-07
-1.67329e-15
-4.62601e-09
-1.21915e-07
-1.58306e-15
-5.25851e-09
-1.12706e-07
-1.48769e-15
-5.87965e-09
-1.02004e-07
-1.39299e-15
-6.48066e-09
-8.97625e-08
-1.29611e-15
-7.05282e-09
-7.59332e-08
-1.19868e-15
-7.58745e-09
-6.04848e-08
-1.10186e-15
-4.3393e-08
-1.00747e-15
1.4489e-11
-7.06616e-09
-7.46318e-16
4.24819e-11
-2.15179e-08
-8.2387e-16
-4.08245e-10
-3.42225e-08
-1.07027e-14
-6.25514e-10
-4.95353e-08
1.33621e-15
9.86453e-11
-8.05108e-08
-7.11385e-15
7.6936e-10
-9.98823e-08
-2.28311e-15
1.08135e-09
-1.00371e-07
2.99458e-15
1.55921e-09
-8.77774e-08
-6.89789e-15
1.85003e-09
-7.47657e-08
-4.88487e-15
1.78456e-09
-8.32175e-08
-7.27775e-15
1.75735e-09
-9.31183e-08
-7.63936e-15
1.75782e-09
-1.01152e-07
-7.53414e-15
1.78065e-09
-1.07438e-07
-7.08729e-15
1.80712e-09
-1.1229e-07
-6.35283e-15
1.8196e-09
-1.16468e-07
-5.6062e-15
1.80707e-09
-1.20447e-07
-4.71403e-15
1.76142e-09
-1.24445e-07
-4.65361e-15
1.67613e-09
-1.28491e-07
-3.94984e-15
1.5461e-09
-1.32517e-07
-3.70168e-15
1.36761e-09
-1.36399e-07
-3.37428e-15
1.13827e-09
-1.39998e-07
-3.06235e-15
8.56828e-10
-1.43188e-07
-2.86671e-15
5.23111e-10
-1.4582e-07
-2.72853e-15
1.37839e-10
-1.47797e-07
-2.60043e-15
-2.97355e-10
-1.49002e-07
-2.47519e-15
-7.80009e-10
-1.49351e-07
-2.36188e-15
-1.30679e-09
-1.4876e-07
-2.26207e-15
-1.87345e-09
-1.47136e-07
-2.15981e-15
-2.47489e-09
-1.44432e-07
-2.07432e-15
-3.10504e-09
-1.4055e-07
-2.00971e-15
-3.75699e-09
-1.35436e-07
-1.76599e-15
-4.4231e-09
-1.29023e-07
-1.68535e-15
-5.09499e-09
-1.21243e-07
-1.59425e-15
-5.7638e-09
-1.12037e-07
-1.49817e-15
-6.42031e-09
-1.01348e-07
-1.40315e-15
-7.0551e-09
-8.91277e-08
-1.30608e-15
-7.6587e-09
-7.53295e-08
-1.20877e-15
-8.2216e-09
-5.99219e-08
-1.11236e-15
-4.28808e-08
-1.01913e-15
1.44194e-11
-7.08059e-09
-4.8486e-16
4.30504e-11
-2.15465e-08
-2.62249e-15
-4.44492e-10
-3.37349e-08
-6.75869e-15
-4.76825e-10
-4.9503e-08
3.28402e-15
4.59408e-10
-8.1447e-08
-1.01564e-14
9.76005e-10
-1.00399e-07
-5.26709e-15
9.39011e-10
-1.00334e-07
2.78512e-15
1.29889e-09
-8.81373e-08
-2.12851e-15
1.73661e-09
-7.52035e-08
-4.37395e-15
1.662e-09
-8.31429e-08
-7.59413e-15
1.61506e-09
-9.30714e-08
-8.57795e-15
1.60067e-09
-1.01138e-07
-8.3935e-15
1.61561e-09
-1.07453e-07
-7.82863e-15
1.6401e-09
-1.12314e-07
-7.02036e-15
1.65387e-09
-1.16481e-07
-6.15109e-15
1.64404e-09
-1.20438e-07
-5.21355e-15
1.60118e-09
-1.24402e-07
-4.89189e-15
1.51765e-09
-1.28407e-07
-4.14127e-15
1.38745e-09
-1.32387e-07
-3.83814e-15
1.20609e-09
-1.36217e-07
-3.48277e-15
9.70578e-10
-1.39763e-07
-3.14845e-15
6.79225e-10
-1.42897e-07
-2.93407e-15
3.31616e-10
-1.45472e-07
-2.7803e-15
-7.16045e-11
-1.47394e-07
-2.64013e-15
-5.28704e-10
-1.48545e-07
-2.50639e-15
-1.03697e-09
-1.48843e-07
-2.38723e-15
-1.5927e-09
-1.48204e-07
-2.28357e-15
-2.19114e-09
-1.46538e-07
-2.17872e-15
-2.82667e-09
-1.43797e-07
-2.09143e-15
-3.49259e-09
-1.39884e-07
-2.02567e-15
-4.1814e-09
-1.34747e-07
-1.77639e-15
-4.88482e-09
-1.2832e-07
-1.69539e-15
-5.59387e-09
-1.20534e-07
-1.60387e-15
-6.29905e-09
-1.11332e-07
-1.50741e-15
-6.99053e-09
-1.00656e-07
-1.41229e-15
-7.65823e-09
-8.846e-08
-1.31515e-15
-8.29195e-09
-7.46958e-08
-1.21796e-15
-8.88139e-09
-5.93325e-08
-1.12188e-15
-4.23466e-08
-1.02964e-15
1.43328e-11
-7.09492e-09
-7.92776e-17
4.81149e-11
-2.15803e-08
-3.61664e-16
-4.24257e-10
-3.32626e-08
-5.25078e-15
-1.10195e-10
-4.9817e-08
6.26156e-15
9.89889e-10
-8.25471e-08
-1.05951e-14
1.15327e-09
-1.00562e-07
-7.06039e-15
6.82521e-10
-9.98632e-08
-2.3616e-15
1.01949e-09
-8.84743e-08
-2.84643e-15
1.6188e-09
-7.58028e-08
-5.52198e-15
1.53876e-09
-8.30629e-08
-8.5277e-15
1.47137e-09
-9.3004e-08
-9.02395e-15
1.44193e-09
-1.01109e-07
-8.90583e-15
1.44941e-09
-1.0746e-07
-8.27833e-15
1.47299e-09
-1.12338e-07
-7.35143e-15
1.48912e-09
-1.16497e-07
-6.42834e-15
1.48272e-09
-1.20431e-07
-5.40979e-15
1.44276e-09
-1.24362e-07
-5.03118e-15
1.36044e-09
-1.28325e-07
-4.24893e-15
1.22884e-09
-1.32255e-07
-3.93147e-15
1.04279e-09
-1.36031e-07
-3.54666e-15
7.98774e-10
-1.39519e-07
-3.19221e-15
4.94819e-10
-1.42593e-07
-2.9683e-15
1.30394e-10
-1.45107e-07
-2.80963e-15
-2.938e-10
-1.4697e-07
-2.66606e-15
-7.75815e-10
-1.48063e-07
-2.52871e-15
-1.31259e-09
-1.48306e-07
-2.40669e-15
-1.89994e-09
-1.47617e-07
-2.30032e-15
-2.53257e-09
-1.45905e-07
-2.19366e-15
-3.20426e-09
-1.43125e-07
-2.10507e-15
-3.90768e-09
-1.3918e-07
-2.0391e-15
-4.63465e-09
-1.3402e-07
-1.786e-15
-5.37626e-09
-1.27578e-07
-1.70382e-15
-6.1229e-09
-1.19788e-07
-1.61203e-15
-6.86442e-09
-1.10591e-07
-1.51546e-15
-7.59038e-09
-9.99304e-08
-1.42045e-15
-8.29004e-09
-8.77603e-08
-1.32334e-15
-8.95251e-09
-7.40333e-08
-1.2263e-15
-9.56679e-09
-5.87182e-08
-1.13047e-15
-4.17921e-08
-1.03907e-15
1.42225e-11
-7.10915e-09
-1.64811e-15
5.57483e-11
-2.16218e-08
-2.09073e-15
-3.50218e-10
-3.28566e-08
-4.37369e-15
4.163e-10
-5.05836e-08
4.88836e-15
1.56286e-09
-8.36937e-08
-9.68038e-15
1.19953e-09
-1.00199e-07
-6.96533e-15
3.25087e-10
-9.89888e-08
-8.70498e-15
7.67764e-10
-8.8917e-08
-8.35132e-15
1.51269e-09
-7.65477e-08
-8.06288e-15
1.42666e-09
-8.29768e-08
-8.7355e-15
1.33758e-09
-9.29149e-08
-9.29808e-15
1.29273e-09
-1.01064e-07
-9.1773e-15
1.29283e-09
-1.0746e-07
-8.54113e-15
1.31598e-09
-1.12361e-07
-7.55755e-15
1.33485e-09
-1.16516e-07
-6.61697e-15
1.33176e-09
-1.20428e-07
-5.53568e-15
1.29395e-09
-1.24324e-07
-5.15919e-15
1.21136e-09
-1.28242e-07
-4.33831e-15
1.07618e-09
-1.3212e-07
-3.99272e-15
8.82637e-10
-1.35838e-07
-3.59166e-15
6.26877e-10
-1.39263e-07
-3.22561e-15
3.06761e-10
-1.42273e-07
-2.99233e-15
-7.82018e-11
-1.44723e-07
-2.8254e-15
-5.27106e-10
-1.46521e-07
-2.67692e-15
-1.03766e-09
-1.47552e-07
-2.53664e-15
-1.60632e-09
-1.47738e-07
-2.41385e-15
-2.22838e-09
-1.46995e-07
-2.30734e-15
-2.89792e-09
-1.45236e-07
-2.20127e-15
-3.60805e-09
-1.42415e-07
-2.11338e-15
-4.35077e-09
-1.38438e-07
-2.04874e-15
-5.11723e-09
-1.33254e-07
-1.79232e-15
-5.89787e-09
-1.26798e-07
-1.71009e-15
-6.68244e-09
-1.19003e-07
-1.61861e-15
-7.46017e-09
-1.09813e-07
-1.52232e-15
-8.22001e-09
-9.91706e-08
-1.42766e-15
-8.9506e-09
-8.70298e-08
-1.33072e-15
-9.64041e-09
-7.33434e-08
-1.23386e-15
-1.02778e-08
-5.80808e-08
-1.13823e-15
-4.12193e-08
-1.04754e-15
1.40483e-11
-7.12319e-09
-4.11538e-16
6.30683e-11
-2.16708e-08
1.49686e-16
-2.53086e-10
-3.25404e-08
-2.87808e-15
9.48045e-10
-5.17847e-08
1.39913e-15
1.99502e-09
-8.47407e-08
-9.32911e-15
1.0286e-09
-9.92325e-08
-1.26294e-14
-6.26032e-11
-9.78976e-08
-9.43011e-15
5.96775e-10
-8.95764e-08
-1.65673e-14
1.43856e-09
-7.73895e-08
-1.35139e-14
1.33911e-09
-8.28774e-08
-8.47708e-15
1.22612e-09
-9.2802e-08
-9.33023e-15
1.16513e-09
-1.01003e-07
-9.28438e-15
1.15733e-09
-1.07453e-07
-8.65992e-15
1.1797e-09
-1.12383e-07
-7.67288e-15
1.20069e-09
-1.16537e-07
-6.71405e-15
1.19977e-09
-1.20427e-07
-5.58592e-15
1.16223e-09
-1.24287e-07
-5.20799e-15
1.07677e-09
-1.28157e-07
-4.34981e-15
9.34758e-10
-1.31978e-07
-4.00764e-15
7.2993e-10
-1.35633e-07
-3.60801e-15
4.58225e-10
-1.38991e-07
-3.24223e-15
1.17521e-10
-1.41932e-07
-3.0066e-15
-2.92468e-10
-1.44313e-07
-2.83613e-15
-7.7048e-10
-1.46043e-07
-2.68535e-15
-1.31374e-09
-1.47009e-07
-2.5425e-15
-1.91814e-09
-1.47133e-07
-2.41883e-15
-2.57832e-09
-1.46335e-07
-2.31156e-15
-3.28768e-09
-1.44526e-07
-2.20579e-15
-4.03865e-09
-1.41664e-07
-2.11864e-15
-4.82252e-09
-1.37654e-07
-2.0558e-15
-5.62978e-09
-1.32447e-07
-1.79605e-15
-6.45022e-09
-1.25977e-07
-1.71447e-15
-7.27295e-09
-1.1818e-07
-1.6238e-15
-8.08664e-09
-1.08999e-07
-1.52812e-15
-8.87964e-09
-9.83776e-08
-1.43404e-15
-9.64002e-09
-8.62694e-08
-1.33739e-15
-1.03557e-08
-7.26277e-08
-1.24075e-15
-1.10145e-08
-5.74221e-08
-1.14528e-15
-4.06301e-08
-1.0552e-15
1.36895e-11
-7.13689e-09
-1.30074e-15
6.8222e-11
-2.17254e-08
-1.01212e-15
-1.64473e-10
-3.23077e-08
-3.20308e-15
1.36274e-09
-5.33119e-08
-3.72089e-15
2.14979e-09
-8.55277e-08
-1.21004e-14
6.52507e-10
-9.77353e-08
-1.71153e-14
-3.64105e-10
-9.6881e-08
-1.69679e-14
5.50244e-10
-9.04907e-08
-1.72796e-14
1.41621e-09
-7.82554e-08
-5.61378e-15
1.28873e-09
-8.27499e-08
-7.93103e-15
1.14882e-09
-9.2662e-08
-9.16177e-15
1.0707e-09
-1.00925e-07
-9.20498e-15
1.05388e-09
-1.07436e-07
-8.55644e-15
1.07421e-09
-1.12404e-07
-7.57255e-15
1.09562e-09
-1.16559e-07
-6.63905e-15
1.09451e-09
-1.20426e-07
-5.51089e-15
1.05417e-09
-1.24246e-07
-5.16513e-15
9.62083e-10
-1.28065e-07
-4.2942e-15
8.08858e-10
-1.31825e-07
-3.96781e-15
5.87912e-10
-1.35412e-07
-3.57829e-15
2.95137e-10
-1.38698e-07
-3.21263e-15
-7.13959e-11
-1.41566e-07
-2.97886e-15
-5.11596e-10
-1.43872e-07
-2.8109e-15
-1.02369e-09
-1.45531e-07
-2.66481e-15
-1.60428e-09
-1.46429e-07
-2.52571e-15
-2.24859e-09
-1.46489e-07
-2.40711e-15
-2.95052e-09
-1.45633e-07
-2.30391e-15
-3.70277e-09
-1.43774e-07
-2.20215e-15
-4.49702e-09
-1.4087e-07
-2.11838e-15
-5.32388e-09
-1.36827e-07
-2.05928e-15
-6.17315e-09
-1.31597e-07
-1.7971e-15
-7.03402e-09
-1.25116e-07