/*--------------------------------*- C++ -*----------------------------------*\
| =========                 |                                                 |
| \\      /  F ield         | OpenFOAM: The Open Source CFD Toolbox           |
|  \\    /   O peration     | Version:  v2012                                 |
|   \\  /    A nd           | Website:  www.openfoam.com                      |
|    \\/     M anipulation  |                                                 |
\*---------------------------------------------------------------------------*/
FoamFile
{
    version     2.0;
    format      ascii;
    class       surfaceScalarField;
    location    "1";
    object      phi;
}
// * * * * * * * * * * * * * * * * * * * * * * * * * * * * * * * * * * * * * //

dimensions      [0 3 -1 0 0 0 0];
oriented        oriented;


internalField   nonuniform List<scalar> 
39020
(
5.17404e-15
-6.94689e-13
7.74627e-19
2.11989e-14
-2.1593e-12
6.49157e-18
4.86784e-14
-3.74607e-12
3.10665e-19
8.9233e-14
-5.46347e-12
1.3484e-17
1.44198e-13
-7.32178e-12
3.85567e-17
2.15632e-13
-9.32853e-12
8.21257e-17
3.05285e-13
-1.14932e-11
1.25946e-16
4.15969e-13
-1.38244e-11
2.43799e-16
5.50117e-13
-1.63291e-11
2.15416e-16
7.13333e-13
-1.90181e-11
6.68948e-16
8.96709e-13
-2.18952e-11
5.94648e-17
1.11286e-12
-2.49694e-11
5.09e-16
1.36266e-12
-2.82494e-11
3.74419e-16
1.64794e-12
-3.17376e-11
4.50278e-16
1.96831e-12
-3.54437e-11
3.71386e-16
2.32677e-12
-3.9367e-11
4.56542e-16
2.72415e-12
-4.35125e-11
4.2032e-16
3.16265e-12
-4.78802e-11
5.51669e-16
3.64156e-12
-5.24682e-11
6.26604e-16
4.15844e-12
-5.72741e-11
3.41461e-16
4.7137e-12
-6.22884e-11
3.43396e-16
5.30374e-12
-6.7511e-11
1.4355e-16
5.93176e-12
-7.2931e-11
-3.33534e-17
6.60551e-12
-7.85483e-11
-9.07105e-17
7.32354e-12
-8.43191e-11
-1.78291e-16
8.07379e-12
-9.01922e-11
-1.18898e-16
8.83793e-12
-9.61153e-11
1.58117e-16
9.59701e-12
-1.02064e-10
8.94604e-17
1.03586e-11
-1.08094e-10
2.10248e-16
1.11396e-11
-1.14206e-10
2.12388e-16
1.19488e-11
-1.2037e-10
1.74577e-17
1.27782e-11
-1.26456e-10
1.56724e-17
1.35939e-11
-1.32296e-10
-1.46941e-16
1.43633e-11
-1.3779e-10
-2.78174e-16
1.5077e-11
-1.42937e-10
-1.47581e-16
1.57389e-11
-1.47767e-10
6.1025e-17
1.63502e-11
-1.52246e-10
9.82194e-17
1.69026e-11
-1.56284e-10
2.48072e-18
1.7379e-11
-1.59745e-10
-6.75895e-17
1.7759e-11
-1.62475e-10
-3.40427e-17
1.80253e-11
-1.64494e-10
7.99447e-17
1.81684e-11
-1.65681e-10
1.89011e-16
1.8184e-11
-1.66128e-10
1.99807e-16
1.807e-11
-1.65741e-10
1.06774e-16
1.78214e-11
-1.64443e-10
-2.12137e-17
1.74282e-11
-1.62242e-10
-1.03544e-16
1.68809e-11
-1.58922e-10
-1.23523e-16
1.61747e-11
-1.54598e-10
-1.02637e-16
1.5316e-11
-1.49288e-10
-1.53327e-17
1.43116e-11
-1.43052e-10
3.18119e-17
1.31674e-11
-1.35931e-10
2.34802e-17
1.18923e-11
-1.27871e-10
6.38298e-18
1.04986e-11
-1.18926e-10
-2.96669e-18
9.00284e-12
-1.09114e-10
-3.9508e-18
7.42722e-12
-9.83847e-11
-2.1295e-18
5.80056e-12
-8.66302e-11
-5.35638e-19
4.15998e-12
-7.36096e-11
-7.12956e-20
2.56228e-12
-5.87449e-11
1.36762e-19
1.07797e-12
-4.09494e-11
2.22554e-19
-1.74219e-11
4.96615e-19
6.7389e-15
-7.01426e-13
1.32062e-18
2.72902e-14
-2.17992e-12
-2.82436e-18
6.23008e-14
-3.78099e-12
5.79584e-18
1.12965e-13
-5.514e-12
-1.39201e-17
1.8035e-13
-7.38906e-12
-2.82834e-17
2.66037e-13
-9.41394e-12
-4.46279e-17
3.71154e-13
-1.1598e-11
-8.71145e-17
4.9759e-13
-1.39501e-11
-1.27336e-16
6.47475e-13
-1.64772e-11
-2.87212e-16
8.25587e-13
-1.91903e-11
-1.30974e-17
1.02196e-12
-2.20965e-11
-6.1153e-16
1.24974e-12
-2.51995e-11
-1.68203e-16
1.50756e-12
-2.85068e-11
-3.03161e-16
1.79865e-12
-3.20256e-11
-2.21851e-16
2.1229e-12
-3.57646e-11
-3.01836e-16
2.48298e-12
-3.97222e-11
-3.4371e-16
2.88198e-12
-4.39031e-11
-4.13776e-16
3.32129e-12
-4.83076e-11
-4.40727e-16
3.79731e-12
-5.29346e-11
-6.54949e-16
4.31452e-12
-5.77765e-11
-1.80154e-16
4.86629e-12
-6.28272e-11
-3.34661e-17
5.44606e-12
-6.8085e-11
-2.08216e-16
6.06403e-12
-7.35328e-11
-4.77476e-16
6.74109e-12
-7.91702e-11
-5.75272e-16
7.48012e-12
-8.49656e-11
-6.26172e-16
8.25668e-12
-9.08819e-11
-3.4228e-16
9.02741e-12
-9.68717e-11
2.98359e-16
9.75605e-12
-1.029e-10
4.79739e-16
1.04661e-11
-1.08979e-10
8.36314e-16
1.12085e-11
-1.15086e-10
7.29505e-16
1.20182e-11
-1.21194e-10
1.3966e-16
1.28852e-11
-1.27208e-10
-1.51367e-16
1.37404e-11
-1.33003e-10
-6.01781e-16
1.45194e-11
-1.38494e-10
-7.99035e-16
1.52129e-11
-1.43646e-10
-3.77952e-16
1.58463e-11
-1.48453e-10
1.48177e-16
1.64401e-11
-1.5287e-10
2.59533e-16
1.69907e-11
-1.56818e-10
1.54869e-17
1.74742e-11
-1.60186e-10
-1.52562e-16
1.78581e-11
-1.62831e-10
-7.46641e-17
1.8117e-11
-1.64773e-10
1.93384e-16
1.82431e-11
-1.65871e-10
4.51527e-16
1.82407e-11
-1.66196e-10
4.72845e-16
1.81157e-11
-1.65647e-10
2.45047e-16
1.78651e-11
-1.64167e-10
-5.96653e-17
1.7474e-11
-1.6179e-10
-2.60914e-16
1.69248e-11
-1.58323e-10
-2.98014e-16
1.62094e-11
-1.53873e-10
-2.6902e-16
1.53399e-11
-1.4843e-10
-2.36553e-17
1.43268e-11
-1.42049e-10
8.49085e-17
1.31759e-11
-1.34784e-10
6.38999e-17
1.18951e-11
-1.26589e-10
1.68234e-17
1.04958e-11
-1.17525e-10
-8.07427e-18
8.99445e-12
-1.07611e-10
-1.08205e-17
7.41305e-12
-9.68027e-11
-5.37694e-18
5.78041e-12
-8.49974e-11
-8.32359e-19
4.13339e-12
-7.19624e-11
6.19204e-19
2.52833e-12
-5.71395e-11
6.30728e-19
1.0371e-12
-3.94578e-11
5.41678e-19
-1.63847e-11
1.02392e-18
6.63054e-15
-7.08052e-13
4.4308e-19
2.67151e-14
-2.19999e-12
2.80455e-18
6.08934e-14
-3.81523e-12
1.06112e-17
1.09989e-13
-5.56361e-12
-2.07186e-17
1.76672e-13
-7.45522e-12
5.54986e-17
2.61271e-13
-9.49844e-12
-3.2743e-17
3.65777e-13
-1.17025e-11
-1.28664e-17
4.92365e-13
-1.40766e-11
-1.77803e-17
6.42656e-13
-1.66276e-11
-6.63612e-17
8.19909e-13
-1.93665e-11
1.31262e-17
1.02532e-12
-2.22986e-11
-4.85777e-17
1.26541e-12
-2.54308e-11
4.71868e-16
1.52697e-12
-2.8772e-11
-3.43662e-16
1.82478e-12
-3.23249e-11
9.72928e-17
2.15892e-12
-3.60988e-11
-5.34045e-17
2.52936e-12
-4.00923e-11
-2.13973e-16
2.94019e-12
-4.43096e-11
-2.57393e-16
3.39208e-12
-4.87516e-11
-3.05494e-16
3.88243e-12
-5.34184e-11
-4.46174e-16
4.41209e-12
-5.83007e-11
-3.00022e-16
4.97381e-12
-6.33893e-11
-1.42133e-16
5.5602e-12
-6.86825e-11
-2.82899e-16
6.18224e-12
-7.41622e-11
-7.65276e-16
6.86702e-12
-7.98271e-11
-1.23259e-15
7.6243e-12
-8.56484e-11
-1.4195e-15
8.42596e-12
-9.15973e-11
-8.60459e-16
9.21279e-12
-9.76344e-11
2.96243e-16
9.93864e-12
-1.03718e-10
1.11116e-15
1.0629e-11
-1.09838e-10
1.70175e-15
1.13536e-11
-1.15947e-10
1.35954e-15
1.21675e-11
-1.22017e-10
3.15359e-16
1.3061e-11
-1.27974e-10
-4.52628e-16
1.39456e-11
-1.33731e-10
-1.1475e-15
1.47358e-11
-1.39211e-10
-1.27886e-15
1.54178e-11
-1.44358e-10
-5.72997e-16
1.60306e-11
-1.49135e-10
2.45619e-16
1.66097e-11
-1.53488e-10
4.41225e-16
1.71568e-11
-1.57346e-10
7.50497e-17
1.76437e-11
-1.60619e-10
-1.95905e-16
1.80286e-11
-1.6318e-10
-1.1259e-16
1.82789e-11
-1.65045e-10
2.62054e-16
1.83872e-11
-1.66056e-10
6.43991e-16
1.83641e-11
-1.66258e-10
6.83903e-16
1.82227e-11
-1.65545e-10
3.52851e-16
1.7963e-11
-1.63875e-10
-9.75189e-17
1.75666e-11
-1.61317e-10
-4.01795e-16
1.70087e-11
-1.57703e-10
-4.6228e-16
1.6278e-11
-1.53131e-10
-4.19085e-16
1.53913e-11
-1.47558e-10
-3.40128e-17
1.43627e-11
-1.41035e-10
1.37093e-16
1.31984e-11
-1.33624e-10
1.06218e-16
1.19053e-11
-1.25294e-10
2.96166e-17
1.04941e-11
-1.16111e-10
-1.24319e-17
8.98095e-12
-1.06096e-10
-1.77349e-17
7.38769e-12
-9.52091e-11
-8.58167e-18
5.7431e-12
-8.33531e-11
-5.47671e-19
4.08416e-12
-7.03036e-11
2.09913e-18
2.4685e-12
-5.55237e-11
1.84505e-18
9.81623e-13
-3.79708e-11
1.45244e-18
-1.54032e-11
1.99105e-18
7.80196e-15
-7.15851e-13
3.18538e-19
3.1435e-14
-2.22361e-12
3.22681e-18
7.15337e-14
-3.85534e-12
1.75267e-17
1.28726e-13
-5.62126e-12
-1.16289e-17
2.05486e-13
-7.53148e-12
5.20992e-17
3.01774e-13
-9.59461e-12
-3.26444e-17
4.19094e-13
-1.18198e-11
-1.73536e-17
5.5913e-13
-1.42164e-11
-1.10822e-17
7.2279e-13
-1.67914e-11
-2.6917e-17
9.12367e-13
-1.95559e-11
-1.02789e-17
1.1307e-12
-2.25144e-11
-2.15894e-16
1.38325e-12
-2.56751e-11
2.83648e-16
1.65388e-12
-2.90477e-11
-4.23572e-16
1.96005e-12
-3.26333e-11
2.23543e-16
2.302e-12
-3.64415e-11
9.72875e-17
2.67928e-12
-4.04707e-11
-7.24853e-17
3.09612e-12
-4.47249e-11
-1.13729e-16
3.55332e-12
-4.92052e-11
-2.64583e-16
4.05188e-12
-5.39112e-11
-3.11137e-16
4.59211e-12
-5.88336e-11
4.48338e-17
5.16142e-12
-6.39631e-11
1.20766e-16
5.75163e-12
-6.92967e-11
-7.10804e-17
6.3757e-12
-7.48152e-11
-5.87763e-16
7.06451e-12
-8.05148e-11
-1.09593e-15
7.83234e-12
-8.63647e-11
-1.31479e-15
8.64914e-12
-9.23387e-11
-8.24788e-16
9.44845e-12
-9.84023e-11
2.36531e-16
1.01811e-11
-1.04515e-10
1.25424e-15
1.087e-11
-1.1066e-10
1.88378e-15
1.15913e-11
-1.16779e-10
1.5042e-15
1.24102e-11
-1.22836e-10
3.86891e-16
1.33165e-11
-1.28763e-10
-6.47296e-16
1.42155e-11
-1.3449e-10
-1.43526e-15
1.50127e-11
-1.39949e-10
-1.47785e-15
1.56896e-11
-1.45074e-10
-6.40449e-16
1.629e-11
-1.49813e-10
3.42402e-16
1.68574e-11
-1.541e-10
6.14357e-16
1.7397e-11
-1.5787e-10
1.98875e-16
1.78796e-11
-1.61047e-10
-1.56838e-16
1.8259e-11
-1.6352e-10
-1.42104e-16
1.84993e-11
-1.65303e-10
2.14496e-16
1.85927e-11
-1.6622e-10
6.25651e-16
1.85515e-11
-1.66299e-10
6.91099e-16
1.83913e-11
-1.65422e-10
3.59826e-16
1.81137e-11
-1.63566e-10
-1.08351e-16
1.76999e-11
-1.6083e-10
-4.34044e-16
1.71239e-11
-1.57067e-10
-5.07743e-16
1.6374e-11
-1.52371e-10
-4.51576e-16
1.5467e-11
-1.46667e-10
-4.10083e-17
1.44183e-11
-1.4e-10
1.51591e-16
1.32348e-11
-1.32446e-10
1.22043e-16
1.19234e-11
-1.23982e-10
3.63257e-17
1.04949e-11
-1.14679e-10
-1.33186e-17
8.96473e-12
-1.04565e-10
-2.06748e-17
7.3549e-12
-9.35992e-11
-1.01417e-17
5.69428e-12
-8.1693e-11
-2.08389e-19
4.0207e-12
-6.86305e-11
3.18132e-18
2.39532e-12
-5.38986e-11
2.6592e-18
9.23913e-13
-3.64996e-11
1.83527e-18
-1.44796e-11
1.99974e-18
7.72126e-15
-7.23567e-13
6.08471e-19
3.11485e-14
-2.24702e-12
2.76975e-18
7.10042e-14
-3.89524e-12
1.03303e-17
1.27942e-13
-5.6788e-12
-3.77258e-17
2.04867e-13
-7.60788e-12
4.015e-17
3.02094e-13
-9.6914e-12
-2.19201e-17
4.21119e-13
-1.19386e-11
-3.90996e-17
5.63897e-13
-1.4359e-11
-7.35668e-17
7.32077e-13
-1.69599e-11
-2.87799e-17
9.27965e-13
-1.97517e-11
-2.18007e-17
1.15487e-12
-2.27394e-11
-1.7976e-16
1.41831e-12
-2.59309e-11
3.40876e-16
1.70131e-12
-2.93366e-11
-4.25142e-16
2.0219e-12
-3.29564e-11
2.55213e-16
2.37992e-12
-3.68002e-11
1.41247e-16
2.77425e-12
-4.08665e-11
8.93778e-18
3.20805e-12
-4.51585e-11
1.68717e-18
3.6819e-12
-4.96772e-11
-1.9031e-16
4.20018e-12
-5.44219e-11
-1.61391e-16
4.761e-12
-5.93839e-11
1.25906e-16
5.3484e-12
-6.45531e-11
3.01677e-16
5.95308e-12
-6.99265e-11
2.51095e-16
6.58999e-12
-7.54849e-11
-1.83311e-16
7.29298e-12
-8.12222e-11
-7.18437e-16
8.07824e-12
-8.71041e-11
-9.73187e-16
8.91312e-12
-9.31023e-11
-6.24306e-16
9.72703e-12
-9.91836e-11
1.95442e-16
1.04708e-11
-1.0531e-10
1.08005e-15
1.11673e-11
-1.11468e-10
1.61838e-15
1.18957e-11
-1.17599e-10
1.30312e-15
1.27247e-11
-1.23658e-10
3.51988e-16
1.36416e-11
-1.29575e-10
-6.70668e-16
1.45499e-11
-1.35279e-10
-1.44391e-15
1.53525e-11
-1.40708e-10
-1.45931e-15
1.6028e-11
-1.45796e-10
-6.157e-16
1.66213e-11
-1.50486e-10
4.33413e-16
1.7179e-11
-1.54706e-10
7.82193e-16
1.7708e-11
-1.58392e-10
3.65549e-16
1.81795e-11
-1.61474e-10
-6.17244e-17
1.85476e-11
-1.6385e-10
-1.74477e-16
1.87762e-11
-1.65537e-10
6.28493e-17
1.88566e-11
-1.6635e-10
4.29497e-16
1.87991e-11
-1.66301e-10
5.29381e-16
1.86176e-11
-1.65269e-10
2.85956e-16
1.83138e-11
-1.63239e-10
-8.98621e-17
1.78713e-11
-1.60332e-10
-3.6837e-16
1.72685e-11
-1.56419e-10
-4.38225e-16
1.64953e-11
-1.51589e-10
-3.85278e-16
1.55653e-11
-1.45749e-10
-3.96964e-17
1.44923e-11
-1.3894e-10
1.30739e-16
1.32844e-11
-1.31243e-10
1.11817e-16
1.19496e-11
-1.22646e-10
3.6088e-17
1.04986e-11
-1.13226e-10
-1.08984e-17
8.94714e-12
-1.03012e-10
-1.92196e-17
7.31703e-12
-9.1969e-11
-9.54828e-18
5.63761e-12
-8.00141e-11
5.22462e-19
3.94851e-12
-6.69419e-11
4.08947e-18
2.31609e-12
-5.22664e-11
3.2859e-18
8.66809e-13
-3.50504e-11
1.95204e-18
-1.36128e-11
1.63308e-18
8.62657e-15
-7.3219e-13
3.51202e-19
3.48508e-14
-2.2732e-12
6.38085e-18
7.93933e-14
-3.93982e-12
1.01623e-17
1.42862e-13
-5.74287e-12
-3.67209e-17
2.28021e-13
-7.6923e-12
6.73992e-17
3.35e-13
-9.79743e-12
4.0419e-17
4.6491e-13
-1.20676e-11
7.29563e-17
6.19234e-13
-1.45122e-11
6.92972e-17
7.99797e-13
-1.71404e-11
6.56312e-18
1.00803e-12
-1.99601e-11
-4.31212e-17
1.24723e-12
-2.29769e-11
-1.86293e-16
1.52275e-12
-2.61993e-11
3.4039e-16
1.81783e-12
-2.96376e-11
-4.37607e-16
2.15054e-12
-3.32917e-11
2.32229e-16
2.52101e-12
-3.71712e-11
1.24364e-16
2.92834e-12
-4.12747e-11
3.3948e-17
3.37481e-12
-4.56051e-11
3.23845e-17
3.86146e-12
-5.01632e-11
-2.00234e-16
4.39516e-12
-5.49471e-11
-1.63347e-16
4.9741e-12
-5.99483e-11
2.23559e-16
5.57766e-12
-6.51578e-11
3.14161e-16
6.19554e-12
-7.05713e-11
2.22255e-16
6.84646e-12
-7.6168e-11
-1.18022e-16
7.56732e-12
-8.19417e-11
-5.5611e-16
8.37453e-12
-8.78567e-11
-7.32704e-16
9.23072e-12
-9.38821e-11
-4.27584e-16
1.00601e-11
-9.99825e-11
1.90508e-16
1.08137e-11
-1.0612e-10
9.12612e-16
1.15176e-11
-1.12287e-10
1.33112e-15
1.22563e-11
-1.18426e-10
1.07907e-15
1.30996e-11
-1.2449e-10
3.20316e-16
1.40306e-11
-1.30403e-10
-6.07532e-16
1.49493e-11
-1.36086e-10
-1.33631e-15
1.57572e-11
-1.41477e-10
-1.36686e-15
1.64322e-11
-1.46517e-10
-5.79636e-16
1.70202e-11
-1.51152e-10
5.01433e-16
1.75692e-11
-1.55306e-10
9.30246e-16
1.80857e-11
-1.58913e-10
5.49794e-16
1.85419e-11
-1.619e-10
6.14991e-17
1.8894e-11
-1.64169e-10
-2.12741e-16
1.91084e-11
-1.65741e-10
-1.58766e-16
1.91756e-11
-1.66432e-10
1.12445e-16
1.91019e-11
-1.66252e-10
2.53504e-16
1.88965e-11
-1.65077e-10
1.62651e-16
1.85597e-11
-1.62893e-10
-4.02569e-17
1.80797e-11
-1.59828e-10
-2.2011e-16
1.74426e-11
-1.55762e-10
-2.7937e-16
1.6642e-11
-1.50785e-10
-2.33065e-16
1.56854e-11
-1.44799e-10
-3.60761e-17
1.45841e-11
-1.37845e-10
7.91145e-17
1.3347e-11
-1.30009e-10
7.78595e-17
1.19839e-11
-1.21282e-10
2.89919e-17
1.05061e-11
-1.11747e-10
-6.26546e-18
8.9295e-12
-1.01434e-10
-1.44596e-17
7.27612e-12
-9.03155e-11
-7.60459e-18
5.57607e-12
-7.83145e-11
1.01247e-18
3.87157e-12
-6.52377e-11
4.25861e-18
2.2353e-12
-5.06302e-11
3.2005e-18
8.12089e-13
-3.36271e-11
1.37486e-18
-1.28005e-11
4.45711e-19
8.72434e-15
-7.40911e-13
5.31635e-19
3.52825e-14
-2.29974e-12
2.4335e-18
8.06272e-14
-3.98511e-12
6.92735e-18
1.45962e-13
-5.80811e-12
8.1014e-18
2.32605e-13
-7.77915e-12
-1.41266e-17
3.42152e-13
-9.90744e-12
-2.22556e-17
4.75688e-13
-1.22024e-11
4.21248e-17
6.32224e-13
-1.46737e-11
-2.84026e-16
8.23318e-13
-1.73286e-11
2.24734e-16
1.04192e-12
-2.01778e-11
-2.07565e-16
1.29256e-12
-2.32261e-11
-2.10786e-16
1.58163e-12
-2.64816e-11
3.34501e-16
1.89266e-12
-2.99543e-11
-4.08036e-16
2.2431e-12
-3.36442e-11
2.37449e-16
2.6329e-12
-3.75609e-11
1.25193e-16
3.0611e-12
-4.17028e-11
6.89681e-17
3.52851e-12
-4.60727e-11
3.56304e-17
4.03673e-12
-5.06708e-11
-1.94944e-16
4.59378e-12
-5.54946e-11
-1.33302e-16
5.19679e-12
-6.05358e-11
2.31711e-16
5.82276e-12
-6.57849e-11
3.43683e-16
6.46049e-12
-7.12376e-11
2.36344e-16
7.13106e-12
-7.68719e-11
-1.84323e-16
7.87514e-12
-8.2681e-11
-7.04897e-16
8.71018e-12
-8.8628e-11
-8.24575e-16
9.59358e-12
-9.46806e-11
-4.1151e-16
1.04428e-11
-1.00802e-10
2.79395e-16
1.12073e-11
-1.06954e-10
9.95292e-16
1.19182e-11
-1.1313e-10
1.31733e-15
1.26679e-11
-1.19274e-10
1.03064e-15
1.3529e-11
-1.25338e-10
3.24173e-16
1.44794e-11
-1.31242e-10
-5.68963e-16
1.54124e-11
-1.36901e-10
-1.27882e-15
1.62265e-11
-1.4225e-10
-1.33356e-15
1.69001e-11
-1.47237e-10
-5.81531e-16
1.74824e-11
-1.51813e-10
5.39906e-16
1.80226e-11
-1.55902e-10
1.0499e-15
1.85263e-11
-1.5943e-10
7.0806e-16
1.89654e-11
-1.62321e-10
1.68e-16
1.92988e-11
-1.64473e-10
-2.58355e-16
1.94955e-11
-1.65912e-10
-3.87153e-16
1.95466e-11
-1.66464e-10
-2.15548e-16
1.9454e-11
-1.66148e-10
-3.15496e-17
1.92212e-11
-1.64841e-10
4.25355e-17
1.88468e-11
-1.62524e-10
2.96845e-17
1.83237e-11
-1.59316e-10
-4.1707e-17
1.76468e-11
-1.55094e-10
-8.4493e-17
1.6814e-11
-1.49954e-10
-5.28729e-17
1.58268e-11
-1.43812e-10
-2.76873e-17
1.46928e-11
-1.36712e-10
1.50857e-17
1.34222e-11
-1.28739e-10
3.28855e-17
1.20264e-11
-1.19887e-10
1.7796e-17
1.05181e-11
-1.10237e-10
-7.31776e-19
8.91312e-12
-9.98283e-11
-7.67056e-18
7.23408e-12
-8.86363e-11
-4.47152e-18
5.51225e-12
-7.65929e-11
1.74916e-18
3.79307e-12
-6.35188e-11
4.28503e-18
2.156e-12
-4.89931e-11
2.95717e-18
7.61147e-13
-3.22321e-11
6.88436e-19
-1.2039e-11
-6.99001e-19
9.47953e-15
-7.50394e-13
-5.36779e-19
3.83866e-14
-2.32863e-12
4.4132e-18
8.77051e-14
-4.03439e-12
4.70469e-18
1.58666e-13
-5.87896e-12
1.01777e-17
2.52507e-13
-7.87298e-12
1.33165e-17
3.70747e-13
-1.00257e-11
3.79652e-17
5.14272e-13
-1.23465e-11
1.53583e-16
6.81773e-13
-1.48452e-11
-1.39483e-16
8.85103e-13
-1.75287e-11
2.59998e-16
1.11649e-12
-2.04085e-11
-2.37061e-16
1.38063e-12
-2.34888e-11
-2.45599e-16
1.68386e-12
-2.6778e-11
2.89382e-16
2.00989e-12
-3.02862e-11
-4.58165e-16
2.37615e-12
-3.4013e-11
1.79662e-16
2.78278e-12
-3.79678e-11
6.81159e-17
3.22913e-12
-4.21491e-11
3.67939e-17
3.7155e-12
-4.65595e-11
-5.30036e-19
4.24391e-12
-5.11988e-11
-2.33776e-16
4.82319e-12
-5.6064e-11
-1.64028e-16
5.44996e-12
-6.11464e-11
2.4383e-16
6.09866e-12
-6.64365e-11
3.04498e-16
6.75748e-12
-7.19289e-11
1.73029e-16
7.44962e-12
-7.76003e-11
-2.62243e-16
8.21966e-12
-8.34433e-11
-7.59468e-16
9.08592e-12
-8.94206e-11
-8.30856e-16
1.00001e-11
-9.55006e-11
-4.03457e-16
1.08723e-11
-1.01645e-10
3.23554e-16
1.16497e-11
-1.07814e-10
1.08839e-15
1.23684e-11
-1.14e-10
1.39272e-15
1.31301e-11
-1.20145e-10
1.0762e-15
1.40117e-11
-1.26202e-10
3.3599e-16
1.49858e-11
-1.32089e-10
-6.02552e-16
1.59369e-11
-1.37718e-10
-1.33025e-15
1.67578e-11
-1.43024e-10
-1.38769e-15
1.74284e-11
-1.47956e-10
-6.23359e-16
1.80034e-11
-1.5247e-10
5.59766e-16
1.85346e-11
-1.56492e-10
1.13199e-15
1.90265e-11
-1.59941e-10
8.07969e-16
1.94492e-11
-1.62732e-10
2.25594e-16
1.97622e-11
-1.64759e-10
-3.0578e-16
1.99373e-11
-1.66053e-10
-5.61239e-16
1.99665e-11
-1.66453e-10
-4.56623e-16
1.98493e-11
-1.65995e-10
-2.34421e-16
1.9585e-11
-1.64562e-10
-2.97295e-17
1.91704e-11
-1.62126e-10
1.067e-16
1.86019e-11
-1.58786e-10
1.1929e-16
1.78817e-11
-1.54406e-10
8.67039e-17
1.70118e-11
-1.4909e-10
1.05279e-16
1.59886e-11
-1.42784e-10
-2.19293e-17
1.48173e-11
-1.35538e-10
-4.36595e-17
1.35092e-11
-1.27431e-10
-1.01482e-17
1.20773e-11
-1.18455e-10
6.11057e-18
1.0535e-11
-1.08695e-10
3.91073e-18
8.89906e-12
-9.81922e-11
-1.28606e-18
7.19254e-12
-8.69299e-11
-1.48726e-18
5.44832e-12
-7.48489e-11
2.28312e-18
3.71548e-12
-6.17861e-11
4.01477e-18
2.08025e-12
-4.73579e-11
2.41373e-18
7.14736e-13
-3.08664e-11
-2.34913e-19
-1.13239e-11
-2.07722e-18
9.78054e-15
-7.60159e-13
1.17567e-18
3.95821e-14
-2.35843e-12
-9.38714e-19
9.05294e-14
-4.08532e-12
6.71484e-18
1.63944e-13
-5.95236e-12
8.33026e-18
2.61328e-13
-7.97033e-12
1.0654e-18
3.84437e-13
-1.01485e-11
3.2659e-17
5.34273e-13
-1.24966e-11
1.27544e-16
7.09741e-13
-1.50244e-11
-1.87275e-16
9.22958e-13
-1.77383e-11
2.14009e-16
1.16625e-12
-2.06505e-11
-3.07525e-16
1.44443e-12
-2.37647e-11
-3.13429e-16
1.76375e-12
-2.70894e-11
2.06615e-16
2.1083e-12
-3.06359e-11
-4.63736e-16
2.49491e-12
-3.44016e-11
1.71545e-16
2.92335e-12
-3.83965e-11
5.63736e-17
3.39318e-12
-4.26188e-11
4.31565e-17
3.90417e-12
-4.70711e-11
-2.45353e-18
4.45839e-12
-5.17526e-11
-2.43754e-16
5.06511e-12
-5.66601e-11
-1.48972e-16
5.72019e-12
-6.17846e-11
2.74688e-16
6.39638e-12
-6.71158e-11
3.71663e-16
7.08098e-12
-7.26481e-11
2.23085e-16
7.79901e-12
-7.83575e-11
-3.00133e-16
8.59837e-12
-8.42346e-11
-8.97635e-16
9.49821e-12
-9.02415e-11
-9.76035e-16
1.04457e-11
-9.6347e-11
-4.56138e-16
1.13444e-11
-1.02514e-10
4.15533e-16
1.21382e-11
-1.087e-10
1.28779e-15
1.28677e-11
-1.14896e-10
1.58966e-15
1.36438e-11
-1.2104e-10
1.18405e-15
1.4548e-11
-1.27084e-10
3.26377e-16
1.55484e-11
-1.32946e-10
-7.09724e-16
1.65196e-11
-1.38539e-10
-1.46497e-15
1.73474e-11
-1.43799e-10
-1.49313e-15
1.80135e-11
-1.48675e-10
-6.70576e-16
1.85794e-11
-1.53126e-10
5.77793e-16
1.91016e-11
-1.57075e-10
1.17736e-15
1.95832e-11
-1.6044e-10
8.30431e-16
1.99913e-11
-1.63127e-10
2.16653e-16
2.02835e-11
-1.65023e-10
-3.48261e-16
2.04325e-11
-1.66166e-10
-6.37598e-16
2.04324e-11
-1.66408e-10
-5.40858e-16
2.02829e-11
-1.65804e-10
-2.90689e-16
1.99823e-11
-1.64244e-10
-2.63207e-17
1.95262e-11
-1.61691e-10
1.74205e-16
1.89126e-11
-1.58221e-10
2.16872e-16
1.81475e-11
-1.53682e-10
1.84669e-16
1.7235e-11
-1.48186e-10
1.91266e-16
1.617e-11
-1.41712e-10
-2.01414e-17
1.49568e-11
-1.34318e-10
-8.04061e-17
1.36075e-11
-1.26079e-10
-3.76816e-17
1.21362e-11
-1.16984e-10
-1.88058e-18
1.05574e-11
-1.07116e-10
6.9756e-18
8.88818e-12
-9.65231e-11
3.34814e-18
7.1528e-12
-8.51946e-11
9.97115e-19
5.38595e-12
-7.30823e-11
3.05305e-18
3.64059e-12
-6.00409e-11
4.12069e-18
2.00934e-12
-4.57266e-11
2.1971e-18
6.73088e-13
-2.95299e-11
-8.30608e-19
-1.06505e-11
-2.98594e-18
1.04724e-14
-7.70625e-13
-1.056e-18
4.25518e-14
-2.39037e-12
9.94318e-18
9.71445e-14
-4.13999e-12
-7.57062e-18
1.75818e-13
-6.03117e-12
-6.25471e-18
2.80052e-13
-8.07454e-12
3.7352e-18
4.11559e-13
-1.02798e-11
3.05797e-17
5.71327e-13
-1.26567e-11
1.16874e-16
7.58326e-13
-1.52148e-11
-1.71927e-16
9.84125e-13
-1.79594e-11
3.59424e-16
1.24165e-12
-2.09045e-11
-1.77545e-17
1.53489e-12
-2.40536e-11
2.47304e-17
1.86953e-12
-2.74149e-11
4.8404e-16
2.23312e-12
-3.10028e-11
-2.67421e-16
2.63959e-12
-3.48095e-11
1.76959e-16
3.08906e-12
-3.88463e-11
5.52342e-17
3.58142e-12
-4.31113e-11
4.75007e-17
4.11666e-12
-4.76071e-11
-1.86331e-18
4.6967e-12
-5.23325e-11
-2.65586e-16
5.33124e-12
-5.72836e-11
-1.70744e-16
6.01587e-12
-6.24513e-11
2.91445e-16
6.721e-12
-6.78251e-11
3.43631e-16
7.43326e-12
-7.33985e-11
1.54478e-16
8.1802e-12
-7.91459e-11
-3.35247e-16
9.0121e-12
-8.50568e-11
-9.12503e-16
9.94782e-12
-9.10927e-11
-9.94531e-16
1.09304e-11
-9.72229e-11
-4.66183e-16
1.18572e-11
-1.0341e-10
4.30383e-16
1.26702e-11
-1.09613e-10
1.35699e-15
1.34145e-11
-1.15817e-10
1.68699e-15
1.42085e-11
-1.21958e-10
1.23718e-15
1.51377e-11
-1.27985e-10
2.8658e-16
1.61657e-11
-1.33817e-10
-8.38179e-16
1.71573e-11
-1.3937e-10
-1.6127e-15
1.79917e-11
-1.4458e-10
-1.58777e-15
1.86522e-11
-1.49398e-10
-6.88058e-16
1.9208e-11
-1.5378e-10
6.11185e-16
1.97211e-11
-1.5765e-10
1.1928e-15
2.01939e-11
-1.60922e-10
7.79568e-16
2.0589e-11
-1.63498e-10
1.44067e-16
2.08601e-11
-1.65264e-10
-3.80702e-16
2.09789e-11
-1.66257e-10
-6.05066e-16
2.09417e-11
-1.66341e-10
-4.52599e-16
2.07519e-11
-1.65586e-10
-1.87728e-16
2.04096e-11
-1.63892e-10
5.33641e-17
1.99113e-11
-1.61213e-10
2.17539e-16
1.92539e-11
-1.57607e-10
2.28946e-16
1.8443e-11
-1.52906e-10
1.84948e-16
1.74827e-11
-1.47234e-10
1.84165e-16
1.63698e-11
-1.40593e-10
-2.53793e-17
1.51101e-11
-1.33054e-10
-8.61169e-17
1.37162e-11
-1.24684e-10
-4.24654e-17
1.2203e-11
-1.1547e-10
-3.84207e-18
1.05852e-11
-1.05499e-10
7.27732e-18
8.88108e-12
-9.48191e-11
4.39739e-18
7.11586e-12
-8.34296e-11
1.81017e-18
5.32643e-12
-7.12932e-11
3.56123e-18
3.56968e-12
-5.82844e-11
4.36814e-18
1.94397e-12
-4.41008e-11
2.08276e-18
6.36137e-13
-2.82218e-11
-1.36394e-18
-1.00141e-11
-3.88805e-18
1.09102e-14
-7.81528e-13
8.6827e-19
4.42865e-14
-2.4237e-12
5.10252e-18
1.01431e-13
-4.19698e-12
-8.04514e-18
1.84342e-13
-6.1133e-12
3.97134e-17
2.92914e-13
-8.18366e-12
-5.68701e-17
4.30705e-13
-1.04176e-11
6.23978e-17
5.99016e-13
-1.28249e-11
5.53107e-17
7.98725e-13
-1.54153e-11
-4.61285e-17
1.03401e-12
-1.81956e-11
-2.51449e-17
1.30432e-12
-2.11776e-11
-2.2141e-16
1.61271e-12
-2.43652e-11
-1.74184e-16
1.95998e-12
-2.77665e-11
-2.5056e-16
2.34931e-12
-3.13929e-11
-4.38792e-17
2.78066e-12
-3.52413e-11
-5.5434e-17
3.25553e-12
-3.93215e-11
-7.21288e-18
3.77436e-12
-4.36309e-11
-1.63874e-17
4.33804e-12
-4.81717e-11
-1.01756e-17
4.94802e-12
-5.29424e-11
-2.93288e-16
5.61404e-12
-5.79383e-11
-1.74363e-16
6.3313e-12
-6.315e-11
3.32919e-16
7.06877e-12
-6.8567e-11
4.07949e-16
7.8127e-12
-7.41822e-11
1.9e-16
8.59231e-12
-7.99682e-11
-3.6603e-16
9.45981e-12
-8.59135e-11
-9.97821e-16
1.04336e-11
-9.19782e-11
-1.0619e-15
1.14527e-11
-9.81316e-11
-4.62729e-16
1.24094e-11
-1.04338e-10
5.0415e-16
1.32446e-11
-1.10554e-10
1.47306e-15
1.40077e-11
-1.16764e-10
1.78226e-15
1.48234e-11
-1.229e-10
1.25895e-15
1.57799e-11
-1.28906e-10
2.19607e-16
1.6836e-11
-1.34704e-10
-9.67756e-16
1.78475e-11
-1.40212e-10
-1.73331e-15
1.86877e-11
-1.4537e-10
-1.63817e-15
1.93422e-11
-1.50126e-10
-6.6025e-16
1.98875e-11
-1.54434e-10
6.65243e-16
2.03914e-11
-1.58215e-10
1.19047e-15
2.08558e-11
-1.61383e-10
6.76438e-16
2.12385e-11
-1.63842e-10
2.62323e-17
2.14879e-11
-1.65477e-10
-4.02753e-16
2.15728e-11
-1.66326e-10
-4.85991e-16
2.14921e-11
-1.66257e-10
-2.28386e-16
2.12546e-11
-1.65348e-10
3.81547e-17
2.08658e-11
-1.63506e-10
1.84745e-16
2.0324e-11
-1.60684e-10
2.27147e-16
1.96237e-11
-1.56929e-10
1.55311e-16
1.87658e-11
-1.52066e-10
8.91251e-17
1.7753e-11
-1.46225e-10
8.83804e-17
1.65867e-11
-1.39425e-10
-3.68295e-17
1.52761e-11
-1.31741e-10
-6.11462e-17
1.38347e-11
-1.23242e-10
-2.33775e-17
1.22771e-11
-1.13912e-10
1.36686e-18
1.06187e-11
-1.0384e-10
5.6234e-18
8.87816e-12
-9.30784e-11
2.23968e-18
7.08244e-12
-8.16341e-11
1.22667e-18
5.27068e-12
-6.94819e-11
4.16018e-18
3.50357e-12
-5.65175e-11
5.17733e-18
1.88445e-12
-4.24817e-11
2.4878e-18
6.03644e-13
-2.69408e-11
-1.47551e-18
-9.41011e-12
-4.31517e-18
1.16096e-14
-7.93136e-13
6.36796e-19
4.71605e-14
-2.45921e-12
5.53018e-18
1.08037e-13
-4.25775e-12
-1.19295e-17
1.96319e-13
-6.2009e-12
2.14492e-17
3.11915e-13
-8.29982e-12
-5.33299e-17
4.58407e-13
-1.05641e-11
5.91698e-17
6.37172e-13
-1.30035e-11
4.85202e-17
8.4921e-13
-1.56279e-11
-2.61943e-17
1.09827e-12
-1.84444e-11
1.14511e-16
1.38443e-12
-2.14644e-11
5.51072e-17
1.70997e-12
-2.46919e-11
1.52263e-16
2.07513e-12
-2.8135e-11
1.3681e-17
2.48651e-12
-3.18033e-11
1.33207e-16
2.94128e-12
-3.56959e-11
-6.92611e-17
3.44113e-12
-3.98214e-11
-3.07168e-17
3.98676e-12
-4.41772e-11
-3.47166e-17
4.57946e-12
-4.8765e-11
-2.53325e-17
5.22049e-12
-5.35827e-11
-3.12367e-16
5.91933e-12
-5.86255e-11
-1.98204e-16
6.67048e-12
-6.38833e-11
3.05706e-16
7.4418e-12
-6.93448e-11
3.49798e-16
8.21988e-12
-7.5002e-11
1.43915e-16
9.03532e-12
-8.08267e-11
-3.94137e-16
9.94167e-12
-8.68062e-11
-1.00531e-15
1.09561e-11
-9.28995e-11
-1.05095e-15
1.20131e-11
-9.90762e-11
-4.60781e-16
1.30008e-11
-1.053e-10
5.06642e-16
1.38604e-11
-1.11528e-10
1.49419e-15
1.46459e-11
-1.17741e-10
1.79737e-15
1.54872e-11
-1.23867e-10
1.2399e-15
1.64733e-11
-1.2985e-10
1.50531e-16
1.75576e-11
-1.3561e-10
-1.06797e-15
1.8588e-11
-1.4107e-10
-1.8074e-15
1.94333e-11
-1.46171e-10
-1.63989e-15
2.00817e-11
-1.5086e-10
-5.94473e-16
2.06168e-11
-1.55085e-10
7.37218e-16
2.11113e-11
-1.58768e-10
1.18403e-15
2.15664e-11
-1.61822e-10
5.53185e-16
2.19356e-11
-1.64158e-10
-1.0972e-16
2.21616e-11
-1.65661e-10
-4.1897e-16
2.22099e-11
-1.66372e-10
-3.26769e-16
2.20813e-11
-1.66156e-10
5.71915e-17
2.1791e-11
-1.65091e-10
3.15363e-16
2.13514e-11
-1.63085e-10
3.27019e-16
2.07638e-11
-1.60098e-10
2.00422e-16
2.00194e-11
-1.56178e-10
1.93244e-17
1.91126e-11
-1.51153e-10
-7.06124e-17
1.8043e-11
-1.45154e-10
-6.488e-17
1.6819e-11
-1.38204e-10
-5.08822e-17
1.5454e-11
-1.3038e-10
-1.33551e-17
1.39623e-11
-1.21752e-10
1.3482e-17
1.23583e-11
-1.12308e-10
1.19414e-17
1.06575e-11
-1.02137e-10
1.92663e-18
8.87958e-12
-9.12997e-11
-3.12219e-18
7.053e-12
-7.98077e-11
-1.07672e-18
5.2193e-12
-6.76487e-11
4.36257e-18
3.44272e-12
-5.47413e-11
6.06344e-18
1.83081e-12
-4.08698e-11
2.96437e-18
5.75281e-13
-2.56851e-11
-1.58926e-18
-8.83453e-12
-4.84894e-18
1.21878e-14
-8.05319e-13
6.40792e-19
4.95227e-14
-2.4965e-12
5.12565e-18
1.13512e-13
-4.32163e-12
-1.0615e-17
2.06368e-13
-6.29307e-12
3.227e-17
3.28103e-13
-8.42215e-12
-4.14096e-17
4.8245e-13
-1.07185e-11
8.88705e-17
6.70946e-13
-1.31921e-11
8.75736e-17
8.94608e-13
-1.58527e-11
2.75756e-17
1.15775e-12
-1.87069e-11
8.44813e-17
1.4602e-12
-2.17668e-11
-1.57497e-17
1.80436e-12
-2.50363e-11
7.51195e-17
2.19049e-12
-2.85229e-11
-6.85809e-17
2.62537e-12
-3.22361e-11
9.90634e-17
3.10603e-12
-3.6175e-11
-9.11103e-17
3.63357e-12
-4.03483e-11
-5.23183e-17
4.20906e-12
-4.47524e-11
-4.15046e-17
4.83383e-12
-4.93894e-11
-1.73426e-17
5.50879e-12
-5.4256e-11
-3.17959e-16
6.24319e-12
-5.93476e-11
-1.99211e-16
7.03126e-12
-6.4653e-11
3.45145e-16
7.83972e-12
-7.01601e-11
3.98591e-16
8.65498e-12
-7.58603e-11
1.51538e-16
9.50918e-12
-8.17244e-11
-4.44003e-16
1.04571e-11
-8.77383e-11
-1.07131e-15
1.15143e-11
-9.38597e-11
-1.06878e-15
1.26107e-11
-1.00058e-10
-4.01753e-16
1.36312e-11
-1.06299e-10
6.15985e-16
1.45177e-11
-1.12536e-10
1.59407e-15
1.53287e-11
-1.18749e-10
1.84193e-15
1.61987e-11
-1.24862e-10
1.21401e-15
1.72162e-11
-1.30817e-10
7.27974e-17
1.83287e-11
-1.36536e-10
-1.1553e-15
1.9377e-11
-1.41943e-10
-1.85337e-15
2.02269e-11
-1.46982e-10
-1.61402e-15
2.08696e-11
-1.51598e-10
-5.10488e-16
2.13951e-11
-1.55734e-10
8.19099e-16
2.18797e-11
-1.59309e-10
1.18647e-15
2.23235e-11
-1.6224e-10
4.41758e-16
2.26762e-11
-1.64444e-10
-2.36723e-16
2.2876e-11
-1.65813e-10
-4.36153e-16
2.28854e-11
-1.66389e-10
-1.81098e-16
2.27067e-11
-1.66029e-10
3.18471e-16
2.2361e-11
-1.64805e-10
5.62332e-16
2.18674e-11
-1.62624e-10
4.37167e-16
2.12305e-11
-1.59452e-10
1.43196e-16
2.04386e-11
-1.55351e-10
-1.41524e-16
1.94792e-11
-1.50164e-10
-2.50766e-16
1.83497e-11
-1.44018e-10
-2.29492e-16
1.70647e-11
-1.36927e-10
-6.34233e-17
1.56426e-11
-1.28966e-10
4.28919e-17
1.40982e-11
-1.20211e-10
5.75492e-17
1.24459e-11
-1.10655e-10
2.52829e-17
1.07014e-11
-1.00391e-10
-2.05771e-18
8.88534e-12
-8.94823e-11
-9.55979e-18
7.02776e-12
-7.79501e-11
-3.96115e-18
5.1726e-12
-6.57942e-11
4.57668e-18
3.38735e-12
-5.29566e-11
7.22587e-18
1.78286e-12
-3.92654e-11
3.73326e-18
5.50675e-13
-2.44528e-11
-1.46477e-18
-8.28353e-12
-5.093e-18
1.29362e-14
-8.18253e-13
6.9872e-19
5.25828e-14
-2.5361e-12
5.50117e-18
1.2053e-13
-4.38948e-12
-1.06494e-17
2.19068e-13
-6.39093e-12
2.9892e-17
3.48355e-13
-8.5523e-12
-7.24441e-17
5.12156e-13
-1.08829e-11
1.66671e-17
7.121e-13
-1.3393e-11
-3.34599e-17
9.49405e-13
-1.60923e-11
-1.48284e-16
1.2277e-12
-1.89849e-11
3.95893e-17