/*--------------------------------*- C++ -*----------------------------------*\
| =========                 |                                                 |
| \\      /  F ield         | OpenFOAM: The Open Source CFD Toolbox           |
|  \\    /   O peration     | Version:  v2012                                 |
|   \\  /    A nd           | Website:  www.openfoam.com                      |
|    \\/     M anipulation  |                                                 |
\*---------------------------------------------------------------------------*/
FoamFile
{
    version     2.0;
    format      ascii;
    class       volVectorField;
    location    "1";
    object      U;
}
// * * * * * * * * * * * * * * * * * * * * * * * * * * * * * * * * * * * * * //

dimensions      [0 1 -1 0 0 0 0];


internalField   nonuniform List<vector> 
15860
(
(5.83452e-06 -0.0043716 -5.09198e-08)
(1.39884e-05 -0.00433427 -1.22083e-07)
(2.24821e-05 -0.00429818 -1.96212e-07)
(3.17282e-05 -0.00426225 -2.76904e-07)
(4.11939e-05 -0.00422765 -3.59515e-07)
(5.12942e-05 -0.00419286 -4.47666e-07)
(6.18381e-05 -0.00415813 -5.39686e-07)
(7.30566e-05 -0.00412272 -6.376e-07)
(8.49068e-05 -0.00408661 -7.41027e-07)
(9.77716e-05 -0.00404935 -8.53268e-07)
(0.000110927 -0.0040102 -9.68056e-07)
(0.00012416 -0.00397006 -1.08359e-06)
(0.000138357 -0.00392834 -1.2075e-06)
(0.000153141 -0.00388484 -1.33651e-06)
(0.00016831 -0.00383933 -1.46889e-06)
(0.000183748 -0.00379173 -1.60363e-06)
(0.000199425 -0.00374188 -1.74047e-06)
(0.000215274 -0.00368955 -1.8788e-06)
(0.000231206 -0.00363442 -2.01782e-06)
(0.000246962 -0.00357646 -2.15532e-06)
(0.000262399 -0.0035155 -2.29007e-06)
(0.000277386 -0.00345158 -2.42089e-06)
(0.000291835 -0.00338517 -2.54706e-06)
(0.000306054 -0.00331623 -2.67119e-06)
(0.000320173 -0.00324362 -2.79437e-06)
(0.000333815 -0.00316599 -2.91336e-06)
(0.000346332 -0.00308287 -3.02253e-06)
(0.000357023 -0.00299539 -3.11587e-06)
(0.000365842 -0.00290632 -3.19299e-06)
(0.000373512 -0.00281724 -3.26009e-06)
(0.000380613 -0.00272746 -3.32215e-06)
(0.000387224 -0.00263468 -3.37981e-06)
(0.00039272 -0.00253645 -3.42768e-06)
(0.000396184 -0.00243276 -3.45787e-06)
(0.000397272 -0.00232579 -3.46742e-06)
(0.000396252 -0.00221766 -3.4586e-06)
(0.00039349 -0.00210919 -3.43454e-06)
(0.000389132 -0.00200005 -3.39655e-06)
(0.000383095 -0.00188966 -3.34386e-06)
(0.000375193 -0.00177787 -3.27489e-06)
(0.000365282 -0.00166533 -3.1884e-06)
(0.000353372 -0.00155319 -3.0845e-06)
(0.000339624 -0.00144257 -2.96457e-06)
(0.000324258 -0.00133407 -2.83051e-06)
(0.000307464 -0.0012278 -2.68396e-06)
(0.000289346 -0.0011236 -2.52581e-06)
(0.000269958 -0.00102167 -2.35658e-06)
(0.000249396 -0.000922724 -2.17712e-06)
(0.000227884 -0.000827722 -1.98938e-06)
(0.00020571 -0.000737126 -1.79586e-06)
(0.00018311 -0.000651075 -1.5986e-06)
(0.0001603 -0.000569669 -1.39951e-06)
(0.000137513 -0.000492984 -1.2006e-06)
(0.000114995 -0.00042099 -1.00405e-06)
(9.30127e-05 -0.00035349 -8.1216e-07)
(7.18547e-05 -0.00029003 -6.27461e-07)
(5.18518e-05 -0.000229764 -4.52832e-07)
(3.3356e-05 -0.000171169 -2.9135e-07)
(1.7026e-05 -0.00011165 -1.48819e-07)
(3.1313e-06 -4.48783e-05 -2.94312e-08)
(7.64266e-06 -0.0044372 -6.66987e-08)
(1.81007e-05 -0.00439875 -1.57975e-07)
(2.88978e-05 -0.00436111 -2.52208e-07)
(4.04287e-05 -0.0043247 -3.52842e-07)
(5.18602e-05 -0.00428955 -4.52604e-07)
(6.37691e-05 -0.00425444 -5.56544e-07)
(7.57748e-05 -0.00421929 -6.61327e-07)
(8.81487e-05 -0.00418349 -7.69326e-07)
(0.000100775 -0.00414693 -8.79533e-07)
(0.000114129 -0.00410922 -9.96051e-07)
(0.000127393 -0.00407047 -1.11179e-06)
(0.000140465 -0.00402985 -1.22592e-06)
(0.000154199 -0.00398703 -1.3458e-06)
(0.000168236 -0.0039425 -1.46828e-06)
(0.000182559 -0.00389592 -1.59328e-06)
(0.000197066 -0.00384702 -1.71991e-06)
(0.00021182 -0.00379571 -1.84868e-06)
(0.000226857 -0.00374171 -1.97989e-06)
(0.000241877 -0.00368487 -2.11097e-06)
(0.000256805 -0.00362509 -2.24126e-06)
(0.000271551 -0.00356215 -2.36992e-06)
(0.000285563 -0.00349612 -2.49225e-06)
(0.000298923 -0.00342725 -2.60897e-06)
(0.000312492 -0.00335557 -2.72745e-06)
(0.000326803 -0.00328049 -2.85225e-06)
(0.000341181 -0.00320108 -2.97754e-06)
(0.000354071 -0.00311683 -3.08988e-06)
(0.000363897 -0.0030285 -3.17568e-06)
(0.000370747 -0.00293772 -3.23573e-06)
(0.000376472 -0.00284565 -3.28599e-06)
(0.000382741 -0.00275207 -3.34082e-06)
(0.000389905 -0.00265549 -3.40323e-06)
(0.000396535 -0.00255444 -3.46088e-06)
(0.000400564 -0.00244894 -3.49592e-06)
(0.000401264 -0.00234043 -3.5021e-06)
(0.000399368 -0.0022305 -3.48569e-06)
(0.000395865 -0.00211986 -3.45519e-06)
(0.000391178 -0.00200845 -3.41432e-06)
(0.000385133 -0.001896 -3.36154e-06)
(0.000377281 -0.00178254 -3.29297e-06)
(0.000367247 -0.00166862 -3.2054e-06)
(0.000355003 -0.0015552 -3.09861e-06)
(0.000340842 -0.00144321 -2.97511e-06)
(0.000325154 -0.00133324 -2.83826e-06)
(0.000308214 -0.00122556 -2.69043e-06)
(0.000290078 -0.00112023 -2.53211e-06)
(0.000270671 -0.00101752 -2.3627e-06)
(0.000249993 -0.000918071 -2.18224e-06)
(0.000228304 -0.000822636 -1.99298e-06)
(0.000205977 -0.000731652 -1.79814e-06)
(0.000183264 -0.000645304 -1.59992e-06)
(0.00016037 -0.000563722 -1.4001e-06)
(0.000137511 -0.000486985 -1.20058e-06)
(0.000114928 -0.000415052 -1.00347e-06)
(9.28836e-05 -0.000347717 -8.11054e-07)
(7.16665e-05 -0.000284525 -6.25854e-07)
(5.16067e-05 -0.00022463 -4.50747e-07)
(3.30469e-05 -0.000166542 -2.88728e-07)
(1.66581e-05 -0.000107672 -1.45756e-07)
(2.7585e-06 -4.22747e-05 -2.72051e-08)
(7.60501e-06 -0.00445705 -6.63713e-08)
(1.76762e-05 -0.00441778 -1.54268e-07)
(2.82926e-05 -0.00437938 -2.46915e-07)
(3.94127e-05 -0.00434261 -3.43967e-07)
(5.06273e-05 -0.00430728 -4.4186e-07)
(6.25442e-05 -0.0042722 -5.45849e-07)
(7.4527e-05 -0.00423724 -6.50422e-07)
(8.7037e-05 -0.00420176 -7.59607e-07)
(9.98754e-05 -0.00416561 -8.71651e-07)
(0.000113271 -0.0041284 -9.88568e-07)
(0.000127084 -0.00409029 -1.10913e-06)
(0.000141674 -0.00405031 -1.23644e-06)
(0.000156235 -0.00400811 -1.3635e-06)
(0.000170522 -0.00396421 -1.48822e-06)
(0.000185457 -0.00391822 -1.61858e-06)
(0.000200609 -0.00386985 -1.75083e-06)
(0.000215963 -0.00381897 -1.88485e-06)
(0.000231585 -0.00376537 -2.02118e-06)
(0.000247188 -0.00370893 -2.15732e-06)
(0.000262622 -0.0036493 -2.29201e-06)
(0.000277645 -0.00358633 -2.42312e-06)
(0.000291734 -0.00352007 -2.54612e-06)
(0.000304973 -0.00345066 -2.66177e-06)
(0.000318426 -0.00337817 -2.77929e-06)
(0.000332965 -0.00330239 -2.90613e-06)
(0.000347971 -0.00322276 -3.03689e-06)
(0.000361389 -0.00313886 -3.1538e-06)
(0.000371099 -0.00305101 -3.23857e-06)
(0.000377122 -0.00295986 -3.29138e-06)
(0.000381786 -0.00286618 -3.3324e-06)
(0.00038751 -0.0027701 -3.38249e-06)
(0.000394942 -0.00267094 -3.44724e-06)
(0.000402225 -0.00256807 -3.51058e-06)
(0.000406597 -0.00246152 -3.5486e-06)
(0.000406992 -0.00235212 -3.55211e-06)
(0.000404372 -0.00224096 -3.5294e-06)
(0.000400174 -0.0021287 -3.49285e-06)
(0.000395074 -0.00201552 -3.44837e-06)
(0.00038887 -0.00190143 -3.39418e-06)
(0.000380919 -0.00178662 -3.32473e-06)
(0.000370655 -0.00167158 -3.23515e-06)
(0.000357997 -0.00155704 -3.12474e-06)
(0.000343332 -0.00144377 -2.99685e-06)
(0.000327194 -0.00133239 -2.85608e-06)
(0.000309951 -0.00122331 -2.70561e-06)
(0.000291635 -0.00111683 -2.54571e-06)
(0.000272063 -0.00101333 -2.37484e-06)
(0.000251145 -0.000913339 -2.19228e-06)
(0.000229167 -0.000817417 -2.0005e-06)
(0.000206574 -0.000725976 -1.80335e-06)
(0.000183646 -0.000639263 -1.60324e-06)
(0.000160573 -0.000557441 -1.40187e-06)
(0.000137559 -0.000480592 -1.201e-06)
(0.000114834 -0.000408669 -1.00265e-06)
(9.266e-05 -0.000341459 -8.09103e-07)
(7.13218e-05 -0.000278507 -6.22851e-07)
(5.11493e-05 -0.000218974 -4.46766e-07)
(3.2485e-05 -0.000161405 -2.83839e-07)
(1.60249e-05 -0.000103238 -1.40268e-07)
(2.39634e-06 -3.94531e-05 -2.41876e-08)
(8.95406e-06 -0.0045212 -7.81437e-08)
(2.07926e-05 -0.00447983 -1.81467e-07)
(3.32962e-05 -0.00443983 -2.90584e-07)
(4.62411e-05 -0.00440186 -4.03563e-07)
(5.90974e-05 -0.00436537 -5.15783e-07)
(7.25259e-05 -0.00432927 -6.32966e-07)
(8.57646e-05 -0.00429319 -7.48504e-07)
(9.93134e-05 -0.0042566 -8.66753e-07)
(0.000112902 -0.00421925 -9.85351e-07)
(0.000126729 -0.00418076 -1.10604e-06)
(0.00014077 -0.00414099 -1.22859e-06)
(0.000155549 -0.00409956 -1.35754e-06)
(0.000169985 -0.00405622 -1.4835e-06)
(0.000183893 -0.0040109 -1.60492e-06)
(0.000198438 -0.00396337 -1.73188e-06)
(0.000213162 -0.00391342 -1.86038e-06)
(0.000228049 -0.00386088 -1.99033e-06)
(0.000243177 -0.00380564 -2.12235e-06)
(0.000258394 -0.00374763 -2.25515e-06)
(0.000273675 -0.00368645 -2.38847e-06)
(0.000288533 -0.00362185 -2.5181e-06)
(0.00030224 -0.00355391 -2.63776e-06)
(0.00031497 -0.00348277 -2.74899e-06)
(0.000327947 -0.00340844 -2.86237e-06)
(0.000342251 -0.00333079 -2.9872e-06)
(0.000357303 -0.00324945 -3.11839e-06)
(0.00037079 -0.00316423 -3.23591e-06)
(0.000380378 -0.0030753 -3.31956e-06)
(0.000386006 -0.00298288 -3.36889e-06)
(0.000390094 -0.00288735 -3.40485e-06)
(0.000395402 -0.00278886 -3.45132e-06)
(0.000402725 -0.0026872 -3.51514e-06)
(0.000410049 -0.00258232 -3.57886e-06)
(0.000414366 -0.00247433 -3.61641e-06)
(0.000414417 -0.0023637 -3.61692e-06)
(0.000411204 -0.00225112 -3.58903e-06)
(0.000406379 -0.00213717 -3.54701e-06)
(0.000400768 -0.0020222 -3.49808e-06)
(0.000394179 -0.00190649 -3.44054e-06)
(0.000385894 -0.00179037 -3.36817e-06)
(0.000375258 -0.00167425 -3.27534e-06)
(0.000362156 -0.00155869 -3.16105e-06)
(0.000346997 -0.00144424 -3.02885e-06)
(0.000330369 -0.0013315 -2.8838e-06)
(0.000312675 -0.00122108 -2.72939e-06)
(0.000293956 -0.00111352 -2.56598e-06)
(0.000274011 -0.00100931 -2.39186e-06)
(0.000252732 -0.000908877 -2.20614e-06)
(0.000230401 -0.000812547 -2.01129e-06)
(0.000207477 -0.000720709 -1.81124e-06)
(0.00018425 -0.000633671 -1.60852e-06)
(0.000160915 -0.000551637 -1.40485e-06)
(0.000137669 -0.000474694 -1.20196e-06)
(0.000114737 -0.000402789 -1.0018e-06)
(9.23765e-05 -0.0003357 -8.0663e-07)
(7.08708e-05 -0.000272972 -6.18916e-07)
(5.05508e-05 -0.000213773 -4.41542e-07)
(3.17738e-05 -0.000156687 -2.77629e-07)
(1.52787e-05 -9.92194e-05 -1.33742e-07)
(2.09163e-06 -3.70346e-05 -2.12798e-08)
(8.86462e-06 -0.00455596 -7.73639e-08)
(2.05714e-05 -0.00451339 -1.79537e-07)
(3.30336e-05 -0.00447239 -2.88293e-07)
(4.59173e-05 -0.00443379 -4.00738e-07)
(5.87825e-05 -0.00439687 -5.13035e-07)
(7.24586e-05 -0.00436058 -6.32378e-07)
(8.60172e-05 -0.00432446 -7.50709e-07)
(9.99612e-05 -0.00428796 -8.724e-07)
(0.000114095 -0.00425082 -9.95754e-07)
(0.000128628 -0.00421258 -1.1226e-06)
(0.000143479 -0.00417306 -1.25222e-06)
(0.000159201 -0.00413191 -1.38941e-06)
(0.000174594 -0.00408892 -1.52373e-06)
(0.00018946 -0.00404385 -1.6535e-06)
(0.000204958 -0.00399649 -1.78878e-06)
(0.000220586 -0.0039466 -1.92517e-06)
(0.000236253 -0.00389399 -2.06192e-06)
(0.000251993 -0.00383854 -2.19931e-06)
(0.000267809 -0.00378018 -2.33735e-06)
(0.000283742 -0.00371854 -2.47635e-06)
(0.000299092 -0.00365338 -2.61026e-06)
(0.000313027 -0.00358476 -2.73191e-06)
(0.000325784 -0.0035128 -2.84338e-06)
(0.000338755 -0.00343747 -2.95671e-06)
(0.000353149 -0.00335854 -3.08233e-06)
(0.000368363 -0.00327572 -3.21495e-06)
(0.000381911 -0.00318899 -3.33301e-06)
(0.000391393 -0.00309858 -3.41574e-06)
(0.000396775 -0.00300476 -3.46289e-06)
(0.000400545 -0.00290773 -3.49605e-06)
(0.000405601 -0.0028075 -3.54031e-06)
(0.000412741 -0.00270396 -3.60254e-06)
(0.000419867 -0.00259724 -3.66456e-06)
(0.000423923 -0.00248761 -3.69985e-06)
(0.000423577 -0.00237545 -3.69689e-06)
(0.000419819 -0.00226129 -3.66423e-06)
(0.000414383 -0.00214563 -3.61687e-06)
(0.000408164 -0.0020289 -3.56264e-06)
(0.000400997 -0.00191155 -3.50006e-06)
(0.000392168 -0.00179404 -3.42296e-06)
(0.00038102 -0.00167675 -3.32566e-06)
(0.000367427 -0.00156008 -3.20707e-06)
(0.000351772 -0.00144444 -3.07052e-06)
(0.000334606 -0.00133041 -2.92077e-06)
(0.000316324 -0.00121872 -2.76123e-06)
(0.000296995 -0.00111012 -2.59251e-06)
(0.000276481 -0.00100521 -2.41344e-06)
(0.000254724 -0.000904319 -2.22355e-06)
(0.000231982 -0.000807588 -2.02509e-06)
(0.000208665 -0.000715377 -1.82161e-06)
(0.000185065 -0.000628041 -1.61564e-06)
(0.00016139 -0.000545819 -1.40901e-06)
(0.000137843 -0.000468803 -1.20349e-06)
(0.000114647 -0.000396933 -1.00102e-06)
(9.20533e-05 -0.000329979 -8.03814e-07)
(7.03455e-05 -0.000267487 -6.14334e-07)
(4.98582e-05 -0.000208634 -4.35499e-07)
(3.09787e-05 -0.00015205 -2.70687e-07)
(1.45001e-05 -9.53485e-05 -1.26932e-07)
(1.81805e-06 -3.48295e-05 -1.86457e-08)
(9.89589e-06 -0.00461903 -8.63637e-08)
(2.2999e-05 -0.00457444 -2.00724e-07)
(3.69788e-05 -0.00453185 -3.22724e-07)
(5.13084e-05 -0.00449189 -4.47789e-07)
(6.55673e-05 -0.00445352 -5.72252e-07)
(8.05122e-05 -0.00441586 -7.02668e-07)
(9.51987e-05 -0.00437842 -8.30845e-07)
(0.000110082 -0.00434054 -9.60741e-07)
(0.000124991 -0.00430231 -1.09085e-06)
(0.000140137 -0.00426271 -1.22306e-06)
(0.000155411 -0.00422176 -1.35636e-06)
(0.000171414 -0.00417917 -1.496e-06)
(0.00018698 -0.00413478 -1.63183e-06)
(0.000201958 -0.00408828 -1.76258e-06)
(0.000217524 -0.00403949 -1.89845e-06)
(0.000233224 -0.0039882 -2.03547e-06)
(0.000248933 -0.00393419 -2.17258e-06)
(0.000264657 -0.00387736 -2.30984e-06)
(0.000280518 -0.00381757 -2.44828e-06)
(0.000296657 -0.00375454 -2.58907e-06)
(0.000312197 -0.00368803 -2.72462e-06)
(0.000326102 -0.00361806 -2.84601e-06)
(0.000338737 -0.00354476 -2.95643e-06)
(0.000351695 -0.00346803 -3.06966e-06)
(0.000366257 -0.00338758 -3.19673e-06)
(0.000381685 -0.00330309 -3.33121e-06)
(0.000395258 -0.00321453 -3.44949e-06)
(0.000404496 -0.00312228 -3.53011e-06)
(0.000409481 -0.00302673 -3.5738e-06)
(0.000412883 -0.00292812 -3.60375e-06)
(0.000417718 -0.00282633 -3.64607e-06)
(0.000424707 -0.00272113 -3.70698e-06)
(0.000431612 -0.00261263 -3.76707e-06)
(0.000435322 -0.00250117 -3.79935e-06)
(0.000434497 -0.00238724 -3.79221e-06)
(0.000430149 -0.00227137 -3.75439e-06)
(0.00042406 -0.00215401 -3.70133e-06)
(0.000417149 -0.00203559 -3.64105e-06)
(0.00040926 -0.00191661 -3.57219e-06)
(0.000399722 -0.0017976 -3.48892e-06)
(0.00038793 -0.00167898 -3.386e-06)
(0.000373772 -0.00156108 -3.26247e-06)
(0.000357579 -0.00144425 -3.1212e-06)
(0.000339812 -0.00132903 -2.96619e-06)
(0.000320819 -0.00121622 -2.80044e-06)
(0.000300711 -0.00110667 -2.62495e-06)
(0.000279466 -0.00100104 -2.43952e-06)
(0.000257123 -0.000899608 -2.24452e-06)
(0.000233902 -0.00080244 -2.04187e-06)
(0.000210128 -0.000709862 -1.83438e-06)
(0.000186082 -0.00062225 -1.62453e-06)
(0.000161998 -0.000539858 -1.41432e-06)
(0.000138088 -0.000462784 -1.20563e-06)
(0.000114576 -0.00039096 -1.00041e-06)
(9.17095e-05 -0.000324154 -8.00818e-07)
(6.9773e-05 -0.000261912 -6.09341e-07)
(4.91085e-05 -0.000203424 -4.28958e-07)
(3.01443e-05 -0.000147378 -2.63405e-07)
(1.3732e-05 -9.1528e-05 -1.20215e-07)
(1.57253e-06 -3.27545e-05 -1.62956e-08)
(1.00047e-05 -0.0046653 -8.73131e-08)
(2.32649e-05 -0.00461934 -2.03045e-07)
(3.74631e-05 -0.00457561 -3.26958e-07)
(5.22836e-05 -0.0045348 -4.56301e-07)
(6.69588e-05 -0.00449576 -5.84377e-07)
(8.21479e-05 -0.00445763 -7.16937e-07)
(9.73207e-05 -0.00441982 -8.49339e-07)
(0.000112485 -0.00438169 -9.81717e-07)
(0.000128087 -0.00434326 -1.11791e-06)
(0.000144607 -0.00430348 -1.26206e-06)
(0.00016085 -0.00426237 -1.40382e-06)
(0.000177859 -0.00421959 -1.55225e-06)
(0.000194455 -0.00417495 -1.69707e-06)
(0.000210491 -0.00412813 -1.83706e-06)
(0.000227056 -0.00407893 -1.98165e-06)
(0.000243716 -0.00402713 -2.12704e-06)
(0.000260274 -0.00397251 -2.27156e-06)
(0.000276709 -0.00391494 -2.41503e-06)
(0.000293238 -0.00385426 -2.5593e-06)
(0.00031002 -0.00379022 -2.7057e-06)
(0.000326063 -0.00372264 -2.84564e-06)
(0.000340251 -0.00365153 -2.9695e-06)
(0.000353018 -0.00357696 -3.08109e-06)
(0.000366146 -0.00349888 -3.19582e-06)
(0.000381041 -0.00341698 -3.32577e-06)
(0.000396848 -0.0033309 -3.46353e-06)
(0.000410561 -0.00324061 -3.58302e-06)
(0.000419558 -0.00314652 -3.66155e-06)
(0.000424044 -0.00304917 -3.70091e-06)
(0.000426975 -0.00294887 -3.72677e-06)
(0.000431567 -0.00284545 -3.76697e-06)
(0.000438461 -0.00273858 -3.82704e-06)
(0.000445205 -0.00262825 -3.88571e-06)
(0.000448548 -0.00251485 -3.9148e-06)
(0.000447149 -0.00239902 -3.90264e-06)
(0.000442107 -0.00228137 -3.85877e-06)
(0.000435286 -0.00216232 -3.79931e-06)
(0.00042761 -0.00204226 -3.73236e-06)
(0.000418911 -0.00192164 -3.65645e-06)
(0.000408552 -0.00180102 -3.56603e-06)
(0.000395993 -0.00168089 -3.45643e-06)
(0.000381158 -0.00156162 -3.32697e-06)
(0.000364329 -0.00144359 -3.18011e-06)
(0.000345869 -0.00132731 -3.01902e-06)
(0.000326061 -0.00121356 -2.84617e-06)
(0.000305057 -0.00110317 -2.66288e-06)
(0.000282965 -0.000996795 -2.47009e-06)
(0.000259938 -0.000894748 -2.26912e-06)
(0.000236157 -0.000797094 -2.06157e-06)
(0.000211853 -0.000704154 -1.84945e-06)
(0.000187294 -0.000616291 -1.63511e-06)
(0.000162737 -0.000533754 -1.42077e-06)
(0.000138409 -0.000456638 -1.20844e-06)
(0.000114536 -0.000384874 -1.00006e-06)
(9.1363e-05 -0.000318228 -7.97799e-07)
(6.91777e-05 -0.000256252 -6.04149e-07)
(4.83329e-05 -0.000198155 -4.22191e-07)
(2.93047e-05 -0.000142687 -2.56076e-07)
(1.30004e-05 -8.77699e-05 -1.13817e-07)
(1.35764e-06 -3.08033e-05 -1.42337e-08)
(1.08644e-05 -0.00472961 -9.48162e-08)
(2.52925e-05 -0.00468174 -2.20741e-07)
(4.07787e-05 -0.00463643 -3.55893e-07)
(5.68481e-05 -0.0045942 -4.96139e-07)
(7.27636e-05 -0.004554 -6.3504e-07)
(8.91006e-05 -0.00451466 -7.7762e-07)
(0.00010535 -0.00447562 -9.19418e-07)
(0.000121468 -0.00443624 -1.06012e-06)
(0.000137932 -0.00439622 -1.20383e-06)
(0.00015521 -0.00435509 -1.35461e-06)
(0.000172089 -0.00431261 -1.50191e-06)
(0.000189655 -0.00426848 -1.65521e-06)
(0.000206747 -0.00422245 -1.80436e-06)
(0.000223242 -0.00417426 -1.94835e-06)
(0.000240236 -0.00412369 -2.09667e-06)
(0.000257326 -0.00407054 -2.24582e-06)
(0.000274301 -0.00401458 -2.39398e-06)
(0.000291127 -0.00395566 -2.54086e-06)
(0.000308071 -0.00389359 -2.68877e-06)
(0.000325307 -0.00382814 -2.83911e-06)
(0.000341732 -0.00375914 -2.98238e-06)
(0.00035613 -0.00368657 -3.10809e-06)
(0.000369006 -0.00361048 -3.22064e-06)
(0.000382317 -0.0035308 -3.33697e-06)
(0.000397588 -0.00344725 -3.47021e-06)
(0.000413825 -0.00335948 -3.61169e-06)
(0.00042772 -0.00326744 -3.73275e-06)
(0.000436478 -0.00317153 -3.8092e-06)
(0.000440414 -0.00307233 -3.8438e-06)
(0.000442806 -0.00297018 -3.86498e-06)
(0.000447121 -0.00286493 -3.90277e-06)
(0.00045395 -0.00275623 -3.96224e-06)
(0.000460575 -0.00264396 -4.01986e-06)
(0.000463532 -0.00252855 -4.04556e-06)
(0.000461457 -0.00241076 -4.02752e-06)
(0.000455596 -0.00229129 -3.97651e-06)
(0.000447946 -0.00217056 -3.90981e-06)
(0.00043945 -0.00204887 -3.83572e-06)
(0.000429902 -0.00192659 -3.75239e-06)
(0.000418655 -0.00180426 -3.65423e-06)
(0.000405216 -0.00168247 -3.53696e-06)
(0.000389554 -0.00156172 -3.40027e-06)
(0.000371936 -0.00144247 -3.24651e-06)
(0.000352656 -0.00132524 -3.07825e-06)
(0.000331945 -0.00121071 -2.89751e-06)
(0.00030998 -0.00109958 -2.70585e-06)
(0.000286976 -0.000992458 -2.50512e-06)
(0.000263179 -0.000889715 -2.29744e-06)
(0.000238744 -0.000791534 -2.08416e-06)
(0.000213828 -0.00069824 -1.86669e-06)
(0.000188689 -0.000610154 -1.64729e-06)
(0.000163603 -0.0005275 -1.42834e-06)
(0.000138809 -0.000450364 -1.21194e-06)
(0.000114536 -0.000378677 -1.00007e-06)
(9.10293e-05 -0.000312208 -7.94891e-07)
(6.85806e-05 -0.000250519 -5.98941e-07)
(4.75567e-05 -0.000192841 -4.15418e-07)
(2.8485e-05 -0.000137998 -2.4892e-07)
(1.23207e-05 -8.40887e-05 -1.07873e-07)
(1.17295e-06 -2.89725e-05 -1.24521e-08)
(1.11986e-05 -0.00478555 -9.77318e-08)
(2.60878e-05 -0.0047362 -2.27685e-07)
(4.20565e-05 -0.0046896 -3.67047e-07)
(5.8716e-05 -0.00464634 -5.12438e-07)
(7.52147e-05 -0.00460527 -6.56438e-07)
(9.23094e-05 -0.00456518 -8.05621e-07)
(0.000109336 -0.00452549 -9.54206e-07)
(0.00012632 -0.00448553 -1.10247e-06)
(0.000143707 -0.00444492 -1.25424e-06)
(0.000161996 -0.00440324 -1.41383e-06)
(0.000179904 -0.00436016 -1.57011e-06)
(0.000198548 -0.00431539 -1.73281e-06)
(0.000216723 -0.00426875 -1.89141e-06)
(0.00023431 -0.00421982 -2.04494e-06)
(0.000252327 -0.0041684 -2.2022e-06)
(0.000270378 -0.00411432 -2.35973e-06)
(0.000288251 -0.00405735 -2.51573e-06)
(0.000305889 -0.0039973 -2.6697e-06)
(0.000323595 -0.003934 -2.82425e-06)
(0.000341543 -0.00386724 -2.98082e-06)
(0.000358556 -0.00379685 -3.12921e-06)
(0.000373355 -0.00372279 -3.25842e-06)
(0.000386492 -0.00364513 -3.37327e-06)
(0.000400084 -0.00356377 -3.49206e-06)
(0.000415766 -0.00347845 -3.62888e-06)
(0.000432445 -0.00338888 -3.7742e-06)
(0.000446552 -0.00329504 -3.89708e-06)
(0.000455112 -0.0031973 -3.97181e-06)
(0.000458529 -0.00309621 -4.00191e-06)
(0.000460385 -0.00299209 -4.01845e-06)
(0.000464406 -0.00288482 -4.05367e-06)
(0.000471156 -0.00277406 -4.11244e-06)
(0.00047765 -0.00265973 -4.1689e-06)
(0.00048017 -0.00254227 -4.19077e-06)
(0.000477321 -0.0024225 -4.16597e-06)
(0.000470521 -0.00230118 -4.10678e-06)
(0.00046195 -0.00217872 -4.03206e-06)
(0.000452593 -0.00205535 -3.95044e-06)
(0.000442178 -0.00193137 -3.85955e-06)
(0.000430004 -0.00180729 -3.7533e-06)
(0.000415582 -0.00168375 -3.62745e-06)
(0.000398924 -0.00156145 -3.48207e-06)
(0.000380327 -0.00144097 -3.31976e-06)
(0.000360078 -0.00132284 -3.14303e-06)
(0.000338384 -0.00120762 -2.95372e-06)
(0.000315434 -0.00109581 -2.75346e-06)
(0.000291489 -0.000987942 -2.54453e-06)
(0.000266846 -0.000884466 -2.32947e-06)
(0.000241653 -0.00078574 -2.10957e-06)
(0.000216038 -0.000692105 -1.88599e-06)
(0.000190255 -0.000603823 -1.66096e-06)
(0.000164589 -0.000521079 -1.43696e-06)
(0.00013929 -0.000443947 -1.21614e-06)
(0.000114584 -0.000372359 -1.0005e-06)
(9.07206e-05 -0.000306089 -7.92203e-07)
(6.79982e-05 -0.000244712 -5.93862e-07)
(4.67995e-05 -0.000187488 -4.08811e-07)
(2.77025e-05 -0.000133318 -2.42089e-07)
(1.17005e-05 -8.0487e-05 -1.02448e-07)
(1.01592e-06 -2.72517e-05 -1.09304e-08)
(1.1986e-05 -0.00485343 -1.04604e-07)
(2.79911e-05 -0.00480222 -2.44288e-07)
(4.51898e-05 -0.00475412 -3.94397e-07)
(6.29812e-05 -0.0047095 -5.49666e-07)
(8.06467e-05 -0.00466704 -7.03839e-07)
(9.88763e-05 -0.00462565 -8.62939e-07)
(0.000116992 -0.00458471 -1.02102e-06)
(0.000135036 -0.00454345 -1.17853e-06)
(0.000153393 -0.00450126 -1.33877e-06)
(0.000172601 -0.00445816 -1.50638e-06)
(0.000191368 -0.00441369 -1.67017e-06)
(0.000210702 -0.00436754 -1.83889e-06)
(0.000229619 -0.0043199 -2.00397e-06)
(0.000248044 -0.00426967 -2.1648e-06)
(0.00026679 -0.00421689 -2.32842e-06)
(0.00028553 -0.0041614 -2.49197e-06)
(0.000304084 -0.004103 -2.65392e-06)
(0.000322382 -0.00404148 -2.81366e-06)
(0.00034074 -0.00397666 -2.9739e-06)
(0.000359343 -0.00390834 -3.13617e-06)
(0.000376925 -0.00383634 -3.28952e-06)
(0.000392115 -0.00376064 -3.42215e-06)
(0.000405545 -0.00368124 -3.53957e-06)
(0.000419485 -0.00359805 -3.6614e-06)
(0.000435612 -0.0035108 -3.80211e-06)
(0.000452721 -0.00341928 -3.95115e-06)
(0.000467013 -0.0033235 -4.07565e-06)
(0.000475377 -0.00322385 -4.14866e-06)
(0.000478314 -0.00312078 -4.17459e-06)
(0.00047968 -0.00301457 -4.18688e-06)
(0.000483418 -0.00290512 -4.21964e-06)
(0.000490059 -0.00279214 -4.27745e-06)
(0.000496364 -0.00267562 -4.33222e-06)
(0.000498366 -0.00255605 -4.34957e-06)
(0.000494645 -0.00243427 -4.31718e-06)
(0.000486808 -0.00231104 -4.24895e-06)
(0.000477237 -0.00218677 -4.16552e-06)
(0.000466976 -0.00206165 -4.076e-06)
(0.000455677 -0.00193592 -3.97738e-06)
(0.000442542 -0.00181006 -3.86274e-06)
(0.000427041 -0.00168479 -3.72746e-06)
(0.000409219 -0.00156092 -3.57194e-06)
(0.000389449 -0.00143919 -3.3994e-06)
(0.000368073 -0.00132015 -3.21284e-06)
(0.000345323 -0.00120422 -3.01431e-06)
(0.000321377 -0.00109175 -2.80536e-06)
(0.000296481 -0.000983149 -2.58812e-06)
(0.000270924 -0.000878951 -2.36507e-06)
(0.00024487 -0.000779695 -2.13766e-06)
(0.000218468 -0.000685737 -1.90721e-06)
(0.00019198 -0.000597285 -1.67603e-06)
(0.000165691 -0.000514477 -1.44658e-06)
(0.00013985 -0.000437375 -1.22103e-06)
(0.000114685 -0.000365911 -1.00139e-06)
(9.04465e-05 -0.000299866 -7.89815e-07)
(6.74437e-05 -0.000238831 -5.89026e-07)
(4.60758e-05 -0.000182099 -4.02497e-07)
(2.69687e-05 -0.000128652 -2.35682e-07)
(1.11422e-05 -7.69627e-05 -9.7564e-08)
(8.83458e-07 -2.56285e-05 -9.64142e-09)
(1.24859e-05 -0.00491826 -1.08967e-07)
(2.91407e-05 -0.00486543 -2.54329e-07)
(4.70971e-05 -0.00481596 -4.11034e-07)
(6.59106e-05 -0.00477015 -5.7523e-07)
(8.44555e-05 -0.00472665 -7.37073e-07)
(0.000103432 -0.00468431 -9.02696e-07)
(0.000122509 -0.00464248 -1.0692e-06)
(0.000141939 -0.00460035 -1.23876e-06)
(0.000161403 -0.00455731 -1.40863e-06)
(0.000181303 -0.00451334 -1.58231e-06)
(0.000201087 -0.00446797 -1.75497e-06)
(0.000221111 -0.00442087 -1.92975e-06)
(0.00024109 -0.00437222 -2.10414e-06)
(0.000261195 -0.0043209 -2.27958e-06)
(0.000281129 -0.00426695 -2.45356e-06)
(0.000300928 -0.00421021 -2.62636e-06)
(0.000320462 -0.00415047 -2.79686e-06)
(0.000339688 -0.00408751 -2.9647e-06)
(0.000358906 -0.00402115 -3.13245e-06)
(0.000378303 -0.00395121 -3.30165e-06)
(0.000396565 -0.00387753 -3.46092e-06)
(0.00041227 -0.00380009 -3.59805e-06)
(0.000426113 -0.00371885 -3.71909e-06)
(0.000440475 -0.0036337 -3.84462e-06)
(0.000457078 -0.0035444 -3.98946e-06)
(0.000474602 -0.00345078 -4.14213e-06)
(0.000489053 -0.00335292 -4.26799e-06)
(0.00049722 -0.00325121 -4.33931e-06)
(0.000499723 -0.00314605 -4.36147e-06)
(0.000500657 -0.00303764 -4.36999e-06)
(0.000504132 -0.00292586 -4.40046e-06)
(0.000510621 -0.00281053 -4.45693e-06)
(0.000516649 -0.00269172 -4.50926e-06)
(0.000518037 -0.00256997 -4.52125e-06)
(0.000513358 -0.00244612 -4.48051e-06)
(0.000504406 -0.00232089 -4.40257e-06)
(0.00049377 -0.00219469 -4.30984e-06)
(0.000482551 -0.00206771 -4.21197e-06)
(0.000470327 -0.00194017 -4.10526e-06)
(0.000456183 -0.00181256 -3.98179e-06)
(0.000439513 -0.0016856 -3.8363e-06)
(0.000420383 -0.00156021 -3.66938e-06)
(0.000399267 -0.00143721 -3.48511e-06)
(0.000376621 -0.00131718 -3.28749e-06)
(0.000352738 -0.00120047 -3.07907e-06)
(0.000327779 -0.00108729 -2.86125e-06)
(0.000301916 -0.00097798 -2.63556e-06)
(0.000275381 -0.000873121 -2.40397e-06)
(0.000248371 -0.000773382 -2.16823e-06)
(0.000221101 -0.000679131 -1.93021e-06)
(0.000193852 -0.00059053 -1.69238e-06)
(0.0001669 -0.000507683 -1.45715e-06)
(0.000140487 -0.000430637 -1.22661e-06)
(0.000114841 -0.000359325 -1.00275e-06)
(9.02134e-05 -0.000293536 -7.87787e-07)
(6.69265e-05 -0.000232875 -5.84515e-07)
(4.53958e-05 -0.000176676 -3.96563e-07)
(2.62901e-05 -0.000124004 -2.29758e-07)
(1.06449e-05 -7.35127e-05 -9.3214e-08)
(7.72455e-07 -2.40915e-05 -8.557e-09)
(1.32804e-05 -0.00499169 -1.15902e-07)
(3.10204e-05 -0.004937 -2.70733e-07)
(5.01656e-05 -0.00488591 -4.37816e-07)
(7.01978e-05 -0.00483866 -6.1265e-07)
(8.99497e-05 -0.00479388 -7.8502e-07)
(0.000110115 -0.00475024 -9.61028e-07)
(0.000130358 -0.00470709 -1.1377e-06)
(0.00015095 -0.00466367 -1.3174e-06)
(0.000171521 -0.0046196 -1.49694e-06)
(0.000192504 -0.00457438 -1.68006e-06)
(0.000213341 -0.00452771 -1.86191e-06)
(0.000234262 -0.00447924 -2.04453e-06)
(0.000255202 -0.00442878 -2.22731e-06)
(0.00027637 -0.00437592 -2.41202e-06)
(0.000297262 -0.00432042 -2.59436e-06)
(0.000317967 -0.0042621 -2.77507e-06)
(0.000338395 -0.00420074 -2.95337e-06)
(0.000358492 -0.00413611 -3.12882e-06)
(0.000378552 -0.004068 -3.30391e-06)
(0.000398726 -0.00399626 -3.47988e-06)
(0.000417649 -0.00392073 -3.64494e-06)
(0.000433887 -0.00384136 -3.78673e-06)
(0.000448202 -0.00375812 -3.91189e-06)
(0.000463057 -0.00367086 -4.04172e-06)
(0.000480178 -0.00357936 -4.19108e-06)
(0.000498108 -0.0034835 -4.34727e-06)
(0.00051267 -0.00338341 -4.47411e-06)
(0.000520619 -0.00327947 -4.54353e-06)
(0.000522714 -0.00317206 -4.56214e-06)
(0.000523266 -0.00306131 -4.56735e-06)
(0.000526498 -0.00294709 -4.59569e-06)
(0.000532792 -0.00282929 -4.65044e-06)
(0.000538447 -0.00270809 -4.69951e-06)
(0.000539121 -0.00258407 -4.70526e-06)
(0.000533407 -0.00245805 -4.6555e-06)
(0.000523282 -0.00233072 -4.56736e-06)
(0.000511522 -0.00220246 -4.46482e-06)
(0.000499277 -0.00207349 -4.35798e-06)
(0.000486054 -0.00194408 -4.24253e-06)
(0.000470823 -0.00181474 -4.10956e-06)
(0.000452895 -0.00168619 -3.95309e-06)
(0.000432346 -0.00155935 -3.7738e-06)
(0.000409758 -0.00143507 -3.57671e-06)
(0.000385727 -0.00131395 -3.36702e-06)
(0.000360632 -0.00119632 -3.14801e-06)
(0.000334614 -0.00108236 -2.92094e-06)
(0.000307744 -0.000972365 -2.68643e-06)
(0.000280168 -0.000866939 -2.44575e-06)
(0.000252124 -0.000766786 -2.20099e-06)
(0.00022392 -0.000672278 -1.95483e-06)
(0.00019586 -0.00058355 -1.70993e-06)
(0.00016821 -0.000500686 -1.46859e-06)
(0.000141199 -0.000423725 -1.23283e-06)
(0.000115052 -0.000352596 -1.0046e-06)
(9.00255e-05 -0.000287096 -7.86152e-07)
(6.64528e-05 -0.000226846 -5.80385e-07)
(4.47658e-05 -0.000171223 -3.91066e-07)
(2.56699e-05 -0.000119376 -2.24343e-07)
(1.02058e-05 -7.01325e-05 -8.93723e-08)
(6.79976e-07 -2.26297e-05 -7.64986e-09)
(1.39391e-05 -0.00506545 -1.2165e-07)
(3.25691e-05 -0.00500903 -2.84249e-07)
(5.26857e-05 -0.00495643 -4.5981e-07)
(7.37755e-05 -0.00490785 -6.43873e-07)
(9.45852e-05 -0.00486187 -8.25474e-07)
(0.00011586 -0.0048171 -1.01116e-06)
(0.00013723 -0.00477285 -1.19767e-06)
(0.000158983 -0.00472834 -1.38752e-06)
(0.000180745 -0.00468317 -1.57745e-06)
(0.000202997 -0.00463682 -1.77164e-06)
(0.000225064 -0.00458901 -1.96423e-06)
(0.000247251 -0.00453932 -2.15789e-06)
(0.000269426 -0.00448748 -2.35145e-06)
(0.000291837 -0.00443322 -2.54701e-06)
(0.00031391 -0.00437626 -2.73965e-06)
(0.000335731 -0.00431638 -2.9301e-06)
(0.000357234 -0.00425339 -3.11779e-06)
(0.000378358 -0.00418703 -3.3022e-06)
(0.000399371 -0.00411712 -3.4856e-06)
(0.000420423 -0.00404349 -3.66924e-06)
(0.000440112 -0.00396598 -3.84098e-06)
(0.00045697 -0.00388454 -3.98819e-06)
(0.00047182 -0.00379914 -4.11803e-06)
(0.000487214 -0.00370962 -4.25257e-06)
(0.000504874 -0.00361577 -4.40662e-06)
(0.000523197 -0.00351751 -4.56623e-06)
(0.000537851 -0.00341504 -4.69387e-06)
(0.000545572 -0.00330872 -4.76132e-06)
(0.00054728 -0.00319889 -4.77657e-06)