/*--------------------------------*- C++ -*----------------------------------*\
| =========                 |                                                 |
| \\      /  F ield         | OpenFOAM: The Open Source CFD Toolbox           |
|  \\    /   O peration     | Version:  v2012                                 |
|   \\  /    A nd           | Website:  www.openfoam.com                      |
|    \\/     M anipulation  |                                                 |
\*---------------------------------------------------------------------------*/
FoamFile
{
    version     2.0;
    format      ascii;
    class       volScalarField;
    location    "0.75";
    object      p;
}
// * * * * * * * * * * * * * * * * * * * * * * * * * * * * * * * * * * * * * //

dimensions      [1 -1 -2 0 0 0 0];


internalField   nonuniform List<scalar> 
3332
(
3.48318e+06
3.48316e+06
3.48326e+06
3.48347e+06
3.48375e+06
3.48408e+06
3.48444e+06
3.48482e+06
3.48521e+06
3.4856e+06
3.486e+06
3.48638e+06
3.48676e+06
3.48713e+06
3.48748e+06
3.48782e+06
3.48814e+06
3.48845e+06
3.48875e+06
3.48903e+06
3.48195e+06
3.48177e+06
3.48168e+06
3.48184e+06
3.48209e+06
3.48243e+06
3.48283e+06
3.48326e+06
3.48371e+06
3.48416e+06
3.48462e+06
3.48507e+06
3.48551e+06
3.48594e+06
3.48635e+06
3.48675e+06
3.48713e+06
3.4875e+06
3.48784e+06
3.48817e+06
3.48848e+06
3.48877e+06
3.55782e+06
3.54789e+06
3.55589e+06
3.54689e+06
3.55089e+06
3.54499e+06
3.54513e+06
3.54095e+06
3.54043e+06
3.53909e+06
3.51762e+06
3.48612e+06
3.48398e+06
3.48085e+06
3.48054e+06
3.47987e+06
3.47996e+06
3.4801e+06
3.48046e+06
3.48088e+06
3.48137e+06
3.48189e+06
3.48243e+06
3.48296e+06
3.4835e+06
3.48402e+06
3.48453e+06
3.48502e+06
3.4855e+06
3.48595e+06
3.48638e+06
3.48679e+06
3.48718e+06
3.48755e+06
3.48789e+06
3.48822e+06
3.48853e+06
3.55525e+06
3.54804e+06
3.55347e+06
3.54661e+06
3.54916e+06
3.54378e+06
3.54302e+06
3.53803e+06
3.53715e+06
3.53445e+06
3.53523e+06
3.53326e+06
3.51691e+06
3.48331e+06
3.4798e+06
3.47785e+06
3.47782e+06
3.47765e+06
3.47803e+06
3.47846e+06
3.47903e+06
3.47964e+06
3.48029e+06
3.48094e+06
3.48159e+06
3.48222e+06
3.48284e+06
3.48343e+06
3.484e+06
3.48454e+06
3.48506e+06
3.48555e+06
3.48601e+06
3.48645e+06
3.48687e+06
3.48725e+06
3.48762e+06
3.48796e+06
3.48828e+06
3.54903e+06
3.54822e+06
3.54764e+06
3.54544e+06
3.54554e+06
3.54154e+06
3.53932e+06
3.53358e+06
3.53163e+06
3.52718e+06
3.52946e+06
3.52659e+06
3.51366e+06
3.48068e+06
3.47472e+06
3.47465e+06
3.47482e+06
3.47532e+06
3.47601e+06
3.47677e+06
3.47758e+06
3.47839e+06
3.4792e+06
3.47999e+06
3.48075e+06
3.48149e+06
3.48218e+06
3.48285e+06
3.48347e+06
3.48407e+06
3.48463e+06
3.48516e+06
3.48565e+06
3.48612e+06
3.48656e+06
3.48697e+06
3.48735e+06
3.48771e+06
3.48804e+06
3.48835e+06
3.53829e+06
3.54673e+06
3.53815e+06
3.54214e+06
3.53918e+06
3.53711e+06
3.53333e+06
3.52744e+06
3.52425e+06
3.51863e+06
3.52181e+06
3.51788e+06
3.50867e+06
3.47834e+06
3.46921e+06
3.47138e+06
3.47166e+06
3.47296e+06
3.47395e+06
3.47507e+06
3.47612e+06
3.47715e+06
3.47812e+06
3.47905e+06
3.47993e+06
3.48076e+06
3.48154e+06
3.48227e+06
3.48296e+06
3.4836e+06
3.4842e+06
3.48477e+06
3.4853e+06
3.48579e+06
3.48625e+06
3.48669e+06
3.48709e+06
3.48746e+06
3.48781e+06
3.48813e+06
3.52318e+06
3.54143e+06
3.52451e+06
3.53465e+06
3.52822e+06
3.52826e+06
3.52358e+06
3.51898e+06
3.51545e+06
3.50989e+06
3.51368e+06
3.5089e+06
3.50328e+06
3.47578e+06
3.46396e+06
3.46805e+06
3.46853e+06
3.4706e+06
3.47189e+06
3.47339e+06
3.47467e+06
3.47591e+06
3.47705e+06
3.47812e+06
3.47912e+06
3.48004e+06
3.4809e+06
3.4817e+06
3.48245e+06
3.48314e+06
3.48379e+06
3.48439e+06
3.48495e+06
3.48547e+06
3.48596e+06
3.48641e+06
3.48683e+06
3.48722e+06
3.48758e+06
3.48791e+06
3.48822e+06
3.50277e+06
3.52788e+06
3.5058e+06
3.52e+06
3.51023e+06
3.51203e+06
3.50792e+06
3.50714e+06
3.50561e+06
3.50227e+06
3.50562e+06
3.50087e+06
3.49818e+06
3.47279e+06
3.45954e+06
3.46467e+06
3.46558e+06
3.46828e+06
3.46989e+06
3.47174e+06
3.47325e+06
3.47471e+06
3.47601e+06
3.47722e+06
3.47832e+06
3.47934e+06
3.48028e+06
3.48115e+06
3.48196e+06
3.4827e+06
3.48339e+06
3.48402e+06
3.48462e+06
3.48516e+06
3.48567e+06
3.48614e+06
3.48658e+06
3.48698e+06
3.48735e+06
3.4877e+06
3.48801e+06
3.47981e+06
3.50493e+06
3.48232e+06
3.49637e+06
3.48347e+06
3.48583e+06
3.48438e+06
3.49077e+06
3.49473e+06
3.49543e+06
3.49849e+06
3.49449e+06
3.49366e+06
3.46985e+06
3.45611e+06
3.46133e+06
3.46289e+06
3.46602e+06
3.46799e+06
3.47013e+06
3.47189e+06
3.47354e+06
3.475e+06
3.47634e+06
3.47756e+06
3.47867e+06
3.47969e+06
3.48062e+06
3.48148e+06
3.48227e+06
3.483e+06
3.48367e+06
3.48429e+06
3.48486e+06
3.48539e+06
3.48588e+06
3.48633e+06
3.48675e+06
3.48713e+06
3.48749e+06
3.48782e+06
3.45203e+06
3.472e+06
3.45495e+06
3.46496e+06
3.44944e+06
3.45047e+06
3.45368e+06
3.47032e+06
3.48318e+06
3.48931e+06
3.49252e+06
3.48971e+06
3.4897e+06
3.46735e+06
3.45336e+06
3.45813e+06
3.46046e+06
3.46385e+06
3.46619e+06
3.46859e+06
3.47057e+06
3.47241e+06
3.47403e+06
3.4755e+06
3.47682e+06
3.47802e+06
3.47911e+06
3.48011e+06
3.48102e+06
3.48185e+06
3.48262e+06
3.48332e+06
3.48397e+06
3.48457e+06
3.48512e+06
3.48563e+06
3.48609e+06
3.48652e+06
3.48692e+06
3.48729e+06
3.48762e+06
3.42739e+06
3.43908e+06
3.42937e+06
3.43313e+06
3.41592e+06
3.41377e+06
3.42223e+06
3.44957e+06
3.47224e+06
3.4839e+06
3.4876e+06
3.48602e+06
3.48613e+06
3.46523e+06
3.45083e+06
3.45511e+06
3.45821e+06
3.46178e+06
3.46449e+06
3.46712e+06
3.46933e+06
3.47134e+06
3.4731e+06
3.47469e+06
3.47611e+06
3.4774e+06
3.47856e+06
3.47961e+06
3.48058e+06
3.48145e+06
3.48226e+06
3.48299e+06
3.48367e+06
3.48429e+06
3.48486e+06
3.48538e+06
3.48586e+06
3.48631e+06
3.48671e+06
3.48709e+06
3.48743e+06
3.41239e+06
3.41778e+06
3.41336e+06
3.41292e+06
3.39619e+06
3.39149e+06
3.40212e+06
3.43572e+06
3.46449e+06
3.47945e+06
3.48308e+06
3.48258e+06
3.48229e+06
3.46299e+06
3.44822e+06
3.45223e+06
3.45605e+06
3.4598e+06
3.46288e+06
3.46572e+06
3.46814e+06
3.47032e+06
3.47222e+06
3.47392e+06
3.47544e+06
3.4768e+06
3.47803e+06
3.47915e+06
3.48015e+06
3.48107e+06
3.48191e+06
3.48267e+06
3.48337e+06
3.48402e+06
3.4846e+06
3.48514e+06
3.48564e+06
3.4861e+06
3.48651e+06
3.4869e+06
3.48725e+06
3.41172e+06
3.41646e+06
3.41255e+06
3.41337e+06
3.39917e+06
3.39604e+06
3.40318e+06
3.43463e+06
3.46146e+06
3.47565e+06
3.47833e+06
3.47863e+06
3.47778e+06
3.46019e+06
3.44551e+06
3.44949e+06
3.45397e+06
3.45793e+06
3.46135e+06
3.4644e+06
3.46702e+06
3.46935e+06
3.47139e+06
3.4732e+06
3.47481e+06
3.47625e+06
3.47754e+06
3.4787e+06
3.47976e+06
3.48071e+06
3.48158e+06
3.48237e+06
3.48309e+06
3.48376e+06
3.48436e+06
3.48492e+06
3.48542e+06
3.48589e+06
3.48632e+06
3.48671e+06
3.48707e+06
3.42325e+06
3.43155e+06
3.42398e+06
3.42975e+06
3.41878e+06
3.42089e+06
3.42123e+06
3.44349e+06
3.46166e+06
3.4718e+06
3.47321e+06
3.47395e+06
3.47275e+06
3.45685e+06
3.4428e+06
3.44691e+06
3.45196e+06
3.45617e+06
3.4599e+06
3.46315e+06
3.46597e+06
3.46845e+06
3.47061e+06
3.47252e+06
3.47421e+06
3.47572e+06
3.47707e+06
3.47828e+06
3.47938e+06
3.48037e+06
3.48127e+06
3.48208e+06
3.48283e+06
3.48351e+06
3.48413e+06
3.4847e+06
3.48522e+06
3.4857e+06
3.48613e+06
3.48653e+06
3.48689e+06
3.43756e+06
3.4482e+06
3.43879e+06
3.44759e+06
3.44002e+06
3.44743e+06
3.44158e+06
3.45297e+06
3.46174e+06
3.46739e+06
3.4678e+06
3.46879e+06
3.46738e+06
3.45311e+06
3.44003e+06
3.44452e+06
3.45001e+06
3.45452e+06
3.45854e+06
3.46199e+06
3.46499e+06
3.4676e+06
3.46988e+06
3.47189e+06
3.47366e+06
3.47523e+06
3.47663e+06
3.47789e+06
3.47903e+06
3.48005e+06
3.48097e+06
3.48181e+06
3.48258e+06
3.48327e+06
3.48391e+06
3.48449e+06
3.48502e+06
3.48551e+06
3.48595e+06
3.48636e+06
3.48673e+06
3.44953e+06
3.45821e+06
3.45055e+06
3.45819e+06
3.45424e+06
3.46164e+06
3.45468e+06
3.45722e+06
3.45982e+06
3.46236e+06
3.4622e+06
3.46335e+06
3.46186e+06
3.44903e+06
3.43715e+06
3.44228e+06
3.44814e+06
3.45299e+06
3.45726e+06
3.46091e+06
3.46408e+06
3.46682e+06
3.46921e+06
3.4713e+06
3.47315e+06
3.47478e+06
3.47623e+06
3.47753e+06
3.4787e+06
3.47975e+06
3.4807e+06
3.48156e+06
3.48234e+06
3.48305e+06
3.4837e+06
3.48429e+06
3.48483e+06
3.48533e+06
3.48578e+06
3.48619e+06
3.48657e+06
3.45719e+06
3.45934e+06
3.45844e+06
3.46007e+06
3.4628e+06
3.46274e+06
3.4599e+06
3.45648e+06
3.45589e+06
3.4568e+06
3.45636e+06
3.45767e+06
3.45622e+06
3.44454e+06
3.43419e+06
3.44013e+06
3.44634e+06
3.45157e+06
3.45607e+06
3.45993e+06
3.46324e+06
3.46611e+06
3.4686e+06
3.47077e+06
3.47268e+06
3.47436e+06
3.47586e+06
3.47719e+06
3.47839e+06
3.47947e+06
3.48044e+06
3.48132e+06
3.48212e+06
3.48284e+06
3.4835e+06
3.4841e+06
3.48465e+06
3.48515e+06
3.48561e+06
3.48603e+06
3.48641e+06
3.46366e+06
3.45638e+06
3.4637e+06
3.45741e+06
3.46798e+06
3.45933e+06
3.4594e+06
3.45317e+06
3.45066e+06
3.45086e+06
3.4503e+06
3.45183e+06
3.45048e+06
3.43978e+06
3.4313e+06
3.4381e+06
3.44467e+06
3.45027e+06
3.45499e+06
3.45903e+06
3.46249e+06
3.46547e+06
3.46804e+06
3.47029e+06
3.47225e+06
3.47399e+06
3.47552e+06
3.47689e+06
3.47811e+06
3.47921e+06
3.4802e+06
3.4811e+06
3.48191e+06
3.48265e+06
3.48332e+06
3.48393e+06
3.48448e+06
3.48499e+06
3.48545e+06
3.48588e+06
3.48626e+06
3.46496e+06
3.45367e+06
3.46434e+06
3.455e+06
3.46747e+06
3.45693e+06
3.45524e+06
3.44873e+06
3.44495e+06
3.44494e+06
3.4444e+06
3.44619e+06
3.44488e+06
3.43514e+06
3.42866e+06
3.43625e+06
3.44318e+06
3.44912e+06
3.45403e+06
3.45825e+06
3.46182e+06
3.4649e+06
3.46755e+06
3.46986e+06
3.47187e+06
3.47365e+06
3.47522e+06
3.47661e+06
3.47786e+06
3.47898e+06
3.47998e+06
3.48089e+06
3.48172e+06
3.48246e+06
3.48314e+06
3.48376e+06
3.48432e+06
3.48484e+06
3.4853e+06
3.48573e+06
3.48612e+06
3.45963e+06
3.45367e+06
3.45897e+06
3.45416e+06
3.45994e+06
3.45467e+06
3.44924e+06
3.44377e+06
3.4395e+06
3.43963e+06
3.43917e+06
3.44119e+06
3.4398e+06
3.43095e+06
3.42651e+06
3.43469e+06
3.44193e+06
3.44815e+06
3.45322e+06
3.45757e+06
3.46125e+06
3.46441e+06
3.46712e+06
3.46948e+06
3.47154e+06
3.47335e+06
3.47495e+06
3.47637e+06
3.47763e+06
3.47877e+06
3.47979e+06
3.48071e+06
3.48154e+06
3.48229e+06
3.48298e+06
3.4836e+06
3.48417e+06
3.48469e+06
3.48516e+06
3.48559e+06
3.48598e+06
3.45007e+06
3.45566e+06
3.45064e+06
3.45523e+06
3.45046e+06
3.45185e+06
3.44362e+06
3.43907e+06
3.435e+06
3.43532e+06
3.43489e+06
3.43712e+06
3.43558e+06
3.42761e+06
3.42497e+06
3.43351e+06
3.44098e+06
3.44738e+06
3.45256e+06
3.45702e+06
3.46077e+06
3.46399e+06
3.46676e+06
3.46916e+06
3.47125e+06
3.47309e+06
3.47471e+06
3.47615e+06
3.47743e+06
3.47858e+06
3.47961e+06
3.48054e+06
3.48138e+06
3.48214e+06
3.48283e+06
3.48346e+06
3.48403e+06
3.48455e+06
3.48502e+06
3.48546e+06
3.48585e+06
3.44328e+06
3.4598e+06
3.44488e+06
3.4583e+06
3.44544e+06
3.44954e+06
3.43999e+06
3.43534e+06
3.4318e+06
3.43224e+06
3.43195e+06
3.43392e+06
3.43236e+06
3.42513e+06
3.42398e+06
3.4327e+06
3.44031e+06
3.4468e+06
3.45206e+06
3.45658e+06
3.46038e+06
3.46365e+06
3.46646e+06
3.46889e+06
3.47101e+06
3.47287e+06
3.47451e+06
3.47596e+06
3.47725e+06
3.47841e+06
3.47945e+06
3.48039e+06
3.48123e+06
3.482e+06
3.48269e+06
3.48332e+06
3.4839e+06
3.48442e+06
3.4849e+06
3.48533e+06
3.48573e+06
3.44146e+06
3.46269e+06
3.44356e+06
3.46089e+06
3.44554e+06
3.4477e+06
3.43817e+06
3.43263e+06
3.42979e+06
3.43025e+06
3.43006e+06
3.43169e+06
3.43017e+06
3.42352e+06
3.42352e+06
3.43224e+06
3.4399e+06
3.44641e+06
3.45171e+06
3.45626e+06
3.46009e+06
3.46339e+06
3.46622e+06
3.46868e+06
3.47081e+06
3.47269e+06
3.47434e+06
3.4758e+06
3.4771e+06
3.47827e+06
3.47931e+06
3.48025e+06
3.4811e+06
3.48187e+06
3.48257e+06
3.4832e+06
3.48377e+06
3.4843e+06
3.48478e+06
3.48521e+06
3.48561e+06
3.44353e+06
3.46087e+06
3.4452e+06
3.4596e+06
3.44697e+06
3.44514e+06
3.437e+06
3.43062e+06
3.42864e+06
3.42908e+06
3.42898e+06
3.43015e+06
3.42877e+06
3.42251e+06
3.42344e+06
3.43206e+06
3.43971e+06
3.44619e+06
3.45149e+06
3.45605e+06
3.45989e+06
3.4632e+06
3.46605e+06
3.46851e+06
3.47066e+06
3.47255e+06
3.4742e+06
3.47567e+06
3.47698e+06
3.47815e+06
3.47919e+06
3.48014e+06
3.48099e+06
3.48175e+06
3.48245e+06
3.48309e+06
3.48366e+06
3.48419e+06
3.48466e+06
3.4851e+06
3.4855e+06
3.44603e+06
3.45396e+06
3.44662e+06
3.45398e+06
3.44676e+06
3.44145e+06
3.43567e+06
3.42902e+06
3.42797e+06
3.42837e+06
3.42833e+06
3.42904e+06
3.42785e+06
3.42186e+06
3.4236e+06
3.43207e+06
3.43968e+06
3.4461e+06
3.4514e+06
3.45594e+06
3.45978e+06
3.46309e+06
3.46593e+06
3.4684e+06
3.47056e+06
3.47244e+06
3.4741e+06
3.47557e+06
3.47688e+06
3.47805e+06
3.47909e+06
3.48004e+06
3.48089e+06
3.48165e+06
3.48235e+06
3.48298e+06
3.48356e+06
3.48408e+06
3.48456e+06
3.48499e+06
3.48539e+06
3.44721e+06
3.4446e+06
3.44631e+06
3.44608e+06
3.44451e+06
3.43714e+06
3.43399e+06
3.42762e+06
3.42743e+06
3.42778e+06
3.42777e+06
3.42813e+06
3.4271e+06
3.42135e+06
3.42388e+06
3.4322e+06
3.43978e+06
3.44612e+06
3.4514e+06
3.45591e+06
3.45974e+06
3.46304e+06
3.46588e+06
3.46834e+06
3.47049e+06
3.47238e+06
3.47403e+06
3.4755e+06
3.47681e+06
3.47797e+06
3.47902e+06
3.47995e+06
3.4808e+06
3.48157e+06
3.48226e+06
3.48289e+06
3.48346e+06
3.48399e+06
3.48446e+06
3.4849e+06
3.48529e+06
3.4464e+06
3.43519e+06
3.44426e+06
3.43803e+06
3.44102e+06
3.43283e+06
3.43203e+06
3.42625e+06
3.42676e+06
3.42707e+06
3.4271e+06
3.42726e+06
3.42632e+06
3.42087e+06
3.42421e+06
3.43241e+06
3.43997e+06
3.44624e+06
3.45148e+06
3.45596e+06
3.45977e+06
3.46305e+06
3.46587e+06
3.46833e+06
3.47047e+06
3.47235e+06
3.474e+06
3.47546e+06
3.47676e+06
3.47792e+06
3.47896e+06
3.47989e+06
3.48073e+06
3.48149e+06
3.48218e+06
3.48281e+06
3.48338e+06
3.4839e+06
3.48437e+06
3.48481e+06
3.4852e+06
3.44417e+06
3.42727e+06
3.44118e+06
3.43108e+06
3.43717e+06
3.42898e+06
3.42996e+06
3.42484e+06
3.42587e+06
3.42618e+06
3.42625e+06
3.42636e+06
3.42543e+06
3.4204e+06
3.42456e+06
3.43268e+06
3.44024e+06
3.44643e+06
3.45165e+06
3.45608e+06
3.45986e+06
3.46312e+06
3.46592e+06
3.46836e+06
3.47049e+06
3.47235e+06
3.47399e+06
3.47544e+06
3.47673e+06
3.47788e+06
3.47891e+06
3.47984e+06
3.48068e+06
3.48143e+06
3.48212e+06
3.48274e+06
3.48331e+06
3.48382e+06
3.48429e+06
3.48472e+06
3.48511e+06
3.44118e+06
3.42136e+06
3.43785e+06
3.42574e+06
3.43357e+06
3.42581e+06
3.42795e+06
3.42341e+06
3.4248e+06
3.42517e+06
3.42527e+06
3.42544e+06
3.42445e+06
3.42001e+06
3.42496e+06
3.43302e+06
3.44058e+06
3.44671e+06
3.45189e+06
3.45628e+06
3.46002e+06
3.46325e+06
3.46603e+06
3.46844e+06
3.47055e+06
3.47239e+06
3.47402e+06
3.47546e+06
3.47673e+06
3.47787e+06
3.47889e+06
3.47981e+06
3.48064e+06
3.48138e+06
3.48206e+06
3.48268e+06
3.48324e+06
3.48375e+06
3.48422e+06
3.48464e+06
3.48503e+06
3.43823e+06
3.41756e+06
3.43482e+06
3.42206e+06
3.43057e+06
3.4234e+06
3.42615e+06
3.42207e+06
3.42368e+06
3.42417e+06
3.42428e+06
3.42456e+06
3.4235e+06
3.41978e+06
3.42544e+06
3.43346e+06
3.44102e+06
3.44707e+06
3.45221e+06
3.45655e+06
3.46025e+06
3.46343e+06
3.46618e+06
3.46857e+06
3.47065e+06
3.47247e+06
3.47408e+06
3.4755e+06
3.47676e+06
3.47788e+06
3.47889e+06
3.47979e+06
3.48061e+06
3.48135e+06
3.48202e+06
3.48263e+06
3.48318e+06
3.48369e+06
3.48415e+06
3.48457e+06
3.48495e+06
3.43557e+06
3.41559e+06
3.43234e+06
3.41987e+06
3.42826e+06
3.42174e+06
3.42466e+06
3.42094e+06
3.42268e+06
3.42334e+06
3.42343e+06
3.42381e+06
3.42269e+06
3.4198e+06
3.42606e+06
3.43403e+06
3.44155e+06
3.44752e+06
3.45261e+06
3.45688e+06
3.46054e+06
3.46368e+06
3.46639e+06
3.46874e+06
3.47079e+06
3.47258e+06
3.47416e+06
3.47556e+06
3.4768e+06
3.47791e+06
3.4789e+06
3.4798e+06
3.4806e+06
3.48133e+06
3.48199e+06
3.48259e+06
3.48313e+06
3.48363e+06
3.48409e+06
3.48451e+06
3.48489e+06
3.4333e+06
3.41511e+06
3.43047e+06
3.41893e+06
3.42662e+06
3.42077e+06
3.42355e+06
3.42013e+06
3.4219e+06
3.42276e+06
3.4228e+06
3.42328e+06
3.42214e+06
3.42011e+06
3.42683e+06
3.43475e+06
3.44219e+06
3.44807e+06
3.4531e+06
3.4573e+06
3.4609e+06
3.46398e+06
3.46664e+06
3.46895e+06
3.47097e+06
3.47273e+06
3.47428e+06
3.47566e+06
3.47688e+06
3.47796e+06
3.47894e+06
3.47981e+06
3.4806e+06
3.48132e+06
3.48197e+06
3.48256e+06
3.48309e+06
3.48359e+06
3.48404e+06
3.48445e+06
3.48482e+06
3.43105e+06
3.41557e+06
3.42905e+06
3.41892e+06
3.42553e+06
3.42036e+06
3.42281e+06
3.41966e+06
3.4214e+06
3.42248e+06
3.42244e+06
3.423e+06
3.42188e+06
3.42074e+06
3.42778e+06
3.43562e+06
3.44295e+06
3.44872e+06
3.45367e+06
3.45779e+06
3.46132e+06
3.46434e+06
3.46695e+06
3.46921e+06
3.47118e+06
3.47291e+06
3.47443e+06
3.47578e+06
3.47697e+06
3.47803e+06
3.47899e+06
3.47984e+06
3.48062e+06
3.48132e+06
3.48195e+06
3.48253e+06
3.48306e+06
3.48355e+06
3.48399e+06
3.48439e+06
3.48476e+06
3.42939e+06
3.41693e+06
3.42798e+06
3.4195e+06
3.42483e+06
3.42037e+06
3.42241e+06
3.41952e+06
3.42119e+06
3.42246e+06
3.42234e+06
3.42298e+06
3.42193e+06
3.42165e+06
3.42892e+06
3.43665e+06
3.44384e+06
3.44949e+06
3.45433e+06
3.45836e+06
3.46181e+06
3.46476e+06
3.46731e+06
3.46952e+06
3.47144e+06
3.47313e+06
3.47461e+06
3.47592e+06
3.47708e+06
3.47812e+06
3.47905e+06
3.47989e+06
3.48065e+06
3.48133e+06
3.48195e+06
3.48252e+06
3.48304e+06
3.48351e+06
3.48395e+06
3.48435e+06
3.48471e+06
3.42789e+06
3.41861e+06
3.42707e+06
3.42037e+06
3.42441e+06
3.42065e+06
3.42226e+06
3.41963e+06
3.42119e+06
3.42266e+06
3.42248e+06
3.42321e+06
3.42227e+06
3.42283e+06
3.43023e+06
3.43784e+06
3.44485e+06
3.45036e+06
3.45508e+06
3.45901e+06
3.46237e+06
3.46524e+06
3.46772e+06
3.46987e+06
3.47174e+06
3.47338e+06
3.47482e+06
3.47609e+06
3.47722e+06
3.47823e+06
3.47914e+06
3.47995e+06
3.48069e+06
3.48136e+06
3.48196e+06
3.48252e+06
3.48302e+06
3.48349e+06
3.48391e+06
3.48431e+06
3.48466e+06
3.42667e+06
3.42047e+06
3.42637e+06
3.42137e+06
3.42417e+06
3.42108e+06
3.42228e+06
3.41989e+06
3.42133e+06
3.42302e+06
3.42282e+06
3.42363e+06
3.42287e+06
3.42425e+06
3.43171e+06
3.43918e+06
3.44598e+06
3.45134e+06
3.45593e+06
3.45974e+06
3.463e+06
3.46578e+06
3.46818e+06
3.47026e+06
3.47207e+06
3.47366e+06
3.47505e+06
3.47629e+06
3.47738e+06
3.47836e+06
3.47924e+06
3.48003e+06
3.48074e+06
3.48139e+06
3.48198e+06
3.48252e+06
3.48302e+06
3.48347e+06
3.48389e+06
3.48427e+06
3.48462e+06
3.42542e+06
3.42206e+06
3.42577e+06
3.42233e+06
3.42403e+06
3.42155e+06
3.42243e+06
3.42025e+06
3.42156e+06
3.42348e+06
3.42333e+06
3.42422e+06
3.42372e+06
3.42589e+06
3.43336e+06
3.44067e+06
3.44725e+06
3.45244e+06
3.45687e+06
3.46055e+06
3.4637e+06
3.46638e+06
3.4687e+06
3.4707e+06
3.47244e+06
3.47397e+06
3.47532e+06
3.47651e+06
3.47756e+06
3.47851e+06
3.47935e+06
3.48012e+06
3.48081e+06
3.48144e+06
3.48201e+06
3.48254e+06
3.48302e+06
3.48346e+06
3.48387e+06
3.48424e+06
3.48458e+06
3.42474e+06
3.42362e+06
3.4253e+06
3.42315e+06
3.42397e+06
3.42201e+06
3.42266e+06
3.42064e+06
3.42185e+06
3.42403e+06
3.42403e+06
3.42497e+06
3.42485e+06
3.42776e+06
3.43519e+06
3.44231e+06
3.44864e+06
3.45365e+06
3.45791e+06
3.46145e+06
3.46447e+06
3.46704e+06
3.46926e+06
3.47118e+06
3.47285e+06
3.47432e+06
3.47561e+06
3.47675e+06
3.47776e+06
3.47867e+06
3.47949e+06
3.48022e+06
3.48089e+06
3.48149e+06
3.48205e+06
3.48256e+06
3.48302e+06
3.48345e+06
3.48385e+06
3.48421e+06
3.48455e+06
3.42415e+06
3.42478e+06
3.42483e+06
3.4238e+06
3.42394e+06
3.42246e+06
3.42297e+06
3.42104e+06
3.42221e+06
3.42466e+06
3.42494e+06
3.42588e+06
3.42631e+06
3.42987e+06
3.43722e+06
3.44412e+06
3.45018e+06
3.45498e+06
3.45905e+06
3.46243e+06
3.46531e+06
3.46776e+06
3.46988e+06
3.47171e+06
3.4733e+06
3.4747e+06
3.47593e+06
3.47702e+06
3.47799e+06
3.47885e+06
3.47963e+06
3.48034e+06
3.48098e+06
3.48156e+06
3.48209e+06
3.48258e+06
3.48304e+06
3.48345e+06
3.48384e+06
3.48419e+06
3.48452e+06
3.42394e+06
3.42581e+06
3.42446e+06
3.42431e+06
3.42398e+06
3.42289e+06
3.42339e+06
3.42147e+06
3.42259e+06
3.42537e+06
3.4261e+06
3.42697e+06
3.42815e+06
3.43223e+06
3.43948e+06
3.4461e+06
3.45187e+06
3.45643e+06
3.4603e+06
3.46349e+06
3.46622e+06
3.46855e+06
3.47055e+06
3.47228e+06
3.47379e+06
3.47511e+06
3.47627e+06
3.47731e+06
3.47822e+06
3.47905e+06
3.47979e+06
3.48046e+06
3.48108e+06
3.48163e+06
3.48215e+06
3.48262e+06
3.48306e+06
3.48346e+06
3.48383e+06
3.48418e+06
3.4845e+06
3.42325e+06
3.42613e+06
3.424e+06
3.42476e+06
3.42413e+06
3.42338e+06
3.42395e+06
3.42192e+06
3.42307e+06
3.42617e+06
3.42759e+06
3.4283e+06
3.43045e+06
3.43487e+06
3.44199e+06
3.44826e+06
3.4537e+06
3.458e+06
3.46164e+06
3.46465e+06
3.46721e+06
3.46939e+06
3.47127e+06
3.47289e+06
3.47431e+06
3.47555e+06
3.47664e+06
3.47762e+06
3.47848e+06
3.47926e+06
3.47996e+06
3.4806e+06
3.48118e+06
3.48172e+06
3.48221e+06
3.48266e+06
3.48308e+06
3.48347e+06
3.48383e+06
3.48417e+06
3.48448e+06
3.42363e+06
3.42702e+06
3.42948e+06
3.42993e+06
3.43327e+06
3.4378e+06
3.44476e+06
3.4506e+06
3.4557e+06
3.4597e+06
3.46309e+06
3.46588e+06
3.46826e+06
3.47029e+06
3.47203e+06
3.47354e+06
3.47486e+06
3.47602e+06
3.47704e+06
3.47795e+06
3.47876e+06
3.47949e+06
3.48015e+06
3.48075e+06
3.4813e+06
3.48181e+06
3.48227e+06
3.48271e+06
3.48311e+06
3.48349e+06
3.48383e+06
3.48416e+06
3.48446e+06
3.48318e+06
3.48316e+06
3.48326e+06
3.48347e+06
3.48375e+06
3.48408e+06
3.48444e+06
3.48482e+06
3.48521e+06
3.4856e+06
3.486e+06
3.48638e+06
3.48676e+06
3.48713e+06
3.48748e+06
3.48782e+06
3.48814e+06
3.48845e+06
3.48875e+06
3.48903e+06
3.48195e+06
3.48177e+06
3.48168e+06
3.48184e+06
3.48209e+06
3.48243e+06
3.48283e+06
3.48326e+06
3.48371e+06
3.48416e+06
3.48462e+06
3.48507e+06
3.48551e+06
3.48594e+06
3.48635e+06
3.48675e+06
3.48713e+06
3.4875e+06
3.48784e+06
3.48817e+06
3.48848e+06
3.48877e+06
3.55782e+06
3.54789e+06
3.55589e+06
3.54689e+06
3.55089e+06
3.54499e+06
3.54513e+06
3.54095e+06
3.54043e+06
3.53909e+06
3.51762e+06
3.48612e+06
3.48398e+06
3.48085e+06
3.48054e+06
3.47987e+06
3.47996e+06
3.4801e+06
3.48046e+06
3.48088e+06
3.48137e+06
3.48189e+06
3.48243e+06
3.48296e+06
3.4835e+06
3.48402e+06
3.48453e+06
3.48502e+06
3.4855e+06
3.48595e+06
3.48638e+06
3.48679e+06
3.48718e+06
3.48755e+06
3.48789e+06
3.48822e+06
3.48853e+06
3.55525e+06
3.54804e+06
3.55347e+06
3.54661e+06
3.54916e+06
3.54378e+06
3.54302e+06
3.53803e+06
3.53715e+06
3.53445e+06
3.53523e+06
3.53326e+06
3.51691e+06
3.48331e+06
3.4798e+06
3.47785e+06
3.47782e+06
3.47765e+06
3.47803e+06
3.47846e+06
3.47903e+06
3.47964e+06
3.48029e+06
3.48094e+06
3.48159e+06
3.48222e+06
3.48284e+06
3.48343e+06
3.484e+06
3.48454e+06
3.48506e+06
3.48555e+06
3.48601e+06
3.48645e+06
3.48687e+06
3.48725e+06
3.48762e+06
3.48796e+06
3.48828e+06
3.54903e+06
3.54822e+06
3.54764e+06
3.54544e+06
3.54554e+06
3.54154e+06
3.53932e+06
3.53358e+06
3.53163e+06
3.52718e+06
3.52946e+06
3.52659e+06
3.51366e+06
3.48068e+06
3.47472e+06
3.47465e+06
3.47482e+06
3.47532e+06
3.47601e+06
3.47677e+06
3.47758e+06
3.47839e+06
3.4792e+06
3.47999e+06
3.48075e+06
3.48149e+06
3.48218e+06
3.48285e+06
3.48347e+06
3.48407e+06
3.48463e+06
3.48516e+06
3.48565e+06
3.48612e+06
3.48656e+06
3.48697e+06
3.48735e+06
3.48771e+06
3.48804e+06
3.48835e+06
3.53829e+06
3.54673e+06
3.53815e+06
3.54214e+06
3.53918e+06
3.53711e+06
3.53333e+06
3.52744e+06
3.52425e+06
3.51863e+06
3.52181e+06
3.51788e+06
3.50867e+06
3.47834e+06
3.46921e+06
3.47138e+06
3.47166e+06
3.47296e+06
3.47395e+06
3.47507e+06
3.47612e+06
3.47715e+06
3.47812e+06
3.47905e+06
3.47993e+06
3.48076e+06
3.48154e+06
3.48227e+06
3.48296e+06
3.4836e+06
3.4842e+06
3.48477e+06
3.4853e+06
3.48579e+06
3.48625e+06
3.48669e+06
3.48709e+06
3.48746e+06
3.48781e+06
3.48813e+06
3.52318e+06
3.54143e+06
3.52451e+06
3.53465e+06
3.52822e+06
3.52826e+06
3.52358e+06
3.51898e+06
3.51545e+06
3.50989e+06
3.51368e+06
3.5089e+06
3.50328e+06
3.47578e+06
3.46396e+06
3.46805e+06
3.46853e+06
3.4706e+06
3.47189e+06
3.47339e+06
3.47467e+06
3.47591e+06
3.47705e+06
3.47812e+06
3.47912e+06
3.48004e+06
3.4809e+06
3.4817e+06
3.48245e+06
3.48314e+06
3.48379e+06
3.48439e+06
3.48495e+06
3.48547e+06
3.48596e+06
3.48641e+06
3.48683e+06
3.48722e+06
3.48758e+06
3.48791e+06
3.48822e+06
3.50277e+06
3.52788e+06
3.5058e+06
3.52e+06
3.51023e+06
3.51203e+06
3.50792e+06
3.50714e+06
3.50561e+06
3.50227e+06
3.50562e+06
3.50087e+06
3.49818e+06
3.47279e+06
3.45954e+06
3.46467e+06
3.46558e+06
3.46828e+06
3.46989e+06
3.47174e+06
3.47325e+06
3.47471e+06
3.47601e+06
3.47722e+06
3.47832e+06
3.47934e+06
3.48028e+06
3.48115e+06
3.48196e+06
3.4827e+06
3.48339e+06
3.48402e+06
3.48462e+06
3.48516e+06
3.48567e+06
3.48614e+06
3.48658e+06
3.48698e+06
3.48735e+06
3.4877e+06
3.48801e+06
3.47981e+06
3.50493e+06
3.48232e+06
3.49637e+06
3.48347e+06
3.48583e+06
3.48438e+06
3.49077e+06
3.49473e+06
3.49543e+06
3.49849e+06
3.49449e+06
3.49366e+06
3.46985e+06
3.45611e+06
3.46133e+06
3.46289e+06
3.46602e+06
3.46799e+06
3.47013e+06
3.47189e+06
3.47354e+06
3.475e+06
3.47634e+06
3.47756e+06
3.47867e+06
3.47969e+06
3.48062e+06
3.48148e+06
3.48227e+06
3.483e+06
3.48367e+06
3.48429e+06
3.48486e+06
3.48539e+06
3.48588e+06
3.48633e+06
3.48675e+06
3.48713e+06
3.48749e+06
3.48782e+06
3.45203e+06
3.472e+06
3.45495e+06
3.46496e+06
3.44944e+06
3.45047e+06
3.45368e+06
3.47032e+06
3.48318e+06
3.48931e+06
3.49252e+06
3.48971e+06
3.4897e+06
3.46735e+06
3.45336e+06
3.45813e+06
3.46046e+06
3.46385e+06
3.46619e+06
3.46859e+06
3.47057e+06
3.47241e+06
3.47403e+06
3.4755e+06
3.47682e+06
3.47802e+06
3.47911e+06
3.48011e+06
3.48102e+06
3.48185e+06
3.48262e+06
3.48332e+06
3.48397e+06
3.48457e+06
3.48512e+06
3.48563e+06
3.48609e+06
3.48652e+06
3.48692e+06
3.48729e+06
3.48762e+06
3.42739e+06
3.43908e+06
3.42937e+06
3.43313e+06
3.41592e+06
3.41377e+06
3.42223e+06
3.44957e+06
3.47224e+06
3.4839e+06
3.4876e+06
3.48602e+06
3.48613e+06
3.46523e+06
3.45083e+06
3.45511e+06
3.45821e+06
3.46178e+06
3.46449e+06
3.46712e+06
3.46933e+06
3.47134e+06
3.4731e+06
3.47469e+06
3.47611e+06
3.4774e+06
3.47856e+06
3.47961e+06
3.48058e+06
3.48145e+06
3.48226e+06
3.48299e+06
3.48367e+06
3.48429e+06
3.48486e+06
3.48538e+06
3.48586e+06
3.48631e+06
3.48671e+06
3.48709e+06
3.48743e+06
3.41239e+06
3.41778e+06
3.41336e+06
3.41292e+06
3.39619e+06
3.39149e+06
3.40212e+06
3.43572e+06
3.46449e+06
3.47945e+06
3.48308e+06
3.48258e+06
3.48229e+06
3.46299e+06
3.44822e+06
3.45223e+06
3.45605e+06
3.4598e+06
3.46288e+06
3.46572e+06
3.46814e+06
3.47032e+06
3.47222e+06
3.47392e+06
3.47544e+06
3.4768e+06
3.47803e+06
3.47915e+06
3.48015e+06
3.48107e+06
3.48191e+06
3.48267e+06
3.48337e+06
3.48402e+06
3.4846e+06
3.48514e+06
3.48564e+06
3.4861e+06
3.48651e+06
3.4869e+06
3.48725e+06
3.41172e+06
3.41646e+06
3.41255e+06
3.41337e+06
3.39917e+06
3.39604e+06
3.40318e+06
3.43463e+06
3.46146e+06
3.47565e+06
3.47833e+06
3.47863e+06
3.47778e+06
3.46019e+06
3.44551e+06
3.44949e+06
3.45397e+06
3.45793e+06
3.46135e+06
3.4644e+06
3.46702e+06
3.46935e+06
3.47139e+06
3.4732e+06
3.47481e+06
3.47625e+06
3.47754e+06
3.4787e+06
3.47976e+06
3.48071e+06
3.48158e+06
3.48237e+06
3.48309e+06
3.48376e+06
3.48436e+06
3.48492e+06
3.48542e+06
3.48589e+06
3.48632e+06
3.48671e+06
3.48707e+06
3.42325e+06
3.43155e+06
3.42398e+06
3.42975e+06
3.41878e+06
3.42089e+06
3.42123e+06
3.44349e+06
3.46166e+06
3.4718e+06
3.47321e+06
3.47395e+06
3.47275e+06
3.45685e+06
3.4428e+06
3.44691e+06
3.45196e+06
3.45617e+06
3.4599e+06
3.46315e+06
3.46597e+06
3.46845e+06
3.47061e+06
3.47252e+06
3.47421e+06
3.47572e+06
3.47707e+06
3.47828e+06
3.47938e+06
3.48037e+06
3.48127e+06
3.48208e+06
3.48283e+06
3.48351e+06
3.48413e+06
3.4847e+06
3.48522e+06
3.4857e+06
3.48613e+06
3.48653e+06
3.48689e+06
3.43756e+06
3.4482e+06
3.43879e+06
3.44759e+06
3.44002e+06
3.44743e+06
3.44158e+06
3.45297e+06
3.46174e+06
3.46739e+06
3.4678e+06
3.46879e+06
3.46738e+06
3.45311e+06
3.44003e+06
3.44452e+06
3.45001e+06
3.45452e+06
3.45854e+06
3.46199e+06
3.46499e+06
3.4676e+06
3.46988e+06
3.47189e+06
3.47366e+06
3.47523e+06
3.47663e+06
3.47789e+06
3.47903e+06
3.48005e+06
3.48097e+06
3.48181e+06
3.48258e+06
3.48327e+06
3.48391e+06
3.48449e+06
3.48502e+06
3.48551e+06
3.48595e+06
3.48636e+06
3.48673e+06
3.44953e+06
3.45821e+06
3.45055e+06
3.45819e+06
3.45424e+06
3.46164e+06
3.45468e+06
3.45722e+06
3.45982e+06
3.46236e+06
3.4622e+06
3.46335e+06
3.46186e+06
3.44903e+06
3.43715e+06
3.44228e+06
3.44814e+06
3.45299e+06
3.45726e+06
3.46091e+06
3.46408e+06
3.46682e+06
3.46921e+06
3.4713e+06
3.47315e+06
3.47478e+06
3.47623e+06
3.47753e+06
3.4787e+06
3.47975e+06
3.4807e+06
3.48156e+06
3.48234e+06
3.48305e+06
3.4837e+06
3.48429e+06
3.48483e+06
3.48533e+06
3.48578e+06
3.48619e+06
3.48657e+06
3.45719e+06
3.45934e+06
3.45844e+06
3.46007e+06
3.4628e+06
3.46274e+06
3.4599e+06
3.45648e+06
3.45589e+06
3.4568e+06
3.45636e+06
3.45767e+06
3.45622e+06
3.44454e+06
3.43419e+06
3.44013e+06
3.44634e+06
3.45157e+06
3.45607e+06
3.45993e+06
3.46324e+06
3.46611e+06
3.4686e+06
3.47077e+06
3.47268e+06
3.47436e+06
3.47586e+06
3.47719e+06
3.47839e+06
3.47947e+06
3.48044e+06
3.48132e+06
3.48212e+06
3.48284e+06
3.4835e+06
3.4841e+06
3.48465e+06
3.48515e+06
3.48561e+06
3.48603e+06
3.48641e+06
3.46366e+06
3.45638e+06
3.4637e+06
3.45741e+06
3.46798e+06
3.45933e+06
3.4594e+06
3.45317e+06
3.45066e+06
3.45086e+06
3.4503e+06
3.45183e+06
3.45048e+06
3.43978e+06
3.4313e+06
3.4381e+06
3.44467e+06
3.45027e+06
3.45499e+06
3.45903e+06
3.46249e+06
3.46547e+06
3.46804e+06
3.47029e+06
3.47225e+06
3.47399e+06
3.47552e+06
3.47689e+06
3.47811e+06
3.47921e+06
3.4802e+06
3.4811e+06
3.48191e+06
3.48265e+06
3.48332e+06
3.48393e+06
3.48448e+06
3.48499e+06
3.48545e+06
3.48588e+06
3.48626e+06
3.46496e+06
3.45367e+06
3.46434e+06
3.455e+06
3.46747e+06
3.45693e+06
3.45524e+06
3.44873e+06
3.44495e+06
3.44494e+06
3.4444e+06
3.44619e+06
3.44488e+06
3.43514e+06
3.42866e+06
3.43625e+06
3.44318e+06
3.44912e+06
3.45403e+06
3.45825e+06
3.46182e+06
3.4649e+06
3.46755e+06
3.46986e+06
3.47187e+06
3.47365e+06
3.47522e+06
3.47661e+06
3.47786e+06
3.47898e+06
3.47998e+06
3.48089e+06
3.48172e+06
3.48246e+06
3.48314e+06
3.48376e+06
3.48432e+06
3.48484e+06
3.4853e+06
3.48573e+06
3.48612e+06
3.45963e+06
3.45367e+06
3.45897e+06
3.45416e+06
3.45994e+06
3.45467e+06
3.44924e+06
3.44377e+06
3.4395e+06
3.43963e+06
3.43917e+06
3.44119e+06
3.4398e+06
3.43095e+06
3.42651e+06
3.43469e+06
3.44193e+06
3.44815e+06
3.45322e+06
3.45757e+06
3.46125e+06
3.46441e+06
3.46712e+06
3.46948e+06
3.47154e+06
3.47335e+06
3.47495e+06
3.47637e+06
3.47763e+06
3.47877e+06
3.47979e+06
3.48071e+06
3.48154e+06
3.48229e+06
3.48298e+06
3.4836e+06
3.48417e+06
3.48469e+06
3.48516e+06
3.48559e+06
3.48598e+06
3.45007e+06
3.45566e+06
3.45064e+06
3.45523e+06
3.45046e+06
3.45185e+06
3.44362e+06
3.43907e+06
3.435e+06
3.43532e+06
3.43489e+06