/*--------------------------------*- C++ -*----------------------------------*\
| =========                 |                                                 |
| \\      /  F ield         | OpenFOAM: The Open Source CFD Toolbox           |
|  \\    /   O peration     | Version:  v2012                                 |
|   \\  /    A nd           | Website:  www.openfoam.com                      |
|    \\/     M anipulation  |                                                 |
\*---------------------------------------------------------------------------*/
FoamFile
{
    version     2.0;
    format      ascii;
    class       volScalarField;
    location    "0.75";
    object      p_rgh;
}
// * * * * * * * * * * * * * * * * * * * * * * * * * * * * * * * * * * * * * //

dimensions      [1 -1 -2 0 0 0 0];


internalField   nonuniform List<scalar> 
3332
(
3.48319e+06
3.48317e+06
3.48327e+06
3.48349e+06
3.48376e+06
3.48409e+06
3.48445e+06
3.48483e+06
3.48522e+06
3.48562e+06
3.48601e+06
3.48639e+06
3.48677e+06
3.48714e+06
3.48749e+06
3.48783e+06
3.48816e+06
3.48847e+06
3.48876e+06
3.48904e+06
3.48196e+06
3.48178e+06
3.48169e+06
3.48185e+06
3.4821e+06
3.48245e+06
3.48284e+06
3.48327e+06
3.48372e+06
3.48417e+06
3.48463e+06
3.48508e+06
3.48552e+06
3.48595e+06
3.48637e+06
3.48676e+06
3.48715e+06
3.48751e+06
3.48786e+06
3.48818e+06
3.48849e+06
3.48879e+06
3.55792e+06
3.54799e+06
3.55599e+06
3.54698e+06
3.55098e+06
3.54509e+06
3.54522e+06
3.54105e+06
3.54052e+06
3.53918e+06
3.51768e+06
3.48614e+06
3.48399e+06
3.48086e+06
3.48056e+06
3.47988e+06
3.47997e+06
3.48011e+06
3.48047e+06
3.48089e+06
3.48138e+06
3.4819e+06
3.48244e+06
3.48298e+06
3.48351e+06
3.48404e+06
3.48454e+06
3.48504e+06
3.48551e+06
3.48596e+06
3.48639e+06
3.4868e+06
3.48719e+06
3.48756e+06
3.48791e+06
3.48823e+06
3.48854e+06
3.55534e+06
3.54814e+06
3.55356e+06
3.5467e+06
3.54925e+06
3.54388e+06
3.54312e+06
3.53813e+06
3.53725e+06
3.53455e+06
3.53533e+06
3.53335e+06
3.51697e+06
3.48333e+06
3.47982e+06
3.47786e+06
3.47783e+06
3.47766e+06
3.47804e+06
3.47847e+06
3.47904e+06
3.47966e+06
3.4803e+06
3.48095e+06
3.4816e+06
3.48224e+06
3.48285e+06
3.48344e+06
3.48401e+06
3.48456e+06
3.48507e+06
3.48556e+06
3.48603e+06
3.48646e+06
3.48688e+06
3.48727e+06
3.48763e+06
3.48798e+06
3.4883e+06
3.54913e+06
3.54832e+06
3.54773e+06
3.54554e+06
3.54564e+06
3.54163e+06
3.53941e+06
3.53368e+06
3.53173e+06
3.52728e+06
3.52955e+06
3.52669e+06
3.51373e+06
3.4807e+06
3.47474e+06
3.47467e+06
3.47483e+06
3.47534e+06
3.47602e+06
3.47679e+06
3.47759e+06
3.47841e+06
3.47922e+06
3.48001e+06
3.48077e+06
3.4815e+06
3.4822e+06
3.48286e+06
3.48349e+06
3.48408e+06
3.48464e+06
3.48517e+06
3.48567e+06
3.48613e+06
3.48657e+06
3.48698e+06
3.48736e+06
3.48772e+06
3.48806e+06
3.48837e+06
3.53839e+06
3.54683e+06
3.53824e+06
3.54224e+06
3.53928e+06
3.53721e+06
3.53343e+06
3.52754e+06
3.52435e+06
3.51873e+06
3.52191e+06
3.51798e+06
3.50875e+06
3.47837e+06
3.46922e+06
3.47139e+06
3.47168e+06
3.47297e+06
3.47396e+06
3.47509e+06
3.47613e+06
3.47716e+06
3.47813e+06
3.47906e+06
3.47994e+06
3.48077e+06
3.48155e+06
3.48228e+06
3.48297e+06
3.48361e+06
3.48422e+06
3.48478e+06
3.48531e+06
3.48581e+06
3.48627e+06
3.4867e+06
3.4871e+06
3.48747e+06
3.48782e+06
3.48814e+06
3.52328e+06
3.54154e+06
3.52461e+06
3.53475e+06
3.52832e+06
3.52837e+06
3.52368e+06
3.51908e+06
3.51555e+06
3.50999e+06
3.51378e+06
3.509e+06
3.50337e+06
3.47581e+06
3.46398e+06
3.46806e+06
3.46855e+06
3.47061e+06
3.47191e+06
3.4734e+06
3.47468e+06
3.47593e+06
3.47707e+06
3.47814e+06
3.47913e+06
3.48005e+06
3.48092e+06
3.48172e+06
3.48246e+06
3.48316e+06
3.4838e+06
3.48441e+06
3.48497e+06
3.48549e+06
3.48597e+06
3.48642e+06
3.48684e+06
3.48723e+06
3.48759e+06
3.48793e+06
3.48823e+06
3.50288e+06
3.52798e+06
3.5059e+06
3.5201e+06
3.51033e+06
3.51213e+06
3.50803e+06
3.50724e+06
3.50571e+06
3.50237e+06
3.50572e+06
3.50098e+06
3.49828e+06
3.47283e+06
3.45956e+06
3.46468e+06
3.46559e+06
3.46829e+06
3.46991e+06
3.47175e+06
3.47327e+06
3.47472e+06
3.47602e+06
3.47723e+06
3.47834e+06
3.47936e+06
3.4803e+06
3.48117e+06
3.48197e+06
3.48271e+06
3.4834e+06
3.48404e+06
3.48463e+06
3.48518e+06
3.48568e+06
3.48615e+06
3.48659e+06
3.48699e+06
3.48737e+06
3.48771e+06
3.48803e+06
3.47991e+06
3.50503e+06
3.48243e+06
3.49647e+06
3.48357e+06
3.48593e+06
3.48449e+06
3.49088e+06
3.49483e+06
3.49554e+06
3.4986e+06
3.49459e+06
3.49376e+06
3.4699e+06
3.45612e+06
3.46134e+06
3.4629e+06
3.46603e+06
3.468e+06
3.47015e+06
3.4719e+06
3.47355e+06
3.47501e+06
3.47635e+06
3.47757e+06
3.47868e+06
3.4797e+06
3.48063e+06
3.48149e+06
3.48228e+06
3.48301e+06
3.48368e+06
3.4843e+06
3.48487e+06
3.4854e+06
3.48589e+06
3.48635e+06
3.48676e+06
3.48715e+06
3.4875e+06
3.48783e+06
3.45214e+06
3.47211e+06
3.45506e+06
3.46507e+06
3.44954e+06
3.45057e+06
3.45379e+06
3.47043e+06
3.48328e+06
3.48942e+06
3.49263e+06
3.48981e+06
3.4898e+06
3.4674e+06
3.45337e+06
3.45814e+06
3.46047e+06
3.46386e+06
3.4662e+06
3.46861e+06
3.47059e+06
3.47243e+06
3.47404e+06
3.47551e+06
3.47683e+06
3.47803e+06
3.47912e+06
3.48012e+06
3.48103e+06
3.48187e+06
3.48263e+06
3.48334e+06
3.48399e+06
3.48458e+06
3.48513e+06
3.48564e+06
3.48611e+06
3.48654e+06
3.48694e+06
3.4873e+06
3.48764e+06
3.4275e+06
3.43919e+06
3.42948e+06
3.43324e+06
3.41602e+06
3.41388e+06
3.42234e+06
3.44968e+06
3.47235e+06
3.48401e+06
3.48771e+06
3.48613e+06
3.48624e+06
3.46529e+06
3.45084e+06
3.45512e+06
3.45822e+06
3.46179e+06
3.4645e+06
3.46714e+06
3.46934e+06
3.47135e+06
3.47311e+06
3.4747e+06
3.47613e+06
3.47741e+06
3.47857e+06
3.47963e+06
3.48059e+06
3.48147e+06
3.48227e+06
3.48301e+06
3.48368e+06
3.4843e+06
3.48487e+06
3.4854e+06
3.48588e+06
3.48632e+06
3.48673e+06
3.4871e+06
3.48745e+06
3.4125e+06
3.41789e+06
3.41347e+06
3.41303e+06
3.3963e+06
3.3916e+06
3.40223e+06
3.43583e+06
3.46461e+06
3.47957e+06
3.4832e+06
3.4827e+06
3.4824e+06
3.46305e+06
3.44824e+06
3.45225e+06
3.45607e+06
3.45982e+06
3.46289e+06
3.46574e+06
3.46816e+06
3.47033e+06
3.47223e+06
3.47394e+06
3.47545e+06
3.47682e+06
3.47805e+06
3.47916e+06
3.48017e+06
3.48109e+06
3.48192e+06
3.48269e+06
3.48339e+06
3.48403e+06
3.48462e+06
3.48516e+06
3.48565e+06
3.48611e+06
3.48653e+06
3.48691e+06
3.48726e+06
3.41183e+06
3.41658e+06
3.41266e+06
3.41348e+06
3.39928e+06
3.39616e+06
3.40329e+06
3.43474e+06
3.46158e+06
3.47577e+06
3.47845e+06
3.47874e+06
3.47789e+06
3.46026e+06
3.44553e+06
3.4495e+06
3.45398e+06
3.45795e+06
3.46136e+06
3.46442e+06
3.46704e+06
3.46937e+06
3.4714e+06
3.47321e+06
3.47482e+06
3.47626e+06
3.47755e+06
3.47872e+06
3.47977e+06
3.48073e+06
3.4816e+06
3.48239e+06
3.48311e+06
3.48377e+06
3.48438e+06
3.48493e+06
3.48544e+06
3.48591e+06
3.48633e+06
3.48673e+06
3.48708e+06
3.42337e+06
3.43167e+06
3.42409e+06
3.42987e+06
3.41889e+06
3.421e+06
3.42134e+06
3.44361e+06
3.46178e+06
3.47191e+06
3.47333e+06
3.47407e+06
3.47286e+06
3.45693e+06
3.44282e+06
3.44693e+06
3.45197e+06
3.45618e+06
3.45992e+06
3.46317e+06
3.46599e+06
3.46846e+06
3.47062e+06
3.47253e+06
3.47423e+06
3.47574e+06
3.47709e+06
3.4783e+06
3.47939e+06
3.48038e+06
3.48128e+06
3.4821e+06
3.48284e+06
3.48352e+06
3.48415e+06
3.48471e+06
3.48523e+06
3.48571e+06
3.48615e+06
3.48655e+06
3.48691e+06
3.43768e+06
3.44831e+06
3.43891e+06
3.44771e+06
3.44014e+06
3.44755e+06
3.4417e+06
3.45309e+06
3.46186e+06
3.46751e+06
3.46792e+06
3.46891e+06
3.4675e+06
3.45319e+06
3.44005e+06
3.44453e+06
3.45003e+06
3.45454e+06
3.45855e+06
3.46201e+06
3.46501e+06
3.46762e+06
3.4699e+06
3.4719e+06
3.47367e+06
3.47525e+06
3.47665e+06
3.47791e+06
3.47904e+06
3.48006e+06
3.48099e+06
3.48183e+06
3.48259e+06
3.48329e+06
3.48392e+06
3.48451e+06
3.48504e+06
3.48552e+06
3.48597e+06
3.48637e+06
3.48674e+06
3.44965e+06
3.45833e+06
3.45067e+06
3.45832e+06
3.45436e+06
3.46176e+06
3.4548e+06
3.45734e+06
3.45994e+06
3.46248e+06
3.46232e+06
3.46347e+06
3.46198e+06
3.4491e+06
3.43717e+06
3.44229e+06
3.44816e+06
3.453e+06
3.45727e+06
3.46093e+06
3.4641e+06
3.46684e+06
3.46923e+06
3.47132e+06
3.47316e+06
3.47479e+06
3.47625e+06
3.47755e+06
3.47871e+06
3.47976e+06
3.48071e+06
3.48157e+06
3.48236e+06
3.48307e+06
3.48372e+06
3.48431e+06
3.48485e+06
3.48534e+06
3.48579e+06
3.48621e+06
3.48658e+06
3.45732e+06
3.45946e+06
3.45856e+06
3.46019e+06
3.46292e+06
3.46286e+06
3.46002e+06
3.45661e+06
3.45601e+06
3.45692e+06
3.45648e+06
3.45779e+06
3.45634e+06
3.44462e+06
3.43421e+06
3.44015e+06
3.44636e+06
3.45158e+06
3.45609e+06
3.45994e+06
3.46326e+06
3.46613e+06
3.46861e+06
3.47079e+06
3.47269e+06
3.47438e+06
3.47588e+06
3.47721e+06
3.47841e+06
3.47948e+06
3.48046e+06
3.48134e+06
3.48213e+06
3.48286e+06
3.48352e+06
3.48412e+06
3.48467e+06
3.48517e+06
3.48563e+06
3.48605e+06
3.48643e+06
3.46378e+06
3.4565e+06
3.46382e+06
3.45754e+06
3.46811e+06
3.45946e+06
3.45952e+06
3.45329e+06
3.45078e+06
3.45098e+06
3.45043e+06
3.45195e+06
3.4506e+06
3.43986e+06
3.43132e+06
3.43812e+06
3.44469e+06
3.45029e+06
3.45501e+06
3.45905e+06
3.46251e+06
3.46548e+06
3.46806e+06
3.4703e+06
3.47227e+06
3.474e+06
3.47554e+06
3.47691e+06
3.47813e+06
3.47923e+06
3.48022e+06
3.48111e+06
3.48193e+06
3.48266e+06
3.48333e+06
3.48394e+06
3.4845e+06
3.48501e+06
3.48547e+06
3.48589e+06
3.48628e+06
3.46509e+06
3.45379e+06
3.46447e+06
3.45513e+06
3.4676e+06
3.45706e+06
3.45536e+06
3.44885e+06
3.44507e+06
3.44507e+06
3.44453e+06
3.44632e+06
3.445e+06
3.43522e+06
3.42869e+06
3.43626e+06
3.44319e+06
3.44914e+06
3.45405e+06
3.45826e+06
3.46184e+06
3.46492e+06
3.46757e+06
3.46987e+06
3.47189e+06
3.47366e+06
3.47523e+06
3.47663e+06
3.47788e+06
3.47899e+06
3.48e+06
3.48091e+06
3.48173e+06
3.48248e+06
3.48316e+06
3.48378e+06
3.48434e+06
3.48485e+06
3.48532e+06
3.48575e+06
3.48614e+06
3.45976e+06
3.45379e+06
3.4591e+06
3.45429e+06
3.46006e+06
3.4548e+06
3.44937e+06
3.4439e+06
3.43963e+06
3.43976e+06
3.4393e+06
3.44131e+06
3.43993e+06
3.43104e+06
3.42654e+06
3.43471e+06
3.44195e+06
3.44817e+06
3.45324e+06
3.45759e+06
3.46126e+06
3.46442e+06
3.46714e+06
3.4695e+06
3.47156e+06
3.47337e+06
3.47496e+06
3.47638e+06
3.47765e+06
3.47878e+06
3.4798e+06
3.48072e+06
3.48156e+06
3.48231e+06
3.483e+06
3.48362e+06
3.48419e+06
3.48471e+06
3.48518e+06
3.48561e+06
3.486e+06
3.4502e+06
3.45579e+06
3.45077e+06
3.45536e+06
3.45059e+06
3.45198e+06
3.44375e+06
3.4392e+06
3.43513e+06
3.43545e+06
3.43502e+06
3.43725e+06
3.4357e+06
3.42769e+06
3.42499e+06
3.43353e+06
3.441e+06
3.44739e+06
3.45258e+06
3.45704e+06
3.46078e+06
3.46401e+06
3.46677e+06
3.46918e+06
3.47127e+06
3.47311e+06
3.47473e+06
3.47617e+06
3.47745e+06
3.4786e+06
3.47963e+06
3.48056e+06
3.4814e+06
3.48216e+06
3.48285e+06
3.48347e+06
3.48405e+06
3.48457e+06
3.48504e+06
3.48547e+06
3.48587e+06
3.44341e+06
3.45993e+06
3.44501e+06
3.45844e+06
3.44558e+06
3.44967e+06
3.44012e+06
3.43547e+06
3.43193e+06
3.43237e+06
3.43208e+06
3.43406e+06
3.43249e+06
3.42522e+06
3.42401e+06
3.43272e+06
3.44032e+06
3.44682e+06
3.45208e+06
3.4566e+06
3.4604e+06
3.46367e+06
3.46647e+06
3.46891e+06
3.47103e+06
3.47289e+06
3.47453e+06
3.47598e+06
3.47727e+06
3.47843e+06
3.47947e+06
3.4804e+06
3.48125e+06
3.48201e+06
3.48271e+06
3.48334e+06
3.48392e+06
3.48444e+06
3.48492e+06
3.48535e+06
3.48574e+06
3.4416e+06
3.46282e+06
3.44369e+06
3.46103e+06
3.44567e+06
3.44783e+06
3.43831e+06
3.43276e+06
3.42992e+06
3.43038e+06
3.43019e+06
3.43183e+06
3.4303e+06
3.4236e+06
3.42355e+06
3.43226e+06
3.43992e+06
3.44643e+06
3.45173e+06
3.45628e+06
3.46011e+06
3.46341e+06
3.46624e+06
3.46869e+06
3.47083e+06
3.47271e+06
3.47436e+06
3.47582e+06
3.47712e+06
3.47829e+06
3.47933e+06
3.48027e+06
3.48112e+06
3.48189e+06
3.48258e+06
3.48322e+06
3.48379e+06
3.48432e+06
3.4848e+06
3.48523e+06
3.48563e+06
3.44366e+06
3.461e+06
3.44534e+06
3.45973e+06
3.44711e+06
3.44528e+06
3.43714e+06
3.43076e+06
3.42878e+06
3.42922e+06
3.42911e+06
3.43028e+06
3.4289e+06
3.42259e+06
3.42346e+06
3.43208e+06
3.43972e+06
3.44621e+06
3.45151e+06
3.45607e+06
3.45991e+06
3.46322e+06
3.46607e+06
3.46853e+06
3.47068e+06
3.47256e+06
3.47422e+06
3.47569e+06
3.477e+06
3.47817e+06
3.47921e+06
3.48015e+06
3.481e+06
3.48177e+06
3.48247e+06
3.4831e+06
3.48368e+06
3.48421e+06
3.48468e+06
3.48512e+06
3.48551e+06
3.44617e+06
3.4541e+06
3.44676e+06
3.45412e+06
3.4469e+06
3.44159e+06
3.43581e+06
3.42916e+06
3.42811e+06
3.4285e+06
3.42847e+06
3.42918e+06
3.42798e+06
3.42194e+06
3.42363e+06
3.43209e+06
3.4397e+06
3.44612e+06
3.45141e+06
3.45596e+06
3.4598e+06
3.46311e+06
3.46595e+06
3.46842e+06
3.47057e+06
3.47246e+06
3.47412e+06
3.47559e+06
3.4769e+06
3.47807e+06
3.47911e+06
3.48005e+06
3.4809e+06
3.48167e+06
3.48237e+06
3.483e+06
3.48358e+06
3.4841e+06
3.48458e+06
3.48501e+06
3.48541e+06
3.44735e+06
3.44474e+06
3.44645e+06
3.44622e+06
3.44465e+06
3.43728e+06
3.43413e+06
3.42776e+06
3.42757e+06
3.42792e+06
3.42791e+06
3.42827e+06
3.42724e+06
3.42143e+06
3.42391e+06
3.43222e+06
3.4398e+06
3.44614e+06
3.45141e+06
3.45593e+06
3.45976e+06
3.46306e+06
3.46589e+06
3.46836e+06
3.47051e+06
3.47239e+06
3.47405e+06
3.47552e+06
3.47683e+06
3.47799e+06
3.47903e+06
3.47997e+06
3.48082e+06
3.48159e+06
3.48228e+06
3.48291e+06
3.48348e+06
3.48401e+06
3.48448e+06
3.48492e+06
3.48531e+06
3.44654e+06
3.43533e+06
3.4444e+06
3.43817e+06
3.44117e+06
3.43298e+06
3.43217e+06
3.42639e+06
3.4269e+06
3.42721e+06
3.42724e+06
3.4274e+06
3.42646e+06
3.42094e+06
3.42424e+06
3.43243e+06
3.43999e+06
3.44626e+06
3.4515e+06
3.45598e+06
3.45979e+06
3.46307e+06
3.46589e+06
3.46835e+06
3.47049e+06
3.47236e+06
3.47402e+06
3.47548e+06
3.47678e+06
3.47794e+06
3.47897e+06
3.47991e+06
3.48075e+06
3.48151e+06
3.4822e+06
3.48283e+06
3.4834e+06
3.48392e+06
3.48439e+06
3.48482e+06
3.48522e+06
3.44432e+06
3.42742e+06
3.44132e+06
3.43122e+06
3.43731e+06
3.42913e+06
3.4301e+06
3.42498e+06
3.42601e+06
3.42632e+06
3.42639e+06
3.4265e+06
3.42556e+06
3.42048e+06
3.42459e+06
3.4327e+06
3.44026e+06
3.44645e+06
3.45167e+06
3.4561e+06
3.45988e+06
3.46314e+06
3.46594e+06
3.46838e+06
3.47051e+06
3.47237e+06
3.47401e+06
3.47546e+06
3.47675e+06
3.4779e+06
3.47893e+06
3.47986e+06
3.4807e+06
3.48145e+06
3.48214e+06
3.48276e+06
3.48332e+06
3.48384e+06
3.48431e+06
3.48474e+06
3.48513e+06
3.44133e+06
3.42151e+06
3.43799e+06
3.42588e+06
3.43372e+06
3.42596e+06
3.4281e+06
3.42356e+06
3.42494e+06
3.42532e+06
3.42542e+06
3.42558e+06
3.42458e+06
3.42008e+06
3.42499e+06
3.43304e+06
3.4406e+06
3.44673e+06
3.45191e+06
3.4563e+06
3.46004e+06
3.46327e+06
3.46605e+06
3.46846e+06
3.47057e+06
3.47241e+06
3.47404e+06
3.47548e+06
3.47675e+06
3.47789e+06
3.47891e+06
3.47983e+06
3.48066e+06
3.4814e+06
3.48208e+06
3.4827e+06
3.48326e+06
3.48377e+06
3.48424e+06
3.48466e+06
3.48505e+06
3.43838e+06
3.41771e+06
3.43497e+06
3.42221e+06
3.43072e+06
3.42355e+06
3.42629e+06
3.42222e+06
3.42383e+06
3.42432e+06
3.42443e+06
3.42471e+06
3.42363e+06
3.41985e+06
3.42547e+06
3.43348e+06
3.44104e+06
3.44709e+06
3.45223e+06
3.45657e+06
3.46027e+06
3.46345e+06
3.4662e+06
3.46859e+06
3.47067e+06
3.47249e+06
3.4741e+06
3.47552e+06
3.47678e+06
3.4779e+06
3.47891e+06
3.47981e+06
3.48063e+06
3.48137e+06
3.48204e+06
3.48265e+06
3.4832e+06
3.48371e+06
3.48417e+06
3.48459e+06
3.48497e+06
3.43573e+06
3.41574e+06
3.4325e+06
3.42003e+06
3.42841e+06
3.42189e+06
3.42481e+06
3.42109e+06
3.42283e+06
3.42349e+06
3.42358e+06
3.42396e+06
3.42283e+06
3.41987e+06
3.42608e+06
3.43405e+06
3.44157e+06
3.44754e+06
3.45263e+06
3.4569e+06
3.46056e+06
3.4637e+06
3.46641e+06
3.46876e+06
3.47081e+06
3.4726e+06
3.47419e+06
3.47558e+06
3.47682e+06
3.47793e+06
3.47892e+06
3.47982e+06
3.48062e+06
3.48135e+06
3.48201e+06
3.48261e+06
3.48315e+06
3.48365e+06
3.48411e+06
3.48453e+06
3.48491e+06
3.43346e+06
3.41526e+06
3.43062e+06
3.41909e+06
3.42677e+06
3.42092e+06
3.4237e+06
3.42028e+06
3.42205e+06
3.42291e+06
3.42295e+06
3.42343e+06
3.42227e+06
3.42018e+06
3.42686e+06
3.43477e+06
3.44221e+06
3.44809e+06
3.45312e+06
3.45732e+06
3.46092e+06
3.464e+06
3.46666e+06
3.46897e+06
3.47099e+06
3.47275e+06
3.4743e+06
3.47568e+06
3.4769e+06
3.47798e+06
3.47896e+06
3.47983e+06
3.48062e+06
3.48134e+06
3.48199e+06
3.48258e+06
3.48312e+06
3.48361e+06
3.48406e+06
3.48447e+06
3.48484e+06
3.43121e+06
3.41572e+06
3.4292e+06
3.41907e+06
3.42568e+06
3.42051e+06
3.42297e+06
3.41982e+06
3.42156e+06
3.42263e+06
3.42259e+06
3.42315e+06
3.42202e+06
3.4208e+06
3.42781e+06
3.43564e+06
3.44297e+06
3.44874e+06
3.45369e+06
3.45781e+06
3.46134e+06
3.46436e+06
3.46697e+06
3.46923e+06
3.47121e+06
3.47293e+06
3.47445e+06
3.4758e+06
3.47699e+06
3.47805e+06
3.47901e+06
3.47986e+06
3.48064e+06
3.48134e+06
3.48198e+06
3.48256e+06
3.48308e+06
3.48357e+06
3.48401e+06
3.48441e+06
3.48478e+06
3.42955e+06
3.41709e+06
3.42814e+06
3.41965e+06
3.42499e+06
3.42053e+06
3.42257e+06
3.41968e+06
3.42135e+06
3.42262e+06
3.4225e+06
3.42314e+06
3.42206e+06
3.42172e+06
3.42895e+06
3.43667e+06
3.44386e+06
3.44951e+06
3.45435e+06
3.45838e+06
3.46183e+06
3.46478e+06
3.46733e+06
3.46954e+06
3.47146e+06
3.47315e+06
3.47463e+06
3.47594e+06
3.47711e+06
3.47814e+06
3.47908e+06
3.47991e+06
3.48067e+06
3.48135e+06
3.48198e+06
3.48254e+06
3.48306e+06
3.48354e+06
3.48397e+06
3.48437e+06
3.48473e+06
3.42805e+06
3.41877e+06
3.42723e+06
3.42053e+06
3.42457e+06
3.42081e+06
3.42242e+06
3.41979e+06
3.42135e+06
3.42282e+06
3.42264e+06
3.42336e+06
3.4224e+06
3.42289e+06
3.43025e+06
3.43786e+06
3.44487e+06
3.45038e+06
3.45511e+06
3.45903e+06
3.46239e+06
3.46526e+06
3.46774e+06
3.46989e+06
3.47176e+06
3.4734e+06
3.47484e+06
3.47611e+06
3.47724e+06
3.47825e+06
3.47916e+06
3.47997e+06
3.48071e+06
3.48138e+06
3.48199e+06
3.48254e+06
3.48305e+06
3.48351e+06
3.48394e+06
3.48433e+06
3.48468e+06
3.42684e+06
3.42063e+06
3.42653e+06
3.42154e+06
3.42433e+06
3.42124e+06
3.42245e+06
3.42006e+06
3.42149e+06
3.42318e+06
3.42298e+06
3.42379e+06
3.423e+06
3.42431e+06
3.43173e+06
3.4392e+06
3.446e+06
3.45137e+06
3.45595e+06
3.45976e+06
3.46302e+06
3.4658e+06
3.4682e+06
3.47028e+06
3.47209e+06
3.47368e+06
3.47507e+06
3.47631e+06
3.4774e+06
3.47838e+06
3.47926e+06
3.48005e+06
3.48077e+06
3.48141e+06
3.482e+06
3.48254e+06
3.48304e+06
3.48349e+06
3.48391e+06
3.48429e+06
3.48464e+06
3.42559e+06
3.42222e+06
3.42593e+06
3.42249e+06
3.4242e+06
3.42171e+06
3.42259e+06
3.42041e+06
3.42172e+06
3.42364e+06
3.4235e+06
3.42439e+06
3.42385e+06
3.42595e+06
3.43338e+06
3.44069e+06
3.44727e+06
3.45246e+06
3.4569e+06
3.46057e+06
3.46372e+06
3.4664e+06
3.46872e+06
3.47072e+06
3.47247e+06
3.47399e+06
3.47534e+06
3.47653e+06
3.47759e+06
3.47853e+06
3.47938e+06
3.48014e+06
3.48083e+06
3.48146e+06
3.48203e+06
3.48256e+06
3.48304e+06
3.48348e+06
3.48389e+06
3.48426e+06
3.48461e+06
3.42491e+06
3.42378e+06
3.42546e+06
3.42332e+06
3.42413e+06
3.42218e+06
3.42282e+06
3.42081e+06
3.42202e+06
3.42419e+06
3.42419e+06
3.42513e+06
3.42498e+06
3.42782e+06
3.43521e+06
3.44234e+06
3.44867e+06
3.45367e+06
3.45794e+06
3.46147e+06
3.46449e+06
3.46706e+06
3.46928e+06
3.4712e+06
3.47288e+06
3.47434e+06
3.47563e+06
3.47677e+06
3.47779e+06
3.47869e+06
3.47951e+06
3.48024e+06
3.48091e+06
3.48152e+06
3.48207e+06
3.48258e+06
3.48305e+06
3.48348e+06
3.48387e+06
3.48424e+06
3.48457e+06
3.42432e+06
3.42495e+06
3.425e+06
3.42397e+06
3.42411e+06
3.42262e+06
3.42314e+06
3.42121e+06
3.42238e+06
3.42483e+06
3.42511e+06
3.42604e+06
3.42643e+06
3.42992e+06
3.43725e+06
3.44415e+06
3.4502e+06
3.455e+06
3.45908e+06
3.46245e+06
3.46533e+06
3.46779e+06
3.4699e+06
3.47173e+06
3.47333e+06
3.47472e+06
3.47595e+06
3.47704e+06
3.47801e+06
3.47887e+06
3.47965e+06
3.48036e+06
3.481e+06
3.48158e+06
3.48212e+06
3.48261e+06
3.48306e+06
3.48348e+06
3.48386e+06
3.48422e+06
3.48455e+06
3.42411e+06
3.42598e+06
3.42463e+06
3.42448e+06
3.42415e+06
3.42306e+06
3.42356e+06
3.42165e+06
3.42276e+06
3.42554e+06
3.42627e+06
3.42714e+06
3.42827e+06
3.43228e+06
3.43951e+06
3.44612e+06
3.45189e+06
3.45645e+06
3.46032e+06
3.46352e+06
3.46625e+06
3.46857e+06
3.47057e+06
3.4723e+06
3.47381e+06
3.47513e+06
3.4763e+06
3.47733e+06
3.47825e+06
3.47907e+06
3.47981e+06
3.48049e+06
3.4811e+06
3.48166e+06
3.48217e+06
3.48264e+06
3.48308e+06
3.48348e+06
3.48386e+06
3.4842e+06
3.48452e+06
3.42342e+06
3.4263e+06
3.42418e+06
3.42493e+06
3.42431e+06
3.42355e+06
3.42413e+06
3.42209e+06
3.42324e+06
3.42634e+06
3.42777e+06
3.42847e+06
3.43056e+06
3.43492e+06
3.44201e+06
3.44828e+06
3.45373e+06
3.45803e+06
3.46166e+06
3.46467e+06
3.46723e+06
3.46941e+06
3.47129e+06
3.47291e+06
3.47433e+06
3.47557e+06
3.47667e+06
3.47764e+06
3.47851e+06
3.47928e+06
3.47999e+06
3.48062e+06
3.48121e+06
3.48174e+06
3.48223e+06
3.48268e+06
3.4831e+06
3.48349e+06
3.48385e+06
3.48419e+06
3.4845e+06
3.4238e+06
3.42719e+06
3.42965e+06
3.4301e+06
3.43338e+06
3.43785e+06
3.44478e+06
3.45062e+06
3.45572e+06
3.45972e+06
3.46311e+06
3.4659e+06
3.46829e+06
3.47031e+06
3.47206e+06
3.47357e+06
3.47488e+06
3.47604e+06
3.47706e+06
3.47797e+06
3.47878e+06
3.47951e+06
3.48017e+06
3.48077e+06
3.48132e+06
3.48183e+06
3.4823e+06
3.48273e+06
3.48313e+06
3.48351e+06
3.48386e+06
3.48418e+06
3.48449e+06
3.48319e+06
3.48317e+06
3.48327e+06
3.48349e+06
3.48376e+06
3.48409e+06
3.48445e+06
3.48483e+06
3.48522e+06
3.48562e+06
3.48601e+06
3.48639e+06
3.48677e+06
3.48714e+06
3.48749e+06
3.48783e+06
3.48816e+06
3.48847e+06
3.48876e+06
3.48904e+06
3.48196e+06
3.48178e+06
3.48169e+06
3.48185e+06
3.4821e+06
3.48245e+06
3.48284e+06
3.48327e+06
3.48372e+06
3.48417e+06
3.48463e+06
3.48508e+06
3.48552e+06
3.48595e+06
3.48637e+06
3.48676e+06
3.48715e+06
3.48751e+06
3.48786e+06
3.48818e+06
3.48849e+06
3.48879e+06
3.55792e+06
3.54799e+06
3.55599e+06
3.54698e+06
3.55098e+06
3.54509e+06
3.54522e+06
3.54105e+06
3.54052e+06
3.53918e+06
3.51768e+06
3.48614e+06
3.48399e+06
3.48086e+06
3.48056e+06
3.47988e+06
3.47997e+06
3.48011e+06
3.48047e+06
3.48089e+06
3.48138e+06
3.4819e+06
3.48244e+06
3.48298e+06
3.48351e+06
3.48404e+06
3.48454e+06
3.48504e+06
3.48551e+06
3.48596e+06
3.48639e+06
3.4868e+06
3.48719e+06
3.48756e+06
3.48791e+06
3.48823e+06
3.48854e+06
3.55534e+06
3.54814e+06
3.55356e+06
3.5467e+06
3.54925e+06
3.54388e+06
3.54312e+06
3.53813e+06
3.53725e+06
3.53455e+06
3.53533e+06
3.53335e+06
3.51697e+06
3.48333e+06
3.47982e+06
3.47786e+06
3.47783e+06
3.47766e+06
3.47804e+06
3.47847e+06
3.47904e+06
3.47966e+06
3.4803e+06
3.48095e+06
3.4816e+06
3.48224e+06
3.48285e+06
3.48344e+06
3.48401e+06
3.48456e+06
3.48507e+06
3.48556e+06
3.48603e+06
3.48646e+06
3.48688e+06
3.48727e+06
3.48763e+06
3.48798e+06
3.4883e+06
3.54913e+06
3.54832e+06
3.54773e+06
3.54554e+06
3.54564e+06
3.54163e+06
3.53941e+06
3.53368e+06
3.53173e+06
3.52728e+06
3.52955e+06
3.52669e+06
3.51373e+06
3.4807e+06
3.47474e+06
3.47467e+06
3.47483e+06
3.47534e+06
3.47602e+06
3.47679e+06
3.47759e+06
3.47841e+06
3.47922e+06
3.48001e+06
3.48077e+06
3.4815e+06
3.4822e+06
3.48286e+06
3.48349e+06
3.48408e+06
3.48464e+06
3.48517e+06
3.48567e+06
3.48613e+06
3.48657e+06
3.48698e+06
3.48736e+06
3.48772e+06
3.48806e+06
3.48837e+06
3.53839e+06
3.54683e+06
3.53824e+06
3.54224e+06
3.53928e+06
3.53721e+06
3.53343e+06
3.52754e+06
3.52435e+06
3.51873e+06
3.52191e+06
3.51798e+06
3.50875e+06
3.47837e+06
3.46922e+06
3.47139e+06
3.47168e+06
3.47297e+06
3.47396e+06
3.47509e+06
3.47613e+06
3.47716e+06
3.47813e+06
3.47906e+06
3.47994e+06
3.48077e+06
3.48155e+06
3.48228e+06
3.48297e+06
3.48361e+06
3.48422e+06
3.48478e+06
3.48531e+06
3.48581e+06
3.48627e+06
3.4867e+06
3.4871e+06
3.48747e+06
3.48782e+06
3.48814e+06
3.52328e+06
3.54154e+06
3.52461e+06
3.53475e+06
3.52832e+06
3.52837e+06
3.52368e+06
3.51908e+06
3.51555e+06
3.50999e+06
3.51378e+06
3.509e+06
3.50337e+06
3.47581e+06
3.46398e+06
3.46806e+06
3.46855e+06
3.47061e+06
3.47191e+06
3.4734e+06
3.47468e+06
3.47593e+06
3.47707e+06
3.47814e+06
3.47913e+06
3.48005e+06
3.48092e+06
3.48172e+06
3.48246e+06
3.48316e+06
3.4838e+06
3.48441e+06
3.48497e+06
3.48549e+06
3.48597e+06
3.48642e+06
3.48684e+06
3.48723e+06
3.48759e+06
3.48793e+06
3.48823e+06
3.50288e+06
3.52798e+06
3.5059e+06
3.5201e+06
3.51033e+06
3.51213e+06
3.50803e+06
3.50724e+06
3.50571e+06
3.50237e+06
3.50572e+06
3.50098e+06
3.49828e+06
3.47283e+06
3.45956e+06
3.46468e+06
3.46559e+06
3.46829e+06
3.46991e+06
3.47175e+06
3.47327e+06
3.47472e+06
3.47602e+06
3.47723e+06
3.47834e+06
3.47936e+06
3.4803e+06
3.48117e+06
3.48197e+06
3.48271e+06
3.4834e+06
3.48404e+06
3.48463e+06
3.48518e+06
3.48568e+06
3.48615e+06
3.48659e+06
3.48699e+06
3.48737e+06
3.48771e+06
3.48803e+06
3.47991e+06
3.50503e+06
3.48243e+06
3.49647e+06
3.48357e+06
3.48593e+06
3.48449e+06
3.49088e+06
3.49483e+06
3.49554e+06
3.4986e+06
3.49459e+06
3.49376e+06
3.4699e+06
3.45612e+06
3.46134e+06
3.4629e+06
3.46603e+06
3.468e+06
3.47015e+06
3.4719e+06
3.47355e+06
3.47501e+06
3.47635e+06
3.47757e+06
3.47868e+06
3.4797e+06
3.48063e+06
3.48149e+06
3.48228e+06
3.48301e+06
3.48368e+06
3.4843e+06
3.48487e+06
3.4854e+06
3.48589e+06
3.48635e+06
3.48676e+06
3.48715e+06
3.4875e+06
3.48783e+06
3.45214e+06
3.47211e+06
3.45506e+06
3.46507e+06
3.44954e+06
3.45057e+06
3.45379e+06
3.47043e+06
3.48328e+06
3.48942e+06
3.49263e+06
3.48981e+06
3.4898e+06
3.4674e+06
3.45337e+06
3.45814e+06
3.46047e+06
3.46386e+06
3.4662e+06
3.46861e+06
3.47059e+06
3.47243e+06
3.47404e+06
3.47551e+06
3.47683e+06
3.47803e+06
3.47912e+06
3.48012e+06
3.48103e+06
3.48187e+06
3.48263e+06
3.48334e+06
3.48399e+06
3.48458e+06
3.48513e+06
3.48564e+06
3.48611e+06
3.48654e+06
3.48694e+06
3.4873e+06
3.48764e+06
3.4275e+06
3.43919e+06
3.42948e+06
3.43324e+06
3.41602e+06
3.41388e+06
3.42234e+06
3.44968e+06
3.47235e+06
3.48401e+06
3.48771e+06
3.48613e+06
3.48624e+06
3.46529e+06
3.45084e+06
3.45512e+06
3.45822e+06
3.46179e+06
3.4645e+06
3.46714e+06
3.46934e+06
3.47135e+06
3.47311e+06
3.4747e+06
3.47613e+06
3.47741e+06
3.47857e+06
3.47963e+06
3.48059e+06
3.48147e+06
3.48227e+06
3.48301e+06
3.48368e+06
3.4843e+06
3.48487e+06
3.4854e+06
3.48588e+06
3.48632e+06
3.48673e+06
3.4871e+06
3.48745e+06
3.4125e+06
3.41789e+06
3.41347e+06
3.41303e+06
3.3963e+06
3.3916e+06
3.40223e+06
3.43583e+06
3.46461e+06
3.47957e+06
3.4832e+06
3.4827e+06
3.4824e+06
3.46305e+06
3.44824e+06
3.45225e+06
3.45607e+06
3.45982e+06
3.46289e+06
3.46574e+06
3.46816e+06
3.47033e+06
3.47223e+06
3.47394e+06
3.47545e+06
3.47682e+06
3.47805e+06
3.47916e+06
3.48017e+06
3.48109e+06
3.48192e+06
3.48269e+06
3.48339e+06
3.48403e+06
3.48462e+06
3.48516e+06
3.48565e+06
3.48611e+06
3.48653e+06
3.48691e+06
3.48726e+06
3.41183e+06
3.41658e+06
3.41266e+06
3.41348e+06
3.39928e+06
3.39616e+06
3.40329e+06
3.43474e+06
3.46158e+06
3.47577e+06
3.47845e+06
3.47874e+06
3.47789e+06
3.46026e+06
3.44553e+06
3.4495e+06
3.45398e+06
3.45795e+06
3.46136e+06
3.46442e+06
3.46704e+06
3.46937e+06
3.4714e+06
3.47321e+06
3.47482e+06
3.47626e+06
3.47755e+06
3.47872e+06
3.47977e+06
3.48073e+06
3.4816e+06
3.48239e+06
3.48311e+06
3.48377e+06
3.48438e+06
3.48493e+06
3.48544e+06
3.48591e+06
3.48633e+06
3.48673e+06
3.48708e+06
3.42337e+06
3.43167e+06
3.42409e+06
3.42987e+06
3.41889e+06
3.421e+06
3.42134e+06
3.44361e+06
3.46178e+06
3.47191e+06
3.47333e+06
3.47407e+06
3.47286e+06
3.45693e+06
3.44282e+06
3.44693e+06
3.45197e+06
3.45618e+06
3.45992e+06
3.46317e+06
3.46599e+06
3.46846e+06
3.47062e+06
3.47253e+06
3.47423e+06
3.47574e+06
3.47709e+06
3.4783e+06
3.47939e+06
3.48038e+06
3.48128e+06
3.4821e+06
3.48284e+06
3.48352e+06
3.48415e+06
3.48471e+06
3.48523e+06
3.48571e+06
3.48615e+06
3.48655e+06
3.48691e+06
3.43768e+06
3.44831e+06
3.43891e+06
3.44771e+06
3.44014e+06
3.44755e+06
3.4417e+06
3.45309e+06
3.46186e+06
3.46751e+06
3.46792e+06
3.46891e+06
3.4675e+06
3.45319e+06
3.44005e+06
3.44453e+06
3.45003e+06
3.45454e+06
3.45855e+06
3.46201e+06
3.46501e+06
3.46762e+06
3.4699e+06
3.4719e+06
3.47367e+06
3.47525e+06
3.47665e+06
3.47791e+06
3.47904e+06
3.48006e+06
3.48099e+06
3.48183e+06
3.48259e+06
3.48329e+06
3.48392e+06
3.48451e+06
3.48504e+06
3.48552e+06
3.48597e+06
3.48637e+06
3.48674e+06
3.44965e+06
3.45833e+06
3.45067e+06
3.45832e+06
3.45436e+06
3.46176e+06
3.4548e+06
3.45734e+06
3.45994e+06
3.46248e+06
3.46232e+06
3.46347e+06
3.46198e+06
3.4491e+06
3.43717e+06
3.44229e+06
3.44816e+06
3.453e+06
3.45727e+06
3.46093e+06
3.4641e+06
3.46684e+06
3.46923e+06
3.47132e+06
3.47316e+06
3.47479e+06
3.47625e+06
3.47755e+06
3.47871e+06
3.47976e+06
3.48071e+06
3.48157e+06
3.48236e+06
3.48307e+06
3.48372e+06
3.48431e+06
3.48485e+06
3.48534e+06
3.48579e+06
3.48621e+06
3.48658e+06
3.45732e+06
3.45946e+06
3.45856e+06
3.46019e+06
3.46292e+06
3.46286e+06
3.46002e+06
3.45661e+06
3.45601e+06
3.45692e+06
3.45648e+06
3.45779e+06
3.45634e+06
3.44462e+06
3.43421e+06
3.44015e+06
3.44636e+06
3.45158e+06
3.45609e+06
3.45994e+06
3.46326e+06
3.46613e+06
3.46861e+06
3.47079e+06
3.47269e+06
3.47438e+06
3.47588e+06
3.47721e+06
3.47841e+06
3.47948e+06
3.48046e+06
3.48134e+06
3.48213e+06
3.48286e+06
3.48352e+06
3.48412e+06
3.48467e+06
3.48517e+06
3.48563e+06
3.48605e+06
3.48643e+06
3.46378e+06
3.4565e+06
3.46382e+06
3.45754e+06
3.46811e+06
3.45946e+06
3.45952e+06
3.45329e+06
3.45078e+06
3.45098e+06
3.45043e+06
3.45195e+06
3.4506e+06
3.43986e+06
3.43132e+06
3.43812e+06
3.44469e+06
3.45029e+06
3.45501e+06
3.45905e+06
3.46251e+06
3.46548e+06
3.46806e+06
3.4703e+06
3.47227e+06
3.474e+06
3.47554e+06
3.47691e+06
3.47813e+06
3.47923e+06
3.48022e+06
3.48111e+06
3.48193e+06
3.48266e+06
3.48333e+06
3.48394e+06
3.4845e+06
3.48501e+06
3.48547e+06
3.48589e+06
3.48628e+06
3.46509e+06
3.45379e+06
3.46447e+06
3.45513e+06
3.4676e+06
3.45706e+06
3.45536e+06
3.44885e+06
3.44507e+06
3.44507e+06
3.44453e+06
3.44632e+06
3.445e+06
3.43522e+06
3.42869e+06
3.43626e+06
3.44319e+06
3.44914e+06
3.45405e+06
3.45826e+06
3.46184e+06
3.46492e+06
3.46757e+06
3.46987e+06
3.47189e+06
3.47366e+06
3.47523e+06
3.47663e+06
3.47788e+06
3.47899e+06
3.48e+06
3.48091e+06
3.48173e+06
3.48248e+06
3.48316e+06
3.48378e+06
3.48434e+06
3.48485e+06
3.48532e+06
3.48575e+06
3.48614e+06
3.45976e+06
3.45379e+06
3.4591e+06
3.45429e+06
3.46006e+06
3.4548e+06
3.44937e+06
3.4439e+06
3.43963e+06
3.43976e+06
3.4393e+06
3.44131e+06
3.43993e+06
3.43104e+06
3.42654e+06
3.43471e+06
3.44195e+06
3.44817e+06
3.45324e+06
3.45759e+06
3.46126e+06
3.46442e+06
3.46714e+06
3.4695e+06
3.47156e+06
3.47337e+06
3.47496e+06
3.47638e+06
3.47765e+06
3.47878e+06
3.4798e+06
3.48072e+06
3.48156e+06
3.48231e+06
3.483e+06
3.48362e+06
3.48419e+06
3.48471e+06
3.48518e+06
3.48561e+06
3.486e+06
3.4502e+06
3.45579e+06
3.45077e+06
3.45536e+06
3.45059e+06
3.45198e+06
3.44375e+06
3.4392e+06
3.43513e+06
3.43545e+06
3.43502e+06
3.43725e+06
3.4357e+06