/*--------------------------------*- C++ -*----------------------------------*\
| =========                 |                                                 |
| \\      /  F ield         | OpenFOAM: The Open Source CFD Toolbox           |
|  \\    /   O peration     | Version:  v2012                                 |
|   \\  /    A nd           | Website:  www.openfoam.com                      |
|    \\/     M anipulation  |                                                 |
\*---------------------------------------------------------------------------*/
FoamFile
{
    version     2.0;
    format      ascii;
    class       volVectorField;
    location    "0.75";
    object      U;
}
// * * * * * * * * * * * * * * * * * * * * * * * * * * * * * * * * * * * * * //

dimensions      [0 1 -1 0 0 0 0];


internalField   nonuniform List<vector> 
3332
(
(-0.742411 -7.28488 0.00647939)
(-0.779311 -6.66464 0.0068015)
(-0.811078 -6.09789 0.00707881)
(-0.838097 -5.57473 0.00731467)
(-0.860582 -5.08771 0.00751097)
(-0.878767 -4.63136 0.00766973)
(-0.892844 -4.20169 0.00779264)
(-0.902996 -3.7958 0.00788129)
(-0.909388 -3.41159 0.00793712)
(-0.912175 -3.04744 0.00796149)
(-0.9115 -2.70214 0.00795566)
(-0.907495 -2.37472 0.00792074)
(-0.900282 -2.06439 0.00785782)
(-0.889975 -1.77049 0.0077679)
(-0.87668 -1.49249 0.0076519)
(-0.860496 -1.22992 0.00751069)
(-0.841516 -0.98239 0.00734508)
(-0.819833 -0.749593 0.00715587)
(-0.795535 -0.531281 0.00694384)
(-0.768714 -0.327276 0.00670982)
(-0.735004 -8.63121 0.00641469)
(-0.77951 -7.87231 0.00680317)
(-0.817391 -7.1939 0.00713386)
(-0.850014 -6.5812 0.00741863)
(-0.877563 -6.02153 0.00765913)
(-0.900517 -5.50505 0.00785952)
(-0.919114 -5.02432 0.00802188)
(-0.933613 -4.57388 0.00814847)
(-0.944212 -4.1498 0.00824102)
(-0.951095 -3.74917 0.00830113)
(-0.95442 -3.3699 0.0083302)
(-0.954335 -3.0104 0.0083295)
(-0.95097 -2.66947 0.00830019)
(-0.944446 -2.34616 0.00824328)
(-0.934871 -2.03969 0.00815974)
(-0.922346 -1.74942 0.00805046)
(-0.906964 -1.47482 0.00791625)
(-0.888811 -1.21543 0.00775786)
(-0.867971 -0.970887 0.00757601)
(-0.844524 -0.74088 0.0073714)
(-0.81855 -0.525172 0.00714474)
(-0.790131 -0.323593 0.00689677)
(0.109934 -47.5307 -0.000959407)
(-0.074643 -47.822 0.000651535)
(0.514844 -53.6922 -0.00449358)
(-0.554096 -41.0992 0.00483353)
(-2.01825 -30.0129 0.0176128)
(-2.09236 -30.3065 0.0182621)
(-1.72227 -34.1013 0.0150337)
(-1.0595 -35.9428 0.00925088)
(-0.181762 -32.7755 0.00159017)
(0.0988989 -24.7614 -0.000859594)
(-0.36036 -13.1677 0.00311361)
(-0.507806 -12.3013 0.00442277)
(-0.62734 -11.3126 0.00547371)
(-0.702333 -10.303 0.00612938)
(-0.763907 -9.36276 0.00666689)
(-0.812022 -8.5205 0.00708692)
(-0.853245 -7.77149 0.00744677)
(-0.887484 -7.10191 0.00774567)
(-0.916382 -6.49721 0.00799794)
(-0.940215 -5.94494 0.008206)
(-0.959543 -5.43534 0.00837474)
(-0.974644 -4.96104 0.00850659)
(-0.985801 -4.51663 0.008604)
(-0.993224 -4.09818 0.00866884)
(-0.997102 -3.70284 0.00870272)
(-0.997593 -3.32854 0.00870705)
(-0.994838 -2.97371 0.00868304)
(-0.98896 -2.63715 0.00863181)
(-0.980072 -2.31795 0.00855426)
(-0.968271 -2.01533 0.00845129)
(-0.953648 -1.72868 0.0083237)
(-0.936285 -1.45746 0.00817219)
(-0.916258 -1.20126 0.00799744)
(-0.893641 -0.959693 0.00780008)
(-0.868506 -0.732473 0.00758074)
(-0.840922 -0.519366 0.00734003)
(-0.810967 -0.320209 0.00707864)
(0.126672 -47.6872 -0.0011055)
(-0.12125 -48.1571 0.00105824)
(0.484046 -53.4021 -0.00422504)
(-0.894475 -38.436 0.00780408)
(-2.24773 -28.1242 0.019616)
(-2.28836 -29.8732 0.0199731)
(-1.83066 -34.5304 0.0159801)
(-1.21988 -36.8072 0.0106508)
(-0.215691 -33.6108 0.00188682)
(0.00574252 -25.3776 -4.5582e-05)
(0.848074 -14.9716 -0.00744344)
(-0.0741963 -12.8259 0.000421196)
(-0.394189 -12.8281 0.00340025)
(-0.561745 -12.0658 0.00489053)
(-0.692078 -11.1299 0.00603822)
(-0.772106 -10.1553 0.00673832)
(-0.83389 -9.2346 0.00727771)
(-0.880777 -8.40656 0.00768704)
(-0.919654 -7.66856 0.00802642)
(-0.95118 -7.00856 0.00830164)
(-0.977114 -6.41235 0.00852804)
(-0.997926 -5.86785 0.00870973)
(-1.01423 -5.36537 0.00885209)
(-1.02637 -4.89768 0.00895807)
(-1.03465 -4.45941 0.00903038)
(-1.0393 -4.04669 0.00907104)
(-1.04053 -3.65671 0.00908179)
(-1.03849 -3.28741 0.00906405)
(-1.03333 -2.93726 0.00901907)
(-1.02518 -2.6051 0.00894793)
(-1.01412 -2.29001 0.00885151)
(-1.00027 -1.99125 0.00873063)
(-0.983704 -1.70821 0.00858605)
(-0.964492 -1.44039 0.00841842)
(-0.942709 -1.18737 0.00822833)
(-0.918418 -0.948781 0.00801636)
(-0.891685 -0.724347 0.00778307)
(-0.862573 -0.513842 0.00752902)
(-0.831153 -0.317108 0.00725485)
(0.138523 -47.8135 -0.00120894)
(-0.158203 -48.4085 0.0013807)
(0.421724 -52.7216 -0.00368146)
(-1.31784 -35.4915 0.0114989)
(-2.46468 -26.2569 0.0215099)
(-2.54617 -29.4416 0.0222233)
(-2.07659 -34.9131 0.0181268)
(-1.48306 -37.6784 0.012948)
(-0.37974 -34.5232 0.00331935)
(-0.129001 -26.1235 0.00113124)
(0.962629 -15.126 -0.00842028)
(-0.00976683 -12.0045 -0.00026031)
(-0.404554 -12.4201 0.00348321)
(-0.599927 -11.8033 0.00522039)
(-0.741017 -10.9303 0.00646465)
(-0.829447 -9.99786 0.00723873)
(-0.892547 -9.1005 0.00778967)
(-0.939838 -8.28879 0.00820252)
(-0.977429 -7.56303 0.00853069)
(-1.00733 -6.91343 0.00879173)
(-1.0312 -6.32626 0.00900011)
(-1.04981 -5.78991 0.00916263)
(-1.06381 -5.29485 0.00928488)
(-1.07363 -4.83397 0.00937057)
(-1.07959 -4.402 0.00942262)
(-1.08196 -3.99513 0.00944337)
(-1.08096 -3.61059 0.00943468)
(-1.07676 -3.24636 0.0093981)
(-1.06952 -2.90094 0.00933494)
(-1.05936 -2.5732 0.0092463)
(-1.04638 -2.26225 0.00913308)
(-1.03069 -1.96737 0.00899611)
(-1.01235 -1.68797 0.00883612)
(-0.99145 -1.42355 0.00865373)
(-0.968046 -1.17372 0.00844949)
(-0.942201 -0.938116 0.00822396)
(-0.913976 -0.716473 0.00797765)
(-0.88343 -0.508574 0.00771108)
(-0.850628 -0.314265 0.00742483)
(-0.815642 -0.133478 0.00711962)
(0.138572 -47.9082 -0.00120938)
(-0.17253 -48.5645 0.00150568)
(0.312867 -51.5373 -0.00273183)
(-1.77916 -32.29 0.0155249)
(-2.67854 -24.3719 0.0233767)
(-2.90425 -28.8593 0.0253483)
(-2.48388 -35.1738 0.0216817)
(-1.85846 -38.5531 0.0162247)
(-0.680442 -35.5256 0.00594459)
(-0.303181 -26.9562 0.00265196)
(0.876354 -15.488 -0.00765393)
(0.0709498 -11.165 -0.00104666)
(-0.393181 -11.9499 0.00337789)
(-0.622138 -11.5118 0.00541105)
(-0.773426 -10.7134 0.00674663)
(-0.873379 -9.82972 0.00762206)
(-0.938964 -8.95986 0.00819478)
(-0.988311 -8.16659 0.00862558)
(-1.02574 -7.45441 0.00895238)
(-1.05517 -6.81604 0.00920927)
(-1.07794 -6.23851 0.00940807)
(-1.09525 -5.71073 0.00955923)
(-1.10773 -5.22342 0.00966823)
(-1.11592 -4.76962 0.00973973)
(-1.12018 -4.34415 0.00977692)
(-1.12081 -3.94329 0.00978248)
(-1.11805 -3.5643 0.00975848)
(-1.11211 -3.20523 0.00970665)
(-1.10314 -2.86462 0.00962842)
(-1.09129 -2.54136 0.009525)
(-1.07666 -2.2346 0.00939734)
(-1.05935 -1.94363 0.00924632)
(-1.03945 -1.66788 0.00907269)
(-1.01704 -1.40689 0.00887707)
(-0.992166 -1.16026 0.00866004)
(-0.964902 -0.927656 0.00842212)
(-0.935303 -0.708815 0.00816381)
(-0.903427 -0.50353 0.00788563)
(-0.869335 -0.311656 0.00758812)
(-0.833099 -0.133128 0.00727192)
(0.122648 -47.972 -0.00107041)
(-0.1581 -48.6087 0.0013797)
(0.153072 -49.7843 -0.00133764)
(-2.20444 -28.8808 0.0192364)
(-2.88093 -22.3749 0.0251433)
(-3.33842 -27.9811 0.0291373)
(-2.98819 -35.2727 0.0260833)
(-2.28961 -39.4464 0.019988)
(-1.04908 -36.6283 0.00916265)
(-0.490262 -27.8673 0.00428498)
(0.655724 -16.0492 -0.00572362)
(0.145473 -10.4024 -0.0016712)
(-0.368017 -11.4407 0.0031515)
(-0.628048 -11.1914 0.00546014)
(-0.790174 -10.4792 0.00689175)
(-0.903358 -9.64992 0.00788359)
(-0.972965 -8.81213 0.00849152)
(-1.0258 -8.03939 0.00895275)
(-1.06425 -7.34223 0.00928848)
(-1.09431 -6.71592 0.00955092)
(-1.11697 -6.14866 0.00974871)
(-1.13388 -5.62994 0.00989636)
(-1.14565 -5.15074 0.00999913)
(-1.15293 -4.70431 0.0100628)
(-1.15612 -4.28558 0.0100907)
(-1.15558 -3.8909 0.010086)
(-1.15157 -3.51763 0.010051)
(-1.14432 -3.16385 0.00998778)
(-1.13401 -2.82814 0.00989781)
(-1.12079 -2.50944 0.00978251)
(-1.1048 -2.20693 0.00964295)
(-1.08613 -1.91992 0.00948007)
(-1.06489 -1.64787 0.00929472)
(-1.04115 -1.39034 0.00908755)
(-1.01498 -1.14694 0.00885917)
(-0.986443 -0.917355 0.00861014)
(-0.955598 -0.701334 0.00834096)
(-0.922504 -0.498679 0.00805216)
(-0.887222 -0.309251 0.00774426)
(-0.849824 -0.132992 0.00741789)
(-0.810382 0.0301367 0.00707379)
(0.0915863 -48.0065 -0.00079932)
(-0.1186 -48.5258 0.00103493)
(-0.037537 -47.4994 0.000325505)
(-2.49029 -25.3492 0.0217311)
(-3.01588 -20.1783 0.0263212)
(-3.7255 -26.7446 0.0325152)
(-3.43363 -35.2213 0.0299711)
(-2.64442 -40.3785 0.0230851)
(-1.37069 -37.8263 0.01197)
(-0.626167 -28.8452 0.00547156)
(0.415962 -16.7706 -0.00362989)
(0.187191 -9.76535 -0.00194004)
(-0.33904 -10.9242 0.00288826)
(-0.618385 -10.8466 0.0053742)
(-0.793188 -10.2283 0.00691689)
(-0.919419 -9.45804 0.00802363)
(-0.995008 -8.65684 0.00868387)
(-1.05237 -7.90674 0.00918467)
(-1.09305 -7.22607 0.00953985)
(-1.12474 -6.61268 0.0098165)
(-1.14822 -6.05634 0.0100215)
(-1.16558 -5.54715 0.0101731)
(-1.17742 -5.07647 0.0102764)
(-1.1845 -4.63773 0.0103383)
(-1.18727 -4.22601 0.0103625)
(-1.18612 -3.83775 0.0103526)
(-1.18136 -3.47037 0.010311)
(-1.17324 -3.12202 0.0102402)
(-1.16198 -2.79135 0.0101419)
(-1.14774 -2.47731 0.0100178)
(-1.13068 -2.17913 0.00986891)
(-1.11092 -1.89615 0.00969648)
(-1.08857 -1.62786 0.0095014)
(-1.06371 -1.37383 0.00928444)
(-1.03641 -1.1337 0.00904626)
(-1.00676 -0.907164 0.00878746)
(-0.974802 -0.693988 0.0085086)
(-0.94061 -0.493983 0.00821021)
(-0.904245 -0.307019 0.00789285)
(-0.865779 -0.133043 0.00755715)
(-0.825286 0.0279781 0.0072038)
(0.0530981 -48.0153 -0.000463413)
(-0.0689813 -48.3142 0.000601871)
(-0.214325 -44.8705 0.00186819)
(-2.52794 -21.8623 0.0220596)
(-2.95575 -17.8011 0.0257963)
(-3.85066 -25.22 0.0336071)
(-3.58572 -35.0819 0.0312985)
(-2.72314 -41.3557 0.0237722)
(-1.48749 -39.0762 0.0129893)
(-0.648668 -29.8561 0.00566824)
(0.228245 -17.5422 -0.00199054)
(0.196407 -9.26627 -0.00192665)
(-0.310909 -10.4285 0.00262622)
(-0.595242 -10.4852 0.00517129)
(-0.784291 -9.96204 0.00683809)
(-0.922302 -9.25434 0.00804864)
(-1.00591 -8.49357 0.00877893)
(-1.06853 -7.7683 0.00932566)
(-1.1126 -7.10558 0.00971046)
(-1.14676 -6.50597 0.0100087)
(-1.17193 -5.96122 0.0102284)
(-1.1905 -5.46206 0.0103906)
(-1.20312 -5.00031 0.0105007)
(-1.21066 -4.56961 0.0105666)
(-1.2136 -4.16519 0.0105923)
(-1.21238 -3.78358 0.0105818)
(-1.20735 -3.42231 0.0105379)
(-1.1988 -3.07959 0.0104633)
(-1.18697 -2.75409 0.0103601)
(-1.17206 -2.44484 0.0102301)
(-1.15424 -2.15108 0.0100746)
(-1.13366 -1.87222 0.0098949)
(-1.11042 -1.60776 0.00969215)
(-1.08464 -1.35729 0.00946719)
(-1.05641 -1.12047 0.00922079)
(-1.02579 -0.897031 0.00895361)
(-0.992868 -0.686733 0.00866629)
(-0.957703 -0.489405 0.00835941)
(-0.920365 -0.304927 0.00803355)
(-0.880928 -0.133253 0.00768939)
(-0.839472 0.0256453 0.00732763)
(0.0168858 -48.0035 -0.000147368)
(-0.0240938 -48.0033 0.000210114)
(-0.317299 -42.2412 0.00276692)
(-2.22917 -18.7286 0.0194524)
(-2.51523 -15.4576 0.0219515)
(-3.46433 -23.6213 0.0302349)
(-3.17626 -34.9653 0.0277245)
(-2.30653 -42.3509 0.0201354)
(-1.24589 -40.2753 0.0108797)
(-0.486396 -30.8037 0.00425161)
(0.134739 -18.2214 -0.00117315)
(0.202634 -8.8811 -0.00191112)
(-0.281522 -9.96578 0.00234478)
(-0.561772 -10.1147 0.00487835)
(-0.764964 -9.68226 0.00666833)
(-0.913565 -9.0394 0.00797222)
(-1.00672 -8.32204 0.008786)
(-1.07518 -7.62389 0.00938366)
(-1.12364 -6.9805 0.00980676)
(-1.16095 -6.39557 0.0101324)
(-1.18853 -5.86305 0.0103733)
(-1.20896 -5.37442 0.0105516)
(-1.22298 -4.92201 0.0106741)
(-1.23156 -4.4997 0.010749)
(-1.23521 -4.10289 0.0107809)
(-1.23442 -3.72822 0.0107741)
(-1.22958 -3.37328 0.0107319)
(-1.22101 -3.03637 0.0106572)
(-1.20898 -2.71621 0.0105522)
(-1.19373 -2.41189 0.0104191)
(-1.17544 -2.12269 0.0102596)
(-1.15429 -1.84804 0.010075)
(-1.13041 -1.58749 0.00986659)
(-1.10392 -1.34065 0.00963543)
(-1.07492 -1.10721 0.00938239)
(-1.04351 -0.886903 0.00910826)
(-1.00976 -0.679522 0.00881372)
(-0.973748 -0.484905 0.00849946)
(-0.935549 -0.302941 0.00816609)
(-0.895244 -0.133592 0.00781435)
(-0.852915 0.0231643 0.00744497)
(-0.00889031 -47.9786 7.75966e-05)
(0.00644396 -47.6702 -5.6377e-05)
(-0.3096 -40.0537 0.00270009)
(-1.58921 -16.411 0.0138678)
(-1.55994 -13.5769 0.0136142)
(-2.41418 -22.2797 0.0210693)
(-2.02243 -35.0204 0.0176536)
(-1.26615 -43.2818 0.0110536)
(-0.562369 -41.2505 0.00491214)
(-0.0900163 -31.5035 0.000790916)
(0.166029 -18.6791 -0.00144564)
(0.231645 -8.55516 -0.00211788)
(-0.247144 -9.52558 0.00201068)
(-0.521823 -9.73904 0.00452847)
(-0.737156 -9.39115 0.00642466)
(-0.895501 -8.81402 0.00781439)
(-0.998868 -8.14219 0.00871736)
(-1.07359 -7.47342 0.0093697)
(-1.12714 -6.8507 0.00983726)
(-1.1681 -6.28137 0.0101949)
(-1.19867 -5.76169 0.0104617)
(-1.22146 -5.28406 0.0106607)
(-1.2374 -4.8414 0.0107999)
(-1.24749 -4.42784 0.0108881)
(-1.25231 -4.03894 0.0109302)
(-1.25239 -3.67147 0.0109309)
(-1.24814 -3.32311 0.0108939)
(-1.23992 -2.99222 0.0108222)
(-1.22804 -2.67759 0.0107185)
(-1.21275 -2.37835 0.0105852)
(-1.19428 -2.09384 0.010424)
(-1.17281 -1.82352 0.0102366)
(-1.1485 -1.56697 0.0100246)
(-1.12151 -1.32384 0.00978895)
(-1.09193 -1.09384 0.00953085)
(-1.05988 -0.876728 0.00925115)
(-1.02545 -0.672312 0.00895066)
(-0.988718 -0.480445 0.00863013)
(-0.949774 -0.301027 0.00829026)
(-0.908703 -0.13403 0.00793183)
(-0.865593 0.0205614 0.00755563)
(-0.0242291 -47.9498 0.000211469)
(0.0265654 -47.4194 -0.000231939)
(-0.213772 -38.6913 0.00186438)
(-0.764932 -15.4187 0.0066749)
(-0.200874 -12.6891 0.00175323)
(-0.827052 -21.5622 0.00721791)
(-0.218553 -35.4059 0.00190928)
(0.292966 -44.0241 -0.00255631)
(0.490126 -41.7997 -0.0042763)
(0.498151 -31.7659 -0.00434419)
(0.307764 -18.8004 -0.00268343)
(0.274235 -8.22208 -0.0024621)
(-0.208796 -9.08918 0.00163792)
(-0.479607 -9.35943 0.00415864)
(-0.703801 -9.09141 0.00613276)
(-0.870838 -8.57936 0.00759896)
(-0.98409 -7.95443 0.00858831)
(-1.06525 -7.31703 0.0092969)
(-1.12425 -6.71623 0.00981197)
(-1.16919 -6.16336 0.0102044)
(-1.20311 -5.65709 0.0105005)
(-1.22863 -5.19093 0.0107233)
(-1.24686 -4.75839 0.0108825)
(-1.25885 -4.35389 0.0109872)
(-1.26521 -3.97321 0.0110427)
(-1.26651 -3.61322 0.0110542)
(-1.2632 -3.27168 0.0110253)
(-1.25566 -2.94702 0.0109595)
(-1.24422 -2.63811 0.0108598)
(-1.22918 -2.34412 0.0107286)
(-1.21078 -2.06444 0.010568)
(-1.18923 -1.79857 0.01038)
(-1.16472 -1.54612 0.0101661)
(-1.13741 -1.30679 0.00992772)
(-1.10742 -1.08031 0.00966608)
(-1.07489 -0.866456 0.00938218)
(-1.03992 -0.665058 0.00907696)
(-1.0026 -0.475984 0.00875126)
(-0.96302 -0.299151 0.00840589)
(-0.921286 -0.134537 0.00804167)
(-0.877488 0.0178631 0.00765947)
(-0.0358009 -47.9239 0.000312466)
(0.0484928 -47.314 -0.000423242)
(-0.116729 -38.2217 0.00101812)
(-0.0500353 -15.9674 0.000437019)
(1.06115 -13.1322 -0.00926054)
(0.79893 -21.8324 -0.006972)
(1.74144 -36.2566 -0.0151971)
(1.98179 -44.4979 -0.0172984)
(1.63953 -41.7963 -0.0143102)
(1.11854 -31.4786 -0.00976074)
(0.480353 -18.4915 -0.00419121)
(0.295253 -7.82902 -0.00262917)
(-0.173546 -8.66001 0.00130039)
(-0.438882 -8.97938 0.00380239)
(-0.668113 -8.78629 0.0058208)
(-0.842127 -8.33714 0.00734821)
(-0.964236 -7.75964 0.00841496)
(-1.05171 -7.15511 0.00917864)
(-1.11617 -6.57729 0.00974142)
(-1.16524 -6.04169 0.0101698)
(-1.2027 -5.54934 0.0104968)
(-1.23116 -5.09503 0.0107453)
(-1.25194 -4.67294 0.0109268)
(-1.26608 -4.27783 0.0110503)
(-1.27426 -3.90564 0.0111217)
(-1.27707 -3.55337 0.0111463)
(-1.27497 -3.21889 0.0111281)
(-1.26839 -2.90069 0.0110706)
(-1.25766 -2.59769 0.0109771)
(-1.24311 -2.30911 0.0108502)
(-1.22501 -2.0344 0.0106922)
(-1.2036 -1.77311 0.0105054)
(-1.17908 -1.52489 0.0102914)
(-1.15163 -1.28945 0.0100519)
(-1.1214 -1.06657 0.00978811)
(-1.08854 -0.856039 0.00950133)
(-1.05316 -0.657716 0.00919257)
(-1.01537 -0.471487 0.00886279)
(-0.975277 -0.297279 0.00851287)
(-0.932982 -0.135083 0.00814376)
(-0.888588 0.0150959 0.00775636)
(-0.0527983 -47.9016 0.000460815)
(0.082678 -47.3291 -0.000721534)
(-0.0991673 -38.3192 0.000865339)
(0.337313 -17.6402 -0.00294253)
(1.61564 -14.6764 -0.0140994)
(1.87621 -23.3153 -0.0163728)
(3.25547 -37.6839 -0.0284108)
(3.3075 -44.8076 -0.0288705)
(2.52339 -41.2513 -0.0220252)
(1.57736 -30.6507 -0.0137667)
(0.597192 -17.7912 -0.00521252)
(0.277907 -7.37803 -0.00246765)
(-0.148498 -8.25596 0.00107042)
(-0.402564 -8.60633 0.00348547)
(-0.632577 -8.47948 0.00551051)
(-0.811425 -8.08956 0.00708012)
(-0.940949 -7.55898 0.00821164)
(-1.03436 -6.98825 0.00902718)
(-1.10407 -6.43426 0.00963578)
(-1.15726 -5.91658 0.0101001)
(-1.19828 -5.43859 0.0104583)
(-1.22978 -4.99649 0.0107333)
(-1.25323 -4.58513 0.010938)
(-1.26969 -4.19965 0.0110818)
(-1.27988 -3.8362 0.0111708)
(-1.2844 -3.4919 0.0112103)
(-1.28373 -3.1647 0.0112045)
(-1.27831 -2.85315 0.0111572)
(-1.26851 -2.55625 0.0110717)
(-1.25466 -2.27326 0.010951)
(-1.23706 -2.00368 0.0107974)
(-1.21598 -1.7471 0.0106134)
(-1.19162 -1.50321 0.0104009)
(-1.1642 -1.27176 0.0101616)
(-1.13389 -1.05256 0.0098971)
(-1.10084 -0.845433 0.00960867)
(-1.06518 -0.650249 0.0092975)
(-1.02705 -0.466916 0.00896467)
(-0.98654 -0.295379 0.00861118)
(-0.943782 -0.135641 0.00823804)
(-0.898884 0.0122856 0.00784623)
(-0.076747 -47.8796 0.000669834)
(0.125323 -47.3801 -0.00109369)
(-0.157784 -38.5368 0.00137712)
(0.40589 -19.5041 -0.00354086)
(1.32917 -16.6258 -0.0115987)
(2.34658 -25.9435 -0.0204764)
(4.07778 -39.695 -0.0355873)
(3.99628 -44.988 -0.0348831)
(2.94723 -40.3189 -0.0257239)
(1.78498 -29.4693 -0.0155793)
(0.631189 -16.8458 -0.00551032)
(0.240637 -6.91079 -0.00213598)
(-0.134456 -7.8876 0.000953619)
(-0.372757 -8.24839 0.00322602)
(-0.598964 -8.17491 0.00521731)
(-0.780445 -7.83892 0.00680963)
(-0.91566 -7.35377 0.00799087)
(-1.01447 -6.81713 0.00885355)
(-1.08904 -6.28758 0.00950453)
(-1.14621 -5.78835 0.0100036)
(-1.19071 -5.32508 0.0103922)
(-1.22522 -4.89545 0.0106935)
(-1.25136 -4.49506 0.0109217)
(-1.2702 -4.11944 0.0110862)
(-1.28249 -3.76494 0.0111936)
(-1.28885 -3.42881 0.0112491)
(-1.28976 -3.10908 0.0112571)
(-1.28566 -2.80439 0.0112214)
(-1.27695 -2.51375 0.0111454)
(-1.26397 -2.23652 0.0110322)
(-1.24704 -1.97221 0.0108845)
(-1.22644 -1.72047 0.0107047)
(-1.20241 -1.48103 0.0104951)
(-1.17517 -1.25368 0.0102574)
(-1.14491 -1.03825 0.0099933)
(-1.1118 -0.8346 0.00970436)
(-1.07599 -0.64262 0.00939186)
(-1.03762 -0.46224 0.00905697)
(-0.996809 -0.293421 0.00870081)
(-0.953686 -0.136181 0.00832448)
(-0.908372 0.00945726 0.00792905)
(-0.100868 -47.8552 0.000880358)
(0.163995 -47.3983 -0.0014312)
(-0.241004 -38.6277 0.0021034)
(0.293912 -20.8119 -0.00256389)
(0.686944 -18.6201 -0.00599296)
(2.69862 -29.5652 -0.0235473)
(4.32748 -41.8906 -0.0377671)
(4.14194 -45.0155 -0.0361549)
(2.99443 -39.2139 -0.0261344)
(1.79235 -28.1591 -0.0156433)
(0.609305 -15.818 -0.00531954)
(0.205459 -6.46441 -0.00182516)
(-0.129107 -7.55215 0.000920272)
(-0.350377 -7.91034 0.00303163)
(-0.568746 -7.87623 0.00495395)
(-0.750707 -7.58754 0.00655001)
(-0.88971 -7.14539 0.00776435)
(-0.993205 -6.64253 0.00866789)
(-1.07209 -6.13774 0.00935654)
(-1.13299 -5.65734 0.00988824)
(-1.18077 -5.20908 0.0103054)
(-1.21818 -4.79215 0.010632)
(-1.24693 -4.4029 0.010883)
(-1.26813 -4.0373 0.0110681)
(-1.28255 -3.69192 0.011194)
(-1.29079 -3.36414 0.011266)
(-1.29335 -3.05207 0.0112884)
(-1.29068 -2.75439 0.0112652)
(-1.28318 -2.47019 0.0111997)
(-1.2712 -2.19886 0.0110953)
(-1.25507 -1.93997 0.0109546)
(-1.23509 -1.6932 0.0107802)
(-1.21152 -1.45833 0.0105746)
(-1.18459 -1.23517 0.0103396)
(-1.15451 -1.0236 0.0100771)
(-1.12146 -0.823503 0.00978865)
(-1.08561 -0.634795 0.0094758)
(-1.04711 -0.457427 0.00913978)
(-1.00609 -0.291377 0.00878182)
(-0.962694 -0.136678 0.00840311)
(-0.91705 0.00663481 0.0080048)
(-0.115529 -47.83 0.00100832)
(0.182808 -47.3657 -0.00159543)
(-0.282905 -38.5113 0.002469)
(0.0502107 -21.498 -0.000437744)
(0.388907 -20.9992 -0.00339081)
(3.15113 -33.6586 -0.0274962)
(4.26106 -43.8284 -0.0371889)
(3.98537 -44.8859 -0.0347884)
(2.84807 -38.0918 -0.0248552)
(1.68748 -26.8662 -0.0147268)
(0.556049 -14.8104 -0.00485435)
(0.173282 -6.05341 -0.00154281)
(-0.130211 -7.24028 0.00094676)
(-0.335267 -7.59292 0.00290081)
(-0.543252 -7.58635 0.0047319)
(-0.723529 -7.3376 0.00631279)
(-0.86439 -6.93531 0.00754333)
(-0.971632 -6.46529 0.00847957)
(-1.05416 -5.98531 0.00920005)
(-1.11844 -5.52397 0.0097612)
(-1.16921 -5.09093 0.0102044)
(-1.20931 -4.68684 0.0105545)
(-1.24052 -4.30886 0.010827)
(-1.26398 -3.95341 0.0110319)
(-1.28047 -3.61728 0.0111758)
(-1.29058 -3.29798 0.0112642)
(-1.29482 -2.9937 0.0113012)
(-1.29363 -2.70319 0.0112909)
(-1.2874 -2.42557 0.0112366)
(-1.27651 -2.16028 0.0111416)
(-1.26129 -1.90693 0.0110088)
(-1.24204 -1.66526 0.0108408)
(-1.21903 -1.43506 0.0106401)
(-1.19252 -1.21621 0.0104088)
(-1.16273 -1.00858 0.0101488)
(-1.12985 -0.812116 0.00986185)
(-1.09406 -0.626748 0.00954954)
(-1.05553 -0.452451 0.00921325)
(-1.01439 -0.289222 0.00885431)
(-0.970813 -0.137109 0.00847398)
(-0.924922 0.0038408 0.00807351)
(-0.112722 -47.8058 0.000983824)
(0.169391 -47.3042 -0.00147836)
(-0.255931 -38.1448 0.00223334)
(-0.316905 -21.9756 0.00276579)
(0.688164 -24.2069 -0.00600178)
(3.48537 -37.5218 -0.0304143)
(4.07425 -45.3097 -0.03556)
(3.69085 -44.6247 -0.0322179)
(2.61741 -37.0105 -0.0228401)
(1.51755 -25.6405 -0.0132424)
(0.468219 -13.8637 -0.00408784)
(0.130717 -5.68746 -0.00117123)
(-0.136409 -6.95002 0.0010218)
(-0.326721 -7.2952 0.00282753)
(-0.523378 -7.30706 0.00455891)
(-0.699871 -7.09112 0.00610631)
(-0.840822 -6.72501 0.00733763)
(-0.950684 -6.28634 0.00829671)
(-1.0361 -5.83091 0.00904241)
(-1.10328 -5.38867 0.00962891)
(-1.15668 -4.97097 0.0100951)
(-1.19921 -4.57982 0.0104663)
(-1.23267 -4.21318 0.0107585)
(-1.25823 -3.86795 0.0109816)
(-1.27666 -3.54115 0.0111426)
(-1.28858 -3.23044 0.0112467)
(-1.29447 -2.93407 0.0112981)
(-1.29475 -2.65084 0.0113007)
(-1.28984 -2.37993 0.0112578)
(-1.28008 -2.1208 0.0111728)
(-1.26583 -1.87312 0.0110484)
(-1.24738 -1.63665 0.0108875)
(-1.22503 -1.41123 0.0106925)
(-1.19903 -1.19676 0.0104656)
(-1.16962 -0.993175 0.0102089)
(-1.137 -0.800415 0.0099243)
(-1.10137 -0.618455 0.00961334)
(-1.06289 -0.447288 0.00927757)
(-1.02174 -0.286932 0.00891839)
(-0.978054 -0.13745 0.00853717)
(-0.931994 0.00109622 0.00813524)
(-0.0953386 -47.7814 0.000832102)
(0.13548 -47.2426 -0.00118244)
(-0.199163 -37.4844 0.00173763)
(-0.649544 -22.688 0.00566929)
(1.31831 -28.1716 -0.0115011)
(3.51937 -40.7589 -0.0307127)
(3.83083 -46.3703 -0.0334363)
(3.33154 -44.2659 -0.0290821)
(2.33446 -35.9706 -0.0203684)
(1.30105 -24.488 -0.0113521)
(0.339312 -12.9931 -0.00296341)
(0.0737789 -5.38398 -0.000673963)
(-0.147766 -6.68533 0.00114037)
(-0.324183 -7.01583 0.00280681)
(-0.509382 -7.03927 0.00443724)
(-0.680347 -6.84976 0.00593596)
(-0.819857 -6.51589 0.00715464)
(-0.931124 -6.10666 0.00812598)
(-1.01863 -5.67518 0.00888987)
(-1.08816 -5.25191 0.00949689)
(-1.14377 -4.84957 0.00998233)
(-1.1884 -4.47139 0.010372)
(-1.22384 -4.11612 0.0106814)
(-1.25129 -3.78114 0.010921)
(-1.27152 -3.46373 0.0110977)
(-1.28512 -3.16166 0.0112165)
(-1.29258 -2.87327 0.0112816)
(-1.2943 -2.59742 0.0112967)
(-1.29068 -2.33331 0.0112652)
(-1.28208 -2.08045 0.0111902)
(-1.26883 -1.83853 0.0110747)
(-1.25125 -1.60736 0.0109212)
(-1.22962 -1.38682 0.0107325)
(-1.2042 -1.17683 0.0105107)
(-1.17525 -0.977361 0.0102581)
(-1.14297 -0.788382 0.00997642)
(-1.10758 -0.609896 0.00966752)
(-1.06924 -0.441918 0.00933297)
(-1.02814 -0.284487 0.00897425)
(-0.984428 -0.137683 0.00859281)
(-0.938274 -0.00157966 0.00819005)
(-0.0792996 -47.7563 0.000692116)
(0.113615 -47.1922 -0.000991624)
(-0.175234 -36.6275 0.00152865)
(-0.692999 -23.9234 0.00604914)
(1.94781 -32.3645 -0.0169954)
(3.32744 -43.3018 -0.0290394)
(3.53549 -47.1123 -0.0308589)
(2.94944 -43.8336 -0.0257477)
(2.01544 -34.9614 -0.017582)
(1.05855 -23.4079 -0.00923587)
(0.180858 -12.2094 -0.00158053)
(0.00855225 -5.16807 -0.00010471)
(-0.163965 -6.44965 0.00130127)
(-0.326668 -6.75393 0.00283026)
(-0.500819 -6.7832 0.00436306)
(-0.665099 -6.61471 0.00580293)
(-0.801976 -6.30912 0.00699858)
(-0.913499 -5.92717 0.00797213)
(-1.00229 -5.51878 0.00874724)
(-1.07358 -5.11419 0.00936958)
(-1.13095 -4.72712 0.00987042)
(-1.17732 -4.36187 0.0102753)
(-1.21445 -4.01796 0.0105994)
(-1.24354 -3.69322 0.0108534)
(-1.26537 -3.38519 0.011044)
(-1.2805 -3.09179 0.0111762)
(-1.28942 -2.81144 0.011254)
(-1.29251 -2.54302 0.0112811)
(-1.29015 -2.28578 0.0112605)
(-1.28268 -2.03928 0.0111955)
(-1.27045 -1.80321 0.0110888)
(-1.25375 -1.57743 0.0109431)
(-1.23288 -1.36185 0.010761)
(-1.20811 -1.15642 0.0105448)
(-1.17967 -0.961135 0.0102967)
(-1.14781 -0.776007 0.0100186)
(-1.11272 -0.601057 0.0097124)
(-1.0746 -0.436326 0.0093797)
(-1.03362 -0.281871 0.00902207)
(-0.989953 -0.137789 0.00864103)
(-0.943773 -0.00416937 0.00823805)
(-0.0817101 -47.733 0.000713153)
(0.131911 -47.1543 -0.0011513)
(-0.216224 -35.8621 0.00188641)
(-0.349873 -25.853 0.00305506)
(2.41763 -36.2242 -0.0210964)
(3.08239 -45.2109 -0.0269022)
(3.20301 -47.6012 -0.027957)
(2.57955 -43.3369 -0.02252)
(1.68553 -33.9766 -0.0147009)
(0.815807 -22.4025 -0.00711756)
(0.018802 -11.5262 -0.000165768)
(-0.0541919 -5.04107 0.000442456)
(-0.183043 -6.24038 0.0014869)
(-0.333118 -6.5089 0.00288836)
(-0.496872 -6.53852 0.00432917)
(-0.6539 -6.38659 0.00570527)
(-0.787339 -6.1056 0.00687085)
(-0.898134 -5.74869 0.00783803)
(-0.98747 -5.36233 0.00861791)
(-1.05992 -4.97596 0.00925037)
(-1.1186 -4.604 0.00976264)
(-1.16635 -4.25159 0.0101795)
(-1.20485 -3.91897 0.0105156)
(-1.23531 -3.60442 0.0107816)
(-1.2585 -3.30574 0.0109841)
(-1.275 -3.02101 0.0111281)
(-1.28523 -2.7487 0.0112174)
(-1.28958 -2.48775 0.0112555)
(-1.28841 -2.23744 0.0112453)
(-1.28204 -1.99734 0.0111899)
(-1.27081 -1.7672 0.0110919)
(-1.25501 -1.54688 0.010954)
(-1.23492 -1.33632 0.0107788)
(-1.21082 -1.13552 0.0105685)
(-1.18296 -0.944497 0.0103254)
(-1.15156 -0.763283 0.0100513)
(-1.11684 -0.591929 0.00974833)
(-1.07899 -0.430498 0.00941804)
(-1.0382 -0.279069 0.00906206)
(-0.994646 -0.137754 0.00868199)
(-0.948506 -0.00665734 0.00827935)
(-0.108575 -47.7165 0.000947615)
(0.194332 -47.123 -0.00169606)
(-0.322861 -35.4508 0.00281731)
(0.207752 -28.4905 -0.00181091)
(2.64282 -39.4656 -0.0230627)
(2.84783 -46.5836 -0.0248561)
(2.83689 -47.8713 -0.0247616)
(2.23357 -42.7816 -0.0195009)
(1.36566 -33.0166 -0.0119079)
(0.590525 -21.477 -0.00515118)
(-0.115161 -10.94 0.00100376)
(-0.100021 -4.99746 0.000840319)
(-0.20395 -6.05098 0.00168684)
(-0.342723 -6.27861 0.00297378)
(-0.496868 -6.30453 0.00432963)
(-0.64648 -6.16554 0.00564059)
(-0.775947 -5.90588 0.00677145)
(-0.885209 -5.57185 0.00772523)
(-0.974427 -5.20636 0.00850407)
(-1.04747 -4.83767 0.00914168)
(-1.10701 -4.48056 0.00966148)
(-1.15575 -4.14086 0.010087)
(-1.19529 -3.81943 0.0104322)
(-1.22686 -3.51498 0.0107078)
(-1.25119 -3.2256 0.0109202)
(-1.26883 -2.94949 0.0110743)
(-1.28022 -2.6852 0.0111737)
(-1.28571 -2.43172 0.0112217)
(-1.28563 -2.18837 0.0112211)
(-1.28031 -1.95471 0.0111747)
(-1.27004 -1.73054 0.0110852)
(-1.25512 -1.51574 0.010955)
(-1.23583 -1.31027 0.0107867)
(-1.21243 -1.11416 0.0105825)
(-1.18517 -0.927453 0.0103446)
(-1.15428 -0.75021 0.0100751)
(-1.11997 -0.582507 0.00977569)
(-1.08245 -0.424427 0.00944827)
(-1.04191 -0.27607 0.00909445)
(-0.998527 -0.137565 0.00871586)
(-0.952485 -0.00902994 0.00831409)
(-0.153171 -47.7089 0.00133683)
(0.281747 -47.0767 -0.00245896)
(-0.466957 -35.4319 0.00407512)
(0.709083 -31.5859 -0.00618576)
(2.55713 -42.04 -0.0223159)
(2.57361 -47.5379 -0.0224633)
(2.42866 -47.9785 -0.0211987)
(1.90594 -42.194 -0.0166414)
(1.06957 -32.0979 -0.00932289)
(0.400525 -20.6433 -0.0034922)
(-0.210408 -10.4502 0.00183582)
(-0.13217 -5.01385 0.0011167)
(-0.225142 -5.87447 0.00188682)
(-0.354605 -6.06055 0.00307881)
(-0.500091 -6.08029 0.00435821)
(-0.642448 -5.95146 0.00560548)
(-0.767638 -5.71033 0.00669896)
(-0.874757 -5.39716 0.00763402)
(-0.963285 -5.05134 0.00840682)
(-1.03639 -4.69972 0.00904502)
(-1.09637 -4.35715 0.00956863)
(-1.14573 -4.02997 0.00999953)
(-1.18601 -3.71959 0.0103512)
(-1.21839 -3.42514 0.0106339)
(-1.24361 -3.14496 0.0108541)
(-1.26221 -2.8774 0.0110164)
(-1.27458 -2.6211 0.0111244)
(-1.28106 -2.37508 0.0111811)
(-1.28198 -2.13867 0.0111892)
(-1.27762 -1.91148 0.0111512)
(-1.26827 -1.6933 0.0110697)
(-1.25421 -1.48405 0.010947)
(-1.2357 -1.28372 0.0107855)
(-1.213 -1.09235 0.0105875)
(-1.18637 -0.910012 0.0103551)
(-1.15602 -0.736792 0.0100902)
(-1.12217 -0.572788 0.00979484)
(-1.08502 -0.418107 0.0094707)
(-1.04478 -0.272866 0.00911947)
(-1.00162 -0.137211 0.00874284)
(-0.955729 -0.0112755 0.0083424)
(-0.198991 -47.709 0.00173673)
(0.361447 -46.9907 -0.0031545)
(-0.59288 -35.6644 0.00517429)
(1.0019 -34.7093 -0.0087412)
(2.19859 -43.9959 -0.0191876)
(2.23206 -48.2135 -0.0194824)
(2.00041 -48.0082 -0.017461)
(1.60005 -41.6186 -0.0139714)
(0.811 -31.2489 -0.00706568)
(0.256003 -19.9161 -0.00222957)
(-0.260909 -10.0573 0.00227749)
(-0.152555 -5.05201 0.00128918)
(-0.246288 -5.70374 0.00208354)
(-0.368154 -5.85226 0.00319816)
(-0.505929 -5.86473 0.00440957)
(-0.641384 -5.74401 0.00559627)
(-0.76217 -5.51909 0.00665126)
(-0.866704 -5.22498 0.00756375)
(-0.954065 -4.89766 0.00832636)
(-1.02678 -4.56246 0.00896111)
(-1.0868 -4.23407 0.00948509)
(-1.13644 -3.91918 0.0099184)
(-1.17714 -3.6197 0.0102738)
(-1.21007 -3.33512 0.0105613)
(-1.23594 -3.06403 0.0107871)
(-1.25527 -2.80494 0.0109559)
(-1.26845 -2.55655 0.011071)
(-1.27579 -2.31793 0.0111351)
(-1.27758 -2.08844 0.0111508)
(-1.27409 -1.86771 0.0111204)
(-1.26559 -1.65555 0.0110463)
(-1.25235 -1.45188 0.0109307)
(-1.2346 -1.25671 0.0107759)
(-1.21261 -1.07012 0.0105841)
(-1.18661 -0.892191 0.0103572)
(-1.15682 -0.723037 0.0100973)
(-1.12346 -0.562776 0.00980614)
(-1.08673 -0.411535 0.00948562)
(-1.04683 -0.269451 0.00913738)
(-1.00394 -0.136685 0.0087631)
(-0.958253 -0.0133841 0.00836443)
(-0.229838 -47.7133 0.00200596)
(0.407984 -46.8642 -0.00356059)
(-0.654784 -36.0027 0.00571473)