/*--------------------------------*- C++ -*----------------------------------*\
| =========                 |                                                 |
| \\      /  F ield         | OpenFOAM: The Open Source CFD Toolbox           |
|  \\    /   O peration     | Version:  v2006                                 |
|   \\  /    A nd           | Website:  www.openfoam.com                      |
|    \\/     M anipulation  |                                                 |
\*---------------------------------------------------------------------------*/
FoamFile
{
    version     2.0;
    format      ascii;
    class       volScalarField;
    location    "0.02";
    object      p;
}
// * * * * * * * * * * * * * * * * * * * * * * * * * * * * * * * * * * * * * //

dimensions      [1 -1 -2 0 0 0 0];


internalField   nonuniform List<scalar> 
3585
(
100615
99211.4
97675.3
105020
97718
102381
100551
102325
102315
102325
70799.7
102323
102322
102321
100001
100239
99726.2
100560
98696.3
102651
99618.1
100534
100764
93207.9
130095
97503.4
99926
119377
100783
100534
100499
102154
105490
105982
96378.2
102896
102808
97294.7
103781
97029.6
103448
146259
102645
98437.7
95070.2
103634
96336
135599
96978.2
92585.4
97041.7
87594.6
95647.7
97867.3
72137.1
1512.85
102115
102590
102004
97129.5
102073
96579.8
97318.7
97324.6
102645
101597
101694
101748
96931.1
100576
94083.6
100619
100495
96413.6
100877
100562
100983
100889
97499.5
97583.8
101016
100563
99895.1
96313.4
87316.9
100469
99158.6
95259.8
94760.1
100563
96946.7
100416
100193
102326
94383.4
102226
94306
97945.3
97731.5
95916.6
97641.1
102416
99368.5
98563.4
102258
101056
98309.2
97533.1
96330.9
102354
101912
97622.3
97341.9
100639
102434
94285.2
96306.7
100494
102284
97090.4
98062.1
102318
101429
102342
101492
101300
101037
102251
101404
101232
101453
102044
97469.8
97439.6
97178.3
101986
100589
100288
95917.6
100641
102078
99422.5
104280
100138
98943.8
100512
98843.5
102095
96654.2
101303
100515
106305
104864
100505
98018.2
100535
96269.9
94202.8
96882.3
102174
102818
96191.6
103728
103597
103497
102829
102653
96704.2
99936.6
99836.8
96293.6
97333.1
102109
102467
100425
102312
101520
102191
96749.4
102159
102328
2140.77
102538
99832.5
101515
101870
101812
101786
97230
101998
99757.9
99074.6
99404.1
102077
98907.1
102096
92823.3
97493.3
98870.1
102076
100350
99835
99156.4
95519.2
99578.7
100351
102077
96059.4
101169
97231.4
93282.9
100366
100304
100041
100162
99954.9
100232
100235
98405.6
107214
93281.5
71533.2
93949
102420
97945.7
106886
99999.7
99475.2
93901.9
99270.4
101993
102311
99612.9
102688
99880.8
96982.5
102331
102221
99439.8
101799
99964.7
101123
101451
101701
100155
96079.1
95511.8
97654.8
102267
97580.9
96590.3
100442
100492
99383.3
101041
125515
100503
102311
101827
101850
102211
100642
97336.7
95396.7
96328.3
98756.2
96465.6
91931
101871
102857
101969
98676.1
102974
98675.6
102527
94126.9
102345
100830
100743
100675
101234
96029.9
96233.3
96217.9
100503
99799
102144
100161
100174
95076.2
94502.8
98026.4
100706
102009
101006
102140
102108
102123
101008
102427
93475.7
100042
99783
102288
100035
102304
102311
102323
100218
100282
101956
100188
100368
100781
102784
95627
106047
100531
93395.3
94003
101792
100416
94247.3
102563
100505
100570
98261.4
94972.3
102672
94573.1
102794
100944
102938
101076
102776
97478.7
93222.5
100314
100260
100161
100132
100472
106806
96304
101369
102073
99045.2
96858.1
94524.2
97294.6
97056.4
103873
103876
104173
104049
102154
102115
99895.3
102527
101491
103379
102960
103286
95884.9
97171.2
103379
101243
95729.9
98176.1
96893.3
102197
102235
99376.6
76587.5
102331
97599.4
88958.8
75478.5
92429.8
102206
102370
101977
101423
102196
97082.4
100287
102340
98018.5
96989.4
97673
101482
102229
97595.7
102001
42986.1
102688
102654
102721
100332
102057
101765
101762
101817
101830
101795
102332
104429
99844.6
102331
101687
100719
102474
100204
100154
97981.3
97447.6
96314.1
97299.6
98070.3
98971.4
98094.2
99374.8
96889.6
99019.3
99878.4
104728
104597
102164
104597
98353.8
102482
99552.5
100986
97024.7
101068
102358
101174
101259
102871
101021
80280.5
97057.4
100909
94534.7
98353.6
101891
97514
103308
96358
102164
102338
97217.2
96693.6
97587.1
102116
102580
139505
97231.1
96871
100564
100425
100527
98756.7
97241.4
115399
114217
103882
102345
66240.4
126418
102696
97358.1
102538
100251
101966
101296
97241.1
104515
102336
102320
97077
97317.5
98461.8
96740.1
98303.1
98739.2
102490
102382
96485.9
97799.6
97303
97756.6
97945.6
97533.6
103192
97420.3
102278
102288
102233
97385.2
97421.5
102465
101943
102303
99873.3
99978.6
95906.1
97541.2
100280
101089
97639.1
98949.5
102302
94270.2
100882
96418.6
99750
95892.3
95086.4
95191.3
95483.9
101803
95475
138382
96175.4
98721
92851.7
101488
100154
101010
142134
97400.9
97553.5
101170
97439.9
97424.4
97940.7
100739
103671
98706.3
98162.3
89945.7
102299
96925.9
23315.1
24863
91949.9
101226
82630.2
40665.7
103132
102990
103169
102141
89158.7
103124
102176
103740
98723.5
93751.3
102190
101954
101563
97887.3
94451.1
93179.2
95280.3
94869.8
102158
100292
102170
104437
102141
102350
101588
101827
97927.3
98163.8
97959.9
98211.4
97966.5
98020.8
100664
102951
102219
102319
95722.4
99350.6
100322
97951.5
93694.2
100370
100649
101153
96008.9
97847.2
96061.9
97599.7
96216.5
96500.9
100786
102308
100592
139325
97421.6
103684
100887
102257
102360
102309
102437
102352
102454
102094
96597.8
95329.4
99622.6
100525
95580.1
94649.6
94509.2
101773
95870.9
98440.9
99205.8
95248.9
123129
102175
102134
95559.1
98079.4
102243
102248
102215
96940.4
101607
101468
100726
92772.9
100012
101078
100973
96580.7
95704.5
98074.5
102861
99676.1
93955.3
98603
99100.7
96725.2
95191.6
98169.4
95233.5
99077.8
100332
100100
100348
100356
97715.8
97134.2
102856
102994
103171
99738.9
103040
102344
102279
100637
100560
102328
99456.1
100709
101987
97123.3
102562
96572.2
93184.3
100614
101496
101478
102950
103141
95573.5
102465
100037
97247.2
102352
97089.6
100513
97661.1
102307
97757.7
102381
97700.4
102250
103296
102335
103776
102407
101481
101420
101767
101657
101088
102125
101195
98197.2
97004.8
98029.7
102944
104142
94999.6
94277.9
94620.4
40086.5
98917
100866
99652
94218.5
94647
102363
100216
98571.2
93617
102411
100148
97058.4
102974
96344.5
99010.1
99785
99649.5
99391.8
103448
103554
102939
95099.9
95282.5
96190.2
96071.9
100053
102330
102317
102322
100960
102361
100838
97448.4
99138.6
97517.5
102358
102332
102319
101724
102404
99940.8
102338
102181
99263.5
101533
102025
101754
101488
101707
102045
101940
93908.2
92883.6
95211.4
95302.3
102348
95551.4
91195.6
92668.5
101912
102001
101911
102066
102338
101678
93298.6
98075.7
99083.4
102499
99229.8
101195
97896.3
102176
102333
102397
101548
100651
102500
102616
101278
101405
99924.9
150045
97029.9
100172
93338.6
96135
100500
95726.1
97008.1
97364.5
97858.2
98323.9
98317
98264.3
97030.7
100077
95892
99194.8
94450.7
96781.6
100183
102232
103853
101942
102278
101392
98311.5
98297.1
102308
97819.6
95993.8
97564.1
101036
101769
104895
97368.2
102528
95070.6
98988.5
96815.8
101323
101430
102551
103618
119019
88999.5
95065.3
96893.6
103458
102371
125370
102812
100606
102856
102569
102437
97504.2
101893
100634
100606
103748
99964.2
106602
100746
101558
97913.3
102900
97844.5
97929.7
102188
102255
102120
102325
90757.4
95270.2
97027.7
99888
100627
102329
99996.1
102330
101844
102506
102486
102505
95394.2
102360
100597
100510
102747
100450
100671
100595
97553.7
101653
101190
100372
101649
101631
101389
97441
98671.5
101711
98507.3
100527
98336.3
100061
97050.2
98759.3
96876.3
98472
102057
99025.5
99092.7
102488
97949
99092.6
98308.2
93437.5
99120.6
93593
100226
102262
102129
102210
102154
97495.3
99002.1
97696.6
97229.9
92748.4
94035.2
100538
100595
100160
102473
97880.9
102804
100535
106373
100936
102287
95158.5
102263
102266
102256
100192
107779
102261
94527.3
96674.5
94662.2
100588
98146.2
97323.1
100097
103943
97559
104197
100518
100421
100235
100233
102328
100202
103211
97137.9
100126
100148
100651
96958.3
102520
98328.1
100223
96290.8
100497
100745
100787
101105
101109
97003.3
97063.7
97014.6
98819.9
96975.7
95169.8
92509.5
97969.2
98089.9
107761
99610.7
98904.2
102280
102283
102297
102290
97901.9
102320
101982
100339
98331.2
98866.6
101701
100460
100696
100293
99897.6
100524
100230
98214.5
97436.9
121604
97075.8
97379.5
100603
97264.9
100343
97456.5
97367.4
100465
98624.8
100415
98110.9
99149.6
100236
100300
98271.3
98612.1
98269.9
96963.4
98393.2
98396
97950
96896
100662
101137
99003.1
98480.3
98085.4
98282.5
98439.7
98416.9
96741.7
100306
97546.4
97398.6
97296.2
97481.1
101651
98820.4
95835.4
101362
100489
96764
98638.7
102753
98162.2
102534
102884
102843
102383
101424
101523
102646
102592
102573
100261
100126
102294
100127
97193
101240
101449
95550
92091.8
97493.7
96611.9
103717
103675
103792
103669
103855
99967.9
102386
95671.4
100622
100561
100611
100489
93931
100486
106663
103913
102381
102387
102358
101852
101811
100160
98765.8
99890.6
99871.1
126169
97895.5
100153
97619.1
98723.5
102368
102111
102129
102373
102074
102066
100185
101139
97116.7
99359.4
96767
95781.2
102937
97105.1
97752.2
98001.7
98056.2
98254.6
96728.4
99732.9
99018.8
97821.3
101848
102232
102329
102669
104437
100943
98508.7
97007.4
100510
98229
96554.6
98356.6
95810.9
95060.3
94759.2
102503
102566
102561
102612
102216
102291
102137
102216
96938.4
101209
99495.7
92878.1
99763.6
87307.1
102998
102979
103057
102862
128258
102343
102011
100419
100415
102250
99863.8
103097
101691
101599
95854.3
91529.5
95820.6
100444
97226.8
99796.4
103248
103256
100012
99008.9
99606.3
102430
102123
102180
100328
102346
95682.2
101483
94826.4
97559.8
97497.1
97480.4
96865.2
100589
107396
97035.5
95819.4
98323.4
96467.4
97381
99219.4
103045
102795
102782
99463.9
97761.1
101561
96660
96613.1
102274
102374
97775.3
99019.3
98576.2
90331.1
93296
96801.8
100498
97605
98203.4
102230
102618
98319.3
102210
101866
97928.6
101296
102550
96857.5
96289.2
97454.3
97876.8
97810
100625
96372
98275.3
101645
102391
102390
101931
101891
102215
92968.1
102364
102595
97257.1
102304
96771.1
101104
97318
102351
95703.1
99182.4
101509
102399
103258
94618.8
102030
107295
104550
103954
100190
100532
97464.1
97719.2
102598
97705.9
102649
97255.5
102615
100376
100151
97943.7
102589
97700.5
96115.1
97877.2
96961
95388.6
105588
102082
102642
101537
102149
102620
97548.3
101587
90733.3
99998.1
100302
99255.3
98025.7
93940.7
99167.3
94830.6
102930
103208
92225.3
98446
102608
97930.4
97986.3
98442.9
102406
102796
102710
99285.4
96941.6
102243
102791
97562.9
120513
102303
102330
98288.5
99875.5
100629
96967.1
98242.2
99698.6
98520.3
87120.5
103448
94657.7
104281
90602.3
102891
86625.2
100419
102447
102358
102065
102296
102344
102238
100504
99648.5
99523.2
97804.1
100480
97462.8
96061.9
104883
94983.9
90069.6
105215
102337
102242
100792
100614
98391.3
98418
100535
100618
100556
100636
102958
102977
98302
103141
103139
98019.4
100186
100346
100438
102317
101946
101815
101040
99857.8
98934.3
102311
102301
100666
97593.1
101346
98757.1
99391.1
101601
28344.3
101508
101344
101565
97898.2
97493.5
95792.1
100323
102426
102675
102588
100576
97666.8
100521
97325.8
98100.7
102333
102274
97760.1
98336.9
97084.9
49849.9
101959
102585
101690
100980
101013
100582
96660.9
97527
102182
97353.4
98964.4
97762.1
100581
100616
100617
101042
101145
100608
97056.4
97051.4
96733.2
96679.8
96781.3
96660.4
97553.4
98755.5
98254.6
97947.5
89696.5
113567
98127.5
97443.4
104368
103052
125364
97502.1
102016
97244.3
102093
100531
100616
97433.2
97246.7
102497
94778
98168.5
100462
92538.3
97634.1
118746
98275.5
91753.1
100476
102367
102232
102232
102478
103645
102134
101970
102145
98048.2
101000
99741.1
96997.5
99568.4
95329.1
102805
96925.2
96980.1
97351.4
101978
104028
93555.1
99306.1
102506
101791
102339
98563.2
91057.1
100480
100999
99441.7
99924.2
97558.9
98495.2
96316.3
97458.3
97331.5
100492
101808
103545
99667.4
100414
103713
104247
97869.2
98173.1
110028
99905.3
106227
103912
100378
100400
100299
100404
100374
101395
102870
102251
101897
99262.5
102035
102881
100508
102387
97943.2
98076.3
100635
102319
105723
97945.2
107556
95322
99688
97877.9
95353
93770.1
95958.7
102332
98295.2
101733
101672
101576
102022
100062
93271.7
102478
98189.5
102324
99568.7
102310
99489.5
102568
102554
102324
100530
100501
100184
102191
99882.3
100111
99537.5
99228
99173.3
99443.2
102151
101407
92030
43874.2
81544.3
98058.8
8317.63
55996.9
79017.7
96951.4
98376.2
104024
104827
125687
95115.1
95955.9
104501
104758
85291.1
102176
97059.5
97616.2
101511
101604
99040.4
99480
97003.4
100291
97195.5
97290.2
97227.9
100284
100298
97494.8
97432.9
100108
97370.6
99072.6
100271
100670
102030
102161
100977
98011.9
101097
101141
95543.7
99676.4
96937.4
97102.1
97265.1
98252.1
96306.6
102730
99356.5
100924
100605
100119
101094
96545.6
101106
101156
96725.6
96548.8
95969.5
96451.4
96671.2
95178.8
103529
103109
102517
112640
102297
103393
102563
103462
102593
84725
102549
100307
98149.3
99654.1
100560
92677
92719.8
101673
103012
102427
100721
104447
102533
102432
102221
102166
102463
102102
100927
95983.3
100872
100971
101545
95259.8
95519.7
96483.7
95223.4
100317
97827
91421.5
97928.4
98566.4
96232.3
103480
103442
103370
102110
103900
93470
93853.3
94101.7
102263
102300
102294
96184.8
96250.5
98214.3
97921.4
98518.2
100393
100261
102842
100542
100400
108218
105773
106739
104420
105831
106876
102214
96864.9
102199
101652
101590
100554
96745.6
92070.7
96835.8
97214.1
99382.4
97671.4
99801.7
100511
95847.3
98288.2
71381.5
99440.2
96892.6
97694.4
100627
102187
100641
96976.2
99553.6
102201
100673
101162
94447.7
94047.3
91980.4
94063.7
95796.5
106672
106657
94206.2
97926.4
103492
105813
102710
101964
102329
102310
101181
101934
101983
93920.4
97936.2
97592
96298.9
90544.8
100650
93502.3
94661.9
97521
102051
98005.1
98912.3
98331.1
93002.5
108051
101844
97994.8
98472.5
98087.8
98017.9
102269
102263
100819
97868.7
100605
100436
102251
102215
102212
101480
101510
101486
91041.5
101437
97326.5
101720
97235.1
101374
101339
94630.4
98498.5
98411.3
96361.1
80356.6
97545.2
78256.1
100254
94980.3
102967
95647.3
96571.1
100223
102386
98996.3
102776
102536
98540.9
102395
102556
102346
99487.3
99394.4
101777
101227
102003
101814
98348.9
102350
102330
102495
102341
100618
103364
100650
105263
96853.9
98383.4
98158.6
96813.4
96520.3
102326
100618
100416
100521
102335
102471
102363
101077
102379
99186
99547.5
101930
101653
99601.3
95101.4
95501.4
99312.4
99245.8
95134.9
92473.3
93272.4
101934
101434
98581.4
102291
102307
102319
102327
102139
100287
117939
103200
102542
93113.5
96121.1
98142.2
99997.3
94269.6
100788
102822
98637.7
103153
102766
98600.9
93789.8
97940.4
98242.5
102793
102890
102684
102716
102679
102654
102280
102950
96428.3
98285.8
97616.1
97105.4
100629
99658
103062
119728
101735
101855
94832.8
101811
94764.1
100643
100526
100448
102176
101970
102307
102333
101825
101869
100974
101866
100133
99718.2
96203.6
100258
102007
97506.9
99936.7
100344
102345
96029.7
101084
101146
101397
102356
96862.5
96838.9
96967.8
96874.9
98080.6
95264.5
97679
98771.2
104219
100521
102734
100054
96297.5
121823
98631.7
96560.1
98424.4
103992
104144
104623
103797
102335
102414
101595
99927.2
101918
101896
93795.2
101845
101891
97770.4
97617.5
97633.7
97570.2
99169.1
97531.7
97582.9
97895.9
99545
99560.3
99789.5
99769.8
107287
103769
103870
101571
101670
100545
99207.4
95360.4
95543.6
100677
100555
100695
100318
97879.6
97332.5
114382
93413.9
101945
101652
98323.8
97154.9
95836.9
96350.8
97428.8
95503.2
95970.7
98529.2
97211.5
97775
102932
94856
103588
101860
105240
100835
100708
98189.6
98422.5
100946
102656
102633
102024
101735
102576
99580.5
100178
96862.5
99666.6
93252.8
100295
100915
99989.2
115667
96181.3
96081.1
100577
101853
98682.5
102064
100412
102214
100672
93446.3
97913
98059.3
94447.2
97581.7
97033.9
98022.1
97341.1
97172.2
99576.5
100387
101922
101915
102906
101986
100935
122888
96234.1
102642
102600
100292
102813
102461
102709
102170
100387
101235
101112
96976.3
97075
94805.6
94126.9
98873.1
94755.2
90978.4
96878.1
96046.8
101576
108790
101164
96214.6
97422.9
101142
102468
102436
100881
97007.7
101994
102473
94382.6
99006.9
97270.6
99519.8
97868.1
99520.3
98711.1
99102.6
98870.9
98266.2
97273.6
97531.8
102331
102066
102227
100492
94797.3
96842
102181
99775.7
99975.2
100254
100820
99971.2
101237
97434.8
100280
100438
90238.8
96290.8
90732.7
99878.8
100016
100163
97555.9
100125
99507.4
96243.5
99525
92820
102391
93405.2
95398.1
103541
94315.8
97064.8
97568.1
92174.7
94103.3
96894.7
94303.8
98600.2
98461.7
99035.9
98751
96844.4
96300.9
102750
102307
102601
98171.2
100869
98975.3
104114
98495.9
91612.7
104407
100964
96684.8
93117.5
100701
100500
93868.6
100840
97666.2
97619.8
97273
100833
97861.3
102868
100276
101646
91771.2
94816.5
102532
94350.7
102533
102498
102178
101989
101825
94407.1
97691.1
98616.8
97627.1
98020.6
97457.4
96925
100978
97983.3
97147.8
97684.5
101695
102847
100447
102028
101662
102223
97864.3
97500
100201
101918
101293
101534
101674
97523.9
97013.6
100497
98122.8
126980
106980
97461.2
101893
101313
97534
97548.7
97540.3
97111
98215.6
98245.5
97495.5
102574
101159
101155
101194
97155.9
97426.6
97344
98998.2
127212
143744
102414
102518
98373.6
79381.2
100457
102247
102269
102470
101834
102538
102327
102810
101848
97582.6
96219.5
102295
102291
100868
98415
100537
99749.9
100429
101034
106673
100859
98032.9
98039.5
101020
98238.5
84877
101106
100203
99680.5
99868
101925
101772
102268
102218
102380
101411
102244
99661.1
102270
102247
100250
98551.8
102566
103078
100475
99743.7
100413
100394
100359
103159
103232
90523.3
102920
102954
89052.1
102334
102332
102320
99884
99941.1
98778.3
100574
100491
100512
100461
100571
100456
98578.4
98530.1
98190
97699.3
102259
97284.9
103410
95357.9
100532
92991.3
93294
97451.5
99341.2
97667.4
99943
96878.4
101932
92516.8
101956
101927
97033.4
97158.8
102058
102027
100564
97898.9
100509
100534
96850.6
96778.6
97494.6
96819.4
96993.4
98040.1
102016
103515
101989
103118
97984.8
102013
102005
97582.5
101997
97501.5
97252.5
97466.4
97511.7
97389.2
101675
100908
101821
95154.3
97379.8
97417.2
95490.5
95253.6
102344
102346
102345
102339
102343
94877
102338
99539.8
98761
87494.4
101439
101414
102478
102436
101312
102298
95438.1
101351
98380.1
126719
99845.6
94733.7
102379
102383
93354.4
93131
91276.6
118263
102095
102073
102142
102133
93344.7
93600.3
100077
100490
100422
100251
93126.2
100202
96914.1
95260.8
100617
101844
102219
96428.9
97886.8
96819.9
98483.7
98332.2
98300
96311.8
100493
99952.2
96611.2
97723.7
96959.4
96826.4
95850.7
100255
100599
101312
100015
99446.2
100210
102783
97011.8
97873.2
97271.7
99304.5
92794.6
96405.9
100593
102362
102450
102402
102594
101844
102703
103159
105898
97622
97364.3
109723
93415.1
81327.5
102314
82339.7
102128
114101
124018
95623.3
99123.7
103852
97972.5
98203
97521.2
93780.6
100581
102995
93692.6
94738.7
100087
94364.2
100340
99637.7
100624
100555
98362.7
97553.1
100540
96107.6
97607.5
96809
95035.1
95890
97400.5
100359
97890.8
97194.1
100655
97581.3
100536
100544
100647
101981
100636
102237
102290
103057
100557
100180
101876
103229
103305
103295
87073
100537
100559
103105
99099.2
102405
98770.8
99269.7
102250
97156.5
101113
100459
102280
102271
101625
100900
100451
101006
100700
101048
100728
97496.5
100997
97532.9
98949.7
97538.4
100925
94460.3
99282.1
100064
94972.3
104687
99126.4
124537
97052.8
103859
96334.8
102692
103383
103217
103116
100874
103262
100701
102813
102989
103359
98754.1
99131.5
98998.8
99073.3
103109
101908
101285
102206
100696
100739
100817
100561
100491
102552
96188.8
101870
100386
102320
101804
101241
101770
97946.5
111987
100348
95083.9
102764
102913
97056.6
102912
97269.5
102999
102966
102876
100983
87952.6
123410
102792
100503
102230
94857.7
92913.7
95045.1
90263.8
95119
101400
101100
100004
103150
102584
102486
97381.7
97926.2
97605.8
97246.8
97703.7
97796.6
97345
101946
97793.8
101883
104207
102334
97421.8
102355
102887
99865.3
101010
100850
97509.1
97622.8
100596
100182
97530.7
94037.5
98850.2
95420.8
100597
102439
102149
102153
102120
102135
100786
96890.7
100933
100988
100831
97422.8
97267.6
96371.9
96274.5
101189
102163
102451
102180
102328
102273
99291.2
98804.2
103398
95316.4
97999.2
97488.6
98961.6
95283.1
97069.3
96468
102398
101535
98509.6
100173
99309.3
96011.7
100135
98555.7
106911
100760
111883
102299
100540
99903.4
112431
111566
109053
96426.9
100635
100661
96611.6
97247.5
97120.5
100549
100548
109239
97541.4
102349
102436
97468
102459
100075
98984.2
102301
102266
100867
100949
101912
94883.8
97715.8
102543
80594.7
96433.7
97273.1
102426
103789
102780
97653.2
102174
92416.4
91813.5
95221.2
95425
102110
98521.9
102356
102124
98658
98239.4
99006.9
100664
100558
102176
101524
102177
102212
101503
100663
100836
102375
100737
102343
101723
102030
100380
97494.2
97329.5
116499
98186.9
98216.4
97360.9
97548.8
97154.5
97349.6
101078
94976
114102
101196
123919
102429
102438
102065
102026
98029
98249.4
98066.4
98164.5
98072.8
98841.9
98167.8
104988
104571
104571
102324
104995
102331
95628.6
104802
102130
102123
100669
101010
99446.9
100564
99098.7
97512.8
97418.3
102625
100511
102854
102241
102203
101267
98388.5
98045.4
96973.2
102371
99775.8
100345
100329
100419
99809.3
71178.7
100333
100579
100603
102254
98729.6
99062.4
98573.8
99011.2
99979
98854.9
101430
102220
101039
98894.4
97154.4
97659.5
97393.9
100566
96674.9
100495
97608.6
99352.1
99165.8
108468
103178
95062.4
101438
96700.3
99539.7
102821
102708
65167.5
92831.7
90297.7
99249.1
102368
100476
102286
100439
93273.4
102306
102341
96659.8
95267.9
96642.9
98253.2
97338.1
97981.1
102237
101665
101405
98055.7
95688.2
97586.3
97040.2
97315
96988.6
102321
102316
102295
102290
102295
101575
101232
101721
98455.2
100774
101072
98928.2
99950.7
100305
100081
99869
100178
99829.6
97046.4
98285.1
72160.2
98108.8
100971
100548
105108
102620
102115
101965
80202.6
98385.2
99435.9
98696.1
98693.2
102535
100594
100484
102658
26378.4
98126.6
41644.7
101247
98168
134189
101330
102272
102061
102048
101940
102082
96414.8
99885.1
121270
99992.4
97565.9
97560.2
97641.1
101202
101269
97669.8
98471
100040
99903.4
99051.8
96159.6
92804.8
100463
104469
100468
100493
100362
100366
97871
87376.1
102181
102172
100809
140223
102331
100882
102251
102288
97334.8
96835.9
100538
101706
101267
96856.2
96453
97755.5
98487.9
97298.2
96932.3
100480
96567.6
98202.5
124211
87804.7
130314
131590
98333.5
96345.4
95399.1
103173
103174
96782.6
104254
95370.3
133810
99809.7
100483
100789
100795
102365
102219
102236
102426
101571
101979
96440.8
98335.1
102417
100634
94437.2
100651
105554
118781
102585
102336
102260
101629
101697
102460
102409
98899.7
102439
99453.1
97436.4
99347.4
99076.2
97460
97557.4
100339
99940.6
101720
101797
101792
98032
102315
98076
102291
105407
103922
101671
101903
103995
104177
98389.5
96935.6
97087.4
102518
101341
102697
102727
95861.5
102273
102811
103256
98350.5
102171
99936.6
99877.9
102136
99503.3
99282.1
102728
102671
102333
102165
100959
100885
101426
98126.8
97809.1
102796
102781
98566
96851.8
97029.9
102427
98109.6
98085.6
102402
102289
102342
102863
102198
102100
101357
95621.1
98619.1
99002.1
96773.5
97183
102357
101956
95742.2
97726.8
101604
101410
95476.4
96074.6
97284.2
96856.5
93397
97970.1
97905
98083.1
92985.4
97472.4
103449
102467
102422
101535
97450.7
102396
103888
103875
104929
96504.4
101967
102568
102427
103453
110084
99214.7
96251.5
98335.8
98549.7
98019.3
98232.8
99253.1
115759
102416
95392.2
103062
102539
102331
102336
97610.6
96906.2
95710.6
96464.4
102336
101065
102335
97909.1
101642
102574
103044
118573
109734
109860
97019.3
100473
102395
109615
109156
109603
97732.7
100272
100331
102048
98694.4
99290.6
102248
97213.5
100419
100532
100440
98241.5
95991
94860.1
97242.8
98393.9
102308
98154.8
101765
94955.3
99923.9
94574.5
98103.4
97641.2
96061.5
98544
97120.1
98784.4
98705.3
119907
115074
172715
100121
100323
99997
97101.3
100404
100462
99786.4
102295
99003
104590
105007
105101
108046
176374
105585
110569
140845
102043
102058
100440
100651
101442
93819.1
101997
90554.3
102405
102115
100667
100541
93712.7
102364
102182
102252
102277
102245
97720.7
99569.9
99978
100601
100444
125862
101910
102414
97588.6
102418
102487
101919
101912
120171
98487.7
99341.4
93100
102313
102335
102335
99019.4
101170
99915.3
97801.8
99897.5
102702
99961
102055
102701
99935.7
97349.9
101247
97416.8
93687.5
100274
99114.5
102642
97550.4
96485.9
96099.6
97718.7
96898.5
92225.3
105528
101037
106870
97965.2
98030.8
100410
100407
97920.2
102654
102680
102454
102431
101987
101996
97381.5
98412.8
90148.7
98837.5
98494.2
98192.3
93470.8
98421.8
97276.2
98408
69272.9
98328.9
94166.9
96484.4
96508.1
96376.3
97683.4
98029.6
94195.5
95979
100629
93146.6
97356.4
98192.7
102859
102337
102335
100612
100054
102617
99182.7
99098.9
101662
98129.1
97181
96208.6
95014.8
97882.3
98426.3
98531.8
100244
102521
107286
103286
103067
98918.5
107498
105284
96560.4
96186.9
95868.7
96509.3
96258.1
97092.9
97700.6
98829
98866.8
102194
102276
102302
100351
100998
100058
102401
102307
102316
99846.3
96377.1
99703
95602.9
92525.3
94647.2
100011
113838
102477
102467
102274
102420
151383
102478
102307
102296
102210
102256
99266.1
90734.2
101074
101162
100911
101082
101033
103023
100359
100609
95462.1
94923.9
95712.7
101141
99583.7
96359
102504
95261.7
97939.6
102515
102137
102197
102764
99463.1
99597.9
102182
102243
102116
102075
102098
102104
102127
97418.7
99469.9
95036
99010
95077.2
90331.4
94603.7
99038.1
94536
95757.4
90966.7
95117.8
102741
99342.2
96514.4
97427.7
98806.7
99000.5
103635
102294
102603
102682
102326
102338
102332
100478
102315
100617
97029.3
98895.3
97575.6
99099.3
102324
102299
98885
99526.4
98052
101631
99117.9
101174
101294
101562
97154.3
97246.8
97377.7
97026.1
100002
100388
100375
100497
100355
99368.8
99521.4
99112.6
100617
100616
100646
100640
100610
101858
101779
101732
102300
102270
97343.6
97556.8
102254
106219
100525
97469.1
102208
100787
102613
93820.6
96126.4
102380
94383.8
95340.9
94885.7
98718.8
100914
101080
93807.4
93651.7
100193
102563
99448.6
100344
107064
100355
103794
99976
105037
98556.3
97871.1
99816.9
98634
95159.7
95730.3
103380
96891.7
104095
97272.3
95789.2
98977.1
95760.7
97117.6
99625.4
99661
97318
102324
102333
102402
102338
102333
95358
90852.5
95790.8
94794.2
94877.4
96141
101460
98873.5
96578.7
94783.6
102360
97232.8
97852.2
97644.3
97750
100718
100911
100163
100992
102269
102346
102293
102338
102261
101876
101633
101824
101785
105398
105769
107152
105175
105577
94383.9
96598.8
96995.9
96640.5
98174.7
98094.5
101438
102060
102312
101887
101738
102026
101882
103570
102314
102278
101279
102283
102310
99363.2
100546
92927.1
105390
105478
100814
106143
104768
101348
100244
92931.6
99018.6
99934
100390
96530.3
100843
134690
100148
124790
100631
99513.6
101267
100558
99904.3
99143.6
101524
21959.4
80152.2
98426.9
84178.3
99592.4
99764.7
96993.9
119571
126446
94190
95981
99150.3
98507.4
94611.3
103733
129719
98169.8
102086
100385
99005.8
97617.5
98066.4
98091
103493
97501
104502
103278
104166
103421
96210.5
100036
100412
98559.1
100497
87959.6
134149
95385.7
101515
101272
100485
102373
102645
94085.7
102321
102502
98143
102246
102529
97097.7
97837.6
102489
102677
102609
102658
102583
105907
105538
97535
108426
96082.2
97380.1
97067.1
96691.9
97324.1
97776.1
103477
104100
105496
105908
106117
)
;

boundaryField
{
    Inlet
    {
        type            calculated;
        value           nonuniform List<scalar> 0();
    }
    Outlet
    {
        type            calculated;
        value           nonuniform List<scalar> 
26
(
100682
100682
100682
100682
100682
100682
100682
100682
100682
100682
100682
100682
100682
100682
100682
100682
100682
100682
100682
100682
100682
100682
100682
100682
100682
100647
)
;
    }
    Symmetric
    {
        type            symmetry;
    }
    Wall
    {
        type            calculated;
        value           nonuniform List<scalar> 
217
(
102324
102307
102271
102219
102136
102013
101844
101608
101313
101042
100737
100557
100935
100700
98894.6
97608.8
97433.4
97494.5
97417.4
97129.7
97056.8
97659.6
98771
99661.3
100151
100419
100564
100662
100635
100666
102333
102310
102280
102215
102128
102016
101869
101652
101369
101010
100677
100535
100960
100859
99350.6
97972.4
97592
97517.5
97418.3
97154.5
97035.5
97634.1
98873.1
99750
100202
100419
100581
102334
102331
102320
102317
102315
102290
102291
102283
102242
102247
102240
102171
102182
102164
102066
102082
102060
101917
101934
101898
101711
101735
101690
101449
101468
101406
101145
101174
101105
100786
100885
100746
100425
100595
100528
100788
100669
100887
101112
101034
101020
99872.9
99881
99446.7
98254.3
98074.7
97697.1
97621.7
97426.8
97247.2
97532.8
97460.2
97533.5
97472
97499.7
97448.9
97156.2
97270.8
97155.4
96938.1
97040.3
97015.1
97331.2
97244.5
97458.8
98528.9
98190.1
98578.9
99552.2
99269.8
99521.8
100111
99940.8
100065
100333
100305
100345
100535
100509
100528
102325
102338
102308
102326
102264
102295
102206
102251
102114
102176
101979
102073
101804
101954
101562
101770
101241
101520
100926
101194
100510
100874
100560
100555
101170
100739
100476
101010
98389
100210
97846.7
98566
97364.8
97622.3
97520.5
97553.4
97326
97502.1
97011.3
97294.7
97055.8
97029.3
97999.7
97241.4
99099.2
98252.1
99846.1
99368.8
100234
100015
100437
100329
100619
100503
102328
102307
102269
102212
102123
101997
101824
101589
101293
100980
100597
100508
101078
100792
98983.9
97770.1
97555.5
97526.7
97329.2
97013.3
97029.6
97879.3
99098.8
99881.9
100270
100441
)
;
    }
    procBoundary2to3
    {
        type            processor;
        value           nonuniform List<scalar> 
34
(
102344
102349
104207
102514
102456
102337
102535
103529
102568
102555
102338
102365
102363
102501
102389
102353
102350
102562
102342
102411
102411
102329
102513
102453
102426
102377
121527
102465
102440
102423
102291
102332
102514
102334
)
;
    }
}


// ************************************************************************* //
