/*--------------------------------*- C++ -*----------------------------------*\
| =========                 |                                                 |
| \\      /  F ield         | OpenFOAM: The Open Source CFD Toolbox           |
|  \\    /   O peration     | Version:  v2006                                 |
|   \\  /    A nd           | Website:  www.openfoam.com                      |
|    \\/     M anipulation  |                                                 |
\*---------------------------------------------------------------------------*/
FoamFile
{
    version     2.0;
    format      ascii;
    class       volScalarField;
    location    "0.02";
    object      p;
}
// * * * * * * * * * * * * * * * * * * * * * * * * * * * * * * * * * * * * * //

dimensions      [1 -1 -2 0 0 0 0];


internalField   nonuniform List<scalar> 
3585
(
100679
98042.7
98090.1
98446.1
98723.2
100446
100058
100562
100552
100613
66749.2
100605
100578
100590
98742
98795.8
98540.9
98861.6
98568.5
98171.2
100287
100391
100254
96789.5
130669
99825.8
100414
118491
100358
100062
100075
105316
109231
111163
95554.2
106284
105052
99000
103299
98945.6
102712
149368
100153
100102
98557.1
102759
98661.2
152622
96221.9
93486.4
98868.4
91386.2
95240.7
98695
68232.2
1357.87
99884.5
98963.9
99680.7
98955.7
99810.6
98684.4
98754.3
98706.4
98193.7
99321.9
99332.4
99418.9
98783.2
100671
98465.2
100681
100668
98587
98917.3
100685
99002
98694.3
98909.1
99017.8
98822.4
100676
100385
100566
88823.7
97998.4
98444
98461.1
99904.1
100582
98670.8
100611
100512
100647
99182.2
100009
99000.8
99123.9
98326.8
98861.7
90826.5
100827
98361.6
97921
100263
99035.5
98379.9
98853
100406
99797.9
99548.5
98713.8
99068.3
100676
100346
97979.9
98736.1
100666
100384
98803.3
99531.3
100580
99204.2
100738
99246.5
99159.2
99012.4
100260
99210.5
99111.9
99230.3
99685.9
99038.7
99035.9
98974.8
99577.7
100582
100513
98760.7
100651
99660.9
100667
94411.5
85707.4
98116.8
100672
100649
98948.5
98798.2
98956.4
100662
96375.4
93641.2
100446
98794.3
100330
98607
97546.9
99937.3
99429.2
101019
95296.8
101684
101063
101484
99112.9
98928.7
98725.4
100532
100575
98627.2
98702.7
99796.2
100765
100615
100474
99280.8
100044
98691.1
99840.5
100625
2049.97
100962
98655.2
99212.5
99205.4
99412.4
99400.8
98981.8
99471.4
98614.9
97951
100167
99740.9
97981
99764.3
98020
98785
98045.1
99798
100581
100385
100056
100569
100485
100628
99806.4
98757.3
99093.3
98844.1
98484.5
100514
100515
98848.5
100520
100467
100521
100513
121785
107023
95328.3
67606
98924.1
100803
97748.8
93670.3
100448
100283
98930.7
100283
100540
100524
100370
98209.2
98617
98570.9
100672
100066
100416
99464.2
100514
99076.9
99189.1
99362.6
98731
100022
97698.1
98895.8
99611.6
98894.5
98764.9
100633
100635
97904.1
98595.9
126237
100637
100505
99229.1
99262.9
99442
98592.5
98902.2
98733
99964.5
100354
97420.7
75486.4
99489.9
98608.5
100018
95088.9
100298
98150.8
101245
97515.9
100736
98975.7
98927.7
98940.4
99102.1
98591.2
98753.9
98778.6
98863.3
101241
99736.1
101585
101522
96990.5
96224
98037.9
98923.3
99356.5
98878.5
99703.8
99698.7
99744.7
99052.3
99398.9
98522.8
100446
100672
100267
100662
100431
100217
100506
100685
100726
99542
100685
98425.9
98601.2
100922
98687.3
98650.7
100654
98440.7
98552.1
99016.9
100627
98611.6
98736.2
100599
100617
100224
100496
101167
98601.8
100613
98999.3
100792
98936.3
101168
98954.1
95896.2
98893.1
98888
98885.4
98862.3
100630
98242.7
98527.6
99199.3
99780.6
98595
98783.6
99481.7
98686.4
98913.3
100036
99897.5
99755.1
99720.1
99159.9
99140.6
97806.9
99650.3
103203
101265
100547
100289
99155.6
98991.5
100495
99005.7
98726.7
98173.7
98542.1
99104.4
99086.5
97797.9
79219.2
100668
99796.2
92406
78546.3
87715.4
100111
100727
99648.4
101840
100062
98867.7
100557
100716
98584.7
100180
99590.2
94025.3
100154
98733.2
99655.1
48453.4
101188
101165
101363
98852.2
99727.5
99256.1
99298.2
99287.2
99365.3
99336.5
98755.9
98492
97894.9
100672
99370.5
98733
100865
98881.7
98854.7
98127.5
99032.6
97543.5
98789.8
98167.1
98420
98685.3
98115.9
98730.3
98494.6
98697.8
100140
99131.4
99806.6
99125.4
98622.5
98533.3
100219
98977.7
98774.8
99026.9
100719
98919
98935.1
98799.2
98871.5
82907.4
98826.1
98953.3
98611.4
100080
98152.3
98285.8
98130.2
91899.2
99995.1
100729
98361.7
98666.2
98980.1
99792.4
101143
160975
98764.8
99620.6
98919.8
98952.7
98826
99850.7
99088.3
113907
117462
98268.3
100716
63487.9
126113
100597
98671.9
101068
98861.8
99249.8
99021.2
98731.6
103327
100728
100505
98681.7
98781.9
98576.7
98760.2
100205
100337
100761
100556
99184.3
99192.6
98423.6
99165.9
99496.6
99388.3
98247.1
98922
100360
100404
100189
98916
98725.9
100949
99215.7
100447
98746.3
98673.4
98320.6
98990.9
100511
98834
98692.6
98762.4
100458
99670.9
98700.9
100410
100309
100096
99101
99307.6
99034.4
99077.6
98927.7
139798
94299.8
98051.9
88457.7
99233.1
96126
98818.6
145093
98977.2
98983.4
98942.8
98788.6
99515.4
98570.6
98828.5
99202.2
98567.2
98695.6
99674.1
100446
99208.1
8124.8
24479.1
93503.2
100855
86526
28909.5
100207
100456
100220
99501.6
73890.9
99208.5
99617.9
102775
97787.6
98153.9
99361
99630.7
99262.9
98375.9
97952.1
98264.7
97619.3
97665.5
99636.7
100559
99550.3
99242.1
99570.4
99688.8
99164.2
100206
99057.9
99294.8
99568.6
99153
99436.2
99073.3
98553.8
100330
100145
100519
98717.6
98780.1
100570
98352.5
97733.4
100673
100670
99056.3
98606.7
98742
98752.7
98717.9
99009.3
98964.1
98998.7
100482
100595
139095
98637.6
98384.6
98944.9
100138
100399
100175
100549
100537
100769
99445.6
97746.1
98195.7
98502.6
100439
98519.8
98134.5
98251.5
99408.6
98686.5
100725
98600.9
98732.7
126267
99277.2
99247.4
98602.5
99545.3
100227
100244
100124
98891.5
99269.3
99187.2
98724.9
85381.2
98771.1
98952.1
98820.1
98773
98791.7
98575.5
101026
98567.5
98352
97743.2
98372.4
98747.9
97973.8
98594.4
120566
98624.9
100582
100481
100585
100555
99804.1
99318.9
101034
100354
100206
98631.1
100338
99303.6
99169.5
98805.1
98881.6
99169.7
100214
100397
99491.5
98797.2
100282
98391.5
89572.3
98762.9
99233.4
99094.6
100526
100683
98673.9
98530
100467
99782.1
100559
97686.4
98612.5
99605.2
100508
99515.2
99637.2
99597.2
100250
98642.1
95978.4
98666.5
100428
99026
99005.4
99026.4
99033.7
98877.7
99025.6
98914.4
100547
100371
100413
98176.4
98362.8
98509.5
98647.5
98556
38542.8
100747
100714
100571
98489.7
98491.1
100620
98612.5
98052.3
98725.9
100790
100737
98326.3
97556.5
98387.5
100659
100718
100684
100746
98583.9
99089.8
100434
98899
98841.3
98608.5
98496.3
100482
100605
100571
100610
98777.2
100463
98896
98923.7
98486.2
98854.4
100486
100331
100285
99107.3
100735
100416
98921.4
99157.7
100089
99208.8
99115.1
99039
99049
99156.3
99053.1
99034.8
98507
98339.1
98172.8
98718.6
100339
98438.5
99037.3
98816.6
99271.3
99171
99430.9
99212.1
100270
99055.9
98485.5
98767.3
99047.2
101250
99299.6
99068.6
99454.7
100009
100688
98875.4
99021.6
100678
99499.4
98777.8
99000.4
98990.1
98403.1
153921
98968.2
98274.4
99033.6
100364
100670
98139.5
98900.7
99746.2
100183
98393.5
98299.1
100207
99638.3
100476
99418.5
98385.5
98531
100450
100524
100121
103115
99469.7
100285
99169.2
98595.4
98627.7
100508
98662
99334.3
98697.4
100466
101207
102977
97188.7
100123
99271.3
98502.9
96242.7
99041.8
99112
101215
100148
119932
81414.5
98691.4
99474.4
97859.3
100595
126743
101066
96574.3
97692.1
101137
100421
98908.8
99467.9
100657
100670
99997.4
98354.7
99091.1
98560.4
99294.4
97325.4
97888.4
98650
99063
99853.2
98787.2
98979.7
98723.8
99337.9
98862.7
98281.2
98735.1
98878.5
100647
98306.5
100661
99450.1
101138
101102
100193
88544
98686.7
98962.9
98977.5
100299
98869.5
98908.7
98855.5
98858.4
99304.3
99044.5
98242.3
99297.3
99330.2
99178.2
98721.2
98634.7
99386.7
98576.7
100644
98621.8
98058.9
98355.2
98435.4
98806.6
98557.9
99083.9
99991.9
100021
101051
97955.5
98313
98142.7
98377.7
98602.9
98202.2
100521
100251
99890.3
100080
99966.3
98867.8
98713.4
98626.5
98003.1
98293.3
98191.8
100651
100660
100512
101093
99466.2
98070.3
98894.4
98054.8
98827.7
100399
99193.1
100297
100310
100264
100630
98415.9
100294
98457.6
100058
98803.6
98786.9
100558
99668.3
98632.5
100947
91424.7
99518.8
100660
98802.3
100534
100541
100637
100518
97901.4
99023.1
100505
100501
100679
98986.7
101179
99370.5
100539
98613.2
100726
98895.7
98944.4
99101
99061.2
98939
98981.1
98955
98509.2
98925.1
98279.4
99605.6
100047
99168.3
107666
100998
102276
100359
100371
100411
100388
100431
100468
99582.7
98854.3
100959
100390
99369.6
98854.6
98873.2
98706.8
98636
98821.3
98764.3
98554.3
98969
124769
98978.6
99046.6
100663
99006.2
100590
99247.1
99006
100665
98138.5
100557
98949.2
98754.3
100538
100571
99306.7
98917.2
99149.6
98794.9
99128.7
99179.5
99101.1
98753.2
100673
100590
90033.2
98742.3
98779.4
98832.8
99007.4
98987
96619.1
100708
98841.1
98885.5
98883.8
98861.4
96235.7
98656.3
98233.5
99140
100677
98342.2
97024.6
101082
89967.8
98493.8
101242
101133
98607.4
98556.8
98541.1
101321
101318
101299
100528
100511
100434
100539
99094.2
99096.1
99226.4
99735.7
100085
98935.4
98800
98085.9
98003.9
98196.8
98002.9
98163.4
98440.7
100712
100187
100676
100680
100621
100691
98378.2
100662
95966.9
100954
100612
100654
100732
99478.9
99428.3
98822.3
99864.3
98024.3
98696.1
129087
99577.5
98428
99449
100065
100695
99852.7
99833.8
100269
99774.9
99795.2
98761.8
99120.3
97467.3
100133
98866.9
98438.6
100801
98378.8
98347.7
99729.4
99227.2
100141
96695.8
98446.7
98425.5
98862.7
99460.1
99956
100648
101147
102309
98976.1
98706.7
99758.9
100643
99681.1
99069
99659
100447
100339
99214.4
101164
101278
101238
101364
100046
100417
99786.5
100129
98860.9
99098.7
98761.5
98160.8
100335
88510.1
97390.9
97994.4
97951.3
98311.8
127298
100655
99211.1
98316.8
98463
100224
98106.7
97706.3
99242.9
99178.1
98747.5
90534
98778.3
100541
98724.6
100340
97564.3
97630
100453
100699
100618
100647
99852.1
99053.5
98253.8
99592
98930
99241.5
98714.7
98931
98785
99038
98816
89434.6
98469.7
98977.1
99127.5
98534.9
98660.6
99008.5
100511
99817
100566
98076.9
98345.1
98276
98882.1
98330
98919.4
100320
99449.3
97423.4
97637.4
97559.5
99727.8
99986.3
99121.4
100674
97523.1
97638.8
100043
98323.1
99089
99954.7
99501.3
98924.2
98999.6
98401.6
98708.3
98022.8
98842.1
100323
98601.2
100668
99451.1
98641.1
98224.6
100770
100802
99492.5
99359.1
99522.5
82963.8
98757.7
99409.4
99041.7
100498
98796.3
99043.1
98966
100600
98680.5
98389.3
99066.7
100254
98697.5
98870.6
99591.6
98028.7
98352.1
98166
98531.4
98560.3
99703
100133
100930
98789.9
100712
98857.7
100735
100598
100508
100343
100730
98715.7
98718.2
98746.9
98717.5
98568
98576.5
99800.4
100880
99239.6
98911.7
101181
98777.3
99130.5
99229.7
98846.1
98834.2
98302.2
98321.2
98012.8
98418.7
99514.9
98109.8
98408.9
99698.4
100141
101318
99431.2
99425.3
100055
99040
97844.1
101055
98086.3
98459.8
100190
100028
99986.7
120574
100475
100696
98023.1
98813.9
100666
98898.9
98790.4
100424
98799.3
90701.4
98481.5
99500.7
97636.1
87218
100667
79805.9
100586
100920
100638
99612.2
99013.8
99419.5
99162.9
98417
97731
97687.3
99041.4
100630
98726.3
98709.6
100266
100310
99443.5
99697.2
100683
100223
98838.4
98907.5
98638.6
98526.2
100643
100663
100651
100667
97589.1
97618
100201
97671.9
97459.2
89917.7
100586
98493.7
98580
100588
99607.8
99458.4
99013.9
98600.6
99945.6
100521
100474
98914.6
98558.6
99154.4
98670.1
100201
99090.6
29769.6
99124.2
99156.5
99253.5
98725.1
98935.9
98664.5
100485
100771
98044.6
98604.4
98429.4
98668
98370.6
98519.1
98657.4
100660
100339
98700.8
98642.6
98989.8
49203.2
99587
98519.3
99340.9
99047.3
99016.6
98908.4
95677.6
98921
100028
98756.1
99948.4
99401
100665
100676
100672
99003
99101
100653
98956.4
98999.8
98723.9
98732.9
98784.1
98715.3
98810.3
98834.4
98668.4
98565.6
90486.4
107145
98478
98793
98421.7
98792.3
130556
98933.8
99700.2
99127.2
99812.4
100569
100622
98701.8
98660.8
99914.1
100397
100161
100692
99426.3
99294.1
123223
98706.9
100237
100571
100658
100162
100142
100097
101690
99919.3
99607.3
99878.7
98364.5
99004.3
97894.3
98603.5
98427.2
99255.9
97781.9
98892.1
98904.7
99168.2
99092.5
101172
97651.5
98328.9
99739.3
99198.9
100743
98663.1
99624.8
98909.1
98972.6
98510.1
98551.6
98853
98625.7
98542.2
99256.5
99137.8
100490
100580
103030
99191.1
100107
94933.1
100677
99809.9
99545.4
98770.3
98524.2
97923.1
89509.2
100653
100607
100573
100619
100623
99030.1
97396.6
98886
99524.9
98170.3
99505
97689.3
98942.4
100534
99148.5
99395.4
98686.5
99070.8
97024.6
99279.7
98126.1
98464.3
97748.3
98432.6
99912.2
99840
99053.8
100642
99533.6
99382.2
99346.7
99280.1
99615.7
98806.9
98875.1
100629
99501.6
100623
100238
100472
100215
101212
101210
100607
98893.5
98964.6
98830.4
100433
100375
100482
100227
100089
100058
100173
99877.2
99054.2
94184.1
49196.1
86445.7
100163
7746.54
61563.8
83465.9
99908
100195
103232
103230
128264
91297.9
93084.1
100717
100099
80212.4
99948.7
98816.8
98975.4
99223.8
99285.3
98529.8
98569.7
98898.4
100680
99005.9
98977.2
99011
100555
100561
99001
98527.9
100568
98806.3
97648.1
100552
100663
99708.5
99927
98975.3
99135.9
98878.2
98967.7
98448.7
98401.1
98683.8
99042.9
99241.6
99598.6
98882.3
98336.7
98302.5
98813.1
98812.8
98730.3
99054.2
100604
99083.6
99060.2
98757
98591.9
99566.8
98673.2
98777.2
98704.9
103036
103122
100828
112401
99857.7
98589.4
101117
101646
99108.8
85773
101446
99685
99398.6
100561
98467.2
98229.3
96232.4
99038.9
100110
101214
98889.6
100068
101305
100887
99664.4
99690.2
98950.5
99488.5
99043.6
98686.9
98729.4
98943.6
99028.3
98484.9
98636.6
98617.6
99152.6
100702
100611
92910.1
98276.8
98715.2
98737.9
98296
97854.6
98271.1
99545.2
98843.9
98666.1
98790.3
99063
100288
100391
100385
98697.4
98642.3
98390.2
98463.3
98488.7
100606
100544
100642
100697
100625
95841.1
95370.4
95809.8
88951.7
97481.5
97878.2
100137
100229
100019
99358.6
99303.2
98917.7
98777.7
99212.4
98545.8
97984.6
98130.1
98356.4
100390
100656
98077.7
99184.4
73660
100685
98866.6
100378
100645
99911.2
100655
98931.8
100236
99729.9
98634.6
99115
98525.2
98566.8
99906.1
98379.2
98757.8
98345
98163
98998
98829.1
99668.7
98699.1
101314
99436.3
100596
100528
99081.9
99561.8
99296.3
99314.1
98691.1
98758.4
98777.6
99214.2
100670
98494.3
98284.9
98927.4
99564.7
99665.4
100229
99823.2
94274.1
99149.8
99192.7
99043.2
98826.1
99075.1
99269.6
100246
100201
98956.4
98730.4
100633
100619
99336.7
100116
100067
99179.6
99166.1
99139
99474.3
99151.4
98992.7
99023.2
98285
99097.5
99108.7
98307.9
98524.9
98657
98752.2
79393.4
98742.1
76478.9
100551
99216.8
98839.4
98481.4
99502.5
100624
99518.1
100470
98795.5
99027.4
100398
98936.5
98998.8
100685
100466
100473
99365.4
99022.3
99622.2
99029.8
99679.6
100711
100619
100411
100704
100672
102206
100676
98477.8
99544.6
99772
98679.2
100471
98579.5
100578
98905.2
98895.6
98849
99995
99875.4
100164
99033.3
100373
97686.9
97819.5
99038.9
99048.4
97956.2
97895.6
97808.1
97814.1
97878.5
98159.3
98605.3
98380.3
98834
98688
97456.4
100116
100388
100438
100436
101407
98623.5
122588
100281
98459.3
97925.4
97841.7
97633.2
100634
97749.7
98961.3
100238
100649
98259
97898.1
98637.5
98562.2
98937.5
99737.4
101019
100750
101343
101384
101279
101323
100374
98670.9
98703.5
98259.2
98963.7
98679.7
100671
100486
100203
123945
99363.8
99504.4
98595.1
99457.9
98537.6
100677
100656
100670
89289.1
89268.9
100514
100683
99477.5
99538.2
98852.4
99103.9
98829.3
98619.8
98664
100549
99541.2
98949.3
98669.8
98679.8
100696
98736.4
98995.6
99067.5
99185.8
100656
98853.7
98825.7
98913
98843.7
99343.9
97387.5
99968.9
99992.9
88904.8
100468
101094
100536
93468.7
119296
99912.3
99897.2
100555
98636.4
98270.3
98460.9
98206.9
100702
100327
99271.9
98803.6
99512.6
99522.2
98606.7
99327.8
99479.6
98697
98856.2
98922.6
98922.5
100145
98756.2
98893
98765.7
98175.1
100465
100464
100470
97898.4
98023
98262.4
99103.3
99121.4
100584
98504.6
91552.9
94219.8
98941.8
98904.9
98929.4
98919.3
99434.1
99191.1
116210
92304.4
99584
99092.8
98272.7
100103
98908.3
99176.3
99348.2
98808.2
98620.1
99737.2
98964.8
100231
98708.5
98702.6
100426
97900.6
98449
97905.6
97739.3
98221
98268.2
98876.9
101275
101267
99690
99336.3
101238
100616
100541
98859.5
100275
100388
100688
101602
100908
121206
98484.5
98357.4
98969.9
99167.8
100346
99706.4
98855.5
98882.4
100613
97887.2
100111
98654.6
98361.5
99539.1
99031.9
99278
99422.4
99718.7
100458
100545
99057.1
99010.4
101314
99136.9
98824.1
118623
86638.1
101188
101308
100564
100894
100858
100269
99968.1
98803.5
99100.1
98868.3
98796.6
98807.4
98616.9
98612.2
99893.7
98707.7
100027
98628.4
98708.2
99040.3
108153
98926.6
95288.9
98639.8
98948.7
99293.5
98613.5
98873.2
98392.4
98998.5
98786.7
100190
100383
98973
98373.2
98003.4
98187.3
100517
100554
100593
100703
100557
100504
100500
99126.1
99859.7
100688
98640
100543
99864.4
100660
98677.4
98146.3
98953.8
98247.2
99046.6
98741.1
100572
100643
99868.6
99073
99976.6
98293.1
98030.1
98199.6
98784.2
98108.8
97665.7
97351.9
98148.7
98165.6
100149
97786.8
97330
98143.6
98119.7
100338
98000.7
99785
99789.3
97351.2
98629
98330.5
98120
98571.1
98357.2
98146.9
98592.3
98615
100503
98492.5
98685.2
98944.5
98182.4
98519.1
99960.9
99081.5
98532.6
98602.4
98847.2
98448.5
98796
98709.4
98568.8
98779.1
100198
98421.1
98754.2
98769.1
98195.1
97682.4
98227.7
99071.7
98928.6
98690.7
101082
98662.4
100757
100557
98989.3
99057.3
99024.5
97639.7
98654.8
98641.5
98897.5
98719.7
99029.5
98742.4
98876.9
98632.8
98803.3
98666.2
99299.7
98489.3
100442
99005.6
99176
98849.1
99069.1
98790.6
98855.7
99574.4
99155.4
99254.6
99330.4
99007.4
98900.9
100670
97739.9
132490
98555.4
98725
99553.6
99107.8
98865.9
98920.8
98922.5
98390.9
98204.5
98165.9
98876.9
101260
99098.3
99076.2
99110.3
98960.8
98645.7
99008.8
100001
127959
147288
99682.6
99301.9
99687.8
77256.3
100760
100242
100322
100467
99450.2
100813
100642
100886
99494.1
98924.3
98790.2
100436
100426
98851.1
100347
100194
100316
100620
98772.8
98238.8
98864.9
98531.6
99142.4
98678
98633.2
79210.7
98843.5
100533
100342
100380
99552.4
99387.2
100191
100135
100722
99074.4
100228
100295
100328
100238
100665
99773
101922
100317
98678.2
98720.8
100602
100598
100593
100299
100256
93654.4
100648
100554
91998.4
100703
100479
100582
98799.1
98746.8
98587.1
98897
98869.7
98883.7
98867.3
98425.2
98385.8
99794.9
99763.4
99622.2
99393.7
98712.8
96815.7
101263
98727.6
100640
100211
100106
98956.1
98391.3
98103.6
98666.1
98331.7
99378.8
95428.2
99345.8
99314.8
98964.2
99023.1
99358.6
99330.1
100650
99062.2
100634
100564
98842.2
99003.8
98957.5
98787.6
98906.3
100644
99684.9
100354
99651.1
101298
98932.3
99670.7
99672.2
98372.9
99678
98753
98663.7
98692.6
98756.7
98743.1
99256.1
98982.2
99385.5
99071.5
98973
98960.9
98948.6
98851.2
100587
100676
100634
100598
100641
99793.8
100618
100698
98592.1
77872.1
98981
98998.5
100358
100170
98981.3
99226.5
91556.5
98987.4
98107.1
118516
100385
99522.1
100742
100779
98207.7
98253.3
75621.8
127125
99313.4
99270.5
99387.1
99314.3
97938
97844.6
98406.9
100621
98638.2
98631.9
98065.3
98695.3
98671.8
98665.4
98805.4
99069.3
99142.3
98301.8
98922.7
98416.2
98824.9
98552.6
98961
98431.7
100642
100415
97991.2
98619.9
98679.4
98716
98450.6
98144.1
98434.3
99164.9
100434
98641.8
98823.8
101183
98908.4
98735.2
98720.9
98267.4
97991.9
98965.4
100554
100721
100803
99801.3
101338
100498
101497
97564.1
98392.3
98728.1
98736.3
111704
97676.3
85949.6
100366
86566.6
99892.4
120280
128171
97847.5
98616.1
102056
98707.8
98677.4
98577.2
99115.2
100658
100416
99321.3
99306.5
100465
99184.2
98899.4
100277
100684
100661
98665.4
98650
100653
97298.6
97420.9
97329.1
97282
97372.7
97353.1
100693
97363.6
99078.9
100673
99644.4
100645
100597
100670
99628.7
100666
99723
99473.3
100310
98835.1
100605
99499.5
99800.6
99837.1
99553.3
85727
100699
100656
100334
100007
100839
99888.9
100117
99546.1
98953.1
98923.9
100628
100362
100333
99307.2
98767
100626
98875.6
98701.7
98805.9
98574.2
99006.3
98982.7
98977.2
100412
99045.4
98757
98637.7
100462
100477
98679.8
97673.5
98517.2
118676
98448
98329.5
98503.4
101363
100398
101708
101375
98975.7
98336.7
98956.3
98244
98753.8
98560.6
98145
98367.9
98333.7
98390.4
98438.3
99556.1
99132.7
100092
98824.5
98813.4
98964.9
98949
98873.5
98874.6
98538.3
99067.5
100597
100561
99429.4
101281
99450.1
98749.6
111878
100769
99405.6
100950
99682.1
98992.1
99220.1
99126
99443.9
99765.4
100534
97719.4
74232.2
128617
100382
100630
85549.6
97634.4
98331.6
97550.1
75694.4
98254.4
99027.2
98970
100559
98559.2
100105
101143
98744
98512
98367.4
98418.3
98533.4
98365.1
97227.1
99560.1
98721.5
99384.9
98556.1
100706
98586.4
100070
98632.6
98809.8
98828.8
98828.8
98614
98923
100700
100656
98830.3
98762.1
98724.6
98628.9
98564.2
100867
99925.5
99945.7
99849.6
99890.2
98950.6
98665.5
98993.3
99022.1
98965.3
98671.8
98715.1
98619.9
98676.1
99008.8
99967
101008
100031
100672
100279
98325
98284.4
97958.5
98623.1
99516.3
99236
98127.8
98539.1
98673.3
98678.4
100776
104467
97561.1
103454
98151.7
97437.3
98194.5
98141.6
98442.2
97992.7
98209.5
100312
100672
100612
98396.1
97718.4
98204.9
98704.2
100616
100308
98763
99053.3
98972.9
100661
100671
98356.3
98914.8
100720
101278
98951.1
101284
98707.3
98686
99291
99386.7
98697
98725.5
98790.8
99685
98566.9
100422
80472.1
98697.3
98694.3
99260.4
89499.5
101185
98977.8
100024
99289.4
98997.6
98661.9
98736.1
98937.1
98475.5
98799.7
98989.1
98630.2
98619.1
98522.5
100649
100233
100006
98871.5
100018
100127
99065.3
98726.7
98956.6
100476
98896.9
100494
99191.7
99643.1
98556.9
98844.2
98983.4
119357
98097.4
97898.9
99056.7
98794.6
98997.3
98877
98892.7
100120
121329
98791.2
120768
100929
100923
99477.8
99412.6
99274.3
99696.3
99393.8
99365
99350.9
97915.1
99425.9
99109.9
98623.6
98662.7
100636
98964
100705
93975.1
99080.4
99906.9
99904.8
98827.5
99001.8
98667
98758.6
100037
98819.1
98985.9
99865.4
100641
100773
100220
100080
99126.6
98623.5
98647.5
98921.6
98815.9
100487
100585
100572
100608
100483
64517.6
100513
100606
100555
98995.5
98565.8
98548
98513.4
98585.3
98659.6
98562.8
99193.6
100121
99034.9
98583.4
98682.1
99361.3
99241.9
100648
98478.5
100448
98609.7
100562
97964.3
118152
96642.8
98564.8
98216.5
98606.6
98206.5
100950
101295
54987.8
90598.3
92067.4
97573.1
100310
100640
100232
100629
100335
100361
100410
97727.9
97465.3
97514.9
98672.3
98758.3
98718.5
100190
99013.7
99171
98726.8
98396.9
98707.4
98952.5
98855
98929.6
100543
100543
100445
100418
100419
99285.5
99125.8
99354.5
98601.8
98780.5
98790.6
100240
100590
100566
100467
100372
100512
100589
99401.1
100819
66588.1
99729.3
100344
100169
93098.7
101179
100376
100745
75516.8
100036
98492.9
98398.5
98466.2
101257
98914.5
98894.7
101290
29502.7
99551.6
41811.2
99108.4
94849.2
131240
99168.4
99878.3
99786.1
99732.6
99581
99602.8
97897.7
98830.7
122701
98831.6
98829.5
98866.6
99349.8
99062.5
99122.5
99343.9
99729.2
100489
100472
100403
98185.2
90560.6
89414.3
98427.6
100557
100566
100487
100514
85898.5
76656.1
99972.2
99922.1
98978.1
143200
100357
98979.7
100094
100348
98663.9
98643.3
98996.6
99067.3
99150.2
98694.5
98617.8
97974.5
98730.5
98478.2
98959
98879.5
98853
100224
118165
99087.4
126086
126778
98562.7
98746.6
98865.4
99490.2
99275.9
96964.7
103542
97525.2
126235
100641
100626
98776.7
98699.4
100716
100099
100004
100212
99038.9
99610.1
98445.6
98671.7
99134.8
100640
99656
100662
97869.6
119218
101319
100157
100270
99276.5
99282.6
98847
98836.2
98241.6
98702.8
98673.4
98670.4
100618
100436
98765.5
98851.8
100576
100420
99072.2
99093.1
99064.7
99518.1
100340
99302.6
100071
98450.7
99094.1
99041.4
99001.6
99034.7
98731
98609.9
98895.3
98941.2
98497.5
98982.7
100479
99824.9
98670.2
99013.7
98327.6
97711.4
100259
100017
100538
100560
99912.9
100447
100403
99512.5
99561.5
98883.4
99978.1
99059.6
98941.5
98993.8
98593.1
98637.7
98787.4
98272.1
98735.9
98835.5
98942.1
99975.7
98964.7
99149.9
100456
100331
99937
100883
100081
98950
99137.3
97503.2
98636.4
98046.4
98717.8
98994.8
100214
99595.9
98328.5
100088
99223.7
99078.3
97882
98035.4
98191.3
98001
98454
98246.8
98649.7
98562
97868.5
98973.2
99653.5
100541
100459
99243.9
98701.2
99944.2
98525.2
98411.8
98284.3
98435.8
100852
101151
100569
98621.9
98869
98465.2
98524.6
98073.3
97914.4
99034
98835.8
98500.5
120554
100072
98590.2
98240.7
101285
100685
100725
100340
100041
99792.4
100039
100728
98863.8
100718
98549.7
100947
100572
100469
118652
108554
111612
97355.8
98831.9
100083
98690.8
98546.7
98044.3
97779.9
98870.5
98896.4
100626
97950.2
98184.9
100166
98607.1
100609
100680
100617
100078
99301
99038.4
97642.8
99689.6
100061
99599.6
99131
97467.5
100416
97480.5
97425.6
97734.8
97653
99758.3
98914
98500.5
99844.7
128366
119697
174001
100652
100697
98043.8
98869.8
100554
100553
98108.8
98874.4
97878.2
104107
98395.3
98472.7
99138.2
187328
98541.7
98827.7
147036
99743.6
99746.2
100616
100678
99118.1
90213.3
99149.7
86232.8
100545
99655.7
100674
100647
90189.1
100546
100005
100200
100305
100168
98448.9
98722.5
98695.5
100662
100619
126138
99097.9
100609
100080
100714
98621.3
99135.1
99008
119351
97543
98297.2
98848.8
100499
100636
100651
98314.7
98935.8
98808
98204.9
98021.4
101170
98767.5
99678.5
98739.8
98783.5
98878.1
99091.6
98958.8
95522.4
97914.8
100098
101157
98828.8
98778.7
98744.7
98226.7
98848.1
98583.4
98306.9
85878.7
98252.3
98659.6
98491.8
100707
100748
98388.7
98687.4
101264
100693
100699
99076.1
98981.7
97415.8
97422.7
91393.3
97526.6
97805.5
97898.3
98783.2
97891.4
99229.7
98687.6
66067.9
100332
98999
98085.7
99296.2
99083.5
99594.3
98550.8
100377
100312
100676
100421
98394.5
100595
99372.1
100705
100680
100623
100455
99550.3
98353.1
98413.2
99210.5
98944.9
98288.3
99307.7
98413.9
98320.5
98461.3
97685.8
100534
100376
98271.1
98610.3
98525.7
90304.4
99009.3
97697
99335.8
98766.9
98748.1
98755.2
98720.1
98966.3
98768.2
97758
97662.4
100003
100004
99802.1
98877.8
98790.4
98008
100651
100283
100558
98714.3
99571.5
100533
99458.8
99617.7
99976.3
100428
113290
99137.4
99476.8
100127
99878.4
150575
99753.7
100005
99927
99891.1
99950.1
97689.2
99788
98856.8
98969.9
98893.8
99026.9
98974.4
98088.8
98195
98472.4
98812.1
99288.8
98815.9
99049.7
98478.8
98391.1
100903
97342.7
99447.3
101030
98913.6
98876.9
101068
100599
100615
98871.5
98810.8
99860.2
99770.5
99827.2
99854.6
99913.3
98819
98019.8
98856.3
97855.3
98772.6
92149.4
98703.8
98140.7
98687.3
98321.4
85985.8
98925.6
100635
97940
98761.1
98900.5
98554.6
98236.2
98873.4
99563.6
98236.5
98328.1
100617
100737
100701
98903.4
100561
98926.4
98956.8
99955.3
99313.1
100020
100653
100378
98496.6
98780.3
98527.5
99307.9
98694.8
99051
99111.8
99256.6
99002.4
98979.6
98987.2
98991.5
100579
100593
100596
100658
100586
100131
100238
98706.5
100676
100685
100678
100678
100676
99436.5
99381
99370.3
99720.3
99681.1
98819.6
98924.1
99897.4
104168
100406
98866
99793.5
98927.6
100448
98460.8
98656.8
100668
98986.8
98946.1
99342
98340.5
98314.5
98753.4
97607.6
97027.2
99117.7
100841
98344.9
98787
99168.3
98836.4
98606.6
98683.5
98463.8
98406.9
99017.3
98538.5
98577.7
98941.6
98815.6
98144.9
98062.1
98424.2
98322.2
98434.1
98382.6
98405.3
97847.3
100280
100276
98017.7
100552
100568
100692
100550
100544
98621.1
99599.6
98781
98735.8
98308.8
98558.2
99201.2
98376.6
94372.6
98660.6
100683
98844.3
98753.6
98899.9
98704.2
100350
100445
100579
100712
100293
100470
100236
100223
100074
99032.3
99149.9
99134.4
99045.5
98381
98365.4
98445.2
98433
98396.9
97566.9
98429.3
98714.3
99362.7
98867
98511.1
99176.3
99423.4
100537
99524.5
99392.3
98967.9
99087.2
98302.6
100536
100172
98977.6
100383
100520
98020.7
98806.1
99091.9
98682.8
97168.8
98925.8
98729.6
98521.3
99161.5
98702.5
98412.3
97604.6
98641.3
100678
99802.6
98865.6
135758
100490
125466
100669
100243
99074.3
100659
100388
98269.7
99013.9
7780.98
76623.1
110381
79115.4
100468
100518
97205.9
124030
131657
99627.9
94688.4
98528.1
98803.7
87748.1
98662.1
126493
98167.1
99743.8
98869
100616
98840
98985.8
99096.1
99487.9
98768.1
98468.5
97798.4
98275.1
97853.5
86616.8
100601
100606
98117.8
100568
88922.8
135419
99991
99006.3
98957.1
100620
99899.3
98414.1
99093.8
99896.5
98965.6
98791.9
99798.7
98561.9
98980.8
98862.9
101026
101199
101351
101302
101246
99513.1
99740.8
98131.7
96436.1
99513.8
100082
99208.6
99607.3
99274.9
99555.6
98655.1
98530.6
99099.6
99430.9
99601.8
)
;

boundaryField
{
    Inlet
    {
        type            calculated;
        value           nonuniform List<scalar> 0();
    }
    Outlet
    {
        type            calculated;
        value           nonuniform List<scalar> 
26
(
100682
100682
100682
100682
100682
100682
100682
100682
100682
100682
100682
100682
100682
100682
100682
100682
100682
100682
100682
100682
100682
100682
100682
100682
100682
100643
)
;
    }
    Symmetric
    {
        type            symmetry;
    }
    Wall
    {
        type            calculated;
        value           nonuniform List<scalar> 
217
(
100653
100515
100333
100135
99913.1
99670.9
99450.3
99269.5
99108
99003.2
98897.1
98835.3
98824.3
98702
98583.7
98609.9
98702.1
98844.4
98961.1
98955.9
98992.3
99361.4
99889.1
100295
100508
100609
100650
100673
100665
100674
100683
100528
100374
100124
99892.4
99700.3
99538.2
99358.6
99199.3
99001.8
98941.9
98894.4
98777.2
98864.9
98780.1
98707.8
98758.4
98854.4
98986
98997.3
98977.1
99294.1
99893.7
100309
100518
100608
100658
100706
100696
100581
100588
100561
100416
100426
100383
100227
100238
100220
100017
100028
99994.6
99794.9
99800.6
99785.6
99574.1
99562
99525.4
99386.4
99364
99341.4
99226
99187.4
99171.5
99100.7
99051.2
99100.4
98998.4
98941.6
98896.2
98952.4
98855.7
98826.5
98961
98827.7
98944.5
98923.6
98773
98678.6
98746
98617.3
98642.3
98668.1
98575.7
98627
98727.8
98645.9
98661.3
98852.7
98765.7
98865.4
98972.9
98909.3
98924.3
98952.8
98973.2
98960.3
98860.6
98952.6
98955.6
99137.5
99127.4
99257
99736.9
99622.4
99795.4
100218
100117
100238
100482
100420
100477
100583
100566
100585
100643
100633
100645
100637
100737
100507
100617
100298
100445
100111
100260
99884
100009
99610.7
99780.7
99429.9
99630.7
99257.1
99450.1
99096.6
99280.8
99043
99110.3
98977
98975.7
98948.5
98904.9
98942.2
98813.4
98678.8
98818.6
98624
98823.8
98741.5
98735.8
98736.8
98713.8
98926.9
98810.3
98992.2
98933.8
98907.9
99000
98955.9
98956.8
99516.8
99088.3
100038
99598.5
100385
100131
100542
100434
100619
100571
100663
100637
100647