/*--------------------------------*- C++ -*----------------------------------*\
| =========                 |                                                 |
| \\      /  F ield         | OpenFOAM: The Open Source CFD Toolbox           |
|  \\    /   O peration     | Version:  v2006                                 |
|   \\  /    A nd           | Website:  www.openfoam.com                      |
|    \\/     M anipulation  |                                                 |
\*---------------------------------------------------------------------------*/
FoamFile
{
    version     2.0;
    format      ascii;
    class       surfaceScalarField;
    location    "0.02";
    object      phi;
}
// * * * * * * * * * * * * * * * * * * * * * * * * * * * * * * * * * * * * * //

dimensions      [0 3 -1 0 0 0 0];
oriented        oriented;


internalField   nonuniform List<scalar> 
5860
(
3.99075e-08
1.32546e-08
-5.31621e-08
-1.30225e-07
1.80477e-07
-2.70976e-07
2.20725e-07
-1.42569e-07
1.48365e-07
-5.79574e-09
-1.49404e-08
4.92052e-09
5.03779e-07
-4.93759e-07
5.23512e-08
2.76316e-07
-3.28667e-07
1.43289e-07
8.40186e-08
-7.84795e-08
-1.48828e-07
1.11243e-07
3.67649e-08
-1.48007e-07
-1.60738e-07
-1.19298e-07
1.71477e-07
1.08559e-07
-1.14849e-07
1.16729e-08
1.03176e-07
3.97083e-08
1.06597e-07
-1.03548e-07
-4.27574e-08
3.85055e-07
-9.52997e-07
5.67942e-07
1.10151e-07
-7.04429e-08
8.01806e-09
9.85789e-08
3.32048e-09
4.77764e-07
3.4491e-07
-3.68834e-07
-4.5384e-07
7.38901e-08
4.03874e-07
-1.8768e-07
5.55352e-07
-3.67672e-07
-3.72938e-07
4.81799e-07
-1.08861e-07
3.30276e-08
1.76594e-07
-2.09621e-07
-1.57798e-07
-1.00628e-08
1.67861e-07
6.93764e-08
1.77585e-08
-1.20331e-08
-7.51019e-08
-1.41122e-08
8.38053e-08
-6.96931e-08
-1.32188e-07
-1.08794e-07
8.92369e-08
1.51745e-07
-5.12477e-08
-7.99185e-07
8.50432e-07
2.75469e-06
-2.74813e-06
-6.56389e-09
-5.92969e-08
-5.00043e-07
5.63262e-08
5.03013e-07
-9.24495e-08
7.17833e-08
2.06662e-08
-2.47216e-06
-5.54912e-09
2.47771e-06
-1.6325e-07
3.10623e-08
-1.21187e-07
1.23926e-08
-1.28319e-07
7.57106e-07
-3.17858e-07
-4.39248e-07
-1.96069e-07
4.8736e-07
-2.91291e-07
8.62618e-08
1.3649e-07
-2.22751e-07
-1.32998e-06
1.31408e-06
1.59091e-08
7.8724e-07
-2.26205e-07
5.46554e-07
2.40686e-07
1.82592e-09
-1.82592e-09
1.34994e-06
-1.33785e-06
-3.01577e-08
1.80656e-08
1.09384e-07
-9.6597e-08
-5.88838e-09
-6.899e-09
1.37626e-06
-2.63142e-08
-2.88116e-06
3.24693e-06
1.36809e-07
3.85059e-07
-5.21867e-07
3.78472e-07
-3.9294e-07
1.44679e-08
2.59438e-07
-7.35293e-07
4.75855e-07
1.35062e-06
-2.30918e-08
-1.32753e-06
5.49873e-07
-6.69858e-08
-4.82887e-07
2.12093e-08
-2.85723e-06
2.83602e-06
1.27713e-08
-1.06326e-07
6.82194e-07
-5.75868e-07
-4.71381e-07
1.36712e-07
3.3467e-07
-2.61477e-07
-7.6084e-07
1.02232e-06
-1.38248e-07
8.69001e-07
-3.3141e-08
6.53772e-09
2.66033e-08
-3.06898e-07
3.3877e-07
-9.84869e-07
-3.48382e-06
3.0813e-08
-2.94666e-08
-1.34637e-09
-4.28553e-08
-1.28416e-07
1.71271e-07
-6.32443e-09
2.21445e-07
-2.14848e-07
-2.73213e-10
-7.52975e-09
7.52975e-09
-1.08156e-07
-2.15833e-09
1.10344e-07
-2.96194e-11
4.45632e-07
-1.48168e-07
-2.97463e-07
4.11782e-08
-2.76973e-07
2.35795e-07
-2.95095e-07
1.20155e-07
1.7494e-07
5.85178e-08
-4.24036e-08
-1.73913e-07
-1.09e-09
-4.41133e-10
1.86035e-07
-1.84504e-07
2.85563e-07
7.92539e-09
-2.93488e-07
1.23869e-07
-3.66027e-09
-1.2261e-07
2.40129e-09
-3.84757e-07
4.25935e-07
4.73541e-08
-7.72858e-08
2.99316e-08
6.89417e-07
2.64875e-07
-6.94854e-07
7.38398e-08
-6.85611e-09
-6.69837e-08
1.21726e-09
-4.33693e-08
4.2152e-08
8.75987e-08
8.56535e-08
-1.73252e-07
4.5609e-07
-4.49136e-07
-2.86678e-08
2.17135e-08
1.30302e-08
-5.17636e-08
3.87335e-08
-3.20289e-07
3.78472e-07
-5.81834e-08
3.3083e-07
2.40681e-07
-5.7151e-07
1.23687e-08
-1.23687e-08
-2.40831e-07
6.3497e-08
-4.91043e-08
2.26438e-07
-1.34548e-07
4.32028e-07
-2.9748e-07
8.73534e-08
-1.35136e-08
-1.05051e-09
1.93608e-08
3.17307e-09
-2.14834e-08
-4.14838e-07
5.71162e-08
3.57722e-07
3.37611e-07
1.93871e-08
-3.56998e-07
4.98962e-08
-4.48992e-07
-5.51501e-08
4.54246e-07
8.38086e-09
-3.15167e-07
-1.13561e-08
3.18143e-07
-1.56344e-07
9.11225e-08
6.52215e-08
-4.48374e-08
6.90141e-07
-6.45304e-07
-7.78195e-08
5.66853e-08
2.11342e-08
-5.76964e-07
5.08443e-07
6.85207e-08
-1.91548e-09
-4.18696e-09
5.25526e-09
8.47164e-10
9.09195e-09
-3.52758e-10
-8.73921e-09
-1.30803e-09
1.68296e-08
-1.55216e-08
-4.90193e-07
4.23786e-07
6.64069e-08
-1.84282e-07
1.91478e-07
-6.74022e-08
6.02063e-08
-5.5824e-08
-4.85617e-07
3.19817e-07
-2.36025e-08
-2.96215e-07
-4.21353e-07
4.53382e-07
-3.20291e-08
-4.14515e-07
-5.84125e-08
4.72927e-07
3.42337e-08
-1.2509e-06
1.21667e-06
8.91085e-08
-7.61548e-08
-1.29537e-08
4.34566e-07
-4.26186e-07
1.93162e-07
-5.86817e-07
-1.87181e-07
5.80836e-07
1.6253e-07
-1.51565e-07
-1.0965e-08
-3.09846e-07
-7.02465e-09
3.16871e-07
-4.62006e-07
1.04805e-07
3.57201e-07
-9.94946e-09
1.15592e-08
-1.60971e-09
-3.55922e-07
-7.31495e-08
4.29072e-07
2.60462e-07
-3.60612e-07
1.0015e-07
2.13718e-07
-2.42472e-07
-2.04304e-07
2.33057e-07
-1.54041e-08
1.5404e-08
3.69812e-07
-4.0784e-07
3.80285e-08
-9.97933e-09
4.62296e-08
-1.81253e-07
2.23459e-07
-2.4196e-07
1.99754e-07
1.34336e-07
-2.69847e-07
2.89514e-07
-1.54003e-07
5.191e-07
-8.61645e-08
-4.32936e-07
7.03703e-08
-1.21096e-08
-5.70435e-08
1.06068e-07
-1.13658e-07
7.58984e-09
-5.8043e-07
4.34629e-07
1.45801e-07
1.52065e-07
-8.72294e-08
-6.48358e-08
-1.7356e-08
-1.11494e-09
1.8471e-08
-1.17088e-07
1.18246e-07
-8.14272e-10
-3.44339e-10
7.88594e-09
1.04977e-07
-1.32906e-08
2.9983e-09
-1.20432e-07
3.45498e-10
-2.60386e-07
-3.8814e-09
2.63391e-07
8.76528e-10
-5.63489e-09
2.53951e-07
-2.48316e-07
-2.58344e-08
2.58344e-08
3.11959e-08
-3.23272e-09
-2.79632e-08
3.04687e-07
4.9504e-09
-3.09637e-07
-2.49761e-07
2.50921e-07
1.8379e-09
2.92306e-08
-3.03013e-07
2.73783e-07
-7.83231e-08
2.89165e-07
-2.10841e-07
-9.32657e-08
-2.94831e-07
3.88097e-07
-7.54702e-09
-4.33375e-08
3.97544e-08
1.11302e-08
3.05017e-07
1.92437e-08
-3.02284e-07
-2.19764e-08
3.60192e-09
-8.92707e-08
8.96137e-08
-3.94462e-09
-8.76309e-08
-1.10077e-08
9.86384e-08
-4.18688e-08
-4.06625e-07
4.48358e-08
4.03658e-07
-6.96528e-08
-2.6514e-07
2.39186e-07
2.59539e-08
-2.22899e-07
2.20948e-08
2.00805e-07
-4.5759e-07
4.58342e-07
-7.51984e-10
1.90632e-08
-4.30781e-07
4.11717e-07
-5.15749e-07
7.08911e-07
9.52533e-09
9.08582e-08
-1.11501e-08
-2.79571e-07
2.90721e-07
2.69625e-07
6.23834e-08
-3.32009e-07
-2.85665e-07
-3.8055e-07
6.66215e-07
2.86522e-07
-3.25774e-07
3.92526e-08
-1.79231e-08
2.91114e-09
-1.1595e-06
1.19688e-06
-4.02855e-08
4.47315e-07
-4.44404e-07
-3.35026e-08
1.93904e-08
1.29175e-07
1.06109e-07
-1.19432e-07
-1.15853e-07
-1.37369e-07
9.99879e-08
5.65374e-08
6.16421e-07
-6.72959e-07
-5.30963e-08
9.1519e-07
-8.62093e-07
-4.6421e-07
1.00299e-07
3.63911e-07
-2.87155e-07
-6.62064e-10
-3.47054e-09
2.91288e-07
1.82429e-07
-3.05818e-07
1.23389e-07
2.33331e-06
-2.33331e-06
8.80873e-09
1.50503e-07
-1.59312e-07
1.20957e-07
2.91097e-08
-1.41258e-07
3.04648e-08
9.04926e-08
1.27046e-06
-1.24135e-06
5.80892e-09
1.29512e-06
-3.97626e-07
8.83835e-08
3.09243e-07
3.36866e-08
3.86795e-08
-7.23661e-08
-8.83825e-08
4.18538e-08
8.02155e-08
-2.78241e-07
8.96293e-08
2.7621e-07
1.11953e-07
-3.63734e-07
2.51781e-07
2.23186e-07
-2.37406e-07
1.42201e-08
-1.28611e-07
-7.27674e-08
4.91663e-08
1.52212e-07
1.50393e-09
-3.41943e-09
1.82526e-07
-1.78553e-07
-3.09492e-08
2.69759e-08
-2.83075e-08
2.83075e-08
-5.06477e-08
1.83144e-07
-1.32497e-07
1.20491e-07
-1.62597e-07
4.2107e-08
1.17585e-08
2.54262e-07
-2.12449e-08
-2.44776e-07
-8.91738e-08
-1.4374e-08
-2.86215e-06
1.31135e-07
-2.49349e-07
1.18214e-07
1.25242e-07
-4.83157e-07
3.57916e-07
1.19368e-10
-3.48994e-10
-1.20202e-07
3.88967e-08
-3.45788e-07
3.06891e-07
9.50808e-09
-2.86111e-07
2.76603e-07
4.82378e-09
-2.48357e-07
2.53041e-07
-5.7211e-09
2.69325e-08
-2.88013e-07
2.90007e-07
-2.89256e-08
6.78525e-07
-1.82927e-07
-4.95598e-07
-4.00755e-07
-1.86062e-07
-2.07877e-08
-5.34433e-09
2.61321e-08
-2.5719e-07
1.16139e-08
2.45576e-07
1.12593e-08
3.3999e-07
-3.5125e-07
-2.46088e-07
2.12084e-07
-2.71541e-07
5.71178e-07
-2.99638e-07
-4.13869e-07
-8.92906e-08
5.0316e-07
-1.92773e-07
6.25482e-08
-1.46109e-09
3.27416e-08
-3.12805e-08
-1.3218e-08
5.96155e-09
4.11678e-09
3.13964e-09
-2.3073e-08
-5.08177e-08
2.40547e-08
2.6763e-08
-3.07923e-07
4.57368e-07
-1.49445e-07
-8.82885e-08
-2.50384e-07
1.14591e-07
2.24081e-07
-1.42809e-07
6.43442e-08
1.33384e-07
-5.492e-08
3.66693e-11
-1.87663e-07
1.90211e-07
-2.58489e-09
-9.14945e-08
-4.3147e-07
5.22965e-07
3.10499e-07
-5.81233e-09
4.05218e-08
-3.55513e-07
-2.33946e-08
3.38385e-07
6.27632e-07
-3.67153e-07
-2.60479e-07
-6.00418e-08
-2.10208e-08
8.10627e-08
5.75612e-08
-1.14848e-07
5.72865e-08
-3.15228e-07
-3.38648e-07
3.63313e-07
2.90563e-07
-9.38985e-08
-4.15782e-08
4.78458e-08
-6.8523e-08
-2.53754e-08
1.0162e-07
-1.12582e-07
-8.93062e-08
2.54355e-07
-1.4384e-07
-8.77351e-07
6.68316e-07
-6.36196e-07
8.4523e-07
-7.74061e-09
3.45351e-07
2.37028e-07
-5.43927e-07
-5.3345e-08
-3.1256e-07
3.21068e-07
-2.55791e-08
1.51235e-07
2.12535e-08
-1.4691e-07
4.29986e-07
-4.71726e-07
-4.66895e-08
8.84291e-08
-4.29816e-07
4.32706e-07
-2.88964e-09
7.98066e-08
-1.12331e-07
3.25245e-08
-1.70843e-08
-1.08976e-07
1.2606e-07
4.21952e-07
3.54632e-08
-4.12247e-07
-4.5168e-08
2.27061e-07
5.00614e-08
-2.68144e-07
-8.97831e-09
5.54747e-08
-3.22969e-08
-4.62696e-08
-9.45897e-09
1.28204e-07
-1.2431e-07
5.56499e-09
2.09977e-07
3.20795e-07
-1.20463e-07
-2.00332e-07
-6.42161e-08
6.42161e-08
6.90584e-07
-8.12364e-08
-6.09347e-07
-3.61961e-09
4.95934e-08
-4.72818e-08
-2.47214e-07
1.88101e-07
5.91136e-08
-2.10295e-07
2.60357e-07
4.18701e-10
-3.45059e-08
3.40872e-08
-1.98573e-07
1.10284e-07
3.14756e-08
4.16398e-09
-3.56396e-08
-3.7478e-08
3.78235e-08
-2.16695e-07
2.3354e-07
2.30838e-07
-2.47683e-07
-4.05103e-07
-1.07314e-07
9.22622e-08
4.20155e-07
-2.23217e-07
-2.55719e-07
4.78936e-07
1.3628e-07
7.78945e-08
-1.35818e-07
-7.83568e-08
1.93256e-07
-1.27015e-08
-1.80554e-07
3.64086e-08
2.12043e-07
-4.91045e-08
-1.99347e-07
3.39196e-08
1.59336e-07
5.18603e-07
-5.39675e-07
-7.04224e-08
-9.13508e-09
1.44383e-08
-5.30328e-09
-7.41446e-09
1.62484e-08
-8.83399e-09
-4.15048e-07
6.74737e-07
-2.5969e-07
3.61813e-07
-3.73026e-07
-2.33541e-08
3.45676e-08
-5.35186e-07
4.2127e-07
1.13916e-07
1.34212e-09
-1.34211e-09
1.10681e-07
-1.2014e-07
-2.67758e-07
3.68876e-08
2.69767e-07
2.12366e-08
-2.88994e-07
-2.25098e-07
-6.20574e-08
1.13905e-07
1.52499e-07
-2.66404e-07
-7.17936e-08
4.49291e-07
-3.77498e-07
-4.96177e-07
-4.29222e-07
4.93928e-07
3.96442e-07
-2.50983e-08
-4.38672e-07
6.73285e-08
-3.32371e-07
1.22076e-07
4.46133e-08
-4.50284e-08
4.15033e-10
-2.57506e-06
2.57506e-06
1.23328e-07
1.37137e-09
-1.18902e-07
-5.79791e-09
-7.42777e-08
-3.57854e-07
4.04769e-07
2.73629e-08
4.28945e-08
3.34439e-08
-7.63385e-08
5.38158e-07
-1.49889e-08
-5.2317e-07
-2.83082e-07
1.8801e-07
3.29291e-07
-2.34219e-07
-1.06343e-07
-5.42838e-07
5.89567e-07
5.96141e-08
9.33072e-08
-1.1779e-07
3.76056e-07
-8.33249e-08
-3.82525e-07
8.97941e-08
1.08817e-07
-2.57128e-07
-7.27251e-09
2.48759e-09
2.61913e-07
-1.43012e-08
-2.55878e-07
2.70179e-07
3.13489e-07
-3.2779e-07
2.49757e-07
-2.44806e-07
2.94445e-07
-3.36314e-07
2.93297e-07
-1.12922e-08
1.24401e-08
2.76977e-07
1.63202e-08
4.64089e-08
-4.66493e-09
-4.1744e-08
-7.79396e-07
7.93665e-07
-1.42692e-08
1.97229e-07
7.98559e-08
-2.77085e-07
3.81635e-08
-7.97883e-07
-1.96759e-08
-5.52031e-07
5.90195e-07
8.03188e-08
-8.78202e-07
-5.78039e-07
8.07239e-08
3.49262e-07
2.12068e-07
4.21696e-08
-2.54238e-07
2.87498e-07
-3.37749e-08
-2.53723e-07
-1.1637e-08
-1.15058e-07
8.27707e-09
1.18418e-07
3.73915e-08
-4.36568e-08
2.03495e-07
-2.27749e-07
-2.26201e-07
7.83088e-08
1.9721e-07
-5.13105e-09
-1.97714e-07
9.29446e-08
-4.41565e-07
3.48621e-07
-6.95328e-07
3.02665e-07
3.92663e-07
1.49215e-08
-1.17596e-09
3.09249e-09
-1.68381e-08
-1.96172e-07
1.85022e-07
3.34762e-08
-1.83611e-07
1.50134e-07
-1.60826e-07
-1.77508e-07
1.42161e-07
-7.77987e-09
1.90306e-07
1.37644e-07
-1.89303e-07
5.16592e-08
4.25993e-08
1.55413e-07
-4.99312e-08
-1.48081e-07
-1.37689e-07
-2.31369e-08
-1.53285e-07
-2.4223e-08
2.85322e-07
1.96951e-08
-1.19935e-07
-1.71038e-07
1.39917e-07
-4.81564e-08
-9.17607e-08
3.13143e-07
-1.99238e-07
1.04063e-07
-8.91822e-08
-1.48813e-08
1.40053e-07
-6.3623e-07
4.18866e-07
1.08237e-08
-4.29689e-07
-3.47953e-09
2.01709e-08
-1.66913e-08
-1.80941e-07
1.86995e-07
-7.01381e-07
5.08476e-07
2.08537e-07
-8.69781e-09
-1.99839e-07
-1.12005e-07
2.17786e-08
9.02266e-08
-6.51597e-07
3.44183e-07
6.10078e-07
3.47946e-07
-1.84786e-08
-3.45755e-07
1.62876e-08
-6.79733e-08
8.28043e-08
7.12139e-08
-8.60449e-08
5.47966e-09
-7.3453e-08
-1.82953e-07
1.79935e-07
-4.19806e-08
4.49975e-08
-2.35335e-07
-7.25882e-08
-2.4383e-08
-4.26646e-08
6.70476e-08
-1.4312e-07
-4.58325e-08
4.08106e-07
-3.62274e-07
1.94262e-10
-1.7965e-09
1.19026e-07
-1.17424e-07
-2.42956e-07
3.70347e-07
-1.27391e-07
4.99694e-08
-5.82435e-08
-3.231e-07
3.31374e-07
1.94005e-07
-1.15755e-08
-6.5835e-10
-4.14171e-08
4.31082e-08
-1.03277e-09
-3.06771e-07
3.16592e-07
-9.82073e-09
-2.70455e-08
4.16448e-07
2.20121e-08
-4.11415e-07
2.94588e-07
-3.21634e-07
1.0122e-07
-4.40598e-08
1.09107e-08
-2.11858e-08
1.02751e-08
4.06299e-07
-3.15315e-09
-3.92967e-07
-1.01785e-08
1.18463e-07
5.72121e-07
3.11959e-08
3.0813e-08
3.84772e-08
2.62409e-07
-2.67859e-07
4.02542e-07
1.02926e-07
-5.05468e-07
6.82127e-07
4.54561e-08
-3.74416e-08
1.70645e-07
-1.5968e-07
-1.09649e-08
-2.11145e-08
1.35848e-08
9.18911e-08
-2.61102e-07
2.33666e-07
-6.44546e-08
-3.68425e-07
4.60316e-07
8.4456e-08
-3.45558e-07
-3.87304e-07
1.03335e-07
3.28822e-07
-1.72729e-07
-1.56093e-07
3.53589e-08
-3.53754e-08
3.28838e-07
-1.84088e-07
1.51625e-07
-2.03274e-07
2.35737e-07
3.61922e-07
-3.40268e-07
-2.16536e-08
-1.04972e-06
8.2352e-07
1.02249e-07
4.82538e-08
5.26648e-08
8.10533e-08
-1.33718e-07
-1.40458e-07
2.51544e-07
-1.11086e-07
5.45436e-07
-5.5667e-07
1.12346e-08
-5.60378e-09
-4.97516e-09
-3.27586e-08
-1.82157e-07
1.43948e-07
-2.9784e-07
2.35876e-07
6.19641e-08
2.3429e-07
2.74291e-07
-5.08582e-07
5.86692e-08
2.23397e-07
-2.82066e-07
1.11715e-07
-1.02399e-07
-3.55203e-08
2.62043e-08
-2.69933e-07
2.60998e-07
-1.63793e-07
1.22321e-08
-2.82165e-07
-9.52626e-08
1.41158e-07
-4.58951e-08
-1.50404e-06
3.76604e-07
1.12744e-06
5.22338e-09
7.35088e-08
-7.87322e-08
-1.97502e-07
2.91223e-07
-9.3721e-08
1.17428e-06
-1.32088e-06
1.46597e-07
-9.38967e-07
6.09204e-07
1.90093e-08
5.03498e-07
-5.22507e-07
2.62995e-08
-2.48786e-08
-1.42092e-09
1.41201e-07
-1.19167e-07
-2.20337e-08
3.26762e-08
-2.80656e-09
-2.98697e-08
8.48346e-07
-7.872e-07
-3.22623e-07
-1.75792e-07
-5.43204e-08
1.79465e-07
-4.57042e-07
1.12815e-07
-1.27154e-07
-3.64108e-08
3.06084e-09
3.335e-08
8.6859e-08
1.81185e-08
-1.74689e-07
2.01912e-07
-2.64279e-07
2.37056e-07
1.8737e-07
-4.10587e-07
4.27103e-07
-1.90245e-07
-2.36858e-07
3.9747e-07
-3.89751e-07
-7.71892e-09
1.34164e-07
3.2693e-08
-1.66857e-07
-3.23668e-08
-2.62728e-07
-2.12986e-07
2.06662e-07
-4.39936e-07
3.82442e-07
5.74944e-08
2.96225e-07
3.51586e-07
-3.06836e-07
-3.40976e-07
2.98615e-07
-2.39041e-09
1.265e-07
-2.46416e-07
1.19916e-07
2.02574e-08
-3.28409e-07
3.08151e-07
2.1055e-07
-1.98936e-07
-3.04931e-07
3.41818e-07
-1.91631e-08
-2.73983e-07
2.93146e-07
-3.02857e-07
2.90015e-07
-2.20386e-08
1.9818e-08
-2.87795e-07
1.60326e-08
2.16209e-07
-3.0304e-07
8.68309e-08
-3.71672e-08
-5.0628e-07
5.43447e-07
-1.06003e-07
-7.80852e-08
-9.42602e-08
9.6196e-08
3.28751e-09
3.64465e-09
-3.18549e-08
2.82103e-08
-1.83048e-07
1.71411e-07
5.92273e-08
-1.87838e-07
-3.12317e-07
3.05982e-08
3.25879e-07
-4.41603e-08
-4.18386e-08
-2.70478e-07
4.03699e-07
-2.48626e-07
-1.55073e-07
-1.49654e-08
3.41614e-08
6.56827e-08
-8.48788e-08
-1.16172e-08
5.62305e-08
-4.04357e-07
-2.99864e-07
2.90352e-07
3.43558e-07
4.8466e-08
-3.92024e-07
3.13888e-07
-3.70042e-07
5.61546e-08
8.84407e-08
-1.29699e-07
4.12587e-08
1.88487e-07
-1.17081e-07
-1.58496e-07
8.70894e-08
-6.87472e-07
2.67556e-07
4.19916e-07
3.89188e-07
-1.84643e-08
-3.70724e-07
5.99121e-07
-2.54211e-07
3.70107e-08
3.18263e-07
-3.55274e-07
-5.08955e-08
4.64462e-07
-4.13566e-07
-2.65327e-07
2.92869e-07
-3.06753e-07
-5.74692e-08
4.2896e-07
-4.15339e-07
4.38485e-08
2.06038e-07
1.69172e-07
-3.7521e-07
-3.8083e-09
-1.69795e-08
-6.58139e-09
2.60532e-07
4.98373e-07
-9.58303e-08
-3.08482e-07
3.01037e-07
7.4446e-09
-1.22568e-07
9.11202e-08
3.1448e-08
-3.98765e-07
3.19675e-07
3.76378e-07
-2.97287e-07
3.56485e-07
-6.9963e-08
3.22788e-07
2.51581e-08
1.6354e-07
5.12638e-08
-2.14804e-07
2.75469e-06
5.59125e-07
-2.02151e-07
-5.49773e-08
-1.48815e-07
-2.98389e-07
1.39348e-07
3.07856e-07
7.43636e-07
5.00293e-08
3.88247e-07
-3.63216e-07
-2.5031e-08
3.44299e-07
3.88398e-08
-3.83139e-07
-8.48511e-09
-3.14986e-07
3.23471e-07
-1.27377e-06
3.24203e-08
1.25127e-09
2.79775e-08
-2.92288e-08
6.19079e-09
-9.91721e-08
9.29813e-08
3.99222e-08
4.51544e-07
-4.91466e-07
-6.82552e-08
9.49953e-08
3.35971e-08
-6.03373e-08
1.10019e-07
-9.67239e-09
2.29456e-08
-1.23292e-07
-2.18027e-07
-2.80609e-08
-3.26763e-08
-1.91988e-07
2.24664e-07
3.04434e-09
-2.86027e-06
9.40152e-08
-7.89473e-07
-9.86437e-08
8.88117e-07
1.61952e-09
-9.97914e-10
1.34019e-07
-1.3464e-07
-4.24384e-08
4.1744e-08
6.94351e-10
-2.87648e-08
-2.42201e-09
3.11868e-08
-3.15243e-08
4.117e-08
-9.64568e-09
5.46622e-08
-5.46622e-08
4.46158e-07
1.21784e-07
-2.70655e-06
-8.14728e-08
2.78802e-06
2.84187e-08
5.27331e-07
-5.12841e-07
-4.29084e-08
2.49171e-08
1.11798e-07
-2.78975e-08
2.74154e-06
-2.74154e-06
-2.45315e-06
3.54984e-08
-7.67094e-08
4.1211e-08
-9.36e-08
1.90003e-08
7.75897e-08
-2.99e-09
-4.67627e-08
-1.42936e-07
1.89698e-07
-2.85971e-07
3.16569e-07
2.56171e-07
2.55621e-08
-2.76831e-08
-2.5405e-07
2.88777e-07
-2.90332e-07
-8.46758e-08
8.62309e-08
3.12776e-07
-2.78516e-07
-3.42607e-08
-1.79168e-08
-5.7977e-07
5.97687e-07
8.77818e-08
3.68371e-09
-1.35954e-07
2.5275e-07
6.00266e-08
4.54678e-08
-4.25928e-08
2.49875e-07
-5.61308e-07
5.64554e-07
-4.71682e-08
4.39231e-08
-2.26246e-07
7.92384e-08
1.47008e-07
-1.38597e-07
-4.43553e-08
-1.97708e-07
1.17352e-07
8.03562e-08
1.74722e-07
-2.4749e-07
-1.3193e-07
6.68038e-08
6.51264e-08
-4.14154e-07
4.09761e-08
3.73178e-07
-3.29378e-07
1.29647e-08
3.16414e-07
-5.49565e-07
5.19362e-07
3.02026e-08
3.26953e-08
-4.22564e-08
4.02507e-07
1.31785e-09
1.82591e-07
-6.43056e-07
4.60465e-07
-4.46981e-07
1.09488e-07
3.37494e-07
7.84019e-08
-6.44434e-09
1.97338e-09
-7.39309e-08
-6.94683e-08
3.82266e-10
6.85944e-08
4.91658e-10
3.43331e-10
9.06607e-08
-9.11124e-08
1.08454e-10
-1.77341e-08
-4.41631e-07
1.23839e-08
2.16113e-07
6.11899e-08
1.072e-07
-1.68389e-07
-8.96166e-08
-1.36551e-08
1.67697e-07
-1.61821e-07
-5.9727e-08
2.49236e-09
5.72346e-08
-1.11315e-07
5.83571e-07
-4.72256e-07
-4.19406e-07
6.29295e-08
3.56476e-07
-3.38883e-07
2.51452e-07
8.74308e-08
-6.8781e-08
8.26658e-08
-1.3885e-08
-6.02956e-08
-8.97384e-09
6.92694e-08
-3.44196e-09
-8.98879e-08
-2.70198e-10
-4.21845e-08
-5.19124e-07
-1.76405e-08
-1.28804e-07
1.3279e-07
-7.01128e-07
2.53805e-07
-2.46382e-07
2.40144e-09
-9.82486e-09
7.08089e-07
-4.6088e-08
-6.62001e-07
-1.26867e-08
1.26866e-08
-2.17894e-08
2.87502e-08
3.11854e-07
-4.73529e-08
-3.10589e-07
2.90064e-07
-3.49217e-08
5.36907e-07
4.29287e-08
-5.44914e-07
-7.96628e-07
5.66761e-07
-6.01682e-07
-1.42519e-08
-2.8487e-06
2.86295e-06
8.78465e-08
-8.98132e-08
1.96666e-09
4.13793e-09
6.01498e-07
-6.05636e-07
2.36087e-06
-2.36087e-06
-6.40751e-08
-1.85686e-07
-9.14497e-09
5.12643e-07
-5.996e-08
5.996e-08
2.79172e-08
-4.03663e-08
-2.5163e-09
-2.07144e-09
1.1209e-07
-6.25618e-08
2.60175e-09
2.15324e-09
-1.21027e-08
5.25665e-08
-3.05807e-08
3.77452e-07
-3.99438e-07
-4.32085e-07
-1.75404e-07
6.07489e-07
5.31226e-08
-3.69674e-07
3.16551e-07
1.39428e-07
3.33907e-07
-4.73335e-07
-3.23217e-07
3.61694e-07
-4.83551e-07
5.09923e-08
4.32559e-07
-2.36187e-07
-2.09874e-08
2.57174e-07
-1.26517e-07
1.08876e-07
2.30876e-07
-2.96582e-07
6.57059e-08
2.16794e-07
5.36573e-07
-3.44807e-07
-4.08558e-07
-1.54259e-08
2.3222e-07
5.77706e-07
-8.74288e-07
2.96582e-07
-3.05238e-07
2.33155e-07
7.20825e-08
-1.7453e-07
-2.56698e-08
4.39962e-07
-2.39762e-07
6.07198e-07
-7.06256e-08
-2.18065e-07
-1.86006e-07
4.04071e-07
-2.85929e-07
2.56508e-07
-2.13535e-07
2.3074e-07
-1.90972e-07
-2.57833e-07
-2.51545e-07
2.50883e-07
2.62772e-06
-2.62772e-06
6.82978e-07
-4.10463e-07
-2.72515e-07
7.82728e-08
2.45442e-07
-3.23714e-07
-1.30589e-06
-2.4092e-08
-5.91416e-07
5.20181e-09
5.86214e-07
-1.64538e-07
7.22855e-07
-5.58317e-07
2.74051e-07
-2.77522e-07
3.26762e-08
3.5536e-07
-5.49498e-08
-3.0041e-07
3.25941e-07
-3.80677e-07
5.47361e-08
1.07846e-07
-6.79478e-07
5.71632e-07
4.36506e-07
-7.20708e-07
2.84202e-07
4.84805e-07
1.18438e-07
-8.65465e-08
-5.16696e-07
5.2304e-07
-3.82349e-08
2.26942e-07
-2.19779e-07
7.11094e-08
1.26601e-09
-1.12534e-09
-1.40677e-10
4.94216e-08
-5.55245e-08
-5.26896e-08
2.76364e-07
-9.66683e-08
2.71885e-07
8.52454e-08
-5.61319e-08
1.52035e-07
-9.59036e-08
3.1373e-08
2.41016e-08
-8.36689e-08
3.05896e-07
-2.22227e-07
-1.35265e-07
5.02637e-08
1.31951e-07
-4.69493e-08
1.54405e-07
-2.8967e-07
-1.10226e-07
1.6049e-07
2.03044e-07
-1.58733e-07
1.10095e-07
1.43734e-07
-2.42045e-07
1.01836e-07
-3.52457e-09
1.94768e-07
3.00213e-07
-4.94981e-07
-2.03895e-07
1.31265e-07
7.26302e-08
3.7664e-09
1.35258e-07
-4.86082e-09
-1.4694e-07
1.52969e-07
-1.41983e-07
5.52739e-07
-5.99377e-07
4.66383e-08
-4.65638e-08
4.65638e-08
-1.14472e-08
-1.7708e-09
7.78434e-08
2.48586e-07
-3.26429e-07
1.21038e-07
4.26524e-07
-4.39715e-07
-1.18996e-07
4.64172e-08
7.25789e-08
-2.93852e-08
2.87171e-08
3.4865e-08
-5.23204e-10
-3.43418e-08
1.27232e-07
-6.34633e-07
5.07401e-07
-1.8846e-08
4.08852e-07
-4.59124e-07
5.02715e-08
-5.10629e-08
4.49016e-07
-3.97953e-07
3.29249e-07
-3.51875e-07
2.26266e-08
-4.58656e-07
4.41415e-08
2.0896e-09
-3.77518e-08
3.56622e-08
-1.81232e-08
6.77613e-08
-6.10453e-08
-6.71588e-09
-1.89635e-08
-2.72916e-06
-5.95232e-08
-5.68503e-07
4.63189e-07
-4.59742e-07
1.74844e-08
-2.0931e-08
5.97834e-08
-2.81259e-09
-5.69708e-08
-2.04536e-07
1.7275e-07
3.17862e-08
-9.27154e-08
2.36004e-07
2.04777e-07
-6.71323e-08
-9.21246e-08
1.40121e-07
-4.79966e-08
-8.88837e-08
1.48226e-07
-5.93426e-08
-5.69523e-08
1.06119e-07
-2.29869e-07
-4.28096e-08
2.72679e-07
1.34563e-07
1.71731e-09
6.99622e-07
-8.54455e-08
-6.14176e-07
-5.0093e-07
4.90803e-07
1.01272e-08
1.19818e-07
-1.03994e-07
-8.55168e-08
-6.16434e-07
7.62442e-07
-1.46007e-07
5.78265e-07
1.21356e-07
5.69387e-07
-1.5566e-07
-2.15532e-07
2.20355e-07
2.96633e-07
-4.59969e-07
-2.50334e-07
-8.05547e-08
3.30889e-07
2.09539e-07
-4.74521e-09
-2.33782e-07
2.89886e-08
-7.71195e-08
7.81362e-07
-7.04243e-07
-2.79214e-06
2.81184e-06
-1.96964e-08
2.75852e-07
-4.72121e-08
4.5411e-08
1.19759e-07
4.1405e-07
5.57055e-08
-4.69755e-07
1.41647e-07
-2.30677e-08
-1.27004e-07
8.42413e-09
2.72644e-08
-2.69211e-08
-7.25203e-09
-8.5892e-08
9.06309e-08
2.51308e-09
2.4238e-08
-2.4238e-08
-1.69725e-07
1.62947e-07
-8.16684e-10
7.59419e-09
-3.80331e-08
3.8033e-08
-3.7478e-08
6.88858e-08
-8.30558e-10
-6.80552e-08
-5.6296e-07
5.39681e-07
2.32786e-08
-2.38571e-07
-4.4891e-09
2.24884e-07
1.81761e-08
6.02956e-08
-5.7517e-08
-2.77862e-09
-4.46446e-07
1.78806e-08
4.28565e-07
4.12252e-07
-1.37961e-07
5.65265e-08
-6.06344e-08
5.56846e-07
4.25157e-08
-4.25157e-08
8.51782e-08
1.53026e-07
-2.38204e-07
-7.0593e-07
7.94327e-08
6.26498e-07
-1.01215e-07
3.95088e-07
-2.93873e-07
4.63336e-07
-6.50517e-07
-1.35818e-07
3.98227e-07
-3.76901e-07
-4.07478e-07
3.99622e-07
-2.81913e-08
-6.51287e-07
6.1474e-07
6.7454e-08
9.44647e-08
5.18483e-07
-6.12947e-07
-9.55008e-10
3.4564e-10
6.09365e-10
-1.05979e-08
2.02876e-09
1.73289e-09
6.83626e-09
-1.39223e-09
4.11441e-11
3.96078e-10
8.99114e-08
-7.10706e-09
-4.7214e-08
3.51337e-07
-3.04123e-07
2.83442e-07
1.49707e-07
-2.6265e-07
1.02429e-07
-4.36744e-08
5.69011e-07
-3.38271e-07
-1.38721e-07
-2.45657e-07
2.70039e-07
-2.4382e-08
3.29377e-07
-1.16266e-07
-2.13111e-07
4.63592e-07
-3.91612e-07
-7.19801e-08
-4.1456e-08
-5.20594e-09
4.66619e-08
-3.04968e-07
3.29737e-07
-2.47693e-08
-4.15602e-08
-1.22383e-07
1.13125e-07
2.04974e-07
-4.77806e-08
-1.57194e-07
2.81089e-07
-2.54156e-07
2.63174e-07
2.9595e-07
-5.03443e-08
-2.82423e-07
3.32768e-07
-7.12096e-07
-7.28115e-08
6.99462e-07
4.88811e-07
-5.07161e-07
1.835e-08
-4.49139e-07
4.66285e-07
6.54783e-08
-3.69613e-07
3.04135e-07
-3.97448e-08
3.53562e-08
-2.94597e-07
2.98985e-07
4.44519e-07
-4.43275e-08
1.69596e-08
2.73679e-08
2.86334e-07
3.17366e-07
-6.037e-07
3.40211e-08
-2.64556e-07
-9.76765e-09
2.40302e-07
8.3515e-08
6.80749e-08
-2.5876e-07
3.09396e-07
-2.48138e-07
-1.36081e-07
4.71975e-08
5.59794e-07
3.49844e-08
-3.50972e-08
-5.59682e-07
7.13617e-07
-6.84828e-07
1.65979e-07
2.26669e-07
1.39791e-07
-3.6646e-07
-1.88273e-08
2.12493e-08
-2.42195e-09
-3.06221e-07
2.21354e-07
8.48667e-08
1.56482e-07
-2.5315e-07
2.11672e-07
-1.03552e-08
1.65633e-07
5.53245e-08
-7.20326e-08
-3.55185e-07
3.71893e-07
1.02727e-09
4.78729e-07
-4.79756e-07
4.9917e-07
-4.43846e-07
9.10297e-08
6.428e-08
-5.87626e-08
-9.65471e-08
5.04542e-08
-2.95885e-07
2.45431e-07
-3.00044e-07
4.3371e-07
-1.33666e-07
2.95005e-07
-2.07836e-07
-8.71688e-08
2.60456e-08
-3.47994e-08
-4.50564e-07
4.59318e-07
-1.36679e-07
5.32198e-07
-3.95519e-07
2.88998e-07
2.78269e-08
-3.16825e-07
-1.68225e-07
3.88031e-07
2.51359e-07
-2.89391e-07
-2.87254e-07
3.25285e-07
-1.22262e-07
3.99439e-07
-2.77177e-07
2.01951e-07
-3.24213e-07
-9.25044e-09
-1.24033e-07
-2.28336e-08
1.56117e-07
4.48534e-07
-4.20116e-07
5.01459e-08
4.54704e-07
-5.0485e-07
4.10773e-07
-4.8002e-08
-3.62771e-07
-4.96101e-08
4.09776e-08
-5.24157e-07
5.08731e-07
-9.77302e-08
6.75638e-08
1.28537e-07
-9.83708e-08
-1.98447e-09
1.13227e-07
-5.29037e-08
-3.54788e-08
3.93249e-07
-3.91105e-07
3.43639e-07
4.77333e-08
9.92426e-08
-1.46976e-07
3.53305e-07
1.33543e-07
-4.86849e-07
1.80775e-08
-3.76875e-07
3.70057e-07
5.91807e-08
6.35295e-08
2.77239e-07
-1.72049e-07
-1.0519e-07
5.04759e-08
-4.71829e-07
-3.15399e-07
2.88964e-07
-1.92985e-07
2.1942e-07
5.17682e-08
5.70186e-07
-5.71479e-07
-2.05649e-07
-2.90528e-07
2.45844e-07
-2.40809e-07
3.51598e-08
1.63339e-07
-1.26909e-07
-1.27189e-07
-1.68498e-07
5.64383e-07
-3.95885e-07
-4.66871e-07
4.37801e-07
-2.30791e-07
5.60082e-07
-4.92368e-08
4.11579e-08
-3.64813e-07
3.72892e-07
4.38397e-07
-4.87634e-07
-5.53664e-08
4.64219e-07
4.65818e-07
4.90361e-08
3.44789e-08
8.20966e-08
-9.11086e-08
1.37455e-07
-1.28443e-07
-5.57168e-08
3.56346e-10
8.54112e-10
5.45063e-08
1.55949e-09
-6.46855e-09
5.35112e-08
-4.86021e-08
5.97834e-08
-8.70367e-08
-7.02243e-08
6.45456e-08
2.09114e-07
-2.12618e-07
6.91508e-10
6.39384e-09
-7.0522e-09
-4.40318e-07
-1.54336e-07
1.32649e-07
9.7475e-09
-9.7475e-09
-1.8633e-07
9.92932e-08
1.81123e-07
-6.47808e-08
-1.16342e-07
-9.79409e-08
8.97608e-08
1.10577e-07
-1.61114e-07
5.05364e-08
8.40874e-09
1.42827e-07
1.3871e-08
-3.18916e-08
-1.87726e-07
1.74974e-07
4.46434e-08
-7.09853e-08
3.90937e-08
-7.43528e-09
2.82223e-08
-2.0787e-08
9.36483e-09
2.90704e-07
-3.00069e-07
2.08108e-08
3.56428e-07
-2.06353e-08
2.16186e-08
-3.57412e-07
-3.81583e-07
3.8472e-07
1.30529e-08
-1.61897e-08
-2.74766e-07
-1.60655e-08
2.90832e-07
-1.08211e-07
-2.42316e-07
3.50527e-07
6.04028e-08
-3.84315e-07
1.628e-07
-1.4579e-07
3.67306e-07
-3.93804e-07
5.80798e-07
-1.07751e-07
-2.19162e-07
1.35052e-07
1.91861e-07
-4.86242e-07
-1.40744e-07
1.18404e-07
2.43992e-07
-7.27681e-08
-8.65649e-09
-3.75659e-07
-3.07786e-07
3.36653e-07
-2.88669e-08
2.16366e-07
2.24636e-07
-4.41002e-07
-2.63432e-07
-2.62082e-07
2.61685e-07
-8.92197e-08
-2.84019e-07
1.84157e-08
2.65603e-07
2.89765e-07
-2.54406e-07
1.46051e-07
4.67836e-09
-2.65436e-07
2.68189e-07
-7.43167e-09
-2.97147e-07
2.47677e-07
4.94701e-08
1.89488e-08
4.52936e-07
-3.46826e-07
-2.41608e-08
-8.13611e-09
-4.66299e-07
-5.42737e-09
2.9865e-07
7.04552e-09
-3.05696e-07
5.04484e-09
7.16368e-11
1.36531e-07
2.62995e-08
-7.93217e-08
-1.49385e-08
-7.57992e-09
-1.66808e-08
-1.85946e-08
-2.73618e-07
2.99664e-07
2.41549e-08
7.02454e-08
2.20978e-07
3.55305e-07
-2.14361e-07
2.07818e-07
-5.00082e-07
2.92265e-07
-2.24486e-08
3.11225e-07
-2.7532e-07
3.81141e-07
2.02153e-07
-5.83293e-07
-2.83602e-06
2.87356e-06
-3.75442e-08
-6.98159e-08
1.37067e-07
-6.72514e-08
-3.32301e-07
-5.02861e-07
8.35162e-07
6.1112e-07
3.124e-07
-6.03392e-07
-3.20128e-07
-4.56867e-07
8.17496e-08
-4.18421e-08
-2.0451e-08
-6.21916e-07
5.26443e-08
6.67902e-08
-1.00501e-08
-7.28814e-07
7.57058e-07
-2.82446e-08
3.89149e-08
-2.40927e-08
-4.10637e-07
-3.29816e-07
7.40453e-07
-5.1698e-07
2.8916e-08
1.71848e-08
-4.86745e-07
4.56164e-07
5.18387e-08
1.62362e-08
-3.47071e-08
5.96547e-08
5.01586e-07
-5.26533e-07
1.12534e-07
-7.17588e-08
-1.22857e-07
-1.5781e-07
1.49929e-07
1.30739e-07
-2.90717e-07
-1.65044e-07
4.55761e-07
-1.51285e-08
2.77539e-08
-2.32847e-08
-2.2393e-07
3.13236e-08
-3.42534e-08
2.21392e-07
2.79803e-08
-2.15896e-07
-4.03646e-09
2.47848e-07
-2.43812e-07
-1.29872e-07
-7.97493e-08
1.09201e-08
-1.68533e-08
-5.46651e-11
1.6908e-08
3.0852e-07
5.10728e-07
3.24636e-08
2.88417e-08
5.91852e-08
-1.57656e-07
-1.47582e-07
-2.18661e-07
2.02438e-07
1.6223e-08
7.71327e-08
-2.95793e-07
-2.819e-06
2.819e-06
5.31955e-09
4.10146e-07
-4.15466e-07
-3.66336e-07
4.07494e-07
1.24318e-07
5.14484e-07
-6.38802e-07
-5.98201e-07
5.8427e-07
-3.00901e-07
1.05694e-08
-3.37194e-07
2.9745e-07
-1.28728e-07
1.12208e-07
1.46223e-07
-1.29703e-07
1.42738e-07
3.17578e-07
2.38906e-06
-2.38545e-06
-3.60456e-09
3.94805e-08
1.31235e-06
-1.35184e-06
-5.04427e-07
4.50608e-07
5.38191e-08
-1.29791e-08
3.69628e-08
-5.59126e-07
3.89302e-08
5.20196e-07
-1.32813e-07
1.80546e-07
2.64678e-06
3.09676e-07
-1.59969e-07
4.9462e-07
-4.73331e-08
-2.04626e-08
6.77958e-08
-1.61404e-07
-1.37679e-07
-4.35741e-08
3.01862e-07
-3.73655e-07
-3.16645e-07
1.60886e-08
3.18972e-07
-3.29035e-08
4.2515e-08
-3.89967e-08
6.18523e-08
-5.8577e-08
-8.14079e-08
3.15074e-07
4.06022e-07
-4.05588e-07
3.80706e-07
-3.14541e-07
3.52418e-08
2.793e-07
4.076e-07
-3.103e-07
2.15843e-07
-2.81882e-08
1.4429e-08
1.93515e-08
-3.37804e-08
-2.47993e-10
1.1168e-07
-1.11432e-07
-4.82861e-07
-7.6482e-08
7.5792e-08
4.32492e-07
-4.1942e-07