/*--------------------------------*- C++ -*----------------------------------*\
| =========                 |                                                 |
| \\      /  F ield         | OpenFOAM: The Open Source CFD Toolbox           |
|  \\    /   O peration     | Version:  v2012                                 |
|   \\  /    A nd           | Website:  www.openfoam.com                      |
|    \\/     M anipulation  |                                                 |
\*---------------------------------------------------------------------------*/
FoamFile
{
    version     2.0;
    format      ascii;
    class       surfaceScalarField;
    location    "0.55";
    object      phi;
}
// * * * * * * * * * * * * * * * * * * * * * * * * * * * * * * * * * * * * * //

dimensions      [0 3 -1 0 0 0 0];
oriented        oriented;


internalField   nonuniform List<scalar> 
8212
(
9.17392e-16
-1.05867e-13
-6.43479e-18
6.3664e-15
-1.01474e-12
-1.29243e-17
1.88672e-14
-3.017e-12
-1.71311e-18
4.00881e-14
-6.15605e-12
4.2545e-17
7.28121e-14
-1.04862e-11
2.08113e-16
1.17388e-13
-1.60772e-11
7.04857e-17
1.7731e-13
-2.3012e-11
1.14894e-16
2.54984e-13
-3.13877e-11
1.29169e-16
3.53608e-13
-4.131e-11
1.3465e-16
4.75619e-13
-5.29025e-11
6.39513e-17
6.25324e-13
-6.62891e-11
6.16138e-17
8.06358e-13
-8.16097e-11
8.55863e-17
1.02305e-12
-9.90292e-11
1.06956e-16
1.27899e-12
-1.1869e-10
2.7201e-17
1.57919e-12
-1.40785e-10
4.89294e-17
1.92798e-12
-1.65477e-10
5.07567e-17
2.33008e-12
-1.92966e-10
6.83971e-17
2.7901e-12
-2.23456e-10
6.82442e-17
3.31301e-12
-2.57161e-10
1.04624e-16
3.90364e-12
-2.9429e-10
1.04276e-16
4.56664e-12
-3.35071e-10
6.45221e-17
5.30695e-12
-3.79762e-10
3.74644e-17
6.12909e-12
-4.28545e-10
1.80442e-17
7.03737e-12
-4.81717e-10
-3.71828e-18
8.03543e-12
-5.39466e-10
-2.3567e-17
9.12645e-12
-6.02058e-10
-4.01797e-17
1.03126e-11
-6.69719e-10
-4.88899e-17
1.15951e-11
-7.42593e-10
-5.77734e-17
1.29736e-11
-8.21006e-10
-6.17009e-17
1.44462e-11
-9.04983e-10
-6.68197e-17
1.6009e-11
-9.94747e-10
-6.80471e-17
1.76557e-11
-1.09039e-09
-7.10457e-17
1.93776e-11
-1.19194e-09
-6.9813e-17
2.11625e-11
-1.29938e-09
-6.95071e-17
2.29952e-11
-1.41262e-09
-6.5211e-17
2.48564e-11
-1.53154e-09
-6.25073e-17
2.67231e-11
-1.65581e-09
-5.68001e-17
2.85681e-11
-1.78509e-09
-5.30481e-17
-1.91883e-09
-4.8215e-17
7.16272e-16
-1.06614e-13
-3.42371e-18
5.573e-15
-1.01988e-12
-3.23297e-17
1.7528e-14
-3.02969e-12
-8.90116e-17
4.05159e-14
-6.17869e-12
4.2176e-17
7.52562e-14
-1.05209e-11
3.5818e-18
1.25711e-13
-1.61254e-11
2.62893e-16
1.91168e-13
-2.30766e-11
1.01633e-16
2.76116e-13
-3.14709e-11
2.03048e-16
3.82166e-13
-4.14145e-11
1.70448e-16
5.12447e-13
-5.30314e-11
1.61662e-16
6.69675e-13
-6.64457e-11
6.12764e-17
8.57309e-13
-8.17973e-11
-3.6301e-18
1.08028e-12
-9.92518e-11
5.43171e-17
1.34167e-12
-1.18952e-10
3.43647e-17
1.64655e-12
-1.41089e-10
6.56486e-17
1.99904e-12
-1.65829e-10
7.75677e-17
2.40421e-12
-1.93371e-10
7.72204e-17
2.86694e-12
-2.23918e-10
9.20876e-17
3.39199e-12
-2.57686e-10
2.17321e-17
3.98441e-12
-2.94884e-10
-6.95903e-17
4.64944e-12
-3.35737e-10
-1.15695e-16
5.39218e-12
-3.80506e-10
-1.1733e-16
6.21719e-12
-4.29371e-10
-1.27063e-16
7.12883e-12
-4.8263e-10
-1.28779e-16
8.13076e-12
-5.40469e-10
-1.46948e-16
9.22623e-12
-6.03154e-10
-1.4926e-16
1.04174e-11
-6.70911e-10
-1.58201e-16
1.17055e-11
-7.43882e-10
-1.58659e-16
1.30902e-11
-8.22393e-10
-1.6683e-16
1.45695e-11
-9.06464e-10
-1.67847e-16
1.61393e-11
-9.96318e-10
-1.73341e-16
1.77934e-11
-1.09205e-09
-1.71142e-16
1.95227e-11
-1.19367e-09
-1.71495e-16
2.13152e-11
-1.30117e-09
-1.63489e-16
2.31553e-11
-1.41446e-09
-1.56308e-16
2.50238e-11
-1.53341e-09
-1.43337e-16
2.68971e-11
-1.65769e-09
-1.3273e-16
2.87481e-11
-1.78695e-09
-1.1815e-16
-1.92063e-09
-1.09873e-16
3.42106e-16
-1.07044e-13
-1.04168e-17
3.70767e-15
-1.02329e-12
-4.16153e-18
1.2939e-14
-3.03947e-12
-6.44561e-17
3.14574e-14
-6.19745e-12
-2.89369e-17
6.0725e-14
-1.05509e-11
-8.19061e-17
1.05999e-13
-1.61693e-11
1.56911e-16
1.66027e-13
-2.31366e-11
2.84049e-18
2.46818e-13
-3.155e-11
1.9036e-16
3.48867e-13
-4.15153e-11
1.47068e-16
4.76295e-13
-5.3157e-11
2.10742e-16
6.31702e-13
-6.66e-11
1.27828e-16
8.18715e-13
-8.19834e-11
1.01276e-16
1.04222e-12
-9.94742e-11
1.31616e-16
1.3054e-12
-1.19214e-10
9.92899e-17
1.61348e-12
-1.41396e-10
1.01304e-16
1.97037e-12
-1.66185e-10
7.57908e-17
2.38133e-12
-1.93781e-10
6.67471e-17
2.85064e-12
-2.24388e-10
3.88914e-17
3.38335e-12
-2.58219e-10
-2.08685e-17
3.98476e-12
-2.95485e-10
-5.57284e-17
4.65974e-12
-3.36413e-10
-9.00374e-17
5.41328e-12
-3.8126e-10
-1.05688e-16
6.24998e-12
-4.30209e-10
-1.31476e-16
7.17433e-12
-4.83555e-10
-1.56964e-16
8.19001e-12
-5.41486e-10
-1.94752e-16
9.30036e-12
-6.04267e-10
-2.17591e-16
1.05076e-11
-6.7212e-10
-2.35942e-16
1.18128e-11
-7.4519e-10
-2.49304e-16
1.32158e-11
-8.23798e-10
-2.60938e-16
1.47143e-11
-9.07965e-10
-2.70085e-16
1.63041e-11
-9.9791e-10
-2.75423e-16
1.7979e-11
-1.09373e-09
-2.77722e-16
1.97297e-11
-1.19542e-09
-2.74483e-16
2.15438e-11
-1.30299e-09
-2.65835e-16
2.34054e-11
-1.41633e-09
-2.51024e-16
2.5295e-11
-1.5353e-09
-2.33663e-16
2.71886e-11
-1.65958e-09
-2.14057e-16
2.90586e-11
-1.78882e-09
-1.93654e-16
-1.92244e-09
-1.78292e-16
4.21393e-16
-1.07532e-13
-6.93138e-18
3.064e-15
-1.02719e-12
-1.50776e-16
1.28114e-14
-3.04941e-12
-2.46346e-17
3.38539e-14
-6.2165e-12
2.37905e-16
6.3397e-14
-1.05818e-11
-1.61393e-16
1.10566e-13
-1.62148e-11
1.98076e-16
1.72774e-13
-2.31983e-11
6.72821e-17
2.56913e-13
-3.16313e-11
3.34521e-16
3.61198e-13
-4.16182e-11
1.5525e-16
4.92172e-13
-5.32855e-11
2.99514e-16
6.50188e-13
-6.67567e-11
1.31302e-16
8.40322e-13
-8.21723e-11
1.3016e-16
1.06643e-12
-9.96994e-11
1.00688e-16
1.33222e-12
-1.19479e-10
4.53817e-17
1.64301e-12
-1.41707e-10
4.65019e-17
2.00274e-12
-1.66545e-10
9.55798e-18
2.41731e-12
-1.94195e-10
3.93055e-17
2.89065e-12
-2.24861e-10
-2.76402e-17
3.42842e-12
-2.58758e-10
-8.14859e-17
4.03624e-12
-2.96094e-10
-5.51739e-17
4.71887e-12
-3.37096e-10
-1.06323e-16
5.48169e-12
-3.82024e-10
-1.39251e-16
6.32953e-12
-4.31058e-10
-1.83074e-16
7.26695e-12
-4.84494e-10
-2.09243e-16
8.2977e-12
-5.42519e-10
-2.57986e-16
9.42519e-12
-6.05396e-10
-2.79646e-16
1.06516e-11
-6.73349e-10
-3.07928e-16
1.1978e-11
-7.46519e-10
-3.2088e-16
1.34042e-11
-8.25226e-10
-3.41647e-16
1.49277e-11
-9.09491e-10
-3.50718e-16
1.65442e-11
-9.9953e-10
-3.63848e-16
1.82471e-11
-1.09543e-09
-3.64743e-16
2.00269e-11
-1.1972e-09
-3.65704e-16
2.18708e-11
-1.30484e-09
-3.52182e-16
2.37626e-11
-1.41822e-09
-3.36778e-16
2.56821e-11
-1.53723e-09
-3.11761e-16
2.76047e-11
-1.66151e-09
-2.89025e-16
2.95022e-11
-1.79072e-09
-2.60189e-16
-1.92429e-09
-2.42515e-16
9.11034e-17
-1.07824e-13
-1.99112e-17
1.69229e-15
-1.03013e-12
-1.64183e-16
9.76479e-15
-3.05646e-12
1.28132e-16
2.68851e-14
-6.23224e-12
1.54305e-16
5.16926e-14
-1.06079e-11
-1.57062e-16
9.35857e-14
-1.62559e-11
9.17656e-17
1.49726e-13
-2.3255e-11
-6.37732e-17
2.28299e-13
-3.17083e-11
1.83304e-16
3.27488e-13
-4.17174e-11
-2.11043e-18
4.55501e-13
-5.34117e-11
2.09464e-16
6.1126e-13
-6.6912e-11
3.85275e-17
8.01505e-13
-8.23614e-11
1.15805e-16
1.02894e-12
-9.99261e-11
7.42779e-17
1.29828e-12
-1.19748e-10
7.35083e-17
1.61422e-12
-1.42022e-10
6.91514e-17
1.98115e-12
-1.66911e-10
6.79119e-17
2.4045e-12
-1.94618e-10
8.69516e-17
2.88822e-12
-2.25345e-10
1.71535e-17
3.43814e-12
-2.59308e-10
-3.33492e-17
4.05977e-12
-2.96716e-10
-6.73187e-17
4.75807e-12
-3.37795e-10
-1.3097e-16
5.53835e-12
-3.82806e-10
-1.7227e-16
6.40551e-12
-4.31927e-10
-2.14406e-16
7.36432e-12
-4.85455e-10
-2.47949e-16
8.41858e-12
-5.43576e-10
-2.96407e-16
9.57182e-12
-6.06552e-10
-3.27112e-16
1.08262e-11
-6.74607e-10
-3.56879e-16
1.2183e-11
-7.47878e-10
-3.78772e-16
1.36416e-11
-8.26688e-10
-3.99871e-16
1.51997e-11
-9.11052e-10
-4.16498e-16
1.68526e-11
-1.00119e-09
-4.29717e-16
1.85936e-11
-1.09718e-09
-4.36157e-16
2.04127e-11
-1.19902e-09
-4.3513e-16
2.22967e-11
-1.30672e-09
-4.23411e-16
2.42287e-11
-1.42016e-09
-4.03343e-16
2.61879e-11
-1.53919e-09
-3.7729e-16
2.81491e-11
-1.66347e-09
-3.49012e-16
3.0083e-11
-1.79265e-09
-3.1811e-16
-1.92616e-09
-2.96643e-16
2.24237e-16
-1.08159e-13
-7.24845e-19
5.82785e-15
-1.03274e-12
3.91109e-16
6.64039e-15
-3.06476e-12
-9.31319e-16
2.71433e-14
-6.24798e-12
5.713e-16
5.17529e-14
-1.06321e-11
2.64834e-17
9.70259e-14
-1.62955e-11
6.8673e-16
1.52834e-13
-2.33104e-11
4.41086e-17
2.32351e-13
-3.17858e-11
2.33557e-16
3.3134e-13
-4.18153e-11
1.3257e-16
4.6121e-13
-5.35381e-11
4.0941e-16
6.15888e-13
-6.70664e-11
2.05859e-17
8.07164e-13
-8.25513e-11
1.57163e-16
1.03493e-12
-1.00153e-10
5.29933e-17
1.30642e-12
-1.20018e-10
1.24115e-16
1.62497e-12
-1.4234e-10
5.87304e-17
1.99643e-12
-1.67281e-10
1.14122e-16
2.42537e-12
-1.95046e-10
4.37657e-17
2.91678e-12
-2.25836e-10
-1.32753e-17
3.47644e-12
-2.59868e-10
-7.63631e-17
4.11033e-12
-2.9735e-10
-3.38019e-17
4.82343e-12
-3.38509e-10
-8.78709e-17
5.62131e-12
-3.83605e-10
-1.34505e-16
6.50906e-12
-4.32816e-10
-1.96758e-16
7.49155e-12
-4.86439e-10
-2.37961e-16
8.57268e-12
-5.44659e-10
-3.02794e-16
9.75598e-12
-6.07738e-10
-3.38969e-16
1.10437e-11
-6.75897e-10
-3.83346e-16
1.24368e-11
-7.49275e-10
-4.08649e-16
1.39348e-11
-8.2819e-10
-4.40214e-16
1.55351e-11
-9.12656e-10
-4.58144e-16
1.72328e-11
-1.00289e-09
-4.79762e-16
1.90207e-11
-1.09897e-09
-4.85893e-16
2.08883e-11
-1.2009e-09
-4.89925e-16
2.28219e-11
-1.30866e-09
-4.75285e-16
2.48038e-11
-1.42214e-09
-4.57042e-16
2.68124e-11
-1.5412e-09
-4.26593e-16
2.88215e-11
-1.66548e-09
-3.98811e-16
3.08008e-11
-1.79463e-09
-3.6385e-16
-1.92808e-09
-3.44178e-16
1.2657e-17
-1.08357e-13
-1.64981e-17
6.71934e-15
-1.0343e-12
6.46325e-16
4.76348e-15
-3.07259e-12
-1.22029e-15
1.98724e-14
-6.26773e-12
-5.73523e-16
3.73811e-14
-1.06573e-11
-9.3881e-16
8.28882e-14
-1.63357e-11
6.06704e-16
1.33954e-13
-2.33639e-11
-3.13805e-16
2.09715e-13
-3.1862e-11
-6.78417e-17
3.03214e-13
-4.19103e-11
-1.62334e-16
4.31096e-13
-5.36644e-11
1.81418e-16
5.82937e-13
-6.72203e-11
-2.36595e-16
7.76208e-13
-8.27444e-11
9.48005e-18
1.00618e-12
-1.00384e-10
-1.18286e-16
1.28332e-12
-1.20295e-10
4.27621e-17
1.60861e-12
-1.42665e-10
-1.56398e-17
1.98951e-12
-1.67661e-10
1.22404e-16
2.42908e-12
-1.95486e-10
2.10933e-17
2.93362e-12
-2.2634e-10
1.68794e-17
3.50864e-12
-2.60443e-10
-4.79057e-17
4.16014e-12
-2.98002e-10
-9.57929e-17
4.89364e-12
-3.39244e-10
-1.60937e-16
5.71487e-12
-3.84428e-10
-2.05851e-16
6.62901e-12
-4.33733e-10
-2.54431e-16
7.64114e-12
-4.87454e-10
-2.92737e-16
8.7553e-12
-5.45776e-10
-3.45062e-16
9.97514e-12
-6.08961e-10
-3.81004e-16
1.13029e-11
-6.77228e-10
-4.18621e-16
1.27397e-11
-7.50715e-10
-4.46897e-16
1.42848e-11
-8.29738e-10
-4.73879e-16
1.59354e-11
-9.14311e-10
-4.96235e-16
1.76863e-11
-1.00464e-09
-5.15887e-16
1.95299e-11
-1.10082e-09
-5.26557e-16
2.14552e-11
-1.20283e-09
-5.28379e-16
2.34477e-11
-1.31066e-09
-5.16326e-16
2.5489e-11
-1.42419e-09
-4.95043e-16
2.75564e-11
-1.54327e-09
-4.65852e-16
2.96225e-11
-1.66755e-09
-4.35436e-16
3.16559e-11
-1.79667e-09
-4.02031e-16
-1.93004e-09
-3.8224e-16
5.97013e-17
-1.08648e-13
-1.74126e-17
-8.02803e-17
-1.03729e-12
-3.55528e-16
1.43712e-15
-3.07766e-12
-3.25738e-16
3.92798e-14
-6.27289e-12
4.13552e-15
3.99711e-14
-1.06758e-11
-2.33321e-15
9.19345e-14
-1.63729e-11
1.64422e-15
1.35539e-13
-2.34042e-11
3.03479e-16
2.19091e-13
-3.1939e-11
8.53743e-16
3.06855e-13
-4.19989e-11
-1.00472e-16
4.37365e-13
-5.37932e-11
2.19988e-16
5.87123e-13
-6.73716e-11
-1.86661e-16
7.82252e-13
-8.29381e-11
1.60185e-16
1.01173e-12
-1.00614e-10
-3.26254e-17
1.2916e-12
-1.20573e-10
2.44936e-16
1.61997e-12
-1.42993e-10
7.06525e-17
2.0076e-12
-1.68046e-10
3.11265e-16
2.45521e-12
-1.95933e-10
1.51714e-17
2.97142e-12
-2.26856e-10
5.67152e-17
3.56094e-12
-2.61033e-10
-5.56951e-17
4.23045e-12
-2.98671e-10
-4.3928e-17
4.98554e-12
-3.39999e-10
-9.21358e-17
5.8321e-12
-3.85275e-10
-1.3275e-16
6.77549e-12
-4.34677e-10
-1.98573e-16
7.82092e-12
-4.88501e-10
-2.43929e-16
8.97258e-12
-5.4693e-10
-3.14375e-16
1.02342e-11
-6.10225e-10
-3.58114e-16
1.1608e-11
-6.78605e-10
-4.12187e-16
1.30949e-11
-7.52205e-10
-4.46086e-16
1.46942e-11
-8.31341e-10
-4.84829e-16
1.64029e-11
-9.16023e-10
-5.0985e-16
1.82152e-11
-1.00646e-09
-5.3822e-16
2.01232e-11
-1.10273e-09
-5.49261e-16
2.21151e-11
-1.20482e-09
-5.56384e-16
2.41757e-11
-1.31272e-09
-5.42502e-16
2.62856e-11
-1.4263e-09
-5.24234e-16
2.84209e-11
-1.54541e-09
-4.9259e-16
3.05531e-11
-1.66969e-09
-4.64802e-16
3.26491e-11
-1.79877e-09
-4.30227e-16
-1.93207e-09
-4.15031e-16
-2.1064e-16
-1.08846e-13
-4.50961e-17
2.46341e-15
-1.03871e-12
1.65528e-16
4.01619e-15
-3.08451e-12
-5.58232e-16
3.31271e-14
-6.28826e-12
1.81933e-15
2.02685e-14
-1.07057e-11
-5.39353e-15
6.6216e-14
-1.64233e-11
-6.84262e-16
1.03372e-13
-2.34489e-11
-1.02699e-15
1.89919e-13
-3.20183e-11
7.78931e-16
2.73472e-13
-4.20848e-11
-3.0466e-16
4.06687e-13
-5.39252e-11
1.34456e-16
5.55053e-13
-6.75234e-11
-3.44801e-16
7.55878e-13
-8.31385e-11
5.07493e-17
9.89759e-13
-1.0085e-10
-1.89482e-16
1.279e-12
-1.20861e-10
1.37017e-16
1.61712e-12
-1.43332e-10
-3.5249e-17
2.01765e-12
-1.68444e-10
2.80318e-16
2.47907e-12
-1.96395e-10
-3.96681e-17
3.0121e-12
-2.27388e-10
6.59972e-17
3.62087e-12
-2.61642e-10
-4.295e-17
4.31267e-12
-2.99364e-10
-8.50437e-17
5.09361e-12
-3.40781e-10
-1.33177e-16
5.96999e-12
-3.86153e-10
-1.71429e-16
6.94732e-12
-4.35656e-10
-2.26001e-16
8.0311e-12
-4.89587e-10
-2.72818e-16
9.22563e-12
-5.48127e-10
-3.35383e-16
1.05348e-11
-6.11537e-10
-3.81137e-16
1.19608e-11
-6.80035e-10
-4.28894e-16
1.35048e-11
-7.53753e-10
-4.65458e-16
1.51656e-11
-8.33006e-10
-4.99366e-16
1.694e-11
-9.17802e-10
-5.28072e-16
1.88219e-11
-1.00835e-09
-5.53811e-16
2.08028e-11
-1.10471e-09
-5.68774e-16
2.28701e-11
-1.20689e-09
-5.73643e-16
2.50078e-11
-1.31486e-09
-5.62686e-16
2.71953e-11
-1.42849e-09
-5.42319e-16
2.94076e-11
-1.54763e-09
-5.13099e-16
3.16146e-11
-1.6719e-09
-4.84176e-16
3.37816e-11
-1.80094e-09
-4.52928e-16
-1.93416e-09
-4.39447e-16
4.24443e-16
-1.09069e-13
2.83974e-17
3.03519e-16
-1.04119e-12
-3.05301e-16
2.11008e-15
-3.09018e-12
-4.51606e-16
1.13376e-14
-6.29756e-12
7.67554e-17
1.94183e-14
-1.07225e-11
-6.2591e-16
1.11729e-13
-1.64364e-11
1.01677e-14
1.2265e-13
-2.35063e-11
-6.15448e-15
2.05809e-13
-3.20953e-11
4.17292e-16
2.93614e-13
-4.21703e-11
-2.9162e-17
4.23232e-13
-5.40536e-11
2.02198e-16
5.75784e-13
-6.76756e-11
9.58774e-17
7.73548e-13
-8.33362e-11
2.37832e-17
1.00896e-12
-1.01086e-10
-5.89437e-17
1.30056e-12
-1.2115e-10
2.67822e-16
1.64301e-12
-1.43675e-10
-6.9695e-18
2.05173e-12
-1.68849e-10
3.85472e-16
2.52411e-12
-1.96868e-10
-5.88004e-17
3.07255e-12
-2.27936e-10
9.75492e-17
3.70047e-12
-2.6227e-10
-5.9552e-17
4.41589e-12
-3.00079e-10
-4.2397e-17
5.22496e-12
-3.41591e-10
-7.23015e-17
6.13408e-12
-3.87062e-10
-1.00406e-16
7.149e-12
-4.36672e-10
-1.66647e-16
8.27539e-12
-4.90715e-10
-2.15739e-16
9.51773e-12
-5.49372e-10
-2.94519e-16
1.088e-11
-6.12902e-10
-3.46096e-16
1.23644e-11
-6.81522e-10
-4.08322e-16
1.3972e-11
-7.55364e-10
-4.49509e-16
1.57015e-11
-8.34739e-10
-4.94461e-16
1.75493e-11
-9.19654e-10
-5.25658e-16
1.95089e-11
-1.01031e-09
-5.59424e-16
2.15711e-11
-1.10678e-09
-5.74755e-16
2.37226e-11
-1.20905e-09
-5.84678e-16
2.59462e-11
-1.31709e-09
-5.72436e-16
2.82204e-11
-1.43077e-09
-5.55434e-16
3.05185e-11
-1.54993e-09
-5.24593e-16
3.28089e-11
-1.6742e-09
-4.98807e-16
3.5055e-11
-1.80319e-09
-4.67331e-16
-1.93632e-09
-4.59177e-16
1.95507e-16
-1.09239e-13
5.11564e-18
1.9563e-15
-1.0426e-12
4.7884e-17
6.30944e-15
-3.09738e-12
-3.33467e-16
1.05949e-14
-6.31442e-12
-1.4754e-15
1.53654e-14
-1.07543e-11
-2.94496e-15
9.3861e-14
-1.64695e-11
5.99389e-15
8.40487e-14
-2.35884e-11
-1.17178e-14
1.47347e-13
-3.21948e-11
-4.52623e-15
2.3722e-13
-4.22614e-11
-7.32923e-16
3.74977e-13
-5.41909e-11
-1.41109e-16
5.37846e-13
-6.78328e-11
6.58293e-16
7.45951e-13
-8.3542e-11
2.19226e-16
9.93576e-13
-1.01334e-10
1.67887e-16
1.29882e-12
-1.21453e-10
2.95737e-16
1.65595e-12
-1.44032e-10
-4.49558e-18
2.08149e-12
-1.69272e-10
3.75693e-16
2.57217e-12
-1.97359e-10
-7.76446e-17
3.1419e-12
-2.28505e-10
1.07944e-16
3.79405e-12
-2.62923e-10
-4.45556e-17
4.53733e-12
-3.00823e-10
-8.48774e-17
5.3785e-12
-3.42433e-10
-1.26961e-16
6.32458e-12
-3.8801e-10
-1.5714e-16
7.38158e-12
-4.37731e-10
-2.10542e-16
8.55549e-12
-4.9189e-10
-2.57972e-16
9.85094e-12
-5.50669e-10
-3.26024e-16
1.12721e-11
-6.14326e-10
-3.75014e-16
1.28212e-11
-6.83075e-10
-4.26565e-16
1.44992e-11
-7.57045e-10
-4.65982e-16
1.63046e-11
-8.36549e-10
-5.03194e-16
1.82335e-11
-9.21587e-10
-5.35231e-16
2.02789e-11
-1.01236e-09
-5.64665e-16
2.24308e-11
-1.10894e-09
-5.82416e-16
2.46752e-11
-1.2113e-09
-5.89578e-16
2.69936e-11
-1.31942e-09
-5.79889e-16
2.93633e-11
-1.43315e-09
-5.60963e-16
3.1756e-11
-1.55233e-09
-5.32547e-16
3.41383e-11
-1.67658e-09
-5.05734e-16
3.64717e-11
-1.80553e-09
-4.77611e-16
-1.93857e-09
-4.71244e-16
6.07882e-16
-1.09422e-13
5.42357e-17
8.42951e-16
-1.0447e-12
-2.17888e-16
4.83366e-15
-3.10242e-12
-1.24146e-16
1.193e-14
-6.32514e-12
-4.1747e-16
1.23034e-14
-1.07713e-11
-1.92213e-15
4.56842e-14
-1.65032e-11
3.30225e-16
8.43763e-14
-2.3624e-11
1.35861e-15
2.94399e-13
-3.22373e-11
2.1014e-14
2.87838e-13
-4.23745e-11
-1.47605e-14
4.11702e-13
-5.43093e-11
3.91629e-16
5.77522e-13
-6.80065e-11
-1.41086e-15
7.73154e-13
-8.37454e-11
-9.4835e-16
1.03155e-12
-1.01589e-10
4.3593e-16
1.33696e-12
-1.21757e-10
1.94599e-16
1.70255e-12
-1.44398e-10
4.02183e-17
2.13808e-12
-1.69704e-10
4.06244e-16
2.64369e-12
-1.97866e-10
-9.46594e-17
3.23291e-12
-2.29093e-10
1.15181e-16
3.90941e-12
-2.636e-10
-6.00017e-17
4.6823e-12
-3.01596e-10
-3.49673e-17
5.5584e-12
-3.43309e-10
-6.57426e-17
6.54489e-12
-3.88997e-10
-9.00244e-17
7.64807e-12
-4.38835e-10
-1.55794e-16
8.87415e-12
-4.93118e-10
-2.04213e-16
1.0228e-11
-5.52025e-10
-2.85966e-16
1.17138e-11
-6.15814e-10
-3.38359e-16
1.33339e-11
-6.84698e-10
-4.02094e-16
1.50891e-11
-7.58804e-10
-4.44472e-16
1.69778e-11
-8.38441e-10
-4.91013e-16
1.89956e-11
-9.23609e-10
-5.24604e-16
2.11349e-11
-1.0145e-09
-5.60966e-16
2.3385e-11
-1.11119e-09
-5.78764e-16
2.57308e-11
-1.21365e-09
-5.90384e-16
2.8153e-11
-1.32184e-09
-5.7948e-16
3.06269e-11
-1.43562e-09
-5.63578e-16
3.31229e-11
-1.55483e-09
-5.3355e-16
3.56055e-11
-1.67907e-09
-5.09348e-16
3.80341e-11
-1.80796e-09
-4.80777e-16
-1.9409e-09
-4.7905e-16
3.56028e-16
-1.09585e-13
2.55382e-17
8.23237e-16
-1.04635e-12
-1.35574e-16
5.47754e-15
-3.10786e-12
-8.92411e-17
1.26384e-14
-6.33887e-12
-7.88164e-16
1.75367e-14
-1.07948e-11
-2.21403e-15
4.71808e-14
-1.65473e-11
-1.51213e-15
6.65256e-14
-2.3677e-11
-3.15779e-15
2.49974e-13
-3.22981e-11
1.59166e-14
2.44308e-13
-4.24932e-11
-1.56215e-14
3.74693e-13
-5.44367e-11
-1.20865e-16
5.5241e-13
-6.8186e-11
-8.1327e-16
7.59211e-13
-8.39571e-11
-7.17883e-16
1.03258e-12
-1.01856e-10
7.72931e-16
1.35387e-12
-1.22076e-10
2.55555e-16
1.7375e-12
-1.44781e-10
9.45775e-17
2.19323e-12
-1.70156e-10
4.07856e-16
2.72128e-12
-1.98395e-10
-9.99675e-17
3.33636e-12
-2.29707e-10
1.30741e-16
4.04246e-12
-2.64306e-10
-3.71374e-17
4.84932e-12
-3.02404e-10
-6.45738e-17
5.76451e-12
-3.44225e-10
-9.9867e-17
6.79582e-12
-3.90029e-10
-1.25902e-16
7.94988e-12
-4.39991e-10
-1.82711e-16
9.23325e-12
-4.94403e-10
-2.3242e-16
1.0651e-11
-5.53445e-10
-3.06731e-16
1.22075e-11
-6.17373e-10
-3.58558e-16
1.39051e-11
-6.86399e-10
-4.14519e-16
1.57446e-11
-7.60646e-10
-4.55571e-16
1.77239e-11
-8.40424e-10
-4.94706e-16
1.98385e-11
-9.25727e-10
-5.28077e-16
2.20799e-11
-1.01675e-09
-5.59717e-16
2.44368e-11
-1.11355e-09
-5.78866e-16
2.68929e-11
-1.21611e-09
-5.8732e-16
2.94275e-11
-1.32438e-09
-5.78165e-16
3.20146e-11
-1.43822e-09
-5.59957e-16
3.46225e-11
-1.55744e-09
-5.31586e-16
3.72138e-11
-1.68166e-09
-5.05759e-16
3.97454e-11
-1.8105e-09
-4.79766e-16
-1.94332e-09
-4.79021e-16
5.16845e-16
-1.0976e-13
4.34279e-17
9.91858e-16
-1.0482e-12
-1.57713e-16
5.61936e-15
-3.11377e-12
-1.50921e-16
1.03283e-14
-6.35131e-12
-9.16506e-16
1.94851e-14
-1.08175e-11
-1.59862e-15
4.67965e-14
-1.65833e-11
-8.38439e-16
7.21936e-14
-2.37356e-11
-3.19046e-15
2.71949e-13
-3.23775e-11
1.55009e-14
2.63809e-13
-4.26038e-11
-1.49937e-14
4.11936e-13
-5.45698e-11
1.41858e-15
5.87774e-13
-6.83659e-11
-1.06654e-15
7.997e-13
-8.41743e-11
-7.51567e-16
1.07879e-12
-1.02129e-10
8.27448e-16
1.4082e-12
-1.22403e-10
2.59772e-16
1.80314e-12
-1.45176e-10
1.25161e-16
2.27456e-12
-1.70623e-10
4.69013e-16
2.82225e-12
-1.98944e-10
-1.40515e-16
3.46253e-12
-2.30346e-10
1.4313e-16
4.19901e-12
-2.65043e-10
-6.60268e-17
5.0422e-12
-3.03247e-10
-3.41992e-17
5.99985e-12
-3.45183e-10
-5.09026e-17
7.07994e-12
-3.91109e-10
-6.97798e-17
8.28944e-12
-4.41201e-10
-1.39334e-16
9.6352e-12
-4.9575e-10
-1.90335e-16
1.11225e-11
-5.54935e-10
-2.74911e-16
1.27559e-11
-6.19009e-10
-3.27577e-16
1.45377e-11
-6.88183e-10
-3.93025e-16
1.64685e-11
-7.6258e-10
-4.34993e-16
1.85462e-11
-8.42506e-10
-4.80873e-16
2.07654e-11
-9.2795e-10
-5.14186e-16
2.31174e-11
-1.01911e-09
-5.51001e-16
2.55896e-11
-1.11603e-09
-5.6928e-16
2.81648e-11
-1.21869e-09
-5.80885e-16
3.08207e-11
-1.32704e-09
-5.69788e-16
3.35298e-11
-1.44093e-09
-5.53344e-16
3.62584e-11
-1.56017e-09
-5.22537e-16
3.89667e-11
-1.68438e-09
-4.9811e-16
4.16091e-11
-1.81314e-09
-4.71026e-16
-1.94585e-09
-4.73878e-16
4.73492e-16
-1.09921e-13
3.98344e-17
9.31281e-16
-1.0499e-12
-1.41939e-16
5.48279e-15
-3.11971e-12
-1.61421e-16
9.90401e-15
-6.36451e-12
-1.04328e-15
1.8887e-14
-1.08409e-11
-1.71589e-15
4.84825e-14
-1.66209e-11
-7.60568e-16
7.13074e-14
-2.37915e-11
-3.20554e-15
2.69049e-13
-3.24542e-11
1.54846e-14
2.59661e-13
-4.2713e-11
-1.5001e-14
4.1147e-13
-5.47071e-11
1.32425e-15
5.92309e-13
-6.85513e-11
-1.13966e-15
8.14299e-13
-8.44035e-11
-9.94008e-16
1.10515e-12
-1.02415e-10
6.08556e-16
1.45103e-12
-1.22749e-10
-1.83148e-17
1.86533e-12
-1.45591e-10
-6.64188e-17
2.36052e-12
-1.71115e-10
3.93484e-16
2.93387e-12
-1.9952e-10
-3.05974e-16
3.60492e-12
-2.31016e-10
1.13723e-16
4.37664e-12
-2.65816e-10
-9.97152e-17
5.2604e-12
-3.04132e-10
-1.03294e-16
6.26479e-12
-3.46189e-10
-1.15546e-16
7.39832e-12
-3.92244e-10
-1.30622e-16
8.66828e-12
-4.42473e-10
-1.8955e-16
1.00819e-11
-4.97166e-10
-2.37461e-16
1.16447e-11
-5.565e-10
-3.10927e-16
1.33614e-11
-6.20728e-10
-3.58372e-16
1.52343e-11
-6.9006e-10
-4.13409e-16
1.72638e-11
-7.64613e-10
-4.50254e-16
1.94476e-11
-8.44693e-10
-4.86319e-16
2.17798e-11
-9.30287e-10
-5.16371e-16
2.42507e-11
-1.02158e-09
-5.46815e-16
2.68471e-11
-1.11863e-09
-5.64315e-16
2.95503e-11
-1.2214e-09
-5.71571e-16
3.23366e-11
-1.32983e-09
-5.60518e-16
3.51766e-11
-1.44377e-09
-5.40585e-16
3.80345e-11
-1.56304e-09
-5.09945e-16
4.08681e-11
-1.68722e-09
-4.82948e-16
4.36293e-11
-1.81591e-09
-4.57599e-16
-1.94849e-09
-4.60723e-16
4.79348e-16
-1.10094e-13
3.92539e-17
6.57251e-16
-1.05174e-12
-1.93742e-16
5.54576e-15
-3.12544e-12
-9.85881e-17
1.21833e-14
-6.3771e-12
-7.03653e-16
2.01309e-14
-1.08643e-11
-1.8261e-15
5.17725e-14
-1.66591e-11
-6.12217e-16
7.7945e-14
-2.38492e-11
-3.03529e-15
2.83076e-13
-3.25361e-11
1.57819e-14
2.77268e-13
-4.28258e-11
-1.50319e-14
4.34506e-13
-5.48535e-11
9.09327e-16
6.26159e-13
-6.87391e-11
-1.11376e-16
8.61231e-13
-8.46364e-11
1.34877e-16
1.1606e-12
-1.02706e-10
1.06458e-15
1.52116e-12
-1.23103e-10
8.28085e-16
1.95146e-12
-1.46018e-10
4.49865e-16
2.46987e-12
-1.71624e-10
1.15561e-15
3.06743e-12
-2.0012e-10
-2.47434e-16
3.77015e-12
-2.31716e-10
2.59934e-16
4.57897e-12
-2.66625e-10
-9.04853e-17
5.50648e-12
-3.0506e-10
-8.94589e-17
6.5616e-12
-3.47244e-10
-8.38483e-17
7.75311e-12
-3.93436e-10
-8.73637e-17
9.08865e-12
-4.43809e-10
-1.54345e-16
1.05758e-11
-4.98654e-10
-2.02764e-16
1.22202e-11
-5.58146e-10
-2.84226e-16
1.40268e-11
-6.22538e-10
-3.31398e-16
1.59979e-11
-6.92034e-10
-3.934e-16
1.81338e-11
-7.66752e-10
-4.29859e-16
2.04317e-11
-8.46995e-10
-4.70841e-16
2.28852e-11
-9.32744e-10
-4.99876e-16
2.54839e-11
-1.02418e-09
-5.33846e-16
2.82133e-11
-1.12136e-09
-5.49552e-16
3.10536e-11
-1.22424e-09
-5.5842e-16
3.39794e-11
-1.33276e-09
-5.44406e-16
3.69593e-11
-1.44676e-09
-5.24625e-16
3.99553e-11
-1.56604e-09
-4.90584e-16
4.29226e-11
-1.69019e-09
-4.63865e-16
4.58102e-11
-1.8188e-09
-4.37031e-16
-1.95124e-09
-4.4286e-16
5.04416e-16
-1.10261e-13
4.29587e-17
6.7159e-16
-1.05356e-12
-1.91857e-16
5.65734e-15
-3.13148e-12
-1.23119e-16
1.28181e-14
-6.3907e-12
-7.62823e-16
2.14352e-14
-1.08887e-11
-1.86314e-15
5.505e-14
-1.6699e-11
-5.70885e-16
8.298e-14
-2.39082e-11
-2.97051e-15
2.91141e-13
-3.26198e-11
1.59343e-14
2.88831e-13
-4.29405e-11
-1.48549e-14
4.51602e-13
-5.50044e-11
9.96155e-16
6.51117e-13
-6.89352e-11
-1.66724e-16
8.97869e-13
-8.48829e-11
-7.9428e-17
1.21107e-12
-1.03013e-10
8.22817e-16
1.58979e-12
-1.23477e-10
5.65345e-16
2.04208e-12
-1.46469e-10
2.62559e-16
2.58744e-12
-1.7216e-10
1.06742e-15
3.21526e-12
-2.00752e-10
-4.10252e-16
3.95428e-12
-2.32453e-10
2.24549e-16
4.80491e-12
-2.67477e-10
-1.37678e-16
5.78064e-12
-3.06037e-10
-1.45473e-16
6.89112e-12
-3.48356e-10
-1.32992e-16
8.14565e-12
-3.94692e-10
-1.31565e-16
9.55223e-12
-4.45217e-10
-1.89485e-16
1.11188e-11
-5.00223e-10
-2.35912e-16
1.28513e-11
-5.59881e-10
-3.11226e-16
1.47547e-11
-6.24444e-10
-3.55076e-16
1.68314e-11
-6.94114e-10
-4.0869e-16
1.90815e-11
-7.69006e-10
-4.40283e-16
2.15018e-11
-8.49419e-10
-4.72736e-16
2.40853e-11
-9.35331e-10
-4.97965e-16
2.68206e-11
-1.02692e-09
-5.25444e-16
2.96923e-11
-1.12424e-09
-5.39038e-16
3.2679e-11
-1.22723e-09
-5.42864e-16
3.57536e-11
-1.33584e-09
-5.27388e-16
3.88825e-11
-1.44989e-09
-5.03146e-16
4.20255e-11
-1.56918e-09
-4.68014e-16
4.51348e-11
-1.6933e-09
-4.38126e-16
4.81566e-11
-1.82183e-09
-4.12384e-16
-1.95412e-09
-4.17849e-16
4.75758e-16
-1.10442e-13
3.78725e-17
7.07954e-16
-1.05549e-12
-1.97096e-16
5.95885e-15
-3.13785e-12
-1.31891e-16
1.36827e-14
-6.40466e-12
-7.38559e-16
2.37886e-14
-1.09142e-11
-1.82374e-15
5.91619e-14
-1.67403e-11
-5.26582e-16
9.07586e-14
-2.39705e-11
-2.92486e-15
3.04104e-13
-3.27084e-11
1.59469e-14
3.07545e-13
-4.30619e-11
-1.49477e-14
4.78335e-13
-5.51647e-11
8.46996e-16
6.8831e-13
-6.91415e-11
-1.41872e-16
9.47969e-13
-8.51426e-11
-1.30995e-16
1.27664e-12
-1.03335e-10
8.36176e-16
1.67391e-12
-1.2387e-10
5.27862e-16
2.14925e-12
-1.46943e-10
2.92697e-16
2.72226e-12
-1.72724e-10
1.09617e-15
3.38283e-12
-2.01416e-10
-4.10299e-16
4.1608e-12
-2.33228e-10
2.62936e-16
5.0566e-12
-2.68374e-10
-1.49505e-16
6.08467e-12
-3.07066e-10
-1.41147e-16
7.25519e-12
-3.49527e-10
-1.1419e-16
8.57787e-12
-3.96015e-10
-1.02623e-16
1.00612e-11
-4.46702e-10
-1.61794e-16
1.17133e-11
-5.01876e-10
-2.05872e-16
1.35406e-11
-5.61711e-10
-2.86832e-16
1.55481e-11
-6.26454e-10
-3.29838e-16
1.77381e-11
-6.96307e-10
-3.87915e-16
2.01105e-11
-7.71382e-10
-4.18454e-16
2.26617e-11
-8.51973e-10
-4.54604e-16
2.53841e-11
-9.38057e-10
-4.78524e-16
2.82653e-11
-1.02981e-09
-5.08172e-16
3.12886e-11
-1.12727e-09
-5.19359e-16
3.44311e-11
-1.23038e-09
-5.2344e-16
3.76639e-11
-1.33908e-09
-5.0425e-16
4.09512e-11
-1.45318e-09
-4.78804e-16
4.425e-11
-1.57249e-09
-4.39602e-16
4.75099e-11
-1.69656e-09
-4.09074e-16
5.06736e-11
-1.82499e-09
-3.81536e-16
-1.95712e-09
-3.8881e-16
5.0344e-16
-1.10624e-13
4.1091e-17
7.48369e-16
-1.05748e-12
-2.03063e-16
6.22792e-15
-3.14448e-12
-1.35338e-16
1.47599e-14
-6.41936e-12
-7.31468e-16
2.64067e-14
-1.0941e-11
-1.79673e-15
6.44e-14
-1.67837e-11
-4.69862e-16
9.95986e-14
-2.40358e-11
-2.85198e-15
3.17678e-13
-3.2801e-11
1.60329e-14
3.2734e-13
-4.31885e-11
-1.4836e-14
5.06315e-13
-5.53321e-11
9.68052e-16
7.27034e-13
-6.93576e-11
-3.44942e-17
1.0006e-12
-8.54155e-11
-4.76577e-17
1.34666e-12
-1.03674e-10
9.13812e-16
1.76539e-12
-1.24284e-10
5.55784e-16
2.26683e-12
-1.47442e-10
3.23449e-16
2.87083e-12
-1.73319e-10
1.0874e-15
3.56809e-12
-2.02117e-10
-4.09687e-16
4.38894e-12
-2.34047e-10
2.64038e-16
5.33439e-12
-2.69321e-10
-1.61231e-16
6.41947e-12
-3.08152e-10
-1.79163e-16
7.65501e-12
-3.50764e-10
-1.73513e-16
9.05132e-12
-3.97413e-10
-1.65235e-16
1.06173e-11
-4.4827e-10
-2.16756e-16
1.23616e-11
-5.03623e-10
-2.54286e-16
1.42907e-11
-5.63643e-10
-3.2646e-16
1.64097e-11
-6.28576e-10
-3.61329e-16
1.87211e-11
-6.98621e-10
-4.07669e-16
2.12243e-11
-7.73888e-10
-4.29774e-16
2.39153e-11
-8.54668e-10
-4.56057e-16
2.67857e-11
-9.40931e-10
-4.74136e-16
2.98222e-11
-1.03285e-09
-4.96508e-16
3.30068e-11
-1.13046e-09
-5.04027e-16
3.63149e-11
-1.23369e-09
-5.02461e-16
3.97155e-11
-1.34248e-09
-4.80535e-16
4.31706e-11
-1.45664e-09
-4.50021e-16
4.66343e-11
-1.57595e-09
-4.08755e-16
5.00533e-11
-1.69999e-09
-3.74674e-16
5.33668e-11
-1.82831e-09
-3.47629e-16
-1.96027e-09
-3.53909e-16
4.81355e-16
-1.10823e-13
3.62482e-17
8.61802e-16
-1.05957e-12
-1.98265e-16
6.84065e-15
-3.15156e-12
-1.30818e-16
1.62964e-14
-6.43481e-12
-7.11193e-16
2.93653e-14
-1.09693e-11
-1.79777e-15
7.00826e-14
-1.68295e-11
-4.33329e-16
1.09122e-13
-2.41047e-11
-2.83063e-15
3.32631e-13
-3.28992e-11
1.60372e-14
3.4992e-13
-4.33226e-11
-1.48292e-14
5.38703e-13
-5.55096e-11
9.29898e-16
7.71971e-13
-6.95866e-11
-7.46666e-17
1.06107e-12
-8.57046e-11
-1.27318e-16
1.42666e-12
-1.04032e-10
8.96776e-16
1.86891e-12
-1.24722e-10
5.24256e-16
2.39876e-12
-1.4797e-10
3.18422e-16
3.03639e-12
-1.73947e-10
1.06333e-15
3.77349e-12
-2.02858e-10
-4.0522e-16
4.6407e-12
-2.34911e-10
2.48647e-16
5.63978e-12
-2.70322e-10
-1.78601e-16
6.78661e-12
-3.09301e-10
-1.61138e-16
8.09243e-12
-3.52071e-10
-1.46589e-16
9.56813e-12
-3.98889e-10
-1.33436e-16
1.12231e-11
-4.49926e-10
-1.84649e-16
1.30663e-11
-5.05468e-10
-2.192e-16
1.51045e-11
-5.65683e-10
-2.95046e-16
1.73429e-11
-6.30817e-10
-3.29797e-16
1.97839e-11
-7.01065e-10
-3.802e-16
2.24266e-11
-7.76534e-10
-4.02432e-16
2.52666e-11
-8.57511e-10
-4.32211e-16
2.82946e-11
-9.43963e-10
-4.49762e-16
3.14962e-11
-1.03606e-09
-4.73865e-16
3.48519e-11
-1.13382e-09
-4.7925e-16
3.83355e-11
-1.23718e-09
-4.77218e-16
4.19138e-11
-1.34607e-09
-4.51486e-16
4.55463e-11
-1.46028e-09
-4.18977e-16
4.91842e-11
-1.57959e-09
-3.73473e-16
5.27708e-11
-1.70358e-09
-3.38136e-16
5.6242e-11
-1.83178e-09
-3.09072e-16
-1.96355e-09
-3.16149e-16
5.43522e-16
-1.11025e-13
4.5344e-17
9.18004e-16
-1.06181e-12
-2.16918e-16
7.36539e-15
-3.15893e-12
-1.14502e-16
1.79451e-14
-6.45114e-12
-6.79149e-16
3.31201e-14