/*--------------------------------*- C++ -*----------------------------------*\
| =========                 |                                                 |
| \\      /  F ield         | OpenFOAM: The Open Source CFD Toolbox           |
|  \\    /   O peration     | Version:  v2012                                 |
|   \\  /    A nd           | Website:  www.openfoam.com                      |
|    \\/     M anipulation  |                                                 |
\*---------------------------------------------------------------------------*/
FoamFile
{
    version     2.0;
    format      ascii;
    class       surfaceScalarField;
    location    "0.2";
    object      phi;
}
// * * * * * * * * * * * * * * * * * * * * * * * * * * * * * * * * * * * * * //

dimensions      [0 3 -1 0 0 0 0];
oriented        oriented;


internalField   nonuniform List<scalar> 
49380
(
2.15139e-11
-6.70235e-09
3.13727e-15
5.70548e-11
-2.0969e-08
3.02237e-15
2.03455e-10
-3.58995e-08
-1.24914e-17
1.62964e-10
-5.00688e-08
-9.19827e-15
4.92204e-10
-7.05139e-08
4.76863e-15
1.03213e-09
-9.02395e-08
-4.16857e-15
1.53085e-09
-9.24591e-08
6.45965e-15
1.78233e-09
-7.36502e-08
1.72749e-15
1.77431e-09
-7.53267e-08
-3.90274e-16
1.81702e-09
-8.53096e-08
-3.36607e-16
1.87995e-09
-9.42227e-08
-1.62605e-16
1.94295e-09
-1.01423e-07
-2.27951e-16
1.99669e-09
-1.06963e-07
-1.46211e-16
2.03483e-09
-1.11456e-07
-2.52493e-16
2.05454e-09
-1.15639e-07
-3.22796e-16
2.05396e-09
-1.19895e-07
-2.94912e-16
2.0315e-09
-1.24355e-07
-3.42826e-16
1.98565e-09
-1.2898e-07
-3.54502e-16
1.91519e-09
-1.33636e-07
-4.16744e-16
1.81925e-09
-1.38154e-07
-4.20501e-16
1.69737e-09
-1.42366e-07
-4.32649e-16
1.54949e-09
-1.46129e-07
-4.71724e-16
1.37598e-09
-1.49289e-07
-5.2952e-16
1.17757e-09
-1.51753e-07
-5.91905e-16
9.55393e-10
-1.53402e-07
-6.23669e-16
7.10976e-10
-1.54158e-07
-6.50624e-16
4.46314e-10
-1.53935e-07
-6.72788e-16
1.6399e-10
-1.52638e-07
-6.86338e-16
-1.32791e-10
-1.50215e-07
-6.97783e-16
-4.39938e-10
-1.46557e-07
-7.85651e-16
-7.52372e-10
-1.41604e-07
-6.65501e-16
-1.06378e-09
-1.35274e-07
-6.0584e-16
-1.36633e-09
-1.27486e-07
-5.88709e-16
-1.65028e-09
-1.18171e-07
-5.64832e-16
-1.90349e-09
-1.07258e-07
-5.35264e-16
-2.11057e-09
-9.46932e-08
-5.00504e-16
-2.25126e-09
-8.04246e-08
-4.6043e-16
-2.29849e-09
-6.44267e-08
-4.14172e-16
-2.20878e-09
-4.66916e-08
-3.58893e-16
-1.93139e-09
-2.72736e-08
-2.9005e-16
-1.23698e-09
-6.31282e-09
-2.08243e-16
-6.04284e-10
1.63603e-08
-5.03373e-17
-4.56561e-10
4.06523e-08
-1.99534e-17
-3.94115e-10
6.61162e-08
-1.08531e-17
-3.6701e-10
9.26342e-08
-5.73864e-18
-3.48532e-10
1.20088e-07
-1.01097e-18
-3.31549e-10
1.48016e-07
6.55443e-18
-3.13176e-10
1.76033e-07
3.59691e-19
-2.92329e-10
2.03494e-07
-4.51276e-18
-2.68583e-10
2.29686e-07
-3.62294e-18
-2.41899e-10
2.53763e-07
-2.83848e-18
-2.12537e-10
2.74483e-07
-1.75168e-18
-1.80997e-10
2.90517e-07
-5.24979e-18
-1.48025e-10
3.0018e-07
-5.14138e-18
-1.1464e-10
3.01306e-07
-5.07232e-18
-8.21374e-11
2.91277e-07
-4.94763e-18
-5.21363e-11
2.66921e-07
-3.71987e-18
-2.659e-11
2.24163e-07
-6.1148e-18
-8.06848e-12
1.58105e-07
-5.26063e-18
6.24871e-08
-3.55855e-18
3.04715e-11
-6.73281e-09
4.04935e-15
6.95887e-11
-2.10081e-08
6.70784e-16
2.6823e-10
-3.60981e-08
-1.37263e-15
1.12766e-10
-4.99133e-08
-9.112e-15
5.47864e-10
-7.09491e-08
8.9458e-16
1.18408e-09
-9.08757e-08
-5.46573e-15
1.76021e-09
-9.30352e-08
-4.15062e-15
1.95131e-09
-7.38413e-08
-1.89541e-17
1.8728e-09
-7.52482e-08
4.83914e-16
1.90521e-09
-8.5342e-08
-3.43139e-16
1.9772e-09
-9.42947e-08
-2.72256e-16
2.05114e-09
-1.01497e-07
-9.04543e-17
2.1119e-09
-1.07023e-07
-2.77183e-16
2.15086e-09
-1.11495e-07
-1.2027e-16
2.16553e-09
-1.15654e-07
-2.09603e-16
2.15529e-09
-1.19885e-07
-2.24874e-16
2.11989e-09
-1.2432e-07
-3.53817e-16
2.05924e-09
-1.28919e-07
-4.45631e-16
1.97331e-09
-1.3355e-07
-4.83338e-16
1.86223e-09
-1.38043e-07
-4.20177e-16
1.72622e-09
-1.4223e-07
-4.43748e-16
1.56563e-09
-1.45968e-07
-5.08666e-16
1.38099e-09
-1.49104e-07
-5.80334e-16
1.17298e-09
-1.51544e-07
-6.28726e-16
9.42569e-10
-1.53172e-07
-6.53932e-16
6.91066e-10
-1.53907e-07
-6.82118e-16
4.20223e-10
-1.53664e-07
-6.97915e-16
1.32396e-10
-1.5235e-07
-7.06e-16
-1.69414e-10
-1.49913e-07
-7.12758e-16
-4.8129e-10
-1.46245e-07
-7.01854e-16
-7.9831e-10
-1.41287e-07
-5.88978e-16
-1.11432e-09
-1.34958e-07
-6.16992e-16
-1.42166e-09
-1.27179e-07
-6.02678e-16
-1.71086e-09
-1.17881e-07
-5.77549e-16
-1.97023e-09
-1.06999e-07
-5.47163e-16
-2.18519e-09
-9.44782e-08
-5.11275e-16
-2.33725e-09
-8.02725e-08
-4.70243e-16
-2.40324e-09
-6.43608e-08
-4.22417e-16
-2.35148e-09
-4.67434e-08
-3.63488e-16
-2.16107e-09
-2.7464e-08
-2.8954e-16
-1.82426e-09
-6.64961e-09
-2.00854e-16
-1.48202e-09
1.6018e-08
-9.59216e-17
-1.28124e-09
4.04516e-08
-5.14206e-17
-1.16374e-09
6.59987e-08
-2.71184e-17
-1.09667e-09
9.25672e-08
-1.1811e-17
-1.04502e-09
1.20036e-07
3.5015e-18
-9.95158e-10
1.47966e-07
2.28471e-17
-9.40468e-10
1.75978e-07
-2.17768e-17
-8.78101e-10
2.03432e-07
-4.24558e-17
-8.06915e-10
2.29615e-07
-4.1645e-17
-7.26828e-10
2.53683e-07
-3.98351e-17
-6.38635e-10
2.74395e-07
-3.6163e-17
-5.43839e-10
2.90422e-07
-4.63232e-17
-4.44684e-10
3.00081e-07
-4.41195e-17
-3.44225e-10
3.01205e-07
-4.15999e-17
-2.46382e-10
2.91179e-07
-3.8572e-17
-1.56024e-10
2.66831e-07
-3.14552e-17
-7.92037e-11
2.24086e-07
-3.67767e-17
-2.35645e-11
1.58049e-07
-3.13398e-17
6.24635e-08
-2.54119e-17
2.27191e-11
-6.75552e-09
3.54641e-15
5.43539e-11
-2.10398e-08
-1.73346e-15
2.10338e-10
-3.62541e-08
-6.29024e-15
8.20543e-11
-4.9785e-08
-4.55889e-15
5.27637e-10
-7.13946e-08
3.13957e-15
1.1273e-09
-9.14754e-08
-3.89412e-15
1.70853e-09
-9.36164e-08
-5.01608e-15
2.02318e-09
-7.4156e-08
-4.7811e-15
2.0117e-09
-7.52367e-08
-2.23624e-16
2.04007e-09
-8.53704e-08
-1.54518e-16
2.09556e-09
-9.43502e-08
-1.85951e-16
2.15478e-09
-1.01556e-07
-1.00004e-16
2.20602e-09
-1.07075e-07
-2.6433e-16
2.24021e-09
-1.11529e-07
-1.87611e-16
2.25252e-09
-1.15666e-07
-2.69522e-16
2.23992e-09
-1.19872e-07
-1.78569e-16
2.20064e-09
-1.24281e-07
-3.77239e-16
2.13388e-09
-1.28852e-07
-4.1659e-16
2.03964e-09
-1.33456e-07
-4.69614e-16
1.91849e-09
-1.37922e-07
-4.17625e-16
1.77123e-09
-1.42082e-07
-4.19081e-16
1.59876e-09
-1.45796e-07
-4.76494e-16
1.40207e-09
-1.48908e-07
-5.57678e-16
1.18216e-09
-1.51325e-07
-6.18904e-16
9.40167e-10
-1.5293e-07
-6.53744e-16
6.77446e-10
-1.53644e-07
-6.81667e-16
3.95725e-10
-1.53382e-07
-7.0019e-16
9.72808e-11
-1.52051e-07
-7.09154e-16
-2.14995e-10
-1.496e-07
-7.1899e-16
-5.37307e-10
-1.45923e-07
-7.41111e-16
-8.6488e-10
-1.40959e-07
-6.26614e-16
-1.19174e-09
-1.34631e-07
-6.24529e-16
-1.5105e-09
-1.2686e-07
-6.09381e-16
-1.81212e-09
-1.1758e-07
-5.84101e-16
-2.08564e-09
-1.06725e-07
-5.53994e-16
-2.31788e-09
-9.4246e-08
-5.18622e-16
-2.49307e-09
-8.00973e-08
-4.78822e-16
-2.5937e-09
-6.42601e-08
-4.32522e-16
-2.60116e-09
-4.67359e-08
-3.74409e-16
-2.51563e-09
-2.75495e-08
-3.0184e-16
-2.37486e-09
-6.79036e-09
-2.19231e-16
-2.20665e-09
1.58498e-08
-1.34472e-16
-2.0378e-09
4.02828e-08
-8.0541e-17
-1.9084e-09
6.58693e-08
-4.48435e-17
-1.81719e-09
9.2476e-08
-2.14597e-17
-1.73827e-09
1.19958e-07
1.51128e-18
-1.65789e-09
1.47886e-07
2.30347e-17
-1.56794e-09
1.75888e-07
-4.86481e-17
-1.46454e-09
2.03328e-07
-7.81782e-17
-1.34612e-09
2.29496e-07
-7.45421e-17
-1.21268e-09
2.53549e-07
-7.07806e-17
-1.06558e-09
2.74248e-07
-6.41201e-17
-9.07371e-10
2.90264e-07
-7.99226e-17
-7.41783e-10
2.99915e-07
-7.42514e-17
-5.73923e-10
3.01037e-07
-6.84746e-17
-4.10357e-10
2.91015e-07
-6.17493e-17
-2.59284e-10
2.6668e-07
-4.89164e-17
-1.30973e-10
2.23958e-07
-5.6544e-17
-3.84631e-11
1.57957e-07
-4.73153e-17
6.2425e-08
-4.06733e-17
2.51176e-11
-6.78064e-09
3.01329e-15
6.45365e-11
-2.10792e-08
2.65029e-15
1.90408e-10
-3.638e-08
-1.76863e-15
7.16285e-11
-4.96662e-08
-7.82594e-15
5.37235e-10
-7.18602e-08
2.06265e-15
1.18713e-09
-9.21253e-08
-6.23479e-15
1.7726e-09
-9.42019e-08
-6.54801e-15
2.08541e-09
-7.44689e-08
-4.76148e-15
2.08987e-09
-7.52412e-08
-4.97893e-16
2.1327e-09
-8.54132e-08
-1.2175e-17
2.19599e-09
-9.44135e-08
5.76576e-17
2.26017e-09
-1.0162e-07
6.90635e-17
2.31483e-09
-1.07129e-07
-9.16038e-17
2.35091e-09
-1.11565e-07
-1.01218e-16
2.36285e-09
-1.15678e-07
-1.88443e-16
2.34685e-09
-1.19856e-07
-1.00119e-16
2.30083e-09
-1.24235e-07
-4.03957e-16
2.2242e-09
-1.28776e-07
-3.65321e-16
2.11761e-09
-1.3335e-07
-5.00842e-16
1.98239e-09
-1.37786e-07
-4.9147e-16
1.82012e-09
-1.4192e-07
-4.87963e-16
1.63233e-09
-1.45608e-07
-5.34854e-16
1.42043e-09
-1.48696e-07
-6.10022e-16
1.18564e-09
-1.5109e-07
-6.65448e-16
9.29177e-10
-1.52673e-07
-6.9505e-16
6.52372e-10
-1.53367e-07
-7.17649e-16
3.56839e-10
-1.53087e-07
-7.29959e-16
4.47163e-11
-1.51739e-07
-7.32725e-16
-2.81263e-10
-1.49274e-07
-7.389e-16
-6.17472e-10
-1.45587e-07
-7.55187e-16
-9.59317e-10
-1.40617e-07
-6.38232e-16
-1.30106e-09
-1.34289e-07
-6.36317e-16
-1.63564e-09
-1.26526e-07
-6.20352e-16
-1.95454e-09
-1.17261e-07
-5.93921e-16
-2.24771e-09
-1.06432e-07
-5.63365e-16
-2.50354e-09
-9.39901e-08
-5.27839e-16
-2.70914e-09
-7.98917e-08
-4.88717e-16
-2.85211e-09
-6.41172e-08
-4.43665e-16
-2.92344e-09
-4.66645e-08
-3.86954e-16
-2.93139e-09
-2.75416e-08
-3.16952e-16
-2.91733e-09
-6.80438e-09
-2.40519e-16
-2.8621e-09
1.57946e-08
-1.65507e-16
-2.74458e-09
4.01653e-08
-1.07506e-16
-2.6275e-09
6.57522e-08
-6.42726e-17
-2.52587e-09
9.23743e-08
-3.43565e-17
-2.42644e-09
1.19858e-07
-5.31252e-18
-2.31873e-09
1.47778e-07
2.05952e-17
-2.19504e-09
1.75764e-07
-6.40073e-17
-2.05135e-09
2.03185e-07
-9.64622e-17
-1.88605e-09
2.29331e-07
-8.93364e-17
-1.69937e-09
2.53363e-07
-8.38804e-17
-1.49335e-09
2.74042e-07
-7.43134e-17
-1.2716e-09
2.90042e-07
-9.62554e-17
-1.03938e-09
2.99683e-07
-8.8032e-17
-8.03853e-10
3.00802e-07
-7.99592e-17
-5.74272e-10
2.90786e-07
-7.0927e-17
-3.62221e-10
2.66468e-07
-5.40857e-17
-1.82295e-10
2.23778e-07
-6.6366e-17
-5.30599e-11
1.57828e-07
-5.5667e-17
6.2372e-08
-4.91664e-17
2.37978e-11
-6.80443e-09
3.8659e-15
6.29149e-11
-2.11183e-08
-3.59218e-15
1.30286e-10
-3.64474e-08
-4.65337e-15
4.24368e-11
-4.95784e-08
-5.75726e-15
5.16115e-10
-7.23339e-08
2.88167e-15
1.2112e-09
-9.28204e-08
-5.07093e-15
1.7859e-09
-9.47766e-08
-6.01053e-15
2.136e-09
-7.4819e-08
-1.98004e-15
2.15368e-09
-7.52588e-08
4.75266e-17
2.20093e-09
-8.54605e-08
9.74361e-17
2.26754e-09
-9.44801e-08
1.614e-16
2.3346e-09
-1.01688e-07
9.08332e-17
2.39245e-09
-1.07187e-07
-1.24351e-16
2.43179e-09
-1.11605e-07
-1.56486e-16
2.44637e-09
-1.15693e-07
-2.58441e-16
2.43127e-09
-1.19841e-07
-1.99541e-16
2.38351e-09
-1.24187e-07
-5.17348e-16
2.30201e-09
-1.28694e-07
-4.00779e-16
2.18741e-09
-1.33235e-07
-5.9498e-16
2.04141e-09
-1.3764e-07
-6.02068e-16
1.86618e-09
-1.41745e-07
-5.91835e-16
1.66386e-09
-1.45406e-07
-6.18675e-16
1.43639e-09
-1.48468e-07
-6.67461e-16
1.18543e-09
-1.50839e-07
-7.05438e-16
9.12461e-10
-1.524e-07
-7.22593e-16
6.18951e-10
-1.53074e-07
-7.39119e-16
3.06559e-10
-1.52774e-07
-7.49475e-16
-2.26126e-11
-1.5141e-07
-7.50886e-16
-3.65913e-10
-1.48931e-07
-7.57309e-16
-7.19832e-10
-1.45233e-07
-7.74249e-16
-1.07994e-09
-1.40257e-07
-6.53061e-16
-1.44072e-09
-1.33928e-07
-6.50111e-16
-1.79546e-09
-1.26171e-07
-6.33285e-16
-2.1362e-09
-1.1692e-07
-6.05589e-16
-2.45379e-09
-1.06114e-07
-5.74313e-16
-2.73814e-09
-9.37058e-08
-5.38386e-16
-2.9789e-09
-7.96509e-08
-4.99544e-16
-3.16749e-09
-6.39286e-08
-4.55457e-16
-3.30053e-09
-4.65315e-08
-4.00354e-16
-3.38748e-09
-2.74546e-08
-3.33464e-16
-3.46016e-09
-6.73166e-09
-2.62245e-16
-3.48264e-09
1.58171e-08
-1.93526e-16
-3.41874e-09
4.01014e-08
-1.34886e-16
-3.32511e-09
6.56586e-08
-8.69336e-17
-3.22282e-09
9.2272e-08
-5.16447e-17
-3.10889e-09
1.19744e-07
-1.69912e-17
-2.97712e-09
1.47647e-07
1.46785e-17
-2.82143e-09
1.75609e-07
-6.46192e-17
-2.63834e-09
2.03002e-07
-9.3964e-17
-2.42658e-09
2.29119e-07
-8.14399e-17
-2.18683e-09
2.53123e-07
-7.40203e-17
-1.92191e-09
2.73777e-07
-6.20571e-17
-1.63651e-09
2.89757e-07
-9.11046e-17
-1.33748e-09
2.99384e-07
-8.16594e-17
-1.03406e-09
3.00498e-07
-7.32463e-17
-7.38219e-10
2.9049e-07
-6.43466e-17
-4.64976e-10
2.66194e-07
-4.64083e-17
-2.33335e-10
2.23546e-07
-6.62571e-17
-6.74771e-11
1.57662e-07
-5.65979e-17
6.23045e-08
-5.1567e-17
2.39937e-11
-6.82842e-09
3.0248e-15
6.54842e-11
-2.11598e-08
3.06226e-16
7.85848e-11
-3.64605e-08
-4.18719e-15
3.23302e-11
-4.95322e-08
-4.0362e-15
5.21665e-10
-7.28232e-08
8.55561e-16
1.27238e-09
-9.35711e-08
-4.93401e-15
1.80317e-09
-9.53074e-08
-6.39868e-15
2.16005e-09
-7.51759e-08
-2.63563e-15
2.18408e-09
-7.52829e-08
-2.69046e-16
2.23932e-09
-8.55157e-08
3.83627e-17
2.31367e-09
-9.45545e-08
1.34004e-16
2.38814e-09
-1.01762e-07
3.53291e-17
2.45272e-09
-1.07252e-07
-1.65469e-16
2.49739e-09
-1.11649e-07
-1.93779e-16
2.51543e-09
-1.15711e-07
-3.36758e-16
2.50134e-09
-1.19827e-07
-2.68066e-16
2.4518e-09
-1.24137e-07
-6.46534e-16
2.36555e-09
-1.28608e-07
-4.98822e-16
2.24333e-09
-1.33113e-07
-7.00581e-16
2.08715e-09
-1.37484e-07
-6.43837e-16
1.89957e-09
-1.41557e-07
-6.15552e-16
1.68316e-09
-1.45189e-07
-6.5185e-16
1.44028e-09
-1.48226e-07
-7.08364e-16
1.17288e-09
-1.50571e-07
-7.52836e-16
8.82656e-10
-1.5211e-07
-7.68271e-16
5.71202e-10
-1.52762e-07
-7.81222e-16
2.40233e-10
-1.52444e-07
-7.86364e-16
-1.08139e-10
-1.51062e-07
-7.82025e-16
-4.71299e-10
-1.48568e-07
-7.84567e-16
-8.45803e-10
-1.44858e-07
-7.98553e-16
-1.22733e-09
-1.39876e-07
-6.70645e-16
-1.61055e-09
-1.33545e-07
-6.66255e-16
-1.98904e-09
-1.25792e-07
-6.47855e-16
-2.35533e-09
-1.16554e-07
-6.1846e-16
-2.7011e-09
-1.05769e-07
-5.86234e-16
-3.0175e-09
-9.33894e-08
-5.49644e-16
-3.29613e-09
-7.93723e-08
-5.10784e-16
-3.53088e-09
-6.36938e-08
-4.67353e-16
-3.7209e-09
-4.63415e-08
-4.13882e-16
-3.87358e-09
-2.73019e-08
-3.5044e-16
-4.00873e-09
-6.59646e-09
-2.84364e-16
-4.08792e-09
1.58963e-08
-2.20529e-16
-4.0731e-09
4.00866e-08
-1.62853e-16
-4.00671e-09
6.55922e-08
-1.12216e-16
-3.90977e-09
9.21751e-08
-7.2697e-17
-3.78596e-09
1.1962e-07
-3.31864e-17
-3.63303e-09
1.47494e-07
6.57529e-18
-3.447e-09
1.75423e-07
-5.95107e-17
-3.22543e-09
2.0278e-07
-8.2826e-17
-2.96767e-09
2.28861e-07
-6.35234e-17
-2.67504e-09
2.5283e-07
-5.30518e-17
-2.35123e-09
2.73453e-07
-3.78179e-17
-2.00211e-09
2.89408e-07
-7.33832e-17
-1.63611e-09
2.99018e-07
-6.24736e-17
-1.2646e-09
3.00127e-07
-5.40796e-17
-9.02273e-10
2.90127e-07
-4.62834e-17
-5.67654e-10
2.6586e-07
-2.89339e-17
-2.84211e-10
2.23263e-07
-5.81511e-17
-8.17838e-11
1.57459e-07
-5.13294e-17
6.22227e-08
-4.85945e-17
2.36906e-11
-6.8521e-09
3.54979e-15
6.30522e-11
-2.11992e-08
-2.96005e-15
1.91091e-11
-3.64165e-08
-6.64332e-15
1.50262e-11
-4.9528e-08
1.15322e-15
5.39283e-10
-7.33475e-08
3.58384e-15
1.34029e-09
-9.43721e-08
-2.0049e-15
1.80188e-09
-9.57689e-08
-4.30794e-15
2.17916e-09
-7.55532e-08
-3.16316e-15
2.20346e-09
-7.53072e-08
-1.46881e-16
2.26033e-09
-8.55726e-08
-1.03153e-16
2.33793e-09
-9.46321e-08
1.06558e-17
2.41638e-09
-1.0184e-07
-1.6113e-16
2.48514e-09
-1.0732e-07
-3.42196e-16
2.53355e-09
-1.11698e-07
-3.89765e-16
2.55446e-09
-1.15732e-07
-5.27744e-16
2.54192e-09
-1.19814e-07
-3.79604e-16
2.49209e-09
-1.24088e-07
-7.79945e-16
2.40328e-09
-1.28519e-07
-5.81405e-16
2.27596e-09
-1.32986e-07
-7.74456e-16
2.11207e-09
-1.3732e-07
-7.79409e-16
1.91432e-09
-1.41359e-07
-7.44677e-16
1.6855e-09
-1.44961e-07
-7.51325e-16
1.42825e-09
-1.47968e-07
-7.74768e-16
1.1448e-09
-1.50288e-07
-8.00201e-16
8.37085e-10
-1.51802e-07
-8.02409e-16
5.0687e-10
-1.52432e-07
-8.09719e-16
1.55993e-10
-1.52093e-07
-8.12787e-16
-2.13358e-10
-1.50692e-07
-8.0696e-16
-5.98533e-10
-1.48183e-07
-8.092e-16
-9.96083e-10
-1.44461e-07
-8.22836e-16
-1.40173e-09
-1.3947e-07
-6.89939e-16
-1.81027e-09
-1.33137e-07
-6.83468e-16
-2.2155e-09
-1.25387e-07
-6.63375e-16
-2.61034e-09
-1.16159e-07
-6.32202e-16
-2.98709e-09
-1.05392e-07
-5.98799e-16
-3.33786e-09
-9.30386e-08
-5.6135e-16
-3.65555e-09
-7.90546e-08
-5.22161e-16
-3.93533e-09
-6.3414e-08
-4.79038e-16
-4.17684e-09
-4.60999e-08
-4.26895e-16
-4.38425e-09
-2.70945e-08
-3.66662e-16
-4.56711e-09
-6.41356e-09
-3.053e-16
-4.68984e-09
1.60191e-08
-2.45513e-16
-4.71728e-09
4.01141e-08
-1.89588e-16
-4.67778e-09
6.55528e-08
-1.37657e-16
-4.58919e-09
9.20865e-08
-9.50167e-17
-4.4586e-09
1.1949e-07
-5.13704e-17
-4.28678e-09
1.47322e-07
-3.90217e-18
-4.07187e-09
1.75208e-07
-5.46348e-17
-3.81264e-09
2.02521e-07
-7.21825e-17
-3.50932e-09
2.28558e-07
-4.56729e-17
-3.16399e-09
2.52485e-07
-3.12599e-17
-2.78131e-09
2.73071e-07
-1.19339e-17
-2.36839e-09
2.88995e-07
-5.3375e-17
-1.93527e-09
2.98585e-07
-4.05137e-17
-1.49549e-09
2.99687e-07
-3.19258e-17
-1.0665e-09
2.89698e-07
-2.5234e-17
-6.70346e-10
2.65464e-07
-8.6599e-18
-3.35018e-10
2.22927e-07
-4.74688e-17
-9.6039e-11
1.5722e-07
-4.37439e-17
6.21267e-08
-4.35429e-17
2.36032e-11
-6.87571e-09
2.7385e-15
6.13346e-11
-2.12369e-08
1.34599e-15
-3.00441e-11
-3.63251e-08
-8.71623e-15
2.16709e-12
-4.95603e-08
-3.49262e-16
5.90217e-10
-7.39355e-08
3.01507e-15
1.41549e-09
-9.51974e-08
-1.74312e-16
1.77646e-09
-9.61299e-08
-7.24561e-15
2.17812e-09
-7.59548e-08
-5.07914e-15
2.20297e-09
-7.5332e-08
-1.20837e-15
2.26169e-09
-8.56313e-08
-4.45237e-16
2.34181e-09
-9.47122e-08
-2.57886e-16
2.42312e-09
-1.01922e-07
-4.93997e-16
2.49468e-09
-1.07392e-07
-5.24943e-16
2.54534e-09
-1.11748e-07
-5.68814e-16
2.56767e-09
-1.15754e-07
-6.84143e-16
2.55558e-09
-1.19802e-07
-4.54226e-16
2.50496e-09
-1.24037e-07
-9.25302e-16
2.41381e-09
-1.28428e-07
-6.9399e-16
2.28227e-09
-1.32854e-07
-8.8608e-16
2.11203e-09
-1.3715e-07
-8.67099e-16
1.90565e-09
-1.41153e-07
-8.17726e-16
1.66593e-09
-1.44721e-07
-8.23365e-16
1.39558e-09
-1.47698e-07
-8.41926e-16
1.09692e-09
-1.49989e-07
-8.64073e-16
7.72041e-10
-1.51478e-07
-8.58473e-16
4.22854e-10
-1.52083e-07
-8.58777e-16
5.13349e-11
-1.51721e-07
-8.54968e-16
-3.40206e-10
-1.50301e-07
-8.42731e-16
-7.49014e-10
-1.47774e-07
-8.40468e-16
-1.17156e-09
-1.44038e-07
-8.50925e-16
-1.60354e-09
-1.39038e-07
-7.12098e-16
-2.03975e-09
-1.327e-07
-7.01839e-16
-2.47412e-09
-1.24953e-07
-6.79574e-16
-2.89982e-09
-1.15733e-07
-6.4644e-16
-3.30956e-09
-1.04982e-07
-6.11754e-16
-3.69607e-09
-9.26521e-08
-5.73295e-16
-4.05293e-09
-7.86977e-08
-5.33577e-16
-4.37576e-09
-6.30912e-08
-4.90418e-16
-4.66349e-09
-4.58122e-08
-4.39163e-16
-4.91695e-09
-2.68411e-08
-3.81488e-16
-5.13807e-09
-6.19238e-09
-3.23901e-16
-5.29554e-09
1.61765e-08
-2.67237e-16
-5.35834e-09
4.0177e-08
-2.13143e-16
-5.34325e-09
6.55377e-08
-1.60769e-16
-5.26381e-09
9.20071e-08
-1.15996e-16
-5.12815e-09
1.19354e-07
-6.92543e-17
-4.93902e-09
1.47133e-07
-1.54967e-17
-4.69633e-09
1.74965e-07
-5.45097e-17
-4.40012e-09
2.02225e-07
-6.83948e-17
-4.05159e-09
2.2821e-07
-3.51095e-17
-3.65371e-09
2.52087e-07
-1.60621e-17
-3.21217e-09
2.72629e-07
8.34668e-18
-2.73536e-09
2.88518e-07
-3.77991e-17
-2.23501e-09
2.98084e-07
-2.17895e-17
-1.72679e-09
2.99179e-07
-1.18924e-17
-1.23095e-09
2.89203e-07
-5.21646e-18
-7.73121e-10
2.65006e-07
1.15349e-17
-3.85825e-10
2.2254e-07
-3.58213e-17
-1.10281e-10
1.56945e-07
-3.45767e-17
6.20164e-08
-3.61475e-17
2.33484e-11
-6.89905e-09
3.19518e-15
5.93495e-11
-2.12729e-08
-1.16682e-15
-7.00514e-11
-3.61958e-08
-1.1376e-14
-1.84474e-11
-4.96118e-08
5.63476e-15
6.61127e-10
-7.46151e-08
5.33864e-15
1.46537e-09
-9.60016e-08
-9.08213e-16
1.70969e-09
-9.63742e-08
-9.51079e-15
2.16101e-09
-7.64061e-08
-5.63379e-15
2.18955e-09
-7.53605e-08
-1.28023e-15
2.24693e-09
-8.56887e-08
-9.88395e-16
2.32597e-09
-9.47913e-08
-7.86132e-16
2.40664e-09
-1.02002e-07
-9.31612e-16
2.4779e-09
-1.07463e-07
-9.22506e-16
2.52834e-09
-1.11799e-07
-9.39835e-16
2.55038e-09
-1.15776e-07
-9.89582e-16
2.53787e-09
-1.1979e-07
-6.65014e-16
2.48643e-09
-1.23986e-07
-1.13368e-15
2.39365e-09
-1.28335e-07
-8.40779e-16
2.25917e-09
-1.3272e-07
-1.01646e-15
2.08421e-09
-1.36975e-07
-9.75707e-16
1.87096e-09
-1.4094e-07
-8.99072e-16
1.62198e-09
-1.44472e-07
-8.88297e-16
1.33987e-09
-1.47416e-07
-8.95045e-16
1.02695e-09
-1.49676e-07
-9.10353e-16
6.85392e-10
-1.51136e-07
-8.98568e-16
3.17221e-10
-1.51714e-07
-8.94805e-16
-7.54327e-11
-1.51328e-07
-8.88324e-16
-4.90091e-10
-1.49886e-07
-8.73299e-16
-9.23835e-10
-1.4734e-07
-8.69221e-16
-1.37298e-09
-1.43589e-07
-8.78015e-16
-1.83309e-09
-1.38578e-07
-7.33233e-16
-2.29889e-09
-1.32235e-07
-7.20329e-16
-2.7643e-09
-1.24487e-07
-6.96019e-16
-3.22259e-09
-1.15275e-07
-6.60934e-16
-3.66667e-09
-1.04538e-07
-6.24865e-16
-4.08955e-09
-9.22292e-08
-5.85321e-16
-4.48505e-09
-7.83022e-08
-5.4492e-16
-4.84857e-09
-6.27277e-08
-5.01488e-16
-5.1778e-09
-4.54829e-08
-4.50709e-16
-5.47058e-09
-2.65483e-08
-3.94874e-16
-5.72355e-09
-5.93934e-09
-3.39957e-16
-5.90949e-09
1.63625e-08
-2.85354e-16
-6.00135e-09
4.02689e-08
-2.32684e-16
-6.00724e-09
6.55436e-08
-1.80202e-16
-5.93629e-09
9.19362e-08
-1.34024e-16
-5.79615e-09
1.19214e-07
-8.51301e-17
-5.59056e-09
1.46927e-07
-2.69344e-17
-5.32081e-09
1.74696e-07
-5.94473e-17
-4.9881e-09
2.01892e-07
-7.27205e-17
-4.59462e-09
2.27816e-07
-3.38684e-17
-4.14427e-09
2.51637e-07
-1.04001e-17
-3.64384e-09
2.72129e-07
1.92374e-17
-3.10306e-09
2.87977e-07
-3.12756e-17
-2.53532e-09
2.97517e-07
-1.15203e-17
-1.9585e-09
2.98602e-07
5.29121e-19
-1.39568e-09
2.8864e-07
8.38947e-18
-8.76036e-10
2.64486e-07
2.69784e-17
-4.36685e-10
2.22101e-07
-2.70799e-17
-1.24539e-10
1.56633e-07
-2.69432e-17
6.18918e-08
-2.94247e-17
2.30319e-11
-6.92209e-09
2.59946e-15
5.94641e-11
-2.13093e-08
2.83084e-15
-9.82754e-11
-3.6038e-08
-1.11012e-14
-4.5585e-11
-4.96645e-08
6.18714e-15
7.34755e-10
-7.53954e-08
5.12957e-15
1.45794e-09
-9.67248e-08
-5.89352e-15
1.58842e-09
-9.65047e-08
-1.96269e-15
2.11821e-09
-7.69359e-08
-7.56471e-15
2.158e-09
-7.54003e-08
6.63825e-16
2.21323e-09
-8.5744e-08
-1.33282e-15
2.28906e-09
-9.48671e-08
-1.38779e-15
2.36675e-09
-1.0208e-07
-1.40384e-15
2.43557e-09
-1.07532e-07
-1.37047e-15
2.48399e-09
-1.11847e-07
-1.3768e-15
2.50433e-09
-1.15797e-07
-1.32952e-15
2.49048e-09
-1.19776e-07
-9.56321e-16
2.43786e-09
-1.23933e-07
-1.40584e-15
2.34364e-09
-1.28241e-07
-1.06147e-15
2.20692e-09
-1.32583e-07
-1.18101e-15
2.0283e-09
-1.36797e-07
-1.11291e-15
1.80946e-09
-1.40721e-07
-1.01413e-15
1.55251e-09
-1.44215e-07
-9.8943e-16
1.25977e-09
-1.47123e-07
-9.80314e-16
9.33449e-10
-1.4935e-07
-9.83463e-16
5.75678e-10
-1.50778e-07
-9.59521e-16
1.88573e-10
-1.51327e-07
-9.46125e-16
-2.25584e-10
-1.50914e-07
-9.31716e-16
-6.64114e-10
-1.49448e-07
-9.10018e-16
-1.12387e-09
-1.4688e-07
-9.01139e-16
-1.60094e-09
-1.43112e-07
-9.06383e-16
-2.09067e-09
-1.38088e-07
-7.54419e-16
-2.58761e-09
-1.31738e-07
-7.38742e-16
-3.08554e-09
-1.23989e-07
-7.12304e-16
-3.57768e-09
-1.14783e-07
-6.75292e-16
-4.05693e-09
-1.04059e-07
-6.3787e-16
-4.5163e-09
-9.17698e-08
-5.97238e-16
-4.94946e-09
-7.7869e-08
-5.56116e-16
-5.35128e-09
-6.23259e-08
-5.12262e-16
-5.71793e-09
-4.51163e-08
-4.6168e-16
-6.04478e-09
-2.62215e-08
-4.07083e-16
-6.32493e-09
-5.65912e-09
-3.5387e-16
-6.53457e-09
1.65722e-08
-3.00355e-16
-6.65004e-09
4.03844e-08
-2.48492e-16
-6.67315e-09
6.55668e-08
-1.95883e-16
-6.6091e-09
9.18721e-08
-1.48715e-16
-6.46415e-09
1.19069e-07
-9.84588e-17
-6.24234e-09
1.46705e-07
-3.79691e-17
-5.94585e-09
1.74399e-07
-6.82111e-17
-5.57687e-09
2.01523e-07
-8.35842e-17
-5.13855e-09
2.27378e-07
-3.99735e-17
-4.63574e-09
2.51134e-07
-1.2292e-17
-4.07637e-09
2.71569e-07
2.26289e-17
-3.4715e-09
2.87373e-07
-3.20806e-17
-2.83624e-09
2.96881e-07
-8.15839e-18
-2.19067e-09
2.97957e-07
6.68021e-18
-1.5607e-09
2.8801e-07
1.67114e-17
-9.79132e-10
2.63905e-07
3.84498e-17
-4.87639e-10
2.21609e-07
-2.04325e-17
-1.38833e-10
1.56284e-07
-2.02552e-17
6.1753e-08
-2.23515e-17
2.25804e-11
-6.94467e-09
2.49928e-15
6.03486e-11
-2.13471e-08
1.33237e-15
-1.23492e-10
-3.58542e-08
-1.28932e-14
-8.78409e-11
-4.97001e-08
8.29149e-15
7.70645e-10
-7.62539e-08
5.99504e-15
1.35883e-09
-9.7313e-08
-6.86446e-15
1.41052e-09
-9.65563e-08
4.88878e-15
2.05196e-09
-7.75774e-08
-1.9647e-15
2.10996e-09
-7.54583e-08
-1.39905e-15
2.16072e-09
-8.57947e-08
-2.2199e-15
2.23029e-09
-9.49367e-08
-2.15541e-15
2.30215e-09
-1.02152e-07
-2.07822e-15
2.36633e-09
-1.07596e-07
-1.95657e-15
2.41118e-09
-1.11892e-07
-1.86233e-15
2.42889e-09
-1.15814e-07
-1.70657e-15
2.41333e-09
-1.1976e-07
-1.25732e-15
2.35963e-09
-1.23879e-07
-1.66067e-15
2.2645e-09
-1.28146e-07
-1.25559e-15
2.12635e-09
-1.32445e-07
-1.34557e-15
1.9451e-09
-1.36615e-07
-1.24392e-15
1.72173e-09
-1.40498e-07
-1.11446e-15
1.45783e-09
-1.43951e-07
-1.0675e-15
1.15531e-09
-1.46821e-07
-1.04259e-15
8.16154e-10
-1.49011e-07
-1.03546e-15
4.42423e-10
-1.50404e-07
-1.00439e-15
3.62894e-11
-1.50921e-07
-9.85552e-16
-3.99806e-10
-1.50478e-07
-9.67403e-16
-8.62952e-10
-1.48985e-07
-9.42018e-16
-1.34972e-09
-1.46394e-07
-9.30388e-16
-1.8559e-09
-1.42606e-07
-9.33213e-16
-2.37652e-09
-1.37568e-07
-7.74743e-16
-2.90586e-09
-1.31208e-07
-7.56658e-16
-3.43747e-09
-1.23458e-07
-7.28197e-16
-3.96432e-09
-1.14256e-07
-6.89357e-16
-4.47917e-09
-1.03544e-07
-6.50586e-16
-4.97478e-09
-9.12742e-08
-6.089e-16
-5.44443e-09
-7.73993e-08
-5.6705e-16
-5.8822e-09
-6.18881e-08
-5.22723e-16
-6.28278e-09
-4.47156e-08
-4.72174e-16
-6.63954e-09
-2.58647e-08
-4.18417e-16
-6.94324e-09
-5.35535e-09
-3.66215e-16
-7.17277e-09
1.68017e-08
-3.13068e-16
-7.30712e-09
4.05188e-08
-2.61433e-16
-7.3437e-09
6.56034e-08
-2.08499e-16
-7.28437e-09
9.18128e-08
-1.6051e-16
-7.13365e-09
1.18919e-07
-1.09418e-16
-6.8953e-09
1.46467e-07
-4.7364e-17
-6.57202e-09
1.74076e-07
-7.88956e-17
-6.16677e-09
2.01118e-07
-9.83459e-17
-5.68358e-09
2.26895e-07
-5.12433e-17
-5.12825e-09
2.50579e-07
-2.02342e-17
-4.50981e-09
2.70951e-07
1.93284e-17
-3.84071e-09
2.86704e-07
-4.00924e-17
-3.13778e-09
2.96178e-07
-1.21858e-17
-2.42332e-09
2.97242e-07
5.58057e-18
-1.72607e-09
2.87313e-07
1.8381e-17
-1.08244e-09
2.63261e-07
4.43713e-17
-5.38716e-10
2.21065e-07
-1.76204e-17
-1.53177e-10
1.55898e-07
-1.61259e-17
6.15998e-08
-1.71119e-17
2.20654e-11
-6.96673e-09
2.44268e-15
6.14764e-11
-2.13865e-08
3.58243e-15
-1.5173e-10
-3.5641e-08
-9.99208e-15
-1.51221e-10
-4.97006e-08
7.83948e-15
7.30003e-10
-7.71351e-08
3.85575e-15
1.15771e-09
-9.77407e-08
-7.35009e-15
1.19543e-09
-9.6594e-08
5.96756e-15
1.96725e-09
-7.83493e-08
-1.02235e-14
2.04446e-09
-7.55354e-08
5.73946e-15
2.0882e-09
-8.58385e-08
-2.42162e-15
2.14878e-09
-9.49973e-08
-2.88702e-15
2.2126e-09
-1.02216e-07
-2.54642e-15
2.27075e-09
-1.07654e-07
-2.53821e-15
2.31132e-09
-1.11933e-07
-2.22896e-15
2.32618e-09
-1.15829e-07
-2.05192e-15
2.30903e-09
-1.19743e-07
-1.52932e-15
2.25463e-09
-1.23825e-07
-1.89269e-15
2.15912e-09
-1.28051e-07
-1.43601e-15
2.02019e-09
-1.32306e-07
-1.49371e-15
1.83699e-09
-1.36432e-07
-1.37956e-15
1.60975e-09
-1.4027e-07
-1.22521e-15
1.33944e-09
-1.43681e-07
-1.15999e-15
1.02752e-09
-1.46509e-07
-1.11872e-15
6.75689e-10
-1.48659e-07
-1.09953e-15
2.85892e-10
-1.50015e-07
-1.05763e-15
-1.39646e-10
-1.50496e-07
-1.03029e-15
-5.98315e-10
-1.5002e-07
-1.00552e-15
-1.08693e-09
-1.48496e-07
-9.74808e-16
-1.60174e-09
-1.45879e-07
-9.59208e-16
-2.13815e-09
-1.4207e-07
-9.59091e-16
-2.69081e-09
-1.37015e-07
-7.94032e-16
-3.25363e-09
-1.30646e-07
-7.73615e-16
-3.81979e-09
-1.22892e-07
-7.43253e-16
-4.38196e-09
-1.13694e-07
-7.02769e-16
-4.93252e-09
-1.02993e-07
-6.62781e-16
-5.46387e-09
-9.07429e-08
-6.20138e-16
-5.9687e-09
-7.68945e-08
-5.77625e-16
-6.44022e-09
-6.14166e-08
-5.32819e-16
-6.87172e-09
-4.42841e-08
-4.82228e-16
-7.25499e-09
-2.54814e-08
-4.29065e-16
-7.57925e-09
-5.031e-09
-3.77458e-16
-7.82544e-09
1.70479e-08
-3.24241e-16
-7.97458e-09
4.06681e-08
-2.72409e-16
-8.02105e-09
6.56499e-08
-2.18929e-16
-7.96397e-09
9.17557e-08
-1.7012e-16
-7.80602e-09
1.18761e-07
-1.18427e-16
-7.55039e-09
1.46211e-07
-5.60854e-17
-7.19993e-09
1.73725e-07
-8.98836e-17
-6.75817e-09
2.00676e-07
-1.14519e-16
-6.22993e-09
2.26366e-07
-6.41278e-17
-5.6219e-09
2.49971e-07
-3.00453e-17
-4.94423e-09
2.70273e-07
1.38897e-17
-4.21073e-09
2.8597e-07
-5.05979e-17
-3.43996e-09
2.95408e-07
-1.89748e-17
-2.65645e-09
2.96459e-07
1.55064e-18
-1.89178e-09
2.86548e-07
1.7201e-17
-1.18599e-09
2.62555e-07
4.77479e-17
-5.89934e-10
2.20469e-07
-1.65085e-17
-1.67579e-10
1.55476e-07
-1.29356e-17
6.14323e-08
-1.19051e-17
2.14807e-11
-6.98822e-09
1.70115e-15
6.1456e-11
-2.14265e-08
1.87085e-15
-1.90062e-10
-3.53894e-08
-9.60873e-15
-2.45375e-10
-4.96453e-08
6.66348e-15
5.89281e-10
-7.79697e-08
1.56987e-15
8.77432e-10
-9.80289e-08
-4.7736e-15
9.82242e-10
-9.66988e-08
7.52709e-15
1.87748e-09
-7.92446e-08
-5.98677e-15
1.96432e-09
-7.56222e-08
4.97731e-15
1.99664e-09
-8.58708e-08
-3.1091e-15
2.04504e-09
-9.50457e-08
-3.62184e-15
2.09867e-09
-1.02269e-07
-3.26097e-15
2.14983e-09
-1.07706e-07
-3.17516e-15
2.18601e-09
-1.11969e-07
-2.71661e-15
2.19844e-09
-1.15842e-07
-2.43828e-15
2.1804e-09
-1.19725e-07
-1.82679e-15
2.12607e-09
-1.23771e-07
-2.13064e-15
2.03093e-09
-1.27955e-07
-1.61447e-15
1.89186e-09
-1.32167e-07
-1.64831e-15
1.70718e-09
-1.36247e-07
-1.50124e-15
1.47636e-09
-1.4004e-07
-1.31856e-15
1.19973e-09
-1.43404e-07
-1.23219e-15
8.78284e-10
-1.46187e-07
-1.17762e-15
5.13413e-10
-1.48294e-07
-1.14939e-15
1.06979e-10
-1.49608e-07
-1.10113e-15
-3.38738e-10
-1.5005e-07
-1.06825e-15
-8.20923e-10
-1.49537e-07
-1.03936e-15
-1.33608e-09
-1.47981e-07
-1.00476e-15
-1.88008e-09
-1.45335e-07
-9.86074e-16
-2.44787e-09
-1.41502e-07
-9.8346e-16
-3.03366e-09
-1.36429e-07
-8.1221e-16
-3.6309e-09
-1.30048e-07
-7.89642e-16
-4.23233e-09
-1.2229e-07
-7.57485e-16
-4.83017e-09
-1.13096e-07
-7.155e-16
-5.41637e-09
-1.02407e-07
-6.74366e-16
-5.98278e-09
-9.01765e-08
-6.30846e-16
-6.52145e-09
-7.63558e-08
-5.87714e-16
-7.02465e-09
-6.09134e-08
-5.4245e-16
-7.48442e-09
-4.38243e-08
-4.91783e-16
-7.89132e-09
-2.50745e-08
-4.39088e-16
-8.23355e-09
-4.68867e-09
-3.87862e-16
-8.49357e-09
1.7308e-08
-3.34362e-16
-8.6539e-09
4.08285e-08
-2.82081e-16
-8.70686e-09
6.57029e-08
-2.27875e-16
-8.64943e-09
9.16983e-08
-1.78198e-16
-8.4825e-09
1.18594e-07
-1.26057e-16
-8.20848e-09
1.45937e-07
-6.27707e-17
-7.83015e-09
1.73347e-07
-1.00081e-16
-7.35144e-09
2.00198e-07
-1.3034e-16
-6.77782e-09
2.25793e-07
-7.75092e-17
-6.11682e-09
2.4931e-07
-4.11401e-17
-5.37968e-09
2.69536e-07
6.49161e-18
-4.58158e-09
2.85172e-07
-6.37052e-17
-3.74279e-09
2.94569e-07