/*--------------------------------*- C++ -*----------------------------------*\
| =========                 |                                                 |
| \\      /  F ield         | OpenFOAM: The Open Source CFD Toolbox           |
|  \\    /   O peration     | Version:  v2012                                 |
|   \\  /    A nd           | Website:  www.openfoam.com                      |
|    \\/     M anipulation  |                                                 |
\*---------------------------------------------------------------------------*/
FoamFile
{
    version     2.0;
    format      ascii;
    class       volVectorField;
    location    "0.2";
    object      U;
}
// * * * * * * * * * * * * * * * * * * * * * * * * * * * * * * * * * * * * * //

dimensions      [0 1 -1 0 0 0 0];


internalField   nonuniform List<vector> 
20000
(
(0.0735998 -42.3574 -0.000642252)
(-0.0310376 -42.3348 0.000270854)
(0.153985 -41.328 -0.00134384)
(0.0542027 -39.3891 -0.000473461)
(0.0873264 -40.8361 -0.000761892)
(0.224925 -40.6349 -0.00196273)
(0.324751 -33.5332 -0.00283428)
(0.358363 -22.0637 -0.00312218)
(0.308378 -18.9999 -0.00268597)
(0.276108 -18.2962 -0.00240856)
(0.25452 -17.3833 -0.002221)
(0.236427 -16.2458 -0.00206349)
(0.220537 -14.9867 -0.00192496)
(0.205359 -13.7484 -0.0017925)
(0.190573 -12.6254 -0.00166346)
(0.175949 -11.6409 -0.00153583)
(0.161452 -10.7812 -0.0014093)
(0.147007 -10.0206 -0.00128323)
(0.132609 -9.33334 -0.00115757)
(0.118259 -8.69867 -0.00103233)
(0.103995 -8.10174 -0.000907836)
(0.0898643 -7.53283 -0.000784508)
(0.0759312 -6.98608 -0.0006629)
(0.0622626 -6.45824 -0.0005436)
(0.0489292 -5.94768 -0.000427222)
(0.0360022 -5.45372 -0.000314391)
(0.0235541 -4.97616 -0.000205737)
(0.0116603 -4.51504 -0.00010192)
(0.000399821 -4.07046 -3.62834e-06)
(-0.0101414 -3.64251 8.83878e-05)
(-0.0198683 -3.23131 0.000173301)
(-0.0286752 -2.8369 0.000250184)
(-0.0364417 -2.45934 0.000317991)
(-0.0430299 -2.09869 0.000375518)
(-0.0482798 -1.75503 0.000421368)
(-0.0519975 -1.42844 0.000453852)
(-0.0539498 -1.11906 0.000470935)
(-0.0537953 -0.827088 0.000469651)
(-0.0511771 -0.552741 0.000446863)
(-0.044846 -0.296833 0.000391895)
(-0.0361158 -0.0596707 0.000315656)
(-0.0126632 0.157503 0.000110385)
(-0.00961414 0.354184 8.37314e-05)
(-0.00732734 0.532418 6.39806e-05)
(-0.0064488 0.691068 5.62948e-05)
(-0.00584325 0.830284 5.10157e-05)
(-0.00534001 0.949315 4.66224e-05)
(-0.00485954 1.04749 4.24283e-05)
(-0.0043802 1.12406 3.82441e-05)
(-0.00389402 1.17817 3.40002e-05)
(-0.00340121 1.20886 2.96985e-05)
(-0.00290585 1.215 2.53744e-05)
(-0.00241473 1.19526 2.10871e-05)
(-0.00193654 1.14809 1.69125e-05)
(-0.00148141 1.07164 1.2939e-05)
(-0.00106126 0.963697 9.2705e-06)
(-0.000688317 0.821609 6.01386e-06)
(-0.000377888 0.642186 3.30259e-06)
(-0.000142709 0.421541 1.24909e-06)
(-8.6926e-06 0.155139 9.82211e-08)
(0.142436 -42.6293 -0.00124303)
(-0.107923 -42.4679 0.000941814)
(0.274359 -41.6492 -0.00239437)
(-0.0137448 -39.2943 0.000119413)
(0.124844 -41.1744 -0.00108926)
(0.227099 -41.0568 -0.00198173)
(0.391482 -33.8429 -0.00341657)
(0.399378 -22.1727 -0.00348094)
(0.328645 -18.9876 -0.00286319)
(0.289029 -18.312 -0.00252151)
(0.267261 -17.4045 -0.00233221)
(0.249177 -16.2641 -0.00217476)
(0.233227 -15.0001 -0.00203571)
(0.217245 -13.7564 -0.00189624)
(0.201232 -12.6288 -0.00175649)
(0.185065 -11.6405 -0.00161539)
(0.168947 -10.7777 -0.00147471)
(0.152906 -10.0146 -0.00133471)
(0.137046 -9.32536 -0.00119629)
(0.121414 -8.68914 -0.00105986)
(0.106073 -8.09105 -0.000925961)
(0.0910675 -7.52132 -0.000794998)
(0.0764442 -6.97404 -0.000667367)
(0.0622431 -6.44593 -0.000543421)
(0.0485057 -5.93532 -0.00042352)
(0.0352753 -5.4415 -0.000308043)
(0.0225999 -4.96425 -0.00019741)
(0.0105348 -4.50358 -9.21025e-05)
(-0.000856338 -4.05957 7.32469e-06)
(-0.0114997 -3.63231 0.000100226)
(-0.0213092 -3.22191 0.000185853)
(-0.0301861 -2.82839 0.00026334)
(-0.0380163 -2.45183 0.000331695)
(-0.0446683 -2.09229 0.000389768)
(-0.0499905 -1.74983 0.000436238)
(-0.0538017 -1.42456 0.000469523)
(-0.0558946 -1.11664 0.000487814)
(-0.0559717 -0.826303 0.000488519)
(-0.0538128 -0.553887 0.000469694)
(-0.0485161 -0.300113 0.000423563)
(-0.0420165 -0.0657808 0.000366905)
(-0.0303288 0.1515 0.000264886)
(-0.0255686 0.352158 0.000223316)
(-0.0214316 0.531538 0.000187159)
(-0.0192174 0.690695 0.00016778)
(-0.0175074 0.830053 0.000152854)
(-0.0160238 0.949121 0.0001399)
(-0.0145911 1.0473 0.000127393)
(-0.0131561 1.12385 0.000114867)
(-0.0116983 1.17795 0.000102142)
(-0.0102192 1.20863 8.92309e-05)
(-0.00873151 1.21477 7.62448e-05)
(-0.00725584 1.19503 6.3363e-05)
(-0.00581835 1.14787 5.08138e-05)
(-0.00444951 1.07143 3.88634e-05)
(-0.00318526 0.963509 2.78252e-05)
(-0.00206261 0.821446 1.80225e-05)
(-0.00112823 0.642055 9.86215e-06)
(-0.000421806 0.42145 3.69398e-06)
(-2.33807e-05 0.155099 2.71179e-07)
(0.141144 -42.7445 -0.00123177)
(-0.139106 -42.4996 0.00121396)
(0.277708 -41.8027 -0.00242364)
(-0.0747026 -39.1665 0.000651495)
(0.153087 -41.3805 -0.00133568)
(0.194247 -41.263 -0.00169509)
(0.38646 -34.0013 -0.0033727)
(0.394777 -22.2224 -0.00343995)
(0.353485 -18.9685 -0.00307868)
(0.310732 -18.3118 -0.00271056)
(0.284646 -17.4111 -0.00248389)
(0.262625 -16.2707 -0.00229215)
(0.2441 -15.0049 -0.00213064)
(0.226441 -13.759 -0.00197652)
(0.20941 -12.6293 -0.00182789)
(0.192407 -11.6392 -0.00167949)
(0.1755 -10.7749 -0.00153193)
(0.158605 -10.0105 -0.00138448)
(0.141844 -9.32024 -0.00123819)
(0.12529 -8.6832 -0.00109371)
(0.109054 -8.08446 -0.000952)
(0.0932111 -7.51421 -0.000813723)
(0.0778303 -6.96654 -0.000679478)
(0.0629602 -6.43815 -0.000549689)
(0.0486417 -5.92735 -0.000424713)
(0.0349108 -5.43345 -0.000304865)
(0.0218054 -4.9562 -0.000190475)
(0.00936956 -4.49564 -8.19288e-05)
(-0.00234398 -4.05183 2.03145e-05)
(-0.013271 -3.62487 0.000115694)
(-0.0233341 -3.21487 0.000203536)
(-0.0324425 -2.82186 0.000283045)
(-0.0404904 -2.44591 0.000353301)
(-0.0473563 -2.08709 0.000413241)
(-0.0529026 -1.74547 0.000461667)
(-0.0569703 -1.42116 0.000497191)
(-0.0593927 -1.11434 0.000518355)
(-0.0599464 -0.825251 0.000523216)
(-0.0585634 -0.554236 0.000511164)
(-0.0547738 -0.301793 0.000478175)
(-0.0503386 -0.0686035 0.000439517)
(-0.0441904 0.149083 0.000385843)
(-0.0395862 0.350496 0.000345641)
(-0.0349051 0.530491 0.000304771)
(-0.0317573 0.690071 0.00027726)
(-0.029093 0.82958 0.000254003)
(-0.026683 0.948688 0.000232962)
(-0.0243205 1.04685 0.00021234)
(-0.0219395 1.12338 0.000191556)
(-0.0195139 1.17745 0.000170383)
(-0.0170495 1.20811 0.000148871)
(-0.0145688 1.21423 0.000127216)
(-0.0121066 1.1945 0.000105723)
(-0.00970696 1.14735 8.47745e-05)
(-0.00742081 1.07094 6.48158e-05)
(-0.00530836 0.963065 4.63723e-05)
(-0.00343196 0.821066 2.99884e-05)
(-0.00187067 0.641755 1.63534e-05)
(-0.000692892 0.421249 6.0697e-06)
(-3.50462e-05 0.155022 4.16765e-07)
(0.153564 -42.9168 -0.00134017)
(-0.146273 -42.5924 0.0012765)
(0.298647 -42.0002 -0.00260643)
(-0.112286 -39.0802 0.000979532)
(0.174202 -41.6705 -0.00151993)
(0.189679 -41.5724 -0.00165525)
(0.413197 -34.2386 -0.00360606)
(0.402882 -22.3337 -0.00351043)
(0.366323 -18.9761 -0.00318974)
(0.324287 -18.3233 -0.00282859)
(0.298138 -17.4244 -0.00260157)
(0.275375 -16.2825 -0.00240341)
(0.256126 -15.0138 -0.0022356)
(0.237629 -13.7643 -0.00207418)
(0.219752 -12.6311 -0.00191815)
(0.201743 -11.6379 -0.00176098)
(0.183715 -10.771 -0.00160364)
(0.165588 -10.0045 -0.00144543)
(0.147563 -9.31268 -0.00128811)
(0.129767 -8.67452 -0.00113279)
(0.112366 -8.07504 -0.000980921)
(0.0954666 -7.50435 -0.000833419)
(0.0791509 -6.95647 -0.000691014)
(0.063467 -6.42804 -0.000554122)
(0.0484461 -5.91734 -0.000423016)
(0.03411 -5.42363 -0.000297887)
(0.0204808 -4.94668 -0.000178925)
(0.00758745 -4.48648 -6.63852e-05)
(-0.00453079 -4.04311 3.93906e-05)
(-0.0158211 -3.61666 0.000137942)
(-0.026216 -3.20724 0.000228681)
(-0.0356339 -2.81488 0.000310891)
(-0.0439784 -2.43966 0.000383736)
(-0.0511395 -2.08163 0.000446255)
(-0.0569965 -1.74089 0.000497393)
(-0.061416 -1.41754 0.000535988)
(-0.0642744 -1.11173 0.000560958)
(-0.0654247 -0.82371 0.000571025)
(-0.0649108 -0.553759 0.000566561)
(-0.0625668 -0.302144 0.000546203)
(-0.0598136 -0.0691871 0.000522192)
(-0.0564493 0.148208 0.000492807)
(-0.0524637 0.349245 0.000458032)
(-0.0477823 0.529468 0.000417179)
(-0.0440176 0.68933 0.000384297)
(-0.0405622 0.828952 0.000354134)
(-0.0372967 0.948079 0.000325627)
(-0.0340372 1.04621 0.000297175)
(-0.030725 1.1227 0.000268263)
(-0.0273382 1.17672 0.0002387)
(-0.0238908 1.20735 0.000208607)
(-0.020417 1.21345 0.000178284)
(-0.0169669 1.19371 0.000148167)
(-0.0136028 1.14659 0.000118798)
(-0.0103963 1.07022 9.08048e-05)
(-0.00743235 0.962413 6.49269e-05)
(-0.00479903 0.820505 4.19338e-05)
(-0.00260868 0.641312 2.2805e-05)
(-0.000959545 0.420953 8.4055e-06)
(-4.53863e-05 0.154908 5.48882e-07)
(0.14685 -43.0633 -0.00128157)
(-0.137306 -42.6608 0.00119824)
(0.27638 -42.0986 -0.00241217)
(-0.146002 -38.9867 0.00127388)
(0.174569 -41.933 -0.00152309)
(0.187234 -41.8641 -0.0016339)
(0.420237 -34.4418 -0.00366748)
(0.40783 -22.4253 -0.00355381)
(0.377644 -18.9742 -0.00328802)
(0.334444 -18.3307 -0.00291712)
(0.307852 -17.4348 -0.00268631)
(0.284361 -16.2917 -0.00248183)
(0.264642 -15.0206 -0.00230993)
(0.245685 -13.7682 -0.00214449)
(0.227438 -12.6321 -0.00198524)
(0.208965 -11.6362 -0.00182402)
(0.19036 -10.7669 -0.00166164)
(0.171494 -9.99851 -0.00149699)
(0.152604 -9.30515 -0.00133212)
(0.133856 -8.66591 -0.00116849)
(0.115473 -8.06569 -0.00100804)
(0.0976042 -7.49454 -0.000852087)
(0.0803686 -6.94641 -0.000701652)
(0.0638335 -6.41789 -0.00055733)
(0.048039 -5.90724 -0.00041947)
(0.0330067 -5.41368 -0.000288262)
(0.0187531 -4.93695 -0.00016385)
(0.00529899 -4.47707 -4.64158e-05)
(-0.0073255 -4.0341 6.37789e-05)
(-0.0190768 -3.60814 0.000166353)
(-0.0298961 -3.19927 0.000260797)
(-0.0397108 -2.80755 0.000346471)
(-0.0484345 -2.43304 0.000422625)
(-0.0559696 -2.0758 0.000488408)
(-0.0622129 -1.73592 0.000542917)
(-0.067057 -1.41348 0.000585216)
(-0.0704175 -1.10865 0.000614567)
(-0.072212 -0.821589 0.000630254)
(-0.0725502 -0.552534 0.000633225)
(-0.0714375 -0.301577 0.000623619)
(-0.0699364 -0.0687829 0.000610531)
(-0.0680206 0.148132 0.000593804)
(-0.0646578 0.348461 0.000564475)
(-0.0601805 0.528605 0.000525407)
(-0.0560132 0.688555 0.00048902)
(-0.051905 0.828206 0.00045316)
(-0.047855 0.947306 0.000417807)
(-0.0437348 1.04538 0.000381843)
(-0.0395091 1.1218 0.000344957)
(-0.0351693 1.17576 0.000307075)
(-0.030742 1.20633 0.00026843)
(-0.0262756 1.21241 0.000229442)
(-0.0218365 1.19267 0.000190691)
(-0.0175058 1.14557 0.000152884)
(-0.0133763 1.06926 0.000116833)
(-0.009558 0.961544 8.34961e-05)
(-0.0061651 0.819759 5.38705e-05)
(-0.00334391 0.640723 2.92324e-05)
(-0.00122338 0.42056 1.07167e-05)
(-5.5041e-05 0.154759 6.73951e-07)
(0.130914 -43.2182 -0.00114249)
(-0.106308 -42.7498 0.000927707)
(0.236567 -42.1534 -0.00206479)
(-0.152373 -38.9385 0.00132959)
(0.164328 -42.2163 -0.00143367)
(0.210187 -42.1962 -0.0018342)
(0.4242 -34.6506 -0.00370209)
(0.412376 -22.5361 -0.0035937)
(0.382412 -18.9829 -0.00332902)
(0.339814 -18.3433 -0.00296384)
(0.313735 -17.4488 -0.0027376)
(0.290552 -16.3037 -0.00253585)
(0.271064 -15.0298 -0.00236598)
(0.252134 -13.7738 -0.00220079)
(0.233762 -12.6342 -0.00204044)
(0.214965 -11.6349 -0.00187639)
(0.195869 -10.7627 -0.00170973)
(0.176349 -9.99191 -0.00153937)
(0.156687 -9.29676 -0.00136777)
(0.137087 -8.65626 -0.0011967)
(0.117815 -8.05524 -0.0010285)
(0.0990582 -7.48364 -0.000864787)
(0.0809618 -6.93533 -0.00070684)
(0.0636105 -6.40681 -0.000555393)
(0.0470531 -5.89629 -0.000410875)
(0.0313138 -5.40296 -0.000273495)
(0.0164072 -4.92656 -0.000143384)
(0.00235035 -4.46707 -2.06879e-05)
(-0.010832 -4.02455 9.43762e-05)
(-0.0231017 -3.59911 0.000201476)
(-0.034406 -3.19083 0.000300153)
(-0.0446788 -2.79978 0.000389826)
(-0.053842 -2.426 0.000469816)
(-0.061809 -2.06955 0.000539368)
(-0.068492 -1.73051 0.000597715)
(-0.0738063 -1.40897 0.000644118)
(-0.0776985 -1.10504 0.000678108)
(-0.0801334 -0.818871 0.000699382)
(-0.0812478 -0.550604 0.000709127)
(-0.0811246 -0.300232 0.000708165)
(-0.0805069 -0.0676843 0.000702789)
(-0.0793544 0.148645 0.000692735)
(-0.0764817 0.348132 0.000667685)
(-0.0722393 0.527959 0.00063067)
(-0.0677919 0.687804 0.000591847)
(-0.0631314 0.827378 0.000551169)
(-0.0583581 0.946389 0.000509504)
(-0.0534116 1.04436 0.000466329)
(-0.0482901 1.12068 0.000421624)
(-0.043006 1.17455 0.000375501)
(-0.0376026 1.20507 0.000328334)
(-0.0321443 1.21111 0.000280688)
(-0.0267152 1.19137 0.000233295)
(-0.021416 1.1443 0.000187034)
(-0.0163612 1.06806 0.000142904)
(-0.0116859 0.960456 0.000102085)
(-0.00753113 0.818824 6.58069e-05)
(-0.00407759 0.639985 3.56463e-05)
(-0.0014855 0.420069 1.30129e-05)
(-6.42776e-05 0.154573 7.95087e-07)
(0.105774 -43.3676 -0.000923071)
(-0.0627767 -42.829 0.000547805)
(0.174259 -42.1301 -0.00152109)
(-0.146773 -38.916 0.00128083)
(0.138971 -42.5048 -0.00121232)
(0.252575 -42.547 -0.00220409)
(0.415531 -34.8321 -0.0036265)
(0.418226 -22.6439 -0.00364517)
(0.385515 -18.9875 -0.00335579)
(0.342879 -18.3546 -0.00299055)
(0.316835 -17.4624 -0.00276465)
(0.293799 -16.3157 -0.00256419)
(0.274476 -15.0389 -0.00239576)
(0.255647 -13.7793 -0.00223145)
(0.237294 -12.6362 -0.00207127)
(0.218404 -11.6335 -0.00190641)
(0.199098 -10.7583 -0.00173792)
(0.179236 -9.9851 -0.00156457)
(0.159107 -9.28806 -0.0013889)
(0.138931 -8.64621 -0.0012128)
(0.119003 -8.0443 -0.00103887)
(0.0995387 -7.4722 -0.000868989)
(0.0807118 -6.92366 -0.000704665)
(0.0626291 -6.39512 -0.000546835)
(0.0453556 -5.88473 -0.000396067)
(0.0289257 -5.39164 -0.00025266)
(0.0133598 -4.91557 -0.000116793)
(-0.00132301 -4.45648 1.1366e-05)
(-0.0150975 -4.01444 0.000131599)
(-0.027927 -3.58955 0.000243585)
(-0.0397612 -3.18188 0.000346886)
(-0.0505378 -2.7915 0.000440957)
(-0.0601845 -2.41846 0.000525168)
(-0.0686234 -2.06282 0.000598838)
(-0.0757789 -1.72462 0.000661309)
(-0.0815845 -1.40395 0.000711999)
(-0.086008 -1.1009 0.000750626)
(-0.0890443 -0.815565 0.000777146)
(-0.0908302 -0.54803 0.000792754)
(-0.0914695 -0.298233 0.000798457)
(-0.0914521 -0.0660437 0.000798323)
(-0.0906939 0.149616 0.000791718)
(-0.0881511 0.348202 0.000769549)
(-0.0840885 0.527536 0.000734105)
(-0.0794138 0.687109 0.000693304)
(-0.0742641 0.826495 0.000648359)
(-0.0688138 0.945345 0.000600787)
(-0.0630701 1.04317 0.000550655)
(-0.057069 1.11935 0.000498273)
(-0.0508488 1.17311 0.000443978)
(-0.0444725 1.20355 0.00038832)
(-0.0380229 1.20954 0.000332021)
(-0.031603 1.1898 0.000275979)
(-0.0253336 1.14277 0.000221247)
(-0.0193513 1.06662 0.000169021)
(-0.0138167 0.959147 0.000120699)
(-0.00889795 0.817699 7.77504e-05)
(-0.00481071 0.639099 4.20554e-05)
(-0.00174677 0.41948 1.53018e-05)
(-7.33495e-05 0.154353 9.14581e-07)
(0.0759259 -43.5185 -0.00066256)
(-0.0118406 -42.909 0.000103285)
(0.107991 -42.0512 -0.000942829)
(-0.129206 -38.9313 0.00112763)
(0.110616 -42.8248 -0.000964785)
(0.314049 -42.9204 -0.00274058)
(0.394927 -34.9854 -0.00344689)
(0.422128 -22.761 -0.00367962)
(0.384762 -18.9945 -0.0033489)
(0.343007 -18.3676 -0.00299164)
(0.317166 -17.4773 -0.00276754)
(0.294484 -16.3288 -0.00257017)
(0.275398 -15.049 -0.00240382)
(0.256762 -13.7857 -0.00224118)
(0.238478 -12.6387 -0.00208161)
(0.219576 -11.6324 -0.00191664)
(0.20017 -10.754 -0.00174727)
(0.180117 -9.97811 -0.00157226)
(0.159704 -9.27899 -0.00139411)
(0.139151 -8.63565 -0.00121473)
(0.118764 -8.03277 -0.00103679)
(0.0987715 -7.4601 -0.0008623)
(0.0793652 -6.91129 -0.000692919)
(0.0606688 -6.38272 -0.000529734)
(0.0427633 -5.87247 -0.000373449)
(0.0256957 -5.37964 -0.000224476)
(0.00949697 -4.90391 -8.30864e-05)
(-0.00580602 -4.44525 5.04862e-05)
(-0.0201825 -4.00371 0.000175973)
(-0.033592 -3.57938 0.000293022)
(-0.0459823 -3.17235 0.000401178)
(-0.0572913 -2.78267 0.000499895)
(-0.0674491 -2.41039 0.000588567)
(-0.0763829 -2.05555 0.000666557)
(-0.0840258 -1.71821 0.000733281)
(-0.090323 -1.39841 0.000788262)
(-0.0952553 -1.09621 0.00083133)
(-0.0988328 -0.811692 0.000862574)
(-0.101177 -0.544878 0.000883052)
(-0.102382 -0.295686 0.000893707)
(-0.102753 -0.063976 0.000896963)
(-0.102174 0.150948 0.000891925)
(-0.0998106 0.348609 0.000871326)
(-0.0958368 0.527323 0.00083666)
(-0.0909401 0.686483 0.000793927)
(-0.0853325 0.825573 0.000744987)
(-0.0792356 0.944186 0.000691774)
(-0.0727163 1.04181 0.000634873)
(-0.0658484 1.11781 0.000574925)
(-0.0586987 1.17144 0.000512518)
(-0.0513523 1.20178 0.000448392)
(-0.0439119 1.20772 0.000383444)
(-0.0365001 1.18797 0.000318743)
(-0.0292587 1.14099 0.000255527)
(-0.0223468 1.06494 0.000195184)
(-0.0159508 0.957618 0.000139342)
(-0.0102662 0.816385 8.97066e-05)
(-0.00554405 0.638064 4.84664e-05)
(-0.0020078 0.418794 1.75886e-05)
(-8.23908e-05 0.154096 1.03373e-06)
(0.0469557 -43.667 -0.000409719)
(0.0353006 -42.9817 -0.000308107)
(0.0497628 -41.919 -0.000434714)
(-0.115029 -38.9673 0.00100401)
(0.0854892 -43.1895 -0.000745419)
(0.379883 -43.2953 -0.00331516)
(0.358941 -35.0962 -0.00313301)
(0.422503 -22.8867 -0.00368327)
(0.381859 -19.0004 -0.00332341)
(0.340909 -18.3799 -0.00297335)
(0.315 -17.492 -0.00274867)
(0.292503 -16.3418 -0.00255289)
(0.273519 -15.059 -0.00238742)
(0.255055 -13.7919 -0.00222629)
(0.236881 -12.6411 -0.00206767)
(0.218085 -11.6312 -0.00190364)
(0.198749 -10.7496 -0.00173488)
(0.178719 -9.97095 -0.00156007)
(0.158256 -9.2697 -0.00138148)
(0.137564 -8.62478 -0.00120088)
(0.11694 -8.02082 -0.00102088)
(0.0966162 -7.4475 -0.000843493)
(0.0767952 -6.89837 -0.000670494)
(0.0576155 -6.36972 -0.000503091)
(0.0391745 -5.85956 -0.000342132)
(0.0215357 -5.36697 -0.000188174)
(0.00474462 -4.89158 -4.1615e-05)
(-0.0111586 -4.43335 9.71968e-05)
(-0.0261326 -3.99232 0.000227899)
(-0.0401283 -3.56858 0.000350064)
(-0.0530871 -3.1622 0.000463182)
(-0.0649432 -2.77324 0.000566674)
(-0.0756254 -2.40174 0.000659923)
(-0.0850625 -2.04772 0.000742306)
(-0.0931917 -1.71124 0.000813275)
(-0.099965 -1.39231 0.000872411)
(-0.105368 -1.09098 0.00091959)
(-0.109416 -0.807281 0.000954938)
(-0.112206 -0.541208 0.000979313)
(-0.113813 -0.292677 0.000993484)
(-0.11441 -0.0615586 0.000998724)
(-0.113871 0.152572 0.000994034)
(-0.111557 0.349294 0.000973863)
(-0.107571 0.527294 0.000939096)
(-0.102428 0.685924 0.000894214)
(-0.0963685 0.82462 0.000841333)
(-0.0896403 0.942919 0.000782611)
(-0.0823586 1.04028 0.000719056)
(-0.0746326 1.11608 0.00065162)
(-0.066558 1.16954 0.00058114)
(-0.0582431 1.19976 0.00050856)
(-0.0498116 1.20563 0.000434961)
(-0.0414067 1.18588 0.000361591)
(-0.0331915 1.13895 0.000289874)
(-0.025348 1.06301 0.000221398)
(-0.0180887 0.955867 0.000158018)
(-0.0116366 0.814881 0.000101681)
(-0.0062782 0.63688 5.48845e-05)
(-0.00226906 0.418011 1.98774e-05)
(-9.14926e-05 0.153805 1.15345e-06)
(0.0233412 -43.8145 -0.000203619)
(0.0718355 -43.0546 -0.000626934)
(0.0110361 -41.7519 -9.67909e-05)
(-0.113546 -39.0122 0.000991157)
(0.0718694 -43.6149 -0.000626479)
(0.431831 -43.6484 -0.00376861)
(0.307396 -35.1633 -0.00268318)
(0.415771 -23.0318 -0.0036248)
(0.375865 -19.0088 -0.00327098)
(0.336019 -18.3922 -0.0029307)
(0.310077 -17.5065 -0.00270576)
(0.28777 -16.3546 -0.00251159)
(0.268884 -15.0689 -0.00234698)
(0.250648 -13.7981 -0.00218783)
(0.232659 -12.6435 -0.00203083)
(0.214086 -11.63 -0.00186874)
(0.194961 -10.7451 -0.00170182)
(0.175126 -9.96369 -0.00152871)
(0.154801 -9.26022 -0.00135132)
(0.134164 -8.61363 -0.00117121)
(0.113495 -8.00852 -0.000990814)
(0.0930174 -7.43445 -0.000812086)
(0.0729358 -6.88492 -0.000636813)
(0.0533996 -6.35612 -0.000466299)
(0.0345215 -5.84601 -0.000301527)
(0.0163829 -5.35362 -0.000143207)
(-0.000952332 -4.87856 8.10137e-06)
(-0.0174271 -4.42076 0.000151901)
(-0.0329843 -3.98024 0.000287693)
(-0.0475619 -3.5571 0.000414938)
(-0.0610907 -3.15139 0.000533031)
(-0.0734972 -2.76317 0.000641327)
(-0.0847052 -2.39247 0.000739165)
(-0.0946415 -2.0393 0.000825906)
(-0.103243 -1.7037 0.000901001)
(-0.110465 -1.38567 0.000964049)
(-0.116291 -1.08522 0.00101492)
(-0.120734 -0.802364 0.00105371)
(-0.123865 -0.537073 0.00108107)
(-0.125736 -0.289269 0.00109756)
(-0.126434 -0.0588456 0.00110368)
(-0.125833 0.154438 0.00109846)
(-0.123456 0.350205 0.00107774)
(-0.11936 0.527418 0.00104201)
(-0.113927 0.685425 0.000994602)
(-0.107404 0.823636 0.000937671)
(-0.100046 0.941549 0.000873457)
(-0.0920071 1.0386 0.000803294)
(-0.083427 1.11414 0.000728404)
(-0.0744296 1.1674 0.000649869)
(-0.0651464 1.19749 0.000568838)
(-0.0557229 1.20329 0.000486579)
(-0.0463233 1.18352 0.000404526)
(-0.0371324 1.13665 0.000324291)
(-0.0283551 1.06083 0.000247663)
(-0.0202306 0.953894 0.000176729)
(-0.0130093 0.813187 0.000113676)
(-0.00701363 0.635547 6.13138e-05)
(-0.00253087 0.41713 2.2171e-05)
(-0.00010071 0.153478 1.27429e-06)
(0.00775687 -43.9591 -6.76072e-05)
(0.0938923 -43.129 -0.000819414)
(-0.00817454 -41.5544 7.08243e-05)
(-0.131367 -39.0501 0.00114674)
(0.0676784 -44.0974 -0.00058985)
(0.448596 -43.9503 -0.00391502)
(0.2421 -35.1917 -0.00211323)
(0.401139 -23.2053 -0.00349731)
(0.367402 -19.0206 -0.00319716)
(0.328404 -18.4036 -0.0028643)
(0.302342 -17.52 -0.00263833)
(0.280131 -16.3667 -0.00244495)
(0.261337 -15.0783 -0.00228111)
(0.243408 -13.8039 -0.00212464)
(0.22573 -12.6455 -0.00197036)
(0.207549 -11.6285 -0.00181168)
(0.188822 -10.7405 -0.00164824)
(0.169382 -9.95632 -0.00147857)
(0.149394 -9.25061 -0.00130413)
(0.129008 -8.6023 -0.0011262)
(0.108472 -7.99593 -0.000946977)
(0.0880006 -7.42103 -0.000768301)
(0.067795 -6.871 -0.000591947)
(0.0480142 -6.34197 -0.000419299)
(0.0287865 -5.83185 -0.000251476)
(0.0102129 -5.33961 -8.93607e-05)
(-0.00762147 -4.86484 6.63035e-05)
(-0.0246384 -4.40745 0.000214835)
(-0.0407614 -3.96745 0.000355565)
(-0.0559113 -3.5449 0.000487805)
(-0.0700046 -3.13989 0.000610825)
(-0.0829564 -2.75243 0.00072388)
(-0.0946823 -2.38256 0.00082624)
(-0.105104 -2.03028 0.000917216)
(-0.114155 -1.69558 0.000996232)
(-0.121787 -1.37848 0.00106287)
(-0.127982 -1.07895 0.00111695)
(-0.132743 -0.79697 0.00115853)
(-0.13612 -0.532515 0.00118803)
(-0.138139 -0.285512 0.00120583)
(-0.138836 -0.0558775 0.00121194)
(-0.138091 0.156506 0.00120546)
(-0.135554 0.3513 0.00118335)
(-0.131255 0.527666 0.00114585)
(-0.125481 0.684969 0.00109546)
(-0.118467 0.822617 0.00103426)
(-0.110471 0.940075 0.000964473)
(-0.101673 1.03675 0.000887681)
(-0.0922379 1.112 0.000805331)
(-0.0823168 1.16504 0.000718734)
(-0.072064 1.19497 0.00062924)
(-0.0616466 1.20068 0.000538306)
(-0.0512502 1.1809 0.000447551)
(-0.0410814 1.13409 0.000358779)
(-0.0313684 1.05842 0.000273983)
(-0.0223768 0.951699 0.000195478)
(-0.0143849 0.811301 0.000125696)
(-0.00775068 0.634064 6.77573e-05)
(-0.00279347 0.416151 2.44715e-05)
(-0.000110073 0.153116 1.39656e-06)
(-7.24943e-05 -44.1008 7.20793e-07)
(0.102752 -43.2074 -0.000896717)
(-0.0119078 -41.327 0.000103387)
(-0.168248 -39.068 0.00146864)
(0.0639093 -44.6135 -0.00055694)
(0.416873 -44.1807 -0.00363823)
(0.170525 -35.2007 -0.00148841)
(0.380063 -23.4168 -0.00331357)
(0.356478 -19.0379 -0.00310209)
(0.317842 -18.414 -0.00277221)
(0.291647 -17.5322 -0.00254509)
(0.269511 -16.3777 -0.00235228)
(0.250901 -15.0869 -0.00219003)
(0.233439 -13.8092 -0.00203764)
(0.216267 -12.6473 -0.00188777)
(0.198681 -11.6269 -0.00173428)
(0.180554 -10.7358 -0.00157608)
(0.1617 -9.94891 -0.00141153)
(0.142229 -9.24093 -0.00124159)
(0.122256 -8.59082 -0.00106727)
(0.102 -7.98311 -0.000890488)
(0.0816609 -7.40727 -0.000712968)
(0.0614379 -6.85664 -0.000536464)
(0.0414987 -6.32729 -0.000362435)
(0.0219885 -5.81707 -0.000192146)
(0.00302966 -5.32493 -2.66704e-05)
(-0.0152686 -4.85041 0.000133042)
(-0.032804 -4.3934 0.000286098)
(-0.0494772 -3.9539 0.00043163)
(-0.0651885 -3.53198 0.00056877)
(-0.0798369 -3.12767 0.000696634)
(-0.0933233 -2.74101 0.000814356)
(-0.105552 -2.37199 0.000921107)
(-0.116437 -2.02063 0.00101613)
(-0.125907 -1.68688 0.00109879)
(-0.133907 -1.37074 0.00116864)
(-0.140411 -1.07217 0.00122543)
(-0.145416 -0.79113 0.00126913)
(-0.148948 -0.527575 0.00129999)
(-0.151017 -0.281448 0.00131825)
(-0.151624 -0.0526871 0.00132358)
(-0.150666 0.158745 0.00131524)
(-0.147885 0.35254 0.00129099)
(-0.143297 0.528007 0.00125097)
(-0.137124 0.68454 0.00119711)
(-0.129586 0.821554 0.00113132)
(-0.120933 0.938492 0.00105581)
(-0.111366 1.03475 0.000972314)
(-0.101072 1.10966 0.000882459)
(-0.0902234 1.16245 0.000787769)
(-0.078998 1.1922 0.000689785)
(-0.0675839 1.19781 0.00059015)
(-0.056188 1.17802 0.000490671)
(-0.0450389 1.13127 0.000393342)
(-0.034388 1.05575 0.000300357)
(-0.0245275 0.949281 0.000214267)
(-0.0157634 0.809225 0.000137742)
(-0.00848957 0.632432 7.42168e-05)
(-0.00305699 0.415075 2.67801e-05)
(-0.000119597 0.152718 1.52043e-06)
(-0.00183386 -44.2389 1.60861e-05)
(0.101899 -43.2882 -0.00088926)
(-0.00816281 -41.0615 7.07095e-05)
(-0.22197 -39.0506 0.0019375)
(0.0475717 -45.1225 -0.000414378)
(0.336671 -44.3373 -0.00293828)
(0.105074 -35.2188 -0.000917009)
(0.356638 -23.6687 -0.00310941)
(0.343892 -19.0594 -0.0029929)
(0.304515 -18.4224 -0.00265609)
(0.278076 -17.5424 -0.00242679)
(0.255961 -16.3871 -0.00223405)
(0.237659 -15.0946 -0.00207447)
(0.220872 -13.8139 -0.00192796)
(0.204452 -12.6488 -0.00178464)
(0.187704 -11.6252 -0.00163847)
(0.170401 -10.731 -0.00148745)
(0.15233 -9.94149 -0.00132974)
(0.133542 -9.23121 -0.00116577)
(0.114121 -8.57924 -0.000996272)
(0.0942592 -7.97009 -0.00082292)
(0.0741432 -7.39318 -0.000647353)
(0.0539741 -6.84184 -0.00047132)
(0.0339309 -6.31206 -0.000296385)
(0.0141779 -5.80166 -0.000123979)
(-0.00513804 -5.30954 4.46127e-05)
(-0.0238811 -4.83523 0.000208207)
(-0.041922 -4.37858 0.000365674)
(-0.0591359 -3.93959 0.000515925)
(-0.0753999 -3.51828 0.000657888)
(-0.0905931 -3.11471 0.000790509)
(-0.1046 -2.72887 0.000912775)
(-0.117313 -2.36076 0.00102375)
(-0.128634 -2.01034 0.00112258)
(-0.138484 -1.6776 0.00120857)
(-0.146804 -1.36247 0.0012812)
(-0.153558 -1.06491 0.00134017)
(-0.158732 -0.784871 0.00138536)
(-0.162337 -0.522285 0.00141685)
(-0.164369 -0.277111 0.0014348)
(-0.16481 -0.0493021 0.00143868)
(-0.163572 0.161126 0.0014279)
(-0.16047 0.353892 0.00140085)
(-0.155516 0.528414 0.00135764)
(-0.148885 0.684118 0.00129978)
(-0.140782 0.820435 0.00122907)
(-0.131449 0.936796 0.00114762)
(-0.121099 1.03258 0.00105728)
(-0.109935 1.10712 0.000959845)
(-0.0981533 1.15962 0.000857007)
(-0.0859504 1.18918 0.000750491)
(-0.0735357 1.19468 0.000642122)
(-0.0611371 1.17486 0.00053389)
(-0.049005 1.12819 0.000427979)
(-0.0374141 1.05284 0.000326788)
(-0.0266828 0.946639 0.000233095)
(-0.0171451 0.806957 0.000149815)
(-0.00923045 0.63065 8.06938e-05)
(-0.00332152 0.413899 2.90976e-05)
(-0.000129288 0.152284 1.64596e-06)
(-0.0006629 -44.3732 5.8608e-06)
(0.0965969 -43.3691 -0.000842994)
(-0.00399326 -40.7456 3.43433e-05)
(-0.289068 -38.9808 0.00252306)
(0.0121916 -45.5844 -0.000105647)
(0.224189 -44.4414 -0.00195654)
(0.0606653 -35.2767 -0.000529216)
(0.334378 -23.9543 -0.00291555)
(0.330426 -19.0815 -0.00287659)
(0.288687 -18.4278 -0.00251826)
(0.261854 -17.5501 -0.00228538)
(0.239722 -16.3948 -0.00209236)
(0.221903 -15.1013 -0.00193695)
(0.206041 -13.8181 -0.00179852)
(0.190652 -12.65 -0.00166419)
(0.174998 -11.6234 -0.00152757)
(0.158738 -10.7264 -0.00138565)
(0.141625 -9.93413 -0.0012363)
(0.123653 -9.22151 -0.00107945)
(0.104882 -8.56758 -0.000915629)
(0.0854814 -7.95686 -0.000746305)
(0.0656341 -7.37877 -0.000573084)
(0.045547 -6.82658 -0.000397769)
(0.0254155 -6.29626 -0.000222063)
(0.00542671 -5.78559 -4.7602e-05)
(-0.0142447 -5.29343 0.000124091)
(-0.0334337 -4.81928 0.000291576)
(-0.0519814 -4.36297 0.000453466)
(-0.0697356 -3.92447 0.000608433)
(-0.0865483 -3.5038 0.000755186)
(-0.102278 -3.10098 0.000892485)
(-0.11679 -2.716 0.00101916)
(-0.129963 -2.34883 0.00113415)
(-0.141689 -1.99943 0.00123651)
(-0.151879 -1.66773 0.00132547)
(-0.160466 -1.35368 0.00140044)
(-0.167407 -1.0572 0.00146105)
(-0.17268 -0.778218 0.00150709)
(-0.17628 -0.516674 0.00153855)
(-0.178195 -0.272529 0.0015555)
(-0.178399 -0.0457472 0.00155731)
(-0.17682 0.163625 0.00154355)
(-0.173327 0.355327 0.00151309)
(-0.167934 0.528861 0.00146605)
(-0.160787 0.683683 0.00140368)
(-0.152075 0.819247 0.00132766)
(-0.142033 0.934978 0.00124002)
(-0.130879 1.03025 0.00114268)
(-0.118834 1.10438 0.00103754)
(-0.10611 1.15656 0.00092648)
(-0.0929233 1.1859 0.000811375)
(-0.0795031 1.19129 0.000694231)
(-0.066098 1.17145 0.000577212)
(-0.05298 1.12486 0.000462694)
(-0.0404466 1.04969 0.000353275)
(-0.0288428 0.943774 0.000251964)
(-0.0185301 0.804497 0.000161917)
(-0.00997341 0.628717 8.71888e-05)
(-0.00358712 0.412626 3.14244e-05)
(-0.000139144 0.151814 1.77315e-06)
(0.000792017 -44.5033 -6.84491e-06)
(0.0911519 -43.4458 -0.000795475)
(-0.00477949 -40.3632 4.12281e-05)
(-0.366798 -38.8438 0.00320143)
(-0.0337651 -45.9788 0.000295396)
(0.106253 -44.531 -0.000927117)
(0.0494929 -35.3935 -0.000431496)
(0.313236 -24.2562 -0.00273155)
(0.316937 -19.099 -0.00276078)
(0.270876 -18.4289 -0.00236325)
(0.243445 -17.5546 -0.00212491)
(0.22125 -16.4005 -0.00193119)
(0.204097 -15.1069 -0.00178155)
(0.189421 -13.8219 -0.00165345)
(0.175345 -12.6512 -0.00153059)
(0.16103 -11.6217 -0.00140565)
(0.146008 -10.7218 -0.00127454)
(0.129992 -9.92688 -0.00113476)
(0.112926 -9.21184 -0.000985814)
(0.0948516 -8.55582 -0.000828075)
(0.0759278 -7.9434 -0.000662918)
(0.0563435 -7.36399 -0.000491994)
(0.036319 -6.81082 -0.000317227)
(0.0160723 -6.27985 -0.000140518)
(-0.00418119 -5.7688 3.62524e-05)
(-0.0242358 -5.27653 0.000211289)
(-0.0438943 -4.80249 0.000382871)
(-0.0629668 -4.3465 0.000549341)
(-0.0812718 -3.9085 0.000709114)
(-0.0986357 -3.48849 0.000860679)
(-0.114894 -3.08646 0.0010026)
(-0.129896 -2.70239 0.00113355)
(-0.143505 -2.33621 0.00125234)
(-0.1556 -1.98788 0.00135793)
(-0.166086 -1.65729 0.00144947)
(-0.174886 -1.34438 0.0015263)
(-0.181952 -1.04904 0.001588)
(-0.187252 -0.771196 0.00163428)
(-0.190774 -0.51077 0.00166505)
(-0.192498 -0.267729 0.00168036)
(-0.192398 -0.0420454 0.00167952)
(-0.190418 0.166217 0.00166226)
(-0.186468 0.356817 0.00162781)
(-0.180569 0.529321 0.00157635)