/*--------------------------------*- C++ -*----------------------------------*\
| =========                 |                                                 |
| \\      /  F ield         | OpenFOAM: The Open Source CFD Toolbox           |
|  \\    /   O peration     | Version:  v2006                                 |
|   \\  /    A nd           | Website:  www.openfoam.com                      |
|    \\/     M anipulation  |                                                 |
\*---------------------------------------------------------------------------*/
FoamFile
{
    version     2.0;
    format      ascii;
    class       volScalarField;
    location    "0.03";
    object      p;
}
// * * * * * * * * * * * * * * * * * * * * * * * * * * * * * * * * * * * * * //

dimensions      [1 -1 -2 0 0 0 0];


internalField   nonuniform List<scalar> 
14347
(
100791
103874
103522
2.00001e+06
2.00001e+06
103031
6642.06
104214
1.99999e+06
2.00002e+06
103577
103035
103790
2.00003e+06
103034
98126.4
2.00007e+06
2.00007e+06
1.99999e+06
103165
2.00018e+06
2.00017e+06
2e+06
103202
2.00009e+06
103201
103758
2.00017e+06
2.00019e+06
103219
103755
103750
2.0002e+06
103600
2.0002e+06
105254
2.0002e+06
2.0002e+06
2.0001e+06
84894.9
103749
103752
103012
2.00013e+06
103752
102523
2.00017e+06
103684
2.00019e+06
2.00019e+06
103666
103660
103665
101966
103646
103621
2301.68
2.00003e+06
2.00005e+06
2.00004e+06
103895
2.00004e+06
102931
2.00005e+06
2.00003e+06
101969
2.00018e+06
102041
102469
102584
2e+06
2.00004e+06
2.00014e+06
102877
101831
2.00013e+06
103451
2.00015e+06
2.00012e+06
101862
104416
103175
2741.12
2480.62
2.00009e+06
2302.42
101181
2.0001e+06
101191
104300
106307
106286
103448
103999
105106
102504
102902
3209.33
104134
103633
104580
103087
104357
104054
104183
105138
103724
103227
2.00011e+06
103056
104102
104170
103031
104203
103728
102611
102893
102397
104091
103962
104264
2.00011e+06
102594
105658
105840
105094
84852.4
103831
2.00017e+06
2.00002e+06
102241
103499
97764.8
103024
112079
98599.6
102568
104031
103470
102415
97492.5
102683
106844
2.00009e+06
102654
102414
2.00011e+06
2.00015e+06
104070
102990
102414
102414
102127
103630
102481
103111
97774.5
98308
102484
103483
85912
96000.3
2.00016e+06
102493
102481
102411
2.00008e+06
102420
102412
102915
103790
102121
102850
2.00011e+06
102887
102415
102863
1.975e+06
102580
102094
102505
103018
103941
102502
102487
2333.18
102492
102635
103417
102190
102647
2.00011e+06
101584
102631
103391
103020
102884
102899
102413
102927
102905
102901
102400
103030
103059
103085
103010
103502
103020
103528
102951
95109
102402
103004
103532
103532
102626
103501
101903
103161
103141
103036
103149
102476
102419
102482
2.00011e+06
103792
102979
103118
103680
103791
103804
2.00011e+06
103701
102846
103821
103614
103659
102671
103026
2.00003e+06
103445
103378
102525
102392
103447
103889
103865
103981
103779
2.00011e+06
103786
2.0002e+06
103957
103784
103392
102433
101028
102880
103508
100923
103470
103066
101257
102819
103743
101110
103784
103680
103745
103737
103539
103228
103757
2.00004e+06
103215
103775
103748
101034
101845
101492
102853
104400
2.00018e+06
103485
2.0001e+06
103155
102267
101464
101867
2.00011e+06
103482
102462
255669
103587
103324
103250
103192
1.99967e+06
2.00005e+06
103518
2.00001e+06
2.00014e+06
100918
103584
2.00001e+06
2.00001e+06
-514.33
2e+06
104908
2.00002e+06
102498
2.00011e+06
2.00016e+06
102998
2.00011e+06
2.00008e+06
2.00012e+06
102406
100439
2e+06
2.00001e+06
2.00001e+06
2.00003e+06
103395
2.00012e+06
102394
2.00015e+06
2.00012e+06
2.00002e+06
103725
2.00002e+06
2.00012e+06
102406
2.00004e+06
2.00004e+06
2.00007e+06
2.00006e+06
104408
2.00007e+06
2.00004e+06
103377
2.00003e+06
2.00004e+06
101345
2.00004e+06
2249.46
2367.35
2557.94
2123.72
98474.9
4377.08
103651
2.00019e+06
2.00016e+06
2.00004e+06
2.00019e+06
103496
1.99994e+06
2.00016e+06
2.00018e+06
1.99998e+06
103708
103562
2.00012e+06
102433
2.00011e+06
102623
2.00008e+06
102102
104671
102478
1.99996e+06
2.00007e+06
1.99986e+06
2127.7
1.9999e+06
102606
101640
2.00017e+06
102587
102545
103742
2.00018e+06
2.00017e+06
2.00015e+06
2.00018e+06
103916
2.00019e+06
1.99994e+06
2.0002e+06
2e+06
2.00015e+06
102817
103792
102689
2194.15
102397
103686
103876
103447
103234
104773
1.99997e+06
103574
103584
94927.1
103013
103773
103855
103797
103681
104281
102356
102568
94183.8
102663
2307.2
104208
103813
103680
104196
103562
102877
102543
103040
103046
102397
104142
103828
85459.3
103433
102633
103351
93412.6
88641.3
102406
103004
102993
103038
100321
2.0001e+06
2.00004e+06
103641
103778
2.00004e+06
102482
103751
103389
2.00011e+06
103333
102409
102524
102287
102737
102411
101208
103573
103814
103182
102408
102407
2.00001e+06
102407
103791
102887
102412
102483
2e+06
102405
102484
102405
102406
103432
102415
103042
1.99343e+06
103843
102893
102414
102413
2.00018e+06
102515
103411
102405
102438
102883
102427
121100
103288
103014
102453
100808
102514
102508
102780
102509
102507
2.0002e+06
2.00007e+06
102727
102953
103016
103806
103713
102953
102956
102964
102955
103041
103582
103037
103039
103013
103014
102969
103542
101802
103549
103807
103190
855373
2331.26
2263.1
2.00006e+06
102968
2.00015e+06
2.0001e+06
103512
102959
2.00019e+06
103555
103437
101349
103769
103639
103116
102357
103358
103639
103647
103549
103582
2.00007e+06
103751
103770
1902.78
103734
103736
103771
103763
103741
1.99974e+06
103777
103765
103765
103772
2.00019e+06
102534
103794
103147
103135
103032
2.00007e+06
102990
108381
103796
100701
99803.4
102759
2277.81
102869
100761
103798
101805
104389
101554
2220.45
104132
103639
101042
101077
1.99995e+06
102436
103848
103371
2.00007e+06
103771
103165
101063
2.00007e+06
104310
104321
103913
2.00019e+06
102461
104407
2.0002e+06
2.00017e+06
103446
2.00004e+06
2.00004e+06
2.00019e+06
102666
103417
2.00005e+06
101286
2.00018e+06
103012
101319
1.99124e+06
102958
101338
2.00006e+06
102323
2.00011e+06
2.00014e+06
2.0001e+06
2.0001e+06
102526
102094
2.00008e+06
101767
104507
103068
1682.36
101526
2.00019e+06
2.00003e+06
2.00004e+06
1.9998e+06
1.99984e+06
2.00019e+06
103618
2.00019e+06
103045
102892
103485
103755
101896
103817
2.00019e+06
2.00019e+06
103762
2.00009e+06
2.00009e+06
102409
2.00009e+06
2.00009e+06
2.00009e+06
102916
102100
104245
102910
2.00019e+06
102873
102608
103870
2.00018e+06
103758
103138
103791
247835
102439
102428
103661
97333.6
96664.2
1.9997e+06
2.00012e+06
103647
1.61088e+06
104354
2.00002e+06
104118
104279
2.00013e+06
102473
102479
103324
2.00007e+06
103486
2.00006e+06
2.00006e+06
2.00007e+06
100547
104300
101277
102413
2.00013e+06
102830
102413
103534
102437
102409
103793
102413
102398
103796
103025
102414
2.0001e+06
102412
102997
102386
102414
104666
102505
102570
102515
102418
102495
102415
102437
102508
102595
2e+06
102446
102508
101315
102522
102399
2.0002e+06
102420
102554
104585
103768
103102
102614
2.0001e+06
103772
103786
102942
105232
102891
102490
102673
102492
102407
102876
102923
103596
103033
102489
102444
104394
103031
103043
102828
102851
103251
103067
104250
103020
103003
103007
104502
102921
104406
103796
102463
102982
102720
103023
102993
103219
103899
103743
104757
102869
103768
103706
103725
2.00019e+06
102852
103747
103211
83156.4
103809
2.00019e+06
103676
103774
2.00008e+06
103479
2.00011e+06
103807
2.00012e+06
102678
103790
103788
2.00011e+06
103061
103802
2.00018e+06
103643
102031
103648
102969
102028
2.00018e+06
102429
3345.58
103794
103600
103794
103550
103314
103679
103791
101533
101915
102107
2.00004e+06
101839
102789
101915
101797
2.00019e+06
103275
2.00012e+06
102974
103791
2.00012e+06
2.00002e+06
102507
102487
103400
2.00002e+06
102415
2.00001e+06
103763
103750
103023
102408
2e+06
102446
103362
103689
103045
103508
2.00015e+06
100180
102670
99887.2
102518
103567
103705
103033
102412
2.00017e+06
99576.9
2.0002e+06
99375.3
99559.8
99808.8
106078
104879
103252
85630.4
103278
103779
102404
102674
104366
103153
104979
101861
103430
102031
102723
103778
103039
102480
102417
103744
102090
103952
103989
100689
104118
103760
101177
101607
102538
103272
103746
99018
103676
2.00008e+06
103522
103102
1.99999e+06
95687.9
102032
87512.8
103873
103017
103574
103155
102958
102747
102755
100920
89009.9
103537
103741
102990
102580
103724
2.0002e+06
103639
102110
103788
99878.2
98998.5
102414
102047
104148
103784
102213
101914
2.00002e+06
103749
104310
2.00001e+06
102427
102664
103772
103784
2.00001e+06
103507
100543
2.00002e+06
103035
2.00002e+06
2.00011e+06
102408
102708
2.00002e+06
2.00002e+06
2.00019e+06
103708
99005.5
102413
2.00003e+06
101877
102412
2.0002e+06
102411
2.00006e+06
103597
102406
103282
102348
103814
103266
2.00015e+06
103389
102403
102403
2.00015e+06
102385
102559
102502
102499
102625
102660
102647
2.00016e+06
102800
2.00016e+06
102860
102981
102950
102450
101434
103005
101289
102415
102413
103049
103045
103046
103659
103898
103049
104347
102926
102951
2e+06
102969
101148
1.99996e+06
2.00007e+06
2.00004e+06
1.99982e+06
103290
102408
102568
102416
103541
102415
103005
102613
103761
103002
102426
102403
103802
105292
102195
2.00004e+06
103802
103818
97840.6
102515
102461
102520
103728
103011
102428
103299
102515
2e+06
102504
103428
2908.31
102508
102462
103412
102314
102093
2287.24
102469
102474
102487
102484
102394
102479
103610
102494
102427
102578
102429
1882.3
102431
2.00017e+06
101254
5615.19
102497
103788
102497
2.00017e+06
2.00016e+06
102492
102994
2.00014e+06
102608
2.00004e+06
102998
102993
2.00006e+06
102991
102420
102997
2.00009e+06
102406
103001
102974
1.9982e+06
102406
103864
2.00015e+06
104062
103649
102978
103837
103490
104027
103784
102997
102701
103586
102405
103003
103000
103000
103712
103737
103710
103519
103211
103715
102652
103729
102412
102710
102413
103724
2.00017e+06
103535
103238
103507
103728
103761
103497
101686
102984
103499
103108
103564
104215
103299
102956
101420
103511
2.00012e+06
103504
102746
102695
102507
102052
103041
102643
103681
105255
2.00007e+06
103732
2.00013e+06
2.00013e+06
104548
104038
2.00011e+06
103800
103068
103068
103467
2.00001e+06
104639
2.00002e+06
2.0001e+06
104673
2.00002e+06
103152
2.00005e+06
103253
104399
103720
103010
2.00008e+06
2580.03
102408
103807
103799
98357.8
5669.07
104087
102403
103987
103800
2.00015e+06
102418
103981
103963
103801
102435
102513
103174
103743
102499
103130
2.0002e+06
103799
103102
104098
102540
103798
102503
102471
103419
102698
100481
103741
103107
103391
103830
103973
102711
102909
102945
103568
2.00017e+06
103968
103052
103056
104194
103833
102412
104449
102418
102989
103494
2.00008e+06
2.00009e+06
2.00009e+06
102944
102426
103205
101749
105157
103255
102997
2.00009e+06
2.00014e+06
103014
102904
102396
103630
103559
100902
103595
103782
100976
103769
103790
103768
101013
2.00009e+06
103022
102407
101171
2.00004e+06
2.00001e+06
1848.46
103795
2296.08
103021
2.00004e+06
101205
103711
103728
103718
103717
103619
102973
103723
102590
103735
2.00011e+06
103725
2.00008e+06
2.00009e+06
103429
102591
104300
2.00007e+06
2.00015e+06
101105
2.00015e+06
2.00019e+06
103507
2.00019e+06
2.00016e+06
2.0001e+06
104164
2.00019e+06
2.00011e+06
2.00011e+06
2.00012e+06
103497
2.00012e+06
103324
102972
2.00014e+06
2.00014e+06
103906
100414
103882
102989
103475
104013
102480
100366
104017
2.00016e+06
102395
102462
100480
102383
99563.2
101955
103870
104131
102868
102887
103556
103237
103045
103481
102903
102868
103834
102599
103733
102484
102409
102940
2.00006e+06
103628
2.0001e+06
103100
102603
100750
100944
102456
2.00013e+06
102866
100067
102482
102858
102507
103393
2.00007e+06
102361
103780
103020
103754
103400
2.0001e+06
103759
2.00008e+06
103191
100194
102876
104343
102390
102420
103378
102431
102423
103372
102401
103631
102419
102406
102414
103624
102304
103681
102537
103026
102438
102457
102388
102486
102406
102598
104437
103713
103714
102844
103707
102594
103034
102478
103711
2.00007e+06
2.00006e+06
103035
103733
102460
103052
103023
102503
101223
102589
102975
102924
103453
103075
103985
102806
104472
102848
102952
103530
103765
103789
103011
103055
103570
103106
103060
103407
2299.23
103253
103959
103419
104089
103128
103237
103264
102969
103325
1.99993e+06
2.00006e+06
1.88015e+06
103235
103591
103598
2.00012e+06
103777
103955
103977
103937
103954
104014
102992
103996
103826
103826
103676
101935
103469
102762
104161
103833
103066
102465
102458
104691
102333
103959
103692
103877
102616
102384
102418
97444
2.00006e+06
2.00007e+06
102422
103007
2.0001e+06
102999
102278
2.00005e+06
2e+06
102419
2.00004e+06
102415
103887
2.00014e+06
2.00015e+06
2.0001e+06
2.00019e+06
103782
2.00012e+06
102456
2.00009e+06
2.00008e+06
2.00011e+06
2.00014e+06
2.00007e+06
103515
103563
103601
2.00008e+06
2.00008e+06
2.00002e+06
2.00019e+06
2.00008e+06
2.00019e+06
103832
103834
2.00008e+06
103657
103727
103740
103712
102415
102951
103198
102983
102648
102432
103018
102409
2.00018e+06
102996
102414
103386
2.00018e+06
103302
102268
103622
103072
103055
102415
2.00019e+06
103167
2.00018e+06
2.00018e+06
2.00004e+06
103647
103290
103035
97563.4
104476
102812
102438
102925
102897
103740
103038
102972
103982
2.0001e+06
102415
102459
102678
2.00007e+06
102960
97696.1
96641.4
104164
103785
2478.01
103420
103759
103518
102439
103791
100400
102434
102036
102458
102397
102016
100837
102680
102483
102682
102290
103735
102532
103787
103638
103133
101672
103737
103665
101202
105295
103726
103731
104439
103722
103729
102849
102252
1.99998e+06
103042
102460
103782
102887
102526
102637
102637
3949.62
2.00001e+06
103155
103461
102646
103792
103152
2.00003e+06
102799
96149
2.00018e+06
103005
103817
103812
2.00013e+06
102570
2.00017e+06
103775
103275
2.00009e+06
2.0001e+06
103839
103034
103673
103034
102450
103276
102692
102534
2.0001e+06
103305
102714
103671
102410
103792
103709
103040
103683
102517
103693
103036
103797
102342
103686
103794
101116
102541
103798
103796
103793
103856
102976
2.00014e+06
102935
102823
104092
103672
103741
103779
102414
102418
103769
103543
103660
102631
2.00014e+06
103795
103687
103693
103567
103146
2.00015e+06
103604
104026
103348
103509
2.00004e+06
103844
2.00014e+06
103625
102417
103679
103439
103902
103663
104163
104082
104076
2.00018e+06
2.00014e+06
103798
103178
103497
2.00018e+06
103917
102505
104077
103042
103457
102493
103019
103867
102490
103815
-5165.97
103790
102535
104070
102505
103980
99540.2
102444
102687
2.00005e+06
102435
102452
102840
102523
103039
2.00005e+06
2.00001e+06
102445
2.00007e+06
102417
103016
2.00003e+06
103503
103520
103521
2.0002e+06
102884
2.00016e+06
103828
2.00017e+06
103484
102406
2.00009e+06
2.00003e+06
102354
103038
102894
102005
2.00019e+06
2.00002e+06
102200
104082
102500
102970
102990
102434
103665
102988
102434
102785
102985
102431
104506
103738
2.00018e+06
104712
103381
2.00018e+06
2.00018e+06
103758
2.00005e+06
2.00018e+06
102882
102879
103780
103779
103098
2.00006e+06
2.00006e+06
103753
103765
103769
104035
103773
2.00018e+06
102496
103036
2.00018e+06
103286
103370
102956
103732
2.0002e+06
103063
2.00001e+06
2.00006e+06
2.00004e+06
2.00001e+06
2.00005e+06
103457
5375.77
65912.1
2.00001e+06
102299
2.00001e+06
103034
103752
103038
102400
103244
104312
103821
104442
102878
102288
102992
102401
102406
102807
102941
102209
103101
102875
102370
102400
102587
102409
102877
103391
102413
102529
102407
102411
102616
102486
102545
103788
103773
102611
103733
103688
102612
103261
2.00011e+06
103455
102812
104070
103222
102967
2.00012e+06
2.0001e+06
103017
102996
103015
102897
103794
103810
93005.6
102895
107105
103129
2.00012e+06
2.00012e+06
103376
104303
103704
103696
2.0001e+06
103687
102249
102789
102799
102206
102605
2.00011e+06
102818
102141
115115
103089
104067
2.0001e+06
2.00014e+06
103741
102874
110102
105193
2.00011e+06
103827
103689
98972.4
103899
2.00016e+06
102459
2.00007e+06
103429
103842
1.99999e+06
2.00008e+06
103911
103863
103896
2.00016e+06
104281
102467
104846
102466
2.00009e+06
2.00011e+06
2.00011e+06
103062
2.00011e+06
2.00017e+06
103804
102461
2.00002e+06
2.00002e+06
1.99999e+06
2.00014e+06
2e+06
2.00014e+06
2e+06
2.00019e+06
102456
2.00009e+06
102471
102467
103687
103811
102419
2.00001e+06
2.00008e+06
2.00009e+06
102460
2.00009e+06
101590
102458
102415
2.00009e+06
102461
102446
2.0001e+06
103772
2.0001e+06
102973
102451
2.0002e+06
102951
2.0002e+06
104854
102092
103433
102467
104450
104042
104133
103731
103765
2230.29
103839
103422
102408
39470
102838
104360
103408
103559
102934
103474
79865.2
102400
100769
99988.1
102402
2.00008e+06
2.0001e+06
102407
103741
2.00008e+06
102410
102439
102447
102748
102449
103665
103760
103803
103781
2.0001e+06
102583
103405
102660
103628
103672
1.99989e+06
103065
103492
103723
103024
103257
103731
103036
102233
103383
103632
103038
103173
103239
103915
102376
102404
2.00015e+06
103000
102462
103196
103773
103768
103010
2.00019e+06
103780
103208
103404
103142
103000
103790
103811
103011
103768
103568
101364
102474
103633
103614
103203
100106
103622
103451
103565
103766
102658
103605
102599
102614
2.00003e+06
102649
2.00006e+06
101907
103756
2.00005e+06
102622
102423
103139
103093
102517
102462
103038
102751
103393
104559
102735
101964
101319
103039
104249
104016
103391
103054
103100
102862
102407
103732
102917
102918
103203
102401
103297
103155
103444
103124
101510
2.00016e+06
102922
2.00005e+06
2.00016e+06
2.00016e+06
103649
102114
2.00016e+06
102395
2849.04
2.00014e+06
2.00016e+06
103036
102927
103775
2.0001e+06
2.00001e+06
2.00017e+06
2.00008e+06
2.00002e+06
102920
102407
102921
2.0002e+06
102411
104284
103620
102419
102411
2.00018e+06
102124
103133
2.00015e+06
102984
102927
102420
2.00017e+06
86722.1
102420
102411
2.00019e+06
102401
103141
103194
102401
102533
102402
2.00019e+06
102376
102410
102404
2.00018e+06
103635
102405
102334
102281
102572
102525
102530
102555
103594
2.00013e+06
98204.8
2.00018e+06
103030
102412
102999
102982
102980
102407
102982
2.00012e+06
2.00008e+06
102975
2.00004e+06
2.0002e+06
2.00019e+06
102799
2.00018e+06
103922
102975
102967
103094
103796
103555
103724
103710
103684
1551.75
103998
103711
102520
2e+06
2e+06
2.00018e+06
103338
2.00018e+06
102445
103226
103912
2.00006e+06
103808
103735
103966
103531
103848
102392
2.00003e+06
103645
2.00005e+06
103814
103765
102493
97840.1
92635.9
104357
2.00008e+06
100874
101646
98206.4
97706.8
2.00008e+06
103849
2.00015e+06
103817
98951.9
103862
103811
106633
103887
102444
103808
102514
103258
102739
2.00014e+06
2.00002e+06
2.00015e+06
104035
104014
2.00007e+06
103846
103169
102465
102672
102627
103788
103255
103230
102504
103774
103844
102905
2.00011e+06
102581
102995
103548
103820
2.00007e+06
103791
2.00008e+06
103783
2.00011e+06
103543
103568
2.00004e+06
1.99999e+06
102580
2.00001e+06
103531
103028
2.00001e+06
103596
2.00003e+06
2.00008e+06
2.00006e+06
102894
102569
2.00002e+06
100889
2.00008e+06
2.0001e+06
2.00008e+06
103588
102096
103844
103805
2.00012e+06
101458
2.00017e+06
103812
100782
103810
104077
103817
103033
101831
103807
2.00016e+06
95750.2
27948.2
103182
102493
102473
103818
102446
102453
103831
2644.16
103490
103637
103970
103543
103654
104777
102671
102555
102610
102680
105430
105297
102413
102413
102408
103045
103361
97048.6
102775
102808
102603
1683.56
102798
104046
102414
103014
103180
105176
103120
105169
105047
94300.6
103714
103051
103066
2313.53
103044
103741
103401
103422
103399
103412
102966
2186.82
103038
2439
103783
94280.9
2.0001e+06
2.0001e+06
103762
2.00007e+06
2.00004e+06
2.00007e+06
102877
102181
102032
2.00011e+06
104197
103399
104405
101134
103546
101357
103658
102394
103424
103374
101579
103588
103367
103573
101575
100720
2.00008e+06
102411
103754
103497
102408
103470
96104.3
103419
102992
102452
103264
103474
103316
100942
103382
101490
102981
102919
103887
2.00009e+06
2.00007e+06
101227
102433
103399
102422
102445
102465
2.00008e+06
100432
99556.1
103374
102442
102452
102455
2.00014e+06
2.00015e+06
102421
2.00016e+06
103726
103764
2.00014e+06
2.00014e+06
102443
2.00017e+06
2.00017e+06
102425
102490
102483
2.00004e+06
102497
2.00016e+06
2.00005e+06
101582
102490
102749
2.00013e+06
102487
2.00008e+06
2.00009e+06
102757
102403
102399
102396
100614
102406
102753
101843
103477
102725
102969
102944
103049
102984
103077
102984
2.00017e+06
102408
102623
103077
102481
102414
103961
102856
103019
102492
103034
102855
103015
102981
102981
103028
104263
103078
103105
102978
103503
103063
103012
103035
103656
101739
101937
102631
103787
103788
103793
103798
102408
101964
103774
103792
103828
103810
103605
103563
103837
101709
103519
103557
103545
103787
103485
102392
2.00009e+06
101549
103370
103554
2.00012e+06
103372
102379
103125
104365
103822
103821
103856
103137
103833
102390
102417
102571
104132
102243
102766
103344
102392
101938
103526
103515
2.00011e+06
2.00013e+06
102392
102250
103781
103778
103781
102716
102793
2.00014e+06
2269.85
103037
2.00001e+06
2.00002e+06
2.00002e+06
2.00002e+06
95318.9
103044
2.00013e+06
1.99975e+06
103779
2.0001e+06
2.00011e+06
2.0001e+06
2.00002e+06
103773
103050
2e+06
2.00006e+06
103052
102319
104247
2.00001e+06
103016
103402
103008
103121
103078
100089
103116
102920
103598
102917
102940
102114
102937
103092
100307
103717
102962
103571
103639
102964
102491
2.00005e+06
103623
102496
2.00014e+06
102489
103054
102686
102713
102671
103541
102687
102429
2.00009e+06
103032
93474
103546
103447
102826
103515
103521
103458
103754
103627
103560
103641
2.00007e+06
103598
103409
103575
105078
2.00007e+06
101330
106039
2.00007e+06
104090
1.59955e+06
101313
101696
2.00008e+06
101408
102827
102506
102145
104278
2.00006e+06
102838
97666.3
1.99932e+06
2.00007e+06
2.00013e+06
2.00004e+06
1.99968e+06
2.00009e+06
102808
102803
102859
102853
102478
102426
100324
102330
102520
102438
3614.62
103774
2.00011e+06
103768
1.99998e+06
2.00011e+06
103862
94589.1
103635
2.00004e+06
102694
102418
2296.42
104644
103833
102577
2.00011e+06
100737
103831
103833
2.00017e+06
2.00017e+06
103633
103673
103423
2.00017e+06
103836
103637
103602
2298.42
2.00012e+06
103614
103027
103609
103649
103640
102877
102088
103708
102648
102624
100853
102629
102563
103710
103727
103799
103130
102294
103039
103353
103824
103561
102414
2.00012e+06
102426
103628
103778
2.00015e+06
102383
102822
2.00002e+06
2.00015e+06
102417
2.00016e+06
2.00016e+06
103786
2.00016e+06
2.00007e+06
102435
103829
103802
103743
102846
2.00005e+06
2.00001e+06
2e+06
103787
2e+06
103460
102722
103897
103795
102859
102830
102566
2045.78
102818
102870
2.00001e+06
102873
2.00004e+06
2.00003e+06
103435
103521
104020
2.00003e+06
102409
2e+06
102423
103878
2336.35
2.00002e+06
2318.9
2.00009e+06
102863
102851
2.00017e+06
6130.65
101824
2251.14
2.00004e+06
2.00015e+06
1414.93
2.00017e+06
2.00016e+06
103036
2.00016e+06
102505
103095
1.99976e+06
2.00019e+06
102404
103182
2.00015e+06
104670
2.00003e+06
103770
103617
104766
103712
104142
102167
103675
103810
104960
103759
105744
103822
103575
103681
103714
2530.12
103870
102428
102586
101960
101809
105126
2.00012e+06
102413
104142
103567
2.00011e+06
103779
2.00011e+06
101817
102397
102432
2.00011e+06
102413
102198
102505
104044
102410
102377
2.00012e+06
102505
104218
104102
102986
102972
102506
103796
2.00013e+06
102398
103118
103306
103320
102518
103503
103788
103780
103819
103805
103756
103835
102632
102957
102829
102504
103761
102397
102704
100929
100884
99264.4
100525
103945
104097
102417
102531
102504
102428
102987
103037
102659
102387
2.00013e+06
102433
102411
103199
103320
103399
95624.5
102366
101745
100573
105239
102419
102074
100734
102513
102963
102991
103179
103271
98442
102991
103763
103768
103220
103241
103770
103566
103244
101462
103774
2.00003e+06
101623
102505
102406
103751
102423
102397
1718.57
102329
102505
103748
2493.63
103760
103368
102683
102878
102907
2.00008e+06
103899
103249
2320.98
102921
101530
101466
102418
2e+06
2276.89
56864.9
102418
2246.06
102861
102419
102400
102334
2.00013e+06
102463
101541
101549
103183
102468
102854
102380
103252
103945
103955
102894
102769
102848
103837
103178
103217
103240
103176
101790
2.00011e+06
103613
2.00013e+06
2.00016e+06
103619
2.00016e+06
2.00016e+06
2.0001e+06
2.00018e+06
104168
2.00016e+06
2.00017e+06
103753
2e+06
103753
2064.83
103746
104122
104203
103642
102390
102420
104204
102482
103784
102919
103648
102554
103697
103175
102412
104206
103413
103281
101450
103780
102591
103787
102507
102521
2.00005e+06
2.00006e+06
102404
103789
102405
102407
102451
103870
103775
101790
103935
103909
102056
102539
102551
103783
103911
100761
103814
102979
103787
102413
102842
103799
103025
103829
103889
102955
102551
103693
102990
102760
103005
102995
102976
103065
103520
103042
103591
102979
103525
102826
103790
103087
2.00003e+06
2.00008e+06
2.00006e+06
102728
103776
102988
102925
102976
101257
102861
2.00009e+06
2.00007e+06
102967
103805
103818
103486
103012
103797
103819
100337
103791
103805
102989
103699
104732
104450
103603
103972
104416
103765
103617
103642
102433
103015
103647
103634
2.00007e+06
103785
103018
2.0001e+06
2.00007e+06
103737
2.00013e+06
2.00013e+06
103912
103794
2.00006e+06
2.00013e+06
100841
102831
2.00006e+06
2.00006e+06
103833
103853
2.00011e+06
2.00007e+06
102987
103769
103016
103780
103676
2.00008e+06
2.00012e+06
101399
2.00007e+06
100858
102998
103687
102920
102676
104265
102382
104101
100834
103573
102933
2.00018e+06
2.00019e+06
102469
102388
102416
2.00018e+06
2.0002e+06
2.00003e+06
2.0002e+06
102902
101873
2.0002e+06
2.0002e+06
101306
2.00015e+06
2.00015e+06
2.00007e+06
2.00017e+06
103339
2.00017e+06
2.00018e+06
102652
2.00005e+06
2.00018e+06
102558
102678
102550
84945.8
4000.07
2.00008e+06
103849
103766
2337.77
101870
2.00008e+06
2.00007e+06
2e+06
103261
2.00011e+06
103379
2.00012e+06
104244
103428
103044
101110
102236
103050
102468
102091
2.00008e+06
2e+06
102239
102414
102410
102931
102432
102411
102886
103058
102438
102429
102415
102433
2.00008e+06
103109
102435
102396
103634
102390
102350
102443
102373
101744
104321
102504
102391
104097
102163
102391
102923
103088
102980
102505
102470
102550
102438
102674
103322
104233
102399
102718
104428
102995
102414
103008
101793
101233
103472
103584
102576
103660
104333
103547
102069
103419
101726
103785
104044
103798
103780
103770
103613
103619
103763
102482
102432
103563
2.0001e+06
102564
102582
102473
102554
2.00011e+06
103608
102506
102939
102500
102541
102292
2261.7
103020
2.00007e+06
103651
2.00017e+06
103008
102991
99100.7
2.00017e+06
2.00004e+06
99795.2
2.00004e+06
2.00002e+06
2.00004e+06
102968
100530
102649
102872
102422
102844
103825
103100
100290
103273
102414
2.00012e+06
99186.2
2.00014e+06
103774
103781
103818
102848
103946
103887
103133
102793
103128
102956
103046
103046
103242
102213
102704
102300
102507
98746.6
102973
102787
102371
102345
102898
102773
102507
102842
102474
2.00008e+06
103028
101621
102975
2.00008e+06
102411
102404
102301
102363
101087
104446
100178
102556
100051
102489
103030
102498
103288
102396
99977.2
103968
103683
99552.2
102999
103775
107285
103824
102414
103661
103909
102959
103135
103812
102586
103802
103749
102591
102589
103278
103794
103665
102584
100707
102992
103122
100793
103671
103768
102912
102910
102836
103073
103942
103671
104231
103723
102857
103773
103626
103693
103924
102903
103899
103889
103016
103799
103856
103019
103837
103703
103864
103683
102960
103005
103028
103691
103275
103037
102881
102931
103002
103001
103027
103011
102878
103401
101954
103020
102963
102465
100375
102427
103244
103003
102970
103785
103028
102612
102843
103742
103297
102966
101818
103772
103346
102507
102404
102433
102831
2.00006e+06
102513
103246
2.00005e+06
103667
2.00007e+06
103582
103367
102526
103085
103525
2.00007e+06
102821
102516
102829
102917
2.00014e+06
103097
102403
102405
102398
2.00014e+06
102434
103094
102404
103375
103444
103813
102413
101414
103695
103734
102822
103744
102411
103706
102895
103743
102811
102254
102411
102224
102506
103723
2.00009e+06
2.00016e+06
2.00005e+06
103727
2.00016e+06
103788
103800
102258
102936
102391
102405
102253
103792
102927
102927
103819
102814
102983
102990
102831
103136
103864
103714
103710
103837
103002
102984
103710
103715
103700
103614
103336
2.00009e+06
2.0001e+06
103785
103609
103764
103696
102868
103780
102895
103778
103769
103394
103736
103784
103860
101015
103763
103682
103392
103873
102926
103815
103827
103153
102483
103198
102475
102412
102156
102165
103793
102413
103413
103003
103292
103097
103884
102458
103496
99506.3
94602.5
100187
103622
100801
103471
102341
102803
102412
102780
103515
103172
102818
104350
103178
102787
103131
102498
103180
103157
103076
103127
103063
103091
103040
103049
103012
2.0002e+06
2289.53
103136
103157
103542
103551
101699
2264.68
103434
102883
102408
102409
103566
103780
103789
103785
103788
102406
102406
102466
2.00017e+06
2.00018e+06
103287
103539
2.00005e+06
2.00013e+06
2.00018e+06
103484
2.00019e+06
2.0002e+06
2306.01
102402
103682
102406
2.0002e+06
2.00016e+06
2254.76
2.00008e+06
2.00007e+06
2e+06
2.00006e+06
103539
103571
2.00005e+06
2.00007e+06
2.0001e+06
101070
2.00007e+06
100935
2.00002e+06
2e+06
101741
2.00007e+06
2.00009e+06
2680
2.0001e+06
103786
102443
2.00012e+06
2321.4
102410
2.00014e+06
103914
103685
2.00015e+06
104580
103656
102445
103763
2302.03
102736
102740
102736
102346
2260.15
103408
2.00002e+06
2317.34
2.00003e+06
102711
2.00003e+06
102522
2.00001e+06
103033
104495
103078
100024
98886.5
103035
103036
102844
2.00004e+06
2.00006e+06
77393.1
103041
102443
1998.81
2387.34
2.00016e+06
-1572.51
103037
2.00014e+06
103243
103331
2868.28
1897.16
2.00018e+06
103316
2.00017e+06
103299
2.00016e+06
2180.9
103638
2.00018e+06
2.00018e+06
103301
1.99706e+06
1.99999e+06
2.00007e+06
103770
2.00007e+06
103215
2e+06
103772
103774
103775
103264
105068
103775
102413
102403
2.00001e+06
2.00002e+06
2496.64
2.00001e+06
2.00002e+06
102353
103433
102406
102422
102429
102459
103089
102468
102467
102805
102485
102523
77656.1
448.622
13333.1
103590
103401
103428
102841
102971
103581
103934
102904
104916
104021
101208
103689
102937
103577
102246
103015
103837
102164
103398
102184
31558.3
191977
103756
103339
104258
101553
103436
101489
102936
103746
101604
103948
102405
102514
102411
104109
103971
102408
103654