/*--------------------------------*- C++ -*----------------------------------*\
| =========                 |                                                 |
| \\      /  F ield         | OpenFOAM: The Open Source CFD Toolbox           |
|  \\    /   O peration     | Version:  v2006                                 |
|   \\  /    A nd           | Website:  www.openfoam.com                      |
|    \\/     M anipulation  |                                                 |
\*---------------------------------------------------------------------------*/
FoamFile
{
    version     2.0;
    format      ascii;
    class       volVectorField;
    location    "0.03";
    object      U;
}
// * * * * * * * * * * * * * * * * * * * * * * * * * * * * * * * * * * * * * //

dimensions      [0 1 -1 0 0 0 0];


internalField   nonuniform List<vector> 
14347
(
(1.82206 -0.0365713 0.0179494)
(-0.97303 -0.0483051 0.022392)
(-0.912326 0.000201603 0.429001)
(-0.010455 -0.000558806 -0.160604)
(-0.000317753 -2.85235e-05 -0.189117)
(0.00581292 0.00318757 0.180929)
(-4.19429 -0.579118 -63.5157)
(-0.441598 -0.0327001 2.73471)
(-0.00214558 -0.000160252 -0.160776)
(-0.0106071 0.00238802 -0.143838)
(-0.686186 -0.0267733 0.198007)
(0.00490434 -0.00107076 0.213545)
(-0.680346 -0.0379721 -0.454053)
(-0.000271076 -0.000555963 -0.0287531)
(0.00548557 -0.000551565 0.20906)
(-0.671161 0.112166 -1.41042)
(0.00116621 -0.00117128 -0.00940233)
(-0.0010948 -0.000747161 -0.00806879)
(-0.36166 -0.00795811 -0.916954)
(0.0280796 0.00226985 0.217807)
(-0.00022914 6.29414e-05 -0.000664954)
(-0.000633316 1.6575e-05 -0.00500956)
(-0.00404851 0.00588361 -0.0695819)
(0.0340909 0.00191443 0.196631)
(-0.0649205 -0.00343883 -0.470089)
(0.0402066 0.00164762 0.213328)
(-0.304727 -0.0142628 -1.03009)
(-0.000105035 1.07122e-05 -0.00148387)
(-0.000606587 -4.79992e-05 -0.00161553)
(-0.0561866 -0.00090233 0.216404)
(-0.0527507 0.016616 -0.614114)
(-0.18283 -0.0233712 -0.905967)
(-0.00994905 0.000163836 -0.00169836)
(0.190668 -0.00613843 -0.641583)
(-0.00790571 0.000392802 -0.00102244)
(-0.735418 -0.2319 18.6512)
(-0.0181329 -0.00146859 -0.00434365)
(-0.0160941 -0.00205683 -0.00351927)
(-0.450212 -0.00948127 -0.185431)
(-3.69461 -0.184992 7.17888)
(-0.112849 0.00725113 -0.763734)
(-0.148168 -0.00737091 -0.851899)
(0.0130725 0.00595459 0.213184)
(-0.361525 -0.0224221 -0.0990754)
(-0.110099 0.0207659 -0.683335)
(-0.144508 -0.0125142 0.695315)
(-0.000209489 -6.91116e-05 -0.00240164)
(0.0867476 -0.0147741 -1.28045)
(-4.17402e-05 4.84067e-05 -0.000182665)
(-0.0103011 0.000224565 -0.0117687)
(-0.0973965 0.00398458 0.285348)
(-0.0666924 0.00673436 0.310412)
(-0.188076 -0.00392677 0.200035)
(-0.262636 -0.010362 -1.04237)
(-0.0481439 0.00109478 0.324218)
(-0.725195 -0.0149908 0.156237)
(0.429534 0.0463051 -51.6987)
(0.002422 5.3817e-05 -0.180752)
(-0.00284299 -0.000808474 -0.0971512)
(-0.00454402 4.14589e-05 -0.0959773)
(-0.286174 -0.00984872 0.408068)
(-0.00350083 9.14934e-05 -0.0846701)
(-0.647817 -0.240785 12.0704)
(-0.00129206 -0.00156339 -0.0107738)
(-0.0039679 -0.00174465 -0.0692093)
(0.153697 0.0351613 1.11584)
(-0.00233093 -0.000343407 -0.00868663)
(-1.6284 0.00461976 1.54094)
(-0.0141194 0.0135326 0.0959272)
(-1.94455 -0.093495 0.403689)
(-0.00042336 -7.97963e-06 -0.189012)
(-0.000411433 -2.46263e-05 -0.194337)
(-0.000656566 0.000790821 -0.0130493)
(-0.739662 -0.24706 -1.07733)
(-1.57323 0.199278 -68.4051)
(-0.193101 -0.00442268 -0.0157159)
(-0.759517 0.0021973 -12.1324)
(-0.0881845 -0.000264081 -0.0168069)
(-0.246843 -0.00635626 -0.0297528)
(0.204385 -0.00970713 1.05179)
(-1.03745 0.22188 -61.8388)
(-2.29815 -0.0712474 0.176192)
(-1.1456 0.27862 -24.5489)
(-0.686533 0.51348 -23.133)
(-0.000636977 -0.00152806 -0.0772196)
(-0.53372 -0.0806837 -40.2755)
(-1.73583 -0.167255 1.10268)
(-0.0217309 -0.000226864 -0.174013)
(-2.11757 -0.0460775 0.378559)
(0.552252 0.057959 -11.5057)
(0.305824 0.252728 -1.15099)
(-0.316057 -0.0448765 -0.215805)
(0.128508 0.00338768 0.486236)
(-0.868964 -0.0340672 7.92711)
(1.17878 0.0767872 -9.58178)
(-5.56419 -0.184775 5.16426)
(-0.204493 0.104576 -10.7694)
(0.739554 0.290404 -34.9976)
(-2.09127 -0.0231203 -59.4201)
(0.0409606 -0.0427868 -0.332753)
(-1.20289 -0.0799663 4.48282)
(-0.0307398 -0.00192567 0.209766)
(-0.776738 0.197512 -46.8514)
(-0.483336 0.0153826 -11.3228)
(-0.15314 -0.00819262 0.32072)
(1.29579 0.0934165 -10.2649)
(0.801247 0.00976372 1.42295)
(0.0011567 8.79974e-05 0.010559)
(-0.00260446 0.000902677 -0.0474264)
(-0.0286097 -0.0190818 0.187946)
(-0.37325 0.0495741 5.86558)
(-0.161386 -0.0420615 -1.25882)
(-0.0728006 -0.000962816 0.155118)
(-0.428115 0.0348118 -9.04598)
(-0.196442 -0.0153831 0.550381)
(0.146764 0.00762797 0.829588)
(-0.0110972 -0.00377148 0.455365)
(-0.524896 0.223148 0.0407487)
(0.0964758 0.201354 5.47863)
(-0.203422 -0.00940217 0.0406223)
(-0.372556 -0.0943262 14.2017)
(-0.000185003 -0.000114631 -0.00702188)
(15.8141 0.957559 0.930908)
(-0.404036 0.191155 -32.0036)
(-1.45049 0.110404 -34.7081)
(-0.596829 -0.0368662 -8.1109)
(-0.655248 0.168563 -71.5717)
(-0.478112 -0.0289958 0.829595)
(-0.0261234 -0.00020783 -0.036495)
(-0.0132226 -0.000440832 -0.161207)
(0.178378 0.0121585 1.43411)
(-0.103478 0.00231357 0.716063)
(-0.623785 -0.189342 8.88694)
(0.0101773 0.00261328 0.239379)
(0.544245 -0.00820417 -37.9369)
(-0.251868 -0.087787 -4.62757)
(8.4896 0.813151 1.15238)
(-0.134006 0.192069 5.70987)
(-0.064287 0.025509 0.717795)
(-3.11614 0.03417 -9.71235)
(-0.495905 -0.0126229 3.82918)
(5.24731 0.306859 2.4949)
(-1.12598 -0.309413 -74.8037)
(-0.0178126 -0.00127604 -0.229764)
(14.1537 1.06045 0.473136)
(-2.27166 -0.402528 -9.62491)
(-0.0514729 -0.00362493 -0.339007)
(-0.00940735 0.000792796 -0.0530603)
(-0.556675 -0.0309601 7.61086)
(-0.00403515 -0.00314462 0.0283758)
(-0.963275 -0.553589 -5.68186)
(-2.73241 -0.378812 -9.08886)
(-0.562243 -0.00477525 -10.6333)
(-2.30049 -0.122379 -2.65761)
(0.00657552 -0.000858365 0.421178)
(-0.197157 -0.00362821 1.23975)
(3.76795 0.36199 -2.39495)
(-8.44398 -0.648505 -3.17249)
(-0.0353386 0.000897013 0.699207)
(-0.0105969 0.00588334 0.15641)
(-6.7272 -0.432521 4.90238)
(-3.78296 0.0188704 -76.2784)
(-0.206387 -0.0140721 -0.117099)
(-0.0332668 0.0101291 0.613081)
(-0.0316181 -0.00591733 0.673917)
(-1.78076 -0.236812 -2.43791)
(-0.00492985 -0.00023791 -0.211229)
(3.46978 0.350753 -2.57873)
(-4.18687 -0.147661 -4.30297)
(0.10206 0.00791289 0.277261)
(0.000513478 -0.000186563 0.0195794)
(-0.384943 0.143888 -10.1329)
(0.00934227 0.00450178 0.150867)
(-0.101673 -0.0061291 -0.426923)
(0.000137633 0.00217995 0.0761953)
(0.0170454 -0.0176395 0.129245)
(0.006226 -0.00752372 0.210946)
(-3.78411 -0.133315 -6.83763)
(-0.625846 -0.234457 12.6949)
(-0.675923 -0.027666 -10.2662)
(-0.00540349 0.00519285 0.192518)
(0.00127397 -0.0003659 0.163826)
(-0.468717 -0.00508692 0.923532)
(-0.0658761 -0.00540835 0.792536)
(-0.0502873 -0.00787119 0.746407)
(-0.386912 -0.0926512 -34.8694)
(0.0074265 -0.00431691 0.151555)
(0.00755229 -0.0105443 0.343906)
(-0.481311 0.0177958 -11.3404)
(-0.682415 0.042301 -13.2169)
(0.0306818 0.00567255 0.661264)
(-0.0946436 -0.00329846 -0.432186)
(-1.08972 -0.0508534 -5.84374)
(0.0217098 -0.0366278 0.597523)
(-0.170992 -0.0406009 0.353498)
(-0.0021271 -0.00932546 0.0784436)
(-1.25741 -0.0488137 -4.57422)
(0.00443394 -0.00693071 0.246183)
(-0.19264 -0.686119 -2.57689)
(0.00934635 0.00939168 0.0677331)
(0.0227539 -0.00364134 0.255861)
(0.0339729 9.24503e-05 0.296132)
(0.187697 -0.00275805 0.748393)
(0.00615623 0.00214947 0.138516)
(-0.00516283 -0.00014023 0.219915)
(-0.0119917 -0.000774252 0.184715)
(0.00727235 0.000790132 0.180831)
(0.134539 -0.00215251 -0.18194)
(0.00269925 -0.0116222 0.149693)
(0.134856 -0.00158474 -0.284598)
(-0.584971 0.0809088 -2.76269)
(1.29478 0.0817437 3.92536)
(0.125222 0.000876565 0.723956)
(0.00517454 -0.00297928 0.147739)
(-0.0104823 -0.00824588 -0.136608)
(0.314395 0.0357171 -0.20663)
(-0.00204266 -0.0307433 0.404535)
(0.0905674 0.00989904 -0.196276)
(-0.915621 -0.00951502 -6.10594)
(0.00332491 0.000977419 0.0482623)
(0.0119209 0.00549823 0.145375)
(-0.00066967 0.00550213 0.0838002)
(0.00406341 -0.002509 0.0213701)
(-1.20509 -0.0591695 -5.54586)
(0.00664462 0.0150636 0.261073)
(-0.0589828 -0.00126741 0.751141)
(-0.0363432 -0.000480833 -0.269412)
(-0.0183477 0.0106894 -0.0258742)
(-0.0317052 0.0229258 0.2069)
(0.0108623 -0.00924806 0.148833)
(0.373744 0.000500291 -1.09093)
(-0.000847006 -0.00725685 0.0144777)
(-0.252758 -0.00377749 0.43895)
(-0.0371764 -0.00165872 -0.268706)
(0.830438 0.00456369 0.837505)
(-8.33994e-05 0.00192691 0.101378)
(1.21903 0.0790384 1.19413)
(0.0159333 0.0131035 -0.477502)
(-0.196665 -0.0436296 0.369102)
(0.19009 0.0143261 0.710531)
(0.00265613 -0.00207386 0.204531)
(0.000428206 -1.91791e-05 -0.191714)
(-0.0336618 0.0190692 0.707063)
(-0.0584998 0.029848 0.677412)
(-0.00207112 0.0058677 0.284969)
(-0.251248 -0.0174537 0.368309)
(0.00434569 -0.0178921 0.482311)
(-0.267343 -0.0202394 0.346907)
(0.385918 -0.0352352 1.2886)
(-0.302016 0.0933769 -11.2806)
(-0.0115502 -2.38629e-06 0.0604825)
(-0.040115 -0.0028521 -0.274649)
(-0.0328062 -0.00921895 -0.0601935)
(-0.00116453 6.18756e-05 -0.000384202)
(-0.657461 -0.0027599 -11.6591)
(0.000288697 0.00497707 0.0612572)
(-0.0901944 0.019898 0.811183)
(0.29492 0.0343959 3.09738)
(0.665256 0.0274939 -0.0993989)
(-0.00456534 0.000794075 0.250952)
(-0.149353 0.00614176 0.691196)
(0.605256 0.0668205 -0.532074)
(-0.0038976 -0.00393577 -0.0614838)
(0.0397323 0.00311099 0.273842)
(0.853992 0.0417242 0.328487)
(-0.051205 0.0183144 1.28663)
(-0.158509 -0.0127282 -0.0729286)
(1.01268 0.00627985 0.0182397)
(0.289509 0.0273128 0.535427)
(0.0021734 0.0455964 -0.808578)
(-0.0644807 -0.0218546 0.0434891)
(-0.361878 -0.0200997 -0.0763944)
(0.526477 0.0269776 0.479195)
(-0.0267189 0.0147099 0.157331)
(-0.115609 -0.00310428 0.356275)
(0.00114007 4.8958e-05 -0.177452)
(-0.131585 -0.0237637 1.03047)
(1.01533 0.0121566 1.05215)
(-0.329026 -0.00485392 -0.119096)
(0.891954 0.0635577 -0.373192)
(0.0823636 -0.0493781 0.711672)
(1.77869 -0.0310204 -0.155417)
(1.01966 -0.130799 -1.70317)
(-0.312653 0.0872023 -11.9614)
(-0.00341749 -0.000215795 -0.00834295)
(-0.635839 -0.0338118 0.429225)
(-0.0850024 -0.00628138 -0.429351)
(-2.29276 -0.0243855 -65.0204)
(12.7393 0.49993 0.336124)
(18.9578 1.16628 1.19401)
(2.73434 0.276032 1.53671)
(-0.037535 -0.0022987 -0.288422)
(-0.829613 0.208727 -53.3819)
(14.0344 0.250426 0.0516426)
(1.70329 0.142159 -33.7088)
(-0.575882 -0.0101368 0.175304)
(-0.360217 0.0746386 -9.61088)
(0.744687 -0.210044 4.12079)
(-0.217671 -0.0927832 10.0354)
(-0.966681 -0.0167464 -2.05258)
(-0.00106417 -0.000790764 -0.00796689)
(-0.295005 0.00946476 9.96045)
(-0.00776361 -0.000154675 -0.175225)
(-0.000409038 0.000331038 -0.0106041)
(11.0244 0.643263 2.65363)
(-0.191252 -0.042033 0.509518)
(-0.00843953 -0.000328088 -0.175315)
(-0.00751352 -0.000318903 -0.177393)
(-0.537488 0.229494 -38.3583)
(-0.622139 -0.0142799 -0.511011)
(-0.810436 0.200963 -48.2091)
(-0.00808542 -0.000408141 -0.177449)
(-0.0875226 -0.00524627 0.779924)
(-0.00215781 0.00255661 -0.0510341)
(-0.0698818 -0.00107787 -0.0898007)
(0.366312 -0.191973 10.955)
(-0.00355797 -0.00166721 -0.0667059)
(-0.00543753 3.74473e-05 -0.114415)
(-0.00332404 -0.00108577 -0.0673328)
(0.0636305 0.00949167 0.607463)
(-2.69792 -0.518385 2.95634)
(5.33451e-05 3.22927e-06 -0.190491)
(5.59351e-05 1.56775e-06 -0.190588)
(-0.000176678 -8.761e-06 -0.190592)
(-0.0045708 0.00125987 -0.0878747)
(0.0470184 0.00487382 0.0077298)
(-5.55051e-05 -2.48018e-07 -0.00603149)
(3.58208 0.0321126 5.24556)
(-0.0325244 -0.000330943 -0.0877834)
(-0.00384278 0.00120996 -0.0456764)
(0.00051896 1.7811e-05 -0.190521)
(0.148768 0.0147292 0.0904779)
(-0.000501108 -5.29274e-05 -0.190849)
(-0.00316318 0.0021769 -0.0474861)
(0.0552652 0.00407074 0.583918)
(-0.000531746 0.000174929 -0.0275574)
(-0.00153737 0.00274715 -0.0443171)
(0.00183676 0.00211744 -0.0411344)
(0.00150054 0.00122517 -0.0110311)
(-2.06078 -0.0354928 -50.4656)
(-0.00135288 -0.00145977 -0.00951218)
(-0.000189946 0.00141199 -0.0431578)
(-0.331177 -0.0210778 1.06909)
(-0.00228549 -0.000174025 -0.189336)
(-0.00218892 0.0012222 -0.0477204)
(0.209213 0.0072599 0.378501)
(-0.00201936 0.00117994 -0.0457528)
(0.380333 0.0294195 -41.7816)
(0.220025 0.111245 -35.8804)
(0.761043 0.0945088 -32.7494)
(-0.355236 0.559548 -25.3205)
(0.188885 0.0376946 4.89369)
(-1.12026 0.393599 -28.175)
(-0.6995 -0.233897 15.1566)
(-0.00385355 0.000599894 -0.00491163)
(-0.00697394 0.000204453 -0.035155)
(-0.00143714 -0.000888416 -0.0607769)
(-0.00206987 6.95995e-06 -0.00209679)
(0.216848 0.0418934 -0.10612)
(-0.766058 -0.0177514 -0.320021)
(-0.0005172 0.000418579 -0.00659907)
(-0.0789477 -0.00499473 -0.00883114)
(-0.681504 -0.0450538 -0.306241)
(-0.00818186 -0.0178283 -0.503114)
(0.375331 0.0267292 -0.338075)
(-0.197802 -0.0151163 -0.0239476)
(8.83953 0.535672 0.991234)
(-0.268367 -0.0239554 -0.0388606)
(-0.0299944 0.0145218 0.199639)
(-0.175692 -0.0024195 -0.0320406)
(-0.564253 0.00207644 -9.22539)
(-0.724929 -0.239397 14.7445)
(-0.0238493 -0.0103121 0.649354)
(-0.718528 -0.0473391 -0.409992)
(-0.000170232 -0.00161439 -0.01743)
(-0.825045 -0.0194802 -0.481079)
(0.692548 0.0379449 -40.9974)
(-0.781071 -0.0500954 -0.513793)
(-0.279402 0.014354 0.320521)
(0.0836848 0.00217904 0.519201)
(-0.0175279 0.000377985 -0.0306421)
(0.00240508 0.00188116 0.734731)
(6.83444 0.736205 1.21345)
(-0.0203155 -0.00880542 -0.284359)
(-0.0212965 -0.00187204 -0.0308138)
(-0.00973196 0.00115566 -0.0226125)
(-0.0328822 0.000260942 -0.0971187)
(-0.00707388 0.000286549 -0.0176296)
(0.288309 0.0787191 3.80921)
(-0.00351161 9.29839e-05 -0.00357709)
(-0.765213 -0.0118419 -0.352849)
(0.00015711 -1.218e-05 1.51476e-05)
(-0.0095207 0.00200678 -0.114322)
(-0.182498 -0.0128414 -0.177694)
(-0.365452 0.0517576 -12.1674)
(-0.25368 -0.00614861 -0.518211)
(-0.311772 0.0683464 -11.8822)
(0.312705 0.0249429 -58.5023)
(-0.495147 0.0462125 0.00874862)
(1.28262 0.0302076 2.04517)
(-0.783205 -0.0136674 1.38469)
(-0.524259 -0.00787237 0.982679)
(-0.332697 -0.0239888 1.5283)
(-0.296601 -0.119107 5.96092)
(-0.685881 -0.0308845 -0.352581)
(-0.238002 0.0754858 -11.5589)
(-0.288543 0.10839 -11.1689)
(1.31036 -0.507109 2.31998)
(0.00340948 -0.00122643 0.170866)
(-0.613672 -0.0155895 0.17552)
(-0.199908 0.0115085 8.22256)
(-0.198916 -0.00675628 0.0268419)
(0.0294311 -0.0580671 24.6898)
(-0.173803 -0.0845756 -0.00241506)
(-2.59955 -0.226337 -0.466074)
(-0.154139 -0.00493766 0.411413)
(2.78608 -0.233184 1.66834)
(0.169279 0.0171633 0.728711)
(0.339149 -0.0017995 -52.6294)
(0.910506 0.0590912 -1.74536)
(-0.190877 0.101605 -10.1533)
(1.22799 0.0587573 1.14622)
(-0.406391 0.145372 -9.38691)
(-0.712975 -0.0477377 0.283556)
(0.240335 0.0111075 0.308187)
(7.02265 0.0629844 2.14206)
(0.00189748 0.000767843 0.0723897)
(-0.00432061 -0.000221683 0.226883)
(-0.59137 -0.0773688 -0.253017)
(-0.147358 0.10363 -9.6876)
(-0.188595 -0.0318265 -3.90098)
(2.28138 -0.126842 5.35944)
(0.0649978 0.00650145 -0.0427932)
(-0.241588 -0.0597805 22.6848)
(-0.885113 0.0258311 23.6281)
(2.18368 0.0417867 4.84872)
(4.73723 0.240569 7.69946)
(0.224294 0.0328782 0.955574)
(-0.00341401 -0.00837865 0.0786702)
(-0.000685228 0.00704779 0.0794323)
(0.00147763 0.00143217 0.0498988)
(13.8262 0.682215 6.07629)
(-0.00564965 -0.000390206 -0.191209)
(-0.00362183 -0.00147273 -0.0662867)
(-0.290605 -0.0119523 0.174154)
(-0.0776142 0.00377933 -0.336245)
(-0.0014796 -0.00171261 -0.0628642)
(8.79693 -0.168552 1.35023)
(-0.0646985 -0.00815532 0.0396085)
(-0.610485 -0.000272449 0.553958)
(-0.0435535 -0.00138414 -0.190761)
(0.0124031 0.0271301 0.13614)
(-1.00084 -0.259295 -0.493446)
(0.00329677 0.0361219 0.354626)
(-0.0458064 0.000597296 0.322557)
(-0.0886827 -0.0019886 0.259595)
(-0.461955 -0.330492 -0.654203)
(7.07916 0.381491 -5.98228)
(0.0857906 0.00244886 -0.462338)
(-0.475229 -0.0358569 -0.291875)
(0.00330774 0.00104626 0.0292485)
(0.0590656 -0.00583021 0.777941)
(0.0395663 -0.00811087 0.332931)
(0.0017526 -0.00131328 -0.0120798)
(0.134096 0.0284128 0.764988)
(-0.0227652 0.00407384 -0.0200557)
(0.0309386 -0.00257306 0.280626)
(-0.101043 0.585669 -8.67487)
(0.00473339 -0.0165499 0.439611)
(-0.00987549 -0.00064792 -0.153719)
(0.227698 0.0227028 0.686742)
(-0.00371167 -0.00763204 0.521046)
(0.218338 -0.0108563 0.771392)
(-5.25029e-05 0.0115396 0.250582)
(-0.000775775 0.00100117 0.0833738)
(11.6593 1.11957 -0.961584)
(1.09417 0.0612991 -0.0397933)
(-4.11972 -0.117622 -4.07021)
(1.4007 0.0492655 1.97904)
(0.0222856 -0.0076006 0.258913)
(-0.486935 -0.619924 -4.32508)
(-6.08571 -0.350508 -5.28438)
(-0.0694332 -0.0015213 -0.0389031)
(-0.0306294 0.00110574 0.711299)
(-0.770321 -0.0480202 1.31372)
(1.85833 0.0378256 -3.87476)
(0.00977191 -0.0130904 0.448045)
(0.0411282 -4.29635e-07 0.323054)
(0.00832155 0.00182525 0.699953)
(-1.52417 -0.303975 -24.8397)
(0.0976706 0.00416124 0.372174)
(-0.000188005 0.00308877 0.210133)
(-0.00598924 0.0111112 0.53722)
(1.66379 0.02061 0.134462)
(-0.00469476 -0.032986 0.558218)
(-0.0842026 -0.00713931 0.873951)
(0.0877451 0.00325138 0.509216)
(-0.0822751 -0.00617314 0.887975)
(-0.0750577 0.000135061 0.842844)
(-0.000227929 -3.95849e-05 -0.000212258)
(-0.000371506 0.000925301 -0.0748383)
(0.103049 0.00937939 0.605162)
(0.00336344 -0.0022389 0.102998)
(-0.00503941 -0.00726587 0.128587)
(-0.670024 -0.0242037 -0.066847)
(0.316295 -0.0760491 -0.192182)
(0.0563224 0.00472033 0.235146)
(0.000345135 0.00306845 0.0757889)
(0.0119279 -0.00909442 0.185415)
(0.0321209 0.00360082 0.25049)
(-0.000749326 0.00324538 0.179185)
(-0.486392 -0.0334907 0.204183)
(-0.000734621 -0.00425353 0.135566)
(-0.00149751 -0.00546445 0.135582)
(0.00120463 -0.00310844 0.146224)
(0.0018147 0.00464533 0.175829)
(0.000711755 -0.000642501 0.220337)
(0.141461 0.0141754 -0.341047)
(0.0218 0.000616446 -2.82757)
(0.103818 0.00844125 -0.369764)
(-0.288539 0.00249979 11.1916)
(0.00404531 0.00293403 0.017485)
(-27.8804 -2.12883 -45.914)
(0.112175 -0.0817879 -33.2483)
(0.779326 0.0577635 -41.4817)
(0.000231803 0.00203139 -0.0643142)
(-0.00219184 -0.00272325 0.230007)
(-0.000258574 0.000319541 -0.0116256)
(-0.0162078 -0.00109527 -0.155612)
(0.426094 0.0379529 0.0218215)
(-0.00616516 -0.00176575 0.241074)
(-0.0174776 -0.00141551 -0.0109868)
(0.147766 -0.00347363 -0.395104)
(-0.128072 0.00906463 0.823254)
(0.811051 0.0383392 0.556858)
(-0.042613 0.0140072 -0.375164)
(0.0314504 -0.0154098 -0.463406)
(-0.211268 -0.012637 1.19597)
(0.0364959 -0.0258067 1.00689)
(0.123033 0.00572745 0.169519)
(0.0247497 0.0449556 -0.649132)
(0.0436542 0.0397084 -0.707274)
(0.180582 0.00818008 -0.357311)
(0.129101 0.0095897 -0.525694)
(-0.00285697 -0.00142094 -0.061135)
(-0.0230896 -0.00623858 -0.210423)
(-0.00266931 0.000480839 0.0808797)
(-0.194624 -0.152899 -38.6472)
(-0.258342 -0.0317677 -1.29403)
(-0.322413 -0.0107809 -1.27047)
(-0.00261599 0.000351259 0.0847362)
(-0.0121279 -0.00241461 0.0897213)
(-0.0196765 -0.000897942 0.126058)
(-0.893765 -0.0606177 -1.15962)
(-0.00320625 -0.000311983 -0.01797)
(-0.00279664 0.00201105 0.0743848)
(-0.0382982 -0.0056781 0.00847757)
(-0.00974616 -0.00510997 0.0707584)
(-0.00474542 -0.000530687 -0.00396395)
(-0.00103555 -0.0200517 0.275832)
(-0.0614431 -0.00223983 -0.170164)
(-0.115582 -0.0166025 1.08647)
(-0.164431 -0.0176365 1.21179)
(-0.0270863 0.0356668 0.479685)
(-0.000128261 -0.000539593 -0.0470247)
(0.861909 0.0392449 0.0743534)
(0.32256 -0.131704 11.7645)
(-0.0897303 0.00852041 -0.217123)
(-1.89733 -0.0494701 1.42977)
(-2.23407 -0.0118123 4.36014)
(-0.059995 0.00538819 1.34452)
(0.849178 0.144057 -60.3143)
(0.00303707 -0.000162784 0.0766457)
(-1.65286 -0.0196788 1.8936)
(-0.137119 -0.00185767 -0.330222)
(0.681396 0.0450162 1.44108)
(-0.381254 0.0311046 4.32163)
(12.2658 0.313557 1.2808)
(0.824054 0.0297868 -56.2036)
(1.35384 -0.155531 -1.23376)
(-0.251482 -0.0168233 0.22795)
(1.25796 0.0504827 -0.30004)
(2.44679 -0.0334058 -2.17652)
(-0.393785 -0.0264264 -1.05736)
(-0.46744 -0.0033435 -9.38171)
(-0.248732 -0.0258383 -0.124805)
(-0.313191 -0.0327567 0.975594)
(-0.00133997 -0.00248031 -0.0805559)
(-0.264394 -0.00440532 -0.194859)
(-0.130375 0.0297927 -1.54459)
(0.85003 0.0482747 -0.0809685)
(-0.003232 -0.00168446 -0.0785864)
(-0.404788 0.00985055 2.38638)
(-0.358834 0.0213766 3.63945)
(-0.375065 0.00739507 12.5418)
(-0.0643851 -0.0039692 -0.0144425)
(0.00242849 0.00648939 0.202788)
(-0.690746 -0.243921 9.94014)
(3.895e-05 -8.67462e-05 -0.00016138)
(-0.119247 -0.00509729 -0.076505)
(-0.342312 0.00459882 12.1005)
(-0.00538316 -0.00113768 -0.113422)
(-0.00337322 -0.000252053 -0.193331)
(-0.0306698 -0.00248363 -0.015994)
(-0.00269867 0.0087868 0.230649)
(-0.46328 -0.0201183 9.48092)
(-0.00837987 -0.000572856 -0.190505)
(-0.153565 -0.0647976 20.3477)
(-0.00705936 0.000610753 -0.0091992)
(0.0187087 0.00149393 0.183944)
(0.266034 -0.178939 13.0456)
(-4.50396 -0.188302 -3.71413)
(-0.00969642 0.00016112 0.242478)
(0.446063 -0.150127 14.5259)
(-0.0094406 -0.000662547 -0.194313)
(-1.56807 0.11058 -38.1282)
(-0.00100321 0.00124076 -0.00707362)
(0.000164188 0.00133235 -0.0272051)
(-0.00473746 0.0024443 -0.0864297)
(-0.00406555 0.0024819 -0.0880008)
(-0.0535206 -0.0085522 0.876489)
(-0.434831 0.191349 -35.1404)
(-0.110131 -0.00700602 -0.616177)
(-1.22639 -0.0122387 1.86773)
(-1.29386 -0.0359414 -1.11147)
(0.00392628 -0.00370728 0.0258409)
(-0.063152 -0.100333 -41.4271)
(-1.95761 -0.00427205 1.31594)
(-0.0643652 -0.0049759 -0.0247202)
(-0.154536 -0.0078307 -0.684907)
(-0.121079 -0.00410971 -0.66188)
(-0.169923 -0.0128239 -1.47693)
(0.145656 0.00095307 -0.635567)
(-0.0524904 -0.0023387 -0.0102913)
(-0.511147 0.0466705 -11.7962)
(-0.0622744 -0.00209067 -0.0154399)
(-0.612996 -0.204525 -0.672648)
(0.0785279 0.0061646 0.32873)
(0.0138948 -0.00579674 -0.0753565)
(0.180241 -0.0120172 1.12358)
(2.94151 0.132448 -0.675843)
(-0.254311 -0.0102391 -0.376122)
(-0.0796252 -0.00578939 -0.0285579)
(-0.0721042 -0.00333635 -0.0211607)
(-0.287778 -0.00920907 3.52126)
(-0.00256845 -0.00174901 -0.0380123)
(0.00154905 0.00245567 -0.0374346)
(0.107724 0.034456 0.848933)
(-0.00191025 0.00502929 -0.0394264)
(0.000805141 -0.00026518 -0.0117137)
(-5.7511e-05 -4.99982e-05 -0.00659658)
(-0.00676717 -0.0104933 15.1809)
(-0.140724 -0.0129694 0.272634)
(-2.12124 -0.184345 -72.6051)
(-0.330157 -0.0331489 11.998)
(-0.0829083 -0.0014513 -0.0255316)
(-1.72093 0.107907 -47.3342)
(-0.560696 -0.00134946 -10.8374)
(-0.656438 0.0496749 -12.2686)
(-0.00816422 0.00177034 -0.0122474)
(-0.455574 0.0944797 -12.167)
(-0.520107 0.188649 -37.2432)
(-0.564256 0.0733237 -12.5153)
(5.18281 0.147475 -42.681)
(0.011029 0.010562 0.0919438)
(-5.36724 -0.0824792 -0.846469)
(-0.683391 -0.261359 3.15701)
(-0.910183 -0.0766746 -6.88686)
(-0.819282 -0.0427807 -6.91569)
(-0.971019 -0.0284691 -0.668898)
(-0.0402258 -0.00192987 -0.177627)
(-0.464209 0.00670661 3.89925)
(-11.0625 -0.471445 -13.9047)
(-0.191827 0.0990818 -11.0483)
(-0.0106647 -0.000689784 -0.176373)
(-0.0366476 -0.118367 -0.0879838)
(-0.333861 0.0246203 0.574852)
(-0.00380591 0.00230449 -0.0432077)
(10.0397 0.460395 1.04131)
(8.76629 0.250245 2.16639)
(-0.0615619 -0.00438956 0.201766)
(-0.00674149 -0.000215293 -0.209595)
(-0.563257 -0.00273735 0.464942)
(-0.00280397 -3.89007e-05 -0.202085)
(-0.000696756 1.33698e-05 -0.199153)
(-0.000863866 -8.06553e-05 -0.196802)
(2.90654 0.272894 4.26408)
(-0.245064 0.027373 0.753607)
(4.5902 0.00366262 2.35386)
(2.62262 -0.0584743 -7.51985)
(-0.00395123 0.00173737 -0.0415851)
(-0.0606203 -0.0112678 1.30887)
(-4.24999 0.0349833 -6.61981)
(-0.636644 -0.00272523 0.334946)
(-6.09693 -0.224341 1.25036)
(0.235131 0.0702783 1.04309)
(-0.0646905 0.0112569 -0.217761)
(1.89428 -0.0566378 -8.46996)
(0.114233 0.00357823 0.713068)
(-0.678235 -0.00609269 0.384596)
(0.00151837 0.00207872 0.0506064)
(0.016196 -0.00802684 0.427925)
(-0.0113359 -0.00123387 -0.144204)
(1.55691 0.0268178 -9.3966)
(-0.00394776 0.00397816 0.0288747)
(0.0991366 0.00765655 0.666695)
(3.47772 0.147462 -6.11913)
(-0.653314 -0.241303 10.7449)
(0.0163095 0.022127 0.137672)
(0.0111518 0.00793027 0.845323)
(-0.00816074 0.000948411 0.325762)
(-1.81541 0.0354333 -6.43153)
(-0.0487409 0.00847127 0.738338)
(3.40591 0.0809719 -5.88793)
(-7.77224 -0.14049 0.759743)
(-0.136975 -0.00929505 0.795272)
(-0.100786 -0.00158429 0.149767)
(-0.00413747 -1.7667e-05 -0.165257)
(-0.0241788 -0.00312875 0.714708)
(-0.0582161 0.0131314 0.783857)
(0.1774 -0.0123023 0.269167)
(0.50525 0.0607231 0.95423)
(-0.975426 -0.640698 1.30308)
(-0.00524907 -1.13344e-05 -0.000670473)
(1.48814 0.36767 -3.58695)
(0.229047 0.00834168 0.972298)
(-0.36209 -0.0108016 11.0249)
(-0.35163 -0.00936701 -0.901434)
(-0.0214577 -0.00183456 0.199364)
(0.0535692 0.00429295 0.792181)
(-0.00500517 -0.00162902 -0.107062)
(0.00524962 0.00394559 0.0498886)
(-0.0465655 0.000212764 -0.16608)
(0.0836924 0.0014132 0.236496)
(-0.436191 -0.12783 18.7021)
(0.128157 0.0077764 0.312423)
(-0.0150948 0.00197485 0.573049)
(0.000942121 -0.0236316 0.373691)
(-0.0156693 -0.0137394 0.48704)
(0.0215851 0.0136624 0.215321)
(0.0826635 0.00230286 0.353302)
(0.709089 0.0260447 0.223886)
(-0.661496 -0.0454167 0.139619)
(0.00423409 -0.00603223 0.0368972)
(-0.0240476 -0.00410696 0.614544)
(-0.0477489 -0.0107696 0.998251)
(-0.239487 0.00318037 -4.888)
(0.004923 8.87322e-05 0.211428)
(0.00133234 5.46253e-05 0.213029)
(0.116341 0.0118486 0.429413)
(0.135231 0.00079711 0.382485)
(-0.0779192 -0.00130117 0.230259)
(0.00564767 0.0105359 0.0764783)
(0.723327 0.00620693 -1.94432)
(0.00245081 0.00659541 0.219703)
(-0.000699484 0.000704703 0.231185)
(-0.000771117 -0.00291018 0.221085)
(-0.324083 0.0163546 -4.99823)
(-0.0317928 -0.00270421 0.232548)
(-0.452764 -0.0204563 -8.78901)
(-0.197631 -0.0031371 -0.414055)
(-0.0435587 -0.00348142 0.726416)
(0.00173117 0.00275645 0.0834338)
(0.116074 0.00811965 0.620616)
(0.000741623 0.0047968 0.218585)
(-0.00300522 0.00507433 0.214272)
(0.0596287 0.00163461 0.229565)
(-0.288598 -0.0183832 0.415727)
(-0.236223 -0.0169601 -0.179376)
(-0.340534 -0.0201686 -5.2515)
(0.155342 0.00646081 0.344057)
(-0.227893 -0.0158799 0.430771)
(-0.0524039 -0.0371392 -0.329433)
(-0.200558 -0.0366644 -1.33874)
(-0.00460623 0.000365036 -0.00662406)
(0.102003 0.0102893 0.388509)
(-0.185815 -0.00863476 -0.938261)
(-0.154484 -0.00233639 0.280572)
(-1.58123 0.0295138 -89.1364)
(-0.521161 -0.0129348 0.996047)
(-0.00184252 -0.000266974 -0.00375146)
(-0.155253 0.00312476 0.183431)
(-0.00875809 0.00176373 0.0794134)
(-0.052281 -0.00224356 -0.428266)
(0.245309 0.017478 -0.0280004)
(-0.0039983 -0.00168402 -0.0644026)
(-0.140142 -0.00973708 -0.334119)
(-0.00323006 -0.0023288 -0.0656238)
(0.100677 0.00438894 0.701889)
(-0.0333928 -0.00700899 -0.0884958)
(-0.0299875 -0.0168037 -0.0143962)
(-0.0294373 -0.00204283 -0.160952)
(0.00622423 -0.00971342 0.282092)
(-0.139673 -0.00881489 -0.321602)
(-0.0985823 -0.00661555 -0.0489036)
(-0.12318 -0.0164501 0.344159)
(-0.0427248 0.0212825 -0.296724)
(-0.305828 -0.00548265 0.131466)
(0.00426493 0.0062924 0.0322035)
(0.00989167 0.0105833 0.3789)
(-0.112903 -0.00180697 -0.066698)
(4.2357 0.103377 5.33652)
(-0.0575455 -0.0905514 -44.7203)
(-0.0687539 0.00395986 -0.187792)
(-0.569009 -0.031063 0.402056)
(-0.0900445 0.0210575 -0.254708)
(-0.339578 -0.0261484 0.433225)
(-0.364206 -0.0110072 0.991592)
(-0.871923 -0.012662 0.186869)
(-0.0107022 -0.00303477 0.0280427)
(0.293671 0.0315123 0.757231)
(0.193752 0.00592874 1.11535)
(0.0843925 0.023688 1.05598)
(-0.0100989 4.77738e-05 -0.154691)
(0.822657 0.144521 2.12778)
(0.020173 -0.0179431 0.150344)
(0.412368 0.00207012 1.34102)
(0.469346 0.0360963 1.15892)
(-0.00246426 0.000163284 -0.00335915)
(0.080587 0.00252581 0.213599)
(2.56143e-05 -0.00196473 -0.0322025)
(0.0032886 0.00192725 0.0426943)
(-0.0213499 0.00391037 -0.0520378)
(-0.127859 -0.00692174 -0.301468)
(-0.00483464 0.00377077 -0.0766566)
(15.0192 0.52891 0.657584)
(0.0139932 -0.0149245 0.115422)
(-0.222914 -0.000712887 0.935095)
(-0.00555841 -0.00308042 -0.0941633)
(4.07772 0.20838 -5.32088)
(0.00152019 0.00128549 -0.0140861)
(-0.0565005 -0.00319799 0.00437768)
(0.778296 0.036983 1.51666)
(0.00630233 0.00307441 0.0401581)
(3.91075 -0.000178445 -6.81159)
(-0.00284454 0.000556247 -0.0259665)
(5.28216 0.365526 5.16857)
(-0.104297 0.0313251 0.881197)
(0.840296 0.00841625 0.370645)
(-0.00246513 0.000259552 0.221781)
(-0.355681 -0.0313027 0.582091)
(-0.0282192 -0.00191017 -0.0887776)
(-5.29702 -0.0465155 3.5555)
(0.387205 0.00940299 0.731914)
(-4.09454 -0.0748614 3.78617)
(-0.117437 0.00107902 0.522783)
(0.0120351 0.0070293 -0.285095)
(-0.0911552 0.0152653 0.170971)
(0.0040649 0.00374422 0.0296173)
(-0.0816319 -0.785141 -5.83841)
(-0.0171827 0.0012153 -0.0401055)
(-1.99478 0.26201 5.29432)
(-0.00955988 0.000150922 -0.00240153)
(-1.20408 -0.133491 5.6278)
(-2.25618 -0.45305 4.82983)
(-3.5086 -0.187757 4.31068)
(2.12081 0.658077 -14.0633)
(0.342619 -0.108527 -10.8776)
(-0.0239053 0.0244265 1.33029)
(-5.43945 -0.417885 7.78561)
(-0.0165152 -0.139341 1.23782)
(-0.711472 -0.0653152 0.0936137)
(0.283724 -0.0792882 -1.40782)
(-0.132057 -0.0383348 0.476373)
(0.19053 0.174424 -3.38448)
(0.694103 -0.203578 5.35561)
(-0.353213 0.0299384 3.18827)
(0.252134 0.00240418 1.13786)
(-0.186673 -0.0832059 11.2082)
(0.198038 0.00237811 1.25031)
(-0.642689 -0.23968 12.3678)
(0.928735 0.0587063 1.85193)
(-0.381422 0.00647471 2.26163)
(0.00619665 0.00842808 0.150902)
(5.3277 0.0884076 -3.06099)
(0.168447 0.0298324 0.882287)
(0.226578 0.0238001 1.34458)
(-0.622071 0.105805 -9.51238)
(0.446315 -0.0637968 -11.6206)
(-0.446876 0.181468 -29.1682)
(-0.598847 0.0316698 7.32899)
(-0.105072 0.0111746 -0.572681)
(-0.333106 -0.0455611 0.574154)
(-0.265148 -0.0485163 0.718348)
(-0.0230332 0.00538525 0.685315)
(-1.98607 0.112821 -56.5123)
(-0.38402 0.0549585 -9.88047)
(-0.158051 -0.00249768 0.405222)
(-0.0846609 0.0044269 0.704386)
(-0.0092755 -0.000440988 -0.215347)
(-0.640118 -0.231541 7.86239)
(0.765808 -0.190891 3.65204)
(-0.00385115 -0.000455326 -0.133391)
(14.6311 0.812077 12.9295)
(0.254478 -0.00363106 1.31902)
(12.4005 0.798894 8.67389)
(-0.30029 -0.035161 0.476725)