/*--------------------------------*- C++ -*----------------------------------*\
| =========                 |                                                 |
| \\      /  F ield         | OpenFOAM: The Open Source CFD Toolbox           |
|  \\    /   O peration     | Version:  v2012                                 |
|   \\  /    A nd           | Website:  www.openfoam.com                      |
|    \\/     M anipulation  |                                                 |
\*---------------------------------------------------------------------------*/
FoamFile
{
    version     2.0;
    format      ascii;
    class       surfaceScalarField;
    location    "0.25";
    object      phi;
}
// * * * * * * * * * * * * * * * * * * * * * * * * * * * * * * * * * * * * * //

dimensions      [0 3 -1 0 0 0 0];
oriented        oriented;


internalField   nonuniform List<scalar> 
6514
(
1.06443e-10
-2.25575e-10
1.46374e-15
1.1193e-10
-2.32813e-10
1.00707e-15
1.16778e-10
-2.38848e-10
7.99878e-16
1.20904e-10
-2.43619e-10
4.94493e-16
1.24244e-10
-2.47066e-10
4.51281e-16
1.26746e-10
-2.49224e-10
2.45237e-16
1.28377e-10
-2.50063e-10
1.24319e-16
1.29119e-10
-2.49652e-10
2.33637e-17
1.28976e-10
-2.48053e-10
-1.29054e-16
1.27967e-10
-2.45339e-10
-5.60624e-17
1.26125e-10
-2.41613e-10
-3.25505e-17
1.235e-10
-2.3698e-10
1.45823e-16
1.20148e-10
-2.31562e-10
2.08717e-16
1.16137e-10
-2.25466e-10
3.53488e-16
1.11542e-10
-2.18812e-10
4.50443e-16
1.06439e-10
-2.11703e-10
5.18165e-16
1.00909e-10
-2.04192e-10
5.49755e-16
9.50268e-11
-1.96475e-10
4.68372e-16
8.88726e-11
-1.88491e-10
3.82098e-16
8.25168e-11
-1.80396e-10
2.41574e-16
7.60319e-11
-1.72143e-10
1.61166e-16
6.94843e-11
-1.63752e-10
7.22296e-17
6.29306e-11
-1.55319e-10
5.50831e-18
5.64314e-11
-1.46678e-10
-1.90532e-17
5.00374e-11
-1.37884e-10
9.91769e-17
4.37986e-11
-1.28827e-10
2.30659e-16
3.77608e-11
-1.19452e-10
3.43642e-16
3.19665e-11
-1.09702e-10
4.70408e-16
2.64613e-11
-9.94352e-11
5.40539e-16
2.12896e-11
-8.86016e-11
5.52107e-16
1.6499e-11
-7.71528e-11
5.06621e-16
1.21442e-11
-6.50765e-11
3.95272e-16
8.28987e-12
-5.24689e-11
2.73065e-16
5.01566e-12
-3.95688e-11
9.83782e-17
2.42893e-12
-2.67378e-11
-5.53784e-17
6.80811e-13
-1.45551e-11
-2.22452e-16
-3.80086e-12
-3.4105e-16
1.12734e-10
-2.31635e-10
1.516e-15
1.1818e-10
-2.38251e-10
9.40304e-16
1.22909e-10
-2.43571e-10
6.13784e-16
1.26842e-10
-2.47549e-10
3.89348e-16
1.29921e-10
-2.50141e-10
3.98571e-16
1.32101e-10
-2.51401e-10
2.85342e-16
1.33358e-10
-2.51318e-10
1.97827e-16
1.33685e-10
-2.49979e-10
1.02056e-16
1.33095e-10
-2.47464e-10
-6.15979e-17
1.31621e-10
-2.43865e-10
-3.16305e-17
1.29306e-10
-2.39299e-10
-5.41235e-17
1.26211e-10
-2.33883e-10
6.47769e-17
1.22401e-10
-2.27752e-10
9.25096e-17
1.17953e-10
-2.21017e-10
2.03782e-16
1.12949e-10
-2.13805e-10
2.84982e-16
1.07468e-10
-2.0622e-10
3.57156e-16
1.01598e-10
-1.98318e-10
4.00596e-16
9.54151e-11
-1.90289e-10
3.5789e-16
8.90003e-11
-1.82072e-10
3.03733e-16
8.24244e-11
-1.73818e-10
2.04982e-16
7.57589e-11
-1.65476e-10
1.4539e-16
6.90686e-11
-1.5706e-10
7.48663e-17
6.24077e-11
-1.48658e-10
1.71206e-17
5.58345e-11
-1.40104e-10
-3.39479e-18
4.93968e-11
-1.31445e-10
8.34797e-17
4.31413e-11
-1.22569e-10
1.79608e-16
3.71113e-11
-1.13419e-10
2.65326e-16
3.13465e-11
-1.03933e-10
3.6999e-16
2.58893e-11
-9.39731e-11
4.33919e-16
2.07815e-11
-8.34885e-11
4.5383e-16
1.60675e-11
-7.24338e-11
4.25131e-16
1.17984e-11
-6.08032e-11
3.42084e-16
8.03437e-12
-4.8702e-11
2.45056e-16
4.84925e-12
-3.63827e-11
1.01923e-16
2.34252e-12
-2.4232e-11
-2.96454e-17
6.5469e-13
-1.28705e-11
-1.75716e-16
-3.15063e-12
-2.76495e-16
1.19364e-10
-2.37693e-10
1.54638e-15
1.24724e-10
-2.43602e-10
8.99313e-16
1.29283e-10
-2.48125e-10
5.83308e-16
1.32969e-10
-2.51232e-10
3.60908e-16
1.35731e-10
-2.52898e-10
4.32073e-16
1.37533e-10
-2.53199e-10
3.54598e-16
1.38362e-10
-2.52143e-10
2.97893e-16
1.38222e-10
-2.49838e-10
1.89521e-16
1.37141e-10
-2.46383e-10
-3.36346e-19
1.35162e-10
-2.41886e-10
-1.22e-17
1.32341e-10
-2.36478e-10
-7.76094e-17
1.28749e-10
-2.3029e-10
1.12284e-18
1.24461e-10
-2.23464e-10
2.77388e-19
1.19562e-10
-2.16117e-10
9.08656e-17
1.1414e-10
-2.08381e-10
1.61642e-16
1.0828e-10
-2.00359e-10
2.3871e-16
1.02073e-10
-1.92107e-10
2.9498e-16
9.55949e-11
-1.83809e-10
2.79946e-16
8.89292e-11
-1.75403e-10
2.52355e-16
8.21453e-11
-1.67032e-10
1.82916e-16
7.5313e-11
-1.58642e-10
1.41092e-16
6.84949e-11
-1.5024e-10
8.28089e-17
6.17424e-11
-1.41905e-10
3.09124e-17
5.51108e-11
-1.33471e-10
8.74792e-18
4.86446e-11
-1.24978e-10
7.42663e-17
4.23875e-11
-1.1631e-10
1.40531e-16
3.63793e-11
-1.07408e-10
2.01871e-16
3.06569e-11
-9.82079e-11
2.87368e-16
2.526e-11
-8.85722e-11
3.4438e-16
2.02271e-11
-7.84514e-11
3.69513e-16
1.55998e-11
-6.78024e-11
3.53887e-16
1.14254e-11
-5.66253e-11
2.94206e-16
7.75972e-12
-4.50337e-11
2.19456e-16
4.6707e-12
-3.32925e-11
1.04636e-16
2.24983e-12
-2.18116e-11
-5.71626e-18
6.26609e-13
-1.12496e-11
-1.30455e-16
-2.52741e-12
-2.16372e-16
1.26341e-10
-2.43701e-10
1.67686e-15
1.3156e-10
-2.48812e-10
8.63955e-16
1.35891e-10
-2.52452e-10
4.37423e-16
1.39268e-10
-2.54607e-10
2.11972e-16
1.4165e-10
-2.55278e-10
3.08782e-16
1.43014e-10
-2.5456e-10
2.87842e-16
1.43357e-10
-2.52484e-10
2.71557e-16
1.42699e-10
-2.49179e-10
1.87633e-16
1.41079e-10
-2.44764e-10
-7.37472e-18
1.38556e-10
-2.39362e-10
-3.23921e-17
1.35196e-10
-2.33119e-10
-1.21465e-16
1.31081e-10
-2.26176e-10
-6.28054e-17
1.26298e-10
-2.18681e-10
-8.0799e-17
1.20937e-10
-2.10757e-10
-2.61453e-18
1.15093e-10
-2.02536e-10
5.96766e-17
1.08855e-10
-1.9412e-10
1.39639e-16
1.02315e-10
-1.85564e-10
2.0576e-16
9.55524e-11
-1.77044e-10
2.11804e-16
8.86482e-11
-1.68496e-10
2.06679e-16
8.16709e-11
-1.60053e-10
1.60665e-16
7.46879e-11
-1.51657e-10
1.35829e-16
6.77587e-11
-1.43309e-10
8.7616e-17
6.09318e-11
-1.35078e-10
4.11459e-17
5.42586e-11
-1.26797e-10
2.066e-17
4.77803e-11
-1.18499e-10
7.08188e-17
4.15369e-11
-1.10065e-10
1.13075e-16
3.55652e-11
-1.01435e-10
1.51775e-16
2.98987e-11
-9.25391e-11
2.18586e-16
2.45742e-11
-8.32447e-11
2.68047e-16
1.96275e-11
-7.35013e-11
2.9651e-16
1.50968e-11
-6.32684e-11
2.92468e-16
1.1026e-11
-5.25516e-11
2.532e-16
7.4665e-12
-4.14719e-11
1.99432e-16
4.4804e-12
-3.03053e-11
1.09416e-16
2.15107e-12
-1.94824e-11
1.85737e-17
5.96675e-13
-9.6969e-12
-8.82989e-17
-1.93323e-12
-1.61879e-16
1.33664e-10
-2.49602e-10
1.89447e-15
1.38679e-10
-2.53818e-10
1.01559e-15
1.42715e-10
-2.56482e-10
5.01053e-16
1.45716e-10
-2.57606e-10
2.22073e-16
1.47651e-10
-2.5721e-10
2.8337e-16
1.4851e-10
-2.55416e-10
2.61385e-16
1.48307e-10
-2.52278e-10
2.48197e-16
1.47076e-10
-2.47948e-10
1.67396e-16
1.44871e-10
-2.42559e-10
-3.60334e-17
1.41763e-10
-2.36255e-10
-7.18794e-17
1.37833e-10
-2.29191e-10
-1.73374e-16
1.33174e-10
-2.21518e-10
-1.24859e-16
1.2788e-10
-2.13388e-10
-1.5088e-16
1.2205e-10
-2.04929e-10
-7.96304e-17
1.15783e-10
-1.96268e-10
-2.3475e-17
1.09172e-10
-1.87509e-10
5.74283e-17
1.0231e-10
-1.787e-10
1.29227e-16
9.52744e-11
-1.70008e-10
1.50408e-16
8.81472e-11
-1.61367e-10
1.62728e-16
8.09936e-11
-1.52898e-10
1.3537e-16
7.3878e-11
-1.44539e-10
1.2448e-16
6.68566e-11
-1.36286e-10
8.5577e-17
5.99737e-11
-1.28194e-10
4.52484e-17
5.3277e-11
-1.201e-10
2.40169e-17
4.68037e-11
-1.12024e-10
6.53792e-17
4.05902e-11
-1.03851e-10
9.14916e-17
3.46699e-11
-9.55127e-11
1.15692e-16
2.90731e-11
-8.69405e-11
1.69994e-16
2.38334e-11
-7.80026e-11
2.13276e-16
1.89839e-11
-6.86491e-11
2.43591e-16
1.45596e-11
-5.88414e-11
2.46742e-16
1.06012e-11
-4.85906e-11
2.21987e-16
7.1555e-12
-3.80241e-11
1.82942e-16
4.27885e-12
-2.74274e-11
1.11409e-16
2.04648e-12
-1.72498e-11
3.50617e-17
5.64945e-13
-8.21644e-12
-5.77419e-17
-1.37005e-12
-1.25107e-16
1.41329e-10
-2.55334e-10
1.57722e-15
1.46069e-10
-2.58552e-10
6.70984e-16
1.49735e-10
-2.60146e-10
1.99287e-16
1.52282e-10
-2.60154e-10
-4.87242e-17
1.53696e-10
-2.58623e-10
6.62191e-17
1.53982e-10
-2.55701e-10
9.1553e-17
1.53169e-10
-2.51465e-10
1.21617e-16
1.51309e-10
-2.46088e-10
7.23056e-17
1.48472e-10
-2.39723e-10
-1.14453e-16
1.44742e-10
-2.32527e-10
-1.40923e-16
1.40214e-10
-2.24666e-10
-2.381e-16
1.34992e-10
-2.16297e-10
-1.86836e-16
1.29177e-10
-2.07575e-10
-2.1227e-16
1.22875e-10
-1.98629e-10
-1.42018e-16
1.16188e-10
-1.89582e-10
-9.01232e-17
1.09212e-10
-1.80533e-10
-8.99027e-18
1.0204e-10
-1.71526e-10
6.45908e-17
9.47484e-11
-1.62716e-10
9.61262e-17
8.74166e-11
-1.54033e-10
1.20545e-16
8.01066e-11
-1.45586e-10
1.07417e-16
7.28791e-11
-1.3731e-10
1.07572e-16
6.57857e-11
-1.29191e-10
7.67928e-17
5.88668e-11
-1.21275e-10
4.27068e-17
5.21658e-11
-1.13398e-10
2.59118e-17
4.57156e-11
-1.05573e-10
5.8088e-17
3.95488e-11
-9.76831e-11
7.24724e-17
3.36951e-11
-8.96578e-11
8.33358e-17
2.81817e-11
-8.14258e-11
1.25296e-16
2.30393e-11
-7.28585e-11
1.61746e-16
1.8298e-11
-6.39056e-11
1.93345e-16
1.39899e-11
-5.45312e-11
2.03123e-16
1.01522e-11
-4.47509e-11
1.92249e-16
6.82758e-12
-3.46976e-11
1.67479e-16
4.06665e-12
-2.46653e-11
1.13633e-16
1.93639e-12
-1.51191e-11
5.14196e-17
5.31494e-13
-6.81214e-12
-2.77956e-17
-8.39711e-13
-8.64002e-17
1.49327e-10
-2.60816e-10
1.45945e-15
1.53708e-10
-2.62927e-10
6.7312e-16
1.56919e-10
-2.63355e-10
1.49867e-16
1.5893e-10
-2.62166e-10
-9.22727e-17
1.59743e-10
-2.59435e-10
-4.12319e-17
1.59382e-10
-2.55339e-10
-9.02911e-18
1.57895e-10
-2.49977e-10
1.28026e-17
1.5535e-10
-2.43544e-10
-1.64717e-17
1.51834e-10
-2.3621e-10
-1.94231e-16
1.47448e-10
-2.28143e-10
-2.09506e-16
1.42298e-10
-2.19518e-10
-2.98085e-16
1.36496e-10
-2.10497e-10
-2.40883e-16
1.30154e-10
-2.01236e-10
-2.61178e-16
1.23381e-10
-1.91858e-10
-1.9026e-16
1.16283e-10
-1.82485e-10
-1.40661e-16
1.08955e-10
-1.73206e-10
-6.10564e-17
1.0149e-10
-1.6406e-10
1.19399e-17
9.39631e-11
-1.55188e-10
4.90309e-17
8.64483e-11
-1.46517e-10
8.12355e-17
7.90045e-11
-1.38142e-10
7.7791e-17
7.16875e-11
-1.29992e-10
8.60995e-17
6.45446e-11
-1.22047e-10
6.20479e-17
5.76112e-11
-1.14341e-10
3.47555e-17
5.0926e-11
-1.06712e-10
1.88398e-17
4.45175e-11
-9.91637e-11
4.68539e-17
3.84145e-11
-9.15792e-11
5.44011e-17
3.2643e-11
-8.38854e-11
5.9025e-17
2.7227e-11
-7.60089e-11
9.36337e-17
2.21941e-11
-6.78243e-11
1.25257e-16
1.75717e-11
-5.92816e-11
1.57134e-16
1.33892e-11
-5.0347e-11
1.70495e-16
9.68039e-12
-4.10403e-11
1.69044e-16
6.48381e-12
-3.14994e-11
1.54054e-16
3.84447e-12
-2.20248e-11
1.13705e-16
1.82113e-12
-1.30952e-11
6.26851e-17
4.96424e-13
-5.48767e-12
-4.71876e-18
-3.43939e-13
-5.70456e-17
1.57638e-10
-2.65965e-10
7.92508e-16
1.61567e-10
-2.66854e-10
7.43014e-17
1.64229e-10
-2.66019e-10
-2.65057e-16
1.65612e-10
-2.63553e-10
-4.41957e-16
1.6574e-10
-2.59565e-10
-2.9698e-16
1.64655e-10
-2.54255e-10
-2.1834e-16
1.62426e-10
-2.4775e-10
-1.44089e-16
1.59142e-10
-2.40262e-10
-1.4005e-16
1.54905e-10
-2.31976e-10
-2.85737e-16
1.49831e-10
-2.23072e-10
-2.8202e-16
1.44038e-10
-2.13729e-10
-3.51826e-16
1.37649e-10
-2.0411e-10
-2.84289e-16
1.30779e-10
-1.94369e-10
-2.96121e-16
1.23542e-10
-1.84624e-10
-2.22911e-16
1.16045e-10
-1.7499e-10
-1.75597e-16
1.08384e-10
-1.65546e-10
-9.84763e-17
1.00648e-10
-1.56323e-10
-2.90901e-17
9.29081e-11
-1.47448e-10
1.01461e-17
8.52353e-11
-1.38843e-10
4.57117e-17
7.76828e-11
-1.30588e-10
4.83095e-17
7.03014e-11
-1.22609e-10
6.17488e-17
6.31329e-11
-1.14877e-10
4.28368e-17
5.62075e-11
-1.07415e-10
2.15824e-17
4.95591e-11
-1.00062e-10
1.11338e-17
4.32118e-11
-9.28157e-11
3.25655e-17
3.71901e-11
-8.55569e-11
3.57486e-17
3.15164e-11
-7.82111e-11
3.40452e-17
2.62116e-11
-7.07036e-11
6.08998e-17
2.13005e-11
-6.29123e-11
8.71813e-17
1.68075e-11
-5.47875e-11
1.19261e-16
1.27596e-11
-4.62978e-11
1.36311e-16
9.18737e-12
-3.74668e-11
1.44482e-16
6.12537e-12
-2.84361e-11
1.39432e-16
3.61309e-12
-1.95114e-11
1.12509e-16
1.70112e-12
-1.11826e-11
7.2608e-17
4.59858e-13
-4.24634e-12
1.66963e-17
1.15693e-13
-2.82103e-17
1.66236e-10
-2.70664e-10
9.80776e-16
1.69606e-10
-2.70221e-10
2.45214e-16
1.71614e-10
-2.68028e-10
-2.83966e-16
1.72272e-10
-2.64215e-10
-4.63799e-16
1.71624e-10
-2.58919e-10
-4.27808e-16
1.69736e-10
-2.5237e-10
-3.34805e-16
1.66701e-10
-2.44716e-10
-2.74694e-16
1.62624e-10
-2.36188e-10
-2.36861e-16
1.57627e-10
-2.26983e-10
-3.61894e-16
1.51839e-10
-2.17287e-10
-3.35721e-16
1.4539e-10
-2.07283e-10
-3.87379e-16
1.38408e-10
-1.97131e-10
-3.1002e-16
1.31016e-10
-1.8698e-10
-3.13168e-16
1.23329e-10
-1.7694e-10
-2.39428e-16
1.15453e-10
-1.67116e-10
-1.94329e-16
1.07481e-10
-1.57576e-10
-1.22209e-16
9.94996e-11
-1.48342e-10
-5.81932e-17
9.15749e-11
-1.39524e-10
-2.06332e-17
8.37722e-11
-1.3104e-10
1.5064e-17
7.6139e-11
-1.22955e-10
2.00631e-17
6.872e-11
-1.15189e-10
3.60812e-17
6.15514e-11
-1.07707e-10
2.07645e-17
5.46578e-11
-1.00521e-10
5.44451e-18
4.80682e-11
-9.34721e-11
-3.88201e-18
4.18018e-11
-8.65488e-11
1.4566e-17
3.5879e-11
-7.96338e-11
1.64984e-17
3.03188e-11
-7.26506e-11
1.43285e-17
2.5139e-11
-6.55234e-11
3.78766e-17
2.03613e-11
-5.81341e-11
6.09639e-17
1.60081e-11
-5.04335e-11
9.27832e-17
1.21033e-11
-4.23922e-11
1.11226e-16
8.67496e-12
-3.40374e-11
1.25382e-16
5.7536e-12
-2.55136e-11
1.26449e-16
3.37339e-12
-1.71302e-11
1.09471e-16
1.57682e-12
-9.38531e-12
7.82183e-17
4.21933e-13
-3.09117e-12
3.24156e-17
5.37746e-13
-7.04732e-18
1.75077e-10
-2.74806e-10
1.49488e-16
1.77769e-10
-2.72916e-10
-4.50092e-16
1.79011e-10
-2.69276e-10
-6.89124e-16
1.78838e-10
-2.6405e-10
-7.96678e-16
1.77322e-10
-2.57408e-10
-6.44028e-16
1.74553e-10
-2.49605e-10
-5.15571e-16
1.70646e-10
-2.40813e-10
-3.98911e-16
1.65729e-10
-2.31274e-10
-3.33399e-16
1.59938e-10
-2.21197e-10
-4.19841e-16
1.53417e-10
-2.10769e-10
-3.75055e-16
1.46304e-10
-2.00174e-10
-4.03938e-16
1.38735e-10
-1.89564e-10
-3.17921e-16
1.30833e-10
-1.79081e-10
-3.12615e-16
1.22715e-10
-1.68825e-10
-2.39294e-16
1.14485e-10
-1.58887e-10
-1.98133e-16
1.06231e-10
-1.49324e-10
-1.32406e-16
9.80348e-11
-1.40145e-10
-7.65064e-17
8.99568e-11
-1.31447e-10
-4.31087e-17
8.20555e-11
-1.23138e-10
-1.07118e-17
7.43719e-11
-1.15271e-10
-5.98178e-18
6.69443e-11
-1.07761e-10
1.01598e-17
5.98025e-11
-1.00564e-10
-3.09157e-18
5.29655e-11
-9.36839e-11
-1.36757e-17
4.6457e-11
-8.6963e-11
-1.78398e-17
4.02915e-11
-8.0383e-11
-6.11783e-18
3.44855e-11
-7.38276e-11
-4.26424e-18
2.90544e-11
-6.72193e-11
-7.84013e-18
2.40129e-11
-6.04819e-11
1.16983e-17
1.93803e-11
-5.35013e-11
3.12729e-17
1.51764e-11
-4.62292e-11
6.30876e-17
1.14229e-11
-3.86383e-11
8.34713e-17
8.14517e-12
-3.07589e-11
1.04244e-16
5.36997e-12
-2.27376e-11
1.11951e-16
3.12633e-12
-1.48857e-11
1.05161e-16
1.44872e-12
-7.70701e-12
8.26248e-17
3.828e-13
-2.02477e-12
4.66533e-17
9.20962e-13
1.37747e-17
1.84107e-10
-2.78248e-10
-3.96657e-17
1.8599e-10
-2.74802e-10
-4.29819e-16
1.86342e-10
-2.69634e-10
-8.2559e-16
1.85229e-10
-2.62944e-10
-8.71702e-16
1.82749e-10
-2.54934e-10
-8.16346e-16
1.79022e-10
-2.45883e-10
-6.41325e-16
1.74184e-10
-2.35979e-10
-5.24314e-16
1.68383e-10
-2.25478e-10
-4.08616e-16
1.61772e-10
-2.14592e-10
-4.63541e-16
1.54506e-10
-2.03507e-10
-3.91342e-16
1.46731e-10
-1.92402e-10
-3.9902e-16
1.38586e-10
-1.81422e-10
-3.05673e-16
1.30196e-10
-1.70694e-10
-2.93372e-16
1.21675e-10
-1.60306e-10
-2.23805e-16
1.13122e-10
-1.50335e-10
-1.87438e-16
1.0462e-10
-1.40824e-10
-1.31065e-16
9.62451e-11
-1.3177e-10
-8.45499e-17
8.80491e-11
-1.23251e-10
-5.8362e-17
8.00837e-11
-1.15172e-10
-3.13994e-17
7.23825e-11
-1.0757e-10
-2.95889e-17
6.49769e-11
-1.00355e-10
-1.51449e-17
5.789e-11
-9.34767e-11
-2.76039e-17
5.11352e-11
-8.69292e-11
-3.3746e-17
4.47307e-11
-8.05581e-11
-3.74541e-17
3.86863e-11
-7.43385e-11
-2.96683e-17
3.30147e-11
-6.8156e-11
-2.60559e-17
2.77279e-11
-6.19325e-11
-2.62153e-17
2.28378e-11
-5.55919e-11
-6.67914e-18
1.83612e-11
-4.90248e-11
1.16458e-17
1.43158e-11
-4.21837e-11
4.35107e-17
1.07213e-11
-3.50436e-11
6.42009e-17
7.60022e-12
-2.76373e-11
8.86245e-17
4.97613e-12
-2.01128e-11
9.96577e-17
2.87296e-12
-1.27818e-11
9.99241e-17
1.31738e-12
-6.15077e-12
8.37462e-17
3.42629e-13
-1.04941e-12
5.61784e-17
1.26424e-12
2.79375e-17
1.93249e-10
-2.80844e-10
-5.7164e-16
1.9418e-10
-2.75741e-10
-9.19948e-16
1.93513e-10
-2.68975e-10
-1.05817e-15
1.91346e-10
-2.60787e-10
-1.08481e-15
1.87809e-10
-2.51404e-10
-9.32561e-16
1.83048e-10
-2.41128e-10
-7.4896e-16
1.77226e-10
-2.30161e-10
-5.83184e-16
1.70507e-10
-2.18764e-10
-4.51596e-16
1.6306e-10
-2.07149e-10
-4.69336e-16
1.55048e-10
-1.95499e-10
-3.84371e-16
1.46623e-10
-1.83981e-10
-3.71749e-16
1.37924e-10
-1.72726e-10
-2.75338e-16
1.29075e-10
-1.61848e-10
-2.5843e-16
1.20186e-10
-1.51419e-10
-1.94197e-16
1.11348e-10
-1.41499e-10
-1.65169e-16
1.02639e-10
-1.32116e-10
-1.19244e-16
9.41246e-11
-1.23256e-10
-8.44676e-17
8.58498e-11
-1.14977e-10
-6.69555e-17
7.78577e-11
-1.07179e-10
-4.78173e-17
7.01738e-11
-9.9886e-11
-5.05275e-17
6.28222e-11
-9.30028e-11
-3.94264e-17
5.58193e-11
-8.64734e-11
-5.22175e-17
4.91728e-11
-8.02828e-11
-5.5134e-17
4.28953e-11
-7.42803e-11
-5.46408e-17
3.69921e-11
-6.84356e-11
-5.48722e-17
3.14723e-11
-6.26365e-11
-4.92398e-17
2.63446e-11
-5.68051e-11
-4.76005e-17
2.16185e-11
-5.08662e-11
-2.90592e-17
1.73084e-11
-4.47151e-11
-1.22112e-17
1.34301e-11
-3.83056e-11
2.01705e-17
1.00014e-11
-3.1615e-11
4.20383e-17
7.04253e-12
-2.46783e-11
7.10409e-17
4.57382e-12
-1.76437e-11
8.61909e-17
2.61445e-12
-1.08218e-11
9.39206e-17
1.1834e-12
-4.71909e-12
8.42058e-17
3.01602e-13
-1.66911e-13
6.46863e-17
1.56668e-12
4.20591e-17
2.02407e-10
-2.82417e-10
-2.27955e-16
2.02232e-10
-2.75571e-10
-6.63645e-16
2.0041e-10
-2.67162e-10
-1.13179e-15
1.97075e-10
-2.57463e-10
-1.14399e-15
1.9239e-10
-2.46728e-10
-1.09899e-15
1.8653e-10
-2.35274e-10
-8.5854e-16
1.79678e-10
-2.23315e-10
-6.7979e-16
1.72019e-10
-2.1111e-10
-4.91214e-16
1.6373e-10
-1.98866e-10
-4.7141e-16
1.54983e-10
-1.86756e-10
-3.60415e-16
1.4593e-10
-1.74931e-10
-3.27911e-16
1.36711e-10
-1.63508e-10
-2.29559e-16
1.27442e-10
-1.52582e-10
-2.09359e-16
1.18227e-10
-1.42206e-10
-1.53986e-16
1.0915e-10
-1.32424e-10
-1.32885e-16
1.00279e-10
-1.23247e-10
-1.00072e-16
9.16707e-11
-1.14647e-10
-7.74672e-17
8.33598e-11
-1.06667e-10
-7.07392e-17
7.53808e-11
-9.92001e-11
-6.03829e-17
6.7751e-11
-9.22565e-11
-6.92253e-17
6.04867e-11
-8.57384e-11
-6.24139e-17
5.35977e-11
-7.95841e-11
-7.63202e-17
4.70857e-11
-7.37711e-11
-7.61786e-17
4.09581e-11
-6.81527e-11
-7.6049e-17
3.52161e-11
-6.26941e-11
-8.1646e-17
2.9865e-11
-5.72859e-11
-7.3075e-17
2.49108e-11
-5.18513e-11
-6.58637e-17
2.03604e-11
-4.63165e-11
-4.49446e-17
1.62266e-11
-4.05818e-11
-2.74515e-17
1.25233e-11
-3.46027e-11
5.7843e-18
9.26653e-12
-2.83586e-11
2.7737e-17
6.47468e-12
-2.18864e-11
5.89648e-17
4.16497e-12
-1.53338e-11
7.54563e-17
2.35204e-12
-9.00844e-12
8.78815e-17
1.04744e-12
-3.41393e-12
8.24301e-17
2.59921e-13
6.21363e-13
6.95049e-17
1.82757e-12
5.05046e-17
2.11455e-10
-2.82793e-10
-5.26383e-16
2.10013e-10
-2.74136e-10
-9.44401e-16
2.06898e-10
-2.64057e-10
-1.19218e-15
2.02286e-10
-2.5286e-10
-1.20999e-15
1.9637e-10
-2.4082e-10
-1.09674e-15
1.89353e-10
-2.28264e-10
-8.71251e-16
1.81441e-10
-2.15407e-10
-6.61568e-16
1.72831e-10
-2.02505e-10
-4.72578e-16
1.63711e-10
-1.8975e-10
-4.25703e-16
1.54252e-10
-1.773e-10
-3.11244e-16
1.44608e-10
-1.65289e-10
-2.65784e-16
1.34911e-10
-1.53812e-10
-1.70906e-16
1.25272e-10
-1.42944e-10
-1.5133e-16
1.15783e-10
-1.32719e-10
-1.05582e-16
1.0652e-10
-1.23162e-10
-9.49731e-17
9.75382e-11
-1.14266e-10
-7.52452e-17
8.88842e-11
-1.05993e-10
-6.64483e-17
8.05831e-11
-9.83667e-11
-7.07224e-17
7.26593e-11
-9.12762e-11
-7.04549e-17
6.51218e-11
-8.47194e-11
-8.5916e-17
5.7979e-11
-7.85956e-11
-8.41892e-17
5.1234e-11
-7.28391e-11
-9.97836e-17
4.48827e-11
-6.74204e-11
-9.75813e-17
3.89278e-11
-6.21979e-11
-9.42358e-17
3.33663e-11
-5.71332e-11
-1.08706e-16
2.82002e-11
-5.21206e-11
-9.74841e-17
2.3433e-11
-4.70848e-11
-8.68271e-17
1.90696e-11
-4.19539e-11
-6.48849e-17
1.51209e-11
-3.66339e-11
-4.71266e-17
1.15996e-11
-3.1082e-11
-1.25918e-17
8.52033e-12
-2.52798e-11
1.04253e-17
5.89948e-12
-1.92657e-11
4.49675e-17
3.75161e-12
-1.31859e-11
6.37882e-17
2.08706e-12
-7.34355e-12
8.14564e-17
9.10195e-13
-2.23658e-12
8.04438e-17
2.17803e-13
1.31454e-12
7.37251e-17
2.04645e-12
5.91699e-17
2.20242e-10
-2.81773e-10
-5.95736e-16
2.17366e-10
-2.71267e-10
-9.0139e-16
2.12823e-10
-2.59526e-10
-1.34738e-15
2.06829e-10
-2.46877e-10
-1.30558e-15
1.99611e-10
-2.33612e-10
-1.25083e-15
1.91396e-10
-2.20058e-10
-9.56781e-16
1.82409e-10
-2.06426e-10
-7.19165e-16
1.72856e-10
-1.92957e-10
-4.76735e-16
1.62929e-10
-1.79827e-10
-3.92225e-16
1.52799e-10
-1.67173e-10
-2.58674e-16
1.42613e-10
-1.55105e-10
-1.97595e-16
1.32495e-10
-1.43695e-10
-1.06765e-16
1.22544e-10
-1.32995e-10
-8.75778e-17
1.12843e-10
-1.23019e-10
-5.43213e-17
1.03452e-10
-1.13771e-10
-5.35661e-17
9.44164e-11
-1.05231e-10
-4.86783e-17
8.57699e-11
-9.73461e-11
-5.29086e-17
7.75271e-11
-9.01246e-11
-6.91759e-17
6.97025e-11
-8.34516e-11
-7.87376e-17
6.22965e-11
-7.73139e-11
-1.0141e-16
5.53097e-11
-7.16091e-11
-1.04846e-16
4.87388e-11
-6.62683e-11
-1.22361e-16
4.25743e-11
-6.12565e-11
-1.18015e-16
3.68141e-11
-5.64381e-11
-1.15484e-16
3.14516e-11
-5.17717e-11
-1.35894e-16
2.6486e-11
-4.71561e-11
-1.21639e-16
2.19185e-11
-4.25182e-11
-1.04756e-16
1.77523e-11
-3.77888e-11
-7.91701e-17
1.3997e-11
-3.28794e-11
-5.93987e-17
1.06639e-11
-2.77497e-11
-2.3204e-17
7.7666e-12
-2.23832e-11
1.10208e-19
5.31993e-12
-1.68194e-11
3.61187e-17
3.33595e-12
-1.12021e-11
5.50073e-17
1.82096e-12
-5.82835e-12
7.55575e-17
7.72437e-13
-1.18766e-12
7.70059e-17
1.75486e-13
1.91228e-12
7.51175e-17
2.22306e-12
6.30949e-17
2.2858e-10
-2.79161e-10
-8.81241e-16
2.24104e-10
-2.668e-10
-1.09297e-15
2.18006e-10
-2.53439e-10
-1.34472e-15
2.1054e-10
-2.39422e-10
-1.28991e-15
2.01966e-10
-2.25046e-10
-1.18685e-15
1.92532e-10
-2.1063e-10
-9.0992e-16
1.82474e-10
-1.96373e-10
-6.55287e-16
1.72005e-10
-1.82492e-10
-4.19484e-16
1.61317e-10
-1.69142e-10
-3.18604e-16
1.50573e-10
-1.56431e-10
-1.87882e-16
1.39909e-10
-1.44443e-10
-1.21818e-16
1.29439e-10
-1.33225e-10
-3.86816e-17
1.19247e-10
-1.22804e-10
-2.45453e-17
1.09401e-10
-1.13174e-10
-2.6524e-18
9.99483e-11
-1.04319e-10
-1.38274e-17
9.09197e-11
-9.62032e-11
-2.21142e-17
8.23368e-11
-8.87629e-11
-4.00703e-17
7.42031e-11
-8.19914e-11
-6.71683e-17
6.65229e-11
-7.57714e-11
-8.68072e-17
5.9288e-11
-7.00796e-11
-1.16124e-16
5.24918e-11
-6.48133e-11
-1.24732e-16
4.61246e-11
-5.99014e-11
-1.44177e-16
4.01721e-11
-5.53048e-11
-1.38375e-16
3.46279e-11
-5.08943e-11
-1.33301e-16
2.94821e-11
-4.66271e-11
-1.62008e-16
2.47315e-11
-4.24067e-11
-1.45268e-16
2.03753e-11
-3.81631e-11
-1.24536e-16
1.64156e-11
-3.38302e-11
-9.69706e-17
1.28606e-11
-2.93256e-11
-7.58346e-17
9.72106e-12
-2.46111e-11
-3.77594e-17
7.0094e-12
-1.96724e-11
-1.32648e-17
4.73923e-12
-1.45496e-11
2.52924e-17
2.92034e-12
-9.38351e-12
4.53291e-17
1.5553e-12
-4.4632e-12
6.93966e-17
6.34993e-13
-2.67039e-13
7.35607e-17
1.33232e-13
2.41481e-12
7.6154e-17
2.35745e-12
6.73809e-17
2.36248e-10
-2.74748e-10
-9.17388e-16
2.30013e-10
-2.60574e-10
-1.10921e-15
2.22246e-10
-2.45684e-10
-1.50922e-15
2.1324e-10
-2.30428e-10
-1.4104e-15
2.03278e-10
-2.15095e-10
-1.32405e-15
1.92627e-10
-1.99987e-10
-9.83427e-16
1.81529e-10
-1.8528e-10
-6.87862e-16
1.70196e-10
-1.71164e-10
-4.08053e-16
1.58811e-10
-1.5776e-10
-2.71146e-16
1.47528e-10
-1.45149e-10
-1.29228e-16
1.36468e-10
-1.33383e-10
-5.17085e-17
1.25726e-10
-1.22484e-10
2.31736e-17
1.15374e-10
-1.12451e-10
3.47478e-17
1.05459e-10
-1.0326e-10
4.32632e-17
9.60157e-11
-9.48752e-11
2.24581e-17
8.70594e-11
-8.72472e-11
3.56724e-19
7.85989e-11
-8.03019e-11
-2.9204e-17
7.06264e-11
-7.40194e-11
-6.70118e-17
6.31363e-11
-6.82814e-11
-9.53378e-17
5.61122e-11
-6.30563e-11
-1.30978e-16
4.95405e-11
-5.82421e-11
-1.44073e-16
4.34058e-11
-5.37672e-11
-1.65177e-16
3.76894e-11
-4.95894e-11
-1.5759e-16
3.23812e-11
-4.55868e-11
-1.53237e-16
2.74685e-11
-4.17158e-11
-1.86941e-16
2.29462e-11
-3.78858e-11
-1.67585e-16
1.88119e-11
-3.40302e-11
-1.41071e-16
1.50668e-11
-3.00864e-11
-1.09618e-16
1.17182e-11
-2.59783e-11
-8.58381e-17
8.77641e-12
-2.16703e-11
-4.56595e-17
6.25309e-12
-1.71501e-11
-2.06011e-17
4.16079e-12
-1.24579e-11
1.90111e-17
2.50731e-12
-7.73045e-12
3.83856e-17
1.29174e-12
-3.24765e-12
6.40075e-17
4.98764e-13
5.26156e-13
6.92076e-17
9.13277e-14
2.82298e-12
7.50507e-17
2.44993e-12
6.77864e-17
2.42983e-10
-2.68337e-10
-8.85532e-16
2.34849e-10
-2.52448e-10
-1.0808e-15
2.25324e-10
-2.36171e-10
-1.41983e-15
2.14736e-10
-2.1985e-10
-1.3209e-15
2.03386e-10
-2.03755e-10
-1.22619e-15
1.91551e-10
-1.88158e-10
-9.02805e-16
1.79471e-10
-1.73204e-10
-6.07024e-16
1.6735e-10
-1.59046e-10
-3.3698e-16
1.55358e-10
-1.4577e-10
-1.95549e-16
1.4363e-10
-1.33422e-10
-6.00179e-17
1.32268e-10
-1.22022e-10
1.47696e-17
1.21351e-10
-1.11565e-10
8.0489e-17
1.10926e-10
-1.02027e-10
8.40357e-17
1.01027e-10
-9.33604e-11
8.23508e-17
9.16687e-11
-8.55166e-11
5.0306e-17
8.28529e-11
-7.84316e-11
1.76756e-17
7.45751e-11
-7.20235e-11
-2.33327e-17
6.68164e-11
-6.62613e-11
-6.94436e-17
5.9562e-11
-6.10271e-11
-1.05817e-16
5.27876e-11
-5.62827e-11
-1.46331e-16
4.64733e-11
-5.19285e-11
-1.63279e-16
4.05985e-11
-4.78931e-11
-1.85556e-16
3.5141e-11
-4.41329e-11
-1.7657e-16
3.00873e-11
-4.05339e-11
-1.69974e-16
2.54227e-11
-3.70529e-11
-2.09708e-16
2.11405e-11
-3.36053e-11
-1.88364e-16
1.72374e-11
-3.01285e-11
-1.58415e-16
1.37137e-11
-2.65642e-11
-1.24899e-16
1.05766e-11
-2.28425e-11
-9.93894e-17
7.83562e-12
-1.89305e-11
-5.71892e-17
5.50231e-12
-1.48179e-11
-3.09186e-17
3.58826e-12
-1.05446e-11
1.06997e-17
2.09955e-12
-6.24228e-12
3.0472e-17
1.0321e-12
-2.1803e-12
5.83235e-17
3.6473e-13
1.19365e-12
6.48903e-17
5.00919e-14
3.13829e-12
7.37135e-17
2.50115e-12
6.86087e-17
2.48488e-10
-2.5975e-10
-8.83826e-16
2.38339e-10
-2.42308e-10
-1.09444e-15
2.27002e-10
-2.24847e-10
-1.4981e-15
2.14827e-10
-2.07686e-10
-1.38707e-15
2.02127e-10
-1.91065e-10
-1.28506e-15
1.89176e-10
-1.75214e-10
-9.30402e-16
1.76205e-10
-1.60238e-10
-6.00763e-16
1.63402e-10
-1.46246e-10
-3.12247e-16
1.50914e-10
-1.33284e-10
-1.46045e-16
1.38855e-10
-1.21363e-10
-1.17749e-17
1.27304e-10
-1.10472e-10
6.83385e-17
1.16316e-10
-1.00575e-10
1.22448e-16
1.05917e-10
-9.16278e-11
1.22289e-16
9.61223e-11
-8.35651e-11
1.08719e-16
8.69288e-11
-7.63226e-11
6.92125e-17
7.83236e-11
-6.98264e-11
2.62458e-17
7.02895e-11
-6.39888e-11
-2.29808e-17
6.27972e-11
-5.87695e-11
-7.64297e-17
5.58229e-11
-5.40531e-11
-1.18589e-16
4.93356e-11
-4.97963e-11
-1.62978e-16
4.33098e-11
-4.59035e-11
-1.82517e-16
3.77207e-11
-4.23049e-11
-2.05323e-16
3.25429e-11
-3.89563e-11
-1.94428e-16
2.77606e-11
-3.57525e-11
-1.87995e-16
2.33574e-11
-3.26516e-11
-2.30305e-16
1.93257e-11
-2.95754e-11
-2.06915e-16
1.56615e-11
-2.64659e-11
-1.72297e-16
1.23649e-11
-2.32692e-11
-1.35405e-16
9.44271e-12
-1.99218e-11
-1.07314e-16
6.9047e-12
-1.63937e-11
-6.3043e-17
4.76199e-12
-1.26763e-11
-3.61289e-17
3.02556e-12
-8.80888e-12
6.25836e-18
1.69999e-12
-4.91736e-12
2.49752e-17
7.78323e-13
-1.25883e-12
5.34652e-17
2.33964e-13
1.73803e-12
6.00243e-17
9.87932e-15
3.36299e-12
7.08002e-17
2.5121e-12
6.63689e-17
2.52419e-10
-2.48844e-10
-7.77466e-16
2.40187e-10
-2.30083e-10
-9.73928e-16
2.27031e-10
-2.11701e-10
-1.38641e-15
2.13312e-10
-1.93978e-10
-1.26349e-15
1.99344e-10
-1.77106e-10
-1.17869e-15
1.85387e-10
-1.61263e-10
-8.36209e-16
1.71652e-10
-1.46506e-10
-5.21623e-16
1.583e-10
-1.32897e-10
-2.44885e-16
1.45454e-10
-1.20439e-10
-8.64198e-17
1.33197e-10
-1.09106e-10
3.90396e-17
1.21582e-10
-9.88565e-11
1.09115e-16
1.10638e-10
-8.96298e-11
1.54291e-16
1.00371e-10
-8.13597e-11
1.44264e-16
9.07731e-11
-7.39668e-11
1.2364e-16
8.1826e-11
-6.73749e-11
7.52059e-17
7.35019e-11
-6.15023e-11
2.63124e-17
6.57718e-11
-5.62582e-11
-3.05036e-17
5.85967e-11
-5.15951e-11
-8.80297e-17
5.19452e-11
-4.74019e-11
-1.34782e-16
4.57804e-11
-4.36325e-11
-1.81008e-16
4.00721e-11
-4.01961e-11
-2.02093e-16
3.4792e-11
-3.70258e-11
-2.24599e-16
2.99126e-11
-3.40782e-11
-2.11944e-16
2.54165e-11
-3.12574e-11
-2.03284e-16
2.12862e-11
-2.85233e-11
-2.48048e-16
1.75135e-11
-2.58047e-11
-2.23238e-16
1.40944e-11
-2.30485e-11
-1.86064e-16
1.10291e-11
-2.02055e-11
-1.47603e-16
8.32432e-12
-1.72187e-11
-1.18007e-16
5.99006e-12
-1.40608e-11
-7.20235e-17
4.03741e-12
-1.07249e-11
-4.40899e-17
2.47686e-12
-7.24918e-12
-1.97213e-19
1.31175e-12
-3.75298e-12
1.84255e-17
5.32527e-13
-4.79893e-13
4.82078e-17
1.07639e-13
2.16285e-12
5.51557e-17
-2.89166e-14
3.50008e-12
6.77244e-17
2.48419e-12
6.45766e-17
2.54413e-10
-2.35527e-10
-8.2943e-16
2.40084e-10
-2.15762e-10
-1.02026e-15
2.25159e-10
-1.96788e-10
-1.40316e-15
2.09998e-10
-1.78827e-10
-1.28195e-15
1.94895e-10
-1.62013e-10
-1.16198e-15
1.80086e-10
-1.4646e-10
-8.18829e-16
1.65751e-10
-1.32174e-10
-4.80392e-16
1.52016e-10
-1.19165e-10
-2.12939e-16
1.38971e-10
-1.07394e-10
-4.36788e-17
1.26666e-10
-9.68011e-11
6.72584e-17
1.15125e-10
-8.73148e-11
1.35796e-16
1.0435e-10
-7.88527e-11
1.66643e-16
9.43228e-11
-7.13318e-11
1.52177e-16
8.50173e-11
-6.46608e-11
1.22399e-16
7.63983e-11
-5.87553e-11
6.96809e-17
6.84249e-11
-5.3529e-11
1.5292e-17
6.1057e-11
-4.88899e-11
-4.53141e-17
5.42478e-11
-4.47865e-11
-1.05568e-16
4.79589e-11
-4.11135e-11
-1.54198e-16
4.21489e-11
-3.78237e-11
-2.00924e-16
3.6784e-11
-3.48323e-11
-2.21982e-16
3.18336e-11
-3.20767e-11
-2.43341e-16
2.7269e-11
-2.9515e-11
-2.28358e-16
2.30714e-11
-2.70611e-11
-2.19039e-16
1.92234e-11
-2.46774e-11
-2.63043e-16
1.57166e-11
-2.23e-11
-2.36776e-16
1.25471e-11
-1.98809e-11
-1.96368e-16
9.71571e-12
-1.73759e-11
-1.55486e-16
7.22944e-12
-1.47341e-11
-1.23857e-16
5.09851e-12
-1.19313e-11
-7.62524e-17
3.33417e-12
-8.96194e-12
-4.78303e-17
1.94664e-12
-5.86254e-12
-3.47372e-18
9.3819e-13
-2.74533e-12
1.39089e-17
2.96999e-13
1.60937e-13
4.37225e-17
-1.29626e-14
2.47265e-12
4.99924e-17
-6.58536e-14
3.55341e-12
6.3549e-17
2.41926e-12
6.04829e-17
2.54071e-10
-2.19788e-10
-4.86832e-16
2.37714e-10
-1.9941e-10
-7.16136e-16
2.21148e-10
-1.80231e-10
-1.20075e-15
2.0471e-10
-1.62399e-10
-1.09598e-15
1.88664e-10
-1.45975e-10
-1.02817e-15
1.73205e-10
-1.31006e-10
-7.06941e-16
1.58471e-10
-1.17442e-10
-4.01795e-16
1.44547e-10
-1.05243e-10
-1.52774e-16
1.31484e-10
-9.43311e-11
-3.88485e-18
1.19296e-10
-8.46128e-11
9.47644e-17
1.07976e-10
-7.59934e-11
1.46185e-16
9.74972e-11
-6.8373e-11