/*--------------------------------*- C++ -*----------------------------------*\
| =========                 |                                                 |
| \\      /  F ield         | OpenFOAM: The Open Source CFD Toolbox           |
|  \\    /   O peration     | Version:  v2012                                 |
|   \\  /    A nd           | Website:  www.openfoam.com                      |
|    \\/     M anipulation  |                                                 |
\*---------------------------------------------------------------------------*/
FoamFile
{
    version     2.0;
    format      ascii;
    class       volVectorField;
    location    "0.25";
    object      U;
}
// * * * * * * * * * * * * * * * * * * * * * * * * * * * * * * * * * * * * * //

dimensions      [0 1 -1 0 0 0 0];


internalField   nonuniform List<vector> 
2664
(
(0.00505644 -0.00946085 -4.41334e-05)
(0.00502578 -0.00890986 -4.38662e-05)
(0.00496301 -0.00835418 -4.33188e-05)
(0.0048702 -0.00779913 -4.25091e-05)
(0.00474942 -0.00724982 -4.14552e-05)
(0.00460321 -0.00671092 -4.01792e-05)
(0.00443438 -0.00618668 -3.87059e-05)
(0.00424609 -0.00568082 -3.70627e-05)
(0.00404163 -0.00519644 -3.52783e-05)
(0.00382441 -0.00473604 -3.33825e-05)
(0.0035978 -0.00430148 -3.14047e-05)
(0.00336508 -0.00389401 -2.93737e-05)
(0.00312936 -0.00351431 -2.73164e-05)
(0.00289348 -0.0031625 -2.52577e-05)
(0.00266001 -0.00283826 -2.322e-05)
(0.0024312 -0.00254085 -2.1223e-05)
(0.002209 -0.00226924 -1.92837e-05)
(0.001995 -0.00202208 -1.74158e-05)
(0.00179046 -0.00179785 -1.56305e-05)
(0.00159636 -0.0015949 -1.39362e-05)
(0.00141341 -0.00141152 -1.23393e-05)
(0.00124211 -0.00124599 -1.0844e-05)
(0.00108267 -0.00109657 -9.45221e-06)
(0.000935161 -0.000961606 -8.16456e-06)
(0.000799544 -0.000839514 -6.98067e-06)
(0.000675633 -0.000728818 -5.89895e-06)
(0.000563152 -0.000628169 -4.91699e-06)
(0.000461765 -0.000536337 -4.03188e-06)
(0.000371121 -0.000452267 -3.24054e-06)
(0.000290859 -0.000375094 -2.53981e-06)
(0.000220627 -0.000304168 -1.92665e-06)
(0.000160108 -0.000239118 -1.39825e-06)
(0.000109089 -0.000179892 -9.52801e-07)
(6.73867e-05 -0.00012676 -5.88666e-07)
(3.51395e-05 -8.02373e-05 -3.07063e-07)
(1.23874e-05 -4.10844e-05 -1.0843e-07)
(5.01736e-07 -1.0252e-05 -6.23831e-09)
(0.00536324 -0.00971805 -4.68113e-05)
(0.00531443 -0.00912163 -4.63858e-05)
(0.00523164 -0.00852354 -4.56636e-05)
(0.00511739 -0.0079295 -4.46668e-05)
(0.00497427 -0.00734488 -4.3418e-05)
(0.0048053 -0.00677454 -4.19434e-05)
(0.00461373 -0.00622277 -4.02716e-05)
(0.00440316 -0.00569327 -3.84339e-05)
(0.00417724 -0.00518903 -3.64621e-05)
(0.0039397 -0.00471233 -3.43889e-05)
(0.00369416 -0.0042648 -3.22459e-05)
(0.00344408 -0.00384739 -3.00634e-05)
(0.00319269 -0.00346044 -2.78693e-05)
(0.00294289 -0.00310375 -2.56891e-05)
(0.00269725 -0.00277666 -2.35452e-05)
(0.00245798 -0.00247809 -2.14568e-05)
(0.00222695 -0.00220671 -1.94404e-05)
(0.00200563 -0.00196088 -1.75087e-05)
(0.00179517 -0.00173883 -1.56717e-05)
(0.00159641 -0.0015387 -1.39367e-05)
(0.0014099 -0.00135857 -1.23087e-05)
(0.00123601 -0.00119659 -1.07908e-05)
(0.0010748 -0.00105087 -9.38353e-06)
(0.000926214 -0.000919662 -8.08648e-06)
(0.000790097 -0.000801309 -6.89823e-06)
(0.000666153 -0.000694277 -5.8162e-06)
(0.000554011 -0.000597179 -4.8372e-06)
(0.000453253 -0.000508762 -3.95757e-06)
(0.000363457 -0.000427959 -3.17362e-06)
(0.000284198 -0.000353905 -2.48165e-06)
(0.000215069 -0.000285955 -1.8781e-06)
(0.000155699 -0.000223753 -1.35975e-06)
(0.000105826 -0.000167269 -9.24283e-07)
(6.5207e-05 -0.00011681 -5.69612e-07)
(3.39149e-05 -7.29426e-05 -2.9635e-07)
(1.19198e-05 -3.65154e-05 -1.04329e-07)
(4.74002e-07 -8.61119e-06 -5.9279e-09)
(0.00568753 -0.00997609 -4.9642e-05)
(0.00561765 -0.00933101 -4.90326e-05)
(0.00551189 -0.0086879 -4.81099e-05)
(0.00537338 -0.00805284 -4.69014e-05)
(0.00520529 -0.00743145 -4.54346e-05)
(0.00501116 -0.00682871 -4.37404e-05)
(0.00479474 -0.00624893 -4.18518e-05)
(0.00456008 -0.00569569 -3.98037e-05)
(0.0043112 -0.00517179 -3.76315e-05)
(0.00405214 -0.00467928 -3.53705e-05)
(0.00378677 -0.00421943 -3.30544e-05)
(0.0035187 -0.00379286 -3.07148e-05)
(0.00325125 -0.00339953 -2.83805e-05)
(0.00298734 -0.00303884 -2.60772e-05)
(0.00272951 -0.00270975 -2.38269e-05)
(0.0024799 -0.00241085 -2.16483e-05)
(0.00224026 -0.00214047 -1.95567e-05)
(0.00201194 -0.00189666 -1.75638e-05)
(0.00179591 -0.00167741 -1.56782e-05)
(0.00159286 -0.00148063 -1.39058e-05)
(0.00140318 -0.00130422 -1.22501e-05)
(0.00122708 -0.00114617 -1.07129e-05)
(0.00106447 -0.00100448 -9.29339e-06)
(0.000915157 -0.000877291 -7.99e-06)
(0.000778862 -0.000762889 -6.80017e-06)
(0.000655176 -0.000659691 -5.72039e-06)
(0.000543634 -0.000566275 -4.74662e-06)
(0.000443736 -0.000481371 -3.87448e-06)
(0.000354988 -0.000403906 -3.09968e-06)
(0.000276906 -0.000333016 -2.41797e-06)
(0.000209029 -0.000268066 -1.82535e-06)
(0.000150936 -0.000208718 -1.31814e-06)
(0.000102314 -0.000154964 -8.93597e-07)
(6.28676e-05 -0.000107147 -5.49161e-07)
(3.26018e-05 -6.58832e-05 -2.84862e-07)
(1.14178e-05 -3.2107e-05 -9.99261e-08)
(4.43849e-07 -7.02976e-06 -5.59059e-09)
(0.00602992 -0.0102331 -5.26306e-05)
(0.0059355 -0.00953607 -5.18071e-05)
(0.00580347 -0.00884533 -5.06552e-05)
(0.00563759 -0.0081673 -4.92078e-05)
(0.00544167 -0.00750779 -4.74981e-05)
(0.00521983 -0.00687187 -4.55621e-05)
(0.00497637 -0.00626376 -4.34373e-05)
(0.00471576 -0.0056869 -4.11628e-05)
(0.00444243 -0.00514378 -3.87771e-05)
(0.0041607 -0.00463612 -3.63182e-05)
(0.00387466 -0.00416481 -3.38217e-05)
(0.00358806 -0.00373002 -3.13203e-05)
(0.00330425 -0.00333129 -2.88433e-05)
(0.00302614 -0.00296759 -2.6416e-05)
(0.00275622 -0.00263747 -2.40601e-05)
(0.00249648 -0.00233913 -2.17931e-05)
(0.00224856 -0.00207056 -1.96292e-05)
(0.0020136 -0.00182951 -1.75784e-05)
(0.00179243 -0.0016137 -1.56478e-05)
(0.00158553 -0.00142082 -1.38419e-05)
(0.00139312 -0.0012486 -1.21624e-05)
(0.00121523 -0.00109486 -1.06095e-05)
(0.00105162 -0.000957506 -9.1813e-06)
(0.000901957 -0.000834596 -7.8748e-06)
(0.000765821 -0.000724348 -6.68635e-06)
(0.000642697 -0.000625139 -5.61147e-06)
(0.000532024 -0.000535522 -4.64528e-06)
(0.000433221 -0.000454218 -3.78269e-06)
(0.000345726 -0.00038015 -3.01881e-06)
(0.000268996 -0.000312461 -2.3489e-06)
(0.000202519 -0.000250531 -1.7685e-06)
(0.000145829 -0.000194037 -1.27352e-06)
(9.85614e-05 -0.000142999 -8.6081e-07)
(6.03736e-05 -9.77892e-05 -5.27361e-07)
(3.1203e-05 -5.90769e-05 -2.72627e-07)
(1.08823e-05 -2.78744e-05 -9.523e-08)
(4.12177e-07 -5.51819e-06 -5.22944e-09)
(0.00639053 -0.0104869 -5.57783e-05)
(0.00626779 -0.00973454 -5.47077e-05)
(0.00610585 -0.0089936 -5.32947e-05)
(0.00590923 -0.00827076 -5.1579e-05)
(0.00568242 -0.00757199 -4.95997e-05)
(0.00543019 -0.00690232 -4.73984e-05)
(0.00515738 -0.00626583 -4.50175e-05)
(0.00486895 -0.00566568 -4.25001e-05)
(0.0045697 -0.00510401 -3.98882e-05)
(0.00426422 -0.00458209 -3.7222e-05)
(0.00395678 -0.00410035 -3.45386e-05)
(0.0036512 -0.00365846 -3.18716e-05)
(0.00335086 -0.00325547 -2.92502e-05)
(0.0030586 -0.00288987 -2.66994e-05)
(0.00277677 -0.00255976 -2.42396e-05)
(0.00250724 -0.00226295 -2.18871e-05)
(0.00225144 -0.00199706 -1.96544e-05)
(0.00201033 -0.00175953 -1.75498e-05)
(0.0017845 -0.00154782 -1.55787e-05)
(0.00157425 -0.0013594 -1.37435e-05)
(0.0013796 -0.00119183 -1.20444e-05)
(0.00120039 -0.00104279 -1.048e-05)
(0.00103621 -0.00091008 -9.04685e-06)
(0.00088659 -0.00079169 -7.74068e-06)
(0.000750968 -0.000685784 -6.55672e-06)
(0.000628722 -0.000590708 -5.48949e-06)
(0.000519194 -0.000504997 -4.53328e-06)
(0.000421726 -0.000427366 -3.68233e-06)
(0.000335688 -0.000356745 -2.93117e-06)
(0.000260484 -0.000292287 -2.27458e-06)
(0.000195555 -0.000233387 -1.70767e-06)
(0.000140388 -0.000179743 -1.226e-06)
(9.4578e-05 -0.000131397 -8.26006e-07)
(5.77315e-05 -8.87582e-05 -5.04267e-07)
(2.97224e-05 -5.25391e-05 -2.59676e-07)
(1.03148e-05 -2.38284e-05 -9.02534e-08)
(3.78514e-07 -4.0804e-06 -4.84405e-09)
(0.00676946 -0.0107349 -5.9086e-05)
(0.00661409 -0.00992387 -5.77305e-05)
(0.00641821 -0.00913023 -5.60214e-05)
(0.00618718 -0.00836093 -5.40053e-05)
(0.00592622 -0.00762196 -5.1728e-05)
(0.0056408 -0.00691824 -4.92369e-05)
(0.00533632 -0.00625359 -4.65796e-05)
(0.00501822 -0.00563079 -4.38033e-05)
(0.00469164 -0.0050515 -4.09528e-05)
(0.00436143 -0.00451646 -3.80707e-05)
(0.00403196 -0.00402554 -3.51951e-05)
(0.00370712 -0.00357785 -3.23598e-05)
(0.00339021 -0.00317188 -2.95938e-05)
(0.00308396 -0.0028056 -2.69209e-05)
(0.00279058 -0.00247665 -2.43602e-05)
(0.0025117 -0.00218239 -2.19261e-05)
(0.00224855 -0.00192009 -1.96292e-05)
(0.00200183 -0.00168687 -1.74757e-05)
(0.00177192 -0.00147993 -1.5469e-05)
(0.00155889 -0.00129653 -1.36094e-05)
(0.00136253 -0.00113407 -1.18954e-05)
(0.0011825 -0.0009901 -1.03239e-05)
(0.00101822 -0.000862334 -8.88978e-06)
(0.000869048 -0.000748693 -7.58758e-06)
(0.00073431 -0.000647304 -6.41133e-06)
(0.000613265 -0.000556488 -5.35457e-06)
(0.000505165 -0.000474775 -4.41082e-06)
(0.000409272 -0.000400882 -3.57361e-06)
(0.000324898 -0.000333747 -2.83696e-06)
(0.000251393 -0.000272538 -2.19519e-06)
(0.000188154 -0.000216671 -1.64304e-06)
(0.000134631 -0.000165864 -1.17571e-06)
(9.0375e-05 -0.000120186 -7.89284e-07)
(5.4949e-05 -8.00741e-05 -4.79947e-07)
(2.81641e-05 -4.62862e-05 -2.46047e-07)
(9.71694e-06 -1.99807e-05 -8.5011e-08)
(3.42657e-07 -2.72203e-06 -4.43343e-09)
(0.00716647 -0.0109742 -6.25516e-05)
(0.00697367 -0.0101011 -6.08694e-05)
(0.00673946 -0.00925243 -5.88257e-05)
(0.00647005 -0.00843524 -5.64746e-05)
(0.00617151 -0.00765544 -5.38693e-05)
(0.00584999 -0.0069177 -5.10632e-05)
(0.0055115 -0.00622546 -4.8109e-05)
(0.00516193 -0.00558095 -4.50579e-05)
(0.00480672 -0.00498527 -4.19575e-05)
(0.00445092 -0.00443852 -3.8852e-05)
(0.00409897 -0.0039399 -3.57802e-05)
(0.00375473 -0.0034879 -3.27755e-05)
(0.00342138 -0.00308038 -2.98661e-05)
(0.0031015 -0.00271477 -2.7074e-05)
(0.00279703 -0.00238819 -2.44166e-05)
(0.00250939 -0.00209758 -2.1906e-05)
(0.00223951 -0.00183981 -1.95504e-05)
(0.00198784 -0.00161171 -1.73537e-05)
(0.0017545 -0.00141022 -1.5317e-05)
(0.0015393 -0.0012324 -1.34385e-05)
(0.00134183 -0.0010755 -1.17148e-05)
(0.00116152 -0.000936957 -1.01408e-05)
(0.000997617 -0.000814412 -8.70999e-06)
(0.000849337 -0.000705732 -7.41555e-06)
(0.000715866 -0.000609016 -6.25034e-06)
(0.000596354 -0.000522575 -5.20696e-06)
(0.000489966 -0.000444937 -4.27813e-06)
(0.000395891 -0.00037483 -3.4568e-06)
(0.000313383 -0.000311208 -2.73643e-06)
(0.000241747 -0.000253259 -2.11096e-06)
(0.000180339 -0.000200419 -1.57479e-06)
(0.000128574 -0.000152432 -1.12281e-06)
(8.59656e-05 -0.000109388 -7.5076e-07)
(5.20351e-05 -7.17556e-05 -4.54478e-07)
(2.65333e-05 -4.03324e-05 -2.31784e-07)
(9.0906e-06 -1.63411e-05 -7.95195e-08)
(3.04636e-07 -1.44744e-06 -3.99909e-09)
(0.00758092 -0.0112012 -6.61693e-05)
(0.00734539 -0.0102628 -6.41143e-05)
(0.00706802 -0.00935705 -6.16939e-05)
(0.00675603 -0.00849088 -5.89712e-05)
(0.00641631 -0.00767 -5.60063e-05)
(0.00605576 -0.00689868 -5.28596e-05)
(0.00568097 -0.00617978 -4.95885e-05)
(0.00529822 -0.0055149 -4.62477e-05)
(0.00491324 -0.0049044 -4.28875e-05)
(0.00453117 -0.00434763 -3.95527e-05)
(0.00415649 -0.00384304 -3.62824e-05)
(0.00379291 -0.0033884 -3.3109e-05)
(0.00344346 -0.00298092 -3.00589e-05)
(0.00311044 -0.00261744 -2.71522e-05)
(0.00279553 -0.00229453 -2.44036e-05)
(0.00249984 -0.00200869 -2.18227e-05)
(0.00222399 -0.00175643 -1.9415e-05)
(0.00196812 -0.00153427 -1.71816e-05)
(0.00173208 -0.0013389 -1.51213e-05)
(0.0015154 -0.00116721 -1.323e-05)
(0.00131744 -0.0010163 -1.15019e-05)
(0.00113742 -0.000883532 -9.9305e-06)
(0.000974419 -0.000766465 -8.50752e-06)
(0.000827481 -0.000662938 -7.22478e-06)
(0.000695668 -0.000571034 -6.07404e-06)
(0.000578026 -0.000489062 -5.04697e-06)
(0.000473636 -0.000415562 -4.13558e-06)
(0.00038162 -0.000349277 -3.33221e-06)
(0.00030118 -0.000289183 -2.62989e-06)
(0.000231577 -0.000234494 -2.02217e-06)
(0.000172136 -0.000184667 -1.50315e-06)
(0.000122239 -0.000139473 -1.06747e-06)
(8.13651e-05 -9.90257e-05 -7.10567e-07)
(4.89998e-05 -6.38203e-05 -4.27951e-07)
(2.48357e-05 -3.46912e-05 -2.16937e-07)
(8.43799e-06 -1.29189e-05 -7.37982e-08)
(2.64585e-07 -2.60702e-07 -3.54249e-09)
(0.00801183 -0.0114117 -6.99309e-05)
(0.00772768 -0.0104052 -6.74515e-05)
(0.00740197 -0.00944058 -6.46092e-05)
(0.0070429 -0.00852479 -6.14755e-05)
(0.00665831 -0.00766306 -5.81191e-05)
(0.00625579 -0.00685906 -5.46059e-05)
(0.00584248 -0.00611492 -5.09986e-05)
(0.00542501 -0.00543141 -4.73548e-05)
(0.00500931 -0.00480802 -4.37263e-05)
(0.00460056 -0.00424322 -4.01586e-05)
(0.0042031 -0.00373464 -3.66894e-05)
(0.0038205 -0.00327925 -3.33499e-05)
(0.00345548 -0.00287354 -3.01639e-05)
(0.00311004 -0.00251373 -2.71488e-05)
(0.0027855 -0.00219586 -2.43162e-05)
(0.00248262 -0.00191598 -2.16725e-05)
(0.00220167 -0.00167022 -1.92202e-05)
(0.00194246 -0.00145481 -1.69577e-05)
(0.00170452 -0.00126623 -1.48808e-05)
(0.00148711 -0.0011012 -1.29831e-05)
(0.00128934 -0.000956696 -1.12567e-05)
(0.00111023 -0.000830009 -9.69313e-06)
(0.000948651 -0.000718655 -8.28261e-06)
(0.000803518 -0.000620451 -7.01563e-06)
(0.000673762 -0.000533475 -5.88283e-06)
(0.00055833 -0.000456049 -4.87505e-06)
(0.000456224 -0.00038673 -3.98358e-06)
(0.000366506 -0.000324288 -3.20025e-06)
(0.000288329 -0.000267726 -2.51768e-06)
(0.00022092 -0.000216283 -1.92911e-06)
(0.000163573 -0.000169448 -1.42838e-06)
(0.000115647 -0.000127014 -1.0099e-06)
(7.65906e-05 -8.91198e-05 -6.68854e-07)
(4.58547e-05 -5.62845e-05 -4.00464e-07)
(2.30776e-05 -2.9375e-05 -2.01563e-07)
(7.76157e-06 -9.72259e-06 -6.78685e-08)
(2.22655e-07 8.34431e-07 -3.06543e-09)
(0.00845731 -0.0116009 -7.38197e-05)
(0.00811824 -0.0105237 -7.08609e-05)
(0.00773864 -0.00949916 -6.75482e-05)
(0.00732789 -0.00853367 -6.39635e-05)
(0.0068947 -0.0076319 -6.01828e-05)
(0.00644737 -0.0067967 -5.62785e-05)
(0.0059935 -0.00602925 -5.23171e-05)
(0.00554002 -0.00532931 -4.8359e-05)
(0.00509293 -0.00469535 -4.44564e-05)
(0.00465732 -0.00412486 -4.06542e-05)
(0.00423736 -0.00361451 -3.69886e-05)
(0.00383629 -0.00316043 -3.34879e-05)
(0.00345649 -0.00275836 -3.01729e-05)
(0.00309955 -0.00240387 -2.70574e-05)
(0.00276639 -0.00209247 -2.41494e-05)
(0.00245734 -0.00181974 -2.14519e-05)
(0.00217229 -0.00158147 -1.89638e-05)
(0.00191069 -0.00137363 -1.66804e-05)
(0.00167173 -0.00119248 -1.45946e-05)
(0.0014544 -0.00103461 -1.26975e-05)
(0.00125754 -0.000896903 -1.09791e-05)
(0.00107996 -0.000776585 -9.42891e-06)
(0.00092036 -0.000671151 -8.03568e-06)
(0.000777507 -0.000578412 -6.78859e-06)
(0.000650212 -0.000496457 -5.67727e-06)
(0.000537329 -0.000423632 -4.69172e-06)
(0.000437789 -0.000358522 -3.82265e-06)
(0.0003506 -0.000299928 -3.0614e-06)
(0.000274876 -0.000246887 -2.40023e-06)
(0.000209814 -0.00019867 -1.83213e-06)
(0.000154685 -0.000154795 -1.35075e-06)
(0.000108825 -0.000115081 -9.50314e-07)
(7.16609e-05 -7.96896e-05 -6.25787e-07)
(4.26124e-05 -4.91628e-05 -3.72127e-07)
(2.12664e-05 -2.43947e-05 -1.85724e-07)
(7.06408e-06 -6.75974e-06 -6.17545e-08)
(1.79005e-07 1.83461e-06 -2.56972e-09)
(0.00891513 -0.0117637 -7.78163e-05)
(0.00851417 -0.0106138 -7.43173e-05)
(0.00807489 -0.00952865 -7.04837e-05)
(0.00760768 -0.00851406 -6.64062e-05)
(0.00712222 -0.00757375 -6.21691e-05)
(0.00662738 -0.00670946 -5.78502e-05)
(0.0061312 -0.00592121 -5.35194e-05)
(0.00564071 -0.00520754 -4.92382e-05)
(0.00516189 -0.00456576 -4.50587e-05)
(0.00469963 -0.00399222 -4.10238e-05)
(0.00425775 -0.00348258 -3.71668e-05)
(0.00383909 -0.00303207 -3.35125e-05)
(0.00344556 -0.00263564 -3.00776e-05)
(0.00307828 -0.00228819 -2.68718e-05)
(0.00273769 -0.00198471 -2.3899e-05)
(0.00242364 -0.00172034 -2.11578e-05)
(0.00213562 -0.00149055 -1.86438e-05)
(0.00187267 -0.00129106 -1.63486e-05)
(0.00163365 -0.00111797 -1.42623e-05)
(0.00141725 -0.000967727 -1.23733e-05)
(0.00122206 -0.000837161 -1.06694e-05)
(0.00104667 -0.000723465 -9.13836e-06)
(0.000889617 -0.000624126 -7.76734e-06)
(0.000749525 -0.000536966 -6.54434e-06)
(0.000625095 -0.000460102 -5.45802e-06)
(0.000515096 -0.000391911 -4.49765e-06)
(0.000418399 -0.000331016 -3.65338e-06)
(0.000333966 -0.000276259 -2.91617e-06)
(0.000260876 -0.000226716 -2.278e-06)
(0.000198305 -0.000181692 -1.73164e-06)
(0.000145507 -0.000140736 -1.2706e-06)
(0.000101802 -0.000103696 -8.8897e-07)
(6.6597e-05 -7.07524e-05 -5.81547e-07)
(3.92866e-05 -4.24683e-05 -3.43063e-07)
(1.94096e-05 -1.976e-05 -1.69488e-07)
(6.34851e-06 -4.03685e-06 -5.54825e-08)
(1.33814e-07 2.7369e-06 -2.05742e-09)
(0.00938176 -0.0118937 -8.18898e-05)
(0.00891169 -0.0106699 -7.77876e-05)
(0.00840665 -0.00952451 -7.338e-05)
(0.0078783 -0.00846231 -6.87687e-05)
(0.00733703 -0.00748577 -6.40446e-05)
(0.00679233 -0.00659526 -5.92904e-05)
(0.00625242 -0.00578936 -5.45779e-05)
(0.00572436 -0.00506522 -4.99687e-05)
(0.0052139 -0.00441879 -4.55129e-05)
(0.00472558 -0.00384518 -4.12505e-05)
(0.00426274 -0.00333898 -3.72106e-05)
(0.0038277 -0.00289444 -3.34133e-05)
(0.0034218 -0.00250574 -2.98703e-05)
(0.00304558 -0.00216712 -2.65865e-05)
(0.00269894 -0.00187303 -2.35609e-05)
(0.00238125 -0.00161823 -2.07878e-05)
(0.00209149 -0.00139788 -1.82587e-05)
(0.00182834 -0.00120749 -1.59617e-05)
(0.00159028 -0.00104302 -1.38837e-05)
(0.00137571 -0.000900838 -1.20107e-05)
(0.00118297 -0.000777724 -1.03283e-05)
(0.00101045 -0.000670864 -8.82223e-06)
(0.000856518 -0.00057776 -7.47843e-06)
(0.000719668 -0.000496263 -6.28373e-06)
(0.000598503 -0.000424529 -5.2259e-06)
(0.000491718 -0.000360981 -4.29357e-06)
(0.000398132 -0.00030429 -3.47646e-06)
(0.00031667 -0.000253344 -2.76518e-06)
(0.000246387 -0.00020726 -2.15149e-06)
(0.000186442 -0.000165385 -1.62806e-06)
(0.000136078 -0.0001273 -1.18827e-06)
(9.46081e-05 -9.28787e-05 -8.26135e-07)
(6.14212e-05 -6.23234e-05 -5.36331e-07)
(3.58925e-05 -3.62121e-05 -3.13402e-07)
(1.75159e-05 -1.54789e-05 -1.52929e-07)
(5.61816e-06 -1.55937e-06 -4.90814e-08)
(8.7271e-08 3.53882e-06 -1.53074e-09)
(0.00985292 -0.0119842 -8.6003e-05)
(0.00930598 -0.0106863 -8.12298e-05)
(0.00872914 -0.00948207 -7.61955e-05)
(0.00813501 -0.00837475 -7.101e-05)
(0.00753479 -0.00736523 -6.57713e-05)
(0.00693827 -0.00645218 -6.05646e-05)
(0.00635373 -0.00563248 -5.54626e-05)
(0.00578804 -0.00490167 -5.05248e-05)
(0.00524654 -0.00425418 -4.57981e-05)
(0.00473323 -0.00368381 -4.13175e-05)
(0.00425083 -0.00318399 -3.71068e-05)
(0.00380099 -0.00274799 -3.31803e-05)
(0.00338437 -0.00236919 -2.95437e-05)
(0.00300088 -0.00204119 -2.61963e-05)
(0.00264979 -0.00175796 -2.31319e-05)
(0.00232993 -0.00151391 -2.03399e-05)
(0.00203982 -0.00130392 -1.78076e-05)
(0.00177768 -0.00112333 -1.55195e-05)
(0.00154167 -0.000968004 -1.34594e-05)
(0.00132987 -0.000834256 -1.16106e-05)
(0.00114039 -0.000718856 -9.9566e-06)
(0.000971421 -0.000619002 -8.48156e-06)
(0.000821184 -0.000532233 -7.17e-06)
(0.000688053 -0.000456449 -6.00776e-06)
(0.000570546 -0.000389857 -4.98185e-06)
(0.000467295 -0.000330939 -4.08037e-06)
(0.000377077 -0.000278419 -3.29265e-06)
(0.000298791 -0.000231239 -2.60908e-06)
(0.000231475 -0.000188565 -2.02129e-06)
(0.000174279 -0.000149784 -1.52185e-06)
(0.000126444 -0.000114512 -1.10413e-06)
(8.72765e-05 -8.26488e-05 -7.62101e-07)
(5.61581e-05 -5.44158e-05 -4.90353e-07)
(3.24463e-05 -3.04035e-05 -2.83286e-07)
(1.55945e-05 -1.15579e-05 -1.36129e-07)
(4.87661e-06 6.68431e-07 -4.25825e-08)
(3.95908e-08 4.23836e-06 -9.92131e-10)
(0.0103227 -0.0120276 -9.01037e-05)
(0.00969112 -0.0106569 -8.45922e-05)
(0.00903646 -0.00939641 -7.88786e-05)
(0.00837239 -0.00824768 -7.30826e-05)
(0.00771054 -0.00720951 -6.73058e-05)
(0.00706085 -0.0062785 -6.16351e-05)
(0.00643142 -0.0054496 -5.61412e-05)
(0.00582868 -0.00471648 -5.08799e-05)
(0.00525733 -0.00407197 -4.58926e-05)
(0.00472064 -0.00350844 -4.12079e-05)
(0.00422055 -0.00301813 -3.68427e-05)
(0.00375788 -0.00259333 -3.28041e-05)
(0.00333253 -0.00222664 -2.90914e-05)
(0.00294368 -0.00191107 -2.56971e-05)
(0.00258994 -0.00164015 -2.26095e-05)
(0.00226957 -0.00140795 -1.98131e-05)
(0.00198057 -0.00120918 -1.72905e-05)
(0.00172075 -0.00103903 -1.50226e-05)
(0.00148792 -0.000893304 -1.29902e-05)
(0.00127986 -0.000768308 -1.11741e-05)
(0.00109446 -0.000660828 -9.55569e-06)
(0.000929732 -0.000568103 -8.11767e-06)
(0.00078376 -0.000487729 -6.84333e-06)
(0.000654818 -0.000417671 -5.71765e-06)
(0.000541349 -0.000356204 -4.72699e-06)
(0.000441938 -0.000301876 -3.85901e-06)
(0.000355331 -0.000253474 -3.10281e-06)
(0.000280411 -0.000210001 -2.44862e-06)
(0.000216209 -0.000170672 -1.888e-06)
(0.000161874 -0.000134918 -1.41353e-06)
(0.000116648 -0.000102393 -1.01859e-06)
(7.98434e-05 -7.30213e-05 -6.9718e-07)
(5.08338e-05 -4.70401e-05 -4.4384e-07)
(2.89655e-05 -2.50496e-05 -2.52868e-07)
(1.36553e-05 -8.00165e-06 -1.19173e-07)
(4.12774e-06 2.64354e-06 -3.60198e-08)
(-8.99237e-09 4.83404e-06 -4.44294e-10)
(0.0107839 -0.0120161 -9.41301e-05)
(0.0100598 -0.0105752 -8.78113e-05)
(0.00932183 -0.00926268 -8.13702e-05)
(0.00858414 -0.00807762 -7.49316e-05)
(0.00785874 -0.00701628 -6.86001e-05)
(0.00715534 -0.00607288 -6.24604e-05)
(0.00648157 -0.0052401 -5.65794e-05)
(0.00584311 -0.00450962 -5.10062e-05)
(0.0052438 -0.00387251 -4.57748e-05)
(0.00468595 -0.00331968 -4.09053e-05)
(0.00417053 -0.00284214 -3.64062e-05)
(0.00369743 -0.00243126 -3.22766e-05)
(0.00326567 -0.0020789 -2.85078e-05)
(0.00287363 -0.00177753 -2.50858e-05)
(0.00251924 -0.00152029 -2.19924e-05)
(0.00220013 -0.001301 -1.9207e-05)
(0.00191382 -0.00111422 -1.67079e-05)
(0.00165769 -0.000955066 -1.44721e-05)
(0.00142919 -0.000819327 -1.24776e-05)
(0.00122587 -0.000703331 -1.07028e-05)
(0.00104537 -0.000603917 -9.1272e-06)
(0.000885568 -0.000518391 -7.73216e-06)
(0.00074442 -0.000444428 -6.49993e-06)
(0.000620121 -0.000380074 -5.41477e-06)
(0.000511054 -0.000323683 -4.46253e-06)
(0.000415772 -0.00027388 -3.63059e-06)
(0.000333002 -0.000229524 -2.90787e-06)
(0.000261622 -0.000189679 -2.28458e-06)
(0.000200665 -0.000153618 -1.75229e-06)
(0.000149289 -0.000120816 -1.30364e-06)
(0.000106743 -9.09634e-05 -9.32088e-07)
(7.23472e-05 -6.40089e-05 -6.31708e-07)
(4.54764e-05 -4.02044e-05 -3.97039e-07)
(2.54689e-05 -2.01552e-05 -2.22313e-07)
(1.17091e-05 -4.81285e-06 -1.02157e-07)
(3.3758e-06 4.36431e-06 -2.94307e-08)
(-5.82084e-08 5.32497e-06 1.0969e-10)
(0.0112273 -0.011941 -9.8002e-05)
(0.0104035 -0.0104347 -9.08122e-05)
(0.00957725 -0.00907616 -8.36004e-05)
(0.00876327 -0.00786137 -7.64958e-05)
(0.00797337 -0.00678365 -6.96012e-05)
(0.00721673 -0.00583441 -6.29967e-05)
(0.00650011 -0.00500385 -5.67416e-05)
(0.00582814 -0.00428146 -5.08759e-05)
(0.00520353 -0.00365652 -4.54235e-05)
(0.00462739 -0.00311843 -4.03944e-05)
(0.00409955 -0.00265705 -3.57868e-05)
(0.00361884 -0.00226282 -3.15907e-05)
(0.00318332 -0.00192696 -2.77891e-05)
(0.00279051 -0.00164147 -2.43604e-05)
(0.00243764 -0.00139919 -2.12802e-05)
(0.0021217 -0.00119376 -1.85225e-05)
(0.00183973 -0.00101964 -1.60612e-05)
(0.00158869 -0.000871945 -1.38699e-05)
(0.00136573 -0.00074649 -1.19237e-05)
(0.00116813 -0.000639669 -1.01988e-05)
(0.000993359 -0.000548402 -8.67317e-06)
(0.000839146 -0.000470091 -7.32694e-06)
(0.000703363 -0.000402508 -6.14154e-06)
(0.000584139 -0.000343796 -5.10067e-06)
(0.000479818 -0.000292402 -4.18985e-06)
(0.000388932 -0.000247035 -3.39628e-06)
(0.000310206 -0.00020663 -2.70886e-06)
(0.000242522 -0.000170321 -2.11783e-06)
(0.000184926 -0.000137437 -1.61487e-06)
(0.00013659 -0.000107501 -1.19276e-06)
(9.67803e-05 -8.02382e-05 -8.45087e-07)
(6.48287e-05 -5.56214e-05 -5.66043e-07)
(4.01158e-05 -3.39142e-05 -3.50212e-07)
(2.19766e-05 -1.57226e-05 -1.91797e-07)
(9.76745e-06 -1.9923e-06 -8.51814e-08)
(2.6254e-06 5.83057e-06 -2.28556e-08)
(-1.07751e-07 5.71087e-06 6.66366e-10)
(0.0116424 -0.0117938 -0.000101626)
(0.0107121 -0.0102291 -9.35062e-05)
(0.00979373 -0.00883256 -8.54908e-05)
(0.00890194 -0.00759634 -7.7707e-05)
(0.0080479 -0.00651033 -7.02524e-05)
(0.00723972 -0.0055628 -6.3198e-05)
(0.00648291 -0.00474123 -5.65919e-05)
(0.00578066 -0.00403288 -5.04618e-05)
(0.00513425 -0.00342514 -4.48191e-05)
(0.00454338 -0.00290598 -3.96613e-05)
(0.0040066 -0.00246412 -3.49756e-05)
(0.00352153 -0.00208924 -3.07414e-05)
(0.00308521 -0.00177195 -2.69328e-05)
(0.0026943 -0.0015039 -2.35206e-05)
(0.00234526 -0.00127773 -2.04739e-05)
(0.00203451 -0.00108697 -1.77614e-05)
(0.00175858 -0.00092607 -1.53529e-05)
(0.00151408 -0.000790191 -1.32186e-05)
(0.00129784 -0.000675223 -1.13311e-05)
(0.00110694 -0.000577667 -9.66467e-06)
(0.000938697 -0.00049456 -8.19601e-06)
(0.00079072 -0.00042342 -6.90421e-06)
(0.000660816 -0.00036214 -5.77013e-06)
(0.000547073 -0.000308971 -4.7771e-06)
(0.000447813 -0.000262462 -3.91045e-06)
(0.000361566 -0.000221416 -3.15738e-06)
(0.000287068 -0.00018485 -2.50686e-06)
(0.000223217 -0.000151967 -1.94928e-06)
(0.000169079 -0.000122158 -1.47651e-06)
(0.00012385 -9.49925e-05 -1.08151e-06)
(8.68171e-05 -7.02295e-05 -7.58082e-07)
(5.73319e-05 -4.78653e-05 -5.00567e-07)
(3.47842e-05 -2.81718e-05 -3.03638e-07)
(1.85104e-05 -1.17519e-05 -1.61509e-07)
(7.84291e-06 4.61412e-07 -6.83562e-08)
(1.88164e-06 7.04372e-06 -1.63392e-08)
(-1.5726e-07 5.99216e-06 1.22169e-09)
(0.0120158 -0.0115659 -0.000104886)
(0.0109738 -0.00995249 -9.57917e-05)
(0.00996117 -0.00852818 -8.69532e-05)
(0.00899177 -0.00728063 -7.84918e-05)
(0.00807553 -0.00619578 -7.04942e-05)
(0.00721901 -0.00525847 -6.30178e-05)
(0.00642595 -0.00445334 -5.60951e-05)
(0.00569775 -0.00376531 -4.97385e-05)
(0.00503395 -0.00317998 -4.39439e-05)
(0.00443266 -0.00268394 -3.8695e-05)
(0.00389093 -0.00226494 -3.39661e-05)
(0.00340517 -0.00191194 -2.97258e-05)
(0.00297132 -0.00161514 -2.59387e-05)
(0.00258515 -0.00136594 -2.25679e-05)
(0.0022424 -0.00115686 -1.9576e-05)
(0.00193892 -0.000981436 -1.69269e-05)
(0.00167077 -0.000834171 -1.45864e-05)
(0.00143424 -0.000710337 -1.25217e-05)
(0.0012259 -0.000605955 -1.07031e-05)
(0.00104266 -0.000517668 -9.10357e-06)
(0.000881709 -0.000442661 -7.69856e-06)
(0.000740577 -0.000378591 -6.46651e-06)
(0.000617031 -0.000323486 -5.38792e-06)
(0.00050914 -0.000275722 -4.44596e-06)
(0.000415227 -0.000233958 -3.62598e-06)
(0.000333835 -0.000197094 -2.91528e-06)
(0.000263723 -0.000164234 -2.30305e-06)
(0.000203818 -0.000134655 -1.77992e-06)
(0.000153217 -0.000107806 -1.33801e-06)
(0.000111143 -8.33053e-05 -9.70557e-07)
(7.69137e-05 -6.09458e-05 -6.71599e-07)
(4.99032e-05 -4.07438e-05 -4.35687e-07)
(2.9516e-05 -2.29769e-05 -2.57619e-07)
(1.50935e-05 -8.24017e-06 -1.31653e-07)
(5.94912e-06 2.55197e-06 -5.18005e-08)
(1.15011e-06 8.00685e-06 -9.9304e-09)
(-2.06311e-07 6.17001e-06 1.77099e-09)
(0.0123325 -0.0112488 -0.000107652)
(0.0111755 -0.00959973 -9.75536e-05)
(0.0100685 -0.00816037 -8.78911e-05)
(0.00902378 -0.00691343 -7.8772e-05)
(0.00804928 -0.00584048 -7.02657e-05)
(0.00714934 -0.00492276 -6.24101e-05)
(0.00632543 -0.00414199 -5.52182e-05)
(0.00557682 -0.00348081 -4.86832e-05)
(0.00490099 -0.00292314 -4.27835e-05)
(0.00429428 -0.00245434 -3.74873e-05)
(0.00375217 -0.00206133 -3.2755e-05)
(0.00326975 -0.00173256 -2.85438e-05)
(0.00284188 -0.00145795 -2.48089e-05)
(0.00246346 -0.00122878 -2.15056e-05)
(0.00212954 -0.00103758 -1.85908e-05)
(0.00183543 -0.000877976 -1.60236e-05)
(0.00157681 -0.000744607 -1.37662e-05)
(0.00134966 -0.000632919 -1.17834e-05)
(0.00115038 -0.00053911 -1.00438e-05)
(0.000975704 -0.000460005 -8.51908e-06)
(0.000822764 -0.000392963 -7.184e-06)
(0.00068904 -0.000335801 -6.01662e-06)
(0.000572287 -0.000286698 -4.99732e-06)
(0.00047058 -0.000244163 -4.10934e-06)
(0.000382262 -0.000206974 -3.33821e-06)
(0.000305909 -0.000174131 -2.67149e-06)
(0.000240315 -0.000144826 -2.09869e-06)
(0.000184447 -0.000118413 -1.61079e-06)
(0.000137438 -9.43998e-05 -1.20024e-06)
(9.85506e-05 -7.24503e-05 -8.606e-07)
(6.71345e-05 -5.23913e-05 -5.86201e-07)
(4.25927e-05 -3.42563e-05 -3.7184e-07)
(2.43479e-05 -1.83255e-05 -2.12475e-07)
(1.17511e-05 -5.18175e-06 -1.02449e-07)
(4.1009e-06 4.28552e-06 -3.56442e-08)
(4.37006e-07 8.72493e-06 -3.6837e-09)
(-2.544e-07 6.24644e-06 2.30875e-09)
(0.0125748 -0.0108357 -0.000109768)
(0.0113026 -0.00916708 -9.86638e-05)
(0.010104 -0.0077279 -8.8202e-05)
(0.00898888 -0.00649527 -7.84682e-05)
(0.00796233 -0.00544614 -6.95073e-05)
(0.00702581 -0.00455805 -6.13323e-05)
(0.00617807 -0.00380986 -5.39322e-05)
(0.00541579 -0.00318211 -4.72779e-05)
(0.00473425 -0.00265722 -4.13282e-05)
(0.0041278 -0.00221955 -3.60342e-05)
(0.00359034 -0.00185541 -3.13425e-05)
(0.00311562 -0.00155293 -2.71985e-05)
(0.00269744 -0.00130192 -2.35481e-05)
(0.00232987 -0.0010937 -2.03396e-05)
(0.00200735 -0.000920931 -1.75243e-05)
(0.00172473 -0.000777431 -1.50572e-05)
(0.00147734 -0.000658049 -1.28979e-05)
(0.00126095 -0.000558464 -1.1009e-05)
(0.00107179 -0.0004751 -9.35784e-06)
(0.000906539 -0.000404996 -7.91532e-06)
(0.000762272 -0.000345708 -6.65593e-06)
(0.000636463 -0.000295235 -5.55764e-06)
(0.000526887 -0.000251914 -4.60099e-06)
(0.00043165 -0.000214397 -3.76949e-06)
(0.000349138 -0.000181583 -3.04903e-06)
(0.000277972 -0.000152578 -2.42759e-06)
(0.000216997 -0.000126663 -1.89511e-06)
(0.000165229 -0.000103265 -1.443e-06)
(0.000121847 -8.19523e-05 -1.06411e-06)
(8.61577e-05 -6.24336e-05 -7.52387e-07)
(5.75479e-05 -4.45661e-05 -5.02486e-07)
(3.54535e-05 -2.83986e-05 -3.09489e-07)
(1.93195e-05 -1.42106e-05 -1.68553e-07)
(8.51036e-06 -2.56796e-06 -7.41346e-08)
(2.3144e-06 5.6708e-06 -2.00283e-08)
(-2.50809e-07 9.20491e-06 2.34076e-09)
(-3.00925e-07 6.2244e-06 2.82847e-09)
(0.0127237 -0.0103214 -0.000111069)
(0.0113395 -0.00865285 -9.89875e-05)
(0.0100556 -0.00723146 -8.77804e-05)
(0.00887805 -0.00602841 -7.75015e-05)
(0.00780826 -0.0050159 -6.81631e-05)
(0.00684415 -0.00416788 -5.97471e-05)
(0.0059812 -0.00346055 -5.22141e-05)
(0.00521329 -0.00287264 -4.55104e-05)
(0.00453321 -0.00238533 -3.95735e-05)
(0.00393336 -0.00198231 -3.4337e-05)
(0.00340597 -0.00164952 -2.97332e-05)
(0.00294354 -0.00137501 -2.56964e-05)
(0.00253887 -0.00114867 -2.21639e-05)
(0.00218531 -0.000962021 -1.90776e-05)
(0.00187674 -0.000807972 -1.63842e-05)
(0.00160765 -0.000680635 -1.40353e-05)
(0.00137313 -0.00057515 -1.19882e-05)