/*--------------------------------*- C++ -*----------------------------------*\
| =========                 |                                                 |
| \\      /  F ield         | OpenFOAM: The Open Source CFD Toolbox           |
|  \\    /   O peration     | Version:  v2012                                 |
|   \\  /    A nd           | Website:  www.openfoam.com                      |
|    \\/     M anipulation  |                                                 |
\*---------------------------------------------------------------------------*/
FoamFile
{
    version     2.0;
    format      ascii;
    class       surfaceScalarField;
    location    "1";
    object      phi;
}
// * * * * * * * * * * * * * * * * * * * * * * * * * * * * * * * * * * * * * //

dimensions      [0 3 -1 0 0 0 0];
oriented        oriented;


internalField   nonuniform List<scalar> 
49380
(
2.81927e-15
-4.96073e-13
-4.77531e-19
1.46071e-14
-2.64464e-12
-6.61122e-18
3.8097e-14
-6.18951e-12
-2.03019e-17
7.58582e-14
-1.10009e-11
7.74155e-18
1.30491e-13
-1.70663e-11
8.63276e-17
2.04202e-13
-2.44232e-11
7.94072e-17
3.00298e-13
-3.31373e-11
9.96542e-17
4.22579e-13
-4.32981e-11
1.70114e-16
5.75304e-13
-5.50013e-11
3.00281e-16
7.61387e-13
-6.8374e-11
1.79578e-16
9.86836e-13
-8.35319e-11
3.58865e-16
1.25565e-12
-1.0062e-10
3.90906e-16
1.57367e-12
-1.19804e-10
5.21228e-16
1.94394e-12
-1.41227e-10
3.13872e-16
2.37346e-12
-1.65088e-10
4.06138e-16
2.86652e-12
-1.91555e-10
4.4001e-16
3.42859e-12
-2.20834e-10
5.53331e-16
4.06476e-12
-2.53141e-10
6.94752e-16
4.77999e-12
-2.88698e-10
9.22072e-16
5.5777e-12
-3.27728e-10
8.90096e-16
6.46326e-12
-3.70477e-10
7.59753e-16
7.44194e-12
-4.17229e-10
6.74304e-16
8.51761e-12
-4.68181e-10
5.92875e-16
9.69387e-12
-5.23664e-10
5.08598e-16
1.09735e-11
-5.83894e-10
4.26689e-16
1.23586e-11
-6.49179e-10
3.52722e-16
1.385e-11
-7.19788e-10
2.99618e-16
1.54473e-11
-7.95912e-10
2.50654e-16
1.71484e-11
-8.77945e-10
2.26813e-16
1.89491e-11
-9.65966e-10
1.9721e-16
2.08428e-11
-1.06028e-09
1.92784e-16
2.28208e-11
-1.16107e-09
1.6979e-16
2.48706e-11
-1.26843e-09
1.72091e-16
2.6977e-11
-1.38248e-09
1.45765e-16
2.91206e-11
-1.50323e-09
1.49635e-16
3.12783e-11
-1.63068e-09
1.19628e-16
3.34226e-11
-1.76463e-09
1.29112e-16
3.5522e-11
-1.90488e-09
9.26857e-17
3.75397e-11
-2.05102e-09
9.66472e-17
3.94354e-11
-2.20201e-09
5.43032e-17
4.11643e-11
-2.35832e-09
8.08794e-17
4.26785e-11
-2.51751e-09
5.27323e-17
4.39263e-11
-2.67968e-09
9.1289e-17
4.48549e-11
-2.84218e-09
6.28056e-17
4.54104e-11
-3.00293e-09
1.08114e-16
4.55396e-11
-3.16153e-09
8.68437e-17
4.51932e-11
-3.31234e-09
1.41203e-16
4.43255e-11
-3.45387e-09
1.41353e-16
4.28997e-11
-3.58072e-09
1.88068e-16
4.08907e-11
-3.68837e-09
1.58273e-16
3.82879e-11
-3.77184e-09
1.94299e-16
3.51051e-11
-3.82221e-09
1.5523e-16
3.1384e-11
-3.83168e-09
1.79204e-16
2.71963e-11
-3.7895e-09
1.35728e-16
2.26313e-11
-3.68085e-09
1.48153e-16
1.77416e-11
-3.4883e-09
1.04956e-16
1.24823e-11
-3.19342e-09
1.08334e-16
6.79058e-12
-2.77448e-09
7.06326e-17
1.60274e-12
-2.17813e-09
6.61353e-17
-1.14411e-09
3.97735e-17
2.65095e-15
-4.98691e-13
3.28811e-18
1.45826e-14
-2.6569e-12
-4.07337e-17
3.99124e-14
-6.21547e-12
-7.41343e-17
8.27261e-14
-1.10433e-11
4.87479e-17
1.44169e-13
-1.71279e-11
-1.6368e-17
2.28252e-13
-2.45065e-11
9.34525e-17
3.36501e-13
-3.32452e-11
3.82479e-17
4.71933e-13
-4.34336e-11
-4.6777e-18
6.38251e-13
-5.51675e-11
2.46976e-17
8.38497e-13
-6.85743e-11
-7.62119e-18
1.07702e-12
-8.377e-11
6.19406e-17
1.35745e-12
-1.009e-10
6.69955e-17
1.68593e-12
-1.20129e-10
3.21589e-16
2.06549e-12
-1.41604e-10
4.09425e-16
2.50183e-12
-1.6552e-10
5.21767e-16
3.00034e-12
-1.92048e-10
6.99779e-16
3.56617e-12
-2.21394e-10
8.17283e-16
4.20689e-12
-2.53772e-10
1.1776e-15
4.92553e-12
-2.89408e-10
1.01073e-15
5.72299e-12
-3.28526e-10
-2.66195e-18
6.60944e-12
-3.71367e-10
-2.26087e-16
7.59046e-12
-4.18212e-10
-1.12192e-16
8.66934e-12
-4.69261e-10
4.41287e-20
9.84959e-12
-5.24844e-10
9.47809e-17
1.11338e-11
-5.85178e-10
1.43634e-16
1.25242e-11
-6.50568e-10
1.96351e-16
1.40215e-11
-7.21284e-10
2.25591e-16
1.56255e-11
-7.97514e-10
2.60621e-16
1.7334e-11
-8.79651e-10
2.79508e-16
1.91427e-11
-9.67773e-10
3.01728e-16
2.1045e-11
-1.06218e-09
3.07895e-16
2.30319e-11
-1.16305e-09
3.1374e-16
2.5091e-11
-1.27049e-09
2.96967e-16
2.72066e-11
-1.3846e-09
2.80422e-16
2.93593e-11
-1.50538e-09
2.43776e-16
3.15258e-11
-1.63285e-09
2.19951e-16
3.36783e-11
-1.76678e-09
1.82335e-16
3.57851e-11
-1.90699e-09
1.49082e-16
3.7809e-11
-2.05304e-09
8.25205e-17
3.97093e-11
-2.20391e-09
4.55522e-17
4.14412e-11
-2.36005e-09
3.14655e-17
4.29565e-11
-2.51902e-09
4.11044e-17
4.42033e-11
-2.68092e-09
4.54971e-17
4.51283e-11
-2.8431e-09
6.18427e-17
4.56776e-11
-3.00348e-09
7.77848e-17
4.57977e-11
-3.16165e-09
1.17276e-16
4.54391e-11
-3.31198e-09
1.54519e-16
4.45558e-11
-3.45298e-09
1.79575e-16
4.3111e-11
-3.57928e-09
1.91322e-16
4.10795e-11
-3.68634e-09
2.05636e-16
3.84506e-11
-3.76921e-09
1.98978e-16
3.52379e-11
-3.81899e-09
1.97488e-16
3.14833e-11
-3.82792e-09
1.78977e-16
2.72595e-11
-3.78527e-09
1.65671e-16
2.26581e-11
-3.67624e-09
1.39196e-16
1.7736e-11
-3.48337e-09
1.20779e-16
1.24476e-11
-3.18813e-09
9.28323e-17
6.71813e-12
-2.76875e-09
7.4214e-17
1.50628e-12
-2.17292e-09
4.53016e-17
-1.1426e-09
2.42941e-17
1.81551e-15
-5.00516e-13
-1.37677e-18
1.09902e-14
-2.66641e-12
-4.14502e-17
3.20326e-14
-6.23712e-12
-7.44193e-17
6.92102e-14
-1.10806e-11
-1.13986e-17
1.24397e-13
-1.71838e-11
-7.83274e-17
2.02376e-13
-2.45839e-11
6.85143e-17
3.04656e-13
-3.33473e-11
2.33153e-17
4.3545e-13
-4.35638e-11
7.0172e-17
5.98191e-13
-5.53296e-11
7.36501e-17
7.96544e-13
-6.87722e-11
6.02023e-17
1.03484e-12
-8.4008e-11
3.71185e-17
1.31655e-12
-1.01182e-10
-7.79965e-17
1.64847e-12
-1.2046e-10
1.13378e-16
2.03316e-12
-1.41988e-10
2.30715e-17
2.47683e-12
-1.65963e-10
1.09717e-16
2.9841e-12
-1.92554e-10
1.56799e-16
3.56053e-12
-2.21968e-10
2.39594e-16
4.21265e-12
-2.54421e-10
4.93144e-16
4.94235e-12
-2.90136e-10
3.21073e-16
5.75488e-12
-3.29336e-10
2.98473e-16
6.65708e-12
-3.72265e-10
4.41081e-16
7.65406e-12
-4.19204e-10
5.78128e-16
8.74953e-12
-4.70351e-10
6.10339e-16
9.94729e-12
-5.26036e-10
6.12591e-16
1.125e-11
-5.86475e-10
5.62329e-16
1.26601e-11
-6.51973e-10
5.29399e-16
1.41782e-11
-7.22798e-10
4.82719e-16
1.58042e-11
-7.99136e-10
4.61999e-16
1.75358e-11
-8.81379e-10
4.41513e-16
1.93688e-11
-9.69602e-10
4.37949e-16
2.12963e-11
-1.0641e-09
4.29542e-16
2.33092e-11
-1.16506e-09
4.21695e-16
2.53947e-11
-1.27257e-09
3.9576e-16
2.75371e-11
-1.38674e-09
3.62119e-16
2.97164e-11
-1.50756e-09
3.13415e-16
3.19089e-11
-1.63504e-09
2.69583e-16
3.40865e-11
-1.76896e-09
2.2309e-16
3.62168e-11
-1.90912e-09
1.58254e-16
3.82619e-11
-2.05509e-09
5.99725e-17
4.01806e-11
-2.20583e-09
-1.83591e-17
4.19277e-11
-2.3618e-09
-2.10353e-17
4.34541e-11
-2.52055e-09
-2.21891e-17
4.47074e-11
-2.68218e-09
4.13707e-18
4.56336e-11
-2.84403e-09
1.11603e-17
4.61781e-11
-3.00402e-09
6.10983e-17
4.6287e-11
-3.16176e-09
1.09207e-16
4.59102e-11
-3.3116e-09
1.75634e-16
4.50011e-11
-3.45207e-09
1.80417e-16
4.35229e-11
-3.5778e-09
2.21725e-16
4.14502e-11
-3.68427e-09
2.3401e-16
3.8772e-11
-3.76653e-09
2.58323e-16
3.55023e-11
-3.81572e-09
2.42177e-16
3.16824e-11
-3.8241e-09
2.42456e-16
2.73859e-11
-3.78097e-09
2.03816e-16
2.27071e-11
-3.67156e-09
1.87026e-16
1.77132e-11
-3.47838e-09
1.40353e-16
1.23826e-11
-3.1828e-09
1.18598e-16
6.68653e-12
-2.76305e-09
7.44798e-17
1.65777e-12
-2.16789e-09
4.93985e-17
-1.14094e-09
1.0623e-17
1.97853e-15
-5.02513e-13
-3.28791e-18
1.2072e-14
-2.67673e-12
-2.68063e-17
3.48163e-14
-6.26035e-12
-5.7643e-17
7.48981e-14
-1.11207e-11
-4.11413e-18
1.34044e-13
-1.72437e-11
-9.38365e-17
2.1778e-13
-2.46668e-11
1.03238e-16
3.26647e-13
-3.34562e-11
-3.46923e-19
4.65242e-13
-4.37017e-11
8.72445e-17
6.3602e-13
-5.54999e-11
6.43315e-17
8.42407e-13
-6.89783e-11
3.64676e-17
1.08872e-12
-8.42538e-11
5.59837e-17
1.37813e-12
-1.01472e-10
-6.06519e-17
1.71651e-12
-1.20799e-10
5.78488e-18
2.10731e-12
-1.4238e-10
-1.13709e-16
2.5568e-12
-1.66413e-10
-4.47285e-17
3.06939e-12
-1.93067e-10
-8.3149e-17
3.65166e-12
-2.22551e-10
1.38566e-17
4.30943e-12
-2.55077e-10
1.65152e-16
5.0466e-12
-2.90873e-10
7.7589e-17
5.86823e-12
-3.30159e-10
-5.33495e-17
6.78119e-12
-3.73178e-10
2.13014e-17
7.79069e-12
-4.20212e-10
1.38046e-16
8.90066e-12
-4.7146e-10
1.94618e-16
1.01151e-11
-5.27249e-10
2.48818e-16
1.14368e-11
-5.87796e-10
2.60392e-16
1.28682e-11
-6.53403e-10
2.949e-16
1.441e-11
-7.24338e-10
3.06029e-16
1.6062e-11
-8.00786e-10
3.4331e-16
1.78218e-11
-8.83136e-10
3.66777e-16
1.96851e-11
-9.71462e-10
4.07154e-16
2.16448e-11
-1.06606e-09
4.24056e-16
2.36915e-11
-1.1671e-09
4.43347e-16
2.58121e-11
-1.27469e-09
4.19867e-16
2.79903e-11
-1.38891e-09
3.96761e-16
3.02058e-11
-1.50977e-09
3.32819e-16
3.24343e-11
-1.63726e-09
2.95049e-16
3.46469e-11
-1.77117e-09
2.27317e-16
3.68105e-11
-1.91128e-09
1.59751e-16
3.88861e-11
-2.05717e-09
1.04835e-17
4.08317e-11
-2.20777e-09
-7.76548e-17
4.26014e-11
-2.36357e-09
-9.90145e-17
4.41451e-11
-2.5221e-09
-7.74404e-17
4.54092e-11
-2.68345e-09
-6.56161e-17
4.63389e-11
-2.84496e-09
-2.96239e-17
4.68784e-11
-3.00456e-09
1.28779e-17
4.69731e-11
-3.16186e-09
1.09216e-16
4.65722e-11
-3.3112e-09
1.8295e-16
4.5628e-11
-3.45113e-09
1.90592e-16
4.41037e-11
-3.57627e-09
2.15102e-16
4.19737e-11
-3.68213e-09
2.57634e-16
3.9227e-11
-3.76378e-09
2.57975e-16
3.58774e-11
-3.81237e-09
2.65792e-16
3.19666e-11
-3.82019e-09
2.38225e-16
2.75687e-11
-3.77658e-09
2.16679e-16
2.27819e-11
-3.66677e-09
1.70816e-16
1.76874e-11
-3.47328e-09
1.36539e-16
1.23017e-11
-3.17741e-09
8.89212e-17
6.65797e-12
-2.75741e-09
5.4195e-17
1.73814e-12
-2.16297e-09
7.70064e-18
-1.13921e-09
-2.96401e-17
1.41914e-15
-5.03951e-13
1.96888e-19
9.17924e-15
-2.68496e-12
-5.62333e-17
2.8314e-14
-6.27971e-12
-3.55559e-17
6.35081e-14
-1.11558e-11
2.01456e-17
1.16805e-13
-1.72978e-11
-9.92193e-17
1.94072e-13
-2.47439e-11
2.47338e-17
2.96829e-13
-3.35596e-11
-7.30054e-17
4.30487e-13
-4.3835e-11
3.91101e-17
5.97702e-13
-5.5667e-11
1.74617e-17
8.02991e-13
-6.91831e-11
6.80252e-17
1.05025e-12
-8.45006e-11
5.57817e-17
1.34353e-12
-1.01765e-10
2.35322e-17
1.68811e-12
-1.21143e-10
5.39365e-17
2.08791e-12
-1.4278e-10
-1.54175e-17
2.54878e-12
-1.66874e-10
1.43621e-17
3.07481e-12
-1.93594e-10
-7.80643e-17
3.67272e-12
-2.23149e-10
-1.35139e-17
4.34723e-12
-2.55752e-10
4.58551e-18
5.10359e-12
-2.91629e-10
3.63573e-17
5.94654e-12
-3.31002e-10
2.77252e-17
6.8822e-12
-3.74113e-10
1.10662e-16
7.9159e-12
-4.21244e-10
2.04711e-16
9.05191e-12
-4.72594e-10
2.48003e-16
1.02943e-11
-5.28489e-10
2.85959e-16
1.16461e-11
-5.89145e-10
2.84437e-16
1.31097e-11
-6.54864e-10
3.02116e-16
1.4686e-11
-7.25912e-10
3.0325e-16
1.63748e-11
-8.02472e-10
3.29347e-16
1.81737e-11
-8.84932e-10
3.5234e-16
2.00783e-11
-9.73364e-10
3.90293e-16
2.20812e-11
-1.06806e-09
4.16081e-16
2.41728e-11
-1.16919e-09
4.35761e-16
2.63396e-11
-1.27685e-09
4.21388e-16
2.85648e-11
-1.39113e-09
3.92774e-16
3.08275e-11
-1.51203e-09
3.35783e-16
3.31026e-11
-1.63954e-09
2.89484e-16
3.53604e-11
-1.77343e-09
2.31412e-16
3.7567e-11
-1.91349e-09
1.42034e-16
3.96821e-11
-2.05928e-09
-2.08023e-17
4.16624e-11
-2.20976e-09
-1.46424e-16
4.34612e-11
-2.36537e-09
-1.51542e-16
4.5027e-11
-2.52367e-09
-1.46501e-16
4.63051e-11
-2.68473e-09
-1.0932e-16
4.7239e-11
-2.8459e-09
-8.98688e-17
4.77721e-11
-3.0051e-09
-1.16121e-17
4.78485e-11
-3.16193e-09
8.37295e-17
4.74165e-11
-3.31077e-09
1.91116e-16
4.64275e-11
-3.45014e-09
1.77183e-16
4.48442e-11
-3.57469e-09
2.33992e-16
4.26412e-11
-3.67993e-09
2.65122e-16
3.98074e-11
-3.76095e-09
2.99097e-16
3.63572e-11
-3.80892e-09
2.84694e-16
3.23328e-11
-3.81616e-09
2.79247e-16
2.78093e-11
-3.77205e-09
2.26587e-16
2.28899e-11
-3.66185e-09
1.93758e-16
1.76721e-11
-3.46807e-09
1.26925e-16
1.22147e-11
-3.17196e-09
8.82803e-17
6.61636e-12
-2.75182e-09
2.53683e-17
1.77958e-12
-2.15814e-09
-1.56459e-17
-1.13743e-09
-6.76972e-17
1.59392e-15
-5.05595e-13
-1.64359e-17
1.05546e-14
-2.6938e-12
2.577e-17
3.05721e-14
-6.30078e-12
-1.21319e-16
6.83828e-14
-1.11929e-11
6.45612e-17
1.24326e-13
-1.7354e-11
-1.52628e-17
2.04843e-13
-2.4824e-11
3.57335e-17
3.11061e-13
-3.36663e-11
-4.3341e-17
4.48952e-13
-4.39723e-11
6.49859e-17
6.20386e-13
-5.58384e-11
3.09999e-18
8.30364e-13
-6.93926e-11
4.62039e-17
1.08248e-12
-8.47525e-11
4.1677e-17
1.38111e-12
-1.02063e-10
2.80728e-17
1.7311e-12
-1.21493e-10
1.22301e-17
2.13715e-12
-1.43186e-10
-2.65205e-17
2.60515e-12
-1.67342e-10
-1.98332e-20
3.13958e-12
-1.94129e-10
-9.68974e-17
3.7479e-12
-2.23757e-10
3.63128e-17
4.43433e-12
-2.56438e-10
-2.15208e-17
5.20565e-12
-2.924e-10
3.91512e-17
6.06659e-12
-3.31863e-10
-1.97025e-17
7.0232e-12
-3.7507e-10
-1.63984e-17
8.08075e-12
-4.22302e-10
9.90675e-18
9.24379e-12
-4.73757e-10
2.70287e-17
1.05166e-11
-5.29762e-10
5.35003e-17
1.1902e-11
-5.9053e-10
5.46144e-17
1.34027e-11
-6.56365e-10
8.62271e-17
1.50195e-11
-7.27528e-10
1.07647e-16
1.6752e-11
-8.04203e-10
1.6095e-16
1.85977e-11
-8.86777e-10
2.0811e-16
2.05519e-11
-9.75316e-10
2.76993e-16
2.26071e-11
-1.07011e-09
3.23932e-16
2.47531e-11
-1.17134e-09
3.71531e-16
2.6976e-11
-1.27907e-09
3.66306e-16
2.92583e-11
-1.39341e-09
3.58446e-16
3.15782e-11
-1.51435e-09
2.99983e-16
3.391e-11
-1.64187e-09
2.7461e-16
3.62229e-11
-1.77574e-09
2.10436e-16
3.84817e-11
-1.91574e-09
1.34039e-16
4.06448e-11
-2.06145e-09
-6.40518e-17
4.26675e-11
-2.21178e-09
-1.88211e-16
4.45016e-11
-2.36721e-09
-2.12615e-16
4.60945e-11
-2.52526e-09
-1.85202e-16
4.73895e-11
-2.68602e-09
-1.65778e-16
4.83287e-11
-2.84684e-09
-1.20284e-16
4.88541e-11
-3.00563e-09
-5.67703e-17
4.89083e-11
-3.16199e-09
7.82406e-17
4.84386e-11
-3.31029e-09
1.85775e-16
4.73953e-11
-3.44909e-09
1.82235e-16
4.5741e-11
-3.57303e-09
2.20876e-16
4.345e-11
-3.67764e-09
2.80815e-16
4.0512e-11
-3.75801e-09
2.89269e-16
3.69418e-11
-3.80535e-09
2.97931e-16
3.2783e-11
-3.812e-09
2.63608e-16
2.81127e-11
-3.76738e-09
2.27293e-16
2.30399e-11
-3.65678e-09
1.64668e-16
1.76801e-11
-3.46271e-09
1.09627e-16
1.21345e-11
-3.16641e-09
4.46812e-17
6.56627e-12
-2.74625e-09
-8.91346e-18
1.82183e-12
-2.1534e-09
-7.15356e-17
-1.13561e-09
-1.19804e-16
1.21922e-15
-5.06877e-13
-1.12327e-17
8.60718e-15
-2.70128e-12
8.2315e-18
2.54495e-14
-6.31923e-12
-1.94396e-16
5.90539e-14
-1.12264e-11
-2.48196e-17
1.10645e-13
-1.74063e-11
-5.69939e-17
1.87564e-13
-2.49005e-11
4.24556e-17
2.90219e-13
-3.37694e-11
-7.02293e-17
4.25381e-13
-4.41074e-11
2.10315e-17
5.95329e-13
-5.60087e-11
-5.72711e-17
8.05697e-13
-6.96027e-11
4.46872e-17
1.06031e-12
-8.50069e-11
7.90379e-18
1.36425e-12
-1.02367e-10
7.20199e-17
1.72202e-12
-1.2185e-10
9.48412e-18
2.13883e-12
-1.43603e-10
3.24226e-17
2.62012e-12
-1.67823e-10
2.5756e-17
3.17049e-12
-1.9468e-10
-5.09715e-17
3.79737e-12
-2.24383e-10
6.75865e-17
4.50461e-12
-2.57146e-10
-3.19982e-17
5.29964e-12
-2.93194e-10
8.5832e-17
6.18686e-12
-3.3275e-10
6.62056e-17
7.17225e-12
-3.76055e-10
6.31579e-17
8.26145e-12
-4.23391e-10
7.24495e-17
9.45932e-12
-4.74954e-10
7.55448e-17
1.07702e-11
-5.31072e-10
7.60005e-17
1.21971e-11
-5.91957e-10
5.24438e-17
1.37428e-11
-6.5791e-10
5.55502e-17
1.54081e-11
-7.29193e-10
6.1429e-17
1.71926e-11
-8.05987e-10
9.47259e-17
1.90938e-11
-8.88677e-10
1.35595e-16
2.11066e-11
-9.77328e-10
1.94725e-16
2.32233e-11
-1.07223e-09
2.48602e-16
2.54333e-11
-1.17354e-09
2.94425e-16
2.77219e-11
-1.28136e-09
3.02768e-16
3.0071e-11
-1.39576e-09
2.94287e-16
3.24579e-11
-1.51673e-09
2.54475e-16
3.4856e-11
-1.64426e-09
2.30593e-16
3.72331e-11
-1.77811e-09
1.90876e-16
3.95528e-11
-1.91806e-09
1.05008e-16
4.17718e-11
-2.06367e-09
-8.93147e-17
4.38439e-11
-2.21386e-09
-2.41669e-16
4.57192e-11
-2.36909e-09
-2.4571e-16
4.73434e-11
-2.52689e-09
-2.36648e-16
4.86579e-11
-2.68734e-09
-1.92103e-16
4.96032e-11
-2.84779e-09
-1.68146e-16
5.01193e-11
-3.00614e-09
-7.41589e-17
5.01474e-11
-3.16202e-09
4.71476e-17
4.96336e-11
-3.30978e-09
1.81632e-16
4.85271e-11
-3.44799e-09
1.6166e-16
4.67901e-11
-3.57129e-09
2.35035e-16
4.43972e-11
-3.67524e-09
2.81147e-16
4.13385e-11
-3.75494e-09
3.24407e-16
3.76304e-11
-3.80164e-09
3.09583e-16
3.33181e-11
-3.80769e-09
2.99182e-16
2.84821e-11
-3.76254e-09
2.31413e-16
2.32384e-11
-3.65153e-09
1.83561e-16
1.77207e-11
-3.45719e-09
9.56737e-17
1.20713e-11
-3.16076e-09
4.10823e-17
6.51394e-12
-2.74069e-09
-4.06054e-17
1.85344e-12
-2.14874e-09
-9.62211e-17
-1.13376e-09
-1.57767e-16
1.32162e-15
-5.08301e-13
-1.81039e-17
8.92919e-15
-2.70936e-12
-7.42762e-17
2.70803e-14
-6.33875e-12
-1.73843e-16
6.46137e-14
-1.12608e-11
4.29611e-16
1.17695e-13
-1.74615e-11
-2.72534e-16
1.97678e-13
-2.49792e-11
1.47789e-16
3.01894e-13
-3.38732e-11
8.39195e-17
4.3998e-13
-4.42444e-11
8.6015e-17
6.12203e-13
-5.61812e-11
1.95556e-18
8.25988e-13
-6.98162e-11
3.58439e-18
1.08483e-12
-8.52658e-11
1.78091e-17
1.394e-12
-1.02676e-10
6.33093e-18
1.75841e-12
-1.22215e-10
3.80982e-17
2.18358e-12
-1.44028e-10
4.65534e-17
2.675e-12
-1.68314e-10
4.57485e-17
3.23809e-12
-1.95243e-10
-2.09719e-17
3.88041e-12
-2.25025e-10
9.39834e-17
4.60605e-12
-2.57872e-10
-3.08189e-17
5.42321e-12
-2.9401e-10
9.93985e-17
6.33647e-12
-3.33663e-10
5.12931e-17
7.35186e-12
-3.7707e-10
1.76407e-17
8.47503e-12
-4.24514e-10
-4.34589e-18
9.71104e-12
-4.76191e-10
-1.39298e-17
1.10643e-11
-5.32426e-10
-2.8343e-17
1.2538e-11
-5.93432e-10
-6.40635e-17
1.41347e-11
-6.59507e-10
-6.77393e-17
1.58554e-11
-7.30915e-10
-6.52934e-17
1.76994e-11
-8.07832e-10
-2.90304e-17
1.96641e-11
-8.90642e-10
1.24874e-17
2.17441e-11
-9.79407e-10
8.22881e-17
2.39313e-11
-1.07442e-09
1.40413e-16
2.62145e-11
-1.17583e-09
2.02555e-16
2.85783e-11
-1.28372e-09
2.12874e-16
3.10038e-11
-1.39818e-09
2.24015e-16
3.34673e-11
-1.5192e-09
1.8501e-16
3.59409e-11
-1.64674e-09
1.88545e-16
3.83913e-11
-1.78056e-09
1.49745e-16
4.07803e-11
-1.92045e-09
8.80103e-17
4.30629e-11
-2.06595e-09
-1.30569e-16
4.5191e-11
-2.21599e-09
-2.71229e-16
4.71131e-11
-2.37101e-09
-2.93455e-16
4.87726e-11
-2.52855e-09
-2.6031e-16
5.0109e-11
-2.68868e-09
-2.36874e-16
5.10607e-11
-2.84874e-09
-1.87765e-16
5.15658e-11
-3.00665e-09
-1.16731e-16
5.15639e-11
-3.16202e-09
3.59726e-17
5.09995e-11
-3.30922e-09
1.59815e-16
4.98209e-11
-3.44681e-09
1.6028e-16
4.79899e-11
-3.56946e-09
2.14545e-16
4.54812e-11
-3.67273e-09
2.9155e-16
4.22862e-11
-3.75175e-09
3.0859e-16
3.8423e-11
-3.79777e-09
3.20052e-16
3.39394e-11
-3.8032e-09
2.80916e-16
2.89201e-11
-3.75752e-09
2.32813e-16
2.34894e-11
-3.6461e-09
1.55438e-16
1.77999e-11
-3.4515e-09
8.21365e-17
1.20323e-11
-3.155e-09
1.54217e-18
6.46516e-12
-2.73513e-09
-6.82974e-17
1.87349e-12
-2.14415e-09
-1.44972e-16
-1.13189e-09
-2.01424e-16
1.18874e-15
-5.09502e-13
-1.74152e-18
8.08936e-15
-2.71669e-12
-5.87702e-17
2.45214e-14
-6.35704e-12
-2.38393e-16
5.87794e-14
-1.12936e-11
2.17516e-16
1.07109e-13
-1.75142e-11
-5.33448e-16
1.82979e-13
-2.50547e-11
-2.43433e-17
2.85373e-13
-3.39766e-11
-4.44341e-17
4.25141e-13
-4.43834e-11
5.01068e-17
5.98887e-13
-5.6355e-11
-7.89959e-18
8.16311e-13
-7.00335e-11
3.82298e-17
1.08028e-12
-8.55296e-11
-1.98174e-18
1.39656e-12
-1.02992e-10
6.55023e-17
1.77065e-12
-1.22589e-10
1.22479e-17
2.20816e-12
-1.44465e-10
6.001e-17
2.71489e-12
-1.68821e-10
5.85498e-18
3.29619e-12
-1.95825e-10
-4.55584e-17
3.9602e-12
-2.25688e-10
7.17478e-17
4.7108e-12
-2.58623e-10
-4.20976e-17
5.55629e-12
-2.94855e-10
8.22338e-17
6.50137e-12
-3.34607e-10
6.58804e-17
7.55233e-12
-3.78121e-10
3.28051e-17
8.71521e-12
-4.25677e-10
1.32606e-17
9.99538e-12
-4.77471e-10
4.63725e-18
1.13973e-11
-5.33828e-10
-1.67688e-17
1.29243e-11
-5.94959e-10
-5.9121e-17
1.4579e-11
-6.61163e-10
-8.00698e-17
1.63624e-11
-7.32699e-10
-8.78926e-17
1.82737e-11
-8.09744e-10
-7.2057e-17
2.03101e-11
-8.92679e-10
-3.94267e-17
2.24659e-11
-9.81563e-10
1.33595e-17
2.47325e-11
-1.07668e-09
7.17168e-17
2.7098e-11
-1.17819e-09
1.23034e-16
2.95465e-11
-1.28617e-09
1.42406e-16
3.20578e-11
-1.40069e-09
1.47707e-16
3.46073e-11
-1.52175e-09
1.28386e-16
3.71657e-11
-1.64929e-09
1.32444e-16
3.96982e-11
-1.7831e-09
1.22864e-16
4.21649e-11
-1.92292e-09
5.46342e-17
4.45186e-11
-2.06831e-09
-1.50076e-16
4.67093e-11
-2.21818e-09
-3.15384e-16
4.86835e-11
-2.37299e-09
-3.14137e-16
5.03822e-11
-2.53025e-09
-3.02446e-16
5.17428e-11
-2.69005e-09
-2.53445e-16
5.27012e-11
-2.8497e-09
-2.30749e-16
5.31937e-11
-3.00715e-09
-1.32604e-16
5.31578e-11
-3.16198e-09
-4.88126e-18
5.25365e-11
-3.30859e-09
1.41829e-16
5.12771e-11
-3.44555e-09
1.29156e-16
4.9341e-11
-3.56753e-09
2.20306e-16
4.67034e-11
-3.67009e-09
2.80725e-16
4.33569e-11
-3.7484e-09
3.35102e-16
3.93219e-11
-3.79373e-09
3.22848e-16
3.46499e-11
-3.79853e-09
3.11487e-16
2.94307e-11
-3.7523e-09
2.33097e-16
2.37979e-11
-3.64047e-09
1.74472e-16
1.79236e-11
-3.44562e-09
6.97294e-17
1.20238e-11
-3.1491e-09
2.9507e-18
6.4262e-12
-2.72953e-09
-9.34394e-17
1.88457e-12
-2.13961e-09
-1.59927e-16
-1.13001e-09
-2.28807e-16
1.23042e-15
-5.10801e-13
-9.14941e-18
8.39839e-15
-2.7243e-12
-5.42612e-17
2.60295e-14
-6.3755e-12
-9.75754e-17
6.02406e-14
-1.13277e-11
-4.24193e-18
1.1272e-13
-1.75686e-11
-2.21961e-16
1.9601e-13
-2.51315e-11
7.91684e-16
3.01168e-13
-3.40856e-11
-5.18921e-16
4.4401e-13
-4.45248e-11
2.82653e-16
6.17287e-13
-5.65292e-11
-1.21244e-16
8.39047e-13
-7.02541e-11
1.04183e-16
1.10682e-12
-8.57974e-11
2.35723e-17
1.4296e-12
-1.03314e-10
-2.37181e-17
1.81258e-12
-1.22971e-10
8.48371e-17
2.2614e-12
-1.44913e-10
3.48783e-17
2.78222e-12
-1.69341e-10
8.83764e-17
3.38052e-12
-1.96424e-10
-1.2405e-17
4.06551e-12
-2.26371e-10
2.37863e-16
4.84095e-12
-2.59398e-10
1.23506e-16
5.71533e-12
-2.95728e-10
1.82944e-16
6.69364e-12
-3.35586e-10
2.09904e-17
7.78291e-12
-3.79211e-10
-3.47807e-17
8.98914e-12
-4.26884e-10
-5.75935e-17
1.03178e-11
-4.788e-10
-6.09596e-17
1.17734e-11
-5.35285e-10
-8.15772e-17
1.33594e-11
-5.96547e-10
-1.24205e-16
1.50785e-11
-6.62884e-10
-1.44215e-16
1.69316e-11
-7.34554e-10
-1.55893e-16
1.89178e-11
-8.11732e-10
-1.39205e-16
2.10339e-11
-8.94796e-10
-1.12846e-16
2.32739e-11
-9.83804e-10
-5.65161e-17
2.56286e-11
-1.07904e-09
-4.22539e-18
2.80857e-11
-1.18065e-09
5.55677e-17
3.0628e-11
-1.28871e-09
6.8491e-17
3.32345e-11
-1.4033e-09
8.92293e-17
3.58793e-11
-1.52439e-09
6.60256e-17
3.85316e-11
-1.65195e-09
9.64372e-17
4.1155e-11
-1.78572e-09
8.48658e-17
4.37074e-11
-1.92547e-09
4.33632e-17
4.61398e-11
-2.07074e-09
-1.83216e-16
4.83996e-11
-2.22045e-09
-3.31716e-16
5.04311e-11
-2.37503e-09
-3.51791e-16
5.21729e-11
-2.532e-09
-3.15479e-16
5.35599e-11
-2.69144e-09
-2.92177e-16
5.45256e-11
-2.85067e-09
-2.44461e-16
5.50038e-11
-3.00763e-09
-1.76811e-16
5.493e-11
-3.16191e-09
-2.27258e-17
5.42457e-11
-3.30791e-09
1.04394e-16
5.2897e-11
-3.4442e-09
1.19074e-16
5.08451e-11
-3.56547e-09
1.87523e-16
4.80657e-11
-3.66731e-09
2.80455e-16
4.4553e-11
-3.74488e-09
3.07066e-16
4.03303e-11
-3.78951e-09
3.24887e-16
3.54533e-11
-3.79365e-09
2.85034e-16
3.00181e-11
-3.74686e-09
2.30886e-16
2.41689e-11
-3.63462e-09
1.43722e-16
1.80969e-11
-3.43955e-09
5.78892e-17
1.20513e-11
-3.14305e-09
-3.37153e-17
6.40315e-12
-2.72389e-09
-1.14373e-16
1.89221e-12
-2.13511e-09
-2.00367e-16
-1.12813e-09
-2.61905e-16
1.12368e-15
-5.1198e-13
-6.32102e-18
7.944e-15
-2.73156e-12
-5.47057e-17
2.5389e-14
-6.39366e-12
-8.87869e-17
5.88084e-14
-1.13619e-11
-8.27235e-17
1.09904e-13
-1.7623e-11
-4.05103e-16
1.89506e-13
-2.52082e-11
2.92691e-16
2.89763e-13
-3.41932e-11
-8.84915e-16
4.30056e-13
-4.46647e-11
9.70464e-17
6.06857e-13
-5.67098e-11
-3.93926e-16
8.38135e-13
-7.04857e-11
-8.25938e-17
1.11502e-12
-8.60748e-11
-7.0855e-17
1.44892e-12
-1.03648e-10
1.28396e-17
1.84507e-12
-1.23366e-10
5.79495e-17
2.30924e-12
-1.45377e-10
7.2803e-17
2.84854e-12
-1.69879e-10
5.37251e-17
3.46834e-12
-1.97044e-10
-4.30931e-17
4.17895e-12
-2.2708e-10
1.9527e-16
4.98385e-12
-2.60202e-10
7.75679e-17
5.89185e-12
-2.96635e-10
1.38451e-16
6.90861e-12
-3.36601e-10
1.14158e-16
8.04109e-12
-3.80342e-10
9.92384e-17
9.29568e-12
-4.28138e-10
7.7529e-17
1.06781e-11
-4.80182e-10
5.59332e-17
1.21932e-11
-5.368e-10
1.29707e-17
1.38446e-11
-5.98198e-10
-4.78657e-17
1.56348e-11
-6.64675e-10
-9.40975e-17
1.75647e-11
-7.36485e-10
-1.23756e-16
1.96333e-11
-8.13802e-10
-1.33344e-16
2.18372e-11
-8.97001e-10
-1.19821e-16
2.41699e-11
-9.86138e-10
-8.56161e-17
2.66217e-11
-1.08149e-09
-3.67378e-17
2.91793e-11
-1.18321e-09
6.32605e-18
3.18247e-11
-1.29136e-09
2.56577e-17
3.45358e-11
-1.40601e-09
3.51306e-17
3.72851e-11
-1.52714e-09
3.03374e-17
4.00404e-11
-1.6547e-09
5.55347e-17
4.27632e-11
-1.78844e-09
7.20625e-17
4.54096e-11
-1.92812e-09
1.99063e-17
4.79279e-11
-2.07327e-09
-1.88576e-16
5.02633e-11
-2.22279e-09
-3.63254e-16
5.23574e-11
-2.37713e-09
-3.59279e-16
5.41462e-11
-2.53379e-09
-3.49412e-16
5.55617e-11
-2.69286e-09
-2.99886e-16
5.6535e-11
-2.85165e-09
-2.83824e-16
5.69973e-11
-3.00809e-09
-1.90478e-16
5.68819e-11
-3.1618e-09
-7.07961e-17
5.61287e-11
-3.30716e-09
7.74547e-17
5.46825e-11
-3.44276e-09
7.73342e-17
5.25043e-11
-3.56329e-09
1.8328e-16
4.95706e-11
-3.66437e-09
2.54977e-16
4.58774e-11
-3.74119e-09
3.2109e-16
4.14514e-11
-3.78508e-09
3.13779e-16
3.63532e-11
-3.78855e-09
3.05685e-16
3.06863e-11
-3.74119e-09
2.21845e-16
2.46064e-11
-3.62854e-09
1.57981e-16
1.83239e-11
-3.43327e-09
4.20317e-17
1.2119e-11
-3.13685e-09
-3.16033e-17
6.40066e-12
-2.71818e-09
-1.37229e-16
1.90033e-12
-2.13061e-09
-2.09007e-16
-1.12623e-09
-2.81834e-16
1.15173e-15
-5.13228e-13
-1.19406e-17
8.30887e-15
-2.73909e-12
-4.39527e-17
2.62262e-14
-6.41236e-12
-9.06066e-17
6.05337e-14
-1.13964e-11
-2.65055e-17
1.13679e-13
-1.76769e-11
-7.8274e-17
1.93692e-13
-2.52885e-11
-5.44447e-18
3.02218e-13
-3.43053e-11
-4.1823e-16
4.58094e-13
-4.48119e-11
8.68048e-16
6.4086e-13
-5.68969e-11
-5.6507e-16
8.71968e-13
-7.07128e-11
6.45578e-16
1.15173e-12
-8.63582e-11
-4.52484e-16
1.49314e-12
-1.0399e-10
-3.28834e-17
1.90031e-12
-1.23773e-10
6.69776e-17
2.379e-12
-1.45855e-10
8.71452e-18
2.93646e-12
-1.70436e-10
7.93007e-17
3.57816e-12
-1.97686e-10
-9.6662e-17
4.31497e-12
-2.27815e-10
2.02399e-16
5.15053e-12
-2.61037e-10
4.88784e-17
6.09437e-12
-2.97578e-10
1.49885e-16
7.15215e-12
-3.37659e-10
4.32821e-17
8.33133e-12
-3.81521e-10
5.46294e-18
9.6385e-12
-4.29446e-10
-2.22573e-17
1.10797e-11
-4.81624e-10
-3.18975e-17
1.26597e-11
-5.38381e-10
-6.30698e-17
1.43823e-11
-5.99922e-10
-1.14077e-16
1.62502e-11
-6.66544e-10
-1.47213e-16
1.82641e-11
-7.38501e-10
-1.72232e-16
2.04227e-11
-8.15962e-10
-1.72467e-16
2.27225e-11
-8.99303e-10
-1.62479e-16
2.51563e-11
-9.88573e-10
-1.21558e-16
2.77139e-11
-1.08405e-09
-8.03972e-17
3.0381e-11
-1.18587e-09
-2.85316e-17
3.31388e-11
-1.29412e-09
-1.91418e-17
3.59638e-11
-1.40884e-09
5.32553e-18
3.88268e-11
-1.53e-09
-7.96652e-18
4.16941e-11
-1.65757e-09
4.18774e-17
4.4525e-11
-1.79127e-09
4.99594e-17
4.72733e-11
-1.93087e-09
2.38808e-17
4.98849e-11
-2.07588e-09
-2.09052e-16
5.23022e-11
-2.22521e-09
-3.64264e-16
5.4464e-11
-2.37929e-09
-3.87128e-16
5.63035e-11
-2.53564e-09
-3.51675e-16
5.77499e-11
-2.69431e-09
-3.32672e-16
5.87312e-11
-2.85264e-09
-2.90183e-16
5.91761e-11
-3.00854e-09
-2.3385e-16
5.90155e-11
-3.16164e-09
-8.9722e-17
5.81874e-11
-3.30633e-09
3.06047e-17
5.66357e-11
-3.44121e-09
6.14718e-17
5.43211e-11
-3.56098e-09
1.38898e-16
5.12208e-11
-3.66127e-09
2.44135e-16
4.73331e-11
-3.7373e-09
2.79226e-16
4.26885e-11
-3.78043e-09
3.05217e-16
3.73533e-11
-3.78321e-09
2.67498e-16
3.14392e-11
-3.73528e-09
2.1221e-16
2.51141e-11
-3.62221e-09
1.19889e-16
1.8608e-11
-3.42677e-09
2.71302e-17
1.22297e-11
-3.13047e-09
-7.08227e-17
6.42201e-12
-2.71237e-09
-1.5688e-16
1.91211e-12
-2.12611e-09
-2.46825e-16
-1.12433e-09
-3.09346e-16
1.10936e-15
-5.14422e-13
-1.01504e-17
8.17851e-15
-2.74649e-12
-4.04996e-17
2.6162e-14
-6.43096e-12
-7.39319e-17
6.08871e-14
-1.14311e-11
2.76861e-18
1.16061e-13
-1.77325e-11
-4.46224e-17
1.96678e-13
-2.53714e-11
-2.49063e-16
3.02301e-13
-3.44163e-11
-6.29712e-16
4.55178e-13
-4.49573e-11
6.81325e-16
6.42643e-13
-5.70923e-11
-9.02081e-16
8.85046e-13
-7.09534e-11
3.63081e-16
1.17567e-12
-8.66535e-11
-5.95595e-16
1.53066e-12
-1.04345e-10
-3.68026e-17
1.95387e-12
-1.24196e-10
5.14526e-17
2.45106e-12
-1.46352e-10
1.57345e-17
3.03068e-12
-1.71016e-10
4.11502e-17
3.69816e-12
-1.98355e-10
-1.37412e-16
4.46521e-12
-2.28581e-10
1.32939e-16
5.33567e-12
-2.61908e-10
-2.15373e-17
6.31956e-12
-2.98561e-10
9.26849e-17
7.42293e-12
-3.38762e-10
7.74086e-17
8.65341e-12
-3.82751e-10
5.55477e-17
1.00181e-11
-4.3081e-10
3.84477e-17
1.15233e-11
-4.83129e-10
3.88125e-17
1.31742e-11
-5.40031e-10
4.88871e-18
1.49744e-11
-6.01723e-10
-5.30387e-17
1.69267e-11
-6.68497e-10
-1.02103e-16
1.90318e-11
-7.40607e-10
-1.34917e-16
2.12882e-11
-8.1822e-10
-1.53967e-16
2.36919e-11
-9.01708e-10
-1.50948e-16
2.62354e-11
-9.91118e-10
-1.29237e-16
2.89076e-11
-1.08672e-09
-8.77595e-17
3.16935e-11
-1.18866e-09
-5.25814e-17
3.45729e-11
-1.297e-09
-3.46121e-17
3.75209e-11
-1.41179e-09
-2.40463e-17
4.0507e-11
-1.53299e-09
-1.86012e-17
4.34951e-11
-1.66056e-09
2.00423e-17
4.64426e-11
-1.79422e-09
5.45096e-17
4.9301e-11
-1.93373e-09
1.13696e-17
5.2013e-11
-2.07859e-09
-2.01288e-16
5.45184e-11
-2.22772e-09
-3.86234e-16
5.67531e-11
-2.38153e-09
-3.8386e-16
5.86471e-11
-2.53754e-09
-3.79567e-16
6.01264e-11
-2.69579e-09
-3.31812e-16
6.11161e-11
-2.85363e-09
-3.25445e-16
6.15421e-11
-3.00897e-09
-2.42033e-16
6.13327e-11
-3.16143e-09
-1.39793e-16
6.04241e-11
-3.30542e-09
1.82282e-18
5.8759e-11
-3.43954e-09
1.30093e-17
5.62979e-11
-3.55852e-09
1.28421e-16
5.30191e-11
-3.65799e-09
2.06506e-16
4.89231e-11
-3.7332e-09
2.82901e-16
4.40449e-11
-3.77555e-09
2.80717e-16
3.8457e-11
-3.77762e-09
2.78208e-16
3.22801e-11
-3.7291e-09
1.92357e-16
2.56951e-11
-3.61563e-09
1.27444e-16
1.89516e-11
-3.42002e-09
4.68543e-18
1.23854e-11
-3.12391e-09
-7.15931e-17
6.46948e-12
-2.70646e-09
-1.82099e-16
1.92962e-12
-2.12157e-09
-2.54039e-16
-1.1224e-09
-3.26781e-16
1.16873e-15
-5.15676e-13
-1.0469e-17
8.51154e-15
-2.75424e-12
-4.8114e-17
2.73731e-14
-6.45039e-12
-6.82872e-17
6.31951e-14
-1.14671e-11
-2.38271e-17
1.20523e-13
-1.77899e-11
-5.58263e-18
2.031e-13
-2.54559e-11
-2.05147e-16
3.14351e-13
-3.45327e-11
-6.05612e-16
4.74469e-13
-4.51113e-11
5.92858e-16
6.67275e-13
-5.72897e-11
-5.41199e-16
9.21149e-13
-7.11991e-11
1.10407e-15
1.21884e-12