/*--------------------------------*- C++ -*----------------------------------*\
| =========                 |                                                 |
| \\      /  F ield         | OpenFOAM: The Open Source CFD Toolbox           |
|  \\    /   O peration     | Version:  v2012                                 |
|   \\  /    A nd           | Website:  www.openfoam.com                      |
|    \\/     M anipulation  |                                                 |
\*---------------------------------------------------------------------------*/
FoamFile
{
    version     2.0;
    format      ascii;
    class       volScalarField;
    location    "0.8";
    object      alpha.water;
}
// * * * * * * * * * * * * * * * * * * * * * * * * * * * * * * * * * * * * * //

dimensions      [0 0 0 0 0 0 0];


internalField   nonuniform List<scalar> 
3352
(
1
0.999983
1
0.999993
0.999999
1
1
1
0.934109
0.550224
0.114118
0.00645811
0.000610182
0.000204303
4.64616e-05
4.2167e-06
9.33751e-08
2.26165e-10
2.8191e-14
1.56748e-17
3.93993e-20
8.18324e-23
1.37215e-25
1.79696e-28
1.74843e-31
1.16349e-34
4.49037e-38
6.00894e-42
-6.22798e-58
1.05604e-94
2.34532e-99
2.58081e-104
2.89083e-110
2.53694e-115
1.76248e-120
7.63053e-118
3.24659e-115
-3.35567e-119
8.44292e-98
0.999999
0.999985
1.00001
0.999993
0.999999
1
1
1
0.937905
0.557856
0.116228
0.00626234
0.000444455
0.00013259
2.93764e-05
2.72788e-06
6.0467e-08
1.13893e-10
1.07579e-14
1.24508e-17
3.23152e-20
6.87274e-23
1.17049e-25
1.54344e-28
1.49621e-31
9.76521e-35
3.57971e-38
3.93665e-42
-4.48255e-59
9.57599e-95
2.64107e-99
3.09598e-104
4.46502e-110
2.51208e-115
3.83243e-122
1.75738e-123
6.44933e-121
2.20287e-119
5.40842e-139
1
0.999986
1
0.999994
0.999999
1
1
1
0.939844
0.561814
0.11725
0.00616759
0.000380094
0.000106806
2.33283e-05
2.18509e-06
4.8333e-08
8.06976e-11
6.87505e-15
1.0966e-17
2.92472e-20
6.36251e-23
1.10203e-25
1.46711e-28
1.42114e-31
9.11137e-35
3.15664e-38
2.62841e-42
1.53701e-59
9.06901e-95
2.81846e-99
4.53741e-104
6.23095e-110
2.14e-115
4.09302e-122
1.28069e-132
1.17327e-142
1.18125e-142
4.21578e-139
1
0.999986
1
0.999995
0.999999
1
1
1
0.941967
0.565844
0.11813
0.00605279
0.00031708
8.24891e-05
1.76804e-05
1.67166e-06
3.67738e-08
5.08291e-11
3.21268e-15
9.50184e-18
2.60417e-20
5.7848e-23
1.01555e-25
1.35732e-28
1.30187e-31
8.0662e-35
2.54186e-38
1.13349e-42
-4.21909e-60
8.58244e-95
3.01515e-99
6.83256e-104
8.24219e-110
1.76126e-115
4.10207e-122
1.24342e-132
1.16867e-142
3.23329e-142
4.97348e-139
1
0.999988
1
0.999995
0.999999
1
0.999999
1
0.944012
0.569692
0.118871
0.00594991
0.000268038
6.4384e-05
1.35261e-05
1.28815e-06
2.8143e-08
3.20917e-11
2.33972e-15
7.63921e-18
2.13011e-20
4.80822e-23
8.5254e-26
1.13872e-28
1.07241e-31
6.30509e-35
1.71013e-38
-7.96317e-44
1.02302e-83
7.70183e-95
3.19707e-99
9.82964e-104
1.02185e-109
1.43595e-115
4.01094e-122
1.22793e-132
1.09675e-142
3.11209e-148
5.92409e-147
1
0.999987
1
0.999995
0.999999
1
0.999998
1
0.946077
0.573576
0.119578
0.00585698
0.000227712
5.00907e-05
1.02929e-05
9.86161e-07
2.13717e-08
1.97064e-11
1.84799e-15
-2.71744e-17
-1.23169e-19
-3.36867e-22
-6.90289e-25
-1.08613e-27
-1.28303e-30
-1.07438e-33
-5.65715e-37
-1.33693e-40
6.66337e-91
7.1783e-95
3.36184e-99
1.31964e-103
1.19012e-109
1.15752e-115
3.67987e-122
1.29075e-132
1.10729e-142
8.63537e-156
2.74589e-164
1
0.999988
1
0.999995
1
1
0.999998
1
0.948202
0.577689
0.120368
0.00578157
0.000195161
3.90093e-05
7.82563e-06
7.53258e-07
1.61912e-08
1.20528e-11
1.42018e-15
-2.1875e-17
-9.79532e-20
-2.74262e-22
-5.76736e-25
-9.24702e-28
-1.09676e-30
-8.97457e-34
-4.35799e-37
-7.54071e-41
6.56452e-91
6.72031e-95
3.5022e-99
1.65939e-103
1.30818e-109
9.38866e-116
3.18809e-122
1.90784e-132
1.23894e-142
9.01079e-156
1.29335e-166
1
0.999987
1
0.999996
1
1
0.999998
1
0.950393
0.582111
0.12133
0.00573079
0.000168907
3.04039e-05
5.94285e-06
5.73975e-07
1.22484e-08
7.40457e-12
1.05449e-15
-1.67978e-17
-7.43407e-20
-2.10649e-22
-4.47403e-25
-7.17526e-28
-8.36508e-31
-6.511e-34
-2.7731e-37
-2.41015e-41
6.58099e-91
6.36303e-95
3.61151e-99
1.96345e-103
1.36915e-109
7.80151e-116
2.65521e-122
3.72501e-132
1.43669e-142
9.46675e-156
8.70728e-167
1
0.999988
1
0.999996
1
1
0.999998
1
0.952672
0.586978
0.122533
0.00570564
0.00014796
2.37425e-05
4.51185e-06
4.36707e-07
9.27377e-09
4.66156e-12
7.55579e-16
-1.225e-17
-5.28439e-20
-1.49488e-22
-3.161e-25
-4.98662e-28
-5.58732e-31
-3.98656e-34
-1.35713e-37
2.24162e-67
5.78751e-91
6.10685e-95
3.68148e-99
2.19305e-103
1.3873e-109
6.78614e-116
2.14821e-122
6.53854e-132
1.55035e-142
1.00198e-155
9.55972e-167
1
0.999988
1
0.999997
1
1
0.999998
1
0.95504
0.592376
0.124011
0.00569784
0.000131692
1.85961e-05
3.42665e-06
3.32e-07
7.04413e-09
3.11208e-12
4.25396e-16
-8.59764e-18
-3.56439e-20
-9.87952e-23
-2.04187e-25
-3.10495e-28
-3.25455e-31
-2.02858e-34
-4.63649e-38
1.90238e-87
6.09548e-91
5.96009e-95
3.71046e-99
2.32596e-103
1.38823e-109
6.26365e-116
1.70243e-122
9.40898e-132
1.57771e-142
1.06896e-155
1.06128e-166
1
0.999988
1
0.999998
1
1
0.999998
1
0.957506
0.598436
0.125847
0.00570467
0.000119715
1.46271e-05
2.60513e-06
2.52375e-07
5.38187e-09
2.3618e-12
1.86329e-16
-7.70797e-18
-2.83689e-20
-7.22571e-23
-1.38603e-25
-1.93811e-28
-1.80415e-31
-9.01783e-35
-7.8141e-39
1.86986e-87
6.00537e-91
5.90138e-95
3.71481e-99
2.37512e-103
1.36365e-109
6.09398e-116
1.33713e-122
1.14931e-131
1.56628e-142
1.15008e-155
1.19209e-166
0.999999
0.999989
0.999999
0.999999
1
1
0.999998
1
0.960073
0.60528
0.128173
0.00577599
0.00011168
1.15679e-05
1.98399e-06
1.91974e-07
4.14731e-09
2.19763e-12
6.93413e-17
-5.24785e-18
-1.82063e-20
-4.38918e-23
-7.86458e-26
-9.98488e-29
-7.9313e-32
-2.7767e-35
5.83206e-66
2.55733e-87
5.98082e-91
5.88935e-95
3.7011e-99
2.38249e-103
1.29697e-109
6.08618e-116
1.06038e-122
1.25143e-131
1.47211e-142
1.24839e-155
1.35569e-166
0.999997
0.999989
0.999999
0.999999
1
1
0.999998
1
0.962748
0.613063
0.131138
0.00594374
0.000107231
9.21037e-06
1.51475e-06
1.46233e-07
3.23217e-09
2.7247e-12
1.56445e-17
-3.54977e-18
-1.14017e-20
-2.54331e-23
-4.13887e-26
-4.58346e-29
-2.87734e-32
-4.92575e-36
1.7806e-84
2.08814e-87
5.9752e-91
6.01332e-95
3.65752e-99
2.35897e-103
1.20104e-109
6.7934e-116
8.71667e-123
1.27713e-131
1.33622e-142
1.36777e-155
1.56193e-166
0.999995
0.999989
0.999998
1
1
1
0.999998
1
0.965532
0.621937
0.134888
0.00618021
0.000106036
7.40037e-06
1.16042e-06
1.11624e-07
2.5535e-09
3.31327e-12
-6.96309e-18
-2.39721e-18
-7.00065e-21
-1.41285e-23
-2.02433e-26
-1.85633e-29
-8.04913e-33
-1.80044e-39
1.52881e-83
2.1576e-87
6.03855e-91
6.48572e-95
3.58964e-99
2.26615e-103
1.09296e-109
8.97788e-116
7.63075e-123
1.27312e-131
1.24062e-142
1.51324e-155
1.82432e-166
0.999995
0.99999
0.999999
1
1
1
0.999998
1
0.968422
0.632046
0.139586
0.00649837
0.000106453
6.026e-06
8.92783e-07
8.54347e-08
2.04824e-09
3.6158e-12
-2.66131e-17
-1.60652e-18
-4.20517e-21
-7.49252e-24
-9.10531e-27
-6.40914e-30
-1.37283e-33
2.87099e-78
1.59214e-83
2.20122e-87
6.20121e-91
7.22227e-95
3.50593e-99
2.11199e-103
9.86051e-110
1.17476e-115
7.17687e-123
1.21657e-131
1.20685e-142
1.6913e-155
2.16156e-166
0.999993
0.999991
0.999999
0.999999
1
1
0.999998
1
0.971398
0.6435
0.145407
0.00693476
0.000108942
4.99732e-06
6.9031e-07
6.55959e-08
1.66876e-09
3.6428e-12
1.14536e-16
-1.12922e-18
-2.57335e-21
-3.90465e-24
-3.81037e-27
-1.79028e-30
-5.99981e-37
2.92044e-78
1.63001e-83
2.25547e-87
6.39761e-91
8.11801e-95
3.41402e-99
1.9213e-103
8.91227e-110
1.38958e-115
7.07653e-123
1.12769e-131
1.21311e-142
1.91052e-155
2.59988e-166
0.999993
0.999992
0.999999
0.999999
1
1
0.999997
1
0.974426
0.656351
0.152515
0.00751429
0.000116627
4.24124e-06
5.36673e-07
5.05407e-08
1.37951e-09
3.56419e-12
3.10845e-16
-7.3667e-19
-1.48203e-21
-1.87367e-24
-1.36779e-27
-2.99924e-31
2.85858e-67
2.80079e-78
1.67568e-83
2.31217e-87
6.63816e-91
9.18157e-95
3.32152e-99
1.71313e-103
8.17479e-110
1.49868e-115
7.5696e-123
1.06119e-131
1.52159e-142
2.18227e-155
3.1766e-166
0.999991
0.999993
1
0.999998
1
1
0.999997
1
0.977453
0.670568
0.161047
0.00825913
0.000129617
3.70537e-06
4.19739e-07
3.90868e-08
1.1543e-09
3.3616e-12
3.06888e-16
-4.63913e-19
-8.10755e-22
-8.16616e-25
-3.87615e-28
-1.52562e-35
1.0347e-73
2.86124e-78
1.72493e-83
2.37342e-87
6.94475e-91
1.04459e-94
3.2364e-99
1.50134e-103
7.70624e-110
1.52776e-115
1.13095e-122
1.0348e-131
2.42502e-142
2.52183e-155
3.94551e-166
0.999991
0.999994
0.999999
0.999998
1
1
0.999997
1
0.980416
0.686038
0.171106
0.00919708
0.000146986
3.39516e-06
3.30499e-07
3.03435e-08
9.74151e-10
3.04726e-12
2.57269e-16
-2.83121e-19
-4.21162e-22
-3.1701e-25
-6.74748e-29
5.44541e-59
1.55562e-73
2.89735e-78
1.77722e-83
2.43867e-87
7.31759e-91
1.19123e-94
3.16661e-99
1.29683e-103
7.49921e-110
1.52649e-115
1.9857e-122
1.03373e-131
3.53807e-142
2.94993e-155
4.98526e-166
0.99999
0.999995
0.999997
0.999999
1
1
0.999997
1
0.983255
0.702565
0.182746
0.0103571
0.000169413
3.22538e-06
2.62244e-07
2.36438e-08
8.25713e-10
2.68711e-12
2.04861e-16
-1.70686e-19
-2.10746e-22
-1.05922e-25
-4.34691e-33
5.59905e-59
1.18316e-73
2.94359e-78
1.83319e-83
2.50817e-87
7.75447e-91
1.35527e-94
3.11917e-99
1.10865e-103
7.45035e-110
1.47422e-115
3.1263e-122
1.22174e-131
4.39371e-142
3.49499e-155
6.41261e-166
0.99999
0.999996
0.999996
0.999999
1
1
0.999997
1
0.985915
0.719889
0.19596
0.0117663
0.000197898
3.16071e-06
2.09989e-07
1.84908e-08
6.99953e-10
2.3104e-12
1.59366e-16
-1.05357e-19
-1.03378e-22
-2.62288e-26
2.1734e-52
5.48687e-59
1.20136e-73
2.99261e-78
1.89274e-83
2.58211e-87
8.25781e-91
1.53295e-94
3.0965e-99
9.44495e-104
7.84687e-110
1.35263e-115
4.28564e-122
1.94706e-131
4.84777e-142
4.19643e-155
8.40359e-166
0.999991
0.999996
0.999995
1
1
1
0.999997
1
0.98835
0.737701
0.210675
0.0134489
0.000233324
3.21031e-06
1.69984e-07
1.45097e-08
5.91138e-10
1.92577e-12
1.21828e-16
-6.43469e-20
-4.83812e-23
-4.31551e-28
2.19723e-52
5.40499e-59
1.20124e-73
3.04732e-78
1.95613e-83
2.66097e-87
8.82954e-91
1.72039e-94
3.09116e-99
8.11028e-104
1.02805e-109
1.18741e-115
5.29203e-122
3.12833e-131
4.99549e-142
5.10954e-155
1.12279e-165
0.999992
0.999997
0.999995
1
1
1
0.999998
1
0.990529
0.755677
0.226754
0.0154242
0.000276366
3.42112e-06
1.39298e-07
1.14201e-08
4.95942e-10
1.54963e-12
9.16748e-17
-4.00628e-20
-2.11274e-23
-3.0626e-45
2.14833e-52
5.31119e-59
1.38148e-73
3.10797e-78
2.0237e-83
2.74541e-87
9.47034e-91
1.91347e-94
3.15755e-99
7.13567e-104
1.57355e-109
1.00611e-115
6.07563e-122
4.41982e-131
5.0099e-142
6.31283e-155
1.5306e-165
0.999994
0.999997
0.999994
1
1
1
0.999998
1
0.992441
0.773516
0.244016
0.0177055
0.000327728
3.75165e-06
1.15572e-07
9.01295e-09
4.12626e-10
1.19993e-12
6.77709e-17
-2.55509e-20
-7.77842e-24
9.38998e-46
2.12484e-52
5.21469e-59
1.22416e-73
3.17581e-78
2.096e-83
2.83644e-87
1.0181e-90
2.10801e-94
3.32615e-99
6.54606e-104
2.4195e-109
8.28736e-116
6.64612e-122
5.56168e-131
4.99637e-142
7.91918e-155
2.13043e-165
0.999995
0.999998
0.999994
1
1
1
0.999998
1
0.994093
0.790985
0.262264
0.0203006
0.000388133
4.18662e-06
9.78155e-08
7.12942e-09
3.40314e-10
8.89786e-13
4.86905e-17
-1.66137e-20
-1.13834e-24
9.05325e-46
2.1026e-52
5.11685e-59
1.2293e-73
3.25223e-78
2.17381e-83
2.93545e-87
1.09627e-90
2.30007e-94
3.56559e-99
6.29679e-104
3.56898e-109
6.70151e-116
7.06858e-122
6.43372e-131
5.22324e-142
1.00929e-154
3.02992e-165
0.999996
0.999997
0.999992
1
1
1
0.999998
1
0.995508
0.807939
0.281315
0.0232131
0.000458358
4.71224e-06
8.38225e-08
5.64796e-09
2.78427e-10
6.27675e-13
3.32993e-17
-1.07996e-20
5.60328e-38
8.69217e-46
2.08594e-52
5.02054e-59
1.39082e-73
3.33903e-78
2.25818e-83
3.04432e-87
1.18172e-90
2.48628e-94
3.92953e-99
6.23874e-104
5.02134e-109
5.41376e-116
7.44439e-122
7.04886e-131
7.13973e-142
1.30767e-154
4.40609e-165
0.999997
0.999998
0.999992
1
1
1
0.999998
1
0.996708
0.824311
0.301022
0.0264448
0.000539355
5.3126e-06
7.16314e-08
4.4753e-09
2.26384e-10
4.17158e-13
2.09829e-17
-6.57382e-21
5.24292e-38
8.4487e-46
2.07523e-52
4.92881e-59
1.24892e-73
3.43846e-78
2.35055e-83
3.1655e-87
1.27473e-90
2.66411e-94
4.45297e-99
6.73628e-104
6.72661e-109
4.4954e-116
7.92664e-122
7.53027e-131
1.25977e-141
1.72335e-154
6.55578e-165
0.999998
0.999998
0.999991
1
1
1
0.999998
1
0.99771
0.84008
0.321274
0.029997
0.000632364
5.96446e-06
6.12139e-08
3.54147e-09
1.83371e-10
2.57141e-13
1.15534e-17
-3.36922e-21
5.18679e-38
8.19595e-46
2.07032e-52
4.84541e-59
1.27328e-73
3.55337e-78
2.45278e-83
3.30222e-87
1.37579e-90
2.83203e-94
5.16917e-99
1.0078e-103
8.58392e-109
3.96722e-116
8.81304e-122
8.11611e-131
2.11968e-141
2.31136e-154
9.98658e-165
0.999999
1
0.999991
1
1
1
0.999998
1
0.998525
0.855241
0.341986
0.0338714
0.000739014
6.63451e-06
5.16952e-08
2.79409e-09
1.48397e-10
1.4326e-13
5.07608e-18
-9.47869e-22
4.99378e-38
7.96608e-46
2.06971e-52
4.77471e-59
1.28854e-73
3.68731e-78
2.5673e-83
3.45861e-87
1.48561e-90
2.98963e-94
6.12638e-99
1.86917e-103
1.04728e-108
3.76791e-116
1.07065e-121
9.43318e-131
3.0228e-141
3.15638e-154
1.55841e-164
1
0.999999
0.999991
1
1
1
0.999997
1.00001
0.99917
0.869772
0.363088
0.0380706
0.00086147
7.27955e-06
4.22785e-08
2.19711e-09
1.20389e-10
6.94502e-14
1.43706e-18
-9.65053e-25
4.80482e-38
7.75854e-46
2.08751e-52
4.72124e-59
1.31167e-73
3.84471e-78
2.69724e-83
3.64001e-87
1.60529e-90
3.13777e-94
7.37344e-99
3.35977e-103
1.22823e-108
3.73155e-116
1.46296e-121
1.33281e-130
3.71898e-141
4.39056e-154
2.49253e-164
1
1
0.999992
1
1
1
0.999997
1.00001
0.999669
0.883626
0.384514
0.0426009
0.00100276
7.85602e-06
3.2607e-08
1.73047e-09
9.82963e-11
2.81468e-14
5.10355e-20
9.72899e-29
4.68562e-38
7.57955e-46
2.11201e-52
4.6881e-59
1.33957e-73
4.03112e-78
2.84657e-83
3.85323e-87
1.73636e-90
3.27871e-94
8.96392e-99
5.50547e-103
1.39282e-108
4.82333e-116
2.19196e-121
2.34333e-130
4.14497e-141
6.22319e-154
4.08783e-164
1
1
0.999994
1
1
1
0.999997
1.00001
0.999914
0.896779
0.40623
0.0474805
0.00116751
8.34719e-06
2.27683e-08
1.3863e-09
8.11265e-11
1.37526e-14
6.05396e-23
9.17626e-29
4.5838e-38
7.43404e-46
2.15214e-52
4.67493e-59
1.37555e-73
4.25352e-78
3.02038e-83
4.10708e-87
1.88097e-90
3.41632e-94
1.09538e-98
8.28839e-103
1.53655e-108
1.40132e-115
3.38199e-121
4.32982e-130
4.40364e-141
8.99088e-154
6.87695e-164
1
1
0.999995
1
1
1
0.999997
1
1
0.909199
0.428273
0.0527562
0.00136342
8.81225e-06
1.37639e-08
1.16326e-09
6.79887e-11
7.82737e-15
7.53295e-21
8.94594e-29
4.51398e-38
7.32953e-46
2.20897e-52
4.69203e-59
1.4212e-73
4.52074e-78
3.22518e-83
4.41295e-87
2.04203e-90
3.55638e-94
1.34012e-98
1.16163e-102
1.65962e-108
4.722e-115
5.09512e-121
7.27037e-130
4.70062e-141
1.32436e-153
1.18705e-163
1
1
0.999995
1
1
1
0.999997
1
1
0.92087
0.450816
0.058532
0.00160366
9.44998e-06
7.57634e-09
1.06446e-09
5.80615e-11
4.84986e-15
6.8509e-21
8.754e-29
4.4738e-38
7.26867e-46
2.28672e-52
4.76346e-59
1.47884e-73
4.84395e-78
3.46931e-83
4.78568e-87
2.22345e-90
3.70717e-94
1.6368e-98
1.53149e-102
1.76739e-108
1.17647e-114
7.30293e-121
1.06453e-129
5.76735e-141
1.98947e-153
2.10276e-163
1
1
0.999996
1
1
1
0.999998
1
1
0.931788
0.474251
0.0650091
0.00191057
1.0775e-05
4.4711e-09
1.05506e-09
5.08318e-11
1.09238e-14
6.08979e-21
8.64356e-29
4.45904e-38
7.2471e-46
2.38994e-52
4.87524e-59
1.55204e-73
5.2375e-78
3.76356e-83
5.24478e-87
2.43045e-90
3.88048e-94
1.99218e-98
1.91623e-102
1.87072e-108
2.20348e-114
9.90478e-121
1.37051e-129
1.08904e-140
3.04867e-153
3.8228e-163
1
1
0.999998
1
1
1
0.999999
1
1
0.942095
0.499252
0.0725369
0.00232112
1.38971e-05
5.17569e-09
1.12209e-09
4.52687e-11
1.21208e-14
5.49921e-21
8.60098e-29
4.49823e-38
7.31972e-46
2.52464e-52
5.05038e-59
1.62741e-73
5.71987e-78
4.12196e-83
5.81614e-87
2.67001e-90
4.09332e-94
2.41412e-98
2.29328e-102
1.98801e-108
3.3423e-114
1.27853e-120
1.5851e-129
2.64431e-140
4.76682e-153
7.13217e-163
1
1
0.999999
1
1
1
0.999999
1
1
0.95195
0.526771
0.0816685
0.00289632
2.08552e-05
2.03476e-08
1.20661e-09
4.11729e-11
1.36783e-14
5.00283e-21
8.62983e-29
4.61264e-38
7.48089e-46
2.69852e-52
5.30102e-59
1.67695e-73
6.31511e-78
4.56298e-83
6.53446e-87
2.95144e-90
4.37099e-94
2.9123e-98
2.64257e-102
2.15243e-108
4.34538e-114
1.58896e-120
1.68852e-129
5.46416e-140
7.60628e-153
1.36531e-162
0.999999
1
1
1
1
1
0.999999
1
1
0.961417
0.557903
0.0932255
0.00373334
3.58678e-05
6.34491e-08
1.22273e-09
3.89432e-11
1.55541e-14
4.60292e-21
8.88329e-29
4.76616e-38
7.71985e-46
2.92164e-52
5.64757e-59
2.22262e-73
7.05476e-78
5.11107e-83
7.4467e-87
3.28738e-90
4.75238e-94
3.49935e-98
2.94805e-102
2.4309e-108
5.02808e-114
1.93053e-120
1.71124e-129
8.87495e-140
1.23872e-152
2.68091e-162
1
1
1
1
1
1
1
1
1
0.970356
0.593613
0.108318
0.00500395
6.46236e-05
1.01557e-07
1.2724e-09
3.79742e-11
1.7847e-14
4.28723e-21
9.20593e-29
5.00977e-38
8.0897e-46
3.20718e-52
6.11651e-59
2.00713e-73
7.98052e-78
5.79905e-83
8.61701e-87
3.69515e-90
5.29936e-94
4.1925e-98
3.19888e-102
2.96731e-108
5.33773e-114
2.33728e-120
1.69894e-129
1.20455e-139
2.05863e-152
5.39753e-162
0.999999
1
1
1
1
1
1
1
0.999996
0.978415
0.63427
0.128547
0.00692667
0.000112072
1.7883e-07
1.40759e-09
3.77752e-11
2.06898e-14
4.05035e-21
9.71494e-29
5.34519e-38
8.60109e-46
3.57262e-52
6.74389e-59
2.39201e-73
9.14794e-78
6.67128e-83
1.01339e-86
4.1989e-90
6.11311e-94
5.01605e-98
3.39095e-102
4.07118e-108
5.39731e-114
2.89047e-120
1.6766e-129
1.48467e-139
3.49015e-152
1.11363e-161
0.999998
1
1
1
1
1
1
1
0.999954
0.985217
0.679836
0.155818
0.00975365
0.000190095
3.11484e-07
1.58419e-09
3.96194e-11
2.42684e-14
3.88745e-21
1.04409e-28
5.80255e-38
9.29769e-46
4.04125e-52
7.57922e-59
2.68941e-73
1.06317e-77
7.78842e-83
1.21204e-86
4.83295e-90
7.36241e-94
6.00547e-98
3.52862e-102
6.36883e-108
5.33667e-114
3.76854e-120
1.67031e-129
1.83611e-139
6.03299e-152
2.35314e-161
0.999998
1
0.999999
1
1
0.999998
1
0.999999
0.999947
0.99052
0.729876
0.19208
0.013887
0.000323285
5.89877e-07
1.81839e-09
4.40139e-11
2.88371e-14
3.79474e-21
1.14299e-28
6.41412e-38
1.02271e-45
4.64434e-52
8.69125e-59
3.13525e-73
1.25327e-77
9.23415e-83
1.47489e-86
5.6471e-90
9.33062e-94
7.21394e-98
3.62529e-102
1.09931e-107
5.18615e-114
5.34796e-120
2.12996e-129
2.80174e-139
1.06257e-151
5.08838e-161
0.999997
1
0.999999
1
1
0.999998
1
0.999998
0.999968
0.994695
0.7835
0.239024
0.0200859
0.000550026
1.15961e-06
2.1457e-09
4.98186e-11
3.47469e-14
3.75993e-21
0.999999
1
0.999999
1
1
0.999997
1
0.999997
0.999995
0.997716
0.838488
0.299372
0.0295851
0.000930724
2.34779e-06
2.60642e-09
5.76154e-11
0.890967
0.375938
1
0.99999
1
0.999996
0.999999
1
0.999999
1
0.934109
0.550222
0.114117
0.0064581
0.000610189
0.000204306
4.64627e-05
4.21681e-06
9.33778e-08
2.26173e-10
2.8192e-14
1.56753e-17
3.94004e-20
8.18348e-23
1.3722e-25
1.79701e-28
1.74848e-31
1.16352e-34
4.49051e-38
6.00912e-42
3.70611e-58
1.17462e-94
2.40704e-99
3.37869e-104
2.80966e-110
2.50324e-115
6.66673e-122
7.86848e-119
2.57668e-115
1.60965e-113
1.47372e-97
0.999999
0.999991
1
0.999996
0.999999
1
1
1
0.937904
0.557855
0.116227
0.00626232
0.00044446
0.000132593
2.93771e-05
2.72795e-06
6.04688e-08
1.13896e-10
1.07584e-14
1.24512e-17
3.23161e-20
6.87295e-23
1.17052e-25
1.54349e-28
1.49626e-31
9.7655e-35
3.57982e-38
3.93677e-42
3.19286e-59
9.56548e-95
2.62345e-99
3.8816e-104
4.34528e-110
2.47614e-115
3.82214e-122
5.8286e-132
2.99431e-129
-5.48279e-139
6.78566e-111
1
0.999991
1
0.999997
0.999999
1
0.999999
1
0.939843
0.561813
0.117249
0.00616757
0.000380098
0.000106808
2.33288e-05
2.18515e-06
4.83344e-08
8.07003e-11
6.87532e-15
1.09663e-17
2.92481e-20
6.3627e-23
1.10206e-25
1.46715e-28
1.42118e-31
9.11164e-35
3.15673e-38
2.62848e-42
-6.69026e-58
1.03849e-94
2.75452e-99
5.46242e-104
6.14275e-110
2.08011e-115
4.0408e-122
4.89405e-132
1.18093e-142
2.86219e-142
1.85476e-135
1
0.999991
1
0.999997
0.999999
1
0.999999
1
0.941966
0.565842
0.11813
0.00605277
0.000317083
8.24907e-05
1.76809e-05
1.6717e-06
3.67749e-08
5.08307e-11
3.2128e-15
9.50212e-18
2.60424e-20
5.78497e-23
1.01558e-25
1.35736e-28
1.30191e-31
8.06643e-35
2.54193e-38
1.13352e-42
-1.78129e-58
8.55668e-95
2.90043e-99
8.01263e-104
8.23435e-110
1.69247e-115
4.14035e-122
4.56737e-132
1.10372e-142
5.1737e-145
2.77837e-137
1
0.999992
1
0.999997
0.999999
1
0.999998
1
0.944011
0.56969
0.118871
0.00594989
0.000268041
6.43853e-05
1.35265e-05
1.28818e-06
2.81438e-08
3.20927e-11
2.33979e-15
7.63944e-18
2.13017e-20
4.80836e-23
8.52565e-26
1.13876e-28
1.07244e-31
6.30527e-35
1.71017e-38
-7.9637e-44
9.01377e-88
8.62596e-95
3.03767e-99
1.13424e-103
1.03535e-109
1.35856e-115
4.12001e-122
4.47575e-132
1.09955e-142
2.23904e-145
1.33644e-143
1
0.999992
1
0.999997
1
1
0.999998
1
0.946076
0.573575
0.119577
0.00585695
0.000227714
5.00917e-05
1.02932e-05
9.8619e-07
2.13723e-08
1.9707e-11
1.84804e-15
-2.71752e-17
-1.23173e-19
-3.36877e-22
-6.90309e-25
-1.08616e-27
-1.28307e-30
-1.07441e-33
-5.65732e-37
-1.33697e-40
5.30484e-91
7.60059e-95
3.16345e-99
1.50643e-103
1.22502e-109
1.0732e-115
3.91584e-122
4.50033e-132
1.10667e-142
8.67914e-156
3.61451e-162
1
0.999993
1
0.999997
1
1
0.999998
1
0.948201
0.577688
0.120367
0.00578154
0.000195162
3.90101e-05
7.82584e-06
7.5328e-07
1.61917e-08
1.20531e-11
1.42022e-15
-2.18756e-17
-9.7956e-20
-2.7427e-22
-5.76753e-25
-9.24729e-28
-1.0968e-30
-8.97483e-34
-4.35811e-37
-7.54093e-41
5.14154e-91
7.12021e-95
3.27236e-99
1.88066e-103
1.3697e-109
8.46436e-116
3.49307e-122
5.34332e-132
1.2391e-142
9.05593e-156
2.09195e-163
1
0.999992
1
0.999997
1
1
0.999998
1
0.950392
0.582109
0.121329
0.00573076
0.000168908
3.04045e-05
5.94302e-06
5.73992e-07
1.22488e-08
7.40473e-12
1.05452e-15
-1.67982e-17
-7.43427e-20
-2.10655e-22
-4.47416e-25
-7.17547e-28
-8.36532e-31
-6.51118e-34
-2.77318e-37
-2.41022e-41
5.06365e-91
6.68012e-95
3.36031e-99
2.21561e-103
1.45541e-109
6.77032e-116
2.97519e-122
8.09997e-132
1.43682e-142
9.51357e-156
9.47863e-167
1
0.999992
1
0.999997
1
1
0.999998
1
0.952671
0.586976
0.122533
0.00570562
0.000147961
2.3743e-05
4.51197e-06
4.3672e-07
9.27403e-09
4.66164e-12
7.55599e-16
-1.22504e-17
-5.28454e-20
-1.49493e-22
-3.16109e-25
-4.98677e-28
-5.58748e-31
-3.98667e-34
-1.35717e-37
2.54911e-71
5.00906e-91
6.36889e-95
3.42203e-99
2.46957e-103
1.4885e-109
5.62008e-116
2.45237e-122
1.20862e-131
1.55023e-142
1.00686e-155
9.57666e-167
1
0.999992
1
0.999999
1
1
0.999998
1
0.955039
0.592375
0.12401
0.00569781
0.000131693
1.85965e-05
3.42674e-06
3.32009e-07
7.04432e-09
3.1121e-12
4.25408e-16
-8.59786e-18
-3.56448e-20
-9.87978e-23
-2.04192e-25
-3.10503e-28
-3.25463e-31
-2.02863e-34
-4.63661e-38
1.24318e-87
4.96261e-91
6.1744e-95
3.45301e-99
2.61767e-103
1.49397e-109
4.95086e-116
1.97171e-122
1.56691e-131
1.57762e-142
1.0741e-155
1.06314e-166
1
0.999993
1
0.999999
1
1
0.999998
1
0.957505
0.598434
0.125846
0.00570464
0.000119716
1.46274e-05
2.6052e-06
2.52383e-07
5.38201e-09
2.36178e-12
1.86332e-16
-7.70816e-18
-2.83696e-20
-7.22589e-23
-1.38607e-25
-1.93816e-28
-1.80419e-31
-9.01805e-35
-7.81428e-39
9.51612e-88
4.95048e-91
6.08525e-95
3.46013e-99
2.673e-103
1.48206e-109
4.66011e-116
1.55886e-122
1.78699e-131
1.5664e-142
1.15551e-155
1.19415e-166
0.999999
0.999993
0.999999
0.999999
1
1
0.999998
1
0.960072
0.605278
0.128172
0.00577596
0.000111681
1.15682e-05
1.98404e-06
1.9198e-07
4.14742e-09
2.19752e-12
6.93413e-17
-5.24795e-18
-1.82067e-20
-4.38927e-23
-7.86474e-26
-9.9851e-29
-7.93146e-32
-2.77675e-35
-3.04948e-74
1.16643e-87
4.95243e-91
6.06203e-95
3.4546e-99
2.68147e-103
1.42968e-109
4.59131e-116
1.22671e-122
1.87056e-131
1.47207e-142
1.25416e-155
1.35799e-166
0.999998
0.999993
0.999999
0.999999
1
1
0.999998
1
0.962747
0.613061
0.131138
0.0059437
0.000107231
9.21055e-06
1.51479e-06
1.46237e-07
3.23224e-09
2.72455e-12
1.56434e-17
-3.54982e-18
-1.14019e-20
-2.54335e-23
-4.13894e-26
-4.58354e-29
-2.87739e-32
-4.92583e-36
4.51343e-88
1.12438e-87
5.02577e-91
6.11884e-95
3.42784e-99
2.65631e-103
1.34275e-109
4.73137e-116
9.78833e-123
1.88305e-131
1.33652e-142
1.37396e-155
1.56456e-166
0.999997
0.999993
0.999999
1
1
1
0.999998
1
0.965531
0.621935
0.134887
0.00618018
0.000106036
7.40051e-06
1.16045e-06
1.11627e-07
2.55355e-09
3.31315e-12
-6.96425e-18
-2.39724e-18
-7.00073e-21
-1.41287e-23
-2.02435e-26
-1.85635e-29
-8.04922e-33
-1.8005e-39
2.64085e-83
1.15273e-87
5.15715e-91
6.50731e-95
3.38185e-99
2.55531e-103
1.24042e-109
5.85842e-116
8.12089e-123
1.84849e-131
1.24031e-142
1.51992e-155
1.82734e-166
0.999996
0.999994
0.999999
1
1
1
0.999998
1
0.968421
0.632044
0.139585
0.00649834
0.000106453
6.02611e-06
8.92806e-07
8.54371e-08
2.04828e-09
3.61571e-12
-2.66144e-17
-1.60653e-18
-4.2052e-21
-7.49258e-24
-9.10537e-27
-6.40919e-30
-1.37284e-33
6.15678e-78
2.74897e-83
1.17381e-87
5.31151e-91
7.22801e-95
3.32277e-99
2.38641e-103
1.13863e-109
7.94759e-116
7.17602e-123
1.72867e-131
1.20662e-142
1.69856e-155
2.16509e-166
0.999995
0.999994
0.999999
0.999999
1
1
0.999998
1
0.971397
0.643499
0.145407
0.00693472
0.000108942
4.9974e-06
6.90327e-07
6.55977e-08
1.66879e-09
3.64275e-12
1.14488e-16
-1.12923e-18
-2.57336e-21
-3.90467e-24
-3.81038e-27
-1.79029e-30
-5.99994e-37
6.53589e-78
2.81514e-83
1.19991e-87
5.50554e-91
8.13532e-95
3.25642e-99
2.17658e-103
1.05001e-109
9.93555e-116
6.79053e-123
1.58597e-131
1.2131e-142
1.91847e-155
2.60407e-166
0.999995
0.999995
0.999999
0.999999
1
1
0.999998
1
0.974425
0.656349
0.152514
0.00751425
0.000116626
4.24131e-06
5.36686e-07
5.05421e-08
1.37954e-09
3.56414e-12
3.10828e-16
-7.36674e-19
-1.48203e-21
-1.87367e-24
-1.36779e-27
-2.99925e-31
2.28081e-73
6.5289e-78
2.89491e-83
1.22848e-87
5.75127e-91
9.20456e-95
3.18865e-99
1.94668e-103
9.84361e-110
1.11401e-115
6.70906e-123
1.48487e-131
1.52158e-142
2.19104e-155
3.18165e-166
0.999994
0.999996
1
0.999999
1
1
0.999998
1
0.977452
0.670566
0.161046
0.00825908
0.000129617
3.70542e-06
4.19749e-07
3.90879e-08
1.15431e-09
3.36157e-12
3.06883e-16
-4.63916e-19
-8.10758e-22
-8.16619e-25
-3.87616e-28
-1.5257e-35
2.35841e-73
6.65898e-78
2.98123e-83
1.26033e-87
6.04727e-91
1.04693e-94
3.12575e-99
1.71204e-103
9.46808e-110
1.15741e-115
7.24692e-123
1.44239e-131
2.4249e-142
2.5316e-155
3.95169e-166
0.999994
0.999996
1
0.999999
1
1
0.999998
1
0.980416
0.686036
0.171105
0.00919703
0.000146986
3.3952e-06
3.30506e-07
3.03444e-08
9.74164e-10
3.04725e-12
2.57267e-16
-2.83123e-19
-4.21164e-22
-3.17012e-25
-6.74751e-29
5.47455e-59
2.37241e-73
6.74374e-78
3.07296e-83
1.29531e-87
6.39367e-91
1.19408e-94
3.07418e-99
1.48479e-103
9.34106e-110
1.16311e-115
1.07438e-122
1.43647e-131
3.53816e-142
2.9609e-155
4.99297e-166
0.999994
0.999997
0.999999
0.999999
1
1
0.999998
1
0.983255
0.702563
0.182745
0.010357
0.000169412
3.2254e-06
2.6225e-07
2.36444e-08
8.25724e-10
2.68711e-12
2.0486e-16
-1.70688e-19
-2.10747e-22
-1.05922e-25
-4.34705e-33
5.59905e-59
2.39063e-73
6.8435e-78
3.17145e-83
1.33362e-87
6.79325e-91
1.35948e-94
3.03974e-99
1.27507e-103
9.36138e-110
1.14079e-115
1.80445e-122
1.62616e-131
4.3934e-142
3.50744e-155
6.42238e-166
0.999994
0.999997
0.999998
1
1
1
0.999998
1
0.985914
0.719887
0.195959
0.0117663
0.000197897
3.16073e-06
2.09993e-07
1.84913e-08
6.99963e-10
2.31041e-12
1.59366e-16
-1.05358e-19
-1.03379e-22
-2.62289e-26
2.22678e-52
5.53248e-59
2.40808e-73
6.94964e-78
3.27637e-83
1.37543e-87
7.24787e-91
1.53905e-94
3.0248e-99
1.09154e-103
1.05026e-109
1.06076e-115
2.73483e-122
2.37297e-131
4.8478e-142
4.21072e-155
8.41621e-166
0.999994
0.999998
0.999997
1
1
1
0.999998
1
0.988349
0.737699
0.210674
0.0134489
0.000233323
3.21032e-06
1.69987e-07
1.45101e-08
5.91147e-10
1.92578e-12
1.21829e-16
-6.43477e-20
-4.83816e-23
-4.31556e-28
2.16729e-52
5.39902e-59
2.42515e-73
7.0651e-78
3.38824e-83
1.42105e-87
7.75874e-91
1.72849e-94
3.02351e-99
9.41759e-104
1.42874e-109
9.36572e-116
3.68404e-122
3.51772e-131
4.99572e-142
5.12617e-155
1.12446e-165
0.999995
0.999998
0.999997
1
1
1
0.999998
1
0.990529
0.755675
0.226753
0.0154242
0.000276365
3.42113e-06
1.393e-07
1.14204e-08
4.95949e-10
1.54964e-12
9.16752e-17
-4.00634e-20
-2.11277e-23
-4.33255e-45
2.15692e-52
5.31324e-59
2.44248e-73
7.19167e-78
3.50766e-83
1.47089e-87
8.32725e-91
1.92345e-94
3.09285e-99
8.3187e-104
2.09429e-109
7.94503e-116
4.56402e-122
4.68904e-131
5.00962e-142
6.33249e-155
1.53283e-165
0.999996
0.999998
0.999996
1
1
1
0.999998
1
0.992441
0.773513
0.244015
0.0177055
0.000327728
3.75165e-06
1.15574e-07
9.01315e-09
4.12632e-10
1.19995e-12
6.77714e-17
-2.55513e-20
-7.77852e-24
9.38981e-46
2.12358e-52
5.21544e-59
2.46106e-73
7.33191e-78
3.63557e-83
1.52552e-87
8.95491e-91
2.11952e-94
3.22082e-99
7.64926e-104
3.04863e-109
6.54231e-116
5.36402e-122
5.67653e-131
4.99672e-142
7.94281e-155
2.1335e-165
0.999997
0.999999
0.999996
1
1
1
0.999999
1
0.994093
0.790983
0.262262
0.0203005
0.000388133
4.18662e-06
9.78169e-08
7.12957e-09
3.4032e-10
8.89796e-13
4.8691e-17
-1.6614e-20
-1.13835e-24
8.95503e-46
2.10276e-52
5.11768e-59
2.47443e-73
7.4891e-78
3.77332e-83
1.58572e-87
9.64349e-91
2.31254e-94
3.41117e-99
7.3628e-104
4.32096e-109
5.29584e-116
6.13484e-122
6.41932e-131
5.22305e-142
1.01219e-154
3.03422e-165
0.999998
0.999999
0.999995
1
1
1
0.999999
1
0.995508
0.807937
0.281314
0.023213
0.000458357
4.71224e-06
8.38235e-08
5.64807e-09
2.78432e-10
6.27683e-13
3.32997e-17
-1.07999e-20
5.06556e-39
8.71183e-46
2.08589e-52
5.02137e-59
2.48093e-73
7.66745e-78
3.92278e-83
1.65252e-87
1.03954e-90
2.49896e-94
3.70299e-99
7.29523e-104
5.90848e-109
4.30289e-116
6.99403e-122
6.97172e-131
7.1394e-142
1.31131e-154
4.41226e-165
0.999998
0.999999
0.999995
1
1
1
0.999998
1
0.996708
0.824308
0.30102
0.0264447
0.000539354
5.3126e-06
7.16321e-08
4.47539e-09
2.26388e-10
4.17164e-13
2.09832e-17
-6.57396e-21
5.43685e-38
8.44428e-46
2.0752e-52
4.92961e-59
2.71158e-73
7.87222e-78
4.08646e-83
1.72727e-87
1.12142e-90
2.6761e-94
4.11345e-99
7.83417e-104
7.74632e-109
3.62155e-116
8.16797e-122
7.48896e-131
1.2596e-141
1.72801e-154
6.56484e-165
0.999999
0.999999
0.999995
1
1
1
0.999998
1
0.99771
0.840078
0.321272
0.029997
0.000632364
5.96446e-06
6.12144e-08
3.54153e-09
1.83374e-10
2.57145e-13
1.15536e-17
-3.36929e-21
5.01894e-38
8.19674e-46
2.0703e-52
4.8462e-59
2.53667e-73
8.11e-78
4.26763e-83
1.81175e-87
1.21048e-90
2.84236e-94
4.6765e-99
1.14339e-103
9.72988e-109
3.25813e-116
1.00897e-121
8.31533e-131
2.11946e-141
2.31748e-154
1.00002e-164
0.999999
1
0.999995
1
1
1
0.999998
1
0.998525
0.855239
0.341985
0.0338714
0.000739014