/*--------------------------------*- C++ -*----------------------------------*\
| =========                 |                                                 |
| \\      /  F ield         | OpenFOAM: The Open Source CFD Toolbox           |
|  \\    /   O peration     | Version:  v2012                                 |
|   \\  /    A nd           | Website:  www.openfoam.com                      |
|    \\/     M anipulation  |                                                 |
\*---------------------------------------------------------------------------*/
FoamFile
{
    version     2.0;
    format      ascii;
    class       surfaceScalarField;
    location    "0.15";
    object      phi;
}
// * * * * * * * * * * * * * * * * * * * * * * * * * * * * * * * * * * * * * //

dimensions      [0 3 -1 0 0 0 0];
oriented        oriented;


internalField   nonuniform List<scalar> 
8135
(
4.50146e-12
-8.6106e-10
1.00585e-19
4.81321e-12
-9.65731e-10
1.25525e-19
5.10515e-12
-1.07847e-09
1.28078e-19
5.36771e-12
-1.19963e-09
1.06476e-19
5.5904e-12
-1.32824e-09
7.69976e-20
5.76204e-12
-1.46332e-09
4.80176e-20
5.87115e-12
-1.6045e-09
2.87215e-20
5.90658e-12
-1.74848e-09
3.18371e-20
5.85794e-12
-1.89357e-09
1.34623e-19
5.71668e-12
-2.03549e-09
1.74424e-19
5.47697e-12
-2.16965e-09
1.92572e-19
5.13649e-12
-2.2904e-09
2.31176e-19
4.69796e-12
-2.38867e-09
2.25113e-19
4.16972e-12
-2.45492e-09
3.0884e-19
3.56646e-12
-2.47663e-09
3.19181e-19
2.90977e-12
-2.43756e-09
3.22979e-19
2.22757e-12
-2.31806e-09
2.96234e-19
1.55264e-12
-2.09458e-09
2.46742e-19
9.22629e-13
-1.73723e-09
2.76498e-19
3.73347e-13
-1.21114e-09
2.63806e-19
-4.72401e-10
3.3478e-19
4.53427e-12
-8.61385e-10
-7.73742e-20
4.84809e-12
-9.66044e-10
4.98719e-21
5.14184e-12
-1.07877e-09
2.84695e-20
5.40586e-12
-1.1999e-09
-3.27457e-21
5.62956e-12
-1.32846e-09
-4.80032e-20
5.80166e-12
-1.46349e-09
-9.65715e-20
5.91057e-12
-1.60461e-09
-1.13962e-19
5.94503e-12
-1.74851e-09
-7.18124e-20
5.89457e-12
-1.89352e-09
1.44757e-19
5.7506e-12
-2.03535e-09
2.80575e-19
5.50725e-12
-2.16941e-09
4.02394e-19
5.16223e-12
-2.29006e-09
5.94108e-19
4.71835e-12
-2.38823e-09
7.63504e-19
4.18411e-12
-2.45438e-09
1.01813e-18
3.57446e-12
-2.47602e-09
1.15317e-18
2.91129e-12
-2.4369e-09
1.29512e-18
2.22294e-12
-2.31737e-09
1.38605e-18
1.54263e-12
-2.0939e-09
1.45944e-18
9.08452e-13
-1.7366e-09
1.59467e-18
3.57016e-13
-1.21059e-09
1.69204e-18
-4.72043e-10
1.91229e-18
4.59569e-12
-8.61716e-10
-2.68025e-19
4.91491e-12
-9.66364e-10
-1.34954e-19
5.21361e-12
-1.07907e-09
-9.72065e-20
5.48193e-12
-1.20016e-09
-1.51451e-19
5.70904e-12
-1.32869e-09
-2.21459e-19
5.88341e-12
-1.46366e-09
-2.96237e-19
5.99321e-12
-1.60472e-09
-3.20932e-19
6.02695e-12
-1.74855e-09
-2.52185e-19
5.97394e-12
-1.89347e-09
1.20543e-19
5.82544e-12
-2.0352e-09
3.84768e-19
5.57551e-12
-2.16916e-09
6.65545e-19
5.22187e-12
-2.2897e-09
1.06622e-18
4.7675e-12
-2.38778e-09
1.44986e-18
4.22119e-12
-2.45384e-09
1.94789e-18
3.59842e-12
-2.4754e-09
2.3075e-18
2.92179e-12
-2.43622e-09
2.68928e-18
2.22056e-12
-2.31667e-09
3.00231e-18
1.52906e-12
-2.09321e-09
3.31333e-18
8.87028e-13
-1.73596e-09
3.696e-18
3.36329e-13
-1.21004e-09
4.07593e-18
-4.71708e-10
4.47132e-18
4.68512e-12
-8.62056e-10
-3.75548e-19
5.01247e-12
-9.66691e-10
-2.19373e-19
5.31873e-12
-1.07937e-09
-1.95736e-19
5.59372e-12
-1.20044e-09
-2.9008e-19
5.82626e-12
-1.32892e-09
-4.00045e-19
6.00446e-12
-1.46384e-09
-5.08369e-19
6.11611e-12
-1.60483e-09
-5.45431e-19
6.14936e-12
-1.74858e-09
-4.46472e-19
6.0932e-12
-1.89341e-09
4.8381e-20
5.93863e-12
-2.03505e-09
4.60549e-19
5.67958e-12
-2.1689e-09
9.20562e-19
5.31379e-12
-2.28934e-09
1.56035e-18
4.84444e-12
-2.38731e-09
2.20104e-18
4.28078e-12
-2.45327e-09
2.99338e-18
3.63903e-12
-2.47476e-09
3.63436e-18
2.94285e-12
-2.43552e-09
4.31098e-18
2.22296e-12
-2.31595e-09
4.89653e-18
1.51555e-12
-2.0925e-09
5.48592e-18
8.63192e-13
-1.73531e-09
6.14615e-18
3.15423e-13
-1.20949e-09
6.82385e-18
-4.71393e-10
7.42112e-18
4.8035e-12
-8.62406e-10
-4.10978e-19
5.14161e-12
-9.67029e-10
-2.68807e-19
5.45789e-12
-1.07969e-09
-2.81345e-19
5.74176e-12
-1.20072e-09
-4.33933e-19
5.98159e-12
-1.32916e-09
-5.90209e-19
6.165e-12
-1.46402e-09
-7.34094e-19
6.27931e-12
-1.60494e-09
-7.82604e-19
6.3122e-12
-1.74861e-09
-6.64424e-19
6.25221e-12
-1.89335e-09
-2.15674e-20
6.09003e-12
-2.03488e-09
5.58878e-19
5.81941e-12
-2.16863e-09
1.2024e-18
5.43808e-12
-2.28896e-09
2.06871e-18
4.94949e-12
-2.38682e-09
2.94804e-18
4.36349e-12
-2.45269e-09
4.01159e-18
3.69726e-12
-2.4741e-09
4.91127e-18
2.9759e-12
-2.4348e-09
5.86885e-18
2.23205e-12
-2.31521e-09
6.72312e-18
1.50457e-12
-2.09178e-09
7.59349e-18
8.39809e-13
-1.73464e-09
8.53731e-18
2.95353e-13
-1.20895e-09
9.51584e-18
-4.71098e-10
1.02519e-17
4.95129e-12
-8.6277e-10
-3.82488e-19
5.30277e-12
-9.6738e-10
-2.8366e-19
5.63153e-12
-1.08002e-09
-3.60557e-19
5.92649e-12
-1.20102e-09
-5.88041e-19
6.17546e-12
-1.32941e-09
-8.04166e-19
6.36549e-12
-1.46421e-09
-9.90785e-19
6.4833e-12
-1.60506e-09
-1.05357e-18
6.51597e-12
-1.74865e-09
-9.04746e-19
6.45153e-12
-1.89329e-09
-1.39423e-19
6.28027e-12
-2.03471e-09
6.12301e-19
5.9957e-12
-2.16835e-09
1.43624e-18
5.59556e-12
-2.28856e-09
2.53139e-18
5.08362e-12
-2.38631e-09
3.65344e-18
4.47046e-12
-2.45208e-09
4.99851e-18
3.77447e-12
-2.4734e-09
6.1671e-18
3.02251e-12
-2.43405e-09
7.4161e-18
2.24967e-12
-2.31443e-09
8.5455e-18
1.49813e-12
-2.09102e-09
9.70458e-18
8.188e-13
-1.73397e-09
1.09305e-17
2.76874e-13
-1.20841e-09
1.21944e-17
-4.70823e-10
1.30947e-17
5.12906e-12
-8.63151e-10
-3.08658e-19
5.49649e-12
-9.67748e-10
-2.84993e-19
5.84016e-12
-1.08036e-09
-4.46642e-19
6.1484e-12
-1.20133e-09
-7.6899e-19
6.40838e-12
-1.32967e-09
-1.05547e-18
6.60643e-12
-1.46441e-09
-1.29111e-18
6.72858e-12
-1.60518e-09
-1.37157e-18
6.76122e-12
-1.74868e-09
-1.20439e-18
6.69178e-12
-1.89322e-09
-2.88675e-19
6.51004e-12
-2.03453e-09
6.28862e-19
6.20925e-12
-2.16805e-09
1.63394e-18
5.78714e-12
-2.28814e-09
2.94302e-18
5.24788e-12
-2.38577e-09
4.28803e-18
4.6029e-12
-2.45143e-09
5.88638e-18
3.87201e-12
-2.47267e-09
7.29806e-18
3.0842e-12
-2.43327e-09
8.81203e-18
2.27746e-12
-2.31363e-09
1.01989e-17
1.49791e-12
-2.09025e-09
1.16316e-17
8.01585e-13
-1.73327e-09
1.31281e-17
2.60601e-13
-1.20787e-09
1.46667e-17
-4.70563e-10
1.56835e-17
5.33753e-12
-8.63551e-10
-2.06636e-19
5.72348e-12
-9.68134e-10
-2.803e-19
6.08448e-12
-1.08072e-09
-5.50818e-19
6.40819e-12
-1.20165e-09
-9.8209e-19
6.68102e-12
-1.32994e-09
-1.35185e-18
6.88851e-12
-1.46462e-09
-1.64393e-18
7.01586e-12
-1.60531e-09
-1.74617e-18
7.0487e-12
-1.74871e-09
-1.53924e-18
6.97371e-12
-1.89315e-09
-5.14147e-19
6.78015e-12
-2.03434e-09
5.56256e-19
6.46093e-12
-2.16773e-09
1.72697e-18
6.01379e-12
-2.28769e-09
3.24549e-18
5.44334e-12
-2.3852e-09
4.81506e-18
4.76199e-12
-2.45075e-09
6.67326e-18
3.99119e-12
-2.4719e-09
8.33013e-18
3.16237e-12
-2.43244e-09
1.01058e-17
2.31689e-12
-2.31278e-09
1.17418e-17
1.50531e-12
-2.08944e-09
1.34324e-17
7.8919e-13
-1.73256e-09
1.51781e-17
2.46897e-13
-1.20733e-09
1.69604e-17
-4.70318e-10
1.81168e-17
5.57756e-12
-8.63972e-10
-8.46182e-20
5.9846e-12
-9.68541e-10
-2.81807e-19
6.36537e-12
-1.0811e-09
-6.76929e-19
6.70673e-12
-1.20199e-09
-1.2317e-18
6.99426e-12
-1.33023e-09
-1.6938e-18
7.21261e-12
-1.46484e-09
-2.05171e-18
7.34604e-12
-1.60545e-09
-2.17764e-18
7.3793e-12
-1.74875e-09
-1.95972e-18
7.29827e-12
-1.89306e-09
-8.11292e-19
7.09158e-12
-2.03413e-09
3.89555e-19
6.75179e-12
-2.16739e-09
1.72309e-18
6.27661e-12
-2.28721e-09
3.43899e-18
5.67116e-12
-2.3846e-09
5.21329e-18
4.94894e-12
-2.45003e-09
7.30508e-18
4.13328e-12
-2.47109e-09
9.1835e-18
3.25834e-12
-2.43156e-09
1.11967e-17
2.36923e-12
-2.3119e-09
1.30616e-17
1.52144e-12
-2.08859e-09
1.49899e-17
7.82341e-13
-1.73182e-09
1.69682e-17
2.35934e-13
-1.20679e-09
1.89804e-17
-4.70084e-10
2.02351e-17
5.85012e-12
-8.64418e-10
4.14929e-20
6.28085e-12
-9.68972e-10
-2.96987e-19
6.68383e-12
-1.08151e-09
-8.35308e-19
7.04505e-12
-1.20235e-09
-1.52252e-18
7.34917e-12
-1.33053e-09
-2.08586e-18
7.5798e-12
-1.46507e-09
-2.5153e-18
7.72021e-12
-1.60559e-09
-2.67382e-18
7.75414e-12
-1.74878e-09
-2.42007e-18
7.6666e-12
-1.89298e-09
-1.21286e-18
7.44549e-12
-2.03391e-09
9.57601e-20
7.08299e-12
-2.16703e-09
1.57552e-18
6.57679e-12
-2.28671e-09
3.47756e-18
5.93254e-12
-2.38395e-09
5.45442e-18
5.165e-12
-2.44926e-09
7.77855e-18
4.29952e-12
-2.47022e-09
9.87739e-18
3.37331e-12
-2.43064e-09
1.21221e-17
2.43562e-12
-2.31096e-09
1.42052e-17
1.54722e-12
-2.0877e-09
1.63524e-17
7.81543e-13
-1.73106e-09
1.85436e-17
2.27769e-13
-1.20623e-09
2.0757e-17
-4.69858e-10
2.21383e-17
6.15632e-12
-8.64892e-10
1.60127e-19
6.61338e-12
-9.69429e-10
-3.40803e-19
7.04104e-12
-1.08193e-09
-1.03326e-18
7.42438e-12
-1.20274e-09
-1.86327e-18
7.74696e-12
-1.33086e-09
-2.53272e-18
7.99134e-12
-1.46531e-09
-3.03917e-18
8.13964e-12
-1.60573e-09
-3.22957e-18
8.17452e-12
-1.74881e-09
-2.98142e-18
8.07998e-12
-1.89288e-09
-1.7082e-18
7.84319e-12
-2.03368e-09
-2.94185e-19
7.45585e-12
-2.16664e-09
1.31302e-18
6.91563e-12
-2.28617e-09
3.38976e-18
6.22881e-12
-2.38327e-09
5.54945e-18
5.41144e-12
-2.44845e-09
8.08181e-18
4.49115e-12
-2.4693e-09
1.03753e-17
3.50845e-12
-2.42966e-09
1.28261e-17
2.51707e-12
-2.30997e-09
1.51052e-17
1.58341e-12
-2.08677e-09
1.74491e-17
7.8715e-13
-1.73026e-09
1.98363e-17
2.22396e-13
-1.20567e-09
2.2235e-17
-4.69637e-10
2.36845e-17
6.49739e-12
-8.65395e-10
2.56459e-19
6.98347e-12
-9.69915e-10
-4.21142e-19
7.43836e-12
-1.08239e-09
-1.28164e-18
7.84607e-12
-1.20314e-09
-2.26133e-18
8.18907e-12
-1.3312e-09
-3.04264e-18
8.44868e-12
-1.46557e-09
-3.62763e-18
8.6058e-12
-1.60589e-09
-3.85651e-18
8.6419e-12
-1.74885e-09
-3.58378e-18
8.53991e-12
-1.89278e-09
-2.31995e-18
8.28614e-12
-2.03342e-09
-8.1836e-19
7.87181e-12
-2.16623e-09
8.97073e-19
7.29458e-12
-2.28559e-09
3.12757e-18
6.56133e-12
-2.38254e-09
5.4578e-18
5.6896e-12
-2.44758e-09
8.18842e-18
4.70942e-12
-2.46832e-09
1.06707e-17
3.66487e-12
-2.42862e-09
1.33165e-17
2.61449e-12
-2.30892e-09
1.57765e-17
1.63062e-12
-2.08579e-09
1.82985e-17
7.99414e-13
-1.72943e-09
2.08582e-17
2.19772e-13
-1.20509e-09
2.34146e-17
-4.69419e-10
2.49324e-17
6.8747e-12
-8.65931e-10
3.19163e-19
7.39257e-12
-9.70433e-10
-5.48211e-19
7.87726e-12
-1.08287e-09
-1.58691e-18
8.3117e-12
-1.20358e-09
-2.72272e-18
8.67709e-12
-1.33157e-09
-3.61823e-18
8.95345e-12
-1.46585e-09
-4.28324e-18
9.12034e-12
-1.60606e-09
-4.54621e-18
9.15794e-12
-1.74889e-09
-4.29556e-18
9.04802e-12
-1.89267e-09
-3.03463e-18
8.77598e-12
-2.03315e-09
-1.46264e-18
8.33248e-12
-2.16579e-09
3.65173e-19
7.71516e-12
-2.28498e-09
2.74004e-18
6.93159e-12
-2.38175e-09
5.22231e-18
6.00085e-12
-2.44665e-09
8.12756e-18
4.95557e-12
-2.46728e-09
1.07716e-17
3.84366e-12
-2.42751e-09
1.35843e-17
2.72874e-12
-2.30781e-09
1.62014e-17
1.68942e-12
-2.08475e-09
1.88786e-17
8.18515e-13
-1.72856e-09
2.15914e-17
2.19837e-13
-1.2045e-09
2.42817e-17
-4.69201e-10
2.58323e-17
7.28976e-12
-8.66503e-10
3.35684e-19
7.84225e-12
-9.70985e-10
-7.29257e-19
8.35943e-12
-1.08339e-09
-1.95421e-18
8.82298e-12
-1.20404e-09
-3.24979e-18
9.21279e-12
-1.33196e-09
-4.26265e-18
9.50745e-12
-1.46614e-09
-5.00761e-18
9.68508e-12
-1.60624e-09
-5.30999e-18
9.72447e-12
-1.74893e-09
-5.04233e-18
9.60614e-12
-1.89255e-09
-3.85897e-18
9.31448e-12
-2.03286e-09
-2.22626e-18
8.8396e-12
-2.16531e-09
-3.14322e-19
8.17904e-12
-2.28432e-09
2.17914e-18
7.34115e-12
-2.38092e-09
4.79232e-18
6.34663e-12
-2.44565e-09
7.8558e-18
5.23088e-12
-2.46617e-09
1.06451e-17
4.04587e-12
-2.42632e-09
1.36089e-17
2.86062e-12
-2.30663e-09
1.63631e-17
1.76027e-12
-2.08365e-09
1.9173e-17
8.44593e-13
-1.72765e-09
2.20125e-17
2.22523e-13
-1.20388e-09
2.48072e-17
-4.68981e-10
2.64011e-17
7.74423e-12
-8.67113e-10
2.94666e-19
8.33428e-12
-9.71576e-10
-9.7231e-19
8.88668e-12
-1.08394e-09
-2.38597e-18
9.38182e-12
-1.20454e-09
-3.84388e-18
9.79813e-12
-1.33237e-09
-4.97402e-18
1.01127e-11
-1.46646e-09
-5.79825e-18
1.0302e-11
-1.60643e-09
-6.13209e-18
1.03435e-11
-1.74897e-09
-5.89734e-18
1.02163e-11
-1.89243e-09
-4.77959e-18
9.90362e-12
-2.03255e-09
-3.10006e-18
9.39503e-12
-2.1648e-09
-1.09867e-18
8.68801e-12
-2.28361e-09
1.50573e-18
7.79166e-12
-2.38002e-09
4.23333e-18
6.72843e-12
-2.44459e-09
7.43151e-18
5.53664e-12
-2.46498e-09
1.03434e-17
4.27256e-12
-2.42506e-09
1.34309e-17
3.01089e-12
-2.30537e-09
1.62993e-17
1.84361e-12
-2.08249e-09
1.92136e-17
8.77765e-13
-1.72669e-09
2.21544e-17
2.27765e-13
-1.20323e-09
2.50243e-17
-4.68755e-10
2.66282e-17
8.23991e-12
-8.67765e-10
1.84218e-19
8.87057e-12
-9.72206e-10
-1.28238e-18
9.46104e-12
-1.08453e-09
-2.88434e-18
9.99031e-12
-1.20507e-09
-4.5024e-18
1.04353e-11
-1.33282e-09
-5.74914e-18
1.07714e-11
-1.46679e-09
-6.64967e-18
1.09735e-11
-1.60663e-09
-7.01915e-18
1.10173e-11
-1.74901e-09
-6.77339e-18
1.08806e-11
-1.89229e-09
-5.78894e-18
1.05455e-11
-2.03221e-09
-4.07246e-18
1.00008e-11
-2.16426e-09
-2.01309e-18
9.24398e-12
-2.28286e-09
6.71269e-19
8.28488e-12
-2.37906e-09
3.48795e-18
7.14781e-12
-2.44346e-09
6.79751e-18
5.8742e-12
-2.4637e-09
9.81086e-18
4.52482e-12
-2.42371e-09
1.29988e-17
3.18033e-12
-2.30402e-09
1.59586e-17
1.93988e-12
-2.08125e-09
1.89562e-17
9.18141e-13
-1.72567e-09
2.197e-17
2.35506e-13
-1.20255e-09
2.48825e-17
-4.68522e-10
2.64911e-17
8.77876e-12
-8.68463e-10
-4.09449e-21
9.45319e-12
-9.72881e-10
-1.66479e-18
1.00847e-11
-1.08517e-09
-3.44909e-18
1.06507e-11
-1.20563e-09
-5.22153e-18
1.11265e-11
-1.33329e-09
-6.58166e-18
1.14858e-11
-1.46715e-09
-7.55462e-18
1.17017e-11
-1.60684e-09
-7.94872e-18
1.17482e-11
-1.74906e-09
-7.74073e-18
1.16014e-11
-1.89214e-09
-6.87484e-18
1.12424e-11
-2.03185e-09
-5.13637e-18
1.06591e-11
-2.16368e-09
-3.01271e-18
9.84897e-12
-2.28205e-09
-2.53174e-19
8.82266e-12
-2.37804e-09
2.63993e-18
7.60642e-12
-2.44224e-09
6.04145e-18
6.24494e-12
-2.46234e-09
9.13384e-18
4.80371e-12
-2.42227e-09
1.23977e-17
3.36968e-12
-2.30259e-09
1.54239e-17
2.04949e-12
-2.07993e-09
1.84759e-17
9.65835e-13
-1.72458e-09
2.15374e-17
2.45706e-13
-1.20183e-09
2.44601e-17
-4.68278e-10
2.60446e-17
9.36293e-12
-8.69209e-10
-2.78955e-19
1.00844e-11
-9.73603e-10
-2.12066e-18
1.076e-11
-1.08584e-09
-4.07935e-18
1.13655e-11
-1.20624e-09
-5.99704e-18
1.18745e-11
-1.3338e-09
-7.46238e-18
1.22587e-11
-1.46754e-09
-8.50278e-18
1.24895e-11
-1.60707e-09
-8.92197e-18
1.25388e-11
-1.74911e-09
-8.70433e-18
1.23814e-11
-1.89199e-09
-8.01848e-18
1.19968e-11
-2.03147e-09
-6.26554e-18
1.13723e-11
-2.16305e-09
-4.11248e-18
1.05052e-11
-2.28118e-09
-1.31277e-18
9.40696e-12
-2.37694e-09
1.62583e-18
8.10599e-12
-2.44094e-09
5.09104e-18
6.6503e-12
-2.46089e-09
8.23638e-18
5.11038e-12
-2.42073e-09
1.15498e-17
3.57973e-12
-2.30106e-09
1.46185e-17
2.17286e-12
-2.07853e-09
1.76984e-17
1.02097e-12
-1.72343e-09
2.07828e-17
2.58334e-13
-1.20107e-09
2.36848e-17
-4.68022e-10
2.52275e-17
9.9947e-12
-8.70008e-10
-6.41493e-19
1.07667e-11
-9.74375e-10
-2.65183e-18
1.14895e-11
-1.08656e-09
-4.76998e-18
1.21374e-11
-1.20689e-09
-6.82028e-18
1.26819e-11
-1.33435e-09
-8.38193e-18
1.30929e-11
-1.46795e-09
-9.47886e-18
1.33395e-11
-1.60732e-09
-9.91271e-18
1.3392e-11
-1.74916e-09
-9.73293e-18
1.32232e-11
-1.89182e-09
-9.20838e-18
1.28113e-11
-2.03106e-09
-7.45909e-18
1.21428e-11
-2.16238e-09
-5.26862e-18
1.12148e-11
-2.28025e-09
-2.43232e-18
1.00399e-11
-2.37577e-09
5.39343e-19
8.64831e-12
-2.43955e-09
4.05165e-18
7.09178e-12
-2.45933e-09
7.23051e-18
5.44597e-12
-2.41909e-09
1.05702e-17
3.81126e-12
-2.29943e-09
1.3659e-17
2.31043e-12
-2.07703e-09
1.67414e-17
1.08369e-12
-1.72221e-09
1.98199e-17
2.73377e-13
-1.20026e-09
2.2672e-17
-4.67751e-10
2.41484e-17
1.06766e-11
-8.70862e-10
-1.09271e-18
1.15026e-11
-9.75201e-10
-3.25446e-18
1.22761e-11
-1.08734e-09
-5.51595e-18
1.29693e-11
-1.20758e-09
-7.68241e-18
1.35517e-11
-1.33493e-09
-9.32761e-18
1.39912e-11
-1.46839e-09
-1.04716e-17
1.42548e-11
-1.60758e-09
-1.09183e-17
1.43106e-11
-1.74922e-09
-1.07286e-17
1.41297e-11
-1.89164e-09
-1.04161e-17
1.36888e-11
-2.03062e-09
-8.67501e-18
1.29734e-11
-2.16167e-09
-6.48366e-18
1.19805e-11
-2.27926e-09
-3.64734e-18
1.07236e-11
-2.37451e-09
-6.76502e-19
9.2353e-12
-2.43806e-09
2.84721e-18
7.57095e-12
-2.45767e-09
6.02788e-18
5.81169e-12
-2.41733e-09
9.36131e-18
4.06511e-12
-2.29768e-09
1.24435e-17
2.46266e-12
-2.07543e-09
1.55018e-17
1.15416e-12
-1.7209e-09
1.85503e-17
2.90834e-13
-1.1994e-09
2.13249e-17
-4.67462e-10
2.27301e-17
1.14112e-11
-8.71776e-10
-1.63183e-18
1.22951e-11
-9.76086e-10
-3.92397e-18
1.31226e-11
-1.08816e-09
-6.30859e-18
1.38641e-11
-1.20832e-09
-8.57221e-18
1.44871e-11
-1.33555e-09
-1.02857e-17
1.4957e-11
-1.46886e-09
-1.14637e-17
1.52386e-11
-1.60787e-09
-1.19086e-17
1.5298e-11
-1.74928e-09
-1.17505e-17
1.5104e-11
-1.89144e-09
-1.1629e-17
1.46321e-11
-2.03015e-09
-9.91515e-18
1.38667e-11
-2.1609e-09
-7.71603e-18
1.28046e-11
-2.2782e-09
-4.88414e-18
1.14604e-11
-2.37317e-09
-1.92478e-18
9.86895e-12
-2.43647e-09
1.59496e-18
8.08946e-12
-2.45589e-09
4.75883e-18
6.20881e-12
-2.41545e-09
8.06534e-18
4.34213e-12
-2.29582e-09
1.1118e-17
2.63004e-12
-2.07372e-09
1.41272e-17
1.23256e-12
-1.71951e-09
1.71225e-17
3.1072e-13
-1.19848e-09
1.97884e-17
-4.67153e-10
2.11278e-17
1.22016e-11
-8.72755e-10
-2.25255e-18
1.31472e-11
-9.77031e-10
-4.65081e-18
1.40324e-11
-1.08905e-09
-7.137e-18
1.48254e-11
-1.20911e-09
-9.47722e-18
1.54915e-11
-1.33622e-09
-1.12416e-17
1.59937e-11
-1.46936e-09
-1.24397e-17
1.62944e-11
-1.60817e-09
-1.28791e-17
1.63574e-11
-1.74934e-09
-1.27089e-17
1.61496e-11
-1.89124e-09
-1.28102e-17
1.56445e-11
-2.02964e-09
-1.11253e-17
1.48258e-11
-2.16008e-09
-8.95252e-18
1.36901e-11
-2.27706e-09
-6.16322e-18
1.22528e-11
-2.37173e-09
-3.25425e-18
1.05514e-11
-2.43477e-09
2.21372e-19
8.64904e-12
-2.45399e-09
3.32986e-18
6.63865e-12
-2.41344e-09
6.573e-18
4.64325e-12
-2.29382e-09
9.56361e-18
2.8131e-12
-2.07189e-09
1.24944e-17
1.3191e-12
-1.71801e-09
1.54127e-17
3.33061e-13
-1.1975e-09
1.79493e-17
-4.66821e-10
1.91907e-17
1.30507e-11
-8.73801e-10
-2.94495e-18
1.40621e-11
-9.78043e-10
-5.42617e-18
1.50088e-11
-1.09e-09
-7.98955e-18
1.58566e-11
-1.20996e-09
-1.0382e-17
1.65685e-11
-1.33693e-09
-1.21791e-17
1.71049e-11
-1.46989e-09
-1.33803e-17
1.74259e-11
-1.60849e-09
-1.37967e-17
1.74926e-11
-1.7494e-09
-1.36447e-17
1.72698e-11
-1.89101e-09
-1.3952e-17
1.67294e-11
-2.0291e-09
-1.23088e-17
1.58538e-11
-2.15921e-09
-1.01617e-17
1.46396e-11
-2.27585e-09
-7.41948e-18
1.31033e-11
-2.37019e-09
-4.5708e-18
1.12848e-11
-2.43295e-09
-1.15453e-18
9.25149e-12
-2.45196e-09
1.88273e-18
7.10259e-12
-2.41129e-09
5.04016e-18
4.96942e-12
-2.29169e-09
7.94963e-18
3.01239e-12
-2.06993e-09
1.07783e-17
1.41402e-12
-1.71642e-09
1.35928e-17
3.57898e-13
-1.19644e-09
1.59684e-17
-4.66465e-10
1.71108e-17
1.39619e-11
-8.7492e-10
-3.69988e-18
1.50435e-11
-9.79125e-10
-6.23705e-18
1.60554e-11
-1.09101e-09
-8.85142e-18
1.69615e-11
-1.21087e-09
-1.12712e-17
1.7722e-11
-1.33769e-09
-1.30799e-17
1.82947e-11
-1.47047e-09
-1.42673e-17
1.86369e-11
-1.60883e-09
-1.46559e-17
1.87074e-11
-1.74947e-09
-1.44856e-17
1.84685e-11
-1.89077e-09
-1.50066e-17
1.78903e-11
-2.02852e-09
-1.34087e-17
1.69542e-11
-2.15827e-09
-1.13141e-17
1.56564e-11
-2.27455e-09
-8.65623e-18
1.40147e-11
-2.36855e-09
-5.90933e-18
1.20714e-11
-2.43101e-09
-2.59363e-18
9.89871e-12
-2.44978e-09
3.26673e-19
7.6021e-12
-2.409e-09
3.356e-18
5.32165e-12
-2.28941e-09
6.14715e-18
3.2285e-12
-2.06784e-09
8.84066e-18
1.51757e-12
-1.71471e-09
1.15289e-17
3.85284e-13
-1.19531e-09
1.37252e-17
-4.66081e-10
1.4736e-17
1.49388e-11
-8.76117e-10
-4.50424e-18
1.60949e-11
-9.80282e-10
-7.07134e-18
1.71763e-11
-1.09209e-09
-9.70901e-18
1.81442e-11
-1.21183e-09
-1.2129e-17
1.89561e-11
-1.3385e-09
-1.39267e-17
1.95672e-11
-1.47108e-09
-1.50819e-17
1.99317e-11
-1.60919e-09
-1.54244e-17
2.00059e-11
-1.74955e-09
-1.52533e-17
1.97496e-11
-1.89052e-09
-1.59701e-17
1.91309e-11
-2.0279e-09
-1.44285e-17
1.81302e-11
-2.15727e-09
-1.23892e-17
1.67435e-11
-2.27316e-09
-9.82232e-18
1.49897e-11
-2.3668e-09
-7.18703e-18
1.29138e-11
-2.42893e-09
-3.98805e-18
1.05927e-11
-2.44746e-09
-1.19786e-18
8.13868e-12
-2.40654e-09
1.68318e-18
5.701e-12
-2.28697e-09
4.33582e-18
3.46209e-12
-2.0656e-09
6.86966e-18
1.63005e-12
-1.71288e-09
9.40716e-18
4.15284e-13
-1.1941e-09
1.13941e-17
-4.65667e-10
1.2284e-17
1.59851e-11
-8.77397e-10
-5.34582e-18
1.72206e-11
-9.81517e-10
-7.91355e-18
1.83757e-11
-1.09324e-09
-1.05459e-17
1.9409e-11
-1.21287e-09
-1.29388e-17
2.02753e-11
-1.33936e-09
-1.47015e-17
2.09268e-11
-1.47173e-09
-1.58039e-17
2.13147e-11
-1.60958e-09
-1.60928e-17
2.13923e-11
-1.74962e-09
-1.58977e-17
2.11172e-11
-1.89024e-09
-1.67923e-17
2.04553e-11
-2.02724e-09
-1.53061e-17
1.93858e-11
-2.1562e-09
-1.33437e-17
1.79044e-11
-2.27168e-09
-1.09012e-17
1.60313e-11
-2.36492e-09
-8.41625e-18
1.38145e-11
-2.42672e-09
-5.38045e-18
1.13355e-11
-2.44498e-09
-2.77196e-18
8.71395e-12
-2.40392e-09
-8.63827e-20
6.10859e-12
-2.28437e-09
2.38591e-18
3.71382e-12
-2.06321e-09
4.72491e-18
1.75178e-12
-1.71092e-09
7.08819e-18
4.47974e-13
-1.19279e-09
8.851e-18
-4.6522e-10
9.58716e-18
1.71051e-11
-8.78763e-10
-6.21071e-18
1.84247e-11
-9.82837e-10
-8.74999e-18
1.96579e-11
-1.09448e-09
-1.13476e-17
2.07606e-11
-1.21397e-09
-1.36823e-17
2.16843e-11
-1.34029e-09
-1.53868e-17
2.23782e-11
-1.47242e-09
-1.64163e-17
2.27904e-11
-1.60999e-09
-1.6635e-17
2.28714e-11
-1.7497e-09
-1.64126e-17
2.25757e-11
-1.88994e-09
-1.7473e-17
2.18676e-11
-2.02653e-09
-1.60493e-17
2.07246e-11
-2.15506e-09
-1.41726e-17
1.91425e-11
-2.2701e-09
-1.18654e-17
1.71427e-11
-2.36292e-09
-9.54147e-18
1.47761e-11
-2.42435e-09
-6.67981e-18
1.21294e-11
-2.44234e-09
-4.26666e-18
9.32958e-12
-2.40112e-09
-1.79683e-18
6.54561e-12
-2.28159e-09
4.76611e-19
3.98442e-12
-2.06065e-09
2.59816e-18
1.88309e-12
-1.70882e-09
4.76188e-18
4.8344e-13
-1.1914e-09
6.27407e-18
-4.64738e-10
6.88037e-18
1.83029e-11
-8.80224e-10
-7.0835e-18
1.97119e-11
-9.84246e-10
-9.56624e-18
2.10278e-11
-1.09579e-09
-1.20979e-17
2.22037e-11
-1.21515e-09
-1.43453e-17
2.3188e-11
-1.34127e-09
-1.59648e-17
2.39264e-11
-1.47316e-09
-1.69017e-17
2.43639e-11
-1.61043e-09
-1.70396e-17
2.44477e-11
-1.74979e-09
-1.67822e-17
2.41298e-11
-1.88962e-09
-1.79633e-17
2.3372e-11
-2.02577e-09
-1.66003e-17
2.21508e-11
-2.15383e-09
-1.482e-17
2.04616e-11
-2.26841e-09
-1.26741e-17
1.8327e-11
-2.36079e-09
-1.05497e-17
1.58014e-11
-2.42182e-09
-7.91012e-18
1.29765e-11
-2.43951e-09
-5.74555e-18
9.98731e-12
-2.39813e-09
-3.54207e-18
7.01328e-12
-2.27861e-09
-1.51615e-18
4.27464e-12
-2.05791e-09
3.52697e-19
2.02434e-12
-1.70657e-09
2.29288e-18
5.2178e-13
-1.18989e-09
3.54112e-18
-4.64217e-10
3.97728e-18
1.95834e-11
-8.81782e-10
-7.95215e-18
2.1087e-11
-9.8575e-10
-1.03478e-17
2.24905e-11
-1.0972e-09
-1.27837e-17
2.37436e-11
-1.2164e-09
-1.49122e-17
2.47916e-11
-1.34232e-09
-1.64222e-17
2.55766e-11
-1.47394e-09
-1.72447e-17
2.60403e-11
-1.61089e-09
-1.72864e-17
2.61265e-11
-1.74987e-09
-1.69715e-17
2.57843e-11
-1.88928e-09
-1.82654e-17
2.49733e-11
-2.02496e-09
-1.69668e-17
2.36686e-11
-2.15253e-09
-1.53002e-17
2.18654e-11
-2.2666e-09
-1.33284e-17
1.95878e-11
-2.35851e-09
-1.14146e-17
1.68932e-11
-2.41913e-09
-9.00875e-18
1.38792e-11
-2.4365e-09
-7.10439e-18
1.0689e-11
-2.39494e-09
-5.18534e-18
7.5129e-12
-2.27544e-09
-3.42369e-18
4.58529e-12
-2.05498e-09
-1.83247e-18
2.17594e-12
-1.70416e-09
-1.342e-19
5.63102e-13
-1.18828e-09
8.26633e-19
-4.63654e-10
1.10423e-18
2.09515e-11
-8.83446e-10
-8.80098e-18
2.25552e-11
-9.87354e-10
-1.10829e-17
2.40512e-11
-1.09869e-09
-1.33913e-17
2.53858e-11
-1.21773e-09
-1.53706e-17
2.65007e-11
-1.34343e-09
-1.67441e-17
2.73345e-11
-1.47477e-09
-1.743e-17
2.78251e-11
-1.61138e-09
-1.73638e-17
2.7913e-11
-1.74996e-09
-1.7001e-17
2.75443e-11
-1.88891e-09
-1.83356e-17
2.66762e-11
-2.02409e-09
-1.70959e-17
2.52824e-11
-2.15113e-09
-1.55441e-17
2.33579e-11
-2.26468e-09
-1.37659e-17
2.09284e-11
-2.35608e-09
-1.20978e-17
1.80546e-11
-2.41625e-09
-9.97252e-18
1.48401e-11
-2.43328e-09
-8.38379e-18
1.14364e-11
-2.39154e-09
-6.80488e-18
8.04581e-12
-2.27205e-09
-5.35645e-18
4.91721e-12
-2.05185e-09
-4.08114e-18
2.33829e-12
-1.70158e-09
-2.64828e-18
6.07521e-13
-1.18655e-09
-1.98113e-18
-4.63047e-10
-1.89882e-18
2.24125e-11
-8.85221e-10
-9.6191e-18
2.41221e-11
-9.89064e-10
-1.17567e-17
2.57157e-11
-1.10029e-09
-1.39096e-17
2.71361e-11
-1.21915e-09
-1.57097e-17
2.83212e-11
-1.34462e-09
-1.69204e-17
2.92058e-11
-1.47566e-09
-1.74502e-17
2.9724e-11
-1.6119e-09
-1.72621e-17
2.98128e-11
-1.75005e-09
-1.68073e-17
2.94151e-11
-1.88851e-09
-1.81815e-17
2.84857e-11
-2.02316e-09
-1.70011e-17
2.69968e-11
-2.14964e-09
-1.55878e-17
2.49434e-11
-2.26262e-09
-1.40211e-17
2.23525e-11
-2.35349e-09
-1.26097e-17
1.92887e-11
-2.41319e-09
-1.07744e-17
1.58616e-11
-2.42986e-09
-9.51346e-18
1.22317e-11
-2.38791e-09
-8.28762e-18
8.61341e-12
-2.26843e-09
-7.1695e-18
5.27127e-12
-2.04851e-09
-6.22973e-18
2.51183e-12
-1.69882e-09
-5.07839e-18
6.55163e-13
-1.18469e-09
-4.72219e-18
-4.62392e-10
-4.79589e-18
2.3972e-11
-8.87113e-10
-1.03915e-17
2.57936e-11
-9.90886e-10
-1.23625e-17
2.74901e-11
-1.10198e-09
-1.43278e-17
2.90006e-11
-1.22066e-09
-1.59213e-17
3.02592e-11
-1.34587e-09
-1.69433e-17
3.11967e-11
-1.47659e-09
-1.72942e-17
3.17431e-11
-1.61244e-09
-1.69708e-17
3.18318e-11
-1.75013e-09
-1.64519e-17
3.14023e-11
-1.88808e-09
-1.77676e-17
3.0407e-11
-2.02216e-09
-1.66392e-17
2.88167e-11
-2.14805e-09
-1.53545e-17
2.6626e-11
-2.26043e-09
-1.4008e-17
2.38639e-11
-2.35072e-09
-1.28849e-17
2.05988e-11
-2.40992e-09
-1.13845e-17
1.69463e-11
-2.4262e-09
-1.05065e-17
1.30767e-11
-2.38404e-09
-9.69231e-18
9.21716e-12
-2.26457e-09
-8.95696e-18
5.6484e-12
-2.04494e-09
-8.39017e-18
2.69703e-12
-1.69587e-09
-7.53966e-18
7.0616e-13
-1.1827e-09
-7.49319e-18
-4.61686e-10
-7.7513e-18
2.56361e-11
-8.8913e-10
-1.11114e-17
2.75759e-11
-9.92826e-10
-1.28886e-17
2.93808e-11
-1.10379e-09
-1.46414e-17
3.0986e-11
-1.22227e-09
-1.59985e-17
3.23214e-11
-1.34721e-09
-1.68078e-17
3.33137e-11
-1.47758e-09
-1.69612e-17
3.38887e-11
-1.61302e-09
-1.64923e-17
3.3976e-11
-1.75022e-09
-1.58419e-17
3.35116e-11
-1.88761e-09
-1.71091e-17
3.24455e-11
-2.0211e-09
-1.60254e-17
3.07469e-11
-2.14635e-09
-1.48995e-17
2.84103e-11
-2.2581e-09
-1.37959e-17
2.54666e-11
-2.34778e-09
-1.29729e-17
2.1988e-11
-2.40644e-09
-1.18165e-17
1.8097e-11
-2.42231e-09
-1.13332e-17
1.39737e-11
-2.37992e-09
-1.0942e-17
9.85855e-12
-2.26045e-09
-1.06004e-17
6.04953e-12
-2.04113e-09
-1.04235e-17
2.89435e-12
-1.69271e-09
-9.88523e-18
7.60654e-13
-1.18057e-09
-1.01549e-17
-4.60925e-10
-1.05541e-17
2.74112e-11
-8.91278e-10
-1.17707e-17
2.94757e-11
-9.9489e-10
-1.33342e-17
3.13946e-11
-1.1057e-09
-1.48465e-17
3.3099e-11
-1.22397e-09
-1.59418e-17
3.45146e-11
-1.34862e-09
-1.65148e-17
3.55636e-11
-1.47863e-09
-1.64492e-17
3.61674e-11
-1.61362e-09
-1.58171e-17
3.62518e-11
-1.7503e-09
-1.50838e-17
3.57492e-11
-1.88711e-09
-1.61801e-17
3.46069e-11
-2.01995e-09
-1.51339e-17
3.27927e-11
-2.14454e-09
-1.41436e-17
3.03009e-11
-2.2556e-09
-1.3282e-17
2.71645e-11
-2.34464e-09
-1.2784e-17
2.34599e-11
-2.40274e-09
-1.20122e-17
1.93165e-11
-2.41817e-09
-1.19773e-17
1.49247e-11
-2.37552e-09
-1.20641e-17
1.05391e-11
-2.25607e-09
-1.217e-17
6.47565e-12
-2.03707e-09
-1.24178e-17
3.10431e-12
-1.68934e-09
-1.22059e-17
8.18791e-13
-1.17828e-09
-1.27826e-17
-4.60106e-10
-1.33452e-17
2.93041e-11
-8.93565e-10
-1.23655e-17
3.14999e-11
-9.97086e-10
-1.36937e-17
3.35386e-11
-1.10774e-09
-1.49439e-17
3.5347e-11
-1.22578e-09
-1.57531e-17
3.68461e-11
-1.35012e-09
-1.60674e-17
3.79535e-11
-1.47974e-09
-1.57659e-17
3.85863e-11
-1.61425e-09
-1.49624e-17
3.86658e-11
-1.75038e-09
-1.40553e-17
3.81212e-11
-1.88657e-09
-1.5003e-17
3.6897e-11
-2.01873e-09
-1.39818e-17
3.49592e-11
-2.1426e-09
-1.31645e-17
3.23026e-11
-2.25295e-09
-1.25708e-17
2.89618e-11
-2.3413e-09
-1.24124e-17
2.50179e-11
-2.3988e-09
-1.20319e-17
2.06076e-11
-2.41376e-09
-1.24523e-17
1.59321e-11
-2.37085e-09
-1.30256e-17
1.12605e-11
-2.25139e-09
-1.35866e-17
6.92777e-12
-2.03274e-09
-1.42673e-17
3.3274e-12
-1.68574e-09
-1.43826e-17
8.80723e-13
-1.17584e-09
-1.52647e-17
-4.59224e-10
-1.5945e-17
3.13219e-11
-8.95999e-10
-1.28902e-17
3.36561e-11
-9.9942e-10
-1.39701e-17
3.58205e-11
-1.10991e-09
-1.49375e-17
3.77375e-11
-1.2277e-09
-1.54412e-17
3.93234e-11
-1.35171e-09
-1.54742e-17
4.04909e-11
-1.48091e-09
-1.49179e-17
4.11524e-11
-1.61491e-09
-1.39219e-17
4.12251e-11
-1.75045e-09
-1.29079e-17
4.06343e-11
-1.88597e-09
-1.35695e-17
3.93217e-11
-2.01741e-09
-1.25619e-17
3.72522e-11
-2.14053e-09
-1.1881e-17
3.44202e-11
-2.25011e-09
-1.15442e-17
3.08628e-11
-2.33774e-09
-1.17438e-17
2.66657e-11
-2.3946e-09
-1.17886e-17
2.19732e-11
-2.40906e-09
-1.27139e-17
1.69979e-11
-2.36587e-09
-1.38239e-17
1.20242e-11
-2.24642e-09
-1.48855e-17
7.40693e-12
-2.02812e-09
-1.60307e-17
3.56417e-12
-1.6819e-09
-1.64822e-17
9.4661e-13
-1.17322e-09
-1.76473e-17
-4.58277e-10
-1.84596e-17
3.34726e-11
-8.98587e-10
-1.33433e-17
3.59521e-11
-1.0019e-09
-1.41643e-17
3.82483e-11
-1.1122e-09
-1.48355e-17
4.02787e-11
-1.22973e-09
-1.50145e-17
4.19545e-11
-1.35338e-09
-1.47493e-17
4.31836e-11
-1.48213e-09
-1.39218e-17
4.38734e-11
-1.6156e-09
-1.27268e-17
4.39367e-11
-1.75051e-09
-1.14961e-17
4.32951e-11
-1.88533e-09
-1.19086e-17
4.18874e-11
-2.016e-09
-1.08982e-17
3.96771e-11
-2.13832e-09
-1.03945e-17
3.66587e-11
-2.24709e-09
-1.03436e-17
3.28718e-11
-2.33395e-09
-1.09116e-17
2.84068e-11
-2.39013e-09
-1.1386e-17
2.34164e-11
-2.40407e-09
-1.28171e-17
1.81246e-11
-2.36058e-09
-1.44657e-17
1.28321e-11
-2.24113e-09
-1.60288e-17
7.91417e-12
-2.0232e-09
-1.76354e-17
3.81516e-12
-1.6778e-09
-1.84125e-17
1.01661e-12
-1.17042e-09
-1.98492e-17
-4.57259e-10
-2.07459e-17
3.5764e-11
-9.01338e-10
-1.37199e-17
3.83963e-11
-1.00453e-09
-1.42799e-17
4.08305e-11
-1.11464e-09
-1.46463e-17
4.2979e-11
-1.23187e-09
-1.44911e-17
4.47479e-11
-1.35515e-09
-1.39103e-17
4.60397e-11
-1.48342e-09
-1.27925e-17
4.67571e-11
-1.61632e-09
-1.13737e-17
4.68082e-11
-1.75056e-09
-1.00079e-17
4.61106e-11
-1.88463e-09
-1.0029e-17
4.46005e-11
-2.01449e-09
-9.00252e-18
4.22397e-11
-2.13595e-09
-8.63201e-18
3.90233e-11
-2.24388e-09
-8.84416e-18
3.49932e-11
-2.32992e-09
-9.78804e-18
3.02451e-11
-2.38538e-09
-1.07155e-17
2.49401e-11