/*--------------------------------*- C++ -*----------------------------------*\
| =========                 |                                                 |
| \\      /  F ield         | OpenFOAM: The Open Source CFD Toolbox           |
|  \\    /   O peration     | Version:  v2012                                 |
|   \\  /    A nd           | Website:  www.openfoam.com                      |
|    \\/     M anipulation  |                                                 |
\*---------------------------------------------------------------------------*/
FoamFile
{
    version     2.0;
    format      ascii;
    class       volScalarField;
    location    "0.1";
    object      alpha.water;
}
// * * * * * * * * * * * * * * * * * * * * * * * * * * * * * * * * * * * * * //

dimensions      [0 0 0 0 0 0 0];


internalField   nonuniform List<scalar> 
2625
(
1.0232e-246
1.54279e-241
4.57145e-236
3.96401e-231
6.87149e-227
1.49185e-221
2.74096e-216
1.41922e-211
-3.01059e-202
1.90308e-198
9.95189e-194
6.40864e-190
6.57146e-187
2.38865e-184
1.83859e-181
1.01042e-176
1.31571e-171
1.12855e-166
2.36104e-161
3.35797e-155
-1.54525e-143
-4.01013e-141
-2.93299e-141
-4.21457e-131
-2.6658e-131
-7.66191e-132
-1.33895e-132
-1.60558e-133
-1.41281e-134
-9.77288e-136
-5.43243e-136
-1.48368e-135
-1.64682e-135
-9.32706e-136
-3.12331e-136
-6.79031e-137
8.01724e-244
6.78338e-238
1.64958e-233
3.63239e-228
1.77894e-223
1.56488e-218
3.13148e-213
4.16566e-208
-2.09204e-198
2.11223e-195
6.49617e-191
2.69766e-187
1.97147e-184
5.47295e-182
2.84061e-179
1.32681e-174
1.63346e-169
1.2967e-164
2.50643e-159
4.37465e-153
-1.7933e-141
-4.43056e-139
-2.99613e-139
-4.51549e-129
-2.70753e-129
-7.41372e-130
-1.23941e-130
-1.42657e-131
-1.2082e-132
-7.97735e-134
-2.7076e-134
-6.71619e-134
-7.22365e-134
-3.98247e-134
-1.30273e-134
-2.77558e-135
2.59251e-241
2.92615e-235
8.40167e-230
4.27958e-225
2.36414e-220
1.06845e-215
8.20057e-211
-1.85582e-200
-1.14069e-194
2.10806e-192
3.74704e-188
1.02305e-184
5.40119e-182
1.15591e-179
3.68427e-177
1.37234e-172
1.62822e-167
1.21513e-162
2.17779e-157
5.68322e-151
-2.0978e-139
-4.7658e-137
-2.97626e-137
-4.70189e-127
-2.67662e-127
-6.99259e-128
-1.12001e-128
-1.2394e-129
-1.01201e-130
-6.41565e-132
-1.35844e-132
-2.94697e-132
-3.07344e-132
-1.65162e-132
-5.28477e-133
-1.10489e-133
5.54581e-243
3.13139e-234
9.72103e-229
1.19978e-223
5.67633e-219
1.66743e-213
-1.7921e-203
-1.15014e-194
-5.11071e-191
1.81388e-189
1.93838e-185
3.51753e-182
1.35418e-179
2.25047e-177
3.92433e-175
1.07028e-170
1.25534e-165
8.96161e-161
1.49738e-155
7.3426e-149
-2.47645e-137
-4.99668e-135
-2.8789e-135
-4.75854e-125
-2.57573e-125
-6.42924e-126
-9.88039e-127
-1.05275e-127
-8.30074e-129
-5.07409e-130
-6.99254e-131
-1.2538e-130
-1.26797e-130
-6.65075e-131
-2.0844e-131
-4.28178e-132
2.09515e-233
2.89196e-227
8.33516e-222
-5.21839e-218
-6.03912e-212
-9.61437e-203
-6.6257e-198
-3.72469e-190
-1.89894e-187
1.265e-186
8.9651e-183
1.0953e-179
3.10503e-177
4.0335e-175
3.53002e-173
5.91353e-169
7.07495e-164
4.90679e-159
7.71009e-154
9.37966e-147
-2.93686e-135
-5.11229e-133
-2.71559e-133
-4.68108e-123
-2.41292e-123
-5.76243e-124
-8.50804e-125
-8.74067e-126
-6.66491e-127
-3.94083e-128
-3.76729e-129
-5.17664e-129
-5.07054e-129
-2.59934e-129
-7.99004e-130
-1.61474e-130
8.1822e-229
8.5533e-223
1.05776e-218
-3.51006e-212
-2.61455e-207
-1.50797e-200
-1.47671e-192
-5.28641e-186
-5.96929e-184
5.96493e-184
3.71763e-180
3.08461e-177
6.50728e-175
6.64508e-173
3.24027e-171
2.09331e-167
2.62722e-162
1.78279e-157
2.66939e-152
1.17783e-144
-3.46628e-133
-5.10757e-131
-2.50088e-131
-4.47539e-121
-2.20026e-121
-5.03426e-122
-7.15031e-123
-7.09192e-124
-5.23677e-125
-3.00228e-126
-2.15276e-127
-2.07805e-127
-1.96473e-127
-9.85602e-128
-2.97539e-128
-5.92338e-129
1.23449e-225
-4.02623e-218
-1.73715e-213
-2.14575e-207
-4.64218e-202
-2.65297e-197
-3.32273e-188
-4.57699e-182
-1.59344e-180
-6.22447e-182
1.38052e-177
7.83721e-175
1.24554e-172
1.00379e-170
3.40005e-169
3.77227e-166
4.91412e-161
3.23375e-156
4.69468e-151
1.43877e-142
-4.0272e-131
-4.98455e-129
-2.25085e-129
-4.15769e-119
-1.95267e-119
-4.28634e-120
-5.86387e-121
-5.62175e-122
-4.02498e-123
-2.24164e-124
-1.30471e-125
-8.14239e-126
-7.37418e-126
-3.624e-126
-1.07589e-126
-2.11262e-127
6.30358e-225
-1.47153e-213
-2.19921e-208
-2.51921e-202
-3.76356e-197
-9.67912e-192
-7.94474e-185
-2.73449e-178
-3.63237e-177
-6.18528e-178
4.58061e-175
1.79534e-172
2.17564e-170
1.38626e-168
3.68412e-167
5.62448e-166
6.75341e-165
1.78496e-164
4.8719e-167
1.69547e-140
-4.55704e-129
-4.75018e-127
-1.98088e-127
-3.75188e-117
-1.68609e-117
-3.55592e-118
-4.69138e-119
-4.35252e-120
-3.02502e-121
-1.63914e-122
-8.27831e-124
-3.13794e-124
-2.68031e-124
-1.29154e-124
-3.77575e-125
-7.32226e-126
-2.04542e-218
-1.78685e-213
-8.6791e-209
-7.29392e-200
-7.48662e-195
-4.12262e-186
-1.25764e-180
-1.22291e-174
-7.10211e-174
-1.02801e-174
1.35662e-172
3.69782e-170
3.45928e-168
1.74497e-166
3.75472e-165
4.80624e-164
4.97427e-163
1.17238e-162
8.4317e-167
1.915e-138
-4.97853e-127
-4.41732e-125
-1.70488e-125
-3.2873e-115
-1.416e-115
-2.87336e-116
-3.66052e-117
-3.29028e-118
-2.22224e-119
-1.17307e-120
-5.39629e-122
-1.20601e-122
-9.43473e-123
-4.45899e-123
-1.28535e-123
-2.46499e-124
-1.77204e-211
-4.10826e-205
-1.40076e-200
-1.4804e-195
-6.31737e-191
-2.41576e-186
-4.06556e-175
-4.26988e-171
-1.20358e-170
-1.27285e-171
3.57458e-170
6.82883e-168
4.98975e-166
1.99389e-164
3.49717e-163
3.77636e-162
3.3772e-161
7.11e-161
1.08312e-166
2.06207e-136
-5.2147e-125
-4.00315e-123
-1.43441e-123
-2.79497e-113
-1.15598e-113
-2.26049e-114
-2.78445e-115
-2.42763e-116
-1.59503e-117
-8.21193e-119
-3.55104e-120
-4.72818e-121
-3.21815e-121
-1.49057e-121
-4.2421e-122
-8.05547e-123
-2.50872e-208
-2.8967e-200
-4.01516e-193
-2.65051e-187
-2.98299e-182
-1.79789e-177
-2.2143e-170
-1.20675e-167
-1.77933e-167
-1.3501e-168
8.37689e-168
1.13045e-165
6.51387e-164
2.06017e-162
2.9677e-161
2.71859e-160
2.10291e-159
3.95003e-159
5.30016e-166
2.108e-134
-5.20931e-123
-3.52952e-121
-1.17872e-121
-2.30468e-111
-9.16824e-112
-1.73042e-112
-2.06384e-113
-1.74741e-114
-1.11807e-115
-5.62003e-117
-2.3284e-118
-1.94953e-119
-1.06558e-119
-4.82215e-120
-1.35652e-120
-2.554e-121
-6.61542e-204
-5.14221e-196
-9.42849e-191
-7.30635e-185
-7.71779e-181
-8.9906e-173
-3.58952e-166
-2.84079e-164
-2.31525e-164
-1.27099e-165
1.73064e-165
1.67095e-163
7.66101e-162
1.91583e-160
2.28636e-159
1.78465e-158
1.19334e-157
1.98986e-157
2.41363e-164
2.03867e-132
-4.94259e-121
-3.02125e-119
-9.44651e-120
-1.84188e-109
-7.05954e-110
-1.2881e-110
-1.48967e-111
-1.22639e-112
-7.65011e-114
-3.75805e-115
-1.50829e-116
-8.70109e-118
-3.43957e-118
-1.50917e-118
-4.20047e-119
-7.85126e-120
-2.22477e-199
-7.19793e-194
-2.44434e-189
-1.82038e-178
-2.23865e-173
-2.01526e-168
-3.02405e-162
-5.67668e-161
-2.6729e-161
-1.07848e-162
3.09325e-163
2.19867e-161
8.07211e-160
1.59615e-158
1.59325e-157
1.06214e-156
6.12613e-156
8.97306e-156
1.26896e-162
1.85973e-130
-4.43928e-119
-2.5049e-117
-7.36947e-118
-1.42584e-107
-5.27374e-108
-9.31714e-109
-1.04635e-109
-8.38704e-111
-5.10626e-112
-2.45392e-113
-9.60142e-115
-4.24872e-116
-1.09207e-116
-4.56868e-117
-1.25872e-117
-2.33869e-118
-3.56625e-193
-1.37398e-185
-6.06024e-180
-2.11995e-174
-1.84436e-169
-1.26871e-164
-1.62371e-158
-9.8219e-158
-2.73127e-158
-8.30814e-160
4.4235e-161
2.57094e-159
7.57366e-158
1.18606e-156
9.99511e-156
5.68816e-155
2.82126e-154
3.56276e-154
6.01587e-161
1.59582e-128
-3.7636e-117
-2.00632e-115
-5.58334e-116
-1.06855e-105
-3.81954e-106
-6.54352e-107
-7.14646e-108
-5.58471e-109
-3.32254e-110
-1.56367e-111
-5.98686e-113
-2.23637e-114
-3.47076e-115
-1.3384e-115
-3.648e-116
-6.74585e-117
-7.96525e-190
-1.84403e-184
-8.71161e-179
-9.68102e-174
-2.98029e-168
-1.63852e-161
-6.00184e-155
-1.43915e-154
-2.48355e-155
-5.82754e-157
2.83275e-159
2.67419e-157
6.28898e-156
7.8382e-155
5.61206e-154
2.71666e-153
1.15592e-152
1.21882e-152
2.51936e-159
1.28477e-126
-3.00399e-115
-1.54823e-113
-4.09727e-114
-7.74875e-104
-2.68026e-104
-4.45865e-105
-4.74208e-106
-3.61776e-107
-2.10582e-108
-9.7159e-110
-3.64887e-111
-1.23219e-112
-1.13766e-113
-3.80075e-114
-1.02199e-114
-1.88295e-115
-1.59163e-187
-1.3019e-181
-5.66412e-177
-9.31859e-172
-8.40907e-167
-5.20122e-156
-1.70468e-151
-1.8184e-151
-2.03735e-152
-3.69818e-154
-1.49468e-156
2.47014e-155
4.59066e-154
4.60405e-153
2.79981e-152
1.14688e-151
4.18961e-151
3.48496e-151
9.52697e-158
9.67957e-125
-2.25173e-113
-1.14787e-111
-2.90394e-112
-5.43497e-102
-1.82122e-102
-2.94535e-103
-3.0545e-104
-2.27789e-105
-1.29887e-106
-5.88174e-108
-2.17042e-109
-6.90885e-111
-4.00408e-112
-1.05087e-112
-2.76659e-113
-5.08258e-114
-1.95918e-181
-1.32336e-175
-3.09292e-170
-9.71605e-165
-2.36042e-160
-7.20873e-151
-3.76283e-148
-2.00656e-148
-1.50949e-149
-2.13842e-151
-1.0582e-153
2.02092e-153
2.94062e-152
2.40469e-151
1.22984e-150
4.25966e-150
1.34539e-149
7.93786e-150
4.67678e-155
6.80701e-123
-1.58121e-111
-8.154e-110
-1.98179e-110
-3.68583e-100
-1.19773e-100
-1.88506e-101
-1.90831e-102
-1.39276e-103
-7.78893e-105
-3.46575e-106
-1.25836e-107
-3.86434e-109
-1.56494e-110
-2.85719e-111
-7.23709e-112
-1.32581e-112
-8.79984e-178
-2.74106e-172
-3.13233e-167
-5.2176e-158
-3.64398e-153
-1.10498e-146
-6.63066e-145
-1.94828e-145
-1.00607e-146
-1.11836e-148
-4.88624e-151
1.45276e-151
1.66777e-150
1.11621e-149
4.72604e-149
1.40812e-148
3.87992e-148
1.31474e-148
4.60467e-151
4.45642e-121
-1.03764e-109
-5.53493e-108
-1.2983e-108
-2.4159e-98
-7.62016e-99
-1.16818e-99
-1.15547e-100
-8.26171e-102
-4.53654e-103
-1.98567e-104
-7.1026e-106
-2.13024e-107
-6.81112e-109
-7.79544e-110
-1.83112e-110
-3.34017e-111
-8.49201e-173
-7.07806e-166
-1.09136e-159
-3.0663e-154
-4.93016e-149
-7.53225e-143
-9.49406e-142
-1.66688e-142
-6.01016e-144
-5.31488e-146
-1.91941e-148
8.92177e-150
8.59232e-149
4.56153e-148
1.6092e-147
4.33331e-147
1.01907e-146
1.255e-147
6.27971e-148
2.70892e-119
-6.34706e-108
-3.58097e-106
-8.13985e-107
-1.52976e-96
-4.688e-97
-7.00574e-98
-6.77597e-99
-4.75054e-100
-2.56371e-101
-1.10502e-102
-3.89824e-104
-1.14931e-105
-3.20349e-107
-2.21167e-108
-4.49481e-109
-8.12353e-110
-2.41815e-170
-2.70211e-164
-2.65373e-159
-8.02738e-152
-6.17736e-147
-3.08317e-139
-1.1003e-138
-1.24861e-139
-3.21607e-141
-2.31876e-143
-6.7569e-146
4.16345e-148
4.13168e-147
1.60124e-146
5.24648e-146
1.31158e-145
2.34249e-145
1.42502e-147
1.3546e-147
1.52504e-117
-3.60931e-106
-2.20288e-104
-4.86978e-105
-9.35146e-95
-2.78738e-95
-4.06379e-96
-3.84603e-97
-2.64575e-98
-1.40442e-99
-5.96632e-101
-2.07797e-102
-6.04397e-104
-1.56434e-105
-6.84184e-107
-1.07839e-107
-1.90711e-108
-2.57629e-165
-7.36815e-160
-1.66936e-154
-2.92069e-147
-3.0102e-142
-8.59269e-136
-1.05357e-135
-8.20654e-137
-1.53336e-138
-9.23285e-141
-2.13103e-143
4.19413e-147
1.78005e-145
4.71239e-145
1.86872e-144
3.53719e-144
3.65721e-144
1.54431e-147
8.12064e-146
7.9331e-116
-1.90299e-104
-1.28559e-102
-2.77226e-103
-5.51375e-93
-1.6006e-93
-2.27866e-94
-2.11161e-95
-1.42617e-96
-7.45109e-98
-3.12224e-99
-1.07451e-100
-3.08979e-102
-7.68723e-104
-2.39045e-105
-2.57044e-106
-4.32518e-107
-1.34621e-160
-1.30915e-154
-7.39545e-150
-3.45121e-145
-2.38645e-136
-1.71831e-132
-8.45172e-133
-4.6925e-134
-6.56361e-136
-3.34951e-138
-6.01549e-141
-2.04233e-144
5.37898e-144
5.58188e-144
9.00506e-144
3.45664e-143
1.66343e-142
8.1434e-146
-9.75499e-141
3.8071e-114
-9.27815e-103
-7.10284e-101
-1.49778e-101
-3.13178e-91
-8.86798e-92
-1.23415e-92
-1.12069e-93
-7.43547e-95
-3.82542e-96
-1.58204e-97
-5.38375e-99
-1.53259e-100
-3.72948e-102
-9.37594e-104
-6.28233e-105
-9.50205e-106
-4.00784e-157
-6.65364e-151
-2.15027e-143
-2.75258e-137
-2.46251e-131
-2.60706e-129
-5.85667e-130
-2.30855e-131
-2.52079e-133
-1.0713e-135
-1.43577e-138
1.71332e-144
1.10098e-142
2.74376e-141
4.13744e-140
2.54434e-139
1.32722e-138
7.53692e-142
-6.71628e-137
1.68533e-112
-4.17329e-101
-3.70789e-99
-7.66083e-100
-1.71099e-89
-4.73443e-90
-6.44996e-91
-5.74473e-92
-3.74655e-93
-1.89902e-94
-7.75455e-96
-2.61085e-97
-7.36448e-99
-1.76772e-100
-3.96015e-102
-1.65251e-103
-2.03645e-104
-5.64326e-156
-9.30652e-151
-4.96627e-141
-2.13639e-133
-2.27036e-127
-3.11932e-126
-3.65062e-127
-1.00649e-128
-8.58871e-131
-2.94532e-133
-2.60864e-136
2.80921e-144
1.05396e-138
2.61091e-137
3.67986e-136
2.13024e-135
1.05537e-134
6.90172e-138
-1.22197e-132
6.90154e-111
-1.72912e-99
-1.82554e-97
-3.70096e-98
-8.9754e-88
-2.43174e-88
-3.24836e-89
-2.8412e-90
-1.82288e-91
-9.10776e-93
-3.67365e-94
-1.22421e-95
-3.4237e-97
-8.1393e-99
-1.72093e-100
-4.9023e-102
-4.32566e-103
-5.24868e-149
-4.10995e-143
-1.70876e-136
-6.80103e-130
-9.45293e-124
-3.01063e-123
-2.02341e-124
-4.061e-126
-2.59269e-128
-6.88381e-131
-3.10269e-134
3.26435e-136
1.02324e-134
2.4033e-133
3.16352e-132
1.72536e-131
8.07251e-131
6.11359e-134
4.91571e-120
2.63645e-109
-6.60207e-98
-8.46158e-96
-1.68503e-96
-4.51258e-86
-1.19942e-86
-1.57387e-87
-1.35387e-88
-8.55446e-90
-4.21605e-91
-1.68051e-92
-5.54465e-94
-1.53804e-95
-3.62859e-97
-7.45532e-99
-1.65461e-100
-9.39546e-102
-2.46776e-145
-7.66938e-137
-1.54634e-131
-3.82828e-126
-2.32101e-120
-2.37329e-120
-9.82794e-122
-1.46271e-123
-6.75851e-126
-1.21469e-128
2.69529e-144
4.10596e-132
9.88961e-131
2.15154e-129
2.65578e-128
1.37271e-127
6.17296e-127
5.23444e-130
3.32813e-115
9.5645e-108
-2.33333e-96
-3.68586e-94
-7.21476e-95
-2.17085e-84
-5.67006e-85
-7.32193e-86
-6.20496e-87
-3.86638e-88
-1.88144e-89
-7.41533e-91
-2.42323e-92
-6.66913e-94
-1.56291e-95
-3.16341e-97
-6.11726e-99
-2.1914e-100
-1.22184e-141
-1.60833e-135
-5.40068e-131
-1.6224e-123
-3.81992e-117
-1.55846e-117
-4.22432e-119
-4.68886e-121
-1.55122e-123
-1.4176e-126
6.71216e-144
4.03861e-128
9.17083e-127
1.86458e-125
2.16796e-124
1.06529e-123
4.59206e-123
4.32847e-126
2.86951e-113
3.39852e-106
-7.72632e-95
-1.50618e-92
-2.89889e-93
-9.9794e-83
-2.5643e-83
-3.26393e-84
-2.72965e-85
-1.67998e-86
-8.08159e-88
-3.15216e-89
-1.02075e-90
-2.78805e-92
-6.49351e-94
-1.30274e-95
-2.35178e-97
-5.76135e-99
-2.18164e-140
-1.78617e-133
-2.46462e-128
-1.00469e-116
-4.52799e-114
-8.60751e-115
-1.5873e-116
-1.31298e-118
-3.17165e-121
-4.71721e-125
8.5455e-126
3.63478e-124
7.72112e-123
1.45624e-121
1.59311e-120
7.41377e-120
3.02907e-119
3.45419e-122
1.80886e-111
1.23079e-104
-2.45417e-93
-5.7633e-91
-1.09065e-91
-4.38075e-81
-1.10781e-81
-1.39138e-82
-1.15007e-83
-7.00265e-85
-3.33502e-86
-1.28875e-87
-4.13854e-89
-1.12232e-90
-2.5987e-92
-5.1816e-94
-9.04363e-96
-1.72465e-97
-1.47554e-134
-9.21276e-129
-2.95096e-124
-1.68975e-112
-4.06249e-111
-4.13026e-112
-5.23659e-114
-3.07356e-116
-5.15456e-119
-4.22242e-142
1.10088e-121
4.33548e-120
1.03814e-118
1.91552e-117
2.00513e-116
9.32164e-116
4.49024e-115
2.65803e-118
1.14692e-109
4.67095e-103
-7.732e-92
-2.06137e-89
-3.83364e-90
-1.8366e-79
-4.56765e-80
-5.66249e-81
-4.63078e-82
-2.7936e-83
-1.31921e-84
-5.05752e-86
-1.61224e-87
-4.34379e-89
-1.00031e-90
-1.98475e-92
-3.40195e-94
-9.34849e-130
-1.10585e-123
-2.05611e-118
-6.65587e-109
-2.86871e-108
-1.73281e-109
-1.52286e-111
-5.80857e-114
-5.50327e-117
4.33459e-119
4.94787e-117
1.78567e-115
4.23173e-114
7.09446e-113
6.71397e-112
2.8878e-111
1.27632e-110
2.20569e-111
8.17266e-108
1.83924e-101
-2.48222e-90
-6.88134e-88
-1.25617e-88
-7.36088e-78
-1.79723e-78
-2.19759e-79
-1.77859e-80
-1.06412e-81
-4.98959e-83
-1.90055e-84
-6.02193e-86
-1.61343e-87
-3.69741e-89
-7.30537e-91
-1.02218e-124
-1.03329e-119
-3.54716e-113
-1.28826e-105
-1.63177e-105
-6.4922e-107
-3.86142e-109
-8.14036e-112
-1.98131e-136
1.21413e-115
8.24176e-114
2.58679e-112
4.3181e-111
6.55929e-110
5.95788e-109
2.37232e-108
8.38418e-108
7.47963e-107
6.88476e-106
7.19772e-100
-8.08537e-89
-2.14202e-86
-3.82952e-87
-2.825e-76
-6.7535e-77
-8.13047e-78
-6.50743e-79
-3.86223e-80
-1.79991e-81
-6.82081e-83
-2.15112e-84
-5.73816e-86
-1.30969e-87
-2.57855e-89
-2.29962e-121
-3.02766e-116
-2.54395e-110
-1.57176e-102
-7.50279e-103
-2.04035e-104
-8.39991e-107
-8.72848e-110
3.70294e-136
1.51908e-114
1.00496e-112
3.11447e-111
4.77616e-110
6.98956e-109
6.33575e-108
2.49919e-107
8.39605e-107
4.08865e-104
2.11481e-103
2.68938e-98
-2.56801e-87
-6.21862e-85
-1.08476e-85
-1.04016e-74
-2.42717e-75
-2.86903e-76
-2.26669e-77
-1.33354e-78
-6.17812e-80
-2.33141e-81
-7.32789e-83
-1.94874e-84
-4.43488e-86
-8.70785e-88
-3.13342e-119
3.62371e-103
1.17684e-100
9.39827e-97
-7.53616e-86
-1.68691e-83
-2.85508e-84
-3.67915e-73
-8.35688e-74
-9.66777e-75
-7.51837e-76
-4.37634e-77
-2.01403e-78
-7.56996e-80
-2.37343e-81
-6.3002e-83
-1.4314e-84
-2.8059e-86
1.1427e-99
2.76047e-95
-1.94365e-84
-4.29124e-82
-6.9969e-83
-1.24999e-71
-2.75956e-72
-3.11532e-73
-2.37681e-74
-1.36492e-75
-6.22797e-77
-2.32972e-78
-7.28773e-80
-1.93264e-81
-4.38886e-83
-8.59935e-85
-2.87056e-110
-4.20926e-83
-1.02789e-80
-1.6041e-81
-4.07039e-70
-8.7362e-71
-9.60778e-72
-7.16931e-73
-4.04794e-74
-1.82596e-75
-6.78502e-77
-2.11595e-78
-5.60693e-80
-1.27375e-81
-2.49743e-83
-1.09291e-115
-7.25694e-82
-2.31894e-79
-3.462e-80
-1.26502e-68
-2.64484e-69
-2.83384e-70
-2.06431e-71
-1.14232e-72
-5.07629e-74
-1.86823e-75
-5.79723e-77
-1.53377e-78
-3.4862e-80
-6.84553e-82
-5.62648e-105
-9.09274e-81
-4.86551e-78
-7.05333e-79
-3.73143e-67
-7.62138e-68
-7.97049e-69
-5.66756e-70
-3.06745e-71
-1.33845e-72
-4.86144e-74
-1.49659e-75
-3.94575e-77
-8.96634e-79
-1.7635e-80
0
-6.47854e-80
-9.1289e-77
-1.33752e-77
-1.03871e-65
-2.07743e-66
-2.12646e-67
-1.47851e-68
-7.82489e-70
-3.34519e-71
-1.19504e-72
-3.6366e-74
-9.52609e-76
-2.16004e-77
-4.25176e-79
9.04336e-84
8.20432e-103
-1.41014e-75
-2.24215e-76
-2.71694e-64
-5.32171e-65
-5.34396e-66
-3.64302e-67
-1.88833e-68
-7.90636e-70
-2.77159e-71
-8.30808e-73
-2.15437e-74
-4.85988e-76
-9.55462e-78
4.09394e-80
8.06586e-96
-1.53896e-74
-3.02247e-75
-6.66837e-63
-1.27433e-63
-1.25556e-64
-8.4111e-66
-4.28129e-67
-1.75822e-68
-6.045e-70
-1.78059e-71
-4.55432e-73
-1.01831e-74
-1.99326e-76
1.78389e-76
-7.76371e-86
-8.70285e-74
-3.49293e-74
-1.53994e-61
-2.84465e-62
-2.73951e-63
-1.80374e-64
-9.03606e-66
-3.64913e-67
-1.23219e-68
-3.56417e-70
-8.96904e-72
-1.9804e-73
-3.84357e-75
7.44271e-73
-8.25295e-83
-3.39569e-77
-8.98645e-73
-3.36646e-60
-5.92525e-61
-5.5259e-62
-3.56248e-63
-1.75678e-64
-6.99215e-66
-2.32459e-67
-6.61133e-69
-1.63556e-70
-3.55681e-72
-6.81245e-74
2.98397e-69
-4.3406e-79
-1.52691e-73
-3.04652e-71
-6.98425e-59
-1.15587e-59
-1.02887e-60
-6.43542e-62
-3.11247e-63
-1.22116e-64
-4.00611e-66
-1.123e-67
-2.73427e-69
-5.85094e-71
3.59556e-247
-1.5201e-240
-7.14798e-235
-1.40973e-229
-3.96088e-225
-2.22199e-219
-4.50805e-214
-2.38074e-209
-1.52605e-198
-6.70054e-197
9.94016e-194
6.40409e-190
6.56779e-187
2.37753e-184
5.53838e-182
1.5445e-177
1.94861e-172
1.65633e-167
3.452e-162
4.06751e-156
-1.5709e-144
-1.98569e-141
-1.47468e-141
-2.62124e-131
-1.65831e-131
-4.7667e-132
-8.3308e-133
-9.99113e-134
-8.79313e-135
-5.92855e-136
-3.15488e-137
-1.37486e-138
-7.72116e-140
-2.39852e-140
-1.04027e-140
-2.96646e-141
9.05657e-244
6.67976e-238
1.62802e-233
-5.5211e-226
-4.15951e-221
-4.51744e-216
-1.06733e-210
-1.78362e-205
-1.01976e-194
-1.83586e-193
6.48408e-191
2.69602e-187
1.97039e-184
5.45423e-182
9.16865e-180
1.99283e-175
2.36963e-170
1.86021e-165
3.57982e-160
4.58806e-154
-1.61963e-142
-2.2131e-139
-1.51383e-139
-2.80791e-129
-1.68391e-129
-4.61111e-130
-7.70919e-131
-8.87441e-132
-7.51732e-133
-4.88943e-134
-2.51491e-135
-1.05466e-136
-4.87269e-138
-1.06407e-138
-4.30798e-139
-1.19506e-139
-1.9553e-239
-5.91498e-233
-9.14427e-227
-1.33473e-221
-2.02253e-216
-9.99845e-212
-9.08779e-207
-7.57974e-197
-5.36074e-191
-4.39786e-190
3.73254e-188
1.02254e-184
5.39835e-182
1.15337e-179
1.35725e-177
2.01545e-173
2.30329e-168
1.69824e-163
3.0286e-158
5.10233e-152
-1.66948e-140
-2.40536e-137
-1.51339e-137
-2.92338e-127
-1.66435e-127
-4.34808e-128
-6.96448e-129
-7.70748e-130
-6.29443e-131
-3.9562e-132
-1.97015e-133
-7.98249e-135
-3.19091e-136
-4.71054e-137
-1.73767e-137
-4.68702e-138
-1.58241e-241
-7.95543e-234
-3.29055e-228
-4.00345e-223
-2.56379e-218
-5.37598e-212
-6.5179e-200
-4.73807e-191
-2.32341e-187
-9.37774e-187
1.91931e-185
3.51612e-182
1.3535e-179
2.24788e-177
1.81944e-175
1.52695e-171
1.72302e-166
1.217e-161
2.02294e-156
5.64934e-150
-1.74036e-138
-2.55197e-135
-1.47547e-135
-2.95824e-125
-1.60132e-125
-3.99683e-126
-6.14203e-127
-6.54451e-128
-5.1609e-129
-3.13966e-130
-1.51627e-131
-5.95411e-133
-2.1459e-134
-2.11488e-135
-6.83352e-136
-1.78901e-136
-1.17896e-232
-6.68218e-226
-2.03084e-220
-1.46322e-213
-2.74972e-208
-3.5019e-199
-2.46425e-194
-1.56407e-186
-8.4199e-184
-1.78385e-183
8.71995e-183
1.09494e-179
3.10353e-177
4.03176e-175
2.28521e-173
8.1399e-170
9.3831e-165
6.47026e-160
1.01198e-154
6.27838e-148
-1.84663e-136
-2.6454e-133
-1.40484e-133
-2.90983e-123
-1.49987e-123
-3.58153e-124
-5.28744e-125
-5.43186e-126
-4.14224e-127
-2.44283e-128
-1.14591e-129
-4.37203e-131
-1.46428e-132
-9.83404e-134
-2.62664e-134
-6.64498e-135
-2.70759e-227
-6.6812e-221
-2.59116e-215
-1.0787e-208
-7.89144e-204
-5.51016e-197
-6.25861e-189
-2.27553e-182
-2.61503e-180
-3.04204e-180
3.42005e-180
3.08375e-177
6.5043e-175
6.64419e-173
2.80503e-171
2.78765e-168
3.3658e-163
2.28793e-158
3.41727e-153
7.02592e-146
-1.98971e-134
-2.68012e-131
-1.30765e-131
-2.78184e-121
-1.36752e-121
-3.12836e-122
-4.44253e-123
-4.40581e-124
-3.25338e-125
-1.86259e-126
-8.49948e-128
-3.1574e-129
-1.00316e-130
-4.83463e-132
-9.9159e-133
-2.40197e-133
-7.34522e-225
-1.24771e-214
-5.42629e-210
-5.8616e-204
-1.28127e-198
-7.5255e-194
-1.25786e-184
-2.02997e-178
-7.00907e-177
-4.66439e-177
1.04362e-177
7.83535e-175
1.24499e-172
1.00372e-170
3.32487e-169
5.27742e-167
6.12877e-162
4.06243e-157
5.91653e-152
7.90242e-144
-2.15549e-132
-2.65361e-129
-1.19084e-129
-2.58435e-119
-1.21355e-119
-2.66321e-120
-3.64243e-121
-3.49141e-122
-2.49959e-123
-1.39107e-124
-6.18378e-126
-2.24068e-127
-6.84436e-129
-2.54461e-130
-3.70935e-131
-8.45307e-132
-3.06619e-223
-4.84304e-210
-7.25034e-205
-8.14265e-199
-1.20197e-193
-4.59078e-188
-3.13997e-181
-1.25628e-174
-1.62977e-173
-6.49192e-174
1.03222e-175
1.79492e-172
2.17474e-170
1.38618e-168
3.68411e-167
5.62427e-166
6.76184e-165
2.56178e-164
1.16344e-166
8.83697e-142
-2.31485e-130
-2.56578e-127
-1.06123e-127
-2.33222e-117
-1.04784e-117
-2.20916e-118
-2.9136e-119
-2.70243e-120
-1.87793e-121
-1.01714e-122
-4.41039e-124
-1.56126e-125
-4.62446e-127
-1.42959e-128
-1.39639e-129
-2.89954e-130
-9.7098e-215
-8.15537e-210
-3.4159e-205
-2.03836e-196
-2.10042e-191
-1.64326e-182
-5.10969e-177
-5.83211e-171
-3.29872e-170
-8.21556e-171
-2.11448e-172
3.69667e-170
3.45791e-168
1.74487e-166
3.7547e-165
4.80604e-164
4.98026e-163
1.62826e-162
1.50144e-165
9.71466e-140
-2.43059e-128
-2.42003e-125
-9.25273e-126
-2.04364e-115
-8.80014e-116
-1.78503e-116
-2.27309e-117
-2.04244e-118
-1.37912e-119
-7.27787e-121
-3.08179e-122
-1.06726e-123
-3.08226e-125
-8.43445e-127
-5.41799e-128
-9.71996e-129
-4.67048e-208
-1.23357e-201
-4.23624e-197
-4.31462e-192
-1.79879e-187
-7.11464e-183
-2.07624e-171
-2.11721e-167
-5.86791e-167
-9.49138e-168
-2.79507e-169
6.82391e-168
4.98789e-166
1.99379e-164
3.49715e-163
3.77621e-162
3.3811e-161
9.51781e-161
1.06786e-165
1.03811e-137
-2.46633e-126
-2.22296e-123
-7.88665e-124
-1.73786e-113
-7.18479e-114
-1.40431e-114
-1.72896e-115
-1.50671e-116
-9.89615e-118
-5.09344e-119
-2.10851e-120
-7.15226e-122
-2.02114e-123
-5.11801e-125
-2.23184e-126
-3.20194e-127
-7.56264e-204
-1.82401e-196
-1.939e-189
-1.25277e-183
-1.42043e-178
-8.6256e-174
-1.1519e-166
-6.21076e-164
-9.21611e-164
-1.00232e-164
-2.57056e-166
1.12756e-165
6.51158e-164
2.06008e-162
2.96768e-161
2.71847e-160
2.10522e-159
5.08651e-159
1.75431e-165
1.06809e-135
-2.3974e-124
-1.98477e-121
-6.5635e-122
-1.43333e-111
-5.69922e-112
-1.07509e-112
-1.28151e-113
-1.08443e-114
-6.93552e-116
-3.48492e-117
-1.41171e-118
-4.69542e-120
-1.30145e-121
-3.13657e-123
-9.99893e-125
-1.04761e-125
-8.49587e-200
-2.72287e-192
-4.91611e-187
-3.44926e-181
-3.74922e-177
-4.44077e-169
-1.91827e-162
-1.51461e-160
-1.28517e-160
-9.67546e-162
-2.0516e-163
1.6529e-163
7.65847e-162
1.91576e-160
2.28634e-159
1.78457e-158
1.19459e-157
2.46781e-157
3.2392e-164
1.0501e-133
-2.21806e-122
-1.71861e-119
-5.324e-120
-1.14584e-109
-4.38934e-110
-8.004e-111
-9.25052e-112
-7.61078e-113
-4.74486e-114
-2.32982e-115
-9.24405e-117
-3.01763e-118
-8.21776e-120
-1.91647e-121
-4.89195e-123
-3.46977e-124
-8.8031e-196
-2.81599e-190
-9.32975e-186
-8.78752e-175
-1.09495e-169
-9.90956e-165
-1.6745e-158
-3.13079e-157
-1.59466e-157
-8.56077e-159
-1.48978e-160
2.08947e-161
8.06959e-160
1.59609e-158
1.59323e-157
1.0621e-156
6.13218e-156
1.07844e-155
1.57664e-162
9.80804e-132
-1.94392e-120
-1.43969e-117
-4.20026e-118
-8.87345e-108
-3.27994e-108
-5.79074e-109
-6.49855e-110
-5.20519e-111
-3.16695e-112
-1.5211e-113
-5.91654e-115
-1.89724e-116
-5.08266e-118
-1.15786e-119
-2.56585e-121
-1.19867e-122
-1.55787e-189
-5.85274e-182
-2.83159e-176
-9.87356e-171
-8.98299e-166
-6.25086e-161
-9.37203e-155
-5.63689e-154
-1.75366e-154
-6.97031e-156
-9.96095e-158
1.94965e-159
7.57129e-158
1.18601e-156
9.99496e-156
5.68795e-155
2.82396e-154
4.2101e-154
7.23704e-161
8.66297e-130
-1.60778e-118
-1.16372e-115
-3.21493e-116
-6.65289e-106
-2.37638e-106
-4.06809e-107
-4.43946e-108
-3.46653e-109
-2.06079e-110
-9.69206e-112
-3.69902e-113
-1.16614e-114
-3.07634e-116
-6.88215e-118
-1.40223e-119
-4.47657e-121
-3.41615e-186
-7.4416e-181
-4.13582e-175
-5.96037e-170
-2.17794e-164
-9.91607e-158
-3.63074e-151
-8.75375e-151
-1.71426e-151
-5.23375e-153
-6.14888e-155
-6.18982e-158
6.28625e-156
7.83794e-155
5.61197e-154
2.71657e-153
1.15707e-152
1.45844e-152
2.97873e-159
7.20845e-128
-1.25101e-116
-9.05213e-114
-2.38088e-114
-4.82694e-104
-1.66829e-104
-2.77296e-105
-2.94674e-106
-2.24615e-107
-1.30632e-108
-6.02246e-110
-2.25743e-111
-7.00239e-113
-1.8206e-114
-4.01196e-116
-7.78347e-118
-1.85162e-119
-8.52514e-184
-7.17371e-178
-3.14954e-173
-4.87052e-168
-4.07022e-163
-3.70743e-152
-1.08208e-147
-1.18527e-147
-1.50559e-148
-3.59814e-150
-3.50871e-152
-1.3729e-154
4.58501e-154
4.60388e-153
2.79976e-152
1.14685e-151
4.19479e-151
4.47735e-151
1.09066e-157
5.63191e-126
-9.13164e-115
-6.75768e-112
-1.70104e-112
-3.38767e-102
-1.13419e-102
-1.83263e-103
-1.89882e-104
-1.41473e-105
-8.0594e-107
-3.64639e-108
-1.3437e-109
-4.10463e-111
-1.05263e-112
-2.28916e-114
-4.31179e-116
-8.44116e-118
-1.1655e-177
-7.85996e-172
-1.83976e-166
-5.89012e-161
-1.46077e-156
-5.23412e-147
-2.50762e-144
-1.39021e-144
-1.19354e-145
-2.26567e-147
-1.84608e-149
-7.14375e-152
2.92261e-152
2.4046e-151
1.22982e-150
4.25956e-150
1.34799e-149
1.22903e-149
3.55639e-156
4.11851e-124
-6.23644e-113
-4.82871e-110
-1.16896e-110
-2.29898e-100
-7.46348e-101
-1.17354e-101
-1.18686e-102
-8.65363e-104
-4.83469e-105
-2.14915e-106
-7.79407e-108
-2.34675e-109
-5.94086e-111
-1.27659e-112
-2.35867e-114
-4.11667e-116
-4.32392e-174
-1.42787e-168
-1.56929e-161
-3.62877e-154
-2.61445e-149
-8.08507e-143
-4.69245e-141
-1.43434e-141
-8.53628e-143
-1.30594e-144
-8.94448e-147
-3.04644e-149
1.60764e-150
1.11616e-149
4.72599e-149
1.4081e-148
3.89317e-148
3.05909e-148
2.001e-154
2.81005e-122
-3.97446e-111
-3.29406e-108
-7.70348e-109
-1.50803e-98
-4.75168e-99
-7.27695e-100
-7.19043e-101
-5.13586e-102
-2.81715e-103
-1.2318e-104
-4.40106e-106
-1.3074e-107
-3.2699e-109
-6.94966e-111
-1.26636e-112
-2.07434e-114
-3.61632e-169
-5.15921e-162
-6.34039e-156
-2.03892e-150
-3.56111e-145
-5.57275e-139
-7.1981e-138
-1.30318e-138
-5.51387e-140
-6.88461e-142
-3.97939e-144
-1.16204e-146
6.75987e-149
4.56118e-148
1.60921e-147
4.3333e-147
1.02472e-146
6.75643e-147
9.88317e-151
1.78288e-120
-2.35732e-109
-2.14007e-106
-4.85391e-107
-9.55676e-97
-2.92552e-97
-4.36718e-98
-4.21939e-99
-2.95492e-100
-1.5929e-101
-6.85813e-103
-2.41661e-104
-7.08989e-106
-1.75345e-107
-3.68921e-109
-6.64921e-111
-1.05188e-112
-1.12417e-166
-1.64668e-160
-1.6129e-155
-5.07469e-148
-3.93212e-143
-2.3285e-135
-9.1477e-135
-1.04634e-135
-3.2169e-137
-3.32043e-139
-1.6225e-141
-3.99456e-144
-7.33627e-148
1.60067e-146
5.2467e-146
1.31159e-145
2.35825e-145
1.15511e-145
9.7628e-147
1.04812e-118
-1.2978e-107
-1.32104e-104
-2.91595e-105
-5.84717e-95
-1.7409e-95
-2.53524e-96
-2.39667e-97
-1.64683e-98
-8.73158e-100
-3.70505e-101
-1.28887e-102
-3.73813e-104
-9.15039e-106
-1.90751e-107
-3.40644e-109
-5.28189e-111
-9.10004e-162
-2.74393e-156
-6.7101e-151
-1.94915e-143
-2.00055e-138
-6.65226e-132
-9.76179e-132
-7.43158e-133
-1.69421e-134
-1.46307e-136
-6.04271e-139
-1.22605e-141
-8.88874e-145
4.701e-145
1.86894e-144
3.5372e-144
3.66262e-144
5.01265e-145
3.51164e-145
5.68759e-117
-6.61535e-106
-7.73125e-103
-1.6656e-103
-3.45066e-93
-1.00056e-93
-1.42278e-94
-1.31693e-95
-8.88393e-97
-4.63585e-98
-1.9402e-99
-6.66886e-101
-1.91389e-102
-4.64129e-104
-9.59481e-106
-1.69976e-107
-2.60253e-109
-6.70994e-157
-6.6387e-151
-4.56819e-146
-2.44864e-141
-1.47369e-132
-1.37794e-128
-8.8293e-129
-4.63546e-130
-8.07771e-132
-5.85358e-134
-2.03768e-136
-3.28085e-139
-1.54932e-142
5.47089e-144
9.02884e-144
3.45675e-143
1.66452e-142
6.14836e-145
7.78755e-142
2.83818e-115
-3.11584e-104
-4.28112e-101
-9.02322e-102
-1.96171e-91
-5.54857e-92
-7.71292e-93
-6.99544e-94
-4.63562e-95
-2.38199e-96
-9.83852e-98
-3.34377e-99
-9.50349e-101
-2.2852e-102
-4.68896e-104
-8.24825e-106
-1.25183e-107
-2.43746e-153
-3.77992e-147
-1.23288e-139
-1.59244e-133
-1.55596e-127
-2.18688e-125
-6.93019e-126
-2.56128e-127
-3.49298e-129
-2.11632e-131
-6.1826e-134
-7.47363e-137
5.11949e-145
2.8167e-141
4.13806e-140
2.5444e-139
1.32668e-138
7.79136e-142
7.1264e-138
1.29847e-113
-1.35499e-102
-2.23881e-99
-4.62503e-100
-1.07267e-89
-2.96497e-90
-4.03471e-91
-3.58925e-92
-2.33791e-93
-1.18352e-94
-4.82657e-96
-1.62288e-97
-4.57096e-99
-1.09071e-100
-2.22323e-102
-3.88652e-104
-5.85925e-106
-3.64263e-152
-6.11604e-147
-2.87523e-137
-1.31306e-129
-1.44853e-123
-2.71559e-122
-4.69482e-123
-1.25228e-124
-1.35807e-126
-6.85006e-129
-1.64195e-131
-1.32897e-134
2.35512e-144
2.66583e-137
3.6804e-136
2.1303e-135
1.05509e-134
7.1264e-138
6.3126e-134
5.44359e-112
-5.45242e-101
-1.1037e-97
-2.23797e-98
-5.63151e-88
-1.52424e-88