/*--------------------------------*- C++ -*----------------------------------*\
| =========                 |                                                 |
| \\      /  F ield         | OpenFOAM: The Open Source CFD Toolbox           |
|  \\    /   O peration     | Version:  v2012                                 |
|   \\  /    A nd           | Website:  www.openfoam.com                      |
|    \\/     M anipulation  |                                                 |
\*---------------------------------------------------------------------------*/
FoamFile
{
    version     2.0;
    format      ascii;
    class       surfaceScalarField;
    location    "0.1";
    object      phi;
}
// * * * * * * * * * * * * * * * * * * * * * * * * * * * * * * * * * * * * * //

dimensions      [0 3 -1 0 0 0 0];
oriented        oriented;


internalField   nonuniform List<scalar> 
6403
(
4.89155e-16
3.68132e-13
3.29361e-18
4.10136e-15
9.70057e-13
2.54653e-17
1.4525e-14
1.3751e-12
-4.99382e-17
3.46024e-14
1.57653e-12
-2.21797e-17
6.74105e-14
1.58567e-12
6.41958e-17
1.20488e-13
1.37002e-12
1.21392e-16
1.99559e-13
9.2995e-13
5.76927e-16
3.09982e-13
2.24331e-13
7.38879e-16
4.55642e-13
-7.29573e-13
1.12742e-15
6.48706e-13
-1.94523e-12
2.93273e-15
8.61443e-13
-3.45959e-12
-7.23862e-16
1.12146e-12
-5.30784e-12
2.8026e-17
1.42177e-12
-7.5018e-12
1.36161e-17
1.77011e-12
-1.00779e-11
-9.75119e-17
2.16796e-12
-1.30569e-11
7.3813e-17
2.6191e-12
-1.64686e-11
-6.13999e-17
3.12662e-12
-2.03394e-11
2.57915e-17
3.69364e-12
-2.47008e-11
-3.8624e-17
4.32278e-12
-2.95804e-11
-1.55953e-17
5.0166e-12
-3.50065e-11
-3.07221e-17
5.77679e-12
-4.10059e-11
-1.57817e-17
6.60481e-12
-4.76085e-11
-3.1962e-17
7.50114e-12
-5.48313e-11
-2.53374e-17
8.4659e-12
-6.2703e-11
-2.62472e-17
9.49796e-12
-7.12353e-11
-2.27003e-17
1.05955e-11
-8.04463e-11
-1.55343e-17
1.17553e-11
-9.03447e-11
-1.19909e-17
1.2973e-11
-1.00925e-10
-7.35857e-18
1.42428e-11
-1.122e-10
-5.45717e-18
1.55571e-11
-1.2414e-10
-3.37788e-18
1.69067e-11
-1.36737e-10
-1.87243e-18
1.82808e-11
-1.49962e-10
-2.74599e-19
1.96665e-11
-1.63772e-10
1.73454e-18
2.1049e-11
-1.7812e-10
2.79732e-18
2.24117e-11
-1.92944e-10
3.24377e-18
-2.08179e-10
4.05078e-18
8.1736e-16
3.67405e-13
-4.76247e-17
6.42306e-15
9.64147e-13
8.55196e-17
2.15812e-14
1.35956e-12
2.10412e-16
5.10433e-14
1.54851e-12
-2.85907e-16
9.87257e-14
1.53793e-12
1.10399e-16
1.71757e-13
1.29711e-12
7.76256e-17
2.72131e-13
8.30302e-13
-3.93156e-17
3.933e-13
1.01559e-13
-5.11342e-17
5.44338e-13
-8.82386e-13
-3.03489e-16
7.4616e-13
-2.13801e-12
1.33738e-15
9.67102e-13
-3.69998e-12
-2.44674e-15
1.24088e-12
-5.5875e-12
-8.06914e-16
1.5486e-12
-7.81755e-12
-9.19151e-16
1.90623e-12
-1.04366e-11
-1.54211e-16
2.3109e-12
-1.34623e-11
-1.05009e-16
2.76725e-12
-1.69248e-11
3.86389e-17
3.2782e-12
-2.08504e-11
-9.34429e-18
3.84745e-12
-2.52699e-11
4.62044e-17
4.47815e-12
-3.02109e-11
5.0616e-18
5.17271e-12
-3.57011e-11
1.74258e-17
5.93354e-12
-4.17669e-11
-3.49813e-17
6.76195e-12
-4.84373e-11
-1.03998e-17
7.65896e-12
-5.57286e-11
-5.1833e-17
8.62442e-12
-6.36688e-11
-2.34032e-17
9.65753e-12
-7.22687e-11
-4.31864e-17
1.07562e-11
-8.15452e-11
-1.25299e-17
1.19174e-11
-9.15061e-11
-2.21519e-17
1.31365e-11
-1.02144e-10
-4.13426e-18
1.44077e-11
-1.13471e-10
-1.13228e-17
1.57233e-11
-1.25456e-10
-3.31585e-18
1.7074e-11
-1.38088e-10
-7.02378e-18
1.84488e-11
-1.51337e-10
-8.57927e-19
1.98349e-11
-1.65158e-10
-7.68366e-19
2.12171e-11
-1.79502e-10
2.84433e-18
2.25788e-11
-1.94306e-10
1.62445e-18
-2.09501e-10
3.61409e-18
1.25258e-15
3.66215e-13
-3.49291e-17
9.55084e-15
9.56058e-13
-9.9278e-17
3.21832e-14
1.3376e-12
-3.03251e-16
6.74405e-14
1.51087e-12
4.03772e-16
1.2649e-13
1.47965e-12
2.54839e-16
2.06106e-13
1.21952e-12
-3.8265e-16
3.07532e-13
7.29586e-13
5.91658e-16
4.24792e-13
-1.81049e-14
-6.3771e-16
5.65024e-13
-1.02573e-12
-1.5649e-16
7.4942e-13
-2.31801e-12
3.2146e-16
9.6892e-13
-3.91625e-12
5.83429e-16
1.2527e-12
-5.84507e-12
3.15741e-15
1.54823e-12
-8.12685e-12
-1.54967e-15
1.90866e-12
-1.07946e-11
1.72257e-16
2.31835e-12
-1.38728e-11
-1.96563e-18
2.78465e-12
-1.73895e-11
1.4327e-16
3.30653e-12
-2.13724e-11
2.60558e-17
3.88863e-12
-2.58517e-11
1.26644e-17
4.5329e-12
-3.08551e-11
3.5479e-17
5.24197e-12
-3.64099e-11
1.92104e-17
6.01752e-12
-4.25422e-11
5.00091e-17
6.86106e-12
-4.92807e-11
-2.98587e-18
7.77316e-12
-5.66407e-11
1.68514e-17
8.75396e-12
-6.46496e-11
-1.55722e-17
9.80235e-12
-7.33171e-11
3.39465e-18
1.09164e-11
-8.26592e-11
-8.56757e-18
1.20928e-11
-9.26825e-11
4.33167e-18
1.33268e-11
-1.03378e-10
-4.23873e-18
1.46125e-11
-1.14757e-10
8.84264e-19
1.5942e-11
-1.26785e-10
-6.14093e-18
1.73058e-11
-1.39451e-10
-3.24778e-18
1.86927e-11
-1.52724e-10
-4.91561e-18
2.00895e-11
-1.66555e-10
-6.4394e-19
2.1481e-11
-1.80894e-10
8.5264e-20
2.28502e-11
-1.95675e-10
1.25764e-18
-2.10829e-10
1.87639e-18
1.3814e-15
3.64876e-13
-1.52074e-17
1.05566e-14
9.46934e-13
-6.90098e-17
3.31778e-14
1.3152e-12
-1.58311e-16
6.99387e-14
1.47243e-12
8.59197e-17
1.31756e-13
1.41783e-12
2.70245e-16
2.17718e-13
1.13633e-12
-1.57793e-16
3.27941e-13
6.21095e-13
5.20683e-16
4.60251e-13
-1.5218e-13
-3.21702e-16
6.1862e-13
-1.18722e-12
-4.43725e-16
8.1609e-13
-2.5151e-12
1.89853e-16
1.04872e-12
-4.15159e-12
-4.17236e-16
1.34413e-12
-6.12017e-12
2.61652e-15
1.64679e-12
-8.44808e-12
-2.28337e-15
2.01514e-12
-1.11623e-11
7.13761e-17
2.43256e-12
-1.42914e-11
-1.80289e-16
2.9061e-12
-1.78615e-11
2.00572e-16
3.43557e-12
-2.1902e-11
-1.58194e-17
4.02555e-12
-2.64413e-11
6.97899e-17
4.67875e-12
-3.1508e-11
2.69852e-17
5.3974e-12
-3.71285e-11
3.32891e-17
6.18392e-12
-4.33286e-11
4.39009e-18
7.03953e-12
-5.01362e-11
3.35227e-17
7.96508e-12
-5.75661e-11
5.02638e-18
8.96033e-12
-6.56448e-11
2.06613e-17
1.00243e-11
-7.4381e-11
5.31583e-18
1.11547e-11
-8.37895e-11
1.92519e-17
1.23482e-11
-9.38758e-11
7.57504e-18
1.35997e-11
-1.04629e-10
1.30223e-17
1.4903e-11
-1.1606e-10
2.46511e-18
1.625e-11
-1.28132e-10
3.14538e-18
1.76307e-11
-1.40832e-10
-2.98403e-18
1.90336e-11
-1.54127e-10
-8.56295e-19
2.04451e-11
-1.67966e-10
-1.42751e-18
2.18497e-11
-1.82298e-10
1.46774e-18
2.32299e-11
-1.97055e-10
3.29002e-19
-2.12165e-10
1.96916e-18
1.38777e-15
3.63498e-13
4.09458e-18
1.06837e-14
9.37717e-13
-7.84092e-17
3.36395e-14
1.29289e-12
-2.5736e-16
6.93226e-14
1.43475e-12
2.33792e-16
1.29875e-13
1.35745e-12
1.48773e-16
2.15301e-13
1.05445e-12
-4.26455e-17
3.25141e-13
5.13555e-13
6.07168e-16
4.62688e-13
-2.91341e-13
-3.0427e-16
6.16292e-13
-1.34492e-12
-3.61493e-16
8.14963e-13
-2.71191e-12
-2.23436e-17
1.05057e-12
-4.38922e-12
8.20296e-17
1.35225e-12
-6.40109e-12
2.28535e-15
1.66065e-12
-8.7772e-12
-2.22944e-15
2.03983e-12
-1.15413e-11
-2.151e-16
2.47009e-12
-1.47236e-11
-1.10364e-16
2.95949e-12
-1.83497e-11
7.21144e-17
3.50665e-12
-2.24493e-11
3.65191e-17
4.11613e-12
-2.70504e-11
2.13615e-17
4.79001e-12
-3.21817e-11
5.60566e-17
5.53074e-12
-3.78689e-11
3.22948e-17
6.34013e-12
-4.41376e-11
6.20306e-17
7.21957e-12
-5.10153e-11
3.66359e-17
8.1695e-12
-5.85157e-11
4.4256e-17
9.18985e-12
-6.66649e-11
2.1867e-17
1.02793e-11
-7.54703e-11
3.04484e-17
1.14357e-11
-8.49457e-11
1.89094e-17
1.26552e-11
-9.50952e-11
2.28994e-17
1.39327e-11
-1.05907e-10
1.24391e-17
1.52617e-11
-1.17389e-10
1.12988e-17
1.66336e-11
-1.29504e-10
2.60958e-18
1.80382e-11
-1.42237e-10
1.71908e-18
1.94636e-11
-1.55552e-10
-1.76096e-18
2.08957e-11
-1.69398e-10
4.57161e-19
2.23184e-11
-1.83721e-10
6.65261e-19
2.3714e-11
-1.9845e-10
1.64548e-18
-2.13514e-10
1.45765e-18
1.42264e-15
3.62151e-13
-3.13996e-17
1.05327e-14
9.2889e-13
-1.13472e-16
3.44503e-14
1.26919e-12
-2.2774e-16
7.17542e-14
1.39467e-12
5.74299e-16
1.34504e-13
1.29542e-12
1.20648e-16
2.21639e-13
9.72711e-13
-1.98697e-16
3.28817e-13
4.09387e-13
1.33346e-15
4.65679e-13
-4.25392e-13
-6.92796e-16
6.35083e-13
-1.51696e-12
3.78995e-16
8.53238e-13
-2.9305e-12
-1.43809e-16
1.10664e-12
-4.64261e-12
-2.25669e-16
1.41952e-12
-6.69507e-12
2.65538e-15
1.74011e-12
-9.11764e-12
-2.60974e-15
2.12949e-12
-1.19308e-11
6.08622e-17
2.57152e-12
-1.5167e-11
-2.47799e-16
3.07284e-12
-1.88498e-11
1.82108e-16
3.63396e-12
-2.30102e-11
8.37323e-18
4.25878e-12
-2.76749e-11
7.36704e-17
4.95032e-12
-3.28727e-11
5.22363e-17
5.71054e-12
-3.86288e-11
5.30777e-17
6.5417e-12
-4.49683e-11
4.32139e-17
7.44489e-12
-5.19181e-11
5.24506e-17
8.42056e-12
-5.94911e-11
3.40343e-17
9.46827e-12
-6.77124e-11
3.4287e-17
1.05866e-11
-7.65884e-11
2.49755e-17
1.17728e-11
-8.61318e-11
2.6917e-17
1.3023e-11
-9.63453e-11
1.91356e-17
1.43316e-11
-1.07215e-10
1.78377e-17
1.56916e-11
-1.18749e-10
9.05728e-18
1.70939e-11
-1.30906e-10
6.17682e-18
1.85278e-11
-1.43671e-10
3.98985e-19
1.99809e-11
-1.57005e-10
1.87889e-19
2.14385e-11
-1.70856e-10
-6.25331e-19
2.2884e-11
-1.85167e-10
1.8129e-18
2.42989e-11
-1.99865e-10
1.64586e-18
-2.14878e-10
2.40909e-18
1.3179e-15
3.60805e-13
1.62754e-17
1.07019e-14
9.19476e-13
1.09454e-17
3.28708e-14
1.24689e-12
1.74502e-16
7.26816e-14
1.3561e-12
-4.88639e-16
1.32535e-13
1.23373e-12
-7.60086e-17
2.19401e-13
8.84913e-13
4.07456e-16
3.42028e-13
2.87454e-13
-8.10778e-16
4.76178e-13
-5.75234e-13
-1.00085e-15
6.63553e-13
-1.69644e-12
4.2625e-16
8.72918e-13
-3.13586e-12
5.23646e-16
1.12256e-12
-4.89506e-12
4.82303e-17
1.44423e-12
-6.99493e-12
2.27743e-15
1.77414e-12
-9.46827e-12
-2.14967e-15
2.17829e-12
-1.23347e-11
-2.70248e-16
2.63708e-12
-1.56275e-11
-7.407e-17
3.15838e-12
-1.93702e-11
3.94599e-17
3.74158e-12
-2.35934e-11
4.69771e-17
4.3908e-12
-2.83239e-11
1.71459e-17
5.10857e-12
-3.35902e-11
5.15379e-17
5.89711e-12
-3.9417e-11
5.09392e-17
6.75827e-12
-4.5829e-11
6.46598e-17
7.69303e-12
-5.28525e-11
5.36222e-17
8.70171e-12
-6.04995e-11
4.24209e-17
9.7838e-12
-6.87943e-11
3.20779e-17
1.09376e-11
-7.7742e-11
2.80669e-17
1.21603e-11
-8.73543e-11
2.34047e-17
1.34475e-11
-9.76323e-11
2.07578e-17
1.47933e-11
-1.08561e-10
1.50082e-17
1.61902e-11
-1.20146e-10
1.06364e-17
1.76288e-11
-1.32345e-10
4.39642e-18
1.90975e-11
-1.4514e-10
1.82657e-18
2.05835e-11
-1.58491e-10
-9.44811e-19
2.20714e-11
-1.72344e-10
3.94609e-19
2.35439e-11
-1.86639e-10
1.34799e-18
2.49819e-11
-2.01303e-10
3.10114e-18
-2.1626e-10
2.70441e-18
1.26567e-15
3.59575e-13
-5.6674e-18
1.01055e-14
9.10516e-13
1.77283e-18
3.35237e-14
1.22346e-12
1.19784e-17
7.51887e-14
1.31473e-12
8.24742e-17
1.37663e-13
1.17011e-12
-8.20264e-17
2.26585e-13
7.96929e-13
3.84288e-17
3.45409e-13
1.69532e-13
9.53533e-17
4.77722e-13
-7.19229e-13
-1.65331e-15
6.7791e-13
-1.88825e-12
1.24164e-15
9.05556e-13
-3.36203e-12
1.98777e-16
1.17099e-12
-5.16245e-12
-2.06112e-16
1.50508e-12
-7.30746e-12
2.66534e-15
1.84953e-12
-9.83206e-12
-2.32262e-15
2.26731e-12
-1.27528e-11
-1.11322e-16
2.74215e-12
-1.61038e-11
-1.74349e-16
3.28107e-12
-1.99083e-11
7.53172e-17
3.88461e-12
-2.41968e-11
1.8895e-17
4.55667e-12
-2.89958e-11
1.89858e-17
5.30015e-12
-3.43333e-11
5.07028e-17
6.11703e-12
-4.02336e-11
3.16615e-17
7.00924e-12
-4.67209e-11
5.1186e-17
7.97774e-12
-5.38206e-11
4.18702e-17
9.02255e-12
-6.1544e-11
4.17552e-17
1.01429e-11
-6.99144e-11
2.64977e-17
1.13366e-11
-7.89356e-11
2.7273e-17
1.26006e-11
-8.86181e-11
1.93884e-17
1.393e-11
-9.89616e-11
1.87164e-17
1.53183e-11
-1.09949e-10
1.33714e-17
1.67575e-11
-1.21585e-10
9.16077e-18
1.82375e-11
-1.33825e-10
4.7026e-18
1.97463e-11
-1.46649e-10
1.11984e-18
2.127e-11
-1.60015e-10
1.16808e-19
2.27926e-11
-1.73866e-10
1.49401e-19
2.42961e-11
-1.88143e-10
2.71222e-18
2.57606e-11
-2.02768e-10
3.76131e-18
-2.17664e-10
4.34737e-18
1.20835e-15
3.58421e-13
-4.96972e-18
1.00536e-14
9.0162e-13
-9.82441e-17
3.29573e-14
1.2001e-12
2.85763e-16
7.28424e-14
1.2755e-12
-2.15427e-16
1.36049e-13
1.1065e-12
-1.11479e-16
2.26022e-13
7.07549e-13
4.37335e-16
3.4586e-13
5.08678e-14
-3.11439e-16
4.87288e-13
-8.71383e-13
-1.08323e-15
6.8566e-13
-2.07896e-12
9.41103e-16
9.19834e-13
-3.5936e-12
3.49896e-16
1.19506e-12
-5.43863e-12
2.16225e-17
1.54042e-12
-7.63262e-12
2.40851e-15
1.902e-12
-1.02118e-11
-2.10534e-15
2.33897e-12
-1.3189e-11
8.083e-18
2.83502e-12
-1.66009e-11
-1.33239e-16
3.39791e-12
-2.04699e-11
1.65478e-16
4.02802e-12
-2.48266e-11
2.6675e-17
4.72923e-12
-2.96967e-11
5.70306e-17
5.50454e-12
-3.51083e-11
2.87387e-17
6.35587e-12
-4.10848e-11
4.26674e-17
7.28515e-12
-4.76499e-11
2.70262e-17
8.29299e-12
-5.48283e-11
4.60285e-17
9.37945e-12
-6.26302e-11
2.00446e-17
1.05434e-11
-7.10782e-11
2.66576e-17
1.17825e-11
-8.01747e-11
1.27066e-17
1.30931e-11
-8.99287e-11
1.80421e-17
1.447e-11
-1.00338e-10
1.12682e-17
1.59062e-11
-1.11385e-10
1.24805e-17
1.7393e-11
-1.23072e-10
7.05713e-18
1.89196e-11
-1.35351e-10
4.71136e-18
2.04732e-11
-1.48202e-10
1.81008e-18
2.20393e-11
-1.61581e-10
6.17849e-19
2.36009e-11
-1.75428e-10
1.78047e-18
2.51391e-11
-1.89681e-10
3.61041e-18
2.66332e-11
-2.04262e-10
5.96486e-18
-2.19091e-10
5.63451e-18
9.67077e-16
3.57203e-13
1.33985e-16
1.1324e-14
8.92161e-13
-2.56555e-16
3.5706e-14
1.17627e-12
-5.18797e-16
7.7362e-14
1.23136e-12
8.85988e-16
1.43727e-13
1.03961e-12
-3.92734e-16
2.36927e-13
6.14948e-13
1.61986e-17
3.59749e-13
-7.22992e-14
4.97314e-17
5.10334e-13
-1.02979e-12
-1.24431e-15
7.14606e-13
-2.27263e-12
1.69918e-15
9.60891e-13
-3.8289e-12
1.11364e-15
1.24811e-12
-5.71872e-12
1.22964e-15
1.60562e-12
-7.96274e-12
3.13133e-15
1.98412e-12
-1.0603e-11
-1.29503e-15
2.43844e-12
-1.36405e-11
1.13628e-16
2.95463e-12
-1.71173e-11
1.12029e-16
3.54081e-12
-2.10543e-11
1.13416e-16
4.19742e-12
-2.54827e-11
1.29326e-16
4.92854e-12
-3.04274e-11
1.15186e-17
5.73691e-12
-3.59164e-11
7.46472e-17
6.62472e-12
-4.19724e-11
6.76963e-18
7.59345e-12
-4.86184e-11
4.87069e-17
8.64398e-12
-5.58786e-11
9.48392e-18
9.7758e-12
-6.3762e-11
3.07307e-17
1.09877e-11
-7.22899e-11
6.17189e-18
1.22767e-11
-8.14637e-11
1.93039e-17
1.36389e-11
-9.12908e-11
6.24661e-18
1.50683e-11
-1.01768e-10
1.38195e-17
1.65574e-11
-1.12874e-10
7.48341e-18
1.80968e-11
-1.24611e-10
8.64404e-18
1.96749e-11
-1.36929e-10
4.44608e-18
2.1278e-11
-1.49806e-10
3.4511e-18
2.28907e-11
-1.63194e-10
2.4954e-18
2.44952e-11
-1.77033e-10
3.40967e-18
2.60716e-11
-1.91257e-10
6.19338e-18
2.75982e-11
-2.05788e-10
7.87724e-18
-2.20545e-10
8.19423e-18
9.65049e-16
3.5603e-13
9.83323e-17
9.73555e-15
8.82733e-13
2.82424e-16
2.97508e-14
1.15426e-12
1.04825e-15
7.85097e-14
1.18906e-12
-1.29307e-15
1.4374e-13
9.73324e-13
-8.89411e-16
2.34587e-13
5.19944e-13
1.6661e-15
3.67625e-13
-2.02118e-13
-1.36417e-15
5.28058e-13
-1.19406e-12
5.88522e-16
7.35881e-13
-2.48364e-12
-8.84115e-16
9.87649e-13
-4.08733e-12
-4.76383e-16
1.28608e-12
-6.02689e-12
-1.42849e-15
1.64456e-12
-8.32746e-12
-5.79697e-16
2.0542e-12
-1.10189e-11
-9.62112e-16
2.5311e-12
-1.41195e-11
-1.18183e-16
3.07466e-12
-1.76612e-11
-2.0326e-16
3.6883e-12
-2.16688e-11
8.8734e-18
4.37703e-12
-2.6171e-11
-3.80797e-17
5.1425e-12
-3.11933e-11
9.93251e-18
5.989e-12
-3.67627e-11
-2.55226e-17
6.91807e-12
-4.29013e-11
5.64609e-17
7.93148e-12
-4.96316e-11
6.79056e-18
9.02936e-12
-5.69765e-11
3.91676e-17
1.02115e-11
-6.4944e-11
5.64096e-20
1.1476e-11
-7.35545e-11
2.12296e-17
1.28199e-11
-8.28076e-11
7.40389e-19
1.42385e-11
-9.27094e-11
1.37156e-17
1.57254e-11
-1.03255e-10
5.05205e-18
1.72723e-11
-1.14421e-10
1.17008e-17
1.88692e-11
-1.26208e-10
6.77552e-18
2.05034e-11
-1.38563e-10
7.66888e-18
2.21605e-11
-1.51463e-10
5.30097e-18
2.38239e-11
-1.64857e-10
5.23473e-18
2.5475e-11
-1.78684e-10
6.48105e-18
2.70927e-11
-1.92875e-10
8.74475e-18
2.86545e-11
-2.0735e-10
1.12251e-17
-2.22026e-10
1.03484e-17
1.17536e-15
3.54771e-13
3.842e-17
1.07524e-14
8.72758e-13
1.72318e-16
3.43655e-14
1.12944e-12
6.49215e-16
8.52902e-14
1.1424e-12
-5.99637e-16
1.53531e-13
9.0383e-13
-1.04535e-15
2.49451e-13
4.21139e-13
1.36803e-15
3.85843e-13
-3.3586e-13
-9.54462e-16
5.52942e-13
-1.36324e-12
2.10694e-16
7.68409e-13
-2.69943e-12
2.39414e-16
1.03424e-12
-4.3488e-12
-4.25928e-17
1.34536e-12
-6.33991e-12
4.26208e-16
1.71944e-12
-8.69977e-12
-3.90843e-16
2.14839e-12
-1.14503e-11
1.76319e-16
2.6479e-12
-1.46179e-11
-2.42567e-16
3.21616e-12
-1.82294e-11
2.48998e-16
3.85891e-12
-2.23117e-11
-1.81876e-16
4.58004e-12
-2.68919e-11
1.3914e-16
5.38236e-12
-3.19958e-11
-9.06897e-17
6.26897e-12
-3.76494e-11
5.29844e-17
7.24215e-12
-4.38745e-11
-3.35133e-17
8.3029e-12
-5.06924e-11
2.91891e-17
9.452e-12
-5.81256e-11
-1.69575e-17
1.06884e-11
-6.61804e-11
2.09436e-17
1.20101e-11
-7.48762e-11
-6.09789e-18
1.34134e-11
-8.42109e-11
1.4606e-17
1.48932e-11
-9.41892e-11
8.52713e-19
1.64424e-11
-1.04804e-10
1.30048e-17
1.80519e-11
-1.16031e-10
7.74512e-18
1.97108e-11
-1.27867e-10
1.1975e-17
2.14056e-11
-1.40258e-10
9.03182e-18
2.31208e-11
-1.53178e-10
9.36907e-18
2.48389e-11
-1.66576e-10
8.74932e-18
2.65399e-11
-1.80385e-10
9.83162e-18
2.82019e-11
-1.94537e-10
1.27828e-17
2.98011e-11
-2.08949e-10
1.41812e-17
-2.23537e-10
1.3602e-17
1.12648e-15
3.53609e-13
8.81969e-18
1.03362e-14
8.63114e-13
1.92183e-16
3.32354e-14
1.10472e-12
8.69807e-16
8.54637e-14
1.09477e-12
-8.73613e-16
1.56287e-13
8.31782e-13
-7.24372e-16
2.54705e-13
3.1847e-13
1.21824e-15
3.95682e-13
-4.75147e-13
-1.00469e-15
5.68976e-13
-1.53869e-12
1.16874e-16
8.00639e-13
-2.92846e-12
1.46072e-17
1.07913e-12
-4.62697e-12
6.97565e-16
1.40756e-12
-6.66867e-12
-7.90883e-16
1.79704e-12
-9.08958e-12
6.59362e-16
2.25007e-12
-1.19022e-11
-4.42843e-16
2.77232e-12
-1.51399e-11
4.44612e-16
3.36956e-12
-1.88253e-11
-1.40274e-16
4.0433e-12
-2.2986e-11
1.22022e-16
4.80091e-12
-2.76488e-11
-4.78863e-17
5.64301e-12
-3.2838e-11
7.85464e-17
6.57398e-12
-3.85801e-11
-3.30358e-17
7.59504e-12
-4.48956e-11
3.65992e-17
8.70792e-12
-5.18052e-11
-2.40969e-17
9.9124e-12
-5.93301e-11
3.10255e-17
1.12077e-11
-6.74756e-11
-3.01226e-18
1.2591e-11
-7.62595e-11
2.45146e-17
1.40585e-11
-8.56783e-11
4.8551e-18
1.56042e-11
-9.57348e-11
1.87786e-17
1.72203e-11
-1.0642e-10
1.0694e-17
1.88971e-11
-1.17707e-10
1.76816e-17
2.06225e-11
-1.29592e-10
1.38972e-17
2.23822e-11
-1.42018e-10
1.51628e-17
2.41596e-11
-1.54956e-10
1.35054e-17
2.59359e-11
-1.68352e-10
1.30926e-17
2.769e-11
-1.82139e-10
1.44569e-17
2.93989e-11
-1.96246e-10
1.63844e-17
3.10376e-11
-2.10588e-10
1.84222e-17
-2.25078e-10
1.60429e-17
1.43062e-15
3.52057e-13
5.25918e-17
1.30922e-14
8.50904e-13
2.37464e-16
3.89347e-14
1.07757e-12
7.94139e-16
9.47087e-14
1.04463e-12
-1.7525e-15
1.69015e-13
7.56141e-13
-8.9269e-16
2.6997e-13
2.08769e-13
1.58454e-15
4.22856e-13
-6.26271e-13
-2.70151e-15
6.07101e-13
-1.73318e-12
2.45139e-15
8.45356e-13
-3.16288e-12
-1.35391e-15
1.13277e-12
-4.90789e-12
5.58225e-16
1.47025e-12
-7.00899e-12
8.09567e-16
1.88265e-12
-9.49725e-12
-6.59165e-16
2.35739e-12
-1.23769e-11
9.2319e-16
2.90947e-12
-1.56902e-11
-4.34233e-16
3.53704e-12
-1.94528e-11
4.04792e-16
4.24724e-12
-2.36961e-11
-2.37219e-16
5.04334e-12
-2.84447e-11
1.76238e-16
5.92929e-12
-3.37236e-11
-5.67411e-17
6.90745e-12
-3.95583e-11
7.28426e-17
7.98027e-12
-4.59684e-11
-4.04404e-17
9.14854e-12
-5.29736e-11
2.09785e-17
1.04127e-11
-6.05943e-11
-2.51712e-17
1.17709e-11
-6.88339e-11
1.73931e-17
1.32205e-11
-7.77091e-11
-1.23238e-18
1.47566e-11
-8.72144e-11
2.01445e-17
1.63729e-11
-9.7351e-11
1.0704e-17
1.80606e-11
-1.08108e-10
2.10293e-17
1.98091e-11
-1.19456e-10
1.77728e-17
2.16055e-11
-1.31388e-10
2.06448e-17
2.34343e-11
-1.43847e-10
1.90803e-17
2.52775e-11
-1.56799e-10
1.84199e-17
2.71154e-11
-1.7019e-10
1.81144e-17
2.89256e-11
-1.83949e-10
1.83083e-17
3.06836e-11
-1.98004e-10
2.13111e-17
3.23634e-11
-2.12267e-10
2.15173e-17
-2.26652e-10
1.94614e-17
1.18731e-15
3.50913e-13
-2.99988e-17
1.06548e-14
8.41288e-13
1.14804e-17
3.74191e-14
1.05101e-12
-1.30003e-16
8.80975e-14
9.92807e-13
9.91096e-16
1.65992e-13
6.78264e-13
8.07227e-18
2.84803e-13
9.44596e-14
-3.04458e-16
4.27572e-13
-7.7223e-13
1.9153e-15
6.38855e-13
-1.92498e-12
-1.49945e-15
8.77345e-13
-3.4104e-12
3.04197e-16
1.17925e-12
-5.21838e-12
1.19134e-17
1.55318e-12
-7.37788e-12
-1.19753e-15
1.97929e-12
-9.92899e-12
8.26323e-16
2.48355e-12
-1.28806e-11
-9.5194e-16
3.06107e-12
-1.62686e-11
5.1957e-16
3.72243e-12
-2.01135e-11
-3.26794e-16
4.46858e-12
-2.44434e-11
9.86332e-17
5.30699e-12
-2.92828e-11
-1.11669e-16
6.2391e-12
-3.46561e-11
3.57419e-17
7.26879e-12
-4.05879e-11
-4.17522e-17
8.39732e-12
-4.7097e-11
3.24209e-17
9.62596e-12
-5.42021e-11
-1.44749e-17
1.0954e-11
-6.19223e-11
2.17338e-17
1.23799e-11
-7.02597e-11
6.97147e-18
1.39002e-11
-7.92293e-11
3.06363e-17
1.55097e-11
-8.88238e-11
2.26708e-17
1.72011e-11
-9.90422e-11
3.07618e-17
1.8965e-11
-1.09872e-10
2.68022e-17
2.07897e-11
-1.2128e-10
2.85866e-17
2.26612e-11
-1.3326e-10
2.66161e-17
2.45629e-11
-1.45748e-10
2.50638e-17
2.64756e-11
-1.58712e-10
2.42819e-17
2.83782e-11
-1.72092e-10
2.20095e-17
3.0247e-11
-1.85818e-10
2.35825e-17
3.20563e-11
-1.99813e-10
2.44707e-17
3.37787e-11
-2.13989e-10
2.57945e-17
-2.28258e-10
2.12836e-17
1.62132e-15
3.49274e-13
-5.14324e-18
1.36292e-14
8.29214e-13
1.55609e-17
4.33562e-14
1.02151e-12
2.93073e-17
9.76152e-14
9.38766e-13
-1.02445e-16
1.79222e-13
5.96373e-13
-2.27274e-16
3.01372e-13
-2.70451e-14
3.85713e-16
4.59266e-13
-9.30751e-13
2.265e-16
6.81703e-13
-2.137e-12
9.95416e-16
9.29476e-13
-3.6659e-12
-1.31966e-15
1.24285e-12
-5.53465e-12
6.47783e-17
1.62984e-12
-7.76232e-12
1.58838e-16
2.08275e-12
-1.03832e-11
-3.64203e-16
2.61337e-12
-1.34116e-11
2.41828e-16
3.22539e-12
-1.68803e-11
-2.36412e-16
3.92255e-12
-2.08113e-11
1.23369e-16
4.71111e-12
-2.5232e-11
-1.53192e-16
5.59471e-12
-3.01662e-11
1.00098e-16
6.5775e-12
-3.56388e-11
-4.86129e-17
7.66188e-12
-4.16722e-11
3.67575e-17
8.84988e-12
-4.82851e-11
-3.16285e-17
1.01422e-11
-5.54946e-11
-3.96331e-18
1.15385e-11
-6.33188e-11
-1.6001e-17
1.30364e-11
-7.17576e-11
1.38183e-17
1.46321e-11
-8.08249e-11
1.82159e-17
1.63196e-11
-9.0511e-11
2.98737e-17
1.80907e-11
-1.00813e-10
3.07377e-17
1.99353e-11
-1.11716e-10
3.22504e-17
2.18405e-11
-1.23185e-10
3.27034e-17
2.37913e-11
-1.3521e-10
3.00717e-17
2.57697e-11
-1.47726e-10
3.0465e-17
2.77553e-11
-1.60697e-10
2.69304e-17
2.97255e-11
-1.74062e-10
2.73029e-17
3.16552e-11
-1.87747e-10
2.5921e-17
3.35175e-11
-2.01675e-10
2.91649e-17
3.52833e-11
-2.15755e-10
2.77159e-17
-2.29897e-10
2.40632e-17
1.62689e-15
3.47608e-13
-3.83111e-18
1.40196e-14
8.1669e-13
1.40178e-16
4.44814e-14
9.91537e-13
-2.45553e-16
1.0025e-13
8.82979e-13
1.5986e-16
1.875e-13
5.08224e-13
4.70141e-18
3.15479e-13
-1.54526e-13
-1.07727e-16
4.8251e-13
-1.10088e-12
6.08167e-16
7.15295e-13
-2.35877e-12
3.30955e-16
9.82737e-13
-3.94085e-12
-1.24546e-15
1.3163e-12
-5.87239e-12
5.31019e-16
1.72551e-12
-8.16858e-12
-7.02575e-16
2.20335e-12
-1.08621e-11
5.3885e-16
2.76423e-12
-1.3971e-11
-2.31298e-16
3.40784e-12
-1.75252e-11
5.71704e-17
4.14382e-12
-2.15476e-11
-1.5866e-16
4.975e-12
-2.6064e-11
-4.23972e-17
5.90748e-12
-3.10983e-11
1.21595e-17
6.94362e-12
-3.66749e-11
1.3369e-17
8.08672e-12
-4.28152e-11
6.45716e-18
9.33835e-12
-4.95368e-11
-5.29229e-18
1.06992e-11
-5.68554e-11
-2.54529e-18
1.21682e-11
-6.47878e-11
7.69115e-18
1.37427e-11
-7.3332e-11
2.53183e-17
1.54184e-11
-8.25003e-11
3.33756e-17
1.71884e-11
-9.22808e-11
4.30622e-17
1.9044e-11
-1.02669e-10
3.94914e-17
2.09737e-11
-1.13646e-10
4.27828e-17
2.29637e-11
-1.25175e-10
3.6105e-17
2.49977e-11
-1.37244e-10
3.74868e-17
2.70564e-11
-1.49785e-10
3.1609e-17
2.9118e-11
-1.62759e-10
3.268e-17
3.11584e-11
-1.76103e-10
2.81391e-17
3.31512e-11
-1.8974e-10
3.05861e-17
3.50677e-11
-2.03591e-10
3.03472e-17
3.68777e-11
-2.17565e-10
3.11008e-17
-2.31569e-10
2.43635e-17
1.97105e-15
3.45934e-13
-1.53694e-16
1.3089e-14
8.04211e-13
3.76702e-16
4.62987e-14
9.58292e-13
6.69395e-16
1.11025e-13
8.21679e-13
-1.19696e-15
2.03941e-13
4.13469e-13
3.19186e-16
3.36599e-13
-2.86544e-13
2.38523e-16
5.15468e-13
-1.27926e-12
3.34858e-16
7.56447e-13
-2.59127e-12
6.34367e-16
1.04109e-12
-4.23282e-12
-1.54153e-15
1.39367e-12
-6.22844e-12
6.32324e-16
1.82553e-12
-8.59833e-12
-6.4204e-16
2.33142e-12
-1.13683e-11
4.51164e-16
2.92437e-12
-1.45627e-11
-9.52033e-17
3.60559e-12
-1.82066e-11
7.916e-17
4.38363e-12
-2.23253e-11
-3.28433e-17
5.2616e-12
-2.69426e-11
-5.3084e-17
6.24634e-12
-3.20825e-11
3.17624e-17
7.34004e-12
-3.77685e-11
3.11807e-17
8.54599e-12
-4.4021e-11
8.22134e-19
9.86531e-12
-5.08563e-11
-2.35123e-18
1.12988e-11
-5.82889e-11
-2.0745e-17
1.2845e-11
-6.63341e-11
1.12461e-17
1.45009e-11
-7.49878e-11
1.14811e-17
1.62613e-11
-8.42605e-11
4.09915e-17
1.81187e-11
-9.41379e-11
3.472e-17
2.00632e-11
-1.04613e-10
4.79572e-17
2.20825e-11
-1.15665e-10
3.69565e-17
2.41615e-11
-1.27254e-10
4.26413e-17
2.62826e-11
-1.39365e-10
3.31706e-17
2.84251e-11
-1.51927e-10
3.68157e-17
3.05656e-11
-1.64899e-10
3.02996e-17
3.26786e-11
-1.78216e-10
3.2449e-17
3.47361e-11
-1.91797e-10
2.98029e-17
3.67078e-11
-2.05563e-10
3.38758e-17
3.85624e-11
-2.19419e-10
3.0898e-17
-2.33274e-10
2.5994e-17
2.34191e-15
3.43898e-13
-1.23463e-16
1.75917e-14
7.89657e-13
-3.149e-16
5.53927e-14
9.22588e-13
-1.19238e-15
1.09395e-13
7.59502e-13
1.43829e-15
2.08191e-13
3.15903e-13
1.01376e-15
3.58426e-13
-4.31358e-13
-1.75418e-15
5.43957e-13
-1.46848e-12
2.12383e-15
8.02511e-13
-2.83878e-12
-6.27686e-16
1.10438e-12
-4.54102e-12
-3.91142e-16
1.47816e-12
-6.60777e-12
-3.14882e-16
1.93544e-12
-9.05408e-12
-2.5533e-16
2.47078e-12
-1.19063e-11
-1.96545e-16
3.09843e-12
-1.51903e-11
4.75728e-17
3.81988e-12
-1.89282e-11
-1.16592e-16
4.64286e-12
-2.31483e-11
8.12382e-17
5.57136e-12
-2.78721e-11
-2.09897e-16
6.61185e-12
-3.31231e-11
5.51887e-17
7.76704e-12
-3.8924e-11
-9.51456e-17
9.03984e-12
-4.5294e-11
2.49049e-17
1.04319e-11
-5.22483e-11
-3.64506e-17
1.1943e-11
-5.97999e-11
3.43534e-17
1.35715e-11
-6.79625e-11
-3.32524e-18
1.53136e-11
-7.67297e-11
4.49956e-17
1.71636e-11
-8.61102e-11
2.56326e-17
1.9113e-11
-9.6087e-11
5.41791e-17
2.11511e-11
-1.06651e-10
3.54652e-17
2.32644e-11
-1.17778e-10
4.83744e-17
2.54366e-11
-1.29426e-10
3.29224e-17
2.76485e-11
-1.41577e-10
3.97826e-17
2.9878e-11
-1.54156e-10
3.02222e-17
3.21001e-11
-1.67121e-10
3.4726e-17
3.42878e-11
-1.80403e-10
2.87594e-17
3.64113e-11
-1.93921e-10
3.30862e-17
3.8439e-11
-2.07591e-10
3.21828e-17
4.03379e-11
-2.21318e-10
3.29021e-17
-2.35009e-10
2.44593e-17
2.23072e-15
3.41772e-13
-4.61932e-17
1.76975e-14
7.74702e-13
-1.75265e-16
5.77221e-14
8.84361e-13
-7.00512e-16
1.21425e-13
6.90578e-13
7.16475e-16
2.26739e-13
2.11665e-13
1.15921e-15
3.80539e-13
-5.81699e-13
-1.47424e-15
5.78589e-13
-1.66861e-12
1.6744e-15
8.49293e-13
-3.10033e-12
-1.12516e-16
1.17299e-12
-4.87062e-12
-1.23095e-15
1.57028e-12
-7.01045e-12
6.72083e-16
2.0583e-12
-9.53646e-12
-7.02543e-16
2.62475e-12
-1.24752e-11
6.26122e-16
3.29185e-12
-1.58538e-11
-2.31627e-16
4.05431e-12
-1.96921e-11
2.49777e-16
4.92584e-12
-2.40194e-11
-2.43123e-16
5.90758e-12
-2.88551e-11
3.55926e-17
7.00809e-12
-3.42232e-11
-9.96055e-17
8.22855e-12
-4.01448e-11
5.357e-17
9.57296e-12
-4.66383e-11
-6.20743e-17
1.10414e-11
-5.37173e-11
6.27997e-18
1.26346e-11
-6.13932e-11
-5.3733e-17
1.43499e-11
-6.96779e-11
3.70851e-17
1.61833e-11
-7.85628e-11
8.29308e-18
1.81277e-11
-8.80544e-11
5.7603e-17
2.01742e-11
-9.81332e-11
2.97163e-17
2.23106e-11
-1.08787e-10
5.34671e-17
2.45224e-11
-1.1999e-10
3.02064e-17
2.67917e-11
-1.31695e-10
4.21802e-17
2.90981e-11
-1.43883e-10
2.72087e-17
3.14177e-11
-1.56476e-10
3.54175e-17
3.37239e-11
-1.69428e-10
2.71122e-17
3.5988e-11
-1.82667e-10
3.20841e-17
3.81786e-11
-1.96111e-10
2.89397e-17
4.02624e-11
-2.09674e-10
3.43378e-17
4.2205e-11
-2.2326e-10
3.0408e-17
-2.36775e-10
2.49512e-17
2.53726e-15
3.39304e-13
-2.46364e-17
1.99382e-14
7.57868e-13
-1.65533e-16
6.36106e-14
8.42493e-13
-9.65584e-16
1.31996e-13
6.16924e-13
8.97155e-16
2.44685e-13
1.00441e-13
9.62684e-16
4.07798e-13
-7.41996e-13
-1.6275e-15
6.17437e-13
-1.8822e-12
1.36109e-15
8.93451e-13
-3.36655e-12
1.11289e-16
1.24703e-12
-5.23186e-12
-8.11215e-16
1.67049e-12
-7.43705e-12
-3.61394e-16
2.18651e-12
-1.00503e-11
4.38357e-16
2.78953e-12
-1.30786e-11
-5.47601e-16
3.4948e-12
-1.65579e-11
6.46058e-16
4.30515e-12
-2.05022e-11
-4.25571e-16
5.22773e-12
-2.49423e-11
2.95943e-16
6.26894e-12
-2.98962e-11
-2.3502e-16
7.4332e-12
-3.53873e-11
1.92368e-16
8.72439e-12
-4.14359e-11
-1.19497e-16
1.01446e-11
-4.80587e-11
7.70547e-17
1.16955e-11
-5.52682e-11
-8.78417e-17
1.33759e-11
-6.30737e-11
3.89635e-17
1.51836e-11
-7.14854e-11
-1.91912e-17
1.71131e-11
-8.04921e-11
5.78455e-17
1.91572e-11
-9.00983e-11
1.37675e-17
2.13055e-11
-1.00281e-10
5.48779e-17
2.3545e-11
-1.11026e-10
2.23829e-17
2.58596e-11
-1.22304e-10
4.34848e-17
2.82301e-11
-1.34065e-10
2.16592e-17
3.06344e-11
-1.46287e-10
3.44119e-17
3.30469e-11
-1.58888e-10
2.28659e-17
3.54394e-11
-1.7182e-10
3.13465e-17
3.77814e-11
-1.85009e-10
2.49693e-17
4.00397e-11
-1.9837e-10
3.1508e-17
4.21795e-11
-2.11814e-10
3.03369e-17
4.41647e-11
-2.25245e-10
3.13511e-17
-2.38569e-10
2.19333e-17
2.52718e-15
3.36912e-13
-4.95769e-17
1.85486e-14
7.42185e-13
-2.08963e-16
6.13852e-14
8.01776e-13
-7.87853e-16
1.28594e-13
5.42333e-13
1.59509e-15
2.51265e-13
-1.97896e-14
1.41533e-15
4.39055e-13
-9.20112e-13
-1.72646e-15
6.80973e-13
-2.12594e-12
3.53787e-15
1.00253e-12
-3.66633e-12
-2.41061e-15
1.37338e-12
-5.61171e-12
7.73053e-16
1.80221e-12
-7.8738e-12
1.44096e-16
2.34628e-12
-1.05894e-11
-1.46466e-15
2.97685e-12
-1.37173e-11
7.86786e-16
3.72498e-12
-1.73053e-11
-1.1352e-15
4.58118e-12
-2.13594e-11
6.94911e-16
5.55962e-12
-2.59194e-11
-3.71984e-16
6.66053e-12
-3.09975e-11
2.8106e-16
7.8935e-12
-3.66191e-11
-8.8952e-17
9.25843e-12
-4.28011e-11
1.27061e-16
1.07599e-11
-4.95599e-11
-7.69116e-17
1.23971e-11
-5.69058e-11
3.42635e-17
1.41701e-11
-6.48466e-11
-5.11223e-17
1.60749e-11
-7.33902e-11
6.74817e-17
1.81062e-11
-8.2523e-11
9.52478e-18
2.0255e-11
-9.22469e-11
6.89212e-17
2.25103e-11
-1.02536e-10
2.22932e-17
2.48576e-11
-1.13373e-10
5.22669e-17
2.72794e-11
-1.24726e-10
1.96637e-17
2.9755e-11
-1.36541e-10
3.68055e-17
3.22606e-11
-1.48792e-10
1.84541e-17
3.47687e-11
-1.61396e-10
3.07929e-17
3.72494e-11
-1.74301e-10
2.16284e-17
3.96703e-11
-1.8743e-10
2.91852e-17
4.19966e-11
-2.00696e-10
2.58648e-17
4.41916e-11
-2.14009e-10
3.22451e-17
4.62179e-11
-2.27271e-10
2.74929e-17
-2.40388e-10
2.187e-17
3.17541e-15
3.33742e-13
2.22078e-17
2.43849e-14
7.21095e-13
-3.10809e-17
7.44971e-14
7.51434e-13
1.00792e-17
1.61972e-13
4.56518e-13
-7.30797e-16
2.93508e-13
-1.52021e-13
-2.17908e-16
4.63261e-13
-1.09543e-12
2.22243e-16
6.99429e-13