/*--------------------------------*- C++ -*----------------------------------*\
| =========                 |                                                 |
| \\      /  F ield         | OpenFOAM: The Open Source CFD Toolbox           |
|  \\    /   O peration     | Version:  v2012                                 |
|   \\  /    A nd           | Website:  www.openfoam.com                      |
|    \\/     M anipulation  |                                                 |
\*---------------------------------------------------------------------------*/
FoamFile
{
    version     2.0;
    format      ascii;
    class       volScalarField;
    location    "0.7";
    object      alpha.water;
}
// * * * * * * * * * * * * * * * * * * * * * * * * * * * * * * * * * * * * * //

dimensions      [0 0 0 0 0 0 0];


internalField   nonuniform List<scalar> 
20000
(
-1.27961e-154
-6.86139e-146
-3.82217e-138
-3.55051e-130
-2.72919e-123
-5.66705e-114
-1.13751e-106
-1.12696e-98
-4.51125e-91
-5.25955e-88
-2.97975e-85
-1.93979e-82
-2.20601e-79
-3.04369e-77
-1.47437e-74
-8.81423e-73
-7.38242e-70
-5.88169e-67
-1.12349e-64
-1.16622e-63
-4.39913e-63
-9.15906e-63
-1.23722e-62
-1.17588e-62
-8.25468e-63
-4.5069e-63
-1.11101e-62
-1.03181e-61
-3.83164e-61
-7.68402e-61
-1.17842e-59
-4.26742e-58
-1.34006e-57
-1.84103e-57
-1.46077e-57
-7.5272e-58
-2.68117e-58
-6.85696e-59
-1.29076e-59
-1.73882e-60
-1.87707e-61
-1.54038e-62
-9.62469e-64
-4.58285e-65
-1.66083e-66
-4.56082e-68
-9.43449e-70
-1.45754e-71
-1.66461e-73
-1.38843e-75
-8.33855e-78
-3.54988e-80
-1.05194e-82
-2.12312e-85
-2.8402e-88
-2.42722e-91
-1.25528e-94
-3.60527e-98
-4.93404e-102
-2.2395e-106
-5.70738e-152
-1.26032e-143
-4.58961e-136
-1.96964e-128
-1.18574e-121
-1.87588e-112
-3.23123e-105
-2.72627e-97
-8.56841e-90
-8.86869e-87
-4.53041e-84
-2.66031e-81
-2.77807e-78
-3.50343e-76
-1.56188e-73
-8.70829e-72
-6.50137e-69
-4.9197e-66
-8.98911e-64
-8.9953e-63
-3.29705e-62
-6.69671e-62
-8.8518e-62
-8.25529e-62
-5.70062e-62
-3.05889e-62
-6.33037e-62
-5.61708e-61
-2.06518e-60
-4.11461e-60
-6.52714e-59
-2.43574e-57
-7.70072e-57
-1.06494e-56
-8.51415e-57
-4.42696e-57
-1.59356e-57
-4.1249e-58
-7.87106e-59
-1.07731e-59
-1.18241e-60
-9.87972e-62
-6.29474e-63
-3.06094e-64
-1.13453e-65
-3.1909e-67
-6.769e-69
-1.07359e-70
-1.25981e-72
-1.08017e-74
-6.66844e-77
-2.91637e-79
-8.86594e-82
-1.83176e-84
-2.50073e-87
-2.17221e-90
-1.136e-93
-3.27696e-97
-4.45611e-101
-1.95502e-105
-2.33962e-149
-2.15752e-141
-5.14953e-134
-1.07746e-126
-5.08919e-120
-6.12355e-111
-9.05559e-104
-6.51791e-96
-1.60387e-88
-1.47347e-85
-6.78312e-83
-3.592e-80
-3.44456e-77
-3.9705e-75
-1.62862e-72
-8.46808e-71
-5.63704e-68
-4.05097e-65
-7.07975e-63
-6.83045e-62
-2.43304e-61
-4.82182e-61
-6.23782e-61
-5.70948e-61
-3.87907e-61
-2.04723e-61
-3.57232e-61
-3.00849e-60
-1.09502e-59
-2.168e-59
-3.55844e-58
-1.36955e-56
-4.36104e-56
-6.07281e-56
-4.89378e-56
-2.56836e-56
-9.34589e-57
-2.44926e-57
-4.73905e-58
-6.59229e-59
-7.35873e-60
-6.26251e-61
-4.07012e-62
-2.02198e-63
-7.66812e-65
-2.20987e-66
-4.81002e-68
-7.83687e-70
-9.45572e-72
-8.34108e-74
-5.2984e-76
-2.38304e-78
-7.44086e-81
-1.5755e-83
-2.1971e-86
-1.94068e-89
-1.0257e-92
-2.96385e-96
-3.97551e-100
-1.65008e-104
-8.54358e-147
-3.42346e-139
-5.37408e-132
-5.81538e-125
-2.15814e-118
-1.97148e-109
-2.50373e-102
-1.53866e-94
-2.95819e-87
-2.41155e-84
-9.9985e-82
-4.77342e-79
-4.20377e-76
-4.42906e-74
-1.67097e-71
-8.10198e-70
-4.81049e-67
-3.28259e-64
-5.48692e-62
-5.10442e-61
-1.7673e-60
-3.41803e-60
-4.32845e-60
-3.88907e-60
-2.6002e-60
-1.35064e-60
-1.99813e-60
-1.58495e-59
-5.71019e-59
-1.1237e-58
-1.90889e-57
-7.58394e-56
-2.43326e-55
-3.41308e-55
-2.77321e-55
-1.46952e-55
-5.40726e-56
-1.43512e-56
-2.81648e-57
-3.98307e-58
-4.52328e-59
-3.92196e-60
-2.60094e-61
-1.32051e-62
-5.12585e-64
-1.51429e-65
-3.38349e-67
-5.66608e-69
-7.03406e-71
-6.38868e-73
-4.17944e-75
-1.9352e-77
-6.21348e-80
-1.34993e-82
-1.92518e-85
-1.73067e-88
-9.24603e-92
-2.67342e-95
-3.52566e-99
-1.38657e-103
-2.64532e-144
-4.99497e-137
-5.18632e-130
-3.09624e-123
-9.03928e-117
-6.25815e-108
-6.82744e-101
-3.58428e-93
-5.37485e-86
-3.88707e-83
-1.45063e-80
-6.24193e-78
-5.04854e-75
-4.86191e-73
-1.68657e-70
-7.62527e-69
-4.03942e-66
-2.61702e-63
-4.18353e-61
-3.75318e-60
-1.26326e-59
-2.38476e-59
-2.95677e-59
-2.60832e-59
-1.71649e-59
-8.7806e-60
-1.10868e-59
-8.21151e-59
-2.92757e-58
-5.72752e-58
-1.00729e-56
-4.13481e-55
-1.33723e-54
-1.89009e-54
-1.54897e-54
-8.29004e-55
-3.08548e-55
-8.29582e-56
-1.65182e-56
-2.37555e-57
-2.74533e-58
-2.42592e-59
-1.6421e-60
-8.52299e-62
-3.3875e-63
-1.02624e-64
-2.35488e-66
-4.05535e-68
-5.183e-70
-4.85035e-72
-3.27064e-74
-1.56062e-76
-5.15846e-79
-1.15139e-81
-1.68138e-84
-1.54007e-87
-8.32304e-91
-2.40799e-94
-3.1189e-98
-1.16408e-102
-6.48752e-142
-6.64751e-135
-4.60541e-128
-1.62691e-121
-3.74006e-115
-1.95882e-106
-1.8362e-99
-8.23739e-92
-9.61867e-85
-6.16904e-82
-2.07099e-79
-8.0291e-77
-5.96448e-74
-5.25035e-72
-1.67408e-69
-7.0571e-68
-3.33649e-65
-2.05202e-62
-3.13699e-60
-2.71436e-59
-8.88317e-59
-1.63713e-58
-1.98773e-58
-1.72194e-58
-1.1156e-58
-5.623e-59
-6.10722e-59
-4.1829e-58
-1.47521e-57
-2.86991e-57
-5.22679e-56
-2.21887e-54
-7.2364e-54
-1.03103e-53
-8.52523e-54
-4.60976e-54
-1.73597e-54
-4.72963e-55
-9.55736e-56
-1.39815e-56
-1.64475e-57
-1.48161e-58
-1.02395e-59
-5.43471e-61
-2.21238e-62
-6.8756e-64
-1.62092e-65
-2.87183e-67
-3.78074e-69
-3.64787e-71
-2.53744e-73
-1.24891e-75
-4.25459e-78
-9.76891e-81
-1.46278e-83
-1.36708e-86
-7.4829e-90
-2.1681e-93
-2.75929e-97
-9.76886e-102
-1.15722e-139
-7.98335e-133
-3.74247e-126
-8.43539e-120
-1.52821e-113
-6.04413e-105
-4.86942e-98
-1.86723e-90
-1.69502e-83
-9.63814e-81
-2.9087e-78
-1.01572e-75
-6.9304e-73
-5.57643e-71
-1.63368e-68
-6.42079e-67
-2.71008e-64
-1.58202e-61
-2.31264e-59
-1.93028e-58
-6.14327e-58
-1.10551e-57
-1.31468e-57
-1.11863e-57
-7.13627e-58
-3.54578e-58
-3.34232e-58
-2.09458e-57
-7.3037e-57
-1.4132e-56
-2.66612e-55
-1.17163e-53
-3.85482e-53
-5.53851e-53
-4.62219e-53
-2.52591e-53
-9.62742e-54
-2.65871e-54
-5.45391e-55
-8.11818e-56
-9.72376e-57
-8.93175e-58
-6.304e-59
-3.42247e-60
-1.4274e-61
-4.55209e-63
-1.10293e-64
-2.01123e-66
-2.72871e-68
-2.71611e-70
-1.95039e-72
-9.91111e-75
-3.48359e-77
-8.23885e-80
-1.26687e-82
-1.21002e-85
-6.71949e-89
-1.95302e-92
-2.44679e-96
-8.23101e-101
-1.56282e-137
-8.55179e-131
-2.77191e-124
-4.31681e-118
-6.16677e-112
-1.83851e-103
-1.27322e-96
-4.17421e-89
-2.94076e-82
-1.48199e-79
-4.01789e-77
-1.26328e-74
-7.91735e-72
-5.82329e-70
-1.56686e-67
-5.74102e-66
-2.16391e-63
-1.1988e-60
-1.67562e-58
-1.3493e-57
-4.17679e-57
-7.34068e-57
-8.55198e-57
-7.14858e-57
-4.4915e-57
-2.20087e-57
-1.81829e-57
-1.03089e-56
-3.55154e-56
-6.83611e-56
-1.33638e-54
-6.0853e-53
-2.02076e-52
-2.92893e-52
-2.46796e-52
-1.36347e-52
-5.26139e-53
-1.4732e-53
-3.06863e-54
-4.64887e-55
-5.67108e-56
-5.31307e-57
-3.83062e-58
-2.12779e-59
-9.09437e-61
-2.97697e-62
-7.41539e-64
-1.39227e-65
-1.94755e-67
-2.001e-69
-1.48433e-71
-7.79411e-74
-2.82951e-76
-6.90182e-79
-1.09154e-81
-1.06739e-84
-6.02571e-88
-1.76093e-91
-2.17809e-95
-6.99078e-100
-2.73138e-135
-8.05326e-129
-1.86488e-122
-2.17997e-116
-2.45689e-110
-5.5119e-102
-3.28174e-95
-9.20102e-88
-5.02183e-81
-2.24218e-78
-5.45711e-76
-1.54429e-73
-8.89031e-71
-5.97734e-69
-1.4765e-66
-5.04306e-65
-1.69794e-62
-8.92562e-60
-1.1928e-57
-9.26798e-57
-2.79093e-56
-4.79134e-56
-5.46946e-56
-4.49234e-56
-2.78048e-56
-1.34415e-56
-9.8366e-57
-4.98612e-56
-1.69557e-55
-3.2473e-55
-6.57988e-54
-3.10785e-52
-1.0421e-51
-1.52433e-51
-1.2973e-51
-7.2482e-52
-2.83257e-52
-8.04394e-53
-1.70183e-53
-2.62474e-54
-3.2618e-55
-3.11759e-56
-2.29663e-57
-1.30554e-58
-5.71973e-60
-1.92232e-61
-4.92418e-63
-9.52233e-65
-1.37389e-66
-1.45777e-68
-1.11778e-70
-6.06974e-73
-2.27821e-75
-5.73868e-78
-9.34924e-81
-9.37802e-84
-5.39432e-87
-1.58947e-90
-1.94835e-94
-5.99982e-99
-3.94969e-133
-6.55991e-127
-1.13731e-120
-1.08638e-114
-9.66306e-109
-1.62851e-100
-8.33749e-94
-1.99948e-86
-8.43878e-80
-3.33695e-77
-7.28549e-75
-1.85488e-72
-9.80889e-70
-6.02874e-68
-1.36652e-65
-4.35054e-64
-1.30878e-61
-6.52714e-59
-8.33909e-57
-6.253e-56
-1.83214e-55
-3.07302e-55
-3.43793e-55
-2.77516e-55
-1.69238e-55
-8.07417e-56
-5.29205e-56
-2.36983e-55
-7.94454e-55
-1.51413e-54
-3.18109e-53
-1.56015e-51
-5.28488e-51
-7.8048e-51
-6.71134e-51
-3.79342e-51
-1.50181e-51
-4.32668e-52
-9.30003e-53
-1.46062e-53
-1.84955e-54
-1.8039e-55
-1.3581e-56
-7.90251e-58
-3.5497e-59
-1.22516e-60
-3.2282e-62
-6.43161e-64
-9.57472e-66
-1.04963e-67
-8.324e-70
-4.67782e-72
-1.81703e-74
-4.7324e-77
-7.95459e-80
-8.2009e-83
-4.81836e-86
-1.43606e-89
-1.75212e-93
-5.2112e-98
-4.61479e-131
-4.53938e-125
-6.27336e-119
-5.34102e-113
-3.75087e-107
-4.7408e-99
-2.08744e-92
-4.28293e-85
-1.39508e-78
-4.88389e-76
-9.55779e-74
-2.18837e-71
-1.06304e-68
-5.97291e-67
-1.24173e-64
-3.68451e-63
-9.90633e-61
-4.68636e-58
-5.72347e-56
-4.14241e-55
-1.18115e-54
-1.93595e-54
-2.12305e-54
-1.68461e-54
-1.01242e-54
-4.76837e-55
-2.83072e-55
-1.1068e-54
-3.65178e-54
-6.92704e-54
-1.50945e-52
-7.69549e-51
-2.63473e-50
-3.93007e-50
-3.41587e-50
-1.9539e-50
-7.83894e-51
-2.29182e-51
-5.00622e-52
-8.00868e-53
-1.0336e-53
-1.02892e-54
-7.91843e-56
-4.71737e-57
-2.17299e-58
-7.7038e-60
-2.08849e-61
-4.288e-63
-6.58866e-65
-7.46542e-67
-6.12635e-69
-3.56538e-71
-1.43452e-73
-3.8676e-76
-6.71767e-79
-7.13243e-82
-4.29149e-85
-1.29812e-88
-1.58402e-92
-4.58354e-97
-4.23316e-129
-2.63166e-123
-3.12263e-117
-2.59018e-111
-1.43666e-105
-1.35961e-97
-5.14932e-91
-9.04094e-84
-2.26823e-77
-7.02704e-75
-1.23171e-72
-2.53499e-70
-1.13119e-67
-5.81067e-66
-1.10738e-63
-3.06218e-62
-7.36007e-60
-3.30215e-57
-3.85489e-55
-2.69341e-54
-7.47508e-54
-1.19749e-53
-1.28753e-53
-1.00446e-53
-5.95023e-54
-2.76743e-54
-1.50461e-54
-5.07989e-54
-1.64605e-53
-3.108e-53
-7.02684e-52
-3.72817e-50
-1.29077e-49
-1.94553e-49
-1.70986e-49
-9.90138e-50
-4.02683e-50
-1.19508e-50
-2.65368e-51
-4.32525e-52
-5.69071e-53
-5.78326e-54
-4.55052e-55
-2.7761e-56
-1.31162e-57
-4.77735e-59
-1.3328e-60
-2.82069e-62
-4.47461e-64
-5.24219e-66
-4.45363e-68
-2.68584e-70
-1.12028e-72
-3.1301e-75
-5.62632e-78
-6.1642e-81
-3.80819e-84
-1.17326e-87
-1.43902e-91
-4.08244e-96
-2.83535e-127
-1.28792e-121
-1.4022e-115
-1.23868e-109
-5.4282e-104
-3.84036e-96
-1.25125e-89
-1.88027e-82
-3.62606e-76
-9.9367e-74
-1.55873e-71
-2.88223e-69
-1.18147e-66
-5.54866e-65
-9.68834e-63
-2.49644e-61
-5.3653e-59
-2.28256e-56
-2.54676e-54
-1.71811e-53
-4.64198e-53
-7.26966e-53
-7.66492e-53
-5.88041e-53
-3.43425e-53
-1.57771e-53
-7.94019e-54
-2.29166e-53
-7.27279e-53
-1.36697e-52
-3.20774e-51
-1.77323e-49
-6.21156e-49
-9.46475e-49
-8.41445e-49
-4.93462e-49
-2.03507e-49
-6.13277e-50
-1.38469e-50
-2.30005e-51
-3.08574e-52
-3.2021e-53
-2.57656e-54
-1.60994e-55
-7.80329e-57
-2.92057e-58
-8.38648e-60
-1.8299e-61
-2.99775e-63
-3.63237e-65
-3.19613e-67
-1.99845e-69
-8.64798e-72
-2.50669e-74
-4.66954e-77
-5.28927e-80
-3.36387e-83
-1.05934e-86
-1.31266e-90
-3.67993e-95
-1.2334e-125
-5.63975e-120
-5.71822e-114
-5.83992e-108
-2.02269e-102
-1.06815e-94
-2.99444e-88
-3.85182e-81
-5.6975e-75
-1.38044e-72
-1.93628e-70
-3.21509e-68
-1.21065e-65
-5.19869e-64
-8.31183e-62
-1.99553e-60
-3.83577e-58
-1.54708e-55
-1.64964e-53
-1.07475e-52
-2.82732e-52
-4.32939e-52
-4.47731e-52
-3.37852e-52
-1.94564e-52
-8.83119e-53
-4.15557e-53
-1.01648e-52
-3.14842e-52
-5.89075e-52
-1.43526e-50
-8.27665e-49
-2.93503e-48
-4.52315e-48
-4.06941e-48
-2.41776e-48
-1.01145e-48
-3.09601e-49
-7.1099e-50
-1.2039e-50
-1.6473e-51
-1.74586e-52
-1.43687e-53
-9.19733e-55
-4.57405e-56
-1.75943e-57
-5.20109e-59
-1.17026e-60
-1.98021e-62
-2.48236e-64
-2.26304e-66
-1.46786e-68
-6.5945e-71
-1.98491e-73
-3.83709e-76
-4.50188e-79
-2.95488e-82
-9.54516e-86
-1.20101e-89
-3.35342e-94
-6.77269e-124
-2.328e-118
-2.1414e-112
-2.71349e-106
-7.43091e-101
-2.92468e-93
-7.05595e-87
-7.76998e-80
-8.79584e-74
-1.88338e-71
-2.36011e-69
-3.51711e-67
-1.2166e-64
-4.77708e-63
-6.98944e-61
-1.5633e-59
-2.68815e-57
-1.02769e-54
-1.04715e-52
-6.58964e-52
-1.68822e-51
-2.52817e-51
-2.56497e-51
-1.90409e-51
-1.08149e-51
-4.85112e-52
-2.15402e-52
-4.43515e-52
-1.33484e-51
-2.48594e-51
-6.29125e-50
-3.78939e-48
-1.36112e-47
-2.12254e-47
-1.93333e-47
-1.16415e-47
-4.94195e-48
-1.537e-48
-3.59109e-49
-6.20022e-50
-8.65473e-51
-9.36998e-52
-7.88913e-53
-5.17399e-54
-2.64062e-55
-1.04407e-56
-3.17781e-58
-7.3744e-60
-1.28915e-61
-1.67232e-63
-1.58009e-65
-1.06362e-67
-4.96405e-70
-1.55293e-72
-3.11919e-75
-3.79716e-78
-2.57846e-81
-8.57297e-85
-1.10072e-88
-3.08472e-93
-2.66185e-122
-8.02145e-117
-7.51175e-111
-1.2422e-104
-2.69067e-99
-7.8815e-92
-1.63671e-85
-1.54294e-78
-1.33365e-72
-2.52247e-70
-2.82145e-68
-3.77139e-66
-1.19838e-63
-4.30325e-62
-5.75806e-60
-1.19968e-58
-1.84579e-56
-6.68734e-54
-6.51075e-52
-3.95824e-51
-9.87748e-51
-1.4469e-50
-1.44042e-50
-1.05215e-50
-5.89513e-51
-2.61382e-51
-1.10422e-51
-1.90489e-51
-5.54026e-51
-1.0268e-50
-2.70017e-49
-1.701e-47
-6.19245e-47
-9.77614e-47
-9.01916e-47
-5.50636e-47
-2.37284e-47
-7.50075e-48
-1.78351e-48
-3.14071e-49
-4.47337e-50
-4.9483e-51
-4.26295e-52
-2.86505e-53
-1.5008e-54
-6.10045e-56
-1.91205e-57
-4.57692e-59
-8.26744e-61
-1.11005e-62
-1.08732e-64
-7.59891e-67
-3.68632e-69
-1.19953e-71
-2.50627e-74
-3.17083e-77
-2.23266e-80
-7.66526e-84
-1.00901e-87
-2.85908e-92
-9.3883e-121
-2.43154e-115
-2.71032e-109
-5.60079e-103
-9.59928e-98
-2.08983e-90
-3.73649e-84
-3.01514e-77
-1.98518e-71
-3.31514e-69
-3.30665e-67
-3.96215e-65
-1.15651e-62
-3.79831e-61
-4.64491e-59
-9.01361e-58
-1.24112e-55
-4.26045e-53
-3.96297e-51
-2.3281e-50
-5.65985e-50
-8.11146e-50
-7.92529e-50
-5.69734e-50
-3.14957e-50
-1.38066e-50
-5.58973e-51
-8.06034e-51
-2.25015e-50
-4.14877e-50
-1.13411e-48
-7.48251e-47
-2.76252e-46
-4.41755e-46
-4.12979e-46
-2.5574e-46
-1.11912e-46
-3.59683e-47
-8.70647e-48
-1.56417e-48
-2.27378e-49
-2.57035e-50
-2.26616e-51
-1.56103e-52
-8.39416e-54
-3.50826e-55
-1.13246e-56
-2.79661e-58
-5.22053e-60
-7.25636e-62
-7.37049e-64
-5.34962e-66
-2.69881e-68
-9.14129e-71
-1.98883e-73
-2.61889e-76
-1.91617e-79
-6.81379e-83
-9.23626e-87
-2.66451e-91
-2.65051e-119
-6.69264e-114
-1.13454e-107
-2.48625e-101
-3.3731e-96
-5.45112e-89
-8.39361e-83
-5.79613e-76
-2.89971e-70
-4.27332e-68
-3.79726e-66
-4.0761e-64
-1.0929e-61
-3.28342e-60
-3.66701e-58
-6.62689e-57
-8.16771e-55
-2.65598e-52
-2.36013e-50
-1.34005e-49
-3.17443e-49
-4.45195e-49
-4.26992e-49
-3.02155e-49
-1.64837e-49
-7.14556e-50
-2.78985e-50
-3.36368e-50
-8.93941e-50
-1.63883e-49
-4.65893e-48
-3.22384e-46
-1.20785e-45
-1.95748e-45
-1.85522e-45
-1.1658e-45
-5.18256e-46
-1.69411e-46
-4.17588e-47
-7.65598e-48
-1.13612e-48
-1.31273e-49
-1.18466e-50
-8.36535e-52
-4.61839e-53
-1.98489e-54
-6.59959e-56
-1.68156e-57
-3.24439e-59
-4.66916e-61
-4.91889e-63
-3.70899e-65
-1.9467e-67
-6.86793e-70
-1.55738e-72
-2.13734e-75
-1.62819e-78
-6.0134e-82
-8.42819e-86
-2.49125e-90
-3.60368e-118
-2.43981e-112
-5.50316e-106
-1.08622e-99
-1.16699e-94
-1.39842e-87
-1.85501e-81
-1.09565e-74
-4.15431e-69
-5.40022e-67
-4.27066e-65
-4.10398e-63
-1.01077e-60
-2.77825e-59
-2.83161e-57
-4.76483e-56
-5.25769e-54
-1.61922e-51
-1.37443e-49
-7.54406e-49
-1.74172e-48
-2.39079e-48
-2.25141e-48
-1.56857e-48
-8.4461e-49
-3.6213e-49
-1.37078e-49
-1.38603e-49
-3.4727e-49
-6.32516e-49
-1.87078e-47
-1.35972e-45
-5.17335e-45
-8.50164e-45
-8.17272e-45
-5.21364e-45
-2.35546e-45
-7.83396e-46
-1.96703e-46
-3.68128e-47
-5.578e-48
-6.58913e-49
-6.08759e-50
-4.40732e-51
-2.49852e-52
-1.10438e-53
-3.78263e-55
-9.94533e-57
-1.98348e-58
-2.95591e-60
-3.23032e-62
-2.53108e-64
-1.38262e-66
-5.08349e-69
-1.20245e-71
-1.72199e-74
-1.36816e-77
-5.26159e-81
-7.65333e-85
-2.33141e-89
-3.02011e-116
-1.44567e-110
-2.5957e-104
-4.66876e-98
-3.97362e-93
-3.52781e-86
-4.03265e-80
-2.03573e-73
-5.83464e-68
-6.68678e-66
-4.70138e-64
-4.04163e-62
-9.14341e-60
-2.29975e-58
-2.13737e-56
-3.34848e-55
-3.30847e-53
-9.64782e-51
-7.82189e-49
-4.15136e-48
-9.3428e-48
-1.25547e-47
-1.16106e-47
-7.96574e-48
-4.23434e-48
-1.79599e-48
-6.6208e-49
-5.64652e-49
-1.31874e-48
-2.38374e-48
-7.33829e-47
-5.61093e-45
-2.16944e-44
-3.61727e-44
-3.52882e-44
-2.28637e-44
-1.0502e-44
-3.55505e-45
-9.09575e-46
-1.73817e-46
-2.68987e-47
-3.24911e-48
-3.07368e-49
-2.2819e-50
-1.32852e-51
-6.0401e-53
-2.13139e-54
-5.78311e-56
-1.19234e-57
-1.84021e-59
-2.08646e-61
-1.69915e-63
-9.6632e-66
-3.7044e-68
-9.14683e-71
-1.36831e-73
-1.13565e-76
-4.55808e-80
-6.90374e-84
-2.17872e-88
-3.04968e-114
-6.91602e-109
-1.00442e-102
-1.97341e-96
-1.33106e-91
-8.75103e-85
-8.62263e-79
-3.71612e-72
-8.02907e-67
-8.10864e-65
-5.06306e-63
-3.89073e-61
-8.0849e-59
-1.86122e-57
-1.57607e-55
-2.29843e-54
-2.03384e-52
-5.61446e-50
-4.34727e-48
-2.2315e-47
-4.89648e-47
-6.44278e-47
-5.85253e-47
-3.95476e-47
-2.0757e-47
-8.71101e-48
-3.13902e-48
-2.27705e-48
-4.89436e-48
-8.76631e-48
-2.81008e-46
-2.26397e-44
-8.90229e-44
-1.50696e-43
-1.49267e-43
-9.82718e-44
-4.59119e-44
-1.58245e-44
-4.12698e-45
-8.05533e-46
-1.27347e-46
-1.57324e-47
-1.52422e-48
-1.16055e-49
-6.94003e-51
-3.24585e-52
-1.18014e-53
-3.30478e-55
-7.04441e-57
-1.12604e-58
-1.32476e-60
-1.12148e-62
-6.64183e-65
-2.65583e-67
-6.84967e-70
-1.07136e-72
-9.30155e-76
-3.90415e-79
-6.1757e-83
-2.02841e-87
-1.82584e-112
-2.11352e-107
-2.82063e-101
-8.19945e-95
-4.38427e-90
-2.13473e-83
-1.81329e-77
-6.66153e-71
-1.08194e-65
-9.62401e-64
-5.33082e-62
-3.65884e-60
-6.98342e-58
-1.4718e-56
-1.13458e-54
-1.53994e-53
-1.22057e-51
-3.1889e-49
-2.35798e-47
-1.17093e-46
-2.50557e-46
-3.22882e-46
-2.88155e-46
-1.91819e-46
-9.94252e-47
-4.12914e-47
-1.45892e-47
-9.09918e-48
-1.77512e-47
-3.14383e-47
-1.04978e-45
-8.92677e-44
-3.57259e-43
-6.1436e-43
-6.18213e-43
-4.13772e-43
-1.96707e-43
-6.90596e-44
-1.83648e-44
-3.66247e-45
-5.91637e-46
-7.47697e-47
-7.42018e-48
-5.7954e-49
-3.56013e-50
-1.71307e-51
-6.41813e-53
-1.85508e-54
-4.08845e-56
-6.76932e-58
-8.26431e-60
-7.27369e-62
-4.48691e-64
-1.87206e-66
-5.04587e-69
-8.25861e-72
-7.50939e-75
-3.30202e-78
-5.46925e-82
-1.87717e-86
-3.71517e-111
-2.91271e-106
-4.84038e-100
-3.34745e-93
-1.41932e-88
-5.12273e-82
-3.75043e-76
-1.17207e-69
-1.42681e-64
-1.11733e-62
-5.48392e-61
-3.3589e-59
-5.88827e-57
-1.13644e-55
-7.96798e-54
-1.00637e-52
-7.1458e-51
-1.7665e-48
-1.24729e-46
-5.99342e-46
-1.25093e-45
-1.5791e-45
-1.38483e-45
-9.08303e-46
-4.65017e-46
-1.91144e-46
-6.63838e-47
-3.60545e-47
-6.2918e-47
-1.09873e-46
-3.82318e-45
-3.43734e-43
-1.4013e-42
-2.44961e-42
-2.5056e-42
-1.70574e-42
-8.25519e-43
-2.95328e-43
-8.0109e-44
-1.63287e-44
-2.69602e-45
-3.48621e-46
-3.54457e-47
-2.84024e-48
-1.7926e-49
-8.87538e-51
-3.4268e-52
-1.02239e-53
-2.3299e-55
-3.99598e-57
-5.06284e-59
-4.63319e-61
-2.97744e-63
-1.29657e-65
-3.65383e-68
-6.2621e-71
-5.9696e-74
-2.75417e-77
-4.78749e-81
-1.72308e-85
-9.12969e-137
-3.53304e-129
-3.32754e-99
-1.3422e-91
-4.51345e-87
-1.21002e-80
-7.6298e-75
-2.02301e-68
-1.84025e-63
-1.26809e-61
-5.50824e-60
-3.00798e-58
-4.843e-56
-8.56237e-55
-5.45504e-53
-6.41e-52
-4.07803e-50
-9.53646e-48
-6.4293e-46
-2.99024e-45
-6.08892e-45
-7.53093e-45
-6.49118e-45
-4.19575e-45
-2.12204e-45
-8.63458e-46
-2.95354e-46
-1.41679e-46
-2.17988e-46
-3.73952e-46
-1.35634e-44
-1.2917e-42
-5.36866e-42
-9.54688e-42
-9.93188e-42
-6.88076e-42
-3.39165e-42
-1.23693e-42
-3.42369e-43
-7.1351e-44
-1.20443e-44
-1.59393e-45
-1.66068e-46
-1.36545e-47
-8.8555e-49
-4.51191e-50
-1.79544e-51
-5.52976e-53
-1.30307e-54
-2.31512e-56
-3.04422e-58
-2.8969e-60
-1.93964e-62
-8.81758e-65
-2.59892e-67
-4.66672e-70
-4.66815e-73
-2.26271e-76
-4.13578e-80
-1.56558e-84
-4.488e-135
-2.98811e-127
-2.59158e-103
-5.28314e-90
-1.40922e-85
-2.81622e-79
-1.527e-73
-3.42335e-67
-2.31974e-62
-1.40595e-60
-5.39827e-59
-2.6257e-57
-3.88253e-55
-6.29024e-54
-3.63787e-52
-3.97617e-51
-2.2668e-49
-5.01317e-47
-3.22687e-45
-1.45305e-44
-2.88725e-44
-3.49957e-44
-2.96531e-44
-1.88923e-44
-9.44066e-45
-3.80318e-45
-1.28337e-45
-5.5185e-46
-7.38576e-46
-1.2386e-45
-4.68361e-44
-4.73374e-42
-2.00771e-41
-3.63445e-41
-3.84799e-41
-2.71444e-41
-1.36341e-41
-5.07107e-42
-1.43282e-42
-3.05415e-43
-5.27236e-44
-7.14263e-45
-7.62727e-46
-6.43623e-47
-4.28987e-48
-2.2495e-49
-9.22664e-51
-2.9337e-52
-7.14892e-54
-1.31577e-55
-1.79568e-57
-1.77697e-59
-1.23974e-61
-5.88443e-64
-1.81453e-66
-3.41532e-69
-3.58747e-72
-1.82891e-75
-3.5208e-79
-1.40533e-83
-7.58216e-150
-2.48173e-125
-1.45453e-101
-2.04032e-88
-4.31802e-84
-6.46873e-78
-3.00716e-72
-5.67591e-66
-2.8559e-61
-1.52173e-59
-5.15812e-58
-2.23232e-56
-3.03132e-54
-4.5023e-53
-2.36125e-51
-2.40001e-50
-1.22622e-48
-2.564e-46
-1.57562e-44
-6.87117e-44
-1.33261e-43
-1.58325e-43
-1.31908e-43
-8.28503e-44
-4.0912e-44
-1.63196e-44
-5.43965e-45
-2.1281e-45
-2.44886e-45
-3.9897e-45
-1.5729e-43
-1.69053e-41
-7.32374e-41
-1.35065e-40
-1.45627e-40
-1.04659e-40
-5.35935e-41
-2.03387e-41
-5.86848e-42
-1.27993e-42
-2.26031e-43
-3.1354e-44
-3.43237e-45
-2.9731e-46
-2.03686e-47
-1.09939e-48
-4.64831e-50
-1.52591e-51
-3.84535e-53
-7.33198e-55
-1.03854e-56
-1.06876e-58
-7.76999e-61
-3.85115e-63
-1.24268e-65
-2.45265e-68
-2.70692e-71
-1.45276e-74
-2.94959e-78
-1.24403e-82
-1.06355e-147
-2.02304e-123
-8.01972e-100
-7.72681e-87
-1.29783e-82
-1.46965e-76
-5.82939e-71
-9.21461e-65
-3.43141e-60
-1.60668e-58
-4.8016e-57
-1.8469e-55
-2.303e-53
-3.13719e-52
-1.49043e-50
-1.40838e-49
-6.44952e-48
-1.27471e-45
-7.47799e-44
-3.15921e-43
-5.98161e-43
-6.96744e-43
-5.70887e-43
-3.53553e-43
-1.72549e-43
-6.81609e-44
-2.24643e-44
-8.11009e-45
-7.95349e-45
-1.24897e-44
-5.13269e-43
-5.87859e-41
-2.60401e-40
-4.89634e-40
-5.37983e-40
-3.94141e-40
-2.05876e-40
-7.97546e-41
-2.35098e-41
-5.24865e-42
-9.48484e-43
-1.34754e-43
-1.51262e-44
-1.34519e-45
-9.47419e-47
-5.26423e-48
-2.29459e-49
-7.77731e-51
-2.02691e-52
-4.00379e-54
-5.88615e-56
-6.29933e-58
-4.77241e-60
-2.47022e-62
-8.34222e-65
-1.727e-67
-2.00363e-70
-1.13286e-73
-2.42858e-77
-1.0842e-81
-1.6473e-145
-1.61766e-121
-4.34092e-98
-2.86767e-85
-3.82431e-81
-3.31226e-75
-1.11288e-69
-1.46388e-63
-4.02041e-59
-1.65348e-57
-4.35087e-56
-1.48564e-54
-1.701e-52
-2.12625e-51
-9.14043e-50
-8.02744e-49
-3.2952e-47
-6.15438e-45
-3.44648e-43
-1.41098e-42
-2.60874e-42
-2.97979e-42
-2.40162e-42
-1.46678e-42
-7.07591e-43
-2.76831e-43
-9.02831e-44
-3.04729e-44
-2.53341e-44
-3.79745e-44
-1.62593e-42
-1.98882e-40
-9.01773e-40
-1.73025e-39
-1.93872e-39
-1.44882e-39
-7.72371e-40
-3.05582e-40
-9.2066e-41
-2.10483e-41
-3.89353e-42
-5.66713e-43
-6.52444e-44
-5.95826e-45
-4.31476e-46
-2.46836e-47
-1.10929e-48
-3.88229e-50
-1.04642e-51
-2.14142e-53
-3.2675e-55
-3.63651e-57
-2.87099e-59
-1.55194e-61
-5.48581e-64
-1.19144e-66
-1.4536e-69
-8.66365e-73
-1.96283e-76
-9.28834e-81
-2.50485e-143
-1.26807e-119
-2.30517e-96
-1.04242e-83
-1.10426e-79
-7.43276e-74
-2.09328e-68
-2.27402e-62
-4.58951e-58
-1.65732e-56
-3.83433e-55
-1.1608e-53
-1.22023e-51
-1.40043e-50
-5.44122e-49
-4.43977e-48
-1.6338e-46
-2.88272e-44
-1.54097e-42
-6.11552e-42
-1.10438e-41
-1.23728e-41
-9.81101e-42
-5.91017e-42
-2.81859e-42
-1.09222e-42
-3.52691e-43
-1.12588e-43
-7.92519e-44
-1.12075e-43
-4.99504e-42
-6.54048e-40
-3.0391e-39
-5.95564e-39
-6.81027e-39
-5.19476e-39
-2.82804e-39
-1.1433e-39
-3.52213e-40
-8.24957e-41
-1.56261e-41
-2.33079e-42
-2.75286e-43
-2.58212e-44
-1.92295e-45
-1.13275e-46
-5.2491e-48
-1.89703e-49
-5.28832e-51
-1.12118e-52
-1.77558e-54
-2.05496e-56
-1.69062e-58
-9.5441e-61
-3.53139e-63
-8.04752e-66
-1.03275e-68
-6.49152e-72
-1.55541e-75
-7.81077e-80
-3.69193e-141
-9.73834e-118
-1.20003e-94
-3.70894e-82
-3.12259e-78
-1.66741e-72
-3.88119e-67
-3.45166e-61
-5.09999e-57
-1.61649e-55
-3.28346e-54
-8.80114e-53
-8.49307e-51
-8.95498e-50
-3.14103e-48
-2.38022e-47
-7.85281e-46
-1.30861e-43
-6.67713e-42
-2.56966e-41
-4.53361e-41
-4.98288e-41
-3.88806e-41
-2.31054e-41
-1.08945e-41
-4.18179e-42
-1.33759e-42
-4.07859e-43
-2.43829e-43
-3.20916e-43
-1.48661e-41
-2.08887e-39
-9.95907e-39
-1.99518e-38
-2.3302e-38
-1.81549e-38
-1.00992e-38
-4.17414e-39
-1.31549e-39
-3.15807e-40
-6.12749e-41
-9.36918e-42
-1.13553e-42
-1.09422e-43
-8.38167e-45
-5.08481e-46
-2.42985e-47
-9.06867e-49
-2.61476e-50
-5.74317e-52
-9.43971e-54
-1.13606e-55
-9.7392e-58
-5.74182e-60
-2.22387e-62
-5.31793e-65
-7.17993e-68
-4.76114e-71
-1.20717e-74
-6.43862e-79
-5.2589e-139
-7.32152e-116
-6.11955e-93
-1.29078e-80
-8.6427e-77
-3.75418e-71
-7.09573e-66
-5.11508e-60
-5.51164e-56
-1.53285e-54
-2.72954e-53
-6.46852e-52
-5.72934e-50
-5.55371e-49
-1.75647e-47
-1.23558e-46
-3.65492e-45
-5.75083e-43
-2.80083e-41
-1.04562e-40
-1.80275e-40
-1.94425e-40
-1.49312e-40
-8.75454e-41
-4.08161e-41
-1.55196e-41
-4.91869e-42
-1.44445e-42
-7.38683e-43
-8.91198e-43
-4.28136e-41
-6.47262e-39
-3.17054e-38
-6.49998e-38
-7.75996e-38
-6.17982e-38
-3.51493e-38
-1.48609e-38
-4.79355e-39
-1.18006e-39
-2.34618e-40
-3.67861e-41
-4.57637e-42
-4.53153e-43
-3.57097e-44
-2.23138e-45
-1.09972e-46
-4.23888e-48
-1.26415e-49
-2.87662e-51
-4.90706e-53
-6.14083e-55
-5.48534e-57
-3.37711e-59
-1.36913e-61
-3.43562e-64
-4.88058e-67
-3.41512e-70
-9.16648e-74
-5.19627e-78
-7.22656e-137
-5.38467e-114
-3.05438e-91
-4.3906e-79
-2.34005e-75
-8.50848e-70
-1.27931e-64
-7.3944e-59
-5.78729e-55
-1.41183e-53
-2.20057e-52
-4.60337e-51
-3.74168e-49
-3.33698e-48
-9.50461e-47
-6.20328e-46
-1.64533e-44
-2.44375e-42
-1.13602e-40
-4.11566e-40
-6.93596e-40
-7.34164e-40
-5.55015e-40
-3.21114e-40
-1.48046e-40
-5.57634e-41
-1.75145e-41
-4.98666e-42
-2.2052e-42
-2.39974e-42
-1.19171e-40
-1.94385e-38
-9.79669e-38
-2.05749e-37
-2.51309e-37
-2.04725e-37
-1.19139e-37
-5.15565e-38
-1.70298e-38
-4.30114e-39
-8.76595e-40
-1.40983e-40
-1.80083e-41
-1.83283e-42
-1.48617e-43
-9.56682e-45
-4.86329e-46
-1.93615e-47
-5.97255e-49
-1.40803e-50
-2.49271e-52
-3.24352e-54
-3.0187e-56
-1.94065e-58
-8.23493e-61
-2.1684e-63
-3.24127e-66
-2.39362e-69
-6.8032e-73
-4.10091e-77
-9.56451e-135
-3.8709e-112
-1.49089e-89
-1.45854e-77
-6.19437e-74
-1.94343e-68
-2.27417e-63
-1.04182e-57
-5.89804e-54
-1.26178e-52
-1.71874e-51
-3.16841e-50
-2.36276e-48
-1.94033e-47
-4.97105e-46
-3.00834e-45
-7.15496e-44
-1.00289e-41
-4.45001e-40
-1.56512e-39
-2.5789e-39
-2.67967e-39
-1.99451e-39
-1.13884e-39
-5.19237e-40
-1.93738e-40
-6.03069e-41
-1.67344e-41
-6.48685e-42
-6.26533e-42
-3.20182e-40
-5.65176e-38
-2.93514e-37
-6.32215e-37
-7.90794e-37
-6.59517e-37
-3.92965e-37
-1.74164e-37
-5.89431e-38
-1.52813e-38
-3.19368e-39
-5.27055e-40
-6.91458e-41
-7.23531e-42
-6.03812e-43
-4.00484e-44
-2.10017e-45
-8.63653e-47
-2.75584e-48
-6.73095e-50
-1.23664e-51
-1.67303e-53
-1.62219e-55
-1.08886e-57
-4.83577e-60
-1.3361e-62
-2.10145e-65
-1.63791e-68
-4.93046e-72
-3.1614e-76
-1.21721e-132
-2.71764e-110
-7.11081e-88
-4.728e-76
-1.60224e-72
-4.46878e-67
-3.98367e-62
-1.42924e-56
-5.82785e-53
-1.09309e-51
-1.2991e-50
-2.10652e-49
-1.4408e-47
-1.09049e-46
-2.50992e-45
-1.40741e-44
-3.00175e-43
-3.96974e-41
-1.68133e-39
-5.7431e-39
-9.25487e-39
-9.44207e-39
-6.92048e-39
-3.90014e-39
-1.7586e-39
-6.49963e-40
-2.00505e-40
-5.44414e-41
-1.87829e-41
-1.58629e-41
-8.2918e-40
-1.58903e-37
-8.51777e-37
-1.88396e-36
-2.41565e-36
-2.06428e-36
-1.26029e-36
-5.72438e-37
-1.98609e-37
-5.28825e-38
-1.13377e-38
-1.92062e-39
-2.5888e-40
-2.78583e-41
-2.3933e-42
-1.63585e-43
-8.85069e-45
-3.75989e-46
-1.24109e-47
-3.1405e-49
-5.98774e-51
-8.42193e-53
-8.50678e-55
-5.96129e-57
-2.77055e-59
-8.03143e-62
-1.32908e-64
-1.09334e-67
-3.48599e-71
-2.37811e-75
-1.48682e-130
-1.86181e-108
-3.31118e-86
-1.49428e-74
-4.04763e-71
-1.03101e-65
-6.8693e-61
-1.90725e-55
-5.57686e-52
-9.16919e-51
-9.4915e-50
-1.35108e-48
-8.4728e-47
-5.91609e-46
-1.22184e-44
-6.34309e-44
-1.21323e-42
-1.51351e-40
-6.11894e-39
-2.03074e-38
-3.20135e-38
-3.20749e-38
-2.31534e-38
-1.288e-38
-5.74371e-39
-2.10256e-39
-6.4268e-40
-1.71245e-40
-5.34192e-41
-3.89605e-41
-2.06662e-39
-4.3148e-37
-2.39158e-36
-5.43893e-36
-7.15662e-36
-6.27209e-36
-3.9267e-36
-1.82912e-36
-6.50978e-37
-1.78119e-37
-3.91896e-38
-6.81713e-39
-9.44405e-40
-1.04546e-40
-9.24807e-42
-6.5154e-43
-3.63749e-44
-1.59645e-45
-5.45156e-47
-1.4292e-48
-2.82776e-50
-4.13479e-52
-4.35035e-54
-3.18239e-56
-1.5476e-58
-4.70637e-61
-8.19365e-64
-7.11362e-67
-2.40237e-70
-1.74381e-74
-1.73981e-128
-1.24356e-106
-1.50411e-84
-4.60054e-73
-9.98246e-70
-2.37476e-64
-1.1643e-59
-2.47296e-54
-5.16219e-51
-7.43892e-50
-6.69534e-49
-8.34821e-48
-4.7979e-46
-3.09393e-45
-5.72708e-44
-2.74992e-43
-4.71703e-42
-5.54994e-40
-2.14194e-38
-6.90963e-38
-1.06588e-37
-1.04896e-37
-7.45847e-38
-4.09581e-38
-1.80633e-38
-6.54819e-39
-1.98271e-39
-5.19467e-40
-1.48747e-40
-9.28651e-41
-4.94879e-39
-1.13001e-36
-6.4892e-36
-1.51958e-35
-2.05423e-35
-1.8482e-35
-1.18753e-35
-5.67714e-36
-2.07388e-36
-5.83461e-37
-1.31791e-37
-2.35506e-38
-3.35441e-39
-3.82113e-40
-3.48137e-41
-2.52855e-42
-1.45688e-43
-6.60659e-45
-2.33403e-46
-6.33964e-48
-1.30163e-49
-1.97849e-51
-2.1681e-53
-1.65542e-55
-8.42233e-58
-2.68658e-60
-4.92003e-63
-4.50757e-66
-1.61229e-69
-1.24526e-73
-1.94615e-126
-8.0913e-105
-6.65977e-83
-1.37863e-71
-2.40278e-68
-5.42905e-63
-1.9361e-58
-3.11188e-53
-4.61636e-50
-5.83011e-49
-4.55425e-48
-4.96217e-47
-2.61217e-45
-1.55744e-44
-2.58109e-43
-1.14496e-42
-1.76136e-41
-1.95437e-39
-7.20096e-38
-2.25889e-37
-3.41069e-37
-3.29755e-37
-2.3098e-37
-1.2522e-37
-5.46118e-38
-1.96017e-38
-5.87691e-39
-1.51574e-39
-4.03866e-40
-2.14888e-40
-1.13643e-38
-2.85005e-36
-1.69937e-35
-4.10395e-35
-5.70694e-35
-5.27658e-35
-3.48275e-35
-1.71007e-35
-6.41637e-36
-1.85718e-36
-4.30837e-37
-7.91215e-38
-1.15913e-38
-1.35918e-39
-1.27574e-40
-9.5545e-42
-5.68227e-43
-2.66272e-44
-9.73296e-46
-2.73903e-47
-5.83558e-49
-9.22017e-51
-1.05225e-52
-8.38483e-55
-4.46242e-57
-1.49282e-59
-2.87528e-62
-2.77942e-65
-1.05283e-68
-8.65174e-73
-2.07632e-124
-5.1242e-103
-2.87198e-81
-4.0179e-70
-5.64378e-67
-1.22465e-61
-3.15178e-57
-3.7956e-52
-3.983e-49
-4.40843e-48
-2.98338e-47
-2.83304e-46
-1.36508e-44
-7.53442e-44
-1.1168e-42
-4.57058e-42
-6.30571e-41
-6.59821e-39
-2.32128e-37
-7.08406e-37
-1.04723e-36
-9.94862e-37
-6.86565e-37
-3.67443e-37
-1.5846e-37
-5.62984e-38
-1.67045e-38
-4.24304e-39
-1.06416e-39