/*--------------------------------*- C++ -*----------------------------------*\
| =========                 |                                                 |
| \\      /  F ield         | OpenFOAM: The Open Source CFD Toolbox           |
|  \\    /   O peration     | Version:  v2012                                 |
|   \\  /    A nd           | Website:  www.openfoam.com                      |
|    \\/     M anipulation  |                                                 |
\*---------------------------------------------------------------------------*/
FoamFile
{
    version     2.0;
    format      ascii;
    class       surfaceScalarField;
    location    "0.7";
    object      phi;
}
// * * * * * * * * * * * * * * * * * * * * * * * * * * * * * * * * * * * * * //

dimensions      [0 3 -1 0 0 0 0];
oriented        oriented;


internalField   nonuniform List<scalar> 
49380
(
1.54838e-15
-2.14196e-13
-1.78847e-18
9.51659e-15
-1.57779e-12
1.06471e-18
2.65457e-14
-4.19923e-12
-1.75806e-17
5.48401e-14
-8.02622e-12
-4.92184e-19
9.67629e-14
-1.30729e-11
6.92062e-17
1.53338e-13
-1.9389e-11
-6.51894e-17
2.29134e-13
-2.70464e-11
1.07321e-16
3.259e-13
-3.61391e-11
6.50939e-17
4.47523e-13
-4.67663e-11
7.90616e-17
5.97912e-13
-5.90568e-11
8.22115e-17
7.80377e-13
-7.31303e-11
-2.36003e-17
9.9983e-13
-8.9134e-11
-2.48515e-17
1.26037e-12
-1.07235e-10
-8.97068e-17
1.56714e-12
-1.27583e-10
-2.20558e-17
1.92425e-12
-1.50375e-10
-5.12326e-17
2.33661e-12
-1.75787e-10
-5.4129e-17
2.80886e-12
-2.04028e-10
-8.57648e-17
3.34589e-12
-2.35315e-10
-1.00436e-16
3.95245e-12
-2.69875e-10
-1.45264e-16
4.63342e-12
-3.07937e-10
-1.41852e-16
5.39377e-12
-3.49744e-10
-1.2899e-16
6.23809e-12
-3.95579e-10
-1.08423e-16
7.17074e-12
-4.45648e-10
-9.8603e-17
8.1957e-12
-5.00275e-10
-8.15826e-17
9.31628e-12
-5.5968e-10
-7.33288e-17
1.05351e-11
-6.24163e-10
-5.98598e-17
1.18539e-11
-6.93989e-10
-5.37039e-17
1.32731e-11
-7.69341e-10
-4.4756e-17
1.47918e-11
-8.50596e-10
-4.10588e-17
1.6407e-11
-9.3782e-10
-3.58385e-17
1.8114e-11
-1.03129e-09
-3.34542e-17
1.99055e-11
-1.13116e-09
-3.16826e-17
2.17715e-11
-1.23751e-09
-2.83924e-17
2.36987e-11
-1.35038e-09
-2.61884e-17
2.56705e-11
-1.46975e-09
-2.06159e-17
2.76664e-11
-1.59556e-09
-1.82911e-17
2.96618e-11
-1.72752e-09
-1.22986e-17
3.16281e-11
-1.86537e-09
-9.53674e-18
3.3532e-11
-2.00858e-09
-2.29913e-19
3.53359e-11
-2.15604e-09
-6.76893e-19
3.69978e-11
-2.30807e-09
2.66853e-18
3.84724e-11
-2.46217e-09
-1.82639e-18
3.97102e-11
-2.6183e-09
-2.69504e-19
4.06596e-11
-2.77377e-09
-6.03538e-18
4.1267e-11
-2.92647e-09
-7.04966e-18
4.14778e-11
-3.07599e-09
-1.94422e-17
4.12399e-11
-3.21691e-09
-2.83428e-17
4.05027e-11
-3.34797e-09
-6.7185e-17
3.92234e-11
-3.46425e-09
-7.04846e-17
3.73696e-11
-3.56178e-09
-7.98109e-17
3.49247e-11
-3.63615e-09
-7.83133e-17
3.18998e-11
-3.67882e-09
-8.25001e-17
2.83402e-11
-3.68152e-09
-7.61987e-17
2.43343e-11
-3.63141e-09
-7.51948e-17
2.00144e-11
-3.50876e-09
-6.62966e-17
1.5541e-11
-3.28653e-09
-6.25516e-17
1.10705e-11
-2.92964e-09
-5.32808e-17
6.77193e-12
-2.39396e-09
-4.77123e-17
2.91406e-12
-1.63175e-09
-3.87302e-17
-5.88536e-10
-3.07064e-17
1.29521e-15
-2.15496e-13
-2.99958e-19
8.90217e-15
-1.58542e-12
-2.7282e-18
2.68158e-14
-4.21699e-12
1.76713e-17
5.71309e-14
-8.05702e-12
-5.85231e-17
1.03044e-13
-1.31191e-11
-3.82044e-17
1.66406e-13
-1.94528e-11
-5.02946e-17
2.49609e-13
-2.71303e-11
-8.26763e-17
3.56791e-13
-3.6245e-11
1.53805e-16
4.88885e-13
-4.68977e-11
8.66812e-17
6.50607e-13
-5.92164e-11
2.50891e-16
8.43171e-13
-7.33223e-11
7.32344e-17
1.07232e-12
-8.9362e-11
1.24984e-16
1.3408e-12
-1.07503e-10
2.32833e-17
1.65425e-12
-1.27895e-10
4.66821e-17
2.01644e-12
-1.50738e-10
-7.6623e-18
2.43283e-12
-1.76204e-10
-1.71818e-17
2.90811e-12
-2.04504e-10
-3.1267e-17
3.4472e-12
-2.35854e-10
-9.29617e-17
4.05566e-12
-2.70484e-10
-7.38472e-17
4.73927e-12
-3.08619e-10
9.89674e-17
5.50223e-12
-3.50505e-10
1.45829e-16
6.34901e-12
-3.96425e-10
1.1372e-16
7.28419e-12
-4.46582e-10
8.66919e-17
8.31193e-12
-5.01302e-10
5.92638e-17
9.4357e-12
-5.60803e-10
4.07611e-17
1.06583e-11
-6.25385e-10
2.22577e-17
1.19813e-11
-6.95312e-10
9.90907e-18
1.34052e-11
-7.70765e-10
-3.16124e-18
1.49291e-11
-8.5212e-10
-1.27548e-17
1.655e-11
-9.39441e-10
-2.18077e-17
1.82629e-11
-1.03301e-09
-2.69005e-17
2.00605e-11
-1.13296e-09
-3.02868e-17
2.19328e-11
-1.23938e-09
-2.82745e-17
2.38662e-11
-1.35232e-09
-2.37977e-17
2.5844e-11
-1.47173e-09
-1.38413e-17
2.78456e-11
-1.59756e-09
-4.85729e-18
2.98461e-11
-1.72952e-09
5.83003e-18
3.18169e-11
-1.86734e-09
1.87764e-17
3.37243e-11
-2.01049e-09
3.76976e-17
3.55306e-11
-2.15784e-09
4.52335e-17
3.71934e-11
-2.30973e-09
4.51498e-17
3.86673e-11
-2.46364e-09
4.19055e-17
3.99026e-11
-2.61954e-09
3.80926e-17
4.08474e-11
-2.77471e-09
3.32175e-17
4.1448e-11
-2.92707e-09
2.12894e-17
4.16496e-11
-3.0762e-09
1.99917e-18
4.13999e-11
-3.21666e-09
-2.97417e-17
4.06485e-11
-3.34722e-09
-5.17716e-17
3.93522e-11
-3.46295e-09
-6.35954e-17
3.74788e-11
-3.55991e-09
-6.68559e-17
3.50116e-11
-3.63368e-09
-6.8328e-17
3.19615e-11
-3.67577e-09
-6.65417e-17
2.83741e-11
-3.67794e-09
-6.37747e-17
2.43388e-11
-3.62737e-09
-5.76004e-17
1.99895e-11
-3.50441e-09
-5.24307e-17
1.54886e-11
-3.28203e-09
-4.43133e-17
1.09952e-11
-2.92515e-09
-3.84667e-17
6.67339e-12
-2.38964e-09
-2.9281e-17
2.77311e-12
-1.62785e-09
-2.12005e-17
-5.85769e-10
-7.53975e-18
8.03849e-16
-2.16296e-13
6.52047e-19
6.3476e-15
-1.59094e-12
2.80655e-18
2.06638e-14
-4.23108e-12
2.97978e-17
4.63813e-14
-8.08277e-12
-3.18391e-18
8.70556e-14
-1.31595e-11
3.20911e-17
1.44688e-13
-1.95105e-11
-9.42722e-18
2.22392e-13
-2.72087e-11
-8.32306e-17
3.23343e-13
-3.63468e-11
-9.97345e-17
4.5054e-13
-4.70261e-11
-1.41753e-16
6.09018e-13
-5.93747e-11
2.22628e-17
7.99838e-13
-7.35141e-11
-1.101e-16
1.02975e-12
-8.95912e-11
9.35853e-17
1.30029e-12
-1.07774e-10
-1.92229e-17
1.61801e-12
-1.28212e-10
1.30625e-16
1.98565e-12
-1.51105e-10
4.76473e-17
2.40924e-12
-1.76626e-10
1.16367e-16
2.89271e-12
-2.04986e-10
8.89509e-17
3.4413e-12
-2.36402e-10
7.6823e-17
4.06034e-12
-2.71102e-10
1.2041e-16
4.75464e-12
-3.09313e-10
1.22901e-16
5.52907e-12
-3.51279e-10
8.73929e-17
6.38845e-12
-3.97284e-10
5.90602e-17
7.33732e-12
-4.4753e-10
2.73456e-17
8.37988e-12
-5.02344e-10
1.27863e-17
9.51952e-12
-5.61943e-10
-3.3614e-18
1.0759e-11
-6.26625e-10
-5.91497e-18
1.21e-11
-6.96653e-10
-1.22514e-17
1.35429e-11
-7.72208e-10
-1.19218e-17
1.50866e-11
-8.53663e-10
-1.75734e-17
1.67282e-11
-9.41082e-10
-1.87873e-17
1.84624e-11
-1.03474e-09
-2.22366e-17
2.02818e-11
-1.13478e-09
-2.18815e-17
2.21761e-11
-1.24127e-09
-1.7706e-17
2.41315e-11
-1.35427e-09
-8.90406e-18
2.61311e-11
-1.47373e-09
6.72652e-18
2.81535e-11
-1.59958e-09
2.07318e-17
3.01738e-11
-1.73154e-09
3.76181e-17
3.21627e-11
-1.86933e-09
5.81305e-17
3.40861e-11
-2.01241e-09
9.07605e-17
3.59057e-11
-2.15966e-09
1.037e-16
3.75786e-11
-2.31141e-09
1.03543e-16
3.90587e-11
-2.46512e-09
9.68925e-17
4.02958e-11
-2.62077e-09
9.28342e-17
4.12377e-11
-2.77566e-09
8.32154e-17
4.183e-11
-2.92766e-09
6.48353e-17
4.20177e-11
-3.07638e-09
2.8748e-17
4.17481e-11
-3.21639e-09
-1.06381e-18
4.09708e-11
-3.34644e-09
-2.74166e-17
3.96428e-11
-3.46163e-09
-4.08797e-17
3.77317e-11
-3.558e-09
-5.73588e-17
3.52212e-11
-3.63117e-09
-6.43519e-17
3.21227e-11
-3.67268e-09
-6.97316e-17
2.84821e-11
-3.67429e-09
-6.76008e-17
2.43895e-11
-3.62328e-09
-6.33805e-17
1.99804e-11
-3.5e-09
-5.51938e-17
1.54203e-11
-3.27747e-09
-4.58086e-17
1.08739e-11
-2.9206e-09
-3.54129e-17
6.51099e-12
-2.38528e-09
-2.33506e-17
2.55534e-12
-1.6239e-09
-8.87327e-18
-5.83214e-10
6.39031e-18
9.14987e-16
-2.17191e-13
2.62908e-18
6.90223e-15
-1.59686e-12
9.473e-18
2.19155e-14
-4.246e-12
9.67889e-18
4.89211e-14
-8.11018e-12
-4.77163e-17
9.18735e-14
-1.32023e-11
1.72548e-17
1.52327e-13
-1.95718e-11
-1.00999e-16
2.34503e-13
-2.72909e-11
-1.51035e-18
3.40307e-13
-3.6453e-11
-4.47157e-17
4.72731e-13
-4.71592e-11
-7.64562e-17
6.36396e-13
-5.95377e-11
6.95738e-17
8.32537e-13
-7.37106e-11
-3.11769e-17
1.06719e-12
-8.98246e-11
1.31515e-16
1.34222e-12
-1.08049e-10
3.60112e-17
1.66398e-12
-1.28532e-10
1.53634e-16
2.03546e-12
-1.51476e-10
8.90759e-17
2.46332e-12
-1.77052e-10
1.89133e-16
2.95106e-12
-2.05473e-10
1.34902e-16
3.50496e-12
-2.36955e-10
1.48405e-16
4.13025e-12
-2.71726e-10
1.84026e-16
4.83221e-12
-3.10013e-10
1.65451e-16
5.61589e-12
-3.52061e-10
1.5447e-16
6.4863e-12
-3.98153e-10
1.31425e-16
7.44798e-12
-4.48491e-10
1.1847e-16
8.5053e-12
-5.03401e-10
1.04856e-16
9.66172e-12
-5.63098e-10
9.21982e-17
1.09201e-11
-6.27882e-10
7.94299e-17
1.22821e-11
-6.98014e-10
6.74965e-17
1.3748e-11
-7.73673e-10
5.48221e-17
1.53168e-11
-8.55232e-10
4.08795e-17
1.69852e-11
-9.4275e-10
2.8437e-17
1.87478e-11
-1.0365e-09
1.80144e-17
2.0597e-11
-1.13663e-09
1.14849e-17
2.25219e-11
-1.2432e-09
1.31334e-17
2.45086e-11
-1.35626e-09
2.1175e-17
2.65396e-11
-1.47576e-09
3.8972e-17
2.85929e-11
-1.60164e-09
5.56647e-17
3.06429e-11
-1.73359e-09
7.53597e-17
3.26597e-11
-1.87134e-09
1.02226e-16
3.46084e-11
-2.01436e-09
1.43964e-16
3.64498e-11
-2.1615e-09
1.62953e-16
3.81401e-11
-2.31309e-09
1.60054e-16
3.96323e-11
-2.46661e-09
1.53249e-16
4.08754e-11
-2.62201e-09
1.45983e-16
4.18162e-11
-2.77659e-09
1.358e-16
4.23997e-11
-2.92825e-09
1.08463e-16
4.257e-11
-3.07655e-09
6.39109e-17
4.22741e-11
-3.21609e-09
1.43539e-17
4.14618e-11
-3.34563e-09
1.04344e-17
4.00896e-11
-3.46025e-09
-8.39427e-18
3.81257e-11
-3.55604e-09
-2.06898e-17
3.55543e-11
-3.6286e-09
-2.90089e-17
3.23872e-11
-3.66951e-09
-3.03942e-17
2.86713e-11
-3.67058e-09
-3.03023e-17
2.44977e-11
-3.61911e-09
-2.23147e-17
2.00035e-11
-3.49551e-09
-1.63691e-17
1.53585e-11
-3.27283e-09
-3.5322e-18
1.07367e-11
-2.91597e-09
4.65656e-18
6.32546e-12
-2.38087e-09
2.01678e-17
2.40492e-12
-1.61997e-09
3.47368e-17
-5.80804e-10
5.71854e-17
6.13138e-16
-2.17746e-13
9.65603e-18
4.95663e-15
-1.60124e-12
-8.53422e-18
1.69393e-14
-4.25785e-12
1.85978e-17
3.97208e-14
-8.13307e-12
-6.8498e-18
7.741e-14
-1.32396e-11
3.75375e-17
1.32312e-13
-1.96271e-11
-3.75145e-17
2.08651e-13
-2.7367e-11
8.8206e-18
3.08809e-13
-3.65539e-11
-8.28519e-17
4.36942e-13
-4.72881e-11
-9.411e-17
5.97273e-13
-5.96983e-11
-2.55356e-17
7.92415e-13
-7.39067e-11
-1.1481e-16
1.02814e-12
-9.006e-11
4.75819e-17
1.30664e-12
-1.08328e-10
-5.30173e-17
1.63413e-12
-1.28859e-10
7.75789e-17
2.01358e-12
-1.51855e-10
3.62521e-18
2.45166e-12
-1.77489e-10
1.65278e-16
2.95143e-12
-2.05972e-10
8.64494e-17
3.51939e-12
-2.37522e-10
1.64791e-16
4.16004e-12
-2.72365e-10
1.44602e-16
4.87889e-12
-3.10731e-10
1.76515e-16
5.68112e-12
-3.52862e-10
1.63125e-16
6.5719e-12
-3.99043e-10
1.57136e-16
7.55593e-12
-4.49474e-10
1.29771e-16
8.63766e-12
-5.04481e-10
1.25362e-16
9.82063e-12
-5.6428e-10
1.05604e-16
1.11078e-11
-6.29168e-10
1.03471e-16
1.25006e-11
-6.99406e-10
8.95271e-17
1.39997e-11
-7.75172e-10
8.63536e-17
1.56037e-11
-8.56835e-10
7.26581e-17
1.73093e-11
-9.44455e-10
6.58571e-17
1.91108e-11
-1.0383e-09
5.45412e-17
2.10003e-11
-1.13852e-09
4.98113e-17
2.29667e-11
-1.24516e-09
5.11915e-17
2.49954e-11
-1.35829e-09
6.04301e-17
2.70682e-11
-1.47783e-09
7.99333e-17
2.91628e-11
-1.60373e-09
9.72098e-17
3.12524e-11
-1.73568e-09
1.18631e-16
3.33065e-11
-1.87339e-09
1.47662e-16
3.52891e-11
-2.01634e-09
1.97683e-16
3.71599e-11
-2.16337e-09
2.18555e-16
3.88739e-11
-2.31481e-09
2.15764e-16
4.0383e-11
-2.46812e-09
2.05629e-16
4.16351e-11
-2.62326e-09
1.99331e-16
4.25758e-11
-2.77753e-09
1.85184e-16
4.31492e-11
-2.92882e-09
1.54788e-16
4.32984e-11
-3.0767e-09
9.66321e-17
4.297e-11
-3.21576e-09
5.20212e-17
4.21133e-11
-3.34477e-09
4.16106e-17
4.06851e-11
-3.45883e-09
2.42023e-17
3.86539e-11
-3.55401e-09
1.02584e-18
3.60047e-11
-3.62595e-09
-9.37126e-18
3.27503e-11
-3.66625e-09
-1.61392e-17
2.89388e-11
-3.66677e-09
-1.37728e-17
2.46625e-11
-3.61483e-09
-6.34055e-18
2.00612e-11
-3.49091e-09
4.73162e-18
1.53104e-11
-3.26807e-09
1.93713e-17
1.05966e-11
-2.91126e-09
3.31311e-17
6.13282e-12
-2.3764e-09
5.14438e-17
2.26719e-12
-1.6161e-09
7.2843e-17
-5.78534e-10
9.39803e-17
6.95904e-16
-2.1843e-13
-4.27851e-18
5.85563e-15
-1.60599e-12
6.6505e-17
1.8382e-14
-4.27053e-12
-2.67018e-17
4.17152e-14
-8.15716e-12
-1.00573e-16
8.09867e-14
-1.32782e-11
9.47585e-17
1.38138e-13
-1.96837e-11
5.16107e-17
2.155e-13
-2.74449e-11
-4.87105e-17
3.18189e-13
-3.66566e-11
-1.19642e-17
4.4836e-13
-4.74188e-11
-5.11787e-17
6.11014e-13
-5.98609e-11
-1.11644e-17
8.08658e-13
-7.41048e-11
-3.52936e-17
1.04673e-12
-9.02979e-11
1.11045e-19
1.32812e-12
-1.0861e-10
-3.85976e-17
1.6591e-12
-1.2919e-10
3.75555e-17
2.04305e-12
-1.52239e-10
5.07697e-18
2.487e-12
-1.77932e-10
1.36732e-16
2.99431e-12
-2.06479e-10
8.53752e-17
3.57207e-12
-2.38098e-10
1.66206e-16
4.22479e-12
-2.73017e-10
1.54325e-16
4.95822e-12
-3.11463e-10
1.1283e-16
5.77796e-12
-3.53681e-10
1.28136e-16
6.68936e-12
-3.99953e-10
1.38393e-16
7.69707e-12
-4.5048e-10
1.47444e-16
8.80571e-12
-5.05589e-10
1.57011e-16
1.00188e-11
-5.65492e-10
1.59822e-16
1.13393e-11
-6.30487e-10
1.61901e-16
1.27687e-11
-7.00834e-10
1.5649e-16
1.43075e-11
-7.76709e-10
1.51047e-16
1.59541e-11
-8.5848e-10
1.38571e-16
1.77051e-11
-9.46205e-10
1.26922e-16
1.95543e-11
-1.04015e-09
1.1271e-16
2.14936e-11
-1.14046e-09
1.03301e-16
2.35112e-11
-1.24718e-09
1.02417e-16
2.55918e-11
-1.36037e-09
1.09784e-16
2.77168e-11
-1.47996e-09
1.28447e-16
2.98627e-11
-1.60587e-09
1.45055e-16
3.20018e-11
-1.73782e-09
1.64821e-16
3.41024e-11
-1.87549e-09
1.95323e-16
3.61275e-11
-2.01836e-09
2.48397e-16
3.80353e-11
-2.16527e-09
2.719e-16
3.97795e-11
-2.31655e-09
2.65729e-16
4.13103e-11
-2.46965e-09
2.55858e-16
4.25744e-11
-2.62453e-09
2.4703e-16
4.35161e-11
-2.77847e-09
2.33871e-16
4.40781e-11
-2.92938e-09
1.97818e-16
4.42025e-11
-3.07682e-09
1.36089e-16
4.38351e-11
-3.21539e-09
7.35303e-17
4.29251e-11
-3.34386e-09
7.96114e-17
4.14292e-11
-3.45733e-09
5.67117e-17
3.93166e-11
-3.55189e-09
3.87014e-17
3.65731e-11
-3.62321e-09
2.80948e-17
3.32132e-11
-3.66289e-09
2.6649e-17
2.92862e-11
-3.66284e-09
2.85596e-17
2.48869e-11
-3.61043e-09
4.13073e-17
2.01583e-11
-3.48618e-09
5.1786e-17
1.52831e-11
-3.2632e-09
7.11906e-17
1.04637e-11
-2.90644e-09
8.3921e-17
5.94246e-12
-2.37188e-09
1.06299e-16
2.12135e-12
-1.61228e-09
1.27939e-16
-5.76409e-10
1.54962e-16
4.72015e-16
-2.18892e-13
4.24355e-18
4.59946e-15
-1.60974e-12
6.67572e-17
1.50922e-14
-4.28148e-12
-6.3515e-17
3.54518e-14
-8.17916e-12
-2.35047e-16
7.08368e-14
-1.33127e-11
1.37347e-16
1.23598e-13
-1.97362e-11
8.91193e-18
1.96949e-13
-2.75182e-11
1.19352e-17
2.96039e-13
-3.67556e-11
9.56594e-18
4.23591e-13
-4.75467e-11
-5.52907e-17
5.84613e-13
-6.00222e-11
-1.61868e-17
7.82492e-13
-7.43032e-11
-8.17107e-17
1.0226e-12
-9.05381e-11
3.42003e-19
1.30841e-12
-1.08896e-10
-7.49235e-17
1.64609e-12
-1.29527e-10
4.65473e-17
2.03927e-12
-1.52633e-10
-2.53887e-17
2.49468e-12
-1.78386e-10
1.20129e-16
3.01608e-12
-2.07e-10
3.49785e-17
3.61031e-12
-2.38691e-10
1.45423e-16
4.28188e-12
-2.73688e-10
8.55682e-17
5.03675e-12
-3.12217e-10
1.0736e-16
5.8807e-12
-3.54524e-10
1.08657e-16
6.81923e-12
-4.0089e-10
1.37509e-16
7.85723e-12
-4.51517e-10
1.29605e-16
8.99946e-12
-5.06729e-10
1.54931e-16
1.02496e-11
-5.66741e-10
1.5284e-16
1.16107e-11
-6.31847e-10
1.72203e-16
1.30842e-11
-7.02307e-10
1.67897e-16
1.46706e-11
-7.78294e-10
1.77992e-16
1.63681e-11
-8.60176e-10
1.70048e-16
1.81731e-11
-9.48008e-10
1.69013e-16
2.00792e-11
-1.04206e-09
1.56959e-16
2.20776e-11
-1.14245e-09
1.52189e-16
2.4156e-11
-1.24926e-09
1.52158e-16
2.62986e-11
-1.36251e-09
1.60835e-16
2.84856e-11
-1.48214e-09
1.79593e-16
3.06925e-11
-1.60808e-09
1.94618e-16
3.28907e-11
-1.74002e-09
2.12981e-16
3.5047e-11
-1.87765e-09
2.41358e-16
3.7123e-11
-2.02044e-09
2.97159e-16
3.90753e-11
-2.16722e-09
3.19004e-16
4.08558e-11
-2.31833e-09
3.12251e-16
4.24133e-11
-2.4712e-09
2.99247e-16
4.36926e-11
-2.6258e-09
2.92172e-16
4.46365e-11
-2.77941e-09
2.76332e-16
4.51861e-11
-2.92992e-09
2.40978e-16
4.52824e-11
-3.07692e-09
1.71067e-16
4.48702e-11
-3.21498e-09
1.16244e-16
4.38984e-11
-3.34288e-09
1.11108e-16
4.23237e-11
-3.45575e-09
8.88289e-17
4.01161e-11
-3.54968e-09
5.99364e-17
3.72626e-11
-3.62035e-09
4.74284e-17
3.37794e-11
-3.65941e-09
4.04719e-17
2.97183e-11
-3.65878e-09
4.49807e-17
2.51766e-11
-3.60589e-09
5.71201e-17
2.0302e-11
-3.4813e-09
7.32401e-17
1.5286e-11
-3.25818e-09
9.45484e-17
1.03495e-11
-2.9015e-09
1.13327e-16
5.76646e-12
-2.36729e-09
1.38255e-16
1.98396e-12
-1.60849e-09
1.66445e-16
-5.74421e-10
1.91663e-16
5.89921e-16
-2.19439e-13
-4.31809e-18
4.55455e-15
-1.61382e-12
-2.85994e-17
1.59517e-14
-4.29233e-12
6.63119e-17
4.23484e-14
-8.19972e-12
7.62285e-16
7.26179e-14
-1.3349e-11
-7.45134e-16
1.27975e-13
-1.97898e-11
2.03791e-16
2.00677e-13
-2.75929e-11
-2.17218e-16
3.02219e-13
-3.68556e-11
1.63513e-16
4.30765e-13
-4.76751e-11
4.27081e-17
5.93584e-13
-6.01844e-11
3.55392e-17
7.93284e-13
-7.45032e-11
-1.40544e-17
1.0361e-12
-9.07807e-11
-4.58652e-18
1.32549e-12
-1.09186e-10
-4.9318e-17
1.6681e-12
-1.2987e-10
-2.18643e-17
2.06799e-12
-1.53033e-10
-3.21027e-17
2.53218e-12
-1.7885e-10
2.5578e-17
3.06517e-12
-2.07533e-10
4.27422e-17
3.67398e-12
-2.39299e-10
1.05156e-16
4.36332e-12
-2.74376e-10
7.57208e-17
5.13958e-12
-3.12993e-10
4.45053e-17
6.00869e-12
-3.55392e-10
7.0894e-17
6.97643e-12
-4.01857e-10
9.29173e-17
8.04772e-12
-4.52588e-10
1.13527e-16
9.22754e-12
-5.07908e-10
1.42823e-16
1.05195e-11
-5.68031e-10
1.65615e-16
1.19268e-11
-6.33253e-10
1.90713e-16
1.34508e-11
-7.03829e-10
2.02234e-16
1.50918e-11
-7.79933e-10
2.16034e-16
1.6848e-11
-8.6193e-10
2.17102e-16
1.87153e-11
-9.49874e-10
2.17354e-16
2.0687e-11
-1.04403e-09
2.08272e-16
2.27537e-11
-1.14452e-09
2.03161e-16
2.49024e-11
-1.2514e-09
2.03871e-16
2.71165e-11
-1.36472e-09
2.12217e-16
2.93751e-11
-1.4844e-09
2.30003e-16
3.16528e-11
-1.61035e-09
2.43675e-16
3.39194e-11
-1.74228e-09
2.58504e-16
3.61402e-11
-1.87987e-09
2.85572e-16
3.82752e-11
-2.02257e-09
3.39796e-16
4.02793e-11
-2.16922e-09
3.61788e-16
4.21023e-11
-2.32015e-09
3.51147e-16
4.36913e-11
-2.47279e-09
3.39035e-16
4.4989e-11
-2.6271e-09
3.29935e-16
4.59363e-11
-2.78036e-09
3.16649e-16
4.64727e-11
-2.93046e-09
2.78856e-16
4.65377e-11
-3.07698e-09
2.10906e-16
4.60753e-11
-3.21452e-09
1.41836e-16
4.50335e-11
-3.34184e-09
1.49685e-16
4.33695e-11
-3.45409e-09
1.21144e-16
4.10539e-11
-3.54737e-09
9.69391e-17
3.80753e-11
-3.61737e-09
8.28606e-17
3.44521e-11
-3.65578e-09
8.01967e-17
3.02388e-11
-3.65456e-09
8.3091e-17
2.55364e-11
-3.60118e-09
9.98525e-17
2.04983e-11
-3.47626e-09
1.14712e-16
1.53265e-11
-3.253e-09
1.40402e-16
1.02622e-11
-2.89643e-09
1.57694e-16
5.61221e-12
-2.36264e-09
1.86205e-16
1.86464e-12
-1.60474e-09
2.13894e-16
-5.72551e-10
2.4498e-16
4.39641e-16
-2.19853e-13
8.55437e-19
3.76455e-15
-1.61727e-12
-2.09154e-17
1.3926e-14
-4.3022e-12
3.24183e-17
3.84005e-14
-8.21931e-12
6.31881e-16
6.61411e-14
-1.33844e-11
-9.44701e-16
1.1974e-13
-1.98441e-11
-1.37237e-16
1.88275e-13
-2.76674e-11
-6.48657e-16
2.88598e-13
-3.69554e-11
-1.14632e-17
4.15458e-13
-4.78043e-11
-2.60838e-16
5.79639e-13
-6.03487e-11
-1.10615e-17
7.81288e-13
-7.47063e-11
-1.76743e-16
1.02818e-12
-9.10277e-11
1.07147e-18
1.32349e-12
-1.09482e-10
-1.41421e-16
1.67439e-12
-1.30221e-10
1.66588e-18
2.08513e-12
-1.53444e-10
-8.05693e-17
2.56281e-12
-1.79327e-10
3.95811e-17
3.11232e-12
-2.08082e-10
2.66466e-18
3.74061e-12
-2.39926e-10
9.98087e-17
4.45276e-12
-2.75088e-10
2.56226e-17
5.25534e-12
-3.13795e-10
4.51922e-17
6.15462e-12
-3.56291e-10
4.81533e-17
7.15658e-12
-4.02858e-10
9.30939e-17
8.26643e-12
-4.53697e-10
9.36758e-17
9.4893e-12
-5.0913e-10
1.37783e-16
1.0829e-11
-5.69369e-10
1.48977e-16
1.22888e-11
-6.34711e-10
1.89013e-16
1.38701e-11
-7.05408e-10
1.98684e-16
1.5573e-11
-7.81634e-10
2.27873e-16
1.73956e-11
-8.63751e-10
2.33225e-16
1.93334e-11
-9.51809e-10
2.4577e-16
2.13793e-11
-1.04607e-09
2.40678e-16
2.35232e-11
-1.14666e-09
2.42684e-16
2.57516e-11
-1.25363e-09
2.46072e-16
2.80466e-11
-1.36701e-09
2.57118e-16
3.03865e-11
-1.48674e-09
2.75404e-16
3.27443e-11
-1.61271e-09
2.87611e-16
3.50884e-11
-1.74462e-09
3.00654e-16
3.73825e-11
-1.88216e-09
3.24098e-16
3.95845e-11
-2.02477e-09
3.78094e-16
4.16475e-11
-2.17128e-09
3.96521e-16
4.35192e-11
-2.32201e-09
3.85683e-16
4.51443e-11
-2.47441e-09
3.7092e-16
4.64634e-11
-2.62841e-09
3.64494e-16
4.74154e-11
-2.78131e-09
3.49571e-16
4.79379e-11
-2.93098e-09
3.15854e-16
4.79687e-11
-3.07701e-09
2.44615e-16
4.74505e-11
-3.214e-09
1.87045e-16
4.63311e-11
-3.34072e-09
1.82239e-16
4.45675e-11
-3.45232e-09
1.54551e-16
4.21314e-11
-3.54493e-09
1.1923e-16
3.90131e-11
-3.61425e-09
1.02612e-16
3.52337e-11
-3.652e-09
9.29502e-17
3.08509e-11
-3.65018e-09
9.72637e-17
2.59704e-11
-3.5963e-09
1.1172e-16
2.07522e-11
-3.47104e-09
1.31091e-16
1.54104e-11
-3.24766e-09
1.5715e-16
1.02077e-11
-2.89123e-09
1.79497e-16
5.48409e-12
-2.35791e-09
2.09121e-16
1.76344e-12
-1.60101e-09
2.42332e-16
-5.70781e-10
2.71226e-16
4.79708e-16
-2.20319e-13
4.08506e-18
4.03976e-15
-1.62095e-12
-1.51317e-17
1.47254e-14
-4.31254e-12
3.76645e-17
3.57852e-14
-8.23999e-12
4.1997e-17
6.90697e-14
-1.3417e-11
1.16446e-16
1.30872e-13
-1.98923e-11
1.66103e-15
1.96344e-13
-2.77395e-11
-8.64552e-16
2.97409e-13
-3.70548e-11
2.44086e-16
4.24183e-13
-4.79337e-11
-3.42846e-16
5.90889e-13
-6.0514e-11
1.46354e-16
7.94767e-13
-7.49107e-11
-5.031e-17
1.0454e-12
-9.12783e-11
-3.07395e-17
1.34588e-12
-1.09784e-10
-9.85447e-17
1.70442e-12
-1.30579e-10
-7.48769e-18
2.12482e-12
-1.53865e-10
-6.55351e-17
2.61539e-12
-1.79818e-10
2.52732e-17
3.18072e-12
-2.08648e-10
3.7899e-18
3.82864e-12
-2.40574e-10
5.50493e-17
4.56427e-12
-2.75824e-10
1.41701e-17
5.3948e-12
-3.14625e-10
5.88716e-18
6.32655e-12
-3.57223e-10
3.79634e-17
7.36588e-12
-4.03897e-10
6.32871e-17
8.51812e-12
-4.54848e-10
8.6067e-17
9.78866e-12
-5.10399e-10
1.21312e-16
1.11813e-11
-5.70761e-10
1.50719e-16
1.26995e-11
-6.36227e-10
1.88778e-16
1.43445e-11
-7.07052e-10
2.12319e-16
1.61164e-11
-7.83403e-10
2.43015e-16
1.8013e-11
-8.65645e-10
2.58247e-16
2.00295e-11
-9.53823e-10
2.73077e-16
2.21581e-11
-1.0482e-09
2.73462e-16
2.43882e-11
-1.14889e-09
2.77343e-16
2.67053e-11
-1.25594e-09
2.83548e-16
2.90907e-11
-1.36939e-09
2.95799e-16
3.15211e-11
-1.48916e-09
3.13965e-16
3.39683e-11
-1.61515e-09
3.25818e-16
3.63989e-11
-1.74705e-09
3.3589e-16
3.87747e-11
-1.88453e-09
3.58096e-16
4.10518e-11
-2.02704e-09
4.08599e-16
4.31807e-11
-2.17341e-09
4.26442e-16
4.51069e-11
-2.32394e-09
4.12105e-16
4.67727e-11
-2.47607e-09
3.99248e-16
4.81163e-11
-2.62975e-09
3.91276e-16
4.90743e-11
-2.78226e-09
3.80252e-16
4.95821e-11
-2.93148e-09
3.46524e-16
4.95757e-11
-3.077e-09
2.81924e-16
4.89968e-11
-3.21341e-09
2.14005e-16
4.77921e-11
-3.33951e-09
2.21601e-16
4.5919e-11
-3.45045e-09
1.88019e-16
4.33502e-11
-3.54236e-09
1.57566e-16
4.0078e-11
-3.61098e-09
1.38155e-16
3.61265e-11
-3.64805e-09
1.31641e-16
3.15575e-11
-3.64561e-09
1.3261e-16
2.64819e-11
-3.59122e-09
1.50295e-16
2.10676e-11
-3.46562e-09
1.66774e-16
1.55421e-11
-3.24213e-09
1.95892e-16
1.01904e-11
-2.88587e-09
2.15287e-16
5.38451e-12
-2.3531e-09
2.47196e-16
1.6794e-12
-1.5973e-09
2.78448e-16
-5.69096e-10
3.12675e-16
4.17429e-16
-2.20708e-13
4.49568e-18
3.61716e-15
-1.62428e-12
-1.63968e-17
1.3657e-14
-4.32206e-12
6.31743e-17
3.39402e-14
-8.25917e-12
1.42978e-16
6.61174e-14
-1.34504e-11
-1.32786e-16
1.25623e-13
-1.9944e-11
9.34801e-16
1.89301e-13
-2.78176e-11
-1.76258e-15
2.91386e-13
-3.71611e-11
-5.20711e-16
4.19037e-13
-4.80668e-11
-6.16339e-16
5.88742e-13
-6.06821e-11
1.14971e-16
7.96066e-13
-7.51198e-11
-1.69682e-16
1.05322e-12
-9.15354e-11
-7.72991e-18
1.36166e-12
-1.10094e-10
-2.09405e-16
1.73096e-12
-1.30948e-10
8.25066e-18
2.16465e-12
-1.543e-10
-1.54766e-16
2.67172e-12
-1.80324e-10
3.90028e-17
3.25696e-12
-2.09233e-10
-5.13948e-17
3.92853e-12
-2.41245e-10
6.72408e-17
4.69186e-12
-2.76587e-10
-3.22071e-17
5.55437e-12
-3.15488e-10
-2.26612e-17
6.52288e-12
-3.58191e-10
-3.65608e-17
7.60405e-12
-4.04978e-10
1.13732e-17
8.80357e-12
-4.56047e-10
1.95147e-17
1.0127e-11
-5.11722e-10
7.83902e-17
1.15783e-11
-5.72211e-10
1.02583e-16
1.3161e-11
-6.37809e-10
1.61045e-16
1.48764e-11
-7.08765e-10
1.86114e-16
1.67244e-11
-7.85249e-10
2.34169e-16
1.87026e-11
-8.67621e-10
2.54636e-16
2.08057e-11
-9.55924e-10
2.82432e-16
2.30256e-11
-1.05041e-09
2.87609e-16
2.53507e-11
-1.15121e-09
2.99429e-16
2.77657e-11
-1.25836e-09
3.09143e-16
3.02505e-11
-1.37188e-09
3.248e-16
3.27808e-11
-1.49169e-09
3.44204e-16
3.53265e-11
-1.6177e-09
3.55572e-16
3.78525e-11
-1.74957e-09
3.6524e-16
4.03185e-11
-1.88699e-09
3.84452e-16
4.26783e-11
-2.0294e-09
4.34204e-16
4.488e-11
-2.1756e-09
4.48147e-16
4.68665e-11
-2.32592e-09
4.34788e-16
4.85775e-11
-2.47778e-09
4.19919e-16
4.99486e-11
-2.63112e-09
4.15545e-16
5.09138e-11
-2.78322e-09
4.03467e-16
5.14062e-11
-2.93197e-09
3.76265e-16
5.13599e-11
-3.07695e-09
3.11833e-16
5.0715e-11
-3.21277e-09
2.58832e-16
4.94178e-11
-3.33821e-09
2.53848e-16
4.74256e-11
-3.44845e-09
2.22479e-16
4.47122e-11
-3.53964e-09
1.8142e-16
4.12723e-11
-3.60754e-09
1.59589e-16
3.71333e-11
-3.64391e-09
1.45013e-16
3.23616e-11
-3.64083e-09
1.46501e-16
2.70742e-11
-3.58593e-09
1.60136e-16
2.14482e-11
-3.45999e-09
1.79847e-16
1.57251e-11
-3.2364e-09
2.07448e-16
1.0213e-11
-2.88035e-09
2.30567e-16
5.3148e-12
-2.34819e-09
2.61776e-16
1.61182e-12
-1.59359e-09
2.97145e-16
-5.67477e-10
3.28143e-16
4.42399e-16
-2.21129e-13
3.95932e-18
3.96884e-15
-1.62773e-12
1.08625e-17
1.41581e-14
-4.33208e-12
2.05346e-17
3.39538e-14
-8.27962e-12
-8.15796e-17
6.73364e-14
-1.34844e-11
-6.57001e-17
1.22527e-13
-1.99952e-11
4.9032e-16
1.96544e-13
-2.78879e-11
5.35293e-16
3.15828e-13
-3.72562e-11
2.89479e-15
4.36994e-13
-4.81993e-11
-1.43171e-15
6.02224e-13
-6.08532e-11
-6.28369e-16
8.16122e-13
-7.5335e-11
-2.37358e-16
1.07781e-12
-9.17986e-11
-1.79812e-16
1.39483e-12
-1.10413e-10
-1.81977e-16
1.77482e-12
-1.31329e-10
-8.0496e-17
2.22207e-12
-1.54749e-10
-1.69424e-16
2.74627e-12
-1.80849e-10
-2.92009e-17
3.35234e-12
-2.0984e-10
-5.15433e-17
4.04906e-12
-2.41941e-10
3.4379e-17
4.84194e-12
-2.77381e-10
-3.57571e-17
5.73916e-12
-3.16386e-10
-4.8633e-17
6.7477e-12
-3.592e-10
-2.22187e-17
7.87464e-12
-4.06105e-10
1.28662e-17
9.1258e-12
-4.57298e-10
4.19984e-17
1.05071e-11
-5.13102e-10
8.6235e-17
1.20226e-11
-5.73726e-10
1.2169e-16
1.36758e-11
-6.3946e-10
1.69114e-16
1.54682e-11
-7.10556e-10
2.00418e-16
1.73995e-11
-7.87178e-10
2.43024e-16
1.94668e-11
-8.69686e-10
2.69099e-16
2.16648e-11
-9.58119e-10
2.95901e-16
2.39843e-11
-1.05273e-09
3.04994e-16
2.64132e-11
-1.15364e-09
3.17746e-16
2.8935e-11
-1.26088e-09
3.29951e-16
3.15286e-11
-1.37447e-09
3.46865e-16
3.41679e-11
-1.49433e-09
3.66366e-16
3.68212e-11
-1.62035e-09
3.78433e-16
3.94513e-11
-1.7522e-09
3.86382e-16
4.20159e-11
-1.88955e-09
4.05719e-16
4.4466e-11
-2.03184e-09
4.51826e-16
4.67472e-11
-2.17788e-09
4.65858e-16
4.87997e-11
-2.32797e-09
4.50018e-16
5.05603e-11
-2.47953e-09
4.38219e-16
5.19618e-11
-2.63252e-09
4.32536e-16
5.29352e-11
-2.78419e-09
4.25265e-16
5.34115e-11
-2.93244e-09
3.99278e-16
5.33225e-11
-3.07686e-09
3.44611e-16
5.26068e-11
-3.21205e-09
2.84118e-16
5.12097e-11
-3.33681e-09
2.91921e-16
4.90888e-11
-3.44633e-09
2.55638e-16
4.62193e-11
-3.53677e-09
2.20511e-16
4.2598e-11
-3.60391e-09
1.95502e-16
3.82563e-11
-3.63956e-09
1.83811e-16
3.32657e-11
-3.63584e-09
1.80787e-16
2.77503e-11
-3.58041e-09
1.96755e-16
2.1897e-11
-3.45414e-09
2.12134e-16
1.59624e-11
-3.23046e-09
2.41656e-16
1.02777e-11
-2.87466e-09
2.6036e-16
5.27548e-12
-2.34318e-09
2.92602e-16
1.5599e-12
-1.58987e-09
3.24392e-16
-5.6591e-10
3.59654e-16
3.95772e-16
-2.21509e-13
2.3797e-18
3.73496e-15
-1.63104e-12
4.9183e-18
1.37118e-14
-4.34181e-12
3.09882e-17
3.37025e-14
-8.29942e-12
2.56251e-17
6.71014e-14
-1.35185e-11
-9.16987e-17
1.20301e-13
-2.00484e-11
1.69292e-17
1.95752e-13
-2.79632e-11
8.55481e-17
3.16282e-13
-3.73589e-11
2.13356e-15
4.41052e-13
-4.83362e-11
-1.46709e-15
6.10695e-13
-6.10281e-11
-6.21515e-16
8.30627e-13
-7.55565e-11
-2.2892e-16
1.10106e-12
-9.20706e-11
-1.89225e-16
1.42856e-12
-1.10743e-10
-2.96234e-16
1.82258e-12
-1.31723e-10
-3.86418e-17
2.28651e-12
-1.55215e-10
-2.31283e-16
2.83104e-12
-1.81393e-10
6.18518e-18
3.46138e-12
-2.10471e-10
-8.02122e-17
4.18664e-12
-2.42666e-10
5.31935e-17
5.01288e-12
-2.78208e-10
-7.41551e-17
5.94858e-12
-3.17322e-10
-6.09742e-17
7.00134e-12
-3.60253e-10
-6.49126e-17
8.17849e-12
-4.07282e-10
-1.00174e-17
9.48622e-12
-4.58606e-10
-3.88518e-18
1.09306e-11
-5.14546e-10
5.6136e-17
1.25161e-11
-5.75311e-10
8.34959e-17
1.42463e-11
-6.41189e-10
1.46178e-16
1.61224e-11
-7.12431e-10
1.75052e-16
1.81441e-11
-7.89198e-10
2.30417e-16
2.03085e-11
-8.71848e-10
2.59041e-16
2.26093e-11
-9.60417e-10
2.95699e-16
2.5037e-11
-1.05516e-09
3.07663e-16
2.75785e-11
-1.15618e-09
3.26408e-16
3.02162e-11
-1.26351e-09
3.41143e-16
3.29277e-11
-1.37717e-09
3.60633e-16
3.56851e-11
-1.49708e-09
3.81455e-16
3.8455e-11
-1.62311e-09
3.9357e-16
4.11979e-11
-1.75494e-09
4.02662e-16
4.38691e-11
-1.89222e-09
4.2008e-16
4.64171e-11
-2.03439e-09
4.66089e-16
4.87846e-11
-2.18024e-09
4.76559e-16
5.09086e-11
-2.33009e-09
4.63136e-16
5.27231e-11
-2.48134e-09
4.49676e-16
5.41577e-11
-2.63395e-09
4.4825e-16
5.51405e-11
-2.78517e-09
4.39875e-16
5.55999e-11
-2.93289e-09
4.21763e-16
5.54652e-11
-3.07672e-09
3.68923e-16
5.46737e-11
-3.21125e-09
3.25544e-16
5.31695e-11
-3.3353e-09
3.21095e-16
5.09106e-11
-3.44407e-09
2.88775e-16
4.78734e-11
-3.53373e-09
2.44034e-16
4.40573e-11
-3.60009e-09
2.17581e-16
3.94979e-11
-3.635e-09
1.97525e-16
3.42725e-11
-3.63061e-09
1.94912e-16
2.85127e-11
-3.57465e-09
2.05669e-16
2.24165e-11
-3.44804e-09
2.23555e-16
1.62561e-11
-3.2243e-09
2.50048e-16
1.03857e-11
-2.86879e-09
2.71515e-16
5.26646e-12
-2.33806e-09
3.01484e-16
1.52268e-12
-1.58612e-09
3.36099e-16
-5.6438e-10
3.66819e-16
4.27683e-16
-2.21915e-13
2.90975e-18
3.86808e-15
-1.63449e-12
2.22242e-19
1.42373e-14
-4.35184e-12
4.31432e-17
3.43581e-14
-8.32e-12
-5.90348e-17
6.92622e-14
-1.35535e-11
-1.39893e-17
1.24651e-13
-2.01022e-11
1.97164e-16
2.0189e-13
-2.80412e-11
-2.27524e-17
3.27969e-13
-3.74652e-11
2.3885e-15
4.55336e-13
-4.84772e-11
-1.69492e-15
6.29778e-13
-6.12094e-11
-8.28075e-16
8.57541e-13
-7.5784e-11
-3.48738e-17
1.13661e-12
-9.2352e-11