/*--------------------------------*- C++ -*----------------------------------*\
| =========                 |                                                 |
| \\      /  F ield         | OpenFOAM: The Open Source CFD Toolbox           |
|  \\    /   O peration     | Version:  v2012                                 |
|   \\  /    A nd           | Website:  www.openfoam.com                      |
|    \\/     M anipulation  |                                                 |
\*---------------------------------------------------------------------------*/
FoamFile
{
    version     2.0;
    format      ascii;
    class       volVectorField;
    location    "0.7";
    object      U;
}
// * * * * * * * * * * * * * * * * * * * * * * * * * * * * * * * * * * * * * //

dimensions      [0 1 -1 0 0 0 0];


internalField   nonuniform List<vector> 
20000
(
(1.15495e-06 -0.00134813 -1.00744e-08)
(5.23519e-06 -0.00317458 -4.56873e-08)
(1.13277e-05 -0.00483383 -9.88585e-08)
(1.84102e-05 -0.00628576 -1.60668e-07)
(2.66009e-05 -0.00758058 -2.32159e-07)
(3.54856e-05 -0.00875448 -3.09696e-07)
(4.51828e-05 -0.00983223 -3.94331e-07)
(5.61179e-05 -0.0108314 -4.89762e-07)
(6.7769e-05 -0.0117645 -5.91452e-07)
(8.07178e-05 -0.0126414 -7.04465e-07)
(9.47265e-05 -0.013469 -8.26709e-07)
(0.000109794 -0.0142532 -9.58201e-07)
(0.000126141 -0.0149984 -1.10088e-06)
(0.000143592 -0.0157082 -1.25318e-06)
(0.000162271 -0.0163852 -1.4162e-06)
(0.000182036 -0.0170317 -1.58869e-06)
(0.000202906 -0.0176493 -1.77084e-06)
(0.000224812 -0.0182393 -1.96203e-06)
(0.00024771 -0.0188027 -2.16187e-06)
(0.000271533 -0.0193399 -2.36979e-06)
(0.00029623 -0.0198514 -2.58534e-06)
(0.000321739 -0.0203372 -2.80796e-06)
(0.000347979 -0.0207971 -3.03698e-06)
(0.000374845 -0.0212308 -3.27146e-06)
(0.000402234 -0.0216377 -3.51051e-06)
(0.000430013 -0.0220171 -3.75297e-06)
(0.000458039 -0.022368 -3.99758e-06)
(0.000486141 -0.0226893 -4.24287e-06)
(0.000514132 -0.0229797 -4.48718e-06)
(0.000541797 -0.0232377 -4.72867e-06)
(0.000568896 -0.0234618 -4.96521e-06)
(0.000595163 -0.0236502 -5.19449e-06)
(0.000620306 -0.0238009 -5.41397e-06)
(0.000644007 -0.0239119 -5.62088e-06)
(0.000665924 -0.023981 -5.81222e-06)
(0.000685694 -0.024006 -5.98483e-06)
(0.000702932 -0.0239844 -6.13535e-06)
(0.000717243 -0.0239138 -6.26033e-06)
(0.000728221 -0.0237914 -6.35625e-06)
(0.000735459 -0.0236148 -6.42038e-06)
(0.000738557 -0.0233811 -6.44756e-06)
(0.000737139 -0.0230876 -6.43528e-06)
(0.00073085 -0.0227316 -6.38049e-06)
(0.00071938 -0.0223103 -6.28047e-06)
(0.000702471 -0.021821 -6.13297e-06)
(0.000679931 -0.0212613 -5.93632e-06)
(0.000651643 -0.0206287 -5.68949e-06)
(0.000617596 -0.0199211 -5.39238e-06)
(0.000577889 -0.0191365 -5.04584e-06)
(0.000532776 -0.0182724 -4.6521e-06)
(0.000482686 -0.0173253 -4.2149e-06)
(0.000428305 -0.0162889 -3.7402e-06)
(0.000370632 -0.0151521 -3.23674e-06)
(0.000311029 -0.0138947 -2.71638e-06)
(0.0002512 -0.0124851 -2.19401e-06)
(0.000193048 -0.0108788 -1.68625e-06)
(0.00013836 -0.00902218 -1.2087e-06)
(8.83904e-05 -0.00686184 -7.72336e-07)
(4.49278e-05 -0.00435299 -3.92877e-07)
(9.1875e-06 -0.00146278 -7.5796e-08)
(8.03975e-07 -0.00136791 -7.01503e-09)
(4.62418e-06 -0.00320659 -4.03428e-08)
(1.10029e-05 -0.00487298 -9.60129e-08)
(1.89675e-05 -0.00632938 -1.6552e-07)
(2.8016e-05 -0.00762734 -2.44488e-07)
(3.82147e-05 -0.00880401 -3.33507e-07)
(4.92399e-05 -0.00988387 -4.29735e-07)
(6.12607e-05 -0.0108851 -5.34661e-07)
(7.42814e-05 -0.0118202 -6.48291e-07)
(8.80329e-05 -0.0126987 -7.68316e-07)
(0.000102742 -0.0135281 -8.96686e-07)
(0.000118251 -0.0143138 -1.03203e-06)
(0.000134731 -0.0150604 -1.17586e-06)
(0.000152174 -0.0157713 -1.3281e-06)
(0.000170645 -0.0164493 -1.48931e-06)
(0.00019012 -0.0170965 -1.65928e-06)
(0.000210631 -0.0177147 -1.83829e-06)
(0.000232159 -0.018305 -2.02617e-06)
(0.00025464 -0.0188685 -2.22239e-06)
(0.000278141 -0.0194056 -2.42751e-06)
(0.000302564 -0.0199168 -2.64065e-06)
(0.000327806 -0.0204021 -2.86094e-06)
(0.000353798 -0.0208613 -3.0878e-06)
(0.000380443 -0.0212942 -3.32035e-06)
(0.00040764 -0.0217001 -3.55772e-06)
(0.000435262 -0.0220783 -3.79879e-06)
(0.000463157 -0.0224278 -4.04226e-06)
(0.000491157 -0.0227475 -4.28664e-06)
(0.000519064 -0.0230362 -4.53021e-06)
(0.000546662 -0.0232923 -4.7711e-06)
(0.000573703 -0.0235142 -5.00712e-06)
(0.000599918 -0.0237003 -5.23593e-06)
(0.000625012 -0.0238486 -5.45496e-06)
(0.000648662 -0.0239569 -5.6614e-06)
(0.000670523 -0.0240233 -5.85223e-06)
(0.000690227 -0.0240453 -6.02423e-06)
(0.000707389 -0.0240207 -6.17406e-06)
(0.000721609 -0.0239468 -6.29821e-06)
(0.00073248 -0.0238212 -6.39318e-06)
(0.000739591 -0.0236411 -6.45618e-06)
(0.000742543 -0.023404 -6.48205e-06)
(0.000740953 -0.023107 -6.46825e-06)
(0.000734471 -0.0227475 -6.41175e-06)
(0.000722783 -0.0223227 -6.30981e-06)
(0.000705634 -0.0218301 -6.16021e-06)
(0.000682829 -0.021267 -5.96124e-06)
(0.000654257 -0.0206313 -5.71193e-06)
(0.000619906 -0.0199208 -5.41217e-06)
(0.000579879 -0.0191334 -5.06287e-06)
(0.000534431 -0.0182668 -4.66622e-06)
(0.000483996 -0.0173177 -4.22604e-06)
(0.000429256 -0.0162798 -3.74827e-06)
(0.00037122 -0.0151419 -3.2417e-06)
(0.000311253 -0.0138841 -2.71824e-06)
(0.000251077 -0.0124749 -2.19292e-06)
(0.000192613 -0.0108695 -1.6825e-06)
(0.000137672 -0.00901438 -1.2028e-06)
(8.75074e-05 -0.00685579 -7.64814e-07)
(4.39246e-05 -0.00434914 -3.84206e-07)
(7.43867e-06 -0.00146029 -6.86698e-08)
(3.88243e-07 -0.00136463 -3.38586e-09)
(3.04803e-06 -0.00320555 -2.65837e-08)
(8.15774e-06 -0.00487529 -7.11805e-08)
(1.49903e-05 -0.00633476 -1.30804e-07)
(2.32168e-05 -0.00763538 -2.02599e-07)
(3.27483e-05 -0.00881405 -2.8578e-07)
(4.33561e-05 -0.00989596 -3.78366e-07)
(5.50725e-05 -0.0108987 -4.80623e-07)
(6.78669e-05 -0.0118354 -5.92288e-07)
(8.17904e-05 -0.0127155 -7.13812e-07)
(9.68328e-05 -0.0135464 -8.45108e-07)
(0.00011289 -0.0143338 -9.8523e-07)
(0.000130062 -0.015082 -1.1351e-06)
(0.00014824 -0.0157946 -1.29375e-06)
(0.000167525 -0.0164742 -1.46206e-06)
(0.000187782 -0.0171231 -1.63886e-06)
(0.000209101 -0.0177429 -1.82492e-06)
(0.000231378 -0.0183347 -2.01935e-06)
(0.000254615 -0.0188997 -2.22217e-06)
(0.000278788 -0.0194382 -2.43313e-06)
(0.000303816 -0.0199506 -2.65156e-06)
(0.000329643 -0.0204371 -2.87698e-06)
(0.000356206 -0.0208973 -3.10881e-06)
(0.000383401 -0.021331 -3.34617e-06)
(0.000411132 -0.0217376 -3.5882e-06)
(0.000439265 -0.0221162 -3.83374e-06)
(0.000467652 -0.022466 -4.08151e-06)
(0.000496122 -0.0227858 -4.32999e-06)
(0.000524476 -0.0230742 -4.57747e-06)
(0.000552496 -0.0233299 -4.82204e-06)
(0.000579931 -0.0235511 -5.06151e-06)
(0.000606511 -0.0237362 -5.29349e-06)
(0.000631933 -0.0238832 -5.51539e-06)
(0.000655873 -0.0239901 -5.72436e-06)
(0.000677979 -0.0240547 -5.91733e-06)
(0.000697882 -0.0240748 -6.09106e-06)
(0.000715188 -0.0240478 -6.24215e-06)
(0.000729495 -0.0239715 -6.36706e-06)
(0.000740393 -0.0238431 -6.46225e-06)
(0.000747466 -0.0236602 -6.52492e-06)
(0.00075031 -0.02342 -6.54984e-06)
(0.000748543 -0.0231198 -6.53448e-06)
(0.00074181 -0.022757 -6.47578e-06)
(0.000729801 -0.0223289 -6.37102e-06)
(0.000712259 -0.0218329 -6.21798e-06)
(0.000688995 -0.0212666 -6.01499e-06)
(0.0006599 -0.0206276 -5.7611e-06)
(0.000624971 -0.0199139 -5.4563e-06)
(0.00058432 -0.0191236 -5.10152e-06)
(0.000538209 -0.0182544 -4.69909e-06)
(0.000487081 -0.0173029 -4.25285e-06)
(0.000431631 -0.016263 -3.76887e-06)
(0.000372873 -0.0151238 -3.256e-06)
(0.000312186 -0.0138652 -2.72625e-06)
(0.000251302 -0.0124559 -2.19477e-06)
(0.00019217 -0.0108511 -1.67854e-06)
(0.000136638 -0.00899712 -1.19371e-06)
(8.60191e-05 -0.00684013 -7.51733e-07)
(4.20869e-05 -0.00433567 -3.68502e-07)
(5.46188e-06 -0.00145188 -5.81712e-08)
(4.74705e-07 -0.00137805 -4.13975e-09)
(3.41141e-06 -0.00322883 -2.97604e-08)
(8.73749e-06 -0.00490528 -7.62353e-08)
(1.58145e-05 -0.00636942 -1.38001e-07)
(2.45064e-05 -0.00767353 -2.13847e-07)
(3.45095e-05 -0.00885495 -3.01153e-07)
(4.56884e-05 -0.00993897 -3.98716e-07)
(5.80507e-05 -0.0109435 -5.06614e-07)
(7.13148e-05 -0.0118815 -6.22372e-07)
(8.56919e-05 -0.0127626 -7.47866e-07)
(0.000100998 -0.0135943 -8.81458e-07)
(0.000117252 -0.0143822 -1.02331e-06)
(0.00013452 -0.0151308 -1.17402e-06)
(0.000152732 -0.0158437 -1.33296e-06)
(0.000171981 -0.0165235 -1.50096e-06)
(0.000192231 -0.0171725 -1.6777e-06)
(0.000213528 -0.0177922 -1.86356e-06)
(0.000235834 -0.0183841 -2.05824e-06)
(0.00025913 -0.0189488 -2.26156e-06)
(0.00028344 -0.0194871 -2.47372e-06)
(0.000308663 -0.0199992 -2.69386e-06)
(0.000334743 -0.0204853 -2.92148e-06)
(0.000361608 -0.0209451 -3.15595e-06)
(0.000389153 -0.0213782 -3.39635e-06)
(0.000417271 -0.0217841 -3.64176e-06)
(0.000445829 -0.022162 -3.89102e-06)
(0.000474668 -0.0225109 -4.14272e-06)
(0.000503611 -0.0228296 -4.39533e-06)
(0.000532449 -0.0231169 -4.64704e-06)
(0.000560956 -0.0233713 -4.89586e-06)
(0.000588871 -0.0235912 -5.13952e-06)
(0.000615914 -0.0237747 -5.37555e-06)
(0.000641774 -0.02392 -5.60128e-06)
(0.000666117 -0.024025 -5.81376e-06)
(0.000688582 -0.0240875 -6.00987e-06)
(0.000708788 -0.0241053 -6.18627e-06)
(0.000726335 -0.024076 -6.33946e-06)
(0.000740809 -0.023997 -6.46583e-06)
(0.000751793 -0.0238659 -6.56178e-06)
(0.000758863 -0.0236801 -6.62446e-06)
(0.000761608 -0.0234369 -6.64852e-06)
(0.000759638 -0.0231336 -6.63139e-06)
(0.000752598 -0.0227676 -6.57002e-06)
(0.000740172 -0.0223362 -6.46163e-06)
(0.000722109 -0.021837 -6.30404e-06)
(0.000698218 -0.0212674 -6.09558e-06)
(0.000668398 -0.0206253 -5.83537e-06)
(0.000632656 -0.0199087 -5.52346e-06)
(0.000591117 -0.0191155 -5.16093e-06)
(0.000544055 -0.0182437 -4.75019e-06)
(0.000491932 -0.01729 -4.29526e-06)
(0.000435456 -0.0162482 -3.80233e-06)
(0.000375661 -0.0151076 -3.28039e-06)
(0.000313936 -0.0138483 -2.74158e-06)
(0.000252034 -0.0124388 -2.2012e-06)
(0.000191931 -0.0108346 -1.67648e-06)
(0.000135532 -0.0089816 -1.18407e-06)
(8.4287e-05 -0.00682609 -7.36631e-07)
(4.00367e-05 -0.00432365 -3.50691e-07)
(4.93867e-06 -0.0014446 -5.12182e-08)
(2.19907e-07 -0.00137597 -1.91797e-09)
(2.28447e-06 -0.00322959 -1.99651e-08)
(6.52485e-06 -0.00490998 -5.69112e-08)
(1.25298e-05 -0.00637819 -1.09334e-07)
(2.02691e-05 -0.00768585 -1.76878e-07)
(2.94936e-05 -0.00887057 -2.5737e-07)
(4.0192e-05 -0.00995739 -3.50752e-07)
(5.21333e-05 -0.0109645 -4.54954e-07)
(6.53369e-05 -0.0119049 -5.70192e-07)
(7.98009e-05 -0.0127883 -6.9643e-07)
(9.54813e-05 -0.0136222 -8.33291e-07)
(0.000112302 -0.0144121 -9.80094e-07)
(0.000130312 -0.0151627 -1.13728e-06)
(0.000149373 -0.0158774 -1.30363e-06)
(0.00016956 -0.0165589 -1.47983e-06)
(0.000190784 -0.0172095 -1.66506e-06)
(0.000213085 -0.0178308 -1.85969e-06)
(0.000236369 -0.0184239 -2.06291e-06)
(0.000260646 -0.0189899 -2.27479e-06)
(0.000285862 -0.0195292 -2.49487e-06)
(0.000311977 -0.0200422 -2.72279e-06)
(0.000338917 -0.0205289 -2.95791e-06)
(0.000366636 -0.0209892 -3.19984e-06)
(0.000395017 -0.0214226 -3.44754e-06)
(0.000423965 -0.0218286 -3.7002e-06)
(0.000453339 -0.0222063 -3.95656e-06)
(0.000482982 -0.0225549 -4.21528e-06)
(0.000512712 -0.0228731 -4.47477e-06)
(0.00054232 -0.0231597 -4.73319e-06)
(0.00057157 -0.0234131 -4.9885e-06)
(0.000600199 -0.0236317 -5.23838e-06)
(0.000627916 -0.0238138 -5.4803e-06)
(0.000654403 -0.0239575 -5.7115e-06)
(0.000679317 -0.0240606 -5.92897e-06)
(0.000702286 -0.024121 -6.12947e-06)
(0.000722919 -0.0241366 -6.3096e-06)
(0.000740805 -0.0241047 -6.46574e-06)
(0.000755521 -0.0240231 -6.59423e-06)
(0.000766638 -0.0238892 -6.69135e-06)
(0.000773726 -0.0237004 -6.75419e-06)
(0.000776361 -0.0234542 -6.77729e-06)
(0.000774148 -0.0231477 -6.75805e-06)
(0.000766727 -0.0227785 -6.69335e-06)
(0.000753781 -0.0223439 -6.58043e-06)
(0.000735057 -0.0218414 -6.41707e-06)
(0.000710369 -0.0212687 -6.20166e-06)
(0.000679621 -0.0206235 -5.93336e-06)
(0.000642837 -0.019904 -5.61235e-06)
(0.000600153 -0.019108 -5.23984e-06)
(0.000551868 -0.0182338 -4.81842e-06)
(0.000498459 -0.0172778 -4.35227e-06)
(0.000440663 -0.0162343 -3.84781e-06)
(0.000379532 -0.0150924 -3.31422e-06)
(0.000316479 -0.0138324 -2.76382e-06)
(0.000253277 -0.0124228 -2.21209e-06)
(0.000191944 -0.0108192 -1.67663e-06)
(0.000134459 -0.00896736 -1.17474e-06)
(8.24655e-05 -0.00681344 -7.20743e-07)
(3.79845e-05 -0.00431325 -3.32582e-07)
(4.53584e-06 -0.00143864 -4.74016e-08)
(3.25914e-07 -0.0013851 -2.84525e-09)
(2.68405e-06 -0.00324637 -2.3425e-08)
(7.36804e-06 -0.00493251 -6.43523e-08)
(1.33053e-05 -0.00640519 -1.16087e-07)
(2.13221e-05 -0.0077164 -1.86063e-07)
(3.07829e-05 -0.00890409 -2.6863e-07)
(4.1721e-05 -0.00999336 -3.64087e-07)
(5.37882e-05 -0.0110026 -4.69407e-07)
(6.71629e-05 -0.0119447 -5.86131e-07)
(8.17727e-05 -0.0128294 -7.13643e-07)
(9.7536e-05 -0.0136644 -8.5121e-07)
(0.000114478 -0.0144553 -9.99086e-07)
(0.000132528 -0.0152066 -1.15661e-06)
(0.000151746 -0.0159219 -1.32434e-06)
(0.000172061 -0.016604 -1.50163e-06)
(0.000193552 -0.0172551 -1.68921e-06)
(0.000216142 -0.0178767 -1.88636e-06)
(0.000239847 -0.0184702 -2.09326e-06)
(0.000264609 -0.0190364 -2.30936e-06)
(0.000290404 -0.019576 -2.53449e-06)
(0.000317166 -0.0200891 -2.76807e-06)
(0.000344836 -0.0205759 -3.00956e-06)
(0.000373336 -0.0210361 -3.2583e-06)
(0.000402554 -0.0214694 -3.51331e-06)
(0.00043237 -0.0218751 -3.77354e-06)
(0.000462644 -0.0222525 -4.03776e-06)
(0.000493201 -0.0226005 -4.30447e-06)
(0.000523855 -0.0229179 -4.57201e-06)
(0.00055438 -0.0232036 -4.83844e-06)
(0.000584533 -0.0234559 -5.10163e-06)
(0.000614036 -0.0236732 -5.35915e-06)
(0.000642588 -0.0238538 -5.60835e-06)
(0.000669856 -0.0239958 -5.84637e-06)
(0.000695485 -0.024097 -6.07008e-06)
(0.00071909 -0.0241553 -6.27614e-06)
(0.000740266 -0.0241684 -6.46099e-06)
(0.000758587 -0.0241341 -6.62095e-06)
(0.000773617 -0.0240497 -6.75218e-06)
(0.000784917 -0.0239129 -6.85089e-06)
(0.000792042 -0.0237211 -6.91407e-06)
(0.000794558 -0.0234716 -6.93614e-06)
(0.000792062 -0.023162 -6.91444e-06)
(0.000784188 -0.0227894 -6.84579e-06)
(0.000770616 -0.0223515 -6.7274e-06)
(0.000751093 -0.0218457 -6.55708e-06)
(0.000725438 -0.0212697 -6.33322e-06)
(0.000693565 -0.0206214 -6.05509e-06)
(0.000655508 -0.0198988 -5.72299e-06)
(0.00061143 -0.0191001 -5.3383e-06)
(0.000561648 -0.0182233 -4.90382e-06)
(0.000506671 -0.0172651 -4.42398e-06)
(0.000447262 -0.0162198 -3.90545e-06)
(0.000384506 -0.0150766 -3.35767e-06)
(0.000319842 -0.013816 -2.7932e-06)
(0.000255074 -0.0124065 -2.2278e-06)
(0.000192274 -0.0108035 -1.67953e-06)
(0.000133514 -0.00895295 -1.16651e-06)
(8.06653e-05 -0.00680085 -7.05036e-07)
(3.59782e-05 -0.00430331 -3.15074e-07)
(3.88444e-06 -0.00143346 -4.04858e-08)
(1.39753e-07 -0.00138464 -1.21834e-09)
(1.96436e-06 -0.00324897 -1.71339e-08)
(5.90669e-06 -0.00493959 -5.16167e-08)
(1.10868e-05 -0.00641658 -9.67564e-08)
(1.83906e-05 -0.0077311 -1.60438e-07)
(2.71847e-05 -0.00892262 -2.37257e-07)
(3.77809e-05 -0.010015 -3.29697e-07)
(4.95284e-05 -0.0110274 -4.32232e-07)
(6.30335e-05 -0.0119722 -5.50096e-07)
(7.77053e-05 -0.0128596 -6.7813e-07)
(9.38979e-05 -0.0136969 -8.19454e-07)
(0.000111293 -0.01449 -9.71266e-07)
(0.000130058 -0.0152433 -1.13505e-06)
(0.000150038 -0.0159605 -1.30941e-06)
(0.000171268 -0.0166443 -1.49471e-06)
(0.000193694 -0.0172968 -1.69044e-06)
(0.000217302 -0.0179198 -1.89648e-06)
(0.000242026 -0.0185145 -2.11226e-06)
(0.00026785 -0.0190817 -2.33765e-06)
(0.000294684 -0.0196221 -2.57185e-06)
(0.000322525 -0.0201358 -2.81483e-06)
(0.000351264 -0.0206231 -3.06566e-06)
(0.000380863 -0.0210836 -3.32399e-06)
(0.000411184 -0.021517 -3.58862e-06)
(0.000442123 -0.0219226 -3.85865e-06)
(0.000473521 -0.0222997 -4.13269e-06)
(0.000505209 -0.0226472 -4.40926e-06)
(0.000536984 -0.022964 -4.68659e-06)
(0.000568618 -0.0232487 -4.9627e-06)
(0.000599855 -0.0234999 -5.23536e-06)
(0.000630405 -0.0237159 -5.50201e-06)
(0.000659954 -0.023895 -5.75991e-06)
(0.000688156 -0.0240351 -6.00608e-06)
(0.000714639 -0.0241343 -6.23725e-06)
(0.000739004 -0.0241904 -6.44994e-06)
(0.000760831 -0.0242011 -6.64048e-06)
(0.000779676 -0.0241641 -6.805e-06)
(0.000795088 -0.024077 -6.93958e-06)
(0.000806613 -0.0239372 -7.04026e-06)
(0.000813793 -0.0237422 -7.10396e-06)
(0.000816181 -0.0234895 -7.1249e-06)
(0.000813363 -0.0231764 -7.10039e-06)
(0.000804965 -0.0228004 -7.02717e-06)
(0.000790666 -0.022359 -6.90244e-06)
(0.000770211 -0.0218498 -6.72398e-06)
(0.000743425 -0.0212705 -6.49025e-06)
(0.000710231 -0.0206189 -6.2006e-06)
(0.000670684 -0.0198932 -5.85549e-06)
(0.000624965 -0.0190916 -5.45648e-06)
(0.000573424 -0.0182122 -5.00665e-06)
(0.000516601 -0.0172518 -4.51069e-06)
(0.000455298 -0.0162047 -3.97563e-06)
(0.000390633 -0.0150602 -3.41119e-06)
(0.000324086 -0.0137989 -2.83028e-06)
(0.000257498 -0.0123894 -2.24899e-06)
(0.00019301 -0.0107872 -1.68599e-06)
(0.000132804 -0.00893793 -1.16034e-06)
(7.90084e-05 -0.0067878 -6.90589e-07)
(3.41206e-05 -0.00429317 -2.98803e-07)
(3.22269e-06 -0.00142836 -3.43618e-08)
(2.97337e-07 -0.00139095 -2.5884e-09)
(2.11053e-06 -0.00326141 -1.84338e-08)
(6.08316e-06 -0.00495715 -5.29843e-08)
(1.25266e-05 -0.00643842 -1.09271e-07)
(2.03284e-05 -0.00775655 -1.77502e-07)
(2.79e-05 -0.00895121 -2.43449e-07)
(3.89528e-05 -0.0100463 -3.39954e-07)
(5.04337e-05 -0.0110612 -4.40137e-07)
(6.42063e-05 -0.0120081 -5.60328e-07)
(7.89628e-05 -0.0128975 -6.89116e-07)
(9.52252e-05 -0.0137365 -8.31037e-07)
(0.000112803 -0.0145311 -9.84456e-07)
(0.00013173 -0.0152858 -1.14962e-06)
(0.000152024 -0.0160041 -1.32675e-06)
(0.000173586 -0.016689 -1.51493e-06)
(0.000196517 -0.0173425 -1.71507e-06)
(0.000220677 -0.0179663 -1.92593e-06)
(0.000246132 -0.0185617 -2.14809e-06)
(0.000272746 -0.0191296 -2.38037e-06)
(0.000300499 -0.0196705 -2.62258e-06)
(0.000329324 -0.0201847 -2.87416e-06)
(0.000359144 -0.0206722 -3.13442e-06)
(0.000389874 -0.0211329 -3.40263e-06)
(0.000421389 -0.0215663 -3.67768e-06)
(0.000453555 -0.0219718 -3.95842e-06)
(0.000486214 -0.0223485 -4.24347e-06)
(0.000519175 -0.0226955 -4.53114e-06)
(0.000552229 -0.0230115 -4.81964e-06)
(0.00058513 -0.0232953 -5.1068e-06)
(0.00061761 -0.0235454 -5.39031e-06)
(0.000649363 -0.02376 -5.66746e-06)
(0.00068006 -0.0239374 -5.93538e-06)
(0.000709337 -0.0240757 -6.19093e-06)
(0.000736805 -0.0241729 -6.4307e-06)
(0.000762048 -0.0242266 -6.65106e-06)
(0.000784626 -0.0242348 -6.84816e-06)
(0.000804078 -0.0241951 -7.01799e-06)
(0.000819935 -0.024105 -7.15643e-06)
(0.000831725 -0.0239621 -7.25943e-06)
(0.000838973 -0.0237638 -7.32376e-06)
(0.000841219 -0.0235077 -7.34348e-06)
(0.000838037 -0.0231911 -7.31579e-06)
(0.000829046 -0.0228116 -7.23739e-06)
(0.000813918 -0.0223666 -7.10543e-06)
(0.0007924 -0.0218538 -6.9177e-06)
(0.000764322 -0.021271 -6.67269e-06)
(0.00072962 -0.020616 -6.36988e-06)
(0.000688366 -0.0198872 -6.00987e-06)
(0.00064077 -0.0190826 -5.59448e-06)
(0.000587213 -0.0182006 -5.12705e-06)
(0.000528275 -0.0172379 -4.61264e-06)
(0.000464801 -0.016189 -4.05862e-06)
(0.000397955 -0.0150432 -3.47514e-06)
(0.00032926 -0.0137812 -2.87548e-06)
(0.000260611 -0.0123718 -2.2762e-06)
(0.000194226 -0.0107703 -1.69663e-06)
(0.000132417 -0.00892253 -1.15698e-06)
(7.75815e-05 -0.00677456 -6.78137e-07)
(3.24686e-05 -0.00428311 -2.84389e-07)
(2.68082e-06 -0.00142358 -2.91668e-08)
(1.81551e-07 -0.00139159 -1.57906e-09)
(1.61947e-06 -0.00326556 -1.4127e-08)
(5.21484e-06 -0.00496529 -4.54349e-08)
(1.11369e-05 -0.00645016 -9.71524e-08)
(1.84798e-05 -0.00777366 -1.61383e-07)
(2.56939e-05 -0.00897213 -2.24211e-07)
(3.64985e-05 -0.0100702 -3.18512e-07)
(4.77121e-05 -0.0110884 -4.16403e-07)
(6.16835e-05 -0.012038 -5.38314e-07)
(7.65584e-05 -0.0129302 -6.68143e-07)
(9.3471e-05 -0.0137717 -8.15732e-07)
(0.000111489 -0.0145686 -9.72974e-07)
(0.000131175 -0.0153254 -1.14478e-06)
(0.000152184 -0.0160457 -1.32813e-06)
(0.000174674 -0.0167324 -1.52442e-06)
(0.00019852 -0.0173874 -1.73254e-06)
(0.000223745 -0.0180127 -1.95269e-06)
(0.000250264 -0.0186093 -2.18415e-06)
(0.000278043 -0.0191782 -2.42659e-06)
(0.000306972 -0.0197199 -2.67907e-06)
(0.000337053 -0.0202348 -2.94161e-06)
(0.000368152 -0.0207228 -3.21303e-06)
(0.000400222 -0.0211838 -3.49293e-06)
(0.000433102 -0.0216172 -3.7799e-06)
(0.000466675 -0.0220226 -4.07292e-06)
(0.000500757 -0.022399 -4.37038e-06)
(0.000535158 -0.0227455 -4.67063e-06)
(0.000569651 -0.0230608 -4.97168e-06)
(0.000603979 -0.0233436 -5.2713e-06)
(0.000637858 -0.0235925 -5.56702e-06)
(0.000670965 -0.0238057 -5.85599e-06)
(0.000702953 -0.0239814 -6.13519e-06)
(0.000733441 -0.0241178 -6.4013e-06)
(0.000762019 -0.0242127 -6.65077e-06)
(0.000788251 -0.0242641 -6.87975e-06)
(0.000811676 -0.0242697 -7.08425e-06)
(0.000831812 -0.0242271 -7.26004e-06)
(0.00084817 -0.0241339 -7.40287e-06)
(0.000860259 -0.0239877 -7.50848e-06)
(0.000867586 -0.023786 -7.57354e-06)
(0.000869674 -0.0235264 -7.59188e-06)
(0.000866085 -0.0232061 -7.56064e-06)
(0.000856428 -0.0228229 -7.47643e-06)
(0.00084037 -0.0223742 -7.33635e-06)
(0.000817659 -0.0218578 -7.13821e-06)
(0.00078813 -0.0212713 -6.88055e-06)
(0.000751732 -0.0206129 -6.56294e-06)
(0.000708562 -0.0198807 -6.1862e-06)
(0.000658855 -0.0190732 -5.75238e-06)
(0.000603031 -0.0181884 -5.26517e-06)
(0.000541715 -0.0172234 -4.73e-06)
(0.000475801 -0.0161726 -4.15468e-06)
(0.000406505 -0.0150255 -3.54982e-06)
(0.000335407 -0.0137629 -2.92918e-06)
(0.000264461 -0.0123535 -2.30984e-06)
(0.000195981 -0.0107529 -1.71199e-06)
(0.000132416 -0.00890672 -1.157e-06)
(7.64436e-05 -0.00676112 -6.68223e-07)
(3.10496e-05 -0.00427313 -2.71961e-07)
(2.23259e-06 -0.00141906 -2.49476e-08)
(2.20674e-07 -0.00139619 -1.92011e-09)
(1.72627e-06 -0.00327534 -1.50629e-08)
(5.54671e-06 -0.00497984 -4.8389e-08)
(1.10769e-05 -0.00646893 -9.66814e-08)
(1.81389e-05 -0.00779614 -1.58172e-07)
(2.76421e-05 -0.00899796 -2.41237e-07)
(3.88787e-05 -0.0100992 -3.39353e-07)
(4.93015e-05 -0.0111203 -4.30264e-07)
(6.35442e-05 -0.0120725 -5.54558e-07)
(7.79324e-05 -0.0129671 -6.80143e-07)
(9.51607e-05 -0.0138107 -8.3047e-07)
(0.000113404 -0.0146096 -9.89688e-07)
(0.000133314 -0.0153683 -1.16344e-06)
(0.000154858 -0.0160902 -1.35147e-06)
(0.000177863 -0.0167783 -1.55224e-06)
(0.000202456 -0.0174348 -1.76688e-06)
(0.000228475 -0.0180613 -1.99396e-06)
(0.000255966 -0.018659 -2.2339e-06)
(0.000284784 -0.0192288 -2.48541e-06)
(0.000314897 -0.0197713 -2.74822e-06)
(0.00034623 -0.0202868 -3.02169e-06)
(0.000378688 -0.0207753 -3.30497e-06)
(0.000412172 -0.0212366 -3.59721e-06)
(0.000446539 -0.0216702 -3.89716e-06)
(0.000481636 -0.0220754 -4.20348e-06)
(0.000517284 -0.0224515 -4.51461e-06)
(0.000553265 -0.0227974 -4.82865e-06)
(0.000589346 -0.023112 -5.14357e-06)
(0.000625249 -0.0233938 -5.45693e-06)
(0.000660673 -0.0236414 -5.76614e-06)
(0.000695278 -0.0238531 -6.06818e-06)
(0.000728695 -0.0240271 -6.35984e-06)
(0.000760521 -0.0241615 -6.63765e-06)
(0.000790328 -0.0242541 -6.89783e-06)
(0.000817654 -0.024303 -7.13637e-06)
(0.000842015 -0.0243058 -7.34904e-06)
(0.000862908 -0.0242602 -7.53144e-06)
(0.000879819 -0.0241638 -7.6791e-06)
(0.000892237 -0.0240142 -7.78759e-06)
(0.000899648 -0.0238089 -7.85342e-06)
(0.00090156 -0.0235456 -7.87022e-06)
(0.000897517 -0.0232215 -7.83503e-06)
(0.00088712 -0.0228344 -7.74437e-06)
(0.000870029 -0.0223819 -7.59528e-06)
(0.000845994 -0.0218616 -7.38558e-06)
(0.000814856 -0.0212714 -7.11388e-06)
(0.00077658 -0.0206094 -6.77988e-06)
(0.000731282 -0.0198738 -6.38458e-06)
(0.000679236 -0.0190631 -5.93034e-06)
(0.000620898 -0.0181756 -5.42118e-06)
(0.000556945 -0.0172082 -4.86299e-06)
(0.000488325 -0.0161555 -4.26406e-06)
(0.000416318 -0.0150071 -3.63552e-06)
(0.000342564 -0.0137439 -2.9917e-06)
(0.000269092 -0.0123346 -2.35031e-06)
(0.000198321 -0.0107349 -1.73245e-06)
(0.000132849 -0.00889047 -1.16081e-06)
(7.5631e-05 -0.00674747 -6.6114e-07)
(2.98723e-05 -0.00426323 -2.61684e-07)
(1.85527e-06 -0.00141478 -2.13312e-08)
(1.82511e-07 -0.0013975 -1.58861e-09)
(1.46723e-06 -0.00328045 -1.27936e-08)
(5.11582e-06 -0.00498909 -4.4619e-08)
(1.03854e-05 -0.00648238 -9.06307e-08)
(1.7245e-05 -0.00781329 -1.50439e-07)
(2.64787e-05 -0.00901841 -2.31062e-07)
(3.74747e-05 -0.0101249 -3.27128e-07)
(4.77938e-05 -0.0111496 -4.17075e-07)
(6.24812e-05 -0.012104 -5.45266e-07)
(7.7355e-05 -0.0130018 -6.75099e-07)
(9.51318e-05 -0.0138478 -8.30211e-07)
(0.000113881 -0.0146494 -9.93861e-07)
(0.000134642 -0.0154104 -1.17504e-06)
(0.00015696 -0.0161346 -1.36981e-06)
(0.000180951 -0.0168246 -1.57919e-06)
(0.000206523 -0.0174829 -1.80237e-06)
(0.000233703 -0.0181109 -2.03958e-06)
(0.000262369 -0.01871 -2.28978e-06)
(0.000292502 -0.019281 -2.55276e-06)
(0.000323958 -0.0198245 -2.82729e-06)
(0.000356738 -0.0203408 -3.11339e-06)
(0.000390691 -0.0208298 -3.40972e-06)
(0.000425755 -0.0212915 -3.71575e-06)
(0.000461745 -0.0217252 -4.02986e-06)
(0.000498521 -0.0221304 -4.35084e-06)
(0.000535875 -0.0225062 -4.67686e-06)
(0.000573587 -0.0228516 -5.006e-06)
(0.000611399 -0.0231653 -5.33603e-06)
(0.000649023 -0.0234461 -5.66441e-06)
(0.000686135 -0.0236924 -5.98835e-06)
(0.000722375 -0.0239025 -6.30466e-06)
(0.000757352 -0.0240747 -6.60995e-06)
(0.000790641 -0.0242069 -6.90052e-06)
(0.000821788 -0.0242972 -7.17241e-06)
(0.000850307 -0.0243434 -7.42136e-06)
(0.000875689 -0.0243433 -7.64294e-06)
(0.000897405 -0.0242945 -7.83252e-06)
(0.000914917 -0.0241948 -7.98544e-06)
(0.000927689 -0.0240416 -8.09701e-06)
(0.000935188 -0.0238326 -8.16366e-06)
(0.000936898 -0.0235653 -8.17871e-06)
(0.000932353 -0.0232373 -8.13914e-06)
(0.000921139 -0.0228462 -8.04135e-06)
(0.000902912 -0.0223896 -7.88235e-06)
(0.000877421 -0.0218653 -7.65995e-06)
(0.000844516 -0.0212712 -7.37283e-06)
(0.000804177 -0.0206054 -7.02082e-06)
(0.000756547 -0.0198664 -6.60516e-06)
(0.000701932 -0.0190525 -6.12851e-06)
(0.000640837 -0.018162 -5.59529e-06)
(0.00057399 -0.0171922 -5.01184e-06)
(0.000502405 -0.0161376 -4.38702e-06)
(0.000427425 -0.0149879 -3.73253e-06)
(0.000350768 -0.0137241 -3.06337e-06)
(0.000274543 -0.012315 -2.39794e-06)
(0.000201288 -0.0107163 -1.75839e-06)
(0.000133753 -0.00887375 -1.16873e-06)
(7.51686e-05 -0.00673356 -6.57123e-07)
(2.89364e-05 -0.00425335 -2.53495e-07)
(1.53915e-06 -0.00141069 -1.83439e-08)
(1.92475e-07 -0.00140113 -1.67158e-09)
(1.65475e-06 -0.00328875 -1.44435e-08)
(5.39947e-06 -0.00500195 -4.71183e-08)
(1.04766e-05 -0.0064995 -9.14221e-08)
(1.7415e-05 -0.0078344 -1.5197e-07)
(2.6629e-05 -0.00904323 -2.32376e-07)
(3.72528e-05 -0.0101532 -3.24983e-07)
(5.12577e-05 -0.0111811 -4.47343e-07)
(6.63503e-05 -0.0121385 -5.79144e-07)
(7.94317e-05 -0.0130391 -6.93224e-07)
(9.78996e-05 -0.0138876 -8.54355e-07)
(0.000116371 -0.0146917 -1.01561e-06)
(0.000137866 -0.0154549 -1.20316e-06)
(0.000160871 -0.0161811 -1.40394e-06)
(0.000185604 -0.0168731 -1.61979e-06)
(0.000212157 -0.0175331 -1.85154e-06)
(0.000240362 -0.0181627 -2.09769e-06)
(0.000270248 -0.0187631 -2.35853e-06)
(0.000301653 -0.0193353 -2.63261e-06)
(0.000334537 -0.0198799 -2.91961e-06)
(0.000368818 -0.020397 -3.2188e-06)
(0.000404385 -0.0208867 -3.52923e-06)
(0.000441125 -0.0213487 -3.84988e-06)
(0.000478871 -0.0217826 -4.17932e-06)
(0.000517447 -0.0221877 -4.51601e-06)
(0.000556648 -0.0225632 -4.85814e-06)
(0.000596225 -0.0229081 -5.20357e-06)
(0.000635912 -0.023221 -5.54996e-06)
(0.000675394 -0.0235007 -5.89456e-06)
(0.000714332 -0.0237457 -6.23444e-06)
(0.00075234 -0.0239541 -6.56618e-06)
(0.000789004 -0.0241243 -6.88619e-06)
(0.000823874 -0.0242544 -7.19056e-06)
(0.000856468 -0.0243421 -7.47508e-06)
(0.000886275 -0.0243855 -7.73527e-06)
(0.000912756 -0.0243824 -7.96645e-06)
(0.000935357 -0.0243303 -8.16377e-06)
(0.000953511 -0.024227 -8.32228e-06)
(0.000966659 -0.02407 -8.43715e-06)
(0.000974241 -0.0238571 -8.50457e-06)
(0.000975725 -0.0235857 -8.51765e-06)
(0.000970623 -0.0232536 -8.47322e-06)
(0.000958513 -0.0228582 -8.36762e-06)
(0.000939043 -0.0223973 -8.19777e-06)
(0.000911963 -0.0218689 -7.96151e-06)
(0.000877132 -0.0212707 -7.65757e-06)
(0.000834546 -0.0206011 -7.28596e-06)
(0.000784377 -0.0198583 -6.84814e-06)
(0.000726968 -0.0190411 -6.34711e-06)
(0.000662873 -0.0181477 -5.78769e-06)
(0.00059288 -0.0171754 -5.17679e-06)
(0.000518069 -0.0161188 -4.52381e-06)
(0.00043986 -0.0149678 -3.84113e-06)
(0.000360052 -0.0137034 -3.14447e-06)
(0.000280849 -0.0122946 -2.45304e-06)
(0.000204913 -0.0106971 -1.79008e-06)
(0.000135155 -0.00885652 -1.181e-06)
(7.50702e-05 -0.00671937 -6.56281e-07)
(2.82371e-05 -0.00424346 -2.4739e-07)
(1.2762e-06 -0.00140675 -1.58509e-08)
(1.54214e-07 -0.00140284 -1.33749e-09)
(1.4653e-06 -0.00329447 -1.27896e-08)
(5.21713e-06 -0.00501219 -4.55215e-08)
(1.02816e-05 -0.00651416 -8.97226e-08)
(1.7262e-05 -0.00785294 -1.50649e-07)
(2.63588e-05 -0.00906573 -2.30008e-07)
(3.69696e-05 -0.0101786 -3.22556e-07)
(5.10173e-05 -0.0112097 -4.45209e-07)
(6.66209e-05 -0.0121718 -5.81497e-07)
(8.04509e-05 -0.0130752 -7.02109e-07)
(9.94925e-05 -0.0139274 -8.68248e-07)
(0.000118631 -0.014734 -1.03534e-06)
(0.000141051 -0.0154999 -1.23097e-06)
(0.000164974 -0.0162286 -1.43974e-06)
(0.00019082 -0.0169228 -1.66531e-06)
(0.000218493 -0.0175847 -1.90682e-06)
(0.000248 -0.0182161 -2.16435e-06)
(0.000279228 -0.0188182 -2.43689e-06)
(0.000312115 -0.0193918 -2.72392e-06)
(0.000346546 -0.0199375 -3.02442e-06)
(0.000382488 -0.0204555 -3.3381e-06)
(0.000419788 -0.0209459 -3.66365e-06)
(0.000458356 -0.0214084 -4.00026e-06)
(0.000497985 -0.0218426 -4.34613e-06)
(0.000538509 -0.0222477 -4.69982e-06)
(0.000579692 -0.0226229 -5.05925e-06)
(0.000621279 -0.0229672 -5.42222e-06)
(0.000662978 -0.0232793 -5.78617e-06)
(0.000704459 -0.0235579 -6.14822e-06)
(0.000745357 -0.0238014 -6.5052e-06)
(0.000785263 -0.0240081 -6.85352e-06)
(0.000823737 -0.0241763 -7.18933e-06)
(0.000860301 -0.0243039 -7.50849e-06)
(0.000894446 -0.0243891 -7.80654e-06)
(0.00092563 -0.0244295 -8.07875e-06)
(0.000953286 -0.0244231 -8.32019e-06)
(0.000976827 -0.0243675 -8.52572e-06)
(0.000995662 -0.0242605 -8.69018e-06)
(0.0010092 -0.0240996 -8.80846e-06)
(0.00101686 -0.0238825 -8.87661e-06)
(0.00101808 -0.0236069 -8.88742e-06)
(0.00101237 -0.0232703 -8.83765e-06)
(0.000999278 -0.0228705 -8.72349e-06)
(0.000978455 -0.0224052 -8.54185e-06)
(0.00094965 -0.0218723 -8.29053e-06)
(0.000912731 -0.0212699 -7.96838e-06)
(0.000867713 -0.0205962 -7.57554e-06)
(0.000814799 -0.0198497 -7.11375e-06)
(0.000754369 -0.019029 -6.58635e-06)