/*--------------------------------*- C++ -*----------------------------------*\
| =========                 |                                                 |
| \\      /  F ield         | OpenFOAM: The Open Source CFD Toolbox           |
|  \\    /   O peration     | Version:  v2006                                 |
|   \\  /    A nd           | Website:  www.openfoam.com                      |
|    \\/     M anipulation  |                                                 |
\*---------------------------------------------------------------------------*/
FoamFile
{
    version     2.0;
    format      ascii;
    class       volScalarField;
    location    "0.01";
    object      p;
}
// * * * * * * * * * * * * * * * * * * * * * * * * * * * * * * * * * * * * * //

dimensions      [1 -1 -2 0 0 0 0];


internalField   nonuniform List<scalar> 
3575
(
2e+06
2e+06
4527.89
1.99999e+06
2.00001e+06
2.00002e+06
2.00004e+06
2.00004e+06
1.99998e+06
2.00013e+06
2.00012e+06
2e+06
2.00002e+06
2.00012e+06
2.00013e+06
2.00015e+06
2.00014e+06
2.00014e+06
2.00014e+06
2.00002e+06
2.00005e+06
2.00012e+06
2.00013e+06
2.00013e+06
237508
2.00002e+06
2.00003e+06
2.00002e+06
2.00002e+06
2.00003e+06
2.00002e+06
2.00012e+06
1.99999e+06
2.00002e+06
2.00009e+06
2.00004e+06
2.00007e+06
2.00003e+06
1864.84
1249.59
2.00006e+06
2189.62
2.00006e+06
243506
2.00008e+06
2.00008e+06
109872
2.00012e+06
2.00001e+06
80842.4
109866
109858
2.00006e+06
109862
2.00006e+06
2.0001e+06
2.0001e+06
2.00005e+06
2.00005e+06
1.97548e+06
2275.34
2.00005e+06
109797
2.00006e+06
2.00006e+06
2.00001e+06
2.00006e+06
2.00014e+06
2.00002e+06
2.00013e+06
2.00005e+06
109735
109552
109744
2.00006e+06
109869
108600
1.99942e+06
2.00003e+06
2e+06
2.0001e+06
109494
2e+06
2e+06
2193.6
1.99992e+06
2.00001e+06
2.00007e+06
2.00011e+06
2.00007e+06
2.00005e+06
2.00008e+06
1.99999e+06
2e+06
2e+06
2.00002e+06
2.00008e+06
109874
2.00011e+06
2.00008e+06
2e+06
2.00001e+06
2.00008e+06
2.00002e+06
2.00003e+06
2.00004e+06
2.00003e+06
2.00005e+06
2.00002e+06
2.00001e+06
2.00002e+06
2.00002e+06
190899
244847
185042
1512.32
109809
6455.98
2.00013e+06
2.00011e+06
2.00002e+06
2.00014e+06
1.99984e+06
2.00011e+06
2.00012e+06
1.99987e+06
2.00003e+06
2.00005e+06
1.99997e+06
1.99986e+06
2.00005e+06
1.99971e+06
2472.39
1.99976e+06
2.00012e+06
109866
2.00013e+06
2.00012e+06
2.0001e+06
2.00012e+06
2.00014e+06
1.99985e+06
2.00014e+06
2e+06
2.00009e+06
2296.51
1.99987e+06
108793
108455
231449
109873
108941
108725
108446
109229
2.00006e+06
2.00002e+06
2.00003e+06
109868
2.00007e+06
2e+06
2e+06
1.99329e+06
2.00013e+06
2.00014e+06
2.00004e+06
930939
2366.98
2431.24
2.00004e+06
2.0001e+06
2.00006e+06
2.00013e+06
2.00004e+06
2190.76
1.99966e+06
2.00014e+06
2.00005e+06
108672
2303.55
109540
237535
1.99993e+06
2.00004e+06
2.00004e+06
2.00013e+06
2.00014e+06
2.00011e+06
2.00003e+06
2.00002e+06
2.00013e+06
2.00003e+06
2.00013e+06
1.99071e+06
2.00003e+06
2.00008e+06
2.00009e+06
2.00006e+06
2.00006e+06
1.99999e+06
198940
2.00013e+06
1.99994e+06
1.99995e+06
1.99976e+06
1.99982e+06
2.00013e+06
2.00013e+06
2.00013e+06
2.00013e+06
2.00006e+06
2.00005e+06
2.00006e+06
2.00006e+06
2.00006e+06
2.00013e+06
2.00013e+06
101625
1.99962e+06
2.00007e+06
1.66649e+06
2.00001e+06
2.00008e+06
109872
109875
2.00004e+06
2.00004e+06
2.00003e+06
2.00004e+06
2.00009e+06
2.00006e+06
1.99999e+06
2.00014e+06
2.00006e+06
2.00013e+06
2.00013e+06
1.99999e+06
2.00008e+06
2.00007e+06
2.00007e+06
2.00012e+06
2.00012e+06
109877
4367.72
2.00003e+06
2.00013e+06
2.00008e+06
2.00007e+06
2.00001e+06
109872
2.00001e+06
2e+06
2e+06
109885
2.0001e+06
2.00012e+06
2.00014e+06
2.00005e+06
1.99999e+06
108725
109104
110397
108295
2.00014e+06
2.00001e+06
2e+06
2e+06
2.00001e+06
2.00001e+06
2.00007e+06
2.00001e+06
2.00001e+06
2.00013e+06
2.00002e+06
2.00014e+06
2.00003e+06
2.00011e+06
2.0001e+06
2.00011e+06
2.00011e+06
1.99999e+06
2.00002e+06
2.00001e+06
1.99996e+06
1.99972e+06
109864
1.99996e+06
1.99999e+06
241283
109881
218454
109877
109878
109878
2295.24
2.00012e+06
6782.27
2.00012e+06
2.00011e+06
2.00009e+06
2.00002e+06
2.00003e+06
2.00006e+06
1.99823e+06
2.0001e+06
109862
2.00011e+06
2.00008e+06
2.00004e+06
2.00008e+06
2.00005e+06
2.00006e+06
2e+06
2.00001e+06
2.00006e+06
2.00001e+06
2.00003e+06
2.00005e+06
245907
109994
7182.55
2.0001e+06
2.00014e+06
2.00012e+06
2.00005e+06
2.00005e+06
2.00006e+06
2.00006e+06
2.00009e+06
2.00005e+06
2.00003e+06
2e+06
2551.62
207723
2.00002e+06
2.00007e+06
2.00005e+06
2.00006e+06
2.00004e+06
2.0001e+06
2.0001e+06
2.00013e+06
2.00014e+06
2.00011e+06
2.00006e+06
2.00013e+06
2.00007e+06
2.00008e+06
2.00008e+06
2.00008e+06
2.00009e+06
2.00009e+06
2.0001e+06
2.00003e+06
2.00006e+06
2.00005e+06
2.00004e+06
2.00006e+06
2.00005e+06
109890
109879
2.00004e+06
2.00004e+06
214852
1.99982e+06
2.00004e+06
1.88541e+06
2.00008e+06
109912
109903
2.00004e+06
2.00004e+06
2.00007e+06
109912
2.00003e+06
2e+06
2.00002e+06
2.00009e+06
2.00011e+06
2.00006e+06
2.00014e+06
2.00008e+06
2.00006e+06
2.00005e+06
2.00007e+06
2.00008e+06
2.00005e+06
2.00005e+06
2.00005e+06
2.00001e+06
2.00014e+06
2.00005e+06
2.00013e+06
2.00005e+06
2.00012e+06
2.00013e+06
2.00013e+06
2.00012e+06
2.00013e+06
2.00002e+06
2.00006e+06
2.00004e+06
3550.04
1.99999e+06
109878
270889
2e+06
2.00002e+06
2.00013e+06
2.00009e+06
2.00012e+06
2.00005e+06
2.00006e+06
109872
109849
109869
2.00005e+06
109827
2.00006e+06
2.00007e+06
2.00008e+06
2.00002e+06
2.00009e+06
2.00013e+06
2.00009e+06
2.00013e+06
30327.4
2.00003e+06
109879
2.00003e+06
2e+06
109882
2.00005e+06
2.00002e+06
2.00015e+06
2.00011e+06
2.00012e+06
2.00006e+06
2.00002e+06
2.00013e+06
2.00001e+06
2.00013e+06
2.00013e+06
2.00013e+06
2.00003e+06
2.00013e+06
2.00003e+06
2.00004e+06
2.00012e+06
2.00013e+06
2.00014e+06
2e+06
2.00004e+06
2.00002e+06
2e+06
2.00003e+06
2416.95
310356
2e+06
2e+06
2.00004e+06
2.00007e+06
2.00007e+06
2.00006e+06
2.00006e+06
2.00006e+06
2.00007e+06
2.00006e+06
2.00009e+06
2.00006e+06
109067
2.00011e+06
2.00005e+06
1.99999e+06
2.00005e+06
2.00011e+06
2.00005e+06
2.00006e+06
2.00005e+06
2.00007e+06
2.00011e+06
2e+06
2.00001e+06
1.99999e+06
2.00009e+06
2e+06
2.00009e+06
1.99999e+06
2.00014e+06
2.00006e+06
2e+06
2.00005e+06
2.00006e+06
109885
2.00006e+06
109899
109805
2.00006e+06
2.00006e+06
2.00006e+06
2.00015e+06
2.00014e+06
993.959
36585.2
108610
2.00005e+06
2.00006e+06
2.00005e+06
2.00006e+06
109862
1.99974e+06
2.00009e+06
2.00013e+06
109596
2.00002e+06
2.00003e+06
2.00003e+06
2.00011e+06
2.00003e+06
2.0001e+06
2.0001e+06
2.0001e+06
2543.01
2.00009e+06
2.0001e+06
2.00006e+06
2e+06
2.00011e+06
2.00005e+06
2.00001e+06
2.00014e+06
109900
2.00013e+06
2.00009e+06
2.0001e+06
2.00013e+06
109874
2.00013e+06
109892
2.00013e+06
109893
109898
2.00008e+06
109599
2.00013e+06
2.00008e+06
2.00005e+06
2.00002e+06
2.00015e+06
2.00013e+06
109833
2.00013e+06
2541.92
2e+06
2e+06
2.00013e+06
2.00013e+06
2.00004e+06
2.00002e+06
2.00003e+06
2.00005e+06
109598
2.00005e+06
2.00009e+06
2.00009e+06
2.00001e+06
2.00008e+06
2.00005e+06
109847
2.00006e+06
2.00003e+06
2.00004e+06
2.00006e+06
2.00003e+06
1.99999e+06
2e+06
2e+06
2.00001e+06
2.00005e+06
2.00004e+06
2.00001e+06
2.00005e+06
2.00007e+06
2.00005e+06
2.00008e+06
2.00012e+06
109486
2.0001e+06
109696
103361
266990
109792
2940.21
109874
109785
2325.49
3461.37
2256.65
109754
2.00006e+06
2.00006e+06
2.00005e+06
2.00002e+06
2.00004e+06
2.00007e+06
2.00005e+06
108717
2.00006e+06
2.00004e+06
2.00005e+06
2.00009e+06
2.0001e+06
2.00011e+06
2.0001e+06
2.00009e+06
2.00012e+06
2.00012e+06
2.00003e+06
2.0001e+06
2.00003e+06
2.00008e+06
2.00005e+06
2.00006e+06
2.00012e+06
2.00001e+06
2.00007e+06
2.00007e+06
2.00009e+06
2.00008e+06
2243.23
2e+06
2.00001e+06
2.00001e+06
2.00001e+06
108733
2.00005e+06
1.99965e+06
2.00006e+06
2.00007e+06
2.00006e+06
1.99991e+06
2e+06
2.00004e+06
2e+06
109719
2.00003e+06
2.00008e+06
2.00006e+06
108280
2.00004e+06
2.00004e+06
2.00005e+06
1.55731e+06
2.00005e+06
2.00003e+06
108761
1.99934e+06
1.99997e+06
2.00009e+06
1.99995e+06
1.9996e+06
2.00002e+06
229798
2.00006e+06
1.99987e+06
2.00007e+06
108393
2.00002e+06
84214
2.00007e+06
2.00012e+06
2.00012e+06
2.00012e+06
2387.27
2.00007e+06
2.00007e+06
2.0001e+06
1.99988e+06
2.0001e+06
2.00011e+06
2.00011e+06
2.00011e+06
2.00004e+06
2.00003e+06
2e+06
1.99999e+06
2e+06
109831
606.796
2e+06
2.00003e+06
2.00001e+06
2.00002e+06
2e+06
2177.24
2.00001e+06
2489.81
2.00006e+06
2.00011e+06
8457.21
2624.35
2.00002e+06
2.0001e+06
1484.55
2.00011e+06
2.00011e+06
2.00011e+06
1.99968e+06
2.00014e+06
2.0001e+06
2.00002e+06
241524
2.00008e+06
2.00007e+06
2.00007e+06
109199
2.00007e+06
2.00006e+06
2.00006e+06
109890
109893
2.00008e+06
109889
109433
2.00001e+06
225974
2963.04
2.00005e+06
2302.47
2e+06
232526
107709
2308.37
2.00003e+06
109899
2.00006e+06
2.00006e+06
2.00011e+06
2.00011e+06
2.0001e+06
2.00004e+06
2.00012e+06
2.00011e+06
2.00011e+06
1.99999e+06
2183
2.00003e+06
2.00004e+06
2.00001e+06
2.00005e+06
2.00003e+06
2.00006e+06
2.00004e+06
2.00004e+06
2.00006e+06
2.00005e+06
2.00009e+06
2.00008e+06
2.00003e+06
2.00009e+06
2.00004e+06
2.00004e+06
2.00007e+06
2.00005e+06
2.00005e+06
2.00008e+06
2.00005e+06
2.00013e+06
2.00013e+06
2.00013e+06
2.00014e+06
2.00002e+06
2.00014e+06
109890
2.00014e+06
2.00014e+06
2.00008e+06
2.00007e+06
2.00004e+06
2.00012e+06
2.00012e+06
2.00013e+06
2.00003e+06
2.00012e+06
108873
276079
2.00005e+06
249915
2.00005e+06
2.00004e+06
2e+06
2.00003e+06
2.00004e+06
109875
2.00005e+06
2e+06
2.00005e+06
109895
2.00004e+06
2.00005e+06
2244.35
1.99997e+06
2.00011e+06
2.00012e+06
2.00002e+06
2.00003e+06
2.00001e+06
2.00002e+06
2.00008e+06
2.00009e+06
2.00005e+06
2.00005e+06
109902
2.00003e+06
2.00003e+06
2.00004e+06
2.00004e+06
2.00009e+06
2.0001e+06
2.00005e+06
2.00011e+06
2.00003e+06
2.00009e+06
2.00006e+06
2.00006e+06
109106
108814
109053
108776
109875
2.00015e+06
209660
2313.42
109886
2.00011e+06
2.00013e+06
1.99998e+06
2.00008e+06
2.00012e+06
2.00014e+06
2.00014e+06
2330.71
2.00014e+06
2.00011e+06
170918
2.00005e+06
2.00005e+06
1.99999e+06
2.00004e+06
2.00003e+06
2.00004e+06
2.00007e+06
2.00004e+06
2.00001e+06
1.99999e+06
2.00004e+06
2.00005e+06
211939
2.00007e+06
2.00008e+06
221734
2.0001e+06
2.0001e+06
241563
4803.16
2.00001e+06
3394.21
2.00002e+06
2.00002e+06
2e+06
109807
2.00002e+06
2.00004e+06
93725
108954
200048
236466
2.00011e+06
14686.5
2.00008e+06
2626.74
1105.4
2.00011e+06
2.00011e+06
2.0001e+06
2407.12
2.00011e+06
2.00012e+06
1.99693e+06
1.99999e+06
2.00005e+06
2.00004e+06
1.99999e+06
2e+06
2.00001e+06
217939
2e+06
2.00001e+06
109865
93292.6
208.252
6252.79
108257
104787
2.00002e+06
109804
2.00013e+06
200037
2.00003e+06
2.00005e+06
2.00006e+06
237188
2.00009e+06
2e+06
2.00014e+06
2.00014e+06
2.00011e+06
2.00007e+06
-7703.84
2.00005e+06
2.00002e+06
2.00009e+06
2284.26
205145
1285.05
2310.41
2e+06
2e+06
109733
2.0001e+06
109559
109824
2e+06
2.00005e+06
2.00009e+06
2e+06
2.00003e+06
2.00009e+06
2.00011e+06
2.00009e+06
2.00011e+06
2.00009e+06
2.00012e+06
2.00012e+06
2.00007e+06
2.00007e+06
2.00007e+06
2.00007e+06
2.00003e+06
2.00003e+06
2.00004e+06
2.00002e+06
2.00001e+06
2e+06
2e+06
2e+06
109863
2.00004e+06
2.00004e+06
2.00008e+06
109863
2153.82
109861
2.00012e+06
2.00006e+06
2.00009e+06
2.0001e+06
2.00011e+06
2.00014e+06
2.00011e+06
2.00004e+06
2.00011e+06
2.00011e+06
2.00004e+06
2.00008e+06
3252.21
2.00002e+06
2.00012e+06
2e+06
2.00014e+06
2.00002e+06
2.00004e+06
2.00014e+06
2.00014e+06
2.00013e+06
2.00007e+06
2.00007e+06
2.00007e+06
1.99489e+06
2.00006e+06
2.00009e+06
2.00006e+06
2.00005e+06
2.00014e+06
2.00004e+06
226184
2.00004e+06
2.00008e+06
2.00004e+06
170459
2.00008e+06
2.00005e+06
2.00004e+06
1.99999e+06
1.99999e+06
2.00004e+06
2265.9
1861.03
2342.74
1.99999e+06
2559.85
1.99999e+06
1904.88
109831
212586
109804
2068.01
109873
1501.48
1.99661e+06
1.99358e+06
1.99571e+06
2.00012e+06
2.00012e+06
2.00001e+06
2.00006e+06
2.00009e+06
2.00013e+06
2.00012e+06
2.00013e+06
2.00014e+06
2.00004e+06
1.99984e+06
2.00012e+06
2.00005e+06
1.99615e+06
2.00008e+06
109868
109854
109886
109875
109872
2.0001e+06
2.00011e+06
2.0001e+06
2.0001e+06
2.00005e+06
2.00005e+06
2.00004e+06
2.00005e+06
2.00013e+06
2.00007e+06
109867
202398
2.00014e+06
2300.04
2.00004e+06
2.00003e+06
2.00004e+06
2.00002e+06
2e+06
2.00009e+06
2.00014e+06
2.00009e+06
2.00006e+06
2.00003e+06
2.00006e+06
2327.35
2.00011e+06
2.00009e+06
2.00007e+06
2.00007e+06
2.00001e+06
108787
109200
3918.13
2.00013e+06
2303.71
1904.62
2.00014e+06
2.00004e+06
2.00013e+06
2.00007e+06
2.00007e+06
2.00011e+06
2.00004e+06
2e+06
2.00004e+06
2.0001e+06
2.00009e+06
2.00013e+06
2.0001e+06
2.0001e+06
2.00004e+06
2.00009e+06
2.00009e+06
109872
2.00009e+06
2.0001e+06
2.00001e+06
109880
2.00002e+06
2.00005e+06
2.00001e+06
109678
2.00006e+06
2.00006e+06
2.00004e+06
2.00005e+06
2.00005e+06
2.00006e+06
2.00005e+06
1.99519e+06
2.00005e+06
2.00001e+06
2.00005e+06
2.00002e+06
2.00011e+06
2.00011e+06
1.99999e+06
2.00005e+06
2.00003e+06
2.00006e+06
2.00011e+06
2.00003e+06
2.00003e+06
2.00003e+06
2.00007e+06
2.00004e+06
2e+06
2e+06
109705
2.00002e+06
2.00002e+06
109905
2.00002e+06
2.00002e+06
155065
109736
2.00003e+06
2.00011e+06
2.00011e+06
2.00007e+06
109662
2.00008e+06
2.00008e+06
2.00008e+06
2.00005e+06
2.00006e+06
109703
2.00007e+06
2.00008e+06
2.00007e+06
2.00008e+06
109850
2.00007e+06
2.00007e+06
2.00012e+06
2.00012e+06
2.00006e+06
109696
1.99999e+06
2.00005e+06
2.00001e+06
1.99999e+06
1.99999e+06
109699
272386
2289.75
2.00004e+06
109840
109877
2.00004e+06
2.00004e+06
2.00011e+06
2.00007e+06
2.00009e+06
2.00003e+06
2.00009e+06
2.00003e+06
2.00013e+06
2e+06
2.00007e+06
2.00005e+06
2.00005e+06
2282.26
2.00002e+06
2.00006e+06
2.00009e+06
2.00002e+06
2.00001e+06
109896
2.00007e+06
2.00005e+06
2.00006e+06
2.00006e+06
2.00005e+06
3227.48
871.343
2.00005e+06
2.00008e+06
7894.95
109620
2.00008e+06
2.00007e+06
2.00007e+06
2.00012e+06
2.00012e+06
2.00008e+06
2.00009e+06
109582
2.00003e+06
2.00004e+06
2.00004e+06
2.00003e+06
2.00004e+06
2.00003e+06
2.00008e+06
2.00009e+06
2.00014e+06
2.00013e+06
2.00006e+06
1.14566e+06
2.00005e+06
2.00003e+06
2.00004e+06
2.00007e+06
2.00008e+06
2.00014e+06
229897
2.0001e+06
2.00009e+06
2.0001e+06
2.00005e+06
2.00005e+06
2.00006e+06
2.00002e+06
2.00002e+06
2.00002e+06
1.99999e+06
2e+06
2.00003e+06
2.00001e+06
2.00002e+06
2e+06
1.99999e+06
2.00007e+06
2.00007e+06
2.00004e+06
242078
2.00008e+06
2.00002e+06
1.99989e+06
2.00012e+06
2.00014e+06
2.00014e+06
2.00003e+06
2308.64
2.00011e+06
2.00008e+06
110267
106700
240078
109062
2295.54
277786
285380
2265.12
2.00008e+06
2334.08
3908.92
213290
2.00008e+06
2.00008e+06
2.00009e+06
2.00009e+06
2.00009e+06
2.00008e+06
2.00004e+06
2.00004e+06
2.00003e+06
2.00001e+06
2.00003e+06
2.00012e+06
2.00009e+06
107581
113515
109065
109606
2.00001e+06
2.00001e+06
2.00002e+06
2305.71
107111
109870
109866
109875
109874
224180
212488
2.00014e+06
2.00014e+06
2.00001e+06
2.00002e+06
198272
2708.83
2637.73
2285.57
3334.17
2.00006e+06
2.00001e+06
2.00014e+06
2.00014e+06
2.00008e+06
2.00013e+06
2.00012e+06
2.00014e+06
2.00006e+06
1.52285e+06
2.00014e+06
109011
2.00012e+06
109691
648084
1.99798e+06
2202.79
2274.32
2254.42
2273.1
2247.78
2215.53
2716.86
207962
194166
214975
231806
198470
99242.5
165544
109871
2.00008e+06
2.0001e+06
109329
109824
2316.35
109789
109888
109857
2.00005e+06
2.00005e+06
2.00005e+06
1710.85
2.00008e+06
2.00002e+06
2.00009e+06
2.00006e+06
2.00001e+06
2e+06
2.00001e+06
2.00004e+06
2.00009e+06
2.00006e+06
2.00006e+06
1.99999e+06
1.99999e+06
2.00003e+06
2.00002e+06
2.00007e+06
2.00012e+06
2.00011e+06
2.00014e+06
2.00013e+06
2.00013e+06
1.34981e+06
1.99798e+06
1.99876e+06
1.99972e+06
2.00004e+06
2e+06
2.00001e+06
2.00006e+06
2e+06
2e+06
1.99999e+06
2.00012e+06
2.00004e+06
2.00014e+06
108744
2.00014e+06
1.24833e+06
2.00006e+06
5120.09
2.00013e+06
1.8546e+06
2.00013e+06
108686
109013
2421.83
109108
2.00006e+06
2.00013e+06
109911
2.00013e+06
1.99999e+06
2.00014e+06
227219
2.00009e+06
204551
2.00009e+06
-3785.78
2.00006e+06
2.00006e+06
2.00014e+06
2.00008e+06
2.00004e+06
2786.86
2.00005e+06
110037
2.00003e+06
107484
2.00004e+06
2.00001e+06
2.00004e+06
2.00004e+06
111058
100802
109874
109882
109863
109861
242469
242738
2.00001e+06
2427.63
3253.64
2276.01
2.00006e+06
2.00006e+06
210625
2.00001e+06
2e+06
1.99999e+06
2652.74
231392
2224.51
2296.22
2.00011e+06
2.00011e+06
2.00012e+06
2.00011e+06
2.00014e+06
2338.77
1.99988e+06
1.9992e+06
1.99912e+06
1.99923e+06
1.99886e+06
1.99999e+06
2.00001e+06
2e+06
1.99998e+06
2.00006e+06
2.00005e+06
1.99999e+06
2e+06
2e+06
2e+06
2e+06
2.00006e+06
2.00005e+06
2.00005e+06
2.00005e+06
2.00005e+06
2.00004e+06
2.00005e+06
2.00004e+06
2.00014e+06
2.00005e+06
2.00014e+06
2529.12
2.00008e+06
2.00014e+06
2.00007e+06
2.00014e+06
1.99997e+06
1.99994e+06
1.99969e+06
2.00014e+06
7943.32
2.0001e+06
335.251
4940.63
2.00002e+06
2.00005e+06
2.00006e+06
2444.97
2.00012e+06
2.00012e+06
2307.24
2.00013e+06
2808.76
1.99995e+06
2052.15
2248.1
140321
149495
161507
2.00007e+06
2.00006e+06
2.00006e+06
2.00006e+06
2.00011e+06
109848
109825
109881
2.00004e+06
953.013
106972
2.00012e+06
2.00002e+06
2.00009e+06
2.00009e+06
2.00008e+06
2.00004e+06
2.00014e+06
2e+06
2.00012e+06
2.00014e+06
2.00008e+06
2.0001e+06
2.00007e+06
2.00004e+06
2.00003e+06
2.00005e+06
2.00006e+06
2.00006e+06
2.00001e+06
2.00013e+06
1.99976e+06
2.00011e+06
2.00002e+06
2.00015e+06
2.00001e+06
2.00001e+06
2.00009e+06
2.00009e+06
2327.93
2.00011e+06
2.0001e+06
2208.54
1.99979e+06
2.00011e+06
2005.25
2e+06
1.99973e+06
2.0001e+06
1.90511e+06
2.0001e+06
2601.03
109898
109037
2.00012e+06
2.00014e+06
2.00014e+06
2.0001e+06
2.00011e+06
109849
109858
2.00009e+06
2e+06
109779
2.00005e+06
109864
109767
2.00002e+06
109852
2.00002e+06
2.00003e+06
2.00005e+06
2.00012e+06
2.00002e+06
2.0001e+06
2.00013e+06
2.00006e+06
1.99999e+06
2.00008e+06
2.00009e+06
2.0001e+06
2.00009e+06
2.00007e+06
2.00007e+06
2.00004e+06
2.00007e+06
2.00006e+06
2.00005e+06
2.00001e+06
2.00001e+06
2.00004e+06
2.00004e+06
2.00004e+06
2.00005e+06
2.00005e+06
1.99996e+06
2.00006e+06
2.00007e+06
2.00006e+06
2.00006e+06
2.00006e+06
2.00008e+06
2.00006e+06
2.00006e+06
2.00002e+06
2.00003e+06
2e+06
2e+06
2.00003e+06
2.00006e+06
2.00001e+06
2.00006e+06
2.00005e+06
2.00006e+06
2.00006e+06
2.00005e+06
2.00005e+06
2e+06
1.99995e+06
1.99993e+06
2.00001e+06
2.00002e+06
1.99996e+06
211733
2.00006e+06
2.00006e+06
2.00006e+06
2.00011e+06
240478
2.00013e+06
217608
200721
2.00013e+06
2.00011e+06
186981
2.00012e+06
148473
201227
2.00001e+06
2.00005e+06
245180
2300.54
109880
109886
109867
109880
2.00011e+06
2.0001e+06
2.00011e+06
1.99977e+06
2.00008e+06
1.98122e+06
2.00008e+06
2.00008e+06
2.00004e+06
2.00011e+06
2.00006e+06
2.00009e+06
2.00011e+06
2.00008e+06
2.00009e+06
2.00009e+06
2.00011e+06
2e+06
105862
2.00008e+06
2.00009e+06
2.00011e+06
1.99986e+06
2.00005e+06
2.00005e+06
2.0001e+06
2.0001e+06
2.0001e+06
2.0001e+06
2.00004e+06
2.00005e+06
109903
109663
109575
218394
109631
2285.76
1632.12
2242.13
1.79205e+06
1.99786e+06
4312.75
109872
109870
1.99391e+06
2.00002e+06
2.00002e+06
2.00001e+06
2.00007e+06
2.00004e+06
2.00005e+06
2.00005e+06
2.00004e+06
2e+06
2.00007e+06
2.00001e+06
2.00005e+06
2.00004e+06
2.00006e+06
2.0001e+06
2.00006e+06
2.00011e+06
2.00012e+06
1.99998e+06
2.00005e+06
1.99983e+06
2.00013e+06
2.00013e+06
2.00012e+06
2.00012e+06
2.00012e+06
2.00004e+06
1.98996e+06
2.00006e+06
1.99836e+06
2.00007e+06
2.00011e+06
2.0001e+06
2.0001e+06
2.0001e+06
2.0001e+06
2.0001e+06
2.00004e+06
2.00001e+06
2.00004e+06
2.00001e+06
2.00005e+06
2776.4
2.00001e+06
2.00005e+06
2.0001e+06
2.00006e+06
2.00006e+06
2.00006e+06
2.00006e+06
2.00001e+06
2.00001e+06
2.00001e+06
190590
2.00001e+06
2.00006e+06
2.00004e+06
2.00002e+06
2.00001e+06
2e+06
2.00001e+06
2.00001e+06
2.00001e+06
109824
105943
2.00004e+06
2.00014e+06
2.00004e+06
2.00004e+06
2.0001e+06
-10.5047
2.00006e+06
2.00005e+06
2.00003e+06
2.00008e+06
2.00008e+06
2.00005e+06
2.00002e+06
1.99999e+06
2.00003e+06
2.00009e+06
2.00007e+06
109376
109878
109734
1.99404e+06
1.98869e+06
2.00005e+06
1.99999e+06
1.99741e+06
2269.34
3302.35
2.00001e+06
219265
231413
109869
109868
2.00002e+06
109875
109869
109405
109769
109867
109475
109568
237434
2.00004e+06
234313
109375
2.00002e+06
2.00002e+06
2.00008e+06
2580.93
2.00008e+06
2.00014e+06
2.00012e+06
2298.93
2253.4
1.99986e+06
2099.09
2108.22
212104
2.00008e+06
109798
109850
108736
2.00008e+06
2.0001e+06
2.00009e+06
109874
106137
2.00002e+06
2e+06
2e+06
2e+06
2.00004e+06
2.00003e+06
2.00004e+06
2.00003e+06
2.00002e+06
2.00012e+06
2.00002e+06
2.00011e+06
2.00007e+06
2.00006e+06
2.00001e+06
2.00007e+06
2.00007e+06
2.00007e+06
2.00002e+06
2.00007e+06
2.00002e+06
233646
2.00001e+06
109869
2.00002e+06
109880
2.00002e+06
109873
109871
109871
2.00001e+06
2.00002e+06
2.00002e+06
2.00002e+06
1.99999e+06
2e+06
2.00004e+06
1.99999e+06
2.00008e+06
2e+06
2e+06
2e+06
2.00006e+06
2.00004e+06
2.00003e+06
2.00003e+06
2.00007e+06
2.00007e+06
2.00008e+06
2.00009e+06
2.0001e+06
2.00014e+06
2.00013e+06
2.00014e+06
2.00009e+06
2.00007e+06
1.99998e+06
2.00013e+06
2.00007e+06
1.99999e+06
2e+06
2.00003e+06
109900
2.00006e+06
2e+06
2.00007e+06
1.99973e+06
2.00008e+06
2.00006e+06
2.00007e+06
2.00007e+06
2.00002e+06
2.00004e+06
2.00006e+06
2.00007e+06
2.00006e+06
2.00014e+06
2.00014e+06
2.00015e+06
2.00004e+06
2.00005e+06
109872
109882
109867
109873
109873
109865
2.00013e+06
2.00014e+06
109331
193145
-17379.7
91482.9
2.00004e+06
2.00002e+06
2.00002e+06
2.00002e+06
2.00002e+06
1.99998e+06
2.00004e+06
2.00004e+06
2.00008e+06
2.00005e+06
2.00006e+06
2.00005e+06
1.99999e+06
1.99999e+06
2.00004e+06
1.99052e+06
1.99837e+06
1.99879e+06
1.98796e+06
2359.69
1.99917e+06
1731.5
1.99998e+06
1.99814e+06
2.00012e+06
2.00007e+06
2.00013e+06
2.0001e+06
2e+06
2.00012e+06
2.00002e+06
1.99996e+06
2.00001e+06
2.00003e+06
2.00009e+06
2.00003e+06
2.00003e+06
2.00006e+06
2.00004e+06
2.0001e+06
2.00003e+06
2.00006e+06
2.00003e+06
2e+06
1.99999e+06
2.00006e+06
2.00011e+06
2.00006e+06
2.00006e+06
2.00009e+06
2.0001e+06
2.0001e+06
2.00006e+06
2.00009e+06
2e+06
2.00006e+06
2.00003e+06
2.00002e+06
2.00006e+06
2.00001e+06
2.00005e+06
2e+06
2.00001e+06
2.00009e+06
2.00003e+06
108217
2.00001e+06
109883
2.00004e+06
2.00009e+06
2.00005e+06
2.00003e+06
2.00009e+06
2.00005e+06
2.00008e+06
2.0001e+06
2.0001e+06
2.00007e+06
2.00007e+06
2e+06
2.00007e+06
2.0001e+06
2.00006e+06
2.00005e+06
2.00004e+06
2.00004e+06
2.00006e+06
1.99995e+06
109868
2.00005e+06
2.00005e+06
2.00006e+06
2.00003e+06
2.00002e+06
2.00007e+06
2.00007e+06
2.00003e+06
159648
109848
2.00005e+06
2.00008e+06
2.00008e+06
2.00008e+06
2.00008e+06
2.00008e+06
1.99993e+06
2.00001e+06
2.00006e+06
2.00009e+06
109874
109882
2.0001e+06
2.00012e+06
2.00008e+06
2.00006e+06
2.00006e+06
2.00006e+06
2.00004e+06
2.00008e+06
2.00007e+06
2.00007e+06
2.00008e+06
2.00007e+06
2.00008e+06
2.00006e+06
6782.43
2.00001e+06
2.00001e+06
2e+06
2e+06
2e+06
2.00003e+06
2.00008e+06
2.00012e+06
2.00012e+06
2.00011e+06
2.00005e+06
2.00012e+06
2.00012e+06
2.00008e+06
2.00008e+06
2.00005e+06
2.00007e+06
2.00009e+06
2.00012e+06
2.0001e+06
2.00005e+06
2.00006e+06
1.99992e+06
2.00009e+06
2.00007e+06
-983.399
2264.15
2.00008e+06
2.00005e+06
2.00006e+06
109894
2.00005e+06
2.00005e+06
2.00005e+06
2.00003e+06
2.00005e+06
2.00005e+06
2.00003e+06
2.00004e+06
2.00005e+06
2.00005e+06
2.00006e+06
2.00006e+06
2.00008e+06
2.00006e+06
2.00008e+06
2.00003e+06
2.00007e+06
2.00009e+06
2.0001e+06
2.00009e+06
2.00008e+06
2.00007e+06
2.00005e+06
2.00006e+06
2.00006e+06
2.00007e+06
2.00008e+06
2.00007e+06
2.00009e+06
2.00006e+06
2.00003e+06
2.00002e+06
2.00001e+06
2.00003e+06
2.00006e+06
1.99996e+06
2.00005e+06
2.00002e+06
1.99993e+06
2.00004e+06
2.00003e+06
2.00003e+06
2.00009e+06
2.00009e+06
2.00003e+06
2.00004e+06
2.00004e+06
2.00004e+06
2.00005e+06
2.00009e+06
2.00009e+06
2.00008e+06
2.00008e+06
2.00003e+06
2.00003e+06
2.00003e+06
2.00003e+06
2.00009e+06
2.00008e+06
2.00003e+06
2.00003e+06
2.00003e+06
109892
2.00005e+06
1.99432e+06
1.99995e+06
1.99996e+06
1.99952e+06
2.00006e+06
1.99973e+06
2185.48
1663.53
2.00006e+06
2291.91
109877
2.00003e+06
2.00007e+06
2.00008e+06
2.00009e+06
2.00009e+06
2.00003e+06
2.00002e+06
2e+06
2.00001e+06
1.99999e+06
1.99975e+06
2.00006e+06
2.00011e+06
2.00003e+06
2.00004e+06
2.00005e+06
2.0001e+06
2.00011e+06
2.00012e+06
1.99878e+06
2.00007e+06
2.00008e+06
2.00007e+06
219554
109880
2.00009e+06
2.00009e+06
2.0001e+06
2.0001e+06
2.00011e+06
2.0001e+06
2.00011e+06
2.0001e+06
2.00007e+06
1.99999e+06
2e+06
2.00001e+06
109350
98431.3
2.00001e+06
2.00003e+06
2.00009e+06
2.00003e+06
2.00004e+06
2.00004e+06
2.00005e+06
2.00005e+06
2.00009e+06
2.00004e+06
2.00013e+06
2.00014e+06
2.00011e+06
2.00013e+06
2e+06
2.00001e+06
2.00006e+06
2.00005e+06
2.00014e+06
2.00005e+06
2.00002e+06
2.00012e+06
2.00013e+06
2.00001e+06
2.00001e+06
2.00006e+06
2.00002e+06
109874
111115
109338
109378
2.00007e+06
2.00005e+06
2.00006e+06
2.00013e+06
2.00009e+06
2.00011e+06
2.00012e+06
2.00012e+06
2.00002e+06
2e+06
2e+06
2.00004e+06
2.00003e+06
2.00005e+06
2.00011e+06
2.00011e+06
2.00011e+06
2.00011e+06
2.00006e+06
2.00003e+06
2.00006e+06
109797
2.00006e+06
2.00006e+06
2.00007e+06
2.00003e+06
1.99999e+06
2.00003e+06
2.00002e+06
2.00002e+06
2.00003e+06
2.00003e+06
2.00008e+06
2.00003e+06
2.00006e+06
2.00007e+06
2.00007e+06
2.00007e+06
109871
2.00003e+06
109872
109876
109870
2.00003e+06
109892
108314
109885
2.00003e+06
2.00007e+06
2.00004e+06
2.00003e+06
2.00003e+06
2e+06
2.00007e+06
227584
277078
1.99997e+06
2.00012e+06
2.00011e+06
2296.38
2301.22
2153.09
2.00006e+06
2.00007e+06
2.00006e+06
42152.1
109887
109903
2258.63
220895
2.00002e+06
1.99998e+06
2.00002e+06
2.00002e+06
1.99999e+06
2e+06
2e+06
2.00008e+06
2.00001e+06
2.00014e+06
2.00007e+06
2.00002e+06
2.00002e+06
2.00013e+06
2.00014e+06
2.00013e+06
1.99999e+06
1.99999e+06
2.00001e+06
116794
109919
2.00007e+06
2.00011e+06
2.00009e+06
2.0001e+06
2.00013e+06
2.0001e+06
2.00002e+06
109855
109853
109854
2.00007e+06
109854
2.00014e+06
2.00002e+06
2.00002e+06
2.00006e+06
2.00002e+06
1.99999e+06
2.00005e+06
1.99973e+06
242669
250555
2.0001e+06
2.00001e+06
2.00005e+06
2.00002e+06
2.00005e+06
275579
2.00002e+06
2.00008e+06
1804.13
5619.93
2687.8
2.00008e+06
2.00008e+06
2549.57
2255.63
1.99948e+06
1.99971e+06
2.00002e+06
2.00002e+06
2.00007e+06
2.00008e+06
2.00008e+06
2.0001e+06
2.00013e+06
2.00013e+06
2.00008e+06
2.00001e+06
2.0001e+06
212733
2.00002e+06
203889
154530
2.00002e+06
2.00004e+06
2.00001e+06
2.00001e+06
219932
2.00007e+06
2.00008e+06
2.00007e+06
2.00008e+06
2.00006e+06
2.00009e+06
2.00007e+06
2.00007e+06
2.0001e+06
2.00007e+06
2.00007e+06
212929
2.00009e+06
2.00008e+06
2.00005e+06
2.00007e+06
2.00007e+06
2.00007e+06
2.00007e+06
2.00007e+06
2.0001e+06
1780.81
1669.77
1595.5
2304.62
229926
2.00005e+06
220449
2.00003e+06
1.99999e+06
1.99999e+06
1.99999e+06
4250.24
1.99999e+06
2.00011e+06
279186
208031
244805
2.00011e+06
2.00005e+06
2.00012e+06
2.00009e+06
2.00009e+06
2.00008e+06
2885.53
2600.65
2323.56
1.99989e+06
1130.61
2.00011e+06
2.00011e+06
1.9999e+06
1680.29
2.00014e+06
1.99966e+06
1.99931e+06
2.00014e+06
1.99925e+06
1.99984e+06
2.00014e+06
2281.9
2.00014e+06
2.00014e+06
1.99967e+06
1.99975e+06
2.00011e+06
1884.8
2.0001e+06
2.00004e+06
2.0001e+06
2.0001e+06
2.00004e+06
2.00002e+06
2.00001e+06
2e+06
2.00001e+06
2.00004e+06
2.00003e+06
2.00002e+06
72233
2.00001e+06
1.99999e+06
2.00012e+06
109445
108942
109534
2.00012e+06
108508
2.00001e+06
2.00005e+06
2.00008e+06
2.00006e+06
2.00008e+06
2.00003e+06
2.00005e+06
2.00001e+06
1.99999e+06
2.00002e+06
2.00002e+06
2e+06
2393.31
2250.02
109804
2.0001e+06
2.00009e+06
2.00007e+06
2.00015e+06
2479.37
109768
2.00012e+06
2.00014e+06
109876
2.00004e+06
2595.32
2.0001e+06
2.0001e+06
2.00008e+06
2.0001e+06
109870
2.0001e+06
2.00007e+06
2.00011e+06
237886
245866
2e+06
17090
2.00002e+06
2.00003e+06
2.00003e+06
5254.26
2.00003e+06
2.00003e+06
2.00006e+06
2.00006e+06
2.00014e+06
2.00006e+06
2.00006e+06
2.00006e+06
241589
3909.74
2349.85
196760
233872
2.00005e+06
2.00003e+06
2.00003e+06
2.0001e+06
2.0001e+06
2.00003e+06
2.0001e+06
2.0001e+06
2.00002e+06
2.00001e+06
2.00002e+06
2.00002e+06
2.00001e+06
2.00014e+06
2.00014e+06
2.00014e+06
2.00014e+06
2.00014e+06
2.00014e+06
2.00008e+06
2.00008e+06
2.00009e+06
217588
2.00009e+06
2.00011e+06
2.00004e+06
2262.7
220336
224410
2.00011e+06
2.00003e+06
208074
277680
2.00008e+06
254397
1367.51
2326.05
1.9999e+06
2.00011e+06
2339.74
2.00005e+06
2.0001e+06
5258.96
2421.93
2.0001e+06
2224.15
2.0001e+06
2165.04
70441.2
2.00005e+06
2.00011e+06
2.00011e+06
2.00011e+06
2.00006e+06
2e+06
2.00013e+06
2.00005e+06
2.00003e+06
2.00002e+06
2e+06
2.00003e+06
2e+06
2.00001e+06
2.00001e+06
2e+06
2.00001e+06
2.00001e+06
106399
2e+06
2e+06
1.99999e+06
2e+06
2327.4
110501
110503
111099
2.00005e+06
2.00004e+06
2.00004e+06
2.00007e+06
2.00007e+06
2.00005e+06
144407
154103
109866
2.00008e+06
2.00006e+06
102051
154632
2.00013e+06
2.0001e+06
2.00011e+06
2.00014e+06
2e+06
2.00001e+06
2.00001e+06
2.00001e+06
109881
109878
2.00009e+06
109876
2.00007e+06
2.00007e+06
2.00002e+06
2.00013e+06
2.00013e+06
2.00013e+06
2.00008e+06
2.00004e+06
2.00006e+06
2.00003e+06
2.00003e+06
2.00009e+06
2.0001e+06
2.00003e+06
2.00007e+06
1.99494e+06
2.00003e+06
1.99852e+06
1.99938e+06
2.00006e+06
2.00009e+06
2.00005e+06
2.00011e+06
2.00014e+06
2.00002e+06
2.00008e+06
2.00007e+06
2.00003e+06
2.00003e+06
2.00003e+06
2.00011e+06
2.00011e+06
2.00006e+06
2.00007e+06
2.00004e+06
109898
2.00002e+06
2.00003e+06
2.00003e+06
2.00003e+06
2.00007e+06
2.0001e+06
2.00011e+06
2.0001e+06
2.0001e+06
215999
2.00006e+06
1.99986e+06
1723.35
2.00006e+06
2292.11
2.00007e+06
2e+06
2.00004e+06
2.00008e+06
2.00007e+06
2e+06
2.00003e+06
2.00005e+06
2.00005e+06
2.00007e+06
2.00005e+06
2.00013e+06
2.00008e+06
2.00005e+06
2.00004e+06
2.00003e+06
2.00003e+06
2.00008e+06
-15878.7
2.00014e+06
2.00006e+06
2.0001e+06
2.00009e+06
2.00009e+06
2e+06
2e+06
1.99866e+06
1.99912e+06
2.00014e+06
2.00005e+06
2.00006e+06
2e+06
2.00002e+06
2e+06
2.00002e+06
109853
109865
109880
109860
220404
3079.6
109885
2355.72
2.00014e+06
2602.39
2.00005e+06
109880
109883
2.00007e+06
2.00007e+06
2.00006e+06
2.00002e+06
2.00006e+06
2.00014e+06
1.99883e+06
1.99924e+06
2.00011e+06
978.737
2.00011e+06
2424.73
2.00002e+06
2.00001e+06
2.00001e+06
106386
2.00002e+06
109782