/*--------------------------------*- C++ -*----------------------------------*\
| =========                 |                                                 |
| \\      /  F ield         | OpenFOAM: The Open Source CFD Toolbox           |
|  \\    /   O peration     | Version:  v2006                                 |
|   \\  /    A nd           | Website:  www.openfoam.com                      |
|    \\/     M anipulation  |                                                 |
\*---------------------------------------------------------------------------*/
FoamFile
{
    version     2.0;
    format      ascii;
    class       volScalarField;
    location    "0.01";
    object      p_rgh;
}
// * * * * * * * * * * * * * * * * * * * * * * * * * * * * * * * * * * * * * //

dimensions      [1 -1 -2 0 0 0 0];


internalField   nonuniform List<scalar> 
3575
(
2.00031e+06
2.00031e+06
4799.06
2.00031e+06
2.00031e+06
2.00031e+06
2.0003e+06
2.00031e+06
2.00016e+06
2.0003e+06
2.0003e+06
2.00031e+06
2.00021e+06
2.0003e+06
2.0003e+06
2.0003e+06
2.0003e+06
2.0003e+06
2.0003e+06
2.00019e+06
2.00021e+06
2.0003e+06
2.0003e+06
2.0003e+06
255595
2.0003e+06
2.0003e+06
2.0003e+06
2.0003e+06
2.00031e+06
2.0003e+06
2.0003e+06
2.00031e+06
2.0003e+06
2.00029e+06
2.00019e+06
2.00022e+06
2.00019e+06
1927.51
1306.88
2.0003e+06
2278.35
2.0003e+06
260616
2.0003e+06
2.0003e+06
107847
2.0003e+06
2.00031e+06
78157.6
107838
107828
2.00029e+06
107841
2.00027e+06
2.0003e+06
2.00027e+06
2.0003e+06
2.00025e+06
1.97562e+06
2341.98
2.00025e+06
107714
2.00028e+06
2.00029e+06
2.00031e+06
2.00028e+06
2.0003e+06
2.00031e+06
2.0003e+06
2.00025e+06
107759
107657
107749
2.00028e+06
107858
108690
1.9996e+06
2.00031e+06
2.00031e+06
2.0003e+06
107586
2.00031e+06
2.00031e+06
2273.43
2.00009e+06
2.00031e+06
2.0003e+06
2.00029e+06
2.0003e+06
2.0003e+06
2.0003e+06
2.00031e+06
2.00031e+06
2.00031e+06
2.00031e+06
2.0003e+06
107809
2.0003e+06
2.0003e+06
2.00031e+06
2.00031e+06
2.00029e+06
2.0003e+06
2.00031e+06
2.0003e+06
2.0003e+06
2.0003e+06
2.0003e+06
2.00031e+06
2.0003e+06
2.00031e+06
191354
264032
268330
1629.89
107591
6571.26
2.0003e+06
2.0003e+06
2.0003e+06
2.0003e+06
2e+06
2.0003e+06
2.00028e+06
2.00003e+06
2.00018e+06
2.0002e+06
2.00012e+06
2.00002e+06
2.0003e+06
1.99988e+06
2553.41
1.99993e+06
2.0003e+06
107837
2.0003e+06
2.0003e+06
2.0003e+06
2.0003e+06
2.0003e+06
2.00001e+06
2.0003e+06
2.00031e+06
2.00028e+06
2369.91
2.00004e+06
106941
106607
244780
107841
107090
106865
106569
107392
2.00029e+06
2.0003e+06
2.00031e+06
107847
2.00029e+06
2.00031e+06
2.00031e+06
1.99344e+06
2.00029e+06
2.0003e+06
2.0003e+06
930888
2450.73
2483.34
2.0003e+06
2.0003e+06
2.0003e+06
2.0003e+06
2.0003e+06
2270.83
1.99984e+06
2.0003e+06
2.0003e+06
106643
2408.93
107680
255601
2.00011e+06
2.0003e+06
2.0003e+06
2.00029e+06
2.0003e+06
2.00029e+06
2.0003e+06
2.0003e+06
2.0003e+06
2.0003e+06
2.0003e+06
1.99086e+06
2.0003e+06
2.0003e+06
2.0003e+06
2.0003e+06
2.0003e+06
2.00017e+06
218079
2.0003e+06
2.00013e+06
2.00014e+06
1.99994e+06
2e+06
2.00029e+06
2.00029e+06
2.00029e+06
2.00029e+06
2.0003e+06
2.0003e+06
2.0003e+06
2.0003e+06
2.0003e+06
2.00029e+06
2.0003e+06
108202
1.99979e+06
2.00029e+06
1.66662e+06
2.00031e+06
2.00029e+06
107853
107851
2.0003e+06
2.0003e+06
2.0003e+06
2.0003e+06
2.0003e+06
2.0003e+06
2.00031e+06
2.0003e+06
2.0003e+06
2.0003e+06
2.0003e+06
2.00018e+06
2.0003e+06
2.0003e+06
2.0003e+06
2.00029e+06
2.00029e+06
107818
4675.85
2.0003e+06
2.0003e+06
2.00029e+06
2.00028e+06
2.00031e+06
107852
2.00031e+06
2.0003e+06
2.00031e+06
107838
2.0003e+06
2.0003e+06
2.0003e+06
2.00029e+06
2.00031e+06
106966
107938
108383
106419
2.0003e+06
2.00031e+06
2.00031e+06
2.00031e+06
2.00031e+06
2.00031e+06
2.00029e+06
2.00031e+06
2.00031e+06
2.0003e+06
2.00031e+06
2.0003e+06
2.0003e+06
2.0003e+06
2.0003e+06
2.0003e+06
2.0003e+06
2.00031e+06
2.0002e+06
2.0002e+06
2.00014e+06
1.99989e+06
107833
2.00013e+06
2.00031e+06
255543
107846
235456
107846
107843
107846
2363.26
2.0003e+06
7074.08
2.0003e+06
2.0003e+06
2.00029e+06
2.0003e+06
2.0003e+06
2.0003e+06
1.99839e+06
2.0003e+06
107821
2.00027e+06
2.00029e+06
2.0003e+06
2.00028e+06
2.00024e+06
2.00026e+06
2.00031e+06
2.00031e+06
2.00028e+06
2.00031e+06
2.0003e+06
2.0003e+06
261144
107640
117113
2.0003e+06
2.0003e+06
2.0003e+06
2.0003e+06
2.0003e+06
2.0003e+06
2.0003e+06
2.00029e+06
2.00029e+06
2.00031e+06
2.00031e+06
2661.2
219078
2.0003e+06
2.0003e+06
2.0003e+06
2.0003e+06
2.0003e+06
2.0003e+06
2.0003e+06
2.0003e+06
2.0003e+06
2.00029e+06
2.0003e+06
2.0003e+06
2.0003e+06
2.0003e+06
2.0003e+06
2.0003e+06
2.0003e+06
2.0003e+06
2.00027e+06
2.0003e+06
2.00029e+06
2.0002e+06
2.0003e+06
2.00029e+06
2.0003e+06
107851
107854
2.0003e+06
2.0003e+06
234153
1.99998e+06
2.0003e+06
1.88553e+06
2.0003e+06
107790
107823
2.0003e+06
2.0003e+06
2.0003e+06
107802
2.0003e+06
2.00031e+06
2.0003e+06
2.00029e+06
2.0003e+06
2.00029e+06
2.0003e+06
2.0003e+06
2.0003e+06
2.0003e+06
2.00029e+06
2.00027e+06
2.0003e+06
2.0003e+06
2.0003e+06
2.00031e+06
2.00029e+06
2.0003e+06
2.00029e+06
2.0003e+06
2.0003e+06
2.0003e+06
2.0003e+06
2.0003e+06
2.0003e+06
2.0003e+06
2.00029e+06
2.0003e+06
3922.67
2.00017e+06
107855
292776
2.00031e+06
2.00031e+06
2.0003e+06
2.0003e+06
2.0003e+06
2.00029e+06
2.00029e+06
107861
107826
107839
2.00024e+06
107806
2.00022e+06
2.00024e+06
2.00024e+06
2.00031e+06
2.00029e+06
2.0003e+06
2.00029e+06
2.0003e+06
180344
2.0003e+06
107855
2.0003e+06
2.00031e+06
107857
2.0003e+06
2.00031e+06
2.0003e+06
2.0003e+06
2.0003e+06
2.0003e+06
2.00031e+06
2.0003e+06
2.00031e+06
2.0003e+06
2.0003e+06
2.0003e+06
2.0003e+06
2.0003e+06
2.0003e+06
2.0003e+06
2.0003e+06
2.0003e+06
2.0003e+06
2.00031e+06
2.0003e+06
2.0003e+06
2.00031e+06
2.0003e+06
2497.03
311869
2.00031e+06
2.00031e+06
2.00024e+06
2.00026e+06
2.00026e+06
2.00025e+06
2.00026e+06
2.00029e+06
2.00029e+06
2.00029e+06
2.0003e+06
2.00029e+06
107256
2.00029e+06
2.0003e+06
2.00031e+06
2.0003e+06
2.0003e+06
2.00029e+06
2.00028e+06
2.00026e+06
2.00028e+06
2.00026e+06
2.0003e+06
2.00031e+06
2.00031e+06
2.0003e+06
2.00031e+06
2.0003e+06
2.00031e+06
2.0003e+06
2.0003e+06
2.00031e+06
2.0003e+06
2.0003e+06
107832
2.0003e+06
107789
107768
2.0003e+06
2.0003e+06
2.00029e+06
2.0003e+06
2.0003e+06
1197.65
43740.3
107239
2.00029e+06
2.00029e+06
2.00029e+06
2.00029e+06
107813
1.99992e+06
2.00028e+06
2.0003e+06
107714
2.0003e+06
2.0003e+06
2.0003e+06
2.00029e+06
2.0003e+06
2.00028e+06
2.00028e+06
2.00028e+06
2631.32
2.0003e+06
2.00028e+06
2.00029e+06
2.00031e+06
2.00028e+06
2.00029e+06
2.00031e+06
2.0003e+06
107835
2.0003e+06
2.00025e+06
2.00025e+06
2.00029e+06
107825
2.0003e+06
107825
2.0003e+06
107819
107818
2.00029e+06
107612
2.0003e+06
2.00029e+06
2.0003e+06
2.00031e+06
2.0003e+06
2.00029e+06
107790
2.00029e+06
2630.68
2.00032e+06
2.00032e+06
2.00029e+06
2.00029e+06
2.0003e+06
2.00031e+06
2.0003e+06
2.0003e+06
107676
2.0003e+06
2.00026e+06
2.00028e+06
2.00031e+06
2.00025e+06
2.0003e+06
107819
2.00026e+06
2.00022e+06
2.00023e+06
2.00027e+06
2.0003e+06
2.00031e+06
2.00031e+06
2.00031e+06
2.00031e+06
2.0003e+06
2.0003e+06
2.00031e+06
2.0003e+06
2.0003e+06
2.0003e+06
2.0003e+06
2.00029e+06
107574
2.00028e+06
107634
105469
238805
107782
3080.26
107808
107696
2410.36
3569.59
2331.82
107675
2.00029e+06
2.00029e+06
2.0003e+06
2.0003e+06
2.0003e+06
2.0003e+06
2.0003e+06
106937
2.0003e+06
2.0003e+06
2.0003e+06
2.0003e+06
2.0003e+06
2.0003e+06
2.0003e+06
2.0003e+06
2.0003e+06
2.0003e+06
2.00031e+06
2.00027e+06
2.0003e+06
2.00029e+06
2.0003e+06
2.0003e+06
2.00029e+06
2.0002e+06
2.00028e+06
2.0003e+06
2.0003e+06
2.00027e+06
2294.38
2.00031e+06
2.00031e+06
2.00031e+06
2.00031e+06
107050
2.00024e+06
1.99981e+06
2.0003e+06
2.0003e+06
2.00029e+06
2.00007e+06
2.00031e+06
2.0003e+06
2.00031e+06
107702
2.00031e+06
2.00027e+06
2.00029e+06
106668
2.0003e+06
2.0003e+06
2.0003e+06
1.55742e+06
2.0003e+06
2.0003e+06
106994
1.99949e+06
2.00014e+06
2.0003e+06
2.00012e+06
1.99977e+06
2.00021e+06
241889
2.00028e+06
2.00002e+06
2.00028e+06
106806
2.00031e+06
129028
2.00028e+06
2.0003e+06
2.0003e+06
2.0003e+06
2490.99
2.00028e+06
2.00028e+06
2.00029e+06
2.00003e+06
2.00029e+06
2.00029e+06
2.00029e+06
2.0003e+06
2.0003e+06
2.0003e+06
2.00031e+06
2.00031e+06
2.00031e+06
107804
706.645
2.00031e+06
2.0003e+06
2.0003e+06
2.00031e+06
2.00032e+06
2258.9
2.00031e+06
2579.74
2.00029e+06
2.00029e+06
9196.69
2749.66
2.0003e+06
2.0003e+06
1497.24
2.00029e+06
2.0003e+06
2.00029e+06
1.99983e+06
2.0003e+06
2.00029e+06
2.00031e+06
256114
2.00029e+06
2.00029e+06
2.00029e+06
107415
2.00029e+06
2.00023e+06
2.00023e+06
107834
107843
2.0003e+06
107844
107572
2.00031e+06
242018
3109.86
2.0003e+06
2383.31
2.00031e+06
245642
106324
2389.07
2.00018e+06
107807
2.00027e+06
2.00023e+06
2.0003e+06
2.0003e+06
2.00027e+06
2.00024e+06
2.00029e+06
2.0003e+06
2.00029e+06
2.00031e+06
2258.04
2.0003e+06
2.0003e+06
2.00031e+06
2.0003e+06
2.0003e+06
2.0003e+06
2.0003e+06
2.0003e+06
2.0003e+06
2.0003e+06
2.0003e+06
2.0003e+06
2.0003e+06
2.0003e+06
2.00031e+06
2.0003e+06
2.00029e+06
2.0003e+06
2.0003e+06
2.00029e+06
2.0003e+06
2.0003e+06
2.0003e+06
2.0003e+06
2.0003e+06
2.00031e+06
2.0003e+06
107781
2.0003e+06
2.0003e+06
2.00024e+06
2.00023e+06
2.0003e+06
2.0003e+06
2.0003e+06
2.0003e+06
2.0003e+06
2.0003e+06
107315
269994
2.0003e+06
278853
2.0003e+06
2.0003e+06
2.00031e+06
2.00019e+06
2.00023e+06
107858
2.0003e+06
2.00031e+06
2.0003e+06
107843
2.00023e+06
2.00025e+06
2291.72
2.00013e+06
2.00028e+06
2.0003e+06
2.0003e+06
2.0003e+06
2.00031e+06
2.0003e+06
2.00029e+06
2.00029e+06
2.0003e+06
2.0003e+06
107800
2.0003e+06
2.0003e+06
2.0003e+06
2.0003e+06
2.00029e+06
2.00029e+06
2.00029e+06
2.00029e+06
2.0003e+06
2.00026e+06
2.0003e+06
2.0003e+06
107292
107240
107303
107081
107853
2.0003e+06
225832
2376.84
107838
2.00027e+06
2.0003e+06
2.00013e+06
2.00028e+06
2.0003e+06
2.0003e+06
2.0003e+06
2399.21
2.0003e+06
2.0003e+06
181188
2.0003e+06
2.0003e+06
2.00031e+06
2.0003e+06
2.0003e+06
2.0003e+06
2.0003e+06
2.0003e+06
2.0003e+06
2.00031e+06
2.0003e+06
2.00029e+06
231580
2.0003e+06
2.0003e+06
235413
2.0003e+06
2.0003e+06
254087
94540.9
2.0003e+06
88711.1
2.00031e+06
2.00031e+06
2.00031e+06
107741
2.0003e+06
2.0003e+06
96148
106982
218089
248705
2.0003e+06
27037.3
2.00023e+06
2712.93
1160.27
2.00027e+06
2.00027e+06
2.00026e+06
2510.53
2.00027e+06
2.00027e+06
1.99709e+06
2.00031e+06
2.0003e+06
2.0003e+06
2.00031e+06
2.00031e+06
2.00031e+06
221529
2.00031e+06
2.00031e+06
107848
95759.1
252.542
6421.84
107112
102964
2.0003e+06
107779
2.0003e+06
204326
2.0003e+06
2.00026e+06
2.00028e+06
252529
2.0003e+06
2.00031e+06
2.0003e+06
2.0003e+06
2.00028e+06
2.0003e+06
-7499.16
2.0003e+06
2.00031e+06
2.0003e+06
2362.79
207384
1343.52
2376.19
2.00032e+06
2.00031e+06
107739
2.00029e+06
107656
107812
2.00031e+06
2.0003e+06
2.0003e+06
2.00031e+06
2.0003e+06
2.0003e+06
2.0003e+06
2.0003e+06
2.0003e+06
2.0003e+06
2.0003e+06
2.00029e+06
2.0003e+06
2.0003e+06
2.0003e+06
2.0003e+06
2.0003e+06
2.0003e+06
2.00031e+06
2.00031e+06
2.00031e+06
2.00031e+06
2.00031e+06
2.00031e+06
107838
2.0003e+06
2.0003e+06
2.00029e+06
107838
2226.55
107832
2.0003e+06
2.0003e+06
2.0003e+06
2.0003e+06
2.00028e+06
2.0003e+06
2.00027e+06
2.0003e+06
2.00029e+06
2.00029e+06
2.0003e+06
2.0003e+06
3387.73
2.00031e+06
2.0003e+06
2.00031e+06
2.0003e+06
2.0003e+06
2.0003e+06
2.0003e+06
2.0003e+06
2.0003e+06
2.0003e+06
2.0003e+06
2.0003e+06
1.99506e+06
2.00024e+06
2.00025e+06
2.00029e+06
2.00029e+06
2.0003e+06
2.0003e+06
241512
2.0003e+06
2.0003e+06
2.00029e+06
152038
2.0003e+06
2.0003e+06
2.0003e+06
2.00031e+06
2.00031e+06
2.0003e+06
2322.32
1933.37
2413.82
2.00031e+06
2655.09
2.00031e+06
1977.7
107805
232188
107789
2149.47
107861
1596.23
1.99676e+06
1.99375e+06
1.99587e+06
2.0003e+06
2.0003e+06
2.00031e+06
2.00026e+06
2.0003e+06
2.0003e+06
2.00029e+06
2.0003e+06
2.0003e+06
2.00022e+06
2.00001e+06
2.0003e+06
2.0003e+06
1.9963e+06
2.0003e+06
107819
107808
107843
107837
107833
2.00029e+06
2.0003e+06
2.0003e+06
2.0003e+06
2.0003e+06
2.0003e+06
2.0003e+06
2.0003e+06
2.0003e+06
2.00025e+06
107842
203355
2.0003e+06
2413.72
2.0003e+06
2.00031e+06
2.0003e+06
2.00031e+06
2.00031e+06
2.00029e+06
2.00029e+06
2.0003e+06
2.0003e+06
2.0003e+06
2.0003e+06
2441.95
2.0003e+06
2.00029e+06
2.00027e+06
2.00027e+06
2.00031e+06
107182
107293
3947.29
2.00029e+06
2403.61
1982.2
2.0003e+06
2.0003e+06
2.00029e+06
2.0003e+06
2.0003e+06
2.0003e+06
2.0003e+06
2.00031e+06
2.0003e+06
2.0003e+06
2.00026e+06
2.00028e+06
2.00029e+06
2.00029e+06
2.0003e+06
2.00028e+06
2.00028e+06
107858
2.00028e+06
2.00029e+06
2.0003e+06
107858
2.00031e+06
2.0003e+06
2.0003e+06
107712
2.0003e+06
2.0003e+06
2.0003e+06
2.0003e+06
2.0003e+06
2.00029e+06
2.0003e+06
1.99535e+06
2.0003e+06
2.00031e+06
2.0003e+06
2.00031e+06
2.0003e+06
2.0003e+06
2.00017e+06
2.0003e+06
2.0003e+06
2.0003e+06
2.00029e+06
2.0003e+06
2.0003e+06
2.0003e+06
2.0003e+06
2.0003e+06
2.00031e+06
2.00031e+06
107723
2.00031e+06
2.0003e+06
107819
2.00018e+06
2.00019e+06
158061
107754
2.00021e+06
2.0003e+06
2.0003e+06
2.0003e+06
107696
2.0003e+06
2.0003e+06
2.0003e+06
2.0003e+06
2.0003e+06
107743
2.0003e+06
2.0003e+06
2.0003e+06
2.0003e+06
107834
2.0003e+06
2.0003e+06
2.0003e+06
2.00028e+06
2.0003e+06
107691
2.00031e+06
2.0003e+06
2.0003e+06
2.00031e+06
2.00031e+06
107725
286116
2335.44
2.0003e+06
107797
107847
2.0003e+06
2.0003e+06
2.00029e+06
2.0003e+06
2.0003e+06
2.0003e+06
2.0003e+06
2.00021e+06
2.0003e+06
2.00031e+06
2.00026e+06
2.0003e+06
2.0003e+06
2341.28
2.00021e+06
2.00028e+06
2.0003e+06
2.0003e+06
2.0002e+06
107834
2.0003e+06
2.0003e+06
2.0003e+06
2.0003e+06
2.0003e+06
3290.32
727.717
2.0003e+06
2.0003e+06
10951.6
107662
2.0003e+06
2.0003e+06
2.0003e+06
2.00029e+06
2.00028e+06
2.00029e+06
2.00029e+06
107641
2.0003e+06
2.0003e+06
2.0003e+06
2.0003e+06
2.0003e+06
2.0003e+06
2.00029e+06
2.00029e+06
2.0003e+06
2.0003e+06
2.00026e+06
1.14568e+06
2.0003e+06
2.00022e+06
2.0003e+06
2.0003e+06
2.00029e+06
2.0003e+06
246939
2.00029e+06
2.00029e+06
2.0003e+06
2.0003e+06
2.0003e+06
2.0003e+06
2.0003e+06
2.00031e+06
2.00031e+06
2.00031e+06
2.00032e+06
2.0003e+06
2.0003e+06
2.00022e+06
2.00031e+06
2.00031e+06
2.0003e+06
2.0003e+06
2.0003e+06
261254
2.00029e+06
2.00031e+06
2.00007e+06
2.0003e+06
2.0003e+06
2.0003e+06
2.00022e+06
2385.09
2.00027e+06
2.00026e+06
107764
104550
250013
107707
2344.5
295335
304057
2326.16
2.00029e+06
2380.29
3444.66
214611
2.00029e+06
2.00029e+06
2.00028e+06
2.00028e+06
2.00029e+06
2.00028e+06
2.0003e+06
2.0003e+06
2.0003e+06
2.00031e+06
2.0003e+06
2.00029e+06
2.0003e+06
106431
111786
107255
107440
2.00031e+06
2.00031e+06
2.00031e+06
2352.14
105193
107853
107860
107858
107857
245299
231701
2.0003e+06
2.0003e+06
2.00031e+06
2.00031e+06
205665
2790.85
2732.81
2347.62
3529.44
2.00029e+06
2.00031e+06
2.0003e+06
2.0003e+06
2.00029e+06
2.0003e+06
2.00028e+06
2.00029e+06
2.00027e+06
1.52297e+06
2.0003e+06
107265
2.00028e+06
107738
648593
1.99815e+06
2281.08
2344.59
2329.99
2338.52
2320.39
2284.12
2824.58
209241
201564
215344
244526
220720
103023
170592
107848
2.0003e+06
2.00029e+06
107494
107804
2407.18
107776
107841
107790
2.0003e+06
2.0003e+06
2.0003e+06
1794.78
2.00029e+06
2.0003e+06
2.00029e+06
2.00028e+06
2.00031e+06
2.00031e+06
2.00031e+06
2.0003e+06
2.0003e+06
2.0003e+06
2.00029e+06
2.00031e+06
2.00031e+06
2.0003e+06
2.0003e+06
2.0003e+06
2.0003e+06
2.0003e+06
2.0003e+06
2.0003e+06
2.00029e+06
1.3499e+06
1.99813e+06
1.99893e+06
1.99989e+06
2.00023e+06
2.00031e+06
2.00031e+06
2.0003e+06
2.00031e+06
2.00031e+06
2.00031e+06
2.00029e+06
2.0003e+06
2.0003e+06
107033
2.0003e+06
1.24843e+06
2.0003e+06
6711.31
2.0003e+06
1.85476e+06
2.0003e+06
106988
107235
2502.89
107318
2.00027e+06
2.0003e+06
107774
2.0003e+06
2.00031e+06
2.0003e+06
248318
2.0003e+06
222790
2.00029e+06
-3597.33
2.00027e+06
2.00027e+06
2.0003e+06
2.00026e+06
2.0003e+06
2809.84
2.0003e+06
108046
2.0003e+06
106326
2.0003e+06
2.00031e+06
2.0003e+06
2.0003e+06
110352
97444.9
107834
107825
107839
107837
237762
237677
2.00031e+06
2495.21
3452.67
2391.03
2.0003e+06
2.0003e+06
213270
2.00031e+06
2.00031e+06
2.00031e+06
2742.42
244423
2311.4
2396.22
2.00029e+06
2.00029e+06
2.00029e+06
2.0003e+06
2.00029e+06
2417.13
2.00006e+06
1.99936e+06
1.99928e+06
1.99938e+06
1.99902e+06
2.00031e+06
2.00031e+06
2.00031e+06
2.00017e+06
2.00026e+06
2.00025e+06
2.00031e+06
2.00031e+06
2.00031e+06
2.00031e+06
2.00031e+06
2.0003e+06
2.0003e+06
2.0003e+06
2.0003e+06
2.0003e+06
2.0003e+06
2.0003e+06
2.0003e+06
2.0003e+06
2.0003e+06
2.0003e+06
2597.53
2.00024e+06
2.0003e+06
2.00027e+06
2.0003e+06
2.00016e+06
2.00012e+06
1.99986e+06
2.0003e+06
8281.64
2.00029e+06
370.334
5068.5
2.00031e+06
2.00029e+06
2.0003e+06
2528
2.0003e+06
2.00029e+06
2367.39
2.0003e+06
2898.28
2.00011e+06
2106.72
2303.38
143738
153054
161828
2.00027e+06
2.0003e+06
2.0003e+06
2.0003e+06
2.0003e+06
107798
107802
107803
2.0003e+06
1095.58
106024
2.00029e+06
2.0003e+06
2.0003e+06
2.0003e+06
2.0003e+06
2.0003e+06
2.0003e+06
2.00031e+06
2.0003e+06
2.0003e+06
2.00029e+06
2.0003e+06
2.0003e+06
2.0003e+06
2.0003e+06
2.00029e+06
2.00029e+06
2.00029e+06
2.00031e+06
2.00029e+06
1.99992e+06
2.00028e+06
2.00031e+06
2.0003e+06
2.00031e+06
2.00031e+06
2.0003e+06
2.0003e+06
2399.9
2.00026e+06
2.0003e+06
2282.4
1.99997e+06
2.00027e+06
2068.34
2.00018e+06
1.99988e+06
2.00026e+06
1.90526e+06
2.00026e+06
2690.46
107823
107877
2.00029e+06
2.0003e+06
2.0003e+06
2.0003e+06
2.0003e+06
107822
107830
2.00027e+06
2.00031e+06
107752
2.0003e+06
107788
107731
2.00031e+06
107821
2.0003e+06
2.0003e+06
2.00022e+06
2.00029e+06
2.0003e+06
2.0003e+06
2.0003e+06
2.00022e+06
2.00014e+06
2.00029e+06
2.0003e+06
2.0003e+06
2.0003e+06
2.0003e+06
2.0003e+06
2.0003e+06
2.0003e+06
2.00029e+06
2.00029e+06
2.00031e+06
2.00031e+06
2.0003e+06
2.0003e+06
2.0003e+06
2.00025e+06
2.00024e+06
2.00015e+06
2.00026e+06
2.00023e+06
2.00029e+06
2.00029e+06
2.00027e+06
2.00024e+06
2.00029e+06
2.00029e+06
2.00031e+06
2.0003e+06
2.00031e+06
2.00031e+06
2.00031e+06
2.0003e+06
2.00031e+06
2.0003e+06
2.0003e+06
2.0003e+06
2.0003e+06
2.0003e+06
2.0003e+06
2.00016e+06
2.00011e+06
2.00009e+06
2.0003e+06
2.00017e+06
2.00012e+06
221009
2.0003e+06
2.0003e+06
2.0003e+06
2.0003e+06
255338
2.00029e+06
236038
214741
2.00029e+06
2.0003e+06
191799
2.00028e+06
149017
201691
2.0003e+06
2.00025e+06
263646
2372.29
107826
107842
107825
107832
2.0003e+06
2.0003e+06
2.0003e+06
1.99993e+06
2.00026e+06
1.98136e+06
2.0003e+06
2.0003e+06
2.0003e+06
2.0003e+06
2.00029e+06
2.00028e+06
2.00028e+06
2.00027e+06
2.00026e+06
2.00027e+06
2.0003e+06
2.00031e+06
104065
2.00025e+06
2.00026e+06
2.0003e+06
2.00002e+06
2.0003e+06
2.00029e+06
2.0003e+06
2.00029e+06
2.0003e+06
2.0003e+06
2.0003e+06
2.0003e+06
107746
107682
107581
232107
107627
2373.25
1688.65
2317.31
1.79219e+06
1.99802e+06
4396.44
107858
107857
1.99401e+06
2.00031e+06
2.0003e+06
2.00031e+06
2.00026e+06
2.00024e+06
2.0003e+06
2.0003e+06
2.0003e+06
2.00031e+06
2.0003e+06
2.00031e+06
2.0003e+06
2.0003e+06
2.0003e+06
2.0003e+06
2.0003e+06
2.0003e+06
2.0003e+06
2.00016e+06
2.0003e+06
2e+06
2.0003e+06
2.0003e+06
2.0003e+06
2.0003e+06
2.0003e+06
2.00019e+06
1.99012e+06
2.00027e+06
1.99852e+06
2.0003e+06
2.0003e+06
2.0003e+06
2.0003e+06
2.0003e+06
2.0003e+06
2.0003e+06
2.0003e+06
2.00031e+06
2.0003e+06
2.00031e+06
2.0003e+06
2918.23
2.00031e+06
2.0003e+06
2.00029e+06
2.0003e+06
2.0003e+06
2.0003e+06
2.0003e+06
2.00031e+06
2.00031e+06
2.00031e+06
191190
2.00031e+06
2.00029e+06
2.0003e+06
2.0003e+06
2.00031e+06
2.00031e+06
2.00031e+06
2.00031e+06
2.00031e+06
107814
102885
2.0003e+06
2.0003e+06
2.0003e+06
2.0003e+06
2.00027e+06
34.8523
2.0003e+06
2.0003e+06
2.0003e+06
2.0003e+06
2.00029e+06
2.0003e+06
2.00031e+06
2.00031e+06
2.0003e+06
2.0003e+06
2.00027e+06
107559
107693
107722
1.99418e+06
1.98885e+06
2.0003e+06
2.00015e+06
1.99756e+06
2340.93
3429.99
2.00031e+06
233038
244455
107844
107847
2.00031e+06
107851
107846
107307
107783
107844
107487
107658
252526
2.0003e+06
247720
107517
2.0003e+06
2.0003e+06
2.0003e+06
2711.39
2.0003e+06
2.0003e+06
2.0003e+06
2370.64
2323.94
2.00002e+06
2162.95
2180.56
221006
2.0003e+06
107758
107834
107531
2.0003e+06
2.00029e+06
2.0003e+06
107846
104174
2.0003e+06
2.00031e+06
2.00031e+06
2.00031e+06
2.0003e+06
2.0003e+06
2.0003e+06
2.0003e+06
2.0003e+06
2.0003e+06
2.00031e+06
2.0003e+06
2.00029e+06
2.00027e+06
2.00018e+06
2.00029e+06
2.00029e+06
2.00028e+06
2.00031e+06
2.00029e+06
2.00031e+06
248371
2.00031e+06
107862
2.00031e+06
107848
2.00031e+06
107863
107862
107862
2.00031e+06
2.0003e+06
2.0003e+06
2.00031e+06
2.00031e+06
2.00031e+06
2.0003e+06
2.00031e+06
2.0003e+06
2.00031e+06
2.00032e+06
2.00032e+06
2.0003e+06
2.0003e+06
2.0003e+06
2.0003e+06
2.0003e+06
2.00029e+06
2.00029e+06
2.0003e+06
2.00029e+06
2.0003e+06
2.0003e+06
2.0003e+06
2.00025e+06
2.00023e+06
2.00013e+06
2.0003e+06
2.0003e+06
2.00031e+06
2.00031e+06
2.0003e+06
107832
2.00027e+06
2.00032e+06
2.00024e+06
1.99991e+06
2.00025e+06
2.00023e+06
2.0003e+06
2.0003e+06
2.0003e+06
2.0003e+06
2.0003e+06
2.0003e+06
2.00023e+06
2.0003e+06
2.0003e+06
2.0003e+06
2.00024e+06
2.00025e+06
107861
107856
107826
107857
107854
107821
2.0003e+06
2.0003e+06
107554
212277
-17090.7
89336.4
2.0003e+06
2.00031e+06
2.00031e+06
2.00031e+06
2.00031e+06
2.00016e+06
2.0003e+06
2.0003e+06
2.0003e+06
2.0003e+06
2.0003e+06
2.0003e+06
2.00031e+06
2.00031e+06
2.0003e+06
1.99068e+06
1.99856e+06
1.99896e+06
1.9881e+06
2428.16
1.99933e+06
1797.39
2.00016e+06
1.9983e+06
2.00029e+06
2.00029e+06
2.0003e+06
2.00026e+06
2.00031e+06
2.00029e+06
2.00031e+06
2.00011e+06
2.00031e+06
2.00031e+06
2.00025e+06
2.00031e+06
2.00031e+06
2.00029e+06
2.0003e+06
2.0003e+06
2.0003e+06
2.0003e+06
2.0003e+06
2.00031e+06
2.00031e+06
2.0003e+06
2.0003e+06
2.0003e+06
2.0003e+06
2.0003e+06
2.0003e+06
2.00029e+06
2.0003e+06
2.0003e+06
2.0003e+06
2.00027e+06
2.0003e+06
2.0003e+06
2.0003e+06
2.00031e+06
2.00023e+06
2.00018e+06
2.00031e+06
2.00027e+06
2.00031e+06
107300
2.0003e+06
107846
2.0003e+06
2.00028e+06
2.0003e+06
2.0003e+06
2.00029e+06
2.0003e+06
2.00025e+06
2.00029e+06
2.00028e+06
2.0003e+06
2.0003e+06
2.00032e+06
2.00029e+06
2.0003e+06
2.0003e+06
2.0003e+06
2.0003e+06
2.0003e+06
2.00029e+06
2.00013e+06
107864
2.00029e+06
2.0003e+06
2.00029e+06
2.0003e+06
2.0003e+06
2.0003e+06
2.00029e+06
2.0003e+06
159925
107768
2.0003e+06
2.0003e+06
2.0003e+06
2.0003e+06
2.0003e+06
2.0003e+06
2.00009e+06
2.00017e+06
2.0003e+06
2.0003e+06
107858
107853
2.00026e+06
2.0003e+06
2.0003e+06
2.0003e+06
2.0003e+06
2.0003e+06
2.00024e+06
2.0003e+06
2.00028e+06
2.00027e+06
2.0003e+06
2.00028e+06
2.0003e+06
2.00028e+06
7168.9
2.00031e+06
2.00031e+06
2.00032e+06
2.00031e+06
2.00031e+06
2.0003e+06
2.0003e+06
2.0003e+06
2.0003e+06
2.0003e+06
2.0003e+06
2.0003e+06
2.0003e+06
2.0003e+06
2.00029e+06
2.00025e+06
2.00027e+06
2.0003e+06
2.0003e+06
2.00029e+06
2.0003e+06
2.00024e+06
2.00008e+06
2.00027e+06
2.00025e+06
-881.892
2321.81
2.0003e+06
2.00029e+06
2.00029e+06
107852
2.00029e+06
2.0003e+06
2.0003e+06
2.0003e+06
2.00029e+06
2.00029e+06
2.0003e+06
2.0003e+06
2.0003e+06
2.0003e+06
2.0003e+06
2.0003e+06
2.0003e+06
2.0003e+06
2.00025e+06
2.00021e+06
2.0003e+06
2.00027e+06
2.00027e+06
2.00026e+06
2.00025e+06
2.00026e+06
2.0003e+06
2.0003e+06
2.0003e+06
2.0003e+06
2.0003e+06
2.0003e+06
2.0003e+06
2.00029e+06
2.00031e+06
2.00031e+06
2.00031e+06
2.0003e+06
2.00023e+06
2.00013e+06
2.00024e+06
2.00019e+06
2.00011e+06
2.00021e+06
2.0003e+06
2.0003e+06
2.00029e+06
2.0003e+06
2.00022e+06
2.0003e+06
2.0003e+06
2.0003e+06
2.0003e+06
2.00029e+06
2.00029e+06
2.0003e+06
2.0003e+06
2.0003e+06
2.0003e+06
2.0003e+06
2.0003e+06
2.00029e+06
2.00029e+06
2.0003e+06
2.0003e+06
2.0003e+06
107844
2.00025e+06
1.99447e+06
2.00011e+06
2.00011e+06
1.99968e+06
2.0003e+06
1.99989e+06
2273.56
1705.41
2.0003e+06
2361.07
107850
2.0003e+06
2.0003e+06
2.00029e+06
2.00029e+06
2.0003e+06
2.0003e+06
2.0003e+06
2.00031e+06
2.00031e+06
2.00031e+06
1.99992e+06
2.0003e+06
2.0003e+06
2.0003e+06
2.0003e+06
2.0003e+06
2.0003e+06
2.0003e+06
2.0003e+06
1.99894e+06
2.0003e+06
2.0003e+06
2.0003e+06
230118
107861
2.00029e+06
2.00028e+06
2.00029e+06
2.00029e+06
2.00029e+06
2.00029e+06
2.00029e+06
2.00029e+06
2.00027e+06
2.00031e+06
2.00031e+06
2.00031e+06
107512
96268.7
2.00031e+06
2.0003e+06
2.00029e+06
2.00031e+06
2.0003e+06
2.0003e+06
2.0003e+06
2.0003e+06
2.00029e+06
2.0003e+06
2.0003e+06
2.0003e+06
2.0003e+06
2.0003e+06
2.00031e+06
2.00031e+06
2.0003e+06
2.0003e+06
2.0003e+06
2.0003e+06
2.00031e+06
2.0003e+06
2.0003e+06
2.0003e+06
2.00031e+06
2.0003e+06
2.0003e+06
107865
109532
106994
107017
2.0003e+06
2.0003e+06
2.0003e+06
2.0003e+06
2.00027e+06
2.0003e+06
2.0003e+06
2.0003e+06
2.0003e+06
2.00031e+06
2.00031e+06
2.0003e+06
2.0003e+06
2.00029e+06
2.0003e+06
2.00029e+06
2.0003e+06
2.00029e+06
2.0003e+06
2.0003e+06
2.0003e+06
107789
2.0003e+06
2.0003e+06
2.0003e+06
2.00031e+06
2.00031e+06
2.0003e+06
2.0003e+06
2.0003e+06
2.0003e+06
2.0003e+06
2.0003e+06
2.0003e+06
2.0003e+06
2.0003e+06
2.0003e+06
2.0003e+06
107865
2.0003e+06
107847
107850
107851
2.0003e+06
107841
106533
107854
2.0003e+06
2.00025e+06
2.0003e+06
2.0003e+06
2.0003e+06
2.00031e+06
2.00025e+06
250592
296635
2.00013e+06
2.00029e+06
2.00027e+06
2342.88
2408.08
2227.76
2.0003e+06
2.0003e+06
2.0003e+06
48988.3
107846
107803
2297.84
239694
2.00019e+06
2.00016e+06
2.00019e+06
2.00019e+06
2.00016e+06
2.00032e+06
2.00031e+06
2.00028e+06
2.00031e+06
2.00029e+06
2.0003e+06
2.00031e+06
2.00031e+06
2.0003e+06
2.0003e+06
2.0003e+06
2.00031e+06
2.00031e+06
2.0003e+06
105471
107686
2.00025e+06
2.00029e+06
2.0003e+06
2.0003e+06
2.0003e+06
2.00028e+06
2.0003e+06
107831
107832
107832
2.0003e+06
107833
2.0003e+06
2.00031e+06
2.0003e+06
2.00028e+06
2.0003e+06
2.00031e+06
2.0002e+06
1.9999e+06
257116
264111
2.0003e+06
2.0003e+06
2.0003e+06
2.0003e+06
2.0003e+06
289554
2.00031e+06
2.00028e+06
1883.13
5933.55
2801.62
2.00028e+06
2.00028e+06
2710.67
2341.02
1.99963e+06
1.99987e+06
2.0003e+06
2.00031e+06
2.0003e+06
2.0003e+06
2.00029e+06
2.0003e+06
2.0003e+06
2.0003e+06
2.0003e+06
2.00031e+06
2.00027e+06
129009
2.00031e+06
216667
158384
2.0003e+06
2.0003e+06
2.00031e+06
2.00031e+06
230720
2.00029e+06
2.00029e+06
2.00028e+06
2.00029e+06
2.00029e+06
2.0003e+06
2.00029e+06
2.00028e+06
2.0003e+06
2.0003e+06
2.0003e+06
122939
2.00027e+06
2.00027e+06
2.0003e+06
2.0003e+06
2.0003e+06
2.0003e+06
2.0003e+06
2.0003e+06
2.0003e+06
2282.01
1682.45
1136.22
2355.13
249626
2.0003e+06
236157
2.0003e+06
2.00031e+06
2.00031e+06
2.00031e+06
4364.89
2.00031e+06
2.0003e+06
297038
219004
260031
2.0003e+06
2.0003e+06
2.0003e+06
2.0003e+06
2.00029e+06
2.0003e+06
3165.06
2707.16
2450.71
2.00007e+06
1228.96
2.0003e+06
2.0003e+06
2.00008e+06
1743.04
2.0003e+06
1.99984e+06
1.99947e+06
2.0003e+06
1.99942e+06
2.00002e+06
2.0003e+06
2369.4
2.0003e+06
2.0003e+06
1.99983e+06
1.99991e+06
2.0003e+06
1965.39
2.0003e+06
2.00023e+06
2.00029e+06
2.00029e+06
2.00024e+06
2.0003e+06
2.00031e+06
2.0003e+06
2.00031e+06
2.0003e+06
2.0003e+06
2.00031e+06
70107.9
2.00031e+06
2.00031e+06
2.0003e+06
107204
106757
107288
2.0003e+06
106398
2.00031e+06
2.00029e+06
2.0003e+06
2.00029e+06
2.0003e+06
2.00031e+06
2.00028e+06
2.00031e+06
2.00031e+06
2.0003e+06
2.0003e+06
2.00032e+06
2482.99
2347.66
107779
2.0003e+06
2.0003e+06
2.0003e+06
2.0003e+06
2581.52
107781
2.00029e+06
2.0003e+06
107862
2.0003e+06
2718.02
2.0003e+06
2.0003e+06
2.0003e+06
2.0003e+06
107862
2.0003e+06
2.0003e+06
2.00027e+06
256356
263634
2.00031e+06
149390
2.0003e+06
2.0003e+06
2.0003e+06
5445.26
2.0003e+06
2.0003e+06
2.0003e+06
2.0003e+06
2.0003e+06
2.0003e+06
2.00029e+06
2.00029e+06
250364
4049.64
2425.17
208069
241922
2.0003e+06
2.0003e+06
2.0003e+06
2.00029e+06
2.0003e+06
2.0003e+06
2.0003e+06
2.0003e+06
2.00031e+06
2.0003e+06
2.00031e+06
2.00031e+06
2.0003e+06
2.0003e+06
2.0003e+06
2.0003e+06
2.0003e+06
2.0003e+06
2.0003e+06
2.00024e+06
2.00024e+06
2.00024e+06
232997
2.00025e+06
2.0003e+06
2.0003e+06
2336.51
234363
235017
2.0003e+06
2.0003e+06
219283
291808
2.0003e+06
272570
109365
2397.15
2.00005e+06
2.00029e+06
2431.07
2.0003e+06
2.0003e+06
5478.8
2520.81
2.00029e+06
2277.45
2.0003e+06
2257.42
70901.7
2.0003e+06
2.0003e+06
2.0003e+06
2.0003e+06
2.00028e+06
2.00031e+06
2.00029e+06
2.00029e+06
2.0003e+06
2.0003e+06
2.00031e+06
2.0003e+06
2.00031e+06
2.00031e+06
2.0003e+06
2.00031e+06
2.00031e+06
2.00031e+06
104655
2.00031e+06
2.00031e+06
2.00031e+06
2.00031e+06
2393.32
108375
108376
109503
2.00029e+06
2.0003e+06
2.0003e+06
2.00029e+06
2.0003e+06
2.0003e+06
157126
156492
107855
2.0003e+06
2.0003e+06
97979.6
194257
2.0003e+06
2.00029e+06
2.00027e+06
2.0003e+06
2.00031e+06
2.00031e+06
2.00031e+06
2.00031e+06
107851
107858
2.0003e+06
107856
2.0003e+06
2.0003e+06
2.0003e+06
2.00029e+06
2.0003e+06
2.0003e+06
2.00029e+06
2.0003e+06
2.00029e+06
2.0003e+06
2.0003e+06
2.00029e+06
2.0003e+06
2.0003e+06
2.0003e+06
1.9951e+06
2.0003e+06
1.99868e+06
1.99954e+06
2.0003e+06
2.00029e+06
2.0003e+06
2.0003e+06
2.0003e+06
2.0003e+06
2.0003e+06
2.00029e+06
2.0003e+06
2.0003e+06
2.0003e+06
2.0003e+06
2.0003e+06
2.0003e+06
2.0003e+06
2.0003e+06
107842
2.0003e+06
2.0003e+06
2.0003e+06
2.0003e+06
2.0003e+06
2.00029e+06
2.0003e+06
2.0003e+06
2.00029e+06
225907
2.00028e+06
2.00004e+06
1793.26
2.00029e+06
2379.12
2.00028e+06
2.00031e+06
2.0003e+06
2.0003e+06
2.0003e+06
2.00031e+06
2.0003e+06
2.0003e+06
2.0003e+06
2.0003e+06
2.0003e+06
2.0003e+06
2.00029e+06
2.0003e+06
2.0003e+06
2.0003e+06
2.0003e+06
2.0003e+06
-16008.2
2.0003e+06
2.00028e+06
2.00029e+06
2.0003e+06
2.00029e+06
2.00031e+06
2.00032e+06
1.99881e+06
1.99927e+06
2.0003e+06
2.00029e+06
2.00027e+06
2.00031e+06
2.00031e+06
2.00031e+06
2.0003e+06
107821
107842
107817
107837
235419
3284.09
107854
2407.66
2.0003e+06
2704.05
2.0003e+06
107853
107854
2.00028e+06
2.0003e+06
2.00028e+06
2.0003e+06
2.0003e+06
2.0003e+06
1.99898e+06
1.9994e+06
2.00029e+06
1057.99
2.00029e+06
2522.68
2.0003e+06
2.0003e+06
2.0003e+06
103280
2.0003e+06
107769
2.0003e+06
107754
107863
2.0003e+06
2.00028e+06
97433.3
107683
107800
107844
214116
2387.94
2936.66
4481.22
2.00028e+06
1.99513e+06
1.99971e+06
1.99305e+06
1.98857e+06
1.98273e+06
1.99502e+06
2.00029e+06
2.00029e+06
3267.04
195742
2610.31
107802
2.0003e+06
2064.02
2.0003e+06
291366
2.00029e+06
1.99948e+06