/*--------------------------------*- C++ -*----------------------------------*\
| =========                 |                                                 |
| \\      /  F ield         | OpenFOAM: The Open Source CFD Toolbox           |
|  \\    /   O peration     | Version:  v2006                                 |
|   \\  /    A nd           | Website:  www.openfoam.com                      |
|    \\/     M anipulation  |                                                 |
\*---------------------------------------------------------------------------*/
FoamFile
{
    version     2.0;
    format      ascii;
    class       volVectorField;
    location    "0.01";
    object      U;
}
// * * * * * * * * * * * * * * * * * * * * * * * * * * * * * * * * * * * * * //

dimensions      [0 1 -1 0 0 0 0];


internalField   nonuniform List<vector> 
3575
(
(-0.00420858 -0.000253874 -0.158877)
(0.00278301 0.000177164 -0.180983)
(-2.65045 -0.60801 -63.4388)
(-0.000819766 -5.0129e-05 -0.158014)
(-0.00496303 0.0012591 -0.154025)
(0.000153066 -0.000914118 -0.0384113)
(0.00190809 -0.00190702 -0.0146437)
(-0.00167044 -0.00123658 -0.0126251)
(-0.364426 -0.00780731 -0.903164)
(-0.000417021 0.000142923 -0.00189991)
(-0.00100515 4.50607e-05 -0.00955295)
(-0.00340124 0.00713109 -0.0815852)
(-0.0661512 -0.00345274 -0.447249)
(-0.000171867 1.68718e-05 -0.00305829)
(-0.00135268 -0.000117054 -0.0039962)
(-0.0153629 0.000181591 -0.00182843)
(-0.0130652 0.000580573 -0.00111106)
(-0.0271376 -0.00212318 -0.00482405)
(-0.024748 -0.00285526 -0.00388096)
(-0.46018 -0.00955474 -0.179981)
(-0.373234 -0.0228874 -0.0961757)
(-0.000303925 -0.00016066 -0.00474341)
(-4.69425e-05 0.000173972 -0.000801395)
(-0.0168883 0.000195747 -0.0184376)
(0.263199 0.0431166 -48.0614)
(0.00383279 7.05084e-05 -0.113677)
(-0.000879969 -0.000700089 -0.124013)
(-0.00216269 0.000105658 -0.12167)
(-0.00133746 0.000605419 -0.111091)
(-0.00193734 -0.00239849 -0.0158082)
(-0.00280301 -0.00227008 -0.0909628)
(-0.0035931 -0.000530937 -0.0161685)
(-9.89732e-05 -1.00181e-05 -0.180459)
(0.0023812 -7.11131e-05 -0.171074)
(-0.00100208 0.00139097 -0.0219158)
(-0.200404 -0.00495495 -0.0148488)
(-0.0932346 -2.4192e-05 -0.0175065)
(-0.253678 -0.00703508 -0.0289206)
(-0.194541 -0.00818972 -34.4104)
(0.218959 0.120842 -31.7927)
(-0.00115866 -0.00175412 -0.107523)
(0.287491 -0.0659461 -61.7193)
(-0.0233866 -0.000347807 -0.161644)
(0.573935 0.287784 -37.333)
(-0.00367323 0.00120507 -0.0716697)
(-0.000251009 -0.000152691 -0.0115203)
(-0.118872 -0.0118341 0.00960114)
(-0.0350628 -0.00127603 -0.0458027)
(-0.00571696 -0.000257838 -0.160543)
(0.990159 0.0228689 -41.3394)
(-0.156003 -0.00305253 0.0161915)
(-0.298584 -0.0205056 0.0685692)
(-0.0204699 -0.00143984 -0.200837)
(-0.144827 -0.00716212 0.0150617)
(-0.0542136 -0.00380702 -0.312401)
(-0.0130572 0.000638504 -0.0734718)
(-0.215784 -0.0147379 -0.110443)
(-0.00743397 -0.000350683 -0.182181)
(-0.105235 -0.0062377 -0.408556)
(-3.75203 -0.130383 -6.8595)
(-0.776326 0.0272824 -57.6431)
(-0.0972749 -0.00332641 -0.412667)
(-0.566701 -0.0355996 0.300201)
(-0.0385273 -0.000531171 -0.24241)
(-0.0395263 -0.00178978 -0.24199)
(0.0124498 0.000541977 -0.174681)
(-0.0425433 -0.00302863 -0.24856)
(-0.00246171 0.00010977 -0.000685796)
(0.00140361 6.90452e-05 -0.106721)
(-0.00567186 -0.000275669 -0.015361)
(-0.0865579 -0.00638693 -0.40595)
(-0.164078 -0.00604402 0.00602762)
(-0.465921 0.00154268 0.0478015)
(-0.602138 -0.0240805 0.165724)
(-0.0396859 -0.00241682 -0.262334)
(-0.0318894 -0.00221952 0.00510302)
(0.302194 -0.0234657 -34.0906)
(-0.983171 -0.0172355 -2.04834)
(-0.0015512 -0.00121582 -0.0118539)
(-0.0027238 -5.10493e-05 -0.163583)
(-0.00071018 0.00058921 -0.018011)
(-0.817955 -0.0313596 0.0974949)
(-0.00300303 -8.28991e-05 -0.163538)
(-0.00238188 -0.000104799 -0.164814)
(0.360515 0.0255783 -56.2649)
(-0.626601 -0.0143714 -0.502895)
(-0.00271795 -0.000100849 -0.164735)
(-0.00283928 0.00348632 -0.0761116)
(-0.0794862 -0.0013935 -0.0855068)
(-0.00462902 -0.00198368 -0.0949096)
(-0.00536412 -0.000212965 -0.138043)
(-0.00491716 -0.00152024 -0.0947368)
(0.00418959 0.000262033 -0.178551)
(0.00445522 0.000128699 -0.177258)
(0.00320444 0.000157733 -0.173476)
(-0.00273254 0.00168679 -0.111921)
(-8.50281e-05 4.3675e-06 -0.0098564)
(-0.263986 -0.0117435 0.123118)
(-0.040396 -0.000730096 -0.0929066)
(-0.00556316 0.0017304 -0.0693434)
(0.0101228 0.000308809 -0.162334)
(0.011192 0.000791357 -0.175957)
(-0.00430854 0.00298458 -0.0713427)
(-0.000128872 0.000432447 -0.0389062)
(-0.0014083 0.00416889 -0.0621361)
(0.00312063 0.00336494 -0.0622724)
(0.00244546 0.00179926 -0.0165864)
(-0.00216719 -0.0022612 -0.0149245)
(0.000327616 0.00240175 -0.0598839)
(0.008305 0.000574944 -0.173882)
(-0.0018099 0.00214603 -0.0661491)
(-0.00199509 0.00199712 -0.0628558)
(0.0497639 0.00523901 -43.3227)
(-1.97098 0.0642485 -35.4308)
(-3.48545 -0.37925 -32.7736)
(0.161574 0.180198 -32.6484)
(-0.544126 -0.0256962 0.648233)
(-0.289701 -0.0241075 -37.8185)
(-0.00730299 0.000869112 -0.00920815)
(-0.0105418 -0.000210408 -0.0528986)
(-0.000573036 -0.00141743 -0.0822362)
(-0.0044705 -1.10088e-05 -0.00448596)
(-0.775068 -0.0174899 -0.317748)
(-0.00086533 0.000751505 -0.0116061)
(-0.0867309 -0.00579672 -0.00784868)
(-0.690459 -0.0455545 -0.302736)
(-0.203746 -0.0149764 -0.0247376)
(-0.275171 -0.0245205 -0.0388945)
(-0.181382 -0.00211281 -0.032636)
(-0.726002 -0.0478955 -0.405313)
(-0.000182461 -0.00254582 -0.0273255)
(-0.832621 -0.0197599 -0.477336)
(0.784915 -0.190851 -60.4778)
(-0.787517 -0.0506605 -0.508995)
(-0.0245719 0.00012932 -0.0417941)
(-0.148987 -0.00843203 0.0191319)
(-0.0300346 -0.00272653 -0.0400256)
(-0.0141272 0.0012199 -0.0349195)
(-0.0407356 -0.000764094 -0.101041)
(-0.0106043 0.000191491 -0.0287063)
(-0.00693397 0.000128381 -0.00696198)
(-0.773823 -0.011884 -0.350132)
(0.000137194 -1.02835e-05 -8.655e-05)
(-0.00780936 0.00178973 -0.128655)
(-0.189383 -0.0133254 -0.16679)
(0.847673 0.0486829 -70.7479)
(-0.694041 -0.0312954 -0.348475)
(-1.56117 -0.0619895 0.151197)
(-1.88814 -0.041905 0.249256)
(0.0558955 -0.0173106 -49.2935)
(-0.183303 -0.00283744 0.0367122)
(-2.14899 -0.17675 0.698187)
(-1.57855 -0.105401 0.400846)
(-2.66672 -0.128758 0.517298)
(-1.06832 -0.0511058 0.0813327)
(-0.00687742 -0.000469706 -0.150671)
(-0.00238275 -0.00215376 -0.0893132)
(-0.000215512 -0.00241777 -0.0856734)
(-0.0995881 -0.00708301 0.0150124)
(-0.048047 -0.00160536 -0.174135)
(0.00227494 -0.00168586 -0.0145471)
(-0.00436797 -0.000281177 -0.15608)
(-4.08383 -0.117725 -4.09294)
(-0.0848934 -0.00168766 -0.0388115)
(-0.000932424 -9.69857e-05 -0.000412733)
(0.000358222 0.000978527 -0.104713)
(-27.8556 -2.13357 -45.9427)
(-0.791811 -0.475384 -56.3235)
(0.818588 -0.172661 -55.2884)
(0.00118283 0.00270676 -0.0915187)
(-0.000285515 0.000622752 -0.0194888)
(-0.0177699 -0.0012509 -0.152484)
(-0.0274163 -0.00177789 -0.0143834)
(-0.00276956 -0.00172179 -0.0883289)
(0.110621 -0.0670685 -62.1662)
(-0.884287 -0.0591753 -1.14655)
(-0.00910011 -0.000859862 -0.00717916)
(0.00020893 -0.000426451 -0.0705758)
(-0.953359 -0.0414958 0.883381)
(1.18601 0.0648931 -71.0051)
(-0.306397 -0.00128216 0.00245927)
(0.660486 0.023123 -51.181)
(-0.395655 -0.0264416 -1.04581)
(-0.000255136 -0.00272612 -0.110175)
(-0.00278939 -0.00185142 -0.108289)
(-0.0772921 -0.00501811 -0.0145464)
(-0.000361876 -0.000237711 -0.000507658)
(-0.131259 -0.0052588 -0.0714366)
(-0.00197391 -0.000958749 -0.136737)
(0.00408296 0.00025442 -0.176402)
(-0.0436442 -0.00356171 -0.0180087)
(-0.00342583 -0.000250582 -0.176293)
(-0.011947 0.000881155 -0.0159536)
(-4.49719 -0.185194 -3.74355)
(-0.00634626 -0.000465631 -0.178239)
(-0.00169821 0.00209505 -0.0114433)
(0.000506393 0.00222041 -0.0439807)
(-0.00584215 0.00205219 -0.114779)
(-0.00492658 0.00201472 -0.116685)
(-0.116732 -0.00742724 -0.592576)
(-0.0235892 -0.0834871 -42.9371)
(-0.0794608 -0.00593902 -0.0246319)
(-0.161196 -0.00817225 -0.669284)
(-0.1283 -0.00426175 -0.645235)
(-0.167022 -0.0120778 -1.46383)
(0.150561 0.00104859 -0.610795)
(-0.0643351 -0.00338788 -0.0105601)
(-0.0760306 -0.00243569 -0.0155678)
(-0.0950696 -0.0067907 -0.0279119)
(-0.0863898 -0.00384198 -0.0208916)
(-0.00400099 -0.00272767 -0.0591455)
(0.00276574 0.00375558 -0.0581413)
(-0.0027494 0.00739241 -0.0607477)
(0.0013608 -0.000515883 -0.0187442)
(-7.15325e-05 -7.83287e-05 -0.0106743)
(-0.0975609 -0.00177186 -0.0249604)
(-0.0131919 0.00251729 -0.0202137)
(0.179064 0.0110766 -45.4861)
(-0.977871 -0.028803 -0.667107)
(-0.0450341 -0.00199849 -0.162974)
(-11.1373 -0.475433 -13.8101)
(-0.00441142 -0.000293104 -0.163908)
(-0.0050633 0.00333689 -0.0654779)
(-0.0864937 -0.00548251 0.0118147)
(-0.118388 -0.00767866 0.0251858)
(-0.00757819 -0.000160756 -0.185857)
(-0.00181245 -4.71704e-05 -0.172679)
(0.00125193 7.93942e-05 -0.167549)
(-0.000389794 -0.000143864 -0.153354)
(-0.00556942 0.00253354 -0.0637352)
(-0.0132101 -0.00079831 -0.148696)
(-0.00144491 -1.4656e-06 -0.159653)
(-0.00935519 -9.32434e-05 -0.000764476)
(-0.00711943 -0.00123564 -0.130487)
(-0.00827019 0.000529913 -0.0120785)
(-0.00365243 -0.000512074 -0.00772724)
(-0.0539312 -0.00229807 -0.39277)
(-0.00533442 -0.00206162 -0.0919285)
(-0.00447836 -0.00271089 -0.0928328)
(-0.0333757 -0.002602 -0.15108)
(-0.113516 -0.00770937 -0.046724)
(-0.126027 -0.00196417 -0.0624247)
(-0.236122 -0.00907444 0.109)
(0.347935 0.190251 -61.8748)
(-0.00403164 1.66078e-05 -0.158334)
(-0.00489112 0.000126885 -0.00689857)
(0.000559415 -0.00317729 -0.0503083)
(-0.134868 -0.00739894 -0.28563)
(-0.00318497 0.00423522 -0.0946986)
(-0.0674653 -0.00217415 0.00556181)
(-0.00295984 -0.00268269 -0.114438)
(0.00196707 0.00165864 -0.0172251)
(-0.0032795 0.000703859 -0.030311)
(-0.178751 -0.0122951 0.0849351)
(-0.0355024 -0.00282333 -0.0968018)
(-0.0242201 0.000564108 -0.0523596)
(-0.0135331 0.000263742 -0.00294288)
(-0.0117189 -0.000677277 -0.186928)
(-0.0029538 -0.000242507 -0.143454)
(-1.78531 -0.0812403 0.0633263)
(-4.18438 -0.391784 0.643656)
(-0.186123 -0.0526895 -7.42872)
(-3.10552 -0.063826 0.628067)
(-0.0161367 -0.000972051 -0.00213127)
(-0.0056705 -0.000347933 -0.161566)
(0.00808681 0.000559148 -0.179712)
(0.00795172 0.000264327 -0.179607)
(0.0090943 0.000592131 -0.174997)
(0.00959716 0.000446964 -0.175864)
(-0.0470575 -0.000944782 -0.177108)
(0.010423 0.000194351 -0.175505)
(0.00672579 0.000328152 -0.152031)
(-0.00481954 -0.000246524 -0.00967354)
(0.00258508 6.30507e-05 -0.173698)
(-0.0174836 -0.00280584 0.00164775)
(-0.00192178 0.00183105 -0.067834)
(-0.00520317 -0.00165382 -0.0459021)
(-0.00279115 -0.000803875 -0.0345851)
(-0.00402707 -0.000186554 -0.0427495)
(-0.00343931 0.00212614 -0.0322928)
(-0.0011715 -0.000122597 -0.159108)
(-0.450761 -0.0202432 -1.00351)
(-0.375022 -0.0173947 -0.720611)
(-0.466087 -0.00842635 -0.633108)
(-0.851604 -0.0531543 -0.652304)
(-0.186694 -0.00360631 0.0291113)
(-0.561225 -0.0117483 -0.3765)
(-0.000387492 -4.20642e-05 -0.179185)
(-0.500265 -0.0489025 -25.5638)
(-0.150943 -0.00620484 0.0592731)
(0.0343625 0.00518737 -50.2911)
(-0.148853 -0.0020183 0.0459969)
(-0.171158 -0.0074332 0.0505022)
(-0.157009 -0.00302078 0.0381451)
(0.508496 0.145761 -54.204)
(-0.0256265 -0.000237355 -0.0562312)
(-0.26944 0.220139 -42.8935)
(-0.0544811 -0.00545906 -0.055102)
(-0.0649988 -0.00559143 -0.0815163)
(-0.105536 -0.00201554 -0.157638)
(-0.00464709 -0.000244504 -0.170206)
(-0.00463249 -0.000143669 -0.162251)
(-0.0140019 -0.00105163 -0.153602)
(-2.03993 -0.154102 -0.892244)
(-0.0428222 -0.000781768 -0.0976963)
(-0.320218 -0.0236437 0.0863093)
(-0.202594 -0.0119263 -0.0729871)
(-0.0496117 -0.00377666 -0.161595)
(-0.00782501 -0.000136974 -0.18584)
(-0.112294 -0.00213803 -0.206234)
(-0.267564 -0.0139184 -0.290622)
(-0.109432 -0.00770529 -0.366579)
(0.00075993 0.000217082 -0.17152)
(0.00734355 0.000115105 -0.173314)
(-0.00656896 -0.000295207 -0.154727)
(-0.00567257 -0.000151443 -0.161991)
(-0.00499986 -0.000437942 -0.165753)
(0.000220459 -5.04235e-05 -0.0129317)
(-0.284815 0.0207145 -41.2481)
(-0.240524 -0.0162881 0.59518)
(-0.398368 0.272382 -36.5533)
(-0.00775434 -0.00124971 -0.0626751)
(-0.00457464 0.000139309 -0.00102655)
(-0.0768625 -0.00581481 -0.0579486)
(-9.2314e-05 0.00217579 -0.08607)
(-0.0022764 0.00394109 -0.082013)
(-0.0013909 -0.00292415 -0.104674)
(-0.000589351 0.00205423 -0.0847033)
(-0.097093 -0.00671853 -0.162367)
(0.00204943 0.00136141 -0.0144376)
(-0.00193474 0.00168049 -0.0122553)
(-0.00718192 0.000186353 -0.139769)
(-10.4164 -0.903908 -62.0129)
(-1.32022 -0.0243099 -50.8285)
(0.00197161 -0.00207305 -0.0157052)
(-0.00206172 0.00113966 -0.0133071)
(-0.00831516 -0.000213811 -0.154382)
(-0.0103289 -0.000129507 -0.15208)
(-0.00682528 -0.00047638 -0.159616)
(-0.0259844 0.000616322 -0.0928735)
(-0.0372481 -2.20248e-05 -0.103767)
(-0.00219323 -0.000418496 -0.0051842)
(-2.08166e-06 -5.44839e-05 6.98827e-05)
(-0.0737057 -0.00475226 -0.0947092)
(-0.0264546 -0.000182918 -0.172104)
(-0.0148085 -0.000331206 -0.0146957)
(-0.0404404 -0.00245938 -0.163665)
(-0.0162741 -0.00123203 -0.132911)
(-0.00804674 0.00219364 -0.105983)
(-0.0428493 -0.00204319 -0.15148)
(-0.0129713 -0.000714749 -0.0848554)
(-0.0406039 -0.00223661 -0.123879)
(-0.233273 -0.0161902 -0.0920546)
(-0.000390618 0.00225677 -0.0865665)
(-0.0313302 -0.00211882 -0.205925)
(-0.345184 -0.0226958 -0.0724101)
(-0.00252618 0.00010203 -0.171984)
(-0.0393671 -0.000750023 -0.187434)
(-0.00164843 -9.18936e-05 -0.120793)
(-0.131012 -0.011514 0.0817913)
(-0.118226 -0.00746012 0.0414313)
(-0.00217427 -0.000255322 -0.140443)
(-0.00127882 0.00226308 -0.126414)
(-0.345631 -0.142536 -39.4917)
(-0.796187 -0.0066281 -0.284714)
(-0.00718552 -0.000572053 -0.167263)
(-5.82908 -0.602891 -12.1639)
(-0.0339207 -0.00267647 -0.149651)
(-0.20006 -0.0160233 0.191979)
(-0.170477 -0.00263972 0.14316)
(-0.00114617 -0.000493325 -0.142551)
(-0.0116754 -0.000794189 -0.183317)
(-0.00152488 0.00223477 -0.0795877)
(-0.199445 -0.0161564 0.18622)
(-0.00487514 -0.000212391 -0.167171)
(-0.00092858 -0.000162299 -0.0227569)
(0.00193377 0.000116414 -0.175361)
(-0.0492164 -0.000470042 -0.124713)
(-0.0537867 -0.00426768 -0.0992055)
(-0.0400938 -0.000603855 -0.201916)
(-0.0526586 -0.00498041 -0.0172575)
(-0.0309453 -0.000573765 -0.142813)
(-0.00469454 -0.00108608 -0.135299)
(-0.000503301 -0.00150052 -0.0649736)
(-0.0524773 -0.00246681 -0.188453)
(-0.191883 -0.00761846 -0.254592)
(-0.00343113 0.00209872 -0.124239)
(-0.00307314 0.000195779 -0.108778)
(-0.00360286 -0.000729578 -0.120178)
(-0.00207499 0.00159632 -0.0831964)
(-0.0213098 -0.00337175 -0.00307964)
(0.00159505 -0.00355907 -0.0820819)
(-0.0504771 0.000435639 -0.00511295)
(-0.00388664 0.000979828 -0.117208)
(-0.0582429 -0.00573683 -0.0486136)
(-0.0636421 -0.000583867 -0.0326933)
(-0.0416401 -0.00299456 -0.0201959)
(-0.0672195 -0.00403625 -0.0533117)
(-0.0779858 -0.00403084 -0.0321817)
(0.00064172 4.36807e-05 -0.177549)
(-0.0428983 -0.00171448 -0.204236)
(-0.00482474 -0.000488256 -0.156802)
(-0.158053 -0.0092452 -49.6828)
(-0.411911 -0.0294322 -0.914781)
(-0.116864 -0.00526742 0.0353725)
(-2.31384 0.440492 -30.8629)
(-0.00093278 1.17308e-05 -0.166815)
(-0.00572132 -0.000311679 -0.162636)
(-0.00349135 2.38142e-05 -0.0103495)
(-0.0116509 0.00102843 -0.093848)
(-0.000517345 -0.000167693 -0.00604423)
(-0.0028803 -0.000127594 -0.123315)
(-0.0229109 -0.000263586 -0.222006)
(-0.0621905 -0.00590733 0.00789922)
(-0.255697 -0.000906213 0.0291017)
(-0.162858 -0.00520625 0.0292337)
(-0.269169 -0.0201916 -0.448178)
(-0.277658 -0.00778446 0.0411525)
(-0.349241 -0.00636118 -0.0906633)
(-0.329785 -0.00713328 -0.150489)
(-0.315644 -0.0212736 -0.0927464)
(-0.00315533 0.000497304 -0.150436)
(-0.0658044 -0.0024945 -0.139554)
(-0.025348 -0.0016611 -0.029709)
(-0.109562 -0.0046602 -0.168035)
(-0.0214714 -7.70601e-05 -0.0313109)
(0.894468 0.333815 -43.5886)
(-0.000315122 0.00215247 -0.027145)
(-0.107565 -0.006793 0.0422824)
(-0.00092939 -4.74043e-05 -0.178136)
(-0.00258804 -0.00323736 -0.0166164)
(-0.108559 -0.00570477 0.0510327)
(-0.00727704 -0.000366528 -0.158277)
(-0.00396117 0.000101748 -0.141741)
(-0.0100576 -0.00033599 -0.000412618)
(-0.0162424 0.000103978 -0.0527571)
(-0.0192071 0.0005882 -0.0401606)
(-0.00205586 0.00289288 -0.0819288)
(-0.00457399 -0.000584894 -0.139808)
(-0.0390039 -0.00367866 -0.0221067)
(-0.00323278 -0.00180427 -0.11547)
(-0.0382383 -0.00345455 -0.02775)
(-0.0365432 -0.00346741 -0.0313578)
(-0.0415148 -0.00133156 -0.0353501)
(0.000266442 0.00039871 -0.128808)
(-0.0449229 -0.0024596 -0.0325754)
(-0.000655747 0.00184917 -0.126833)
(-0.000843276 0.000417413 -0.12422)
(-0.0171739 0.000261156 -0.0347389)
(-0.0564621 -0.00324487 -0.031434)
(-0.00327239 -5.24298e-05 -0.000626574)
(-0.00703527 -0.00056995 -0.148888)
(-0.00679096 -0.000177261 -0.180155)
(-0.00561407 -0.000390077 -0.16463)
(-0.00547191 -0.000237234 -0.159169)
(-0.00484341 -0.000199258 -0.164155)
(-13.331 -1.06145 -65.0317)
(-2.54113 -0.133582 -64.9324)
(-0.00478653 -0.00037338 -0.159537)
(-0.00653942 -0.000284106 -0.154152)
(-0.248572 -0.0114942 -0.346687)
(-0.251509 -0.0185562 -0.342151)
(-0.216735 -0.00945754 -0.476632)
(-0.204258 -0.00824348 -0.323084)
(-0.200719 -0.00421577 -0.339677)
(-0.0401922 -0.000698137 -0.213059)
(-0.0473675 -0.00189188 -0.224946)
(-0.0441223 -0.000626525 -0.220578)
(-0.0551513 -0.00361186 -0.128752)
(-0.046066 -0.00315771 -0.220799)
(-1.26269 -0.0510093 0.0961616)
(-0.00180394 0.00180306 -0.0168702)
(-0.00763332 -0.000448353 -0.157391)
(-0.000879709 -2.20473e-05 -0.178549)
(-0.00331364 0.000176539 -0.119504)
(-0.0623899 -0.00504061 -0.0841202)
(-0.0185123 -0.00096448 -0.197219)
(-0.0314693 -0.00136567 -0.244612)
(-0.0167935 -0.000752318 -0.21989)
(-0.0379243 -0.00123091 -0.262069)
(-0.109277 -0.0136899 -0.00936413)
(-0.00108078 0.000746001 -0.022268)
(-0.00230422 -4.6526e-05 -0.165386)
(-0.00168838 -7.0548e-05 -0.153627)
(-0.00174865 -0.00141228 -0.0100079)
(-0.00658095 -0.000104146 -0.146344)
(-0.00254246 -0.00193684 -0.0558267)
(-0.00207199 -0.000173853 -0.155912)
(-0.0311223 -0.00165025 -0.00851202)
(-0.00722 2.72428e-05 -0.141087)
(-0.00447334 -0.000337686 -0.157438)
(-0.00125159 -0.00236716 -0.084173)
(-0.00147208 -0.00303661 -0.103038)
(-0.229874 -0.00426277 0.0950772)
(-0.00212578 -0.00204634 -0.0142712)
(-0.302205 -0.0220177 0.211791)
(-0.483098 -0.0340403 0.155222)
(0.0010157 -0.00546124 -0.0613403)
(0.00314815 0.0035369 -0.057263)
(-0.00164768 -0.00413241 -0.0311742)
(-0.00488664 -0.000702646 0.000225901)
(-0.00408962 -0.000160617 -0.000925253)
(-1.18819 0.248432 -38.5552)
(-0.544009 -0.101664 -70.9899)
(-3.24095 -0.258225 0.289745)
(-0.0168464 -0.00029793 -0.192951)
(-0.0310495 -0.00221013 -0.2119)
(-0.018018 -0.00129886 -0.192841)
(-0.0297272 -0.000420784 -0.20539)
(-0.337155 -0.0251926 0.12688)
(-0.737554 -0.0575515 -0.966182)
(-0.159247 -0.0104198 -0.163732)
(-0.000323326 0.000143656 -0.000867639)
(-0.627632 -0.047745 0.0641626)
(0.0077453 0.000555346 -0.175492)
(-0.00461708 -0.000102089 -0.180582)
(-0.00296887 0.000571175 -0.156687)
(-0.153235 -0.00264433 -0.101529)
(3.53204e-05 2.98708e-05 -0.150299)
(-0.174123 -0.00325655 -0.117038)
(-0.184685 -0.00969135 -0.122003)
(-0.160876 -0.0108696 -0.126315)
(-0.360831 -0.251813 -57.841)
(-0.00428851 -0.00253967 -0.0415077)
(-0.159818 -0.00271266 -0.116788)
(-0.0285963 -0.000446421 -0.209609)
(0.000161323 -0.000871434 -0.0248208)
(-0.176724 -0.0125825 -0.0722687)
(-0.0130411 -0.000927905 -0.188967)
(-3.61764e-05 -0.00295247 -0.0409624)
(-5.52724e-05 3.7933e-05 -7.9515e-05)
(-0.151006 -0.0109294 0.122073)
(-0.0773743 -0.00462756 -0.0387492)
(-0.297043 -0.00976591 -0.0893474)
(-0.149005 -0.00966419 -0.0138122)
(-0.0866906 -0.00420615 -0.026487)
(-0.274566 -0.0206868 0.0963958)
(-0.000146184 1.6344e-05 -0.000299813)
(-0.203212 -0.0125729 0.123256)
(-0.0186198 -0.000153987 -0.0227346)
(-0.218521 -0.0117192 0.139347)
(-0.240465 -0.018468 0.155492)
(0.00129764 -0.001707 -0.00996457)
(-0.873165 -0.0628458 0.464498)
(-0.083347 -0.00276509 -0.0415699)
(-0.0708728 -0.00194301 -0.176826)
(0.00198488 -0.00126631 -0.0149853)
(-0.00295625 -0.000571597 -0.138095)
(-0.000483564 -9.49462e-06 -6.03387e-05)
(-0.0793725 -0.00632311 -0.00740984)
(-0.405133 -0.0294381 0.122358)
(-0.0905965 -0.00192497 -0.0338049)
(0.0245985 -0.316332 -57.1085)
(-0.00208391 0.00108744 -0.0973512)
(0.00146705 -0.000813399 -0.0194915)
(-0.1049 -0.00521829 -0.0370731)
(-0.108451 -0.00241137 -0.0347675)
(0.000199279 0.00291493 -0.0639839)
(-0.0035833 -0.00125162 -0.128381)
(0.000341848 1.1631e-05 -0.11157)
(-0.00930661 -0.000637819 -0.158362)
(-0.405717 -0.0336739 0.0261546)
(-0.0137286 -0.000461639 -0.170601)
(-0.263654 -0.0112274 -0.134251)
(-0.138808 -0.00508918 -0.220065)
(-0.00379147 -0.000171466 -0.162659)
(-0.303962 -0.00602428 -0.103286)
(-0.0108443 -0.000249225 -0.169081)
(-0.264243 -0.00681027 0.0491568)
(-0.0223556 -0.000758772 -0.251332)
(-0.159958 -0.00215202 -0.5453)
(-0.167186 -0.00256427 -0.556605)
(-0.0191355 -0.000115938 -0.258301)
(0.00212225 0.000213612 -0.170118)
(-0.000457595 -7.00803e-05 -0.166089)
(0.00265394 6.65616e-05 -0.170485)
(0.00662726 0.00012521 -0.176589)
(0.00608256 0.00011998 -0.173848)
(0.00178841 -0.00156045 -0.0123362)
(-0.00351856 -0.000390744 -0.156221)
(-0.00520329 9.02652e-05 -0.148812)
(-0.00292266 0.000917607 -0.124886)
(-0.017759 -0.00122979 -0.150491)
(-0.00219661 -0.00216612 -0.0165358)
(-0.0193702 -0.00144465 -0.128793)
(-0.115998 -0.00674685 -0.0648154)
(-0.855477 -0.0523331 0.144356)
(-0.14409 -0.00713045 -0.105054)
(-0.779232 -0.0505179 0.475801)
(2.08546 0.0836766 -45.1494)
(0.311215 0.0842694 -36.9796)
(-0.344978 -0.012586 0.0491885)
(0.0907658 0.204068 -64.8038)
(-0.31454 -0.0212822 0.140237)
(-0.626305 -0.0123172 0.450778)
(0.859896 0.00686565 -70.4088)
(0.500736 0.219363 -65.6898)
(0.159031 0.339736 -55.6669)
(-0.628617 -0.00239441 0.358387)
(-0.0427016 -0.00298614 -0.212788)
(-0.0400188 -0.00186151 -0.210889)
(-0.00092545 -9.13271e-05 -0.118125)
(-0.00411879 0.000172412 -0.158208)
(-0.00907303 -0.00012473 -0.173856)
(-0.00640053 0.00118424 -0.113027)
(0.00171169 0.00339823 -0.0583111)
(-1.75078 -0.121674 0.0825486)
(-0.0168824 -0.00124133 -0.160426)
(-0.00547168 -0.00012471 -0.17791)
(-0.00997458 -0.000253666 -0.15765)
(-0.00428156 -0.00298315 -0.0595517)
(-0.00304864 -0.00235352 -0.0336596)
(-0.0200607 -0.00206515 -0.0708753)
(-0.016632 -0.00108825 -0.0936574)
(-0.0103642 -0.000342416 -0.0773383)
(-0.000750508 -0.000569866 -0.00341389)
(-0.000631276 0.000264957 -0.00719155)
(-0.000956689 4.29159e-05 -0.153387)
(-0.242585 -0.016936 -0.137639)
(-0.00435224 -0.000428771 -0.173489)
(-0.100226 -0.00352712 -0.206436)
(-0.00733412 -4.89625e-05 -0.178095)
(0.00082761 -0.0025793 -0.03304)
(-0.092106 -0.00183978 -0.0596003)
(-0.272692 -0.00666136 -0.503572)
(-0.100889 -0.00137373 -0.275672)
(-0.0201335 -0.000960742 -0.139528)
(-0.00749144 -0.00246588 -0.0823872)
(-0.184051 -0.00342967 -0.227261)
(0.642506 0.0297237 -71.1119)
(-0.00175278 -8.87426e-05 -0.164611)
(-0.00260541 -4.34099e-05 -0.16611)
(-0.00299283 -0.000106035 -0.165428)
(-0.00120246 -7.61675e-05 -0.167039)
(-2.09311 -0.0195234 0.080154)
(-0.288273 -0.00747021 -0.278823)
(-0.951589 -0.0133031 -0.54492)
(0.00188964 -0.000911745 -0.0126314)
(0.000828998 -0.00574466 -0.0543628)
(-0.0314276 -0.00115851 -0.220117)
(-0.59541 -0.0400593 -0.150393)
(0.000282887 3.74392e-05 -0.170727)
(-0.00324681 -0.000454894 -0.153761)
(0.000150452 3.4384e-05 -0.169588)
(-0.635899 -0.0328168 0.224058)
(-0.00104051 0.00153165 -0.108893)
(-0.228063 -0.00589394 -0.193888)
(-0.0273041 -0.000446775 -0.183247)
(-1.9809 -0.114201 -0.159357)
(-0.0106231 -0.000172226 -0.179016)
(-0.00983503 -0.000475411 -0.178034)
(-0.0120144 -0.000283511 -0.178358)
(-24.8394 -0.0959641 -9.50957)
(-0.0126791 -0.000540267 -0.177264)
(-0.00179514 0.000182753 -0.149442)
(-1.51835 -0.104839 0.0272047)
(-1.03443 -0.0220554 -0.162735)
(-0.522048 -0.0285563 -0.259956)
(-0.0104787 0.00033024 -0.0935906)
(-0.579836 -0.00996554 -0.264)
(-1.12276 -0.0910166 -1.31296)
(-0.291732 -0.0177989 -0.469453)
(-1.59167 0.263368 -30.4359)
(-0.0461875 -0.00299385 -0.243819)
(-0.501605 -0.00192504 -0.0828404)
(-0.0637685 -0.000890569 -0.276045)
(-2.04392 -0.0118786 -0.0348862)
(-0.00295799 -8.81689e-06 -0.147264)
(-5.90751 -0.319923 -55.8755)
(-0.0702203 -0.00451742 -0.281258)
(-0.0526844 -0.00337491 -0.0678625)
(-0.0484367 -0.0017986 -0.0527204)
(-0.0164859 0.00101588 -0.0427294)
(1.26877 0.0607519 -71.062)
(-0.0874167 -0.0015544 -0.257453)
(-0.0865213 -0.00406612 -0.252455)
(-0.0784564 -0.00367354 -0.111283)
(-0.386915 -0.0112596 -0.0346041)
(-0.0791732 -0.0019799 -0.116672)
(-0.0809655 -0.00384095 -0.0925825)
(-0.0913529 -0.00534682 -0.0983296)
(-0.0893654 -0.00710524 -0.0927131)
(-0.00661031 -0.000449661 -0.181272)
(0.000553916 -0.000274325 -0.0215149)
(-0.00440887 0.00907224 -0.0950346)
(0.00080713 4.68696e-05 -0.18114)
(-0.00352002 0.000767642 -0.104643)
(-0.309262 -0.019655 0.0630396)
(-0.78335 0.0218579 -38.6657)
(-0.0018071 -2.74151e-05 -0.165735)
(-0.00445488 -6.9021e-05 -0.161662)
(0.00518818 0.000186494 -0.115414)
(-0.00557082 -0.000159784 -0.162068)
(-0.00709516 0.00133839 -0.0611416)
(0.456436 -0.0606336 -60.7365)
(0.00214024 3.36533e-05 -0.17029)
(0.382381 -0.206863 -53.4146)
(-0.0173816 -0.000176158 -0.200288)
(-0.143064 -0.0108265 -0.0973641)
(-0.338768 -0.0666902 -35.3384)
(0.377644 -0.253726 -48.5712)
(-0.000444116 -0.000637979 -0.0237725)
(-0.0253499 0.00136896 -0.0956273)
(0.500081 -0.244809 -46.5654)
(-0.151439 -0.0111101 -0.0900004)
(-0.00874782 -0.000444355 -0.0491533)
(-0.130405 -0.00641138 -0.0986926)
(-0.671955 -0.00529208 -0.13383)
(-0.00950517 -0.000631324 -0.00518324)
(-0.148655 -0.00628561 -0.153237)
(-0.00521536 -0.000421986 -0.165987)
(-0.518191 -0.0293331 -40.1342)
(-0.0658968 -0.00154138 -0.177714)
(-0.0500881 -0.00204657 -0.19369)
(-0.0464812 -0.003215 -0.188884)
(-0.772314 -0.0394376 0.0523181)
(-0.0551327 -0.000958103 -0.192962)
(-0.398731 -0.031387 -0.188486)
(-0.364887 -0.0123754 -0.114676)
(-0.166705 -0.0115022 0.104549)
(-0.163758 -0.0130589 0.0943891)
(-6.34031e-05 0.000282705 -0.0100732)
(-0.13516 -0.00490408 0.0911085)
(-0.55557 -0.0439348 0.0257043)
(0.0147671 0.000297714 -0.166345)
(1.17753 0.755712 -28.2885)
(-0.45937 0.146719 -62.4749)
(-0.00993421 -0.00020012 -0.160404)
(0.862367 0.0150975 -70.4219)
(-0.00371654 -0.000107921 -0.157471)
(-0.630975 -0.331112 -40.4571)
(-1.42005 0.108054 0.988917)
(0.607914 -0.088215 -60.7055)
(-0.12714 -0.00074475 -0.0235138)
(-0.174565 -0.00550768 0.160515)
(-0.0600326 -0.00208388 -0.316413)
(-0.376159 -0.00711347 -0.130314)
(-0.0760533 -0.00106878 -0.103887)
(-0.0676362 -0.00360392 -0.0886632)
(-0.226979 -0.0115678 -0.126766)
(-0.206588 -0.014351 -0.508968)
(-0.0793962 -0.00205842 -0.0439768)
(-0.0621855 -0.000882131 -0.0979914)
(-0.0864739 -0.00370844 -0.0792225)
(0.00153461 1.0916e-05 -0.180722)
(1.18355 0.0546821 -72.4273)
(-0.00210447 6.26998e-05 -0.15396)
(-0.00442916 -0.000338633 -0.160477)
(-0.00390607 -0.000207642 -0.16531)
(-0.00686429 -2.24875e-05 -0.153542)
(-0.00424321 -0.000374 -0.160471)
(-0.00598034 -0.00130504 -0.133081)
(-0.00759936 -0.000104263 -0.163715)
(-0.0106702 -0.000758057 -0.186602)
(-0.0209857 -0.00104183 -0.159386)
(-0.00439254 -0.00125449 -0.135984)
(-0.0405574 -0.00278848 -0.130723)
(-0.0356573 -0.00201803 -0.132012)
(0.00177562 -0.00325471 -0.0140559)
(-0.0454218 -0.000262178 -0.130968)
(-0.00161853 -0.00172536 -0.0121396)
(0.00161644 -0.00120367 -0.0180412)
(-0.000758516 0.000443488 -0.015405)
(-0.00323455 -0.000878774 -0.138359)
(-0.00377557 -0.00162383 -0.136078)
(0.000249579 0.00023844 -0.0260413)
(-0.0120147 -0.000718799 -0.17168)
(-0.000511012 0.000178573 -0.00374552)
(-0.000167632 1.99849e-05 -0.00101252)
(0.000119648 -0.000275341 -0.00147132)
(-0.00860453 0.000667499 -0.00131285)
(-0.00215745 -0.00110954 -0.109183)
(-0.0103226 0.000683785 -0.00172178)
(-0.274474 -0.00639759 0.187157)
(-0.00555113 -2.00163e-05 -0.000794128)
(-0.00319158 -0.00023351 -0.000772935)
(-0.275797 -0.00541005 -0.0398159)
(-0.189293 -0.00573205 -0.0189025)
(-0.0117075 -0.000421252 -0.173706)
(-0.00189783 2.20806e-05 -0.016824)
(-0.0035377 0.000603296 -0.0188509)
(-4.50853e-05 0.000506579 -0.00212982)
(-0.005304 -0.000311604 -0.170032)
(-0.000532193 -0.00115119 -0.00584416)
(-1.16902 -0.00767754 -0.114798)
(2.26204 0.84806 -29.6519)
(-0.00478328 -0.000367526 -0.141906)
(3.78611 0.594011 -38.629)
(-0.00428445 -0.000566484 -0.134479)
(-0.00149324 -0.000611604 -0.139405)
(0.000448082 2.55024e-05 -0.176652)
(-0.424368 -0.0239049 -0.176356)
(-0.321996 -0.00502357 -0.324212)
(-0.0763946 -0.0014418 0.0079799)
(-0.00628551 0.000716385 -0.142219)
(0.00082464 0.00013518 -0.173024)
(-0.0056715 8.95889e-05 -0.141903)
(-0.119357 -0.0082292 0.117167)
(-0.0283914 -0.00127337 -0.282621)
(-0.032951 -0.000717529 -0.329894)
(0.691955 0.0330148 -70.7653)
(-0.530049 -0.0353059 -0.224421)
(-0.187294 -0.00276492 -0.0879092)
(-0.030014 0.00101696 -0.0478223)
(-0.00509376 -0.000270757 -0.162311)
(-0.00340195 -0.00024452 -0.149205)
(-0.00502632 -0.000162497 -0.162131)
(-0.00490058 -0.00011124 -0.167668)
(-0.054587 -0.00388638 -0.169327)
(-0.080092 -0.00104126 -0.155979)
(-0.0183871 -0.000947453 -0.171614)
(-0.00551258 -0.00103547 -0.133395)
(-0.190496 -0.00801121 0.175328)