/*--------------------------------*- C++ -*----------------------------------*\
| =========                 |                                                 |
| \\      /  F ield         | OpenFOAM: The Open Source CFD Toolbox           |
|  \\    /   O peration     | Version:  v2006                                 |
|   \\  /    A nd           | Website:  www.openfoam.com                      |
|    \\/     M anipulation  |                                                 |
\*---------------------------------------------------------------------------*/
FoamFile
{
    version     2.0;
    format      ascii;
    class       volVectorField;
    location    "0.01";
    object      U;
}
// * * * * * * * * * * * * * * * * * * * * * * * * * * * * * * * * * * * * * //

dimensions      [0 1 -1 0 0 0 0];


internalField   nonuniform List<vector> 
3575
(
(-0.00293425 -0.000201434 -0.158343)
(0.00423026 0.000288248 -0.175966)
(-2.29459 -0.594627 -63.3529)
(-0.000480871 -2.01101e-05 -0.157027)
(-0.00437018 0.000962556 -0.156865)
(0.000250905 -0.0010257 -0.041888)
(0.00210885 -0.00211513 -0.0162136)
(-0.00184769 -0.00137597 -0.0139848)
(-0.368291 -0.00814693 -0.902759)
(-0.000463708 0.000164359 -0.00226846)
(-0.00109952 5.05101e-05 -0.0108108)
(-0.00314448 0.00751329 -0.0865551)
(-0.066518 -0.00344512 -0.440145)
(-0.000188455 1.62871e-05 -0.00348373)
(-0.00156953 -0.000143204 -0.00473561)
(-0.0168337 0.00018478 -0.00185272)
(-0.0145047 0.000628579 -0.0011101)
(-0.0295601 -0.00226297 -0.00494271)
(-0.0270863 -0.00303661 -0.00395188)
(-0.462984 -0.00957479 -0.177559)
(-0.377072 -0.0229863 -0.0948294)
(-0.000322971 -0.000183597 -0.0053841)
(-4.53331e-05 0.000210176 -0.00099719)
(-0.0185571 0.000175712 -0.0201129)
(0.0686172 0.0333354 -43.574)
(0.00244881 3.43046e-05 -0.103967)
(-0.000702392 -0.000612371 -0.131228)
(-0.00178718 0.000137473 -0.12888)
(-0.000927068 0.000660857 -0.118797)
(-0.00214635 -0.00264726 -0.0174658)
(-0.00270344 -0.00229694 -0.0979831)
(-0.00390753 -0.000574792 -0.0182306)
(0.000282977 -1.07923e-05 -0.17546)
(0.00207563 -0.000103218 -0.162665)
(-0.00107486 0.00154114 -0.0243502)
(-0.202636 -0.00495984 -0.0146032)
(-0.0946097 -1.67964e-05 -0.017623)
(-0.256159 -0.00712828 -0.0285392)
(-0.218269 -0.00250629 -34.119)
(0.185102 0.132885 -31.5553)
(-0.00144242 -0.00172185 -0.115152)
(0.29448 -0.0639704 -61.1679)
(-0.0238104 -0.00037059 -0.159843)
(0.441889 0.290954 -39.5273)
(-0.00395594 0.00118884 -0.0781996)
(-0.000275867 -0.00016102 -0.0127925)
(-0.130977 -0.0126457 0.0103968)
(-0.0370907 -0.00153274 -0.0477805)
(-0.00479619 -0.000277213 -0.160571)
(0.912466 0.0215808 -40.1487)
(-0.165915 -0.00372572 0.01765)
(-0.31153 -0.0218091 0.0725668)
(-0.0202164 -0.00142156 -0.19259)
(-0.159117 -0.00797138 0.0153742)
(-0.0542487 -0.00381287 -0.304438)
(-0.0140089 0.000555143 -0.0780949)
(-0.218343 -0.0149498 -0.10869)
(-0.00749303 -0.000357225 -0.174175)
(-0.106368 -0.00630852 -0.40282)
(-3.75226 -0.130451 -6.85949)
(-0.768358 0.0285284 -57.2612)
(-0.0980967 -0.00335719 -0.406624)
(-0.594519 -0.0369875 0.325661)
(-0.0382877 -0.00053199 -0.234348)
(-0.0393527 -0.00178445 -0.233963)
(0.0125511 0.000549626 -0.166844)
(-0.0423358 -0.00302081 -0.240625)
(-0.00283252 0.000120691 -0.00076795)
(0.00100101 4.95344e-05 -0.0987935)
(-0.00621193 -0.000278071 -0.0172901)
(-0.0868928 -0.00640165 -0.398639)
(-0.180174 -0.00641698 0.00650942)
(-0.502342 0.000933904 0.0486485)
(-0.630836 -0.0250475 0.172751)
(-0.0393165 -0.00237776 -0.254284)
(-0.0377055 -0.00232782 0.00544026)
(0.798646 0.0145576 -35.0917)
(-0.984357 -0.0172357 -2.04744)
(-0.00170739 -0.00134409 -0.0130691)
(-0.00143939 -1.89809e-05 -0.15976)
(-0.000777433 0.000645325 -0.0200486)
(-0.85838 -0.0324863 0.098188)
(-0.0016442 -1.70208e-05 -0.159784)
(-0.00102816 -5.5704e-05 -0.160668)
(0.355238 0.028494 -55.7013)
(-0.627684 -0.0143761 -0.499695)
(-0.00133201 -2.80114e-05 -0.160659)
(-0.00300364 0.00361351 -0.0828364)
(-0.0816701 -0.00146623 -0.0851407)
(-0.0049209 -0.00195614 -0.102042)
(-0.00550644 -0.000262451 -0.143129)
(-0.00543485 -0.00154689 -0.101592)
(0.00553888 0.000345555 -0.170693)
(0.00579965 0.000166926 -0.168568)
(0.00380389 0.00018598 -0.163224)
(-0.00249606 0.00168221 -0.119139)
(-9.36316e-05 6.33354e-06 -0.0109171)
(-0.270713 -0.0121551 0.128006)
(-0.0422953 -0.000812694 -0.0939135)
(-0.00605328 0.00176953 -0.0757268)
(0.0110656 0.000341107 -0.150481)
(0.0126127 0.00088826 -0.168897)
(-0.00461069 0.00307917 -0.0777536)
(-0.000106949 0.000461509 -0.0427192)
(-0.00144172 0.00452681 -0.0678696)
(0.00338358 0.00368524 -0.0683452)
(0.00271229 0.0019711 -0.018318)
(-0.00241345 -0.00247797 -0.0165807)
(0.000415588 0.00258938 -0.0653538)
(0.00994054 0.000701984 -0.167808)
(-0.00180372 0.00232745 -0.0721605)
(-0.00210841 0.00214165 -0.0684904)
(-0.0028189 0.00732633 -44.1072)
(-0.321494 -0.141889 -39.5364)
(-0.764153 0.117419 -36.1771)
(0.779526 0.229927 -32.6106)
(-0.57545 -0.0311974 0.703588)
(-0.16201 -0.00223899 -37.531)
(-0.00824163 0.000900487 -0.0104056)
(-0.0114267 -0.000329595 -0.0572658)
(-0.000505988 -0.00146046 -0.0890465)
(-0.00518612 -1.67133e-05 -0.00520124)
(-0.776933 -0.0174921 -0.316166)
(-0.000960342 0.00082512 -0.0129982)
(-0.0894566 -0.00600627 -0.00765456)
(-0.692475 -0.0456888 -0.300866)
(-0.205464 -0.0150844 -0.0245471)
(-0.277444 -0.024672 -0.0385971)
(-0.182406 -0.00211166 -0.0326651)
(-0.727357 -0.0479881 -0.402656)
(-0.000188775 -0.00278292 -0.0302336)
(-0.833857 -0.0197758 -0.47506)
(0.815908 -0.189059 -59.8981)
(-0.788614 -0.0507117 -0.506374)
(-0.0262378 6.09299e-05 -0.0443639)
(-0.15824 -0.00916479 0.0208871)
(-0.0320539 -0.00290599 -0.0420404)
(-0.0151992 0.00118301 -0.0379582)
(-0.0426985 -0.000944209 -0.101931)
(-0.0114734 0.000157326 -0.0315371)
(-0.00791308 0.000130555 -0.00793488)
(-0.77548 -0.0119165 -0.348328)
(0.000122302 -9.84024e-06 -0.000121301)
(-0.00723858 0.00164854 -0.133959)
(-0.191339 -0.0134425 -0.163926)
(0.972407 0.0561925 -69.9823)
(-0.695763 -0.0314112 -0.346156)
(-1.627 -0.0600858 0.142242)
(-1.96301 -0.0420497 0.219539)
(-0.290418 -0.0381289 -45.7259)
(-0.192243 -0.00299512 0.0383183)
(-2.29826 -0.189941 0.742983)
(-1.65918 -0.109581 0.402275)
(-2.83437 -0.142058 0.523313)
(-1.11728 -0.0531917 0.0818028)
(-0.0065658 -0.000449033 -0.143735)
(-0.00221138 -0.00223075 -0.0965617)
(-4.77522e-05 -0.00251566 -0.0927925)
(-0.107107 -0.00721659 0.0167019)
(-0.0490769 -0.00168087 -0.170104)
(0.00246624 -0.0018079 -0.0155747)
(-0.00302087 -0.000178651 -0.1568)
(-4.08452 -0.117745 -4.09159)
(-0.0885726 -0.00173927 -0.0391614)
(-0.00116192 -0.000114777 -0.000466065)
(0.000372061 0.000894324 -0.112497)
(-27.8533 -2.13361 -45.9324)
(-0.793352 -0.472789 -55.9009)
(0.862829 -0.169364 -54.6804)
(0.00118837 0.0028097 -0.0991172)
(-0.000278267 0.000707795 -0.0217136)
(-0.018173 -0.00129278 -0.152682)
(-0.0299794 -0.00184942 -0.0151868)
(-0.00281179 -0.00170916 -0.0957975)
(0.106571 -0.0635854 -61.6474)
(-0.884903 -0.0592041 -1.14433)
(-0.0103219 -0.000923722 -0.00805579)
(0.000182896 -0.00038088 -0.0772586)
(-1.04781 -0.0445422 0.971735)
(1.35154 0.0736877 -70.297)
(-0.329734 -0.00142539 0.00236071)
(0.437266 0.0147004 -45.0093)
(-0.400114 -0.0268246 -1.0455)
(-0.000197828 -0.00268507 -0.117847)
(-0.00285166 -0.00180627 -0.116057)
(-0.0810927 -0.00529048 -0.014746)
(-0.00050803 -0.000284131 -0.000620453)
(-0.134016 -0.00526444 -0.0709419)
(-0.00140846 -0.000881909 -0.142693)
(0.00403407 0.000270352 -0.169688)
(-0.0469041 -0.00380023 -0.0184904)
(-0.00266795 -0.000196996 -0.170245)
(-0.0132049 0.000923662 -0.0177553)
(-4.49768 -0.185216 -3.7421)
(-0.00592044 -0.000434867 -0.171419)
(-0.00188502 0.00231905 -0.0126875)
(0.000546948 0.00243693 -0.0485443)
(-0.00614556 0.00185006 -0.121518)
(-0.00518625 0.00178465 -0.123498)
(-0.114515 -0.0072939 -0.578394)
(0.0165749 -0.0661323 -44.0886)
(-0.0834137 -0.00618492 -0.0249352)
(-0.160153 -0.00816215 -0.665729)
(-0.127665 -0.00411711 -0.640826)
(-0.17109 -0.0123179 -1.46483)
(0.148949 0.000992882 -0.599857)
(-0.0677366 -0.00361826 -0.0107553)
(-0.0799862 -0.00253914 -0.0157751)
(-0.0992482 -0.00708369 -0.0281219)
(-0.090513 -0.00403065 -0.0211076)
(-0.00438294 -0.00297691 -0.0650998)
(0.00305638 0.00407724 -0.0640173)
(-0.0029837 0.00793847 -0.0667685)
(0.00152524 -0.000571589 -0.0207817)
(-7.57582e-05 -8.59179e-05 -0.0118403)
(-0.101835 -0.00188249 -0.0251227)
(-0.0144328 0.00264074 -0.022265)
(0.346893 0.0122802 -43.1038)
(-0.97876 -0.0288622 -0.66543)
(-0.0462533 -0.00199478 -0.160166)
(-11.1394 -0.475605 -13.8089)
(-0.00304649 -0.000223941 -0.160548)
(-0.00544164 0.00353262 -0.0713437)
(-0.0932488 -0.00611903 0.0126828)
(-0.124944 -0.00802656 0.0267486)
(-0.00752614 -0.000152232 -0.178215)
(-0.00205974 -5.81575e-05 -0.165103)
(0.000931727 7.72079e-05 -0.159725)
(-0.000904758 -0.000152948 -0.144964)
(-0.00605065 0.00268879 -0.0696258)
(-0.0136036 -0.000729007 -0.150135)
(-0.000802331 -7.41669e-06 -0.157751)
(-0.0104772 -0.000122912 -0.000784444)
(-0.00767713 -0.0011318 -0.135633)
(-0.00924119 0.000554193 -0.0135717)
(-0.00414382 -0.00057377 -0.00888669)
(-0.0538235 -0.00230079 -0.380458)
(-0.00570042 -0.00205363 -0.0988789)
(-0.00487676 -0.00268467 -0.0996708)
(-0.0343848 -0.00279282 -0.149982)
(-0.117318 -0.00800349 -0.046715)
(-0.129137 -0.0020193 -0.0620826)
(-0.242091 -0.00863753 0.11337)
(0.354209 0.184507 -61.2163)
(-0.00298138 7.29965e-06 -0.159543)
(-0.00556059 9.61488e-05 -0.00793128)
(0.000719745 -0.00343239 -0.0552983)
(-0.136489 -0.0075054 -0.280201)
(-0.00290178 0.00437414 -0.101254)
(-0.0757491 -0.00218181 0.00605539)
(-0.00259602 -0.00247032 -0.121178)
(0.00213087 0.0017841 -0.0184293)
(-0.00343058 0.000758481 -0.0321176)
(-0.183011 -0.0125636 0.087789)
(-0.0372943 -0.00299444 -0.098361)
(-0.0258925 0.000353111 -0.0550077)
(-0.0146151 0.000294099 -0.00309525)
(-0.0115608 -0.000673162 -0.178818)
(-0.00262833 -0.00017273 -0.147015)
(-1.82822 -0.0776853 0.0301339)
(-4.12536 -0.391529 0.593922)
(-0.279478 -0.0721621 -7.98034)
(-3.31252 -0.0716358 0.635847)
(-0.0175748 -0.00105075 -0.00221876)
(-0.00473686 -0.000333692 -0.160807)
(0.00937938 0.000640485 -0.17317)
(0.00916615 0.000295467 -0.172922)
(0.0108399 0.000708288 -0.168728)
(0.0112834 0.000513543 -0.169564)
(-0.0480455 -0.000963542 -0.172678)
(0.012031 0.000225704 -0.168822)
(0.00676259 0.000324857 -0.13884)
(-0.00541528 -0.00028498 -0.0110313)
(0.00390196 0.000102174 -0.168292)
(-0.0184394 -0.00296449 0.00177421)
(-0.00186033 0.00195709 -0.0743241)
(-0.00576408 -0.00171374 -0.0503147)
(-0.00311645 -0.000884735 -0.0382924)
(-0.00445668 -0.000151848 -0.0469946)
(-0.00383136 0.00233612 -0.0357363)
(-0.000653979 -6.93243e-05 -0.157543)
(-0.454475 -0.0203128 -1.00188)
(-0.377739 -0.0175889 -0.717972)
(-0.46808 -0.00845147 -0.629418)
(-0.852217 -0.0532081 -0.649962)
(-0.196224 -0.0037705 0.0303584)
(-0.56262 -0.0117925 -0.373421)
(0.000377814 -3.58885e-06 -0.174731)
(-0.574223 -0.0654119 -26.9636)
(-0.155729 -0.00637759 0.0610957)
(-0.0322868 -0.00720299 -46.4049)
(-0.15477 -0.00202744 0.0477846)
(-0.177839 -0.00768116 0.0525265)
(-0.163731 -0.00309094 0.0396026)
(0.478808 0.150901 -53.6901)
(-0.0272735 -0.00043714 -0.058925)
(-0.300418 0.223198 -42.4871)
(-0.0568183 -0.00547457 -0.0558605)
(-0.0671477 -0.00586146 -0.0816061)
(-0.108121 -0.00205378 -0.155305)
(-0.00325453 -0.000155825 -0.165587)
(-0.00397198 -8.74518e-05 -0.161297)
(-0.0143111 -0.00098087 -0.154104)
(-2.04086 -0.15423 -0.89143)
(-0.0448881 -0.000875175 -0.0984794)
(-0.333105 -0.0247792 0.0905395)
(-0.20661 -0.0122102 -0.0720255)
(-0.0510681 -0.00384811 -0.158842)
(-0.00745652 -0.000129157 -0.178465)
(-0.11413 -0.00217516 -0.201641)
(-0.269879 -0.0140382 -0.286082)
(-0.111193 -0.00783202 -0.360155)
(0.00205147 0.000336872 -0.166284)
(0.00928121 0.000155404 -0.167519)
(-0.0063629 -0.000286419 -0.147656)
(-0.00475535 -0.000149864 -0.161072)
(-0.00381694 -0.000325369 -0.163083)
(0.000240696 -5.25204e-05 -0.014349)
(-0.305833 0.00869773 -42.5439)
(-0.26112 -0.0186532 0.656772)
(-1.83001 0.79803 -31.8255)
(-0.00825802 -0.00125863 -0.0679347)
(-0.00511944 0.000150548 -0.00112182)
(-0.0794399 -0.00596502 -0.0581426)
(-0.000188147 0.00226635 -0.0936148)
(-0.00241195 0.00414076 -0.0892484)
(-0.00159306 -0.00290081 -0.112203)
(-0.000770194 0.00211701 -0.0920648)
(-0.099659 -0.00689865 -0.159799)
(0.00228284 0.00150486 -0.0160369)
(-0.00212641 0.00183987 -0.013487)
(-0.00605349 0.000161037 -0.144567)
(-10.477 -0.904472 -61.9621)
(-1.50765 -0.0297565 -46.5388)
(0.00218413 -0.00227219 -0.0172706)
(-0.00228767 0.00126717 -0.0147697)
(-0.00854845 -0.000217882 -0.155653)
(-0.0106388 -0.000168508 -0.153474)
(-0.00695495 -0.000496436 -0.159732)
(-0.0276937 0.000475483 -0.0955962)
(-0.0391177 -9.48781e-05 -0.10484)
(-0.00250638 -0.000474361 -0.00607598)
(-1.733e-05 -6.47075e-05 2.52296e-05)
(-0.0759048 -0.0049001 -0.0942614)
(-0.0269752 -0.000206429 -0.168255)
(-0.016441 -0.000420306 -0.0161224)
(-0.0414463 -0.00253813 -0.160925)
(-0.0171723 -0.00123831 -0.135639)
(-0.00858755 0.00201009 -0.112303)
(-0.0444349 -0.00209511 -0.149852)
(-0.0139698 -0.000611576 -0.0901303)
(-0.0426321 -0.00229273 -0.124108)
(-0.236989 -0.0163756 -0.0906525)
(-0.000260997 0.00238123 -0.0939975)
(-0.0317882 -0.0021459 -0.198605)
(-0.348984 -0.022947 -0.071493)
(-0.00303373 9.73765e-05 -0.164231)
(-0.0401608 -0.000751901 -0.181792)
(-0.00169814 -9.11417e-05 -0.114615)
(-0.133389 -0.0117422 0.0833999)
(-0.12296 -0.007797 0.0432002)
(-0.00229481 -0.000266729 -0.14559)
(-0.00122477 0.00200779 -0.133325)
(-0.500257 -0.134197 -41.3262)
(-0.798272 -0.00664202 -0.283254)
(-0.00675126 -0.000660569 -0.164269)
(-5.82749 -0.602724 -12.1645)
(-0.0352116 -0.0028359 -0.148632)
(-0.201597 -0.0167826 0.201811)
(-0.172063 -0.00252639 0.148123)
(-0.00128749 -0.000445287 -0.147626)
(-0.011231 -0.000755427 -0.176087)
(-0.0017696 0.0022924 -0.0865548)
(-0.199935 -0.0161935 0.194504)
(-0.00360748 -0.000158334 -0.163892)
(-0.00096566 -0.0001633 -0.024125)
(0.00159223 9.23228e-05 -0.168408)
(-0.0513988 -0.000630633 -0.124444)
(-0.0559367 -0.00441936 -0.0993173)
(-0.0407818 -0.000610986 -0.19517)
(-0.0561704 -0.00524459 -0.0176251)
(-0.0322576 -0.000634346 -0.14272)
(-0.00516664 -0.00101101 -0.14041)
(-0.000556635 -0.00164695 -0.0713802)
(-0.053417 -0.00253396 -0.183251)
(-0.194382 -0.00773164 -0.249962)
(-0.00342838 0.00205108 -0.131112)
(-0.0031419 0.000187094 -0.116432)
(-0.00377958 -0.000689555 -0.127241)
(-0.00194907 0.00166256 -0.0896041)
(-0.0224401 -0.00354269 -0.0031959)
(0.0017569 -0.00376659 -0.0893226)
(-0.0527163 0.000476376 -0.00511066)
(-0.00399299 0.000938628 -0.124617)
(-0.0608089 -0.00590294 -0.0493401)
(-0.0670432 -0.000774441 -0.0331467)
(-0.0447608 -0.00313813 -0.0208545)
(-0.0698295 -0.00414429 -0.0537349)
(-0.0817772 -0.0041644 -0.0325668)
(0.000793928 5.48942e-05 -0.171249)
(-0.0436192 -0.00174117 -0.197605)
(-0.00496611 -0.000371139 -0.158059)
(-0.15689 -0.00584432 -49.193)
(-0.414996 -0.0296336 -0.912318)
(-0.122583 -0.00568964 0.0368696)
(-2.44963 0.422407 -32.5446)
(5.48089e-05 6.4493e-05 -0.162018)
(-0.00467829 -0.000263545 -0.161599)
(-0.00384885 5.359e-05 -0.0118369)
(-0.0124283 0.000888216 -0.0992481)
(-0.000562913 -0.000189852 -0.00681333)
(-0.00287687 -0.000127507 -0.117215)
(-0.022743 -0.000262759 -0.213776)
(-0.0677102 -0.0059027 0.00861772)
(-0.270279 -0.00154966 0.0310008)
(-0.171522 -0.00571891 0.0309238)
(-0.271402 -0.0203656 -0.443829)
(-0.293193 -0.0087517 0.042608)
(-0.353298 -0.00644176 -0.0893675)
(-0.332344 -0.00739476 -0.147806)
(-0.319655 -0.0215558 -0.0913357)
(-0.00241433 0.000370594 -0.15405)
(-0.0682147 -0.00255045 -0.138141)
(-0.0273084 -0.00168099 -0.0316312)
(-0.112156 -0.0047751 -0.165363)
(-0.0232018 -6.97145e-05 -0.0335897)
(1.50158 1.26864 -37.9167)
(-0.000353605 0.00234355 -0.0299162)
(-0.112012 -0.00728171 0.0439863)
(-0.00124058 -6.87931e-05 -0.171486)
(-0.0027426 -0.00343394 -0.0177598)
(-0.112256 -0.00598443 0.0522593)
(-0.007427 -0.000410505 -0.158759)
(-0.00340614 6.02027e-05 -0.146692)
(-0.010781 -0.00035294 -0.000395123)
(-0.017407 5.77174e-05 -0.0563729)
(-0.0205595 0.000581385 -0.0431415)
(-0.00219856 0.00295241 -0.0890964)
(-0.00395696 -0.00052168 -0.145102)
(-0.0419712 -0.0038918 -0.0230368)
(-0.00302099 -0.00171956 -0.122318)
(-0.0409954 -0.00362001 -0.0288886)
(-0.0390313 -0.00353959 -0.0327335)
(-0.0440624 -0.0013785 -0.0365326)
(0.00023421 0.000370544 -0.135767)
(-0.0477372 -0.00259414 -0.0335213)
(-0.000571301 0.00167859 -0.133818)
(-0.000728263 0.000346534 -0.131477)
(-0.0184625 0.000196491 -0.0375833)
(-0.0597879 -0.00349565 -0.0319842)
(-0.00380861 -6.68082e-05 -0.000663987)
(-0.00605097 -0.000518159 -0.152706)
(-0.00652104 -0.000168943 -0.173036)
(-0.00443097 -0.000322908 -0.162185)
(-0.00426577 -0.000264672 -0.159415)
(-0.00385743 -0.000173793 -0.162253)
(-13.36 -1.06782 -64.9926)
(-2.51192 -0.131298 -64.8984)
(-0.00340087 -0.000250917 -0.158958)
(-0.00521964 -0.000130092 -0.156267)
(-0.250746 -0.0116078 -0.342024)
(-0.253799 -0.0186989 -0.337348)
(-0.219175 -0.00953239 -0.472614)
(-0.206601 -0.00832129 -0.317919)
(-0.203056 -0.00426012 -0.334492)
(-0.0407159 -0.000705702 -0.205854)
(-0.0477076 -0.0019165 -0.218061)
(-0.0444585 -0.000632479 -0.213535)
(-0.0574528 -0.00376803 -0.12801)
(-0.0465224 -0.00318791 -0.213992)
(-1.3151 -0.0545963 0.0943336)
(-0.00198464 0.00198381 -0.0188276)
(-0.00785213 -0.000480035 -0.157998)
(-0.000500655 -2.01619e-06 -0.174434)
(-0.00346474 0.000115188 -0.126487)
(-0.0644951 -0.00525552 -0.0842709)
(-0.0183208 -0.000961434 -0.189223)
(-0.0308917 -0.00134744 -0.236034)
(-0.0163632 -0.00073095 -0.208623)
(-0.03746 -0.00120122 -0.25391)
(-0.111548 -0.0139748 -0.00933863)
(-0.00114402 0.000807801 -0.0240933)
(-0.000906214 -2.88009e-05 -0.161095)
(-0.00122983 -2.00891e-05 -0.154787)
(-0.00195087 -0.00155991 -0.0111842)
(-0.00535091 -0.000113931 -0.149956)
(-0.00282172 -0.00205359 -0.0610794)
(-0.00140145 -0.000118759 -0.156303)
(-0.033935 -0.00182598 -0.00875014)
(-0.00758667 -9.25015e-06 -0.145025)
(-0.0031138 -0.000214448 -0.157686)
(-0.00137837 -0.00249173 -0.0915503)
(-0.00170564 -0.00301879 -0.110433)
(-0.236294 -0.0042664 0.0980755)
(-0.00235699 -0.00225123 -0.0158511)
(-0.309526 -0.0227052 0.225747)
(-0.502903 -0.03553 0.163786)
(0.00112032 -0.00601102 -0.0673434)
(0.00341719 0.00383187 -0.0629599)
(-0.0017766 -0.00450642 -0.0344773)
(-0.00547799 -0.000789693 0.00027933)
(-0.0047763 -0.000197127 -0.00104157)
(-1.13471 0.305134 -38.1969)
(-0.3654 -0.0989715 -70.3465)
(-3.14347 -0.246001 0.315111)
(-0.0164868 -0.000290665 -0.185203)
(-0.0313389 -0.00223425 -0.204351)
(-0.0177117 -0.00128614 -0.185258)
(-0.030065 -0.000427651 -0.197871)
(-0.34852 -0.0264517 0.133465)
(-0.738968 -0.0576505 -0.962974)
(-0.161401 -0.0105857 -0.161119)
(-0.000376797 0.000169644 -0.00106305)
(-0.670572 -0.050596 0.0642663)
(0.0078333 0.000580073 -0.168388)
(-0.00479406 -0.000113005 -0.173568)
(-0.0026415 0.000289681 -0.158321)
(-0.155374 -0.00272705 -0.100352)
(3.72553e-05 3.03379e-05 -0.141198)
(-0.176122 -0.00331721 -0.115488)
(-0.186662 -0.00983374 -0.120248)
(-0.162731 -0.0110262 -0.124554)
(-0.359128 -0.248567 -57.3548)
(-0.00474514 -0.00274356 -0.0458804)
(-0.161764 -0.0027436 -0.115256)
(-0.0287766 -0.000450888 -0.201866)
(0.000252749 -0.00093474 -0.0266576)
(-0.180507 -0.0128818 -0.0716394)
(-0.0128474 -0.000913424 -0.180801)
(4.44599e-05 -0.00321186 -0.0442526)
(-0.000109551 4.48145e-05 -0.000100788)
(-0.152316 -0.0110506 0.125956)
(-0.0809583 -0.00482549 -0.0391874)
(-0.301102 -0.0100146 -0.0880541)
(-0.152057 -0.00985757 -0.0136933)
(-0.0907297 -0.00437447 -0.0267443)
(-0.283321 -0.0214254 0.100591)
(-0.000178109 2.45883e-05 -0.000401208)
(-0.207159 -0.0128182 0.127263)
(-0.0202564 -0.00016349 -0.0246437)
(-0.222555 -0.0118842 0.144797)
(-0.244948 -0.0189416 0.161953)
(0.00144866 -0.0018965 -0.011093)
(-0.917839 -0.066327 0.484477)
(-0.0867974 -0.00287166 -0.0418809)
(-0.0724826 -0.00195924 -0.172983)
(0.00220273 -0.0014045 -0.0166122)
(-0.00227911 -0.000470082 -0.14378)
(-0.000618502 -6.26186e-06 -6.17156e-05)
(-0.0830897 -0.00665297 -0.00738707)
(-0.421984 -0.030477 0.126777)
(-0.0944956 -0.00198386 -0.0340634)
(0.00126978 -0.308493 -56.6508)
(-0.0019445 0.00112025 -0.102239)
(0.00155513 -0.00086602 -0.0205952)
(-0.108926 -0.00543373 -0.0371834)
(-0.112578 -0.0025109 -0.0347757)
(0.000289593 0.0030229 -0.0701005)
(-0.00317645 -0.00110001 -0.134885)
(0.000219212 5.4881e-06 -0.104387)
(-0.00953748 -0.000674065 -0.158509)
(-0.438704 -0.0353124 0.0271651)
(-0.0140637 -0.000526131 -0.166588)
(-0.266091 -0.011265 -0.131821)
(-0.141028 -0.00514659 -0.215627)
(-0.00244421 -0.000106412 -0.159517)
(-0.307834 -0.00609601 -0.101651)
(-0.0110409 -0.000182292 -0.165467)
(-0.276952 -0.00766397 0.0514766)
(-0.0220392 -0.000752862 -0.240007)
(-0.16165 -0.00217148 -0.539511)
(-0.169179 -0.00259906 -0.552557)
(-0.0181209 -9.58112e-05 -0.249472)
(0.00161421 0.000193791 -0.162019)
(-0.000257809 -4.31043e-05 -0.161385)
(0.00434219 9.42667e-05 -0.165214)
(0.00848263 0.000158144 -0.170893)
(0.00771377 0.000140344 -0.168054)
(0.00198598 -0.00173267 -0.0136771)
(-0.00327645 -0.000263555 -0.157942)
(-0.00450234 -6.28254e-06 -0.152798)
(-0.00310382 0.000907324 -0.131775)
(-0.0182885 -0.00132327 -0.150937)
(-0.00243856 -0.00239078 -0.0183275)
(-0.020536 -0.00161577 -0.131284)
(-0.118761 -0.00689059 -0.0645536)
(-0.890997 -0.0545518 0.146632)
(-0.146114 -0.00723449 -0.103819)
(-0.824991 -0.0531328 0.5007)
(0.974313 0.0486004 -43.6167)
(-0.463741 -0.0307969 -39.5836)
(-0.364111 -0.0136525 0.0511364)
(0.0829331 0.20483 -64.2545)
(-0.324094 -0.0217517 0.146491)
(-0.658063 -0.012954 0.482351)
(0.986689 0.0103316 -69.6799)
(0.515558 0.223237 -65.0997)
(0.13199 0.340034 -55.2088)
(-0.660565 -0.00187458 0.378927)
(-0.0433455 -0.00303324 -0.20586)
(-0.0406375 -0.00188968 -0.203826)
(-0.00131026 -0.000113344 -0.111493)
(-0.00310646 7.02574e-05 -0.159459)
(-0.00861181 -0.000103313 -0.167933)
(-0.0069753 0.00105506 -0.119588)
(0.00193953 0.00369596 -0.0641383)
(-1.80917 -0.12446 0.0225817)
(-0.0172857 -0.00127927 -0.159216)
(-0.00560963 -0.000130447 -0.170055)
(-0.0102069 -0.000373756 -0.157891)
(-0.00475832 -0.00309827 -0.065004)
(-0.00334792 -0.0025861 -0.0372936)
(-0.0215806 -0.00217945 -0.0742051)
(-0.0178089 -0.00116917 -0.0979387)
(-0.0110174 -0.000425345 -0.0830978)
(-0.000845684 -0.000645504 -0.00387982)
(-0.000696108 0.000295332 -0.00813853)
(-0.0012803 3.67884e-05 -0.144202)
(-0.244836 -0.0170512 -0.135171)
(-0.00341544 -0.000305425 -0.167893)
(-0.10186 -0.00357809 -0.201525)
(-0.00743772 -5.3952e-05 -0.170116)
(0.000884976 -0.00280695 -0.0365847)
(-0.0947207 -0.00187775 -0.059586)
(-0.275061 -0.00671119 -0.499578)
(-0.102118 -0.00139233 -0.269944)
(-0.0211509 -0.000895394 -0.140991)
(-0.00803313 -0.00247769 -0.0886156)
(-0.186555 -0.00346738 -0.223089)
(0.729624 0.033229 -70.3064)
(-0.000766066 -3.57961e-05 -0.160367)
(-0.00109392 -2.012e-05 -0.161744)
(-0.00150416 -5.7842e-05 -0.161249)
(0.00019969 1.30155e-05 -0.162347)
(-2.13326 -0.0181284 0.0186433)
(-0.290364 -0.00750369 -0.274526)
(-0.952674 -0.0133371 -0.543095)
(0.00209159 -0.00102278 -0.0140177)
(0.000924699 -0.00628315 -0.0596763)
(-0.0315058 -0.00115815 -0.212578)
(-0.598065 -0.0402383 -0.149465)
(0.00142042 6.68424e-05 -0.165487)
(-0.00311434 -0.000329895 -0.156221)
(0.00118122 5.99635e-05 -0.164364)
(-0.662636 -0.0341153 0.235092)
(-0.000787095 0.00150964 -0.116544)
(-0.22997 -0.00600486 -0.190379)
(-0.027809 -0.000466611 -0.177508)
(-1.97781 -0.117929 -0.0857567)
(-0.0103502 -0.000168589 -0.172174)
(-0.00945712 -0.000491133 -0.171246)
(-0.011984 -0.000263306 -0.171875)
(-24.839 -0.0959414 -9.51029)
(-0.0127146 -0.000472077 -0.17108)
(-0.0017627 0.000113153 -0.153203)
(-1.58342 -0.110121 0.00196127)
(-1.03549 -0.0220893 -0.162445)
(-0.524414 -0.0285875 -0.257195)
(-0.0111389 0.000248781 -0.0992802)
(-0.582038 -0.00999126 -0.261804)
(-1.12312 -0.0910355 -1.31079)
(-0.293946 -0.0179344 -0.465271)
(-1.51559 0.258273 -32.0965)
(-0.0462437 -0.00298755 -0.236818)
(-0.503483 -0.00197962 -0.082569)
(-0.0635548 -0.000865442 -0.26921)
(-2.02607 -0.0111025 0.00468021)
(-0.00217184 -2.48771e-05 -0.15154)
(1.79941 0.136392 -45.2247)
(-0.0704051 -0.00451727 -0.275086)
(-0.0548011 -0.0035389 -0.0685662)
(-0.0507275 -0.00182618 -0.0537772)
(-0.0177475 0.00103354 -0.0459259)
(1.44989 0.071314 -70.3557)
(-0.08841 -0.00157368 -0.251443)
(-0.0876099 -0.00413535 -0.24665)
(-0.0808527 -0.00372902 -0.110417)
(-0.38846 -0.011288 -0.0344401)
(-0.0815997 -0.00199639 -0.115677)
(-0.083164 -0.00392952 -0.0920428)
(-0.0935781 -0.00543312 -0.0975829)
(-0.0915602 -0.00723799 -0.0920945)
(-0.00666251 -0.000452481 -0.173397)
(0.000591662 -0.000311219 -0.0237712)
(-0.00399764 0.0096113 -0.100748)
(0.00123876 7.06776e-05 -0.174013)
(-0.00334368 0.000754613 -0.110025)
(-0.323527 -0.0209088 0.0652434)
(-0.785116 0.0195775 -38.3844)
(-0.000500633 -4.57048e-06 -0.161289)
(-0.00339192 -7.36177e-05 -0.161187)
(0.00466453 0.000167075 -0.104627)
(-0.00456995 -0.000170641 -0.161498)
(-0.00742956 0.00140833 -0.0646578)
(0.455866 -0.0586549 -60.165)
(0.00379706 5.98369e-05 -0.165127)
(0.363464 -0.203893 -52.9481)
(-0.0170852 -0.000170206 -0.191903)
(-0.145237 -0.010976 -0.0963361)
(-0.354401 -0.0469511 -35.0418)
(0.386444 -0.253174 -48.0918)
(-0.000461128 -0.000703988 -0.0261979)
(-0.026833 0.00120321 -0.0985592)
(0.517476 -0.237369 -46.1085)
(-0.153949 -0.0113202 -0.0891402)
(-0.00955882 -0.000540919 -0.0534012)
(-0.132471 -0.00648687 -0.09774)
(-0.673146 -0.00534378 -0.133723)
(-0.010872 -0.000707021 -0.0057333)
(-0.150834 -0.00638515 -0.150853)
(-0.00385698 -0.000295254 -0.162522)
(-0.758669 -0.0514411 -41.8912)
(-0.0673145 -0.00152405 -0.173659)
(-0.050943 -0.00203055 -0.187992)
(-0.0473242 -0.00325494 -0.183383)
(-0.820365 -0.0417242 0.0544787)
(-0.0560937 -0.000976653 -0.187482)
(-0.401089 -0.0315181 -0.185485)
(-0.368628 -0.0127185 -0.112892)
(-0.170009 -0.0121478 0.108397)
(-0.16683 -0.013384 0.0973334)
(-5.81356e-05 0.000313955 -0.0112097)
(-0.137921 -0.00484227 0.0928413)
(-0.595112 -0.0464903 0.0255024)
(0.0140888 0.000279262 -0.157166)
(1.23603 0.780245 -29.576)
(-0.405721 0.151823 -61.9517)
(-0.0101656 -0.000240758 -0.159939)
(0.986657 0.0185094 -69.6797)
(-0.00243469 -5.8015e-05 -0.157362)
(-0.659974 -0.315525 -41.9806)
(-1.76887 0.0855857 1.22027)
(0.63116 -0.0874917 -60.115)
(-0.128348 -0.000740513 -0.0235798)
(-0.17567 -0.00444217 0.166903)
(-0.0601804 -0.00206862 -0.307989)
(-0.379584 -0.00718993 -0.12799)
(-0.0784077 -0.00110629 -0.103175)
(-0.069783 -0.00374237 -0.0884907)
(-0.229352 -0.0116583 -0.124568)
(-0.209091 -0.0145125 -0.50486)
(-0.0824389 -0.00208175 -0.0442572)
(-0.0644211 -0.00095781 -0.0977949)
(-0.0886667 -0.00381135 -0.0788941)
(0.00236617 2.18348e-05 -0.175892)
(1.36936 0.0631985 -71.6722)
(-0.00189759 -8.38829e-06 -0.156555)
(-0.00412702 -0.000236518 -0.160369)
(-0.00250647 -0.0001544 -0.161507)
(-0.00711017 -1.05076e-05 -0.155204)
(-0.00374424 -0.00028078 -0.16044)
(-0.00646469 -0.00118211 -0.138185)
(-0.0075753 -0.000147667 -0.162225)
(-0.0101174 -0.000721101 -0.179193)
(-0.0214064 -0.00114756 -0.158092)
(-0.00436008 -0.00106766 -0.141491)
(-0.042495 -0.00294433 -0.130806)
(-0.0374512 -0.00207896 -0.132296)
(0.00196837 -0.00357739 -0.0155376)
(-0.0475878 -0.000354329 -0.130619)
(-0.00178071 -0.00189971 -0.0134112)
(0.00178947 -0.00133045 -0.0199715)
(-0.000858894 0.000494882 -0.0170834)
(-0.00340991 -0.000767342 -0.143588)
(-0.00387315 -0.00137924 -0.141533)
(0.000299703 0.000266939 -0.0288085)
(-0.0120442 -0.000800307 -0.166901)
(-0.000557983 0.000192626 -0.0043624)
(-0.000188551 2.18975e-05 -0.00122093)
(0.000149546 -0.000317963 -0.00173338)
(-0.00977624 0.000727172 -0.00140815)
(-0.00196562 -0.00110623 -0.116247)
(-0.0115691 0.000740924 -0.00181645)
(-0.279852 -0.00651838 0.198482)
(-0.00627555 -3.32732e-05 -0.000829616)
(-0.00363948 -0.000270508 -0.000857055)
(-0.279616 -0.00558393 -0.0392635)
(-0.192069 -0.00583629 -0.0185934)
(-0.0116726 -0.000504052 -0.168159)
(-0.00205984 5.11296e-05 -0.0189312)
(-0.0038971 0.000697565 -0.0211312)
(-3.64948e-05 0.000578046 -0.00249109)
(-0.00421488 -0.00025862 -0.165619)
(-0.000568939 -0.00129614 -0.00674651)
(-1.28061 -0.0180219 -0.0420015)
(1.94811 0.803977 -29.5687)
(-0.00489683 -0.000348364 -0.14634)
(3.21046 0.843067 -37.7047)
(-0.00441216 -0.000520202 -0.140102)
(-0.00162072 -0.00054515 -0.144715)
(0.00161698 3.34565e-05 -0.172021)
(-0.427301 -0.0238832 -0.173681)
(-0.324021 -0.0050584 -0.319973)
(-0.082541 -0.00157548 0.0085697)
(-0.00635311 0.000508796 -0.146425)
(0.00211413 0.000236839 -0.167956)
(-0.00570682 4.97009e-05 -0.146235)
(-0.120859 -0.00831105 0.119077)
(-0.0282447 -0.00126705 -0.270968)
(-0.0329 -0.000701828 -0.321436)
(0.774678 0.0369631 -69.9747)
(-0.532593 -0.0354679 -0.221972)
(-0.19027 -0.00279655 -0.0868362)
(-0.0318348 0.000812771 -0.050343)
(-0.00398382 -0.000221334 -0.161577)
(-0.0024561 -0.00016936 -0.153148)
(-0.00377052 -0.0001743 -0.160028)
(-0.0035882 -8.70024e-05 -0.163993)
(-0.056033 -0.00394851 -0.165859)
(-0.0825225 -0.00112102 -0.153625)
(-0.0186506 -0.000946261 -0.167445)
(-0.00561014 -0.000953673 -0.13893)
(-0.191628 -0.0077587 0.182086)
(-0.00442892 -0.000208653 -0.163139)
(-0.00387753 -0.000234194 -0.162794)
(-0.00755687 -0.000512309 -0.166055)
(-0.00726537 -0.000242715 -0.164963)
(-0.0737771 -0.00290651 -0.128468)
(-0.0774414 -0.00208818 -0.125757)
(-0.0183363 -0.000309884 -0.189287)
(-0.0960267 -0.00752293 -0.107539)
(-0.00197638 0.00012268 -0.146722)
(-0.286053 -0.0133177 -0.104391)
(-0.00188549 0.000305769 -0.0203062)
(-0.015827 -0.00113184 -0.152684)
(-1.27889 -0.0264245 0.0576555)
(-1.3747 -0.0711407 -0.066819)
(-1.13141 -0.0981711 -0.0543152)
(-0.992544 -0.0625111 -0.0237277)
(-0.104967 -0.0115725 0.010018)
(-0.00118846 0.000118585 -9.51501e-06)
(0.270631 -0.00521884 -44.8409)
(0.745676 0.0012706 -67.6175)
(-0.209773 -0.014876 0.0843812)
(-0.222132 -0.00920603 -0.0852242)
(-0.0022524 0.000234119 -0.00866549)
(-0.384397 -0.0341738 -0.0587872)
(-0.137189 -0.00432017 -0.247005)