/*--------------------------------*- C++ -*----------------------------------*\
| =========                 |                                                 |
| \\      /  F ield         | OpenFOAM: The Open Source CFD Toolbox           |
|  \\    /   O peration     | Version:  v2012                                 |
|   \\  /    A nd           | Website:  www.openfoam.com                      |
|    \\/     M anipulation  |                                                 |
\*---------------------------------------------------------------------------*/
FoamFile
{
    version     2.0;
    format      ascii;
    class       volScalarField;
    location    "0.4";
    object      alpha.water;
}
// * * * * * * * * * * * * * * * * * * * * * * * * * * * * * * * * * * * * * //

dimensions      [0 0 0 0 0 0 0];


internalField   nonuniform List<scalar> 
3326
(
4.86295e-41
5.00196e-42
9.86672e-42
2.93207e-46
4.75894e-49
4.93556e-53
6.66425e-61
5.53938e-61
1.83717e-61
2.19586e-25
1.04715e-26
1.61955e-38
1.12448e-41
3.17455e-42
3.16819e-42
3.92031e-49
3.91802e-49
3.95727e-57
3.95614e-57
3.20472e-62
3.06993e-62
7.41105e-15
3.73772e-15
2.96458e-15
3.0459e-15
2.99877e-15
3.36563e-15
4.9017e-15
4.04131e-15
3.03979e-15
1.00319e-14
1.19521e-14
9.94217e-15
3.24784e-15
3.0394e-15
5.5956e-15
1.07634e-14
1.07412e-14
1.07382e-14
1.03794e-14
5.3129e-15
5.47552e-15
6.67654e-15
5.80836e-15
3.00674e-24
-2.70519e-31
-5.78612e-41
-1.04947e-56
5.00196e-26
4.60718e-26
-6.31254e-52
-1.29214e-51
-7.58984e-45
2.10977e-23
1.32054e-24
3.9646e-36
3.53323e-39
4.68967e-40
9.15498e-40
1.35009e-45
1.0584e-46
2.90594e-51
2.5619e-54
5.08815e-58
3.70517e-63
5.32584e-63
3.92786e-15
3.75144e-15
5.13923e-15
3.3091e-15
2.97055e-15
3.03137e-15
3.80056e-15
1.78946e-14
2.32973e-14
6.89486e-15
1.02358e-14
1.09308e-14
4.78236e-15
3.03939e-15
3.93226e-15
1.02858e-14
1.07409e-14
1.07371e-14
9.08386e-15
4.71065e-15
4.77409e-15
6.53874e-15
6.73993e-15
3.11802e-15
7.65833e-25
-8.72049e-32
-3.85751e-41
8.7891e-26
3.55916e-25
-5.55698e-36
1.72711e-43
1.31907e-21
1.039e-22
5.79032e-34
5.97214e-37
5.69642e-38
1.07014e-37
1.05117e-39
7.76969e-48
4.32031e-47
3.53492e-55
1.83377e-54
8.17129e-64
3.70496e-63
3.92056e-64
2.22554e-14
3.72092e-14
1.90066e-14
2.96268e-15
2.97334e-15
3.01815e-15
3.01854e-15
1.99607e-14
5.57708e-14
5.32679e-14
4.1907e-15
6.05463e-15
3.61578e-15
3.03936e-15
3.11232e-15
4.57237e-15
6.77657e-15
6.18548e-15
4.14649e-15
4.15192e-15
4.52604e-15
6.70804e-15
6.80175e-15
6.67764e-15
1.61991e-15
7.65833e-25
7.86153e-26
5.75096e-25
6.57169e-26
1.28137e-28
5.04391e-20
5.28964e-21
5.20764e-32
1.32491e-34
6.54929e-35
7.73122e-35
2.65424e-42
3.80954e-41
4.34354e-49
6.47635e-48
8.10457e-56
1.618e-55
3.17191e-64
3.20941e-64
2.34406e-65
6.0898e-14
5.97259e-14
1.94339e-14
2.96289e-15
3.04028e-15
3.55221e-15
5.61511e-15
1.19781e-14
5.29697e-14
6.13938e-14
3.80381e-14
3.041e-15
3.03943e-15
3.03939e-15
3.03976e-15
3.69237e-15
3.93396e-15
3.93314e-15
3.93314e-15
7.47194e-15
9.13058e-15
7.03931e-15
6.68242e-15
6.77914e-15
3.88092e-15
3.44103e-23
8.18585e-25
1.04604e-24
2.27612e-25
1.25584e-18
1.66921e-19
2.82847e-30
5.80245e-33
1.37791e-33
2.10735e-33
1.37956e-35
2.40455e-43
7.39494e-43
2.05382e-50
1.44592e-49
6.96822e-54
6.46299e-62
5.48836e-61
2.70301e-67
6.57116e-67
6.11434e-14
3.14951e-14
2.96363e-15
2.96376e-15
2.96446e-15
3.56807e-15
9.54435e-15
1.07553e-14
1.34431e-14
5.23284e-14
6.2496e-14
3.50413e-14
3.08622e-15
3.03976e-15
4.43196e-15
4.0405e-15
3.93314e-15
5.0469e-15
1.11593e-14
1.50728e-14
1.05902e-14
5.47253e-15
6.62456e-15
6.79463e-15
3.9694e-15
1.32031e-21
3.44103e-23
1.46798e-24
1.76853e-17
3.32606e-18
9.49018e-29
2.23411e-31
4.51075e-32
7.27962e-32
2.22128e-37
2.21601e-37
1.31842e-43
1.31664e-43
7.44945e-52
8.53874e-51
4.92293e-55
2.29508e-62
2.35565e-62
1.18601e-67
1.31904e-67
3.55027e-14
2.96558e-15
2.96466e-15
2.96579e-15
2.96517e-15
3.05771e-15
6.24308e-15
8.56857e-15
9.74017e-15
1.28415e-14
5.90527e-14
6.30502e-14
4.81607e-14
4.21758e-14
2.85286e-14
3.53178e-15
6.7524e-15
1.43712e-14
1.5254e-14
1.50744e-14
8.06576e-15
5.34801e-15
6.78489e-15
6.79416e-15
3.22767e-15
1.82804e-18
1.48138e-19
1.46154e-16
3.37931e-17
1.57866e-27
4.44004e-30
8.93727e-31
2.72613e-30
2.26498e-36
3.29584e-36
1.38753e-42
1.38348e-42
1.66542e-45
1.29498e-52
2.55529e-52
6.91353e-61
1.27341e-60
1.33185e-64
1.14192e-67
1.15268e-67
2.97192e-15
2.96703e-15
2.96542e-15
2.96524e-15
2.96522e-15
2.9769e-15
3.01748e-15
3.87137e-15
7.96845e-15
6.02475e-15
1.36857e-14
6.29228e-14
6.42144e-14
6.34303e-14
3.28795e-14
3.23943e-15
1.00432e-14
1.5254e-14
1.5254e-14
1.50081e-14
7.72346e-15
5.57614e-15
5.88751e-15
5.75491e-15
2.97945e-15
2.87362e-15
2.98011e-15
7.94364e-16
7.73283e-26
1.92763e-27
3.08699e-27
1.45666e-32
1.49022e-32
3.27281e-36
1.08365e-38
1.23539e-41
1.67586e-47
1.21698e-47
9.10795e-52
5.40858e-55
6.17055e-58
3.54283e-66
1.13332e-67
1.13255e-67
1.12197e-67
4.29803e-15
3.36177e-15
4.41824e-15
3.69916e-15
2.96524e-15
2.9717e-15
2.98666e-15
3.02384e-15
4.0898e-15
4.02977e-15
4.34503e-15
2.01697e-14
6.42144e-14
6.35764e-14
2.81273e-14
3.22675e-15
4.96778e-15
1.52422e-14
1.5254e-14
1.523e-14
1.27142e-14
4.57736e-15
4.79456e-15
4.71555e-15
4.52332e-15
4.58628e-15
4.4582e-15
8.98653e-16
8.803e-26
1.90963e-28
3.62314e-31
1.2498e-32
1.18606e-32
2.06325e-36
1.07711e-38
1.4012e-41
1.15914e-47
8.08112e-48
1.82276e-51
8.28139e-55
1.34067e-57
6.32366e-66
5.87878e-66
3.54465e-66
3.35143e-68
5.14111e-15
2.10084e-14
6.74214e-14
6.29855e-14
1.70277e-14
2.97188e-15
2.97529e-15
3.00957e-15
3.01413e-15
3.23915e-15
3.47325e-15
4.82317e-15
3.93563e-14
6.35614e-14
3.11481e-14
3.22675e-15
3.22675e-15
9.84288e-15
1.5254e-14
1.5254e-14
1.36271e-14
4.19507e-15
4.49836e-15
5.03299e-15
4.6124e-15
4.61305e-15
4.04876e-15
2.83322e-16
2.39006e-26
5.35898e-29
1.18821e-30
1.44461e-30
1.29171e-32
1.42797e-38
2.62229e-38
2.89513e-42
9.73426e-48
1.63535e-47
1.81451e-54
1.92723e-54
4.26165e-59
2.45722e-62
3.76943e-67
2.76566e-69
1.0085e-68
3.21885e-15
2.59112e-14
8.30089e-14
8.27387e-14
6.46267e-14
6.61273e-15
3.43167e-15
3.00975e-15
3.01261e-15
3.02653e-15
3.10366e-15
4.03772e-15
6.71734e-15
3.24479e-14
2.36035e-14
3.26561e-15
3.22675e-15
3.89465e-15
1.40795e-14
1.3419e-14
6.80599e-15
3.69241e-15
5.77081e-15
5.64806e-15
4.5982e-15
4.5959e-15
2.66501e-15
3.88761e-25
1.04882e-27
4.59415e-29
4.33712e-29
1.67775e-34
1.66377e-34
3.37931e-38
1.14282e-40
1.94321e-43
1.5374e-49
1.17539e-49
1.83172e-53
1.2675e-57
4.22001e-60
5.83653e-65
8.63343e-69
1.81989e-69
1.94558e-69
3.20357e-15
4.50734e-15
3.69738e-14
6.14413e-14
5.37406e-14
1.71537e-14
2.04921e-14
1.75504e-14
6.09535e-14
6.52264e-14
3.31313e-14
4.04628e-15
4.52369e-15
5.22393e-15
4.21213e-15
3.40134e-15
3.64021e-15
3.7592e-15
5.02768e-15
4.11657e-15
3.77626e-15
4.02136e-15
6.6643e-15
5.61744e-15
4.58599e-15
4.58628e-15
2.52205e-15
3.6181e-25
9.58434e-28
4.01917e-29
3.96554e-29
1.41569e-34
1.45269e-34
3.02954e-38
8.77284e-41
1.48317e-43
1.06807e-49
8.03744e-50
1.48826e-53
8.81388e-58
2.26947e-60
2.90359e-64
2.11893e-65
2.41651e-70
3.70089e-70
3.48151e-15
3.39788e-15
4.28832e-15
7.00508e-15
7.49045e-15
9.06327e-15
2.26066e-14
5.19329e-14
1.65544e-13
1.60899e-13
1.34063e-13
1.18191e-14
4.26051e-15
4.31549e-15
3.22555e-15
3.64682e-15
3.8292e-15
3.75968e-15
3.23752e-15
3.20787e-15
4.34325e-15
1.08937e-14
8.01559e-15
4.6188e-15
4.65231e-15
4.6538e-15
2.45442e-15
3.40693e-25
8.7662e-28
3.42017e-29
3.21427e-29
1.15436e-34
1.17575e-34
2.38443e-38
7.337e-41
1.14223e-43
7.8287e-50
5.92874e-50
1.07075e-53
1.20248e-57
1.19969e-60
3.76654e-64
2.29778e-70
2.41644e-70
2.44839e-70
3.50917e-15
3.4803e-15
3.48082e-15
3.48098e-15
6.62747e-15
7.01517e-15
1.46735e-14
4.41201e-14
1.36944e-13
1.31519e-13
1.23817e-13
7.30528e-14
4.23377e-15
3.69647e-15
3.21878e-15
3.20368e-15
3.20348e-15
3.20348e-15
3.20348e-15
4.14524e-15
1.40014e-14
1.31515e-14
6.08418e-15
4.61623e-15
4.64344e-15
4.65355e-15
2.10997e-15
2.74186e-25
6.94916e-28
2.68476e-29
2.97882e-29
8.61191e-35
9.72415e-35
2.08887e-38
4.85196e-41
8.93835e-44
5.22964e-50
3.98432e-50
8.5668e-54
5.90504e-58
9.55596e-61
4.59984e-65
2.03188e-70
2.17876e-70
2.22823e-70
3.44598e-15
3.4781e-15
3.46931e-15
4.11021e-15
1.40798e-14
2.17692e-14
2.3841e-14
1.68577e-14
1.93063e-14
2.19755e-14
3.21236e-14
8.42696e-14
3.2784e-14
3.29629e-15
3.2675e-15
6.96654e-15
1.45447e-14
1.00566e-14
4.78447e-15
1.55842e-14
1.5442e-14
8.1603e-15
5.49386e-15
5.49632e-15
4.78166e-15
4.37822e-15
1.76181e-15
2.15456e-25
5.23778e-28
1.96521e-29
1.84884e-29
6.59893e-35
6.36577e-35
1.32096e-38
3.63103e-41
5.44585e-44
3.36266e-50
2.62704e-50
5.81524e-54
5.41875e-61
3.78077e-61
6.16689e-65
1.88434e-70
1.96883e-70
1.98236e-70
3.36709e-15
3.46499e-15
4.09519e-15
5.65083e-15
1.18103e-14
2.30583e-14
2.8538e-14
1.30455e-14
1.3217e-14
1.35467e-14
1.68006e-13
9.19512e-14
2.61391e-14
3.34132e-15
1.15596e-14
2.83601e-14
2.92895e-14
2.67198e-14
2.01315e-14
1.87298e-14
1.52275e-14
5.50966e-15
5.86906e-15
5.77433e-15
4.83823e-15
4.30649e-15
1.79496e-15
2.02992e-25
4.83297e-28
2.19697e-29
2.1131e-29
6.34872e-35
6.2289e-35
1.34438e-38
2.58827e-41
4.35855e-44
2.06447e-50
1.56516e-50
4.11956e-54
2.54538e-61
1.65359e-61
6.15018e-65
1.86414e-70
1.88391e-70
1.85364e-70
3.35928e-15
3.45975e-15
4.30049e-15
5.2369e-15
5.29797e-15
7.66362e-15
8.62547e-15
8.72158e-15
5.88903e-14
6.19214e-13
4.32177e-13
7.49116e-15
6.37515e-15
6.37466e-15
1.43406e-14
2.54331e-14
2.30891e-14
1.84308e-14
1.91497e-14
1.48368e-14
3.88506e-15
5.234e-15
5.75022e-15
5.06816e-15
4.55404e-15
4.70123e-15
2.68251e-15
2.87201e-25
6.4425e-28
1.72385e-29
1.9803e-29
6.26532e-35
6.0996e-35
1.20294e-38
3.07212e-41
4.89242e-44
2.22405e-50
2.3999e-50
5.09805e-54
1.37164e-61
1.57392e-61
2.52077e-65
1.84315e-70
1.84435e-70
1.84194e-70
3.22865e-15
3.32143e-15
4.03214e-15
4.52878e-15
4.60852e-15
4.64919e-15
4.65094e-15
3.19309e-13
1.59676e-12
1.21323e-12
1.65422e-13
7.59184e-15
7.9406e-15
-3.80287e-15
-1.72821e-14
-1.76813e-14
-1.92101e-14
-1.56961e-14
-7.57047e-15
-2.83322e-15
2.04701e-15
5.58899e-15
5.58871e-15
4.98305e-15
4.88219e-15
4.88379e-15
1.32102e-15
1.1964e-25
2.61818e-28
7.85797e-30
1.10407e-29
3.59442e-35
5.8405e-35
6.20368e-39
8.55572e-42
3.88611e-44
6.91521e-51
1.01869e-50
2.03953e-54
4.82434e-62
4.29931e-62
6.75148e-66
1.84195e-70
1.84195e-70
1.84194e-70
8.07254e-15
1.65879e-14
4.03883e-15
4.49276e-15
4.59658e-15
4.59748e-15
1.00132e-13
2.09085e-12
1.98177e-12
2.88653e-13
8.48006e-15
1.28701e-14
3.72674e-14
-2.78743e-14
-9.32773e-14
-1.19491e-13
-1.08022e-13
-7.56747e-14
-4.15644e-14
-1.6821e-14
-2.00756e-15
5.3347e-15
5.52439e-15
4.96125e-15
4.99433e-15
4.64152e-15
3.11152e-16
2.49502e-26
5.32441e-29
2.62226e-30
3.46898e-30
7.12393e-36
1.16956e-35
9.40821e-40
1.8578e-42
6.01964e-45
1.01037e-51
1.49329e-51
2.69765e-55
3.1907e-60
6.31229e-60
3.67245e-69
3.67243e-69
5.30764e-69
3.96439e-70
1.67155e-12
6.9821e-13
4.08096e-15
4.52741e-15
4.59555e-15
4.59944e-15
7.67574e-13
2.325e-12
5.55471e-13
1.19131e-14
1.1733e-14
1.42561e-13
4.08397e-14
-1.31961e-13
-2.74747e-13
-3.24938e-13
-2.86606e-13
-2.00943e-13
-1.12786e-13
-4.83245e-14
-1.29263e-14
1.71231e-15
5.52361e-15
5.02155e-15
5.02591e-15
4.22478e-15
7.95266e-17
5.98654e-27
1.28208e-29
1.49643e-30
1.54174e-30
1.22181e-36
2.23281e-36
1.36077e-40
7.84062e-43
8.901e-46
1.47386e-52
2.23256e-52
4.35131e-56
2.20999e-58
2.40711e-58
2.3295e-60
3.67245e-69
7.68515e-68
3.13081e-69
2.34165e-12
8.9821e-13
4.3556e-15
4.55752e-15
4.58525e-15
4.62687e-15
1.27631e-12
4.69512e-13
1.48132e-14
1.4454e-14
1.30378e-14
1.7315e-13
-8.52098e-14
-4.08506e-13
-6.43417e-13
-7.0687e-13
-6.10143e-13
-4.27433e-13
-2.42898e-13
-1.08623e-13
-3.47207e-14
-4.83078e-15
4.72639e-15
5.07706e-15
5.07706e-15
3.46676e-15
6.60786e-19
7.82439e-28
6.49538e-30
4.86925e-30
7.8616e-32
1.27097e-37
1.52532e-37
2.14937e-41
4.20421e-44
8.12809e-47
3.24485e-53
3.11014e-53
6.24813e-58
4.66654e-58
4.68326e-58
9.42855e-60
5.87266e-69
9.31907e-67
4.85802e-69
1.77237e-12
1.55892e-14
5.78087e-15
4.67996e-15
4.67413e-13
2.65697e-12
2.24001e-12
9.90288e-14
1.55449e-14
1.69731e-14
4.40939e-13
1.16698e-14
-4.44919e-13
-9.64166e-13
-1.31034e-12
-1.36576e-12
-1.15452e-12
-8.03523e-13
-4.58418e-13
-2.0955e-13
-7.23488e-14
-1.54761e-14
1.45266e-15
5.07706e-15
4.88129e-15
3.06312e-15
2.73523e-25
5.50183e-28
7.92463e-30
7.01501e-30
3.05999e-32
8.71864e-38
8.96888e-38
1.18372e-41
1.1773e-44
3.20993e-47
1.70203e-51
4.83021e-51
3.14108e-58
9.63076e-58
1.07695e-57
2.72992e-59
7.47461e-69
2.79357e-66
1.86279e-68
4.35955e-13
3.88283e-12
3.47726e-12
6.52065e-12
3.95306e-12
4.89026e-12
2.91884e-12
2.35019e-14
1.75151e-14
9.31997e-13
6.15098e-13
-1.29499e-13
-1.05332e-12
-1.90892e-12
-2.41826e-12
-2.43494e-12
-2.01918e-12
-1.39006e-12
-7.90128e-13
-3.64088e-13
-1.30596e-13
-3.26511e-14
-2.83911e-15
4.57692e-15
4.51729e-15
3.35182e-15
4.55697e-18
5.24205e-28
5.85811e-30
4.93006e-30
5.38333e-32
7.25538e-38
7.21639e-38
5.37923e-42
1.41163e-44
1.77722e-47
3.46675e-54
3.18749e-54
1.58155e-58
1.58154e-58
1.58152e-58
1.21792e-60
6.91823e-68
6.96572e-68
6.84133e-68
1.48283e-12
3.4588e-11
5.49028e-11
3.89282e-11
2.79074e-12
3.51103e-12
1.63129e-12
4.34008e-14
1.62631e-12
1.33227e-12
-1.50121e-21
-1.01399e-12
-2.34004e-12
-3.55876e-12
-4.22433e-12
-4.11086e-12
-3.33344e-12
-2.25726e-12
-1.26828e-12
-5.82171e-13
-2.11663e-13
-5.66119e-14
-7.82039e-15
3.04538e-15
4.48923e-15
3.47812e-15
1.49743e-17
7.05195e-28
7.53044e-30
9.63357e-30
9.55771e-32
5.38012e-38
9.47497e-38
5.74181e-42
1.78678e-44
1.06825e-47
9.64502e-53
1.8661e-52
1.89677e-52
7.88041e-57
3.68531e-63
3.68403e-63
3.70256e-63
9.69864e-66
3.08639e-67
1.9676e-12
4.07091e-11
6.41164e-11
4.26805e-11
2.23597e-12
2.2054e-12
1.56048e-12
2.95517e-12
2.69472e-12
9.91822e-14
-8.45905e-13
-2.48733e-12
-4.49538e-12
-6.23913e-12
-7.05504e-12
-6.646e-12
-5.25151e-12
-3.47686e-12
-1.91547e-12
-8.6601e-13
-3.13192e-13
-8.53911e-14
-1.39005e-14
1.95823e-15
4.48653e-15
1.17789e-15
4.94063e-26
7.87706e-29
1.82003e-30
2.9882e-30
9.29309e-33
6.23086e-39
1.13189e-38
5.44687e-43
1.38163e-45
1.10226e-48
4.68206e-50
4.79035e-50
1.61242e-51
3.68873e-63
3.69065e-63
3.6945e-63
3.78189e-62
1.0516e-64
1.744e-66
2.45908e-12
9.92439e-12
2.7072e-11
1.10274e-11
2.46312e-12
2.65431e-12
3.34749e-12
4.46746e-12
1.14003e-12
-2.51393e-13
-2.23208e-12
-4.97945e-12
-8.05733e-12
-1.05075e-11
-1.13893e-11
-1.03707e-11
-7.94682e-12
-5.10896e-12
-2.73598e-12
-1.20474e-12
-4.26347e-13
-1.15248e-13
-1.98345e-14
1.28953e-15
3.02499e-15
2.13447e-16
6.47461e-27
9.25846e-30
2.44808e-31
4.11394e-31
1.05184e-33
5.78597e-40
1.01392e-39
2.98371e-44
3.35937e-46
1.58025e-46
4.69937e-50
5.92153e-50
1.41325e-56
1.41321e-56
1.41704e-56
4.93656e-58
6.73857e-66
6.54265e-64
1.05224e-65
7.83152e-15
7.774e-15
7.90046e-15
7.98653e-15
4.32676e-12
3.17847e-12
3.1361e-12
2.65782e-12
5.783e-12
2.3808e-12
-2.89762e-36
-1.82472e-12
-5.04806e-12
-9.42421e-12
-1.40133e-11
-1.72861e-11
-1.79347e-11
-1.57051e-11
-1.15896e-11
-7.17611e-12
-3.70025e-12
-1.56872e-12
-5.3505e-13
-1.40057e-13
-2.40007e-14
1.0525e-15
1.53427e-15
3.51078e-17
7.27268e-28
9.19638e-31
3.85404e-32
5.38654e-32
1.01956e-34
7.07842e-41
3.4692e-39
2.42839e-44
3.57292e-44
3.58084e-44
6.08273e-45
8.09134e-56
8.09121e-56
1.47692e-55
1.67926e-55
3.79596e-57
9.8098e-67
1.11669e-63
3.89292e-65
7.94901e-15
1.81231e-12
6.94124e-11
1.02027e-10
1.58791e-11
3.1584e-12
3.13933e-12
1.20661e-11
8.78912e-12
6.74619e-31
-1.26292e-12
-4.7329e-12
-1.01999e-11
-1.71715e-11
-2.38916e-11
-2.79495e-11
-2.76442e-11
-2.31137e-11
-1.62848e-11
-9.61889e-12
-4.72545e-12
-1.90578e-12
-6.17365e-13
-1.53388e-13
-2.46836e-14
-2.93015e-16
5.75927e-16
1.7434e-17
2.31378e-28
2.44316e-31
1.06657e-32
2.09073e-32
2.76839e-35
8.29502e-42
1.621e-41
1.69418e-44
3.68485e-44
4.34656e-44
1.03928e-44
1.17178e-55
1.53442e-55
1.77193e-55
2.29275e-55
4.28085e-57
9.92802e-67
1.3073e-63
9.02023e-65
8.27851e-15
6.5477e-10
8.8199e-10
3.45395e-10
3.28622e-12
3.20529e-12
2.69772e-11
2.19741e-11
3.77427e-13
-2.45139e-13
-3.94457e-12
-1.03795e-11
-1.98264e-11
-3.09092e-11
-4.0394e-11
-4.46245e-11
-4.17458e-11
-3.30057e-11
-2.19676e-11
-1.22398e-11
-5.66042e-12
-2.14295e-12
-6.49205e-13
-1.50012e-13
-2.17884e-14
-8.99811e-16
1.38217e-16
7.1832e-18
5.55077e-29
-3.03987e-40
-3.87848e-43
7.37526e-33
6.34479e-36
2.24928e-43
1.13973e-43
-2.09132e-68
8.08676e-45
7.81554e-45
1.13629e-45
1.58684e-55
1.59152e-55
1.59194e-55
1.65639e-55
2.21202e-57
9.91001e-67
1.13275e-63
1.11198e-64
3.04697e-13
8.87249e-10
1.02806e-09
2.9177e-10
3.62607e-12
6.36449e-11
5.938e-11
6.9985e-12
-1.36929e-30
-3.09728e-12
-1.03177e-11
-2.23225e-11
-3.86364e-11
-5.58242e-11
-6.8107e-11
-7.03862e-11
-6.15799e-11
-4.54768e-11
-2.82289e-11
-1.46401e-11
-6.28338e-12
-2.19803e-12
-6.11145e-13
-1.27494e-13
-1.72537e-14
-1.14904e-15
-1.39397e-17
1.33145e-18
1.5205e-20
-2.90237e-35
-1.58233e-37
-1.64711e-49
-1.23875e-44
5.52836e-36
3.15799e-40
-2.31141e-42
-2.1792e-46
1.90418e-44
3.27067e-45
2.16076e-53
2.55828e-54
5.68874e-56
5.69669e-56
6.11449e-58
9.53868e-67
4.91121e-64
3.07716e-65
2.56117e-12
1.49529e-11
3.50875e-10
9.57962e-11
1.0351e-10
1.06886e-10
4.60203e-11
-1.79275e-28
-1.16029e-12
-9.81763e-12
-2.51478e-11
-4.82187e-11
-7.6212e-11
-1.01469e-10
-1.14355e-10
-1.09118e-10
-8.79895e-11
-5.97752e-11
-3.40664e-11
-1.61784e-11
-6.3309e-12
-2.00553e-12
-4.99237e-13
-9.19237e-14
-1.13968e-14
-8.67458e-16
-3.8042e-17
-9.26601e-19
-1.23558e-20
-9.02591e-23
-3.66894e-25
-8.75045e-28
-1.44727e-30
-2.43596e-33
-5.83402e-36
-1.3291e-38
-2.10569e-41
-2.17595e-44
-1.44174e-47
5.07717e-49
4.5882e-50
3.35607e-57
3.35013e-57
1.7285e-67
9.25277e-67
1.24571e-64
2.62858e-66
1.49529e-11
7.66264e-11
4.75536e-10
9.06105e-11
1.26711e-10
8.40566e-11
9.47124e-29
-2.40442e-29
-8.53714e-12
-2.84705e-11
-6.16852e-11
-1.06274e-10
-1.52713e-10
-1.85173e-10
-1.8978e-10
-1.64223e-10
-1.19751e-10
-7.33948e-11
-3.7647e-11
-1.60265e-11
-5.58151e-12
-1.55605e-12
-3.3545e-13
-5.32036e-14
-5.906e-15
-4.44663e-16
-2.24951e-17
-7.68605e-19
-1.79668e-20
-2.91413e-22
-3.32278e-24
-2.69094e-26
-1.5571e-28
-6.45438e-31
-1.91099e-33
-4.00668e-36
-5.85218e-39
-5.8693e-42
-3.92978e-45
-1.58663e-48
5.94602e-52
3.74769e-55
4.35165e-58
1.7285e-67
1.72852e-67
1.21623e-65
2.98553e-71
1.44487e-10
5.45425e-09
3.79969e-11
2.54255e-11
1.35834e-10
8.7536e-12
-7.00322e-24
-6.07588e-12
-3.28479e-11
-8.36057e-11
-1.57271e-10
-2.41484e-10
-3.10435e-10
-3.35823e-10
-3.0567e-10
-2.33876e-10
-1.50305e-10
-8.0997e-11
-3.63877e-11
-1.34576e-11
-4.01756e-12
-9.42601e-13
-1.68043e-13
-2.19969e-14
-2.06202e-15
-1.36814e-16
-6.41938e-18
-2.13989e-19
-5.10551e-21
-8.77733e-23
-1.0934e-24
-9.90175e-27
-6.51692e-29
-3.10798e-31
-1.06569e-33
-2.59628e-36
-4.46053e-39
-5.20726e-42
-3.95475e-45
-1.83423e-48
-4.89082e-52
-7.29368e-56
8.39479e-60
1.21903e-61
1.09847e-67
1.04051e-67
2.9885e-71
3.10388e-07
4.37198e-08
3.38041e-12
1.59252e-13
2.87679e-16
-1.92049e-24
-4.8599e-23
-3.77138e-11
-1.25606e-10
-2.60986e-10
-4.2327e-10
-5.6599e-10
-6.31364e-10
-5.8844e-10
-4.58318e-10
-2.98707e-10
-1.6313e-10
-7.44033e-11
-2.79894e-11
-8.50258e-12
-2.03241e-12
-3.71941e-13
-5.08223e-14
-5.09121e-15
-3.70319e-16
-1.95112e-17
-7.46379e-19
-2.08103e-20
-4.24864e-22
-6.37172e-24
-7.03227e-26
-5.70929e-28
-3.39634e-30
-1.47429e-32
-4.62859e-35
-1.03095e-37
-1.58987e-40
-1.63649e-43
-1.07395e-46
-4.29658e-50
-9.64335e-54
-1.22395e-57
-6.47008e-62
2.86417e-64
1.62857e-67
1.19842e-73
1.19842e-73
8.74399e-07
1.38807e-07
6.75175e-12
1.4737e-13
-4.42553e-29
-5.83083e-23
-2.04695e-11
-2.10837e-10
-5.21974e-10
-8.86174e-10
-1.19949e-09
-1.33157e-09
-1.21727e-09
-9.19004e-10
-5.76005e-10
-3.01504e-10
-1.3151e-10
-4.69525e-11
-1.33396e-11
-2.93271e-12
-4.87832e-13
-6.04152e-14
-5.51566e-15
-3.69615e-16
-1.8177e-17
-6.57549e-19
-1.75593e-20
-3.47162e-22
-5.09464e-24
-5.55662e-26
-4.5059e-28
-2.70405e-30
-1.19253e-32
-3.826e-35
-8.78921e-38
-1.4133e-40
-1.54136e-43
-1.11479e-46
-4.9725e-50
-1.31994e-53
-2.06993e-57
-1.5869e-61
-5.39234e-66
-1.72267e-122
1.25817e-69
1.9488e-73
5.37715e-82
1.55199e-08
2.78521e-08
8.3491e-09
-1.3071e-17
-3.7637e-19
-1.4544e-12
-5.11991e-10
-1.60273e-09
-2.72142e-09
-3.42815e-09
-3.47405e-09
-2.81946e-09
-1.83545e-09
-9.8154e-10
-4.36438e-10
-1.5743e-10
-4.41656e-11
-9.3275e-12
-1.45838e-12
-1.67801e-13
-1.42053e-14
-8.86515e-16
-4.0929e-17
-1.40362e-18
-3.58977e-20
-6.87053e-22
-9.86757e-24
-1.06448e-25
-8.62429e-28
-5.23416e-30
-2.36853e-32
-7.9314e-35
-1.94208e-37
-3.42386e-40
-4.2857e-43
-3.69346e-46
-2.71345e-49
-2.15175e-52
-1.30096e-55
-4.82336e-59
-1.03262e-62
-1.4388e-66
-8.78178e-71
-1.84647e-93
-2.68697e-104
1.81933e-76
5.72123e-82
1.44347e-08
1.44499e-08
1.93894e-09
-1.09091e-19
-4.02373e-13
-7.90783e-10
-7.08534e-09
-1.66164e-08
-1.72263e-08
-1.02603e-08
-4.14463e-09
-1.22463e-09
-2.67389e-10
-4.28808e-11
-5.12321e-12
-4.8156e-13
-3.94631e-14
-3.11339e-15
-2.33874e-16
-1.51669e-17
-7.86577e-19
-3.17093e-20
-9.98105e-22
-2.44072e-23
-4.60221e-25
-6.63973e-27
-7.29539e-29
-6.09155e-31
-3.87055e-33
-1.85812e-35
-6.69859e-38
-1.80728e-40
-3.63573e-43
-5.4216e-46
-5.95541e-49
-4.73069e-52
-3.43707e-55
-2.85899e-58
-1.89302e-61
-8.0445e-65
-2.0199e-68
-3.82396e-72
-3.57696e-76
1.7541e-79
1.15383e-82
4.73918e-85
4.73918e-85
4.84623e-41
4.98429e-42
9.83125e-42
2.89213e-46
4.75745e-49
4.82854e-53
6.44049e-61
5.29555e-61
1.65647e-61
2.20691e-25
1.04796e-26
1.62086e-38
1.12581e-41
3.18132e-42
3.17495e-42
3.95465e-49
3.98213e-49
2.43365e-57
4.04353e-57
4.72166e-62
3.09923e-62
5.45437e-15
2.9703e-15
2.96411e-15
2.96268e-15
2.99089e-15
4.75679e-15
4.9017e-15
3.44641e-15
3.03937e-15
3.03935e-15
3.03935e-15
3.03935e-15
3.03935e-15
3.04001e-15
3.20283e-15
5.10335e-15
1.03966e-14
1.07035e-14
6.10159e-15
4.30209e-15
6.02263e-15
6.84707e-15
5.7605e-15
3.06432e-24
-1.89358e-31
-7.07427e-40
-2.79546e-30
-4.92367e-37
-3.1086e-54
-3.8604e-51
-8.77846e-52
1.9635e-56
2.12021e-23
1.31875e-24
3.95917e-36
3.52254e-39
4.65416e-40
9.08368e-40
2.233e-45
9.56863e-47
7.99151e-50
8.72025e-58
8.7176e-58
1.51225e-62
5.32006e-63
5.42841e-15
4.82982e-15
3.03845e-15
2.96268e-15
2.96452e-15
4.39335e-15
4.64634e-15
3.4443e-15
3.8661e-15
3.12052e-15
3.03935e-15
3.03935e-15
3.03935e-15
3.0394e-15
3.0394e-15
3.34178e-15
7.90467e-15
8.27601e-15
5.00081e-15
4.28698e-15
5.79475e-15
6.84707e-15
6.78331e-15
3.12682e-15
7.99894e-25
-6.90793e-32
-8.17172e-44
7.9254e-27
2.14838e-25
-2.4127e-36
1.72711e-43
1.32432e-21
1.03951e-22
5.7934e-34
5.97269e-37
5.6854e-38
1.06808e-37
1.0351e-39
7.87623e-48
3.97107e-47
3.53198e-55
1.81506e-54
8.10319e-64
3.6888e-63
3.46123e-64
3.51569e-14
6.15264e-15
2.96268e-15
2.96268e-15
2.96269e-15
3.05301e-15
3.01923e-15
1.0318e-14
4.92665e-14
4.36616e-14
3.75979e-15
3.03935e-15
3.03935e-15
3.03935e-15
4.60505e-15
1.26977e-14
1.08835e-14
7.7307e-15
4.18351e-15
4.15924e-15
5.39401e-15
6.84707e-15
6.81496e-15
6.68735e-15
1.70754e-15
7.99894e-25
1.26959e-26
4.16782e-25
2.1566e-25
8.70636e-29
5.08416e-20
5.29928e-21
5.21585e-32
1.16962e-34
4.98349e-35
6.16379e-35
2.93882e-42
4.28898e-41
4.41033e-49
6.81004e-48
8.06563e-56
1.61153e-55
3.13395e-64
3.1338e-64
2.20854e-65
3.93322e-14
2.96282e-15
2.96269e-15
2.9631e-15
2.96585e-15
2.96584e-15
1.2935e-14
5.73956e-14
6.16424e-14
6.13978e-14
4.78955e-14
6.23272e-15
3.03935e-15
3.03936e-15
6.04938e-15
1.46583e-14
1.46738e-14
1.35837e-14
1.22405e-14
6.09324e-15
5.39406e-15
6.82006e-15
6.79319e-15
6.79306e-15
3.86987e-15
3.80171e-23
8.1259e-25
9.77475e-25
2.25354e-25
1.26517e-18
1.67765e-19
2.84294e-30
5.82424e-33
1.37705e-33
2.10945e-33
7.19378e-38
2.41916e-43
1.99736e-42
2.08611e-50
1.79456e-49
7.06066e-54
6.38004e-62
5.27316e-61
2.69137e-67
7.02304e-67
6.65659e-15
2.96335e-15
2.96352e-15
2.96311e-15
2.96382e-15
3.05824e-15
3.93522e-14
6.21416e-14
6.16215e-14
6.11698e-14
6.3269e-14
5.76695e-14
2.30304e-14
3.03939e-15
3.9148e-15
1.33267e-14
1.50633e-14
1.50037e-14
1.49003e-14
1.44499e-14
6.59785e-15
6.82005e-15
6.812e-15
6.79489e-15
3.94632e-15
1.61199e-21
3.80171e-23
1.42335e-24
1.82967e-17
3.36006e-18
9.5928e-29
2.2524e-31
4.5027e-32
7.29962e-32
2.25522e-37
2.27976e-37
1.3213e-43
1.31935e-43
8.2828e-52
8.59385e-51
3.68733e-55
2.23285e-62
2.2323e-62
1.17478e-67
1.2965e-67
2.9754e-15
2.96538e-15
2.96345e-15
2.96313e-15
2.96354e-15
3.10561e-15
2.39434e-14
6.25831e-14
6.26373e-14
6.19474e-14
6.42144e-14
6.41307e-14
6.34928e-14
2.2118e-14
3.92233e-15
4.37149e-15
1.51075e-14
1.52053e-14
1.5154e-14
1.51585e-14
1.21294e-14
4.88947e-15
6.61168e-15
6.78963e-15
3.18421e-15
1.73578e-18
1.61976e-18
1.82554e-16
3.75454e-17
1.75189e-27
5.25662e-30
1.32126e-30
3.84404e-30
3.79826e-36
3.7812e-36
1.46051e-42
1.52145e-42
1.55781e-45
1.43817e-52
2.84152e-52
6.95096e-61
1.2809e-60
1.51261e-64
1.14277e-67
1.15409e-67
6.00785e-15
2.78357e-14
2.74218e-14
2.26503e-14
7.2534e-15
2.97714e-15
3.09114e-15
1.95941e-14
6.36596e-14
6.42144e-14
6.42144e-14
6.42144e-14
6.42144e-14
5.81046e-14
4.5786e-15
3.2535e-15
8.5834e-15
1.5254e-14
1.52476e-14
1.52499e-14
1.29061e-14
4.17381e-15
5.44776e-15
5.50968e-15
2.94196e-15
2.97853e-15
3.05486e-15
7.78272e-16
7.58312e-26
1.88442e-27
3.02283e-27
1.41096e-32
1.45817e-32
3.19429e-36
1.05635e-38
1.21309e-41
1.62636e-47
1.18168e-47
9.15235e-52
5.40591e-55
6.04639e-58
3.50668e-66
1.13323e-67
1.13246e-67
1.12176e-67
3.1685e-14
8.31737e-14
8.44438e-14
8.31869e-14
6.15207e-14
3.34882e-15
2.98544e-15
3.10019e-15
1.71325e-14
6.31008e-14
6.42144e-14
6.42144e-14
6.42144e-14
6.24913e-14
1.13913e-14
3.22675e-15
3.45677e-15
1.46366e-14
1.5254e-14
1.5254e-14
1.23369e-14
3.89013e-15
4.96088e-15
5.08335e-15
4.46351e-15
4.57411e-15
4.44376e-15
8.6212e-16
8.45171e-26
1.83327e-28
3.47746e-31
1.19498e-32
1.13378e-32
1.94399e-36
1.03217e-38
1.32378e-41
1.08032e-47
7.88754e-48
2.48588e-51
6.37485e-55
1.33845e-57
4.95885e-66
4.30843e-66
3.54736e-66
3.34965e-68
3.06594e-14
8.50889e-14
8.58622e-14
8.58622e-14
6.96362e-14
4.52643e-15
2.98102e-15
2.98611e-15
3.06749e-15
1.5327e-14
6.1702e-14
5.91067e-14
5.00783e-14
4.61582e-14
1.56828e-14
3.22675e-15
3.22675e-15
6.55164e-15
1.5254e-14
1.52455e-14
5.72893e-15
3.71089e-15
4.85628e-15
5.27628e-15
4.60723e-15
4.61292e-15
4.05541e-15
2.86743e-16
2.42558e-26
5.43015e-29
1.15892e-30
1.41139e-30
1.252e-32
1.42619e-38
2.59085e-38
2.90566e-42
9.78289e-48
1.6524e-47
1.63902e-54
1.60952e-54
8.00363e-59
1.0097e-62
3.00436e-67
2.7228e-69
1.01245e-68
3.3219e-15
2.07401e-14
8.31914e-14
7.02879e-14
1.56342e-14
6.12544e-15
5.2673e-14
2.51552e-14
3.02653e-15
4.40999e-15
1.41797e-14
1.10316e-14
6.42961e-15
7.80624e-15
1.03954e-14
4.7622e-15
3.22675e-15
3.31323e-15
1.10351e-14
7.06671e-15
3.65478e-15
3.67191e-15
6.53557e-15
5.95156e-15
4.58689e-15
4.5935e-15
2.65661e-15
3.87515e-25
1.04537e-27
4.57266e-29
4.31641e-29
1.66766e-34
1.65724e-34
3.38411e-38
1.13172e-40
1.93615e-43
1.53538e-49
1.17467e-49
1.84464e-53
1.18331e-57
4.24675e-60
5.13793e-65
1.03394e-68
1.82196e-69
1.94781e-69
3.20904e-15
3.42856e-15
1.41411e-14
7.12035e-15
4.3306e-15
1.27028e-14
1.86869e-13
2.16858e-13
7.45782e-14
4.43253e-15
5.89236e-15
4.28281e-15
4.31381e-15
4.23451e-15
4.22076e-15
4.61867e-15
3.25798e-15
3.21044e-15
3.70783e-15
3.61463e-15
3.63643e-15
7.47092e-15
7.22483e-15
5.18914e-15
4.58599e-15
4.59346e-15
2.5053e-15
3.59195e-25
9.51219e-28
4.023e-29
3.91712e-29
1.4108e-34
1.44026e-34
3.01527e-38
8.71629e-41
1.48138e-43
1.06811e-49
8.0506e-50
1.48765e-53
8.27065e-58
2.29885e-60
2.91456e-64
2.31053e-65
2.42229e-70
3.65306e-70
3.20969e-15
3.29784e-15
3.67576e-15
3.7786e-15
4.32431e-15
4.3306e-15
1.87354e-13
2.39053e-13
2.32041e-13
3.27201e-14
5.5527e-15
4.79272e-15
9.95574e-14
9.48673e-14
1.54877e-14
3.20348e-15
3.20348e-15
3.20348e-15
3.20776e-15
3.2078e-15
4.85225e-15
1.16645e-14
7.57309e-15
4.61623e-15
4.64951e-15
4.6538e-15
2.41443e-15
3.34577e-25
8.62738e-28
3.41656e-29
3.28097e-29
1.15102e-34
1.18077e-34
2.43993e-38
7.03655e-41
1.14083e-43
7.72521e-50
5.84789e-50
1.04538e-53
1.15946e-57
1.13645e-60
3.53055e-64
2.30307e-70
2.42782e-70
2.45469e-70
3.21464e-15
3.27275e-15
3.40031e-15
3.4877e-15
5.5184e-15
7.98346e-14
1.6286e-13
2.39053e-13
2.39053e-13
5.56007e-14
5.89755e-15
1.25309e-13
1.44128e-13
1.39506e-13
1.00487e-13
3.649e-15
3.20348e-15
3.20348e-15
3.20348e-15
4.13965e-15
1.40246e-14
1.32293e-14
5.76615e-15
4.61554e-15
4.61511e-15
4.61529e-15
2.18159e-15
2.85346e-25
7.19072e-28
2.68273e-29
2.82856e-29
8.68856e-35
9.59924e-35
2.03445e-38
5.12316e-41
8.72709e-44
5.25625e-50
4.04448e-50
9.22692e-54
5.86414e-58
1.03749e-60
1.83646e-65
2.06974e-70
2.17783e-70
2.22849e-70
3.20485e-15
3.24482e-15
3.34477e-15
3.44365e-15
4.74521e-15
1.89503e-13
2.5899e-13
2.0526e-13
1.24476e-13
2.22151e-14
2.37704e-13
1.73233e-13
1.44676e-13
1.42255e-13
1.17698e-13
6.22791e-15
3.20348e-15
3.20348e-15
3.20348e-15
1.53086e-14
1.54151e-14
7.9811e-15
5.49386e-15
5.61694e-15
4.86114e-15
4.45899e-15
1.77612e-15
2.16234e-25
5.27629e-28
2.09859e-29
1.98159e-29
6.58695e-35
6.61637e-35
1.485e-38
4.496e-41
6.29375e-44
3.15796e-50
2.52535e-50
6.79204e-54
5.80754e-61
4.14523e-61
3.06024e-65
1.9076e-70
1.96125e-70
1.98249e-70
1.22019e-12
1.17856e-12
9.59676e-13
4.72107e-13
4.86914e-15
7.48633e-14
2.58881e-13
2.31388e-13
1.35467e-14
4.74863e-13
4.10529e-13
4.77626e-14
9.60765e-14
1.32463e-13
7.40955e-14
3.38866e-15
3.30013e-15
3.20348e-15
8.11717e-15
1.80578e-14
1.54651e-14
5.43749e-15
5.86894e-15
5.88546e-15
5.12094e-15
4.48691e-15
1.68067e-15
1.90943e-25
4.53828e-28
2.03256e-29
1.93593e-29
5.9211e-35
5.74226e-35
1.20194e-38
2.36846e-41
3.89014e-44
1.89793e-50
1.43939e-50
3.83918e-54
2.33992e-61
1.77405e-61
4.30636e-65
1.85386e-70
1.85385e-70
1.85372e-70
2.55375e-12
2.55375e-12
2.52217e-12
1.44986e-12
4.61055e-15
4.62506e-15
5.74048e-14
1.71885e-13
6.90602e-13
1.04531e-12
3.23515e-13
7.6329e-15
2.36858e-14
2.4554e-14
2.76868e-14
3.79711e-14
3.37168e-14
9.7241e-15
1.46309e-14
1.80325e-14
1.08892e-14
5.23585e-15
5.85941e-15
5.65117e-15
4.55355e-15
4.54843e-15
2.19802e-15
2.32436e-25
5.29279e-28
1.83716e-29
2.13218e-29
5.99641e-35
5.8142e-35
1.09011e-38
1.39481e-41
3.18164e-44
1.85336e-50
1.52715e-50
5.26324e-54
5.95081e-62
2.41872e-65
2.10791e-65
1.85256e-70
1.86316e-70
1.84198e-70
2.55375e-12
2.55375e-12
2.55375e-12
1.16083e-12
4.60291e-15
4.63295e-15
5.36572e-15
5.42783e-15
1.38897e-12