/*--------------------------------*- C++ -*----------------------------------*\
| =========                 |                                                 |
| \\      /  F ield         | OpenFOAM: The Open Source CFD Toolbox           |
|  \\    /   O peration     | Version:  v2012                                 |
|   \\  /    A nd           | Website:  www.openfoam.com                      |
|    \\/     M anipulation  |                                                 |
\*---------------------------------------------------------------------------*/
FoamFile
{
    version     2.0;
    format      ascii;
    class       volScalarField;
    location    "0.4";
    object      p;
}
// * * * * * * * * * * * * * * * * * * * * * * * * * * * * * * * * * * * * * //

dimensions      [1 -1 -2 0 0 0 0];


internalField   nonuniform List<scalar> 
3326
(
3.49856e+06
3.49858e+06
3.4986e+06
3.49862e+06
3.49864e+06
3.49865e+06
3.49866e+06
3.49867e+06
3.49867e+06
3.49845e+06
3.49848e+06
3.49851e+06
3.49854e+06
3.49857e+06
3.49859e+06
3.49861e+06
3.49862e+06
3.49864e+06
3.49865e+06
3.49865e+06
3.49866e+06
3.49673e+06
3.49677e+06
3.49681e+06
3.49685e+06
3.4969e+06
3.49694e+06
3.49699e+06
3.49704e+06
3.49709e+06
3.49715e+06
3.4972e+06
3.49726e+06
3.49731e+06
3.49737e+06
3.49743e+06
3.49749e+06
3.49755e+06
3.49761e+06
3.49767e+06
3.49773e+06
3.49779e+06
3.49785e+06
3.49791e+06
3.49797e+06
3.49802e+06
3.49808e+06
3.49813e+06
3.49818e+06
3.49823e+06
3.49827e+06
3.49832e+06
3.49836e+06
3.4984e+06
3.49843e+06
3.49847e+06
3.4985e+06
3.49853e+06
3.49855e+06
3.49857e+06
3.49859e+06
3.49861e+06
3.49862e+06
3.49863e+06
3.49864e+06
3.49865e+06
3.49656e+06
3.49661e+06
3.49666e+06
3.4967e+06
3.49676e+06
3.49681e+06
3.49686e+06
3.49692e+06
3.49698e+06
3.49704e+06
3.4971e+06
3.49716e+06
3.49722e+06
3.49728e+06
3.49735e+06
3.49741e+06
3.49748e+06
3.49754e+06
3.49761e+06
3.49767e+06
3.49774e+06
3.4978e+06
3.49786e+06
3.49792e+06
3.49798e+06
3.49804e+06
3.4981e+06
3.49815e+06
3.4982e+06
3.49825e+06
3.49829e+06
3.49834e+06
3.49838e+06
3.49841e+06
3.49845e+06
3.49848e+06
3.49851e+06
3.49854e+06
3.49856e+06
3.49858e+06
3.4986e+06
3.49861e+06
3.49862e+06
3.49863e+06
3.49863e+06
3.49637e+06
3.49643e+06
3.4965e+06
3.49655e+06
3.49661e+06
3.49667e+06
3.49673e+06
3.49679e+06
3.49685e+06
3.49692e+06
3.49698e+06
3.49705e+06
3.49712e+06
3.49719e+06
3.49726e+06
3.49733e+06
3.4974e+06
3.49747e+06
3.49754e+06
3.49761e+06
3.49768e+06
3.49775e+06
3.49782e+06
3.49788e+06
3.49794e+06
3.498e+06
3.49806e+06
3.49812e+06
3.49817e+06
3.49822e+06
3.49827e+06
3.49832e+06
3.49836e+06
3.4984e+06
3.49843e+06
3.49847e+06
3.4985e+06
3.49852e+06
3.49855e+06
3.49857e+06
3.49858e+06
3.4986e+06
3.49861e+06
3.49862e+06
3.49862e+06
3.49619e+06
3.49625e+06
3.49632e+06
3.49638e+06
3.49645e+06
3.49651e+06
3.49658e+06
3.49665e+06
3.49672e+06
3.49679e+06
3.49686e+06
3.49694e+06
3.49701e+06
3.49709e+06
3.49716e+06
3.49724e+06
3.49732e+06
3.4974e+06
3.49747e+06
3.49755e+06
3.49762e+06
3.4977e+06
3.49777e+06
3.49784e+06
3.4979e+06
3.49797e+06
3.49803e+06
3.49809e+06
3.49814e+06
3.4982e+06
3.49825e+06
3.49829e+06
3.49834e+06
3.49838e+06
3.49842e+06
3.49845e+06
3.49848e+06
3.49851e+06
3.49853e+06
3.49855e+06
3.49857e+06
3.49859e+06
3.4986e+06
3.49861e+06
3.49861e+06
3.49598e+06
3.49604e+06
3.49612e+06
3.49619e+06
3.49627e+06
3.49634e+06
3.49642e+06
3.49649e+06
3.49657e+06
3.49665e+06
3.49673e+06
3.49681e+06
3.4969e+06
3.49698e+06
3.49707e+06
3.49715e+06
3.49723e+06
3.49732e+06
3.4974e+06
3.49748e+06
3.49756e+06
3.49764e+06
3.49772e+06
3.49779e+06
3.49786e+06
3.49793e+06
3.498e+06
3.49806e+06
3.49812e+06
3.49817e+06
3.49822e+06
3.49827e+06
3.49832e+06
3.49836e+06
3.4984e+06
3.49843e+06
3.49847e+06
3.49849e+06
3.49852e+06
3.49854e+06
3.49856e+06
3.49858e+06
3.49859e+06
3.49859e+06
3.4986e+06
3.49576e+06
3.49583e+06
3.49592e+06
3.496e+06
3.49608e+06
3.49616e+06
3.49624e+06
3.49633e+06
3.49642e+06
3.4965e+06
3.49659e+06
3.49668e+06
3.49678e+06
3.49687e+06
3.49696e+06
3.49705e+06
3.49715e+06
3.49724e+06
3.49733e+06
3.49742e+06
3.4975e+06
3.49759e+06
3.49767e+06
3.49775e+06
3.49782e+06
3.49789e+06
3.49796e+06
3.49803e+06
3.49809e+06
3.49815e+06
3.4982e+06
3.49825e+06
3.4983e+06
3.49834e+06
3.49838e+06
3.49842e+06
3.49845e+06
3.49848e+06
3.49851e+06
3.49853e+06
3.49855e+06
3.49856e+06
3.49858e+06
3.49858e+06
3.49859e+06
3.49552e+06
3.4956e+06
3.49569e+06
3.49578e+06
3.49587e+06
3.49596e+06
3.49606e+06
3.49615e+06
3.49625e+06
3.49634e+06
3.49644e+06
3.49654e+06
3.49665e+06
3.49675e+06
3.49685e+06
3.49695e+06
3.49705e+06
3.49715e+06
3.49725e+06
3.49734e+06
3.49744e+06
3.49753e+06
3.49761e+06
3.4977e+06
3.49778e+06
3.49785e+06
3.49793e+06
3.498e+06
3.49806e+06
3.49812e+06
3.49818e+06
3.49823e+06
3.49828e+06
3.49833e+06
3.49837e+06
3.4984e+06
3.49844e+06
3.49847e+06
3.49849e+06
3.49852e+06
3.49854e+06
3.49855e+06
3.49856e+06
3.49857e+06
3.49858e+06
3.49527e+06
3.49536e+06
3.49546e+06
3.49555e+06
3.49565e+06
3.49575e+06
3.49585e+06
3.49596e+06
3.49606e+06
3.49617e+06
3.49628e+06
3.4964e+06
3.49651e+06
3.49662e+06
3.49673e+06
3.49685e+06
3.49696e+06
3.49706e+06
3.49717e+06
3.49727e+06
3.49737e+06
3.49747e+06
3.49756e+06
3.49765e+06
3.49774e+06
3.49782e+06
3.49789e+06
3.49796e+06
3.49803e+06
3.4981e+06
3.49816e+06
3.49821e+06
3.49826e+06
3.49831e+06
3.49835e+06
3.49839e+06
3.49842e+06
3.49846e+06
3.49848e+06
3.49851e+06
3.49853e+06
3.49854e+06
3.49855e+06
3.49856e+06
3.49857e+06
3.49498e+06
3.49508e+06
3.49519e+06
3.49529e+06
3.4954e+06
3.49552e+06
3.49563e+06
3.49575e+06
3.49587e+06
3.49599e+06
3.49611e+06
3.49624e+06
3.49636e+06
3.49649e+06
3.49661e+06
3.49673e+06
3.49685e+06
3.49697e+06
3.49709e+06
3.4972e+06
3.4973e+06
3.49741e+06
3.49751e+06
3.4976e+06
3.49769e+06
3.49778e+06
3.49786e+06
3.49793e+06
3.498e+06
3.49807e+06
3.49813e+06
3.49819e+06
3.49824e+06
3.49829e+06
3.49833e+06
3.49837e+06
3.49841e+06
3.49844e+06
3.49847e+06
3.49849e+06
3.49852e+06
3.49853e+06
3.49854e+06
3.49855e+06
3.49856e+06
3.49466e+06
3.49477e+06
3.49489e+06
3.49501e+06
3.49513e+06
3.49526e+06
3.49539e+06
3.49552e+06
3.49565e+06
3.49579e+06
3.49593e+06
3.49607e+06
3.4962e+06
3.49634e+06
3.49648e+06
3.49661e+06
3.49675e+06
3.49687e+06
3.497e+06
3.49712e+06
3.49723e+06
3.49735e+06
3.49745e+06
3.49755e+06
3.49765e+06
3.49774e+06
3.49782e+06
3.4979e+06
3.49798e+06
3.49805e+06
3.49811e+06
3.49817e+06
3.49822e+06
3.49827e+06
3.49832e+06
3.49836e+06
3.4984e+06
3.49843e+06
3.49846e+06
3.49848e+06
3.4985e+06
3.49852e+06
3.49853e+06
3.49854e+06
3.49855e+06
3.49429e+06
3.49443e+06
3.49456e+06
3.4947e+06
3.49484e+06
3.49498e+06
3.49512e+06
3.49527e+06
3.49542e+06
3.49557e+06
3.49573e+06
3.49588e+06
3.49604e+06
3.49619e+06
3.49634e+06
3.49649e+06
3.49663e+06
3.49677e+06
3.49691e+06
3.49704e+06
3.49716e+06
3.49728e+06
3.49739e+06
3.4975e+06
3.4976e+06
3.4977e+06
3.49779e+06
3.49787e+06
3.49795e+06
3.49802e+06
3.49809e+06
3.49815e+06
3.49821e+06
3.49826e+06
3.4983e+06
3.49835e+06
3.49838e+06
3.49842e+06
3.49845e+06
3.49847e+06
3.49849e+06
3.49851e+06
3.49852e+06
3.49853e+06
3.49854e+06
3.49391e+06
3.49405e+06
3.4942e+06
3.49435e+06
3.4945e+06
3.49466e+06
3.49482e+06
3.49499e+06
3.49516e+06
3.49534e+06
3.49551e+06
3.49569e+06
3.49586e+06
3.49603e+06
3.4962e+06
3.49636e+06
3.49652e+06
3.49667e+06
3.49681e+06
3.49696e+06
3.49709e+06
3.49722e+06
3.49734e+06
3.49745e+06
3.49756e+06
3.49766e+06
3.49775e+06
3.49784e+06
3.49792e+06
3.498e+06
3.49807e+06
3.49813e+06
3.49819e+06
3.49824e+06
3.49829e+06
3.49833e+06
3.49837e+06
3.49841e+06
3.49844e+06
3.49846e+06
3.49848e+06
3.4985e+06
3.49851e+06
3.49852e+06
3.49853e+06
3.49342e+06
3.4936e+06
3.49378e+06
3.49395e+06
3.49413e+06
3.49431e+06
3.4945e+06
3.49469e+06
3.49488e+06
3.49508e+06
3.49528e+06
3.49547e+06
3.49567e+06
3.49586e+06
3.49604e+06
3.49622e+06
3.49639e+06
3.49656e+06
3.49672e+06
3.49687e+06
3.49701e+06
3.49715e+06
3.49728e+06
3.4974e+06
3.49751e+06
3.49762e+06
3.49772e+06
3.49781e+06
3.49789e+06
3.49797e+06
3.49804e+06
3.49811e+06
3.49817e+06
3.49823e+06
3.49828e+06
3.49832e+06
3.49836e+06
3.4984e+06
3.49843e+06
3.49845e+06
3.49847e+06
3.49849e+06
3.49851e+06
3.49851e+06
3.49852e+06
3.49293e+06
3.49312e+06
3.49332e+06
3.49351e+06
3.49371e+06
3.49392e+06
3.49414e+06
3.49436e+06
3.49458e+06
3.4948e+06
3.49503e+06
3.49525e+06
3.49546e+06
3.49567e+06
3.49588e+06
3.49607e+06
3.49626e+06
3.49645e+06
3.49662e+06
3.49678e+06
3.49694e+06
3.49708e+06
3.49722e+06
3.49735e+06
3.49747e+06
3.49758e+06
3.49768e+06
3.49778e+06
3.49787e+06
3.49795e+06
3.49802e+06
3.49809e+06
3.49815e+06
3.49821e+06
3.49826e+06
3.49831e+06
3.49835e+06
3.49838e+06
3.49842e+06
3.49844e+06
3.49847e+06
3.49848e+06
3.4985e+06
3.4985e+06
3.49851e+06
3.49228e+06
3.49251e+06
3.49276e+06
3.49299e+06
3.49323e+06
3.49348e+06
3.49373e+06
3.49399e+06
3.49425e+06
3.4945e+06
3.49475e+06
3.495e+06
3.49524e+06
3.49548e+06
3.49571e+06
3.49592e+06
3.49613e+06
3.49633e+06
3.49651e+06
3.49669e+06
3.49686e+06
3.49701e+06
3.49716e+06
3.49729e+06
3.49742e+06
3.49754e+06
3.49765e+06
3.49775e+06
3.49784e+06
3.49792e+06
3.498e+06
3.49807e+06
3.49814e+06
3.49819e+06
3.49825e+06
3.49829e+06
3.49834e+06
3.49837e+06
3.49841e+06
3.49843e+06
3.49846e+06
3.49847e+06
3.49849e+06
3.4985e+06
3.4985e+06
3.49168e+06
3.49191e+06
3.49218e+06
3.49243e+06
3.49271e+06
3.493e+06
3.49329e+06
3.49359e+06
3.49388e+06
3.49417e+06
3.49446e+06
3.49474e+06
3.49501e+06
3.49527e+06
3.49552e+06
3.49576e+06
3.49599e+06
3.49621e+06
3.49641e+06
3.4966e+06
3.49678e+06
3.49694e+06
3.4971e+06
3.49724e+06
3.49738e+06
3.4975e+06
3.49761e+06
3.49772e+06
3.49781e+06
3.4979e+06
3.49798e+06
3.49805e+06
3.49812e+06
3.49818e+06
3.49823e+06
3.49828e+06
3.49833e+06
3.49836e+06
3.4984e+06
3.49842e+06
3.49845e+06
3.49847e+06
3.49848e+06
3.49849e+06
3.49849e+06
3.49079e+06
3.4911e+06
3.49145e+06
3.49177e+06
3.49211e+06
3.49245e+06
3.49279e+06
3.49314e+06
3.49348e+06
3.49382e+06
3.49414e+06
3.49446e+06
3.49476e+06
3.49506e+06
3.49533e+06
3.4956e+06
3.49585e+06
3.49608e+06
3.4963e+06
3.4965e+06
3.4967e+06
3.49687e+06
3.49704e+06
3.49719e+06
3.49733e+06
3.49746e+06
3.49758e+06
3.49769e+06
3.49779e+06
3.49788e+06
3.49796e+06
3.49804e+06
3.4981e+06
3.49817e+06
3.49822e+06
3.49827e+06
3.49831e+06
3.49835e+06
3.49839e+06
3.49842e+06
3.49844e+06
3.49846e+06
3.49847e+06
3.49848e+06
3.49848e+06
3.48997e+06
3.4903e+06
3.49069e+06
3.49105e+06
3.49145e+06
3.49185e+06
3.49225e+06
3.49265e+06
3.49304e+06
3.49343e+06
3.4938e+06
3.49416e+06
3.4945e+06
3.49482e+06
3.49513e+06
3.49542e+06
3.4957e+06
3.49595e+06
3.49619e+06
3.49641e+06
3.49661e+06
3.4968e+06
3.49698e+06
3.49714e+06
3.49728e+06
3.49742e+06
3.49754e+06
3.49766e+06
3.49776e+06
3.49785e+06
3.49794e+06
3.49802e+06
3.49809e+06
3.49815e+06
3.49821e+06
3.49826e+06
3.4983e+06
3.49834e+06
3.49838e+06
3.49841e+06
3.49843e+06
3.49845e+06
3.49846e+06
3.49847e+06
3.49848e+06
3.48872e+06
3.48919e+06
3.4897e+06
3.49018e+06
3.49067e+06
3.49116e+06
3.49164e+06
3.4921e+06
3.49256e+06
3.493e+06
3.49343e+06
3.49383e+06
3.49422e+06
3.49458e+06
3.49492e+06
3.49524e+06
3.49554e+06
3.49582e+06
3.49607e+06
3.49631e+06
3.49653e+06
3.49673e+06
3.49691e+06
3.49708e+06
3.49724e+06
3.49738e+06
3.49751e+06
3.49763e+06
3.49773e+06
3.49783e+06
3.49792e+06
3.498e+06
3.49807e+06
3.49814e+06
3.4982e+06
3.49825e+06
3.49829e+06
3.49833e+06
3.49837e+06
3.4984e+06
3.49842e+06
3.49844e+06
3.49846e+06
3.49847e+06
3.49847e+06
3.48767e+06
3.48816e+06
3.48873e+06
3.48927e+06
3.48984e+06
3.49041e+06
3.49096e+06
3.49151e+06
3.49204e+06
3.49255e+06
3.49303e+06
3.49349e+06
3.49392e+06
3.49433e+06
3.4947e+06
3.49506e+06
3.49538e+06
3.49568e+06
3.49596e+06
3.49621e+06
3.49645e+06
3.49666e+06
3.49685e+06
3.49703e+06
3.49719e+06
3.49734e+06
3.49748e+06
3.4976e+06
3.49771e+06
3.49781e+06
3.4979e+06
3.49798e+06
3.49806e+06
3.49813e+06
3.49819e+06
3.49824e+06
3.49829e+06
3.49833e+06
3.49836e+06
3.49839e+06
3.49842e+06
3.49844e+06
3.49845e+06
3.49846e+06
3.49846e+06
3.48587e+06
3.48662e+06
3.48739e+06
3.48812e+06
3.48884e+06
3.48954e+06
3.4902e+06
3.49085e+06
3.49146e+06
3.49205e+06
3.4926e+06
3.49312e+06
3.49361e+06
3.49406e+06
3.49448e+06
3.49486e+06
3.49522e+06
3.49554e+06
3.49584e+06
3.49611e+06
3.49636e+06
3.49659e+06
3.49679e+06
3.49698e+06
3.49715e+06
3.4973e+06
3.49744e+06
3.49757e+06
3.49769e+06
3.49779e+06
3.49788e+06
3.49797e+06
3.49804e+06
3.49811e+06
3.49817e+06
3.49823e+06
3.49828e+06
3.49832e+06
3.49835e+06
3.49838e+06
3.49841e+06
3.49843e+06
3.49844e+06
3.49845e+06
3.49846e+06
3.48456e+06
3.48533e+06
3.48615e+06
3.48697e+06
3.4878e+06
3.4886e+06
3.48938e+06
3.49013e+06
3.49084e+06
3.49152e+06
3.49215e+06
3.49273e+06
3.49328e+06
3.49378e+06
3.49424e+06
3.49466e+06
3.49505e+06
3.4954e+06
3.49572e+06
3.49601e+06
3.49628e+06
3.49652e+06
3.49673e+06
3.49693e+06
3.49711e+06
3.49727e+06
3.49741e+06
3.49755e+06
3.49766e+06
3.49777e+06
3.49787e+06
3.49795e+06
3.49803e+06
3.4981e+06
3.49816e+06
3.49822e+06
3.49827e+06
3.49831e+06
3.49835e+06
3.49838e+06
3.4984e+06
3.49842e+06
3.49844e+06
3.49845e+06
3.49845e+06
3.4819e+06
3.48313e+06
3.48433e+06
3.48545e+06
3.4865e+06
3.48751e+06
3.48845e+06
3.48934e+06
3.49017e+06
3.49094e+06
3.49166e+06
3.49233e+06
3.49293e+06
3.49349e+06
3.494e+06
3.49446e+06
3.49488e+06
3.49526e+06
3.4956e+06
3.49591e+06
3.49619e+06
3.49645e+06
3.49668e+06
3.49688e+06
3.49707e+06
3.49723e+06
3.49738e+06
3.49752e+06
3.49764e+06
3.49775e+06
3.49785e+06
3.49794e+06
3.49802e+06
3.49809e+06
3.49815e+06
3.49821e+06
3.49826e+06
3.4983e+06
3.49834e+06
3.49837e+06
3.4984e+06
3.49842e+06
3.49843e+06
3.49844e+06
3.49844e+06
3.48035e+06
3.48157e+06
3.4828e+06
3.48402e+06
3.48521e+06
3.48636e+06
3.48745e+06
3.48848e+06
3.48944e+06
3.49033e+06
3.49115e+06
3.4919e+06
3.49258e+06
3.49319e+06
3.49375e+06
3.49426e+06
3.49471e+06
3.49512e+06
3.49549e+06
3.49582e+06
3.49611e+06
3.49638e+06
3.49662e+06
3.49683e+06
3.49703e+06
3.4972e+06
3.49735e+06
3.4975e+06
3.49762e+06
3.49773e+06
3.49784e+06
3.49793e+06
3.49801e+06
3.49808e+06
3.49814e+06
3.4982e+06
3.49825e+06
3.4983e+06
3.49833e+06
3.49837e+06
3.49839e+06
3.49841e+06
3.49843e+06
3.49844e+06
3.49844e+06
3.47634e+06
3.47839e+06
3.48023e+06
3.48196e+06
3.48352e+06
3.48498e+06
3.48631e+06
3.48754e+06
3.48866e+06
3.48968e+06
3.49061e+06
3.49145e+06
3.49221e+06
3.49289e+06
3.4935e+06
3.49405e+06
3.49454e+06
3.49498e+06
3.49537e+06
3.49572e+06
3.49603e+06
3.49631e+06
3.49656e+06
3.49679e+06
3.49699e+06
3.49717e+06
3.49733e+06
3.49747e+06
3.4976e+06
3.49772e+06
3.49782e+06
3.49791e+06
3.498e+06
3.49807e+06
3.49814e+06
3.49819e+06
3.49825e+06
3.49829e+06
3.49833e+06
3.49836e+06
3.49839e+06
3.49841e+06
3.49842e+06
3.49843e+06
3.49844e+06
3.47094e+06
3.47287e+06
3.47457e+06
3.47652e+06
3.47836e+06
3.48022e+06
3.48194e+06
3.48361e+06
3.48513e+06
3.48655e+06
3.48783e+06
3.489e+06
3.49005e+06
3.49099e+06
3.49183e+06
3.49258e+06
3.49325e+06
3.49384e+06
3.49437e+06
3.49484e+06
3.49526e+06
3.49563e+06
3.49596e+06
3.49625e+06
3.49651e+06
3.49674e+06
3.49695e+06
3.49714e+06
3.4973e+06
3.49745e+06
3.49758e+06
3.4977e+06
3.49781e+06
3.4979e+06
3.49799e+06
3.49806e+06
3.49813e+06
3.49819e+06
3.49824e+06
3.49828e+06
3.49832e+06
3.49836e+06
3.49838e+06
3.4984e+06
3.49842e+06
3.49843e+06
3.49843e+06
3.4605e+06
3.46486e+06
3.46836e+06
3.47183e+06
3.47472e+06
3.47744e+06
3.47976e+06
3.48189e+06
3.48376e+06
3.48545e+06
3.48694e+06
3.48828e+06
3.48947e+06
3.49052e+06
3.49145e+06
3.49228e+06
3.493e+06
3.49364e+06
3.49421e+06
3.49471e+06
3.49515e+06
3.49554e+06
3.49588e+06
3.49619e+06
3.49646e+06
3.4967e+06
3.49692e+06
3.49711e+06
3.49728e+06
3.49743e+06
3.49756e+06
3.49769e+06
3.49779e+06
3.49789e+06
3.49798e+06
3.49805e+06
3.49812e+06
3.49818e+06
3.49823e+06
3.49828e+06
3.49832e+06
3.49835e+06
3.49838e+06
3.4984e+06
3.49842e+06
3.49842e+06
3.49843e+06
3.46088e+06
3.46412e+06
3.46668e+06
3.46986e+06
3.47258e+06
3.47544e+06
3.47793e+06
3.48031e+06
3.48243e+06
3.48435e+06
3.48605e+06
3.48756e+06
3.48888e+06
3.49005e+06
3.49107e+06
3.49197e+06
3.49276e+06
3.49344e+06
3.49405e+06
3.49458e+06
3.49504e+06
3.49545e+06
3.49581e+06
3.49613e+06
3.49641e+06
3.49666e+06
3.49688e+06
3.49708e+06
3.49725e+06
3.49741e+06
3.49755e+06
3.49767e+06
3.49778e+06
3.49788e+06
3.49797e+06
3.49805e+06
3.49811e+06
3.49817e+06
3.49823e+06
3.49827e+06
3.49831e+06
3.49835e+06
3.49837e+06
3.4984e+06
3.49841e+06
3.49842e+06
3.49842e+06
3.443e+06
3.45109e+06
3.45695e+06
3.46291e+06
3.46744e+06
3.47172e+06
3.47515e+06
3.47824e+06
3.48083e+06
3.48312e+06
3.48509e+06
3.4868e+06
3.48829e+06
3.48958e+06
3.4907e+06
3.49168e+06
3.49252e+06
3.49326e+06
3.4939e+06
3.49445e+06
3.49494e+06
3.49537e+06
3.49575e+06
3.49608e+06
3.49637e+06
3.49663e+06
3.49685e+06
3.49706e+06
3.49723e+06
3.49739e+06
3.49753e+06
3.49766e+06
3.49777e+06
3.49787e+06
3.49796e+06
3.49804e+06
3.49811e+06
3.49817e+06
3.49822e+06
3.49827e+06
3.49831e+06
3.49834e+06
3.49837e+06
3.49839e+06
3.49841e+06
3.49842e+06
3.49842e+06
3.44623e+06
3.45214e+06
3.45595e+06
3.46124e+06
3.46524e+06
3.4696e+06
3.47316e+06
3.47654e+06
3.47941e+06
3.48197e+06
3.48416e+06
3.48607e+06
3.48771e+06
3.48913e+06
3.49034e+06
3.49139e+06
3.4923e+06
3.49308e+06
3.49375e+06
3.49434e+06
3.49485e+06
3.4953e+06
3.49569e+06
3.49603e+06
3.49633e+06
3.49659e+06
3.49683e+06
3.49703e+06
3.49722e+06
3.49738e+06
3.49752e+06
3.49765e+06
3.49776e+06
3.49786e+06
3.49795e+06
3.49803e+06
3.4981e+06
3.49816e+06
3.49822e+06
3.49827e+06
3.49831e+06
3.49834e+06
3.49837e+06
3.49839e+06
3.49841e+06
3.49842e+06
3.49842e+06
3.4168e+06
3.43151e+06
3.4411e+06
3.45124e+06
3.45819e+06
3.46484e+06
3.46977e+06
3.47416e+06
3.47767e+06
3.48069e+06
3.4832e+06
3.48534e+06
3.48715e+06
3.4887e+06
3.49001e+06
3.49113e+06
3.49209e+06
3.49292e+06
3.49363e+06
3.49424e+06
3.49477e+06
3.49523e+06
3.49563e+06
3.49599e+06
3.49629e+06
3.49656e+06
3.4968e+06
3.49701e+06
3.4972e+06
3.49736e+06
3.49751e+06
3.49764e+06
3.49775e+06
3.49786e+06
3.49795e+06
3.49803e+06
3.4981e+06
3.49816e+06
3.49822e+06
3.49826e+06
3.4983e+06
3.49834e+06
3.49837e+06
3.49839e+06
3.4984e+06
3.49841e+06
3.49842e+06
3.42443e+06
3.4355e+06
3.44141e+06
3.45045e+06
3.45629e+06
3.46289e+06
3.46784e+06
3.47252e+06
3.47631e+06
3.47961e+06
3.48235e+06
3.48469e+06
3.48664e+06
3.4883e+06
3.4897e+06
3.49089e+06
3.49191e+06
3.49277e+06
3.49351e+06
3.49415e+06
3.4947e+06
3.49517e+06
3.49559e+06
3.49595e+06
3.49626e+06
3.49654e+06
3.49678e+06
3.497e+06
3.49719e+06
3.49735e+06
3.4975e+06
3.49763e+06
3.49775e+06
3.49785e+06
3.49794e+06
3.49802e+06
3.49809e+06
3.49816e+06
3.49821e+06
3.49826e+06
3.4983e+06
3.49834e+06
3.49836e+06
3.49839e+06
3.4984e+06
3.49841e+06
3.49842e+06
3.38098e+06
3.40603e+06
3.42099e+06
3.43754e+06
3.44761e+06
3.45742e+06
3.46418e+06
3.47012e+06
3.47464e+06
3.47844e+06
3.48151e+06
3.48407e+06
3.48619e+06
3.48796e+06
3.48944e+06
3.49069e+06
3.49175e+06
3.49265e+06
3.49342e+06
3.49407e+06
3.49464e+06
3.49513e+06
3.49555e+06
3.49592e+06
3.49624e+06
3.49652e+06
3.49677e+06
3.49698e+06
3.49717e+06
3.49734e+06
3.49749e+06
3.49762e+06
3.49774e+06
3.49785e+06
3.49794e+06
3.49802e+06
3.49809e+06
3.49815e+06
3.49821e+06
3.49826e+06
3.4983e+06
3.49833e+06
3.49836e+06
3.49839e+06
3.4984e+06
3.49841e+06
3.49841e+06
3.39199e+06
3.41156e+06
3.42168e+06
3.43734e+06
3.44602e+06
3.45585e+06
3.46259e+06
3.46879e+06
3.47355e+06
3.4776e+06
3.48086e+06
3.48358e+06
3.48582e+06
3.48768e+06
3.48923e+06
3.49053e+06
3.49162e+06
3.49255e+06
3.49334e+06
3.49401e+06
3.49459e+06
3.49509e+06
3.49552e+06
3.49589e+06
3.49622e+06
3.4965e+06
3.49675e+06
3.49697e+06
3.49717e+06
3.49734e+06
3.49749e+06
3.49762e+06
3.49774e+06
3.49784e+06
3.49793e+06
3.49802e+06
3.49809e+06
3.49815e+06
3.49821e+06
3.49826e+06
3.4983e+06
3.49833e+06
3.49836e+06
3.49839e+06
3.4984e+06
3.49841e+06
3.49841e+06
3.34245e+06
3.3795e+06
3.40164e+06
3.42523e+06
3.4384e+06
3.45132e+06
3.45977e+06
3.46705e+06
3.47242e+06
3.47684e+06
3.48034e+06
3.48321e+06
3.48555e+06
3.48748e+06
3.48908e+06
3.49042e+06
3.49154e+06
3.49249e+06
3.49329e+06
3.49398e+06
3.49456e+06
3.49507e+06
3.4955e+06
3.49588e+06
3.49621e+06
3.49649e+06
3.49675e+06
3.49697e+06
3.49716e+06
3.49733e+06
3.49748e+06
3.49762e+06
3.49773e+06
3.49784e+06
3.49793e+06
3.49801e+06
3.49809e+06
3.49815e+06
3.49821e+06
3.49826e+06
3.4983e+06
3.49833e+06
3.49836e+06
3.49839e+06
3.4984e+06
3.49841e+06
3.49841e+06
3.34581e+06
3.37908e+06
3.39909e+06
3.4237e+06
3.43671e+06
3.4501e+06
3.4588e+06
3.46633e+06
3.47189e+06
3.47646e+06
3.48007e+06
3.48301e+06
3.48541e+06
3.48738e+06
3.48901e+06
3.49037e+06
3.4915e+06
3.49246e+06
3.49327e+06
3.49396e+06
3.49455e+06
3.49506e+06
3.49549e+06
3.49587e+06
3.4962e+06
3.49649e+06
3.49674e+06
3.49696e+06
3.49716e+06
3.49733e+06
3.49748e+06
3.49761e+06
3.49773e+06
3.49784e+06
3.49793e+06
3.49801e+06
3.49809e+06
3.49815e+06
3.49821e+06
3.49826e+06
3.4983e+06
3.49833e+06
3.49836e+06
3.49839e+06
3.4984e+06
3.49841e+06
3.49841e+06
3.49856e+06
3.49858e+06
3.4986e+06
3.49862e+06
3.49864e+06
3.49865e+06
3.49866e+06
3.49867e+06
3.49867e+06
3.49845e+06
3.49848e+06
3.49851e+06
3.49854e+06
3.49857e+06
3.49859e+06
3.49861e+06
3.49862e+06
3.49864e+06
3.49865e+06
3.49865e+06
3.49866e+06
3.49673e+06
3.49677e+06
3.49681e+06
3.49685e+06
3.4969e+06
3.49694e+06
3.49699e+06
3.49704e+06
3.49709e+06
3.49715e+06
3.4972e+06
3.49726e+06
3.49731e+06
3.49737e+06
3.49743e+06
3.49749e+06
3.49755e+06
3.49761e+06
3.49767e+06
3.49773e+06
3.49779e+06
3.49785e+06
3.49791e+06
3.49797e+06
3.49802e+06
3.49808e+06
3.49813e+06
3.49818e+06
3.49823e+06
3.49827e+06
3.49832e+06
3.49836e+06
3.4984e+06
3.49843e+06
3.49847e+06
3.4985e+06
3.49853e+06
3.49855e+06
3.49857e+06
3.49859e+06
3.49861e+06
3.49862e+06
3.49863e+06
3.49864e+06
3.49865e+06
3.49656e+06
3.49661e+06
3.49666e+06
3.4967e+06
3.49676e+06
3.49681e+06
3.49686e+06
3.49692e+06
3.49698e+06
3.49704e+06
3.4971e+06
3.49716e+06
3.49722e+06
3.49728e+06
3.49735e+06
3.49741e+06
3.49748e+06
3.49754e+06
3.49761e+06
3.49767e+06
3.49774e+06
3.4978e+06
3.49786e+06
3.49792e+06
3.49798e+06
3.49804e+06
3.4981e+06
3.49815e+06
3.4982e+06
3.49825e+06
3.49829e+06
3.49834e+06
3.49838e+06
3.49841e+06
3.49845e+06
3.49848e+06
3.49851e+06
3.49854e+06
3.49856e+06
3.49858e+06
3.4986e+06
3.49861e+06
3.49862e+06
3.49863e+06
3.49863e+06
3.49637e+06
3.49643e+06
3.4965e+06
3.49655e+06
3.49661e+06
3.49667e+06
3.49673e+06
3.49679e+06
3.49685e+06
3.49692e+06
3.49698e+06
3.49705e+06
3.49712e+06
3.49719e+06
3.49726e+06
3.49733e+06
3.4974e+06
3.49747e+06
3.49754e+06
3.49761e+06
3.49768e+06
3.49775e+06
3.49782e+06
3.49788e+06
3.49794e+06
3.498e+06
3.49806e+06
3.49812e+06
3.49817e+06
3.49822e+06
3.49827e+06
3.49832e+06
3.49836e+06
3.4984e+06
3.49843e+06
3.49847e+06
3.4985e+06
3.49852e+06
3.49855e+06
3.49857e+06
3.49858e+06
3.4986e+06
3.49861e+06
3.49862e+06
3.49862e+06
3.49619e+06
3.49625e+06
3.49632e+06
3.49638e+06
3.49645e+06
3.49651e+06
3.49658e+06
3.49665e+06
3.49672e+06
3.49679e+06
3.49686e+06
3.49694e+06
3.49701e+06
3.49709e+06
3.49716e+06
3.49724e+06
3.49732e+06
3.4974e+06
3.49747e+06
3.49755e+06
3.49762e+06
3.4977e+06
3.49777e+06
3.49784e+06
3.4979e+06
3.49797e+06
3.49803e+06
3.49809e+06
3.49814e+06
3.4982e+06
3.49825e+06
3.49829e+06
3.49834e+06
3.49838e+06
3.49842e+06
3.49845e+06
3.49848e+06
3.49851e+06
3.49853e+06
3.49855e+06
3.49857e+06
3.49859e+06
3.4986e+06
3.49861e+06
3.49861e+06
3.49598e+06
3.49604e+06
3.49612e+06
3.49619e+06
3.49627e+06
3.49634e+06
3.49642e+06
3.49649e+06
3.49657e+06
3.49665e+06
3.49673e+06
3.49681e+06
3.4969e+06
3.49698e+06
3.49707e+06
3.49715e+06
3.49723e+06
3.49732e+06
3.4974e+06
3.49748e+06
3.49756e+06
3.49764e+06
3.49772e+06
3.49779e+06
3.49786e+06
3.49793e+06
3.498e+06
3.49806e+06
3.49812e+06
3.49817e+06
3.49822e+06
3.49827e+06
3.49832e+06
3.49836e+06
3.4984e+06
3.49843e+06
3.49847e+06
3.49849e+06
3.49852e+06
3.49854e+06
3.49856e+06
3.49858e+06
3.49859e+06
3.49859e+06
3.4986e+06
3.49576e+06
3.49583e+06
3.49592e+06
3.496e+06
3.49608e+06
3.49616e+06
3.49624e+06
3.49633e+06
3.49642e+06
3.4965e+06
3.49659e+06
3.49668e+06
3.49678e+06
3.49687e+06
3.49696e+06
3.49705e+06
3.49715e+06
3.49724e+06
3.49733e+06
3.49742e+06
3.4975e+06
3.49759e+06
3.49767e+06
3.49775e+06
3.49782e+06
3.49789e+06
3.49796e+06
3.49803e+06
3.49809e+06
3.49815e+06
3.4982e+06
3.49825e+06
3.4983e+06
3.49834e+06
3.49838e+06
3.49842e+06
3.49845e+06
3.49848e+06
3.49851e+06
3.49853e+06
3.49855e+06
3.49856e+06
3.49858e+06
3.49858e+06
3.49859e+06
3.49552e+06
3.4956e+06
3.49569e+06
3.49578e+06
3.49587e+06
3.49596e+06
3.49606e+06
3.49615e+06
3.49625e+06
3.49634e+06
3.49644e+06
3.49654e+06
3.49665e+06
3.49675e+06
3.49685e+06
3.49695e+06
3.49705e+06
3.49715e+06
3.49725e+06
3.49734e+06
3.49744e+06
3.49753e+06
3.49761e+06
3.4977e+06
3.49778e+06
3.49785e+06
3.49793e+06
3.498e+06
3.49806e+06
3.49812e+06
3.49818e+06
3.49823e+06
3.49828e+06
3.49833e+06
3.49837e+06
3.4984e+06
3.49844e+06
3.49847e+06
3.49849e+06
3.49852e+06
3.49854e+06
3.49855e+06
3.49856e+06
3.49857e+06
3.49858e+06
3.49527e+06
3.49536e+06
3.49546e+06
3.49555e+06
3.49565e+06
3.49575e+06
3.49585e+06
3.49596e+06
3.49606e+06
3.49617e+06
3.49628e+06
3.4964e+06
3.49651e+06
3.49662e+06
3.49673e+06
3.49685e+06
3.49696e+06
3.49706e+06
3.49717e+06
3.49727e+06
3.49737e+06
3.49747e+06
3.49756e+06
3.49765e+06
3.49774e+06
3.49782e+06
3.49789e+06
3.49796e+06
3.49803e+06
3.4981e+06
3.49816e+06
3.49821e+06
3.49826e+06
3.49831e+06
3.49835e+06
3.49839e+06
3.49842e+06
3.49846e+06
3.49848e+06
3.49851e+06
3.49853e+06
3.49854e+06
3.49855e+06
3.49856e+06
3.49857e+06
3.49498e+06
3.49508e+06
3.49519e+06
3.49529e+06
3.4954e+06
3.49552e+06
3.49563e+06
3.49575e+06
3.49587e+06
3.49599e+06
3.49611e+06
3.49624e+06
3.49636e+06
3.49649e+06
3.49661e+06
3.49673e+06
3.49685e+06
3.49697e+06
3.49709e+06
3.4972e+06
3.4973e+06
3.49741e+06
3.49751e+06
3.4976e+06
3.49769e+06
3.49778e+06
3.49786e+06
3.49793e+06
3.498e+06
3.49807e+06
3.49813e+06
3.49819e+06
3.49824e+06
3.49829e+06
3.49833e+06
3.49837e+06
3.49841e+06
3.49844e+06
3.49847e+06
3.49849e+06
3.49852e+06
3.49853e+06
3.49854e+06
3.49855e+06
3.49856e+06
3.49466e+06
3.49477e+06
3.49489e+06
3.49501e+06
3.49513e+06
3.49526e+06
3.49539e+06
3.49552e+06
3.49565e+06
3.49579e+06
3.49593e+06
3.49607e+06
3.4962e+06
3.49634e+06
3.49648e+06
3.49661e+06
3.49675e+06
3.49687e+06
3.497e+06
3.49712e+06
3.49723e+06
3.49735e+06
3.49745e+06
3.49755e+06
3.49765e+06
3.49774e+06
3.49782e+06
3.4979e+06
3.49798e+06
3.49805e+06
3.49811e+06
3.49817e+06
3.49822e+06
3.49827e+06
3.49832e+06
3.49836e+06
3.4984e+06
3.49843e+06
3.49846e+06
3.49848e+06
3.4985e+06
3.49852e+06
3.49853e+06
3.49854e+06
3.49855e+06
3.49429e+06
3.49443e+06
3.49456e+06
3.4947e+06
3.49484e+06
3.49498e+06
3.49512e+06
3.49527e+06
3.49542e+06
3.49557e+06
3.49573e+06
3.49588e+06
3.49604e+06
3.49619e+06
3.49634e+06
3.49649e+06
3.49663e+06
3.49677e+06
3.49691e+06
3.49704e+06
3.49716e+06
3.49728e+06
3.49739e+06
3.4975e+06
3.4976e+06
3.4977e+06
3.49779e+06
3.49787e+06
3.49795e+06
3.49802e+06
3.49809e+06
3.49815e+06
3.49821e+06
3.49826e+06
3.4983e+06
3.49835e+06
3.49838e+06
3.49842e+06
3.49845e+06
3.49847e+06
3.49849e+06
3.49851e+06
3.49852e+06
3.49853e+06
3.49854e+06
3.49391e+06
3.49405e+06
3.4942e+06
3.49435e+06
3.4945e+06
3.49466e+06
3.49482e+06
3.49499e+06
3.49516e+06
3.49534e+06
3.49551e+06
3.49569e+06
3.49586e+06
3.49603e+06
3.4962e+06
3.49636e+06
3.49652e+06
3.49667e+06
3.49681e+06
3.49696e+06
3.49709e+06
3.49722e+06
3.49734e+06
3.49745e+06
3.49756e+06
3.49766e+06
3.49775e+06
3.49784e+06
3.49792e+06
3.498e+06
3.49807e+06
3.49813e+06
3.49819e+06
3.49824e+06
3.49829e+06
3.49833e+06
3.49837e+06
3.49841e+06
3.49844e+06
3.49846e+06
3.49848e+06
3.4985e+06
3.49851e+06
3.49852e+06
3.49853e+06
3.49342e+06
3.4936e+06
3.49378e+06
3.49395e+06
3.49413e+06
3.49431e+06
3.4945e+06
3.49469e+06
3.49488e+06
3.49508e+06
3.49528e+06
3.49547e+06
3.49567e+06
3.49586e+06
3.49604e+06
3.49622e+06
3.49639e+06
3.49656e+06
3.49672e+06
3.49687e+06
3.49701e+06
3.49715e+06
3.49728e+06
3.4974e+06
3.49751e+06
3.49762e+06
3.49772e+06
3.49781e+06
3.49789e+06
3.49797e+06
3.49804e+06
3.49811e+06
3.49817e+06
3.49823e+06
3.49828e+06
3.49832e+06
3.49836e+06
3.4984e+06
3.49843e+06
3.49845e+06
3.49847e+06
3.49849e+06
3.49851e+06
3.49851e+06
3.49852e+06
3.49293e+06
3.49312e+06
3.49332e+06
3.49351e+06
3.49371e+06
3.49392e+06
3.49414e+06
3.49436e+06
3.49458e+06
3.4948e+06
3.49503e+06
3.49525e+06
3.49546e+06
3.49567e+06
3.49588e+06
3.49607e+06
3.49626e+06
3.49645e+06
3.49662e+06
3.49678e+06
3.49694e+06
3.49708e+06
3.49722e+06
3.49735e+06
3.49747e+06
3.49758e+06
3.49768e+06
3.49778e+06
3.49787e+06
3.49795e+06
3.49802e+06
3.49809e+06
3.49815e+06
3.49821e+06
3.49826e+06
3.49831e+06
3.49835e+06
3.49838e+06
3.49842e+06
3.49844e+06
3.49847e+06
3.49848e+06
3.4985e+06
3.4985e+06
3.49851e+06
3.49228e+06
3.49251e+06
3.49276e+06
3.49299e+06
3.49323e+06
3.49348e+06
3.49373e+06
3.49399e+06
3.49425e+06
3.4945e+06
3.49475e+06
3.495e+06
3.49524e+06
3.49548e+06
3.49571e+06
3.49592e+06
3.49613e+06
3.49633e+06
3.49651e+06
3.49669e+06
3.49686e+06
3.49701e+06
3.49716e+06
3.49729e+06
3.49742e+06
3.49754e+06
3.49765e+06
3.49775e+06
3.49784e+06
3.49792e+06
3.498e+06
3.49807e+06
3.49814e+06
3.49819e+06
3.49825e+06
3.49829e+06
3.49834e+06
3.49837e+06
3.49841e+06
3.49843e+06
3.49846e+06
3.49847e+06
3.49849e+06
3.4985e+06
3.4985e+06
3.49168e+06
3.49191e+06
3.49218e+06
3.49243e+06
3.49271e+06
3.493e+06
3.49329e+06
3.49359e+06
3.49388e+06
3.49417e+06
3.49446e+06
3.49474e+06
3.49501e+06
3.49527e+06
3.49552e+06
3.49576e+06
3.49599e+06
3.49621e+06
3.49641e+06
3.4966e+06
3.49678e+06
3.49694e+06
3.4971e+06
3.49724e+06
3.49738e+06
3.4975e+06
3.49761e+06
3.49772e+06
3.49781e+06
3.4979e+06
3.49798e+06
3.49805e+06
3.49812e+06
3.49818e+06
3.49823e+06
3.49828e+06
3.49833e+06
3.49836e+06
3.4984e+06
3.49842e+06
3.49845e+06
3.49847e+06
3.49848e+06
3.49849e+06
3.49849e+06
3.49079e+06
3.4911e+06
3.49145e+06
3.49177e+06
3.49211e+06
3.49245e+06
3.49279e+06
3.49314e+06
3.49348e+06
3.49382e+06
3.49414e+06
3.49446e+06
3.49476e+06
3.49506e+06
3.49533e+06
3.4956e+06
3.49585e+06
3.49608e+06
3.4963e+06
3.4965e+06
3.4967e+06
3.49687e+06
3.49704e+06
3.49719e+06
3.49733e+06
3.49746e+06
3.49758e+06
3.49769e+06
3.49779e+06
3.49788e+06
3.49796e+06
3.49804e+06
3.4981e+06
3.49817e+06
3.49822e+06
3.49827e+06
3.49831e+06
3.49835e+06
3.49839e+06
3.49842e+06
3.49844e+06
3.49846e+06
3.49847e+06
3.49848e+06
3.49848e+06
3.48997e+06
3.4903e+06
3.49069e+06