/*--------------------------------*- C++ -*----------------------------------*\
| =========                 |                                                 |
| \\      /  F ield         | OpenFOAM: The Open Source CFD Toolbox           |
|  \\    /   O peration     | Version:  v2012                                 |
|   \\  /    A nd           | Website:  www.openfoam.com                      |
|    \\/     M anipulation  |                                                 |
\*---------------------------------------------------------------------------*/
FoamFile
{
    version     2.0;
    format      ascii;
    class       volVectorField;
    location    "0.4";
    object      U;
}
// * * * * * * * * * * * * * * * * * * * * * * * * * * * * * * * * * * * * * //

dimensions      [0 1 -1 0 0 0 0];


internalField   nonuniform List<vector> 
3326
(
(0.00460164 -0.00676776 -4.01824e-05)
(0.0036185 -0.00572232 -3.15997e-05)
(0.00273919 -0.00470937 -2.39229e-05)
(0.00196772 -0.00371703 -1.71875e-05)
(0.00130983 -0.00273689 -1.14432e-05)
(0.000772009 -0.00176925 -6.74694e-06)
(0.000365646 -0.000835502 -3.19764e-06)
(9.86271e-05 -1.6207e-05 -8.65138e-07)
(-1.05505e-05 0.000417689 7.82951e-08)
(0.00814515 -0.00984912 -7.11161e-05)
(0.00685419 -0.00865568 -5.98468e-05)
(0.0056628 -0.00753488 -4.94461e-05)
(0.00457334 -0.00647364 -3.99348e-05)
(0.00358793 -0.00545886 -3.13321e-05)
(0.00270936 -0.00447753 -2.36621e-05)
(0.00194084 -0.00351791 -1.69525e-05)
(0.00128761 -0.00257191 -1.1249e-05)
(0.000755448 -0.00164028 -6.60212e-06)
(0.000355143 -0.000744833 -3.10584e-06)
(9.38241e-05 3.40987e-05 -8.23068e-07)
(-1.11648e-05 0.00042891 8.44585e-08)
(0.0241009 -0.0801231 -0.000210339)
(0.0265322 -0.081624 -0.000231564)
(0.0288706 -0.0825396 -0.000251967)
(0.0311009 -0.0828785 -0.000271442)
(0.0331697 -0.0826569 -0.000289491)
(0.0350504 -0.0819029 -0.000305916)
(0.0367117 -0.0806451 -0.00032041)
(0.0381254 -0.0789232 -0.000332758)
(0.0392693 -0.0767791 -0.000342737)
(0.0401268 -0.0742618 -0.000350232)
(0.0406866 -0.0714223 -0.000355114)
(0.0409445 -0.0683156 -0.000357374)
(0.0409011 -0.0649964 -0.000356992)
(0.0405649 -0.0615207 -0.000354067)
(0.0399482 -0.0579419 -0.000348683)
(0.0390701 -0.0543118 -0.000341027)
(0.0379525 -0.0506776 -0.00033127)
(0.0366222 -0.0470825 -0.000319666)
(0.0351073 -0.043564 -0.000306442)
(0.0334383 -0.0401543 -0.000291881)
(0.0316454 -0.0368794 -0.00027623)
(0.0297592 -0.0337594 -0.000259772)
(0.0278084 -0.0308086 -0.000242743)
(0.0258207 -0.0280364 -0.000225397)
(0.023821 -0.0254472 -0.000207942)
(0.0218321 -0.0230409 -0.000190585)
(0.0198735 -0.020814 -0.000173491)
(0.0179626 -0.0187597 -0.000156813)
(0.0161135 -0.0168692 -0.000140672)
(0.0143384 -0.0151322 -0.000125179)
(0.0126462 -0.013536 -0.000110406)
(0.0110442 -0.0120681 -9.64228e-05)
(0.0095378 -0.010715 -8.3273e-05)
(0.00813114 -0.00946312 -7.09929e-05)
(0.0068271 -0.00829871 -5.96091e-05)
(0.00562778 -0.00720813 -4.91398e-05)
(0.00453452 -0.00617798 -3.95956e-05)
(0.00354887 -0.00519498 -3.09912e-05)
(0.00267276 -0.0042461 -2.33424e-05)
(0.00190888 -0.00331983 -1.66734e-05)
(0.0012617 -0.00240839 -1.10227e-05)
(0.000736504 -0.00151299 -6.43665e-06)
(0.000343295 -0.000655817 -3.00227e-06)
(8.85146e-05 8.30138e-05 -7.76606e-07)
(-1.18144e-05 0.000439404 9.10276e-08)
(0.0265669 -0.0853528 -0.000231868)
(0.0291621 -0.0867158 -0.00025451)
(0.0316403 -0.0874396 -0.000276148)
(0.0339833 -0.0875414 -0.000296591)
(0.0361361 -0.0870431 -0.000315391)
(0.0380677 -0.0859777 -0.000332242)
(0.0397476 -0.084383 -0.000346916)
(0.0411453 -0.0823048 -0.000359108)
(0.0422415 -0.0797937 -0.000368687)
(0.0430194 -0.0769051 -0.000375472)
(0.043472 -0.0736981 -0.000379434)
(0.0435967 -0.0702332 -0.000380518)
(0.0433996 -0.0665718 -0.000378809)
(0.0428918 -0.0627741 -0.000374373)
(0.0420918 -0.058898 -0.000367401)
(0.0410215 -0.0549976 -0.000358056)
(0.0397088 -0.0511224 -0.000346607)
(0.0381834 -0.0473161 -0.000333291)
(0.0364784 -0.0436165 -0.000318416)
(0.0346263 -0.0400547 -0.000302248)
(0.0326609 -0.0366551 -0.0002851)
(0.030614 -0.0334359 -0.000267232)
(0.0285166 -0.0304091 -0.00024893)
(0.0263964 -0.0275814 -0.000230422)
(0.0242795 -0.0249548 -0.000211948)
(0.0221878 -0.0225263 -0.000193689)
(0.0201409 -0.02029 -0.000175825)
(0.0181551 -0.0182369 -0.00015849)
(0.0162438 -0.0163562 -0.000141809)
(0.0144178 -0.0146355 -0.000125869)
(0.0126852 -0.0130609 -0.000110746)
(0.0110518 -0.0116182 -9.64879e-05)
(0.00952224 -0.0102931 -8.31366e-05)
(0.00809914 -0.00907107 -7.07132e-05)
(0.00678468 -0.00793779 -5.9239e-05)
(0.0055797 -0.0068791 -4.87198e-05)
(0.00448495 -0.00588139 -3.91631e-05)
(0.00350104 -0.0049312 -3.05735e-05)
(0.00262931 -0.00401559 -2.29632e-05)
(0.00187167 -0.00312323 -1.63485e-05)
(0.00123209 -0.00224672 -1.07641e-05)
(0.000715109 -0.00138769 -6.24973e-06)
(0.000330103 -0.000568728 -2.88702e-06)
(8.26789e-05 0.000130353 -7.25509e-07)
(-1.24932e-05 0.000449089 9.79208e-08)
(0.0293008 -0.091019 -0.000255721)
(0.032073 -0.0922078 -0.000279925)
(0.0346964 -0.0927008 -0.000302813)
(0.0371538 -0.0925226 -0.000324272)
(0.0393852 -0.0917024 -0.000343739)
(0.041359 -0.0902805 -0.000360978)
(0.0430425 -0.0883036 -0.000375665)
(0.0444076 -0.0858261 -0.000387592)
(0.0454345 -0.0829066 -0.000396549)
(0.0461106 -0.0796097 -0.000402462)
(0.0464304 -0.0760012 -0.000405248)
(0.0463969 -0.0721495 -0.000404968)
(0.0460194 -0.0681215 -0.000401669)
(0.0453156 -0.0639827 -0.000395537)
(0.0443075 -0.0597944 -0.000386736)
(0.0430237 -0.0556137 -0.00037554)
(0.0414955 -0.0514911 -0.000362199)
(0.0397583 -0.0474711 -0.000347045)
(0.0378479 -0.0435904 -0.000330368)
(0.0358012 -0.0398789 -0.00031251)
(0.0336535 -0.0363589 -0.000293763)
(0.0314395 -0.033046 -0.000274442)
(0.0291903 -0.0299495 -0.000254809)
(0.0269351 -0.0270731 -0.000235128)
(0.0246992 -0.0244157 -0.000215611)
(0.022505 -0.0219716 -0.000196461)
(0.0203707 -0.0197322 -0.00017783)
(0.018312 -0.0176862 -0.000159862)
(0.0163407 -0.0158204 -0.000142654)
(0.0144668 -0.0141207 -0.000126298)
(0.0126966 -0.0125716 -0.000110845)
(0.011035 -0.0111577 -9.6342e-05)
(0.00948508 -0.00986349 -8.28118e-05)
(0.00804857 -0.00867377 -7.02723e-05)
(0.00672627 -0.00757359 -5.8729e-05)
(0.00551829 -0.00654846 -4.8184e-05)
(0.00442429 -0.00558445 -3.86335e-05)
(0.00344432 -0.00466808 -3.00785e-05)
(0.00257882 -0.00378648 -2.25223e-05)
(0.0018292 -0.00292857 -1.59777e-05)
(0.00119867 -0.00208728 -1.04723e-05)
(0.000691264 -0.00126473 -6.04149e-06)
(0.000315529 -0.000483828 -2.75965e-06)
(7.63231e-05 0.000175926 -6.69891e-07)
(-1.32063e-05 0.000457881 1.05209e-07)
(0.0323698 -0.0971863 -0.000282517)
(0.0353205 -0.0981542 -0.000308259)
(0.0380897 -0.0983651 -0.000332439)
(0.0406544 -0.097853 -0.000354814)
(0.0429554 -0.0966563 -0.000374911)
(0.0449557 -0.0948233 -0.000392361)
(0.0466245 -0.0924118 -0.00040694)
(0.047933 -0.0894847 -0.000418353)
(0.0488655 -0.0861113 -0.000426506)
(0.0494105 -0.0823644 -0.000431256)
(0.0495688 -0.0783188 -0.000432652)
(0.0493465 -0.0740496 -0.000430706)
(0.0487602 -0.0696304 -0.000425602)
(0.0478316 -0.0651311 -0.000417492)
(0.0465901 -0.0606169 -0.000406669)
(0.0450684 -0.0561467 -0.000393384)
(0.0433046 -0.0517722 -0.000377997)
(0.0413372 -0.047537 -0.000360823)
(0.0392072 -0.0434771 -0.000342239)
(0.0369536 -0.03962 -0.000322567)
(0.0346152 -0.0359854 -0.000302163)
(0.0322272 -0.0325857 -0.000281317)
(0.0298226 -0.0294271 -0.000260332)
(0.0274299 -0.0265096 -0.000239446)
(0.0250751 -0.023829 -0.000218895)
(0.0227789 -0.0213766 -0.000198851)
(0.0205592 -0.0191409 -0.000179479)
(0.0184299 -0.017108 -0.000160891)
(0.0164019 -0.0152625 -0.00014319)
(0.0144831 -0.0135886 -0.00012644)
(0.0126789 -0.0120691 -0.000110692)
(0.0109924 -0.0106873 -9.59696e-05)
(0.00942553 -0.00942702 -8.22927e-05)
(0.00797859 -0.008272 -6.96613e-05)
(0.00665151 -0.00720692 -5.80768e-05)
(0.0054431 -0.00621687 -4.75275e-05)
(0.0043524 -0.0052878 -3.80062e-05)
(0.00337849 -0.00440619 -2.95037e-05)
(0.00252126 -0.00355929 -2.20199e-05)
(0.00178136 -0.00273626 -1.55599e-05)
(0.00116147 -0.00193045 -1.01474e-05)
(0.000664919 -0.00114441 -5.81134e-06)
(0.000299584 -0.000401377 -2.62036e-06)
(6.94302e-05 0.00021956 -6.09538e-07)
(-1.3948e-05 0.000465712 1.12825e-07)
(0.0357961 -0.103876 -0.000312409)
(0.0389335 -0.10457 -0.000339805)
(0.0418484 -0.104443 -0.000365233)
(0.0445148 -0.103538 -0.00038852)
(0.0468714 -0.101905 -0.000409078)
(0.0488809 -0.0996024 -0.000426633)
(0.050511 -0.0966991 -0.000440851)
(0.0517369 -0.0932697 -0.000451567)
(0.0525439 -0.0893934 -0.000458601)
(0.0529266 -0.0851535 -0.000461958)
(0.0528893 -0.0806332 -0.000461626)
(0.0524459 -0.0759158 -0.00045777)
(0.0516177 -0.0710806 -0.000450536)
(0.0504345 -0.0662025 -0.000440222)
(0.0489308 -0.0613496 -0.000427094)
(0.047147 -0.0565825 -0.000411536)
(0.0451251 -0.0519528 -0.000393884)
(0.04291 -0.0475034 -0.000374559)
(0.0405452 -0.0432679 -0.000353915)
(0.0380739 -0.0392711 -0.000332352)
(0.0355361 -0.0355293 -0.000310198)
(0.032969 -0.0320512 -0.000287797)
(0.0304055 -0.028839 -0.000265419)
(0.0278746 -0.0258892 -0.000243332)
(0.025401 -0.0231939 -0.000221739)
(0.0230049 -0.0207411 -0.000200827)
(0.0207023 -0.0185162 -0.000180727)
(0.0185059 -0.0165028 -0.000161556)
(0.0164246 -0.0146833 -0.000143387)
(0.014465 -0.01304 -0.000126284)
(0.0126305 -0.0115543 -0.000110269)
(0.0109229 -0.0102083 -9.53642e-05)
(0.0093426 -0.00898463 -8.15685e-05)
(0.00788874 -0.00786668 -6.88775e-05)
(0.00655985 -0.00683855 -5.72764e-05)
(0.00535396 -0.00588509 -4.67496e-05)
(0.00426901 -0.0049921 -3.7278e-05)
(0.00330351 -0.00414611 -2.88493e-05)
(0.00245651 -0.00333451 -2.14545e-05)
(0.00172815 -0.00254678 -1.50954e-05)
(0.00112041 -0.00177663 -9.78883e-06)
(0.000636096 -0.00102707 -5.55961e-06)
(0.000282243 -0.000321635 -2.4688e-06)
(6.20104e-05 0.00026107 -5.44602e-07)
(-1.47247e-05 0.000472509 1.20846e-07)
(0.0396406 -0.11114 -0.000345976)
(0.0429647 -0.111498 -0.000374975)
(0.0460213 -0.110968 -0.000401667)
(0.0487769 -0.109602 -0.000425706)
(0.051172 -0.107462 -0.000446628)
(0.0531657 -0.104623 -0.000464017)
(0.0547289 -0.101164 -0.00047768)
(0.0558379 -0.0971719 -0.000487348)
(0.0564841 -0.0927393 -0.000493007)
(0.0566658 -0.0879593 -0.000494584)
(0.0563955 -0.0829252 -0.000492242)
(0.0556923 -0.0777274 -0.000486097)
(0.054587 -0.072452 -0.000476466)
(0.0531151 -0.0671776 -0.000463613)
(0.05132 -0.061975 -0.000447959)
(0.049247 -0.0569054 -0.000429861)
(0.0469455 -0.0520199 -0.000409783)
(0.0444637 -0.0473593 -0.000388117)
(0.0418503 -0.0429541 -0.000365315)
(0.0391503 -0.0388255 -0.000341745)
(0.0364061 -0.0349856 -0.000317799)
(0.0336553 -0.031439 -0.000293786)
(0.0309312 -0.0281833 -0.000270013)
(0.0282619 -0.0252109 -0.000246712)
(0.0256714 -0.0225101 -0.000224103)
(0.0231779 -0.0200652 -0.000202336)
(0.0207962 -0.0178588 -0.000181548)
(0.0185365 -0.0158716 -0.000161823)
(0.0164064 -0.014084 -0.000143231)
(0.0144103 -0.0124762 -0.000125806)
(0.01255 -0.0110284 -0.000109567)
(0.0108254 -0.00972149 -9.45125e-05)
(0.00923565 -0.00853738 -8.06356e-05)
(0.00777834 -0.00745873 -6.79135e-05)
(0.00645105 -0.00646937 -5.63271e-05)
(0.00525053 -0.00555388 -4.58465e-05)
(0.00417407 -0.00469804 -3.64494e-05)
(0.00321925 -0.00388843 -2.81134e-05)
(0.0023846 -0.00311269 -2.08267e-05)
(0.00166953 -0.00236058 -1.45834e-05)
(0.00107555 -0.00162622 -9.39708e-06)
(0.000604766 -0.000913048 -5.28591e-06)
(0.000263527 -0.000244868 -2.30528e-06)
(5.40505e-05 0.000300277 -4.74903e-07)
(-1.5532e-05 0.000478196 1.29212e-07)
(0.0439412 -0.119029 -0.000383495)
(0.047456 -0.118976 -0.00041419)
(0.0506476 -0.117961 -0.000442029)
(0.0534793 -0.116054 -0.000466764)
(0.055889 -0.113329 -0.000487782)
(0.0578383 -0.109877 -0.000504817)
(0.0592987 -0.105791 -0.000517551)
(0.0602525 -0.101173 -0.000525896)
(0.0606949 -0.0961268 -0.000529747)
(0.0606329 -0.0907582 -0.000529226)
(0.0600853 -0.08517 -0.000524438)
(0.0590814 -0.0794605 -0.000515693)
(0.0576588 -0.0737214 -0.000503269)
(0.0558631 -0.0680352 -0.000487611)
(0.0537439 -0.062474 -0.00046911)
(0.051355 -0.0570991 -0.000448272)
(0.0487506 -0.0519597 -0.000425534)
(0.0459848 -0.0470933 -0.000401403)
(0.0431087 -0.0425267 -0.000376296)
(0.0401707 -0.0382765 -0.000350659)
(0.0372137 -0.0343497 -0.000324846)
(0.0342764 -0.030746 -0.000299213)
(0.0313909 -0.0274581 -0.000274024)
(0.0285848 -0.0244739 -0.000249534)
(0.0258799 -0.0217775 -0.000225922)
(0.0232931 -0.0193496 -0.000203345)
(0.0208365 -0.0171696 -0.0001819)
(0.0185189 -0.0152156 -0.000161671)
(0.0163449 -0.0134657 -0.000142693)
(0.0143174 -0.0118985 -0.000124996)
(0.0124358 -0.0104927 -0.000108571)
(0.010699 -0.00922827 -9.34098e-05)
(0.00910385 -0.00808637 -7.94848e-05)
(0.00764706 -0.00704922 -6.67681e-05)
(0.0063247 -0.00610027 -5.52239e-05)
(0.00513274 -0.00522407 -4.48185e-05)
(0.0040674 -0.00440632 -3.5518e-05)
(0.00312573 -0.0036338 -2.72972e-05)
(0.00230547 -0.00289435 -2.01357e-05)
(0.00160556 -0.00217811 -1.40249e-05)
(0.00102685 -0.00147959 -8.97177e-06)
(0.000570975 -0.000802663 -4.99078e-06)
(0.000243423 -0.000171333 -2.12957e-06)
(4.55651e-05 0.000336999 -4.00637e-07)
(-1.63755e-05 0.0004827 1.37993e-07)
(0.0487794 -0.127578 -0.000425739)
(0.0524773 -0.127028 -0.000457997)
(0.0557893 -0.125441 -0.000486925)
(0.0586713 -0.122903 -0.000512062)
(0.061065 -0.119507 -0.000532978)
(0.0629304 -0.115357 -0.000549244)
(0.0642457 -0.110567 -0.000560748)
(0.0649959 -0.105252 -0.000567282)
(0.0651859 -0.0995316 -0.000568964)
(0.0648293 -0.0935232 -0.000565841)
(0.0639562 -0.0873399 -0.000558241)
(0.062604 -0.0810876 -0.00054643)
(0.0608218 -0.0748632 -0.000530893)
(0.058663 -0.0687518 -0.000512042)
(0.0561869 -0.0628262 -0.000490447)
(0.0534537 -0.0571462 -0.000466584)
(0.0505242 -0.0517576 -0.000441027)
(0.0474565 -0.0466942 -0.000414245)
(0.0443056 -0.0419773 -0.000386752)
(0.0411209 -0.0376179 -0.000358951)
(0.037947 -0.0336174 -0.000331254)
(0.0348213 -0.0299696 -0.000303967)
(0.0317757 -0.0266622 -0.000277388)
(0.0288354 -0.023678 -0.00025172)
(0.0260206 -0.0209967 -0.000227154)
(0.0233453 -0.0185953 -0.0002038)
(0.0208198 -0.0164499 -0.000181757)
(0.0184496 -0.0145362 -0.000161066)
(0.0162377 -0.01283 -0.000141759)
(0.0141842 -0.0113083 -0.000123833)
(0.0122871 -0.0099486 -0.000107273)
(0.0105426 -0.00872994 -9.20446e-05)
(0.00894677 -0.00763287 -7.81143e-05)
(0.00749441 -0.0066392 -6.54352e-05)
(0.00618071 -0.00573225 -5.39673e-05)
(0.0050004 -0.00489647 -4.3663e-05)
(0.00394908 -0.00411768 -3.44852e-05)
(0.00302292 -0.00338282 -2.63994e-05)
(0.00221921 -0.00268005 -1.93826e-05)
(0.00153623 -0.00199985 -1.34195e-05)
(0.000974405 -0.00133716 -8.5138e-06)
(0.00053472 -0.000696243 -4.67404e-06)
(0.000221967 -0.000101293 -1.94211e-06)
(3.65461e-05 0.000371057 -3.21663e-07)
(-1.72498e-05 0.000485946 1.4712e-07)
(0.0541927 -0.13686 -0.000472965)
(0.0580708 -0.135706 -0.000506838)
(0.0614863 -0.133438 -0.000536627)
(0.0643938 -0.130163 -0.00056203)
(0.0667336 -0.125992 -0.000582433)
(0.0684716 -0.12105 -0.00059763)
(0.0695892 -0.115468 -0.000607369)
(0.0700816 -0.109381 -0.000611692)
(0.0699612 -0.102922 -0.000610628)
(0.0692539 -0.096221 -0.000604479)
(0.0679995 -0.0894019 -0.000593519)
(0.0662483 -0.0825773 -0.000578257)
(0.0640593 -0.0758485 -0.00055914)
(0.061497 -0.0693019 -0.000536795)
(0.0586289 -0.0630097 -0.000511755)
(0.0555234 -0.0570282 -0.000484663)
(0.0522465 -0.0513994 -0.000456054)
(0.0488609 -0.0461507 -0.000426514)
(0.0454238 -0.0412975 -0.000396509)
(0.0419864 -0.036844 -0.000366514)
(0.0385926 -0.0327851 -0.000336886)
(0.0352792 -0.0291082 -0.000307971)
(0.032076 -0.0257952 -0.000280008)
(0.0290062 -0.0228236 -0.000253216)
(0.0260869 -0.0201688 -0.000227732)
(0.0233298 -0.0178038 -0.000203668)
(0.0207418 -0.0157016 -0.000181075)
(0.0183261 -0.0138353 -0.00015999)
(0.0160826 -0.0121787 -0.000140405)
(0.0140096 -0.0107075 -0.00012231)
(0.0121023 -0.00939774 -0.00010566)
(0.0103557 -0.00822797 -9.04142e-05)
(0.00876379 -0.00717814 -7.65166e-05)
(0.00732025 -0.00622986 -6.39153e-05)
(0.00601884 -0.00536629 -5.25539e-05)
(0.00485357 -0.00457198 -4.23815e-05)
(0.00381904 -0.00383287 -3.33498e-05)
(0.00291094 -0.00313616 -2.54219e-05)
(0.00212584 -0.00247033 -1.85673e-05)
(0.00146167 -0.00182626 -1.27685e-05)
(0.000918229 -0.0011993 -8.02312e-06)
(0.000496072 -0.000594116 -4.33648e-06)
(0.000199161 -3.50022e-05 -1.74279e-06)
(2.70134e-05 0.000402272 -2.38224e-07)
(-1.81603e-05 0.000487862 1.5666e-07)
(0.0603008 -0.146898 -0.0005263)
(0.0643341 -0.145023 -0.000561478)
(0.0678205 -0.141958 -0.000591936)
(0.0707086 -0.137828 -0.000617121)
(0.0729444 -0.13277 -0.000636667)
(0.0744953 -0.126932 -0.000650184)
(0.075353 -0.120466 -0.000657701)
(0.0755202 -0.113525 -0.000659143)
(0.0750235 -0.106259 -0.000654836)
(0.0738995 -0.0988131 -0.000645012)
(0.072203 -0.0913183 -0.00063023)
(0.069996 -0.0838946 -0.000610956)
(0.0673507 -0.0766456 -0.000587888)
(0.0643418 -0.0696582 -0.000561616)
(0.0610467 -0.0630011 -0.000532875)
(0.0575406 -0.0567268 -0.000502264)
(0.0538955 -0.0508702 -0.00047046)
(0.0501773 -0.0454521 -0.000437999)
(0.0464453 -0.0404798 -0.000405435)
(0.0427507 -0.0359501 -0.000373181)
(0.0391368 -0.0318501 -0.000341644)
(0.0356382 -0.0281606 -0.000311102)
(0.0322824 -0.0248571 -0.000281815)
(0.0290892 -0.0219119 -0.000253939)
(0.026073 -0.0192954 -0.000227614)
(0.0232416 -0.0169771 -0.000202896)
(0.020599 -0.0149267 -0.000179832)
(0.0181453 -0.013115 -0.000158411)
(0.0158777 -0.011514 -0.000138618)
(0.0137918 -0.0100978 -0.000120408)
(0.0118808 -0.00884191 -0.000103728)
(0.0101376 -0.00772393 -8.85095e-05)
(0.00855471 -0.00672362 -7.46921e-05)
(0.00712428 -0.00582239 -6.22043e-05)
(0.00583917 -0.00500347 -5.09858e-05)
(0.00469222 -0.00425149 -4.09726e-05)
(0.00367747 -0.00355266 -3.2114e-05)
(0.00278984 -0.00289445 -2.43645e-05)
(0.00202555 -0.00226573 -1.76917e-05)
(0.00138193 -0.00165779 -1.20721e-05)
(0.000858443 -0.00106641 -7.50105e-06)
(0.000455059 -0.000496595 -3.97818e-06)
(0.000175056 2.72877e-05 -1.53217e-06)
(1.69648e-05 0.000430474 -1.50233e-07)
(-1.91016e-05 0.000488375 1.66543e-07)
(0.0671262 -0.157788 -0.000585843)
(0.071304 -0.155041 -0.00062234)
(0.0748304 -0.151026 -0.00065309)
(0.0776556 -0.1459 -0.000677784)
(0.0797288 -0.139824 -0.000695856)
(0.0810268 -0.132973 -0.00070722)
(0.0815502 -0.12552 -0.000711768)
(0.081317 -0.117639 -0.000709766)
(0.0803672 -0.109499 -0.000701459)
(0.0787542 -0.101254 -0.000687411)
(0.0765473 -0.0930462 -0.000668133)
(0.073824 -0.0849999 -0.00064439)
(0.0706692 -0.0772202 -0.000616842)
(0.0671698 -0.0697909 -0.000586319)
(0.063412 -0.0627769 -0.000553512)
(0.0594786 -0.0562227 -0.000519195)
(0.055446 -0.050156 -0.000483988)
(0.0513831 -0.0445881 -0.000448537)
(0.0473498 -0.0395176 -0.000413325)
(0.0433966 -0.0349321 -0.000378829)
(0.0395648 -0.0308109 -0.000345377)
(0.0358863 -0.0271269 -0.000313274)
(0.0323848 -0.0238492 -0.000282706)
(0.0290768 -0.0209446 -0.000253835)
(0.0259724 -0.0183788 -0.000226734)
(0.0230761 -0.0161176 -0.000201455)
(0.0203879 -0.0141278 -0.000177987)
(0.0179049 -0.0123778 -0.000156314)
(0.0156211 -0.0108381 -0.000136377)
(0.0135298 -0.00948161 -0.000118122)
(0.0116217 -0.00828298 -0.000101465)
(0.00988791 -0.00721954 -8.63306e-05)
(0.00831918 -0.00627076 -7.26356e-05)
(0.0069066 -0.00541808 -6.03045e-05)
(0.00564166 -0.00464484 -4.92612e-05)
(0.00451656 -0.00393593 -3.94393e-05)
(0.00352445 -0.00327781 -3.07778e-05)
(0.00265987 -0.00265834 -2.32299e-05)
(0.00191843 -0.0020668 -1.67563e-05)
(0.00129721 -0.00149491 -1.13323e-05)
(0.00079512 -0.000938856 -6.94795e-06)
(0.000411784 -0.000403993 -3.60019e-06)
(0.000149673 8.53358e-05 -1.31032e-06)
(6.42673e-06 0.000455491 -5.7989e-08)
(-2.00787e-05 0.000487416 1.76833e-07)
(0.0748544 -0.169518 -0.000653326)
(0.0791241 -0.165745 -0.00069056)
(0.0826277 -0.160627 -0.000721179)
(0.0853141 -0.154354 -0.000744597)
(0.0871429 -0.14712 -0.0007606)
(0.0880982 -0.139129 -0.000768913)
(0.0881975 -0.130581 -0.000769819)
(0.0874725 -0.121671 -0.00076347)
(0.0859825 -0.112585 -0.0007505)
(0.0837979 -0.103491 -0.000731415)
(0.0810063 -0.0945366 -0.000707079)
(0.0777011 -0.0858503 -0.000678217)
(0.0739819 -0.0775347 -0.000645779)
(0.0699471 -0.0696698 -0.00061055)
(0.0656923 -0.062312 -0.000573434)
(0.0613066 -0.0554977 -0.000535143)
(0.0568702 -0.0492432 -0.000496433)
(0.0524534 -0.0435499 -0.000457873)
(0.0481158 -0.0384053 -0.000420023)
(0.0439058 -0.0337876 -0.000383269)
(0.0398615 -0.0296667 -0.000347975)
(0.0360109 -0.026008 -0.000314359)
(0.0323735 -0.0227735 -0.000282614)
(0.028961 -0.0199245 -0.000252823)
(0.0257795 -0.0174221 -0.000225054)
(0.0228287 -0.0152285 -0.000199294)
(0.0201053 -0.0133079 -0.000175523)
(0.0176024 -0.0116266 -0.000153673)
(0.0153114 -0.0101536 -0.000133675)
(0.0132224 -0.00886108 -0.000115439)
(0.0113244 -0.00772304 -9.88709e-05)
(0.00960622 -0.00671657 -8.3871e-05)
(0.00805729 -0.00582112 -7.03499e-05)
(0.00666717 -0.00501825 -5.82138e-05)
(0.00542659 -0.00429155 -4.7384e-05)
(0.00432672 -0.00362622 -3.77817e-05)
(0.0033603 -0.00300912 -2.93449e-05)
(0.00252119 -0.0024285 -2.20189e-05)
(0.00180476 -0.00187409 -1.57639e-05)
(0.00120762 -0.00133805 -1.05499e-05)
(0.000728431 -0.000817014 -6.36558e-06)
(0.00036631 -0.000316606 -3.20292e-06)
(0.000123083 0.000138905 -1.07798e-06)
(-4.59525e-06 0.000477162 3.8525e-08)
(-2.1086e-05 0.000484914 1.87458e-07)
(0.0834638 -0.182221 -0.000728429)
(0.0878012 -0.177204 -0.000766333)
(0.0912299 -0.17078 -0.000796223)
(0.0937082 -0.163177 -0.000817901)
(0.0952056 -0.154621 -0.00083094)
(0.0957224 -0.145348 -0.000835495)
(0.095295 -0.135587 -0.00083174)
(0.0939767 -0.125556 -0.000820274)
(0.091848 -0.115455 -0.000801674)
(0.0890014 -0.105463 -0.000776864)
(0.0855446 -0.0957357 -0.000746674)
(0.0815886 -0.0863979 -0.000712175)
(0.0772484 -0.0775501 -0.000674278)
(0.072634 -0.0692626 -0.000634025)
(0.0678498 -0.0615827 -0.000592256)
(0.0629897 -0.0545335 -0.000549852)
(0.0581368 -0.0481198 -0.000507482)
(0.0533611 -0.0423296 -0.00046581)
(0.0487202 -0.0371393 -0.000425294)
(0.0442591 -0.0325154 -0.000386363)
(0.0400113 -0.0284188 -0.000349279)
(0.0359998 -0.0248062 -0.000314269)
(0.0322387 -0.0216332 -0.000281434)
(0.0287346 -0.0188551 -0.000250851)
(0.0254884 -0.016429 -0.000222511)
(0.0224955 -0.0143135 -0.000196389)
(0.0197482 -0.0124704 -0.000172404)
(0.0172361 -0.0108644 -0.000150477)
(0.0149472 -0.00946346 -0.000130495)
(0.0128692 -0.0082388 -0.000112357)
(0.0109886 -0.00716427 -9.59385e-05)
(0.00929263 -0.00621692 -8.11343e-05)
(0.00776899 -0.0053763 -6.78327e-05)
(0.00640631 -0.00462426 -5.5937e-05)
(0.00519413 -0.00394473 -4.53543e-05)
(0.00412311 -0.00332334 -3.60044e-05)
(0.00318525 -0.00274737 -2.78163e-05)
(0.00237416 -0.00220556 -2.07352e-05)
(0.00168474 -0.00168811 -1.47158e-05)
(0.00111343 -0.00118766 -9.72752e-06)
(0.000658507 -0.000701234 -5.75483e-06)
(0.000318778 -0.000234724 -2.78774e-06)
(9.53293e-05 0.000187776 -8.35421e-07)
(-1.6066e-05 0.000495331 1.38938e-07)
(-2.21281e-05 0.000480806 1.98474e-07)
(0.0932569 -0.19582 -0.000813948)
(0.0975551 -0.189357 -0.000851421)
(0.100795 -0.181428 -0.000879753)
(0.10294 -0.172306 -0.000898438)
(0.103979 -0.162256 -0.00090756)
(0.103927 -0.151556 -0.00090707)
(0.102846 -0.140461 -0.000897686)
(0.100813 -0.129215 -0.000879912)
(0.0979333 -0.118033 -0.000854824)
(0.0943247 -0.107104 -0.000823306)
(0.0901159 -0.0965826 -0.000786606)
(0.085438 -0.086593 -0.000745758)
(0.08042 -0.0772244 -0.000701987)
(0.0751841 -0.0685378 -0.000656271)
(0.069841 -0.0605644 -0.000609657)
(0.0644893 -0.0533141 -0.000562932)
(0.0592119 -0.046775 -0.000516882)
(0.0540773 -0.040922 -0.000472055)
(0.0491389 -0.0357173 -0.00042896)
(0.0444368 -0.0311164 -0.000387909)
(0.0399984 -0.0270695 -0.000349174)
(0.0358405 -0.0235254 -0.000312875)
(0.0319709 -0.0204325 -0.000279103)
(0.0283903 -0.0177411 -0.000247843)
(0.0250942 -0.0154039 -0.000219074)
(0.0220728 -0.0133768 -0.000192697)
(0.0193142 -0.0116194 -0.000168618)
(0.0168041 -0.010095 -0.000146705)
(0.0145276 -0.00877069 -0.000126834)
(0.0124695 -0.00761745 -0.000108866)
(0.0106142 -0.00660902 -9.26714e-05)
(0.00894711 -0.00572257 -7.81173e-05)
(0.0074547 -0.00493798 -6.50896e-05)
(0.00612429 -0.0042375 -5.34745e-05)
(0.00494479 -0.00360554 -4.31778e-05)
(0.00390605 -0.00302823 -3.41091e-05)
(0.00299977 -0.00249336 -2.61972e-05)
(0.00221907 -0.00199018 -1.9381e-05)
(0.00155873 -0.00150941 -1.36156e-05)
(0.00101487 -0.00104416 -8.86671e-06)
(0.000585583 -0.000591862 -5.11799e-06)
(0.000269299 -0.000158615 -2.35547e-06)
(6.65092e-05 0.000231735 -5.83589e-07)
(-2.79691e-05 0.000509855 2.43168e-07)
(-2.31987e-05 0.000475028 2.09804e-07)
(0.104096 -0.210519 -0.000908496)
(0.108319 -0.202305 -0.000945422)
(0.11129 -0.192593 -0.000971306)
(0.113 -0.18171 -0.000986292)
(0.113455 -0.169962 -0.000990221)
(0.112697 -0.157668 -0.000983666)
(0.110825 -0.145112 -0.000967296)
(0.107943 -0.132558 -0.000942196)
(0.104192 -0.120235 -0.000909424)
(0.099713 -0.108335 -0.000870375)
(0.0946626 -0.0970132 -0.000826271)
(0.0891895 -0.0863805 -0.000778534)
(0.0834394 -0.0765167 -0.000728327)
(0.0775429 -0.0674631 -0.000676885)
(0.0716177 -0.0592359 -0.000625154)
(0.0657623 -0.0518245 -0.000574063)
(0.060059 -0.0452014 -0.000524268)
(0.0545711 -0.0393236 -0.00047638)
(0.0493469 -0.0341401 -0.000430769)
(0.0444187 -0.0295932 -0.000387762)
(0.039807 -0.0256234 -0.0003475)
(0.0355209 -0.0221706 -0.000310092)
(0.0315611 -0.0191771 -0.000275522)
(0.0279217 -0.0165878 -0.000243758)
(0.0245921 -0.0143521 -0.000214689)
(0.0215575 -0.0124232 -0.000188202)
(0.0188013 -0.010759 -0.000164139)
(0.0163056 -0.00932196 -0.000142355)
(0.0140521 -0.00807865 -0.000122682)
(0.0120233 -0.0069999 -0.000104972)
(0.0102013 -0.00605969 -8.90663e-05)
(0.00857016 -0.00523556 -7.48273e-05)
(0.00711476 -0.00450786 -6.21214e-05)
(0.00582172 -0.0038594 -5.08335e-05)
(0.00467902 -0.00327515 -4.08572e-05)
(0.00367615 -0.00274185 -3.21021e-05)
(0.00280428 -0.00224786 -2.44902e-05)
(0.00205644 -0.00178298 -1.79611e-05)
(0.00142707 -0.00133848 -1.24659e-05)
(0.000912278 -0.000907958 -7.97089e-06)
(0.000509862 -0.000489215 -4.4566e-06)
(0.000218061 -8.85354e-05 -1.90792e-06)
(3.66973e-05 0.00027059 -3.23036e-07)
(-4.02573e-05 0.000520596 3.5074e-07)
(-2.43014e-05 0.000467523 2.21491e-07)
(0.116502 -0.226087 -0.00101684)
(0.120454 -0.215858 -0.00105128)
(0.122957 -0.204119 -0.00107319)
(0.124027 -0.191248 -0.00108248)
(0.1237 -0.177607 -0.0010797)
(0.122049 -0.16356 -0.00106525)
(0.119211 -0.149419 -0.00104054)
(0.115324 -0.135475 -0.00100658)
(0.110561 -0.121961 -0.000965065)
(0.105097 -0.109074 -0.000917348)
(0.0991107 -0.0969557 -0.000865134)
(0.0927722 -0.0857067 -0.000809787)
(0.0862383 -0.0753835 -0.000752787)
(0.0796498 -0.0660099 -0.000695262)
(0.0731248 -0.0575767 -0.000638332)
(0.0667624 -0.0500544 -0.000582783)
(0.0606385 -0.0433934 -0.000529344)
(0.0548109 -0.0375347 -0.000478465)
(0.0493182 -0.0324105 -0.000430532)
(0.044185 -0.0279514 -0.000385716)
(0.0394218 -0.0240867 -0.000344146)
(0.0350297 -0.0207489 -0.000305801)
(0.0310011 -0.0178737 -0.000270639)
(0.0273229 -0.0154019 -0.000238527)
(0.0239783 -0.0132797 -0.000209335)
(0.020947 -0.0114582 -0.000182871)
(0.018208 -0.00989419 -0.000158963)
(0.0157396 -0.00854957 -0.000137413)
(0.0135206 -0.00739089 -0.000118044)
(0.0115307 -0.00638916 -0.000100671)
(0.00975053 -0.00551883 -8.51318e-05)
(0.00816223 -0.00475801 -7.12656e-05)
(0.00674996 -0.0040877 -5.89372e-05)
(0.00549921 -0.00349139 -4.80175e-05)
(0.00439758 -0.00295475 -3.84004e-05)
(0.00343396 -0.00246517 -2.99875e-05)
(0.00259945 -0.00201165 -2.27019e-05)
(0.00188671 -0.00158459 -1.6479e-05)
(0.00129026 -0.00117582 -1.12713e-05)
(0.000805984 -0.000779431 -7.04257e-06)
(0.000431659 -0.000393599 -3.77364e-06)
(0.000165234 -2.47162e-05 -1.4464e-06)
(6.02475e-06 0.000304164 -5.50129e-08)
(-5.28988e-05 0.000527437 4.61436e-07)
(-2.54291e-05 0.000458237 2.3345e-07)
(0.130103 -0.242846 -0.00113548)
(0.13372 -0.230175 -0.00116714)
(0.135635 -0.21604 -0.00118379)
(0.13592 -0.200872 -0.00118636)
(0.134638 -0.185096 -0.00117513)
(0.131912 -0.169109 -0.0011514)
(0.12793 -0.15326 -0.00111661)
(0.122872 -0.137844 -0.00107252)
(0.116956 -0.123107 -0.00102085)
(0.110386 -0.109228 -0.000963556)
(0.103372 -0.0963393 -0.000902309)
(0.0960998 -0.0845137 -0.000838869)
(0.0887399 -0.0737865 -0.000774605)
(0.0814344 -0.0641501 -0.000710867)
(0.0743036 -0.0555723 -0.00064861)
(0.0674389 -0.0479957 -0.000588708)
(0.0609101 -0.0413512 -0.000531705)
(0.0547632 -0.0355583 -0.000478064)
(0.0490277 -0.0305353 -0.000427989)
(0.0437157 -0.0261985 -0.00038163)
(0.0388284 -0.0224682 -0.000338961)
(0.0343562 -0.0192687 -0.000299929)
(0.0302834 -0.0165307 -0.000264371)
(0.0265889 -0.0141909 -0.000232125)
(0.0232496 -0.0121934 -0.000202971)
(0.0202397 -0.0104876 -0.000176699)
(0.0175337 -0.00903001 -0.000153075)
(0.0151063 -0.00778221 -0.000131886)
(0.0129333 -0.00671114 -0.000112916)
(0.0109925 -0.00578836 -9.59743e-05)
(0.00926247 -0.00498904 -8.08703e-05)
(0.00772435 -0.00429207 -6.74436e-05)
(0.00636108 -0.00367926 -5.55417e-05)
(0.00515773 -0.00313493 -4.50367e-05)
(0.00410121 -0.00264551 -3.58127e-05)
(0.00318035 -0.00219913 -2.77735e-05)
(0.00238589 -0.00178547 -2.08371e-05)
(0.00171058 -0.0013956 -1.49412e-05)
(0.00114876 -0.00102189 -1.00357e-05)
(0.000696456 -0.00065895 -6.08617e-06)
(0.000351268 -0.000305288 -3.07147e-06)
(0.000111073 3.26316e-05 -9.73294e-07)
(-2.53917e-05 0.000332305 2.19564e-07)
(-6.58289e-05 0.00053027 5.74631e-07)
(-2.65835e-05 0.000447126 2.45705e-07)
(0.145764 -0.260306 -0.00127226)
(0.148704 -0.244882 -0.00129784)
(0.149702 -0.228043 -0.00130665)
(0.148881 -0.210323 -0.00129942)
(0.146349 -0.192199 -0.00127741)
(0.142283 -0.17412 -0.00124187)
(0.136923 -0.156455 -0.00119517)
(0.130499 -0.13952 -0.00113906)
(0.123268 -0.123545 -0.001076)
(0.115471 -0.108701 -0.00100791)
(0.107339 -0.0950862 -0.000936973)
(0.0990749 -0.0827496 -0.000864816)
(0.0908538 -0.0716874 -0.000793092)
(0.0828214 -0.0618636 -0.000722959)
(0.0750884 -0.0532109 -0.000655485)
(0.0677398 -0.0456476 -0.000591323)
(0.0608306 -0.0390776 -0.00053103)
(0.0543959 -0.0334029 -0.000474849)