/*--------------------------------*- C++ -*----------------------------------*\
| =========                 |                                                 |
| \\      /  F ield         | OpenFOAM: The Open Source CFD Toolbox           |
|  \\    /   O peration     | Version:  v2012                                 |
|   \\  /    A nd           | Website:  www.openfoam.com                      |
|    \\/     M anipulation  |                                                 |
\*---------------------------------------------------------------------------*/
FoamFile
{
    version     2.0;
    format      ascii;
    class       surfaceScalarField;
    location    "0.1";
    object      phi;
}
// * * * * * * * * * * * * * * * * * * * * * * * * * * * * * * * * * * * * * //

dimensions      [0 3 -1 0 0 0 0];
oriented        oriented;


internalField   nonuniform List<scalar> 
8135
(
-8.98809e-10
-3.29478e-08
-3.59262e-16
-6.57219e-10
-1.06723e-08
-2.45402e-16
-3.8093e-10
1.33863e-08
-6.20102e-17
-3.3382e-10
3.91422e-08
-3.11119e-17
-3.20081e-10
6.62608e-08
-1.86402e-17
-3.18183e-10
9.45464e-08
-1.28749e-17
-3.15933e-10
1.23819e-07
-1.05905e-17
-3.10374e-10
1.53595e-07
-8.34551e-18
-3.00432e-10
1.83463e-07
-1.7189e-17
-2.85857e-10
2.12745e-07
-1.9977e-17
-2.66711e-10
2.40683e-07
-1.50169e-17
-2.43269e-10
2.66381e-07
-8.08735e-18
-2.16001e-10
2.8852e-07
-2.5938e-19
-1.85558e-10
3.05684e-07
3.09116e-18
-1.52791e-10
3.16075e-07
9.99556e-18
-1.18806e-10
3.17385e-07
1.55048e-17
-8.49974e-11
3.06824e-07
1.99917e-17
-5.31827e-11
2.8103e-07
2.31061e-17
-2.57491e-11
2.35731e-07
2.03778e-17
-6.41242e-12
1.65888e-07
1.77078e-17
6.52538e-08
1.47934e-17
-1.07592e-09
-3.28468e-08
-3.59919e-16
-1.05534e-09
-1.06928e-08
-2.49684e-16
-9.88297e-10
1.33192e-08
-1.37532e-16
-9.60921e-10
3.91149e-08
-8.62485e-17
-9.52835e-10
6.62528e-08
-5.25872e-17
-9.53635e-10
9.45472e-08
-3.67792e-17
-9.48535e-10
1.23814e-07
-3.16362e-17
-9.32279e-10
1.53579e-07
-2.9573e-17
-9.02585e-10
1.83434e-07
-6.12256e-17
-8.58866e-10
2.12702e-07
-6.95929e-17
-8.01366e-10
2.40626e-07
-4.9572e-17
-7.30912e-10
2.6631e-07
-2.09185e-17
-6.48927e-10
2.88438e-07
1.15356e-17
-5.57372e-10
3.05592e-07
3.01525e-17
-4.58831e-10
3.15977e-07
6.04824e-17
-3.56649e-10
3.17283e-07
8.64589e-17
-2.55101e-10
3.06722e-07
1.08507e-16
-1.59695e-10
2.80935e-07
1.23743e-16
-7.77905e-11
2.35649e-07
1.15016e-16
-1.9923e-11
1.6583e-07
1.02618e-16
6.52339e-08
8.43233e-17
-1.36203e-09
-3.26737e-08
-3.62804e-16
-1.47297e-09
-1.05819e-08
-2.63154e-16
-1.53527e-09
1.33815e-08
-1.83892e-16
-1.5617e-09
3.91413e-08
-1.22395e-16
-1.57741e-09
6.62685e-08
-7.57145e-17
-1.58722e-09
9.4557e-08
-5.30044e-17
-1.58139e-09
1.23808e-07
-4.53332e-17
-1.55513e-09
1.53553e-07
-4.27675e-17
-1.50588e-09
1.83384e-07
-8.33835e-17
-1.43302e-09
2.12629e-07
-9.26014e-17
-1.33706e-09
2.4053e-07
-6.34568e-17
-1.21944e-09
2.66193e-07
-2.38272e-17
-1.08254e-09
2.88301e-07
2.13284e-17
-9.29644e-10
3.05439e-07
4.36083e-17
-7.65102e-10
3.15812e-07
8.54968e-17
-5.94554e-10
3.17112e-07
1.21549e-16
-4.25228e-10
3.06553e-07
1.52688e-16
-2.66446e-10
2.80776e-07
1.7546e-16
-1.30581e-10
2.35513e-07
1.6164e-16
-3.47679e-11
1.65735e-07
1.4548e-16
6.51991e-08
1.192e-16
-1.71386e-09
-3.24328e-08
-3.70167e-16
-1.91596e-09
-1.03798e-08
-2.76796e-16
-2.06669e-09
1.35323e-08
-2.11414e-16
-2.14934e-09
3.9224e-08
-1.47213e-16
-2.19677e-09
6.63159e-08
-9.33761e-17
-2.22008e-09
9.45803e-08
-6.56189e-17
-2.21546e-09
1.23803e-07
-5.5478e-17
-2.17985e-09
1.53517e-07
-5.15777e-17
-2.11116e-09
1.83316e-07
-9.14769e-17
-2.00904e-09
2.12527e-07
-1.00188e-16
-1.87442e-09
2.40395e-07
-6.66566e-17
-1.70937e-09
2.66028e-07
-2.37898e-17
-1.51726e-09
2.88109e-07
2.54422e-17
-1.30274e-09
3.05225e-07
4.27694e-17
-1.07193e-09
3.15581e-07
8.80495e-17
-8.32797e-10
3.16873e-07
1.26408e-16
-5.95585e-10
3.06315e-07
1.60418e-16
-3.73478e-10
2.80554e-07
1.87299e-16
-1.83842e-10
2.35324e-07
1.69482e-16
-4.99793e-11
1.65601e-07
1.54988e-16
6.51491e-08
1.28412e-16
-2.11622e-09
-3.21314e-08
-3.79606e-16
-2.38553e-09
-1.01104e-08
-2.91728e-16
-2.60043e-09
1.37472e-08
-2.32674e-16
-2.73469e-09
3.93583e-08
-1.68335e-16
-2.81528e-09
6.63965e-08
-1.10741e-16
-2.85423e-09
9.46193e-08
-7.84061e-17
-2.852e-09
1.23801e-07
-6.4712e-17
-2.80741e-09
1.53472e-07
-5.59959e-17
-2.71923e-09
1.83228e-07
-8.61315e-17
-2.5876e-09
2.12395e-07
-9.38662e-17
-2.41398e-09
2.40222e-07
-6.17603e-17
-2.20113e-09
2.65815e-07
-2.35921e-17
-1.95345e-09
2.87861e-07
2.16129e-17
-1.67695e-09
3.04948e-07
2.60799e-17
-1.37954e-09
3.15284e-07
6.71629e-17
-1.07157e-09
3.16565e-07
1.00755e-16
-7.66302e-10
3.0601e-07
1.31916e-16
-4.80812e-10
2.80268e-07
1.59976e-16
-2.37418e-10
2.3508e-07
1.3929e-16
-6.53843e-11
1.65429e-07
1.30699e-16
6.50837e-08
1.08165e-16
-2.5609e-09
-3.17767e-08
-3.89686e-16
-2.88243e-09
-9.78886e-09
-3.07845e-16
-3.1465e-09
1.40112e-08
-2.52369e-16
-3.32553e-09
3.95373e-08
-1.89272e-16
-3.43736e-09
6.65084e-08
-1.29918e-16
-3.49212e-09
9.4674e-08
-9.29666e-17
-3.49252e-09
1.23802e-07
-7.41894e-17
-3.43889e-09
1.53419e-07
-5.90626e-17
-3.33092e-09
1.8312e-07
-7.48642e-17
-3.16936e-09
2.12233e-07
-8.17987e-17
-2.95626e-09
2.40009e-07
-5.28014e-17
-2.69514e-09
2.65554e-07
-2.25909e-17
-2.39144e-09
2.87558e-07
1.44925e-17
-2.05254e-09
3.04609e-07
1.35701e-18
-1.68817e-09
3.14919e-07
3.30165e-17
-1.31104e-09
3.16188e-07
5.63899e-17
-9.37487e-10
3.05637e-07
7.97859e-17
-5.88476e-10
2.79919e-07
1.06017e-16
-2.91238e-10
2.34783e-07
8.22121e-17
-8.09044e-11
1.65218e-07
8.18513e-17
6.50028e-08
6.54068e-17
-3.04312e-09
-3.1375e-08
-3.98207e-16
-3.40733e-09
-9.42462e-09
-3.22765e-16
-3.71075e-09
1.43147e-08
-2.69988e-16
-3.92748e-09
3.97541e-08
-2.09063e-16
-4.06698e-09
6.66479e-08
-1.49385e-16
-4.13624e-09
9.47433e-08
-1.08147e-16
-4.13865e-09
1.23804e-07
-8.36261e-17
-4.07544e-09
1.53356e-07
-5.97584e-17
-3.94708e-09
1.82991e-07
-6.22235e-17
-3.75497e-09
2.12041e-07
-6.91497e-17
-3.5018e-09
2.39755e-07
-4.34779e-17
-3.19182e-09
2.65244e-07
-2.12603e-17
-2.83156e-09
2.87197e-07
7.46691e-18
-2.42976e-09
3.04208e-07
-2.40354e-17
-1.998e-09
3.14488e-07
-3.04076e-18
-1.55136e-09
3.15741e-07
8.31689e-18
-1.10924e-09
3.05195e-07
2.1877e-17
-6.96507e-10
2.79507e-07
4.44633e-17
-3.45265e-10
2.34432e-07
1.66e-17
-9.64888e-11
1.6497e-07
2.37235e-17
6.49064e-08
1.49442e-17
-3.5603e-09
-3.09316e-08
-4.03852e-16
-3.96069e-09
-9.02418e-09
-3.34193e-16
-4.2966e-09
1.46506e-08
-2.83567e-16
-4.54456e-09
4.00021e-08
-2.25197e-16
-4.70745e-09
6.68108e-08
-1.66336e-16
-4.78895e-09
9.48248e-08
-1.21627e-16
-4.79201e-09
1.23807e-07
-9.13479e-17
-4.71821e-09
1.53282e-07
-5.97012e-17
-4.56859e-09
1.82842e-07
-5.23185e-17
-4.3451e-09
2.11818e-07
-6.03284e-17
-4.05108e-09
2.39461e-07
-3.55114e-17
-3.69156e-09
2.64884e-07
-1.82005e-17
-3.2741e-09
2.8678e-07
5.05142e-18
-2.80886e-09
3.03742e-07
-4.24769e-17
-2.30922e-09
3.13988e-07
-3.04049e-17
-1.79266e-09
3.15225e-07
-2.9987e-17
-1.28166e-09
3.04684e-07
-2.60526e-17
-8.04943e-10
2.7903e-07
-7.67275e-18
-3.9949e-10
2.34026e-07
-4.12737e-17
-1.12114e-10
1.64682e-07
-2.87561e-17
6.47942e-08
-3.14949e-17
-4.11109e-09
-3.04507e-08
-4.06476e-16
-4.5429e-09
-8.59232e-09
-3.41361e-16
-4.90611e-09
1.50138e-08
-2.92102e-16
-5.17961e-09
4.02756e-08
-2.36138e-16
-5.36148e-09
6.69927e-08
-1.78814e-16
-5.45236e-09
9.49157e-08
-1.31685e-16
-5.45416e-09
1.23809e-07
-9.65746e-17
-5.36833e-09
1.53196e-07
-5.79765e-17
-5.19627e-09
1.8267e-07
-4.66515e-17
-4.94038e-09
2.11562e-07
-5.68695e-17
-4.6046e-09
2.39126e-07
-3.0573e-17
-4.19471e-09
2.64475e-07
-1.43587e-17
-3.71936e-09
2.86305e-07
7.58633e-18
-3.19005e-09
3.03213e-07
-5.20116e-17
-2.622e-09
3.1342e-07
-4.50386e-17
-2.03508e-09
3.14638e-07
-5.22402e-17
-1.45482e-09
3.04103e-07
-5.558e-17
-9.13828e-10
2.78489e-07
-4.06494e-17
-4.53918e-10
2.33566e-07
-8.09483e-17
-1.27772e-10
1.64356e-07
-6.63899e-17
6.46665e-08
-6.62266e-17
-4.69487e-09
-2.99361e-08
-4.06702e-16
-5.15429e-09
-8.13284e-09
-3.4482e-16
-5.54058e-09
1.54001e-08
-2.96132e-16
-5.83465e-09
4.05698e-08
-2.42049e-16
-6.03118e-09
6.71893e-08
-1.86504e-16
-6.12826e-09
9.50128e-08
-1.37827e-16
-6.12647e-09
1.23807e-07
-9.88936e-17
-6.02686e-09
1.53096e-07
-5.64804e-17
-5.83091e-09
1.82474e-07
-4.45351e-17
-5.5414e-09
2.11273e-07
-5.8094e-17
-5.1628e-09
2.38747e-07
-2.79858e-17
-4.70164e-09
2.64013e-07
-9.51797e-18
-4.16758e-09
2.8577e-07
1.49107e-17
-3.57353e-09
3.02619e-07
-5.2819e-17
-2.9365e-09
3.12783e-07
-4.66546e-17
-2.27872e-09
3.1398e-07
-5.72036e-17
-1.62881e-09
3.03453e-07
-6.42795e-17
-1.0232e-09
2.77883e-07
-5.08086e-17
-5.08563e-10
2.33052e-07
-9.80934e-17
-1.43465e-10
1.63991e-07
-8.41192e-17
6.4523e-08
-8.45987e-17
-5.31138e-09
-2.93911e-08
-4.05226e-16
-5.79516e-09
-7.649e-09
-3.45642e-16
-6.20091e-09
1.58059e-08
-2.97016e-16
-6.51113e-09
4.088e-08
-2.4425e-16
-6.7182e-09
6.73964e-08
-1.90299e-16
-6.81815e-09
9.51127e-08
-1.40614e-16
-6.81017e-09
1.23799e-07
-9.88328e-17
-6.69473e-09
1.52981e-07
-5.34904e-17
-6.47324e-09
1.82252e-07
-4.50648e-17
-6.14871e-09
2.10948e-07
-6.29642e-17
-5.7261e-09
2.38324e-07
-2.78585e-17
-5.21264e-09
2.635e-07
-4.99672e-18
-4.61902e-09
2.85177e-07
2.4662e-17
-3.95948e-09
3.01959e-07
-4.8153e-17
-3.25283e-09
3.12076e-07
-3.91126e-17
-2.52369e-09
3.13251e-07
-4.90463e-17
-1.80368e-09
3.02733e-07
-5.62318e-17
-1.13311e-09
2.77213e-07
-4.2118e-17
-5.63444e-10
2.32482e-07
-9.54267e-17
-1.592e-10
1.63587e-07
-8.39246e-17
6.43638e-08
-8.77159e-17
-5.96062e-09
-2.88186e-08
-4.02454e-16
-6.46577e-09
-7.14377e-09
-3.447e-16
-6.88771e-09
1.62278e-08
-2.96068e-16
-7.2101e-09
4.12025e-08
-2.44221e-16
-7.4238e-09
6.76101e-08
-1.91466e-16
-7.52324e-09
9.52122e-08
-1.41016e-16
-7.50629e-09
1.23782e-07
-9.69138e-17
-7.37278e-09
1.52847e-07
-4.97525e-17
-7.12388e-09
1.82004e-07
-4.66843e-17
-6.76278e-09
2.10587e-07
-6.96433e-17
-6.29486e-09
2.37857e-07
-2.89548e-17
-5.728e-09
2.62933e-07
-1.05719e-18
-5.07386e-09
2.84523e-07
3.48727e-17
-4.34804e-09
3.01234e-07
-4.15732e-17
-3.57112e-09
3.113e-07
-2.72647e-17
-2.77006e-09
3.1245e-07
-3.34385e-17
-1.9795e-09
3.01943e-07
-3.74474e-17
-1.24358e-09
2.76477e-07
-2.02761e-17
-6.18581e-10
2.31857e-07
-7.81031e-17
-1.74986e-10
1.63143e-07
-6.94659e-17
6.41888e-08
-7.77925e-17
-6.64271e-09
-2.82214e-08
-3.98459e-16
-7.16638e-09
-6.62001e-09
-3.4251e-16
-7.60139e-09
1.66629e-08
-2.94054e-16
-7.93228e-09
4.15335e-08
-2.42905e-16
-8.14891e-09
6.78268e-08
-1.9102e-16
-8.24447e-09
9.53078e-08
-1.39855e-16
-8.21568e-09
1.23754e-07
-9.38674e-17
-8.06169e-09
1.52693e-07
-4.48106e-17
-7.78339e-09
1.81725e-07
-4.86811e-17
-7.38404e-09
2.10188e-07
-7.67831e-17
-6.86939e-09
2.37342e-07
-3.10533e-17
-6.24793e-09
2.62312e-07
1.54573e-18
-5.53228e-09
2.83807e-07
4.37446e-17
-4.73934e-09
3.00441e-07
-3.61146e-17
-3.89145e-09
3.10452e-07
-1.55635e-17
-3.01789e-09
3.11576e-07
-1.63231e-17
-2.15631e-09
3.01081e-07
-1.51172e-17
-1.35464e-09
2.75675e-07
7.02848e-18
-6.73992e-10
2.31176e-07
-5.39552e-17
-1.90833e-10
1.6266e-07
-4.76651e-17
6.3998e-08
-6.07593e-17
-7.35779e-09
-2.76024e-08
-3.93163e-16
-7.89719e-09
-6.08052e-09
-3.39215e-16
-8.34224e-09
1.71079e-08
-2.91226e-16
-8.67818e-09
4.18695e-08
-2.40681e-16
-8.89419e-09
6.80429e-08
-1.89455e-16
-8.98255e-09
9.53961e-08
-1.37581e-16
-8.93899e-09
1.2371e-07
-8.98488e-17
-8.76201e-09
1.52516e-07
-3.53152e-17
-8.4522e-09
1.81416e-07
-4.9696e-17
-8.01282e-09
2.09748e-07
-8.57599e-17
-7.44994e-09
2.36779e-07
-3.32932e-17
-6.77261e-09
2.61635e-07
2.82845e-18
-5.9944e-09
2.83029e-07
5.01996e-17
-5.13347e-09
2.9958e-07
-3.40645e-17
-4.21389e-09
3.09532e-07
-7.51579e-18
-3.26723e-09
3.1063e-07
-2.32881e-18
-2.33413e-09
3.00148e-07
5.32062e-18
-1.46631e-09
2.74807e-07
3.38261e-17
-7.29692e-10
2.3044e-07
-2.70659e-17
-2.06751e-10
1.62137e-07
-2.38224e-17
6.37912e-08
-4.05644e-17
-8.10601e-09
-2.69643e-08
-3.86581e-16
-8.6583e-09
-5.52813e-09
-3.3475e-16
-9.11043e-09
1.75601e-08
-2.87544e-16
-9.44809e-09
4.22073e-08
-2.37616e-16
-9.66006e-09
6.82549e-08
-1.86868e-16
-9.73797e-09
9.5474e-08
-1.34314e-16
-9.67668e-09
1.23649e-07
-8.5066e-17
-9.47415e-09
1.52314e-07
-2.91831e-17
-9.13062e-09
1.81072e-07
-4.95431e-17
-8.64935e-09
2.09267e-07
-8.99792e-17
-8.03667e-09
2.36166e-07
-3.55249e-17
-7.30217e-09
2.609e-07
2.97812e-18
-6.4603e-09
2.82187e-07
5.44633e-17
-5.53048e-09
2.9865e-07
-3.55557e-17
-4.53847e-09
3.0854e-07
-4.0121e-18
-3.51811e-09
3.09609e-07
6.46064e-18
-2.513e-09
2.99143e-07
2.03407e-17
-1.57862e-09
2.73873e-07
5.60661e-17
-7.85694e-10
2.29647e-07
-4.26148e-18
-2.22745e-10
1.61574e-07
-3.15531e-18
6.35685e-08
-2.23835e-17
-8.88746e-09
-2.63102e-08
-3.78967e-16
-9.44976e-09
-4.96572e-09
-3.29174e-16
-9.90597e-09
1.80163e-08
-2.8294e-16
-1.02421e-08
4.25435e-08
-2.33607e-16
-1.04468e-08
6.84596e-08
-1.83168e-16
-1.0511e-08
9.55383e-08
-1.30003e-16
-1.04291e-08
1.23567e-07
-7.94171e-17
-1.01984e-08
1.52083e-07
-2.48086e-17
-9.81889e-09
1.80693e-07
-4.77636e-17
-9.29381e-09
2.08742e-07
-9.31128e-17
-8.62971e-09
2.35502e-07
-3.74184e-17
-7.83668e-09
2.60107e-07
2.24223e-18
-6.93003e-09
2.81281e-07
5.65096e-17
-5.9304e-09
2.9765e-07
-4.083e-17
-4.8652e-09
3.07475e-07
-5.63233e-18
-3.77054e-09
3.08515e-07
9.06262e-18
-2.69291e-09
2.98065e-07
2.85431e-17
-1.69156e-09
2.72872e-07
7.1217e-17
-8.42003e-10
2.28797e-07
5.57404e-18
-2.38823e-10
1.60971e-07
1.18776e-17
6.33297e-08
-8.08668e-18
-9.70211e-09
-2.56428e-08
-3.70807e-16
-1.02715e-08
-4.39624e-09
-3.22795e-16
-1.07288e-08
1.84736e-08
-2.77462e-16
-1.10602e-08
4.28751e-08
-2.28575e-16
-1.12543e-08
6.86537e-08
-1.7828e-16
-1.13018e-08
9.55858e-08
-1.24563e-16
-1.11963e-08
1.23462e-07
-7.29395e-17
-1.09348e-08
1.51822e-07
-1.62011e-17
-1.05171e-08
1.80275e-07
-4.48232e-17
-9.94625e-09
2.08172e-07
-9.64772e-17
-9.22909e-09
2.34785e-07
-3.8842e-17
-8.37615e-09
2.59254e-07
1.40182e-18
-7.40359e-09
2.80308e-07
5.76873e-17
-6.3332e-09
2.9658e-07
-4.79995e-17
-5.19407e-09
3.06336e-07
-1.04078e-17
-4.02448e-09
3.07345e-07
7.03573e-18
-2.87385e-09
2.96915e-07
3.06322e-17
-1.80513e-09
2.71803e-07
7.9535e-17
-8.98621e-10
2.27891e-07
1.01377e-17
-2.54987e-10
1.60327e-07
1.99697e-17
6.30747e-08
3.21654e-19
-1.05499e-08
-2.49652e-08
-3.62757e-16
-1.11233e-08
-3.8227e-09
-3.16069e-16
-1.15786e-08
1.8929e-08
-2.71359e-16
-1.19022e-08
4.31989e-08
-2.22636e-16
-1.20826e-08
6.88342e-08
-1.7225e-16
-1.21102e-08
9.56134e-08
-1.17996e-16
-1.19782e-08
1.2333e-07
-6.54156e-17
-1.16834e-08
1.51527e-07
-6.76579e-18
-1.12252e-08
1.79817e-07
-4.05139e-17
-1.06067e-08
2.07553e-07
-9.91434e-17
-9.83476e-09
2.34013e-07
-3.98583e-17
-8.92053e-09
2.5834e-07
4.43815e-19
-7.88091e-09
2.79268e-07
5.80868e-17
-6.73885e-09
2.95438e-07
-5.67839e-17
-5.52503e-09
3.05122e-07
-1.76906e-17
-4.27992e-09
3.061e-07
1.39984e-18
-3.05579e-09
2.95691e-07
2.78235e-17
-1.91931e-09
2.70666e-07
8.16539e-17
-9.55545e-10
2.26927e-07
9.41934e-18
-2.71239e-10
1.59643e-07
2.18016e-17
6.28034e-08
3.54257e-18
-1.14304e-08
-2.42807e-08
-3.55546e-16
-1.20048e-08
-3.2482e-09
-3.09568e-16
-1.2455e-08
1.93793e-08
-2.65033e-16
-1.27677e-08
4.35117e-08
-2.16071e-16
-1.29313e-08
6.89978e-08
-1.65271e-16
-1.2936e-08
9.56181e-08
-1.10421e-16
-1.27748e-08
1.23169e-07
-5.70093e-17
-1.24441e-08
1.51197e-07
3.85313e-18
-1.19431e-08
1.79316e-07
-3.52736e-17
-1.12749e-08
2.06885e-07
-1.01184e-16
-1.04466e-08
2.33185e-07
-4.01921e-17
-9.46972e-09
2.57363e-07
3.11315e-19
-8.3619e-09
2.78161e-07
5.94829e-17
-7.14725e-09
2.94223e-07
-6.49149e-17
-5.858e-09
3.03833e-07
-2.49845e-17
-4.53679e-09
3.04779e-07
-5.29568e-18
-3.2387e-09
2.94393e-07
2.25039e-17
-2.03408e-09
2.69462e-07
7.95264e-17
-1.01276e-09
2.25906e-07
1.88007e-18
-2.87578e-10
1.58918e-07
1.86455e-17
6.25159e-08
2.05869e-18
-1.23433e-08
-2.35923e-08
-3.49894e-16
-1.29154e-08
-2.67591e-09
-3.03887e-16
-1.33575e-08
1.98214e-08
-2.58941e-16
-1.36562e-08
4.38106e-08
-2.09231e-16
-1.37999e-08
6.91415e-08
-1.57638e-16
-1.37788e-08
9.5597e-08
-1.02059e-16
-1.35856e-08
1.22976e-07
-4.77843e-17
-1.32166e-08
1.50827e-07
1.55289e-17
-1.26706e-08
1.7877e-07
-2.9053e-17
-1.19508e-08
2.06165e-07
-1.02866e-16
-1.10645e-08
2.32299e-07
-4.02039e-17
-1.00235e-08
2.56322e-07
4.21073e-19
-8.84641e-09
2.76983e-07
6.13116e-17
-7.55827e-09
2.92935e-07
-7.28745e-17
-6.19289e-09
3.02468e-07
-3.21245e-17
-4.79501e-09
3.03381e-07
-1.21888e-17
-3.42252e-09
2.9302e-07
1.62219e-17
-2.14942e-09
2.68189e-07
7.49444e-17
-1.07027e-09
2.24827e-07
-8.53128e-18
-3.04002e-10
1.58152e-07
1.23411e-17
6.22118e-08
-2.24937e-18
-1.32879e-08
-2.29035e-08
-3.46402e-16
-1.38546e-08
-2.10903e-09
-2.99554e-16
-1.42854e-08
2.02522e-08
-2.53525e-16
-1.4567e-08
4.40924e-08
-2.025e-16
-1.46879e-08
6.92624e-08
-1.497e-16
-1.46381e-08
9.55473e-08
-9.31747e-17
-1.44103e-08
1.22748e-07
-3.80005e-17
-1.40004e-08
1.50418e-07
2.80428e-17
-1.34072e-08
1.78177e-07
-2.22879e-17
-1.26339e-08
2.05392e-07
-1.04155e-16
-1.16881e-08
2.31353e-07
-3.95686e-17
-1.05818e-08
2.55216e-07
1.61771e-18
-9.33424e-09
2.75736e-07
6.47419e-17
-7.97175e-09
2.91573e-07
-7.90838e-17
-6.52955e-09
3.01026e-07
-3.74673e-17
-5.05447e-09
3.01906e-07
-1.75698e-17
-3.60717e-09
2.91573e-07
1.07406e-17
-2.26526e-09
2.66847e-07
7.01418e-17
-1.12803e-09
2.23689e-07
-2.0891e-17
-3.20506e-10
1.57344e-07
4.70915e-18
6.18913e-08
-8.20233e-18
-1.42634e-08
-2.22176e-08
-3.45493e-16
-1.48214e-08
-1.55082e-09
-2.9697e-16
-1.52378e-08
2.06687e-08
-2.49155e-16
-1.54993e-08
4.43541e-08
-1.96225e-16
-1.55944e-08
6.93576e-08
-1.41783e-16
-1.55132e-08
9.54661e-08
-8.40569e-17
-1.52481e-08
1.22484e-07
-2.78172e-17
-1.4795e-08
1.49965e-07
4.1249e-17
-1.41526e-08
1.77535e-07
-1.52111e-17
-1.33241e-08
2.04564e-07
-1.05311e-16
-1.2317e-08
2.30346e-07
-3.89004e-17
-1.11441e-08
2.54043e-07
2.83872e-18
-9.82515e-09
2.74417e-07
6.84912e-17
-8.38748e-09
2.90135e-07
-8.47198e-17
-6.86783e-09
2.99506e-07
-4.17274e-17
-5.31506e-09
3.00353e-07
-2.15086e-17
-3.79258e-09
2.9005e-07
6.78555e-18
-2.38157e-09
2.65436e-07
6.66927e-17
-1.18603e-09
2.22494e-07
-3.09865e-17
-3.37084e-10
1.56495e-07
-2.53461e-18
6.15543e-08
-1.41431e-17
-1.52687e-08
-2.15379e-08
-3.47393e-16
-1.58148e-08
-1.00454e-09
-2.96378e-16
-1.62136e-08
2.10676e-08
-2.46087e-16
-1.64521e-08
4.45927e-08
-1.9068e-16
-1.65186e-08
6.94242e-08
-1.34174e-16
-1.64033e-08
9.53509e-08
-7.49544e-17
-1.60984e-08
1.22179e-07
-1.74722e-17
-1.55999e-08
1.49466e-07
5.48058e-17
-1.49062e-08
1.76841e-07
-7.68254e-18
-1.40206e-08
2.03678e-07
-1.06303e-16
-1.2951e-08
2.29276e-07
-3.77446e-17
-1.17102e-08
2.52803e-07
4.9257e-18
-1.03188e-08
2.73026e-07
7.35776e-17
-8.80522e-09
2.88622e-07
-8.88282e-17
-7.20753e-09
2.97908e-07
-4.41622e-17
-5.57663e-09
2.98722e-07
-2.34478e-17
-3.97863e-09
2.88452e-07
4.87926e-18
-2.49827e-09
2.63955e-07
6.48211e-17
-1.24423e-09
2.2124e-07
-3.89207e-17
-3.53727e-10
1.55605e-07
-8.73769e-18
6.12005e-08
-1.94332e-17
-1.63026e-08
-2.08679e-08
-3.5211e-16
-1.68335e-08
-4.73428e-10
-2.97849e-16
-1.72117e-08
2.14458e-08
-2.4445e-16
-1.74242e-08
4.48053e-08
-1.86047e-16
-1.74593e-08
6.94594e-08
-1.2709e-16
-1.73073e-08
9.51989e-08
-6.6094e-17
-1.69603e-08
1.21832e-07
-7.14113e-18
-1.64141e-08
1.4892e-07
6.89219e-17
-1.56673e-08
1.76095e-07
-3.41697e-21
-1.47231e-08
2.02734e-07
-1.0748e-16
-1.35894e-08
2.28143e-07
-3.68952e-17
-1.22796e-08
2.51493e-07
6.60443e-18
-1.0815e-08
2.71561e-07
7.82126e-17
-9.22469e-09
2.87032e-07
-9.28902e-17
-7.54843e-09
2.96232e-07
-4.58807e-17
-5.83902e-09
2.97013e-07
-2.4046e-17
-4.16522e-09
2.86779e-07
4.8707e-18
-2.6153e-09
2.62406e-07
6.31507e-17
-1.3026e-09
2.19927e-07
-4.44765e-17
-3.70426e-10
1.54673e-07
-1.30776e-17
6.08301e-08
-2.31911e-17
-1.73635e-08
-2.0211e-08
-3.59444e-16
-1.7876e-08
3.93034e-11
-3.01283e-16
-1.82306e-08
2.18005e-08
-2.4424e-16
-1.84142e-08
4.49891e-08
-1.82406e-16
-1.84154e-08
6.94606e-08
-1.20665e-16
-1.82242e-08
9.50077e-08
-5.76149e-17
-1.78328e-08
1.21441e-07
3.05646e-18
-1.7237e-08
1.48324e-07
8.28953e-17
-1.64352e-08
1.75293e-07
7.59949e-18
-1.54307e-08
2.0173e-07
-1.08978e-16
-1.42318e-08
2.26944e-07
-3.58017e-17
-1.28519e-08
2.50113e-07
8.84687e-18
-1.13131e-08
2.70022e-07
8.46752e-17
-9.64559e-09
2.85364e-07
-9.60906e-17
-7.89029e-09
2.94477e-07
-4.65353e-17
-6.10203e-09
2.95225e-07
-2.33676e-17
-4.35221e-09
2.85029e-07
6.36978e-18
-2.73258e-09
2.60786e-07
6.39093e-17
-1.3611e-09
2.18556e-07
-4.81659e-17
-3.87169e-10
1.53699e-07
-1.57825e-17
6.04429e-08
-2.55317e-17
-1.84498e-08
-1.95706e-08
-3.68951e-16
-1.89408e-08
5.30515e-10
-3.06398e-16
-1.92688e-08
2.21286e-08
-2.45317e-16
-1.94208e-08
4.51413e-08
-1.79733e-16
-1.93854e-08
6.94253e-08
-1.14957e-16
-1.91528e-08
9.47751e-08
-4.96369e-17
-1.87148e-08
1.21003e-07
1.29821e-17
-1.80675e-08
1.47677e-07
9.74385e-17
-1.72091e-08
1.74435e-07
1.48311e-17
-1.61429e-08
2.00664e-07
-1.11437e-16
-1.48775e-08
2.25678e-07
-3.5399e-17
-1.34266e-08
2.48663e-07
1.03787e-17
-1.18129e-08
2.68409e-07
9.06121e-17
-1.00676e-08
2.83619e-07
-9.96617e-17
-8.23283e-09
2.92642e-07
-4.70721e-17
-6.36547e-09
2.93358e-07
-2.20331e-17
-4.53945e-09
2.83203e-07
9.04553e-18
-2.85001e-09
2.59097e-07
7.05261e-17
-1.41969e-09
2.17125e-07
-4.99348e-17
-4.03943e-10
1.52683e-07
-1.6699e-17
6.0039e-08
-2.6206e-17
-1.95594e-08
-1.89498e-08
-3.79974e-16
-2.00258e-08
9.97162e-10
-3.1276e-16
-2.03244e-08
2.24273e-08
-2.47425e-16
-2.04423e-08
4.52593e-08
-1.77919e-16
-2.03679e-08
6.93511e-08
-1.0995e-16
-2.00916e-08
9.44988e-08
-4.21884e-17
-1.96052e-08
1.20517e-07
2.26422e-17
-1.89045e-08
1.46976e-07
1.11468e-16
-1.79879e-08
1.73518e-07
2.15361e-17
-1.68588e-08
1.99535e-07
-1.15016e-16
-1.55258e-08
2.24345e-07
-3.50276e-17
-1.40031e-08
2.4714e-07
1.22836e-17
-1.23139e-08
2.6672e-07
9.35902e-17
-1.04902e-08
2.81795e-07
-1.02821e-16
-8.57575e-09
2.90728e-07
-4.72043e-17
-6.6291e-09
2.91411e-07
-2.02415e-17
-4.7268e-09
2.81301e-07
1.23252e-17
-2.96749e-09
2.57337e-07
7.79328e-17
-1.47831e-09
2.15636e-07
-5.06122e-17
-4.20735e-10
1.51625e-07
-1.65019e-17
5.96183e-08
-2.58167e-17
-2.06901e-08
-1.83519e-08
-3.91737e-16
-2.1129e-08
1.43633e-09
-3.19825e-16
-2.13956e-08
2.26939e-08
-2.50204e-16
-2.14768e-08
4.53407e-08
-1.76768e-16
-2.13613e-08
6.92357e-08
-1.05574e-16
-2.10392e-08
9.41768e-08
-3.52999e-17
-2.05025e-08
1.19981e-07
3.18985e-17
-1.97469e-08
1.46221e-07
1.26185e-16
-1.87708e-08
1.72542e-07
2.7421e-17
-1.75776e-08
1.98342e-07
-1.19415e-16
-1.61761e-08
2.22944e-07
-3.55493e-17
-1.45808e-08
2.45545e-07
1.33331e-17
-1.28155e-08
2.64954e-07
9.78698e-17
-1.09131e-08
2.79893e-07
-1.06476e-16
-8.91874e-09
2.88734e-07
-4.74679e-17
-6.89269e-09
2.89385e-07
-1.82496e-17
-4.91408e-09
2.79322e-07
1.6121e-17
-3.08493e-09
2.55508e-07
8.65231e-17
-1.53692e-09
2.14088e-07
-5.02039e-17
-4.37528e-10
1.50526e-07
-1.52418e-17
5.91807e-08
-2.43607e-17
-2.18395e-08
-1.77798e-08
-4.03425e-16
-2.22482e-08
1.84526e-09
-3.26997e-16
-2.24802e-08
2.2926e-08
-2.53238e-16
-2.25225e-08
4.53832e-08
-1.76033e-16
-2.23637e-08
6.9077e-08
-1.01701e-16
-2.19941e-08
9.38072e-08
-2.89099e-17
-2.14054e-08
1.19392e-07
4.08609e-17
-2.05935e-08
1.45409e-07
1.40054e-16
-1.95566e-08
1.71506e-07
3.27084e-17
-1.82983e-08
1.97084e-07
-1.23437e-16
-1.68274e-08
2.21473e-07
-3.59914e-17
-1.5159e-08
2.43877e-07
1.4719e-17
-1.33172e-08
2.63113e-07
1.02572e-16
-1.13359e-08
2.77912e-07
-1.0982e-16
-9.26144e-09
2.86659e-07
-4.75803e-17
-7.15598e-09
2.87279e-07
-1.62225e-17
-5.10111e-09
2.77267e-07
1.99216e-17
-3.20222e-09
2.53609e-07
9.35254e-17
-1.59546e-09
2.12481e-07
-4.94895e-17
-4.54307e-10
1.49385e-07
-1.36116e-17
5.87264e-08
-2.25194e-17
-2.3005e-08
-1.72364e-08
-4.14207e-16
-2.33809e-08
2.22138e-09
-3.3363e-16
-2.3576e-08
2.31212e-08
-2.5607e-16
-2.35773e-08
4.53847e-08
-1.75413e-16
-2.33734e-08
6.88733e-08
-9.81602e-17
-2.29546e-08
9.33884e-08
-2.29795e-17
-2.23125e-08
1.1875e-07
4.93392e-17
-2.1443e-08
1.44539e-07
1.5462e-16
-2.03442e-08
1.70407e-07
3.7107e-17
-1.90199e-08
1.95759e-07
-1.26712e-16
-1.74791e-08
2.19932e-07
-3.71544e-17
-1.5737e-08
2.42135e-07
1.53624e-17
-1.38184e-08
2.61194e-07
1.06915e-16
-1.17581e-08
2.75851e-07
-1.13382e-16
-9.6035e-09
2.84505e-07
-4.76836e-17
-7.4187e-09
2.85095e-07
-1.40242e-17
-5.28771e-09
2.75136e-07
2.40085e-17
-3.31922e-09
2.51641e-07
1.0031e-16
-1.65386e-09
2.10816e-07
-4.82717e-17
-4.71054e-10
1.48202e-07
-1.15825e-17
5.82554e-08
-2.02599e-17
-2.41837e-08
-1.67243e-08
-4.2323e-16
-2.45244e-08
2.56236e-09
-3.39088e-16
-2.46805e-08
2.32773e-08
-2.58224e-16
-2.46389e-08
4.53434e-08
-1.7459e-16
-2.43883e-08
6.86228e-08
-9.47498e-17
-2.39188e-08
9.29189e-08
-1.73763e-17
-2.3222e-08
1.18054e-07
5.7513e-17
-2.22939e-08
1.43611e-07
1.67822e-16
-2.11325e-08
1.69246e-07
4.07018e-17
-1.97415e-08
1.94369e-07
-1.3012e-16
-1.81302e-08
2.18321e-07
-3.8301e-17
-1.63141e-08
2.40319e-07
1.63537e-17
-1.43185e-08
2.59199e-07
1.11855e-16
-1.21791e-08
2.73712e-07
-1.16579e-16
-9.94453e-09
2.8227e-07
-4.76247e-17
-7.68057e-09
2.82831e-07
-1.18541e-17
-5.47367e-09
2.72929e-07
2.79436e-17
-3.43582e-09
2.49603e-07
1.07105e-16
-1.71206e-09
2.09092e-07
-4.71763e-17
-4.87749e-10
1.46978e-07
-9.69459e-18
5.77676e-08
-1.81404e-17
-2.53725e-08
-1.62458e-08
-4.29725e-16
-2.5676e-08
2.8661e-09
-3.42778e-16
-2.57912e-08
2.33927e-08
-2.59258e-16
-2.57051e-08
4.52576e-08
-1.73242e-16
-2.54063e-08
6.83242e-08
-9.12549e-17
-2.48849e-08
9.23976e-08
-1.20185e-17
-2.41325e-08
1.17302e-07
6.51715e-17
-2.31448e-08
1.42624e-07
1.81583e-16
-2.192e-08
1.68021e-07
4.2927e-17
-2.04619e-08
1.92911e-07
-1.34917e-16
-1.87798e-08
2.16639e-07
-4.04185e-17
-1.68895e-08
2.38428e-07
1.66895e-17
-1.48169e-08
2.57126e-07
1.16606e-16
-1.25985e-08
2.71494e-07
-1.19697e-16
-1.02841e-08
2.79956e-07
-4.72585e-17
-7.94127e-09
2.80488e-07
-9.30567e-18
-5.65879e-09
2.70647e-07
3.22512e-17
-3.55188e-09
2.47496e-07
1.14416e-16
-1.77001e-09
2.0731e-07
-4.58997e-17
-5.04375e-10
1.45712e-07
-7.79881e-18
5.72632e-08
-1.60134e-17
-2.65683e-08
-1.58029e-08
-4.33096e-16
-2.68326e-08
3.1308e-09
-3.44242e-16
-2.69055e-08
2.34656e-08
-2.58797e-16
-2.67735e-08
4.51258e-08
-1.7108e-16
-2.64253e-08
6.79762e-08
-8.74587e-17
-2.58511e-08
9.18234e-08
-6.71575e-18
-2.50421e-08
1.16493e-07
7.2696e-17
-2.39943e-08
1.41576e-07
1.93751e-16
-2.27057e-08
1.66733e-07
4.42137e-17
-2.11801e-08
1.91385e-07
-1.41217e-16
-1.9427e-08
2.14886e-07
-4.26825e-17
-1.74624e-08
2.36464e-07
1.73493e-17
-1.5313e-08
2.54977e-07
1.21784e-16
-1.30158e-08
2.69196e-07
-1.22408e-16
-1.06219e-08
2.77562e-07
-4.66482e-17
-8.20052e-09
2.78067e-07
-6.72093e-18
-5.84285e-09
2.68289e-07
3.64082e-17
-3.66729e-09
2.4532e-07
1.21549e-16
-1.82763e-09
2.05471e-07
-4.50324e-17
-5.20911e-10
1.44405e-07
-6.2959e-18
5.67423e-08
-1.42747e-17
-2.77676e-08
-1.53975e-08
-4.33005e-16
-2.79914e-08
3.35495e-09
-3.4316e-16
-2.80205e-08
2.34947e-08
-2.56577e-16
-2.78415e-08
4.49472e-08
-1.67865e-16
-2.74431e-08
6.75779e-08
-8.31627e-17
-2.68152e-08
9.11955e-08
-1.34256e-18
-2.59492e-08
1.15627e-07
7.99569e-17
-2.48408e-08
1.40467e-07
2.06858e-16
-2.3488e-08
1.6538e-07
4.43103e-17
-2.18948e-08
1.89792e-07
-1.48656e-16
-2.00707e-08
2.13062e-07
-4.5784e-17
-1.80321e-08
2.34426e-07
1.75185e-17
-1.5806e-08
2.52751e-07
1.26819e-16
-1.34304e-08
2.66821e-07
-1.24758e-16
-1.09574e-08
2.75089e-07
-4.54523e-17
-8.45798e-09
2.75567e-07
-3.54601e-18
-6.02563e-09
2.65857e-07
4.09978e-17
-3.78188e-09
2.43077e-07
1.2892e-16
-1.88485e-09
2.03574e-07
-4.4245e-17
-5.37336e-10
1.43058e-07
-4.95193e-18
5.6205e-08
-1.27009e-17
-2.89669e-08
-1.50308e-08
-4.29318e-16
-2.9149e-08
3.53737e-09
-3.39383e-16
-2.91334e-08
2.34792e-08
-2.52427e-16
-2.89067e-08
4.47208e-08
-1.63426e-16
-2.84574e-08
6.71288e-08
-7.8194e-17
-2.77754e-08
9.05136e-08
4.30652e-18
-2.68519e-08
1.14704e-07
8.74356e-17
-2.56827e-08
1.39298e-07
2.18683e-16
-2.42657e-08
1.63964e-07
4.38593e-17
-2.26049e-08
1.88132e-07
-1.56866e-16
-2.071e-08
2.11167e-07
-4.88686e-17
-1.85976e-08
2.32313e-07
1.80287e-17
-1.62953e-08
2.50449e-07
1.32413e-16
-1.38417e-08
2.64367e-07
-1.26697e-16
-1.12902e-08
2.72538e-07
-4.39834e-17
-8.71335e-09
2.72991e-07
-3.04921e-19
-6.2069e-09
2.63351e-07
4.54046e-17
-3.89554e-09
2.40765e-07
1.35781e-16
-1.9416e-09
2.0162e-07
-4.4078e-17
-5.5363e-10
1.4167e-07
-4.08879e-18
5.56514e-08
-1.15766e-17
-3.01628e-08
-1.47039e-08
-4.22191e-16
-3.03023e-08
3.67724e-09
-3.32977e-16
-3.02413e-08
2.34183e-08
-2.46311e-16
-2.99663e-08
4.44461e-08
-1.57664e-16
-2.94658e-08
6.66284e-08
-7.24368e-17
-2.87295e-08
8.97773e-08
1.03096e-17
-2.77484e-08
1.13724e-07
9.48513e-17
-2.65184e-08
1.38068e-07
2.31698e-16
-2.50374e-08
1.62483e-07
4.25133e-17
-2.33092e-08
1.86404e-07
-1.6562e-16
-2.13439e-08
2.09202e-07
-5.25306e-17
-1.91582e-08
2.30128e-07
1.82678e-17
-1.67801e-08
2.48071e-07
1.3816e-16
-1.42492e-08
2.61837e-07
-1.28063e-16
-1.16199e-08
2.69909e-07
-4.17622e-17
-8.96627e-09
2.70337e-07
3.63361e-18
-6.38643e-09
2.60771e-07
5.0267e-17
-4.0081e-09
2.38387e-07
1.42599e-16
-1.99781e-09
1.9961e-07
-4.41068e-17
-5.69771e-10
1.40242e-07
-3.41562e-18
5.50816e-08
-1.06396e-17
-3.13515e-08
-1.44175e-08
-4.12006e-16
-3.1448e-08
3.77409e-09
-3.24121e-16
-3.13413e-08
2.33117e-08
-2.38318e-16
-3.10179e-08
4.41229e-08
-1.50586e-16
-3.0466e-08
6.60766e-08
-6.58209e-17
-2.96754e-08
8.89867e-08
1.67899e-17
-2.86369e-08
1.12685e-07
1.02572e-16
-2.73464e-08
1.36778e-07
2.43489e-16
-2.58016e-08
1.60938e-07
4.08559e-17
-2.40066e-08
1.84609e-07
-1.74801e-16
-2.19713e-08
2.07166e-07
-5.60133e-17
-1.97129e-08
2.2787e-07
1.88848e-17
-1.72598e-08
2.45618e-07
1.4427e-16
-1.46523e-08
2.59229e-07
-1.29066e-16
-1.1946e-08
2.67202e-07
-3.93307e-17
-9.21644e-09
2.67608e-07
7.57431e-18
-6.564e-09
2.58118e-07
5.48417e-17
-4.11943e-09
2.35943e-07
1.48538e-16
-2.05341e-09
1.97543e-07
-4.48336e-17
-5.85738e-10
1.38774e-07
-3.2151e-18
5.44959e-08
-1.01293e-17
-3.25294e-08
-1.41717e-08
-3.9947e-16
-3.25828e-08
3.82783e-09
-3.13255e-16
-3.24304e-08
2.31595e-08
-2.28696e-16
-3.20586e-08
4.37514e-08
-1.42258e-16
-3.14556e-08
6.54738e-08
-5.83315e-17
-3.0611e-08
8.81421e-08
2.37578e-17
-2.95156e-08
1.1159e-07
1.10249e-16
-2.8165e-08
1.35427e-07
2.56213e-16
-2.65571e-08
1.59331e-07
3.8544e-17
-2.46957e-08
1.82748e-07
-1.84236e-16
-2.25913e-08
2.05062e-07
-5.97964e-17
-2.02609e-08
2.25539e-07
1.9466e-17
-1.77337e-08
2.4309e-07
1.50698e-16
-1.50505e-08