/*--------------------------------*- C++ -*----------------------------------*\
| =========                 |                                                 |
| \\      /  F ield         | OpenFOAM: The Open Source CFD Toolbox           |
|  \\    /   O peration     | Version:  v2012                                 |
|   \\  /    A nd           | Website:  www.openfoam.com                      |
|    \\/     M anipulation  |                                                 |
\*---------------------------------------------------------------------------*/
FoamFile
{
    version     2.0;
    format      ascii;
    class       volVectorField;
    location    "0.1";
    object      U;
}
// * * * * * * * * * * * * * * * * * * * * * * * * * * * * * * * * * * * * * //

dimensions      [0 1 -1 0 0 0 0];


internalField   nonuniform List<vector> 
3338
(
(-0.0193873 -0.361534 0.000169456)
(-0.0184351 -0.106861 0.000161172)
(-0.00752916 0.127203 6.56619e-05)
(-0.0065939 0.340274 5.74562e-05)
(-0.00573981 0.533206 5.01104e-05)
(-0.0054543 0.705144 4.76106e-05)
(-0.00520628 0.855968 4.54504e-05)
(-0.00493507 0.985026 4.30838e-05)
(-0.00461599 1.09166 4.02995e-05)
(-0.00424995 1.17513 3.71049e-05)
(-0.00384266 1.23457 3.35503e-05)
(-0.0034029 1.26897 2.97119e-05)
(-0.0029407 1.27714 2.56776e-05)
(-0.00246716 1.25768 2.1544e-05)
(-0.00199411 1.20891 1.74145e-05)
(-0.00153404 1.12885 1.33982e-05)
(-0.00110096 1.01517 9.61713e-06)
(-0.000709221 0.865071 6.1969e-06)
(-0.000377895 0.675358 3.30383e-06)
(-0.000125564 0.442316 1.10149e-06)
(2.62971e-06 0.162014 1.89468e-09)
(-0.0223763 -0.36076 0.000195283)
(-0.0228205 -0.108442 0.000199233)
(-0.019145 0.124986 0.000167158)
(-0.0182336 0.339744 0.000159207)
(-0.0169862 0.533064 0.000148307)
(-0.0163226 0.705141 0.000142493)
(-0.0156256 0.855951 0.000136412)
(-0.0148218 0.984963 0.000129398)
(-0.013867 1.09155 0.000121066)
(-0.0127688 1.17497 0.000111482)
(-0.0115457 1.23436 0.000100807)
(-0.0102244 1.26873 8.92739e-05)
(-0.00883518 1.27688 7.71481e-05)
(-0.00741149 1.2574 6.47206e-05)
(-0.00598909 1.20863 5.23038e-05)
(-0.00460586 1.12858 4.02282e-05)
(-0.00330432 1.01491 2.88651e-05)
(-0.00212844 0.864835 1.85982e-05)
(-0.00113638 0.675159 9.93463e-06)
(-0.000384506 0.442176 3.37006e-06)
(5.26723e-07 0.161962 5.66668e-08)
(-0.0275874 -0.359249 0.000240769)
(-0.0294316 -0.108133 0.000256919)
(-0.029309 0.124961 0.000255852)
(-0.0290905 0.339714 0.000253954)
(-0.0280126 0.533066 0.000244553)
(-0.0271315 0.705163 0.000236853)
(-0.026041 0.855904 0.00022734)
(-0.0247209 0.984822 0.00021582)
(-0.0231348 1.09131 0.000201979)
(-0.0213046 1.17465 0.000186006)
(-0.0192642 1.23398 0.000168198)
(-0.0170588 1.26829 0.000148949)
(-0.0147397 1.2764 0.000128707)
(-0.0123628 1.25691 0.000107959)
(-0.00998802 1.20814 8.72281e-05)
(-0.00767909 1.12811 6.70713e-05)
(-0.00550777 1.01447 4.81143e-05)
(-0.00354853 0.864461 3.10072e-05)
(-0.00189956 0.674865 1.66063e-05)
(-0.000654656 0.441987 5.73533e-06)
(-9.21177e-06 0.161903 1.74658e-07)
(-0.0343117 -0.356962 0.000299467)
(-0.0373471 -0.106442 0.000325993)
(-0.0391174 0.126065 0.000341443)
(-0.0396424 0.340197 0.000346049)
(-0.0389021 0.533312 0.000339606)
(-0.0379037 0.70528 0.000330891)
(-0.0364684 0.855864 0.000318371)
(-0.0346472 0.984622 0.000302479)
(-0.0324329 1.09096 0.000283156)
(-0.0298687 1.17417 0.000260778)
(-0.0270072 1.23338 0.000235803)
(-0.0239137 1.26762 0.000208802)
(-0.0206603 1.27568 0.000180405)
(-0.0173259 1.25616 0.000151299)
(-0.0139949 1.20739 0.000122221)
(-0.0107571 1.12738 9.39554e-05)
(-0.00771392 1.0138 6.73864e-05)
(-0.00497084 0.863878 4.34354e-05)
(-0.00266628 0.674402 2.33091e-05)
(-0.00093057 0.441684 8.15259e-06)
(-2.03594e-05 0.161799 3.15904e-07)
(-0.0422344 -0.35397 0.000368611)
(-0.0461957 -0.103992 0.000403216)
(-0.0490243 0.127832 0.000427913)
(-0.050158 0.341153 0.000437837)
(-0.0497567 0.533829 0.000434356)
(-0.0486834 0.70551 0.000424994)
(-0.0469315 0.85584 0.000409712)
(-0.0446174 0.984365 0.000389521)
(-0.0417745 1.0905 0.000364713)
(-0.0384716 1.17352 0.000335888)
(-0.0347832 1.23259 0.000303696)
(-0.0307953 1.26672 0.000268889)
(-0.0266019 1.27471 0.000232287)
(-0.0223047 1.25515 0.000194777)
(-0.0180129 1.20638 0.000157311)
(-0.0138424 1.12641 0.000120903)
(-0.00992456 1.01291 8.66979e-05)
(-0.00639629 0.863097 5.58909e-05)
(-0.00343598 0.673781 3.0038e-05)
(-0.00120968 0.441276 1.05978e-05)
(-3.24763e-05 0.161656 4.66405e-07)
(-0.0511622 -0.350357 0.000446534)
(-0.0558103 -0.100969 0.000487132)
(-0.0592446 0.130106 0.000517123)
(-0.0608137 0.342529 0.00053085)
(-0.0606763 0.534609 0.000529674)
(-0.0595234 0.705861 0.000519624)
(-0.0574593 0.855834 0.000501619)
(-0.0546508 0.984051 0.000477115)
(-0.0511733 1.08991 0.00044677)
(-0.047124 1.17271 0.00041143)
(-0.0426002 1.2316 0.000371947)
(-0.0377099 1.26559 0.000329264)
(-0.0325692 1.27349 0.000284393)
(-0.0273029 1.25388 0.000238423)
(-0.0220446 1.20511 0.000192522)
(-0.016937 1.12519 0.000147932)
(-0.0121412 1.01178 0.000106062)
(-0.00782566 0.86212 6.83807e-05)
(-0.00420846 0.673007 3.6791e-05)
(-0.00149075 0.440766 1.306e-05)
(-4.50608e-05 0.161474 6.20789e-07)
(-0.0609722 -0.346196 0.000532159)
(-0.066112 -0.0974738 0.000577051)
(-0.0698876 0.132786 0.000610026)
(-0.0717275 0.344263 0.000626117)
(-0.071746 0.535628 0.000626304)
(-0.0704761 0.706327 0.000615237)
(-0.0680832 0.855846 0.000594366)
(-0.064768 0.983677 0.00056544)
(-0.0606441 1.08921 0.000529455)
(-0.0558364 1.17174 0.000487496)
(-0.0504662 1.23041 0.000440627)
(-0.0446636 1.26423 0.000389981)
(-0.0385668 1.27202 0.000336764)
(-0.0323238 1.25236 0.000282269)
(-0.0260929 1.20359 0.000227876)
(-0.020043 1.12373 0.000175061)
(-0.0143654 1.01043 0.000125491)
(-0.00925972 0.860948 8.09115e-05)
(-0.00498373 0.672078 4.35685e-05)
(-0.00177309 0.440154 1.55333e-05)
(-5.77269e-05 0.161254 7.75963e-07)
(-0.0715906 -0.341552 0.000624844)
(-0.077065 -0.0935844 0.000672658)
(-0.0810105 0.1358 0.00070712)
(-0.0829756 0.346294 0.000724304)
(-0.0830338 0.536854 0.00072484)
(-0.0815891 0.706894 0.00071225)
(-0.0788345 0.855868 0.000688224)
(-0.0749899 0.98324 0.00065468)
(-0.0702015 1.08839 0.000612895)
(-0.0646195 1.17059 0.00056418)
(-0.0583891 1.22901 0.000509803)
(-0.0516622 1.26264 0.000451089)
(-0.0445991 1.2703 0.000389438)
(-0.0373707 1.25058 0.000326342)
(-0.0301601 1.20181 0.000263396)
(-0.0231621 1.12202 0.000202304)
(-0.0165982 1.00886 0.000144997)
(-0.0106991 0.859579 9.34893e-05)
(-0.0057619 0.670994 5.03713e-05)
(-0.00205639 0.439439 1.8015e-05)
(-7.03098e-05 0.160995 9.30478e-07)
(-0.0829752 -0.336476 0.000724219)
(-0.0886544 -0.0893555 0.000773823)
(-0.0926445 0.13909 0.000808677)
(-0.0946083 0.34857 0.000825851)
(-0.0945926 0.53825 0.000825742)
(-0.0929033 0.707542 0.000811021)
(-0.0897419 0.855889 0.000783446)
(-0.0853368 0.982731 0.000745011)
(-0.0798597 1.08743 0.000697217)
(-0.0734837 1.16927 0.000641572)
(-0.0663764 1.22739 0.000579542)
(-0.0587112 1.26081 0.000512638)
(-0.0506701 1.26832 0.00044245)
(-0.0424468 1.24853 0.000370669)
(-0.0342484 1.19977 0.000299101)
(-0.0262961 1.12005 0.000229677)
(-0.0188409 1.00705 0.000164588)
(-0.0121446 0.858014 0.00010612)
(-0.00654318 0.669755 5.72013e-05)
(-0.00234053 0.438622 2.05042e-05)
(-8.27354e-05 0.160698 1.08373e-06)
(-0.0951031 -0.331011 0.000830085)
(-0.100875 -0.0848292 0.000880504)
(-0.104808 0.142615 0.000914859)
(-0.106659 0.351046 0.000931049)
(-0.106462 0.539781 0.000929359)
(-0.104453 0.708249 0.000911848)
(-0.100831 0.855894 0.000880258)
(-0.0958273 0.982139 0.000836598)
(-0.0896322 1.08634 0.000782538)
(-0.0824387 1.16777 0.000719758)
(-0.0744353 1.22556 0.000649905)
(-0.0658158 1.25873 0.000574672)
(-0.0567836 1.26609 0.000495834)
(-0.0475546 1.24622 0.000415273)
(-0.0383599 1.19747 0.000335008)
(-0.0294464 1.11784 0.000257193)
(-0.0210944 1.00502 0.000184274)
(-0.0135967 0.856249 0.000118808)
(-0.00732782 0.66836 6.40607e-05)
(-0.00262556 0.4377 2.30011e-05)
(-9.49999e-05 0.160361 1.23563e-06)
(-0.107964 -0.325196 0.000942346)
(-0.113729 -0.0800406 0.000992704)
(-0.117513 0.146339 0.00102577)
(-0.119151 0.353679 0.0010401)
(-0.118672 0.541412 0.00103595)
(-0.116266 0.708991 0.00101497)
(-0.112125 0.855865 0.000978855)
(-0.106478 0.981453 0.000929586)
(-0.0995314 1.0851 0.000868964)
(-0.0914935 1.16607 0.000798814)
(-0.0825721 1.22351 0.00072095)
(-0.0729807 1.25641 0.000637233)
(-0.062943 1.26359 0.000549618)
(-0.0526968 1.24364 0.000460178)
(-0.0424964 1.1949 0.000371133)
(-0.0326142 1.11538 0.000284861)
(-0.0233597 1.00275 0.000204063)
(-0.015056 0.854286 0.00013156)
(-0.00811609 0.666807 7.09518e-05)
(-0.00291156 0.436675 2.55065e-05)
(-0.000107127 0.159985 1.38642e-06)
(-0.121553 -0.319064 0.00106097)
(-0.127217 -0.0750206 0.00111045)
(-0.130768 0.150229 0.00114148)
(-0.132099 0.356435 0.00115313)
(-0.131245 0.543113 0.00114571)
(-0.128364 0.70974 0.00112059)
(-0.123642 0.855785 0.0010794)
(-0.117304 0.980659 0.0010241)
(-0.109568 1.0837 0.00095659)
(-0.100656 1.16418 0.00087881)
(-0.0907927 1.22123 0.000792725)
(-0.08021 1.25384 0.000700357)
(-0.0691513 1.26083 0.000603829)
(-0.0578753 1.24079 0.0005054)
(-0.0466594 1.19206 0.00040749)
(-0.0358006 1.11266 0.000312693)
(-0.0256374 1.00026 0.000223961)
(-0.016523 0.852122 0.000144378)
(-0.00890824 0.665096 7.78768e-05)
(-0.00319867 0.435545 2.80217e-05)
(-0.000119151 0.159571 1.53643e-06)
(-0.135872 -0.312646 0.00118597)
(-0.141343 -0.0697985 0.00123377)
(-0.144579 0.154256 0.00126204)
(-0.145516 0.359281 0.00127026)
(-0.144197 0.544852 0.00125878)
(-0.140764 0.710474 0.00122884)
(-0.135397 0.855632 0.00118202)
(-0.128318 0.979741 0.00112025)
(-0.119751 1.08214 0.0010455)
(-0.109933 1.16208 0.000959805)
(-0.0991018 1.21871 0.000865275)
(-0.0875072 1.25102 0.000764073)
(-0.0754108 1.2578 0.000658488)
(-0.0630919 1.23767 0.000550954)
(-0.05085 1.18895 0.000444087)
(-0.0390065 1.10968 0.000340694)
(-0.0279282 0.997523 0.000243972)
(-0.0179979 0.849756 0.000157266)
(-0.0097045 0.663226 8.48379e-05)
(-0.00348703 0.43431 3.05478e-05)
(-0.000131111 0.159117 1.68605e-06)
(-0.150923 -0.305974 0.00131735)
(-0.156113 -0.0644028 0.0013627)
(-0.158949 0.158391 0.00138749)
(-0.159406 0.362185 0.00139152)
(-0.157538 0.5466 0.00137525)
(-0.153477 0.711166 0.00133983)
(-0.147401 0.855388 0.00128682)
(-0.139527 0.978684 0.00121812)
(-0.130089 1.08039 0.00113575)
(-0.119329 1.15977 0.00104185)
(-0.107503 1.21595 0.000938631)
(-0.094875 1.24792 0.000828406)
(-0.0817235 1.2545 0.000713611)
(-0.0683478 1.23427 0.000596853)
(-0.0550691 1.18558 0.000480934)
(-0.0422324 1.10644 0.00036887)
(-0.0302324 0.994555 0.000264101)
(-0.0194811 0.847187 0.000170227)
(-0.0105051 0.661197 9.18364e-05)
(-0.00377675 0.432969 3.30859e-05)
(-0.000143044 0.158623 1.83561e-06)
(-0.166709 -0.299077 0.00145516)
(-0.171527 -0.0588619 0.00149727)
(-0.173881 0.162607 0.00151785)
(-0.173776 0.365118 0.00151697)
(-0.171276 0.548329 0.00149518)
(-0.166513 0.711792 0.00145364)
(-0.159662 0.855031 0.00139386)
(-0.15094 0.977471 0.00131776)
(-0.140585 1.07845 0.00122739)
(-0.12885 1.15723 0.00112497)
(-0.116 1.21294 0.00101282)
(-0.102315 1.24456 0.000893372)
(-0.0880907 1.25092 0.00076921)
(-0.073644 1.23059 0.000643102)
(-0.0593172 1.18192 0.000518035)
(-0.0454788 1.10295 0.000397225)
(-0.0325502 0.99135 0.000284349)
(-0.0209728 0.844414 0.000183261)
(-0.01131 0.659006 9.88735e-05)
(-0.00406795 0.431522 3.56369e-05)
(-0.000154982 0.15809 1.98543e-06)
(-0.183232 -0.291988 0.00159941)
(-0.187588 -0.0532047 0.00163748)
(-0.189376 0.166875 0.00165311)
(-0.188625 0.368052 0.0016466)
(-0.185414 0.550012 0.00161861)
(-0.179875 0.712328 0.00157029)
(-0.172185 0.854542 0.0015032)
(-0.162561 0.976087 0.00141922)
(-0.151245 1.07631 0.00132046)
(-0.138497 1.15445 0.0012092)
(-0.124595 1.20966 0.00108786)
(-0.109829 1.24093 0.000958983)
(-0.094513 1.24705 0.00082529)
(-0.0789807 1.22662 0.000689706)
(-0.0635946 1.17799 0.000555391)
(-0.0487455 1.09919 0.000425758)
(-0.0348818 0.987905 0.000304717)
(-0.022473 0.841435 0.000196369)
(-0.0121195 0.656654 0.00010595)
(-0.00436069 0.429967 3.82014e-05)
(-0.000166954 0.157517 2.13578e-06)
(-0.200494 -0.284737 0.00175009)
(-0.204295 -0.0474607 0.00178332)
(-0.20543 0.171168 0.00179327)
(-0.203952 0.370959 0.00178041)
(-0.199952 0.551623 0.00174552)
(-0.193566 0.712751 0.00168982)
(-0.184973 0.8539 0.00161484)
(-0.174393 0.974513 0.00152251)
(-0.16207 1.07394 0.00141497)
(-0.148272 1.15143 0.00129455)
(-0.133287 1.20612 0.00116375)
(-0.117417 1.23701 0.00102524)
(-0.10099 1.24289 0.000881852)
(-0.0843578 1.22236 0.000736662)
(-0.0679009 1.17377 0.000593)
(-0.0520326 1.09516 0.000454468)
(-0.0372269 0.98422 0.000325204)
(-0.0239815 0.83825 0.000209551)
(-0.0129334 0.654139 0.000113065)
(-0.00465503 0.428306 4.07798e-05)
(-0.000178981 0.156904 2.28684e-06)
(-0.218492 -0.277358 0.00190721)
(-0.221642 -0.0416601 0.00193476)
(-0.222039 0.175456 0.00193827)
(-0.219753 0.373811 0.00191835)
(-0.214886 0.553136 0.0018759)
(-0.207583 0.713036 0.00181219)
(-0.198025 0.853085 0.00172879)
(-0.186434 0.972734 0.00162764)
(-0.173059 1.07134 0.00151092)
(-0.158174 1.14815 0.00138101)
(-0.142076 1.20231 0.0012405)
(-0.125079 1.2328 0.00109214)
(-0.107522 1.23844 0.00093889)
(-0.0897747 1.21781 0.000783966)
(-0.0722357 1.16928 0.000630857)
(-0.0553394 1.09087 0.000483351)
(-0.0395853 0.980292 0.000345806)
(-0.0254982 0.834857 0.000222804)
(-0.0137516 0.65146 0.000120218)
(-0.00495096 0.426536 4.33722e-05)
(-0.000191081 0.156251 2.43878e-06)
(-0.23722 -0.269885 0.0020707)
(-0.239625 -0.0358339 0.00209175)
(-0.239196 0.179711 0.00208805)
(-0.23602 0.376583 0.00206037)
(-0.230211 0.554526 0.0020097)
(-0.221921 0.713162 0.00193737)
(-0.211337 0.852078 0.00184501)
(-0.198682 0.970733 0.00173458)
(-0.184211 1.06849 0.00160828)
(-0.168202 1.1446 0.00146856)
(-0.150961 1.19821 0.00131808)
(-0.132812 1.2283 0.00115966)
(-0.114107 1.23369 0.000996392)
(-0.0952301 1.21297 0.000831607)
(-0.076598 1.16449 0.000668955)
(-0.0586652 1.0863 0.0005124)
(-0.0419563 0.97612 0.000366518)
(-0.0270229 0.831254 0.000236126)
(-0.0145741 0.648618 0.000127409)
(-0.00524846 0.424657 4.59784e-05)
(-0.000203266 0.155558 2.59171e-06)
(-0.256671 -0.262353 0.0022405)
(-0.258233 -0.0300139 0.0022542)
(-0.256891 0.183905 0.00224252)
(-0.252743 0.379246 0.00220636)
(-0.245918 0.555768 0.00214682)
(-0.236574 0.713107 0.0020653)
(-0.224903 0.850859 0.00196346)
(-0.211133 0.968493 0.00184329)
(-0.195522 1.06537 0.00170704)
(-0.178353 1.14077 0.00155719)
(-0.15994 1.19381 0.00139647)
(-0.140615 1.2235 0.0012278)
(-0.120743 1.22863 0.00105434)
(-0.100722 1.20782 0.00087957)
(-0.0809863 1.15942 0.00070728)
(-0.0620091 1.08147 0.000541606)
(-0.0443392 0.971703 0.000387335)
(-0.0285549 0.827442 0.000249513)
(-0.0154007 0.645609 0.000134634)
(-0.00554747 0.422669 4.85978e-05)
(-0.000215542 0.154823 2.74569e-06)
(-0.27683 -0.254797 0.0024165)
(-0.277453 -0.0242324 0.00242199)
(-0.275108 0.188007 0.00240157)
(-0.26991 0.381774 0.00235623)
(-0.261995 0.556839 0.00228718)
(-0.251531 0.712848 0.00219588)
(-0.238716 0.849409 0.00208405)
(-0.22378 0.965999 0.0019537)
(-0.206985 1.06199 0.00180713)
(-0.188622 1.13665 0.00164685)
(-0.169007 1.18911 0.00147564)
(-0.148484 1.21838 0.00129651)
(-0.127428 1.22327 0.00111271)
(-0.106249 1.20237 0.000927836)
(-0.085399 1.15405 0.000745818)
(-0.0653696 1.07636 0.000570958)
(-0.0467332 0.96704 0.000408248)
(-0.0300937 0.823418 0.000262959)
(-0.0162309 0.642435 0.000141892)
(-0.00584791 0.420572 5.12297e-05)
(-0.000227915 0.154048 2.90075e-06)
(-0.297682 -0.247254 0.00259853)
(-0.297266 -0.0185222 0.00259496)
(-0.293832 0.191988 0.00256503)
(-0.287503 0.384141 0.00250983)
(-0.278428 0.557714 0.00243065)
(-0.266781 0.712365 0.00232902)
(-0.252765 0.847711 0.0022067)
(-0.236614 0.963236 0.00206575)
(-0.218595 1.05832 0.00190849)
(-0.199002 1.13223 0.00173748)
(-0.178158 1.18411 0.00155555)
(-0.156415 1.21296 0.00136576)
(-0.134157 1.21759 0.00117147)
(-0.111808 1.19661 0.00097638)
(-0.0898339 1.14838 0.00078455)
(-0.0687451 1.07098 0.000600442)
(-0.049137 0.962128 0.000429248)
(-0.0316386 0.819181 0.000276459)
(-0.0170644 0.639094 0.000149178)
(-0.00614964 0.418364 5.38729e-05)
(-0.000240383 0.153232 3.05687e-06)
(-0.319203 -0.239761 0.00278641)
(-0.317652 -0.0129164 0.00277293)
(-0.313041 0.19582 0.00273273)
(-0.305505 0.38632 0.00266699)
(-0.295199 0.558371 0.00257707)
(-0.282307 0.711637 0.00246457)
(-0.267036 0.845746 0.0023313)
(-0.249624 0.960189 0.00217934)
(-0.230341 1.05435 0.00201105)
(-0.209486 1.1275 0.00182902)
(-0.187388 1.17878 0.00163613)
(-0.164403 1.20721 0.00143551)
(-0.140928 1.21159 0.00123059)
(-0.117396 1.19054 0.00102517)
(-0.0942883 1.14242 0.000823453)
(-0.0721338 1.06532 0.00063004)
(-0.0515494 0.956966 0.000450322)
(-0.0331888 0.814732 0.000290005)
(-0.0179008 0.635586 0.00015649)
(-0.00645252 0.416045 5.65262e-05)
(-0.000252945 0.152375 3.214e-06)
(-0.341366 -0.232355 0.0029799)
(-0.338584 -0.00744794 0.00295568)
(-0.332711 0.199473 0.00290446)
(-0.323892 0.388286 0.00282751)
(-0.312289 0.558786 0.00272627)
(-0.298092 0.710645 0.00260239)
(-0.281515 0.843499 0.00245771)
(-0.262798 0.956842 0.00229436)
(-0.242214 1.05006 0.00211471)
(-0.220066 1.12245 0.00192139)
(-0.196687 1.17314 0.00171734)
(-0.172442 1.20114 0.00150571)
(-0.147734 1.20527 0.00129003)
(-0.123008 1.18416 0.00107419)
(-0.0987596 1.13617 0.000862502)
(-0.0755335 1.05938 0.000659734)
(-0.0539688 0.951555 0.000471457)
(-0.0347433 0.810069 0.000303588)
(-0.0187395 0.63191 0.000163823)
(-0.00675636 0.413616 5.91879e-05)
(-0.000265593 0.151476 3.37206e-06)
(-0.36414 -0.225075 0.00317872)
(-0.360033 -0.00214968 0.00314293)
(-0.352815 0.202918 0.00307997)
(-0.342638 0.390013 0.00299118)
(-0.329674 0.558937 0.00287805)
(-0.314117 0.70937 0.0027423)
(-0.296185 0.840952 0.00258579)
(-0.27612 0.953184 0.00241068)
(-0.254201 1.04546 0.00221937)
(-0.230731 1.11707 0.00201452)
(-0.20605 1.16716 0.00179908)
(-0.180526 1.19473 0.00157629)
(-0.154571 1.19863 0.00134973)
(-0.128641 1.17746 0.00112338)
(-0.103244 1.1296 0.000901669)
(-0.0789418 1.05316 0.000689504)
(-0.0563936 0.945892 0.000492639)
(-0.036301 0.805192 0.000317199)
(-0.0195801 0.628065 0.000171171)
(-0.00706095 0.411075 6.18562e-05)
(-0.000278321 0.150536 3.53096e-06)
(-0.387487 -0.217956 0.00338254)
(-0.381963 0.00294615 0.00333438)
(-0.37332 0.206127 0.00325898)
(-0.361717 0.391478 0.00315774)
(-0.34733 0.558805 0.0030322)
(-0.33036 0.707794 0.0028841)
(-0.311026 0.83809 0.00271537)
(-0.289576 0.949201 0.00252817)
(-0.266289 1.04053 0.00232491)
(-0.241471 1.11135 0.00210829)
(-0.215465 1.16084 0.00188129)
(-0.188646 1.18799 0.0016472)
(-0.161432 1.19165 0.00140965)
(-0.13429 1.17044 0.00117271)
(-0.107739 1.12274 0.000940921)
(-0.0823559 1.04666 0.000719324)
(-0.0588218 0.939977 0.000513852)
(-0.0378607 0.800099 0.000330828)
(-0.0204217 0.624052 0.000178529)
(-0.00736607 0.408423 6.45291e-05)
(-0.000291117 0.149554 3.69055e-06)
(-0.411363 -0.211036 0.00359098)
(-0.404335 0.00780815 0.0035297)
(-0.39419 0.209074 0.00344119)
(-0.381094 0.392657 0.00332692)
(-0.365228 0.558369 0.00318846)
(-0.346795 0.7059 0.0030276)
(-0.326019 0.8349 0.00284627)
(-0.303147 0.944882 0.00264665)
(-0.278462 1.03525 0.0024312)
(-0.252272 1.10529 0.0022026)
(-0.224923 1.15418 0.00196388)
(-0.196795 1.18091 0.00171835)
(-0.168312 1.18434 0.00146972)
(-0.139949 1.1631 0.00122213)
(-0.112239 1.11557 0.000980225)
(-0.085773 1.03988 0.000749171)
(-0.0612514 0.933811 0.000535077)
(-0.0394211 0.794792 0.000344463)
(-0.0212639 0.619871 0.000185891)
(-0.00767146 0.405659 6.72044e-05)
(-0.00030397 0.14853 3.8507e-06)
(-0.43572 -0.204349 0.00380362)
(-0.427105 0.012406 0.00372849)
(-0.415388 0.211732 0.00362625)
(-0.400737 0.393528 0.00349841)
(-0.383338 0.557611 0.00334657)
(-0.363397 0.703673 0.00317255)
(-0.341139 0.831369 0.00297829)
(-0.316815 0.940215 0.00276598)
(-0.290705 1.02962 0.0025381)
(-0.263122 1.09888 0.00229733)
(-0.234414 1.14716 0.00204675)
(-0.204964 1.17349 0.00178968)
(-0.175203 1.1767 0.00152989)
(-0.145614 1.15543 0.0012716)
(-0.116741 1.1081 0.00101954)
(-0.08919 1.03281 0.000779016)
(-0.0636803 0.927391 0.000556295)
(-0.0409809 0.78927 0.000358093)
(-0.0221057 0.615521 0.00019325)
(-0.00797684 0.402784 6.98795e-05)
(-0.000316865 0.147465 4.01123e-06)
(-0.460505 -0.197929 0.00402)
(-0.450225 0.0167109 0.00393034)
(-0.436869 0.214077 0.0038138)
(-0.420607 0.394071 0.00367188)
(-0.401626 0.556512 0.00350624)
(-0.380137 0.701097 0.0033187)
(-0.356364 0.827483 0.00311121)
(-0.330557 0.935191 0.00288597)
(-0.303 1.02363 0.00264545)
(-0.274006 1.09211 0.00239237)
(-0.243925 1.1398 0.00212979)
(-0.213143 1.16572 0.0018611)
(-0.182096 1.16872 0.00159009)
(-0.151278 1.14745 0.00132106)
(-0.12124 1.10032 0.00105883)
(-0.0926033 1.02547 0.00080883)
(-0.066106 0.92072 0.000577486)
(-0.0425386 0.783533 0.000371703)
(-0.0229464 0.611002 0.000200599)
(-0.0082819 0.399797 7.25519e-05)
(-0.000329787 0.146358 4.17196e-06)
(-0.485659 -0.191809 0.00423961)
(-0.473644 0.0206958 0.0041348)
(-0.458588 0.216086 0.00400341)
(-0.440663 0.394267 0.00384699)
(-0.420059 0.555058 0.00366717)
(-0.396985 0.69816 0.00346579)
(-0.371666 0.823233 0.00324481)
(-0.344353 0.929802 0.00300642)
(-0.31533 1.01728 0.0027531)
(-0.284909 1.08498 0.00248756)
(-0.253443 1.13208 0.00221291)
(-0.221322 1.1576 0.00193252)
(-0.188986 1.1604 0.00165025)
(-0.156934 1.13913 0.00137045)
(-0.125731 1.09223 0.00109806)
(-0.0960096 1.01784 0.000838582)
(-0.0685262 0.913796 0.000598628)
(-0.0440925 0.777581 0.000385282)
(-0.0237851 0.606316 0.000207932)
(-0.00858634 0.3967 7.52189e-05)
(-0.000342719 0.145209 4.33271e-06)
(-0.511119 -0.186017 0.00446189)
(-0.497306 0.0243357 0.00434137)
(-0.480496 0.217739 0.00419468)
(-0.460864 0.394098 0.00402335)
(-0.438598 0.553234 0.00382903)
(-0.413908 0.69485 0.00361354)
(-0.387018 0.818609 0.00337885)
(-0.358179 0.92404 0.00312714)
(-0.327674 1.01056 0.00286088)
(-0.295815 1.07749 0.00258279)
(-0.262956 1.12399 0.00229597)
(-0.22949 1.14912 0.00200384)
(-0.195861 1.15173 0.00171029)
(-0.162576 1.13049 0.00141973)
(-0.130209 1.08384 0.00113717)
(-0.099405 1.00993 0.000868239)
(-0.0709382 0.90662 0.000619699)
(-0.045641 0.771416 0.000398813)
(-0.024621 0.601461 0.000215239)
(-0.00888982 0.393491 7.78774e-05)
(-0.000355644 0.144019 4.49325e-06)
(-0.536818 -0.180583 0.00468625)
(-0.52115 0.0276081 0.00454955)
(-0.502541 0.219017 0.00438715)
(-0.481163 0.393548 0.00420058)
(-0.457204 0.551027 0.00399147)
(-0.430873 0.691157 0.00376166)
(-0.402393 0.813604 0.00351308)
(-0.372011 0.917898 0.00324791)
(-0.340012 1.00346 0.00296861)
(-0.306707 1.06962 0.00267789)
(-0.27245 1.11555 0.00237887)
(-0.237636 1.1403 0.00207498)
(-0.202715 1.14273 0.00177014)
(-0.168198 1.12153 0.00146882)
(-0.134669 1.07514 0.00117612)
(-0.102786 1.00174 0.000897767)
(-0.0733393 0.899194 0.000640675)
(-0.0471825 0.765037 0.000412282)
(-0.0254531 0.59644 0.000222513)
(-0.009192 0.390172 8.05246e-05)
(-0.000368542 0.142788 4.65337e-06)
(-0.562685 -0.175528 0.00491207)
(-0.545116 0.0304932 0.00475878)
(-0.524668 0.219903 0.00458033)
(-0.501514 0.392606 0.00437825)
(-0.475837 0.548428 0.00415415)
(-0.447846 0.687073 0.00390985)
(-0.417759 0.80821 0.00364725)
(-0.385825 0.911373 0.00336852)
(-0.352324 0.995989 0.00307611)
(-0.317568 1.06138 0.00277272)
(-0.281911 1.10674 0.00246148)
(-0.24575 1.13112 0.00214582)
(-0.209537 1.13339 0.00182972)
(-0.173792 1.11224 0.00151767)
(-0.139105 1.06614 0.00121486)
(-0.106148 0.993265 0.000927132)
(-0.0757267 0.891519 0.000661531)
(-0.0487151 0.758447 0.000425674)
(-0.0262805 0.591253 0.000229746)
(-0.00949252 0.386743 8.31571e-05)
(-0.000381396 0.141515 4.81284e-06)
(-0.588643 -0.170876 0.0051387)
(-0.569136 0.0329741 0.00496849)
(-0.546822 0.220384 0.00477374)
(-0.521867 0.391261 0.00455595)
(-0.494455 0.545427 0.0043167)
(-0.46479 0.682592 0.00405778)
(-0.433088 0.802423 0.00378108)
(-0.399594 0.90446 0.00348874)
(-0.364588 0.988132 0.00318319)
(-0.328379 1.05277 0.00286712)
(-0.291324 1.09756 0.00254367)
(-0.253818 1.12158 0.00221628)
(-0.216319 1.1237 0.00188894)
(-0.17935 1.10263 0.00156621)
(-0.143512 1.05683 0.00125335)
(-0.109487 0.984515 0.000956296)
(-0.0780976 0.883595 0.000682242)
(-0.050237 0.751645 0.000438972)
(-0.0271021 0.585901 0.000236929)
(-0.00979101 0.383205 8.57719e-05)
(-0.000394183 0.140201 4.97144e-06)
(-0.614616 -0.166641 0.00536545)
(-0.593145 0.0350371 0.0051781)
(-0.568943 0.22045 0.00496687)
(-0.542173 0.389503 0.00473324)
(-0.513015 0.542019 0.00447874)
(-0.481669 0.677708 0.00420515)
(-0.448347 0.796241 0.00391431)
(-0.413293 0.897157 0.00360834)
(-0.376782 0.979894 0.00328966)
(-0.339124 1.04378 0.00296094)
(-0.300674 1.08803 0.00262531)
(-0.261829 1.1117 0.00228623)
(-0.22305 1.11368 0.00194771)
(-0.184865 1.0927 0.00161438)
(-0.147884 1.04722 0.00129153)
(-0.112798 0.975488 0.000985224)
(-0.080449 0.875425 0.000702783)
(-0.0517463 0.744635 0.000452161)
(-0.0279169 0.580385 0.000244052)
(-0.0100871 0.379558 8.83656e-05)
(-0.000406885 0.138847 5.12891e-06)
(-0.640523 -0.162838 0.00559164)
(-0.617072 0.0366722 0.005387)
(-0.590972 0.220093 0.0051592)
(-0.562381 0.387327 0.00490966)
(-0.531473 0.5382 0.00463989)
(-0.498445 0.67242 0.00435162)
(-0.463506 0.78966 0.00404666)
(-0.426894 0.889464 0.00372709)
(-0.388884 0.971273 0.00339532)
(-0.349783 1.03442 0.00305401)
(-0.309946 1.07813 0.00270627)
(-0.269771 1.10146 0.00235558)
(-0.229721 1.10332 0.00200597)
(-0.19033 1.08244 0.0016621)
(-0.152215 1.03732 0.00132936)
(-0.116079 0.966187 0.00101388)
(-0.0827778 0.867012 0.000723128)
(-0.0532411 0.737418 0.000465223)
(-0.028724 0.574707 0.000251107)
(-0.0103804 0.375804 9.09349e-05)
(-0.000419481 0.137453 5.28502e-06)
(-0.666284 -0.159476 0.00581654)
(-0.640849 0.0378726 0.00559458)
(-0.612848 0.219308 0.0053502)
(-0.582438 0.384731 0.00508477)
(-0.549784 0.533967 0.00479977)
(-0.51508 0.666726 0.00449686)
(-0.478531 0.782682 0.00417784)
(-0.44037 0.881382 0.00384476)
(-0.400871 0.962272 0.00349998)
(-0.360338 1.0247 0.00314617)
(-0.319125 1.06787 0.00278642)
(-0.27763 1.09088 0.00242421)
(-0.236321 1.09263 0.0020636)
(-0.195736 1.07187 0.00170931)
(-0.156499 1.02711 0.00136677)
(-0.119323 0.956614 0.00104222)
(-0.0850811 0.858356 0.000743249)
(-0.0547196 0.729995 0.000478142)
(-0.0295222 0.568868 0.000258086)
(-0.0106705 0.371944 9.34764e-05)
(-0.000431949 0.136018 5.43952e-06)
(-0.691816 -0.156559 0.00603944)
(-0.664403 0.0386355 0.00580022)
(-0.634512 0.218093 0.00553934)
(-0.602292 0.381714 0.00525812)
(-0.567904 0.529321 0.00495797)
(-0.531538 0.660627 0.00464055)
(-0.493391 0.775308 0.00430759)
(-0.453696 0.872913 0.00396111)
(-0.412721 0.952893 0.00360345)
(-0.370769 1.0146 0.00323725)
(-0.328194 1.05725 0.00286561)
(-0.285396 1.07995 0.00249201)
(-0.242842 1.08161 0.00212054)
(-0.201076 1.06099 0.00175594)
(-0.16073 1.01662 0.00140372)
(-0.122528 0.946773 0.0010702)
(-0.0873558 0.849462 0.00076312)
(-0.0561797 0.72237 0.0004909)
(-0.0303106 0.56287 0.000264978)
(-0.010957 0.367979 9.59866e-05)
(-0.000444268 0.134545 5.59217e-06)
(-0.717036 -0.154088 0.00625963)
(-0.687664 0.0389619 0.00600331)
(-0.655902 0.216451 0.00572609)
(-0.621892 0.378278 0.00542924)
(-0.58579 0.524266 0.00511413)
(-0.547779 0.654128 0.00478236)
(-0.508055 0.767541 0.00443562)
(-0.466843 0.86406 0.0040759)
(-0.424411 0.94314 0.00370552)
(-0.381059 1.00414 0.0033271)
(-0.33714 1.04628 0.00294372)
(-0.293054 1.06868 0.00255889)
(-0.249272 1.07026 0.00217669)
(-0.206342 1.0498 0.00180193)
(-0.164902 1.00583 0.00144016)
(-0.125688 0.936667 0.0010978)
(-0.0895989 0.840333 0.000782715)
(-0.0576195 0.714545 0.000503482)
(-0.0310881 0.556716 0.000271774)
(-0.0112396 0.36391 9.84622e-05)
(-0.000456419 0.133032 5.74273e-06)
(-0.741864 -0.152058 0.00647639)
(-0.710564 0.0388564 0.00620323)
(-0.676959 0.214386 0.00590992)
(-0.641186 0.374429 0.00559769)
(-0.603397 0.518806 0.00526785)
(-0.563768 0.647233 0.00492195)
(-0.52249 0.759388 0.00456165)
(-0.479786 0.85483 0.0041889)
(-0.435919 0.933019 0.003806)
(-0.391188 0.993316 0.00341554)
(-0.345947 1.03496 0.00302062)
(-0.300593 1.05707 0.00262472)
(-0.255602 1.05859 0.00223197)
(-0.211526 1.0383 0.0018472)
(-0.16901 0.994763 0.00147603)
(-0.128798 0.9263 0.00112497)
(-0.0918073 0.830971 0.000802008)
(-0.0590371 0.706523 0.000515869)
(-0.0318536 0.550408 0.000278466)
(-0.0115179 0.359739 0.0001009)
(-0.00046838 0.131481 5.89094e-06)
(-0.76622 -0.15046 0.00668903)
(-0.733032 0.0383275 0.00639939)
(-0.697623 0.211907 0.00609034)
(-0.660125 0.370174 0.00576304)
(-0.620682 0.512949 0.00541876)
(-0.579467 0.639949 0.00505901)
(-0.536665 0.750855 0.00468542)
(-0.492497 0.845228 0.00429989)
(-0.447223 0.922535 0.0039047)
(-0.40114 0.982143 0.00350243)
(-0.354599 1.0233 0.00309617)
(-0.308001 1.04514 0.0026894)
(-0.261822 1.04661 0.00228629)
(-0.21662 1.0265 0.00189168)
(-0.173046 0.983412 0.00151129)
(-0.131856 0.915676 0.00115168)
(-0.0939779 0.821381 0.00082097)
(-0.0604306 0.698307 0.000528046)
(-0.0326061 0.543947 0.000285045)
(-0.0117914 0.355467 0.000103296)
(-0.000480131 0.129892 6.03659e-06)
(-0.790027 -0.149282 0.00689687)
(-0.755003 0.0373872 0.00659121)
(-0.717838 0.209025 0.00626683)
(-0.678659 0.365524 0.00592485)
(-0.637603 0.506705 0.00556649)
(-0.59484 0.632286 0.00519324)
(-0.550551 0.74195 0.00480665)
(-0.504952 0.835263 0.00440864)
(-0.458302 0.911696 0.00400143)
(-0.410894 0.970625 0.0035876)
(-0.363082 1.01131 0.00317024)
(-0.315265 1.03288 0.00275283)
(-0.267923 1.03431 0.00233956)
(-0.221617 1.01441 0.00193532)
(-0.177007 0.971787 0.00154588)
(-0.134856 0.904801 0.00117788)
(-0.0961079 0.811566 0.000839577)
(-0.0617981 0.689901 0.000539995)
(-0.0333446 0.537338 0.000291501)
(-0.0120598 0.351097 0.000105647)
(-0.000491653 0.128267 6.17942e-06)
(-0.81321 -0.148507 0.00709927)
(-0.776412 0.0360511 0.00677812)
(-0.737549 0.205753 0.00643891)
(-0.69674 0.360492 0.00608271)
(-0.65412 0.500086 0.0057107)
(-0.609854 0.624255 0.00532432)
(-0.564118 0.732684 0.00492511)
(-0.517126 0.824944 0.00451493)
(-0.469134 0.900512 0.00409601)
(-0.420435 0.958769 0.00367091)
(-0.371381 0.998984 0.00324271)
(-0.322374 1.0203 0.00281491)