/*--------------------------------*- C++ -*----------------------------------*\
| =========                 |                                                 |
| \\      /  F ield         | OpenFOAM: The Open Source CFD Toolbox           |
|  \\    /   O peration     | Version:  v2012                                 |
|   \\  /    A nd           | Website:  www.openfoam.com                      |
|    \\/     M anipulation  |                                                 |
\*---------------------------------------------------------------------------*/
FoamFile
{
    version     2.0;
    format      ascii;
    class       volScalarField;
    location    "0.6";
    object      alpha.water;
}
// * * * * * * * * * * * * * * * * * * * * * * * * * * * * * * * * * * * * * //

dimensions      [0 0 0 0 0 0 0];


internalField   nonuniform List<scalar> 
20000
(
1.00003
1
0.999988
1
0.999991
0.999829
0.99895
0.998148
0.99826
0.999395
0.992042
0.840529
0.364404
0.043873
0.00125358
1.55633e-05
1.19174e-07
4.54652e-10
2.99098e-13
3.49101e-17
8.1771e-20
1.56887e-22
2.41904e-25
2.90218e-28
2.57145e-31
1.53756e-34
5.13778e-38
4.84904e-42
5.35809e-58
7.5137e-91
4.7636e-95
5.30044e-99
4.22262e-101
5.19346e-98
5.70041e-95
5.91248e-92
1.87726e-88
3.0041e-86
3.52387e-71
8.77968e-69
9.13193e-68
3.32823e-184
2.86463e-270
0
0
0
0
0
0
0
1.7276e-300
1.57092e-297
1.77994e-294
2.5266e-291
4.53549e-288
1.04562e-284
3.18017e-281
1.34162e-277
8.75998e-274
1.22512e-269
1.00003
1
0.999988
1
0.999991
0.999828
0.998879
0.997867
0.997845
0.999312
0.995695
0.877861
0.423384
0.0587178
0.00184899
2.3448e-05
1.81894e-07
7.09518e-10
6.92506e-13
4.61259e-16
1.11795e-19
2.12951e-22
3.249e-25
3.83489e-28
3.31138e-31
1.89627e-34
5.81657e-38
3.83076e-42
1.13711e-59
8.26044e-91
4.78749e-95
5.23946e-99
9.97046e-105
6.04181e-111
1.53813e-110
3.43071e-108
-3.84782e-105
5.89437e-86
2.55875e-84
9.75468e-83
2.08986e-81
5.56872e-159
2.27882e-268
0
0
1.40589e-299
1.30652e-297
1.60441e-295
2.51519e-293
4.94348e-291
1.20811e-288
3.66362e-286
1.38091e-283
6.50592e-281
3.8706e-278
2.95726e-275
2.98611e-272
4.2e-269
9.18452e-266
4.2872e-262
1.00002
1
0.999989
0.999999
0.999989
0.999824
0.998854
0.997699
0.997585
0.998898
0.996958
0.895492
0.457258
0.068871
0.00229935
2.92876e-05
2.25935e-07
8.59618e-10
7.6974e-13
4.75743e-16
1.43344e-19
2.72776e-22
4.13655e-25
4.81516e-28
4.04841e-31
2.20336e-34
6.02788e-38
1.88534e-42
2.11823e-59
8.92778e-91
5.37697e-95
4.57212e-99
9.82959e-105
6.06022e-111
1.79203e-115
1.76631e-112
9.6159e-113
9.94761e-111
1.59206e-104
2.1021e-103
1.86858e-119
1.12933e-157
9.26039e-267
8.84802e-297
2.23444e-295
8.9495e-294
5.03656e-292
3.73807e-290
3.53779e-288
4.19238e-286
6.16589e-284
1.12262e-281
2.53397e-279
7.13283e-277
2.53168e-274
1.15387e-271
6.96307e-269
5.8769e-266
7.75292e-263
2.15472e-259
1.00002
1
0.999991
0.999997
0.999987
0.999822
0.998823
0.997494
0.99728
0.998676
0.997998
0.913763
0.496488
0.0819313
0.00292525
3.74147e-05
2.86197e-07
1.06272e-09
8.83858e-13
4.8191e-16
1.83927e-19
3.47585e-22
5.19706e-25
5.89921e-28
4.74723e-31
2.38235e-34
5.37629e-38
-3.74204e-51
-3.35394e-59
9.43713e-91
5.65655e-95
3.89802e-99
8.23544e-105
8.80473e-111
1.73564e-117
8.57853e-119
3.74938e-116
1.21011e-107
5.60088e-105
1.07358e-103
1.282e-102
1.1463e-156
2.4836e-265
4.28106e-292
7.95312e-291
2.3118e-289
9.3865e-288
5.01267e-286
3.4079e-284
2.8965e-282
3.04995e-280
3.96776e-278
6.38623e-276
1.27959e-273
3.22916e-271
1.04622e-268
4.4926e-266
2.70451e-263
2.55074e-260
5.03145e-257
1.00002
1
0.999991
0.999997
0.999986
0.999817
0.998775
0.997284
0.99696
0.998404
0.998627
0.929185
0.534669
0.0963409
0.00368111
4.72321e-05
3.56776e-07
1.28795e-09
9.83789e-13
3.18224e-16
2.24456e-19
4.20652e-22
6.18016e-25
6.7916e-28
5.15465e-31
2.30573e-34
3.76997e-38
-7.60093e-44
-3.23692e-59
1.08514e-90
5.8985e-95
3.28017e-99
7.0329e-105
1.14075e-110
1.73443e-117
8.19744e-126
3.46421e-117
5.32864e-113
2.03456e-111
5.43094e-110
7.84925e-109
7.58335e-156
4.87748e-264
3.42712e-288
5.09438e-287
1.17048e-285
3.73416e-284
1.56209e-282
8.30249e-281
5.50728e-279
4.51797e-277
4.57089e-275
5.71154e-273
8.87142e-271
1.73379e-268
4.3491e-266
1.44679e-263
6.75713e-261
4.95068e-258
7.55154e-255
1.00002
1
0.999991
0.999997
0.999985
0.999808
0.998701
0.99705
0.99661
0.998125
0.998977
0.942679
0.572934
0.11259
0.00461367
5.9399e-05
4.41339e-07
1.54547e-09
1.10395e-12
-4.88404e-16
-1.32139e-18
-2.26928e-21
-3.416e-24
-4.30252e-27
-4.2889e-30
-3.07647e-33
-1.33109e-36
-1.88009e-40
2.54317e-87
1.08119e-90
6.0355e-95
2.71641e-99
6.20792e-105
1.37644e-110
1.74804e-117
8.19728e-126
4.53206e-133
4.58227e-133
3.74963e-129
3.79501e-129
4.69521e-125
3.6608e-155
7.43411e-263
9.05448e-285
1.131e-283
2.15972e-282
5.69365e-281
1.96187e-279
8.57041e-278
4.66429e-276
3.1341e-274
2.59285e-272
2.64528e-270
3.35041e-268
5.33472e-266
1.08991e-263
2.95409e-261
1.12519e-258
6.72855e-256
8.35137e-253
1.00001
1
0.999992
0.999996
0.999984
0.999799
0.998614
0.996797
0.996228
0.997833
0.999107
0.954295
0.610718
0.130665
0.00575202
7.43769e-05
5.41589e-07
1.83547e-09
1.201e-12
-6.32734e-16
-1.73889e-18
-3.02706e-21
-4.55577e-24
-5.68119e-27
-5.47507e-30
-3.58202e-33
-1.32442e-36
-3.9169e-41
2.54723e-87
1.18659e-90
6.08533e-95
2.22834e-99
5.74177e-105
1.53602e-110
2.11047e-117
8.89722e-126
4.39262e-133
1.76573e-131
2.54288e-130
4.95348e-129
5.26632e-128
1.37949e-154
9.14049e-262
1.11883e-281
1.21216e-280
1.98792e-279
4.47644e-278
1.31326e-276
4.8737e-275
2.24924e-273
1.27953e-271
8.94845e-270
7.70694e-268
8.23115e-266
1.1043e-263
1.90034e-261
4.33921e-259
1.39325e-256
7.02691e-254
7.34037e-251
1.00001
1
0.999993
0.999995
0.999983
0.999787
0.998522
0.99653
0.995801
0.997501
0.999136
0.964281
0.647873
0.150657
0.00713467
9.27513e-05
6.59174e-07
2.15193e-09
1.22534e-12
-8.41725e-16
-2.1275e-18
-3.7485e-21
-5.63736e-24
-6.83116e-27
-6.1297e-30
-3.69631e-33
-1.0266e-36
-2.86285e-46
2.5547e-87
1.25413e-90
6.09133e-95
1.82283e-99
5.55941e-105
1.61274e-110
3.08742e-117
8.90449e-126
8.09893e-137
6.1803e-135
1.69657e-133
3.15816e-132
3.10193e-131
4.2484e-154
9.32706e-261
7.91834e-279
7.60639e-278
1.09617e-276
2.15809e-275
5.51798e-274
1.7808e-272
7.13435e-271
3.5177e-269
2.1293e-267
1.58533e-265
1.46222e-263
1.69294e-261
2.51329e-259
4.9511e-257
1.37205e-254
5.97438e-252
5.37996e-249
1.00001
1
0.999994
0.999994
0.999982
0.99979
0.998493
0.996268
0.995322
0.9971
0.999136
0.972777
0.68406
0.172555
0.00879815
0.000115072
7.94431e-07
2.47724e-09
1.14415e-12
-1.08168e-15
-2.53487e-18
-4.51819e-21
-6.60528e-24
-7.66788e-27
-6.52345e-30
-3.37217e-33
-5.37184e-37
1.191e-71
2.5854e-87
1.31921e-90
6.0552e-95
1.50592e-99
5.52321e-105
1.63247e-110
4.33114e-117
8.58171e-126
2.29414e-138
1.99156e-148
9.75357e-148
6.09648e-147
2.83321e-146
1.10546e-153
2.04575e-247
3.65249e-276
3.16118e-275
4.07121e-274
7.12923e-273
1.61648e-271
4.61623e-270
1.63366e-268
7.105e-267
3.78862e-265
2.4821e-263
2.01267e-261
2.0473e-259
2.66937e-257
4.61826e-255
1.12423e-252
4.30092e-250
3.39904e-247
1.00001
1
0.999996
0.999993
0.999982
0.999791
0.998447
0.996031
0.994798
0.996634
0.999132
0.979854
0.718816
0.196214
0.0107729
0.000141765
9.45451e-07
2.77338e-09
9.16981e-13
-1.3588e-15
-2.92434e-18
-5.0596e-21
-7.29296e-24
-8.12703e-27
-6.23622e-30
-2.54387e-33
-3.91007e-39
2.68414e-83
2.7429e-87
1.37613e-90
5.94066e-95
1.27944e-99
5.79118e-105
1.63097e-110
5.33605e-117
7.75223e-126
2.30105e-138
1.11196e-148
2.52471e-148
5.82413e-148
1.26482e-147
2.49197e-153
4.59541e-208
1.19904e-273
9.46456e-273
1.10338e-271
1.74137e-270
3.54832e-269
9.08746e-268
2.87943e-266
1.1197e-264
5.33198e-263
3.11642e-261
2.25258e-259
2.04126e-257
2.37016e-255
3.65139e-253
7.9157e-251
2.69699e-248
1.89672e-245
1.00001
1
0.999996
0.999992
0.999983
0.999801
0.998451
0.995834
0.994236
0.996113
0.999002
0.985541
0.751556
0.221304
0.0130739
0.000172982
1.10713e-06
2.96479e-09
5.02755e-13
-1.61583e-15
-3.26754e-18
-5.59455e-21
-7.72495e-24
-7.95552e-27
-5.26125e-30
-1.44981e-33
-2.2111e-45
2.65806e-83
2.77188e-87
1.42375e-90
5.75819e-95
1.14005e-99
7.33769e-105
1.58676e-110
5.88369e-117
6.82025e-126
2.29054e-138
8.0458e-149
1.5174e-148
1.8957e-148
1.44749e-148
4.9618e-153
2.15083e-206
2.98326e-271
2.16829e-270
2.31135e-269
3.32189e-268
6.14748e-267
1.42705e-265
4.09212e-264
1.43821e-262
6.18315e-261
3.25965e-259
2.12353e-257
1.73338e-255
1.81234e-253
2.51372e-251
4.90626e-249
1.50502e-246
9.5233e-244
1
1
0.999997
0.99999
0.999984
0.999817
0.998526
0.995677
0.993645
0.99555
0.99873
0.989917
0.781676
0.247298
0.0156917
0.000208423
1.27017e-06
3.02183e-09
-1.48427e-14
-1.6638e-15
-3.40713e-18
-5.62095e-21
-7.29119e-24
-6.72386e-27
-3.57746e-30
-3.91888e-34
2.6776e-70
2.6281e-83
2.81923e-87
1.46061e-90
5.52769e-95
1.07494e-99
1.05858e-104
1.48193e-110
6.05722e-117
6.12847e-126
2.43213e-138
5.99342e-149
1.09884e-148
1.24682e-148
7.97093e-149
8.86105e-153
4.97096e-205
5.89487e-269
3.97556e-268
3.90655e-267
5.15584e-266
8.73961e-265
1.85482e-263
4.85558e-262
1.55602e-260
6.09333e-259
2.92343e-257
1.73202e-255
1.28509e-253
1.22086e-251
1.53833e-249
2.72749e-247
7.59987e-245
4.36595e-242
1
1
0.999997
0.99999
0.999984
0.99983
0.998595
0.995547
0.993026
0.99496
0.99844
0.993148
0.80867
0.27349
0.0185818
0.000247123
1.41833e-06
2.85423e-09
-9.6098e-14
-1.6706e-15
-3.31936e-18
-5.19344e-21
-6.15968e-24
-4.90922e-27
-1.87487e-30
-1.29906e-37
1.50825e-79
2.66223e-83
2.8658e-87
1.48436e-90
5.26501e-95
1.05762e-99
1.49968e-104
1.33842e-110
6.07162e-117
5.77888e-126
3.28982e-138
4.42645e-149
8.03794e-149
8.47216e-149
4.39332e-149
1.43696e-152
7.57579e-204
9.58856e-267
6.03846e-266
5.5063e-265
6.71953e-264
1.05066e-262
2.05323e-261
4.9424e-260
1.45471e-258
5.22716e-257
2.29935e-255
1.2482e-253
8.48134e-252
7.3764e-250
8.50715e-248
1.38039e-245
3.51969e-243
1.84945e-240
1
1.00001
0.999998
0.99999
0.999984
0.999841
0.998658
0.995417
0.99238
0.994352
0.998151
0.995445
0.832198
0.299036
0.0216553
0.000287225
1.52771e-06
2.44272e-09
-1.97504e-13
-1.58905e-15
-3.01941e-18
-4.37727e-21
-4.68799e-24
-3.03271e-27
-5.73602e-31
-7.534e-46
1.64204e-79
2.72066e-83
2.91777e-87
1.49409e-90
4.98405e-95
1.07059e-99
1.98808e-104
1.1821e-110
5.90378e-117
5.68577e-126
4.95266e-138
3.22507e-149
5.92049e-149
6.00892e-149
2.53037e-149
2.1376e-152
8.57664e-203
1.32061e-264
7.80724e-264
6.64338e-263
7.53945e-262
1.09383e-260
1.98009e-259
4.40941e-258
1.19936e-256
3.97906e-255
1.61488e-253
8.08303e-252
5.06176e-250
4.05581e-248
4.30836e-246
6.43812e-244
1.51156e-241
7.31066e-239
1
1.00001
0.999997
0.99999
0.999983
0.999851
0.998711
0.995265
0.991701
0.993729
0.997854
0.997006
0.852097
0.322995
0.0247729
0.000325877
1.57084e-06
1.94253e-09
-3.07568e-13
-1.43609e-15
-2.55021e-18
-3.4506e-21
-3.14307e-24
-1.45708e-27
-1.38914e-33
3.61701e-76
1.63049e-79
2.76303e-83
2.97364e-87
1.49528e-90
4.69825e-95
1.28705e-99
2.46846e-104
1.03283e-110
5.40166e-117
5.88425e-126
6.74417e-138
2.3013e-149
4.36005e-149
4.45001e-149
1.58199e-149
2.94173e-152
7.7031e-202
1.57532e-262
8.78229e-262
7.00665e-261
7.43108e-260
1.00535e-258
1.69443e-257
3.50877e-256
8.86596e-255
2.73022e-253
1.02776e-251
4.7689e-250
2.76719e-248
2.0538e-246
2.02036e-244
2.79533e-242
6.07547e-240
2.71914e-237
0.999997
1.00001
0.999997
0.99999
0.999983
0.99986
0.998754
0.995082
0.990986
0.993089
0.997543
0.997968
0.868337
0.344378
0.0277464
0.000358918
1.55758e-06
1.23481e-09
-4.23044e-13
-1.23057e-15
-2.07469e-18
-2.45389e-21
-1.81475e-24
-4.75538e-28
-1.04705e-43
3.61547e-76
1.60842e-79
2.81607e-83
3.03418e-87
1.48926e-90
4.42083e-95
1.96984e-99
2.88705e-104
9.05808e-111
4.69996e-117
7.98304e-126
7.94046e-138
1.59218e-149
3.17457e-149
3.41794e-149
1.14761e-149
3.77218e-152
5.7237e-201
1.65802e-260
8.75052e-260
6.57227e-259
6.54138e-258
8.28805e-257
1.30627e-255
2.52657e-254
5.95747e-253
1.71062e-251
6.00053e-250
2.5931e-248
1.40074e-246
9.67495e-245
8.85474e-243
1.13959e-240
2.30345e-238
9.58429e-236
0.999996
1.00001
0.999996
0.99999
0.999983
0.999868
0.998783
0.994865
0.990237
0.992429
0.997269
0.998358
0.880968
0.362179
0.030343
0.000381615
1.49203e-06
4.8959e-10
-3.79976e-13
-1.03277e-15
-1.55328e-18
-1.59359e-21
-8.81733e-25
-2.8847e-29
4.74966e-73
3.62836e-76
1.59607e-79
2.87229e-83
3.09971e-87
1.47309e-90
4.16486e-95
3.18061e-99
3.18804e-104
8.11836e-111
3.99161e-117
1.28128e-125
8.43115e-138
1.05349e-149
2.24608e-149
2.6709e-149
9.97863e-150
4.53486e-152
3.62256e-200
1.5636e-258
7.83879e-258
5.56223e-257
5.21434e-256
6.21043e-255
9.18808e-254
1.66637e-252
3.68101e-251
9.89476e-250
3.2473e-248
1.31224e-246
6.62572e-245
4.27622e-243
3.65602e-241
4.39446e-239
8.294e-237
3.22126e-234
0.999994
1.00001
0.999995
0.99999
0.999983
0.999874
0.998806
0.994621
0.989445
0.991747
0.997048
0.998429
0.890014
0.375544
0.0323423
0.000390221
1.37082e-06
7.2585e-11
-3.38048e-13
-8.22757e-16
-1.11636e-18
-9.53621e-22
-3.30819e-25
-1.23836e-42
4.679e-73
3.64274e-76
1.58426e-79
2.93447e-83
3.17094e-87
1.44855e-90
3.9433e-95
4.79995e-99
3.34174e-104
7.55793e-111
3.40725e-117
1.84377e-125
8.49795e-138
6.54706e-150
1.5043e-149
2.05125e-149
9.79371e-150
5.13854e-152
1.99536e-199
1.33847e-256
6.39314e-256
4.2992e-255
3.80824e-254
4.27768e-253
5.96052e-252
1.01708e-250
2.11208e-249
5.33346e-248
1.64338e-246
6.23209e-245
2.95178e-243
1.78648e-241
1.43192e-239
1.61318e-237
2.85304e-235
1.03797e-232
0.999994
1.00001
0.999995
0.99999
0.999983
0.999879
0.998812
0.994351
0.988601
0.991046
0.996828
0.998429
0.895382
0.38353
0.0334814
0.000392157
1.16356e-06
1.51026e-11
-2.94889e-13
-6.52111e-16
-7.79131e-19
-5.21357e-22
-6.25074e-26
3.0643e-59
4.62598e-73
3.66742e-76
1.57522e-79
3.00258e-83
3.24872e-87
1.41789e-90
3.7686e-95
6.66054e-99
3.3816e-104
7.33455e-111
3.01559e-117
2.27265e-125
8.25656e-138
3.74262e-150
9.16424e-150
1.46509e-149
9.57151e-150
5.51384e-152
9.72503e-199
1.05161e-254
4.79838e-254
3.0665e-253
2.57395e-252
2.73467e-251
3.59945e-250
5.79606e-249
1.13494e-247
2.70069e-246
7.83738e-245
2.79792e-243
1.24706e-241
7.10012e-240
5.35214e-238
5.66929e-236
9.425e-234
3.22209e-231
0.999993
1.00001
0.999994
0.999989
0.999982
0.999881
0.998819
0.994056
0.98769
0.990333
0.996608
0.998426
0.89791
0.387372
0.0339888
0.000386217
8.67338e-07
1.24543e-11
-2.56439e-13
-5.09607e-16
-5.22661e-19
-2.45844e-22
-6.58805e-29
2.96081e-59
4.58998e-73
3.70019e-76
1.56955e-79
3.07757e-83
3.33425e-87
1.38338e-90
3.65115e-95
8.60165e-99
3.37527e-104
7.29331e-111
2.8247e-117
2.48585e-125
7.64401e-138
1.94475e-150
4.78137e-150
8.88608e-150
8.01029e-150
5.62611e-152
4.24951e-198
7.65611e-253
3.34517e-252
2.03666e-251
1.62404e-250
1.63623e-249
2.03975e-248
3.10788e-247
5.75399e-246
1.29381e-244
3.546e-243
1.19505e-241
5.02649e-240
2.69979e-238
1.91937e-236
1.91697e-234
3.00408e-232
9.67739e-230
0.999993
1.00001
0.999994
0.999989
0.999981
0.999881
0.998799
0.993708
0.986703
0.989616
0.99642
0.998419
0.898682
0.388502
0.0341043
0.000356627
5.23468e-07
9.79879e-12
-2.2297e-13
-3.85633e-16
-3.31085e-19
-8.43755e-23
1.58163e-52
2.92531e-59
4.58377e-73
3.74344e-76
1.56732e-79
3.16039e-83
3.42901e-87
1.3474e-90
3.59254e-95
1.04736e-98
3.2898e-104
8.02661e-111
2.77395e-117
2.53733e-125
6.96379e-138
9.61893e-151
1.9831e-150
3.85788e-150
4.51286e-150
5.47902e-152
1.68278e-197
5.20825e-251
2.18374e-250
1.26947e-249
9.63861e-249
9.23033e-248
1.09239e-246
1.57869e-245
2.7703e-244
5.90059e-243
1.53116e-241
4.88367e-240
1.94332e-238
9.87172e-237
6.63569e-235
6.26461e-233
9.2773e-231
2.82323e-228
0.999992
1.00001
0.999995
0.999989
0.99998
0.999877
0.998773
0.993285
0.985631
0.988903
0.99627
0.998409
0.897863
0.385907
0.0332933
0.000305117
2.32627e-07
7.39418e-12
-1.81599e-13
-2.79663e-16
-1.91003e-19
-2.9347e-24
1.727e-52
2.90179e-59
4.57792e-73
3.79803e-76
1.57029e-79
3.25232e-83
3.53494e-87
1.31249e-90
3.57565e-95
1.21185e-98
3.10973e-104
1.16022e-110
2.88923e-117
2.52243e-125
6.62863e-138
5.47494e-151
7.09188e-151
8.69866e-151
6.93923e-151
5.10939e-152
6.09298e-197
3.33494e-249
1.34443e-248
7.47756e-248
5.41708e-247
4.94125e-246
5.56355e-245
7.64277e-244
1.27397e-242
2.57611e-241
6.34342e-240
1.91914e-238
7.24122e-237
3.48687e-235
2.22117e-233
1.98668e-231
2.78657e-229
8.02886e-227
0.999993
1.00001
0.999996
0.999988
0.999979
0.999873
0.998736
0.992782
0.984467
0.988197
0.996154
0.998395
0.892665
0.374835
0.0308881
0.000243659
7.77968e-08
5.42356e-12
-1.43768e-13
-1.92037e-16
-9.31787e-20
-1.68954e-26
1.74749e-52
2.8933e-59
4.69971e-73
3.86567e-76
1.58073e-79
3.35495e-83
3.65442e-87
1.28131e-90
3.63908e-95
1.33526e-98
2.86603e-104
1.85686e-110
4.24378e-117
2.39919e-125
6.60298e-138
4.14911e-151
4.32622e-151
4.40035e-151
2.75553e-151
4.57602e-152
2.03249e-196
2.02314e-247
7.8556e-247
4.18798e-246
2.9003e-245
2.52473e-244
2.70977e-243
3.5454e-242
5.62498e-241
1.08203e-239
2.53348e-238
7.28534e-237
2.61191e-235
1.19468e-233
7.22687e-232
6.13658e-230
8.16913e-228
2.23309e-225
0.999992
1.00001
0.999997
0.999988
0.999978
0.999872
0.998666
0.99219
0.98321
0.987497
0.996067
0.998374
0.883169
0.356999
0.0276096
0.000183516
3.50658e-08
-6.63417e-12
-1.08508e-13
-1.22765e-16
-3.13981e-20
4.2976e-46
1.78987e-52
2.8944e-59
4.58346e-73
3.94821e-76
1.59838e-79
3.47029e-83
3.79048e-87
1.25674e-90
3.9894e-95
1.40321e-98
2.59349e-104
2.78639e-110
7.9723e-117
2.22524e-125
7.75553e-138
3.46987e-151
2.98276e-151
2.93589e-151
1.8004e-151
3.94643e-152
6.28681e-196
1.16959e-245
4.38116e-245
2.24261e-244
1.48722e-243
1.23769e-242
1.26854e-241
1.58363e-240
2.39579e-239
4.39219e-238
9.79677e-237
2.68273e-235
9.15594e-234
3.98554e-232
2.29377e-230
1.85256e-228
2.34498e-226
6.09288e-224
0.999993
1.00001
0.999997
0.999987
0.999975
0.999869
0.998573
0.99151
0.981861
0.986792
0.996014
0.998334
0.870258
0.33543
0.0240781
0.00013048
2.27134e-08
-9.30565e-12
-7.83612e-14
-7.03719e-17
-1.02673e-21
6.63778e-46
1.83538e-52
2.94001e-59
4.60842e-73
4.04797e-76
1.62523e-79
3.60084e-83
3.94687e-87
1.24149e-90
4.57864e-95
1.42276e-98
2.32324e-104
3.83584e-110
1.35091e-116
2.1056e-125
1.4028e-137
3.1556e-151
2.08681e-151
2.03742e-151
1.26581e-151
3.28504e-152
1.81332e-195
6.47733e-244
2.34419e-243
1.15392e-242
7.33959e-242
5.84892e-241
5.73393e-240
6.84127e-239
9.88546e-238
1.73012e-236
3.68249e-235
9.61925e-234
3.13062e-232
1.29912e-230
7.12563e-229
5.48322e-227
6.61094e-225
1.63546e-222
0.999993
1.00001
0.999999
0.999986
0.999973
0.999864
0.998463
0.990754
0.980425
0.986067
0.995993
0.998002
0.854211
0.311122
0.0205242
8.68303e-05
1.40777e-08
-1.08411e-11
-5.2686e-14
-3.27241e-17
-1.10571e-22
4.63915e-46
1.89124e-52
3.0143e-59
4.87159e-73
4.16777e-76
1.66303e-79
3.74975e-83
4.12825e-87
1.23583e-90
5.38996e-95
1.4212e-98
2.08372e-104
4.90077e-110
1.94072e-116
2.06544e-125
2.50627e-137
3.15796e-151
1.45851e-151
1.42581e-151
9.06569e-152
2.64483e-152
4.90111e-195
3.45296e-242
1.20898e-241
5.73113e-241
3.50151e-240
2.67593e-239
2.513e-238
2.86996e-237
3.96708e-236
6.63853e-235
1.35045e-233
3.37028e-232
1.04762e-230
4.15089e-229
2.17327e-227
1.59588e-225
1.83556e-223
4.33029e-221
0.999993
1.00001
0.999999
0.999985
0.999972
0.999856
0.998338
0.989941
0.978909
0.985298
0.995967
0.996707
0.834779
0.284631
0.0171097
5.35138e-05
7.70783e-09
-1.02553e-11
-3.12272e-14
-8.96877e-18
-3.72857e-24
4.76621e-46
1.95725e-52
3.10485e-59
4.76387e-73
4.31112e-76
1.7139e-79
3.92091e-83
4.34049e-87
1.24031e-90
6.53148e-95
1.38981e-98
1.89961e-104
5.87192e-110
2.43139e-116
2.1185e-125
3.6789e-137
3.48477e-151
1.01123e-151
9.92893e-152
6.46171e-152
2.06332e-152
1.24674e-194
1.77961e-240
6.03561e-240
2.7591e-239
1.62141e-238
1.18996e-237
1.07202e-236
1.17354e-235
1.55398e-234
2.48996e-233
4.84809e-232
1.15764e-230
3.44184e-229
1.30401e-227
6.52653e-226
4.58007e-224
5.03279e-222
1.13384e-219
0.999997
1.00001
1
0.999984
0.999971
0.999847
0.998211
0.989086
0.977318
0.984466
0.995823
0.994925
0.81177
0.256724
0.0140074
3.02299e-05
3.53585e-09
-7.72185e-12
-1.47644e-14
-3.75162e-19
4.17403e-38
4.88239e-46
2.03536e-52
3.22734e-59
4.96561e-73
4.48233e-76
1.78045e-79
4.11923e-83
4.59092e-87
1.2889e-90
8.09462e-95
1.32366e-98
1.78719e-104
6.65062e-110
2.73244e-116
3.08092e-125
4.64118e-137
4.19001e-151
6.93279e-152
6.85247e-152
4.56579e-152
1.56218e-152
2.9964e-194
8.90345e-239
2.92835e-238
1.29251e-237
7.31523e-237
5.16236e-236
4.4672e-235
4.6937e-234
5.96204e-233
9.15937e-232
1.70921e-230
3.9102e-229
1.11348e-227
4.03931e-226
1.93518e-224
1.29956e-222
1.3661e-220
2.94306e-218
0.999998
1.00001
1
0.999983
0.999971
0.999836
0.998076
0.988236
0.975658
0.98356
0.99559
0.992849
0.785107
0.228372
0.0113464
1.5455e-05
1.20637e-09
-4.92602e-12
-4.41252e-15
-6.65603e-20
4.26537e-38
5.04274e-46
2.12747e-52
3.38942e-59
5.11866e-73
4.68678e-76
1.86592e-79
4.35083e-83
4.8888e-87
1.36539e-90
1.01302e-94
1.23269e-98
1.74363e-104
7.16872e-110
2.84118e-116
6.06419e-125
5.38344e-137
5.38205e-151
4.68611e-152
4.66671e-152
3.18077e-152
1.1494e-152
6.82758e-194
4.34044e-237
1.3859e-236
5.91301e-236
3.22694e-235
2.1924e-234
1.82455e-233
1.84228e-232
2.24751e-231
3.31463e-230
5.93551e-229
1.30258e-227
3.55709e-226
1.23709e-224
5.68027e-223
3.65486e-221
3.67995e-219
7.59047e-217
1
1.00001
1
0.999983
0.999971
0.999836
0.997957
0.987324
0.973932
0.98257
0.995333
0.990164
0.754785
0.200594
0.00918304
7.05386e-06
1.77768e-10
-2.30089e-12
-1.91882e-16
-2.44336e-21
4.57366e-38
5.25354e-46
2.23611e-52
3.5945e-59
5.33887e-73
4.93116e-76
1.97433e-79
4.62345e-83
5.24591e-87
1.48694e-90
1.26843e-94
1.12714e-98
1.73926e-104
7.4093e-110
2.85031e-116
1.076e-124
6.13277e-137
7.24575e-151
3.11632e-152
3.12614e-152
2.17556e-152
8.2275e-153
1.47956e-193
2.06917e-235
6.42032e-235
2.65078e-234
1.39647e-233
9.14458e-233
7.32737e-232
7.11814e-231
8.34991e-230
1.18354e-228
2.03613e-227
4.29144e-226
1.12514e-224
3.75575e-223
1.65472e-221
1.02131e-219
9.86085e-218
1.94961e-215
1
1.00001
1
0.999983
0.999972
0.99984
0.997841
0.986573
0.972153
0.98149
0.995035
0.986536
0.720957
0.174338
0.00750881
3.15855e-06
2.34769e-11
-6.61424e-13
-1.58779e-17
1.16173e-28
4.90354e-38
5.51979e-46
2.36441e-52
3.8508e-59
5.6058e-73
5.22385e-76
2.11079e-79
4.94685e-83
5.67731e-87
1.6763e-90
1.57966e-94
1.01648e-98
2.03654e-104
7.45568e-110
2.77766e-116
1.59988e-124
7.49927e-137
1.00816e-150
2.03625e-152
2.0568e-152
1.45884e-152
5.73461e-153
3.05792e-193
9.67869e-234
2.92104e-233
1.16826e-232
5.94747e-232
3.7578e-231
2.90225e-230
2.71546e-229
3.0662e-228
4.18163e-227
6.91892e-226
1.40204e-224
3.53304e-223
1.13318e-221
4.79575e-220
2.84241e-218
2.63452e-216
4.99814e-214
1
1.00001
1
0.999983
0.999974
0.99986
0.997835
0.985579
0.970328
0.980319
0.994686
0.98172
0.684047
0.150412
0.00626898
1.80645e-06
-3.73047e-13
4.31329e-14
-1.13018e-18
1.31947e-28
5.2155e-38
5.85126e-46
2.51624e-52
4.16957e-59
5.93983e-73
5.57537e-76
2.28179e-79
5.3335e-83
6.20244e-87
1.95261e-90
1.94883e-94
9.10262e-99
3.35414e-104
7.39944e-110
2.62446e-116
2.06586e-124
1.13792e-136
1.43736e-150
1.30588e-152
1.32766e-152
9.58222e-153
3.89472e-153
6.04308e-193
4.45662e-232
1.30937e-231
5.07764e-231
2.50049e-230
1.52594e-229
1.1371e-228
1.02575e-227
1.11606e-226
1.46595e-225
2.33523e-224
4.55429e-223
1.10418e-221
3.40637e-220
1.38619e-218
7.89753e-217
7.03394e-215
1.28179e-212
1
1.00001
1
0.999984
0.999977
0.999889
0.997835
0.985206
0.968444
0.979036
0.994275
0.975483
0.644803
0.129418
0.00538535
1.08331e-06
8.87929e-11
1.36901e-13
2.66287e-21
1.41516e-28
5.62135e-38
6.26235e-46
2.69646e-52
4.5642e-59
6.35184e-73
5.99904e-76
2.49569e-79
5.79942e-83
6.84662e-87
2.34894e-90
2.3765e-94
8.18488e-99
6.17493e-104
7.26102e-110
2.48875e-116
2.407e-124
2.15118e-136
2.09075e-150
8.21172e-153
8.39994e-153
6.16096e-153
2.5787e-153
1.14459e-192
2.02646e-230
5.80068e-230
2.18309e-229
1.04092e-228
6.14121e-228
4.41973e-227
3.84767e-226
4.03786e-225
5.11318e-224
7.84948e-223
1.47475e-221
3.44342e-220
1.02273e-218
4.00568e-217
2.19583e-215
1.88109e-213
3.2957e-211
1.00001
1.00001
1
0.999985
0.99998
0.999918
0.998098
0.984318
0.966457
0.977633
0.993778
0.967614
0.604303
0.111701
0.00476976
1.1243e-06
4.09887e-10
1.45091e-13
4.02093e-21
1.54408e-28
6.0893e-38
6.77022e-46
2.91115e-52
5.05192e-59
6.8569e-73
6.51176e-76
2.7633e-79
6.36535e-83
7.6431e-87
2.90518e-90
2.86241e-94
7.50771e-99
1.07952e-103
7.15459e-110
2.42787e-116
2.62102e-124
3.98272e-136
3.09783e-150
5.05848e-153
5.20467e-153
3.87517e-153
1.665e-153
2.08224e-192
9.12798e-229
2.54756e-228
9.31286e-228
4.30324e-227
2.45674e-226
1.70915e-225
1.43727e-224
1.45613e-223
1.7793e-222
2.63472e-221
4.77307e-220
1.07427e-218
3.07464e-217
1.16009e-215
6.12428e-214
5.05078e-212
8.51534e-210
1.00001
1.00001
1
0.999986
0.999982
0.999953
0.998441
0.984183
0.964347
0.976091
0.993158
0.957995
0.563911
0.0972936
0.00435531
2.87086e-06
4.45138e-10
1.51468e-13
5.19131e-21
1.68907e-28
6.65007e-38
7.39671e-46
3.16792e-52
5.65514e-59
7.47803e-73
7.13515e-76
3.09872e-79
7.05835e-83
8.63588e-87
3.67302e-90
3.40612e-94
7.13027e-99
1.74905e-103
7.11616e-110
2.42522e-116
2.75778e-124
6.29786e-136
4.67551e-150
3.04985e-153
3.15564e-153
2.38309e-153
1.04854e-153
3.64551e-192
4.08577e-227
1.1126e-226
3.95381e-226
1.77202e-225
9.79795e-225
6.59504e-224
5.36184e-223
5.24886e-222
6.19439e-221
8.85521e-220
1.54819e-218
3.3617e-217
9.27946e-216
3.37574e-214
1.71768e-212
1.36492e-210
2.21626e-208
1.00001
1.00001
1
0.999987
0.999984
0.999969
0.99892
0.984293
0.962117
0.974359
0.992382
0.946659
0.525117
0.0860654
0.00403669
3.56711e-06
4.61956e-10
1.59816e-13
7.08003e-21
1.8605e-28
7.31901e-38
8.1703e-46
3.47634e-52
6.40272e-59
8.14707e-73
7.89704e-76
3.52041e-79
7.91415e-83
9.88379e-87
4.71671e-90
4.00783e-94
7.00857e-99
2.62766e-103
7.53354e-110
3.18413e-116
2.90031e-124
8.46398e-136
7.19306e-150
1.7982e-153
1.87076e-153
1.43201e-153
6.44064e-154
6.15349e-192
1.82315e-225
4.84722e-225
1.6758e-224
7.29072e-224
3.90752e-223
2.54688e-222
2.00358e-221
1.89675e-220
2.16367e-219
2.98858e-218
5.0467e-217
1.05808e-215
2.81916e-214
9.89618e-213
4.85738e-211
3.72196e-209
5.82511e-207
1.00001
1.00001
1
0.999987
0.999985
0.999977
0.999475
0.985554
0.959785
0.972366
0.991514
0.933894
0.489482
0.0773638
0.00374571
4.20969e-06
4.85483e-10
1.68089e-13
9.72453e-21
2.06236e-28
8.12235e-38
9.12779e-46
3.84851e-52
7.33206e-59
8.70502e-73
8.83349e-76
4.05273e-79
8.98023e-83
1.14661e-86
6.11509e-90
4.66946e-94
7.1656e-99
3.67716e-103
9.83083e-110
7.36294e-116
3.27185e-124
1.01275e-135
1.12878e-149
1.03593e-153
1.08356e-153
8.40315e-154
3.85827e-154
1.00311e-191
8.13696e-224
2.11354e-223
7.11396e-223
3.00671e-222
1.56326e-221
9.87444e-221
7.52249e-220
6.89229e-219
7.60569e-218
1.01585e-216
1.65819e-215
3.35938e-214
8.64641e-213
2.93102e-211
1.38882e-209
1.02696e-207
1.55036e-205
1.00001
1.00001
1
0.999986
0.99999
0.999982
0.999655
0.987798
0.957376
0.970066
0.990639
0.920485
0.457947
0.0703912
0.00347201
5.05006e-06
5.07978e-10
1.77267e-13
1.34955e-20
2.30213e-28
9.09153e-38
1.03169e-45
4.29975e-52
8.49177e-59
1.10502e-72
9.99149e-76
4.72798e-79
1.03204e-82
1.34903e-86
7.9638e-90
5.39591e-94
1.01908e-98
4.83239e-103
1.65479e-109
1.80557e-115
4.83194e-124
1.14285e-135
1.80735e-149
5.82629e-154
6.12719e-154
4.81237e-154
2.25363e-154
1.58166e-191
3.64509e-222
9.25532e-222
3.03508e-221
1.24712e-220
6.29493e-220
3.85638e-219
2.84717e-218
2.52667e-217
2.69929e-216
3.4889e-215
5.50908e-214
1.0793e-212
2.68545e-211
8.79742e-210
4.0271e-208
2.87576e-206
4.19079e-204
1.00001
1.00001
1
0.999986
0.999995
0.99999
0.999753
0.990289
0.954965
0.967482
0.989714
0.907538
0.430654
0.0643727
0.00323055
6.01102e-06
5.32293e-10
1.87453e-13
1.88028e-20
2.58858e-28
1.02668e-37
1.17995e-45
4.84947e-52
9.94514e-59
1.15839e-72
1.14328e-75
5.58916e-79
1.2021e-82
1.61039e-86
1.03783e-89
6.19689e-94
2.22247e-98
6.01969e-103
3.2856e-109
3.66587e-115
1.03913e-123
1.31288e-135
2.95234e-149
3.19641e-154
3.37988e-154
2.68787e-154
1.2831e-154
2.41569e-191
1.64508e-220
4.08557e-220
1.30617e-219
5.22164e-219
2.56066e-218
1.52255e-217
1.09022e-216
9.37785e-216
9.70617e-215
1.21493e-213
1.85713e-212
3.52093e-211
8.47493e-210
2.68495e-208
1.1882e-206
8.19983e-205
1.15428e-202
1.00002
1.00001
1
0.999985
0.999997
0.999995
0.999915
0.99391
0.952562
0.964785
0.988686
0.895593
0.406742
0.0592937
0.00301936
7.12725e-06
5.59012e-10
1.989e-13
2.62156e-20
2.93289e-28
1.16993e-37
1.36567e-45
5.52245e-52
1.17748e-58
1.39093e-72
1.32389e-75
6.69381e-79
1.42003e-82
1.951e-86
1.3498e-89
7.08969e-94
5.12915e-98
7.17008e-103
6.52831e-109
6.17781e-115
2.41811e-123
1.86303e-135
4.91966e-149
1.70913e-154
1.81732e-154
1.46315e-154
7.11787e-155
3.57857e-191
7.51045e-219
1.82535e-218
5.69302e-218
2.21574e-217
1.05642e-216
6.10095e-216
4.23993e-215
3.53763e-214
3.54984e-213
4.30606e-212
6.3764e-211
1.17069e-209
2.72785e-208
8.36331e-207
3.58044e-205
2.38945e-203
3.25132e-201
1.00002
1.00001
1
0.999987
0.999997
0.999994
0.999993
0.994968
0.950389
0.962066
0.987556
0.884225
0.385742
0.0550232
0.00283676
8.42637e-06
5.88994e-10
2.11914e-13
3.64771e-20
3.34912e-28
1.3454e-37
1.59945e-45
6.3503e-52
1.40887e-58
1.62368e-72
1.55183e-75
8.11926e-79
1.70213e-82
2.39908e-86
1.74925e-89
8.10393e-94
1.07124e-97
8.23092e-103
1.19387e-108
8.95868e-115
4.82914e-123
4.48139e-135
8.36638e-149
8.89942e-155
9.517e-155
7.75679e-155
3.84534e-155
5.14824e-191
3.48399e-217
8.29083e-217
2.52413e-216
9.57076e-216
4.43949e-215
2.49194e-214
1.68197e-213
1.36218e-212
1.32611e-211
1.55997e-210
2.23927e-209
3.9839e-208
8.99244e-207
2.66977e-205
1.10642e-203
7.14506e-202
9.4037e-200
1.00002
1.00001
1
0.999988
0.999996
0.999992
0.999998
0.996679
0.94808
0.959668
0.98638
0.872749
0.366901
0.0514081
0.00268065
9.93439e-06
6.23521e-10
2.26796e-13
5.05515e-20
3.85499e-28
1.5614e-37
1.89517e-45
7.37352e-52
1.70281e-58
1.94023e-72
1.84165e-75
9.96981e-79
2.0711e-82
2.99407e-86
2.25693e-89
9.28995e-94
1.99496e-97
9.17822e-103
1.97215e-108
1.15889e-114
8.01853e-123
1.34563e-134
1.45411e-148
4.50873e-155
4.85005e-155
4.00176e-155
2.02196e-155
7.20094e-191
1.65023e-215
3.84699e-215
1.14396e-214
4.22848e-214
1.90954e-213
1.04248e-212
6.8385e-212
5.37935e-211
5.08406e-210
5.80351e-209
8.08086e-208
1.39404e-206
3.05006e-205
8.77435e-204
3.52222e-202
2.2024e-200
2.80536e-198
1.00002
1.00001
1.00001
0.999986
0.999996
0.999993
0.999998
0.996758
0.94495