/*--------------------------------*- C++ -*----------------------------------*\
| =========                 |                                                 |
| \\      /  F ield         | OpenFOAM: The Open Source CFD Toolbox           |
|  \\    /   O peration     | Version:  v2012                                 |
|   \\  /    A nd           | Website:  www.openfoam.com                      |
|    \\/     M anipulation  |                                                 |
\*---------------------------------------------------------------------------*/
FoamFile
{
    version     2.0;
    format      ascii;
    class       surfaceScalarField;
    location    "0.1";
    object      phi;
}
// * * * * * * * * * * * * * * * * * * * * * * * * * * * * * * * * * * * * * //

dimensions      [0 3 -1 0 0 0 0];
oriented        oriented;


internalField   nonuniform List<scalar> 
8162
(
-1.52987e-08
-1.22122e-07
-1.63144e-15
-1.6989e-08
-1.23617e-07
-1.68278e-15
-1.86568e-08
-1.24721e-07
-1.3873e-15
-2.03011e-08
-1.25407e-07
-1.22322e-15
-2.19189e-08
-1.25651e-07
-1.13501e-15
-2.35059e-08
-1.25378e-07
-1.0349e-15
-2.5057e-08
-1.24526e-07
-8.9892e-16
-2.65658e-08
-1.23021e-07
-8.12719e-16
-2.80255e-08
-1.20779e-07
-6.50175e-16
-2.94283e-08
-1.17747e-07
-4.91714e-16
-3.07656e-08
-1.13833e-07
-2.3052e-16
-3.2028e-08
-1.08981e-07
-5.40377e-16
-3.32056e-08
-1.03123e-07
-5.16566e-16
-3.42877e-08
-9.61934e-08
-5.34775e-16
-3.52626e-08
-8.8134e-08
-5.55957e-16
-3.61181e-08
-7.88897e-08
-5.55143e-16
-3.6841e-08
-6.84148e-08
-5.45759e-16
-3.74178e-08
-5.6665e-08
-5.137e-16
-3.78347e-08
-4.36117e-08
-4.61444e-16
-2.92351e-08
-4.0334e-16
-1.29301e-08
-1.15796e-07
-1.53757e-15
-1.47349e-08
-1.18375e-07
-1.44956e-15
-1.64954e-08
-1.20362e-07
-1.25124e-15
-1.82199e-08
-1.21892e-07
-1.51992e-15
-1.99127e-08
-1.23028e-07
-1.33333e-15
-2.15748e-08
-1.23745e-07
-1.17717e-15
-2.32046e-08
-1.24021e-07
-1.07886e-15
-2.47987e-08
-1.23783e-07
-9.88339e-16
-2.63525e-08
-1.22972e-07
-8.60502e-16
-2.78604e-08
-1.21513e-07
-7.7751e-16
-2.93157e-08
-1.19323e-07
-6.22647e-16
-3.07112e-08
-1.16352e-07
-4.68084e-16
-3.20383e-08
-1.12506e-07
-2.20144e-16
-3.32877e-08
-1.07732e-07
-5.38154e-16
-3.445e-08
-1.01961e-07
-5.01802e-16
-3.55143e-08
-9.51292e-08
-5.19798e-16
-3.6469e-08
-8.71793e-08
-5.38354e-16
-3.73021e-08
-7.80568e-08
-5.36377e-16
-3.80004e-08
-6.77164e-08
-5.23684e-16
-3.85504e-08
-5.61149e-08
-4.8968e-16
-3.89382e-08
-4.32238e-08
-4.38252e-16
-2.9024e-08
-3.80195e-16
1.04153e-10
-3.41483e-10
-9.58742e-14
2.40222e-09
-9.75589e-09
6.39772e-15
3.27238e-09
-3.0319e-08
3.39551e-15
3.8078e-09
-2.87438e-08
1.80188e-14
6.95532e-09
-2.80217e-08
-1.67804e-14
9.31609e-09
-4.48288e-08
1.12049e-14
1.33865e-08
-8.83174e-08
2.16942e-14
1.5184e-08
-1.39521e-07
7.04564e-16
1.36515e-08
-1.66903e-07
-2.70453e-14
-1.64685e-07
5.2625e-15
-3.49505e-09
-8.27769e-08
-6.71629e-15
-5.68306e-09
-9.14496e-08
-1.93221e-15
-7.85165e-09
-9.93134e-08
-3.35577e-15
-9.96352e-09
-1.05619e-07
-3.23489e-15
-1.19898e-08
-1.10344e-07
-1.87071e-15
-1.3929e-08
-1.13856e-07
-2.46682e-15
-1.57946e-08
-1.1651e-07
-2.03649e-15
-1.76016e-08
-1.18555e-07
-1.63869e-15
-1.93615e-08
-1.20132e-07
-1.74486e-15
-2.10812e-08
-1.21309e-07
-1.52225e-15
-2.27633e-08
-1.22063e-07
-1.32626e-15
-2.44076e-08
-1.22377e-07
-1.17698e-15
-2.60116e-08
-1.22179e-07
-1.02697e-15
-2.75714e-08
-1.21412e-07
-8.69537e-16
-2.90815e-08
-1.20003e-07
-7.71782e-16
-3.05359e-08
-1.17869e-07
-6.1156e-16
-3.19274e-08
-1.1496e-07
-4.57038e-16
-3.32476e-08
-1.11186e-07
-2.18942e-16
-3.44875e-08
-1.06491e-07
-5.42261e-16
-3.56376e-08
-1.00811e-07
-4.91408e-16
-3.66873e-08
-9.40796e-08
-5.0722e-16
-3.7625e-08
-8.62416e-08
-5.24917e-16
-3.84386e-08
-7.72432e-08
-5.22548e-16
-3.91151e-08
-6.70399e-08
-5.08462e-16
-3.9641e-08
-5.55889e-08
-4.73429e-16
-4.00024e-08
-4.28625e-08
-4.22317e-16
-2.88417e-08
-3.64153e-16
7.08233e-11
-4.12341e-10
-1.01157e-13
1.64585e-09
-1.13309e-08
-1.29151e-14
2.26392e-09
-3.0937e-08
-2.847e-15
3.57714e-09
-3.00569e-08
3.87382e-14
6.7901e-09
-3.12347e-08
6.86473e-15
1.04038e-08
-4.84425e-08
2.79767e-14
1.73185e-08
-9.52321e-08
7.80881e-15
1.97498e-08
-1.41953e-07
-8.62243e-15
1.72654e-08
-1.64418e-07
-3.29377e-14
1.13038e-08
-1.58723e-07
4.57029e-15
2.73999e-09
-1.17021e-07
-3.60154e-14
-1.10061e-09
-7.27614e-08
-2.18134e-14
-3.77833e-09
-8.00992e-08
-7.08261e-15
-6.16084e-09
-8.90671e-08
-2.28435e-15
-8.47146e-09
-9.70027e-08
-2.69504e-15
-1.06962e-08
-1.03394e-07
-2.91123e-15
-1.28146e-08
-1.08226e-07
-1.85434e-15
-1.48282e-08
-1.11843e-07
-2.31842e-15
-1.67529e-08
-1.14585e-07
-1.82465e-15
-1.86065e-08
-1.16701e-07
-1.40036e-15
-2.04031e-08
-1.18336e-07
-1.49166e-15
-2.21515e-08
-1.1956e-07
-1.29492e-15
-2.38563e-08
-1.20359e-07
-1.14512e-15
-2.55182e-08
-1.20715e-07
-1.05255e-15
-2.71355e-08
-1.20562e-07
-9.4351e-16
-2.87048e-08
-1.19843e-07
-8.10723e-16
-3.02211e-08
-1.18486e-07
-7.31928e-16
-3.16785e-08
-1.16412e-07
-5.8555e-16
-3.30699e-08
-1.13569e-07
-4.41833e-16
-3.43872e-08
-1.09869e-07
-2.22994e-16
-3.56214e-08
-1.05257e-07
-5.47107e-16
-3.67631e-08
-9.96691e-08
-4.82366e-16
-3.78017e-08
-9.3041e-08
-4.95748e-16
-3.87258e-08
-8.53175e-08
-5.132e-16
-3.95233e-08
-7.64458e-08
-5.10811e-16
-4.01812e-08
-6.6382e-08
-4.95997e-16
-4.0686e-08
-5.5084e-08
-4.60386e-16
-4.10238e-08
-4.25247e-08
-4.0934e-16
-2.86856e-08
-3.51147e-16
9.25669e-11
-5.04938e-10
-8.69677e-14
1.15288e-09
-1.23912e-08
-2.48162e-14
1.53351e-09
-3.13176e-08
8.29692e-15
2.776e-09
-3.12994e-08
4.84428e-14
4.93208e-09
-3.33907e-08
1.46111e-14
1.02095e-08
-5.372e-08
1.30279e-14
1.89241e-08
-1.03946e-07
5.07111e-15
2.10168e-08
-1.44046e-07
-1.56109e-14
1.77356e-08
-1.61137e-07
-2.06367e-14
1.0894e-08
-1.51882e-07
-6.03893e-15
2.13981e-09
-1.08267e-07
-4.12395e-14
-1.28715e-09
-6.93344e-08
-1.80985e-15
-4.05837e-09
-7.7328e-08
1.76919e-15
-6.58468e-09
-8.65408e-08
-1.47057e-15
-9.01362e-09
-9.45738e-08
-2.23404e-15
-1.13373e-08
-1.01071e-07
-2.15288e-15
-1.35384e-08
-1.06025e-07
-1.43127e-15
-1.56209e-08
-1.0976e-07
-1.45479e-15
-1.76022e-08
-1.12604e-07
-1.74625e-15
-1.95019e-08
-1.14801e-07
-1.49752e-15
-2.13361e-08
-1.16502e-07
-1.63361e-15
-2.31155e-08
-1.17781e-07
-1.38906e-15
-2.48456e-08
-1.18628e-07
-1.19721e-15
-2.65285e-08
-1.19032e-07
-1.07672e-15
-2.8163e-08
-1.18928e-07
-9.48681e-16
-2.97459e-08
-1.1826e-07
-7.99545e-16
-3.12726e-08
-1.1696e-07
-7.18862e-16
-3.27372e-08
-1.14947e-07
-5.74823e-16
-3.41329e-08
-1.12174e-07
-4.36274e-16
-3.54515e-08
-1.0855e-07
-2.32985e-16
-3.66842e-08
-1.04024e-07
-5.53588e-16
-3.78215e-08
-9.85317e-08
-4.74849e-16
-3.88531e-08
-9.20095e-08
-4.85294e-16
-3.97674e-08
-8.44032e-08
-5.02379e-16
-4.05524e-08
-7.56609e-08
-4.99952e-16
-4.11952e-08
-6.57392e-08
-4.84621e-16
-4.16821e-08
-5.45969e-08
-4.48602e-16
-4.19995e-08
-4.22074e-08
-3.97182e-16
-4.21323e-08
-2.85527e-08
-3.38006e-16
-1.36302e-08
-2.76741e-16
1.07061e-10
-6.1199e-10
-4.76926e-14
8.65301e-10
-1.31494e-08
-2.59584e-14
1.06811e-09
-3.15204e-08
1.1483e-14
1.61015e-09
-3.18414e-08
3.87668e-14
3.03799e-09
-3.48185e-08
1.32276e-14
1.04749e-08
-6.11569e-08
4.34499e-15
1.91298e-08
-1.12601e-07
2.25229e-15
2.00307e-08
-1.44947e-07
-8.88977e-15
1.61006e-08
-1.57207e-07
-1.09519e-14
9.22006e-09
-1.45001e-07
-9.41392e-15
1.23474e-09
-1.00282e-07
-4.02283e-14
-1.62442e-09
-6.64753e-08
-5.87967e-15
-4.34512e-09
-7.46073e-08
2.05741e-15
-6.95478e-09
-8.39311e-08
-1.28009e-15
-9.47404e-09
-9.20545e-08
-2.45795e-15
-1.18812e-08
-9.86636e-08
-2.80319e-15
-1.41553e-08
-1.03751e-07
-1.88389e-15
-1.63013e-08
-1.07614e-07
-1.86813e-15
-1.83366e-08
-1.10569e-07
-1.88241e-15
-2.0282e-08
-1.12856e-07
-1.35906e-15
-2.21548e-08
-1.14629e-07
-1.49473e-15
-2.39672e-08
-1.15968e-07
-1.27963e-15
-2.57258e-08
-1.1687e-07
-1.12155e-15
-2.74331e-08
-1.17325e-07
-1.03171e-15
-2.90886e-08
-1.17272e-07
-9.10813e-16
-3.06894e-08
-1.16659e-07
-7.72313e-16
-3.22309e-08
-1.15418e-07
-6.97718e-16
-3.37073e-08
-1.13471e-07
-5.5957e-16
-3.51118e-08
-1.10769e-07
-4.26969e-16
-3.64363e-08
-1.07226e-07
-2.37238e-16
-3.76718e-08
-1.02789e-07
-5.56409e-16
-3.88092e-08
-9.73943e-08
-4.66974e-16
-3.98378e-08
-9.09809e-08
-4.75495e-16
-4.07463e-08
-8.34948e-08
-4.9283e-16
-4.15227e-08
-7.48846e-08
-4.90629e-16
-4.2154e-08
-6.51079e-08
-4.75015e-16
-4.26267e-08
-5.41241e-08
-4.38676e-16
-4.2927e-08
-4.19071e-08
-3.87027e-16
-4.30399e-08
-2.84396e-08
-3.27025e-16
-1.37192e-08
-2.60846e-16
9.86677e-11
-7.10662e-10
-6.10553e-14
6.59782e-10
-1.37105e-08
-1.82625e-14
7.67677e-10
-3.16283e-08
1.81838e-14
6.58927e-10
-3.17327e-08
1.21071e-14
2.57185e-09
-3.67314e-08
8.33794e-15
1.13887e-08
-6.99739e-08
-2.53681e-14
1.85397e-08
-1.19752e-07
7.24691e-15
1.80184e-08
-1.44425e-07
-8.13719e-15
1.3688e-08
-1.52877e-07
-1.44331e-14
7.30716e-09
-1.3862e-07
-2.54704e-14
4.04442e-10
-9.33794e-08
-5.45799e-14
-2.02029e-09
-6.40505e-08
-7.04708e-15
-4.62881e-09
-7.19987e-08
2.05486e-15
-7.2674e-09
-8.12925e-08
-1.51329e-15
-9.84831e-09
-8.94736e-08
-2.45795e-15
-1.23228e-08
-9.61891e-08
-2.72083e-15
-1.46611e-08
-1.01412e-07
-1.27189e-15
-1.68655e-08
-1.0541e-07
-1.38475e-15
-1.89525e-08
-1.08482e-07
-1.77189e-15
-2.09433e-08
-1.10865e-07
-1.23985e-15
-2.28559e-08
-1.12716e-07
-1.50358e-15
-2.47035e-08
-1.14121e-07
-1.30098e-15
-2.64934e-08
-1.1508e-07
-1.14097e-15
-2.82287e-08
-1.15589e-07
-1.03966e-15
-2.99092e-08
-1.15592e-07
-9.02563e-16
-3.15321e-08
-1.15036e-07
-7.64076e-16
-3.30928e-08
-1.13857e-07
-6.88178e-16
-3.45855e-08
-1.11978e-07
-5.5078e-16
-3.60034e-08
-1.09351e-07
-4.20019e-16
-3.73383e-08
-1.05891e-07
-2.36271e-16
-3.85812e-08
-1.01545e-07
-5.56563e-16
-3.9723e-08
-9.62526e-08
-4.59398e-16
-4.07529e-08
-8.9951e-08
-4.67063e-16
-4.16598e-08
-8.25879e-08
-4.85005e-16
-4.24315e-08
-7.41129e-08
-4.83186e-16
-4.30552e-08
-6.44842e-08
-4.6726e-16
-4.35172e-08
-5.36619e-08
-4.30549e-16
-4.38039e-08
-4.16205e-08
-3.78119e-16
-4.39002e-08
-2.83431e-08
-3.17128e-16
-4.3792e-08
-1.38278e-08
-2.4772e-16
1.8991e-09
-1.80932e-16
1.12199e-10
-8.22871e-10
-5.91912e-14
5.43947e-10
-1.41422e-08
-1.39487e-14
5.90348e-10
-3.16746e-08
1.95032e-14
3.32064e-10
-3.14744e-08
-1.03572e-14
3.58909e-09
-3.99884e-08
1.29658e-14
1.22815e-08
-7.86664e-08
-2.6727e-14
1.75374e-08
-1.25008e-07
-5.44889e-15
1.58123e-08
-1.427e-07
-4.94446e-16
1.13367e-08
-1.48401e-07
-1.37909e-14
5.6787e-09
-1.32962e-07
-3.91541e-14
-2.44766e-10
-8.74559e-08
-5.23941e-14
-2.41012e-09
-6.18852e-08
-8.34775e-15
-4.89656e-09
-6.95123e-08
1.52382e-15
-7.52212e-09
-7.8667e-08
-1.12428e-15
-1.01365e-08
-8.68592e-08
-2.1739e-15
-1.26615e-08
-9.36642e-08
-2.72325e-15
-1.50547e-08
-9.90191e-08
-1.23725e-15
-1.73125e-08
-1.03152e-07
-1.35633e-15
-1.94492e-08
-1.06345e-07
-1.84082e-15
-2.14851e-08
-1.08829e-07
-1.23654e-15
-2.34387e-08
-1.10763e-07
-1.49373e-15
-2.53235e-08
-1.12236e-07
-1.2672e-15
-2.71475e-08
-1.13256e-07
-1.10468e-15
-2.89142e-08
-1.13823e-07
-1.00837e-15
-3.06233e-08
-1.13883e-07
-8.72911e-16
-3.22723e-08
-1.13387e-07
-7.47367e-16
-3.38565e-08
-1.12273e-07
-6.72816e-16
-3.537e-08
-1.10465e-07
-5.3722e-16
-3.68057e-08
-1.07916e-07
-4.0733e-16
-3.81555e-08
-1.04541e-07
-2.25814e-16
-3.94103e-08
-1.00291e-07
-5.51863e-16
-4.05608e-08
-9.5102e-08
-4.51076e-16
-4.15963e-08
-8.89154e-08
-4.59528e-16
-4.25057e-08
-8.16786e-08
-4.7875e-16
-4.32768e-08
-7.33419e-08
-4.77467e-16
-4.38967e-08
-6.38643e-08
-4.61134e-16
-4.43518e-08
-5.32066e-08
-4.23918e-16
-4.46284e-08
-4.13439e-08
-3.70141e-16
-4.47116e-08
-2.82597e-08
-3.07924e-16
-4.45871e-08
-1.39526e-08
-2.36636e-16
1.55113e-09
-1.64722e-16
1.25368e-10
-9.48272e-10
-3.73535e-14
4.83335e-10
-1.45002e-08
-2.72965e-15
4.40332e-10
-3.16316e-08
1.47601e-14
4.68263e-10
-3.15024e-08
-1.38121e-14
5.14016e-09
-4.46603e-08
9.90822e-15
1.27975e-08
-8.63237e-08
-2.72236e-15
1.63541e-08
-1.28565e-07
-3.84746e-15
1.37511e-08
-1.40097e-07
-1.21648e-15
9.31606e-09
-1.43966e-07
-1.73922e-14
4.39911e-09
-1.28045e-07
-4.33451e-14
-7.63305e-10
-8.22936e-08
-5.39391e-14
-2.76793e-09
-5.98805e-08
-3.98125e-15
-5.13915e-09
-6.7141e-08
1.29572e-16
-7.72216e-09
-7.6084e-08
-1.37856e-15
-1.03438e-08
-8.42375e-08
-2.08376e-15
-1.29014e-08
-9.11066e-08
-2.88243e-15
-1.53392e-08
-9.65813e-08
-1.17369e-15
-1.76451e-08
-1.00846e-07
-1.35802e-15
-1.9829e-08
-1.04161e-07
-1.74298e-15
-2.19096e-08
-1.06749e-07
-1.1035e-15
-2.39051e-08
-1.08767e-07
-1.43953e-15
-2.58289e-08
-1.10312e-07
-1.22155e-15
-2.76895e-08
-1.11395e-07
-1.07012e-15
-2.94904e-08
-1.12022e-07
-9.79091e-16
-3.12317e-08
-1.12141e-07
-8.47256e-16
-3.29104e-08
-1.11708e-07
-7.29591e-16
-3.4522e-08
-1.10662e-07
-6.57378e-16
-3.60603e-08
-1.08926e-07
-5.23425e-16
-3.7518e-08
-1.06458e-07
-3.93947e-16
-3.8887e-08
-1.03172e-07
-2.11428e-16
-4.01579e-08
-9.90194e-08
-5.44666e-16
-4.13213e-08
-9.39385e-08
-4.42722e-16
-4.23667e-08
-8.787e-08
-4.53173e-16
-4.32826e-08
-8.07628e-08
-4.74082e-16
-4.4057e-08
-7.25676e-08
-4.73421e-16
-4.4677e-08
-6.32443e-08
-4.56466e-16
-4.51289e-08
-5.27545e-08
-4.18368e-16
-4.53991e-08
-4.10737e-08
-3.62842e-16
-4.54726e-08
-2.81861e-08
-2.98907e-16
-4.53351e-08
-1.40903e-08
-2.2509e-16
1.18699e-09
-1.50664e-16
1.16715e-10
-1.06499e-09
-3.61216e-14
4.32353e-10
-1.48158e-08
-5.72004e-15
2.43361e-10
-3.14426e-08
1.02187e-14
6.78976e-10
-3.1938e-08
-1.44579e-14
6.30252e-09
-5.02839e-08
-9.88368e-15
1.2759e-08
-9.27801e-08
1.75254e-14
1.49587e-08
-1.30764e-07
3.53614e-15
1.18429e-08
-1.36982e-07
-1.24042e-14
7.59297e-09
-1.39716e-07
-2.44093e-14
3.36439e-09
-1.23817e-07
-4.70972e-14
-1.19232e-09
-7.77369e-08
-5.15128e-14
-3.08747e-09
-5.79854e-08
-3.09003e-15
-5.35191e-09
-6.48766e-08
1.56572e-16
-7.87315e-09
-7.35627e-08
-1.10549e-15
-1.04789e-08
-8.16318e-08
-1.96194e-15
-1.30513e-08
-8.85342e-08
-2.535e-15
-1.55223e-08
-9.41102e-08
-9.43348e-16
-1.78695e-08
-9.84991e-08
-1.24405e-15
-2.00975e-08
-1.01933e-07
-1.56688e-15
-2.22218e-08
-1.04624e-07
-9.98227e-16
-2.42595e-08
-1.0673e-07
-1.36235e-15
-2.62236e-08
-1.08348e-07
-1.13978e-15
-2.81227e-08
-1.09496e-07
-9.96362e-16
-2.99604e-08
-1.10184e-07
-9.22054e-16
-3.17365e-08
-1.10365e-07
-7.98035e-16
-3.34483e-08
-1.09997e-07
-6.96183e-16
-3.50906e-08
-1.09019e-07
-6.29986e-16
-3.66573e-08
-1.0736e-07
-5.01511e-16
-3.8141e-08
-1.04974e-07
-3.74938e-16
-3.9533e-08
-1.0178e-07
-1.95625e-16
-4.08239e-08
-9.77283e-08
-5.35161e-16
-4.20043e-08
-9.27581e-08
-4.34839e-16
-4.30634e-08
-8.6811e-08
-4.48201e-16
-4.39898e-08
-7.98364e-08
-4.71046e-16
-4.47713e-08
-7.17862e-08
-4.70876e-16
-4.53951e-08
-6.26206e-08
-4.52936e-16
-4.58474e-08
-5.23019e-08
-4.13601e-16
-4.61147e-08
-4.08064e-08
-3.55924e-16
-4.6182e-08
-2.81187e-08
-2.8981e-16
-4.6035e-08
-1.42376e-08
-2.12968e-16
8.09895e-10
-1.37475e-16
1.15223e-10
-1.1802e-09
-4.30363e-14
4.01141e-10
-1.51017e-08
-3.8948e-15
4.75593e-11
-3.1089e-08
7.16945e-15
9.19169e-10
-3.28096e-08
-1.82787e-14
6.8497e-09
-5.62145e-08
-2.54259e-14
1.21642e-08
-9.80946e-08
1.46437e-14
1.33419e-08
-1.31942e-07
-1.6693e-14
1.00387e-08
-1.33678e-07
-4.28418e-15
6.08535e-09
-1.35763e-07
-2.771e-14
2.4908e-09
-1.20222e-07
-4.33707e-14
-1.56846e-09
-7.36776e-08
-4.91783e-14
-3.37157e-09
-5.61823e-08
-4.19567e-15
-5.5354e-09
-6.27127e-08
4.71904e-16
-7.9827e-09
-7.11154e-08
-7.40457e-16
-1.05532e-08
-7.90613e-08
-1.60697e-15
-1.31232e-08
-8.59642e-08
-1.92478e-15
-1.56148e-08
-9.16186e-08
-1.00707e-15
-1.79956e-08
-9.61183e-08
-1.39568e-15
-2.02632e-08
-9.96653e-08
-1.55482e-15
-2.24293e-08
-1.02458e-07
-9.56423e-16
-2.45086e-08
-1.04651e-07
-1.29956e-15
-2.65136e-08
-1.06343e-07
-1.08087e-15
-2.84525e-08
-1.07558e-07
-9.58788e-16
-3.03286e-08
-1.08308e-07
-8.94001e-16
-3.21418e-08
-1.08552e-07
-7.77969e-16
-3.3889e-08
-1.08249e-07
-6.79806e-16
-3.5565e-08
-1.07343e-07
-6.11936e-16
-3.71633e-08
-1.05761e-07
-4.83782e-16
-3.86761e-08
-1.03462e-07
-3.58124e-16
-4.00945e-08
-1.00362e-07
-1.82384e-16
-4.14091e-08
-9.64135e-08
-5.25328e-16
-4.26101e-08
-9.15571e-08
-4.27702e-16
-4.36865e-08
-8.57345e-08
-4.44436e-16
-4.4627e-08
-7.8896e-08
-4.69214e-16
-4.54193e-08
-7.0994e-08
-4.6932e-16
-4.60504e-08
-6.19895e-08
-4.50186e-16
-4.65068e-08
-5.18454e-08
-4.09308e-16
-4.67747e-08
-4.05386e-08
-3.49122e-16
-4.6839e-08
-2.80541e-08
-2.80554e-16
-4.66857e-08
-1.43912e-08
-2.00501e-16
4.23062e-10
-1.23163e-16
1.23427e-10
-1.30358e-09
-9.29815e-15
3.88286e-10
-1.53666e-08
-5.42772e-15
-4.01031e-11
-3.06607e-08
1.69479e-15
1.40371e-09
-3.42533e-08
-2.82975e-14
7.06977e-09
-6.18806e-08
-2.33263e-14
1.13227e-08
-1.02348e-07
1.601e-14
1.17191e-08
-1.32338e-07
-1.28177e-14
8.41391e-09
-1.30373e-07
-7.18253e-15
4.80102e-09
-1.3215e-07
-2.93797e-14
1.75901e-09
-1.1718e-07
-4.02043e-14
-1.90468e-09
-7.0014e-08
-4.59868e-14
-3.62545e-09
-5.44615e-08
-3.26544e-15
-5.69344e-09
-6.06447e-08
6.8276e-16
-8.05936e-09
-6.87495e-08
-7.66404e-16
-1.05791e-08
-7.65415e-08
-1.49933e-15
-1.3131e-08
-8.34123e-08
-1.75048e-15
-1.56303e-08
-8.91193e-08
-7.95168e-16
-1.80356e-08
-9.3713e-08
-1.21836e-15
-2.03372e-08
-9.73637e-08
-1.37834e-15
-2.25417e-08
-1.00254e-07
-9.02875e-16
-2.46612e-08
-1.02531e-07
-1.28075e-15
-2.67067e-08
-1.04297e-07
-1.06834e-15
-2.86856e-08
-1.05579e-07
-9.36543e-16
-3.06011e-08
-1.06392e-07
-8.55854e-16
-3.24528e-08
-1.067e-07
-7.37626e-16
-3.42374e-08
-1.06465e-07
-6.40702e-16
-3.59491e-08
-1.05631e-07
-5.75522e-16
-3.75813e-08
-1.04129e-07
-4.54856e-16
-3.91259e-08
-1.01917e-07
-3.35847e-16
-4.05737e-08
-9.89143e-08
-1.69593e-16
-4.1915e-08
-9.50721e-08
-5.15638e-16
-4.31397e-08
-9.03323e-08
-4.22422e-16
-4.42368e-08
-8.46374e-08
-4.42337e-16
-4.51947e-08
-7.79381e-08
-4.68584e-16
-4.60012e-08
-7.01877e-08
-4.68459e-16
-4.6643e-08
-6.13476e-08
-4.47804e-16
-4.71067e-08
-5.13815e-08
-4.05115e-16
-4.73784e-08
-4.02669e-08
-3.42221e-16
-4.74432e-08
-2.79892e-08
-2.71026e-16
-4.72868e-08
-1.45479e-08
-1.87688e-16
2.96439e-11
-1.08319e-16
1.19213e-10
-1.42275e-09
1.49232e-14
3.70253e-10
-1.56177e-08
1.04461e-15
2.84969e-11
-3.03189e-08
-1.90457e-15
2.17635e-09
-3.64011e-08
-1.97483e-14
7.22227e-09
-6.69266e-08
-8.441e-15
1.05427e-08
-1.05668e-07
1.63175e-14
1.03002e-08
-1.32096e-07
-9.892e-15
7.06311e-09
-1.27136e-07
-8.74431e-15
3.76531e-09
-1.28852e-07
-3.32028e-14
1.14362e-09
-1.14558e-07
-4.26924e-14
-2.20763e-09
-6.66628e-08
-3.07244e-14
-3.85448e-09
-5.28147e-08
-2.806e-15
-5.83095e-09
-5.86682e-08
1.32145e-15
-8.11132e-09
-6.64691e-08
-4.1239e-16
-1.05689e-08
-7.40839e-08
-1.12611e-15
-1.30889e-08
-8.08924e-08
-1.48481e-15
-1.55831e-08
-8.6625e-08
-7.01255e-16
-1.80031e-08
-9.1293e-08
-1.12529e-15
-2.03318e-08
-9.50349e-08
-1.26643e-15
-2.25703e-08
-9.80151e-08
-7.71817e-16
-2.47273e-08
-1.00374e-07
-1.08199e-15
-2.68118e-08
-1.02213e-07
-9.18624e-16
-2.88302e-08
-1.0356e-07
-8.5388e-16
-3.07852e-08
-1.04437e-07
-8.08369e-16
-3.2676e-08
-1.04809e-07
-7.16295e-16
-3.44987e-08
-1.04642e-07
-6.20074e-16
-3.62477e-08
-1.03882e-07
-5.5228e-16
-3.79155e-08
-1.02462e-07
-4.32892e-16
-3.94939e-08
-1.00339e-07
-3.17047e-16
-4.09734e-08
-9.74349e-08
-1.58806e-16
-4.23438e-08
-9.37015e-08
-5.0638e-16
-4.3595e-08
-8.90811e-08
-4.18122e-16
-4.47156e-08
-8.35167e-08
-4.41076e-16
-4.56939e-08
-7.69599e-08
-4.6827e-16
-4.65175e-08
-6.93642e-08
-4.67633e-16
-4.71732e-08
-6.06919e-08
-4.45273e-16
-4.76473e-08
-5.09073e-08
-4.00681e-16
-4.79261e-08
-3.99882e-08
-3.35045e-16
-4.79943e-08
-2.79207e-08
-2.61222e-16
-4.78379e-08
-1.47046e-08
-1.74647e-16
-3.67289e-10
-9.33212e-17
1.14078e-10
-1.5368e-09
1.23219e-14
3.51553e-10
-1.58552e-08
1.68017e-15
1.99275e-10
-3.01667e-08
-6.67369e-15
2.97264e-09
-3.91745e-08
-5.3899e-15
7.26876e-09
-7.12227e-08
-5.60835e-16
9.83949e-09
-1.08239e-07
-8.37094e-15
9.08184e-09
-1.31338e-07
-1.86805e-14
5.95323e-09
-1.24007e-07
-9.07127e-15
2.91937e-09
-1.25818e-07
-2.84705e-14
5.64345e-10
-1.12203e-07
-4.10106e-14
-2.49556e-09
-6.36029e-08
-2.50794e-14
-4.06626e-09
-5.1244e-08
-2.31858e-15
-5.95334e-09
-5.67812e-08
1.31549e-15
-8.14606e-09
-6.42764e-08
-4.77024e-16
-1.05334e-08
-7.16965e-08
-6.66275e-16
-1.30099e-08
-7.84158e-08
-1.40908e-15
-1.54874e-08
-8.41476e-08
-4.8554e-16
-1.7912e-08
-8.88683e-08
-9.05378e-16
-2.02601e-08
-9.26868e-08
-9.30078e-16
-2.25271e-08
-9.57481e-08
-6.28268e-16
-2.47178e-08
-9.81836e-08
-1.04862e-15
-2.68389e-08
-1.00092e-07
-9.51454e-16
-2.88953e-08
-1.01504e-07
-8.84482e-16
-3.08889e-08
-1.02444e-07
-8.02242e-16
-3.28183e-08
-1.0288e-07
-7.05904e-16
-3.46795e-08
-1.02781e-07
-5.87089e-16
-3.64662e-08
-1.02095e-07
-5.14486e-16
-3.81707e-08
-1.00757e-07
-4.01693e-16
-3.97842e-08
-9.87255e-08
-2.94076e-16
-4.1297e-08
-9.59222e-08
-1.4812e-16
-4.26985e-08
-9.22999e-08
-4.98786e-16
-4.39782e-08
-8.78013e-08
-4.16446e-16
-4.51247e-08
-8.23702e-08
-4.413e-16
-4.6126e-08
-7.59587e-08
-4.68266e-16
-4.69694e-08
-6.85209e-08
-4.66409e-16
-4.76417e-08
-6.00196e-08
-4.42145e-16
-4.81291e-08
-5.04197e-08
-3.95662e-16
-4.84177e-08
-3.96996e-08
-3.27479e-16
-4.84925e-08
-2.78458e-08
-2.51193e-16
-4.83391e-08
-1.48583e-08
-1.6163e-16
-7.64785e-10
-7.8436e-17
1.1826e-10
-1.65505e-09
2.22342e-14
3.39851e-10
-1.60769e-08
4.23731e-15
3.71484e-10
-3.01984e-08
-5.89915e-15
3.4651e-09
-4.22681e-08
2.65919e-15
7.02871e-09
-7.47864e-08
6.17153e-15
9.05424e-09
-1.10264e-07
-4.49056e-16
7.93188e-09
-1.30216e-07
-4.37655e-15
4.9644e-09
-1.2104e-07
-1.36426e-14
2.15423e-09
-1.23008e-07
-2.96647e-14
-6.70643e-11
-1.09982e-07
-3.22806e-14
-2.78438e-09
-6.08856e-08
-1.72051e-14
-4.26722e-09
-4.97612e-08
-1.69529e-15
-6.06511e-09
-5.49832e-08
2.48331e-15
-8.16946e-09
-6.21721e-08
-1.21649e-16
-1.04814e-08
-6.93846e-08
-2.58073e-16
-1.29056e-08
-7.59916e-08
-9.75304e-16
-1.5356e-08
-8.16972e-08
-5.59532e-16
-1.77757e-08
-8.64486e-08
-1.0457e-15
-2.01351e-08
-9.03274e-08
-1.1182e-15
-2.24245e-08
-9.34588e-08
-7.04242e-16
-2.46442e-08
-9.59639e-08
-8.74093e-16
-2.67984e-08
-9.79375e-08
-7.66536e-16
-2.88902e-08
-9.94121e-08
-7.65387e-16
-3.09207e-08
-1.00413e-07
-7.31566e-16
-3.28877e-08
-1.00913e-07
-6.75433e-16
-3.47867e-08
-1.00882e-07
-5.63419e-16
-3.66108e-08
-1.00271e-07
-4.88885e-16
-3.83521e-08
-9.90158e-08
-3.78291e-16
-4.00014e-08
-9.70763e-08
-2.75563e-16
-4.15484e-08
-9.43752e-08
-1.40508e-16
-4.29823e-08
-9.08658e-08
-4.93789e-16
-4.42923e-08
-8.64913e-08
-4.1638e-16
-4.54665e-08
-8.1196e-08
-4.41651e-16
-4.64927e-08
-7.49325e-08
-4.67318e-16
-4.73583e-08
-6.76554e-08
-4.63918e-16
-4.80496e-08
-5.93282e-08
-4.37844e-16
-4.85529e-08
-4.99162e-08
-3.89745e-16
-4.88541e-08
-3.93984e-08
-3.19443e-16
-4.89379e-08
-2.77617e-08
-2.41051e-16
-4.87903e-08
-1.50063e-08
-1.48901e-16
-1.16003e-09
-6.41025e-17
1.16835e-10
-1.77189e-09
2.58396e-14
3.23056e-10
-1.62831e-08
7.2707e-15
4.76153e-10
-3.03515e-08
-1.0694e-14
3.53274e-09
-4.53247e-08
1.14678e-14
6.45432e-09
-7.77079e-08
1.41009e-14
8.10896e-09
-1.11919e-07
-3.80154e-15
6.77107e-09
-1.28878e-07
-4.82006e-15
4.01497e-09
-1.18284e-07
-1.3606e-14
1.40598e-09
-1.20399e-07
-2.88095e-14
-7.39977e-10
-1.07836e-07
-3.04869e-14
-3.07404e-09
-5.85515e-08
-1.15031e-14
-4.45786e-09
-4.83774e-08
-3.02038e-15
-6.16819e-09
-5.32729e-08
2.09522e-15
-8.18508e-09
-6.01552e-08
-1.02571e-16
-1.04193e-08
-6.71504e-08
5.17101e-18
-1.27852e-08
-7.36256e-08
-7.59222e-16
-1.52003e-08
-7.92821e-08
-2.52748e-16
-1.76063e-08
-8.40426e-08
-8.05477e-16
-1.99691e-08
-8.79645e-08
-7.72041e-16
-2.22741e-08
-9.11538e-08
-5.55473e-16
-2.45176e-08
-9.37204e-08
-8.34663e-16
-2.67007e-08
-9.57544e-08
-8.02039e-16
-2.88248e-08
-9.72881e-08
-8.02531e-16
-3.08895e-08
-9.83485e-08
-7.32694e-16
-3.28921e-08
-9.89105e-08
-6.51434e-16
-3.48273e-08
-9.89467e-08
-5.29975e-16
-3.6688e-08
-9.84102e-08
-4.49455e-16
-3.84656e-08
-9.72383e-08
-3.45721e-16
-4.01505e-08
-9.53915e-08
-2.53639e-16
-4.17321e-08
-9.27937e-08
-1.35593e-16
-4.31991e-08
-8.93987e-08
-4.95129e-16
-4.45402e-08
-8.515e-08
-4.19901e-16
-4.57435e-08
-7.99928e-08
-4.42553e-16
-4.67964e-08
-7.38796e-08
-4.65251e-16
-4.76859e-08
-6.6766e-08
-4.59716e-16
-4.83983e-08
-5.86158e-08
-4.32003e-16
-4.89197e-08
-4.93947e-08
-3.82719e-16
-4.92358e-08
-3.90824e-08
-3.10928e-16
-4.93314e-08
-2.76659e-08
-2.30968e-16
-4.9192e-08
-1.51459e-08
-1.36822e-16
-1.55038e-09
-5.07409e-17
1.12211e-10
-1.88412e-09
1.21393e-14
3.0734e-10
-1.64782e-08
-8.55749e-16
5.18166e-10
-3.05624e-08
-1.06708e-14
3.28549e-09
-4.80919e-08
1.87419e-14
5.68352e-09
-8.0106e-08
-8.90016e-16
7.07406e-09
-1.1331e-07
-1.59774e-14
5.62756e-09
-1.27432e-07
-2.45717e-15
3.10384e-09
-1.1576e-07
-9.39973e-15
6.82663e-10
-1.17978e-07
-2.88813e-14
-1.40996e-09
-1.05743e-07
-2.85901e-14
-3.35227e-09
-5.66092e-08
-5.75544e-15
-4.63724e-09
-4.70925e-08
-2.59541e-15
-6.26334e-09
-5.16468e-08
1.92277e-15
-8.19529e-09
-5.82233e-08
-6.87698e-17
-1.0352e-08
-6.49937e-08
3.34968e-16
-1.26559e-08
-7.13217e-08
-6.50209e-16
-1.50295e-08
-7.69086e-08
-2.93556e-16
-1.74144e-08
-8.16577e-08
-8.54615e-16
-1.97732e-08
-8.56057e-08
-6.99384e-16
-2.20872e-08
-8.88398e-08
-4.35486e-16
-2.43488e-08
-9.14589e-08
-5.91487e-16
-2.6556e-08
-9.35471e-08
-6.16097e-16
-2.87083e-08
-9.51358e-08
-7.00745e-16
-3.08041e-08
-9.62528e-08
-6.7351e-16
-3.28395e-08
-9.6875e-08
-6.18684e-16
-3.48089e-08
-9.69774e-08
-5.05021e-16
-3.67043e-08
-9.65146e-08
-4.2076e-16
-3.8517e-08
-9.54256e-08
-3.19365e-16
-4.02368e-08
-9.36718e-08
-2.354e-16
-4.18526e-08
-9.11781e-08
-1.34995e-16
-4.33527e-08
-8.78984e-08
-5.10726e-16
-4.47255e-08
-8.37771e-08
-4.26083e-16
-4.59587e-08
-7.87596e-08
-4.41994e-16
-4.70393e-08
-7.2799e-08
-4.60458e-16
-4.79543e-08
-6.58513e-08
-4.52876e-16
-4.86895e-08
-5.78805e-08
-4.24126e-16
-4.92308e-08
-4.88532e-08
-3.74413e-16
-4.9564e-08
-3.87492e-08
-3.01979e-16
-4.96735e-08
-2.75563e-08
-2.2116e-16
-4.95448e-08
-1.52749e-08
-1.25746e-16
-1.93336e-09
-3.88247e-17
1.1317e-10
-1.9973e-09
2.7201e-15
3.02983e-10
-1.6668e-08
6.51983e-15
5.33007e-10
-3.07925e-08
-6.49254e-15
2.89951e-09
-5.04584e-08
1.21426e-14
4.88788e-09
-8.20945e-08
-3.28792e-15
6.06398e-09
-1.14486e-07
-9.59774e-15
4.57118e-09
-1.25939e-07
1.4797e-15
2.26927e-09
-1.13458e-07
-9.71263e-15
2.46682e-11
-1.15733e-07
-2.68699e-14
-2.02119e-09
-1.03697e-07
-2.66121e-14
-3.61004e-09
-5.50204e-08
-2.18871e-15
-4.80436e-09
-4.58982e-08
-1.60548e-15
-6.35103e-09
-5.01001e-08
1.90976e-15
-8.20198e-09
-5.63723e-08
-1.14677e-16
-1.0283e-08
-6.29127e-08
5.49499e-16
-1.25235e-08
-6.90811e-08
-5.16198e-16
-1.48513e-08
-7.45808e-08
-8.35941e-17
-1.72091e-08
-7.93e-08
-6.30393e-16
-1.95574e-08
-8.32573e-08
-5.34904e-16
-2.18739e-08
-8.65233e-08
-4.45682e-16
-2.41476e-08
-8.91852e-08
-6.24147e-16
-2.63738e-08
-9.13208e-08
-6.51998e-16
-2.85499e-08
-9.29598e-08
-7.16024e-16
-3.06728e-08
-9.41299e-08
-6.5506e-16
-3.27378e-08
-9.481e-08
-5.77007e-16
-3.47384e-08
-9.49768e-08
-4.63707e-16
-3.66664e-08
-9.45865e-08
-3.79104e-16
-3.85123e-08
-9.35798e-08
-2.84485e-16
-4.02656e-08
-9.19186e-08
-2.12553e-16
-4.19146e-08
-8.95291e-08
-1.35188e-16
-4.34473e-08
-8.63655e-08
-5.62865e-16
-4.48518e-08
-8.23726e-08
-4.35485e-16
-4.61152e-08
-7.74962e-08
-4.38518e-16
-4.72243e-08
-7.16899e-08
-4.52065e-16
-4.81657e-08
-6.491e-08
-4.42943e-16
-4.8925e-08
-5.71211e-08
-4.14028e-16
-4.94879e-08
-4.82902e-08
-3.64664e-16
-4.98398e-08
-3.83973e-08
-2.9256e-16
-4.99652e-08
-2.74307e-08
-2.11732e-16
-4.98494e-08
-1.53911e-08
-1.15915e-16
-2.3067e-09
-2.87746e-17
1.13155e-10
-2.11047e-09
7.29455e-15
3.03936e-10
-1.68588e-08
4.39205e-15
5.46449e-10
-3.1035e-08
-6.27496e-15
2.51135e-09
-5.24232e-08
1.66298e-14
4.182e-09
-8.37651e-08
1.52024e-14
5.16522e-09
-1.15469e-07
-5.17277e-15
3.65785e-09
-1.24431e-07
-6.36371e-16
1.54685e-09
-1.11347e-07
-1.50233e-14
-5.38911e-10
-1.13647e-07
-2.37531e-14
-2.54841e-09
-1.01688e-07
-2.37105e-14
-3.84329e-09
-5.37255e-08
-2.10031e-16
-4.95834e-09
-4.47832e-08
-5.87611e-16
-6.4317e-09
-4.86267e-08
1.72545e-15
-8.20667e-09
-5.45974e-08
-2.29735e-16
-1.02151e-08
-6.09043e-08
8.01345e-16
-1.23926e-08
-6.69036e-08
-2.61344e-16
-1.4672e-08
-7.23014e-08
-9.86652e-17
-1.69979e-08
-7.6974e-08
-5.88119e-16
-1.93299e-08
-8.09254e-08
-4.07807e-16
-2.16429e-08
-8.42102e-08
-3.03027e-16
-2.3923e-08
-8.69052e-08
-3.85797e-16
-2.61629e-08
-8.90808e-08
-4.63146e-16
-2.83579e-08
-9.07648e-08
-6.00966e-16
-3.05037e-08
-9.19842e-08
-5.78618e-16
-3.25944e-08
-9.27193e-08
-5.33353e-16
-3.4623e-08
-9.29482e-08
-4.31239e-16
-3.65806e-08
-9.26288e-08
-3.45572e-16
-3.84573e-08
-9.17032e-08
-2.52519e-16
-4.02421e-08
-9.0134e-08
-1.86713e-16
-4.19229e-08
-8.78483e-08
-1.27444e-16
-4.34873e-08
-8.4801e-08
-5.88622e-16
-4.49228e-08
-8.0937e-08
-4.34408e-16
-4.62163e-08
-7.62028e-08
-4.27464e-16
-4.73541e-08
-7.05522e-08
-4.38144e-16
-4.83224e-08
-6.39418e-08
-4.29242e-16
-4.91068e-08
-5.63368e-08
-4.01493e-16
-4.96924e-08
-4.77043e-08
-3.53484e-16
-5.00647e-08
-3.80251e-08
-2.82873e-16
-5.02077e-08
-2.72875e-08
-2.02922e-16
-5.01066e-08
-1.54925e-08
-1.07654e-16
-2.66833e-09
-2.09748e-17
1.10782e-10
-2.22127e-09
1.56481e-15
3.0569e-10
-1.70537e-08
9.35009e-15
5.71168e-10
-3.13005e-08
4.16686e-15
2.19072e-09
-5.40428e-08
7.94076e-15
3.61271e-09
-8.51871e-08
4.02201e-15
4.41981e-09
-1.16276e-07
-4.86096e-15
2.91564e-09
-1.22927e-07
7.41568e-17
9.5843e-10
-1.0939e-07
-9.8171e-15
-9.95324e-10
-1.11694e-07
-2.20906e-14
-2.98345e-09
-9.96998e-08
-2.20878e-14
-4.05127e-09
-5.26577e-08
4.05004e-15
-5.09933e-09
-4.37351e-08
-3.15435e-16
-6.50607e-09
-4.72199e-08
1.69544e-15
-8.21078e-09
-5.28927e-08
-1.88615e-16
-1.01506e-08
-5.89645e-08
7.47425e-16
-1.22665e-08
-6.47877e-08
-4.45544e-17
-1.44964e-08
-7.00715e-08
5.29999e-17
-1.67871e-08
-7.46833e-08
-4.84546e-16
-1.90978e-08
-7.86146e-08
-4.03546e-16
-2.14019e-08
-8.19062e-08
-3.45721e-16
-2.36828e-08
-8.46243e-08
-3.87251e-16
-2.5931e-08
-8.68326e-08
-4.46769e-16
-2.814e-08
-8.85558e-08
-5.71742e-16
-3.03039e-08
-8.98202e-08
-5.41851e-16
-3.24162e-08
-9.0607e-08
-4.9558e-16
-3.44691e-08
-9.08953e-08
-3.96147e-16
-3.6453e-08
-9.06448e-08
-3.08958e-16
-3.83576e-08
-8.97986e-08
-2.15142e-16
-4.01715e-08
-8.83202e-08
-1.4821e-16
-4.18822e-08
-8.61377e-08
-8.80861e-17
-4.34767e-08
-8.32063e-08
-5.49601e-16
-4.49422e-08
-7.94714e-08
-4.06736e-16
-4.62651e-08
-7.48798e-08
-4.03791e-16
-4.74314e-08
-6.93858e-08
-4.17628e-16
-4.84271e-08
-6.29464e-08
-4.11513e-16