/*--------------------------------*- C++ -*----------------------------------*\
| =========                 |                                                 |
| \\      /  F ield         | OpenFOAM: The Open Source CFD Toolbox           |
|  \\    /   O peration     | Version:  v2012                                 |
|   \\  /    A nd           | Website:  www.openfoam.com                      |
|    \\/     M anipulation  |                                                 |
\*---------------------------------------------------------------------------*/
FoamFile
{
    version     2.0;
    format      ascii;
    class       volVectorField;
    location    "0.1";
    object      U;
}
// * * * * * * * * * * * * * * * * * * * * * * * * * * * * * * * * * * * * * //

dimensions      [0 1 -1 0 0 0 0];


internalField   nonuniform List<vector> 
3332
(
(-0.916741 -7.73922 0.00800093)
(-0.956718 -7.07812 0.00834992)
(-0.988408 -6.46699 0.00862658)
(-1.01312 -5.90139 0.00884233)
(-1.03172 -5.37608 0.00900477)
(-1.04493 -4.88607 0.00912012)
(-1.05329 -4.42709 0.00919311)
(-1.05724 -3.99561 0.00922762)
(-1.05713 -3.58884 0.00922676)
(-1.05328 -3.20456 0.00919315)
(-1.04591 -2.84103 0.00912894)
(-1.03525 -2.49688 0.00903589)
(-1.02146 -2.17103 0.00891553)
(-1.00468 -1.86261 0.00876919)
(-0.985063 -1.57092 0.00859798)
(-0.962704 -1.29543 0.00840287)
(-0.93771 -1.03569 0.00818476)
(-0.910173 -0.79134 0.00794446)
(-0.880184 -0.562134 0.00768275)
(-0.847833 -0.347884 0.00740046)
(-0.881855 -9.06722 0.00769624)
(-0.943356 -8.32768 0.00823314)
(-0.991245 -7.62991 0.00865122)
(-1.0286 -6.98105 0.00897735)
(-1.0573 -6.38046 0.0092279)
(-1.07883 -5.82413 0.00941588)
(-1.09419 -5.30707 0.00955002)
(-1.10417 -4.8245 0.00963717)
(-1.10935 -4.37226 0.00968246)
(-1.11021 -3.94694 0.00969)
(-1.10712 -3.54581 0.00966307)
(-1.10038 -3.16673 0.00960433)
(-1.09026 -2.80799 0.00951599)
(-1.07694 -2.46829 0.00939981)
(-1.06061 -2.14655 0.00925731)
(-1.04141 -1.84195 0.00908979)
(-1.01947 -1.55383 0.00889833)
(-0.994898 -1.28166 0.00868388)
(-0.967785 -1.02499 0.00844729)
(-0.938225 -0.783518 0.00818932)
(-0.9063 -0.556979 0.00791072)
(-0.872096 -0.345203 0.00761225)
(-0.653282 -1.94106 0.00569908)
(1.63511 -17.8046 -0.0142686)
(2.4439 -34.6138 -0.0213306)
(1.06782 -22.1528 -0.00932114)
(2.09465 -15.2367 -0.0182806)
(2.28866 -19.5973 -0.0199745)
(2.60348 -31.1466 -0.0227213)
(3.29114 -41.5531 -0.0287211)
(2.52877 -42.3457 -0.0220561)
(1.94812 -35.9015 -0.0169871)
(-0.283688 -11.7846 0.00244387)
(-0.473087 -11.4257 0.0041184)
(-0.637244 -10.9672 0.00555885)
(-0.768883 -10.3602 0.00670975)
(-0.872869 -9.6548 0.00761764)
(-0.952499 -8.9196 0.00831282)
(-1.01359 -8.19956 0.00884612)
(-1.06 -7.51768 0.00925133)
(-1.09518 -6.88199 0.00955845)
(-1.12131 -6.29261 0.0097866)
(-1.14006 -5.74599 0.00995036)
(-1.15257 -5.23751 0.0100596)
(-1.15968 -4.76261 0.0101217)
(-1.16203 -4.31729 0.0101423)
(-1.16012 -3.89825 0.0101256)
(-1.15434 -3.50287 0.0100752)
(-1.14499 -3.12906 0.00999371)
(-1.13235 -2.77517 0.0098834)
(-1.11661 -2.43995 0.00974605)
(-1.09794 -2.12236 0.00958319)
(-1.07651 -1.82162 0.00939612)
(-1.05241 -1.53707 0.00918588)
(-1.02577 -1.26822 0.0089534)
(-0.99668 -1.01465 0.00869951)
(-0.965217 -0.776051 0.00842494)
(-0.931467 -0.552181 0.0081304)
(-0.895509 -0.342879 0.00781663)
(-0.47073 -2.38916 0.00410555)
(1.15721 -21.6533 -0.010099)
(1.62929 -35.4725 -0.0142207)
(0.802739 -23.0189 -0.00700559)
(2.19751 -17.347 -0.0191774)
(2.0943 -20.9753 -0.0182773)
(3.42881 -33.1998 -0.0299227)
(4.17522 -42.2641 -0.0364373)
(3.32616 -41.8311 -0.0290079)
(2.36078 -34.7709 -0.0205888)
(0.84106 -22.4371 -0.00734876)
(-0.041133 -11.9642 0.000212476)
(-0.302802 -11.4227 0.00260908)
(-0.514405 -11.1425 0.004478)
(-0.689356 -10.7221 0.0060135)
(-0.827571 -10.1494 0.00722194)
(-0.934853 -9.47498 0.00815862)
(-1.01595 -8.766 0.00886661)
(-1.07696 -8.06722 0.00939924)
(-1.12233 -7.4025 0.00979536)
(-1.15579 -6.78089 0.0100875)
(-1.17983 -6.20332 0.0102974)
(-1.19627 -5.66686 0.010441)
(-1.20636 -5.16727 0.0105291)
(-1.21102 -4.70027 0.0105699)
(-1.21094 -4.26205 0.0105691)
(-1.20662 -3.84943 0.0105315)
(-1.19848 -3.4599 0.0104605)
(-1.18684 -3.09144 0.0103589)
(-1.17195 -2.74248 0.0102291)
(-1.15404 -2.41179 0.0100728)
(-1.13328 -2.0984 0.00989162)
(-1.10981 -1.80153 0.0096868)
(-1.08375 -1.52059 0.00945941)
(-1.05521 -1.25508 0.00921037)
(-1.02429 -1.00462 0.0089405)
(-0.991059 -0.768899 0.00865051)
(-0.955605 -0.547706 0.0083411)
(-0.918003 -0.340883 0.00801298)
(-0.254479 -2.83959 0.00221859)
(0.882392 -24.1734 -0.0077013)
(1.04408 -36.0436 -0.00911291)
(0.630859 -24.2193 -0.00550449)
(1.65941 -18.9899 -0.0144813)
(1.51932 -22.8873 -0.0132575)
(3.90394 -36.228 -0.0340676)
(4.42061 -43.0414 -0.0385835)
(3.51589 -41.0995 -0.0306595)
(2.33972 -33.3465 -0.020405)
(0.72105 -20.777 -0.00630266)
(-0.0628448 -11.3664 0.000415402)
(-0.324237 -11.034 0.00279762)
(-0.551987 -10.8378 0.00480572)
(-0.734876 -10.4625 0.00641067)
(-0.878924 -9.92816 0.0076701)
(-0.98911 -9.28755 0.00863216)
(-1.07175 -8.60683 0.00935367)
(-1.13297 -7.93083 0.00988811)
(-1.17772 -7.2844 0.0102789)
(-1.20996 -6.67768 0.0105603)
(-1.2324 -6.1125 0.0107563)
(-1.24702 -5.5866 0.010884)
(-1.25518 -5.09621 0.0109552)
(-1.25785 -4.63734 0.0109786)
(-1.25576 -4.2064 0.0109604)
(-1.24943 -3.80035 0.0109052)
(-1.2393 -3.41679 0.0108168)
(-1.22569 -3.05377 0.0106981)
(-1.20888 -2.7098 0.0105514)
(-1.18908 -2.38371 0.0103786)
(-1.16646 -2.07456 0.0101813)
(-1.14118 -1.78162 0.00996065)
(-1.11336 -1.50431 0.00971788)
(-1.08311 -1.24217 0.00945388)
(-1.05052 -0.994835 0.00916945)
(-1.01567 -0.762019 0.00886533)
(-0.978642 -0.543514 0.00854219)
(-0.939514 -0.339179 0.00820073)
(-0.898366 -0.148959 0.00784175)
(-0.144639 -3.56317 0.00126097)
(0.758528 -25.9411 -0.00662045)
(0.6567 -36.3528 -0.00573173)
(0.542735 -24.9771 -0.00473581)
(0.712954 -19.8658 -0.00622144)
(1.36661 -25.7642 -0.0119228)
(4.15912 -39.5732 -0.0362943)
(4.26195 -43.5389 -0.0372071)
(3.28165 -40.1761 -0.0286145)
(2.03907 -31.8349 -0.017783)
(0.527346 -19.2022 -0.00460499)
(-0.107111 -10.8631 0.000817212)
(-0.35071 -10.6455 0.00303144)
(-0.585832 -10.519 0.00510137)
(-0.773631 -10.1916 0.00674888)
(-0.922429 -9.69811 0.00804979)
(-1.03521 -9.09339 0.00903449)
(-1.11949 -8.44252 0.0097703)
(-1.18123 -7.79059 0.0103093)
(-1.22581 -7.16342 0.0106986)
(-1.25732 -6.57229 0.0109737)
(-1.2787 -6.02003 0.0111604)
(-1.29203 -5.50509 0.0112768)
(-1.29876 -5.02419 0.0113356)
(-1.29992 -4.57368 0.0113458)
(-1.29626 -4.15019 0.0113139)
(-1.28835 -3.75086 0.0112449)
(-1.27661 -3.37339 0.0111425)
(-1.26139 -3.01593 0.0110097)
(-1.24297 -2.67704 0.010849)
(-1.22157 -2.35562 0.0106622)
(-1.19736 -2.05077 0.010451)
(-1.17051 -1.76181 0.0102167)
(-1.14115 -1.48817 0.00996042)
(-1.10937 -1.22944 0.00968313)
(-1.07529 -0.985255 0.00938566)
(-1.03897 -0.755362 0.00906876)
(-1.00051 -0.539563 0.00873312)
(-0.959986 -0.33773 0.00837942)
(-0.917471 -0.149819 0.00800843)
(-0.108403 -4.19711 0.000944363)
(0.6527 -27.2406 -0.00569678)
(0.411514 -36.5124 -0.00359165)
(0.460859 -25.0736 -0.00402227)
(-0.00471624 -20.6488 4.23676e-05)
(1.82981 -29.6346 -0.0159641)
(4.18488 -42.525 -0.0365203)
(3.92754 -43.5841 -0.034294)
(2.86461 -39.1149 -0.0249764)
(1.6605 -30.3917 -0.0144804)
(0.34968 -17.8255 -0.00305162)
(-0.159266 -10.4468 0.00128688)
(-0.380912 -10.2711 0.0032977)
(-0.615365 -10.1937 0.00535965)
(-0.805341 -9.91234 0.00702566)
(-0.957609 -9.46073 0.00835681)
(-1.07279 -8.89329 0.00936249)
(-1.15884 -8.27348 0.0101138)
(-1.22148 -7.64667 0.0106606)
(-1.26637 -7.03957 0.0110526)
(-1.29769 -6.46468 0.0113261)
(-1.31855 -5.9258 0.0115082)
(-1.33113 -5.42218 0.0116181)
(-1.33694 -4.95105 0.0116689)
(-1.33708 -4.50912 0.0116701)
(-1.33232 -4.09328 0.0116286)
(-1.32324 -3.70082 0.0115494)
(-1.31029 -3.32957 0.0114365)
(-1.29382 -2.97778 0.0112928)
(-1.27412 -2.64408 0.0111209)
(-1.25141 -2.32741 0.0109227)
(-1.22589 -2.02694 0.0107)
(-1.19772 -1.74201 0.0104542)
(-1.16703 -1.4721 0.0101863)
(-1.13393 -1.21681 0.00989749)
(-1.09853 -0.975819 0.00958856)
(-1.06092 -0.748878 0.00926029)
(-1.02117 -0.535809 0.00891341)
(-0.979371 -0.336498 0.00854863)
(-0.935607 -0.15091 0.0081667)
(-0.88996 0.0209678 0.00776846)
(-0.0316604 -4.8143 0.000274658)
(0.574098 -28.2113 -0.00501072)
(0.315211 -36.601 -0.0027511)
(0.320571 -24.8095 -0.00279829)
(-0.0580432 -22.0851 0.000508841)
(2.47051 -33.7578 -0.0215559)
(4.0686 -44.7803 -0.0355074)
(3.53857 -43.2188 -0.0309018)
(2.43223 -37.9907 -0.0212059)
(1.31826 -29.0954 -0.0114943)
(0.220859 -16.6515 -0.00192842)
(-0.209927 -10.0844 0.00174091)
(-0.412253 -9.91413 0.00357336)
(-0.640429 -9.86785 0.00557899)
(-0.830072 -9.62793 0.00724156)
(-0.984413 -9.2176 0.00859074)
(-1.10178 -8.68801 0.00961549)
(-1.18974 -8.1001 0.0103834)
(-1.25367 -7.49921 0.0109416)
(-1.29936 -6.91288 0.0113405)
(-1.33103 -6.35476 0.011617)
(-1.35191 -5.82971 0.0117994)
(-1.36426 -5.33773 0.0119073)
(-1.36967 -4.87664 0.0119546)
(-1.36927 -4.44352 0.0119511)
(-1.36385 -4.03551 0.0119039)
(-1.35403 -3.65009 0.0118182)
(-1.34026 -3.28521 0.0116981)
(-1.3229 -2.93921 0.0115466)
(-1.30225 -2.6108 0.0113664)
(-1.27854 -2.29899 0.0111596)
(-1.25198 -2.00297 0.0109278)
(-1.22273 -1.72214 0.0106725)
(-1.19094 -1.45602 0.0103951)
(-1.15673 -1.20423 0.0100965)
(-1.1202 -0.96647 0.00977767)
(-1.08144 -0.742516 0.00943948)
(-1.04056 -0.532207 0.00908268)
(-0.997628 -0.335442 0.008708)
(-0.952736 -0.152198 0.00831622)
(-0.905971 0.0175309 0.00790813)
(0.0444087 -5.61975 -0.000388515)
(0.494666 -28.9859 -0.00431741)
(0.324338 -36.6175 -0.00283082)
(0.086306 -24.6644 -0.000753592)
(0.397892 -24.4319 -0.00346932)
(2.92001 -37.4911 -0.0254797)
(3.91669 -46.3545 -0.0341839)
(3.14152 -42.5392 -0.0274388)
(2.05134 -36.8573 -0.017885)
(1.03672 -27.9634 -0.00903737)
(0.131626 -15.6381 -0.00115299)
(-0.255871 -9.75276 0.00215231)
(-0.442522 -9.574 0.00383929)
(-0.661239 -9.54578 0.0057612)
(-0.848278 -9.34137 0.00740056)
(-1.00327 -8.97043 0.0087553)
(-1.12245 -8.47838 0.00979592)
(-1.21238 -7.92276 0.010581)
(-1.27798 -7.34835 0.0111537)
(-1.32492 -6.78335 0.0115636)
(-1.35745 -6.24249 0.0118476)
(-1.37887 -5.73165 0.0120347)
(-1.39151 -5.25163 0.0121451)
(-1.39701 -4.80084 0.0121931)
(-1.39652 -4.37675 0.012189)
(-1.39089 -3.97676 0.0121399)
(-1.38073 -3.59854 0.0120513)
(-1.36651 -3.24017 0.0119272)
(-1.34862 -2.9001 0.0117711)
(-1.32734 -2.5771 0.0115854)
(-1.30293 -2.27024 0.0113724)
(-1.2756 -1.97877 0.0111339)
(-1.24552 -1.70213 0.0108714)
(-1.21285 -1.43986 0.0105863)
(-1.17772 -1.19163 0.0102797)
(-1.14025 -0.957148 0.00995267)
(-1.10052 -0.736224 0.00960603)
(-1.05865 -0.528711 0.00924062)
(-1.01472 -0.334522 0.00885723)
(-0.968828 -0.153646 0.00845668)
(-0.921057 0.0139137 0.00803981)
(0.0761325 -6.40444 -0.000665475)
(0.395329 -29.6584 -0.00345039)
(0.362712 -36.5014 -0.00316585)
(-0.211434 -24.8492 0.00184509)
(0.945783 -27.5183 -0.00825054)
(3.07443 -40.6792 -0.0268284)
(3.71487 -47.3707 -0.0324242)
(2.74147 -41.6526 -0.0239466)
(1.72286 -35.7539 -0.0150211)
(0.803612 -26.9852 -0.00700251)
(0.0608987 -14.7463 -0.000539093)
(-0.297343 -9.44142 0.00252408)
(-0.470227 -9.24936 0.00408268)
(-0.678221 -9.23041 0.00590998)
(-0.860691 -9.05538 0.00750901)
(-1.01498 -8.72096 0.00885756)
(-1.13544 -8.26537 0.00990924)
(-1.22728 -7.74193 0.0107111)
(-1.29479 -7.19429 0.0113004)
(-1.34338 -6.65102 0.0117247)
(-1.37724 -6.12782 0.0120203)
(-1.39967 -5.63153 0.0122162)
(-1.41306 -5.16377 0.0123332)
(-1.41909 -4.72352 0.0123859)
(-1.41896 -4.30866 0.0123848)
(-1.41352 -3.91689 0.0123374)
(-1.4034 -3.54604 0.0122491)
(-1.3891 -3.19434 0.0121243)
(-1.37099 -2.86033 0.0119663)
(-1.34939 -2.54287 0.0117779)
(-1.32456 -2.24108 0.0115612)
(-1.29672 -1.95426 0.0113183)
(-1.26606 -1.68188 0.0110507)
(-1.23274 -1.42355 0.0107599)
(-1.19689 -1.17894 0.0104471)
(-1.15865 -0.947797 0.0101133)
(-1.11813 -0.729951 0.00975969)
(-1.07542 -0.525274 0.009387)
(-1.03063 -0.333696 0.0089961)
(-0.983859 -0.155217 0.00858789)
(-0.935196 0.0101489 0.00816323)
(0.116122 -7.09989 -0.00101477)
(0.322498 -30.2626 -0.00281473)
(0.385783 -36.1823 -0.00336735)
(-0.45234 -25.3492 0.00394764)
(1.39928 -30.9795 -0.0122083)
(2.98076 -43.3415 -0.0260122)
(3.43759 -47.9611 -0.0300055)
(2.34203 -40.6693 -0.0204582)
(1.42989 -34.7141 -0.0124668)
(0.606959 -26.1489 -0.00528514)
(-0.000830166 -13.9559 -3.72403e-06)
(-0.334415 -9.14543 0.00285663)
(-0.494986 -8.93916 0.00430025)
(-0.691926 -8.92358 0.00603016)
(-0.868265 -8.7723 0.00757526)
(-1.02064 -8.47091 0.00890689)
(-1.14164 -8.05 0.0099634)
(-1.2352 -7.55817 0.0107801)
(-1.30472 -7.03729 0.0113871)
(-1.35526 -6.516 0.0118283)
(-1.3908 -6.01076 0.0121387)
(-1.41466 -5.52931 0.012347)
(-1.42921 -5.07407 0.0124741)
(-1.43618 -4.6446 0.012535)
(-1.43678 -4.23918 0.0125403)
(-1.43189 -3.8558 0.0124977)
(-1.42217 -3.4925 0.0124129)
(-1.4081 -3.14763 0.0122902)
(-1.39009 -2.81982 0.0121331)
(-1.36846 -2.50802 0.0119444)
(-1.34348 -2.21141 0.0117264)
(-1.31538 -1.92935 0.0114811)
(-1.28436 -1.66134 0.0112104)
(-1.25059 -1.40702 0.0109157)
(-1.21423 -1.1661 0.0105984)
(-1.17541 -0.93836 0.0102596)
(-1.13424 -0.723646 0.00990036)
(-1.09085 -0.521852 0.00952168)
(-1.04534 -0.332924 0.00912447)
(-0.997811 -0.156875 0.00870967)
(-0.948369 0.00626925 0.00827822)
(0.156121 -7.86535 -0.00136296)
(0.301501 -30.8145 -0.00263143)
(0.361547 -35.6859 -0.00315594)
(-0.482139 -26.2209 0.0042079)
(1.78125 -34.4255 -0.0155421)
(2.78203 -45.4988 -0.024279)
(3.12829 -48.2321 -0.0273071)
(1.97648 -39.6678 -0.0172651)
(1.17116 -33.7597 -0.0102108)
(0.448294 -25.4425 -0.00389822)
(-0.057401 -13.2476 0.000486788)
(-0.367532 -8.86343 0.00315379)
(-0.517044 -8.64271 0.0044942)
(-0.702968 -8.62645 0.00612709)
(-0.872057 -8.49401 0.0076085)
(-1.02141 -8.2219 0.00891365)
(-1.14217 -7.8334 0.00996796)
(-1.23707 -7.37212 0.0107964)
(-1.30856 -6.87769 0.0114206)
(-1.36119 -6.37842 0.0118801)
(-1.39869 -5.89134 0.0122075)
(-1.42428 -5.42499 0.012431)
(-1.44033 -4.9825 0.0125712)
(-1.44857 -4.56401 0.0126431)
(-1.45023 -4.16823 0.0126577)
(-1.44622 -3.79342 0.0126228)
(-1.43719 -3.43783 0.012544)
(-1.42366 -3.09994 0.012426)
(-1.40603 -2.77848 0.0122721)
(-1.38463 -2.47248 0.0120854)
(-1.35974 -2.18118 0.0118683)
(-1.33161 -1.90397 0.0116228)
(-1.30045 -1.64043 0.0113508)
(-1.26644 -1.39021 0.011054)
(-1.22974 -1.15306 0.0107338)
(-1.19051 -0.928787 0.0103914)
(-1.14887 -0.717263 0.010028)
(-1.10494 -0.518402 0.0096446)
(-1.05883 -0.332166 0.00924225)
(-1.01067 -0.158584 0.00882194)
(-0.960565 0.00230705 0.00838467)
(0.141273 -8.66444 -0.0012326)
(0.319671 -31.3342 -0.00278992)
(0.27328 -35.1923 -0.00238558)
(-0.241541 -27.6183 0.00210874)
(2.09609 -37.5714 -0.0182903)
(2.61078 -47.1939 -0.0227856)
(2.835 -48.2481 -0.0247486)
(1.67592 -38.6818 -0.0146392)
(0.954576 -32.8916 -0.0083222)
(0.326547 -24.8433 -0.00283147)
(-0.111933 -12.6026 0.000960129)
(-0.397107 -8.59382 0.00341917)
(-0.536901 -8.35937 0.00466887)
(-0.711936 -8.33971 0.00620593)
(-0.873074 -8.22199 0.00761754)
(-1.01846 -7.97538 0.00888799)
(-1.13816 -7.61671 0.00993297)
(-1.23392 -7.18455 0.0107689)
(-1.30717 -6.71594 0.0114085)
(-1.36192 -6.23856 0.0118864)
(-1.40152 -5.76971 0.0122322)
(-1.42907 -5.3186 0.0124728)
(-1.44686 -4.88905 0.0126282)
(-1.45664 -4.48173 0.0127136)
(-1.45963 -4.09577 0.0127398)
(-1.45676 -3.7297 0.0127148)
(-1.44869 -3.38198 0.0126444)
(-1.43594 -3.05121 0.0125332)
(-1.41893 -2.73625 0.0123847)
(-1.39799 -2.43618 0.0122021)
(-1.37342 -2.1503 0.0119877)
(-1.34548 -1.87807 0.0117438)
(-1.31437 -1.61909 0.0114724)
(-1.28031 -1.37306 0.0111751)
(-1.24345 -1.13976 0.0108535)
(-1.20397 -0.919027 0.0105089)
(-1.162 -0.710755 0.0101426)
(-1.11767 -0.51488 0.00975576)
(-1.07111 -0.331384 0.0093494)
(-1.02244 -0.16031 0.00892464)
(-0.971775 -0.00170609 0.00848253)
(0.0988042 -9.37645 -0.000861998)
(0.378729 -31.8298 -0.00330525)
(0.13945 -34.8945 -0.00121748)
(0.162324 -29.5947 -0.00141511)
(2.27281 -40.2891 -0.0198334)
(2.48805 -48.503 -0.0217153)
(2.55734 -48.052 -0.0223265)
(1.43334 -37.7222 -0.01252)
(0.776918 -32.0965 -0.00677295)
(0.22475 -24.3177 -0.00193789)
(-0.168715 -12.0105 0.00145423)
(-0.424206 -8.33566 0.00366225)
(-0.555181 -8.0886 0.00482974)
(-0.719389 -8.0637 0.00627152)
(-0.872211 -7.95729 0.00761016)
(-1.01286 -7.73257 0.00883912)
(-1.13073 -7.40099 0.00986815)
(-1.22679 -6.99622 0.0107067)
(-1.3015 -6.55256 0.011359)
(-1.35824 -6.0967 0.0118543)
(-1.39998 -5.64603 0.0122187)
(-1.42959 -5.21026 0.0124773)
(-1.4493 -4.79378 0.0126494)
(-1.4608 -4.39778 0.0127499)
(-1.46533 -4.02179 0.0127895)
(-1.46381 -3.66462 0.0127762)
(-1.4569 -3.32491 0.0127161)
(-1.44515 -3.00141 0.0126135)
(-1.42896 -2.69308 0.0124723)
(-1.40869 -2.39907 0.0122954)
(-1.38463 -2.11873 0.0120855)
(-1.35706 -1.85159 0.0118449)
(-1.32619 -1.59727 0.0115755)
(-1.29224 -1.35552 0.0112792)
(-1.25539 -1.12616 0.0109577)
(-1.21581 -0.909037 0.0106123)
(-1.17366 -0.704081 0.0102444)
(-1.12907 -0.51125 0.00985522)
(-1.08217 -0.330543 0.00944596)
(-1.03311 -0.162018 0.00901776)
(-0.981998 -0.00573956 0.00857176)
(0.0598338 -10.1105 -0.000521536)
(0.46922 -32.2947 -0.00409496)
(-0.0051023 -34.8388 4.41895e-05)
(0.552351 -31.9771 -0.00481847)
(2.2446 -42.5646 -0.0195879)
(2.35852 -49.5209 -0.0205853)
(2.26944 -47.6948 -0.0198151)
(1.2183 -36.8023 -0.0106419)
(0.622863 -31.3615 -0.0054293)
(0.122385 -23.8326 -0.00103892)
(-0.230908 -11.4734 0.00199842)
(-0.449822 -8.09042 0.00389189)
(-0.572426 -7.83032 0.00498158)
(-0.725761 -7.79859 0.00632768)
(-0.870175 -7.70062 0.00759256)
(-1.00548 -7.49448 0.00877477)
(-1.12088 -7.18721 0.00978219)
(-1.21667 -6.80792 0.0106184)
(-1.29244 -6.38811 0.0112798)
(-1.35096 -5.95325 0.0117907)
(-1.39475 -5.52056 0.0121731)
(-1.42645 -5.10011 0.0124499)
(-1.44815 -4.69678 0.0126394)
(-1.46149 -4.31223 0.0127559)
(-1.4677 -3.94633 0.0128101)
(-1.46767 -3.59818 0.01281)
(-1.46209 -3.26662 0.0127614)
(-1.4515 -2.95053 0.0126689)
(-1.4363 -2.64895 0.0125363)
(-1.41686 -2.36111 0.0123668)
(-1.39349 -2.08644 0.0121628)
(-1.36645 -1.82449 0.0119268)
(-1.33598 -1.57494 0.0116609)
(-1.3023 -1.33756 0.011367)
(-1.2656 -1.11221 0.0110468)
(-1.22607 -0.898776 0.0107018)
(-1.18387 -0.697204 0.0103335)
(-1.13914 -0.507475 0.00994314)
(-1.09203 -0.329608 0.00953202)
(-1.04268 -0.163679 0.00910136)
(-0.991234 -0.0097641 0.00865238)
(0.00673613 -10.8758 -5.79541e-05)
(0.551522 -32.7264 -0.00481328)
(-0.132191 -34.9672 0.00115341)
(0.813146 -34.4589 -0.00709441)
(2.02936 -44.4357 -0.01771)
(2.18359 -50.3389 -0.0190586)
(1.96205 -47.2351 -0.0171335)
(1.01046 -35.9395 -0.00882734)
(0.47906 -30.6792 -0.00417483)
(0.0112563 -23.3654 -6.1876e-05)
(-0.299801 -11.0057 0.00260488)
(-0.473903 -7.86039 0.00410771)
(-0.588862 -7.58452 0.00512633)
(-0.731255 -7.54439 0.00637618)
(-0.867453 -7.45238 0.00756896)
(-0.997012 -7.26182 0.00870088)
(-1.10944 -6.97618 0.00968238)
(-1.2044 -6.62036 0.0105114)
(-1.28082 -6.22314 0.0111784)
(-1.34084 -5.80859 0.0117024)
(-1.38652 -5.39358 0.0121012)
(-1.42025 -4.98836 0.0123957)
(-1.44394 -4.59819 0.0126026)
(-1.45917 -4.22515 0.0127356)
(-1.46712 -3.86944 0.0128051)
(-1.46869 -3.53043 0.0128188)
(-1.46454 -3.20713 0.0127827)
(-1.45522 -2.89855 0.0127014)
(-1.44115 -2.60384 0.0125786)
(-1.42268 -2.3223 0.0124175)
(-1.40012 -2.0534 0.0122207)
(-1.37375 -1.79674 0.0119906)
(-1.34382 -1.55205 0.0117294)
(-1.31055 -1.31914 0.011439)
(-1.27414 -1.09789 0.0111213)
(-1.23478 -0.888213 0.0107778)
(-1.19265 -0.690089 0.0104102)
(-1.14791 -0.503522 0.0100197)
(-1.1007 -0.328549 0.00960769)
(-1.05118 -0.165262 0.00917552)
(-0.99949 -0.013752 0.00872444)
(-0.0430329 -11.5922 0.000376038)
(0.609148 -33.1296 -0.00531627)
(-0.215584 -35.1938 0.00188122)
(0.931702 -36.783 -0.00812925)
(1.71846 -45.9661 -0.0149971)
(1.97304 -51.0208 -0.0172208)
(1.65188 -46.7206 -0.0144275)
(0.810608 -35.1459 -0.00708307)
(0.341082 -30.0457 -0.00297098)
(-0.0976852 -22.9107 0.000896252)
(-0.365675 -10.6123 0.00318602)
(-0.496859 -7.64675 0.00431314)
(-0.604447 -7.35082 0.0052636)
(-0.736016 -7.30086 0.00641824)
(-0.864375 -7.21268 0.00754225)
(-0.987968 -7.03505 0.008622)
(-1.09709 -6.76852 0.00957463)
(-1.19076 -6.43418 0.0103922)
(-1.26741 -6.05821 0.0110614)
(-1.32859 -5.66316 0.0115955)
(-1.37594 -5.26541 0.0120089)
(-1.41155 -4.87523 0.0123198)
(-1.43717 -4.49818 0.0125434)
(-1.45426 -4.13667 0.0126927)
(-1.46398 -3.79123 0.0127776)
(-1.46718 -3.46143 0.0128056)
(-1.46453 -3.14648 0.0127826)
(-1.45657 -2.84552 0.0127131)
(-1.4437 -2.55778 0.0126009)
(-1.4263 -2.28263 0.0124491)
(-1.40467 -2.0196 0.0122604)
(-1.37909 -1.76833 0.0120371)
(-1.34981 -1.52859 0.0117816)
(-1.31706 -1.30023 0.0114959)
(-1.28106 -1.08316 0.0111817)
(-1.242 -0.877317 0.0108408)
(-1.20006 -0.68271 0.0104748)
(-1.1554 -0.499363 0.0100851)
(-1.1082 -0.327338 0.00967316)
(-1.05861 -0.16674 0.00924035)
(-1.00677 -0.0176772 0.00878801)
(-0.0638937 -12.2987 0.000557847)
(0.641646 -33.5152 -0.00559989)
(-0.244301 -35.4549 0.00213186)
(0.950456 -38.8086 -0.00829323)
(1.40187 -47.2271 -0.0122343)
(1.75456 -51.5987 -0.0153138)
(1.3635 -46.181 -0.0119114)
(0.627906 -34.4226 -0.00548883)
(0.213089 -29.4581 -0.00185405)
(-0.195193 -22.4674 0.00175247)
(-0.425221 -10.2885 0.00371279)
(-0.518598 -7.4485 0.00450726)
(-0.619068 -7.12863 0.00539236)
(-0.740202 -7.06762 0.00645527)
(-0.861173 -6.98138 0.00751445)
(-0.978763 -6.81442 0.00854171)
(-1.08438 -6.56469 0.0094637)
(-1.17635 -6.24991 0.0102665)
(-1.25285 -5.8938 0.0109343)
(-1.31485 -5.51737 0.0114755)
(-1.36361 -5.13638 0.0119012)
(-1.40091 -4.76099 0.0122269)
(-1.42832 -4.39695 0.0124662)
(-1.4472 -4.04696 0.0126311)
(-1.45864 -3.7118 0.012731)
(-1.46347 -3.39127 0.0127733)
(-1.46235 -3.08474 0.0127635)
(-1.45577 -2.79148 0.0127062)
(-1.44418 -2.51079 0.012605)
(-1.42791 -2.24212 0.0124631)
(-1.40728 -1.98504 0.0122832)
(-1.38258 -1.73926 0.0120676)
(-1.35404 -1.50456 0.0118186)
(-1.32192 -1.28083 0.0115383)
(-1.28643 -1.068 0.0112285)
(-1.24776 -0.866066 0.0108911)
(-1.20611 -0.67504 0.0105276)
(-1.16166 -0.494974 0.0101397)
(-1.11456 -0.325949 0.00972864)
(-1.06499 -0.168089 0.00929602)
(-1.0131 -0.0215158 0.00884322)
(-0.0693275 -13.0275 0.000605392)
(0.643869 -33.8974 -0.00561924)
(-0.227857 -35.7262 0.00198841)
(0.919257 -40.5022 -0.00802124)
(1.13311 -48.2796 -0.00988886)
(1.55091 -52.0855 -0.0135362)
(1.11567 -45.632 -0.00974942)
(0.468776 -33.7623 -0.00410054)
(0.102633 -28.9135 -0.000889917)
(-0.278179 -22.0329 0.00247859)
(-0.476995 -10.0256 0.00417417)
(-0.538915 -7.2639 0.00468826)
(-0.632681 -6.91719 0.0055122)
(-0.743936 -6.84408 0.00648831)
(-0.858029 -6.75821 0.00748714)
(-0.969715 -6.59997 0.00846278)
(-1.07173 -6.36497 0.00935331)
(-1.1617 -6.06794 0.0101387)
(-1.2377 -5.73035 0.010802)
(-1.30017 -5.37163 0.0113474)
(-1.35005 -5.00682 0.0117829)
(-1.38881 -4.6459 0.0121213)
(-1.41784 -4.29472 0.0123747)
(-1.43839 -3.95618 0.0125542)
(-1.45147 -3.63129 0.0126685)
(-1.45788 -3.32006 0.0127245)
(-1.45825 -3.022 0.0127277)
(-1.45307 -2.73648 0.0126826)
(-1.44277 -2.46292 0.0125927)
(-1.42767 -2.2008 0.0124611)
(-1.40811 -1.94976 0.0122903)
(-1.38434 -1.70953 0.012083)
(-1.35663 -1.47994 0.0118412)
(-1.32522 -1.26091 0.011567)
(-1.29032 -1.05241 0.0112625)
(-1.25214 -0.854445 0.0109293)
(-1.21087 -0.667061 0.0105692)
(-1.1667 -0.490333 0.0101837)
(-1.1198 -0.324361 0.00977435)
(-1.07033 -0.169286 0.0093427)
(-1.01848 -0.0252456 0.0088902)
(-0.0645318 -13.7337 0.000563362)
(0.619298 -34.2866 -0.0054047)
(-0.180937 -36.0153 0.00157906)
(0.872888 -41.8963 -0.00761684)
(0.930714 -49.1704 -0.00812258)
(1.37434 -52.4886 -0.0119951)
(0.916806 -45.0816 -0.00801467)
(0.337486 -33.1538 -0.00295541)
(0.0137909 -28.4061 -0.000114362)
(-0.346956 -21.6049 0.00307879)
(-0.520253 -9.81051 0.0045603)
(-0.557756 -7.09106 0.0048557)
(-0.645277 -6.71556 0.00562307)
(-0.747351 -6.62959 0.00651854)
(-0.855093 -6.54276 0.00746165)
(-0.961073 -6.39159 0.0083874)
(-1.05947 -6.16951 0.00924636)
(-1.14721 -5.88861 0.0100122)
(-1.22241 -5.56822 0.0106686)
(-1.28502 -5.22628 0.0112152)
(-1.33572 -4.87706 0.0116578)
(-1.37568 -4.53025 0.0120067)
(-1.40613 -4.19172 0.0122726)
(-1.42819 -3.86453 0.0124652)
(-1.4428 -3.54987 0.0125927)
(-1.4507 -3.24793 0.0126618)
(-1.45251 -2.95835 0.0126776)
(-1.4487 -2.68062 0.0126444)
(-1.43967 -2.41422 0.0125657)
(-1.42576 -2.15871 0.0124444)
(-1.40729 -1.91376 0.0122832)
(-1.3845 -1.67915 0.0120844)
(-1.35767 -1.45475 0.0118502)
(-1.32703 -1.24049 0.0115828)
(-1.2928 -1.03637 0.0112841)
(-1.25518 -0.84244 0.0109558)
(-1.21437 -0.658758 0.0105997)
(-1.17057 -0.485423 0.0102175)
(-1.12395 -0.322554 0.00981056)
(-1.07468 -0.170312 0.0093806)
(-1.02294 -0.0288467 0.00892909)
(-0.0403139 -14.4325 0.000351978)
(0.580002 -34.6857 -0.00506163)
(-0.112275 -36.3399 0.000979961)
(0.831914 -43.0473 -0.00725949)
(0.793884 -49.9335 -0.00692853)
(1.22938 -52.8159 -0.0107299)
(0.767292 -44.535 -0.00671064)
(0.235747 -32.586 -0.00206821)
(-0.0530465 -27.9281 0.000469028)
(-0.40235 -21.1797 0.00356171)
(-0.556347 -9.63121 0.00488068)
(-0.575012 -6.92798 0.00500873)
(-0.656943 -6.52279 0.00572571)
(-0.750568 -6.42339 0.006547)
(-0.852492 -6.33457 0.00743907)
(-0.953025 -6.18909 0.0083172)
(-1.04786 -5.97838 0.00914502)
(-1.13321 -5.71213 0.00989)
(-1.20734 -5.40772 0.0105371)
(-1.26979 -5.08166 0.0110822)
(-1.321 -4.74741 0.0115293)
(-1.3619 -4.41431 0.0118864)
(-1.39355 -4.08819 0.0121627)
(-1.41692 -3.7722 0.0123668)
(-1.4329 -3.46769 0.0125063)
(-1.44219 -3.175 0.0125874)
(-1.44535 -2.8939 0.0126151)
(-1.44285 -2.62398 0.0125934)
(-1.43507 -2.36477 0.0125255)
(-1.42234 -2.11591 0.0124145)
(-1.40496 -1.8771 0.0122629)
(-1.38319 -1.64816 0.0120729)
(-1.35727 -1.42899 0.0118467)
(-1.32745 -1.21956 0.0115865)
(-1.29394 -1.01989 0.0112941)
(-1.25695 -0.830047 0.0109713)
(-1.21668 -0.650121 0.0106198)
(-1.17331 -0.48023 0.0102414)
(-1.12704 -0.320514 0.00983757)
(-1.07804 -0.17115 0.00940995)
(-1.02649 -0.0323012 0.00896009)
(-0.0062675 -15.1546 5.54607e-05)
(0.529279 -35.0935 -0.00461888)
(-0.0335122 -36.7173 0.000292687)
(0.802818 -44.0146 -0.00700575)
(0.710367 -50.5937 -0.00619973)
(1.1138 -53.0778 -0.00972115)
(0.662476 -43.9959 -0.00579674)
(0.161061 -32.0483 -0.00141722)
(-0.100585 -27.4698 0.000883901)
(-0.446833 -20.7522 0.00394889)
(-0.586673 -9.47761 0.00514838)
(-0.590766 -6.77312 0.00514813)
(-0.66783 -6.33792 0.00582146)
(-0.753694 -6.22475 0.00657464)
(-0.850337 -6.13312 0.00742036)
(-0.945705 -5.99222 0.00825336)
(-1.03706 -5.79154 0.00905081)
(-1.11991 -5.53864 0.00977393)
(-1.19276 -5.2491 0.0104099)
(-1.25476 -4.93805 0.0109511)
(-1.30621 -4.61815 0.0114002)
(-1.34778 -4.29834 0.0117631)
(-1.38037 -3.98436 0.0120477)
(-1.40487 -3.6794 0.0122616)
(-1.42205 -3.38494 0.0124116)
(-1.43258 -3.10144 0.0125036)
(-1.437 -2.82879 0.0125422)
(-1.43573 -2.56666 0.0125312)
(-1.42915 -2.31466 0.0124738)
(-1.41756 -2.07246 0.0123728)
(-1.40127 -1.83982 0.0122306)
(-1.38051 -1.61659 0.0120495)
(-1.35553 -1.4027 0.0118315)
(-1.32656 -1.19814 0.0115787)
(-1.29382 -1.00297 0.011293)
(-1.25751 -0.817264 0.0109761)
(-1.21783 -0.641143 0.0106298)
(-1.17497 -0.474745 0.0102558)
(-1.12911 -0.318228 0.00985565)
(-1.08045 -0.171784 0.00943097)
(-1.02916 -0.0355936 0.00898336)
(0.0295755 -15.88 -0.000256665)
(0.471171 -35.509 -0.00411172)
(0.0484738 -37.164 -0.000422748)
(0.786425 -44.8502 -0.00686285)
(0.666668 -51.17 -0.00581843)
(1.02407 -53.2874 -0.00893802)
(0.596237 -43.4683 -0.00521962)
(0.108989 -31.53 -0.000963917)
(-0.13281 -27.0223 0.00116506)
(-0.483279 -20.3193 0.00426549)
(-0.612106 -9.34121 0.00537169)
(-0.605271 -6.62526 0.00527623)
(-0.678048 -6.16 0.00591131)
(-0.756828 -6.03295 0.0066023)
(-0.848696 -5.93789 0.00740614)
(-0.939193 -5.80066 0.00819656)
(-1.02719 -5.60891 0.00896467)
(-1.10746 -5.36823 0.00966534)
(-1.17886 -5.09256 0.0102886)
(-1.24016 -4.79571 0.0108237)
(-1.29158 -4.48955 0.0112725)
(-1.33355 -4.1826 0.0116389)
(-1.36685 -3.88045 0.0119297)
(-1.39226 -3.58633 0.0121515)
(-1.41047 -3.30179 0.0123105)
(-1.4221 -3.0274 0.012412)
(-1.42764 -2.76314 0.0124605)
(-1.4275 -2.50876 0.0124594)
(-1.42205 -2.26395 0.0124118)
(-1.41156 -2.02843 0.0123204)
(-1.39632 -1.80198 0.0121875)
(-1.37657 -1.58449 0.0120151)
(-1.35254 -1.3759 0.0118054)
(-1.32444 -1.17626 0.0115602)
(-1.2925 -0.985618 0.0112815)
(-1.25691 -0.804094 0.0109709)
(-1.21787 -0.631823 0.0106303)
(-1.17557 -0.468961 0.0102611)
(-1.1302 -0.315686 0.00986513)
(-1.08193 -0.172204 0.00944393)
(-1.03096 -0.0387101 0.00899913)
(0.0698307 -16.6139 -0.000607676)
(0.412349 -35.9305 -0.00359836)
(0.131084 -37.6899 -0.00114365)
(0.779004 -45.5928 -0.00679823)
(0.650595 -51.6786 -0.00567822)
(0.956483 -53.4586 -0.00834821)
(0.56137 -42.955 -0.0049164)
(0.0743741 -31.0207 -0.000663377)
(-0.154387 -26.5771 0.00135325)
(-0.514326 -19.8792 0.00453471)
(-0.633748 -9.21614 0.00556078)
(-0.618815 -6.48336 0.00539561)
(-0.687729 -5.98824 0.00599639)
(-0.760069 -5.84731 0.00663088)
(-0.847613 -5.74838 0.00739678)
(-0.933527 -5.61411 0.00814715)
(-1.01829 -5.43037 0.00888702)
(-1.09596 -5.20094 0.00956492)
(-1.16575 -4.93823 0.0101742)
(-1.22614 -4.65483 0.0107013)
(-1.27727 -4.36183 0.0111477)
(-1.3194 -4.06731 0.0115154)
(-1.35318 -3.7767 0.0118103)
(-1.37928 -3.49318 0.0120382)
(-1.39833 -3.21841 0.0122046)
(-1.41089 -2.95301 0.0123143)
(-1.41743 -2.69707 0.0123714)
(-1.41833 -2.45041 0.0123793)
(-1.41392 -2.21276 0.0123409)
(-1.40447 -1.98389 0.0122585)
(-1.39025 -1.76363 0.0121344)
(-1.37148 -1.55188 0.0119707)
(-1.34839 -1.34863 0.0117691)
(-1.32118 -1.15392 0.0115317)
(-1.29006 -0.967851 0.0112602)
(-1.25523 -0.790545 0.0109562)
(-1.21687 -0.622161 0.0106215)
(-1.17518 -0.462876 0.0102577)
(-1.13033 -0.312881 0.0098663)
(-1.08252 -0.1724 0.00944907)
(-1.03193 -0.0416391 0.00900759)
(0.10967 -17.368 -0.00095541)
(0.355174 -36.3578 -0.00309935)
(0.212506 -38.2978 -0.00185419)
(0.775331 -46.2686 -0.0067663)
(0.653041 -52.1355 -0.00569964)
(0.90764 -53.6047 -0.00792198)
(0.549845 -42.4575 -0.00481705)
(0.0526137 -30.5095 -0.000475204)
(-0.169393 -26.1274 0.00148393)
(-0.541706 -19.4314 0.0047717)
(-0.652592 -9.09844 0.00572484)
(-0.631664 -6.34656 0.00550867)