/*--------------------------------*- C++ -*----------------------------------*\
| =========                 |                                                 |
| \\      /  F ield         | OpenFOAM: The Open Source CFD Toolbox           |
|  \\    /   O peration     | Version:  v2012                                 |
|   \\  /    A nd           | Website:  www.openfoam.com                      |
|    \\/     M anipulation  |                                                 |
\*---------------------------------------------------------------------------*/
FoamFile
{
    version     2.0;
    format      ascii;
    class       surfaceScalarField;
    location    "0.9";
    object      phi;
}
// * * * * * * * * * * * * * * * * * * * * * * * * * * * * * * * * * * * * * //

dimensions      [0 3 -1 0 0 0 0];
oriented        oriented;


internalField   nonuniform List<scalar> 
8134
(
-2.26442e-10
-5.35343e-11
4.34361e-15
-1.85698e-10
-4.06356e-11
1.17024e-14
-1.54109e-10
-3.14498e-11
1.59157e-14
-1.29192e-10
-2.48017e-11
1.39126e-14
-1.09253e-10
-1.98459e-11
1.11541e-14
-9.30567e-11
-1.61291e-11
8.17494e-15
-7.97443e-11
-1.32583e-11
6.52807e-15
-6.86792e-11
-1.10244e-11
4.97362e-15
-5.9394e-11
-9.25027e-12
4.21796e-15
-5.15368e-11
-7.82951e-12
3.35674e-15
-4.48374e-11
-6.67551e-12
2.88105e-15
-3.90866e-11
-5.73141e-12
2.35454e-15
-3.41194e-11
-4.95038e-12
1.99007e-15
-2.98065e-11
-4.29946e-12
1.61406e-15
-2.60431e-11
-3.75235e-12
1.29601e-15
-2.27467e-11
-3.28872e-12
9.21522e-16
-1.98486e-11
-2.89276e-12
6.4063e-16
-1.72943e-11
-2.55191e-12
3.18657e-16
-1.50375e-11
-2.25633e-12
8.41667e-17
-1.30413e-11
-1.99802e-12
-1.67598e-16
-1.1274e-11
-1.7707e-12
-3.4726e-16
-9.70975e-12
-1.5695e-12
-5.30657e-16
-8.32615e-12
-1.3901e-12
-6.52521e-16
-7.10352e-12
-1.23029e-12
-7.68106e-16
-6.02523e-12
-1.08672e-12
-8.30024e-16
-5.07612e-12
-9.58209e-13
-8.81351e-16
-4.24269e-12
-8.42827e-13
-8.9113e-16
-3.51284e-12
-7.39534e-13
-8.93842e-16
-2.87463e-12
-6.47816e-13
-8.67249e-16
-2.31783e-12
-5.66301e-13
-8.28632e-16
-1.83248e-12
-4.94561e-13
-7.81801e-16
-1.40954e-12
-4.31661e-13
-7.14458e-16
-1.0411e-12
-3.76593e-13
-6.43529e-16
-7.20486e-13
-3.28107e-13
-5.69435e-16
-4.43039e-13
-2.84218e-13
-4.93331e-16
-2.06387e-13
-2.42633e-13
-4.16866e-16
-1.15071e-14
-2.00101e-13
-3.47136e-16
1.36913e-13
-1.52879e-13
-2.81767e-16
2.2952e-13
-9.64276e-14
-2.28617e-16
2.55333e-13
-2.90721e-14
-1.83993e-16
2.04836e-13
4.75842e-14
-1.54443e-16
9.57461e-14
1.06386e-13
-1.34915e-16
9.31738e-14
-1.2812e-16
-5.85824e-10
-1.68505e-10
8.47104e-16
-4.93235e-10
-1.33158e-10
7.45713e-15
-4.17789e-10
-1.0679e-10
1.2484e-14
-3.56082e-10
-8.64157e-11
1.17229e-14
-3.05116e-10
-7.07307e-11
9.93404e-15
-2.62744e-10
-5.84414e-11
7.61576e-15
-2.27213e-10
-4.87372e-11
6.35262e-15
-1.97215e-10
-4.09828e-11
5.00757e-15
-1.71705e-10
-3.47258e-11
4.35832e-15
-1.49875e-10
-2.96307e-11
3.52817e-15
-1.31083e-10
-2.54421e-11
3.06981e-15
-1.14819e-10
-2.19756e-11
2.52901e-15
-1.00671e-10
-1.90805e-11
2.12202e-15
-8.83088e-11
-1.66469e-11
1.78547e-15
-7.7463e-11
-1.45862e-11
1.41545e-15
-6.79153e-11
-1.28283e-11
1.00808e-15
-5.94839e-11
-1.13183e-11
7.03585e-16
-5.20215e-11
-1.00118e-11
3.48826e-16
-4.54033e-11
-8.8739e-12
8.86827e-17
-3.95275e-11
-7.87568e-12
-1.93089e-16
-3.43074e-11
-6.99456e-12
-3.95487e-16
-2.96702e-11
-6.21233e-12
-6.02558e-16
-2.55543e-11
-5.51326e-12
-7.40317e-16
-2.19039e-11
-4.88906e-12
-8.71884e-16
-1.86729e-11
-4.32717e-12
-9.42801e-16
-1.58179e-11
-3.8232e-12
-1.0019e-15
-1.33013e-11
-3.36983e-12
-1.01471e-15
-1.10886e-11
-2.96304e-12
-1.02133e-15
-9.14593e-12
-2.60105e-12
-9.91749e-16
-7.44437e-12
-2.27839e-12
-9.47824e-16
-5.95542e-12
-1.9937e-12
-8.95897e-16
-4.65367e-12
-1.74305e-12
-8.19153e-16
-3.51648e-12
-1.5228e-12
-7.37879e-16
-2.52474e-12
-1.32812e-12
-6.52856e-16
-1.66492e-12
-1.1515e-12
-5.65669e-16
-9.2989e-13
-9.84237e-13
-4.77757e-16
-3.21265e-13
-8.14447e-13
-3.98317e-16
1.49045e-13
-6.28061e-13
-3.23266e-16
4.58155e-13
-4.09699e-13
-2.62605e-16
5.78327e-13
-1.52783e-13
-2.11557e-16
4.90639e-13
1.32119e-13
-1.77519e-16
2.38958e-13
3.55145e-13
-1.54605e-16
3.29385e-13
-1.4474e-16
-8.16954e-10
-2.94573e-10
5.58864e-15
-7.07848e-10
-2.42156e-10
1.16176e-14
-6.13851e-10
-2.00658e-10
1.48047e-14
-5.3328e-10
-1.6688e-10
1.28203e-14
-4.64192e-10
-1.39733e-10
1.01843e-14
-4.04943e-10
-1.17629e-10
7.63565e-15
-3.53995e-10
-9.96334e-11
6.24212e-15
-3.10075e-10
-8.48637e-11
4.92435e-15
-2.72077e-10
-7.26888e-11
4.27792e-15
-2.39088e-10
-6.25903e-11
3.48026e-15
-2.10344e-10
-5.41615e-11
3.03781e-15
-1.85206e-10
-4.70938e-11
2.51044e-15
-1.63144e-10
-4.11249e-11
2.08272e-15
-1.43718e-10
-3.60586e-11
1.81779e-15
-1.2656e-10
-3.17322e-11
1.42261e-15
-1.11366e-10
-2.80142e-11
1.0205e-15
-9.78784e-11
-2.47997e-11
7.20949e-16
-8.58851e-11
-2.20026e-11
3.67807e-16
-7.52041e-11
-1.95542e-11
1.05566e-16
-6.56844e-11
-1.73969e-11
-1.80189e-16
-5.71972e-11
-1.54855e-11
-3.88461e-16
-4.96321e-11
-1.37828e-11
-6.01102e-16
-4.28961e-11
-1.22567e-11
-7.4291e-16
-3.6903e-11
-1.08904e-11
-8.8063e-16
-3.1582e-11
-9.6576e-12
-9.55466e-16
-2.68658e-11
-8.5494e-12
-1.01735e-15
-2.26958e-11
-7.55035e-12
-1.03099e-15
-1.90177e-11
-6.65201e-12
-1.03785e-15
-1.57784e-11
-5.85092e-12
-1.00763e-15
-1.29323e-11
-5.13511e-12
-9.62638e-16
-1.04343e-11
-4.50203e-12
-9.11968e-16
-8.24406e-12
-3.943e-12
-8.33631e-16
-6.3257e-12
-3.45029e-12
-7.50773e-16
-4.6486e-12
-3.01357e-12
-6.63892e-16
-3.19102e-12
-2.61661e-12
-5.74531e-16
-1.94102e-12
-2.24087e-12
-4.85006e-16
-8.99997e-13
-1.86125e-12
-4.03629e-16
-8.50308e-14
-1.44795e-12
-3.27568e-16
4.7102e-13
-9.69956e-13
-2.65643e-16
7.28228e-13
-4.1357e-13
-2.13922e-16
6.62114e-13
1.95042e-13
-1.79649e-16
3.34685e-13
6.79613e-13
-1.5647e-16
6.61293e-13
-1.46123e-16
-9.52612e-10
-4.12092e-10
1.4322e-15
-8.4505e-10
-3.49695e-10
2.96927e-15
-7.48041e-10
-2.97621e-10
6.02488e-15
-6.61475e-10
-2.534e-10
6.42634e-15
-5.84686e-10
-2.16474e-10
6.04387e-15
-5.1686e-10
-1.85414e-10
5.27823e-15
-4.57048e-10
-1.59407e-10
4.8778e-15
-4.04346e-10
-1.37532e-10
4.20167e-15
-3.57886e-10
-1.19118e-10
3.86716e-15
-3.16889e-10
-1.0356e-10
3.25732e-15
-2.80661e-10
-9.03663e-11
2.90914e-15
-2.48589e-10
-7.91476e-11
2.435e-15
-2.20141e-10
-6.9556e-11
2.00914e-15
-1.94858e-10
-6.13267e-11
1.82338e-15
-1.72346e-10
-5.42322e-11
1.41213e-15
-1.52268e-10
-4.80838e-11
1.02386e-15
-1.34333e-10
-4.27282e-11
7.35095e-16
-1.18296e-10
-3.80372e-11
3.90003e-16
-1.03942e-10
-3.3907e-11
1.28515e-16
-9.10913e-11
-3.0249e-11
-1.56573e-16
-7.9587e-11
-2.69933e-11
-3.69509e-16
-6.92935e-11
-2.40816e-11
-5.852e-16
-6.00953e-11
-2.14624e-11
-7.29656e-16
-5.18836e-11
-1.91101e-11
-8.72752e-16
-4.45691e-11
-1.69816e-11
-9.51461e-16
-3.8065e-11
-1.50634e-11
-1.01645e-15
-3.22959e-11
-1.33299e-11
-1.03203e-15
-2.71913e-11
-1.17675e-11
-1.03989e-15
-2.26817e-11
-1.03711e-11
-1.01031e-15
-1.8707e-11
-9.1204e-12
-9.65756e-16
-1.52078e-11
-8.01155e-12
-9.16759e-16
-1.21307e-11
-7.0298e-12
-8.38318e-16
-9.42795e-12
-6.16216e-12
-7.55263e-16
-7.05865e-12
-5.39121e-12
-6.67516e-16
-4.99348e-12
-4.68933e-12
-5.7786e-16
-3.21579e-12
-4.02521e-12
-4.87496e-16
-1.72602e-12
-3.3568e-12
-4.05761e-16
-5.44743e-13
-2.63415e-12
-3.28965e-16
2.87875e-13
-1.80678e-12
-2.66935e-16
7.23017e-13
-8.52296e-13
-2.15032e-16
7.31966e-13
1.82895e-13
-1.80598e-16
3.87962e-13
1.02065e-12
-1.5726e-16
1.04647e-12
-1.46836e-16
-9.99016e-10
-5.03059e-10
3.47879e-15
-9.09026e-10
-4.39612e-10
7.92736e-15
-8.22709e-10
-3.8385e-10
9.86196e-15
-7.41601e-10
-3.34434e-10
8.77815e-15
-6.66514e-10
-2.91499e-10
7.03852e-15
-5.97751e-10
-2.5413e-10
5.74345e-15
-5.3524e-10
-2.21875e-10
4.95769e-15
-4.78716e-10
-1.94022e-10
4.18632e-15
-4.27774e-10
-1.70028e-10
3.76982e-15
-3.8196e-10
-1.49346e-10
3.15501e-15
-3.40809e-10
-1.31495e-10
2.81943e-15
-3.03857e-10
-1.16081e-10
2.36458e-15
-2.70675e-10
-1.02722e-10
1.93154e-15
-2.40865e-10
-9.11223e-11
1.80791e-15
-2.1407e-10
-8.1015e-11
1.3951e-15
-1.89973e-10
-7.21723e-11
1.02613e-15
-1.6829e-10
-6.44046e-11
7.51419e-16
-1.48775e-10
-5.75497e-11
4.17694e-16
-1.31207e-10
-5.14738e-11
1.57872e-16
-1.15396e-10
-4.60606e-11
-1.25902e-16
-1.01175e-10
-4.12174e-11
-3.44051e-16
-8.83962e-11
-3.68656e-11
-5.62564e-16
-7.69312e-11
-3.29348e-11
-7.09486e-16
-6.66574e-11
-2.93918e-11
-8.58521e-16
-5.74732e-11
-2.61751e-11
-9.41289e-16
-4.92786e-11
-2.32678e-11
-1.00938e-15
-4.19855e-11
-2.06333e-11
-1.02704e-15
-3.55112e-11
-1.82527e-11
-1.03592e-15
-2.97728e-11
-1.612e-11
-1.00695e-15
-2.46988e-11
-1.42049e-11
-9.62718e-16
-2.02176e-11
-1.2503e-11
-9.15684e-16
-1.62648e-11
-1.09922e-11
-8.377e-16
-1.27825e-11
-9.6536e-12
-7.55172e-16
-9.72061e-12
-8.46142e-12
-6.67458e-16
-7.04302e-12
-7.37444e-12
-5.77927e-16
-4.72855e-12
-6.34629e-12
-4.87612e-16
-2.77623e-12
-5.31487e-12
-4.05939e-16
-1.20878e-12
-4.2065e-12
-3.29104e-16
-7.16212e-14
-2.94814e-12
-2.67074e-16
5.79678e-13
-1.50717e-12
-2.15087e-16
7.12335e-13
4.70487e-14
-1.81039e-16
4.04752e-13
1.32527e-12
-1.57651e-16
1.44845e-12
-1.47177e-16
-9.9881e-10
-5.70113e-10
-4.06696e-15
-9.27697e-10
-5.10753e-10
-2.64591e-15
-8.55578e-10
-4.55976e-10
-3.43474e-17
-7.84541e-10
-4.05466e-10
1.43389e-15
-7.16092e-10
-3.59933e-10
2.00026e-15
-6.51187e-10
-3.19016e-10
2.63043e-15
-5.90373e-10
-2.82666e-10
3.0152e-15
-5.33906e-10
-2.50465e-10
3.05736e-15
-4.81824e-10
-2.22086e-10
3.07934e-15
-4.34025e-10
-1.97122e-10
2.75074e-15
-3.90322e-10
-1.75179e-10
2.57343e-15
-3.50461e-10
-1.55925e-10
2.21937e-15
-3.14174e-10
-1.38994e-10
1.8249e-15
-2.8118e-10
-1.24102e-10
1.75892e-15
-2.51208e-10
-1.10975e-10
1.3741e-15
-2.24001e-10
-9.9371e-11
1.03011e-15
-1.99316e-10
-8.90824e-11
7.71736e-16
-1.76936e-10
-7.9927e-11
4.51347e-16
-1.56657e-10
-7.17512e-11
1.93145e-16
-1.38299e-10
-6.44188e-11
-8.84845e-17
-1.217e-10
-5.78195e-11
-3.1339e-16
-1.06712e-10
-5.18584e-11
-5.34895e-16
-9.32055e-11
-4.64486e-11
-6.84745e-16
-8.10524e-11
-4.15525e-11
-8.40425e-16
-7.01461e-11
-3.70907e-11
-9.2813e-16
-6.03788e-11
-3.30448e-11
-9.99699e-16
-5.1655e-11
-2.93673e-11
-1.01923e-15
-4.38836e-11
-2.60349e-11
-1.02902e-15
-3.6972e-11
-2.30419e-11
-1.00135e-15
-3.084e-11
-2.03474e-11
-9.57971e-16
-2.54065e-11
-1.79466e-11
-9.11669e-16
-2.05983e-11
-1.58101e-11
-8.3413e-16
-1.63486e-11
-1.39123e-11
-7.51701e-16
-1.25999e-11
-1.22184e-11
-6.64304e-16
-9.30993e-12
-1.06718e-11
-5.74905e-16
-6.45342e-12
-9.20937e-12
-4.84869e-16
-4.02758e-12
-7.74641e-12
-4.03571e-16
-2.05631e-12
-6.18265e-12
-3.27176e-16
-5.88796e-13
-4.41982e-12
-2.65629e-16
3.13902e-13
-2.41342e-12
-2.13966e-16
6.14355e-13
-2.56577e-13
-1.80305e-16
3.90332e-13
1.54634e-12
-1.56919e-16
1.83601e-12
-1.46991e-16
-9.57979e-10
-6.11572e-10
3.71693e-15
-9.08371e-10
-5.60328e-10
3.40032e-15
-8.53699e-10
-5.10615e-10
3.53747e-15
-7.96304e-10
-4.62831e-10
3.47767e-15
-7.3813e-10
-4.18081e-10
2.84129e-15
-6.80615e-10
-3.76505e-10
2.98485e-15
-6.24808e-10
-3.38447e-10
3.0086e-15
-5.71423e-10
-3.03825e-10
2.95274e-15
-5.20905e-10
-2.72579e-10
2.88534e-15
-4.735e-10
-2.44504e-10
2.56656e-15
-4.29307e-10
-2.19352e-10
2.40579e-15
-3.88311e-10
-1.96905e-10
2.09311e-15
-3.50428e-10
-1.76862e-10
1.71879e-15
-3.15527e-10
-1.58988e-10
1.70152e-15
-2.83454e-10
-1.43037e-10
1.34776e-15
-2.54039e-10
-1.28777e-10
1.0335e-15
-2.27108e-10
-1.16007e-10
7.94218e-16
-2.02493e-10
-1.04539e-10
4.89655e-16
-1.80028e-10
-9.42145e-11
2.33728e-16
-1.59559e-10
-8.48871e-11
-4.53996e-17
-1.40944e-10
-7.64374e-11
-2.7759e-16
-1.24047e-10
-6.87602e-11
-5.02671e-16
-1.08746e-10
-6.17564e-11
-6.55848e-16
-9.49166e-11
-5.5389e-11
-8.19426e-16
-8.24543e-11
-4.95622e-11
-9.126e-16
-7.12491e-11
-4.42594e-11
-9.8832e-16
-6.12032e-11
-3.94234e-11
-1.00994e-15
-5.2221e-11
-3.50279e-11
-1.0205e-15
-4.42038e-11
-3.10693e-11
-9.93947e-16
-3.70661e-11
-2.74956e-11
-9.51042e-16
-3.07195e-11
-2.43034e-11
-9.06261e-16
-2.50839e-11
-2.14551e-11
-8.28853e-16
-2.00862e-11
-1.8919e-11
-7.47289e-16
-1.56622e-11
-1.66506e-11
-6.60126e-16
-1.17648e-11
-1.45767e-11
-5.71395e-16
-8.36472e-12
-1.26159e-11
-4.81983e-16
-5.45743e-12
-1.06594e-11
-4.01162e-16
-3.06722e-12
-8.57768e-12
-3.25222e-16
-1.24607e-12
-6.24509e-12
-2.64309e-16
-5.99061e-14
-3.60311e-12
-2.12949e-16
4.48136e-13
-7.67771e-13
-1.79644e-16
3.49352e-13
1.64219e-12
-1.56655e-16
2.18261e-12
-1.46399e-16
-9.02804e-10
-6.34542e-10
-8.62053e-15
-8.70502e-10
-5.927e-10
-7.7375e-15
-8.31244e-10
-5.49923e-10
-5.28663e-15
-7.87076e-10
-5.0703e-10
-2.88577e-15
-7.3986e-10
-4.65313e-10
-1.71331e-15
-6.91109e-10
-4.25259e-10
-7.98713e-17
-6.42053e-10
-3.87497e-10
9.35123e-16
-5.93642e-10
-3.52225e-10
1.63086e-15
-5.4658e-10
-3.19625e-10
2.01234e-15
-5.01366e-10
-2.897e-10
2.02482e-15
-4.58341e-10
-2.62362e-10
2.05119e-15
-4.17696e-10
-2.37535e-10
1.87736e-15
-3.79535e-10
-2.15009e-10
1.5787e-15
-3.43879e-10
-1.94631e-10
1.62828e-15
-3.10699e-10
-1.76205e-10
1.31656e-15
-2.79931e-10
-1.59536e-10
1.03667e-15
-2.51484e-10
-1.44447e-10
8.1851e-16
-2.25255e-10
-1.30765e-10
5.31052e-16
-2.01129e-10
-1.18338e-10
2.78e-16
-1.78993e-10
-1.07022e-10
2.12316e-18
-1.58735e-10
-9.6698e-11
-2.38211e-16
-1.40241e-10
-8.72581e-11
-4.67101e-16
-1.23407e-10
-7.85971e-11
-6.23498e-16
-1.08119e-10
-7.06839e-11
-7.96376e-16
-9.42807e-11
-6.34097e-11
-8.94915e-16
-8.17858e-11
-5.67636e-11
-9.74811e-16
-7.05384e-11
-5.06808e-11
-9.99069e-16
-6.04431e-11
-4.51339e-11
-1.01035e-15
-5.13985e-11
-4.01239e-11
-9.84758e-16
-4.33165e-11
-3.5588e-11
-9.43343e-16
-3.61041e-11
-3.15257e-11
-8.99369e-16
-2.96769e-11
-2.78917e-11
-8.22165e-16
-2.39567e-11
-2.46481e-11
-7.40873e-16
-1.88743e-11
-2.17411e-11
-6.54234e-16
-1.43788e-11
-1.90796e-11
-5.65983e-16
-1.04375e-11
-1.65637e-11
-4.77184e-16
-7.04386e-12
-1.40585e-11
-3.97022e-16
-4.22233e-12
-1.1404e-11
-3.21937e-16
-2.02699e-12
-8.44453e-12
-2.61511e-16
-5.2834e-13
-5.10524e-12
-2.10803e-16
2.22764e-13
-1.522e-12
-1.7785e-16
2.85881e-13
1.57617e-12
-1.55534e-16
2.46576e-12
-1.45346e-16
-8.34422e-10
-6.41108e-10
-2.34827e-15
-8.17845e-10
-6.09304e-10
-3.15205e-15
-7.93092e-10
-5.74694e-10
-2.29335e-15
-7.61867e-10
-5.38259e-10
-5.35698e-16
-7.25859e-10
-5.01317e-10
-1.01176e-16
-6.86546e-10
-4.64562e-10
9.90246e-16
-6.45219e-10
-4.2881e-10
1.45883e-15
-6.02951e-10
-3.94476e-10
1.83624e-15
-5.60613e-10
-3.61946e-10
1.96403e-15
-5.18881e-10
-3.31413e-10
1.88822e-15
-4.78279e-10
-3.0295e-10
1.87006e-15
-4.39173e-10
-2.76627e-10
1.72243e-15
-4.01827e-10
-2.52343e-10
1.45437e-15
-3.66403e-10
-2.30041e-10
1.55108e-15
-3.32999e-10
-2.09597e-10
1.27898e-15
-3.01656e-10
-1.90871e-10
1.03597e-15
-2.72372e-10
-1.73724e-10
8.41201e-16
-2.45119e-10
-1.58015e-10
5.73306e-16
-2.19841e-10
-1.43613e-10
3.24138e-16
-1.96474e-10
-1.30387e-10
5.21914e-17
-1.74945e-10
-1.18229e-10
-1.96117e-16
-1.55171e-10
-1.07036e-10
-4.28719e-16
-1.37073e-10
-9.67026e-11
-5.89005e-16
-1.20552e-10
-8.72116e-11
-7.75307e-16
-1.05526e-10
-7.84443e-11
-8.75651e-16
-9.18985e-11
-7.04001e-11
-9.59202e-16
-7.95798e-11
-6.30094e-11
-9.8636e-16
-6.84779e-11
-5.62464e-11
-9.98281e-16
-5.84924e-11
-5.01193e-11
-9.73988e-16
-4.95352e-11
-4.45555e-11
-9.337e-16
-4.15115e-11
-3.95592e-11
-8.91524e-16
-3.43346e-11
-3.50779e-11
-8.14511e-16
-2.79232e-11
-3.10685e-11
-7.34121e-16
-2.22044e-11
-2.74678e-11
-6.48196e-16
-1.71242e-11
-2.4167e-11
-5.60653e-16
-1.26475e-11
-2.10468e-11
-4.72397e-16
-8.76589e-12
-1.79457e-11
-3.93289e-16
-5.50348e-12
-1.46711e-11
-3.18858e-16
-2.91624e-12
-1.10358e-11
-2.59286e-16
-1.07955e-12
-6.94539e-12
-2.09029e-16
-5.36768e-14
-2.55096e-12
-1.76508e-16
2.03436e-13
1.31618e-12
-1.54308e-16
2.66649e-12
-1.44363e-16
-7.65991e-10
-7.71304e-15
-7.60912e-10
-7.83696e-15
-7.47621e-10
-5.88043e-10
-6.69113e-15
-7.27346e-10
-5.58572e-10
-4.18385e-15
-7.01423e-10
-5.27268e-10
-3.088e-15
-6.71105e-10
-4.94894e-10
-1.3376e-15
-6.37573e-10
-4.62346e-10
-3.27896e-16
-6.01876e-10
-4.30171e-10
5.39494e-16
-5.64922e-10
-3.98893e-10
1.03299e-15
-5.27474e-10
-3.6885e-10
1.27353e-15
-4.90161e-10
-3.40252e-10
1.4416e-15
-4.53475e-10
-3.13303e-10
1.4518e-15
-4.178e-10
-2.88007e-10
1.28853e-15
-3.8342e-10
-2.64408e-10
1.45408e-15
-3.50542e-10
-2.42464e-10
1.23448e-15
-3.19306e-10
-2.22098e-10
1.03264e-15
-2.89797e-10
-2.03226e-10
8.62431e-16
-2.62061e-10
-1.85746e-10
6.14973e-16
-2.36109e-10
-1.69562e-10
3.70317e-16
-2.11929e-10
-1.54566e-10
1.03204e-16
-1.89491e-10
-1.40668e-10
-1.52793e-16
-1.68749e-10
-1.2778e-10
-3.89642e-16
-1.49653e-10
-1.15805e-10
-5.67471e-16
-1.32127e-10
-1.04744e-10
-7.56919e-16
-1.16108e-10
-9.44724e-11
-8.56506e-16
-1.01511e-10
-8.50059e-11
-9.41875e-16
-8.8257e-11
-7.62728e-11
-9.71606e-16
-7.62617e-11
-6.82522e-11
-9.84867e-16
-6.54282e-11
-6.09625e-11
-9.61691e-16
-5.56713e-11
-5.43226e-11
-9.23553e-16
-4.68969e-11
-4.83433e-11
-8.82224e-16
-3.90177e-11
-4.29663e-11
-8.05552e-16
-3.19511e-11
-3.81439e-11
-7.25632e-16
-2.56221e-11
-3.38046e-11
-6.39986e-16
-1.99748e-11
-2.98215e-11
-5.53544e-16
-1.49719e-11
-2.60559e-11
-4.66057e-16
-1.06036e-11
-2.23195e-11
-3.87823e-16
-6.8936e-12
-1.83857e-11
-3.14261e-16
-3.89969e-12
-1.40337e-11
-2.55539e-16
-1.70257e-12
-9.14591e-12
-2.06112e-16
-3.74076e-13
-3.88251e-12
-1.74251e-16
1.04967e-13
8.34293e-13
-1.5277e-16
2.76878e-12
-1.42725e-16
-6.97249e-10
-5.91674e-10
-5.13647e-15
-6.86519e-10
-5.69329e-10
-3.03864e-15
-6.69665e-10
-5.44136e-10
-2.0954e-15
-6.47719e-10
-5.16844e-10
-6.22946e-16
-6.21712e-10
-4.88352e-10
3.09631e-17
-5.9261e-10
-4.59266e-10
6.38097e-16
-5.61301e-10
-4.30194e-10
9.23381e-16
-5.28565e-10
-4.01575e-10
1.09366e-15
-4.95085e-10
-3.73722e-10
1.22067e-15
-4.61426e-10
-3.46952e-10
1.26572e-15
-4.28058e-10
-3.21365e-10
1.15243e-15
-3.95355e-10
-2.971e-10
1.3593e-15
-3.63613e-10
-2.74195e-10
1.18588e-15
-3.3306e-10
-2.52643e-10
1.02446e-15
-3.03858e-10
-2.3242e-10
8.79691e-16
-2.76126e-10
-2.13474e-10
6.53842e-16
-2.49936e-10
-1.95749e-10
4.15154e-16
-2.2533e-10
-1.79169e-10
1.51247e-16
-2.02327e-10
-1.63672e-10
-1.0917e-16
-1.80918e-10
-1.49192e-10
-3.50346e-16
-1.61085e-10
-1.35644e-10
-5.50852e-16
-1.4278e-10
-1.23055e-10
-7.31383e-16
-1.25961e-10
-1.113e-10
-8.34274e-16
-1.1056e-10
-1.00416e-10
-9.23545e-16
-9.65112e-11
-9.03312e-11
-9.55232e-16
-8.37397e-11
-8.10341e-11
-9.69589e-16
-7.21557e-11
-7.25561e-11
-9.47933e-16
-6.16793e-11
-6.4809e-11
-9.11212e-16
-5.22191e-11
-5.78131e-11
-8.71998e-16
-4.36895e-11
-5.15051e-11
-7.95601e-16
-3.6008e-11
-4.58341e-11
-7.1691e-16
-2.9099e-11
-4.07214e-11
-6.32179e-16
-2.29055e-11
-3.60221e-11
-5.46664e-16
-1.73889e-11
-3.15788e-11
-4.60095e-16
-1.2538e-11
-2.71757e-11
-3.82876e-16
-8.37668e-12
-2.25517e-11
-3.10434e-16
-4.96427e-12
-1.745e-11
-2.52463e-16
-2.38755e-12
-1.1726e-11
-2.03888e-16
-7.32142e-13
-5.54093e-12
-1.7242e-16
-9.14747e-15
1.08494e-13
-1.51317e-16
2.75699e-12
-1.41387e-16
-6.46264e-10
-5.881e-10
-5.64966e-15
-6.43091e-10
-5.72536e-10
-3.80818e-15
-6.33809e-10
-5.53445e-10
-3.24169e-15
-6.19181e-10
-5.3149e-10
-1.98776e-15
-6.00031e-10
-5.07514e-10
-1.27581e-15
-5.77182e-10
-4.8212e-10
-4.45991e-16
-5.51433e-10
-4.55942e-10
1.11039e-16
-5.23528e-10
-4.29475e-10
5.37447e-16
-4.94148e-10
-4.03097e-10
8.0866e-16
-4.63885e-10
-3.77209e-10
9.95775e-16
-4.33256e-10
-3.51986e-10
9.96479e-16
-4.02696e-10
-3.27649e-10
1.25247e-15
-3.72567e-10
-3.04313e-10
1.13466e-15
-3.43165e-10
-2.82037e-10
1.01448e-15
-3.14719e-10
-2.60858e-10
8.94635e-16
-2.87411e-10
-2.40777e-10
6.89811e-16
-2.61371e-10
-2.21785e-10
4.57649e-16
-2.36694e-10
-2.03843e-10
1.9622e-16
-2.13443e-10
-1.86924e-10
-6.65502e-17
-1.91649e-10
-1.70988e-10
-3.12615e-16
-1.71331e-10
-1.55969e-10
-5.23259e-16
-1.52467e-10
-1.41925e-10
-7.00947e-16
-1.35038e-10
-1.28737e-10
-8.09702e-16
-1.18997e-10
-1.16465e-10
-9.03232e-16
-1.04294e-10
-1.05044e-10
-9.37167e-16
-9.08656e-11
-9.44726e-11
-9.53083e-16
-7.86315e-11
-8.47995e-11
-9.32859e-16
-6.75191e-11
-7.59314e-11
-8.98348e-16
-5.74417e-11
-6.79e-11
-8.60174e-16
-4.83169e-11
-6.06388e-11
-7.84545e-16
-4.00642e-11
-5.40953e-11
-7.06535e-16
-3.26085e-11
-4.81847e-11
-6.22242e-16
-2.58928e-11
-4.27447e-11
-5.37766e-16
-1.98778e-11
-3.75999e-11
-4.52169e-16
-1.45516e-11
-3.25071e-11
-3.75996e-16
-9.93782e-12
-2.71699e-11
-3.04777e-16
-6.09801e-12
-2.12937e-11
-2.47849e-16
-3.12563e-12
-1.47017e-11
-2.00495e-16
-1.12225e-12
-7.54728e-12
-1.6966e-16
-1.30468e-13
-8.86047e-13
-1.48859e-16
2.62392e-12
-1.39313e-16
-5.95578e-10
-5.78818e-10
-5.40697e-15
-5.98565e-10
-5.69573e-10
-2.96545e-15
-5.95644e-10
-5.56381e-10
-2.15392e-15
-5.87353e-10
-5.39789e-10
-1.09e-15
-5.74325e-10
-5.20547e-10
-6.88258e-16
-5.57233e-10
-4.99212e-10
-1.59687e-16
-5.36768e-10
-4.76405e-10
1.57759e-16
-5.13602e-10
-4.52635e-10
4.68171e-16
-4.88381e-10
-4.28313e-10
6.58625e-16
-4.6169e-10
-4.03894e-10
8.47191e-16
-4.34062e-10
-3.79606e-10
8.89517e-16
-4.05962e-10
-3.55738e-10
1.15964e-15
-3.77797e-10
-3.32467e-10
1.08558e-15
-3.49911e-10
-3.09914e-10
1.00167e-15
-3.22587e-10
-2.88175e-10
9.05468e-16
-2.96057e-10
-2.67302e-10
7.21797e-16
-2.70504e-10
-2.47334e-10
4.96779e-16
-2.46069e-10
-2.28275e-10
2.37472e-16
-2.22859e-10
-2.10135e-10
-2.62776e-17
-2.00944e-10
-1.92904e-10
-2.93513e-16
-1.80374e-10
-1.76543e-10
-4.88726e-16
-1.6116e-10
-1.61145e-10
-6.67818e-16
-1.43306e-10
-1.46599e-10
-7.83504e-16
-1.26786e-10
-1.32993e-10
-8.79668e-16
-1.11568e-10
-1.20272e-10
-9.17636e-16
-9.7602e-11
-1.08448e-10
-9.35175e-16
-8.48192e-11
-9.75913e-11
-9.16368e-16
-7.31561e-11
-8.76043e-11
-8.82951e-16
-6.25321e-11
-7.85332e-11
-8.47581e-16
-5.28701e-11
-7.03096e-11
-7.72511e-16
-4.40926e-11
-6.28813e-11
-6.95948e-16
-3.61262e-11
-5.61585e-11
-6.12943e-16
-2.8915e-11
-4.99627e-11
-5.29514e-16
-2.24196e-11
-4.41012e-11
-4.45157e-16
-1.66277e-11
-3.83041e-11
-3.70156e-16
-1.15633e-11
-3.22388e-11
-3.00047e-16
-7.28996e-12
-2.55708e-11
-2.44101e-16
-3.90892e-12
-1.80859e-11
-1.97464e-16
-1.53977e-12
-9.91935e-12
-1.67312e-16
-2.63266e-13
-2.16527e-12
-1.46826e-16
2.35809e-12
-1.3773e-16
-5.47151e-10
-5.65537e-10
-5.08054e-15
-5.5478e-10
-5.61971e-10
-3.10981e-15
-5.56918e-10
-5.54265e-10
-2.66673e-15
-5.53892e-10
-5.42833e-10
-1.86205e-15
-5.46141e-10
-5.28311e-10
-1.51668e-15
-5.3418e-10
-5.11182e-10
-8.80604e-16
-5.18572e-10
-4.92018e-10
-4.48279e-16
-4.99896e-10
-4.71311e-10
3.60777e-18
-4.78735e-10
-4.49473e-10
2.96657e-16
-4.55639e-10
-4.26986e-10
6.14106e-16
-4.3113e-10
-4.04109e-10
7.73302e-16
-4.0568e-10
-3.81179e-10
1.04783e-15
-3.79718e-10
-3.5842e-10
1.03504e-15
-3.53617e-10
-3.36007e-10
9.87775e-16
-3.27699e-10
-3.14085e-10
9.13359e-16
-3.02237e-10
-2.92758e-10
7.49212e-16
-2.77454e-10
-2.72112e-10
5.31094e-16
-2.53534e-10
-2.52192e-10
2.53793e-16
-2.30622e-10
-2.33048e-10
1.08977e-17
-2.08822e-10
-2.14705e-10
-2.62556e-16
-1.8822e-10
-1.97152e-10
-4.50847e-16
-1.6885e-10
-1.80519e-10
-6.34438e-16
-1.50747e-10
-1.6471e-10
-7.57158e-16
-1.33903e-10
-1.49844e-10
-8.55019e-16
-1.18305e-10
-1.35879e-10
-8.96738e-16
-1.0392e-10
-1.22844e-10
-9.15867e-16
-9.06892e-11
-1.10831e-10
-8.97942e-16
-7.8561e-11
-9.9742e-11
-8.67467e-16
-6.74626e-11
-8.96407e-11
-8.33097e-16
-5.73227e-11
-8.04581e-11
-7.5909e-16
-4.80687e-11
-7.21437e-11
-6.83196e-16
-3.96297e-11
-6.46047e-11
-6.01218e-16
-3.1952e-11
-5.76472e-11
-5.18976e-16
-2.49965e-11
-5.10625e-11
-4.35824e-16
-1.87512e-11
-4.45545e-11
-3.62343e-16
-1.32403e-11
-3.7754e-11
-2.93552e-16
-8.53022e-12
-3.02845e-11
-2.38705e-16
-4.73042e-12
-2.18889e-11
-1.93114e-16
-1.98061e-12
-1.2672e-11
-1.63871e-16
-4.04165e-13
-3.74438e-12
-1.44075e-16
1.95141e-12
-1.35195e-16
-5.01147e-10
-5.49308e-10
-4.69283e-15
-5.12351e-10
-5.50788e-10
-2.65334e-15
-5.1853e-10
-5.48101e-10
-2.07847e-15
-5.19848e-10
-5.41527e-10
-1.35227e-15
-5.16587e-10
-5.31581e-10
-1.1693e-15
-5.09118e-10
-5.18656e-10
-7.15871e-16
-4.97882e-10
-5.03257e-10
-4.24855e-16
-4.83356e-10
-4.85835e-10
-8.13975e-17
-4.66049e-10
-4.66779e-10
1.59856e-16
-4.46459e-10
-4.46572e-10
4.77754e-16
-4.25076e-10
-4.25487e-10
6.96205e-16
-4.0236e-10
-4.03885e-10
8.85816e-16
-3.78743e-10
-3.82029e-10
9.86821e-16
-3.54612e-10
-3.60129e-10
9.7305e-16
-3.30312e-10
-3.38377e-10
9.17851e-16
-3.06145e-10
-3.16919e-10
7.62901e-16
-2.82367e-10
-2.95886e-10
5.60882e-16
-2.59192e-10
-2.75363e-10
2.74408e-16
-2.368e-10
-2.55439e-10
4.57877e-17
-2.15328e-10
-2.36179e-10
-2.25681e-16
-1.94888e-10
-2.17596e-10
-4.13137e-16
-1.75545e-10
-1.99867e-10
-6.0331e-16
-1.57356e-10
-1.82907e-10
-7.29764e-16
-1.40335e-10
-1.66873e-10
-8.29448e-16
-1.24488e-10
-1.51735e-10
-8.7456e-16
-1.09797e-10
-1.37544e-10
-8.95188e-16
-9.62183e-11
-1.24418e-10
-8.78408e-16
-8.37103e-11
-1.1226e-10
-8.49347e-16
-7.22094e-11
-1.0115e-10
-8.17951e-16
-6.1652e-11
-9.10239e-11
-7.44902e-16
-5.19709e-11
-8.1833e-11
-6.70744e-16
-4.30991e-11
-7.34836e-11
-5.90031e-16
-3.49854e-11
-6.57676e-11
-5.09479e-16
-2.75922e-11
-5.84615e-11
-4.2765e-16
-2.09078e-11
-5.12438e-11
-3.55459e-16
-1.49573e-11
-4.37088e-11
-2.88004e-16
-9.80982e-12
-3.54356e-11
-2.34446e-16
-5.58394e-12
-2.61179e-11
-1.89849e-16
-2.44131e-12
-1.58175e-11
-1.61127e-16
-5.51989e-13
-5.6363e-12
-1.41732e-16
1.39696e-12
-1.33032e-16
-4.58345e-10
-5.31209e-10
-4.66892e-15
-4.72084e-10
-5.37075e-10
-2.91384e-15
-4.81331e-10
-5.38873e-10
-2.46695e-15
-4.86112e-10
-5.36762e-10
-1.82765e-15
-4.86571e-10
-5.31136e-10
-1.65431e-15
-4.82947e-10
-5.22291e-10
-1.16366e-15
-4.75561e-10
-5.10651e-10
-8.06146e-16
-4.6479e-10
-4.96608e-10
-3.7333e-16
-4.51059e-10
-4.80511e-10
-8.43438e-17
-4.34803e-10
-4.62827e-10
2.9039e-16
-4.16468e-10
-4.43818e-10
5.6609e-16
-3.96486e-10
-4.23859e-10
8.04461e-16
-3.75276e-10
-4.0323e-10
9.30767e-16
-3.53227e-10
-3.8217e-10
9.58841e-16
-3.30692e-10
-3.60904e-10
9.20275e-16
-3.0799e-10
-3.39615e-10
7.55926e-16
-2.85399e-10
-3.18472e-10
5.86072e-16
-2.63161e-10
-2.97597e-10
3.08315e-16
-2.41479e-10
-2.77121e-10
7.76819e-17
-2.20518e-10
-2.57141e-10
-1.89376e-16
-2.00417e-10
-2.37702e-10
-3.79145e-16
-1.81265e-10
-2.19024e-10
-5.74756e-16
-1.63141e-10
-2.01038e-10
-7.01166e-16
-1.46081e-10
-1.8394e-10
-8.03396e-16
-1.30108e-10
-1.67716e-10
-8.51235e-16
-1.15221e-10
-1.5244e-10
-8.72934e-16
-1.0139e-10
-1.38258e-10
-8.57306e-16
-8.85852e-11
-1.25074e-10
-8.31023e-16
-7.67532e-11
-1.12991e-10
-8.00614e-16
-6.58385e-11
-1.01947e-10
-7.2904e-16
-5.57802e-11
-9.18993e-11
-6.55907e-16
-4.65163e-11
-8.27545e-11
-5.76336e-16
-3.79987e-11
-7.42916e-11
-4.97209e-16
-3.01918e-11
-6.62739e-11
-4.16845e-16
-2.30848e-11
-5.83556e-11
-3.46237e-16
-1.67036e-11
-5.00941e-11
-2.80592e-16
-1.11207e-11
-4.1022e-11
-2.28388e-16
-6.46411e-12
-3.07776e-11
-1.84955e-16
-2.91898e-12
-1.93653e-11
-1.57245e-16
-7.05858e-13
-7.85197e-12
-1.38543e-16
6.88686e-13
-1.29961e-16
-4.18585e-10
-5.11902e-10
-3.79494e-15
-4.34127e-10
-5.2155e-10
-2.13061e-15
-4.45695e-10
-5.27319e-10
-1.80209e-15
-4.53213e-10
-5.29256e-10
-1.30159e-15
-4.56717e-10
-5.27642e-10
-1.26059e-15
-4.56337e-10
-5.22678e-10
-9.26848e-16
-4.52292e-10
-5.14702e-10
-6.9107e-16
-4.44862e-10
-5.04038e-10
-3.53128e-16
-4.34391e-10
-4.90984e-10
-1.325e-16
-4.21245e-10
-4.75971e-10
2.23903e-16
-4.05819e-10
-4.59241e-10
4.73718e-16
-3.88506e-10
-4.41163e-10
7.7048e-16
-3.69702e-10
-4.22026e-10
8.88871e-16
-3.49783e-10
-4.02081e-10
9.37347e-16
-3.29103e-10
-3.81577e-10
9.17923e-16
-3.07986e-10
-3.60726e-10
7.71456e-16
-2.86722e-10
-3.3973e-10
6.06139e-16
-2.65571e-10
-3.18744e-10
3.4038e-16
-2.44757e-10
-2.97934e-10
1.03955e-16
-2.24465e-10
-2.77433e-10
-1.6113e-16
-2.04856e-10
-2.57315e-10
-3.51693e-16
-1.86042e-10
-2.37842e-10
-5.4454e-16
-1.6812e-10
-2.18966e-10
-6.72683e-16
-1.51148e-10
-2.0092e-10
-7.76871e-16
-1.35164e-10
-1.83708e-10
-8.26732e-16
-1.20185e-10
-1.67429e-10
-8.4954e-16
-1.06193e-10
-1.52257e-10
-8.3494e-16
-9.31722e-11
-1.38104e-10
-8.0968e-16
-8.10786e-11
-1.25093e-10
-7.82717e-16
-6.98659e-11
-1.13168e-10
-7.12308e-16
-5.94804e-11
-1.02293e-10
-6.41128e-16
-4.98654e-11
-9.23762e-11
-5.63317e-16
-4.0977e-11
-8.31863e-11
-4.86021e-16
-3.27818e-11
-7.44745e-11
-4.07599e-16
-2.52704e-11
-6.58718e-11
-3.38532e-16
-1.84698e-11
-5.68987e-11
-2.74266e-16
-1.24557e-11
-4.70395e-11
-2.2341e-16
-7.36626e-12
-3.587e-11
-1.81103e-16
-3.41129e-12
-2.3323e-11
-1.54206e-16
-8.65145e-13
-1.04006e-11
-1.3573e-16
-1.78815e-13
-1.27649e-16
-3.82079e-10
-4.9203e-10
-3.27018e-15
-3.98759e-10
-5.04886e-10
-1.87522e-15
-4.11976e-10
-5.14114e-10
-1.69874e-15
-4.21578e-10
-5.19666e-10
-1.32918e-15
-4.27513e-10
-5.21719e-10
-1.36547e-15
-4.29819e-10
-5.20381e-10
-1.08954e-15
-4.28623e-10
-5.15906e-10
-8.60918e-16
-4.2412e-10
-5.08545e-10
-5.07349e-16
-4.16573e-10
-4.98534e-10
-2.73055e-16
-4.06282e-10
-4.86262e-10
1.13194e-16
-3.93583e-10
-4.71937e-10
3.30585e-16
-3.78827e-10
-4.55912e-10
7.43485e-16
-3.62377e-10
-4.38467e-10
8.41931e-16
-3.44589e-10
-4.19861e-10
9.1773e-16
-3.25804e-10
-4.00354e-10
9.0727e-16
-3.06347e-10
-3.80178e-10
7.76872e-16
-2.86509e-10
-3.59561e-10
6.16587e-16
-2.66561e-10
-3.38688e-10
3.59907e-16
-2.46741e-10
-3.17754e-10
1.25066e-16
-2.2725e-10
-2.96925e-10
-1.33503e-16
-2.08265e-10
-2.76304e-10
-3.22474e-16
-1.89917e-10
-2.56195e-10
-5.14345e-16
-1.72321e-10
-2.36569e-10
-6.44623e-16
-1.55551e-10
-2.17696e-10
-7.50332e-16
-1.39663e-10
-1.99604e-10
-8.01326e-16
-1.24688e-10
-1.82413e-10
-8.24662e-16
-1.10623e-10
-1.66331e-10
-8.11117e-16
-9.74622e-11
-1.51273e-10
-7.8894e-16
-8.51742e-11
-1.37389e-10
-7.62872e-16
-7.37212e-11
-1.24628e-10
-6.93906e-16
-6.30577e-11
-1.12964e-10
-6.23941e-16
-5.31327e-11
-1.02308e-10
-5.47537e-16
-4.3907e-11
-9.24181e-11
-4.72121e-16
-3.53501e-11
-8.30367e-11
-3.95349e-16
-2.74539e-11
-7.37724e-11
-3.28331e-16
-2.02471e-11
-6.41094e-11
-2.65906e-16
-1.38085e-11
-5.34814e-11
-2.16573e-16
-8.28642e-12
-4.1395e-11
-1.75576e-16
-3.91641e-12
-2.76956e-11
-1.49651e-16
-1.02945e-12
-1.329e-11
-1.32062e-16
-1.21056e-12
-1.24305e-16
-3.48561e-10
-4.71989e-10
-3.21502e-15
-3.65913e-10
-4.87549e-10
-1.78133e-15
-3.8027e-10
-4.99769e-10
-1.56276e-15
-3.91429e-10
-5.08517e-10
-1.16695e-15
-3.99274e-10
-5.13883e-10
-1.18185e-15
-4.03772e-10
-5.1589e-10
-9.61076e-16
-4.04975e-10
-5.1471e-10
-7.83029e-16
-4.03001e-10
-5.1052e-10
-4.88858e-16
-3.98044e-10
-5.03494e-10
-2.9923e-16
-3.90337e-10
-4.93969e-10
7.06018e-17