/*--------------------------------*- C++ -*----------------------------------*\
| =========                 |                                                 |
| \\      /  F ield         | OpenFOAM: The Open Source CFD Toolbox           |
|  \\    /   O peration     | Version:  v2012                                 |
|   \\  /    A nd           | Website:  www.openfoam.com                      |
|    \\/     M anipulation  |                                                 |
\*---------------------------------------------------------------------------*/
FoamFile
{
    version     2.0;
    format      ascii;
    class       surfaceScalarField;
    location    "0.8";
    object      alphaPhi0.water;
}
// * * * * * * * * * * * * * * * * * * * * * * * * * * * * * * * * * * * * * //

dimensions      [0 3 -1 0 0 0 0];
oriented        oriented;


internalField   nonuniform List<scalar> 
8048
(
-1.83296e-12
-7.52913e-09
-3.64873e-15
1.40574e-11
-2.28381e-08
-9.23757e-15
5.69016e-10
-3.93915e-08
-5.27662e-15
9.26825e-10
-6.21553e-08
-1.12856e-14
1.43627e-09
-8.74799e-08
-1.10445e-14
2.01019e-09
-1.14298e-07
-1.8407e-14
2.31361e-09
-1.34209e-07
-2.03012e-14
-1.30942e-07
-1.46357e-14
-1.88645e-12
-7.52724e-09
-3.25359e-15
1.80112e-11
-2.2858e-08
-8.27838e-15
5.11711e-10
-3.98852e-08
-3.74112e-15
8.5765e-10
-6.25012e-08
-4.5447e-15
1.38205e-09
-8.80043e-08
-1.71835e-14
1.93677e-09
-1.14852e-07
-8.62432e-15
2.19816e-09
-1.3447e-07
-1.09555e-14
1.30693e-09
-1.3005e-07
1.00387e-14
-6.10249e-10
-9.97108e-08
-2.36369e-14
-2.04847e-09
-6.6709e-08
-7.28442e-14
-3.2246e-09
-3.50045e-08
-1.66384e-14
-3.75587e-09
-1.78872e-08
-1.21428e-14
-3.00269e-09
-1.66362e-08
-3.36632e-15
-7.34864e-10
-9.10328e-09
-1.86174e-15
-1.73923e-09
-3.39307e-16
-1.72971e-12
-7.52551e-09
-3.21033e-15
2.21778e-11
-2.28819e-08
-9.06017e-15
4.57118e-10
-4.03201e-08
-7.37783e-15
7.99928e-10
-6.2844e-08
-9.85395e-15
1.33429e-09
-8.85387e-08
-1.29057e-14
1.8675e-09
-1.15386e-07
-9.47222e-15
2.09339e-09
-1.34696e-07
-2.24248e-14
1.13995e-09
-1.29096e-07
-4.04758e-15
-8.45267e-10
-9.76823e-08
-1.79057e-14
-2.2765e-09
-6.5245e-08
-7.87537e-14
-3.5104e-09
-3.37634e-08
-7.81294e-15
-3.97592e-09
-1.72418e-08
7.80328e-15
-2.98764e-09
-1.54973e-08
-2.03501e-15
-7.06175e-10
-8.12351e-09
-1.61837e-15
-1.5353e-09
-3.02791e-16
-1.3117e-12
-7.5242e-09
-3.51745e-15
2.7577e-11
-2.29108e-08
-1.04168e-14
4.08481e-10
-4.0701e-08
-7.84241e-15
7.56478e-10
-6.3192e-08
-7.05021e-15
1.29785e-09
-8.90801e-08
-2.06698e-14
1.81101e-09
-1.15899e-07
-1.28908e-14
2.00771e-09
-1.34893e-07
-1.20951e-14
1.002e-09
-1.2809e-07
-1.3329e-15
-1.05314e-09
-9.55783e-08
-1.97133e-14
-2.49013e-09
-6.37663e-08
-8.7592e-14
-3.79852e-09
-3.24443e-08
-3.81127e-14
-4.17906e-09
-1.66076e-08
5.81551e-15
-2.94542e-09
-1.43651e-08
-1.81883e-15
-6.72326e-10
-7.19651e-09
-1.56088e-15
-1.34371e-09
-2.79311e-16
-6.55984e-13
-7.52354e-09
-2.80294e-15
3.47353e-11
-2.29462e-08
-9.48393e-15
3.6823e-10
-4.10345e-08
-9.64186e-15
7.28941e-10
-6.35527e-08
-7.73334e-15
1.27666e-09
-8.96278e-08
-1.25836e-14
1.77157e-09
-1.16394e-07
-1.4739e-14
1.94226e-09
-1.35063e-07
-1.00156e-14
8.90268e-10
-1.27038e-07
-5.19595e-15
-1.24744e-09
-9.33855e-08
-2.68263e-14
-2.70935e-09
-6.22511e-08
-9.42437e-14
-4.09359e-09
-3.10439e-08
-7.18551e-14
-4.36107e-09
-1.59858e-08
-2.71552e-15
-2.87618e-09
-1.32426e-08
-2.17921e-15
-6.34099e-10
-6.32649e-09
-1.3522e-15
-1.16574e-09
-2.52864e-16
1.77909e-13
-7.52372e-09
-3.93504e-15
4.34644e-11
-2.29895e-08
-1.15365e-14
3.38605e-10
-4.13297e-08
-5.65073e-15
7.18927e-10
-6.3933e-08
-9.39314e-15
1.27281e-09
-9.01817e-08
-1.61115e-14
1.7489e-09
-1.1687e-07
-1.13881e-14
1.89303e-09
-1.35207e-07
-1.10529e-14
7.98692e-10
-1.25943e-07
-9.37309e-15
-1.44431e-09
-9.10803e-08
-3.00212e-14
-2.95706e-09
-6.06699e-08
-1.00945e-13
-4.39655e-09
-2.95807e-08
-9.02342e-14
-4.51587e-09
-1.53769e-08
-2.54779e-14
-2.7806e-09
-1.21343e-08
-5.71437e-15
-5.92293e-10
-5.51736e-09
-1.32917e-15
-1.00231e-09
-2.24203e-16
1.10623e-12
-7.52482e-09
-2.92444e-15
5.2602e-11
-2.3041e-08
-1.00158e-14
3.20002e-10
-4.15971e-08
-8.38598e-15
7.25762e-10
-6.43388e-08
-1.20612e-14
1.28539e-09
-9.07413e-08
-1.07356e-14
1.73944e-09
-1.17324e-07
-1.36566e-14
1.85392e-09
-1.35322e-07
-1.29013e-14
7.23179e-10
-1.24812e-07
-9.37744e-15
-1.65718e-09
-8.86296e-08
-2.45752e-14
-3.25295e-09
-5.89853e-08
-8.75252e-14
-4.70239e-09
-2.80955e-08
-1.21697e-13
-4.63468e-09
-1.47764e-08
-4.42672e-14
-2.65986e-09
-1.10462e-08
-7.45163e-15
-5.47686e-10
-4.77229e-09
-1.33156e-15
-8.5388e-10
-2.07388e-16
2.03459e-12
-7.52686e-09
-3.05959e-15
6.07881e-11
-2.30998e-08
-8.91971e-15
3.12923e-10
-4.18492e-08
-7.77306e-15
7.49193e-10
-6.4775e-08
-1.00864e-14
1.31281e-09
-9.1305e-08
-1.22106e-14
1.73909e-09
-1.1775e-07
-1.37792e-14
1.81929e-09
-1.35402e-07
-9.00025e-15
6.64282e-10
-1.23656e-07
-1.06075e-14
-1.89263e-09
-8.59935e-08
-2.0197e-14
-3.60809e-09
-5.71531e-08
-6.58272e-14
-4.99741e-09
-2.66468e-08
-1.35504e-13
-4.70622e-09
-1.41735e-08
-4.0013e-14
-2.51564e-09
-9.98462e-09
-5.33818e-15
-5.01013e-10
-4.09331e-09
-1.20425e-15
-7.20542e-10
-1.85404e-16
2.90245e-12
-7.52976e-09
-1.44545e-15
6.67609e-11
-2.31636e-08
-9.08319e-15
3.1672e-10
-4.20991e-08
-8.45231e-15
7.8739e-10
-6.52457e-08
-1.14859e-14
1.3511e-09
-9.18687e-08
-1.17309e-14
1.74171e-09
-1.18141e-07
-1.53398e-14
1.78249e-09
-1.35443e-07
-1.11064e-14
6.25308e-10
-1.22498e-07
-6.71193e-15
-2.15041e-09
-8.31294e-08
-2.35536e-14
-4.0165e-09
-5.51318e-08
-6.32707e-14
-5.26541e-09
-2.52955e-08
-7.77904e-14
-4.72028e-09
-1.35539e-08
-1.04846e-14
-2.35043e-09
-8.95603e-09
-1.84542e-15
-4.53002e-10
-3.48116e-09
-8.8429e-16
-6.0205e-10
-1.51911e-16
3.64753e-12
-7.53341e-09
-3.61577e-15
7.04677e-11
-2.32304e-08
-9.2724e-15
3.31979e-10
-4.23607e-08
-6.41591e-15
8.39579e-10
-6.57533e-08
-1.16936e-14
1.39541e-09
-9.24245e-08
-1.302e-14
1.73947e-09
-1.18485e-07
-1.19889e-14
1.73506e-09
-1.35438e-07
-1.61559e-14
6.10136e-10
-1.21372e-07
4.30449e-17
-2.42306e-09
-7.99991e-08
-3.10236e-14
-4.45624e-09
-5.28919e-08
-7.11495e-14
-5.50522e-09
-2.40796e-08
-1.31891e-14
-4.66945e-09
-1.29072e-08
6.65983e-16
-2.16769e-09
-7.96866e-09
-1.30955e-15
-4.04404e-10
-2.93532e-09
-6.60836e-16
-4.97914e-10
-1.16256e-16
4.30544e-12
-7.53771e-09
-2.10675e-15
7.26939e-11
-2.32988e-08
-1.04e-14
3.58806e-10
-4.26468e-08
-6.68968e-15
9.0209e-10
-6.62966e-08
-1.14947e-14
1.43526e-09
-9.29577e-08
-1.17621e-14
1.71822e-09
-1.18768e-07
-1.24519e-14
1.66158e-09
-1.35382e-07
-1.24866e-14
6.14027e-10
-1.20324e-07
5.51784e-15
-2.70224e-09
-7.65785e-08
-3.47433e-14
-4.90448e-09
-5.04149e-08
-6.80275e-14
-5.70729e-09
-2.30096e-08
-2.62271e-14
-4.54846e-09
-1.22292e-08
-9.17359e-15
-1.97151e-09
-7.03194e-09
-2.30002e-15
-3.56006e-10
-2.45424e-09
-6.53204e-16
-4.07459e-10
-9.90184e-17
4.94228e-12
-7.54265e-09
-2.17553e-15
7.56115e-11
-2.33695e-08
-8.74147e-15
3.9813e-10
-4.29693e-08
-7.2839e-15
9.68555e-10
-6.6867e-08
-9.73843e-15
1.45385e-09
-9.3443e-08
-1.47344e-14
1.65547e-09
-1.18969e-07
-1.30378e-14
1.53441e-09
-1.35261e-07
-1.25171e-14
6.1206e-10
-1.19401e-07
1.09089e-14
-2.98453e-09
-7.28728e-08
-2.66301e-14
-5.33784e-09
-4.77006e-08
-6.20189e-14
-5.85333e-09
-2.20739e-08
-3.2376e-14
-4.35548e-09
-1.15218e-08
-1.17841e-14
-1.76638e-09
-6.15549e-09
-2.90872e-15
-3.08617e-10
-2.03524e-09
-6.63747e-16
-3.29843e-10
-8.91823e-17
5.65486e-12
-7.54831e-09
-1.04587e-15
8.11162e-11
-2.3445e-08
-9.25432e-15
4.47362e-10
-4.33355e-08
-6.20725e-15
1.02326e-09
-6.7443e-08
-1.27545e-14
1.42296e-09
-9.38427e-08
-1.12268e-14
1.51516e-09
-1.19061e-07
-1.6972e-14
1.31071e-09
-1.35056e-07
-8.62145e-15
5.49117e-10
-1.18638e-07
7.83809e-15
-3.24757e-09
-6.89685e-08
-2.16521e-14
-5.70343e-09
-4.47841e-08
-5.68016e-14
-5.90959e-09
-2.1207e-08
-3.29824e-14
-4.09332e-09
-1.07879e-08
-1.18611e-14
-1.55735e-09
-5.34831e-09
-3.07395e-15
-2.63089e-10
-1.67485e-09
-6.40266e-16
-2.6412e-10
-7.68344e-17
6.47209e-12
-7.55478e-09
-2.82523e-15
9.1546e-11
-2.353e-08
-6.23145e-15
5.01415e-10
-4.37454e-08
-7.41347e-15
1.04346e-09
-6.7985e-08
-8.52228e-15
1.30657e-09
-9.41058e-08
-1.60897e-14
1.24987e-09
-1.19005e-07
-1.03152e-14
9.30274e-10
-1.34737e-07
-6.61513e-15
3.47598e-10
-1.18055e-07
1.26548e-14
-3.50665e-09
-6.50113e-08
-1.42648e-14
-5.98145e-09
-4.17444e-08
-4.84329e-14
-5.8396e-09
-2.02978e-08
-3.5466e-14
-3.77e-09
-1.00344e-08
-1.23984e-14
-1.34961e-09
-4.61678e-09
-3.09231e-15
-2.20258e-10
-1.36873e-09
-6.03203e-16
-2.09271e-10
-7.37564e-17
7.44054e-12
-7.56222e-09
-2.87057e-15
1.07045e-10
-2.36296e-08
-6.58431e-15
5.47015e-10
-4.41853e-08
-7.92543e-15
9.9774e-10
-6.84357e-08
-9.48429e-15
1.06634e-09
-9.41744e-08
-1.30302e-14
8.14087e-10
-1.18752e-07
-1.04695e-14
3.33628e-10
-1.34256e-07
-9.2734e-15
-8.95226e-11
-1.17631e-07
2.90687e-15
-3.77323e-09
-6.1242e-08
-4.41105e-15
-6.12207e-09
-3.87211e-08
-3.83868e-14
-5.63198e-09
-1.9277e-08
-2.87727e-14
-3.40272e-09
-9.27373e-09
-1.05521e-14
-1.14935e-09
-3.96519e-09
-2.78393e-15
-1.80992e-10
-1.11214e-09
-5.34559e-16
-1.64237e-10
-6.19794e-17
8.57261e-12
-7.57079e-09
-1.6928e-15
1.26569e-10
-2.37477e-08
-4.16838e-15
5.68338e-10
-4.46271e-08
-5.5731e-15
8.601e-10
-6.87275e-08
-9.86374e-15
6.78661e-10
-9.3993e-08
-1.66446e-14
1.82841e-10
-1.18257e-07
-1.09499e-14
-5.07803e-10
-1.33565e-07
-1.06893e-14
-7.76231e-10
-1.17362e-07
-2.28125e-15
-3.96869e-09
-5.79718e-08
6.15513e-15
-6.02078e-09
-3.59092e-08
-2.78838e-14
-5.28398e-09
-1.81245e-08
-2.3867e-14
-3.0076e-09
-8.51111e-09
-9.10061e-15
-9.61749e-10
-3.39369e-09
-2.33247e-15
-1.45973e-10
-8.99971e-10
-4.4207e-16
-1.27898e-10
-5.21698e-17
9.674e-12
-7.58047e-09
-1.67138e-15
1.45964e-10
-2.38839e-08
-7.48563e-15
5.47075e-10
-4.50282e-08
-5.78593e-15
6.15318e-10
-6.87958e-08
-7.72628e-15
1.44616e-10
-9.35222e-08
-1.81021e-14
-6.38031e-10
-1.17474e-07
-1.28971e-14
-1.58105e-09
-1.32622e-07
-1.71961e-14
-1.69334e-09
-1.1725e-07
-7.56842e-15
-4.06985e-09
-5.5543e-08
1.43719e-14
-5.70653e-09
-3.35047e-08
-1.89277e-14
-4.81866e-09
-1.68824e-08
-1.8669e-14
-2.60236e-09
-7.75551e-09
-7.34215e-15
-7.91015e-10
-2.89942e-09
-1.8672e-15
-1.15645e-10
-7.26892e-10
-3.59851e-16
-9.90847e-11
-4.08938e-17
1.06637e-11
-7.59113e-09
-2.43426e-15
1.60948e-10
-2.40342e-08
-3.70605e-15
4.73857e-10
-4.53411e-08
-6.13485e-15
2.74022e-10
-6.8596e-08
-1.12981e-14
-4.98064e-10
-9.27502e-08
-1.51079e-14
-1.59027e-09
-1.16382e-07
-9.43955e-15
-2.79872e-09
-1.31414e-07
-1.60549e-14
-2.80744e-09
-1.17241e-07
-3.5761e-15
-4.03301e-09
-5.42943e-08
1.99152e-14
-5.2257e-09
-3.16108e-08
-1.24794e-14
-4.26817e-09
-1.56362e-08
-1.32371e-14
-2.20328e-09
-7.0259e-09
-6.25974e-15
-6.39754e-10
-2.47782e-09
-1.65872e-15
-9.01351e-11
-5.87556e-10
-2.99423e-16
-7.6627e-11
-3.26112e-17
1.13342e-11
-7.60246e-09
-2.5769e-15
1.65715e-10
-2.41886e-08
-7.04996e-15
3.45737e-10
-4.55212e-08
-6.98643e-15
-1.35049e-10
-6.81152e-08
-1.22713e-14
-1.1884e-09
-9.16968e-08
-1.17458e-14
-2.56894e-09
-1.15001e-07
-1.48172e-14
-4.03555e-09
-1.29947e-07
-1.9192e-14
-3.99828e-09
-1.17279e-07
-1.20988e-14
-3.75979e-09
-5.45343e-08
2.93864e-14
-4.58778e-09
-3.01619e-08
-4.69946e-15
-3.66287e-09
-1.44653e-08
-9.35612e-15
-1.82389e-09
-6.34272e-09
-5.11801e-15
-5.09179e-10
-2.1226e-09
-1.37204e-15
-6.92898e-11
-4.7672e-10
-2.3569e-16
-5.93982e-11
-2.6107e-17
1.16679e-11
-7.61413e-09
-1.93879e-15
1.57433e-10
-2.43344e-08
-6.09619e-15
1.7616e-10
-4.55399e-08
-6.31066e-15
-5.53124e-10
-6.73859e-08
-1.02453e-14
-1.82188e-09
-9.04281e-08
-1.69386e-14
-3.41188e-09
-1.13411e-07
-1.81433e-14
-5.07059e-09
-1.28289e-07
-1.38189e-14
-5.0141e-09
-1.17335e-07
-1.01795e-14
-3.07746e-09
-5.64772e-08
3.80946e-14
-3.8223e-09
-2.9019e-08
-3.35595e-15
-3.04153e-09
-1.3421e-08
-7.25526e-15
-1.47771e-09
-5.71998e-09
-3.49272e-15
-3.99716e-10
-1.82634e-09
-1.01119e-15
-5.27557e-11
-3.89419e-10
-1.80935e-16
-4.63601e-11
-2.00427e-17
1.15907e-11
-7.62572e-09
-1.32774e-15
1.36234e-10
-2.4459e-08
-5.8569e-15
-7.30872e-12
-4.53964e-08
-8.91221e-15
-9.05368e-10
-6.64878e-08
-1.45142e-14
-2.27362e-09
-8.90599e-08
-4.41567e-15
-3.92103e-09
-1.11764e-07
-1.8043e-14
-5.59475e-09
-1.26615e-07
-1.73687e-14
-5.4353e-09
-1.17494e-07
-1.04048e-14
-1.89073e-09
-6.00256e-08
1.40186e-14
-2.99442e-09
-2.79408e-08
-3.24049e-15
-2.44895e-09
-1.25562e-08
-5.31959e-15
-1.17661e-09
-5.161e-09
-3.08861e-15
-3.10981e-10
-1.58186e-09
-8.06751e-16
-4.00354e-11
-3.21275e-10
-1.40338e-16
-3.66119e-11
-1.67131e-17
1.11636e-11
-7.63688e-09
-3.12244e-15
1.07042e-10
-2.45549e-08
-8.57816e-15
-1.69015e-10
-4.51203e-08
-8.49398e-15
-1.13259e-09
-6.55243e-08
-1.44692e-14
-2.46548e-09
-8.7727e-08
-1.55659e-14
-3.98942e-09
-1.1024e-07
-1.40304e-14
-5.44551e-09
-1.25159e-07
-1.29191e-14
-5.07147e-09
-1.17868e-07
-7.97481e-15
-3.75681e-10
-6.47236e-08
7.02168e-15
-2.14874e-09
-2.63539e-08
-2.3984e-15
-1.91717e-09
-1.18303e-08
-3.78732e-15
-9.25439e-10
-4.66013e-09
-2.14575e-15
-2.41344e-10
-1.38114e-09
-6.26688e-16
-3.05177e-11
-2.68548e-10
-1.20166e-16
-2.94006e-11
-1.27998e-17
1.06616e-11
-7.64754e-09
-1.6811e-16
7.59712e-11
-2.46202e-08
-6.01749e-15
-2.87917e-10
-4.47564e-08
-8.18993e-15
-1.22855e-09
-6.45837e-08
-1.46237e-14
-2.41945e-09
-8.65361e-08
-1.10215e-14
-3.69574e-09
-1.08963e-07
-1.29247e-14
-4.77199e-09
-1.24083e-07
-2.24219e-14
-4.19854e-09
-1.18442e-07
-1.59355e-14
1.1148e-09
-7.0037e-08
1.02402e-14
-1.34223e-09
-2.41415e-08
-9.35949e-16
-1.46263e-09
-1.09984e-08
-2.31758e-15
-7.23403e-10
-4.22931e-09
-1.46615e-15
-1.88175e-10
-1.21526e-09
-4.76011e-16
-2.35561e-11
-2.27945e-10
-8.85916e-17
-2.41061e-11
-9.94781e-18
1.01654e-11
-7.65771e-09
-3.11203e-15
4.69702e-11
-2.4657e-08
-7.58234e-15
-3.63582e-10
-4.43459e-08
-1.00267e-14
-1.22452e-09
-6.37227e-08
-1.50715e-14
-2.21773e-09
-8.55429e-08
-1.69674e-14
-3.20774e-09
-1.07973e-07
-5.57663e-15
-3.85156e-09
-1.23439e-07
-1.86504e-14
-3.17402e-09
-1.19119e-07
-2.08001e-14
2.1954e-09
-7.54063e-08
-3.9426e-15
-6.77893e-10
-2.15172e-08
3.71916e-15
-1.10185e-09
-1.01793e-08
-2.81079e-16
-5.67063e-10
-3.91754e-09
-1.4555e-15
-1.48391e-10
-1.08362e-09
-4.12892e-16
-1.85383e-11
-1.96811e-10
-6.49595e-17
-2.02184e-11
-9.301e-18
9.79127e-12
-7.6675e-09
-2.40991e-16
2.05622e-11
-2.46678e-08
-5.70031e-15
-4.09349e-10
-4.3916e-08
-9.23093e-15
-1.16542e-09
-6.29667e-08
-1.27053e-14
-1.95697e-09
-8.47513e-08
-2.12403e-14
-2.69099e-09
-1.07239e-07
-2.54109e-15
-2.95532e-09
-1.23175e-07
-1.62724e-14
-2.31292e-09
-1.19762e-07
-9.91289e-15
2.46836e-09
-8.01876e-08
1.52312e-15
-2.5844e-10
-1.90138e-08
8.01039e-15
-8.34598e-10
-9.47922e-09
5.82928e-16
-4.50339e-10
-3.6599e-09
-9.16744e-16
-1.18945e-10
-1.0055e-09
-2.74647e-16
-1.49309e-11
-1.7616e-10
-4.96289e-17
-1.75279e-11
-7.62199e-18
9.3997e-12
-7.6769e-09
-2.75412e-15
-5.5117e-12
-2.46529e-08
-7.37072e-15
-4.40878e-10
-4.34806e-08
-9.67386e-15
-1.08927e-09
-6.23183e-08
-1.28544e-14
-1.7128e-09
-8.41278e-08
-1.0181e-14
-2.25843e-09
-1.06694e-07
-1.43602e-14
-2.29049e-09
-1.23143e-07
-2.46347e-14
-1.84003e-09
-1.20212e-07
-2.57407e-14
1.72597e-09
-8.37536e-08
-1.48236e-14
-4.47091e-11
-1.741e-08
4.62467e-15
-6.21038e-10
-9.17656e-09
1.5685e-15
-3.56793e-10
-3.49673e-09
-3.02467e-16
-9.66798e-11
-9.4675e-10
-2.21045e-16
-1.23234e-11
-2.14485e-17
-5.47065e-18
8.90174e-12
-7.6858e-09
-9.08467e-16
-3.26409e-11
-2.46113e-08
-5.51748e-15
-4.60979e-10
-4.30523e-08
-1.08923e-14
-1.00007e-09
-6.17792e-08
-1.24248e-14
-1.48553e-09
-8.36423e-08
-1.21639e-14
-1.88867e-09
-1.0629e-07
-1.47234e-14
-1.83649e-09
-1.23195e-07
-1.61487e-14
-1.61229e-09
-1.20437e-07
-1.29091e-14
4.23472e-10
-8.57894e-08
-3.15574e-14
4.13393e-10
-1.74711e-08
3.45141e-14
-3.43634e-10
-9.34089e-09
7.65537e-15
-2.56444e-10
-3.50257e-09
2.36254e-16
-9.22319e-10
-1.54222e-16
8.13497e-12
-7.69394e-09
-3.03199e-15
-5.78919e-11
-2.45453e-08
-7.56564e-15
-4.55014e-10
-4.26551e-08
-9.46931e-15
-8.67455e-10
-6.13668e-08
-1.08436e-14
-1.2037e-09
-8.33061e-08
-1.32717e-14
-1.44011e-09
-1.06054e-07
-1.3667e-14
-1.3087e-09
-1.23326e-07
-1.29914e-14
-1.08562e-09
-1.2066e-07
-1.45847e-14
-6.86012e-11
-8.68064e-08
-3.83175e-14
1.7241e-09
-1.92757e-08
5.00403e-14
2.36853e-10
-9.07385e-09
1.34419e-14
-1.1784e-10
-3.69617e-09
5.3034e-16
-9.3106e-10
-1.97201e-17
7.26364e-12
-7.7012e-09
-1.35974e-15
-7.37265e-11
-2.44643e-08
-5.99995e-15
-4.06855e-10
-4.2322e-08
-8.71295e-15
-6.68722e-10
-6.11049e-08
-9.11574e-15
-8.2162e-10
-8.31532e-08
-1.0722e-14
-8.31606e-10
-1.06044e-07
-1.14773e-14
-5.15678e-10
-1.23642e-07
-1.27342e-14
-3.2556e-11
-1.21143e-07
-1.57024e-14
8.59331e-10
-8.76982e-08
-1.94563e-14
3.82389e-09
-2.22403e-08
3.19212e-14
1.37651e-09
-7.45468e-09
5.77122e-15
1.0649e-10
-3.82324e-09
8.20896e-16
-9.61045e-10
1.2065e-16
6.50506e-12
-7.70771e-09
-2.83831e-15
-7.4983e-11
-2.43828e-08
-7.42516e-15
-3.20691e-10
-4.20763e-08
-1.21045e-14
-4.25662e-10
-6.09999e-08
-1.07969e-14
-3.84956e-10
-8.31939e-08
-1.59172e-14
-1.48287e-10
-1.06281e-07
-1.43838e-14
4.10912e-10
-1.24201e-07
-1.62923e-14
1.24347e-09
-1.21975e-07
-1.24579e-14
2.3358e-09
-8.87906e-08
-6.64031e-15
5.65494e-09
-2.55594e-08
-3.63464e-15
2.62245e-09
-4.82808e-09
4.28684e-15
4.99778e-10
-3.50806e-09
1.27676e-15
-9.83044e-10
2.75954e-16
6.13366e-12
-7.71384e-09
-1.71857e-15
-6.20388e-11
-2.43146e-08
-6.68893e-15
-2.16461e-10
-4.19219e-08
-1.0635e-14
-1.84433e-10
-6.1032e-08
-8.19079e-15
1.79142e-11
-8.33962e-08
-9.3854e-15
4.46671e-10
-1.06709e-07
-1.17713e-14
1.18736e-09
-1.24942e-07
-1.28588e-14
2.23417e-09
-1.23022e-07
-1.27388e-14
3.36849e-09
-8.99249e-08
-9.61466e-15
6.40477e-09
-2.85957e-08
-6.1834e-15
3.54438e-09
-2.1563e-09
9.90388e-15
1.00915e-09
-2.71545e-09
1.80698e-15
-9.55124e-10
4.40966e-16
6.10121e-12
-7.71994e-09
-2.7837e-15
-4.0192e-11
-2.42683e-08
-7.13791e-15
-1.17037e-10
-4.1845e-08
-9.88409e-15
1.49362e-11
-6.1164e-08
-1.15358e-14
3.22357e-10
-8.37036e-08
-1.43605e-14
8.57272e-10
-1.07244e-07
-1.58809e-14
1.68356e-09
-1.25768e-07
-9.28322e-15
2.76275e-09
-1.24101e-07
-1.37368e-14
3.71631e-09
-9.08784e-08
-1.03288e-14
6.16478e-09
-3.10442e-08
1.29339e-15
4.0054e-09
-9.14535e-11
6.16322e-15
1.52525e-09
-1.6997e-09
7.87376e-16
-8.55737e-10
4.12326e-16
6.28506e-12
-7.72623e-09
-2.025e-15
-1.57296e-11
-2.42463e-08
-6.37819e-15
-3.78483e-11
-4.18229e-08
-1.02241e-14
1.52468e-10
-6.13543e-08
-9.81239e-15
5.06572e-10
-8.40577e-08
-1.1032e-14
1.06966e-09
-1.07807e-07
-1.51662e-14
1.89229e-09
-1.26591e-07
-1.20218e-14
2.88418e-09
-1.25093e-07
-1.52542e-14
3.58045e-09
-9.15747e-08
-1.13703e-14
5.38458e-09
-3.28484e-08
-3.25816e-16
4.11903e-09
1.1221e-09
-8.58147e-15
1.98363e-09
-7.0472e-10
-1.94688e-15
-6.89672e-10
3.54544e-16
6.43714e-12
-7.73267e-09
-2.3972e-15
5.28546e-12
-2.42452e-08
-6.95626e-15
1.31482e-11
-4.18308e-08
-9.91862e-15
2.24808e-10
-6.15659e-08
-1.05846e-14
5.77787e-10
-8.44107e-08
-1.29814e-14
1.10968e-09
-1.08339e-07
-1.14994e-14
1.86608e-09
-1.27347e-07
-1.42052e-14
2.70395e-09
-1.25931e-07
-9.82021e-15
3.1134e-09
-9.19841e-08
-9.99686e-15
4.18583e-09
-3.39208e-08
-4.3044e-15
3.92692e-09
1.34936e-09
1.00012e-14
2.35946e-09
3.35261e-11
1.73962e-15
-4.86371e-10
5.40108e-16
6.31579e-12
-7.73898e-09
-2.34051e-15
1.90547e-11
-2.42579e-08
-6.34655e-15
3.68699e-11
-4.18486e-08
-1.05058e-14
2.44056e-10
-6.17731e-08
-1.00464e-14
5.63369e-10
-8.473e-08
-1.06327e-14
1.02875e-09
-1.08805e-07
-9.95914e-15
1.68952e-09
-1.28008e-07
-1.39354e-14
2.36802e-09
-1.2661e-07
-1.25336e-14
2.60854e-09
-9.22246e-08
-9.02489e-15
3.08936e-09
-3.44016e-08
-8.94223e-15
3.59117e-09
8.25547e-10
3.40258e-15
2.62841e-09
4.1652e-10
2.29669e-15
-2.50848e-10
3.39553e-16
5.61102e-12
-7.7446e-09
-2.4686e-15
2.4144e-11
-2.42765e-08
-7.13842e-15
3.88633e-11
-4.18633e-08
-9.91338e-15
2.26339e-10
-6.19605e-08
-9.49929e-15
4.94968e-10
-8.49987e-08
-9.24151e-15
8.80533e-10
-1.0919e-07
-1.17553e-14
1.43389e-09
-1.28561e-07
-1.61206e-14
1.94443e-09
-1.2712e-07
-1.15476e-14
1.97709e-09
-9.22573e-08
-7.74088e-15
1.75925e-09
-3.41838e-08
-1.17936e-15
2.63892e-09
-7.33247e-11
-4.43058e-15
2.43146e-09
2.15253e-10
8.63365e-16
-6.86084e-11
1.43774e-17
4.08918e-12
-7.74868e-09
-2.6715e-15
2.07155e-11
-2.42931e-08
-6.75331e-15
2.50224e-11
-4.18676e-08
-1.06208e-14
1.8419e-10
-6.21197e-08
-9.74786e-15
3.94796e-10
-8.52093e-08
-1.185e-14
7.00723e-10
-1.09496e-07
-1.33689e-14
1.16578e-09
-1.29026e-07
-1.44126e-14
1.61648e-09
-1.27571e-07
-1.30607e-14
1.73266e-09
-9.23735e-08
-7.57341e-15
1.45071e-09
-3.39018e-08
-4.28932e-15
1.36033e-09
1.64504e-15
1.23012e-09
6.50005e-16
-3.38088e-16
2.26107e-12
-7.75095e-09
-2.52846e-15
1.13572e-11
-2.43022e-08
-6.89318e-15
3.16366e-12
-4.18595e-08
-9.36047e-15
1.29976e-10
-6.22465e-08
-9.80438e-15
2.77254e-10
-8.53566e-08
-8.65743e-15
4.89137e-10
-1.09708e-07
-1.51948e-14
8.2328e-10
-1.29361e-07
-1.36473e-14
1.09511e-09
-1.27843e-07
-1.10159e-14
8.20555e-10
-9.20989e-08
-8.36945e-15
-3.30812e-08
-3.75092e-15
8.54465e-13
-7.7518e-09
-2.75203e-15
5.07187e-13
-2.43018e-08
-6.91334e-15
-1.47001e-11
-4.18443e-08
-8.80548e-15
8.86407e-11
-6.23498e-08
-1.09135e-14
1.91453e-10
-8.54594e-08
-9.26385e-15
3.42944e-10
-1.0986e-07
-1.27489e-14
6.10797e-10
-1.29628e-07
-1.54492e-14
8.20706e-10
-1.28053e-07
-1.30988e-14
4.67402e-10
-9.17457e-08
-9.41152e-15
-3.26138e-08
8.02813e-16
-1.03022e-13
-7.7517e-09
-2.6067e-15
-9.94277e-12
-2.4292e-08
-7.95163e-15
-2.55341e-11
-4.18287e-08
-9.21338e-15
6.35149e-11
-6.24389e-08
-7.89404e-15
1.3875e-10
-8.55346e-08
-1.2617e-14
2.57932e-10
-1.09979e-07
-1.40599e-14
5.05111e-10
-1.29876e-07
-1.5786e-14
7.25223e-10
-1.28273e-07
-1.28491e-14
4.57573e-10
-9.1478e-08
-7.43621e-15
-3.21563e-08
-1.55828e-15
-6.42342e-13
-7.75105e-09
-2.8173e-15
-1.86399e-11
-2.4274e-08
-7.98025e-15
-2.86532e-11
-4.18187e-08
-7.88895e-15
5.29274e-11
-6.25204e-08
-8.48358e-15
1.11634e-10
-8.55933e-08
-1.18292e-14
2.13051e-10
-1.1008e-07
-9.12556e-15
4.5188e-10
-1.30114e-07
-1.30261e-14
6.81913e-10
-1.28503e-07
-8.56939e-15
4.34488e-10
-9.12306e-08
-5.7135e-15
-3.17218e-08
-6.09771e-15
-8.30212e-13
-7.75022e-09
-2.83455e-15
-2.4533e-11
-2.42503e-08
-7.5135e-15
-2.421e-11
-4.1819e-08
-1.05417e-14
5.46035e-11
-6.25992e-08
-7.67861e-15
1.04203e-10
-8.56429e-08
-8.78151e-15
1.97391e-10
-1.10173e-07
-1.49267e-14
4.36651e-10
-1.30354e-07
-1.31144e-14
6.80063e-10
-1.28746e-07
-1.78924e-14
4.43091e-10
-9.09936e-08
-1.20974e-14
-3.12787e-08
-4.43429e-16
-7.85774e-13
-7.74944e-09
-2.93554e-15
-2.69077e-11
-2.42242e-08
-8.56031e-15
-1.30179e-11
-4.18329e-08
-8.76206e-15
6.56787e-11
-6.26779e-08
-8.22237e-15
1.10413e-10
-8.56876e-08
-7.17331e-15
2.00432e-10
-1.10263e-07
-1.26958e-14
4.4305e-10
-1.30596e-07
-1.34177e-14
6.97158e-10
-1.29e-07
-1.11513e-14
4.58512e-10
-9.0755e-08
-7.47315e-15
-3.08202e-08
-5.70518e-15
-5.30338e-13
-7.7489e-09
-2.70117e-15
-2.52247e-11
-2.41995e-08
-8.54849e-15
3.97763e-12
-4.18621e-08
-8.75893e-15
8.39892e-11
-6.27579e-08
-6.42175e-15
1.26425e-10
-8.573e-08
-1.17395e-14
2.16408e-10
-1.10353e-07
-1.63856e-14
4.6427e-10
-1.30844e-07
-1.29966e-14
7.27978e-10
-1.29264e-07
-1.37963e-14
4.82142e-10
-9.05091e-08
-1.01233e-14
-3.03381e-08
-5.23198e-15
-1.15521e-13
-7.74879e-09
-2.62785e-15
-1.94663e-11
-2.41801e-08
-9.83002e-15
2.55527e-11
-4.19072e-08
-7.76185e-15
1.07473e-10
-6.28398e-08
-7.75806e-15
1.49021e-10
-8.57716e-08
-1.09091e-14
2.40782e-10
-1.10445e-07
-1.42898e-14
4.94767e-10
-1.31098e-07
-1.13918e-14
7.67101e-10
-1.29537e-07
-1.32834e-14
5.09908e-10
-9.02519e-08
-8.9488e-15
-2.98282e-08
-5.06862e-15
4.57654e-13
-7.74925e-09
-2.71056e-15
-9.97991e-12
-2.41697e-08
-8.88366e-15
5.02554e-11
-4.19674e-08
-1.07462e-14
1.34296e-10
-6.29239e-08
-5.3038e-15
1.75698e-10
-8.5813e-08
-9.66415e-15
2.70406e-10
-1.1054e-07
-1.4085e-14
5.31192e-10
-1.31359e-07
-1.40729e-14
8.11942e-10
-1.29817e-07
-1.09223e-14
5.41186e-10
-8.99812e-08
-8.29335e-15
-2.9287e-08
-5.73749e-15
1.16333e-12
-7.75041e-09
-2.90126e-15
2.24776e-12
-2.41708e-08
-8.64356e-15
7.65619e-11
-4.20417e-08
-1.03582e-14
1.62692e-10
-6.301e-08
-5.02309e-15
2.0446e-10
-8.58547e-08
-9.46335e-15
3.02832e-10
-1.10638e-07
-1.23304e-14
5.71138e-10
-1.31627e-07
-1.29886e-14
8.60519e-10
-1.30107e-07
-1.15173e-14
5.74917e-10
-8.96956e-08
-9.29198e-15
-2.87121e-08
-2.57151e-15
2.00657e-12
-7.75242e-09
-2.72012e-15
1.59541e-11
-2.41847e-08
-9.10633e-15
1.02777e-10
-4.21286e-08
-9.51118e-15
1.90718e-10
-6.30979e-08
-4.43147e-15
2.33066e-10
-8.58971e-08
-1.12905e-14
3.35595e-10
-1.10741e-07
-1.45947e-14
6.12293e-10
-1.31904e-07
-1.61619e-14
9.11204e-10
-1.30406e-07
-1.09136e-14
6.10575e-10
-8.93949e-08
-9.90991e-15
-2.81015e-08
-3.70318e-15
2.97398e-12
-7.75539e-09
-3.12004e-15
2.94367e-11
-2.42112e-08
-8.10239e-15
1.27172e-10
-4.22263e-08
-8.98261e-15
2.16707e-10
-6.31875e-08
-4.53564e-15
2.5987e-10
-8.59402e-08
-1.14847e-14
3.67067e-10
-1.10848e-07
-1.51913e-14
6.53268e-10
-1.3219e-07
-1.56419e-14
9.63099e-10
-1.30715e-07
-7.49609e-15
6.48011e-10
-8.90799e-08
-7.00738e-15
-2.74535e-08
-4.02742e-15
4.05094e-12
-7.75944e-09
-3.17138e-15
4.07334e-11
-2.42479e-08
-8.50981e-15
1.48014e-10
-4.23336e-08
-7.93502e-15
2.38841e-10
-6.32783e-08
-4.33848e-15
2.83182e-10
-8.59846e-08
-9.5337e-15
3.95651e-10
-1.10961e-07
-1.58409e-14
6.92697e-10
-1.32487e-07
-1.55898e-14
1.01534e-09
-1.31038e-07
-9.60934e-15
6.87056e-10
-8.87516e-08
-7.94962e-15
-2.67665e-08
-1.67416e-15
5.20707e-12
-7.76465e-09
-3.62354e-15
4.82057e-11
-2.42909e-08
-7.75225e-15
1.64125e-10
-4.24495e-08
-6.76562e-15
2.55956e-10
-6.33702e-08
-5.13271e-15
3.02025e-10
-8.60306e-08
-1.08686e-14
4.20468e-10
-1.11079e-07
-1.75245e-14
7.29826e-10
-1.32796e-07
-1.6281e-14
1.0675e-09
-1.31376e-07
-1.38449e-14
7.27562e-10
-8.84116e-08
-1.25125e-14
-2.6039e-08
-6.92581e-15
6.43149e-12
-7.77108e-09
-3.22604e-15
5.08753e-11
-2.43353e-08
-9.07384e-15
1.74956e-10
-4.25736e-08
-6.0126e-15
2.67418e-10
-6.34627e-08
-6.68521e-15
3.15996e-10
-8.60792e-08
-1.11859e-14
4.4129e-10
-1.11204e-07
-1.75372e-14
7.64587e-10
-1.3312e-07
-8.87151e-15
1.11975e-09
-1.31731e-07
-9.77412e-15
7.69827e-10
-8.80617e-08
-2.87449e-15
-2.52691e-08
1.1376e-16
7.70204e-12
-7.77878e-09
-3.70877e-15
4.87775e-11
-2.43764e-08
-8.74702e-15
1.80885e-10
-4.27057e-08
-4.94219e-15
2.73522e-10
-6.35553e-08
-7.83165e-15
3.25467e-10
-8.61311e-08
-1.25322e-14
4.58561e-10
-1.11337e-07
-1.83269e-14
7.97637e-10
-1.33459e-07
-8.6179e-15
1.1731e-09
-1.32106e-07
-1.46848e-14
8.15094e-10
-8.77037e-08
-7.05215e-15
-2.4454e-08
-4.45448e-15
9.02736e-12
-7.78781e-09
-3.81018e-15
4.29733e-11
-2.44103e-08
-9.52939e-15
1.8305e-10
-4.28457e-08
-5.32763e-15
2.75339e-10
-6.36477e-08
-7.59145e-15
3.31643e-10
-8.61874e-08
-1.20223e-14
4.73728e-10
-1.11479e-07
-1.78449e-14
8.30489e-10
-1.33815e-07
-1.01216e-14
1.22874e-09
-1.32505e-07
-1.65171e-14
8.64019e-10
-8.7339e-08
-9.88789e-15
-2.35899e-08
-2.65166e-15
1.0411e-11
-7.79822e-09
-4.36251e-15
3.54517e-11
-2.44354e-08
-9.48996e-15
1.83311e-10
-4.29936e-08
-4.83435e-15
2.74708e-10
-6.37391e-08
-9.03975e-15
3.36307e-10
-8.6249e-08
-1.44568e-14
4.8884e-10
-1.11632e-07
-1.84429e-14
8.6533e-10
-1.34192e-07
-8.87676e-15
1.2886e-09
-1.32928e-07
-1.46365e-14
9.17881e-10
-8.69682e-08
-7.64817e-15
-2.26721e-08
-1.0416e-15
1.18866e-11
-7.81011e-09
-4.11317e-15
2.8761e-11
-2.44522e-08
-1.05205e-14
1.83773e-10
-4.31486e-08
-4.65381e-15
2.73716e-10
-6.38291e-08
-1.12256e-14
3.41507e-10
-8.63168e-08
-1.12117e-14
5.0647e-10
-1.11797e-07
-1.39157e-14
9.04823e-10
-1.3459e-07
-1.4037e-14
1.35509e-09
-1.33378e-07
-1.34601e-14
9.78295e-10
-8.65914e-08
-8.22269e-15
-2.16938e-08
-3.86662e-15
1.34766e-11
-7.82359e-09
-4.76885e-15
2.56033e-11
-2.44644e-08
-1.04245e-14
1.86558e-10
-4.33095e-08
-4.2065e-15
2.74656e-10
-6.39172e-08
-1.04314e-14
3.49873e-10
-8.6392e-08
-1.21975e-14
5.29982e-10
-1.11977e-07
-1.50248e-14
9.52366e-10
-1.35013e-07
-1.48133e-14
1.43103e-09
-1.33857e-07
-1.22182e-14
1.04694e-09
-8.62073e-08
-6.7864e-15
-2.06468e-08
-2.62333e-15
1.52247e-11
-7.83881e-09
-5.02918e-15
2.8373e-11
-2.44775e-08
-1.04392e-14
1.93438e-10
-4.34746e-08
-4.78559e-15
2.79503e-10
-6.40033e-08
-1.22692e-14
3.63691e-10
-8.64762e-08
-1.21708e-14
5.61956e-10
-1.12175e-07
-1.49806e-14
1.01036e-09
-1.35461e-07
-1.48288e-14
1.51857e-09
-1.34365e-07
-1.2457e-14
1.12513e-09
-8.58139e-08
-7.55926e-15
-1.95217e-08
-4.56849e-15
1.71475e-11
-7.85596e-09
-5.68403e-15
3.87844e-11
-2.44991e-08
-1.03323e-14
2.05549e-10
-4.36414e-08
-4.114e-15
2.89781e-10
-6.40875e-08
-1.1858e-14
3.84842e-10
-8.65712e-08
-1.15949e-14
6.04275e-10
-1.12395e-07
-1.52043e-14
1.08048e-09
-1.35937e-07
-1.47839e-14
1.6192e-09
-1.34904e-07
-1.34917e-14
1.21379e-09
-8.54084e-08
-7.36325e-15
-1.83079e-08
-4.69264e-15
1.9267e-11
-7.87522e-09
-4.93385e-15
5.73366e-11
-2.45372e-08
-1.11665e-14
2.22718e-10
-4.38068e-08
-4.17079e-15
3.05756e-10
-6.41705e-08
-1.27021e-14
4.13729e-10
-8.66792e-08
-1.13604e-14
6.5698e-10
-1.12638e-07
-1.5938e-14
1.16277e-09
-1.36443e-07
-1.51668e-14
1.73316e-09
-1.35474e-07
-1.40053e-14
1.31325e-09
-8.49885e-08
-7.12931e-15
-1.69947e-08
-3.70852e-15
2.15531e-11
-7.89678e-09
-5.55758e-15
8.32807e-11
-2.45989e-08
-1.117e-14
2.4382e-10
-4.39673e-08
-4.61526e-15
3.26764e-10
-6.42535e-08
-1.28257e-14
4.49291e-10
-8.68017e-08
-9.32284e-15
7.18361e-10
-1.12907e-07
-1.65414e-14
1.25568e-09
-1.3698e-07
-1.46032e-14
1.85959e-09
-1.36078e-07
-1.33006e-14
1.42372e-09
-8.45526e-08
-6.28397e-15
-1.5571e-08
-3.63165e-15
2.39305e-11
-7.92071e-09
-5.89929e-15
1.14145e-10
-2.46892e-08
-1.12447e-14
2.65847e-10
-4.4119e-08
-4.50429e-15
3.49923e-10
-6.43376e-08
-1.22209e-14
4.87894e-10
-8.69397e-08
-1.45926e-14
7.84336e-10
-1.13204e-07
-1.5872e-14
1.35548e-09
-1.37551e-07
-1.65272e-14
1.99624e-09
-1.36719e-07
-1.2598e-14
1.54525e-09
-8.41016e-08
-6.759e-15
-1.40257e-08
-2.75325e-15
2.62205e-11
-7.94693e-09
-6.78738e-15
1.46072e-10
-2.4809e-08
-1.06105e-14
2.84759e-10
-4.42577e-08
-5.09504e-15
3.71021e-10
-6.44238e-08
-1.27254e-14
5.24271e-10
-8.7093e-08
-1.30824e-14
8.48853e-10
-1.13528e-07
-1.58164e-14
1.45634e-09
-1.38159e-07
-1.52572e-14
2.13962e-09
-1.37402e-07
-1.14495e-14
1.67831e-09
-8.36403e-08
-7.40912e-15
-1.23474e-08
-3.26599e-16
2.81225e-11
-7.97505e-09
-7.04048e-15
1.73883e-10
-2.49548e-08
-1.06906e-14
2.94945e-10
-4.43788e-08
-5.87411e-15
3.8325e-10