/*--------------------------------*- C++ -*----------------------------------*\
| =========                 |                                                 |
| \\      /  F ield         | OpenFOAM: The Open Source CFD Toolbox           |
|  \\    /   O peration     | Version:  v2012                                 |
|   \\  /    A nd           | Website:  www.openfoam.com                      |
|    \\/     M anipulation  |                                                 |
\*---------------------------------------------------------------------------*/
FoamFile
{
    version     2.0;
    format      ascii;
    class       volScalarField;
    location    "0.8";
    object      p;
}
// * * * * * * * * * * * * * * * * * * * * * * * * * * * * * * * * * * * * * //

dimensions      [1 -1 -2 0 0 0 0];


internalField   nonuniform List<scalar> 
3332
(
3.42236e+06
3.42377e+06
3.42362e+06
3.4236e+06
3.42294e+06
3.42263e+06
3.42189e+06
3.42132e+06
3.42067e+06
3.42389e+06
3.42244e+06
3.42341e+06
3.42224e+06
3.42236e+06
3.4215e+06
3.42105e+06
3.42103e+06
3.42229e+06
3.42225e+06
3.42292e+06
3.42254e+06
3.42267e+06
3.42943e+06
3.41984e+06
3.42417e+06
3.42154e+06
3.42333e+06
3.42171e+06
3.42222e+06
3.4213e+06
3.42097e+06
3.42098e+06
3.4224e+06
3.42229e+06
3.42307e+06
3.42281e+06
3.42383e+06
3.43097e+06
3.41921e+06
3.42438e+06
3.42086e+06
3.4233e+06
3.42136e+06
3.42218e+06
3.42125e+06
3.42101e+06
3.42103e+06
3.42265e+06
3.42248e+06
3.42341e+06
3.42336e+06
3.42533e+06
3.43275e+06
3.41889e+06
3.42456e+06
3.42043e+06
3.42332e+06
3.42119e+06
3.42225e+06
3.42132e+06
3.42117e+06
3.42116e+06
3.42303e+06
3.42283e+06
3.42393e+06
3.42423e+06
3.42719e+06
3.43478e+06
3.41872e+06
3.42451e+06
3.42023e+06
3.42339e+06
3.42121e+06
3.42243e+06
3.42152e+06
3.42143e+06
3.42135e+06
3.42351e+06
3.42338e+06
3.42466e+06
3.42549e+06
3.42942e+06
3.43708e+06
3.41923e+06
3.42469e+06
3.42045e+06
3.42359e+06
3.42144e+06
3.42276e+06
3.42183e+06
3.42184e+06
3.42163e+06
3.4241e+06
3.42421e+06
3.42565e+06
3.42724e+06
3.43207e+06
3.43968e+06
3.42024e+06
3.42499e+06
3.42103e+06
3.42397e+06
3.4219e+06
3.42332e+06
3.42229e+06
3.42243e+06
3.422e+06
3.4248e+06
3.42544e+06
3.42702e+06
3.42962e+06
3.43516e+06
3.44261e+06
3.42165e+06
3.42553e+06
3.422e+06
3.42465e+06
3.42265e+06
3.42415e+06
3.4229e+06
3.42326e+06
3.42247e+06
3.42557e+06
3.42712e+06
3.42885e+06
3.43269e+06
3.4387e+06
3.44588e+06
3.42292e+06
3.42627e+06
3.42335e+06
3.42574e+06
3.42376e+06
3.42535e+06
3.42369e+06
3.42441e+06
3.42301e+06
3.4264e+06
3.42922e+06
3.4312e+06
3.43649e+06
3.44269e+06
3.4495e+06
3.42534e+06
3.42778e+06
3.42535e+06
3.4274e+06
3.42537e+06
3.42703e+06
3.42474e+06
3.42595e+06
3.42359e+06
3.4272e+06
3.43172e+06
3.43418e+06
3.44105e+06
3.44714e+06
3.45346e+06
3.42865e+06
3.43014e+06
3.4282e+06
3.42985e+06
3.42773e+06
3.42934e+06
3.4262e+06
3.42796e+06
3.42413e+06
3.42786e+06
3.43455e+06
3.43797e+06
3.4463e+06
3.45207e+06
3.45775e+06
3.43311e+06
3.43358e+06
3.43222e+06
3.43344e+06
3.43122e+06
3.43252e+06
3.42832e+06
3.43052e+06
3.42496e+06
3.42849e+06
3.43767e+06
3.44298e+06
3.45216e+06
3.45751e+06
3.46234e+06
3.43861e+06
3.43813e+06
3.43793e+06
3.43872e+06
3.43645e+06
3.4371e+06
3.43172e+06
3.43408e+06
3.42643e+06
3.42953e+06
3.4412e+06
3.44951e+06
3.45854e+06
3.4635e+06
3.4672e+06
3.44769e+06
3.4461e+06
3.4466e+06
3.44642e+06
3.44414e+06
3.4438e+06
3.43725e+06
3.43959e+06
3.4298e+06
3.43243e+06
3.44558e+06
3.4573e+06
3.46532e+06
3.46993e+06
3.47228e+06
3.46021e+06
3.45754e+06
3.45868e+06
3.45731e+06
3.45516e+06
3.45362e+06
3.44621e+06
3.44796e+06
3.43707e+06
3.43924e+06
3.45204e+06
3.4664e+06
3.47282e+06
3.47682e+06
3.47766e+06
3.47612e+06
3.47284e+06
3.4744e+06
3.47194e+06
3.47003e+06
3.46707e+06
3.4597e+06
3.46042e+06
3.44906e+06
3.45053e+06
3.46143e+06
3.47686e+06
3.48125e+06
3.48411e+06
3.48335e+06
3.49307e+06
3.49144e+06
3.4933e+06
3.49031e+06
3.48876e+06
3.48459e+06
3.47829e+06
3.4774e+06
3.4673e+06
3.46746e+06
3.47517e+06
3.48921e+06
3.49099e+06
3.49188e+06
3.48939e+06
3.51491e+06
3.51379e+06
3.515e+06
3.5119e+06
3.51076e+06
3.50612e+06
3.50199e+06
3.49932e+06
3.49295e+06
3.4913e+06
3.4944e+06
3.50366e+06
3.50216e+06
3.50008e+06
3.49574e+06
3.53799e+06
3.53767e+06
3.53779e+06
3.53531e+06
3.5348e+06
3.53074e+06
3.52982e+06
3.52635e+06
3.52629e+06
3.52162e+06
3.51703e+06
3.51941e+06
3.51406e+06
3.50836e+06
3.50218e+06
3.56003e+06
3.56077e+06
3.55972e+06
3.55833e+06
3.55855e+06
3.55574e+06
3.55845e+06
3.55532e+06
3.56201e+06
3.55336e+06
3.54092e+06
3.53459e+06
3.52569e+06
3.51618e+06
3.50835e+06
3.57894e+06
3.58054e+06
3.5787e+06
3.57853e+06
3.57938e+06
3.57789e+06
3.58359e+06
3.58077e+06
3.59269e+06
3.57948e+06
3.56461e+06
3.54745e+06
3.53636e+06
3.52303e+06
3.51398e+06
3.59409e+06
3.59614e+06
3.59378e+06
3.5945e+06
3.59565e+06
3.59515e+06
3.60256e+06
3.59934e+06
3.61463e+06
3.59803e+06
3.58415e+06
3.55732e+06
3.54518e+06
3.52864e+06
3.51881e+06
3.60488e+06
3.60718e+06
3.60458e+06
3.60587e+06
3.60681e+06
3.60702e+06
3.61439e+06
3.6104e+06
3.62708e+06
3.6078e+06
3.59687e+06
3.56409e+06
3.55151e+06
3.53296e+06
3.52268e+06
3.61196e+06
3.6142e+06
3.6115e+06
3.61311e+06
3.61344e+06
3.61424e+06
3.61981e+06
3.61572e+06
3.63104e+06
3.61071e+06
3.60318e+06
3.56896e+06
3.55582e+06
3.53632e+06
3.52565e+06
3.61582e+06
3.61813e+06
3.6156e+06
3.61727e+06
3.61703e+06
3.6185e+06
3.62156e+06
3.61919e+06
3.6297e+06
3.61229e+06
3.60677e+06
3.57369e+06
3.55878e+06
3.53919e+06
3.52787e+06
3.61804e+06
3.61945e+06
3.61753e+06
3.61915e+06
3.61891e+06
3.62125e+06
3.62281e+06
3.62391e+06
3.62858e+06
3.61948e+06
3.61339e+06
3.58093e+06
3.56129e+06
3.61783e+06
3.61819e+06
3.61727e+06
3.61876e+06
3.61902e+06
3.62225e+06
3.62377e+06
3.6283e+06
3.62966e+06
3.62927e+06
3.62134e+06
3.59068e+06
3.56286e+06
3.61485e+06
3.61428e+06
3.61437e+06
3.61565e+06
3.61649e+06
3.62017e+06
3.62209e+06
3.62856e+06
3.62837e+06
3.63314e+06
3.62281e+06
3.5986e+06
3.56248e+06
3.60964e+06
3.60827e+06
3.60883e+06
3.60976e+06
3.61084e+06
3.61425e+06
3.61603e+06
3.62222e+06
3.62098e+06
3.62719e+06
3.61668e+06
3.59989e+06
3.56172e+06
3.60131e+06
3.60016e+06
3.60092e+06
3.60163e+06
3.60261e+06
3.6052e+06
3.6064e+06
3.61092e+06
3.60872e+06
3.61427e+06
3.60542e+06
3.59449e+06
3.56083e+06
3.59164e+06
3.59109e+06
3.59168e+06
3.5922e+06
3.59283e+06
3.59436e+06
3.59482e+06
3.59725e+06
3.59464e+06
3.59868e+06
3.59212e+06
3.58533e+06
3.55909e+06
3.58178e+06
3.58178e+06
3.58203e+06
3.5824e+06
3.58255e+06
3.58312e+06
3.58287e+06
3.58337e+06
3.58082e+06
3.58308e+06
3.57866e+06
3.57465e+06
3.55559e+06
3.57265e+06
3.57296e+06
3.57287e+06
3.57306e+06
3.57278e+06
3.57262e+06
3.57179e+06
3.57091e+06
3.56889e+06
3.56953e+06
3.56753e+06
3.56524e+06
3.55284e+06
3.56459e+06
3.56501e+06
3.56471e+06
3.56474e+06
3.56418e+06
3.56358e+06
3.56236e+06
3.56075e+06
3.55912e+06
3.55812e+06
3.55783e+06
3.55662e+06
3.54852e+06
3.5579e+06
3.55819e+06
3.55784e+06
3.55767e+06
3.55696e+06
3.55609e+06
3.55467e+06
3.55312e+06
3.55199e+06
3.55089e+06
3.55271e+06
3.55216e+06
3.54777e+06
3.55257e+06
3.55258e+06
3.5523e+06
3.55192e+06
3.55116e+06
3.55003e+06
3.54834e+06
3.54638e+06
3.54409e+06
3.54299e+06
3.54363e+06
3.54414e+06
3.53918e+06
3.54875e+06
3.54843e+06
3.5484e+06
3.5479e+06
3.54734e+06
3.54631e+06
3.54502e+06
3.54344e+06
3.54176e+06
3.5415e+06
3.54601e+06
3.54535e+06
3.54559e+06
3.54503e+06
3.54476e+06
3.54399e+06
3.54324e+06
3.54229e+06
3.54166e+06
3.54161e+06
3.54406e+06
3.54311e+06
3.5436e+06
3.54302e+06
3.543e+06
3.54244e+06
3.54208e+06
3.54155e+06
3.54127e+06
3.54125e+06
3.54253e+06
3.54139e+06
3.54208e+06
3.5415e+06
3.54169e+06
3.54132e+06
3.54123e+06
3.54097e+06
3.54088e+06
3.5409e+06
3.54118e+06
3.53996e+06
3.54081e+06
3.54027e+06
3.54061e+06
3.54036e+06
3.54044e+06
3.54035e+06
3.54035e+06
3.54038e+06
3.53993e+06
3.53874e+06
3.53964e+06
3.53915e+06
3.53959e+06
3.53945e+06
3.53964e+06
3.53967e+06
3.53972e+06
3.53976e+06
3.5387e+06
3.53767e+06
3.53849e+06
3.53807e+06
3.53857e+06
3.5385e+06
3.53876e+06
3.53888e+06
3.53897e+06
3.53901e+06
3.53736e+06
3.53652e+06
3.53729e+06
3.53696e+06
3.53748e+06
3.53748e+06
3.53779e+06
3.53797e+06
3.53808e+06
3.53813e+06
3.53594e+06
3.53531e+06
3.53605e+06
3.53581e+06
3.5363e+06
3.53636e+06
3.5367e+06
3.53691e+06
3.53703e+06
3.53709e+06
3.5345e+06
3.53404e+06
3.5347e+06
3.53452e+06
3.53503e+06
3.5351e+06
3.53546e+06
3.53569e+06
3.53582e+06
3.53588e+06
3.533e+06
3.53265e+06
3.53326e+06
3.53311e+06
3.53362e+06
3.53369e+06
3.53406e+06
3.53431e+06
3.53444e+06
3.53451e+06
3.53148e+06
3.53112e+06
3.53174e+06
3.53155e+06
3.53207e+06
3.53212e+06
3.53249e+06
3.53274e+06
3.53287e+06
3.53296e+06
3.52989e+06
3.52941e+06
3.53009e+06
3.52982e+06
3.53035e+06
3.53037e+06
3.53073e+06
3.53099e+06
3.53112e+06
3.53122e+06
3.52822e+06
3.52749e+06
3.52828e+06
3.52789e+06
3.52844e+06
3.52842e+06
3.52878e+06
3.52905e+06
3.52917e+06
3.52928e+06
3.52636e+06
3.52534e+06
3.52626e+06
3.52574e+06
3.5263e+06
3.52626e+06
3.52661e+06
3.52691e+06
3.52701e+06
3.52713e+06
3.5242e+06
3.52291e+06
3.52395e+06
3.52333e+06
3.5239e+06
3.52385e+06
3.52418e+06
3.52451e+06
3.52461e+06
3.52474e+06
3.52165e+06
3.52019e+06
3.52132e+06
3.52065e+06
3.5212e+06
3.52117e+06
3.52148e+06
3.52185e+06
3.52194e+06
3.52208e+06
3.51861e+06
3.51715e+06
3.51827e+06
3.51766e+06
3.51816e+06
3.51821e+06
3.51847e+06
3.51891e+06
3.51899e+06
3.51915e+06
3.51505e+06
3.51378e+06
3.51478e+06
3.51432e+06
3.51476e+06
3.51491e+06
3.51513e+06
3.51565e+06
3.51574e+06
3.5159e+06
3.51087e+06
3.51003e+06
3.51079e+06
3.5106e+06
3.51093e+06
3.51123e+06
3.51143e+06
3.51204e+06
3.51214e+06
3.51231e+06
3.50612e+06
3.50588e+06
3.50631e+06
3.50644e+06
3.50666e+06
3.50713e+06
3.50732e+06
3.50803e+06
3.50815e+06
3.50833e+06
3.50082e+06
3.50134e+06
3.50133e+06
3.50184e+06
3.50192e+06
3.50256e+06
3.50277e+06
3.50358e+06
3.50373e+06
3.50391e+06
3.49521e+06
3.49646e+06
3.49589e+06
3.49676e+06
3.49671e+06
3.4975e+06
3.49773e+06
3.49863e+06
3.49882e+06
3.499e+06
3.48901e+06
3.49101e+06
3.49001e+06
3.49119e+06
3.49103e+06
3.4919e+06
3.49217e+06
3.49312e+06
3.49334e+06
3.49354e+06
3.4825e+06
3.48511e+06
3.48374e+06
3.48512e+06
3.48485e+06
3.48572e+06
3.48602e+06
3.48698e+06
3.48724e+06
3.48745e+06
3.47573e+06
3.47868e+06
3.47707e+06
3.47849e+06
3.47817e+06
3.47893e+06
3.47926e+06
3.48014e+06
3.48043e+06
3.48066e+06
3.46889e+06
3.47181e+06
3.47007e+06
3.47133e+06
3.47099e+06
3.47149e+06
3.47183e+06
3.47253e+06
3.47283e+06
3.47308e+06
3.462e+06
3.46454e+06
3.46287e+06
3.46373e+06
3.46335e+06
3.46342e+06
3.46368e+06
3.46403e+06
3.46433e+06
3.4646e+06
3.45531e+06
3.45714e+06
3.45566e+06
3.45589e+06
3.4554e+06
3.45479e+06
3.45483e+06
3.45456e+06
3.4548e+06
3.45509e+06
3.44921e+06
3.45009e+06
3.44882e+06
3.44816e+06
3.44741e+06
3.4458e+06
3.44533e+06
3.44401e+06
3.4441e+06
3.44441e+06
3.4447e+06
3.44436e+06
3.44306e+06
3.44124e+06
3.43989e+06
3.4368e+06
3.4353e+06
3.43224e+06
3.43203e+06
3.43232e+06
3.44239e+06
3.441e+06
3.43955e+06
3.43634e+06
3.43382e+06
3.42857e+06
3.4252e+06
3.41922e+06
3.41844e+06
3.41864e+06
3.44473e+06
3.44242e+06
3.44036e+06
3.43543e+06
3.43086e+06
3.42274e+06
3.41622e+06
3.40498e+06
3.40307e+06
3.403e+06
3.4547e+06
3.45166e+06
3.44839e+06
3.44134e+06
3.43354e+06
3.42153e+06
3.40935e+06
3.39044e+06
3.38599e+06
3.38534e+06
3.477e+06
3.47336e+06
3.46817e+06
3.45832e+06
3.44597e+06
3.4285e+06
3.40739e+06
3.37775e+06
3.36739e+06
3.36569e+06
3.51714e+06
3.5131e+06
3.50553e+06
3.49229e+06
3.47442e+06
3.44978e+06
3.41701e+06
3.37354e+06
3.35005e+06
3.34662e+06
3.58199e+06
3.5778e+06
3.56782e+06
3.55138e+06
3.52809e+06
3.49597e+06
3.45123e+06
3.38939e+06
3.33814e+06
3.3321e+06
3.67587e+06
3.67189e+06
3.66015e+06
3.64121e+06
3.613e+06
3.57386e+06
3.51656e+06
3.4299e+06
3.33334e+06
3.32361e+06
3.79918e+06
3.79543e+06
3.7822e+06
3.76089e+06
3.72864e+06
3.68153e+06
3.60792e+06
3.50125e+06
3.37445e+06
3.33646e+06
3.94315e+06
3.94131e+06
3.93223e+06
3.91736e+06
3.89416e+06
3.85455e+06
3.79026e+06
3.68659e+06
3.45077e+06
3.11659e+06
4.10816e+06
4.10876e+06
4.10689e+06
4.10526e+06
4.10383e+06
4.10081e+06
4.10303e+06
4.10028e+06
4.0249e+06
3.97704e+06
4.25499e+06
4.37631e+06
4.43511e+06
4.46275e+06
4.47811e+06
4.48675e+06
4.492e+06
4.21319e+06
4.21432e+06
4.2144e+06
4.21563e+06
4.21756e+06
4.2205e+06
4.22778e+06
4.23819e+06
4.25006e+06
4.30276e+06
4.38648e+06
4.42305e+06
4.45259e+06
4.46969e+06
4.48103e+06
4.48808e+06
4.49264e+06
4.31124e+06
4.31258e+06
4.31379e+06
4.31669e+06
4.32079e+06
4.32641e+06
4.33508e+06
4.34482e+06
4.3544e+06
4.37921e+06
4.41642e+06
4.44252e+06
4.46201e+06
4.47485e+06
4.4836e+06
4.48939e+06
4.49328e+06
4.36686e+06
4.36811e+06
4.36967e+06
4.37283e+06
4.37719e+06
4.38318e+06
4.39117e+06
4.40126e+06
4.41387e+06
4.43027e+06
4.44714e+06
4.46075e+06
4.472e+06
4.48035e+06
4.48655e+06
4.49097e+06
4.4941e+06
4.41143e+06
4.41232e+06
4.41347e+06
4.41579e+06
4.4189e+06
4.4231e+06
4.42847e+06
4.43487e+06
4.44243e+06
4.45186e+06
4.46193e+06
4.47085e+06
4.4784e+06
4.48434e+06
4.48892e+06
4.49234e+06
4.49486e+06
4.4373e+06
4.43803e+06
4.43904e+06
4.44096e+06
4.44348e+06
4.44682e+06
4.4509e+06
4.45575e+06
4.46124e+06
4.46724e+06
4.47323e+06
4.47875e+06
4.48363e+06
4.4877e+06
4.49101e+06
4.4936e+06
4.49559e+06
4.45653e+06
4.45713e+06
4.45777e+06
4.45905e+06
4.46071e+06
4.46292e+06
4.46559e+06
4.46873e+06
4.47227e+06
4.47615e+06
4.48011e+06
4.48386e+06
4.48726e+06
4.4902e+06
4.49265e+06
4.49464e+06
4.49622e+06
4.4684e+06
4.4689e+06
4.46941e+06
4.47037e+06
4.47161e+06
4.47324e+06
4.47517e+06
4.47741e+06
4.47988e+06
4.4825e+06
4.48515e+06
4.4877e+06
4.49007e+06
4.49218e+06
4.494e+06
4.49553e+06
4.49677e+06
4.4772e+06
4.47746e+06
4.47779e+06
4.47845e+06
4.47928e+06
4.48039e+06
4.48171e+06
4.48324e+06
4.48493e+06
4.48674e+06
4.48859e+06
4.49041e+06
4.49213e+06
4.49369e+06
4.49507e+06
4.49625e+06
4.49724e+06
4.48291e+06
4.48311e+06
4.48335e+06
4.48384e+06
4.48446e+06
4.48527e+06
4.48622e+06
4.48733e+06
4.48854e+06
4.48983e+06
4.49115e+06
4.49246e+06
4.49371e+06
4.49488e+06
4.49593e+06
4.49685e+06
4.49764e+06
4.4871e+06
4.48725e+06
4.48741e+06
4.48776e+06
4.4882e+06
4.48878e+06
4.48945e+06
4.49024e+06
4.49111e+06
4.49204e+06
4.49301e+06
4.49398e+06
4.49492e+06
4.49581e+06
4.49662e+06
4.49734e+06
4.49797e+06
4.49851e+06
4.49895e+06
4.49003e+06
4.49014e+06
4.49026e+06
4.49053e+06
4.49085e+06
4.49129e+06
4.49179e+06
4.49237e+06
4.49301e+06
4.4937e+06
4.49442e+06
4.49515e+06
4.49586e+06
4.49654e+06
4.49718e+06
4.49775e+06
4.49826e+06
4.49869e+06
4.49906e+06
4.49223e+06
4.49231e+06
4.4924e+06
4.49259e+06
4.49283e+06
4.49315e+06
4.49352e+06
4.49395e+06
4.49443e+06
4.49495e+06
4.49549e+06
4.49605e+06
4.4966e+06
4.49713e+06
4.49762e+06
4.49808e+06
4.49849e+06
4.49885e+06
4.49915e+06
4.49384e+06
4.49391e+06
4.49397e+06
4.49412e+06
4.4943e+06
4.49454e+06
4.49482e+06
4.49515e+06
4.49551e+06
4.49591e+06
4.49633e+06
4.49675e+06
4.49718e+06
4.49759e+06
4.49799e+06
4.49836e+06
4.49869e+06
4.49898e+06
4.49923e+06
4.49507e+06
4.49512e+06
4.49517e+06
4.49528e+06
4.49542e+06
4.4956e+06
4.49582e+06
4.49607e+06
4.49635e+06
4.49665e+06
4.49697e+06
4.49731e+06
4.49764e+06
4.49797e+06
4.49829e+06
4.49858e+06
4.49885e+06
4.4991e+06
4.49931e+06
4.496e+06
4.49605e+06
4.49608e+06
4.49617e+06
4.49627e+06
4.49642e+06
4.49658e+06
4.49678e+06
4.497e+06
4.49723e+06
4.49749e+06
4.49775e+06
4.49801e+06
4.49828e+06
4.49853e+06
4.49877e+06
4.49899e+06
4.49919e+06
4.49937e+06
4.49674e+06
4.49677e+06
4.49679e+06
4.49686e+06
4.49694e+06
4.49705e+06
4.49718e+06
4.49734e+06
4.49751e+06
4.49769e+06
4.49789e+06
4.4981e+06
4.49831e+06
4.49852e+06
4.49873e+06
4.49892e+06
4.49911e+06
4.49927e+06
4.49942e+06
4.4973e+06
4.49733e+06
4.49735e+06
4.4974e+06
4.49746e+06
4.49755e+06
4.49765e+06
4.49778e+06
4.49791e+06
4.49806e+06
4.49822e+06
4.49839e+06
4.49856e+06
4.49873e+06
4.49889e+06
4.49905e+06
4.4992e+06
4.49934e+06
4.49946e+06
4.49775e+06
4.49777e+06
4.49779e+06
4.49783e+06
4.49788e+06
4.49795e+06
4.49803e+06
4.49813e+06
4.49823e+06
4.49835e+06
4.49848e+06
4.49862e+06
4.49875e+06
4.49889e+06
4.49903e+06
4.49916e+06
4.49928e+06
4.4994e+06
4.4995e+06
4.49811e+06
4.49812e+06
4.49814e+06
4.49817e+06
4.49821e+06
4.49827e+06
4.49833e+06
4.49841e+06
4.49849e+06
4.49859e+06
4.49869e+06
4.4988e+06
4.49891e+06
4.49903e+06
4.49914e+06
4.49925e+06
4.49935e+06
4.49944e+06
4.49953e+06
4.4984e+06
4.49841e+06
4.49842e+06
4.49844e+06
4.49847e+06
4.49852e+06
4.49857e+06
4.49863e+06
4.4987e+06
4.49878e+06
4.49887e+06
4.49895e+06
4.49905e+06
4.49914e+06
4.49923e+06
4.49932e+06
4.4994e+06
4.49948e+06
4.49955e+06
4.49863e+06
4.49864e+06
4.49864e+06
4.49866e+06
4.49869e+06
4.49872e+06
4.49877e+06
4.49882e+06
4.49887e+06
4.49894e+06
4.49901e+06
4.49908e+06
4.49915e+06
4.49923e+06
4.4993e+06
4.49938e+06
4.49945e+06
4.49951e+06
4.49957e+06
4.49881e+06
4.49882e+06
4.49882e+06
4.49884e+06
4.49886e+06
4.49889e+06
4.49892e+06
4.49897e+06
4.49901e+06
4.49906e+06
4.49912e+06
4.49918e+06
4.49924e+06
4.4993e+06
4.49936e+06
4.49943e+06
4.49948e+06
4.49954e+06
4.49959e+06
4.49896e+06
4.49897e+06
4.49897e+06
4.49899e+06
4.499e+06
4.49902e+06
4.49905e+06
4.49909e+06
4.49912e+06
4.49917e+06
4.49921e+06
4.49926e+06
4.49931e+06
4.49936e+06
4.49941e+06
4.49947e+06
4.49951e+06
4.49956e+06
4.4996e+06
4.49908e+06
4.49909e+06
4.49909e+06
4.4991e+06
4.49911e+06
4.49913e+06
4.49916e+06
4.49918e+06
4.49922e+06
4.49925e+06
4.49929e+06
4.49933e+06
4.49937e+06
4.49941e+06
4.49946e+06
4.4995e+06
4.49954e+06
4.49958e+06
4.49961e+06
4.49918e+06
4.49919e+06
4.49919e+06
4.4992e+06
4.49921e+06
4.49922e+06
4.49924e+06
4.49926e+06
4.49929e+06
4.49932e+06
4.49935e+06
4.49938e+06
4.49942e+06
4.49945e+06
4.49949e+06
4.49952e+06
4.49956e+06
4.49959e+06
4.49962e+06
4.49926e+06
4.49927e+06
4.49927e+06
4.49928e+06
4.49928e+06
4.4993e+06
4.49931e+06
4.49933e+06
4.49935e+06
4.49937e+06
4.4994e+06
4.49943e+06
4.49946e+06
4.49948e+06
4.49951e+06
4.49954e+06
4.49957e+06
4.4996e+06
4.49962e+06
4.49932e+06
4.49933e+06
4.49933e+06
4.49934e+06
4.49935e+06
4.49936e+06
4.49937e+06
4.49938e+06
4.4994e+06
4.49942e+06
4.49944e+06
4.49946e+06
4.49949e+06
4.49951e+06
4.49954e+06
4.49956e+06
4.49958e+06
4.49961e+06
4.49963e+06
4.49938e+06
4.49938e+06
4.49938e+06
4.49939e+06
4.49939e+06
4.4994e+06
4.49941e+06
4.49943e+06
4.49944e+06
4.49946e+06
4.49947e+06
4.49949e+06
4.49951e+06
4.49953e+06
4.49955e+06
4.49957e+06
4.49959e+06
4.49961e+06
4.49963e+06
4.49942e+06
4.49942e+06
4.49942e+06
4.49943e+06
4.49943e+06
4.49944e+06
4.49945e+06
4.49946e+06
4.49947e+06
4.49948e+06
4.4995e+06
4.49951e+06
4.49953e+06
4.49955e+06
4.49956e+06
4.49958e+06
4.4996e+06
4.49961e+06
4.49963e+06
4.49945e+06
4.49946e+06
4.49946e+06
4.49946e+06
4.49947e+06
4.49947e+06
4.49948e+06
4.49949e+06
4.4995e+06
4.49951e+06
4.49952e+06
4.49953e+06
4.49955e+06
4.49956e+06
4.49957e+06
4.49959e+06
4.4996e+06
4.49961e+06
4.49963e+06
4.49948e+06
4.49949e+06
4.49949e+06
4.49949e+06
4.49949e+06
4.4995e+06
4.4995e+06
4.49951e+06
4.49952e+06
4.49953e+06
4.49954e+06
4.49955e+06
4.49956e+06
4.49957e+06
4.49958e+06
4.49959e+06
4.4996e+06
4.49961e+06
4.49962e+06
4.49951e+06
4.49951e+06
4.49951e+06
4.49951e+06
4.49951e+06
4.49952e+06
4.49952e+06
4.49953e+06
4.49953e+06
4.49954e+06
4.49955e+06
4.49956e+06
4.49957e+06
4.49958e+06
4.49958e+06
4.49959e+06
4.4996e+06
4.49961e+06
4.49962e+06
4.49952e+06
4.49952e+06
4.49953e+06
4.49953e+06
4.49953e+06
4.49953e+06
4.49954e+06
4.49954e+06
4.49955e+06
4.49955e+06
4.49956e+06
4.49957e+06
4.49957e+06
4.49958e+06
4.49959e+06
4.49959e+06
4.4996e+06
4.49961e+06
4.49962e+06
4.49954e+06
4.49954e+06
4.49954e+06
4.49954e+06
4.49954e+06
4.49954e+06
4.49955e+06
4.49955e+06
4.49956e+06
4.49956e+06
4.49957e+06
4.49957e+06
4.49958e+06
4.49958e+06
4.49959e+06
4.49959e+06
4.4996e+06
4.49961e+06
4.49961e+06
4.49955e+06
4.49955e+06
4.49955e+06
4.49955e+06
4.49955e+06
4.49956e+06
4.49956e+06
4.49956e+06
4.49956e+06
4.49957e+06
4.49957e+06
4.49958e+06
4.49958e+06
4.49958e+06
4.49959e+06
4.49959e+06
4.4996e+06
4.4996e+06
4.49961e+06
4.49956e+06
4.49956e+06
4.49956e+06
4.49956e+06
4.49956e+06
4.49956e+06
4.49956e+06
4.49957e+06
4.49957e+06
4.49957e+06
4.49958e+06
4.49958e+06
4.49958e+06
4.49959e+06
4.49959e+06
4.49959e+06
4.4996e+06
4.4996e+06
4.4996e+06
4.49957e+06
4.49957e+06
4.49957e+06
4.49957e+06
4.49957e+06
4.49957e+06
4.49957e+06
4.49957e+06
4.49957e+06
4.49958e+06
4.49958e+06
4.49958e+06
4.49958e+06
4.49958e+06
4.49959e+06
4.49959e+06
4.49959e+06
4.49959e+06
4.4996e+06
4.49957e+06
4.49957e+06
4.49957e+06
4.49957e+06
4.49957e+06
4.49957e+06
4.49957e+06
4.49958e+06
4.49958e+06
4.49958e+06
4.49958e+06
4.49958e+06
4.49958e+06
4.49958e+06
4.49959e+06
4.49959e+06
4.49959e+06
4.49959e+06
4.49959e+06
4.49958e+06
4.49958e+06
4.49958e+06
4.49958e+06
4.49958e+06
4.49958e+06
4.49958e+06
4.49958e+06
4.49958e+06
4.49958e+06
4.49958e+06
4.49958e+06
4.49958e+06
4.49958e+06
4.49958e+06
4.49958e+06
4.49958e+06
4.49958e+06
4.49958e+06
3.42236e+06
3.42377e+06
3.42362e+06
3.4236e+06
3.42294e+06
3.42263e+06
3.42189e+06
3.42132e+06
3.42067e+06
3.42389e+06
3.42244e+06
3.42341e+06
3.42224e+06
3.42236e+06
3.4215e+06
3.42105e+06
3.42103e+06
3.42229e+06
3.42225e+06
3.42292e+06
3.42254e+06
3.42267e+06
3.42943e+06
3.41984e+06
3.42417e+06
3.42154e+06
3.42333e+06
3.42171e+06
3.42222e+06
3.4213e+06
3.42097e+06
3.42098e+06
3.4224e+06
3.42229e+06
3.42307e+06
3.42281e+06
3.42383e+06
3.43097e+06
3.41921e+06
3.42438e+06
3.42086e+06
3.4233e+06
3.42136e+06
3.42218e+06
3.42125e+06
3.42101e+06
3.42103e+06
3.42265e+06
3.42248e+06
3.42341e+06
3.42336e+06
3.42533e+06
3.43275e+06
3.41889e+06
3.42456e+06
3.42043e+06
3.42332e+06
3.42119e+06
3.42225e+06
3.42132e+06
3.42117e+06
3.42116e+06
3.42303e+06
3.42283e+06
3.42393e+06
3.42423e+06
3.42719e+06
3.43478e+06
3.41872e+06
3.42451e+06
3.42023e+06
3.42339e+06
3.42121e+06
3.42243e+06
3.42152e+06
3.42143e+06
3.42135e+06
3.42351e+06
3.42338e+06
3.42466e+06
3.42549e+06
3.42942e+06
3.43708e+06
3.41923e+06
3.42469e+06
3.42045e+06
3.42359e+06
3.42144e+06
3.42276e+06
3.42183e+06
3.42184e+06
3.42163e+06
3.4241e+06
3.42421e+06
3.42565e+06
3.42724e+06
3.43207e+06
3.43968e+06
3.42024e+06
3.42499e+06
3.42103e+06
3.42397e+06
3.4219e+06
3.42332e+06
3.42229e+06
3.42243e+06
3.422e+06
3.4248e+06
3.42544e+06
3.42702e+06
3.42962e+06
3.43516e+06
3.44261e+06
3.42165e+06
3.42553e+06
3.422e+06
3.42465e+06
3.42265e+06
3.42415e+06
3.4229e+06
3.42326e+06
3.42247e+06
3.42557e+06
3.42712e+06
3.42885e+06
3.43269e+06
3.4387e+06
3.44588e+06
3.42292e+06
3.42627e+06
3.42335e+06
3.42574e+06
3.42376e+06
3.42535e+06
3.42369e+06
3.42441e+06
3.42301e+06
3.4264e+06
3.42922e+06
3.4312e+06
3.43649e+06
3.44269e+06
3.4495e+06
3.42534e+06
3.42778e+06
3.42535e+06
3.4274e+06
3.42537e+06
3.42703e+06
3.42474e+06
3.42595e+06
3.42359e+06
3.4272e+06
3.43172e+06
3.43418e+06
3.44105e+06
3.44714e+06
3.45346e+06
3.42865e+06
3.43014e+06
3.4282e+06
3.42985e+06
3.42773e+06
3.42934e+06
3.4262e+06
3.42796e+06
3.42413e+06
3.42786e+06
3.43455e+06
3.43797e+06
3.4463e+06
3.45207e+06
3.45775e+06
3.43311e+06
3.43358e+06
3.43222e+06
3.43344e+06
3.43122e+06
3.43252e+06
3.42832e+06
3.43052e+06
3.42496e+06
3.42849e+06
3.43767e+06
3.44298e+06
3.45216e+06
3.45751e+06
3.46234e+06
3.43861e+06
3.43813e+06
3.43793e+06
3.43872e+06
3.43645e+06
3.4371e+06
3.43172e+06
3.43408e+06
3.42643e+06
3.42953e+06
3.4412e+06
3.44951e+06
3.45854e+06
3.4635e+06
3.4672e+06
3.44769e+06
3.4461e+06
3.4466e+06
3.44642e+06
3.44414e+06
3.4438e+06
3.43725e+06
3.43959e+06
3.4298e+06
3.43243e+06
3.44558e+06
3.4573e+06
3.46532e+06
3.46993e+06
3.47228e+06
3.46021e+06
3.45754e+06
3.45868e+06
3.45731e+06
3.45516e+06
3.45362e+06
3.44621e+06
3.44796e+06
3.43707e+06
3.43924e+06
3.45204e+06
3.4664e+06
3.47282e+06
3.47682e+06
3.47766e+06
3.47612e+06
3.47284e+06
3.4744e+06
3.47194e+06
3.47003e+06
3.46707e+06
3.4597e+06
3.46042e+06
3.44906e+06
3.45053e+06
3.46143e+06
3.47686e+06
3.48125e+06
3.48411e+06
3.48335e+06
3.49307e+06
3.49144e+06
3.4933e+06
3.49031e+06
3.48876e+06
3.48459e+06
3.47829e+06
3.4774e+06
3.4673e+06
3.46746e+06
3.47517e+06
3.48921e+06
3.49099e+06
3.49188e+06
3.48939e+06
3.51491e+06
3.51379e+06
3.515e+06
3.5119e+06
3.51076e+06
3.50612e+06
3.50199e+06
3.49932e+06
3.49295e+06
3.4913e+06
3.4944e+06
3.50366e+06
3.50216e+06
3.50008e+06
3.49574e+06
3.53799e+06
3.53767e+06
3.53779e+06
3.53531e+06
3.5348e+06
3.53074e+06
3.52982e+06
3.52635e+06
3.52629e+06
3.52162e+06
3.51703e+06
3.51941e+06
3.51406e+06
3.50836e+06
3.50218e+06
3.56003e+06
3.56077e+06
3.55972e+06
3.55833e+06
3.55855e+06
3.55574e+06
3.55845e+06
3.55532e+06
3.56201e+06
3.55336e+06
3.54092e+06
3.53459e+06
3.52569e+06
3.51618e+06
3.50835e+06
3.57894e+06
3.58054e+06
3.5787e+06
3.57853e+06
3.57938e+06
3.57789e+06
3.58359e+06
3.58077e+06
3.59269e+06
3.57948e+06
3.56461e+06
3.54745e+06
3.53636e+06
3.52303e+06
3.51398e+06
3.59409e+06
3.59614e+06
3.59378e+06
3.5945e+06
3.59565e+06
3.59515e+06
3.60256e+06
3.59934e+06
3.61463e+06
3.59803e+06
3.58415e+06
3.55732e+06
3.54518e+06
3.52864e+06
3.51881e+06
3.60488e+06
3.60718e+06
3.60458e+06
3.60587e+06
3.60681e+06
3.60702e+06
3.61439e+06
3.6104e+06
3.62708e+06
3.6078e+06
3.59687e+06
3.56409e+06
3.55151e+06
3.53296e+06
3.52268e+06
3.61196e+06
3.6142e+06
3.6115e+06
3.61311e+06
3.61344e+06
3.61424e+06
3.61981e+06
3.61572e+06
3.63104e+06
3.61071e+06
3.60318e+06
3.56896e+06
3.55582e+06
3.53632e+06
3.52565e+06
3.61582e+06
3.61813e+06
3.6156e+06
3.61727e+06
3.61703e+06
3.6185e+06
3.62156e+06
3.61919e+06
3.6297e+06
3.61229e+06
3.60677e+06
3.57369e+06
3.55878e+06
3.53919e+06
3.52787e+06
3.61804e+06
3.61945e+06
3.61753e+06
3.61915e+06
3.61891e+06
3.62125e+06
3.62281e+06
3.62391e+06
3.62858e+06
3.61948e+06
3.61339e+06
3.58093e+06
3.56129e+06
3.61783e+06
3.61819e+06
3.61727e+06
3.61876e+06
3.61902e+06
3.62225e+06
3.62377e+06
3.6283e+06
3.62966e+06
3.62927e+06
3.62134e+06
3.59068e+06
3.56286e+06
3.61485e+06
3.61428e+06
3.61437e+06
3.61565e+06
3.61649e+06
3.62017e+06
3.62209e+06
3.62856e+06
3.62837e+06
3.63314e+06
3.62281e+06
3.5986e+06
3.56248e+06
3.60964e+06
3.60827e+06
3.60883e+06
3.60976e+06
3.61084e+06
3.61425e+06
3.61603e+06
3.62222e+06
3.62098e+06
3.62719e+06
3.61668e+06
3.59989e+06
3.56172e+06
3.60131e+06
3.60016e+06
3.60092e+06
3.60163e+06
3.60261e+06
3.6052e+06
3.6064e+06
3.61092e+06
3.60872e+06
3.61427e+06
3.60542e+06
3.59449e+06
3.56083e+06
3.59164e+06
3.59109e+06
3.59168e+06
3.5922e+06
3.59283e+06
3.59436e+06
3.59482e+06
3.59725e+06
3.59464e+06
3.59868e+06
3.59212e+06
3.58533e+06
3.55909e+06
3.58178e+06
3.58178e+06
3.58203e+06
3.5824e+06
3.58255e+06
3.58312e+06
3.58287e+06
3.58337e+06
3.58082e+06
3.58308e+06
3.57866e+06
3.57465e+06
3.55559e+06
3.57265e+06
3.57296e+06
3.57287e+06
3.57306e+06
3.57278e+06
3.57262e+06
3.57179e+06
3.57091e+06
3.56889e+06
3.56953e+06
3.56753e+06
3.56524e+06
3.55284e+06
3.56459e+06
3.56501e+06
3.56471e+06
3.56474e+06
3.56418e+06
3.56358e+06
3.56236e+06
3.56075e+06
3.55912e+06
3.55812e+06
3.55783e+06
3.55662e+06
3.54852e+06
3.5579e+06
3.55819e+06
3.55784e+06
3.55767e+06
3.55696e+06
3.55609e+06
3.55467e+06
3.55312e+06
3.55199e+06
3.55089e+06
3.55271e+06
3.55216e+06
3.54777e+06
3.55257e+06
3.55258e+06
3.5523e+06
3.55192e+06
3.55116e+06
3.55003e+06
3.54834e+06
3.54638e+06
3.54409e+06
3.54299e+06
3.54363e+06
3.54414e+06
3.53918e+06
3.54875e+06
3.54843e+06
3.5484e+06
3.5479e+06
3.54734e+06
3.54631e+06
3.54502e+06
3.54344e+06
3.54176e+06
3.5415e+06
3.54601e+06
3.54535e+06
3.54559e+06
3.54503e+06
3.54476e+06
3.54399e+06
3.54324e+06
3.54229e+06
3.54166e+06
3.54161e+06
3.54406e+06
3.54311e+06
3.5436e+06
3.54302e+06
3.543e+06
3.54244e+06
3.54208e+06
3.54155e+06
3.54127e+06
3.54125e+06
3.54253e+06
3.54139e+06
3.54208e+06
3.5415e+06
3.54169e+06
3.54132e+06
3.54123e+06
3.54097e+06
3.54088e+06
3.5409e+06
3.54118e+06
3.53996e+06
3.54081e+06
3.54027e+06
3.54061e+06
3.54036e+06
3.54044e+06
3.54035e+06
3.54035e+06
3.54038e+06
3.53993e+06
3.53874e+06
3.53964e+06
3.53915e+06
3.53959e+06
3.53945e+06
3.53964e+06
3.53967e+06
3.53972e+06
3.53976e+06
3.5387e+06
3.53767e+06
3.53849e+06
3.53807e+06
3.53857e+06
3.5385e+06
3.53876e+06
3.53888e+06
3.53897e+06
3.53901e+06
3.53736e+06
3.53652e+06
3.53729e+06
3.53696e+06
3.53748e+06
3.53748e+06
3.53779e+06
3.53797e+06
3.53808e+06
3.53813e+06
3.53594e+06
3.53531e+06
3.53605e+06
3.53581e+06
3.5363e+06
3.53636e+06
3.5367e+06
3.53691e+06
3.53703e+06
3.53709e+06
3.5345e+06
3.53404e+06
3.5347e+06
3.53452e+06
3.53503e+06
3.5351e+06
3.53546e+06
3.53569e+06
3.53582e+06
3.53588e+06
3.533e+06
3.53265e+06
3.53326e+06
3.53311e+06
3.53362e+06
3.53369e+06
3.53406e+06
3.53431e+06
3.53444e+06
3.53451e+06
3.53148e+06
3.53112e+06
3.53174e+06
3.53155e+06
3.53207e+06
3.53212e+06
3.53249e+06
3.53274e+06
3.53287e+06
3.53296e+06
3.52989e+06
3.52941e+06
3.53009e+06
3.52982e+06
3.53035e+06
3.53037e+06
3.53073e+06
3.53099e+06
3.53112e+06
3.53122e+06
3.52822e+06
3.52749e+06
3.52828e+06
3.52789e+06
3.52844e+06
3.52842e+06
3.52878e+06
3.52905e+06
3.52917e+06
3.52928e+06
3.52636e+06
3.52534e+06
3.52626e+06
3.52574e+06
3.5263e+06
3.52626e+06
3.52661e+06
3.52691e+06
3.52701e+06
3.52713e+06
3.5242e+06
3.52291e+06
3.52395e+06
3.52333e+06
3.5239e+06
3.52385e+06
3.52418e+06
3.52451e+06
3.52461e+06
3.52474e+06
3.52165e+06
3.52019e+06
3.52132e+06
3.52065e+06
3.5212e+06
3.52117e+06
3.52148e+06
3.52185e+06
3.52194e+06
3.52208e+06
3.51861e+06
3.51715e+06
3.51827e+06
3.51766e+06
3.51816e+06
3.51821e+06
3.51847e+06
3.51891e+06
3.51899e+06
3.51915e+06
3.51505e+06
3.51378e+06
3.51478e+06
3.51432e+06
3.51476e+06
3.51491e+06
3.51513e+06
3.51565e+06
3.51574e+06
3.5159e+06
3.51087e+06
3.51003e+06
3.51079e+06
3.5106e+06
3.51093e+06
3.51123e+06
3.51143e+06
3.51204e+06
3.51214e+06
3.51231e+06
3.50612e+06
3.50588e+06
3.50631e+06
3.50644e+06
3.50666e+06
3.50713e+06
3.50732e+06
3.50803e+06
3.50815e+06
3.50833e+06
3.50082e+06
3.50134e+06
3.50133e+06
3.50184e+06
3.50192e+06
3.50256e+06
3.50277e+06
3.50358e+06
3.50373e+06
3.50391e+06
3.49521e+06
3.49646e+06
3.49589e+06
3.49676e+06
3.49671e+06
3.4975e+06
3.49773e+06
3.49863e+06
3.49882e+06
3.499e+06
3.48901e+06
3.49101e+06
3.49001e+06
3.49119e+06
3.49103e+06
3.4919e+06
3.49217e+06
3.49312e+06
3.49334e+06
3.49354e+06
3.4825e+06
3.48511e+06
3.48374e+06
3.48512e+06
3.48485e+06
3.48572e+06
3.48602e+06
3.48698e+06
3.48724e+06
3.48745e+06
3.47573e+06
3.47868e+06
3.47707e+06
3.47849e+06
3.47817e+06
3.47893e+06
3.47926e+06
3.48014e+06
3.48043e+06