/*--------------------------------*- C++ -*----------------------------------*\
| =========                 |                                                 |
| \\      /  F ield         | OpenFOAM: The Open Source CFD Toolbox           |
|  \\    /   O peration     | Version:  v2012                                 |
|   \\  /    A nd           | Website:  www.openfoam.com                      |
|    \\/     M anipulation  |                                                 |
\*---------------------------------------------------------------------------*/
FoamFile
{
    version     2.0;
    format      ascii;
    class       volVectorField;
    location    "1";
    object      U;
}
// * * * * * * * * * * * * * * * * * * * * * * * * * * * * * * * * * * * * * //

dimensions      [0 1 -1 0 0 0 0];


internalField   nonuniform List<vector> 
3352
(
(-0.0179341 -43.7394 0.000156503)
(0.0497666 -42.7951 -0.00043446)
(-0.0481127 -41.1812 0.000419535)
(-0.122084 -39.1548 0.00106494)
(-0.134427 -35.1479 0.00117294)
(0.0254726 -33.2168 -0.000222073)
(0.140532 -27.04 -0.00122089)
(0.148919 -24.7412 -0.00129452)
(0.152093 -23.7009 -0.00132522)
(0.166095 -22.2353 -0.00144763)
(0.189678 -19.9678 -0.00165145)
(0.178646 -16.6833 -0.00155556)
(0.180039 -13.851 -0.00156412)
(0.170648 -12.3762 -0.00148732)
(0.163328 -11.5948 -0.0014253)
(0.150444 -11.0218 -0.00131321)
(0.137068 -10.483 -0.00119649)
(0.123511 -9.92987 -0.00107817)
(0.110296 -9.35749 -0.000962833)
(0.0974451 -8.77386 -0.000850669)
(0.084896 -8.18969 -0.00074114)
(0.0726295 -7.6136 -0.000634078)
(0.0605959 -7.05155 -0.000529048)
(0.0487913 -6.507 -0.000426016)
(0.0372183 -5.98167 -0.000325004)
(0.0259076 -5.4761 -0.000226281)
(0.0149053 -4.99021 -0.000130248)
(0.00427705 -4.52359 -3.7478e-05)
(-0.00589636 -4.0757 5.13243e-05)
(-0.0155188 -3.64605 0.000135321)
(-0.0244797 -3.23418 0.000213546)
(-0.0326543 -2.83976 0.000284911)
(-0.0399025 -2.46254 0.000348193)
(-0.0460661 -2.10238 0.000402015)
(-0.0509657 -1.75924 0.000444808)
(-0.0543887 -1.43314 0.00047472)
(-0.056084 -1.12418 0.000489561)
(-0.0556905 -0.83254 0.000486192)
(-0.0528348 -0.558441 0.000461333)
(-0.0141338 -43.7931 0.000123343)
(0.0633845 -42.804 -0.000553287)
(-0.0489124 -40.8342 0.000426464)
(-0.16768 -38.9047 0.00146296)
(-0.138316 -35.2886 0.00120702)
(0.0531808 -33.6086 -0.000463807)
(0.194358 -27.2536 -0.00168555)
(0.215449 -24.8141 -0.00187122)
(0.231135 -23.7825 -0.00201361)
(0.260988 -22.3354 -0.00227472)
(0.267064 -20.0374 -0.00232525)
(0.225878 -16.7101 -0.00195864)
(0.210121 -13.8759 -0.0018243)
(0.205245 -12.3926 -0.00178861)
(0.192398 -11.6007 -0.00167899)
(0.175211 -11.0192 -0.00152939)
(0.155601 -10.4768 -0.00135827)
(0.137258 -9.92197 -0.00119817)
(0.12008 -9.34863 -0.00104824)
(0.104366 -8.76432 -0.000911072)
(0.0896967 -8.1796 -0.000783039)
(0.0759037 -7.60306 -0.00066265)
(0.0627447 -7.04066 -0.000547797)
(0.0501029 -6.4959 -0.000437458)
(0.0378924 -5.97047 -0.000330883)
(0.0260887 -5.46494 -0.000227859)
(0.0146988 -4.97921 -0.000128445)
(0.00376262 -4.51289 -3.29914e-05)
(-0.00665795 -4.06545 5.79634e-05)
(-0.0164805 -3.63635 0.000143701)
(-0.0256053 -3.22518 0.00022335)
(-0.0339168 -2.83157 0.000295901)
(-0.0412829 -2.45527 0.000360205)
(-0.0475543 -2.09616 0.000414956)
(-0.052562 -1.75418 0.000458681)
(-0.0561081 -1.42937 0.000489652)
(-0.0579694 -1.12185 0.000505921)
(-0.0578314 -0.831845 0.00050475)
(-0.0554625 -0.559689 0.000484092)
(-0.0111847 -43.8435 9.76082e-05)
(0.0554802 -42.8311 -0.000484293)
(-0.0463163 -40.6908 0.000403831)
(-0.107384 -38.8619 0.000936852)
(-0.0689704 -35.4059 0.000601847)
(0.0986001 -33.8383 -0.000860223)
(0.234839 -27.3999 -0.00203445)
(0.281986 -24.9083 -0.00244988)
(0.309787 -23.8591 -0.00269964)
(0.331622 -22.3759 -0.00289156)
(0.302923 -20.0028 -0.00263985)
(0.235061 -16.6739 -0.00203935)
(0.208745 -13.8862 -0.00181535)
(0.21278 -12.4025 -0.0018553)
(0.203092 -11.6007 -0.00177245)
(0.188494 -11.0138 -0.00164534)
(0.168557 -10.4689 -0.00147138)
(0.148919 -9.91382 -0.00129998)
(0.129836 -9.3408 -0.00113342)
(0.112265 -8.75688 -0.000980045)
(0.0958921 -8.17237 -0.000837138)
(0.0806438 -7.59589 -0.000704044)
(0.0662506 -7.03345 -0.000578414)
(0.0525736 -6.48857 -0.000459036)
(0.0394896 -5.96302 -0.000344833)
(0.0269458 -5.45741 -0.000235346)
(0.0149239 -4.97166 -0.000130413)
(0.00344453 -4.50538 -3.02157e-05)
(-0.00744619 -4.05808 6.48454e-05)
(-0.0176787 -3.62922 0.000154163)
(-0.0271643 -3.21839 0.000236964)
(-0.0357975 -2.82523 0.000312326)
(-0.043457 -2.4495 0.000379191)
(-0.0500053 -2.09108 0.000436359)
(-0.0552901 -1.74991 0.000482503)
(-0.0591378 -1.42605 0.000516106)
(-0.0613689 -1.11962 0.000535601)
(-0.0617461 -0.830861 0.000538922)
(-0.0601949 -0.560113 0.000525402)
(-0.0137594 -43.8888 0.000120087)
(0.0648415 -42.8298 -0.000565986)
(-0.0599258 -40.4818 0.000522576)
(-0.0968529 -38.7947 0.000845035)
(-0.067832 -35.5511 0.00059195)
(0.123419 -34.1542 -0.00107682)
(0.251144 -27.599 -0.00217461)
(0.298362 -25.0507 -0.00259139)
(0.338891 -23.9711 -0.00295319)
(0.357849 -22.4363 -0.00312025)
(0.326224 -19.993 -0.00284314)
(0.246531 -16.6475 -0.00214371)
(0.220246 -13.9028 -0.00191616)
(0.223251 -12.4282 -0.00194684)
(0.217513 -11.6126 -0.0018983)
(0.203446 -11.0138 -0.00177584)
(0.182914 -10.4623 -0.00159669)
(0.161525 -9.9045 -0.00141001)
(0.140331 -9.33056 -0.00122503)
(0.120669 -8.74655 -0.00105341)
(0.102404 -8.1622 -0.000893987)
(0.0855302 -7.58591 -0.000746706)
(0.0697597 -7.02364 -0.000609054)
(0.0549228 -6.47892 -0.000479552)
(0.0408546 -5.95353 -0.00035676)
(0.0274689 -5.4481 -0.000239924)
(0.0147189 -4.96259 -0.000128637)
(0.00260384 -4.49662 -2.28901e-05)
(-0.00884735 -4.04968 7.70631e-05)
(-0.0195786 -3.62126 0.000170734)
(-0.0295127 -3.21095 0.000257451)
(-0.0385551 -2.8184 0.000336384)
(-0.0465958 -2.44336 0.000406578)
(-0.0535111 -2.08571 0.000466951)
(-0.0591677 -1.7454 0.00051634)
(-0.0634201 -1.42247 0.000553476)
(-0.0661345 -1.11705 0.000577191)
(-0.0671535 -0.829356 0.000586112)
(-0.0665177 -0.559674 0.000580585)
(-0.0178347 -43.95 0.000155661)
(0.0787277 -42.8532 -0.000687176)
(-0.0731481 -40.3174 0.00063796)
(-0.0495765 -38.7896 0.000432547)
(-0.0519056 -35.6967 0.000452968)
(0.163082 -34.4616 -0.00142298)
(0.276607 -27.776 -0.00239562)
(0.325126 -25.1828 -0.00282435)
(0.365552 -24.0753 -0.00318575)
(0.382937 -22.4791 -0.00333921)
(0.342461 -19.9527 -0.00298503)
(0.259725 -16.6047 -0.00225898)
(0.232185 -13.9154 -0.00202108)
(0.234008 -12.4491 -0.00204099)
(0.227871 -11.6225 -0.00198877)
(0.213762 -11.0128 -0.00186588)
(0.192977 -10.455 -0.00168453)
(0.17082 -9.8945 -0.00149115)
(0.1485 -9.31973 -0.00129635)
(0.127523 -8.73573 -0.00111325)
(0.107908 -8.15163 -0.000942047)
(0.0897405 -7.57562 -0.000783468)
(0.0727735 -7.01356 -0.000635372)
(0.0568528 -6.46901 -0.000496408)
(0.0418103 -5.94378 -0.00036511)
(0.0275508 -5.43852 -0.000240647)
(0.0140163 -4.95321 -0.000122511)
(0.00119482 -4.48751 -1.05984e-05)
(-0.0108949 -4.04091 9.49284e-05)
(-0.0222061 -3.61293 0.000193662)
(-0.0326704 -3.20313 0.000285006)
(-0.0422026 -2.81117 0.000368215)
(-0.0507034 -2.43682 0.000442424)
(-0.0580629 -2.07993 0.000506673)
(-0.0641666 -1.74046 0.000559965)
(-0.0688972 -1.41844 0.000601274)
(-0.0721622 -1.11398 0.000629792)
(-0.0738714 -0.827248 0.000644734)
(-0.0741327 -0.558462 0.000647036)
(-0.0227528 -44.0127 0.00019859)
(0.0903348 -42.8574 -0.000788483)
(-0.095755 -40.163 0.000835261)
(0.00262461 -38.8096 -2.29711e-05)
(-0.0573179 -35.8415 0.000500186)
(0.199931 -34.794 -0.00174462)
(0.282559 -27.9544 -0.00244671)
(0.331871 -25.3298 -0.00288282)
(0.374475 -24.1937 -0.0032635)
(0.392854 -22.5321 -0.00342573)
(0.351649 -19.9278 -0.00306531)
(0.273742 -16.5738 -0.00238201)
(0.246001 -13.9307 -0.00214223)
(0.245641 -12.473 -0.00214274)
(0.238582 -11.6347 -0.0020823)
(0.223372 -11.0134 -0.00194978)
(0.201846 -10.4484 -0.00176195)
(0.178645 -9.88436 -0.00155946)
(0.155194 -9.30818 -0.00135478)
(0.132989 -8.72388 -0.00116097)
(0.112163 -8.13992 -0.000979197)
(0.0928384 -7.56419 -0.000810518)
(0.0747957 -7.00241 -0.000653033)
(0.0578838 -6.45812 -0.000505418)
(0.0419309 -5.93313 -0.000366174)
(0.0268344 -5.42813 -0.000234405)
(0.0125282 -4.94311 -0.000109532)
(-0.0010067 -4.47775 8.60749e-06)
(-0.0137574 -4.03156 0.000119904)
(-0.0256824 -3.60404 0.000223996)
(-0.036719 -3.19479 0.000320335)
(-0.0467882 -2.80346 0.000408231)
(-0.0557988 -2.42981 0.000486889)
(-0.0636524 -2.07369 0.000555452)
(-0.0702509 -1.73506 0.000613062)
(-0.0755012 -1.41392 0.000658906)
(-0.0793429 -1.11037 0.000692457)
(-0.081735 -0.824522 0.000713357)
(-0.082813 -0.556524 0.000722785)
(-0.02673 -44.0828 0.000233306)
(0.1005 -42.8599 -0.000877202)
(-0.112436 -40.0596 0.00098088)
(0.0796876 -38.8651 -0.000695517)
(-0.0612803 -35.9787 0.000534728)
(0.24859 -35.1334 -0.00216932)
(0.294212 -28.114 -0.00254784)
(0.345062 -25.4683 -0.00299789)
(0.384496 -24.3073 -0.00335097)
(0.401864 -22.5793 -0.00350441)
(0.357392 -19.8981 -0.00311555)
(0.283067 -16.5427 -0.00246392)
(0.256408 -13.9441 -0.0022336)
(0.254398 -12.4941 -0.00221937)
(0.246016 -11.6451 -0.00214723)
(0.229746 -11.0129 -0.00200542)
(0.207604 -10.441 -0.00181221)
(0.183696 -9.87356 -0.00160355)
(0.159508 -9.29599 -0.00139245)
(0.136455 -8.71137 -0.00119124)
(0.114747 -8.12753 -0.00100176)
(0.094522 -7.55207 -0.000825223)
(0.0755962 -6.99057 -0.00066003)
(0.0578299 -6.44654 -0.000504957)
(0.0410595 -5.92181 -0.000358577)
(0.0251839 -5.41708 -0.000220008)
(0.0101372 -4.93237 -8.86725e-05)
(-0.00410015 -4.46737 3.55991e-05)
(-0.0175163 -4.0216 0.000152704)
(-0.0300711 -3.59458 0.000262293)
(-0.0417036 -3.18591 0.000363833)
(-0.0523378 -2.79522 0.000456661)
(-0.0618882 -2.42228 0.000540031)
(-0.0702648 -2.06695 0.000613159)
(-0.0773824 -1.72915 0.000675298)
(-0.083166 -1.40888 0.000725797)
(-0.0875779 -1.1062 0.000764324)
(-0.0906077 -0.821187 0.000790788)
(-0.0923909 -0.553922 0.000806372)
(-0.0265521 -44.1568 0.000231756)
(0.101438 -42.8477 -0.000885397)
(-0.117637 -40.0313 0.00102637)
(0.172859 -38.9457 -0.00150871)
(-0.0682453 -36.1054 0.000595441)
(0.301531 -35.4846 -0.00263139)
(0.301095 -28.2598 -0.00260732)
(0.353856 -25.6091 -0.00307467)
(0.390824 -24.4238 -0.00340623)
(0.407259 -22.6286 -0.00355156)
(0.360641 -19.8745 -0.00314402)
(0.290736 -16.5196 -0.00253136)
(0.265226 -13.9601 -0.00231108)
(0.261619 -12.5157 -0.00228257)
(0.251768 -11.6555 -0.00219747)
(0.23428 -11.0124 -0.002045)
(0.211403 -10.4337 -0.00184538)
(0.18677 -9.86252 -0.00163039)
(0.161912 -9.28335 -0.00141343)
(0.138135 -8.69825 -0.0012059)
(0.115695 -8.11445 -0.00101004)
(0.0947228 -7.53922 -0.000826984)
(0.0750556 -6.97799 -0.00065532)
(0.0565549 -6.43423 -0.000493837)
(0.0390626 -5.90976 -0.000341157)
(0.0224789 -5.40532 -0.000196406)
(0.00674023 -4.92093 -5.90319e-05)
(-0.0081705 -4.45631 7.1117e-05)
(-0.0222387 -4.01099 0.000193913)
(-0.0354217 -3.58449 0.000308985)
(-0.0476567 -3.17641 0.000415785)
(-0.0588677 -2.78639 0.000513647)
(-0.0689709 -2.41419 0.000601843)
(-0.0778816 -2.05965 0.000679632)
(-0.0855226 -1.72269 0.00074634)
(-0.0918316 -1.40329 0.000801423)
(-0.0967834 -1.10147 0.000844662)
(-0.100383 -0.817269 0.000876103)
(-0.102751 -0.550727 0.000896786)
(-0.0192992 -44.2354 0.000168456)
(0.0893397 -42.8297 -0.000779809)
(-0.0980313 -40.1201 0.00085541)
(0.276973 -39.0412 -0.00241745)
(-0.0700953 -36.218 0.000611491)
(0.359644 -35.8427 -0.00313858)
(0.314402 -28.3855 -0.00272287)
(0.36718 -25.7439 -0.00319111)
(0.39976 -24.536 -0.0034843)
(0.41345 -22.6736 -0.0036057)
(0.363125 -19.8496 -0.00316587)
(0.296169 -16.4987 -0.00257924)
(0.271219 -13.9752 -0.00236389)
(0.265972 -12.5353 -0.00232074)
(0.254546 -11.6643 -0.00222176)
(0.235985 -11.0108 -0.0020599)
(0.212513 -10.4255 -0.00185507)
(0.187384 -9.85088 -0.00163576)
(0.162094 -9.27016 -0.00141503)
(0.137835 -8.68456 -0.0012033)
(0.114884 -8.10077 -0.00100297)
(0.0933565 -7.52573 -0.000815067)
(0.0731064 -6.96475 -0.000638314)
(0.0539984 -6.42124 -0.000471532)
(0.0358828 -5.89703 -0.000313411)
(0.0186646 -5.39287 -0.000163123)
(0.00228646 -4.90881 -2.01669e-05)
(-0.0132627 -4.44457 0.000115554)
(-0.0279619 -3.99971 0.000243858)
(-0.0417624 -3.57375 0.000364319)
(-0.0545962 -3.16628 0.000476346)
(-0.0663839 -2.77695 0.000579241)
(-0.0770403 -2.40551 0.000672265)
(-0.0864818 -2.05178 0.000754688)
(-0.0946354 -1.71567 0.00082587)
(-0.101445 -1.39714 0.000885325)
(-0.106891 -1.09618 0.000932876)
(-0.110983 -0.812799 0.000968607)
(-0.113815 -0.547002 0.000993352)
(-0.00208031 -44.3178 1.81744e-05)
(0.0588899 -42.8112 -0.000514061)
(-0.04644 -40.359 0.000405319)
(0.375391 -39.1315 -0.00327653)
(-0.0671968 -36.3197 0.000586083)
(0.416098 -36.2105 -0.00363125)
(0.330741 -28.4937 -0.00286492)
(0.38057 -25.8757 -0.00330816)
(0.408806 -24.6461 -0.00356336)
(0.418883 -22.7158 -0.00365323)
(0.364484 -19.8256 -0.00317792)
(0.299741 -16.4814 -0.00261088)
(0.274959 -13.9907 -0.002397)
(0.268037 -12.5537 -0.00233892)
(0.254979 -11.672 -0.00222558)
(0.235405 -11.0086 -0.00205485)
(0.211385 -10.417 -0.00184523)
(0.185874 -9.83887 -0.00162259)
(0.160285 -9.25655 -0.00139924)
(0.135701 -8.6704 -0.00118467)
(0.112393 -8.08655 -0.000981231)
(0.0904567 -7.51165 -0.000789762)
(0.0697539 -6.95088 -0.00060906)
(0.0501491 -6.40759 -0.000437941)
(0.0314997 -5.88361 -0.000275162)
(0.0137164 -5.37971 -0.000119942)
(-0.00324958 -4.89597 2.81446e-05)
(-0.0194006 -4.43212 0.000169119)
(-0.0347061 -3.98772 0.000302714)
(-0.049108 -3.56231 0.000428424)
(-0.06253 -3.15547 0.000545585)
(-0.0748858 -2.76686 0.000653439)
(-0.0860859 -2.39619 0.000751209)
(-0.0960443 -2.0433 0.000838143)
(-0.104688 -1.70807 0.000913602)
(-0.111962 -1.39042 0.000977113)
(-0.117847 -1.09035 0.00102849)
(-0.122347 -0.807814 0.00106779)
(-0.125533 -0.542803 0.00109562)
(0.0265882 -44.4034 -0.000232037)
(0.00825573 -42.8039 -7.21507e-05)
(0.0407412 -40.77 -0.000355381)
(0.449751 -39.1888 -0.00392569)
(-0.0584807 -36.4174 0.0005099)
(0.465111 -36.5892 -0.00405896)
(0.353022 -28.5843 -0.00305883)
(0.395727 -26.0008 -0.00344072)
(0.418859 -24.7509 -0.00365125)
(0.423772 -22.752 -0.00369605)
(0.364522 -19.799 -0.00317844)
(0.300847 -16.4648 -0.00262103)
(0.275803 -14.0048 -0.0024048)
(0.267157 -12.5698 -0.00233137)
(0.252556 -11.6779 -0.00220446)
(0.232155 -11.0053 -0.00202649)
(0.20777 -10.4078 -0.00181369)
(0.182095 -9.82634 -0.00158961)
(0.156418 -9.24248 -0.00136549)
(0.131712 -8.65576 -0.00114986)
(0.10823 -8.07182 -0.0009449)
(0.0860428 -7.49702 -0.000751242)
(0.0650181 -6.9364 -0.00056773)
(0.0450221 -6.39329 -0.000393197)
(0.0259216 -5.86951 -0.000226481)
(0.00763629 -5.36585 -6.68807e-05)
(-0.00987084 -4.88241 8.59285e-05)
(-0.0265899 -4.41894 0.00023186)
(-0.0424774 -3.97501 0.000370535)
(-0.0574629 -3.55016 0.000501339)
(-0.0714586 -3.14397 0.000623507)
(-0.0843686 -2.75609 0.000736199)
(-0.0960958 -2.38623 0.000838569)
(-0.106549 -2.0342 0.000929822)
(-0.115652 -1.69987 0.00100929)
(-0.123347 -1.38315 0.00107647)
(-0.129608 -1.08399 0.00113114)
(-0.134435 -0.802345 0.00117329)
(-0.137871 -0.538176 0.00120331)
(0.066051 -44.4914 -0.000576459)
(-0.0611726 -42.8187 0.000533785)
(0.158911 -41.352 -0.00138657)
(0.478399 -39.1809 -0.00417593)
(-0.0454881 -36.5251 0.000396413)
(0.497991 -36.9828 -0.00434586)
(0.377894 -28.6622 -0.00327534)
(0.409501 -26.1193 -0.00356127)
(0.427549 -24.85 -0.00372728)
(0.426183 -22.782 -0.00371724)
(0.36207 -19.77 -0.00315726)
(0.298937 -16.449 -0.00260486)
(0.273596 -14.0177 -0.00238594)
(0.26336 -12.584 -0.00229835)
(0.247461 -11.6823 -0.00216002)
(0.22646 -11.0011 -0.00197679)
(0.201905 -10.398 -0.0017625)
(0.17626 -9.81342 -0.00153868)
(0.150673 -9.22806 -0.00131536)
(0.126017 -8.64074 -0.00110015)
(0.102511 -8.05664 -0.000894985)
(0.0802037 -7.48188 -0.00070028)
(0.0589656 -6.92135 -0.000514907)
(0.0386656 -6.37836 -0.000337722)
(0.0191818 -5.85473 -0.000167661)
(0.000445763 -5.35127 -4.1272e-06)
(-0.0175646 -4.86811 0.000153074)
(-0.0348239 -4.405 0.00030372)
(-0.0512726 -3.96154 0.000447292)
(-0.0668247 -3.53726 0.000583042)
(-0.0813783 -3.13175 0.00071008)
(-0.0948253 -2.74463 0.000827458)
(-0.107058 -2.37561 0.000934244)
(-0.117978 -2.02448 0.00102957)
(-0.127503 -1.69109 0.00111272)
(-0.135569 -1.37533 0.00118314)
(-0.142143 -1.07713 0.00124055)
(-0.147216 -0.796426 0.00128484)
(-0.150808 -0.533164 0.00131622)
(0.11342 -44.5808 -0.000989886)
(-0.143633 -42.8644 0.00125346)
(0.295427 -42.0719 -0.00257793)
(0.441583 -39.0756 -0.00385486)
(-0.0297027 -36.6617 0.000258601)
(0.506156 -37.3939 -0.00441705)
(0.403231 -28.7338 -0.00349579)
(0.420559 -26.23 -0.00365821)
(0.433541 -24.9413 -0.00377981)
(0.424807 -22.8039 -0.00370539)
(0.356088 -19.7371 -0.00310528)
(0.293252 -16.4325 -0.00255576)
(0.267802 -14.0288 -0.00233573)
(0.256275 -12.596 -0.00223661)
(0.239504 -11.685 -0.00209059)
(0.218241 -10.9959 -0.00190506)
(0.193806 -10.3876 -0.00169181)
(0.168437 -9.80012 -0.0014704)
(0.143153 -9.21329 -0.00124972)
(0.118726 -8.62535 -0.00103652)
(0.0953451 -8.04105 -0.000832444)
(0.073038 -7.46623 -0.00063774)
(0.0516797 -6.90573 -0.000451318)
(0.031146 -6.36278 -0.000272094)
(0.0113303 -5.83925 -9.91379e-05)
(-0.00781958 -5.33595 6.80077e-05)
(-0.0263071 -4.85304 0.000229373)
(-0.0440877 -4.39029 0.000384568)
(-0.0610825 -3.94729 0.000532907)
(-0.0771873 -3.52359 0.000673481)
(-0.0922835 -3.11877 0.000805255)
(-0.106248 -2.73245 0.000927154)
(-0.118963 -2.36431 0.00103814)
(-0.130318 -2.01412 0.00113726)
(-0.140222 -1.68172 0.00122373)
(-0.148607 -1.36697 0.00129693)
(-0.15543 -1.06979 0.00135651)
(-0.160669 -0.790084 0.00140226)
(-0.164331 -0.527799 0.00143425)
(0.163148 -44.6703 -0.0014239)
(-0.229241 -42.9441 0.0020006)
(0.431603 -42.8624 -0.00376641)
(0.328548 -38.8491 -0.00286858)
(-0.0123679 -36.8493 0.000107353)
(0.481781 -37.8237 -0.00420424)
(0.42466 -28.8087 -0.00368219)
(0.425875 -26.3334 -0.0037051)
(0.434476 -25.0238 -0.00378822)
(0.417811 -22.8171 -0.00364451)
(0.345385 -19.7006 -0.00301211)
(0.283173 -16.4154 -0.00246827)
(0.258171 -14.0382 -0.00225199)
(0.245885 -12.606 -0.00214601)
(0.228833 -11.6864 -0.00199746)
(0.207722 -10.9899 -0.00181326)
(0.183736 -10.3768 -0.00160392)
(0.158887 -9.78655 -0.00138705)
(0.134097 -9.19828 -0.00117068)
(0.11005 -8.60966 -0.000960796)
(0.0869112 -8.02506 -0.000758831)
(0.0646915 -7.45011 -0.000564892)
(0.043276 -6.88953 -0.000377972)
(0.0225522 -6.34656 -0.000197091)
(0.00243306 -5.82305 -2.14864e-05)
(-0.0171131 -5.31987 0.000149117)
(-0.036067 -4.83717 0.000314552)
(-0.0543613 -4.37475 0.000474231)
(-0.071895 -3.93223 0.000627272)
(-0.0885432 -3.50913 0.000772589)
(-0.104168 -3.10503 0.000908981)
(-0.118632 -2.71953 0.00103523)
(-0.131801 -2.35232 0.00115019)
(-0.143556 -2.00313 0.0012528)
(-0.153796 -1.67177 0.0013422)
(-0.162444 -1.35809 0.00141771)
(-0.16945 -1.06198 0.00147887)
(-0.174782 -0.783348 0.00152544)
(-0.178432 -0.522115 0.00155732)
(0.208526 -44.7587 -0.00181995)
(-0.305679 -43.0555 0.00266771)
(0.545589 -43.6293 -0.0047613)
(0.144647 -38.4939 -0.00126378)
(0.00507651 -37.1046 -4.47424e-05)
(0.421064 -38.2703 -0.00367425)
(0.438655 -28.8978 -0.00380432)
(0.423315 -26.4305 -0.00368332)
(0.428592 -25.0963 -0.00373714)
(0.403902 -22.821 -0.00352332)
(0.329113 -19.6605 -0.00287032)
(0.26825 -16.3978 -0.0023385)
(0.244514 -14.0463 -0.00213305)
(0.232187 -12.6145 -0.00202651)
(0.215573 -11.6869 -0.00188174)
(0.195105 -10.9835 -0.00170313)
(0.171939 -10.3658 -0.00150096)
(0.147866 -9.77281 -0.00129085)
(0.123756 -9.18308 -0.00108042)
(0.100217 -8.5937 -0.000874963)
(0.0774053 -8.00869 -0.000675862)
(0.0553278 -7.43348 -0.000483165)
(0.0338858 -6.87273 -0.000296016)
(0.0129853 -6.32964 -0.000113593)
(-0.00743538 -5.80609 6.46416e-05)
(-0.0273824 -5.30297 0.000238742)
(-0.0468094 -4.82045 0.000408306)
(-0.0656232 -4.35837 0.000572518)
(-0.0836978 -3.91632 0.000730281)
(-0.100886 -3.49384 0.000880309)
(-0.117029 -3.0905 0.00102123)
(-0.131973 -2.70587 0.00115167)
(-0.145569 -2.33963 0.00127035)
(-0.157686 -1.99149 0.00137613)
(-0.168215 -1.66124 0.00146805)
(-0.177071 -1.3487 0.00154536)
(-0.184193 -1.05373 0.00160755)
(-0.189544 -0.776242 0.00165428)
(-0.193105 -0.516137 0.0016854)
(0.241537 -44.845 -0.00210806)
(-0.358916 -43.1914 0.00313233)
(0.616108 -44.2693 -0.00537689)
(-0.0860032 -38.0257 0.000749073)
(0.0182969 -37.43 -0.000159861)
(0.327111 -38.7304 -0.00285418)
(0.441522 -29.0114 -0.00382968)
(0.410828 -26.5225 -0.00357495)
(0.414214 -25.1584 -0.00361195)
(0.382095 -22.8158 -0.0033332)
(0.306758 -19.6178 -0.00267544)
(0.248399 -16.3802 -0.00216566)
(0.226975 -14.0536 -0.0019802)
(0.215489 -12.6221 -0.00188081)
(0.200105 -11.6868 -0.00174673)
(0.180797 -10.9768 -0.00157825)
(0.158821 -10.3547 -0.00138645)
(0.135749 -9.75903 -0.00118509)
(0.112463 -9.16775 -0.000981846)
(0.0895103 -8.57748 -0.000781515)
(0.0670648 -7.99192 -0.000585608)
(0.0451373 -7.41633 -0.000394222)
(0.0236571 -6.85528 -0.000206741)
(0.00255626 -6.31198 -2.25713e-05)
(-0.0181952 -5.78831 0.000158549)
(-0.0385728 -5.2852 0.000336408)
(-0.0584996 -4.80284 0.000510332)
(-0.0778532 -4.34108 0.000679256)
(-0.0964809 -3.89951 0.000841846)
(-0.114211 -3.47768 0.000996607)
(-0.130865 -3.07514 0.00114198)
(-0.14627 -2.69144 0.00127645)
(-0.160264 -2.32623 0.00139861)
(-0.172705 -1.97921 0.00150721)
(-0.183474 -1.65013 0.00160123)
(-0.192478 -1.3388 0.00167984)
(-0.199652 -1.04506 0.00174248)
(-0.204951 -0.768791 0.00178875)
(-0.208349 -0.509891 0.00181845)
(0.254788 -44.9286 -0.00222372)
(-0.376222 -43.3406 0.00328336)
(0.623849 -44.6899 -0.00544466)
(-0.325644 -37.4813 0.00284047)
(0.0166782 -37.8074 -0.000145392)
(0.210757 -39.2008 -0.0018386)
(0.430363 -29.1565 -0.00373288)
(0.387537 -26.6105 -0.0033724)
(0.390461 -25.21 -0.00340495)
(0.352163 -22.802 -0.00307217)
(0.278363 -19.5735 -0.00242781)
(0.223942 -16.3636 -0.00195257)
(0.20598 -14.061 -0.00179713)
(0.196299 -12.6295 -0.00171335)
(0.182933 -11.6869 -0.00159684)
(0.165291 -10.9704 -0.0014429)
(0.144837 -10.3438 -0.00126439)
(0.122949 -9.7453 -0.00107336)
(0.100577 -9.15231 -0.000878101)
(0.0782358 -8.56099 -0.000683107)
(0.0561389 -7.97471 -0.000490245)
(0.0343176 -7.39858 -0.000299788)
(0.012741 -6.83711 -0.000111467)
(-0.00862391 -6.29349 7.50061e-05)
(-0.0297689 -5.76963 0.00025956)
(-0.0506339 -5.26648 0.000441671)
(-0.0711076 -4.78426 0.000620369)
(-0.0910364 -4.32282 0.000794312)
(-0.110239 -3.88177 0.000961923)
(-0.12852 -3.46063 0.00112149)
(-0.14568 -3.05894 0.00127128)
(-0.161529 -2.67623 0.00140962)
(-0.175891 -2.31212 0.00153499)
(-0.188613 -1.96629 0.00164606)
(-0.199571 -1.63847 0.00174172)
(-0.208664 -1.32843 0.00182111)
(-0.215822 -1.03599 0.00188361)
(-0.220998 -0.761017 0.00192881)
(-0.224161 -0.503403 0.00195646)
(0.242676 -45.0093 -0.00211801)
(-0.348585 -43.4872 0.00304215)
(0.556644 -44.8264 -0.00485837)
(-0.531511 -36.9091 0.00463721)
(-0.0127899 -38.2056 0.000112137)
(0.0871528 -39.6796 -0.000759733)
(0.402944 -29.335 -0.00349469)
(0.353674 -26.6949 -0.00307769)
(0.357248 -25.2516 -0.00311542)
(0.314659 -22.7809 -0.00274506)
(0.244579 -19.5294 -0.00213313)
(0.195692 -16.3492 -0.00170631)
(0.182329 -14.0695 -0.00159083)
(0.175411 -12.6376 -0.00153105)
(0.164766 -11.6876 -0.00143826)
(0.149226 -10.9645 -0.00130266)
(0.130542 -10.3332 -0.00113961)
(0.109943 -9.73171 -0.000959829)
(0.0884979 -9.13677 -0.000772666)
(0.0667188 -8.54416 -0.000582582)
(0.0448858 -7.95697 -0.000392026)
(0.0230672 -7.38013 -0.000201594)
(0.0012844 -6.8181 -1.14762e-05)
(-0.0204516 -6.27406 0.000178234)
(-0.0420878 -5.74995 0.000367075)
(-0.0635242 -5.24673 0.000554172)
(-0.0846123 -4.76464 0.000738231)
(-0.105166 -4.30354 0.000917628)
(-0.124975 -3.86304 0.00109053)
(-0.143821 -3.44264 0.00125503)
(-0.161483 -3.04186 0.0014092)
(-0.177757 -2.66022 0.00155125)
(-0.192454 -2.2973 0.00167956)
(-0.205415 -1.95274 0.0017927)
(-0.216507 -1.62625 0.00188954)
(-0.225627 -1.31759 0.00196916)
(-0.232702 -1.02653 0.00203094)
(-0.237683 -0.752943 0.00207445)
(-0.240541 -0.496695 0.00209943)
(0.204425 -45.0876 -0.00178418)
(-0.276591 -43.6114 0.00241381)
(0.422621 -44.653 -0.00368896)
(-0.665754 -36.3612 0.00580892)
(-0.0775421 -38.5779 0.000677505)
(-0.0270951 -40.1677 0.000237454)
(0.357495 -29.5432 -0.00309956)
(0.310682 -26.776 -0.00270349)
(0.315584 -25.2838 -0.00275215)
(0.271051 -22.7543 -0.00236465)
(0.206716 -19.4873 -0.00180283)
(0.164923 -16.3382 -0.00143802)
(0.157129 -14.0801 -0.00137098)
(0.153824 -12.6471 -0.00134263)
(0.146434 -11.6896 -0.00127824)
(0.133311 -10.9595 -0.00116374)
(0.116525 -10.3232 -0.00101725)
(0.0972192 -9.71826 -0.000848769)
(0.0766217 -9.12107 -0.000669004)
(0.0552747 -8.5269 -0.000482694)
(0.0335488 -7.93856 -0.000293075)
(0.011567 -7.36084 -0.000101223)
(-0.0105842 -6.79811 9.21088e-05)
(-0.0328411 -6.25356 0.000286364)
(-0.0551002 -5.72914 0.00048064)
(-0.0772177 -5.22583 0.000673682)
(-0.0990063 -4.74388 0.000863855)
(-0.120247 -4.28315 0.00104925)
(-0.140702 -3.84325 0.00122779)
(-0.160128 -3.42366 0.00139736)
(-0.17829 -3.02388 0.00155589)
(-0.194969 -2.64339 0.00170148)
(-0.209967 -2.28174 0.0018324)
(-0.223118 -1.93855 0.00194721)
(-0.234287 -1.6135 0.00204472)
(-0.243369 -1.30629 0.00212402)
(-0.250291 -1.01672 0.00218447)
(-0.255006 -0.744593 0.00222565)
(-0.257486 -0.489791 0.00224733)
(0.147318 -45.1647 -0.00128576)
(-0.175594 -43.701 0.00153234)
(0.258995 -44.2099 -0.00226116)
(-0.712002 -35.8597 0.00621269)
(-0.17417 -38.87 0.0015209)
(-0.122896 -40.6684 0.00107365)
(0.296403 -29.7759 -0.00256834)
(0.260845 -26.8542 -0.00226955)
(0.267505 -25.3078 -0.0023329)
(0.223582 -22.7242 -0.00195053)
(0.166682 -19.4489 -0.00145355)
(0.133302 -16.3318 -0.00116224)
(0.131763 -14.0938 -0.00114965)
(0.132702 -12.6589 -0.00115826)
(0.128873 -11.6931 -0.00112494)
(0.118311 -10.9556 -0.0010328)
(0.103397 -10.3137 -0.00090266)
(0.0852665 -9.70491 -0.000744437)
(0.0653291 -9.10507 -0.000570437)
(0.0441943 -8.50903 -0.000385983)
(0.0223421 -7.9193 -0.000195265)
(-3.18845e-05 -7.3405 8.20135e-09)
(-0.0227655 -6.77695 0.000198422)
(-0.0457341 -6.23182 0.000398888)
(-0.0687789 -5.70706 0.00060002)
(-0.0917097 -5.20365 0.00080016)
(-0.1143 -4.72187 0.000997332)
(-0.136299 -4.26158 0.00118934)
(-0.157442 -3.82235 0.00137389)
(-0.177468 -3.40366 0.00154869)
(-0.196125 -3.00497 0.00171155)
(-0.213184 -2.62573 0.00186046)
(-0.228444 -2.26546 0.00199367)
(-0.241734 -1.92374 0.00210969)
(-0.252918 -1.60021 0.00220733)
(-0.261893 -1.29457 0.0022857)
(-0.26859 -1.00656 0.00234418)
(-0.272964 -0.735989 0.00238239)
(-0.274993 -0.482714 0.00240015)
(0.0828251 -45.2401 -0.000722895)
(-0.0660259 -43.7626 0.000576086)
(0.105391 -43.588 -0.000920793)
(-0.687366 -35.3928 0.00599781)
(-0.281372 -39.0567 0.00245646)
(-0.194114 -41.1667 0.00169528)
(0.224938 -30.0239 -0.00194682)
(0.207087 -26.9301 -0.00180146)
(0.21593 -25.3251 -0.00188311)
(0.175021 -22.6927 -0.00152685)
(0.126779 -19.4159 -0.00110539)
(0.102713 -16.3312 -0.000895415)
(0.10774 -14.1112 -0.00094001)
(0.113261 -12.6732 -0.000988561)
(0.113028 -11.6986 -0.000986624)
(0.104968 -10.9528 -0.000916321)
(0.091731 -10.3047 -0.000800823)
(0.0745243 -9.69151 -0.000650671)
(0.0549482 -9.08858 -0.00047983)
(0.0337155 -8.49032 -0.000294525)
(0.0114291 -7.89894 -0.00010002)
(-0.011626 -7.3189 0.000101195)
(-0.0352031 -6.75442 0.000306969)
(-0.0591098 -6.20864 0.000515621)
(-0.0831287 -5.68353 0.000725255)
(-0.107022 -5.18006 0.0009338)
(-0.130526 -4.69852 0.00113895)
(-0.153359 -4.23874 0.00133823)
(-0.175235 -3.80028 0.00152918)
(-0.195875 -3.38259 0.00170934)
(-0.215018 -2.9851 0.00187644)
(-0.232429 -2.60722 0.00202842)
(-0.247904 -2.24844 0.00216351)
(-0.261274 -1.9083 0.00228024)
(-0.272406 -1.58641 0.00237743)
(-0.281203 -1.28243 0.00245424)
(-0.287598 -0.996083 0.00251009)
(-0.291555 -0.727156 0.00254466)
(-0.29306 -0.475489 0.00255785)
(0.0194623 -45.3129 -0.000169886)
(0.0382963 -43.815 -0.000334379)
(-0.0185071 -42.8684 0.000160369)
(-0.61456 -34.9479 0.00536252)
(-0.381553 -39.134 0.00333066)
(-0.238679 -41.6463 0.00208429)
(0.148966 -30.2766 -0.00128615)
(0.152672 -27.004 -0.00132774)
(0.163974 -25.3375 -0.00143003)
(0.128271 -22.6622 -0.00111894)
(0.0894021 -19.3897 -0.000779252)
(0.0750604 -16.337 -0.000654182)
(0.0865704 -14.1328 -0.000755262)
(0.0966768 -12.6906 -0.000843787)
(0.099794 -11.7061 -0.000871088)
(0.0939601 -10.9511 -0.000820227)
(0.082028 -10.296 -0.000716124)
(0.065357 -9.6778 -0.000570654)
(0.0457325 -9.07131 -0.000399395)
(0.024004 -8.47047 -0.000209768)
(0.000905944 -7.8772 -8.18201e-06)
(-0.0231724 -7.29574 0.000201963)
(-0.0478939 -6.73025 0.000417723)
(-0.072993 -6.18381 0.000636782)
(-0.0981928 -5.65837 0.000856723)
(-0.12321 -5.15491 0.00107507)
(-0.147743 -4.67369 0.0012892)
(-0.171485 -4.21453 0.00149643)
(-0.194132 -3.77697 0.0016941)
(-0.215395 -3.36041 0.00187971)
(-0.235007 -2.96425 0.0020509)
(-0.252732 -2.58787 0.00220563)
(-0.268369 -2.23071 0.00234214)
(-0.281754 -1.89226 0.00245899)
(-0.292762 -1.57212 0.0025551)
(-0.301301 -1.2699 0.00262966)
(-0.307315 -0.985316 0.00268219)
(-0.310776 -0.71812 0.00271244)
(-0.311681 -0.468141 0.00272038)
(-0.0376471 -45.3824 0.000328543)
(0.130223 -43.8781 -0.00113665)
(-0.106717 -42.1253 0.000930127)
(-0.508064 -34.5122 0.0044332)
(-0.465576 -39.1125 0.00406384)
(-0.25267 -42.0997 0.00220644)
(0.0756306 -30.5157 -0.000649005)
(0.10004 -27.0749 -0.000869678)
(0.11433 -25.3472 -0.000997038)
(0.0856829 -22.6348 -0.000747319)
(0.0565952 -19.3712 -0.00049298)
(0.0519694 -16.3496 -0.000452729)
(0.0695557 -14.1588 -0.000606764)
(0.0839473 -12.7108 -0.000732657)
(0.0899165 -11.7154 -0.000784854)
(0.0858312 -10.9503 -0.000749264)
(0.0746681 -10.2874 -0.00065188)
(0.0580159 -9.66345 -0.00050658)
(0.0378311 -9.05289 -0.000330437)
(0.0151306 -8.44912 -0.000132329)
(-0.00921581 -7.85372 8.01493e-05)
(-0.0347025 -7.27073 0.000302584)
(-0.0608984 -6.70417 0.000531213)
(-0.0874621 -6.15709 0.000763055)
(-0.114058 -5.63139 0.000995185)
(-0.14036 -5.12804 0.00122474)
(-0.166034 -4.64727 0.00144883)
(-0.190753 -4.18887 0.00166459)
(-0.214201 -3.75236 0.00186926)
(-0.236085 -3.33709 0.00206029)
(-0.256138 -2.94241 0.00223533)
(-0.274129 -2.56766 0.00239238)
(-0.289864 -2.21225 0.00252975)