/*--------------------------------*- C++ -*----------------------------------*\
| =========                 |                                                 |
| \\      /  F ield         | OpenFOAM: The Open Source CFD Toolbox           |
|  \\    /   O peration     | Version:  v2012                                 |
|   \\  /    A nd           | Website:  www.openfoam.com                      |
|    \\/     M anipulation  |                                                 |
\*---------------------------------------------------------------------------*/
FoamFile
{
    version     2.0;
    format      ascii;
    class       volScalarField;
    location    "0.55";
    object      alpha.water;
}
// * * * * * * * * * * * * * * * * * * * * * * * * * * * * * * * * * * * * * //

dimensions      [0 0 0 0 0 0 0];


internalField   nonuniform List<scalar> 
3338
(
-8.29583e-70
-6.60027e-71
-3.94537e-72
-1.77339e-73
-6.0064e-75
-1.53326e-76
-2.94102e-78
-4.21984e-80
-4.49662e-82
-3.52738e-84
-2.01534e-86
-8.27966e-89
-2.41091e-91
-4.89083e-94
-6.76869e-97
-6.22336e-100
-3.66744e-103
-1.3143e-106
-2.63497e-110
-2.54302e-114
-8.18669e-119
-6.82208e-69
-5.51189e-70
-3.35151e-71
-1.53512e-72
-5.30766e-74
-1.38541e-75
-2.72149e-77
-4.00448e-79
-4.38096e-81
-3.53124e-83
-2.07393e-85
-8.75755e-88
-2.61911e-90
-5.44896e-93
-7.716e-96
-7.23578e-99
-4.33118e-102
-1.56845e-105
-3.15609e-109
-3.02421e-113
-9.47933e-118
-5.548e-68
-4.55327e-69
-2.81712e-70
-1.31533e-71
-4.64406e-73
-1.24001e-74
-2.49574e-76
-3.76805e-78
-4.235e-80
-3.5102e-82
-2.12109e-84
-9.21553e-87
-2.83397e-89
-6.05408e-92
-8.78213e-95
-8.40775e-98
-5.11385e-101
-1.86985e-104
-3.7649e-108
-3.55229e-112
-1.0538e-116
-4.46085e-67
-3.71981e-68
-2.34241e-69
-1.11517e-70
-4.02205e-72
-1.09896e-73
-2.26717e-75
-3.51388e-77
-4.05962e-79
-3.46245e-81
-2.15439e-83
-9.63999e-86
-3.05168e-88
-6.7022e-91
-9.97235e-94
-9.75833e-97
-6.03608e-100
-2.22866e-103
-4.48412e-107
-4.15109e-111
-1.16298e-115
-3.5453e-66
-3.00457e-67
-1.92616e-68
-9.35268e-70
-3.44675e-71
-9.64021e-73
-2.03927e-74
-3.24603e-76
-3.85687e-78
-3.38703e-80
-2.17168e-82
-1.00168e-84
-3.26765e-87
-7.38695e-90
-1.12887e-92
-1.13057e-95
-7.12013e-99
-2.6565e-102
-5.3402e-106
-4.84554e-110
-1.28334e-114
-2.78441e-65
-2.39878e-66
-1.56593e-67
-7.75687e-69
-2.92172e-70
-8.36729e-72
-1.81552e-73
-2.96904e-75
-3.62978e-77
-3.2839e-79
-2.17119e-81
-1.03317e-83
-3.47663e-86
-8.09938e-89
-1.27296e-91
-1.30669e-94
-8.39077e-98
-3.16734e-101
-6.36661e-105
-5.66546e-109
-1.41896e-113
-2.16046e-64
-1.89248e-65
-1.25828e-66
-6.36004e-68
-2.44902e-69
-7.18322e-71
-1.59914e-72
-2.68774e-74
-3.38227e-76
-3.15398e-78
-2.15162e-80
-1.05708e-82
-3.67271e-85
-8.82762e-88
-1.42884e-90
-1.50563e-93
-9.87454e-97
-3.77768e-100
-7.60559e-104
-6.64996e-108
-1.57826e-112
-1.65568e-63
-1.47496e-64
-9.99042e-66
-5.15375e-67
-2.02921e-68
-6.09723e-70
-1.39304e-71
-2.407e-73
-3.11895e-75
-2.99911e-77
-2.1122e-79
-1.07214e-81
-3.84951e-84
-9.55665e-87
-1.59518e-89
-1.72832e-92
-1.15985e-95
-4.50648e-99
-9.1089e-103
-7.84864e-107
-1.77297e-111
-1.25287e-62
-1.13532e-63
-7.83542e-65
-4.1261e-66
-1.6615e-67
-5.11531e-69
-1.19967e-70
-2.13158e-72
-2.84498e-74
-2.82204e-76
-2.05285e-78
-1.07727e-80
-4.00044e-83
-1.02685e-85
-1.7699e-88
-1.97495e-91
-1.35886e-94
-5.37499e-98
-1.09392e-101
-9.32427e-106
-2.01623e-110
-9.35845e-62
-8.6281e-63
-6.06849e-64
-3.26267e-65
-1.34389e-66
-4.24015e-68
-1.02098e-69
-1.86586e-71
-2.56579e-73
-2.62634e-75
-1.97418e-77
-1.07165e-79
-4.11901e-82
-1.09425e-84
-1.95008e-87
-2.24472e-90
-1.58679e-93
-6.40633e-97
-1.31713e-100
-1.11555e-104
-2.32437e-109
-6.89839e-61
-6.47204e-62
-4.63985e-63
-2.54731e-64
-1.07343e-65
-3.4714e-67
-8.58344e-69
-1.61372e-70
-2.28685e-72
-2.41626e-74
-1.87753e-76
-1.05481e-78
-4.1992e-81
-1.15562e-83
-2.13192e-86
-2.53558e-89
-1.84535e-92
-7.62479e-96
-1.58929e-99
-1.34405e-103
-2.71829e-108
-5.01652e-60
-4.79028e-61
-3.50102e-62
-1.96302e-63
-8.46409e-65
-2.806e-66
-7.12573e-68
-1.3784e-69
-2.01343e-71
-2.19648e-73
-1.76492e-75
-1.02667e-77
-4.23587e-80
-1.2086e-82
-2.31077e-85
-2.84399e-88
-2.13534e-91
-9.05453e-95
-1.92043e-98
-1.63007e-102
-3.22504e-107
-3.59776e-59
-3.49732e-60
-2.60621e-61
-1.49264e-62
-6.58616e-64
-2.23858e-65
-5.83923e-67
-1.16237e-68
-1.75037e-70
-1.97197e-72
-1.63898e-74
-9.87567e-77
-4.22513e-79
-1.25084e-81
-2.48118e-84
-3.1647e-87
-2.45626e-90
-1.07178e-93
-2.32175e-97
-1.98844e-101
-3.87956e-106
-2.54386e-58
-2.5178e-59
-1.9134e-60
-1.11951e-61
-5.05565e-63
-1.76198e-64
-4.72143e-66
-9.67289e-68
-1.50186e-69
-1.74765e-71
-1.50283e-73
-9.38299e-76
-4.16472e-78
-1.28018e-80
-2.63714e-83
-3.49062e-86
-2.80593e-89
-1.26323e-92
-2.80526e-96
-2.43693e-100
-4.72675e-105
-1.77272e-57
-1.78678e-58
-1.38494e-59
-8.2791e-61
-3.827e-62
-1.36776e-63
-3.76544e-65
-7.94029e-67
-1.27129e-68
-1.52824e-70
-1.35994e-72
-8.80062e-75
-4.05427e-77
-1.29476e-79
-2.7723e-82
-3.8129e-85
-3.18006e-88
-1.48086e-91
-3.38319e-95
-2.99634e-99
-5.82384e-104
-1.21707e-56
-1.24948e-57
-9.87938e-59
-6.0349e-60
-2.85574e-61
-1.04674e-62
-2.96083e-64
-6.427e-66
-1.06119e-67
-1.31799e-69
-1.21391e-71
-8.14418e-74
-3.89547e-76
-1.29318e-78
-2.88035e-81
-4.12102e-84
-3.572e-87
-1.72459e-90
-4.06711e-94
-3.69038e-98
-7.24266e-103
-8.22937e-56
-8.6068e-57
-6.94298e-58
-4.33438e-59
-2.09987e-60
-7.89436e-62
-2.29454e-63
-5.12737e-65
-8.73154e-67
-1.12053e-68
-1.0683e-70
-7.4321e-73
-3.69206e-75
-1.27466e-77
-2.95541e-80
-4.40324e-83
-3.97248e-86
-1.99287e-89
-4.86666e-93
-4.54494e-97
-9.07165e-102
-5.47801e-55
-5.83768e-56
-4.80523e-57
-3.06612e-58
-1.52094e-59
-5.86515e-61
-1.75182e-62
-4.03011e-64
-7.07859e-66
-9.38686e-68
-9.26483e-70
-6.68464e-72
-3.44977e-74
-1.23913e-76
-2.99254e-79
-4.64715e-82
-4.36966e-85
-2.28229e-88
-5.78799e-92
-5.58696e-96
-1.1417e-100
-3.5885e-54
-3.89723e-55
-3.2739e-56
-2.13543e-57
-1.0847e-58
-4.29092e-60
-1.31709e-61
-3.11955e-63
-5.65163e-65
-7.74482e-67
-7.91416e-69
-5.92273e-71
-3.17596e-73
-1.18725e-75
-2.9881e-78
-4.84042e-81
-4.74941e-84
-2.58727e-87
-6.83182e-91
-6.84233e-95
-1.44022e-99
-2.31236e-53
-2.55983e-54
-2.19494e-55
-1.46367e-56
-7.61396e-58
-3.08997e-59
-9.74758e-61
-2.37704e-62
-4.44205e-64
-6.29068e-66
-6.65561e-68
-5.16676e-70
-2.87927e-72
-1.12049e-74
-2.94021e-77
-4.97172e-80
-5.09583e-83
-2.89989e-86
-7.99145e-90
-8.33314e-94
-1.8165e-98
-1.4651e-52
-1.65357e-53
-1.44746e-54
-9.86911e-56
-5.25812e-57
-2.18932e-58
-7.09823e-60
-1.78224e-61
-3.43545e-63
-5.02782e-65
-5.5078e-67
-4.43555e-69
-2.56903e-71
-1.04098e-73
-2.84898e-76
-5.03165e-79
-5.3922e-82
-3.20992e-85
-9.25076e-89
-1.00739e-92
-2.28509e-97
-9.12321e-52
-1.05002e-52
-9.3848e-54
-6.54345e-55
-3.57097e-56
-1.52556e-57
-5.08378e-59
-1.31428e-60
-2.61324e-62
-3.95238e-64
-4.48298e-66
-3.7453e-68
-2.25476e-70
-9.51457e-73
-2.71665e-75
-5.01369e-78
-5.62205e-81
-3.50508e-84
-1.05826e-87
-1.2067e-91
-2.8602e-96
-5.58081e-51
-6.55149e-52
-5.9798e-53
-4.26418e-54
-2.38388e-55
-1.04501e-56
-3.57944e-58
-9.52819e-60
-1.95423e-61
-3.05444e-63
-3.58711e-65
-3.10896e-67
-1.94553e-69
-8.55046e-72
-2.54758e-74
-4.91498e-77
-5.77055e-80
-3.77165e-83
-1.19481e-86
-1.42983e-90
-3.55407e-95
-3.352e-50
-4.0146e-51
-3.74272e-52
-2.73001e-53
-1.56361e-54
-7.03383e-56
-2.4765e-57
-6.78787e-59
-1.43605e-60
-2.3195e-62
-2.82033e-64
-2.53578e-66
-1.64948e-68
-7.55073e-71
-2.34794e-73
-4.73679e-76
-5.82589e-79
-3.9953e-82
-1.32968e-85
-1.67321e-89
-4.37478e-94
-1.97583e-49
-2.41485e-50
-2.29994e-51
-1.71628e-52
-1.0072e-53
-4.64982e-55
-1.68288e-56
-4.74957e-58
-1.03647e-59
-1.72996e-61
-2.17779e-63
-2.03121e-65
-1.37339e-67
-6.54842e-70
-2.12539e-72
-4.4847e-75
-5.78059e-78
-4.16223e-81
-1.45685e-84
-1.93081e-88
-5.3237e-93
-1.14236e-48
-1.42515e-49
-1.38693e-50
-1.05898e-51
-6.36841e-53
-3.01748e-54
-1.12267e-55
-3.26261e-57
-7.34388e-59
-1.26662e-60
-1.65074e-62
-1.59706e-64
-1.12239e-66
-5.57417e-69
-1.88846e-71
-4.16837e-74
-5.63247e-77
-4.26041e-80
-1.56967e-83
-2.19398e-87
-6.3927e-92
-6.47493e-48
-8.24747e-49
-8.20309e-50
-6.40983e-51
-3.95055e-52
-1.92133e-53
-7.34887e-55
-2.19913e-56
-5.10581e-58
-9.09925e-60
-1.22763e-61
-1.23191e-63
-8.99826e-66
-4.65449e-68
-1.64599e-70
-3.8009e-73
-5.38526e-76
-4.28091e-79
-1.66134e-82
-2.4516e-86
-7.56166e-91
-3.5958e-47
-4.67769e-48
-4.75604e-49
-3.80389e-50
-2.40308e-51
-1.19973e-52
-4.71777e-54
-1.45376e-55
-3.48138e-57
-6.41054e-59
-8.95269e-61
-9.31759e-63
-7.07297e-65
-3.81031e-67
-1.40646e-69
-3.39782e-72
-5.04857e-75
-4.21893e-78
-1.7255e-81
-2.69058e-85
-8.79666e-90
-1.95539e-46
-2.59863e-47
-2.70156e-48
-2.21204e-49
-1.43261e-50
-7.3427e-52
-2.96873e-53
-9.42021e-55
-2.3268e-56
-4.42675e-58
-6.39898e-60
-6.9065e-62
-5.44794e-64
-3.05629e-66
-1.17745e-68
-2.97592e-71
-4.63728e-74
-4.07462e-77
-1.75695e-80
-2.89674e-84
-1.00495e-88
-1.04061e-45
-1.41318e-46
-1.50255e-47
-1.25978e-48
-8.36544e-50
-4.40231e-51
-1.83015e-52
-5.98028e-54
-1.52354e-55
-2.99463e-57
-4.48026e-59
-5.01424e-61
-4.10966e-63
-2.40062e-65
-9.65179e-68
-2.5519e-70
-4.17042e-73
-3.85336e-76
-1.7522e-79
-3.05604e-83
-1.12591e-87
-5.41613e-45
-7.51833e-46
-8.17755e-47
-7.02211e-48
-4.78189e-49
-2.58409e-50
-1.10468e-51
-3.71733e-53
-9.76777e-55
-1.98347e-56
-3.07106e-58
-3.56368e-60
-3.03441e-62
-1.84538e-64
-7.742e-67
-2.14112e-69
-3.66953e-72
-3.56547e-75
-1.71001e-78
-3.15603e-82
-1.23552e-86
-2.75524e-44
-3.91056e-45
-4.35233e-46
-3.82865e-47
-2.67421e-48
-1.48415e-49
-6.5248e-51
-2.26119e-52
-6.12819e-54
-1.28555e-55
-2.05976e-57
-2.47794e-59
-2.1917e-61
-1.38748e-63
-6.07309e-66
-1.75659e-68
-3.1568e-71
-3.22542e-74
-1.63166e-77
-3.18731e-81
-1.32637e-85
-1.36905e-43
-1.98729e-44
-2.2638e-45
-2.04055e-46
-1.46218e-47
-8.33535e-49
-3.76889e-50
-1.34518e-51
-3.76016e-53
-8.14837e-55
-1.35093e-56
-1.6847e-58
-1.54764e-60
-1.01971e-62
-4.65591e-65
-1.40821e-67
-2.65332e-70
-2.85047e-73
-1.52094e-76
-3.14482e-80
-1.39145e-84
-6.64012e-43
-9.86018e-44
-1.14993e-44
-1.06238e-45
-7.81146e-47
-4.57471e-48
-2.12765e-49
-7.82147e-51
-2.25501e-52
-5.04786e-54
-8.65909e-56
-1.11925e-57
-1.06775e-59
-7.32097e-62
-3.48624e-64
-1.1024e-66
-2.17737e-69
-2.45915e-72
-1.38386e-75
-3.02872e-79
-1.42496e-83
-3.14151e-42
-4.77311e-43
-5.70056e-44
-5.3994e-45
-4.07467e-46
-2.45192e-47
-1.17312e-48
-4.44201e-50
-1.32094e-51
-3.05437e-53
-5.42074e-55
-7.26162e-57
-7.19293e-59
-5.1312e-61
-2.54792e-63
-8.42165e-66
-1.74329e-68
-2.0695e-71
-1.22806e-74
-2.84466e-78
-1.42312e-82
-1.44876e-41
-2.25261e-42
-2.75582e-43
-2.67685e-44
-2.07384e-45
-1.28248e-46
-6.31305e-48
-2.4624e-49
-7.55292e-51
-1.80396e-52
-3.31212e-54
-4.59783e-56
-4.72816e-58
-3.50867e-60
-1.81634e-62
-6.27393e-65
-1.36079e-67
-1.69759e-70
-1.06205e-73
-2.60335e-77
-1.38472e-81
-6.50771e-41
-1.03562e-41
-1.29818e-42
-1.29357e-43
-1.0291e-44
-6.54158e-46
-3.31347e-47
-1.33144e-48
-4.21255e-50
-1.03925e-51
-1.97386e-53
-2.83916e-55
-3.03063e-57
-2.33906e-59
-1.26209e-61
-4.55472e-64
-1.03486e-66
-1.35631e-69
-8.94393e-73
-2.3195e-76
-1.31149e-80
-2.845e-40
-4.63438e-41
-5.95429e-42
-6.0884e-43
-4.97513e-44
-3.2514e-45
-1.69492e-46
-7.01694e-48
-2.29011e-49
-5.83573e-51
-1.14652e-52
-1.70858e-54
-1.89287e-56
-1.51916e-58
-8.54189e-61
-3.21993e-63
-7.6616e-66
-1.05466e-68
-7.32851e-72
-2.01024e-75
-1.20794e-79
-1.20944e-39
-2.01693e-40
-2.65688e-41
-2.78877e-42
-2.34138e-43
-1.57353e-44
-8.44308e-46
-3.60166e-47
-1.2126e-48
-3.19167e-50
-6.48593e-52
-1.00131e-53
-1.15114e-55
-9.6053e-58
-5.62683e-60
-2.21496e-62
-5.51785e-65
-7.97532e-68
-5.83786e-71
-1.69325e-74
-1.08098e-78
-4.99515e-39
-8.52946e-40
-1.15238e-40
-1.24209e-41
-1.07175e-42
-7.40852e-44
-4.09242e-45
-1.79901e-46
-6.2486e-48
-1.69881e-49
-3.57067e-51
-5.71009e-53
-6.81121e-55
-5.90775e-57
-3.60479e-59
-1.48142e-61
-3.86267e-64
-5.86024e-67
-4.51731e-70
-1.38496e-73
-9.39034e-78
-2.00247e-38
-3.50174e-39
-4.85425e-40
-5.37457e-41
-4.76755e-42
-3.39053e-43
-1.92847e-44
-8.73721e-46
-3.131e-47
-8.79254e-49
-1.9114e-50
-3.16597e-52
-3.91785e-54
-3.53169e-56
-2.24413e-58
-9.6256e-61
-2.62611e-63
-4.18069e-66
-3.39252e-69
-1.09904e-72
-7.91113e-77
-7.78419e-38
-1.3943e-38
-1.98408e-39
-2.25732e-40
-2.05909e-41
-1.5069e-42
-8.82691e-44
-4.1222e-45
-1.52417e-46
-4.42122e-48
-9.94031e-50
-1.70521e-51
-2.18888e-53
-2.05029e-55
-1.35641e-57
-6.07068e-60
-1.73247e-62
-2.8931e-65
-2.47053e-68
-8.45378e-72
-6.45774e-76
-2.93106e-37
-5.37867e-38
-7.8612e-39
-9.19356e-40
-8.62612e-41
-6.4978e-42
-3.92057e-43
-1.88751e-44
-7.20148e-46
-2.15785e-47
-5.0175e-49
-8.9137e-51
-1.18671e-52
-1.15485e-54
-7.95266e-57
-3.71286e-59
-1.10802e-61
-1.94025e-64
-1.74292e-67
-6.29703e-71
-5.10252e-75
-1.06436e-36
-2.0078e-37
-3.01621e-38
-3.62716e-39
-3.50163e-40
-2.7156e-41
-1.68808e-42
-8.37941e-44
-3.29923e-45
-1.02122e-46
-2.45575e-48
-4.51766e-50
-6.23726e-52
-6.30491e-54
-4.5184e-56
-2.19996e-58
-6.86323e-61
-1.25981e-63
-1.19001e-66
-4.53767e-70
-3.8986e-74
-3.73439e-36
-7.24621e-37
-1.11942e-37
-1.38471e-38
-1.37581e-39
-1.09877e-40
-7.03826e-42
-3.60274e-43
-1.464e-44
-4.68129e-46
-1.16419e-47
-2.21761e-49
-3.17472e-51
-3.33291e-53
-2.48514e-55
-1.26153e-57
-4.11297e-60
-7.91126e-63
-7.85518e-66
-3.15995e-69
-2.87731e-73
-1.26452e-35
-2.5251e-36
-4.0135e-37
-5.10889e-38
-5.22597e-39
-4.29917e-40
-2.83833e-41
-1.49845e-42
-6.28493e-44
-2.07618e-45
-5.33965e-47
-1.05311e-48
-1.56309e-50
-1.70396e-52
-1.32164e-54
-6.99307e-57
-2.38196e-59
-4.7994e-62
-5.00719e-65
-2.12413e-68
-2.0489e-72
-8.48372e-36
-1.38826e-36
-1.81929e-37
-1.91663e-38
-1.62459e-39
-1.1057e-40
-6.02144e-42
-2.60706e-43
-8.89766e-45
-2.3665e-46
-4.83214e-48
-7.43508e-50
-8.41493e-52
-6.78793e-54
-3.74267e-56
-1.33145e-58
-2.80924e-61
-3.07842e-64
-1.37657e-67
-1.40595e-71
-2.74481e-35
-4.62625e-36
-6.24419e-37
-6.77754e-38
-5.92103e-39
-4.15531e-40
-2.33461e-41
-1.04353e-42
-3.67964e-44
-1.01207e-45
-2.13939e-47
-3.41209e-49
-4.00865e-51
-3.3622e-53
-1.93127e-55
-7.17349e-58
-1.58438e-60
-1.82292e-63
-8.58899e-67
-9.28438e-71
-1.48284e-35
-2.06254e-36
-2.30743e-37
-2.07825e-38
-1.50422e-39
-8.7205e-41
-4.02447e-42
-1.46624e-43
-4.17042e-45
-9.12573e-47
-1.50844e-48
-1.83926e-50
-1.60365e-52
-9.59384e-55
-3.71956e-57
-8.59685e-60
-1.03813e-62
-5.15179e-66
-5.89134e-70
-4.56478e-35
-6.54638e-36
-7.55115e-37
-7.0137e-38
-5.23672e-39
-3.13307e-40
-1.49298e-41
-5.62022e-43
-1.65304e-44
-3.74406e-46
-6.41317e-48
-8.11412e-50
-7.35277e-52
-4.58014e-54
-1.85293e-56
-4.48e-59
-5.67597e-62
-2.96558e-65
-3.58612e-69
-1.34731e-34
-1.993e-35
-2.37112e-36
-2.27179e-37
-1.75011e-38
-1.08072e-39
-5.31791e-41
-2.06846e-42
-6.29078e-44
-1.47464e-45
-2.61707e-47
-3.43516e-49
-3.23439e-51
-2.09722e-53
-8.85057e-56
-2.23779e-58
-2.97356e-61
-1.63512e-64
-2.09002e-68
-3.80535e-34
-5.80866e-35
-7.13013e-36
-7.04856e-37
-5.60345e-38
-3.5718e-39
-1.81498e-40
-7.29406e-42
-2.29358e-43
-5.56357e-45
-1.0228e-46
-1.39245e-48
-1.36188e-50
-9.18933e-53
-4.0441e-55
-1.06894e-57
-1.48924e-60
-8.61568e-64
-1.16364e-67
-1.02628e-33
-1.61719e-34
-2.04875e-35
-2.09012e-36
-1.71492e-37
-1.12846e-38
-5.92137e-40
-2.4585e-41
-7.99162e-43
-2.00556e-44
-3.81826e-46
-5.3899e-48
-5.47409e-50
-3.8424e-52
-1.76281e-54
-4.86946e-57
-7.11054e-60
-4.32661e-63
-6.17259e-67
-2.6365e-33
-4.29039e-34
-5.61101e-35
-5.90848e-36
-5.00381e-37
-3.39897e-38
-1.84161e-39
-7.89812e-41
-2.65336e-42
-6.88682e-44
-1.35731e-45
-1.98584e-47
-2.09348e-49
-1.52803e-51
-7.30524e-54
-2.10818e-56
-3.22562e-59
-2.0638e-62
-3.1094e-66
-6.43408e-33
-1.08159e-33
-1.46052e-34
-1.58758e-35
-1.38775e-36
-9.73013e-38
-5.44244e-39
-2.41026e-40
-8.36505e-42
-2.24439e-43
-4.57669e-45
-6.93612e-47
-7.58558e-49
-5.75441e-51
-2.86559e-53
-8.63635e-56
-1.38423e-58
-9.31097e-62
-1.48129e-65
-1.48683e-32
-2.58251e-33
-3.60105e-34
-4.04056e-35
-3.64514e-36
-2.63741e-37
-1.52234e-38
-6.95827e-40
-2.49317e-41
-6.90959e-43
-1.45655e-44
-2.2846e-46
-2.58984e-48
-2.04045e-50
-1.05781e-52
-3.32814e-55
-5.58675e-58
-3.95057e-61
-6.63703e-65
-3.24134e-32
-5.81767e-33
-8.37641e-34
-9.70027e-35
-9.02863e-36
-6.73809e-37
-4.01094e-38
-1.89049e-39
-6.98546e-41
-1.9971e-42
-4.3459e-44
-7.0447e-46
-8.26697e-48
-6.75738e-50
-3.64423e-52
-1.19647e-54
-2.10328e-57
-1.56384e-60
-2.77558e-64
-6.6363e-32
-1.23064e-32
-1.82916e-33
-2.18535e-34
-2.09736e-35
-1.61319e-36
-9.89183e-38
-4.80062e-39
-1.82582e-40
-5.37235e-42
-1.20377e-43
-2.01147e-45
-2.43805e-47
-2.06404e-49
-1.15678e-51
-3.96171e-54
-7.29467e-57
-5.70673e-60
-1.07114e-63
-1.26892e-31
-2.42996e-32
-3.72629e-33
-4.58962e-34
-4.53738e-35
-3.5917e-36
-2.26418e-37
-1.12838e-38
-4.40161e-40
-1.32705e-41
-3.0461e-43
-5.21984e-45
-6.50802e-47
-5.69081e-49
-3.31015e-51
-1.18257e-53
-2.28308e-56
-1.88266e-59
-3.74588e-63
-2.24957e-31
-4.44338e-32
-7.02247e-33
-8.90594e-34
-9.05361e-35
-7.35746e-36
-4.75074e-37
-2.41871e-38
-9.60692e-40
-2.93995e-41
-6.83081e-43
-1.18478e-44
-1.50831e-46
-1.35713e-48
-8.18654e-51
-3.05646e-53
-6.20954e-56
-5.42284e-59
-1.14992e-62
-3.6609e-31
-7.44056e-32
-1.20976e-32
-1.57634e-33
-1.64261e-34
-1.36435e-35
-8.95743e-37
-4.60929e-38
-1.83292e-39
-5.57102e-41
-1.26551e-42
-2.10201e-44
-2.71887e-46
-2.52891e-48
-1.592e-50
-6.27338e-53
-1.35793e-55
-1.27259e-58
-2.91389e-62
-5.38761e-31
-1.12133e-31
-1.87014e-32
-2.49373e-33
-2.64752e-34
-2.22922e-35
-1.46377e-36
-7.4359e-38
-2.82003e-39
-8.00051e-41
-1.5416e-42
-1.09117e-44
-2.13654e-46
-2.60168e-48
-1.84979e-50
-8.13378e-53
-1.9736e-55
-2.07449e-58
-5.32322e-62
-6.99062e-31
-1.47556e-31
-2.5126e-32
-3.39824e-33
-3.62857e-34
-3.05052e-35
-1.91564e-36
-9.07858e-38
-2.6441e-39
-3.25686e-41
-6.91365e-52
1.92911e-43
7.49652e-46
-5.92246e-59
-1.06048e-51
-2.02744e-53
-9.28948e-56
-1.43416e-58
-4.82781e-62
-7.59119e-31
-1.59196e-31
-2.74516e-32
-3.67118e-33
-3.81466e-34
-3.11418e-35
-1.55628e-36
-5.20167e-38
-2.77181e-59
1.85015e-60
1.07192e-40
1.72789e-42
9.5171e-52
1.96818e-55
7.65968e-57
-1.97479e-56
-2.22193e-57
-9.07972e-60
-6.21132e-63
-5.85143e-31
-1.16844e-31
-1.98885e-32
-2.34709e-33
-2.0614e-34
-1.51708e-35
-2.77656e-56
-5.8707e-62
-1.0094e-53
1.56818e-37
6.30277e-40
6.13149e-49
1.83774e-52
3.48261e-54
6.12215e-58
6.97278e-62
-9.1713e-60
-1.4335e-61
-2.0301e-64
-3.15749e-39
0
-2.95836e-47
-1.22498e-43
-1.14263e-44
-2.58124e-51
-7.96826e-51
3.859e-40
5.77255e-35
2.36473e-36
4.05903e-45
1.54636e-48
4.74515e-52
9.95947e-54
1.88157e-57
2.92962e-61
1.08741e-65
2.47946e-70
-2.39089e-67
-1.17593e-43
1.78336e-35
-3.63204e-52
2.12878e-36
4.00171e-37
-1.86858e-43
2.00095e-33
7.28351e-33
1.3243e-34
3.33473e-43
1.76734e-46
2.3458e-48
1.2063e-51
3.96455e-55
7.92633e-59
1.29824e-62
4.19818e-67
9.98913e-72
1.21847e-73
2.41031e-32
4.11127e-33
1.99347e-34
5.55772e-34
1.02572e-34
5.04122e-36
2.00681e-30
1.79405e-31
6.95838e-40
4.69194e-43
6.12441e-45
4.66327e-48
2.02702e-51
5.94138e-55
1.11601e-58
1.69467e-62
2.99017e-67
4.61026e-71
7.22909e-71
2.33531e-30
4.16621e-31
2.16749e-32
1.84472e-27
1.08175e-28
3.90636e-30
3.43009e-30
1.69974e-31
7.4368e-40
4.88442e-43
2.69922e-46
4.38977e-48
2.06255e-51
6.30661e-55
1.29679e-58
2.80403e-62
1.23121e-66
6.60033e-71
4.56132e-71
4.26104e-24
6.80782e-29
2.32914e-30
9.27933e-27
5.15262e-26
6.73998e-27
5.3701e-35
5.50654e-38
6.89392e-40
9.58893e-43
2.65659e-46
2.56004e-49
1.23114e-52
3.66745e-56
7.21533e-62
1.35456e-63
4.54536e-71
4.56132e-71
4.56132e-71
3.94431e-23
8.71581e-23
1.29531e-24
9.29222e-27
8.12865e-26
1.236e-26
1.19357e-34
1.11482e-37
9.84497e-41
2.00704e-42
6.10446e-46
5.63803e-49
2.73603e-52
1.00577e-55
5.11071e-57
2.27402e-67
4.5766e-71
4.56148e-71
4.56163e-71
8.24541e-24
1.46155e-21
1.29139e-21
3.79671e-23
1.13408e-28
1.98851e-28
2.86563e-36
3.04091e-39
3.56437e-41
4.98994e-44
1.0875e-47
1.87959e-52
3.8785e-55
2.89231e-55
1.09053e-56
1.36363e-59
1.33667e-70
4.57663e-71
4.58725e-71
2.67882e-23
1.32228e-21
2.34775e-21
4.29844e-22
7.22597e-30
1.08764e-32
1.49339e-34
7.32735e-38
1.88128e-40
2.46231e-43
6.63809e-47
1.6757e-49
4.38043e-50
1.05597e-54
1.0407e-56
4.30161e-61
6.08281e-67
1.33667e-70
4.58945e-71
5.20345e-18
1.43733e-21
1.55025e-21
3.58523e-22
1.27375e-29
1.18716e-32
6.15881e-36
7.63283e-39
6.33856e-40
8.62366e-43
7.02456e-48
3.88492e-48
3.63632e-49
1.37674e-53
2.46978e-55
4.54414e-57
4.50256e-63
6.08281e-67
1.33667e-70
2.21854e-17
3.29135e-18
6.71374e-25
4.3711e-25
6.39215e-25
3.43861e-27
4.72416e-35
5.11684e-38
3.87126e-41
2.37046e-44
8.17997e-46
1.53091e-45
2.13798e-49
2.12764e-51
1.06685e-52
2.65998e-54
3.9008e-50
2.14652e-55
6.08281e-67
2.21843e-17
7.41262e-18
4.64953e-25
1.20884e-25
2.39489e-25
1.13136e-26
1.29315e-34
1.45451e-37
1.68795e-39
1.12972e-40
4.33619e-42
8.21009e-46
9.44932e-48
9.99077e-49
5.01128e-50
2.59557e-45
2.55072e-48
5.34403e-60
4.50256e-63
1.162e-17
2.95394e-18
1.37655e-25
2.0112e-28
3.57054e-31
5.90993e-34
1.59037e-35
2.36851e-37
2.10673e-37
3.34904e-39
5.80882e-42
1.1825e-44
3.2138e-45
4.33355e-46
2.54622e-41
6.54648e-44
1.24518e-54
1.98597e-58
3.60438e-58
6.45731e-25
1.39551e-20
3.50705e-21
1.10251e-27
1.34881e-31
2.127e-34
7.67055e-37
3.69679e-37
4.78245e-37
3.28638e-39
5.6975e-41
3.19346e-42
1.1616e-42
9.40208e-38
4.47333e-40
3.31939e-50
1.29158e-54
6.20019e-58
8.26518e-58
5.81314e-27
2.42392e-22
1.23552e-21
2.14188e-22
4.77196e-30
8.32144e-33
7.1685e-34
9.66883e-35
2.80654e-37
1.76545e-38
1.83813e-39
9.96834e-40
1.41287e-34
1.28274e-36
2.53724e-46
2.19481e-50
8.60693e-55
3.37563e-58
5.32697e-58
1.5004e-27
2.916e-27
5.76723e-27
6.84849e-27
2.14112e-28
1.11059e-31
2.05784e-31
1.53544e-33
7.8688e-37
3.58572e-36
4.99203e-37
8.39008e-32
1.48379e-33
6.36604e-43
9.68531e-47
8.4395e-51
3.29779e-55
7.4911e-59
1.17584e-58
2.52333e-27
9.87106e-28
1.67047e-27
7.72505e-27
9.31393e-28
1.48827e-31
1.96741e-31
1.56536e-33
9.57368e-35
1.5056e-28
2.96622e-29
3.35767e-31
2.91123e-40
6.97403e-44
6.86379e-46
1.06108e-49
3.56219e-56
1.51844e-59
2.46392e-59
8.01878e-26
3.91677e-28
8.25851e-29
1.61229e-28
3.22799e-28
6.86334e-31
2.22119e-31
1.47253e-31
2.20104e-32
4.06504e-27
1.8374e-28
2.7277e-37
8.78177e-41
2.10611e-44
2.6453e-46
4.17517e-50
1.04559e-56
2.96193e-60
4.7789e-60
2.94625e-23
2.80051e-26
2.71424e-28
2.0526e-28
2.26197e-28
3.96038e-30
5.09212e-30
3.77973e-24
7.97378e-25
5.38031e-35
1.18958e-16
6.52672e-24
2.34023e-27
2.86455e-28
9.76161e-29
1.931e-28
1.03442e-22
-8.30576e-70
-6.61073e-71
-3.95306e-72
-1.77743e-73
-6.02191e-75
-1.53762e-76
-2.95005e-78
-4.23362e-80
-4.51198e-82
-3.53984e-84
-2.02264e-86
-8.31009e-89
-2.41984e-91
-4.90896e-94
-6.79365e-97
-6.24607e-100
-3.68062e-103
-1.31894e-106
-2.64404e-110
-2.55153e-114
-8.21324e-119
-6.83032e-69
-5.52069e-70
-3.35809e-71
-1.53865e-72
-5.32149e-74
-1.3894e-75
-2.72995e-77
-4.01773e-79
-4.39617e-81
-3.54393e-83
-2.08158e-85
-8.79041e-88
-2.62903e-90
-5.46966e-93
-7.74521e-96
-7.26293e-99
-4.34722e-102
-1.57416e-105
-3.16733e-109
-3.03471e-113
-9.51127e-118
-5.55475e-68
-4.56058e-69
-2.82268e-70
-1.31837e-71
-4.65625e-73
-1.24361e-74
-2.50359e-76
-3.78067e-78
-4.2499e-80
-3.52302e-82
-2.12905e-84
-9.25077e-87
-2.84494e-89
-6.0776e-92
-8.8162e-95
-8.44015e-98
-5.13333e-101
-1.87687e-104
-3.77874e-108
-3.56504e-112
-1.05748e-116
-4.46629e-67
-3.72581e-68
-2.34705e-69
-1.11776e-70
-4.03267e-72
-1.10217e-73
-2.27435e-75
-3.52577e-77
-4.07408e-79
-3.47526e-81
-2.1626e-83
-9.6775e-86
-3.06372e-88
-6.72879e-91
-1.00119e-93
-9.79687e-97
-6.05968e-100
-2.23726e-103
-4.50111e-107
-4.16648e-111
-1.16719e-115
-3.54964e-66
-3.00941e-67
-1.92998e-68
-9.37449e-70
-3.45588e-71
-9.66854e-73
-2.04578e-74
-3.25711e-76
-3.87074e-78
-3.39972e-80
-2.18007e-82
-1.00564e-84
-3.28077e-87
-7.41682e-90
-1.13345e-92
-1.13514e-95
-7.14867e-99
-2.66702e-102
-5.36101e-106
-4.86405e-110
-1.28812e-114
-2.78782e-65
-2.40265e-66
-1.56903e-67
-7.77498e-69
-2.92948e-70
-8.39197e-72
-1.82135e-73
-2.97925e-75
-3.64295e-77
-3.29634e-79
-2.17969e-81
-1.03731e-83
-3.4908e-86
-8.13272e-89
-1.27822e-91
-1.31208e-94
-8.42518e-98
-3.1802e-101
-6.39208e-105
-5.68772e-109
-1.42441e-113
-2.16311e-64
-1.89552e-65
-1.26077e-66
-6.37488e-68
-2.45553e-69
-7.20445e-71
-1.6043e-72
-2.69703e-74
-3.39463e-76
-3.16603e-78
-2.16013e-80
-1.06137e-82
-3.68789e-85
-8.86454e-88
-1.43485e-90
-1.51197e-93
-9.91591e-97
-3.79338e-100
-7.63678e-104
-6.67679e-108
-1.5845e-112
-1.6577e-63
-1.47733e-64
-1.00101e-65
-5.16574e-67
-2.0346e-68
-6.11527e-70
-1.39754e-71
-2.41535e-73
-3.13042e-75
-3.01065e-77
-2.12063e-79
-1.07654e-81
-3.86563e-84
-9.5972e-87
-1.602e-89
-1.73573e-92
-1.1648e-95
-4.52561e-99
-9.14713e-103
-7.88111e-107
-1.78017e-111
-1.25439e-62
-1.13713e-63
-7.85081e-65
-4.13567e-66
-1.6659e-67
-5.13042e-69
-1.20355e-70
-2.13899e-72
-2.85548e-74
-2.83296e-76
-2.06111e-78
-1.08174e-80
-4.01738e-83
-1.03126e-85
-1.77757e-88
-1.98355e-91
-1.36478e-94
-5.39826e-98
-1.09862e-101
-9.36376e-106
-2.02463e-110
-9.36974e-62
-8.64175e-63
-6.08033e-64
-3.27019e-65
-1.34744e-66
-4.25264e-68
-1.02428e-69
-1.87235e-71
-2.57528e-73
-2.63655e-75
-1.98217e-77
-1.07613e-79
-4.13663e-82
-1.09901e-84
-1.95865e-87
-2.25464e-90
-1.59381e-93
-6.43459e-97
-1.3229e-100
-1.12038e-104
-2.33428e-109
-6.90664e-61
-6.48219e-62
-4.64883e-63
-2.55314e-64
-1.07625e-65
-3.48159e-67
-8.61108e-69
-1.61934e-70
-2.29532e-72
-2.42568e-74
-1.88516e-76
-1.05924e-78
-4.21731e-81
-1.1607e-83
-2.14141e-86
-2.54694e-89
-1.85364e-92
-7.659e-96
-1.59637e-99
-1.34999e-103
-2.73014e-108
-5.02247e-60
-4.79772e-61
-3.50773e-62
-1.96748e-63
-8.48614e-65
-2.81419e-66
-7.14859e-68
-1.38319e-69
-2.02089e-71
-2.20506e-73
-1.77212e-75
-1.031e-77
-4.25426e-80
-1.21395e-82
-2.32115e-85
-2.85689e-88
-2.14507e-91
-9.09579e-95
-1.92914e-98
-1.63741e-102
-3.23939e-107
-3.60198e-59
-3.50269e-60
-2.61115e-61
-1.496e-62
-6.60318e-64
-2.24507e-65
-5.85786e-67
-1.16639e-68
-1.75684e-70
-1.97966e-72
-1.64567e-74
-9.91753e-77
-4.24358e-79
-1.25642e-81
-2.49244e-84
-3.17921e-87
-2.46759e-90
-1.07673e-93
-2.33245e-97
-1.99755e-101
-3.89715e-106
-2.54681e-58
-2.52162e-59
-1.91698e-60
-1.12199e-61
-5.06858e-63
-1.76704e-64
-4.73639e-66
-9.70618e-68
-1.50739e-69
-1.75446e-71
-1.50898e-73
-9.42285e-76
-4.18298e-78
-1.28593e-80
-2.64919e-83
-3.50678e-86
-2.81901e-89
-1.26915e-92
-2.81838e-96
-2.44827e-100
-4.74856e-105
-1.77474e-57
-1.78945e-58
-1.38749e-59
-8.29726e-61
-3.83668e-62
-1.37165e-63
-3.77728e-65
-7.96744e-67
-1.27595e-68
-1.53418e-70
-1.36549e-72
-8.83803e-75
-4.07209e-77
-1.3006e-79
-2.78505e-82
-3.83068e-85
-3.19504e-88
-1.48787e-91
-3.39922e-95
-3.01049e-99
-5.85116e-104
-1.21844e-56
-1.25132e-57
-9.89735e-59
-6.04795e-60
-2.86287e-61
-1.04968e-62
-2.97005e-64
-6.44881e-66
-1.06506e-67
-1.3231e-69
-1.21885e-71
-8.17878e-74
-3.91261e-76
-1.29903e-78
-2.89366e-81
-4.14037e-84
-3.58897e-87
-1.73284e-90
-4.0866e-94
-3.70804e-98
-7.27714e-103
-8.23848e-56
-8.61924e-57
-6.9554e-58
-4.34361e-59
-2.10503e-60
-7.9163e-62
-2.30161e-63
-5.14461e-65
-8.76314e-67
-1.12484e-68
-1.07264e-70
-7.46362e-73
-3.7083e-75
-1.28044e-77
-2.96912e-80
-4.42403e-83
-3.99148e-86
-2.00249e-89
-4.89022e-93
-4.56696e-97
-9.11542e-102
-5.48397e-55
-5.84597e-56
-4.81368e-57
-3.07254e-58
-1.52463e-59
-5.88122e-61
-1.75714e-62
-4.04351e-64
-7.10398e-66
-9.42274e-68
-9.30223e-70
-6.71289e-72
-3.46492e-74
-1.24474e-76
-3.00645e-79
-4.66918e-82
-4.39068e-85
-2.29338e-88
-5.81627e-92
-5.61431e-96
-1.14728e-100
-3.59233e-54
-3.90265e-55
-3.27954e-56
-2.13982e-57
-1.08729e-58
-4.3025e-60
-1.32104e-61
-3.1298e-63
-5.6717e-65
-7.77418e-67
-7.9459e-69
-5.94764e-71
-3.18987e-73
-1.19262e-75
-3.002e-78
-4.86342e-81
-4.77234e-84
-2.59992e-87
-6.86546e-91
-6.87614e-95
-1.44733e-99
-2.31479e-53
-2.56332e-54
-2.19865e-55
-1.46662e-56
-7.63178e-58
-3.09817e-59
-9.7764e-61
-2.38475e-62
-4.45764e-64
-6.31429e-66
-6.68209e-68
-5.18836e-70
-2.89183e-72
-1.12555e-74
-2.95388e-77
-4.99537e-80
-5.12052e-83
-2.91414e-86
-8.03106e-90
-8.37464e-94
-1.82555e-98
-1.4666e-52
-1.65578e-53
-1.44985e-54
-9.88862e-56
-5.27019e-57
-2.19503e-58
-7.11887e-60
-1.78794e-61
-3.44735e-63
-5.04649e-65
-5.52951e-67
-4.45395e-69
-2.58018e-71
-1.04566e-73
-2.86219e-76
-5.05558e-79
-5.41837e-82
-3.22574e-85
-9.29684e-89
-1.01244e-92
-2.29658e-97
-9.13241e-52
-1.05139e-52
-9.39999e-54
-6.55611e-55
-3.579e-56
-1.52946e-57
-5.0983e-59
-1.31842e-60
-2.62217e-62
-3.96688e-64
-4.50047e-66
-3.7607e-68
-2.26447e-70
-9.55716e-73
-2.72921e-75
-5.03751e-78
-5.64934e-81
-3.52239e-84
-1.06355e-87
-1.21278e-91
-2.87469e-96
-5.58632e-51
-6.55987e-52
-5.98926e-53
-4.27224e-54
-2.38913e-55
-1.04763e-56
-3.58947e-58
-9.55765e-60
-1.9608e-61
-3.06549e-63
-3.60094e-65
-3.12162e-67
-1.95384e-69
-8.58849e-72
-2.5593e-74
-4.93827e-77
-5.79854e-80
-3.7903e-83
-1.2008e-86
-1.43707e-90
-3.57218e-95
-3.35524e-50
-4.01962e-51
-3.7485e-52
-2.73506e-53
-1.56698e-54
-7.05109e-56
-2.4833e-57
-6.80847e-59
-1.4408e-60
-2.32776e-62
-2.83105e-64
-2.54599e-66
-1.65646e-68
-7.58406e-71
-2.35869e-73
-4.75914e-76
-5.85409e-79
-4.01504e-82
-1.33635e-85
-1.6817e-89
-4.39718e-94
-1.9777e-49
-2.4178e-50
-2.30341e-51
-1.71937e-52
-1.00931e-53
-4.66097e-55
-1.68741e-56
-4.7637e-58
-1.03983e-59
-1.73602e-61
-2.18595e-63
-2.03929e-65
-1.37914e-67
-6.57706e-70
-2.13505e-72
-4.50575e-75
-5.80847e-78
-4.18276e-81
-1.46416e-84
-1.94063e-88
-5.35104e-93
-1.14342e-48
-1.42685e-49
-1.38897e-50
-1.06084e-51
-6.38146e-53
-3.02455e-54
-1.12562e-55
-3.27211e-57
-7.36727e-59
-1.27098e-60
-1.65683e-62
-1.60331e-64
-1.12703e-66
-5.5983e-69
-1.89697e-71
-4.18781e-74
-5.65951e-77
-4.28137e-80
-1.57754e-83
-2.20515e-87
-6.4256e-92
-6.48082e-48
-8.25706e-49
-8.21484e-50
-6.4208e-51
-3.95845e-52
-1.92571e-53
-7.36775e-55
-2.2054e-56
-5.12174e-58
-9.12998e-60
-1.23208e-61
-1.23667e-63
-9.03496e-66
-4.6744e-68
-1.65333e-70
-3.81848e-73
-5.41095e-76
-4.30187e-79
-1.66964e-82
-2.46407e-86
-7.60062e-91
-3.59901e-47
-4.68301e-48
-4.76268e-49
-3.81023e-50
-2.40776e-51
-1.2024e-52
-4.72959e-54
-1.4578e-55
-3.49201e-57
-6.43176e-59
-8.98455e-61
-9.35295e-63
-7.10139e-65
-3.8264e-67
-1.41267e-69
-3.4134e-72
-5.07247e-75
-4.23948e-78
-1.7341e-81
-2.70424e-85
-8.84196e-90
-1.9571e-46
-2.60151e-47
-2.70523e-48
-2.21563e-49
-1.43532e-50
-7.35861e-52
-2.97598e-53
-9.44579e-55
-2.33374e-56
-4.44109e-58
-6.42131e-60
-6.93224e-62
-5.46948e-64
-3.06902e-66
-1.18258e-68
-2.98942e-71
-4.65905e-74
-4.09433e-77
-1.76566e-80
-2.91139e-84
-1.01012e-88
-1.0415e-45
-1.41471e-46