/*--------------------------------*- C++ -*----------------------------------*\
| =========                 |                                                 |
| \\      /  F ield         | OpenFOAM: The Open Source CFD Toolbox           |
|  \\    /   O peration     | Version:  v2012                                 |
|   \\  /    A nd           | Website:  www.openfoam.com                      |
|    \\/     M anipulation  |                                                 |
\*---------------------------------------------------------------------------*/
FoamFile
{
    version     2.0;
    format      ascii;
    class       volScalarField;
    location    "0.65";
    object      p;
}
// * * * * * * * * * * * * * * * * * * * * * * * * * * * * * * * * * * * * * //

dimensions      [1 -1 -2 0 0 0 0];


internalField   nonuniform List<scalar> 
2619
(
3.1004e+06
3.10009e+06
3.09983e+06
3.09951e+06
3.10015e+06
3.10002e+06
3.10005e+06
3.10005e+06
3.10005e+06
3.10004e+06
3.10003e+06
3.10002e+06
3.10001e+06
3.10001e+06
3.10002e+06
3.10002e+06
3.10126e+06
3.10114e+06
3.10028e+06
3.09989e+06
3.10028e+06
3.10008e+06
3.10001e+06
3.10008e+06
3.10006e+06
3.10004e+06
3.10004e+06
3.10002e+06
3.10002e+06
3.10001e+06
3.10002e+06
3.10002e+06
3.10002e+06
3.10002e+06
3.10126e+06
3.1008e+06
3.10007e+06
3.09969e+06
3.10008e+06
3.09998e+06
3.09997e+06
3.10004e+06
3.10002e+06
3.10003e+06
3.10003e+06
3.10002e+06
3.10002e+06
3.10001e+06
3.10002e+06
3.10002e+06
3.10002e+06
3.10002e+06
3.10002e+06
3.1014e+06
3.10101e+06
3.10023e+06
3.09978e+06
3.10006e+06
3.09999e+06
3.09997e+06
3.10009e+06
3.10005e+06
3.10005e+06
3.10005e+06
3.10004e+06
3.10003e+06
3.10002e+06
3.10002e+06
3.10002e+06
3.10002e+06
3.10002e+06
3.10002e+06
3.10124e+06
3.10087e+06
3.10002e+06
3.09976e+06
3.10023e+06
3.10006e+06
3.09999e+06
3.10003e+06
3.10001e+06
3.10003e+06
3.10002e+06
3.10002e+06
3.10003e+06
3.10002e+06
3.10002e+06
3.10002e+06
3.10003e+06
3.10002e+06
3.10002e+06
3.10194e+06
3.101e+06
3.10011e+06
3.10008e+06
3.09987e+06
3.09969e+06
3.10007e+06
3.1e+06
3.09998e+06
3.10007e+06
3.10003e+06
3.10003e+06
3.10003e+06
3.10002e+06
3.10003e+06
3.10003e+06
3.10003e+06
3.10002e+06
3.10002e+06
3.10458e+06
3.10261e+06
3.10115e+06
3.1008e+06
3.10016e+06
3.09993e+06
3.1003e+06
3.10012e+06
3.10002e+06
3.10005e+06
3.10001e+06
3.10002e+06
3.10002e+06
3.10002e+06
3.10003e+06
3.10003e+06
3.10003e+06
3.10003e+06
3.10002e+06
3.09709e+06
3.0973e+06
3.09791e+06
3.09897e+06
3.09951e+06
3.09999e+06
3.09989e+06
3.09972e+06
3.10007e+06
3.10005e+06
3.09999e+06
3.10004e+06
3.10002e+06
3.10003e+06
3.10003e+06
3.10003e+06
3.10003e+06
3.10003e+06
3.10002e+06
3.09426e+06
3.08763e+06
3.08546e+06
3.09e+06
3.09808e+06
3.10063e+06
3.10017e+06
3.09986e+06
3.10013e+06
3.10004e+06
3.09998e+06
3.10005e+06
3.10002e+06
3.10003e+06
3.10004e+06
3.10003e+06
3.10004e+06
3.10003e+06
3.10002e+06
3.07757e+06
3.08042e+06
3.0819e+06
3.08825e+06
3.09755e+06
3.10053e+06
3.10012e+06
3.09981e+06
3.10011e+06
3.10003e+06
3.09999e+06
3.10006e+06
3.10001e+06
3.10002e+06
3.10004e+06
3.10004e+06
3.10004e+06
3.10003e+06
3.10003e+06
3.08024e+06
3.0823e+06
3.08318e+06
3.08892e+06
3.0977e+06
3.10056e+06
3.10012e+06
3.09981e+06
3.10011e+06
3.10003e+06
3.09999e+06
3.10008e+06
3.10002e+06
3.10003e+06
3.10005e+06
3.10004e+06
3.10005e+06
3.10004e+06
3.10003e+06
3.08231e+06
3.08324e+06
3.08364e+06
3.08947e+06
3.09863e+06
3.10135e+06
3.10031e+06
3.09985e+06
3.10012e+06
3.10004e+06
3.09997e+06
3.10007e+06
3.10003e+06
3.10004e+06
3.10004e+06
3.10003e+06
3.10004e+06
3.10004e+06
3.10003e+06
3.10003e+06
3.10002e+06
3.10001e+06
3.10001e+06
3.08089e+06
3.08282e+06
3.08361e+06
3.08866e+06
3.09669e+06
3.09974e+06
3.0999e+06
3.09999e+06
3.10019e+06
3.10008e+06
3.10002e+06
3.10011e+06
3.10006e+06
3.10006e+06
3.10005e+06
3.10003e+06
3.10005e+06
3.10004e+06
3.10003e+06
3.10003e+06
3.10002e+06
3.10001e+06
3.10001e+06
3.0828e+06
3.08532e+06
3.08725e+06
3.08762e+06
3.08736e+06
3.09151e+06
3.09917e+06
3.10123e+06
3.10041e+06
3.10006e+06
3.10002e+06
3.10012e+06
3.10005e+06
3.10006e+06
3.10006e+06
3.10004e+06
3.10005e+06
3.10005e+06
3.10004e+06
3.10003e+06
3.10002e+06
3.10001e+06
3.10001e+06
3.07509e+06
3.08049e+06
3.08416e+06
3.08457e+06
3.08473e+06
3.08854e+06
3.09633e+06
3.09924e+06
3.09972e+06
3.09992e+06
3.09994e+06
3.10005e+06
3.10003e+06
3.10006e+06
3.10006e+06
3.10004e+06
3.10006e+06
3.10005e+06
3.10004e+06
3.10003e+06
3.10002e+06
3.10002e+06
3.10001e+06
3.09202e+06
3.09256e+06
3.09203e+06
3.08988e+06
3.08891e+06
3.08826e+06
3.08808e+06
3.09145e+06
3.09829e+06
3.10055e+06
3.10006e+06
3.09998e+06
3.1e+06
3.10006e+06
3.10006e+06
3.10004e+06
3.10006e+06
3.10005e+06
3.10004e+06
3.10003e+06
3.10003e+06
3.10002e+06
3.10001e+06
3.09855e+06
3.11735e+06
3.12452e+06
3.11315e+06
3.09227e+06
3.0858e+06
3.08566e+06
3.08951e+06
3.09765e+06
3.10047e+06
3.1e+06
3.09991e+06
3.09997e+06
3.10005e+06
3.10005e+06
3.10004e+06
3.10006e+06
3.10005e+06
3.10004e+06
3.10003e+06
3.10003e+06
3.10002e+06
3.10001e+06
3.13833e+06
3.13276e+06
3.13211e+06
3.11719e+06
3.09352e+06
3.08619e+06
3.08647e+06
3.0902e+06
3.0978e+06
3.10051e+06
3.1e+06
3.09988e+06
3.09995e+06
3.10004e+06
3.10005e+06
3.10003e+06
3.10006e+06
3.10005e+06
3.10004e+06
3.10003e+06
3.10003e+06
3.10002e+06
3.10001e+06
3.13274e+06
3.12844e+06
3.12944e+06
3.11569e+06
3.09343e+06
3.0862e+06
3.08662e+06
3.09027e+06
3.09785e+06
3.10059e+06
3.10007e+06
3.09989e+06
3.09994e+06
3.10004e+06
3.10004e+06
3.10003e+06
3.10006e+06
3.10005e+06
3.10004e+06
3.10003e+06
3.10003e+06
3.10002e+06
3.10001e+06
3.12804e+06
3.12631e+06
3.12826e+06
3.11437e+06
3.0912e+06
3.08428e+06
3.08611e+06
3.09004e+06
3.09779e+06
3.10055e+06
3.10006e+06
3.09987e+06
3.09992e+06
3.10002e+06
3.10004e+06
3.10003e+06
3.10005e+06
3.10005e+06
3.10004e+06
3.10003e+06
3.10003e+06
3.10002e+06
3.10001e+06
3.13199e+06
3.12777e+06
3.1287e+06
3.11632e+06
3.09579e+06
3.08819e+06
3.08716e+06
3.08992e+06
3.09774e+06
3.10045e+06
3.09995e+06
3.09982e+06
3.09992e+06
3.10002e+06
3.10003e+06
3.10003e+06
3.10005e+06
3.10005e+06
3.10004e+06
3.10003e+06
3.10003e+06
3.10002e+06
3.10001e+06
3.12446e+06
3.12071e+06
3.11909e+06
3.11813e+06
3.12021e+06
3.10992e+06
3.08852e+06
3.08631e+06
3.09684e+06
3.10015e+06
3.09987e+06
3.09978e+06
3.09995e+06
3.10004e+06
3.10004e+06
3.10003e+06
3.10005e+06
3.10005e+06
3.10004e+06
3.10003e+06
3.10003e+06
3.10002e+06
3.10001e+06
3.13635e+06
3.12771e+06
3.12372e+06
3.12324e+06
3.12624e+06
3.11683e+06
3.09518e+06
3.09114e+06
3.09846e+06
3.10033e+06
3.09996e+06
3.09984e+06
3.09997e+06
3.10005e+06
3.10004e+06
3.10004e+06
3.10005e+06
3.10005e+06
3.10004e+06
3.10003e+06
3.10003e+06
3.10002e+06
3.10001e+06
3.11503e+06
3.11287e+06
3.11343e+06
3.11541e+06
3.11729e+06
3.11733e+06
3.1174e+06
3.11202e+06
3.10184e+06
3.09868e+06
3.09951e+06
3.09974e+06
3.09995e+06
3.10003e+06
3.10005e+06
3.10005e+06
3.10006e+06
3.10005e+06
3.10004e+06
3.10004e+06
3.10003e+06
3.10002e+06
3.10002e+06
3.1074e+06
3.08563e+06
3.07852e+06
3.09081e+06
3.11393e+06
3.12139e+06
3.12284e+06
3.11658e+06
3.1033e+06
3.09884e+06
3.09962e+06
3.09982e+06
3.09998e+06
3.10005e+06
3.10006e+06
3.10006e+06
3.10006e+06
3.10005e+06
3.10005e+06
3.10004e+06
3.10003e+06
3.10002e+06
3.10002e+06
3.06315e+06
3.06811e+06
3.06971e+06
3.08606e+06
3.11219e+06
3.12048e+06
3.12088e+06
3.11482e+06
3.10283e+06
3.09864e+06
3.09959e+06
3.09984e+06
3.10002e+06
3.10006e+06
3.10007e+06
3.10006e+06
3.10006e+06
3.10005e+06
3.10005e+06
3.10004e+06
3.10003e+06
3.10002e+06
3.10002e+06
3.06992e+06
3.0731e+06
3.07268e+06
3.08755e+06
3.11229e+06
3.12044e+06
3.12066e+06
3.11473e+06
3.10278e+06
3.09854e+06
3.0995e+06
3.09982e+06
3.10002e+06
3.10006e+06
3.10007e+06
3.10006e+06
3.10006e+06
3.10006e+06
3.10005e+06
3.10004e+06
3.10003e+06
3.10002e+06
3.10002e+06
3.07491e+06
3.0753e+06
3.07381e+06
3.08893e+06
3.11472e+06
3.12255e+06
3.12127e+06
3.11498e+06
3.10282e+06
3.09855e+06
3.09949e+06
3.09983e+06
3.10002e+06
3.10006e+06
3.10007e+06
3.10007e+06
3.10007e+06
3.10006e+06
3.10005e+06
3.10004e+06
3.10003e+06
3.10003e+06
3.10002e+06
3.07025e+06
3.07366e+06
3.07345e+06
3.08679e+06
3.10968e+06
3.11825e+06
3.12019e+06
3.1152e+06
3.10298e+06
3.0987e+06
3.09961e+06
3.09986e+06
3.10001e+06
3.10006e+06
3.10006e+06
3.10007e+06
3.10006e+06
3.10006e+06
3.10005e+06
3.10004e+06
3.10003e+06
3.10003e+06
3.10002e+06
3.0796e+06
3.0824e+06
3.08433e+06
3.08471e+06
3.08272e+06
3.09432e+06
3.11864e+06
3.1193e+06
3.10417e+06
3.09912e+06
3.09971e+06
3.09986e+06
3.09998e+06
3.10005e+06
3.10006e+06
3.10007e+06
3.10006e+06
3.10006e+06
3.10005e+06
3.10004e+06
3.10004e+06
3.10003e+06
3.10002e+06
3.06813e+06
3.07615e+06
3.08018e+06
3.07977e+06
3.07613e+06
3.08662e+06
3.11122e+06
3.11393e+06
3.10244e+06
3.09902e+06
3.09971e+06
3.09986e+06
3.09999e+06
3.10006e+06
3.10006e+06
3.10007e+06
3.10006e+06
3.10006e+06
3.10005e+06
3.10004e+06
3.10004e+06
3.10003e+06
3.10002e+06
3.08675e+06
3.08903e+06
3.08919e+06
3.08733e+06
3.08576e+06
3.08593e+06
3.08657e+06
3.09079e+06
3.09858e+06
3.10087e+06
3.10035e+06
3.10008e+06
3.10005e+06
3.10008e+06
3.10007e+06
3.10008e+06
3.10007e+06
3.10006e+06
3.10005e+06
3.10004e+06
3.10004e+06
3.10003e+06
3.10002e+06
3.09352e+06
3.11228e+06
3.11744e+06
3.10777e+06
3.08833e+06
3.08206e+06
3.08056e+06
3.08575e+06
3.09701e+06
3.10082e+06
3.10035e+06
3.10009e+06
3.10008e+06
3.10009e+06
3.10007e+06
3.10008e+06
3.10007e+06
3.10007e+06
3.10006e+06
3.10005e+06
3.10004e+06
3.10003e+06
3.10002e+06
3.12963e+06
3.12668e+06
3.12478e+06
3.11161e+06
3.08988e+06
3.08301e+06
3.08264e+06
3.08769e+06
3.09753e+06
3.101e+06
3.10037e+06
3.10006e+06
3.10005e+06
3.10008e+06
3.10007e+06
3.10008e+06
3.10007e+06
3.10007e+06
3.10006e+06
3.10005e+06
3.10004e+06
3.10003e+06
3.10002e+06
3.12417e+06
3.12284e+06
3.12249e+06
3.11071e+06
3.08997e+06
3.0833e+06
3.08303e+06
3.08796e+06
3.0977e+06
3.10119e+06
3.10054e+06
3.10013e+06
3.10009e+06
3.1001e+06
3.10008e+06
3.10009e+06
3.10007e+06
3.10007e+06
3.10006e+06
3.10005e+06
3.10004e+06
3.10003e+06
3.10002e+06
3.1204e+06
3.12111e+06
3.12173e+06
3.10957e+06
3.08798e+06
3.08151e+06
3.08245e+06
3.08771e+06
3.09758e+06
3.10114e+06
3.10051e+06
3.1001e+06
3.10006e+06
3.10008e+06
3.10007e+06
3.10008e+06
3.10006e+06
3.10006e+06
3.10006e+06
3.10005e+06
3.10004e+06
3.10003e+06
3.10002e+06
3.12448e+06
3.1225e+06
3.12208e+06
3.11154e+06
3.09237e+06
3.08526e+06
3.08349e+06
3.08762e+06
3.09757e+06
3.10115e+06
3.1005e+06
3.10014e+06
3.10013e+06
3.10012e+06
3.1001e+06
3.1001e+06
3.10007e+06
3.10007e+06
3.10006e+06
3.10005e+06
3.10004e+06
3.10003e+06
3.10002e+06
3.11643e+06
3.11439e+06
3.11317e+06
3.11313e+06
3.11427e+06
3.10465e+06
3.08476e+06
3.08439e+06
3.09663e+06
3.10089e+06
3.10039e+06
3.10006e+06
3.10015e+06
3.10013e+06
3.10008e+06
3.10008e+06
3.10006e+06
3.10006e+06
3.10005e+06
3.10004e+06
3.10003e+06
3.10002e+06
3.10002e+06
3.12527e+06
3.11926e+06
3.11651e+06
3.11747e+06
3.1201e+06
3.11145e+06
3.09132e+06
3.08916e+06
3.09837e+06
3.10125e+06
3.10061e+06
3.10025e+06
3.10027e+06
3.10021e+06
3.10014e+06
3.10012e+06
3.10008e+06
3.10007e+06
3.10005e+06
3.10004e+06
3.10003e+06
3.10002e+06
3.10001e+06
3.11267e+06
3.11008e+06
3.11029e+06
3.11123e+06
3.11225e+06
3.1118e+06
3.111e+06
3.10766e+06
3.10134e+06
3.0996e+06
3.09998e+06
3.10003e+06
3.10015e+06
3.10011e+06
3.10011e+06
3.10011e+06
3.10007e+06
3.10006e+06
3.10004e+06
3.10003e+06
3.10002e+06
3.10001e+06
3.1e+06
3.10974e+06
3.09424e+06
3.0912e+06
3.09741e+06
3.11135e+06
3.11559e+06
3.1167e+06
3.11253e+06
3.10323e+06
3.10008e+06
3.10033e+06
3.10033e+06
3.10034e+06
3.10024e+06
3.1002e+06
3.10017e+06
3.1001e+06
3.10007e+06
3.10005e+06
3.10003e+06
3.10001e+06
3.1e+06
3.1e+06
3.08395e+06
3.08387e+06
3.08553e+06
3.09375e+06
3.10949e+06
3.114e+06
3.11427e+06
3.1103e+06
3.10226e+06
3.09946e+06
3.09992e+06
3.10006e+06
3.10017e+06
3.1001e+06
3.1001e+06
3.1001e+06
3.10005e+06
3.10004e+06
3.10002e+06
3.10001e+06
3.1e+06
3.09999e+06
3.09999e+06
3.08983e+06
3.08865e+06
3.08918e+06
3.09629e+06
3.1112e+06
3.11536e+06
3.11537e+06
3.11128e+06
3.10316e+06
3.10012e+06
3.10043e+06
3.10048e+06
3.10049e+06
3.10031e+06
3.10024e+06
3.10018e+06
3.10009e+06
3.10005e+06
3.10002e+06
3.1e+06
3.09999e+06
3.09998e+06
3.09998e+06
3.0898e+06
3.08713e+06
3.08737e+06
3.09471e+06
3.11057e+06
3.11462e+06
3.11418e+06
3.11006e+06
3.10213e+06
3.09921e+06
3.09973e+06
3.09994e+06
3.10011e+06
3.10003e+06
3.10006e+06
3.10006e+06
3.10001e+06
3.09999e+06
3.09998e+06
3.09997e+06
3.09997e+06
3.09997e+06
3.09996e+06
3.09158e+06
3.09035e+06
3.09139e+06
3.09729e+06
3.11131e+06
3.11529e+06
3.11634e+06
3.11241e+06
3.10406e+06
3.10066e+06
3.10089e+06
3.10072e+06
3.10066e+06
3.10037e+06
3.10028e+06
3.10018e+06
3.10007e+06
3.10002e+06
3.09999e+06
3.09997e+06
3.09996e+06
3.09995e+06
3.09995e+06
3.09284e+06
3.09117e+06
3.09322e+06
3.09175e+06
3.09173e+06
3.09759e+06
3.11251e+06
3.11186e+06
3.10264e+06
3.09912e+06
3.09968e+06
3.09975e+06
3.09996e+06
3.09987e+06
3.09995e+06
3.09995e+06
3.09992e+06
3.09992e+06
3.09992e+06
3.09992e+06
3.09992e+06
3.09993e+06
3.09993e+06
3.09746e+06
3.09703e+06
3.10007e+06
3.09658e+06
3.09507e+06
3.09886e+06
3.11339e+06
3.11263e+06
3.10488e+06
3.10129e+06
3.10142e+06
3.10089e+06
3.10079e+06
3.10038e+06
3.10027e+06
3.10012e+06
3.10001e+06
3.09995e+06
3.09992e+06
3.09991e+06
3.09991e+06
3.09991e+06
3.09992e+06
3.09386e+06
3.09104e+06
3.09415e+06
3.09102e+06
3.09289e+06
3.09114e+06
3.09342e+06
3.09388e+06
3.09897e+06
3.09908e+06
3.09959e+06
3.09924e+06
3.09966e+06
3.09956e+06
3.09974e+06
3.09975e+06
3.09978e+06
3.0998e+06
3.09983e+06
3.09985e+06
3.09987e+06
3.09988e+06
3.0999e+06
3.11406e+06
3.1139e+06
3.11893e+06
3.1108e+06
3.10726e+06
3.09959e+06
3.09952e+06
3.09747e+06
3.10359e+06
3.10262e+06
3.10238e+06
3.10092e+06
3.10088e+06
3.10026e+06
3.10018e+06
3.09997e+06
3.09989e+06
3.09983e+06
3.09983e+06
3.09983e+06
3.09985e+06
3.09987e+06
3.09988e+06
3.1072e+06
3.09816e+06
3.10462e+06
3.09427e+06
3.09397e+06
3.08534e+06
3.09055e+06
3.08863e+06
3.09749e+06
3.09711e+06
3.09886e+06
3.0981e+06
3.09911e+06
3.09899e+06
3.09941e+06
3.09946e+06
3.09958e+06
3.09963e+06
3.09971e+06
3.09975e+06
3.0998e+06
3.09983e+06
3.09986e+06
3.14869e+06
3.13455e+06
3.14263e+06
3.1251e+06
3.12378e+06
3.10403e+06
3.10762e+06
3.09873e+06
3.10607e+06
3.10207e+06
3.10276e+06
3.10027e+06
3.10064e+06
3.09981e+06
3.09992e+06
3.0997e+06
3.0997e+06
3.09967e+06
3.09971e+06
3.09974e+06
3.09978e+06
3.09982e+06
3.09984e+06
3.1172e+06
3.09861e+06
3.11126e+06
3.08886e+06
3.09542e+06
3.07013e+06
3.08913e+06
3.08001e+06
3.096e+06
3.0932e+06
3.09783e+06
3.09644e+06
3.09844e+06
3.09827e+06
3.09902e+06
3.09912e+06
3.09936e+06
3.09946e+06
3.09959e+06
3.09967e+06
3.09974e+06
3.09979e+06
3.09983e+06
3.21611e+06
3.19006e+06
3.20365e+06
3.16571e+06
3.16896e+06
3.09711e+06
3.11392e+06
3.091e+06
3.10546e+06
3.09787e+06
3.10144e+06
3.09832e+06
3.09974e+06
3.09894e+06
3.09943e+06
3.09932e+06
3.09946e+06
3.09949e+06
3.0996e+06
3.09966e+06
3.09973e+06
3.09978e+06
3.09982e+06
3.15595e+06
3.13373e+06
3.14001e+06
3.09081e+06
3.09684e+06
2.99625e+06
3.08388e+06
3.0632e+06
3.0946e+06
3.08871e+06
3.09709e+06
3.09519e+06
3.09807e+06
3.09787e+06
3.09883e+06
3.09896e+06
3.09925e+06
3.09937e+06
3.09953e+06
3.09962e+06
3.0997e+06
3.09976e+06
3.09981e+06
3.3726e+06
3.36041e+06
3.36775e+06
3.3555e+06
3.35828e+06
3.29145e+06
3.3553e+06
3.29715e+06
3.32808e+06
3.31819e+06
3.60245e+06
3.56786e+06
3.57679e+06
3.56914e+06
3.57339e+06
3.73615e+06
3.83994e+06
3.4527e+06
3.57697e+06
3.55912e+06
4.00066e+06
4.00065e+06
4.0008e+06
4.00125e+06
4.00177e+06
4.00161e+06
4.0016e+06
4.00166e+06
4.00179e+06
4.00194e+06
4.00187e+06
4.00186e+06
4.00189e+06
4.00193e+06
4.00204e+06
4.00202e+06
4.00195e+06
4.00194e+06
4.00201e+06
4.00772e+06
4.00206e+06
4.03502e+06
4.01796e+06
4.03284e+06
4.02311e+06
4.00223e+06
4.15585e+06
4.00364e+06
4.07702e+06
4.03948e+06
4.00203e+06
4.00215e+06
4.00203e+06
4.07706e+06
4.00207e+06
4.00201e+06
4.00203e+06
4.00202e+06
4.00205e+06
4.00203e+06
5.92793e+06
4.07243e+06
4.00201e+06
4.00213e+06
4.00206e+06
4.002e+06
4.00201e+06
4.00209e+06
4.0022e+06
4.00222e+06
4.00208e+06
4.00213e+06
5.22617e+06
4.62981e+06
4.92094e+06
4.00211e+06
4.00204e+06
4.00472e+06
4.11731e+06
4.08912e+06
4.00211e+06
4.00211e+06
5.91864e+06
5.64381e+06
5.62337e+06
4.00205e+06
4.00207e+06
1.33047e+07
4.00221e+06
4.00205e+06
4.90376e+06
4.00211e+06
4.00243e+06
4.06749e+06
4.00215e+06
4.40871e+06
4.38955e+06
4.22694e+06
4.10729e+06
4.05276e+06
4.20761e+06
4.17356e+06
4.17034e+06
4.15989e+06
4.17131e+06
4.04281e+06
4.1792e+06
4.05299e+06
4.07756e+06
4.06604e+06
4.00402e+06
4.24917e+06
4.00613e+06
4.00505e+06
4.02629e+06
3.10043e+06
3.1004e+06
3.10009e+06
3.09983e+06
3.09951e+06
3.10015e+06
3.10002e+06
3.10005e+06
3.10005e+06
3.10005e+06
3.10004e+06
3.10003e+06
3.10002e+06
3.10001e+06
3.10001e+06
3.10002e+06
3.10002e+06
3.10126e+06
3.10114e+06
3.10028e+06
3.09989e+06
3.10028e+06
3.10008e+06
3.10001e+06
3.10008e+06
3.10006e+06
3.10004e+06
3.10004e+06
3.10002e+06
3.10002e+06
3.10001e+06
3.10002e+06
3.10002e+06
3.10002e+06
3.10002e+06
3.10126e+06
3.1008e+06
3.10007e+06
3.09969e+06
3.10008e+06
3.09998e+06
3.09997e+06
3.10004e+06
3.10002e+06
3.10003e+06
3.10003e+06
3.10002e+06
3.10002e+06
3.10001e+06
3.10002e+06
3.10002e+06
3.10002e+06
3.10002e+06
3.10002e+06
3.1014e+06
3.10101e+06
3.10023e+06
3.09978e+06
3.10006e+06
3.09999e+06
3.09997e+06
3.10009e+06
3.10005e+06
3.10005e+06
3.10005e+06
3.10004e+06
3.10003e+06
3.10002e+06
3.10002e+06
3.10002e+06
3.10002e+06
3.10002e+06
3.10002e+06
3.10124e+06
3.10087e+06
3.10002e+06
3.09976e+06
3.10023e+06
3.10006e+06
3.09999e+06
3.10003e+06
3.10001e+06
3.10003e+06
3.10002e+06
3.10002e+06
3.10003e+06
3.10002e+06
3.10002e+06
3.10002e+06
3.10003e+06
3.10002e+06
3.10002e+06
3.10194e+06
3.101e+06
3.10011e+06
3.10008e+06
3.09987e+06
3.09968e+06
3.10007e+06
3.1e+06
3.09998e+06
3.10007e+06
3.10003e+06
3.10003e+06
3.10003e+06
3.10002e+06
3.10003e+06
3.10003e+06
3.10003e+06
3.10002e+06
3.10002e+06
3.10458e+06
3.10261e+06
3.10115e+06
3.1008e+06
3.10016e+06
3.09993e+06
3.1003e+06
3.10012e+06
3.10002e+06
3.10005e+06
3.10001e+06
3.10002e+06
3.10002e+06
3.10002e+06
3.10003e+06
3.10003e+06
3.10003e+06
3.10003e+06
3.10002e+06
3.09709e+06
3.0973e+06
3.09791e+06
3.09897e+06
3.09951e+06
3.09999e+06
3.09989e+06
3.09972e+06
3.10007e+06
3.10005e+06
3.09999e+06
3.10005e+06
3.10002e+06
3.10003e+06
3.10003e+06
3.10003e+06
3.10003e+06
3.10003e+06
3.10002e+06
3.09426e+06
3.08763e+06
3.08546e+06
3.09e+06
3.09808e+06
3.10063e+06
3.10017e+06
3.09986e+06
3.10013e+06
3.10004e+06
3.09998e+06
3.10005e+06
3.10002e+06
3.10003e+06
3.10004e+06
3.10003e+06
3.10004e+06
3.10003e+06
3.10002e+06
3.07757e+06
3.08042e+06
3.0819e+06
3.08825e+06
3.09755e+06
3.10053e+06
3.10012e+06
3.09981e+06
3.10011e+06
3.10003e+06
3.09999e+06
3.10006e+06
3.10001e+06
3.10002e+06
3.10004e+06
3.10004e+06
3.10004e+06
3.10003e+06
3.10003e+06
3.08024e+06
3.0823e+06
3.08318e+06
3.08893e+06
3.0977e+06
3.10056e+06
3.10012e+06
3.09981e+06
3.10012e+06
3.10003e+06
3.09999e+06
3.10008e+06
3.10002e+06
3.10003e+06
3.10005e+06
3.10004e+06
3.10005e+06
3.10004e+06
3.10003e+06
3.08231e+06
3.08324e+06
3.08364e+06
3.08947e+06
3.09863e+06
3.10135e+06
3.10031e+06
3.09985e+06
3.10012e+06
3.10004e+06
3.09997e+06
3.10007e+06
3.10003e+06
3.10004e+06
3.10004e+06
3.10003e+06
3.10004e+06
3.10004e+06
3.10003e+06
3.10003e+06
3.10002e+06
3.10001e+06
3.10001e+06
3.08089e+06
3.08282e+06
3.08361e+06
3.08866e+06
3.09669e+06
3.09974e+06
3.0999e+06
3.09999e+06
3.10019e+06
3.10008e+06
3.10002e+06
3.10011e+06
3.10006e+06
3.10006e+06
3.10005e+06
3.10004e+06
3.10005e+06
3.10004e+06
3.10003e+06
3.10003e+06
3.10002e+06
3.10001e+06
3.10001e+06
3.0828e+06
3.08532e+06
3.08725e+06
3.08762e+06
3.08736e+06
3.09151e+06
3.09917e+06
3.10122e+06
3.10041e+06
3.10006e+06
3.10002e+06
3.10012e+06
3.10005e+06
3.10006e+06
3.10006e+06
3.10004e+06
3.10005e+06
3.10005e+06
3.10004e+06
3.10003e+06
3.10002e+06
3.10001e+06
3.10001e+06
3.07509e+06
3.08049e+06
3.08416e+06
3.08457e+06
3.08473e+06
3.08854e+06
3.09633e+06
3.09924e+06
3.09972e+06
3.09993e+06
3.09994e+06
3.10005e+06
3.10003e+06
3.10006e+06
3.10006e+06
3.10004e+06
3.10006e+06
3.10005e+06
3.10004e+06
3.10003e+06
3.10002e+06
3.10002e+06
3.10001e+06
3.09202e+06
3.09256e+06
3.09203e+06
3.08988e+06
3.08891e+06
3.08826e+06
3.08808e+06
3.09145e+06
3.09829e+06
3.10055e+06
3.10006e+06
3.09998e+06
3.1e+06
3.10006e+06
3.10006e+06
3.10004e+06
3.10006e+06
3.10005e+06
3.10004e+06
3.10003e+06
3.10003e+06
3.10002e+06
3.10001e+06
3.09855e+06
3.11735e+06
3.12452e+06
3.11315e+06
3.09227e+06
3.0858e+06
3.08566e+06
3.08951e+06
3.09765e+06
3.10047e+06
3.1e+06
3.09991e+06
3.09997e+06
3.10005e+06
3.10005e+06
3.10004e+06
3.10006e+06
3.10005e+06
3.10004e+06
3.10003e+06
3.10003e+06
3.10002e+06
3.10001e+06
3.13833e+06
3.13276e+06
3.13211e+06
3.11719e+06
3.09352e+06
3.08619e+06
3.08647e+06
3.0902e+06
3.0978e+06
3.10051e+06
3.1e+06
3.09988e+06
3.09995e+06
3.10004e+06
3.10005e+06
3.10004e+06
3.10006e+06
3.10005e+06
3.10004e+06
3.10003e+06
3.10003e+06
3.10002e+06
3.10001e+06
3.13274e+06
3.12844e+06
3.12944e+06
3.11569e+06
3.09343e+06
3.0862e+06
3.08662e+06
3.09027e+06
3.09785e+06
3.10059e+06
3.10007e+06
3.09989e+06
3.09994e+06
3.10004e+06
3.10004e+06
3.10003e+06
3.10006e+06
3.10005e+06
3.10004e+06
3.10003e+06
3.10003e+06
3.10002e+06
3.10001e+06
3.12804e+06
3.12631e+06
3.12826e+06
3.11437e+06
3.0912e+06
3.08428e+06
3.08611e+06
3.09004e+06
3.09779e+06
3.10055e+06
3.10006e+06
3.09987e+06
3.09992e+06
3.10002e+06
3.10004e+06
3.10003e+06
3.10005e+06
3.10005e+06
3.10004e+06
3.10003e+06
3.10003e+06
3.10002e+06
3.10001e+06
3.13199e+06
3.12777e+06
3.1287e+06
3.11632e+06
3.09579e+06
3.08819e+06
3.08717e+06
3.08992e+06
3.09774e+06
3.10045e+06
3.09995e+06
3.09982e+06
3.09992e+06
3.10002e+06
3.10003e+06
3.10003e+06
3.10005e+06
3.10005e+06
3.10004e+06
3.10003e+06
3.10003e+06
3.10002e+06
3.10001e+06
3.12446e+06
3.12071e+06
3.11909e+06
3.11813e+06
3.12021e+06
3.10992e+06
3.08852e+06
3.08631e+06
3.09684e+06
3.10015e+06
3.09987e+06
3.09978e+06
3.09995e+06
3.10004e+06
3.10004e+06
3.10003e+06
3.10005e+06
3.10005e+06
3.10004e+06
3.10003e+06
3.10003e+06
3.10002e+06
3.10001e+06
3.13635e+06
3.12771e+06
3.12372e+06
3.12324e+06
3.12624e+06
3.11683e+06
3.09518e+06
3.09114e+06
3.09846e+06
3.10033e+06
3.09996e+06
3.09984e+06
3.09997e+06
3.10005e+06
3.10004e+06
3.10004e+06
3.10005e+06
3.10005e+06
3.10004e+06
3.10003e+06
3.10003e+06
3.10002e+06
3.10001e+06
3.11503e+06
3.11287e+06
3.11343e+06
3.11541e+06
3.11729e+06
3.11733e+06
3.1174e+06
3.11202e+06
3.10184e+06
3.09869e+06
3.09951e+06
3.09974e+06
3.09995e+06
3.10003e+06
3.10005e+06
3.10005e+06
3.10006e+06
3.10005e+06
3.10004e+06
3.10004e+06
3.10003e+06
3.10002e+06
3.10002e+06
3.1074e+06
3.08563e+06
3.07852e+06
3.09081e+06
3.11393e+06
3.12139e+06
3.12284e+06
3.11658e+06
3.1033e+06
3.09884e+06
3.09962e+06
3.09983e+06
3.09998e+06
3.10005e+06
3.10006e+06
3.10006e+06
3.10006e+06
3.10005e+06
3.10005e+06
3.10004e+06
3.10003e+06
3.10002e+06
3.10002e+06
3.06315e+06
3.06811e+06
3.06971e+06
3.08606e+06
3.11219e+06
3.12048e+06
3.12088e+06
3.11482e+06
3.10283e+06
3.09864e+06
3.09959e+06
3.09984e+06
3.10001e+06
3.10006e+06
3.10007e+06
3.10006e+06
3.10006e+06
3.10005e+06
3.10005e+06
3.10004e+06
3.10003e+06
3.10002e+06
3.10002e+06
3.06992e+06
3.0731e+06
3.07268e+06
3.08755e+06
3.11229e+06
3.12044e+06
3.12066e+06
3.11473e+06
3.10278e+06
3.09854e+06
3.0995e+06
3.09982e+06
3.10002e+06
3.10006e+06
3.10007e+06
3.10006e+06
3.10006e+06
3.10006e+06
3.10005e+06
3.10004e+06
3.10003e+06
3.10002e+06
3.10002e+06
3.07491e+06
3.0753e+06
3.07381e+06
3.08893e+06
3.11472e+06
3.12255e+06
3.12127e+06
3.11498e+06
3.10282e+06
3.09855e+06
3.09949e+06
3.09983e+06
3.10002e+06
3.10006e+06
3.10007e+06
3.10007e+06
3.10007e+06
3.10006e+06
3.10005e+06
3.10004e+06
3.10003e+06
3.10003e+06
3.10002e+06
3.07025e+06
3.07366e+06
3.07345e+06
3.08679e+06
3.10968e+06
3.11825e+06
3.12019e+06
3.1152e+06
3.10298e+06
3.0987e+06
3.09961e+06
3.09986e+06
3.10001e+06
3.10006e+06
3.10006e+06
3.10007e+06
3.10006e+06
3.10006e+06
3.10005e+06
3.10004e+06
3.10003e+06
3.10003e+06
3.10002e+06
3.0796e+06
3.0824e+06
3.08433e+06
3.08471e+06
3.08272e+06
3.09432e+06
3.11864e+06
3.1193e+06
3.10417e+06
3.09912e+06
3.09971e+06
3.09986e+06
3.09998e+06
3.10005e+06
3.10006e+06
3.10007e+06
3.10006e+06
3.10006e+06
3.10005e+06
3.10004e+06
3.10004e+06
3.10003e+06
3.10002e+06
3.06813e+06
3.07615e+06
3.08018e+06
3.07977e+06
3.07613e+06
3.08662e+06
3.11122e+06
3.11393e+06
3.10244e+06
3.09902e+06
3.09971e+06
3.09986e+06
3.09999e+06
3.10006e+06
3.10006e+06
3.10007e+06
3.10006e+06
3.10006e+06
3.10005e+06
3.10004e+06
3.10004e+06
3.10003e+06
3.10002e+06
3.08675e+06
3.08903e+06
3.08919e+06
3.08733e+06
3.08576e+06
3.08593e+06
3.08657e+06
3.09079e+06
3.09858e+06
3.10087e+06
3.10035e+06
3.10008e+06
3.10005e+06
3.10008e+06
3.10007e+06
3.10008e+06
3.10007e+06
3.10006e+06
3.10005e+06
3.10004e+06
3.10004e+06
3.10003e+06
3.10002e+06
3.09352e+06
3.11228e+06
3.11744e+06
3.10777e+06
3.08833e+06
3.08206e+06
3.08056e+06
3.08575e+06
3.09701e+06
3.10082e+06
3.10035e+06
3.10009e+06
3.10008e+06
3.10009e+06
3.10007e+06
3.10008e+06
3.10007e+06
3.10007e+06
3.10006e+06
3.10005e+06
3.10004e+06
3.10003e+06
3.10002e+06
3.12963e+06
3.12668e+06
3.12478e+06
3.11161e+06
3.08988e+06
3.08301e+06
3.08264e+06
3.08769e+06
3.09753e+06
3.101e+06
3.10037e+06
3.10006e+06
3.10005e+06
3.10008e+06
3.10007e+06
3.10008e+06
3.10007e+06
3.10007e+06
3.10006e+06
3.10005e+06
3.10004e+06
3.10003e+06
3.10002e+06
3.12417e+06
3.12284e+06
3.12249e+06
3.11071e+06
3.08997e+06
3.0833e+06
3.08303e+06
3.08796e+06
3.0977e+06
3.10119e+06
3.10054e+06
3.10013e+06
3.10009e+06
3.1001e+06
3.10008e+06
3.10009e+06
3.10007e+06
3.10007e+06
3.10006e+06
3.10005e+06
3.10004e+06
3.10003e+06
3.10002e+06
3.1204e+06
3.12111e+06
3.12173e+06
3.10957e+06
3.08798e+06
3.08151e+06
3.08245e+06
3.08771e+06
3.09758e+06
3.10114e+06
3.10051e+06
3.1001e+06
3.10006e+06
3.10008e+06
3.10007e+06
3.10008e+06
3.10006e+06
3.10006e+06
3.10006e+06
3.10005e+06
3.10004e+06
3.10003e+06
3.10002e+06
3.12448e+06
3.1225e+06
3.12208e+06
3.11154e+06
3.09237e+06
3.08526e+06
3.08349e+06
3.08762e+06
3.09757e+06
3.10115e+06
3.10051e+06
3.10014e+06
3.10013e+06
3.10012e+06
3.1001e+06
3.1001e+06
3.10007e+06
3.10007e+06
3.10006e+06
3.10005e+06
3.10004e+06
3.10003e+06
3.10002e+06
3.11643e+06
3.11439e+06
3.11317e+06
3.11313e+06
3.11427e+06
3.10464e+06
3.08476e+06
3.08439e+06
3.09662e+06
3.10089e+06
3.10039e+06
3.10006e+06
3.10015e+06
3.10013e+06
3.10008e+06
3.10008e+06
3.10006e+06
3.10006e+06
3.10005e+06
3.10004e+06
3.10003e+06
3.10002e+06
3.10002e+06
3.12527e+06
3.11926e+06
3.11651e+06
3.11747e+06
3.1201e+06
3.11144e+06
3.09132e+06
3.08916e+06
3.09837e+06
3.10125e+06
3.10061e+06
3.10025e+06
3.10027e+06
3.10021e+06
3.10014e+06
3.10012e+06
3.10008e+06
3.10007e+06
3.10005e+06
3.10004e+06
3.10003e+06
3.10002e+06
3.10001e+06
3.11267e+06
3.11008e+06
3.11029e+06
3.11123e+06
3.11225e+06
3.1118e+06
3.111e+06
3.10765e+06
3.10134e+06
3.0996e+06
3.09998e+06
3.10003e+06
3.10015e+06
3.10011e+06
3.10011e+06
3.10011e+06
3.10007e+06
3.10006e+06
3.10004e+06
3.10003e+06
3.10002e+06
3.10001e+06
3.1e+06
3.10974e+06
3.09424e+06
3.0912e+06
3.09741e+06
3.11135e+06
3.11559e+06
3.1167e+06
3.11253e+06
3.10323e+06
3.10008e+06
3.10033e+06
3.10033e+06
3.10034e+06
3.10024e+06
3.1002e+06
3.10017e+06
3.1001e+06
3.10007e+06
3.10005e+06
3.10003e+06
3.10001e+06
3.1e+06
3.1e+06
3.08395e+06
3.08387e+06
3.08553e+06
3.09375e+06
3.10949e+06
3.114e+06
3.11427e+06
3.1103e+06
3.10226e+06
3.09946e+06
3.09992e+06
3.10006e+06
3.10017e+06
3.1001e+06
3.1001e+06
3.1001e+06
3.10005e+06
3.10004e+06
3.10002e+06
3.10001e+06
3.1e+06
3.09999e+06
3.09999e+06
3.08983e+06
3.08865e+06
3.08918e+06
3.09629e+06
3.1112e+06
3.11536e+06
3.11537e+06
3.11128e+06
3.10316e+06
3.10012e+06
3.10043e+06
3.10048e+06
3.10049e+06
3.10031e+06
3.10024e+06
3.10018e+06
3.10009e+06
3.10005e+06
3.10002e+06
3.1e+06
3.09999e+06
3.09998e+06
3.09998e+06
3.0898e+06
3.08713e+06
3.08737e+06
3.09471e+06
3.11057e+06
3.11462e+06
3.11418e+06
3.11006e+06
3.10213e+06
3.09921e+06
3.09973e+06
3.09994e+06
3.10011e+06
3.10003e+06
3.10006e+06
3.10006e+06
3.10001e+06
3.09999e+06
3.09998e+06
3.09997e+06
3.09997e+06
3.09997e+06
3.09996e+06
3.09158e+06
3.09035e+06
3.09139e+06
3.09729e+06
3.11131e+06
3.11529e+06
3.11634e+06
3.11241e+06
3.10406e+06
3.10066e+06
3.10089e+06
3.10072e+06
3.10066e+06
3.10037e+06
3.10028e+06
3.10018e+06
3.10007e+06
3.10002e+06
3.09999e+06
3.09997e+06
3.09996e+06
3.09995e+06
3.09995e+06
3.09284e+06
3.09117e+06
3.09322e+06
3.09175e+06
3.09173e+06
3.09759e+06
3.11251e+06
3.11186e+06
3.10264e+06
3.09912e+06
3.09968e+06
3.09975e+06
3.09996e+06
3.09987e+06
3.09995e+06
3.09995e+06
3.09992e+06
3.09992e+06
3.09992e+06
3.09992e+06
3.09992e+06
3.09993e+06
3.09993e+06
3.09746e+06
3.09703e+06
3.10007e+06
3.09658e+06
3.09507e+06
3.09885e+06
3.11339e+06
3.11263e+06
3.10488e+06
3.10129e+06
3.10142e+06
3.10089e+06
3.10079e+06
3.10038e+06
3.10027e+06
3.10012e+06
3.10001e+06
3.09995e+06
3.09992e+06
3.09991e+06
3.09991e+06
3.09991e+06
3.09992e+06
3.09386e+06
3.09104e+06
3.09415e+06
3.09102e+06
3.09289e+06
3.09114e+06
3.09342e+06
3.09388e+06
3.09897e+06
3.09908e+06
3.09959e+06
3.09924e+06
3.09966e+06
3.09956e+06
3.09974e+06
3.09975e+06
3.09978e+06
3.0998e+06
3.09983e+06
3.09985e+06
3.09987e+06
3.09988e+06
3.0999e+06
3.11406e+06
3.1139e+06
3.11893e+06
3.1108e+06
3.10726e+06
3.09959e+06
3.09952e+06
3.09747e+06
3.10359e+06
3.10262e+06
3.10238e+06
3.10092e+06
3.10088e+06
3.10026e+06
3.10018e+06
3.09997e+06
3.09989e+06
3.09983e+06
3.09983e+06
3.09983e+06
3.09985e+06
3.09987e+06
3.09988e+06
3.1072e+06
3.09816e+06
3.10462e+06
3.09427e+06
3.09397e+06
3.08534e+06
3.09056e+06
3.08863e+06
3.09749e+06
3.09711e+06
3.09886e+06
3.0981e+06
3.09911e+06
3.09899e+06
3.09941e+06
3.09946e+06
3.09958e+06
3.09963e+06
3.09971e+06
3.09975e+06
3.0998e+06
3.09983e+06
3.09986e+06
3.14869e+06
3.13455e+06
3.14263e+06
3.1251e+06
3.12378e+06
3.10403e+06
3.10762e+06
3.09873e+06
3.10607e+06
3.10207e+06
3.10276e+06
3.10027e+06
3.10064e+06
3.09981e+06
3.09992e+06
3.0997e+06
3.0997e+06
3.09967e+06
3.09971e+06
3.09974e+06
3.09978e+06
3.09982e+06
3.09984e+06
3.1172e+06
3.09861e+06
3.11126e+06
3.08886e+06
3.09542e+06
3.07013e+06
3.08913e+06
3.08001e+06
3.096e+06
3.0932e+06
3.09783e+06
3.09644e+06
3.09844e+06