/*--------------------------------*- C++ -*----------------------------------*\
| =========                 |                                                 |
| \\      /  F ield         | OpenFOAM: The Open Source CFD Toolbox           |
|  \\    /   O peration     | Version:  v2012                                 |
|   \\  /    A nd           | Website:  www.openfoam.com                      |
|    \\/     M anipulation  |                                                 |
\*---------------------------------------------------------------------------*/
FoamFile
{
    version     2.0;
    format      ascii;
    class       volVectorField;
    location    "0.65";
    object      U;
}
// * * * * * * * * * * * * * * * * * * * * * * * * * * * * * * * * * * * * * //

dimensions      [0 1 -1 0 0 0 0];


internalField   nonuniform List<vector> 
2619
(
(9.99974e-05 -0.00782213 -8.50074e-07)
(0.000196469 -0.00790018 -1.70335e-06)
(0.000236001 -0.00797495 -2.05524e-06)
(0.00035635 -0.00800185 -3.10939e-06)
(0.000423856 -0.00804087 -3.69385e-06)
(0.000489894 -0.00805559 -4.27313e-06)
(0.000584549 -0.00806172 -5.10089e-06)
(0.000665119 -0.00805638 -5.80223e-06)
(0.000748435 -0.00803414 -6.53052e-06)
(0.00083954 -0.00800376 -7.32478e-06)
(0.000924808 -0.007958 -8.07076e-06)
(0.00101181 -0.0079066 -8.82833e-06)
(0.00109549 -0.0078359 -9.55926e-06)
(0.00118644 -0.00776221 -1.03538e-05)
(0.00126877 -0.00766958 -1.10722e-05)
(0.00135063 -0.00756782 -1.17867e-05)
(4.70353e-05 -0.00796552 -4.06168e-07)
(0.000123784 -0.00809513 -1.07359e-06)
(0.000183143 -0.00817186 -1.59378e-06)
(0.000286787 -0.00825865 -2.49976e-06)
(0.000357523 -0.00826809 -3.11533e-06)
(0.000429074 -0.0083294 -3.74135e-06)
(0.000542399 -0.00832495 -4.73073e-06)
(0.000620723 -0.00832942 -5.41549e-06)
(0.000717207 -0.00832045 -6.25879e-06)
(0.000806817 -0.00829325 -7.03933e-06)
(0.000900259 -0.00826173 -7.8556e-06)
(0.000990984 -0.00820987 -8.64714e-06)
(0.00108511 -0.00815469 -9.46923e-06)
(0.00117129 -0.00807315 -1.02212e-05)
(0.00126017 -0.00799386 -1.09966e-05)
(0.00135155 -0.00789015 -1.17949e-05)
(0.00143406 -0.00777962 -1.2515e-05)
(0.00151921 -0.00765242 -1.32583e-05)
(5.25746e-05 -0.00825527 -4.5808e-07)
(0.000126936 -0.00837801 -1.10635e-06)
(0.000204453 -0.00846694 -1.78237e-06)
(0.000296835 -0.0085305 -2.58851e-06)
(0.000394689 -0.00857312 -3.44186e-06)
(0.000459492 -0.0086012 -4.00864e-06)
(0.000575334 -0.00860437 -5.02034e-06)
(0.000651041 -0.00860807 -5.68091e-06)
(0.000758453 -0.00858848 -6.61802e-06)
(0.000850668 -0.00856177 -7.4231e-06)
(0.000953979 -0.00852066 -8.32405e-06)
(0.00104967 -0.00846731 -9.15934e-06)
(0.00115167 -0.00840237 -1.00501e-05)
(0.00124413 -0.00832108 -1.08566e-05)
(0.00133917 -0.00822949 -1.16865e-05)
(0.00143659 -0.00812077 -1.25373e-05)
(0.00152295 -0.00800046 -1.32911e-05)
(0.00161272 -0.0078644 -1.40745e-05)
(0.00169325 -0.00771533 -1.47776e-05)
(5.39101e-05 -0.00855949 -4.70097e-07)
(0.000139807 -0.00868594 -1.21997e-06)
(0.000212342 -0.00876927 -1.85292e-06)
(0.000319739 -0.00883782 -2.79036e-06)
(0.000413446 -0.00886402 -3.60699e-06)
(0.000497547 -0.00889644 -4.34063e-06)
(0.000624054 -0.00889972 -5.44606e-06)
(0.000703074 -0.00890027 -6.13574e-06)
(0.000819182 -0.00887971 -7.14818e-06)
(0.000914526 -0.00885062 -7.98028e-06)
(0.00102136 -0.00880496 -8.91246e-06)
(0.00112139 -0.00874546 -9.78555e-06)
(0.00122866 -0.00867283 -1.07218e-05)
(0.00132595 -0.00858416 -1.15707e-05)
(0.00142471 -0.00848313 -1.2433e-05)
(0.00152727 -0.00836577 -1.33287e-05)
(0.00161779 -0.00823489 -1.41188e-05)
(0.00171191 -0.00808825 -1.49402e-05)
(0.00179602 -0.00792757 -1.56746e-05)
(5.79955e-05 -0.00888813 -5.05819e-07)
(0.000149058 -0.00901193 -1.3009e-06)
(0.000227082 -0.00910528 -1.98146e-06)
(0.000346206 -0.00916093 -3.02172e-06)
(0.000444599 -0.00920667 -3.88052e-06)
(0.000518739 -0.00924285 -4.52649e-06)
(0.000645819 -0.00922037 -5.63482e-06)
(0.000737675 -0.00924292 -6.43756e-06)
(0.000859106 -0.00919278 -7.49717e-06)
(0.000963033 -0.00916644 -8.40379e-06)
(0.00108331 -0.00910766 -9.45352e-06)
(0.00119092 -0.00904147 -1.03928e-05)
(0.00130636 -0.00895964 -1.14003e-05)
(0.00141067 -0.00886363 -1.23104e-05)
(0.00151625 -0.00875251 -1.3232e-05)
(0.00162478 -0.00862543 -1.41797e-05)
(0.00172015 -0.00848309 -1.50122e-05)
(0.00181868 -0.00832476 -1.58721e-05)
(0.00190613 -0.00815128 -1.66356e-05)
(6.2829e-05 -0.00923681 -5.48041e-07)
(0.000157264 -0.00936317 -1.3725e-06)
(0.000248694 -0.00945213 -2.17022e-06)
(0.000372787 -0.00951001 -3.25334e-06)
(0.000449912 -0.00954715 -3.92722e-06)
(0.000601765 -0.00957967 -5.25269e-06)
(0.000712344 -0.00954427 -6.21759e-06)
(0.000796379 -0.00956397 -6.95104e-06)
(0.000960085 -0.00951503 -8.37879e-06)
(0.00103424 -0.00948841 -9.02665e-06)
(0.00117185 -0.00942275 -1.02264e-05)
(0.00127527 -0.00935265 -1.11292e-05)
(0.00139574 -0.00926263 -1.21806e-05)
(0.0015043 -0.00915813 -1.31278e-05)
(0.00161537 -0.00903672 -1.40971e-05)
(0.00172913 -0.00889904 -1.50905e-05)
(0.0018296 -0.00874478 -1.59676e-05)
(0.00193256 -0.00857388 -1.68661e-05)
(0.00202372 -0.00838685 -1.7662e-05)
(6.54624e-05 -0.00961152 -5.71102e-07)
(0.000169396 -0.0097362 -1.47847e-06)
(0.000258979 -0.00981891 -2.26e-06)
(0.000404356 -0.00987246 -3.52882e-06)
(0.00048252 -0.00991519 -4.2134e-06)
(0.000636637 -0.00992178 -5.55828e-06)
(0.000740744 -0.0099405 -6.46355e-06)
(0.000819807 -0.00994185 -7.15273e-06)
(0.000986472 -0.00986124 -8.60818e-06)
(0.0010818 -0.00985647 -9.44198e-06)
(0.00123784 -0.00976295 -1.08021e-05)
(0.00134996 -0.00969137 -1.17817e-05)
(0.00148407 -0.00958871 -1.2952e-05)
(0.00160115 -0.00947408 -1.39732e-05)
(0.00172031 -0.00934014 -1.50133e-05)
(0.00184061 -0.00919009 -1.60636e-05)
(0.00194682 -0.00902233 -1.69907e-05)
(0.00205459 -0.00883726 -1.79312e-05)
(0.00214953 -0.00863522 -1.876e-05)
(7.17084e-05 -0.0100136 -6.25583e-07)
(0.000183075 -0.0101439 -1.59778e-06)
(0.000284835 -0.0102284 -2.48575e-06)
(0.000406247 -0.0103125 -3.54508e-06)
(0.000505862 -0.0103126 -4.41571e-06)
(0.000668313 -0.0103314 -5.83295e-06)
(0.000757953 -0.0103429 -6.6138e-06)
(0.000961729 -0.0103345 -8.3972e-06)
(0.00110338 -0.0102445 -9.63149e-06)
(0.00115825 -0.0102303 -1.01071e-05)
(0.0013637 -0.0101275 -1.19015e-05)
(0.00144502 -0.0100463 -1.26122e-05)
(0.00159372 -0.00993263 -1.39086e-05)
(0.00171196 -0.00980699 -1.49406e-05)
(0.00183733 -0.00966071 -1.60346e-05)
(0.00196197 -0.0094977 -1.71229e-05)
(0.00207361 -0.00931547 -1.80972e-05)
(0.00218578 -0.00911506 -1.90762e-05)
(0.00228441 -0.00889674 -1.99372e-05)
(7.07382e-05 -0.0104454 -6.17573e-07)
(0.000195665 -0.0105743 -1.7081e-06)
(0.000275298 -0.010655 -2.40128e-06)
(0.000494471 -0.0107401 -4.31543e-06)
(0.000610663 -0.0107204 -5.32676e-06)
(0.000703483 -0.010747 -6.14045e-06)
(0.000810692 -0.0107358 -7.0744e-06)
(0.00100779 -0.0107103 -8.79647e-06)
(0.00114753 -0.0106591 -1.00163e-05)
(0.00122163 -0.0106061 -1.06605e-05)
(0.00144405 -0.0105176 -1.26023e-05)
(0.00153509 -0.0104222 -1.33988e-05)
(0.00169765 -0.0102989 -1.48159e-05)
(0.00182449 -0.0101611 -1.59228e-05)
(0.00195865 -0.0100014 -1.70936e-05)
(0.00209065 -0.00982423 -1.82459e-05)
(0.00220898 -0.00962582 -1.92788e-05)
(0.00232625 -0.00940851 -2.03023e-05)
(0.0024288 -0.00917224 -2.11975e-05)
(7.95904e-05 -0.0109056 -6.94958e-07)
(0.00021907 -0.0110306 -1.91177e-06)
(0.000298246 -0.0111129 -2.60163e-06)
(0.000515511 -0.0111684 -4.49895e-06)
(0.000632261 -0.0111983 -5.51501e-06)
(0.000743301 -0.0112135 -6.48781e-06)
(0.00086476 -0.0112009 -7.54579e-06)
(0.00110282 -0.0111712 -9.62631e-06)
(0.00124922 -0.0111039 -1.0904e-05)
(0.0013224 -0.0110378 -1.15405e-05)
(0.00155536 -0.0109372 -1.3574e-05)
(0.00164921 -0.0108284 -1.43948e-05)
(0.00182114 -0.0106918 -1.58936e-05)
(0.00195224 -0.0105397 -1.7038e-05)
(0.00209306 -0.0103638 -1.82668e-05)
(0.00223095 -0.0101698 -1.94705e-05)
(0.00235591 -0.00995394 -2.05612e-05)
(0.00247765 -0.00971782 -2.16237e-05)
(0.00258417 -0.00946205 -2.25536e-05)
(8.59836e-05 -0.0114023 -7.50876e-07)
(0.000232554 -0.0115306 -2.02952e-06)
(0.000317195 -0.0116128 -2.76727e-06)
(0.000545462 -0.0116719 -4.76041e-06)
(0.000680117 -0.0116891 -5.93296e-06)
(0.000796994 -0.0116974 -6.95641e-06)
(0.00093482 -0.011664 -8.15757e-06)
(0.00117399 -0.0116277 -1.02478e-05)
(0.00132902 -0.0115597 -1.16007e-05)
(0.00141156 -0.0114854 -1.23188e-05)
(0.00165884 -0.0113781 -1.44771e-05)
(0.0017619 -0.0112569 -1.53785e-05)
(0.00194607 -0.0111087 -1.6984e-05)
(0.0020868 -0.0109417 -1.82125e-05)
(0.00223692 -0.0107464 -1.95225e-05)
(0.00238132 -0.0105332 -2.0783e-05)
(0.00251306 -0.0102994 -2.19329e-05)
(0.00264011 -0.010043 -2.30418e-05)
(0.00275029 -0.00976658 -2.40036e-05)
(9.08402e-05 -0.0119377 -7.9322e-07)
(0.000251478 -0.012064 -2.19468e-06)
(0.000341849 -0.0121457 -2.98256e-06)
(0.000589683 -0.0121881 -5.14654e-06)
(0.000726081 -0.0121967 -6.333e-06)
(0.000871611 -0.0121975 -7.60725e-06)
(0.00101445 -0.0121729 -8.85249e-06)
(0.00126337 -0.012146 -1.10273e-05)
(0.00142711 -0.0120704 -1.24573e-05)
(0.00152006 -0.011979 -1.32655e-05)
(0.00178089 -0.0118563 -1.55423e-05)
(0.00189265 -0.01172 -1.65196e-05)
(0.00208652 -0.0115554 -1.82098e-05)
(0.0022391 -0.0113708 -1.95418e-05)
(0.00239813 -0.0111567 -2.09297e-05)
(0.00254399 -0.0109224 -2.22025e-05)
(0.00268135 -0.0106669 -2.34015e-05)
(0.00281401 -0.0103873 -2.45596e-05)
(0.00292857 -0.0100866 -2.55596e-05)
(0.00303331 -0.0097645 -2.6474e-05)
(0.00312016 -0.00942406 -2.72323e-05)
(0.0031908 -0.00906592 -2.7849e-05)
(0.00324389 -0.00869251 -2.83126e-05)
(0.000101278 -0.012513 -8.84284e-07)
(0.000268791 -0.0126417 -2.34575e-06)
(0.000386586 -0.0127231 -3.37296e-06)
(0.000639286 -0.0127539 -5.57842e-06)
(0.000787832 -0.0128129 -6.87122e-06)
(0.000894102 -0.0128458 -7.80233e-06)
(0.00104678 -0.0127023 -9.13571e-06)
(0.00132181 -0.0126928 -1.15375e-05)
(0.00153635 -0.0125965 -1.34101e-05)
(0.00164491 -0.0124891 -1.43539e-05)
(0.00191196 -0.0123583 -1.66855e-05)
(0.00203101 -0.0122086 -1.77271e-05)
(0.00223716 -0.0120283 -1.95241e-05)
(0.00239946 -0.0118237 -2.09412e-05)
(0.00256912 -0.0115933 -2.2422e-05)
(0.00272194 -0.0113366 -2.37557e-05)
(0.00286569 -0.0110569 -2.50105e-05)
(0.00300399 -0.0107519 -2.62178e-05)
(0.00312158 -0.0104245 -2.72443e-05)
(0.00322745 -0.0100757 -2.81684e-05)
(0.00331429 -0.00970789 -2.89267e-05)
(0.00338383 -0.00932176 -2.95339e-05)
(0.00343394 -0.00892054 -2.99714e-05)
(0.000106324 -0.0131362 -9.28397e-07)
(0.000291271 -0.0132635 -2.54229e-06)
(0.000427036 -0.0133381 -3.72632e-06)
(0.000636195 -0.0133617 -5.55222e-06)
(0.000722474 -0.0134213 -6.30482e-06)
(0.00113376 -0.0134246 -9.89334e-06)
(0.0013004 -0.0132562 -1.13411e-05)
(0.00139989 -0.0132235 -1.22216e-05)
(0.00166842 -0.0131393 -1.45625e-05)
(0.00177086 -0.0130406 -1.54476e-05)
(0.00204299 -0.0129079 -1.78292e-05)
(0.00217972 -0.0127369 -1.90253e-05)
(0.00240158 -0.0125367 -2.09592e-05)
(0.00257401 -0.0123097 -2.24643e-05)
(0.00275293 -0.0120566 -2.40264e-05)
(0.00291441 -0.0117745 -2.54354e-05)
(0.00306424 -0.0114684 -2.67433e-05)
(0.00320805 -0.0111357 -2.79988e-05)
(0.00332894 -0.0107798 -2.90541e-05)
(0.00343635 -0.0104014 -2.99917e-05)
(0.00352293 -0.0100034 -3.07477e-05)
(0.00359037 -0.00958703 -3.13365e-05)
(0.0036365 -0.00915558 -3.17395e-05)
(0.000118236 -0.0138079 -1.03224e-06)
(0.000317068 -0.0139388 -2.76733e-06)
(0.000485671 -0.0140299 -4.23792e-06)
(0.00069418 -0.0140748 -6.0571e-06)
(0.000801868 -0.0140626 -6.99805e-06)
(0.00122265 -0.0139848 -1.06665e-05)
(0.00135636 -0.0140444 -1.18281e-05)
(0.00143219 -0.0140208 -1.2503e-05)
(0.00170844 -0.0137282 -1.49141e-05)
(0.0018593 -0.0136616 -1.62216e-05)
(0.00218451 -0.0134994 -1.90642e-05)
(0.0023512 -0.0132956 -2.05202e-05)
(0.0025828 -0.0130762 -2.25404e-05)
(0.00276496 -0.0128261 -2.41309e-05)
(0.00295523 -0.0125478 -2.57917e-05)
(0.00312484 -0.0122376 -2.72719e-05)
(0.00328071 -0.0119027 -2.86326e-05)
(0.00342966 -0.0115395 -2.9933e-05)
(0.0035528 -0.0111522 -3.10079e-05)
(0.00366071 -0.0107416 -3.19499e-05)
(0.00374601 -0.0103107 -3.26948e-05)
(0.00381049 -0.00986148 -3.32578e-05)
(0.00385165 -0.00939739 -3.36173e-05)
(0.000126459 -0.0145347 -1.10417e-06)
(0.000335216 -0.0146522 -2.9258e-06)
(0.000519143 -0.0147325 -4.52996e-06)
(0.000800318 -0.0146853 -6.98476e-06)
(0.000981494 -0.0148446 -8.56648e-06)
(0.00123976 -0.014678 -1.08198e-05)
(0.00125914 -0.014755 -1.09928e-05)
(0.00184944 -0.0146874 -1.61391e-05)
(0.0021257 -0.0143912 -1.8536e-05)
(0.00195885 -0.0143035 -1.70943e-05)
(0.00237882 -0.0141267 -2.07628e-05)
(0.00254585 -0.0138991 -2.22137e-05)
(0.00277418 -0.013656 -2.42101e-05)
(0.00297047 -0.0133782 -2.59247e-05)
(0.00317304 -0.0130711 -2.76927e-05)
(0.00335183 -0.01273 -2.92527e-05)
(0.00351343 -0.0123627 -3.06636e-05)
(0.00366778 -0.0119658 -3.20112e-05)
(0.00379337 -0.0115438 -3.31075e-05)
(0.00390195 -0.0110977 -3.40554e-05)
(0.00398541 -0.0106307 -3.47842e-05)
(0.00404571 -0.0101456 -3.53107e-05)
(0.00408059 -0.00964605 -3.56154e-05)
(0.000146371 -0.0153193 -1.2769e-06)
(0.000378571 -0.0154422 -3.3043e-06)
(0.000615261 -0.0155119 -5.37237e-06)
(0.000717185 -0.0154566 -6.26393e-06)
(0.000797514 -0.0156018 -6.96351e-06)
(0.00149852 -0.01545 -1.30758e-05)
(0.00133062 -0.015388 -1.16135e-05)
(0.00194313 -0.0152549 -1.69572e-05)
(0.00217979 -0.0151408 -1.90097e-05)
(0.00207479 -0.0149843 -1.81086e-05)
(0.00254771 -0.0147944 -2.22368e-05)
(0.00275246 -0.0145517 -2.40146e-05)
(0.00299109 -0.0142787 -2.61031e-05)
(0.00319929 -0.0139697 -2.7922e-05)
(0.00341297 -0.0136294 -2.97864e-05)
(0.00360042 -0.0132543 -3.14222e-05)
(0.00376788 -0.0128501 -3.28843e-05)
(0.00392675 -0.0124156 -3.42712e-05)
(0.0040537 -0.0119546 -3.53795e-05)
(0.00416156 -0.0114692 -3.63211e-05)
(0.00424177 -0.0109628 -3.70216e-05)
(0.0042966 -0.0104387 -3.75005e-05)
(0.00432373 -0.00990085 -3.77376e-05)
(0.00014692 -0.0161773 -1.28193e-06)
(0.000385845 -0.0163115 -3.36815e-06)
(0.000676978 -0.0163862 -5.91092e-06)
(0.000837023 -0.0164217 -7.31029e-06)
(0.000965903 -0.0163882 -8.43273e-06)
(0.00164592 -0.0163275 -1.43614e-05)
(0.00146612 -0.0162431 -1.27953e-05)
(0.00210728 -0.0161176 -1.83922e-05)
(0.00235441 -0.0159534 -2.05331e-05)
(0.00225914 -0.0157507 -1.97162e-05)
(0.00274564 -0.015522 -2.3965e-05)
(0.00297052 -0.0152494 -2.59184e-05)
(0.00322541 -0.0149446 -2.81482e-05)
(0.00344844 -0.014601 -3.00964e-05)
(0.00367346 -0.0142241 -3.20599e-05)
(0.00387043 -0.0138106 -3.37787e-05)
(0.00404386 -0.0133657 -3.52929e-05)
(0.00420689 -0.0128896 -3.67162e-05)
(0.00433475 -0.0123859 -3.78325e-05)
(0.00444087 -0.0118573 -3.87589e-05)
(0.00451666 -0.0113076 -3.94208e-05)
(0.00456443 -0.0107408 -3.98381e-05)
(0.00458211 -0.0101613 -3.99928e-05)
(0.000160923 -0.017109 -1.40407e-06)
(0.000425899 -0.0172306 -3.71754e-06)
(0.000744373 -0.0172887 -6.49884e-06)
(0.000911997 -0.0173018 -7.96398e-06)
(0.00104745 -0.017267 -9.14604e-06)
(0.00176413 -0.0171939 -1.5394e-05)
(0.00159806 -0.0171193 -1.39477e-05)
(0.00228717 -0.0169661 -1.99607e-05)
(0.00255394 -0.0167938 -2.22738e-05)
(0.00248192 -0.0165591 -2.16595e-05)
(0.00297996 -0.0163039 -2.60101e-05)
(0.00322457 -0.0159973 -2.81354e-05)
(0.00348937 -0.0156571 -3.04516e-05)
(0.0037249 -0.0152753 -3.2509e-05)
(0.00396046 -0.0148576 -3.45646e-05)
(0.00416639 -0.0144014 -3.63616e-05)
(0.00434514 -0.0139111 -3.79222e-05)
(0.00451107 -0.0133885 -3.9371e-05)
(0.00463875 -0.0128376 -4.04857e-05)
(0.00474191 -0.0122614 -4.13864e-05)
(0.00481149 -0.0116644 -4.19942e-05)
(0.00485032 -0.0110511 -4.23334e-05)
(0.00485647 -0.0104264 -4.23874e-05)
(0.000176526 -0.0181253 -1.54043e-06)
(0.00046704 -0.0182444 -4.07697e-06)
(0.000803655 -0.0183103 -7.01615e-06)
(0.00100482 -0.0183452 -8.77406e-06)
(0.00117209 -0.018335 -1.02333e-05)
(0.00185965 -0.0182706 -1.62281e-05)
(0.00171935 -0.0181259 -1.5008e-05)
(0.00246674 -0.0179151 -2.15298e-05)
(0.00275056 -0.0177077 -2.39881e-05)
(0.00271056 -0.017444 -2.36557e-05)
(0.00322124 -0.0171564 -2.81158e-05)
(0.00349146 -0.0168094 -3.04647e-05)
(0.00377343 -0.0164293 -3.29309e-05)
(0.00402494 -0.016001 -3.51278e-05)
(0.00427262 -0.0155351 -3.7289e-05)
(0.00448866 -0.01503 -3.91743e-05)
(0.00467317 -0.0144885 -4.07852e-05)
(0.00484108 -0.0139141 -4.22512e-05)
(0.00496737 -0.0133106 -4.33539e-05)
(0.00506582 -0.0126818 -4.42134e-05)
(0.00512743 -0.0120328 -4.47516e-05)
(0.00515522 -0.0113688 -4.49946e-05)
(0.00514761 -0.0106952 -4.49286e-05)
(0.000193576 -0.0192319 -1.68937e-06)
(0.000503819 -0.0193463 -4.39766e-06)
(0.000851835 -0.0193868 -7.43611e-06)
(0.00105649 -0.0194593 -9.22493e-06)
(0.00129495 -0.0192413 -1.13091e-05)
(0.00214787 -0.0190318 -1.87457e-05)
(0.00209076 -0.0192087 -1.82442e-05)
(0.00278437 -0.0188256 -2.42993e-05)
(0.00301585 -0.0186736 -2.63062e-05)
(0.00298451 -0.0183701 -2.60495e-05)
(0.00351391 -0.0180652 -3.06713e-05)
(0.00380728 -0.0176685 -3.32212e-05)
(0.00409914 -0.0172512 -3.57742e-05)
(0.00436698 -0.016775 -3.8113e-05)
(0.00462149 -0.0162558 -4.03338e-05)
(0.00484417 -0.0156969 -4.22769e-05)
(0.00503236 -0.0150985 -4.39201e-05)
(0.00520029 -0.0144667 -4.53864e-05)
(0.0053235 -0.0138048 -4.64621e-05)
(0.00541527 -0.0131181 -4.72635e-05)
(0.00546646 -0.0124122 -4.77108e-05)
(0.00548057 -0.0116928 -4.78343e-05)
(0.00545637 -0.0109662 -4.76236e-05)
(0.000212352 -0.0204485 -1.85309e-06)
(0.000565306 -0.0205604 -4.93429e-06)
(0.00087708 -0.0205982 -7.65627e-06)
(0.00131023 -0.0206705 -1.14377e-05)
(0.00181543 -0.0204393 -1.58435e-05)
(0.00177866 -0.0202709 -1.55279e-05)
(0.00177478 -0.020508 -1.55082e-05)
(0.00308631 -0.020124 -2.69295e-05)
(0.00311193 -0.0198669 -2.71401e-05)
(0.00323658 -0.0194422 -2.82556e-05)
(0.00379152 -0.0190632 -3.30911e-05)
(0.00413361 -0.0186103 -3.60684e-05)
(0.00443389 -0.0181399 -3.86955e-05)
(0.0047325 -0.0176054 -4.1303e-05)
(0.00500018 -0.017027 -4.36391e-05)
(0.00523091 -0.0164063 -4.56525e-05)
(0.00542382 -0.0157438 -4.73369e-05)
(0.00559059 -0.0150475 -4.87929e-05)
(0.00570899 -0.0143207 -4.98267e-05)
(0.00579146 -0.01357 -5.05469e-05)
(0.00582962 -0.0128014 -5.08806e-05)
(0.00582716 -0.0120218 -5.08596e-05)
(0.00578332 -0.011238 -5.04775e-05)
(0.000232511 -0.0217779 -2.02905e-06)
(0.000609559 -0.0218793 -5.32023e-06)
(0.000931648 -0.0219025 -8.13214e-06)
(0.00137975 -0.0218902 -1.20445e-05)
(0.00192791 -0.0218079 -1.6825e-05)
(0.00196976 -0.0218633 -1.71993e-05)
(0.00216372 -0.0212814 -1.89065e-05)
(0.00365281 -0.02085 -3.18738e-05)
(0.00375002 -0.0211373 -3.27033e-05)
(0.00377792 -0.0204662 -3.29745e-05)
(0.00421732 -0.0200974 -3.68073e-05)
(0.00453559 -0.0196032 -3.95799e-05)
(0.00483778 -0.0190879 -4.22213e-05)
(0.00515195 -0.0184879 -4.49642e-05)
(0.00542342 -0.0178481 -4.73334e-05)
(0.00566002 -0.0171587 -4.93977e-05)
(0.00585397 -0.0164251 -5.10913e-05)
(0.00601664 -0.0156568 -5.25115e-05)
(0.00612738 -0.0148578 -5.34786e-05)
(0.00619747 -0.0140363 -5.40908e-05)
(0.00621916 -0.0131993 -5.42807e-05)
(0.00619646 -0.0123541 -5.4083e-05)
(0.00612922 -0.0115085 -5.34967e-05)
(0.00025788 -0.0232485 -2.2504e-06)
(0.000685151 -0.0233637 -5.97975e-06)
(0.00103597 -0.0233739 -9.04069e-06)
(0.00151092 -0.0234382 -1.3187e-05)
(0.00191511 -0.0230961 -1.67156e-05)
(0.00245039 -0.0231922 -2.13862e-05)
(0.00306129 -0.0225799 -2.67075e-05)
(0.00295938 -0.0221595 -2.58384e-05)
(0.00319216 -0.0223991 -2.78837e-05)
(0.0043 -0.0216863 -3.75237e-05)
(0.00444496 -0.0212551 -3.87853e-05)
(0.00489454 -0.0206992 -4.27202e-05)
(0.00523506 -0.0201138 -4.56867e-05)
(0.00559551 -0.0194414 -4.88348e-05)
(0.00587656 -0.0187251 -5.12883e-05)
(0.00612682 -0.0179569 -5.34721e-05)
(0.00632315 -0.0171429 -5.51864e-05)
(0.0064806 -0.0162941 -5.65612e-05)
(0.00658081 -0.0154153 -5.74363e-05)
(0.0066346 -0.0145159 -5.79062e-05)
(0.00663589 -0.0136039 -5.79181e-05)
(0.00658897 -0.0126876 -5.75092e-05)
(0.00649427 -0.0117754 -5.66832e-05)
(0.000271421 -0.0248639 -2.36819e-06)
(0.00074634 -0.0249653 -6.51454e-06)
(0.00107283 -0.0249827 -9.37012e-06)
(0.00184075 -0.0250308 -1.60675e-05)
(0.00237643 -0.0247245 -2.07205e-05)
(0.00245341 -0.0246847 -2.14138e-05)
(0.00338115 -0.0244412 -2.9513e-05)
(0.00348718 -0.024134 -3.04445e-05)
(0.00388853 -0.0236885 -3.39563e-05)
(0.00491233 -0.0231239 -4.2861e-05)
(0.00496283 -0.0225484 -4.33048e-05)
(0.00538771 -0.0219086 -4.70279e-05)
(0.00573487 -0.0212239 -5.00494e-05)
(0.00610915 -0.0204687 -5.33178e-05)
(0.00639362 -0.0196603 -5.58016e-05)
(0.00664647 -0.0188016 -5.80076e-05)
(0.0068393 -0.0178975 -5.96916e-05)
(0.00698667 -0.0169586 -6.09783e-05)
(0.00707228 -0.0159918 -6.17261e-05)
(0.00710568 -0.0150067 -6.20181e-05)
(0.00708199 -0.0140127 -6.18121e-05)
(0.00700592 -0.0130192 -6.11487e-05)
(0.0068789 -0.0120356 -6.00407e-05)
(0.000317565 -0.0266664 -2.77132e-06)
(0.000851705 -0.0267358 -7.43276e-06)
(0.00118625 -0.0267311 -1.03572e-05)
(0.00197138 -0.0266373 -1.72065e-05)
(0.00251441 -0.0264876 -2.19272e-05)
(0.00271764 -0.0262624 -2.37209e-05)
(0.00372594 -0.0259118 -3.25199e-05)
(0.00378676 -0.0255065 -3.30558e-05)
(0.00423422 -0.0250766 -3.69732e-05)
(0.00536258 -0.0245206 -4.6792e-05)
(0.00544766 -0.0238967 -4.75342e-05)
(0.00590799 -0.0231846 -5.1568e-05)
(0.00627098 -0.0224102 -5.47282e-05)
(0.00666762 -0.021563 -5.81922e-05)
(0.00696013 -0.0206555 -6.07461e-05)
(0.00721528 -0.0196965 -6.29725e-05)
(0.00740287 -0.018691 -6.46106e-05)
(0.0075373 -0.0176515 -6.57845e-05)
(0.00760378 -0.0165861 -6.63653e-05)
(0.00761204 -0.0155063 -6.6438e-05)
(0.00755795 -0.0144226 -6.59666e-05)
(0.00744742 -0.0133456 -6.50025e-05)
(0.00728262 -0.0122855 -6.35648e-05)
(0.000354687 -0.028642 -3.09522e-06)
(0.000938029 -0.0287136 -8.18604e-06)
(0.00132122 -0.0287124 -1.15347e-05)
(0.00218164 -0.0286048 -1.90419e-05)
(0.0028041 -0.0284209 -2.44553e-05)
(0.00305373 -0.0281481 -2.66519e-05)
(0.00412735 -0.0277434 -3.60209e-05)
(0.00421121 -0.0272941 -3.67602e-05)
(0.00470517 -0.0267444 -4.10852e-05)
(0.00587892 -0.02612 -5.13005e-05)
(0.00600777 -0.0253905 -5.24227e-05)
(0.00649653 -0.0245871 -5.6705e-05)
(0.00688486 -0.0236992 -6.00866e-05)
(0.0072965 -0.0227424 -6.36811e-05)
(0.00759364 -0.0217197 -6.62756e-05)
(0.00784536 -0.0206452 -6.8472e-05)
(0.00802309 -0.0195242 -7.00242e-05)
(0.00813871 -0.0183713 -7.10339e-05)
(0.00818033 -0.017196 -7.13979e-05)
(0.00815664 -0.0160117 -7.11917e-05)
(0.00806572 -0.0148302 -7.03989e-05)
(0.00791403 -0.013663 -6.90756e-05)
(0.0077052 -0.0125212 -6.72536e-05)
(0.000399027 -0.0308756 -3.48198e-06)
(0.00103421 -0.0309325 -9.02511e-06)
(0.00148935 -0.0308997 -1.30022e-05)
(0.00240827 -0.0307183 -2.10188e-05)
(0.00308782 -0.030459 -2.69297e-05)
(0.00345902 -0.0300975 -3.01915e-05)
(0.00459169 -0.029688 -4.00733e-05)
(0.0046913 -0.0291925 -4.09481e-05)
(0.00524521 -0.0285619 -4.58008e-05)
(0.00646901 -0.0278345 -5.645e-05)
(0.00664739 -0.0269946 -5.80058e-05)
(0.0071628 -0.0260844 -6.25204e-05)
(0.00757504 -0.0250731 -6.61107e-05)
(0.00799684 -0.0239977 -6.97936e-05)
(0.00829691 -0.022847 -7.24138e-05)
(0.00854168 -0.0216439 -7.45498e-05)
(0.00870377 -0.0203935 -7.59655e-05)
(0.00879464 -0.0191145 -7.67593e-05)
(0.00880393 -0.0178177 -7.68411e-05)
(0.00874089 -0.0165188 -7.62915e-05)
(0.00860529 -0.0152308 -7.51088e-05)
(0.00840522 -0.0139667 -7.33634e-05)
(0.00814523 -0.0127382 -7.10949e-05)
(0.000452069 -0.0333333 -3.94484e-06)
(0.00116467 -0.0333748 -1.01642e-05)
(0.00171522 -0.0333449 -1.49735e-05)
(0.00274283 -0.0330709 -2.39376e-05)
(0.00344508 -0.0329855 -3.00426e-05)
(0.00375745 -0.0327003 -3.27922e-05)
(0.00489301 -0.0318401 -4.27118e-05)
(0.00515566 -0.0314154 -4.50034e-05)
(0.00584341 -0.0306002 -5.10173e-05)
(0.00713527 -0.0297708 -6.22617e-05)
(0.00734939 -0.0287694 -6.41301e-05)
(0.00789405 -0.0277446 -6.89023e-05)
(0.00833609 -0.0265734 -7.27523e-05)
(0.00876614 -0.0253554 -7.65085e-05)
(0.00907385 -0.0240499 -7.9195e-05)
(0.00930759 -0.0226971 -8.12351e-05)
(0.00945 -0.0212989 -8.2479e-05)
(0.00950835 -0.0198779 -8.2989e-05)
(0.00947775 -0.0184465 -8.27228e-05)
(0.00936645 -0.0170218 -8.1752e-05)
(0.00917768 -0.0156185 -8.01054e-05)
(0.00892041 -0.0142506 -7.78607e-05)
(0.00860138 -0.0129306 -7.50769e-05)
(0.000513984 -0.0361498 -4.4851e-06)
(0.00127819 -0.0361685 -1.11545e-05)
(0.00199763 -0.0361193 -1.74335e-05)
(0.00287981 -0.0357694 -2.51334e-05)
(0.00342104 -0.0356361 -2.98685e-05)
(0.00481825 -0.035189 -4.20479e-05)
(0.00602584 -0.0341503 -5.255e-05)
(0.00569566 -0.0335762 -4.97279e-05)
(0.00670366 -0.0327115 -5.85323e-05)
(0.00795807 -0.0318303 -6.94347e-05)
(0.00820832 -0.0307083 -7.16352e-05)
(0.0087521 -0.0295307 -7.63909e-05)
(0.00923511 -0.0281903 -8.05994e-05)
(0.00964972 -0.0268047 -8.42209e-05)
(0.00995458 -0.0253248 -8.68821e-05)
(0.0101621 -0.0238023 -8.8693e-05)
(0.0102721 -0.0222376 -8.96544e-05)
(0.0102863 -0.0206578 -8.97796e-05)
(0.0102041 -0.0190769 -8.90626e-05)
(0.0100342 -0.0175145 -8.75807e-05)
(0.00978156 -0.0159865 -8.53767e-05)
(0.00945756 -0.014508 -8.25497e-05)
(0.00907047 -0.0130921 -7.91719e-05)
(0.000593276 -0.0392442 -5.17697e-06)
(0.00145109 -0.0392435 -1.2664e-05)
(0.0023156 -0.039155 -2.02103e-05)
(0.00333273 -0.0388246 -2.90882e-05)
(0.00397351 -0.0384384 -3.46835e-05)
(0.00542967 -0.0376278 -4.73771e-05)
(0.00655068 -0.0373666 -5.71236e-05)
(0.00615313 -0.0366835 -5.37182e-05)
(0.00717885 -0.0350227 -6.26924e-05)
(0.00862766 -0.0341956 -7.52849e-05)
(0.00906843 -0.032867 -7.91399e-05)
(0.00969356 -0.0314856 -8.46039e-05)
(0.0102089 -0.0299302 -8.90961e-05)
(0.0106215 -0.0283531 -9.27021e-05)
(0.0109234 -0.02667 -9.53377e-05)
(0.0111002 -0.0249552 -9.68817e-05)
(0.0111716 -0.0232026 -9.75055e-05)
(0.0111309 -0.0214458 -9.71523e-05)
(0.0109858 -0.0197004 -9.58865e-05)
(0.0107446 -0.0179882 -9.37818e-05)
(0.0104164 -0.0163265 -9.09187e-05)
(0.0100143 -0.0147314 -8.74094e-05)
(0.00954935 -0.013216 -8.33524e-05)
(0.000672623 -0.0428656 -5.86953e-06)
(0.0016188 -0.0428135 -1.41277e-05)
(0.00260605 -0.0427227 -2.2748e-05)
(0.00373704 -0.0422218 -3.26188e-05)
(0.00468278 -0.041978 -4.08587e-05)
(0.00575035 -0.0409957 -5.01871e-05)
(0.00656434 -0.0405749 -5.73193e-05)
(0.00806314 -0.0396761 -7.03639e-05)
(0.00908473 -0.0378242 -7.9244e-05)
(0.00943699 -0.0367808 -8.23645e-05)
(0.0102788 -0.0352359 -8.97142e-05)
(0.0108695 -0.0336199 -9.48581e-05)
(0.011376 -0.0318311 -9.92904e-05)
(0.0117378 -0.0300149 -0.000102445)
(0.0120225 -0.0280992 -0.000104931)
(0.0121442 -0.0261586 -0.000105995)
(0.0121597 -0.0241923 -0.00010613)
(0.012047 -0.0222362 -0.000105148)
(0.0118227 -0.0203088 -0.000103191)
(0.0114956 -0.0184338 -0.000100338)
(0.0110781 -0.0166293 -9.66952e-05)
(0.0105859 -0.0149119 -9.24e-05)
(0.0100326 -0.0132942 -8.7571e-05)
(0.000809047 -0.0468277 -7.06058e-06)
(0.00183118 -0.0467401 -1.59795e-05)
(0.00310644 -0.0465697 -2.71039e-05)
(0.00411836 -0.0459806 -3.59347e-05)
(0.00524447 -0.0455634 -4.57945e-05)
(0.00678856 -0.0445548 -5.92471e-05)
(0.00754168 -0.0435256 -6.58249e-05)
(0.00892587 -0.0422625 -7.78935e-05)
(0.00990329 -0.0409096 -8.64008e-05)
(0.0104441 -0.0394119 -9.11613e-05)
(0.0114638 -0.0377004 -0.000100056)
(0.012131 -0.0358376 -0.000105865)
(0.0126496 -0.0338262 -0.000110404)
(0.012989 -0.0317406 -0.000113365)
(0.0132394 -0.0295757 -0.000115552)
(0.013299 -0.0273844 -0.000116075)
(0.013241 -0.025184 -0.000115569)
(0.0130388 -0.02301 -0.000113806)
(0.0127173 -0.0208858 -0.000111)
(0.0122866 -0.0188366 -0.000107243)
(0.011764 -0.0168818 -0.000102682)
(0.0111675 -0.0150381 -9.7477e-05)
(0.0105143 -0.0133172 -9.17762e-05)
(0.000907131 -0.0515814 -7.91625e-06)
(0.00206848 -0.0514963 -1.80522e-05)
(0.00353066 -0.0512496 -3.08093e-05)
(0.00473204 -0.0506802 -4.1292e-05)
(0.00604928 -0.0499647 -5.28174e-05)
(0.00767399 -0.0489056 -6.69729e-05)
(0.00854223 -0.0477433 -7.45578e-05)
(0.0101455 -0.046262 -8.85413e-05)
(0.0112266 -0.0445478 -9.79494e-05)
(0.0117832 -0.0426522 -0.000102847)
(0.012852 -0.0405895 -0.000112176)
(0.013551 -0.0383808 -0.00011826)
(0.0140775 -0.0360397 -0.000122868)
(0.0143834 -0.0336215 -0.000125536)
(0.0145823 -0.0311451 -0.000127274)
(0.0145628 -0.0286563 -0.000127106)
(0.0144106 -0.0261837 -0.000125778)
(0.0140995 -0.0237635 -0.000123064)
(0.0136608 -0.0214222 -0.000119237)
(0.0131087 -0.0191852 -0.000114419)
(0.0124644 -0.0170723 -0.000108797)
(0.0117499 -0.015099 -0.000102561)
(0.0109851 -0.0132754 -9.58868e-05)
(0.00106522 -0.0567678 -9.29595e-06)
(0.00241156 -0.0566035 -2.10467e-05)
(0.00413009 -0.0562504 -3.60411e-05)
(0.00552473 -0.0555357 -4.821e-05)
(0.00704146 -0.0546576 -6.14747e-05)
(0.00886898 -0.053387 -7.7404e-05)
(0.00989695 -0.0519919 -8.63845e-05)
(0.0116736 -0.0501988 -0.000101878)
(0.0128627 -0.0482431 -0.000112227)
(0.0134866 -0.0459883 -0.000117713)
(0.0145772 -0.0435972 -0.000127234)
(0.0152768 -0.0410102 -0.000133323)
(0.0157643 -0.0383194 -0.000137591)
(0.0160041 -0.0355395 -0.000139683)
(0.0161119 -0.0327259 -0.000140625)
(0.0159792 -0.0299146 -0.000139469)
(0.015697 -0.0271472 -0.000137007)
(0.0152443 -0.0244626 -0.000133058)
(0.0146598 -0.0218905 -0.000127957)
(0.0139611 -0.0194577 -0.00012186)
(0.0131743 -0.0171832 -0.000114994)
(0.0123247 -0.0150811 -0.000107579)
(0.0114357 -0.0131585 -9.98207e-05)
(0.00122296 -0.0631852 -1.06726e-05)
(0.00278723 -0.0629852 -2.43253e-05)
(0.00473104 -0.0625389 -4.12858e-05)
(0.00635341 -0.0616998 -5.54442e-05)
(0.00810791 -0.0606119 -7.07855e-05)
(0.0100821 -0.0590747 -8.79883e-05)
(0.0113064 -0.0572806 -9.86842e-05)
(0.0132681 -0.0550626 -0.000115799)
(0.0145707 -0.0526653 -0.000127132)
(0.015291 -0.0499536 -0.000133462)
(0.0164073 -0.0470922 -0.000143207)
(0.0171312 -0.0440157 -0.000149508)
(0.0175759 -0.0408602 -0.000153403)
(0.0177505 -0.0376219 -0.000154926)
(0.0177515 -0.0343882 -0.000154936)
(0.0174912 -0.0311918 -0.000152667)
(0.0170578 -0.0280833 -0.000148885)
(0.0164414 -0.0251021 -0.000143508)
(0.015688 -0.0222793 -0.000136933)
(0.0148217 -0.0196398 -0.000129373)
(0.0138744 -0.0172006 -0.000121106)
(0.0128754 -0.0149718 -0.000112388)
(0.0118515 -0.0129564 -0.000103451)
(0.0014521 -0.0701325 -1.26724e-05)
(0.00331099 -0.0698223 -2.88963e-05)
(0.00558827 -0.0692053 -4.87685e-05)
(0.00751419 -0.0681957 -6.55779e-05)
(0.00961924 -0.0666754 -8.39786e-05)
(0.0119795 -0.0646919 -0.000104553)
(0.0134822 -0.0628317 -0.000117668)