/*--------------------------------*- C++ -*----------------------------------*\
| =========                 |                                                 |
| \\      /  F ield         | OpenFOAM: The Open Source CFD Toolbox           |
|  \\    /   O peration     | Version:  v2012                                 |
|   \\  /    A nd           | Website:  www.openfoam.com                      |
|    \\/     M anipulation  |                                                 |
\*---------------------------------------------------------------------------*/
FoamFile
{
    version     2.0;
    format      ascii;
    class       surfaceScalarField;
    location    "0.1";
    object      alphaPhi0.water;
}
// * * * * * * * * * * * * * * * * * * * * * * * * * * * * * * * * * * * * * //

dimensions      [0 3 -1 0 0 0 0];
oriented        oriented;


internalField   nonuniform List<scalar> 
8135
(
-4.78843e-13
-9.81274e-12
-1.15557e-19
-1.24221e-26
-4.82257e-12
-1.31659e-19
-7.93443e-51
8.31071e-25
-1.2665e-33
-2.47217e-66
1.50705e-46
-1.61463e-48
-3.44411e-86
1.26895e-63
-5.06514e-69
-8.01044e-122
1.018e-83
-8.0116e-102
2.82285e-128
3.11955e-119
-1.04257e-122
2.09515e-133
-1.37335e-125
6.41225e-142
1.3492e-168
-1.23931e-130
2.46543e-146
3.2509e-170
-9.56053e-166
1.95706e-173
-2.62943e-172
-2.73899e-167
1.35438e-175
-2.36944e-169
2.62791e-169
-1.55323e-179
-2.56863e-166
2.81204e-166
-3.21137e-177
-3.33184e-163
3.63753e-163
1.69855e-174
-5.1338e-160
5.67913e-160
1.56932e-170
-8.55347e-157
1.06715e-156
4.97259e-167
-1.81506e-154
2.7922e-153
1.43972e-163
-1.83932e-152
4.7041e-152
5.46024e-161
-6.07598e-147
6.07254e-147
8.52133e-156
-2.17001e-138
2.17001e-138
1.72805e-150
4.21898e-134
5.11494e-144
-4.84786e-13
-8.95917e-12
-1.01415e-19
-9.45566e-21
-4.08773e-12
-1.13229e-19
-1.54155e-47
2.3474e-19
-1.33357e-27
-6.69458e-65
1.22017e-45
-2.3851e-50
-1.7221e-87
8.64926e-63
-1.063e-65
-1.33128e-122
1.53985e-83
-1.98835e-85
3.41739e-126
3.22291e-119
-8.13572e-124
6.49382e-131
-5.53709e-124
-6.39286e-134
-8.93644e-163
-1.27859e-128
1.28795e-143
-2.00217e-160
2.10736e-160
-7.62823e-170
-5.27137e-158
5.61312e-158
-1.37493e-167
-1.58346e-155
1.75406e-155
-1.93535e-165
-6.59174e-153
7.51028e-153
7.51356e-164
-3.81255e-150
3.80604e-150
1.46889e-160
-5.45141e-146
5.45103e-146
4.77946e-156
-1.00889e-141
1.00883e-141
1.32926e-151
-2.48275e-137
2.48265e-137
4.38906e-147
-8.67747e-133
8.67722e-133
1.95005e-142
-8.99783e-128
8.99376e-128
2.26096e-137
-5.53147e-123
9.7499e-123
3.00624e-132
3.60397e-119
2.26549e-128
-4.76295e-13
-8.16416e-12
-9.35908e-20
-3.88578e-19
-3.45037e-12
-9.15875e-20
-4.10967e-44
6.70076e-18
-5.07205e-26
-3.81282e-63
1.87676e-42
-7.33703e-45
-1.60688e-81
2.86358e-61
-5.72549e-67
-2.08535e-101
9.63989e-80
-2.89664e-87
-1.24567e-119
3.25565e-99
-3.49706e-102
5.59183e-129
7.86504e-116
-6.18966e-118
-8.22479e-156
-6.59849e-127
2.76037e-142
-5.37809e-156
1.20966e-153
-2.9668e-156
-8.29953e-154
9.33513e-154
-2.75859e-163
-1.94229e-151
1.93764e-151
-1.42953e-161
-7.85169e-148
7.84984e-148
1.58093e-158
-5.61639e-144
5.61561e-144
3.10728e-154
-4.91403e-140
4.91348e-140
5.98347e-150
-5.4538e-136
5.45332e-136
9.86591e-146
-8.05067e-132
8.05016e-132
1.95098e-141
-1.68805e-127
1.68799e-127
5.23441e-137
-1.049e-122
1.04857e-122
3.58903e-132
-4.03394e-118
6.77498e-118
2.86583e-127
1.50779e-114
1.29708e-123
-5.20834e-13
-7.37398e-12
-8.66861e-20
-6.89172e-18
-2.93084e-12
-8.2684e-20
-2.63547e-43
8.88514e-17
-7.6764e-25
-2.45445e-62
8.96085e-42
-4.51978e-47
-2.48463e-83
1.35376e-60
-1.41441e-63
-4.71846e-95
9.63859e-80
-2.96583e-85
-3.1469e-117
2.63316e-93
-2.31022e-102
2.69885e-127
2.9782e-115
-8.48667e-123
-1.16233e-154
-2.27114e-125
-1.28929e-138
-1.19726e-152
1.4872e-152
-9.65056e-158
-2.36308e-150
2.35223e-150
-3.90537e-160
-8.43793e-147
8.43579e-147
-5.31729e-157
-3.62785e-143
3.6271e-143
1.03537e-153
-1.85171e-139
1.85141e-139
9.74903e-150
-1.15605e-135
1.15593e-135
1.41717e-145
-9.15684e-132
9.1564e-132
1.67971e-141
-9.64882e-128
9.649e-128
2.39416e-137
-1.4442e-123
1.4443e-123
4.66174e-133
-6.40147e-119
6.4e-119
2.22741e-128
-1.79965e-114
2.93755e-114
1.28279e-123
4.67788e-111
4.19152e-120
-5.59021e-13
-6.60694e-12
-8.05232e-20
-7.29608e-17
-2.50332e-12
-7.52814e-20
-4.70871e-38
7.34411e-16
-7.02206e-24
-2.3943e-54
8.45893e-37
-4.8301e-39
-3.40598e-76
5.68956e-53
-6.78444e-63
-8.13645e-97
1.14558e-74
-8.29701e-78
-6.38544e-117
2.63321e-93
-4.29392e-101
8.98017e-126
4.05758e-115
-4.35126e-120
-1.11383e-151
-5.86486e-124
-3.83816e-140
-2.39113e-148
2.39017e-148
-5.09273e-156
-2.14088e-146
2.11723e-146
-3.02721e-156
-6.10885e-143
6.10771e-143
-3.39498e-153
-2.03929e-139
2.03912e-139
5.44824e-150
-8.08261e-136
8.08283e-136
2.20304e-146
-3.91863e-132
3.91916e-132
3.49416e-142
-2.41077e-128
2.41139e-128
3.37843e-138
-1.97349e-124
1.97429e-124
3.87368e-134
-2.29506e-120
2.29637e-120
6.11549e-130
-7.89935e-116
7.90276e-116
2.15573e-125
-1.75257e-111
2.8086e-111
9.86988e-121
3.47629e-108
2.48254e-117
-5.96805e-13
-5.8657e-12
-7.45655e-20
-5.14482e-16
-2.15071e-12
-7.01459e-20
-6.99992e-38
4.14558e-15
-4.41048e-23
-2.46035e-56
9.6698e-37
-5.05386e-40
-1.88997e-77
5.68712e-53
-8.26248e-61
-3.38665e-92
1.1711e-74
-1.07501e-79
-1.24948e-115
9.86818e-91
-4.21292e-100
2.27451e-124
5.4924e-114
-6.93161e-122
-3.80888e-146
-1.21196e-122
-4.55728e-138
-1.07773e-146
2.41574e-144
-8.85496e-154
-5.00741e-143
5.0088e-143
-5.67372e-153
-1.17892e-139
1.17911e-139
-5.35928e-150
-3.21221e-136
3.21327e-136
6.83244e-147
-1.03939e-132
1.03994e-132
-8.69635e-144
-4.11531e-129
4.1184e-129
1.57881e-139
-2.0681e-125
2.0702e-125
1.47373e-135
-1.38316e-121
1.38498e-121
1.5184e-131
-1.31421e-117
1.31642e-117
2.1859e-127
-3.69386e-113
3.7004e-113
5.33456e-123
-6.76987e-109
1.07188e-108
2.12877e-118
1.08214e-105
4.06106e-115
-6.32668e-13
-5.15035e-12
-6.82168e-20
-2.54089e-15
-1.85924e-12
-6.58638e-20
-9.98679e-38
1.64913e-14
-1.97428e-22
-3.18812e-52
1.25626e-36
-3.97414e-40
-3.24253e-68
5.41409e-51
-8.30935e-63
-9.49995e-93
5.54941e-67
-9.44515e-78
-3.45258e-117
1.40576e-90
-4.95369e-102
4.6461e-123
8.33663e-114
-1.63157e-116
-5.5183e-144
-2.0875e-121
-1.92336e-134
1.18044e-143
2.79106e-142
-8.56281e-152
-4.80728e-140
4.81424e-140
-4.17385e-150
-9.54757e-137
9.55529e-137
-3.4629e-147
-2.19573e-133
2.19815e-133
3.52052e-144
-5.99797e-130
6.00657e-130
-2.62574e-140
-2.00521e-126
2.00884e-126
-2.58533e-137
-8.51022e-123
8.52936e-123
8.71996e-136
-4.80753e-119
4.82075e-119
8.72719e-130
-3.85853e-115
3.87137e-115
2.22584e-125
-9.15725e-111
9.19094e-111
2.87589e-122
-1.42899e-106
2.24518e-106
5.80668e-117
1.90822e-103
-1.01034e-114
-6.67829e-13
-4.45611e-12
-6.12305e-20
-8.61507e-15
-1.61733e-12
-6.17446e-20
-7.34681e-33
4.50763e-14
-6.06964e-22
-4.66277e-53
6.72395e-32
-4.51002e-39
-4.15966e-70
5.96252e-51
-1.14694e-60
-5.43619e-92
5.54525e-67
-1.8778e-77
-2.3865e-111
2.51151e-90
-1.55591e-94
7.94827e-122
4.97766e-108
-2.31759e-110
-3.65015e-142
-3.08212e-120
-5.27731e-136
-1.84481e-140
1.83648e-140
-2.5367e-150
-2.44729e-137
2.45047e-137
-1.64764e-147
-4.19862e-134
4.20607e-134
-1.12161e-144
-8.34486e-131
8.36329e-131
1.45336e-141
-1.97047e-127
1.97578e-127
-1.33766e-137
-5.69561e-124
5.7141e-124
-2.78476e-134
-2.09037e-120
2.09845e-120
-1.10342e-130
-1.02137e-116
1.02603e-116
-5.42284e-127
-7.09078e-113
7.12877e-113
-2.05532e-123
-1.45522e-108
1.46389e-108
-1.66998e-118
-1.97567e-104
3.0897e-104
-3.76596e-114
2.26082e-101
-7.6158e-111
-7.02225e-13
-3.77647e-12
-5.36617e-20
-3.03685e-14
-1.40723e-12
-5.75435e-20
-4.6353e-35
9.29097e-14
-1.32869e-21
-6.05574e-52
6.71975e-32
-2.04982e-38
-6.21463e-67
1.1186e-50
-1.57569e-59
-3.33912e-90
1.10096e-65
-1.80046e-74
-2.78126e-108
7.58738e-89
-2.24453e-96
1.16932e-120
7.81708e-107
-2.46978e-110
-1.4854e-139
-3.98138e-119
-1.58143e-132
-6.78241e-138
6.65135e-138
-8.61964e-148
-7.68083e-135
7.69926e-135
-4.4781e-145
-1.15867e-131
1.16221e-131
-2.18093e-142
-2.02559e-128
2.03296e-128
5.09061e-139
-4.20823e-125
4.22628e-125
-3.324e-135
-1.07046e-121
1.07583e-121
-6.98824e-132
-3.45816e-118
3.47829e-118
-2.7578e-128
-1.48756e-114
1.49756e-114
-1.37513e-124
-9.09285e-111
9.16308e-111
-7.12723e-121
-1.64279e-106
1.65685e-106
-3.11278e-116
-1.97194e-102
3.07649e-102
-6.76227e-112
1.97042e-99
-1.11922e-108
-7.31094e-13
-3.11004e-12
-4.56901e-20
-8.05943e-14
-1.21189e-12
-5.30303e-20
-5.19258e-31
1.84133e-13
-2.64899e-21
-2.74513e-50
2.62332e-30
-8.35673e-39
-5.04618e-66
3.16335e-49
-1.06551e-60
-7.24358e-90
7.95498e-65
-3.55978e-74
-5.97908e-108
2.17001e-88
-2.73764e-94
1.50845e-119
2.20899e-106
-7.54572e-113
-3.98917e-137
-4.56995e-118
-3.66434e-132
-1.63317e-135
1.59971e-135
-2.21223e-145
-1.63207e-132
1.63829e-132
-9.2356e-143
-2.19452e-129
2.20472e-129
-2.48854e-140
-3.42084e-126
3.43927e-126
1.3343e-136
-6.33899e-123
6.37834e-123
-4.93901e-133
-1.43861e-119
1.44884e-119
-9.00668e-130
-4.14734e-116
4.18096e-116
-3.3251e-126
-1.59233e-112
1.60699e-112
-1.55201e-122
-8.68848e-109
8.77896e-109
-7.42703e-119
-1.40114e-104
1.41721e-104
-2.98928e-114
-1.50585e-100
2.34774e-100
-5.99774e-110
1.33286e-97
-8.89806e-107
-7.45268e-13
-2.46509e-12
-3.75508e-20
-1.80192e-13
-1.01317e-12
-4.79034e-20
-3.24907e-33
3.50741e-13
-5.06569e-21
-5.8413e-50
2.62008e-30
-5.75343e-38
-6.2629e-68
8.84483e-49
-1.68379e-57
-7.12817e-85
7.94873e-65
-9.98298e-73
-4.51039e-100
9.69549e-84
-1.01037e-92
1.73187e-118
1.00055e-98
-4.50933e-109
-7.57771e-135
-4.71763e-117
-9.26769e-132
-2.80988e-133
2.74971e-133
-4.29799e-143
-2.50451e-130
2.51832e-130
-1.52211e-140
-3.03443e-127
3.05426e-127
-1.69155e-138
-4.26378e-124
4.29551e-124
2.36557e-134
-7.12452e-121
7.18463e-121
-5.0025e-131
-1.45841e-117
1.47229e-117
-6.98982e-128
-3.79325e-114
3.83386e-114
-2.35931e-124
-1.31422e-110
1.32999e-110
-1.01025e-120
-6.47179e-107
6.55863e-107
-3.85419e-117
-9.41903e-103
9.5574e-103
-1.84454e-112
-9.15548e-99
1.42837e-98
-3.40879e-108
7.25951e-96
-4.74484e-105
-7.29188e-13
-1.86334e-12
-2.95355e-20
-3.30223e-13
-8.01724e-13
-4.16485e-20
-1.39805e-30
5.67414e-13
-8.57145e-21
-2.65455e-48
8.36834e-30
-8.92814e-38
-2.58017e-63
2.46237e-47
-6.13996e-56
-1.0813e-86
1.70315e-62
-1.13457e-74
-4.95805e-100
9.69457e-84
-6.98525e-94
1.79026e-117
1.23194e-98
-1.72692e-109
-1.0725e-132
-4.42212e-116
-1.89156e-130
-3.63149e-131
3.5512e-131
-6.30744e-141
-2.9122e-128
2.93403e-128
-1.9494e-138
-3.20744e-125
3.23537e-125
-3.08101e-137
-4.09882e-122
4.13893e-122
2.94997e-132
-6.23093e-119
6.29918e-119
-3.81625e-129
-1.16078e-115
1.17497e-115
-3.33826e-126
-2.74833e-112
2.7857e-112
-9.6241e-123
-8.66965e-109
8.80047e-109
-3.56629e-119
-3.88773e-105
3.95268e-105
-4.88727e-116
-5.15268e-101
5.24642e-101
-7.70969e-111
-4.56759e-97
7.13818e-97
-1.30245e-106
3.27389e-94
-1.78834e-103
-6.70806e-13
-1.33204e-12
-2.20369e-20
-4.57235e-13
-5.93865e-13
-3.41552e-20
-2.38544e-30
7.10351e-13
-1.15114e-20
-2.50917e-50
1.71484e-29
-1.39114e-37
-1.33664e-63
2.45988e-47
-7.62715e-55
-8.41116e-85
1.54625e-62
-2.45173e-72
-4.94207e-99
1.91134e-83
-9.41723e-93
1.68158e-116
6.04834e-98
-1.19725e-109
-1.17748e-130
-3.79288e-115
-5.48882e-132
-3.66509e-129
3.58226e-129
-7.13895e-139
-2.66346e-126
2.68937e-126
-1.96392e-136
-2.68626e-123
2.71619e-123
5.19876e-135
-3.14508e-120
3.18405e-120
2.71033e-130
-4.38199e-117
4.44219e-117
-2.42662e-127
-7.48457e-114
7.59825e-114
-8.83434e-125
-1.62518e-110
1.65241e-110
-1.29553e-121
-4.70267e-107
4.78937e-107
-1.15414e-118
-1.93469e-103
1.97388e-103
8.13385e-114
-2.35266e-99
2.40428e-99
-2.14345e-109
-1.9152e-95
3.0006e-95
-3.27514e-105
1.25015e-92
-4.9446e-102
-5.78289e-13
-8.87843e-13
-1.54452e-20
-4.99977e-13
-4.09741e-13
-2.6315e-20
-1.02175e-29
7.53962e-13
-1.25273e-20
-2.74351e-46
5.13124e-29
-3.59729e-37
-1.78471e-63
2.1525e-45
-1.41326e-54
-1.8963e-84
1.91546e-62
-3.77727e-72
-8.15876e-101
3.82805e-83
-1.86164e-92
1.44585e-115
6.04019e-98
-2.13894e-109
-1.0355e-128
-2.99539e-114
-2.62065e-129
-2.97542e-127
2.90719e-127
-6.43832e-137
-1.97392e-124
1.99799e-124
-1.57494e-134
-1.83435e-121
1.85969e-121
6.09715e-133
-1.97995e-118
2.0101e-118
1.91472e-128
-2.54424e-115
2.58687e-115
-1.41795e-125
-4.00936e-112
4.08308e-112
-7.71079e-124
-8.03446e-109
8.19625e-109
9.86204e-120
-2.14607e-105
2.19331e-105
6.63372e-116
-8.15122e-102
8.34704e-102
7.58852e-112
-9.15226e-98
9.38941e-98
-2.51173e-108
-6.88273e-94
1.08173e-93
-3.71342e-104
4.11683e-91
-9.49651e-101
-4.66352e-13
-5.41929e-13
-1.00068e-20
-4.726e-13
-2.65485e-13
-1.89885e-20
-6.43981e-32
7.74482e-13
-1.24603e-20
-6.14875e-46
5.1248e-29
-4.09082e-39
-7.66122e-63
6.77352e-45
-1.42761e-53
-1.15714e-83
7.57671e-62
-1.58655e-71
-1.14566e-98
1.47022e-82
-9.89533e-92
1.14485e-114
1.80441e-97
-4.07724e-109
-7.48428e-127
-2.18935e-113
-5.45482e-128
-1.99498e-125
1.94882e-125
-4.60292e-135
-1.21444e-122
1.2325e-122
-1.02364e-132
-1.0454e-119
1.06285e-119
3.811e-131
-1.04582e-116
1.06495e-116
1.09064e-126
-1.24612e-113
1.27103e-113
-7.71835e-124
-1.8215e-110
1.8612e-110
2.67389e-123
-3.38688e-107
3.46725e-107
7.83615e-118
-8.39607e-104
8.61261e-104
4.51213e-114
-2.96015e-100
3.043e-100
3.98156e-110
-3.08557e-96
3.17835e-96
3.10586e-107
-2.15461e-92
3.39864e-92
9.19746e-103
1.18712e-89
-1.08061e-99
-3.50651e-13
-2.93443e-13
-5.88542e-21
-3.8127e-13
-1.55237e-13
-1.28635e-20
-6.37379e-29
6.76656e-13
-1.11977e-20
-1.71549e-45
1.88782e-28
-1.55724e-36
-4.42446e-62
1.8149e-44
-1.39269e-55
-5.09679e-83
4.04884e-61
-5.01847e-71
-2.25152e-98
5.99549e-82
-3.75196e-91
8.39005e-114
4.0242e-97
-2.6277e-108
-4.54209e-125
-1.4874e-112
-1.14514e-129
-1.12786e-123
1.10167e-123
-2.67238e-133
-6.32772e-121
6.43996e-121
-5.56102e-131
-5.06876e-118
5.16895e-118
1.48382e-129
-4.72162e-115
4.82327e-115
5.12709e-125
-5.24098e-112
5.36362e-112
-3.89035e-122
-7.13937e-109
7.32064e-109
-4.34627e-120
-1.23752e-105
1.27155e-105
2.9288e-116
-2.86056e-102
2.94565e-102
1.84358e-112
-9.40555e-99
9.70775e-99
1.52053e-108
-9.14462e-95
9.45914e-95
2.87925e-105
-5.95588e-91
9.43244e-91
6.50714e-101
3.03626e-88
3.71232e-99
-2.05707e-13
-1.45752e-13
-3.07416e-21
-3.00482e-13
-7.742e-14
-7.80674e-21
-4.03574e-31
4.32678e-13
-7.93803e-21
-2.23979e-44
1.88379e-28
-1.77432e-38
-5.334e-64
1.39116e-43
-2.0123e-52
-2.98687e-84
4.0435e-61
-1.07054e-72
-3.54423e-98
6.10648e-82
-3.01011e-92
5.7149e-113
7.3675e-97
-4.38077e-108
-2.35589e-123
-9.42724e-112
-8.56447e-127
-5.46995e-122
5.34313e-122
-1.35451e-131
-2.83898e-119
2.89795e-119
-2.56259e-129
-2.12479e-116
2.17368e-116
5.09263e-128
-1.85047e-113
1.89662e-113
2.07347e-123
-1.92129e-110
1.97314e-110
-1.7175e-120
-2.44905e-107
2.52044e-107
-4.18765e-118
-3.97367e-104
4.0986e-104
6.71865e-115
-8.60006e-101
8.89125e-101
5.57384e-111
-2.648e-97
2.74444e-97
4.64748e-107
-2.41129e-93
2.505e-93
9.01373e-104
-1.4706e-89
2.33906e-89
2.05629e-99
6.96362e-87
4.57609e-97
-1.12266e-13
-6.61675e-14
-1.48334e-21
-1.88234e-13
-3.31776e-14
-4.07938e-21
-1.65147e-28
2.24493e-13
-4.4715e-21
-2.09974e-46
6.16512e-28
-3.09114e-36
-1.21972e-61
1.38906e-43
-3.37078e-54
-3.04099e-82
1.11171e-60
-2.01373e-69
-1.86717e-97
3.09882e-81
-1.57381e-90
3.63121e-112
2.3634e-96
-4.70764e-109
-1.06003e-121
-5.59192e-111
-1.30211e-125
-2.30856e-120
2.25531e-120
-5.9168e-130
-1.11226e-117
1.13891e-117
-1.02247e-127
-7.80568e-115
8.01184e-115
1.2896e-126
-6.37847e-112
6.56031e-112
7.30767e-122
-6.2171e-109
6.40809e-109
-6.65818e-119
-7.4426e-106
7.68863e-106
-2.37246e-116
-1.13449e-102
1.17478e-102
5.29538e-114
-2.30728e-99
2.39521e-99
1.32307e-109
-6.67699e-96
6.94973e-96
1.18741e-105
-5.71545e-92
5.96385e-92
1.52284e-102
-3.27558e-88
5.23365e-88
4.58443e-98
1.4456e-85
1.12385e-95
-5.57823e-14
-2.73469e-14
-6.54716e-22
-9.99088e-14
-1.23003e-14
-1.88076e-21
-3.23757e-28
1.02244e-13
-2.13535e-21
-1.53079e-43
1.54237e-27
-5.43661e-36
-2.30897e-61
7.80574e-43
-9.4371e-52
-4.30732e-84
2.43304e-60
-5.07292e-70
-4.40625e-97
3.09452e-81
-2.23224e-92
2.15901e-111
6.77311e-96
2.16474e-106
-4.1912e-120
-3.11283e-110
-2.61117e-127
-8.5562e-119
8.35987e-119
-2.25864e-128
-3.85082e-116
3.9559e-116
-3.56344e-126
-2.54212e-113
2.61826e-113
5.90987e-125
-1.95541e-110
2.0184e-110
2.33355e-120
-1.79504e-107
1.85713e-107
-2.22114e-117
-2.02466e-104
2.09977e-104
-9.36734e-115
-2.90883e-101
3.02438e-101
-2.5393e-112
-5.57725e-98
5.81422e-98
2.57431e-108
-1.52188e-94
1.59096e-94
2.62995e-104
-1.22858e-90
1.28776e-90
6.24706e-102
-6.63757e-87
1.06555e-86
7.7357e-97
2.73832e-84
1.46248e-94
-2.48146e-14
-1.03962e-14
-2.64987e-22
-4.65031e-14
-3.9196e-15
-7.71823e-22
-9.9036e-28
4.13625e-14
-8.96062e-22
-1.43058e-45
4.90605e-27
-1.5544e-35
-1.45509e-60
7.79149e-43
-1.02025e-50
-2.80163e-81
8.71951e-60
-6.11175e-69
-7.86899e-97
2.50194e-80
-8.96019e-90
1.20445e-110
1.51845e-95
1.06502e-105
-1.4712e-118
-1.63008e-109
-1.91109e-122
-2.82317e-117
2.75858e-117
-7.66389e-127
-1.19022e-114
1.22682e-114
-1.10628e-124
-7.41254e-112
7.66176e-112
2.34415e-123
-5.38277e-109
5.57679e-109
6.73094e-119
-4.66732e-106
4.84742e-106
-6.54414e-116
-4.97463e-103
5.17986e-103
-2.9961e-113
-6.7559e-100
7.0535e-100
-1.48717e-110
-1.22479e-96
1.28233e-96
4.15698e-107
-3.16061e-93
3.3188e-93
5.18205e-103
-2.41335e-89
2.54122e-89
-4.96645e-100
-1.23266e-85
1.98844e-85
9.80312e-96
4.76634e-83
4.16205e-94
-9.92004e-15
-3.72583e-15
-9.99149e-23
-1.89923e-14
-1.07246e-15
-2.83079e-22
-3.56436e-27
1.46696e-14
-3.31195e-22
-1.03761e-41
1.72042e-26
-5.00866e-35
-1.49661e-62
3.76832e-41
-8.98021e-53
-5.9159e-81
8.70454e-60
-2.49467e-70
-1.47309e-96
6.81462e-80
-1.09198e-89
6.31926e-110
2.19831e-95
3.19398e-105
-4.62885e-117
-8.04674e-109
-1.93341e-122
-8.36959e-116
8.1789e-116
-2.32768e-125
-3.31318e-113
3.42692e-113
-3.06162e-123
-1.95173e-110
2.02474e-110
1.15215e-121
-1.34153e-107
1.39518e-107
1.79727e-117
-1.10164e-104
1.14867e-104
-1.69469e-114
-1.11249e-101
1.16314e-101
-7.9008e-112
-1.43196e-98
1.50138e-98
-4.63535e-109
-2.46113e-95
2.58807e-95
5.83121e-106
-6.02214e-92
6.3522e-92
9.385e-102
-4.36096e-88
4.61345e-88
-2.15154e-98
-2.11131e-84
3.42278e-84
7.75174e-95
7.67e-82
-3.60443e-92
-3.66822e-15
-1.29248e-15
-3.60623e-23
-6.81563e-15
-2.55436e-16
-9.45275e-23
-1.28075e-26
4.61868e-15
-1.08181e-22
-9.67556e-44
5.68861e-26
-1.57569e-34
-3.72166e-60
3.75865e-41
-1.85284e-50
-1.64964e-80
2.0018e-59
-1.79118e-68
-6.54002e-95
1.83006e-79
-2.41208e-89
3.12403e-109
5.21526e-94
1.93031e-103
-1.31586e-115
-3.75078e-108
-1.95024e-122
-2.2468e-114
2.19587e-114
-6.39729e-124
-8.36939e-112
8.68758e-112
-7.70666e-122
-4.67465e-109
4.86777e-109
3.94039e-120
-3.04874e-106
3.18305e-106
4.37184e-116
-2.37676e-103
2.48827e-103
-3.96766e-113
-2.27962e-100
2.39338e-100
-1.82525e-110
-2.78778e-97
2.9356e-97
-1.11832e-107
-4.55352e-94
4.80976e-94
7.54232e-105
-1.05906e-90
1.12225e-90
1.60919e-100
-7.29105e-87
7.74963e-87
-5.48376e-97
-3.35389e-83
5.46478e-83
-1.24911e-94
1.14714e-80
-1.15238e-90
-1.31389e-15
-4.3482e-16
-1.27507e-23
-2.22156e-15
-5.2733e-17
-3.00001e-23
-4.23039e-26
1.37132e-15
-3.23366e-23
-2.75971e-41
1.7453e-25
-4.65343e-34
-4.98542e-60
1.16523e-40
-1.22314e-49
-3.75931e-80
3.94078e-59
-5.62394e-68
-4.55787e-95
4.3034e-79
-2.644e-89
1.45718e-108
8.47158e-94
1.67523e-103
-3.40314e-114
-1.65277e-107
-1.03233e-122
-5.49871e-113
5.37479e-113
-1.60093e-122
-1.93115e-110
2.01191e-110
-1.75473e-120
-1.02499e-107
1.07145e-107
1.28439e-118
-6.35691e-105
6.66348e-105
9.86501e-115
-4.71527e-102
4.9569e-102
-8.38153e-112
-4.30496e-99
4.5391e-99
-3.70406e-109
-5.01301e-96
5.30207e-96
-2.22087e-106
-7.79898e-93
8.27526e-93
1.04631e-103
-1.72799e-89
1.83964e-89
2.59363e-99
-1.13348e-85
1.21055e-85
-1.10232e-95
-4.96503e-82
8.13162e-82
-1.8807e-92
1.60197e-79
-2.35608e-89
-4.69724e-16
-1.35495e-16
-4.38605e-24
-7.02934e-16
-7.9732e-18
-9.49416e-24
-1.29968e-25
4.14106e-16
-9.46665e-24
-2.8194e-40
4.99665e-25
-1.29576e-33
-1.94734e-59
8.63999e-40
-1.00197e-51
-7.80823e-76
1.06243e-58
-1.69688e-67
-1.57789e-94
5.49962e-75
-1.78016e-86
6.416e-108
1.95656e-93
6.86873e-103
-8.06061e-113
-6.88694e-107
-8.94283e-118
-1.22258e-111
1.19497e-111
-3.67845e-121
-4.09315e-109
4.28045e-109
-3.69841e-119
-2.06876e-106
2.17108e-106
3.24727e-117
-1.22263e-103
1.28683e-103
2.02812e-113
-8.6466e-101
9.12807e-101
-1.63363e-110
-7.52991e-98
7.97404e-98
-6.84948e-108
-8.36658e-95
8.88874e-95
-3.86152e-105
-1.24232e-91
1.32428e-91
1.72644e-102
-2.62761e-88
2.81066e-88
3.98409e-98
-1.64564e-84
1.76606e-84
-1.85497e-94
-6.87826e-81
1.1324e-80
-4.26739e-91
2.09716e-78
-3.77828e-88
-1.62358e-16
-3.54007e-17
-1.3889e-24
-2.26816e-16
1.60207e-19
-3.00938e-24
-3.78012e-25
1.28298e-16
-2.8535e-24
-2.61726e-42
1.35842e-24
-3.4511e-33
-9.23958e-61
8.61385e-40
-1.01788e-48
-1.06847e-75
1.07309e-58
-1.27241e-69
-3.3298e-94
1.52003e-74
3.09151e-85
2.66514e-107
4.16113e-93
1.65767e-102
-1.75513e-111
-2.71178e-106
-1.5983e-116
-2.50298e-110
2.44518e-110
-7.72972e-120
-8.00816e-108
8.40714e-108
-7.15296e-118
-3.86172e-105
4.0691e-105
7.73172e-116
-2.17899e-102
2.30299e-102
3.87309e-112
-1.47208e-99
1.56076e-99
-2.92877e-109
-1.22516e-96
1.30319e-96
-1.15341e-106
-1.30141e-93
1.38895e-93
-5.95668e-104
-1.8479e-90
1.97907e-90
3.18288e-101
-3.73819e-87
4.01789e-87
5.89856e-97
-2.23958e-83
2.41532e-83
-2.77125e-93
-8.94899e-80
1.48114e-79
-6.93856e-90
2.58248e-77
-5.19438e-87
-4.87083e-17
-6.67625e-18
-3.65059e-25
-7.20163e-17
6.81047e-19
-8.86543e-25
-1.04062e-24
3.6768e-17
-8.54515e-25
-6.08048e-40
3.45875e-24
-8.78068e-33
-5.4334e-59
2.17491e-39
-2.17329e-50
-1.03068e-74
2.65791e-58
-1.35341e-67
-7.16623e-91
6.51529e-74
4.16906e-86
1.04274e-106
4.08095e-90
3.95896e-99
-3.53129e-110
-1.00726e-105
-1.04519e-115
-4.73934e-109
4.62684e-109
-1.51255e-118
-1.45227e-106
1.53071e-106
-1.30383e-116
-6.69388e-104
7.08266e-104
1.53188e-114
-3.61268e-101
3.83463e-101
7.01333e-111
-2.33569e-98
2.48732e-98
-4.90711e-108
-1.86111e-95
1.98864e-95
-1.80991e-105
-1.89336e-92
2.03017e-92
-8.37266e-103
-2.57547e-89
2.7715e-89
5.86257e-100
-4.99194e-86
5.39182e-86
8.78655e-96
-2.86604e-82
3.10645e-82
-3.73701e-92
-1.0968e-78
1.82511e-78
-9.17986e-89
3.00003e-76
-6.25311e-86
-1.07525e-17
-7.56798e-19
-6.89627e-26
-1.96442e-17
2.29777e-19
-2.08437e-25
-2.52428e-24
7.94856e-18
-2.2179e-25
-1.48489e-39
7.83806e-24
-1.98664e-32
-8.77672e-59
5.04046e-39
-4.12175e-48
-1.73192e-74
5.0229e-58
-6.77994e-67
-1.1026e-92
1.34113e-73
1.09608e-85
3.83313e-106
4.06992e-90
6.92018e-101
-6.58941e-109
-3.52015e-105
-5.14698e-115
-8.32847e-108
8.12514e-108
-2.57913e-117
-2.44977e-105
2.59273e-105
-2.21187e-115
-1.08115e-102
1.14883e-102
2.88478e-113
-5.59053e-100
5.96012e-100
1.15408e-109
-3.46485e-97
3.7065e-97
-7.64907e-107
-2.64771e-94
2.84232e-94
-2.64022e-104
-2.58406e-91
2.78403e-91
-1.08106e-101
-3.37297e-88
3.64752e-88
9.94523e-99
-6.27459e-85
6.81128e-85
1.22208e-94
-3.45806e-81
3.76735e-81
-4.65543e-91
-1.26954e-77
2.12418e-77
-1.06633e-87
3.29567e-75
-6.82583e-85
-1.42011e-18
-5.51311e-20
-7.9762e-27
-3.70351e-18
3.08387e-20
-3.15746e-26
-6.10216e-24
9.67229e-19
-4.00829e-26
-1.37007e-41
1.89422e-23
-4.5181e-32
-1.56475e-58
5.02676e-39
-6.82406e-50
-4.128e-74
8.78427e-58
-2.02118e-66
-1.97448e-90
2.35538e-73
4.37268e-85
1.31942e-105
1.40892e-89
1.28048e-98
-1.14396e-107
-1.15347e-104
-2.12454e-114
-1.36253e-106
1.32779e-106
-4.4658e-116
-3.85515e-104
4.09748e-104
-3.58542e-114
-1.63169e-101
1.74147e-101
4.72421e-112
-8.09695e-99
8.67141e-99
1.72945e-108
-4.81829e-96
5.17838e-96
-1.12035e-105
-3.53673e-93
3.81488e-93
-3.62224e-103
-3.31664e-90
3.59088e-90
-1.292e-100
-4.1608e-87
4.52216e-87
1.55668e-97
-7.44041e-84
8.11847e-84
1.61018e-93
-3.94242e-80
4.3176e-80
-5.37356e-90
-1.39069e-76
2.33999e-76
-1.0952e-86
3.43039e-74
-6.77525e-84
-9.31094e-20
-1.15918e-20
-6.74535e-28
-3.65779e-19
1.61701e-21
-2.38922e-27
-2.31125e-23
4.71203e-20
-3.81605e-27
-3.47494e-39
6.68812e-23
-1.62203e-31
-2.98933e-58
1.06639e-38
-2.7564e-47
-5.58047e-76
1.62503e-57
-1.59417e-68
-2.69267e-90
2.3498e-73
9.25187e-86
4.22771e-105
2.79487e-89
1.82695e-98
-1.85562e-106
-3.52271e-104
-7.68373e-114
-2.02806e-105
1.97303e-105
-7.18156e-115
-5.67284e-103
6.05659e-103
-5.44988e-113
-2.30643e-100
2.47285e-100
7.38599e-111
-1.10003e-97
1.18361e-97
2.50233e-107
-6.29475e-95
6.79782e-95
-1.53626e-104
-4.44493e-92
4.81824e-92
-4.66242e-102
-4.01124e-89
4.36496e-89
-1.44056e-99
-4.84371e-86
5.29174e-86
2.20934e-96
-8.33858e-83
9.14685e-83
1.97856e-92
-4.25427e-79
4.68433e-79
-5.83623e-89
-1.44409e-75
2.44391e-75
-1.03279e-85
3.38834e-73
-6.26964e-83
-7.98656e-21
-6.62522e-21
-1.92901e-28
-1.45234e-20
1.93148e-22
-1.08375e-28
-5.03612e-23
1.03515e-21
-1.46547e-28
-7.25847e-39
9.70043e-23
-3.36944e-31
-5.77508e-58
2.12155e-38
-2.07941e-48
-9.50327e-74
2.99853e-57
-8.32995e-67
-6.74892e-90
4.91899e-73
1.09897e-83
1.23789e-104
6.00946e-89
4.90135e-98
-2.80905e-105
-9.84258e-104
-2.42079e-113
-2.80803e-104
2.72076e-104
-1.00446e-113
-7.82078e-102
8.38924e-102
-7.92805e-112
-3.05908e-99
3.29538e-99
1.02991e-109
-1.40435e-96
1.51841e-96
3.38514e-106
-7.73884e-94
8.39918e-94
-1.98287e-103
-5.26457e-91
5.73606e-91
-5.64406e-101
-4.57841e-88
5.00837e-88
-1.47691e-98
-5.32907e-85
5.85337e-85
2.92329e-95
-8.84454e-82
9.7553e-82
2.28375e-91
-4.35097e-78
4.81766e-78
-5.94721e-88
-1.42324e-74
2.42301e-74
-8.85734e-85
3.17956e-72
-5.39962e-82
-2.90586e-21
-4.17142e-21
-1.26689e-28
-9.25564e-22
1.356e-22
-2.48441e-29
-8.04057e-23
2.61434e-22
-5.48309e-30
-6.61176e-41
7.49921e-23
-2.89825e-31
-1.11984e-57
2.11496e-38
-4.81769e-47
-4.00386e-73
5.4584e-57
-5.28597e-66
-1.41984e-89
1.97722e-72
8.40734e-84
3.01099e-104
1.23657e-88
1.07178e-97
-3.98129e-104
-2.28699e-103
-6.14551e-113
-3.62231e-103
3.49069e-103
-1.35606e-112
-1.01164e-100
1.09055e-100
-1.08313e-110
-3.81235e-98
4.12723e-98
1.37597e-108
-1.68695e-95
1.83327e-95
4.32388e-105
-8.96466e-93
9.78049e-93
-2.40335e-102
-5.88325e-90
6.44452e-90
-6.42566e-100
-4.93739e-87
5.43073e-87
-1.40508e-97
-5.54701e-84
6.12699e-84
3.56261e-94
-8.88748e-81
9.85893e-81
2.47818e-90
-4.22135e-77
4.70141e-77
-5.7567e-87
-1.33246e-73
2.28253e-73
-7.15117e-84
2.83667e-71
-4.42776e-81
-2.0435e-21
-2.51132e-21
-8.34235e-29
-4.72189e-22
1.1608e-22
-1.64432e-29
-6.39775e-23
2.04969e-22
-2.66715e-30
-1.50102e-38
5.27049e-23
-2.18145e-31
-1.99773e-57
3.99204e-38
-4.85361e-47
-5.30867e-75
1.01076e-56
-6.77951e-67
-4.63695e-89
1.97191e-72
2.40846e-84
1.73788e-104
3.19883e-88
3.58108e-97
-5.2894e-103
-1.26227e-103
-3.56773e-113
-4.35205e-102
4.16426e-102
-1.71735e-111
-1.22907e-99
1.33187e-99
-1.4185e-109
-4.46864e-97
4.86295e-97
1.66731e-107
-1.90851e-94
2.08514e-94
5.19346e-104
-9.79334e-92
1.07432e-91
-2.74139e-101
-6.20841e-89
6.83895e-89
-6.84995e-99
-5.03446e-86
5.56939e-86
-1.1811e-96
-5.4664e-83
6.07352e-83
4.09731e-93
-8.46595e-80
9.44783e-80
2.5508e-89
-3.88744e-76
4.35599e-76
-5.26876e-86
-1.18561e-72
2.04414e-72
-5.35461e-83
2.40708e-70
-3.44547e-80
-1.45032e-21
-1.41115e-21
-5.1324e-29
-3.68185e-22
8.76011e-23
-1.15001e-29
-4.70263e-23
1.64312e-22
-2.01249e-30
-4.18773e-38
3.59706e-23
-1.53531e-31
-1.48958e-56
6.24507e-38
-1.18047e-46
-4.72157e-71
5.17891e-56
1.5336e-66
-8.4463e-89
2.12883e-70
8.49248e-81
-1.43921e-104
6.67572e-88
6.73474e-97
-2.41092e-103
1.00059e-103
2.90369e-113
-4.61675e-101
4.99726e-101
-2.04518e-110
-1.40321e-98
1.5293e-98
-1.74938e-108
-4.92951e-96
5.39405e-96
1.93873e-106
-2.03466e-93
2.23554e-93
5.89475e-103
-1.00946e-90
1.11378e-90
-2.94149e-100
-6.18942e-88
6.8585e-88
-6.86534e-98
-4.85576e-85
5.40434e-85
-8.78601e-96
-5.10187e-82
5.70372e-82
4.38158e-92
-7.64706e-79
8.58809e-79
2.47821e-88
-3.3988e-75
3.83301e-75
-4.61861e-85
-1.00282e-71
1.74076e-71
-3.89722e-82
1.94289e-69
-2.59906e-79
-9.62374e-22
-7.51596e-22
-2.92656e-29
-2.78683e-22
5.8716e-23
-7.53655e-30
-3.34979e-23
1.16715e-22
-1.47496e-30
-1.73453e-38
2.41876e-23
-1.04498e-31
-9.61418e-56
9.05156e-38
-5.52778e-47
-5.72224e-71
3.19665e-55
5.91929e-65
-4.72854e-88
3.4339e-70
2.66013e-81
-2.07105e-103
2.56096e-87
3.85342e-96
-1.489e-102
1.37951e-102
3.99366e-112
-5.11295e-100
5.58651e-100
-2.44476e-109
-1.50667e-97
1.65144e-97
-2.05766e-107
-5.1192e-95
5.63437e-95
2.07619e-105
-2.04457e-92
2.2599e-92
6.30856e-102
-9.81952e-90
1.09009e-89
-2.96718e-99
-5.83029e-87
6.50122e-87
-6.40649e-97
-4.43049e-84
4.9628e-84
-4.83298e-95
-4.50988e-81
5.0751e-81
4.44177e-91
-6.54988e-78
7.40538e-78
2.28109e-87
-2.82106e-74
3.2032e-74
-3.85842e-84
-8.06217e-71
1.40955e-70
-2.72025e-81
1.49142e-68
-1.88969e-78
-5.90366e-22
-3.85296e-22
-1.57488e-29
-1.91139e-22
3.56694e-23
-4.53147e-30
-2.34572e-23
7.33707e-23
-9.78346e-31
-7.3636e-38
1.60097e-23
-6.95673e-32
-1.06207e-57
1.71103e-37
-1.9278e-46
-8.34103e-71
3.18603e-55
1.60114e-66
-6.85791e-90
4.2406e-70
2.69679e-79
-4.37444e-102
2.5541e-87
2.96713e-97
-3.00299e-101
2.71487e-101
4.36366e-111
-5.34677e-99
5.86213e-99
-2.75489e-108
-1.5211e-96
1.6774e-96
-2.26826e-106
-5.00463e-94
5.54263e-94
2.13657e-104
-1.93646e-91
2.15409e-91
6.37817e-101
-9.01367e-89
1.00719e-88
-2.81745e-98
-5.18855e-86
5.82446e-86
-5.61247e-96
-3.82352e-83
4.31232e-83
-1.21219e-94
-3.77497e-80
4.27792e-80
4.20441e-90
-5.31838e-77
6.05615e-77
1.97989e-86
-2.22223e-73
2.54163e-73
-3.10932e-83
-6.15853e-70
1.08496e-69
-1.94749e-80
1.08832e-67
-1.34738e-77
-3.41433e-22
-1.8885e-22
-8.07568e-30
-1.18493e-22
2.0281e-23
-2.54072e-30
-1.59986e-23
4.15525e-23
-5.82824e-31
-8.70273e-38
1.02365e-23
-4.48375e-32
-1.48378e-55
2.64803e-37
-2.43575e-46
-3.14677e-70
6.95928e-55
6.25876e-64
-8.56265e-88
1.24629e-69
5.42233e-80
-2.5937e-101
8.07065e-87
7.24171e-96
-2.77734e-100
2.80411e-100
4.33109e-110
-5.23506e-98
5.77869e-98
-2.92008e-107
-1.44359e-95
1.60231e-95
-2.36655e-105
-4.60479e-93
5.1339e-93
2.0538e-103
-1.72818e-90
1.93557e-90
6.08727e-100
-7.80525e-88
8.78282e-88
-2.51151e-97
-4.36079e-85
4.93043e-85
-4.54864e-95
-3.11976e-82
3.54447e-82
2.12616e-93
-2.9908e-79
3.41476e-79
3.77474e-89
-4.09193e-76
4.69535e-76
1.62667e-85
-1.66046e-72
1.91393e-72
-2.39716e-82
-4.46742e-69
7.93463e-69
-1.39129e-79
7.5445e-67
-9.32249e-77
-1.88745e-22
-8.73942e-23
-3.90524e-30
-6.7136e-23
1.09693e-23
-1.35043e-30
-1.0404e-23
2.15278e-23
-3.14229e-31
-1.54525e-37
6.18394e-24
-2.74214e-32
-3.34039e-55
3.84097e-37
-4.5977e-46
-3.98765e-72