/*--------------------------------*- C++ -*----------------------------------*\
| =========                 |                                                 |
| \\      /  F ield         | OpenFOAM: The Open Source CFD Toolbox           |
|  \\    /   O peration     | Version:  v2012                                 |
|   \\  /    A nd           | Website:  www.openfoam.com                      |
|    \\/     M anipulation  |                                                 |
\*---------------------------------------------------------------------------*/
FoamFile
{
    version     2.0;
    format      ascii;
    class       volScalarField;
    location    "0.75";
    object      p;
}
// * * * * * * * * * * * * * * * * * * * * * * * * * * * * * * * * * * * * * //

dimensions      [1 -1 -2 0 0 0 0];


internalField   nonuniform List<scalar> 
3332
(
3.49867e+06
3.49917e+06
3.49918e+06
3.49917e+06
3.49907e+06
3.49923e+06
3.49916e+06
3.49912e+06
3.49756e+06
3.49832e+06
3.49852e+06
3.49858e+06
3.49867e+06
3.49899e+06
3.49917e+06
3.49922e+06
3.49926e+06
3.49921e+06
3.4992e+06
3.49924e+06
3.49923e+06
3.49922e+06
3.49923e+06
3.49779e+06
3.49811e+06
3.49818e+06
3.49845e+06
3.49863e+06
3.49889e+06
3.49901e+06
3.49909e+06
3.49912e+06
3.49911e+06
3.49911e+06
3.49916e+06
3.49917e+06
3.49917e+06
3.49918e+06
3.49761e+06
3.49792e+06
3.49799e+06
3.49823e+06
3.4985e+06
3.49872e+06
3.49883e+06
3.49895e+06
3.49902e+06
3.49904e+06
3.49904e+06
3.4991e+06
3.49911e+06
3.49912e+06
3.49913e+06
3.49764e+06
3.49781e+06
3.49787e+06
3.49819e+06
3.49852e+06
3.49873e+06
3.49882e+06
3.49892e+06
3.49897e+06
3.49898e+06
3.49898e+06
3.49905e+06
3.49906e+06
3.49907e+06
3.49909e+06
3.49715e+06
3.4978e+06
3.49779e+06
3.49818e+06
3.49847e+06
3.49868e+06
3.4988e+06
3.49888e+06
3.49893e+06
3.49894e+06
3.49894e+06
3.499e+06
3.49901e+06
3.49902e+06
3.49904e+06
3.49716e+06
3.49764e+06
3.49769e+06
3.49821e+06
3.49856e+06
3.49876e+06
3.49887e+06
3.49893e+06
3.49897e+06
3.49896e+06
3.49894e+06
3.49899e+06
3.49899e+06
3.49899e+06
3.499e+06
3.49663e+06
3.49757e+06
3.49773e+06
3.49821e+06
3.49855e+06
3.49878e+06
3.49887e+06
3.49892e+06
3.49894e+06
3.49892e+06
3.4989e+06
3.49895e+06
3.49895e+06
3.49895e+06
3.49896e+06
3.49666e+06
3.49737e+06
3.4976e+06
3.49827e+06
3.49874e+06
3.49893e+06
3.499e+06
3.49899e+06
3.49897e+06
3.49894e+06
3.49891e+06
3.49894e+06
3.49893e+06
3.49892e+06
3.49893e+06
3.4959e+06
3.49759e+06
3.49788e+06
3.4983e+06
3.49869e+06
3.49884e+06
3.49893e+06
3.49894e+06
3.49895e+06
3.49892e+06
3.49889e+06
3.4989e+06
3.49888e+06
3.49888e+06
3.49888e+06
3.49599e+06
3.49734e+06
3.49768e+06
3.49834e+06
3.49889e+06
3.49903e+06
3.49909e+06
3.49905e+06
3.499e+06
3.49895e+06
3.49891e+06
3.4989e+06
3.49887e+06
3.49885e+06
3.49885e+06
3.49492e+06
3.49709e+06
3.49762e+06
3.49821e+06
3.49878e+06
3.49893e+06
3.499e+06
3.49896e+06
3.4989e+06
3.49885e+06
3.49881e+06
3.4988e+06
3.49878e+06
3.49878e+06
3.49878e+06
3.49516e+06
3.49728e+06
3.49815e+06
3.49877e+06
3.49928e+06
3.49929e+06
3.49926e+06
3.49914e+06
3.49903e+06
3.49893e+06
3.49886e+06
3.49882e+06
3.49877e+06
3.49875e+06
3.49873e+06
3.49328e+06
3.49866e+06
3.49909e+06
3.49918e+06
3.49928e+06
3.49913e+06
3.49904e+06
3.4989e+06
3.49881e+06
3.49874e+06
3.49868e+06
3.49866e+06
3.49863e+06
3.49862e+06
3.49862e+06
3.4938e+06
3.49911e+06
3.5e+06
3.50009e+06
3.49998e+06
3.49961e+06
3.49935e+06
3.49911e+06
3.49895e+06
3.49882e+06
3.49872e+06
3.49866e+06
3.49861e+06
3.49858e+06
3.49856e+06
3.49159e+06
3.49856e+06
3.49998e+06
3.49969e+06
3.49932e+06
3.49896e+06
3.49872e+06
3.49858e+06
3.49847e+06
3.49841e+06
3.49837e+06
3.49836e+06
3.49835e+06
3.49837e+06
3.49838e+06
3.49261e+06
3.4986e+06
3.49998e+06
3.49993e+06
3.49967e+06
3.49931e+06
3.49904e+06
3.49882e+06
3.49866e+06
3.49854e+06
3.49844e+06
3.49838e+06
3.49833e+06
3.49832e+06
3.49831e+06
3.49184e+06
3.49718e+06
3.49856e+06
3.49823e+06
3.498e+06
3.49783e+06
3.49775e+06
3.49772e+06
3.49772e+06
3.49774e+06
3.49778e+06
3.4979e+06
3.49795e+06
3.498e+06
3.49806e+06
3.49362e+06
3.49724e+06
3.49819e+06
3.49838e+06
3.49846e+06
3.49833e+06
3.49824e+06
3.49814e+06
3.49807e+06
3.49801e+06
3.49795e+06
3.49799e+06
3.49797e+06
3.49797e+06
3.49798e+06
3.48877e+06
3.49346e+06
3.49519e+06
3.49554e+06
3.49571e+06
3.49577e+06
3.49594e+06
3.49615e+06
3.49638e+06
3.4966e+06
3.49679e+06
3.49704e+06
3.49721e+06
3.49737e+06
3.49751e+06
3.49209e+06
3.49486e+06
3.49707e+06
3.49753e+06
3.49749e+06
3.49728e+06
3.49723e+06
3.49721e+06
3.49723e+06
3.49724e+06
3.49724e+06
3.49732e+06
3.49735e+06
3.49739e+06
3.49745e+06
3.47523e+06
3.4931e+06
3.49608e+06
3.49448e+06
3.49302e+06
3.49296e+06
3.49331e+06
3.49373e+06
3.49424e+06
3.49475e+06
3.49521e+06
3.49569e+06
3.49607e+06
3.4964e+06
3.49669e+06
3.4809e+06
3.49642e+06
3.49986e+06
3.49838e+06
3.49649e+06
3.49589e+06
3.49581e+06
3.49586e+06
3.49601e+06
3.49615e+06
3.49626e+06
3.49642e+06
3.49651e+06
3.49662e+06
3.49673e+06
3.468e+06
3.48522e+06
3.4901e+06
3.48923e+06
3.4875e+06
3.48733e+06
3.48816e+06
3.48932e+06
3.49051e+06
3.49165e+06
3.49262e+06
3.49356e+06
3.4943e+06
3.49494e+06
3.49546e+06
3.47914e+06
3.49051e+06
3.49325e+06
3.49334e+06
3.49231e+06
3.49218e+06
3.4928e+06
3.49352e+06
3.49413e+06
3.49461e+06
3.49492e+06
3.49524e+06
3.49542e+06
3.4956e+06
3.49576e+06
3.45909e+06
3.46495e+06
3.46882e+06
3.47168e+06
3.4726e+06
3.47577e+06
3.47858e+06
3.48175e+06
3.48419e+06
3.48657e+06
3.48846e+06
3.4902e+06
3.49156e+06
3.49272e+06
3.49363e+06
3.47817e+06
3.47456e+06
3.47363e+06
3.47766e+06
3.48092e+06
3.48477e+06
3.48765e+06
3.49019e+06
3.49161e+06
3.49278e+06
3.49332e+06
3.49388e+06
3.49409e+06
3.43676e+06
3.42968e+06
3.42709e+06
3.43798e+06
3.44457e+06
3.45427e+06
3.4604e+06
3.46804e+06
3.47267e+06
3.47782e+06
3.48123e+06
3.48471e+06
3.48711e+06
3.47125e+06
3.44326e+06
3.43505e+06
3.4486e+06
3.46112e+06
3.47214e+06
3.47896e+06
3.48541e+06
3.48799e+06
3.49087e+06
3.49139e+06
3.49255e+06
3.49255e+06
3.31009e+06
3.34359e+06
3.34407e+06
3.38211e+06
3.39573e+06
3.42219e+06
3.43097e+06
3.44726e+06
3.45332e+06
3.46404e+06
3.46926e+06
3.47607e+06
3.48005e+06
3.33912e+06
3.37044e+06
3.36268e+06
3.40362e+06
3.42968e+06
3.45744e+06
3.4699e+06
3.48206e+06
3.48412e+06
3.49039e+06
3.48972e+06
3.49193e+06
3.49091e+06
3.2986e+06
3.24356e+06
3.2011e+06
3.29921e+06
3.30381e+06
3.36048e+06
3.36235e+06
3.40543e+06
3.41228e+06
3.43739e+06
3.44738e+06
3.46142e+06
3.4683e+06
3.4183e+06
3.39286e+06
3.27372e+06
3.40548e+06
3.42666e+06
3.47e+06
3.46854e+06
3.49236e+06
3.48988e+06
3.49788e+06
3.49432e+06
3.49597e+06
3.49049e+06
2.89041e+06
3.12728e+06
2.913e+06
3.20594e+06
3.17159e+06
3.23826e+06
3.25436e+06
3.31873e+06
3.35018e+06
3.39307e+06
3.4178e+06
3.43945e+06
3.45065e+06
3.8581e+06
3.23116e+06
3.09476e+06
3.47801e+06
3.20517e+06
3.46109e+06
3.2497e+06
3.53363e+06
3.53274e+06
3.56492e+06
3.52306e+06
3.4983e+06
3.48441e+06
4.00112e+06
3.48728e+06
2.19984e+06
3.39544e+06
3.48378e+06
3.30781e+06
2.98421e+06
3.10483e+06
3.07011e+06
3.1648e+06
3.32908e+06
3.3769e+06
3.42087e+06
4.00085e+06
4.00066e+06
4.00072e+06
4.00063e+06
4.00012e+06
3.99992e+06
1.44446e+06
3.99993e+06
3.95638e+06
3.99861e+06
3.64589e+06
3.47615e+06
3.48281e+06
4.00093e+06
4.00077e+06
4.00067e+06
4.00059e+06
4.00052e+06
4.00053e+06
4.00053e+06
4.0006e+06
4.00065e+06
4.00088e+06
4.00097e+06
4.00088e+06
4.00081e+06
4.00077e+06
4.00074e+06
4.00076e+06
4.00079e+06
4.00087e+06
4.00096e+06
4.00111e+06
4.00099e+06
4.00091e+06
4.00085e+06
4.00083e+06
4.00082e+06
4.00084e+06
4.00089e+06
4.00094e+06
4.00102e+06
4.00114e+06
4.00104e+06
4.00097e+06
4.00093e+06
4.00091e+06
4.00091e+06
4.00092e+06
4.00096e+06
4.00103e+06
4.00111e+06
4.02025e+06
4.04087e+06
4.03623e+06
4.03384e+06
4.03227e+06
4.03515e+06
4.04212e+06
4.05352e+06
4.06676e+06
4.07809e+06
4.082e+06
4.16961e+06
4.17046e+06
4.16932e+06
4.16904e+06
4.16802e+06
4.16731e+06
4.16614e+06
4.16548e+06
4.16449e+06
4.16532e+06
4.22223e+06
4.22791e+06
4.22747e+06
4.2303e+06
4.23089e+06
4.23107e+06
4.23052e+06
4.22804e+06
4.22656e+06
4.22402e+06
4.34305e+06
4.35389e+06
4.3533e+06
4.3558e+06
4.35361e+06
4.34968e+06
4.34326e+06
4.33453e+06
4.3266e+06
4.31995e+06
4.35475e+06
4.39932e+06
4.41525e+06
4.43167e+06
4.43409e+06
4.4285e+06
4.41621e+06
4.39103e+06
4.36839e+06
4.33547e+06
4.46025e+06
4.50994e+06
4.55333e+06
4.56782e+06
4.56852e+06
4.55859e+06
4.54103e+06
4.51142e+06
4.47877e+06
4.40272e+06
4.48701e+06
4.49632e+06
4.4991e+06
4.49895e+06
4.49891e+06
4.49873e+06
4.49853e+06
4.49805e+06
4.49858e+06
4.48805e+06
4.49666e+06
4.4963e+06
4.49618e+06
4.49618e+06
4.49622e+06
4.49637e+06
4.49657e+06
4.49677e+06
4.49699e+06
4.49721e+06
4.49673e+06
4.49722e+06
4.49754e+06
4.49766e+06
4.49773e+06
4.4976e+06
4.49756e+06
4.49712e+06
4.49716e+06
4.49625e+06
4.4966e+06
4.49649e+06
4.49662e+06
4.49671e+06
4.49678e+06
4.49686e+06
4.49697e+06
4.49703e+06
4.49712e+06
4.49717e+06
4.49719e+06
4.49714e+06
4.49725e+06
4.4973e+06
4.49737e+06
4.49736e+06
4.49743e+06
4.49735e+06
4.49735e+06
4.49725e+06
4.49681e+06
4.49671e+06
4.49688e+06
4.49697e+06
4.49707e+06
4.49715e+06
4.4973e+06
4.49737e+06
4.49741e+06
4.49741e+06
4.49719e+06
4.49716e+06
4.49726e+06
4.49734e+06
4.49744e+06
4.49749e+06
4.49758e+06
4.49761e+06
4.49764e+06
4.49762e+06
4.49696e+06
4.49695e+06
4.49719e+06
4.49738e+06
4.49748e+06
4.49752e+06
4.49759e+06
4.4976e+06
4.49764e+06
4.49764e+06
4.4973e+06
4.49729e+06
4.49742e+06
4.49762e+06
4.49776e+06
4.49779e+06
4.49781e+06
4.49779e+06
4.49778e+06
4.49778e+06
4.49718e+06
4.49718e+06
4.49741e+06
4.49769e+06
4.49784e+06
4.49786e+06
4.49787e+06
4.49784e+06
4.49783e+06
4.49783e+06
4.49733e+06
4.49737e+06
4.49757e+06
4.49785e+06
4.49799e+06
4.49801e+06
4.49798e+06
4.49796e+06
4.49795e+06
4.49795e+06
4.4973e+06
4.49736e+06
4.49758e+06
4.49785e+06
4.49801e+06
4.49805e+06
4.49803e+06
4.49801e+06
4.49801e+06
4.49801e+06
4.49761e+06
4.49751e+06
4.49779e+06
4.49797e+06
4.49811e+06
4.49814e+06
4.49813e+06
4.49811e+06
4.49811e+06
4.4981e+06
4.49761e+06
4.49759e+06
4.49793e+06
4.49806e+06
4.49816e+06
4.49816e+06
4.49815e+06
4.49814e+06
4.49814e+06
4.49814e+06
4.49805e+06
4.49809e+06
4.49812e+06
4.49816e+06
4.49821e+06
4.49822e+06
4.49821e+06
4.4982e+06
4.4982e+06
4.4982e+06
4.49806e+06
4.49816e+06
4.49823e+06
4.49823e+06
4.49825e+06
4.49824e+06
4.49822e+06
4.49822e+06
4.49823e+06
4.49823e+06
4.49821e+06
4.49826e+06
4.49829e+06
4.4983e+06
4.49829e+06
4.49828e+06
4.49827e+06
4.49827e+06
4.49827e+06
4.49827e+06
4.49824e+06
4.49829e+06
4.49829e+06
4.49829e+06
4.4983e+06
4.49829e+06
4.49829e+06
4.4983e+06
4.4983e+06
4.4983e+06
4.49826e+06
4.49829e+06
4.49831e+06
4.49832e+06
4.49832e+06
4.49833e+06
4.49833e+06
4.49834e+06
4.49834e+06
4.49834e+06
4.4983e+06
4.49832e+06
4.49831e+06
4.49831e+06
4.49832e+06
4.49833e+06
4.49834e+06
4.49834e+06
4.49834e+06
4.49834e+06
4.49828e+06
4.49837e+06
4.49836e+06
4.49836e+06
4.49838e+06
4.49837e+06
4.49834e+06
4.49833e+06
4.49834e+06
4.49834e+06
4.49832e+06
4.49838e+06
4.49835e+06
4.49836e+06
4.49839e+06
4.49839e+06
4.49835e+06
4.49834e+06
4.49834e+06
4.49835e+06
4.49838e+06
4.49836e+06
4.49834e+06
4.49837e+06
4.49845e+06
4.49846e+06
4.49842e+06
4.4984e+06
4.49841e+06
4.49841e+06
4.49839e+06
4.49834e+06
4.49833e+06
4.49836e+06
4.49845e+06
4.49847e+06
4.49844e+06
4.49843e+06
4.49844e+06
4.49844e+06
4.49848e+06
4.49844e+06
4.49845e+06
4.49847e+06
4.4985e+06
4.49852e+06
4.49853e+06
4.49853e+06
4.49854e+06
4.49854e+06
4.49847e+06
4.49842e+06
4.49844e+06
4.49847e+06
4.49849e+06
4.49852e+06
4.49854e+06
4.49854e+06
4.49855e+06
4.49855e+06
4.49861e+06
4.49856e+06
4.49862e+06
4.49864e+06
4.49867e+06
4.49868e+06
4.4987e+06
4.4987e+06
4.49871e+06
4.49871e+06
4.49857e+06
4.49851e+06
4.4986e+06
4.49864e+06
4.49867e+06
4.49868e+06
4.49869e+06
4.49868e+06
4.49868e+06
4.49867e+06
4.49883e+06
4.49879e+06
4.49886e+06
4.49891e+06
4.49893e+06
4.49894e+06
4.49895e+06
4.49894e+06
4.49894e+06
4.49893e+06
4.49879e+06
4.49875e+06
4.49885e+06
4.49892e+06
4.49894e+06
4.49894e+06
4.49893e+06
4.49887e+06
4.49882e+06
4.49867e+06
4.49904e+06
4.49915e+06
4.49916e+06
4.49923e+06
4.49927e+06
4.49927e+06
4.49932e+06
4.49928e+06
4.49932e+06
4.49935e+06
4.49961e+06
4.49955e+06
4.49961e+06
4.49962e+06
4.49964e+06
4.49964e+06
4.49965e+06
4.499e+06
4.49916e+06
4.4992e+06
4.49928e+06
4.49933e+06
4.49931e+06
4.49935e+06
4.49931e+06
4.49934e+06
4.49939e+06
4.49955e+06
4.49954e+06
4.4996e+06
4.49961e+06
4.49963e+06
4.49964e+06
4.49965e+06
4.49913e+06
4.49938e+06
4.49944e+06
4.49945e+06
4.49949e+06
4.49946e+06
4.49949e+06
4.4995e+06
4.49954e+06
4.49953e+06
4.49959e+06
4.49958e+06
4.49961e+06
4.49962e+06
4.49963e+06
4.49964e+06
4.49964e+06
4.4991e+06
4.49939e+06
4.49948e+06
4.49949e+06
4.49953e+06
4.49948e+06
4.49949e+06
4.49949e+06
4.49953e+06
4.49954e+06
4.49958e+06
4.49958e+06
4.49961e+06
4.49962e+06
4.49963e+06
4.49964e+06
4.49964e+06
4.49943e+06
4.49953e+06
4.49959e+06
4.49961e+06
4.49964e+06
4.49957e+06
4.49958e+06
4.49957e+06
4.49959e+06
4.49959e+06
4.49961e+06
4.49961e+06
4.49963e+06
4.49963e+06
4.49964e+06
4.49964e+06
4.49964e+06
4.49942e+06
4.49956e+06
4.49961e+06
4.49962e+06
4.49965e+06
4.49958e+06
4.49959e+06
4.49958e+06
4.49959e+06
4.4996e+06
4.49961e+06
4.49961e+06
4.49962e+06
4.49963e+06
4.49964e+06
4.49964e+06
4.49964e+06
4.49951e+06
4.49958e+06
4.49961e+06
4.49962e+06
4.49962e+06
4.49962e+06
4.49962e+06
4.49962e+06
4.49963e+06
4.49963e+06
4.49963e+06
4.49963e+06
4.49963e+06
4.49964e+06
4.49964e+06
4.49964e+06
4.49964e+06
4.49952e+06
4.49961e+06
4.49962e+06
4.49962e+06
4.49962e+06
4.49962e+06
4.49962e+06
4.49962e+06
4.49962e+06
4.49962e+06
4.49963e+06
4.49963e+06
4.49963e+06
4.49964e+06
4.49964e+06
4.49964e+06
4.49964e+06
4.49967e+06
4.49967e+06
4.49966e+06
4.49966e+06
4.49965e+06
4.49964e+06
4.49964e+06
4.49964e+06
4.49964e+06
4.49964e+06
4.49964e+06
4.49964e+06
4.49964e+06
4.49964e+06
4.49964e+06
4.49964e+06
4.49964e+06
4.49966e+06
4.49967e+06
4.49967e+06
4.49966e+06
4.49965e+06
4.49964e+06
4.49964e+06
4.49964e+06
4.49963e+06
4.49963e+06
4.49963e+06
4.49964e+06
4.49964e+06
4.49964e+06
4.49964e+06
4.49964e+06
4.49964e+06
4.49968e+06
4.4997e+06
4.49968e+06
4.49967e+06
4.49965e+06
4.49965e+06
4.49964e+06
4.49964e+06
4.49964e+06
4.49964e+06
4.49964e+06
4.49964e+06
4.49964e+06
4.49964e+06
4.49964e+06
4.49964e+06
4.49964e+06
4.49964e+06
4.49964e+06
4.49968e+06
4.49969e+06
4.49967e+06
4.49966e+06
4.49965e+06
4.49964e+06
4.49964e+06
4.49964e+06
4.49964e+06
4.49963e+06
4.49964e+06
4.49964e+06
4.49964e+06
4.49964e+06
4.49964e+06
4.49964e+06
4.49964e+06
4.49964e+06
4.49964e+06
4.49968e+06
4.49969e+06
4.49967e+06
4.49966e+06
4.49965e+06
4.49964e+06
4.49964e+06
4.49964e+06
4.49964e+06
4.49964e+06
4.49964e+06
4.49964e+06
4.49964e+06
4.49964e+06
4.49964e+06
4.49964e+06
4.49964e+06
4.49964e+06
4.49964e+06
4.49965e+06
4.49966e+06
4.49965e+06
4.49965e+06
4.49964e+06
4.49964e+06
4.49963e+06
4.49963e+06
4.49963e+06
4.49963e+06
4.49963e+06
4.49963e+06
4.49963e+06
4.49963e+06
4.49963e+06
4.49963e+06
4.49963e+06
4.49963e+06
4.49964e+06
4.49964e+06
4.49964e+06
4.49964e+06
4.49964e+06
4.49964e+06
4.49964e+06
4.49963e+06
4.49963e+06
4.49963e+06
4.49963e+06
4.49963e+06
4.49963e+06
4.49963e+06
4.49963e+06
4.49963e+06
4.49963e+06
4.49963e+06
4.49963e+06
4.49963e+06
4.49963e+06
4.49963e+06
4.49963e+06
4.49963e+06
4.49963e+06
4.49963e+06
4.49963e+06
4.49963e+06
4.49963e+06
4.49963e+06
4.49963e+06
4.49963e+06
4.49963e+06
4.49963e+06
4.49963e+06
4.49963e+06
4.49963e+06
4.49963e+06
4.49963e+06
4.49963e+06
4.49963e+06
4.49963e+06
4.49963e+06
4.49963e+06
4.49963e+06
4.49963e+06
4.49963e+06
4.49963e+06
4.49963e+06
4.49963e+06
4.49963e+06
4.49963e+06
4.49963e+06
4.49963e+06
4.49963e+06
4.49963e+06
4.49963e+06
4.49963e+06
4.49963e+06
4.49963e+06
4.49963e+06
4.49963e+06
4.49963e+06
4.49963e+06
4.49963e+06
4.49963e+06
4.49963e+06
4.49963e+06
4.49963e+06
4.49963e+06
4.49963e+06
4.49963e+06
4.49963e+06
4.49963e+06
4.49963e+06
4.49963e+06
4.49963e+06
4.49963e+06
4.49962e+06
4.49962e+06
4.49962e+06
4.49962e+06
4.49962e+06
4.49962e+06
4.49962e+06
4.49963e+06
4.49963e+06
4.49963e+06
4.49963e+06
4.49963e+06
4.49963e+06
4.49963e+06
4.49963e+06
4.49963e+06
4.49963e+06
4.49963e+06
4.49962e+06
4.49962e+06
4.49962e+06
4.49962e+06
4.49962e+06
4.49962e+06
4.49962e+06
4.49962e+06
4.49962e+06
4.49962e+06
4.49962e+06
4.49962e+06
4.49962e+06
4.49962e+06
4.49962e+06
4.49962e+06
4.49962e+06
4.49962e+06
4.49962e+06
4.49962e+06
4.49962e+06
4.49962e+06
4.49962e+06
4.49962e+06
4.49962e+06
4.49962e+06
4.49962e+06
4.49962e+06
4.49962e+06
4.49962e+06
4.49962e+06
4.49962e+06
4.49962e+06
4.49962e+06
4.49962e+06
4.49962e+06
4.49962e+06
4.49962e+06
4.49962e+06
4.49962e+06
4.49962e+06
4.49962e+06
4.49962e+06
4.49962e+06
4.49962e+06
4.49962e+06
4.49962e+06
4.49962e+06
4.49962e+06
4.49962e+06
4.49962e+06
4.49962e+06
4.49962e+06
4.49962e+06
4.49962e+06
4.49962e+06
4.49962e+06
4.49962e+06
4.49962e+06
4.49962e+06
4.49962e+06
4.49962e+06
4.49962e+06
4.49962e+06
4.49962e+06
4.49962e+06
4.49962e+06
4.49962e+06
4.49962e+06
4.49962e+06
4.49962e+06
4.49962e+06
4.49962e+06
4.49962e+06
4.49962e+06
4.49962e+06
4.49962e+06
4.49961e+06
4.49961e+06
4.49961e+06
4.49961e+06
4.49962e+06
4.49962e+06
4.49962e+06
4.49962e+06
4.49962e+06
4.49962e+06
4.49962e+06
4.49962e+06
4.49962e+06
4.49962e+06
4.49962e+06
4.49962e+06
4.49962e+06
4.49962e+06
4.49961e+06
4.49961e+06
4.49961e+06
4.49961e+06
4.49961e+06
4.49961e+06
4.49961e+06
4.49961e+06
4.49961e+06
4.49961e+06
4.49961e+06
4.49961e+06
4.49961e+06
4.49961e+06
4.49961e+06
4.49961e+06
4.49961e+06
4.49961e+06
4.49961e+06
4.49961e+06
4.49961e+06
4.49961e+06
4.49961e+06
4.49961e+06
4.49961e+06
4.49961e+06
4.49961e+06
4.49961e+06
4.49961e+06
4.49961e+06
4.49961e+06
4.49961e+06
4.49961e+06
4.49961e+06
4.49961e+06
4.49961e+06
4.49961e+06
4.49961e+06
4.49961e+06
4.49961e+06
4.49961e+06
4.49961e+06
4.49961e+06
4.49961e+06
4.49961e+06
4.49961e+06
4.49961e+06
4.49961e+06
4.49961e+06
4.49961e+06
4.49961e+06
4.49961e+06
4.49961e+06
4.49961e+06
4.49961e+06
4.49961e+06
4.49961e+06
4.49961e+06
4.49961e+06
4.49961e+06
4.49961e+06
4.49961e+06
4.49961e+06
4.49961e+06
4.49961e+06
4.49961e+06
4.49961e+06
4.49961e+06
4.49961e+06
4.49961e+06
4.49961e+06
4.49961e+06
4.49961e+06
4.49961e+06
4.49961e+06
4.49961e+06
4.4996e+06
4.4996e+06
4.4996e+06
4.4996e+06
4.4996e+06
4.4996e+06
4.4996e+06
4.4996e+06
4.49961e+06
4.49961e+06
4.49961e+06
4.49961e+06
4.49961e+06
4.49961e+06
4.49961e+06
4.49961e+06
4.49961e+06
4.49961e+06
4.49961e+06
4.4996e+06
4.4996e+06
4.4996e+06
4.4996e+06
4.4996e+06
4.4996e+06
4.4996e+06
4.4996e+06
4.4996e+06
4.4996e+06
4.4996e+06
4.4996e+06
4.4996e+06
4.4996e+06
4.4996e+06
4.4996e+06
4.4996e+06
4.4996e+06
4.4996e+06
4.4996e+06
4.4996e+06
4.4996e+06
4.4996e+06
4.4996e+06
4.4996e+06
4.4996e+06
4.4996e+06
4.4996e+06
4.4996e+06
4.4996e+06
4.4996e+06
4.4996e+06
4.4996e+06
4.4996e+06
4.4996e+06
4.4996e+06
4.4996e+06
4.4996e+06
4.4996e+06
4.4996e+06
4.4996e+06
4.4996e+06
4.4996e+06
4.4996e+06
4.4996e+06
4.4996e+06
4.4996e+06
4.4996e+06
4.4996e+06
4.4996e+06
4.4996e+06
4.4996e+06
4.4996e+06
4.4996e+06
4.4996e+06
4.4996e+06
4.4996e+06
4.4996e+06
4.4996e+06
4.4996e+06
4.4996e+06
4.4996e+06
4.4996e+06
4.4996e+06
4.4996e+06
4.4996e+06
4.4996e+06
4.4996e+06
4.4996e+06
4.4996e+06
4.4996e+06
4.4996e+06
4.4996e+06
4.4996e+06
4.4996e+06
4.4996e+06
4.49959e+06
4.49959e+06
4.49959e+06
4.49959e+06
4.49959e+06
4.4996e+06
4.4996e+06
4.4996e+06
4.4996e+06
4.4996e+06
4.4996e+06
4.4996e+06
4.4996e+06
4.4996e+06
4.4996e+06
4.4996e+06
4.4996e+06
4.4996e+06
4.4996e+06
4.49959e+06
4.49959e+06
4.49959e+06
4.49959e+06
4.49959e+06
4.49959e+06
4.49959e+06
4.49959e+06
4.49959e+06
4.49959e+06
4.49959e+06
4.49959e+06
4.49959e+06
4.49959e+06
4.49959e+06
4.49959e+06
4.49959e+06
4.49959e+06
4.49959e+06
4.49959e+06
4.49959e+06
4.49959e+06
4.49959e+06
4.49959e+06
4.49959e+06
4.49959e+06
4.49959e+06
4.49959e+06
4.49959e+06
4.49959e+06
4.49959e+06
4.49959e+06
4.49959e+06
4.49959e+06
4.49959e+06
4.49959e+06
4.49959e+06
4.49959e+06
4.49959e+06
4.49959e+06
4.49959e+06
4.49959e+06
4.49959e+06
4.49959e+06
4.49959e+06
4.49959e+06
4.49959e+06
4.49959e+06
4.49959e+06
4.49959e+06
4.49959e+06
4.49959e+06
4.49959e+06
4.49959e+06
4.49959e+06
4.49959e+06
4.49959e+06
4.49959e+06
4.49959e+06
4.49959e+06
4.49959e+06
4.49959e+06
4.49959e+06
4.49959e+06
4.49959e+06
4.49959e+06
4.49959e+06
4.49959e+06
4.49959e+06
4.49959e+06
4.49959e+06
4.49959e+06
4.49959e+06
4.49959e+06
4.49959e+06
4.49959e+06
4.49958e+06
4.49958e+06
4.49958e+06
4.49958e+06
4.49958e+06
4.49958e+06
4.49958e+06
4.49958e+06
4.49958e+06
4.49958e+06
4.49958e+06
4.49958e+06
4.49958e+06
4.49958e+06
4.49958e+06
4.49958e+06
4.49959e+06
4.49959e+06
4.49959e+06
4.49958e+06
4.49958e+06
4.49958e+06
4.49958e+06
4.49958e+06
4.49958e+06
4.49958e+06
4.49958e+06
4.49958e+06
4.49958e+06
4.49958e+06
4.49958e+06
4.49958e+06
4.49958e+06
4.49958e+06
4.49958e+06
4.49958e+06
4.49958e+06
4.49958e+06
3.49867e+06
3.49917e+06
3.49918e+06
3.49917e+06
3.49907e+06
3.49923e+06
3.49916e+06
3.49912e+06
3.49756e+06
3.49832e+06
3.49852e+06
3.49858e+06
3.49867e+06
3.49899e+06
3.49917e+06
3.49922e+06
3.49926e+06
3.49921e+06
3.4992e+06
3.49924e+06
3.49923e+06
3.49922e+06
3.49923e+06
3.49779e+06
3.49811e+06
3.49818e+06
3.49845e+06
3.49863e+06
3.49889e+06
3.49901e+06
3.49909e+06
3.49912e+06
3.49911e+06
3.49911e+06
3.49916e+06
3.49917e+06
3.49917e+06
3.49918e+06
3.49761e+06
3.49792e+06
3.49799e+06
3.49823e+06
3.4985e+06
3.49872e+06
3.49883e+06
3.49895e+06
3.49902e+06
3.49904e+06
3.49904e+06
3.4991e+06
3.49911e+06
3.49912e+06
3.49913e+06
3.49764e+06
3.49781e+06
3.49787e+06
3.49819e+06
3.49852e+06
3.49873e+06
3.49882e+06
3.49892e+06
3.49897e+06
3.49898e+06
3.49898e+06
3.49905e+06
3.49906e+06
3.49907e+06
3.49909e+06
3.49715e+06
3.49779e+06
3.49779e+06
3.49818e+06
3.49847e+06
3.49868e+06
3.4988e+06
3.49888e+06
3.49893e+06
3.49894e+06
3.49894e+06
3.499e+06
3.49901e+06
3.49902e+06
3.49904e+06
3.49716e+06
3.49764e+06
3.49769e+06
3.49821e+06
3.49856e+06
3.49876e+06
3.49887e+06
3.49893e+06
3.49897e+06
3.49896e+06
3.49894e+06
3.49899e+06
3.49899e+06
3.49899e+06
3.499e+06
3.49663e+06
3.49757e+06
3.49773e+06
3.49821e+06
3.49855e+06
3.49878e+06
3.49887e+06
3.49892e+06
3.49894e+06
3.49892e+06
3.4989e+06
3.49895e+06
3.49895e+06
3.49895e+06
3.49896e+06
3.49666e+06
3.49737e+06
3.4976e+06
3.49827e+06
3.49874e+06
3.49893e+06
3.499e+06
3.49899e+06
3.49897e+06
3.49894e+06
3.49891e+06
3.49894e+06
3.49893e+06
3.49892e+06
3.49893e+06
3.4959e+06
3.49759e+06
3.49788e+06
3.4983e+06
3.49869e+06
3.49884e+06
3.49893e+06
3.49894e+06
3.49895e+06
3.49892e+06
3.49889e+06
3.4989e+06
3.49888e+06
3.49888e+06
3.49888e+06
3.49599e+06
3.49734e+06
3.49768e+06
3.49834e+06
3.49889e+06
3.49903e+06
3.49909e+06
3.49905e+06
3.499e+06
3.49895e+06
3.49891e+06
3.4989e+06
3.49887e+06
3.49885e+06
3.49885e+06
3.49492e+06
3.49709e+06
3.49762e+06
3.49821e+06
3.49878e+06
3.49893e+06
3.499e+06
3.49896e+06
3.4989e+06
3.49885e+06
3.49881e+06
3.4988e+06
3.49878e+06
3.49878e+06
3.49878e+06
3.49516e+06
3.49728e+06
3.49815e+06
3.49877e+06
3.49928e+06
3.49929e+06
3.49926e+06
3.49914e+06
3.49903e+06
3.49893e+06
3.49886e+06
3.49882e+06
3.49877e+06
3.49875e+06
3.49873e+06
3.49328e+06
3.49866e+06
3.49909e+06
3.49918e+06
3.49928e+06
3.49913e+06
3.49904e+06
3.4989e+06
3.49881e+06
3.49874e+06
3.49868e+06
3.49866e+06
3.49863e+06
3.49862e+06
3.49862e+06
3.4938e+06
3.49911e+06
3.5e+06
3.50009e+06
3.49998e+06
3.49961e+06
3.49935e+06
3.49911e+06
3.49895e+06
3.49882e+06
3.49872e+06
3.49866e+06
3.49861e+06
3.49858e+06
3.49856e+06
3.49159e+06
3.49856e+06
3.49998e+06
3.49969e+06
3.49932e+06
3.49896e+06
3.49872e+06
3.49858e+06
3.49847e+06
3.49841e+06
3.49837e+06
3.49836e+06
3.49835e+06
3.49837e+06
3.49838e+06
3.49261e+06
3.4986e+06
3.49998e+06
3.49993e+06
3.49967e+06
3.49931e+06
3.49904e+06
3.49882e+06
3.49866e+06
3.49854e+06
3.49844e+06
3.49838e+06
3.49833e+06
3.49832e+06
3.49831e+06
3.49184e+06
3.49718e+06
3.49856e+06
3.49823e+06
3.498e+06
3.49783e+06
3.49775e+06
3.49772e+06
3.49772e+06
3.49774e+06
3.49778e+06
3.4979e+06
3.49795e+06
3.498e+06
3.49806e+06
3.49362e+06
3.49724e+06
3.49819e+06
3.49838e+06
3.49846e+06
3.49833e+06
3.49824e+06
3.49814e+06
3.49807e+06
3.49801e+06
3.49795e+06
3.49799e+06
3.49797e+06
3.49797e+06
3.49798e+06
3.48877e+06
3.49346e+06
3.49519e+06
3.49554e+06
3.49571e+06
3.49577e+06
3.49594e+06
3.49615e+06
3.49638e+06
3.4966e+06
3.49679e+06
3.49704e+06
3.49721e+06
3.49737e+06
3.49751e+06
3.49209e+06
3.49486e+06
3.49707e+06
3.49753e+06
3.49749e+06
3.49728e+06
3.49723e+06
3.49721e+06
3.49723e+06
3.49724e+06
3.49724e+06
3.49732e+06
3.49735e+06
3.49739e+06
3.49745e+06
3.47523e+06
3.4931e+06
3.49608e+06
3.49448e+06
3.49302e+06
3.49296e+06
3.49331e+06
3.49373e+06
3.49424e+06
3.49475e+06
3.49521e+06
3.49569e+06
3.49607e+06
3.4964e+06
3.49669e+06
3.4809e+06
3.49642e+06
3.49986e+06
3.49838e+06
3.49649e+06
3.49589e+06
3.49581e+06
3.49586e+06
3.49601e+06
3.49615e+06
3.49626e+06
3.49642e+06
3.49651e+06
3.49662e+06
3.49673e+06
3.468e+06
3.48522e+06
3.4901e+06
3.48923e+06
3.4875e+06
3.48733e+06
3.48816e+06
3.48932e+06
3.49051e+06
3.49165e+06
3.49263e+06
3.49356e+06
3.4943e+06
3.49494e+06
3.49546e+06
3.47913e+06
3.49051e+06
3.49325e+06
3.49334e+06
3.49231e+06
3.49218e+06
3.4928e+06
3.49352e+06
3.49413e+06
3.49461e+06
3.49492e+06
3.49524e+06
3.49542e+06
3.4956e+06
3.49576e+06
3.45909e+06
3.46495e+06
3.46882e+06
3.47168e+06
3.4726e+06
3.47577e+06
3.47858e+06
3.48175e+06
3.48419e+06
3.48657e+06
3.48846e+06
3.4902e+06
3.49156e+06
3.49272e+06
3.49363e+06
3.47817e+06
3.47455e+06
3.47363e+06
3.47766e+06
3.48092e+06
3.48477e+06
3.48765e+06
3.49019e+06
3.49161e+06
3.49278e+06
3.49332e+06
3.49388e+06
3.49409e+06
3.43676e+06
3.42967e+06
3.42709e+06
3.43798e+06
3.44457e+06
3.45427e+06
3.4604e+06
3.46804e+06
3.47267e+06
3.47782e+06
3.48123e+06
3.48471e+06
3.48711e+06
3.47125e+06
3.44326e+06
3.43505e+06
3.4486e+06
3.46112e+06
3.47214e+06
3.47896e+06
3.48541e+06
3.48799e+06
3.49087e+06
3.49139e+06
3.49255e+06
3.49255e+06
3.31009e+06
3.34359e+06
3.34408e+06
3.38211e+06
3.39573e+06
3.42219e+06
3.43097e+06
3.44726e+06
3.45332e+06
3.46404e+06
3.46927e+06
3.47607e+06
3.48005e+06
3.33912e+06
3.37044e+06
3.36268e+06
3.40362e+06
3.42969e+06
3.45744e+06
3.4699e+06
3.48206e+06
3.48412e+06
3.49039e+06
3.48972e+06
3.49193e+06
3.49091e+06
3.29858e+06
3.24355e+06
3.2011e+06
3.29921e+06
3.3038e+06
3.36046e+06
3.36235e+06
3.40543e+06
3.41228e+06
3.43738e+06
3.44738e+06
3.46142e+06
3.4683e+06
3.41827e+06
3.39284e+06
3.27374e+06
3.40548e+06
3.42663e+06
3.46983e+06
3.46854e+06
3.49236e+06
3.48988e+06
3.4979e+06
3.49431e+06
3.49597e+06
3.49049e+06
2.89019e+06
3.12723e+06
2.91301e+06
3.20615e+06
3.17147e+06
3.23704e+06
3.25434e+06
3.31873e+06
3.35016e+06
3.39317e+06
3.4178e+06
3.43944e+06
3.45065e+06
3.85758e+06
3.2311e+06
3.09491e+06
3.47808e+06
3.20506e+06
3.46102e+06
3.24967e+06
3.53357e+06
3.53272e+06
3.5649e+06
3.52307e+06
3.49829e+06
3.48441e+06
4.00107e+06
3.48795e+06
2.20004e+06
3.39587e+06
3.48248e+06
3.30663e+06
2.98415e+06
3.1039e+06
3.06964e+06
3.16511e+06
3.32964e+06
3.37692e+06
3.42087e+06
4.00086e+06
4.00066e+06
4.00072e+06
4.00064e+06
3.91767e+06
3.92471e+06
1.44301e+06
3.98918e+06
3.93793e+06
3.99833e+06
3.64299e+06
3.47612e+06
3.48282e+06
4.00093e+06
4.00077e+06
4.00067e+06
4.00059e+06
4.00052e+06
4.00053e+06
4.00053e+06
4.0006e+06
4.00065e+06
4.00088e+06
4.00097e+06
4.00088e+06
4.00081e+06
4.00077e+06
4.00074e+06
4.00077e+06
4.00079e+06
4.00088e+06
4.00096e+06
4.00111e+06
4.00099e+06
4.00091e+06
4.00085e+06
4.00082e+06
4.00082e+06
4.00084e+06
4.00089e+06
4.00094e+06
4.00102e+06
4.00114e+06
4.00104e+06
4.00097e+06
4.00093e+06
4.00091e+06
4.00091e+06
4.00092e+06
4.00096e+06
4.00103e+06
4.00111e+06
4.02025e+06
4.04087e+06
4.03623e+06
4.03383e+06
4.03227e+06
4.03515e+06
4.04212e+06
4.05352e+06
4.06676e+06
4.07809e+06
4.082e+06
4.16961e+06
4.17046e+06
4.16932e+06
4.16904e+06
4.16802e+06
4.16731e+06
4.16614e+06
4.16548e+06
4.16449e+06
4.16532e+06
4.22223e+06
4.22791e+06
4.22747e+06
4.2303e+06
4.23089e+06
4.23107e+06
4.23052e+06
4.22804e+06
4.22656e+06
4.22402e+06
4.34305e+06
4.35389e+06
4.3533e+06
4.3558e+06
4.35361e+06
4.34968e+06
4.34326e+06
4.33453e+06
4.3266e+06
4.31995e+06
4.35475e+06
4.39932e+06
4.41525e+06
4.43167e+06
4.43409e+06
4.4285e+06
4.41621e+06
4.39103e+06
4.36839e+06
4.33547e+06
4.46025e+06
4.50994e+06
4.55333e+06
4.56782e+06
4.56852e+06
4.55859e+06
4.54103e+06
4.51142e+06
4.47877e+06
4.40272e+06
4.48701e+06
4.49632e+06
4.4991e+06
4.49895e+06
4.49891e+06
4.49873e+06
4.49853e+06
4.49805e+06
4.49858e+06
4.48805e+06
4.49666e+06
4.4963e+06
4.49618e+06
4.49618e+06
4.49622e+06
4.49637e+06
4.49657e+06
4.49677e+06
4.49699e+06
4.49721e+06
4.49673e+06
4.49722e+06
4.49754e+06
4.49766e+06
4.49773e+06
4.4976e+06
4.49756e+06
4.49712e+06
4.49716e+06
4.49625e+06
4.4966e+06
4.49649e+06
4.49662e+06
4.49671e+06
4.49678e+06
4.49686e+06
4.49697e+06
4.49703e+06
4.49712e+06
4.49717e+06
4.49719e+06
4.49714e+06
4.49725e+06
4.4973e+06
4.49737e+06
4.49736e+06
4.49743e+06
4.49735e+06
4.49735e+06
4.49725e+06
4.49681e+06
4.49671e+06
4.49688e+06
4.49697e+06
4.49707e+06
4.49715e+06
4.4973e+06
4.49737e+06
4.49741e+06
4.49741e+06
4.49719e+06
4.49716e+06
4.49726e+06
4.49734e+06
4.49744e+06
4.49749e+06
4.49758e+06
4.49761e+06
4.49764e+06
4.49762e+06
4.49696e+06
4.49695e+06
4.49719e+06
4.49737e+06
4.49748e+06
4.49752e+06
4.49759e+06
4.4976e+06
4.49764e+06
4.49764e+06
4.4973e+06
4.49729e+06
4.49742e+06
4.49762e+06
4.49776e+06
4.49779e+06
4.49781e+06
4.49779e+06
4.49778e+06
4.49778e+06
4.49718e+06
4.49718e+06
4.49741e+06
4.49769e+06
4.49784e+06
4.49786e+06
4.49787e+06
4.49784e+06
4.49783e+06
4.49783e+06
4.49733e+06
4.49737e+06
4.49757e+06
4.49785e+06
4.49799e+06
4.49801e+06
4.49798e+06
4.49796e+06
4.49795e+06
4.49795e+06
4.4973e+06
4.49736e+06
4.49758e+06
4.49785e+06
4.49801e+06
4.49805e+06
4.49803e+06
4.49801e+06
4.49801e+06
4.49801e+06
4.49761e+06
4.49751e+06
4.49779e+06
4.49797e+06
4.49811e+06
4.49814e+06
4.49813e+06
4.49811e+06
4.49811e+06
4.4981e+06
4.49761e+06
4.49759e+06
4.49793e+06
4.49806e+06
4.49816e+06
4.49816e+06
4.49815e+06
4.49814e+06
4.49814e+06
4.49814e+06
4.49805e+06
4.49809e+06
4.49812e+06
4.49816e+06
4.49821e+06
4.49822e+06
4.49821e+06
4.4982e+06
4.4982e+06
4.4982e+06
4.49806e+06
4.49816e+06
4.49823e+06
4.49823e+06
4.49825e+06
4.49824e+06
4.49822e+06
4.49822e+06
4.49823e+06
4.49823e+06