/*--------------------------------*- C++ -*----------------------------------*\
| =========                 |                                                 |
| \\      /  F ield         | OpenFOAM: The Open Source CFD Toolbox           |
|  \\    /   O peration     | Version:  v2012                                 |
|   \\  /    A nd           | Website:  www.openfoam.com                      |
|    \\/     M anipulation  |                                                 |
\*---------------------------------------------------------------------------*/
FoamFile
{
    version     2.0;
    format      ascii;
    class       volScalarField;
    location    "0.75";
    object      p_rgh;
}
// * * * * * * * * * * * * * * * * * * * * * * * * * * * * * * * * * * * * * //

dimensions      [1 -1 -2 0 0 0 0];


internalField   nonuniform List<scalar> 
3332
(
3.4987e+06
3.49919e+06
3.49921e+06
3.49919e+06
3.49909e+06
3.49925e+06
3.49919e+06
3.49914e+06
3.49758e+06
3.49835e+06
3.49854e+06
3.4986e+06
3.49869e+06
3.49902e+06
3.4992e+06
3.49924e+06
3.49928e+06
3.49923e+06
3.49923e+06
3.49926e+06
3.49925e+06
3.49925e+06
3.49925e+06
3.49782e+06
3.49813e+06
3.4982e+06
3.49847e+06
3.49866e+06
3.49891e+06
3.49903e+06
3.49911e+06
3.49915e+06
3.49914e+06
3.49913e+06
3.49918e+06
3.49919e+06
3.49919e+06
3.49921e+06
3.49763e+06
3.49794e+06
3.49801e+06
3.49825e+06
3.49853e+06
3.49875e+06
3.49886e+06
3.49898e+06
3.49904e+06
3.49906e+06
3.49907e+06
3.49913e+06
3.49914e+06
3.49914e+06
3.49916e+06
3.49766e+06
3.49783e+06
3.4979e+06
3.49822e+06
3.49855e+06
3.49875e+06
3.49885e+06
3.49895e+06
3.49899e+06
3.49901e+06
3.49901e+06
3.49908e+06
3.49909e+06
3.49909e+06
3.49911e+06
3.49718e+06
3.49782e+06
3.49782e+06
3.4982e+06
3.4985e+06
3.49871e+06
3.49882e+06
3.4989e+06
3.49895e+06
3.49896e+06
3.49896e+06
3.49903e+06
3.49904e+06
3.49904e+06
3.49906e+06
3.49718e+06
3.49766e+06
3.49771e+06
3.49823e+06
3.49859e+06
3.49879e+06
3.4989e+06
3.49896e+06
3.49899e+06
3.49898e+06
3.49897e+06
3.49902e+06
3.49901e+06
3.49901e+06
3.49903e+06
3.49666e+06
3.4976e+06
3.49775e+06
3.49823e+06
3.49858e+06
3.4988e+06
3.4989e+06
3.49894e+06
3.49897e+06
3.49895e+06
3.49893e+06
3.49897e+06
3.49897e+06
3.49897e+06
3.49898e+06
3.49669e+06
3.49739e+06
3.49762e+06
3.4983e+06
3.49877e+06
3.49895e+06
3.49902e+06
3.49902e+06
3.499e+06
3.49897e+06
3.49894e+06
3.49897e+06
3.49896e+06
3.49895e+06
3.49895e+06
3.49593e+06
3.49761e+06
3.49791e+06
3.49833e+06
3.49871e+06
3.49887e+06
3.49895e+06
3.49897e+06
3.49897e+06
3.49894e+06
3.49892e+06
3.49892e+06
3.49891e+06
3.4989e+06
3.4989e+06
3.49602e+06
3.49737e+06
3.49771e+06
3.49836e+06
3.49891e+06
3.49906e+06
3.49911e+06
3.49908e+06
3.49903e+06
3.49897e+06
3.49894e+06
3.49892e+06
3.49889e+06
3.49888e+06
3.49887e+06
3.49495e+06
3.49712e+06
3.49765e+06
3.49824e+06
3.49881e+06
3.49896e+06
3.49902e+06
3.49898e+06
3.49892e+06
3.49887e+06
3.49884e+06
3.49883e+06
3.49881e+06
3.49881e+06
3.4988e+06
3.49519e+06
3.49731e+06
3.49817e+06
3.4988e+06
3.4993e+06
3.49931e+06
3.49928e+06
3.49917e+06
3.49905e+06
3.49896e+06
3.49888e+06
3.49884e+06
3.4988e+06
3.49878e+06
3.49876e+06
3.49331e+06
3.49869e+06
3.49911e+06
3.49921e+06
3.49931e+06
3.49916e+06
3.49907e+06
3.49893e+06
3.49883e+06
3.49876e+06
3.49871e+06
3.49869e+06
3.49866e+06
3.49865e+06
3.49865e+06
3.49383e+06
3.49914e+06
3.50002e+06
3.50012e+06
3.50001e+06
3.49963e+06
3.49938e+06
3.49913e+06
3.49897e+06
3.49885e+06
3.49875e+06
3.49869e+06
3.49863e+06
3.49861e+06
3.49859e+06
3.49162e+06
3.49859e+06
3.50001e+06
3.49972e+06
3.49935e+06
3.49898e+06
3.49875e+06
3.4986e+06
3.4985e+06
3.49843e+06
3.4984e+06
3.49839e+06
3.49838e+06
3.49839e+06
3.49841e+06
3.49264e+06
3.49863e+06
3.50001e+06
3.49996e+06
3.4997e+06
3.49934e+06
3.49907e+06
3.49885e+06
3.49868e+06
3.49856e+06
3.49847e+06
3.49841e+06
3.49836e+06
3.49835e+06
3.49834e+06
3.49187e+06
3.49721e+06
3.49859e+06
3.49826e+06
3.49803e+06
3.49786e+06
3.49778e+06
3.49775e+06
3.49775e+06
3.49777e+06
3.49781e+06
3.49793e+06
3.49798e+06
3.49803e+06
3.49809e+06
3.49365e+06
3.49727e+06
3.49822e+06
3.49841e+06
3.49849e+06
3.49836e+06
3.49826e+06
3.49817e+06
3.4981e+06
3.49804e+06
3.49798e+06
3.49802e+06
3.49799e+06
3.49799e+06
3.49801e+06
3.4888e+06
3.49349e+06
3.49522e+06
3.49557e+06
3.49574e+06
3.49579e+06
3.49597e+06
3.49618e+06
3.49641e+06
3.49662e+06
3.49682e+06
3.49707e+06
3.49724e+06
3.4974e+06
3.49754e+06
3.49212e+06
3.49489e+06
3.4971e+06
3.49756e+06
3.49752e+06
3.49731e+06
3.49726e+06
3.49724e+06
3.49726e+06
3.49727e+06
3.49727e+06
3.49735e+06
3.49738e+06
3.49742e+06
3.49748e+06
3.47526e+06
3.49313e+06
3.49611e+06
3.49451e+06
3.49305e+06
3.49299e+06
3.49333e+06
3.49376e+06
3.49427e+06
3.49478e+06
3.49524e+06
3.49572e+06
3.4961e+06
3.49643e+06
3.49671e+06
3.48093e+06
3.49645e+06
3.49989e+06
3.49841e+06
3.49652e+06
3.49592e+06
3.49584e+06
3.49589e+06
3.49604e+06
3.49618e+06
3.49629e+06
3.49645e+06
3.49654e+06
3.49665e+06
3.49676e+06
3.46803e+06
3.48525e+06
3.49013e+06
3.48926e+06
3.48753e+06
3.48736e+06
3.48819e+06
3.48935e+06
3.49054e+06
3.49168e+06
3.49265e+06
3.49359e+06
3.49433e+06
3.49497e+06
3.49549e+06
3.47917e+06
3.49054e+06
3.49328e+06
3.49337e+06
3.49234e+06
3.49221e+06
3.49283e+06
3.49355e+06
3.49416e+06
3.49464e+06
3.49495e+06
3.49527e+06
3.49545e+06
3.49563e+06
3.49579e+06
3.45912e+06
3.46498e+06
3.46885e+06
3.47171e+06
3.47263e+06
3.4758e+06
3.47861e+06
3.48178e+06
3.48422e+06
3.4866e+06
3.48849e+06
3.49023e+06
3.49159e+06
3.49275e+06
3.49366e+06
3.4782e+06
3.47459e+06
3.47366e+06
3.47769e+06
3.48095e+06
3.4848e+06
3.48768e+06
3.49023e+06
3.49164e+06
3.49281e+06
3.49336e+06
3.49391e+06
3.49412e+06
3.43679e+06
3.42971e+06
3.42712e+06
3.43802e+06
3.4446e+06
3.4543e+06
3.46043e+06
3.46807e+06
3.4727e+06
3.47785e+06
3.48126e+06
3.48474e+06
3.48714e+06
3.47128e+06
3.44329e+06
3.43508e+06
3.44863e+06
3.46115e+06
3.47217e+06
3.47899e+06
3.48544e+06
3.48802e+06
3.4909e+06
3.49142e+06
3.49258e+06
3.49258e+06
3.31012e+06
3.34362e+06
3.34411e+06
3.38214e+06
3.39576e+06
3.42222e+06
3.431e+06
3.44729e+06
3.45335e+06
3.46407e+06
3.4693e+06
3.4761e+06
3.48008e+06
3.33916e+06
3.37048e+06
3.36271e+06
3.40365e+06
3.42972e+06
3.45747e+06
3.46994e+06
3.4821e+06
3.48415e+06
3.49042e+06
3.48976e+06
3.49196e+06
3.49094e+06
3.29864e+06
3.24359e+06
3.20113e+06
3.29924e+06
3.30384e+06
3.36051e+06
3.36238e+06
3.40547e+06
3.41231e+06
3.43742e+06
3.44741e+06
3.46145e+06
3.46833e+06
3.41833e+06
3.3929e+06
3.27376e+06
3.40551e+06
3.42669e+06
3.47003e+06
3.46857e+06
3.49239e+06
3.48991e+06
3.49791e+06
3.49435e+06
3.496e+06
3.49053e+06
2.89045e+06
3.12731e+06
2.91303e+06
3.20597e+06
3.17162e+06
3.23829e+06
3.2544e+06
3.31876e+06
3.35021e+06
3.3931e+06
3.41783e+06
3.43948e+06
3.45068e+06
3.85813e+06
3.23119e+06
3.09479e+06
3.47805e+06
3.2052e+06
3.46112e+06
3.24974e+06
3.53366e+06
3.53277e+06
3.56495e+06
3.5231e+06
3.49833e+06
3.48444e+06
4.00121e+06
3.48731e+06
2.19987e+06
3.39548e+06
3.48381e+06
3.30784e+06
2.98424e+06
3.10487e+06
3.07015e+06
3.16483e+06
3.32911e+06
3.37693e+06
3.4209e+06
4.001e+06
4.00077e+06
4.00082e+06
4.00072e+06
4.0002e+06
4e+06
1.4445e+06
4e+06
3.95641e+06
3.99867e+06
3.64593e+06
3.47618e+06
3.48284e+06
4.00111e+06
4.00094e+06
4.00083e+06
4.00075e+06
4.00067e+06
4.00069e+06
4.00069e+06
4.00077e+06
4.00083e+06
4.00107e+06
4.00119e+06
4.00109e+06
4.00101e+06
4.00097e+06
4.00094e+06
4.00096e+06
4.00099e+06
4.00108e+06
4.00118e+06
4.00134e+06
4.00124e+06
4.00115e+06
4.00109e+06
4.00106e+06
4.00105e+06
4.00107e+06
4.00112e+06
4.00118e+06
4.00127e+06
4.00139e+06
4.00129e+06
4.00122e+06
4.00118e+06
4.00116e+06
4.00116e+06
4.00118e+06
4.00122e+06
4.00128e+06
4.00137e+06
4.02051e+06
4.04113e+06
4.03649e+06
4.0341e+06
4.03253e+06
4.03541e+06
4.04238e+06
4.05378e+06
4.06702e+06
4.07835e+06
4.08226e+06
4.16987e+06
4.17072e+06
4.16958e+06
4.16931e+06
4.16828e+06
4.16758e+06
4.1664e+06
4.16574e+06
4.16475e+06
4.16558e+06
4.2225e+06
4.22817e+06
4.22773e+06
4.23057e+06
4.23116e+06
4.23133e+06
4.23078e+06
4.2283e+06
4.22683e+06
4.22429e+06
4.34332e+06
4.35416e+06
4.35357e+06
4.35607e+06
4.35388e+06
4.34995e+06
4.34353e+06
4.3348e+06
4.32686e+06
4.32021e+06
4.35502e+06
4.39958e+06
4.41552e+06
4.43194e+06
4.43436e+06
4.42877e+06
4.41648e+06
4.3913e+06
4.36866e+06
4.33574e+06
4.46052e+06
4.51022e+06
4.55361e+06
4.56809e+06
4.56879e+06
4.55886e+06
4.5413e+06
4.51169e+06
4.47904e+06
4.40299e+06
4.48728e+06
4.49659e+06
4.49938e+06
4.49922e+06
4.49918e+06
4.49901e+06
4.4988e+06
4.49832e+06
4.49885e+06
4.48832e+06
4.49694e+06
4.49658e+06
4.49646e+06
4.49645e+06
4.4965e+06
4.49665e+06
4.49685e+06
4.49704e+06
4.49726e+06
4.49748e+06
4.497e+06
4.49749e+06
4.49782e+06
4.49794e+06
4.49801e+06
4.49788e+06
4.49784e+06
4.4974e+06
4.49744e+06
4.49653e+06
4.49688e+06
4.49677e+06
4.4969e+06
4.49699e+06
4.49706e+06
4.49714e+06
4.49725e+06
4.49731e+06
4.4974e+06
4.49745e+06
4.49747e+06
4.49742e+06
4.49754e+06
4.49758e+06
4.49765e+06
4.49764e+06
4.49771e+06
4.49763e+06
4.49763e+06
4.49753e+06
4.49709e+06
4.49699e+06
4.49716e+06
4.49725e+06
4.49735e+06
4.49744e+06
4.49758e+06
4.49765e+06
4.49769e+06
4.4977e+06
4.49747e+06
4.49745e+06
4.49755e+06
4.49763e+06
4.49773e+06
4.49777e+06
4.49787e+06
4.49789e+06
4.49792e+06
4.4979e+06
4.49725e+06
4.49723e+06
4.49747e+06
4.49766e+06
4.49777e+06
4.49781e+06
4.49787e+06
4.49789e+06
4.49793e+06
4.49792e+06
4.49759e+06
4.49758e+06
4.49771e+06
4.49791e+06
4.49805e+06
4.49808e+06
4.4981e+06
4.49808e+06
4.49807e+06
4.49807e+06
4.49747e+06
4.49747e+06
4.4977e+06
4.49798e+06
4.49813e+06
4.49815e+06
4.49816e+06
4.49813e+06
4.49812e+06
4.49812e+06
4.49762e+06
4.49766e+06
4.49786e+06
4.49814e+06
4.49829e+06
4.49831e+06
4.49828e+06
4.49825e+06
4.49825e+06
4.49824e+06
4.49759e+06
4.49766e+06
4.49787e+06
4.49815e+06
4.49831e+06
4.49834e+06
4.49833e+06
4.49831e+06
4.49831e+06
4.4983e+06
4.49791e+06
4.49781e+06
4.49809e+06
4.49826e+06
4.49841e+06
4.49844e+06
4.49842e+06
4.49841e+06
4.49841e+06
4.4984e+06
4.49791e+06
4.49789e+06
4.49823e+06
4.49836e+06
4.49846e+06
4.49846e+06
4.49845e+06
4.49844e+06
4.49844e+06
4.49844e+06
4.49835e+06
4.49839e+06
4.49842e+06
4.49846e+06
4.49851e+06
4.49853e+06
4.49851e+06
4.4985e+06
4.4985e+06
4.4985e+06
4.49837e+06
4.49846e+06
4.49853e+06
4.49854e+06
4.49855e+06
4.49855e+06
4.49853e+06
4.49853e+06
4.49853e+06
4.49853e+06
4.49851e+06
4.49857e+06
4.4986e+06
4.4986e+06
4.4986e+06
4.49858e+06
4.49858e+06
4.49857e+06
4.49857e+06
4.49857e+06
4.49855e+06
4.4986e+06
4.4986e+06
4.4986e+06
4.49861e+06
4.4986e+06
4.4986e+06
4.4986e+06
4.49861e+06
4.49861e+06
4.49857e+06
4.4986e+06
4.49862e+06
4.49863e+06
4.49863e+06
4.49864e+06
4.49864e+06
4.49865e+06
4.49865e+06
4.49865e+06
4.49861e+06
4.49863e+06
4.49863e+06
4.49863e+06
4.49864e+06
4.49865e+06
4.49865e+06
4.49865e+06
4.49865e+06
4.49866e+06
4.4986e+06
4.49868e+06
4.49867e+06
4.49868e+06
4.49869e+06
4.49869e+06
4.49865e+06
4.49864e+06
4.49865e+06
4.49866e+06
4.49863e+06
4.49869e+06
4.49866e+06
4.49868e+06
4.4987e+06
4.49871e+06
4.49866e+06
4.49865e+06
4.49866e+06
4.49866e+06
4.4987e+06
4.49867e+06
4.49866e+06
4.49869e+06
4.49877e+06
4.49878e+06
4.49874e+06
4.49872e+06
4.49873e+06
4.49873e+06
4.49871e+06
4.49866e+06
4.49865e+06
4.49868e+06
4.49877e+06
4.49879e+06
4.49876e+06
4.49876e+06
4.49876e+06
4.49877e+06
4.4988e+06
4.49877e+06
4.49877e+06
4.49879e+06
4.49882e+06
4.49884e+06
4.49885e+06
4.49885e+06
4.49886e+06
4.49886e+06
4.49879e+06
4.49874e+06
4.49877e+06
4.49879e+06
4.49882e+06
4.49884e+06
4.49886e+06
4.49887e+06
4.49888e+06
4.49888e+06
4.49894e+06
4.49889e+06
4.49894e+06
4.49897e+06
4.49899e+06
4.49901e+06
4.49903e+06
4.49903e+06
4.49903e+06
4.49903e+06
4.4989e+06
4.49884e+06
4.49893e+06
4.49897e+06
4.499e+06
4.49901e+06
4.49902e+06
4.49901e+06
4.49901e+06
4.499e+06
4.49916e+06
4.49912e+06
4.49919e+06
4.49924e+06
4.49926e+06
4.49927e+06
4.49928e+06
4.49927e+06
4.49927e+06
4.49926e+06
4.49912e+06
4.49909e+06
4.49918e+06
4.49925e+06
4.49928e+06
4.49927e+06
4.49926e+06
4.4992e+06
4.49915e+06
4.49901e+06
4.49938e+06
4.49948e+06
4.4995e+06
4.49956e+06
4.4996e+06
4.49961e+06
4.49965e+06
4.49961e+06
4.49966e+06
4.49968e+06
4.49995e+06
4.49988e+06
4.49995e+06
4.49995e+06
4.49997e+06
4.49998e+06
4.49999e+06
4.49934e+06
4.4995e+06
4.49954e+06
4.49962e+06
4.49967e+06
4.49965e+06
4.49969e+06
4.49965e+06
4.49967e+06
4.49972e+06
4.49988e+06
4.49988e+06
4.49994e+06
4.49995e+06
4.49997e+06
4.49997e+06
4.49998e+06
4.49947e+06
4.49972e+06
4.49978e+06
4.49979e+06
4.49983e+06
4.4998e+06
4.49983e+06
4.49984e+06
4.49988e+06
4.49987e+06
4.49993e+06
4.49992e+06
4.49995e+06
4.49996e+06
4.49997e+06
4.49998e+06
4.49998e+06
4.49944e+06
4.49974e+06
4.49982e+06
4.49983e+06
4.49987e+06
4.49982e+06
4.49983e+06
4.49984e+06
4.49987e+06
4.49988e+06
4.49992e+06
4.49993e+06
4.49995e+06
4.49996e+06
4.49997e+06
4.49998e+06
4.49998e+06
4.49977e+06
4.49987e+06
4.49993e+06
4.49995e+06
4.49998e+06
4.49991e+06
4.49992e+06
4.49992e+06
4.49993e+06
4.49993e+06
4.49995e+06
4.49996e+06
4.49997e+06
4.49997e+06
4.49998e+06
4.49998e+06
4.49999e+06
4.49977e+06
4.4999e+06
4.49996e+06
4.49997e+06
4.49999e+06
4.49993e+06
4.49993e+06
4.49993e+06
4.49994e+06
4.49994e+06
4.49995e+06
4.49996e+06
4.49997e+06
4.49998e+06
4.49998e+06
4.49998e+06
4.49999e+06
4.49986e+06
4.49993e+06
4.49995e+06
4.49997e+06
4.49997e+06
4.49996e+06
4.49997e+06
4.49997e+06
4.49997e+06
4.49997e+06
4.49998e+06
4.49998e+06
4.49998e+06
4.49998e+06
4.49999e+06
4.49999e+06
4.49999e+06
4.49987e+06
4.49996e+06
4.49997e+06
4.49997e+06
4.49997e+06
4.49997e+06
4.49997e+06
4.49997e+06
4.49997e+06
4.49997e+06
4.49998e+06
4.49998e+06
4.49998e+06
4.49999e+06
4.49999e+06
4.49999e+06
4.49999e+06
4.50002e+06
4.50002e+06
4.50002e+06
4.50001e+06
4.5e+06
4.5e+06
4.49999e+06
4.49999e+06
4.49999e+06
4.49999e+06
4.49999e+06
4.49999e+06
4.49999e+06
4.49999e+06
4.49999e+06
4.49999e+06
4.49999e+06
4.50002e+06
4.50002e+06
4.50002e+06
4.50001e+06
4.5e+06
4.49999e+06
4.49999e+06
4.49999e+06
4.49999e+06
4.49999e+06
4.49999e+06
4.49999e+06
4.49999e+06
4.49999e+06
4.49999e+06
4.49999e+06
4.49999e+06
4.50004e+06
4.50006e+06
4.50004e+06
4.50002e+06
4.50001e+06
4.5e+06
4.5e+06
4.5e+06
4.49999e+06
4.49999e+06
4.49999e+06
4.49999e+06
4.49999e+06
4.49999e+06
4.49999e+06
4.5e+06
4.5e+06
4.5e+06
4.5e+06
4.50004e+06
4.50005e+06
4.50003e+06
4.50002e+06
4.50001e+06
4.5e+06
4.5e+06
4.49999e+06
4.49999e+06
4.49999e+06
4.49999e+06
4.49999e+06
4.49999e+06
4.49999e+06
4.5e+06
4.5e+06
4.5e+06
4.5e+06
4.5e+06
4.50004e+06
4.50005e+06
4.50003e+06
4.50002e+06
4.50001e+06
4.5e+06
4.5e+06
4.5e+06
4.5e+06
4.5e+06
4.5e+06
4.5e+06
4.5e+06
4.5e+06
4.5e+06
4.5e+06
4.5e+06
4.5e+06
4.5e+06
4.50001e+06
4.50002e+06
4.50001e+06
4.50001e+06
4.5e+06
4.5e+06
4.5e+06
4.5e+06
4.5e+06
4.5e+06
4.5e+06
4.5e+06
4.5e+06
4.5e+06
4.5e+06
4.5e+06
4.5e+06
4.5e+06
4.5e+06
4.50001e+06
4.50001e+06
4.50001e+06
4.5e+06
4.5e+06
4.5e+06
4.5e+06
4.5e+06
4.5e+06
4.5e+06
4.5e+06
4.5e+06
4.5e+06
4.5e+06
4.5e+06
4.5e+06
4.5e+06
4.5e+06
4.5e+06
4.5e+06
4.5e+06
4.5e+06
4.5e+06
4.5e+06
4.5e+06
4.5e+06
4.5e+06
4.5e+06
4.5e+06
4.5e+06
4.5e+06
4.5e+06
4.5e+06
4.5e+06
4.5e+06
4.5e+06
4.5e+06
4.5e+06
4.5e+06
4.5e+06
4.5e+06
4.5e+06
4.5e+06
4.5e+06
4.5e+06
4.5e+06
4.5e+06
4.5e+06
4.5e+06
4.5e+06
4.5e+06
4.5e+06
4.5e+06
4.5e+06
4.5e+06
4.5e+06
4.5e+06
4.5e+06
4.5e+06
4.5e+06
4.5e+06
4.5e+06
4.5e+06
4.5e+06
4.5e+06
4.5e+06
4.5e+06
4.5e+06
4.5e+06
4.5e+06
4.5e+06
4.5e+06
4.5e+06
4.5e+06
4.5e+06
4.5e+06
4.5e+06
4.5e+06
4.5e+06
4.5e+06
4.5e+06
4.5e+06
4.5e+06
4.5e+06
4.5e+06
4.5e+06
4.5e+06
4.5e+06
4.5e+06
4.5e+06
4.5e+06
4.5e+06
4.5e+06
4.5e+06
4.5e+06
4.5e+06
4.5e+06
4.5e+06
4.5e+06
4.5e+06
4.5e+06
4.5e+06
4.5e+06
4.5e+06
4.5e+06
4.5e+06
4.5e+06
4.5e+06
4.5e+06
4.5e+06
4.5e+06
4.5e+06
4.5e+06
4.5e+06
4.5e+06
4.5e+06
4.5e+06
4.5e+06
4.5e+06
4.5e+06
4.5e+06
4.5e+06
4.5e+06
4.5e+06
4.5e+06
4.5e+06
4.5e+06
4.5e+06
4.5e+06
4.5e+06
4.5e+06
4.5e+06
4.5e+06
4.5e+06
4.5e+06
4.5e+06
4.5e+06
4.5e+06
4.5e+06
4.5e+06
4.5e+06
4.5e+06
4.5e+06
4.5e+06
4.5e+06
4.5e+06
4.5e+06
4.5e+06
4.5e+06
4.5e+06
4.5e+06
4.5e+06
4.5e+06
4.5e+06
4.5e+06
4.5e+06
4.5e+06
4.5e+06
4.5e+06
4.5e+06
4.5e+06
4.5e+06
4.5e+06
4.5e+06
4.5e+06
4.5e+06
4.5e+06
4.5e+06
4.5e+06
4.5e+06
4.5e+06
4.5e+06
4.5e+06
4.5e+06
4.5e+06
4.5e+06
4.5e+06
4.5e+06
4.5e+06
4.5e+06
4.5e+06
4.5e+06
4.5e+06
4.5e+06
4.5e+06
4.5e+06
4.5e+06
4.5e+06
4.5e+06
4.5e+06
4.5e+06
4.5e+06
4.5e+06
4.5e+06
4.5e+06
4.5e+06
4.5e+06
4.5e+06
4.5e+06
4.5e+06
4.5e+06
4.5e+06
4.5e+06
4.5e+06
4.5e+06
4.5e+06
4.5e+06
4.5e+06
4.5e+06
4.5e+06
4.5e+06
4.5e+06
4.5e+06
4.5e+06
4.5e+06
4.5e+06
4.5e+06
4.5e+06
4.5e+06
4.5e+06
4.5e+06
4.5e+06
4.5e+06
4.5e+06
4.5e+06
4.5e+06
4.5e+06
4.5e+06
4.5e+06
4.5e+06
4.5e+06
4.5e+06
4.5e+06
4.5e+06
4.5e+06
4.5e+06
4.5e+06
4.5e+06
4.5e+06
4.5e+06
4.5e+06
4.5e+06
4.5e+06
4.5e+06
4.5e+06
4.5e+06
4.5e+06
4.5e+06
4.5e+06
4.5e+06
4.5e+06
4.5e+06
4.5e+06
4.5e+06
4.5e+06
4.5e+06
4.5e+06
4.5e+06
4.5e+06
4.5e+06
4.5e+06
4.5e+06
4.5e+06
4.5e+06
4.5e+06
4.5e+06
4.5e+06
4.5e+06
4.5e+06
4.5e+06
4.5e+06
4.5e+06
4.5e+06
4.5e+06
4.5e+06
4.5e+06
4.5e+06
4.5e+06
4.5e+06
4.5e+06
4.5e+06
4.5e+06
4.5e+06
4.5e+06
4.5e+06
4.5e+06
4.5e+06
4.5e+06
4.5e+06
4.5e+06
4.5e+06
4.5e+06
4.5e+06
4.5e+06
4.5e+06
4.5e+06
4.5e+06
4.5e+06
4.5e+06
4.5e+06
4.5e+06
4.5e+06
4.5e+06
4.5e+06
4.5e+06
4.5e+06
4.5e+06
4.5e+06
4.5e+06
4.5e+06
4.5e+06
4.5e+06
4.5e+06
4.5e+06
4.5e+06
4.5e+06
4.5e+06
4.5e+06
4.5e+06
4.5e+06
4.5e+06
4.5e+06
4.5e+06
4.5e+06
4.5e+06
4.5e+06
4.5e+06
4.5e+06
4.5e+06
4.5e+06
4.5e+06
4.5e+06
4.5e+06
4.5e+06
4.5e+06
4.5e+06
4.5e+06
4.5e+06
4.5e+06
4.5e+06
4.5e+06
4.5e+06
4.5e+06
4.5e+06
4.5e+06
4.5e+06
4.5e+06
4.5e+06
4.5e+06
4.5e+06
4.5e+06
4.5e+06
4.5e+06
4.5e+06
4.5e+06
4.5e+06
4.5e+06
4.5e+06
4.5e+06
4.5e+06
4.5e+06
4.5e+06
4.5e+06
4.5e+06
4.5e+06
4.5e+06
4.5e+06
4.5e+06
4.5e+06
4.5e+06
4.5e+06
4.5e+06
4.5e+06
4.5e+06
4.5e+06
4.5e+06
4.5e+06
4.5e+06
4.5e+06
4.5e+06
4.5e+06
4.5e+06
4.5e+06
4.5e+06
4.5e+06
4.5e+06
4.5e+06
4.5e+06
4.5e+06
4.5e+06
4.5e+06
4.5e+06
4.5e+06
4.5e+06
4.5e+06
4.5e+06
4.5e+06
4.5e+06
4.5e+06
4.5e+06
4.5e+06
4.5e+06
4.5e+06
4.5e+06
4.5e+06
4.5e+06
4.5e+06
4.5e+06
4.5e+06
4.5e+06
4.5e+06
4.5e+06
4.5e+06
4.5e+06
4.5e+06
4.5e+06
4.5e+06
4.5e+06
4.5e+06
4.5e+06
4.5e+06
4.5e+06
4.5e+06
4.5e+06
4.5e+06
4.5e+06
4.5e+06
4.5e+06
4.5e+06
4.5e+06
4.5e+06
4.5e+06
4.5e+06
4.5e+06
4.5e+06
4.5e+06
4.5e+06
4.5e+06
4.5e+06
4.5e+06
4.5e+06
4.5e+06
4.5e+06
4.5e+06
4.5e+06
4.5e+06
4.5e+06
4.5e+06
4.5e+06
4.5e+06
4.5e+06
4.5e+06
4.5e+06
4.5e+06
4.5e+06
4.5e+06
4.5e+06
4.5e+06
4.5e+06
4.5e+06
4.5e+06
4.5e+06
4.5e+06
4.5e+06
4.5e+06
4.5e+06
4.5e+06
4.5e+06
4.5e+06
4.5e+06
4.5e+06
4.5e+06
4.5e+06
4.5e+06
4.5e+06
4.5e+06
4.5e+06
4.5e+06
4.5e+06
4.5e+06
4.5e+06
4.5e+06
4.5e+06
4.5e+06
4.5e+06
4.5e+06
4.5e+06
4.5e+06
4.5e+06
4.5e+06
4.5e+06
4.5e+06
4.5e+06
4.5e+06
3.4987e+06
3.49919e+06
3.49921e+06
3.49919e+06
3.49909e+06
3.49925e+06
3.49919e+06
3.49915e+06
3.49758e+06
3.49835e+06
3.49854e+06
3.4986e+06
3.49869e+06
3.49902e+06
3.4992e+06
3.49924e+06
3.49928e+06
3.49923e+06
3.49923e+06
3.49926e+06
3.49925e+06
3.49925e+06
3.49925e+06
3.49782e+06
3.49813e+06
3.4982e+06
3.49847e+06
3.49866e+06
3.49891e+06
3.49903e+06
3.49911e+06
3.49915e+06
3.49914e+06
3.49913e+06
3.49918e+06
3.49919e+06
3.49919e+06
3.49921e+06
3.49763e+06
3.49794e+06
3.49801e+06
3.49825e+06
3.49853e+06
3.49875e+06
3.49886e+06
3.49898e+06
3.49904e+06
3.49906e+06
3.49907e+06
3.49913e+06
3.49914e+06
3.49914e+06
3.49916e+06
3.49766e+06
3.49783e+06
3.4979e+06
3.49822e+06
3.49855e+06
3.49875e+06
3.49885e+06
3.49895e+06
3.49899e+06
3.49901e+06
3.49901e+06
3.49908e+06
3.49909e+06
3.49909e+06
3.49911e+06
3.49718e+06
3.49782e+06
3.49782e+06
3.4982e+06
3.4985e+06
3.49871e+06
3.49882e+06
3.4989e+06
3.49895e+06
3.49896e+06
3.49896e+06
3.49903e+06
3.49904e+06
3.49904e+06
3.49906e+06
3.49718e+06
3.49766e+06
3.49771e+06
3.49823e+06
3.49859e+06
3.49879e+06
3.4989e+06
3.49896e+06
3.49899e+06
3.49898e+06
3.49897e+06
3.49902e+06
3.49901e+06
3.49901e+06
3.49903e+06
3.49666e+06
3.4976e+06
3.49775e+06
3.49823e+06
3.49858e+06
3.4988e+06
3.4989e+06
3.49894e+06
3.49897e+06
3.49895e+06
3.49893e+06
3.49897e+06
3.49897e+06
3.49897e+06
3.49898e+06
3.49669e+06
3.49739e+06
3.49762e+06
3.4983e+06
3.49877e+06
3.49895e+06
3.49902e+06
3.49902e+06
3.499e+06
3.49897e+06
3.49894e+06
3.49897e+06
3.49896e+06
3.49895e+06
3.49895e+06
3.49593e+06
3.49761e+06
3.49791e+06
3.49833e+06
3.49871e+06
3.49887e+06
3.49895e+06
3.49897e+06
3.49897e+06
3.49894e+06
3.49892e+06
3.49892e+06
3.49891e+06
3.4989e+06
3.4989e+06
3.49602e+06
3.49737e+06
3.49771e+06
3.49836e+06
3.49891e+06
3.49906e+06
3.49911e+06
3.49908e+06
3.49903e+06
3.49897e+06
3.49894e+06
3.49892e+06
3.49889e+06
3.49888e+06
3.49887e+06
3.49495e+06
3.49712e+06
3.49765e+06
3.49824e+06
3.49881e+06
3.49896e+06
3.49902e+06
3.49898e+06
3.49892e+06
3.49887e+06
3.49884e+06
3.49883e+06
3.49881e+06
3.49881e+06
3.4988e+06
3.49519e+06
3.49731e+06
3.49817e+06
3.4988e+06
3.4993e+06
3.49931e+06
3.49928e+06
3.49917e+06
3.49905e+06
3.49896e+06
3.49888e+06
3.49884e+06
3.4988e+06
3.49878e+06
3.49876e+06
3.49331e+06
3.49869e+06
3.49911e+06
3.49921e+06
3.49931e+06
3.49916e+06
3.49907e+06
3.49893e+06
3.49883e+06
3.49876e+06
3.49871e+06
3.49869e+06
3.49866e+06
3.49865e+06
3.49865e+06
3.49383e+06
3.49914e+06
3.50002e+06
3.50012e+06
3.50001e+06
3.49963e+06
3.49938e+06
3.49913e+06
3.49897e+06
3.49885e+06
3.49875e+06
3.49869e+06
3.49863e+06
3.49861e+06
3.49859e+06
3.49162e+06
3.49859e+06
3.50001e+06
3.49972e+06
3.49935e+06
3.49898e+06
3.49875e+06
3.4986e+06
3.4985e+06
3.49843e+06
3.4984e+06
3.49839e+06
3.49838e+06
3.49839e+06
3.49841e+06
3.49264e+06
3.49863e+06
3.50001e+06
3.49996e+06
3.4997e+06
3.49934e+06
3.49907e+06
3.49885e+06
3.49868e+06
3.49856e+06
3.49847e+06
3.49841e+06
3.49836e+06
3.49835e+06
3.49834e+06
3.49187e+06
3.49721e+06
3.49859e+06
3.49826e+06
3.49803e+06
3.49786e+06
3.49778e+06
3.49775e+06
3.49775e+06
3.49777e+06
3.49781e+06
3.49793e+06
3.49798e+06
3.49803e+06
3.49809e+06
3.49365e+06
3.49727e+06
3.49822e+06
3.49841e+06
3.49849e+06
3.49836e+06
3.49826e+06
3.49817e+06
3.4981e+06
3.49804e+06
3.49798e+06
3.49802e+06
3.49799e+06
3.49799e+06
3.49801e+06
3.4888e+06
3.49349e+06
3.49522e+06
3.49557e+06
3.49574e+06
3.49579e+06
3.49597e+06
3.49618e+06
3.49641e+06
3.49662e+06
3.49682e+06
3.49707e+06
3.49724e+06
3.4974e+06
3.49754e+06
3.49212e+06
3.49489e+06
3.4971e+06
3.49756e+06
3.49752e+06
3.49731e+06
3.49726e+06
3.49724e+06
3.49726e+06
3.49727e+06
3.49727e+06
3.49735e+06
3.49738e+06
3.49742e+06
3.49748e+06
3.47526e+06
3.49313e+06
3.49611e+06
3.49451e+06
3.49305e+06
3.49299e+06
3.49333e+06
3.49376e+06
3.49427e+06
3.49478e+06
3.49524e+06
3.49572e+06
3.4961e+06
3.49643e+06
3.49671e+06
3.48093e+06
3.49645e+06
3.49989e+06
3.49841e+06
3.49652e+06
3.49592e+06
3.49584e+06
3.49589e+06
3.49604e+06
3.49618e+06
3.49629e+06
3.49645e+06
3.49654e+06
3.49665e+06
3.49676e+06
3.46803e+06
3.48525e+06
3.49013e+06
3.48926e+06
3.48753e+06
3.48736e+06
3.48819e+06
3.48935e+06
3.49054e+06
3.49168e+06
3.49266e+06
3.49359e+06
3.49433e+06
3.49497e+06
3.49549e+06
3.47916e+06
3.49054e+06
3.49328e+06
3.49337e+06
3.49234e+06
3.49221e+06
3.49283e+06
3.49355e+06
3.49416e+06
3.49464e+06
3.49495e+06
3.49527e+06
3.49545e+06
3.49563e+06
3.49579e+06
3.45912e+06
3.46498e+06
3.46885e+06
3.47171e+06
3.47263e+06
3.4758e+06
3.47861e+06
3.48178e+06
3.48422e+06
3.4866e+06
3.48849e+06
3.49023e+06
3.49159e+06
3.49275e+06
3.49366e+06
3.4782e+06
3.47459e+06
3.47366e+06
3.47769e+06
3.48095e+06
3.4848e+06
3.48768e+06
3.49023e+06
3.49164e+06
3.49281e+06
3.49336e+06
3.49391e+06
3.49412e+06
3.43679e+06
3.42971e+06
3.42712e+06
3.43802e+06
3.4446e+06
3.4543e+06
3.46043e+06
3.46807e+06
3.4727e+06
3.47785e+06
3.48126e+06
3.48474e+06
3.48714e+06
3.47128e+06
3.44329e+06
3.43508e+06
3.44863e+06
3.46115e+06
3.47217e+06
3.47899e+06
3.48544e+06
3.48802e+06
3.4909e+06
3.49142e+06
3.49258e+06
3.49258e+06
3.31012e+06
3.34362e+06
3.34411e+06
3.38214e+06
3.39576e+06
3.42222e+06
3.431e+06
3.44729e+06
3.45335e+06
3.46407e+06
3.4693e+06
3.4761e+06
3.48008e+06
3.33915e+06
3.37047e+06
3.36272e+06
3.40365e+06
3.42972e+06
3.45747e+06
3.46993e+06
3.4821e+06
3.48415e+06
3.49042e+06
3.48976e+06
3.49197e+06
3.49094e+06
3.29861e+06
3.24358e+06
3.20113e+06
3.29924e+06
3.30383e+06
3.36049e+06
3.36239e+06
3.40546e+06
3.41231e+06
3.43742e+06
3.44741e+06
3.46145e+06
3.46833e+06
3.4183e+06
3.39288e+06
3.27377e+06
3.40551e+06
3.42666e+06
3.46986e+06
3.46857e+06
3.49239e+06
3.48991e+06
3.49793e+06
3.49434e+06
3.496e+06
3.49052e+06
2.89023e+06
3.12726e+06
2.91305e+06
3.20618e+06
3.1715e+06
3.23707e+06
3.25437e+06
3.31877e+06
3.35019e+06
3.3932e+06
3.41783e+06
3.43947e+06
3.45068e+06
3.85761e+06
3.23113e+06
3.09494e+06
3.47811e+06
3.2051e+06
3.46105e+06
3.2497e+06
3.53361e+06
3.53275e+06
3.56493e+06
3.52311e+06
3.49832e+06
3.48444e+06
4.00117e+06
3.48798e+06
2.20007e+06
3.39591e+06
3.48251e+06
3.30666e+06
2.98418e+06
3.10393e+06
3.06968e+06
3.16515e+06
3.32967e+06
3.37695e+06
3.4209e+06
4.001e+06
4.00077e+06
4.00082e+06
4.00073e+06
3.91771e+06
3.92474e+06
1.44305e+06
3.98922e+06
3.93797e+06
3.99838e+06
3.64302e+06
3.47615e+06
3.48285e+06
4.00111e+06
4.00094e+06
4.00083e+06
4.00075e+06
4.00067e+06
4.00069e+06
4.00069e+06
4.00076e+06
4.00083e+06
4.00107e+06
4.00119e+06
4.00109e+06
4.00101e+06
4.00097e+06
4.00094e+06
4.00096e+06
4.00099e+06
4.00108e+06
4.00118e+06
4.00134e+06
4.00124e+06
4.00115e+06
4.00109e+06
4.00106e+06
4.00105e+06
4.00107e+06
4.00112e+06
4.00118e+06
4.00127e+06
4.00139e+06
4.00129e+06
4.00122e+06
4.00118e+06
4.00116e+06
4.00116e+06
4.00118e+06
4.00122e+06
4.00128e+06
4.00137e+06
4.02051e+06
4.04113e+06
4.03649e+06
4.03409e+06
4.03253e+06
4.03541e+06
4.04238e+06
4.05378e+06
4.06702e+06
4.07835e+06
4.08226e+06
4.16987e+06
4.17072e+06
4.16958e+06
4.1693e+06
4.16828e+06
4.16758e+06
4.1664e+06
4.16574e+06
4.16475e+06
4.16558e+06
4.2225e+06
4.22817e+06
4.22773e+06
4.23057e+06
4.23116e+06
4.23133e+06
4.23078e+06
4.2283e+06
4.22683e+06
4.22429e+06
4.34332e+06
4.35416e+06
4.35357e+06
4.35607e+06
4.35388e+06
4.34995e+06
4.34353e+06
4.3348e+06
4.32686e+06
4.32021e+06
4.35502e+06
4.39958e+06
4.41552e+06
4.43194e+06
4.43436e+06
4.42877e+06
4.41648e+06
4.3913e+06
4.36866e+06
4.33574e+06
4.46052e+06
4.51022e+06
4.55361e+06
4.56809e+06
4.56879e+06
4.55886e+06
4.5413e+06
4.51169e+06
4.47904e+06
4.40299e+06
4.48728e+06
4.49659e+06
4.49938e+06
4.49922e+06
4.49918e+06
4.49901e+06
4.4988e+06
4.49832e+06
4.49885e+06
4.48832e+06
4.49694e+06
4.49658e+06
4.49646e+06
4.49645e+06
4.4965e+06
4.49665e+06
4.49685e+06
4.49704e+06
4.49726e+06
4.49748e+06
4.497e+06
4.49749e+06
4.49782e+06
4.49794e+06
4.49801e+06
4.49788e+06
4.49784e+06
4.4974e+06
4.49744e+06
4.49653e+06
4.49688e+06
4.49677e+06
4.4969e+06
4.49699e+06
4.49706e+06
4.49714e+06
4.49725e+06
4.49731e+06
4.4974e+06
4.49745e+06
4.49747e+06
4.49742e+06
4.49754e+06
4.49758e+06
4.49765e+06
4.49764e+06
4.49771e+06
4.49763e+06
4.49763e+06
4.49753e+06
4.49709e+06
4.49699e+06
4.49716e+06
4.49725e+06
4.49735e+06
4.49744e+06
4.49758e+06
4.49765e+06
4.49769e+06
4.4977e+06
4.49747e+06
4.49745e+06
4.49755e+06
4.49763e+06
4.49773e+06
4.49777e+06
4.49787e+06
4.49789e+06
4.49792e+06
4.4979e+06
4.49725e+06
4.49723e+06
4.49747e+06
4.49766e+06
4.49777e+06
4.49781e+06
4.49787e+06
4.49789e+06
4.49793e+06
4.49792e+06
4.49759e+06
4.49758e+06
4.49771e+06
4.49791e+06
4.49805e+06
4.49808e+06
4.4981e+06
4.49808e+06
4.49807e+06
4.49807e+06
4.49747e+06
4.49747e+06
4.4977e+06
4.49798e+06
4.49813e+06
4.49815e+06
4.49816e+06
4.49813e+06
4.49812e+06
4.49812e+06
4.49762e+06
4.49766e+06
4.49786e+06
4.49814e+06
4.49829e+06
4.49831e+06
4.49828e+06
4.49825e+06
4.49825e+06
4.49824e+06
4.49759e+06
4.49766e+06
4.49787e+06
4.49815e+06
4.49831e+06
4.49834e+06
4.49833e+06
4.49831e+06
4.49831e+06
4.4983e+06
4.49791e+06
4.49781e+06
4.49809e+06
4.49826e+06
4.49841e+06
4.49844e+06
4.49842e+06
4.49841e+06
4.49841e+06
4.4984e+06
4.49791e+06
4.49789e+06
4.49823e+06
4.49836e+06
4.49846e+06
4.49846e+06
4.49845e+06
4.49844e+06
4.49844e+06
4.49844e+06
4.49835e+06
4.49839e+06
4.49842e+06
4.49846e+06
4.49851e+06
4.49853e+06
4.49851e+06
4.4985e+06
4.4985e+06
4.4985e+06
4.49837e+06
4.49846e+06
4.49853e+06
4.49854e+06
4.49855e+06
4.49855e+06
4.49853e+06
4.49853e+06
4.49853e+06
4.49853e+06
4.49851e+06
4.49857e+06
4.4986e+06
4.4986e+06
4.4986e+06
4.49858e+06
4.49858e+06
4.49857e+06
4.49857e+06
4.49857e+06
4.49855e+06
4.4986e+06
4.4986e+06
4.4986e+06
4.49861e+06
4.4986e+06
4.4986e+06
4.4986e+06
4.49861e+06
4.49861e+06
4.49857e+06
4.4986e+06
4.49862e+06
4.49863e+06
4.49863e+06
4.49864e+06
4.49864e+06
4.49865e+06
4.49865e+06
4.49865e+06
4.49861e+06
4.49863e+06
4.49863e+06
4.49863e+06
4.49864e+06
4.49865e+06
4.49865e+06
4.49865e+06
4.49865e+06
4.49866e+06
4.4986e+06
4.49868e+06
4.49867e+06
4.49868e+06
4.49869e+06
4.49869e+06
4.49865e+06
4.49864e+06
4.49865e+06
4.49866e+06
4.49863e+06
4.49869e+06
4.49866e+06
4.49868e+06
4.4987e+06
4.49871e+06
4.49866e+06
4.49865e+06
4.49866e+06
4.49866e+06
4.4987e+06
4.49867e+06
4.49866e+06
4.49869e+06
4.49877e+06
4.49878e+06
4.49874e+06
4.49872e+06
4.49873e+06
4.49873e+06
4.49871e+06
4.49866e+06
4.49865e+06
4.49868e+06
4.49877e+06
4.49879e+06
4.49876e+06
4.49876e+06
4.49876e+06
4.49877e+06
4.4988e+06
4.49877e+06
4.49877e+06
4.49879e+06
4.49882e+06
4.49884e+06
4.49885e+06
4.49885e+06
4.49886e+06
4.49886e+06
4.49879e+06
4.49874e+06
4.49877e+06
4.49879e+06
4.49882e+06
4.49884e+06
4.49886e+06
4.49887e+06
4.49888e+06
4.49888e+06
4.49894e+06
4.49889e+06
4.49894e+06
4.49897e+06
4.49899e+06
4.49901e+06
4.49903e+06
4.49903e+06
4.49903e+06
4.49903e+06
4.4989e+06
4.49884e+06
4.49893e+06
4.49897e+06
4.499e+06
4.49901e+06
4.49902e+06
4.49901e+06
4.49901e+06
4.499e+06
4.49916e+06
4.49912e+06
4.49919e+06
4.49924e+06
4.49926e+06
4.49927e+06
4.49928e+06
4.49927e+06
4.49927e+06
4.49926e+06
4.49912e+06
4.49909e+06
4.49918e+06
4.49925e+06
4.49928e+06
4.49927e+06
4.49926e+06
4.4992e+06
4.49915e+06
4.49901e+06
4.49938e+06
4.49948e+06
4.4995e+06
4.49956e+06
4.4996e+06
4.49961e+06
4.49965e+06
4.49961e+06
4.49966e+06
4.49968e+06
4.49995e+06
4.49988e+06
4.49995e+06
4.49995e+06
4.49997e+06
4.49998e+06
4.49999e+06
4.49934e+06
4.4995e+06
4.49954e+06
4.49962e+06
4.49967e+06
4.49965e+06
4.49969e+06
4.49965e+06
4.49968e+06
4.49972e+06
4.49988e+06
4.49988e+06
4.49994e+06
4.49995e+06
4.49997e+06
4.49997e+06