/*--------------------------------*- C++ -*----------------------------------*\
| =========                 |                                                 |
| \\      /  F ield         | OpenFOAM: The Open Source CFD Toolbox           |
|  \\    /   O peration     | Version:  v2012                                 |
|   \\  /    A nd           | Website:  www.openfoam.com                      |
|    \\/     M anipulation  |                                                 |
\*---------------------------------------------------------------------------*/
FoamFile
{
    version     2.0;
    format      ascii;
    class       volScalarField;
    location    "0.95";
    object      p;
}
// * * * * * * * * * * * * * * * * * * * * * * * * * * * * * * * * * * * * * //

dimensions      [1 -1 -2 0 0 0 0];


internalField   nonuniform List<scalar> 
3352
(
3.49885e+06
3.50004e+06
3.49967e+06
3.49957e+06
3.49821e+06
3.4984e+06
3.49872e+06
3.49879e+06
3.49788e+06
3.4948e+06
3.49542e+06
3.4963e+06
3.49778e+06
3.4997e+06
3.49961e+06
3.50024e+06
3.50062e+06
3.50096e+06
3.50117e+06
3.50129e+06
3.50134e+06
3.50135e+06
3.50133e+06
3.50128e+06
3.50123e+06
3.50116e+06
3.50109e+06
3.50101e+06
3.50092e+06
3.50083e+06
3.50073e+06
3.50063e+06
3.50053e+06
3.50042e+06
3.50031e+06
3.50019e+06
3.50006e+06
3.49992e+06
3.49975e+06
3.49918e+06
3.50115e+06
3.49925e+06
3.50141e+06
3.50104e+06
3.50229e+06
3.50188e+06
3.50246e+06
3.5028e+06
3.50127e+06
3.5003e+06
3.5023e+06
3.5057e+06
3.50502e+06
3.50324e+06
3.502e+06
3.50126e+06
3.5008e+06
3.50052e+06
3.50035e+06
3.50027e+06
3.50022e+06
3.50021e+06
3.50021e+06
3.50021e+06
3.50022e+06
3.50022e+06
3.50022e+06
3.50022e+06
3.5002e+06
3.50017e+06
3.50014e+06
3.50009e+06
3.50004e+06
3.49997e+06
3.49988e+06
3.49978e+06
3.49967e+06
3.49951e+06
3.49823e+06
3.50033e+06
3.49857e+06
3.50019e+06
3.49937e+06
3.50015e+06
3.50018e+06
3.50019e+06
3.50041e+06
3.49866e+06
3.49726e+06
3.5001e+06
3.50451e+06
3.50355e+06
3.50277e+06
3.50195e+06
3.50153e+06
3.5012e+06
3.50097e+06
3.50079e+06
3.50065e+06
3.50053e+06
3.50043e+06
3.50035e+06
3.50028e+06
3.50021e+06
3.50015e+06
3.5001e+06
3.50004e+06
3.49999e+06
3.49994e+06
3.49988e+06
3.49982e+06
3.49975e+06
3.49968e+06
3.49961e+06
3.49952e+06
3.49942e+06
3.4993e+06
3.49856e+06
3.50015e+06
3.49871e+06
3.50019e+06
3.49983e+06
3.5004e+06
3.50071e+06
3.50074e+06
3.50156e+06
3.50069e+06
3.50111e+06
3.50271e+06
3.5056e+06
3.50517e+06
3.50387e+06
3.50274e+06
3.50196e+06
3.50135e+06
3.50094e+06
3.50063e+06
3.50042e+06
3.50026e+06
3.50015e+06
3.50006e+06
3.49999e+06
3.49993e+06
3.49988e+06
3.49983e+06
3.49978e+06
3.49973e+06
3.49968e+06
3.49962e+06
3.49956e+06
3.4995e+06
3.49943e+06
3.49935e+06
3.49927e+06
3.49918e+06
3.49908e+06
3.49819e+06
3.4986e+06
3.49843e+06
3.49895e+06
3.49928e+06
3.49923e+06
3.49998e+06
3.49939e+06
3.50029e+06
3.49938e+06
3.50007e+06
3.50185e+06
3.50488e+06
3.50439e+06
3.50347e+06
3.50254e+06
3.5019e+06
3.50136e+06
3.50096e+06
3.50064e+06
3.5004e+06
3.5002e+06
3.50005e+06
3.49993e+06
3.49983e+06
3.49974e+06
3.49967e+06
3.4996e+06
3.49954e+06
3.49948e+06
3.49942e+06
3.49937e+06
3.49931e+06
3.49924e+06
3.49918e+06
3.4991e+06
3.49903e+06
3.49895e+06
3.49886e+06
3.49903e+06
3.49701e+06
3.49886e+06
3.49805e+06
3.49942e+06
3.49872e+06
3.50001e+06
3.49918e+06
3.50045e+06
3.49992e+06
3.50129e+06
3.50273e+06
3.50522e+06
3.50467e+06
3.50368e+06
3.5027e+06
3.50198e+06
3.50136e+06
3.5009e+06
3.50053e+06
3.50025e+06
3.50003e+06
3.49986e+06
3.49972e+06
3.49961e+06
3.49952e+06
3.49944e+06
3.49936e+06
3.4993e+06
3.49923e+06
3.49917e+06
3.49911e+06
3.49905e+06
3.49899e+06
3.49892e+06
3.49886e+06
3.49879e+06
3.49872e+06
3.49864e+06
3.49994e+06
3.49498e+06
3.4994e+06
3.49675e+06
3.49937e+06
3.49789e+06
3.49967e+06
3.49844e+06
3.49978e+06
3.49919e+06
3.50086e+06
3.50221e+06
3.50455e+06
3.50402e+06
3.50323e+06
3.50238e+06
3.50175e+06
3.50119e+06
3.50075e+06
3.50039e+06
3.5001e+06
3.49987e+06
3.49968e+06
3.49953e+06
3.49941e+06
3.4993e+06
3.49921e+06
3.49913e+06
3.49905e+06
3.49898e+06
3.49892e+06
3.49886e+06
3.4988e+06
3.49874e+06
3.49867e+06
3.49861e+06
3.49855e+06
3.49849e+06
3.49842e+06
3.50141e+06
3.49299e+06
3.50027e+06
3.49566e+06
3.49951e+06
3.49733e+06
3.49942e+06
3.49811e+06
3.49949e+06
3.49908e+06
3.50104e+06
3.50225e+06
3.50429e+06
3.50372e+06
3.50299e+06
3.50218e+06
3.50157e+06
3.50102e+06
3.50058e+06
3.50021e+06
3.49992e+06
3.49968e+06
3.49948e+06
3.49932e+06
3.49919e+06
3.49907e+06
3.49897e+06
3.49889e+06
3.49881e+06
3.49874e+06
3.49867e+06
3.49861e+06
3.49854e+06
3.49848e+06
3.49843e+06
3.49837e+06
3.49831e+06
3.49825e+06
3.4982e+06
3.5024e+06
3.49131e+06
3.5011e+06
3.49464e+06
3.49942e+06
3.49671e+06
3.49877e+06
3.49754e+06
3.49869e+06
3.4984e+06
3.50052e+06
3.50168e+06
3.50354e+06
3.50303e+06
3.50245e+06
3.50175e+06
3.50123e+06
3.50073e+06
3.50033e+06
3.49998e+06
3.4997e+06
3.49946e+06
3.49926e+06
3.4991e+06
3.49896e+06
3.49884e+06
3.49874e+06
3.49864e+06
3.49856e+06
3.49849e+06
3.49842e+06
3.49835e+06
3.49829e+06
3.49823e+06
3.49818e+06
3.49812e+06
3.49807e+06
3.49802e+06
3.49798e+06
3.50311e+06
3.49016e+06
3.50151e+06
3.49394e+06
3.49907e+06
3.49619e+06
3.49777e+06
3.49696e+06
3.49771e+06
3.49781e+06
3.50002e+06
3.50122e+06
3.50288e+06
3.50244e+06
3.50196e+06
3.50136e+06
3.50089e+06
3.50044e+06
3.50006e+06
3.49973e+06
3.49946e+06
3.49923e+06
3.49903e+06
3.49887e+06
3.49873e+06
3.4986e+06
3.49849e+06
3.4984e+06
3.49831e+06
3.49824e+06
3.49817e+06
3.4981e+06
3.49804e+06
3.49798e+06
3.49793e+06
3.49788e+06
3.49783e+06
3.49779e+06
3.49775e+06
3.50247e+06
3.49001e+06
3.50101e+06
3.49352e+06
3.49814e+06
3.49561e+06
3.49622e+06
3.4961e+06
3.49621e+06
3.49686e+06
3.4991e+06
3.50046e+06
3.50197e+06
3.50167e+06
3.50133e+06
3.50085e+06
3.50047e+06
3.50008e+06
3.49975e+06
3.49945e+06
3.4992e+06
3.49898e+06
3.49879e+06
3.49863e+06
3.49848e+06
3.49836e+06
3.49825e+06
3.49815e+06
3.49806e+06
3.49798e+06
3.49791e+06
3.49785e+06
3.49779e+06
3.49773e+06
3.49768e+06
3.49764e+06
3.49759e+06
3.49756e+06
3.49752e+06
3.50039e+06
3.49074e+06
3.49925e+06
3.49341e+06
3.49655e+06
3.49498e+06
3.49419e+06
3.49501e+06
3.49436e+06
3.4958e+06
3.49804e+06
3.49966e+06
3.50106e+06
3.50093e+06
3.50071e+06
3.50035e+06
3.50004e+06
3.49972e+06
3.49943e+06
3.49916e+06
3.49893e+06
3.49872e+06
3.49854e+06
3.49838e+06
3.49824e+06
3.49811e+06
3.498e+06
3.4979e+06
3.49781e+06
3.49773e+06
3.49766e+06
3.49759e+06
3.49754e+06
3.49748e+06
3.49744e+06
3.49739e+06
3.49735e+06
3.49732e+06
3.49729e+06
3.4965e+06
3.49246e+06
3.49626e+06
3.49353e+06
3.49426e+06
3.49418e+06
3.49178e+06
3.4936e+06
3.49216e+06
3.49451e+06
3.49673e+06
3.49871e+06
3.50004e+06
3.50013e+06
3.50003e+06
3.49982e+06
3.49959e+06
3.49934e+06
3.49909e+06
3.49886e+06
3.49865e+06
3.49845e+06
3.49828e+06
3.49812e+06
3.49798e+06
3.49786e+06
3.49775e+06
3.49765e+06
3.49756e+06
3.49748e+06
3.4974e+06
3.49734e+06
3.49728e+06
3.49723e+06
3.49719e+06
3.49715e+06
3.49711e+06
3.49709e+06
3.49706e+06
3.49163e+06
3.49471e+06
3.49236e+06
3.49378e+06
3.49154e+06
3.4932e+06
3.48925e+06
3.49196e+06
3.48983e+06
3.49313e+06
3.49537e+06
3.49775e+06
3.49903e+06
3.49936e+06
3.49939e+06
3.4993e+06
3.49915e+06
3.49896e+06
3.49876e+06
3.49856e+06
3.49837e+06
3.49818e+06
3.49802e+06
3.49787e+06
3.49773e+06
3.4976e+06
3.49749e+06
3.49739e+06
3.4973e+06
3.49722e+06
3.49715e+06
3.49708e+06
3.49703e+06
3.49698e+06
3.49694e+06
3.4969e+06
3.49687e+06
3.49685e+06
3.49683e+06
3.4864e+06
3.49717e+06
3.48822e+06
3.49401e+06
3.4888e+06
3.49201e+06
3.48691e+06
3.49014e+06
3.48759e+06
3.49172e+06
3.49401e+06
3.49679e+06
3.49806e+06
3.49863e+06
3.49876e+06
3.49881e+06
3.49873e+06
3.4986e+06
3.49843e+06
3.49826e+06
3.49808e+06
3.49792e+06
3.49776e+06
3.49761e+06
3.49747e+06
3.49735e+06
3.49723e+06
3.49713e+06
3.49704e+06
3.49696e+06
3.49689e+06
3.49683e+06
3.49677e+06
3.49673e+06
3.49669e+06
3.49666e+06
3.49663e+06
3.49661e+06
3.4966e+06
3.48186e+06
3.49895e+06
3.48457e+06
3.49403e+06
3.48647e+06
3.49077e+06
3.48513e+06
3.48842e+06
3.48579e+06
3.49045e+06
3.49285e+06
3.49593e+06
3.49722e+06
3.49799e+06
3.49822e+06
3.49837e+06
3.49835e+06
3.49827e+06
3.49813e+06
3.49798e+06
3.49781e+06
3.49765e+06
3.4975e+06
3.49735e+06
3.49721e+06
3.49709e+06
3.49697e+06
3.49687e+06
3.49678e+06
3.4967e+06
3.49663e+06
3.49657e+06
3.49651e+06
3.49647e+06
3.49644e+06
3.49641e+06
3.49639e+06
3.49637e+06
3.49636e+06
3.47941e+06
3.49927e+06
3.48252e+06
3.49358e+06
3.48514e+06
3.48963e+06
3.48424e+06
3.4871e+06
3.48471e+06
3.4895e+06
3.492e+06
3.49526e+06
3.49655e+06
3.49747e+06
3.49778e+06
3.498e+06
3.49802e+06
3.49797e+06
3.49785e+06
3.49771e+06
3.49755e+06
3.49739e+06
3.49724e+06
3.49709e+06
3.49695e+06
3.49683e+06
3.49671e+06
3.49661e+06
3.49651e+06
3.49643e+06
3.49636e+06
3.4963e+06
3.49626e+06
3.49621e+06
3.49618e+06
3.49616e+06
3.49614e+06
3.49613e+06
3.49613e+06
3.47948e+06
3.49848e+06
3.4825e+06
3.493e+06
3.48509e+06
3.48902e+06
3.4845e+06
3.48656e+06
3.48459e+06
3.48905e+06
3.49162e+06
3.49486e+06
3.49615e+06
3.49713e+06
3.49747e+06
3.49773e+06
3.49776e+06
3.49772e+06
3.49761e+06
3.49747e+06
3.49731e+06
3.49715e+06
3.49699e+06
3.49684e+06
3.49669e+06
3.49656e+06
3.49645e+06
3.49634e+06
3.49625e+06
3.49617e+06
3.4961e+06
3.49604e+06
3.49599e+06
3.49596e+06
3.49593e+06
3.49591e+06
3.49589e+06
3.49589e+06
3.49589e+06
3.48164e+06
3.49742e+06
3.48422e+06
3.49285e+06
3.48638e+06
3.4893e+06
3.48603e+06
3.48706e+06
3.4856e+06
3.48924e+06
3.49178e+06
3.49481e+06
3.49603e+06
3.49698e+06
3.49732e+06
3.49757e+06
3.49759e+06
3.49754e+06
3.49741e+06
3.49726e+06
3.49708e+06
3.49691e+06
3.49674e+06
3.49658e+06
3.49644e+06
3.4963e+06
3.49618e+06
3.49607e+06
3.49598e+06
3.4959e+06
3.49583e+06
3.49578e+06
3.49573e+06
3.4957e+06
3.49567e+06
3.49566e+06
3.49565e+06
3.49565e+06
3.49565e+06
3.48563e+06
3.49699e+06
3.48754e+06
3.49359e+06
3.48907e+06
3.49071e+06
3.48881e+06
3.48879e+06
3.48785e+06
3.49025e+06
3.49256e+06
3.49516e+06
3.49625e+06
3.49707e+06
3.49734e+06
3.49753e+06
3.4975e+06
3.49741e+06
3.49725e+06
3.49707e+06
3.49688e+06
3.49669e+06
3.49651e+06
3.49633e+06
3.49618e+06
3.49604e+06
3.49591e+06
3.4958e+06
3.49571e+06
3.49563e+06
3.49556e+06
3.49551e+06
3.49546e+06
3.49543e+06
3.49541e+06
3.4954e+06
3.4954e+06
3.4954e+06
3.49541e+06
3.49056e+06
3.49767e+06
3.49236e+06
3.49555e+06
3.49317e+06
3.49341e+06
3.4928e+06
3.4919e+06
3.49125e+06
3.49197e+06
3.49397e+06
3.49591e+06
3.49679e+06
3.49737e+06
3.49754e+06
3.49761e+06
3.4975e+06
3.49735e+06
3.49713e+06
3.49691e+06
3.49669e+06
3.49647e+06
3.49627e+06
3.49609e+06
3.49592e+06
3.49577e+06
3.49564e+06
3.49553e+06
3.49543e+06
3.49535e+06
3.49529e+06
3.49523e+06
3.4952e+06
3.49517e+06
3.49515e+06
3.49515e+06
3.49515e+06
3.49516e+06
3.49517e+06
3.49722e+06
3.4997e+06
3.49837e+06
3.49884e+06
3.49852e+06
3.49734e+06
3.49777e+06
3.49622e+06
3.49566e+06
3.4945e+06
3.49599e+06
3.49709e+06
3.49766e+06
3.49791e+06
3.4979e+06
3.4978e+06
3.49759e+06
3.49734e+06
3.49706e+06
3.49678e+06
3.49652e+06
3.49627e+06
3.49604e+06
3.49584e+06
3.49566e+06
3.4955e+06
3.49536e+06
3.49525e+06
3.49515e+06
3.49507e+06
3.49501e+06
3.49496e+06
3.49493e+06
3.4949e+06
3.49489e+06
3.49489e+06
3.4949e+06
3.49491e+06
3.49493e+06
3.50445e+06
3.50351e+06
3.50522e+06
3.50341e+06
3.50475e+06
3.50228e+06
3.50343e+06
3.50146e+06
3.50091e+06
3.4978e+06
3.49847e+06
3.49864e+06
3.49881e+06
3.49864e+06
3.49841e+06
3.4981e+06
3.49774e+06
3.49737e+06
3.49701e+06
3.49667e+06
3.49635e+06
3.49606e+06
3.49581e+06
3.49559e+06
3.49539e+06
3.49522e+06
3.49508e+06
3.49496e+06
3.49486e+06
3.49479e+06
3.49473e+06
3.49468e+06
3.49465e+06
3.49463e+06
3.49463e+06
3.49463e+06
3.49464e+06
3.49466e+06
3.49469e+06
3.51196e+06
3.50856e+06
3.51217e+06
3.509e+06
3.51135e+06
3.50792e+06
3.50948e+06
3.50732e+06
3.50667e+06
3.5016e+06
3.50127e+06
3.5005e+06
3.50017e+06
3.49953e+06
3.49903e+06
3.49847e+06
3.49795e+06
3.49745e+06
3.49698e+06
3.49656e+06
3.49619e+06
3.49586e+06
3.49557e+06
3.49533e+06
3.49512e+06
3.49494e+06
3.49479e+06
3.49467e+06
3.49457e+06
3.4945e+06
3.49444e+06
3.4944e+06
3.49438e+06
3.49436e+06
3.49436e+06
3.49437e+06
3.49439e+06
3.49441e+06
3.49444e+06
3.51854e+06
3.51479e+06
3.51873e+06
3.5152e+06
3.51774e+06
3.51396e+06
3.51555e+06
3.51341e+06
3.5126e+06
3.50582e+06
3.50438e+06
3.5026e+06
3.50168e+06
3.50055e+06
3.49972e+06
3.49889e+06
3.49819e+06
3.49753e+06
3.49696e+06
3.49645e+06
3.49602e+06
3.49564e+06
3.49533e+06
3.49506e+06
3.49483e+06
3.49464e+06
3.49449e+06
3.49437e+06
3.49427e+06
3.4942e+06
3.49415e+06
3.49411e+06
3.49409e+06
3.49409e+06
3.4941e+06
3.49411e+06
3.49413e+06
3.49416e+06
3.4942e+06
3.52431e+06
3.52118e+06
3.52431e+06
3.52135e+06
3.52345e+06
3.52006e+06
3.52148e+06
3.51945e+06
3.51854e+06
3.5103e+06
3.50767e+06
3.50484e+06
3.50329e+06
3.50162e+06
3.50045e+06
3.49933e+06
3.49842e+06
3.49761e+06
3.49692e+06
3.49633e+06
3.49583e+06
3.49541e+06
3.49506e+06
3.49477e+06
3.49453e+06
3.49434e+06
3.49418e+06
3.49406e+06
3.49397e+06
3.4939e+06
3.49385e+06
3.49382e+06
3.49381e+06
3.49381e+06
3.49383e+06
3.49385e+06
3.49388e+06
3.49391e+06
3.49396e+06
3.52889e+06
3.52707e+06
3.5288e+06
3.52679e+06
3.52826e+06
3.52591e+06
3.52731e+06
3.52536e+06
3.52445e+06
3.51486e+06
3.51097e+06
3.50709e+06
3.50488e+06
3.50266e+06
3.50114e+06
3.49972e+06
3.49862e+06
3.49764e+06
3.49685e+06
3.49617e+06
3.49562e+06
3.49515e+06
3.49478e+06
3.49447e+06
3.49422e+06
3.49402e+06
3.49386e+06
3.49374e+06
3.49365e+06
3.49359e+06
3.49355e+06
3.49353e+06
3.49352e+06
3.49353e+06
3.49355e+06
3.49358e+06
3.49362e+06
3.49366e+06
3.49371e+06
3.53258e+06
3.53147e+06
3.53227e+06
3.53096e+06
3.53218e+06
3.53142e+06
3.53316e+06
3.53126e+06
3.53042e+06
3.51946e+06
3.51421e+06
3.50928e+06
3.50637e+06
3.50362e+06
3.50174e+06
3.50004e+06
3.49874e+06
3.49762e+06
3.49672e+06
3.49597e+06
3.49536e+06
3.49486e+06
3.49446e+06
3.49414e+06
3.49388e+06
3.49368e+06
3.49353e+06
3.49341e+06
3.49333e+06
3.49327e+06
3.49324e+06
3.49323e+06
3.49323e+06
3.49325e+06
3.49328e+06
3.49332e+06
3.49336e+06
3.49341e+06
3.49347e+06
3.53551e+06
3.53411e+06
3.53494e+06
3.53377e+06
3.53537e+06
3.53651e+06
3.53922e+06
3.53739e+06
3.53645e+06
3.52379e+06
3.51719e+06
3.51118e+06
3.50762e+06
3.50437e+06
3.50216e+06
3.50021e+06
3.49874e+06
3.49749e+06
3.49651e+06
3.49569e+06
3.49505e+06
3.49452e+06
3.49411e+06
3.49378e+06
3.49352e+06
3.49332e+06
3.49317e+06
3.49307e+06
3.49299e+06
3.49295e+06
3.49293e+06
3.49293e+06
3.49294e+06
3.49297e+06
3.49301e+06
3.49305e+06
3.4931e+06
3.49316e+06
3.49322e+06
3.5379e+06
3.53564e+06
3.53695e+06
3.53564e+06
3.53805e+06
3.54123e+06
3.54508e+06
3.54356e+06
3.54216e+06
3.5276e+06
3.51966e+06
3.51263e+06
3.50849e+06
3.50481e+06
3.50234e+06
3.50018e+06
3.49858e+06
3.49724e+06
3.49619e+06
3.49534e+06
3.49466e+06
3.49413e+06
3.49371e+06
3.49338e+06
3.49313e+06
3.49294e+06
3.4928e+06
3.49271e+06
3.49265e+06
3.49262e+06
3.49261e+06
3.49262e+06
3.49264e+06
3.49268e+06
3.49273e+06
3.49278e+06
3.49285e+06
3.49291e+06
3.49298e+06
3.53931e+06
3.537e+06
3.53819e+06
3.53725e+06
3.54009e+06
3.54535e+06
3.54989e+06
3.54908e+06
3.54658e+06
3.53004e+06
3.52108e+06
3.51328e+06
3.50877e+06
3.50479e+06
3.50216e+06
3.49988e+06
3.49821e+06
3.49682e+06
3.49574e+06
3.49488e+06
3.4942e+06
3.49367e+06
3.49326e+06
3.49295e+06
3.49271e+06
3.49254e+06
3.49242e+06
3.49234e+06
3.49229e+06
3.49228e+06
3.49228e+06
3.49231e+06
3.49234e+06
3.49239e+06
3.49245e+06
3.49252e+06
3.49259e+06
3.49266e+06
3.49274e+06
3.53955e+06
3.53858e+06
3.5385e+06
3.53915e+06
3.541e+06
3.54809e+06
3.5527e+06
3.5526e+06
3.54866e+06
3.53056e+06
3.52107e+06
3.51293e+06
3.50829e+06
3.50423e+06
3.50156e+06
3.49927e+06
3.49759e+06
3.49621e+06
3.49515e+06
3.49431e+06
3.49365e+06
3.49315e+06
3.49276e+06
3.49247e+06
3.49226e+06
3.49211e+06
3.49201e+06
3.49195e+06
3.49193e+06
3.49193e+06
3.49195e+06
3.49199e+06
3.49204e+06
3.4921e+06
3.49217e+06
3.49225e+06
3.49233e+06
3.49241e+06
3.49249e+06
3.53818e+06
3.53879e+06
3.53739e+06
3.53971e+06
3.54045e+06
3.54816e+06
3.55252e+06
3.5528e+06
3.54758e+06
3.52878e+06
3.51936e+06
3.51135e+06
3.50692e+06
3.503e+06
3.50046e+06
3.49828e+06
3.4967e+06
3.49539e+06
3.4944e+06
3.49361e+06
3.49301e+06
3.49255e+06
3.49221e+06
3.49195e+06
3.49178e+06
3.49166e+06
3.49159e+06
3.49156e+06
3.49155e+06
3.49158e+06
3.49162e+06
3.49167e+06
3.49174e+06
3.49181e+06
3.49189e+06
3.49198e+06
3.49207e+06
3.49216e+06
3.49225e+06
3.5342e+06
3.53543e+06
3.5337e+06
3.53665e+06
3.53738e+06
3.54448e+06
3.54853e+06
3.54898e+06
3.5427e+06
3.52428e+06
3.5157e+06
3.50846e+06
3.50458e+06
3.50109e+06
3.49885e+06
3.49691e+06
3.4955e+06
3.49435e+06
3.49347e+06
3.49279e+06
3.49227e+06
3.49188e+06
3.4916e+06
3.4914e+06
3.49126e+06
3.49118e+06
3.49115e+06
3.49115e+06
3.49117e+06
3.49121e+06
3.49128e+06
3.49135e+06
3.49143e+06
3.49152e+06
3.49161e+06
3.49171e+06
3.49181e+06
3.49191e+06
3.49201e+06
3.52712e+06
3.52777e+06
3.52678e+06
3.52937e+06
3.53082e+06
3.53662e+06
3.54038e+06
3.54072e+06
3.53363e+06
3.51697e+06
3.51004e+06
3.50424e+06
3.50125e+06
3.49848e+06
3.49671e+06
3.49515e+06
3.49402e+06
3.49309e+06
3.49239e+06
3.49184e+06
3.49143e+06
3.49114e+06
3.49093e+06
3.4908e+06
3.49072e+06
3.49069e+06
3.49069e+06
3.49072e+06
3.49078e+06
3.49085e+06
3.49093e+06
3.49102e+06
3.49112e+06
3.49123e+06
3.49134e+06
3.49144e+06
3.49155e+06
3.49166e+06
3.49177e+06
3.51722e+06
3.51583e+06
3.51686e+06
3.51787e+06
3.52081e+06
3.52485e+06
3.52818e+06
3.52835e+06
3.52066e+06
3.50723e+06
3.50262e+06
3.49884e+06
3.49704e+06
3.49523e+06
3.49408e+06
3.49303e+06
3.49226e+06
3.49162e+06
3.49114e+06
3.49078e+06
3.49051e+06
3.49033e+06
3.49022e+06
3.49017e+06
3.49015e+06
3.49018e+06
3.49022e+06
3.4903e+06
3.49038e+06
3.49048e+06
3.49059e+06
3.4907e+06
3.49082e+06
3.49094e+06
3.49106e+06
3.49118e+06
3.4913e+06
3.49142e+06
3.49153e+06
3.5047e+06
3.50049e+06
3.50436e+06
3.5031e+06
3.50764e+06
3.51003e+06
3.51257e+06
3.51273e+06
3.50457e+06
3.49564e+06
3.49381e+06
3.49254e+06
3.49211e+06
3.49147e+06
3.49105e+06
3.49062e+06
3.49028e+06
3.48999e+06
3.48977e+06
3.48962e+06
3.48952e+06
3.48947e+06
3.48947e+06
3.4895e+06
3.48957e+06
3.48965e+06
3.48975e+06
3.48986e+06
3.48998e+06
3.49011e+06
3.49024e+06
3.49038e+06
3.49051e+06
3.49065e+06
3.49078e+06
3.49091e+06
3.49104e+06
3.49117e+06
3.49129e+06
3.49088e+06
3.4841e+06
3.49003e+06
3.48738e+06
3.49222e+06
3.49342e+06
3.4947e+06
3.49493e+06
3.48639e+06
3.48287e+06
3.48404e+06
3.48562e+06
3.48665e+06
3.48733e+06
3.48771e+06
3.48797e+06
3.48811e+06
3.48822e+06
3.4883e+06
3.48838e+06
3.48847e+06
3.48858e+06
3.48869e+06
3.48883e+06
3.48897e+06
3.48911e+06
3.48927e+06
3.48942e+06
3.48958e+06
3.48974e+06
3.4899e+06
3.49005e+06
3.49021e+06
3.49036e+06
3.49051e+06
3.49065e+06
3.49079e+06
3.49093e+06
3.49106e+06
3.47641e+06
3.46976e+06
3.47519e+06
3.47317e+06
3.47611e+06
3.47639e+06
3.47613e+06
3.47638e+06
3.46757e+06
3.46969e+06
3.47386e+06
3.47842e+06
3.48093e+06
3.48299e+06
3.4842e+06
3.4852e+06
3.48584e+06
3.48637e+06
3.48676e+06
3.4871e+06
3.48739e+06
3.48766e+06
3.4879e+06
3.48814e+06
3.48836e+06
3.48858e+06
3.48878e+06
3.48899e+06
3.48918e+06
3.48937e+06
3.48956e+06
3.48973e+06
3.48991e+06
3.49007e+06
3.49024e+06
3.49039e+06
3.49054e+06
3.49069e+06
3.49083e+06
3.46313e+06
3.45887e+06
3.46155e+06
3.46205e+06
3.46115e+06
3.46032e+06
3.45873e+06
3.45864e+06
3.44982e+06
3.457e+06
3.46392e+06
3.47132e+06
3.47522e+06
3.47864e+06
3.48067e+06
3.48239e+06
3.48354e+06
3.4845e+06
3.48521e+06
3.48581e+06
3.48631e+06
3.48674e+06
3.48711e+06
3.48745e+06
3.48776e+06
3.48804e+06
3.48831e+06
3.48856e+06
3.48879e+06
3.48901e+06
3.48922e+06
3.48942e+06
3.48961e+06
3.48979e+06
3.48997e+06
3.49014e+06
3.4903e+06
3.49045e+06
3.49059e+06
3.45209e+06
3.45219e+06
3.45108e+06
3.45434e+06
3.44904e+06
3.44669e+06
3.44447e+06
3.44362e+06
3.43488e+06
3.44557e+06
3.45478e+06
3.46466e+06
3.46981e+06
3.47446e+06
3.47726e+06
3.47967e+06
3.48131e+06
3.48267e+06
3.4837e+06
3.48455e+06
3.48525e+06
3.48584e+06
3.48634e+06
3.48678e+06
3.48717e+06
3.48752e+06
3.48784e+06
3.48814e+06
3.48841e+06
3.48866e+06
3.48889e+06
3.48911e+06
3.48932e+06
3.48952e+06
3.4897e+06
3.48988e+06
3.49005e+06
3.49021e+06
3.49037e+06
3.44549e+06
3.44842e+06
3.44496e+06
3.44915e+06
3.44107e+06
3.43693e+06
3.43498e+06
3.43304e+06
3.42431e+06
3.43622e+06
3.44715e+06
3.45879e+06
3.46499e+06
3.47065e+06
3.47412e+06
3.47713e+06
3.47922e+06
3.48095e+06
3.48227e+06
3.48336e+06
3.48424e+06
3.48498e+06
3.4856e+06
3.48614e+06
3.48661e+06
3.48703e+06
3.4874e+06
3.48773e+06
3.48803e+06
3.48831e+06
3.48857e+06
3.48881e+06
3.48904e+06
3.48925e+06
3.48945e+06
3.48963e+06
3.48981e+06
3.48998e+06
3.49014e+06
3.44372e+06
3.44652e+06
3.4441e+06
3.44578e+06
3.43789e+06
3.43193e+06
3.43104e+06
3.4276e+06
3.41869e+06
3.42945e+06
3.44149e+06
3.454e+06
3.46101e+06
3.46736e+06
3.47139e+06
3.47488e+06
3.47735e+06
3.4794e+06
3.48097e+06
3.44757e+06
3.44519e+06
3.44772e+06
3.44406e+06
3.43937e+06
3.43174e+06
3.4324e+06
3.42747e+06
3.41781e+06
3.42453e+06
3.43735e+06
3.45021e+06
3.45789e+06
3.46467e+06
3.46916e+06
3.47299e+06
3.47576e+06
3.43519e+06
3.44761e+06
3.49885e+06
3.50004e+06
3.49967e+06
3.49957e+06
3.49821e+06
3.4984e+06
3.49872e+06
3.49879e+06
3.49788e+06
3.4948e+06
3.49542e+06
3.4963e+06
3.49778e+06
3.4997e+06
3.49961e+06
3.50024e+06
3.50062e+06
3.50096e+06
3.50117e+06
3.50129e+06
3.50134e+06
3.50135e+06
3.50133e+06
3.50128e+06
3.50123e+06
3.50116e+06
3.50109e+06
3.50101e+06
3.50092e+06
3.50083e+06
3.50073e+06
3.50063e+06
3.50053e+06
3.50042e+06
3.50031e+06
3.50019e+06
3.50006e+06
3.49992e+06
3.49975e+06
3.49918e+06
3.50115e+06
3.49925e+06
3.50141e+06
3.50104e+06
3.50229e+06
3.50188e+06
3.50246e+06
3.5028e+06
3.50127e+06
3.5003e+06
3.5023e+06
3.5057e+06
3.50502e+06
3.50324e+06
3.502e+06
3.50126e+06
3.5008e+06
3.50052e+06
3.50035e+06
3.50027e+06
3.50022e+06
3.50021e+06
3.50021e+06
3.50021e+06
3.50022e+06
3.50022e+06
3.50022e+06
3.50022e+06
3.5002e+06
3.50017e+06
3.50014e+06
3.50009e+06
3.50004e+06
3.49997e+06
3.49988e+06
3.49978e+06
3.49967e+06
3.49951e+06
3.49823e+06
3.50033e+06
3.49857e+06
3.50019e+06
3.49937e+06
3.50015e+06
3.50018e+06
3.50019e+06
3.50041e+06
3.49866e+06
3.49726e+06
3.5001e+06
3.50451e+06
3.50355e+06
3.50277e+06
3.50195e+06
3.50153e+06
3.5012e+06
3.50097e+06
3.50079e+06
3.50065e+06
3.50053e+06
3.50043e+06
3.50035e+06
3.50028e+06
3.50021e+06
3.50015e+06
3.5001e+06
3.50004e+06
3.49999e+06
3.49994e+06
3.49988e+06
3.49982e+06
3.49975e+06
3.49968e+06
3.49961e+06
3.49952e+06
3.49942e+06
3.4993e+06
3.49856e+06
3.50015e+06
3.49871e+06
3.50019e+06
3.49983e+06
3.5004e+06
3.50071e+06
3.50074e+06
3.50156e+06
3.50069e+06
3.50111e+06
3.50271e+06
3.5056e+06
3.50517e+06
3.50387e+06
3.50274e+06
3.50196e+06
3.50135e+06
3.50094e+06
3.50063e+06
3.50042e+06
3.50026e+06
3.50015e+06
3.50006e+06
3.49999e+06
3.49993e+06
3.49988e+06
3.49983e+06
3.49978e+06
3.49973e+06
3.49968e+06
3.49962e+06
3.49956e+06
3.4995e+06
3.49943e+06
3.49935e+06
3.49927e+06
3.49918e+06
3.49908e+06
3.49819e+06
3.4986e+06
3.49843e+06
3.49895e+06
3.49928e+06
3.49923e+06
3.49998e+06
3.49939e+06
3.50029e+06
3.49938e+06
3.50007e+06
3.50185e+06
3.50488e+06
3.50439e+06
3.50347e+06
3.50254e+06
3.5019e+06
3.50136e+06
3.50096e+06
3.50064e+06
3.5004e+06
3.5002e+06
3.50005e+06
3.49993e+06
3.49983e+06
3.49974e+06
3.49967e+06
3.4996e+06
3.49954e+06
3.49948e+06
3.49942e+06
3.49937e+06
3.49931e+06
3.49924e+06
3.49918e+06
3.4991e+06
3.49903e+06
3.49895e+06
3.49886e+06
3.49903e+06
3.49701e+06
3.49886e+06
3.49805e+06
3.49942e+06
3.49872e+06
3.50001e+06
3.49918e+06
3.50045e+06
3.49992e+06
3.50129e+06
3.50273e+06
3.50522e+06
3.50467e+06
3.50368e+06
3.5027e+06
3.50198e+06
3.50136e+06
3.5009e+06
3.50053e+06
3.50025e+06
3.50003e+06
3.49986e+06
3.49972e+06
3.49961e+06
3.49952e+06
3.49944e+06
3.49936e+06
3.4993e+06
3.49923e+06
3.49917e+06
3.49911e+06
3.49905e+06
3.49899e+06
3.49892e+06
3.49886e+06
3.49879e+06
3.49872e+06
3.49864e+06
3.49994e+06
3.49498e+06
3.4994e+06
3.49675e+06
3.49937e+06
3.49789e+06
3.49967e+06
3.49844e+06
3.49978e+06
3.49919e+06
3.50086e+06
3.50221e+06
3.50455e+06
3.50402e+06
3.50323e+06
3.50238e+06
3.50175e+06
3.50119e+06
3.50075e+06
3.50039e+06
3.5001e+06
3.49987e+06
3.49968e+06
3.49953e+06
3.49941e+06
3.4993e+06
3.49921e+06
3.49913e+06
3.49905e+06
3.49898e+06
3.49892e+06
3.49886e+06
3.4988e+06
3.49874e+06
3.49867e+06
3.49861e+06
3.49855e+06
3.49849e+06
3.49842e+06
3.50141e+06
3.49299e+06
3.50027e+06
3.49566e+06
3.49951e+06
3.49733e+06
3.49942e+06
3.49811e+06
3.49949e+06
3.49908e+06
3.50104e+06
3.50225e+06
3.50429e+06
3.50372e+06
3.50299e+06
3.50218e+06
3.50157e+06
3.50102e+06
3.50058e+06
3.50021e+06
3.49992e+06
3.49968e+06
3.49948e+06
3.49932e+06
3.49919e+06
3.49907e+06
3.49897e+06
3.49889e+06
3.49881e+06
3.49874e+06
3.49867e+06
3.49861e+06
3.49854e+06
3.49848e+06
3.49843e+06
3.49837e+06
3.49831e+06
3.49825e+06
3.4982e+06
3.5024e+06
3.49131e+06
3.5011e+06
3.49464e+06
3.49942e+06
3.49671e+06
3.49877e+06
3.49754e+06
3.49869e+06
3.4984e+06
3.50052e+06
3.50168e+06
3.50354e+06
3.50303e+06
3.50245e+06
3.50175e+06
3.50123e+06
3.50073e+06
3.50033e+06
3.49998e+06
3.4997e+06
3.49946e+06
3.49926e+06
3.4991e+06
3.49896e+06
3.49884e+06
3.49874e+06
3.49864e+06
3.49856e+06
3.49849e+06
3.49842e+06
3.49835e+06
3.49829e+06
3.49823e+06
3.49818e+06
3.49812e+06
3.49807e+06
3.49802e+06
3.49798e+06
3.50311e+06
3.49016e+06
3.50151e+06
3.49394e+06
3.49907e+06
3.49619e+06
3.49777e+06
3.49696e+06
3.49771e+06
3.49781e+06
3.50002e+06
3.50122e+06
3.50288e+06
3.50244e+06
3.50196e+06
3.50136e+06
3.50089e+06
3.50044e+06
3.50006e+06
3.49973e+06
3.49946e+06
3.49923e+06
3.49903e+06
3.49887e+06
3.49873e+06
3.4986e+06
3.49849e+06
3.4984e+06
3.49831e+06
3.49824e+06
3.49817e+06
3.4981e+06
3.49804e+06
3.49798e+06
3.49793e+06
3.49788e+06
3.49783e+06
3.49779e+06
3.49775e+06
3.50247e+06
3.49001e+06
3.50101e+06
3.49352e+06
3.49814e+06
3.49561e+06
3.49622e+06
3.4961e+06
3.49621e+06
3.49686e+06
3.4991e+06
3.50046e+06
3.50197e+06
3.50167e+06
3.50133e+06
3.50085e+06
3.50047e+06
3.50008e+06
3.49975e+06
3.49945e+06
3.4992e+06
3.49898e+06
3.49879e+06
3.49863e+06
3.49848e+06
3.49836e+06
3.49825e+06
3.49815e+06
3.49806e+06
3.49798e+06
3.49791e+06
3.49785e+06
3.49779e+06
3.49773e+06
3.49768e+06
3.49764e+06
3.49759e+06
3.49756e+06
3.49752e+06
3.50039e+06
3.49074e+06
3.49925e+06
3.49341e+06
3.49655e+06
3.49498e+06
3.49419e+06
3.49501e+06
3.49436e+06
3.4958e+06
3.49804e+06
3.49966e+06
3.50106e+06
3.50093e+06
3.50071e+06
3.50035e+06
3.50004e+06
3.49972e+06
3.49943e+06
3.49916e+06
3.49893e+06
3.49872e+06
3.49854e+06
3.49838e+06
3.49824e+06
3.49811e+06
3.498e+06
3.4979e+06
3.49781e+06
3.49773e+06
3.49766e+06
3.49759e+06
3.49754e+06
3.49748e+06
3.49744e+06
3.49739e+06
3.49735e+06
3.49732e+06
3.49729e+06
3.4965e+06
3.49246e+06
3.49626e+06
3.49353e+06
3.49426e+06
3.49418e+06
3.49178e+06
3.4936e+06
3.49216e+06
3.49451e+06
3.49673e+06
3.49871e+06
3.50004e+06
3.50013e+06
3.50003e+06
3.49982e+06
3.49959e+06
3.49934e+06
3.49909e+06
3.49886e+06
3.49865e+06
3.49845e+06
3.49828e+06
3.49812e+06
3.49798e+06
3.49786e+06
3.49775e+06
3.49765e+06
3.49756e+06
3.49748e+06
3.4974e+06
3.49734e+06
3.49728e+06
3.49723e+06
3.49719e+06
3.49715e+06
3.49711e+06
3.49709e+06
3.49706e+06
3.49163e+06
3.49471e+06
3.49236e+06
3.49378e+06
3.49154e+06
3.4932e+06
3.48925e+06
3.49196e+06
3.48983e+06
3.49313e+06
3.49537e+06
3.49775e+06
3.49903e+06
3.49936e+06
3.49939e+06
3.4993e+06
3.49915e+06
3.49896e+06
3.49876e+06
3.49856e+06
3.49837e+06
3.49818e+06
3.49802e+06
3.49787e+06
3.49773e+06
3.4976e+06
3.49749e+06
3.49739e+06
3.4973e+06
3.49722e+06
3.49715e+06
3.49708e+06
3.49703e+06
3.49698e+06
3.49694e+06
3.4969e+06
3.49687e+06
3.49685e+06
3.49683e+06
3.4864e+06
3.49717e+06
3.48822e+06
3.49401e+06
3.4888e+06
3.49201e+06
3.48691e+06
3.49014e+06
3.48759e+06
3.49172e+06
3.49401e+06
3.49679e+06
3.49806e+06
3.49863e+06
3.49876e+06
3.49881e+06
3.49873e+06
3.4986e+06
3.49843e+06
3.49826e+06
3.49808e+06
3.49792e+06
3.49776e+06
3.49761e+06
3.49747e+06
3.49735e+06
3.49723e+06
3.49713e+06
3.49704e+06
3.49696e+06
3.49689e+06
3.49683e+06
3.49677e+06
3.49673e+06
3.49669e+06
3.49666e+06
3.49663e+06
3.49661e+06
3.4966e+06
3.48186e+06
3.49895e+06
3.48457e+06
3.49403e+06
3.48647e+06
3.49077e+06
3.48513e+06
3.48842e+06
3.48579e+06
3.49045e+06
3.49285e+06
3.49593e+06
3.49722e+06
3.49799e+06
3.49822e+06
3.49837e+06
3.49835e+06
3.49827e+06
3.49813e+06
3.49798e+06
3.49781e+06
3.49765e+06
3.4975e+06
3.49735e+06
3.49721e+06
3.49709e+06
3.49697e+06
3.49687e+06
3.49678e+06
3.4967e+06
3.49663e+06
3.49657e+06
3.49651e+06
3.49647e+06
3.49644e+06
3.49641e+06
3.49639e+06
3.49637e+06
3.49636e+06
3.47941e+06
3.49927e+06
3.48252e+06
3.49358e+06
3.48514e+06
3.48963e+06
3.48424e+06
3.4871e+06
3.48471e+06
3.4895e+06
3.492e+06
3.49526e+06
3.49655e+06
3.49747e+06
3.49778e+06
3.498e+06
3.49802e+06
3.49797e+06
3.49785e+06
3.49771e+06
3.49755e+06
3.49739e+06
3.49724e+06
3.49709e+06
3.49695e+06
3.49683e+06
3.49671e+06
3.49661e+06
3.49651e+06
3.49643e+06
3.49636e+06
3.4963e+06
3.49626e+06
3.49621e+06
3.49618e+06
3.49616e+06
3.49614e+06
3.49613e+06
3.49613e+06
3.47948e+06
3.49848e+06
3.4825e+06
3.493e+06
3.48509e+06
3.48902e+06
3.4845e+06
3.48656e+06
3.48459e+06
3.48905e+06
3.49162e+06
3.49486e+06
3.49615e+06
3.49713e+06
3.49747e+06
3.49773e+06
3.49776e+06
3.49772e+06
3.49761e+06
3.49747e+06
3.49731e+06
3.49715e+06
3.49699e+06
3.49684e+06
3.49669e+06
3.49656e+06
3.49645e+06
3.49634e+06
3.49625e+06
3.49617e+06
3.4961e+06
3.49604e+06
3.49599e+06
3.49596e+06
3.49593e+06
3.49591e+06
3.49589e+06
3.49589e+06
3.49589e+06
3.48164e+06
3.49742e+06
3.48422e+06
3.49285e+06
3.48638e+06
3.4893e+06
3.48603e+06
3.48706e+06
3.4856e+06
3.48924e+06
3.49178e+06
3.49481e+06
3.49603e+06
3.49698e+06
3.49732e+06
3.49757e+06
3.49759e+06
3.49754e+06
3.49741e+06
3.49726e+06
3.49708e+06
3.49691e+06
3.49674e+06
3.49658e+06
3.49644e+06
3.4963e+06
3.49618e+06
3.49607e+06
3.49598e+06
3.4959e+06
3.49583e+06
3.49578e+06
3.49573e+06
3.4957e+06
3.49567e+06
3.49566e+06
3.49565e+06
3.49565e+06
3.49565e+06
3.48563e+06
3.49699e+06
3.48754e+06
3.49359e+06
3.48907e+06
3.49071e+06
3.48881e+06
3.48879e+06
3.48785e+06
3.49025e+06
3.49256e+06
3.49516e+06
3.49625e+06
3.49707e+06
3.49734e+06
3.49753e+06
3.4975e+06
3.49741e+06
3.49725e+06
3.49707e+06
3.49688e+06
3.49669e+06
3.49651e+06
3.49633e+06
3.49618e+06
3.49604e+06
3.49591e+06
3.4958e+06
3.49571e+06
3.49563e+06
3.49556e+06
3.49551e+06