/*--------------------------------*- C++ -*----------------------------------*\
| =========                 |                                                 |
| \\      /  F ield         | OpenFOAM: The Open Source CFD Toolbox           |
|  \\    /   O peration     | Version:  v2012                                 |
|   \\  /    A nd           | Website:  www.openfoam.com                      |
|    \\/     M anipulation  |                                                 |
\*---------------------------------------------------------------------------*/
FoamFile
{
    version     2.0;
    format      ascii;
    class       volScalarField;
    location    "0.95";
    object      p_rgh;
}
// * * * * * * * * * * * * * * * * * * * * * * * * * * * * * * * * * * * * * //

dimensions      [1 -1 -2 0 0 0 0];


internalField   nonuniform List<scalar> 
3352
(
3.49885e+06
3.50004e+06
3.49967e+06
3.49957e+06
3.49821e+06
3.4984e+06
3.49872e+06
3.49879e+06
3.49789e+06
3.4948e+06
3.49542e+06
3.4963e+06
3.49778e+06
3.4997e+06
3.49961e+06
3.50024e+06
3.50062e+06
3.50096e+06
3.50117e+06
3.50129e+06
3.50134e+06
3.50135e+06
3.50133e+06
3.50128e+06
3.50123e+06
3.50116e+06
3.50109e+06
3.50101e+06
3.50092e+06
3.50083e+06
3.50073e+06
3.50063e+06
3.50053e+06
3.50042e+06
3.50031e+06
3.50019e+06
3.50006e+06
3.49992e+06
3.49975e+06
3.49918e+06
3.50115e+06
3.49926e+06
3.50142e+06
3.50104e+06
3.5023e+06
3.50188e+06
3.50246e+06
3.5028e+06
3.50127e+06
3.5003e+06
3.5023e+06
3.5057e+06
3.50502e+06
3.50324e+06
3.502e+06
3.50126e+06
3.5008e+06
3.50052e+06
3.50035e+06
3.50027e+06
3.50022e+06
3.50021e+06
3.50021e+06
3.50021e+06
3.50022e+06
3.50022e+06
3.50022e+06
3.50022e+06
3.5002e+06
3.50018e+06
3.50014e+06
3.50009e+06
3.50004e+06
3.49997e+06
3.49988e+06
3.49978e+06
3.49967e+06
3.49951e+06
3.49823e+06
3.50034e+06
3.49857e+06
3.50019e+06
3.49938e+06
3.50016e+06
3.50019e+06
3.5002e+06
3.50041e+06
3.49866e+06
3.49726e+06
3.5001e+06
3.50451e+06
3.50355e+06
3.50277e+06
3.50195e+06
3.50153e+06
3.5012e+06
3.50097e+06
3.50079e+06
3.50065e+06
3.50053e+06
3.50043e+06
3.50035e+06
3.50028e+06
3.50021e+06
3.50015e+06
3.5001e+06
3.50005e+06
3.49999e+06
3.49994e+06
3.49988e+06
3.49982e+06
3.49975e+06
3.49968e+06
3.49961e+06
3.49952e+06
3.49942e+06
3.4993e+06
3.49857e+06
3.50015e+06
3.49872e+06
3.5002e+06
3.49983e+06
3.5004e+06
3.50072e+06
3.50075e+06
3.50157e+06
3.5007e+06
3.50111e+06
3.50271e+06
3.5056e+06
3.50517e+06
3.50387e+06
3.50274e+06
3.50196e+06
3.50135e+06
3.50094e+06
3.50063e+06
3.50042e+06
3.50026e+06
3.50015e+06
3.50006e+06
3.49999e+06
3.49993e+06
3.49988e+06
3.49983e+06
3.49978e+06
3.49973e+06
3.49968e+06
3.49962e+06
3.49956e+06
3.4995e+06
3.49943e+06
3.49936e+06
3.49927e+06
3.49918e+06
3.49908e+06
3.4982e+06
3.49861e+06
3.49844e+06
3.49896e+06
3.49929e+06
3.49924e+06
3.49999e+06
3.4994e+06
3.50029e+06
3.49938e+06
3.50007e+06
3.50186e+06
3.50488e+06
3.50439e+06
3.50347e+06
3.50254e+06
3.50191e+06
3.50136e+06
3.50096e+06
3.50064e+06
3.5004e+06
3.5002e+06
3.50005e+06
3.49993e+06
3.49983e+06
3.49974e+06
3.49967e+06
3.4996e+06
3.49954e+06
3.49948e+06
3.49943e+06
3.49937e+06
3.49931e+06
3.49924e+06
3.49918e+06
3.49911e+06
3.49903e+06
3.49895e+06
3.49886e+06
3.49904e+06
3.49703e+06
3.49887e+06
3.49806e+06
3.49943e+06
3.49873e+06
3.50002e+06
3.49919e+06
3.50046e+06
3.49992e+06
3.50129e+06
3.50273e+06
3.50522e+06
3.50467e+06
3.50368e+06
3.5027e+06
3.50198e+06
3.50136e+06
3.5009e+06
3.50053e+06
3.50025e+06
3.50003e+06
3.49986e+06
3.49973e+06
3.49961e+06
3.49952e+06
3.49944e+06
3.49936e+06
3.4993e+06
3.49923e+06
3.49917e+06
3.49911e+06
3.49905e+06
3.49899e+06
3.49893e+06
3.49886e+06
3.49879e+06
3.49872e+06
3.49864e+06
3.49996e+06
3.495e+06
3.49941e+06
3.49677e+06
3.49938e+06
3.4979e+06
3.49968e+06
3.49846e+06
3.49979e+06
3.4992e+06
3.50086e+06
3.50222e+06
3.50455e+06
3.50402e+06
3.50323e+06
3.50238e+06
3.50175e+06
3.50119e+06
3.50075e+06
3.50039e+06
3.5001e+06
3.49987e+06
3.49969e+06
3.49953e+06
3.49941e+06
3.4993e+06
3.49921e+06
3.49913e+06
3.49905e+06
3.49899e+06
3.49892e+06
3.49886e+06
3.4988e+06
3.49874e+06
3.49868e+06
3.49861e+06
3.49855e+06
3.49849e+06
3.49842e+06
3.50143e+06
3.49301e+06
3.50029e+06
3.49568e+06
3.49952e+06
3.49734e+06
3.49943e+06
3.49812e+06
3.4995e+06
3.49908e+06
3.50104e+06
3.50225e+06
3.50429e+06
3.50372e+06
3.50299e+06
3.50218e+06
3.50157e+06
3.50102e+06
3.50058e+06
3.50021e+06
3.49992e+06
3.49968e+06
3.49948e+06
3.49932e+06
3.49919e+06
3.49907e+06
3.49898e+06
3.49889e+06
3.49881e+06
3.49874e+06
3.49867e+06
3.49861e+06
3.49855e+06
3.49849e+06
3.49843e+06
3.49837e+06
3.49831e+06
3.49826e+06
3.4982e+06
3.50242e+06
3.49133e+06
3.50112e+06
3.49466e+06
3.49944e+06
3.49673e+06
3.49879e+06
3.49756e+06
3.4987e+06
3.49841e+06
3.50052e+06
3.50169e+06
3.50354e+06
3.50303e+06
3.50245e+06
3.50176e+06
3.50123e+06
3.50073e+06
3.50033e+06
3.49998e+06
3.4997e+06
3.49946e+06
3.49927e+06
3.4991e+06
3.49896e+06
3.49884e+06
3.49874e+06
3.49865e+06
3.49856e+06
3.49849e+06
3.49842e+06
3.49836e+06
3.49829e+06
3.49824e+06
3.49818e+06
3.49813e+06
3.49807e+06
3.49802e+06
3.49798e+06
3.50313e+06
3.49018e+06
3.50153e+06
3.49396e+06
3.49909e+06
3.49621e+06
3.49779e+06
3.49698e+06
3.49772e+06
3.49781e+06
3.50002e+06
3.50123e+06
3.50288e+06
3.50244e+06
3.50196e+06
3.50136e+06
3.50089e+06
3.50044e+06
3.50006e+06
3.49974e+06
3.49946e+06
3.49923e+06
3.49904e+06
3.49887e+06
3.49873e+06
3.4986e+06
3.4985e+06
3.4984e+06
3.49832e+06
3.49824e+06
3.49817e+06
3.4981e+06
3.49804e+06
3.49799e+06
3.49793e+06
3.49788e+06
3.49784e+06
3.49779e+06
3.49775e+06
3.50249e+06
3.49003e+06
3.50103e+06
3.49354e+06
3.49816e+06
3.49563e+06
3.49625e+06
3.49613e+06
3.49623e+06
3.49687e+06
3.49911e+06
3.50046e+06
3.50198e+06
3.50168e+06
3.50133e+06
3.50085e+06
3.50047e+06
3.50008e+06
3.49976e+06
3.49946e+06
3.4992e+06
3.49898e+06
3.49879e+06
3.49863e+06
3.49849e+06
3.49836e+06
3.49825e+06
3.49815e+06
3.49807e+06
3.49799e+06
3.49792e+06
3.49785e+06
3.49779e+06
3.49774e+06
3.49769e+06
3.49764e+06
3.4976e+06
3.49756e+06
3.49753e+06
3.50041e+06
3.49076e+06
3.49927e+06
3.49343e+06
3.49657e+06
3.495e+06
3.49422e+06
3.49504e+06
3.49438e+06
3.49581e+06
3.49804e+06
3.49967e+06
3.50106e+06
3.50094e+06
3.50071e+06
3.50036e+06
3.50005e+06
3.49972e+06
3.49943e+06
3.49917e+06
3.49893e+06
3.49872e+06
3.49854e+06
3.49838e+06
3.49824e+06
3.49811e+06
3.498e+06
3.4979e+06
3.49781e+06
3.49773e+06
3.49766e+06
3.4976e+06
3.49754e+06
3.49749e+06
3.49744e+06
3.4974e+06
3.49736e+06
3.49733e+06
3.4973e+06
3.49653e+06
3.49248e+06
3.49629e+06
3.49355e+06
3.49429e+06
3.49421e+06
3.4918e+06
3.49363e+06
3.49217e+06
3.49451e+06
3.49674e+06
3.49872e+06
3.50004e+06
3.50013e+06
3.50004e+06
3.49982e+06
3.49959e+06
3.49934e+06
3.4991e+06
3.49886e+06
3.49865e+06
3.49846e+06
3.49828e+06
3.49813e+06
3.49799e+06
3.49786e+06
3.49775e+06
3.49765e+06
3.49756e+06
3.49748e+06
3.49741e+06
3.49734e+06
3.49729e+06
3.49724e+06
3.49719e+06
3.49715e+06
3.49712e+06
3.49709e+06
3.49707e+06
3.49165e+06
3.49474e+06
3.49239e+06
3.49381e+06
3.49157e+06
3.49323e+06
3.48928e+06
3.49198e+06
3.48985e+06
3.49314e+06
3.49537e+06
3.49776e+06
3.49904e+06
3.49937e+06
3.49939e+06
3.49931e+06
3.49916e+06
3.49897e+06
3.49876e+06
3.49856e+06
3.49837e+06
3.49819e+06
3.49802e+06
3.49787e+06
3.49773e+06
3.49761e+06
3.49749e+06
3.49739e+06
3.4973e+06
3.49722e+06
3.49715e+06
3.49709e+06
3.49703e+06
3.49698e+06
3.49694e+06
3.49691e+06
3.49688e+06
3.49685e+06
3.49684e+06
3.48643e+06
3.4972e+06
3.48825e+06
3.49405e+06
3.48883e+06
3.49204e+06
3.48694e+06
3.49017e+06
3.48761e+06
3.49173e+06
3.49402e+06
3.49679e+06
3.49806e+06
3.49863e+06
3.49877e+06
3.49881e+06
3.49873e+06
3.4986e+06
3.49844e+06
3.49826e+06
3.49809e+06
3.49792e+06
3.49776e+06
3.49761e+06
3.49748e+06
3.49735e+06
3.49724e+06
3.49714e+06
3.49704e+06
3.49696e+06
3.49689e+06
3.49683e+06
3.49678e+06
3.49673e+06
3.49669e+06
3.49666e+06
3.49663e+06
3.49661e+06
3.4966e+06
3.4819e+06
3.49899e+06
3.4846e+06
3.49406e+06
3.4865e+06
3.4908e+06
3.48516e+06
3.48845e+06
3.48581e+06
3.49046e+06
3.49285e+06
3.49594e+06
3.49722e+06
3.49799e+06
3.49823e+06
3.49838e+06
3.49835e+06
3.49827e+06
3.49813e+06
3.49798e+06
3.49782e+06
3.49766e+06
3.4975e+06
3.49735e+06
3.49722e+06
3.49709e+06
3.49698e+06
3.49687e+06
3.49678e+06
3.4967e+06
3.49663e+06
3.49657e+06
3.49652e+06
3.49648e+06
3.49644e+06
3.49641e+06
3.49639e+06
3.49638e+06
3.49637e+06
3.47944e+06
3.4993e+06
3.48255e+06
3.49362e+06
3.48517e+06
3.48967e+06
3.48427e+06
3.48713e+06
3.48473e+06
3.48951e+06
3.49201e+06
3.49527e+06
3.49656e+06
3.49748e+06
3.49778e+06
3.49801e+06
3.49802e+06
3.49797e+06
3.49786e+06
3.49771e+06
3.49756e+06
3.4974e+06
3.49724e+06
3.4971e+06
3.49696e+06
3.49683e+06
3.49672e+06
3.49661e+06
3.49652e+06
3.49644e+06
3.49637e+06
3.49631e+06
3.49626e+06
3.49622e+06
3.49619e+06
3.49616e+06
3.49615e+06
3.49614e+06
3.49613e+06
3.47952e+06
3.49852e+06
3.48253e+06
3.49303e+06
3.48512e+06
3.48906e+06
3.48454e+06
3.4866e+06
3.48461e+06
3.48905e+06
3.49162e+06
3.49487e+06
3.49615e+06
3.49713e+06
3.49748e+06
3.49774e+06
3.49777e+06
3.49773e+06
3.49761e+06
3.49747e+06
3.49731e+06
3.49715e+06
3.49699e+06
3.49684e+06
3.4967e+06
3.49657e+06
3.49645e+06
3.49635e+06
3.49625e+06
3.49617e+06
3.4961e+06
3.49605e+06
3.496e+06
3.49596e+06
3.49593e+06
3.49591e+06
3.4959e+06
3.49589e+06
3.49589e+06
3.48168e+06
3.49746e+06
3.48426e+06
3.49289e+06
3.48642e+06
3.48934e+06
3.48606e+06
3.4871e+06
3.48562e+06
3.48925e+06
3.49179e+06
3.49481e+06
3.49604e+06
3.49699e+06
3.49733e+06
3.49758e+06
3.49759e+06
3.49754e+06
3.49741e+06
3.49726e+06
3.49709e+06
3.49692e+06
3.49675e+06
3.49659e+06
3.49644e+06
3.49631e+06
3.49619e+06
3.49608e+06
3.49598e+06
3.4959e+06
3.49584e+06
3.49578e+06
3.49574e+06
3.4957e+06
3.49568e+06
3.49566e+06
3.49565e+06
3.49565e+06
3.49566e+06
3.48567e+06
3.49703e+06
3.48758e+06
3.49363e+06
3.48911e+06
3.49075e+06
3.48885e+06
3.48883e+06
3.48788e+06
3.49026e+06
3.49257e+06
3.49516e+06
3.49625e+06
3.49707e+06
3.49735e+06
3.49753e+06
3.4975e+06
3.49742e+06
3.49726e+06
3.49708e+06
3.49688e+06
3.49669e+06
3.49651e+06
3.49634e+06
3.49618e+06
3.49604e+06
3.49592e+06
3.49581e+06
3.49571e+06
3.49563e+06
3.49557e+06
3.49551e+06
3.49547e+06
3.49544e+06
3.49542e+06
3.49541e+06
3.4954e+06
3.49541e+06
3.49542e+06
3.4906e+06
3.49771e+06
3.4924e+06
3.49559e+06
3.49321e+06
3.49345e+06
3.49284e+06
3.49194e+06
3.49127e+06
3.49198e+06
3.49398e+06
3.49592e+06
3.4968e+06
3.49738e+06
3.49755e+06
3.49761e+06
3.49751e+06
3.49735e+06
3.49714e+06
3.49692e+06
3.4967e+06
3.49648e+06
3.49628e+06
3.49609e+06
3.49592e+06
3.49578e+06
3.49564e+06
3.49553e+06
3.49544e+06
3.49536e+06
3.49529e+06
3.49524e+06
3.4952e+06
3.49518e+06
3.49516e+06
3.49515e+06
3.49515e+06
3.49516e+06
3.49518e+06
3.49727e+06
3.49974e+06
3.49841e+06
3.49888e+06
3.49856e+06
3.49739e+06
3.49781e+06
3.49626e+06
3.49569e+06
3.49451e+06
3.49599e+06
3.49709e+06
3.49767e+06
3.49791e+06
3.49791e+06
3.49781e+06
3.49759e+06
3.49734e+06
3.49706e+06
3.49679e+06
3.49652e+06
3.49627e+06
3.49605e+06
3.49584e+06
3.49566e+06
3.4955e+06
3.49537e+06
3.49525e+06
3.49516e+06
3.49508e+06
3.49501e+06
3.49497e+06
3.49493e+06
3.49491e+06
3.4949e+06
3.4949e+06
3.4949e+06
3.49492e+06
3.49493e+06
3.5045e+06
3.50355e+06
3.50527e+06
3.50346e+06
3.5048e+06
3.50233e+06
3.50348e+06
3.5015e+06
3.50094e+06
3.49781e+06
3.49848e+06
3.49865e+06
3.49881e+06
3.49864e+06
3.49842e+06
3.4981e+06
3.49775e+06
3.49738e+06
3.49702e+06
3.49667e+06
3.49636e+06
3.49607e+06
3.49582e+06
3.49559e+06
3.4954e+06
3.49523e+06
3.49509e+06
3.49497e+06
3.49487e+06
3.49479e+06
3.49473e+06
3.49469e+06
3.49466e+06
3.49464e+06
3.49463e+06
3.49464e+06
3.49465e+06
3.49467e+06
3.49469e+06
3.512e+06
3.50861e+06
3.51222e+06
3.50905e+06
3.5114e+06
3.50797e+06
3.50953e+06
3.50737e+06
3.5067e+06
3.50161e+06
3.50128e+06
3.50051e+06
3.50017e+06
3.49954e+06
3.49904e+06
3.49848e+06
3.49796e+06
3.49745e+06
3.49699e+06
3.49657e+06
3.4962e+06
3.49587e+06
3.49558e+06
3.49533e+06
3.49512e+06
3.49494e+06
3.4948e+06
3.49468e+06
3.49458e+06
3.4945e+06
3.49445e+06
3.49441e+06
3.49438e+06
3.49437e+06
3.49437e+06
3.49438e+06
3.4944e+06
3.49442e+06
3.49445e+06
3.51859e+06
3.51484e+06
3.51878e+06
3.51525e+06
3.51779e+06
3.51402e+06
3.5156e+06
3.51346e+06
3.51263e+06
3.50583e+06
3.50439e+06
3.50261e+06
3.50169e+06
3.50055e+06
3.49973e+06
3.4989e+06
3.49819e+06
3.49754e+06
3.49697e+06
3.49646e+06
3.49603e+06
3.49565e+06
3.49533e+06
3.49506e+06
3.49484e+06
3.49465e+06
3.4945e+06
3.49438e+06
3.49428e+06
3.49421e+06
3.49416e+06
3.49412e+06
3.4941e+06
3.4941e+06
3.4941e+06
3.49412e+06
3.49414e+06
3.49417e+06
3.49421e+06
3.52436e+06
3.52124e+06
3.52436e+06
3.52141e+06
3.52351e+06
3.52011e+06
3.52154e+06
3.5195e+06
3.51858e+06
3.51031e+06
3.50768e+06
3.50485e+06
3.5033e+06
3.50162e+06
3.50046e+06
3.49933e+06
3.49843e+06
3.49761e+06
3.49693e+06
3.49634e+06
3.49584e+06
3.49542e+06
3.49507e+06
3.49478e+06
3.49454e+06
3.49435e+06
3.49419e+06
3.49407e+06
3.49397e+06
3.49391e+06
3.49386e+06
3.49383e+06
3.49382e+06
3.49382e+06
3.49383e+06
3.49386e+06
3.49389e+06
3.49392e+06
3.49396e+06
3.52894e+06
3.52713e+06
3.52885e+06
3.52684e+06
3.52831e+06
3.52597e+06
3.52736e+06
3.52541e+06
3.52449e+06
3.51487e+06
3.51098e+06
3.5071e+06
3.50489e+06
3.50267e+06
3.50115e+06
3.49973e+06
3.49863e+06
3.49765e+06
3.49686e+06
3.49618e+06
3.49562e+06
3.49516e+06
3.49478e+06
3.49447e+06
3.49422e+06
3.49403e+06
3.49387e+06
3.49375e+06
3.49366e+06
3.4936e+06
3.49356e+06
3.49354e+06
3.49353e+06
3.49354e+06
3.49356e+06
3.49359e+06
3.49363e+06
3.49367e+06
3.49372e+06
3.53264e+06
3.53152e+06
3.53233e+06
3.53102e+06
3.53224e+06
3.53148e+06
3.53322e+06
3.53132e+06
3.53046e+06
3.51947e+06
3.51422e+06
3.50928e+06
3.50638e+06
3.50363e+06
3.50175e+06
3.50005e+06
3.49875e+06
3.49763e+06
3.49673e+06
3.49597e+06
3.49537e+06
3.49487e+06
3.49447e+06
3.49414e+06
3.49389e+06
3.49369e+06
3.49353e+06
3.49342e+06
3.49334e+06
3.49328e+06
3.49325e+06
3.49324e+06
3.49324e+06
3.49326e+06
3.49329e+06
3.49333e+06
3.49337e+06
3.49342e+06
3.49348e+06
3.53557e+06
3.53417e+06
3.535e+06
3.53382e+06
3.53543e+06
3.53657e+06
3.53928e+06
3.53745e+06
3.53649e+06
3.52381e+06
3.5172e+06
3.51118e+06
3.50763e+06
3.50438e+06
3.50217e+06
3.50022e+06
3.49875e+06
3.4975e+06
3.49651e+06
3.4957e+06
3.49505e+06
3.49453e+06
3.49411e+06
3.49378e+06
3.49353e+06
3.49333e+06
3.49318e+06
3.49307e+06
3.493e+06
3.49296e+06
3.49294e+06
3.49293e+06
3.49295e+06
3.49298e+06
3.49301e+06
3.49306e+06
3.49311e+06
3.49317e+06
3.49323e+06
3.53796e+06
3.53571e+06
3.53701e+06
3.5357e+06
3.53812e+06
3.54129e+06
3.54515e+06
3.54362e+06
3.5422e+06
3.52762e+06
3.51967e+06
3.51263e+06
3.5085e+06
3.50482e+06
3.50234e+06
3.50019e+06
3.49859e+06
3.49725e+06
3.4962e+06
3.49534e+06
3.49467e+06
3.49414e+06
3.49372e+06
3.49339e+06
3.49314e+06
3.49295e+06
3.49281e+06
3.49272e+06
3.49266e+06
3.49263e+06
3.49262e+06
3.49263e+06
3.49265e+06
3.49269e+06
3.49274e+06
3.49279e+06
3.49285e+06
3.49292e+06
3.49299e+06
3.53938e+06
3.53706e+06
3.53825e+06
3.53731e+06
3.54016e+06
3.54542e+06
3.54996e+06
3.54914e+06
3.54663e+06
3.53006e+06
3.52109e+06
3.51329e+06
3.50878e+06
3.5048e+06
3.50217e+06
3.49989e+06
3.49822e+06
3.49683e+06
3.49575e+06
3.49489e+06
3.49421e+06
3.49368e+06
3.49327e+06
3.49296e+06
3.49272e+06
3.49255e+06
3.49243e+06
3.49235e+06
3.4923e+06
3.49229e+06
3.49229e+06
3.49231e+06
3.49235e+06
3.4924e+06
3.49246e+06
3.49253e+06
3.4926e+06
3.49267e+06
3.49274e+06
3.53961e+06
3.53864e+06
3.53856e+06
3.53921e+06
3.54106e+06
3.54816e+06
3.55276e+06
3.55267e+06
3.5487e+06
3.53058e+06
3.52108e+06
3.51293e+06
3.5083e+06
3.50424e+06
3.50157e+06
3.49927e+06
3.4976e+06
3.49622e+06
3.49516e+06
3.49431e+06
3.49366e+06
3.49316e+06
3.49277e+06
3.49248e+06
3.49227e+06
3.49212e+06
3.49202e+06
3.49196e+06
3.49194e+06
3.49194e+06
3.49196e+06
3.492e+06
3.49205e+06
3.49211e+06
3.49218e+06
3.49226e+06
3.49234e+06
3.49242e+06
3.4925e+06
3.53825e+06
3.53885e+06
3.53745e+06
3.53978e+06
3.54052e+06
3.54823e+06
3.55258e+06
3.55287e+06
3.54763e+06
3.5288e+06
3.51937e+06
3.51136e+06
3.50693e+06
3.50301e+06
3.50047e+06
3.49829e+06
3.4967e+06
3.4954e+06
3.49441e+06
3.49362e+06
3.49302e+06
3.49256e+06
3.49222e+06
3.49196e+06
3.49179e+06
3.49167e+06
3.4916e+06
3.49157e+06
3.49156e+06
3.49158e+06
3.49162e+06
3.49168e+06
3.49175e+06
3.49182e+06
3.4919e+06
3.49199e+06
3.49208e+06
3.49217e+06
3.49226e+06
3.53427e+06
3.5355e+06
3.53377e+06
3.53672e+06
3.53745e+06
3.54455e+06
3.5486e+06
3.54905e+06
3.54275e+06
3.52429e+06
3.51571e+06
3.50847e+06
3.50458e+06
3.5011e+06
3.49886e+06
3.49692e+06
3.49551e+06
3.49436e+06
3.49348e+06
3.4928e+06
3.49228e+06
3.49189e+06
3.49161e+06
3.49141e+06
3.49127e+06
3.49119e+06
3.49116e+06
3.49116e+06
3.49118e+06
3.49122e+06
3.49128e+06
3.49136e+06
3.49144e+06
3.49153e+06
3.49162e+06
3.49172e+06
3.49182e+06
3.49192e+06
3.49202e+06
3.52719e+06
3.52784e+06
3.52685e+06
3.52944e+06
3.53089e+06
3.5367e+06
3.54045e+06
3.54079e+06
3.53368e+06
3.51698e+06
3.51005e+06
3.50425e+06
3.50126e+06
3.49848e+06
3.49672e+06
3.49516e+06
3.49403e+06
3.4931e+06
3.4924e+06
3.49185e+06
3.49144e+06
3.49115e+06
3.49094e+06
3.49081e+06
3.49073e+06
3.4907e+06
3.4907e+06
3.49073e+06
3.49079e+06
3.49086e+06
3.49094e+06
3.49103e+06
3.49113e+06
3.49124e+06
3.49135e+06
3.49145e+06
3.49156e+06
3.49167e+06
3.49178e+06
3.51729e+06
3.51591e+06
3.51693e+06
3.51794e+06
3.52088e+06
3.52493e+06
3.52825e+06
3.52842e+06
3.52071e+06
3.50724e+06
3.50263e+06
3.49885e+06
3.49705e+06
3.49524e+06
3.49409e+06
3.49304e+06
3.49227e+06
3.49163e+06
3.49115e+06
3.49079e+06
3.49052e+06
3.49034e+06
3.49023e+06
3.49018e+06
3.49016e+06
3.49019e+06
3.49023e+06
3.49031e+06
3.49039e+06
3.49049e+06
3.4906e+06
3.49071e+06
3.49083e+06
3.49095e+06
3.49107e+06
3.49119e+06
3.49131e+06
3.49143e+06
3.49154e+06
3.50478e+06
3.50057e+06
3.50444e+06
3.50318e+06
3.50771e+06
3.51011e+06
3.51265e+06
3.5128e+06
3.50462e+06
3.49566e+06
3.49382e+06
3.49255e+06
3.49212e+06
3.49148e+06
3.49106e+06
3.49063e+06
3.49029e+06
3.49e+06
3.48978e+06
3.48963e+06
3.48953e+06
3.48948e+06
3.48948e+06
3.48952e+06
3.48958e+06
3.48966e+06
3.48976e+06
3.48987e+06
3.48999e+06
3.49012e+06
3.49025e+06
3.49039e+06
3.49052e+06
3.49066e+06
3.49079e+06
3.49092e+06
3.49105e+06
3.49118e+06
3.4913e+06
3.49096e+06
3.48417e+06
3.49011e+06
3.48746e+06
3.4923e+06
3.4935e+06
3.49477e+06
3.49501e+06
3.48644e+06
3.48288e+06
3.48405e+06
3.48563e+06
3.48666e+06
3.48734e+06
3.48772e+06
3.48798e+06
3.48812e+06
3.48823e+06
3.48831e+06
3.48839e+06
3.48848e+06
3.48859e+06
3.48871e+06
3.48884e+06
3.48898e+06
3.48912e+06
3.48928e+06
3.48943e+06
3.48959e+06
3.48975e+06
3.48991e+06
3.49006e+06
3.49022e+06
3.49037e+06
3.49052e+06
3.49066e+06
3.4908e+06
3.49094e+06
3.49107e+06
3.47649e+06
3.46984e+06
3.47527e+06
3.47325e+06
3.4762e+06
3.47647e+06
3.47621e+06
3.47646e+06
3.46762e+06
3.46971e+06
3.47387e+06
3.47843e+06
3.48094e+06
3.483e+06
3.48421e+06
3.48521e+06
3.48585e+06
3.48638e+06
3.48677e+06
3.48711e+06
3.4874e+06
3.48767e+06
3.48791e+06
3.48815e+06
3.48837e+06
3.48859e+06
3.48879e+06
3.489e+06
3.48919e+06
3.48938e+06
3.48957e+06
3.48974e+06
3.48992e+06
3.49008e+06
3.49025e+06
3.4904e+06
3.49055e+06
3.4907e+06
3.49084e+06
3.46321e+06
3.45896e+06
3.46163e+06
3.46213e+06
3.46123e+06
3.4604e+06
3.45881e+06
3.45872e+06
3.44987e+06
3.45702e+06
3.46394e+06
3.47133e+06
3.47523e+06
3.47865e+06
3.48068e+06
3.4824e+06
3.48355e+06
3.48451e+06
3.48522e+06
3.48583e+06
3.48632e+06
3.48675e+06
3.48712e+06
3.48746e+06
3.48777e+06
3.48805e+06
3.48832e+06
3.48857e+06
3.4888e+06
3.48902e+06
3.48923e+06
3.48943e+06
3.48962e+06
3.4898e+06
3.48998e+06
3.49015e+06
3.49031e+06
3.49046e+06
3.49061e+06
3.45218e+06
3.45227e+06
3.45116e+06
3.45442e+06
3.44913e+06
3.44677e+06
3.44455e+06
3.4437e+06
3.43493e+06
3.44559e+06
3.45479e+06
3.46468e+06
3.46982e+06
3.47447e+06
3.47727e+06
3.47968e+06
3.48132e+06
3.48268e+06
3.48371e+06
3.48457e+06
3.48526e+06
3.48585e+06
3.48635e+06
3.48679e+06
3.48718e+06
3.48754e+06
3.48785e+06
3.48815e+06
3.48842e+06
3.48867e+06
3.4889e+06
3.48912e+06
3.48933e+06
3.48953e+06
3.48972e+06
3.48989e+06
3.49006e+06
3.49023e+06
3.49038e+06
3.44557e+06
3.4485e+06
3.44505e+06
3.44923e+06
3.44116e+06
3.43702e+06
3.43507e+06
3.43312e+06
3.42436e+06
3.43623e+06
3.44716e+06
3.4588e+06
3.465e+06
3.47066e+06
3.47413e+06
3.47714e+06
3.47923e+06
3.48096e+06
3.48228e+06
3.48337e+06
3.48425e+06
3.48499e+06
3.48561e+06
3.48615e+06
3.48662e+06
3.48704e+06
3.48741e+06
3.48774e+06
3.48805e+06
3.48832e+06
3.48858e+06
3.48882e+06
3.48905e+06
3.48926e+06
3.48946e+06
3.48965e+06
3.48982e+06
3.48999e+06
3.49015e+06
3.44381e+06
3.44661e+06
3.44418e+06
3.44586e+06
3.43798e+06
3.43202e+06
3.43113e+06
3.42768e+06
3.41874e+06
3.42947e+06
3.4415e+06
3.45401e+06
3.46102e+06
3.46737e+06
3.47141e+06
3.47489e+06
3.47736e+06
3.47941e+06
3.48098e+06
3.44766e+06
3.44528e+06
3.44781e+06
3.44415e+06
3.43946e+06
3.43183e+06
3.43249e+06
3.42755e+06
3.41787e+06
3.42454e+06
3.43737e+06
3.45022e+06
3.45791e+06
3.46468e+06
3.46917e+06
3.473e+06
3.47578e+06
3.43521e+06
3.44762e+06
3.49885e+06
3.50004e+06
3.49967e+06
3.49957e+06
3.49821e+06
3.4984e+06
3.49872e+06
3.49879e+06
3.49789e+06
3.4948e+06
3.49542e+06
3.4963e+06
3.49778e+06
3.4997e+06
3.49961e+06
3.50024e+06
3.50062e+06
3.50096e+06
3.50117e+06
3.50129e+06
3.50134e+06
3.50135e+06
3.50133e+06
3.50128e+06
3.50123e+06
3.50116e+06
3.50109e+06
3.50101e+06
3.50092e+06
3.50083e+06
3.50073e+06
3.50063e+06
3.50053e+06
3.50042e+06
3.50031e+06
3.50019e+06
3.50006e+06
3.49992e+06
3.49975e+06
3.49918e+06
3.50115e+06
3.49926e+06
3.50142e+06
3.50104e+06
3.5023e+06
3.50188e+06
3.50246e+06
3.5028e+06
3.50127e+06
3.5003e+06
3.5023e+06
3.5057e+06
3.50502e+06
3.50324e+06
3.502e+06
3.50126e+06
3.5008e+06
3.50052e+06
3.50035e+06
3.50027e+06
3.50022e+06
3.50021e+06
3.50021e+06
3.50021e+06
3.50022e+06
3.50022e+06
3.50022e+06
3.50022e+06
3.5002e+06
3.50018e+06
3.50014e+06
3.50009e+06
3.50004e+06
3.49997e+06
3.49988e+06
3.49978e+06
3.49967e+06
3.49951e+06
3.49823e+06
3.50034e+06
3.49857e+06
3.50019e+06
3.49938e+06
3.50016e+06
3.50019e+06
3.5002e+06
3.50041e+06
3.49866e+06
3.49726e+06
3.5001e+06
3.50451e+06
3.50355e+06
3.50277e+06
3.50195e+06
3.50153e+06
3.5012e+06
3.50097e+06
3.50079e+06
3.50065e+06
3.50053e+06
3.50043e+06
3.50035e+06
3.50028e+06
3.50021e+06
3.50015e+06
3.5001e+06
3.50005e+06
3.49999e+06
3.49994e+06
3.49988e+06
3.49982e+06
3.49975e+06
3.49968e+06
3.49961e+06
3.49952e+06
3.49942e+06
3.4993e+06
3.49857e+06
3.50015e+06
3.49872e+06
3.5002e+06
3.49983e+06
3.5004e+06
3.50072e+06
3.50075e+06
3.50157e+06
3.5007e+06
3.50111e+06
3.50271e+06
3.5056e+06
3.50517e+06
3.50387e+06
3.50274e+06
3.50196e+06
3.50135e+06
3.50094e+06
3.50063e+06
3.50042e+06
3.50026e+06
3.50015e+06
3.50006e+06
3.49999e+06
3.49993e+06
3.49988e+06
3.49983e+06
3.49978e+06
3.49973e+06
3.49968e+06
3.49962e+06
3.49956e+06
3.4995e+06
3.49943e+06
3.49936e+06
3.49927e+06
3.49918e+06
3.49908e+06
3.4982e+06
3.49861e+06
3.49844e+06
3.49896e+06
3.49929e+06
3.49924e+06
3.49999e+06
3.4994e+06
3.50029e+06
3.49938e+06
3.50007e+06
3.50186e+06
3.50488e+06
3.50439e+06
3.50347e+06
3.50254e+06
3.50191e+06
3.50136e+06
3.50096e+06
3.50064e+06
3.5004e+06
3.5002e+06
3.50005e+06
3.49993e+06
3.49983e+06
3.49974e+06
3.49967e+06
3.4996e+06
3.49954e+06
3.49948e+06
3.49943e+06
3.49937e+06
3.49931e+06
3.49924e+06
3.49918e+06
3.49911e+06
3.49903e+06
3.49895e+06
3.49886e+06
3.49904e+06
3.49703e+06
3.49887e+06
3.49806e+06
3.49943e+06
3.49873e+06
3.50002e+06
3.49919e+06
3.50046e+06
3.49992e+06
3.50129e+06
3.50273e+06
3.50522e+06
3.50467e+06
3.50368e+06
3.5027e+06
3.50198e+06
3.50136e+06
3.5009e+06
3.50053e+06
3.50025e+06
3.50003e+06
3.49986e+06
3.49973e+06
3.49961e+06
3.49952e+06
3.49944e+06
3.49936e+06
3.4993e+06
3.49923e+06
3.49917e+06
3.49911e+06
3.49905e+06
3.49899e+06
3.49893e+06
3.49886e+06
3.49879e+06
3.49872e+06
3.49864e+06
3.49996e+06
3.495e+06
3.49941e+06
3.49677e+06
3.49938e+06
3.4979e+06
3.49968e+06
3.49846e+06
3.49979e+06
3.4992e+06
3.50086e+06
3.50222e+06
3.50455e+06
3.50402e+06
3.50323e+06
3.50238e+06
3.50175e+06
3.50119e+06
3.50075e+06
3.50039e+06
3.5001e+06
3.49987e+06
3.49969e+06
3.49953e+06
3.49941e+06
3.4993e+06
3.49921e+06
3.49913e+06
3.49905e+06
3.49899e+06
3.49892e+06
3.49886e+06
3.4988e+06
3.49874e+06
3.49868e+06
3.49861e+06
3.49855e+06
3.49849e+06
3.49842e+06
3.50143e+06
3.49301e+06
3.50029e+06
3.49568e+06
3.49952e+06
3.49734e+06
3.49943e+06
3.49812e+06
3.4995e+06
3.49908e+06
3.50104e+06
3.50225e+06
3.50429e+06
3.50372e+06
3.50299e+06
3.50218e+06
3.50157e+06
3.50102e+06
3.50058e+06
3.50021e+06
3.49992e+06
3.49968e+06
3.49948e+06
3.49932e+06
3.49919e+06
3.49907e+06
3.49898e+06
3.49889e+06
3.49881e+06
3.49874e+06
3.49867e+06
3.49861e+06
3.49855e+06
3.49849e+06
3.49843e+06
3.49837e+06
3.49831e+06
3.49826e+06
3.4982e+06
3.50242e+06
3.49133e+06
3.50112e+06
3.49466e+06
3.49944e+06
3.49673e+06
3.49879e+06
3.49756e+06
3.4987e+06
3.49841e+06
3.50052e+06
3.50169e+06
3.50354e+06
3.50303e+06
3.50245e+06
3.50176e+06
3.50123e+06
3.50073e+06
3.50033e+06
3.49998e+06
3.4997e+06
3.49946e+06
3.49927e+06
3.4991e+06
3.49896e+06
3.49884e+06
3.49874e+06
3.49865e+06
3.49856e+06
3.49849e+06
3.49842e+06
3.49836e+06
3.49829e+06
3.49824e+06
3.49818e+06
3.49813e+06
3.49807e+06
3.49802e+06
3.49798e+06
3.50313e+06
3.49018e+06
3.50153e+06
3.49396e+06
3.49909e+06
3.49621e+06
3.49779e+06
3.49698e+06
3.49772e+06
3.49781e+06
3.50002e+06
3.50123e+06
3.50288e+06
3.50244e+06
3.50196e+06
3.50136e+06
3.50089e+06
3.50044e+06
3.50006e+06
3.49974e+06
3.49946e+06
3.49923e+06
3.49904e+06
3.49887e+06
3.49873e+06
3.4986e+06
3.4985e+06
3.4984e+06
3.49832e+06
3.49824e+06
3.49817e+06
3.4981e+06
3.49804e+06
3.49799e+06
3.49793e+06
3.49788e+06
3.49784e+06
3.49779e+06
3.49775e+06
3.50249e+06
3.49003e+06
3.50103e+06
3.49354e+06
3.49816e+06
3.49563e+06
3.49625e+06
3.49613e+06
3.49623e+06
3.49687e+06
3.49911e+06
3.50046e+06
3.50198e+06
3.50168e+06
3.50133e+06
3.50085e+06
3.50047e+06
3.50008e+06
3.49976e+06
3.49946e+06
3.4992e+06
3.49898e+06
3.49879e+06
3.49863e+06
3.49849e+06
3.49836e+06
3.49825e+06
3.49815e+06
3.49807e+06
3.49799e+06
3.49792e+06
3.49785e+06
3.49779e+06
3.49774e+06
3.49769e+06
3.49764e+06
3.4976e+06
3.49756e+06
3.49753e+06
3.50041e+06
3.49076e+06
3.49927e+06
3.49343e+06
3.49657e+06
3.495e+06
3.49422e+06
3.49504e+06
3.49438e+06
3.49581e+06
3.49804e+06
3.49967e+06
3.50106e+06
3.50094e+06
3.50071e+06
3.50036e+06
3.50005e+06
3.49972e+06
3.49943e+06
3.49917e+06
3.49893e+06
3.49872e+06
3.49854e+06
3.49838e+06
3.49824e+06
3.49811e+06
3.498e+06
3.4979e+06
3.49781e+06
3.49773e+06
3.49766e+06
3.4976e+06
3.49754e+06
3.49749e+06
3.49744e+06
3.4974e+06
3.49736e+06
3.49733e+06
3.4973e+06
3.49653e+06
3.49248e+06
3.49629e+06
3.49355e+06
3.49429e+06
3.49421e+06
3.4918e+06
3.49363e+06
3.49217e+06
3.49451e+06
3.49674e+06
3.49872e+06
3.50004e+06
3.50013e+06
3.50004e+06
3.49982e+06
3.49959e+06
3.49934e+06
3.4991e+06
3.49886e+06
3.49865e+06
3.49846e+06
3.49828e+06
3.49813e+06
3.49799e+06
3.49786e+06
3.49775e+06
3.49765e+06
3.49756e+06
3.49748e+06
3.49741e+06
3.49734e+06
3.49729e+06
3.49724e+06
3.49719e+06
3.49715e+06
3.49712e+06
3.49709e+06
3.49707e+06
3.49165e+06
3.49474e+06
3.49239e+06
3.49381e+06
3.49157e+06
3.49323e+06
3.48928e+06
3.49198e+06
3.48985e+06
3.49314e+06
3.49537e+06
3.49776e+06
3.49904e+06
3.49937e+06
3.49939e+06
3.49931e+06
3.49916e+06
3.49897e+06
3.49876e+06
3.49856e+06
3.49837e+06
3.49819e+06
3.49802e+06
3.49787e+06
3.49773e+06
3.49761e+06
3.49749e+06
3.49739e+06
3.4973e+06
3.49722e+06
3.49715e+06
3.49709e+06
3.49703e+06
3.49698e+06
3.49694e+06
3.49691e+06
3.49688e+06
3.49685e+06
3.49684e+06
3.48643e+06
3.4972e+06
3.48825e+06
3.49405e+06
3.48883e+06
3.49204e+06
3.48694e+06
3.49017e+06
3.48761e+06
3.49173e+06
3.49402e+06
3.49679e+06
3.49806e+06
3.49863e+06
3.49877e+06
3.49881e+06
3.49873e+06
3.4986e+06
3.49844e+06
3.49826e+06
3.49809e+06
3.49792e+06
3.49776e+06
3.49761e+06
3.49748e+06
3.49735e+06
3.49724e+06
3.49714e+06
3.49704e+06
3.49696e+06
3.49689e+06
3.49683e+06
3.49678e+06
3.49673e+06
3.49669e+06
3.49666e+06
3.49663e+06
3.49661e+06
3.4966e+06
3.4819e+06
3.49899e+06
3.4846e+06
3.49406e+06
3.4865e+06
3.4908e+06
3.48516e+06
3.48845e+06
3.48581e+06
3.49046e+06
3.49285e+06
3.49594e+06
3.49722e+06
3.49799e+06
3.49823e+06
3.49838e+06
3.49835e+06
3.49827e+06
3.49813e+06
3.49798e+06
3.49782e+06
3.49766e+06
3.4975e+06
3.49735e+06
3.49722e+06
3.49709e+06
3.49698e+06
3.49687e+06
3.49678e+06
3.4967e+06
3.49663e+06
3.49657e+06
3.49652e+06
3.49648e+06
3.49644e+06
3.49641e+06
3.49639e+06
3.49638e+06
3.49637e+06
3.47944e+06
3.4993e+06
3.48255e+06
3.49362e+06
3.48517e+06
3.48967e+06
3.48427e+06
3.48713e+06
3.48473e+06
3.48951e+06
3.49201e+06
3.49527e+06
3.49656e+06
3.49748e+06
3.49778e+06
3.49801e+06
3.49802e+06
3.49797e+06
3.49786e+06
3.49771e+06
3.49756e+06
3.4974e+06
3.49724e+06
3.4971e+06
3.49696e+06
3.49683e+06
3.49672e+06
3.49661e+06
3.49652e+06
3.49644e+06
3.49637e+06
3.49631e+06
3.49626e+06
3.49622e+06
3.49619e+06
3.49616e+06
3.49615e+06
3.49614e+06
3.49613e+06
3.47952e+06
3.49852e+06
3.48253e+06
3.49303e+06
3.48512e+06
3.48906e+06
3.48454e+06
3.4866e+06
3.48461e+06
3.48905e+06
3.49162e+06
3.49487e+06
3.49615e+06
3.49713e+06
3.49748e+06
3.49774e+06
3.49777e+06
3.49773e+06
3.49761e+06
3.49747e+06
3.49731e+06
3.49715e+06
3.49699e+06
3.49684e+06
3.4967e+06
3.49657e+06
3.49645e+06
3.49635e+06
3.49625e+06
3.49617e+06
3.4961e+06
3.49605e+06
3.496e+06
3.49596e+06
3.49593e+06
3.49591e+06
3.4959e+06
3.49589e+06
3.49589e+06
3.48168e+06
3.49746e+06
3.48426e+06
3.49289e+06
3.48642e+06
3.48934e+06
3.48606e+06
3.4871e+06
3.48562e+06
3.48925e+06
3.49179e+06
3.49481e+06
3.49604e+06
3.49699e+06
3.49733e+06
3.49758e+06
3.49759e+06
3.49754e+06
3.49741e+06
3.49726e+06
3.49709e+06
3.49692e+06
3.49675e+06
3.49659e+06
3.49644e+06
3.49631e+06
3.49619e+06
3.49608e+06
3.49598e+06
3.4959e+06
3.49584e+06
3.49578e+06
3.49574e+06
3.4957e+06
3.49568e+06
3.49566e+06
3.49565e+06
3.49565e+06
3.49566e+06
3.48567e+06
3.49703e+06
3.48758e+06
3.49363e+06
3.48911e+06
3.49075e+06
3.48885e+06
3.48883e+06
3.48788e+06
3.49026e+06
3.49257e+06
3.49516e+06
3.49625e+06
3.49707e+06
3.49735e+06
3.49753e+06
3.4975e+06
3.49742e+06
3.49726e+06
3.49708e+06
3.49688e+06
3.49669e+06
3.49651e+06
3.49634e+06
3.49618e+06
3.49604e+06
3.49592e+06
3.49581e+06
3.49571e+06
3.49563e+06
3.49557e+06
3.49551e+06
3.49547e+06