/*--------------------------------*- C++ -*----------------------------------*\
| =========                 |                                                 |
| \\      /  F ield         | OpenFOAM: The Open Source CFD Toolbox           |
|  \\    /   O peration     | Version:  v2012                                 |
|   \\  /    A nd           | Website:  www.openfoam.com                      |
|    \\/     M anipulation  |                                                 |
\*---------------------------------------------------------------------------*/
FoamFile
{
    version     2.0;
    format      ascii;
    class       volVectorField;
    location    "0.05";
    object      U;
}
// * * * * * * * * * * * * * * * * * * * * * * * * * * * * * * * * * * * * * //

dimensions      [0 1 -1 0 0 0 0];


internalField   nonuniform List<vector> 
3320
(
(-3.28725 -0.273292 0.0286885)
(-2.60209 -0.198536 0.0227091)
(-2.06476 -0.14533 0.0180198)
(-1.64142 -0.106728 0.0143252)
(-1.30584 -0.0784245 0.0113965)
(-1.03919 -0.0575626 0.00906942)
(-0.826933 -0.0421682 0.00721699)
(-0.657868 -0.0308228 0.00574153)
(-0.523183 -0.0224854 0.00456611)
(-0.415902 -0.0163805 0.00362985)
(-0.330471 -0.0119266 0.00288428)
(-0.262455 -0.00868684 0.00229068)
(-0.208312 -0.00633526 0.00181816)
(-0.165218 -0.00462975 0.00144206)
(-0.13092 -0.00339233 0.00114272)
(-0.103627 -0.00249267 0.000904508)
(-0.0819141 -0.0018374 0.000715001)
(-0.0646449 -0.00135947 0.000564274)
(-0.0509179 -0.00100915 0.00044446)
(-0.0400143 -0.000751556 0.000349287)
(-0.0313617 -0.000561507 0.000273763)
(-0.0245039 -0.000420785 0.000213902)
(-0.0190773 -0.000316298 0.000166535)
(-0.0147905 -0.000238455 0.000129113)
(-0.0114111 -0.000180307 9.96149e-05)
(-0.00875368 -0.000136747 7.64168e-05)
(-0.00666986 -0.000104035 5.82264e-05)
(-0.0050414 -7.94232e-05 4.40109e-05)
(-0.00377325 -6.08593e-05 3.29398e-05)
(-0.00278982 -4.68373e-05 2.43552e-05)
(-0.00203069 -3.62302e-05 1.77278e-05)
(-0.00144755 -2.8188e-05 1.2637e-05)
(-0.00100177 -2.21091e-05 8.74566e-06)
(-0.000662486 -1.75252e-05 5.78354e-06)
(-0.000405178 -1.40674e-05 3.53745e-06)
(-0.00021049 -1.147e-05 1.83783e-06)
(-6.40494e-05 -9.42829e-06 5.59293e-07)
(4.36431e-05 -7.86622e-06 -3.80964e-07)
(0.000116409 -6.2588e-06 -1.01657e-06)
(0.000151321 -4.6678e-06 -1.32198e-06)
(0.000140093 -2.65708e-06 -1.22449e-06)
(7.92097e-05 -1.29685e-06 -6.94395e-07)
(7.17197e-06 -1.89116e-06 -8.97179e-08)
(-4.20185 -0.850009 0.0366806)
(-3.50192 -0.658643 0.0305707)
(-2.92219 -0.515419 0.02551)
(-2.44002 -0.405805 0.0213009)
(-2.0367 -0.320719 0.0177801)
(-1.69831 -0.25392 0.0148261)
(-1.41378 -0.201111 0.0123423)
(-1.17438 -0.159185 0.0102525)
(-0.973028 -0.125843 0.0084947)
(-0.803894 -0.0993266 0.0070182)
(-0.662116 -0.078262 0.00578049)
(-0.543573 -0.0615579 0.00474562)
(-0.444748 -0.0483385 0.00388287)
(-0.362626 -0.0378984 0.00316594)
(-0.294612 -0.0296688 0.00257215)
(-0.238473 -0.0231925 0.00208205)
(-0.1923 -0.0181041 0.00167893)
(-0.154454 -0.0141115 0.00134852)
(-0.123542 -0.0109824 0.00107864)
(-0.0983817 -0.00853305 0.000858978)
(-0.0779763 -0.0066181 0.000680824)
(-0.061487 -0.00512278 0.000536859)
(-0.0482134 -0.00395688 0.000420969)
(-0.0375687 -0.00304902 0.00032803)
(-0.0290675 -0.00234323 0.000253805)
(-0.0223077 -0.00179548 0.000194784)
(-0.0169579 -0.00137122 0.000148074)
(-0.0127465 -0.00104341 0.000111303)
(-0.00944932 -0.00079073 8.25128e-05)
(-0.00688407 -0.000596612 6.01149e-05)
(-0.004902 -0.000448082 4.28078e-05)
(-0.00338191 -0.000334969 2.95348e-05)
(-0.00222535 -0.00024938 1.94362e-05)
(-0.00135256 -0.000185112 1.18147e-05)
(-0.000699367 -0.000137158 6.11121e-06)
(-0.00021488 -0.00010151 1.88068e-06)
(0.000138974 -7.4361e-05 -1.20946e-06)
(0.000387531 -5.20232e-05 -3.38021e-06)
(0.000540347 -3.02474e-05 -4.71549e-06)
(0.000589871 -5.84336e-06 -5.1495e-06)
(0.000515434 2.15452e-05 -4.5016e-06)
(0.000308538 4.06291e-05 -2.70045e-06)
(5.41631e-05 2.63582e-05 -5.49084e-07)
(-4.07873 -1.25699 0.0356049)
(-3.4803 -0.997731 0.0303811)
(-2.97171 -0.799348 0.0259416)
(-2.5384 -0.644914 0.0221592)
(-2.16768 -0.523043 0.0189231)
(-1.84951 -0.425661 0.0161457)
(-1.57569 -0.347086 0.0137554)
(-1.33964 -0.283207 0.0116949)
(-1.13601 -0.231005 0.00991733)
(-0.960401 -0.188204 0.00838433)
(-0.809149 -0.15306 0.00706397)
(-0.679151 -0.124197 0.00592914)
(-0.56774 -0.100515 0.00495656)
(-0.472588 -0.0811163 0.00412589)
(-0.391637 -0.0652639 0.0034192)
(-0.323061 -0.0523443 0.00282053)
(-0.265231 -0.0418469 0.00231566)
(-0.216689 -0.0333456 0.00189187)
(-0.176138 -0.026483 0.00153785)
(-0.142427 -0.0209621 0.00124353)
(-0.114538 -0.0165353 0.00100004)
(-0.0915779 -0.0129979 0.00079959)
(-0.0727719 -0.0101809 0.0006354)
(-0.0574437 -0.00794482 0.000501569)
(-0.045014 -0.0061758 0.000393046)
(-0.0349877 -0.00478095 0.000305504)
(-0.0269441 -0.00368491 0.000235274)
(-0.0205292 -0.00282694 0.000179264)
(-0.0154433 -0.0021578 0.000134855)
(-0.0114372 -0.00163825 9.98763e-05)
(-0.00830333 -0.00123689 7.2512e-05)
(-0.00586932 -0.000928644 5.12588e-05)
(-0.00399282 -0.000693592 3.48735e-05)
(-0.00255659 -0.000515792 2.23319e-05)
(-0.00146512 -0.000382216 1.28013e-05)
(-0.000641864 -0.000282126 5.61261e-06)
(-2.87729e-05 -0.000205438 2.58664e-07)
(0.000412968 -0.000141643 -3.59922e-06)
(0.000698548 -8.00405e-05 -6.09427e-06)
(0.00081791 -1.14846e-05 -7.13891e-06)
(0.000742027 6.39362e-05 -6.4796e-06)
(0.000460249 0.000118766 -4.02724e-06)
(8.60094e-05 8.91672e-05 -8.61536e-07)
(-3.74788 -1.57341 0.0327163)
(-3.24995 -1.27136 0.0283699)
(-2.81613 -1.03445 0.0245831)
(-2.43909 -0.846634 0.0212918)
(-2.11126 -0.696278 0.0184302)
(-1.82595 -0.574721 0.0159397)
(-1.57723 -0.475591 0.0137686)
(-1.36009 -0.394131 0.0118732)
(-1.17032 -0.326777 0.0102167)
(-1.00439 -0.270819 0.00876813)
(-0.859328 -0.224177 0.00750188)
(-0.732655 -0.185222 0.0063961)
(-0.622238 -0.152664 0.00543223)
(-0.526243 -0.125466 0.00459423)
(-0.443057 -0.102776 0.00386803)
(-0.371247 -0.0838882 0.00324114)
(-0.309526 -0.068211 0.00270233)
(-0.256729 -0.0552433 0.00224141)
(-0.211792 -0.0445574 0.00184911)
(-0.173746 -0.0357879 0.00151695)
(-0.141708 -0.0286218 0.00123725)
(-0.114878 -0.0227915 0.00100301)
(-0.0925378 -0.0180694 0.00080797)
(-0.0740403 -0.0142616 0.000646471)
(-0.0588123 -0.0112044 0.000513519)
(-0.0463491 -0.00876084 0.000404703)
(-0.0362094 -0.00681629 0.000316173)
(-0.0280117 -0.00527618 0.000244597)
(-0.0214244 -0.00406197 0.00018708)
(-0.0161656 -0.00310967 0.000141164)
(-0.0119954 -0.0023671 0.000104752)
(-0.00871063 -0.00179181 7.60703e-05)
(-0.00614029 -0.00134948 5.36269e-05)
(-0.00414121 -0.00101217 3.61709e-05)
(-0.00259512 -0.000756787 2.26708e-05)
(-0.00140609 -0.000563692 1.22883e-05)
(-0.000500381 -0.000414345 4.37934e-06)
(0.000171662 -0.00028961 -1.48958e-06)
(0.000630114 -0.000169448 -5.49441e-06)
(0.000863803 -3.75152e-05 -7.53792e-06)
(0.000837941 0.000106164 -7.31634e-06)
(0.000541071 0.000213293 -4.73408e-06)
(0.000103877 0.000169575 -1.03665e-06)
(-3.37742 -1.79391 0.0294821)
(-2.96939 -1.4742 0.0259205)
(-2.60442 -1.21672 0.0227347)
(-2.28035 -1.00829 0.0199059)
(-1.99372 -0.83859 0.017404)
(-1.7408 -0.699537 0.0151962)
(-1.51782 -0.584872 0.0132498)
(-1.32127 -0.489739 0.0115341)
(-1.14799 -0.410381 0.0100215)
(-0.995193 -0.343872 0.00868773)
(-0.860471 -0.287927 0.00751172)
(-0.74174 -0.24074 0.00647529)
(-0.637205 -0.200875 0.00556278)
(-0.545324 -0.167177 0.00476072)
(-0.464749 -0.138704 0.00405733)
(-0.394296 -0.114677 0.00344231)
(-0.332915 -0.0944476 0.00290647)
(-0.279659 -0.077466 0.00244155)
(-0.233664 -0.063261 0.00204002)
(-0.194139 -0.0514271 0.00169497)
(-0.160357 -0.0416121 0.00140005)
(-0.131644 -0.0335097 0.00114937)
(-0.107384 -0.0268544 0.000937573)
(-0.0870056 -0.0214146 0.000759662)
(-0.0699926 -0.0169905 0.000611128)
(-0.0558765 -0.0134108 0.000487883)
(-0.0442374 -0.0105291 0.000386263)
(-0.0347032 -0.0082218 0.00030302)
(-0.0269421 -0.0063841 0.000235256)
(-0.0206656 -0.00492891 0.000180455)
(-0.0156231 -0.0037839 0.000136427)
(-0.0115976 -0.00288922 0.000101279)
(-0.00840355 -0.00219566 7.339e-05)
(-0.00588248 -0.0016625 5.13765e-05)
(-0.00390167 -0.00125563 3.4081e-05)
(-0.00235209 -0.000945366 2.05506e-05)
(-0.00114895 -0.000703298 1.00446e-05)
(-0.000234611 -0.00050018 2.06008e-06)
(0.000414687 -0.000304945 -3.6113e-06)
(0.000787139 -9.25632e-05 -6.86684e-06)
(0.000843744 0.000136789 -7.36605e-06)
(0.000572511 0.000311388 -5.00887e-06)
(0.000113045 0.000258361 -1.12534e-06)
(-3.00419 -1.94434 0.0262237)
(-2.67627 -1.62316 0.0233616)
(-2.37449 -1.35779 0.0207274)
(-2.10011 -1.13829 0.0183324)
(-1.8527 -0.956336 0.0161728)
(-1.63091 -0.805003 0.0142368)
(-1.43286 -0.678671 0.012508)
(-1.25647 -0.572792 0.0109683)
(-1.09962 -0.483708 0.00959912)
(-0.960295 -0.408483 0.00838297)
(-0.836641 -0.344762 0.00730359)
(-0.726972 -0.290648 0.00634628)
(-0.62979 -0.244607 0.00549797)
(-0.543776 -0.205396 0.00474713)
(-0.467769 -0.171995 0.00408363)
(-0.400747 -0.143562 0.00349856)
(-0.341808 -0.119394 0.00298405)
(-0.290148 -0.0988979 0.00253308)
(-0.245042 -0.0815688 0.00213932)
(-0.205832 -0.0669702 0.00179702)
(-0.171911 -0.0547229 0.0015009)
(-0.142721 -0.0444952 0.00124606)
(-0.117745 -0.0359967 0.00102802)
(-0.0964988 -0.0289706 0.000842532)
(-0.0785348 -0.0231924 0.000685699)
(-0.0634411 -0.0184663 0.000553922)
(-0.0508399 -0.0146219 0.000443905)
(-0.0403894 -0.011513 0.000352663)
(-0.0317774 -0.00901323 0.000277472)
(-0.024727 -0.0070158 0.000215915)
(-0.0189924 -0.00543057 0.000165845)
(-0.0143565 -0.00418171 0.000125368)
(-0.0106302 -0.00320591 9.28323e-05)
(-0.00764912 -0.00244995 6.68028e-05)
(-0.0052735 -0.00186857 4.60603e-05)
(-0.003387 -0.00142162 2.95884e-05)
(-0.00189815 -0.00107019 1.6588e-05)
(-0.000744281 -0.000773671 6.5122e-06)
(0.000100645 -0.000489152 -8.67346e-07)
(0.000624269 -0.000181718 -5.4431e-06)
(0.000784179 0.000148236 -6.84482e-06)
(0.000567565 0.000404068 -4.96524e-06)
(0.000116362 0.000349283 -1.15545e-06)
(-2.64994 -2.03522 0.0231312)
(-2.38983 -1.72437 0.0208609)
(-2.14363 -1.46117 0.018712)
(-1.91436 -1.23879 0.0167108)
(-1.70338 -1.051 0.0148692)
(-1.511 -0.892327 0.01319)
(-1.33675 -0.758086 0.011669)
(-1.17973 -0.644301 0.0102984)
(-1.03877 -0.547655 0.0090679)
(-0.912573 -0.465387 0.00796631)
(-0.799832 -0.395217 0.00698218)
(-0.699274 -0.335259 0.00610441)
(-0.609704 -0.283954 0.00532255)
(-0.530027 -0.240015 0.00462703)
(-0.459249 -0.202371 0.00400919)
(-0.396481 -0.170133 0.00346127)
(-0.340932 -0.142552 0.00297637)
(-0.291896 -0.118997 0.0025483)
(-0.24874 -0.0989285 0.00217157)
(-0.210895 -0.0818837 0.0018412)
(-0.177845 -0.0674601 0.00155268)
(-0.149117 -0.0553058 0.00130188)
(-0.124275 -0.0451122 0.00108501)
(-0.10291 -0.0366047 0.00089849)
(-0.0846419 -0.0295417 0.000739008)
(-0.0691177 -0.02371 0.000603475)
(-0.0560079 -0.0189224 0.00048902)
(-0.04501 -0.0150156 0.000393001)
(-0.0358418 -0.0118467 0.000312955)
(-0.0282487 -0.00929321 0.000246661)
(-0.0219999 -0.00725019 0.000192103)
(-0.0168882 -0.00562809 0.000147472)
(-0.0127291 -0.00435104 0.000111159)
(-0.00935994 -0.00335433 8.17409e-05)
(-0.00664 -0.00258209 5.79925e-05)
(-0.00445071 -0.00198382 3.88772e-05)
(-0.00269782 -0.00150989 2.35717e-05)
(-0.00131635 -0.00110789 1.15088e-05)
(-0.000279432 -0.000722281 2.45296e-06)
(0.000399826 -0.000307716 -3.48179e-06)
(0.000675994 0.000135344 -5.89896e-06)
(0.000534863 0.000484671 -4.67873e-06)
(0.000115378 0.000437613 -1.14229e-06)
(-2.32258 -2.08263 0.0202735)
(-2.11874 -1.78848 0.0184944)
(-1.92029 -1.53379 0.0167622)
(-1.73095 -1.31423 0.0151096)
(-1.55307 -1.12547 0.0135571)
(-1.38797 -0.963465 0.0121159)
(-1.23616 -0.824515 0.0107908)
(-1.0976 -0.705342 0.00958131)
(-0.971871 -0.603093 0.00848386)
(-0.858319 -0.515306 0.00749266)
(-0.756138 -0.439883 0.00660071)
(-0.664452 -0.375034 0.00580038)
(-0.582371 -0.319242 0.00508389)
(-0.509031 -0.271227 0.00444369)
(-0.443608 -0.229901 0.0038726)
(-0.385344 -0.194347 0.003364)
(-0.333548 -0.163786 0.00291186)
(-0.287593 -0.137555 0.0025107)
(-0.246918 -0.115085 0.00215563)
(-0.211017 -0.0958876 0.00184223)
(-0.179437 -0.0795375 0.00156655)
(-0.151765 -0.0656641 0.00132498)
(-0.127628 -0.0539431 0.00111427)
(-0.106676 -0.0440857 0.000931355)
(-0.0885858 -0.0358371 0.000773429)
(-0.0730565 -0.0289715 0.000637854)
(-0.0598054 -0.0232893 0.000522167)
(-0.0485704 -0.0186151 0.000424081)
(-0.0391034 -0.0147936 0.000341427)
(-0.0311767 -0.0116903 0.000272223)
(-0.0245811 -0.00918856 0.000214637)
(-0.0191246 -0.00718759 0.000166996)
(-0.0146338 -0.00560095 0.000127788)
(-0.0109529 -0.00435382 9.56493e-05)
(-0.00794533 -0.00338066 6.93901e-05)
(-0.00549434 -0.00262122 4.79903e-05)
(-0.00350621 -0.00201533 3.06312e-05)
(-0.00191606 -0.00149868 1.67464e-05)
(-0.000697499 -0.00100277 6.10475e-06)
(0.000135225 -0.000471478 -1.16995e-06)
(0.000533824 9.48176e-05 -4.65628e-06)
(0.000481955 0.000548324 -4.21538e-06)
(0.000111279 0.000519731 -1.09773e-06)
(-2.02711 -2.0976 0.0176941)
(-1.86858 -1.8235 0.0163106)
(-1.70997 -1.58122 0.0149263)
(-1.55504 -1.3684 0.013574)
(-1.40646 -1.1823 0.0122772)
(-1.26607 -1.02013 0.0110518)
(-1.13498 -0.879136 0.00990749)
(-1.01372 -0.756769 0.00884909)
(-0.90244 -0.650685 0.00787773)
(-0.800963 -0.558787 0.00699194)
(-0.708912 -0.479222 0.00618842)
(-0.625767 -0.410363 0.00546264)
(-0.550927 -0.350793 0.00480936)
(-0.483752 -0.299279 0.00422298)
(-0.423594 -0.254755 0.00369785)
(-0.369827 -0.2163 0.00322851)
(-0.321859 -0.183122 0.00280978)
(-0.279142 -0.154537 0.00243689)
(-0.241174 -0.129954 0.00210546)
(-0.207504 -0.108859 0.00181154)
(-0.177722 -0.0908074 0.00155156)
(-0.151463 -0.0754104 0.00132233)
(-0.128397 -0.0623282 0.00112097)
(-0.108219 -0.0512586 0.000944818)
(-0.090652 -0.0419355 0.000791456)
(-0.0754367 -0.034123 0.000658625)
(-0.0623317 -0.027612 0.000544216)
(-0.0511126 -0.0222182 0.000446269)
(-0.0415641 -0.0177769 0.000362906)
(-0.0334873 -0.0141447 0.000292392)
(-0.0266962 -0.0111962 0.000233102)
(-0.021018 -0.00882167 0.000183526)
(-0.0162939 -0.00692608 0.000142281)
(-0.0123786 -0.00542609 0.000108097)
(-0.00914328 -0.00424769 7.98496e-05)
(-0.00647619 -0.00332171 5.65634e-05)
(-0.00428682 -0.00257791 3.74477e-05)
(-0.00251237 -0.00194032 2.1954e-05)
(-0.00112812 -0.0013275 9.86592e-06)
(-0.000149888 -0.00067231 1.32085e-06)
(0.000371182 2.50646e-05 -3.23486e-06)
(0.000415858 0.000591853 -3.63665e-06)
(0.000105109 0.000593108 -1.03228e-06)
(-1.76385 -2.0903 0.0153961)
(-1.64139 -1.83709 0.0143274)
(-1.51551 -1.60908 0.0132287)
(-1.38965 -1.4053 0.0121302)
(-1.26651 -1.22427 0.0110554)
(-1.14807 -1.06423 0.0100217)
(-1.03575 -0.92327 0.00904131)
(-0.930453 -0.799504 0.00812218)
(-0.832672 -0.691098 0.00726867)
(-0.742597 -0.596337 0.00648242)
(-0.66018 -0.513644 0.00576299)
(-0.585194 -0.441592 0.00510843)
(-0.51729 -0.378896 0.0045157)
(-0.456041 -0.324414 0.00398105)
(-0.400968 -0.277127 0.0035003)
(-0.351575 -0.236138 0.00306914)
(-0.307373 -0.200657 0.00268329)
(-0.267891 -0.169992 0.00233865)
(-0.232687 -0.143539 0.00203135)
(-0.201357 -0.120766 0.00175785)
(-0.173531 -0.10121 0.00151495)
(-0.148878 -0.084465 0.00129974)
(-0.127101 -0.0701755 0.00110964)
(-0.107931 -0.0580263 0.000942286)
(-0.0911221 -0.0477407 0.000795548)
(-0.0764509 -0.0390735 0.000667469)
(-0.0637093 -0.0318075 0.000556235)
(-0.0527051 -0.0257513 0.000460167)
(-0.0432533 -0.0207334 0.000377649)
(-0.0351818 -0.0166035 0.000307183)
(-0.0283286 -0.0132295 0.00024735)
(-0.0225405 -0.0104951 0.000196817)
(-0.0176753 -0.00829848 0.000154341)
(-0.0136009 -0.00654928 0.000118768)
(-0.0101981 -0.0051663 8.90593e-05)
(-0.00736275 -0.00407241 6.43041e-05)
(-0.00500941 -0.00318804 4.37572e-05)
(-0.00307896 -0.00242596 2.69018e-05)
(-0.00154934 -0.00169202 1.35447e-05)
(-0.000438316 -0.0009081 3.84041e-06)
(0.000200003 -7.39817e-05 -1.73895e-06)
(0.000342794 0.000613649 -2.99696e-06)
(9.77595e-05 0.000656233 -9.54953e-07)
(-1.33826 -1.62203 0.0116814)
(-1.23657 -1.42847 0.0107939)
(-1.13511 -1.25399 0.00990834)
(-1.03584 -1.09764 0.00904191)
(-0.940254 -0.958253 0.00820761)
(-0.849426 -0.834496 0.00741482)
(-0.764078 -0.725014 0.00666985)
(-0.684632 -0.628458 0.00597639)
(-0.611281 -0.543537 0.00533612)
(-0.544023 -0.469032 0.00474902)
(-0.482717 -0.403816 0.00421388)
(-0.427119 -0.346855 0.00372855)
(-0.376906 -0.297205 0.00329023)
(-0.33171 -0.254012 0.00289571)
(-0.291143 -0.216507 0.00254159)
(-0.25481 -0.184005 0.00222443)
(-0.222331 -0.155893 0.00194091)
(-0.193346 -0.131631 0.0016879)
(-0.167523 -0.11074 0.00146248)
(-0.14456 -0.0928004 0.00126203)
(-0.124188 -0.0774412 0.00108419)
(-0.106162 -0.0643347 0.000926834)
(-0.0902637 -0.0531928 0.000788043)
(-0.0762946 -0.0437615 0.000666095)
(-0.064074 -0.0358162 0.000559411)
(-0.0534361 -0.0291592 0.000466542)
(-0.044222 -0.0236133 0.0003861)
(-0.0362838 -0.019023 0.000316799)
(-0.0294816 -0.0152514 0.000257414)
(-0.0236822 -0.0121769 0.000206782)
(-0.0187601 -0.00969263 0.00016381)
(-0.014597 -0.00770272 0.000127464)
(-0.0110853 -0.00611997 9.68048e-05)
(-0.00812952 -0.00486028 7.09987e-05)
(-0.0056509 -0.00383557 4.93582e-05)
(-0.00359506 -0.00294796 3.14085e-05)
(-0.00194337 -0.00209098 1.69859e-05)
(-0.000715899 -0.00117564 6.26511e-06)
(3.0214e-05 -0.00020103 -2.55271e-07)
(0.000267953 0.000613453 -2.34175e-06)
(8.99454e-05 0.000708461 -8.7304e-07)
(-1.17835 -1.62406 0.0102855)
(-1.09652 -1.44104 0.00957137)
(-1.01332 -1.27385 0.00884517)
(-0.930546 -1.12218 0.00812274)
(-0.849659 -0.985407 0.00741674)
(-0.771777 -0.862709 0.00673697)
(-0.697726 -0.753133 0.00609062)
(-0.62807 -0.655665 0.00548261)
(-0.563157 -0.569285 0.004916)
(-0.503152 -0.492985 0.00439223)
(-0.448074 -0.425797 0.00391145)
(-0.397829 -0.36681 0.00347285)
(-0.352229 -0.315168 0.00307479)
(-0.311025 -0.270075 0.00271512)
(-0.273924 -0.230799 0.00239126)
(-0.240611 -0.196673 0.00210046)
(-0.210762 -0.167089 0.0018399)
(-0.184065 -0.141501 0.00160686)
(-0.160224 -0.119424 0.00139874)
(-0.138964 -0.100422 0.00121316)
(-0.12004 -0.0841149 0.00104796)
(-0.103226 -0.0701601 0.00090119)
(-0.0883254 -0.0582593 0.00077111)
(-0.0751591 -0.0481494 0.000656173)
(-0.0635673 -0.0395981 0.000554979)
(-0.0534057 -0.032402 0.000466269)
(-0.0445366 -0.0263788 0.000388842)
(-0.0368334 -0.0213688 0.000321593)
(-0.030176 -0.0172311 0.000263473)
(-0.0244493 -0.0138404 0.000213477)
(-0.0195443 -0.0110859 0.000170654)
(-0.0153568 -0.00886754 0.000134095)
(-0.0117909 -0.00709311 0.000102964)
(-0.00876083 -0.00567262 7.65102e-05)
(-0.00619536 -0.0045103 5.41119e-05)
(-0.00404561 -0.00349832 3.53426e-05)
(-0.00229684 -0.00251838 2.00726e-05)
(-0.000971683 -0.00147088 8.49926e-06)
(-0.000130382 -0.000353773 1.148e-06)
(0.000195405 0.000592097 -1.70663e-06)
(8.22053e-05 0.000749842 -7.92041e-07)
(-1.03527 -1.61836 0.00903657)
(-0.969594 -1.44565 0.00846336)
(-0.901588 -1.28596 0.00786984)
(-0.832851 -1.13947 0.00726991)
(-0.76472 -1.00598 0.00667527)
(-0.698278 -0.885078 0.00609535)
(-0.634371 -0.776148 0.00553754)
(-0.573627 -0.678474 0.00500734)
(-0.516487 -0.591276 0.00450859)
(-0.463227 -0.513746 0.00404369)
(-0.413981 -0.445076 0.00361383)
(-0.368772 -0.384475 0.0032192)
(-0.327525 -0.331181 0.00285914)
(-0.290093 -0.284469 0.00253238)
(-0.256272 -0.243655 0.00223715)
(-0.225822 -0.2081 0.00197135)
(-0.19848 -0.177209 0.00173267)
(-0.173977 -0.150442 0.00151878)
(-0.152053 -0.127305 0.0013274)
(-0.132462 -0.107358 0.00115639)
(-0.114979 -0.0902076 0.00100377)
(-0.0993967 -0.0755007 0.000867745)
(-0.0855327 -0.0629283 0.000746721)
(-0.0732253 -0.0522177 0.000639282)
(-0.0623302 -0.0431292 0.000544171)
(-0.0527197 -0.0354533 0.000460275)
(-0.0442739 -0.0290029 0.000386543)
(-0.0368832 -0.0236146 0.000322024)
(-0.0304451 -0.0191443 0.000265818)
(-0.0248606 -0.0154637 0.000217065)
(-0.020036 -0.0124591 0.000174945)
(-0.0158806 -0.010027 0.000138667)
(-0.0123103 -0.00807147 0.000107497)
(-0.00924902 -0.00649745 8.07718e-05)
(-0.00663356 -0.00520231 5.79375e-05)
(-0.00442093 -0.00406898 3.86196e-05)
(-0.00260059 -0.00296793 2.2725e-05)
(-0.00119786 -0.00178916 1.04747e-05)
(-0.000276082 -0.000529213 2.42104e-06)
(0.000128149 0.000551239 -1.11788e-06)
(7.4916e-05 0.000780949 -7.15828e-07)
(-0.908001 -1.60744 0.0079256)
(-0.85537 -1.44446 0.00746628)
(-0.79992 -1.29213 0.00698235)
(-0.743018 -1.15097 0.00648572)
(-0.68585 -1.02112 0.00598677)
(-0.629412 -0.902488 0.00549418)
(-0.574519 -0.794734 0.00501505)
(-0.521807 -0.697392 0.00455496)
(-0.471759 -0.609894 0.00411812)
(-0.424715 -0.531611 0.00370749)
(-0.380889 -0.461881 0.00332494)
(-0.340387 -0.400034 0.0029714)
(-0.303223 -0.345401 0.00264698)
(-0.269335 -0.29733 0.00235117)
(-0.2386 -0.255193 0.00208287)
(-0.210846 -0.218387 0.0018406)
(-0.185869 -0.18634 0.00162257)
(-0.163445 -0.158521 0.00142682)
(-0.143349 -0.134439 0.0012514)
(-0.125362 -0.113647 0.00109439)
(-0.109279 -0.0957446 0.000953997)
(-0.0949107 -0.0803695 0.000828572)
(-0.0820878 -0.0672021 0.000716637)
(-0.0706609 -0.0559607 0.000616886)
(-0.0604983 -0.0463976 0.000528171)
(-0.051485 -0.0382973 0.00044949)
(-0.0435152 -0.0314677 0.000379914)
(-0.0364934 -0.0257418 0.000318616)
(-0.0303314 -0.0209725 0.000264822)
(-0.0249446 -0.0170292 0.000217796)
(-0.0202528 -0.0137959 0.000176836)
(-0.0161778 -0.0111667 0.000141261)
(-0.0126468 -0.00904241 0.000110435)
(-0.00959339 -0.00732384 8.37776e-05)
(-0.00696215 -0.00590227 6.08059e-05)
(-0.00471621 -0.00465214 4.11975e-05)
(-0.00284932 -0.00343328 2.48969e-05)
(-0.0013895 -0.00212558 1.21484e-05)
(-0.00040312 -0.000723812 3.53097e-06)
(6.82027e-05 0.000493095 -5.93126e-07)
(6.83139e-05 0.000802723 -6.4685e-07)
(-0.795299 -1.59321 0.00694183)
(-0.753154 -1.43919 0.00657403)
(-0.708013 -1.29384 0.00618007)
(-0.66102 -1.15792 0.00576993)
(-0.613199 -1.03185 0.00535257)
(-0.565437 -0.915747 0.0049357)
(-0.518481 -0.809522 0.00452587)
(-0.472944 -0.712906 0.00412841)
(-0.429311 -0.625513 0.00374756)
(-0.38795 -0.546867 0.00338654)
(-0.349121 -0.476438 0.00304761)
(-0.312989 -0.413667 0.00273222)
(-0.279634 -0.357976 0.00244106)
(-0.249062 -0.308785 0.00217419)
(-0.221216 -0.265523 0.00193112)
(-0.195987 -0.22763 0.00171088)
(-0.173225 -0.194564 0.00151218)
(-0.152753 -0.16581 0.00133348)
(-0.134379 -0.140882 0.00117309)
(-0.117912 -0.119334 0.00102935)
(-0.103168 -0.10076 0.000900641)
(-0.0899725 -0.0847892 0.000785452)
(-0.0781688 -0.0710938 0.000682416)
(-0.0676183 -0.0593831 0.000590316)
(-0.0581988 -0.0494015 0.00050809)
(-0.0498056 -0.0409272 0.000434822)
(-0.0423433 -0.033763 0.000369678)
(-0.035728 -0.027738 0.00031193)
(-0.0298832 -0.0227024 0.000260906)
(-0.0247365 -0.0185237 0.000215976)
(-0.0202192 -0.0150837 0.00017654)
(-0.0162647 -0.0122747 0.000142017)
(-0.0128104 -0.00999507 0.000111861)
(-0.00979896 -0.00814209 8.55714e-05)
(-0.00718277 -0.00660168 6.27315e-05)
(-0.00493085 -0.00524049 4.30711e-05)
(-0.00304112 -0.00390828 2.65715e-05)
(-0.00154427 -0.00247516 1.35e-05)
(-0.000509456 -0.000933764 4.45995e-06)
(1.67066e-05 0.000420212 -1.42371e-07)
(6.25234e-05 0.000816332 -5.86414e-07)
(-0.69582 -1.57712 0.00607349)
(-0.662076 -1.4312 0.00577901)
(-0.625362 -1.29231 0.0054586)
(-0.586622 -1.16139 0.00512051)
(-0.546723 -1.03904 0.00477228)
(-0.506432 -0.92558 0.00442063)
(-0.466416 -0.821092 0.00407137)
(-0.427238 -0.725475 0.00372942)
(-0.389362 -0.638489 0.00339882)
(-0.353158 -0.55979 0.00308281)
(-0.318905 -0.488962 0.00278384)
(-0.286806 -0.425545 0.00250365)
(-0.256985 -0.369044 0.00224334)
(-0.2295 -0.31895 0.00200342)
(-0.204348 -0.274747 0.00178386)
(-0.181474 -0.235921 0.00158418)
(-0.160777 -0.201962 0.00140351)
(-0.142124 -0.172378 0.00124069)
(-0.12536 -0.146695 0.00109435)
(-0.110319 -0.124469 0.000963047)
(-0.0968368 -0.105292 0.000845362)
(-0.0847559 -0.0887886 0.000739905)
(-0.0739315 -0.074623 0.000645417)
(-0.0642338 -0.0624966 0.000560763)
(-0.055549 -0.0521461 0.000484951)
(-0.0477798 -0.0433429 0.000417132)
(-0.0408393 -0.0358845 0.000356544)
(-0.0346524 -0.0295963 0.000302535)
(-0.0291519 -0.0243255 0.000254518)
(-0.0242755 -0.0199375 0.000211948)
(-0.0199646 -0.0163126 0.000174315)
(-0.0161624 -0.0133414 0.000141122)
(-0.0128155 -0.0109204 0.000111905)
(-0.00987528 -0.00894385 8.62366e-05)
(-0.0073011 -0.007293 6.37638e-05)
(-0.00506768 -0.00582735 4.42652e-05)
(-0.00317691 -0.00438719 2.77568e-05)
(-0.00166195 -0.00283309 1.45276e-05)
(-0.000594514 -0.00115524 5.20298e-06)
(-2.59331e-05 0.000335314 2.30842e-07)
(5.75803e-05 0.000823053 -5.34917e-07)
(-0.608214 -1.5602 0.0053088)
(-0.581188 -1.4215 0.00507295)
(-0.551345 -1.28849 0.00481251)
(-0.519456 -1.16222 0.0045342)
(-0.486238 -1.04344 0.00424429)
(-0.452347 -0.932618 0.0039485)
(-0.418361 -0.829966 0.00365187)
(-0.384782 -0.735518 0.00335879)
(-0.352037 -0.649157 0.00307299)
(-0.32048 -0.570644 0.00279754)
(-0.290392 -0.499661 0.00253493)
(-0.261992 -0.435833 0.00228703)
(-0.235433 -0.37874 0.0020552)
(-0.21081 -0.327936 0.00184026)
(-0.18816 -0.28296 0.00164255)
(-0.167475 -0.243342 0.00146197)
(-0.148696 -0.208608 0.00129805)
(-0.131732 -0.178291 0.00114996)
(-0.116461 -0.151934 0.00101666)
(-0.102745 -0.129099 0.00089693)
(-0.0904419 -0.109381 0.000789531)
(-0.0794078 -0.0923998 0.000693211)
(-0.06951 -0.0778142 0.000606812)
(-0.060628 -0.0653183 0.000529279)
(-0.0526547 -0.0546418 0.000459678)
(-0.045499 -0.0455494 0.000397215)
(-0.0390803 -0.0378332 0.000341183)
(-0.0333303 -0.0313143 0.00029099)
(-0.0281894 -0.0258371 0.000246112)
(-0.023603 -0.0212645 0.000206075)
(-0.0195211 -0.0174756 0.000170441)
(-0.0158952 -0.0143595 0.000138788)
(-0.0126804 -0.0118111 0.000110723)
(-0.00983521 -0.00972217 8.58856e-05)
(-0.00732587 -0.00796976 6.39791e-05)
(-0.00513223 -0.00640682 4.48282e-05)
(-0.00325986 -0.00486474 2.84807e-05)
(-0.00174412 -0.00319485 1.52449e-05)
(-0.00065891 -0.00138453 5.76544e-06)
(-5.98991e-05 0.000241168 5.28118e-07)
(5.34501e-05 0.000824134 -4.92027e-07)
(-0.531183 -1.54321 0.00463641)
(-0.509528 -1.41088 0.00444744)
(-0.485281 -1.28313 0.00423584)
(-0.459063 -1.16112 0.00400703)
(-0.431465 -1.04569 0.00376617)
(-0.403032 -0.937405 0.00351802)
(-0.374259 -0.836604 0.00326689)
(-0.345583 -0.743418 0.00301661)
(-0.317386 -0.657825 0.0027705)
(-0.289991 -0.579676 0.00253139)
(-0.263672 -0.508731 0.00230167)
(-0.238647 -0.444687 0.00208323)
(-0.215083 -0.387187 0.00187755)
(-0.1931 -0.335845 0.00168566)
(-0.172769 -0.290248 0.00150818)
(-0.154111 -0.249969 0.00134532)
(-0.13711 -0.21457 0.00119691)
(-0.121708 -0.183611 0.00106245)
(-0.107816 -0.156654 0.000941188)
(-0.0953248 -0.133274 0.000832147)
(-0.0841115 -0.113068 0.000734265)
(-0.0740502 -0.0956566 0.000646436)
(-0.0650188 -0.0806939 0.000567599)
(-0.0569056 -0.0678683 0.000496778)
(-0.04961 -0.0569028 0.000433094)
(-0.0430461 -0.0475558 0.000375796)
(-0.0371381 -0.0396137 0.000324223)
(-0.0318229 -0.0328933 0.000277826)
(-0.0270464 -0.0272356 0.000236131)
(-0.0227606 -0.0225014 0.000198718)
(-0.0189221 -0.0185682 0.000165209)
(-0.0154896 -0.0153237 0.000135245)
(-0.0124251 -0.0126617 0.000108493)
(-0.00969385 -0.0104715 8.46502e-05)
(-0.00726798 -0.00862657 6.34727e-05)
(-0.00513204 -0.00697385 4.48258e-05)
(-0.00329487 -0.00533631 2.87858e-05)
(-0.00179368 -0.00355633 1.56774e-05)
(-0.000704168 -0.00161821 6.16065e-06)
(-8.58376e-05 0.000140347 7.55107e-07)
(5.00266e-05 0.0008208 -4.56692e-07)
(-0.463516 -1.52665 0.00404577)
(-0.446159 -1.39989 0.00389431)
(-0.42647 -1.27681 0.00372248)
(-0.404945 -1.15864 0.00353463)
(-0.382062 -1.04628 0.00333493)
(-0.358272 -0.940398 0.0031273)
(-0.333989 -0.841404 0.00291536)
(-0.309587 -0.749511 0.00270238)
(-0.285398 -0.664774 0.00249126)
(-0.261713 -0.587113 0.00228453)
(-0.238784 -0.516354 0.0020844)
(-0.216821 -0.452252 0.0018927)
(-0.195997 -0.394504 0.00171093)
(-0.176442 -0.342773 0.00154024)
(-0.158248 -0.296692 0.00138143)
(-0.141467 -0.255872 0.00123494)
(-0.126108 -0.21991 0.00110086)
(-0.112147 -0.188393 0.000978987)
(-0.0995252 -0.160906 0.000868808)
(-0.0881591 -0.137037 0.00076959)
(-0.0779486 -0.116392 0.000680461)
(-0.0687832 -0.0985926 0.000600454)
(-0.0605538 -0.08329 0.000528617)
(-0.0531565 -0.0701687 0.000464045)
(-0.0464976 -0.0589457 0.000405918)
(-0.0404953 -0.0493737 0.000353524)
(-0.0350782 -0.0412335 0.000306237)
(-0.0301869 -0.0343371 0.00026354)
(-0.0257715 -0.0285223 0.000224998)
(-0.0217889 -0.0236473 0.000190232)
(-0.018201 -0.019588 0.000158912)
(-0.0149724 -0.0162308 0.000130727)
(-0.0120709 -0.0134681 0.000105399)
(-0.0094676 -0.0111875 8.26737e-05)
(-0.00713973 -0.0092591 6.23519e-05)
(-0.00507598 -0.00752422 4.43355e-05)
(-0.003288 -0.00579793 2.87253e-05)
(-0.00181452 -0.00391395 1.5859e-05)
(-0.000732495 -0.00185318 6.40791e-06)
(-0.00010471 3.51585e-05 9.20225e-07)
(4.71933e-05 0.000814169 -4.27715e-07)
(-0.404107 -1.51086 0.00352722)
(-0.3902 -1.38893 0.00340586)
(-0.374227 -1.26996 0.00326647)
(-0.356584 -1.1552 0.00311249)
(-0.337655 -1.04564 0.0029473)
(-0.317807 -0.94198 0.00277407)
(-0.29738 -0.844707 0.00259579)
(-0.276689 -0.754094 0.00241521)
(-0.256019 -0.670255 0.0022348)
(-0.235624 -0.593165 0.00205679)
(-0.215731 -0.522701 0.00188316)
(-0.196535 -0.458666 0.0017156)
(-0.178203 -0.400801 0.00155559)
(-0.160871 -0.34881 0.00140431)
(-0.144645 -0.302365 0.00126267)
(-0.129592 -0.261113 0.00113128)
(-0.115749 -0.224682 0.00101043)
(-0.103115 -0.192687 0.000900148)
(-0.0916613 -0.164735 0.000800157)
(-0.0813266 -0.140431 0.000709943)
(-0.0720334 -0.119391 0.00062882)
(-0.0636878 -0.10124 0.00055597)
(-0.0561939 -0.0856302 0.000490554)
(-0.0494567 -0.0722422 0.000431742)
(-0.0433883 -0.0607887 0.000378772)
(-0.037912 -0.0510169 0.000330969)
(-0.0329594 -0.0427022 0.000287737)
(-0.0284742 -0.0356521 0.000248586)
(-0.0244097 -0.0297007 0.000213107)
(-0.0207263 -0.0247035 0.000180953)
(-0.01739 -0.0205345 0.000151829)
(-0.0143701 -0.017079 0.000125467)
(-0.0116392 -0.014228 0.000101629)
(-0.00917339 -0.0118673 8.01038e-05)
(-0.00695411 -0.00986411 6.07302e-05)
(-0.00497369 -0.0080546 4.34415e-05)
(-0.0032461 -0.00624635 2.83587e-05)
(-0.00181114 -0.00426463 1.58291e-05)
(-0.00074654 -0.00208676 6.53035e-06)
(-0.0001177 -7.23491e-05 1.03384e-06)
(4.48034e-05 0.000805148 -4.03594e-07)