/*--------------------------------*- C++ -*----------------------------------*\
| =========                 |                                                 |
| \\      /  F ield         | OpenFOAM: The Open Source CFD Toolbox           |
|  \\    /   O peration     | Version:  v2012                                 |
|   \\  /    A nd           | Website:  www.openfoam.com                      |
|    \\/     M anipulation  |                                                 |
\*---------------------------------------------------------------------------*/
FoamFile
{
    version     2.0;
    format      ascii;
    class       volScalarField;
    location    "0.05";
    object      p_rgh;
}
// * * * * * * * * * * * * * * * * * * * * * * * * * * * * * * * * * * * * * //

dimensions      [1 -1 -2 0 0 0 0];


internalField   nonuniform List<scalar> 
3332
(
3.73722e+06
3.74991e+06
3.7355e+06
3.7507e+06
3.73762e+06
3.7462e+06
3.74458e+06
3.74513e+06
3.74273e+06
3.79289e+06
3.74464e+06
3.79086e+06
3.75445e+06
3.76679e+06
3.76214e+06
3.76274e+06
3.7769e+06
3.75869e+06
3.72381e+06
3.63363e+06
3.61817e+06
3.58329e+06
3.5685e+06
3.7381e+06
3.80593e+06
3.74802e+06
3.80152e+06
3.76198e+06
3.77304e+06
3.76769e+06
3.76711e+06
3.7791e+06
3.76448e+06
3.73674e+06
3.64239e+06
3.62507e+06
3.58812e+06
3.57291e+06
3.73465e+06
3.79464e+06
3.74993e+06
3.7882e+06
3.7609e+06
3.76896e+06
3.76493e+06
3.76471e+06
3.7722e+06
3.76268e+06
3.74026e+06
3.65395e+06
3.62836e+06
3.59265e+06
3.57609e+06
3.73842e+06
3.7767e+06
3.75e+06
3.76836e+06
3.75478e+06
3.76036e+06
3.75774e+06
3.75805e+06
3.76223e+06
3.75631e+06
3.73869e+06
3.665e+06
3.62883e+06
3.59663e+06
3.57807e+06
3.74247e+06
3.76244e+06
3.74659e+06
3.75514e+06
3.74717e+06
3.7518e+06
3.74861e+06
3.749e+06
3.75093e+06
3.7468e+06
3.73314e+06
3.67251e+06
3.62775e+06
3.59955e+06
3.57913e+06
3.73956e+06
3.75593e+06
3.74055e+06
3.75199e+06
3.74061e+06
3.74495e+06
3.73913e+06
3.73883e+06
3.73878e+06
3.73503e+06
3.72502e+06
3.67594e+06
3.62665e+06
3.60141e+06
3.57971e+06
3.73049e+06
3.75428e+06
3.73349e+06
3.75334e+06
3.73527e+06
3.73922e+06
3.73021e+06
3.72893e+06
3.7267e+06
3.72297e+06
3.71629e+06
3.67689e+06
3.62673e+06
3.6026e+06
3.58023e+06
3.71814e+06
3.75253e+06
3.72589e+06
3.7505e+06
3.72914e+06
3.73348e+06
3.72255e+06
3.72105e+06
3.71678e+06
3.71361e+06
3.70942e+06
3.67802e+06
3.62873e+06
3.60379e+06
3.58098e+06
3.70582e+06
3.74832e+06
3.7176e+06
3.74233e+06
3.72171e+06
3.72819e+06
3.71712e+06
3.71714e+06
3.71157e+06
3.71023e+06
3.70702e+06
3.6818e+06
3.63302e+06
3.60552e+06
3.58205e+06
3.69448e+06
3.74174e+06
3.70771e+06
3.73334e+06
3.71394e+06
3.72389e+06
3.71467e+06
3.7175e+06
3.71255e+06
3.71474e+06
3.71037e+06
3.6894e+06
3.63933e+06
3.60787e+06
3.58323e+06
3.67839e+06
3.73121e+06
3.69149e+06
3.72089e+06
3.70413e+06
3.71856e+06
3.71378e+06
3.72035e+06
3.71887e+06
3.72433e+06
3.71731e+06
3.6989e+06
3.64615e+06
3.61002e+06
3.58391e+06
3.66374e+06
3.71317e+06
3.6712e+06
3.70263e+06
3.69238e+06
3.70989e+06
3.71199e+06
3.72184e+06
3.72495e+06
3.73346e+06
3.72353e+06
3.70685e+06
3.65141e+06
3.61067e+06
3.58325e+06
3.65329e+06
3.68784e+06
3.65212e+06
3.68035e+06
3.68075e+06
3.69628e+06
3.70663e+06
3.7177e+06
3.72516e+06
3.73488e+06
3.72336e+06
3.70888e+06
3.65272e+06
3.60823e+06
3.58034e+06
3.66239e+06
3.654e+06
3.64787e+06
3.65536e+06
3.67164e+06
3.6786e+06
3.6954e+06
3.70533e+06
3.71438e+06
3.72389e+06
3.71256e+06
3.70117e+06
3.64832e+06
3.60151e+06
3.57452e+06
3.69281e+06
3.62142e+06
3.65826e+06
3.63378e+06
3.66325e+06
3.65833e+06
3.67744e+06
3.68414e+06
3.69193e+06
3.69966e+06
3.69028e+06
3.68181e+06
3.63715e+06
3.59008e+06
3.56552e+06
3.71346e+06
3.592e+06
3.66441e+06
3.61447e+06
3.65041e+06
3.63542e+06
3.65312e+06
3.6556e+06
3.66034e+06
3.66509e+06
3.65881e+06
3.65252e+06
3.61882e+06
3.57466e+06
3.55362e+06
3.71232e+06
3.56123e+06
3.65708e+06
3.59104e+06
3.63065e+06
3.60946e+06
3.62369e+06
3.62251e+06
3.62371e+06
3.62521e+06
3.62219e+06
3.61775e+06
3.59444e+06
3.55685e+06
3.53962e+06
3.68862e+06
3.51622e+06
3.6326e+06
3.55826e+06
3.60281e+06
3.58157e+06
3.59124e+06
3.58828e+06
3.58654e+06
3.58544e+06
3.58516e+06
3.58284e+06
3.56726e+06
3.53857e+06
3.52488e+06
3.65672e+06
3.45494e+06
3.60062e+06
3.52664e+06
3.56934e+06
3.55661e+06
3.56008e+06
3.55658e+06
3.55295e+06
3.55023e+06
3.55182e+06
3.55153e+06
3.54114e+06
3.52126e+06
3.51081e+06
3.56578e+06
3.48599e+06
3.55444e+06
3.53054e+06
3.5405e+06
3.53903e+06
3.53533e+06
3.53029e+06
3.52563e+06
3.52221e+06
3.52473e+06
3.52571e+06
3.51882e+06
3.50582e+06
3.49841e+06
3.42086e+06
3.60382e+06
3.50418e+06
3.54551e+06
3.5251e+06
3.52465e+06
3.51746e+06
3.51013e+06
3.50512e+06
3.5018e+06
3.50448e+06
3.50575e+06
3.50131e+06
3.49277e+06
3.48809e+06
3.54172e+06
3.56006e+06
3.5422e+06
3.53281e+06
3.52244e+06
3.51258e+06
3.50431e+06
3.49546e+06
3.49053e+06
3.48771e+06
3.49012e+06
3.49102e+06
3.48825e+06
3.48223e+06
3.47977e+06
3.55961e+06
3.55814e+06
3.54549e+06
3.52722e+06
3.51463e+06
3.50243e+06
3.49337e+06
3.4845e+06
3.48012e+06
3.47793e+06
3.47992e+06
3.48026e+06
3.47857e+06
3.47385e+06
3.47309e+06
3.53822e+06
3.52727e+06
3.5277e+06
3.50982e+06
3.50216e+06
3.49106e+06
3.48344e+06
3.47579e+06
3.47233e+06
3.47069e+06
3.47228e+06
3.4722e+06
3.47115e+06
3.46715e+06
3.46769e+06
3.51212e+06
3.50585e+06
3.50645e+06
3.49516e+06
3.4895e+06
3.481e+06
3.47486e+06
3.46868e+06
3.46609e+06
3.46482e+06
3.46612e+06
3.46587e+06
3.46515e+06
3.46172e+06
3.46329e+06
3.49383e+06
3.48879e+06
3.49026e+06
3.48228e+06
3.47847e+06
3.47212e+06
3.46747e+06
3.46265e+06
3.4608e+06
3.45975e+06
3.46087e+06
3.4606e+06
3.46006e+06
3.47871e+06
3.47664e+06
3.47688e+06
3.47214e+06
3.46919e+06
3.4647e+06
3.46122e+06
3.45747e+06
3.45622e+06
3.45526e+06
3.4563e+06
3.45606e+06
3.45565e+06
3.46778e+06
3.46746e+06
3.4669e+06
3.46412e+06
3.46177e+06
3.45857e+06
3.45598e+06
3.45299e+06
3.45223e+06
3.45126e+06
3.4523e+06
3.45205e+06
3.45181e+06
3.46023e+06
3.46077e+06
3.45944e+06
3.45786e+06
3.45585e+06
3.45354e+06
3.45161e+06
3.44916e+06
3.44879e+06
3.44773e+06
3.44887e+06
3.44855e+06
3.44855e+06
3.45416e+06
3.45513e+06
3.45367e+06
3.45281e+06
3.45115e+06
3.44944e+06
3.44797e+06
3.44591e+06
3.44583e+06
3.44462e+06
3.44589e+06
3.44549e+06
3.4458e+06
3.44967e+06
3.45063e+06
3.44934e+06
3.4488e+06
3.44743e+06
3.44612e+06
3.44496e+06
3.44322e+06
3.44337e+06
3.44208e+06
3.4435e+06
3.44305e+06
3.44377e+06
3.44642e+06
3.447e+06
3.44606e+06
3.44562e+06
3.44449e+06
3.44348e+06
3.44246e+06
3.44103e+06
3.4413e+06
3.43994e+06
3.4414e+06
3.44108e+06
3.44206e+06
3.44432e+06
3.44438e+06
3.44371e+06
3.44321e+06
3.44223e+06
3.44142e+06
3.44039e+06
3.43934e+06
3.43963e+06
3.43835e+06
3.44002e+06
3.4401e+06
3.44127e+06
3.443e+06
3.44263e+06
3.4421e+06
3.44145e+06
3.44052e+06
3.43975e+06
3.43853e+06
3.43785e+06
3.43755e+06
3.43623e+06
3.43768e+06
3.43904e+06
3.43984e+06
3.4424e+06
3.44167e+06
3.44118e+06
3.44027e+06
3.43933e+06
3.43835e+06
3.43686e+06
3.43626e+06
3.43473e+06
3.43469e+06
3.43608e+06
3.43908e+06
3.4403e+06
3.44242e+06
3.44143e+06
3.441e+06
3.4399e+06
3.43901e+06
3.43779e+06
3.43619e+06
3.43488e+06
3.43183e+06
3.4333e+06
3.42777e+06
3.43599e+06
3.43882e+06
3.44318e+06
3.442e+06
3.44172e+06
3.44062e+06
3.43995e+06
3.43891e+06
3.43791e+06
3.43692e+06
3.43587e+06
3.43667e+06
3.44429e+06
3.44304e+06
3.44287e+06
3.4418e+06
3.44134e+06
3.44049e+06
3.43983e+06
3.43916e+06
3.4388e+06
3.43893e+06
3.44577e+06
3.44452e+06
3.44443e+06
3.44344e+06
3.44315e+06
3.44246e+06
3.44206e+06
3.44163e+06
3.44148e+06
3.44156e+06
3.44734e+06
3.44611e+06
3.44613e+06
3.44521e+06
3.44506e+06
3.4445e+06
3.44426e+06
3.44397e+06
3.4439e+06
3.44393e+06
3.44908e+06
3.44785e+06
3.44798e+06
3.44709e+06
3.44704e+06
3.44656e+06
3.44644e+06
3.44624e+06
3.44621e+06
3.44625e+06
3.45087e+06
3.44965e+06
3.44985e+06
3.44898e+06
3.449e+06
3.44858e+06
3.44852e+06
3.44838e+06
3.44837e+06
3.44841e+06
3.45273e+06
3.45148e+06
3.45167e+06
3.45083e+06
3.45091e+06
3.45053e+06
3.45048e+06
3.45039e+06
3.4504e+06
3.45044e+06
3.45436e+06
3.45314e+06
3.45338e+06
3.45258e+06
3.45268e+06
3.45234e+06
3.45231e+06
3.45226e+06
3.45228e+06
3.45233e+06
3.45577e+06
3.45466e+06
3.45494e+06
3.4542e+06
3.45429e+06
3.454e+06
3.454e+06
3.45399e+06
3.45402e+06
3.45408e+06
3.45691e+06
3.45603e+06
3.45624e+06
3.45565e+06
3.45571e+06
3.45551e+06
3.45552e+06
3.45557e+06
3.45561e+06
3.45567e+06
3.45774e+06
3.45722e+06
3.45729e+06
3.4569e+06
3.45694e+06
3.45683e+06
3.45686e+06
3.45697e+06
3.45703e+06
3.4571e+06
3.45829e+06
3.45819e+06
3.45811e+06
3.45792e+06
3.45796e+06
3.45793e+06
3.45802e+06
3.45818e+06
3.45827e+06
3.45834e+06
3.45855e+06
3.45884e+06
3.45868e+06
3.45869e+06
3.45874e+06
3.4588e+06
3.45895e+06
3.45917e+06
3.4593e+06
3.45937e+06
3.45861e+06
3.45913e+06
3.45903e+06
3.45919e+06
3.45929e+06
3.45941e+06
3.45964e+06
3.45992e+06
3.46009e+06
3.46016e+06
3.45872e+06
3.45927e+06
3.4592e+06
3.45942e+06
3.45958e+06
3.45974e+06
3.46005e+06
3.46038e+06
3.46061e+06
3.46069e+06
3.45923e+06
3.45971e+06
3.45919e+06
3.4594e+06
3.45955e+06
3.45972e+06
3.46017e+06
3.46057e+06
3.46086e+06
3.46093e+06
3.45967e+06
3.46029e+06
3.4587e+06
3.45886e+06
3.45908e+06
3.45923e+06
3.45992e+06
3.46041e+06
3.46078e+06
3.46086e+06
3.45769e+06
3.45895e+06
3.457e+06
3.45716e+06
3.45797e+06
3.45809e+06
3.45918e+06
3.45986e+06
3.46031e+06
3.46041e+06
3.44771e+06
3.45028e+06
3.45296e+06
3.45326e+06
3.45579e+06
3.45612e+06
3.45778e+06
3.45884e+06
3.4594e+06
3.45953e+06
3.43001e+06
3.43047e+06
3.44647e+06
3.4474e+06
3.45255e+06
3.4537e+06
3.4558e+06
3.45734e+06
3.45799e+06
3.45815e+06
3.4297e+06
3.42385e+06
3.44459e+06
3.44578e+06
3.45056e+06
3.45224e+06
3.45388e+06
3.45546e+06
3.45603e+06
3.4562e+06
3.45814e+06
3.44984e+06
3.45189e+06
3.45122e+06
3.45109e+06
3.45183e+06
3.45207e+06
3.45312e+06
3.45344e+06
3.4536e+06
3.47596e+06
3.46988e+06
3.45605e+06
3.45392e+06
3.45035e+06
3.45006e+06
3.44941e+06
3.44996e+06
3.45012e+06
3.45028e+06
3.46298e+06
3.46196e+06
3.45061e+06
3.44943e+06
3.44637e+06
3.44601e+06
3.44542e+06
3.44587e+06
3.44602e+06
3.44619e+06
3.44688e+06
3.44777e+06
3.44273e+06
3.44245e+06
3.44073e+06
3.44057e+06
3.44034e+06
3.44086e+06
3.44109e+06
3.44127e+06
3.43688e+06
3.43756e+06
3.4351e+06
3.43507e+06
3.4342e+06
3.43415e+06
3.43429e+06
3.4349e+06
3.43521e+06
3.43542e+06
3.4287e+06
3.42888e+06
3.42749e+06
3.42733e+06
3.427e+06
3.42689e+06
3.4273e+06
3.4279e+06
3.42828e+06
3.42852e+06
3.42084e+06
3.42017e+06
3.41972e+06
3.41916e+06
3.41921e+06
3.41882e+06
3.41934e+06
3.41976e+06
3.42017e+06
3.42045e+06
3.41323e+06
3.41164e+06
3.41188e+06
3.41076e+06
3.41094e+06
3.41002e+06
3.41044e+06
3.41037e+06
3.41071e+06
3.41105e+06
3.40605e+06
3.40367e+06
3.40429e+06
3.40247e+06
3.40248e+06
3.40068e+06
3.40064e+06
3.3996e+06
3.39974e+06
3.40012e+06
3.39983e+06
3.39698e+06
3.39764e+06
3.39498e+06
3.39436e+06
3.39121e+06
3.39014e+06
3.38735e+06
3.38712e+06
3.38755e+06
3.3962e+06
3.39312e+06
3.39328e+06
3.38954e+06
3.38763e+06
3.38241e+06
3.37935e+06
3.37354e+06
3.37254e+06
3.37292e+06
3.39735e+06
3.39431e+06
3.39337e+06
3.38825e+06
3.38407e+06
3.37585e+06
3.36939e+06
3.35845e+06
3.3561e+06
3.35629e+06
3.40682e+06
3.40402e+06
3.40123e+06
3.39425e+06
3.38653e+06
3.37428e+06
3.36191e+06
3.34261e+06
3.3375e+06
3.33706e+06
3.42931e+06
3.42676e+06
3.42148e+06
3.41185e+06
3.39917e+06
3.38116e+06
3.35937e+06
3.32847e+06
3.31764e+06
3.31608e+06
3.47105e+06
3.46863e+06
3.46044e+06
3.44737e+06
3.42863e+06
3.40297e+06
3.36856e+06
3.32268e+06
3.298e+06
3.29422e+06
3.53927e+06
3.53683e+06
3.52586e+06
3.50941e+06
3.48481e+06
3.45107e+06
3.4037e+06
3.33824e+06
3.28449e+06
3.27828e+06
3.63845e+06
3.63596e+06
3.62315e+06
3.60389e+06
3.57398e+06
3.53252e+06
3.47158e+06
3.37955e+06
3.27786e+06
3.26735e+06
3.76908e+06
3.76624e+06
3.75213e+06
3.73019e+06
3.69602e+06
3.64605e+06
3.56799e+06
3.45421e+06
3.31931e+06
3.28122e+06
3.9216e+06
3.91997e+06
3.91036e+06
3.89495e+06
3.87029e+06
3.82833e+06
3.76041e+06
3.64988e+06
3.40186e+06
3.05766e+06
4.09489e+06
4.09524e+06
4.09311e+06
4.09125e+06
4.08919e+06
4.08525e+06
4.08647e+06
4.0813e+06
3.99982e+06
3.94812e+06
4.23522e+06
4.36214e+06
4.42418e+06
4.4539e+06
4.47071e+06
4.48044e+06
4.48656e+06
4.20522e+06
4.20603e+06
4.20583e+06
4.20681e+06
4.20818e+06
4.21044e+06
4.21698e+06
4.22624e+06
4.23659e+06
4.28924e+06
4.37448e+06
4.41252e+06
4.4435e+06
4.46184e+06
4.47422e+06
4.48214e+06
4.48744e+06
4.30765e+06
4.30864e+06
4.30954e+06
4.31216e+06
4.31577e+06
4.32084e+06
4.32889e+06
4.33773e+06
4.34619e+06
4.37054e+06
4.40803e+06
4.43467e+06
4.4548e+06
4.46831e+06
4.4777e+06
4.4841e+06
4.48854e+06
4.36562e+06
4.36658e+06
4.36779e+06
4.37065e+06
4.37456e+06
4.38009e+06
4.38753e+06
4.39699e+06
4.40896e+06
4.42484e+06
4.44142e+06
4.45501e+06
4.46642e+06
4.47505e+06
4.48159e+06
4.48639e+06
4.48991e+06
4.41152e+06
4.41228e+06
4.41309e+06
4.41511e+06
4.41779e+06
4.42156e+06
4.42642e+06
4.43226e+06
4.43924e+06
4.44818e+06
4.45789e+06
4.46661e+06
4.4741e+06
4.4801e+06
4.48483e+06
4.48846e+06
4.49123e+06
4.43812e+06
4.43873e+06
4.43941e+06
4.44106e+06
4.44319e+06
4.44614e+06
4.44978e+06
4.45416e+06
4.45918e+06
4.46473e+06
4.47034e+06
4.4756e+06
4.48031e+06
4.48433e+06
4.48766e+06
4.49034e+06
4.49248e+06
4.45758e+06
4.45797e+06
4.45838e+06
4.45945e+06
4.4608e+06
4.46269e+06
4.46499e+06
4.46774e+06
4.47087e+06
4.47437e+06
4.47799e+06
4.48147e+06
4.48468e+06
4.4875e+06
4.48991e+06
4.49193e+06
4.49358e+06
4.46954e+06
4.46981e+06
4.4701e+06
4.4709e+06
4.47188e+06
4.47324e+06
4.47486e+06
4.47678e+06
4.47891e+06
4.48121e+06
4.48356e+06
4.48586e+06
4.48804e+06
4.49001e+06
4.49176e+06
4.49326e+06
4.49454e+06
4.478e+06
4.47826e+06
4.47844e+06
4.47897e+06
4.4796e+06
4.48049e+06
4.48154e+06
4.48281e+06
4.48422e+06
4.48577e+06
4.48737e+06
4.48897e+06
4.4905e+06
4.49193e+06
4.49322e+06
4.49436e+06
4.49535e+06
4.4836e+06
4.48379e+06
4.48392e+06
4.4843e+06
4.48475e+06
4.48538e+06
4.48613e+06
4.48701e+06
4.48799e+06
4.48906e+06
4.49017e+06
4.4913e+06
4.49239e+06
4.49344e+06
4.4944e+06
4.49527e+06
4.49604e+06
4.48764e+06
4.48779e+06
4.48787e+06
4.48813e+06
4.48843e+06
4.48886e+06
4.48937e+06
4.48998e+06
4.49067e+06
4.49142e+06
4.49221e+06
4.49303e+06
4.49383e+06
4.49461e+06
4.49534e+06
4.49601e+06
4.49661e+06
4.49715e+06
4.49762e+06
4.49045e+06
4.49056e+06
4.49061e+06
4.49081e+06
4.49102e+06
4.49133e+06
4.4917e+06
4.49214e+06
4.49263e+06
4.49318e+06
4.49375e+06
4.49435e+06
4.49495e+06
4.49553e+06
4.49609e+06
4.49662e+06
4.4971e+06
4.49753e+06
4.49791e+06
4.49252e+06
4.4926e+06
4.49264e+06
4.49278e+06
4.49293e+06
4.49315e+06
4.49341e+06
4.49373e+06
4.49409e+06
4.49449e+06
4.49492e+06
4.49537e+06
4.49582e+06
4.49627e+06
4.49671e+06
4.49712e+06
4.4975e+06
4.49785e+06
4.49817e+06
4.49405e+06
4.4941e+06
4.49412e+06
4.49422e+06
4.49433e+06
4.4945e+06
4.49469e+06
4.49493e+06
4.4952e+06
4.4955e+06
4.49582e+06
4.49616e+06
4.49651e+06
4.49686e+06
4.49721e+06
4.49753e+06
4.49784e+06
4.49813e+06
4.49839e+06
4.4952e+06
4.49523e+06
4.49525e+06
4.49532e+06
4.4954e+06
4.49553e+06
4.49567e+06
4.49585e+06
4.49605e+06
4.49628e+06
4.49653e+06
4.49679e+06
4.49707e+06
4.49734e+06
4.49762e+06
4.49788e+06
4.49813e+06
4.49837e+06
4.49858e+06
4.49607e+06
4.49609e+06
4.4961e+06
4.49616e+06
4.49622e+06
4.49631e+06
4.49642e+06
4.49656e+06
4.49672e+06
4.4969e+06
4.49709e+06
4.4973e+06
4.49751e+06
4.49773e+06
4.49795e+06
4.49817e+06
4.49837e+06
4.49857e+06
4.49875e+06
4.49674e+06
4.49675e+06
4.49677e+06
4.49681e+06
4.49686e+06
4.49693e+06
4.49701e+06
4.49712e+06
4.49724e+06
4.49739e+06
4.49754e+06
4.4977e+06
4.49788e+06
4.49806e+06
4.49824e+06
4.49841e+06
4.49858e+06
4.49874e+06
4.49889e+06
4.49727e+06
4.49728e+06
4.49729e+06
4.49732e+06
4.49736e+06
4.49742e+06
4.49748e+06
4.49757e+06
4.49767e+06
4.49778e+06
4.4979e+06
4.49804e+06
4.49818e+06
4.49832e+06
4.49847e+06
4.49862e+06
4.49876e+06
4.49889e+06
4.49902e+06
4.49769e+06
4.4977e+06
4.49771e+06
4.49773e+06
4.49776e+06
4.49781e+06
4.49786e+06
4.49793e+06
4.49801e+06
4.4981e+06
4.4982e+06
4.49831e+06
4.49843e+06
4.49855e+06
4.49867e+06
4.49879e+06
4.49891e+06
4.49902e+06
4.49913e+06
4.49803e+06
4.49804e+06
4.49804e+06
4.49806e+06
4.49809e+06
4.49813e+06
4.49817e+06
4.49823e+06
4.49829e+06
4.49837e+06
4.49845e+06
4.49854e+06
4.49864e+06
4.49874e+06
4.49884e+06
4.49894e+06
4.49904e+06
4.49914e+06
4.49923e+06
4.49831e+06
4.49831e+06
4.49832e+06
4.49834e+06
4.49836e+06
4.49839e+06
4.49843e+06
4.49847e+06
4.49853e+06
4.49859e+06
4.49866e+06
4.49873e+06
4.49881e+06
4.4989e+06
4.49898e+06
4.49907e+06
4.49915e+06
4.49924e+06
4.49931e+06
4.49856e+06
4.49855e+06
4.49855e+06
4.49856e+06
4.49858e+06
4.49861e+06
4.49864e+06
4.49868e+06
4.49872e+06
4.49878e+06
4.49883e+06
4.4989e+06
4.49896e+06
4.49904e+06
4.49911e+06
4.49918e+06
4.49925e+06
4.49932e+06
4.49939e+06
4.49876e+06
4.49875e+06
4.49875e+06
4.49875e+06
4.49877e+06
4.49879e+06
4.49882e+06
4.49885e+06
4.49889e+06
4.49893e+06
4.49898e+06
4.49904e+06
4.49909e+06
4.49915e+06
4.49921e+06
4.49928e+06
4.49934e+06
4.4994e+06
4.49946e+06
4.49892e+06
4.49891e+06
4.49891e+06
4.49891e+06
4.49893e+06
4.49895e+06
4.49897e+06
4.499e+06
4.49903e+06
4.49907e+06
4.49911e+06
4.49916e+06
4.4992e+06
4.49926e+06
4.49931e+06
4.49936e+06
4.49941e+06
4.49947e+06
4.49952e+06
4.49905e+06
4.49905e+06
4.49905e+06
4.49905e+06
4.49907e+06
4.49908e+06
4.4991e+06
4.49912e+06
4.49915e+06
4.49918e+06
4.49922e+06
4.49926e+06
4.4993e+06
4.49934e+06
4.49939e+06
4.49944e+06
4.49948e+06
4.49953e+06
4.49957e+06
4.49918e+06
4.49917e+06
4.49917e+06
4.49917e+06
4.49918e+06
4.4992e+06
4.49921e+06
4.49923e+06
4.49926e+06
4.49928e+06
4.49931e+06
4.49935e+06
4.49938e+06
4.49942e+06
4.49946e+06
4.4995e+06
4.49954e+06
4.49958e+06
4.49962e+06
4.49928e+06
4.49928e+06
4.49927e+06
4.49928e+06
4.49928e+06
4.49929e+06
4.49931e+06
4.49933e+06
4.49935e+06
4.49937e+06
4.4994e+06
4.49943e+06
4.49946e+06
4.49949e+06
4.49953e+06
4.49956e+06
4.49959e+06
4.49963e+06
4.49966e+06
4.49937e+06
4.49937e+06
4.49936e+06
4.49937e+06
4.49937e+06
4.49938e+06
4.49939e+06
4.49941e+06
4.49943e+06
4.49945e+06
4.49947e+06
4.4995e+06
4.49952e+06
4.49955e+06
4.49958e+06
4.49961e+06
4.49964e+06
4.49967e+06
4.4997e+06
4.49945e+06
4.49944e+06
4.49944e+06
4.49945e+06
4.49945e+06
4.49946e+06
4.49947e+06
4.49948e+06
4.4995e+06
4.49952e+06
4.49954e+06
4.49956e+06
4.49958e+06
4.49961e+06
4.49963e+06
4.49966e+06
4.49968e+06
4.49971e+06
4.49973e+06
4.49952e+06
4.49952e+06
4.49952e+06
4.49952e+06
4.49952e+06
4.49953e+06
4.49954e+06
4.49955e+06
4.49956e+06
4.49958e+06
4.4996e+06
4.49962e+06
4.49964e+06
4.49966e+06
4.49968e+06
4.4997e+06
4.49972e+06
4.49974e+06
4.49977e+06
4.49958e+06
4.49958e+06
4.49958e+06
4.49958e+06
4.49958e+06
4.49959e+06
4.4996e+06
4.49961e+06
4.49962e+06
4.49963e+06
4.49965e+06
4.49967e+06
4.49968e+06
4.4997e+06
4.49972e+06
4.49974e+06
4.49976e+06
4.49978e+06
4.4998e+06
4.49964e+06
4.49964e+06
4.49964e+06
4.49964e+06
4.49964e+06
4.49965e+06
4.49965e+06
4.49966e+06
4.49967e+06
4.49969e+06
4.4997e+06
4.49971e+06
4.49973e+06
4.49974e+06
4.49976e+06
4.49978e+06
4.49979e+06
4.49981e+06
4.49982e+06
4.49969e+06
4.49969e+06
4.49969e+06
4.49969e+06
4.49969e+06
4.4997e+06
4.4997e+06
4.49971e+06
4.49972e+06
4.49973e+06
4.49974e+06
4.49975e+06
4.49977e+06
4.49978e+06
4.49979e+06
4.49981e+06
4.49982e+06
4.49983e+06
4.49985e+06
4.49974e+06
4.49974e+06
4.49974e+06
4.49974e+06
4.49974e+06
4.49975e+06
4.49975e+06
4.49976e+06
4.49977e+06
4.49977e+06
4.49978e+06
4.49979e+06
4.4998e+06
4.49982e+06
4.49983e+06
4.49984e+06
4.49985e+06
4.49986e+06
4.49987e+06
4.49978e+06
4.49978e+06
4.49978e+06
4.49978e+06
4.49978e+06
4.49979e+06
4.49979e+06
4.4998e+06
4.49981e+06
4.49981e+06
4.49982e+06
4.49983e+06
4.49984e+06
4.49985e+06
4.49986e+06
4.49987e+06
4.49988e+06
4.49988e+06
4.49989e+06
4.49983e+06
4.49983e+06
4.49983e+06
4.49983e+06
4.49983e+06
4.49983e+06
4.49984e+06
4.49984e+06
4.49985e+06
4.49985e+06
4.49986e+06
4.49986e+06
4.49987e+06
4.49988e+06
4.49989e+06
4.49989e+06
4.4999e+06
4.49991e+06
4.49991e+06
4.49986e+06
4.49986e+06
4.49986e+06
4.49986e+06
4.49987e+06
4.49987e+06
4.49987e+06
4.49988e+06
4.49988e+06
4.49989e+06
4.49989e+06
4.4999e+06
4.4999e+06
4.49991e+06
4.49991e+06
4.49992e+06
4.49992e+06
4.49993e+06
4.49994e+06
4.49991e+06
4.49991e+06
4.49991e+06
4.49991e+06
4.49991e+06
4.49992e+06
4.49992e+06
4.49992e+06
4.49992e+06
4.49992e+06
4.49993e+06
4.49993e+06
4.49993e+06
4.49994e+06
4.49994e+06
4.49994e+06
4.49995e+06
4.49995e+06
4.49995e+06
4.49993e+06
4.49993e+06
4.49993e+06
4.49994e+06
4.49994e+06
4.49994e+06
4.49994e+06
4.49994e+06
4.49994e+06
4.49995e+06
4.49995e+06
4.49995e+06
4.49996e+06
4.49996e+06
4.49996e+06
4.49997e+06
4.49997e+06
4.49997e+06
4.49997e+06
4.49999e+06
4.49999e+06
4.5e+06
4.5e+06
4.5e+06
4.5e+06
4.5e+06
4.5e+06
4.5e+06
4.5e+06
4.5e+06
4.5e+06
4.5e+06
4.5e+06
4.5e+06
4.5e+06
4.5e+06
4.5e+06
4.5e+06
3.73722e+06
3.74991e+06
3.7355e+06
3.7507e+06
3.73762e+06
3.7462e+06
3.74458e+06
3.74513e+06
3.74273e+06
3.79289e+06
3.74464e+06
3.79086e+06
3.75445e+06
3.76679e+06
3.76214e+06
3.76274e+06
3.7769e+06
3.75869e+06
3.72381e+06
3.63363e+06
3.61817e+06
3.58329e+06
3.5685e+06
3.7381e+06
3.80593e+06
3.74802e+06
3.80152e+06
3.76198e+06
3.77304e+06
3.76769e+06
3.76711e+06
3.7791e+06
3.76448e+06
3.73674e+06
3.64239e+06
3.62507e+06
3.58812e+06
3.57291e+06
3.73465e+06
3.79464e+06
3.74993e+06
3.7882e+06
3.7609e+06
3.76896e+06
3.76493e+06
3.76471e+06
3.7722e+06
3.76268e+06
3.74026e+06
3.65395e+06
3.62836e+06
3.59265e+06
3.57609e+06
3.73842e+06
3.7767e+06
3.75e+06
3.76836e+06
3.75478e+06
3.76036e+06
3.75774e+06
3.75805e+06
3.76223e+06
3.75631e+06
3.73869e+06
3.665e+06
3.62883e+06
3.59663e+06
3.57807e+06
3.74247e+06
3.76244e+06
3.74659e+06
3.75514e+06
3.74717e+06
3.7518e+06
3.74861e+06
3.749e+06
3.75093e+06
3.7468e+06
3.73314e+06
3.67251e+06
3.62775e+06
3.59955e+06
3.57913e+06
3.73956e+06
3.75593e+06
3.74055e+06
3.75199e+06
3.74061e+06
3.74495e+06
3.73913e+06
3.73883e+06
3.73878e+06
3.73503e+06
3.72502e+06
3.67594e+06
3.62665e+06
3.60141e+06
3.57971e+06
3.73049e+06
3.75428e+06
3.73349e+06
3.75334e+06
3.73527e+06
3.73922e+06
3.73021e+06
3.72893e+06
3.7267e+06
3.72297e+06
3.71629e+06
3.67689e+06
3.62673e+06
3.6026e+06
3.58023e+06
3.71814e+06
3.75253e+06
3.72589e+06
3.7505e+06
3.72914e+06
3.73348e+06
3.72255e+06
3.72105e+06
3.71678e+06
3.71361e+06
3.70942e+06
3.67802e+06
3.62873e+06
3.60379e+06
3.58098e+06
3.70582e+06
3.74832e+06
3.7176e+06
3.74233e+06
3.72171e+06
3.72819e+06
3.71712e+06
3.71714e+06
3.71157e+06
3.71023e+06
3.70702e+06
3.6818e+06
3.63302e+06
3.60552e+06
3.58205e+06
3.69448e+06
3.74174e+06
3.70771e+06
3.73334e+06
3.71394e+06
3.72389e+06
3.71467e+06
3.7175e+06
3.71255e+06
3.71474e+06
3.71037e+06
3.6894e+06
3.63933e+06
3.60787e+06
3.58323e+06
3.67839e+06
3.73121e+06
3.69149e+06
3.72089e+06
3.70413e+06
3.71856e+06
3.71378e+06
3.72035e+06
3.71887e+06
3.72433e+06
3.71731e+06
3.6989e+06
3.64615e+06
3.61002e+06
3.58391e+06
3.66374e+06
3.71317e+06
3.6712e+06
3.70263e+06
3.69238e+06
3.70989e+06
3.71199e+06
3.72184e+06
3.72495e+06
3.73346e+06
3.72353e+06
3.70685e+06
3.65141e+06
3.61067e+06
3.58325e+06
3.65329e+06
3.68784e+06
3.65212e+06
3.68035e+06
3.68075e+06
3.69628e+06
3.70663e+06
3.7177e+06
3.72516e+06
3.73488e+06
3.72336e+06
3.70888e+06
3.65272e+06
3.60823e+06
3.58034e+06
3.66239e+06
3.654e+06
3.64787e+06
3.65536e+06
3.67164e+06
3.6786e+06
3.6954e+06
3.70533e+06
3.71438e+06
3.72389e+06
3.71256e+06
3.70117e+06
3.64832e+06
3.60151e+06
3.57452e+06
3.69281e+06
3.62142e+06
3.65826e+06
3.63378e+06
3.66325e+06
3.65833e+06
3.67744e+06
3.68414e+06
3.69193e+06
3.69966e+06
3.69028e+06
3.68181e+06
3.63715e+06
3.59008e+06
3.56552e+06
3.71346e+06
3.592e+06
3.66441e+06
3.61447e+06
3.65041e+06
3.63542e+06
3.65312e+06
3.6556e+06
3.66034e+06
3.66509e+06
3.65881e+06
3.65252e+06
3.61882e+06
3.57466e+06
3.55362e+06
3.71232e+06
3.56123e+06
3.65708e+06
3.59104e+06
3.63065e+06
3.60946e+06
3.62369e+06
3.62251e+06
3.62371e+06
3.62521e+06
3.62219e+06
3.61775e+06
3.59444e+06
3.55685e+06
3.53962e+06
3.68862e+06
3.51622e+06
3.6326e+06
3.55826e+06
3.60281e+06
3.58157e+06
3.59124e+06
3.58828e+06
3.58654e+06
3.58544e+06
3.58516e+06
3.58284e+06
3.56726e+06
3.53857e+06
3.52488e+06
3.65672e+06
3.45494e+06
3.60062e+06
3.52664e+06
3.56934e+06
3.55661e+06
3.56008e+06
3.55658e+06
3.55295e+06
3.55023e+06
3.55182e+06
3.55153e+06
3.54114e+06
3.52126e+06
3.51081e+06
3.56578e+06
3.48599e+06
3.55444e+06
3.53054e+06
3.5405e+06
3.53903e+06
3.53533e+06
3.53029e+06
3.52563e+06
3.52221e+06
3.52473e+06
3.52571e+06
3.51882e+06
3.50582e+06
3.49841e+06
3.42086e+06
3.60382e+06
3.50418e+06
3.54551e+06
3.5251e+06
3.52465e+06
3.51746e+06
3.51013e+06
3.50512e+06
3.5018e+06
3.50448e+06
3.50575e+06
3.50131e+06
3.49277e+06
3.48809e+06
3.54172e+06
3.56006e+06
3.5422e+06
3.53281e+06
3.52244e+06
3.51258e+06
3.50431e+06
3.49546e+06
3.49053e+06
3.48771e+06
3.49012e+06
3.49102e+06
3.48825e+06
3.48223e+06
3.47977e+06
3.55961e+06
3.55814e+06
3.54549e+06
3.52722e+06
3.51463e+06
3.50243e+06
3.49337e+06
3.4845e+06
3.48012e+06
3.47793e+06
3.47992e+06
3.48026e+06
3.47857e+06
3.47385e+06
3.47309e+06
3.53822e+06
3.52727e+06
3.5277e+06
3.50982e+06
3.50216e+06
3.49106e+06
3.48344e+06
3.47579e+06
3.47233e+06
3.47069e+06
3.47228e+06
3.4722e+06
3.47115e+06
3.46715e+06
3.46769e+06
3.51212e+06
3.50585e+06
3.50645e+06
3.49516e+06
3.4895e+06
3.481e+06
3.47486e+06
3.46868e+06
3.46609e+06
3.46482e+06
3.46612e+06
3.46587e+06
3.46515e+06
3.46172e+06
3.46329e+06
3.49383e+06
3.48879e+06
3.49026e+06
3.48228e+06
3.47847e+06
3.47212e+06
3.46747e+06
3.46265e+06
3.4608e+06
3.45975e+06
3.46087e+06
3.4606e+06
3.46006e+06
3.47871e+06
3.47664e+06
3.47688e+06
3.47214e+06
3.46919e+06
3.4647e+06
3.46122e+06
3.45747e+06
3.45622e+06
3.45526e+06
3.4563e+06
3.45606e+06
3.45565e+06
3.46778e+06
3.46746e+06
3.4669e+06
3.46412e+06
3.46177e+06
3.45857e+06
3.45598e+06
3.45299e+06
3.45223e+06
3.45126e+06
3.4523e+06
3.45205e+06
3.45181e+06
3.46023e+06
3.46077e+06
3.45944e+06
3.45786e+06
3.45585e+06
3.45354e+06
3.45161e+06
3.44916e+06
3.44879e+06
3.44773e+06
3.44887e+06
3.44855e+06
3.44855e+06
3.45416e+06
3.45513e+06
3.45367e+06
3.45281e+06
3.45115e+06
3.44944e+06
3.44797e+06
3.44591e+06
3.44583e+06
3.44462e+06
3.44589e+06
3.44549e+06
3.4458e+06
3.44967e+06
3.45063e+06
3.44934e+06
3.4488e+06
3.44743e+06
3.44612e+06
3.44496e+06
3.44322e+06
3.44337e+06
3.44208e+06
3.4435e+06
3.44305e+06
3.44377e+06
3.44642e+06
3.447e+06
3.44606e+06
3.44562e+06
3.44449e+06
3.44348e+06
3.44246e+06
3.44103e+06
3.4413e+06
3.43994e+06
3.4414e+06
3.44108e+06
3.44206e+06
3.44432e+06
3.44438e+06
3.44371e+06
3.44321e+06
3.44223e+06
3.44142e+06
3.44039e+06
3.43934e+06
3.43963e+06
3.43835e+06
3.44002e+06
3.4401e+06
3.44127e+06
3.443e+06
3.44263e+06
3.4421e+06
3.44145e+06
3.44052e+06
3.43975e+06
3.43853e+06
3.43785e+06
3.43755e+06
3.43623e+06
3.43768e+06
3.43904e+06
3.43984e+06
3.4424e+06
3.44167e+06
3.44118e+06
3.44027e+06
3.43933e+06
3.43835e+06
3.43686e+06
3.43626e+06
3.43473e+06
3.43469e+06
3.43608e+06
3.43908e+06
3.4403e+06
3.44242e+06
3.44143e+06
3.441e+06
3.4399e+06
3.43901e+06
3.43779e+06
3.43619e+06
3.43488e+06
3.43183e+06
3.4333e+06
3.42777e+06
3.43599e+06
3.43882e+06
3.44318e+06
3.442e+06
3.44172e+06
3.44062e+06
3.43995e+06
3.43891e+06
3.43791e+06
3.43692e+06
3.43587e+06
3.43667e+06
3.44429e+06
3.44304e+06
3.44287e+06
3.4418e+06
3.44134e+06
3.44049e+06
3.43983e+06
3.43916e+06
3.4388e+06
3.43893e+06
3.44577e+06
3.44452e+06
3.44443e+06
3.44344e+06
3.44315e+06
3.44246e+06
3.44206e+06
3.44163e+06
3.44148e+06
3.44156e+06
3.44734e+06
3.44611e+06
3.44613e+06
3.44521e+06
3.44506e+06
3.4445e+06
3.44426e+06
3.44397e+06
3.4439e+06
3.44393e+06
3.44908e+06
3.44785e+06
3.44798e+06
3.44709e+06
3.44704e+06
3.44656e+06
3.44644e+06
3.44624e+06
3.44621e+06
3.44625e+06
3.45087e+06
3.44965e+06
3.44985e+06
3.44898e+06
3.449e+06
3.44858e+06
3.44852e+06
3.44838e+06
3.44837e+06
3.44841e+06
3.45273e+06
3.45148e+06
3.45167e+06
3.45083e+06
3.45091e+06
3.45053e+06
3.45048e+06
3.45039e+06
3.4504e+06
3.45044e+06
3.45436e+06
3.45314e+06
3.45338e+06
3.45258e+06
3.45268e+06
3.45234e+06
3.45231e+06
3.45226e+06
3.45228e+06
3.45233e+06
3.45577e+06
3.45466e+06
3.45494e+06
3.4542e+06
3.45429e+06
3.454e+06
3.454e+06
3.45399e+06
3.45402e+06
3.45408e+06
3.45691e+06
3.45603e+06
3.45624e+06
3.45565e+06
3.45571e+06
3.45551e+06
3.45552e+06
3.45557e+06
3.45561e+06
3.45567e+06
3.45774e+06
3.45722e+06
3.45729e+06
3.4569e+06
3.45694e+06
3.45683e+06
3.45686e+06
3.45697e+06
3.45703e+06
3.4571e+06
3.45829e+06
3.45819e+06
3.45811e+06
3.45792e+06
3.45796e+06
3.45793e+06
3.45802e+06
3.45818e+06
3.45827e+06
3.45834e+06
3.45855e+06
3.45884e+06
3.45868e+06
3.45869e+06
3.45874e+06
3.4588e+06
3.45895e+06
3.45917e+06
3.4593e+06
3.45937e+06
3.45861e+06
3.45913e+06
3.45903e+06
3.45919e+06
3.45929e+06
3.45941e+06
3.45964e+06
3.45992e+06
3.46009e+06
3.46016e+06
3.45872e+06
3.45927e+06
3.4592e+06
3.45942e+06
3.45958e+06
3.45974e+06
3.46005e+06
3.46038e+06
3.46061e+06
3.46069e+06
3.45923e+06
3.45971e+06
3.45919e+06
3.4594e+06
3.45955e+06
3.45972e+06
3.46017e+06
3.46057e+06
3.46086e+06
3.46093e+06
3.45967e+06
3.46029e+06
3.4587e+06
3.45886e+06
3.45908e+06
3.45923e+06
3.45992e+06
3.46041e+06
3.46078e+06
3.46086e+06
3.45769e+06
3.45895e+06
3.457e+06
3.45716e+06
3.45797e+06
3.45809e+06
3.45918e+06
3.45986e+06
3.46031e+06
3.46041e+06
3.44771e+06
3.45028e+06
3.45296e+06
3.45326e+06
3.45579e+06
3.45612e+06
3.45778e+06
3.45884e+06
3.4594e+06
3.45953e+06
3.43001e+06
3.43047e+06
3.44647e+06
3.4474e+06
3.45255e+06
3.4537e+06
3.4558e+06
3.45734e+06
3.45799e+06
3.45815e+06
3.4297e+06
3.42385e+06
3.44459e+06
3.44578e+06
3.45056e+06
3.45224e+06
3.45388e+06
3.45546e+06
3.45603e+06
3.4562e+06
3.45814e+06
3.44984e+06
3.45189e+06
3.45122e+06
3.45109e+06
3.45183e+06
3.45207e+06
3.45312e+06
3.45344e+06
3.4536e+06
3.47596e+06
3.46988e+06
3.45605e+06
3.45392e+06
3.45035e+06
3.45006e+06
3.44941e+06
3.44996e+06
3.45012e+06
3.45028e+06
3.46298e+06
3.46196e+06
3.45061e+06
3.44943e+06
3.44637e+06
3.44601e+06
3.44542e+06
3.44587e+06
3.44602e+06
3.44619e+06
3.44688e+06
3.44777e+06
3.44273e+06
3.44245e+06
3.44073e+06
3.44057e+06
3.44034e+06
3.44086e+06
3.44109e+06
3.44127e+06
3.43688e+06
3.43756e+06
3.4351e+06
3.43507e+06
3.4342e+06
3.43415e+06
3.43429e+06
3.4349e+06
3.43521e+06
3.43542e+06
3.4287e+06
3.42888e+06
3.42749e+06
3.42733e+06
3.427e+06
3.42689e+06