/*--------------------------------*- C++ -*----------------------------------*\
| =========                 |                                                 |
| \\      /  F ield         | OpenFOAM: The Open Source CFD Toolbox           |
|  \\    /   O peration     | Version:  v2012                                 |
|   \\  /    A nd           | Website:  www.openfoam.com                      |
|    \\/     M anipulation  |                                                 |
\*---------------------------------------------------------------------------*/
FoamFile
{
    version     2.0;
    format      ascii;
    class       volVectorField;
    location    "0.05";
    object      U;
}
// * * * * * * * * * * * * * * * * * * * * * * * * * * * * * * * * * * * * * //

dimensions      [0 1 -1 0 0 0 0];


internalField   nonuniform List<vector> 
2642
(
(0.00078608 -0.0033249 -6.85873e-06)
(0.000795241 -0.00339682 -6.93876e-06)
(0.000799711 -0.00345037 -6.97786e-06)
(0.000799284 -0.00348551 -6.97423e-06)
(0.000793794 -0.00350229 -6.92643e-06)
(0.000783121 -0.00350081 -6.83341e-06)
(0.000767205 -0.00348123 -6.69463e-06)
(0.000746045 -0.00344377 -6.51008e-06)
(0.000719715 -0.00338867 -6.28043e-06)
(0.00068836 -0.00331615 -6.00692e-06)
(0.000652203 -0.00322644 -5.69151e-06)
(0.000611558 -0.00311971 -5.33692e-06)
(0.000566818 -0.00299608 -4.94657e-06)
(0.000518469 -0.00285553 -4.52473e-06)
(0.000467075 -0.00269791 -4.0763e-06)
(0.000413293 -0.00252285 -3.60702e-06)
(0.000357871 -0.00232976 -3.12342e-06)
(0.000301639 -0.00211765 -2.63273e-06)
(0.000245521 -0.00188503 -2.14301e-06)
(0.000190544 -0.00162964 -1.66324e-06)
(0.000137879 -0.00134793 -1.20361e-06)
(8.87767e-05 -0.001034 -7.75052e-07)
(4.52747e-05 -0.000678043 -3.95514e-07)
(8.26456e-06 -0.0002593 -7.78759e-08)
(0.000791836 -0.0033585 -6.90874e-06)
(0.000800648 -0.00342587 -6.9857e-06)
(0.000804767 -0.00347495 -7.02172e-06)
(0.000803984 -0.00350572 -7.01497e-06)
(0.000798135 -0.00351826 -6.96402e-06)
(0.0007871 -0.00351271 -6.86783e-06)
(0.000770819 -0.00348928 -6.72586e-06)
(0.000749294 -0.00344819 -6.53813e-06)
(0.000722601 -0.00338971 -6.30532e-06)
(0.000690888 -0.0033141 -6.0287e-06)
(0.000654381 -0.00322159 -5.71024e-06)
(0.000613394 -0.0031124 -5.35269e-06)
(0.000568324 -0.00298662 -4.95949e-06)
(0.000519659 -0.00284429 -4.53492e-06)
(0.000467964 -0.00268524 -4.0839e-06)
(0.000413896 -0.00250912 -3.61216e-06)
(0.000358206 -0.00231533 -3.12626e-06)
(0.000301723 -0.00210289 -2.63342e-06)
(0.00024537 -0.0018703 -2.14171e-06)
(0.000190172 -0.00161533 -1.66005e-06)
(0.000137299 -0.00133442 -1.19867e-06)
(8.79804e-05 -0.00102176 -7.68295e-07)
(4.42941e-05 -0.000667521 -3.87349e-07)
(7.29025e-06 -0.000252454 -7.19922e-08)
(0.000801527 -0.00338668 -6.99338e-06)
(0.000809998 -0.00345069 -7.06736e-06)
(0.000813724 -0.0034963 -7.09995e-06)
(0.000812499 -0.00352354 -7.08934e-06)
(0.000806161 -0.00353254 -7.03411e-06)
(0.000794596 -0.00352347 -6.93328e-06)
(0.000777749 -0.00349658 -6.78636e-06)
(0.000755627 -0.00345213 -6.59342e-06)
(0.000728316 -0.00339044 -6.3552e-06)
(0.000695969 -0.00331181 -6.07303e-06)
(0.00065882 -0.00321651 -5.74897e-06)
(0.000617193 -0.00310477 -5.38582e-06)
(0.000571488 -0.00297675 -4.98708e-06)
(0.000522203 -0.00283248 -4.55709e-06)
(0.000469906 -0.00267182 -4.10082e-06)
(0.000415261 -0.00249446 -3.62405e-06)
(0.000359021 -0.0022998 -3.13335e-06)
(0.000302019 -0.00208687 -2.63599e-06)
(0.000245179 -0.00185421 -2.14004e-06)
(0.000189528 -0.00159956 -1.65444e-06)
(0.000136239 -0.00131943 -1.18944e-06)
(8.65507e-05 -0.00100806 -7.55859e-07)
(4.26151e-05 -0.000655684 -3.72787e-07)
(6.34746e-06 -0.000244937 -6.3986e-08)
(0.000815108 -0.00341398 -7.1119e-06)
(0.000823136 -0.00347449 -7.18202e-06)
(0.00082635 -0.00351659 -7.21014e-06)
(0.000824543 -0.00354033 -7.19446e-06)
(0.000817556 -0.00354587 -7.13358e-06)
(0.000805279 -0.00353341 -7.02654e-06)
(0.000787664 -0.00350322 -6.87293e-06)
(0.000764727 -0.00345562 -6.67287e-06)
(0.000736563 -0.00339094 -6.42721e-06)
(0.000703335 -0.00330951 -6.13735e-06)
(0.000665289 -0.00321163 -5.80546e-06)
(0.000622757 -0.00309757 -5.43442e-06)
(0.000576153 -0.00296749 -5.02783e-06)
(0.000525983 -0.00282145 -4.59011e-06)
(0.000472825 -0.00265935 -4.12632e-06)
(0.00041735 -0.00248086 -3.6423e-06)
(0.000360318 -0.00228542 -3.14469e-06)
(0.000302568 -0.00207207 -2.6408e-06)
(0.000245032 -0.00183934 -2.13876e-06)
(0.000188743 -0.00158501 -1.6476e-06)
(0.00013489 -0.0013056 -1.17767e-06)
(8.47675e-05 -0.000995438 -7.40287e-07)
(4.06493e-05 -0.000644926 -3.55597e-07)
(5.52607e-06 -0.000238472 -5.61821e-08)
(0.000832474 -0.00344167 -7.26346e-06)
(0.000839966 -0.00349858 -7.32891e-06)
(0.000842552 -0.00353706 -7.35154e-06)
(0.000840021 -0.0035572 -7.32955e-06)
(0.000832221 -0.00355919 -7.26157e-06)
(0.000819047 -0.00354325 -7.14671e-06)
(0.00080046 -0.00350971 -6.98462e-06)
(0.000776487 -0.0034589 -6.77552e-06)
(0.000747236 -0.0033912 -6.52038e-06)
(0.000712884 -0.00330696 -6.22071e-06)
(0.00067369 -0.00320651 -5.87881e-06)
(0.000630002 -0.00309013 -5.49767e-06)
(0.000582246 -0.00295802 -5.08102e-06)
(0.000530942 -0.00281027 -4.63341e-06)
(0.000476679 -0.00264676 -4.15998e-06)
(0.00042014 -0.00246719 -3.66668e-06)
(0.000362096 -0.00227102 -3.16022e-06)
(0.000303395 -0.00205729 -2.64803e-06)
(0.00024498 -0.00182454 -2.13832e-06)
(0.000187903 -0.00157057 -1.64028e-06)
(0.000133381 -0.00129192 -1.16451e-06)
(8.28072e-05 -0.00098304 -7.23176e-07)
(3.8614e-05 -0.000634592 -3.37796e-07)
(4.78648e-06 -0.000232618 -4.908e-08)
(0.000853487 -0.0034696 -7.44684e-06)
(0.000860359 -0.00352284 -7.50688e-06)
(0.000862204 -0.00355763 -7.52306e-06)
(0.000858816 -0.00357408 -7.49359e-06)
(0.000850046 -0.00357244 -7.41714e-06)
(0.000835797 -0.00355296 -7.2929e-06)
(0.000816042 -0.003516 -7.12061e-06)
(0.000790821 -0.00346192 -6.90063e-06)
(0.000760259 -0.00339115 -6.63404e-06)
(0.000724548 -0.00330405 -6.32253e-06)
(0.000683967 -0.00320099 -5.96851e-06)
(0.00063888 -0.00308227 -5.57517e-06)
(0.00058973 -0.00294812 -5.14635e-06)
(0.000537053 -0.00279864 -4.68677e-06)
(0.000481456 -0.00263372 -4.20169e-06)
(0.000423633 -0.0024531 -3.69718e-06)
(0.000364371 -0.00225621 -3.1801e-06)
(0.000304532 -0.00204212 -2.65797e-06)
(0.000245076 -0.00180938 -2.13917e-06)
(0.000187083 -0.00155581 -1.63313e-06)
(0.000131813 -0.00127798 -1.15084e-06)
(8.07928e-05 -0.000970495 -7.05595e-07)
(3.66251e-05 -0.000624357 -3.20404e-07)
(4.12577e-06 -0.000227103 -4.27773e-08)
(0.000878034 -0.00349779 -7.66107e-06)
(0.000884199 -0.00354725 -7.71494e-06)
(0.000885195 -0.00357824 -7.72371e-06)
(0.000880816 -0.00359093 -7.6856e-06)
(0.000870921 -0.00358556 -7.59934e-06)
(0.000855423 -0.00356247 -7.4642e-06)
(0.00083431 -0.00352202 -7.28006e-06)
(0.000807637 -0.00346462 -7.04741e-06)
(0.000775547 -0.00339073 -6.76749e-06)
(0.000738254 -0.00330074 -6.44217e-06)
(0.000696057 -0.00319504 -6.07405e-06)
(0.000649339 -0.00307397 -5.66647e-06)
(0.000598565 -0.00293777 -5.22348e-06)
(0.000544291 -0.00278655 -4.74996e-06)
(0.000487142 -0.00262024 -4.25134e-06)
(0.000427831 -0.00243856 -3.73384e-06)
(0.00036716 -0.00224097 -3.20446e-06)
(0.000306012 -0.00202655 -2.67091e-06)
(0.000245369 -0.00179386 -2.14175e-06)
(0.000186352 -0.00154074 -1.62676e-06)
(0.000130274 -0.00126381 -1.13741e-06)
(7.88183e-05 -0.000957841 -6.88361e-07)
(3.47541e-05 -0.000614252 -3.04043e-07)
(3.54939e-06 -0.000221903 -3.72625e-08)
(0.000906019 -0.0035263 -7.9053e-06)
(0.000911389 -0.00357186 -7.95224e-06)
(0.000911424 -0.00359893 -7.95263e-06)
(0.000905922 -0.00360774 -7.90471e-06)
(0.000894749 -0.00359856 -7.80731e-06)
(0.000877832 -0.00357175 -7.65978e-06)
(0.000855173 -0.00352774 -7.46216e-06)
(0.000826848 -0.00346696 -7.21509e-06)
(0.000793021 -0.00338989 -6.92002e-06)
(0.000753929 -0.00329697 -6.57899e-06)
(0.000709895 -0.00318861 -6.19484e-06)
(0.000661325 -0.00306517 -5.77111e-06)
(0.000608709 -0.00292691 -5.31204e-06)
(0.000552626 -0.00277397 -4.82273e-06)
(0.000493721 -0.00260627 -4.30878e-06)
(0.000432729 -0.00242355 -3.77661e-06)
(0.000370474 -0.0022253 -3.2334e-06)
(0.000307862 -0.00201058 -2.68707e-06)
(0.000245903 -0.00177798 -2.14643e-06)
(0.000185767 -0.00152537 -1.62167e-06)
(0.000128833 -0.00124943 -1.12485e-06)
(7.69525e-05 -0.000945126 -6.72077e-07)
(3.30429e-05 -0.000604315 -2.89076e-07)
(3.05533e-06 -0.000217017 -3.25154e-08)
(0.000937359 -0.00355518 -8.17882e-06)
(0.000941845 -0.00359669 -8.21804e-06)
(0.000940806 -0.00361972 -8.20906e-06)
(0.000934046 -0.00362451 -8.15017e-06)
(0.000921441 -0.0036114 -8.04027e-06)
(0.000902934 -0.00358078 -7.87888e-06)
(0.000878545 -0.00353312 -7.66616e-06)
(0.000848373 -0.00346888 -7.40297e-06)
(0.000812605 -0.00338858 -7.09096e-06)
(0.000771504 -0.00329268 -6.7324e-06)
(0.00072542 -0.00318163 -6.33036e-06)
(0.000674787 -0.00305581 -5.88862e-06)
(0.00062012 -0.00291549 -5.41166e-06)
(0.000562026 -0.00276082 -4.90479e-06)
(0.000501173 -0.00259175 -4.37385e-06)
(0.000438322 -0.00240803 -3.82545e-06)
(0.000374319 -0.00220914 -3.26699e-06)
(0.000310102 -0.00199417 -2.70664e-06)
(0.000246712 -0.00176171 -2.15351e-06)
(0.000185375 -0.00150968 -1.61827e-06)
(0.000127546 -0.00123485 -1.11362e-06)
(7.52439e-05 -0.000932361 -6.57164e-07)
(3.15128e-05 -0.000594542 -2.75696e-07)
(2.63666e-06 -0.000212408 -2.84754e-08)
(0.000971984 -0.00358446 -8.48099e-06)
(0.000975492 -0.00362177 -8.51169e-06)
(0.000973262 -0.0036406 -8.49232e-06)
(0.000965107 -0.00364124 -8.42126e-06)
(0.000950916 -0.00362408 -8.29753e-06)
(0.000930649 -0.00358954 -8.12077e-06)
(0.000904347 -0.00353812 -7.89136e-06)
(0.000872134 -0.00347035 -7.61036e-06)
(0.000834224 -0.00338675 -7.27966e-06)
(0.00079091 -0.00328783 -6.90179e-06)
(0.000742571 -0.00317406 -6.48008e-06)
(0.000689671 -0.00304583 -6.01855e-06)
(0.000632755 -0.00290345 -5.52196e-06)
(0.000572459 -0.00274706 -4.99587e-06)
(0.000509478 -0.00257664 -4.44635e-06)
(0.000444599 -0.00239194 -3.88026e-06)
(0.0003787 -0.00219245 -3.30525e-06)
(0.000312747 -0.00197727 -2.72976e-06)
(0.000247823 -0.00174503 -2.16323e-06)
(0.000185214 -0.00149367 -1.61688e-06)
(0.000126453 -0.00122006 -1.10409e-06)
(7.37241e-05 -0.000919546 -6.439e-07)
(3.01709e-05 -0.000584921 -2.63957e-07)
(2.28513e-06 -0.000208043 -2.50781e-08)
(0.00100983 -0.0036142 -8.81132e-06)
(0.00101227 -0.00364713 -8.83263e-06)
(0.00100873 -0.00366159 -8.80182e-06)
(0.000999034 -0.00365793 -8.71736e-06)
(0.0009831 -0.00363657 -8.57842e-06)
(0.0009609 -0.00359798 -8.38481e-06)
(0.000932503 -0.00354271 -8.13711e-06)
(0.000898057 -0.00347131 -7.83663e-06)
(0.000857809 -0.00338435 -7.48552e-06)
(0.000812081 -0.00328236 -7.0866e-06)
(0.000761288 -0.00316583 -6.64346e-06)
(0.000705925 -0.00303518 -6.16045e-06)
(0.00064657 -0.00289072 -5.64257e-06)
(0.00058389 -0.00273263 -5.09567e-06)
(0.00051861 -0.00256088 -4.52609e-06)
(0.000451549 -0.00237523 -3.94095e-06)
(0.000383614 -0.00217519 -3.34817e-06)
(0.000315809 -0.00195987 -2.7565e-06)
(0.000249257 -0.00172791 -2.17576e-06)
(0.000185311 -0.00147732 -1.61774e-06)
(0.000125582 -0.00120505 -1.09651e-06)
(7.24122e-05 -0.000906679 -6.3245e-07)
(2.90153e-05 -0.000575436 -2.53851e-07)
(1.9924e-06 -0.000203885 -2.22402e-08)
(0.00105086 -0.00364442 -9.16937e-06)
(0.00105211 -0.00367277 -9.18038e-06)
(0.00104713 -0.00368269 -9.13704e-06)
(0.00103576 -0.00367456 -9.03791e-06)
(0.00101792 -0.00364885 -8.88235e-06)
(0.000993618 -0.00360608 -8.67037e-06)
(0.00096294 -0.00354685 -8.40278e-06)
(0.000926071 -0.00347173 -8.08115e-06)
(0.00088329 -0.00338133 -7.70794e-06)
(0.000834954 -0.00327621 -7.28625e-06)
(0.000781512 -0.00315689 -6.82e-06)
(0.000723497 -0.0030238 -6.31384e-06)
(0.00066152 -0.00287727 -5.77308e-06)
(0.000596284 -0.00271749 -5.20388e-06)
(0.000528546 -0.00254443 -4.61284e-06)
(0.000459156 -0.00235787 -4.00738e-06)
(0.000389058 -0.00215733 -3.39571e-06)
(0.000319291 -0.00194192 -2.78692e-06)
(0.000251027 -0.00171033 -2.19123e-06)
(0.000185684 -0.00146061 -1.62101e-06)
(0.000124954 -0.00118983 -1.09103e-06)
(7.13174e-05 -0.000893756 -6.22897e-07)
(2.80386e-05 -0.000566066 -2.45308e-07)
(1.75062e-06 -0.000199904 -1.98954e-08)
(0.00109503 -0.00367515 -9.55484e-06)
(0.00109499 -0.00369872 -9.55456e-06)
(0.00108844 -0.00370389 -9.4975e-06)
(0.00107523 -0.00369111 -9.3824e-06)
(0.00105532 -0.00366089 -9.20877e-06)
(0.00102873 -0.00361381 -8.97686e-06)
(0.000995592 -0.00355049 -8.68776e-06)
(0.000956108 -0.00347155 -8.34332e-06)
(0.0009106 -0.00337764 -7.94632e-06)
(0.000859463 -0.00326934 -7.50018e-06)
(0.000803184 -0.00314719 -7.00918e-06)
(0.000742333 -0.00301165 -6.47827e-06)
(0.00067756 -0.00286304 -5.91311e-06)
(0.000609603 -0.00270158 -5.32016e-06)
(0.000539256 -0.00252725 -4.70634e-06)
(0.000467402 -0.00233982 -4.07938e-06)
(0.000395021 -0.00213883 -3.44779e-06)
(0.000323194 -0.00192342 -2.82102e-06)
(0.00025314 -0.00169228 -2.2097e-06)
(0.000186345 -0.00144354 -1.6268e-06)
(0.000124577 -0.00117437 -1.08775e-06)
(7.0442e-05 -0.000880769 -6.15258e-07)
(2.72303e-05 -0.00055679 -2.38237e-07)
(1.55257e-06 -0.00019607 -1.79715e-08)
(0.00114231 -0.00370642 -9.96746e-06)
(0.00114085 -0.00372498 -9.95483e-06)
(0.00113259 -0.00372519 -9.88282e-06)
(0.00111739 -0.00370756 -9.75036e-06)
(0.00109524 -0.00367267 -9.55716e-06)
(0.00106619 -0.00362112 -9.30375e-06)
(0.00103039 -0.00355359 -8.99149e-06)
(0.0009881 -0.00347074 -8.62256e-06)
(0.000939673 -0.00337323 -8.20009e-06)
(0.000885545 -0.0032617 -7.72785e-06)
(0.000826243 -0.00313668 -7.21046e-06)
(0.000762379 -0.00299866 -6.65326e-06)
(0.000694641 -0.00284799 -6.06222e-06)
(0.000623808 -0.00268487 -5.44417e-06)
(0.000550709 -0.0025093 -4.80634e-06)
(0.000476265 -0.00232105 -4.15676e-06)
(0.000401492 -0.00211968 -3.50429e-06)
(0.000327514 -0.00190433 -2.85875e-06)
(0.000255599 -0.00167374 -2.23119e-06)
(0.0001873 -0.00142609 -1.63516e-06)
(0.000124456 -0.00115868 -1.08671e-06)
(6.97828e-05 -0.000867707 -6.09507e-07)
(2.65779e-05 -0.000547587 -2.32531e-07)
(1.39183e-06 -0.000192357 -1.64116e-08)
(0.00119268 -0.00373825 -1.04071e-05)
(0.00118967 -0.00375154 -1.03809e-05)
(0.00117954 -0.00374658 -1.02926e-05)
(0.00116219 -0.0037239 -1.01414e-05)
(0.00113762 -0.00368415 -9.92704e-06)
(0.00110591 -0.00362798 -9.65049e-06)
(0.00106727 -0.00355611 -9.3134e-06)
(0.00102198 -0.00346923 -8.91829e-06)
(0.000970443 -0.00336806 -8.46867e-06)
(0.000913135 -0.00325323 -7.96868e-06)
(0.000850628 -0.00312531 -7.42333e-06)
(0.000783578 -0.00298481 -6.83832e-06)
(0.000712715 -0.00283207 -6.22001e-06)
(0.000638857 -0.00266731 -5.57556e-06)
(0.000562872 -0.00249054 -4.91253e-06)
(0.000485718 -0.00230153 -4.2393e-06)
(0.000408453 -0.00209984 -3.56508e-06)
(0.000332242 -0.00188464 -2.90004e-06)
(0.0002584 -0.0016547 -2.25566e-06)
(0.000188548 -0.00140826 -1.64607e-06)
(0.000124589 -0.00114275 -1.08788e-06)
(6.93326e-05 -0.000854556 -6.05582e-07)
(2.60686e-05 -0.000538432 -2.28077e-07)
(1.26274e-06 -0.000188739 -1.51602e-08)
(0.00124614 -0.00377064 -1.08736e-05)
(0.00124143 -0.00377841 -1.08326e-05)
(0.00122927 -0.00376802 -1.07267e-05)
(0.00120959 -0.00374009 -1.0555e-05)
(0.00118241 -0.00369529 -1.03179e-05)
(0.00114786 -0.00363434 -1.00166e-05)
(0.00110617 -0.00355799 -9.65293e-06)
(0.00105769 -0.00346698 -9.22993e-06)
(0.00100284 -0.00336206 -8.75147e-06)
(0.000942168 -0.00324388 -8.22211e-06)
(0.000876278 -0.00311303 -7.64723e-06)
(0.000805875 -0.00297003 -7.03295e-06)
(0.000731731 -0.00281524 -6.38601e-06)
(0.000654706 -0.00264888 -5.71391e-06)
(0.000575707 -0.00247094 -5.02459e-06)
(0.000495735 -0.00228123 -4.32676e-06)
(0.000415883 -0.00207929 -3.62996e-06)
(0.000337363 -0.00186432 -2.94476e-06)
(0.000261536 -0.00163514 -2.28305e-06)
(0.000190083 -0.00139004 -1.65949e-06)
(0.00012497 -0.00112657 -1.09122e-06)
(6.90815e-05 -0.000841303 -6.03395e-07)
(2.56893e-05 -0.000529304 -2.2476e-07)
(1.16043e-06 -0.000185194 -1.4172e-08)
(0.00130267 -0.0038036 -1.13669e-05)
(0.00129611 -0.00380558 -1.13098e-05)
(0.00128175 -0.00378951 -1.11846e-05)
(0.00125954 -0.00375609 -1.0991e-05)
(0.00122955 -0.00370605 -1.07294e-05)
(0.00119196 -0.00364015 -1.04015e-05)
(0.00114703 -0.00355918 -1.00095e-05)
(0.00109515 -0.00346394 -9.55691e-06)
(0.00103681 -0.00335518 -9.04792e-06)
(0.000972578 -0.0032336 -8.48755e-06)
(0.000903129 -0.0030998 -7.88162e-06)
(0.000829208 -0.00295429 -7.23664e-06)
(0.000751633 -0.00279746 -6.55975e-06)
(0.000671306 -0.00262952 -5.85884e-06)
(0.000589177 -0.00245047 -5.14219e-06)
(0.000506283 -0.00226011 -4.41886e-06)
(0.00042376 -0.00205801 -3.69874e-06)
(0.00034286 -0.00184337 -2.99277e-06)
(0.000264993 -0.00161505 -2.31325e-06)
(0.000191897 -0.00137141 -1.67534e-06)
(0.000125588 -0.00111012 -1.09663e-06)
(6.90176e-05 -0.000827932 -6.02844e-07)
(2.54273e-05 -0.000520181 -2.2247e-07)
(1.08069e-06 -0.000181704 -1.34064e-08)
(0.00136228 -0.00383712 -1.18871e-05)
(0.00135368 -0.00383301 -1.18123e-05)
(0.00133693 -0.00381101 -1.16662e-05)
(0.001312 -0.00377187 -1.14488e-05)
(0.00127901 -0.00371638 -1.1161e-05)
(0.00123816 -0.00364536 -1.08047e-05)
(0.00118978 -0.00355964 -1.03826e-05)
(0.0011343 -0.00346005 -9.89863e-06)
(0.00107226 -0.00334738 -9.35741e-06)
(0.0010043 -0.00322234 -8.76441e-06)
(0.000931115 -0.00308555 -8.12591e-06)
(0.000853517 -0.00293755 -7.44884e-06)
(0.000772366 -0.00277869 -6.74074e-06)
(0.00068861 -0.00260921 -6.0099e-06)
(0.000603237 -0.0024291 -5.26495e-06)
(0.000517327 -0.00223817 -4.51529e-06)
(0.000432054 -0.00203598 -3.77117e-06)
(0.000348713 -0.00182177 -3.04389e-06)
(0.000268756 -0.00159442 -2.34612e-06)
(0.000193975 -0.00135237 -1.69349e-06)
(0.000126432 -0.00109339 -1.104e-06)
(6.91279e-05 -0.000814429 -6.03813e-07)
(2.52705e-05 -0.000511042 -2.211e-07)
(1.01996e-06 -0.00017825 -1.28292e-08)
(0.00142496 -0.00387118 -1.24342e-05)
(0.00141415 -0.00386067 -1.234e-05)
(0.0013948 -0.00383247 -1.21712e-05)
(0.00136694 -0.00378737 -1.19283e-05)
(0.00133072 -0.00372622 -1.16124e-05)
(0.0012864 -0.00364991 -1.12257e-05)
(0.00123435 -0.0035593 -1.07717e-05)
(0.00117507 -0.00345525 -1.02545e-05)
(0.00110914 -0.00333859 -9.67931e-06)
(0.00103725 -0.00321005 -9.05208e-06)
(0.000960167 -0.00307025 -8.37951e-06)
(0.000878736 -0.00291974 -7.66899e-06)
(0.000793871 -0.00275889 -6.92848e-06)
(0.000706563 -0.00258791 -6.16664e-06)
(0.000617843 -0.0024068 -5.39247e-06)
(0.000528829 -0.00221537 -4.61572e-06)
(0.000440736 -0.00201319 -3.84698e-06)
(0.000354896 -0.00179951 -3.09789e-06)
(0.000272805 -0.00157324 -2.38149e-06)
(0.000196301 -0.0013329 -1.71382e-06)
(0.000127485 -0.00107639 -1.11321e-06)
(6.93983e-05 -0.000800778 -6.06181e-07)
(2.52074e-05 -0.000501868 -2.2055e-07)
(9.75176e-07 -0.000174818 -1.24109e-08)
(0.00149074 -0.00390576 -1.30083e-05)
(0.00147749 -0.00388854 -1.28928e-05)
(0.00145532 -0.00385385 -1.26995e-05)
(0.0014243 -0.00380254 -1.2429e-05)
(0.00138463 -0.00373553 -1.20829e-05)
(0.00133662 -0.00365374 -1.16641e-05)
(0.00128069 -0.00355809 -1.11761e-05)
(0.00121739 -0.00344948 -1.06239e-05)
(0.00114737 -0.00332876 -1.0013e-05)
(0.00107137 -0.00319667 -9.34991e-06)
(0.000990215 -0.00305385 -8.6418e-06)
(0.000904799 -0.00290085 -7.89651e-06)
(0.000816086 -0.00273802 -7.12241e-06)
(0.000725111 -0.00256559 -6.32856e-06)
(0.000632946 -0.00238355 -5.52432e-06)
(0.000540748 -0.0021917 -4.71979e-06)
(0.00044977 -0.00198961 -3.92587e-06)
(0.000361383 -0.00177656 -3.15453e-06)
(0.000277118 -0.0015515 -2.41916e-06)
(0.000198857 -0.00131301 -1.73615e-06)
(0.000128732 -0.00105908 -1.12411e-06)
(6.98144e-05 -0.000786964 -6.09821e-07)
(2.52273e-05 -0.00049264 -2.20726e-07)
(9.43777e-07 -0.000171394 -1.21265e-08)
(0.00155961 -0.00394082 -1.36093e-05)
(0.00154371 -0.00391656 -1.34707e-05)
(0.00151848 -0.00387508 -1.32507e-05)
(0.00148407 -0.00381731 -1.29506e-05)
(0.0014407 -0.00374422 -1.25723e-05)
(0.00138875 -0.00365678 -1.21191e-05)
(0.00132871 -0.00355596 -1.15953e-05)
(0.00126118 -0.00344269 -1.10061e-05)
(0.00118687 -0.00331783 -1.03578e-05)
(0.00110658 -0.00318215 -9.65724e-06)
(0.00102118 -0.0030363 -8.91213e-06)
(0.000931636 -0.00288081 -8.13077e-06)
(0.000838945 -0.00271605 -7.32196e-06)
(0.000744194 -0.00254223 -6.49516e-06)
(0.000648494 -0.00235932 -5.66007e-06)
(0.00055304 -0.00216714 -4.82711e-06)
(0.000459121 -0.00196525 -4.00752e-06)
(0.000368142 -0.00175293 -3.21356e-06)
(0.00028167 -0.00152919 -2.45891e-06)
(0.000201621 -0.00129268 -1.7603e-06)
(0.000130155 -0.00104148 -1.13655e-06)
(7.03615e-05 -0.000772975 -6.14605e-07)
(2.53201e-05 -0.000483341 -2.2154e-07)
(9.23559e-07 -0.000167965 -1.19545e-08)
(0.0016316 -0.0039763 -1.42376e-05)
(0.00161278 -0.00394467 -1.40735e-05)
(0.00158425 -0.00389611 -1.38247e-05)
(0.00154618 -0.00383161 -1.34927e-05)
(0.00149887 -0.00375222 -1.308e-05)
(0.00144274 -0.00365896 -1.25903e-05)
(0.00137836 -0.00355283 -1.20286e-05)
(0.00130637 -0.00343479 -1.14006e-05)
(0.00122757 -0.00330574 -1.0713e-05)
(0.0011428 -0.00316644 -9.97338e-06)
(0.001053 -0.00301755 -9.18983e-06)
(0.000959171 -0.0028596 -8.37115e-06)
(0.000862381 -0.00269294 -7.52656e-06)
(0.000763751 -0.00251779 -6.6659e-06)
(0.000664433 -0.0023341 -5.79922e-06)
(0.000565658 -0.00214167 -4.93728e-06)
(0.000468748 -0.00194007 -4.09158e-06)
(0.000375141 -0.00172861 -3.27468e-06)
(0.000286432 -0.00150632 -2.50051e-06)
(0.000204571 -0.0012719 -1.78607e-06)
(0.000131735 -0.00102356 -1.15036e-06)
(7.10248e-05 -0.000758797 -6.20405e-07)
(2.54765e-05 -0.000473958 -2.2291e-07)
(9.12681e-07 -0.000164522 -1.18767e-08)
(0.0017067 -0.00401216 -1.4893e-05)
(0.00168471 -0.0039728 -1.47013e-05)
(0.0016526 -0.00391685 -1.44212e-05)
(0.0016106 -0.00384537 -1.40549e-05)
(0.00155907 -0.00375946 -1.36054e-05)
(0.00149851 -0.0036602 -1.30771e-05)
(0.00142954 -0.00354863 -1.24754e-05)
(0.00135288 -0.00342573 -1.18065e-05)
(0.00126937 -0.00329242 -1.10779e-05)
(0.00117994 -0.00314947 -1.02976e-05)
(0.00108557 -0.00299755 -9.47417e-06)
(0.000987329 -0.00283716 -8.61695e-06)
(0.000886322 -0.00266867 -7.73555e-06)
(0.000783717 -0.00249224 -6.84021e-06)
(0.000680705 -0.00230785 -5.94129e-06)
(0.000578552 -0.00211527 -5.04985e-06)
(0.000478609 -0.00191408 -4.17768e-06)
(0.000382343 -0.00170359 -3.33758e-06)
(0.000291377 -0.00148286 -2.5437e-06)
(0.000207683 -0.00125068 -1.81325e-06)
(0.000133452 -0.00100531 -1.16536e-06)
(7.17896e-05 -0.000744418 -6.27092e-07)
(2.56876e-05 -0.000464476 -2.2476e-07)
(9.09556e-07 -0.000161056 -1.18776e-08)
(0.00178493 -0.00404831 -1.55758e-05)
(0.00175947 -0.00400088 -1.53537e-05)
(0.00172348 -0.00393722 -1.50399e-05)
(0.00167727 -0.0038585 -1.46368e-05)
(0.00162126 -0.00376585 -1.41482e-05)
(0.001556 -0.00366041 -1.35788e-05)
(0.00148218 -0.00354327 -1.29348e-05)
(0.00140061 -0.00341542 -1.22231e-05)
(0.0013122 -0.00327781 -1.14517e-05)
(0.00121792 -0.0031312 -1.06291e-05)
(0.00111882 -0.00297625 -9.76442e-06)
(0.00101603 -0.00281347 -8.86747e-06)
(0.000910692 -0.00264319 -7.9483e-06)
(0.000804024 -0.00246558 -7.01749e-06)
(0.00069725 -0.00228057 -6.08574e-06)
(0.000591668 -0.00208794 -5.16438e-06)
(0.000488658 -0.00188726 -4.26543e-06)
(0.000389712 -0.00167786 -3.40192e-06)
(0.000296472 -0.00145883 -2.5882e-06)
(0.000210931 -0.001229 -1.84163e-06)
(0.000135286 -0.000986744 -1.18138e-06)
(7.26415e-05 -0.00072983 -6.34538e-07)
(2.59453e-05 -0.000454885 -2.27017e-07)
(9.12853e-07 -0.000157558 -1.19438e-08)
(0.0018663 -0.00408467 -1.62859e-05)
(0.00183705 -0.00402879 -1.60309e-05)
(0.00179688 -0.00395712 -1.56805e-05)
(0.00174615 -0.00387088 -1.52379e-05)
(0.00168534 -0.00377129 -1.47075e-05)
(0.0016151 -0.00365951 -1.40947e-05)
(0.00153619 -0.00353667 -1.34063e-05)
(0.00144948 -0.0034038 -1.26497e-05)
(0.00135595 -0.00326184 -1.18336e-05)
(0.00125663 -0.00311156 -1.09671e-05)
(0.00115266 -0.0029536 -1.00598e-05)
(0.00104518 -0.00278848 -9.12197e-06)
(0.000935412 -0.00261648 -8.1641e-06)
(0.0008246 -0.00243776 -7.19712e-06)
(0.000714004 -0.00225224 -6.23201e-06)
(0.000604953 -0.00205967 -5.28036e-06)
(0.00049885 -0.00185962 -4.35442e-06)
(0.000397208 -0.00165142 -3.46738e-06)
(0.000301686 -0.00143421 -2.63373e-06)
(0.00021429 -0.00120686 -1.87096e-06)
(0.000137217 -0.00096784 -1.19825e-06)
(7.3566e-05 -0.000715024 -6.42619e-07)
(2.6242e-05 -0.000445174 -2.29616e-07)
(9.21414e-07 -0.000154023 -1.20636e-08)
(0.0019508 -0.00412114 -1.70234e-05)
(0.00191743 -0.00405644 -1.67324e-05)
(0.00187274 -0.00397644 -1.63426e-05)
(0.00181716 -0.00388243 -1.58577e-05)
(0.00175126 -0.00377567 -1.52829e-05)
(0.00167576 -0.0036574 -1.46241e-05)
(0.00159148 -0.00352875 -1.38889e-05)
(0.00149938 -0.00339078 -1.30853e-05)
(0.00140052 -0.00324444 -1.22227e-05)
(0.001296 -0.00309049 -1.13107e-05)
(0.00118698 -0.00292956 -1.03594e-05)
(0.0010747 -0.00276214 -9.37968e-06)
(0.000960401 -0.00258851 -8.38225e-06)
(0.000845371 -0.00240877 -7.37845e-06)
(0.000730901 -0.00222284 -6.37953e-06)
(0.000618347 -0.00203044 -5.39731e-06)
(0.000509133 -0.00183114 -4.44421e-06)
(0.000404788 -0.00162428 -3.53358e-06)
(0.000306983 -0.00140901 -2.67999e-06)
(0.00021773 -0.00118426 -1.90101e-06)
(0.000139223 -0.000948599 -1.21578e-06)
(7.4549e-05 -0.000699993 -6.51211e-07)
(2.65705e-05 -0.000435335 -2.32492e-07)
(9.34265e-07 -0.000150446 -1.22273e-08)
(0.00203844 -0.00415761 -1.77882e-05)
(0.00200058 -0.00408372 -1.74581e-05)
(0.00195101 -0.00399506 -1.70257e-05)
(0.00189025 -0.00389301 -1.64956e-05)
(0.00181893 -0.00377889 -1.58735e-05)
(0.00173786 -0.00365396 -1.51661e-05)
(0.00164795 -0.00351941 -1.43817e-05)
(0.00155022 -0.00337628 -1.35291e-05)
(0.00144582 -0.00322554 -1.26181e-05)
(0.0013359 -0.00306794 -1.1659e-05)
(0.0012217 -0.00290408 -1.06625e-05)
(0.0011045 -0.00273444 -9.63976e-06)
(0.000985572 -0.00255924 -8.60199e-06)
(0.000866258 -0.0023786 -7.5608e-06)
(0.000747872 -0.00219236 -6.5277e-06)
(0.000631792 -0.00200025 -5.5147e-06)
(0.000519458 -0.00180182 -4.53436e-06)
(0.000412412 -0.00159642 -3.60015e-06)
(0.000312329 -0.00138322 -2.72668e-06)
(0.000221226 -0.00116121 -1.93154e-06)
(0.000141285 -0.000929021 -1.23379e-06)
(7.55767e-05 -0.000684733 -6.60193e-07)
(2.69238e-05 -0.000425363 -2.35586e-07)
(9.50545e-07 -0.000146822 -1.24259e-08)
(0.0021292 -0.00419394 -1.85803e-05)
(0.00208646 -0.00411047 -1.82076e-05)
(0.00203164 -0.00401285 -1.77294e-05)
(0.00196532 -0.00390251 -1.71509e-05)
(0.00188825 -0.00378083 -1.64785e-05)
(0.0018013 -0.00364911 -1.57199e-05)
(0.00170548 -0.00350855 -1.48838e-05)
(0.00160188 -0.00336022 -1.398e-05)
(0.00149173 -0.00320507 -1.30188e-05)
(0.00137624 -0.00304384 -1.20111e-05)
(0.00125671 -0.00287712 -1.09681e-05)
(0.00113446 -0.00270532 -9.90137e-06)
(0.00101083 -0.00252867 -8.82253e-06)
(0.00088718 -0.00234721 -7.74346e-06)
(0.000764845 -0.0021608 -6.67589e-06)
(0.000645224 -0.0019691 -5.63198e-06)
(0.00052977 -0.00177167 -4.62441e-06)
(0.000420033 -0.00156786 -3.6667e-06)
(0.000317688 -0.00135686 -2.77348e-06)
(0.000224747 -0.0011377 -1.96231e-06)
(0.00014338 -0.000909103 -1.2521e-06)
(7.66354e-05 -0.000669241 -6.69446e-07)
(2.72956e-05 -0.000415253 -2.38842e-07)
(9.69523e-07 -0.000143148 -1.2652e-08)
(0.00225812 -0.00430838 -1.97053e-05)
(0.00222306 -0.00422998 -1.93995e-05)
(0.00217503 -0.00413656 -1.89806e-05)
(0.00211455 -0.00402966 -1.84531e-05)
(0.00204231 -0.00391078 -1.78228e-05)
(0.00195913 -0.00378135 -1.70971e-05)
(0.00186598 -0.0036427 -1.62844e-05)
(0.00176395 -0.00349606 -1.53943e-05)
(0.00165424 -0.0033425 -1.4437e-05)
(0.00153812 -0.00318295 -1.34238e-05)
(0.00141689 -0.00301814 -1.23659e-05)
(0.00129189 -0.00284861 -1.12752e-05)
(0.0011645 -0.00267475 -1.01636e-05)
(0.00103609 -0.00249675 -9.04305e-06)
(0.000908054 -0.00231461 -7.92569e-06)
(0.000781746 -0.00212813 -6.82344e-06)
(0.000658579 -0.00193699 -5.74858e-06)
(0.000540016 -0.00174069 -4.71387e-06)
(0.000427606 -0.0015386 -3.73283e-06)
(0.000323022 -0.00132992 -2.82007e-06)
(0.000228267 -0.00111374 -1.99304e-06)
(0.000145488 -0.00088885 -1.27051e-06)
(7.77117e-05 -0.000653515 -6.78853e-07)
(2.76798e-05 -0.000405001 -2.42205e-07)
(9.90539e-07 -0.000139421 -1.28987e-08)
(0.0023869 -0.00442836 -2.08288e-05)
(0.00236036 -0.00435496 -2.05975e-05)
(0.00231999 -0.00426558 -2.02455e-05)
(0.00226623 -0.00416183 -1.97765e-05)
(0.00219967 -0.00404534 -1.91959e-05)
(0.0021211 -0.00391768 -1.85105e-05)
(0.00203144 -0.00378032 -1.77283e-05)
(0.00193177 -0.00363464 -1.68586e-05)
(0.00182325 -0.00348185 -1.59119e-05)
(0.00170717 -0.00332304 -1.4899e-05)
(0.00158487 -0.00315912 -1.38319e-05)
(0.00145773 -0.00299077 -1.27224e-05)
(0.00132713 -0.00281852 -1.15828e-05)
(0.00119451 -0.00264271 -1.04255e-05)
(0.00106125 -0.00246347 -9.2627e-06)
(0.000928791 -0.00228077 -8.10674e-06)
(0.000798497 -0.00209437 -6.96969e-06)
(0.000671791 -0.00190391 -5.86394e-06)
(0.000550138 -0.00170888 -4.80226e-06)
(0.000435085 -0.00150864 -3.79814e-06)
(0.000328294 -0.00130242 -2.86611e-06)
(0.000231754 -0.00108934 -2.02351e-06)
(0.000147588 -0.000868264 -1.28886e-06)
(7.87926e-05 -0.000637558 -6.883e-07)
(2.80704e-05 -0.000394607 -2.45625e-07)
(1.01303e-06 -0.000135641 -1.31599e-08)
(0.00249792 -0.00448685 -2.17977e-05)
(0.00246611 -0.00440137 -2.15204e-05)
(0.00241995 -0.00430054 -2.11179e-05)
(0.00235998 -0.00418609 -2.05948e-05)
(0.00228689 -0.00405971 -1.99572e-05)
(0.00220158 -0.00392304 -1.92129e-05)
(0.00210507 -0.0037776 -1.83709e-05)
(0.00199853 -0.00362478 -1.74414e-05)
(0.00188323 -0.0034658 -1.64354e-05)
(0.00176053 -0.00330174 -1.53648e-05)
(0.00163185 -0.00313348 -1.4242e-05)
(0.00149863 -0.00296168 -1.30795e-05)
(0.00136231 -0.00278681 -1.18899e-05)
(0.00122436 -0.00260916 -1.06862e-05)
(0.00108621 -0.00242881 -9.48059e-06)
(0.000949301 -0.00224569 -8.2858e-06)
(0.000815019 -0.00205951 -7.11394e-06)
(0.000684791 -0.00186987 -5.97745e-06)
(0.00056008 -0.00167625 -4.88906e-06)
(0.000442422 -0.001478 -3.86221e-06)
(0.000333467 -0.00127436 -2.91128e-06)
(0.000235181 -0.00106451 -2.05344e-06)
(0.000149658 -0.000847352 -1.30695e-06)
(7.98651e-05 -0.000621372 -6.97674e-07)
(2.84618e-05 -0.000384072 -2.49052e-07)
(1.03647e-06 -0.000131806 -1.34301e-08)
(0.00261297 -0.0045455 -2.28019e-05)
(0.00257536 -0.00444741 -2.24739e-05)
(0.00252289 -0.00433468 -2.20163e-05)
(0.00245621 -0.00420915 -2.14346e-05)
(0.00237612 -0.00407259 -2.0736e-05)
(0.00228363 -0.0039267 -1.99291e-05)
(0.00217988 -0.00377303 -1.90239e-05)