/*--------------------------------*- C++ -*----------------------------------*\
| =========                 |                                                 |
| \\      /  F ield         | OpenFOAM: The Open Source CFD Toolbox           |
|  \\    /   O peration     | Version:  v2006                                 |
|   \\  /    A nd           | Website:  www.openfoam.com                      |
|    \\/     M anipulation  |                                                 |
\*---------------------------------------------------------------------------*/
FoamFile
{
    version     2.0;
    format      ascii;
    class       volScalarField;
    location    "0.01";
    object      p_rgh;
}
// * * * * * * * * * * * * * * * * * * * * * * * * * * * * * * * * * * * * * //

dimensions      [1 -1 -2 0 0 0 0];


internalField   nonuniform List<scalar> 
3596
(
105935
105908
105913
103929
103904
103895
104849
103687
106204
103648
110319
103701
109418
98037
103663
104865
116148
99226.5
105206
103557
103910
106516
103612
104073
104372
108797
107049
108718
109597
108598
104930
95539.7
108845
104960
107047
106897
107020
107048
105939
105375
105704
106204
103729
106071
103719
104759
103725
103717
103733
103969
103978
105724
103978
104001
103649
103699
103628
103403
103677
103665
106021
101568
103171
102801
102759
104237
103758
103877
103440
103654
103696
103505
103488
96230.7
125177
104658
99124.8
105324
103999
110002
103791
103628
103735
103643
103701
103263
103589
104282
104058
106174
101188
103284
104765
103633
105692
105192
103770
104852
104278
105409
103828
103699
103940
103340
103747
104890
106722
104898
103637
106825
106701
106647
106759
105352
105712
105596
104857
104895
104309
103712
103708
99121.5
103939
104441
103723
104471
103706
103670
103800
103663
103666
103708
103695
103639
94452.7
100869
90791.1
90726.6
106328
104551
104075
103736
103609
109333
107487
110515
125321
109007
107075
106225
105392
105316
105389
105968
104659
108859
106935
108707
105194
106934
105815
106031
105873
104514
104087
104936
104789
104828
104423
104444
104980
104694
103869
103747
103629
103580
103650
103640
103272
103740
104438
103839
104453
103594
104148
103637
105296
103699
105206
107906
96537.3
95668.2
109964
103566
103617
103161
104997
100668
99347.7
132745
103132
102848
103632
105142
102823
107161
106298
104282
108184
108404
106819
103667
108999
103726
105755
104313
106857
107039
104838
105858
105897
105953
105902
104465
104462
104595
103849
103713
106255
106278
108914
106177
103778
106372
106358
106420
106494
106410
106375
104204
104175
104237
103393
104213
104209
106372
103645
103640
103721
104742
103644
107971
106086
105831
103726
103731
106829
103729
106692
103727
103730
105380
106365
104089
104068
103713
106199
100209
103586
102620
102620
102894
107223
103604
103889
108650
103113
106887
105856
105816
106437
104517
103692
103861
106349
103788
103967
103664
103699
103680
106071
106239
103641
103642
103677
106576
103639
103642
107340
103798
104549
107793
106562
110519
107036
103702
103812
105611
107108
103926
106831
103669
106367
107010
103779
104917
103775
101934
103785
103787
103675
103671
103646
105033
102437
105259
105700
103167
107560
105748
106040
104409
107160
103756
104075
106735
106225
104090
105791
104078
103761
103747
104704
103683
103675
103348
102956
104633
100404
99119.6
104061
106305
103656
103585
103577
103578
106820
103803
104031
103880
104661
106950
103789
107819
103666
107096
107087
104486
106975
103774
104078
103706
103707
103638
105009
103640
103639
103640
103640
103163
106163
107346
105922
104568
102652
103329
103629
103472
105076
105028
103667
103688
103632
103591
105103
103588
103580
105066
103643
104617
106880
103705
103645
102535
103813
103796
103234
105082
103955
103390
103442
103075
104139
105824
106156
103730
103723
103719
103700
103738
106737
106786
106668
106563
103599
103607
105775
105836
106857
105691
105879
105803
103884
107542
106858
105652
107455
107644
104772
107564
107469
103474
107485
103874
103755
106613
106099
106329
106154
103950
104253
87798.4
103376
103307
103445
103278
103383
104968
104038
104491
107012
103633
103654
103625
103668
105260
106304
105140
105827
103858
105501
103952
103851
104509
106401
103957
103986
104065
105682
104014
105351
105939
106466
103084
103781
106392
104031
125915
103560
106990
106986
103830
105164
91102.2
103863
104435
105523
106939
106961
106963
108571
105905
104459
106741
104058
105870
106321
106537
106821
106778
106742
103635
104227
103978
104034
103578
103698
103645
103644
103646
103667
103645
103603
103587
103671
103450
103776
97545.1
110353
103768
96555.9
108633
103806
103816
123088
90181.3
107065
107123
104184
110039
106450
103456
103454
103398
105147
103662
105683
98496.1
103647
103711
103113
107518
103806
104319
106236
104031
104992
106118
105212
105749
103779
103773
103789
103780
103948
105495
103334
103751
106889
100826
104506
106931
98162.3
100776
99073.8
106632
103860
103855
106747
103849
106590
105307
104937
105181
103861
103839
106719
103834
104022
103829
104331
103741
105813
103992
103977
99771.7
99700.9
103394
103484
103809
103803
121799
104967
103485
104062
107298
106437
103909
99097.7
106079
106050
105979
103868
104165
104129
103974
103997
104012
104236
104200
104246
104214
103223
104308
104220
105996
105148
103707
103757
103722
103754
104139
104120
104006
104037
104067
104039
103778
103665
103684
103677
105091
103679
103658
103663
103847
103646
104030
104066
104012
103641
103626
103880
105167
86148.8
103540
103403
103452
107286
105806
106300
103647
103557
103699
103614
98261.6
106773
107036
104505
106596
105321
109520
106730
106436
106565
103602
103856
103825
103630
103610
103601
106997
106937
106793
106309
106756
103888
106691
103669
103679
106526
87657
105944
106792
106780
106658
106555
106645
104969
105989
104438
125521
106623
104276
106557
103220
104284
104719
104219
101381
103643
103683
103672
103658
106398
103655
103669
106203
104519
102770
103510
101154
103753
102301
104504
104831
103746
107104
107077
107123
103323
106998
105912
106603
107669
107052
104722
106120
103865
106372
106390
103552
103742
103693
103774
106610
103504
106403
103638
106451
106487
106541
106770
106034
106208
106157
107320
102444
106706
102906
107025
103676
106678
103586
104258
103439
103394
104129
103850
103427
103624
103365
107045
106796
107143
103618
103638
107071
107151
103640
103601
106979
106974
103610
107014
106087
106108
103607
103611
106678
104828
105086
103614
105848
83686.1
106903
103690
106415
105036
104926
103657
104959
106764
103621
104758
106703
103584
105064
103598
106734
103519
98367.8
104600
103685
105451
107959
105279
104039
103795
103762
103482
103553
103642
103642
106847
106894
106904
104162
104497
104628
104240
104638
104640
103680
103678
104221
104299
103872
103847
103773
104185
103851
103979
104869
107150
124249
103854
103884
107290
104875
104912
106071
104844
106033
104915
105433
105794
106404
103900
103890
103636
103778
104381
103698
107169
103616
107661
106092
105719
105586
105605
105579
105610
103896
103829
103841
103844
103856
107673
106588
107057
103334
106848
101162
104946
103155
107904
103784
107913
103614
103814
97949.1
103749
108021
106354
106389
106419
106430
104132
104216
104204
104198
104279
103645
103650
103647
103650
105714
105554
105493
105784
105476
103646
105080
106288
103404
103669
103660
103945
103806
103890
103737
104519
131043
105524
103682
110856
106378
103688
119130
106584
105567
104038
108468
104153
95464.5
107436
109270
110717
109698
103529
103542
106139
104395
105458
105187
106548
104444
105247
104415
104459
105079
104678
106261
103673
103628
103700
103679
103765
103644
106542
105673
107060
107053
103634
106963
105996
106191
103617
106263
104793
104948
104649
104789
104986
104895
104020
105521
103921
104015
103966
103869
103687
103667
103693
103689
105111
103617
104628
103919
105623
104686
104803
104737
105588
104832
105430
104803
105519
105456
106763
105902
105990
105130
105013
103741
104900
107010
103742
105634
103686
104815
105419
105619
103655
103804
103708
103678
103654
103643
103670
103663
103647
101995
103030
103649
105214
93437.4
103654
108155
106612
107610
106338
103655
103648
103649
107592
108661
103560
103577
103587
103526
103536
103539
106867
106957
102983
102907
105769
105370
103043
105706
103168
103660
103693
107026
106983
107015
106988
106040
106064
106470
106403
104750
104689
104691
104566
106178
103827
106015
106316
103694
106290
103626
105522
103869
104909
103415
103651
107013
106404
103737
103760
105038
105271
106949
106477
105333
105064
105241
105946
105098
105039
104570
104256
104204
103639
103652
103759
103755
103756
103753
103737
103739
103648
103647
95361.4
101363
103651
103630
103657
103870
103619
103627
104775
103605
105603
124534
106001
105292
106939
101569
103626
105576
107037
103622
106817
104430
106044
106876
106964
106622
105659
105655
105529
106888
103616
105406
103606
103896
103780
103683
103784
103648
103611
103707
103710
103725
103614
103500
103409
108252
108094
106510
107069
106105
106140
104173
104264
104071
104422
104173
106887
104035
104776
103832
106466
106740
105316
105472
106545
103923
106935
107052
105496
104579
103793
105053
106948
103643
103279
106992
103638
103649
103631
103688
106776
105640
107227
106692
103657
103660
103623
101744
101163
106267
105797
106022
106367
104124
105446
104578
103714
103715
103521
103639
102334
106583
103156
102401
103346
104161
95334.1
104104
103155
102932
102936
103027
106494
104464
103629
107159
107355
103524
106850
103575
105581
106786
103574
103552
103578
103582
103712
103720
103689
103693
105647
106197
106572
106278
103672
104609
103987
104622
103691
107127
103680
103682
105854
106344
103594
103610
100977
109317
106241
104542
104717
107026
103760
106998
106960
100011
103868
106972
106967
103603
103626
103620
103619
103601
105738
105607
103724
103742
103782
103644
103655
102982
103770
103767
103771
103748
125397
103676
105927
104485
102884
103708
104031
102081
104038
104156
103676
104273
107113
107092
103686
103677
106712
106520
103985
103911
104384
103833
100353
106808
106432
106192
106510
106286
104525
104688
103763
103778
103669
104925
105517
103669
103628
104489
105571
106485
106513
106543
107009
106491
105951
105530
106453
106101
105997
106471
104046
104292
104978
103936
105551
103732
103642
103654
103652
103646
105610
98951.7
107647
103589
104117
109072
106681
103539
101795
104200
104281
107172
106443
107051
106263
105616
104437
104084
103704
103702
104108
104043
103864
97540.7
103764
103847
107033
104995
105007
103083
105009
103718
103698
103704
103602
103615
103616
103598
101625
104030
102159
103643
104876
104571
104740
104728
103245
104481
104501
104650
104852
104865
103911
104548
103840
106553
106526
105977
105268
105317
105341
104114
104107
104094
104158
103782
103504
103700
103742
103747
103745
103751
103646
108653
107163
107490
103650
103655
103646
103646
103479
103330
100730
94802.2
103643
106927
103645
106497
103644
104526
106492
106463
104289
103700
103620
103630
103645
103580
107466
105239
107243
104194
104139
104291
103647
103644
103643
105313
106090
106606
104151
104273
105175
103715
103623
103692
113379
107060
106830
106673
104847
107026
129149
104082
104903
95348.8
100741
106786
106589
106811
104476
105356
104613
104600
105721
95872.3
104272
101095
106908
103623
107071
106251
104661
105679
105702
104393
103843
104522
103951
103673
103680
103675
107015
107112
106480
104434
106015
106048
105978
103830
104229
103911
106129
103931
103930
103922
103601
107095
107041
103985
103748
103573
103663
106676
105373
106113
103671
103668
106169
105355
124959
103814
103747
119926
91905
104332
104483
105912
101981
99236.5
93391.9
106803
107023
106400
106329
106274
106328
106307
105204
104756
105144
105326
105175
104059
104040
103717
103704
103642
103636
103644
103645
106572
106572
106541
104191
104150
104300
99211.2
104208
103650
103656
103727
104182
107289
106123
106212
107506
107101
105080
102509
100711
103821
106251
105895
102450
105916
104360
107235
105647
104575
105134
107109
107372
107464
109337
106259
107190
106913
106628
106218
104974
105030
104131
103681
104006
103748
103648
105672
105673
105556
105562
105529
105508
103377
103802
103600
103784
103502
101247
103838
108399
106836
103662
106826
103665
103656
107910
106259
106736
104429
103655
103869
100873
99106
104339
101453
101659
103573
104266
103980
104339
103035
104560
106490
104063
106381
105283
105187
103688
105127
103653
103500
104042
106086
103696
103728
103669
103637
103632
108708
108562
106135
107018
108156
108539
106888
106103
103162
106369
103650
103943
103649
105005
103652
103644
104144
103649
103824
108134
108421
106148
107253
106193
106757
106593
107931
106498
106152
107151
108183
105402
105375
105077
105307
104069
104057
105332
105232
90133.2
103687
105272
104370
103569
103593
103620
104413
104980
119370
94810.5
104642
103815
101628
103624
103243
103039
105813
103672
103574
103670
103673
103344
103655
103923
103933
103904
103894
103765
106631
103715
103758
106822
102643
103786
107199
103804
107543
103647
105233
106354
103676
103786
104163
104666
103911
103715
103643
106367
103712
103641
106676
103613
104937
105061
105006
103716
103617
103669
103909
103870
103234
103630
103593
103634
107099
103612
103676
103622
103710
103747
102675
105862
105467
103339
106759
103541
106812
106770
106873
103851
103853
103780
109724
108169
103163
107020
107059
106873
106975
104293
103538
107073
103624
103603
103618
107117
106715
106171
106982
106888
106636
103913
106164
103889
103971
103968
103835
103682
103654
103658
103674
103377
103235
103419
103311
103397
103389
106729
103196
104821
103257
104762
105018
106993
107143
106004
104652
106061
103668
107331
105669
103698
103989
104009
103930
103885
107311
102617
106947
103987
103712
106985
103697
106877
104026
103674
104014
104135
103639
105833
105861
105065
101238
103922
105114
104793
103031
103833
103495
103332
103703
103638
103661
103639
106696
106583
104331
104163
104316
104348
103647
103661
104146
103663
103651
103652
103996
103655
103953
103812
106970
105841
103732
103747
103752
102982
100688
103735
107352
104993
103743
103804
106912
107102
106717
104640
104617
106602
105961
106122
106604
106715
106657
104205
104030
104050
103966
103945
107018
103764
104696
103660
103701
103642
103553
103692
103489
103632
103613
103655
103645
103623
103598
103553
102551
102557
96021.1
103539
103523
103481
103510
98190.9
107842
105233
105032
106294
105022
105079
105132
103983
104076
104020
104141
104096
103640
103667
103527
103647
107050
103644
106796
106933
107169
106930
107065
106697
106786
103554
105433
105227
105294
103670
103754
103946
103852
103764
102829
103791
103700
135381
103779
103718
103727
106591
106034
106198
108899
106965
106936
106932
106946
103697
103654
105123
104947
104646
103664
103674
102497
102745
107341
102715
103463
102630
101681
103605
98280.5
103116
106653
105461
106293
102914
103031
103683
101781
104646
104022
104294
104113
103756
103664
103636
104090
103741
102098
101767
107538
108238
108070
103565
103824
104411
104554
103636
107979
104657
104852
104394
106865
107854
104647
103160
103568
103618
103593
103889
103736
106586
106014
106046
105947
105137
103705
104360
104019
104325
104093
104051
104359
103873
103954
103705
103634
103637
103586
103886
103775
103814
106345
104549
106962
106333
107587
106515
106305
106836
107602
109425
107701
103625
103624
103617
107089
106821
106005
106618
104503
104336
101354
103679
105476
105519
105523
105515
105822
105377
105634
103542
106990
96021.8
107143
93873.9
105039
103845
103612
102294
104473
104763
105051
105005
106482
106453
106938
106459
106382
106423
106991
105223
103688
103689
103515
103683
103673
103449
103718
103730
103703
103636
95952.9
103667
87617.7
103808
107127
106832
106620
106278
106985
106656
104564
104563
105948
104301
103648
103732
103702
103592
106325
107024
103681
103666
103675
103726
103733
103637
103625
103745
104099
104585
103694
103644
103497
106755
106334
103633
106862
106897
103641
103636
103640
106992
106977
107005
107082
107043
105268
106234
103633
103622
103582
107056
103398
103521
104971
103462
103400
104816
104470
104847
107099
106676
105959
106730
106753
102823
106080
107021
104692
104665
103736
103661
103690
106961
103662
105035
104691
104744
103525
104720
104720
103693
103551
103507
104779
103592
103601
123308
101990
103592
100907
101186
100315
104788
105377
104754
105518
103688
105593
105151
105447
105489
105362
103718
106893
103686
103692
103662
103656
103688
103660
104714
104793
106451
106247
106479
106295
104255
103503
103925
103641
103541
103650
103663
95015.1
103639
103662
122047
105441
104596
101353
103592
103536
103565
103508
103530
105641
104832
104857
104913
104816
103869
103624
103616
103978
103991
103638
103636
106851
106925
106877
104752
103656
103656
103703
103456
103904
103663
100163
103385
103761
104082
103737
103585
103888
104907
104962
103501
103670
105908
106297
105981
103685
103733
104083
103754
104855
105633
103875
103673
103685
105547
103691
103791
103827
103822
103432
103859
103416
103731
103827
106051
105993
104559
106234
103989
104064
104082
106905
103642
104275
103934
103969
103930
103587
103641
104305
104355
103716
121216
105335
105322
106927
106896
106523
103272
103725
103710
103261
103553
103485
103693
103721
103776
103842
103858
103815
103797
101906
101491
103711
103717
105547
102405
105129
102181
103514
103488
104335
106309
103828
104231
104118
104926
108955
104933
105034
104986
104600
103758
103752
103762
103771
107731
103772
103780
103962
103203
104969
105009
104535
103236
103753
107086
107108
106159
104085
106188
106901
106951
105833
105428
105077
105146
104903
95990
104167
104656
102511
102166
103640
106869
97637.6
105665
102077
103815
102563
116351
104392
104963
107045
103631
95837.3
103361
103664
93398.1
106875
103498
101574
103484
101665
107122
103524
103381
103513
103510
103505
100339
106809
103451
103491
103946
103645
103473
106665
106705
105480
105425
105495
105529
104341
106668
106755
106724
105519
103659
104634
104963
103651
105017
102312
95978
104540
106501
106513
106805
107144
103589
103633
106404
105885
105304
103743
103751
103768
103743
103805
103760
106516
100620
101665
103644
106398
106523
106845
106811
106014
105151
104516
107017
105059
104470
104926
105072
103835
104904
103945
103992
103893
103921
103725
106881
103280
105747
105823
105748
98027.3
103629
103631
103670
103161
106908
103678
103671
103626
105720
103595
103586
105774
105834
103901
103433
103976
117619
106607
98200.6
106145
101899
104511
105694
104119
104594
103836
103922
103802
103651
106952
107081
103643
104483
104426
104438
107099
107074
103517
103549
103542
103308
103653
103574
103142
103313
105450
104762
104913
105609
108995
107388
107251
104050
107232
106368
103978
103497
105487
106894
103623
103904
103623
103659
103944
103605
103598
103912
131216
103713
105377
105223
105776
107934
105632
103560
105761
106963
106542
103556
104459
104365
103680
103786
103990
103904
103574
104000
103801
104213
103421
106078
104138
103656
103750
103600
103646
103681
103662
103638
103669
103986
103867
103900
105187
105214
105251
105960
104141
106120
103754
103647
103645
103643
103688
103679
103648
103684
107087
107160
106445
103672
107103
107126
107737
107151
103636
103616
103679
103619
103867
107556
106300
103680
106759
106779
104617
104619
103425
103610
105291
104228
104144
104097
103608
106634
103645
103559
103662
103644
106544
106505
106496
103812
103800
103703
103719
103759
103756
103830
103828
103649
103646
104067
104087
104104
103660
107293
107193
103226
103328
103641
103642
103705
103659
103628
103375
103597
103662
103625
98737
98470.8
103654
106907
103649
103623
103589
103603
106934
106887
102967
103058
103321
104148
106526
94863.4
128363
106588
106658
106616
106679
104274
104337
104258
103911
106233
107108
106073
106319
103619
103623
103613
103610
103229
103888
106039
103713
106182
106928
103249
103166
102937
106902
104391
104055
103869
104080
103835
106146
103928
105985
104441
103572
104992
104980
104591
103701
104562
106092
105772
105639
105690
104363
104272
104495
106538
121015
106402
106357
105201
104539
104441
104525
104393
104009
103857
103816
103766
103761
103638
103666
103640
103661
103656
106576
106463
103532
106430
105704
106909
106380
110417
106552
106443
103622
116624
126577
103624
103620
103605
103611
103625
102560
103564
106131
106145
104736
104521
104870
103922
103565
103709
104565
103336
103335
103074
103258
103749
102894
103543
99709.9
106496
99744.9
105388
100369
104293
99682.2
104353
100318
103547
103554
103769
103655
103659
103760
103965
103766
106796
106072
106097
106432
104899
104716
103643
106764
106773
103621
105641
105703
105752
105738
104392
103721
103764
103680
103673
103825
103822
103676
103783
106009
103802
109698
103813
103810
103639
103451
103259
103241
85628.4
104438
105152
130452
106047
109145
103650
104594
105355
104885
105425
105361
104071
104010
106820
106865
106839
103799
103902
103652
106821
105789
105555
105598
105861
104334
103801
103632
103816
103673
103670
103659
103683
106616
106665
103623
106603
106633
103761
104366
106297
102760
104338
104364
103628
104863
105268
105299
104397
104385
103648
103638
103639
103663
103661
103656
103660
103446
104535
104772
103339
104923
103314
103226
103490
103361
103816
106463
106859
103691
103701
103727
103644
106652
106594
103637
103731
104069
108622
109027
108879
109276
103683
103651
103639
103653
103677
101667
106834
106344
106390
105093
105039
103658
104181
104159
104150
103866
105225
103739
103738
103647
103645
105421
105309
105173
105452
106334
103640
106183
103767
103641
103633
103702
128406
103634
104314
105265
106549
112871
85802.9
101619
91885.2
104140
103412
88722.8
103471
105302
109780
91923.1
99792.1
103159
103208
103240
125583
106671
96624.6
108018
107992
107129
106413
106620
106663
105123
104134
106786
103706
103652
103655
106840
106815
106728
105673
105634
104364
104472
103552
103796
103545
103827
102503
103808
103084
102635
102281
103670
109233
107835
106584
106728
106375
106451
104407
105803
103802
104177
104214
103833
103690
103983
104430
104261
104265
104279
103774
102806
103671
101254
102507
102392
103648
103651
103650
103650
104100
103651
98264.2
107049
108711
106672
106762
106612
105664
104512
104717
103861
105452
104204
104228
104177
103710
103565
103830
103645
103648
103648
103648
103639
103637
103475
103738
103633
103646
103741
105744
105272
102230
106901
105578
107076
102592
102400
104130
104076
103790
104130
106265
106120
103638
106136
103655
106208
103599
103643
106244
103323
103307
102765
106174
106187
104011
107617
108236
104038
104024
103602
106201
105506
105800
103691
103474
106801
106854
105544
105489
105691
105582
94344.8
93129.5
104479
103794
105385
103785
103767
103777
103775
108945
109265
108483
106645
109371
105781
103814
98847
108254
106916
106924
104292
105750
104857
105029
103697
103414
104819
103558
103702
103725
103533
102763
102869
107126
107435
103644
82983
103564
107056
107019
107037
105957
105894
106951
106925
106870
105897
106307
106033
105693
105990
106058
105342
105259
104245
103755
105417
103862
103810
103942
103773
104735
103782
104760
103654
103656
95217.8
104733
103944
103962
102922
107811
103935
103900
110671
103628
103617
123496
118116
106108
93036.1
106768
106744
106700
106810
104487
104301
105780
108882
103666
103669
103652
103693
103583
103565
103608
106193
103595
102536
107647
106712
108044
108683
107796
107993
103827
103860
103763
103801
103800
103864
103689
103669
103695
105591
105595
103494
104711
103734
103727
103577
107104
103593
103600
105248
105266
103766
103720
103709
103700
103745
103484
106221
106673
107123
104469
106032
103637
103635
103430
103690
103589
105715
105157
104198
106637
106096
103409
103390
103504
103655
103836
104702
103628
104729
103639
103678
103652
103649
103657
106015
106618
106849
103710
103726
103712
106238
105999
105952
106467
106765
104178
104189
106989
106909
106943
105235
105901
105152
105177
103612
103521
104114
103684
103594
104167
103882
106176
103734
103740
107134
103739
106119
105953
103634
120854
126931
103621
103641
103627
104205
103640
121360
104268
102014
103886
103779
103740
103805
104166
105696
105584
105178
104221
103698
103657
103556
103708
103659
103673
103623
103635
103671
103653
103649
103682
103728
103622
103625
103661
103514
103619
103555
103639
103584
106773
107031
103575
104810
105109
105109
106994
106985
107031
105142
103718
103728
104986
107909
101706
106135
104539
104262
105930
105952
108545
105987
106399
104704
103631
103683
106220
103702
103626
103640
104045
104344
103642
103995
104649
104794
106156
103996
104256
103692
104122
103682
103617
105873
105479
103521
103795
106802
103798
103823
106725
104519
103803
104466
104501
105064
103666
103659
105022
104984
103233
103614
102463
108169
108022
108546
106410
103534
105130
105175
103609
103830
103736
103973
103993
103723
103707
106914
103718
103573
103711
103645
104687
104720
104598
103639
103687
103666
103687
103681
108701
103658
108737
108183
109187
103640
106733
105370
105230
106644
105251
106708
105302
105782
105794
105452
103841
103806
104380
103647
104120
104362
94789.1
104362
103616
103800
103721
97015.9
102211
108691
107242
102648
102816
106935
109069
108240
107147
105417
105448
105372
105413
104348
106654
107449
103655
106582
106635
106606
103653
103659
105749
103625
103642
105954
105920
105838
105860
104620
104622
104587
104583
103892
103897
106191
106368
106435
106310
106267
103905
106791
106788
103910
106672
103920
103874
106486
106515
103820
104872
103663
103636
103641
103982
103979
103718
103725
103634
103632
103638
103630
103636
103636
106658
101270
120299
106212
106246
105473
105981
100064
103309
101358
102487
102915
103631
103633
103633
103628
120734
105502
105739
105419
106437
106633
106562
106243
104823
103820
101608
102211
102138
103650
106880
107423
108815
107243
103539
103580
103035
103711
103734
105594
105836
105851
105647
105749
105584
100995
104130
105185
107308
103700
103665
103659
103668
104239
104308
104206
104341
104146
103971
103584
103581
103646
104469
103914
102334
90386.7
105286
104750
93108.3
103476
113657
107475
107369
107057
107284
106249
103691
103679
)
;

boundaryField
{
    Inlet
    {
        type            prghTotalPressure;
        p0              nonuniform List<scalar> 0();
        value           nonuniform List<scalar> 0();
    }
    Outlet
    {
        type            fixedValue;
        value           nonuniform List<scalar> 0();
    }
    Symmetric
    {
        type            symmetry;
    }
    Wall
    {
        type            fixedFluxPressure;
        gradient        uniform 0;
        value           nonuniform List<scalar> 
213
(
107014
106845
106672
106491
106300
106097
105885
105659
105433
105201
104971
104758
104560
104384
104228
104097
103992
103904
103833
103781
103741
103710
103688
103666
103652
103643
103638
107021
106850
106678
106496
106297
106099
105870
105641
105425
105206
104978
104756
104559
104372
104219
104089
103996
103910
103852
103799
103758
103725
103685
103680
103664
103654
103648
106897
106931
106888
106725
106759
106715
106545
106583
106538
106357
106398
106349
106156
106199
106145
105944
105993
105930
105720
105774
105700
105495
105547
105480
105268
105317
105259
105035
105086
105029
104819
104863
104810
104619
104659
104609
104438
104469
104426
104279
104305
104266
104139
104158
104129
104031
104040
104012
103939
103945
103922
103866
103867
103849
103809
103805
103795
103764
103760
103754
103731
103724
103718
103705
103698
103701
103683
103676
103669
103666
103658
103656
103655
103647
103646
103648
103640
103640
103636
106974
106802
106937
106628
106765
106445
106588
106247
106402
106044
106197
105815
105987
105586
105755
105373
105529
105144
105321
104917
105091
104704
104870
104509
104649
104341
104466
104194
104293
104075
104150
103978
104046
103896
103952
103822
103875
103773
103824
103736
103778
103705
103741
103692
103704
103663
103682
103650
103671
103642
103659
103638
103650
106982
106811
106636
106453
106255
106051
105834
105607
105385
105151
104926
104716
104525
104355
104204
104083
103983
103900
103835
103785
103747
103717
103693
103673
103659
103650
103645
)
;
    }
    procBoundary3to1
    {
        type            processor;
        value           nonuniform List<scalar> 
32
(
107768
107075
107074
108389
108108
107185
107087
107086
107126
107145
107160
107064
107156
107130
107128
107176
126054
107061
107253
107212
107158
106936
107136
107357
107177
107493
107111
107851
107054
107178
107928
107436
)
;
    }
    procBoundary3to2
    {
        type            processor;
        value           nonuniform List<scalar> 
34
(
103640
103641
97104.4
103585
103607
103639
103580
98343.8
103540
103542
103646
103636
103635
103588
103629
102870
103639
103569
103638
103626
103620
103639
103494
103367
103620
103631
104243
103595
103611
103367
102911
103642
103463
103643
)
;
    }
}


// ************************************************************************* //
