/*--------------------------------*- C++ -*----------------------------------*\
| =========                 |                                                 |
| \\      /  F ield         | OpenFOAM: The Open Source CFD Toolbox           |
|  \\    /   O peration     | Version:  v2006                                 |
|   \\  /    A nd           | Website:  www.openfoam.com                      |
|    \\/     M anipulation  |                                                 |
\*---------------------------------------------------------------------------*/
FoamFile
{
    version     2.0;
    format      ascii;
    class       surfaceScalarField;
    location    "0.01";
    object      phi;
}
// * * * * * * * * * * * * * * * * * * * * * * * * * * * * * * * * * * * * * //

dimensions      [0 3 -1 0 0 0 0];
oriented        oriented;


internalField   nonuniform List<scalar> 
5881
(
-6.00325e-10
-3.99768e-08
4.05771e-08
7.54526e-10
-5.59694e-10
-3.71596e-08
3.69648e-08
4.03216e-08
-3.95671e-08
-3.54494e-09
-3.38754e-08
3.74204e-08
3.06195e-09
3.63489e-08
-3.94108e-08
3.20278e-08
3.7692e-09
-3.2735e-08
8.83073e-09
2.69123e-08
-3.57429e-08
2.73191e-09
-2.91769e-08
2.6445e-08
-3.3133e-08
3.74496e-08
-3.91785e-08
3.48618e-08
4.30008e-09
-9.68196e-09
8.60546e-09
-3.22357e-09
9.18995e-07
-9.15453e-07
-3.5415e-09
-3.78252e-08
1.93291e-09
3.58923e-08
-1.63102e-08
2.62865e-08
-9.97648e-09
-1.75802e-06
1.75802e-06
6.24828e-09
-6.29676e-09
4.8483e-11
2.57029e-08
-3.32265e-08
7.52377e-09
-1.75439e-06
-3.63287e-09
9.67389e-08
-3.78865e-08
-5.88519e-08
-3.63033e-08
1.33194e-08
2.29839e-08
1.83614e-08
1.29878e-08
-3.13492e-08
1.16595e-08
-1.16595e-08
1.01397e-08
-1.49156e-08
4.77588e-09
-1.40861e-09
-3.08808e-08
1.7766e-09
3.05129e-08
-1.02333e-09
-4.10651e-08
4.15151e-08
5.73441e-10
1.2416e-08
-1.2416e-08
1.59239e-08
2.4877e-08
-4.0801e-08
-1.58143e-09
3.08752e-08
-2.92937e-08
1.2559e-08
-1.20206e-08
1.53853e-08
-8.84157e-07
8.96716e-07
-3.06366e-09
3.46109e-08
-6.67097e-09
4.44683e-08
2.18243e-11
-4.44901e-08
9.25475e-08
-1.26181e-08
-7.99292e-08
-1.50843e-08
6.09851e-10
9.59293e-11
-3.51921e-08
3.44864e-08
4.23788e-08
5.24067e-10
3.89449e-10
-1.09865e-08
1.05971e-08
3.97904e-08
2.58835e-09
3.84327e-08
-1.41433e-10
-4.95657e-08
5.07313e-08
-1.16559e-09
3.34286e-08
-3.75828e-08
4.15426e-09
-1.82994e-09
2.88807e-08
-2.70507e-08
3.96701e-08
-8.94036e-09
8.41709e-09
-3.91469e-08
8.1982e-09
-5.99761e-09
3.01603e-08
-3.23609e-08
-2.45995e-10
-8.43641e-10
-4.85644e-08
4.9654e-08
-3.74016e-08
3.36123e-08
3.49383e-08
-3.1149e-08
4.66066e-08
-4.67114e-08
1.04877e-10
7.22447e-09
-7.22446e-09
2.29975e-08
-2.29774e-08
-2.01361e-11
-3.07997e-08
3.89979e-08
-5.97495e-10
-3.40332e-08
3.53691e-08
-7.3839e-10
-4.58521e-08
4.89829e-08
4.5438e-08
-4.85688e-08
3.30143e-08
-1.13396e-09
6.01829e-10
-3.24822e-08
1.14037e-08
-1.20012e-08
4.86928e-08
4.77413e-08
-5.25845e-08
-4.38495e-08
-7.35745e-09
-6.47416e-09
7.61798e-09
6.21365e-09
-3.53341e-08
1.41691e-08
2.11651e-08
1.34713e-08
-9.76222e-09
-3.70904e-09
2.38618e-08
-3.94232e-08
3.65433e-08
-2.09817e-08
1.48999e-10
-2.1439e-08
2.17475e-08
-4.57578e-10
-7.96737e-09
-2.20374e-08
3.00048e-08
3.89927e-08
4.60542e-09
-3.60502e-09
-3.99931e-08
-9.58831e-09
-2.08551e-08
3.04434e-08
-2.33248e-08
5.67727e-08
-3.34479e-08
-1.67867e-09
-4.85889e-08
1.33883e-08
3.68798e-08
5.86376e-08
-8.42187e-08
2.55815e-08
3.3526e-08
-3.27908e-08
-9.27028e-09
8.53523e-09
6.96187e-09
-6.96186e-09
1.87723e-09
2.56226e-08
-2.74998e-08
-1.66454e-08
3.65111e-08
-3.81967e-08
1.83311e-08
-1.06698e-10
1.76159e-08
1.75367e-09
-1.92629e-08
-2.33463e-08
9.35616e-09
1.39902e-08
1.96018e-08
-3.53938e-08
1.57921e-08
1.71788e-08
1.7364e-08
-3.45428e-08
1.95966e-06
-1.95966e-06
-7.13197e-09
2.01209e-06
-2.00495e-06
-3.31058e-08
-4.30357e-07
4.56329e-07
1.05093e-06
-1.08404e-06
4.43927e-07
-4.35987e-07
-7.9395e-09
-2.31451e-08
-1.42624e-08
3.74076e-08
-6.1101e-09
-1.79917e-06
1.80528e-06
5.7043e-10
4.14326e-08
-4.2003e-08
1.91388e-08
-1.19033e-08
-7.2355e-09
2.36598e-08
3.45907e-08
-2.8381e-08
-2.98695e-08
3.73342e-11
5.03766e-09
-5.07499e-09
-1.8386e-08
4.15236e-09
-2.98956e-09
1.72232e-08
-3.10187e-08
3.91571e-08
-8.13835e-09
1.32134e-08
-2.72925e-08
1.40791e-08
-1.60922e-08
-1.12214e-08
2.73138e-08
-3.41067e-08
3.17122e-08
-1.36976e-08
3.92955e-08
3.74582e-10
3.87933e-07
3.87079e-09
-3.91803e-07
-3.27972e-08
3.19059e-08
8.91299e-10
8.24196e-09
3.83459e-08
-4.65877e-08
1.87668e-08
-3.27e-09
-1.54968e-08
1.16862e-10
3.37107e-08
-8.13222e-10
9.58628e-10
-3.40158e-08
3.30572e-08
-4.19785e-08
3.86129e-08
3.36563e-09
-1.12679e-10
1.41934e-09
3.3607e-08
-3.49136e-08
-3.80257e-08
4.06248e-10
2.09591e-12
3.76174e-08
-1.14425e-08
-6.41155e-10
1.20836e-08
-3.1006e-08
3.81528e-08
-7.14671e-09
3.65848e-08
-2.18038e-09
-3.44044e-08
1.1476e-08
-1.83537e-10
-1.12925e-08
-2.18702e-08
-4.16301e-08
2.74476e-08
3.60528e-08
-1.82953e-08
-7.80521e-09
2.61005e-08
-5.079e-10
9.10693e-11
-5.16764e-08
5.20933e-08
3.06544e-08
4.0799e-11
-3.05989e-08
-9.63269e-11
4.04175e-08
-4.0429e-08
1.15885e-11
6.26402e-09
-8.01858e-09
1.75457e-09
2.85845e-09
2.88628e-08
-3.17213e-08
-2.24349e-10
1.08508e-08
-1.06264e-08
-4.47594e-08
4.49722e-08
-8.64338e-10
6.51431e-10
-3.79886e-08
9.74004e-10
3.70146e-08
-1.71909e-09
5.68853e-10
-4.83142e-08
4.94645e-08
4.62786e-08
-4.74125e-08
6.88336e-10
4.47479e-08
-4.54362e-08
4.8463e-08
-8.04545e-09
4.39604e-08
-5.19354e-09
4.47168e-08
7.241e-09
-4.67642e-08
3.89692e-08
3.11747e-08
-3.46445e-08
-3.54994e-08
3.76165e-08
1.35276e-09
5.31967e-07
-5.0967e-07
-2.22971e-08
-1.14616e-10
1.15907e-08
-1.41476e-09
4.69729e-08
-4.55581e-08
-2.12197e-08
1.59177e-08
5.30202e-09
-4.00187e-08
5.16991e-08
-1.16804e-08
-2.94712e-08
3.37912e-08
3.32966e-08
8.71326e-11
6.16116e-09
2.32493e-08
-2.3165e-08
-3.88702e-09
3.80273e-09
2.07583e-08
5.86042e-11
-2.07297e-08
-2.41764e-11
1.92817e-08
1.50077e-09
1.70344e-09
3.26445e-09
3.33204e-08
9.6985e-09
-6.0729e-09
4.32076e-09
1.59537e-08
5.23271e-07
-5.39224e-07
1.24006e-06
3.24159e-08
-1.27248e-06
2.65106e-09
-5.54659e-07
5.52008e-07
1.32783e-06
-1.32424e-06
-9.33058e-10
3.37603e-08
-3.2671e-08
-1.08933e-09
9.32009e-10
-3.66352e-08
3.57033e-08
-1.22848e-08
1.18132e-08
4.71693e-10
1.65832e-10
6.79604e-09
2.76048e-08
-9.9832e-09
-1.76216e-08
6.84991e-09
-3.63024e-07
3.56174e-07
-8.02425e-09
7.16734e-09
-4.51711e-10
1.30804e-09
-9.42358e-07
-1.06684e-08
9.36716e-07
-1.75461e-08
-1.65879e-06
1.67634e-06
-3.57247e-08
4.50223e-09
3.12225e-08
-4.71797e-08
7.60655e-08
-2.88851e-08
2.51408e-08
4.07049e-08
-3.9989e-08
-2.58572e-08
3.33826e-08
-3.69988e-08
2.38103e-08
1.31887e-08
-2.06001e-08
1.76793e-08
1.20432e-08
-8.1706e-10
-1.12262e-08
1.30849e-08
-1.30849e-08
1.08886e-06
-1.12241e-06
3.35426e-08
-2.0428e-09
8.88512e-09
-6.8425e-09
1.06337e-06
-2.16898e-08
-1.42238e-09
3.46203e-08
-3.31979e-08
-2.55468e-08
2.29821e-10
2.5317e-08
1.01981e-08
1.02614e-10
-1.03008e-08
1.20604e-09
-3.09691e-08
2.97631e-08
-2.17006e-09
3.30093e-08
-3.08392e-08
1.09322e-08
2.47328e-08
-3.56649e-08
-4.02543e-10
6.73333e-10
3.6779e-08
-3.70498e-08
-4.41679e-08
-3.53918e-08
4.09112e-08
3.86486e-08
-4.10956e-08
-8.43887e-11
4.118e-08
-4.58084e-08
-4.1447e-08
4.61599e-08
-3.84876e-08
-1.72591e-09
4.02136e-08
-3.70796e-08
-2.11422e-09
3.84637e-08
7.30167e-10
-4.4259e-08
9.11228e-11
4.94151e-08
-1.0677e-09
-4.9022e-08
6.74677e-10
4.62084e-09
2.36182e-08
-2.8239e-08
-2.18798e-08
-1.70014e-08
3.88812e-08
-1.19635e-08
7.48164e-09
4.48192e-09
3.64768e-08
-3.09314e-08
-5.54539e-09
4.7215e-09
-4.7215e-09
-3.34316e-09
2.69042e-09
6.52758e-10
1.49633e-08
1.956e-08
-3.45233e-08
7.10409e-09
2.02653e-08
-2.73693e-08
-1.3813e-08
4.40558e-10
1.33725e-08
-2.70747e-08
3.99497e-09
2.30798e-08
-9.69813e-10
-1.28432e-08
-2.51113e-08
-1.06021e-08
2.48287e-08
1.08847e-08
-1.26507e-08
1.30297e-08
-3.79042e-10
-1.08831e-08
-8.95895e-09
1.13134e-08
8.52871e-09
4.17062e-08
-4.35529e-08
1.84669e-09
-8.40982e-09
6.37138e-10
7.77269e-09
-1.28687e-08
1.28687e-08
1.68307e-08
-2.41956e-08
7.36472e-09
-3.55893e-08
6.75453e-09
5.60801e-07
-1.20566e-06
1.16783e-06
3.78317e-08
-8.95763e-07
9.03586e-07
-7.82356e-09
-3.10912e-08
-2.42931e-08
2.42321e-08
3.11522e-08
2.38591e-08
-8.30273e-09
-1.55564e-08
-4.95427e-08
-8.55966e-09
5.81024e-08
-5.66438e-09
3.73566e-07
-4.03281e-08
5.8276e-08
-1.79476e-08
-5.63848e-08
2.46745e-08
3.17104e-08
-1.96304e-08
1.97929e-06
-2.29025e-08
-2.88457e-08
5.17481e-08
3.91738e-08
-3.58843e-08
-3.28941e-09
2.57081e-08
1.83399e-09
-2.7542e-08
1.16862e-06
-1.11162e-06
-5.70027e-08
-4.73379e-07
4.53749e-07
-3.36733e-09
3.06105e-09
-8.71139e-09
9.01762e-09
-3.47696e-08
5.31688e-09
-4.61401e-08
-2.05184e-10
4.64186e-08
-7.32481e-11
-1.11711e-09
-9.91402e-09
-2.57554e-08
3.67868e-08
1.07685e-08
-1.18856e-08
3.28226e-08
4.12389e-09
-3.20013e-08
-4.94517e-09
2.84941e-08
-2.84355e-08
1.17829e-08
3.60239e-09
-9.08324e-09
3.012e-10
8.78205e-09
1.01981e-08
-9.97511e-09
-3.51125e-08
4.50877e-08
3.16976e-08
-2.4786e-09
-2.9219e-08
2.48926e-08
-2.50419e-08
1.49302e-10
-1.35679e-08
1.34552e-08
-4.29307e-08
6.64357e-09
3.62871e-08
-1.5752e-09
-4.35255e-08
3.06107e-08
-2.07132e-09
-2.85393e-08
2.90355e-08
3.24538e-08
-3.16513e-08
-8.02427e-10
-3.95014e-08
7.48587e-09
-6.47204e-09
-3.19534e-08
3.34817e-08
-1.52821e-09
1.03489e-08
-1.00062e-08
-3.42721e-10
2.23917e-08
3.27552e-09
-2.66964e-09
-1.20979e-08
1.1315e-08
7.8286e-10
-6.59732e-10
-1.14382e-08
-3.85787e-08
2.86867e-08
9.89193e-09
-1.1315e-08
-2.72836e-10
1.15878e-08
-2.54166e-08
2.86299e-08
-3.21328e-09
2.12427e-10
-9.22341e-10
4.53953e-08
-4.46854e-08
3.84339e-08
6.8403e-10
-3.91179e-08
-3.24086e-08
3.36792e-08
-1.27063e-09
-1.86541e-09
3.54237e-08
1.22465e-09
-3.4783e-08
2.97886e-08
-5.70976e-10
-2.92176e-08
2.80612e-09
3.29621e-08
-3.57682e-08
4.733e-08
-4.36514e-08
-3.67855e-09
1.08095e-08
3.65205e-08
4.97399e-08
4.66572e-09
-5.44056e-08
-8.6248e-09
-3.90791e-08
3.83345e-08
9.36958e-09
3.38416e-10
4.94457e-08
-4.41164e-11
4.58014e-08
-4.5463e-08
2.60807e-09
2.99866e-08
-1.48772e-09
4.78101e-09
-3.29327e-09
4.35358e-09
3.67918e-10
-1.87848e-08
-5.67423e-10
1.88916e-09
1.74631e-08
9.25897e-09
4.56559e-08
-5.49147e-08
-6.21434e-09
-2.16164e-09
8.37599e-09
7.71688e-09
1.7068e-09
-9.42377e-09
-6.03422e-10
-1.63332e-08
1.69365e-08
-1.12693e-08
1.0564e-08
-2.75744e-08
2.82797e-08
-1.5976e-08
-2.80881e-09
4.56071e-09
-2.05367e-08
-3.62845e-10
-2.53608e-08
2.57236e-08
-2.18209e-08
5.16199e-09
-1.24063e-09
3.16707e-08
-2.0851e-08
-2.85931e-08
2.35448e-08
2.58993e-08
-3.47649e-08
5.52561e-10
-3.45652e-12
3.42159e-08
-8.85156e-09
2.33966e-08
-1.45452e-08
1.23693e-08
-1.23693e-08
-5.39303e-08
5.51776e-08
-1.24732e-09
2.57372e-08
-1.19345e-09
-2.45437e-08
-9.83453e-07
3.15094e-08
9.51943e-07
-4.97991e-08
9.41338e-07
-8.91539e-07
-5.08911e-09
1.39274e-08
-3.88497e-08
3.37605e-08
-4.05285e-08
-3.17374e-09
1.35981e-08
-1.4448e-08
4.02327e-09
-5.62106e-09
-1.94903e-08
2.25228e-08
6.59647e-09
-2.91193e-08
-8.81418e-07
-1.67935e-08
2.8314e-08
1.45183e-08
-4.28321e-08
-2.12668e-08
-1.07843e-08
3.2051e-08
2.83918e-08
7.28732e-09
-1.52042e-09
2.99123e-08
3.87492e-08
-3.86942e-08
-5.50273e-11
-3.84146e-08
2.31313e-09
3.61016e-08
-1.56616e-08
-2.35036e-08
3.91653e-08
-2.67797e-09
3.31782e-09
3.01689e-08
-3.08087e-08
8.84748e-09
2.28208e-11
-8.8703e-09
2.60946e-08
1.10379e-08
-2.6672e-08
-1.04605e-08
2.84975e-08
7.96965e-09
-3.64671e-08
2.14475e-09
-1.17643e-08
9.61954e-09
6.89204e-09
7.81461e-09
-1.47066e-08
-5.74083e-09
-7.91225e-09
1.36531e-08
3.9152e-08
-3.9398e-08
-3.35736e-08
2.88507e-08
4.72292e-09
-3.97997e-09
-4.40532e-09
4.52081e-09
3.86449e-09
-5.46768e-09
1.73333e-08
6.94644e-09
-2.42797e-08
2.41993e-10
3.05555e-08
-3.11443e-08
3.46782e-10
-1.20951e-08
7.68977e-09
5.75453e-09
-3.16762e-09
-2.5869e-09
5.30706e-08
2.29944e-08
1.08738e-08
-1.85201e-08
-1.03677e-08
1.8014e-08
-2.22745e-09
4.24232e-08
-4.01957e-08
5.69679e-08
-2.81343e-08
-2.88332e-08
-2.43645e-08
-2.07472e-09
2.64392e-08
-1.04909e-06
1.02496e-06
2.41295e-08
7.2915e-08
3.71231e-08
-1.12379e-08
1.02391e-08
5.79746e-09
-4.79864e-09
-4.56563e-08
-1.36983e-08
4.10782e-08
1.82765e-08
4.25771e-08
-4.38889e-08
1.31182e-09
1.93613e-10
-4.29922e-10
9.94241e-09
-9.70608e-09
-3.74763e-08
-1.09485e-08
1.04723e-08
3.79526e-08
2.69837e-09
-1.55456e-08
1.28471e-08
2.6526e-09
-1.55767e-09
-2.52279e-08
2.4133e-08
-1.78076e-08
9.72305e-09
8.0845e-09
9.22101e-09
-3.45129e-09
-5.76986e-09
3.75656e-09
-1.96355e-08
-3.25893e-09
1.91379e-08
-1.06571e-08
1.07904e-08
-1.33172e-10
2.24659e-08
-1.87094e-08
-6.32362e-08
-8.72382e-08
4.72213e-08
1.03252e-07
-1.63892e-08
2.00031e-08
5.70648e-09
-2.20956e-08
-1.64353e-08
1.90879e-08
2.56517e-09
-1.66722e-09
9.97675e-09
-6.85271e-09
-9.51974e-09
6.39571e-09
3.53687e-08
6.45215e-10
-3.53244e-08
-6.89508e-10
4.57666e-08
-5.27315e-08
4.45267e-08
-3.75623e-08
-1.29493e-08
1.28796e-08
6.97216e-11
-1.08e-08
1.09168e-08
-2.89324e-08
7.40065e-09
2.15317e-08
5.50311e-10
-1.00136e-09
4.5101e-10
-3.19543e-08
-2.1797e-09
3.26733e-08
1.46073e-09
4.13686e-08
-2.21664e-09
-5.74975e-08
1.62578e-08
4.12398e-08
-8.43244e-10
2.42091e-08
-4.66697e-09
2.85097e-08
-2.38427e-08
8.44479e-11
-4.53813e-08
8.45575e-11
4.5629e-08
-3.32303e-10
-3.86939e-08
5.56091e-09
5.00734e-08
-5.04759e-08
1.89923e-09
-2.89949e-09
-2.44434e-08
2.54436e-08
4.61798e-08
-5.00366e-08
1.52035e-08
1.4252e-08
-2.94554e-08
4.54993e-09
-2.28452e-08
5.04431e-09
-3.60687e-08
-4.65712e-07
4.96736e-07
-8.35902e-09
1.47454e-08
-6.3864e-09
-6.95641e-09
-1.1179e-08
1.81355e-08
3.87464e-09
-1.41767e-09
-3.52541e-08
1.59445e-08
-6.45334e-08
5.34556e-10
-4.24899e-10
-3.65036e-08
3.6394e-08
6.29738e-08
-3.42478e-09
-5.95488e-08
-3.56804e-08
6.59706e-08
3.26841e-08
3.71364e-10
4.58085e-08
3.09882e-08
-1.62556e-09
-2.93626e-08
4.38726e-11
-1.968e-08
2.00294e-08
-3.93238e-10
3.32918e-08
-3.38212e-08
9.81884e-09
-9.28942e-09
2.56329e-08
7.65897e-09
-2.35771e-08
3.39283e-08
-1.03511e-08
2.83659e-08
2.96334e-09
-2.84708e-08
-2.67576e-08
7.49055e-09
1.92671e-08
-2.82224e-09
4.0026e-09
3.26254e-08
-3.38057e-08
4.07246e-08
-3.5841e-09
-3.71404e-08
3.95637e-09
3.24361e-08
-3.68424e-09
-3.27081e-08
-6.82712e-09
-2.63874e-08
3.32146e-08
2.60415e-08
-2.93004e-08
-3.075e-10
6.75273e-09
-6.75273e-09
-2.18631e-08
5.48121e-09
1.63819e-08
-2.45286e-08
2.21449e-08
-2.02474e-08
2.2631e-08
1.13893e-08
-4.11288e-08
2.97396e-08
-7.41157e-09
-2.61503e-08
3.35619e-08
2.16543e-08
4.44025e-09
-1.31198e-09
1.68188e-09
-3.46405e-08
3.42707e-08
-3.90268e-08
-5.6966e-09
6.8982e-09
-1.73245e-08
-6.02181e-09
9.26092e-09
4.37587e-10
3.31247e-08
-2.36052e-08
-9.5194e-09
-8.87314e-09
-3.22194e-09
-3.47559e-09
3.86338e-09
-2.93509e-09
-6.64321e-09
3.71859e-08
-5.47655e-09
-3.17092e-08
2.11554e-08
-2.95476e-09
-2.07822e-08
2.58153e-09
2.35305e-09
3.91507e-09
-2.93214e-09
-3.33601e-09
8.2981e-09
1.74168e-08
-2.57149e-08
1.19908e-08
-3.77111e-08
3.71097e-08
-3.5641e-08
1.22522e-08
-9.91675e-09
3.33058e-08
-3.8965e-08
2.78538e-08
1.11113e-08
1.24709e-08
-3.19524e-08
1.94815e-08
-3.96633e-08
-8.14684e-10
-4.25187e-08
5.53708e-10
4.27798e-08
-3.35919e-08
3.46393e-08
-1.04732e-09
-7.25321e-09
3.59108e-08
-2.86576e-08
-6.19124e-09
2.86291e-08
-2.9691e-08
-1.95717e-08
2.04782e-08
-6.82988e-09
5.92344e-09
-2.34076e-08
-6.83691e-09
3.02445e-08
3.44066e-08
1.61937e-09
-8.46189e-10
-3.51797e-08
3.01362e-08
1.34317e-08
-3.03545e-08
1.968e-08
1.04563e-08
4.10352e-09
5.87324e-09
3.47123e-08
-3.64514e-08
-3.50408e-08
3.678e-08
-3.43739e-08
4.36475e-08
-9.2736e-09
-4.27758e-10
7.65223e-09
1.00519e-08
-1.182e-08
1.76812e-09
1.80182e-08
1.80464e-08
-2.85487e-08
-7.51658e-09
-9.09831e-07
9.27849e-07
-5.59659e-08
1.89253e-08
-3.34328e-08
1.50136e-08
1.84192e-08
-3.45955e-08
3.62149e-08
-4.50431e-09
-2.54797e-08
2.9984e-08
-2.03432e-08
4.4205e-08
-3.69886e-08
3.99393e-08
-4.57695e-08
5.83042e-09
1.89429e-09
-3.68071e-08
3.49129e-08
6.67578e-09
-4.60331e-08
3.93573e-08
-1.71792e-09
4.38257e-08
1.17113e-09
-4.32789e-08
1.78068e-08
-3.51038e-08
3.1832e-08
-1.8608e-08
-2.0443e-08
7.01039e-09
2.18351e-08
-3.55645e-09
-1.82787e-08
3.19392e-08
5.22337e-09
-4.33995e-09
3.62594e-08
-3.63168e-08
-6.61278e-10
7.18719e-10
-2.39215e-08
2.80991e-08
-4.17774e-09
-2.2893e-08
1.96945e-08
2.33116e-08
-2.01131e-08
-2.2886e-08
4.34618e-08
-4.15626e-08
-4.2569e-08
4.24898e-08
7.92826e-11
-2.52517e-08
2.58521e-08
-6.004e-10
2.97691e-08
2.6785e-09
-2.98026e-09
-2.94672e-08
-1.13158e-08
9.06836e-09
4.07003e-08
8.46523e-09
3.92375e-08
1.92582e-09
-4.11633e-08
3.03149e-09
-1.34425e-09
-1.68734e-09
-5.02962e-10
-3.2775e-08
3.3278e-08
-4.24748e-08
3.7462e-08
5.01287e-09
2.79794e-09
7.8377e-10
2.59639e-09
-1.90497e-09
-2.64786e-09
1.95613e-09
-1.74074e-08
3.53748e-08
-1.79673e-08
6.17743e-10
1.97857e-09
-1.81526e-09
8.13817e-10
1.80063e-08
-3.7816e-08
-6.93566e-11
-1.12819e-09
3.55096e-09
-4.81046e-08
4.45537e-08
-3.84167e-08
3.99388e-08
-1.52216e-09
1.05888e-08
-1.10318e-08
4.43013e-10
9.08558e-09
-9.08559e-09
-8.68982e-10
9.71646e-09
1.1562e-10
2.93699e-08
-2.95862e-08
1.00644e-10
4.42956e-09
3.45577e-08
-3.89872e-08
-3.18927e-08
-3.57828e-11
3.19286e-08
1.45512e-08
1.31328e-06
1.67262e-08
-3.85963e-08
4.84869e-08
-1.06681e-08
-3.78187e-08
-2.23951e-08
-3.98765e-08
2.44202e-08
3.78515e-08
-2.99306e-09
5.148e-08
3.58544e-08
-1.91282e-08
1.42809e-08
4.06183e-08
-4.24676e-08
1.84932e-09
-4.25403e-08
2.6933e-08
1.56074e-08
4.96739e-09
-5.34169e-09
2.52669e-08
-1.46251e-08
1.36574e-08
5.94196e-09
-4.97434e-09
-9.20789e-11
-6.20954e-09
6.30162e-09
-1.97299e-08
3.02936e-09
1.67006e-08
6.62186e-09
1.3088e-10
2.98806e-08
-3.11422e-08
1.2617e-09
2.6314e-08
-2.8221e-08
1.90696e-09
-2.3806e-08
3.18795e-08
-2.7791e-08
1.97176e-08
-4.16824e-08
4.17616e-08
2.35829e-08
-3.18819e-08
8.2991e-09
-1.47406e-10
-3.32145e-08
3.34086e-08
-4.66271e-11
1.14037e-08
-2.31032e-08
2.84949e-08
-5.39168e-09
9.05492e-09
-8.25485e-09
-8.00052e-10
3.22941e-08
-2.69656e-09
-3.24347e-08
2.83721e-09
-1.97953e-08
-1.7681e-08
-3.49475e-08
2.3999e-08
3.186e-09
2.78127e-08
-3.09986e-08
2.2639e-08
-2.15234e-08
-2.21882e-08
2.10726e-08
-4.21771e-08
3.72326e-08
4.94461e-09
-2.19556e-08
-9.035e-09
3.09906e-08
2.52143e-08
-9.21936e-09
-1.59949e-08
9.63873e-09
-1.73067e-08
-8.3533e-09
-1.03734e-08
1.03734e-08
2.01733e-08
-1.05346e-08
-1.24256e-08
5.8288e-10
1.18428e-08
1.63787e-06
-1.77933e-08
-1.62007e-06
3.52685e-08
-1.30914e-08
-2.21771e-08
7.6887e-09
3.48138e-08
-4.25026e-08
3.33902e-08
-3.31131e-08
2.96417e-08
-6.98098e-09
-2.26607e-08
3.52547e-08
-3.45091e-08
1.28415e-09
-2.02961e-09
-1.29772e-06
-2.65264e-08
-5.40441e-09
-2.57946e-08
3.11991e-08
2.08819e-09
3.03656e-08
1.23612e-08
-5.83878e-10
-1.17774e-08
-3.26492e-08
-4.81523e-10
3.31307e-08
-7.4102e-10
5.49307e-10
3.50055e-08
-3.96785e-09
7.78361e-09
3.08906e-08
-3.03761e-08
-2.12943e-09
-3.592e-08
-1.70906e-09
-1.61507e-08
1.77812e-08
7.83328e-11
1.68925e-08
-3.50454e-08
1.81529e-08
1.04018e-08
-1.04018e-08
-2.90833e-08
-2.50019e-09
3.07145e-08
-3.74993e-08
1.02305e-09
3.70705e-08
-5.94238e-10
3.20733e-08
-7.38583e-10
3.37535e-08
-1.68018e-09
2.77588e-08
1.92137e-09
-2.96802e-08
-1.78665e-08
-3.76966e-08
2.0229e-08
1.14242e-09
-4.48283e-08
4.3686e-08
-3.06795e-08
5.15444e-09
2.55252e-08
-5.9128e-10
-1.18343e-08
3.06422e-08
-2.79708e-08
7.65525e-09
-7.65525e-09
4.64508e-09
2.94662e-10
-4.93974e-09
1.67523e-09
2.06139e-08
-1.34624e-09
-2.09429e-08
4.40955e-09
-1.12622e-08
-3.48679e-08
-1.51244e-08
1.67996e-08
1.31314e-08
-1.15223e-08
-2.45652e-08
6.16116e-09
-2.60008e-08
4.02157e-08
-1.42149e-08
2.89829e-08
-1.16599e-08
-1.7323e-08
-1.02845e-07
6.71648e-08
3.6823e-08
-1.86516e-08
1.00679e-06
-8.10987e-09
2.33133e-08
-6.64048e-08
-3.64401e-08
-1.89897e-08
5.58133e-08
-2.89377e-08
1.73937e-08
1.1544e-08
-5.61882e-09
6.32282e-09
1.93528e-06
-5.13512e-09
-1.93015e-06
1.93528e-06
3.46057e-08
-4.90083e-09
4.2007e-09
-3.39055e-08
5.4185e-09
5.28814e-10
-5.94738e-09
-3.68771e-08
-1.49449e-09
3.79232e-10
3.79924e-08
9.18287e-07
7.5578e-09
-3.7638e-07
3.58834e-07
-3.99053e-08
1.75102e-08
-3.96951e-08
3.86907e-08
-2.49963e-08
2.58378e-08
-2.42184e-08
5.03058e-08
-4.95972e-08
-7.08575e-10
-1.57163e-08
-2.19875e-08
3.77039e-08
3.66042e-08
-2.76795e-08
-8.92464e-09
2.09533e-08
-4.32845e-07
4.11892e-07
-4.67394e-09
-2.01441e-08
2.48181e-08
2.52515e-08
-2.48638e-08
-8.15398e-10
1.98559e-08
-1.5866e-08
2.99091e-08
-3.3899e-08
5.66081e-09
-5.75311e-09
9.21501e-11
1.08811e-08
1.56419e-11
-1.08968e-08
-4.33769e-09
2.7348e-08
-2.30104e-08
3.39681e-08
-3.05757e-08
-3.3924e-09
1.04764e-08
-4.09909e-08
3.05147e-08
7.68501e-09
-3.18921e-08
-9.5599e-09
3.37671e-08
3.0154e-08
-8.99854e-09
3.10807e-08
-1.20016e-09
4.39461e-08
-3.58049e-09
-4.03656e-08
4.63253e-09
-4.00763e-09
3.23314e-08
-2.92862e-09
-2.94028e-08
2.80845e-08
2.36423e-09
-2.03547e-10
-3.02452e-08
-4.49163e-11
2.87661e-08
-6.36621e-10
3.44858e-08
-2.78757e-08
-6.60998e-09
1.14425e-08
9.18778e-10
-2.89283e-08
3.29275e-08
-3.99919e-09
2.26424e-08
-8.03258e-10
2.00226e-09
-2.38414e-08
2.48262e-09
2.92438e-08
-3.17264e-08
-1.87751e-08
2.07707e-08
1.2977e-08
-1.49722e-08
4.68975e-08
-2.87691e-09
-4.40205e-08
-1.09952e-08
1.09952e-08
1.09083e-07
3.5392e-08
-4.77363e-08
1.11735e-08
-2.99486e-08
4.37139e-08
-5.19817e-09
-3.85156e-08
3.71497e-08
3.94193e-11
-3.71891e-08
3.17239e-08
-1.81913e-08
-1.35326e-08
2.16108e-08
-2.22339e-08
2.50044e-09
6.11917e-10
-4.82666e-10
3.36242e-08
2.80352e-08
-6.42446e-09
6.15283e-09
-5.5755e-09
-2.49419e-08
2.38295e-09
3.37631e-08
-3.6146e-08
-3.97973e-08
-1.04655e-09
-4.74554e-08
4.8502e-08
7.57083e-09
-2.98048e-08
3.11915e-08
8.10323e-09
2.54663e-08
-2.48544e-08
3.3692e-08
1.77077e-09
-1.78938e-09
4.0637e-08
2.05382e-08
7.49704e-09
4.62478e-08
-4.59008e-08
-3.46944e-10
6.75741e-09
-6.75741e-09
4.06807e-08
-2.39328e-09
-3.98077e-08
2.81161e-08
-3.46805e-08
6.56448e-09
2.77318e-08
-4.12003e-09
-3.56139e-08
1.92735e-08
2.10691e-08
1.88418e-08
-3.99107e-08
2.89075e-08
-4.09247e-08
-2.78881e-08
5.07724e-10
-1.6382e-10
-2.96155e-08
3.02871e-08
-1.73676e-06
-1.76259e-08
2.36889e-08
1.84139e-09
-2.55303e-08
2.52933e-08
-4.08479e-08
1.55546e-08
-3.11181e-08
-1.3219e-08
1.00452e-08
-1.60128e-08
9.06179e-10
1.51065e-08
-2.89915e-08
3.73651e-08
-8.37354e-09
-1.44052e-08
8.03758e-08
2.3967e-08
3.21011e-08
-3.03819e-08
-2.56862e-08
2.67273e-08
-2.76028e-09
-2.67198e-09
-3.97704e-08
4.03711e-08
3.40553e-08
-5.02336e-08
4.97588e-08
4.74788e-10
4.44769e-08
3.73408e-08
-3.82872e-08
-4.35303e-08
-2.84074e-09
-3.9223e-08
3.90828e-08
2.98102e-09
3.6641e-08
-4.04761e-08
3.83521e-09
-1.18132e-08
-4.54726e-10
1.22679e-08
4.07102e-08
-1.55052e-09
-3.91596e-08
-2.14044e-09
4.14029e-08
1.44787e-09
3.5615e-08
-1.82427e-09
-3.53412e-08
3.34746e-08
-2.83064e-08
2.10478e-08
-1.56439e-08
-5.13336e-08
-4.45944e-08
2.08544e-09
2.40553e-08
-3.5558e-08
6.3827e-11
-1.93579e-10
3.56878e-08
-1.73778e-08
6.13988e-09
-2.85791e-08
2.8143e-08
-4.23087e-09
1.72219e-09
-3.91238e-08
3.20136e-08
1.85424e-09
-3.38678e-08
3.14692e-08
1.13013e-08
-4.27705e-08
3.12623e-08
-3.00704e-09
3.21396e-09
-3.22408e-08
-6.66915e-09
6.64679e-09
3.22633e-08
-3.95019e-09
-2.82906e-08
4.25399e-08
-4.3646e-08
-2.84404e-09
3.58708e-08
-8.63851e-09
8.09188e-09
5.46641e-10
1.01757e-08
-9.71296e-09
8.09606e-09
-8.55873e-09
6.11572e-09
1.28093e-08
-1.8925e-08
-6.25617e-09
-3.48005e-09
9.73624e-09
-1.25163e-08
1.25163e-08
-7.29925e-09
7.15881e-09
-1.00352e-08
9.24388e-09
-8.05222e-09
8.84354e-09
1.40482e-10
-3.62977e-08
1.81065e-08
6.31802e-09
-9.32642e-09
3.00841e-09
-3.19812e-08
-2.96631e-09
1.84181e-08
-3.99633e-08
2.15452e-08
3.33221e-09
-4.70934e-09
3.57965e-09
-8.17633e-09
4.59669e-09
1.91385e-08
6.79215e-09
-6.79188e-09
2.22775e-08
-5.159e-09
-4.20379e-08
4.33649e-08
-1.3269e-09
2.53795e-08
-1.3231e-06
1.03239e-08
2.35008e-08
-3.38246e-08
-1.61348e-08
-3.79329e-08
3.62556e-08
1.78122e-08
-2.20592e-08
-2.74428e-09
5.54217e-09
3.27958e-08
-2.66844e-10
-3.24264e-08
9.13406e-09
2.07623e-08
5.78095e-09
-5.78094e-09
-3.44703e-08
3.23267e-08
3.27858e-08
2.79492e-09
-3.06361e-08
2.78412e-08
-3.1306e-08
-1.91056e-09
3.11578e-08
2.05878e-09
-1.21133e-06
9.76555e-09
1.20157e-06
2.02957e-08
-2.07784e-08
2.1341e-08
-2.06114e-08
-7.29588e-10
-4.60945e-08
6.07586e-09
2.72668e-08
-1.43764e-09
-2.79039e-08
-1.29493e-08
-2.27609e-08
3.74345e-07
-3.53066e-07
1.48195e-09
7.96595e-10
-2.80531e-08
-9.24382e-10
2.81809e-08
-4.23183e-08
-3.85713e-08
4.8481e-08
3.34275e-08
-6.16067e-09
6.6939e-09
2.78461e-08
-6.93525e-09
-2.31367e-08
4.6544e-09
-2.63708e-08
2.0752e-08
7.60542e-10
-5.77586e-11
-1.40502e-08
1.33474e-08
2.48621e-08
-1.09862e-08
-1.9241e-08
2.59349e-08
-1.10406e-08
-4.57591e-10
1.14982e-08
9.69361e-09
-9.69362e-09
1.88726e-08
-4.81536e-09
-1.40574e-08
2.02816e-08
-1.21972e-08
6.80854e-09
6.37683e-09
-1.31855e-08
-4.3056e-10
3.36413e-08
-3.22092e-08
-1.00153e-09
1.95132e-08
6.16786e-09
6.28922e-09
-6.14022e-09
6.29676e-09
-7.53586e-12
-4.36293e-08
-1.31974e-09
4.4949e-08
-5.73802e-07
1.9143e-08
1.17579e-08
2.8534e-10
-5.28704e-10
2.88946e-08
-2.22249e-08
2.1535e-08
-8.16185e-09
-2.58917e-08
-3.17388e-08
2.20223e-08
3.56081e-08
-2.34459e-08
-1.60922e-09
2.50552e-08
4.801e-09
1.70341e-08
-2.988e-08
-2.18113e-09
3.20612e-08
3.55323e-10
-2.88946e-08
-3.53671e-09
-4.87676e-08
5.01901e-08
-2.0638e-06
2.081e-06
-1.71993e-08
2.41654e-08
-2.5603e-08
3.88055e-08
-3.81975e-09
-3.49856e-08
1.46725e-11
-4.3402e-08
3.7699e-09
3.17149e-08
-3.54847e-08
4.45116e-08
-3.53759e-08
3.57028e-08
-1.77341e-08
1.23592e-08
-1.23591e-08
3.79607e-08
-2.49835e-08
-6.38496e-09
6.56958e-09
-1.84614e-10
5.68068e-09
-1.29799e-08
1.22052e-08
-9.09061e-09
-3.11457e-09
1.20089e-08
-1.04902e-08
-1.15487e-08
1.003e-08
-1.5599e-08
-6.41654e-09
2.20155e-08
-2.41815e-09
1.44271e-08
-5.98791e-09
-3.86891e-09
9.85683e-09
1.53946e-09
3.45833e-08
-2.15461e-09
-3.49578e-08
-4.54353e-09
-1.60811e-08
-3.39853e-08
4.08418e-08
-6.85626e-09
3.0383e-08
-1.6312e-08
-1.4071e-08
3.67538e-08
-3.2158e-08
-3.35239e-08
4.8729e-08
-5.04477e-08
-4.43996e-08
4.61183e-08
-7.32304e-09
-2.78295e-08
3.51526e-08
2.1788e-08
-2.9111e-08
3.24818e-08
-3.91735e-08
6.69189e-09
-2.2259e-10
1.78499e-08
4.29505e-09
9.41384e-09
-9.75608e-09
1.75681e-08
2.42443e-08
-4.3884e-09
-2.98465e-08
2.59886e-08
-2.22924e-08
2.81466e-08
-1.97591e-08
-8.3875e-09
2.64096e-08
-2.68408e-08
-6.37157e-10
1.06832e-09
7.91477e-10
-1.23039e-08
-8.27455e-09
4.92332e-09
8.76961e-09
4.09952e-08
-2.80162e-08
-1.29789e-08
1.72117e-08
3.71387e-07
-3.88599e-07
-2.21808e-08
-6.65149e-09
2.88323e-08
-3.74935e-08
3.77059e-08
2.45949e-09
2.39214e-08
-2.63809e-08
3.32076e-08
-4.41617e-08
1.09543e-08
-3.3498e-09
-1.70932e-08
3.70729e-09
-2.44342e-08
2.07269e-08
-4.11123e-08
-8.66136e-10
1.1361e-08
8.15214e-09
2.81744e-08
-3.38392e-08
5.6649e-09
-7.75432e-09
-1.91282e-08
7.81406e-09
1.90684e-08
-2.85459e-08
-8.8677e-10
2.94327e-08
-1.8289e-08
-1.17513e-08
-7.37696e-09
-1.86793e-08
2.21302e-08
-2.29883e-08
-7.66936e-09
-2.47547e-08
1.68802e-08
7.87456e-09
2.10956e-08
1.21794e-08
-1.29935e-08
5.23905e-09
-4.67701e-09
2.51764e-10
3.60782e-08
5.61953e-09
-4.16975e-08
2.56842e-08
-4.91997e-09
5.51919e-09
-2.62834e-08
4.0106e-08
-2.23643e-08
2.23911e-08
-2.68024e-11
3.79665e-08
4.42348e-08
-3.96496e-08
-4.25515e-08
4.85704e-10
2.51985e-08
1.84883e-08
1.94782e-08
-5.357e-08
9.93367e-08
-2.7675e-08
4.61634e-08
-2.85601e-08
3.40928e-08
-1.23684e-08
-8.63704e-13
3.70117e-08
-1.81807e-09
-3.51936e-08
-2.20941e-08
2.6844e-08
-2.3994e-08
1.92444e-08
-5.59791e-09
2.40694e-08
8.2993e-09
2.63064e-08
2.93173e-08
-4.54544e-10
2.65193e-08
1.01768e-08
-9.50268e-09
-8.97685e-09
2.5613e-09
-2.2133e-08
-1.57976e-08
2.28736e-09
-2.13549e-09
1.56457e-08
7.71862e-09
1.88007e-08
1.25462e-08
-4.95911e-10
-1.20503e-08
2.0725e-08
7.12119e-09
3.55242e-10
-3.0079e-08
-5.02982e-10
3.02268e-08
-9.31587e-09
9.67111e-09
1.78806e-08
-1.30026e-08
-1.79653e-08
1.30873e-08
2.97799e-08
-2.15681e-10
-3.04079e-08
1.40904e-08
-1.30219e-08
-4.04666e-08
-5.52696e-09
-1.13027e-08
1.32096e-08