/*--------------------------------*- C++ -*----------------------------------*\
| =========                 |                                                 |
| \\      /  F ield         | OpenFOAM: The Open Source CFD Toolbox           |
|  \\    /   O peration     | Version:  v2006                                 |
|   \\  /    A nd           | Website:  www.openfoam.com                      |
|    \\/     M anipulation  |                                                 |
\*---------------------------------------------------------------------------*/
FoamFile
{
    version     2.0;
    format      ascii;
    class       volVectorField;
    location    "0.01";
    object      U;
}
// * * * * * * * * * * * * * * * * * * * * * * * * * * * * * * * * * * * * * //

dimensions      [0 1 -1 0 0 0 0];


internalField   nonuniform List<vector> 
3596
(
(0.00316452 0.000816158 -0.137665)
(0.0030611 -0.00132714 -0.113836)
(0.00252137 -0.000918129 -0.118527)
(-0.0157285 -0.0022276 -0.100511)
(-0.0108949 0.00112056 -0.108795)
(-0.014924 -0.00461807 -0.0950929)
(0.0301006 -0.000141627 -0.125889)
(-0.00844885 0.00311753 -0.0907104)
(0.00278803 -0.00286876 -0.117869)
(-0.0122474 0.00762235 -0.0315851)
(-0.0222377 -0.149885 13.2887)
(-0.0554694 -0.0055166 -0.0707828)
(0.329619 0.0454893 0.695285)
(-2.05019 -0.0162888 -60.2216)
(0.00555432 -0.00660972 -0.0452944)
(0.0117558 -0.000708479 -0.117457)
(-0.972673 0.203492 -47.2338)
(-0.00623619 0.0374671 -0.736568)
(0.235067 0.00344305 -0.0203921)
(-0.135347 -0.00207394 -0.0204271)
(-0.000211604 -0.000650232 -0.0682855)
(0.0433762 0.000388888 -0.0529243)
(-0.120798 -0.00723822 -0.0706496)
(-0.00330149 0.00329334 -0.11476)
(0.0102001 0.0076972 -0.0865335)
(-0.274829 -0.00758906 -0.36672)
(0.00260068 0.000503019 -0.0847071)
(-0.213411 0.0346102 0.348928)
(-0.133154 -0.149687 12.8223)
(-0.03875 0.00926673 -0.298278)
(-0.00162719 0.00351561 -0.15373)
(-0.281009 0.00245328 -0.813912)
(-0.00354842 0.00812554 -0.158551)
(-0.00152849 0.00254805 -0.14016)
(0.00450203 0.00129214 -0.135362)
(-0.00904957 -0.00898661 -0.0753847)
(0.00394447 0.00130287 -0.136386)
(0.000360077 0.00224101 -0.128803)
(0.00114036 -0.000511719 -0.14028)
(0.00719144 -0.000489546 -0.101928)
(0.00838771 -0.000622476 -0.100317)
(0.00188389 0.00569523 -0.13333)
(-0.00893063 0.00901816 -0.108363)
(-0.000500375 0.00663455 -0.138135)
(-0.00478686 -0.0023974 -0.112955)
(0.00466585 0.000632309 -0.150931)
(-0.00745954 -0.00462409 -0.0503304)
(-0.0089237 -0.000602798 -0.0637524)
(-0.00470721 0.00284611 -0.118889)
(-0.00590377 0.000995878 -0.125089)
(-0.00760269 -0.00229591 -0.15373)
(-0.00111705 -0.00313826 -0.130554)
(-0.0116084 0.0070375 -0.0829628)
(-0.00261078 -0.00114484 -0.157252)
(-0.0330065 -0.00188778 0.00524695)
(-0.229937 -0.0038001 0.0269458)
(-0.0680887 -0.0006869 -0.01235)
(-0.214873 -0.00994142 0.0226079)
(-0.00265227 0.00178807 -0.0750094)
(-0.21638 -0.0158425 -0.0648693)
(0.00792929 0.00180475 -0.123811)
(0.0525323 0.00357889 -0.156124)
(-0.397317 -0.0285502 -0.0401962)
(-0.618983 0.0183207 -0.181231)
(-0.667998 -0.0462123 -0.631044)
(-0.00263442 0.000429688 -0.110368)
(-0.00767115 -0.00554096 -0.0508755)
(-0.0327024 -0.00211757 -0.0879359)
(-0.208544 -0.0116808 -0.00594422)
(-0.00440392 -0.000230143 -0.0711401)
(-0.048234 -0.0027027 -0.0506924)
(-0.19745 -0.0141895 -0.00490633)
(-0.179505 -0.00237314 -0.00767105)
(-2.55236 -0.0246444 -66.1626)
(-0.952166 0.229382 -53.3554)
(0.892536 -0.259239 9.72104)
(-0.111168 -0.0812147 17.1961)
(0.126075 -0.0200795 17.9677)
(-0.262737 -0.0192754 -0.0475782)
(-1.01889 0.21633 -48.2777)
(-0.00584603 0.000875206 -0.131561)
(-0.0492076 -0.0013069 0.0126771)
(-0.00858517 0.00881411 -0.0771296)
(-0.000320923 -0.00177739 -0.0468613)
(-0.0149752 -0.00405875 -0.0517797)
(-0.245407 -0.006902 -0.22708)
(-0.0990734 -0.00103614 -0.00825898)
(-0.352903 0.0160024 0.233068)
(-0.494885 0.0310631 0.139416)
(0.00171517 0.00207972 -0.136436)
(0.40605 -0.0148899 16.536)
(-0.265383 -0.00403241 -0.138012)
(0.360768 0.00429435 -0.146766)
(-0.0636925 -0.0045434 -0.026328)
(-0.00268131 0.00317678 -0.123043)
(0.00399945 0.000705647 -0.107816)
(-0.00420715 0.000684597 -0.125633)
(-0.00258004 0.00195997 -0.13823)
(-0.00189011 -0.00226472 -0.148719)
(0.0030093 -0.00228335 -0.109831)
(0.024634 0.0012754 -0.161341)
(-0.0086155 -0.000674405 -0.105302)
(-0.000499666 -0.0028541 -0.107712)
(-0.243414 -0.0135055 0.0281896)
(-0.0444732 -0.000295218 -0.0761292)
(-0.00263868 0.00309653 -0.131423)
(-0.00075681 0.000429443 -0.107589)
(0.00278062 0.00271703 -0.157461)
(-0.0437922 0.00134193 0.00867024)
(-0.00517355 -0.000546028 -0.0849012)
(0.00158555 -0.00300034 -0.0952363)
(-0.0032808 0.00276068 -0.135222)
(-0.0018209 -0.00128085 -0.102388)
(0.00514023 0.0062543 -0.146976)
(0.000241215 -0.00035275 -0.14159)
(0.0017474 -1.77518e-05 -0.145077)
(-0.005613 0.00217738 -0.155378)
(0.000713446 0.00345442 -0.149439)
(-0.000778843 0.00294351 -0.136944)
(-0.00367157 0.000918165 -0.111191)
(0.000718017 0.0005918 -0.113632)
(-0.032924 -0.0334872 20.5963)
(-0.0106904 -0.00777471 -0.0797425)
(0.00323338 -0.00421738 -0.140718)
(-0.0229965 -0.00155723 -0.0461288)
(0.0215872 -0.000116354 -0.120094)
(-0.00347245 -0.00176721 -0.108001)
(0.00112993 -0.00269905 -0.0585173)
(-0.0184771 0.0020331 -0.07637)
(-0.000965838 0.00109711 -0.0816576)
(-0.00405955 0.000243302 -0.0796225)
(-0.00587627 -0.00062369 -0.097527)
(-0.00772465 -0.000205194 -0.104781)
(-0.0142613 -0.000410487 0.0239315)
(0.493499 -0.0188032 21.4312)
(0.333436 -0.140382 18.5928)
(0.363951 -0.0249424 22.0378)
(-0.141889 0.000186116 19.9988)
(0.0156997 0.00241082 -0.0933702)
(0.0045732 0.000809479 -0.118056)
(-0.0113669 0.00880092 -0.0846819)
(0.0065205 -0.00792161 -0.0558523)
(-0.079913 -0.00122736 0.0167966)
(0.22403 -0.00630726 14.9388)
(0.0564514 -0.00309464 0.0246172)
(0.146475 0.0227399 14.1639)
(-1.74227 0.108397 -48.1101)
(-0.191263 -0.00849067 -0.374599)
(0.844053 0.109745 1.70649)
(0.331356 0.0049836 -0.0944545)
(0.285924 0.00388414 -0.0489969)
(0.044172 0.00443382 -0.100808)
(0.248801 0.014382 -0.0159217)
(0.00289389 -0.00199152 -0.102919)
(0.0117309 -0.00504001 -0.0883389)
(0.400483 -0.136877 16.3006)
(0.0451315 0.000555546 -0.0175345)
(0.490569 0.0377275 16.5828)
(0.015637 0.00159071 -0.109265)
(0.000736718 0.000127503 -0.081037)
(-0.00875147 0.0110769 -0.0817783)
(0.00454472 0.000427249 -0.0988367)
(0.00791675 -0.000404167 -0.0983422)
(0.0437149 0.000622997 -0.140031)
(-3.94455e-05 -0.00764727 -0.146867)
(-0.0120882 0.00279071 -0.133913)
(-0.00488973 9.36932e-05 -0.122082)
(0.000506517 -0.00187991 -0.13332)
(0.00747565 0.000131885 -0.129127)
(-0.000311696 -0.00282051 -0.149147)
(0.000806138 0.00259424 -0.133827)
(0.0024436 0.0029612 -0.137066)
(-0.0190194 0.000294334 -0.0783539)
(-0.208848 -0.0151846 0.0202264)
(-0.0341657 -0.000546739 0.0304557)
(-0.162806 -0.0111443 -0.0625494)
(-0.00494497 -0.00372074 -0.0305948)
(-0.00848679 0.0056932 -0.00227769)
(0.0820455 0.00137852 -0.177306)
(-0.0136567 -0.000118238 -0.0710548)
(-0.00918663 -0.00709791 -0.093367)
(-0.0166128 -0.000636821 -0.0757584)
(0.00350872 -0.00225087 -0.118565)
(-0.0959587 -0.00411079 0.00584852)
(0.00106634 -0.00257858 -0.117473)
(-0.0587708 -0.00360231 -0.0116706)
(0.0032807 -0.000784905 -0.11741)
(-0.00616548 0.0023632 -0.0737218)
(-0.0101431 -0.0067616 -0.0853472)
(-0.0516126 -0.00332196 -0.170586)
(0.735275 -0.247841 12.7559)
(-0.36364 -0.0849664 19.1543)
(-0.102585 -0.1511 12.9906)
(-0.122314 -0.0016933 0.0293359)
(-0.0679968 -0.00583362 0.0128066)
(-0.0465841 0.030304 -0.444023)
(-0.183996 0.0218329 15.8239)
(-0.26138 -0.0225031 -0.260626)
(-0.206959 -0.0136453 -0.340496)
(-2.16959 0.126545 -56.8031)
(-0.235162 -0.00220394 -0.27952)
(-0.184423 -0.00208837 -0.140498)
(-0.102375 -0.00154468 -0.0614578)
(-0.765432 -0.225702 16.361)
(0.792082 -0.261314 8.84125)
(-0.0171252 -0.00193151 -0.0585273)
(0.858032 -0.257958 10.1301)
(-0.00126803 4.61624e-05 -0.125037)
(-0.0532274 0.0105491 -0.326685)
(-0.0336072 0.0082814 -0.162586)
(-0.00174403 0.00162292 -0.0908167)
(-0.000646792 0.000850413 -0.0947404)
(-0.017709 0.0292952 0.542301)
(0.000125218 -0.00223742 -0.0803554)
(0.00869758 0.00625938 -0.0765862)
(0.000745272 -0.00143594 -0.112004)
(-0.00274474 0.000553804 -0.0910755)
(-0.000876918 -0.000541137 -0.0893688)
(-3.196e-05 -0.00303278 -0.116539)
(0.023416 0.00267929 -0.0946996)
(0.00960679 -0.00151012 -0.0950639)
(0.0078331 0.000133262 -0.0997914)
(0.00642207 0.000734336 -0.101992)
(0.00380355 0.00146608 -0.111942)
(0.00175846 -0.00138186 -0.131442)
(0.00766475 0.000816963 -0.113346)
(0.00971652 -0.0070708 -0.0730215)
(-0.0121686 0.000123193 -0.0580599)
(-0.00776871 -0.0071747 -0.0784951)
(0.00157964 -0.00254668 -0.100102)
(-0.227172 -0.00693015 -0.382686)
(0.00103767 -0.0025212 -0.100858)
(-0.0173819 -0.00165329 -0.0803266)
(-0.00287102 0.0057461 -0.133511)
(0.00278729 -0.000966687 -0.120448)
(0.00604171 0.00141602 -0.102176)
(0.00680821 0.00268898 -0.0893191)
(0.00257623 3.83039e-06 -0.0913472)
(0.000781631 -0.000586514 -0.0917329)
(-0.00394875 -0.00224393 -0.125552)
(-0.00696454 -0.000463411 -0.117853)
(-0.00328198 0.000812428 -0.159678)
(-0.19467 -0.00460585 -0.0708779)
(-0.00208758 -0.00287834 -0.158863)
(-0.00285362 0.0013884 -0.157349)
(0.000565954 -0.000556647 -0.0939551)
(-0.014985 0.00104877 0.00970221)
(0.00402194 -0.00503489 -0.0323894)
(-0.0164003 -0.000768986 -0.049871)
(-0.511714 -0.0271303 -0.0616505)
(-0.0113142 0.00429258 -0.0231748)
(0.0713683 0.00296117 0.0255504)
(0.0764964 0.00617445 -0.0453337)
(0.0374542 0.0040506 -0.0815409)
(-0.0136055 -8.85417e-05 -0.0535337)
(-0.0179407 -0.000298863 -0.0540455)
(-0.00282624 -0.000158868 -0.0898271)
(-0.0212443 -0.00137046 -0.0490712)
(0.00140289 0.00141252 -0.119569)
(-0.00829407 -0.000595648 -0.0742205)
(-0.00937293 0.00217939 -0.0631278)
(0.00108108 0.000504007 -0.121605)
(0.152501 0.00145731 0.0212655)
(0.0094095 0.00763352 -0.0809345)
(-0.00798547 -0.00195046 -0.163359)
(-0.0542886 -0.00560813 -0.0616719)
(0.00964935 -0.00450182 -0.0761486)
(-0.0029372 -0.0604412 15.4525)
(-0.853977 -0.194683 13.2905)
(-0.435894 -0.0249193 -0.452426)
(-0.274166 -0.00887215 -0.291205)
(-0.50273 -0.00541637 -0.448465)
(0.09783 -0.00203071 0.0307907)
(-0.0901971 -0.00686754 0.00121561)
(-0.0290083 9.87088e-05 -0.0843052)
(-0.17853 -0.146886 12.7249)
(-0.0389408 -0.00284002 -0.184906)
(-0.0025543 -0.0012266 -0.0852952)
(0.0211783 0.00554489 -0.103143)
(0.00910111 0.00207732 -0.0969217)
(0.000981346 0.00293938 -0.130583)
(0.0049057 0.000558873 -0.117987)
(0.0650729 0.00239497 -0.163427)
(-0.0133256 -0.00451082 -0.0919186)
(0.00845501 -0.00717076 -0.0723115)
(-0.0444062 0.000948476 -0.0948097)
(-0.0243105 -0.00226728 -0.099047)
(-0.0452724 -0.00111347 -0.0245563)
(-0.0302034 -2.57212e-05 -0.0360682)
(-0.040823 -0.000534846 -0.0335657)
(0.00349545 0.00158823 -0.137479)
(0.0133259 0.00143164 -0.0909836)
(-0.0186786 -0.000697238 0.0194081)
(-0.0150147 0.000552303 0.0142026)
(-0.00969409 -0.00194093 -0.0546066)
(-0.00164432 0.00159127 -0.11938)
(-0.0186578 -0.000973873 0.0223603)
(-0.0123304 0.00192007 0.0131097)
(0.506693 0.0263991 -0.183862)
(-0.0258194 -3.74911e-05 -0.0667615)
(0.00804112 -0.00182482 -0.128057)
(0.0554973 0.0199058 -0.465881)
(0.0100506 -0.00030697 -0.0841334)
(0.293437 -0.140602 15.2298)
(0.38627 0.0402103 -0.403971)
(-0.0233697 -0.00307789 -0.0374835)
(-0.320918 -0.00924017 -0.0315)
(0.00528378 -0.0011598 -0.134722)
(-0.0024243 -0.00178931 -0.0541817)
(-0.0246311 -0.00248622 -0.123705)
(0.00910502 -5.1035e-05 -0.0673603)
(-0.00806872 0.00235397 -0.0847376)
(0.0381932 0.00325124 -0.0596193)
(0.0262484 0.00185012 -0.0291998)
(-0.0216918 -0.000308692 -0.0679223)
(0.0094508 -0.0095438 -0.086055)
(-0.0238445 -0.00215714 -0.0614206)
(0.516229 0.0165381 -0.727169)
(-0.0254668 -0.00665552 -0.0681434)
(-0.0244198 -0.00346742 -0.059937)
(-0.0129982 -0.00686094 -0.0593204)
(-0.00774384 -0.00516181 -0.0597769)
(-0.0460562 -0.00321419 -0.000783575)
(-0.00105489 -0.0010553 -0.125783)
(0.434696 0.127826 2.30822)
(0.0102481 -0.00989791 -0.0894495)
(-0.0092295 0.0102599 -0.0836558)
(0.123672 0.00727015 -0.123301)
(-0.000599495 -0.000565546 -0.00418954)
(0.00913768 0.00426711 -0.102144)
(0.00860865 -0.000258113 -0.136523)
(0.000594677 0.00520155 -0.14804)
(0.00479539 -0.000164981 -0.0854574)
(-0.0156036 -0.0018721 -0.077934)
(-0.00411564 0.00382775 -0.110355)
(-0.00313942 0.00302159 -0.135014)
(0.00895686 0.000360183 -0.110288)
(0.00235564 -0.00275967 -0.164898)
(0.0202129 -0.00156858 -0.0947902)
(-0.00192652 -0.00169644 -0.162241)
(-0.0497822 -0.000378368 -0.085784)
(-0.0465254 -0.000342539 -0.0782461)
(0.870241 -0.2597 10.8222)
(-0.0337539 -0.00264681 -0.031432)
(-0.0445863 -0.00376194 -0.0364606)
(-0.242399 -0.0107811 -0.104744)
(-0.559826 -0.0246921 -0.46455)
(-0.00161115 -0.00254311 -0.153267)
(-0.603288 0.000505892 -0.329802)
(-0.524283 -0.101266 -0.737754)
(-0.00200442 -0.0012238 -0.152521)
(0.00614884 -0.00104431 -0.0934986)
(-0.000886431 0.000357627 -0.0775065)
(-0.139741 -0.00455711 -0.0460647)
(-0.152546 -0.0108911 -0.0406544)
(-0.125132 -0.00880679 -0.0298884)
(-0.00504318 -0.0022417 -0.0910703)
(-0.0353578 -0.000575185 -0.0810587)
(-0.015666 -0.00417425 -0.0970419)
(0.0135891 0.000599281 -0.154098)
(0.0121144 0.0011379 -0.1144)
(0.000902412 -0.000999752 -0.0940783)
(-0.0191714 -0.00280849 -0.0799208)
(0.0481544 0.00251134 0.0264203)
(0.00650504 -0.00345002 -0.0466687)
(-0.0184955 -0.000625448 -0.0862413)
(-0.00990166 -2.06303e-05 -0.0919853)
(0.0293134 0.00210564 -0.136607)
(0.00148875 0.00195319 -0.0972368)
(-0.049675 0.000426351 -0.0918472)
(-0.00814109 -0.00203947 -0.10445)
(-0.0548629 -0.00410377 -0.0727023)
(-0.0418472 -0.00304305 -0.0523311)
(-0.0164215 -0.000686439 0.0258635)
(0.102187 0.00203945 -0.1051)
(-0.0152667 -0.000519767 0.0221664)
(-0.0163743 -2.83518e-05 0.0240607)
(-0.012853 0.00174449 0.0132644)
(-0.0128229 0.000678019 0.0189271)
(0.0199208 0.00213283 -0.184504)
(0.0184147 0.000611577 -0.0935079)
(-0.013356 -0.00266891 -0.03165)
(0.0266934 0.000130962 -0.0850028)
(0.0272062 0.00215444 -0.134309)
(0.0508005 0.00997901 -0.176427)
(0.0565047 0.00327999 -0.177514)
(-0.165629 -0.00275036 -0.0303597)
(0.0750678 0.000519425 -0.168866)
(0.00301259 0.000306126 -0.122591)
(0.00381513 0.000720066 -0.10629)
(-0.067637 -0.00484019 -0.090677)
(-0.0640927 -0.00118549 -0.0867309)
(-0.0699999 -0.000601054 -0.0247594)
(-0.0959033 -0.00665533 0.00266426)
(0.00755363 0.00598419 -0.109778)
(-0.100182 -0.00427496 -0.0125715)
(-0.11017 -0.00832346 -0.0133837)
(0.00277831 0.00194459 -0.10915)
(-0.050657 -0.00118767 -0.000870372)
(0.00367829 -0.00255177 -0.116623)
(-0.00626141 -0.00109014 -0.111977)
(0.00658987 -0.00603639 -0.0549582)
(-0.0608245 -0.000919487 -0.0260716)
(0.0856586 -0.0929055 0.14897)
(-0.397934 0.141943 13.3253)
(-0.657859 -0.0338476 17.1215)
(-0.285544 0.000123753 -0.0181801)
(0.00540034 0.00155773 -0.106967)
(-0.0213271 -0.000518941 -0.0903162)
(-0.242941 -0.0172278 0.0134289)
(-0.211119 -0.0152738 -0.00361124)
(-0.18116 -0.0127865 -0.129124)
(0.00757563 0.000589811 -0.147456)
(-0.000775255 0.000935095 -0.115746)
(0.00603424 0.00290743 -0.120018)
(-0.00783301 0.00427273 -0.0911221)
(-0.0143745 -0.00166338 -0.0621629)
(-0.0194216 -0.00131497 -0.0448833)
(-0.19191 -0.00732825 0.0233987)
(-0.0157349 -0.00100168 -0.0575847)
(0.0121949 -4.00676e-05 -0.077546)
(0.00118381 -0.000137447 -0.0891604)
(0.0031318 0.000881012 -0.0889903)
(0.0129859 0.00125077 -0.0747001)
(-0.0916861 -0.00417657 0.0293024)
(-0.0775145 -0.00123492 0.037003)
(0.016907 0.00123451 -0.0990319)
(0.000921194 -0.000394913 -0.127361)
(-0.0023739 -0.000431556 -0.0834103)
(0.00563129 -0.0016099 -0.0955343)
(0.00183242 -0.00298962 -0.125075)
(0.000383597 0.00343943 -0.125022)
(-0.00654738 0.00315172 -0.135493)
(0.0166829 0.000440997 0.00635819)
(0.00254856 -0.00288732 -0.104093)
(0.0112384 0.000449704 -0.099815)
(0.0138704 0.00301966 0.0043592)
(-0.00789758 -0.00505066 -0.0314078)
(0.0639164 0.00116699 -0.120968)
(0.00176877 0.000255777 -0.0108526)
(0.00154428 0.000239643 -0.00829395)
(-0.187735 -0.00540528 -0.0148721)
(-0.000613726 0.00270006 -0.00793333)
(-0.00692312 8.83793e-06 -0.145561)
(0.000847185 0.00110379 -0.122267)
(0.00129194 -0.00323995 -0.0952034)
(-0.00793376 -0.00518147 -0.0686747)
(0.00604449 -0.00266562 -0.0941131)
(-0.000758467 0.000913261 -0.107267)
(-0.0152168 -0.00276434 -0.0983384)
(-0.000492138 -0.000421924 -0.117922)
(0.177555 -0.0518106 21.0484)
(-0.23359 -0.00546955 0.0250256)
(-0.26596 -0.0156749 -0.18824)
(-0.220283 -0.010455 0.0221041)
(-0.366203 -0.0277314 -0.213273)
(-0.245653 -0.00219245 -0.0125268)
(0.500862 -0.0446038 16.937)
(-0.00639376 3.02503e-05 -0.120624)
(0.0154555 -0.00388134 -0.142026)
(-0.000590115 -0.000954099 -0.0889039)
(-0.0265973 -0.00189691 0.0294135)
(-0.000679808 -0.00196274 -0.0564259)
(-0.0429208 -0.00280772 0.0365481)
(-3.70124e-05 -0.0018087 -0.0633057)
(0.00517266 0.00014729 -0.101594)
(0.00998587 -0.000150738 -0.0927935)
(0.0468109 0.00496912 -0.113205)
(0.0017415 0.00143707 -0.140086)
(-0.0256805 -0.000707982 -0.127529)
(-0.00260652 -0.00491674 -0.131777)
(-0.000689837 0.000228413 -0.0815351)
(-0.0178975 -0.00133509 -0.075186)
(0.0104474 -0.00635706 -0.0803241)
(0.0144424 0.00120757 -0.090564)
(-0.0229363 -0.00152891 -0.124524)
(-0.0254334 -0.000105457 -0.113696)
(-0.00988892 -0.000126907 -0.129684)
(0.0981306 0.00806536 -0.059545)
(-0.00432157 -0.000522976 -0.138429)
(0.0195143 -0.000138104 -0.102655)
(0.0601992 0.00451004 -0.0723755)
(0.0380721 0.00454258 -0.0574667)
(-0.58742 0.0238277 14.1188)
(0.00884565 -0.00525115 -0.067495)
(0.0368025 0.000103261 -0.0669185)
(-0.0106296 -0.0070987 -0.0838509)
(-1.6979 0.108183 -46.7783)
(-0.145404 -0.00297177 -0.0348611)
(0.00506687 0.00106622 -0.111583)
(0.00185647 0.00463492 -0.105316)
(-0.0287403 -0.00306971 -0.0808355)
(0.0237328 -8.90022e-05 -0.110269)
(-0.448218 -0.176583 19.2962)
(-0.0301607 -0.00304276 -0.08716)
(0.00785267 0.0015153 -0.108955)
(0.00227051 -0.0028295 -0.109209)
(0.00238266 0.000273003 -0.101655)
(0.00284321 -0.000248935 -0.116565)
(0.00224027 0.00115743 -0.107053)
(-0.016395 0.0234004 -0.289967)
(0.0247148 0.00289096 -0.0868559)
(0.00688094 -0.00192813 -0.143915)
(0.0157471 -0.00222332 -0.0671915)
(0.088133 0.006117 -0.141)
(0.00874277 0.006099 -0.0757032)
(0.00486609 0.000946982 -0.12093)
(0.00231638 -0.0022848 -0.103887)
(-0.0035201 0.00165343 -0.0906402)
(0.00132693 0.000246127 -0.0891993)
(0.00171346 -0.000868146 -0.0887943)
(-0.207657 -0.00939543 0.00735166)
(-0.00501033 -0.00078841 -0.129961)
(-0.0231025 -0.000793565 -0.0926344)
(0.00123092 -0.00257848 -0.113343)
(-0.121868 -0.00125968 0.0798954)
(0.00771738 -0.00374537 -0.0520645)
(-0.00473602 -0.0043223 -0.0318332)
(-0.00567285 -0.000702161 -0.0672134)
(-0.0442071 -0.00443352 0.000581448)
(-0.196138 -0.0146715 0.00540088)
(-0.00891213 0.00197705 -0.0575845)
(-0.178557 -0.0064199 -0.0403376)
(-0.18755 -0.00335033 -0.0462321)
(-0.00617279 -0.00461417 -0.0402548)
(-0.200841 -0.00301744 0.0248349)
(-0.037486 -0.00275185 -0.0785225)
(-0.873412 -0.0211402 -0.738275)
(0.371866 0.0358757 15.5565)
(-0.0444893 -0.000552882 -0.0815721)
(-0.218941 0.0280294 -0.787036)
(0.672212 0.0827529 1.26237)
(-0.0312735 -0.00317595 -0.0776681)
(-0.0284178 -0.00396227 -0.0793423)
(-0.839884 0.235715 -51.1376)
(-2.59349 -0.0269135 -65.5093)
(0.00153922 0.000245709 -0.0951783)
(0.0267181 0.000347113 -0.0220916)
(-0.0048591 0.00238864 -0.136333)
(0.0594359 0.0155232 13.7546)
(0.540211 -0.206049 7.04789)
(-0.229526 -0.0162492 0.0272251)
(-0.19945 -0.00534799 0.0301903)
(-0.223182 -0.0138567 0.0306148)
(0.00266553 0.00300598 -0.154083)
(-0.0492921 -0.000137013 -0.120252)
(0.0284706 0.00250052 -0.0918054)
(0.751471 -0.2566 7.57102)
(-0.0648501 -0.0047398 -0.0371924)
(-0.00218085 0.00219133 -0.0870837)
(-0.444952 0.0264654 0.197233)
(-0.0300015 -0.00324253 -0.0156294)
(0.000117462 -0.00298488 -0.0951463)
(0.152874 0.0103062 -0.0695382)
(0.0146064 0.000165835 -0.0926131)
(0.0437599 0.00296952 -0.160836)
(0.0146527 0.0119457 -0.120553)
(0.0192674 0.000228226 -0.0937483)
(0.00399294 0.00130348 -0.101305)
(0.00734286 0.002179 -0.123536)
(-0.0180999 -0.00326725 -0.0794807)
(-0.0138212 0.00381945 -0.093272)
(-0.00566476 0.000225358 -0.115194)
(-0.00383228 -0.000377123 -0.100607)
(-0.0225922 -0.00246758 -0.094415)
(-0.00840265 -0.00504983 -0.0848685)
(0.233319 0.0139308 -0.103319)
(-0.0359816 0.000792085 -0.0674099)
(-0.00185273 -0.000501658 -0.0898949)
(-0.133859 0.0146935 -0.194089)
(0.0123354 -0.00364468 -0.151712)
(0.00936082 -0.00532683 -0.0758096)
(0.421975 -0.0154769 -0.926382)
(-0.0861946 0.00172285 -0.20072)
(0.0462542 0.00269257 -0.346805)
(-0.000959114 0.00222279 -0.11431)
(-0.0354139 -0.00302588 -0.0950005)
(-0.0346738 0.00010767 -0.0890983)
(0.0027534 0.000471351 -0.0893703)
(-0.031845 -1.96077e-05 -0.0868623)
(0.00543353 0.000668589 -0.0840386)
(0.0112796 -0.000131611 -0.102782)
(-0.00227993 0.00618886 -0.156274)
(-0.00459468 0.00211978 -0.156484)
(-0.0359835 -0.000469151 -0.0907216)
(-0.0394045 -0.00462807 -0.094548)
(0.00297582 5.16357e-05 -0.0888923)
(-0.0380473 -0.00342807 -0.0925108)
(-0.00676994 0.00109215 -0.125309)
(-0.0371607 -0.000491046 -0.0855109)
(0.00272816 -0.00212514 -0.153895)
(-0.00719017 -0.00518812 -0.0493319)
(0.00948489 0.0051687 -0.0970103)
(-0.0193352 -0.0022658 -0.0915106)
(-0.0189802 -0.00194454 -0.0906171)
(-0.119844 -0.0127097 -0.32563)
(-0.0699646 -0.0208668 -0.364069)
(-0.260517 -0.00430791 -0.00814954)
(-0.203689 -0.00652325 0.0453846)
(-0.00994766 -0.00813588 -0.0692031)
(-0.00378887 0.000651794 -0.104965)
(-1.87596 0.111254 -50.7423)
(0.126223 0.00157295 -0.0916647)
(-0.26958 -0.00268749 0.0441444)
(-0.720546 -0.0178138 13.9829)
(0.0898773 -0.0003694 0.0300563)
(0.072201 0.00538755 -0.033784)
(-0.0296962 -0.0021608 -0.1029)
(-0.473854 -0.0476 -0.182767)
(0.014819 -2.71903e-05 -0.0933777)
(0.0145786 -0.000125478 -0.0936939)
(0.011448 0.00203944 -0.0957349)
(-0.0260771 -0.000454439 -0.126226)
(-0.00175384 2.15134e-05 -0.160161)
(-0.00146672 -0.00551779 -0.128198)
(-0.00981085 0.00181659 -0.121198)
(-0.0125448 -0.00256299 -0.10303)
(0.0114112 -0.00676042 -0.0847227)
(-0.00262363 -0.000134414 -0.107156)
(-0.0073094 0.00257215 -0.107336)
(-0.00333529 -0.000188672 -0.111632)
(-0.00920767 -5.11692e-05 -0.106885)
(-0.245416 -0.0139172 -0.324448)
(-0.00578864 0.000351288 -0.124286)
(-0.00713152 -0.00497029 -0.124103)
(0.0133667 0.000223369 -0.0943796)
(-0.00104924 -0.00157673 -0.126214)
(-0.0239432 -0.00246154 -0.0403144)
(-0.0110686 0.0056063 -0.089211)
(-0.00140312 -0.000448199 -0.118199)
(-0.00629722 0.00299578 -0.108813)
(-0.0145782 -0.000218266 -0.110575)
(-0.0155878 -0.00139638 -0.108417)
(-0.0231459 3.49212e-05 -0.106089)
(-0.0187715 -0.000749127 -0.106688)
(-0.0165143 -0.00534106 -0.107529)
(-0.0211763 -0.00297933 -0.104743)
(0.000591431 -0.00342633 -0.0818133)
(-0.0323844 -0.000515385 -0.014466)
(-0.0201148 0.000309936 -0.0399131)
(-0.0254488 -0.00292585 -0.023478)
(-0.0101216 -0.00662624 -0.0844133)
(-0.0207555 0.00109702 -0.0288265)
(-0.0402708 -0.00343385 -0.0125275)
(-0.0373911 -0.00355059 -0.014782)
(-0.0365688 -0.00348667 -0.0990709)
(-0.0103317 0.00222459 -0.0171717)
(-0.0169577 0.000728618 -0.114838)
(-0.0173364 0.000735043 -0.112142)
(-0.0145159 0.00659204 -0.125319)
(-0.022453 -0.00129627 0.016415)
(-0.0559664 -0.00149926 0.00632923)
(-0.0277503 -0.000169214 -0.0829396)
(0.00326905 -0.00023692 -0.119019)
(-0.186752 -0.0600809 20.9257)
(-0.15444 -0.0110062 -0.0267498)
(-0.229794 -0.00791434 -0.0219153)
(-0.193803 -0.00359846 0.00447218)
(0.0170139 -0.000233609 -0.0244647)
(-0.00162045 0.0033021 -0.122236)
(0.036614 -0.00130294 -0.068832)
(0.00539694 -0.00326764 -0.0389959)
(-0.146646 -0.00675064 0.0732033)
(-0.00791503 0.00233456 -0.0966421)
(-0.122642 -0.0072486 -0.0578357)
(0.545871 -0.0444519 19.2855)
(0.0021243 -0.000152132 -0.0891261)
(-0.00500422 -0.000196412 -0.0887953)
(0.0175222 0.00193545 -0.115565)
(0.00725316 -0.000839648 -0.0895788)
(-0.00946784 -0.00664003 -0.0842643)
(0.730572 -0.203172 7.83063)
(-0.000461069 0.000114483 -0.0892336)
(0.00385118 0.00669358 -0.112156)
(0.00793878 4.29559e-05 -0.0905661)
(-0.0889303 -0.0038346 0.015332)
(-0.0206514 -0.00128878 -0.0767713)
(-0.0239495 0.00017107 -0.0774349)
(-0.0330445 -0.00177035 0.036143)
(-0.0799494 -0.00274098 0.00752067)
(-0.0983263 -0.00620592 0.0120195)
(0.000722203 -0.00256619 -0.0989963)
(-0.00878771 -0.00584015 -0.0682642)
(0.020217 0.00181354 -0.0592719)
(0.0470238 0.00364909 -0.0616293)
(0.0283027 0.000254716 -0.0528363)
(-0.00635932 -0.000699107 -0.118557)
(0.0255015 0.0037785 -0.0585752)
(0.00646424 -0.00487464 -0.0454488)
(0.00263634 -0.0025552 -0.0598393)
(0.00485611 0.0018837 -0.134748)
(0.702216 -0.262467 11.6931)
(-0.0078551 -0.00634286 -0.0818188)
(-0.00313817 5.23573e-05 -0.0909476)
(0.14764 -0.00047189 0.0254328)
(0.011923 0.000712227 -0.0862319)
(0.00785008 0.000404556 -0.0864101)
(0.01411 8.90927e-05 -0.0775365)
(0.0111017 0.000364814 -0.108006)
(0.00206242 -0.000699576 -0.0970785)
(0.00221357 -0.00651799 -0.163295)
(-2.25087 0.123316 -59.8139)
(0.0063883 -0.000152316 -0.0878283)
(0.0140563 0.001085 -0.134012)
(-0.00287268 0.00289272 -0.135095)
(-0.185612 -0.00238154 -0.095874)
(0.000548745 0.0014092 -0.131262)
(0.0700119 0.00405935 -0.125994)
(0.0103112 0.00752423 -0.0866609)
(-0.15581 -0.00227609 -0.188636)
(-0.0306708 -0.000230525 0.0125438)
(-0.0227559 0.000235145 -0.0280895)
(-0.0356684 -0.00325793 -0.0249258)
(-0.0454067 -0.000606206 -0.0199522)
(0.02046 0.000278968 -0.0827052)
(-0.0501859 -0.00438049 -0.023435)
(-0.0179544 0.000114159 -0.0227812)
(0.00957399 0.0033927 -0.092797)
(0.0165155 8.52136e-05 -0.128849)
(0.078122 0.00404112 -0.165872)
(-0.0254603 6.46409e-05 -0.17694)
(0.0757829 0.00475128 -0.178277)
(0.2545 0.013696 -0.100979)
(0.348911 0.0119391 -0.345458)
(0.125406 0.0091441 -0.107457)
(0.101213 0.00757272 -0.101547)
(-0.0224597 0.00142434 -0.150758)
(-0.00239122 0.000196411 -0.094042)
(-0.0137205 -0.000619411 -0.0891676)
(-0.0198925 -0.00226477 -0.091018)
(-0.253994 0.0128681 0.339912)
(0.000984686 0.00380159 -0.0906299)
(0.0203122 -0.000172984 -0.0955422)
(0.00325153 -0.00174514 -0.0885122)
(0.0860809 0.00770286 0.0369734)
(0.022531 0.00329154 -0.0306995)
(0.0489883 0.00338359 -0.121043)
(0.611081 -0.218004 7.27832)
(-0.0359326 -0.000636327 -0.108224)
(-0.00133508 0.00285897 -0.13078)
(0.0116243 0.000758897 -0.0889491)
(-0.0446778 -0.00306219 -0.164213)
(-0.0140555 -0.00169134 -0.0591157)
(-0.0134205 0.000952895 -0.0611841)
(-0.001007 0.000759414 -0.12769)
(0.0284068 0.00260127 -0.0587361)
(-0.103488 -0.00104924 -0.104378)
(0.0271948 0.00273595 -0.0680546)
(-0.0940862 -0.00614163 -0.0512471)
(0.0289303 8.75003e-05 -0.06566)
(0.0247275 0.00214996 -0.0696527)
(0.0266896 -0.00101884 -0.0661712)
(0.0110485 0.000741488 -0.0722013)
(0.0131251 0.00076016 -0.0941013)
(0.01879 1.56682e-05 -0.0872429)
(0.0485355 0.00534353 -0.0640258)
(0.00470831 -0.0021346 -0.0291805)
(-0.187194 -0.000626424 -0.160154)
(0.00358067 0.00331669 -0.0851448)
(0.0552108 0.00407215 -0.173819)
(-0.0110871 -0.000376852 -0.0812828)
(-0.041892 -0.0100288 -0.13353)
(0.00181518 0.0012455 -0.0833174)
(-0.0632617 -0.000896791 -0.137717)
(0.975595 0.137793 2.25757)
(-0.0657719 0.000207574 -0.165575)
(-0.0569835 0.00296448 -0.169974)
(-0.0115658 0.0111216 -0.088056)
(-0.00971463 0.00302685 -0.109887)
(-0.0786221 0.00298257 -0.146123)
(-0.111982 -0.00199356 -0.0575354)
(-0.0847235 -0.0011624 -0.163455)
(-0.00419786 0.000300629 -0.0958486)
(-0.00585023 -0.00035199 -0.0831231)
(-0.0234985 -0.00192594 -0.0847024)
(-0.0622356 -0.00369468 0.0193368)
(-0.0636349 -0.00352769 -0.026693)
(-0.00904015 0.000140092 -0.0653651)
(-0.0263067 -0.00175027 -0.079763)
(-0.0603666 -0.00113768 -0.024015)
(-0.0969085 -0.00082055 0.0173606)
(-0.00102012 -0.00131013 -0.109802)
(0.00809055 -0.00851742 -0.0734623)
(-0.0806839 -0.00344928 -0.00896927)
(0.00944221 -0.00518045 -0.0743363)
(0.000805995 0.00436045 -0.121801)
(0.000938428 0.00157501 -0.135869)
(-0.0860659 -0.0073603 -0.0063639)
(-0.0837709 -0.00788595 -0.00946391)
(-0.00916391 -0.00582505 -0.071268)
(-0.00439483 0.00616296 -0.151326)
(0.0106037 -0.00576018 -0.0889575)
(-0.076401 -0.00246565 -0.0116612)
(0.0422438 0.000184299 -0.0829086)
(-2.40449 -0.0204685 -63.4079)
(0.000466549 -0.000455633 -0.118219)
(-0.0647073 -0.000826977 -0.0957809)
(0.00106283 -0.000401883 -0.0877004)
(-0.000760974 0.00131347 -0.15737)
(-0.0103932 -0.0114034 -0.0902262)
(-0.0713066 -0.000622351 -0.0823819)
(-0.00283578 0.00915592 -0.152532)
(-0.00309303 0.00115943 -0.0839877)
(-0.0854791 -0.0010466 -0.0936848)
(0.0111042 -0.00578819 -0.0888134)
(0.00387381 0.0014182 -0.0850436)
(-0.119423 -0.00833461 0.0353492)
(-0.0037552 0.00102002 -0.153662)
(-0.0909745 -0.00212024 0.00144292)
(0.000197758 0.000716576 -0.0837517)
(-0.145431 -0.0025256 0.00771203)
(-0.070291 -0.0753498 16.8139)
(0.0385251 0.00144197 -0.130808)
(0.00571272 0.00469362 -0.0486748)
(0.0536843 0.000411821 -0.0977007)
(0.120086 -0.000923364 -0.0214275)
(0.00398803 0.000574114 -0.103872)
(-0.00213906 -0.00141492 -0.148907)
(0.00799453 -0.00863201 -0.0673443)
(-0.0075612 0.00129968 -0.122974)
(-0.179948 -0.012776 0.0271697)
(-0.0796254 -0.000805691 -0.115131)
(-0.00707008 0.00187854 -0.0556636)
(-0.00424651 0.00389838 -0.0477013)
(-0.00347995 0.00229284 -0.137217)
(-0.00146068 -0.000207868 -0.108476)
(-0.00304862 0.00202352 -0.132045)
(0.00500479 0.000507641 -0.139938)
(0.00952351 -0.00255653 -0.108621)
(-0.000819644 0.00128441 -0.151771)
(0.00514375 0.00301798 -0.134538)
(-0.00179949 -0.0112519 -0.142379)
(0.00246019 -0.00324445 -0.118251)
(-0.00612208 0.00222575 -0.0929317)
(-0.000333787 -0.00198156 -0.0677098)
(0.00711863 -0.000832579 -0.139668)
(0.00449802 0.00065065 -0.134021)
(-0.0240379 4.69717e-05 -0.0813363)
(-0.0242838 0.000633599 -0.0799375)
(0.00727331 -0.00861767 -0.064141)
(-0.00115826 0.00202107 -0.153857)
(0.000973682 0.000576935 -0.142353)
(-0.0132482 -0.00358554 -0.103972)
(0.094186 0.00269799 -0.114319)