/*--------------------------------*- C++ -*----------------------------------*\
| =========                 |                                                 |
| \\      /  F ield         | OpenFOAM: The Open Source CFD Toolbox           |
|  \\    /   O peration     | Version:  v2012                                 |
|   \\  /    A nd           | Website:  www.openfoam.com                      |
|    \\/     M anipulation  |                                                 |
\*---------------------------------------------------------------------------*/
FoamFile
{
    version     2.0;
    format      ascii;
    class       volScalarField;
    location    "0.05";
    object      alpha.water;
}
// * * * * * * * * * * * * * * * * * * * * * * * * * * * * * * * * * * * * * //

dimensions      [0 0 0 0 0 0 0];


internalField   nonuniform List<scalar> 
3338
(
4.88316e-16
2.96592e-20
6.3313e-31
1.86791e-35
1.47581e-39
1.64739e-43
1.7933e-47
1.61331e-51
1.20352e-55
7.19973e-60
3.29497e-64
1.08216e-68
-2.83426e-110
-3.29642e-124
1.68569e-79
1.7486e-82
2.77045e-85
9.78342e-88
8.01773e-90
1.06919e-91
5.41083e-94
3.60638e-10
2.06699e-13
2.78475e-21
3.19651e-25
7.42492e-29
2.17528e-32
6.28306e-36
1.58736e-39
3.50451e-43
6.74645e-47
1.18423e-50
2.02207e-54
3.4697e-58
6.56822e-62
1.46592e-65
4.09669e-69
1.64081e-72
1.07016e-75
1.04469e-78
1.04718e-81
2.37074e-85
1.26943e-08
9.34485e-12
2.06621e-19
2.45537e-23
6.00049e-27
1.86384e-30
5.78267e-34
1.59711e-37
3.95643e-41
8.84915e-45
1.88811e-48
4.12448e-52
9.53433e-56
2.5551e-59
8.48603e-63
3.72045e-66
2.43161e-69
2.62438e-72
4.46158e-75
9.64784e-78
9.58904e-81
2.17402e-07
2.06165e-10
7.93945e-18
9.69476e-22
2.45672e-25
8.07664e-29
2.6973e-32
8.16793e-36
2.26997e-39
5.83755e-43
1.46609e-46
3.8453e-50
1.08345e-53
3.58742e-57
1.50117e-60
8.55503e-64
7.49201e-67
1.10623e-69
2.70666e-72
9.82328e-75
2.69944e-77
2.4066e-06
2.93501e-09
2.08505e-16
2.66231e-20
6.83535e-24
2.3686e-27
8.52218e-31
2.83233e-34
8.8043e-38
2.57318e-41
7.42328e-45
2.25172e-48
7.36784e-52
2.84569e-55
1.40311e-58
9.59565e-62
1.02463e-64
1.86903e-67
5.87385e-70
3.03722e-72
1.60716e-74
1.92861e-05
3.01205e-08
4.15488e-15
5.76232e-19
1.46401e-22
5.30765e-26
2.05543e-29
7.48801e-33
2.58983e-36
8.50182e-40
2.76444e-43
9.45969e-47
3.49184e-50
1.52269e-53
8.5243e-57
6.69e-60
8.25423e-63
1.75115e-65
6.57206e-68
4.33249e-70
3.46013e-72
0.000118521
2.37417e-07
6.60143e-14
1.04372e-17
2.59016e-21
9.72128e-25
4.03943e-28
1.60758e-31
6.14419e-35
2.24035e-38
8.08863e-42
3.06733e-45
1.25249e-48
6.03589e-52
3.74502e-55
3.27526e-58
4.50797e-61
1.06978e-63
4.57279e-66
3.58466e-68
3.76816e-70
0.000576719
1.49944e-06
8.63323e-13
1.62393e-16
3.95371e-20
1.51798e-23
6.73377e-27
2.9126e-30
1.22084e-33
4.89416e-37
1.93848e-40
8.0376e-44
3.57889e-47
1.87714e-50
1.2689e-53
1.21123e-56
1.81621e-59
4.70378e-62
2.22666e-64
1.99434e-66
2.55327e-68
0.00225876
7.8196e-06
9.4901e-12
2.18907e-15
5.3458e-19
2.07716e-22
9.77459e-26
4.56713e-29
2.08335e-32
9.09894e-36
3.91488e-39
1.75627e-42
8.43426e-46
4.75992e-49
3.46065e-52
3.55086e-55
5.70571e-58
1.58566e-60
8.13805e-63
8.04112e-65
1.1688e-66
0.00706718
3.42117e-05
8.88967e-11
2.56527e-14
6.49146e-18
2.53572e-21
1.25733e-24
6.30606e-28
3.10784e-31
1.46701e-34
6.80094e-38
3.27327e-41
1.68072e-44
1.01154e-47
7.8313e-51
8.53807e-54
1.45246e-56
4.2738e-59
2.33179e-61
2.45513e-63
3.7989e-65
0.016595
0.000123382
7.15332e-10
2.63157e-13
7.1202e-17
2.79313e-20
1.45032e-23
7.76134e-27
4.10562e-30
2.08029e-33
1.0321e-36
5.29273e-40
2.88545e-43
1.83892e-46
1.50405e-49
1.72681e-52
3.08098e-55
9.48933e-58
5.40569e-60
5.88602e-62
9.22686e-64
0.025559
0.00033703
4.93609e-09
2.38323e-12
7.07517e-16
2.79569e-19
1.5125e-22
8.59127e-26
4.85051e-29
2.62281e-32
1.38473e-35
7.52336e-39
4.33012e-42
2.90555e-45
2.49467e-48
2.99503e-51
5.56296e-54
1.77576e-56
1.04013e-58
1.14442e-60
1.75625e-62
0.0268957
0.000594689
2.8946e-08
1.92034e-11
6.37446e-15
2.55372e-18
1.43429e-21
8.61049e-25
5.16409e-28
2.96538e-31
1.65817e-34
9.5e-38
5.74603e-41
4.04071e-44
3.62337e-47
4.5239e-50
8.69495e-53
2.85284e-55
1.69755e-57
1.85635e-59
2.72801e-61
0.0255663
0.000664038
1.4259e-07
1.37778e-10
5.1972e-14
2.13442e-17
1.24193e-20
7.85394e-24
4.98454e-27
3.02727e-30
1.78582e-33
1.07474e-36
6.80603e-40
4.99706e-43
4.66114e-46
6.02636e-49
1.19285e-51
3.99662e-54
2.39471e-56
2.5742e-58
3.57379e-60
0.0208576
0.000638626
5.78712e-07
8.71263e-10
3.82438e-13
1.63537e-16
9.85029e-20
6.54647e-23
4.3833e-26
2.80623e-29
1.74074e-32
1.09698e-35
7.25204e-39
5.54268e-42
5.36147e-45
7.15549e-48
1.4534e-50
4.94921e-53
2.96868e-55
3.11556e-57
4.05039e-59
0.0133758
0.000544143
1.87193e-06
4.7661e-09
2.54385e-12
1.15016e-15
7.1743e-19
5.0029e-22
3.52588e-25
2.37318e-28
1.54386e-31
1.01619e-34
6.99728e-38
5.55455e-41
5.55954e-44
7.64288e-47
1.58914e-49
5.48368e-52
3.28155e-54
3.34835e-56
4.04755e-58
0.00707707
0.000427981
4.65531e-06
2.18836e-08
1.54373e-11
7.43086e-15
4.80827e-18
3.515e-21
2.60308e-24
1.83818e-27
1.25144e-30
8.58671e-34
6.14855e-37
5.06145e-40
5.2347e-43
7.40394e-46
1.57394e-48
5.49621e-51
3.27593e-53
3.24032e-55
3.61494e-57
0.00459967
0.000397873
9.01258e-06
8.10816e-08
8.62195e-11
4.41445e-14
2.97068e-17
2.27584e-20
1.76895e-23
1.30851e-26
9.30737e-30
6.64796e-33
4.94513e-36
4.21776e-39
4.5049e-42
6.55419e-45
1.42437e-47
5.03321e-50
2.98604e-52
2.85475e-54
2.91203e-56
0.00426682
0.000409448
1.52751e-05
2.34601e-07
4.4153e-10
2.41582e-13
1.69469e-16
1.36075e-19
1.1093e-22
8.58608e-26
6.3732e-29
4.7347e-32
3.65708e-35
3.23123e-38
3.56519e-41
5.3395e-44
1.18743e-46
4.24953e-49
2.50828e-51
2.30859e-53
2.12795e-55
0.00427703
0.000459618
2.41666e-05
5.4892e-07
2.02308e-09
1.21849e-12
8.94037e-16
7.52777e-19
6.43406e-22
5.20744e-25
4.03065e-28
3.1135e-31
2.49755e-34
2.28731e-37
2.61007e-40
4.03068e-43
9.18925e-46
3.33465e-48
1.95633e-50
1.72364e-52
1.41463e-54
0.0043455
0.000550536
3.62926e-05
1.11297e-06
7.92357e-09
5.65279e-12
4.36838e-15
3.86019e-18
3.45913e-21
2.92665e-24
2.36146e-27
1.89717e-30
1.58178e-33
1.50356e-36
1.77805e-39
2.83832e-42
6.64923e-45
2.44915e-47
1.42502e-49
1.19248e-51
8.55911e-54
0.00446245
0.000654478
5.18447e-05
2.02968e-06
2.51919e-08
2.41446e-11
1.98028e-14
1.8383e-17
1.72752e-20
1.52798e-23
1.28549e-26
1.07503e-29
9.33011e-33
9.22518e-36
1.13383e-38
1.87676e-41
4.52864e-44
1.69343e-46
9.73407e-49
7.65735e-51
4.70496e-53
0.00456712
0.000750767
7.05467e-05
3.40347e-06
6.3743e-08
9.58889e-11
8.34273e-14
8.14612e-17
8.03186e-20
7.42995e-23
6.52205e-26
5.68615e-29
5.14862e-32
5.31151e-35
6.80943e-38
1.17274e-40
2.92039e-43
1.10734e-45
6.25065e-48
4.56353e-50
2.34125e-52
0.00464309
0.000837239
9.16868e-05
5.32248e-06
1.36362e-07
3.58226e-10
3.27267e-13
3.36653e-16
3.48502e-19
3.37435e-22
3.09459e-25
2.81892e-28
2.67111e-31
2.88632e-34
3.8757e-37
6.96736e-40
1.79206e-42
6.8693e-45
3.77637e-47
2.52005e-49
1.04937e-51
0.0047043
0.000917018
0.000114292
7.84453e-06
2.58237e-07
1.24637e-09
1.19915e-12
1.3009e-15
1.41513e-18
1.43589e-21
1.3785e-24
1.31591e-27
1.30997e-30
1.48944e-33
2.10368e-36
3.95713e-39
1.05041e-41
4.04918e-44
2.14518e-46
1.28572e-48
4.21308e-51
0.00475773
0.00099106
0.000137476
1.09856e-05
4.44388e-07
3.85904e-09
4.11714e-12
4.71523e-15
5.3956e-18
5.74695e-21
5.79126e-24
5.81533e-27
6.11014e-30
7.34621e-33
1.09549e-35
2.15832e-38
5.89547e-41
2.26831e-43
1.14355e-45
6.0376e-48
1.50666e-50
0.00480361
0.00105916
0.000160678
1.47046e-05
7.06995e-07
9.99704e-09
1.32637e-11
1.60928e-14
1.93957e-17
2.17355e-20
2.30717e-23
2.44817e-26
2.72895e-29
3.48584e-32
5.50252e-35
1.13423e-37
3.17116e-40
1.20606e-42
5.70394e-45
2.59848e-47
4.77405e-50
0.00484778
0.00112222
0.000183657
1.89007e-05
1.05408e-06
2.1429e-08
4.02673e-11
5.19689e-14
6.60722e-17
7.81326e-20
8.77359e-23
9.8886e-26
1.17546e-28
1.60116e-31
2.67705e-34
5.75293e-37
1.63374e-39
6.07176e-42
2.65246e-44
1.02033e-46
1.33369e-49
0.00490061
0.00118279
0.000206453
2.34581e-05
1.49058e-06
4.01338e-08
1.1693e-10
1.59736e-13
2.14667e-16
2.68851e-19
3.20939e-22
3.86253e-25
4.91768e-28
7.15635e-31
1.26478e-33
2.8164e-36
8.04524e-39
2.88472e-41
1.14534e-43
3.64038e-46
3.26994e-49
0.00497472
0.00124497
0.000229553
2.83415e-05
2.02487e-06
6.82504e-08
3.29191e-10
4.70753e-13
6.70466e-16
8.93069e-19
1.13913e-21
1.47073e-24
2.01075e-27
3.12323e-30
5.80657e-33
1.32862e-35
3.77502e-38
1.28843e-40
4.57383e-43
1.17424e-45
7.01024e-49
0.00508769
0.00131453
0.000254139
3.36851e-05
2.67741e-06
1.08332e-07
8.82457e-10
1.34273e-12
2.03197e-15
2.89117e-18
3.95807e-21
5.4984e-24
8.07105e-27
1.33275e-29
2.58697e-32
6.02126e-35
1.68129e-37
5.38799e-40
1.68208e-42
3.41327e-45
1.32063e-48
0.00526137
0.00139941
0.000282217
3.98278e-05
3.48815e-06
1.64051e-07
2.13456e-09
3.74255e-12
6.03708e-15
9.20935e-18
1.35699e-20
2.02868e-23
3.18631e-26
5.55472e-29
1.11507e-31
2.61094e-34
7.07728e-37
2.10076e-39
5.67328e-42
8.91518e-45
2.15649e-48
0.00552468
0.00151027
0.00031667
4.73154e-05
4.52324e-06
2.41388e-07
4.49889e-09
1.0279e-11
1.77576e-14
2.90993e-17
4.6153e-20
7.40253e-23
1.23596e-25
2.25406e-28
4.62993e-31
1.07828e-33
2.8032e-36
7.60428e-39
1.74918e-41
2.0755e-44
3.20756e-48
0.00591673
0.0016612
0.000361396
5.69271e-05
5.88601e-06
3.50225e-07
8.60296e-09
2.81665e-11
5.21096e-14
9.16659e-17
1.55999e-19
2.66785e-22
4.69375e-25
8.86322e-28
1.84253e-30
4.22055e-33
1.04007e-35
2.54589e-38
4.91316e-41
4.2834e-44
4.4696e-48
0.00648881
0.00187082
0.00042168
6.97761e-05
7.74017e-06
5.07426e-07
1.55087e-08
7.80977e-11
1.53119e-13
2.88085e-16
5.22875e-19
9.45511e-22
1.73561e-24
3.35779e-27
6.98988e-30
1.55809e-32
3.59996e-35
7.85771e-38
1.24995e-40
7.92779e-44
4.96958e-48
0.00730742
0.00216417
0.00050494
8.75218e-05
1.03529e-05
7.42388e-07
2.70923e-08
2.16982e-10
4.49975e-13
8.99978e-16
1.72828e-18
3.27391e-21
6.20783e-24
1.21814e-26
2.51422e-29
5.40051e-32
1.15821e-34
2.22687e-37
2.8627e-40
1.33248e-43
4.82529e-48
0.00845986
0.00257572
0.000621918
0.000112716
1.41652e-05
1.10634e-06
4.67667e-08
5.75911e-10
1.315e-12
2.77509e-15
5.59012e-18
1.09918e-20
2.13293e-23
4.20652e-26
8.53203e-29
1.75039e-31
3.45044e-34
5.76271e-37
5.9076e-40
1.9483e-43
4.0943e-48
0.0100614
0.00315325
0.000788262
0.000149282
1.98935e-05
1.6869e-06
8.07467e-08
1.39037e-09
3.78869e-12
8.37162e-15
1.75439e-17
3.55087e-20
6.99364e-23
1.37516e-25
2.7193e-28
5.28361e-31
9.47297e-34
1.35489e-36
1.10979e-39
2.266e-43
2.82203e-48
0.0122605
0.00396138
0.0010262
0.000203078
2.86641e-05
2.62921e-06
1.40012e-07
3.10525e-09
1.06564e-11
2.44807e-14
5.29824e-17
1.09589e-19
2.17526e-22
4.2345e-25
8.10363e-28
1.47842e-30
2.38416e-33
2.89431e-36
1.90296e-39
2.27415e-43
1.64947e-48
0.0152383
0.00508327
0.00136581
0.000282444
4.21648e-05
4.16332e-06
2.43226e-07
6.55642e-09
2.89652e-11
6.87781e-14
1.52785e-16
3.2099e-19
6.38182e-22
1.22205e-24
2.24697e-27
3.81518e-30
5.48303e-33
5.65524e-36
2.85369e-39
2.18294e-43
9.08255e-49
0.0191978
0.00661846
0.0018452
0.000398538
6.27826e-05
6.6351e-06
4.20666e-07
1.32199e-08
7.53665e-11
1.84081e-13
4.17624e-16
8.86631e-19
1.75607e-21
3.28785e-24
5.7675e-27
9.04442e-30
1.1541e-32
1.01542e-35
3.43585e-39
1.89342e-43
4.97581e-49
0.0243397
0.00867457
0.00250869
0.000565192
9.36662e-05
1.05325e-05
7.18631e-07
2.55348e-08
1.85983e-10
4.65652e-13
1.07453e-15
2.2952e-18
4.50667e-21
8.20468e-24
1.36502e-26
1.96876e-29
2.23577e-32
1.63973e-35
3.49013e-39
1.41535e-43
2.71928e-49
0.0308145
0.0113486
0.0034012
0.000797756
0.000138601
1.64906e-05
1.20283e-06
4.722e-08
4.31846e-10
1.10579e-12
2.58662e-15
5.53819e-18
1.07364e-20
1.89252e-23
2.97604e-26
3.94886e-29
3.98832e-32
2.21364e-35
3.40223e-39
9.00662e-44
1.47996e-49
0.0386552
0.0146952
0.0045571
0.00111022
0.000201501
2.52416e-05
1.95719e-06
8.33847e-08
9.42006e-10
2.45357e-12
5.80106e-15
1.24129e-17
2.36883e-20
4.03332e-23
5.99235e-26
7.32122e-29
6.38487e-32
2.39732e-35
3.06117e-39
5.04383e-44
8.02931e-50
0.0476995
0.0186838
0.00598212
0.00150963
0.000285203
3.74446e-05
3.07055e-06
1.40038e-07
1.91875e-09
5.07523e-12
1.21008e-14
2.58221e-17
4.84309e-20
7.96088e-23
1.11743e-25
1.24201e-28
8.53011e-32
2.38234e-35
2.40673e-39
2.64778e-44
4.30908e-50
0.0574957
0.0231428
0.0076284
0.00198762
0.000389404
5.33554e-05
4.60566e-06
2.22691e-07
3.57353e-09
9.78395e-12
2.34888e-14
4.99234e-17
9.19485e-20
1.45728e-22
1.91571e-25
1.83885e-28
9.18887e-32
2.26018e-35
1.59847e-39
1.37864e-44
2.2455e-50
0.0277847
0.00939838
0.00251981
0.000510085
7.26571e-05
6.57411e-06
3.34626e-07
6.10526e-09
1.75704e-11
4.24367e-14
8.97145e-17
1.61784e-19
2.44799e-22
2.90376e-25
2.20279e-28
9.12957e-32
1.93727e-35
9.01882e-40
7.30389e-45
1.10874e-50
0.0325068
0.0112464
0.00309126
0.000643802
9.48309e-05
8.93113e-06
4.74131e-07
9.56742e-09
2.91664e-11
7.08014e-14
1.48181e-16
2.58311e-19
3.60748e-22
3.60486e-25
2.24137e-28
8.67278e-32
1.42667e-35
4.57093e-40
3.92977e-45
5.05211e-51
0.012832
0.00360105
0.000766549
0.000115614
1.11755e-05
6.09588e-07
1.32515e-08
4.31488e-11
1.05116e-13
2.14924e-16
3.5131e-19
4.32642e-22
3.72434e-25
2.19677e-28
7.46544e-32
8.78069e-36
2.25963e-40
2.11053e-45
2.06788e-51
0.0131518
0.00372915
0.000802361
0.000122318
1.1952e-05
6.60443e-07
1.50744e-08
5.26471e-11
1.28636e-13
2.54076e-16
3.86516e-19
4.40707e-22
3.67163e-25
2.01346e-28
5.5316e-32
4.58733e-36
1.1507e-40
1.10274e-45
7.39428e-52
0.0130103
0.00369313
0.000795498
0.000121405
1.18765e-05
6.57387e-07
1.51128e-08
5.39763e-11
1.32115e-13
2.57552e-16
3.85584e-19
4.32556e-22
3.42167e-25
1.63525e-28
3.41083e-32
2.18595e-36
6.05578e-41
5.43458e-46
2.24339e-52
0.0125252
0.00355923
0.000767255
0.000117145
1.14623e-05
6.35289e-07
1.47179e-08
5.31256e-11
1.30118e-13
2.52367e-16
3.71232e-19
3.98648e-22
2.85719e-25
1.12265e-28
1.75898e-32
1.04464e-36
3.20881e-41
2.43969e-46
5.60315e-53
0.0115426
0.00327608
0.000704747
0.000107251
1.04488e-05
5.7752e-07
1.34386e-08
4.94785e-11
1.21328e-13
2.32005e-16
3.28943e-19
3.27327e-22
2.03337e-25
6.34895e-29
8.1083e-33
5.25184e-37
1.6566e-41
9.59585e-47
1.11979e-53
0.0100097
0.00282391
0.000602577
9.07192e-05
8.72033e-06
4.76502e-07
1.10263e-08
4.15139e-11
1.01907e-13
1.90246e-16
2.54799e-19
2.27926e-22
1.19094e-25
3.02382e-29
3.71837e-33
2.73364e-37
8.0529e-42
3.162e-47
1.75742e-54
0.00805541
0.00224165
0.000469996
6.91818e-05
6.46932e-06
3.44554e-07
7.77895e-09
2.98432e-11
7.33332e-14
1.32429e-16
1.64665e-19
1.29992e-22
5.76342e-26
1.32717e-29
1.81094e-33
1.41334e-37
3.54854e-42
8.27801e-48
2.1824e-55
0.0059994
0.0016306
0.000331843
4.70347e-05
4.20007e-06
2.13647e-07
4.55436e-09
1.75898e-11
4.33141e-14
7.52898e-17
8.64673e-20
6.1027e-23
2.47814e-26
6.00562e-30
9.23483e-34
6.96493e-38
1.35379e-42
1.61931e-48
2.28538e-56
0.00417959
0.00109904
0.000214541
2.88445e-05
2.41401e-06
1.1454e-07
2.19257e-09
8.34737e-12
2.06705e-14
3.48231e-17
3.77878e-20
2.54486e-23
1.06915e-26
2.91783e-30
4.69003e-34
3.14457e-38
4.21421e-43
2.22724e-49
2.38181e-57
0.00276937
0.000700475
0.000130225
1.64633e-05
1.27813e-06
5.56119e-08
9.0051e-10
3.32808e-12
8.34369e-15
1.39835e-17
1.518e-20
1.06898e-23
4.97105e-27
1.46466e-30
2.25893e-34
1.2424e-38
9.89196e-44
2.08882e-50
3.32933e-58
0.00176568
0.000429253
7.59404e-05
9.03007e-06
6.52685e-07
2.60344e-08
3.4238e-10
1.25301e-12
3.2057e-15
5.53399e-18
6.3439e-21
4.85643e-24
2.43147e-27
7.16136e-31
9.87445e-35
4.03671e-39
1.5831e-44
1.43845e-51
8.35714e-59
0.00108491
0.000254269
4.29551e-05
4.83202e-06
3.29139e-07
1.21843e-08
1.33757e-10
4.98789e-13
1.30774e-15
2.35904e-18
2.87022e-21
2.31995e-24
1.17485e-27
3.24013e-31
3.72536e-35
9.86264e-40
1.55249e-45
1.02e-52
3.71909e-59
0.00063755
0.000144824
2.34851e-05
2.51499e-06
1.63267e-07
5.67506e-09
5.56515e-11
2.12704e-13
5.71399e-16
1.06658e-18
1.33948e-21
1.09083e-24
5.29432e-28
1.29244e-31
1.1288e-35
1.60094e-40
8.85059e-47
1.36258e-53
2.3222e-59
0.000353031
7.82719e-05
1.22609e-05
1.25694e-06
7.82543e-08
2.56698e-09
2.34656e-11
9.17997e-14
2.52156e-16
4.79236e-19
6.03025e-22
4.75918e-25
2.1156e-28
4.26829e-32
2.4637e-36
1.49373e-41
3.59513e-48
3.99003e-54
1.69567e-59
0.00018003
3.92817e-05
5.98983e-06
5.91637e-07
3.54324e-08
1.09798e-09
9.4562e-12
3.78564e-14
1.05836e-16
2.01664e-19
2.47866e-22
1.82981e-25
7.05175e-29
1.05892e-32
3.33347e-37
7.22096e-43
2.7951e-49
1.8366e-54
1.32258e-59
8.16227e-05
1.76879e-05
2.64927e-06
2.54346e-07
1.46952e-08
4.3114e-10
3.51369e-12
1.43476e-14
4.04026e-17
7.57499e-20
8.82983e-23
5.813e-26
1.78324e-29
1.70908e-33
2.37849e-38
2.10422e-44
8.13117e-50
1.0517e-54
1.0583e-59
3.10875e-05
6.75737e-06
1.00379e-06
9.46787e-08
5.29858e-09
1.48202e-10
1.16531e-12
4.80814e-15
1.338e-17
2.39734e-20
2.53158e-23
1.37774e-26
2.96362e-30
1.50921e-34
8.3063e-40
1.34633e-45
4.21222e-50
6.92333e-55
8.5838e-60
9.06332e-06
1.99757e-06
2.97063e-07
2.78274e-08
1.51546e-09
4.09242e-11
3.22728e-13
1.32839e-15
3.55072e-18
5.81086e-21
5.18112e-24
2.09188e-27
2.71443e-31
6.4313e-36
2.08484e-41
4.94291e-46
2.55886e-50
5.16924e-55
7.1332e-60
1.75397e-06
3.96091e-07
5.94279e-08
5.57734e-09
2.9698e-10
7.89239e-12
6.58032e-14
2.66989e-16
6.61174e-19
9.30065e-22
6.40103e-25
1.70514e-28
1.20131e-32
1.51916e-37
2.66559e-42
3.06671e-46
1.65646e-50
4.33108e-55
6.04657e-60
1.89053e-07
4.38427e-08
6.65202e-09
6.28027e-10
3.2904e-11
8.83712e-13
8.25457e-15
3.27384e-17
7.23634e-20
8.22284e-23
4.04102e-26
6.70333e-30
2.8784e-34
8.48059e-39
1.49296e-42
2.0557e-46
1.16476e-50
3.92563e-55
4.99933e-60
1.06262e-08
2.39573e-09
3.57987e-10
3.36008e-11
1.74445e-12
4.87695e-14
5.33288e-16
2.06274e-18
3.98261e-21
3.56046e-24
1.25953e-27
1.5669e-31
1.38429e-35
3.89583e-39
1.06243e-42
1.3755e-46
9.24145e-51
3.67531e-55
3.78463e-60
7.72259e-10
1.18308e-10
1.35279e-11
1.07156e-12
5.09451e-14
1.40327e-15
1.71406e-17
6.50969e-20
1.13414e-22
8.86855e-26
3.30062e-29
1.13273e-32
6.10175e-36
2.83388e-39
7.49091e-43
9.62276e-47
8.19833e-51
3.4316e-55
2.49027e-60
2.89292e-10
3.3261e-11
2.69247e-12
1.44931e-13
4.57869e-15
6.52567e-17
5.21529e-19
1.9721e-21
4.06702e-24
5.49971e-27
6.24578e-30
6.13782e-33
4.52941e-36
2.09866e-39
5.11104e-43
7.61742e-47
7.71018e-51
3.09905e-55
1.39912e-60
1.89646e-10
2.12075e-11
1.64433e-12
8.25805e-14
2.32327e-15
2.26856e-17
1.21156e-19
4.70815e-22
1.3269e-24
2.77123e-27
4.25667e-30
4.69451e-33
3.42794e-36
1.4606e-39
3.701e-43
6.85209e-47
7.34642e-51
2.61224e-55
6.74924e-61
1.35565e-10
1.52837e-11
1.18771e-12
5.89561e-14
1.61284e-15
1.53396e-17
8.09127e-20
3.22592e-22
9.58088e-25
2.10553e-27
3.30428e-30
3.54219e-33
2.41226e-36
1.02547e-39
3.13191e-43
6.54636e-47
6.88438e-51
1.97336e-55
2.78635e-61
9.91519e-11
1.12034e-11
8.7133e-13
4.27472e-14
1.13472e-15
1.1006e-17
6.00671e-20
2.44094e-22
7.31299e-25
1.59434e-27
2.42416e-30
2.48074e-33
1.70395e-36
8.41107e-40
2.9633e-43
6.32031e-47
6.14734e-51
1.28139e-55
9.62005e-62
7.62366e-11
8.59122e-12
6.66485e-13
3.2267e-14
8.22362e-16
7.66443e-18
4.27032e-20
1.7533e-22
5.24247e-25
1.12877e-27
1.70283e-30
1.82303e-33
1.42465e-36
7.94308e-40
2.89005e-43
5.99915e-47
5.02255e-51
6.86504e-56
2.69796e-62
6.20665e-11
7.04499e-12
5.51545e-13
2.6888e-14
6.80237e-16
5.88057e-18
3.16622e-20
1.2848e-22
3.85711e-25
8.52007e-28
1.37305e-30
1.6183e-33
1.36417e-36
7.79472e-40
2.80767e-43
5.42688e-47
3.58004e-51
2.91153e-56
6.02926e-63
5.20645e-11
6.03164e-12
4.82995e-13
2.4163e-14
6.30875e-16
5.45517e-18
2.83043e-20
1.12886e-22
3.41661e-25
7.80576e-28
1.30696e-30
1.58162e-33
1.34566e-36
7.64544e-40
2.65137e-43
4.48336e-47
2.11296e-51
9.3615e-57
1.0729e-63
4.349e-11
5.20015e-12
4.29999e-13
2.22787e-14
6.06731e-16
5.44734e-18
2.8085e-20
1.11525e-22
3.37751e-25
7.72562e-28
1.29537e-30
1.56661e-33
1.32491e-36
7.34409e-40
2.34786e-43
3.20905e-47
9.74294e-52
2.18797e-57
1.556e-64
3.50306e-11
4.37122e-12
3.76821e-13
2.03887e-14
5.83368e-16
5.51084e-18
2.82812e-20
1.11926e-22
3.37582e-25
7.69629e-28
1.28589e-30
1.54366e-33
1.27924e-36
6.69455e-40
1.85481e-43
1.87171e-47
3.2778e-52
3.61274e-58
1.94247e-65
2.63215e-11
3.46829e-12
3.15249e-13
1.80118e-14
5.48164e-16
5.54472e-18
2.8413e-20
1.11977e-22
3.36656e-25
7.63416e-28
1.26355e-30
1.48654e-33
1.17479e-36
5.52101e-40
1.22875e-43
8.2609e-48
7.42828e-53
4.25866e-59
2.29269e-66
1.77822e-11
2.50339e-12
2.42896e-13
1.48491e-14
4.8846e-16
5.48569e-18
2.81687e-20
1.10864e-22
3.31245e-25
7.42343e-28
1.20136e-30
1.35196e-33
9.76948e-37
3.86779e-40
6.32629e-44
2.50691e-48
1.05e-53
3.90242e-60
2.908e-67
1.03582e-11
1.57472e-12
1.65033e-13
1.09427e-14
3.95809e-16
5.19222e-18
2.68895e-20
1.05683e-22
3.12336e-25
6.8358e-28
1.05833e-30
1.09895e-33
6.87768e-37
2.12528e-40
2.28947e-44
4.63275e-49
9.01381e-55
3.35747e-61
4.58298e-68
4.95022e-12
8.20368e-13
9.38594e-14
6.83795e-15
2.76515e-16
4.41448e-18
2.34994e-20
9.23631e-23
2.6805e-25
5.63093e-28
1.82391e-12
3.31991e-13
4.18547e-14
3.39038e-15
1.55655e-16
3.03473e-18
1.75422e-20
4.88318e-16
2.96586e-20
6.36089e-31
1.86788e-35
1.47567e-39
1.64722e-43
1.79413e-47
1.61551e-51
1.19682e-55
7.26308e-60
3.32101e-64
1.11867e-68
-1.23582e-97
9.91321e-77
1.54225e-79
1.69965e-82
2.79579e-85
9.76933e-88
8.01684e-90
1.06922e-91
5.41084e-94
3.60639e-10
2.06695e-13
2.7847e-21
3.19647e-25
7.42486e-29
2.17527e-32
6.28302e-36
1.58732e-39
3.50438e-43
6.74653e-47
1.18427e-50
2.02208e-54
3.46961e-58
6.56817e-62
1.46595e-65
4.09672e-69
1.64081e-72
1.07015e-75
1.04469e-78
1.0472e-81
2.37076e-85
1.26944e-08
9.34467e-12
2.06618e-19
2.45534e-23
6.00044e-27
1.86382e-30
5.78263e-34
1.59707e-37
3.95629e-41
8.84924e-45
1.88817e-48
4.12451e-52
9.53407e-56
2.55508e-59
8.48624e-63
3.72048e-66
2.43162e-69
2.62435e-72
4.46158e-75
9.64796e-78
9.5891e-81
2.17403e-07
2.06161e-10
7.93936e-18
9.69466e-22
2.4567e-25
8.07657e-29
2.69729e-32
8.16774e-36
2.26989e-39
5.8376e-43
1.46613e-46
3.84533e-50
1.08343e-53
3.58739e-57
1.50121e-60
8.55508e-64
7.49203e-67
1.10621e-69
2.70665e-72
9.8234e-75
2.69945e-77
2.40661e-06
2.93496e-09
2.08502e-16
2.66229e-20
6.83529e-24
2.36858e-27
8.52212e-31
2.83226e-34
8.80397e-38
2.5732e-41
7.4235e-45
2.25174e-48
7.36765e-52
2.84566e-55
1.40314e-58
9.59571e-62
1.02463e-64
1.869e-67
5.87383e-70
3.03725e-72
1.60716e-74
1.92861e-05
3.01199e-08
4.15484e-15
5.76226e-19
1.464e-22
5.3076e-26
2.05542e-29
7.48783e-33
2.58973e-36
8.50189e-40
2.76452e-43
9.45975e-47
3.49176e-50
1.52268e-53
8.52448e-57
6.69003e-60
8.25424e-63
1.75113e-65
6.57205e-68
4.33254e-70
3.46014e-72
0.000118522
2.37412e-07
6.60135e-14
1.0437e-17
2.59014e-21
9.7212e-25
4.0394e-28
1.60754e-31
6.14396e-35
2.24037e-38
8.08886e-42
3.06735e-45
1.25246e-48
6.03583e-52
3.7451e-55
3.27527e-58
4.50798e-61
1.06977e-63
4.57278e-66
3.58469e-68
3.76818e-70
0.000576721
1.49941e-06
8.63313e-13
1.62392e-16
3.95368e-20
1.51797e-23
6.73372e-27
2.91254e-30
1.2208e-33
4.89419e-37
1.93854e-40
8.03765e-44
3.5788e-47
1.87712e-50
1.26892e-53
1.21123e-56
1.81621e-59
4.70372e-62
2.22665e-64
1.99436e-66
2.55328e-68
0.00225877
7.81942e-06
9.49e-12
2.18904e-15
5.34575e-19
2.07715e-22
9.77452e-26
4.56703e-29
2.08328e-32
9.09899e-36
3.91498e-39
1.75628e-42
8.43407e-46
4.75988e-49
3.46072e-52
3.55087e-55
5.70572e-58
1.58564e-60
8.13803e-63
8.04119e-65
1.1688e-66
0.0070672
3.4211e-05
8.88958e-11
2.56524e-14
6.49139e-18
2.5357e-21
1.25732e-24
6.30591e-28
3.10773e-31
1.46702e-34
6.80111e-38
3.27328e-41
1.68068e-44
1.01153e-47
7.83144e-51
8.53811e-54
1.45246e-56
4.27374e-59
2.33178e-61
2.45515e-63
3.79891e-65
0.016595
0.00012338
7.15326e-10
2.63155e-13
7.12013e-17
2.79311e-20
1.45031e-23
7.76117e-27
4.10548e-30
2.0803e-33
1.03212e-36
5.29276e-40
2.88538e-43
1.83891e-46
1.50407e-49
1.72682e-52
3.08099e-55
9.48922e-58
5.40567e-60
5.88607e-62
9.2269e-64
0.0255591
0.000337025
4.93605e-09
2.3832e-12
7.07511e-16
2.79567e-19
1.51249e-22
8.59108e-26
4.85034e-29
2.62282e-32
1.38477e-35
7.52339e-39
4.33003e-42
2.90553e-45
2.49471e-48
2.99504e-51
5.56297e-54
1.77574e-56
1.04012e-58
1.14443e-60
1.75625e-62
0.0268957
0.000594684
2.89457e-08
1.92032e-11
6.3744e-15
2.5537e-18
1.43428e-21
8.6103e-25
5.16392e-28
2.96539e-31
1.65821e-34
9.50004e-38
5.74592e-41
4.04067e-44
3.62343e-47
4.52392e-50
8.69496e-53
2.85281e-55
1.69755e-57
1.85637e-59
2.72803e-61
0.0255663
0.000664033
1.42589e-07
1.37777e-10
5.19715e-14
2.13441e-17
1.24192e-20
7.85378e-24
4.98437e-27
3.02727e-30
1.78586e-33
1.07475e-36
6.8059e-40
4.99701e-43
4.66121e-46
6.02639e-49
1.19286e-51
3.99657e-54
2.3947e-56
2.57422e-58
3.5738e-60
0.0208576
0.000638622
5.78707e-07
8.71255e-10
3.82435e-13
1.63536e-16
9.85022e-20
6.54634e-23
4.38315e-26
2.80623e-29
1.74078e-32
1.09699e-35
7.25192e-39
5.54263e-42
5.36154e-45
7.15553e-48
1.4534e-50
4.94916e-53
2.96867e-55
3.11558e-57
4.05041e-59
0.0133758
0.00054414
1.87191e-06
4.76605e-09
2.54382e-12
1.15015e-15
7.17425e-19
5.0028e-22
3.52576e-25
2.37318e-28
1.54389e-31
1.01619e-34
6.99716e-38
5.5545e-41
5.55962e-44
7.64292e-47
1.58914e-49
5.48362e-52
3.28154e-54
3.34837e-56
4.04757e-58
0.00707705
0.000427979
4.65527e-06
2.18834e-08
1.54371e-11
7.43079e-15
4.80824e-18
3.51493e-21
2.603e-24
1.83818e-27
1.25146e-30
8.58675e-34
6.14845e-37
5.0614e-40
5.23477e-43
7.40398e-46
1.57394e-48
5.49616e-51
3.27592e-53
3.24035e-55
3.61496e-57
0.00459965
0.000397871
9.01251e-06
8.10809e-08
8.62187e-11
4.41441e-14
2.97065e-17
2.2758e-20
1.76889e-23
1.30851e-26
9.30754e-30
6.64798e-33
4.94505e-36
4.21773e-39
4.50496e-42
6.55422e-45
1.42438e-47
5.03316e-50
2.98603e-52
2.85477e-54
2.91205e-56
0.0042668
0.000409446
1.5275e-05
2.34599e-07
4.41526e-10
2.4158e-13
1.69467e-16
1.36072e-19
1.10926e-22
8.58608e-26
6.37332e-29
4.73471e-32
3.65702e-35
3.2312e-38
3.56523e-41
5.33953e-44
1.18743e-46
4.24949e-49
2.50827e-51
2.3086e-53
2.12795e-55
0.00427702
0.000459616
2.41665e-05
5.48916e-07
2.02306e-09
1.21848e-12
8.9403e-16
7.52764e-19
6.43386e-22
5.20744e-25
4.03072e-28
3.11351e-31
2.49752e-34
2.28729e-37
2.6101e-40
4.0307e-43
9.18927e-46
3.33462e-48
1.95633e-50
1.72365e-52
1.41464e-54
0.00434549
0.000550533
3.62923e-05
1.11297e-06
7.9235e-09
5.65274e-12
4.36835e-15
3.86013e-18
3.45903e-21
2.92665e-24
2.3615e-27
1.89718e-30
1.58176e-33
1.50355e-36
1.77807e-39
2.83834e-42
6.64925e-45
2.44913e-47
1.42501e-49
1.19248e-51
8.55915e-54
0.00446244
0.000654475
5.18444e-05
2.02967e-06
2.51917e-08
2.41444e-11
1.98026e-14
1.83827e-17
1.72747e-20
1.52798e-23
1.28551e-26
1.07503e-29
9.33e-33
9.2251e-36
1.13384e-38
1.87677e-41
4.52866e-44
1.69342e-46
9.73403e-49
7.6574e-51
4.70498e-53
0.00456711
0.000750764
7.05463e-05
3.40345e-06
6.37424e-08
9.5888e-11
8.34267e-14
8.14599e-17
8.03163e-20
7.42993e-23
6.52215e-26
5.68618e-29
5.14856e-32
5.31147e-35
6.80951e-38
1.17275e-40
2.9204e-43
1.10733e-45
6.25062e-48
4.56356e-50
2.34126e-52
0.00464308
0.000837236
9.16863e-05
5.32245e-06
1.36361e-07
3.58222e-10
3.27265e-13
3.36648e-16
3.48492e-19
3.37434e-22
3.09464e-25
2.81893e-28
2.67108e-31
2.8863e-34
3.87574e-37
6.9674e-40
1.79206e-42
6.86925e-45
3.77636e-47
2.52007e-49
1.04938e-51
0.00470429
0.000917014
0.000114292
7.84448e-06
2.58235e-07
1.24636e-09
1.19914e-12
1.30088e-15
1.4151e-18
1.43588e-21
1.37852e-24
1.31591e-27
1.30995e-30
1.48943e-33
2.10371e-36
3.95716e-39
1.05042e-41
4.04915e-44
2.14517e-46
1.28573e-48
4.21309e-51
0.00475771
0.000991055
0.000137475
1.09855e-05
4.44385e-07
3.85901e-09
4.11711e-12
4.71516e-15
5.39545e-18
5.74693e-21
5.79135e-24
5.81537e-27
6.11009e-30
7.34616e-33
1.09551e-35
2.15833e-38
5.89549e-41
2.26829e-43
1.14355e-45
6.03764e-48
1.50667e-50
0.00480359
0.00105916
0.000160677
1.47045e-05
7.0699e-07
9.99696e-09
1.32637e-11
1.60926e-14
1.93952e-17
2.17354e-20
2.3072e-23
2.44819e-26
2.72893e-29
3.48581e-32
5.50257e-35
1.13423e-37
3.17117e-40
1.20605e-42
5.70391e-45
2.59849e-47
4.77407e-50
0.00484777
0.00112221
0.000183656
1.89006e-05
1.05407e-06
2.14288e-08
4.02671e-11
5.19683e-14
6.60705e-17
7.81322e-20
8.77372e-23
9.88866e-26
1.17545e-28
1.60114e-31
2.67708e-34
5.75297e-37
1.63375e-39
6.07171e-42
2.65245e-44
1.02034e-46
1.33369e-49
0.00490059
0.00118279
0.000206452
2.3458e-05
1.49057e-06
4.01334e-08
1.16929e-10
1.59735e-13
2.14661e-16
2.68849e-19
3.20943e-22
3.86255e-25
4.91764e-28
7.1563e-31
1.26479e-33
2.81642e-36
8.04527e-39
2.8847e-41
1.14533e-43
3.6404e-46
3.26995e-49
0.00497471
0.00124497
0.000229551
2.83413e-05
2.02486e-06
6.82499e-08
3.2919e-10
4.70749e-13
6.70451e-16
8.93065e-19
1.13914e-21
1.47074e-24
2.01074e-27
3.12321e-30
5.80663e-33
1.32863e-35
3.77503e-38
1.28842e-40
4.57381e-43
1.17424e-45
7.01026e-49
0.00508767
0.00131453
0.000254138
3.36849e-05
2.6774e-06
1.08331e-07
8.82454e-10
1.34272e-12
2.03192e-15
2.89115e-18
3.95813e-21
5.49843e-24
8.071e-27
1.33274e-29
2.58699e-32
6.0213e-35
1.6813e-37
5.38796e-40
1.68207e-42
3.41329e-45
1.32063e-48
0.00526135
0.0013994
0.000282216
3.98276e-05
3.48813e-06
1.6405e-07
2.13455e-09
3.74252e-12
6.03695e-15
9.2093e-18
1.35701e-20
2.0287e-23
3.18629e-26
5.55467e-29
1.11508e-31
2.61096e-34
7.0773e-37
2.10074e-39
5.67325e-42
8.91523e-45
2.15649e-48
0.00552466
0.00151026
0.000316668
4.73152e-05
4.52321e-06
2.41386e-07
4.49887e-09
1.02789e-11
1.77572e-14
2.90991e-17
4.61536e-20
7.40259e-23
1.23595e-25
2.25405e-28
4.62997e-31
1.07828e-33
2.80321e-36
7.60423e-39
1.74917e-41
2.07551e-44
3.20756e-48
0.00591672
0.0016612
0.000361394
5.69269e-05
5.88598e-06
3.50223e-07
8.60293e-09
2.81663e-11
5.21085e-14
9.16654e-17
1.56001e-19
2.66787e-22
4.69372e-25
8.86316e-28
1.84255e-30
4.22057e-33
1.04007e-35
2.54587e-38
4.91314e-41
4.28342e-44
4.46961e-48
0.00648881
0.00187082
0.000421679
6.97758e-05
7.74015e-06
5.07424e-07
1.55087e-08
7.80976e-11
1.53116e-13
2.88083e-16
5.22881e-19
9.45517e-22
1.7356e-24
3.35776e-27
6.98993e-30
1.55809e-32
3.59998e-35
7.85766e-38
1.24994e-40
7.92782e-44
4.96958e-48
0.00730741
0.00216417
0.000504939
8.75216e-05
1.03529e-05
7.42386e-07
2.70922e-08
2.16981e-10
4.49966e-13
8.99972e-16
1.7283e-18
3.27393e-21
6.2078e-24
1.21813e-26
2.51424e-29
5.40054e-32
1.15821e-34
2.22686e-37
2.86268e-40
1.33248e-43
4.82529e-48
0.00845985
0.00257572
0.000621918
0.000112716
1.41651e-05
1.10633e-06
4.67666e-08
5.759e-10
1.31497e-12
2.77507e-15
5.59018e-18
1.09918e-20
2.13292e-23
4.20648e-26
8.53209e-29
1.7504e-31
3.45046e-34
5.76268e-37
5.90756e-40
1.9483e-43
4.0943e-48
0.0100614
0.00315325
0.000788262
0.000149282
1.98935e-05
1.6869e-06
8.07466e-08
1.39032e-09
3.78862e-12
8.37155e-15
1.75441e-17
3.5509e-20
6.99361e-23
1.37515e-25
2.71932e-28
5.28364e-31
9.473e-34
1.35489e-36
1.10978e-39