/*--------------------------------*- C++ -*----------------------------------*\
| =========                 |                                                 |
| \\      /  F ield         | OpenFOAM: The Open Source CFD Toolbox           |
|  \\    /   O peration     | Version:  v2012                                 |
|   \\  /    A nd           | Website:  www.openfoam.com                      |
|    \\/     M anipulation  |                                                 |
\*---------------------------------------------------------------------------*/
FoamFile
{
    version     2.0;
    format      ascii;
    class       surfaceScalarField;
    location    "0.05";
    object      alphaPhi0.water;
}
// * * * * * * * * * * * * * * * * * * * * * * * * * * * * * * * * * * * * * //

dimensions      [0 3 -1 0 0 0 0];
oriented        oriented;


internalField   nonuniform List<scalar> 
8135
(
-1.59408e-29
1.07881e-22
5.90832e-33
-3.02868e-40
7.21563e-27
5.97624e-37
-8.00489e-45
1.68868e-37
1.88917e-47
-5.69293e-49
5.44208e-42
5.44568e-52
-5.73941e-53
4.68059e-46
3.83846e-56
-5.65252e-57
5.6666e-50
2.87234e-60
-4.59958e-61
6.66845e-54
1.41028e-64
-3.0964e-65
6.45363e-58
7.24639e-69
-1.66389e-69
5.14792e-62
-3.02401e-72
-6.79336e-74
3.26983e-66
-4.06909e-76
-1.97168e-78
1.57935e-70
-2.21046e-80
-3.73357e-99
5.40316e-75
-7.09379e-85
-3.43722e-94
3.44994e-94
-1.0032e-97
-1.97693e-89
1.98429e-89
-4.37613e-93
-1.64427e-92
8.70391e-86
-4.07444e-96
-2.04919e-95
9.02806e-89
-1.8004e-99
-5.35064e-98
1.37467e-91
1.59077e-102
-2.91066e-100
4.3817e-94
1.81648e-104
-2.06583e-102
2.97589e-96
2.09155e-106
-2.7896e-105
2.76228e-98
3.15989e-108
5.42182e-101
1.59107e-110
-3.26804e-22
5.15776e-17
2.08571e-26
-3.93013e-30
3.26693e-20
1.59125e-29
-4.04736e-34
4.84767e-28
2.93065e-37
-8.46923e-38
6.08193e-32
3.21724e-41
-2.24194e-41
1.53869e-35
6.41717e-45
-5.85999e-45
4.89155e-39
1.16672e-48
-1.33924e-48
1.52786e-42
1.04987e-52
-2.66838e-52
4.1539e-46
-1.90084e-56
-4.61472e-56
9.82053e-50
-5.69691e-59
-7.22707e-60
2.01198e-53
-1.71098e-62
-1.09061e-63
3.73162e-57
-3.19016e-66
-1.63338e-67
6.67574e-61
-4.7944e-70
-2.65547e-71
1.1871e-64
-6.45293e-74
-4.98309e-75
2.29777e-68
-9.18214e-78
-1.13788e-78
5.15394e-72
-1.13296e-81
-3.57556e-82
1.41413e-75
-8.67509e-86
-1.71836e-85
5.38017e-79
6.24547e-89
-1.10834e-88
3.17092e-82
9.21694e-92
-5.85053e-92
2.56939e-85
1.25411e-94
-3.69361e-96
1.79614e-88
1.44482e-97
1.58085e-92
3.2241e-101
-2.4171e-20
1.75558e-15
1.5481e-24
-4.7954e-28
1.43851e-18
1.33987e-27
-5.12779e-32
3.53968e-26
3.66772e-35
-1.13107e-35
4.60161e-30
3.99342e-39
-3.17853e-39
1.22588e-33
8.10202e-43
-8.93197e-43
4.13589e-37
1.54587e-46
-2.23291e-46
1.38909e-40
1.58354e-50
-4.994e-50
4.13327e-44
-4.40596e-54
-1.00367e-53
1.09778e-47
-9.97622e-57
-1.91071e-57
2.61638e-51
-3.125e-60
-3.68828e-61
5.90582e-55
-6.61507e-64
-7.43861e-65
1.35323e-58
-1.19799e-67
-1.71071e-68
3.24516e-62
-2.02692e-71
-4.77094e-72
8.90039e-66
-3.83144e-75
-1.70554e-75
2.97315e-69
-5.78309e-79
-8.71738e-79
1.28066e-72
-3.91983e-84
-6.90066e-82
7.95535e-76
1.68006e-85
-7.70837e-85
7.76203e-79
3.25305e-88
-8.77009e-88
1.09567e-81
7.20874e-91
-2.55851e-91
1.65274e-84
1.74227e-93
6.38786e-88
1.688e-96
-7.27736e-19
2.9019e-14
4.08622e-23
-2.53163e-26
3.08528e-17
4.36584e-26
-2.79324e-30
1.33854e-24
1.95312e-33
-6.40675e-34
1.79031e-28
2.09309e-37
-1.90938e-37
4.94768e-32
4.22584e-41
-5.78366e-41
1.76845e-35
8.18225e-45
-1.58684e-44
6.40058e-39
8.20941e-49
-3.9842e-48
2.09058e-42
-2.80636e-52
-9.2105e-52
6.23634e-46
-6.71155e-55
-2.06434e-55
1.71076e-49
-2.24418e-58
-4.78442e-59
4.54949e-53
-5.28324e-62
-1.17581e-62
1.25257e-56
-1.06615e-65
-3.33894e-66
3.66352e-60
-1.94508e-69
-1.17196e-69
1.24215e-63
-3.99985e-73
-5.43627e-73
5.23103e-67
-3.75691e-77
-3.71295e-76
2.93068e-70
3.18702e-80
-4.00538e-79
2.44083e-73
7.59491e-83
-6.40932e-82
3.25991e-76
1.62972e-85
-1.22182e-84
6.62615e-79
4.7579e-88
-1.00518e-87
1.67843e-81
1.85574e-90
1.79476e-84
4.82105e-93
-1.29153e-17
3.09494e-13
6.28052e-22
-8.35094e-25
4.26112e-16
8.30197e-25
-9.6829e-29
3.45823e-23
6.47976e-32
-2.25808e-32
4.84813e-27
6.93702e-36
-7.11152e-36
1.35734e-30
1.35262e-39
-2.32508e-39
5.11788e-34
2.59165e-43
-7.01062e-43
1.99781e-37
2.38237e-47
-1.97065e-46
7.16972e-41
-1.00935e-50
-5.18063e-50
2.39476e-44
-2.5305e-53
-1.33422e-53
7.47253e-48
-9.01817e-57
-3.5766e-57
2.2842e-51
-2.29858e-60
-1.0206e-60
7.27709e-55
-4.86859e-64
-3.379e-64
2.47286e-58
-8.23136e-68
-1.3962e-67
9.78447e-62
-1.39366e-71
-7.75995e-71
4.85726e-65
4.71e-75
-6.44704e-74
3.26705e-68
8.01362e-78
-8.56275e-77
3.31914e-71
1.37593e-80
-1.75263e-79
5.47871e-74
3.07719e-83
-4.74837e-82
1.43102e-76
1.04614e-85
-7.58658e-85
5.16714e-79
5.51333e-88
1.06473e-81
2.68396e-90
-1.56469e-16
2.38474e-12
6.93228e-21
-1.97978e-23
4.234e-15
1.10912e-23
-2.50709e-27
6.77431e-22
1.58057e-30
-5.80882e-31
1.03536e-25
1.74911e-34
-1.91973e-34
2.86783e-29
3.19442e-38
-6.77051e-38
1.13192e-32
5.89746e-42
-2.24133e-41
4.76059e-36
4.30782e-46
-7.01792e-45
1.87466e-39
-2.36226e-49
-2.07387e-48
6.97312e-43
-6.59715e-52
-6.02284e-52
2.44573e-46
-2.43191e-55
-1.82174e-55
8.43102e-50
-6.33575e-59
-5.86406e-59
3.0314e-53
-1.21997e-62
-2.1912e-62
1.16252e-56
-7.79376e-67
-1.02717e-65
5.19516e-60
4.56823e-70
-6.54265e-69
2.92913e-63
8.7688e-73
-6.2676e-72
2.26162e-66
8.99361e-76
-9.65258e-75
2.6556e-69
1.36724e-78
-2.35042e-77
5.09944e-72
3.06155e-81
-8.0946e-80
1.59104e-74
1.10867e-83
-1.95843e-82
7.32688e-77
6.91648e-86
2.27984e-79
4.8016e-88
-1.40423e-15
1.40538e-11
5.90288e-20
-3.60848e-22
3.22632e-14
1.14047e-22
-5.23919e-26
1.05706e-20
3.0808e-29
-1.19087e-29
1.85038e-24
3.7127e-33
-4.0878e-33
5.00786e-28
6.28346e-37
-1.55076e-36
2.04672e-31
1.1108e-40
-5.6184e-40
9.24404e-35
5.94156e-45
-1.94658e-43
3.98009e-38
-4.18745e-48
-6.39514e-47
1.63722e-41
-1.31387e-50
-2.06343e-50
6.38198e-45
-4.88928e-54
-6.91873e-54
2.44394e-48
-1.20493e-57
-2.46371e-57
9.74159e-52
-1.39708e-61
-1.01711e-60
4.13392e-55
7.58521e-65
-5.2809e-64
2.04218e-58
6.13313e-68
-3.74397e-67
1.27648e-61
6.19875e-71
-3.99354e-70
1.09853e-64
5.91739e-74
-6.86118e-73
1.43914e-67
8.76226e-77
-1.8963e-75
3.09166e-70
1.96823e-79
-7.74094e-78
1.09883e-72
7.25942e-82
-2.46596e-80
6.01842e-75
4.8965e-84
2.46546e-77
4.15838e-86
-9.84377e-15
6.53331e-11
3.87885e-19
-5.27478e-21
1.96761e-13
9.30049e-22
-9.1637e-25
1.35636e-19
4.95355e-28
-2.0527e-28
2.83877e-23
6.87474e-32
-7.23324e-32
7.54784e-27
1.09933e-35
-2.93726e-35
3.15578e-30
1.90349e-39
-1.15889e-38
1.5226e-33
9.20666e-44
-4.40972e-42
7.13015e-37
-5.78561e-47
-1.59441e-45
3.21858e-40
-2.21888e-49
-5.64758e-49
1.38004e-43
-8.13169e-53
-2.07134e-52
5.79999e-47
-1.62417e-56
-8.04412e-56
2.52865e-50
2.09929e-60
-3.61378e-59
1.17045e-53
4.82347e-63
-2.04308e-62
6.29469e-57
3.13181e-66
-1.57933e-65
4.28745e-60
2.83274e-69
-1.83227e-68
4.02779e-63
2.70666e-72
-3.4273e-71
5.74914e-66
4.01005e-75
-1.0457e-73
1.34802e-68
9.02517e-78
-4.86131e-76
5.30626e-71
3.29351e-80
-1.8835e-78
3.32066e-73
2.24125e-82
1.65644e-75
1.992e-84
-5.59249e-14
2.42679e-10
1.95142e-18
-6.3572e-20
9.8932e-13
6.06943e-21
-1.36185e-23
1.46137e-18
6.60066e-27
-3.07387e-27
3.76877e-22
1.10431e-30
-1.10011e-30
1.00775e-25
1.7399e-34
-4.75202e-34
4.2643e-29
3.05037e-38
-2.02956e-37
2.18356e-32
1.97675e-42
-8.41743e-41
1.10523e-35
-5.29702e-46
-3.31938e-44
5.43227e-39
-3.3139e-48
-1.27819e-47
2.53866e-42
-1.21801e-51
-5.07459e-51
1.15942e-45
-1.64077e-55
-2.12595e-54
5.47068e-49
1.30529e-58
-1.02755e-57
2.73182e-52
1.57809e-61
-6.24549e-61
1.58116e-55
1.01558e-64
-5.18502e-64
1.15852e-58
9.23671e-68
-6.43683e-67
1.17001e-61
9.16072e-71
-1.2892e-69
1.78972e-64
1.39687e-73
-4.25238e-72
4.50303e-67
3.21177e-76
-2.17384e-74
1.92163e-69
1.16548e-78
-9.53963e-77
1.3262e-71
7.66156e-81
7.50455e-74
6.29387e-83
-2.62812e-13
7.05211e-10
7.41368e-18
-6.43385e-19
4.14996e-12
3.18138e-20
-1.73331e-22
1.34001e-17
7.28206e-26
-4.0722e-26
4.34474e-21
1.51625e-29
-1.47033e-29
1.20798e-24
2.47005e-33
-6.71082e-33
5.14008e-28
4.48374e-37
-3.08306e-36
2.77435e-31
4.27357e-41
-1.38366e-39
1.50806e-34
-1.82384e-45
-5.9042e-43
8.01165e-38
-4.50204e-47
-2.4517e-46
4.04819e-41
-1.71737e-50
-1.04484e-49
1.99275e-44
-1.08211e-54
-4.68144e-53
1.00906e-47
3.55816e-57
-2.41305e-56
5.38879e-51
3.82978e-60
-1.56127e-59
3.32691e-54
2.53401e-63
-1.37622e-62
2.59612e-57
2.37381e-66
-1.80644e-65
2.78608e-60
2.45496e-69
-3.82342e-68
4.51194e-63
3.87138e-72
-1.33719e-70
1.20191e-65
9.13699e-75
-7.26166e-73
5.45107e-68
3.29182e-77
-3.3825e-75
4.00601e-70
2.01019e-79
2.40979e-72
1.18485e-81
-1.007e-12
1.44505e-09
2.00756e-17
-5.53083e-18
1.40592e-11
1.31275e-19
-1.90884e-21
1.0534e-16
6.65794e-25
-4.81525e-25
4.38106e-20
1.77122e-28
-1.75194e-28
1.30713e-23
3.10698e-32
-8.39608e-32
5.58892e-27
5.8971e-36
-4.12434e-35
3.15994e-30
7.62514e-40
-1.98993e-38
1.83351e-33
6.84697e-44
-9.1256e-42
1.04593e-36
-5.40652e-46
-4.05894e-45
5.67505e-40
-2.22806e-49
-1.84418e-48
2.99066e-43
-1.02294e-54
-8.77615e-52
1.61399e-46
6.86735e-56
-4.79056e-55
9.15367e-50
7.34826e-59
-3.27373e-58
5.9854e-53
5.05519e-62
-3.03697e-61
4.93495e-56
4.95066e-65
-4.17632e-64
5.57744e-59
5.36967e-68
-9.2367e-67
9.47334e-62
8.8353e-71
-3.36491e-69
2.64109e-64
2.16438e-73
-1.88424e-71
1.25011e-66
7.8671e-76
-8.86379e-74
9.4923e-69
4.49958e-78
5.77488e-71
1.68409e-80
-2.89717e-12
1.80769e-09
3.40439e-17
-4.04209e-17
3.39533e-11
3.92882e-19
-1.83883e-20
7.07769e-16
5.03122e-24
-5.1091e-24
3.89744e-19
1.76778e-27
-1.87834e-27
1.28035e-22
3.44264e-31
-9.4032e-31
5.51952e-26
6.8607e-35
-4.91277e-34
3.25256e-29
1.11782e-38
-2.53388e-37
2.004e-32
1.75916e-42
-1.24158e-40
1.22061e-35
-5.64163e-45
-5.88199e-44
7.07019e-39
-2.54735e-48
-2.83324e-47
3.9662e-42
1.8385e-52
-1.42402e-50
2.26836e-45
1.12471e-54
-8.18541e-54
1.35852e-48
1.20961e-57
-5.8711e-57
9.35462e-52
8.61448e-61
-5.69245e-60
8.09762e-55
8.7751e-64
-8.14134e-63
9.57056e-58
9.92155e-67
-1.86335e-65
1.69222e-60
1.69579e-69
-6.96486e-68
4.88855e-63
4.29573e-72
-3.93032e-70
2.37798e-65
1.57151e-74
-1.80419e-72
1.82278e-67
8.42683e-77
1.08369e-69
1.1815e-79
-7.05793e-12
1.80853e-09
3.80003e-17
-2.49356e-16
4.82123e-11
7.314e-19
-1.56454e-19
4.02211e-15
3.12167e-23
-4.87681e-23
3.08191e-18
1.51998e-26
-1.82303e-26
1.13591e-21
3.35715e-30
-9.49697e-30
4.97178e-25
7.05587e-34
-5.2542e-33
3.04271e-28
1.37195e-37
-2.88319e-36
1.9822e-31
3.18548e-41
-1.50208e-39
1.28303e-34
-4.85159e-44
-7.54398e-43
7.89504e-38
-2.39669e-47
-3.83451e-46
4.69235e-41
5.0137e-51
-2.02627e-49
2.83073e-44
1.60105e-53
-1.22089e-52
1.78203e-47
1.72906e-56
-9.14534e-56
1.28624e-50
1.26851e-59
-9.21754e-59
1.16301e-53
1.34142e-62
-1.36302e-61
1.42956e-56
1.57777e-65
-3.20224e-64
2.61551e-59
2.80014e-68
-1.21362e-66
7.7645e-62
7.33836e-71
-6.78963e-69
3.83491e-64
2.71895e-73
-2.97515e-71
2.91881e-66
1.40572e-75
1.65897e-68
6.42058e-79
-8.86928e-12
1.63922e-09
3.71036e-17
-1.28512e-15
4.90193e-11
8.37044e-19
-1.17816e-18
1.90672e-14
1.57781e-22
-4.1853e-22
2.16524e-17
1.13002e-25
-1.60799e-25
9.10763e-21
2.88155e-29
-8.69701e-29
4.09503e-24
6.44586e-33
-5.07783e-32
2.59759e-27
1.45495e-36
-2.95298e-35
1.78344e-30
4.24446e-40
-1.62907e-38
1.22208e-33
-3.25268e-43
-8.63968e-42
7.95647e-37
-1.74997e-46
-4.61628e-45
4.99048e-40
9.64894e-50
-2.55533e-48
3.16335e-43
2.07251e-52
-1.60797e-51
2.08556e-46
2.21649e-55
-1.25294e-54
1.57201e-49
1.66182e-58
-1.3073e-57
1.47878e-52
1.80791e-61
-1.98947e-60
1.88243e-55
2.19556e-64
-4.7673e-63
3.54684e-58
4.01694e-67
-1.81622e-65
1.07498e-60
1.08049e-69
-9.96506e-68
5.34379e-63
4.02086e-72
-4.11251e-70
3.99469e-65
1.99854e-74
2.14166e-67
-9.82533e-78
-9.42386e-12
1.19217e-09
3.02243e-17
-5.43141e-15
4.54489e-11
8.02989e-19
-7.77993e-18
7.36139e-14
6.39734e-22
-3.22407e-21
1.33544e-16
7.2178e-25
-1.29266e-24
6.58268e-20
2.17928e-28
-7.25163e-28
3.08972e-23
5.26487e-32
-4.45698e-31
2.03006e-26
1.35175e-35
-2.73837e-34
1.4655e-29
4.96608e-39
-1.59433e-37
1.05994e-32
-1.26961e-42
-8.89965e-41
7.27727e-36
-7.27829e-46
-4.98303e-44
4.8014e-39
1.45939e-48
-2.88112e-47
3.18791e-42
2.4182e-51
-1.8879e-50
2.19469e-45
2.5493e-54
-1.52564e-53
1.72245e-48
1.94539e-57
-1.64285e-56
1.68057e-51
2.16852e-60
-2.564e-59
2.2086e-54
2.71075e-63
-6.23809e-62
4.27031e-57
5.09725e-66
-2.37544e-64
1.3152e-59
1.40307e-68
-1.26975e-66
6.54248e-62
5.23618e-71
-4.89254e-69
4.77138e-64
2.53311e-73
2.39191e-66
-1.5476e-76
-8.95124e-12
6.575e-10
1.89003e-17
-1.82194e-14
3.59192e-11
6.65996e-19
-4.42444e-17
2.22489e-13
2.02095e-21
-2.23449e-20
7.07693e-16
3.90365e-24
-9.49103e-24
4.29869e-19
1.46083e-27
-5.52348e-27
2.13817e-22
3.87199e-31
-3.56756e-30
1.45596e-25
1.12404e-34
-2.31023e-33
1.10346e-28
4.88832e-38
-1.41571e-36
8.40459e-32
4.46984e-42
-8.29572e-40
6.06912e-35
2.8162e-45
-4.85527e-43
4.20102e-38
1.83732e-47
-2.92573e-46
2.91431e-41
2.55825e-50
-1.99197e-49
2.09043e-44
2.65283e-53
-1.66591e-52
1.70445e-47
2.05271e-56
-1.84757e-55
1.72114e-50
2.33263e-59
-2.95035e-58
2.3303e-53
2.98729e-62
-7.26734e-61
4.61257e-56
5.74384e-65
-2.75705e-63
1.43948e-58
1.60827e-67
-1.43004e-65
7.14188e-61
5.9691e-70
-5.109e-68
5.06072e-63
2.77929e-72
2.35525e-65
-2.88983e-75
-7.73059e-12
3.48886e-10
9.58177e-18
-4.68173e-14
2.9362e-11
5.00875e-19
-2.10347e-16
5.09417e-13
4.81973e-21
-1.4071e-19
3.11325e-15
1.74206e-23
-6.37349e-23
2.56147e-18
8.8004e-27
-3.8537e-26
1.35814e-21
2.57993e-30
-2.61302e-29
9.60237e-25
8.41875e-34
-1.78029e-32
7.63405e-28
4.34322e-37
-1.14585e-35
6.11313e-31
1.52928e-40
-7.03343e-39
4.63346e-34
1.00817e-43
-4.29464e-42
3.35777e-37
1.96998e-46
-2.69286e-45
2.42909e-40
2.44479e-49
-1.90213e-48
1.81253e-43
2.50273e-52
-1.64412e-51
1.53304e-46
1.96419e-55
-1.87592e-54
1.60005e-49
2.27228e-58
-3.06153e-57
2.22938e-52
2.97762e-61
-7.6255e-60
4.51234e-55
5.84409e-64
-2.87778e-62
1.42509e-57
1.66177e-66
-1.44437e-64
7.04098e-60
6.12078e-69
-4.74945e-67
4.83344e-62
2.74697e-71
2.0723e-64
-3.03881e-74
-7.58192e-12
2.81129e-10
5.86491e-18
-1.24725e-13
2.87326e-11
4.37952e-19
-8.04018e-16
9.22854e-13
8.83736e-21
-8.12536e-19
1.08842e-14
6.19564e-23
-3.9202e-22
1.40373e-17
4.82914e-26
-2.4685e-25
7.92638e-21
1.56725e-29
-1.75634e-28
5.83406e-24
5.75749e-33
-1.25743e-31
4.86408e-27
3.40202e-36
-8.48693e-35
4.09045e-30
1.88331e-39
-5.44795e-38
3.24928e-33
1.28923e-42
-3.46575e-41
2.46121e-36
1.82807e-45
-2.25903e-44
1.85422e-39
2.10594e-48
-1.65412e-47
1.43788e-42
2.13809e-51
-1.47697e-50
1.26053e-45
1.70162e-54
-1.73351e-53
1.35917e-48
2.0038e-57
-2.89137e-56
1.94864e-51
2.6846e-60
-7.28256e-59
4.03313e-54
5.37308e-63
-2.73252e-61
1.28909e-56
1.54896e-65
-1.32335e-63
6.33859e-59
5.63491e-68
-3.96851e-66
4.20253e-61
2.40814e-70
1.64389e-63
-3.5196e-73
-7.99462e-12
2.76634e-10
5.04638e-18
-2.57852e-13
3.0041e-11
4.1962e-19
-2.48021e-15
1.50103e-12
1.40746e-20
-4.28771e-18
2.94832e-14
1.70828e-22
-2.21348e-21
7.02746e-17
2.41623e-25
-1.4547e-24
4.25796e-20
8.73751e-29
-1.08609e-27
3.27066e-23
3.60474e-32
-8.16444e-31
2.86022e-26
2.42794e-35
-5.77216e-34
2.52429e-29
1.71438e-38
-3.87035e-37
2.09929e-32
1.2247e-41
-2.56305e-40
1.66016e-35
1.49938e-44
-1.73599e-43
1.30147e-38
1.6488e-47
-1.31753e-46
1.04846e-41
1.67009e-50
-1.2157e-49
9.52603e-45
1.35126e-53
-1.46895e-52
1.06155e-47
1.62121e-56
-2.50666e-55
1.56737e-50
2.22286e-59
-6.39049e-58
3.32082e-53
4.53929e-62
-2.38317e-60
1.07519e-55
1.32721e-64
-1.10939e-62
5.259e-58
4.76284e-67
-2.99871e-65
3.35358e-60
1.92974e-69
1.18215e-62
-3.08795e-72
-9.16757e-12
2.75729e-10
4.67294e-18
-4.44547e-13
3.50865e-11
4.3723e-19
-7.75386e-15
2.30643e-12
2.08604e-20
-2.01806e-17
6.51196e-14
3.80404e-22
-1.14826e-20
3.12067e-16
1.0808e-24
-7.90172e-24
2.10569e-19
4.49212e-28
-6.1931e-27
1.69448e-22
2.08455e-31
-4.88637e-30
1.55521e-25
1.56777e-34
-3.6161e-33
1.44003e-28
1.29665e-37
-2.53082e-36
1.25299e-31
9.60617e-41
-1.74417e-39
1.03381e-34
1.09188e-43
-1.22781e-42
8.43129e-38
1.16739e-46
-9.6646e-46
7.05789e-41
1.18633e-49
-9.22651e-49
6.65045e-44
9.76366e-53
-1.14973e-51
7.66902e-47
1.19742e-55
-2.01103e-54
1.16821e-49
1.68455e-58
-5.19613e-57
2.53856e-52
3.51965e-61
-1.92422e-59
8.33605e-55
1.04527e-63
-8.5621e-62
4.05145e-57
3.6879e-66
-2.05568e-64
2.47006e-59
1.4018e-68
7.72643e-62
-2.62545e-71
-1.1187e-11
2.80759e-10
4.38979e-18
-6.99233e-13
4.24379e-11
4.86987e-19
-1.80441e-14
3.3722e-12
2.94219e-20
-8.09457e-17
1.26019e-13
7.36572e-22
-5.46303e-20
1.16763e-15
4.14791e-24
-3.96343e-23
9.56672e-19
2.13325e-27
-3.26346e-26
8.12568e-22
1.11495e-30
-2.70238e-29
7.83391e-25
9.27979e-34
-2.09272e-32
7.61058e-28
8.51704e-37
-1.52834e-35
6.92683e-31
6.55054e-40
-1.09647e-38
5.96125e-34
7.191e-43
-8.02901e-42
5.05955e-37
7.59313e-46
-6.56388e-45
4.40505e-40
7.78794e-49
-6.49697e-48
4.31106e-43
6.54195e-52
-8.37063e-51
5.15556e-46
8.22056e-55
-1.50438e-53
8.12341e-49
1.18972e-57
-3.94372e-56
1.81483e-51
2.5479e-60
-1.44718e-58
6.04993e-54
7.69096e-63
-6.10759e-61
2.91474e-56
2.65995e-65
-1.27939e-63
1.68501e-58
9.40399e-68
4.59003e-61
-1.84466e-70
-1.3483e-11
2.87117e-10
4.19379e-18
-1.03139e-12
4.95737e-11
5.4281e-19
-3.57167e-14
4.68975e-12
3.97927e-20
-2.62833e-16
2.20896e-13
1.29377e-21
-2.38676e-19
3.4922e-15
1.30279e-23
-1.83941e-22
4.0018e-18
9.3925e-27
-1.5926e-25
3.61293e-21
5.54219e-30
-1.38441e-28
3.6627e-24
5.04387e-33
-1.12194e-31
3.73446e-27
4.97546e-36
-8.55176e-35
3.5558e-30
3.96138e-39
-6.39247e-38
3.19277e-33
4.27769e-42
-4.87672e-41
2.82281e-36
4.49952e-45
-4.14998e-44
2.56025e-39
4.68103e-48
-4.27139e-47
2.60848e-42
4.01762e-51
-5.70799e-50
3.24483e-45
5.20249e-54
-1.05664e-52
5.30554e-48
7.7838e-57
-2.81108e-55
1.2215e-50
1.71673e-59
-1.01829e-57
4.13398e-53
5.27811e-62
-4.03456e-60
1.96606e-55
1.78243e-64
-7.21804e-63
1.06616e-57
5.80909e-67
2.47308e-60
-1.17956e-69
-1.56226e-11
2.91093e-10
4.0416e-18
-1.43762e-12
5.56686e-11
5.91987e-19
-6.32827e-14
6.21384e-12
5.19316e-20
-8.27489e-16
3.57694e-13
2.11633e-21
-9.67252e-19
8.30958e-15
3.29597e-23
-7.91376e-22
1.55841e-17
3.87995e-26
-7.21385e-25
1.4921e-20
2.56127e-29
-6.58599e-28
1.59276e-23
2.54515e-32
-5.58795e-31
1.70529e-26
2.6113e-35
-4.44875e-34
1.69946e-29
2.13567e-38
-3.47025e-37
1.59339e-32
2.33899e-41
-2.76448e-40
1.46989e-35
2.47893e-44
-2.45639e-43
1.39217e-38
2.63188e-47
-2.63869e-46
1.48136e-41
2.31893e-50
-3.67008e-49
1.92399e-44
3.10439e-53
-7.01159e-52
3.27573e-47
4.8164e-56
-1.89091e-54
7.7862e-50
1.09498e-58
-6.72152e-57
2.67142e-52
3.42296e-61
-2.46851e-59
1.24619e-54
1.12094e-63
-3.67904e-62
6.2549e-57
3.32427e-66
1.20355e-59
-6.47557e-69
-1.75534e-11
2.93217e-10
3.93575e-18
-1.90133e-12
6.10169e-11
6.38983e-19
-1.02949e-13
7.87086e-12
6.58242e-20
-2.10968e-15
5.42011e-13
3.27991e-21
-3.67908e-18
1.68836e-14
7.14948e-23
-3.16306e-21
5.70444e-17
1.52138e-25
-3.04037e-24
5.73578e-20
1.10259e-28
-2.91728e-27
6.45723e-23
1.15907e-31
-2.59351e-30
7.26491e-26
1.24944e-34
-2.15951e-33
7.58445e-29
1.07239e-37
-1.76186e-36
7.43593e-32
1.17035e-40
-1.47017e-39
7.17425e-35
1.25563e-43
-1.36939e-42
7.11855e-38
1.36739e-46
-1.54169e-45
7.94285e-41
1.23901e-49
-2.23912e-48
1.08163e-43
1.72713e-52
-4.41877e-51
1.92364e-46
2.79421e-55
-1.20438e-53
4.72357e-49
6.57519e-58
-4.1666e-56
1.63744e-51
2.09069e-60
-1.39693e-58
7.42734e-54
6.59576e-63
-1.68604e-61
3.396e-56
1.76711e-65
5.26161e-59
-3.12434e-68
-1.93375e-11
2.94596e-10
3.89656e-18
-2.39917e-12
6.58819e-11
6.91091e-19
-1.56211e-13
9.57954e-12
8.15293e-20
-4.40169e-15
7.7616e-13
4.87344e-21
-1.30039e-17
3.06103e-14
1.39237e-22
-1.17843e-20
1.92951e-16
5.60453e-25
-1.19567e-23
2.0592e-19
4.43682e-28
-1.20683e-26
2.44732e-22
4.92027e-31
-1.12557e-29
2.89605e-25
5.47463e-34
-9.82191e-33
3.17136e-28
4.88877e-37
-8.4066e-36
3.25821e-31
5.45637e-40
-7.37689e-39
3.29811e-34
5.98986e-43
-7.23622e-42
3.44229e-37
6.73805e-46
-8.57475e-45
4.04651e-40
6.31856e-49
-1.30366e-47
5.80196e-43
9.199e-52
-2.65545e-50
1.08028e-45
1.55416e-54
-7.27699e-53
2.73735e-48
3.77598e-57
-2.42453e-55
9.53373e-51
1.2145e-59
-7.29211e-58
4.15877e-53
3.64454e-62
-6.91044e-61
1.70088e-55
8.66273e-65
2.05404e-58
-1.31707e-67
-2.09931e-11
2.95468e-10
3.93078e-18
-2.9098e-12
7.02801e-11
7.52459e-19
-2.235e-13
1.12791e-11
9.9255e-20
-8.04564e-15
1.05832e-12
6.9961e-21
-4.08112e-17
5.06999e-14
2.49659e-22
-4.10604e-20
5.71234e-16
1.85043e-24
-4.4023e-23
6.92523e-19
1.67311e-27
-4.6791e-26
8.70058e-22
1.96506e-30
-4.58633e-29
1.08409e-24
2.22947e-33
-4.20577e-32
1.2475e-27
2.065e-36
-3.79091e-35
1.34694e-30
2.35772e-39
-3.5147e-38
1.43614e-33
2.65658e-42
-3.64892e-41
1.58424e-36
3.10384e-45
-4.56843e-44
1.97175e-39
3.02036e-48
-7.27798e-47
2.98753e-42
4.62258e-51
-1.52574e-49
5.82754e-45
8.18671e-54
-4.17243e-52
1.51874e-47
2.05587e-56
-1.32209e-54
5.2722e-50
6.66487e-59
-3.49875e-57
2.18291e-52
1.88553e-61
-2.51939e-60
7.82664e-55
3.95546e-64
7.11725e-58
-4.75426e-67
-2.25111e-11
2.95868e-10
4.03516e-18
-3.41935e-12
7.4207e-11
8.25001e-19
-3.03818e-13
1.29395e-11
1.19384e-19
-1.33231e-14
1.38155e-12
9.73973e-21
-1.06948e-16
7.79666e-14
4.18472e-22
-1.34011e-19
1.39423e-15
5.14038e-24
-1.52367e-22
2.18526e-18
5.92125e-27
-1.70766e-25
2.91357e-21
7.31652e-30
-1.76317e-28
3.82758e-24
8.45567e-33
-1.70522e-31
4.63964e-27
8.13462e-36
-1.62612e-34
5.28401e-30
9.62931e-39
-1.6012e-37
5.96232e-33
1.12624e-41
-1.76777e-40
6.98779e-36
1.37574e-44
-2.34451e-43
9.25052e-39
1.40065e-47
-3.90967e-46
1.48451e-41
2.25549e-50
-8.39085e-49
3.02913e-44
4.17641e-53
-2.26785e-51
8.0727e-47
1.07554e-55
-6.73741e-54
2.76506e-49
3.47428e-58
-1.53671e-56
1.07071e-51
9.11273e-61
-8.12892e-60
3.29382e-54
1.64867e-63
2.17648e-57
-1.51433e-66
-2.39062e-11
2.96289e-10
4.2076e-18
-3.92128e-12
7.77779e-11
9.0992e-19
-3.9472e-13
1.45539e-11
1.42335e-19
-2.04275e-14
1.73496e-12
1.31715e-20
-2.98606e-16
1.12813e-13
6.62875e-22
-4.11547e-19
2.82411e-15
1.18642e-23
-4.98252e-22
6.51012e-18
1.96976e-26
-5.89762e-25
9.23856e-21
2.5863e-29
-6.43385e-28
1.28167e-23
3.02191e-32
-6.59099e-31
1.6416e-26
3.01911e-35
-6.68427e-34
1.98082e-29
3.70167e-38
-7.02673e-37
2.37773e-32
4.5048e-41
-8.28071e-40
2.97567e-35
5.78203e-44
-1.1641e-42
4.2043e-38
6.1603e-47
-2.02485e-45
7.1472e-41
1.04817e-49
-4.41498e-48
1.51944e-43
2.02899e-52
-1.16591e-50
4.10728e-46
5.34195e-55
-3.19769e-53
1.37168e-48
1.70771e-57
-6.15189e-56
4.88881e-51
4.10822e-60
-2.31015e-59
1.26177e-53
6.38648e-63
5.8423e-57
-4.03086e-66
-2.523e-11
2.97446e-10
4.44695e-18
-4.41574e-12
8.12205e-11
1.00872e-18
-4.93367e-13
1.61393e-11
1.68511e-19
-2.94738e-14
2.10968e-12
1.73385e-20
-6.40041e-16
1.55514e-13
1.00144e-21
-1.20732e-18
5.05345e-15
2.39733e-23
-1.54885e-21
1.86112e-17
6.25676e-26
-1.94032e-24
2.79159e-20
8.60027e-29
-2.24482e-27
4.09845e-23
1.02175e-31
-2.448e-30
5.56775e-26
1.06376e-34
-2.65438e-33
7.15342e-29
1.36949e-37
-2.99215e-36
9.18234e-32
1.75399e-40
-3.77077e-39
1.23208e-34
2.38188e-43
-5.60778e-42
1.86038e-37
2.66776e-46
-1.01126e-44
3.34169e-40
4.77558e-49
-2.21847e-47
7.35309e-43
9.58552e-52
-5.6517e-50
1.99575e-45
2.54628e-54
-1.40808e-52
6.41361e-48
7.93092e-57
-2.23591e-55
2.06918e-50
1.71549e-59
-5.7573e-59
4.38004e-53
2.22844e-62
1.36978e-56
-9.5507e-66
-2.65668e-11
3.00197e-10
4.75307e-18
-4.9126e-12
8.48563e-11
1.12353e-18
-5.98632e-13
1.77521e-11
1.98478e-19
-4.063e-14
2.50741e-12
2.23212e-20
-1.17465e-15
2.06988e-13
1.45747e-21
-3.42975e-18
8.28843e-15
4.398e-23
-4.61152e-21
5.15283e-17
1.91791e-25
-6.13084e-24
8.10252e-20
2.74871e-28
-7.55448e-27
1.2622e-22
3.31424e-31
-8.81493e-30
1.82639e-25
3.60487e-34
-1.02672e-32
2.51098e-28
4.86425e-37
-1.2443e-35
3.46166e-31
6.55961e-40
-1.67541e-38
4.99025e-34
9.44072e-43
-2.6231e-41
8.04046e-37
1.10584e-45
-4.86324e-44
1.51778e-39
2.08039e-48
-1.06144e-46
3.42638e-42
4.3108e-51
-2.57375e-49
9.2301e-45
1.1482e-53
-5.73048e-52
2.81514e-47
3.45492e-56
-7.34228e-55
8.08385e-50
6.65219e-59
-1.25385e-58
1.37067e-52
7.19119e-62
2.79832e-56
-1.84004e-65
-2.80359e-11
3.05701e-10
5.13286e-18
-5.43614e-12
8.91199e-11
1.2581e-18
-7.13041e-13
1.95038e-11
2.33305e-19
-5.42999e-14
2.94579e-12
2.83147e-20
-1.95465e-15
2.69562e-13
2.06558e-21
-9.2665e-18
1.27922e-14
7.52035e-23
-1.3278e-20
1.34346e-16
5.57905e-25
-1.87836e-23
2.28137e-19
8.40987e-28
-2.47603e-26
3.78055e-22
1.03866e-30
-3.10543e-29
5.85121e-25
1.18627e-33
-3.89705e-32
8.64377e-28
1.69803e-36
-5.07687e-35
1.28285e-30
2.43159e-39
-7.27448e-38
1.98514e-33
3.71724e-42
-1.19006e-40
3.39718e-36
4.55157e-45
-2.24559e-43
6.68546e-39
8.90635e-48
-4.81788e-46
1.53228e-41
1.88105e-50
-1.09684e-48
4.04661e-44
4.94173e-53
-2.14668e-51
1.15508e-46
1.41141e-55
-2.17178e-54
2.90217e-49
2.37025e-58
-2.39852e-58
3.85402e-52
2.06245e-61
4.99061e-56
-3.21974e-65
-2.98004e-11
3.15336e-10
5.60124e-18
-6.02773e-12
9.45934e-11
1.41903e-18
-8.43514e-13
2.15656e-11
2.74934e-19
-7.12854e-14
3.45907e-12
3.57005e-20
-3.05251e-15
3.47527e-13
2.88012e-21
-2.25684e-17
1.89739e-14
1.22347e-22
-3.73378e-20
3.11343e-16
1.45605e-24
-5.6389e-23
6.2916e-19
2.52006e-27
-7.98158e-26
1.11284e-21
3.19449e-30
-1.07904e-28
1.84828e-24
3.84332e-33
-1.45925e-31
2.94017e-27
5.80764e-36
-2.03654e-34
4.69505e-30
8.78855e-39
-3.08385e-37
7.76656e-33
1.41988e-41
-5.22153e-40
1.40108e-35
1.79684e-44
-9.91745e-43
2.84617e-38
3.6362e-47
-2.06614e-45
6.54823e-41
7.77531e-50
-4.35666e-48
1.67432e-43
2.00046e-52
-7.37271e-51
4.4109e-46
5.37667e-55
-5.77063e-54
9.53373e-49
7.79198e-58
-3.97614e-58
9.69784e-52
5.45147e-61
7.75693e-56
-4.39443e-65
-3.20791e-11
3.3092e-10
6.18554e-18
-6.74704e-12
1.02041e-10
1.61726e-18
-1.00139e-12
2.4172e-11
3.26508e-19
-9.29343e-14
4.09772e-12
4.51078e-20
-4.58785e-15
4.47736e-13
3.98565e-21
-5.89332e-17
2.752e-14
1.92736e-22
-1.03424e-19
6.2872e-16
3.29924e-24
-1.67551e-22
1.71456e-18
7.36482e-27
-2.5517e-25
3.25038e-21
9.71392e-30
-3.7188e-28
5.80057e-24
1.2356e-32
-5.40299e-31
9.92907e-27
1.98419e-35
-8.0254e-34
1.69938e-29
3.17964e-38
-1.2726e-36
2.9837e-32
5.40609e-41
-2.20653e-39
5.62024e-35
7.03969e-44
-4.17071e-42
1.16576e-37
1.45295e-46
-8.33579e-45
2.66142e-40
3.09959e-49
-1.60628e-47
6.50793e-43
7.67412e-52
-2.31437e-50
1.56077e-45
1.90377e-54
-1.36649e-53
2.85601e-48
2.32732e-57
-6.00374e-58
2.16447e-51
1.25955e-60
1.11143e-55
-5.77406e-65
-3.51612e-11
3.54872e-10
6.93145e-18
-7.67492e-12
1.12449e-10
1.8697e-18
-1.20293e-12
2.76323e-11
3.92792e-19
-1.21378e-13
4.93183e-12
5.74988e-20
-6.76036e-15
5.80811e-13
5.51375e-21
-1.30502e-16
3.95762e-14
2.98129e-22
-2.85804e-19
1.16485e-15
6.74357e-24
-4.96664e-22
4.67868e-18
2.1462e-26
-8.13293e-25
9.48543e-21
2.95387e-29
-1.27373e-27
1.81613e-23
3.97377e-32
-1.97589e-30
3.332e-26
6.71298e-35
-3.09631e-33
6.07079e-29
1.12633e-37
-5.08873e-36
1.12097e-31
1.99391e-40
-8.93671e-39
2.18165e-34
2.63332e-43
-1.6623e-41
4.56965e-37
5.5031e-46
-3.1502e-44
1.02356e-39
1.16329e-48
-5.47744e-47
2.36538e-42
2.75211e-51
-6.61856e-50
5.09769e-45
6.25186e-54
-2.86872e-53
7.77049e-48
6.35911e-57
-8.49294e-58
4.27521e-51
2.64879e-60
1.4098e-55
-5.95879e-65
-3.94276e-11
3.90281e-10
7.90745e-18
-8.92079e-12
1.27106e-10
2.20124e-18
-1.4714e-12
3.2364e-11
4.80838e-19
-1.60019e-13
6.06168e-12
7.43336e-20
-9.91421e-15
7.63685e-13
7.6746e-21
-2.55393e-16
5.71148e-14
4.58495e-22
-7.99295e-19
2.05591e-15
1.29406e-23
-1.47452e-21
1.2927e-17
6.27436e-26
-2.58675e-24
2.77274e-20
8.99645e-29
-4.32719e-27
5.67091e-23
1.27858e-31
-7.10731e-30
1.10774e-25
2.27221e-34
-1.16338e-32
2.12982e-28
3.97865e-37
-1.9608e-35
4.09442e-31
7.27935e-40
-3.4508e-38
8.1463e-34
9.70637e-43
-6.24956e-41
1.70475e-36
2.02499e-45
-1.11073e-43
3.70642e-39
4.17949e-48
-1.72212e-46
8.00555e-42
9.28589e-51
-1.71458e-49
1.53145e-44
1.89635e-53
-5.40206e-53
1.90759e-47
1.56307e-56
-9.58937e-58
7.5832e-51
4.8852e-60
1.44163e-55
-5.30562e-65
-4.53864e-11
4.41089e-10
9.21064e-18
-1.06377e-11
1.4774e-10
2.64789e-18
-1.84144e-12
3.89557e-11
6.01149e-19
-2.14444e-13
7.63807e-12
9.78821e-20
-1.46546e-14
1.02412e-12
1.08159e-20
-4.6998e-16
8.35775e-14
7.08732e-22
-2.24052e-18
3.54494e-15
2.39272e-23
-4.3801e-21
3.55062e-17
1.83773e-25
-8.18197e-24
8.09909e-20
2.74725e-28
-1.45033e-26
1.75782e-22
4.10657e-31
-2.49874e-29
3.62574e-25
7.57805e-34
-4.22972e-32
7.28732e-28
1.36623e-36
-7.23735e-35
1.44402e-30
2.55345e-39
-1.26377e-37
2.90776e-33
3.39255e-42
-2.20661e-40
6.01955e-36
7.01918e-45
-3.64119e-43
1.25789e-38
1.40622e-47
-4.97276e-46
2.51342e-41
2.91642e-50
-3.99966e-49
4.21256e-44
5.31759e-53
-9.24065e-53
4.2028e-47
3.49917e-56
-9.45988e-58
1.20771e-50
8.42029e-60
1.35572e-55
-2.68288e-65
-5.3733e-11
5.12436e-10
1.09781e-17
-1.30465e-11
1.76721e-10
3.262e-18
-2.36635e-12
4.82606e-11
7.69593e-19
-2.93915e-13
9.89306e-12
1.31746e-19
-2.2045e-14
1.40772e-12
1.55225e-20
-8.41098e-16
1.24919e-13
1.1109e-21
-6.00255e-18
6.07486e-15
4.35263e-23
-1.2948e-20
9.18573e-17
5.10373e-25
-2.55619e-23
2.34822e-19
8.34411e-28
-4.75988e-26
5.36717e-22
1.30617e-30
-8.52301e-29
1.15889e-24
2.49625e-33
-1.47804e-31
2.41278e-27
4.6157e-36
-2.54402e-34
4.88283e-30
8.75581e-39
-4.36841e-37
9.86153e-33
1.15687e-41
-7.28836e-40
2.00169e-35
2.34423e-44
-1.1057e-42
3.98432e-38
4.49674e-47
-1.31167e-45
7.28979e-41
8.56e-50
-8.41057e-49
1.05463e-43
1.36467e-52
-1.37551e-52
8.33984e-47
7.02684e-56
-8.15858e-58
1.59719e-50
1.2348e-59
1.03865e-55
-1.08973e-65
-6.54277e-11
6.11007e-10
1.34024e-17
-1.64691e-11
2.17301e-10
4.11974e-18
-3.12831e-12
6.15088e-11
1.01014e-18
-4.13591e-13
1.31795e-11
1.81637e-19
-3.39237e-14
1.98759e-12
2.27705e-20
-1.49272e-15
1.9119e-13
1.77385e-21
-1.71891e-17
1.04444e-14
7.87762e-23
-3.77718e-20
2.15115e-16
1.2872e-24
-7.82013e-23
6.69589e-19
2.50179e-27
-1.51702e-25
1.59943e-21
4.07811e-30
-2.79942e-28
3.58593e-24
7.98493e-33
-4.93229e-31
7.67035e-27
1.49793e-35
-8.47101e-34
1.57254e-29
2.8575e-38
-1.41898e-36
3.16017e-32
3.71855e-41
-2.24313e-39
6.23943e-35
7.34096e-44
-3.09576e-42
1.17276e-37
1.3411e-46
-3.14493e-45
1.94296e-40
2.32582e-49
-1.61083e-48
2.39236e-43
3.20439e-52
-1.62981e-52
1.50615e-46
1.30544e-55
-5.7201e-58
1.67168e-50
1.48482e-59
6.28456e-56
8.1836e-66
-8.17746e-11
7.45154e-10
1.67512e-17
-2.1365e-11
2.73769e-10
5.32928e-18
-4.25107e-12
8.04104e-11
1.35824e-18
-5.97555e-13
1.80137e-11
2.56387e-19
-5.33781e-14
2.87629e-12
3.41444e-20
-2.64836e-15
2.98718e-13
2.88392e-21