/*--------------------------------*- C++ -*----------------------------------*\
| =========                 |                                                 |
| \\      /  F ield         | OpenFOAM: The Open Source CFD Toolbox           |
|  \\    /   O peration     | Version:  v2012                                 |
|   \\  /    A nd           | Website:  www.openfoam.com                      |
|    \\/     M anipulation  |                                                 |
\*---------------------------------------------------------------------------*/
FoamFile
{
    version     2.0;
    format      ascii;
    class       volVectorField;
    location    "0.05";
    object      U;
}
// * * * * * * * * * * * * * * * * * * * * * * * * * * * * * * * * * * * * * //

dimensions      [0 1 -1 0 0 0 0];


internalField   nonuniform List<vector> 
3338
(
(-0.0118738 0.789858 0.000103677)
(-0.0100664 0.803716 8.78962e-05)
(-0.00860234 0.814859 7.51117e-05)
(-0.0073944 0.823718 6.45638e-05)
(-0.00638456 0.830343 5.5746e-05)
(-0.00552921 0.834518 4.82773e-05)
(-0.00479408 0.835857 4.18584e-05)
(-0.00415318 0.833855 3.62626e-05)
(-0.0035872 0.827923 3.1321e-05)
(-0.0030821 0.817398 2.69109e-05)
(-0.00262789 0.801542 2.29452e-05)
(-0.00221741 0.779526 1.93613e-05)
(-0.00184569 0.750408 1.61158e-05)
(-0.00150916 0.713109 1.31774e-05)
(-0.00120509 0.66636 1.05224e-05)
(-0.000931095 0.608664 8.12983e-06)
(-0.000685052 0.538242 5.98136e-06)
(-0.000464231 0.452974 4.05332e-06)
(-0.000268202 0.3504 2.34213e-06)
(-9.87969e-05 0.227779 8.65802e-07)
(1.30414e-06 0.0825841 1.73994e-08)
(-0.0353119 0.788556 0.000308332)
(-0.0300502 0.802783 0.000262388)
(-0.0257298 0.814171 0.000224663)
(-0.0221412 0.823205 0.000193327)
(-0.0191292 0.829955 0.000167027)
(-0.0165718 0.834219 0.000144697)
(-0.0143704 0.835619 0.000125476)
(-0.0124493 0.83366 0.000108702)
(-0.0107517 0.827758 9.38803e-05)
(-0.00923604 0.817253 8.06468e-05)
(-0.00787248 0.801411 6.87417e-05)
(-0.00663969 0.779404 5.79783e-05)
(-0.0055227 0.750292 4.8226e-05)
(-0.00451076 0.712994 3.93907e-05)
(-0.00359576 0.666245 3.14017e-05)
(-0.00277082 0.608544 2.41988e-05)
(-0.00203035 0.538113 1.77335e-05)
(-0.00136791 0.452833 1.19495e-05)
(-0.000785414 0.35025 6.86324e-06)
(-0.000292946 0.227642 2.56642e-06)
(-4.81079e-06 0.082515 9.80694e-08)
(-0.0576615 0.785564 0.000503476)
(-0.049364 0.800411 0.000431027)
(-0.0424157 0.812264 0.000370357)
(-0.0365814 0.821657 0.000319414)
(-0.031652 0.828684 0.000276372)
(-0.0274479 0.833159 0.000239663)
(-0.0238177 0.834722 0.000207966)
(-0.0206425 0.832887 0.000180244)
(-0.0178321 0.827083 0.000155706)
(-0.0153196 0.816657 0.000133769)
(-0.0130566 0.80088 0.000114011)
(-0.0110086 0.77893 9.61302e-05)
(-0.00915098 0.749869 7.9912e-05)
(-0.00746636 0.712618 6.52039e-05)
(-0.00594171 0.665913 5.18923e-05)
(-0.00456643 0.608254 3.98848e-05)
(-0.00333293 0.537864 2.9115e-05)
(-0.00223365 0.452624 1.95168e-05)
(-0.00127678 0.350084 1.11605e-05)
(-0.000484403 0.227529 4.24279e-06)
(-1.92639e-05 0.0824823 2.39305e-07)
(-0.0784906 0.781755 0.000685335)
(-0.0677075 0.797281 0.000591189)
(-0.058458 0.809711 0.000510428)
(-0.0505811 0.819574 0.00044165)
(-0.0438644 0.826972 0.000383003)
(-0.0380987 0.831733 0.00033266)
(-0.0330966 0.833515 0.000288985)
(-0.0287063 0.831847 0.000250653)
(-0.0248102 0.826172 0.000216636)
(-0.0213201 0.815849 0.000186164)
(-0.0181718 0.800158 0.000158677)
(-0.0153187 0.778281 0.000133767)
(-0.0127279 0.749283 0.000111147)
(-0.0103758 0.71209 9.06114e-05)
(-0.0082451 0.665439 7.20085e-05)
(-0.00632228 0.60783 5.52205e-05)
(-0.00459892 0.537488 4.01735e-05)
(-0.00306816 0.452296 2.68078e-05)
(-0.00174642 0.349809 1.52655e-05)
(-0.000668778 0.227333 5.85767e-06)
(-3.205e-05 0.0824073 3.84373e-07)
(-0.0975708 0.777348 0.000851918)
(-0.0848691 0.793476 0.000741027)
(-0.0736904 0.806522 0.000643425)
(-0.0640173 0.816929 0.000558965)
(-0.0556773 0.824775 0.000486146)
(-0.0484602 0.82989 0.000423131)
(-0.0421607 0.831946 0.000368128)
(-0.0366064 0.83049 0.000319633)
(-0.0316604 0.824981 0.00027645)
(-0.0272184 0.814791 0.000237667)
(-0.0232036 0.79921 0.000202615)
(-0.0195595 0.777426 0.000170798)
(-0.0162459 0.748511 0.000141868)
(-0.0132341 0.711394 0.000115573)
(-0.0105034 0.664811 9.1731e-05)
(-0.00803795 0.607267 7.02054e-05)
(-0.00582965 0.536987 5.09243e-05)
(-0.00387372 0.451859 3.38461e-05)
(-0.00219593 0.349445 1.91946e-05)
(-0.000844357 0.227071 7.39553e-06)
(-4.40687e-05 0.0823031 5.20673e-07)
(-0.114859 0.77264 0.00100285)
(-0.100742 0.789196 0.000879612)
(-0.0880052 0.802827 0.000768407)
(-0.0768 0.813806 0.000670573)
(-0.0670209 0.822144 0.000585189)
(-0.0584791 0.82766 0.000510609)
(-0.0509696 0.830031 0.000445042)
(-0.0443119 0.828824 0.000386914)
(-0.0383591 0.823513 0.000334941)
(-0.0329964 0.813482 0.000288119)
(-0.0281381 0.798034 0.000245702)
(-0.0237203 0.776365 0.000207132)
(-0.0196973 0.747551 0.000172008)
(-0.0160362 0.710525 0.000140043)
(-0.0127135 0.664028 0.000111033)
(-0.00971228 0.606566 8.48297e-05)
(-0.00702551 0.536365 6.13709e-05)
(-0.00465164 0.451318 4.06433e-05)
(-0.00262645 0.348999 2.2958e-05)
(-0.00101083 0.226753 8.85363e-06)
(-5.51837e-05 0.0821751 6.4592e-07)
(-0.130436 0.767845 0.00113883)
(-0.115306 0.784617 0.00100676)
(-0.101349 0.798758 0.000884909)
(-0.0888732 0.810296 0.000775982)
(-0.0778452 0.819143 0.000679696)
(-0.0681139 0.825084 0.000594732)
(-0.0594896 0.8278 0.000519433)
(-0.0517962 0.826869 0.000452263)
(-0.044885 0.82178 0.000391922)
(-0.0386372 0.811932 0.000337374)
(-0.0329622 0.796637 0.000287826)
(-0.0277912 0.7751 0.00024268)
(-0.0230747 0.746405 0.000201501)
(-0.0187768 0.709488 0.000163978)
(-0.0148724 0.663092 0.000129888)
(-0.011344 0.605727 9.90824e-05)
(-0.0081867 0.535622 7.15148e-05)
(-0.00540298 0.450675 4.72085e-05)
(-0.00303912 0.348471 2.65654e-05)
(-0.00116842 0.226379 1.0234e-05)
(-6.51559e-05 0.0820243 7.59082e-07)
(-0.144448 0.763083 0.00126114)
(-0.128599 0.779874 0.00112281)
(-0.113715 0.794433 0.000992871)
(-0.100212 0.806492 0.000874975)
(-0.08812 0.815836 0.000769405)
(-0.0773351 0.822209 0.000675243)
(-0.0676944 0.825284 0.000591071)
(-0.0590366 0.824647 0.000515482)
(-0.0512195 0.819798 0.000447233)
(-0.0441258 0.810151 0.000385298)
(-0.0376639 0.795027 0.000328881)
(-0.031763 0.77364 0.000277363)
(-0.0263713 0.745078 0.00023029)
(-0.0214514 0.708285 0.000187335)
(-0.0169773 0.662006 0.000148272)
(-0.012932 0.604753 0.000112952)
(-0.0093132 0.53476 8.13557e-05)
(-0.0061285 0.449932 5.35481e-05)
(-0.00343484 0.347865 3.00248e-05)
(-0.00131763 0.225953 1.15409e-05)
(-7.39932e-05 0.0818523 8.60592e-07)
(-0.157062 0.7584 0.00137123)
(-0.140702 0.775069 0.00122847)
(-0.125134 0.789951 0.00109256)
(-0.110818 0.802471 0.000967573)
(-0.0978333 0.812282 0.00085421)
(-0.0861247 0.819076 0.000751985)
(-0.0755648 0.822512 0.000659788)
(-0.0660151 0.822178 0.000576413)
(-0.0573467 0.817583 0.000500732)
(-0.0494487 0.80815 0.000431777)
(-0.0422324 0.793212 0.000368773)
(-0.0356272 0.771989 0.000311105)
(-0.0295808 0.743576 0.000258317)
(-0.0240556 0.70692 0.000210077)
(-0.0190255 0.660772 0.00016616)
(-0.0144748 0.603646 0.000126428)
(-0.0104049 0.533782 9.0893e-05)
(-0.00682888 0.449091 5.9668e-05)
(-0.00381451 0.347183 3.33439e-05)
(-0.00145903 0.225477 1.27795e-05)
(-8.17786e-05 0.0816601 9.51447e-07)
(-0.168451 0.753785 0.00147061)
(-0.151727 0.770274 0.00132472)
(-0.135669 0.785394 0.00118453)
(-0.120718 0.798305 0.001054)
(-0.106989 0.808536 0.000934146)
(-0.0944751 0.815726 0.000824891)
(-0.0830881 0.819514 0.000725475)
(-0.0727178 0.819484 0.000634936)
(-0.0632533 0.815149 0.000552305)
(-0.0545944 0.805942 0.000476707)
(-0.0466579 0.791201 0.000407417)
(-0.039376 0.770155 0.000343841)
(-0.0326975 0.741904 0.000285533)
(-0.0265853 0.705399 0.000232169)
(-0.0210145 0.659395 0.000183531)
(-0.0159714 0.602411 0.000139501)
(-0.0114618 0.532691 0.000100126)
(-0.00750462 0.448154 6.55728e-05)
(-0.00417889 0.346427 3.65293e-05)
(-0.00159322 0.224951 1.3955e-05)
(-8.86483e-05 0.0814489 1.03293e-06)
(-0.17883 0.749195 0.0015612)
(-0.161821 0.765538 0.00141284)
(-0.145407 0.780822 0.00126955)
(-0.129955 0.794046 0.00113464)
(-0.115604 0.804641 0.00100936)
(-0.102387 0.812195 0.000893971)
(-0.0902576 0.816317 0.000788072)
(-0.0791347 0.816585 0.000690964)
(-0.0689288 0.812514 0.00060186)
(-0.059553 0.803539 0.000520004)
(-0.0509322 0.789004 0.000444739)
(-0.0430028 0.768145 0.00037551)
(-0.0357161 0.740067 0.000311893)
(-0.0290368 0.703725 0.000253578)
(-0.022942 0.657878 0.000200365)
(-0.0174207 0.60105 0.00015216)
(-0.0124836 0.531489 0.000109052)
(-0.00815614 0.447126 7.12659e-05)
(-0.00452861 0.3456 3.95867e-05)
(-0.00172073 0.224378 1.50721e-05)
(-9.47314e-05 0.0812197 1.1063e-06)
(-0.188478 0.744562 0.00164548)
(-0.171162 0.760872 0.00149439)
(-0.154451 0.776267 0.0013485)
(-0.138584 0.789732 0.00120998)
(-0.123702 0.800634 0.00108006)
(-0.109869 0.808511 0.000959288)
(-0.0970712 0.812946 0.000847561)
(-0.0852593 0.813502 0.000744438)
(-0.0743651 0.809692 0.000649327)
(-0.0643166 0.800952 0.000561597)
(-0.0550481 0.786631 0.000480678)
(-0.0465016 0.765968 0.000406063)
(-0.0386321 0.738072 0.000337358)
(-0.031407 0.701904 0.000274278)
(-0.024806 0.656226 0.000216645)
(-0.0188217 0.599567 0.000164397)
(-0.0134701 0.530181 0.00011767)
(-0.00878376 0.446007 7.67502e-05)
(-0.00486421 0.344703 4.25206e-05)
(-0.00184204 0.22376 1.61348e-05)
(-0.00010014 0.0809734 1.17265e-06)
(-0.197572 0.739855 0.00172494)
(-0.179902 0.756254 0.00157068)
(-0.162897 0.771738 0.00142223)
(-0.14666 0.785385 0.00128049)
(-0.131312 0.796539 0.00114649)
(-0.11693 0.804699 0.00102094)
(-0.10353 0.809421 0.000903953)
(-0.0910878 0.810253 0.000795327)
(-0.0795563 0.806699 0.000694653)
(-0.0688788 0.798195 0.000601432)
(-0.0589997 0.784092 0.000515183)
(-0.0498676 0.763631 0.000435455)
(-0.0414418 0.735926 0.000361894)
(-0.0336933 0.699942 0.000294244)
(-0.0266049 0.654444 0.000232357)
(-0.0201736 0.597966 0.000176205)
(-0.0144212 0.528769 0.000125979)
(-0.00938776 0.444802 8.20282e-05)
(-0.00518613 0.343739 4.53349e-05)
(-0.00195753 0.223098 1.71465e-05)
(-0.000104968 0.0807109 1.23288e-06)
(-0.206149 0.735099 0.00179985)
(-0.188125 0.751664 0.00164248)
(-0.170817 0.767226 0.00149137)
(-0.154232 0.781011 0.00134659)
(-0.13846 0.792372 0.0012089)
(-0.123584 0.800778 0.00107903)
(-0.109638 0.805761 0.000957279)
(-0.0966187 0.806853 0.000843618)
(-0.0844985 0.803548 0.000737804)
(-0.0732348 0.79528 0.000639467)
(-0.0627825 0.781397 0.000548214)
(-0.0530969 0.761144 0.000463654)
(-0.0441423 0.733637 0.000385475)
(-0.0358934 0.697844 0.000313458)
(-0.0283375 0.652536 0.000247488)
(-0.0214758 0.59625 0.000187579)
(-0.0153368 0.527256 0.000133978)
(-0.0099684 0.443513 8.7102e-05)
(-0.00549473 0.342711 4.80329e-05)
(-0.00206751 0.222395 1.811e-05)
(-0.000109287 0.0804331 1.28771e-06)
(-0.214276 0.730332 0.00187083)
(-0.195894 0.747083 0.00171029)
(-0.178264 0.762719 0.00155638)
(-0.161337 0.776613 0.00140861)
(-0.145171 0.788142 0.00126749)
(-0.129844 0.796761 0.00113368)
(-0.1154 0.801982 0.00100758)
(-0.101852 0.803318 0.000889312)
(-0.0891894 0.800254 0.000778762)
(-0.0773817 0.792218 0.000675675)
(-0.0663934 0.778556 0.000579743)
(-0.0561867 0.758514 0.000490634)
(-0.0467312 0.731211 0.000408083)
(-0.038006 0.695617 0.000331907)
(-0.0300028 0.650507 0.000262032)
(-0.022728 0.594425 0.000198517)
(-0.0162171 0.525647 0.000141668)
(-0.0105259 0.442143 9.19739e-05)
(-0.00579036 0.341621 5.06173e-05)
(-0.00217223 0.221652 1.90274e-05)
(-0.000113153 0.0801407 1.33767e-06)
(-0.22196 0.725589 0.0019379)
(-0.203228 0.742498 0.00177432)
(-0.185267 0.758204 0.00161752)
(-0.168002 0.772187 0.0014668)
(-0.151464 0.783856 0.00132243)
(-0.135721 0.792661 0.00118499)
(-0.120821 0.798096 0.00105492)
(-0.10679 0.799661 0.000932424)
(-0.0936285 0.796829 0.000817521)
(-0.0813176 0.789021 0.000710041)
(-0.0698303 0.77558 0.000609753)
(-0.0591353 0.755751 0.000516381)
(-0.0492073 0.728656 0.000429706)
(-0.0400302 0.693267 0.000349584)
(-0.0316004 0.648364 0.000275985)
(-0.0239301 0.592495 0.000209017)
(-0.0170621 0.523945 0.00014905)
(-0.0110607 0.440695 9.66468e-05)
(-0.0060733 0.340471 5.3091e-05)
(-0.00227191 0.22087 1.99007e-05)
(-0.000116608 0.0798344 1.38319e-06)
(-0.229143 0.720901 0.00200058)
(-0.210118 0.737905 0.00183447)
(-0.191838 0.753672 0.00167489)
(-0.174246 0.767731 0.00152131)
(-0.157355 0.779518 0.00137386)
(-0.141225 0.788484 0.00123305)
(-0.125908 0.794115 0.00109933)
(-0.111435 0.795895 0.000972978)
(-0.0978164 0.793286 0.000854085)
(-0.0850422 0.7857 0.000742562)
(-0.0730925 0.772479 0.000638238)
(-0.0619419 0.752864 0.000540889)
(-0.0515701 0.725979 0.000450338)
(-0.0419656 0.6908 0.000366486)
(-0.0331303 0.646111 0.000289347)
(-0.0250824 0.590464 0.000219081)
(-0.0178723 0.522154 0.000156128)
(-0.011573 0.439172 0.000101124)
(-0.00634386 0.339263 5.54564e-05)
(-0.00236672 0.220051 2.07314e-05)
(-0.000119682 0.0795149 1.42456e-06)
(-0.235811 0.716291 0.00205876)
(-0.216555 0.73332 0.00189067)
(-0.197986 0.749125 0.00172856)
(-0.180081 0.763243 0.00157225)
(-0.162855 0.775129 0.00142188)
(-0.146367 0.784239 0.00127794)
(-0.130666 0.790049 0.00114087)
(-0.11579 0.792031 0.001011)
(-0.101755 0.789636 0.000888475)
(-0.0885565 0.782268 0.000773247)
(-0.0761807 0.769262 0.000665203)
(-0.0646071 0.749862 0.000564161)
(-0.05382 0.723189 0.000469985)
(-0.0438129 0.688223 0.000382618)
(-0.0345932 0.643753 0.000302123)
(-0.0261854 0.588337 0.000228716)
(-0.0186481 0.520277 0.000162906)
(-0.0120634 0.437578 0.000105409)
(-0.00660238 0.338001 5.77165e-05)
(-0.00245684 0.219197 2.1521e-05)
(-0.000122397 0.079183 1.46202e-06)
(-0.242028 0.711759 0.00211301)
(-0.222564 0.728751 0.00194312)
(-0.203724 0.744564 0.00177866)
(-0.185518 0.758723 0.00161972)
(-0.167975 0.770693 0.00146658)
(-0.151154 0.779931 0.00131973)
(-0.135103 0.785907 0.0011796)
(-0.119861 0.78808 0.00104655)
(-0.105448 0.78589 0.000920717)
(-0.0918631 0.778733 0.000802118)
(-0.0790967 0.765941 0.000690664)
(-0.0671323 0.746753 0.00058621)
(-0.0559583 0.720293 0.000488658)
(-0.0455733 0.685543 0.000397992)
(-0.0359901 0.641296 0.000314324)
(-0.0272401 0.586119 0.000237929)
(-0.0193905 0.518319 0.000169391)
(-0.0125325 0.435915 0.000109508)
(-0.00684921 0.336685 5.98745e-05)
(-0.00254244 0.21831 2.22709e-05)
(-0.000124772 0.0788392 1.49574e-06)
(-0.247873 0.707278 0.00216404)
(-0.22818 0.724193 0.00199214)
(-0.209066 0.739985 0.0018253)
(-0.190567 0.754169 0.0016638)
(-0.172724 0.766211 0.00150803)
(-0.155593 0.775567 0.00135849)
(-0.139224 0.781698 0.00121558)
(-0.123652 0.784052 0.00107965)
(-0.108899 0.78206 0.000950851)
(-0.0949656 0.775109 0.000829206)
(-0.0818437 0.762524 0.000714649)
(-0.0695202 0.743546 0.000607061)
(-0.0579875 0.717298 0.000506377)
(-0.0472488 0.682765 0.000412623)
(-0.0373228 0.638746 0.000325962)
(-0.028248 0.583813 0.000246732)
(-0.0201004 0.516282 0.000175593)
(-0.0129809 0.434185 0.000113427)
(-0.00708477 0.33532 6.1934e-05)
(-0.00262367 0.21739 2.29827e-05)
(-0.000126819 0.0784842 1.52589e-06)
(-0.253401 0.702804 0.0022123)
(-0.233427 0.719622 0.00203796)
(-0.214026 0.735379 0.0018686)
(-0.195238 0.749578 0.00170458)
(-0.177108 0.761685 0.00154631)
(-0.159693 0.771152 0.00139428)
(-0.143036 0.77743 0.00124887)
(-0.127171 0.779958 0.00111037)
(-0.112115 0.778156 0.000978929)
(-0.0978692 0.771404 0.000854558)
(-0.0844262 0.759022 0.000737198)
(-0.0717747 0.740249 0.000626748)
(-0.0599107 0.714212 0.000523171)
(-0.048842 0.679897 0.000426536)
(-0.0385933 0.636108 0.000337059)
(-0.0292107 0.581424 0.000255141)
(-0.0207792 0.514171 0.000181523)
(-0.0134096 0.432393 0.000117173)
(-0.00730956 0.333905 6.38993e-05)
(-0.00270074 0.21644 2.36579e-05)
(-0.000128552 0.0781187 1.55256e-06)
(-0.258629 0.698285 0.00225794)
(-0.23832 0.715014 0.00208067)
(-0.218612 0.730733 0.00190863)
(-0.199536 0.744947 0.0017421)
(-0.181136 0.757118 0.00158147)
(-0.163461 0.766692 0.00142718)
(-0.146549 0.773113 0.00127953)
(-0.130425 0.775809 0.00113878)
(-0.115103 0.77419 0.00100502)
(-0.100581 0.767629 0.000878231)
(-0.0868499 0.755444 0.00075836)
(-0.0739009 0.736872 0.000645313)
(-0.0617323 0.711042 0.000539078)
(-0.0503566 0.676944 0.000439763)
(-0.0398047 0.633387 0.000347638)
(-0.0301304 0.578956 0.000263174)
(-0.0214284 0.511989 0.000187194)
(-0.0138196 0.430541 0.000120755)
(-0.00752415 0.332445 6.57754e-05)
(-0.00277385 0.21546 2.42985e-05)
(-0.000129982 0.0777431 1.57594e-06)
(-0.263547 0.693677 0.00230088)
(-0.242857 0.710342 0.00212028)
(-0.222825 0.726036 0.00194541)
(-0.203466 0.740271 0.00177642)
(-0.184813 0.752511 0.00161358)
(-0.166906 0.762193 0.00145725)
(-0.14977 0.768754 0.00130766)
(-0.133424 0.771613 0.00116496)
(-0.117872 0.77017 0.00102919)
(-0.103108 0.763794 0.000900296)
(-0.0891222 0.751799 0.0007782)
(-0.075905 0.733423 0.000662812)
(-0.0634575 0.707795 0.000554142)
(-0.0517967 0.673912 0.000452339)
(-0.0409603 0.630587 0.000357731)
(-0.0310098 0.576414 0.000270855)
(-0.0220499 0.509739 0.000192623)
(-0.014212 0.42863 0.000124185)
(-0.00772918 0.33094 6.75679e-05)
(-0.00284325 0.214452 2.49065e-05)
(-0.000131123 0.077358 1.59618e-06)
(-0.268129 0.688946 0.00234088)
(-0.247028 0.705586 0.0021567)
(-0.226665 0.721278 0.00197894)
(-0.207033 0.735551 0.00180755)
(-0.188148 0.747868 0.00164269)
(-0.170036 0.757663 0.00148458)
(-0.152711 0.764364 0.00133333)
(-0.136177 0.767381 0.001189)
(-0.120431 0.766108 0.00105154)
(-0.105461 0.759909 0.000920838)
(-0.0912517 0.748097 0.000796793)
(-0.0777944 0.729909 0.000679309)
(-0.0650925 0.704478 0.000568419)
(-0.0531677 0.670807 0.000464311)
(-0.0420641 0.627714 0.00036737)
(-0.0318518 0.573801 0.00027821)
(-0.0226458 0.507424 0.000197829)
(-0.0145884 0.426665 0.000127473)
(-0.0079254 0.329392 6.92835e-05)
(-0.00290921 0.213417 2.54845e-05)
(-0.000131992 0.0769639 1.61345e-06)
(-0.272342 0.684073 0.00237767)
(-0.250821 0.700731 0.00218981)
(-0.23013 0.716453 0.00200919)
(-0.210239 0.730785 0.00183555)
(-0.191148 0.743194 0.00166888)
(-0.172864 0.75311 0.00150927)
(-0.155384 0.759952 0.00135667)
(-0.138699 0.763124 0.00121101)
(-0.122795 0.762015 0.00107217)
(-0.10765 0.755985 0.000939956)
(-0.0932484 0.744346 0.000814226)
(-0.0795779 0.726337 0.000694882)
(-0.0666447 0.701098 0.000581973)
(-0.0544752 0.667634 0.000475729)
(-0.0431207 0.624771 0.000376598)
(-0.03266 0.571121 0.000285268)
(-0.0232185 0.505047 0.000202833)
(-0.0149501 0.424646 0.000130634)
(-0.00811365 0.327804 7.09294e-05)
(-0.00297205 0.212357 2.60351e-05)
(-0.000132605 0.0765613 1.62796e-06)
(-0.276153 0.679046 0.00241095)
(-0.25422 0.695771 0.00221949)
(-0.233216 0.71156 0.00203613)
(-0.213091 0.725979 0.00186044)
(-0.193823 0.738498 0.00169224)
(-0.175401 0.748543 0.00153142)
(-0.157803 0.755529 0.00137779)
(-0.141004 0.758853 0.00123113)
(-0.124976 0.7579 0.00109121)
(-0.10969 0.752029 0.000957765)
(-0.0951241 0.740554 0.000830603)
(-0.0812654 0.722716 0.000709616)
(-0.0681223 0.69766 0.000594875)
(-0.055726 0.664398 0.000486652)
(-0.0441353 0.621764 0.000385459)
(-0.0334381 0.568377 0.000292065)
(-0.0237709 0.502611 0.000207658)
(-0.0152989 0.422575 0.000133683)
(-0.00829487 0.326176 7.25138e-05)
(-0.00303212 0.211271 2.65614e-05)
(-0.000132982 0.0761506 1.63995e-06)
(-0.279537 0.673866 0.00244049)
(-0.257215 0.690707 0.00224564)
(-0.235924 0.706603 0.00205978)
(-0.215596 0.721139 0.00188231)
(-0.196187 0.733787 0.00171287)
(-0.177664 0.743973 0.00155117)
(-0.159986 0.751105 0.00139684)
(-0.143109 0.754578 0.00124951)
(-0.126992 0.753774 0.00110881)
(-0.111595 0.748052 0.000974395)
(-0.0968917 0.736729 0.000846035)
(-0.0828681 0.719052 0.000723609)
(-0.0695344 0.69417 0.000607205)
(-0.0569275 0.661104 0.000497144)
(-0.0451137 0.618695 0.000394003)
(-0.0341904 0.565571 0.000298636)
(-0.0243058 0.500117 0.000212331)
(-0.0156368 0.420455 0.000136635)
(-0.00847009 0.324509 7.40457e-05)
(-0.00308978 0.210162 2.70668e-05)
(-0.000133148 0.0757322 1.64967e-06)
(-0.282475 0.66854 0.00246614)
(-0.259801 0.685544 0.00226822)
(-0.238259 0.70159 0.00208017)
(-0.217765 0.716274 0.00190126)
(-0.198255 0.729074 0.00173093)
(-0.179672 0.739412 0.0015687)
(-0.161952 0.746693 0.00141401)
(-0.145033 0.750311 0.00126631)
(-0.12886 0.749647 0.00112512)
(-0.113382 0.744062 0.000989993)
(-0.098566 0.732879 0.000860653)
(-0.0843982 0.71535 0.000736969)
(-0.0708914 0.690633 0.000619054)
(-0.0580878 0.657755 0.000507276)
(-0.046062 0.615567 0.000402285)
(-0.0349216 0.562706 0.000305022)
(-0.0248264 0.497568 0.000216879)
(-0.0159658 0.418287 0.00013951)
(-0.0086404 0.322806 7.55349e-05)
(-0.00314548 0.209029 2.75549e-05)
(-0.000133129 0.0753064 1.65743e-06)
(-0.284959 0.663079 0.00248784)
(-0.261979 0.680296 0.00228724)
(-0.240232 0.696533 0.00209739)
(-0.219617 0.711398 0.00191742)
(-0.200049 0.724371 0.00174659)
(-0.181447 0.734872 0.0015842)
(-0.163725 0.742305 0.00142949)
(-0.146801 0.746062 0.00128174)
(-0.130602 0.745528 0.00114033)
(-0.115069 0.740068 0.00100472)
(-0.100163 0.72901 0.000874595)
(-0.0858695 0.711617 0.000749814)
(-0.0722041 0.687053 0.000630516)
(-0.0592156 0.654355 0.000517124)
(-0.046987 0.612383 0.000410364)
(-0.0356366 0.559784 0.000311267)
(-0.0253362 0.494964 0.000221333)
(-0.0162881 0.416072 0.000142327)
(-0.00880702 0.321065 7.69917e-05)
(-0.00319965 0.207874 2.80296e-05)
(-0.000132954 0.0748735 1.66356e-06)
(-0.286993 0.657501 0.0025056)
(-0.263761 0.674976 0.0023028)
(-0.241859 0.691447 0.00211159)
(-0.221172 0.706525 0.001931)
(-0.201593 0.719693 0.00176007)
(-0.183017 0.730368 0.0015979)
(-0.165332 0.737953 0.00144351)
(-0.148436 0.741843 0.00129601)
(-0.132241 0.741426 0.00115463)
(-0.116677 0.736076 0.00101876)
(-0.1017 0.725129 0.000888017)
(-0.0872965 0.707857 0.000762273)
(-0.0734847 0.683434 0.000641697)
(-0.0603204 0.650907 0.000526771)
(-0.047896 0.609146 0.000418302)
(-0.0363407 0.556807 0.000317417)
(-0.025839 0.492308 0.000225725)
(-0.016606 0.413811 0.000145105)
(-0.00897121 0.319289 7.84272e-05)
(-0.00325279 0.206696 2.84952e-05)
(-0.000132655 0.0744336 1.66841e-06)
(-0.288593 0.651825 0.00251956)
(-0.265167 0.669604 0.00231508)
(-0.243166 0.68635 0.00212301)
(-0.222461 0.701674 0.00194225)
(-0.20292 0.715057 0.00177166)
(-0.184413 0.725914 0.00161009)
(-0.166803 0.73365 0.00145636)
(-0.149968 0.737663 0.00130938)
(-0.133802 0.73735 0.00116826)
(-0.118228 0.732093 0.0010323)
(-0.103197 0.72124 0.000901085)
(-0.088695 0.704073 0.000774483)
(-0.0747457 0.679778 0.000652707)
(-0.0614121 0.647412 0.000536304)
(-0.0487966 0.605856 0.000426167)
(-0.0370395 0.553776 0.00032352)
(-0.0263385 0.4896 0.000230089)
(-0.016922 0.411503 0.000147866)
(-0.0091343 0.317478 7.98532e-05)
(-0.0033054 0.205496 2.89563e-05)
(-0.000132266 0.0739868 1.67238e-06)
(-0.289787 0.646073 0.00252999)
(-0.266229 0.664202 0.00232435)
(-0.244188 0.681262 0.00213192)
(-0.223519 0.696863 0.00195148)
(-0.204066 0.71048 0.00178166)
(-0.185672 0.721526 0.00162107)
(-0.168174 0.729408 0.00146832)
(-0.151427 0.733533 0.00132213)
(-0.135315 0.733307 0.00118147)
(-0.119747 0.728126 0.00104556)
(-0.104674 0.717348 0.000913976)
(-0.0900818 0.700269 0.000786591)
(-0.0760006 0.676088 0.000663664)
(-0.0625013 0.643873 0.000545815)
(-0.0496965 0.602515 0.000434026)
(-0.0377387 0.55069 0.000329628)
(-0.0268387 0.48684 0.000234459)
(-0.0172385 0.40915 0.000150632)
(-0.00929768 0.315631 8.12817e-05)
(-0.00335801 0.204274 2.94173e-05)
(-0.000131825 0.0735332 1.67588e-06)
(-0.29062 0.640267 0.00253726)
(-0.26699 0.658791 0.00233098)
(-0.244968 0.676207 0.00213873)
(-0.22439 0.692113 0.00195909)
(-0.205075 0.705978 0.00179046)
(-0.186835 0.717217 0.00163123)
(-0.169482 0.725239 0.00147973)
(-0.152851 0.729462 0.00133455)
(-0.136809 0.729305 0.00119451)
(-0.12126 0.724177 0.00105877)
(-0.106152 0.713455 0.000926881)
(-0.0914746 0.696447 0.000798751)
(-0.0772634 0.672365 0.000674691)
(-0.0635987 0.640289 0.000555398)
(-0.0506042 0.599122 0.000441953)
(-0.0384444 0.547551 0.000335791)
(-0.0273439 0.484027 0.000238872)
(-0.0175583 0.406752 0.000153427)
(-0.00946278 0.313748 8.27252e-05)
(-0.00341118 0.20303 2.98832e-05)
(-0.00013137 0.0730728 1.67932e-06)
(-0.291147 0.634428 0.00254186)
(-0.267502 0.653396 0.00233546)
(-0.245559 0.671206 0.00214389)
(-0.225128 0.687445 0.00196552)
(-0.205998 0.701572 0.00179851)
(-0.18795 0.713002 0.00164096)
(-0.170771 0.721154 0.00149099)
(-0.154275 0.725456 0.00134698)
(-0.138317 0.725347 0.00120767)
(-0.122794 0.720252 0.00107216)
(-0.107655 0.709563 0.000939999)
(-0.0928916 0.692607 0.000811123)
(-0.0785487 0.668608 0.000685913)
(-0.0647157 0.63666 0.000565152)
(-0.051528 0.595677 0.00045002)
(-0.0391626 0.544357 0.000342064)
(-0.0278581 0.481162 0.000243364)
(-0.017884 0.404306 0.000156273)
(-0.00963106 0.311829 8.41965e-05)
(-0.00346546 0.201764 3.03589e-05)
(-0.000130941 0.0726054 1.68316e-06)
(-0.291437 0.628578 0.00254439)
(-0.267834 0.64804 0.00233835)
(-0.246025 0.666284 0.00214796)
(-0.225794 0.682879 0.00197133)
(-0.206892 0.697277 0.00180632)
(-0.189071 0.708894 0.00165074)
(-0.172089 0.717161 0.00150249)
(-0.155742 0.721523 0.00135979)
(-0.139874 0.721437 0.00122127)
(-0.124379 0.71635 0.001086)
(-0.109205 0.705672 0.000953536)
(-0.094352 0.688748 0.000823873)
(-0.0798713 0.664817 0.000697461)
(-0.0658637 0.632985 0.000575176)
(-0.0524764 0.592179 0.000458303)
(-0.0398995 0.541107 0.000348501)
(-0.0283856 0.478243 0.000247972)
(-0.0182183 0.401813 0.000159194)
(-0.00980397 0.309873 8.57083e-05)
(-0.00352142 0.200474 3.08494e-05)
(-0.000130579 0.0721309 1.68786e-06)
(-0.291572 0.622736 0.00254556)
(-0.268062 0.642748 0.00234034)
(-0.246443 0.661464 0.0021516)
(-0.226458 0.678436 0.00197713)
(-0.207824 0.69311 0.00181445)
(-0.190256 0.704905 0.00166108)
(-0.173487 0.713269 0.00151469)
(-0.157297 0.717666 0.00137335)
(-0.141519 0.717577 0.00123562)
(-0.126045 0.712471 0.00110054)
(-0.110829 0.701782 0.000967708)
(-0.0958752 0.684869 0.000837171)
(-0.0812464 0.660989 0.000709468)
(-0.0670542 0.629262 0.000585571)
(-0.053458 0.588626 0.000466875)
(-0.0406613 0.537799 0.000355154)
(-0.0289306 0.475269 0.000252733)
(-0.0185638 0.399271 0.000162213)
(-0.009983 0.307879 8.72736e-05)
(-0.00357964 0.199161 3.13595e-05)
(-0.000130327 0.071649 1.69387e-06)
(-0.291648 0.616922 0.00254622)
(-0.268279 0.637543 0.00234223)
(-0.246898 0.656769 0.00215557)
(-0.227202 0.674136 0.00198362)
(-0.208866 0.689085 0.00182354)
(-0.191569 0.701045 0.00167254)
(-0.175021 0.709482 0.00152808)
(-0.158985 0.713886 0.00138809)
(-0.143288 0.713765 0.00125107)
(-0.127824 0.708614 0.00111607)
(-0.11255 0.697887 0.000982734)
(-0.0974808 0.680966 0.00085119)
(-0.0826891 0.657121 0.000722065)
(-0.0682986 0.625488 0.000596438)
(-0.0544814 0.585014 0.000475813)
(-0.0414541 0.534432 0.000362078)
(-0.0294974 0.472236 0.000257684)
(-0.0189232 0.396679 0.000165353)
(-0.0101696 0.305846 8.89048e-05)
(-0.00364067 0.197823 3.18943e-05)
(-0.000130226 0.0711594 1.70165e-06)
(-0.291777 0.611157 0.00254734)
(-0.268591 0.632448 0.00234495)
(-0.247489 0.652221 0.00216073)
(-0.228116 0.669997 0.00199159)
(-0.210099 0.685215 0.0018343)
(-0.193082 0.69732 0.00168575)
(-0.176751 0.705802 0.00154318)
(-0.160856 0.710183 0.00140443)
(-0.145223 0.709999 0.00126796)
(-0.129747 0.704773 0.00113286)
(-0.114394 0.693985 0.000998835)
(-0.0991885 0.677034 0.0008661)
(-0.0842146 0.653209 0.000735385)
(-0.0696084 0.621658 0.000607875)
(-0.0555549 0.581341 0.000485187)
(-0.0422838 0.531001 0.000369325)
(-0.0300899 0.469144 0.000262861)
(-0.019299 0.394034 0.000168638)
(-0.0103651 0.303771 9.06144e-05)
(-0.00370506 0.196459 3.24586e-05)
(-0.000130318 0.0706615 1.71166e-06)
(-0.292089 0.605458 0.00255005)
(-0.269121 0.627486 0.00234956)
(-0.248331 0.647841 0.00216807)
(-0.229302 0.666033 0.00200194)
(-0.211612 0.681508 0.00184751)
(-0.19487 0.693733 0.00170135)
(-0.17874 0.702228 0.00156053)
(-0.162963 0.706551 0.00142281)
(-0.147365 0.706272 0.00128665)
(-0.131848 0.700942 0.0011512)
(-0.116387 0.690067 0.00101623)
(-0.101018 0.673066 0.000882072)
(-0.0858376 0.649246 0.000749556)
(-0.0709945 0.617767 0.00061998)
(-0.0566865 0.577602 0.00049507)
(-0.0431562 0.527503 0.000376946)
(-0.0307122 0.465988 0.000268297)
(-0.0196938 0.391334 0.000172088)
(-0.010571 0.301654 9.24141e-05)
(-0.00377336 0.195068 3.3057e-05)
(-0.000130643 0.070155 1.72434e-06)
(-0.292735 0.599844 0.00255567)
(-0.270007 0.622679 0.00235728)
(-0.249549 0.643646 0.00217869)
(-0.230872 0.662255 0.00201564)
(-0.213502 0.677968 0.001864)
(-0.197013 0.690281 0.00172006)
(-0.181052 0.698754 0.00158072)
(-0.165356 0.702983 0.0014437)
(-0.149754 0.702574 0.00130751)
(-0.134157 0.697111 0.00117136)
(-0.118552 0.686125 0.00103514)
(-0.102988 0.669055 0.00089927)
(-0.0875723 0.645226 0.000764703)
(-0.0724676 0.61381 0.000632843)
(-0.0578841 0.573791 0.000505529)
(-0.0440769 0.523934 0.000384987)
(-0.0313678 0.462766 0.000274025)
(-0.0201099 0.388575 0.000175724)
(-0.0107884 0.299491 9.43154e-05)
(-0.00384605 0.193649 3.3694e-05)
(-0.000131241 0.0696392 1.74012e-06)
(-0.293886 0.594332 0.00256569)
(-0.271408 0.618041 0.0023695)
(-0.251285 0.639647 0.00219384)
(-0.232949 0.658668 0.00203376)
(-0.215871 0.674593 0.00188467)
(-0.199596 0.686959 0.0017426)
(-0.183756 0.695369 0.00160432)
(-0.16809 0.699464 0.00146757)
(-0.152433 0.698892 0.0013309)
(-0.136708 0.693267 0.00119363)
(-0.120915 0.682147 0.00105577)
(-0.105116 0.664991 0.000917853)
(-0.0894322 0.64114 0.000780943)
(-0.0740376 0.609779 0.000646553)
(-0.0591548 0.569904 0.000516626)
(-0.0450508 0.520289 0.000393493)
(-0.0320604 0.459473 0.000280075)
(-0.0205495 0.385756 0.000179565)
(-0.0110187 0.297281 9.63285e-05)
(-0.00392362 0.1922 3.43737e-05)
(-0.000132149 0.0691135 1.75942e-06)
(-0.295742 0.588934 0.00258186)
(-0.273505 0.613587 0.00238779)
(-0.253696 0.63585 0.00221487)
(-0.235664 0.655269 0.00205746)
(-0.218827 0.671374 0.00191048)
(-0.202704 0.68375 0.00176973)
(-0.18692 0.692055 0.00163194)
(-0.171216 0.695979 0.00149486)
(-0.155441 0.69521 0.00135715)
(-0.13953 0.689396 0.00121827)
(-0.123498 0.67812 0.00107832)
(-0.10742 0.660863 0.000937969)
(-0.0914299 0.636978 0.000798388)
(-0.0757138 0.605667 0.000661191)