/*--------------------------------*- C++ -*----------------------------------*\
| =========                 |                                                 |
| \\      /  F ield         | OpenFOAM: The Open Source CFD Toolbox           |
|  \\    /   O peration     | Version:  v2012                                 |
|   \\  /    A nd           | Website:  www.openfoam.com                      |
|    \\/     M anipulation  |                                                 |
\*---------------------------------------------------------------------------*/
FoamFile
{
    version     2.0;
    format      ascii;
    class       volVectorField;
    location    "0.45";
    object      U;
}
// * * * * * * * * * * * * * * * * * * * * * * * * * * * * * * * * * * * * * //

dimensions      [0 1 -1 0 0 0 0];


internalField   nonuniform List<vector> 
3320
(
(-2.931 -0.28831 0.0255789)
(-2.22022 -0.209161 0.0193759)
(-1.6649 -0.152408 0.0145296)
(-1.23036 -0.110909 0.0107372)
(-0.889421 -0.0802712 0.0077617)
(-0.622629 -0.0575807 0.00543334)
(-0.414789 -0.0408176 0.00361949)
(-0.254103 -0.0285143 0.00221718)
(-0.131197 -0.0195623 0.0011446)
(-0.0382927 -0.0131251 0.000333845)
(0.0305399 -0.00866751 -0.000266834)
(0.0803344 -0.00546728 -0.000701373)
(0.115321 -0.00328227 -0.00100668)
(0.138602 -0.00182155 -0.00120985)
(0.152876 -0.000859444 -0.00133441)
(0.16024 -0.000240534 -0.00139867)
(0.162373 0.000146012 -0.00141729)
(0.160602 0.000377508 -0.00140183)
(0.155976 0.000507272 -0.00136146)
(0.149308 0.000561186 -0.00130327)
(0.141236 0.000587789 -0.00123283)
(0.132257 0.000576171 -0.00115446)
(0.122743 0.000551657 -0.00107143)
(0.112971 0.000519691 -0.000986138)
(0.103146 0.000484408 -0.000900385)
(0.0934141 0.000448706 -0.000815444)
(0.0838755 0.000414297 -0.00073219)
(0.0745997 0.00038187 -0.000651229)
(0.0656316 0.000351454 -0.000572953)
(0.0570066 0.000322558 -0.000497672)
(0.0487605 0.000294353 -0.000425695)
(0.0409355 0.000265954 -0.000357393)
(0.033589 0.000237212 -0.000293265)
(0.026789 0.000206694 -0.000233906)
(0.0206272 0.000173264 -0.000180115)
(0.0151939 0.000139242 -0.000132682)
(0.0105598 0.000106856 -9.22247e-05)
(0.00676033 7.77887e-05 -5.90523e-05)
(0.00379211 5.21483e-05 -3.3135e-05)
(0.00158298 3.32485e-05 -1.38431e-05)
(9.50715e-05 1.34998e-05 -8.42484e-07)
(-0.000720617 -8.29963e-06 6.30423e-06)
(-0.000476315 -7.18655e-05 4.30026e-06)
(-3.63244 -0.955175 0.0317113)
(-2.89019 -0.748381 0.0252318)
(-2.27539 -0.591652 0.019865)
(-1.76483 -0.469887 0.015408)
(-1.33918 -0.373778 0.0116924)
(-0.984243 -0.296942 0.00859389)
(-0.688704 -0.23505 0.00601391)
(-0.443688 -0.184995 0.00387496)
(-0.242016 -0.144493 0.00211436)
(-0.0775419 -0.111768 0.000678462)
(0.054567 -0.0856697 -0.000474911)
(0.158768 -0.0646279 -0.00138465)
(0.239116 -0.0479633 -0.00208619)
(0.298909 -0.0348474 -0.00260828)
(0.341302 -0.024614 -0.00297848)
(0.369078 -0.0167018 -0.00322107)
(0.384727 -0.0106452 -0.00335779)
(0.390457 -0.00606112 -0.00340792)
(0.388203 -0.00263566 -0.00338834)
(0.37965 -0.000124529 -0.00331377)
(0.366219 0.00168449 -0.0031966)
(0.349131 0.00297715 -0.0030475)
(0.329403 0.00385634 -0.00287535)
(0.307839 0.00443085 -0.00268716)
(0.285091 0.00478265 -0.00248863)
(0.26167 0.00497362 -0.00228422)
(0.237965 0.00505009 -0.00207733)
(0.214278 0.00504443 -0.00187059)
(0.190832 0.00497738 -0.00166595)
(0.167808 0.00485951 -0.001465)
(0.145379 0.00469298 -0.00126922)
(0.123718 0.00447417 -0.00108016)
(0.103038 0.00419702 -0.000899643)
(0.0835795 0.00385474 -0.000729788)
(0.0656402 0.00344602 -0.00057319)
(0.0495295 0.00298189 -0.000432545)
(0.0355176 0.00248353 -0.000310215)
(0.0237863 0.00198048 -0.000207788)
(0.0144029 0.00150359 -0.000125851)
(0.00724678 0.00107651 -6.33571e-05)
(0.00223603 0.000668946 -1.95848e-05)
(-0.000738374 0.000210863 6.42569e-06)
(-0.000880484 -0.00028157 7.95525e-06)
(-3.46619 -1.46452 0.0302591)
(-2.8185 -1.1808 0.0246054)
(-2.26716 -0.960592 0.0197927)
(-1.79714 -0.786313 0.0156897)
(-1.39523 -0.646196 0.0121814)
(-1.05107 -0.531894 0.00917713)
(-0.756208 -0.437577 0.00660314)
(-0.503901 -0.359058 0.00440064)
(-0.28874 -0.293301 0.00252237)
(-0.106214 -0.238016 0.000928979)
(0.0471623 -0.191714 -0.000409982)
(0.174494 -0.152635 -0.0015216)
(0.278566 -0.11994 -0.00243019)
(0.361644 -0.0926856 -0.00315553)
(0.42593 -0.0701214 -0.00371682)
(0.473455 -0.051592 -0.00413182)
(0.506151 -0.0365211 -0.00441737)
(0.525864 -0.0243976 -0.00458959)
(0.534356 -0.014766 -0.00466384)
(0.53329 -0.00721823 -0.00465466)
(0.524236 -0.00140769 -0.00457574)
(0.508618 0.00301629 -0.00443952)
(0.487728 0.006301 -0.00425726)
(0.462726 0.00868776 -0.00403909)
(0.4346 0.0103765 -0.00379366)
(0.404186 0.0115297 -0.00352823)
(0.372172 0.0122767 -0.00324884)
(0.339128 0.0127149 -0.00296045)
(0.305508 0.0129121 -0.00266702)
(0.2717 0.0129089 -0.00237195)
(0.23806 0.0127213 -0.00207834)
(0.204947 0.0123469 -0.00178931)
(0.172762 0.0117727 -0.00150839)
(0.14197 0.0109822 -0.00123961)
(0.113107 0.00997037 -0.000987659)
(0.0867516 0.00876255 -0.00075759)
(0.0634486 0.0074157 -0.000554149)
(0.043614 0.00601313 -0.000380976)
(0.0274745 0.0046483 -0.000240049)
(0.0149557 0.00339086 -0.000130725)
(0.00596401 0.00219157 -5.21848e-05)
(0.000331907 0.00087591 -2.96124e-06)
(-0.000947077 -0.000469681 8.43854e-06)
(-3.15102 -1.88704 0.0275073)
(-2.60357 -1.55269 0.0227288)
(-2.1254 -1.28633 0.0185548)
(-1.70905 -1.07136 0.0149205)
(-1.34674 -0.895813 0.0117578)
(-1.03155 -0.750766 0.00900648)
(-0.757355 -0.629674 0.00661298)
(-0.518954 -0.527663 0.0045319)
(-0.31198 -0.441094 0.00272515)
(-0.132737 -0.367196 0.00116046)
(0.021701 -0.304028 -0.00018772)
(0.153835 -0.249646 -0.00134122)
(0.265844 -0.202961 -0.00231904)
(0.359427 -0.1629 -0.00313603)
(0.436115 -0.128642 -0.00380556)
(0.497264 -0.0994917 -0.00433945)
(0.544116 -0.0748504 -0.00474855)
(0.577856 -0.0541943 -0.00504319)
(0.599639 -0.0370511 -0.00523347)
(0.610614 -0.0229851 -0.0053294)
(0.611938 -0.0115898 -0.00534109)
(0.604753 -0.00249833 -0.00527849)
(0.590188 0.00465141 -0.00515147)
(0.569327 0.0101747 -0.00496947)
(0.543208 0.0143716 -0.00474159)
(0.512787 0.0174984 -0.00447612)
(0.478912 0.0197733 -0.00418052)
(0.442339 0.0213707 -0.00386135)
(0.403712 0.0224204 -0.00352424)
(0.363611 0.0230064 -0.00317426)
(0.322584 0.0231682 -0.00281619)
(0.281182 0.0229087 -0.00245483)
(0.240021 0.0222059 -0.00209558)
(0.199807 0.0210293 -0.00174457)
(0.161364 0.0193663 -0.00140901)
(0.125597 0.0172555 -0.00109679)
(0.0934024 0.014799 -0.00081573)
(0.0655296 0.0121579 -0.000572384)
(0.0424676 0.00952263 -0.000371018)
(0.0242938 0.00704359 -0.000212317)
(0.010954 0.00467532 -9.58038e-05)
(0.00222652 0.00212616 -1.95542e-05)
(-0.000802754 -0.000447056 6.88188e-06)
(-2.81161 -2.20709 0.024544)
(-2.35768 -1.84922 0.0205818)
(-1.95069 -1.55625 0.0170293)
(-1.58856 -1.31461 0.0138684)
(-1.26785 -1.11376 0.0110689)
(-0.984771 -0.945427 0.00859788)
(-0.735459 -0.803232 0.00642162)
(-0.516288 -0.682232 0.00450844)
(-0.323957 -0.578603 0.00282954)
(-0.155509 -0.489354 0.0013591)
(-0.00842457 -0.412271 7.51415e-05)
(0.119466 -0.345256 -0.00104128)
(0.23011 -0.287013 -0.00200716)
(0.325058 -0.236291 -0.00283603)
(0.405618 -0.192159 -0.00353931)
(0.472894 -0.153833 -0.00412665)
(0.527809 -0.120661 -0.00460611)
(0.571158 -0.092091 -0.0049846)
(0.603644 -0.0676455 -0.00526828)
(0.625924 -0.0468972 -0.00546287)
(0.638645 -0.0294534 -0.00557404)
(0.642465 -0.0149492 -0.00560749)
(0.638068 -0.00302371 -0.00556924)
(0.626181 0.00665317 -0.00546559)
(0.607525 0.0143972 -0.00530285)
(0.582864 0.020515 -0.00508769)
(0.552954 0.0252789 -0.00482672)
(0.518524 0.0289194 -0.00452628)
(0.48025 0.0316181 -0.00419227)
(0.43878 0.0334978 -0.00383038)
(0.394764 0.0346195 -0.00344625)
(0.348887 0.0349872 -0.00304585)
(0.301935 0.0345624 -0.00263607)
(0.254836 0.033289 -0.00222499)
(0.208706 0.0311348 -0.00182234)
(0.164816 0.0281426 -0.00143923)
(0.124486 0.0244624 -0.00108716)
(0.0889031 0.0203528 -0.00077651)
(0.0589407 0.0161372 -0.000514904)
(0.0349416 0.0120885 -0.000305342)
(0.0169664 0.0082055 -0.00014835)
(0.00476492 0.0040879 -4.1778e-05)
(-0.00051683 -9.66041e-05 3.93822e-06)
(-2.47207 -2.44904 0.0215797)
(-2.10305 -2.08499 0.0183587)
(-1.76308 -1.77912 0.0153913)
(-1.45366 -1.5213 0.0126905)
(-1.17446 -1.30304 0.0102534)
(-0.924182 -1.11734 0.00806875)
(-0.700932 -0.958525 0.00612001)
(-0.502576 -0.822007 0.00438854)
(-0.326916 -0.7041 0.00285518)
(-0.171811 -0.601831 0.00150125)
(-0.0352323 -0.512892 0.000309006)
(0.0845796 -0.43512 -0.000736877)
(0.189346 -0.367118 -0.00165142)
(0.280563 -0.307473 -0.00244771)
(0.359449 -0.255136 -0.00313636)
(0.427085 -0.209211 -0.00372682)
(0.484352 -0.168947 -0.00422677)
(0.531957 -0.133718 -0.00464239)
(0.570461 -0.10299 -0.00497857)
(0.600299 -0.0763087 -0.00523911)
(0.621824 -0.0532723 -0.0054271)
(0.635331 -0.0335219 -0.00554509)
(0.641099 -0.0167213 -0.00559555)
(0.639425 -0.00254426 -0.00558104)
(0.630627 0.00930138 -0.00550436)
(0.615038 0.0191001 -0.00536839)
(0.593074 0.0271276 -0.00517678)
(0.565196 0.0336265 -0.00493356)
(0.531885 0.0387956 -0.00464289)
(0.493653 0.0427706 -0.00430928)
(0.451069 0.0456129 -0.00393768)
(0.404796 0.0473087 -0.00353386)
(0.355662 0.0477815 -0.00310505)
(0.30472 0.0469253 -0.00266044)
(0.253312 0.0446609 -0.00221176)
(0.20306 0.0410124 -0.00177313)
(0.155746 0.0361666 -0.00136011)
(0.113082 0.0304902 -0.000987659)
(0.076454 0.0244738 -0.000667867)
(0.0466002 0.0185632 -0.00040719)
(0.023793 0.0128561 -0.000208007)
(0.00780792 0.00686574 -6.8416e-05)
(-0.000130729 0.000671838 6.39967e-09)
(-2.15159 -2.62309 0.0187818)
(-1.85515 -2.26552 0.0161944)
(-1.57487 -1.95763 0.0137481)
(-1.31403 -1.69251 0.0114714)
(-1.07418 -1.46393 0.0093778)
(-0.855723 -1.26641 0.00747093)
(-0.658245 -1.09528 0.00574717)
(-0.480828 -0.946572 0.00419851)
(-0.322255 -0.81699 0.00281433)
(-0.181162 -0.703774 0.00158271)
(-0.0560358 -0.604649 0.000490451)
(0.0543942 -0.517684 -0.000473526)
(0.151531 -0.441207 -0.00132146)
(0.236784 -0.373896 -0.00206568)
(0.311231 -0.314586 -0.00271557)
(0.375939 -0.262292 -0.00328045)
(0.431814 -0.216168 -0.00376823)
(0.479607 -0.17549 -0.00418547)
(0.519916 -0.139639 -0.00453738)
(0.553182 -0.108088 -0.00482782)
(0.579707 -0.0803813 -0.00505942)
(0.599667 -0.0561257 -0.00523372)
(0.613145 -0.0349743 -0.00535145)
(0.620163 -0.0166079 -0.00541279)
(0.62072 -0.000730889 -0.00541775)
(0.614782 0.0129108 -0.00536602)
(0.602324 0.0245572 -0.00525739)
(0.583399 0.034425 -0.00509231)
(0.558115 0.0426924 -0.00487172)
(0.526645 0.0494729 -0.00459715)
(0.489269 0.0547954 -0.00427102)
(0.44641 0.0585958 -0.00389703)
(0.398736 0.0607238 -0.003481)
(0.347237 0.0609815 -0.00303156)
(0.293332 0.0591967 -0.00256112)
(0.238896 0.0553293 -0.00208599)
(0.186138 0.0495704 -0.00162547)
(0.137347 0.0423871 -0.00119955)
(0.0945278 0.0344631 -0.000825715)
(0.0589541 0.0264733 -0.000515105)
(0.0312278 0.0186789 -0.000272975)
(0.011234 0.0105407 -9.84051e-05)
(0.000328192 0.00192735 -4.64477e-06)
(-1.85741 -2.74579 0.0162136)
(-1.6217 -2.4017 0.0141563)
(-1.3931 -2.09872 0.0121611)
(-1.17564 -1.83259 0.010263)
(-0.971874 -1.5991 0.0084845)
(-0.783264 -1.39426 0.00683821)
(-0.610412 -1.21447 0.00532944)
(-0.453308 -1.05652 0.00395811)
(-0.311517 -0.917612 0.00272042)
(-0.18432 -0.795331 0.00161012)
(-0.0707874 -0.687571 0.000619076)
(0.0300159 -0.592637 -0.000260858)
(0.119142 -0.508762 -0.00103886)
(0.197703 -0.434734 -0.00172466)
(0.266671 -0.369339 -0.00232671)
(0.327019 -0.311546 -0.00285352)
(0.37963 -0.260445 -0.0033128)
(0.425288 -0.215231 -0.00371139)
(0.464657 -0.175202 -0.00405508)
(0.498266 -0.139741 -0.0043485)
(0.526498 -0.108314 -0.00459497)
(0.549585 -0.0804569 -0.00479655)
(0.567615 -0.0557686 -0.00495399)
(0.580551 -0.0338955 -0.00506696)
(0.588246 -0.0145244 -0.00513421)
(0.590485 0.00262042 -0.00515383)
(0.586947 0.0177582 -0.00512304)
(0.577297 0.0310757 -0.00503892)
(0.56123 0.0427143 -0.00489877)
(0.538485 0.0527446 -0.00470037)
(0.508898 0.0611368 -0.00444224)
(0.472465 0.0677443 -0.00412435)
(0.429462 0.0723017 -0.00374912)
(0.380582 0.0744666 -0.00332258)
(0.327089 0.0739084 -0.00285576)
(0.270916 0.0704522 -0.00236551)
(0.214585 0.0642311 -0.00187383)
(0.160931 0.055778 -0.00140547)
(0.112646 0.045977 -0.00098394)
(0.0716676 0.0357838 -0.000626157)
(0.0390613 0.0256977 -0.000341423)
(0.0149298 0.0151699 -0.000130753)
(0.000839106 0.00372046 -9.80824e-06)
(-1.59409 -2.82869 0.0139149)
(-1.4078 -2.50192 0.012289)
(-1.22272 -2.20826 0.0106737)
(-1.04292 -1.94555 0.00910435)
(-0.871329 -1.71123 0.00760664)
(-0.709939 -1.50268 0.00619796)
(-0.559975 -1.3173 0.00488899)
(-0.422046 -1.15268 0.00368505)
(-0.296295 -1.00657 0.00258739)
(-0.182515 -0.876954 0.00159422)
(-0.0802367 -0.762014 0.000701426)
(0.0111299 -0.660179 -9.61267e-05)
(0.0923116 -0.569896 -0.00080478)
(0.16415 -0.489955 -0.00143189)
(0.227445 -0.419176 -0.00198442)
(0.283026 -0.356526 -0.00246961)
(0.331694 -0.301067 -0.00289446)
(0.374205 -0.251949 -0.00326558)
(0.411247 -0.208404 -0.00358895)
(0.443414 -0.169745 -0.00386976)
(0.471186 -0.135356 -0.00411221)
(0.494911 -0.10469 -0.00431933)
(0.514788 -0.077269 -0.00449288)
(0.530866 -0.0526702 -0.00463326)
(0.543037 -0.0305269 -0.00473954)
(0.551048 -0.010519 -0.00480952)
(0.554524 0.0076176 -0.00483994)
(0.552912 0.0240659 -0.00482595)
(0.545599 0.0389555 -0.00476221)
(0.531937 0.0523224 -0.00464308)
(0.511292 0.0640781 -0.00446301)
(0.483138 0.0739812 -0.00421739)
(0.447196 0.0816239 -0.00390381)
(0.403629 0.0864694 -0.00352367)
(0.353285 0.0879557 -0.00308437)
(0.297888 0.0856811 -0.00260092)
(0.240058 0.079627 -0.0020962)
(0.183062 0.0703213 -0.0015987)
(0.130275 0.0588267 -0.00113789)
(0.0843935 0.0464166 -0.00073731)
(0.0470816 0.0339052 -0.000411499)
(0.0187871 0.0207853 -0.000164513)
(0.00138451 0.00608574 -1.53084e-05)
(-1.3618 -2.88248 0.0118871)
(-1.2153 -2.57427 0.0106085)
(-1.06632 -2.29224 0.00930824)
(-0.918623 -2.03568 0.00801916)
(-0.775139 -1.80338 0.00676682)
(-0.63806 -1.59381 0.00557035)
(-0.508926 -1.4053 0.00444322)
(-0.388726 -1.23614 0.00339405)
(-0.277997 -1.08466 0.00242753)
(-0.176912 -0.949257 0.00154518)
(-0.0853615 -0.828417 0.000746035)
(-0.00304265 -0.720775 2.74683e-05)
(0.0704911 -0.624956 -0.000614418)
(0.135831 -0.539832 -0.00118479)
(0.193601 -0.46428 -0.00168909)
(0.244463 -0.397299 -0.00213309)
(0.289103 -0.337954 -0.00252278)
(0.3282 -0.285377 -0.00286408)
(0.362406 -0.23877 -0.00316269)
(0.392329 -0.197393 -0.00342391)
(0.418505 -0.160569 -0.00365242)
(0.441375 -0.127679 -0.00385207)
(0.461263 -0.0981671 -0.0040257)
(0.478355 -0.0715285 -0.00417491)
(0.492676 -0.0473185 -0.00429995)
(0.504078 -0.0251489 -0.00439951)
(0.512239 -0.00468332 -0.00447079)
(0.516641 0.0143248 -0.00450928)
(0.516541 0.0320333 -0.00450847)
(0.511055 0.0484831 -0.00446069)
(0.499191 0.0635598 -0.00435725)
(0.479932 0.0769488 -0.00418927)
(0.452396 0.0881023 -0.00394908)
(0.416074 0.0962643 -0.00363219)
(0.371159 0.100579 -0.00324031)
(0.31888 0.100318 -0.00278412)
(0.261673 0.0951926 -0.00228486)
(0.20302 0.0856157 -0.00177294)
(0.146894 0.0727678 -0.001283)
(0.0967847 0.0582506 -0.000845533)
(0.0550776 0.0432619 -0.000481361)
(0.0227014 0.0273926 -0.00019877)
(0.00194819 0.00904133 -2.09824e-05)
(-0.925083 -2.35572 0.00807524)
(-0.804338 -2.10688 0.00702141)
(-0.685018 -1.87846 0.00598)
(-0.569286 -1.66983 0.00496988)
(-0.458788 -1.48006 0.00400543)
(-0.354703 -1.30811 0.00309693)
(-0.257813 -1.1528 0.00225121)
(-0.16855 -1.01295 0.00147206)
(-0.0870703 -0.887357 0.000760837)
(-0.0133 -0.774887 0.000116897)
(0.0529775 -0.674348 -0.000461645)
(0.112142 -0.584724 -0.00097811)
(0.164656 -0.504967 -0.00143652)
(0.211019 -0.434127 -0.00184124)
(0.251789 -0.371294 -0.00219715)
(0.287543 -0.31561 -0.00250927)
(0.318863 -0.266265 -0.00278268)
(0.34632 -0.222495 -0.00302237)
(0.370454 -0.183584 -0.00323306)
(0.391753 -0.148862 -0.00341898)
(0.410624 -0.117707 -0.00358373)
(0.427378 -0.0895424 -0.00372998)
(0.442189 -0.0638416 -0.00385928)
(0.455069 -0.0401323 -0.00397172)
(0.465841 -0.0179959 -0.00406578)
(0.474122 0.00291417 -0.0041381)
(0.479253 0.0228372 -0.00418293)
(0.480301 0.0418732 -0.00419216)
(0.4761 0.0599369 -0.00415559)
(0.465291 0.0766935 -0.00406135)
(0.446466 0.0914964 -0.00389718)
(0.418421 0.103384 -0.00365255)
(0.380556 0.111175 -0.00332223)
(0.333355 0.113732 -0.0029104)
(0.278758 0.110362 -0.00243397)
(0.220183 0.101224 -0.00192275)
(0.162015 0.0875106 -0.00141502)
(0.108507 0.0711244 -0.000947905)
(0.0628444 0.0536963 -0.000549217)
(0.0265716 0.0349723 -0.000232639)
(0.00251422 0.0125896 -2.66708e-05)
(-0.799098 -2.40311 0.00697542)
(-0.70074 -2.16266 0.006117)
(-0.601941 -1.93921 0.0052547)
(-0.504708 -1.73282 0.00440606)
(-0.410654 -1.54319 0.00358514)
(-0.321018 -1.36979 0.00280277)
(-0.236701 -1.21192 0.00206682)
(-0.158302 -1.06876 0.00138249)
(-0.0861612 -0.939432 0.000752798)
(-0.0203718 -0.823013 0.000178528)
(0.0390952 -0.718501 -0.000340559)
(0.0924484 -0.625012 -0.000806292)
(0.140018 -0.541581 -0.00122154)
(0.182152 -0.467323 -0.00158934)
(0.219289 -0.401368 -0.00191353)
(0.251898 -0.342881 -0.0021982)
(0.280474 -0.291059 -0.00244766)
(0.305525 -0.245133 -0.00266634)
(0.327554 -0.204369 -0.00285864)
(0.347047 -0.168065 -0.00302881)
(0.364451 -0.135558 -0.00318075)
(0.380153 -0.106213 -0.00331781)
(0.394446 -0.0794343 -0.00344258)
(0.407495 -0.0546691 -0.00355649)
(0.4193 -0.0314094 -0.00365954)
(0.429653 -0.00920838 -0.00374993)
(0.438095 0.0122932 -0.00382364)
(0.443812 0.0333043 -0.0038736)
(0.445651 0.0538285 -0.00388972)
(0.442114 0.0735815 -0.00385894)
(0.431442 0.0918897 -0.00376592)
(0.411839 0.107642 -0.00359498)
(0.381898 0.119348 -0.00333383)
(0.341201 0.12541 -0.00297879)
(0.290914 0.124615 -0.00254001)
(0.234071 0.116704 -0.00204397)
(0.175219 0.102736 -0.00153029)
(0.119252 0.0848424 -0.00104174)
(0.0701879 0.065107 -0.000613371)
(0.0303012 0.0434803 -0.000265276)
(0.00306662 0.0167178 -3.22153e-05)
(-0.687816 -2.438 0.00600397)
(-0.607893 -2.206 0.00530645)
(-0.52635 -1.98806 0.00459477)
(-0.444975 -1.78474 0.00388454)
(-0.365266 -1.59621 0.00318885)
(-0.288433 -1.4224 0.00251823)
(-0.215413 -1.26297 0.00188089)
(-0.146885 -1.11746 0.00128274)
(-0.083311 -0.985249 0.000727825)
(-0.0248977 -0.865643 0.000217946)
(0.0282361 -0.75785 -0.000245855)
(0.0761631 -0.661069 -0.000664217)
(0.119111 -0.57446 -0.00103912)
(0.157298 -0.497198 -0.00137246)
(0.191054 -0.428464 -0.00166714)
(0.220748 -0.367456 -0.00192635)
(0.246785 -0.313389 -0.00215364)
(0.269597 -0.265501 -0.00235279)
(0.289632 -0.223055 -0.00252769)
(0.307342 -0.185338 -0.00268229)
(0.32317 -0.15166 -0.00282046)
(0.337534 -0.12135 -0.00294585)
(0.3508 -0.0937622 -0.00306164)
(0.363248 -0.0682778 -0.00317029)
(0.375033 -0.0443067 -0.00327317)
(0.386134 -0.021306 -0.00337008)
(0.396305 0.00120603 -0.00345885)
(0.404961 0.02358 -0.00353445)
(0.411109 0.045958 -0.00358816)
(0.413302 0.0681749 -0.00360737)
(0.409643 0.0896169 -0.00357555)
(0.397939 0.109112 -0.00347353)
(0.376079 0.124925 -0.00328292)
(0.342708 0.135 -0.00299184)
(0.298026 0.137516 -0.00260202)
(0.24438 0.131637 -0.00213391)
(0.186173 0.118112 -0.00162591)
(0.128752 0.0991837 -0.00112469)
(0.0769316 0.0773669 -0.000672281)
(0.0338 0.0528499 -0.000295891)
(0.00358963 0.0213987 -3.74603e-05)
(-0.590264 -2.4633 0.00515238)
(-0.525431 -2.23946 0.00458656)
(-0.458289 -2.02716 0.00400059)
(-0.39039 -1.82734 0.00340799)
(-0.32308 -1.64056 0.00282052)
(-0.257484 -1.46707 0.00224799)
(-0.194513 -1.30687 0.00169836)
(-0.134869 -1.15977 0.00117777)
(-0.0790756 -1.02541 0.000690771)
(-0.0274329 -0.903284 0.000239995)
(0.0198595 -0.792807 -0.000172811)
(0.0627696 -0.693256 -0.000547378)
(0.101419 -0.603923 -0.000884752)
(0.135936 -0.524045 -0.00118606)
(0.166558 -0.452857 -0.00145337)
(0.193561 -0.389594 -0.0016891)
(0.217269 -0.333498 -0.00189606)
(0.238039 -0.283822 -0.00207737)
(0.256252 -0.239837 -0.00223637)
(0.272312 -0.200827 -0.00237656)
(0.286629 -0.166096 -0.00250155)
(0.299618 -0.134952 -0.00261492)
(0.311672 -0.106718 -0.00272015)
(0.323142 -0.0807274 -0.00282026)
(0.334297 -0.0563256 -0.00291762)
(0.345275 -0.032885 -0.00301344)
(0.356026 -0.00981302 -0.00310728)
(0.366217 0.0133869 -0.00319625)
(0.375102 0.0370251 -0.00327383)
(0.381428 0.0611092 -0.00332909)
(0.383358 0.0851671 -0.00334603)
(0.378523 0.108071 -0.00330396)
(0.364307 0.127941 -0.00318005)
(0.3385 0.142317 -0.002955)
(0.300255 0.148738 -0.00262139)
(0.25099 0.145655 -0.00219155)
(0.194652 0.133316 -0.00169991)
(0.136793 0.113914 -0.00119489)
(0.0829224 0.0903283 -0.000724611)
(0.0369869 0.0629946 -0.000323776)
(0.00406819 0.0265915 -4.22582e-05)
(-0.505267 -2.48132 0.0044104)
(-0.452727 -2.2651 0.00395189)
(-0.397535 -2.05832 0.00347021)
(-0.34101 -1.86217 0.00297688)
(-0.284332 -1.67751 0.00248221)
(-0.228515 -1.50486 0.00199504)
(-0.174409 -1.34448 0.0015228)
(-0.122698 -1.19641 0.00107145)
(-0.0739186 -1.0605 0.000645681)
(-0.0284314 -0.936426 0.000248641)
(0.013512 -0.823764 -0.000117472)
(0.051805 -0.721918 -0.000451733)
(0.0864804 -0.630273 -0.000754417)
(0.1176 -0.548137 -0.00102607)
(0.145322 -0.474798 -0.00126806)
(0.169847 -0.409534 -0.00148215)
(0.191424 -0.351615 -0.00167051)
(0.21034 -0.300315 -0.00183564)
(0.226913 -0.254918 -0.00198032)
(0.241488 -0.214717 -0.00210755)
(0.254432 -0.179016 -0.00222055)
(0.266131 -0.147119 -0.00232267)
(0.276976 -0.118331 -0.00241733)
(0.287345 -0.0919574 -0.00250783)
(0.297577 -0.0672982 -0.00259714)
(0.307925 -0.043659 -0.00268746)
(0.318506 -0.0203532 -0.0027798)
(0.329206 0.00324692 -0.00287319)
(0.339553 0.0276268 -0.00296352)
(0.348566 0.0529969 -0.00304222)
(0.354618 0.0790907 -0.00309511)
(0.355373 0.104924 -0.0031018)
(0.34794 0.128595 -0.00303708)
(0.329435 0.147342 -0.00287576)
(0.297996 0.158083 -0.00260158)
(0.25396 0.158466 -0.00221741)
(0.200544 0.148053 -0.00175131)
(0.143219 0.128795 -0.00125099)
(0.0880363 0.103829 -0.000769277)
(0.0397922 0.0738117 -0.000348319)
(0.00448858 0.0322436 -4.64751e-05)
(-0.431562 -2.49388 0.00376701)
(-0.389009 -2.28463 0.00339565)
(-0.343689 -2.08306 0.00300014)
(-0.296711 -1.89057 0.00259014)
(-0.249092 -1.70822 0.00217453)
(-0.201726 -1.53674 0.00176114)
(-0.155384 -1.37661 0.00135666)
(-0.110702 -1.22804 0.000966668)
(-0.0682044 -1.09106 0.000595736)
(-0.0282742 -0.965519 0.000247205)
(0.00880381 -0.851114 -7.64362e-05)
(0.0428705 -0.747383 -0.000373803)
(0.073893 -0.653795 -0.000644597)
(0.10188 -0.569724 -0.000888903)
(0.126927 -0.494517 -0.00110754)
(0.14917 -0.427489 -0.00130171)
(0.168797 -0.367943 -0.00147304)
(0.186031 -0.315176 -0.00162349)
(0.201131 -0.26849 -0.00175531)
(0.214385 -0.227189 -0.00187101)
(0.226112 -0.190588 -0.00197338)
(0.236656 -0.157991 -0.00206542)
(0.246384 -0.128701 -0.00215034)
(0.255674 -0.102009 -0.00223142)
(0.264894 -0.0771887 -0.0023119)
(0.274371 -0.0534969 -0.0023946)
(0.28434 -0.0301745 -0.0024816)
(0.294867 -0.00648319 -0.00257348)
(0.305731 0.0182235 -0.00266831)
(0.316247 0.0443669 -0.0027601)
(0.32508 0.0719242 -0.00283723)
(0.33009 0.100137 -0.00288105)
(0.328339 0.127203 -0.0028659)
(0.316496 0.150189 -0.00276272)
(0.291817 0.165473 -0.00254754)
(0.253512 0.169859 -0.00221342)
(0.203849 0.162067 -0.00178011)
(0.147943 0.1436 -0.00129222)
(0.0921826 0.117701 -0.000805486)
(0.0421597 0.0851857 -0.000369031)
(0.00483908 0.038292 -4.99973e-05)
(-0.367895 -2.50239 0.00321124)
(-0.333436 -2.29941 0.00291053)
(-0.296248 -2.10267 0.00258598)
(-0.25725 -1.91369 0.00224564)
(-0.217308 -1.73368 0.00189704)
(-0.177202 -1.56357 0.00154701)
(-0.137614 -1.40397 0.0012015)
(-0.0991226 -1.25526 0.000865536)
(-0.0622155 -1.11761 0.000543401)
(-0.0272736 -0.990991 0.000238414)
(0.00540433 -0.875224 -4.6817e-05)
(0.0356247 -0.769962 -0.000310607)
(0.0633059 -0.674753 -0.000552233)
(0.0884167 -0.589042 -0.000771426)
(0.111001 -0.512223 -0.000968573)
(0.131147 -0.443652 -0.00114443)
(0.148987 -0.382664 -0.00130017)
(0.164692 -0.328581 -0.00143727)
(0.178468 -0.280724 -0.00155752)
(0.19055 -0.238413 -0.001663)
(0.201208 -0.200972 -0.00175603)
(0.210742 -0.167718 -0.00183925)
(0.219482 -0.137957 -0.00191555)
(0.227786 -0.110978 -0.00198803)
(0.236025 -0.0860406 -0.00205993)
(0.244557 -0.0623733 -0.0021344)
(0.253699 -0.0391641 -0.00221417)
(0.263647 -0.0155877 -0.00230099)
(0.274383 0.00913886 -0.00239469)
(0.2855 0.0356372 -0.00249172)
(0.295989 0.0641419 -0.00258329)
(0.304008 0.0941746 -0.00265334)
(0.306755 0.12414 -0.00267744)
(0.300692 0.151076 -0.00262469)
(0.28239 0.17094 -0.00246517)
(0.249989 0.179713 -0.00218259)
(0.204671 0.175155 -0.00178723)
(0.150943 0.158122 -0.00131838)
(0.0953061 0.131774 -0.000832758)
(0.044049 0.0969933 -0.000385559)
(0.00511064 0.0446661 -5.27375e-05)
(-0.313064 -2.50792 0.00273262)
(-0.28516 -2.31051 0.00248911)
(-0.254655 -2.11816 0.00222289)
(-0.222307 -1.93247 0.00194059)
(-0.188846 -1.75477 0.00164856)
(-0.154945 -1.58611 0.00135268)
(-0.121201 -1.42723 0.00105817)
(-0.0881273 -1.27864 0.000769507)
(-0.056167 -1.14061 0.000490554)
(-0.0256796 -1.01324 0.00022445)
(0.00303878 -0.896432 -2.62169e-05)
(0.0297757 -0.789944 -0.000259598)
(0.0544152 -0.693399 -0.000474671)
(0.0768951 -0.606305 -0.000670896)
(0.0972214 -0.528106 -0.000848327)
(0.115441 -0.458197 -0.00100737)
(0.131645 -0.395941 -0.00114882)
(0.145958 -0.340686 -0.00127377)
(0.158539 -0.291772 -0.0013836)
(0.16958 -0.248536 -0.00147998)
(0.179301 -0.210318 -0.00156484)
(0.18796 -0.176445 -0.00164042)
(0.195846 -0.146234 -0.00170927)
(0.203285 -0.11898 -0.0017742)
(0.210631 -0.0939393 -0.00183831)
(0.218248 -0.0703272 -0.00190479)
(0.226494 -0.0472973 -0.00197674)
(0.235654 -0.02396 -0.00205668)
(0.245862 0.000577351 -0.00214576)
(0.256947 0.027113 -0.0022425)
(0.268212 0.0561315 -0.00234083)
(0.278161 0.0874622 -0.00242771)
(0.284263 0.119798 -0.00248105)
(0.282982 0.150285 -0.00247002)
(0.270435 0.174603 -0.00236072)
(0.243823 0.187987 -0.00212869)
(0.2032 0.187172 -0.00177433)
(0.15226 0.172179 -0.00132985)
(0.0973877 0.145887 -0.000850927)
(0.0454362 0.109108 -0.000397693)
(0.00529731 0.0512897 -5.46383e-05)
(-0.265957 -2.51129 0.00232141)
(-0.243357 -2.31878 0.0021242)
(-0.218341 -2.13038 0.00190588)
(-0.191523 -1.94773 0.00167184)
(-0.163516 -1.77223 0.00142742)
(-0.134895 -1.60502 0.00117763)
(-0.106181 -1.44697 0.000927024)
(-0.0778249 -1.29867 0.000679535)
(-0.0502187 -1.16051 0.000438587)
(-0.02369 -1.03263 0.000207039)
(0.00148108 -0.915051 -1.2663e-05)
(0.0250768 -0.807596 -0.000218623)
(0.0469591 -0.709961 -0.000409626)
(0.0670423 -0.621714 -0.00058493)
(0.0853036 -0.542344 -0.000744333)
(0.101759 -0.47128 -0.000887977)
(0.116465 -0.407917 -0.00101635)
(0.129508 -0.351625 -0.00113021)
(0.14101 -0.301764 -0.00123061)
(0.15112 -0.257688 -0.00131887)
(0.160019 -0.218753 -0.00139656)
(0.167923 -0.1843 -0.00146555)
(0.175079 -0.153659 -0.00152802)
(0.181777 -0.126133 -0.00158648)
(0.188341 -0.100988 -0.00164377)
(0.195126 -0.077433 -0.00170298)
(0.202498 -0.0546045 -0.00176731)
(0.210795 -0.0315691 -0.00183972)
(0.220257 -0.00734973 -0.00192229)
(0.230897 0.0189983 -0.00201514)
(0.242293 0.0481885 -0.00211459)
(0.253298 0.0803613 -0.00221067)
(0.261725 0.114551 -0.00228429)
(0.264214 0.148126 -0.00230614)
(0.256654 0.176647 -0.00224035)
(0.235494 0.194714 -0.00205591)
(0.199691 0.198028 -0.00174364)
(0.151988 0.185625 -0.00132744)
(0.0984426 0.159889 -0.000860127)
(0.0463142 0.121402 -0.00040537)
(0.00539653 0.0580841 -5.56755e-05)
(-0.225559 -2.51312 0.00196878)
(-0.207255 -2.3249 0.00180905)
(-0.186743 -2.14001 0.00163005)
(-0.16452 -1.96012 0.00143611)
(-0.141093 -1.78667 0.00123166)
(-0.116953 -1.62089 0.00102098)
(-0.0925504 -1.46371 0.000808006)
(-0.06828 -1.31582 0.000596181)
(-0.0444861 -1.17767 0.000388509)
(-0.0214587 -1.0495 0.000187523)
(0.00054741 -0.931367 -4.55119e-06)
(0.0213212 -0.823167 -0.000185877)
(0.0407134 -0.724654 -0.000355143)
(0.0586217 -0.635454 -0.000511461)
(0.075001 -0.555097 -0.000654435)
(0.0898439 -0.483046 -0.000784001)
(0.103179 -0.418722 -0.000900406)
(0.115064 -0.361519 -0.00100416)
(0.125588 -0.310815 -0.00109602)
(0.134865 -0.265983 -0.001177)
(0.143039 -0.226392 -0.00124837)
(0.150289 -0.191398 -0.00131165)
(0.156825 -0.160345 -0.00136871)
(0.162897 -0.132551 -0.0014217)
(0.168795 -0.107291 -0.00147319)
(0.17485 -0.0837803 -0.00152603)
(0.18142 -0.0611477 -0.00158336)
(0.188865 -0.0384336 -0.00164832)
(0.19749 -0.0145998 -0.00172358)
(0.207442 0.0114145 -0.00181042)
(0.218525 0.0405227 -0.00190714)
(0.229914 0.0731613 -0.00200655)
(0.239798 0.10873 -0.00209287)
(0.245104 0.14491 -0.00213929)
(0.2417 0.177292 -0.00210976)
(0.225494 0.199983 -0.00196854)
(0.194443 0.207688 -0.00169777)
(0.150269 0.198348 -0.00131239)
(0.0985176 0.173648 -0.000860765)
(0.0466919 0.133756 -0.000408672)
(0.00540927 0.0649705 -5.58587e-05)
(-0.190963 -2.51386 0.00166679)
(-0.17614 -2.32937 0.00153744)
(-0.159326 -2.14759 0.00139071)
(-0.140919 -1.97018 0.00123008)
(-0.121336 -1.79863 0.00105918)
(-0.10099 -1.63419 0.000881611)
(-0.08027 -1.47789 0.000700782)
(-0.0595232 -1.33048 0.00051971)
(-0.0390502 -1.19247 0.000341026)
(-0.0191044 -1.06415 0.000166939)
(8.95892e-05 -0.945641 -5.8858e-07)
(0.0183371 -0.83688 -0.000159862)
(0.0354875 -0.737674 -0.000309558)
(0.0514286 -0.647694 -0.000448703)
(0.0660985 -0.566512 -0.000576755)
(0.0794717 -0.493624 -0.000693489)
(0.0915555 -0.428473 -0.000798971)
(0.102385 -0.370475 -0.000893501)
(0.11202 -0.319028 -0.000977608)
(0.120547 -0.273517 -0.00105205)
(0.128081 -0.23333 -0.00111781)
(0.134763 -0.197835 -0.00117615)
(0.140772 -0.166393 -0.0012286)
(0.146318 -0.138335 -0.00127701)
(0.151659 -0.112949 -0.00132363)
(0.157091 -0.0894619 -0.00137103)
(0.162953 -0.0670036 -0.00142219)
(0.169604 -0.0446017 -0.00148022)
(0.177384 -0.021177 -0.0015481)
(0.186529 0.00442054 -0.0016279)
(0.197018 0.0332711 -0.00171943)
(0.208304 0.0660805 -0.00181793)
(0.218943 0.102615 -0.00191082)
(0.226222 0.140932 -0.00197444)
(0.226148 0.176776 -0.00197395)
(0.214296 0.203923 -0.00187073)
(0.187775 0.216163 -0.0016395)
(0.147274 0.210271 -0.0012862)
(0.0976856 0.187049 -0.000853481)