/*--------------------------------*- C++ -*----------------------------------*\
| =========                 |                                                 |
| \\      /  F ield         | OpenFOAM: The Open Source CFD Toolbox           |
|  \\    /   O peration     | Version:  v2012                                 |
|   \\  /    A nd           | Website:  www.openfoam.com                      |
|    \\/     M anipulation  |                                                 |
\*---------------------------------------------------------------------------*/
FoamFile
{
    version     2.0;
    format      ascii;
    class       surfaceScalarField;
    location    "0.8";
    object      phi;
}
// * * * * * * * * * * * * * * * * * * * * * * * * * * * * * * * * * * * * * //

dimensions      [0 3 -1 0 0 0 0];
oriented        oriented;


internalField   nonuniform List<scalar> 
8134
(
-3.37945e-08
-7.77397e-09
-3.91022e-15
-2.71379e-08
-6.65657e-09
-3.40983e-15
-2.14011e-08
-5.73672e-09
-2.78915e-15
-1.64478e-08
-4.95333e-09
-2.24613e-15
-1.21749e-08
-4.27293e-09
-1.98457e-15
-8.5028e-09
-3.67208e-09
-1.69692e-15
-5.36508e-09
-3.13771e-09
-1.50674e-15
-2.70442e-09
-2.66066e-09
-1.36809e-15
-4.6909e-10
-2.23533e-09
-1.20398e-15
1.3911e-09
-1.86019e-09
-1.12626e-15
2.91881e-09
-1.52771e-09
-1.05671e-15
4.15552e-09
-1.2367e-09
-9.96971e-16
5.13854e-09
-9.83015e-10
-1.53878e-15
5.90219e-09
-7.63681e-10
1.97655e-16
6.47733e-09
-5.75147e-10
-3.60869e-16
6.89121e-09
-4.13884e-10
-4.97042e-16
7.16778e-09
-2.7657e-10
-4.96146e-16
7.32792e-09
-1.60115e-10
-4.18735e-16
7.3897e-09
-6.17869e-11
-3.87283e-16
7.36825e-09
2.1422e-11
-3.5405e-16
7.27715e-09
9.11022e-11
-3.34133e-16
7.12737e-09
1.49747e-10
-3.1492e-16
6.92802e-09
1.99399e-10
-3.00914e-16
6.68601e-09
2.41976e-10
-2.95556e-16
6.40691e-09
2.79122e-10
-2.90843e-16
6.09424e-09
3.12644e-10
-2.88404e-16
5.7503e-09
3.43943e-10
-3.00167e-16
5.37607e-09
3.74253e-10
-2.79722e-16
4.97134e-09
4.047e-10
-2.66188e-16
4.53617e-09
4.35186e-10
-3.30826e-16
4.07085e-09
4.65307e-10
-2.5226e-16
3.57777e-09
4.93072e-10
-1.82238e-16
3.06246e-09
5.15326e-10
-2.26579e-16
2.53469e-09
5.27756e-10
-2.02544e-16
2.00964e-09
5.25058e-10
-2.32458e-16
1.50666e-09
5.02985e-10
-1.03372e-16
1.04709e-09
4.59569e-10
1.70785e-17
6.50411e-10
3.96676e-10
2.36202e-16
3.30534e-10
3.19877e-10
3.30977e-16
9.41091e-11
2.36427e-10
-2.01803e-16
-5.09213e-11
1.45033e-10
-5.80761e-16
-8.60656e-11
3.51471e-11
-3.13953e-16
-8.60646e-11
2.90066e-16
-4.32029e-08
-1.50268e-08
-7.25664e-15
-3.65103e-08
-1.33491e-08
-6.61896e-15
-3.03103e-08
-1.19367e-08
-5.8535e-15
-2.45526e-08
-1.07111e-08
-5.15598e-15
-1.92008e-08
-9.62464e-09
-4.74256e-15
-1.42337e-08
-8.63924e-09
-4.28906e-15
-9.63873e-09
-7.73263e-09
-3.95499e-15
-5.41146e-09
-6.88793e-09
-3.62985e-15
-1.55086e-09
-6.09592e-09
-3.2981e-15
1.9425e-09
-5.35355e-09
-3.07506e-15
5.06863e-09
-4.65383e-09
-2.86739e-15
7.83054e-09
-3.99861e-09
-2.66348e-15
1.02332e-08
-3.38568e-09
-2.57564e-15
1.22861e-08
-2.81663e-09
-2.84091e-16
1.40029e-08
-2.29195e-09
-1.24068e-15
1.54007e-08
-1.81167e-09
-1.30505e-15
1.64996e-08
-1.37547e-09
-1.27275e-15
1.73219e-08
-9.82345e-10
-1.1493e-15
1.78908e-08
-6.30715e-10
-1.06838e-15
1.82303e-08
-3.18211e-10
-1.01458e-15
1.8363e-08
-4.15727e-11
-9.73248e-16
1.83115e-08
2.01158e-10
-9.27274e-16
1.80956e-08
4.15435e-10
-8.85205e-16
1.77319e-08
6.05563e-10
-8.53617e-16
1.7235e-08
7.76111e-10
-8.22429e-16
1.66151e-08
9.32487e-10
-7.90615e-16
1.58797e-08
1.07939e-09
-7.60743e-16
1.50327e-08
1.22127e-09
-7.16351e-16
1.40748e-08
1.36252e-09
-6.44466e-16
1.30065e-08
1.50356e-09
-7.67586e-16
1.1828e-08
1.64375e-09
-5.77035e-16
1.05444e-08
1.77666e-09
-3.97335e-16
9.16852e-09
1.89122e-09
-4.78329e-16
7.725e-09
1.97125e-09
-4.11534e-16
6.25445e-09
1.99562e-09
-4.6875e-16
4.81184e-09
1.9456e-09
-2.66302e-16
3.46151e-09
1.80989e-09
-2.39743e-16
2.26697e-09
1.59121e-09
1.16437e-16
1.2786e-09
1.30825e-09
2.72255e-16
5.27892e-10
9.8714e-10
-4.02828e-16
4.05059e-11
6.32422e-10
-3.6579e-16
-1.34858e-10
2.10514e-10
-4.93221e-16
-2.20921e-10
7.91684e-17
-4.16965e-08
-2.0912e-08
-8.15401e-15
-3.60382e-08
-1.90073e-08
-7.66048e-15
-3.0609e-08
-1.73659e-08
-7.00024e-15
-2.53993e-08
-1.59209e-08
-6.38963e-15
-2.03986e-08
-1.46253e-08
-6.05597e-15
-1.56004e-08
-1.34375e-08
-5.6542e-15
-1.10022e-08
-1.23308e-08
-5.35847e-15
-6.60786e-09
-1.12823e-08
-5.00347e-15
-2.42608e-09
-1.02777e-08
-4.65785e-15
1.52969e-09
-9.30932e-09
-4.40447e-15
5.24233e-09
-8.36646e-09
-4.1555e-15
8.69535e-09
-7.45162e-09
-3.8815e-15
1.18698e-08
-6.56008e-09
-3.68693e-15
1.47484e-08
-5.69535e-09
-1.06987e-15
1.73172e-08
-4.86078e-09
-2.08982e-15
1.95658e-08
-4.06026e-09
-2.07034e-15
2.14886e-08
-3.2982e-09
-2.02898e-15
2.30849e-08
-2.57861e-09
-1.89256e-15
2.43591e-08
-1.90494e-09
-1.78736e-15
2.53201e-08
-1.27928e-09
-1.70989e-15
2.5981e-08
-7.02504e-10
-1.65012e-15
2.63563e-08
-1.74228e-10
-1.58984e-15
2.64634e-08
3.0854e-10
-1.52571e-15
2.63185e-08
7.50255e-10
-1.46919e-15
2.59378e-08
1.15696e-09
-1.41252e-15
2.53333e-08
1.53686e-09
-1.35486e-15
2.45146e-08
1.89808e-09
-1.29854e-15
2.3487e-08
2.24896e-09
-1.22773e-15
2.2251e-08
2.59843e-09
-1.09715e-15
2.08062e-08
2.94842e-09
-1.29378e-15
1.91512e-08
3.29872e-09
-1.01863e-15
1.72904e-08
3.63743e-09
-7.44882e-16
1.52395e-08
3.94215e-09
-8.50516e-16
1.30324e-08
4.17827e-09
-7.28841e-16
1.07299e-08
4.29818e-09
-8.12354e-16
8.41917e-09
4.25632e-09
-5.03477e-16
6.20827e-09
4.02078e-09
-4.51414e-16
4.21037e-09
3.58911e-09
-1.98502e-16
2.52179e-09
2.99682e-09
-1.31534e-16
1.20853e-09
2.30041e-09
-4.80616e-16
3.17351e-10
1.5236e-09
-3.50009e-16
-8.3526e-11
6.11393e-10
-1.55406e-16
-3.04445e-10
-2.93092e-16
-3.8159e-08
-2.55458e-08
-8.03101e-15
-3.35029e-08
-2.36634e-08
-7.60116e-15
-2.88855e-08
-2.19833e-08
-7.10371e-15
-2.43396e-08
-2.04668e-08
-6.65438e-15
-1.98829e-08
-1.90819e-08
-6.43343e-15
-1.55257e-08
-1.77947e-08
-6.10333e-15
-1.12738e-08
-1.65827e-08
-5.86424e-15
-7.13306e-09
-1.5423e-08
-5.53665e-15
-3.11031e-09
-1.43005e-08
-5.23901e-15
7.85368e-10
-1.3205e-08
-5.02696e-15
4.53851e-09
-1.21196e-08
-4.8088e-15
8.13736e-09
-1.10505e-08
-4.53407e-15
1.15624e-08
-9.98513e-09
-4.26222e-15
1.47927e-08
-8.92574e-09
-1.69913e-15
1.78063e-08
-7.87432e-09
-2.64825e-15
2.05804e-08
-6.83435e-09
-2.64804e-15
2.30932e-08
-5.81107e-09
-2.6504e-15
2.53251e-08
-4.81044e-09
-2.54021e-15
2.72592e-08
-3.83899e-09
-2.43397e-15
2.88824e-08
-2.90268e-09
-2.34904e-15
3.01868e-08
-2.00685e-09
-2.2831e-15
3.11677e-08
-1.15526e-09
-2.20875e-15
3.18254e-08
-3.48904e-10
-2.12552e-15
3.2162e-08
4.13465e-10
-2.04759e-15
3.21829e-08
1.13612e-09
-1.96871e-15
3.18927e-08
1.82699e-09
-1.88798e-15
3.12948e-08
2.49595e-09
-1.80668e-15
3.03897e-08
3.15424e-09
-1.71137e-15
2.91728e-08
3.81513e-09
-1.51893e-15
2.76386e-08
4.48268e-09
-1.78117e-15
2.57795e-08
5.15779e-09
-1.4382e-15
2.35939e-08
5.82297e-09
-1.07996e-15
2.10938e-08
6.44239e-09
-1.20875e-15
1.83145e-08
6.95745e-09
-1.02807e-15
1.53293e-08
7.28343e-09
-1.13759e-15
1.22523e-08
7.33332e-09
-7.3827e-16
9.23451e-09
7.03854e-09
-6.95379e-16
6.44399e-09
6.37964e-09
-4.22694e-16
4.03334e-09
5.40748e-09
-3.93357e-16
2.11366e-09
4.22009e-09
-4.33739e-16
7.57919e-10
2.87935e-09
-7.07556e-16
4.93695e-11
1.31994e-09
5.86224e-17
-2.55074e-10
-2.67868e-17
-3.42401e-08
-2.91018e-08
-8.19155e-15
-3.04932e-08
-2.74102e-08
-7.70774e-15
-2.66415e-08
-2.5835e-08
-7.18633e-15
-2.27443e-08
-2.43641e-08
-6.73403e-15
-1.88421e-08
-2.29841e-08
-6.53984e-15
-1.49631e-08
-2.16737e-08
-6.25143e-15
-1.11261e-08
-2.04197e-08
-6.05418e-15
-7.34469e-09
-1.92044e-08
-5.75193e-15
-3.62929e-09
-1.80159e-08
-5.47854e-15
7.40399e-12
-1.68417e-08
-5.28278e-15
3.57016e-09
-1.56824e-08
-5.06884e-15
7.03687e-09
-1.45172e-08
-4.80631e-15
1.03999e-08
-1.33482e-08
-4.45652e-15
1.36461e-08
-1.2172e-08
-2.12182e-15
1.67597e-08
-1.09879e-08
-2.99419e-15
1.97219e-08
-9.79651e-09
-3.07578e-15
2.25113e-08
-8.6005e-09
-3.14383e-15
2.51048e-08
-7.40387e-09
-3.07649e-15
2.74779e-08
-6.21203e-09
-2.9901e-15
2.96057e-08
-5.03061e-09
-2.91193e-15
3.14647e-08
-3.86587e-09
-2.84397e-15
3.30325e-08
-2.72324e-09
-2.76226e-15
3.429e-08
-1.60612e-09
-2.66758e-15
3.52197e-08
-5.16461e-10
-2.57528e-15
3.58072e-08
5.48785e-10
-2.4809e-15
3.6039e-08
1.59503e-09
-2.38305e-15
3.59033e-08
2.63165e-09
-2.28218e-15
3.53865e-08
3.67123e-09
-2.16837e-15
3.44711e-08
4.73035e-09
-1.92103e-15
3.31383e-08
5.81552e-09
-2.22887e-15
3.13667e-08
6.92929e-09
-1.84094e-15
2.91403e-08
8.04929e-09
-1.41137e-15
2.64573e-08
9.12552e-09
-1.56133e-15
2.33434e-08
1.00712e-08
-1.32073e-15
1.98725e-08
1.07544e-08
-1.45364e-15
1.6176e-08
1.10299e-08
-9.68206e-16
1.24432e-08
1.07713e-08
-9.42518e-16
8.90008e-09
9.92272e-09
-6.58986e-16
5.76557e-09
8.54198e-09
-6.01875e-16
3.20834e-09
6.77733e-09
-7.39517e-16
1.33586e-09
4.75184e-09
-7.81601e-16
2.45674e-10
2.41012e-09
3.53688e-17
-9.39958e-12
8.24134e-17
-3.02573e-08
-3.17386e-08
-7.68829e-15
-2.7322e-08
-3.03454e-08
-7.30433e-15
-2.41803e-08
-2.89767e-08
-6.92994e-15
-2.09029e-08
-2.76415e-08
-6.6084e-15
-1.75437e-08
-2.63432e-08
-6.48856e-15
-1.41438e-08
-2.50737e-08
-6.23555e-15
-1.0733e-08
-2.38304e-08
-6.05339e-15
-7.3343e-09
-2.26031e-08
-5.75931e-15
-3.96409e-09
-2.13861e-08
-5.50114e-15
-6.33844e-10
-2.01719e-08
-5.31925e-15
2.64242e-09
-1.89586e-08
-5.12577e-15
5.86173e-09
-1.77365e-08
-4.88114e-15
9.01599e-09
-1.65024e-08
-4.4839e-15
1.20981e-08
-1.52542e-08
-2.4503e-15
1.51001e-08
-1.39899e-08
-3.26366e-15
1.80118e-08
-1.27082e-08
-3.4267e-15
2.08206e-08
-1.14093e-08
-3.53957e-15
2.35104e-08
-1.00937e-08
-3.50546e-15
2.60619e-08
-8.76354e-09
-3.44343e-15
2.84521e-08
-7.42092e-09
-3.37684e-15
3.06554e-08
-6.06913e-09
-3.30993e-15
3.26431e-08
-4.71106e-09
-3.22537e-15
3.43854e-08
-3.34824e-09
-3.12663e-15
3.58516e-08
-1.98286e-09
-3.02841e-15
3.70107e-08
-6.10136e-10
-2.92613e-15
3.78298e-08
7.75776e-10
-2.81857e-15
3.82764e-08
2.18506e-09
-2.70626e-15
3.83168e-08
3.63105e-09
-2.58158e-15
3.79133e-08
5.13358e-09
-2.29418e-15
3.7026e-08
6.70293e-09
-2.62134e-15
3.56106e-08
8.34466e-09
-2.21371e-15
3.36259e-08
1.00339e-08
-1.73268e-15
3.10437e-08
1.17078e-08
-1.9012e-15
2.78653e-08
1.32495e-08
-1.60496e-15
2.41482e-08
1.44716e-08
-1.75831e-15
2.00252e-08
1.51529e-08
-1.19448e-15
1.57133e-08
1.50831e-08
-1.18417e-15
1.14944e-08
1.41417e-08
-8.91417e-16
7.66111e-09
1.23752e-08
-7.77775e-16
4.45321e-09
9.98523e-09
-9.11189e-16
2.02468e-09
7.18038e-09
-4.32729e-16
4.94798e-10
3.94e-09
-1.72681e-16
4.854e-10
2.61572e-16
-2.64484e-08
-3.36464e-08
-7.73823e-15
-2.41939e-08
-3.25999e-08
-7.35193e-15
-2.16751e-08
-3.14955e-08
-6.96049e-15
-1.89614e-08
-3.03553e-08
-6.60594e-15
-1.611e-08
-2.91946e-08
-6.46868e-15
-1.31676e-08
-2.8016e-08
-6.23373e-15
-1.01712e-08
-2.68268e-08
-6.07962e-15
-7.15007e-09
-2.56243e-08
-5.79982e-15
-4.1268e-09
-2.44093e-08
-5.54461e-15
-1.11843e-09
-2.31803e-08
-5.35858e-15
1.8596e-09
-2.19366e-08
-5.16216e-15
4.80015e-09
-2.0677e-08
-4.9208e-15
7.69606e-09
-1.93983e-08
-4.50113e-15
1.05425e-08
-1.81007e-08
-2.77931e-15
1.33358e-08
-1.67832e-08
-3.53084e-15
1.6072e-08
-1.54445e-08
-3.73684e-15
1.87465e-08
-1.40837e-08
-3.85932e-15
2.13524e-08
-1.26996e-08
-3.83991e-15
2.38801e-08
-1.12912e-08
-3.79438e-15
2.63158e-08
-9.85673e-09
-3.73513e-15
2.86416e-08
-8.3949e-09
-3.66894e-15
3.08341e-08
-6.90367e-09
-3.5843e-15
3.28652e-08
-5.37918e-09
-3.48768e-15
3.47022e-08
-3.82001e-09
-3.39034e-15
3.6308e-08
-2.21578e-09
-3.2875e-15
3.76403e-08
-5.56737e-10
-3.17837e-15
3.86515e-08
1.17387e-09
-3.06323e-15
3.92889e-08
2.9939e-09
-2.93565e-15
3.94939e-08
4.92828e-09
-2.62735e-15
3.92021e-08
6.99494e-09
-2.9622e-15
3.83404e-08
9.20621e-09
-2.5491e-15
3.68342e-08
1.154e-08
-2.03897e-15
3.46164e-08
1.39257e-08
-2.21982e-15
3.16469e-08
1.6219e-08
-1.87709e-15
2.79461e-08
1.81725e-08
-2.04789e-15
2.3626e-08
1.9473e-08
-1.41808e-15
1.89124e-08
1.97967e-08
-1.42025e-15
1.41328e-08
1.89212e-08
-1.11686e-15
9.65667e-09
1.68514e-08
-9.58362e-16
5.80681e-09
1.38351e-08
-1.07915e-15
2.79855e-09
1.01886e-08
-5.16831e-16
7.84794e-10
5.95375e-09
-7.83458e-16
1.27019e-09
3.04431e-16
-2.29149e-08
-3.49863e-08
-7.28699e-15
-2.12166e-08
-3.42982e-08
-7.01716e-15
-1.92278e-08
-3.34843e-08
-6.74199e-15
-1.70105e-08
-3.25727e-08
-6.48787e-15
-1.46189e-08
-3.15861e-08
-6.40306e-15
-1.21004e-08
-3.05346e-08
-6.19713e-15
-9.49412e-09
-2.94331e-08
-6.05513e-15
-6.83302e-09
-2.82854e-08
-5.77643e-15
-4.14368e-09
-2.70987e-08
-5.52535e-15
-1.44729e-09
-2.58767e-08
-5.34524e-15
1.23815e-09
-2.46221e-08
-5.1614e-15
3.90137e-09
-2.33402e-08
-4.94017e-15
6.53346e-09
-2.20304e-08
-4.5405e-15
9.12891e-09
-2.06961e-08
-3.09671e-15
1.16846e-08
-1.9339e-08
-3.79525e-15
1.41991e-08
-1.7959e-08
-4.00751e-15
1.66719e-08
-1.65565e-08
-4.11117e-15
1.91024e-08
-1.513e-08
-4.09053e-15
2.14889e-08
-1.36777e-08
-4.05064e-15
2.38272e-08
-1.21952e-08
-3.99227e-15
2.611e-08
-1.06777e-08
-3.92505e-15
2.83244e-08
-9.1182e-09
-3.84179e-15
3.0452e-08
-7.5066e-09
-3.75019e-15
3.24678e-08
-5.83597e-09
-3.65796e-15
3.43395e-08
-4.08729e-09
-3.56016e-15
3.60268e-08
-2.24419e-09
-3.45544e-15
3.74803e-08
-2.79647e-10
-3.34484e-15
3.86385e-08
1.83592e-09
-3.22121e-15
3.94292e-08
4.13732e-09
-2.91141e-15
3.9768e-08
6.65622e-09
-3.24616e-15
3.95556e-08
9.41857e-09
-2.83863e-15
3.86812e-08
1.24143e-08
-2.31995e-15
3.70319e-08
1.55751e-08
-2.50786e-15
3.45123e-08
1.87385e-08
-2.13178e-15
3.10847e-08
2.16002e-08
-2.31413e-15
2.68134e-08
2.37443e-08
-1.63877e-15
2.19059e-08
2.47041e-08
-1.64984e-15
1.67164e-08
2.41108e-08
-1.33325e-15
1.16847e-08
2.1883e-08
-1.13713e-15
7.22576e-09
1.82941e-08
-1.25493e-15
3.63187e-09
1.37826e-08
-6.89719e-16
1.10485e-09
8.48076e-09
-1.12346e-15
2.37505e-09
2.21649e-16
-1.97231e-08
-3.59005e-08
-7.21539e-15
-1.84643e-08
-3.55569e-08
-6.9974e-15
-1.69128e-08
-3.50358e-08
-6.7427e-15
-1.51197e-08
-3.43658e-08
-6.43983e-15
-1.31328e-08
-3.35729e-08
-6.32143e-15
-1.09962e-08
-3.26713e-08
-6.134e-15
-8.74817e-09
-3.16811e-08
-6.03358e-15
-6.42226e-09
-3.06113e-08
-5.78858e-15
-4.04678e-09
-2.94741e-08
-5.55252e-15
-1.64526e-09
-2.82782e-08
-5.37412e-15
7.6221e-10
-2.70296e-08
-5.19072e-15
3.16122e-09
-2.57392e-08
-4.98079e-15
5.54049e-09
-2.44097e-08
-4.61434e-15
7.89267e-09
-2.30484e-08
-3.39158e-15
1.02134e-08
-2.16597e-08
-4.03886e-15
1.25009e-08
-2.02465e-08
-4.22857e-15
1.47556e-08
-1.88111e-08
-4.29848e-15
1.69795e-08
-1.73538e-08
-4.26789e-15
1.91752e-08
-1.58734e-08
-4.22581e-15
2.13449e-08
-1.4365e-08
-4.16373e-15
2.34896e-08
-1.28224e-08
-4.09452e-15
2.56067e-08
-1.12354e-08
-4.01306e-15
2.7689e-08
-9.5888e-09
-3.92722e-15
2.97237e-08
-7.87078e-09
-3.84144e-15
3.16898e-08
-6.05329e-09
-3.75113e-15
3.35574e-08
-4.11185e-09
-3.6546e-15
3.52855e-08
-2.00774e-09
-3.55304e-15
3.68186e-08
3.02938e-10
-3.43796e-15
3.80831e-08
2.87261e-09
-3.14281e-15
3.89867e-08
5.7528e-09
-3.46367e-15
3.94133e-08
8.99182e-09
-3.07584e-15
3.92237e-08
1.26038e-08
-2.56455e-15
3.82609e-08
1.65381e-08
-2.75812e-15
3.63684e-08
2.06308e-08
-2.36446e-15
3.34342e-08
2.45344e-08
-2.56566e-15
2.94488e-08
2.77297e-08
-1.8578e-15
2.4569e-08
2.95838e-08
-1.87119e-15
1.91463e-08
2.95335e-08
-1.53887e-15
1.36757e-08
2.73536e-08
-1.30711e-15
8.66519e-09
2.33046e-08
-1.38017e-15
4.49882e-09
1.79489e-08
-8.60673e-16
1.44473e-09
1.15348e-08
-1.08979e-15
3.81978e-09
-8.70502e-17
-1.68858e-08
-6.6478e-15
-1.59688e-08
-6.65411e-15
-1.47715e-08
-3.62331e-08
-6.59039e-15
-1.33339e-08
-3.58035e-08
-6.40234e-15
-1.1696e-08
-3.52108e-08
-6.33026e-15
-9.89647e-09
-3.44708e-08
-6.15293e-15
-7.97087e-09
-3.36067e-08
-6.04374e-15
-5.95127e-09
-3.26309e-08
-5.7947e-15
-3.86582e-09
-3.15596e-08
-5.55391e-15
-1.73872e-09
-3.04053e-08
-5.37371e-15
4.08849e-10
-2.91771e-08
-5.19745e-15
2.56057e-09
-2.78909e-08
-5.00948e-15
4.70311e-09
-2.65522e-08
-4.69123e-15
6.82732e-09
-2.51726e-08
-3.64654e-15
8.92701e-09
-2.37594e-08
-4.24276e-15
1.0999e-08
-2.23185e-08
-4.39398e-15
1.30429e-08
-2.0855e-08
-4.43021e-15
1.50606e-08
-1.93715e-08
-4.38623e-15
1.7056e-08
-1.78689e-08
-4.33806e-15
1.90343e-08
-1.63434e-08
-4.27028e-15
2.1001e-08
-1.47891e-08
-4.19905e-15
2.29605e-08
-1.3195e-08
-4.11901e-15
2.49149e-08
-1.15431e-08
-4.03804e-15
2.68624e-08
-9.81844e-09
-3.95804e-15
2.8795e-08
-7.98581e-09
-3.87514e-15
3.06966e-08
-6.01355e-09
-3.78785e-15
3.25403e-08
-3.85141e-09
-3.69726e-15
3.42848e-08
-1.4414e-09
-3.59222e-15
3.58693e-08
1.28788e-09
-3.32293e-15
3.72068e-08
4.41537e-09
-3.63163e-15
3.818e-08
8.01855e-09
-3.26121e-15
3.86354e-08
1.21483e-08
-2.76961e-15
3.83837e-08
1.67899e-08
-2.96684e-15
3.72132e-08
2.18012e-08
-2.57107e-15
3.49313e-08
2.68163e-08
-2.78048e-15
3.14346e-08
3.12264e-08
-2.06675e-15
2.67969e-08
3.42215e-08
-2.08186e-15
2.13312e-08
3.49992e-08
-1.73388e-15
1.55609e-08
3.31239e-08
-1.47011e-15
1.00798e-08
2.87858e-08
-1.50395e-15
5.37343e-09
2.26553e-08
-9.78049e-16
1.79427e-09
1.5114e-08
-8.49272e-16
5.61405e-09
-4.21462e-16
-1.28255e-08
-3.71486e-08
-6.62573e-15
-1.16807e-08
-3.69483e-08
-6.36615e-15
-1.03386e-08
-3.6553e-08
-6.25188e-15
-8.83181e-09
-3.59776e-08
-6.08698e-15
-7.19168e-09
-3.52468e-08
-6.00499e-15
-5.44766e-09
-3.43749e-08
-5.79421e-15
-3.62642e-09
-3.33808e-08
-5.57713e-15
-1.7516e-09
-3.22801e-08
-5.40103e-15
1.55494e-10
-3.10842e-08
-5.22542e-15
2.07821e-09
-2.98137e-08
-5.04787e-15
4.00146e-09
-2.84754e-08
-4.76992e-15
5.9147e-09
-2.70858e-08
-3.86589e-15
7.8102e-09
-2.56549e-08
-4.40084e-15
9.6832e-09
-2.41915e-08
-4.51054e-15
1.15318e-08
-2.27036e-08
-4.51769e-15
1.33568e-08
-2.11965e-08
-4.46103e-15
1.51615e-08
-1.96736e-08
-4.40594e-15
1.69513e-08
-1.81333e-08
-4.33246e-15
1.87336e-08
-1.65713e-08
-4.25931e-15
2.0516e-08
-1.49775e-08
-4.17991e-15
2.23063e-08
-1.33332e-08
-4.10213e-15
2.41107e-08
-1.1623e-08
-4.02618e-15
2.59318e-08
-9.8068e-09
-3.94913e-15
2.77665e-08
-7.84835e-09
-3.86964e-15
2.96032e-08
-5.68805e-09
-3.78883e-15
3.14178e-08
-3.25583e-09
-3.69355e-15
3.31687e-08
-4.63235e-10
-3.45532e-15
3.47869e-08
2.79728e-09
-3.74021e-15
3.61678e-08
6.6375e-09
-3.39615e-15
3.71616e-08
1.11544e-08
-2.93477e-15
3.75653e-08
1.63862e-08
-3.13405e-15
3.71274e-08
2.2239e-08
-2.74961e-15
3.55821e-08
2.83617e-08
-2.96716e-15
3.27231e-08
3.40855e-08
-2.26991e-15
2.85149e-08
3.84296e-08
-2.28051e-15
2.31939e-08
4.03202e-08
-1.91851e-15
1.7277e-08
3.90408e-08
-1.62871e-15
1.14255e-08
3.46372e-08
-1.64103e-15
6.23004e-09
2.78509e-08
-1.1574e-15
2.14332e-09
1.92007e-08
-9.72144e-16
7.75737e-09
-5.56627e-16
-1.10804e-08
-3.78427e-08
-6.39782e-15
-1.01739e-08
-3.78548e-08
-6.29886e-15
-9.07926e-09
-3.76475e-08
-6.26019e-15
-7.82323e-09
-3.72336e-08
-6.11839e-15
-6.43253e-09
-3.66375e-08
-6.01189e-15
-4.93324e-09
-3.58742e-08
-5.81546e-15
-3.34975e-09
-3.49643e-08
-5.59134e-15
-1.70436e-09
-3.39255e-08
-5.4098e-15
-1.75862e-11
-3.2771e-08
-5.23539e-15
1.69463e-09
-3.15259e-08
-5.06924e-15
3.41604e-09
-3.01968e-08
-4.83557e-15
5.13519e-09
-2.8805e-08
-4.03915e-15
6.84331e-09
-2.73631e-08
-4.51578e-15
8.53431e-09
-2.58825e-08
-4.59043e-15
1.02049e-08
-2.43741e-08
-4.57395e-15
1.18543e-08
-2.28459e-08
-4.5065e-15
1.34845e-08
-2.13038e-08
-4.44514e-15
1.51e-08
-1.97488e-08
-4.36659e-15
1.67077e-08
-1.81791e-08
-4.29177e-15
1.83164e-08
-1.65862e-08
-4.21214e-15
1.9936e-08
-1.49527e-08
-4.13596e-15
2.15772e-08
-1.32643e-08
-4.06215e-15
2.32495e-08
-1.14791e-08
-3.98897e-15
2.49599e-08
-9.55879e-09
-3.91484e-15
2.67096e-08
-7.43776e-09
-3.84125e-15
2.84909e-08
-5.03695e-09
-3.7538e-15
3.02823e-08
-2.25489e-09
-3.54652e-15
3.20385e-08
1.0412e-09
-3.81951e-15
3.36781e-08
4.99781e-09
-3.48581e-15
3.50701e-08
9.76241e-09
-3.0607e-15
3.60182e-08
1.54383e-08
-3.26041e-15
3.62532e-08
2.20038e-08
-2.89861e-15
3.54544e-08
2.91606e-08
-3.12622e-15
3.33177e-08
3.62221e-08
-2.45019e-15
2.96833e-08
4.2064e-08
-2.46307e-15
2.46771e-08
4.53264e-08
-2.09344e-15
1.87694e-08
4.49485e-08
-1.785e-15
1.26616e-08
4.0745e-08
-1.7906e-15
7.04396e-09
3.34685e-08
-1.34854e-15
2.48187e-09
2.37627e-08
-1.17789e-15
1.02392e-08
-6.83885e-16
-9.53178e-09
-3.83647e-08
-6.38114e-15
-8.81706e-09
-3.85696e-08
-6.26909e-15
-7.92751e-09
-3.85371e-08
-6.2281e-15
-6.88407e-09
-3.8277e-08
-6.09688e-15
-5.70895e-09
-3.78127e-08
-6.02281e-15
-4.42467e-09
-3.71584e-08
-5.82573e-15
-3.05288e-09
-3.63361e-08
-5.61878e-15
-1.6139e-09
-3.53644e-08
-5.43863e-15
-1.26277e-10
-3.42586e-08
-5.26179e-15
1.39278e-09
-3.30449e-08
-5.0985e-15
2.92917e-09
-3.17332e-08
-4.89213e-15
4.4705e-09
-3.03464e-08
-4.18034e-15
6.00724e-09
-2.88998e-08
-4.59855e-15
7.53234e-09
-2.74076e-08
-4.64366e-15
9.04128e-09
-2.58831e-08
-4.60878e-15
1.0532e-08
-2.43366e-08
-4.53329e-15
1.20051e-08
-2.27769e-08
-4.46679e-15
1.34635e-08
-2.12072e-08
-4.38417e-15
1.49129e-08
-1.96285e-08
-4.30774e-15
1.63613e-08
-1.80347e-08
-4.22727e-15
1.7819e-08
-1.64103e-08
-4.15153e-15
1.92983e-08
-1.47436e-08
-4.07835e-15
2.08121e-08
-1.29929e-08
-4.00713e-15
2.23736e-08
-1.11203e-08
-3.93616e-15
2.39934e-08
-9.05755e-09
-3.8671e-15
2.56768e-08
-6.72021e-09
-3.78533e-15
2.74199e-08
-3.99814e-09
-3.60667e-15
2.92003e-08
-7.3919e-10
-3.85322e-15
3.09648e-08
3.23326e-09
-3.53828e-15
3.26109e-08
8.11626e-09
-3.15199e-15
3.39658e-08
1.40835e-08
-3.34945e-15
3.47661e-08
2.12034e-08
-3.01836e-15
3.4661e-08
2.92658e-08
-3.25167e-15
3.32671e-08
3.76161e-08
-2.62339e-15
3.02986e-08
4.50323e-08
-2.62926e-15
2.57467e-08
4.98783e-08
-2.25797e-15
1.99959e-08
5.06994e-08
-1.94048e-15
1.37526e-08
4.69883e-08
-1.94916e-15
7.79246e-09
3.94287e-08
-1.54177e-15
2.80032e-09
2.87549e-08
-1.36969e-15
1.30396e-08
-8.2866e-16
-8.16881e-09
-3.87543e-08
-6.28685e-15
-7.60726e-09
-3.91311e-08
-6.24224e-15
-6.88618e-09
-3.92581e-08
-6.22121e-15
-6.02151e-09
-3.91417e-08
-6.09366e-15
-5.03115e-09
-3.8803e-08
-6.00882e-15
-3.93408e-09
-3.82555e-08
-5.83774e-15
-2.74917e-09
-3.7521e-08
-5.62574e-15
-1.49452e-09
-3.66191e-08
-5.44504e-15
-1.87014e-10
-3.55661e-08
-5.27002e-15
1.15746e-09
-3.43894e-08
-5.11371e-15
2.52531e-09
-3.31011e-08
-4.94227e-15
3.90433e-09
-3.17254e-08
-4.29217e-15
5.2847e-09
-3.02802e-08
-4.6585e-15
6.65877e-09
-2.87817e-08
-4.6794e-15
8.02118e-09
-2.72455e-08
-4.63021e-15
9.36884e-09
-2.56843e-08
-4.54875e-15
1.07009e-08
-2.4109e-08
-4.47813e-15
1.2019e-08
-2.25254e-08
-4.39223e-15
1.33273e-08
-2.09367e-08
-4.31439e-15
1.46323e-08
-1.93398e-08
-4.23259e-15
1.59434e-08
-1.77213e-08
-4.15665e-15
1.72725e-08
-1.60728e-08
-4.08301e-15
1.86338e-08
-1.43541e-08
-4.0123e-15
2.00431e-08
-1.25297e-08
-3.94263e-15
2.15167e-08
-1.05312e-08
-3.87577e-15
2.30689e-08
-8.2723e-09
-3.79783e-15
2.47092e-08
-5.63859e-09
-3.6436e-15
2.64348e-08
-2.46465e-09
-3.85445e-15
2.82188e-08
1.44913e-09
-3.5621e-15
2.99915e-08
6.34352e-09
-3.2149e-15
3.1614e-08
1.24611e-08
-3.40631e-15
3.28483e-08
1.99691e-08
-3.11012e-15
3.33404e-08
2.87737e-08
-3.34313e-15
3.26537e-08
3.83029e-08
-2.79022e-15
3.03899e-08
4.7296e-08
-2.77953e-15
2.63933e-08
5.3875e-08
-2.41237e-15
2.09288e-08
5.61638e-08
-2.09886e-15
1.46701e-08
5.32471e-08
-2.11595e-15
8.45565e-09
4.56432e-08
-1.74546e-15
3.08983e-09
3.41207e-08
-1.56733e-15
1.61294e-08
-9.95766e-16
-6.97708e-09
-3.90429e-08
-6.3193e-15
-6.53698e-09
-3.95712e-08
-6.27486e-15
-5.95345e-09
-3.98417e-08
-6.25538e-15
-5.23814e-09
-3.9857e-08
-6.11604e-15
-4.40506e-09
-3.96361e-08
-6.01718e-15
-3.46987e-09
-3.91907e-08
-5.84745e-15
-2.4487e-09
-3.85422e-08
-5.64406e-15
-1.35741e-09
-3.77104e-08
-5.46593e-15
-2.11118e-10
-3.67124e-08
-5.29055e-15
9.75927e-10
-3.55764e-08
-5.13692e-15
2.19097e-09
-3.43161e-08
-5.01969e-15
3.42238e-09
-3.29568e-08
-4.4015e-15
4.66041e-09
-3.15182e-08
-4.70543e-15
5.89714e-09
-3.00184e-08
-4.70367e-15
7.12668e-09
-2.8475e-08
-4.64296e-15
8.34518e-09
-2.69027e-08
-4.5572e-15
9.55078e-09
-2.53146e-08
-4.48344e-15
1.07438e-08
-2.37184e-08
-4.39492e-15
1.19269e-08
-2.21199e-08
-4.31582e-15
1.31052e-08
-2.05181e-08
-4.23253e-15
1.42863e-08
-1.89023e-08
-4.1559e-15
1.54812e-08
-1.72677e-08
-4.08115e-15
1.67032e-08
-1.5576e-08
-4.01004e-15
1.79689e-08
-1.37955e-08
-3.9403e-15
1.92969e-08
-1.18592e-08
-3.87393e-15
2.07068e-08
-9.68208e-09
-3.79829e-15
2.22171e-08
-7.14902e-09
-3.66386e-15
2.38394e-08
-4.08687e-09
-3.84269e-15
2.55692e-08
-2.8073e-10
-3.56697e-15
2.73676e-08
4.545e-09
-3.2558e-15
2.91341e-08
1.06948e-08
-3.43619e-15
3.06684e-08
1.84346e-08
-3.1764e-15
3.16375e-08
2.78047e-08
-3.39143e-15
3.1581e-08
3.83594e-08
-2.90879e-15
3.00117e-08
4.88652e-08
-2.91125e-15
2.66296e-08
5.72571e-08
-2.55682e-15
2.15559e-08
6.12374e-08
-2.26455e-15
1.53942e-08
5.94089e-08
-2.29162e-15
9.01738e-09
5.202e-08
-1.96882e-15
3.34268e-09
3.97953e-08
-1.7838e-15
1.94721e-08
-1.18941e-15
-5.94048e-09
-3.92552e-08
-6.3672e-15
-5.59612e-09
-3.99156e-08
-6.18357e-15
-5.12433e-09
-4.03134e-08
-6.18574e-15
-4.53318e-09
-4.04482e-08
-6.08954e-15
-3.83332e-09
-4.0336e-08
-6.0113e-15
-3.03734e-09
-3.99867e-08
-5.8385e-15
-2.15879e-09
-3.94207e-08
-5.64192e-15
-1.21138e-09
-3.86578e-08
-5.4671e-15
-2.08446e-10
-3.77154e-08
-5.29583e-15
8.37402e-10
-3.66223e-08
-5.1483e-15
1.91454e-09
-3.53933e-08
-5.05848e-15
3.01218e-09
-3.40545e-08
-4.48609e-15
4.12096e-09
-3.2627e-08
-4.73954e-15
5.23296e-09
-3.11304e-08
-4.72e-15
6.34203e-09
-2.95841e-08
-4.65037e-15
7.44381e-09
-2.80045e-08
-4.56148e-15
8.5357e-09
-2.64065e-08
-4.48516e-15
9.617e-09
-2.47998e-08
-4.39444e-15
1.06892e-08
-2.3192e-08
-4.31418e-15
1.17557e-08
-2.15847e-08
-4.22944e-15
1.28229e-08
-1.99694e-08
-4.1518e-15
1.38996e-08
-1.83446e-08
-4.07568e-15
1.49982e-08
-1.66745e-08
-4.00349e-15
1.61341e-08
-1.49314e-08
-3.93298e-15
1.73263e-08
-1.30514e-08
-3.86591e-15
1.85965e-08
-1.09522e-08
-3.79145e-15
1.99684e-08
-8.52102e-09
-3.67229e-15
2.14632e-08
-5.5816e-09
-3.81922e-15
2.3093e-08
-1.9106e-09
-3.55718e-15
2.48452e-08
2.79275e-09
-3.27714e-15
2.66558e-08
8.88425e-09
-3.44122e-15
2.83688e-08
1.67216e-08
-3.21834e-15
2.96885e-08
2.6485e-08
-3.43825e-15
3.01597e-08
3.78882e-08
-3.01016e-15
2.92359e-08
4.97889e-08
-3.02302e-15
2.64873e-08
6.00058e-08
-2.6936e-15
2.18797e-08
6.5845e-08
-2.4374e-15
1.59137e-08
6.53749e-08
-2.47701e-15
9.46583e-09
5.8468e-08
-2.2148e-15
3.55265e-09
4.57085e-08
-2.02543e-15
2.30247e-08
-1.41594e-15
-5.04258e-09
-3.94102e-08
-6.49496e-15
-4.77331e-09
-4.01849e-08
-6.21727e-15
-4.39191e-09
-4.06948e-08
-6.1426e-15
-3.9036e-09
-4.09365e-08
-6.06778e-15
-3.31613e-09
-4.09234e-08
-6.00316e-15
-2.63936e-09
-4.06634e-08
-5.83139e-15
-1.88447e-09
-4.01756e-08
-5.64885e-15
-1.06314e-09
-3.94791e-08
-5.47883e-15
-1.87002e-10
-3.85915e-08
-5.31044e-15
7.3287e-10
-3.75422e-08
-5.16582e-15
1.6861e-09
-3.63465e-08
-5.07114e-15
2.66295e-09
-3.50313e-08
-4.54209e-15
3.65464e-09
-3.36187e-08
-4.76378e-15
4.65353e-09
-3.21293e-08
-4.73119e-15
5.65341e-09
-3.0584e-08
-4.65423e-15
6.64965e-09
-2.90007e-08
-4.56292e-15
7.63913e-09
-2.7396e-08
-4.48454e-15
8.62042e-09
-2.57811e-08
-4.39192e-15
9.59394e-09
-2.41655e-08
-4.31068e-15
1.0562e-08
-2.25528e-08
-4.2246e-15
1.15292e-08
-2.09365e-08
-4.14586e-15
1.25029e-08
-1.93184e-08
-4.06829e-15
1.34936e-08
-1.76651e-08
-3.99478e-15
1.45151e-08
-1.5953e-08
-3.92309e-15
1.55853e-08
-1.41216e-08
-3.8546e-15
1.67259e-08
-1.20928e-08
-3.78054e-15
1.79628e-08
-9.75798e-09
-3.67261e-15
1.93226e-08
-6.94136e-09
-3.79047e-15
2.08286e-08
-3.41666e-09
-3.53687e-15
2.24882e-08
1.13309e-09
-3.27759e-15
2.42694e-08
7.10314e-09
-3.41755e-15
2.606e-08
1.49309e-08
-3.23377e-15
2.76119e-08
2.49331e-08
-3.4537e-15
2.84975e-08
3.70026e-08
-3.0877e-15
2.81427e-08
5.01436e-08
-3.1153e-15
2.60119e-08
6.21366e-08
-2.82607e-15
2.19155e-08
6.99413e-08
-2.61727e-15
1.62268e-08
7.10636e-08
-2.66936e-15
9.79392e-09
6.49009e-08
-2.45516e-15
3.7152e-09
5.17872e-08
-2.29674e-15
2.674e-08
-1.68577e-15
-4.26748e-09
-3.95228e-08
-6.49572e-15
-4.05679e-09
-4.03956e-08
-6.26576e-15
-3.74825e-09
-4.10034e-08
-6.13058e-15
-3.34485e-09
-4.13399e-08
-6.01081e-15
-2.85193e-09
-4.14163e-08
-5.98127e-15
-2.27697e-09
-4.12384e-08
-5.81139e-15
-1.62893e-09
-4.08237e-08
-5.64462e-15
-9.17637e-10
-4.01904e-08
-5.47695e-15
-1.53152e-10
-3.9356e-08
-5.31297e-15
6.54852e-10
-3.83502e-08
-5.17319e-15
1.49725e-09
-3.71889e-08
-5.09416e-15
2.36538e-09
-3.58995e-08
-4.58719e-15
3.25129e-09
-3.45046e-08
-4.77915e-15
4.14777e-09
-3.30257e-08
-4.73764e-15
5.04876e-09
-3.1485e-08
-4.65558e-15
5.94952e-09
-2.99014e-08
-4.56224e-15
6.84664e-09
-2.82931e-08
-4.48261e-15
7.73814e-09
-2.66726e-08
-4.38815e-15
8.6237e-09
-2.50511e-08
-4.30614e-15
9.50456e-09
-2.34337e-08
-4.21875e-15
1.0384e-08
-2.18159e-08
-4.13884e-15
1.1268e-08
-2.02024e-08
-4.05992e-15
1.21649e-08
-1.8562e-08
-3.9851e-15
1.30869e-08
-1.6875e-08
-3.91198e-15
1.40499e-08
-1.50847e-08
-3.84203e-15
1.50745e-08
-1.31173e-08
-3.76756e-15
1.61862e-08
-1.08698e-08
-3.66714e-15
1.74142e-08
-8.16926e-09
-3.75569e-15
1.87881e-08
-4.79064e-09
-3.50207e-15
2.03294e-08
-4.08247e-10
-3.24703e-15
2.20314e-08
5.4012e-09
-3.3636e-15
2.38217e-08
1.31406e-08
-3.2127e-15
2.55028e-08
2.3252e-08
-3.45239e-15
2.66911e-08
3.58143e-08
-3.12907e-15
2.68133e-08
5.00213e-08
-3.19228e-15
2.52573e-08
6.36926e-08
-2.95955e-15
2.16891e-08
7.35095e-08
-2.80673e-15
1.63394e-08
7.64134e-08
-2.86462e-15
9.99936e-09
7.1241e-08
-2.71901e-15
3.82771e-09
5.79588e-08
-2.60648e-15
3.05677e-08
-2.02388e-15
-3.60026e-09
-3.96042e-08
-6.61841e-15
-3.43506e-09
-4.05608e-08
-6.34487e-15
-3.18506e-09
-4.12534e-08
-6.22953e-15
-2.85158e-09
-4.16734e-08
-6.0236e-15
-2.43803e-09
-4.18299e-08
-5.94568e-15
-1.94979e-09
-4.17266e-08
-5.80224e-15
-1.39388e-09
-4.13796e-08
-5.64326e-15
-7.78374e-10
-4.08059e-08
-5.47996e-15
-1.11862e-10
-4.00225e-08
-5.3205e-15
5.97206e-10
-3.90592e-08
-5.1849e-15
1.34086e-09
-3.79325e-08
-5.10126e-15
2.11152e-09
-3.66701e-08
-4.63078e-15
2.9021e-09
-3.52952e-08
-4.79306e-15
3.70602e-09
-3.38297e-08
-4.74181e-15
4.51752e-09
-3.22965e-08
-4.65527e-15
5.33192e-09
-3.07158e-08
-4.5603e-15
6.14565e-09
-2.91068e-08
-4.47914e-15
6.95639e-09
-2.74834e-08
-4.38355e-15
7.76325e-09
-2.58579e-08
-4.30088e-15
8.56668e-09
-2.42372e-08
-4.21218e-15
9.36892e-09
-2.26181e-08
-4.13128e-15
1.01744e-08
-2.10079e-08
-4.05112e-15
1.09901e-08
-1.93776e-08
-3.97498e-15
1.1826e-08
-1.7711e-08
-3.90046e-15
1.2696e-08