/*--------------------------------*- C++ -*----------------------------------*\
| =========                 |                                                 |
| \\      /  F ield         | OpenFOAM: The Open Source CFD Toolbox           |
|  \\    /   O peration     | Version:  v2012                                 |
|   \\  /    A nd           | Website:  www.openfoam.com                      |
|    \\/     M anipulation  |                                                 |
\*---------------------------------------------------------------------------*/
FoamFile
{
    version     2.0;
    format      ascii;
    class       volScalarField;
    location    "0.45";
    object      p;
}
// * * * * * * * * * * * * * * * * * * * * * * * * * * * * * * * * * * * * * //

dimensions      [1 -1 -2 0 0 0 0];


internalField   nonuniform List<scalar> 
3338
(
3.49957e+06
3.49905e+06
3.49902e+06
3.49982e+06
3.49988e+06
3.4999e+06
3.49991e+06
3.49991e+06
3.49991e+06
3.49991e+06
3.49991e+06
3.49991e+06
3.49991e+06
3.49991e+06
3.49991e+06
3.49991e+06
3.49991e+06
3.4999e+06
3.4999e+06
3.49989e+06
3.49989e+06
3.49938e+06
3.49893e+06
3.49909e+06
3.4996e+06
3.49966e+06
3.49969e+06
3.4997e+06
3.49971e+06
3.49971e+06
3.49971e+06
3.49971e+06
3.49971e+06
3.49971e+06
3.49971e+06
3.49971e+06
3.49971e+06
3.4997e+06
3.4997e+06
3.49969e+06
3.49968e+06
3.49967e+06
3.49925e+06
3.49899e+06
3.49907e+06
3.49937e+06
3.49942e+06
3.49946e+06
3.49948e+06
3.49949e+06
3.4995e+06
3.4995e+06
3.4995e+06
3.4995e+06
3.4995e+06
3.4995e+06
3.4995e+06
3.4995e+06
3.49949e+06
3.49948e+06
3.49947e+06
3.49946e+06
3.49944e+06
3.49907e+06
3.49891e+06
3.49895e+06
3.49915e+06
3.4992e+06
3.49924e+06
3.49926e+06
3.49928e+06
3.49928e+06
3.49929e+06
3.49929e+06
3.4993e+06
3.4993e+06
3.49929e+06
3.49929e+06
3.49928e+06
3.49928e+06
3.49927e+06
3.49925e+06
3.49924e+06
3.49922e+06
3.49889e+06
3.49878e+06
3.4988e+06
3.49894e+06
3.49898e+06
3.49903e+06
3.49905e+06
3.49906e+06
3.49907e+06
3.49908e+06
3.49908e+06
3.49909e+06
3.49909e+06
3.49908e+06
3.49908e+06
3.49907e+06
3.49906e+06
3.49905e+06
3.49903e+06
3.49902e+06
3.49899e+06
3.49871e+06
3.49863e+06
3.49864e+06
3.49874e+06
3.49877e+06
3.49881e+06
3.49884e+06
3.49885e+06
3.49886e+06
3.49887e+06
3.49888e+06
3.49888e+06
3.49888e+06
3.49888e+06
3.49887e+06
3.49886e+06
3.49885e+06
3.49884e+06
3.49882e+06
3.4988e+06
3.49877e+06
3.49853e+06
3.49847e+06
3.49847e+06
3.49854e+06
3.49857e+06
3.4986e+06
3.49862e+06
3.49864e+06
3.49865e+06
3.49866e+06
3.49867e+06
3.49867e+06
3.49867e+06
3.49867e+06
3.49866e+06
3.49865e+06
3.49864e+06
3.49862e+06
3.4986e+06
3.49858e+06
3.49855e+06
3.49834e+06
3.49829e+06
3.49829e+06
3.49834e+06
3.49836e+06
3.49839e+06
3.49841e+06
3.49843e+06
3.49844e+06
3.49845e+06
3.49846e+06
3.49846e+06
3.49846e+06
3.49846e+06
3.49845e+06
3.49844e+06
3.49843e+06
3.49841e+06
3.49838e+06
3.49836e+06
3.49832e+06
3.49815e+06
3.49811e+06
3.49811e+06
3.49814e+06
3.49816e+06
3.49819e+06
3.49821e+06
3.49822e+06
3.49824e+06
3.49825e+06
3.49825e+06
3.49826e+06
3.49826e+06
3.49825e+06
3.49824e+06
3.49823e+06
3.49822e+06
3.4982e+06
3.49817e+06
3.49814e+06
3.4981e+06
3.49796e+06
3.49792e+06
3.49792e+06
3.49794e+06
3.49795e+06
3.49798e+06
3.498e+06
3.49801e+06
3.49803e+06
3.49804e+06
3.49804e+06
3.49805e+06
3.49805e+06
3.49804e+06
3.49804e+06
3.49802e+06
3.49801e+06
3.49798e+06
3.49795e+06
3.49792e+06
3.49788e+06
3.49776e+06
3.49773e+06
3.49772e+06
3.49774e+06
3.49775e+06
3.49777e+06
3.49779e+06
3.49781e+06
3.49782e+06
3.49783e+06
3.49784e+06
3.49784e+06
3.49784e+06
3.49784e+06
3.49783e+06
3.49781e+06
3.49779e+06
3.49777e+06
3.49774e+06
3.4977e+06
3.49765e+06
3.49756e+06
3.49753e+06
3.49752e+06
3.49753e+06
3.49755e+06
3.49757e+06
3.49758e+06
3.4976e+06
3.49761e+06
3.49762e+06
3.49763e+06
3.49764e+06
3.49764e+06
3.49763e+06
3.49762e+06
3.49761e+06
3.49758e+06
3.49756e+06
3.49752e+06
3.49748e+06
3.49743e+06
3.49735e+06
3.49733e+06
3.49732e+06
3.49733e+06
3.49734e+06
3.49736e+06
3.49738e+06
3.49739e+06
3.49741e+06
3.49742e+06
3.49743e+06
3.49743e+06
3.49743e+06
3.49743e+06
3.49742e+06
3.4974e+06
3.49738e+06
3.49735e+06
3.49731e+06
3.49727e+06
3.49721e+06
3.49714e+06
3.49713e+06
3.49712e+06
3.49713e+06
3.49714e+06
3.49715e+06
3.49717e+06
3.49719e+06
3.4972e+06
3.49721e+06
3.49722e+06
3.49723e+06
3.49723e+06
3.49722e+06
3.49721e+06
3.49719e+06
3.49717e+06
3.49714e+06
3.49709e+06
3.49705e+06
3.49699e+06
3.49694e+06
3.49692e+06
3.49691e+06
3.49692e+06
3.49693e+06
3.49695e+06
3.49697e+06
3.49698e+06
3.497e+06
3.49701e+06
3.49702e+06
3.49702e+06
3.49702e+06
3.49702e+06
3.497e+06
3.49699e+06
3.49696e+06
3.49693e+06
3.49688e+06
3.49683e+06
3.49677e+06
3.49673e+06
3.49671e+06
3.49671e+06
3.49671e+06
3.49673e+06
3.49674e+06
3.49676e+06
3.49678e+06
3.49679e+06
3.49681e+06
3.49681e+06
3.49682e+06
3.49682e+06
3.49681e+06
3.4968e+06
3.49678e+06
3.49675e+06
3.49672e+06
3.49667e+06
3.49662e+06
3.49655e+06
3.49651e+06
3.4965e+06
3.4965e+06
3.49651e+06
3.49652e+06
3.49654e+06
3.49655e+06
3.49657e+06
3.49659e+06
3.4966e+06
3.49661e+06
3.49662e+06
3.49662e+06
3.49661e+06
3.4966e+06
3.49657e+06
3.49655e+06
3.49651e+06
3.49646e+06
3.4964e+06
3.49633e+06
3.4963e+06
3.49629e+06
3.49629e+06
3.4963e+06
3.49631e+06
3.49633e+06
3.49635e+06
3.49637e+06
3.49639e+06
3.4964e+06
3.49641e+06
3.49641e+06
3.49641e+06
3.49641e+06
3.49639e+06
3.49637e+06
3.49634e+06
3.4963e+06
3.49625e+06
3.49619e+06
3.49611e+06
3.49608e+06
3.49608e+06
3.49608e+06
3.49609e+06
3.49611e+06
3.49612e+06
3.49614e+06
3.49616e+06
3.49618e+06
3.4962e+06
3.49621e+06
3.49621e+06
3.49621e+06
3.49621e+06
3.49619e+06
3.49617e+06
3.49613e+06
3.49609e+06
3.49604e+06
3.49598e+06
3.49589e+06
3.49587e+06
3.49586e+06
3.49587e+06
3.49588e+06
3.4959e+06
3.49592e+06
3.49594e+06
3.49596e+06
3.49598e+06
3.496e+06
3.49601e+06
3.49601e+06
3.49601e+06
3.49601e+06
3.49599e+06
3.49597e+06
3.49593e+06
3.49589e+06
3.49583e+06
3.49577e+06
3.49567e+06
3.49565e+06
3.49565e+06
3.49566e+06
3.49567e+06
3.49569e+06
3.49571e+06
3.49574e+06
3.49576e+06
3.49578e+06
3.4958e+06
3.49581e+06
3.49581e+06
3.49581e+06
3.49581e+06
3.49579e+06
3.49576e+06
3.49573e+06
3.49568e+06
3.49562e+06
3.49555e+06
3.49546e+06
3.49543e+06
3.49543e+06
3.49544e+06
3.49546e+06
3.49548e+06
3.49551e+06
3.49553e+06
3.49556e+06
3.49558e+06
3.4956e+06
3.49561e+06
3.49562e+06
3.49562e+06
3.49561e+06
3.49559e+06
3.49556e+06
3.49553e+06
3.49548e+06
3.49541e+06
3.49534e+06
3.49524e+06
3.49521e+06
3.49522e+06
3.49523e+06
3.49525e+06
3.49528e+06
3.4953e+06
3.49533e+06
3.49536e+06
3.49538e+06
3.4954e+06
3.49541e+06
3.49542e+06
3.49542e+06
3.49541e+06
3.49539e+06
3.49536e+06
3.49532e+06
3.49528e+06
3.49521e+06
3.49514e+06
3.49503e+06
3.49499e+06
3.495e+06
3.49502e+06
3.49504e+06
3.49507e+06
3.4951e+06
3.49513e+06
3.49515e+06
3.49518e+06
3.4952e+06
3.49521e+06
3.49522e+06
3.49522e+06
3.49521e+06
3.4952e+06
3.49517e+06
3.49513e+06
3.49507e+06
3.495e+06
3.49493e+06
3.49482e+06
3.49476e+06
3.49478e+06
3.4948e+06
3.49483e+06
3.49486e+06
3.49489e+06
3.49492e+06
3.49495e+06
3.49498e+06
3.495e+06
3.49502e+06
3.49503e+06
3.49503e+06
3.49502e+06
3.495e+06
3.49497e+06
3.49493e+06
3.49487e+06
3.4948e+06
3.49472e+06
3.4946e+06
3.49454e+06
3.49456e+06
3.49459e+06
3.49462e+06
3.49465e+06
3.49469e+06
3.49472e+06
3.49475e+06
3.49478e+06
3.49481e+06
3.49482e+06
3.49483e+06
3.49483e+06
3.49482e+06
3.4948e+06
3.49477e+06
3.49473e+06
3.49467e+06
3.4946e+06
3.49452e+06
3.49439e+06
3.49431e+06
3.49434e+06
3.49437e+06
3.49441e+06
3.49445e+06
3.49449e+06
3.49452e+06
3.49456e+06
3.49459e+06
3.49461e+06
3.49463e+06
3.49464e+06
3.49464e+06
3.49463e+06
3.49461e+06
3.49458e+06
3.49453e+06
3.49448e+06
3.4944e+06
3.49431e+06
3.49419e+06
3.49409e+06
3.49412e+06
3.49416e+06
3.4942e+06
3.49424e+06
3.49428e+06
3.49432e+06
3.49436e+06
3.49439e+06
3.49442e+06
3.49444e+06
3.49445e+06
3.49445e+06
3.49444e+06
3.49442e+06
3.49439e+06
3.49434e+06
3.49428e+06
3.4942e+06
3.49411e+06
3.49398e+06
3.49386e+06
3.4939e+06
3.49394e+06
3.49399e+06
3.49404e+06
3.49408e+06
3.49412e+06
3.49416e+06
3.4942e+06
3.49422e+06
3.49424e+06
3.49426e+06
3.49426e+06
3.49425e+06
3.49423e+06
3.49419e+06
3.49415e+06
3.49408e+06
3.494e+06
3.49391e+06
3.49377e+06
3.49364e+06
3.49368e+06
3.49373e+06
3.49378e+06
3.49383e+06
3.49388e+06
3.49392e+06
3.49397e+06
3.494e+06
3.49403e+06
3.49405e+06
3.49407e+06
3.49407e+06
3.49406e+06
3.49404e+06
3.494e+06
3.49395e+06
3.49389e+06
3.4938e+06
3.49371e+06
3.49357e+06
3.49341e+06
3.49346e+06
3.49352e+06
3.49357e+06
3.49363e+06
3.49368e+06
3.49373e+06
3.49377e+06
3.49381e+06
3.49384e+06
3.49386e+06
3.49388e+06
3.49388e+06
3.49387e+06
3.49385e+06
3.49381e+06
3.49376e+06
3.4937e+06
3.49361e+06
3.49351e+06
3.49337e+06
3.49318e+06
3.49324e+06
3.4933e+06
3.49336e+06
3.49342e+06
3.49348e+06
3.49353e+06
3.49358e+06
3.49362e+06
3.49365e+06
3.49368e+06
3.49369e+06
3.49369e+06
3.49369e+06
3.49366e+06
3.49363e+06
3.49357e+06
3.49351e+06
3.49341e+06
3.49331e+06
3.49316e+06
3.49296e+06
3.49302e+06
3.49309e+06
3.49316e+06
3.49322e+06
3.49328e+06
3.49334e+06
3.49339e+06
3.49343e+06
3.49346e+06
3.49349e+06
3.49351e+06
3.49351e+06
3.4935e+06
3.49348e+06
3.49344e+06
3.49339e+06
3.49332e+06
3.49322e+06
3.49312e+06
3.49297e+06
3.49273e+06
3.4928e+06
3.49288e+06
3.49295e+06
3.49302e+06
3.49308e+06
3.49314e+06
3.49319e+06
3.49324e+06
3.49328e+06
3.4933e+06
3.49332e+06
3.49333e+06
3.49332e+06
3.49329e+06
3.49326e+06
3.4932e+06
3.49313e+06
3.49303e+06
3.49293e+06
3.49277e+06
3.49251e+06
3.49259e+06
3.49267e+06
3.49274e+06
3.49282e+06
3.49289e+06
3.49295e+06
3.49301e+06
3.49305e+06
3.49309e+06
3.49312e+06
3.49314e+06
3.49314e+06
3.49314e+06
3.49311e+06
3.49307e+06
3.49302e+06
3.49294e+06
3.49284e+06
3.49274e+06
3.49257e+06
3.49228e+06
3.49237e+06
3.49246e+06
3.49254e+06
3.49262e+06
3.49269e+06
3.49276e+06
3.49282e+06
3.49287e+06
3.49291e+06
3.49294e+06
3.49296e+06
3.49296e+06
3.49296e+06
3.49293e+06
3.49289e+06
3.49283e+06
3.49276e+06
3.49266e+06
3.49255e+06
3.49238e+06
3.49206e+06
3.49215e+06
3.49225e+06
3.49234e+06
3.49242e+06
3.4925e+06
3.49257e+06
3.49263e+06
3.49268e+06
3.49273e+06
3.49276e+06
3.49278e+06
3.49279e+06
3.49278e+06
3.49275e+06
3.49271e+06
3.49265e+06
3.49258e+06
3.49247e+06
3.49236e+06
3.49219e+06
3.49184e+06
3.49194e+06
3.49204e+06
3.49214e+06
3.49223e+06
3.49231e+06
3.49238e+06
3.49245e+06
3.4925e+06
3.49255e+06
3.49258e+06
3.4926e+06
3.49261e+06
3.4926e+06
3.49258e+06
3.49254e+06
3.49248e+06
3.4924e+06
3.49229e+06
3.49217e+06
3.492e+06
3.49162e+06
3.49173e+06
3.49184e+06
3.49194e+06
3.49203e+06
3.49212e+06
3.4922e+06
3.49226e+06
3.49232e+06
3.49237e+06
3.4924e+06
3.49243e+06
3.49243e+06
3.49243e+06
3.4924e+06
3.49236e+06
3.4923e+06
3.49222e+06
3.49211e+06
3.49199e+06
3.49181e+06
3.4914e+06
3.49152e+06
3.49163e+06
3.49174e+06
3.49184e+06
3.49193e+06
3.49201e+06
3.49208e+06
3.49214e+06
3.49219e+06
3.49223e+06
3.49225e+06
3.49226e+06
3.49225e+06
3.49223e+06
3.49219e+06
3.49212e+06
3.49204e+06
3.49193e+06
3.49181e+06
3.49162e+06
3.49118e+06
3.49131e+06
3.49143e+06
3.49155e+06
3.49165e+06
3.49174e+06
3.49183e+06
3.4919e+06
3.49197e+06
3.49202e+06
3.49206e+06
3.49208e+06
3.49209e+06
3.49208e+06
3.49206e+06
3.49202e+06
3.49195e+06
3.49187e+06
3.49175e+06
3.49163e+06
3.49144e+06
3.49097e+06
3.49111e+06
3.49123e+06
3.49135e+06
3.49146e+06
3.49156e+06
3.49165e+06
3.49173e+06
3.49179e+06
3.49185e+06
3.49189e+06
3.49191e+06
3.49192e+06
3.49191e+06
3.49189e+06
3.49185e+06
3.49178e+06
3.4917e+06
3.49158e+06
3.49145e+06
3.49126e+06
3.49076e+06
3.4909e+06
3.49104e+06
3.49116e+06
3.49128e+06
3.49138e+06
3.49147e+06
3.49155e+06
3.49162e+06
3.49168e+06
3.49172e+06
3.49174e+06
3.49175e+06
3.49175e+06
3.49172e+06
3.49168e+06
3.49161e+06
3.49153e+06
3.49141e+06
3.49128e+06
3.49108e+06
3.49055e+06
3.49071e+06
3.49085e+06
3.49098e+06
3.49109e+06
3.4912e+06
3.4913e+06
3.49138e+06
3.49145e+06
3.49151e+06
3.49155e+06
3.49158e+06
3.49159e+06
3.49158e+06
3.49156e+06
3.49151e+06
3.49145e+06
3.49136e+06
3.49124e+06
3.49111e+06
3.4909e+06
3.49035e+06
3.49051e+06
3.49066e+06
3.49079e+06
3.49091e+06
3.49102e+06
3.49112e+06
3.49121e+06
3.49128e+06
3.49134e+06
3.49138e+06
3.49141e+06
3.49143e+06
3.49142e+06
3.49139e+06
3.49135e+06
3.49128e+06
3.49119e+06
3.49107e+06
3.49094e+06
3.49073e+06
3.49015e+06
3.49032e+06
3.49047e+06
3.49061e+06
3.49074e+06
3.49085e+06
3.49095e+06
3.49104e+06
3.49112e+06
3.49118e+06
3.49122e+06
3.49125e+06
3.49126e+06
3.49126e+06
3.49123e+06
3.49119e+06
3.49112e+06
3.49103e+06
3.4909e+06
3.49077e+06
3.49056e+06
3.49013e+06
3.49029e+06
3.49043e+06
3.49056e+06
3.49068e+06
3.49078e+06
3.49087e+06
3.49095e+06
3.49101e+06
3.49106e+06
3.49109e+06
3.49111e+06
3.4911e+06
3.49108e+06
3.49103e+06
3.49096e+06
3.49087e+06
3.49074e+06
3.4906e+06
3.49039e+06
3.48994e+06
3.49011e+06
3.49025e+06
3.49039e+06
3.49051e+06
3.49062e+06
3.49071e+06
3.49079e+06
3.49085e+06
3.4909e+06
3.49094e+06
3.49095e+06
3.49094e+06
3.49092e+06
3.49087e+06
3.4908e+06
3.49071e+06
3.49058e+06
3.49044e+06
3.49022e+06
3.48993e+06
3.49008e+06
3.49022e+06
3.49034e+06
3.49045e+06
3.49055e+06
3.49063e+06
3.4907e+06
3.49075e+06
3.49078e+06
3.4908e+06
3.49079e+06
3.49077e+06
3.49072e+06
3.49065e+06
3.49055e+06
3.49042e+06
3.49028e+06
3.49006e+06
3.48976e+06
3.48991e+06
3.49005e+06
3.49018e+06
3.49029e+06
3.49039e+06
3.49048e+06
3.49054e+06
3.49059e+06
3.49063e+06
3.49064e+06
3.49064e+06
3.49061e+06
3.49057e+06
3.49049e+06
3.4904e+06
3.49027e+06
3.49012e+06
3.4899e+06
3.48959e+06
3.48975e+06
3.48989e+06
3.49002e+06
3.49014e+06
3.49024e+06
3.49032e+06
3.49039e+06
3.49044e+06
3.49048e+06
3.49049e+06
3.49049e+06
3.49047e+06
3.49042e+06
3.49034e+06
3.49025e+06
3.49011e+06
3.48997e+06
3.48974e+06
3.48942e+06
3.48958e+06
3.48973e+06
3.48986e+06
3.48998e+06
3.49008e+06
3.49017e+06
3.49024e+06
3.49029e+06
3.49033e+06
3.49035e+06
3.49034e+06
3.49032e+06
3.49027e+06
3.4902e+06
3.4901e+06
3.48996e+06
3.48981e+06
3.48959e+06
3.48926e+06
3.48943e+06
3.48957e+06
3.48971e+06
3.48983e+06
3.48993e+06
3.49002e+06
3.49009e+06
3.49015e+06
3.49018e+06
3.4902e+06
3.4902e+06
3.49017e+06
3.49013e+06
3.49005e+06
3.48995e+06
3.48982e+06
3.48967e+06
3.48943e+06
3.4891e+06
3.48927e+06
3.48942e+06
3.48956e+06
3.48968e+06
3.48978e+06
3.48987e+06
3.48995e+06
3.49e+06
3.49004e+06
3.49006e+06
3.49006e+06
3.49003e+06
3.48998e+06
3.48991e+06
3.48981e+06
3.48967e+06
3.48952e+06
3.48928e+06
3.48895e+06
3.48912e+06
3.48927e+06
3.48941e+06
3.48953e+06
3.48964e+06
3.48973e+06
3.4898e+06
3.48986e+06
3.4899e+06
3.48992e+06
3.48992e+06
3.48989e+06
3.48985e+06
3.48977e+06
3.48967e+06
3.48953e+06
3.48937e+06
3.48914e+06
3.4888e+06
3.48897e+06
3.48912e+06
3.48926e+06
3.48939e+06
3.4895e+06
3.48959e+06
3.48966e+06
3.48972e+06
3.48976e+06
3.48978e+06
3.48978e+06
3.48976e+06
3.48971e+06
3.48963e+06
3.48953e+06
3.48939e+06
3.48923e+06
3.489e+06
3.48865e+06
3.48883e+06
3.48898e+06
3.48912e+06
3.48925e+06
3.48936e+06
3.48945e+06
3.48953e+06
3.48959e+06
3.48963e+06
3.48965e+06
3.48965e+06
3.48962e+06
3.48957e+06
3.4895e+06
3.4894e+06
3.48925e+06
3.4891e+06
3.48885e+06
3.48851e+06
3.48868e+06
3.48884e+06
3.48898e+06
3.48911e+06
3.48922e+06
3.48932e+06
3.48939e+06
3.48945e+06
3.48949e+06
3.48951e+06
3.48951e+06
3.48949e+06
3.48944e+06
3.48937e+06
3.48926e+06
3.48912e+06
3.48896e+06
3.48872e+06
3.48837e+06
3.48855e+06
3.4887e+06
3.48885e+06
3.48897e+06
3.48909e+06
3.48918e+06
3.48926e+06
3.48932e+06
3.48936e+06
3.48938e+06
3.48938e+06
3.48936e+06
3.48931e+06
3.48924e+06
3.48913e+06
3.48899e+06
3.48883e+06
3.48858e+06
3.48824e+06
3.48841e+06
3.48857e+06
3.48871e+06
3.48884e+06
3.48895e+06
3.48905e+06
3.48913e+06
3.48919e+06
3.48924e+06
3.48926e+06
3.48926e+06
3.48923e+06
3.48919e+06
3.48911e+06
3.48901e+06
3.48886e+06
3.4887e+06
3.48845e+06
3.48811e+06
3.48828e+06
3.48844e+06
3.48858e+06
3.48871e+06
3.48883e+06
3.48892e+06
3.489e+06
3.48907e+06
3.48911e+06
3.48913e+06
3.48913e+06
3.48911e+06
3.48906e+06
3.48899e+06
3.48888e+06
3.48874e+06
3.48857e+06
3.48832e+06
3.48798e+06
3.48815e+06
3.48831e+06
3.48846e+06
3.48859e+06
3.4887e+06
3.4888e+06
3.48888e+06
3.48894e+06
3.48899e+06
3.48901e+06
3.48901e+06
3.48899e+06
3.48894e+06
3.48886e+06
3.48876e+06
3.48861e+06
3.48845e+06
3.4882e+06
3.48786e+06
3.48803e+06
3.48819e+06
3.48833e+06
3.48846e+06
3.48858e+06
3.48868e+06
3.48876e+06
3.48882e+06
3.48887e+06
3.48889e+06
3.48889e+06
3.48887e+06
3.48882e+06
3.48875e+06
3.48864e+06
3.4885e+06
3.48833e+06
3.48808e+06
3.48774e+06
3.48791e+06
3.48806e+06
3.48821e+06
3.48834e+06
3.48846e+06
3.48856e+06
3.48864e+06
3.4887e+06
3.48875e+06
3.48878e+06
3.48878e+06
3.48876e+06
3.48871e+06
3.48863e+06
3.48853e+06
3.48838e+06
3.48821e+06
3.48796e+06
3.48762e+06
3.48779e+06
3.48795e+06
3.48809e+06
3.48822e+06
3.48834e+06
3.48844e+06
3.48852e+06
3.48859e+06
3.48864e+06
3.48866e+06
3.48866e+06
3.48864e+06
3.4886e+06
3.48852e+06
3.48841e+06
3.48827e+06
3.4881e+06
3.48785e+06
3.4875e+06
3.48767e+06
3.48783e+06
3.48797e+06
3.4881e+06
3.48822e+06
3.48832e+06
3.48841e+06
3.48848e+06
3.48852e+06
3.48855e+06
3.48855e+06
3.48853e+06
3.48849e+06
3.48841e+06
3.48831e+06
3.48816e+06
3.48799e+06
3.48773e+06
3.48739e+06
3.48756e+06
3.48771e+06
3.48786e+06
3.48799e+06
3.48811e+06
3.48821e+06
3.4883e+06
3.48837e+06
3.48841e+06
3.48844e+06
3.48845e+06
3.48843e+06
3.48838e+06
3.4883e+06
3.4882e+06
3.48805e+06
3.48788e+06
3.48763e+06
3.48728e+06
3.48745e+06
3.4876e+06
3.48775e+06
3.48788e+06
3.488e+06
3.4881e+06
3.48819e+06
3.48826e+06
3.48831e+06
3.48834e+06
3.48834e+06
3.48832e+06
3.48828e+06
3.4882e+06
3.4881e+06
3.48795e+06
3.48778e+06
3.48752e+06
3.48717e+06
3.48734e+06
3.48749e+06
3.48764e+06
3.48777e+06
3.48789e+06
3.48799e+06
3.48808e+06
3.48815e+06
3.4882e+06
3.48823e+06
3.48824e+06
3.48822e+06
3.48818e+06
3.4881e+06
3.488e+06
3.48785e+06
3.48768e+06
3.48742e+06
3.48707e+06
3.48723e+06
3.48739e+06
3.48753e+06
3.48767e+06
3.48779e+06
3.48789e+06
3.48798e+06
3.48805e+06
3.4881e+06
3.48813e+06
3.48814e+06
3.48812e+06
3.48808e+06
3.488e+06
3.4879e+06
3.48775e+06
3.48758e+06
3.48732e+06
3.48696e+06
3.48713e+06
3.48728e+06
3.48743e+06
3.48756e+06
3.48768e+06
3.48779e+06
3.48788e+06
3.48795e+06
3.488e+06
3.48803e+06
3.48804e+06
3.48802e+06
3.48798e+06
3.48791e+06
3.4878e+06
3.48766e+06
3.48749e+06
3.48723e+06
3.48686e+06
3.48703e+06
3.48718e+06
3.48733e+06
3.48746e+06
3.48758e+06
3.48769e+06
3.48778e+06
3.48785e+06
3.48791e+06
3.48794e+06
3.48795e+06
3.48793e+06
3.48789e+06
3.48781e+06
3.48771e+06
3.48756e+06
3.4874e+06
3.48714e+06
3.48676e+06
3.48692e+06
3.48708e+06
3.48723e+06
3.48736e+06
3.48748e+06
3.48759e+06
3.48768e+06
3.48776e+06
3.48781e+06
3.48785e+06
3.48786e+06
3.48784e+06
3.4878e+06
3.48773e+06
3.48762e+06
3.48748e+06
3.48731e+06
3.48705e+06
3.48666e+06
3.48683e+06
3.48698e+06
3.48713e+06
3.48726e+06
3.48739e+06
3.4875e+06
3.48759e+06
3.48767e+06
3.48772e+06
3.48776e+06
3.48777e+06
3.48775e+06
3.48771e+06
3.48764e+06
3.48754e+06
3.48739e+06
3.48723e+06
3.48697e+06
3.48657e+06
3.48673e+06
3.48688e+06
3.48703e+06
3.48717e+06
3.48729e+06
3.4874e+06
3.4875e+06
3.48758e+06
3.48763e+06
3.48767e+06
3.48768e+06
3.48767e+06
3.48763e+06
3.48756e+06
3.48746e+06
3.48731e+06
3.48715e+06
3.48689e+06
3.48647e+06
3.48663e+06
3.48679e+06
3.48694e+06
3.48708e+06
3.4872e+06
3.48731e+06
3.48741e+06
3.48749e+06
3.48755e+06
3.48759e+06
3.4876e+06
3.48759e+06
3.48755e+06
3.48748e+06
3.48738e+06
3.48723e+06
3.48707e+06
3.48681e+06
3.48638e+06
3.48654e+06
3.4867e+06
3.48685e+06
3.48699e+06
3.48711e+06
3.48723e+06
3.48732e+06
3.4874e+06
3.48747e+06
3.4875e+06
3.48752e+06
3.48751e+06
3.48747e+06
3.4874e+06
3.4873e+06
3.48716e+06
3.487e+06
3.48674e+06
3.48628e+06
3.48645e+06
3.4866e+06
3.48676e+06
3.4869e+06
3.48703e+06
3.48714e+06
3.48724e+06
3.48732e+06
3.48739e+06
3.48743e+06
3.48744e+06
3.48743e+06
3.4874e+06
3.48733e+06
3.48723e+06
3.48709e+06
3.48693e+06
3.48667e+06
3.48619e+06
3.48635e+06
3.48651e+06
3.48667e+06
3.48681e+06
3.48694e+06
3.48706e+06
3.48716e+06
3.48724e+06
3.48731e+06
3.48735e+06
3.48737e+06
3.48736e+06
3.48733e+06
3.48726e+06
3.48716e+06
3.48702e+06
3.48686e+06
3.48661e+06
3.4861e+06
3.48626e+06
3.48643e+06
3.48658e+06
3.48673e+06
3.48686e+06
3.48698e+06
3.48708e+06
3.48717e+06
3.48723e+06
3.48728e+06
3.4873e+06
3.48729e+06
3.48726e+06
3.48719e+06
3.4871e+06
3.48696e+06
3.4868e+06
3.48654e+06
3.486e+06
3.48617e+06
3.48634e+06
3.4865e+06
3.48664e+06
3.48678e+06
3.4869e+06
3.48701e+06
3.48709e+06
3.48716e+06
3.48721e+06
3.48723e+06
3.48722e+06
3.48719e+06
3.48713e+06
3.48703e+06
3.4869e+06
3.48674e+06
3.48649e+06
3.48591e+06
3.48609e+06
3.48625e+06
3.48641e+06
3.48656e+06
3.4867e+06
3.48683e+06
3.48693e+06
3.48702e+06
3.48709e+06
3.48714e+06
3.48716e+06
3.48716e+06
3.48713e+06
3.48707e+06
3.48697e+06
3.48684e+06
3.48668e+06
3.48643e+06
3.48582e+06
3.486e+06
3.48617e+06
3.48633e+06
3.48649e+06
3.48663e+06
3.48675e+06
3.48686e+06
3.48695e+06
3.48702e+06
3.48573e+06
3.48591e+06
3.48609e+06
3.48625e+06
3.48641e+06
3.48655e+06
3.48668e+06
3.49957e+06
3.49905e+06
3.49902e+06
3.49982e+06
3.49988e+06
3.4999e+06
3.49991e+06
3.49991e+06
3.49991e+06
3.49991e+06
3.49991e+06
3.49991e+06
3.49991e+06
3.49991e+06
3.49991e+06
3.49991e+06
3.49991e+06
3.4999e+06
3.4999e+06
3.49989e+06
3.49989e+06
3.49938e+06
3.49893e+06
3.49909e+06
3.4996e+06
3.49966e+06
3.49969e+06
3.4997e+06
3.49971e+06
3.49971e+06
3.49971e+06
3.49971e+06
3.49971e+06
3.49971e+06
3.49971e+06
3.49971e+06
3.49971e+06
3.4997e+06
3.4997e+06
3.49969e+06
3.49968e+06
3.49967e+06
3.49925e+06
3.49899e+06
3.49907e+06
3.49937e+06
3.49942e+06
3.49946e+06
3.49948e+06
3.49949e+06
3.4995e+06
3.4995e+06
3.4995e+06
3.4995e+06
3.4995e+06
3.4995e+06
3.4995e+06
3.4995e+06
3.49949e+06
3.49948e+06
3.49947e+06
3.49946e+06
3.49944e+06
3.49907e+06
3.49891e+06
3.49895e+06
3.49915e+06
3.4992e+06
3.49924e+06
3.49926e+06
3.49928e+06
3.49928e+06
3.49929e+06
3.49929e+06
3.4993e+06
3.4993e+06
3.49929e+06
3.49929e+06
3.49928e+06
3.49928e+06
3.49927e+06
3.49925e+06
3.49924e+06
3.49922e+06
3.49889e+06
3.49878e+06
3.4988e+06
3.49894e+06
3.49898e+06
3.49903e+06
3.49905e+06
3.49906e+06
3.49907e+06
3.49908e+06
3.49908e+06
3.49909e+06
3.49909e+06
3.49908e+06
3.49908e+06
3.49907e+06
3.49906e+06
3.49905e+06
3.49903e+06
3.49902e+06
3.49899e+06
3.49871e+06
3.49863e+06
3.49864e+06
3.49874e+06
3.49877e+06
3.49881e+06
3.49884e+06
3.49885e+06
3.49886e+06
3.49887e+06
3.49888e+06
3.49888e+06
3.49888e+06
3.49888e+06
3.49887e+06
3.49886e+06
3.49885e+06
3.49884e+06
3.49882e+06
3.4988e+06
3.49877e+06
3.49853e+06
3.49847e+06
3.49847e+06
3.49854e+06
3.49857e+06
3.4986e+06
3.49862e+06
3.49864e+06
3.49865e+06
3.49866e+06
3.49867e+06
3.49867e+06
3.49867e+06
3.49867e+06
3.49866e+06
3.49865e+06
3.49864e+06
3.49862e+06
3.4986e+06
3.49858e+06
3.49855e+06
3.49834e+06
3.49829e+06
3.49829e+06
3.49834e+06
3.49836e+06
3.49839e+06
3.49841e+06
3.49843e+06
3.49844e+06
3.49845e+06
3.49846e+06
3.49846e+06
3.49846e+06
3.49846e+06
3.49845e+06
3.49844e+06
3.49843e+06
3.49841e+06
3.49838e+06
3.49836e+06
3.49832e+06
3.49815e+06
3.49811e+06
3.49811e+06
3.49814e+06
3.49816e+06
3.49819e+06
3.49821e+06
3.49822e+06
3.49824e+06
3.49825e+06
3.49825e+06
3.49826e+06
3.49826e+06
3.49825e+06
3.49824e+06
3.49823e+06
3.49822e+06
3.4982e+06
3.49817e+06
3.49814e+06
3.4981e+06
3.49796e+06
3.49792e+06
3.49792e+06
3.49794e+06
3.49795e+06
3.49798e+06
3.498e+06
3.49801e+06
3.49803e+06
3.49804e+06
3.49804e+06
3.49805e+06
3.49805e+06
3.49804e+06
3.49804e+06
3.49802e+06
3.49801e+06
3.49798e+06
3.49795e+06
3.49792e+06
3.49788e+06
3.49776e+06
3.49773e+06
3.49772e+06
3.49774e+06
3.49775e+06
3.49777e+06
3.49779e+06
3.49781e+06
3.49782e+06
3.49783e+06
3.49784e+06
3.49784e+06
3.49784e+06
3.49784e+06
3.49783e+06
3.49781e+06
3.49779e+06
3.49777e+06
3.49774e+06
3.4977e+06
3.49765e+06
3.49756e+06
3.49753e+06
3.49752e+06
3.49753e+06
3.49755e+06
3.49757e+06
3.49758e+06
3.4976e+06
3.49761e+06
3.49762e+06
3.49763e+06
3.49764e+06
3.49764e+06
3.49763e+06
3.49762e+06
3.49761e+06
3.49758e+06
3.49756e+06
3.49752e+06
3.49748e+06
3.49743e+06
3.49735e+06
3.49733e+06
3.49732e+06
3.49733e+06
3.49734e+06
3.49736e+06
3.49738e+06
3.49739e+06
3.49741e+06
3.49742e+06
3.49743e+06
3.49743e+06
3.49743e+06
3.49743e+06
3.49742e+06
3.4974e+06
3.49738e+06
3.49735e+06
3.49731e+06
3.49727e+06
3.49721e+06
3.49714e+06
3.49713e+06
3.49712e+06
3.49713e+06
3.49714e+06
3.49715e+06
3.49717e+06
3.49719e+06
3.4972e+06
3.49721e+06
3.49722e+06
3.49723e+06
3.49723e+06
3.49722e+06
3.49721e+06
3.49719e+06
3.49717e+06
3.49714e+06
3.49709e+06
3.49705e+06
3.49699e+06
3.49694e+06
3.49692e+06
3.49691e+06
3.49692e+06
3.49693e+06
3.49695e+06
3.49697e+06
3.49698e+06
3.497e+06
3.49701e+06
3.49702e+06
3.49702e+06
3.49702e+06
3.49702e+06
3.497e+06
3.49699e+06
3.49696e+06
3.49693e+06
3.49688e+06
3.49683e+06
3.49677e+06
3.49673e+06
3.49671e+06
3.49671e+06
3.49671e+06
3.49673e+06
3.49674e+06
3.49676e+06
3.49678e+06
3.49679e+06
3.49681e+06
3.49681e+06
3.49682e+06
3.49682e+06
3.49681e+06
3.4968e+06
3.49678e+06
3.49675e+06
3.49672e+06
3.49667e+06
3.49662e+06
3.49655e+06
3.49651e+06
3.4965e+06
3.4965e+06
3.49651e+06
3.49652e+06
3.49654e+06
3.49655e+06
3.49657e+06
3.49659e+06
3.4966e+06
3.49661e+06
3.49662e+06
3.49662e+06
3.49661e+06
3.4966e+06
3.49657e+06
3.49655e+06
3.49651e+06
3.49646e+06
3.4964e+06
3.49633e+06
3.4963e+06
3.49629e+06
3.49629e+06
3.4963e+06
3.49631e+06
3.49633e+06
3.49635e+06
3.49637e+06
3.49639e+06
3.4964e+06
3.49641e+06
3.49641e+06
3.49641e+06
3.49641e+06
3.49639e+06
3.49637e+06
3.49634e+06
3.4963e+06
3.49625e+06
3.49619e+06
3.49611e+06
3.49608e+06
3.49608e+06
3.49608e+06
3.49609e+06
3.49611e+06
3.49612e+06
3.49614e+06
3.49616e+06
3.49618e+06
3.4962e+06
3.49621e+06
3.49621e+06
3.49621e+06
3.49621e+06
3.49619e+06
3.49617e+06
3.49613e+06
3.49609e+06
3.49604e+06
3.49598e+06
3.49589e+06
3.49587e+06
3.49586e+06
3.49587e+06
3.49588e+06
3.4959e+06
3.49592e+06
3.49594e+06
3.49596e+06
3.49598e+06
3.496e+06
3.49601e+06
3.49601e+06
3.49601e+06
3.49601e+06
3.49599e+06
3.49597e+06
3.49593e+06
3.49589e+06
3.49583e+06
3.49577e+06
3.49567e+06
3.49565e+06
3.49565e+06
3.49566e+06
3.49567e+06
3.49569e+06
3.49571e+06
3.49574e+06
3.49576e+06
3.49578e+06
3.4958e+06
3.49581e+06
3.49581e+06
3.49581e+06
3.49581e+06
3.49579e+06
3.49576e+06
3.49573e+06
3.49568e+06
3.49562e+06
3.49555e+06
3.49546e+06
3.49543e+06
3.49543e+06
3.49544e+06
3.49546e+06
3.49548e+06
3.49551e+06
3.49553e+06
3.49556e+06
3.49558e+06
3.4956e+06
3.49561e+06
3.49562e+06
3.49562e+06
3.49561e+06
3.49559e+06
3.49556e+06
3.49553e+06
3.49548e+06
3.49541e+06
3.49534e+06
3.49524e+06
3.49521e+06
3.49522e+06
3.49523e+06
3.49525e+06
3.49528e+06
3.4953e+06
3.49533e+06
3.49536e+06
3.49538e+06
3.4954e+06
3.49541e+06
3.49542e+06
3.49542e+06
3.49541e+06
3.49539e+06
3.49536e+06
3.49532e+06
3.49528e+06
3.49521e+06
3.49514e+06
3.49503e+06
3.49499e+06
3.495e+06
3.49502e+06
3.49504e+06
3.49507e+06
3.4951e+06
3.49513e+06
3.49515e+06
3.49518e+06
3.4952e+06
3.49521e+06
3.49522e+06
3.49522e+06
3.49521e+06
3.4952e+06
3.49517e+06
3.49513e+06
3.49507e+06
3.495e+06
3.49493e+06
3.49482e+06
3.49476e+06
3.49478e+06
3.4948e+06
3.49483e+06
3.49486e+06
3.49489e+06
3.49492e+06
3.49495e+06
3.49498e+06
3.495e+06
3.49502e+06
3.49503e+06
3.49503e+06
3.49502e+06
3.495e+06
3.49497e+06
3.49493e+06
3.49487e+06
3.4948e+06
3.49472e+06
3.4946e+06
3.49454e+06
3.49456e+06
3.49459e+06
3.49462e+06
3.49465e+06
3.49469e+06
3.49472e+06
3.49475e+06
3.49478e+06
3.49481e+06
3.49482e+06
3.49483e+06
3.49483e+06
3.49482e+06
3.4948e+06
3.49477e+06
3.49473e+06
3.49467e+06
3.4946e+06
3.49452e+06
3.49439e+06
3.49431e+06
3.49434e+06
3.49437e+06
3.49441e+06
3.49445e+06
3.49449e+06
3.49452e+06
3.49456e+06
3.49459e+06
3.49461e+06
3.49463e+06
3.49464e+06
3.49464e+06
3.49463e+06
3.49461e+06
3.49458e+06
3.49453e+06
3.49448e+06
3.4944e+06
3.49431e+06
3.49419e+06
3.49409e+06
3.49412e+06
3.49416e+06
3.4942e+06
3.49424e+06
3.49428e+06
3.49432e+06
3.49436e+06
3.49439e+06
3.49442e+06
3.49444e+06
3.49445e+06
3.49445e+06
3.49444e+06
3.49442e+06
3.49439e+06
3.49434e+06
3.49428e+06
3.4942e+06
3.49411e+06
3.49398e+06
3.49386e+06
3.4939e+06
3.49394e+06
3.49399e+06
3.49404e+06
3.49408e+06
3.49412e+06
3.49416e+06
3.4942e+06
3.49422e+06
3.49424e+06
3.49426e+06
3.49426e+06
3.49425e+06
3.49423e+06
3.49419e+06
3.49415e+06
3.49408e+06
3.494e+06
3.49391e+06
3.49377e+06
3.49364e+06
3.49368e+06
3.49373e+06
3.49378e+06
3.49383e+06
3.49388e+06
3.49392e+06
3.49397e+06
3.494e+06
3.49403e+06
3.49405e+06
3.49407e+06
3.49407e+06
3.49406e+06
3.49404e+06
3.494e+06
3.49395e+06
3.49389e+06
3.4938e+06
3.49371e+06
3.49357e+06
3.49341e+06
3.49346e+06
3.49352e+06
3.49357e+06
3.49363e+06
3.49368e+06
3.49373e+06
3.49377e+06
3.49381e+06
3.49384e+06
3.49386e+06
3.49388e+06
3.49388e+06
3.49387e+06
3.49385e+06
3.49381e+06
3.49376e+06
3.4937e+06
3.49361e+06
3.49351e+06
3.49337e+06
3.49318e+06
3.49324e+06
3.4933e+06
3.49336e+06
3.49342e+06
3.49348e+06
3.49353e+06
3.49358e+06
3.49362e+06
3.49365e+06
3.49368e+06
3.49369e+06
3.49369e+06
3.49369e+06
3.49366e+06
3.49363e+06
3.49357e+06
3.49351e+06
3.49341e+06
3.49331e+06
3.49316e+06
3.49296e+06
3.49302e+06
3.49309e+06
3.49316e+06
3.49322e+06
3.49328e+06
3.49334e+06
3.49339e+06
3.49343e+06
3.49346e+06
3.49349e+06
3.49351e+06
3.49351e+06
3.4935e+06
3.49348e+06
3.49344e+06
3.49339e+06
3.49332e+06
3.49322e+06
3.49312e+06
3.49297e+06
3.49273e+06
3.4928e+06
3.49288e+06
3.49295e+06
3.49302e+06
3.49308e+06
3.49314e+06
3.49319e+06
3.49324e+06
3.49328e+06
3.4933e+06
3.49332e+06
3.49333e+06
3.49332e+06
3.49329e+06
3.49326e+06
3.4932e+06
3.49313e+06
3.49303e+06
3.49293e+06
3.49277e+06
3.49251e+06
3.49259e+06
3.49267e+06
3.49274e+06
3.49282e+06
3.49289e+06
3.49295e+06
3.49301e+06
3.49305e+06
3.49309e+06
3.49312e+06
3.49314e+06
3.49314e+06
3.49314e+06
3.49311e+06
3.49307e+06
3.49302e+06
3.49294e+06
3.49284e+06
3.49274e+06
3.49257e+06
3.49228e+06
3.49237e+06
3.49246e+06
3.49254e+06
3.49262e+06
3.49269e+06
3.49276e+06
3.49282e+06
3.49287e+06
3.49291e+06
3.49294e+06
3.49296e+06
3.49296e+06
3.49296e+06
3.49293e+06
3.49289e+06
3.49283e+06
3.49276e+06
3.49266e+06
3.49255e+06
3.49238e+06
3.49206e+06
3.49215e+06
3.49225e+06
3.49234e+06
3.49242e+06
3.4925e+06
3.49257e+06
3.49263e+06
3.49268e+06
3.49273e+06
3.49276e+06
3.49278e+06
3.49279e+06
3.49278e+06
3.49275e+06
3.49271e+06
3.49265e+06
3.49258e+06
3.49247e+06
3.49236e+06
3.49219e+06
3.49184e+06
3.49194e+06
3.49204e+06
3.49214e+06
3.49223e+06