/*--------------------------------*- C++ -*----------------------------------*\
| =========                 |                                                 |
| \\      /  F ield         | OpenFOAM: The Open Source CFD Toolbox           |
|  \\    /   O peration     | Version:  v2012                                 |
|   \\  /    A nd           | Website:  www.openfoam.com                      |
|    \\/     M anipulation  |                                                 |
\*---------------------------------------------------------------------------*/
FoamFile
{
    version     2.0;
    format      ascii;
    class       volScalarField;
    location    "0.6";
    object      alpha.water;
}
// * * * * * * * * * * * * * * * * * * * * * * * * * * * * * * * * * * * * * //

dimensions      [0 0 0 0 0 0 0];


internalField   nonuniform List<scalar> 
2664
(
2.82649e-17
2.31941e-17
1.88036e-17
1.50456e-17
1.18998e-17
9.32618e-18
7.22114e-18
5.65247e-18
4.69589e-18
3.87224e-18
2.52339e-18
8.15995e-19
6.93637e-20
9.62035e-22
2.96837e-24
4.97029e-27
6.3388e-30
6.5886e-33
5.54355e-36
3.81411e-39
2.11929e-42
9.45937e-46
3.43871e-49
9.92204e-53
2.28649e-56
4.13027e-60
5.69426e-64
6.05246e-68
4.63017e-72
-3.14406e-73
-9.13505e-75
-1.14758e-76
-9.88511e-79
-7.16051e-81
-2.16608e-83
-1.9564e-86
-3.08226e-90
3.32801e-17
2.70119e-17
2.16753e-17
1.71749e-17
1.34364e-17
1.04093e-17
7.97269e-18
6.10045e-18
4.93516e-18
4.1226e-18
2.96362e-18
1.23464e-18
1.62276e-19
3.83013e-21
1.66685e-23
3.16619e-26
4.35696e-29
4.83735e-32
4.3285e-35
3.15528e-38
1.85036e-41
8.68189e-45
3.30102e-48
9.92395e-52
2.37378e-55
4.43591e-59
6.41641e-63
7.12077e-67
5.88368e-71
3.52837e-75
1.43649e-79
-7.94816e-82
-3.0854e-83
-7.12603e-85
-5.31713e-87
-8.81147e-90
-1.82241e-93
3.92642e-17
3.14986e-17
2.49761e-17
1.95747e-17
1.51457e-17
1.15924e-17
8.78111e-18
6.60101e-18
5.18918e-18
4.32698e-18
3.31033e-18
1.66242e-18
3.10444e-19
1.17569e-20
7.46916e-23
1.64112e-25
2.43116e-28
2.86821e-31
2.71505e-34
2.0863e-37
1.285e-40
6.30808e-44
2.49716e-47
7.78703e-51
1.92487e-54
3.70302e-58
5.49271e-62
6.22654e-66
5.23641e-70
3.21125e-74
1.39744e-78
4.11496e-83
4.11329e-88
-7.11371e-89
-1.24496e-90
-3.62235e-93
-9.08873e-97
4.63563e-17
3.67743e-17
2.87841e-17
2.22766e-17
1.70341e-17
1.28768e-17
9.63949e-18
7.14147e-18
5.46366e-18
4.50444e-18
3.57939e-18
2.05988e-18
5.08827e-19
2.89403e-20
2.69532e-22
6.99731e-25
1.11372e-27
1.38774e-30
1.38098e-33
1.11194e-36
7.15212e-40
3.6533e-43
1.49792e-46
4.82048e-50
1.22526e-53
2.41475e-57
3.6554e-61
4.21257e-65
3.58709e-69
2.21819e-73
9.69112e-78
2.86319e-82
5.40888e-87
5.3003e-92
-2.70861e-94
-1.46797e-96
-4.17524e-100
5.46614e-17
4.29317e-17
3.31757e-17
2.53195e-17
1.91086e-17
1.42594e-17
1.0541e-17
7.70777e-18
5.75677e-18
4.66609e-18
3.78921e-18
2.40627e-18
7.41277e-19
5.93892e-20
7.95165e-22
2.48442e-24
4.24388e-27
5.55161e-30
5.77098e-33
4.83933e-36
3.23168e-39
1.708e-42
7.2176e-46
2.38393e-49
6.19802e-53
1.24495e-56
1.91359e-60
2.23063e-64
1.91357e-68
1.18713e-72
5.17995e-77
1.52083e-81
2.83863e-86
3.11833e-91
1.6851e-96
-3.94181e-100
-1.7767e-103
6.42902e-17
5.00252e-17
3.82029e-17
2.87394e-17
2.13768e-17
1.57332e-17
1.14765e-17
8.28569e-18
6.06067e-18
4.81696e-18
3.95494e-18
2.69579e-18
9.87408e-19
1.05136e-19
1.95583e-21
7.43148e-24
1.36121e-26
1.85818e-29
2.00486e-32
1.74003e-35
1.19915e-38
6.51933e-42
2.82399e-45
9.52177e-49
2.5184e-52
5.12773e-56
7.96021e-60
9.33597e-64
8.02557e-68
4.96786e-72
2.15275e-76
6.2435e-81
1.144e-85
1.22409e-90
6.62745e-96
1.41088e-101
-1.3331e-118
7.54144e-17
5.80955e-17
4.38807e-17
3.25533e-17
2.38416e-17
1.72871e-17
1.24328e-17
8.86025e-18
6.36309e-18
4.95688e-18
4.08687e-18
2.93135e-18
1.22886e-18
1.65251e-19
4.10048e-21
1.89484e-23
3.71658e-26
5.26271e-29
5.85558e-32
5.22668e-35
3.69426e-38
2.0535e-41
9.06448e-45
3.10229e-48
8.30011e-52
1.70345e-55
2.65568e-59
3.11601e-63
2.66886e-67
1.63871e-71
7.00898e-76
1.99485e-80
3.56221e-85
3.68091e-90
1.90027e-95
3.84518e-101
1.59111e-107
8.82755e-17
6.72056e-17
5.0197e-17
3.67489e-17
2.6493e-17
1.8904e-17
1.33923e-17
9.41483e-18
6.64866e-18
5.08105e-18
4.19059e-18
3.11942e-18
1.45253e-18
2.36138e-19
7.4919e-21
4.16863e-23
8.73265e-26
1.27504e-28
1.45367e-31
1.32597e-34
9.55156e-38
5.3946e-41
2.41163e-44
8.32784e-48
2.24045e-51
4.60712e-55
7.16988e-59
8.36533e-63
7.09455e-67
4.29337e-71
1.80027e-75
4.99135e-80
8.61503e-85
8.51321e-90
4.14255e-95
7.73375e-101
2.88874e-107
1.03139e-16
7.74467e-17
5.71311e-17
4.12837e-17
2.93005e-17
2.05575e-17
1.43311e-17
9.93031e-18
6.90075e-18
5.18132e-18
4.26819e-18
3.2671e-18
1.65106e-18
3.12696e-19
1.21763e-20
8.01321e-23
1.78454e-25
2.67055e-28
3.10018e-31
2.87155e-34
2.0948e-37
1.19451e-40
5.37393e-44
1.86083e-47
5.00277e-51
1.0243e-54
1.58121e-58
1.82263e-62
1.52041e-66
9.00516e-71
3.67418e-75
9.84176e-80
1.62586e-84
1.51852e-89
6.86581e-95
1.15945e-100
3.95513e-107
1.20235e-16
8.89053e-17
6.46579e-17
4.60919e-17
3.22095e-17
2.22078e-17
1.52188e-17
1.03848e-17
7.10388e-18
5.24944e-18
4.32063e-18
3.38106e-18
1.82179e-18
3.89654e-19
1.79277e-20
1.36341e-22
3.20501e-25
4.8855e-28
5.73904e-31
5.3643e-34
3.93805e-37
2.25283e-40
1.01344e-43
3.4968e-47
9.33491e-51
1.89079e-54
2.87615e-58
3.25317e-62
2.65035e-66
1.5248e-70
6.0038e-75
1.53935e-79
2.40671e-84
2.09566e-89
8.64278e-95
1.28972e-100
3.41203e-107
1.39719e-16
1.01616e-16
7.27292e-17
5.1085e-17
3.51409e-17
2.37997e-17
1.60181e-17
1.07551e-17
7.24627e-18
5.28338e-18
4.35037e-18
3.46725e-18
1.96511e-18
4.62606e-19
2.43052e-20
2.08192e-22
5.11747e-25
7.89383e-28
9.32435e-31
8.73921e-34
6.41484e-37
3.65774e-40
1.63461e-43
5.58408e-47
1.47061e-50
2.92723e-54
4.3578e-58
4.80248e-62
3.79269e-66
2.10212e-70
7.91404e-75
1.92136e-79
2.80691e-84
2.24359e-89
8.25078e-95
1.05503e-100
1.85938e-107
1.6163e-16
1.15516e-16
8.1243e-17
5.6143e-17
3.79903e-17
2.52619e-17
1.66866e-17
1.10205e-17
7.32405e-18
5.29251e-18
4.36185e-18
3.52969e-18
2.08194e-18
5.28267e-19
3.07796e-20
2.89555e-22
7.36284e-25
1.14161e-27
1.34733e-30
1.25795e-33
9.17066e-37
5.17651e-40
2.28232e-43
7.66699e-47
1.97829e-50
3.84239e-54
5.5563e-58
5.91836e-62
4.49169e-66
2.37702e-70
8.47324e-75
1.92463e-79
2.58861e-84
1.86163e-89
5.94714e-95
6.20723e-101
7.18906e-108
1.85867e-16
1.30406e-16
9.00119e-17
6.11003e-17
4.06264e-17
2.65113e-17
1.71844e-17
1.11726e-17
7.34878e-18
5.28646e-18
4.36209e-18
3.56912e-18
2.16934e-18
5.82351e-19
3.66524e-20
3.69655e-22
9.62189e-25
1.4915e-27
1.74987e-30
1.61854e-33
1.16466e-36
6.46403e-40
2.79148e-43
9.15273e-47
2.29565e-50
4.31631e-54
6.01782e-58
6.1501e-62
4.45113e-66
2.22818e-70
7.43575e-75
1.55835e-79
1.89675e-84
1.19847e-89
3.20524e-95
2.57311e-101
-3.31766e-106
2.1216e-16
1.45921e-16
9.87358e-17
6.57344e-17
4.28959e-17
2.74654e-17
1.74894e-17
1.12268e-17
7.3444e-18
5.25623e-18
4.34904e-18
3.58421e-18
2.21806e-18
6.15627e-19
4.05348e-20
4.25385e-22
1.12003e-24
1.73024e-27
2.01368e-30
1.84021e-33
1.30298e-36
7.08733e-40
2.98773e-43
9.52863e-47
2.31463e-50
4.19366e-54
5.60091e-58
5.44829e-62
3.72506e-66
1.74534e-70
5.38181e-75
1.0246e-79
1.1046e-84
5.96136e-90
1.27738e-95
7.35758e-102
-6.95876e-106
2.39995e-16
1.61509e-16
1.06989e-16
6.97706e-17
4.46456e-17
2.80704e-17
1.76181e-17
1.12285e-17
7.26261e-18
5.18812e-18
4.31846e-18
3.58177e-18
2.22908e-18
6.23413e-19
4.1398e-20
4.36455e-22
1.14575e-24
1.75861e-27
2.02883e-30
1.83176e-33
1.27568e-36
6.79072e-40
2.78754e-43
8.61666e-47
2.01778e-50
3.50426e-54
4.45886e-58
4.10287e-62
2.63022e-66
1.14248e-70
3.21485e-75
5.46531e-80
5.10165e-85
2.26958e-90
3.72196e-96
1.4261e-102
-8.42872e-106
2.68441e-16
1.76413e-16
1.14239e-16
7.29206e-17
4.57727e-17
2.83424e-17
1.76383e-17
1.1073e-17
7.08605e-18
5.08463e-18
4.2724e-18
3.56038e-18
2.21289e-18
6.11516e-19
3.96201e-20
4.04615e-22
1.03867e-24
1.57041e-27
1.78305e-30
1.57904e-33
1.07424e-36
5.56274e-40
2.21246e-43
6.6002e-47
1.48415e-50
2.46111e-54
2.97092e-58
2.57323e-62
1.53726e-66
6.13555e-71
1.55702e-75
2.32241e-80
1.82849e-85
6.42647e-91
7.41585e-97
9.90461e-104
-8.9169e-106
2.96019e-16
1.89665e-16
1.19931e-16
7.49733e-17
4.62972e-17
2.83967e-17
1.73924e-17
1.0739e-17
6.81388e-18
4.94992e-18
4.21336e-18
3.51717e-18
2.15424e-18
5.72021e-19
3.46716e-20
3.28691e-22
8.09229e-25
1.1969e-27
1.33045e-30
1.14945e-33
7.59557e-37
3.80369e-40
1.45782e-43
4.1725e-47
8.95796e-51
1.41039e-54
1.60584e-58
1.30088e-62
7.18603e-67
2.60961e-71
5.88595e-76
7.56262e-81
4.87224e-86
1.2635e-91
9.94485e-98
-3.61358e-102
-8.12534e-106
3.20688e-16
2.00181e-16
1.23656e-16
7.59403e-17
4.64137e-17
2.80019e-17
1.68312e-17
1.0215e-17
6.45911e-18
4.79659e-18
4.14463e-18
3.44913e-18
2.04717e-18
5.05025e-19
2.72943e-20
2.29749e-22
5.32991e-25
7.65981e-28
8.28697e-31
6.94123e-34
4.42592e-37
2.12885e-40
7.80958e-44
2.12948e-47
4.33364e-51
6.42979e-55
6.84931e-59
5.14374e-63
2.5975e-67
8.45842e-72
1.66643e-76
1.79431e-81
9.04718e-87
1.70447e-92
9.51185e-99
-5.25841e-102
-5.81993e-106
3.40151e-16
2.0707e-16
1.25419e-16
7.61621e-17
4.57751e-17
2.70434e-17
1.59239e-17
9.5116e-18
6.04859e-18
4.63845e-18
4.06759e-18
3.35008e-18
1.8859e-18
4.14994e-19
1.89188e-20
1.35049e-22
2.90802e-25
4.03349e-28
4.21923e-31
3.40191e-34
2.07749e-37
9.525e-41
3.31923e-44
8.55574e-48
1.63709e-51
2.26891e-55
2.23956e-59
1.54017e-63
7.00818e-68
2.00993e-72
3.37559e-77
2.94116e-82
1.09902e-87
1.55616e-93
7.83368e-100
-3.5863e-102
-3.26139e-106
3.52595e-16
2.10223e-16
1.25825e-16
7.51039e-17
4.4122e-17
2.54491e-17
1.4681e-17
8.66642e-18
5.61874e-18
4.48671e-18
3.98109e-18
3.20997e-18
1.66622e-18
3.11204e-19
1.12355e-20
6.51208e-23
1.28696e-25
1.70991e-28
1.71519e-31
1.31948e-34
7.64734e-38
3.31163e-41
1.08637e-44
2.62265e-48
4.6723e-52
5.98383e-56
5.40413e-60
3.35326e-64
1.34998e-68
3.33598e-73
4.62258e-78
3.10102e-83
8.75845e-89
9.65754e-95
4.03395e-102
-1.80492e-102
-1.36841e-106
3.57991e-16
2.10844e-16
1.23973e-16
7.22153e-17
4.1295e-17
2.32348e-17
1.31612e-17
7.74024e-18
5.20921e-18
4.34787e-18
3.88039e-18
3.01381e-18
1.38944e-18
2.07384e-19
5.53552e-21
2.51814e-23
4.5393e-26
5.72979e-29
5.45736e-32
3.96421e-35
2.15775e-38
8.73539e-42
2.67057e-45
5.97405e-49
9.7922e-53
1.14386e-56
9.30329e-61
5.11406e-65
1.78731e-69
3.69959e-74
4.09033e-79
2.1106e-84
4.58761e-90
4.98272e-96
-1.04772e-99
-5.68236e-103
-3.7943e-107
3.58889e-16
2.07219e-16
1.18698e-16
6.7175e-17
3.73312e-17
2.05204e-17
1.14646e-17
6.80959e-18
4.85343e-18
4.22192e-18
3.75483e-18
2.74141e-18
1.06737e-18
1.18307e-19
2.17269e-21
7.6213e-24
1.25032e-26
1.48512e-29
1.32756e-32
8.99664e-36
4.5444e-39
1.70099e-42
4.78857e-46
9.79956e-50
1.45876e-53
1.53012e-57
1.10162e-61
5.26503e-66
1.55197e-70
2.6174e-75
2.24332e-80
9.06446e-86
1.73511e-91
2.00794e-97
-2.53729e-100
-9.37503e-104
-5.98254e-108
3.51368e-16
1.9693e-16
1.09397e-16
6.00807e-17
3.24738e-17
1.74969e-17
9.71318e-18
5.95569e-18
4.57012e-18
4.10273e-18
3.58469e-18
2.37155e-18
7.2901e-19
5.49451e-20
6.48747e-22
1.76193e-24
2.62795e-27
2.90373e-30
2.40346e-33
1.49906e-36
6.93406e-40
2.37017e-43
6.0585e-47
1.11867e-50
1.48804e-54
1.37774e-58
8.62391e-63
3.49206e-67
8.45162e-72
1.11262e-76
7.6091e-82
2.50449e-87
4.73006e-93
5.31672e-99
-1.43771e-101
-5.08083e-105
-3.15358e-109
3.30469e-16
1.7898e-16
9.64244e-17
5.14438e-17
2.70971e-17
1.43811e-17
8.03927e-18
5.25039e-18
4.35791e-18
3.97785e-18
3.33692e-18
1.89376e-18
4.20497e-19
1.94469e-20
1.4047e-22
3.02793e-25
4.0931e-28
4.14797e-31
3.13002e-34
1.76964e-37
7.38533e-41
2.27183e-44
5.19661e-48
8.51503e-52
9.94775e-56
7.9856e-60
4.24204e-64
1.41799e-68
2.71094e-73
2.82975e-78
1.54288e-83
4.77934e-89
9.37177e-95
1.00204e-100
-2.40889e-103
-8.72287e-107
-4.70527e-111
2.94832e-16
1.54584e-16
8.09586e-17
4.19923e-17
2.16098e-17
1.139e-17
6.57928e-18
4.73616e-18
4.19722e-18
3.82414e-18
2.96393e-18
1.3318e-18
1.90473e-19
4.83516e-21
2.11772e-23
3.75053e-26
4.55729e-29
4.16209e-32
2.81229e-35
1.41678e-38
5.24985e-42
1.42985e-45
2.87432e-49
4.10283e-53
4.13259e-57
2.80905e-61
1.234e-65
3.29834e-70
4.97644e-75
4.15079e-80
1.95523e-85
6.09676e-91
1.1612e-96
1.17857e-102
-2.13525e-105
-8.02423e-109
-3.6863e-113
2.47911e-16
1.26358e-16
6.43917e-17
3.24632e-17
1.64038e-17
8.73943e-18
5.45507e-18
4.40583e-18
4.05817e-18
3.59591e-18
2.41587e-18
7.66992e-19
6.12579e-20
7.71792e-22
2.15792e-24
3.2276e-27
3.47313e-30
2.80006e-33
1.66078e-36
7.31086e-40
2.36402e-43
5.58479e-47
9.6736e-51
1.18061e-54
1.00143e-58
5.62203e-63
1.98771e-67
4.18611e-72
5.0707e-77
3.48722e-82
1.57056e-87
4.75484e-93
8.659e-99
9.06626e-105
-1.18161e-107
-4.68767e-111
-1.82821e-115
1.95511e-16
9.7072e-17
4.80532e-17
2.35727e-17
1.18489e-17
6.6372e-18
4.72509e-18
4.20298e-18
3.90184e-18
3.21102e-18
1.68712e-18
3.23645e-19
1.22086e-20
7.29746e-23
1.43713e-25
1.83279e-28
1.71047e-31
1.18984e-34
6.05722e-38
2.28147e-41
6.3064e-45
1.26739e-48
1.85643e-52
1.89079e-56
1.319e-60
5.96526e-65
1.66021e-69
2.81024e-74
2.7492e-79
1.72222e-84
7.54612e-90
2.17478e-95
3.87312e-101
4.32243e-107
-4.36085e-110
-1.8707e-113
-6.21857e-118
1.43202e-16
6.92695e-17
3.32184e-17
1.59806e-17
8.26591e-18
5.22689e-18
4.33401e-18
4.05146e-18
3.65381e-18
2.56198e-18
8.97571e-19
8.44491e-20
1.27295e-21
3.88434e-24
5.89946e-27
6.35452e-30
5.01277e-33
2.93189e-36
1.25039e-39
3.95386e-43
9.1559e-47
1.53575e-50
1.85793e-54
1.54731e-58
8.68892e-63
3.09662e-67
6.91949e-72
9.41871e-77
8.02084e-82
4.8189e-87
2.01769e-92
5.52223e-98
9.8713e-104
1.16723e-109
-1.11699e-112
-5.26833e-116
-1.50054e-120
9.6377e-17
4.51424e-17
2.09798e-17
1.01974e-17
5.8692e-18
4.48528e-18
4.13368e-18
3.87115e-18
3.16237e-18
1.61963e-18
2.98337e-19
1.05742e-20
5.88473e-23
1.10276e-25
1.3411e-28
1.18824e-31
7.67756e-35
3.6701e-38
1.28379e-41
3.34216e-45
6.35119e-49
8.68305e-53
8.5135e-57
5.68089e-61
2.51491e-65
7.19157e-70
1.2981e-74
1.49834e-79
1.20154e-84
6.86434e-90
2.72341e-95
7.25325e-101
1.31103e-106
1.73286e-112
-2.06339e-115
-1.05924e-118
-2.59226e-123
5.80322e-17
2.61636e-17
1.20936e-17
6.48908e-18
4.63607e-18
4.17909e-18
3.97196e-18
3.5017e-18
2.23731e-18
6.4531e-19
4.42909e-20
4.57519e-22
1.1054e-24
1.48771e-27
1.42968e-30
1.00394e-33
5.1476e-37
1.96353e-40
5.52653e-44
1.15556e-47
1.7626e-51
1.93022e-55
1.50396e-59
7.89736e-64
2.80685e-68
6.51426e-73
9.85895e-78
1.0512e-82
8.08523e-88
4.44387e-93
1.73816e-98
4.82264e-104
1.04353e-109
1.93493e-115
-2.71097e-118
-1.5052e-121
-3.16262e-126
3.01775e-17
1.33596e-17
6.83403e-18
4.71086e-18
4.19108e-18
4.01084e-18
3.66412e-18
2.62647e-18
9.85385e-19
1.03756e-19
1.71069e-21
5.22199e-24
7.52279e-27
7.53854e-30
5.50243e-33
2.94835e-36
1.16206e-39
3.44888e-43
7.59526e-47
1.25032e-50
1.50322e-54
1.29292e-58
7.92803e-63
3.35369e-67
9.69921e-72
1.88709e-76
2.62256e-81
2.75364e-86
2.18182e-91
1.37305e-96
7.80868e-102
4.55405e-107
2.48835e-112
8.28143e-118
-1.62794e-121
-1.44163e-124
-2.61487e-129
1.31393e-17
6.61641e-18
4.62708e-18
4.16168e-18
4.00834e-18
3.70676e-18
2.76407e-18
1.15121e-18
1.43857e-19
2.83707e-21
9.36727e-24
1.34504e-26
1.32583e-29
9.48805e-33
4.99728e-36
1.95897e-39
5.77312e-43
1.29843e-46
2.18481e-50
2.75837e-54
2.54963e-58
1.71326e-62
8.3939e-67
2.8792e-71
7.08447e-76
1.31713e-80
2.0201e-85
2.80789e-90
3.87828e-95
5.55309e-100
7.50343e-105
8.00432e-110
5.70724e-115
2.06277e-120
-3.47518e-125
-8.99038e-128
-1.39269e-132
5.78572e-18
4.38476e-18
4.09256e-18
3.9683e-18
3.62341e-18
2.61142e-18
1.00996e-18
1.05923e-19
1.58765e-21
4.19039e-24
5.27892e-27
4.61923e-30
2.94077e-33
1.3825e-36
4.88241e-40
1.3105e-43
2.6591e-47
4.1118e-51
4.73657e-55
4.08451e-59
2.59314e-63
1.21332e-67
4.37566e-72
1.40008e-76
5.08952e-81
1.98423e-85
7.35451e-90
2.38569e-94
6.3785e-99
1.38978e-103
2.38662e-108
2.9523e-113
2.29188e-118
8.29919e-124
8.09246e-130
-3.40862e-131
-4.41596e-136
4.09607e-18
4.00254e-18
3.84065e-18
3.29013e-18
1.98359e-18
4.75842e-19
2.08898e-20
1.15889e-22
1.60551e-25
1.09778e-28
3.17232e-32
2.04872e-36
5.68202e-41
1.42809e-44
4.37604e-48
1.02639e-51
1.82185e-55
2.47474e-59
2.52321e-63
1.94929e-67
1.13108e-71
4.95143e-76
1.71435e-80
5.38002e-85
1.95215e-89
1.39485e-91
2.86828e-95
1.18335e-99
4.30759e-104
1.15127e-108
2.08234e-113
2.01062e-118
5.84224e-124
3.82519e-131
1.56521e-132
-7.02269e-135
-7.48671e-140
3.83358e-18
3.38728e-18
2.04228e-18
4.56905e-19
1.8411e-20
1.40741e-22
6.44047e-26
6.32435e-30
2.87743e-33
1.66389e-36
4.21311e-40
3.73576e-44
8.83766e-48
3.3427e-51
8.75821e-55
1.96564e-58
3.91435e-62
3.80996e-66
4.93562e-70
3.30598e-74
1.64258e-78
6.38607e-83
1.97767e-87
6.69148e-92
1.69914e-96
3.47673e-100
7.38297e-104
4.88441e-108
3.31079e-112
8.94689e-117
1.85689e-121
2.12506e-126
7.14535e-132
1.68759e-138
3.10063e-140
-6.33771e-139
-5.53226e-144
4.54807e-19
5.35775e-20
3.91038e-21
5.76061e-23
1.06061e-26
2.34735e-30
9.84715e-34
6.93517e-37
6.58988e-40
3.15494e-43
1.71029e-46
4.44713e-50
5.45432e-54
6.692e-57
2.35828e-60
6.01649e-64
1.10346e-67
1.61902e-71
2.05604e-75
1.93952e-79
1.32639e-83
6.53363e-88
2.31972e-92
9.5989e-97
3.46053e-101
1.18793e-105
3.95093e-110
2.2534e-114
7.9903e-119
1.45867e-123
2.03439e-128
2.06644e-133
1.80545e-138
7.53353e-143
1.19874e-145
-1.47578e-143
-9.52313e-149
2.82649e-17
2.31941e-17
1.88036e-17
1.50456e-17
1.18998e-17
9.32618e-18
7.22114e-18
5.65245e-18
4.69589e-18
3.87235e-18
2.5237e-18
8.16277e-19
6.94124e-20
9.63085e-22
2.9722e-24
4.97697e-27
6.3475e-30
6.59781e-33
5.55144e-36
3.81962e-39
2.12239e-42
9.47343e-46
3.44387e-49
9.93692e-53
2.28991e-56
4.13755e-60
5.70844e-64
6.0742e-68
4.73724e-72
-1.44839e-73
-4.60826e-75
-5.92865e-77
-5.16584e-79
-3.76632e-81
-1.14521e-83
-1.03949e-86
-1.6451e-90
3.32801e-17
2.70119e-17
2.16753e-17
1.71749e-17
1.34364e-17
1.04093e-17
7.97269e-18
6.10044e-18
4.93515e-18
4.12267e-18
2.96388e-18
1.23498e-18
1.62373e-19
3.83395e-21
1.66896e-23
3.17045e-26
4.36297e-29
4.84415e-32
4.3347e-35
3.15987e-38
1.85309e-41
8.6949e-45
3.30603e-48
9.939e-52
2.37738e-55
4.44271e-59
6.42638e-63
7.13187e-67
5.89406e-71
3.53673e-75
1.4431e-79
-3.07236e-82
-1.60221e-83
-3.76064e-85
-2.82076e-87
-4.69612e-90
-9.75385e-94
3.92642e-17
3.14986e-17
2.49761e-17
1.95747e-17
1.51457e-17
1.15924e-17
8.78112e-18
6.60101e-18
5.18916e-18
4.32702e-18
3.31054e-18
1.66278e-18
3.10602e-19
1.17675e-20
7.47834e-23
1.64332e-25
2.43452e-28
2.87225e-31
2.71895e-34
2.08935e-37
1.28691e-40
6.3176e-44
2.50098e-47
7.79895e-51
1.92782e-54
3.70878e-58
5.5014e-62
6.23647e-66
5.24479e-70
3.21646e-74
1.3998e-78
4.12296e-83
5.54837e-88
-3.74718e-89
-6.6202e-91
-1.93537e-93
-4.87676e-97
4.63563e-17
3.67743e-17
2.87841e-17
2.22766e-17
1.70341e-17
1.28768e-17
9.63949e-18
7.14147e-18
5.46364e-18
4.50445e-18
3.57955e-18
2.06023e-18
5.09045e-19
2.89637e-20
2.69848e-22
7.0066e-25
1.11525e-27
1.38969e-30
1.38296e-33
1.11357e-36
7.16279e-40
3.65885e-43
1.50022e-46
4.82791e-50
1.22716e-53
2.41855e-57
3.66125e-61
4.21938e-65
3.59291e-69
2.22184e-73
9.70758e-78
2.86821e-82
5.41887e-87
5.66193e-92
-1.35622e-94
-7.84917e-97
-2.2454e-100
5.46614e-17
4.29317e-17
3.31757e-17
2.53195e-17
1.91086e-17
1.42594e-17
1.0541e-17
7.70777e-18
5.75675e-18
4.66609e-18
3.78933e-18
2.40659e-18
7.41545e-19
5.9432e-20
7.96046e-22
2.48766e-24
4.24968e-27
5.55939e-30
5.77925e-33
4.84641e-36
3.2365e-39
1.71059e-42
7.22873e-46
2.38763e-49
6.20764e-53
1.24692e-56
1.91667e-60
2.23427e-64
1.91671e-68
1.18911e-72
5.18884e-77
1.52352e-81
2.84386e-86
3.12433e-91
1.72031e-96
-1.11331e-100
-9.28141e-104
6.42902e-17
5.00252e-17
3.82029e-17
2.87394e-17
2.13768e-17
1.57332e-17
1.14765e-17
8.28569e-18
6.06066e-18
4.81695e-18
3.95502e-18
2.69608e-18
9.87709e-19
1.05203e-19
1.95785e-21
7.4409e-24
1.36304e-26
1.86075e-29
2.0077e-32
1.74255e-35
1.20092e-38
6.52917e-42
2.82833e-45
9.53648e-49
2.52231e-52
5.13585e-56
7.97309e-60
9.35126e-64
8.03881e-68
4.97618e-72
2.15647e-76
6.25461e-81
1.14612e-85
1.22648e-90
6.64142e-96
1.42624e-101
-2.50007e-125
7.54144e-17
5.80955e-17
4.38807e-17
3.25533e-17
2.38416e-17
1.72871e-17
1.24329e-17
8.86025e-18
6.36308e-18
4.95687e-18
4.08693e-18
2.9316e-18
1.22917e-18
1.65344e-19
4.10436e-21
1.89714e-23
3.72144e-26
5.26981e-29
5.8637e-32
5.23411e-35
3.69964e-38
2.05655e-41
9.07823e-45
3.10703e-48
8.31288e-52
1.70613e-55
2.65996e-59
3.1211e-63
2.67325e-67
1.64145e-71
7.02108e-76
1.9984e-80
3.56882e-85
3.6881e-90
1.9043e-95
3.85417e-101
1.6317e-107
8.82755e-17
6.72056e-17
5.0197e-17
3.67489e-17
2.6493e-17
1.8904e-17
1.33923e-17
9.41483e-18
6.64865e-18
5.08104e-18
4.19063e-18
3.11963e-18
1.45284e-18
2.36254e-19
7.49831e-21
4.1734e-23
8.74356e-26
1.27669e-28
1.45561e-31
1.32779e-34
9.56504e-38
5.4024e-41
2.4152e-44
8.34028e-48
2.24383e-51
4.61423e-55
7.18124e-59
8.3788e-63
7.10609e-67
4.30048e-71
1.80335e-75
5.00016e-80
8.63091e-85
8.52975e-90
4.15132e-95
7.75213e-101
2.9477e-107
1.03139e-16
7.74467e-17
5.71311e-17
4.12837e-17
2.93005e-17
2.05575e-17
1.43311e-17
9.9303e-18
6.90075e-18
5.18131e-18
4.26823e-18
3.26726e-18
1.65135e-18
3.12827e-19
1.21856e-20
8.02165e-23
1.78662e-25
2.6738e-28
3.10409e-31
2.87529e-34
2.09762e-37
1.19616e-40
5.38154e-44
1.8635e-47
5.01003e-51
1.02583e-54
1.58364e-58
1.82549e-62
1.52281e-66
9.0197e-71
3.68032e-75
9.85878e-80
1.6288e-84
1.52143e-89
6.88023e-95
1.16221e-100
4.0284e-107
1.20235e-16
8.89053e-17
6.4658e-17
4.60919e-17
3.22095e-17
2.22078e-17
1.52188e-17
1.03848e-17
7.10388e-18
5.24943e-18
4.32065e-18
3.38119e-18
1.82205e-18
3.89791e-19
1.79395e-20
1.36469e-22
3.20842e-25
4.89096e-28
5.7457e-31
5.37076e-34
3.94296e-37
2.25573e-40
1.01479e-43
3.5015e-47
9.34764e-51
1.89345e-54
2.88034e-58
3.25801e-62
2.65435e-66
1.52715e-70
6.01343e-75
1.54191e-79
2.41093e-84
2.09957e-89
8.66059e-95
1.29277e-100
3.78345e-107
1.39719e-16
1.01616e-16
7.27293e-17
5.1085e-17
3.51409e-17
2.37997e-17
1.60181e-17
1.07551e-17
7.24627e-18
5.28337e-18
4.35039e-18
3.46735e-18
1.96532e-18
4.62739e-19
2.43185e-20
2.0836e-22
5.12224e-25
7.90162e-28
9.33397e-31
8.74861e-34
6.42202e-37
3.66199e-40
1.63658e-43
5.59092e-47
1.47244e-50
2.93102e-54
4.36366e-58
4.80911e-62
3.79801e-66
2.10515e-70
7.92594e-75
1.92437e-79
2.81158e-84
2.24759e-89
8.26726e-95
1.0575e-100
2.2792e-107
1.6163e-16
1.15516e-16
8.1243e-17
5.6143e-17
3.79903e-17
2.52619e-17
1.66866e-17
1.10205e-17
7.32405e-18
5.29251e-18
4.36186e-18
3.52977e-18
2.08211e-18
5.28384e-19
3.07932e-20
2.89748e-22
7.36857e-25
1.14256e-27
1.34851e-30
1.2591e-33
9.17949e-37
5.18172e-40
2.28471e-43
7.6752e-47
1.98045e-50
3.84677e-54
5.56292e-58
5.92564e-62
4.49732e-66
2.3801e-70
8.48479e-75
1.92739e-79
2.59258e-84
1.86473e-89
5.95847e-95
6.22158e-101
9.18914e-108
1.85867e-16
1.30406e-16
9.0012e-17
6.11003e-17
4.06264e-17
2.65113e-17
1.71844e-17
1.11726e-17
7.34878e-18
5.28646e-18
4.3621e-18
3.56917e-18
2.16946e-18
5.82442e-19
3.66642e-20
3.6984e-22
9.62765e-25
1.49246e-27
1.75108e-30
1.61972e-33
1.16556e-36
6.46929e-40
2.79386e-43
9.16073e-47
2.2977e-50
4.3204e-54
6.02386e-58
6.15651e-62
4.45588e-66
2.23066e-70
7.44454e-75
1.56031e-79
1.89933e-84
1.20028e-89
3.21099e-95
2.57907e-101
2.24939e-108
2.12161e-16
1.45921e-16
9.87358e-17
6.57344e-17
4.28959e-17
2.74654e-17
1.74894e-17
1.12268e-17
7.3444e-18
5.25623e-18
4.34905e-18
3.58424e-18
2.21813e-18
6.15685e-19
4.05429e-20
4.25521e-22
1.12047e-24
1.73098e-27
2.01462e-30
1.84115e-33
1.3037e-36
7.09153e-40
2.98962e-43
9.53487e-47
2.3162e-50
4.19671e-54
5.60529e-58
5.45275e-62
3.72821e-66
1.7469e-70
5.38698e-75
1.02567e-79
1.10588e-84
5.9692e-90
1.2794e-95
7.37243e-102
3.80772e-109
2.39995e-16
1.61509e-16
1.06989e-16
6.97707e-17
4.46456e-17
2.80703e-17
1.76181e-17
1.12285e-17
7.26262e-18
5.18813e-18
4.31847e-18
3.58179e-18
2.22912e-18
6.23449e-19
4.14031e-20
4.36542e-22
1.14604e-24
1.75909e-27
2.02944e-30
1.83237e-33
1.27614e-36
6.79337e-40
2.7887e-43
8.62038e-47
2.01868e-50
3.50598e-54
4.46127e-58
4.10523e-62
2.63179e-66
1.14321e-70
3.21712e-75
5.46962e-80
5.10628e-85
2.27207e-90
3.72738e-96
1.43022e-102
4.85926e-110
2.68441e-16
1.76413e-16
1.14239e-16
7.29206e-17
4.57727e-17
2.83424e-17
1.76383e-17
1.1073e-17
7.08605e-18
5.08463e-18
4.27241e-18
3.56039e-18
2.21291e-18
6.11531e-19
3.96223e-20
4.04652e-22
1.03879e-24
1.57062e-27
1.78332e-30
1.5793e-33
1.07444e-36
5.56389e-40
2.21295e-43
6.60171e-47
1.48449e-50
2.46177e-54
2.97185e-58
2.5741e-62
1.53779e-66
6.1379e-71
1.55771e-75
2.32364e-80
1.82969e-85
6.43223e-91
7.42628e-97
1.79379e-103
4.14096e-111
2.96018e-16
1.89665e-16
1.19931e-16
7.49734e-17
4.62972e-17
2.83967e-17
1.73924e-17
1.0739e-17
6.81388e-18
4.94993e-18
4.21336e-18
3.51717e-18
2.15424e-18
5.7202e-19
3.46716e-20
3.28693e-22
8.09241e-25
1.19693e-27
1.33049e-30
1.1495e-33
7.596e-37
3.80395e-40
1.45793e-43
4.1728e-47
8.95853e-51
1.41052e-54
1.60604e-58
1.30106e-62
7.18703e-67
2.61004e-71
5.88726e-76
7.5649e-81
4.87439e-86
1.26445e-91
9.96086e-98
1.39435e-104
2.22769e-112
3.20688e-16
2.00181e-16
1.23656e-16
7.59403e-17
4.64137e-17
2.80019e-17
1.68312e-17
1.0215e-17
6.45911e-18
4.7966e-18
4.14464e-18
3.44913e-18
2.04715e-18
5.05014e-19
2.72932e-20
2.29737e-22
5.32963e-25
7.65944e-28
8.28662e-31
6.94097e-34
4.42578e-37
2.12879e-40
7.80938e-44
2.1294e-47
4.33341e-51
6.4296e-55
6.84926e-59
5.14373e-63
2.59747e-67
8.45847e-72
1.66653e-76
1.79456e-81
9.04992e-87
1.70547e-92
9.52576e-99
1.28456e-105
-2.27526e-111
3.40151e-16
2.0707e-16
1.25419e-16
7.61621e-17
4.57751e-17
2.70434e-17
1.59239e-17
9.5116e-18
6.04859e-18
4.63846e-18
4.0676e-18
3.35007e-18
1.88588e-18
4.14981e-19
1.89177e-20
1.35038e-22
2.90777e-25
4.03314e-28
4.21887e-31
3.40162e-34
2.07731e-37
9.52418e-41
3.31894e-44
8.55484e-48
1.63688e-51
2.26866e-55
2.23936e-59
1.54003e-63
7.00741e-68
2.00974e-72
3.37542e-77
2.94129e-82
1.09931e-87
1.5572e-93
7.86191e-100
1.35796e-106
-3.65454e-110
3.52595e-16
2.10223e-16
1.25826e-16
7.51039e-17
4.4122e-17
2.54491e-17
1.4681e-17
8.66642e-18
5.61875e-18
4.48672e-18
3.9811e-18
3.20996e-18
1.6662e-18
3.11194e-19
1.12348e-20
6.51152e-23
1.28684e-25
1.70974e-28
1.71502e-31
1.31935e-34
7.64655e-38
3.31127e-41
1.08624e-44
2.62229e-48
4.67156e-52
5.983e-56
5.40347e-60
3.35283e-64
1.34978e-68
3.33551e-73
4.62215e-78
3.10112e-83
8.76143e-89
9.66721e-95
5.33475e-101
8.05302e-108
-1.73801e-110
3.57991e-16
2.10844e-16
1.23973e-16
7.22153e-17
4.1295e-17
2.32348e-17
1.31612e-17
7.74024e-18
5.20921e-18
4.34788e-18
3.88039e-18
3.01381e-18
1.38942e-18
2.07379e-19
5.53523e-21
2.51797e-23
4.53895e-26
5.72932e-29
5.4569e-32
3.96385e-35
2.15755e-38
8.73452e-42
2.67028e-45
5.97328e-49
9.7907e-53
1.14371e-56
9.30216e-61
5.11342e-65
1.78705e-69
3.69908e-74
4.09002e-79
2.11079e-84
4.5896e-90
4.98767e-96
2.91215e-102
1.60467e-109
-3.73686e-111
3.58889e-16
2.07219e-16
1.18698e-16
6.71751e-17
3.73312e-17
2.05204e-17
1.14646e-17
6.80959e-18
4.85343e-18
4.22193e-18
3.75483e-18
2.74141e-18
1.06736e-18
1.18305e-19
2.17263e-21
7.62097e-24
1.25026e-26
1.48505e-29
1.32749e-32
8.9961e-36
4.5441e-39
1.70087e-42
4.78819e-46
9.79858e-50
1.45858e-53
1.52996e-57
1.10152e-61
5.26451e-66
1.55179e-70
2.61716e-75
2.24329e-80
9.06627e-86
1.73607e-91
2.00999e-97
1.11966e-103
-5.37719e-112
-2.77709e-112
3.51368e-16
1.9693e-16
1.09397e-16
6.00807e-17
3.24738e-17
1.74969e-17
9.71318e-18
5.95569e-18
4.57012e-18
4.10273e-18
3.5847e-18
2.37156e-18
7.29012e-19
5.49452e-20
6.48745e-22
1.76191e-24
2.62792e-27
2.90369e-30
2.40341e-33
1.49902e-36
6.93388e-40
2.3701e-43
6.05829e-47
1.11861e-50
1.48792e-54
1.37766e-58
8.62351e-63
3.49188e-67
8.45108e-72
1.11261e-76
7.60993e-82
2.50554e-87
4.73426e-93
5.32474e-99
2.61539e-105
-3.18609e-113
-3.70414e-114
3.30469e-16
1.7898e-16
9.64244e-17
5.14438e-17
2.70971e-17
1.43811e-17
8.03927e-18
5.25039e-18
4.35791e-18
3.97786e-18
3.33693e-18
1.89378e-18
4.20503e-19
1.94473e-20
1.40474e-22
3.02802e-25
4.09321e-28
4.14808e-31
3.1301e-34
1.76967e-37
7.38547e-41
2.27187e-44
5.19668e-48
8.51497e-52
9.94745e-56
7.98558e-60
4.24209e-64
1.41801e-68
2.711e-73
2.83005e-78
1.54331e-83
4.78217e-89
9.38186e-95
1.00375e-100
4.77466e-107
-5.38298e-115
-2.43537e-116
2.94832e-16
1.54584e-16
8.09586e-17
4.19923e-17
2.16098e-17
1.139e-17
6.57928e-18
4.73616e-18
4.19722e-18
3.82415e-18
2.96395e-18
1.33182e-18
1.90479e-19
4.83539e-21
2.11785e-23
3.75076e-26
4.55757e-29
4.16235e-32
2.81247e-35
1.41686e-38
5.25018e-42
1.42994e-45
2.87449e-49
4.103e-53
4.13268e-57
2.80921e-61
1.23409e-65
3.29866e-70
4.97703e-75
4.15183e-80
1.95612e-85
6.10152e-91
1.16268e-96
1.18751e-102
6.01857e-109
-4.89021e-117
-6.76295e-119
2.47911e-16
1.26358e-16
6.43917e-17
3.24632e-17
1.64038e-17
8.73943e-18
5.45507e-18
4.40583e-18
4.05817e-18
3.59592e-18
2.4159e-18
7.6701e-19
6.12607e-20
7.71846e-22
2.15809e-24
3.22787e-27
3.47343e-30
2.80031e-33
1.66093e-36
7.31154e-40
2.36425e-43
5.58534e-47
9.67457e-51
1.1807e-54
1.00149e-58
5.62268e-63
1.988e-67
4.18684e-72
5.07184e-77
3.48862e-82
1.57157e-87
4.75959e-93
8.67228e-99
9.1435e-105
5.37536e-111
-2.82506e-119
-7.61575e-122
1.95511e-16
9.7072e-17
4.80532e-17
2.35727e-17
1.18489e-17
6.63721e-18
4.72509e-18
4.20298e-18
3.90184e-18
3.21103e-18
1.68714e-18
3.23656e-19
1.22093e-20
7.29808e-23
1.43726e-25
1.83297e-28
1.71064e-31
1.18996e-34
6.05787e-38
2.28172e-41
6.30714e-45
1.26754e-48
1.85666e-52
1.891e-56
1.31913e-60
5.9662e-65
1.66054e-69
2.81094e-74
2.75011e-79
1.72316e-84
7.55223e-90
2.17739e-95
3.88001e-101
4.30654e-107
3.10438e-113
7.73065e-120
-1.61948e-124
1.43202e-16
6.92695e-17
3.32184e-17
1.59806e-17
8.26591e-18
5.22689e-18
4.33401e-18
4.05146e-18
3.65382e-18
2.562e-18
8.9759e-19
8.44529e-20
1.27304e-21
3.88469e-24
5.90002e-27
6.35514e-30
5.01328e-33
2.9322e-36
1.25053e-39
3.95433e-43
9.15703e-47
1.53594e-50
1.85818e-54
1.5475e-58
8.68988e-63
3.09721e-67
6.92117e-72
9.42182e-77
8.02437e-82
4.82222e-87
2.01965e-92
5.53009e-98
9.89129e-104
1.16973e-109
1.06849e-115
5.86237e-122
-3.6535e-127
9.6377e-17
4.51424e-17
2.09798e-17
1.01974e-17
5.8692e-18
4.48528e-18
4.13368e-18
3.87116e-18
3.16238e-18
1.61964e-18
2.98345e-19
1.05747e-20
5.88517e-23
1.10285e-25
1.34121e-28
1.18834e-31
7.67827e-35
3.67045e-38
1.28392e-41
3.34252e-45
6.35192e-49
8.68411e-53
8.51458e-57
5.6816e-61
2.51522e-65
7.19297e-70
1.29845e-74
1.49895e-79
1.20221e-84
6.87017e-90
2.72662e-95
7.26557e-101
1.31403e-106
1.7355e-112
2.00046e-118
1.33562e-124
-6.21587e-130
5.80322e-17
2.61636e-17
1.20936e-17
6.48908e-18
4.63607e-18
4.17909e-18
3.97196e-18
3.5017e-18
2.23731e-18
6.45317e-19
4.42921e-20
4.57539e-22
1.10546e-24
1.48779e-27
1.42976e-30
1.004e-33
5.1479e-37
1.96365e-40