/*--------------------------------*- C++ -*----------------------------------*\
| =========                 |                                                 |
| \\      /  F ield         | OpenFOAM: The Open Source CFD Toolbox           |
|  \\    /   O peration     | Version:  v2012                                 |
|   \\  /    A nd           | Website:  www.openfoam.com                      |
|    \\/     M anipulation  |                                                 |
\*---------------------------------------------------------------------------*/
FoamFile
{
    version     2.0;
    format      ascii;
    class       surfaceScalarField;
    location    "0.6";
    object      phi;
}
// * * * * * * * * * * * * * * * * * * * * * * * * * * * * * * * * * * * * * //

dimensions      [0 3 -1 0 0 0 0];
oriented        oriented;


internalField   nonuniform List<scalar> 
6514
(
1.02665e-10
-2.34655e-10
6.60261e-16
1.07432e-10
-2.40743e-10
5.45875e-16
1.11534e-10
-2.45528e-10
4.61958e-16
1.14897e-10
-2.48958e-10
3.52648e-16
1.17466e-10
-2.50983e-10
2.61821e-16
1.192e-10
-2.51649e-10
1.66468e-16
1.20075e-10
-2.50934e-10
8.74824e-17
1.20086e-10
-2.4892e-10
7.33467e-17
1.19247e-10
-2.45675e-10
8.69732e-17
1.17588e-10
-2.41283e-10
1.30114e-16
1.15151e-10
-2.35854e-10
1.67638e-16
1.11994e-10
-2.29502e-10
2.03922e-16
1.08183e-10
-2.22356e-10
2.2816e-16
1.03793e-10
-2.14527e-10
2.25327e-16
9.89039e-11
-2.06143e-10
2.09139e-16
9.35985e-11
-1.97312e-10
1.71023e-16
8.79631e-11
-1.88097e-10
1.37663e-16
8.2076e-11
-1.78693e-10
8.78057e-17
7.60204e-11
-1.69057e-10
4.87258e-17
6.9869e-11
-1.59348e-10
9.71045e-18
6.3694e-11
-1.49539e-10
-9.07881e-18
5.7561e-11
-1.39666e-10
-3.07329e-17
5.1525e-11
-1.29832e-10
-4.40493e-17
4.56424e-11
-1.19918e-10
-5.39167e-17
3.99581e-11
-1.09997e-10
-5.57825e-17
3.4515e-11
-1.00007e-10
-5.42642e-17
2.935e-11
-8.99415e-11
-5.63342e-17
2.44946e-11
-7.9794e-11
-5.59411e-17
1.99798e-11
-6.95083e-11
-5.5359e-17
1.58332e-11
-5.91103e-11
-4.81716e-17
1.2081e-11
-4.86391e-11
-4.15446e-17
8.75167e-12
-3.8179e-11
-2.77677e-17
5.8768e-12
-2.79154e-11
-1.50002e-17
3.49527e-12
-1.81799e-11
4.18042e-18
1.6609e-12
-9.50004e-12
2.05928e-17
4.53328e-13
-2.76391e-12
3.82285e-17
7.01809e-13
4.64437e-17
1.08381e-10
-2.39996e-10
3.6964e-16
1.1307e-10
-2.45429e-10
3.16084e-16
1.17021e-10
-2.49476e-10
3.28469e-16
1.20164e-10
-2.521e-10
2.57907e-16
1.22451e-10
-2.53267e-10
2.20422e-16
1.23846e-10
-2.53043e-10
1.34712e-16
1.24338e-10
-2.51425e-10
8.16127e-17
1.2393e-10
-2.48512e-10
5.76074e-17
1.22649e-10
-2.44393e-10
6.93184e-17
1.20535e-10
-2.39167e-10
9.55622e-17
1.17641e-10
-2.3296e-10
1.27643e-16
1.14035e-10
-2.25895e-10
1.5444e-16
1.09792e-10
-2.18111e-10
1.77253e-16
1.04995e-10
-2.09728e-10
1.75092e-16
9.97299e-11
-2.00876e-10
1.63894e-16
9.40841e-11
-1.91665e-10
1.33385e-16
8.81471e-11
-1.82159e-10
1.06722e-16
8.19989e-11
-1.72545e-10
6.61814e-17
7.57233e-11
-1.62781e-10
3.40054e-17
6.93922e-11
-1.53017e-10
2.50051e-18
6.30764e-11
-1.43223e-10
-1.29773e-17
5.68396e-11
-1.33429e-10
-3.04173e-17
5.07339e-11
-1.23727e-10
-4.13519e-17
4.48129e-11
-1.13997e-10
-4.92935e-17
3.91183e-11
-1.04303e-10
-5.22646e-17
3.36898e-11
-9.45795e-11
-5.0425e-17
2.85613e-11
-8.48136e-11
-5.12558e-17
2.37612e-11
-7.49946e-11
-5.0251e-17
1.93177e-11
-6.50654e-11
-4.87454e-17
1.52552e-11
-5.50483e-11
-4.20409e-17
1.15969e-11
-4.49814e-11
-3.57126e-17
8.36778e-12
-3.49502e-11
-2.37061e-17
5.59518e-12
-2.51431e-11
-1.21698e-17
3.31255e-12
-1.58972e-11
4.69625e-18
1.56617e-12
-7.75332e-12
1.96577e-17
4.24918e-13
-1.62201e-12
3.57346e-17
1.1276e-12
4.61511e-17
1.14389e-10
-2.45294e-10
2.73936e-16
1.18954e-10
-2.49992e-10
2.5401e-16
1.22705e-10
-2.53224e-10
2.64539e-16
1.25576e-10
-2.5497e-10
2.3699e-16
1.27527e-10
-2.55215e-10
1.9439e-16
1.28532e-10
-2.54047e-10
1.36854e-16
1.2859e-10
-2.51482e-10
7.94778e-17
1.27719e-10
-2.47641e-10
6.46657e-17
1.25954e-10
-2.42628e-10
6.14142e-17
1.23349e-10
-2.36562e-10
8.47174e-17
1.1997e-10
-2.29579e-10
1.05693e-16
1.15893e-10
-2.21816e-10
1.30625e-16
1.11203e-10
-2.1342e-10
1.48113e-16
1.05989e-10
-2.04514e-10
1.4775e-16
1.00344e-10
-1.9523e-10
1.37333e-16
9.43587e-11
-1.8568e-10
1.11634e-16
8.81256e-11
-1.75924e-10
8.79174e-17
8.17252e-11
-1.66144e-10
5.27026e-17
7.52412e-11
-1.56297e-10
2.42408e-17
6.8744e-11
-1.4652e-10
-2.7753e-18
6.23025e-11
-1.36782e-10
-1.62375e-17
5.59773e-11
-1.27104e-10
-3.10272e-17
4.98177e-11
-1.17568e-10
-4.05576e-17
4.38736e-11
-1.08054e-10
-4.67541e-17
3.81836e-11
-9.86138e-11
-5.1284e-17
3.27837e-11
-8.91803e-11
-4.85118e-17
2.77048e-11
-7.97351e-11
-4.8113e-17
2.29719e-11
-7.02624e-11
-4.58384e-17
1.86103e-11
-6.07044e-11
-4.3225e-17
1.46414e-11
-5.10799e-11
-3.6293e-17
1.10854e-11
-4.14259e-11
-3.01601e-17
7.96367e-12
-3.18288e-11
-1.96717e-17
5.29958e-12
-2.24791e-11
-9.70854e-18
3.1211e-12
-1.37186e-11
4.38818e-18
1.46699e-12
-6.09889e-12
1.72501e-17
3.95165e-13
-5.49598e-13
3.09176e-17
1.52355e-12
4.03652e-17
1.20688e-10
-2.50506e-10
-1.49898e-16
1.25079e-10
-2.54383e-10
-2.55056e-17
1.28574e-10
-2.56718e-10
9.9441e-17
1.31115e-10
-2.57511e-10
1.25197e-16
1.32672e-10
-2.56771e-10
1.37564e-16
1.33231e-10
-2.54605e-10
1.00679e-16
1.32804e-10
-2.51054e-10
7.08334e-17
1.3142e-10
-2.46257e-10
5.75782e-17
1.2913e-10
-2.40339e-10
5.81814e-17
1.26001e-10
-2.33431e-10
7.33871e-17
1.22108e-10
-2.25685e-10
9.31646e-17
1.17539e-10
-2.17247e-10
1.12262e-16
1.12388e-10
-2.08268e-10
1.28741e-16
1.06751e-10
-1.98876e-10
1.26926e-16
1.00726e-10
-1.89204e-10
1.18616e-16
9.44061e-11
-1.79359e-10
9.50244e-17
8.78854e-11
-1.69402e-10
7.42871e-17
8.12446e-11
-1.59504e-10
4.22526e-17
7.45664e-11
-1.49618e-10
1.69365e-17
6.79191e-11
-1.39873e-10
-7.19927e-18
6.13685e-11
-1.30231e-10
-1.88491e-17
5.49722e-11
-1.20708e-10
-3.19986e-17
4.87756e-11
-1.11372e-10
-4.03033e-17
4.2825e-11
-1.02103e-10
-4.58326e-17
3.7155e-11
-9.29446e-11
-5.13778e-17
3.17983e-11
-8.38243e-11
-4.79217e-17
2.67822e-11
-7.47194e-11
-4.60922e-17
2.21285e-11
-6.56094e-11
-4.23929e-17
1.78595e-11
-5.64358e-11
-3.83042e-17
1.39935e-11
-4.72144e-11
-3.06187e-17
1.05479e-11
-3.79806e-11
-2.42471e-17
7.54057e-12
-2.88217e-11
-1.45993e-17
4.99089e-12
-1.99295e-11
-5.81277e-18
2.92151e-12
-1.16492e-11
6.31765e-18
1.36364e-12
-4.54071e-12
1.7399e-17
3.64061e-13
4.50544e-13
2.93639e-17
1.88836e-12
3.87167e-17
1.27285e-10
-2.5557e-10
1.09701e-16
1.3144e-10
-2.58536e-10
1.00351e-16
1.34613e-10
-2.5989e-10
1.19652e-16
1.3676e-10
-2.59657e-10
1.32071e-16
1.37858e-10
-2.57868e-10
1.10591e-16
1.37911e-10
-2.54657e-10
8.90678e-17
1.36942e-10
-2.50085e-10
5.57967e-17
1.34998e-10
-2.44313e-10
5.54932e-17
1.32142e-10
-2.37483e-10
5.0161e-17
1.28454e-10
-2.29742e-10
6.74627e-17
1.24022e-10
-2.21253e-10
8.15608e-17
1.18945e-10
-2.12169e-10
1.00357e-16
1.13324e-10
-2.02645e-10
1.13027e-16
1.0726e-10
-1.92812e-10
1.12118e-16
1.00857e-10
-1.828e-10
1.0401e-16
9.42103e-11
-1.72712e-10
8.30795e-17
8.74137e-11
-1.62604e-10
6.39523e-17
8.05474e-11
-1.52638e-10
3.48125e-17
7.36919e-11
-1.42762e-10
1.16949e-17
6.69126e-11
-1.33094e-10
-1.00937e-17
6.02718e-11
-1.23591e-10
-2.05482e-17
5.38231e-11
-1.14259e-10
-3.24232e-17
4.76077e-11
-1.05158e-10
-3.98874e-17
4.16679e-11
-9.61639e-11
-4.43875e-17
3.60343e-11
-8.73116e-11
-5.15576e-17
3.07357e-11
-7.85264e-11
-4.74014e-17
2.57957e-11
-6.978e-11
-4.4723e-17
2.12333e-11
-6.10475e-11
-4.00609e-17
1.70674e-11
-5.22703e-11
-3.49213e-17
1.33136e-11
-4.34609e-11
-2.66205e-17
9.98614e-12
-3.46535e-11
-1.99234e-17
7.0999e-12
-2.59356e-11
-1.07601e-17
4.67018e-12
-1.74999e-11
-2.66472e-18
2.71445e-12
-9.69329e-12
8.04834e-18
1.25647e-12
-3.08241e-12
1.80324e-17
3.31729e-13
1.37584e-12
2.89737e-17
2.2208e-12
3.76087e-17
1.34166e-10
-2.60431e-10
-3.86079e-16
1.38016e-10
-2.62387e-10
-2.37258e-16
1.40798e-10
-2.62674e-10
-8.57149e-17
1.42479e-10
-2.61339e-10
-1.01341e-17
1.43052e-10
-2.58441e-10
2.51522e-17
1.42534e-10
-2.54139e-10
3.22918e-17
1.40967e-10
-2.48517e-10
2.88446e-17
1.38412e-10
-2.41758e-10
3.94846e-17
1.34949e-10
-2.34019e-10
4.32667e-17
1.30671e-10
-2.25463e-10
5.98753e-17
1.25678e-10
-2.16259e-10
7.55429e-17
1.20079e-10
-2.06568e-10
9.16039e-17
1.13981e-10
-1.96547e-10
1.03641e-16
1.07492e-10
-1.86323e-10
1.01518e-16
1.00718e-10
-1.76025e-10
9.47049e-17
9.37558e-11
-1.65749e-10
7.47055e-17
8.66987e-11
-1.55546e-10
5.72958e-17
7.96249e-11
-1.45564e-10
2.98171e-17
7.26117e-11
-1.35749e-10
8.6305e-18
6.5721e-11
-1.26204e-10
-1.16705e-17
5.90107e-11
-1.16881e-10
-2.12547e-17
5.25299e-11
-1.07778e-10
-3.23455e-17
4.63151e-11
-9.89439e-11
-3.90751e-17
4.04043e-11
-9.02534e-11
-4.32452e-17
3.48238e-11
-8.17317e-11
-5.1388e-17
2.95984e-11
-7.33017e-11
-4.66566e-17
2.47484e-11
-6.49304e-11
-4.30775e-17
2.02891e-11
-5.65888e-11
-3.74209e-17
1.62367e-11
-4.82183e-11
-3.13573e-17
1.26039e-11
-3.98284e-11
-2.24463e-17
9.40222e-12
-3.14521e-11
-1.55551e-17
6.64327e-12
-2.31768e-11
-6.82155e-18
4.33864e-12
-1.51952e-11
5.13821e-19
2.50072e-12
-7.85522e-12
9.98113e-18
1.14589e-12
-1.72725e-12
1.87421e-17
2.98305e-13
2.22396e-12
2.87936e-17
2.5198e-12
3.67829e-17
1.41325e-10
-2.65007e-10
-4.36486e-16
1.44791e-10
-2.65854e-10
-2.34346e-16
1.47102e-10
-2.64985e-10
-1.13995e-16
1.48239e-10
-2.62476e-10
-2.3379e-17
1.48212e-10
-2.58414e-10
-1.52043e-17
1.47057e-10
-2.52983e-10
6.93656e-18
1.44833e-10
-2.46293e-10
4.28211e-18
1.41618e-10
-2.38544e-10
3.00369e-17
1.37509e-10
-2.2991e-10
3.49438e-17
1.32612e-10
-2.20565e-10
5.69447e-17
1.27039e-10
-2.10686e-10
7.11752e-17
1.20908e-10
-2.00435e-10
8.81911e-17
1.14332e-10
-1.8997e-10
9.77628e-17
1.07424e-10
-1.79415e-10
9.61012e-17
1.0029e-10
-1.6889e-10
8.9087e-17
9.3028e-11
-1.58487e-10
7.04586e-17
8.57295e-11
-1.48247e-10
5.35686e-17
7.84694e-11
-1.38304e-10
2.7599e-17
7.13212e-11
-1.286e-10
7.45864e-18
6.4342e-11
-1.19225e-10
-1.17347e-17
5.75848e-11
-1.10124e-10
-2.10002e-17
5.10935e-11
-1.01287e-10
-3.15967e-17
4.48999e-11
-9.2751e-11
-3.79108e-17
3.9037e-11
-8.43909e-11
-4.13465e-17
3.35268e-11
-7.62222e-11
-5.08849e-17
2.83901e-11
-6.81657e-11
-4.57065e-17
2.36435e-11
-6.01842e-11
-4.17111e-17
1.92993e-11
-5.22451e-11
-3.56603e-17
1.53705e-11
-4.42899e-11
-2.90336e-17
1.18673e-11
-3.63255e-11
-1.98305e-17
8.79839e-12
-2.83834e-11
-1.27038e-17
6.17252e-12
-2.0551e-11
-4.2634e-18
3.99762e-12
-1.30203e-11
2.70969e-18
2.28119e-12
-6.13861e-12
1.1267e-17
1.03234e-12
-4.78067e-13
1.93238e-17
2.63927e-13
2.9929e-12
2.86857e-17
2.78441e-12
3.63039e-17
1.48739e-10
-2.69219e-10
-8.52065e-16
1.51733e-10
-2.68853e-10
-5.42759e-16
1.53484e-10
-2.66739e-10
-2.92211e-16
1.53993e-10
-2.62986e-10
-1.54341e-16
1.53289e-10
-2.5771e-10
-9.81787e-17
1.51427e-10
-2.51122e-10
-5.06075e-17
1.48487e-10
-2.43353e-10
-2.69885e-17
1.44566e-10
-2.34623e-10
1.28964e-17
1.39775e-10
-2.25119e-10
2.81666e-17
1.34234e-10
-2.15024e-10
5.36818e-17
1.28067e-10
-2.04518e-10
7.07643e-17
1.21398e-10
-1.93766e-10
8.72477e-17
1.14348e-10
-1.82919e-10
9.66783e-17
1.07031e-10
-1.72097e-10
9.42218e-17
9.95545e-11
-1.61413e-10
8.79207e-17
9.20133e-11
-1.50945e-10
6.94677e-17
8.44966e-11
-1.40729e-10
5.32681e-17
7.7075e-11
-1.30883e-10
2.78224e-17
6.98172e-11
-1.21342e-10
8.51816e-18
6.27746e-11
-1.12183e-10
-1.0308e-17
5.59948e-11
-1.03344e-10
-1.95415e-17
4.95161e-11
-9.48087e-11
-3.0062e-17
4.33651e-11
-8.66007e-11
-3.60877e-17
3.75696e-11
-7.85958e-11
-3.95404e-17
3.21473e-11
-7.08005e-11
-4.97388e-17
2.71148e-11
-6.31339e-11
-4.41737e-17
2.24852e-11
-5.5555e-11
-3.96668e-17
1.82676e-11
-4.8028e-11
-3.30475e-17
1.44722e-11
-4.04949e-11
-2.5974e-17
1.11067e-11
-3.29602e-11
-1.64774e-17
8.17717e-12
-2.54541e-11
-9.32672e-18
5.68965e-12
-1.80635e-11
-1.23273e-18
3.64862e-12
-1.09792e-11
5.18039e-18
2.05683e-12
-4.54663e-12
1.28095e-17
9.1633e-13
6.62776e-13
1.99035e-17
2.28749e-13
3.68102e-12
2.84526e-17
3.01383e-12
3.54523e-17
1.56385e-10
-2.72958e-10
-7.3237e-16
1.58805e-10
-2.71276e-10
-4.23509e-16
1.599e-10
-2.67835e-10
-2.53345e-16
1.59689e-10
-2.62777e-10
-1.23476e-16
1.58225e-10
-2.56247e-10
-1.13426e-16
1.55586e-10
-2.48483e-10
-6.40943e-17
1.51872e-10
-2.3964e-10
-4.51946e-17
1.47199e-10
-2.2995e-10
5.58453e-18
1.41694e-10
-2.19614e-10
2.33954e-17
1.3549e-10
-2.08819e-10
5.44974e-17
1.2872e-10
-1.97748e-10
7.22411e-17
1.21517e-10
-1.86561e-10
9.03077e-17
1.14003e-10
-1.75404e-10
9.85897e-17
1.06293e-10
-1.64388e-10
9.66163e-17
9.8495e-11
-1.53613e-10
9.0003e-17
9.06997e-11
-1.4315e-10
7.21712e-17
8.2992e-11
-1.3302e-10
5.57611e-17
7.54372e-11
-1.23328e-10
3.08074e-17
6.80979e-11
-1.14002e-10
1.15784e-17
6.10194e-11
-1.05104e-10
-7.14954e-18
5.42431e-11
-9.65679e-11
-1.68427e-17
4.78013e-11
-8.83669e-11
-2.75287e-17
4.1715e-11
-8.0515e-11
-3.36211e-17
3.6007e-11
-7.28881e-11
-3.66491e-17
3.06902e-11
-6.54844e-11
-4.80659e-17
2.57774e-11
-5.82217e-11
-4.2323e-17
2.12781e-11
-5.1056e-11
-3.77525e-17
1.71983e-11
-4.39487e-11
-3.11359e-17
1.35457e-11
-3.68427e-11
-2.38625e-17
1.03254e-11
-2.97401e-11
-1.43559e-17
7.54137e-12
-2.26702e-11
-7.0954e-18
5.1969e-12
-1.57191e-11
7.49667e-19
3.29325e-12
-9.0755e-12
6.9628e-18
1.82871e-12
-3.08186e-12
1.39358e-17
7.98419e-13
1.69342e-12
2.04922e-17
1.92941e-13
4.28703e-12
2.83768e-17
3.20743e-12
3.49496e-17
1.64215e-10
-2.76119e-10
-7.64463e-16
1.65953e-10
-2.73018e-10
-5.45295e-16
1.66286e-10
-2.68171e-10
-3.13199e-16
1.6526e-10
-2.61753e-10
-1.95772e-16
1.62953e-10
-2.53942e-10
-1.62702e-16
1.59467e-10
-2.44998e-10
-1.04797e-16
1.54924e-10
-2.35097e-10
-6.82971e-17
1.49458e-10
-2.24485e-10
-6.19532e-18
1.43212e-10
-2.13369e-10
2.02122e-17
1.36332e-10
-2.01939e-10
5.59509e-17
1.28959e-10
-1.90375e-10
7.67211e-17
1.21229e-10
-1.7883e-10
9.55895e-17
1.13268e-10
-1.67442e-10
1.0426e-16
1.05189e-10
-1.56309e-10
1.01953e-16
9.70965e-11
-1.4552e-10
9.58099e-17
8.90771e-11
-1.3513e-10
7.77233e-17
8.12099e-11
-1.25152e-10
6.13532e-17
7.35535e-11
-1.15672e-10
3.61414e-17
6.61637e-11
-1.06612e-10
1.68674e-17
5.90788e-11
-9.80198e-11
-2.38485e-18
5.23335e-11
-8.98228e-11
-1.27368e-17
4.59539e-11
-8.19874e-11
-2.39611e-17
3.99551e-11
-7.45169e-11
-3.02412e-17
3.43548e-11
-6.7288e-11
-3.37545e-17
2.91614e-11
-6.02915e-11
-4.55425e-17
2.43836e-11
-5.34445e-11
-3.97501e-17
2.00274e-11
-4.67002e-11
-3.49597e-17
1.60962e-11
-4.0018e-11
-2.81339e-17
1.25952e-11
-3.33419e-11
-2.07434e-17
9.5272e-12
-2.66723e-11
-1.12058e-17
6.89404e-12
-2.00372e-11
-4.04252e-18
4.69665e-12
-1.35217e-11
3.50588e-18
2.9333e-12
-7.31202e-12
9.33761e-18
1.59798e-12
-1.74629e-12
1.56507e-17
6.79217e-13
2.61256e-12
2.15032e-17
1.56691e-13
4.8101e-12
2.86908e-17
3.36479e-12
3.47664e-17
1.72182e-10
-2.78569e-10
-7.5605e-16
1.73113e-10
-2.73953e-10
-4.46254e-16
1.72571e-10
-2.67631e-10
-2.7802e-16
1.7063e-10
-2.59814e-10
-1.52494e-16
1.67395e-10
-2.50708e-10
-1.64921e-16
1.62993e-10
-2.40597e-10
-1.0741e-16
1.57569e-10
-2.29674e-10
-7.82287e-17
1.51277e-10
-2.18192e-10
-8.14279e-18
1.44272e-10
-2.06364e-10
2.03363e-17
1.36711e-10
-1.94377e-10
6.10781e-17
1.28742e-10
-1.82404e-10
8.32461e-17
1.20503e-10
-1.70589e-10
1.04148e-16
1.12118e-10
-1.59056e-10
1.125e-16
1.037e-10
-1.4789e-10
1.10822e-16
9.5346e-11
-1.37165e-10
1.04363e-16
8.71378e-11
-1.26922e-10
8.64552e-17
7.91468e-11
-1.1716e-10
6.94115e-17
7.14238e-11
-1.07949e-10
4.40162e-17
6.40169e-11
-9.92048e-11
2.40695e-17
5.69571e-11
-9.09602e-11
4.13383e-18
5.02717e-11
-8.31375e-11
-7.28236e-18
4.39803e-11
-7.5696e-11
-1.92228e-17
3.80923e-11
-6.86295e-11
-2.60542e-17
3.262e-11
-6.1816e-11
-2.94784e-17
2.75674e-11
-5.52395e-11
-4.23752e-17
2.29395e-11
-4.88171e-11
-3.67307e-17
1.8739e-11
-4.25e-11
-3.22234e-17
1.49667e-11
-3.62462e-11
-2.56961e-17
1.16254e-11
-3.00009e-11
-1.83888e-17
8.71601e-12
-2.3763e-11
-9.04824e-18
6.23845e-12
-1.75597e-11
-1.88698e-18
4.19151e-12
-1.14747e-11
5.44301e-18
2.57067e-12
-5.69103e-12
1.11832e-17
1.3659e-12
-5.41252e-13
1.70519e-17
5.59383e-13
3.41948e-12
2.25296e-17
1.20207e-13
5.24983e-12
2.9156e-17
3.48567e-12
3.4803e-17
1.80207e-10
-2.8017e-10
-5.19925e-16
1.80201e-10
-2.7395e-10
-4.24529e-16
1.78666e-10
-2.66098e-10
-2.31101e-16
1.75708e-10
-2.56857e-10
-1.6542e-16
1.71461e-10
-2.46463e-10
-1.73495e-16
1.66081e-10
-2.35218e-10
-1.25328e-16
1.59732e-10
-2.23326e-10
-8.68358e-17
1.52587e-10
-2.11047e-10
-1.12411e-17
1.44814e-10
-1.98592e-10
2.33518e-17
1.36577e-10
-1.8614e-10
6.76623e-17
1.28028e-10
-1.73854e-10
9.27279e-17
1.19305e-10
-1.61865e-10
1.14742e-16
1.1053e-10
-1.5028e-10
1.2399e-16
1.01809e-10
-1.39169e-10
1.22122e-16
9.32338e-11
-1.28589e-10
1.16069e-16
8.4877e-11
-1.18564e-10
9.75482e-17
7.68019e-11
-1.09083e-10
8.01954e-17
6.90505e-11
-1.00198e-10
5.392e-17
6.16624e-11
-9.18162e-11
3.32972e-17
5.46605e-11
-8.39584e-11
1.21788e-17
4.80649e-11
-7.65419e-11
-3.83662e-19
4.18883e-11
-6.95194e-11
-1.33657e-17
3.61345e-11
-6.28762e-11
-2.08178e-17
3.08105e-11
-5.64922e-11
-2.52246e-17
2.5916e-11
-5.03455e-11
-3.81684e-17
2.14524e-11
-4.4354e-11
-3.28851e-17
1.74194e-11
-3.84673e-11
-2.84302e-17
1.38155e-11
-3.26426e-11
-2.20108e-17
1.06413e-11
-2.68269e-11
-1.48377e-17
7.89613e-12
-2.10179e-11
-5.72427e-18
5.57815e-12
-1.52417e-11
1.21709e-18
3.68425e-12
-9.58066e-12
8.2217e-18
2.20739e-12
-4.21397e-12
1.36641e-17
1.13381e-12
5.32636e-13
1.90405e-17
4.39629e-13
4.11409e-12
2.39971e-17
8.37115e-14
5.60633e-12
3.00354e-17
3.57006e-12
3.52524e-17
1.88207e-10
-2.80766e-10
-6.67729e-16
1.87121e-10
-2.72867e-10
-3.73242e-16
1.84469e-10
-2.63447e-10
-2.07274e-16
1.8039e-10
-2.5278e-10
-1.11249e-16
1.75053e-10
-2.41126e-10
-1.60061e-16
1.68637e-10
-2.28802e-10
-1.12213e-16
1.61329e-10
-2.16018e-10
-8.50922e-17
1.53315e-10
-2.03034e-10
-4.42261e-18
1.44776e-10
-1.90053e-10
2.97641e-17
1.3588e-10
-1.77243e-10
7.82712e-17
1.26778e-10
-1.64752e-10
1.04232e-16
1.17607e-10
-1.52692e-10
1.28531e-16
1.08483e-10
-1.41155e-10
1.37654e-16
9.95043e-11
-1.3019e-10
1.3653e-16
9.07531e-11
-1.19836e-10
1.29967e-16
8.22931e-11
-1.10104e-10
1.11321e-16
7.41774e-11
-1.00966e-10
9.29972e-17
6.64387e-11
-9.24587e-11
6.59729e-17
5.91072e-11
-8.44841e-11
4.4145e-17
5.21977e-11
-7.70489e-11
2.18158e-17
4.57224e-11
-7.00666e-11
7.78182e-18
3.96876e-11
-6.34845e-11
-6.32981e-18
3.40912e-11
-5.72802e-11
-1.47543e-17
2.89353e-11
-5.13364e-11
-1.93846e-17
2.42156e-11
-4.56263e-11
-3.32559e-17
1.993e-11
-4.00688e-11
-2.84762e-17
1.60756e-11
-3.46132e-11
-2.46633e-17
1.26488e-11
-2.92161e-11
-1.88076e-17
9.6484e-12
-2.38267e-11
-1.19612e-17
7.07214e-12
-1.84418e-11
-3.23402e-18
4.91688e-12
-1.30865e-11
3.57222e-18
3.1778e-12
-7.84145e-12
1.03318e-17
1.84562e-12
-2.88156e-12
1.57074e-17
9.03115e-13
1.47548e-12
2.07555e-17
3.2071e-13
4.69695e-12
2.54403e-17
4.74465e-14
5.88019e-12
3.10256e-17
3.6182e-12
3.58316e-17
1.96058e-10
-2.80186e-10
-2.68544e-16
1.93745e-10
-2.70556e-10
-2.50194e-16
1.89852e-10
-2.59555e-10
-9.04824e-17
1.84557e-10
-2.47486e-10
-8.07742e-17
1.78058e-10
-2.34628e-10
-1.34826e-16
1.70561e-10
-2.21305e-10
-1.0908e-16
1.62271e-10
-2.07729e-10
-7.78809e-17
1.53388e-10
-1.94152e-10
1.79412e-18
1.44098e-10
-1.80763e-10
4.05435e-17
1.34571e-10
-1.67715e-10
9.02647e-17
1.24957e-10
-1.55136e-10
1.19245e-16
1.15384e-10
-1.43118e-10
1.43975e-16
1.05961e-10
-1.3173e-10
1.54447e-16
9.67765e-11
-1.21004e-10
1.52757e-16
8.79014e-11
-1.1096e-10
1.46555e-16
7.93882e-11
-1.0159e-10
1.26827e-16
7.12792e-11
-9.2856e-11
1.07982e-16
6.35967e-11
-8.47758e-11
7.95627e-17
5.63614e-11
-7.72481e-11
5.6662e-17
4.95794e-11
-7.02668e-11
3.27166e-17
4.32555e-11
-6.37426e-11
1.72491e-17
3.73892e-11
-5.7618e-11
1.74341e-18
3.19732e-11
-5.18644e-11
-7.64475e-18
2.70046e-11
-4.6368e-11
-1.37024e-17
2.24755e-11
-4.10976e-11
-2.71964e-17
1.83809e-11
-3.59745e-11
-2.31969e-17
1.47153e-11
-3.09478e-11
-1.97159e-17
1.14734e-11
-2.59744e-11
-1.42642e-17
8.65239e-12
-2.10058e-11
-7.77401e-18
6.2489e-12
-1.60383e-11
4.79457e-19
4.2586e-12
-1.10961e-11
6.92593e-18
2.67527e-12
-6.25794e-12
1.32667e-17
1.48764e-12
-1.69365e-12
1.83501e-17
6.75323e-13
2.28817e-12
2.2965e-17
2.03431e-13
5.16933e-12
2.72339e-17
1.16699e-14
6.07258e-12
3.23042e-17
3.63059e-12
3.67187e-17
2.03626e-10
-2.78252e-10
-2.77381e-16
1.99933e-10
-2.66864e-10
-1.586e-16
1.94678e-10
-2.543e-10
-6.53444e-17
1.88075e-10
-2.40885e-10
-3.01529e-17
1.80355e-10
-2.26909e-10
-1.20032e-16
1.71745e-10
-2.12696e-10
-8.93469e-17
1.62468e-10
-1.98452e-10
-7.0089e-17
1.5273e-10
-1.84414e-10
1.57099e-17
1.4272e-10
-1.70753e-10
5.21889e-17
1.32607e-10
-1.576e-10
1.06656e-16
1.22531e-10
-1.4506e-10
1.35432e-16
1.12615e-10
-1.332e-10
1.62841e-16
1.02953e-10
-1.22067e-10
1.72701e-16
9.36222e-11
-1.11673e-10
1.718e-16
8.46808e-11
-1.02017e-10
1.64589e-16
7.6169e-11
-9.30772e-11
1.44484e-16
6.81169e-11
-8.48024e-11
1.24288e-16
6.05362e-11
-7.71947e-11
9.47931e-17
5.34377e-11
-7.01488e-11
7.03338e-17
4.68189e-11
-6.36479e-11
4.48914e-17
4.06773e-11
-5.76008e-11
2.7741e-17
3.5006e-11
-5.19465e-11
1.08507e-17
2.97924e-11
-4.66511e-11
1.76055e-19
2.50296e-11
-4.16051e-11
-6.3293e-18
2.07061e-11
-3.67745e-11
-2.04495e-17
1.68143e-11
-3.20829e-11
-1.73011e-17
1.33466e-11
-2.74803e-11
-1.48109e-17
1.02963e-11
-2.29242e-11
-1.01737e-17
7.65938e-12
-1.8369e-11
-4.23015e-18
5.43151e-12
-1.38104e-11
3.45242e-18
3.60747e-12
-9.27197e-12
9.61803e-18
2.17991e-12
-4.83016e-12
1.56265e-17
1.13582e-12
-6.49252e-13
2.0598e-17
4.52005e-13
2.9724e-12
2.49182e-17
8.86394e-14
5.53322e-12
2.89504e-17
-2.33454e-14
6.18522e-12
3.36167e-17
3.60798e-12
3.76323e-17
2.10732e-10
-2.7478e-10
3.97707e-17
2.05512e-10
-2.61644e-10
-5.56524e-17
1.98782e-10
-2.4757e-10
3.61637e-17
1.90796e-10
-2.329e-10
-3.93802e-19
1.81812e-10
-2.17925e-10
-8.63692e-17
1.72078e-10
-2.02961e-10
-7.80162e-17
1.61826e-10
-1.882e-10
-5.21678e-17
1.51267e-10
-1.73856e-10
2.83073e-17
1.40587e-10
-1.60073e-10
7.0523e-17
1.29946e-10
-1.46958e-10
1.23438e-16
1.19477e-10
-1.34588e-10
1.5604e-16
1.09285e-10
-1.23006e-10
1.82389e-16
9.94534e-11
-1.12234e-10
1.94046e-16
9.00434e-11
-1.02261e-10
1.91704e-16
8.10989e-11
-9.30707e-11
1.84809e-16
7.26466e-11
-8.46238e-11
1.63023e-16
6.47043e-11
-7.68583e-11
1.42163e-16
5.72724e-11
-6.97621e-11
1.10899e-16
5.03519e-11
-6.32274e-11
8.51951e-17
4.39321e-11
-5.72278e-11
5.7915e-17
3.80031e-11
-5.16715e-11
3.92482e-17
3.25523e-11
-4.64953e-11
2.07751e-17
2.75624e-11
-4.16614e-11
8.91687e-18
2.30225e-11
-3.70652e-11
6.5546e-19
1.89184e-11
-3.26706e-11
-1.25724e-17
1.524e-11
-2.84047e-11
-1.05693e-17
1.19782e-11
-2.42186e-11
-8.68234e-18
9.12504e-12
-2.00712e-11
-4.72267e-18
6.67576e-12
-1.59197e-11
6.57012e-19
4.62529e-12
-1.17598e-11
7.64528e-18
2.96781e-12
-7.61434e-12
1.32957e-17
1.69508e-12
-3.55717e-12
1.87583e-17
7.92649e-13
2.53535e-13
2.33772e-17
2.34802e-13
3.5307e-12
2.72502e-17
-2.27761e-14
5.79136e-12
3.08988e-17
-5.73074e-14
6.22044e-12
3.50792e-17
3.55142e-12
3.87386e-17
2.17183e-10
-2.69582e-10
-4.114e-17
2.10289e-10
-2.5475e-10
-3.00826e-17
2.01986e-10
-2.39266e-10
2.03378e-17
1.9256e-10
-2.23474e-10
2.23016e-17
1.82293e-10
-2.07659e-10
-8.60702e-17
1.71445e-10
-1.92114e-10
-6.02451e-17
1.60255e-10
-1.7701e-10
-4.42048e-17
1.4893e-10
-1.62531e-10
4.72442e-17
1.37649e-10
-1.48792e-10
8.56648e-17
1.26558e-10
-1.35866e-10
1.45234e-16
1.15774e-10
-1.23803e-10
1.75923e-16
1.05388e-10
-1.12618e-10
2.05554e-16
9.54646e-11
-1.02308e-10
2.15518e-16
8.60489e-11
-9.28441e-11
2.14016e-16
7.71691e-11
-8.41891e-11
2.05378e-16
6.88376e-11
-7.62911e-11
1.83065e-16
6.10594e-11
-6.90783e-11
1.60487e-16
5.38241e-11
-6.25259e-11
1.28033e-16
4.71228e-11
-5.6525e-11
1.00603e-16
4.0937e-11
-5.10415e-11
7.17806e-17
3.52501e-11
-4.59842e-11
5.14079e-17
3.00442e-11
-4.12889e-11
3.14733e-17
2.52978e-11
-3.69151e-11
1.81481e-17
2.09967e-11
-3.27639e-11
9.3166e-18
1.71242e-11
-2.87983e-11
-4.12522e-18
1.36685e-11
-2.49491e-11
-3.25992e-18
1.06191e-11
-2.11693e-11
-2.66877e-18
7.96749e-12
-1.74196e-11
2.44454e-19
5.70818e-12
-1.36604e-11
4.88777e-18
3.83577e-12
-9.88729e-12
1.11262e-17
2.3441e-12
-6.12247e-12
1.63534e-17
1.22428e-12
-2.43704e-12
2.13717e-17
4.60686e-13
1.01753e-12
2.57998e-17
2.54179e-14
3.96646e-12
2.93461e-17
-1.29887e-13
5.94725e-12
3.27489e-17
-8.99099e-14
6.18117e-12
3.65544e-17
3.46229e-12
3.9872e-17
2.22724e-10
-2.62487e-10
-2.05943e-17
2.14037e-10
-2.46064e-10
-5.71821e-17
2.04089e-10
-2.29317e-10
3.99639e-17
1.93195e-10
-2.12581e-10
1.65871e-17
1.81654e-10
-1.96118e-10
-6.29267e-17
1.69734e-10
-1.80194e-10
-5.17445e-17
1.5767e-10
-1.64946e-10
-2.01282e-17
1.45659e-10
-1.50521e-10
6.28597e-17
1.33866e-10
-1.36998e-10
1.10546e-16
1.22419e-10
-1.24418e-10
1.6524e-16
1.11415e-10
-1.12798e-10
2.01145e-16
1.00926e-10
-1.02127e-10
2.27552e-16
9.09971e-11
-9.23772e-11
2.39838e-16
8.16548e-11
-8.35002e-11
2.3571e-16
7.29112e-11
-7.54434e-11
2.2745e-16
6.47639e-11
-6.81424e-11
2.02867e-16
5.72053e-11
-6.15177e-11
1.79655e-16
5.0214e-11
-5.55337e-11
1.45233e-16
4.37724e-11
-5.00822e-11
1.16625e-16
3.78544e-11
-4.51229e-11
8.59673e-17
3.24376e-11
-4.05668e-11
6.41954e-17
2.74992e-11
-3.635e-11
4.26709e-17
2.30144e-11
-3.24303e-11
2.80811e-17
1.89662e-11
-2.87154e-11
1.73111e-17
1.5336e-11
-2.51681e-11
5.31934e-18
1.21106e-11
-2.17237e-11
4.75947e-18
9.27894e-12
-1.83376e-11
4.51696e-18
6.83176e-12
-1.49724e-11
6.53024e-18
4.7635e-12
-1.1592e-11
1.04355e-17
3.06865e-12
-8.19224e-12
1.57905e-17
1.74094e-12
-4.79449e-12
2.03674e-17
7.71091e-13
-1.46683e-12
2.47146e-17
1.4257e-13
1.64649e-12
2.87107e-17
-1.7439e-13
4.28395e-12
3.17693e-17
-2.31726e-13
6.00522e-12
3.47932e-17
-1.20829e-13
6.07102e-12
3.8144e-17
3.34226e-12
4.11477e-17
2.27099e-10
-2.53327e-10
-6.72934e-17
2.16519e-10
-2.35485e-10
-5.45517e-17
2.04882e-10
-2.17681e-10
-5.74914e-18
1.92526e-10
-2.00225e-10
1.36399e-17
1.79757e-10
-1.8335e-10
-8.23591e-17
1.66839e-10
-1.67275e-10
-3.9246e-17
1.53994e-10
-1.52101e-10
-1.65726e-17
1.41404e-10
-1.3793e-10
8.48174e-17
1.2921e-10
-1.24803e-10
1.26583e-16
1.17519e-10
-1.12725e-10
1.90861e-16
1.06404e-10
-1.01681e-10
2.22481e-16
9.59129e-11
-9.16337e-11
2.53053e-16
8.60709e-11
-8.25331e-11
2.62175e-16
7.68857e-11
-7.43132e-11
2.59138e-16
6.83521e-11
-6.69075e-11
2.48382e-16
6.04534e-11
-6.0242e-11
2.23376e-16
5.31693e-11
-5.42315e-11
1.98221e-16
4.64688e-11
-4.88321e-11
1.62766e-16
4.03256e-11
-4.39377e-11
1.32491e-16
3.47074e-11
-3.9504e-11
1.00492e-16
2.95866e-11
-3.54452e-11
7.71814e-17
2.49363e-11
-3.1699e-11
5.43062e-17
2.07292e-11
-2.8223e-11
3.82201e-17
1.6946e-11
-2.49319e-11
2.68614e-17
1.3567e-11
-2.1789e-11
1.51388e-17
1.05779e-11
-1.87346e-11
1.32474e-17
7.96742e-12
-1.57269e-11
1.14819e-17
5.72623e-12
-1.27311e-11
1.22738e-17
3.84879e-12
-9.71434e-12
1.52971e-17
2.32977e-12
-6.67297e-12
1.97548e-17
1.16305e-12
-3.62744e-12
2.37733e-17
3.39182e-13
-6.42558e-13
2.75553e-17
-1.59001e-13
2.14517e-12
3.12537e-17
-3.62815e-13
4.48834e-12
3.39307e-17
-3.27295e-13
5.97036e-12
3.66837e-17
-1.49724e-13
5.89422e-12
3.96729e-17
3.19336e-12
4.23434e-17
2.29981e-10
-2.41993e-10
-2.63778e-16
2.17459e-10
-2.22964e-10
-1.82486e-16
2.04142e-10
-2.04364e-10
-5.43568e-17
1.90378e-10
-1.86462e-10
-2.92755e-17
1.76469e-10
-1.69441e-10
-7.12816e-17
1.62665e-10
-1.53471e-10
-3.92155e-17
1.49167e-10
-1.38603e-10
1.09444e-17
1.3613e-10
-1.24893e-10
9.96547e-17
1.23669e-10
-1.12341e-10
1.55767e-16
1.11862e-10
-1.00916e-10
2.11137e-16
1.00756e-10
-9.05725e-11
2.4982e-16
9.0373e-11
-8.12485e-11
2.74628e-16
8.07166e-11
-7.28743e-11
2.86808e-16
7.17749e-11
-6.53694e-11
2.79982e-16
6.35261e-11
-5.86563e-11
2.69945e-16
5.59397e-11
-5.26537e-11
2.42311e-16
4.89839e-11
-4.72735e-11
2.16825e-16
4.26187e-11
-4.24656e-11
1.7948e-16
3.68104e-11
-3.8128e-11
1.48353e-16
3.15215e-11
-3.42142e-11
1.1476e-16
2.67199e-11
-3.06428e-11
9.03557e-17
2.23759e-11
-2.73543e-11
6.60627e-17
1.84601e-11
-2.43069e-11
4.87816e-17
1.49518e-11
-2.14231e-11
3.54469e-17
1.18307e-11
-1.86676e-11
2.57156e-17
9.08216e-12
-1.59859e-11
2.22588e-17
6.69471e-12
-1.33392e-11
1.95085e-17
4.65948e-12
-1.06956e-11
1.92455e-17
2.97123e-12
-8.02581e-12
2.13975e-17
1.62506e-12
-5.32647e-12
2.48164e-17
6.15194e-13
-2.6172e-12
2.80499e-17
-6.77263e-14
4.08176e-14
3.10416e-17
-4.41284e-13
2.51926e-12
3.42073e-17
-5.38014e-13
4.58567e-12
3.63392e-17
-4.15562e-13
5.84861e-12
3.86866e-17
-1.76239e-13
5.6557e-12
4.12314e-17
3.01797e-12
4.36022e-17
2.31064e-10
-2.28394e-10
-2.0543e-16
2.16595e-10
-2.08496e-10
-1.5556e-16
2.01656e-10
-1.89426e-10
-1.09007e-16
1.86588e-10
-1.71395e-10
-4.0339e-17
1.71674e-10
-1.54528e-10
-1.07143e-16
1.57137e-10
-1.38934e-10
-2.9189e-17
1.43147e-10
-1.24612e-10
8.18464e-18
1.29825e-10
-1.1157e-10
1.2333e-16
1.17251e-10
-9.97655e-11
1.69733e-16
1.05471e-10
-8.9134e-11
2.37938e-16
9.45036e-11
-7.96026e-11
2.69253e-16
8.43452e-11
-7.10872e-11
2.99356e-16
7.49758e-11
-6.35023e-11
3.06801e-16
6.63648e-11
-5.67562e-11
3.01687e-16
5.84748e-11
-5.07638e-11
2.88637e-16
5.12626e-11
-4.54394e-11
2.61079e-16
4.4686e-11
-4.06946e-11
2.33721e-16
3.86976e-11
-3.64757e-11
1.95827e-16
3.32576e-11
-3.26864e-11
1.63344e-16
2.8324e-11
-2.92796e-11
1.28849e-16
2.38619e-11
-2.61797e-11
1.03252e-16
1.98392e-11
-2.33308e-11
7.78826e-17
1.62258e-11
-2.06931e-11
5.92265e-17
1.29999e-11
-1.81967e-11
4.53821e-17
1.01413e-11
-1.58086e-11
3.64096e-17
7.63535e-12
-1.34796e-11
3.15623e-17
5.47107e-12
-1.11746e-11
2.71847e-17
3.64022e-12
-8.86447e-12
2.55978e-17
2.13811e-12
-6.52336e-12
2.6761e-17
9.60511e-13
-4.14849e-12
2.91629e-17
1.02216e-13
-1.75846e-12
3.17151e-17
-4.45871e-13
5.89409e-13
3.40227e-17
-7.01499e-13
2.77547e-12
3.67753e-17
-6.98111e-13
4.58293e-12
3.84508e-17
-4.95468e-13
5.64669e-12
4.04868e-17
-1.99998e-13
5.36106e-12
4.26666e-17
2.81883e-12
4.47248e-17
2.29962e-10
-2.12557e-10
-5.0898e-16
2.13633e-10
-1.9217e-10
-3.43008e-16
1.97208e-10
-1.73003e-10
-1.81298e-16
1.81007e-10
-1.55195e-10
-1.04665e-16
1.65279e-10
-1.38801e-10
-9.53944e-17
1.50208e-10
-1.23862e-10
-3.59668e-17
1.35921e-10
-1.10325e-10
4.04302e-17
1.225e-10
-9.81481e-11
1.35116e-16
1.09985e-10
-8.72494e-11
2.0095e-16
9.83887e-11
-7.75352e-11
2.55091e-16
8.76975e-11
-6.89089e-11
2.95304e-16
7.78825e-11
-6.12693e-11
3.16954e-16
6.8902e-11
-5.4519e-11
3.28409e-16
6.07076e-11
-4.85594e-11
3.18661e-16
5.32475e-11
-4.3301e-11
3.07057e-16
4.64676e-11
-3.86573e-11
2.76926e-16
4.03173e-11
-3.45418e-11
2.49888e-16
3.4743e-11
-3.08997e-11