/*--------------------------------*- C++ -*----------------------------------*\
| =========                 |                                                 |
| \\      /  F ield         | OpenFOAM: The Open Source CFD Toolbox           |
|  \\    /   O peration     | Version:  v2012                                 |
|   \\  /    A nd           | Website:  www.openfoam.com                      |
|    \\/     M anipulation  |                                                 |
\*---------------------------------------------------------------------------*/
FoamFile
{
    version     2.0;
    format      ascii;
    class       volScalarField;
    location    "0.7";
    object      p_rgh;
}
// * * * * * * * * * * * * * * * * * * * * * * * * * * * * * * * * * * * * * //

dimensions      [1 -1 -2 0 0 0 0];


internalField   nonuniform List<scalar> 
2619
(
3.11264e+06
3.10995e+06
3.10804e+06
3.10653e+06
3.10531e+06
3.10382e+06
3.10265e+06
3.10197e+06
3.10143e+06
3.10108e+06
3.10078e+06
3.1006e+06
3.10046e+06
3.10036e+06
3.10029e+06
3.10023e+06
3.11711e+06
3.11283e+06
3.11043e+06
3.10842e+06
3.10635e+06
3.10496e+06
3.10348e+06
3.10247e+06
3.10185e+06
3.10132e+06
3.10099e+06
3.10073e+06
3.10056e+06
3.10044e+06
3.10035e+06
3.10027e+06
3.10022e+06
3.10017e+06
3.11219e+06
3.11075e+06
3.11011e+06
3.1085e+06
3.10647e+06
3.10489e+06
3.10335e+06
3.10239e+06
3.10181e+06
3.10129e+06
3.10097e+06
3.10072e+06
3.10054e+06
3.10042e+06
3.10033e+06
3.10026e+06
3.10021e+06
3.10016e+06
3.10013e+06
3.1051e+06
3.10597e+06
3.10731e+06
3.10698e+06
3.10596e+06
3.10461e+06
3.10319e+06
3.10232e+06
3.10171e+06
3.10124e+06
3.10093e+06
3.10069e+06
3.10052e+06
3.1004e+06
3.10031e+06
3.10025e+06
3.1002e+06
3.10016e+06
3.10012e+06
3.10494e+06
3.10521e+06
3.10635e+06
3.1062e+06
3.10533e+06
3.10419e+06
3.10307e+06
3.10225e+06
3.10162e+06
3.10117e+06
3.10088e+06
3.10065e+06
3.10048e+06
3.10037e+06
3.10029e+06
3.10023e+06
3.10018e+06
3.10014e+06
3.10012e+06
3.10387e+06
3.10542e+06
3.10622e+06
3.10559e+06
3.10479e+06
3.10379e+06
3.10287e+06
3.10208e+06
3.10149e+06
3.1011e+06
3.10081e+06
3.10059e+06
3.10044e+06
3.10033e+06
3.10026e+06
3.10021e+06
3.10017e+06
3.10013e+06
3.10011e+06
3.1004e+06
3.10368e+06
3.10489e+06
3.10518e+06
3.10425e+06
3.10323e+06
3.10248e+06
3.10188e+06
3.10135e+06
3.10098e+06
3.10071e+06
3.10052e+06
3.10038e+06
3.10029e+06
3.10023e+06
3.10018e+06
3.10015e+06
3.10012e+06
3.10009e+06
3.09244e+06
3.09843e+06
3.1023e+06
3.10366e+06
3.10353e+06
3.10279e+06
3.10196e+06
3.10144e+06
3.10111e+06
3.10083e+06
3.1006e+06
3.10043e+06
3.10031e+06
3.10024e+06
3.10019e+06
3.10015e+06
3.10012e+06
3.1001e+06
3.10008e+06
3.08758e+06
3.09741e+06
3.1019e+06
3.10331e+06
3.10322e+06
3.1021e+06
3.10154e+06
3.10121e+06
3.10088e+06
3.10065e+06
3.10047e+06
3.10033e+06
3.10024e+06
3.10018e+06
3.10015e+06
3.10012e+06
3.1001e+06
3.10008e+06
3.10006e+06
3.08418e+06
3.09288e+06
3.09893e+06
3.10147e+06
3.10244e+06
3.10165e+06
3.10116e+06
3.1009e+06
3.10059e+06
3.10044e+06
3.10031e+06
3.10022e+06
3.10014e+06
3.10012e+06
3.1001e+06
3.10008e+06
3.10007e+06
3.10006e+06
3.10005e+06
3.08234e+06
3.09105e+06
3.09674e+06
3.10007e+06
3.10124e+06
3.10077e+06
3.10052e+06
3.10043e+06
3.10023e+06
3.10018e+06
3.10013e+06
3.10008e+06
3.10005e+06
3.10004e+06
3.10004e+06
3.10003e+06
3.10003e+06
3.10003e+06
3.10003e+06
3.08571e+06
3.09152e+06
3.09568e+06
3.09834e+06
3.09948e+06
3.09953e+06
3.09968e+06
3.09986e+06
3.09982e+06
3.09987e+06
3.0999e+06
3.09992e+06
3.09993e+06
3.09995e+06
3.09997e+06
3.09998e+06
3.1e+06
3.10001e+06
3.10001e+06
3.10002e+06
3.10002e+06
3.10002e+06
3.10002e+06
3.08324e+06
3.09004e+06
3.09387e+06
3.09637e+06
3.09775e+06
3.09812e+06
3.09857e+06
3.09906e+06
3.09929e+06
3.09951e+06
3.09964e+06
3.09975e+06
3.09981e+06
3.09987e+06
3.09991e+06
3.09994e+06
3.09997e+06
3.09998e+06
3.1e+06
3.10001e+06
3.10001e+06
3.10001e+06
3.10002e+06
3.08774e+06
3.08936e+06
3.09196e+06
3.09483e+06
3.09646e+06
3.09731e+06
3.0978e+06
3.0983e+06
3.09882e+06
3.09921e+06
3.09942e+06
3.09961e+06
3.09971e+06
3.09979e+06
3.09986e+06
3.0999e+06
3.09994e+06
3.09996e+06
3.09998e+06
3.1e+06
3.1e+06
3.10001e+06
3.10001e+06
3.09142e+06
3.09203e+06
3.09232e+06
3.09399e+06
3.09537e+06
3.0964e+06
3.0972e+06
3.09789e+06
3.09849e+06
3.09896e+06
3.09922e+06
3.09948e+06
3.09961e+06
3.09973e+06
3.09982e+06
3.09987e+06
3.09992e+06
3.09995e+06
3.09997e+06
3.09999e+06
3.1e+06
3.10001e+06
3.10001e+06
3.10215e+06
3.0975e+06
3.09389e+06
3.09332e+06
3.09431e+06
3.09586e+06
3.097e+06
3.09779e+06
3.09845e+06
3.09882e+06
3.09912e+06
3.09942e+06
3.09955e+06
3.0997e+06
3.09979e+06
3.09985e+06
3.09991e+06
3.09994e+06
3.09997e+06
3.09999e+06
3.1e+06
3.10001e+06
3.10001e+06
3.11094e+06
3.09937e+06
3.09394e+06
3.09252e+06
3.09388e+06
3.09556e+06
3.09708e+06
3.09781e+06
3.09844e+06
3.09877e+06
3.09907e+06
3.0994e+06
3.09953e+06
3.09969e+06
3.09978e+06
3.09985e+06
3.09991e+06
3.09994e+06
3.09997e+06
3.09999e+06
3.1e+06
3.10001e+06
3.10002e+06
3.11608e+06
3.10374e+06
3.09643e+06
3.0936e+06
3.09432e+06
3.09582e+06
3.09726e+06
3.09795e+06
3.09858e+06
3.0989e+06
3.09915e+06
3.09945e+06
3.09956e+06
3.09971e+06
3.0998e+06
3.09986e+06
3.09992e+06
3.09995e+06
3.09998e+06
3.09999e+06
3.10001e+06
3.10001e+06
3.10002e+06
3.11501e+06
3.10556e+06
3.09863e+06
3.09514e+06
3.09554e+06
3.09663e+06
3.09775e+06
3.09831e+06
3.09881e+06
3.09906e+06
3.09926e+06
3.09954e+06
3.09963e+06
3.09976e+06
3.09984e+06
3.09989e+06
3.09994e+06
3.09997e+06
3.09999e+06
3.1e+06
3.10001e+06
3.10002e+06
3.10002e+06
3.1152e+06
3.1075e+06
3.10083e+06
3.09752e+06
3.09734e+06
3.09779e+06
3.09854e+06
3.09878e+06
3.09915e+06
3.09932e+06
3.09944e+06
3.09968e+06
3.09973e+06
3.09984e+06
3.0999e+06
3.09993e+06
3.09997e+06
3.09999e+06
3.10001e+06
3.10002e+06
3.10002e+06
3.10003e+06
3.10003e+06
3.11776e+06
3.10861e+06
3.10229e+06
3.09923e+06
3.09894e+06
3.09905e+06
3.09943e+06
3.09949e+06
3.09962e+06
3.09966e+06
3.09969e+06
3.09986e+06
3.09986e+06
3.09993e+06
3.09997e+06
3.09998e+06
3.10001e+06
3.10002e+06
3.10003e+06
3.10003e+06
3.10004e+06
3.10004e+06
3.10004e+06
3.10709e+06
3.10423e+06
3.10178e+06
3.10014e+06
3.09989e+06
3.09991e+06
3.10029e+06
3.10015e+06
3.1001e+06
3.09996e+06
3.09993e+06
3.10005e+06
3.10001e+06
3.10005e+06
3.10005e+06
3.10005e+06
3.10006e+06
3.10005e+06
3.10005e+06
3.10005e+06
3.10005e+06
3.10005e+06
3.10005e+06
3.1079e+06
3.10562e+06
3.10406e+06
3.10234e+06
3.10192e+06
3.10119e+06
3.10122e+06
3.10082e+06
3.10058e+06
3.10034e+06
3.10021e+06
3.10025e+06
3.10016e+06
3.10017e+06
3.10014e+06
3.10011e+06
3.1001e+06
3.10009e+06
3.10008e+06
3.10007e+06
3.10007e+06
3.10006e+06
3.10005e+06
3.11627e+06
3.11294e+06
3.10786e+06
3.10471e+06
3.10331e+06
3.10213e+06
3.10179e+06
3.10117e+06
3.10093e+06
3.10063e+06
3.10046e+06
3.10044e+06
3.10031e+06
3.10029e+06
3.10023e+06
3.10019e+06
3.10016e+06
3.10013e+06
3.10011e+06
3.10009e+06
3.10008e+06
3.10007e+06
3.10006e+06
3.13085e+06
3.12079e+06
3.11143e+06
3.10709e+06
3.10479e+06
3.10342e+06
3.10254e+06
3.10165e+06
3.10137e+06
3.10096e+06
3.10072e+06
3.10063e+06
3.10046e+06
3.1004e+06
3.10032e+06
3.10025e+06
3.1002e+06
3.10016e+06
3.10014e+06
3.10011e+06
3.1001e+06
3.10008e+06
3.10007e+06
3.1358e+06
3.12767e+06
3.11608e+06
3.10957e+06
3.10578e+06
3.10413e+06
3.10309e+06
3.10211e+06
3.10177e+06
3.10124e+06
3.10095e+06
3.10081e+06
3.1006e+06
3.10051e+06
3.1004e+06
3.10031e+06
3.10025e+06
3.1002e+06
3.10016e+06
3.10013e+06
3.10011e+06
3.10009e+06
3.10008e+06
3.1398e+06
3.13086e+06
3.11939e+06
3.11182e+06
3.10731e+06
3.10518e+06
3.10379e+06
3.10261e+06
3.1022e+06
3.10154e+06
3.10118e+06
3.10098e+06
3.10072e+06
3.1006e+06
3.10047e+06
3.10036e+06
3.10028e+06
3.10022e+06
3.10018e+06
3.10014e+06
3.10012e+06
3.1001e+06
3.10008e+06
3.13371e+06
3.12804e+06
3.11936e+06
3.11325e+06
3.10901e+06
3.10635e+06
3.10446e+06
3.10304e+06
3.10256e+06
3.10179e+06
3.10137e+06
3.10112e+06
3.10082e+06
3.10068e+06
3.10052e+06
3.1004e+06
3.10031e+06
3.10024e+06
3.10019e+06
3.10015e+06
3.10012e+06
3.1001e+06
3.10008e+06
3.13219e+06
3.12709e+06
3.1205e+06
3.11505e+06
3.11061e+06
3.10766e+06
3.10533e+06
3.10356e+06
3.10291e+06
3.10201e+06
3.10154e+06
3.10121e+06
3.10088e+06
3.10072e+06
3.10054e+06
3.10042e+06
3.10032e+06
3.10025e+06
3.1002e+06
3.10016e+06
3.10013e+06
3.1001e+06
3.10009e+06
3.13141e+06
3.12883e+06
3.12233e+06
3.11629e+06
3.11127e+06
3.10785e+06
3.10553e+06
3.10408e+06
3.10309e+06
3.10207e+06
3.10163e+06
3.10124e+06
3.1009e+06
3.10073e+06
3.10054e+06
3.10042e+06
3.10032e+06
3.10025e+06
3.10019e+06
3.10015e+06
3.10013e+06
3.1001e+06
3.10008e+06
3.12057e+06
3.11923e+06
3.11601e+06
3.11297e+06
3.10983e+06
3.1076e+06
3.1053e+06
3.1039e+06
3.10299e+06
3.10201e+06
3.10158e+06
3.10118e+06
3.10087e+06
3.1007e+06
3.10052e+06
3.10039e+06
3.1003e+06
3.10023e+06
3.10018e+06
3.10015e+06
3.10012e+06
3.1001e+06
3.10008e+06
3.07695e+06
3.09055e+06
3.10202e+06
3.10801e+06
3.10812e+06
3.10637e+06
3.10451e+06
3.10333e+06
3.10248e+06
3.10183e+06
3.10139e+06
3.10101e+06
3.10077e+06
3.10061e+06
3.10045e+06
3.10035e+06
3.10027e+06
3.10021e+06
3.10016e+06
3.10013e+06
3.10011e+06
3.10009e+06
3.10007e+06
3.01437e+06
3.06781e+06
3.09455e+06
3.1039e+06
3.10588e+06
3.10434e+06
3.10293e+06
3.10249e+06
3.10186e+06
3.10144e+06
3.1011e+06
3.10078e+06
3.10061e+06
3.10049e+06
3.10036e+06
3.10028e+06
3.10022e+06
3.10017e+06
3.10014e+06
3.10011e+06
3.10009e+06
3.10008e+06
3.10007e+06
2.99306e+06
3.04224e+06
3.07884e+06
3.09716e+06
3.10269e+06
3.10217e+06
3.10152e+06
3.10136e+06
3.10093e+06
3.10076e+06
3.10062e+06
3.10042e+06
3.10036e+06
3.10031e+06
3.10023e+06
3.10019e+06
3.10015e+06
3.10012e+06
3.1001e+06
3.10009e+06
3.10008e+06
3.10007e+06
3.10006e+06
2.9852e+06
3.03157e+06
3.06862e+06
3.08994e+06
3.09772e+06
3.09905e+06
3.09944e+06
3.0999e+06
3.09992e+06
3.10006e+06
3.10015e+06
3.10007e+06
3.10012e+06
3.10013e+06
3.1001e+06
3.10009e+06
3.10008e+06
3.10007e+06
3.10007e+06
3.10006e+06
3.10006e+06
3.10005e+06
3.10005e+06
2.99944e+06
3.03393e+06
3.06498e+06
3.08371e+06
3.09177e+06
3.09496e+06
3.09689e+06
3.09834e+06
3.09879e+06
3.09923e+06
3.09956e+06
3.09965e+06
3.09982e+06
3.09991e+06
3.09995e+06
3.09999e+06
3.10001e+06
3.10002e+06
3.10003e+06
3.10003e+06
3.10004e+06
3.10004e+06
3.10004e+06
3.00371e+06
3.03661e+06
3.0624e+06
3.07813e+06
3.08685e+06
3.09135e+06
3.09464e+06
3.0967e+06
3.09772e+06
3.09855e+06
3.09901e+06
3.0993e+06
3.09958e+06
3.09975e+06
3.09983e+06
3.0999e+06
3.09995e+06
3.09998e+06
3.1e+06
3.10001e+06
3.10002e+06
3.10002e+06
3.10002e+06
3.02292e+06
3.04099e+06
3.05774e+06
3.07299e+06
3.08327e+06
3.08907e+06
3.09272e+06
3.09476e+06
3.09665e+06
3.09797e+06
3.0985e+06
3.09896e+06
3.09933e+06
3.09955e+06
3.0997e+06
3.09981e+06
3.09989e+06
3.09993e+06
3.09997e+06
3.09999e+06
3.1e+06
3.10001e+06
3.10001e+06
3.0405e+06
3.05331e+06
3.06404e+06
3.0746e+06
3.08275e+06
3.08813e+06
3.09225e+06
3.09439e+06
3.09639e+06
3.09769e+06
3.09833e+06
3.09887e+06
3.09923e+06
3.09948e+06
3.09966e+06
3.09977e+06
3.09986e+06
3.09991e+06
3.09995e+06
3.09997e+06
3.09999e+06
3.1e+06
3.1e+06
3.09149e+06
3.08377e+06
3.07792e+06
3.07768e+06
3.08175e+06
3.08755e+06
3.09182e+06
3.09422e+06
3.09641e+06
3.09733e+06
3.09814e+06
3.09879e+06
3.09911e+06
3.0994e+06
3.09959e+06
3.09972e+06
3.09983e+06
3.09989e+06
3.09993e+06
3.09996e+06
3.09998e+06
3.09999e+06
3.1e+06
3.1765e+06
3.11366e+06
3.08692e+06
3.0827e+06
3.08406e+06
3.08969e+06
3.09357e+06
3.09516e+06
3.09709e+06
3.0977e+06
3.09847e+06
3.09904e+06
3.09925e+06
3.0995e+06
3.09967e+06
3.09976e+06
3.09985e+06
3.0999e+06
3.09994e+06
3.09996e+06
3.09997e+06
3.09998e+06
3.09999e+06
3.20715e+06
3.14609e+06
3.10527e+06
3.08915e+06
3.08655e+06
3.09093e+06
3.09388e+06
3.09535e+06
3.09743e+06
3.09793e+06
3.09858e+06
3.09913e+06
3.0993e+06
3.09951e+06
3.09968e+06
3.09977e+06
3.09986e+06
3.0999e+06
3.09994e+06
3.09996e+06
3.09997e+06
3.09998e+06
3.09999e+06
3.21546e+06
3.1577e+06
3.11747e+06
3.09798e+06
3.09297e+06
3.095e+06
3.09683e+06
3.09745e+06
3.09902e+06
3.09903e+06
3.09937e+06
3.09971e+06
3.09972e+06
3.0998e+06
3.09988e+06
3.09989e+06
3.09994e+06
3.09995e+06
3.09997e+06
3.09997e+06
3.09998e+06
3.09998e+06
3.09999e+06
3.1978e+06
3.15501e+06
3.12089e+06
3.10372e+06
3.09844e+06
3.09839e+06
3.09879e+06
3.09824e+06
3.09957e+06
3.09932e+06
3.0996e+06
3.09981e+06
3.0998e+06
3.09985e+06
3.09992e+06
3.09992e+06
3.09996e+06
3.09997e+06
3.09998e+06
3.09998e+06
3.09998e+06
3.09998e+06
3.09998e+06
3.19839e+06
3.15376e+06
3.12612e+06
3.11181e+06
3.10586e+06
3.10383e+06
3.10289e+06
3.10146e+06
3.10195e+06
3.10101e+06
3.10096e+06
3.10073e+06
3.10047e+06
3.10028e+06
3.10022e+06
3.10011e+06
3.10009e+06
3.10004e+06
3.10002e+06
3.1e+06
3.09999e+06
3.09998e+06
3.09998e+06
3.16721e+06
3.14295e+06
3.12944e+06
3.11559e+06
3.10884e+06
3.10512e+06
3.10379e+06
3.10247e+06
3.10223e+06
3.10075e+06
3.10094e+06
3.10058e+06
3.10041e+06
3.10023e+06
3.10021e+06
3.1001e+06
3.10009e+06
3.10004e+06
3.10002e+06
3.1e+06
3.09999e+06
3.09998e+06
3.09998e+06
3.16143e+06
3.13976e+06
3.13291e+06
3.12179e+06
3.11593e+06
3.11065e+06
3.10825e+06
3.10569e+06
3.10495e+06
3.1028e+06
3.10257e+06
3.10162e+06
3.10124e+06
3.10074e+06
3.10056e+06
3.10031e+06
3.10023e+06
3.10012e+06
3.10007e+06
3.10002e+06
3.1e+06
3.09998e+06
3.09998e+06
3.14121e+06
3.12824e+06
3.12675e+06
3.11932e+06
3.11717e+06
3.10909e+06
3.10748e+06
3.10388e+06
3.10357e+06
3.10179e+06
3.10187e+06
3.10086e+06
3.10088e+06
3.10044e+06
3.1004e+06
3.1002e+06
3.10017e+06
3.10008e+06
3.10005e+06
3.10001e+06
3.09999e+06
3.09998e+06
3.09997e+06
3.10316e+06
3.12132e+06
3.13321e+06
3.12545e+06
3.12591e+06
3.11502e+06
3.11318e+06
3.10769e+06
3.10712e+06
3.10421e+06
3.10384e+06
3.10202e+06
3.10182e+06
3.10097e+06
3.10076e+06
3.1004e+06
3.10029e+06
3.10014e+06
3.10008e+06
3.10002e+06
3.09999e+06
3.09998e+06
3.09997e+06
3.08305e+06
3.09935e+06
3.12088e+06
3.11516e+06
3.12044e+06
3.10704e+06
3.10988e+06
3.10279e+06
3.10447e+06
3.10107e+06
3.10221e+06
3.10045e+06
3.10097e+06
3.10031e+06
3.1004e+06
3.10015e+06
3.10015e+06
3.10005e+06
3.10003e+06
3.09999e+06
3.09998e+06
3.09996e+06
3.09996e+06
3.11942e+06
3.12248e+06
3.14298e+06
3.13138e+06
3.13701e+06
3.11671e+06
3.11971e+06
3.10806e+06
3.1095e+06
3.10369e+06
3.10455e+06
3.10163e+06
3.1019e+06
3.10077e+06
3.10071e+06
3.1003e+06
3.10024e+06
3.10009e+06
3.10004e+06
3.09999e+06
3.09997e+06
3.09996e+06
3.09995e+06
3.13284e+06
3.12144e+06
3.14215e+06
3.11702e+06
3.12985e+06
3.09477e+06
3.11204e+06
3.09564e+06
3.1046e+06
3.09788e+06
3.10182e+06
3.09913e+06
3.10061e+06
3.0998e+06
3.10018e+06
3.09994e+06
3.10004e+06
3.09997e+06
3.09997e+06
3.09995e+06
3.09995e+06
3.09994e+06
3.09994e+06
3.18188e+06
3.16686e+06
3.19183e+06
3.16011e+06
3.17406e+06
3.10818e+06
3.12543e+06
3.10035e+06
3.10952e+06
3.0999e+06
3.10364e+06
3.09993e+06
3.10124e+06
3.10009e+06
3.10037e+06
3.10002e+06
3.10008e+06
3.09998e+06
3.09997e+06
3.09995e+06
3.09994e+06
3.09993e+06
3.09993e+06
3.21502e+06
3.19387e+06
3.22074e+06
3.14987e+06
3.16737e+06
3.02267e+06
3.11133e+06
3.07804e+06
3.1036e+06
3.09287e+06
3.10086e+06
3.09754e+06
3.10008e+06
3.0993e+06
3.09993e+06
3.09975e+06
3.09993e+06
3.09989e+06
3.09992e+06
3.09991e+06
3.09992e+06
3.09992e+06
3.09993e+06
3.31594e+06
3.30198e+06
3.31706e+06
3.30632e+06
3.31766e+06
3.55625e+06
3.54725e+06
3.56403e+06
3.55241e+06
3.56283e+06
3.56951e+06
3.41208e+06
3.44986e+06
3.43741e+06
3.46071e+06
3.99687e+06
3.93871e+06
3.96575e+06
3.94403e+06
3.99954e+06
4.00086e+06
4.00099e+06
4.00119e+06
4.00152e+06
4.00191e+06
4.00175e+06
4.00182e+06
4.00192e+06
4.00202e+06
4.00215e+06
4.00203e+06
4.00205e+06
4.00209e+06
4.00213e+06
4.00217e+06
4.00219e+06
4.00214e+06
4.00219e+06
4.00243e+06
4.00272e+06
4.00223e+06
4.13259e+06
4.00224e+06
4.00222e+06
4.00222e+06
4.00367e+06
4.00271e+06
4.04722e+06
4.02699e+06
4.04018e+06
4.0022e+06
4.00219e+06
4.02575e+06
4.00242e+06
4.01961e+06
4.84494e+06
4.00214e+06
4.01157e+06
4.052e+06
4.04106e+06
4.0022e+06
4.0022e+06
4.00224e+06
4.00223e+06
4.00223e+06
5.38703e+06
4.02842e+06
4.00222e+06
4.00222e+06
4.00221e+06
4.00224e+06
4.00677e+06
4.00225e+06
4.00226e+06
4.00228e+06
4.00222e+06
4.00225e+06
4.00231e+06
4.00237e+06
4.0024e+06
4.00232e+06
4.00326e+06
5.09409e+06
4.00218e+06
4.42737e+06
4.00235e+06
4.00259e+06
4.13299e+06
4.00215e+06
4.00226e+06
4.06796e+06
4.00264e+06
4.00208e+06
4.00208e+06
4.00264e+06
4.00429e+06
4.00641e+06
4.00385e+06
4.00115e+06
4.00157e+06
4.00179e+06
4.00466e+06
4.00195e+06
4.0019e+06
4.00314e+06
4.00229e+06
4.00221e+06
4.00163e+06
4.00219e+06
4.00268e+06
4.00211e+06
4.00228e+06
4.00179e+06
4.0016e+06
4.00194e+06
3.11782e+06
3.11264e+06
3.10995e+06
3.10804e+06
3.10653e+06
3.10531e+06
3.10382e+06
3.10265e+06
3.10197e+06
3.10143e+06
3.10108e+06
3.10078e+06
3.1006e+06
3.10046e+06
3.10036e+06
3.10029e+06
3.10023e+06
3.11711e+06
3.11283e+06
3.11043e+06
3.10842e+06
3.10635e+06
3.10496e+06
3.10348e+06
3.10247e+06
3.10185e+06
3.10132e+06
3.10099e+06
3.10073e+06
3.10056e+06
3.10044e+06
3.10035e+06
3.10027e+06
3.10022e+06
3.10017e+06
3.11219e+06
3.11075e+06
3.11011e+06
3.1085e+06
3.10647e+06
3.10489e+06
3.10335e+06
3.10239e+06
3.10181e+06
3.10129e+06
3.10097e+06
3.10072e+06
3.10054e+06
3.10042e+06
3.10033e+06
3.10026e+06
3.10021e+06
3.10016e+06
3.10013e+06
3.1051e+06
3.10597e+06
3.10731e+06
3.10698e+06
3.10596e+06
3.10461e+06
3.10319e+06
3.10232e+06
3.10171e+06
3.10124e+06
3.10093e+06
3.10069e+06
3.10052e+06
3.1004e+06
3.10031e+06
3.10025e+06
3.1002e+06
3.10016e+06
3.10012e+06
3.10494e+06
3.10521e+06
3.10635e+06
3.1062e+06
3.10533e+06
3.10419e+06
3.10307e+06
3.10225e+06
3.10162e+06
3.10117e+06
3.10088e+06
3.10065e+06
3.10048e+06
3.10037e+06
3.10029e+06
3.10023e+06
3.10018e+06
3.10014e+06
3.10012e+06
3.10387e+06
3.10542e+06
3.10622e+06
3.10559e+06
3.10479e+06
3.10379e+06
3.10287e+06
3.10208e+06
3.10149e+06
3.1011e+06
3.10081e+06
3.10059e+06
3.10044e+06
3.10033e+06
3.10026e+06
3.10021e+06
3.10017e+06
3.10013e+06
3.10011e+06
3.1004e+06
3.10368e+06
3.10489e+06
3.10518e+06
3.10425e+06
3.10323e+06
3.10248e+06
3.10188e+06
3.10135e+06
3.10098e+06
3.10071e+06
3.10052e+06
3.10038e+06
3.10029e+06
3.10023e+06
3.10018e+06
3.10015e+06
3.10012e+06
3.10009e+06
3.09244e+06
3.09843e+06
3.1023e+06
3.10366e+06
3.10353e+06
3.10279e+06
3.10196e+06
3.10144e+06
3.10111e+06
3.10083e+06
3.1006e+06
3.10043e+06
3.10031e+06
3.10024e+06
3.10019e+06
3.10015e+06
3.10012e+06
3.1001e+06
3.10008e+06
3.08758e+06
3.09741e+06
3.1019e+06
3.10331e+06
3.10322e+06
3.1021e+06
3.10154e+06
3.10121e+06
3.10088e+06
3.10065e+06
3.10047e+06
3.10033e+06
3.10024e+06
3.10018e+06
3.10015e+06
3.10012e+06
3.1001e+06
3.10008e+06
3.10006e+06
3.08418e+06
3.09288e+06
3.09893e+06
3.10147e+06
3.10244e+06
3.10165e+06
3.10116e+06
3.1009e+06
3.10059e+06
3.10044e+06
3.10031e+06
3.10022e+06
3.10014e+06
3.10012e+06
3.1001e+06
3.10008e+06
3.10007e+06
3.10006e+06
3.10005e+06
3.08234e+06
3.09105e+06
3.09674e+06
3.10007e+06
3.10124e+06
3.10077e+06
3.10052e+06
3.10043e+06
3.10023e+06
3.10018e+06
3.10013e+06
3.10008e+06
3.10005e+06
3.10004e+06
3.10004e+06
3.10003e+06
3.10003e+06
3.10003e+06
3.10003e+06
3.08571e+06
3.09152e+06
3.09567e+06
3.09834e+06
3.09948e+06
3.09953e+06
3.09968e+06
3.09986e+06
3.09982e+06
3.09987e+06
3.0999e+06
3.09992e+06
3.09993e+06
3.09995e+06
3.09997e+06
3.09998e+06
3.1e+06
3.10001e+06
3.10001e+06
3.10002e+06
3.10002e+06
3.10002e+06
3.10002e+06
3.08324e+06
3.09004e+06
3.09387e+06
3.09637e+06
3.09775e+06
3.09812e+06
3.09857e+06
3.09906e+06
3.09929e+06
3.09951e+06
3.09964e+06
3.09975e+06
3.09981e+06
3.09987e+06
3.09991e+06
3.09994e+06
3.09997e+06
3.09998e+06
3.1e+06
3.10001e+06
3.10001e+06
3.10001e+06
3.10002e+06
3.08774e+06
3.08936e+06
3.09196e+06
3.09483e+06
3.09646e+06
3.09731e+06
3.0978e+06
3.0983e+06
3.09882e+06
3.09921e+06
3.09942e+06
3.09961e+06
3.09971e+06
3.09979e+06
3.09986e+06
3.0999e+06
3.09994e+06
3.09996e+06
3.09998e+06
3.1e+06
3.1e+06
3.10001e+06
3.10001e+06
3.09142e+06
3.09203e+06
3.09232e+06
3.09399e+06
3.09537e+06
3.0964e+06
3.0972e+06
3.09789e+06
3.09849e+06
3.09896e+06
3.09922e+06
3.09948e+06
3.09961e+06
3.09973e+06
3.09982e+06
3.09987e+06
3.09992e+06
3.09995e+06
3.09997e+06
3.09999e+06
3.1e+06
3.10001e+06
3.10001e+06
3.10215e+06
3.0975e+06
3.09389e+06
3.09332e+06
3.09431e+06
3.09586e+06
3.097e+06
3.09779e+06
3.09845e+06
3.09882e+06
3.09912e+06
3.09942e+06
3.09955e+06
3.0997e+06
3.09979e+06
3.09985e+06
3.09991e+06
3.09994e+06
3.09997e+06
3.09999e+06
3.1e+06
3.10001e+06
3.10001e+06
3.11094e+06
3.09937e+06
3.09394e+06
3.09252e+06
3.09388e+06
3.09556e+06
3.09708e+06
3.09781e+06
3.09844e+06
3.09877e+06
3.09907e+06
3.0994e+06
3.09953e+06
3.09969e+06
3.09978e+06
3.09985e+06
3.09991e+06
3.09994e+06
3.09997e+06
3.09999e+06
3.1e+06
3.10001e+06
3.10002e+06
3.11608e+06
3.10374e+06
3.09643e+06
3.0936e+06
3.09432e+06
3.09582e+06
3.09726e+06
3.09795e+06
3.09858e+06
3.0989e+06
3.09915e+06
3.09945e+06
3.09956e+06
3.09971e+06
3.0998e+06
3.09986e+06
3.09992e+06
3.09995e+06
3.09998e+06
3.09999e+06
3.10001e+06
3.10001e+06
3.10002e+06
3.11501e+06
3.10556e+06
3.09863e+06
3.09514e+06
3.09554e+06
3.09663e+06
3.09775e+06
3.09831e+06
3.09881e+06
3.09906e+06
3.09926e+06
3.09954e+06
3.09963e+06
3.09976e+06
3.09984e+06
3.09989e+06
3.09994e+06
3.09997e+06
3.09999e+06
3.1e+06
3.10001e+06
3.10002e+06
3.10002e+06
3.1152e+06
3.1075e+06
3.10083e+06
3.09752e+06
3.09734e+06
3.09779e+06
3.09854e+06
3.09878e+06
3.09915e+06
3.09932e+06
3.09944e+06
3.09968e+06
3.09973e+06
3.09984e+06
3.0999e+06
3.09993e+06
3.09997e+06
3.09999e+06
3.10001e+06
3.10002e+06
3.10002e+06
3.10003e+06
3.10003e+06
3.11776e+06
3.10861e+06
3.10229e+06
3.09923e+06
3.09894e+06
3.09905e+06
3.09943e+06
3.09949e+06
3.09962e+06
3.09966e+06
3.09969e+06
3.09986e+06
3.09986e+06
3.09993e+06
3.09997e+06
3.09998e+06
3.10001e+06
3.10002e+06
3.10003e+06
3.10003e+06
3.10004e+06
3.10004e+06
3.10004e+06
3.10709e+06
3.10423e+06
3.10178e+06
3.10014e+06
3.09989e+06
3.09991e+06
3.10029e+06
3.10015e+06
3.10009e+06
3.09996e+06
3.09993e+06
3.10005e+06
3.10001e+06
3.10005e+06
3.10005e+06
3.10005e+06
3.10006e+06
3.10005e+06
3.10005e+06
3.10005e+06
3.10005e+06
3.10005e+06
3.10005e+06
3.1079e+06
3.10562e+06
3.10406e+06
3.10234e+06
3.10192e+06
3.10119e+06
3.10122e+06
3.10082e+06
3.10058e+06
3.10034e+06
3.10021e+06
3.10025e+06
3.10016e+06
3.10017e+06
3.10014e+06
3.10011e+06
3.1001e+06
3.10009e+06
3.10008e+06
3.10007e+06
3.10007e+06
3.10006e+06
3.10005e+06
3.11627e+06
3.11294e+06
3.10786e+06
3.10471e+06
3.10331e+06
3.10213e+06
3.10179e+06
3.10117e+06
3.10093e+06
3.10063e+06
3.10046e+06
3.10044e+06
3.10031e+06
3.10029e+06
3.10023e+06
3.10019e+06
3.10016e+06
3.10013e+06
3.10011e+06
3.10009e+06
3.10008e+06
3.10007e+06
3.10006e+06
3.13085e+06
3.12079e+06
3.11143e+06
3.10709e+06
3.10479e+06
3.10342e+06
3.10254e+06
3.10165e+06
3.10137e+06
3.10096e+06
3.10072e+06
3.10063e+06
3.10046e+06
3.1004e+06
3.10032e+06
3.10025e+06
3.1002e+06
3.10016e+06
3.10014e+06
3.10011e+06
3.1001e+06
3.10008e+06
3.10007e+06
3.1358e+06
3.12767e+06
3.11608e+06
3.10957e+06
3.10578e+06
3.10413e+06
3.10309e+06
3.10211e+06
3.10177e+06
3.10124e+06
3.10095e+06
3.10081e+06
3.1006e+06
3.10051e+06
3.1004e+06
3.10031e+06
3.10025e+06
3.1002e+06
3.10016e+06
3.10013e+06
3.10011e+06
3.10009e+06
3.10008e+06
3.1398e+06
3.13086e+06
3.11939e+06
3.11182e+06
3.10731e+06
3.10518e+06
3.10379e+06
3.10261e+06
3.1022e+06
3.10154e+06
3.10118e+06
3.10098e+06
3.10072e+06
3.1006e+06
3.10047e+06
3.10036e+06
3.10028e+06
3.10022e+06
3.10018e+06
3.10014e+06
3.10012e+06
3.1001e+06
3.10008e+06
3.13371e+06
3.12804e+06
3.11936e+06
3.11325e+06
3.10901e+06
3.10635e+06
3.10446e+06
3.10304e+06
3.10256e+06
3.10179e+06
3.10137e+06
3.10112e+06
3.10082e+06
3.10068e+06
3.10052e+06
3.1004e+06
3.10031e+06
3.10024e+06
3.10019e+06
3.10015e+06
3.10012e+06
3.1001e+06
3.10008e+06
3.13219e+06
3.12709e+06
3.1205e+06
3.11505e+06
3.11061e+06
3.10766e+06
3.10533e+06
3.10356e+06
3.10291e+06
3.10201e+06
3.10154e+06
3.10121e+06
3.10088e+06
3.10072e+06
3.10054e+06
3.10042e+06
3.10032e+06
3.10025e+06
3.1002e+06
3.10016e+06
3.10013e+06
3.1001e+06
3.10009e+06
3.13141e+06
3.12883e+06
3.12233e+06
3.11629e+06
3.11127e+06
3.10785e+06
3.10553e+06
3.10408e+06
3.10309e+06
3.10207e+06
3.10163e+06
3.10124e+06
3.1009e+06
3.10073e+06
3.10054e+06
3.10042e+06
3.10032e+06
3.10025e+06
3.10019e+06
3.10015e+06
3.10013e+06
3.1001e+06
3.10008e+06
3.12057e+06
3.11923e+06
3.11601e+06
3.11297e+06
3.10983e+06
3.1076e+06
3.1053e+06
3.1039e+06
3.10299e+06
3.10201e+06
3.10158e+06
3.10118e+06
3.10087e+06
3.1007e+06
3.10052e+06
3.10039e+06
3.1003e+06
3.10023e+06
3.10018e+06
3.10015e+06
3.10012e+06
3.1001e+06
3.10008e+06
3.07695e+06
3.09055e+06
3.10202e+06
3.10801e+06
3.10812e+06
3.10637e+06
3.10451e+06
3.10333e+06
3.10248e+06
3.10183e+06
3.10139e+06
3.10101e+06
3.10077e+06
3.10061e+06
3.10045e+06
3.10035e+06
3.10027e+06
3.10021e+06
3.10016e+06
3.10013e+06
3.10011e+06
3.10009e+06
3.10007e+06
3.01437e+06
3.06781e+06
3.09454e+06
3.1039e+06
3.10588e+06
3.10434e+06
3.10293e+06
3.10249e+06
3.10186e+06
3.10144e+06
3.1011e+06
3.10078e+06
3.10061e+06
3.10049e+06
3.10036e+06
3.10028e+06
3.10022e+06
3.10017e+06
3.10014e+06
3.10011e+06
3.10009e+06
3.10008e+06
3.10007e+06
2.99306e+06
3.04224e+06
3.07884e+06
3.09716e+06
3.10269e+06
3.10217e+06
3.10152e+06
3.10136e+06
3.10093e+06
3.10076e+06
3.10062e+06
3.10042e+06
3.10036e+06
3.10031e+06
3.10023e+06
3.10019e+06
3.10015e+06
3.10012e+06
3.1001e+06
3.10009e+06
3.10008e+06
3.10007e+06
3.10006e+06
2.9852e+06
3.03157e+06
3.06862e+06
3.08994e+06
3.09772e+06
3.09905e+06
3.09944e+06
3.0999e+06
3.09992e+06
3.10006e+06
3.10015e+06
3.10007e+06
3.10012e+06
3.10013e+06
3.1001e+06
3.10009e+06
3.10008e+06
3.10007e+06
3.10007e+06
3.10006e+06
3.10006e+06
3.10005e+06
3.10005e+06
2.99944e+06
3.03393e+06
3.06498e+06
3.08371e+06
3.09177e+06
3.09496e+06
3.09689e+06
3.09834e+06
3.09879e+06
3.09923e+06
3.09956e+06
3.09965e+06
3.09982e+06
3.09991e+06
3.09995e+06
3.09999e+06
3.10001e+06
3.10002e+06
3.10003e+06
3.10003e+06
3.10004e+06
3.10004e+06
3.10004e+06
3.00371e+06
3.03661e+06
3.0624e+06
3.07813e+06
3.08685e+06
3.09135e+06
3.09464e+06
3.0967e+06
3.09772e+06
3.09855e+06
3.09901e+06
3.0993e+06
3.09958e+06
3.09975e+06
3.09983e+06
3.0999e+06
3.09995e+06
3.09998e+06
3.1e+06
3.10001e+06
3.10002e+06
3.10002e+06
3.10002e+06
3.02292e+06
3.04099e+06
3.05774e+06
3.07299e+06
3.08327e+06
3.08907e+06
3.09272e+06
3.09476e+06
3.09666e+06
3.09797e+06
3.0985e+06
3.09896e+06
3.09933e+06
3.09955e+06
3.0997e+06
3.09981e+06
3.09989e+06
3.09993e+06
3.09997e+06
3.09999e+06
3.1e+06
3.10001e+06
3.10001e+06
3.0405e+06
3.05331e+06
3.06404e+06
3.0746e+06
3.08275e+06
3.08813e+06
3.09225e+06
3.09439e+06
3.09639e+06
3.09769e+06
3.09833e+06
3.09887e+06
3.09923e+06
3.09948e+06
3.09966e+06
3.09977e+06
3.09986e+06
3.09991e+06
3.09995e+06
3.09997e+06
3.09999e+06
3.1e+06
3.1e+06
3.09149e+06
3.08377e+06
3.07792e+06
3.07768e+06
3.08175e+06
3.08755e+06
3.09182e+06
3.09422e+06
3.09641e+06
3.09733e+06
3.09814e+06
3.09879e+06
3.09911e+06
3.0994e+06
3.09959e+06
3.09972e+06
3.09983e+06
3.09989e+06
3.09993e+06
3.09996e+06
3.09998e+06
3.09999e+06
3.1e+06
3.1765e+06
3.11366e+06
3.08692e+06
3.0827e+06
3.08406e+06
3.08969e+06
3.09357e+06
3.09517e+06
3.09709e+06
3.0977e+06
3.09847e+06
3.09904e+06
3.09925e+06
3.0995e+06
3.09967e+06
3.09976e+06
3.09985e+06
3.0999e+06
3.09994e+06
3.09996e+06
3.09997e+06
3.09998e+06
3.09999e+06
3.20715e+06
3.14609e+06
3.10527e+06
3.08915e+06
3.08655e+06
3.09093e+06
3.09388e+06
3.09535e+06
3.09743e+06
3.09793e+06
3.09858e+06
3.09913e+06
3.0993e+06
3.09951e+06
3.09968e+06
3.09977e+06
3.09986e+06
3.0999e+06
3.09994e+06
3.09996e+06
3.09997e+06
3.09998e+06
3.09999e+06
3.21546e+06
3.1577e+06
3.11747e+06
3.09798e+06
3.09297e+06
3.095e+06
3.09683e+06
3.09745e+06
3.09902e+06
3.09903e+06
3.09937e+06
3.09971e+06
3.09972e+06
3.0998e+06
3.09988e+06
3.09989e+06
3.09994e+06
3.09995e+06
3.09997e+06
3.09997e+06
3.09998e+06
3.09998e+06
3.09999e+06
3.1978e+06
3.15501e+06
3.1209e+06
3.10372e+06
3.09844e+06
3.09839e+06
3.09879e+06
3.09824e+06
3.09957e+06
3.09932e+06
3.0996e+06
3.09981e+06
3.0998e+06
3.09985e+06
3.09992e+06
3.09992e+06
3.09996e+06
3.09997e+06
3.09998e+06
3.09998e+06
3.09998e+06
3.09998e+06
3.09998e+06
3.19839e+06
3.15376e+06
3.12612e+06
3.11181e+06
3.10586e+06
3.10383e+06
3.10289e+06
3.10146e+06
3.10195e+06
3.101e+06
3.10096e+06
3.10073e+06
3.10047e+06
3.10028e+06
3.10022e+06
3.10011e+06
3.10009e+06
3.10004e+06
3.10002e+06
3.1e+06
3.09999e+06
3.09998e+06
3.09998e+06
3.16721e+06
3.14295e+06
3.12944e+06
3.11559e+06
3.10884e+06
3.10512e+06
3.10379e+06
3.10247e+06
3.10223e+06
3.10075e+06
3.10094e+06
3.10058e+06
3.10041e+06
3.10023e+06
3.10021e+06
3.1001e+06
3.10009e+06
3.10004e+06
3.10002e+06
3.1e+06
3.09999e+06
3.09998e+06
3.09998e+06
3.16143e+06
3.13976e+06
3.13291e+06
3.12179e+06
3.11593e+06
3.11065e+06
3.10825e+06
3.1057e+06
3.10495e+06
3.1028e+06
3.10257e+06
3.10162e+06
3.10124e+06
3.10074e+06
3.10056e+06
3.10031e+06
3.10023e+06
3.10012e+06
3.10007e+06
3.10002e+06
3.1e+06
3.09998e+06
3.09998e+06
3.14121e+06
3.12824e+06
3.12675e+06
3.11932e+06
3.11717e+06
3.10909e+06
3.10748e+06
3.10388e+06
3.10357e+06
3.10179e+06
3.10187e+06
3.10086e+06
3.10088e+06
3.10044e+06
3.1004e+06
3.1002e+06
3.10017e+06
3.10008e+06
3.10005e+06
3.10001e+06
3.09999e+06
3.09998e+06
3.09997e+06
3.10316e+06
3.12132e+06
3.13321e+06
3.12545e+06
3.12591e+06
3.11502e+06
3.11318e+06
3.10769e+06
3.10712e+06
3.10421e+06
3.10384e+06
3.10202e+06
3.10182e+06
3.10097e+06
3.10076e+06
3.1004e+06
3.10029e+06
3.10014e+06
3.10008e+06
3.10002e+06
3.09999e+06
3.09998e+06
3.09997e+06
3.08305e+06
3.09935e+06
3.12088e+06
3.11516e+06
3.12044e+06
3.10704e+06
3.10988e+06
3.10279e+06
3.10447e+06
3.10107e+06
3.10221e+06
3.10045e+06
3.10097e+06
3.10031e+06
3.1004e+06
3.10015e+06
3.10015e+06
3.10005e+06
3.10003e+06
3.09999e+06
3.09998e+06
3.09996e+06
3.09996e+06
3.11942e+06
3.12248e+06
3.14298e+06
3.13138e+06
3.13701e+06
3.11671e+06
3.11971e+06
3.10806e+06
3.1095e+06
3.10369e+06
3.10455e+06
3.10163e+06
3.1019e+06
3.10077e+06
3.10071e+06
3.1003e+06
3.10024e+06
3.10009e+06
3.10004e+06
3.09999e+06
3.09997e+06
3.09996e+06
3.09995e+06
3.13284e+06
3.12144e+06
3.14215e+06
3.11702e+06
3.12985e+06
3.09477e+06
3.11204e+06
3.09564e+06
3.1046e+06
3.09788e+06
3.10182e+06
3.09913e+06
3.10061e+06
3.0998e+06
3.10018e+06
3.09994e+06
3.10004e+06
3.09997e+06
3.09997e+06
3.09995e+06
3.09995e+06