/*--------------------------------*- C++ -*----------------------------------*\
| =========                 |                                                 |
| \\      /  F ield         | OpenFOAM: The Open Source CFD Toolbox           |
|  \\    /   O peration     | Version:  v2012                                 |
|   \\  /    A nd           | Website:  www.openfoam.com                      |
|    \\/     M anipulation  |                                                 |
\*---------------------------------------------------------------------------*/
FoamFile
{
    version     2.0;
    format      ascii;
    class       surfaceScalarField;
    location    "0.7";
    object      phi;
}
// * * * * * * * * * * * * * * * * * * * * * * * * * * * * * * * * * * * * * //

dimensions      [0 3 -1 0 0 0 0];
oriented        oriented;


internalField   nonuniform List<scalar> 
6347
(
1.67883e-13
-4.02354e-12
2.41915e-16
3.98522e-13
-7.10506e-12
-4.7576e-16
7.35005e-13
-1.05015e-11
2.709e-17
1.19281e-12
-1.42713e-11
3.38763e-16
1.78006e-12
-1.83489e-11
3.63466e-16
2.52003e-12
-2.28352e-11
2.15076e-16
3.38484e-12
-2.77206e-11
3.08129e-16
4.44303e-12
-3.29029e-11
-3.14491e-16
5.54932e-12
-3.86378e-11
6.38969e-17
6.86927e-12
-4.46272e-11
-1.40211e-16
8.31771e-12
-5.11714e-11
8.86885e-17
9.96088e-12
-5.80783e-11
1.06161e-16
1.17954e-11
-6.54302e-11
-1.38171e-16
1.38108e-11
-7.31891e-11
1.61832e-16
1.60108e-11
-8.13646e-11
-2.10751e-16
-8.99076e-11
1.78603e-16
4.37458e-14
-1.3123e-12
6.56963e-17
1.83088e-13
-4.16256e-12
3.16218e-17
4.22052e-13
-7.34386e-12
-4.94003e-17
7.81955e-13
-1.08614e-11
9.17333e-17
1.24029e-12
-1.47295e-11
-1.21582e-16
1.8564e-12
-1.89654e-11
4.56644e-17
2.59041e-12
-2.35703e-11
3.4673e-17
3.45303e-12
-2.85821e-11
-1.55768e-16
4.52748e-12
-3.39781e-11
1.39416e-16
5.73009e-12
-3.98406e-11
-2.92347e-17
7.16898e-12
-4.60648e-11
-4.43955e-16
8.75961e-12
-5.27625e-11
1.32308e-16
1.05451e-11
-5.98633e-11
-2.14559e-16
1.25087e-11
-6.73949e-11
-1.84276e-16
1.46665e-11
-7.5348e-11
-3.17205e-18
1.69995e-11
-8.36988e-11
-7.93944e-17
1.95228e-11
-9.24315e-11
-3.83311e-16
-1.01527e-10
3.76948e-17
4.68291e-14
-1.3591e-12
2.132e-18
1.93594e-13
-4.30917e-12
-9.78065e-17
4.4694e-13
-7.59716e-12
-1.09741e-16
8.22497e-13
-1.12374e-11
4.28998e-16
1.32458e-12
-1.52315e-11
-1.96167e-16
1.98481e-12
-1.96251e-11
-1.34822e-16
2.78388e-12
-2.43705e-11
7.19036e-17
3.75535e-12
-2.95521e-11
4.41766e-17
4.90337e-12
-3.51254e-11
1.52986e-16
6.19767e-12
-4.11353e-11
-2.36779e-16
7.69608e-12
-4.75645e-11
5.48783e-16
9.36734e-12
-5.4434e-11
-2.59642e-16
1.12436e-11
-6.17395e-11
-2.19719e-16
1.33175e-11
-6.9469e-11
-2.49187e-16
1.55933e-11
-7.76244e-11
7.72154e-17
1.80631e-11
-8.61685e-11
-2.60689e-16
2.07272e-11
-9.50957e-11
-1.13613e-16
2.35693e-11
-1.04369e-10
-2.16116e-16
-1.13953e-10
-7.8282e-17
5.02645e-14
-1.4094e-12
2.85825e-17
2.08755e-13
-4.46757e-12
-1.19112e-17
4.88106e-13
-7.87639e-12
-1.88906e-16
8.9839e-13
-1.16478e-11
1.85707e-16
1.43919e-12
-1.5772e-11
1.50277e-16
2.13061e-12
-2.03162e-11
-2.52376e-16
2.97055e-12
-2.52115e-11
1.10518e-16
3.99579e-12
-3.05761e-11
1.06195e-16
5.19793e-12
-3.63258e-11
-6.58346e-17
6.57923e-12
-4.25179e-11
1.24786e-17
8.16912e-12
-4.91561e-11
7.11244e-16
9.95475e-12
-5.62196e-11
-3.48808e-16
1.19585e-11
-6.37427e-11
-4.12021e-16
1.41621e-11
-7.16735e-11
2.00452e-16
1.65771e-11
-8.00392e-11
-2.81107e-16
1.91977e-11
-8.87896e-11
-1.10673e-16
2.20146e-11
-9.79126e-11
-1.18918e-16
2.50175e-11
-1.07373e-10
-9.95581e-17
-1.17127e-10
-1.81508e-16
5.36348e-14
-1.463e-12
-1.26418e-17
2.2102e-13
-4.63479e-12
-7.62876e-17
5.16791e-13
-8.17194e-12
-1.54514e-16
9.42195e-13
-1.2074e-11
4.67877e-16
1.52436e-12
-1.63542e-11
-3.31174e-17
2.26964e-12
-2.10613e-11
-2.84254e-16
3.17845e-12
-2.61215e-11
1.77637e-16
4.27044e-12
-3.16665e-11
-6.51615e-17
5.54555e-12
-3.75997e-11
2.42833e-16
7.03308e-12
-4.40056e-11
-2.40236e-16
8.72642e-12
-5.08506e-11
5.65413e-16
1.06288e-11
-5.81213e-11
-4.52815e-16
1.27534e-11
-6.58674e-11
3.59287e-18
1.50937e-11
-7.40141e-11
-2.15828e-17
1.76522e-11
-8.25976e-11
-1.2083e-16
2.04264e-11
-9.15637e-11
-1.87097e-16
2.34028e-11
-1.00889e-10
7.00636e-17
2.65725e-11
-1.10543e-10
-1.95484e-16
-1.20471e-10
-5.16286e-17
5.73637e-14
-1.52039e-12
1.06924e-17
2.37136e-13
-4.81449e-12
-5.50877e-17
5.51709e-13
-8.48646e-12
-5.48033e-17
1.01539e-12
-1.25377e-11
-2.87658e-17
1.63991e-12
-1.69785e-11
-1.17218e-16
2.41831e-12
-2.18394e-11
3.41626e-16
3.39695e-12
-2.71002e-11
2.25736e-17
4.56994e-12
-3.28387e-11
-2.09162e-16
5.93999e-12
-3.89693e-11
1.66668e-16
7.52171e-12
-4.55872e-11
6.30804e-17
9.31336e-12
-5.26424e-11
7.84524e-17
1.13427e-11
-6.0151e-11
1.65157e-16
1.35974e-11
-6.81218e-11
-1.2084e-16
1.60845e-11
-7.65015e-11
-1.56112e-16
1.88015e-11
-8.53143e-11
-1.32347e-16
2.17392e-11
-9.45017e-11
8.21064e-18
2.48897e-11
-1.04039e-10
-8.87525e-17
2.82361e-11
-1.13889e-10
3.89453e-18
-1.23995e-10
-7.63085e-17
6.12492e-14
-1.5817e-12
2.18593e-17
2.53005e-13
-5.00623e-12
-5.63432e-18
5.84616e-13
-8.81795e-12
-4.33676e-17
1.07325e-12
-1.30266e-11
1.25776e-16
1.72631e-12
-1.76312e-11
-3.10472e-16
2.59016e-12
-2.2704e-11
4.29703e-16
3.62651e-12
-2.81377e-11
4.68802e-16
4.86227e-12
-3.40739e-11
-7.77556e-16
6.31579e-12
-4.04233e-11
-9.29935e-17
8.0154e-12
-4.7286e-11
-4.69109e-16
9.93718e-12
-5.45658e-11
5.80274e-16
1.21067e-11
-6.23194e-11
-2.6031e-16
1.45097e-11
-7.05249e-11
3.02816e-16
1.7155e-11
-7.9146e-11
-2.70344e-16
2.00405e-11
-8.81992e-11
7.86653e-17
2.31524e-11
-9.76135e-11
5.93988e-19
2.64854e-11
-1.07372e-10
1.11565e-16
3.0019e-11
-1.17423e-10
-7.95156e-17
-1.2771e-10
-9.78934e-17
6.57596e-14
-1.64757e-12
7.18199e-17
2.7482e-13
-5.21546e-12
9.21846e-17
6.39983e-13
-9.1832e-12
-2.08359e-17
1.18322e-12
-1.35685e-11
-8.201e-16
1.88876e-12
-1.83377e-11
6.45836e-16
2.78544e-12
-2.36006e-11
-4.27939e-17
3.89186e-12
-2.92417e-11
-6.68614e-16
5.23215e-12
-3.54173e-11
1.23343e-15
6.80809e-12
-4.19999e-11
-3.34812e-16
8.59793e-12
-4.90748e-11
-1.72127e-16
1.06471e-11
-5.66163e-11
2.61161e-16
1.29437e-11
-6.46154e-11
1.5168e-16
1.55038e-11
-7.30843e-11
-1.5865e-16
1.83142e-11
-8.19564e-11
1.86706e-16
2.1375e-11
-9.12592e-11
-1.48548e-16
2.46769e-11
-1.00915e-10
-4.72317e-17
2.82029e-11
-1.10898e-10
2.41158e-17
3.19338e-11
-1.21154e-10
-1.04323e-16
-1.31622e-10
-6.06347e-17
7.07903e-14
-1.71807e-12
-1.34066e-16
2.89827e-13
-5.43428e-12
-9.42319e-17
6.71371e-13
-9.5651e-12
1.30293e-16
1.22229e-12
-1.41204e-11
9.40265e-16
1.9904e-12
-1.91035e-11
-1.27634e-15
2.96138e-12
-2.45724e-11
3.30263e-16
4.17082e-12
-3.04514e-11
4.61572e-16
5.57885e-12
-3.68252e-11
-4.2024e-16
7.25745e-12
-4.36815e-11
5.65386e-16
9.18641e-12
-5.10005e-11
-1.24264e-15
1.13808e-11
-5.88133e-11
9.67718e-16
1.384e-11
-6.70726e-11
-2.62805e-16
1.65675e-11
-7.58112e-11
1.35883e-16
1.95598e-11
-8.49483e-11
1.32856e-16
2.28126e-11
-9.45114e-11
3.80156e-17
2.63125e-11
-1.04415e-10
-1.69278e-17
3.00455e-11
-1.1463e-10
5.64702e-17
3.39864e-11
-1.25094e-10
-5.23887e-17
-1.35747e-10
-1.36553e-17
7.59049e-14
-1.79385e-12
-3.84106e-17
3.13763e-13
-5.67205e-12
-7.48041e-17
7.33541e-13
-9.98564e-12
2.42879e-16
1.33914e-12
-1.47252e-11
-4.04281e-17
2.17494e-12
-1.99382e-11
-6.98094e-16
3.18183e-12
-2.55805e-11
5.41201e-16
4.46681e-12
-3.17352e-11
-1.69362e-16
5.98415e-12
-3.83452e-11
5.62236e-16
7.77248e-12
-4.54719e-11
3.66963e-17
9.83581e-12
-5.30602e-11
-1.09284e-15
1.21786e-11
-6.11578e-11
6.36223e-16
1.48009e-11
-6.9694e-11
3.02084e-16
1.77113e-11
-7.87208e-11
-2.35167e-17
2.08997e-11
-8.81354e-11
-3.03504e-16
2.43589e-11
-9.79706e-11
3.22292e-16
2.80718e-11
-1.08128e-10
-3.77892e-18
3.20258e-11
-1.18584e-10
1.46395e-16
3.61887e-11
-1.29257e-10
3.99191e-17
-1.40091e-10
2.6607e-17
8.17128e-14
-1.87549e-12
-1.92699e-17
3.37665e-13
-5.92793e-12
-8.53991e-18
7.84879e-13
-1.04331e-11
1.02537e-16
1.43512e-12
-1.53754e-11
1.63054e-16
2.31398e-12
-2.08161e-11
-6.47e-16
3.42707e-12
-2.66945e-11
3.82676e-16
4.8054e-12
-3.31123e-11
-1.10187e-16
6.44675e-12
-3.99878e-11
-3.27509e-17
8.36291e-12
-4.73909e-11
4.54161e-16
1.05749e-11
-5.52684e-11
-1.2732e-15
1.30792e-11
-6.36647e-11
8.957e-16
1.58741e-11
-7.24883e-11
4.05015e-16
1.89769e-11
-8.18227e-11
-1.71582e-16
2.23654e-11
-9.15232e-11
-8.48636e-17
2.60424e-11
-1.01647e-10
-7.12886e-17
2.9979e-11
-1.12065e-10
3.47992e-16
3.41639e-11
-1.22768e-10
-8.01999e-17
3.85624e-11
-1.33655e-10
1.94447e-16
-1.44669e-10
-5.83568e-17
8.76292e-14
-1.96302e-12
-3.9745e-17
3.62225e-13
-6.20244e-12
-6.22896e-17
8.38887e-13
-1.09103e-11
2.19973e-16
1.54198e-12
-1.60781e-11
-1.53015e-17
2.48914e-12
-2.17618e-11
-8.83891e-16
3.67735e-12
-2.78851e-11
1.13332e-15
5.13804e-12
-3.45717e-11
-2.24608e-16
6.90169e-12
-4.17525e-11
2.35119e-16
8.93749e-12
-4.94286e-11
-1.56239e-16
1.13067e-11
-5.7635e-11
-6.87806e-16
1.39857e-11
-6.63456e-11
7.92032e-16
1.69799e-11
-7.54805e-11
-3.8568e-16
2.02975e-11
-8.514e-11
1.76693e-16
2.39159e-11
-9.51411e-11
-1.13766e-16
2.78347e-11
-1.05566e-10
1.86342e-16
3.20233e-11
-1.16252e-10
-4.00727e-16
3.646e-11
-1.27205e-10
2.52159e-16
4.11084e-11
-1.38303e-10
-7.83197e-17
4.59298e-11
-1.4949e-10
1.435e-16
5.08781e-11
-1.60644e-10
1.10063e-16
5.58992e-11
-1.7167e-10
1.80229e-16
6.09336e-11
-1.82466e-10
1.12939e-16
-1.92891e-10
1.41287e-16
9.47373e-14
-2.05776e-12
4.97793e-18
3.91543e-13
-6.49915e-12
-4.72024e-17
9.05751e-13
-1.14248e-11
1.71892e-16
1.65988e-12
-1.68315e-11
-1.89061e-16
2.6736e-12
-2.27741e-11
-1.0464e-15
3.97366e-12
-2.91873e-11
7.48737e-16
5.55497e-12
-3.61527e-11
-5.64172e-17
7.4512e-12
-4.36493e-11
-5.51228e-16
9.6414e-12
-5.16236e-11
8.52791e-16
1.21978e-11
-6.01878e-11
-1.13973e-15
1.50642e-11
-6.92141e-11
6.34321e-16
1.82747e-11
-7.86897e-11
-2.35716e-16
2.18177e-11
-8.8683e-11
-3.07606e-17
2.56653e-11
-9.89892e-11
4.35131e-16
2.98269e-11
-1.09726e-10
-3.32089e-16
3.42629e-11
-1.20688e-10
6.97514e-17
3.89569e-11
-1.31898e-10
-2.61732e-16
4.38618e-11
-1.43208e-10
3.39874e-16
4.89394e-11
-1.54566e-10
-1.73603e-16
5.41309e-11
-1.65835e-10
2.56028e-16
5.93782e-11
-1.76916e-10
-1.33431e-17
6.46153e-11
-1.87703e-10
1.42688e-16
-1.98047e-10
8.67299e-17
1.01929e-13
-2.15968e-12
7.41479e-18
4.22183e-13
-6.81973e-12
1.52506e-16
9.80515e-13
-1.19831e-11
-5.71033e-17
1.80763e-12
-1.76589e-11
1.97833e-16
2.88939e-12
-2.38595e-11
1.83218e-15
4.28612e-12
-3.05775e-11
-2.17516e-15
5.97271e-12
-3.78365e-11
-1.57755e-15
8.0116e-12
-4.56984e-11
4.77125e-15
1.0371e-11
-5.39788e-11
-2.78788e-15
1.31104e-11
-6.29247e-11
-8.70051e-16
1.61628e-11
-7.22689e-11
6.17652e-16
1.95894e-11
-8.21158e-11
1.85289e-16
2.33666e-11
-9.24601e-11
1.10566e-16
2.74792e-11
-1.03101e-10
-3.27329e-16
3.19214e-11
-1.14168e-10
7.47815e-17
3.66458e-11
-1.25412e-10
-3.23137e-16
4.16277e-11
-1.3688e-10
3.38271e-16
4.68169e-11
-1.48397e-10
-4.4863e-17
5.21639e-11
-1.59913e-10
1.45429e-16
5.76106e-11
-1.71281e-10
1.93916e-17
6.30921e-11
-1.82398e-10
1.6959e-16
6.8537e-11
-1.93147e-10
3.9747e-17
-2.03378e-10
1.68539e-16
1.1056e-13
-2.27013e-12
-4.57927e-17
4.57945e-13
-7.1667e-12
-1.86871e-16
1.05456e-12
-1.25792e-11
-2.69947e-16
1.9446e-12
-1.8551e-11
8.32018e-16
3.09555e-12
-2.50124e-11
1.17392e-15
4.6246e-12
-3.2098e-11
-3.45222e-15
6.44638e-12
-3.96561e-11
-2.02448e-15
8.63373e-12
-4.7898e-11
5.06666e-15
1.11807e-11
-5.65281e-11
-4.45876e-17
1.41387e-11
-6.58777e-11
-2.00842e-15
1.74264e-11
-7.55597e-11
1.21959e-15
2.11249e-11
-8.58135e-11
-3.54992e-17
2.51746e-11
-9.65094e-11
-1.35014e-16
2.95647e-11
-1.07491e-10
-5.48141e-17
3.42857e-11
-1.18888e-10
-4.1974e-16
3.92931e-11
-1.30419e-10
1.99126e-16
4.456e-11
-1.42146e-10
-2.33137e-16
5.00308e-11
-1.53869e-10
3.76299e-16
5.56543e-11
-1.65536e-10
-2.37167e-16
6.136e-11
-1.76987e-10
3.63772e-16
6.70774e-11
-1.88114e-10
3.9432e-17
7.27268e-11
-1.98796e-10
1.98209e-16
-2.08878e-10
1.05837e-16
1.19075e-13
-2.3894e-12
8.7991e-17
4.91503e-13
-7.53921e-12
3.7241e-17
1.13452e-12
-1.32223e-11
-2.30608e-17
2.09697e-12
-1.9514e-11
1.41419e-16
3.36311e-12
-2.62782e-11
-1.70051e-16
5.00354e-12
-3.37423e-11
2.20287e-15
6.97246e-12
-4.16286e-11
2.45424e-15
9.36388e-12
-5.02751e-11
-5.63076e-15
1.2098e-11
-5.92625e-11
-1.97773e-15
1.52332e-11
-6.90192e-11
3.87227e-15
1.87774e-11
-7.91018e-11
-1.45744e-15
2.27134e-11
-8.9748e-11
-1.7152e-17
2.70303e-11
-1.00826e-10
-3.39373e-16
3.17304e-11
-1.12191e-10
3.13274e-16
3.67618e-11
-1.23919e-10
-4.33392e-17
4.21026e-11
-1.35759e-10
-3.97784e-16
4.76925e-11
-1.47736e-10
2.00106e-16
5.34804e-11
-1.59656e-10
-1.08116e-16
5.9398e-11
-1.71454e-10
1.30895e-16
6.53763e-11
-1.82965e-10
7.91178e-17
7.13353e-11
-1.94073e-10
2.23299e-16
7.71911e-11
-2.04652e-10
3.42572e-17
-2.14541e-10
1.54093e-16
1.30037e-13
-2.51935e-12
-4.89999e-17
5.37775e-13
-7.9461e-12
-4.37411e-16
1.25728e-12
-1.39386e-11
-1.52828e-15
2.28338e-12
-2.05441e-11
1.22282e-15
3.66678e-12
-2.76673e-11
3.18957e-15
5.41603e-12
-3.54875e-11
-1.80607e-15
7.56215e-12
-4.37777e-11
2.23871e-15
1.00951e-11
-5.27966e-11
-4.82174e-15
1.30883e-11
-6.22589e-11
-7.05576e-16
1.64552e-11
-7.2392e-11
3.42478e-15
2.02997e-11
-8.29455e-11
-8.37325e-16
2.45448e-11
-9.39919e-11
-8.69377e-17
2.91858e-11
-1.05466e-10
-7.51078e-16
3.42097e-11
-1.17216e-10
4.45429e-16
3.95629e-11
-1.29272e-10
-4.7976e-16
4.52293e-11
-1.41426e-10
5.8288e-17
5.11393e-11
-1.53646e-10
-2.4171e-16
5.72406e-11
-1.65758e-10
2.97145e-16
6.34578e-11
-1.7767e-10
-2.73606e-16
6.97095e-11
-1.89217e-10
3.00011e-16
7.59083e-11
-2.00271e-10
7.42732e-18
8.19618e-11
-2.10705e-10
1.6241e-16
-2.20355e-10
1.11859e-16
1.40742e-13
-2.66023e-12
5.50155e-17
5.79687e-13
-8.38487e-12
-6.18405e-17
1.35192e-12
-1.47076e-11
-1.48425e-15
2.45722e-12
-2.16527e-11
1.00573e-15
3.96284e-12
-2.91769e-11
2.2433e-15
5.86061e-12
-3.73824e-11
-1.20521e-15
8.19654e-12
-4.61177e-11
2.50667e-15
1.09655e-11
-5.55562e-11
-3.54755e-15
1.41819e-11
-6.54765e-11
-1.47852e-15
1.78208e-11
-7.6037e-11
3.28868e-15
2.19285e-11
-8.70528e-11
-6.86481e-16
2.64739e-11
-9.85362e-11
-7.47846e-17
3.14423e-11
-1.10433e-10
-5.34601e-16
3.68178e-11
-1.22592e-10
1.3786e-16
4.2543e-11
-1.34996e-10
-3.34786e-16
4.85793e-11
-1.47462e-10
-2.50608e-16
5.48501e-11
-1.59917e-10
1.96918e-16
6.12954e-11
-1.72204e-10
-1.17495e-16
6.78262e-11
-1.84201e-10
5.55806e-17
7.43596e-11
-1.9575e-10
8.52695e-17
8.07995e-11
-2.0671e-10
1.77869e-16
8.70471e-11
-2.16952e-10
3.9817e-17
-2.26309e-10
1.72267e-16
1.53394e-13
-2.81371e-12
3.78622e-17
6.3377e-13
-8.86483e-12
-2.17718e-16
1.47416e-12
-1.55449e-11
-1.55912e-15
2.68569e-12
-2.28684e-11
1.53194e-15
4.31399e-12
-3.08093e-11
2.26977e-15
6.37628e-12
-3.94405e-11
-1.79461e-15
8.89109e-12
-4.86372e-11
2.9391e-15
1.18799e-11
-5.85349e-11
-3.98625e-15
1.53493e-11
-6.89476e-11
-1.22458e-15
1.93046e-11
-7.99981e-11
3.13713e-15
2.37381e-11
-9.14851e-11
-1.17372e-15
2.86582e-11
-1.03456e-10
1.35779e-16
3.3998e-11
-1.15772e-10
-8.27809e-16
3.97563e-11
-1.28351e-10
5.00189e-16
4.58607e-11
-1.411e-10
-4.32301e-16
5.2273e-11
-1.53874e-10
-3.33387e-17
5.89128e-11
-1.66556e-10
-2.36747e-16
6.57054e-11
-1.78997e-10
2.52336e-16
7.25603e-11
-1.91055e-10
-2.14683e-16
7.93778e-11
-2.02567e-10
2.63995e-16
8.60535e-11
-2.13385e-10
1.85408e-17
9.24807e-11
-2.23379e-10
1.093e-16
-2.32381e-10
8.39336e-17
1.67339e-13
-2.98115e-12
4.44298e-17
6.91574e-13
-9.38891e-12
-6.16788e-17
1.60837e-12
-1.64587e-11
-1.37547e-15
2.92893e-12
-2.41917e-11
8.47756e-16
4.70849e-12
-3.25927e-11
2.25399e-15
6.95853e-12
-4.16873e-11
-1.26887e-15
9.69995e-12
-5.13821e-11
2.56747e-15
1.29606e-11
-6.17865e-11
-3.90617e-15
1.67282e-11
-7.27168e-11
-9.87252e-16
2.10138e-11
-8.42896e-11
2.97742e-15
2.57963e-11
-9.62664e-11
-9.83472e-16
3.1087e-11
-1.08746e-10
-2.08432e-16
3.68098e-11
-1.21495e-10
-3.18115e-16
4.29715e-11
-1.34513e-10
1.56919e-17
4.94865e-11
-1.47615e-10
-9.37225e-17
5.63049e-11
-1.60692e-10
-3.70856e-16
6.33379e-11
-1.73589e-10
2.25276e-17
7.04958e-11
-1.86155e-10
-2.1215e-17
7.76772e-11
-1.98237e-10
-4.40029e-17
8.47755e-11
-2.09666e-10
8.45336e-17
9.16788e-11
-2.20289e-10
1.04432e-16
9.82724e-11
-2.29973e-10
1.0776e-17
-2.38551e-10
1.02055e-16
1.82653e-13
-3.16384e-12
1.63771e-17
7.53113e-13
-9.95885e-12
-2.9519e-16
1.74857e-12
-1.74509e-11
-1.67148e-15
3.19714e-12
-2.56479e-11
3.25744e-15
5.11982e-12
-3.45201e-11
2.85975e-15
7.57928e-12
-4.41361e-11
-4.44369e-15
1.05478e-11
-5.43568e-11
3.81899e-15
1.4089e-11
-6.53169e-11
-3.92873e-15
1.81664e-11
-7.67941e-11
-1.13939e-15
2.27987e-11
-8.89296e-11
3.68294e-15
2.79648e-11
-1.01431e-10
-1.39507e-15
3.36774e-11
-1.14459e-10
4.54556e-16
3.98547e-11
-1.27671e-10
-9.95994e-16
4.64735e-11
-1.41133e-10
4.53226e-16
5.34485e-11
-1.54589e-10
-7.69708e-16
6.07076e-11
-1.67952e-10
1.01663e-16
6.81568e-11
-1.81038e-10
-1.98433e-16
7.56965e-11
-1.93695e-10
1.16688e-16
8.32175e-11
-2.05757e-10
-1.98938e-16
9.05984e-11
-2.17046e-10
2.13783e-16
9.77183e-11
-2.27408e-10
4.71788e-17
1.04455e-10
-2.36709e-10
9.81201e-17
-2.44786e-10
1.2107e-16
2.00752e-13
-3.36472e-12
9.60818e-17
8.28021e-13
-1.05861e-11
8.2255e-17
1.92375e-12
-1.85462e-11
-7.83793e-17
3.51283e-12
-2.72332e-11
-2.21383e-15
5.65558e-12
-3.66576e-11
-2.68202e-15
8.3255e-12
-4.6823e-11
7.08017e-15
1.15844e-11
-5.76189e-11
2.73608e-15
1.54691e-11
-6.91823e-11
-8.71826e-15
1.99012e-11
-8.12339e-11
1.97138e-15
2.49505e-11
-9.3982e-11
1.88397e-15
3.0562e-11
-1.07042e-10
-2.10183e-16
3.67197e-11
-1.20615e-10
-8.46118e-16
4.33481e-11
-1.34301e-10
2.02533e-17
5.04276e-11
-1.48213e-10
1.125e-16
5.78553e-11
-1.62017e-10
-1.55521e-16
6.55633e-11
-1.75659e-10
-4.34932e-16
7.34365e-11
-1.88911e-10
-2.64165e-18
8.13618e-11
-2.0162e-10
-8.42208e-17
8.92156e-11
-2.13611e-10
-1.42861e-16
9.68666e-11
-2.24697e-10
8.33017e-17
1.04185e-10
-2.34726e-10
3.96093e-17
1.11039e-10
-2.43564e-10
4.4295e-17
-2.51054e-10
9.99225e-17
2.20747e-13
-3.58518e-12
-9.65887e-17
9.08119e-13
-1.12735e-11
3.36901e-17
2.11287e-12
-1.97506e-11
-2.57398e-16
3.84716e-12
-2.89674e-11
-1.82469e-16
6.18335e-12
-3.89909e-11
-1.6446e-15
9.07372e-12
-4.9728e-11
6.38435e-15
1.26419e-11
-6.11916e-11
4.55826e-15
1.68617e-11
-7.33715e-11
-1.32101e-14
2.16903e-11
-8.60682e-11
1.82057e-15
2.71509e-11
-9.94493e-11
3.3742e-15
3.32299e-11
-1.13119e-10
-1.65883e-15
3.98975e-11
-1.27283e-10
7.93169e-16
4.70653e-11
-1.41466e-10
-1.36602e-15
5.46871e-11
-1.55837e-10
1.09456e-15
6.26499e-11
-1.69979e-10
-7.21506e-16
7.08607e-11
-1.8387e-10
-1.32036e-16
7.91947e-11
-1.97245e-10
-2.90636e-16
8.7524e-11
-2.0995e-10
7.41517e-17
9.57159e-11
-2.21803e-10
-1.51701e-16
1.03627e-10
-2.32609e-10
1.023e-16
1.11119e-10
-2.42217e-10
4.29561e-17
1.18054e-10
-2.505e-10
1.88174e-17
-2.57307e-10
8.25386e-17
2.43941e-13
-3.82834e-12
-4.13464e-16
1.001e-12
-1.20294e-11
-5.73439e-16
2.31685e-12
-2.1066e-11
-1.66418e-16
4.22566e-12
-3.08811e-11
2.26868e-15
6.79952e-12
-4.15614e-11
-1.70002e-15
1.00205e-11
-5.29432e-11
-3.06186e-15
1.39594e-11
-6.51289e-11
-1.40133e-15
1.85432e-11
-7.79716e-11
6.69651e-15
2.3851e-11
-9.13772e-11
9.20558e-16
2.98447e-11
-1.05434e-10
-4.77063e-15
3.64543e-11
-1.19737e-10
3.84749e-15
4.36512e-11
-1.34476e-10
-2.48183e-15
5.1378e-11
-1.49195e-10
7.29207e-16
5.95283e-11
-1.63987e-10
-3.42442e-16
6.80207e-11
-1.78471e-10
-1.86129e-16
7.67249e-11
-1.92575e-10
-4.06981e-17
8.55145e-11
-2.06035e-10
-1.07079e-16
9.42422e-11
-2.18678e-10
8.87286e-17
1.02757e-10
-2.30318e-10
-1.92833e-16
1.10906e-10
-2.40758e-10
7.51514e-17
1.18538e-10
-2.49849e-10
-5.24718e-17
1.25512e-10
-2.57474e-10
2.99225e-17
-2.63491e-10
-5.30984e-18
2.66918e-13
-4.09643e-12
5.5567e-16
1.10537e-12
-1.28698e-11
9.95392e-16
2.56188e-12
-2.2523e-11
3.50607e-16
4.69262e-12
-3.30045e-11
-3.60517e-15
7.49469e-12
-4.43668e-11
1.53957e-15
1.10175e-11
-5.6469e-11
1.45065e-15
1.53075e-11
-6.94102e-11
-4.4089e-15
2.03325e-11
-8.301e-11
5.95245e-15
2.61299e-11
-9.71703e-11
-1.40199e-15
3.26429e-11
-1.11943e-10
-2.24777e-15
3.98367e-11
-1.26934e-10
1.78373e-15
4.76498e-11
-1.42287e-10
-8.37189e-16
5.60127e-11
-1.57558e-10
-2.36626e-16
6.4788e-11
-1.72764e-10
2.457e-16
7.38878e-11
-1.8757e-10
-5.0731e-16
8.31462e-11
-2.01834e-10
4.07508e-17
9.24254e-11
-2.15314e-10
-6.31847e-17
1.01561e-10
-2.27814e-10
-4.49931e-17
1.1039e-10
-2.39147e-10
-1.80805e-17
1.18749e-10
-2.49116e-10
-3.22655e-17
1.26478e-10
-2.57579e-10
1.0428e-16
1.33432e-10
-2.64428e-10
-1.86709e-17
-2.69541e-10
1.17831e-16
2.96772e-13
-4.39371e-12
1.7165e-16
1.22634e-12
-1.38002e-11
4.35542e-16
2.83251e-12
-2.413e-11
6.08122e-16
5.18843e-12
-3.53566e-11
-1.86366e-15
8.29047e-12
-4.74694e-11
3.16318e-16
1.22256e-11
-6.04064e-11
8.82655e-16
1.69642e-11
-7.41412e-11
-4.05691e-15
2.25077e-11
-8.85621e-11
3.68695e-15
2.8874e-11
-1.03537e-10
4.92629e-16
3.60091e-11
-1.19072e-10
-3.26803e-15
4.38524e-11
-1.34783e-10
2.70988e-15
5.23168e-11
-1.50748e-10
-1.45419e-15
6.1331e-11
-1.66572e-10
-3.23123e-16
7.074e-11
-1.82174e-10
5.7808e-16
8.04395e-11
-1.97269e-10
-6.40562e-16
9.02477e-11
-2.11643e-10
2.90864e-16
1.00009e-10
-2.25075e-10
-4.58226e-16
1.09536e-10
-2.37342e-10
2.50122e-16
1.18653e-10
-2.48263e-10
-3.49527e-16
1.27179e-10
-2.57643e-10
1.77656e-16
1.34953e-10
-2.65352e-10
-1.30267e-16
1.41822e-10
-2.71298e-10
1.03933e-16
-2.75379e-10
-2.6019e-17
3.30712e-13
-4.72456e-12
3.88155e-18
1.3618e-12
-1.48319e-11
2.62191e-16
3.14471e-12
-2.59144e-11
7.28399e-16
5.74364e-12
-3.7953e-11
-1.22309e-15
9.18613e-12
-5.09107e-11
-5.42069e-16
1.35119e-11
-6.47346e-11
1.24624e-15
1.87423e-11
-7.93647e-11
-3.70613e-15
2.48424e-11
-9.46708e-11
3.82435e-15
3.1844e-11
-1.10539e-10
9.70575e-16
3.96422e-11
-1.26863e-10
-3.89206e-15
4.82085e-11
-1.43355e-10
3.00463e-15
5.74231e-11
-1.59959e-10
-2.12905e-15
6.71804e-11
-1.76331e-10
7.19568e-16
7.73155e-11
-1.92309e-10
-3.91627e-16
8.76812e-11
-2.07636e-10
2.32948e-16
9.80815e-11
-2.22042e-10
-4.84896e-16
1.08333e-10
-2.35328e-10
2.78432e-16
1.18239e-10
-2.47248e-10
-3.81658e-16
1.27605e-10
-2.57629e-10
2.01318e-16
1.36246e-10
-2.66284e-10
-1.58423e-16
1.4399e-10
-2.73095e-10
1.69632e-16
1.50688e-10
-2.77997e-10
-1.22667e-16
-2.80911e-10
1.10166e-16
3.6875e-13
-5.09351e-12
5.07757e-17
1.51895e-12
-1.59833e-11
6.52161e-16
3.51843e-12
-2.79153e-11
7.19509e-16
6.42386e-12
-4.08539e-11
-2.28439e-15
1.02613e-11
-5.47497e-11
8.22906e-16
1.50788e-11
-6.95532e-11
4.19519e-16
2.09082e-11
-8.51881e-11
-3.7059e-15
2.76223e-11
-1.01394e-10
4.5761e-15
3.53629e-11
-1.18277e-10
-3.58462e-16
4.39142e-11
-1.35411e-10
-2.11177e-15
5.32699e-11
-1.52714e-10
1.56057e-15
6.32784e-11
-1.69967e-10
-1.27009e-16
7.38066e-11
-1.86857e-10
-1.06726e-15
8.46799e-11
-2.03185e-10
1.36741e-15
9.57217e-11
-2.18675e-10
-1.44013e-15
1.06713e-10
-2.33036e-10
9.75627e-16
1.17449e-10
-2.46063e-10
-8.55464e-16
1.27706e-10
-2.57505e-10
5.73583e-16
1.37276e-10
-2.672e-10
-4.98477e-16
1.45963e-10
-2.74972e-10
3.30261e-16
1.53596e-10
-2.80727e-10
-2.39155e-16
1.60026e-10
-2.84428e-10
1.44098e-16
-2.8603e-10
-9.67043e-17
4.14855e-13
-5.50813e-12
-1.60612e-16
1.70725e-12
-1.7276e-11
1.90014e-16
3.95083e-12
-3.016e-11
4.42577e-16
7.211e-12
-4.41122e-11
-8.73616e-16
1.15083e-11
-5.9045e-11
-7.88437e-16
1.68474e-11
-7.48969e-11
2.43099e-15
2.33046e-11
-9.16368e-11
-4.49893e-15
3.07752e-11
-1.08874e-10
4.47177e-15
3.93223e-11
-1.26822e-10
2.60588e-16
4.87122e-11
-1.44793e-10
-3.52956e-15
5.89656e-11
-1.62975e-10
4.4733e-15
6.98648e-11
-1.8086e-10
-3.15255e-15
8.12554e-11
-1.98251e-10
1.51233e-15
9.29474e-11
-2.14875e-10
-1.27623e-15
1.04701e-10
-2.30431e-10
9.22009e-16
1.16296e-10
-2.4463e-10
-1.00652e-15
1.27485e-10
-2.57255e-10
7.12366e-16
1.38042e-10
-2.68061e-10
-5.93729e-16
1.47737e-10
-2.76896e-10
4.12837e-16
1.56375e-10
-2.8361e-10
-3.48044e-16
1.63782e-10
-2.88134e-10
2.58784e-16
1.69822e-10
-2.90469e-10
-1.54764e-16
-2.90606e-10
1.73879e-16
4.64569e-13
-5.9726e-12
-1.22593e-16
1.91105e-12
-1.87224e-11
-1.13872e-16
4.41275e-12
-3.26625e-11
3.70813e-16
8.0234e-12
-4.77227e-11
5.4365e-17
1.28101e-11
-6.3832e-11
-1.36324e-16
1.88186e-11
-8.09042e-11
-1.43718e-15
2.60175e-11
-9.88338e-11
-6.58749e-16
3.43194e-11
-1.1718e-10
1.77131e-15
4.3767e-11
-1.36272e-10
2.36833e-15
5.41271e-11
-1.55146e-10
-4.32926e-15
6.53954e-11
-1.74245e-10
1.28676e-15
7.72531e-11
-1.92719e-10
1.0771e-15
8.95955e-11
-2.10589e-10
-2.13522e-15
1.02132e-10
-2.27417e-10
2.23294e-15
1.14635e-10
-2.4293e-10
-1.80153e-15
1.26826e-10
-2.56824e-10
1.35934e-15
1.38451e-10
-2.68878e-10
-1.13554e-15
1.49249e-10
-2.78862e-10
8.19572e-16
1.58993e-10
-2.86639e-10
-6.28933e-16
1.67475e-10
-2.92094e-10
4.22314e-16
1.74533e-10
-2.95192e-10
-2.83154e-16
1.80043e-10
-2.9598e-10
2.29769e-16
-2.94495e-10
-9.55342e-17
5.27323e-13
-6.50007e-12
-1.88912e-17
2.16747e-12
-2.03638e-11
4.37049e-16
5.00166e-12
-3.54975e-11
4.46534e-16
9.11915e-12
-5.1837e-11
-1.06825e-15
1.45471e-11
-6.92616e-11
6.74513e-16
2.12943e-11
-8.7652e-11
-2.57485e-16
2.93356e-11
-1.06867e-10
-3.44089e-15
3.86402e-11
-1.26495e-10
5.00015e-15
4.90944e-11
-1.46723e-10
-4.57375e-16
6.05431e-11
-1.66588e-10
-3.4785e-15
7.28971e-11
-1.86605e-10
3.19292e-15
8.58132e-11
-2.05633e-10
-1.21224e-15
9.91426e-11
-2.2392e-10
9.29277e-16
1.12567e-10
-2.4084e-10
-1.03235e-15
1.25797e-10
-2.56163e-10
1.05444e-15
1.38552e-10
-2.69578e-10
-1.10457e-15
1.50526e-10
-2.80854e-10
9.42525e-16
1.61464e-10
-2.89799e-10
-7.30086e-16
1.71116e-10
-2.96292e-10
5.5627e-16
1.7929e-10
-3.00268e-10
-3.72324e-16
1.85832e-10
-3.01734e-10
3.00463e-16
1.90643e-10
-3.00791e-10
-2.1986e-16
-2.97528e-10
1.33391e-16
5.95194e-13
-7.09525e-12
6.9241e-17
2.45651e-12
-2.22263e-11
6.33237e-16
5.68662e-12
-3.87283e-11
2.51909e-16
1.03284e-11
-5.64721e-11
-3.07852e-15
1.64211e-11
-7.53589e-11
2.25605e-15
2.39852e-11
-9.52175e-11
3.53152e-16
3.29829e-11
-1.15855e-10
-4.92552e-15
4.33537e-11
-1.36881e-10
5.30682e-15
5.49938e-11
-1.58361e-10
7.43807e-16
6.77131e-11
-1.793e-10
-3.71547e-15
8.12362e-11
-2.00135e-10
3.22046e-15
9.5373e-11
-2.19766e-10
-1.85004e-15
1.09786e-10
-2.38331e-10
-1.09647e-15
1.24135e-10
-2.55195e-10
2.35698e-15
1.38135e-10
-2.7016e-10
-2.20428e-15
1.51413e-10
-2.8286e-10
1.62859e-15
1.63681e-10
-2.9312e-10
-1.02036e-15
1.74647e-10
-3.00766e-10
8.12816e-16
1.84076e-10
-3.0572e-10
-5.53063e-16
1.91777e-10
-3.07971e-10
4.78796e-16
1.97623e-10
-3.0758e-10
-2.8161e-16
2.01544e-10
-3.04713e-10
2.14301e-16
-2.99517e-10
-1.39551e-16
6.86137e-13
-7.78092e-12
-1.70732e-16
2.81249e-12
-2.43534e-11
3.73762e-16
6.4672e-12
-4.2389e-11
2.84933e-15
1.17588e-11
-6.17595e-11
-4.37183e-16
1.87451e-11
-8.23332e-11
-6.84516e-15
2.73607e-11
-1.03841e-10
3.95114e-15
3.75872e-11
-1.26077e-10
-2.9491e-15
4.92986e-11
-1.48605e-10
4.402e-15
6.22284e-11
-1.71289e-10
5.97084e-16
7.6357e-11
-1.9342e-10
-4.73674e-15
9.11868e-11
-2.14973e-10
4.23099e-15
1.06577e-10
-2.35149e-10
-3.47756e-15
1.22085e-10
-2.53843e-10
1.95423e-15
1.37363e-10
-2.70472e-10
-2.32202e-16
1.52038e-10
-2.84836e-10
5.61142e-16
1.6574e-10
-2.9656e-10
-6.93429e-16
1.78135e-10
-3.05517e-10
6.80746e-16
1.88943e-10
-3.11574e-10
-5.63289e-16
1.97926e-10
-3.14704e-10
5.23725e-16
2.04925e-10
-3.1497e-10
-3.09123e-16
2.09841e-10
-3.12496e-10
2.97715e-16
2.12648e-10
-3.0752e-10
-1.61707e-16
-3.00252e-10
1.57524e-16
7.81267e-13
-8.56169e-12
-4.33516e-17
3.21252e-12
-2.67853e-11
2.59878e-16
7.42029e-12
-4.66033e-11
2.9617e-15
1.34625e-11
-6.77932e-11
-2.76848e-15
2.13902e-11
-9.0255e-11
-3.894e-15
3.11106e-11
-1.1357e-10
4.14312e-15
4.26198e-11
-1.37576e-10
-4.84029e-15
5.57245e-11
-1.61727e-10
5.68101e-15
7.02287e-11
-1.85792e-10
8.53349e-16
8.58962e-11
-2.09079e-10
-4.22878e-15
1.02278e-10
-2.31359e-10
2.17775e-15
1.1906e-10
-2.51929e-10
-6.52863e-16
1.35784e-10
-2.70566e-10
-3.43071e-16
1.52019e-10
-2.86711e-10
1.84189e-15
1.67351e-10
-3.00165e-10
-1.33505e-15
1.81386e-10
-3.10598e-10
1.25225e-15
1.93775e-10
-3.17905e-10
-8.52172e-16
2.04238e-10
-3.22038e-10
7.65768e-16
2.12563e-10
-3.23028e-10
-3.47547e-16
2.18619e-10
-3.21027e-10
3.90924e-16
2.22359e-10
-3.16234e-10
-1.91934e-16
2.23806e-10
-3.08968e-10
2.09666e-16
-2.99506e-10
-9.23504e-17
9.11936e-13
-9.47351e-12
9.57455e-17
3.74307e-12
-2.9617e-11
4.13566e-16
8.61643e-12
-5.1482e-11
2.77106e-15
1.56272e-11
-7.47964e-11
-2.65432e-15
2.47594e-11
-9.93811e-11
-4.08619e-15
3.59491e-11
-1.2477e-10
4.44388e-15
4.91002e-11
-1.50717e-10
-4.94214e-15
6.39939e-11
-1.76634e-10
4.20791e-15
8.02968e-11
-2.02093e-10
9.67847e-16
9.76903e-11
-2.26463e-10
-4.54588e-15
1.15713e-10
-2.49392e-10
4.9079e-15
1.3389e-10
-2.701e-10
-2.46404e-15
1.51778e-10
-2.88456e-10
1.14268e-15
1.68843e-10
-3.03776e-10
-2.26563e-17
1.84652e-10
-3.15973e-10
-2.73955e-16
1.9878e-10
-3.24726e-10
1.07155e-16
2.10871e-10
-3.29997e-10
5.4387e-16
2.20674e-10
-3.3184e-10
-2.91529e-16
2.28002e-10
-3.30358e-10
4.11139e-16
2.32786e-10
-3.2581e-10
-1.43315e-16
2.35034e-10
-3.18482e-10
2.62936e-16
2.3484e-10
-3.08774e-10
-1.10043e-16
-2.97033e-10
1.23619e-16
1.05023e-12
-1.05237e-11
1.05168e-16
4.31077e-12
-3.28781e-11
1.55141e-16
9.92949e-12
-5.71064e-11
2.68083e-15
1.79924e-11
-8.2852e-11
-2.47017e-15
2.848e-11
-1.09863e-10
-3.77663e-15
4.12989e-11
-1.37599e-10
5.19936e-15
5.62456e-11
-1.65654e-10
-4.63544e-15
7.31143e-11
-1.93514e-10
4.22979e-15
9.13765e-11
-2.20354e-10
2.28795e-16
1.10723e-10
-2.45802e-10
-3.74944e-15
1.30549e-10
-2.69225e-10
3.36693e-15
1.50289e-10
-2.89836e-10
-1.39009e-15
1.69422e-10
-3.07588e-10
-6.01127e-16
1.87326e-10
-3.21684e-10
2.1782e-15
2.03521e-10
-3.32166e-10
-1.21934e-15
2.17568e-10
-3.38775e-10
8.35219e-16
2.29124e-10
-3.41553e-10
-2.95574e-16
2.37972e-10
-3.40688e-10
3.58564e-16
2.43993e-10
-3.36379e-10
-1.88803e-16
2.47179e-10
-3.28996e-10
3.97984e-16
2.47623e-10
-3.18925e-10
-5.84265e-17
2.45498e-10
-3.0665e-10
1.79934e-16
-2.92585e-10
-5.89312e-17
1.24888e-12
-1.17724e-11
8.8553e-18
5.11856e-12
-3.67484e-11
3.16952e-16
1.17571e-11
-6.37506e-11
2.93004e-15
2.12151e-11
-9.22981e-11
-4.83233e-15
3.3506e-11
-1.22146e-10
-5.91248e-15
4.83942e-11
-1.52507e-10
8.30209e-15
6.56553e-11
-1.82905e-10
-5.68142e-15
8.48506e-11
-2.12723e-10
3.87714e-15
1.05469e-10
-2.40978e-10
2.93954e-15
1.27074e-10
-2.67395e-10
-5.01727e-15
1.48807e-10
-2.90963e-10
2.11194e-15
1.7011e-10
-3.11134e-10
-1.80776e-15
1.90274e-10
-3.27753e-10
8.94997e-16
2.08693e-10
-3.40106e-10
1.65053e-15
2.24858e-10
-3.48331e-10