/*--------------------------------*- C++ -*----------------------------------*\
| =========                 |                                                 |
| \\      /  F ield         | OpenFOAM: The Open Source CFD Toolbox           |
|  \\    /   O peration     | Version:  v2012                                 |
|   \\  /    A nd           | Website:  www.openfoam.com                      |
|    \\/     M anipulation  |                                                 |
\*---------------------------------------------------------------------------*/
FoamFile
{
    version     2.0;
    format      ascii;
    class       volScalarField;
    location    "0.65";
    object      alpha.water;
}
// * * * * * * * * * * * * * * * * * * * * * * * * * * * * * * * * * * * * * //

dimensions      [0 0 0 0 0 0 0];


internalField   nonuniform List<scalar> 
3326
(
7.54658e-37
1.39027e-35
5.28455e-36
3.74518e-49
5.08498e-53
2.86503e-54
8.62677e-54
1.78954e-58
2.46626e-60
4.60611e-22
2.13641e-33
1.87399e-36
6.74778e-38
4.32275e-37
4.89603e-44
7.13465e-44
3.32873e-48
3.26528e-51
8.19331e-56
9.24922e-60
5.10847e-62
3.8319e-16
8.99578e-18
1.22335e-17
1.85631e-17
1.85976e-17
1.86984e-17
1.08809e-15
5.37202e-15
3.1667e-15
2.05713e-16
2.60182e-16
2.61541e-16
2.51263e-16
2.52431e-16
4.31179e-16
9.92926e-16
4.97297e-16
9.69172e-16
1.26851e-15
6.62649e-16
-8.47818e-17
2.62301e-16
1.61263e-15
1.60702e-15
1.38267e-15
1.35848e-15
4.84706e-16
8.82568e-21
1.20155e-20
3.15899e-19
1.05029e-18
3.99452e-19
5.82516e-30
8.05807e-32
1.14183e-31
2.07663e-34
1.38055e-40
8.64596e-41
3.6769e-44
1.16976e-50
3.89601e-51
2.9927e-54
5.89891e-62
4.50205e-62
2.55876e-62
3.07892e-15
8.77841e-18
8.8703e-18
8.86568e-18
8.26697e-16
2.05242e-15
9.82971e-16
6.32603e-15
1.09113e-16
1.09144e-16
1.09414e-16
2.41881e-16
2.42426e-16
2.48049e-16
3.36291e-16
3.77797e-15
4.3958e-15
3.66624e-15
1.1413e-15
-5.54699e-16
-1.03017e-15
-6.71786e-16
4.47882e-16
1.60698e-15
1.59968e-15
1.11293e-15
1.69978e-16
1.47663e-20
8.82568e-21
8.00871e-19
2.07207e-18
7.95396e-19
1.22152e-29
1.52467e-32
3.84554e-34
4.79127e-34
8.84248e-38
1.61737e-40
7.53104e-44
2.2119e-50
7.82301e-51
5.69686e-54
7.53746e-62
5.50802e-62
2.13187e-62
3.29514e-15
7.70554e-18
5.6357e-18
4.38357e-18
7.39064e-15
4.07957e-14
3.94898e-14
3.54243e-14
2.55765e-14
1.50581e-14
2.90903e-15
2.42426e-16
2.42625e-16
2.45502e-16
2.69107e-16
3.77884e-15
5.21346e-15
3.05726e-15
-1.02872e-15
-3.44168e-15
-3.64541e-15
-2.37871e-15
-7.85659e-16
8.67765e-16
1.59961e-15
6.75131e-16
1.70712e-16
6.15511e-16
3.91918e-16
8.01586e-19
1.17232e-18
3.74377e-19
5.79532e-30
7.24978e-33
1.38845e-34
2.38446e-34
4.78869e-38
7.74639e-41
3.5288e-44
1.09409e-50
3.87196e-51
2.82862e-54
3.5987e-62
2.38958e-62
8.9677e-63
1.99772e-17
1.0932e-17
1.55379e-15
1.35568e-16
7.53373e-15
4.70981e-14
4.78478e-14
4.78552e-14
4.76809e-14
4.58099e-14
3.77664e-14
2.20567e-15
8.18156e-15
7.08673e-15
2.73925e-16
1.47658e-15
5.20958e-15
-8.66617e-16
-6.58456e-15
-9.98041e-15
-9.31626e-15
-6.03538e-15
-2.64496e-15
-4.97092e-16
3.243e-16
3.60508e-16
7.93892e-16
1.13382e-15
9.71067e-16
2.11814e-17
4.02683e-26
3.70095e-21
6.10853e-22
2.48878e-34
1.64632e-35
2.49992e-38
1.44207e-37
1.91679e-40
1.11733e-44
3.04355e-51
5.42078e-51
2.47034e-54
1.74906e-62
1.14416e-62
1.82607e-67
8.90833e-15
3.16965e-14
4.50264e-15
2.54253e-18
9.57172e-17
1.05848e-14
4.74165e-14
4.82309e-14
4.82309e-14
4.73967e-14
4.14377e-14
2.11339e-14
1.4789e-14
1.70411e-14
1.44784e-14
1.05851e-14
1.04637e-15
-6.96591e-15
-1.71775e-14
-2.24186e-14
-2.01337e-14
-1.31704e-14
-6.24816e-15
-1.95438e-15
-2.53766e-16
6.57398e-16
1.36821e-15
1.17151e-15
6.95472e-16
4.02958e-26
1.12994e-28
1.67273e-29
3.22686e-29
1.34868e-35
2.60938e-35
5.84437e-39
4.49828e-42
1.38172e-44
2.51536e-51
1.01459e-51
4.66409e-55
8.79232e-59
1.52041e-66
8.45678e-67
1.87716e-67
2.00125e-13
8.31938e-14
2.53608e-18
2.53888e-18
2.53503e-18
2.53503e-18
8.96197e-15
4.72822e-14
4.82309e-14
4.72321e-14
2.63563e-14
2.28181e-14
1.44069e-14
1.65691e-14
2.23773e-14
1.56337e-14
-4.32864e-16
-1.84022e-14
-3.55269e-14
-4.36433e-14
-3.89444e-14
-2.60144e-14
-1.29463e-14
-4.48868e-15
-6.83718e-16
1.31765e-15
1.41984e-15
1.11288e-15
3.22444e-17
2.16747e-27
1.10614e-29
1.13087e-29
4.70012e-31
8.07231e-38
4.40644e-37
7.23961e-40
3.07339e-47
8.24018e-46
1.15628e-49
4.51339e-53
2.78469e-56
3.95496e-60
2.02114e-67
1.72043e-67
1.43947e-67
2.31897e-13
5.32974e-14
2.5259e-18
2.66813e-18
5.15113e-18
2.62471e-18
2.62463e-18
9.69613e-15
2.61066e-14
1.25673e-14
2.02778e-14
2.04255e-14
2.12495e-14
2.24047e-14
1.81517e-14
3.89735e-15
-1.00994e-14
-3.73246e-14
-6.43692e-14
-7.72928e-14
-6.95181e-14
-4.76628e-14
-2.47496e-14
-9.18929e-15
-1.63979e-15
1.40517e-15
1.46585e-15
8.11584e-16
1.30593e-26
2.73467e-29
4.77983e-32
6.89003e-35
8.07231e-38
7.55506e-41
5.527e-44
3.07339e-47
1.25215e-50
3.55425e-54
6.66352e-58
4.52245e-60
1.06203e-61
1.58929e-59
1.32409e-63
1.34151e-67
1.15311e-67
1.09188e-13
2.37256e-18
2.6496e-18
5.36639e-18
7.66556e-18
2.60103e-18
7.64724e-18
7.73233e-16
9.29725e-16
4.29498e-15
3.61497e-14
3.73592e-14
3.64657e-14
2.88582e-14
1.61591e-15
-3.05813e-15
-2.66191e-14
-6.64221e-14
-1.0737e-13
-1.27961e-13
-1.16726e-13
-8.22589e-14
-4.44925e-14
-1.77704e-14
-4.54225e-15
-9.99294e-17
1.21788e-15
8.71816e-16
6.78044e-17
5.50095e-27
1.14492e-29
4.77983e-32
1.04557e-31
8.07231e-38
1.20835e-37
4.57436e-40
3.07339e-47
2.4409e-46
1.35553e-49
6.66352e-58
1.36375e-56
4.69203e-60
1.51024e-67
1.37392e-67
1.15311e-67
2.23591e-15
2.37256e-18
3.59662e-18
3.87369e-18
2.56258e-18
2.45621e-18
3.11566e-17
2.33352e-16
4.03318e-16
2.64587e-15
4.10147e-14
4.54861e-14
4.00772e-14
2.63197e-14
1.8068e-15
-9.46645e-15
-4.7e-14
-1.06718e-13
-1.68537e-13
-2.01461e-13
-1.86863e-13
-1.35221e-13
-7.59409e-14
-3.24314e-14
-9.89135e-15
-1.55584e-15
7.09357e-16
8.98426e-16
4.58613e-16
3.52608e-26
7.36237e-29
6.53774e-31
9.15227e-31
1.23186e-36
1.41095e-36
3.29104e-39
1.50983e-45
1.78419e-45
7.98992e-49
1.32821e-55
8.42353e-56
1.92903e-59
3.48016e-67
3.40572e-67
1.1825e-67
2.3843e-18
5.11207e-18
3.62325e-18
4.0636e-18
2.45621e-18
2.45621e-18
2.45621e-18
2.45621e-18
1.81268e-16
1.53741e-15
2.05594e-14
2.43164e-14
1.1497e-14
3.02935e-14
2.15976e-14
-1.28018e-14
-7.33962e-14
-1.61919e-13
-2.53755e-13
-3.05497e-13
-2.8807e-13
-2.13493e-13
-1.23867e-13
-5.55809e-14
-1.86474e-14
-4.11618e-15
-1.32829e-16
8.87797e-16
3.45453e-16
2.49197e-26
5.22356e-29
8.20947e-31
1.12616e-30
2.32551e-34
8.97464e-37
2.07931e-39
1.69038e-45
1.18385e-45
4.72781e-49
1.27727e-55
5.89997e-56
1.85875e-59
6.54626e-65
1.95169e-67
1.23575e-67
2.87982e-18
5.77153e-18
5.76162e-17
4.70664e-17
2.88804e-18
2.45621e-18
1.03681e-14
1.30601e-14
1.8813e-16
1.45141e-15
1.79603e-15
2.84658e-15
3.28269e-15
4.21517e-14
2.17793e-14
-2.37112e-14
-1.09873e-13
-2.3733e-13
-3.71264e-13
-4.50427e-13
-4.30895e-13
-3.25831e-13
-1.94133e-13
-9.03773e-14
-3.22284e-14
-8.22021e-15
-9.7702e-16
7.06765e-16
1.86605e-16
1.3382e-26
2.71283e-29
1.57457e-31
2.02103e-31
3.10845e-37
4.53143e-37
1.22083e-39
8.02091e-46
6.38542e-46
3.21934e-49
4.10417e-56
2.89613e-56
7.16906e-60
-6.70257e-80
1.09613e-67
7.2723e-68
1.62067e-17
3.64961e-17
8.01418e-17
5.5194e-17
2.46743e-18
2.45621e-18
4.24221e-14
2.52199e-13
1.50607e-13
7.58633e-16
7.40012e-16
7.58633e-16
1.10293e-13
5.98952e-14
-5.1034e-24
-4.96626e-14
-1.6496e-13
-3.43051e-13
-5.33621e-13
-6.50439e-13
-6.28978e-13
-4.83104e-13
-2.9381e-13
-1.40569e-13
-5.21715e-14
-1.43665e-14
-2.33483e-15
3.67954e-16
1.5268e-16
1.05824e-27
1.73586e-30
2.32537e-33
2.51073e-36
3.77702e-39
1.45038e-42
3.06481e-44
2.47163e-44
2.43799e-44
5.63377e-47
-7.47523e-66
3.89346e-56
2.73897e-58
1.16455e-97
-3.5357e-104
6.68131e-68
2.85357e-17
4.46605e-17
3.71866e-17
2.11381e-17
2.70533e-18
2.46743e-18
3.51141e-14
2.89724e-13
3.14255e-13
1.52469e-13
8.16913e-15
1.87746e-13
1.58264e-13
1.17592e-14
-1.28445e-14
-8.67471e-14
-2.47003e-13
-4.93247e-13
-7.58534e-13
-9.24594e-13
-8.99737e-13
-6.98549e-13
-4.31153e-13
-2.10327e-13
-8.02076e-14
-2.31704e-14
-4.42809e-15
9.54927e-17
3.14752e-16
1.27903e-17
5.23075e-28
8.39556e-31
2.32537e-33
1.1084e-32
4.33205e-39
1.48514e-38
1.19103e-45
-4.35756e-55
-2.37679e-56
-4.1684e-58
-5.02228e-60
-1.33492e-60
-2.09034e-65
-8.40784e-71
6.79552e-68
2.85724e-17
2.98129e-17
2.98208e-17
2.15726e-17
1.16598e-14
6.95828e-15
2.77668e-15
5.37275e-14
3.16909e-13
3.68136e-13
3.63992e-13
2.92509e-13
3.71187e-14
-1.00677e-31
-3.62859e-14
-1.4603e-13
-3.70224e-13
-7.07807e-13
-1.07014e-12
-1.29794e-12
-1.26503e-12
-9.87924e-13
-6.15418e-13
-3.04035e-13
-1.18002e-13
-3.51388e-14
-7.33401e-15
-4.05182e-16
3.10403e-16
3.26563e-17
1.22326e-27
1.88625e-30
2.39783e-33
6.57327e-52
3.89748e-35
-7.17375e-45
-1.71674e-47
-1.76129e-49
-3.98144e-50
-2.26227e-46
-3.5433e-49
-2.13581e-52
-5.53759e-56
-5.23295e-60
-1.04856e-64
2.87033e-17
2.83227e-17
2.87473e-17
1.82133e-14
5.78053e-14
4.86152e-14
4.21879e-15
3.65442e-15
5.09503e-14
3.96834e-13
4.2831e-13
1.34325e-13
-9.86572e-32
-4.66331e-15
-6.82801e-14
-2.34832e-13
-5.51785e-13
-1.01313e-12
-1.50064e-12
-1.80291e-12
-1.75184e-12
-1.36949e-12
-8.56509e-13
-4.25948e-13
-1.66995e-13
-5.06413e-14
-1.11228e-14
-1.271e-15
1.16766e-16
3.3541e-17
3.89507e-27
1.39707e-31
-4.06655e-44
-1.29205e-39
-6.86004e-40
-4.28491e-35
-6.99742e-36
-3.53032e-38
-9.50019e-41
-1.50218e-43
-1.38195e-46
-6.99608e-50
-1.74493e-53
-1.7183e-57
-3.78445e-62
2.8065e-17
4.09579e-17
2.89416e-17
3.6105e-14
5.78053e-14
5.23733e-14
5.85375e-15
3.20136e-15
3.48231e-15
1.57399e-13
1.96483e-13
5.54792e-14
0
-1.22861e-14
-1.17722e-13
-3.68644e-13
-8.17078e-13
-1.44526e-12
-2.09268e-12
-2.48105e-12
-2.39293e-12
-1.86376e-12
-1.16434e-12
-5.79641e-13
-2.28074e-13
-6.97894e-14
-1.58105e-14
-2.34699e-15
-1.94744e-16
-7.09735e-18
7.6638e-21
3.31824e-21
-5.29728e-35
-8.00703e-36
-4.72046e-29
-4.21248e-31
-1.99192e-33
-6.33735e-36
-1.37387e-38
-1.95083e-41
-1.7134e-44
-8.6057e-48
-2.18613e-51
-2.23271e-55
-5.12732e-60
4.69229e-17
1.43162e-16
2.94363e-17
6.77787e-15
5.2966e-14
4.40893e-14
5.90492e-15
1.7627e-14
3.11439e-13
8.66079e-14
2.20525e-14
2.19072e-14
2.89402e-14
-2.32091e-14
-1.98607e-13
-5.72049e-13
-1.20299e-12
-2.05365e-12
-2.90263e-12
-3.38491e-12
-3.22717e-12
-2.49268e-12
-1.54778e-12
-7.67188e-13
-3.01157e-13
-9.22679e-14
-2.12682e-14
-3.44778e-15
-3.64246e-16
-2.35564e-17
-8.92594e-19
-1.96256e-20
-2.5917e-22
-2.21566e-24
-1.32711e-26
-5.96853e-29
-2.09325e-31
-5.65032e-34
-1.11389e-36
-1.50085e-39
-1.28667e-42
-6.43008e-46
-1.64536e-49
-1.70126e-53
-3.91436e-58
4.65944e-17
1.41852e-16
3.26893e-14
7.03008e-15
7.83403e-15
1.54172e-14
6.04383e-15
1.23727e-12
1.11559e-12
7.89694e-14
1.42321e-14
1.86412e-14
8.9666e-15
-7.92426e-14
-3.47708e-13
-8.88257e-13
-1.76538e-12
-2.9076e-12
-4.00535e-12
-4.58044e-12
-4.29957e-12
-3.27831e-12
-2.01303e-12
-9.88118e-13
-3.84697e-13
-1.17196e-13
-2.71357e-14
-4.54606e-15
-5.22387e-16
-3.9626e-17
-1.95205e-18
-6.26873e-20
-1.33145e-21
-1.9039e-23
-1.86059e-25
-1.25394e-27
-5.84116e-30
-1.86862e-32
-4.03733e-35
-5.71976e-38
-5.06619e-41
-2.60003e-44
-6.81149e-48
-7.16127e-52
-1.63375e-56
4.99631e-17
1.40352e-16
1.35444e-13
8.47953e-13
2.53769e-13
1.69465e-14
2.31902e-13
1.67717e-12
1.09339e-12
1.43697e-14
1.47913e-14
9.82494e-15
9.82689e-15
-1.69561e-13
-5.95608e-13
-1.37625e-12
-2.58606e-12
-4.10545e-12
-5.50123e-12
-6.15004e-12
-5.6606e-12
-4.24039e-12
-2.56153e-12
-1.2382e-12
-4.75223e-13
-1.42985e-13
-3.28773e-14
-5.54536e-15
-6.57833e-16
-5.33549e-17
-2.92465e-18
-1.08511e-19
-2.74351e-21
-4.76446e-23
-5.71489e-25
-4.74025e-27
-2.70825e-29
-1.05408e-31
-2.73943e-34
-4.6047e-37
-4.76515e-40
-2.80908e-43
-8.28961e-47
-9.56779e-51
-2.28518e-55
7.59134e-17
1.26952e-16
6.39326e-14
3.84327e-12
5.49834e-12
3.80122e-12
4.10095e-12
1.99924e-12
1.70199e-14
1.69471e-14
1.44941e-14
1.99411e-13
5.09684e-14
-3.14187e-13
-9.90298e-13
-2.11959e-12
-3.78342e-12
-5.78689e-12
-7.52553e-12
-8.19572e-12
-7.36431e-12
-5.39268e-12
-3.1871e-12
-1.50819e-12
-5.67038e-13
-1.67327e-13
-3.78503e-14
-6.32006e-15
-7.48879e-16
-6.12757e-17
-3.42024e-18
-1.30224e-19
-3.39849e-21
-6.11562e-23
-7.61744e-25
-6.56511e-27
-3.89464e-29
-1.57102e-31
-4.21893e-34
-7.29707e-37
-7.72555e-40
-4.6223e-43
-1.36833e-46
-1.55355e-50
-3.51003e-55
3.29785e-16
2.09828e-16
2.92552e-14
4.04712e-12
6.78705e-12
6.78705e-12
5.63114e-12
1.32558e-13
1.77878e-14
1.70199e-14
1.77588e-13
3.03376e-13
-1.91409e-14
-6.11069e-13
-1.63022e-12
-3.25089e-12
-5.53303e-12
-8.15074e-12
-1.02593e-11
-1.0841e-11
-9.46379e-12
-6.73721e-12
-3.87238e-12
-1.78258e-12
-6.52108e-13
-1.87344e-13
-4.13196e-14
-6.74295e-15
-7.82718e-16
-6.28456e-17
-3.44517e-18
-1.28858e-19
-3.30275e-21
-5.83366e-23
-7.1256e-25
-6.0149e-27
-3.48921e-29
-1.37345e-31
-3.58957e-34
-6.02116e-37
-6.15347e-40
-3.5309e-43
-9.92711e-47
-1.05207e-50
-2.13854e-55
4.32786e-12
8.13697e-16
2.62033e-14
2.61038e-12
6.78705e-12
6.78705e-12
2.18559e-12
2.77495e-14
2.12694e-14
6.81887e-13
5.74911e-13
2.56623e-16
-3.03378e-13
-1.15351e-12
-2.65467e-12
-4.9742e-12
-8.09821e-12
-1.148e-11
-1.39414e-11
-1.4229e-11
-1.20018e-11
-8.25577e-12
-4.58473e-12
-2.03881e-12
-7.20377e-13
-1.99912e-13
-4.26544e-14
-6.76036e-15
-7.66809e-16
-6.06184e-17
-3.30063e-18
-1.23818e-19
-3.21617e-21
-5.819e-23
-7.36052e-25
-6.5063e-27
-3.99836e-29
-1.68794e-31
-4.79432e-34
-8.8651e-37
-1.0137e-39
-6.60303e-43
-2.13182e-46
-2.60351e-50
-5.95617e-55
6.08306e-11
2.24958e-11
3.22983e-14
2.15131e-12
6.72227e-12
6.65386e-12
1.5144e-12
3.97745e-14
1.55444e-12
1.4942e-12
2.50047e-13
-6.98281e-14
-7.3678e-13
-2.06016e-12
-4.29076e-12
-7.61582e-12
-1.18776e-11
-1.61741e-11
-1.8877e-11
-1.85108e-11
-1.49929e-11
-9.8976e-12
-5.27192e-12
-2.24735e-12
-7.60734e-13
-2.02215e-13
-4.14726e-14
-6.40149e-15
-7.25768e-16
-5.94072e-17
-3.47808e-18
-1.45252e-19
-4.32411e-21
-9.17205e-23
-1.38272e-24
-1.47232e-26
-1.09565e-28
-5.60061e-31
-1.91547e-33
-4.21611e-36
-5.63481e-39
-4.17772e-42
-1.47819e-45
-1.89099e-49
-4.07477e-54
7.17528e-11
6.86621e-11
2.00638e-11
2.23517e-12
6.09496e-12
6.53638e-12
2.79612e-12
2.96694e-12
2.63765e-12
7.39949e-13
-9.44793e-66
-4.67629e-13
-1.56279e-12
-3.60307e-12
-6.92783e-12
-1.16978e-11
-1.74715e-11
-2.27867e-11
-2.54357e-11
-2.38172e-11
-1.83938e-11
-1.15636e-11
-5.85924e-12
-2.37367e-12
-7.62815e-13
-1.92445e-13
-3.76044e-14
-5.60169e-15
-6.26895e-16
-5.2105e-17
-3.18856e-18
-1.42856e-19
-4.66097e-21
-1.1012e-22
-1.86952e-24
-2.25548e-26
-1.90443e-28
-1.10117e-30
-4.22812e-33
-1.0321e-35
-1.50321e-38
-1.18558e-41
-4.31076e-45
-5.45852e-49
-1.10745e-53
7.04451e-11
7.79673e-11
6.71994e-11
5.53829e-12
4.28138e-12
5.14846e-12
4.3847e-12
4.30234e-12
2.29382e-12
-8.11288e-32
-2.42524e-13
-1.12919e-12
-2.95501e-12
-6.17571e-12
-1.12014e-11
-1.80574e-11
-2.57806e-11
-3.20639e-11
-3.40254e-11
-3.02024e-11
-2.20589e-11
-1.30898e-11
-6.25046e-12
-2.38282e-12
-7.19594e-13
-1.70442e-13
-3.1289e-14
-4.39223e-15
-4.65712e-16
-3.6925e-17
-2.17098e-18
-9.40706e-20
-2.98496e-21
-6.88775e-23
-1.14523e-24
-1.35481e-26
-1.12114e-28
-6.33782e-31
-2.36769e-33
-5.57897e-36
-7.74809e-39
-5.7184e-42
-1.90495e-45
-2.09901e-49
-3.80271e-54
2.93676e-12
6.7914e-12
3.17761e-11
7.98017e-11
7.31211e-11
3.47829e-11
2.40958e-12
2.30062e-12
3.58405e-12
1.97347e-12
-9.18554e-32
-1.16623e-13
-8.10617e-13
-2.41381e-12
-5.48141e-12
-1.06158e-11
-1.8255e-11
-2.80611e-11
-3.81358e-11
-4.49549e-11
-4.5008e-11
-3.75413e-11
-2.56815e-11
-1.42368e-11
-6.33729e-12
-2.2478e-12
-6.30423e-13
-1.38471e-13
-2.35633e-14
-3.06999e-15
-3.03009e-16
-2.24563e-17
-1.2398e-18
-5.06707e-20
-1.52232e-21
-3.33546e-23
-5.27497e-25
-5.93727e-27
-4.66855e-29
-2.49944e-31
-8.79148e-34
-1.9327e-36
-2.47004e-39
-1.64125e-42
-4.8208e-46
-4.35975e-50
-7.11037e-55
2.90025e-12
9.75041e-12
2.01776e-11
2.71477e-11
3.48655e-11
5.67477e-11
2.98178e-11
1.00928e-13
8.6061e-14
-2.00781e-33
-1.24958e-13
-6.78278e-13
-2.05398e-12
-4.93348e-12
-1.0123e-11
-1.84044e-11
-3.0062e-11
-4.39076e-11
-5.64389e-11
-6.25415e-11
-5.85092e-11
-4.53695e-11
-2.87349e-11
-1.47002e-11
-6.02248e-12
-1.96133e-12
-5.03942e-13
-1.01225e-13
-1.57396e-14
-1.87485e-15
-1.69499e-16
-1.15382e-17
-5.86951e-19
-2.21699e-20
-6.17099e-22
-1.25483e-23
-1.84296e-25
-1.9253e-27
-1.40212e-29
-6.92405e-32
-2.23202e-34
-4.45159e-37
-5.08007e-40
-2.96488e-43
-7.34376e-47
-5.49019e-51
-7.87245e-56
3.8844e-12
9.85785e-12
1.06685e-11
1.30882e-11
1.06472e-10
6.43558e-11
4.42099e-11
4.78502e-13
-6.6849e-32
-2.04154e-16
-5.75278e-13
-1.86291e-12
-4.63251e-12
-9.91841e-12
-1.88728e-11
-3.23885e-11
-5.01205e-11
-6.90878e-11
-8.32215e-11
-8.57431e-11
-7.40366e-11
-5.26623e-11
-3.04457e-11
-1.41624e-11
-5.25894e-12
-1.54789e-12
-3.58487e-13
-6.47553e-14
-9.04095e-15
-9.66548e-16
-7.84753e-17
-4.80424e-18
-2.20186e-19
-7.50644e-21
-1.88863e-22
-3.47445e-24
-4.61713e-26
-4.35997e-28
-2.86315e-30
-1.26971e-32
-3.65032e-35
-6.42515e-38
-6.37133e-41
-3.17797e-44
-6.33548e-48
-4.18855e-52
-5.3397e-57
5.82949e-12
9.17443e-12
2.97871e-10
8.1548e-10
3.46522e-10
1.49615e-13
1.92553e-11
2.27247e-12
-1.12802e-27
-3.13405e-13
-1.66726e-12
-4.55336e-12
-1.01757e-11
-2.00928e-11
-3.58595e-11
-5.80661e-11
-8.45583e-11
-1.08866e-10
-1.21323e-10
-1.14532e-10
-8.98312e-11
-5.76269e-11
-2.98774e-11
-1.24085e-11
-4.09875e-12
-1.06967e-12
-2.19013e-13
-3.48938e-14
-4.29112e-15
-4.03981e-16
-2.8906e-17
-1.56182e-18
-6.32866e-20
-1.91085e-21
-4.26422e-23
-6.96424e-25
-8.21618e-27
-6.88003e-29
-3.99708e-31
-1.56126e-33
-3.92678e-36
-5.97492e-39
-5.07659e-42
-2.09701e-45
-3.39844e-49
-1.99372e-53
-2.54889e-58
1.60697e-10
1.30882e-11
1.96803e-09
1.70708e-09
1.95114e-10
3.92068e-15
-3.81277e-32
-9.37593e-25
-3.9291e-32
-1.26414e-12
-4.45515e-12
-1.0895e-11
-2.25337e-11
-4.16609e-11
-6.99086e-11
-1.06142e-10
-1.4377e-10
-1.7027e-10
-1.72449e-10
-1.46244e-10
-1.02014e-10
-5.77334e-11
-2.62415e-11
-9.50773e-12
-2.72868e-12
-6.1647e-13
-1.08915e-13
-1.49357e-14
-1.57862e-15
-1.27694e-16
-7.85682e-18
-3.65623e-19
-1.27866e-20
-3.33908e-22
-6.45614e-24
-9.14624e-26
-9.36317e-28
-6.8016e-30
-3.42145e-32
-1.1534e-34
-2.4867e-37
-3.21977e-40
-2.29132e-43
-7.59233e-47
-1.0866e-50
-5.44289e-55
-8.08463e-60
1.42528e-09
2.76468e-11
2.03659e-09
1.53442e-09
2.70031e-12
2.7931e-15
-5.96373e-28
-7.6412e-27
-7.07076e-13
-4.23383e-12
-1.21746e-11
-2.703e-11
-5.19534e-11
-8.97833e-11
-1.40478e-10
-1.97183e-10
-2.43806e-10
-2.59705e-10
-2.33047e-10
-1.72732e-10
-1.04119e-10
-5.04697e-11
-1.95168e-11
-5.98452e-12
-1.44717e-12
-2.7441e-13
-4.05589e-14
-4.64232e-15
-4.09129e-16
-2.76049e-17
-1.41878e-18
-5.5266e-20
-1.62166e-21
-3.56161e-23
-5.8042e-25
-6.94456e-27
-6.01346e-29
-3.69606e-31
-1.57223e-33
-4.46427e-36
-8.04781e-39
-8.65554e-42
-4.96165e-45
-1.33965e-48
-1.66973e-52
-7.48095e-57
-1.24774e-61
1.73862e-09
1.39188e-08
1.43414e-09
2.22972e-13
1.51225e-14
-3.81793e-26
-2.16842e-18
-1.54858e-22
-3.35958e-12
-1.39879e-11
-3.52354e-11
-7.14193e-11
-1.26849e-10
-2.02487e-10
-2.90111e-10
-3.67483e-10
-4.02652e-10
-3.72776e-10
-2.85416e-10
-1.77668e-10
-8.88348e-11
-3.53924e-11
-1.11728e-11
-2.78176e-12
-5.43631e-13
-8.29617e-14
-9.83552e-15
-9.00933e-16
-6.34766e-17
-3.42462e-18
-1.40915e-19
-4.4033e-21
-1.03888e-22
-1.83968e-24
-2.42366e-26
-2.34886e-28
-1.64983e-30
-8.22608e-33
-2.82756e-35
-6.43955e-38
-9.2723e-41
-7.79107e-44
-3.4195e-47
-7.76555e-51
-7.96159e-55
-3.64372e-59
-6.25422e-64
1.9447e-09
2.08279e-08
5.15864e-09
2.69803e-13
1.03532e-14
-3.32415e-21
-2.99638e-22
-6.05288e-13
-1.58919e-11
-5.15409e-11
-1.13143e-10
-2.06236e-10
-3.31936e-10
-4.76994e-10
-6.05075e-10
-6.63149e-10
-6.12574e-10
-4.66032e-10
-2.86749e-10
-1.4099e-10
-5.50056e-11
-1.69527e-11
-4.11176e-12
-7.81547e-13
-1.15885e-13
-1.33443e-14
-1.18872e-15
-8.16074e-17
-4.30539e-18
-1.74031e-19
-5.37456e-21
-1.26337e-22
-2.24841e-24
-3.01135e-26
-3.00652e-28
-2.20977e-30
-1.17492e-32
-4.41008e-35
-1.13518e-37
-1.93019e-40
-2.04397e-43
-1.24164e-46
-4.21804e-50
-7.6321e-54
-7.24808e-58
-3.94435e-62
-7.1253e-67
2.27352e-09
3.10966e-08
5.968e-09
1.86996e-13
-2.91398e-20
-6.41909e-17
-1.7176e-17
-1.82566e-11
-8.85693e-11
-2.21094e-10
-4.1383e-10
-6.58516e-10
-9.24771e-10
-1.13728e-09
-1.19525e-09
-1.04402e-09
-7.3928e-10
-4.17154e-10
-1.85912e-10
-6.51778e-11
-1.79241e-11
-3.85309e-12
-6.448e-13
-8.36769e-14
-8.39501e-15
-6.49636e-16
-3.87186e-17
-1.77568e-18
-6.26142e-20
-1.69435e-21
-3.50995e-23
-5.54777e-25
-6.65388e-27
-6.01349e-29
-4.05257e-31
-2.00877e-33
-7.20046e-36
-1.83396e-38
-3.22262e-41
-3.76814e-44
-2.79914e-47
-1.30582e-50
-3.99454e-54
-8.21264e-58
-1.32836e-61
-1.13005e-65
-2.32358e-70
8.91131e-09
2.59136e-08
6.823e-09
2.26642e-14
-1.44463e-19
-1.57528e-19
-1.35387e-11
-1.91753e-10
-6.1987e-10
-1.22306e-09
-1.83115e-09
-2.3261e-09
-2.56943e-09
-2.36095e-09
-1.7182e-09
-9.67285e-10
-4.19422e-10
-1.40251e-10
-3.61711e-11
-7.18314e-12
-1.09668e-12
-1.28723e-13
-1.16389e-14
-8.13798e-16
-4.42303e-17
-1.87923e-18
-6.27741e-20
-1.65579e-21
-3.4599e-23
-5.7298e-25
-7.50583e-27
-7.74297e-29
-6.24431e-31
-3.90653e-33
-1.87825e-35
-6.87451e-38
-1.8905e-40
-3.84692e-43
-5.68938e-46
-6.00616e-49
-4.40512e-52
-2.36556e-55
-1.00155e-58
-3.7631e-62
-1.02318e-65
-1.24433e-69
-2.74806e-74
1.85936e-08
7.70947e-08
7.93724e-09
1.64063e-15
-6.15273e-21
-1.68177e-21
-4.78223e-10
-2.71355e-09
-7.14494e-09
-1.02647e-08
-8.7981e-09
-4.83817e-09
-1.81056e-09
-4.84805e-10
-9.81703e-11
-1.63498e-11
-2.52817e-12
-3.93305e-13
-5.85134e-14
-7.48541e-15
-7.69041e-16
-6.17555e-17
-3.85099e-18
-1.86857e-19
-7.09323e-21
-2.12031e-22
-5.02527e-24
-9.49082e-26
-1.4339e-27
-1.73402e-29
-1.67589e-31
-1.29075e-33
-7.88409e-36
-3.80279e-38
-1.44165e-40
-4.28457e-43
-9.95694e-46
-1.80189e-48
-2.51832e-51
-2.73816e-54
-2.41671e-57
-1.74926e-60
-1.12006e-63
-6.57859e-67
-2.58882e-70
-3.75564e-74
-7.82606e-79
3.13676e-37
3.05504e-37
3.13943e-37
2.30375e-50
2.86503e-54
1.70815e-55
1.7044e-55
1.05993e-59
3.51878e-60
3.9547e-22
1.83206e-33
3.57302e-37
2.67553e-38
5.27602e-38
6.8335e-41
3.99648e-48
3.78126e-48
1.16297e-52
4.63383e-56
5.67757e-60
7.18924e-62
2.13041e-14
2.13041e-14
2.13041e-14
1.44644e-14
5.11078e-16
1.98214e-17
4.01892e-17
9.26402e-17
1.93669e-16
1.28083e-15
1.24558e-15
2.51353e-16
2.51276e-16
3.45573e-16
4.0849e-16
6.23776e-16
5.76518e-16
3.56505e-16
3.84838e-16
3.05994e-16
4.06668e-16
9.60356e-16
1.61263e-15
1.6065e-15
1.60625e-15
1.48459e-15
1.12063e-16
6.13046e-21
7.27667e-21
1.18668e-18
1.32166e-18
3.40604e-19
4.98638e-30
6.78741e-32
9.77125e-32
1.74738e-34
1.17791e-40
7.38177e-41
3.16169e-44
1.00074e-50
3.34495e-51
2.58914e-54
4.89924e-62
3.69558e-62
2.20156e-62
1.84825e-14
2.13041e-14
1.72214e-14
1.16497e-15
3.96116e-16
1.17518e-15
4.13052e-17
7.50427e-17
1.09112e-16
1.09113e-16
4.38261e-15
1.13743e-14
2.92609e-15
2.48119e-16
2.7611e-16
4.65326e-16
5.31322e-16
3.52891e-16
2.96099e-16
1.16413e-15
4.73614e-15
1.3735e-15
8.61626e-16
1.60691e-15
1.60654e-15
5.81144e-16
3.63977e-18
2.61694e-18
7.3231e-21
1.6684e-18
2.07207e-18
6.11547e-19
9.60945e-30
1.1919e-32
2.98887e-34
3.30486e-34
4.42462e-38
1.24447e-40
5.94569e-44
1.58513e-50
5.96996e-51
3.84311e-54
5.94116e-62
4.28315e-62
1.21777e-62
3.89921e-15
6.70449e-15
1.12633e-15
4.15611e-18
1.14423e-15
9.50905e-15
1.08682e-14
8.20648e-16
1.09113e-16
2.042e-16
4.63105e-15
1.76182e-14
1.76664e-14
2.18665e-15
2.71937e-16
4.04792e-16
3.79286e-16
2.782e-16
4.85698e-16
5.41191e-15
5.26472e-15
1.30758e-15
-3.81171e-34
9.81602e-16
6.81331e-16
2.57137e-16
5.35705e-16
9.45188e-16
3.8781e-16
7.03101e-19
1.40834e-18
2.62008e-19
3.85502e-30
4.92201e-33
1.2844e-34
2.28757e-34
4.3368e-38
6.3995e-41
3.81769e-44
1.06367e-50
5.6065e-51
2.29812e-54
2.06108e-59
1.22615e-62
8.63934e-64
3.91854e-15
3.02828e-16
2.57219e-18
4.02651e-18
8.87566e-16
9.05034e-15
1.97395e-14
9.91673e-15
1.09144e-16
3.55107e-16
1.03902e-15
1.22919e-14
1.87982e-14
1.78514e-14
7.30972e-16
4.0439e-16
4.19933e-16
2.13898e-16
6.63507e-15
6.46127e-15
1.64839e-15
-3.77308e-34
-1.21169e-35
5.7293e-17
1.18658e-16
1.80634e-16
1.03615e-15
1.23729e-15
8.66018e-16
2.23475e-19
2.77944e-26
1.81287e-21
1.43147e-22
1.73341e-34
1.28376e-35
1.73883e-38
9.4276e-38
3.92334e-41
1.33273e-44
2.46987e-51
1.1616e-51
5.09957e-55
5.30969e-63
2.94073e-63
1.77451e-67
9.8295e-15
2.37256e-18
2.57136e-18
2.56521e-18
1.84589e-17
5.71436e-16
5.13175e-15
1.06432e-14
2.23062e-15
3.55242e-16
3.58282e-16
1.90453e-15
1.52749e-14
2.03444e-14
1.70118e-14
6.56664e-16
4.73115e-16
9.69291e-15
8.10457e-15
3.8471e-15
-3.89229e-34
-1.91548e-34
-9.01057e-27
-1.84338e-37
-1.13419e-36
1.04969e-15
1.47351e-15
1.2957e-15
4.82326e-16
2.77944e-26
7.70629e-29
1.78327e-29
1.76626e-29
1.05955e-35
2.05034e-35
3.84541e-39
3.87102e-42
1.13001e-44
2.46987e-51
1.17591e-51
2.9793e-55
6.60889e-59
1.08564e-66
6.33292e-67
1.7744e-67
2.37256e-18
2.37284e-18
2.57086e-18
2.5664e-18
2.53503e-18
9.11242e-18
1.2635e-16
9.14591e-16
4.01631e-15
1.3937e-14
1.45854e-14
2.38064e-15
4.85577e-15
1.78746e-14
2.23773e-14
1.79792e-14
1.67803e-14
1.2258e-14
6.3235e-15
-1.53295e-33
3.53393e-39
8.41366e-16
1.87007e-16
3.95737e-18
7.94797e-16
1.58879e-15
1.52465e-15
9.53911e-16
8.1504e-26
2.45625e-28
1.94507e-29
3.75978e-29
4.22514e-32
9.30162e-38
7.27735e-38
5.77401e-44
5.01508e-47
2.83647e-47
2.58729e-51
1.02169e-57
1.19117e-57
4.63578e-61
1.46704e-67
1.43514e-67
1.40923e-67
2.37256e-18
2.37256e-18
2.52476e-18
2.5259e-18
3.43925e-18
2.62464e-18
1.05854e-17
6.80718e-17
8.48512e-16
2.97484e-14
4.66749e-14
3.35161e-14
4.98951e-15
6.47596e-15
2.13677e-14
2.33204e-14
2.33204e-14
1.20503e-14
-9.131e-41
-3.12495e-17
7.65766e-16
1.32874e-15
1.435e-15
1.28072e-15
1.67922e-15
1.5893e-15
1.10956e-15
7.54851e-16
2.38148e-26
4.89698e-29
8.4125e-32
1.19288e-34
1.37583e-37
1.26847e-40
9.14629e-44
5.01508e-47
2.01549e-50
5.64313e-54
1.02169e-57
1.06203e-61
5.25541e-66
1.56627e-67
1.51761e-67
1.53628e-67
1.15311e-67
2.37262e-18
2.37256e-18
2.37256e-18
2.2422e-17
5.31515e-17
4.97285e-17
7.95483e-18
3.47762e-17
3.47871e-17
1.75834e-14
4.66899e-14
4.6692e-14
3.12793e-14
1.4192e-14
1.88181e-14
2.33204e-14
1.17223e-14
-1.53822e-33
-3.74704e-17
-3.08258e-16
-6.79854e-18
-1.02961e-16
1.40987e-15
1.69799e-15
1.69799e-15
1.24389e-15
7.66166e-16
7.43809e-16
3.6809e-16
2.38148e-26
4.89698e-29
8.4125e-32
5.26829e-31
1.37583e-37
7.58582e-37
2.78332e-39
5.01508e-47
1.56274e-45
8.85723e-49
1.02169e-57
7.71462e-56
2.46527e-59
1.56627e-67
2.31469e-67
1.15311e-67
2.37256e-18
2.37256e-18
3.17883e-17
7.88431e-17
6.60981e-17
4.25274e-16
8.46557e-18
3.40629e-17
3.62416e-17
2.51735e-16
2.6665e-14
4.67862e-14
4.67866e-14
4.51116e-14
3.96197e-14
1.4071e-14
-2.12007e-34
-1.27502e-26
-3.83944e-16
-1.21051e-15
-1.55191e-15
-1.6764e-15
-7.51313e-16
9.6517e-16
1.69799e-15
1.17122e-15
7.6452e-16
8.2407e-16
6.16771e-16
5.15515e-19
9.97768e-29
7.15443e-31
8.58297e-31
1.41236e-36
1.89312e-36
4.61685e-39
1.89777e-45
2.43841e-45
1.13935e-48
1.73348e-55
1.14913e-55
2.58376e-59
4.67495e-67
4.58382e-67
2.40279e-67
2.37256e-18
1.53734e-17
8.09893e-17
8.07054e-17
1.56557e-17
3.3263e-16
7.9376e-15
1.87315e-17
3.56703e-17
2.09526e-16
1.31783e-15
3.0051e-14
4.6808e-14
4.6808e-14
4.1668e-14
2.08627e-15
-7.73974e-62
-7.52042e-17
-1.35221e-15
-3.70425e-15
-5.62615e-15
-5.75657e-15
-3.84405e-15
-1.25653e-15
7.8366e-16
1.17063e-15
8.56426e-16
8.52014e-16
3.30793e-16
2.35955e-26
4.93683e-29
7.89452e-31
9.65012e-31
1.63188e-34
9.33839e-37
2.10733e-39
1.59517e-45
1.19778e-45
5.10707e-49
1.49746e-55
9.87238e-56
3.15426e-59
2.58478e-67
1.66905e-67
7.50227e-68
2.90556e-17
7.72269e-17
8.3602e-17
6.41624e-17
3.27904e-18
2.45621e-18
1.3641e-14
6.32496e-14
3.53298e-14
3.04185e-16
7.25658e-16
1.34012e-15
3.04236e-14
4.29718e-14
6.89253e-15
-2.94192e-27
-1.99852e-41
-4.30164e-16
-3.81591e-15
-9.11435e-15
-1.33971e-14
-1.37153e-14
-9.93909e-15
-4.74448e-15
-1.14389e-15
5.88996e-16
9.26348e-16
9.02156e-16
1.20511e-16
8.34142e-27
1.72363e-29
3.64352e-31
3.50956e-31
5.90275e-35
3.22246e-37
7.09323e-40
5.80846e-46
3.83272e-46
1.59094e-49
4.13789e-56
2.06082e-56
5.24891e-60
1.87296e-65
9.1275e-68
6.67801e-68
7.8446e-17
8.59124e-17
8.32841e-17
3.30306e-17
2.70533e-18
2.46743e-18
4.79058e-15
1.42783e-13
1.42854e-13
2.97726e-14
7.40012e-16
7.40012e-16
1.00009e-14
1.08024e-14
1.0979e-16
-3.9251e-30
2.78148e-16
-7.13134e-16
-8.54009e-15
-1.90077e-14
-2.70669e-14
-2.76104e-14
-2.05857e-14
-1.09898e-14
-3.77274e-15
-3.70116e-16
9.02713e-16
8.72303e-16
7.4917e-17
4.67273e-27
4.9771e-29
7.44067e-29
4.60727e-31
4.68287e-37
2.17333e-37
3.36687e-40
3.8446e-46
1.69466e-46
4.49994e-50
1.72551e-56
9.55152e-57
1.78941e-60
1.55172e-77
5.60653e-68
6.52807e-68
2.94046e-17
6.57708e-17
3.75291e-17
1.2982e-17
3.4499e-18
2.70533e-18
2.51556e-15
6.15537e-14
1.43042e-13
3.8682e-14
7.40012e-16
6.53883e-15
4.34247e-14
7.99257e-15
-1.59905e-35
1.34706e-14
2.03621e-14
9.13629e-16
-1.68414e-14
-3.57079e-14
-4.9381e-14
-5.00317e-14
-3.78161e-14
-2.1127e-14
-8.3112e-15
-1.82299e-15
5.83514e-16
8.72259e-16
1.8915e-16
1.31927e-26
2.56453e-29
1.8e-31
1.298e-31
2.33766e-37
1.64988e-37
8.24236e-40
2.38387e-46
4.06761e-46
1.77898e-49
-1.08687e-63
2.11223e-58
3.94591e-60
-3.35658e-80
9.36736e-69
6.12845e-68
2.77975e-17
2.91693e-17
2.92039e-17
6.30718e-15
2.49576e-14
1.25097e-14
2.57496e-15
5.79584e-15
1.01545e-14
1.03364e-14
1.23799e-13
2.79388e-13
9.87091e-14
-9.81086e-32
3.01518e-14
4.26278e-14
2.53894e-14
-3.49132e-15
-3.23483e-14
-6.27437e-14
-8.40751e-14
-8.43737e-14
-6.41865e-14
-3.67848e-14
-1.54278e-14
-4.23757e-15
-2.02303e-16
8.36805e-16
3.28388e-16
2.11477e-26
4.06372e-29
4.19092e-31
4.57675e-31
4.68798e-37
6.4074e-37
1.22232e-39
-1.65253e-57
5.24337e-46
2.33634e-50
-1.33299e-63
5.94746e-90
-5.32178e-97
1.58301e-62
4.31599e-66
5.02499e-68
2.71676e-17
2.75631e-17
2.8517e-17
1.40919e-14
4.69855e-14
2.06105e-14
2.67741e-15
3.04879e-15
3.06158e-15
1.49147e-13
5.14148e-13
3.44832e-13
2.51505e-17
1.12903e-14
4.91613e-14
4.2671e-14
8.01818e-15
-1.93865e-14
-5.97227e-14
-1.05089e-13
-1.36121e-13
-1.34871e-13
-1.02666e-13
-5.96276e-14
-2.58817e-14
-7.86722e-15
-1.12951e-15
7.51657e-16
3.46672e-16
2.03216e-26
3.82851e-29
5.31417e-31
9.25766e-31
2.74385e-34
1.89882e-37
9.9956e-40
3.27205e-43
3.98916e-46
2.39958e-46
2.35758e-49
4.38702e-52
1.90695e-55
3.73422e-59
2.92768e-63
8.06575e-68
6.63817e-14
1.00093e-15