/*--------------------------------*- C++ -*----------------------------------*\
| =========                 |                                                 |
| \\      /  F ield         | OpenFOAM: The Open Source CFD Toolbox           |
|  \\    /   O peration     | Version:  v2012                                 |
|   \\  /    A nd           | Website:  www.openfoam.com                      |
|    \\/     M anipulation  |                                                 |
\*---------------------------------------------------------------------------*/
FoamFile
{
    version     2.0;
    format      ascii;
    class       surfaceScalarField;
    location    "0.75";
    object      alphaPhi0.water;
}
// * * * * * * * * * * * * * * * * * * * * * * * * * * * * * * * * * * * * * //

dimensions      [0 3 -1 0 0 0 0];
oriented        oriented;


internalField   nonuniform List<scalar> 
8162
(
-1.02211e-45
-1.91839e-35
-4.62025e-43
-1.65401e-53
-1.03488e-44
-2.41328e-52
-9.03431e-60
-1.50885e-52
-3.37479e-60
-1.9366e-66
-7.57493e-59
-1.59799e-66
-1.07323e-80
-1.50095e-65
-3.00486e-73
-3.68999e-85
-7.39854e-80
-2.67861e-87
-3.46303e-90
-2.40796e-84
-5.77001e-92
-5.57428e-94
-2.09247e-89
-4.35262e-97
-3.64991e-97
-3.11201e-93
-6.22739e-101
-1.4265e-100
-1.87949e-96
-2.47161e-104
-2.90172e-105
-6.75453e-100
-1.41831e-107
-1.55055e-109
-1.27497e-104
-2.26247e-112
-2.66784e-114
-7.78489e-109
-1.14517e-116
-6.53389e-120
-9.24601e-114
-1.8119e-121
-1.48753e-126
-2.64403e-119
-3.44641e-127
-1.08905e-134
-4.57004e-126
-8.14695e-134
-4.8444e-145
-2.95208e-134
-5.3699e-142
-3.42901e-158
-1.29235e-144
-2.09156e-152
-7.53749e-168
-7.67592e-158
-1.34129e-165
-1.36284e-167
-2.70295e-175
-2.86152e-29
-1.11555e-20
-3.23786e-28
-2.23731e-36
-3.10061e-28
-8.55825e-36
-1.33192e-45
-2.27939e-35
-5.61783e-43
-2.12197e-53
-1.22569e-44
-2.8665e-52
-1.17205e-59
-1.77539e-52
-3.96433e-60
-2.55942e-66
-9.06236e-59
-1.91429e-66
-1.52824e-80
-1.8447e-65
-3.69934e-73
-4.77962e-85
-9.14103e-80
-3.78412e-87
-4.52755e-90
-2.92569e-84
-7.08555e-92
-7.33438e-94
-2.57821e-89
-5.39666e-97
-4.81329e-97
-3.87385e-93
-7.81412e-101
-1.87246e-100
-2.34422e-96
-3.18653e-104
-4.0859e-105
-8.33095e-100
-1.69956e-107
-3.74996e-109
-1.72557e-104
-3.18027e-112
-3.40676e-114
-1.76423e-108
-2.63174e-116
-1.54819e-119
-1.10819e-113
-2.23717e-121
-2.54603e-126
-5.68076e-119
-7.9123e-127
-2.00608e-134
-7.129e-126
-1.35653e-133
-1.39265e-144
-4.83264e-134
-9.27141e-142
-6.47448e-158
-3.20972e-144
-5.87442e-152
-1.74641e-167
-1.41321e-157
-2.47623e-165
-3.09861e-167
-6.13006e-175
2.67985e-11
-7.50899e-09
2.16061e-15
2.12852e-10
-2.37209e-08
3.02506e-15
1.17613e-10
-4.64136e-08
1.01482e-14
-3.01351e-09
-5.13795e-08
4.25268e-15
-6.30868e-09
-5.06862e-08
1.12138e-15
-7.51277e-09
-6.64573e-08
-2.1021e-14
-6.44873e-09
-9.34615e-08
-2.204e-14
-3.59553e-09
-1.19955e-07
-1.40009e-14
-3.85214e-10
-1.30526e-07
-1.91463e-14
-1.1596e-07
-5.11931e-14
-4.93137e-10
-5.51989e-08
-4.01161e-15
-6.83942e-12
-8.14749e-09
-4.27888e-16
-2.06702e-16
-1.49106e-10
-6.54404e-18
-1.58417e-18
-3.57849e-15
-1.66776e-22
-1.18647e-21
-2.15074e-17
-7.33441e-25
-3.44742e-29
-1.39154e-20
-4.66126e-28
-2.96498e-36
-3.39146e-28
-1.01266e-35
-1.74539e-45
-2.75905e-35
-7.16918e-43
-2.74593e-53
-1.47767e-44
-3.63951e-52
-1.5292e-59
-2.12889e-52
-4.987e-60
-3.42088e-66
-1.09977e-58
-2.42371e-66
-1.63543e-80
-2.30921e-65
-4.78373e-73
-6.24688e-85
-1.09795e-79
-4.31295e-87
-5.98231e-90
-3.60648e-84
-8.95256e-92
-9.76081e-94
-3.22586e-89
-6.86049e-97
-6.3714e-97
-4.89823e-93
-1.00223e-100
-2.41752e-100
-2.94649e-96
-4.19786e-104
-5.91761e-105
-1.01485e-99
-2.07096e-107
-8.33672e-109
-2.40799e-104
-4.67061e-112
-4.22954e-114
-3.58934e-108
-5.62264e-116
-3.16202e-119
-1.29922e-113
-2.69158e-121
-3.93936e-126
-1.04552e-118
-1.58968e-126
-3.18846e-134
-1.01439e-125
-2.03634e-133
-3.05809e-144
-6.93725e-134
-1.39412e-141
-1.23919e-157
-5.97435e-144
-1.26098e-151
-4.12206e-167
-2.6428e-157
-4.63741e-165
-7.18618e-167
-1.41736e-174
2.2447e-11
-7.53144e-09
4.23293e-15
1.69873e-10
-2.38683e-08
-8.19979e-16
-1.86259e-10
-4.60574e-08
-5.78822e-15
-3.70311e-09
-4.78627e-08
3.10197e-15
-7.00934e-09
-4.738e-08
1.17443e-15
-8.05455e-09
-6.54121e-08
-1.43074e-14
-6.9342e-09
-9.45819e-08
-1.55795e-14
-4.00554e-09
-1.22883e-07
-1.4825e-14
-5.30596e-10
-1.33998e-07
-1.79425e-14
2.57731e-09
-1.19064e-07
4.32739e-15
2.69302e-09
-8.11401e-08
-5.46933e-15
-1.6263e-09
-7.78599e-08
4.12582e-15
-7.59226e-10
-6.12325e-08
-4.95412e-15
-1.22266e-11
-1.10216e-08
-6.45647e-16
-3.69439e-16
-2.35893e-10
-1.0984e-17
-2.27275e-18
-5.79976e-15
-2.6764e-22
-1.64038e-21
-2.79691e-17
-9.18543e-25
-4.19113e-29
-1.75261e-20
-5.95222e-28
-3.94483e-36
-3.80748e-28
-1.14733e-35
-2.29964e-45
-3.39714e-35
-9.12021e-43
-3.58398e-53
-1.81116e-44
-4.6101e-52
-2.00572e-59
-2.59945e-52
-6.24528e-60
-4.61982e-66
-1.35255e-58
-3.04328e-66
-2.33572e-80
-2.94032e-65
-6.17537e-73
-8.23583e-85
-1.36629e-79
-5.60398e-87
-7.98649e-90
-4.50813e-84
-1.13371e-91
-1.31378e-93
-4.0968e-89
-8.78469e-97
-8.46941e-97
-6.28969e-93
-1.29869e-100
-3.07522e-100
-3.73373e-96
-5.60484e-104
-8.79503e-105
-1.22293e-99
-2.51554e-107
-1.65306e-108
-3.45357e-104
-7.07699e-112
-5.15758e-114
-6.50863e-108
-1.07948e-115
-5.60596e-119
-1.50694e-113
-3.18528e-121
-5.64592e-126
-1.68441e-118
-2.78993e-126
-4.59052e-134
-1.35291e-125
-2.82884e-133
-5.39023e-144
-9.22161e-134
-1.90639e-141
-2.40419e-157
-9.24758e-144
-2.17532e-151
-9.9014e-167
-5.02398e-157
-8.81363e-165
-1.69826e-166
-3.33859e-174
1.75891e-11
-7.54904e-09
4.32394e-15
1.2198e-10
-2.39727e-08
-2.07679e-15
-6.01542e-10
-4.53339e-08
-3.07069e-15
-4.47424e-09
-4.399e-08
-2.71717e-15
-7.76424e-09
-4.40899e-08
1.72948e-15
-8.87666e-09
-6.42997e-08
-1.59988e-14
-7.91363e-09
-9.55449e-08
-1.0165e-14
-4.95176e-09
-1.25844e-07
-2.90136e-15
-1.14137e-09
-1.37806e-07
5.86395e-16
2.55466e-09
-1.22756e-07
-1.30495e-14
3.70732e-09
-8.22919e-08
3.72109e-15
-1.48225e-09
-7.2935e-08
-6.53276e-15
-1.08185e-09
-6.57495e-08
-6.33294e-15
-2.06155e-11
-1.44945e-08
-8.2947e-16
-6.62622e-16
-3.61783e-10
-1.72229e-17
-3.23065e-18
-9.6458e-15
-4.32051e-22
-2.24699e-21
-3.67241e-17
-1.22064e-24
-5.1723e-29
-2.22264e-20
-8.04721e-28
-5.26696e-36
-4.4193e-28
-1.42681e-35
-3.045e-45
-4.24693e-35
-1.20946e-42
-4.71673e-53
-2.25352e-44
-5.94537e-52
-2.6431e-59
-3.22852e-52
-7.92626e-60
-6.29658e-66
-1.6838e-58
-3.85701e-66
-2.95958e-80
-3.80202e-65
-8.10341e-73
-1.09487e-84
-1.7086e-79
-7.12731e-87
-1.07685e-89
-5.7106e-84
-1.46277e-91
-1.78806e-93
-5.27774e-89
-1.14736e-96
-1.13125e-96
-8.1985e-93
-1.71447e-100
-3.8605e-100
-4.77254e-96
-7.59306e-104
-1.33572e-104
-1.45999e-99
-3.01679e-107
-2.94453e-108
-5.06509e-104
-1.09e-111
-6.26667e-114
-1.06806e-107
-1.86941e-115
-8.84044e-119
-1.7586e-113
-3.7578e-121
-7.7217e-126
-2.44049e-118
-4.36454e-126
-6.35377e-134
-1.7479e-125
-3.74863e-133
-8.5768e-144
-1.21557e-133
-2.49887e-141
-4.73215e-157
-1.37443e-143
-3.3893e-151
-2.41816e-166
-9.72186e-157
-1.69997e-164
-6.0994e-174
-4.08556e-166
-7.992e-174
-7.76219e-174
-1.83566e-181
1.26861e-11
-7.56174e-09
5.1049e-15
6.80973e-11
-2.40281e-08
-4.26997e-15
-1.10828e-09
-4.41575e-08
-7.57114e-15
-5.28964e-09
-3.98086e-08
-4.971e-15
-8.64762e-09
-4.07319e-08
-1.23625e-16
-1.0155e-08
-6.27922e-08
-2.62772e-14
-9.54392e-09
-9.6156e-08
-1.27239e-14
-6.55507e-09
-1.28833e-07
-1.3215e-14
-2.36986e-09
-1.41988e-07
-2.00941e-14
1.73036e-09
-1.26852e-07
-5.13049e-14
4.04901e-09
-8.46078e-08
6.43929e-16
-1.18379e-09
-6.77879e-08
6.17354e-15
-1.42887e-09
-6.84833e-08
-6.40698e-15
-3.26763e-11
-1.84307e-08
-9.86312e-16
-1.18878e-15
-5.31962e-10
-2.63667e-17
-4.54417e-18
-1.63472e-14
-7.80162e-22
-3.04745e-21
-4.84771e-17
-1.70201e-24
-6.55559e-29
-2.82989e-20
-1.10334e-27
-7.0515e-36
-5.36112e-28
-1.70377e-35
-4.04913e-45
-5.37912e-35
-1.51851e-42
-6.25596e-53
-2.84132e-44
-7.57713e-52
-3.49703e-59
-4.07315e-52
-1.02606e-59
-8.64977e-66
-2.11908e-58
-5.01037e-66
-3.56928e-80
-4.98339e-65
-1.08946e-72
-1.46697e-84
-2.12132e-79
-9.32739e-87
-1.46573e-89
-7.32486e-84
-1.90757e-91
-2.45991e-93
-6.89159e-89
-1.51332e-96
-1.51947e-96
-1.08419e-92
-2.28356e-100
-4.79116e-100
-6.15788e-96
-1.03292e-103
-2.06137e-104
-1.72978e-99
-3.50866e-107
-4.79036e-108
-7.55073e-104
-1.67765e-111
-7.76388e-114
-1.6143e-107
-2.95664e-115
-1.27054e-118
-2.12443e-113
-4.52012e-121
-1.04816e-125
-3.25588e-118
-6.22785e-126
-9.22401e-134
-2.29117e-125
-4.9359e-133
-1.45711e-143
-1.77743e-133
-3.40007e-141
-9.46302e-157
-2.44696e-143
-5.64293e-151
-5.99903e-166
-1.91742e-156
-3.33441e-164
-2.48556e-173
-9.9949e-166
-1.94505e-173
-3.13144e-173
-7.33013e-181
7.93644e-12
-7.56968e-09
4.58952e-15
6.44568e-12
-2.40266e-08
-3.02525e-15
-1.65158e-09
-4.24995e-08
-1.79712e-14
-6.06146e-09
-3.53988e-08
-9.43122e-15
-9.63945e-09
-3.71539e-08
7.74651e-16
-1.18169e-08
-6.06147e-08
-2.44059e-14
-1.16422e-08
-9.63307e-08
-1.27176e-14
-8.57982e-09
-1.31895e-07
-2.2553e-14
-4.0142e-09
-1.46551e-07
-2.50704e-14
4.07677e-10
-1.31269e-07
-5.91815e-14
3.77054e-09
-8.79683e-08
-2.5752e-14
-8.79221e-10
-6.31551e-08
3.10312e-15
-1.7567e-09
-6.95623e-08
-5.66096e-15
-4.95324e-11
-2.25964e-08
-1.23004e-15
-2.12552e-15
-7.43555e-10
-3.42196e-17
-6.31274e-18
-2.80489e-14
-1.17464e-21
-4.08812e-21
-6.40596e-17
-2.19449e-24
-8.65411e-29
-3.60677e-20
-1.38601e-27
-9.45698e-36
-6.89182e-28
-2.25555e-35
-5.40255e-45
-6.88694e-35
-2.0143e-42
-8.35646e-53
-3.62326e-44
-9.65477e-52
-4.64184e-59
-5.21186e-52
-1.29156e-59
-1.19592e-65
-2.69211e-58
-6.28696e-66
-5.52537e-80
-6.60801e-65
-1.43583e-72
-1.98e-84
-2.76759e-79
-1.22044e-86
-2.01278e-89
-9.50539e-84
-2.50175e-91
-3.41928e-93
-9.11327e-89
-2.02091e-96
-2.05441e-96
-1.45352e-92
-3.08354e-100
-5.89151e-100
-8.02748e-96
-1.41599e-103
-3.21329e-104
-2.0385e-99
-4.01595e-107
-7.22992e-108
-1.13711e-103
-2.56938e-111
-1.02105e-113
-2.28121e-107
-4.33839e-115
-1.70031e-118
-2.79385e-113
-5.77442e-121
-1.5008e-125
-4.08334e-118
-8.27811e-126
-1.62742e-133
-3.28881e-125
-6.88356e-133
-3.40986e-143
-3.44915e-133
-5.56677e-141
-1.92515e-156
-6.84112e-143
-1.29541e-150
-1.51029e-165
-3.85532e-156
-6.65937e-164
-1.02501e-172
-2.48342e-165
-4.80723e-173
-1.67671e-204
-1.27932e-172
-2.96554e-180
1.19998e-205
-8.02307e-216
3.60443e-12
-7.5733e-09
4.05961e-15
-5.96648e-11
-2.39634e-08
-5.73544e-15
-2.12535e-09
-4.04338e-08
-2.27709e-14
-6.61868e-09
-3.09054e-08
-1.59356e-14
-1.05101e-08
-3.32625e-08
6.01148e-16
-1.3423e-08
-5.77018e-08
-8.06895e-15
-1.36221e-08
-9.61316e-08
-1.03239e-16
-1.04353e-08
-1.35081e-07
-1.10565e-14
-5.55997e-09
-1.51423e-07
-1.81483e-14
-8.94943e-10
-1.35929e-07
-3.81358e-14
3.12523e-09
-9.19858e-08
-6.86948e-14
-6.70601e-10
-5.93572e-08
-2.64398e-14
-2.0276e-09
-6.93624e-08
-7.69826e-15
-7.66212e-11
-2.67046e-08
-1.62746e-15
-3.775e-15
-9.96732e-10
-5.199e-17
-8.64326e-18
-4.84463e-14
-2.18282e-21
-5.41885e-21
-8.44018e-17
-3.25914e-24
-1.20865e-28
-4.58909e-20
-1.8997e-27
-1.26905e-35
-9.51863e-28
-3.13279e-35
-7.22543e-45
-8.89209e-35
-2.64945e-42
-1.12323e-52
-4.66372e-44
-1.27499e-51
-6.1764e-59
-6.75253e-52
-1.7318e-59
-1.6617e-65
-3.44737e-58
-8.36123e-66
-7.4412e-80
-8.84641e-65
-1.98227e-72
-2.69062e-84
-3.63758e-79
-1.67017e-86
-2.7868e-89
-1.24678e-83
-3.33512e-91
-4.79943e-93
-1.21924e-88
-2.72908e-96
-2.79956e-96
-1.97386e-92
-4.20097e-100
-7.20072e-100
-1.05849e-95
-1.95006e-103
-5.03091e-104
-2.39781e-99
-4.54119e-107
-1.02532e-107
-1.72045e-103
-3.90638e-111
-1.52047e-113
-3.04883e-107
-5.98685e-115
-2.16323e-118
-4.3066e-113
-8.37365e-121
-2.49357e-125
-4.91698e-118
-1.04626e-125
-3.95825e-133
-5.77484e-125
-1.12632e-132
-1.15201e-142
-9.30109e-133
-1.29876e-140
-3.98579e-156
-2.46129e-142
-4.29799e-150
-3.85422e-165
-7.89079e-156
-1.3548e-163
-4.26854e-172
-6.25815e-165
-1.20567e-172
-7.35859e-205
-5.28133e-172
-1.21437e-179
4.76946e-206
-3.46754e-216
-1.28385e-13
-7.57319e-09
4.7078e-15
-1.21793e-10
-2.38417e-08
-3.87315e-15
-2.39214e-09
-3.81635e-08
-3.04415e-14
-6.69926e-09
-2.65984e-08
-2.5102e-14
-1.07724e-08
-2.91893e-08
-3.7061e-15
-1.41814e-08
-5.42928e-08
-1.04357e-14
-1.45427e-08
-9.57704e-08
8.62387e-16
-1.12446e-08
-1.38379e-07
-6.1748e-15
-6.31018e-09
-1.56354e-07
-1.91131e-14
-1.68466e-09
-1.40549e-07
-3.87675e-14
2.37382e-09
-9.60411e-08
-8.85908e-14
-5.57056e-10
-5.64211e-08
-3.99693e-14
-2.21411e-09
-6.82959e-08
-6.05659e-15
-1.09998e-10
-3.04749e-08
-1.92134e-15
-6.63892e-15
-1.29618e-09
-6.92341e-17
-1.164e-17
-8.38028e-14
-3.79485e-21
-7.09021e-21
-1.10474e-16
-4.52103e-24
-1.80744e-28
-5.81483e-20
-2.48156e-27
-1.702e-35
-1.42319e-27
-4.7132e-35
-9.67629e-45
-1.1552e-34
-3.52658e-42
-1.51789e-52
-6.04726e-44
-1.66117e-51
-8.23153e-59
-8.84304e-52
-2.25869e-59
-2.31694e-65
-4.44312e-58
-1.07761e-65
-1.09262e-79
-1.19326e-64
-2.68304e-72
-3.67912e-84
-4.9211e-79
-1.86717e-86
-3.88763e-89
-1.65137e-83
-4.45988e-91
-6.79839e-93
-1.64862e-88
-3.72056e-96
-3.85088e-96
-2.71256e-92
-5.79569e-100
-8.79144e-100
-1.41371e-95
-2.71646e-103
-7.87446e-104
-2.83149e-99
-5.24051e-107
-1.37981e-107
-2.60381e-103
-5.91165e-111
-2.73148e-113
-3.88723e-107
-7.86536e-115
-2.68099e-118
-8.15428e-113
-1.47299e-120
-5.22854e-125
-5.84203e-118
-1.28824e-125
-1.15079e-132
-1.30208e-124
-2.36331e-132
-3.82284e-142
-2.67906e-132
-3.85524e-140
-8.38643e-156
-7.3352e-142
-1.40234e-149
-9.95721e-165
-1.63819e-155
-2.80405e-163
-1.79159e-171
-1.59692e-164
-3.06449e-172
-3.12218e-205
-2.1987e-171
-5.01641e-179
1.81001e-206
-1.46702e-216
-2.91359e-12
-7.57028e-09
1.92135e-15
-1.60122e-10
-2.36845e-08
-3.51093e-15
-2.31148e-09
-3.60121e-08
-3.61238e-14
-5.97758e-09
-2.29323e-08
-3.10167e-14
-9.75098e-09
-2.54159e-08
-4.26542e-15
-1.31006e-08
-5.09432e-08
-1.61615e-14
-1.32691e-08
-9.56019e-08
-1.40906e-14
-9.9963e-09
-1.41652e-07
-3.50936e-15
-5.49504e-09
-1.60853e-07
-1.42495e-14
-1.4565e-09
-1.44581e-07
-3.72173e-14
1.87338e-09
-9.93673e-08
-8.49964e-14
-4.28007e-10
-5.41177e-08
-4.35265e-14
-2.29281e-09
-6.66433e-08
-2.22708e-15
-1.49425e-10
-3.36627e-08
-2.06641e-15
-1.15255e-14
-1.64094e-09
-8.6723e-17
-1.53923e-17
-1.44495e-13
-6.58261e-21
-9.15044e-21
-1.43193e-16
-6.09753e-24
-2.90026e-28
-7.32216e-20
-3.15816e-27
-2.27885e-35
-2.29437e-27
-7.94654e-35
-1.2963e-44
-1.50682e-34
-4.99593e-42
-2.06032e-52
-7.88424e-44
-2.31416e-51
-1.09798e-58
-1.16855e-51
-3.12112e-59
-3.23722e-65
-5.75547e-58
-1.44204e-65
-1.19888e-79
-1.61853e-64
-3.72179e-72
-5.05948e-84
-6.28121e-79
-2.97821e-86
-5.46055e-89
-2.20664e-83
-6.00925e-91
-9.71143e-93
-2.25071e-88
-5.10429e-96
-5.35638e-96
-3.76854e-92
-8.05739e-100
-1.08111e-99
-1.9156e-95
-3.81583e-103
-1.228e-103
-3.38987e-99
-6.25395e-107
-1.77572e-107
-3.92989e-103
-8.89207e-111
-5.84745e-113
-4.76065e-107
-9.91992e-115
-3.35871e-118
-1.79317e-112
-3.10202e-120
-1.30949e-124
-7.17333e-118
-1.60173e-125
-3.10971e-132
-3.31691e-124
-5.94645e-132
-9.91597e-142
-6.63445e-132
-1.0881e-139
-1.78711e-155
-1.64077e-141
-3.58089e-149
-2.60042e-164
-3.43231e-155
-5.88455e-163
-7.5656e-171
-4.12023e-164
-7.88363e-172
-1.27986e-205
-9.21434e-171
-2.08725e-178
6.53887e-207
-6.01939e-217
-4.43387e-12
-7.56586e-09
1.64907e-15
-1.55257e-10
-2.35336e-08
-4.43402e-15
-1.82318e-09
-3.43442e-08
-3.20464e-14
-4.23968e-09
-2.05158e-08
-4.22039e-14
-6.91416e-09
-2.27414e-08
-6.45414e-15
-9.4203e-09
-4.84371e-08
-3.50597e-14
-8.93596e-09
-9.60863e-08
-1.48896e-14
-5.97989e-09
-1.44608e-07
-5.17782e-15
-2.6137e-09
-1.64216e-07
-3.99532e-15
-4.12795e-12
-1.47184e-07
-3.94743e-14
1.90809e-09
-1.01275e-07
-7.58225e-14
-1.5213e-10
-5.20568e-08
-4.88921e-14
-2.25056e-09
-6.45104e-08
-6.20678e-15
-1.92841e-10
-3.60678e-08
-2.44698e-15
-1.97002e-14
-2.01731e-09
-1.12553e-16
-1.9964e-17
-2.47222e-13
-1.24613e-20
-1.16432e-20
-1.83302e-16
-7.91765e-24
-4.94325e-28
-9.14734e-20
-3.90234e-27
-3.04333e-35
-3.92632e-27
-1.2683e-34
-1.7357e-44
-1.96965e-34
-6.27116e-42
-2.80641e-52
-1.03177e-43
-2.97934e-51
-1.46482e-58
-1.55554e-51
-4.13925e-59
-4.52638e-65
-7.48342e-58
-1.88748e-65
-2.14701e-79
-2.20358e-64
-5.11923e-72
-6.99397e-84
-8.80812e-79
-4.08007e-86
-7.7173e-89
-2.97209e-83
-8.15515e-91
-1.398e-92
-3.09916e-88
-7.07382e-96
-7.54897e-96
-5.28746e-92
-1.13369e-99
-1.35773e-99
-2.63814e-95
-5.41835e-103
-1.9041e-103
-4.18354e-99
-7.74691e-107
-2.20042e-107
-5.90485e-103
-1.3283e-110
-1.34922e-112
-5.63679e-107
-1.20967e-114
-4.56894e-118
-4.06554e-112
-7.04657e-120
-3.32604e-124
-1.00279e-117
-2.14908e-125
-7.07557e-132
-8.04703e-124
-1.50315e-131
-2.06153e-141
-1.36185e-131
-2.57547e-139
-3.83898e-155
-3.02645e-141
-7.3381e-149
-6.856e-164
-7.21918e-155
-1.24584e-162
-3.20939e-170
-1.07372e-163
-2.05005e-171
-8.36234e-195
-3.88112e-170
-8.73453e-178
3.69738e-196
-2.07935e-202
-4.67432e-12
-7.56118e-09
-4.83903e-15
-1.0458e-10
-2.34337e-08
-2.66226e-16
-1.04723e-09
-3.34015e-08
-3.35169e-14
-1.6901e-09
-1.98729e-08
-3.62739e-14
-2.45731e-09
-2.19742e-08
-1.02234e-14
-3.27627e-09
-4.76182e-08
-2.63461e-14
-1.69191e-09
-9.76706e-08
-2.11624e-14
6.05327e-10
-1.46905e-07
-1.3611e-14
2.13526e-09
-1.65742e-07
-5.97434e-15
2.54093e-09
-1.47583e-07
-3.49459e-14
2.43123e-09
-1.01161e-07
-4.37367e-14
2.1785e-10
-4.98427e-08
-5.84198e-14
-2.10685e-09
-6.1996e-08
-6.80992e-15
-2.3656e-10
-3.75715e-08
-2.56711e-15
-3.30935e-14
-2.39949e-09
-1.2905e-16
-2.53882e-17
-4.17922e-13
-2.10514e-20
-1.46076e-20
-2.3124e-16
-9.61022e-24
-8.78201e-28
-1.13228e-19
-4.818e-27
-4.05091e-35
-6.97753e-27
-2.30392e-34
-2.32115e-44
-2.57592e-34
-8.53773e-42
-3.83285e-52
-1.35321e-43
-4.01611e-51
-1.95347e-58
-2.08264e-51
-5.59146e-59
-6.32617e-65
-9.7554e-58
-2.46417e-65
-2.26501e-79
-3.00628e-64
-6.97343e-72
-9.71424e-84
-1.14096e-78
-5.0041e-86
-1.09672e-88
-4.03163e-83
-1.10171e-90
-2.02655e-92
-4.3e-88
-9.79878e-96
-1.0802e-95
-7.48426e-92
-1.60111e-99
-1.78087e-99
-3.69926e-95
-7.7251e-103
-2.93328e-103
-5.46603e-99
-1.01904e-106
-2.64575e-107
-8.82833e-103
-1.96592e-110
-3.03249e-112
-6.50493e-107
-1.43625e-114
-7.72762e-118
-8.7142e-112
-1.55729e-119
-7.65529e-124
-1.87613e-117
-3.51199e-125
-1.37825e-131
-1.71956e-123
-3.4109e-131
-3.88327e-141
-2.42611e-131
-5.1797e-139
-8.26861e-155
-5.40566e-141
-1.36408e-148
-1.82313e-163
-1.51771e-154
-2.64831e-162
-1.36587e-169
-2.82502e-163
-5.38303e-171
-7.37303e-192
-1.64085e-169
-3.67079e-177
2.7566e-193
-1.81239e-199
-4.07817e-12
-7.5571e-09
-3.66234e-16
-3.65865e-11
-2.34012e-08
-3.57802e-15
-3.05042e-10
-3.31331e-08
-2.21058e-14
8.29826e-10
-2.10078e-08
-3.06287e-14
2.21061e-09
-2.3355e-08
-1.04548e-14
3.74681e-09
-4.91544e-08
-5.81954e-15
6.71365e-09
-1.00637e-07
-8.09036e-15
8.24512e-09
-1.48437e-07
-1.38175e-14
7.57098e-09
-1.65064e-07
1.06568e-15
5.39761e-09
-1.45401e-07
-6.28898e-15
3.0325e-09
-9.87908e-08
-3.03952e-14
4.81137e-10
-4.72907e-08
-6.77722e-14
-1.91981e-09
-5.9317e-08
-9.89396e-15
-2.76606e-10
-3.81878e-08
-2.72751e-15
-5.45603e-14
-2.75682e-09
-1.53147e-16
-3.16616e-17
-6.95123e-13
-3.66948e-20
-1.80781e-20
-2.87045e-16
-1.14038e-23
-1.59213e-27
-1.38758e-19
-5.8557e-27
-5.37181e-35
-1.25972e-26
-4.00216e-34
-3.09851e-44
-3.36596e-34
-1.09189e-41
-5.24453e-52
-1.77642e-43
-5.28173e-51
-2.60304e-58
-2.80037e-51
-7.59229e-59
-8.82874e-65
-1.27378e-57
-3.26045e-65
-4.23502e-79
-4.10372e-64
-9.63885e-72
-1.35521e-83
-1.63339e-78
-7.88762e-86
-1.56631e-88
-5.50389e-83
-1.50955e-90
-2.95614e-92
-6.00625e-88
-1.37394e-95
-1.57235e-95
-1.06769e-91
-2.28585e-99
-2.52084e-99
-5.28965e-95
-1.1078e-102
-4.49123e-103
-7.84175e-99
-1.46387e-106
-3.12081e-107
-1.31422e-102
-2.88185e-110
-6.30252e-112
-7.4103e-107
-1.67744e-114
-1.81003e-117
-1.70721e-111
-3.17867e-119
-1.55042e-123
-4.8704e-117
-7.75713e-125
-2.44346e-131
-3.22257e-123
-6.77879e-131
-7.94404e-141
-4.04641e-131
-9.43474e-139
-1.7798e-154
-1.17595e-140
-2.75693e-148
-4.88846e-163
-3.18507e-154
-5.62865e-162
-5.82558e-169
-7.50679e-163
-1.42687e-170
-1.74029e-189
-6.95533e-169
-1.54748e-176
5.33368e-191
-4.23228e-197
-3.65129e-12
-7.55344e-09
-3.2754e-15
8.91976e-12
-2.34138e-08
-8.94154e-16
1.05498e-10
-3.32296e-08
-8.30266e-15
2.2697e-09
-2.3172e-08
-9.45392e-15
5.12523e-09
-2.62105e-08
-1.51441e-14
9.242e-09
-5.32712e-08
-1.21752e-16
1.37363e-08
-1.05132e-07
-5.10832e-15
1.46526e-08
-1.49353e-07
-1.93495e-14
1.1968e-08
-1.62373e-07
-8.97388e-15
7.54303e-09
-1.40967e-07
-1.10928e-14
3.32296e-09
-9.45657e-08
-1.6868e-14
5.46259e-10
-4.45136e-08
-5.72907e-14
-1.75162e-09
-5.66988e-08
-8.43568e-15
-3.10095e-10
-3.80601e-08
-2.69215e-15
-8.81347e-14
-3.06283e-09
-1.64769e-16
-3.87407e-17
-1.13288e-12
-5.82931e-20
-2.20848e-20
-3.50296e-16
-1.28273e-23
-2.89081e-27
-1.68277e-19
-7.01985e-27
-7.09487e-35
-2.26838e-26
-7.03318e-34
-4.12734e-44
-4.39012e-34
-1.39654e-41
-7.18469e-52
-2.3317e-43
-6.83201e-51
-3.46498e-58
-3.77674e-51
-1.00742e-58
-1.2293e-64
-1.66463e-57
-4.20051e-65
-4.84375e-79
-5.59775e-64
-1.29925e-71
-1.89842e-83
-2.17891e-78
-9.83026e-86
-2.24695e-88
-7.55713e-83
-2.05557e-90
-4.33634e-92
-8.43908e-88
-1.92488e-95
-2.33169e-95
-1.53364e-91
-3.27364e-99
-3.99156e-99
-7.72074e-95
-1.59121e-102
-6.84507e-103
-1.27677e-98
-2.3935e-106
-3.68099e-107
-1.95133e-102
-4.19172e-110
-1.19525e-111
-8.53627e-107
-1.96396e-114
-5.13715e-117
-3.04873e-111
-5.91909e-119
-2.80584e-123
-1.39397e-116
-2.09391e-124
-4.29912e-131
-5.44095e-123
-1.20297e-130
-2.18178e-140
-7.00993e-131
-1.69811e-138
-3.82318e-154
-3.73673e-140
-7.48837e-148
-1.32235e-162
-6.69004e-154
-1.19588e-161
-2.48796e-168
-2.01615e-162
-3.81908e-170
-2.11303e-187
-2.95313e-168
-6.53767e-176
5.078e-189
-5.08725e-195
-3.67224e-12
-7.54976e-09
-3.1194e-15
1.62228e-11
-2.34336e-08
4.32679e-16
1.56874e-10
-3.33703e-08
-6.62366e-15
2.27225e-09
-2.52874e-08
5.98808e-15
5.63692e-09
-2.95751e-08
-1.18327e-14
1.21668e-08
-5.98011e-08
1.77311e-14
1.78327e-08
-1.10798e-07
1.97873e-15
1.82142e-08
-1.49735e-07
-1.92457e-14
1.42295e-08
-1.58381e-07
-3.28972e-15
8.48917e-09
-1.35217e-07
-1.46406e-14
3.23821e-09
-8.93103e-08
-1.43595e-15
4.67931e-10
-4.17426e-08
-4.10703e-14
-1.63357e-09
-5.42627e-08
-7.77105e-15
-3.35987e-10
-3.73927e-08
-2.64527e-15
-1.39216e-13
-3.30111e-09
-1.79432e-16
-4.65505e-17
-1.80166e-12
-9.14314e-20
-2.66546e-20
-4.20145e-16
-1.48653e-23
-5.18106e-27
-2.01927e-19
-8.55388e-27
-9.33276e-35
-4.0179e-26
-1.2513e-33
-5.48497e-44
-5.71104e-34
-1.81324e-41
-9.84853e-52
-3.05772e-43
-9.00078e-51
-4.60715e-58
-5.10287e-51
-1.37125e-58
-1.70658e-64
-2.1761e-57
-5.54661e-65
-6.82347e-79
-7.62208e-64
-1.79089e-71
-2.66988e-83
-2.94862e-78
-1.3843e-85
-3.23637e-88
-1.04307e-82
-2.84442e-90
-6.39274e-92
-1.1919e-87
-2.72963e-95
-3.52514e-95
-2.21623e-91
-4.73318e-99
-7.18523e-99
-1.15041e-94
-2.29717e-102
-1.04116e-102
-2.36335e-98
-4.49475e-106
-4.51637e-107
-2.89803e-102
-6.07639e-110
-2.07923e-111
-1.04915e-106
-2.39556e-114
-1.4052e-116
-5.01085e-111
-1.01109e-118
-4.69615e-123
-3.58643e-116
-5.58938e-124
-8.43296e-131
-8.62012e-123
-1.97862e-130
-7.80101e-140
-1.44493e-130
-3.36569e-138
-8.24633e-154
-1.38305e-139
-2.65047e-147
-3.61192e-162
-1.42027e-153
-2.54331e-161
-1.06319e-167
-5.4757e-162
-1.03293e-169
-1.64422e-185
-1.25481e-167
-2.76556e-175
2.88891e-187
-3.92085e-193
-3.8686e-12
-7.54588e-09
-1.37316e-15
-2.58654e-12
-2.34349e-08
5.24184e-15
1.34876e-11
-3.33864e-08
2.00513e-15
1.42413e-09
-2.66981e-08
6.33768e-15
5.10525e-09
-3.32562e-08
-8.87074e-15
1.34461e-08
-6.8142e-08
1.96854e-14
1.92157e-08
-1.16567e-07
-1.26333e-14
1.90702e-08
-1.49589e-07
-1.59352e-14
1.45975e-08
-1.53899e-07
-5.23706e-15
8.48473e-09
-1.29094e-07
-7.85061e-15
2.97267e-09
-8.3794e-08
1.8654e-14
3.62345e-10
-3.91313e-08
-3.23253e-14
-1.564e-09
-5.19983e-08
-7.25085e-15
-3.54959e-10
-3.63615e-08
-2.38239e-15
-2.14642e-13
-3.46633e-09
-1.8985e-16
-5.50164e-17
-2.78514e-12
-1.37901e-19
-3.1816e-20
-4.95504e-16
-1.67705e-23
-9.07219e-27
-2.39757e-19
-9.95185e-27
-1.2229e-34
-6.93211e-26
-2.10449e-33
-7.27222e-44
-7.40651e-34
-2.29725e-41
-1.35015e-51
-4.00383e-43
-1.16266e-50
-6.11961e-58
-6.90031e-51
-1.8375e-58
-2.361e-64
-2.84477e-57
-7.21184e-65
-8.36176e-79
-1.03511e-63
-2.42744e-71
-3.76926e-83
-3.8713e-78
-1.87002e-85
-4.67882e-88
-1.44666e-82
-3.93365e-90
-9.46661e-92
-1.69115e-87
-3.88032e-95
-5.43157e-95
-3.21954e-91
-6.87743e-99
-1.43384e-98
-1.7481e-94
-3.33379e-102
-1.58639e-102
-4.76867e-98
-9.34366e-106
-6.30676e-107
-4.32245e-102
-8.84544e-110
-3.35783e-111
-1.55488e-106
-3.31834e-114
-3.32779e-116
-7.68289e-111
-1.60446e-118
-7.62365e-123
-7.82134e-116
-1.31535e-123
-2.05587e-130
-1.3545e-122
-3.17273e-130
-2.66007e-139
-3.83421e-130
-8.04371e-138
-1.81426e-153
-4.28493e-139
-8.95402e-147
-9.96827e-162
-3.10394e-153
-5.56088e-161
-4.54305e-167
-1.50282e-161
-2.82449e-169
-9.16403e-184
-5.3313e-167
-1.17049e-174
1.03474e-185
-2.16529e-191
-3.84003e-12
-7.54203e-09
-3.61224e-15
-2.37183e-11
-2.3415e-08
-8.7923e-16
-1.95564e-10
-3.32145e-08
-4.45214e-15
6.13437e-10
-2.75071e-08
4.70126e-15
5.22684e-09
-3.78695e-08
-1.01923e-14
1.41156e-08
-7.70308e-08
1.84246e-14
1.89938e-08
-1.21445e-07
-2.19902e-14
1.83717e-08
-1.48967e-07
-1.86938e-14
1.39274e-08
-1.49444e-07
-4.61989e-15
7.98779e-09
-1.23143e-07
2.62839e-15
2.65914e-09
-7.8461e-08
2.39066e-14
2.59845e-10
-3.6731e-08
-3.07297e-14
-1.53306e-09
-4.98432e-08
-6.65327e-15
-3.6871e-10
-3.51131e-08
-2.08559e-15
-3.22625e-13
-3.5616e-09
-1.84494e-16
-6.41152e-17
-4.17197e-12
-1.96111e-19
-3.7603e-20
-5.7545e-16
-1.87408e-23
-1.54166e-26
-2.81707e-19
-1.14191e-26
-1.59677e-34
-1.15748e-25
-3.49698e-33
-9.62093e-44
-9.57305e-34
-2.93365e-41
-1.85044e-51
-5.23293e-43
-1.50195e-50
-8.12285e-58
-9.3304e-51
-2.46415e-58
-3.25409e-64
-3.71868e-57
-9.39506e-65
-1.56438e-78
-1.4011e-63
-3.29589e-71
-5.34167e-83
-5.60287e-78
-2.4718e-85
-6.78782e-88
-2.01548e-82
-5.48369e-90
-1.40756e-91
-2.40947e-87
-5.55256e-95
-8.51664e-95
-4.69884e-91
-1.00533e-98
-3.00116e-98
-2.703e-94
-4.86807e-102
-2.43322e-102
-9.86935e-98
-2.00215e-105
-1.16976e-106
-6.50849e-102
-1.30285e-109
-5.10811e-111
-3.26538e-106
-6.00343e-114
-6.74741e-116
-1.11583e-110
-2.39888e-118
-1.28264e-122
-1.46292e-115
-2.6735e-123
-6.0148e-130
-2.28542e-122
-5.31905e-130
-7.39138e-139
-1.15516e-129
-2.23725e-137
-4.16827e-153
-1.05158e-138
-2.46673e-146
-2.77816e-161
-7.1571e-153
-1.268e-160
-1.93993e-166
-4.15765e-161
-7.80363e-169
-3.92384e-182
-2.26341e-166
-4.95291e-174
2.0486e-184
-9.18898e-190
-3.74445e-12
-7.53828e-09
-2.2615e-15
-3.33737e-11
-2.33854e-08
2.18207e-15
-4.3677e-10
-3.28111e-08
-1.10092e-15
2.91827e-10
-2.82357e-08
-2.99678e-14
6.26711e-09
-4.38448e-08
-1.52313e-14
1.4371e-08
-8.51348e-08
1.1536e-15
1.80219e-08
-1.25096e-07
-5.06878e-15
1.7027e-08
-1.47972e-07
-1.74537e-14
1.2782e-08
-1.45185e-07
-4.97015e-16
7.19366e-09
-1.17542e-07
-6.0751e-15
2.23036e-09
-7.34934e-08
3.51144e-14
1.07236e-10
-3.46068e-08
-1.64776e-14
-1.53758e-09
-4.78128e-08
-6.88835e-15
-3.79085e-10
-3.37432e-08
-1.927e-15
-4.72523e-13
-3.59411e-09
-1.79203e-16
-7.39387e-17
-6.0434e-12
-2.78691e-19
-4.40568e-20
-6.59896e-16
-2.08544e-23
-2.53256e-26
-3.27585e-19
-1.29243e-26
-2.07859e-34
-1.86339e-25
-5.50595e-33
-1.27042e-43
-1.23304e-33
-3.68122e-41
-2.53459e-51
-6.82523e-43
-1.9271e-50
-1.07795e-57
-1.26062e-50
-3.30885e-58
-4.46751e-64
-4.8616e-57
-1.22818e-64
-1.82013e-78
-1.88944e-63
-4.47815e-71
-7.59932e-83
-7.55126e-78
-3.89414e-85
-9.88079e-88
-2.82004e-82
-7.69879e-90
-2.10075e-91
-3.44602e-87
-7.99792e-95
-1.35543e-94
-6.8865e-91
-1.48004e-98
-6.2447e-98
-4.23935e-94
-7.17506e-102
-3.77944e-102
-1.99585e-97
-4.17692e-105
-3.02448e-106
-9.95568e-102
-1.96408e-109
-7.4476e-111
-9.1955e-106
-1.4842e-113
-1.19876e-115
-1.56403e-110
-3.43936e-118
-2.44137e-122
-2.41847e-115
-4.78075e-123
-1.76946e-129
-4.56438e-122
-1.02057e-129
-1.75803e-138
-3.23982e-129
-6.22446e-137
-1.07772e-152
-2.30001e-138
-5.82053e-146
-7.80073e-161
-1.8447e-152
-3.29188e-160
-8.27418e-166
-1.15473e-160
-2.17317e-168
-1.36612e-180
-9.59952e-166
-2.0942e-173
-2.44614e-182
-3.17131e-188
-3.76444e-12
-7.53451e-09
-4.65071e-16
-3.20218e-11
-2.33571e-08
-3.96883e-15
-6.62574e-10
-3.21805e-08
-7.81645e-15
4.78948e-10
-2.93773e-08
-3.00406e-14
7.42744e-09
-5.07933e-08
-2.04594e-14
1.40723e-08
-9.17797e-08
-1.71474e-14
1.66622e-08
-1.27686e-07
-1.41423e-14
1.54023e-08
-1.46713e-07
-8.9337e-15
1.13422e-08
-1.41108e-07
-1.24115e-14
6.12086e-09
-1.12308e-07
-1.20926e-14
1.5949e-09
-6.89653e-08
5.78014e-14
-1.2624e-10
-3.28846e-08
2.57184e-15
-1.57887e-09
-4.59289e-08
-6.06853e-15
-3.87633e-10
-3.22707e-08
-1.81318e-15
-6.74506e-13
-3.57127e-09
-1.69618e-16
-8.47849e-17
-8.46107e-12
-3.82646e-19
-5.12234e-20
-7.50582e-16
-2.29562e-23
-4.01503e-26
-3.77041e-19
-1.46755e-26
-2.6991e-34
-2.88756e-25
-8.8016e-33
-1.67504e-43
-1.58273e-33
-4.82219e-41
-3.46874e-51
-8.88316e-43
-2.52407e-50
-1.43117e-57
-1.70077e-50
-4.47336e-58
-6.10954e-64
-6.35904e-57
-1.60559e-64
-2.70206e-78
-2.5379e-63
-6.04187e-71
-1.08541e-82
-1.04299e-77
-5.01097e-85
-1.44316e-87
-3.96222e-82
-1.08337e-89
-3.14662e-91
-4.9463e-87
-1.15435e-94
-2.18211e-94
-1.01316e-90
-2.18481e-98
-1.24824e-97
-6.71828e-94
-1.06508e-101
-5.98462e-102
-3.84024e-97
-8.17797e-105
-8.90868e-106
-1.55748e-101
-3.05798e-109
-1.06498e-110
-2.6807e-105
-4.18255e-113
-1.9252e-115
-2.17249e-110
-4.83558e-118
-5.62418e-122
-3.65198e-115
-7.73987e-123
-4.61783e-129
-1.12174e-121
-2.37955e-129
-4.16664e-138
-7.79e-129
-1.55109e-136
-4.3965e-152
-5.49539e-138
-1.36929e-145
-2.19798e-160
-6.92985e-152
-1.31357e-159
-3.52474e-165
-3.20482e-160
-6.07552e-168
-3.97509e-179
-4.06871e-165
-8.84655e-173
-6.06582e-180
-9.14796e-187
-3.71045e-12
-7.53081e-09
3.35868e-15
-2.65591e-11
-2.33343e-08
-4.0653e-15
-7.40378e-10
-3.14667e-08
-4.77643e-15
1.13848e-09
-3.12562e-08
-3.37571e-14
8.15332e-09
-5.78081e-08
-2.78539e-14
1.32874e-08
-9.69138e-08
-2.5499e-14
1.50837e-08
-1.29482e-07
-1.12332e-14
1.36253e-08
-1.45254e-07
-1.05716e-14
9.69895e-09
-1.37162e-07
-1.44726e-14
4.83019e-09
-1.07426e-07
-1.9826e-14
7.80816e-10
-6.49158e-08
8.10938e-14
-4.26155e-10
-3.16751e-08
2.58915e-14
-1.64826e-09
-4.42006e-08
-5.02535e-15
-3.95459e-10
-3.05512e-08
-1.64994e-15
-9.39018e-13
-3.4994e-09
-1.56145e-16
-9.72846e-17