/*--------------------------------*- C++ -*----------------------------------*\
| =========                 |                                                 |
| \\      /  F ield         | OpenFOAM: The Open Source CFD Toolbox           |
|  \\    /   O peration     | Version:  v2012                                 |
|   \\  /    A nd           | Website:  www.openfoam.com                      |
|    \\/     M anipulation  |                                                 |
\*---------------------------------------------------------------------------*/
FoamFile
{
    version     2.0;
    format      ascii;
    class       surfaceScalarField;
    location    "0.65";
    object      phi;
}
// * * * * * * * * * * * * * * * * * * * * * * * * * * * * * * * * * * * * * //

dimensions      [0 3 -1 0 0 0 0];
oriented        oriented;


internalField   nonuniform List<scalar> 
6514
(
1.01436e-10
-2.3303e-10
-1.55293e-16
1.06076e-10
-2.38914e-10
-4.87762e-16
1.10051e-10
-2.43494e-10
-8.10153e-16
1.13287e-10
-2.46717e-10
-1.39936e-15
1.15728e-10
-2.48537e-10
-2.1922e-15
1.1734e-10
-2.48999e-10
-2.33193e-15
1.18098e-10
-2.48085e-10
-2.5607e-15
1.18003e-10
-2.45874e-10
-2.21717e-15
1.17068e-10
-2.42437e-10
-2.03433e-15
1.15325e-10
-2.37858e-10
-1.52749e-15
1.12816e-10
-2.32247e-10
-1.15018e-15
1.09601e-10
-2.25717e-10
-7.25492e-16
1.05745e-10
-2.184e-10
-5.44356e-16
1.01323e-10
-2.10406e-10
-3.24413e-16
9.64159e-11
-2.01864e-10
-1.63835e-16
9.11071e-11
-1.92881e-10
-1.41096e-17
8.54822e-11
-1.83521e-10
6.83356e-17
7.96197e-11
-1.73975e-10
9.56841e-17
7.36022e-11
-1.64202e-10
8.01502e-17
6.75023e-11
-1.54357e-10
2.6873e-17
6.13918e-11
-1.44414e-10
-4.76488e-17
5.53363e-11
-1.34408e-10
-1.37058e-16
4.93906e-11
-1.24433e-10
-2.39193e-16
4.36111e-11
-1.14376e-10
-3.20599e-16
3.80434e-11
-1.04304e-10
-3.07299e-16
3.27297e-11
-9.41575e-11
-3.41315e-16
2.77067e-11
-8.39301e-11
-3.6179e-16
2.30059e-11
-7.36195e-11
-3.45736e-16
1.86577e-11
-6.31804e-11
-3.15944e-16
1.46886e-11
-5.26499e-11
-2.66456e-16
1.1123e-11
-4.20843e-11
-2.11252e-16
7.98656e-12
-3.15925e-11
-1.51819e-16
5.30635e-12
-2.13938e-11
-9.61967e-17
3.1145e-12
-1.18769e-11
-5.00841e-17
1.45398e-12
-3.69703e-12
-1.95307e-17
3.85596e-13
1.97203e-12
-1.53722e-17
3.11933e-12
-5.76005e-17
1.07053e-10
-2.38242e-10
2.72847e-16
1.11611e-10
-2.43472e-10
3.49235e-17
1.15431e-10
-2.47316e-10
-1.9939e-16
1.18445e-10
-2.49738e-10
-7.86418e-16
1.20601e-10
-2.50706e-10
-1.51938e-15
1.21874e-10
-2.50285e-10
-1.71211e-15
1.22248e-10
-2.48475e-10
-1.92604e-15
1.21736e-10
-2.45375e-10
-1.68567e-15
1.20359e-10
-2.41073e-10
-1.55208e-15
1.18163e-10
-2.3567e-10
-1.17335e-15
1.15199e-10
-2.29291e-10
-9.20056e-16
1.11538e-10
-2.22061e-10
-6.28897e-16
1.07253e-10
-2.14118e-10
-5.17253e-16
1.02427e-10
-2.05583e-10
-3.56585e-16
9.71483e-11
-1.96586e-10
-2.27931e-16
9.15032e-11
-1.87236e-10
-9.98644e-17
8.55812e-11
-1.77598e-10
-2.31092e-17
7.94622e-11
-1.67856e-10
1.05236e-17
7.32295e-11
-1.57969e-10
6.6746e-18
6.69549e-11
-1.48083e-10
-2.8564e-17
6.07088e-11
-1.38169e-10
-8.5387e-17
5.45546e-11
-1.28254e-10
-1.55468e-16
4.85442e-11
-1.18426e-10
-2.39999e-16
4.27313e-11
-1.08566e-10
-3.04935e-16
3.71582e-11
-9.8734e-11
-2.91677e-16
3.18639e-11
-8.88665e-11
-3.17338e-16
2.68822e-11
-7.89518e-11
-3.32755e-16
2.22412e-11
-6.89821e-11
-3.1405e-16
1.79686e-11
-5.89111e-11
-2.82528e-16
1.40877e-11
-4.87719e-11
-2.33094e-16
1.062e-11
-3.8619e-11
-1.78866e-16
7.5875e-12
-2.85617e-11
-1.20982e-16
5.01318e-12
-1.88204e-11
-6.69648e-17
2.92371e-12
-9.78771e-12
-2.17467e-17
1.35449e-12
-2.12759e-12
9.00548e-18
3.55275e-13
2.97163e-12
1.41492e-17
3.47463e-12
-1.94612e-17
1.12953e-10
-2.4341e-10
-2.1564e-16
1.17383e-10
-2.47906e-10
-3.32829e-16
1.21e-10
-2.50938e-10
-3.70678e-16
1.23739e-10
-2.52485e-10
-7.64792e-16
1.25559e-10
-2.52537e-10
-1.30334e-15
1.26441e-10
-2.51179e-10
-1.41179e-15
1.26383e-10
-2.48431e-10
-1.54941e-15
1.25407e-10
-2.4441e-10
-1.34355e-15
1.23549e-10
-2.39226e-10
-1.24683e-15
1.20864e-10
-2.32993e-10
-9.57564e-16
1.17418e-10
-2.25851e-10
-7.9221e-16
1.13289e-10
-2.17935e-10
-5.87422e-16
1.0856e-10
-2.09393e-10
-5.23672e-16
1.03321e-10
-2.00349e-10
-4.0095e-16
9.76667e-11
-1.90934e-10
-2.93293e-16
9.16869e-11
-1.81258e-10
-1.7813e-16
8.54735e-11
-1.71384e-10
-1.03553e-16
7.91074e-11
-1.6149e-10
-6.41788e-17
7.26714e-11
-1.51533e-10
-5.87039e-17
6.62361e-11
-1.41648e-10
-8.06144e-17
5.98695e-11
-1.31803e-10
-1.24938e-16
5.36323e-11
-1.22018e-10
-1.80807e-16
4.75732e-11
-1.12369e-10
-2.53262e-16
4.17424e-11
-1.02738e-10
-3.06753e-16
3.61789e-11
-9.31734e-11
-2.85973e-16
3.09182e-11
-8.36091e-11
-3.04723e-16
2.59906e-11
-7.40276e-11
-3.14828e-16
2.14214e-11
-6.44163e-11
-2.91479e-16
1.72349e-11
-5.47277e-11
-2.56847e-16
1.34517e-11
-4.49912e-11
-2.05793e-16
1.00902e-11
-3.52594e-11
-1.51607e-16
7.16871e-12
-2.56415e-11
-9.48271e-17
4.70635e-12
-1.63586e-11
-4.25611e-17
2.72436e-12
-7.80562e-12
1.1989e-18
1.25058e-12
-6.53168e-13
3.14046e-17
3.23578e-13
3.89946e-12
3.69502e-17
3.79873e-12
8.39487e-18
1.19138e-10
-2.48478e-10
2.55334e-16
1.23389e-10
-2.52156e-10
9.85904e-17
1.26746e-10
-2.54295e-10
1.93977e-17
1.29154e-10
-2.54896e-10
-4.31755e-16
1.30579e-10
-2.5397e-10
-9.83395e-16
1.31014e-10
-2.51623e-10
-1.1256e-15
1.30472e-10
-2.47899e-10
-1.26254e-15
1.28986e-10
-2.42933e-10
-1.09748e-15
1.26605e-10
-2.36854e-10
-1.03904e-15
1.23398e-10
-2.29793e-10
-8.14014e-16
1.19442e-10
-2.219e-10
-7.11808e-16
1.14825e-10
-2.13322e-10
-5.6436e-16
1.09639e-10
-2.04212e-10
-5.33599e-16
1.03982e-10
-1.94696e-10
-4.38188e-16
9.79518e-11
-1.84906e-10
-3.49702e-16
9.1642e-11
-1.74951e-10
-2.46828e-16
8.51462e-11
-1.64889e-10
-1.76413e-16
7.8545e-11
-1.5489e-10
-1.3338e-16
7.19204e-11
-1.44909e-10
-1.20992e-16
6.53404e-11
-1.35069e-10
-1.3204e-16
5.88704e-11
-1.25334e-10
-1.66114e-16
5.25676e-11
-1.15717e-10
-2.10115e-16
4.6477e-11
-1.06281e-10
-2.73085e-16
4.0645e-11
-9.69087e-11
-3.15594e-16
3.51067e-11
-8.76381e-11
-2.88144e-16
2.9894e-11
-7.83997e-11
-3.00071e-16
2.5034e-11
-6.91709e-11
-3.05382e-16
2.05484e-11
-5.9934e-11
-2.76107e-16
1.64588e-11
-5.06409e-11
-2.36751e-16
1.27825e-11
-4.13172e-11
-1.82005e-16
9.53504e-12
-3.20136e-11
-1.26074e-16
6.73151e-12
-2.28389e-11
-6.88056e-17
4.38686e-12
-1.40142e-11
-1.70918e-17
2.51711e-12
-5.93539e-12
2.6062e-17
1.1426e-12
7.22379e-13
5.6309e-17
2.9057e-13
4.75277e-12
6.24112e-17
4.09028e-12
3.78538e-17
1.25606e-10
-2.53411e-10
-1.13713e-15
1.29618e-10
-2.56177e-10
-8.90146e-16
1.32653e-10
-2.57337e-10
-6.24491e-16
1.34665e-10
-2.56916e-10
-8.19509e-16
1.35632e-10
-2.54948e-10
-1.10208e-15
1.35562e-10
-2.51563e-10
-1.12122e-15
1.3448e-10
-2.46826e-10
-1.13927e-15
1.32435e-10
-2.40897e-10
-9.65261e-16
1.29491e-10
-2.33918e-10
-8.97044e-16
1.25729e-10
-2.26036e-10
-7.17988e-16
1.21238e-10
-2.17414e-10
-6.50219e-16
1.16117e-10
-2.08205e-10
-5.46811e-16
1.10465e-10
-1.98564e-10
-5.34821e-16
1.04387e-10
-1.88621e-10
-4.63309e-16
9.7984e-11
-1.78506e-10
-3.91551e-16
9.13526e-11
-1.68322e-10
-3.03408e-16
8.45866e-11
-1.58125e-10
-2.39376e-16
7.77657e-11
-1.48071e-10
-1.96156e-16
7.09696e-11
-1.38114e-10
-1.79519e-16
6.42636e-11
-1.28365e-10
-1.82191e-16
5.77092e-11
-1.18782e-10
-2.07952e-16
5.13597e-11
-1.09369e-10
-2.41186e-16
4.5256e-11
-1.00181e-10
-2.95607e-16
3.94402e-11
-9.1096e-11
-3.29604e-16
3.39435e-11
-8.21445e-11
-2.91373e-16
2.87939e-11
-7.32534e-11
-2.97685e-16
2.40147e-11
-6.4395e-11
-2.99084e-16
1.96248e-11
-5.55473e-11
-2.65301e-16
1.56425e-11
-4.66612e-11
-2.22996e-16
1.20823e-11
-3.7759e-11
-1.65667e-16
8.95658e-12
-2.88893e-11
-1.08513e-16
6.27741e-12
-2.01603e-11
-5.05979e-17
4.05582e-12
-1.17925e-11
1.15522e-18
2.30269e-12
-4.18146e-12
4.44571e-17
1.03093e-12
1.99554e-12
7.53952e-17
2.56387e-13
5.529e-12
8.26347e-17
4.3481e-12
5.97972e-17
1.32355e-10
-2.5812e-10
-2.43299e-16
1.36058e-10
-2.59881e-10
-1.48598e-16
1.387e-10
-2.59979e-10
-6.79525e-17
1.40244e-10
-2.58464e-10
-3.73209e-16
1.40686e-10
-2.55395e-10
-7.50044e-16
1.40046e-10
-2.5093e-10
-8.54553e-16
1.38369e-10
-2.45156e-10
-9.30534e-16
1.35716e-10
-2.38251e-10
-8.0977e-16
1.32168e-10
-2.30377e-10
-7.7428e-16
1.2782e-10
-2.21693e-10
-6.35586e-16
1.22772e-10
-2.12371e-10
-5.98741e-16
1.17133e-10
-2.02569e-10
-5.24281e-16
1.1101e-10
-1.92446e-10
-5.25983e-16
1.04512e-10
-1.82128e-10
-4.72575e-16
9.77443e-11
-1.71742e-10
-4.18279e-16
9.08036e-11
-1.61384e-10
-3.45649e-16
8.37832e-11
-1.51106e-10
-2.91444e-16
7.67609e-11
-1.41051e-10
-2.5092e-16
6.98135e-11
-1.31168e-10
-2.33392e-16
6.30022e-11
-1.21556e-10
-2.30168e-16
5.63844e-11
-1.12166e-10
-2.49756e-16
5.00088e-11
-1.02996e-10
-2.73532e-16
4.39115e-11
-9.40869e-11
-3.20354e-16
3.81302e-11
-8.5318e-11
-3.43844e-16
3.26919e-11
-7.67093e-11
-2.99114e-16
2.76206e-11
-6.81853e-11
-2.98177e-16
2.2936e-11
-5.97137e-11
-2.95365e-16
1.86537e-11
-5.1268e-11
-2.56003e-16
1.47889e-11
-4.27989e-11
-2.09781e-16
1.13534e-11
-3.43254e-11
-1.48795e-16
8.35689e-12
-2.5894e-11
-8.96982e-17
5.80815e-12
-1.7612e-11
-3.04882e-17
3.71454e-12
-9.69847e-12
2.16522e-17
2.08196e-12
-2.54775e-12
6.54026e-17
9.1603e-13
3.16325e-12
9.70958e-17
2.21175e-13
6.22596e-12
1.05548e-16
4.57115e-12
8.53074e-17
1.3937e-10
-2.62548e-10
-6.67753e-16
1.42687e-10
-2.63204e-10
-6.59256e-16
1.44855e-10
-2.62152e-10
-4.68571e-16
1.45854e-10
-2.5947e-10
-6.5846e-16
1.45697e-10
-2.55246e-10
-8.1539e-16
1.44422e-10
-2.49663e-10
-8.59502e-16
1.4209e-10
-2.42831e-10
-8.48041e-16
1.38781e-10
-2.34949e-10
-7.39388e-16
1.34592e-10
-2.26193e-10
-6.79461e-16
1.2963e-10
-2.16735e-10
-5.72913e-16
1.24007e-10
-2.06752e-10
-5.42765e-16
1.17841e-10
-1.96407e-10
-4.96087e-16
1.11246e-10
-1.85855e-10
-5.0169e-16
1.04335e-10
-1.75221e-10
-4.67867e-16
9.7214e-11
-1.64624e-10
-4.28463e-16
8.99803e-11
-1.54154e-10
-3.74347e-16
8.27253e-11
-1.43853e-10
-3.31421e-16
7.55234e-11
-1.33852e-10
-2.97233e-16
6.84476e-11
-1.24095e-10
-2.8148e-16
6.15543e-11
-1.14665e-10
-2.75245e-16
5.4896e-11
-1.0551e-10
-2.90745e-16
4.8516e-11
-9.66187e-11
-3.06444e-16
4.24458e-11
-8.80204e-11
-3.46395e-16
3.67181e-11
-7.95938e-11
-3.62533e-16
3.13555e-11
-7.13499e-11
-3.0758e-16
2.63779e-11
-6.3211e-11
-3.00188e-16
2.18014e-11
-5.51404e-11
-2.92938e-16
1.76384e-11
-4.7108e-11
-2.48835e-16
1.39012e-11
-3.90641e-11
-2.00037e-16
1.05989e-11
-3.10247e-11
-1.36519e-16
7.73839e-12
-2.30344e-11
-7.61776e-17
5.32565e-12
-1.51994e-11
-1.58533e-17
3.36444e-12
-7.7366e-12
3.69358e-17
1.85587e-12
-1.03774e-12
8.16258e-17
7.98392e-13
4.22284e-12
1.14734e-16
1.85088e-13
6.84177e-12
1.24912e-16
4.75856e-12
1.06424e-16
1.46631e-10
-2.66592e-10
4.87502e-16
1.49473e-10
-2.66042e-10
2.8667e-16
1.5108e-10
-2.63756e-10
1.86297e-16
1.5145e-10
-2.59841e-10
-1.18279e-16
1.50617e-10
-2.54415e-10
-4.10104e-16
1.48638e-10
-2.47688e-10
-5.55186e-16
1.45594e-10
-2.39791e-10
-6.41826e-16
1.41582e-10
-2.30942e-10
-5.98633e-16
1.36715e-10
-2.21332e-10
-5.73892e-16
1.31114e-10
-2.11138e-10
-4.97649e-16
1.24904e-10
-2.00545e-10
-4.8482e-16
1.18207e-10
-1.89714e-10
-4.55768e-16
1.11145e-10
-1.78797e-10
-4.66938e-16
1.03832e-10
-1.67912e-10
-4.47796e-16
9.63754e-11
-1.5717e-10
-4.24888e-16
8.88697e-11
-1.46652e-10
-3.88878e-16
8.14037e-11
-1.36389e-10
-3.60117e-16
7.40476e-11
-1.265e-10
-3.34317e-16
6.68691e-11
-1.16919e-10
-3.23517e-16
5.99194e-11
-1.07719e-10
-3.16634e-16
5.32451e-11
-9.88391e-11
-3.30367e-16
4.68842e-11
-9.02608e-11
-3.39534e-16
4.08625e-11
-8.20027e-11
-3.73788e-16
3.5208e-11
-7.3943e-11
-3.80009e-16
2.99386e-11
-6.6084e-11
-3.20732e-16
2.50702e-11
-5.8346e-11
-3.05093e-16
2.06153e-11
-5.06887e-11
-2.92922e-16
1.65831e-11
-4.30787e-11
-2.42687e-16
1.29831e-11
-3.54664e-11
-1.89844e-16
9.82184e-12
-2.78649e-11
-1.22366e-16
7.10375e-12
-2.03171e-11
-5.98102e-17
4.83204e-12
-1.29275e-11
2.28726e-18
3.00711e-12
-5.91072e-12
5.59545e-17
1.62544e-12
3.45666e-13
1.01602e-16
6.78563e-13
5.17221e-12
1.35926e-16
1.48297e-13
7.37497e-12
1.4767e-16
4.90964e-12
1.31742e-16
1.54108e-10
-2.70174e-10
-5.42719e-16
1.56376e-10
-2.68315e-10
-5.04693e-16
1.57325e-10
-2.64709e-10
-3.40683e-16
1.56977e-10
-2.59499e-10
-4.9665e-16
1.55387e-10
-2.52831e-10
-5.20566e-16
1.52634e-10
-2.4494e-10
-6.0074e-16
1.4882e-10
-2.35982e-10
-5.8703e-16
1.44061e-10
-2.26189e-10
-5.57562e-16
1.38486e-10
-2.15761e-10
-4.91489e-16
1.32229e-10
-2.04884e-10
-4.39904e-16
1.25422e-10
-1.93742e-10
-4.17894e-16
1.18198e-10
-1.82493e-10
-4.10802e-16
1.1068e-10
-1.71282e-10
-4.18159e-16
1.02983e-10
-1.60218e-10
-4.17348e-16
9.52119e-11
-1.49403e-10
-4.0723e-16
8.74601e-11
-1.38904e-10
-3.92014e-16
7.9811e-11
-1.28743e-10
-3.77402e-16
7.23293e-11
-1.19021e-10
-3.6298e-16
6.50768e-11
-1.09669e-10
-3.58987e-16
5.80984e-11
-1.00743e-10
-3.54114e-16
5.14345e-11
-9.21786e-11
-3.68019e-16
4.5117e-11
-8.39466e-11
-3.72192e-16
3.91663e-11
-7.60563e-11
-4.01537e-16
3.3605e-11
-6.83857e-11
-4.01957e-16
2.84465e-11
-6.09291e-11
-3.34447e-16
2.37027e-11
-5.36057e-11
-3.11674e-16
1.93825e-11
-4.63718e-11
-2.94101e-16
1.54922e-11
-3.91913e-11
-2.38365e-16
1.20386e-11
-3.2015e-11
-1.82627e-16
9.02576e-12
-2.48535e-11
-1.12166e-16
6.4559e-12
-1.77478e-11
-4.80088e-17
4.32965e-12
-1.08009e-11
1.57365e-17
2.64424e-12
-4.22412e-12
7.05282e-17
1.39182e-12
1.60014e-12
1.17634e-16
5.57141e-13
6.00974e-12
1.53844e-16
1.10984e-13
7.82448e-12
1.67891e-16
5.02389e-12
1.5392e-16
1.6176e-10
-2.73162e-10
4.95528e-16
1.63343e-10
-2.69894e-10
4.1361e-16
1.63531e-10
-2.64893e-10
2.77591e-16
1.62369e-10
-2.58336e-10
4.55693e-17
1.59939e-10
-2.50401e-10
-1.22417e-16
1.56343e-10
-2.41346e-10
-2.90987e-16
1.51705e-10
-2.31346e-10
-3.87685e-16
1.46159e-10
-2.20647e-10
-4.20406e-16
1.39851e-10
-2.09456e-10
-3.87862e-16
1.32925e-10
-1.97961e-10
-3.59194e-16
1.25523e-10
-1.86343e-10
-3.48273e-16
1.1778e-10
-1.74753e-10
-3.53662e-16
1.09823e-10
-1.63327e-10
-3.63054e-16
1.01765e-10
-1.52164e-10
-3.74941e-16
9.37092e-11
-1.4135e-10
-3.79894e-16
8.5742e-11
-1.3094e-10
-3.83575e-16
7.79418e-11
-1.20945e-10
-3.85356e-16
7.03667e-11
-1.1145e-10
-3.83089e-16
6.30716e-11
-1.02377e-10
-3.88433e-16
5.60943e-11
-9.37699e-11
-3.87281e-16
4.94685e-11
-8.55566e-11
-4.0345e-16
4.32199e-11
-7.77017e-11
-4.04078e-16
3.7363e-11
-7.02039e-11
-4.29827e-16
3.19151e-11
-6.29421e-11
-4.21231e-16
2.68852e-11
-5.59029e-11
-3.52669e-16
2.22812e-11
-4.90052e-11
-3.21082e-16
1.81085e-11
-4.22025e-11
-2.97972e-16
1.43707e-11
-3.54563e-11
-2.35454e-16
1.10721e-11
-2.87185e-11
-1.75262e-16
8.21448e-12
-2.19971e-11
-1.0025e-16
5.798e-12
-1.53317e-11
-3.33456e-17
3.82097e-12
-8.82332e-12
3.28286e-17
2.2777e-12
-2.67937e-12
8.90616e-17
1.15621e-12
2.72402e-12
1.37679e-16
4.3477e-13
6.7344e-12
1.75586e-16
7.33522e-14
8.18972e-12
1.91774e-16
5.10099e-12
1.80768e-16
1.69533e-10
-2.75443e-10
3.81612e-16
1.7031e-10
-2.70671e-10
2.63958e-17
1.69623e-10
-2.64208e-10
-5.23765e-17
1.67548e-10
-2.56265e-10
-2.68539e-16
1.64195e-10
-2.47049e-10
-2.14148e-16
1.59689e-10
-2.36843e-10
-3.50925e-16
1.54176e-10
-2.25836e-10
-3.47065e-16
1.4781e-10
-2.14285e-10
-3.95992e-16
1.40751e-10
-2.02399e-10
-3.08514e-16
1.33153e-10
-1.90365e-10
-3.00051e-16
1.25163e-10
-1.78355e-10
-2.70168e-16
1.16921e-10
-1.66512e-10
-2.95676e-16
1.0855e-10
-1.54959e-10
-2.96805e-16
1.00162e-10
-1.43779e-10
-3.2661e-16
9.18548e-11
-1.33045e-10
-3.41947e-16
8.37082e-11
-1.22796e-10
-3.67155e-16
7.57932e-11
-1.13033e-10
-3.84034e-16
6.81602e-11
-1.03821e-10
-3.96222e-16
6.08563e-11
-9.50765e-11
-4.1173e-16
5.39118e-11
-8.68294e-11
-4.1643e-16
4.73533e-11
-7.90021e-11
-4.36306e-16
4.11997e-11
-7.15521e-11
-4.34776e-16
3.54598e-11
-6.44689e-11
-4.57497e-16
3.01458e-11
-5.76326e-11
-4.44854e-16
2.5262e-11
-5.10231e-11
-3.70803e-16
2.08124e-11
-4.45594e-11
-3.31883e-16
1.67996e-11
-3.8193e-11
-3.02612e-16
1.32243e-11
-3.18838e-11
-2.33952e-16
1.00885e-11
-2.55847e-11
-1.70482e-16
7.39216e-12
-1.93019e-11
-9.19684e-17
5.13349e-12
-1.30733e-11
-2.30157e-17
3.30871e-12
-6.99775e-12
4.53681e-17
1.90947e-12
-1.27839e-12
1.03198e-16
9.19908e-13
3.71626e-12
1.53772e-16
3.1214e-13
7.34576e-12
1.94007e-16
3.56161e-14
8.4705e-12
2.13094e-16
5.14086e-12
2.04368e-16
1.7735e-10
-2.76865e-10
1.17172e-15
1.7719e-10
-2.70503e-10
7.86506e-16
1.75512e-10
-2.62525e-10
4.60529e-16
1.72424e-10
-2.53175e-10
2.08562e-16
1.68065e-10
-2.42688e-10
1.24408e-16
1.62586e-10
-2.31364e-10
-7.97016e-17
1.56157e-10
-2.19407e-10
-1.77324e-16
1.48946e-10
-2.07077e-10
-2.72347e-16
1.41128e-10
-1.94582e-10
-2.08535e-16
1.32863e-10
-1.82102e-10
-2.1398e-16
1.24304e-10
-1.69797e-10
-1.9092e-16
1.15589e-10
-1.57798e-10
-2.26063e-16
1.06838e-10
-1.4621e-10
-2.27927e-16
9.81584e-11
-1.35102e-10
-2.69228e-16
8.96397e-11
-1.24528e-10
-2.98286e-16
8.13546e-11
-1.14514e-10
-3.42106e-16
7.33651e-11
-1.05046e-10
-3.76069e-16
6.5713e-11
-9.61724e-11
-4.02377e-16
5.84364e-11
-8.78036e-11
-4.29957e-16
5.1558e-11
-7.99553e-11
-4.41432e-16
4.50967e-11
-7.25452e-11
-4.6669e-16
3.90649e-11
-6.55246e-11
-4.64116e-16
3.34654e-11
-5.88746e-11
-4.85097e-16
2.83053e-11
-5.24772e-11
-4.64379e-16
2.35846e-11
-4.63067e-11
-3.9303e-16
1.93038e-11
-4.02826e-11
-3.45132e-16
1.54624e-11
-3.43551e-11
-3.09976e-16
1.20588e-11
-2.84831e-11
-2.34105e-16
9.09301e-12
-2.26209e-11
-1.65855e-16
6.56322e-12
-1.67731e-11
-8.22689e-17
4.46599e-12
-1.09761e-11
-1.00794e-17
2.79573e-12
-5.32647e-12
6.13217e-17
1.54163e-12
-2.2297e-14
1.2109e-16
6.84306e-13
4.5766e-12
1.73675e-16
1.89987e-13
7.84406e-12
2.16062e-16
-1.98969e-15
8.6672e-12
2.37827e-16
5.14363e-12
2.3248e-16
1.85121e-10
-2.77299e-10
-6.48291e-16
1.83884e-10
-2.69271e-10
-4.71716e-16
1.81093e-10
-2.59738e-10
-2.9531e-16
1.76891e-10
-2.48977e-10
-3.47054e-16
1.71448e-10
-2.37246e-10
-1.11415e-16
1.64942e-10
-2.2486e-10
-2.3374e-16
1.57562e-10
-2.12029e-10
-1.87467e-16
1.49494e-10
-1.99012e-10
-2.7495e-16
1.4092e-10
-1.86009e-10
-1.34048e-16
1.32007e-10
-1.73189e-10
-1.51852e-16
1.22907e-10
-1.60698e-10
-1.02681e-16
1.13755e-10
-1.48647e-10
-1.57791e-16
1.04667e-10
-1.37123e-10
-1.49544e-16
9.57412e-11
-1.26178e-10
-2.0918e-16
8.7058e-11
-1.15847e-10
-2.46867e-16
7.86804e-11
-1.0614e-10
-3.1229e-16
7.06607e-11
-9.70291e-11
-3.61222e-16
6.30308e-11
-8.85464e-11
-4.03513e-16
5.58199e-11
-8.05965e-11
-4.43105e-16
4.90421e-11
-7.31819e-11
-4.62964e-16
4.27087e-11
-6.62165e-11
-4.94451e-16
3.68255e-11
-5.9646e-11
-4.9193e-16
3.13896e-11
-5.34442e-11
-5.11372e-16
2.64032e-11
-4.74957e-11
-4.88228e-16
2.1862e-11
-4.17701e-11
-4.14441e-16
1.77635e-11
-3.61881e-11
-3.59352e-16
1.41043e-11
-3.06995e-11
-3.17551e-16
1.08809e-11
-2.52625e-11
-2.35129e-16
8.09126e-12
-1.98332e-11
-1.63335e-16
5.73238e-12
-1.44151e-11
-7.58334e-17
3.79937e-12
-9.04297e-12
-1.23034e-18
2.28503e-12
-3.81092e-12
7.28374e-17
1.17642e-12
1.08855e-12
1.34574e-16
4.50856e-13
5.30547e-12
1.89508e-16
6.90899e-14
8.23017e-12
2.34586e-16
-3.92259e-14
8.78069e-12
2.59751e-16
5.10968e-12
2.56935e-16
1.92732e-10
-2.76547e-10
6.5179e-16
1.9027e-10
-2.66803e-10
5.64418e-16
1.86244e-10
-2.55706e-10
3.88734e-16
1.80831e-10
-2.43562e-10
2.16792e-16
1.74235e-10
-2.30646e-10
2.62727e-16
1.66657e-10
-2.1728e-10
5.02627e-17
1.58306e-10
-2.03678e-10
-1.20264e-17
1.4938e-10
-1.90087e-10
-1.43201e-16
1.40067e-10
-1.76697e-10
-2.3193e-17
1.30536e-10
-1.63658e-10
-5.25502e-17
1.20936e-10
-1.51098e-10
-1.09772e-17
1.11396e-10
-1.39106e-10
-7.64369e-17
1.02023e-10
-1.2775e-10
-7.0495e-17
9.29032e-11
-1.1706e-10
-1.41812e-16
8.41082e-11
-1.07053e-10
-1.92857e-16
7.5689e-11
-9.7723e-11
-2.76364e-16
6.76867e-11
-8.90292e-11
-3.42366e-16
6.01231e-11
-8.09865e-11
-3.99468e-16
5.30175e-11
-7.34948e-11
-4.52551e-16
4.63756e-11
-6.65446e-11
-4.80999e-16
4.02011e-11
-6.0047e-11
-5.19975e-16
3.44933e-11
-5.39431e-11
-5.18206e-16
2.92438e-11
-4.82004e-11
-5.37271e-16
2.445e-11
-4.27071e-11
-5.06844e-16
2.0104e-11
-3.74289e-11
-4.39479e-16
1.62003e-11
-3.22887e-11
-3.7554e-16
1.27331e-11
-2.7236e-11
-3.27745e-16
9.69724e-12
-2.22295e-11
-2.37935e-16
7.08915e-12
-1.72271e-11
-1.61198e-16
4.90463e-12
-1.22314e-11
-6.82557e-17
3.13767e-12
-7.27578e-12
9.94909e-18
1.77979e-12
-2.45162e-12
8.74908e-17
8.16142e-13
2.05469e-12
1.51534e-16
2.21089e-13
5.90414e-12
2.08863e-16
-4.97319e-14
8.50572e-12
2.56429e-16
-7.58218e-14
8.81242e-12
2.84701e-16
5.03964e-12
2.85553e-16
2.00042e-10
-2.7445e-10
3.78249e-16
1.96204e-10
-2.62966e-10
9.70251e-17
1.90822e-10
-2.50324e-10
3.02471e-17
1.84109e-10
-2.36852e-10
-1.42673e-16
1.76302e-10
-2.22838e-10
1.15858e-16
1.67623e-10
-2.08602e-10
-6.45497e-17
1.58297e-10
-1.94352e-10
-6.75082e-19
1.48529e-10
-1.80321e-10
-1.30617e-16
1.38511e-10
-1.66679e-10
6.76707e-17
1.28408e-10
-1.53554e-10
2.41438e-17
1.18362e-10
-1.41051e-10
9.1171e-17
1.08492e-10
-1.29235e-10
2.61847e-18
9.88938e-11
-1.18151e-10
1.7168e-17
8.96419e-11
-1.07808e-10
-7.4112e-17
8.07936e-11
-9.82059e-11
-1.33315e-16
7.23878e-11
-8.93194e-11
-2.38397e-16
6.44538e-11
-8.10974e-11
-3.18855e-16
5.70022e-11
-7.35387e-11
-3.92402e-16
5.00428e-11
-6.65393e-11
-4.58227e-16
4.35727e-11
-6.00792e-11
-4.9644e-16
3.7588e-11
-5.40675e-11
-5.43192e-16
3.20816e-11
-4.84419e-11
-5.42961e-16
2.70405e-11
-4.31652e-11
-5.61453e-16
2.24574e-11
-3.81295e-11
-5.29894e-16
1.83212e-11
-3.32978e-11
-4.63055e-16
1.46238e-11
-2.85957e-11
-3.92244e-16
1.13574e-11
-2.39735e-11
-3.37564e-16
8.5153e-12
-1.93903e-11
-2.41041e-16
6.09294e-12
-1.48067e-11
-1.60637e-16
4.08516e-12
-1.02243e-11
-6.35086e-17
2.48513e-12
-5.6754e-12
1.7381e-17
1.2833e-12
-1.24819e-12
9.79141e-17
4.63217e-13
2.87749e-12
1.64178e-16
-3.40158e-15
6.37466e-12
2.2412e-16
-1.65618e-13
8.67301e-12
2.7461e-16
-1.11502e-13
8.76438e-12
3.06611e-16
4.93443e-12
3.10145e-16
2.06872e-10
-2.70803e-10
2.20469e-15
2.01513e-10
-2.57593e-10
1.45041e-15
1.94664e-10
-2.43466e-10
9.40308e-16
1.86579e-10
-2.28762e-10
5.3468e-16
1.7752e-10
-2.13772e-10
5.49181e-16
1.67729e-10
-1.98808e-10
2.43815e-16
1.57444e-10
-1.84063e-10
1.91567e-16
1.4687e-10
-1.69747e-10
1.59573e-17
1.36198e-10
-1.56005e-10
1.94224e-16
1.25583e-10
-1.42939e-10
1.39119e-16
1.1516e-10
-1.30625e-10
1.95862e-16
1.0503e-10
-1.19105e-10
9.47726e-17
9.52775e-11
-1.08397e-10
1.03608e-16
8.59608e-11
-9.84918e-11
-5.39691e-19
7.71232e-11
-8.93685e-11
-7.37777e-17
6.87896e-11
-8.09876e-11
-1.96461e-16
6.09768e-11
-7.32867e-11
-2.93714e-16
5.36846e-11
-6.62501e-11
-3.81922e-16
4.69127e-11
-5.97714e-11
-4.61661e-16
4.06498e-11
-5.38213e-11
-5.09245e-16
3.48851e-11
-4.83082e-11
-5.64649e-16
2.96057e-11
-4.3168e-11
-5.66266e-16
2.47937e-11
-3.83593e-11
-5.85204e-16
2.04382e-11
-3.37797e-11
-5.46928e-16
1.6525e-11
-2.939e-11
-4.89778e-16
1.30441e-11
-2.51194e-11
-4.10411e-16
9.98583e-12
-2.09193e-11
-3.49819e-16
7.34271e-12
-1.67501e-11
-2.45972e-16
5.10913e-12
-1.25751e-11
-1.6063e-16
3.2794e-12
-8.39525e-12
-5.78673e-17
1.84613e-12
-4.24165e-12
2.68569e-17
7.98971e-13
-1.99256e-13
1.1117e-16
1.20149e-13
3.55927e-12
1.79989e-16
-2.20956e-13
6.71995e-12
2.42579e-16
-2.77669e-13
8.73517e-12
2.95761e-16
-1.45973e-13
8.63922e-12
3.31122e-16
4.79525e-12
3.38471e-16
2.13021e-10
-2.65456e-10
2.54962e-16
2.06e-10
-2.50572e-10
1.65762e-16
1.97589e-10
-2.35055e-10
1.86029e-16
1.88077e-10
-2.19251e-10
-1.56808e-17
1.7775e-10
-2.03443e-10
2.98435e-16
1.66863e-10
-1.87921e-10
7.88714e-17
1.55656e-10
-1.72855e-10
1.81729e-16
1.44334e-10
-1.58425e-10
2.66021e-17
1.33079e-10
-1.44747e-10
2.9225e-16
1.22032e-10
-1.3189e-10
2.26726e-16
1.11312e-10
-1.19902e-10
3.08656e-16
1.01006e-10
-1.08796e-10
1.82397e-16
9.11774e-11
-9.85671e-11
1.97109e-16
8.18704e-11
-8.91842e-11
7.11471e-17
7.31117e-11
-8.06095e-11
-1.07394e-17
6.49121e-11
-7.27894e-11
-1.54851e-16
5.72754e-11
-6.56517e-11
-2.65918e-16
5.01903e-11
-5.91685e-11
-3.70274e-16
4.36469e-11
-5.32321e-11
-4.62637e-16
3.76262e-11
-4.78056e-11
-5.20411e-16
3.21107e-11
-4.27983e-11
-5.84272e-16
2.70821e-11
-3.81451e-11
-5.88238e-16
2.25186e-11
-3.38023e-11
-6.07078e-16
1.8406e-11
-2.9673e-11
-5.68575e-16
1.47277e-11
-2.57174e-11
-5.14512e-16
1.14719e-11
-2.18684e-11
-4.28664e-16
8.6279e-12
-1.80795e-11
-3.61145e-16
6.18749e-12
-1.43128e-11
-2.5064e-16
4.14448e-12
-1.0534e-11
-1.6165e-16
2.49296e-12
-6.74434e-12
-5.45838e-17
1.22521e-12
-2.97331e-12
3.29791e-17
3.30338e-13
6.97546e-13
1.20488e-16
-2.10474e-13
4.10324e-12
1.91674e-16
-4.29855e-13
6.9438e-12
2.57019e-16
-3.84946e-13
8.69603e-12
3.13219e-16
-1.78922e-13
8.44016e-12
3.52461e-16
4.6236e-12
3.62514e-16
2.18245e-10
-2.58203e-10
2.13405e-15
2.09442e-10
-2.41754e-10
1.54684e-15
1.994e-10
-2.25002e-10
1.15235e-15
1.88436e-10
-2.08281e-10
6.85553e-16
1.76853e-10
-1.91852e-10
7.51593e-16
1.64912e-10
-1.75975e-10
3.93e-16
1.52851e-10
-1.60789e-10
3.81403e-16
1.40864e-10
-1.46437e-10
1.8117e-16
1.29117e-10
-1.32996e-10
4.28196e-16
1.17734e-10
-1.20504e-10
3.52277e-16
1.06814e-10
-1.08978e-10
4.21959e-16
9.64226e-11
-9.84016e-11
2.81896e-16
8.66062e-11
-8.87478e-11
2.8715e-16
7.73887e-11
-7.99655e-11
1.47073e-16
6.8781e-11
-7.20009e-11
4.99266e-17
6.07789e-11
-6.47884e-11
-1.11195e-16
5.33736e-11
-5.8248e-11
-2.38594e-16
4.65431e-11
-5.23414e-11
-3.56801e-16
4.02685e-11
-4.69616e-11
-4.62728e-16
3.45235e-11
-4.20657e-11
-5.29802e-16
2.92846e-11
-3.75652e-11
-6.02668e-16
2.45291e-11
-3.33955e-11
-6.08963e-16
2.02317e-11
-2.95115e-11
-6.28606e-16
1.63755e-11
-2.58229e-11
-5.83758e-16
1.29421e-11
-2.22899e-11
-5.4192e-16
9.91845e-12
-1.88499e-11
-4.479e-16
7.29327e-12
-1.54587e-11
-3.74655e-16
5.05791e-12
-1.20805e-11
-2.57096e-16
3.206e-12
-8.68414e-12
-1.63334e-16
1.73162e-12
-5.27053e-12
-5.06326e-17
6.27014e-13
-1.86802e-12
4.08624e-17
-1.18981e-13
1.44564e-12
1.3231e-16
-5.25993e-13
4.51363e-12
2.06183e-16
-6.28324e-13
7.05086e-12
2.74294e-16
-4.8647e-13
8.5603e-12
3.33258e-16
-2.10021e-13
8.17109e-12
3.75948e-16
4.42133e-12
3.89797e-16
2.22279e-10
-2.48908e-10
1.36628e-15
2.11598e-10
-2.31067e-10
7.71259e-16
1.99887e-10
-2.13286e-10
6.16465e-16
1.8748e-10
-1.95873e-10
2.54144e-16
1.74691e-10
-1.79057e-10
5.59925e-16
1.61774e-10
-1.63056e-10
2.63686e-16
1.48955e-10
-1.47967e-10
3.8787e-16
1.36411e-10
-1.33891e-10
2.03843e-16
1.24286e-10
-1.20866e-10
5.32956e-16
1.12681e-10
-1.08895e-10
4.47089e-16
1.0167e-10
-9.79616e-11
5.39989e-16
9.1297e-11
-8.80245e-11
3.73907e-16
8.15861e-11
-7.90333e-11
3.81983e-16
7.25423e-11
-7.09199e-11
2.18764e-16
6.41596e-11
-6.36169e-11
1.12091e-16
5.64194e-11
-5.70488e-11
-6.99669e-17
4.93005e-11
-5.11304e-11
-2.10372e-16
4.2771e-11
-4.58152e-11
-3.43765e-16
3.68036e-11
-4.09982e-11
-4.61529e-16
3.13657e-11
-3.66331e-11
-5.38428e-16
2.64288e-11
-3.26343e-11
-6.19701e-16
2.19663e-11
-2.89391e-11
-6.28594e-16
1.79504e-11
-2.55024e-11
-6.48216e-16
1.43621e-11
-2.2241e-11
-6.03696e-16
1.11816e-11
-1.91157e-11
-5.66919e-16
8.3955e-12
-1.60691e-11
-4.66799e-16
5.992e-12
-1.30597e-11
-3.86733e-16
3.96254e-12
-1.00542e-11
-2.62749e-16
2.30085e-12
-7.02449e-12
-1.65497e-16
1.0013e-12
-3.97151e-12
-4.85258e-17
5.6322e-14
-9.22278e-13
4.58342e-17
-5.45279e-13
2.04948e-12
1.40549e-16
-8.23674e-13
4.79559e-12
2.16824e-16
-8.14532e-13
7.0467e-12
2.87718e-16
-5.81223e-13
8.33342e-12
3.49666e-16
-2.3892e-13
7.83657e-12
3.96211e-16
4.19062e-12
4.12666e-16
2.248e-10
-2.37441e-10
2.67118e-15
2.12196e-10
-2.18448e-10
1.76036e-15
1.98828e-10
-1.99904e-10
1.34956e-15
1.85037e-10
-1.82075e-10
8.08001e-16
1.71133e-10
-1.65144e-10
9.33829e-16
1.57356e-10
-1.49273e-10
5.30784e-16
1.43911e-10
-1.34516e-10
5.62549e-16
1.30945e-10
-1.20923e-10
3.46251e-16
1.18578e-10
-1.08493e-10
6.62307e-16
1.06881e-10
-9.7193e-11
5.71952e-16
9.59012e-11
-8.69754e-11
6.53249e-16
8.56566e-11
-7.77753e-11
4.74755e-16
7.61501e-11
-6.95223e-11
4.70516e-16
6.73667e-11
-6.21341e-11
2.92743e-16
5.9284e-11
-5.55323e-11
1.69666e-16
5.18693e-11
-4.96344e-11
-2.84165e-17
4.509e-11
-4.43524e-11
-1.8439e-16
3.89056e-11
-3.96338e-11
-3.30238e-16
3.32813e-11
-3.5378e-11
-4.60572e-16
2.81793e-11
-3.15364e-11
-5.46015e-16
2.35669e-11
-2.80281e-11
-6.3597e-16
1.94147e-11
-2.47933e-11
-6.47179e-16
1.56932e-11
-2.17879e-11
-6.67602e-16
1.23819e-11
-1.89362e-11
-6.17e-16
9.4604e-12
-1.62008e-11
-5.94085e-16
6.91511e-12
-1.35293e-11
-4.86187e-16
4.7344e-12
-1.08837e-11
-4.00668e-16
2.91013e-12
-8.23317e-12
-2.70057e-16
1.43637e-12
-5.55281e-12
-1.68336e-16
3.08032e-13
-2.84368e-12
-4.59219e-17
-4.82003e-13
-1.3139e-13
5.23007e-17
-9.44767e-13
2.51462e-12
1.50943e-16
-1.10072e-12
4.9553e-12
2.29909e-16
-9.86593e-13
6.9378e-12
3.03566e-16
-6.68145e-13
8.02171e-12
3.68223e-16
-2.65247e-13
7.44185e-12
4.1814e-16
3.93402e-12
4.38249e-16
2.25496e-10
-2.23755e-10
2.95649e-16
2.10972e-10
-2.03923e-10
1.3802e-16
1.96009e-10
-1.8494e-10
3.77543e-16
1.80945e-10
-1.67011e-10
1.65809e-16
1.66067e-10
-1.5026e-10
6.38558e-16
1.51588e-10
-1.34791e-10
3.5741e-16
1.3768e-10
-1.20602e-10
5.44453e-16
1.24457e-10
-1.07698e-10
3.58738e-16
1.12005e-10
-9.60336e-11
7.57603e-16
1.0036e-10
-8.55428e-11
6.62832e-16
8.95425e-11
-7.61505e-11
7.67515e-16
7.95432e-11
-6.77707e-11
5.64901e-16
7.03427e-11
-6.03166e-11
5.61272e-16
6.19071e-11
-5.36954e-11
3.60169e-16
5.41979e-11
-4.78208e-11
2.26863e-16
4.71701e-11
-4.26066e-11
8.93107e-18
4.0781e-11
-3.79642e-11
-1.58954e-16
3.49823e-11
-3.38382e-11
-3.18416e-16
2.97335e-11
-3.01334e-11
-4.59246e-16
2.49928e-11
-2.68009e-11
-5.5352e-16
2.07242e-11
-2.37659e-11
-6.51242e-16
1.68966e-11
-2.09722e-11
-6.64866e-16
1.34794e-11
-1.8378e-11
-6.85075e-16
1.04517e-11
-1.59151e-11
-6.3506e-16
7.79282e-12
-1.35488e-11
-6.1848e-16
5.48965e-12
-1.12319e-11
-5.04842e-16
3.53106e-12
-8.92995e-12
-4.12701e-16
1.9096e-12
-6.61503e-12
-2.76047e-16
6.2002e-13
-4.26535e-12
-1.71107e-16
-3.42017e-13
-1.88212e-12
-4.46357e-17
-9.83002e-13
5.10518e-13
5.63405e-17
-1.31358e-12
2.8477e-12
1.58167e-16
-1.35428e-12
4.99993e-12
2.39456e-16
-1.14257e-12
6.73154e-12
3.1579e-16
-7.46134e-13
7.6323e-12
3.83275e-16
-2.8861e-13
6.99287e-12
4.36869e-16
3.65447e-12
4.59387e-16
2.23993e-10
-2.07848e-10
1.0736e-15
2.07641e-10
-1.87563e-10
7.75888e-16
1.91228e-10
-1.68517e-10
8.60313e-16
1.75065e-10
-1.50843e-10
5.67344e-16
1.59408e-10
-1.34593e-10
9.27335e-16
1.44428e-10
-1.19805e-10
5.82264e-16
1.30256e-10
-1.06424e-10
6.94402e-16
1.16965e-10
-9.44029e-11
4.88477e-16
1.046e-10
-8.36609e-11
8.74518e-16
9.31652e-11
-7.4101e-11
7.80626e-16
8.26477e-11
-6.5625e-11
8.73805e-16
7.30133e-11