/*--------------------------------*- C++ -*----------------------------------*\
| =========                 |                                                 |
| \\      /  F ield         | OpenFOAM: The Open Source CFD Toolbox           |
|  \\    /   O peration     | Version:  v2012                                 |
|   \\  /    A nd           | Website:  www.openfoam.com                      |
|    \\/     M anipulation  |                                                 |
\*---------------------------------------------------------------------------*/
FoamFile
{
    version     2.0;
    format      ascii;
    class       volScalarField;
    location    "0.2";
    object      p_rgh;
}
// * * * * * * * * * * * * * * * * * * * * * * * * * * * * * * * * * * * * * //

dimensions      [1 -1 -2 0 0 0 0];


internalField   nonuniform List<scalar> 
3332
(
3.48649e+06
3.48601e+06
3.48573e+06
3.4856e+06
3.48558e+06
3.48565e+06
3.48579e+06
3.48598e+06
3.4862e+06
3.48645e+06
3.48672e+06
3.487e+06
3.48728e+06
3.48757e+06
3.48785e+06
3.48813e+06
3.48841e+06
3.48867e+06
3.48893e+06
3.48917e+06
3.4876e+06
3.48645e+06
3.48569e+06
3.48521e+06
3.48495e+06
3.48486e+06
3.48488e+06
3.485e+06
3.48519e+06
3.48542e+06
3.48568e+06
3.48597e+06
3.48628e+06
3.48659e+06
3.4869e+06
3.48722e+06
3.48752e+06
3.48782e+06
3.48811e+06
3.4884e+06
3.48866e+06
3.48892e+06
3.57696e+06
3.57011e+06
3.57537e+06
3.56795e+06
3.57139e+06
3.56677e+06
3.56635e+06
3.5648e+06
3.56285e+06
3.56533e+06
3.51763e+06
3.49981e+06
3.49555e+06
3.49121e+06
3.48873e+06
3.48682e+06
3.48561e+06
3.48482e+06
3.48436e+06
3.48413e+06
3.48408e+06
3.48416e+06
3.48433e+06
3.48457e+06
3.48485e+06
3.48516e+06
3.48549e+06
3.48584e+06
3.48618e+06
3.48652e+06
3.48686e+06
3.48719e+06
3.48751e+06
3.48782e+06
3.48812e+06
3.48841e+06
3.48867e+06
3.58361e+06
3.57317e+06
3.58189e+06
3.5722e+06
3.57699e+06
3.57119e+06
3.57122e+06
3.56863e+06
3.56728e+06
3.56863e+06
3.56467e+06
3.55862e+06
3.52636e+06
3.50015e+06
3.49611e+06
3.49056e+06
3.48803e+06
3.48587e+06
3.48465e+06
3.48385e+06
3.48343e+06
3.48326e+06
3.48328e+06
3.48342e+06
3.48365e+06
3.48394e+06
3.48428e+06
3.48464e+06
3.48501e+06
3.48539e+06
3.48577e+06
3.48615e+06
3.48651e+06
3.48687e+06
3.48721e+06
3.48754e+06
3.48785e+06
3.48815e+06
3.48843e+06
3.58775e+06
3.57516e+06
3.58562e+06
3.57507e+06
3.58033e+06
3.57401e+06
3.57422e+06
3.57096e+06
3.57062e+06
3.57131e+06
3.56866e+06
3.56511e+06
3.53541e+06
3.50028e+06
3.49598e+06
3.48948e+06
3.48698e+06
3.48467e+06
3.48352e+06
3.48276e+06
3.48243e+06
3.48234e+06
3.48243e+06
3.48265e+06
3.48295e+06
3.48331e+06
3.4837e+06
3.48411e+06
3.48453e+06
3.48495e+06
3.48536e+06
3.48577e+06
3.48616e+06
3.48654e+06
3.48691e+06
3.48725e+06
3.48758e+06
3.4879e+06
3.48819e+06
3.48847e+06
3.58676e+06
3.57584e+06
3.58499e+06
3.57623e+06
3.58043e+06
3.57444e+06
3.5744e+06
3.57086e+06
3.57167e+06
3.57156e+06
3.57065e+06
3.56818e+06
3.54251e+06
3.4999e+06
3.49442e+06
3.48785e+06
3.4854e+06
3.48319e+06
3.48217e+06
3.48154e+06
3.48133e+06
3.48135e+06
3.48155e+06
3.48185e+06
3.48224e+06
3.48266e+06
3.48312e+06
3.48358e+06
3.48405e+06
3.48451e+06
3.48496e+06
3.4854e+06
3.48582e+06
3.48622e+06
3.48661e+06
3.48697e+06
3.48732e+06
3.48765e+06
3.48796e+06
3.48824e+06
3.5802e+06
3.57554e+06
3.57934e+06
3.57502e+06
3.57652e+06
3.57171e+06
3.5709e+06
3.56728e+06
3.56858e+06
3.56667e+06
3.5683e+06
3.56467e+06
3.54527e+06
3.49877e+06
3.4908e+06
3.48553e+06
3.48315e+06
3.48139e+06
3.48057e+06
3.48018e+06
3.48013e+06
3.48031e+06
3.48062e+06
3.48104e+06
3.48151e+06
3.48201e+06
3.48253e+06
3.48305e+06
3.48357e+06
3.48407e+06
3.48456e+06
3.48503e+06
3.48548e+06
3.48591e+06
3.48632e+06
3.4867e+06
3.48706e+06
3.4874e+06
3.48772e+06
3.48802e+06
3.4883e+06
3.56772e+06
3.5729e+06
3.5681e+06
3.57033e+06
3.56815e+06
3.56528e+06
3.56329e+06
3.55989e+06
3.56055e+06
3.55637e+06
3.56032e+06
3.55483e+06
3.54217e+06
3.49779e+06
3.48513e+06
3.48261e+06
3.48024e+06
3.47928e+06
3.47874e+06
3.47868e+06
3.47885e+06
3.47921e+06
3.47967e+06
3.4802e+06
3.48077e+06
3.48136e+06
3.48195e+06
3.48253e+06
3.48309e+06
3.48364e+06
3.48417e+06
3.48467e+06
3.48515e+06
3.4856e+06
3.48603e+06
3.48643e+06
3.48681e+06
3.48716e+06
3.4875e+06
3.48781e+06
3.48809e+06
3.55133e+06
3.56703e+06
3.55192e+06
3.56101e+06
3.55473e+06
3.55414e+06
3.5511e+06
3.54882e+06
3.54835e+06
3.5431e+06
3.54786e+06
3.54137e+06
3.53446e+06
3.49675e+06
3.47819e+06
3.47922e+06
3.47684e+06
3.47693e+06
3.47671e+06
3.47707e+06
3.47749e+06
3.47806e+06
3.47869e+06
3.47935e+06
3.48003e+06
3.4807e+06
3.48136e+06
3.48201e+06
3.48263e+06
3.48322e+06
3.48378e+06
3.48431e+06
3.48482e+06
3.4853e+06
3.48574e+06
3.48617e+06
3.48656e+06
3.48693e+06
3.48727e+06
3.48759e+06
3.48789e+06
3.52845e+06
3.55293e+06
3.53085e+06
3.54502e+06
3.535e+06
3.53641e+06
3.53333e+06
3.53391e+06
3.5337e+06
3.5297e+06
3.5339e+06
3.52765e+06
3.52535e+06
3.49381e+06
3.47135e+06
3.47525e+06
3.47323e+06
3.47439e+06
3.47457e+06
3.47539e+06
3.47608e+06
3.47689e+06
3.47769e+06
3.4785e+06
3.47929e+06
3.48005e+06
3.48079e+06
3.48149e+06
3.48216e+06
3.4828e+06
3.4834e+06
3.48397e+06
3.4845e+06
3.485e+06
3.48547e+06
3.48591e+06
3.48632e+06
3.4867e+06
3.48705e+06
3.48738e+06
3.48769e+06
3.50198e+06
3.52947e+06
3.50551e+06
3.52088e+06
3.50763e+06
3.50988e+06
3.5085e+06
3.51471e+06
3.51805e+06
3.51778e+06
3.52107e+06
3.5162e+06
3.51661e+06
3.48918e+06
3.46584e+06
3.47079e+06
3.46972e+06
3.47173e+06
3.4724e+06
3.47366e+06
3.47465e+06
3.47571e+06
3.47669e+06
3.47764e+06
3.47855e+06
3.47941e+06
3.48022e+06
3.48099e+06
3.48171e+06
3.48239e+06
3.48303e+06
3.48363e+06
3.48419e+06
3.48471e+06
3.4852e+06
3.48565e+06
3.48608e+06
3.48647e+06
3.48684e+06
3.48718e+06
3.4875e+06
3.47222e+06
3.49647e+06
3.47634e+06
3.48895e+06
3.47314e+06
3.47439e+06
3.47657e+06
3.49148e+06
3.50227e+06
3.50765e+06
3.51037e+06
3.50751e+06
3.50857e+06
3.48447e+06
3.46171e+06
3.46618e+06
3.4665e+06
3.46903e+06
3.47027e+06
3.47193e+06
3.47323e+06
3.47453e+06
3.4757e+06
3.4768e+06
3.47782e+06
3.47877e+06
3.47966e+06
3.48049e+06
3.48127e+06
3.48199e+06
3.48267e+06
3.4833e+06
3.48388e+06
3.48443e+06
3.48494e+06
3.48541e+06
3.48585e+06
3.48626e+06
3.48663e+06
3.48698e+06
3.4873e+06
3.44471e+06
3.4614e+06
3.44785e+06
3.4548e+06
3.43714e+06
3.43538e+06
3.4421e+06
3.46705e+06
3.48733e+06
3.4987e+06
3.50148e+06
3.50056e+06
3.50087e+06
3.48022e+06
3.45806e+06
3.46165e+06
3.4635e+06
3.46636e+06
3.46822e+06
3.47023e+06
3.47184e+06
3.47338e+06
3.47473e+06
3.47597e+06
3.47711e+06
3.47816e+06
3.47912e+06
3.48001e+06
3.48084e+06
3.48161e+06
3.48232e+06
3.48298e+06
3.48359e+06
3.48415e+06
3.48468e+06
3.48517e+06
3.48562e+06
3.48604e+06
3.48643e+06
3.48679e+06
3.48712e+06
3.42482e+06
3.43429e+06
3.42682e+06
3.42877e+06
3.4111e+06
3.40634e+06
3.4157e+06
3.44788e+06
3.47536e+06
3.49053e+06
3.4933e+06
3.49384e+06
3.4932e+06
3.47573e+06
3.45424e+06
3.45733e+06
3.46063e+06
3.46378e+06
3.46626e+06
3.46858e+06
3.47051e+06
3.47225e+06
3.47379e+06
3.47517e+06
3.47642e+06
3.47756e+06
3.4786e+06
3.47955e+06
3.48043e+06
3.48123e+06
3.48198e+06
3.48267e+06
3.4833e+06
3.48389e+06
3.48444e+06
3.48494e+06
3.48541e+06
3.48584e+06
3.48623e+06
3.4866e+06
3.48694e+06
3.41952e+06
3.42575e+06
3.42045e+06
3.42149e+06
3.40595e+06
3.40195e+06
3.40873e+06
3.44097e+06
3.4683e+06
3.48299e+06
3.48513e+06
3.48654e+06
3.48544e+06
3.47057e+06
3.45036e+06
3.45338e+06
3.4579e+06
3.46138e+06
3.46441e+06
3.46701e+06
3.46923e+06
3.47118e+06
3.47288e+06
3.4744e+06
3.47576e+06
3.47698e+06
3.47809e+06
3.4791e+06
3.48003e+06
3.48087e+06
3.48165e+06
3.48237e+06
3.48303e+06
3.48364e+06
3.4842e+06
3.48472e+06
3.48519e+06
3.48564e+06
3.48604e+06
3.48642e+06
3.48676e+06
3.4277e+06
3.43545e+06
3.42819e+06
3.43272e+06
3.4205e+06
3.42093e+06
3.42183e+06
3.44607e+06
3.46561e+06
3.47609e+06
3.47714e+06
3.47896e+06
3.4778e+06
3.46513e+06
3.44673e+06
3.45e+06
3.45537e+06
3.4592e+06
3.46268e+06
3.46555e+06
3.46803e+06
3.47017e+06
3.47203e+06
3.47367e+06
3.47513e+06
3.47644e+06
3.47761e+06
3.47868e+06
3.47965e+06
3.48053e+06
3.48134e+06
3.48208e+06
3.48276e+06
3.48339e+06
3.48397e+06
3.4845e+06
3.48499e+06
3.48544e+06
3.48586e+06
3.48624e+06
3.48659e+06
3.44046e+06
3.45089e+06
3.44222e+06
3.45006e+06
3.44156e+06
3.44731e+06
3.44222e+06
3.45504e+06
3.4645e+06
3.46999e+06
3.47011e+06
3.47205e+06
3.47081e+06
3.46015e+06
3.44357e+06
3.44728e+06
3.45312e+06
3.45728e+06
3.4611e+06
3.46421e+06
3.46691e+06
3.46922e+06
3.47122e+06
3.47298e+06
3.47453e+06
3.47592e+06
3.47715e+06
3.47827e+06
3.47928e+06
3.4802e+06
3.48104e+06
3.48181e+06
3.48251e+06
3.48316e+06
3.48375e+06
3.48429e+06
3.4848e+06
3.48526e+06
3.48568e+06
3.48607e+06
3.48643e+06
3.45417e+06
3.46292e+06
3.45562e+06
3.46306e+06
3.45854e+06
3.46524e+06
3.45794e+06
3.46076e+06
3.46293e+06
3.46499e+06
3.46461e+06
3.46646e+06
3.46496e+06
3.456e+06
3.44088e+06
3.44515e+06
3.45112e+06
3.45562e+06
3.45967e+06
3.463e+06
3.46588e+06
3.46834e+06
3.47047e+06
3.47233e+06
3.47397e+06
3.47543e+06
3.47672e+06
3.47789e+06
3.47894e+06
3.47989e+06
3.48076e+06
3.48155e+06
3.48227e+06
3.48293e+06
3.48354e+06
3.4841e+06
3.48461e+06
3.48508e+06
3.48551e+06
3.48591e+06
3.48627e+06
3.46497e+06
3.46701e+06
3.46587e+06
3.46797e+06
3.47022e+06
3.4704e+06
3.46602e+06
3.46208e+06
3.46052e+06
3.46099e+06
3.46037e+06
3.462e+06
3.46026e+06
3.45251e+06
3.43849e+06
3.44341e+06
3.44935e+06
3.45417e+06
3.45838e+06
3.4619e+06
3.46494e+06
3.46753e+06
3.46978e+06
3.47173e+06
3.47345e+06
3.47497e+06
3.47632e+06
3.47753e+06
3.47862e+06
3.4796e+06
3.48049e+06
3.4813e+06
3.48204e+06
3.48272e+06
3.48334e+06
3.48391e+06
3.48443e+06
3.48491e+06
3.48535e+06
3.48575e+06
3.48611e+06
3.47327e+06
3.46631e+06
3.47307e+06
3.46753e+06
3.47781e+06
3.46943e+06
3.46763e+06
3.46072e+06
3.45742e+06
3.45737e+06
3.45659e+06
3.458e+06
3.45625e+06
3.4492e+06
3.43619e+06
3.44182e+06
3.44773e+06
3.45286e+06
3.4572e+06
3.4609e+06
3.46407e+06
3.46679e+06
3.46914e+06
3.47118e+06
3.47297e+06
3.47454e+06
3.47594e+06
3.47719e+06
3.47832e+06
3.47933e+06
3.48024e+06
3.48107e+06
3.48183e+06
3.48252e+06
3.48315e+06
3.48373e+06
3.48426e+06
3.48474e+06
3.48519e+06
3.48559e+06
3.48597e+06
3.47534e+06
3.46474e+06
3.47481e+06
3.46607e+06
3.47847e+06
3.46788e+06
3.46465e+06
3.45782e+06
3.45369e+06
3.45352e+06
3.4527e+06
3.45398e+06
3.45245e+06
3.4457e+06
3.43388e+06
3.44025e+06
3.44621e+06
3.45166e+06
3.45613e+06
3.46e+06
3.46328e+06
3.46611e+06
3.46855e+06
3.47067e+06
3.47252e+06
3.47415e+06
3.4756e+06
3.47688e+06
3.47804e+06
3.47907e+06
3.48001e+06
3.48086e+06
3.48163e+06
3.48233e+06
3.48297e+06
3.48356e+06
3.48409e+06
3.48459e+06
3.48504e+06
3.48545e+06
3.48582e+06
3.47004e+06
3.46493e+06
3.46957e+06
3.46542e+06
3.47091e+06
3.46549e+06
3.45905e+06
3.45376e+06
3.44942e+06
3.44926e+06
3.44854e+06
3.4498e+06
3.44857e+06
3.4419e+06
3.43162e+06
3.43868e+06
3.44481e+06
3.45056e+06
3.45515e+06
3.45918e+06
3.46257e+06
3.4655e+06
3.46802e+06
3.47021e+06
3.47212e+06
3.4738e+06
3.47528e+06
3.4766e+06
3.47778e+06
3.47884e+06
3.47979e+06
3.48066e+06
3.48144e+06
3.48215e+06
3.4828e+06
3.4834e+06
3.48394e+06
3.48444e+06
3.48489e+06
3.48531e+06
3.48569e+06
3.46027e+06
3.4667e+06
3.46073e+06
3.46625e+06
3.46084e+06
3.46196e+06
3.45316e+06
3.44911e+06
3.44493e+06
3.44475e+06
3.44424e+06
3.44555e+06
3.44458e+06
3.43798e+06
3.42949e+06
3.43715e+06
3.44352e+06
3.44954e+06
3.45427e+06
3.45845e+06
3.46194e+06
3.46496e+06
3.46755e+06
3.4698e+06
3.47176e+06
3.47348e+06
3.47499e+06
3.47634e+06
3.47755e+06
3.47862e+06
3.47959e+06
3.48047e+06
3.48127e+06
3.48199e+06
3.48265e+06
3.48325e+06
3.48379e+06
3.4843e+06
3.48475e+06
3.48517e+06
3.48556e+06
3.45253e+06
3.46966e+06
3.45399e+06
3.46833e+06
3.45479e+06
3.45843e+06
3.44855e+06
3.44451e+06
3.4406e+06
3.44035e+06
3.44006e+06
3.44147e+06
3.44065e+06
3.43419e+06
3.42759e+06
3.43573e+06
3.44239e+06
3.44864e+06
3.45351e+06
3.45781e+06
3.46138e+06
3.46448e+06
3.46713e+06
3.46943e+06
3.47143e+06
3.47319e+06
3.47474e+06
3.47611e+06
3.47733e+06
3.47843e+06
3.47941e+06
3.4803e+06
3.48111e+06
3.48184e+06
3.4825e+06
3.48311e+06
3.48366e+06
3.48416e+06
3.48462e+06
3.48505e+06
3.48543e+06
3.44927e+06
3.47034e+06
3.45131e+06
3.46889e+06
3.45316e+06
3.45487e+06
3.44517e+06
3.44025e+06
3.43671e+06
3.43643e+06
3.43633e+06
3.43786e+06
3.43701e+06
3.43082e+06
3.42603e+06
3.43452e+06
3.44145e+06
3.44787e+06
3.45286e+06
3.45726e+06
3.46091e+06
3.46407e+06
3.46677e+06
3.46912e+06
3.47116e+06
3.47294e+06
3.47451e+06
3.47591e+06
3.47715e+06
3.47826e+06
3.47925e+06
3.48015e+06
3.48096e+06
3.4817e+06
3.48236e+06
3.48297e+06
3.48353e+06
3.48404e+06
3.4845e+06
3.48492e+06
3.48531e+06
3.44985e+06
3.46595e+06
3.45128e+06
3.46506e+06
3.45251e+06
3.45048e+06
3.44226e+06
3.43644e+06
3.43351e+06
3.4333e+06
3.43335e+06
3.43482e+06
3.43394e+06
3.42805e+06
3.42488e+06
3.43357e+06
3.44072e+06
3.44725e+06
3.45234e+06
3.45681e+06
3.46052e+06
3.46373e+06
3.46647e+06
3.46885e+06
3.47092e+06
3.47273e+06
3.47432e+06
3.47573e+06
3.47698e+06
3.4781e+06
3.47911e+06
3.48001e+06
3.48083e+06
3.48157e+06
3.48224e+06
3.48285e+06
3.48341e+06
3.48392e+06
3.48439e+06
3.48481e+06
3.4852e+06
3.4511e+06
3.45703e+06
3.45115e+06
3.45734e+06
3.45059e+06
3.44529e+06
3.43944e+06
3.43324e+06
3.43114e+06
3.43102e+06
3.43117e+06
3.43248e+06
3.43157e+06
3.42596e+06
3.42416e+06
3.43291e+06
3.44021e+06
3.44678e+06
3.45194e+06
3.45646e+06
3.46021e+06
3.46346e+06
3.46623e+06
3.46863e+06
3.47072e+06
3.47255e+06
3.47416e+06
3.47558e+06
3.47684e+06
3.47797e+06
3.47898e+06
3.47989e+06
3.48071e+06
3.48145e+06
3.48213e+06
3.48274e+06
3.4833e+06
3.48381e+06
3.48428e+06
3.4847e+06
3.48509e+06
3.45134e+06
3.44648e+06
3.44982e+06
3.44821e+06
3.44733e+06
3.44001e+06
3.43675e+06
3.43075e+06
3.42953e+06
3.42952e+06
3.42971e+06
3.43076e+06
3.42985e+06
3.4245e+06
3.42382e+06
3.43252e+06
3.4399e+06
3.44647e+06
3.45167e+06
3.4562e+06
3.45998e+06
3.46325e+06
3.46604e+06
3.46847e+06
3.47057e+06
3.47241e+06
3.47403e+06
3.47546e+06
3.47673e+06
3.47786e+06
3.47887e+06
3.47978e+06
3.48061e+06
3.48135e+06
3.48203e+06
3.48264e+06
3.4832e+06
3.48371e+06
3.48417e+06
3.4846e+06
3.48499e+06
3.45e+06
3.43667e+06
3.4473e+06
3.43975e+06
3.44346e+06
3.43532e+06
3.43432e+06
3.42893e+06
3.42848e+06
3.42856e+06
3.42874e+06
3.42949e+06
3.42863e+06
3.42347e+06
3.42374e+06
3.43234e+06
3.43976e+06
3.44629e+06
3.45151e+06
3.45604e+06
3.45984e+06
3.46311e+06
3.46592e+06
3.46835e+06
3.47046e+06
3.47231e+06
3.47393e+06
3.47536e+06
3.47664e+06
3.47777e+06
3.47878e+06
3.47969e+06
3.48052e+06
3.48126e+06
3.48193e+06
3.48255e+06
3.48311e+06
3.48362e+06
3.48408e+06
3.48451e+06
3.48489e+06
3.44763e+06
3.42898e+06
3.44413e+06
3.433e+06
3.43961e+06
3.43152e+06
3.43217e+06
3.4276e+06
3.42773e+06
3.42788e+06
3.42799e+06
3.42849e+06
3.42771e+06
3.42272e+06
3.42386e+06
3.43233e+06
3.43976e+06
3.44623e+06
3.45145e+06
3.45598e+06
3.45977e+06
3.46304e+06
3.46585e+06
3.46828e+06
3.47039e+06
3.47224e+06
3.47386e+06
3.4753e+06
3.47657e+06
3.4777e+06
3.47871e+06
3.47962e+06
3.48044e+06
3.48118e+06
3.48185e+06
3.48247e+06
3.48302e+06
3.48353e+06
3.48399e+06
3.48442e+06
3.4848e+06
3.44462e+06
3.42366e+06
3.44082e+06
3.42816e+06
3.43614e+06
3.42864e+06
3.4303e+06
3.42654e+06
3.42702e+06
3.42722e+06
3.42729e+06
3.42761e+06
3.4269e+06
3.42211e+06
3.42408e+06
3.43244e+06
3.43988e+06
3.44628e+06
3.45149e+06
3.45599e+06
3.45977e+06
3.46303e+06
3.46583e+06
3.46826e+06
3.47037e+06
3.47221e+06
3.47383e+06
3.47526e+06
3.47652e+06
3.47765e+06
3.47866e+06
3.47956e+06
3.48038e+06
3.48112e+06
3.48179e+06
3.48239e+06
3.48295e+06
3.48345e+06
3.48391e+06
3.48433e+06
3.48472e+06
3.44143e+06
3.42045e+06
3.43773e+06
3.42501e+06
3.43317e+06
3.42653e+06
3.42862e+06
3.42555e+06
3.42621e+06
3.42646e+06
3.42652e+06
3.42675e+06
3.42609e+06
3.42157e+06
3.42438e+06
3.43265e+06
3.4401e+06
3.44643e+06
3.45162e+06
3.45608e+06
3.45984e+06
3.46309e+06
3.46587e+06
3.46829e+06
3.47038e+06
3.47222e+06
3.47383e+06
3.47525e+06
3.4765e+06
3.47762e+06
3.47863e+06
3.47952e+06
3.48033e+06
3.48107e+06
3.48173e+06
3.48233e+06
3.48288e+06
3.48338e+06
3.48384e+06
3.48426e+06
3.48464e+06
3.43811e+06
3.41887e+06
3.43499e+06
3.42318e+06
3.43071e+06
3.425e+06
3.42712e+06
3.42455e+06
3.42527e+06
3.4256e+06
3.42566e+06
3.4259e+06
3.42523e+06
3.4211e+06
3.42475e+06
3.43294e+06
3.44041e+06
3.44666e+06
3.45183e+06
3.45626e+06
3.45999e+06
3.46321e+06
3.46597e+06
3.46836e+06
3.47044e+06
3.47226e+06
3.47386e+06
3.47526e+06
3.47651e+06
3.47762e+06
3.47861e+06
3.4795e+06
3.4803e+06
3.48102e+06
3.48168e+06
3.48228e+06
3.48282e+06
3.48332e+06
3.48377e+06
3.48419e+06
3.48457e+06
3.43515e+06
3.4186e+06
3.43265e+06
3.42229e+06
3.42874e+06
3.42391e+06
3.42577e+06
3.42353e+06
3.42426e+06
3.42471e+06
3.4248e+06
3.42509e+06
3.42439e+06
3.42076e+06
3.4252e+06
3.43335e+06
3.44081e+06
3.447e+06
3.45214e+06
3.45651e+06
3.4602e+06
3.46339e+06
3.46612e+06
3.46849e+06
3.47054e+06
3.47234e+06
3.47392e+06
3.47531e+06
3.47654e+06
3.47763e+06
3.47861e+06
3.47949e+06
3.48028e+06
3.481e+06
3.48164e+06
3.48223e+06
3.48277e+06
3.48326e+06
3.48371e+06
3.48412e+06
3.4845e+06
3.43244e+06
3.41913e+06
3.43065e+06
3.42202e+06
3.42719e+06
3.42316e+06
3.42463e+06
3.42259e+06
3.42331e+06
3.42391e+06
3.42401e+06
3.42438e+06
3.42364e+06
3.42063e+06
3.42579e+06
3.43388e+06
3.44133e+06
3.44743e+06
3.45252e+06
3.45684e+06
3.46049e+06
3.46363e+06
3.46632e+06
3.46866e+06
3.47068e+06
3.47245e+06
3.47401e+06
3.47538e+06
3.47659e+06
3.47767e+06
3.47863e+06
3.4795e+06
3.48028e+06
3.48098e+06
3.48162e+06
3.4822e+06
3.48273e+06
3.48322e+06
3.48366e+06
3.48407e+06
3.48444e+06
3.43009e+06
3.42016e+06
3.429e+06
3.42216e+06
3.42602e+06
3.42268e+06
3.42373e+06
3.42182e+06
3.42254e+06
3.42331e+06
3.42341e+06
3.42384e+06
3.42307e+06
3.42076e+06
3.42653e+06
3.43456e+06
3.44197e+06
3.44797e+06
3.45301e+06
3.45725e+06
3.46085e+06
3.46393e+06
3.46658e+06
3.46887e+06
3.47086e+06
3.4726e+06
3.47413e+06
3.47547e+06
3.47666e+06
3.47772e+06
3.47867e+06
3.47952e+06
3.48028e+06
3.48097e+06
3.4816e+06
3.48218e+06
3.4827e+06
3.48317e+06
3.48361e+06
3.48401e+06
3.48438e+06
3.42795e+06
3.42128e+06
3.42762e+06
3.42251e+06
3.42514e+06
3.42243e+06
3.42309e+06
3.4213e+06
3.42203e+06
3.42298e+06
3.42303e+06
3.42353e+06
3.42276e+06
3.42118e+06
3.42746e+06
3.4354e+06
3.44273e+06
3.44863e+06
3.45359e+06
3.45774e+06
3.46128e+06
3.4643e+06
3.46689e+06
3.46914e+06
3.47109e+06
3.47279e+06
3.47428e+06
3.4756e+06
3.47676e+06
3.4778e+06
3.47872e+06
3.47955e+06
3.4803e+06
3.48098e+06
3.4816e+06
3.48216e+06
3.48267e+06
3.48314e+06
3.48357e+06
3.48397e+06
3.48433e+06
3.4264e+06
3.42253e+06
3.4265e+06
3.42294e+06
3.42449e+06
3.42234e+06
3.4227e+06
3.42102e+06
3.42178e+06
3.4229e+06
3.42289e+06
3.42345e+06
3.42271e+06
3.42191e+06
3.42859e+06
3.43642e+06
3.44364e+06
3.4494e+06
3.45427e+06
3.45833e+06
3.46178e+06
3.46473e+06
3.46726e+06
3.46945e+06
3.47135e+06
3.47301e+06
3.47447e+06
3.47575e+06
3.47688e+06
3.47789e+06
3.47879e+06
3.4796e+06
3.48034e+06
3.481e+06
3.4816e+06
3.48215e+06
3.48265e+06
3.48311e+06
3.48354e+06
3.48393e+06
3.48428e+06
3.42512e+06
3.42357e+06
3.42552e+06
3.42334e+06
3.424e+06
3.42238e+06
3.42251e+06
3.42096e+06
3.42175e+06
3.42304e+06
3.42297e+06
3.4236e+06
3.42293e+06
3.42293e+06
3.42991e+06
3.43761e+06
3.44468e+06
3.4503e+06
3.45505e+06
3.459e+06
3.46236e+06
3.46523e+06
3.46769e+06
3.46981e+06
3.47166e+06
3.47327e+06
3.47468e+06
3.47592e+06
3.47702e+06
3.478e+06
3.47888e+06
3.47967e+06
3.48038e+06
3.48103e+06
3.48161e+06
3.48215e+06
3.48264e+06
3.48309e+06
3.48351e+06
3.48389e+06
3.48424e+06
3.42425e+06
3.42452e+06
3.42469e+06
3.42366e+06
3.42361e+06
3.42249e+06
3.42249e+06
3.42105e+06
3.42187e+06
3.42334e+06
3.42322e+06
3.42395e+06
3.42341e+06
3.42424e+06
3.43142e+06
3.43899e+06
3.44587e+06
3.45132e+06
3.45593e+06
3.45976e+06
3.46302e+06
3.46579e+06
3.46817e+06
3.47022e+06
3.47201e+06
3.47356e+06
3.47492e+06
3.47612e+06
3.47719e+06
3.47814e+06
3.47899e+06
3.47975e+06
3.48044e+06
3.48107e+06
3.48164e+06
3.48216e+06
3.48264e+06
3.48308e+06
3.48348e+06
3.48386e+06
3.4842e+06
3.42314e+06
3.42487e+06
3.42383e+06
3.42391e+06
3.42335e+06
3.42268e+06
3.4226e+06
3.42124e+06
3.42209e+06
3.42376e+06
3.42364e+06
3.42447e+06
3.42414e+06
3.42582e+06
3.43314e+06
3.44054e+06
3.4472e+06
3.45247e+06
3.45693e+06
3.46062e+06
3.46376e+06
3.46642e+06
3.46871e+06
3.47068e+06
3.47239e+06
3.47389e+06
3.4752e+06
3.47635e+06
3.47737e+06
3.47829e+06
3.4791e+06
3.47984e+06
3.48051e+06
3.48111e+06
3.48167e+06
3.48217e+06
3.48264e+06
3.48307e+06
3.48347e+06
3.48383e+06
3.48417e+06
3.42237e+06
3.4243e+06
3.42423e+06
3.42516e+06
3.42516e+06
3.42768e+06
3.43507e+06
3.44228e+06
3.44869e+06
3.45376e+06
3.45803e+06
3.46157e+06
3.46457e+06
3.46711e+06
3.4693e+06
3.47118e+06
3.47282e+06
3.47424e+06
3.4755e+06
3.4766e+06
3.47758e+06
3.47845e+06
3.47924e+06
3.47994e+06
3.48059e+06
3.48117e+06
3.48171e+06
3.4822e+06
3.48265e+06
3.48307e+06
3.48345e+06
3.48381e+06
3.48414e+06
3.48649e+06
3.48601e+06
3.48573e+06
3.4856e+06
3.48558e+06
3.48565e+06
3.48579e+06
3.48598e+06
3.4862e+06
3.48645e+06
3.48672e+06
3.487e+06
3.48728e+06
3.48757e+06
3.48785e+06
3.48813e+06
3.48841e+06
3.48867e+06
3.48893e+06
3.48917e+06
3.4876e+06
3.48645e+06
3.48569e+06
3.48521e+06
3.48495e+06
3.48486e+06
3.48488e+06
3.485e+06
3.48519e+06
3.48542e+06
3.48568e+06
3.48597e+06
3.48628e+06
3.48659e+06
3.4869e+06
3.48722e+06
3.48752e+06
3.48782e+06
3.48811e+06
3.4884e+06
3.48866e+06
3.48892e+06
3.57696e+06
3.57011e+06
3.57537e+06
3.56795e+06
3.57139e+06
3.56677e+06
3.56635e+06
3.5648e+06
3.56285e+06
3.56533e+06
3.51763e+06
3.49981e+06
3.49555e+06
3.49121e+06
3.48873e+06
3.48682e+06
3.48561e+06
3.48482e+06
3.48436e+06
3.48413e+06
3.48408e+06
3.48416e+06
3.48433e+06
3.48457e+06
3.48485e+06
3.48516e+06
3.48549e+06
3.48584e+06
3.48618e+06
3.48652e+06
3.48686e+06
3.48719e+06
3.48751e+06
3.48782e+06
3.48812e+06
3.48841e+06
3.48867e+06
3.58361e+06
3.57317e+06
3.58189e+06
3.5722e+06
3.57699e+06
3.57119e+06
3.57122e+06
3.56863e+06
3.56728e+06
3.56863e+06
3.56467e+06
3.55862e+06
3.52636e+06
3.50015e+06
3.49611e+06
3.49056e+06
3.48803e+06
3.48587e+06
3.48465e+06
3.48385e+06
3.48343e+06
3.48326e+06
3.48328e+06
3.48342e+06
3.48365e+06
3.48394e+06
3.48428e+06
3.48464e+06
3.48501e+06
3.48539e+06
3.48577e+06
3.48615e+06
3.48651e+06
3.48687e+06
3.48721e+06
3.48754e+06
3.48785e+06
3.48815e+06
3.48843e+06
3.58775e+06
3.57516e+06
3.58562e+06
3.57507e+06
3.58033e+06
3.57401e+06
3.57422e+06
3.57096e+06
3.57062e+06
3.57131e+06
3.56866e+06
3.56511e+06
3.53541e+06
3.50028e+06
3.49598e+06
3.48948e+06
3.48698e+06
3.48467e+06
3.48352e+06
3.48276e+06
3.48243e+06
3.48234e+06
3.48243e+06
3.48265e+06
3.48295e+06
3.48331e+06
3.4837e+06
3.48411e+06
3.48453e+06
3.48495e+06
3.48536e+06
3.48577e+06
3.48616e+06
3.48654e+06
3.48691e+06
3.48725e+06
3.48758e+06
3.4879e+06
3.48819e+06
3.48847e+06
3.58676e+06
3.57584e+06
3.58499e+06
3.57623e+06
3.58043e+06
3.57444e+06
3.5744e+06
3.57086e+06
3.57167e+06
3.57156e+06
3.57065e+06
3.56818e+06
3.54251e+06
3.4999e+06
3.49442e+06
3.48785e+06
3.4854e+06
3.48319e+06
3.48217e+06
3.48154e+06
3.48133e+06
3.48135e+06
3.48155e+06
3.48185e+06
3.48224e+06
3.48266e+06
3.48312e+06
3.48358e+06
3.48405e+06
3.48451e+06
3.48496e+06
3.4854e+06
3.48582e+06
3.48622e+06
3.48661e+06
3.48697e+06
3.48732e+06
3.48765e+06
3.48796e+06
3.48824e+06
3.5802e+06
3.57554e+06
3.57934e+06
3.57502e+06
3.57652e+06
3.57171e+06
3.5709e+06
3.56728e+06
3.56858e+06
3.56667e+06
3.5683e+06
3.56467e+06
3.54527e+06
3.49877e+06
3.4908e+06
3.48553e+06
3.48315e+06
3.48139e+06
3.48057e+06
3.48018e+06
3.48013e+06
3.48031e+06
3.48062e+06
3.48104e+06
3.48151e+06
3.48201e+06
3.48253e+06
3.48305e+06
3.48357e+06
3.48407e+06
3.48456e+06
3.48503e+06
3.48548e+06
3.48591e+06
3.48632e+06
3.4867e+06
3.48706e+06
3.4874e+06
3.48772e+06
3.48802e+06
3.4883e+06
3.56772e+06
3.5729e+06
3.5681e+06
3.57033e+06
3.56815e+06
3.56528e+06
3.56329e+06
3.55989e+06
3.56055e+06
3.55637e+06
3.56032e+06
3.55483e+06
3.54217e+06
3.49779e+06
3.48513e+06
3.48261e+06
3.48024e+06
3.47928e+06
3.47874e+06
3.47868e+06
3.47885e+06
3.47921e+06
3.47967e+06
3.4802e+06
3.48077e+06
3.48136e+06
3.48195e+06
3.48253e+06
3.48309e+06
3.48364e+06
3.48417e+06
3.48467e+06
3.48515e+06
3.4856e+06
3.48603e+06
3.48643e+06
3.48681e+06
3.48716e+06
3.4875e+06
3.48781e+06
3.48809e+06
3.55133e+06
3.56703e+06
3.55192e+06
3.56101e+06
3.55473e+06
3.55414e+06
3.5511e+06
3.54882e+06
3.54835e+06
3.5431e+06
3.54786e+06
3.54137e+06
3.53446e+06
3.49675e+06
3.47819e+06
3.47922e+06
3.47684e+06
3.47693e+06
3.47671e+06
3.47707e+06
3.47749e+06
3.47806e+06
3.47869e+06
3.47935e+06
3.48003e+06
3.4807e+06
3.48136e+06
3.48201e+06
3.48263e+06
3.48322e+06
3.48378e+06
3.48431e+06
3.48482e+06
3.4853e+06
3.48574e+06
3.48617e+06
3.48656e+06
3.48693e+06
3.48727e+06
3.48759e+06
3.48789e+06
3.52845e+06
3.55293e+06
3.53085e+06
3.54502e+06
3.535e+06
3.53641e+06
3.53333e+06
3.53391e+06
3.5337e+06
3.5297e+06
3.5339e+06
3.52765e+06
3.52535e+06
3.49381e+06
3.47135e+06
3.47525e+06
3.47323e+06
3.47439e+06
3.47457e+06
3.47539e+06
3.47608e+06
3.47689e+06
3.47769e+06
3.4785e+06
3.47929e+06
3.48005e+06
3.48079e+06
3.48149e+06
3.48216e+06
3.4828e+06
3.4834e+06
3.48397e+06
3.4845e+06
3.485e+06
3.48547e+06
3.48591e+06
3.48632e+06
3.4867e+06
3.48705e+06
3.48738e+06
3.48769e+06
3.50198e+06
3.52947e+06
3.50551e+06
3.52088e+06
3.50763e+06
3.50988e+06
3.5085e+06
3.51471e+06
3.51805e+06
3.51778e+06
3.52107e+06
3.5162e+06
3.51661e+06
3.48918e+06
3.46584e+06
3.47079e+06
3.46972e+06
3.47173e+06
3.4724e+06
3.47366e+06
3.47465e+06
3.47571e+06
3.47669e+06
3.47764e+06
3.47855e+06
3.47941e+06
3.48022e+06
3.48099e+06
3.48171e+06
3.48239e+06
3.48303e+06
3.48363e+06
3.48419e+06
3.48471e+06
3.4852e+06
3.48565e+06
3.48608e+06
3.48647e+06
3.48684e+06
3.48718e+06
3.4875e+06
3.47222e+06
3.49647e+06
3.47634e+06
3.48895e+06
3.47314e+06
3.47439e+06
3.47657e+06
3.49148e+06
3.50227e+06
3.50765e+06
3.51037e+06
3.50751e+06
3.50857e+06
3.48447e+06
3.46171e+06
3.46618e+06
3.4665e+06
3.46903e+06
3.47027e+06
3.47193e+06
3.47323e+06
3.47453e+06
3.4757e+06
3.4768e+06
3.47782e+06
3.47877e+06
3.47966e+06
3.48049e+06
3.48127e+06
3.48199e+06
3.48267e+06
3.4833e+06
3.48388e+06
3.48443e+06
3.48494e+06
3.48541e+06
3.48585e+06
3.48626e+06
3.48663e+06
3.48698e+06
3.4873e+06
3.44471e+06
3.4614e+06
3.44785e+06
3.4548e+06
3.43714e+06
3.43538e+06
3.4421e+06
3.46705e+06
3.48733e+06
3.4987e+06
3.50148e+06
3.50056e+06
3.50087e+06
3.48021e+06
3.45806e+06
3.46165e+06
3.4635e+06
3.46636e+06
3.46822e+06
3.47023e+06
3.47184e+06
3.47338e+06
3.47473e+06
3.47597e+06
3.47711e+06
3.47816e+06
3.47912e+06
3.48001e+06
3.48084e+06
3.48161e+06
3.48232e+06
3.48298e+06
3.48359e+06
3.48415e+06
3.48468e+06
3.48517e+06
3.48562e+06
3.48604e+06
3.48643e+06
3.48679e+06
3.48712e+06
3.42482e+06
3.43429e+06
3.42682e+06
3.42877e+06
3.4111e+06
3.40634e+06
3.4157e+06
3.44788e+06
3.47536e+06
3.49053e+06
3.4933e+06
3.49384e+06
3.4932e+06
3.47573e+06
3.45424e+06
3.45733e+06
3.46063e+06
3.46378e+06
3.46626e+06
3.46858e+06
3.47051e+06
3.47225e+06
3.47379e+06
3.47517e+06
3.47642e+06
3.47756e+06
3.4786e+06
3.47955e+06
3.48043e+06
3.48123e+06
3.48198e+06
3.48267e+06
3.4833e+06
3.48389e+06
3.48444e+06
3.48494e+06
3.48541e+06
3.48584e+06
3.48623e+06
3.4866e+06
3.48694e+06
3.41952e+06
3.42575e+06
3.42045e+06
3.42149e+06
3.40595e+06
3.40195e+06
3.40873e+06
3.44097e+06
3.4683e+06
3.48299e+06
3.48513e+06
3.48654e+06
3.48544e+06
3.47057e+06
3.45036e+06
3.45338e+06
3.4579e+06
3.46138e+06
3.46441e+06
3.46701e+06
3.46923e+06
3.47118e+06
3.47288e+06
3.4744e+06
3.47576e+06
3.47698e+06
3.47809e+06
3.4791e+06
3.48003e+06
3.48087e+06
3.48165e+06
3.48237e+06
3.48303e+06
3.48364e+06
3.4842e+06
3.48472e+06
3.48519e+06
3.48564e+06
3.48604e+06
3.48642e+06
3.48676e+06
3.4277e+06
3.43545e+06
3.42819e+06
3.43272e+06
3.4205e+06
3.42093e+06
3.42183e+06
3.44607e+06
3.46561e+06
3.47609e+06
3.47714e+06
3.47896e+06
3.4778e+06
3.46513e+06
3.44673e+06
3.45e+06
3.45537e+06
3.4592e+06
3.46268e+06
3.46555e+06
3.46803e+06
3.47017e+06
3.47203e+06
3.47367e+06
3.47513e+06
3.47644e+06
3.47761e+06
3.47868e+06
3.47965e+06
3.48053e+06
3.48134e+06
3.48208e+06
3.48276e+06
3.48339e+06
3.48397e+06
3.4845e+06
3.48499e+06
3.48544e+06
3.48586e+06
3.48624e+06
3.48659e+06
3.44046e+06
3.45089e+06
3.44222e+06
3.45006e+06
3.44156e+06
3.44731e+06
3.44222e+06
3.45504e+06
3.4645e+06
3.46999e+06
3.47011e+06
3.47205e+06
3.47081e+06
3.46015e+06
3.44357e+06
3.44728e+06
3.45312e+06
3.45728e+06
3.4611e+06
3.46421e+06
3.46691e+06
3.46922e+06
3.47122e+06
3.47298e+06
3.47453e+06
3.47592e+06
3.47715e+06
3.47827e+06
3.47928e+06
3.4802e+06
3.48104e+06
3.48181e+06
3.48251e+06
3.48316e+06
3.48375e+06
3.48429e+06
3.4848e+06
3.48526e+06
3.48568e+06
3.48607e+06
3.48643e+06
3.45417e+06
3.46292e+06
3.45562e+06
3.46306e+06
3.45854e+06
3.46524e+06
3.45794e+06
3.46076e+06
3.46293e+06
3.46499e+06
3.46461e+06
3.46646e+06
3.46496e+06
3.456e+06
3.44088e+06
3.44515e+06
3.45112e+06
3.45562e+06
3.45967e+06
3.463e+06
3.46588e+06
3.46834e+06
3.47047e+06
3.47233e+06
3.47397e+06
3.47543e+06
3.47672e+06
3.47789e+06
3.47894e+06
3.47989e+06
3.48076e+06
3.48155e+06
3.48227e+06
3.48293e+06
3.48354e+06
3.4841e+06
3.48461e+06
3.48508e+06
3.48551e+06
3.48591e+06
3.48627e+06
3.46497e+06
3.46701e+06
3.46587e+06
3.46797e+06
3.47022e+06
3.4704e+06
3.46602e+06
3.46208e+06
3.46052e+06
3.46099e+06
3.46037e+06
3.462e+06
3.46026e+06
3.45251e+06
3.43849e+06
3.44341e+06
3.44935e+06
3.45417e+06
3.45838e+06
3.4619e+06
3.46494e+06
3.46753e+06
3.46978e+06
3.47173e+06
3.47345e+06
3.47497e+06
3.47632e+06
3.47753e+06
3.47862e+06
3.4796e+06
3.48049e+06
3.4813e+06
3.48204e+06
3.48272e+06
3.48334e+06
3.48391e+06
3.48443e+06
3.48491e+06
3.48535e+06
3.48575e+06
3.48611e+06
3.47327e+06
3.46631e+06
3.47307e+06
3.46753e+06
3.47781e+06
3.46943e+06
3.46763e+06
3.46072e+06
3.45742e+06
3.45737e+06
3.45659e+06
3.458e+06
3.45625e+06
3.4492e+06
3.43619e+06
3.44182e+06
3.44773e+06
3.45286e+06
3.4572e+06
3.4609e+06
3.46407e+06
3.46679e+06
3.46914e+06
3.47118e+06
3.47297e+06
3.47454e+06
3.47594e+06
3.47719e+06
3.47832e+06
3.47933e+06
3.48024e+06
3.48107e+06
3.48183e+06
3.48252e+06
3.48315e+06
3.48373e+06
3.48426e+06
3.48474e+06
3.48519e+06
3.48559e+06
3.48597e+06
3.47534e+06
3.46474e+06
3.47481e+06
3.46607e+06
3.47847e+06
3.46788e+06
3.46465e+06
3.45782e+06
3.45369e+06
3.45352e+06
3.4527e+06
3.45398e+06
3.45245e+06
3.4457e+06
3.43388e+06