/*--------------------------------*- C++ -*----------------------------------*\
| =========                 |                                                 |
| \\      /  F ield         | OpenFOAM: The Open Source CFD Toolbox           |
|  \\    /   O peration     | Version:  v2012                                 |
|   \\  /    A nd           | Website:  www.openfoam.com                      |
|    \\/     M anipulation  |                                                 |
\*---------------------------------------------------------------------------*/
FoamFile
{
    version     2.0;
    format      ascii;
    class       surfaceScalarField;
    location    "0.15";
    object      alphaPhi0.water;
}
// * * * * * * * * * * * * * * * * * * * * * * * * * * * * * * * * * * * * * //

dimensions      [0 3 -1 0 0 0 0];
oriented        oriented;


internalField   nonuniform List<scalar> 
49380
(
4.74213e-11
-2.74329e-09
1.71408e-14
1.95387e-10
-1.61053e-08
1.25201e-14
4.09567e-10
-3.39286e-08
8.7937e-16
4.60225e-10
-5.0125e-08
8.35386e-16
1.04913e-09
-7.37434e-08
-4.30081e-16
1.35822e-09
-9.57324e-08
6.19972e-15
1.40031e-09
-1.01239e-07
-5.11656e-15
1.79434e-09
-9.1602e-08
5.40896e-15
2.00566e-09
-7.38578e-08
1.13704e-14
1.75105e-09
-7.50992e-08
2.4595e-15
7.78269e-10
-5.35339e-08
1.54426e-15
7.70575e-11
-1.37078e-08
3.36464e-16
1.61418e-12
-8.50341e-10
1.80418e-17
1.99425e-14
-1.76228e-11
3.12839e-19
3.91745e-16
-2.56167e-13
4.08161e-21
2.27597e-17
-8.15725e-15
1.44011e-22
8.74713e-19
-4.05116e-16
6.32007e-24
4.24636e-21
-4.59817e-18
5.60514e-26
1.79128e-23
-1.41106e-20
1.33747e-28
9.10415e-26
-5.9993e-23
4.47015e-31
3.36794e-28
-2.26105e-25
1.39102e-33
9.56292e-31
-6.91895e-28
3.50906e-36
2.12035e-33
-1.72525e-30
7.23822e-39
3.63665e-36
-3.46836e-33
1.18847e-41
4.6875e-39
-5.49471e-36
1.64686e-44
4.30529e-42
-6.61246e-39
1.70484e-47
6.54954e-46
-5.70427e-42
1.25772e-50
4.45969e-47
-1.33686e-44
2.84308e-53
1.11131e-46
-2.89526e-44
4.27108e-53
1.10183e-43
-9.25284e-42
4.35793e-51
-1.82251e-40
-2.9718e-39
3.29154e-48
-1.21791e-36
-6.3239e-36
9.84413e-45
-2.38435e-33
-9.98236e-33
1.47639e-41
-1.19018e-30
-1.47946e-29
2.06844e-38
-5.22584e-27
-2.61528e-26
3.54575e-35
-3.23616e-25
-2.49227e-24
3.22576e-33
-1.09926e-25
-2.21316e-23
2.65353e-32
-5.06684e-22
-7.70729e-23
8.25204e-31
-6.66901e-19
-7.6038e-20
1.02283e-27
-5.55845e-17
-1.27652e-17
1.26595e-25
-6.11925e-68
-3.20728e-17
3.5825e-25
-4.18195e-78
3.39499e-64
-1.72131e-67
-1.46262e-94
5.79187e-76
1.1995e-86
-1.52083e-145
2.45039e-92
8.31807e-105
-4.14542e-192
3.63284e-143
-3.57094e-164
-1.36343e-201
1.37235e-189
-8.65469e-196
-4.81479e-199
5.83602e-199
-3.05794e-210
-2.14333e-196
2.56888e-196
-1.16852e-207
-1.17267e-193
1.39604e-193
-8.31818e-205
-7.79012e-191
9.21597e-191
-1.16822e-202
-6.26051e-188
7.34738e-188
2.80573e-200
-6.09506e-185
7.07775e-185
3.29524e-196
-7.22662e-182
8.28487e-182
-3.78508e-193
-1.05124e-178
1.18954e-178
-2.92007e-190
-1.89074e-175
2.11992e-175
-3.33601e-187
-4.2309e-172
4.75332e-172
-2.00773e-184
-1.17954e-168
1.36107e-168
4.36497e-180
-4.02933e-165
5.04809e-165
-2.36149e-176
-1.51688e-161
2.4349e-161
-1.38661e-172
1.28708e-157
-1.04431e-168
6.91643e-11
-2.81245e-09
2.64101e-14
2.6896e-10
-1.63051e-08
1.43244e-14
5.31278e-10
-3.41909e-08
5.44881e-16
5.17089e-10
-5.01108e-08
5.36581e-16
1.21685e-09
-7.44432e-08
7.67743e-15
1.45235e-09
-9.59679e-08
6.08457e-15
1.50109e-09
-1.01287e-07
-1.0532e-14
1.98155e-09
-9.20823e-08
2.48396e-15
2.17954e-09
-7.40558e-08
7.127e-15
1.86823e-09
-7.54008e-08
2.34199e-15
8.6173e-10
-5.49735e-08
1.45396e-15
9.07204e-11
-1.4574e-08
3.61188e-16
1.96476e-12
-9.34441e-10
2.00707e-17
2.37133e-14
-1.96399e-11
3.63303e-19
3.52144e-16
-2.73814e-13
4.22873e-21
1.34166e-17
-6.75153e-15
9.90974e-23
5.16161e-19
-3.08133e-16
3.8123e-24
2.92126e-21
-3.63759e-18
3.74639e-26
1.48748e-23
-1.13453e-20
9.66317e-29
8.34037e-26
-5.08587e-23
3.28654e-31
3.2103e-28
-2.0654e-25
1.08107e-33
9.30557e-31
-6.57582e-28
2.85924e-36
2.08694e-33
-1.67878e-30
6.13136e-39
3.60029e-36
-3.42032e-33
1.04869e-41
4.64791e-39
-5.4425e-36
1.47631e-44
4.25617e-42
-6.51222e-39
1.47542e-47
1.93234e-45
-5.50417e-42
1.05901e-50
2.49693e-47
-8.75243e-45
1.61733e-53
6.08694e-47
-2.72364e-44
3.39021e-53
1.21802e-43
-9.37271e-42
9.80508e-51
4.14471e-40
-3.39791e-39
4.91394e-48
7.16076e-38
-6.39492e-36
7.77121e-45
-6.6547e-34
-9.31629e-33
1.05726e-41
-5.94182e-31
-1.42005e-29
1.54865e-38
-3.30629e-27
-2.12331e-26
2.26266e-35
-3.1134e-25
-1.95399e-24
2.10348e-33
-5.07035e-25
-1.88574e-23
1.98957e-32
-1.30688e-23
-6.11703e-23
7.7314e-32
-2.73764e-20
-3.79571e-20
6.46586e-29
-8.5706e-18
-1.92977e-18
1.1749e-26
-9.60438e-37
-3.53692e-18
1.2388e-25
-3.07743e-77
8.78922e-36
7.16383e-45
-4.67923e-94
1.44354e-75
1.01179e-85
-4.94366e-147
2.74729e-92
-4.68094e-97
-1.74431e-182
3.63235e-143
-2.43404e-161
-3.67511e-184
1.93125e-180
-2.74913e-193
-4.51945e-182
5.24426e-182
-1.54927e-192
-6.9403e-180
8.03071e-180
4.51245e-190
-1.30095e-177
1.50485e-177
8.35885e-188
-2.94682e-175
3.40275e-175
2.51374e-185
-8.04637e-173
9.24882e-173
6.74962e-183
-2.65248e-170
3.02692e-170
2.34873e-180
-1.05991e-167
1.19971e-167
3.77959e-178
-5.1579e-165
5.80601e-165
1.95918e-175
-3.06603e-162
3.46225e-162
1.01561e-172
-2.2228e-159
2.56685e-159
6.88977e-170
-1.93812e-156
2.38316e-156
7.6205e-167
-2.42491e-153
3.26468e-153
-2.68443e-164
-7.35412e-150
1.20269e-149
-1.02377e-160
4.16985e-146
-3.5934e-158
6.12818e-11
-2.87373e-09
2.08264e-14
2.22278e-10
-1.64661e-08
9.35996e-15
4.20133e-10
-3.43888e-08
-1.30315e-16
4.46082e-10
-5.01368e-08
-6.48799e-16
9.93779e-10
-7.49909e-08
2.71817e-15
1.2514e-09
-9.62255e-08
2.3238e-15
1.57531e-09
-1.01611e-07
-6.55095e-15
2.06641e-09
-9.25732e-08
1.46609e-14
2.3151e-09
-7.43045e-08
9.052e-15
2.02168e-09
-7.56904e-08
2.43204e-15
9.49645e-10
-5.63807e-08
1.44051e-15
1.02638e-10
-1.54677e-08
3.57959e-16
2.25027e-12
-1.02526e-09
2.05517e-17
2.68803e-14
-2.18817e-11
3.69598e-19
3.58104e-16
-2.9785e-13
4.2101e-21
1.06934e-17
-5.75979e-15
7.81381e-23
3.98726e-19
-2.35032e-16
2.71051e-24
2.40658e-21
-2.86885e-18
2.82134e-26
1.25833e-23
-9.13639e-21
7.04213e-29
7.43365e-26
-4.3458e-23
2.73984e-31
2.93314e-28
-1.8667e-25
9.77175e-34
8.62853e-31
-6.0876e-28
2.63894e-36
1.9503e-33
-1.57181e-30
5.65801e-39
3.3688e-36
-3.21118e-33
9.53101e-42
4.32101e-39
-5.07984e-36
1.33233e-44
3.89003e-42
-5.97552e-39
1.32403e-47
1.76409e-45
-4.87606e-42
9.21984e-51
1.4611e-47
-5.45098e-45
1.00725e-53
2.64666e-48
-2.62685e-44
3.036e-53
1.71925e-43
-9.47878e-42
7.10532e-51
7.59195e-40
-4.2328e-39
5.23417e-48
3.6408e-37
-6.75811e-36
7.67397e-45
-3.92072e-34
-8.9233e-33
9.67973e-42
-6.79291e-31
-1.35212e-29
1.43486e-38
-2.653e-27
-1.72173e-26
1.81975e-35
-1.63697e-25
-1.60909e-24
1.66366e-33
-4.77092e-25
-1.58975e-23
1.69594e-32
1.33084e-23
-6.25647e-23
5.62738e-32
-1.46505e-20
-1.69743e-20
3.52988e-29
-7.95844e-19
-7.02012e-19
2.00219e-27
-2.51503e-36
-1.12062e-18
9.53503e-27
-2.05498e-74
2.58187e-35
1.70859e-44
-2.20834e-93
6.21581e-73
5.8222e-83
-1.06039e-141
1.12004e-91
-2.25852e-99
-5.53375e-166
5.2198e-140
-1.17801e-146
-2.26655e-178
3.69434e-164
-1.84403e-169
-1.65428e-176
1.94328e-176
7.82438e-188
-1.51321e-174
1.76365e-174
2.28587e-184
-1.69817e-172
1.96723e-172
2.23284e-182
-2.31778e-170
2.6622e-170
3.74213e-180
-3.8401e-168
4.35922e-168
6.08051e-178
-7.72765e-166
8.65586e-166
1.27361e-175
-1.89113e-163
2.09432e-163
1.48812e-173
-5.62739e-161
6.20786e-161
4.65974e-171
-2.02911e-158
2.26416e-158
1.53605e-168
-8.7859e-156
1.01914e-155
6.49988e-166
-6.01708e-153
7.16099e-153
4.13147e-163
-1.34574e-149
1.34511e-149
4.76708e-161
-5.35974e-145
8.58351e-145
6.58138e-157
1.81163e-141
2.73732e-152
7.16826e-11
-2.94541e-09
1.54204e-14
2.5345e-10
-1.66479e-08
1.05424e-14
4.28152e-10
-3.45635e-08
5.38664e-16
4.3717e-10
-5.01458e-08
6.35077e-16
9.22386e-10
-7.54762e-08
2.29174e-15
1.32428e-09
-9.66274e-08
2.01358e-15
1.79208e-09
-1.02079e-07
-1.56623e-15
2.2081e-09
-9.29891e-08
1.87922e-14
2.42032e-09
-7.45167e-08
6.96995e-15
2.12736e-09
-7.59455e-08
2.52579e-15
1.03176e-09
-5.77976e-08
1.35136e-15
1.16391e-10
-1.64171e-08
3.49849e-16
2.61323e-12
-1.12612e-09
2.18927e-17
3.10659e-14
-2.44381e-11
3.92836e-19
3.77169e-16
-3.28126e-13
4.36753e-21
8.63979e-18
-5.20162e-15
6.40167e-23
2.96705e-19
-1.82756e-16
1.88819e-24
2.04157e-21
-2.26596e-18
2.08145e-26
1.12338e-23
-7.37555e-21
5.29241e-29
6.81327e-26
-3.70863e-23
1.98679e-31
2.709e-28
-1.65105e-25
7.34743e-34
7.99212e-31
-5.44293e-28
2.05279e-36
1.80221e-33
-1.40763e-30
4.47309e-39
3.08602e-36
-2.85889e-33
7.55996e-42
3.88942e-39
-4.45513e-36
1.05652e-44
3.39235e-42
-5.09329e-39
1.02147e-47
1.58129e-45
-3.94478e-42
6.79518e-51
7.26968e-48
-3.10496e-45
5.35541e-54
7.26903e-47
-2.57453e-44
2.54375e-53
2.6902e-43
-9.63517e-42
6.03882e-51
9.32579e-40
-5.18894e-39
6.01846e-48
6.54092e-37
-7.41104e-36
7.57487e-45
-1.96753e-34
-8.72531e-33
8.62317e-42
-8.15948e-31
-1.27049e-29
1.25053e-38
-2.36116e-27
-1.37467e-26
1.37245e-35
-1.00477e-25
-1.34959e-24
1.31596e-33
-4.25069e-25
-1.33635e-23
1.37807e-32
3.41259e-24
-5.48875e-23
6.63199e-32
-7.31154e-21
-6.89551e-21
1.51456e-29
-3.08333e-19
-2.25202e-19
7.71283e-28
-3.815e-35
-3.12564e-19
3.20649e-27
-6.87125e-74
2.14222e-34
2.45437e-43
-1.13212e-92
1.59819e-72
2.13122e-82
-1.60451e-143
4.80685e-91
4.18251e-102
-1.53638e-164
5.21823e-140
-6.04958e-149
-3.08139e-174
7.37053e-163
-1.09642e-168
-1.58679e-172
1.89097e-172
7.86302e-183
-1.01417e-170
1.20868e-170
2.05052e-180
-7.92715e-169
9.41163e-169
1.16611e-178
-7.53962e-167
8.86681e-167
1.45435e-176
-8.72288e-165
1.0115e-164
1.7321e-174
-1.22757e-162
1.40233e-162
2.66707e-172
-2.09777e-160
2.37276e-160
2.14228e-170
-4.32923e-158
4.91156e-158
4.96672e-168
-1.06806e-155
1.24325e-155
1.19644e-165
-3.73615e-153
4.45386e-153
3.66309e-163
-2.02506e-150
2.02935e-150
1.22997e-160
-8.90205e-146
8.90051e-146
1.3283e-156
-2.56961e-141
4.0661e-141
6.57538e-152
6.18229e-138
2.03983e-148
7.05724e-11
-3.01598e-09
1.49082e-14
2.45017e-10
-1.68223e-08
4.64842e-15
3.62774e-10
-3.46813e-08
-1.8921e-15
3.43528e-10
-5.01265e-08
-7.81249e-16
7.77916e-10
-7.59106e-08
3.07575e-15
1.3827e-09
-9.72321e-08
3.71549e-15
1.92673e-09
-1.02623e-07
1.23067e-15
2.24493e-09
-9.33072e-08
1.97316e-14
2.4992e-09
-7.4771e-08
4.75199e-15
2.21352e-09
-7.61733e-08
2.63856e-15
1.10762e-09
-5.92314e-08
1.2851e-15
1.30579e-10
-1.74337e-08
3.33305e-16
3.00763e-12
-1.23927e-09
2.1427e-17
3.57072e-14
-2.73816e-11
3.84345e-19
4.07927e-16
-3.65449e-13
4.15022e-21
7.3718e-18
-4.8973e-15
5.05119e-23
2.23687e-19
-1.44875e-16
1.22241e-24
1.81831e-21
-1.78051e-18
1.36432e-26
1.05623e-23
-5.92312e-21
3.47413e-29
6.47616e-26
-3.12349e-23
1.48271e-31
2.57051e-28
-1.40155e-25
5.72213e-34
7.54344e-31
-4.58826e-28
1.60988e-36
1.6844e-33
-1.17305e-30
3.4736e-39
2.836e-36
-2.34216e-33
5.73348e-42
3.47429e-39
-3.55485e-36
7.83737e-45
2.88554e-42
-3.89436e-39
7.23511e-48
1.22328e-45
-2.80087e-42
4.47383e-51
2.89901e-48
-1.60605e-45
2.50318e-54
1.59318e-46
-2.54019e-44
2.03987e-53
4.61525e-43
-9.93929e-42
4.47321e-51
1.19205e-39
-6.38499e-39
6.6179e-48
7.81115e-37
-8.19066e-36
7.44838e-45
-2.31565e-34
-8.49234e-33
7.54973e-42
-1.09194e-30
-1.16128e-29
1.04506e-38
-2.16244e-27
-1.07079e-26
9.91441e-36
-9.57831e-26
-1.12137e-24
1.02243e-33
-4.03794e-25
-1.11894e-23
1.09477e-32
-9.56204e-25
-4.37895e-23
5.12641e-32
-3.05053e-21
-2.69092e-21
6.06613e-30
-9.80713e-20
-7.25607e-20
2.50491e-28
-1.09511e-37
-8.8736e-20
9.77189e-28
-2.23245e-61
2.14112e-34
1.49119e-45
-2.75512e-82
4.31364e-60
9.06612e-70
-6.30431e-108
1.38178e-82
5.34396e-91
-1.96378e-163
1.77462e-106
9.37957e-117
-4.82476e-171
7.37332e-162
2.16511e-172
-1.83487e-169
2.30827e-169
2.07385e-179
-8.62496e-168
1.08746e-167
1.72719e-177
-4.96309e-166
6.22134e-166
4.61542e-176
-3.49223e-164
4.3125e-164
5.64439e-174
-3.01e-162
3.63839e-162
5.58898e-172
-3.17448e-160
3.75733e-160
7.18838e-170
-4.06958e-158
4.76405e-158
3.56445e-168
-6.2637e-156
7.40033e-156
7.35386e-166
-1.21911e-153
1.47558e-153
1.44698e-163
-3.64662e-151
3.68369e-151
2.34495e-161
-3.75155e-147
3.75331e-147
2.8773e-157
-1.31213e-142
1.3126e-142
3.3223e-153
-2.97079e-138
4.66735e-138
1.60406e-148
5.54306e-135
3.73149e-145
7.52509e-11
-3.09123e-09
1.33425e-14
2.53377e-10
-1.70005e-08
7.1939e-15
3.26096e-10
-3.4754e-08
-3.29563e-15
2.65998e-10
-5.00664e-08
2.91524e-15
7.28928e-10
-7.63735e-08
3.04344e-15
1.53021e-09
-9.80334e-08
-1.15047e-15
1.97306e-09
-1.03066e-07
-1.92703e-15
2.16637e-09
-9.35004e-08
2.27449e-14
2.52699e-09
-7.51316e-08
4.99747e-15
2.26799e-09
-7.6394e-08
2.33729e-15
1.17445e-09
-6.07029e-08
1.10524e-15
1.45381e-10
-1.85395e-08
3.09415e-16
3.45119e-12
-1.36857e-09
2.07237e-17
4.10537e-14
-3.08318e-11
3.74727e-19
4.49182e-16
-4.10916e-13
3.92618e-21
6.53247e-18
-4.80307e-15
4.132e-23
1.70485e-19
-1.1774e-16
8.17559e-25
1.65767e-21
-1.38808e-18
9.18001e-27
1.02934e-23
-4.707e-21
2.33498e-29
6.18074e-26
-2.56947e-23
9.47e-32
2.36165e-28
-1.12949e-25
3.51428e-34
6.70831e-31
-3.64691e-28
9.85995e-37
1.45244e-33
-9.1932e-31
2.10661e-39
2.36148e-36
-1.79916e-33
3.40629e-42
2.76105e-39
-2.64521e-36
4.61193e-45
2.13362e-42
-2.74767e-39
4.02811e-48
7.8699e-46
-1.794e-42
2.2647e-51
7.43445e-49
-7.74272e-46
9.5359e-55
2.16084e-46
-2.48438e-44
1.43411e-53
7.48458e-43
-1.05177e-41
2.53594e-51
1.52501e-39
-7.91566e-39
7.05042e-48
7.99512e-37
-8.98826e-36
6.98092e-45
-3.38136e-34
-8.15274e-33
6.26592e-42
-1.63745e-30
-9.97788e-30
7.89892e-39
-1.94238e-27
-8.08968e-27
6.72894e-36
-9.20989e-26
-9.18491e-25
7.59726e-34
-3.88167e-25
-9.32322e-24
8.41947e-33
-1.97424e-24
-3.3945e-23
3.84518e-32
-1.26188e-21
-9.6821e-22
2.28037e-30
-3.24076e-20
-2.21102e-20
8.24996e-29
-1.78233e-34
-2.42378e-20
3.1402e-28
-7.3299e-61
7.30219e-34
1.30993e-42
-2.75696e-84
9.76428e-60
3.88728e-69
-4.07736e-109
1.35421e-82
1.16524e-92
-2.47984e-162
2.21291e-106
7.02116e-118
-1.59385e-168
7.66307e-161
7.63222e-171
-4.70722e-167
6.25315e-167
8.85984e-177
-1.73465e-165
2.28331e-165
2.90582e-175
-7.94322e-164
1.02295e-163
-2.44259e-175
-4.53071e-162
5.63928e-162
3.99885e-172
-3.22e-160
3.85543e-160
4.27325e-170
-2.82907e-158
3.28237e-158
5.56608e-168
-3.02968e-156
3.46729e-156
1.34785e-166
-3.98014e-154
4.57578e-154
3.59271e-164
-8.92919e-152
9.08418e-152
5.36979e-162
-2.89985e-148
2.90274e-148
1.79906e-158
-2.79797e-144
2.80152e-144
2.51847e-154
-8.00596e-140
8.01654e-140
2.699e-150
-1.49142e-135
2.33346e-135
1.23193e-145
2.27014e-132
2.51778e-142
7.69246e-11
-3.16815e-09
1.2168e-14
2.52287e-10
-1.71759e-08
5.61271e-15
2.71797e-10
-3.47735e-08
-5.07087e-15
1.63207e-10
-4.99578e-08
4.78821e-15
7.37637e-10
-7.6948e-08
8.21222e-15
1.63177e-09
-9.89275e-08
4.64974e-16
1.79231e-09
-1.03226e-07
-3.36039e-15
1.899e-09
-9.36069e-08
1.70962e-14
2.49922e-09
-7.57318e-08
3.05619e-15
2.29881e-09
-7.66409e-08
1.26118e-15
1.23356e-09
-6.22277e-08
8.13485e-16
1.60766e-10
-1.97582e-08
2.62387e-16
3.94432e-12
-1.51898e-09
1.80643e-17
4.70627e-14
-3.49534e-11
3.19738e-19
5.01086e-16
-4.6655e-13
3.28978e-21
6.09263e-18
-5.00759e-15
3.07158e-23
1.30367e-19
-9.83699e-17
4.75714e-25
1.52476e-21
-1.07063e-18
5.21664e-27
9.58505e-24
-3.69962e-21
1.28997e-29
5.37104e-26
-2.08734e-23
5.9042e-32
1.98701e-28
-8.88235e-26
2.18728e-34
5.50716e-31
-2.80449e-28
6.02381e-37
1.16115e-33
-6.90844e-31
1.2438e-39
1.82221e-36
-1.31154e-33
1.90972e-42
2.01957e-39
-1.84319e-36
2.51398e-45
1.42526e-42
-1.77957e-39
2.00135e-48
4.28943e-46
-1.01524e-42
9.71059e-52
-3.70134e-49
-3.78747e-46
3.016e-55
-6.59658e-46
-2.33064e-44
7.90556e-54
1.15956e-42
-1.15221e-41
2.13871e-52
1.91868e-39
-9.8335e-39
7.22966e-48
6.61384e-37
-9.64725e-36
6.09435e-45
-5.29179e-34
-7.62217e-33
4.83463e-42
-1.63918e-30
-8.34078e-30
5.57124e-39
-1.70026e-27
-5.88799e-27
4.22801e-36
-9.02686e-26
-7.37585e-25
5.34866e-34
-3.8079e-25
-7.71674e-24
6.23182e-33
-1.93809e-24
-2.58972e-23
2.71932e-32
-4.73327e-22
-3.24697e-22
7.68272e-31
-1.01936e-20
-6.30548e-21
2.48359e-29
-3.27112e-34
-6.32834e-21
9.40949e-29
-1.40483e-60
1.48641e-33
2.50787e-42
-9.6388e-84
1.71309e-59
8.84441e-69
-1.85955e-106
1.36173e-82
4.98364e-92
-3.83635e-164
3.09966e-105
9.31425e-115
-2.17581e-166
7.6633e-161
3.65337e-172
-5.73559e-165
7.23737e-165
1.47144e-174
-1.93419e-163
2.35439e-163
2.26225e-173
-8.26388e-162
9.64219e-162
-7.51925e-172
-4.42529e-160
4.95645e-160
3.83035e-171
-2.92546e-158
3.18017e-158
1.96852e-168
-2.34675e-156
2.51815e-156
3.5233e-166
-2.27692e-154
2.44988e-154
-1.42232e-165
-3.97324e-152
4.11289e-152
1.40537e-162
-2.43277e-149
2.43807e-149
1.02698e-159
-1.39105e-145
1.39377e-145
8.51203e-156
-1.13535e-141
1.13805e-141
1.13439e-151
-2.74773e-137
2.75488e-137
1.08035e-147
-4.34732e-133
6.78764e-133
4.68117e-143
5.5815e-130
8.49174e-140
8.01231e-11
-3.24828e-09
1.00027e-14
2.56389e-10
-1.73521e-08
7.53635e-15
2.22681e-10
-3.47398e-08
-4.98228e-15
7.72617e-11
-4.98124e-08
3.45928e-15
8.27434e-10
-7.76982e-08
-1.0638e-16
1.62178e-09
-9.97218e-08
1.038e-15
1.35846e-09
-1.02963e-07
-8.99017e-15
1.45975e-09
-9.3708e-08
5.65314e-15
2.40791e-09
-7.668e-08
1.74512e-15
2.30239e-09
-7.69521e-08
1.8462e-16
1.28407e-09
-6.38246e-08
3.54249e-16
1.76917e-10
-2.1118e-08
1.83896e-16
4.50365e-12
-1.69677e-09
1.30158e-17
5.39417e-14
-3.99613e-11
2.12037e-19
5.64544e-16
-5.34989e-13
2.15128e-21
5.9584e-18
-5.37654e-15
1.75566e-23
1.0085e-19
-8.47286e-17
2.16539e-25
1.40989e-21
-8.18352e-19
2.41922e-27
8.75217e-24
-3.0271e-21
5.85452e-30
4.56962e-26
-1.69189e-23
2.57846e-32
1.62768e-28
-6.85976e-26
9.28932e-35
4.36844e-31
-2.0915e-28
2.58299e-37
8.8832e-34
-4.97025e-31
5.16877e-40
1.32836e-36
-9.02173e-34
7.38013e-43
1.36888e-39
-1.18993e-36
9.81907e-46
8.51041e-43
-1.03862e-39
6.74056e-49
1.69641e-46
-4.88146e-43
2.52707e-52
-3.07714e-48
-2.35601e-46
6.08437e-56
1.6573e-47
-2.27756e-44
1.14585e-54
1.72612e-42
-1.31228e-41
-2.87323e-51
1.92089e-39
-1.17523e-38
6.79584e-48
9.96406e-38
-9.74437e-36
4.68688e-45
-7.57032e-34
-6.86428e-33
3.30264e-42
-1.63774e-30
-6.70499e-30
3.51727e-39
-1.42867e-27
-4.10282e-27
2.3924e-36
-8.79742e-26
-5.77018e-25
3.49278e-34
-3.86822e-25
-6.32502e-24
4.38384e-33
-1.6474e-24
-1.96461e-23
1.84006e-32
-1.60559e-22
-1.04881e-22
2.36342e-31
-3.04789e-21
-1.61851e-21
6.76024e-30
-6.61727e-34
-1.52254e-21
2.58825e-29
-5.27976e-59
2.75569e-33
5.01732e-42
-1.03461e-83
4.08671e-58
3.59124e-67
-2.35375e-108
2.12846e-82
6.3338e-92
-4.35156e-126
3.15447e-105
4.82091e-110
-8.74812e-145
9.95397e-125
2.63673e-134
-5.88653e-163
1.71311e-141
4.95892e-144
-1.81003e-161
2.09375e-161
1.74018e-171
-6.94185e-160
7.81053e-160
-1.03234e-169
-3.27298e-158
3.60177e-158
-1.33315e-168
-1.86524e-156
2.03414e-156
5.52872e-167
-1.27143e-154
1.39492e-154
1.67533e-164
-1.3962e-152
1.50658e-152
-4.93924e-163
-2.33828e-150
2.36663e-150
3.49954e-161
-8.53204e-147
8.55453e-147
2.99967e-157
-4.23478e-143
4.24805e-143
2.57291e-153
-2.99341e-139
3.00448e-139
3.27372e-149
-6.27528e-135
6.30083e-135
2.77504e-145
-8.62423e-131
1.34561e-130
1.13246e-140
9.56314e-128
1.84379e-137
8.28321e-11
-3.33111e-09
9.8477e-15
2.60304e-10
-1.75296e-08
7.52955e-15
1.62238e-10
-3.46417e-08
-5.76966e-15
6.62212e-12
-4.96568e-08
6.62444e-15
9.42551e-10
-7.86341e-08
2.6159e-15
1.41303e-09
-1.00192e-07
2.58566e-16
7.09089e-10
-1.02258e-07
-7.28849e-15
9.26715e-10
-9.39254e-08
5.46504e-15
2.27611e-09
-7.80294e-08
9.92725e-16
2.28627e-09
-7.73488e-08
-1.54267e-15
1.32742e-09
-6.55031e-08
-1.70143e-16
1.94049e-10
-2.26471e-08
8.60617e-17
5.14432e-12
-1.9096e-09
6.45774e-18
6.18379e-14
-4.61348e-11
7.70977e-20
6.38761e-16
-6.19845e-13
7.45866e-22
6.02408e-18
-5.94036e-15
2.77105e-24
8.02685e-20
-7.6521e-17
1.83361e-26
1.25426e-21
-6.24411e-19
5.03842e-28
7.99662e-24
-2.586e-21
6.861e-31
3.83778e-26
-1.37403e-23
2.37666e-33
1.30039e-28
-5.23602e-26
1.14926e-35
3.33726e-31
-1.5216e-28
4.25351e-38
6.45223e-34
-3.43846e-31
8.29504e-41
9.02937e-37
-5.8663e-34
7.75008e-44
8.42216e-40
-7.09727e-37
1.65689e-46
4.37106e-43
-5.39166e-40
5.29583e-50
3.63764e-47
-1.88887e-43
-9.6361e-54
-7.09414e-48
-1.98586e-46
-2.63455e-56
1.34789e-45
-2.35514e-44
-5.37124e-54
2.41215e-42
-1.54504e-41
-7.09269e-51
1.61379e-39
-1.33631e-38
5.32781e-48
-1.63806e-37
-9.57823e-36
2.88474e-45
-9.47844e-34
-5.91582e-33
1.83648e-42
-1.55208e-30
-5.15479e-30
1.86398e-39
-1.13904e-27
-2.72335e-27
1.16049e-36
-8.40004e-26
-4.36624e-25
2.04155e-34
-4.18742e-25
-5.09618e-24
2.86502e-33
-1.36679e-24
-1.48749e-23
1.18682e-32
-4.76344e-23
-3.70249e-23
6.94384e-32
-8.31493e-22
-3.54891e-22
1.58935e-30
-1.32507e-33
-3.18337e-22
6.25972e-30
-5.56332e-61
5.06811e-33
9.43666e-42
-1.92226e-83
6.84025e-58
3.79368e-69
-1.21075e-105
2.81432e-82
1.25628e-91
-4.03865e-126
1.87331e-104
1.71871e-107
-7.45808e-143
8.17691e-125
2.7756e-134
-3.2204e-161
1.90151e-141
1.02359e-145
-8.36109e-160
1.01007e-159
9.17467e-170
-2.71568e-158
3.17854e-158
-5.1047e-168
-1.08337e-156
1.24067e-156
-7.2873e-167
-5.20201e-155
5.9382e-155
6.61787e-166
-3.33048e-153
3.78896e-153
3.96207e-163
-2.95193e-151
3.07524e-151
-1.26028e-161
-6.36664e-148
6.38778e-148
3.91426e-159
-2.08399e-144
2.09203e-144
6.46612e-155
-9.1175e-141
9.15836e-141
5.63572e-151
-5.68203e-137
5.71141e-137
6.76782e-147
-1.05033e-132
1.0563e-132
5.07099e-143
-1.27523e-128
1.99028e-128
1.93644e-138
1.24294e-125
2.82164e-135
8.62859e-11
-3.41739e-09
8.20858e-15
2.68024e-10
-1.77113e-08
1.12367e-14
9.63722e-11
-3.44701e-08
-6.18944e-15
-1.77453e-11
-4.95427e-08
5.71739e-15
1.03934e-09
-7.96912e-08
1.43339e-15
1.01183e-09
-1.00165e-07
1.04186e-15
1.16073e-11
-1.01258e-07
-6.05408e-15
4.50818e-10
-9.43643e-08
1.57413e-14
2.1398e-09
-7.97184e-08
-2.24324e-15
2.25594e-09
-7.78191e-08
-1.63263e-15
1.36425e-09
-6.72609e-08
-6.71502e-16
2.12416e-10
-2.43715e-08
-6.35266e-17
5.88923e-12
-2.1665e-09
-5.41471e-18
7.1019e-14
-5.38324e-11
-1.95792e-19
7.25777e-16
-7.25925e-13
-1.87026e-21
6.29312e-18
-6.73855e-15
-2.07059e-23
6.68628e-20
-7.21082e-17
-1.66044e-25
1.1507e-21
-4.788e-19
-7.76805e-28
7.26621e-24
-2.30343e-21
-3.74304e-30
3.19333e-26
-1.12742e-23
-1.33686e-32
1.01852e-28
-3.99489e-26
-3.56209e-35
2.46611e-31
-1.09255e-28
-7.38732e-38
4.45878e-34
-2.31258e-31
-1.38774e-40
5.71018e-37
-3.63779e-34
-2.25327e-43
4.64915e-40
-3.92483e-37
-1.77036e-46
1.84839e-43
-2.45815e-40
-1.43738e-49
-5.36911e-50
-5.15949e-44
-5.09534e-53
-1.42981e-47
-1.80649e-46
-8.45298e-56
2.46584e-45
-2.55251e-44
-1.28765e-53
3.14072e-42
-1.85562e-41
-1.30454e-50
8.8747e-40
-1.42468e-38
2.81159e-48
-6.57893e-37
-8.91862e-36
9.24023e-46
-1.06075e-33
-4.85496e-33
5.85984e-43
-1.38494e-30
-3.77158e-30
6.72426e-40
-8.55769e-28
-1.715e-27
4.20776e-37
-7.70145e-26
-3.17354e-25
9.85565e-35
-4.76351e-25
-3.98342e-24
1.65606e-33
-1.14636e-24
-1.12889e-23
7.17728e-33
-1.23431e-23
-1.7056e-23
2.24202e-32
-1.9492e-22
-6.2381e-23
3.06298e-31
-2.81409e-33
-5.20903e-23
1.25776e-30
-1.37603e-48
1.02348e-32
1.80632e-41
-5.7648e-83
4.60165e-48
7.12806e-57
-3.31481e-105
2.77556e-82
3.77057e-91
-1.12433e-125
4.61001e-104
2.87853e-107
-9.46065e-143
2.04088e-124
8.26854e-134
-9.50688e-160
2.41542e-141
8.09371e-145
-2.19941e-158
2.66498e-158
3.09438e-168
-6.4433e-157
7.46691e-157
-1.24782e-166
-2.32598e-155
2.62972e-155
-1.54746e-165
-1.05299e-153
1.17964e-153
1.64132e-164
-7.83253e-152
8.16005e-152
6.67265e-162
-5.67541e-149
5.69884e-149
-2.47651e-159
-1.29921e-145
1.30512e-145
4.85212e-157
-3.80083e-142
3.8207e-142
1.19651e-152
-1.48621e-138
1.49507e-138
9.82897e-149
-8.27961e-135
8.33564e-135
1.08284e-144
-1.36833e-130
1.37845e-130
7.26804e-141
-1.48711e-126
2.32324e-126
2.55077e-136
1.29139e-123
3.34025e-133
8.99979e-11
-3.50738e-09
7.06235e-15
2.77633e-10
-1.7899e-08
1.1784e-14
3.32277e-11
-3.42257e-08
-4.31956e-15
4.24136e-11
-4.95519e-08
7.93917e-15
1.08843e-09
-8.07373e-08
-3.98329e-15
5.16456e-10
-9.95928e-08
3.99591e-15
-5.09878e-10
-1.00231e-07
2.89547e-15
1.80549e-10
-9.50544e-08
1.03546e-14
2.0424e-09
-8.15803e-08
-5.53165e-15
2.22107e-09
-7.8315e-08
-9.59252e-17
1.39596e-09
-6.90774e-08
-1.14479e-15
2.3225e-10
-2.63111e-08
-2.28184e-16
6.76314e-12
-2.47796e-09
-1.85067e-17
8.17728e-14
-6.35223e-11
-5.09868e-19
8.27409e-16
-8.59938e-13
-4.99833e-21
6.72937e-18
-7.8123e-15
-4.72708e-23
5.7701e-20
-7.02579e-17
-3.21299e-25
1.07041e-21
-3.76474e-19
-1.45317e-27
6.49255e-24
-2.13871e-21
-6.77294e-30
2.62008e-26
-9.50811e-24
-2.50668e-32
7.79443e-29
-3.12187e-26
-6.7131e-35
1.75703e-31
-7.97155e-29
-1.39361e-37
2.91851e-34
-1.56053e-31
-2.35426e-40
3.33266e-37
-2.21928e-34
-3.16071e-43
2.25769e-40
-2.06289e-37
-2.47542e-46
5.88095e-44
-9.77972e-41
-1.38876e-49
-2.55115e-49
-4.17599e-45
-2.44867e-53
-2.14912e-47
-1.55949e-46
-1.30423e-55
3.65325e-45
-2.88112e-44
-2.22605e-53
3.24313e-42
-2.17949e-41
-2.09129e-50
-1.24426e-40
-1.41183e-38
-2.52436e-49
-1.07756e-36
-7.84028e-36
-8.56934e-46
-1.07312e-33
-3.7822e-33
-3.29697e-43
-1.16969e-30
-2.60358e-30
-6.72225e-41
-6.0653e-28
-1.01864e-27
4.01798e-38
-6.60316e-26
-2.2094e-25
2.90618e-35
-5.09309e-25
-2.99147e-24
7.45091e-34
-9.95502e-25
-8.58289e-24
3.90046e-33
-3.21721e-24
-1.02268e-23
9.06021e-33
-3.53121e-23
-9.40527e-24
4.5907e-32
-7.1844e-33
-5.38016e-24
1.89319e-31
-8.53606e-51
2.57533e-32
4.03085e-41
-3.07943e-83
4.59311e-48
5.54849e-61
-8.54036e-107
2.49347e-82
2.22865e-91
-3.32831e-126
9.91909e-104
9.83949e-112
-1.26865e-141
2.94212e-125
2.5158e-134
-2.6204e-158
9.2079e-141
1.57937e-143
-5.95387e-157
6.63857e-157
1.01183e-166
-1.68054e-155
1.82573e-155
-2.8955e-165
-5.85533e-154
6.31806e-154
-2.72506e-164
-3.59886e-152
3.75914e-152
8.01835e-163
-5.96571e-150
6.01273e-150
4.89172e-160
-9.9284e-147
9.98028e-147
-4.4629e-157
-2.05645e-143
2.06867e-143
1.19422e-154
-5.43624e-140
5.47276e-140
1.92767e-150
-1.92101e-136
1.93554e-136
1.4014e-146
-9.673e-133
9.75494e-133
1.38733e-142
-1.44507e-128
1.45839e-128
8.4194e-139
-1.42075e-124
2.22286e-124
2.6893e-134
1.11104e-121
3.1551e-131
9.43979e-11
-3.60176e-09
7.70161e-15
2.8876e-10
-1.80933e-08
1.17876e-14
-6.43084e-12
-3.39304e-08
-3.05172e-15
2.21865e-10
-4.97803e-08
8.37165e-15
1.11029e-09
-8.16257e-08
9.91903e-16
1.01125e-10
-9.85837e-08
-3.03566e-15
-6.73811e-10
-9.94563e-08
1.28757e-14
1.93323e-10
-9.59212e-08
2.00692e-14
2.01133e-09
-8.33983e-08
-1.21622e-14
2.18812e-09
-7.87674e-08
-6.91311e-16
1.42292e-09
-7.09171e-08
-1.45852e-15
2.53665e-10
-2.84782e-08
-4.34998e-16
7.79552e-12
-2.85615e-09
-4.00716e-17
9.45021e-14
-7.58275e-11
-1.01413e-18
9.46788e-16
-1.03141e-12
-1.02222e-20
7.34878e-18
-9.22755e-15
-8.61478e-23
5.27311e-20
-7.26608e-17
-5.06908e-25
9.84291e-22
-3.19331e-19
-1.95166e-27
5.63269e-24
-2.08287e-21
-1.01025e-29
2.11763e-26
-8.42169e-24
-3.18144e-32
5.88954e-29
-2.56191e-26
-7.91552e-35
1.22843e-31
-6.05369e-29
-1.56482e-37
1.8478e-34
-1.0797e-31
-2.46066e-40
1.82952e-37
-1.35399e-34
-2.92268e-43
9.63614e-41
-1.03144e-37
-2.03133e-46
4.86428e-45
-3.10759e-41
-8.10171e-50
-3.6655e-49
-1.35357e-47
-2.6714e-54
-7.09738e-47
-8.22565e-47
-1.5161e-55
4.97771e-45
-3.36488e-44
-3.46464e-53
1.89591e-42
-2.36848e-41
-2.97366e-50
-7.92466e-40
-1.33229e-38
-3.26702e-48
-1.35837e-36
-6.48178e-36
-2.19639e-45
-9.99188e-34
-2.78374e-33
-8.77291e-43
-9.08595e-31
-1.6964e-30
-4.28045e-40
-4.06493e-28
-5.64273e-28
-1.10837e-37
-5.25678e-26
-1.47422e-25
-1.04237e-35
-4.79123e-25
-2.16001e-24
1.25237e-34
-1.0477e-24
-6.33848e-24
1.653e-33
-1.32776e-24
-6.97807e-24
4.15435e-33
-3.98671e-24
-2.7513e-24
6.22559e-33
-2.35837e-32
-1.26618e-25
1.71779e-32
-1.67737e-48
8.30645e-32
1.12904e-40
-2.96165e-83
8.85274e-48
2.31792e-59
-2.36457e-99
2.46858e-82
8.50788e-91
-1.67699e-127
7.44917e-100
1.616e-107
-4.49537e-142
1.68179e-124
1.27613e-135
-5.94057e-157
3.18107e-140
1.61694e-143
-1.23472e-155
1.3711e-155
2.65536e-165
-3.15697e-154
3.48755e-154
-4.95051e-164
-1.26867e-152
1.37568e-152
-2.26384e-163
-7.512e-151
7.77045e-151
2.48866e-161
-9.0535e-148
9.10705e-148
8.92799e-158
-1.38797e-144
1.39717e-144
-5.8829e-155
-2.62122e-141
2.64073e-141
2.99614e-152
-6.31822e-138
6.3708e-138
2.68654e-148
-2.03604e-134
2.0549e-134
1.6747e-144
-9.35064e-131
9.4467e-131
1.48266e-140
-1.27419e-126
1.28836e-126
8.23224e-137
-1.14314e-122
1.79182e-122
2.36718e-132
8.12032e-120
2.49571e-129
9.93824e-11
-3.70114e-09
6.42261e-15
2.99036e-10
-1.8293e-08
1.09987e-14
-1.04167e-11
-3.3621e-08
6.08133e-16
5.06543e-10
-5.02972e-08
1.0489e-14
1.14431e-09
-8.22635e-08
-6.51907e-15
-7.75991e-11
-9.73618e-08
-1.37894e-15
-4.33168e-10
-9.91006e-08
1.87431e-14
4.65679e-10
-9.68197e-08
2.42528e-14
2.05275e-09
-8.49854e-08
-6.08115e-15
2.16212e-09
-7.91079e-08
2.52575e-15
1.44528e-09
-7.27345e-08
-1.96813e-15
2.76659e-10
-3.08775e-08
-6.77852e-16
9.01956e-12
-3.31532e-09
-6.33879e-17
1.09727e-13
-9.15934e-11
-1.63345e-18
1.08844e-15
-1.25402e-12
-1.66813e-20
8.16068e-18
-1.10943e-14
-1.32519e-22
6.15356e-20
-7.80496e-17
-6.98388e-25
8.64184e-22
-3.57133e-19
-2.59116e-27
4.88567e-24
-2.13317e-21
-1.27582e-29
1.7366e-26
-7.85257e-24
-3.82867e-32
4.50951e-29
-2.19632e-26
-8.95154e-35
8.62027e-32
-4.73677e-29
-1.64294e-37
1.15192e-34
-7.53889e-32
-2.32652e-40
9.50046e-38
-8.04588e-35
-2.38148e-43
3.4277e-41
-4.62171e-38
-1.35166e-46
-1.31939e-50
-4.76243e-42
-3.21577e-50
-5.95678e-50
-1.28875e-47
-1.95586e-56
6.2308e-48
-8.62072e-47
-1.11919e-55
6.15158e-45
-3.9714e-44
-5.09485e-53
-1.79321e-43
-2.3498e-41
-3.75177e-50
-1.6221e-39
-1.16997e-38
-5.67453e-48
-1.45608e-36
-5.02644e-36
-2.95077e-45
-8.55701e-34
-1.92897e-33
-1.08945e-42
-6.61426e-31
-1.0361e-30
-5.21893e-40
-2.54951e-28
-2.87412e-28
-1.35534e-37
-4.0029e-26
-9.35438e-26
-2.7928e-35
-3.98918e-25
-1.51291e-24
-2.37979e-34
-9.36285e-25
-4.57779e-24
1.70927e-34
-8.54283e-25
-4.97354e-24
1.65268e-33
-2.24113e-25
-1.767e-24
1.68804e-33
-9.0178e-32
-3.64532e-26
4.18451e-34
-2.43132e-48
3.02973e-31
3.59966e-40
-2.72451e-85
1.41936e-47
1.52635e-59
-6.66793e-101
2.46587e-82
3.01229e-93
-2.3745e-125
4.57718e-100
2.47316e-109
-4.25921e-140
4.66605e-124
1.79917e-133
-8.15263e-156
5.05022e-139
5.24676e-143
-1.51221e-154
1.73591e-154
4.06994e-164
-3.84929e-153
4.3653e-153
-4.94677e-163
-1.42129e-151
1.52576e-151
4.26448e-163
-9.63717e-149
9.70185e-149
4.41198e-159
-1.13309e-145
1.14136e-145
1.34299e-155