/*--------------------------------*- C++ -*----------------------------------*\
| =========                 |                                                 |
| \\      /  F ield         | OpenFOAM: The Open Source CFD Toolbox           |
|  \\    /   O peration     | Version:  v2012                                 |
|   \\  /    A nd           | Website:  www.openfoam.com                      |
|    \\/     M anipulation  |                                                 |
\*---------------------------------------------------------------------------*/
FoamFile
{
    version     2.0;
    format      ascii;
    class       volScalarField;
    location    "0.15";
    object      alpha.water;
}
// * * * * * * * * * * * * * * * * * * * * * * * * * * * * * * * * * * * * * //

dimensions      [0 0 0 0 0 0 0];


internalField   nonuniform List<scalar> 
20000
(
1.00002
0.999999
1
0.999996
0.999997
0.999995
0.999998
0.999996
1
0.942866
0.585345
0.131144
0.00692662
0.000111465
1.46815e-06
8.02379e-08
4.38141e-09
3.74047e-11
9.67692e-15
1.68683e-18
4.70059e-21
1.09641e-23
2.10209e-26
3.22814e-29
3.82372e-32
3.30517e-35
1.1152e-37
9.89467e-38
2.17849e-37
5.78257e-35
6.56929e-35
4.26059e-32
1.06469e-28
9.64195e-26
2.99795e-19
3.31972e-17
3.12172e-16
2.89779e-16
1.75539e-11
3.31652e-09
3.00242e-08
-2.50285e-78
7.03495e-69
3.2608e-85
3.90251e-136
1.13644e-182
3.92094e-192
1.45119e-189
6.82186e-187
3.98971e-184
2.8788e-181
2.56364e-178
2.83507e-175
3.93941e-172
6.99447e-169
1.62252e-165
5.07138e-162
2.24101e-158
1.53415e-154
2.056e-150
1.00002
1
1
0.999997
0.999996
0.999995
0.999998
0.999993
1
0.951665
0.611418
0.144565
0.0080441
0.000131819
1.46948e-06
4.96234e-08
2.55364e-09
2.36203e-11
4.76219e-15
1.27235e-18
3.62883e-21
8.59809e-24
1.66283e-26
2.55705e-29
3.00694e-32
2.54846e-35
7.21837e-38
5.69166e-38
1.85927e-37
5.8864e-35
2.74035e-34
4.08808e-32
9.08456e-29
7.51093e-26
2.06107e-19
2.31445e-17
2.50515e-16
2.51173e-16
1.01145e-12
2.62342e-10
4.12408e-09
5.4381e-28
2.12391e-68
3.71308e-85
8.2188e-149
1.5999e-173
3.52447e-175
4.53798e-173
7.35578e-171
1.47354e-168
3.62494e-166
1.09673e-163
4.10674e-161
1.92342e-158
1.14272e-155
8.76476e-153
8.88151e-150
1.21893e-146
3.76465e-143
3.32364e-139
1.00002
1
1
0.999997
0.999997
0.999995
0.999997
0.999991
1
0.956018
0.625846
0.152597
0.00874579
0.000144418
1.53562e-06
3.97286e-08
1.98037e-09
1.92441e-11
4.05041e-15
1.07313e-18
3.09788e-21
7.40598e-24
1.43883e-26
2.20947e-29
2.57245e-32
2.12822e-35
4.74116e-38
3.53914e-38
1.7798e-37
5.72697e-35
2.83125e-33
5.05735e-32
9.48428e-29
7.16244e-26
1.70982e-19
1.87034e-17
2.1626e-16
4.87636e-16
5.83509e-13
4.51566e-11
3.27542e-10
1.08839e-27
9.48571e-66
1.09598e-84
5.61216e-133
3.06233e-157
1.30667e-169
9.97088e-168
9.62064e-166
1.15343e-163
1.70942e-161
3.13791e-159
7.17294e-157
2.05768e-154
7.47705e-152
3.48013e-149
2.06857e-146
2.40345e-146
2.68871e-138
1.44506e-134
1.00001
1
1
0.999997
0.999997
0.999995
0.999997
0.999989
1
0.960739
0.642342
0.162217
0.00962868
0.000160921
1.62754e-06
3.13514e-08
1.4708e-09
1.49083e-11
2.74665e-15
8.94275e-19
2.61182e-21
6.28536e-24
1.22155e-26
1.86111e-29
2.12441e-32
1.68895e-35
2.88569e-38
2.00322e-38
1.70561e-37
5.43614e-35
3.48673e-33
6.2904e-32
1.02652e-28
6.92649e-26
1.36612e-19
1.55424e-17
1.81531e-16
8.14101e-16
2.47656e-13
1.7127e-11
1.08468e-10
1.34109e-26
2.44266e-65
4.16183e-84
-7.70179e-177
6.11422e-156
1.27236e-165
6.8379e-164
4.60585e-162
3.84436e-160
3.96935e-158
5.0875e-156
8.13277e-154
1.62926e-151
4.10656e-149
1.29371e-146
1.08294e-145
-2.46222e-142
1.27529e-134
4.93814e-131
1.00001
1
1
0.999996
0.999997
0.999994
0.999996
0.999988
1
0.965017
0.658535
0.172207
0.0105941
0.000179723
1.76458e-06
2.56539e-08
1.1152e-09
1.15646e-11
1.88642e-15
7.04806e-19
2.04986e-21
4.92715e-24
9.52609e-27
1.4309e-29
1.5858e-32
1.19034e-35
1.6075e-38
1.02129e-38
1.64055e-37
4.95895e-35
2.49554e-33
7.91247e-32
1.13723e-28
6.7935e-26
1.07351e-19
1.3053e-17
1.52962e-16
7.01861e-16
9.98072e-14
5.37583e-12
2.97434e-11
2.20995e-41
6.47412e-53
8.228e-74
1.91182e-99
6.12182e-155
1.55444e-162
6.15736e-161
3.04725e-159
1.87145e-157
1.42912e-155
1.36442e-153
1.6345e-151
2.45653e-149
4.60218e-147
1.03402e-145
1.25324e-144
-3.60855e-139
1.46677e-131
4.43709e-128
1.00001
1
1
0.999996
0.999997
0.999994
0.999995
0.999986
1
0.969082
0.675144
0.183062
0.0117025
0.000202292
1.95e-06
2.15944e-08
8.48588e-10
8.7598e-12
1.10535e-15
-9.09067e-19
-1.01329e-20
-3.21035e-23
-7.27972e-26
-1.2807e-28
-1.73633e-31
-1.73834e-34
-1.12296e-37
4.87318e-39
1.5625e-37
4.26831e-35
1.10177e-33
9.99359e-32
1.25324e-28
-2.78339e-25
8.16719e-20
1.07988e-17
1.28196e-16
5.81546e-16
3.8504e-14
1.73093e-12
8.56642e-12
4.53625e-26
1.81929e-52
1.3029e-91
5.33249e-101
6.36834e-154
4.2151e-160
1.29415e-158
5.01579e-157
2.44992e-155
1.5161e-153
1.19334e-151
1.19086e-149
1.49358e-147
9.92018e-146
3.26092e-145
9.76239e-142
-2.19068e-136
7.35235e-129
1.82227e-125
1.00001
1
1.00001
0.999995
0.999998
0.999994
0.999995
0.999985
1
0.972944
0.692234
0.194937
0.012988
0.000229726
2.19733e-06
1.95778e-08
6.50523e-10
6.43775e-12
3.94783e-16
-8.19288e-19
-7.73817e-21
-2.44978e-23
-5.57431e-26
-9.78106e-29
-1.30593e-31
-1.25915e-34
-7.60544e-38
2.36978e-39
1.41908e-37
3.32747e-35
1.72234e-34
1.25289e-31
1.35804e-28
-1.96816e-25
5.98576e-20
8.79633e-18
1.06917e-16
4.59136e-16
1.36746e-14
5.22587e-13
2.37347e-12
7.27981e-26
3.03169e-52
2.06872e-75
4.00745e-98
2.52121e-158
4.88387e-158
1.33601e-156
4.73368e-155
2.15607e-153
1.25225e-151
9.16684e-150
8.34721e-148
7.8662e-146
1.98253e-145
7.86813e-143
4.69868e-139
-7.49048e-134
2.1453e-126
4.49491e-123
1.00001
1
1.00001
0.999995
0.999998
0.999993
0.999994
0.999982
1
0.976655
0.709991
0.208109
0.0145057
0.000263676
2.5231e-06
1.89754e-08
5.01136e-10
4.51891e-12
1.02748e-16
-6.71778e-19
-5.76169e-21
-1.82007e-23
-4.13458e-26
-7.17121e-29
-9.307e-32
-8.47317e-35
-4.54107e-38
1.4934e-39
1.156e-37
2.20002e-35
1.45393e-34
1.52478e-31
1.42001e-28
-1.49592e-25
4.18792e-20
7.00653e-18
8.84862e-17
3.55369e-16
4.5775e-15
1.47384e-13
6.31062e-13
1.30644e-25
1.00845e-50
1.93592e-75
4.12078e-118
8.29321e-118
1.14988e-145
1.18968e-154
3.83992e-153
1.56913e-151
8.0216e-150
5.05991e-148
3.77222e-146
1.56151e-145
7.66138e-144
2.76741e-140
1.43622e-136
-1.70444e-131
4.26772e-124
7.72921e-121
1.00001
1.00001
1.00001
0.999995
0.999999
0.999993
0.999993
0.999979
1
0.980242
0.72856
0.222869
0.0163212
0.000306243
2.95011e-06
1.9597e-08
3.92228e-10
2.97512e-12
7.89758e-17
-5.64583e-19
-4.11796e-21
-1.27894e-23
-2.86929e-26
-4.85868e-29
-6.02662e-32
-5.04116e-35
-2.20535e-38
1.29063e-39
9.26466e-38
1.09404e-35
1.85688e-34
1.76974e-31
1.4277e-28
-1.09811e-25
2.77341e-20
5.42278e-18
7.23558e-17
2.72495e-16
1.52074e-15
3.71946e-14
1.54356e-13
2.34366e-25
2.91867e-72
3.22699e-75
2.02773e-97
6.81625e-118
1.30279e-134
5.74779e-153
1.56518e-151
5.41396e-150
2.34092e-148
1.23505e-146
1.33299e-145
1.05753e-144
2.06404e-141
6.78914e-138
3.10654e-134
-2.84193e-129
6.33642e-122
1.00853e-118
1.00001
1.00001
1.00001
0.999995
0.999999
0.999993
0.99999
0.999976
1
0.983683
0.747984
0.2395
0.018514
0.000360168
3.50895e-06
2.16589e-08
3.12932e-10
1.7663e-12
6.0375e-17
-4.78874e-19
-2.86907e-21
-8.58577e-24
-1.8741e-26
-3.0553e-29
-3.55724e-32
-2.64698e-35
-8.06605e-39
1.20298e-39
6.55567e-38
3.02317e-36
2.31115e-34
1.94305e-31
1.3644e-28
-7.79792e-26
1.72326e-20
4.04953e-18
5.79287e-17
2.08178e-16
5.82924e-16
7.98791e-15
3.26735e-14
4.49503e-25
2.12854e-40
8.76537e-75
4.98373e-97
1.70333e-117
1.46065e-134
1.51899e-151
3.68333e-150
1.14863e-148
4.48482e-147
1.20874e-145
3.36154e-145
1.89713e-142
4.23151e-139
1.24431e-135
5.09e-132
-3.6875e-127
7.4271e-120
1.05228e-116
1.00001
1.00001
1.00001
0.999997
0.999999
0.999993
0.999988
0.999974
1
0.986909
0.768176
0.258248
0.0211773
0.000429036
4.24231e-06
2.53564e-08
2.55382e-10
8.53161e-13
4.6847e-17
-5.06417e-19
-2.48183e-21
-6.74211e-24
-1.36841e-26
-2.06921e-29
-2.17775e-32
-1.36283e-35
-2.28859e-39
1.02939e-39
3.65151e-38
3.26315e-37
2.76875e-34
2.00899e-31
1.2358e-28
-7.14078e-26
9.935e-21
2.90073e-18
4.48292e-17
1.59119e-16
2.97973e-16
1.39323e-15
5.37776e-15
1.04333e-24
-1.69393e-58
4.16404e-75
0
4.59858e-118
1.79426e-133
3.78863e-150
9.01769e-149
2.7064e-147
8.97839e-146
2.3436e-145
2.11883e-143
3.33403e-140
6.7325e-137
1.78931e-133
6.61624e-130
-3.87793e-125
7.13787e-118
9.09439e-115
1
1.00001
1
0.999998
0.999999
0.999994
0.999986
0.99997
1
0.989825
0.788901
0.27929
0.0244194
0.00051763
5.21155e-06
3.10231e-08
2.23218e-10
2.21241e-13
3.77349e-17
-4.26412e-19
-1.75142e-21
-4.49184e-24
-8.61557e-27
-1.20657e-29
-1.12251e-32
-5.4704e-36
-1.60709e-40
7.24964e-40
1.16477e-38
4.11813e-37
3.1122e-34
1.95584e-31
1.05737e-28
-4.74536e-26
5.19977e-21
1.98983e-18
3.33253e-17
1.21036e-16
1.91438e-16
2.33343e-16
5.5456e-16
3.13176e-24
2.1611e-40
3.72203e-75
2.9841e-91
5.0533e-134
4.77951e-134
7.84009e-149
1.70595e-147
4.53036e-146
1.90261e-145
3.00543e-144
3.21633e-141
4.68608e-138
8.62975e-135
2.09179e-131
7.05515e-128
-3.40425e-123
5.7812e-116
6.6791e-113
1
1.00001
1
0.999999
1
0.999993
0.999984
0.999967
1
0.992351
0.809825
0.302733
0.0283668
0.000632426
6.50538e-06
3.92067e-08
2.12362e-10
1.01637e-14
-2.4498e-17
-3.7625e-19
-1.29912e-21
-3.08326e-24
-5.47342e-27
-6.90832e-30
-5.40941e-33
-1.72388e-36
8.69871e-41
2.49137e-40
9.09513e-40
4.97047e-37
3.24566e-34
1.77909e-31
8.51442e-29
-3.06146e-26
2.35618e-21
1.30601e-18
2.38899e-17
8.91736e-17
1.35101e-16
8.61583e-17
1.61098e-17
1.10063e-23
2.87095e-40
4.65549e-93
1.17512e-93
2.74496e-117
5.0315e-132
9.88985e-148
1.91378e-146
1.65627e-145
6.95694e-145
3.70811e-142
4.04783e-139
5.41921e-136
9.17006e-133
2.04256e-129
6.33134e-126
-2.55144e-121
4.02994e-114
4.25095e-111
0.999999
1.00001
1
0.999999
1
0.999994
0.999982
0.999963
1
0.994449
0.830565
0.328616
0.0331688
0.000782269
8.25159e-06
5.08044e-08
2.19323e-10
9.82649e-15
-6.76909e-17
-3.5763e-19
-1.03478e-21
-2.22569e-24
-3.56875e-27
-3.91374e-30
-2.37689e-33
-2.68599e-37
8.40167e-41
2.11862e-40
1.00832e-39
5.67823e-37
3.18089e-34
1.52303e-31
6.47309e-29
-1.87659e-26
8.39203e-22
8.11461e-19
1.66359e-17
6.46348e-17
9.7858e-17
6.01453e-17
5.88084e-18
3.93828e-23
5.53674e-40
1.75532e-56
8.71443e-93
4.77278e-117
5.25392e-146
1.04516e-146
1.47376e-145
3.53652e-145
5.03411e-143
4.22127e-140
4.26536e-137
5.28003e-134
8.262e-131
1.70191e-127
4.8793e-124
-1.66216e-119
2.45859e-112
2.38169e-109
0.999994
1.00001
1
0.999999
1
0.999993
0.99998
0.999959
1
0.996131
0.850759
0.356932
0.0390035
0.000979276
1.0633e-05
6.71284e-08
2.50247e-10
9.74981e-15
-1.0374e-16
-3.59132e-19
-8.82367e-22
-1.68999e-24
-2.38046e-27
-2.15596e-30
-8.59986e-34
1.38489e-41
8.04111e-41
1.39831e-40
1.18608e-39
6.16564e-37
2.97678e-34
1.25443e-31
4.74771e-29
-1.10181e-26
1.90908e-22
4.71078e-19
1.11988e-17
4.65375e-17
7.08524e-17
4.23142e-17
2.998e-18
1.34608e-22
1.73746e-54
1.43853e-56
6.91767e-92
2.85487e-116
1.60125e-131
1.23648e-145
2.99943e-145
8.1623e-144
5.20021e-141
4.08688e-138
3.83905e-135
4.4182e-132
6.42777e-129
1.23121e-125
3.28263e-122
-9.55056e-118
1.33087e-110
1.18989e-107
0.999992
1.00001
1
0.999999
1
0.999993
0.999978
0.999955
1
0.997445
0.870112
0.387648
0.0460837
0.00123999
1.39079e-05
9.00582e-08
3.08749e-10
3.68701e-14
-1.36709e-16
-3.77537e-19
-8.09964e-22
-1.36339e-24
-1.63421e-27
-1.13086e-30
-1.76786e-34
1.29581e-41
7.53004e-41
9.5033e-41
1.3861e-39
6.42432e-37
2.72445e-34
1.01853e-31
3.46506e-29
-6.78172e-27
1.45211e-23
2.52506e-19
7.18888e-18
3.30219e-17
5.16899e-17
3.17e-17
1.80446e-18
4.23177e-22
1.24885e-37
1.25648e-56
8.91529e-93
1.85761e-115
3.21673e-131
3.07768e-145
1.81263e-144
7.43533e-142
4.65904e-139
3.41997e-136
3.00054e-133
3.22556e-130
4.38366e-127
7.84488e-124
1.95433e-120
-4.89935e-116
6.4657e-109
5.3583e-106
0.99999
1.00001
1
0.999999
1
0.999993
0.999976
0.999948
0.999997
0.998453
0.888424
0.420709
0.0546614
0.00158673
1.84343e-05
1.22204e-07
4.01131e-10
1.00675e-13
-1.70091e-16
-3.93422e-19
-7.44365e-22
-1.0913e-24
-1.07207e-27
-4.87857e-31
-1.73089e-40
1.03659e-41
6.63576e-41
6.84669e-41
1.54394e-39
6.40798e-37
2.39468e-34
8.02536e-32
2.46931e-29
-3.79025e-27
4.54991e-24
1.23936e-19
4.34562e-18
2.28555e-17
3.7654e-17
2.49079e-17
1.27196e-18
1.20342e-21
-2.42613e-58
1.0829e-56
1.09191e-93
4.83792e-131
4.87051e-131
1.86713e-144
1.23033e-142
6.20075e-140
3.64571e-137
2.50944e-134
2.06479e-131
2.08187e-128
2.65398e-125
4.45574e-122
1.04149e-118
-2.26707e-114
2.84669e-107
2.19495e-104
0.999991
1.00001
1
0.999998
1
0.999992
0.999972
0.999941
0.999983
0.999196
0.905585
0.456039
0.0650263
0.00204902
2.46941e-05
1.67012e-07
5.36452e-10
1.21115e-13
-2.02239e-16
-4.04538e-19
-6.70884e-22
-8.37658e-25
-6.31923e-28
-1.20347e-31
6.39742e-43
8.39571e-42
5.35505e-41
5.71206e-41
1.59366e-39
5.82e-37
1.9343e-34
5.8239e-32
1.6233e-29
-1.59137e-27
9.32441e-25
5.57857e-20
2.43202e-18
1.5209e-17
2.71873e-17
2.03729e-17
1.07812e-18
3.15862e-21
1.78845e-37
9.3398e-76
9.12979e-93
1.27099e-114
3.73849e-130
1.25597e-142
9.58525e-141
4.56083e-138
2.52304e-135
1.63432e-132
1.26568e-129
1.2013e-126
1.44175e-123
2.27917e-120
5.01678e-117
-9.54601e-113
1.1453e-105
8.24357e-103
0.999989
1.00001
1
0.999998
1
0.999992
0.999968
0.999933
0.999968
0.999684
0.921528
0.493486
0.0774912
0.00266458
3.33062e-05
2.28697e-07
7.23639e-10
1.59195e-13
-2.33885e-16
-4.09549e-19
-5.87276e-22
-6.08331e-25
-3.12718e-28
-5.76833e-39
5.176e-43
6.34741e-42
3.91069e-41
4.34561e-41
1.56795e-39
5.05115e-37
1.49189e-34
4.03447e-32
1.01838e-29
-2.71411e-28
2.94665e-25
2.37227e-20
1.23922e-18
9.52031e-18
1.9294e-17
1.69736e-17
1.05749e-18
8.0733e-21
2.54312e-37
1.69542e-56
8.90332e-93
9.44302e-130
9.43557e-130
9.78884e-141
6.66767e-139
2.98969e-136
1.56099e-133
9.54575e-131
6.98035e-128
6.25689e-125
7.09259e-122
1.05918e-118
2.20266e-115
-3.68558e-111
4.2411e-104
2.85801e-101
0.999988
1.00001
1
0.999997
1
0.999992
0.999965
0.999924
0.999951
0.999902
0.936178
0.532747
0.0923595
0.0034796
4.50184e-05
3.11843e-07
9.68046e-10
2.7514e-13
-2.65059e-16
-4.14636e-19
-5.15393e-22
-4.25895e-25
-1.08836e-28
6.13889e-44
4.6447e-43
4.78213e-42
2.63568e-41
3.13175e-41
1.5379e-39
4.39486e-37
1.15608e-34
2.81049e-32
6.42613e-30
2.62897e-28
1.54882e-25
1.02679e-20
5.72902e-19
5.41609e-18
1.33567e-17
1.39604e-17
9.71101e-19
1.73379e-20
6.67436e-37
7.8354e-77
8.75682e-93
6.94071e-114
1.07299e-130
6.80959e-139
4.16243e-137
1.76341e-134
8.7145e-132
5.04526e-129
3.49365e-126
2.96601e-123
3.18493e-120
4.50613e-117
8.87938e-114
-1.31337e-109
1.45462e-102
9.20164e-100
0.999985
1.00001
0.999999
0.999997
1
0.999992
0.999962
0.999914
0.999932
0.99996
0.949379
0.573304
0.109878
0.00454797
6.06678e-05
4.20533e-07
1.26343e-09
4.55655e-13
-3.07833e-16
-4.33517e-19
-4.62188e-22
-2.84167e-25
-9.50083e-36
5.39049e-44
4.05847e-43
3.69884e-42
1.72094e-41
2.2726e-41
1.52811e-39
3.91789e-37
9.26718e-35
2.03987e-32
4.24819e-30
3.12422e-28
8.5877e-26
4.86302e-21
2.5205e-19
2.69926e-18
8.70644e-18
1.11029e-17
1.31727e-18
2.51925e-20
6.90607e-55
2.11062e-57
1.70628e-94
1.20078e-113
3.08023e-129
4.25111e-137
2.35187e-135
9.43717e-133
4.42529e-130
2.43181e-127
1.59876e-124
1.28892e-121
1.31456e-118
1.76672e-115
3.30746e-112
-4.34492e-108
4.64657e-101
2.76569e-98
0.999983
1.00001
1
0.999997
0.999999
0.999992
0.99996
0.999903
0.99991
0.99996
0.960908
0.614425
0.130192
0.00592945
8.11167e-05
5.57033e-07
1.58554e-09
6.83049e-13
-3.63625e-16
-4.69396e-19
-4.24806e-22
-1.6786e-25
1.51458e-42
5.00455e-44
3.52832e-43
3.03586e-42
1.19359e-41
1.78251e-41
1.48381e-39
3.44411e-37
7.40995e-35
1.49228e-32
2.85693e-30
3.89294e-28
4.94467e-26
2.42003e-21
1.16327e-19
1.22675e-18
4.71934e-18
8.02901e-18
4.31471e-18
4.90972e-20
6.61317e-36
1.82583e-57
8.46499e-93
2.37646e-113
7.26569e-128
2.40197e-135
1.21177e-133
4.61571e-131
2.0585e-128
1.07622e-125
6.73345e-123
5.16728e-120
5.01743e-117
6.42093e-114
1.14477e-110
-1.34126e-106
1.38916e-99
7.79656e-97
0.999985
1.00001
0.999999
0.999998
0.999998
0.999991
0.999958
0.99989
0.999886
0.99996
0.970591
0.655279
0.153326
0.00768743
0.000107183
7.20285e-07
1.88887e-09
9.06629e-13
-4.37755e-16
-5.25345e-19
-3.97283e-22
-6.67466e-26
1.43974e-42
4.59535e-44
3.01087e-43
2.64785e-42
9.74666e-42
1.55185e-41
1.32483e-39
2.79464e-37
5.49558e-35
1.01722e-32
1.79818e-30
3.05497e-28
2.69499e-26
1.12372e-21
5.54091e-20
5.62484e-19
2.02345e-18
3.42674e-18
3.53188e-18
6.30671e-20
7.17297e-36
1.56145e-57
8.15716e-93
4.38035e-113
3.11548e-128
1.23755e-133
5.73072e-132
2.0764e-129
8.8258e-127
4.39941e-124
2.62514e-121
1.92178e-118
1.78049e-115
2.1744e-112
3.70005e-109
-3.88108e-105
3.90394e-98
2.07e-95
0.999984
1.00001
0.999999
0.999999
0.999998
0.999991
0.999956
0.999877
0.999859
0.999959
0.978461
0.695099
0.179197
0.00988678
0.000139577
9.04471e-07
2.11242e-09
1.04979e-12
-5.37863e-16
-6.00633e-19
-3.68107e-22
3.81597e-42
1.40368e-42
4.24582e-44
2.52394e-43
2.40131e-42
9.292e-42
1.45283e-41
1.08657e-39
2.07616e-37
3.72596e-35
6.32842e-33
1.0314e-30
1.62144e-28
1.10882e-26
4.72587e-22
2.38853e-20
2.53201e-19
9.31546e-19
1.55555e-18
1.57624e-18
5.25893e-20
1.80999e-35
5.23285e-55
8.26841e-93
4.88567e-111
3.56815e-128
5.85241e-132
2.50201e-130
8.63969e-128
3.50685e-125
1.66996e-122
9.52242e-120
6.66344e-117
5.90235e-114
6.89261e-111
1.12171e-107
-1.05697e-103
1.03531e-96
5.19543e-94
0.999987
1.00001
1
0.999999
0.999997
0.999991
0.999952
0.999862
0.99983
0.999958
0.984706
0.73333
0.207665
0.0125919
0.000178835
1.09797e-06
2.17688e-09
1.04362e-12
-6.64621e-16
-7.01444e-19
-3.18858e-22
1.78291e-40
1.36768e-42
3.94208e-44
2.08573e-43
2.1985e-42
9.54771e-42
1.40546e-41
8.48299e-40
1.47209e-37
2.42035e-35
3.7855e-33
5.70638e-31
8.32551e-29
4.97692e-27
1.95851e-22
9.72236e-21
1.04185e-19
3.9528e-19
6.81634e-19
7.02523e-19
3.53421e-20
1.76499e-47
-4.54769e-74
7.128e-93
5.09391e-128
5.28921e-128
2.555e-130
1.01363e-128
3.34165e-126
1.29761e-123
5.91387e-121
3.22849e-118
2.16349e-115
1.83562e-112
2.05358e-109
3.20219e-106
-2.71902e-102
2.59999e-95
1.23681e-92
0.999992
1.00001
1
0.999998
0.999997
0.999991
0.999948
0.999844
0.999797
0.999954
0.98959
0.769662
0.238573
0.0158634
0.000225147
1.28043e-06
2.07085e-09
7.39331e-13
-8.1982e-16
-8.24399e-19
-2.24882e-22
1.70061e-40
1.33646e-42
3.68239e-44
1.71017e-43
1.96916e-42
1.00955e-41
1.37062e-41
6.21004e-40
9.78939e-38
1.47785e-35
2.13288e-33
2.9797e-31
4.04224e-29
2.87842e-27
7.70209e-23
3.77054e-21
4.07215e-20
1.58072e-19
2.80513e-19
2.94926e-19
1.98099e-20
2.42276e-35
1.40016e-55
7.36671e-93
8.69199e-110
1.88442e-126
1.03502e-128
3.82775e-127
1.20676e-124
4.49055e-122
1.96204e-119
1.02723e-116
6.60354e-114
5.37597e-111
5.77181e-108
8.63859e-105
-6.62849e-101
6.20253e-94
2.80107e-91
0.999993
1.00001
0.999999
0.999998
0.999997
0.999989
0.999945
0.999826
0.99976
0.999929
0.993351
0.803921
0.271731
0.0197497
0.000278059
1.42513e-06
1.71613e-09
1.10168e-13
-1.00375e-15
-8.75851e-19
-4.83287e-23
1.66497e-40
1.31083e-42
3.45684e-44
1.4057e-43
1.65841e-42
1.02316e-41
1.28939e-41
4.26285e-40
6.10174e-38
8.47613e-36
1.13117e-33
1.46745e-31
1.85456e-29
1.75548e-27
2.88441e-23
1.37827e-21
1.49058e-20
5.90037e-20
1.07591e-19
1.15366e-19
9.57619e-21
9.79104e-36
3.71929e-55
7.65378e-93
1.79759e-109
1.88761e-126
3.9142e-127
1.3529e-125
4.08498e-123
1.45899e-120
6.1212e-118
3.0784e-115
1.90146e-112
1.48773e-109
1.53536e-106
2.20923e-103
-1.5358e-99
1.40957e-92
6.05133e-90
0.999996
1.00001
0.999998
0.999998
0.999996
0.999989
0.999942
0.999809
0.999719
0.999856
0.996141
0.835891
0.306841
0.0242733
0.000336109
1.47308e-06
1.18672e-09
-1.27039e-13
-1.20739e-15
-8.70324e-19
6.4718e-40
1.63315e-40
1.29128e-42
3.25625e-44
1.17527e-43
1.26347e-42
9.38231e-42
1.12139e-41
2.73229e-40
3.54954e-38
4.54641e-36
5.62159e-34
6.78538e-32
8.00378e-30
7.84302e-28
1.02454e-23
4.75484e-22
5.11004e-21
2.04729e-20
3.81894e-20
4.17127e-20
4.09328e-21
4.05112e-36
7.97955e-68
8.58777e-93
8.26698e-109
3.69184e-126
5.19483e-126
4.41305e-124
1.30066e-121
4.46569e-119
1.80178e-116
8.71713e-114
5.18143e-111
3.90214e-108
3.87685e-105
5.37119e-102
-3.39083e-98
3.05932e-91
1.25009e-88
0.999997
1
0.999998
0.999998
0.999996
0.999989
0.99994
0.999793
0.999672
0.999781
0.998059
0.865212
0.343416
0.0294131
0.000396723
1.46579e-06
8.02657e-10
-3.43326e-13
-1.29228e-15
-6.76202e-19
2.33524e-38
1.61394e-40
1.27875e-42
3.072e-44
1.01286e-43
8.54178e-43
6.94205e-42
8.20727e-42
1.62201e-40
1.91684e-38
2.26799e-36
2.6032e-34
2.92889e-32
3.23037e-30
3.24102e-28
3.42545e-24
1.54051e-22
1.63667e-21
6.5819e-21
1.24675e-20
1.3827e-20
1.55493e-21
1.18703e-36
2.79808e-54
1.02573e-92
3.56696e-125
5.16696e-126
5.96001e-125
1.36835e-122
3.90787e-120
1.29161e-117
5.01868e-115
2.3392e-112
1.33992e-109
9.72681e-107
9.31678e-104
1.24462e-100
-7.15061e-97
6.35581e-90
2.4748e-87
0.999999
1
0.999998
0.999998
0.999996
0.999989
0.999939
0.999782
0.999623
0.999714
0.999211
0.891456
0.380784
0.0350939
0.000456711
1.24769e-06
4.06238e-11
-5.5122e-13
-1.26469e-15
-2.1709e-19
2.16382e-38
1.60283e-40
1.27261e-42
2.89524e-44
8.97339e-44
5.44979e-43
4.13988e-42
4.92707e-42
8.92011e-41
9.56274e-39
1.04666e-36
1.11708e-34
1.17355e-32
1.2123e-30
1.23549e-28
1.07144e-24
4.6587e-23
4.88251e-22
1.95759e-21
3.73039e-21
4.17447e-21
5.15998e-22
1.17125e-36
3.26638e-74
1.35138e-92
5.26677e-108
6.06507e-125
1.72266e-123
4.03689e-121
1.11101e-118
3.5396e-116
1.32633e-113
5.9638e-111
3.29654e-108
2.30982e-105
2.13591e-102
2.75499e-99
-1.44327e-95
1.2665e-88
4.70422e-86
1
1
0.999997
0.999998
0.999996
0.999989
0.999938
0.99977
0.999571
0.999653
0.99969
0.914332
0.418193
0.0411921
0.000513537
9.30297e-07
3.424e-11
-7.98393e-13
-9.54083e-16
1.72045e-29
2.1611e-38
1.59905e-40
1.27112e-42
2.71738e-44
8.02091e-44
3.77928e-43
2.12294e-42
3.28302e-42
4.71862e-41
4.39996e-39
4.45501e-37
4.42666e-35
4.3487e-33
4.21411e-31
4.37707e-29
3.12596e-25
1.30469e-23
1.34859e-22
5.37708e-22
1.0236e-21
1.14764e-21
1.47454e-22
7.32368e-37
1.0257e-53
1.96985e-92
1.49931e-108
1.75746e-123
4.99322e-122
1.12851e-119
2.99614e-117
9.2131e-115
3.33349e-112
1.44786e-109
7.73297e-107
5.23666e-104
4.6809e-101
5.83703e-98
-2.79329e-94
2.42499e-87
8.60062e-85
1
1
0.999997
0.999998
0.999995
0.99999
0.999938
0.999757
0.999517
0.999597
0.999806
0.933769
0.454956
0.0475605
0.000567193
5.98017e-07
2.27971e-11
-7.39909e-13
-3.88384e-16
1.77893e-29
2.19012e-38
1.6109e-40
1.28762e-42
2.5369e-44
7.02855e-44
2.96626e-43
1.05981e-42
3.7638e-42
2.55796e-41
1.89723e-39
1.75534e-37
1.61519e-35
1.48165e-33
1.34762e-31
1.4569e-29
8.53697e-26
3.36285e-24
3.4205e-23
1.35733e-22
2.57813e-22
2.88643e-22
3.69554e-23
5.33238e-37
1.87365e-53
2.82848e-92
7.63725e-121
4.41777e-122
1.36884e-120
2.99516e-118
7.6808e-116
2.28244e-113
7.98415e-111
3.35389e-108
1.73296e-105
1.13558e-102
9.82419e-100
1.18582e-96
-5.19214e-93
4.46856e-86
1.51467e-83
1.00001
1
0.999996
0.999998
0.999995
0.99999
0.999937
0.999738
0.999459
0.999541
0.999806
0.94987
0.490557
0.0540684
0.000622209
2.36688e-07
9.56892e-12
-4.48546e-13
2.06373e-21
1.8418e-29
2.25038e-38
1.64892e-40
1.31473e-42
2.36291e-44
5.79762e-44
2.44532e-43
6.19178e-43
3.86668e-42
2.51783e-41
1.37729e-39
9.56195e-38
9.01731e-36
8.65098e-34
4.66977e-32
5.26763e-30
2.2028e-26
7.96482e-25
7.90854e-24
3.12209e-23
5.93264e-23
6.64426e-23
8.48007e-24
4.38908e-37
7.86527e-53
6.15073e-92
2.23404e-107
1.39614e-120
3.59752e-119
7.56215e-117
1.8753e-114
5.3918e-112
1.82565e-109
7.42582e-107
3.71636e-104
2.3593e-101
1.97776e-98
2.31346e-95
-9.28193e-92
7.93549e-85
2.57286e-82
1.00001
1
0.999996
0.999998
0.999995
0.999991
0.999935
0.999717
0.999399
0.999478
0.999806
0.96288
0.524667
0.0606454
0.000689323
1.15083e-07
-1.57503e-10
-1.16094e-13
1.98777e-21
1.9275e-29
2.3262e-38
1.69644e-40
1.35267e-42
2.2058e-44
4.35965e-44
2.01103e-43
4.42443e-43
1.62912e-42
7.75699e-41
4.35595e-39
2.21563e-37
3.87487e-35
8.26473e-33
2.13489e-31
1.49699e-29
5.43057e-27
1.73864e-25
1.66171e-24
6.48757e-24
1.23367e-23
1.3858e-23
1.81512e-24
3.90276e-37
7.65958e-71
1.02137e-91
4.98665e-118
3.2137e-119
8.91886e-118
1.81916e-115
4.36778e-113
1.21646e-110
3.99147e-108
1.57385e-105
7.63771e-103
4.70278e-100
3.82426e-97
4.34002e-94
-1.59771e-90
1.35966e-83
4.21982e-81
1.00001
1
0.999996
0.999998
0.999994
0.999992
0.999932
0.999692
0.999335
0.999409
0.999805
0.973177
0.557093
0.0673217
0.000788362
1.0449e-07
-7.52875e-11
4.00152e-14
1.90322e-21
2.04691e-29
2.43542e-38
1.76693e-40
1.40959e-42
2.07405e-44
3.02635e-44
1.62557e-43
3.83719e-43
7.21638e-43
1.82644e-41
1.05944e-39
6.70261e-38
6.57494e-36
1.149e-32
6.77879e-31
1.95414e-29
1.29734e-27
3.51537e-26
3.17829e-25
1.21283e-24
2.29312e-24
2.57957e-24
3.51116e-25
3.55007e-37
2.31781e-53
6.65472e-92
5.37871e-108
9.09316e-118
2.12656e-116
4.17578e-114
9.71783e-112
2.62462e-109
8.35485e-107
3.19706e-104
1.5061e-101
9.00418e-99
7.11068e-96
7.83753e-93
-2.6506e-89
2.24985e-82
6.68866e-80
1.00001
0.999999
0.999996
0.999998
0.999994
0.999993
0.99993
0.999665
0.999267
0.999334
0.999802
0.981102
0.58766
0.0742585
0.000951155
8.4224e-08
8.67318e-11
4.78672e-14
1.85742e-21
2.20481e-29
2.58615e-38
1.86529e-40
1.48609e-42
1.96397e-44
2.05892e-44
1.27311e-43
3.58262e-43
5.49872e-43
1.37311e-41
9.04085e-40
6.02339e-38
2.87498e-36
9.95415e-33
6.41539e-31
1.13199e-29
3.13734e-28
6.61915e-27
5.55597e-26
2.04507e-25
3.79943e-25
4.24982e-25
5.83532e-26
3.24228e-37
-7.77933e-74
1.17692e-91
6.84903e-108
2.16751e-116
4.81772e-115
9.15643e-113
2.0677e-110
5.42151e-108
1.67609e-105
6.23095e-103
2.85246e-100
1.65755e-97
1.27251e-94
1.36366e-91
-4.24129e-88
3.59811e-81
1.02531e-78
1.00002
0.999998
0.999996
0.999998
0.999994
0.999994
0.999926
0.999635
0.999194
0.999257
0.999782
0.986955
0.616115
0.0817611
0.00122392
3.13448e-08
1.04027e-10
5.43063e-14
1.83379e-21
2.4106e-29
2.78422e-38
1.99515e-40
1.58768e-42
1.87517e-44
1.45992e-44
9.56408e-44
3.5367e-43
6.45132e-43
1.07442e-41
6.29539e-40
3.94474e-38
1.65454e-36
4.83323e-33
4.19669e-31
6.60108e-30
8.29869e-29
1.17579e-27
8.89862e-27
3.13095e-26
5.65612e-26
6.2369e-26
8.16334e-27
3.02288e-37
2.27281e-53
2.54413e-82
5.81718e-114
4.33667e-115
1.03701e-113
1.9197e-111
4.2112e-109
1.07309e-106
3.2253e-104
1.16607e-101
5.19275e-99
2.93591e-96
2.19334e-93
2.28752e-90
-6.54938e-87
5.56463e-80
1.52074e-77
1.00002
0.999998
0.999997
0.999999
0.999994
0.999994
0.999924
0.999602
0.999116
0.999176
0.99975
0.991031
0.642165
0.0902776
0.0016489
3.08622e-08
1.21936e-10
6.30523e-14
1.82701e-21
2.67815e-29
3.04293e-38
2.16554e-40
1.72045e-42
1.83562e-44
1.11021e-44
6.73102e-44
3.2103e-43
2.04068e-42
8.49713e-42
3.79658e-40
2.26102e-38
9.24368e-37
1.93001e-33
2.41716e-31
3.55986e-30
2.6589e-29
2.08069e-28
1.30401e-27
4.35751e-27
7.65494e-27
8.29422e-27
9.92641e-28
2.98483e-37
2.90814e-55
1.1247e-81
8.49967e-108
1.05665e-113
2.15494e-112
3.85121e-110
8.21519e-108
2.03654e-105
5.95706e-103
2.09662e-100
9.09145e-98
5.00617e-95
3.64302e-92
3.70135e-89
-9.76345e-86
8.32538e-79
2.18312e-76
1.00002
0.999997
0.999997
0.999999
0.999995
0.999993
0.99992
0.999563
0.999033
0.999088
0.999725
0.993643
0.665386
0.100464
0.00221448
4.48781e-08
1.46193e-10
7.36035e-14
1.87678e-21
3.02488e-29
3.37848e-38
2.38657e-40
1.89219e-42
1.83323e-44
8.7973e-45
5.12806e-44
2.10014e-43
2.35131e-42
5.34253e-42
1.72872e-40
9.69778e-39
4.72192e-37
3.41744e-34
1.04094e-31
1.78871e-30
1.05255e-29
4.38135e-29
1.78552e-28
5.32646e-28
9.26274e-28
1.00621e-27
1.10506e-28
3.04299e-37
2.50992e-55
-6.34875e-103
9.02473e-108
2.19514e-112
4.26298e-111
7.39604e-109
1.53577e-106
3.70756e-104
1.05648e-101
3.62334e-99
1.53139e-96
8.22055e-94
5.83264e-91
5.77849e-88
-1.40533e-84
1.2052e-77
3.03372e-75
1.00002
0.999997
0.999997
0.999999
0.999995
0.999993
0.999921
0.999517
0.998946
0.998993
0.999705
0.995098
0.685982
0.112671
0.00288244
6.6227e-08
1.76597e-10
8.67577e-14
1.98304e-21
3.47394e-29
3.8116e-38
2.67167e-40
2.11342e-42
1.9554e-44
6.71572e-45
3.99921e-44
1.09253e-43
1.32344e-42
3.36328e-42
6.59002e-41
3.44187e-39
1.90124e-37
2.09311e-35
3.15304e-32
7.5682e-31
4.60537e-30
1.36735e-29
2.96937e-29
5.3404e-29
7.11025e-29
5.44567e-29
1.23757e-29
3.04627e-37
1.96978e-55
2.45185e-82
9.95053e-108
4.34164e-111
8.06587e-110
1.3601e-107
2.75196e-105
6.47625e-103
1.79951e-100
6.01974e-98
2.48214e-95
1.30015e-92
9.0026e-90
8.70498e-87
-1.95306e-83
1.68815e-76
4.08067e-74
1.00002
0.999997
0.999997
0.999999
0.999996
0.999994
0.999921
0.999482
0.998854
0.998889
0.999685
0.995704
0.704681
0.126657
0.00363202
1.00014e-07
2.15402e-10
1.03093e-13
2.12946e-21
4.05644e-29
4.3703e-38
3.03887e-40
2.39788e-42
2.1287e-44
4.4605e-45
3.11631e-44
6.65154e-44
3.47692e-43
5.82573e-42
2.85799e-41
9.83625e-40
5.11336e-38
3.11962e-36
6.39724e-33
2.46281e-31
1.84952e-30
5.4452e-30
9.08895e-30
1.07666e-29
7.72236e-30
3.99077e-30
1.43559e-30
2.96914e-37
-1.31512e-75
4.71135e-82
1.08989e-107
8.21319e-110
1.46016e-108
2.39527e-106
4.7272e-104
1.08549e-101
2.94393e-99
9.61462e-97
3.87128e-94
1.98047e-91
1.33951e-88
1.26528e-85
-2.6202e-82
2.28765e-75
5.3119e-73
1.00002
0.999996
0.999997
1
0.999996
0.999995
0.999928
0.999438
0.998757
0.998776
0.99965
0.995877
0.723334
0.141053
0.00445029
1.52659e-07
2.64675e-10
1.23433e-13
2.37217e-21
4.81383e-29
5.09154e-38
3.51189e-40
2.76401e-42
2.38313e-44
2.59535e-45
2.31175e-44
5.80947e-44
7.10186e-44
4.02933e-42
4.51282e-41
2.75219e-40
1.08622e-38
4.22118e-37
8.50316e-34
6.21246e-32
6.27248e-31
2.14688e-30
3.66992e-30
4.12977e-30
1.91525e-30
5.12441e-31
1.42546e-31
2.71539e-37
5.89456e-56
5.31103e-82
1.28671e-107
1.48691e-108
2.52903e-107
4.0394e-105
7.78337e-103
1.74559e-100
4.6251e-98
1.47607e-95
5.80889e-93
2.90497e-90
1.92091e-87
1.77406e-84
-3.39218e-81
2.99824e-74
6.68913e-72
1.00003
0.999997
0.999997
1
0.999997
0.999996
0.999942
0.999425
0.998653
0.998653
0.999585
0.995906
0.741943
0.156255
0.00533099
2.35362e-07
3.27171e-10
1.48757e-13
2.76532e-21
5.80135e-29
6.02423e-38
4.12228e-40
3.23636e-42
2.75916e-44
1.49096e-45
1.39658e-44
4.30194e-44
5.14437e-44
4.74424e-42
1.02849e-40
2.15109e-40
2.18652e-39
7.87669e-38
5.51034e-35
1.20536e-32
1.79466e-31
7.77439e-31
1.5246e-30
1.83292e-30
9.69465e-31
1.46514e-31
1.89063e-32
2.23196e-37
3.87692e-67
1.28079e-81
2.01407e-107
2.2302e-107
4.16098e-106
6.52134e-104
1.22807e-101