/*--------------------------------*- C++ -*----------------------------------*\
| =========                 |                                                 |
| \\      /  F ield         | OpenFOAM: The Open Source CFD Toolbox           |
|  \\    /   O peration     | Version:  v2012                                 |
|   \\  /    A nd           | Website:  www.openfoam.com                      |
|    \\/     M anipulation  |                                                 |
\*---------------------------------------------------------------------------*/
FoamFile
{
    version     2.0;
    format      ascii;
    class       surfaceScalarField;
    location    "0.15";
    object      phi;
}
// * * * * * * * * * * * * * * * * * * * * * * * * * * * * * * * * * * * * * //

dimensions      [0 3 -1 0 0 0 0];
oriented        oriented;


internalField   nonuniform List<scalar> 
49380
(
4.74187e-11
-2.74418e-09
1.70237e-14
1.95583e-10
-1.61085e-08
1.2519e-14
4.07748e-10
-3.39412e-08
9.97238e-16
4.63475e-10
-5.0156e-08
1.01271e-15
1.03746e-09
-7.39086e-08
1.08163e-17
1.32347e-09
-9.5757e-08
5.73029e-15
1.39393e-09
-1.01352e-07
-6.20396e-15
1.79049e-09
-9.2072e-08
6.30881e-15
2.00906e-09
-7.40838e-08
1.14224e-14
1.97652e-09
-7.90228e-08
2.44245e-15
2.00103e-09
-8.88968e-08
2.60918e-15
2.04977e-09
-9.7798e-08
2.51546e-15
2.10105e-09
-1.05321e-07
2.40113e-15
2.14439e-09
-1.11428e-07
2.16263e-15
2.17125e-09
-1.16613e-07
1.88489e-15
2.17821e-09
-1.21355e-07
1.61118e-15
2.16358e-09
-1.25927e-07
1.36459e-15
2.1261e-09
-1.30423e-07
1.15909e-15
2.06461e-09
-1.3483e-07
9.7246e-16
1.97813e-09
-1.39065e-07
8.24953e-16
1.86595e-09
-1.43018e-07
7.20772e-16
1.72763e-09
-1.46577e-07
6.20162e-16
1.56318e-09
-1.49597e-07
5.29535e-16
1.37294e-09
-1.51983e-07
4.42104e-16
1.15772e-09
-1.53605e-07
3.91967e-16
9.1879e-10
-1.54371e-07
3.38294e-16
6.57952e-10
-1.54183e-07
2.86612e-16
3.77663e-10
-1.52932e-07
2.40412e-16
8.1051e-11
-1.50558e-07
1.95836e-16
-2.27829e-10
-1.46945e-07
6.98172e-17
-5.43914e-10
-1.42026e-07
1.4766e-16
-8.60896e-10
-1.35717e-07
1.77071e-16
-1.17094e-09
-1.27935e-07
1.52994e-16
-1.46434e-09
-1.18609e-07
1.3181e-16
-1.729e-09
-1.07671e-07
1.13402e-16
-1.94961e-09
-9.50666e-08
9.72782e-17
-2.10611e-09
-8.07439e-08
8.28153e-17
-2.1717e-09
-6.46789e-08
6.92101e-17
-2.10361e-09
-4.68643e-08
5.45721e-17
-1.85172e-09
-2.73541e-08
3.84266e-17
-1.19265e-09
-6.28744e-09
1.22298e-17
-5.87821e-10
1.64959e-08
-6.14782e-19
-4.48236e-10
4.09065e-08
2.14969e-18
-3.89834e-10
6.65053e-08
7.15049e-19
-3.64901e-10
9.31688e-08
7.24403e-19
-3.47862e-10
1.20774e-07
3.72989e-19
-3.31915e-10
1.48859e-07
-1.33512e-19
-3.14319e-10
1.77036e-07
-3.80788e-19
-2.94054e-10
2.0466e-07
-1.39121e-18
-2.70731e-10
2.31012e-07
-1.16661e-19
-2.44327e-10
2.55242e-07
3.84761e-19
-2.15103e-10
2.76101e-07
1.46516e-18
-1.83547e-10
2.92246e-07
-1.95085e-18
-1.50383e-10
3.01976e-07
-1.22156e-18
-1.16598e-10
3.031e-07
-9.38731e-19
-8.34673e-11
2.92971e-07
-5.18876e-19
-5.26451e-11
2.68387e-07
4.95647e-19
-2.62476e-11
2.25257e-07
-1.97861e-18
-7.35234e-12
1.58705e-07
-1.72423e-18
6.25882e-08
-1.07674e-18
6.91456e-11
-2.81332e-09
2.65304e-14
2.6895e-10
-1.63083e-08
1.43595e-14
5.26803e-10
-3.4199e-08
7.25364e-16
5.17862e-10
-5.01471e-08
5.1723e-16
1.18329e-09
-7.4574e-08
7.54422e-15
1.41375e-09
-9.59875e-08
6.1751e-15
1.53179e-09
-1.0147e-07
-9.05926e-15
1.99843e-09
-9.25386e-08
6.61111e-15
2.19339e-09
-7.42788e-08
7.22356e-15
2.07746e-09
-7.89069e-08
2.49742e-15
2.07179e-09
-8.88911e-08
2.37188e-15
2.1149e-09
-9.78411e-08
2.47485e-15
2.16897e-09
-1.05375e-07
2.33601e-15
2.21672e-09
-1.11476e-07
2.14798e-15
2.24428e-09
-1.16641e-07
1.84874e-15
2.24738e-09
-1.21358e-07
1.61114e-15
2.22527e-09
-1.25904e-07
1.35814e-15
2.178e-09
-1.30375e-07
1.17637e-15
2.10559e-09
-1.34757e-07
1.01865e-15
2.00799e-09
-1.38967e-07
8.17211e-16
1.88508e-09
-1.42895e-07
6.91545e-16
1.73682e-09
-1.46429e-07
5.91144e-16
1.56336e-09
-1.49424e-07
5.06431e-16
1.36508e-09
-1.51784e-07
4.31581e-16
1.14272e-09
-1.53383e-07
3.85752e-16
8.97431e-10
-1.54126e-07
3.22453e-16
6.30861e-10
-1.53916e-07
2.70814e-16
3.45322e-10
-1.52647e-07
2.24587e-16
4.38036e-11
-1.50257e-07
1.82894e-16
-2.69767e-10
-1.46632e-07
1.54852e-16
-5.90448e-10
-1.41705e-07
2.34812e-16
-9.12062e-10
-1.35395e-07
1.67313e-16
-1.22694e-09
-1.2762e-07
1.41287e-16
-1.52562e-09
-1.18311e-07
1.21835e-16
-1.79643e-09
-1.07401e-07
1.04883e-16
-2.02486e-09
-9.48381e-08
9.09182e-17
-2.19254e-09
-8.05762e-08
7.91389e-17
-2.27651e-09
-6.45949e-08
6.9009e-17
-2.24542e-09
-4.68953e-08
5.79283e-17
-2.0782e-09
-2.75213e-08
4.53096e-17
-1.76652e-09
-6.59908e-09
3.09366e-17
-1.44656e-09
1.61759e-08
1.43238e-17
-1.26012e-09
4.072e-08
6.46003e-18
-1.15185e-09
6.6397e-08
9.15468e-19
-1.09066e-09
9.31076e-08
-2.38558e-22
-1.04314e-09
1.20727e-07
-1.49039e-18
-9.96314e-10
1.48813e-07
-1.2638e-18
-9.43916e-10
1.76984e-07
9.36858e-18
-8.83264e-10
2.04599e-07
9.41574e-18
-8.13314e-10
2.30942e-07
1.48688e-17
-7.34033e-10
2.55163e-07
1.66117e-17
-6.46223e-10
2.76013e-07
1.9434e-17
-5.51361e-10
2.92151e-07
7.26622e-18
-4.51629e-10
3.01876e-07
8.09282e-18
-3.50011e-10
3.02998e-07
6.83471e-18
-2.50395e-10
2.92871e-07
5.83216e-18
-1.57773e-10
2.68295e-07
6.83133e-18
-7.86785e-11
2.25178e-07
-3.71839e-18
-2.2015e-11
1.58649e-07
-3.89319e-18
6.25662e-08
-9.95425e-19
6.127e-11
-2.8746e-09
2.08174e-14
2.22049e-10
-1.64691e-08
9.36085e-15
4.14781e-10
-3.43917e-08
-2.76651e-16
4.39587e-10
-5.01719e-08
-4.36916e-16
9.48874e-10
-7.50833e-08
2.90228e-15
1.24748e-09
-9.62861e-08
1.4089e-15
1.64102e-09
-1.01863e-07
-3.579e-15
2.09343e-09
-9.2991e-08
1.83157e-14
2.33144e-09
-7.45168e-08
7.73619e-15
2.22939e-09
-7.88049e-08
2.6303e-15
2.19588e-09
-8.88576e-08
2.28938e-15
2.20769e-09
-9.78529e-08
2.33072e-15
2.23881e-09
-1.05406e-07
2.20359e-15
2.27341e-09
-1.11511e-07
1.97725e-15
2.2948e-09
-1.16662e-07
1.71074e-15
2.29515e-09
-1.21359e-07
1.49439e-15
2.27108e-09
-1.2588e-07
1.24607e-15
2.22116e-09
-1.30325e-07
1.10332e-15
2.14472e-09
-1.34681e-07
9.16305e-16
2.04156e-09
-1.38864e-07
7.86636e-16
1.91174e-09
-1.42765e-07
6.80566e-16
1.75549e-09
-1.46273e-07
5.775e-16
1.57331e-09
-1.49242e-07
4.89785e-16
1.36584e-09
-1.51577e-07
4.09432e-16
1.13401e-09
-1.53151e-07
3.65724e-16
8.79091e-10
-1.53871e-07
3.08073e-16
6.02806e-10
-1.5364e-07
2.58298e-16
3.07467e-10
-1.52352e-07
2.13328e-16
-3.96433e-12
-1.49945e-07
1.71491e-16
-3.27618e-10
-1.46308e-07
1.11826e-16
-6.58639e-10
-1.41374e-07
1.9567e-16
-9.90987e-10
-1.35063e-07
1.59618e-16
-1.31722e-09
-1.27294e-07
1.36154e-16
-1.62826e-09
-1.18e-07
1.17968e-16
-1.91314e-09
-1.07116e-07
1.01839e-16
-2.15869e-09
-9.45926e-08
8.89192e-17
-2.34919e-09
-8.03857e-08
7.8221e-17
-2.46715e-09
-6.44769e-08
6.94138e-17
-2.49394e-09
-4.68685e-08
5.89671e-17
-2.42908e-09
-2.75861e-08
4.54277e-17
-2.30867e-09
-6.71947e-09
3.06051e-17
-2.15957e-09
1.60268e-08
1.74955e-17
-2.00711e-09
4.05676e-08
8.67009e-18
-1.89009e-09
6.628e-08
2.27593e-18
-1.80768e-09
9.30252e-08
1.0875e-18
-1.73526e-09
1.20655e-07
-4.15213e-19
-1.65977e-09
1.48737e-07
4.05272e-18
-1.57353e-09
1.76898e-07
2.02633e-17
-1.47292e-09
2.04499e-07
1.88716e-17
-1.35652e-09
2.30825e-07
2.80441e-17
-1.22437e-09
2.55031e-07
3.16321e-17
-1.07789e-09
2.75867e-07
3.68847e-17
-9.19559e-10
2.91993e-07
1.73264e-17
-7.53046e-10
3.01709e-07
1.92342e-17
-5.8337e-10
3.02828e-07
1.74399e-17
-4.17078e-10
2.92705e-07
1.58518e-17
-2.62602e-10
2.6814e-07
1.74291e-17
-1.30961e-10
2.25046e-07
-1.57904e-19
-3.69383e-11
1.58555e-07
-8.70494e-19
6.25293e-08
1.19558e-18
7.16864e-11
-2.94628e-09
1.53949e-14
2.53164e-10
-1.66505e-08
1.03265e-14
4.22662e-10
-3.45612e-08
5.97931e-16
4.26206e-10
-5.01755e-08
7.77939e-16
8.85389e-10
-7.55425e-08
1.81414e-15
1.35792e-09
-9.67586e-08
1.87229e-15
1.86488e-09
-1.0237e-07
1.27111e-15
2.22389e-09
-9.335e-08
2.12996e-14
2.4372e-09
-7.47301e-08
6.52218e-15
2.32393e-09
-7.86916e-08
2.69837e-15
2.28532e-09
-8.8819e-08
2.07115e-15
2.2904e-09
-9.7858e-08
2.14686e-15
2.31602e-09
-1.05432e-07
2.14887e-15
2.34701e-09
-1.11542e-07
1.88224e-15
2.36556e-09
-1.16681e-07
1.62689e-15
2.36247e-09
-1.21356e-07
1.41196e-15
2.33355e-09
-1.25851e-07
1.14077e-15
2.27707e-09
-1.30269e-07
1.04887e-15
2.19246e-09
-1.34596e-07
8.64024e-16
2.07978e-09
-1.38751e-07
6.71784e-16
1.93944e-09
-1.42625e-07
5.79961e-16
1.77201e-09
-1.46105e-07
5.03487e-16
1.57821e-09
-1.49048e-07
4.32093e-16
1.35884e-09
-1.51357e-07
3.62878e-16
1.11494e-09
-1.52907e-07
3.27118e-16
8.4779e-10
-1.53604e-07
2.73734e-16
5.59075e-10
-1.53351e-07
2.28673e-16
2.51057e-10
-1.52044e-07
1.87581e-16
-7.33821e-11
-1.49621e-07
1.49012e-16
-4.10466e-10
-1.45971e-07
9.47116e-17
-7.55464e-10
-1.41029e-07
1.82162e-16
-1.10251e-09
-1.34716e-07
1.46989e-16
-1.44445e-09
-1.26952e-07
1.26186e-16
-1.77269e-09
-1.17671e-07
1.10353e-16
-2.0771e-09
-1.06811e-07
9.59895e-17
-2.34603e-09
-9.43236e-08
8.4861e-17
-2.56655e-09
-8.01652e-08
7.58736e-17
-2.72611e-09
-6.43174e-08
6.88888e-17
-2.81547e-09
-4.67792e-08
5.98177e-17
-2.84209e-09
-2.75595e-08
4.64527e-17
-2.84571e-09
-6.71582e-09
3.13827e-17
-2.80782e-09
1.59889e-08
2.05153e-17
-2.7073e-09
4.04671e-08
1.17061e-17
-2.60436e-09
6.61771e-08
5.05376e-18
-2.51368e-09
9.29345e-08
3.74527e-18
-2.42269e-09
1.20564e-07
2.5807e-18
-2.3215e-09
1.48636e-07
1.0071e-17
-2.20282e-09
1.76779e-07
2.64225e-17
-2.06291e-09
2.04359e-07
2.02734e-17
-1.90033e-09
2.30663e-07
3.2779e-17
-1.7154e-09
2.54846e-07
3.91203e-17
-1.51018e-09
2.75662e-07
4.82067e-17
-1.28825e-09
2.91771e-07
2.25507e-17
-1.05477e-09
3.01476e-07
2.67985e-17
-8.16843e-10
3.02591e-07
2.59142e-17
-5.83713e-10
2.92471e-07
2.5186e-17
-3.67309e-10
2.67924e-07
2.87074e-17
-1.83178e-10
2.24862e-07
5.06177e-18
-5.18548e-11
1.58423e-07
4.46904e-18
6.24774e-08
3.98589e-18
7.05764e-11
-3.01686e-09
1.50607e-14
2.44559e-10
-1.68245e-08
4.68111e-15
3.57593e-10
-3.46742e-08
-1.88388e-15
3.29364e-10
-5.01473e-08
-7.44732e-16
7.63046e-10
-7.59762e-08
3.17009e-15
1.44816e-09
-9.74437e-08
3.85409e-15
1.97373e-09
-1.02896e-07
1.31247e-15
2.22494e-09
-9.36013e-08
2.02129e-14
2.50887e-09
-7.5014e-08
4.11849e-15
2.39561e-09
-7.85783e-08
2.76952e-15
2.35235e-09
-8.87757e-08
1.8989e-15
2.35275e-09
-9.78584e-08
1.92647e-15
2.37427e-09
-1.05453e-07
1.90844e-15
2.4027e-09
-1.1157e-07
1.6461e-15
2.41979e-09
-1.16698e-07
1.39405e-15
2.41538e-09
-1.21351e-07
1.20236e-15
2.38438e-09
-1.2582e-07
9.36784e-16
2.32432e-09
-1.30209e-07
8.69368e-16
2.23422e-09
-1.34506e-07
6.99416e-16
2.11408e-09
-1.38631e-07
5.81008e-16
1.96442e-09
-1.42475e-07
5.12486e-16
1.78606e-09
-1.45927e-07
4.47212e-16
1.58002e-09
-1.48842e-07
3.8321e-16
1.34738e-09
-1.51125e-07
3.18639e-16
1.08936e-09
-1.52649e-07
2.87619e-16
8.07411e-10
-1.53322e-07
2.38086e-16
5.03292e-10
-1.53047e-07
1.96431e-16
1.79295e-10
-1.5172e-07
1.58493e-16
-1.61713e-10
-1.4928e-07
1.22609e-16
-5.16004e-10
-1.45617e-07
6.97561e-17
-8.78946e-10
-1.40666e-07
1.63762e-16
-1.24485e-09
-1.3435e-07
1.31395e-16
-1.60684e-09
-1.2659e-07
1.13316e-16
-1.95682e-09
-1.17321e-07
1.00106e-16
-2.28554e-09
-1.06483e-07
8.78607e-17
-2.58277e-09
-9.40264e-08
7.88142e-17
-2.83805e-09
-7.99099e-08
7.17837e-17
-3.04255e-09
-6.41129e-08
6.68889e-17
-3.19252e-09
-4.66292e-08
5.99044e-17
-3.29664e-09
-2.74554e-08
4.81576e-17
-3.3855e-09
-6.62692e-09
3.46523e-17
-3.42431e-09
1.60277e-08
2.52595e-17
-3.37737e-09
4.04202e-08
1.68483e-17
-3.29883e-09
6.60986e-08
1.04771e-17
-3.20897e-09
9.28447e-08
9.20321e-18
-3.10501e-09
1.2046e-07
8.17593e-18
-2.98112e-09
1.48512e-07
1.73804e-17
-2.83157e-09
1.7663e-07
2.51886e-17
-2.65314e-09
2.0418e-07
1.13892e-17
-2.44473e-09
2.30454e-07
2.64349e-17
-2.20711e-09
2.54608e-07
3.5867e-17
-1.94314e-09
2.75398e-07
4.96449e-17
-1.65748e-09
2.91486e-07
1.91482e-17
-1.35688e-09
3.01175e-07
2.72531e-17
-1.05051e-09
3.02284e-07
2.90079e-17
-7.50389e-10
2.92171e-07
3.09498e-17
-4.71966e-10
2.67645e-07
3.8205e-17
-2.35342e-10
2.24625e-07
1.00548e-17
-6.67498e-11
1.58255e-07
1.07048e-17
6.24107e-08
8.74895e-18
7.52652e-11
-3.09213e-09
1.32258e-14
2.52976e-10
-1.70022e-08
7.16561e-15
3.22034e-10
-3.47433e-08
-3.45579e-15
2.52662e-10
-5.00779e-08
3.13449e-15
7.47859e-10
-7.64714e-08
2.60139e-15
1.60264e-09
-9.82985e-08
-1.30954e-15
1.95111e-09
-1.03244e-07
-3.8461e-15
2.08364e-09
-9.37338e-08
2.15692e-14
2.52111e-09
-7.54515e-08
5.13597e-15
2.43124e-09
-7.84885e-08
2.34062e-15
2.39041e-09
-8.87349e-08
1.57682e-15
2.39227e-09
-9.78602e-08
1.68766e-15
2.41518e-09
-1.05476e-07
1.66895e-15
2.4453e-09
-1.116e-07
1.42993e-15
2.46354e-09
-1.16716e-07
1.17664e-15
2.45903e-09
-1.21347e-07
1.02213e-15
2.42623e-09
-1.25788e-07
7.8013e-16
2.36245e-09
-1.30145e-07
7.43839e-16
2.26662e-09
-1.3441e-07
5.87158e-16
2.13877e-09
-1.38503e-07
4.49306e-16
1.97955e-09
-1.42316e-07
3.91289e-16
1.78997e-09
-1.45737e-07
3.45109e-16
1.57121e-09
-1.48623e-07
2.97127e-16
1.32454e-09
-1.50878e-07
2.45729e-16
1.05131e-09
-1.52376e-07
2.26159e-16
7.53061e-10
-1.53024e-07
1.85328e-16
4.31641e-10
-1.52726e-07
1.51223e-16
8.9383e-11
-1.51377e-07
1.19456e-16
-2.70828e-10
-1.4892e-07
8.86217e-17
-6.45276e-10
-1.45242e-07
3.96862e-17
-1.02938e-09
-1.40282e-07
1.41872e-16
-1.41759e-09
-1.33962e-07
1.12633e-16
-1.80326e-09
-1.26204e-07
9.77882e-17
-2.17876e-09
-1.16946e-07
8.76234e-17
-2.53557e-09
-1.06126e-07
7.78802e-17
-2.86469e-09
-9.36973e-08
7.11547e-17
-3.15749e-09
-7.9617e-08
6.61982e-17
-3.40758e-09
-6.38628e-08
6.34292e-17
-3.61366e-09
-4.64231e-08
5.87615e-17
-3.7825e-09
-2.72866e-08
4.93234e-17
-3.93301e-09
-6.47636e-09
3.82421e-17
-4.02793e-09
1.61227e-08
3.07209e-17
-4.02978e-09
4.04221e-08
2.36393e-17
-3.97892e-09
6.60477e-08
1.81153e-17
-3.89538e-09
9.27611e-08
1.70783e-17
-3.78268e-09
1.20347e-07
1.61941e-17
-3.63873e-09
1.48368e-07
2.52857e-17
-3.45978e-09
1.76451e-07
2.09525e-17
-3.24361e-09
2.03964e-07
-2.14639e-18
-2.98974e-09
2.30201e-07
1.46501e-17
-2.69956e-09
2.54318e-07
2.68805e-17
-2.3768e-09
2.75075e-07
4.54196e-17
-2.02731e-09
2.91136e-07
1.04292e-17
-1.65942e-09
3.00807e-07
2.29831e-17
-1.28445e-09
3.01909e-07
2.82325e-17
-9.17175e-10
2.91804e-07
3.3872e-17
-5.7663e-10
2.67305e-07
4.59036e-17
-2.87475e-10
2.24336e-07
1.43757e-17
-8.16219e-11
1.58049e-07
1.70729e-17
6.23291e-08
1.47163e-17
7.69458e-11
-3.16906e-09
1.22375e-14
2.52041e-10
-1.71773e-08
5.69772e-15
2.68514e-10
-3.47597e-08
-5.18267e-15
1.54112e-10
-4.99635e-08
4.3011e-15
7.88508e-10
-7.71058e-08
7.88702e-15
1.67178e-09
-9.91818e-08
1.96806e-15
1.66878e-09
-1.03241e-07
-6.50061e-15
1.74192e-09
-9.38069e-08
1.33873e-14
2.47173e-09
-7.61813e-08
3.2665e-15
2.44098e-09
-7.84577e-08
8.60447e-16
2.40515e-09
-8.86991e-08
1.08646e-15
2.40845e-09
-9.78635e-08
1.34367e-15
2.4326e-09
-1.05501e-07
1.31424e-15
2.46468e-09
-1.11632e-07
1.08103e-15
2.48472e-09
-1.16736e-07
8.72629e-16
2.48117e-09
-1.21343e-07
7.48618e-16
2.44799e-09
-1.25755e-07
5.50057e-16
2.3821e-09
-1.30079e-07
5.39983e-16
2.28217e-09
-1.3431e-07
4.08093e-16
2.14809e-09
-1.38369e-07
3.38604e-16
1.98049e-09
-1.42148e-07
3.01134e-16
1.78042e-09
-1.45537e-07
2.65841e-16
1.5492e-09
-1.48392e-07
2.25856e-16
1.28823e-09
-1.50617e-07
1.82369e-16
9.99026e-10
-1.52086e-07
1.69852e-16
6.83259e-10
-1.52708e-07
1.35024e-16
3.42886e-10
-1.52385e-07
1.06143e-16
-1.9662e-11
-1.51015e-07
7.91784e-17
-4.01431e-10
-1.48538e-07
5.24257e-17
-7.9866e-10
-1.44845e-07
6.90604e-18
-1.20677e-09
-1.39874e-07
1.17922e-16
-1.62027e-09
-1.33548e-07
9.16287e-17
-2.03272e-09
-1.25792e-07
8.0057e-17
-2.4368e-09
-1.16542e-07
7.31401e-17
-2.82459e-09
-1.05738e-07
6.61519e-17
-3.18799e-09
-9.33339e-08
6.19429e-17
-3.51961e-09
-7.92854e-08
5.91648e-17
-3.81431e-09
-6.35681e-08
5.85212e-17
-4.07129e-09
-4.61661e-08
5.61936e-17
-4.29418e-09
-2.70637e-08
4.93067e-17
-4.49197e-09
-6.27852e-09
4.09762e-17
-4.63007e-09
1.62608e-08
3.57361e-17
-4.67386e-09
4.04659e-08
3.06128e-17
-4.65002e-09
6.60239e-08
2.6438e-17
-4.57541e-09
9.26865e-08
2.59981e-17
-4.45674e-09
1.20228e-07
2.5375e-17
-4.29474e-09
1.48206e-07
3.43271e-17
-4.08767e-09
1.76244e-07
1.66917e-17
-3.83446e-09
2.03711e-07
-1.57629e-17
-3.53544e-09
2.29902e-07
2.00779e-18
-3.19281e-09
2.53976e-07
1.62877e-17
-2.81123e-09
2.74693e-07
3.90303e-17
-2.39778e-09
2.90723e-07
-7.79756e-19
-1.96245e-09
3.00372e-07
1.61112e-17
-1.5187e-09
3.01465e-07
2.49723e-17
-1.08413e-09
2.9137e-07
3.4572e-17
-6.81354e-10
2.66902e-07
5.17417e-17
-3.39608e-10
2.23994e-07
1.73942e-17
-9.64778e-11
1.57806e-07
2.26139e-17
6.22326e-08
2.02233e-17
8.01437e-11
-3.24922e-09
9.88313e-15
2.56387e-10
-1.73536e-08
7.56816e-15
2.18965e-10
-3.47223e-08
-5.21743e-15
7.47194e-11
-4.98193e-08
4.07987e-15
8.93325e-10
-7.79244e-08
-8.30109e-16
1.58981e-09
-9.98783e-08
1.20003e-15
1.13252e-09
-1.02784e-07
-1.13023e-14
1.24708e-09
-9.39215e-08
6.68511e-15
2.36158e-09
-7.72958e-08
1.45003e-15
2.42314e-09
-7.85193e-08
-4.09161e-16
2.39729e-09
-8.86732e-08
4.20527e-16
2.40291e-09
-9.78691e-08
8.80496e-16
2.42852e-09
-1.05526e-07
8.4903e-16
2.46275e-09
-1.11666e-07
6.17021e-16
2.48472e-09
-1.16758e-07
4.99085e-16
2.48227e-09
-1.21341e-07
3.94269e-16
2.44892e-09
-1.25721e-07
2.94971e-16
2.38135e-09
-1.30012e-07
3.20952e-16
2.27794e-09
-1.34207e-07
2.28948e-16
2.1384e-09
-1.3823e-07
1.79166e-16
1.96322e-09
-1.41973e-07
1.61922e-16
1.75336e-09
-1.45327e-07
1.47396e-16
1.51014e-09
-1.48149e-07
1.2597e-16
1.235e-09
-1.50342e-07
9.74043e-17
9.29535e-10
-1.51781e-07
9.78203e-17
5.95519e-10
-1.52374e-07
7.2899e-17
2.35033e-10
-1.52025e-07
5.24758e-17
-1.49364e-10
-1.5063e-07
3.24162e-17
-5.54595e-10
-1.48133e-07
1.14009e-17
-9.76791e-10
-1.44423e-07
-2.95565e-17
-1.4113e-09
-1.39439e-07
9.16355e-17
-1.85262e-09
-1.33107e-07
6.83334e-17
-2.29438e-09
-1.2535e-07
6.03506e-17
-2.72948e-09
-1.16107e-07
5.69014e-17
-3.15037e-09
-1.05317e-07
5.2883e-17
-3.54951e-09
-9.29347e-08
5.13176e-17
-3.9202e-09
-7.89147e-08
5.07978e-17
-4.25769e-09
-6.32306e-08
5.2256e-17
-4.56051e-09
-4.58633e-08
5.22002e-17
-4.82906e-09
-2.67951e-08
4.78265e-17
-5.06492e-09
-6.04259e-09
4.21808e-17
-5.23756e-09
1.64334e-08
3.92566e-17
-5.31638e-09
4.05448e-08
3.63281e-17
-5.31692e-09
6.60245e-08
3.38754e-17
-5.25179e-09
9.26214e-08
3.44664e-17
-5.12859e-09
1.20105e-07
3.45553e-17
-4.94988e-09
1.48027e-07
4.40486e-17
-4.7156e-09
1.76009e-07
1.5151e-17
-4.42587e-09
2.03421e-07
-2.56957e-17
-4.08197e-09
2.29558e-07
-7.14225e-18
-3.68694e-09
2.53581e-07
8.57868e-18
-3.24648e-09
2.74253e-07
3.48326e-17
-2.76896e-09
2.90245e-07
-1.04469e-17
-2.26602e-09
2.99869e-07
1.01827e-17
-1.75333e-09
3.00953e-07
2.21557e-17
-1.25131e-09
2.90868e-07
3.53084e-17
-7.86183e-10
2.66437e-07
5.72781e-17
-3.91766e-10
2.236e-07
2.00955e-17
-1.11326e-10
1.57525e-07
2.78348e-17
6.21213e-08
2.57029e-17
8.28425e-11
-3.33206e-09
9.62081e-15
2.60555e-10
-1.75313e-08
7.45376e-15
1.56791e-10
-3.46185e-08
-5.77316e-15
1.2585e-11
-4.96751e-08
7.48862e-15
9.96133e-10
-7.89079e-08
6.35589e-16
1.29081e-09
-1.00173e-07
-1.08076e-15
4.28445e-10
-1.01922e-07
-5.25631e-15
7.10794e-10
-9.42039e-08
9.99506e-15
2.22388e-09
-7.88089e-08
6.10171e-16
2.38809e-09
-7.86835e-08
-1.91314e-15
2.37203e-09
-8.86572e-08
-2.80538e-16
2.37773e-09
-9.78748e-08
4.02351e-16
2.40264e-09
-1.05551e-07
3.93421e-16
2.43749e-09
-1.11701e-07
1.84084e-16
2.46054e-09
-1.16781e-07
1.50952e-16
2.45891e-09
-1.21339e-07
4.09199e-17
2.42564e-09
-1.25688e-07
2.54009e-17
2.35703e-09
-1.29943e-07
7.82307e-17
2.2511e-09
-1.34101e-07
2.78085e-17
2.10717e-09
-1.38086e-07
2.05051e-17
1.92544e-09
-1.41791e-07
2.67994e-17
1.70667e-09
-1.45109e-07
3.33344e-17
1.45206e-09
-1.47894e-07
2.97359e-17
1.16299e-09
-1.50053e-07
1.62275e-17
8.41105e-10
-1.51459e-07
2.85049e-17
4.88274e-10
-1.52021e-07
1.27899e-17
1.06711e-10
-1.51643e-07
-3.82777e-19
-3.0086e-10
-1.50223e-07
-1.42747e-17
-7.31188e-10
-1.47702e-07
-3.03233e-17
-1.18023e-09
-1.43974e-07
-6.72402e-17
-1.64317e-09
-1.38977e-07
6.36831e-17
-2.11442e-09
-1.32635e-07
4.34878e-17
-2.58756e-09
-1.24877e-07
3.92026e-17
-3.05555e-09
-1.15639e-07
3.92662e-17
-3.51103e-09
-1.04862e-07
3.8277e-17
-3.94669e-09
-9.24991e-08
3.9418e-17
-4.35604e-09
-7.85053e-08
4.12062e-17
-4.73414e-09
-6.28525e-08
4.4757e-17
-5.07829e-09
-4.55191e-08
4.6897e-17
-5.38598e-09
-2.64874e-08
4.48984e-17
-5.65365e-09
-5.77485e-09
4.16657e-17
-5.85465e-09
1.66345e-08
4.08337e-17
-5.96227e-09
4.06525e-08
4.00656e-17
-5.98366e-09
6.60459e-08
3.95385e-17
-5.92714e-09
9.25649e-08
4.15673e-17
-5.79977e-09
1.19978e-07
4.28884e-17
-5.60501e-09
1.47833e-07
5.42585e-17
-5.34407e-09
1.75748e-07
1.68289e-17
-5.01815e-09
2.03095e-07
-3.10495e-17
-4.6295e-09
2.29169e-07
-1.16925e-17
-4.18206e-09
2.53133e-07
4.97133e-18
-3.68263e-09
2.73753e-07
3.4036e-17
-3.14089e-09
2.89703e-07
-1.74525e-17
-2.57018e-09
2.99299e-07
6.15192e-18
-1.98839e-09
3.00371e-07
2.05088e-17
-1.41877e-09
2.90298e-07
3.64977e-17
-8.91155e-10
2.65909e-07
6.25015e-17
-4.43976e-10
2.23153e-07
2.2262e-17
-1.26176e-10
1.57207e-07
3.23049e-17
6.19951e-08
3.02712e-17
8.62871e-11
-3.41835e-09
8.40131e-15
2.68515e-10
-1.77135e-08
1.13797e-14
8.98346e-11
-3.44399e-08
-6.45719e-15
1.47138e-12
-4.95867e-08
6.04822e-15
1.05739e-09
-7.99639e-08
1.46522e-15
8.20165e-10
-9.99357e-08
3.48595e-15
-2.39324e-10
-1.00862e-07
5.33644e-16
2.9631e-10
-9.47395e-08
1.49541e-14
2.10015e-09
-8.06127e-08
-4.29404e-15
2.34308e-09
-7.89264e-08
-1.75299e-15
2.33274e-09
-8.86468e-08
-9.08215e-16
2.33536e-09
-9.78774e-08
-2.58918e-16
2.35703e-09
-1.05573e-07
-2.57023e-16
2.39067e-09
-1.11735e-07
-4.54612e-16
2.41365e-09
-1.16804e-07
-3.17325e-16
2.41219e-09
-1.21338e-07
-4.12074e-16
2.37881e-09
-1.25655e-07
-2.73834e-16
2.30935e-09
-1.29874e-07
-1.88346e-16
2.20137e-09
-1.33993e-07
-1.90147e-16
2.05372e-09
-1.37938e-07
-1.43801e-16
1.86618e-09
-1.41604e-07
-1.08284e-16
1.63917e-09
-1.44882e-07
-8.31411e-17
1.37364e-09
-1.47629e-07
-6.99919e-17
1.07085e-09
-1.4975e-07
-7.00514e-17
7.32421e-10
-1.51121e-07
-4.54381e-17
3.60284e-10
-1.51649e-07
-5.15588e-17
-4.32038e-11
-1.5124e-07
-5.64177e-17
-4.75117e-10
-1.49791e-07
-6.35333e-17
-9.31977e-10
-1.47246e-07
-7.39262e-17
-1.40949e-09
-1.43496e-07
-1.06657e-16
-1.90262e-09
-1.38483e-07
3.31648e-17
-2.40556e-09
-1.32133e-07
1.72152e-17
-2.91174e-09
-1.24371e-07
1.69016e-17
-3.41405e-09
-1.15136e-07
2.04619e-17
-3.90508e-09
-1.04371e-07
2.25291e-17
-4.37752e-09
-9.20266e-08
2.63709e-17
-4.82472e-09
-7.80581e-08
3.04952e-17
-5.24118e-09
-6.2436e-08
3.61327e-17
-5.62275e-09
-4.51375e-08
4.04342e-17
-5.96451e-09
-2.61457e-08
4.07052e-17
-6.25942e-09
-5.47987e-09
3.96205e-17
-6.48409e-09
1.68592e-08
4.06118e-17
-6.61509e-09
4.07835e-08
4.18449e-17
-6.65353e-09
6.60844e-08
4.331e-17
-6.60388e-09
9.25153e-08
4.70468e-17
-6.47184e-09
1.19846e-07
4.99851e-17
-6.26109e-09
1.47622e-07
6.36743e-17
-5.97364e-09
1.75461e-07
2.10804e-17
-5.61163e-09
2.02733e-07
-3.24403e-17
-5.17823e-09
2.28736e-07
-1.1841e-17
-4.67831e-09
2.52633e-07
5.69194e-18
-4.11977e-09
2.73195e-07
3.72585e-17
-3.51364e-09
2.89097e-07
-2.0953e-17
-2.87499e-09
2.9866e-07
5.01816e-18
-2.22391e-09
2.9972e-07
2.10716e-17
-1.58653e-09
2.89661e-07
3.91479e-17
-9.96306e-10
2.65319e-07
6.82675e-17
-4.96261e-10
2.22653e-07
2.46537e-17
-1.41039e-10
1.56852e-07
3.65581e-17
6.18541e-08
3.45764e-17
8.99906e-11
-3.50835e-09
6.95934e-15
2.78218e-10
-1.79017e-08
1.16155e-14
2.8449e-11
-3.41901e-08
-4.15304e-15
7.94903e-11
-4.96377e-08
9.01027e-15
1.06667e-09
-8.09511e-08
-5.36476e-15
3.16249e-10
-9.91853e-08
4.81848e-15
-6.39457e-10
-9.99066e-08
6.70877e-15
1.35125e-10
-9.55141e-08
9.54797e-15
2.03134e-09
-8.2509e-08
-6.11694e-15
2.29839e-09
-7.91935e-08
4.52384e-17
2.28373e-09
-8.86322e-08
-1.49501e-15
2.27826e-09
-9.7872e-08
-8.93192e-16
2.29315e-09
-1.05588e-07
-8.24585e-16
2.32315e-09
-1.11765e-07
-9.84127e-16
2.34466e-09
-1.16825e-07
-7.2979e-16
2.34267e-09
-1.21336e-07
-7.98238e-16
2.309e-09
-1.25621e-07
-5.57091e-16
2.2389e-09
-1.29804e-07
-4.40887e-16
2.12931e-09
-1.33884e-07
-3.79937e-16
1.97851e-09
-1.37787e-07
-3.17416e-16
1.78572e-09
-1.41411e-07
-2.59166e-16
1.55092e-09
-1.44647e-07
-2.08132e-16
1.27473e-09
-1.47352e-07
-1.728e-16
9.58219e-10
-1.49434e-07
-1.55294e-16
6.02944e-10
-1.50765e-07
-1.17316e-16
2.10897e-10
-1.51257e-07
-1.13374e-16
-2.15406e-10
-1.50814e-07
-1.1057e-16
-6.7281e-10
-1.49333e-07
-1.11369e-16
-1.15755e-09
-1.46761e-07
-1.16773e-16
-1.66502e-09
-1.42989e-07
-1.45659e-16
-2.18987e-09
-1.37959e-07
2.27832e-18
-2.72599e-09
-1.31596e-07
-9.43817e-18
-3.26656e-09
-1.2383e-07
-6.07143e-18
-3.80423e-09
-1.14599e-07
7.87099e-19
-4.3314e-09
-1.03844e-07
5.8013e-18
-4.84051e-09
-9.15175e-08
1.22796e-17
-5.32451e-09
-7.75741e-08
1.87298e-17
-5.77715e-09
-6.19834e-08
2.64538e-17
-6.19279e-09
-4.47218e-08
3.29244e-17
-6.56457e-09
-2.57739e-08
3.54339e-17
-6.88316e-09
-5.1612e-09
3.63535e-17
-7.12774e-09
1.71038e-08
3.8994e-17
-7.27744e-09
4.09333e-08
4.20819e-17
-7.32916e-09
6.61361e-08
4.55247e-17
-7.28413e-09
9.24703e-08
5.11451e-17
-7.1463e-09
1.19708e-07
5.59565e-17
-6.91908e-09
1.47395e-07
7.24614e-17
-6.60492e-09
1.75147e-07
2.70875e-17
-6.2067e-09
2.02335e-07
-3.09909e-17
-5.7284e-09
2.28257e-07
-8.73367e-18
-5.17583e-09
2.52081e-07
9.72012e-18
-4.55799e-09
2.72577e-07
4.36256e-17
-3.88727e-09
2.88427e-07
-2.17284e-17
-3.18047e-09
2.97953e-07
6.12417e-18
-2.45993e-09
2.98999e-07
2.33129e-17
-1.75463e-09
2.88955e-07
4.28362e-17
-1.10166e-09
2.64666e-07
7.49338e-17
-5.48643e-10
2.221e-07
2.69881e-17
-1.55923e-10
1.56459e-07
4.03039e-17
6.16981e-08
3.80106e-17
9.44004e-11
-3.60274e-09
7.85995e-15
2.89256e-10
-1.80966e-08
1.18694e-14
-6.46002e-12
-3.38944e-08
-2.83479e-15
2.75221e-10
-4.99194e-08
9.34638e-15
1.06364e-09
-8.17395e-08
-3.11094e-16
-3.6335e-11
-9.80853e-08
-3.11237e-15
-6.41922e-10
-9.9301e-08
1.47481e-14
2.61525e-10
-9.64175e-08
2.18476e-14
2.03479e-09
-8.42823e-08
-1.1562e-14
2.25943e-09
-7.94181e-08
-1.27519e-15
2.2273e-09
-8.86e-08
-1.92606e-15
2.20839e-09
-9.7853e-08
-1.51975e-15
2.21303e-09
-1.05592e-07
-1.59376e-15
2.23715e-09
-1.11789e-07
-1.62252e-15
2.25597e-09
-1.16844e-07
-1.25735e-15
2.25286e-09
-1.21332e-07
-1.23927e-15
2.21873e-09
-1.25587e-07
-8.77083e-16
2.14806e-09
-1.29733e-07
-7.25663e-16
2.03707e-09
-1.33773e-07
-6.01649e-16
1.88335e-09
-1.37634e-07
-4.67392e-16
1.6855e-09
-1.41213e-07
-3.79411e-16
1.44296e-09
-1.44404e-07
-3.13703e-16
1.15599e-09
-1.47065e-07
-2.64517e-16
8.25411e-10
-1.49103e-07
-2.35597e-16
4.52703e-10
-1.50393e-07
-1.86907e-16
3.9919e-11
-1.50844e-07
-1.74503e-16
-4.1025e-10
-1.50363e-07
-1.64279e-16
-8.94374e-10
-1.48849e-07
-1.59061e-16
-1.40835e-09
-1.46247e-07
-1.59414e-16
-1.9472e-09
-1.4245e-07
-1.84474e-16
-2.50517e-09
-1.37401e-07
-2.83664e-17
-3.07576e-09
-1.31026e-07
-3.62927e-17
-3.6518e-09
-1.23254e-07
-2.95431e-17
-4.22558e-09
-1.14025e-07
-1.96136e-17
-4.78916e-09
-1.0328e-07
-1.17669e-17
-5.33458e-09
-9.09721e-08
-2.7704e-18
-5.85421e-09
-7.70544e-08
5.969e-18
-6.34094e-09
-6.14967e-08
1.57518e-17
-6.78776e-09
-4.4275e-08
2.44162e-17
-7.18626e-09
-2.53754e-08
2.91991e-17
-7.5256e-09
-4.82178e-09
3.20998e-17
-7.78689e-09
1.73651e-08
3.63578e-17
-7.95124e-09
4.10977e-08
4.12364e-17
-8.01263e-09
6.61976e-08
4.66357e-17
-7.96967e-09
9.24273e-08
5.42275e-17
-7.82451e-09
1.19563e-07
6.12064e-17
-7.57993e-09
1.4715e-07
8.16819e-17
-7.23854e-09
1.74806e-07
3.39306e-17
-6.80373e-09
2.01901e-07
-2.82377e-17
-6.28026e-09
2.27734e-07
-3.84775e-18
-5.67476e-09
2.51475e-07
1.5789e-17
-4.99737e-09
2.719e-07
5.22018e-17
-4.26183e-09
2.87691e-07
-2.04453e-17
-3.48668e-09
2.97178e-07
9.10912e-18
-2.69648e-09
2.98209e-07
2.71487e-17
-1.92309e-09
2.88182e-07
4.78157e-17
-1.20724e-09
2.6395e-07
8.25094e-17
-6.01136e-10
2.21494e-07
2.9848e-17
-1.70838e-10
1.56029e-07
4.4e-17
6.15273e-08
4.12361e-17
9.93954e-11
-3.70214e-09
6.52991e-15
2.99268e-10
-1.82965e-08
1.08735e-14
-5.2671e-12
-3.35899e-08
8.13143e-16
5.6701e-10
-5.04916e-08
1.05016e-14
1.09783e-09
-8.22703e-08
-6.42209e-15
-1.00518e-10
-9.68869e-08
-1.57144e-15
-2.54548e-10
-9.9147e-08
2.04461e-14
6.18844e-10
-9.72908e-08
2.57122e-14
2.10614e-09
-8.57696e-08
-4.94713e-15
2.22985e-09
-7.95417e-08
1.52697e-15
2.16554e-09
-8.85357e-08
-2.60917e-15
2.12765e-09
-9.78151e-08
-2.22096e-15
2.11876e-09
-1.05583e-07
-2.20567e-15
2.13504e-09
-1.11805e-07
-2.16327e-15
2.15025e-09
-1.1686e-07
-1.69853e-15
2.14569e-09
-1.21328e-07
-1.59075e-15
2.11107e-09
-1.25552e-07
-1.14631e-15
2.03991e-09
-1.29662e-07
-9.55823e-16
1.92759e-09
-1.3366e-07
-7.71038e-16
1.77091e-09
-1.37477e-07
-6.28369e-16
1.5678e-09
-1.4101e-07
-5.19876e-16
1.31716e-09
-1.44154e-07
-4.29814e-16
1.01881e-09
-1.46767e-07
-3.60113e-16
6.73374e-10
-1.48758e-07
-3.14928e-16
2.82241e-10
-1.50002e-07
-2.54078e-16
-1.52449e-10
-1.50409e-07
-2.32462e-16
-6.27793e-10
-1.49888e-07
-2.15273e-16
-1.14004e-09
-1.48337e-07
-2.04431e-16
-1.6847e-09
-1.45702e-07
-2.00448e-16
-2.25634e-09
-1.41878e-07
-2.22057e-16
-2.84875e-09
-1.36808e-07
-5.79286e-17
-3.45497e-09
-1.3042e-07
-6.28816e-17
-4.06736e-09
-1.22642e-07
-5.32295e-17
-4.67778e-09
-1.13415e-07
-4.05161e-17
-5.27781e-09
-1.0268e-07
-3.00465e-17
-5.85899e-09
-9.03909e-08
-1.86918e-17
-6.41302e-09
-7.65004e-08
-7.7591e-18
-6.93188e-09
-6.09779e-08
4.03124e-18
-7.40734e-09
-4.37995e-08
1.49098e-17
-7.82976e-09
-2.4953e-08
2.20344e-17
-8.18729e-09
-4.46416e-09
2.69872e-17
-8.46247e-09
1.76403e-08
3.29331e-17
-8.6379e-09
4.12732e-08
3.96317e-17
-8.70558e-09
6.62653e-08
4.7007e-17
-8.66202e-09
9.23838e-08
5.66322e-17
-8.50765e-09
1.19409e-07
6.59128e-17
-8.2445e-09
1.46887e-07
9.11758e-17
-7.87507e-09
1.74436e-07
4.09576e-17
-7.40313e-09
2.01429e-07
-2.51257e-17
-6.83403e-09
2.27165e-07
1.81974e-18
-6.17525e-09
2.50817e-07
2.29041e-17
-5.438e-09
2.71162e-07
6.20824e-17
-4.63738e-09
2.8689e-07
-1.8067e-17
-3.79363e-09
2.96334e-07
1.30685e-17
-2.93358e-09
2.97349e-07
3.17703e-17
-2.09195e-09
2.8734e-07
5.33123e-17
-1.31307e-09
2.63172e-07
9.08925e-17
-6.53753e-10
2.20834e-07
3.29919e-17
-1.85788e-10
1.55561e-07
4.73642e-17
6.13415e-08
4.37656e-17
1.04937e-10
-3.80708e-09
7.46817e-15
3.06407e-10
-1.84979e-08
1.19336e-14
2.58769e-11
-3.33094e-08
2.5455e-15
9.003e-10
-5.1366e-08
1.06492e-14
1.20258e-09
-8.25726e-08
-8.1755e-15
1.54517e-10
-9.58389e-08
-2.58729e-16
3.83558e-10
-9.9376e-08
1.58109e-14
1.08146e-09
-9.79887e-08