/*--------------------------------*- C++ -*----------------------------------*\
| =========                 |                                                 |
| \\      /  F ield         | OpenFOAM: The Open Source CFD Toolbox           |
|  \\    /   O peration     | Version:  v2012                                 |
|   \\  /    A nd           | Website:  www.openfoam.com                      |
|    \\/     M anipulation  |                                                 |
\*---------------------------------------------------------------------------*/
FoamFile
{
    version     2.0;
    format      ascii;
    class       volScalarField;
    location    "0.15";
    object      p_rgh;
}
// * * * * * * * * * * * * * * * * * * * * * * * * * * * * * * * * * * * * * //

dimensions      [1 -1 -2 0 0 0 0];


internalField   nonuniform List<scalar> 
3338
(
3.49959e+06
3.49911e+06
3.49906e+06
3.49979e+06
3.49985e+06
3.49987e+06
3.49987e+06
3.49988e+06
3.49988e+06
3.49988e+06
3.49988e+06
3.49988e+06
3.49989e+06
3.49989e+06
3.49989e+06
3.49989e+06
3.49989e+06
3.49989e+06
3.49989e+06
3.49989e+06
3.49988e+06
3.49936e+06
3.49894e+06
3.49906e+06
3.49953e+06
3.49958e+06
3.49961e+06
3.49963e+06
3.49964e+06
3.49964e+06
3.49965e+06
3.49965e+06
3.49966e+06
3.49966e+06
3.49966e+06
3.49966e+06
3.49966e+06
3.49966e+06
3.49966e+06
3.49966e+06
3.49966e+06
3.49965e+06
3.49918e+06
3.49894e+06
3.499e+06
3.49927e+06
3.49932e+06
3.49937e+06
3.49939e+06
3.4994e+06
3.49941e+06
3.49942e+06
3.49943e+06
3.49943e+06
3.49944e+06
3.49944e+06
3.49944e+06
3.49944e+06
3.49944e+06
3.49944e+06
3.49943e+06
3.49942e+06
3.49941e+06
3.49896e+06
3.49881e+06
3.49884e+06
3.49903e+06
3.49907e+06
3.49912e+06
3.49915e+06
3.49917e+06
3.49918e+06
3.49919e+06
3.4992e+06
3.49921e+06
3.49921e+06
3.49922e+06
3.49922e+06
3.49922e+06
3.49921e+06
3.49921e+06
3.4992e+06
3.49919e+06
3.49917e+06
3.49873e+06
3.49863e+06
3.49866e+06
3.49879e+06
3.49884e+06
3.49888e+06
3.49891e+06
3.49894e+06
3.49895e+06
3.49897e+06
3.49898e+06
3.49899e+06
3.49899e+06
3.49899e+06
3.499e+06
3.49899e+06
3.49899e+06
3.49898e+06
3.49897e+06
3.49896e+06
3.49894e+06
3.49851e+06
3.49844e+06
3.49846e+06
3.49856e+06
3.4986e+06
3.49865e+06
3.49868e+06
3.4987e+06
3.49872e+06
3.49874e+06
3.49875e+06
3.49876e+06
3.49877e+06
3.49877e+06
3.49877e+06
3.49877e+06
3.49877e+06
3.49876e+06
3.49874e+06
3.49873e+06
3.4987e+06
3.49828e+06
3.49824e+06
3.49826e+06
3.49833e+06
3.49837e+06
3.49841e+06
3.49845e+06
3.49847e+06
3.49849e+06
3.49851e+06
3.49853e+06
3.49854e+06
3.49855e+06
3.49855e+06
3.49855e+06
3.49855e+06
3.49854e+06
3.49853e+06
3.49851e+06
3.49849e+06
3.49846e+06
3.49805e+06
3.49803e+06
3.49804e+06
3.4981e+06
3.49814e+06
3.49818e+06
3.49821e+06
3.49824e+06
3.49827e+06
3.49829e+06
3.4983e+06
3.49832e+06
3.49832e+06
3.49833e+06
3.49833e+06
3.49833e+06
3.49832e+06
3.49831e+06
3.49829e+06
3.49826e+06
3.49823e+06
3.49782e+06
3.49781e+06
3.49782e+06
3.49787e+06
3.49791e+06
3.49795e+06
3.49798e+06
3.49801e+06
3.49804e+06
3.49806e+06
3.49808e+06
3.49809e+06
3.4981e+06
3.49811e+06
3.49811e+06
3.49811e+06
3.4981e+06
3.49808e+06
3.49806e+06
3.49803e+06
3.49799e+06
3.49758e+06
3.49758e+06
3.4976e+06
3.49764e+06
3.49767e+06
3.49772e+06
3.49775e+06
3.49778e+06
3.49781e+06
3.49784e+06
3.49786e+06
3.49787e+06
3.49788e+06
3.49789e+06
3.49789e+06
3.49788e+06
3.49787e+06
3.49786e+06
3.49783e+06
3.4978e+06
3.49776e+06
3.49735e+06
3.49735e+06
3.49737e+06
3.49741e+06
3.49744e+06
3.49749e+06
3.49752e+06
3.49756e+06
3.49759e+06
3.49761e+06
3.49763e+06
3.49765e+06
3.49766e+06
3.49767e+06
3.49767e+06
3.49766e+06
3.49765e+06
3.49763e+06
3.4976e+06
3.49757e+06
3.49752e+06
3.4971e+06
3.49711e+06
3.49714e+06
3.49717e+06
3.49721e+06
3.49725e+06
3.49729e+06
3.49733e+06
3.49736e+06
3.49739e+06
3.49741e+06
3.49743e+06
3.49744e+06
3.49745e+06
3.49745e+06
3.49744e+06
3.49743e+06
3.49741e+06
3.49738e+06
3.49734e+06
3.49729e+06
3.49686e+06
3.49688e+06
3.4969e+06
3.49694e+06
3.49698e+06
3.49702e+06
3.49706e+06
3.4971e+06
3.49714e+06
3.49717e+06
3.49719e+06
3.49721e+06
3.49722e+06
3.49723e+06
3.49723e+06
3.49722e+06
3.49721e+06
3.49719e+06
3.49715e+06
3.49712e+06
3.49706e+06
3.49662e+06
3.49664e+06
3.49667e+06
3.49671e+06
3.49675e+06
3.49679e+06
3.49684e+06
3.49688e+06
3.49691e+06
3.49694e+06
3.49697e+06
3.49699e+06
3.49701e+06
3.49701e+06
3.49701e+06
3.49701e+06
3.49699e+06
3.49697e+06
3.49693e+06
3.49689e+06
3.49682e+06
3.49637e+06
3.4964e+06
3.49643e+06
3.49647e+06
3.49652e+06
3.49656e+06
3.49661e+06
3.49665e+06
3.49669e+06
3.49672e+06
3.49675e+06
3.49677e+06
3.49679e+06
3.4968e+06
3.4968e+06
3.49679e+06
3.49677e+06
3.49674e+06
3.49671e+06
3.49666e+06
3.49659e+06
3.49612e+06
3.49615e+06
3.49619e+06
3.49624e+06
3.49629e+06
3.49633e+06
3.49638e+06
3.49643e+06
3.49647e+06
3.4965e+06
3.49653e+06
3.49656e+06
3.49657e+06
3.49658e+06
3.49658e+06
3.49657e+06
3.49655e+06
3.49652e+06
3.49648e+06
3.49644e+06
3.49636e+06
3.49587e+06
3.49591e+06
3.49595e+06
3.496e+06
3.49605e+06
3.4961e+06
3.49615e+06
3.4962e+06
3.49625e+06
3.49628e+06
3.49631e+06
3.49634e+06
3.49636e+06
3.49637e+06
3.49636e+06
3.49636e+06
3.49634e+06
3.49631e+06
3.49626e+06
3.49621e+06
3.49613e+06
3.49562e+06
3.49566e+06
3.49571e+06
3.49577e+06
3.49582e+06
3.49588e+06
3.49593e+06
3.49598e+06
3.49602e+06
3.49606e+06
3.4961e+06
3.49612e+06
3.49614e+06
3.49615e+06
3.49615e+06
3.49614e+06
3.49612e+06
3.49609e+06
3.49604e+06
3.49599e+06
3.4959e+06
3.49537e+06
3.49542e+06
3.49547e+06
3.49553e+06
3.49559e+06
3.49565e+06
3.4957e+06
3.49576e+06
3.4958e+06
3.49585e+06
3.49588e+06
3.49591e+06
3.49593e+06
3.49594e+06
3.49594e+06
3.49593e+06
3.4959e+06
3.49587e+06
3.49582e+06
3.49576e+06
3.49568e+06
3.49511e+06
3.49517e+06
3.49523e+06
3.49529e+06
3.49536e+06
3.49542e+06
3.49548e+06
3.49553e+06
3.49558e+06
3.49563e+06
3.49567e+06
3.49569e+06
3.49571e+06
3.49573e+06
3.49573e+06
3.49571e+06
3.49569e+06
3.49565e+06
3.4956e+06
3.49554e+06
3.49545e+06
3.49486e+06
3.49492e+06
3.49499e+06
3.49506e+06
3.49512e+06
3.49519e+06
3.49525e+06
3.49531e+06
3.49537e+06
3.49541e+06
3.49545e+06
3.49548e+06
3.4955e+06
3.49551e+06
3.49551e+06
3.4955e+06
3.49548e+06
3.49544e+06
3.49538e+06
3.49532e+06
3.49522e+06
3.4946e+06
3.49467e+06
3.49474e+06
3.49482e+06
3.49489e+06
3.49496e+06
3.49503e+06
3.49509e+06
3.49515e+06
3.4952e+06
3.49524e+06
3.49527e+06
3.49529e+06
3.4953e+06
3.4953e+06
3.49529e+06
3.49527e+06
3.49523e+06
3.49517e+06
3.4951e+06
3.495e+06
3.49434e+06
3.49442e+06
3.4945e+06
3.49458e+06
3.49466e+06
3.49473e+06
3.49481e+06
3.49487e+06
3.49493e+06
3.49498e+06
3.49503e+06
3.49506e+06
3.49508e+06
3.4951e+06
3.4951e+06
3.49508e+06
3.49505e+06
3.49501e+06
3.49495e+06
3.49488e+06
3.49478e+06
3.49409e+06
3.49417e+06
3.49426e+06
3.49434e+06
3.49443e+06
3.49451e+06
3.49458e+06
3.49465e+06
3.49472e+06
3.49477e+06
3.49482e+06
3.49485e+06
3.49488e+06
3.49489e+06
3.49489e+06
3.49487e+06
3.49485e+06
3.4948e+06
3.49474e+06
3.49467e+06
3.49456e+06
3.49383e+06
3.49392e+06
3.49401e+06
3.49411e+06
3.4942e+06
3.49428e+06
3.49436e+06
3.49443e+06
3.4945e+06
3.49456e+06
3.49461e+06
3.49464e+06
3.49467e+06
3.49468e+06
3.49468e+06
3.49467e+06
3.49464e+06
3.49459e+06
3.49453e+06
3.49445e+06
3.49434e+06
3.49357e+06
3.49367e+06
3.49377e+06
3.49387e+06
3.49397e+06
3.49406e+06
3.49414e+06
3.49422e+06
3.49429e+06
3.49435e+06
3.4944e+06
3.49444e+06
3.49446e+06
3.49448e+06
3.49448e+06
3.49446e+06
3.49443e+06
3.49439e+06
3.49432e+06
3.49424e+06
3.49412e+06
3.49331e+06
3.49342e+06
3.49353e+06
3.49363e+06
3.49374e+06
3.49383e+06
3.49392e+06
3.494e+06
3.49408e+06
3.49414e+06
3.49419e+06
3.49423e+06
3.49426e+06
3.49427e+06
3.49427e+06
3.49426e+06
3.49423e+06
3.49418e+06
3.49411e+06
3.49403e+06
3.4939e+06
3.49305e+06
3.49317e+06
3.49329e+06
3.4934e+06
3.49351e+06
3.49361e+06
3.4937e+06
3.49379e+06
3.49386e+06
3.49393e+06
3.49399e+06
3.49403e+06
3.49406e+06
3.49407e+06
3.49407e+06
3.49406e+06
3.49402e+06
3.49397e+06
3.4939e+06
3.49382e+06
3.49369e+06
3.49279e+06
3.49292e+06
3.49304e+06
3.49316e+06
3.49328e+06
3.49339e+06
3.49349e+06
3.49358e+06
3.49366e+06
3.49372e+06
3.49378e+06
3.49383e+06
3.49386e+06
3.49387e+06
3.49387e+06
3.49386e+06
3.49382e+06
3.49377e+06
3.49369e+06
3.49361e+06
3.49347e+06
3.49253e+06
3.49267e+06
3.4928e+06
3.49293e+06
3.49305e+06
3.49317e+06
3.49327e+06
3.49336e+06
3.49345e+06
3.49352e+06
3.49358e+06
3.49363e+06
3.49366e+06
3.49367e+06
3.49368e+06
3.49366e+06
3.49362e+06
3.49357e+06
3.49349e+06
3.4934e+06
3.49326e+06
3.49227e+06
3.49242e+06
3.49256e+06
3.4927e+06
3.49283e+06
3.49295e+06
3.49306e+06
3.49315e+06
3.49324e+06
3.49332e+06
3.49338e+06
3.49343e+06
3.49346e+06
3.49348e+06
3.49348e+06
3.49346e+06
3.49342e+06
3.49337e+06
3.49329e+06
3.4932e+06
3.49305e+06
3.49201e+06
3.49217e+06
3.49232e+06
3.49247e+06
3.4926e+06
3.49273e+06
3.49284e+06
3.49295e+06
3.49304e+06
3.49312e+06
3.49318e+06
3.49323e+06
3.49327e+06
3.49328e+06
3.49328e+06
3.49327e+06
3.49323e+06
3.49317e+06
3.49309e+06
3.49299e+06
3.49284e+06
3.49176e+06
3.49193e+06
3.49209e+06
3.49224e+06
3.49238e+06
3.49251e+06
3.49263e+06
3.49274e+06
3.49283e+06
3.49292e+06
3.49298e+06
3.49304e+06
3.49307e+06
3.49309e+06
3.49309e+06
3.49307e+06
3.49303e+06
3.49298e+06
3.49289e+06
3.49279e+06
3.49264e+06
3.4915e+06
3.49168e+06
3.49185e+06
3.49201e+06
3.49216e+06
3.4923e+06
3.49242e+06
3.49254e+06
3.49263e+06
3.49272e+06
3.49279e+06
3.49284e+06
3.49288e+06
3.4929e+06
3.4929e+06
3.49288e+06
3.49284e+06
3.49278e+06
3.49269e+06
3.49259e+06
3.49243e+06
3.49124e+06
3.49143e+06
3.49161e+06
3.49178e+06
3.49194e+06
3.49208e+06
3.49222e+06
3.49233e+06
3.49244e+06
3.49252e+06
3.4926e+06
3.49265e+06
3.49269e+06
3.49271e+06
3.49271e+06
3.49269e+06
3.49265e+06
3.49259e+06
3.4925e+06
3.49239e+06
3.49223e+06
3.49099e+06
3.49119e+06
3.49138e+06
3.49156e+06
3.49172e+06
3.49187e+06
3.49201e+06
3.49213e+06
3.49224e+06
3.49233e+06
3.49241e+06
3.49246e+06
3.4925e+06
3.49252e+06
3.49253e+06
3.49251e+06
3.49246e+06
3.4924e+06
3.49231e+06
3.4922e+06
3.49203e+06
3.49074e+06
3.49095e+06
3.49115e+06
3.49134e+06
3.49151e+06
3.49166e+06
3.49181e+06
3.49193e+06
3.49204e+06
3.49214e+06
3.49222e+06
3.49228e+06
3.49232e+06
3.49234e+06
3.49234e+06
3.49232e+06
3.49228e+06
3.49221e+06
3.49212e+06
3.49201e+06
3.49183e+06
3.49049e+06
3.49071e+06
3.49092e+06
3.49112e+06
3.4913e+06
3.49146e+06
3.49161e+06
3.49174e+06
3.49185e+06
3.49195e+06
3.49203e+06
3.49209e+06
3.49213e+06
3.49216e+06
3.49216e+06
3.49214e+06
3.49209e+06
3.49203e+06
3.49193e+06
3.49182e+06
3.49164e+06
3.49024e+06
3.49048e+06
3.4907e+06
3.4909e+06
3.49109e+06
3.49125e+06
3.49141e+06
3.49154e+06
3.49166e+06
3.49176e+06
3.49185e+06
3.49191e+06
3.49195e+06
3.49198e+06
3.49198e+06
3.49196e+06
3.49191e+06
3.49185e+06
3.49174e+06
3.49163e+06
3.49145e+06
3.49e+06
3.49025e+06
3.49047e+06
3.49068e+06
3.49088e+06
3.49105e+06
3.49121e+06
3.49135e+06
3.49147e+06
3.49158e+06
3.49166e+06
3.49173e+06
3.49177e+06
3.4918e+06
3.4918e+06
3.49178e+06
3.49173e+06
3.49166e+06
3.49156e+06
3.49144e+06
3.49126e+06
3.48976e+06
3.49002e+06
3.49025e+06
3.49047e+06
3.49067e+06
3.49086e+06
3.49102e+06
3.49116e+06
3.49129e+06
3.4914e+06
3.49148e+06
3.49155e+06
3.4916e+06
3.49162e+06
3.49163e+06
3.4916e+06
3.49156e+06
3.49149e+06
3.49138e+06
3.49126e+06
3.49107e+06
3.48952e+06
3.48979e+06
3.49004e+06
3.49026e+06
3.49047e+06
3.49066e+06
3.49083e+06
3.49098e+06
3.49111e+06
3.49122e+06
3.49131e+06
3.49138e+06
3.49142e+06
3.49145e+06
3.49145e+06
3.49143e+06
3.49138e+06
3.49131e+06
3.4912e+06
3.49108e+06
3.49088e+06
3.48929e+06
3.48957e+06
3.48982e+06
3.49006e+06
3.49027e+06
3.49047e+06
3.49064e+06
3.49079e+06
3.49093e+06
3.49104e+06
3.49113e+06
3.4912e+06
3.49125e+06
3.49128e+06
3.49128e+06
3.49126e+06
3.49121e+06
3.49114e+06
3.49103e+06
3.4909e+06
3.4907e+06
3.48906e+06
3.48935e+06
3.48961e+06
3.48986e+06
3.49008e+06
3.49028e+06
3.49046e+06
3.49061e+06
3.49075e+06
3.49087e+06
3.49096e+06
3.49103e+06
3.49108e+06
3.49111e+06
3.49111e+06
3.49109e+06
3.49104e+06
3.49097e+06
3.49085e+06
3.49072e+06
3.49052e+06
3.48883e+06
3.48913e+06
3.48941e+06
3.48966e+06
3.48989e+06
3.49009e+06
3.49028e+06
3.49044e+06
3.49058e+06
3.4907e+06
3.49079e+06
3.49087e+06
3.49092e+06
3.49094e+06
3.49095e+06
3.49093e+06
3.49087e+06
3.4908e+06
3.49068e+06
3.49055e+06
3.49035e+06
3.48861e+06
3.48892e+06
3.48921e+06
3.48947e+06
3.4897e+06
3.48991e+06
3.4901e+06
3.49026e+06
3.49041e+06
3.49053e+06
3.49063e+06
3.4907e+06
3.49075e+06
3.49078e+06
3.49078e+06
3.49076e+06
3.49071e+06
3.49063e+06
3.49052e+06
3.49038e+06
3.49017e+06
3.48872e+06
3.48901e+06
3.48928e+06
3.48952e+06
3.48973e+06
3.48992e+06
3.49009e+06
3.49024e+06
3.49036e+06
3.49046e+06
3.49054e+06
3.49059e+06
3.49062e+06
3.49062e+06
3.4906e+06
3.49055e+06
3.49047e+06
3.49035e+06
3.49021e+06
3.49e+06
3.48852e+06
3.48882e+06
3.48909e+06
3.48934e+06
3.48956e+06
3.48975e+06
3.48992e+06
3.49007e+06
3.4902e+06
3.4903e+06
3.49038e+06
3.49043e+06
3.49046e+06
3.49047e+06
3.49044e+06
3.49039e+06
3.49031e+06
3.49019e+06
3.49005e+06
3.48983e+06
3.48863e+06
3.48891e+06
3.48916e+06
3.48938e+06
3.48958e+06
3.48976e+06
3.48991e+06
3.49004e+06
3.49014e+06
3.49022e+06
3.49028e+06
3.49031e+06
3.49031e+06
3.49029e+06
3.49023e+06
3.49015e+06
3.49003e+06
3.48989e+06
3.48967e+06
3.48845e+06
3.48873e+06
3.48899e+06
3.48922e+06
3.48942e+06
3.4896e+06
3.48975e+06
3.48988e+06
3.48999e+06
3.49007e+06
3.49013e+06
3.49016e+06
3.49016e+06
3.49014e+06
3.49008e+06
3.49e+06
3.48987e+06
3.48973e+06
3.48951e+06
3.48827e+06
3.48856e+06
3.48882e+06
3.48905e+06
3.48926e+06
3.48944e+06
3.4896e+06
3.48973e+06
3.48984e+06
3.48992e+06
3.48998e+06
3.49001e+06
3.49001e+06
3.48999e+06
3.48993e+06
3.48985e+06
3.48972e+06
3.48957e+06
3.48935e+06
3.4881e+06
3.48839e+06
3.48866e+06
3.48889e+06
3.4891e+06
3.48929e+06
3.48945e+06
3.48958e+06
3.48969e+06
3.48977e+06
3.48983e+06
3.48986e+06
3.48986e+06
3.48984e+06
3.48978e+06
3.4897e+06
3.48957e+06
3.48942e+06
3.48919e+06
3.48793e+06
3.48823e+06
3.4885e+06
3.48874e+06
3.48895e+06
3.48914e+06
3.4893e+06
3.48944e+06
3.48955e+06
3.48963e+06
3.48969e+06
3.48972e+06
3.48972e+06
3.4897e+06
3.48964e+06
3.48955e+06
3.48942e+06
3.48927e+06
3.48904e+06
3.48777e+06
3.48807e+06
3.48834e+06
3.48859e+06
3.4888e+06
3.48899e+06
3.48916e+06
3.48929e+06
3.4894e+06
3.48949e+06
3.48955e+06
3.48958e+06
3.48958e+06
3.48956e+06
3.4895e+06
3.48941e+06
3.48928e+06
3.48913e+06
3.48889e+06
3.48761e+06
3.48792e+06
3.4882e+06
3.48844e+06
3.48866e+06
3.48885e+06
3.48901e+06
3.48915e+06
3.48926e+06
3.48935e+06
3.48941e+06
3.48944e+06
3.48944e+06
3.48942e+06
3.48936e+06
3.48927e+06
3.48914e+06
3.48898e+06
3.48874e+06
3.48746e+06
3.48777e+06
3.48805e+06
3.4883e+06
3.48852e+06
3.48871e+06
3.48888e+06
3.48902e+06
3.48913e+06
3.48922e+06
3.48928e+06
3.48931e+06
3.48931e+06
3.48928e+06
3.48922e+06
3.48913e+06
3.489e+06
3.48884e+06
3.4886e+06
3.48732e+06
3.48763e+06
3.48791e+06
3.48816e+06
3.48838e+06
3.48858e+06
3.48874e+06
3.48888e+06
3.489e+06
3.48908e+06
3.48914e+06
3.48918e+06
3.48918e+06
3.48915e+06
3.48909e+06
3.489e+06
3.48886e+06
3.48871e+06
3.48846e+06
3.48718e+06
3.48749e+06
3.48778e+06
3.48803e+06
3.48825e+06
3.48845e+06
3.48861e+06
3.48875e+06
3.48887e+06
3.48896e+06
3.48902e+06
3.48905e+06
3.48905e+06
3.48902e+06
3.48896e+06
3.48887e+06
3.48873e+06
3.48857e+06
3.48833e+06
3.48705e+06
3.48736e+06
3.48765e+06
3.4879e+06
3.48812e+06
3.48832e+06
3.48849e+06
3.48863e+06
3.48874e+06
3.48883e+06
3.48889e+06
3.48892e+06
3.48893e+06
3.4889e+06
3.48884e+06
3.48874e+06
3.4886e+06
3.48845e+06
3.48819e+06
3.48692e+06
3.48724e+06
3.48752e+06
3.48777e+06
3.488e+06
3.4882e+06
3.48836e+06
3.48851e+06
3.48862e+06
3.48871e+06
3.48877e+06
3.4888e+06
3.4888e+06
3.48878e+06
3.48871e+06
3.48862e+06
3.48848e+06
3.48832e+06
3.48807e+06
3.4868e+06
3.48712e+06
3.4874e+06
3.48765e+06
3.48788e+06
3.48808e+06
3.48825e+06
3.48839e+06
3.4885e+06
3.48859e+06
3.48865e+06
3.48868e+06
3.48869e+06
3.48866e+06
3.48859e+06
3.4885e+06
3.48836e+06
3.4882e+06
3.48794e+06
3.48669e+06
3.487e+06
3.48728e+06
3.48754e+06
3.48776e+06
3.48796e+06
3.48813e+06
3.48827e+06
3.48839e+06
3.48848e+06
3.48854e+06
3.48857e+06
3.48857e+06
3.48854e+06
3.48848e+06
3.48838e+06
3.48824e+06
3.48808e+06
3.48782e+06
3.48658e+06
3.48689e+06
3.48717e+06
3.48743e+06
3.48765e+06
3.48785e+06
3.48802e+06
3.48816e+06
3.48828e+06
3.48836e+06
3.48843e+06
3.48846e+06
3.48846e+06
3.48843e+06
3.48836e+06
3.48827e+06
3.48813e+06
3.48796e+06
3.4877e+06
3.48647e+06
3.48679e+06
3.48707e+06
3.48732e+06
3.48754e+06
3.48774e+06
3.48791e+06
3.48805e+06
3.48817e+06
3.48826e+06
3.48832e+06
3.48835e+06
3.48835e+06
3.48832e+06
3.48825e+06
3.48816e+06
3.48801e+06
3.48785e+06
3.48759e+06
3.48637e+06
3.48669e+06
3.48697e+06
3.48722e+06
3.48744e+06
3.48764e+06
3.48781e+06
3.48795e+06
3.48806e+06
3.48815e+06
3.48821e+06
3.48824e+06
3.48824e+06
3.48821e+06
3.48815e+06
3.48805e+06
3.48791e+06
3.48774e+06
3.48748e+06
3.48628e+06
3.48659e+06
3.48687e+06
3.48712e+06
3.48734e+06
3.48754e+06
3.48771e+06
3.48785e+06
3.48796e+06
3.48805e+06
3.48811e+06
3.48814e+06
3.48814e+06
3.48811e+06
3.48804e+06
3.48795e+06
3.4878e+06
3.48763e+06
3.48737e+06
3.48619e+06
3.4865e+06
3.48678e+06
3.48703e+06
3.48725e+06
3.48744e+06
3.48761e+06
3.48775e+06
3.48786e+06
3.48795e+06
3.48801e+06
3.48804e+06
3.48804e+06
3.48801e+06
3.48794e+06
3.48785e+06
3.4877e+06
3.48753e+06
3.48727e+06
3.48611e+06
3.48642e+06
3.48669e+06
3.48694e+06
3.48716e+06
3.48735e+06
3.48752e+06
3.48766e+06
3.48777e+06
3.48786e+06
3.48792e+06
3.48795e+06
3.48795e+06
3.48791e+06
3.48785e+06
3.48775e+06
3.4876e+06
3.48743e+06
3.48717e+06
3.48604e+06
3.48634e+06
3.48661e+06
3.48685e+06
3.48707e+06
3.48726e+06
3.48743e+06
3.48757e+06
3.48768e+06
3.48776e+06
3.48782e+06
3.48785e+06
3.48785e+06
3.48782e+06
3.48775e+06
3.48766e+06
3.48751e+06
3.48734e+06
3.48707e+06
3.48597e+06
3.48626e+06
3.48653e+06
3.48677e+06
3.48699e+06
3.48718e+06
3.48734e+06
3.48748e+06
3.48759e+06
3.48768e+06
3.48773e+06
3.48776e+06
3.48776e+06
3.48773e+06
3.48766e+06
3.48757e+06
3.48742e+06
3.48725e+06
3.48698e+06
3.4859e+06
3.48619e+06
3.48646e+06
3.4867e+06
3.48691e+06
3.4871e+06
3.48726e+06
3.4874e+06
3.48751e+06
3.48759e+06
3.48765e+06
3.48768e+06
3.48768e+06
3.48764e+06
3.48758e+06
3.48748e+06
3.48733e+06
3.48716e+06
3.48689e+06
3.48584e+06
3.48613e+06
3.48639e+06
3.48662e+06
3.48683e+06
3.48702e+06
3.48718e+06
3.48732e+06
3.48743e+06
3.48751e+06
3.48757e+06
3.4876e+06
3.48759e+06
3.48756e+06
3.48749e+06
3.48739e+06
3.48725e+06
3.48708e+06
3.48681e+06
3.48578e+06
3.48607e+06
3.48632e+06
3.48656e+06
3.48676e+06
3.48695e+06
3.48711e+06
3.48724e+06
3.48735e+06
3.48743e+06
3.48749e+06
3.48752e+06
3.48751e+06
3.48748e+06
3.48741e+06
3.48731e+06
3.48717e+06
3.487e+06
3.48673e+06
3.48573e+06
3.48601e+06
3.48626e+06
3.48649e+06
3.4867e+06
3.48688e+06
3.48703e+06
3.48717e+06
3.48727e+06
3.48736e+06
3.48741e+06
3.48744e+06
3.48744e+06
3.4874e+06
3.48734e+06
3.48724e+06
3.48709e+06
3.48692e+06
3.48665e+06
3.48568e+06
3.48596e+06
3.4862e+06
3.48643e+06
3.48663e+06
3.48681e+06
3.48697e+06
3.4871e+06
3.4872e+06
3.48728e+06
3.48734e+06
3.48737e+06
3.48736e+06
3.48733e+06
3.48726e+06
3.48716e+06
3.48702e+06
3.48685e+06
3.48658e+06
3.48564e+06
3.48591e+06
3.48615e+06
3.48637e+06
3.48657e+06
3.48675e+06
3.4869e+06
3.48703e+06
3.48714e+06
3.48722e+06
3.48727e+06
3.4873e+06
3.48729e+06
3.48726e+06
3.48719e+06
3.48709e+06
3.48695e+06
3.48678e+06
3.48651e+06
3.4856e+06
3.48586e+06
3.4861e+06
3.48632e+06
3.48651e+06
3.48669e+06
3.48684e+06
3.48697e+06
3.48707e+06
3.48715e+06
3.4872e+06
3.48723e+06
3.48723e+06
3.48719e+06
3.48713e+06
3.48703e+06
3.48688e+06
3.48671e+06
3.48645e+06
3.48557e+06
3.48582e+06
3.48606e+06
3.48627e+06
3.48646e+06
3.48663e+06
3.48678e+06
3.48691e+06
3.48701e+06
3.48709e+06
3.48714e+06
3.48717e+06
3.48716e+06
3.48713e+06
3.48706e+06
3.48696e+06
3.48682e+06
3.48665e+06
3.48639e+06
3.48554e+06
3.48578e+06
3.48601e+06
3.48622e+06
3.48641e+06
3.48658e+06
3.48672e+06
3.48685e+06
3.48695e+06
3.48703e+06
3.48708e+06
3.48711e+06
3.4871e+06
3.48707e+06
3.487e+06
3.4869e+06
3.48676e+06
3.48659e+06
3.48633e+06
3.48551e+06
3.48575e+06
3.48597e+06
3.48618e+06
3.48636e+06
3.48653e+06
3.48667e+06
3.4868e+06
3.4869e+06
3.48697e+06
3.48702e+06
3.48705e+06
3.48705e+06
3.48701e+06
3.48695e+06
3.48685e+06
3.4867e+06
3.48654e+06
3.48627e+06
3.48549e+06
3.48572e+06
3.48594e+06
3.48614e+06
3.48632e+06
3.48648e+06
3.48662e+06
3.48674e+06
3.48684e+06
3.48692e+06
3.48697e+06
3.48699e+06
3.48699e+06
3.48696e+06
3.48689e+06
3.4868e+06
3.48665e+06
3.48648e+06
3.48622e+06
3.48546e+06
3.48569e+06
3.48591e+06
3.4861e+06
3.48628e+06
3.48644e+06
3.48658e+06
3.4867e+06
3.48679e+06
3.48687e+06
3.48692e+06
3.48694e+06
3.48694e+06
3.48691e+06
3.48684e+06
3.48675e+06
3.4866e+06
3.48644e+06
3.48618e+06
3.48545e+06
3.48567e+06
3.48588e+06
3.48607e+06
3.48624e+06
3.4864e+06
3.48653e+06
3.48665e+06
3.48675e+06
3.48682e+06
3.48543e+06
3.48565e+06
3.48585e+06
3.48604e+06
3.48621e+06
3.48636e+06
3.48649e+06
3.49959e+06
3.49911e+06
3.49906e+06
3.49979e+06
3.49985e+06
3.49987e+06
3.49987e+06
3.49988e+06
3.49988e+06
3.49988e+06
3.49988e+06
3.49988e+06
3.49989e+06
3.49989e+06
3.49989e+06
3.49989e+06
3.49989e+06
3.49989e+06
3.49989e+06
3.49989e+06
3.49988e+06
3.49936e+06
3.49894e+06
3.49906e+06
3.49953e+06
3.49958e+06
3.49961e+06
3.49963e+06
3.49964e+06
3.49964e+06
3.49965e+06
3.49965e+06
3.49966e+06
3.49966e+06
3.49966e+06
3.49966e+06
3.49966e+06
3.49966e+06
3.49966e+06
3.49966e+06
3.49966e+06
3.49965e+06
3.49918e+06
3.49894e+06
3.499e+06
3.49927e+06
3.49932e+06
3.49937e+06
3.49939e+06
3.4994e+06
3.49941e+06
3.49942e+06
3.49943e+06
3.49943e+06
3.49944e+06
3.49944e+06
3.49944e+06
3.49944e+06
3.49944e+06
3.49944e+06
3.49943e+06
3.49942e+06
3.49941e+06
3.49896e+06
3.49881e+06
3.49884e+06
3.49903e+06
3.49907e+06
3.49912e+06
3.49915e+06
3.49917e+06
3.49918e+06
3.49919e+06
3.4992e+06
3.49921e+06
3.49921e+06
3.49922e+06
3.49922e+06
3.49922e+06
3.49921e+06
3.49921e+06
3.4992e+06
3.49919e+06
3.49917e+06
3.49873e+06
3.49863e+06
3.49866e+06
3.49879e+06
3.49884e+06
3.49888e+06
3.49891e+06
3.49894e+06
3.49895e+06
3.49897e+06
3.49898e+06
3.49899e+06
3.49899e+06
3.49899e+06
3.499e+06
3.49899e+06
3.49899e+06
3.49898e+06
3.49897e+06
3.49896e+06
3.49894e+06
3.49851e+06
3.49844e+06
3.49846e+06
3.49856e+06
3.4986e+06
3.49865e+06
3.49868e+06
3.4987e+06
3.49872e+06
3.49874e+06
3.49875e+06
3.49876e+06
3.49877e+06
3.49877e+06
3.49877e+06
3.49877e+06
3.49877e+06
3.49876e+06
3.49874e+06
3.49873e+06
3.4987e+06
3.49828e+06
3.49824e+06
3.49826e+06
3.49833e+06
3.49837e+06
3.49841e+06
3.49845e+06
3.49847e+06
3.49849e+06
3.49851e+06
3.49853e+06
3.49854e+06
3.49855e+06
3.49855e+06
3.49855e+06
3.49855e+06
3.49854e+06
3.49853e+06
3.49851e+06
3.49849e+06
3.49846e+06
3.49805e+06
3.49803e+06
3.49804e+06
3.4981e+06
3.49814e+06
3.49818e+06
3.49821e+06
3.49824e+06
3.49827e+06
3.49829e+06
3.4983e+06
3.49832e+06
3.49832e+06
3.49833e+06
3.49833e+06
3.49833e+06
3.49832e+06
3.49831e+06
3.49829e+06
3.49826e+06
3.49823e+06
3.49782e+06
3.49781e+06
3.49782e+06
3.49787e+06
3.49791e+06
3.49795e+06
3.49798e+06
3.49801e+06
3.49804e+06
3.49806e+06
3.49808e+06
3.49809e+06
3.4981e+06
3.49811e+06
3.49811e+06
3.49811e+06
3.4981e+06
3.49808e+06
3.49806e+06
3.49803e+06
3.49799e+06
3.49758e+06
3.49758e+06
3.4976e+06
3.49764e+06
3.49767e+06
3.49772e+06
3.49775e+06
3.49778e+06
3.49781e+06
3.49784e+06
3.49786e+06
3.49787e+06
3.49788e+06
3.49789e+06
3.49789e+06
3.49788e+06
3.49787e+06
3.49786e+06
3.49783e+06
3.4978e+06
3.49776e+06
3.49735e+06
3.49735e+06
3.49737e+06
3.49741e+06
3.49744e+06
3.49749e+06
3.49752e+06
3.49756e+06
3.49759e+06
3.49761e+06
3.49763e+06
3.49765e+06
3.49766e+06
3.49767e+06
3.49767e+06
3.49766e+06
3.49765e+06
3.49763e+06
3.4976e+06
3.49757e+06
3.49752e+06
3.4971e+06
3.49711e+06
3.49714e+06
3.49717e+06
3.49721e+06
3.49725e+06
3.49729e+06
3.49733e+06
3.49736e+06
3.49739e+06
3.49741e+06
3.49743e+06
3.49744e+06
3.49745e+06
3.49745e+06
3.49744e+06
3.49743e+06
3.49741e+06
3.49738e+06
3.49734e+06
3.49729e+06
3.49686e+06
3.49688e+06
3.4969e+06
3.49694e+06
3.49698e+06
3.49702e+06
3.49706e+06
3.4971e+06
3.49714e+06
3.49717e+06
3.49719e+06
3.49721e+06
3.49722e+06
3.49723e+06
3.49723e+06
3.49722e+06
3.49721e+06
3.49719e+06
3.49715e+06
3.49712e+06
3.49706e+06
3.49662e+06
3.49664e+06
3.49667e+06
3.49671e+06
3.49675e+06
3.49679e+06
3.49684e+06
3.49688e+06
3.49691e+06
3.49694e+06
3.49697e+06
3.49699e+06
3.49701e+06
3.49701e+06
3.49701e+06
3.49701e+06
3.49699e+06
3.49697e+06
3.49693e+06
3.49689e+06
3.49682e+06
3.49637e+06
3.4964e+06
3.49643e+06
3.49647e+06
3.49652e+06
3.49656e+06
3.49661e+06
3.49665e+06
3.49669e+06
3.49672e+06
3.49675e+06
3.49677e+06
3.49679e+06
3.4968e+06
3.4968e+06
3.49679e+06
3.49677e+06
3.49674e+06
3.49671e+06
3.49666e+06
3.49659e+06
3.49612e+06
3.49615e+06
3.49619e+06
3.49624e+06
3.49629e+06
3.49633e+06
3.49638e+06
3.49643e+06
3.49647e+06
3.4965e+06
3.49653e+06
3.49656e+06
3.49657e+06
3.49658e+06
3.49658e+06
3.49657e+06
3.49655e+06
3.49652e+06
3.49648e+06
3.49644e+06
3.49636e+06
3.49587e+06
3.49591e+06
3.49595e+06
3.496e+06
3.49605e+06
3.4961e+06
3.49615e+06
3.4962e+06
3.49625e+06
3.49628e+06
3.49631e+06
3.49634e+06
3.49636e+06
3.49637e+06
3.49636e+06
3.49636e+06
3.49634e+06
3.49631e+06
3.49626e+06
3.49621e+06
3.49613e+06
3.49562e+06
3.49566e+06
3.49571e+06
3.49577e+06
3.49582e+06
3.49588e+06
3.49593e+06
3.49598e+06
3.49602e+06
3.49606e+06
3.4961e+06
3.49612e+06
3.49614e+06
3.49615e+06
3.49615e+06
3.49614e+06
3.49612e+06
3.49609e+06
3.49604e+06
3.49599e+06
3.4959e+06
3.49537e+06
3.49542e+06
3.49547e+06
3.49553e+06
3.49559e+06
3.49565e+06
3.4957e+06
3.49576e+06
3.4958e+06
3.49585e+06
3.49588e+06
3.49591e+06
3.49593e+06
3.49594e+06
3.49594e+06
3.49593e+06
3.4959e+06
3.49587e+06
3.49582e+06
3.49576e+06
3.49568e+06
3.49511e+06
3.49517e+06
3.49523e+06
3.49529e+06
3.49536e+06
3.49542e+06
3.49548e+06
3.49553e+06
3.49558e+06
3.49563e+06
3.49567e+06
3.49569e+06
3.49571e+06
3.49573e+06
3.49573e+06
3.49571e+06
3.49569e+06
3.49565e+06
3.4956e+06
3.49554e+06
3.49545e+06
3.49486e+06
3.49492e+06
3.49499e+06
3.49506e+06
3.49512e+06
3.49519e+06
3.49525e+06
3.49531e+06
3.49537e+06
3.49541e+06
3.49545e+06
3.49548e+06
3.4955e+06
3.49551e+06
3.49551e+06
3.4955e+06
3.49548e+06
3.49544e+06
3.49538e+06
3.49532e+06
3.49522e+06
3.4946e+06
3.49467e+06
3.49474e+06
3.49482e+06
3.49489e+06
3.49496e+06
3.49503e+06
3.49509e+06
3.49515e+06
3.4952e+06
3.49524e+06
3.49527e+06
3.49529e+06
3.4953e+06
3.4953e+06
3.49529e+06
3.49527e+06
3.49523e+06
3.49517e+06
3.4951e+06
3.495e+06
3.49434e+06
3.49442e+06
3.4945e+06
3.49458e+06
3.49466e+06
3.49473e+06
3.49481e+06
3.49487e+06
3.49493e+06
3.49498e+06
3.49503e+06
3.49506e+06
3.49508e+06
3.4951e+06
3.4951e+06
3.49508e+06
3.49505e+06
3.49501e+06
3.49495e+06
3.49488e+06
3.49478e+06
3.49409e+06
3.49417e+06
3.49426e+06
3.49434e+06
3.49443e+06
3.49451e+06
3.49458e+06
3.49465e+06
3.49472e+06
3.49477e+06
3.49482e+06
3.49485e+06
3.49488e+06
3.49489e+06
3.49489e+06
3.49487e+06
3.49485e+06
3.4948e+06
3.49474e+06
3.49467e+06
3.49456e+06
3.49383e+06
3.49392e+06
3.49401e+06
3.49411e+06
3.4942e+06
3.49428e+06
3.49436e+06
3.49443e+06
3.4945e+06
3.49456e+06
3.49461e+06
3.49464e+06
3.49467e+06
3.49468e+06
3.49468e+06
3.49467e+06
3.49464e+06
3.49459e+06
3.49453e+06
3.49445e+06
3.49434e+06
3.49357e+06
3.49367e+06
3.49377e+06
3.49387e+06
3.49397e+06
3.49406e+06
3.49414e+06
3.49422e+06
3.49429e+06
3.49435e+06
3.4944e+06
3.49444e+06
3.49446e+06
3.49448e+06
3.49448e+06
3.49446e+06
3.49443e+06
3.49439e+06
3.49432e+06
3.49424e+06
3.49412e+06
3.49331e+06
3.49342e+06
3.49353e+06
3.49363e+06
3.49374e+06
3.49383e+06
3.49392e+06
3.494e+06
3.49408e+06
3.49414e+06
3.49419e+06
3.49423e+06
3.49426e+06
3.49427e+06
3.49427e+06
3.49426e+06
3.49423e+06
3.49418e+06
3.49411e+06
3.49403e+06
3.4939e+06
3.49305e+06
3.49317e+06
3.49329e+06
3.4934e+06
3.49351e+06
3.49361e+06
3.4937e+06
3.49379e+06
3.49386e+06
3.49393e+06
3.49399e+06
3.49403e+06
3.49406e+06
3.49407e+06
3.49407e+06
3.49406e+06
3.49402e+06
3.49397e+06
3.4939e+06
3.49382e+06
3.49369e+06
3.49279e+06
3.49292e+06
3.49304e+06
3.49316e+06
3.49328e+06
3.49339e+06
3.49349e+06
3.49358e+06
3.49366e+06
3.49372e+06
3.49378e+06
3.49383e+06
3.49386e+06
3.49387e+06
3.49387e+06
3.49386e+06
3.49382e+06
3.49377e+06
3.49369e+06
3.49361e+06
3.49347e+06
3.49253e+06
3.49267e+06
3.4928e+06
3.49293e+06
3.49305e+06
3.49317e+06
3.49327e+06
3.49336e+06
3.49345e+06
3.49352e+06
3.49358e+06
3.49363e+06
3.49366e+06
3.49367e+06
3.49368e+06
3.49366e+06
3.49362e+06
3.49357e+06
3.49349e+06
3.4934e+06
3.49326e+06
3.49227e+06
3.49242e+06
3.49256e+06
3.4927e+06
3.49283e+06
3.49295e+06
3.49306e+06
3.49315e+06
3.49324e+06
3.49332e+06
3.49338e+06
3.49343e+06
3.49346e+06
3.49348e+06
3.49348e+06
3.49346e+06
3.49342e+06
3.49337e+06
3.49329e+06
3.4932e+06
3.49305e+06
3.49201e+06
3.49217e+06
3.49232e+06
3.49247e+06
3.4926e+06
3.49273e+06
3.49284e+06
3.49295e+06
3.49304e+06
3.49312e+06
3.49318e+06
3.49323e+06
3.49327e+06
3.49328e+06
3.49328e+06
3.49327e+06
3.49323e+06
3.49317e+06
3.49309e+06
3.49299e+06
3.49284e+06
3.49176e+06
3.49193e+06
3.49209e+06
3.49224e+06
3.49238e+06
3.49251e+06
3.49263e+06
3.49274e+06
3.49283e+06
3.49292e+06
3.49298e+06
3.49304e+06
3.49307e+06
3.49309e+06
3.49309e+06
3.49307e+06
3.49303e+06
3.49298e+06
3.49289e+06
3.49279e+06
3.49264e+06
3.4915e+06
3.49168e+06
3.49185e+06
3.49201e+06
3.49216e+06
3.4923e+06
3.49242e+06
3.49254e+06
3.49263e+06
3.49272e+06
3.49279e+06
3.49284e+06
3.49288e+06
3.4929e+06
3.4929e+06
3.49288e+06
3.49284e+06
3.49278e+06
3.49269e+06
3.49259e+06
3.49243e+06
3.49124e+06
3.49143e+06
3.49161e+06
3.49178e+06
3.49194e+06
3.49208e+06
3.49222e+06
3.49233e+06
3.49244e+06
3.49252e+06
3.4926e+06
3.49265e+06
3.49269e+06
3.49271e+06
3.49271e+06
3.49269e+06
3.49265e+06
3.49259e+06
3.4925e+06
3.49239e+06
3.49223e+06
3.49099e+06
3.49119e+06
3.49138e+06
3.49156e+06
3.49172e+06
3.49187e+06
3.49201e+06
3.49213e+06
3.49224e+06
3.49233e+06
3.49241e+06
3.49246e+06
3.4925e+06
3.49252e+06
3.49253e+06
3.49251e+06
3.49246e+06
3.4924e+06
3.49231e+06
3.4922e+06
3.49203e+06
3.49074e+06
3.49095e+06
3.49115e+06
3.49134e+06
3.49151e+06
3.49166e+06
3.49181e+06
3.49193e+06
3.49204e+06
3.49214e+06
3.49222e+06
3.49228e+06
3.49232e+06
3.49234e+06
3.49234e+06
3.49232e+06
3.49228e+06
3.49221e+06
3.49212e+06
3.49201e+06
3.49183e+06
3.49049e+06
3.49071e+06