/*--------------------------------*- C++ -*----------------------------------*\
| =========                 |                                                 |
| \\      /  F ield         | OpenFOAM: The Open Source CFD Toolbox           |
|  \\    /   O peration     | Version:  v2012                                 |
|   \\  /    A nd           | Website:  www.openfoam.com                      |
|    \\/     M anipulation  |                                                 |
\*---------------------------------------------------------------------------*/
FoamFile
{
    version     2.0;
    format      ascii;
    class       surfaceScalarField;
    location    "0.65";
    object      phi;
}
// * * * * * * * * * * * * * * * * * * * * * * * * * * * * * * * * * * * * * //

dimensions      [0 3 -1 0 0 0 0];
oriented        oriented;


internalField   nonuniform List<scalar> 
8145
(
3.76735e-10
-1.78331e-09
1.76485e-15
3.10399e-10
-1.67904e-09
9.5185e-16
2.46116e-10
-1.55577e-09
7.61564e-16
1.85074e-10
-1.40874e-09
5.39316e-16
1.28743e-10
-1.23304e-09
4.93603e-16
7.90082e-11
-1.02352e-09
4.90378e-16
3.83942e-11
-7.73697e-10
5.34614e-16
1.0407e-11
-4.76466e-10
6.88161e-16
-1.26089e-10
9.34867e-16
5.819e-10
-1.95074e-09
9.40874e-17
5.13588e-10
-1.88125e-09
1.41561e-15
4.45026e-10
-1.80392e-09
2.75879e-15
3.76937e-10
-1.7152e-09
1.67623e-15
3.10142e-10
-1.61223e-09
1.03177e-15
2.45597e-10
-1.49122e-09
7.10968e-16
1.8446e-10
-1.34759e-09
5.74554e-16
1.28171e-10
-1.17674e-09
4.43738e-16
7.85719e-11
-9.73909e-10
4.90171e-16
3.81382e-11
-7.33254e-10
4.90811e-16
1.03167e-11
-4.48632e-10
6.7723e-16
-1.15757e-10
8.75477e-16
3.154e-10
-8.98886e-10
-3.8405e-15
3.69036e-10
-1.01134e-09
-1.86952e-15
4.26509e-10
-1.12736e-09
1.94279e-15
4.87286e-10
-1.24584e-09
4.6522e-15
5.50673e-10
-1.36547e-09
-2.29624e-16
6.15978e-10
-1.4849e-09
-5.08456e-17
6.82324e-10
-1.60283e-09
-2.79165e-15
7.48799e-10
-1.71756e-09
-3.23922e-15
8.14421e-10
-1.82788e-09
-2.04796e-15
8.78161e-10
-1.9322e-09
-1.56568e-15
9.38993e-10
-2.02934e-09
-3.30371e-16
9.95908e-10
-2.11812e-09
-1.85762e-17
1.04796e-09
-2.19733e-09
2.41283e-16
1.09428e-09
-2.26658e-09
-2.93751e-16
1.1341e-09
-2.32487e-09
-2.57617e-16
1.1668e-09
-2.37212e-09
-2.62383e-16
1.19189e-09
-2.40821e-09
-2.13474e-16
1.20905e-09
-2.43321e-09
-8.92548e-16
1.21806e-09
-2.44751e-09
-8.99573e-16
1.21892e-09
-2.45165e-09
-1.32887e-15
1.21171e-09
-2.44641e-09
-1.08232e-15
1.19666e-09
-2.43252e-09
-1.65599e-15
1.17413e-09
-2.41098e-09
-1.38527e-15
1.14452e-09
-2.38269e-09
-1.67766e-15
1.10836e-09
-2.3481e-09
-1.24728e-15
1.06617e-09
-2.30942e-09
-1.3987e-15
1.01856e-09
-2.26596e-09
-8.05155e-16
9.66111e-10
-2.21967e-09
-7.59545e-16
9.09447e-10
-2.17015e-09
-1.37581e-16
8.49188e-10
-2.11774e-09
-5.21438e-19
7.85894e-10
-2.06389e-09
4.88351e-16
7.20201e-10
-2.00654e-09
5.90982e-16
6.52667e-10
-1.94646e-09
8.75233e-16
5.83894e-10
-1.88196e-09
3.31712e-16
5.14508e-10
-1.81184e-09
1.48148e-15
4.45128e-10
-1.73452e-09
2.27372e-15
3.76466e-10
-1.64652e-09
1.66988e-15
3.09317e-10
-1.54506e-09
9.75854e-16
2.44614e-10
-1.4265e-09
7.71386e-16
1.83487e-10
-1.28646e-09
5.26281e-16
1.27339e-10
-1.12058e-09
4.60982e-16
7.79684e-11
-9.2453e-10
4.21043e-16
3.77956e-11
-6.93072e-10
4.77555e-16
1.02004e-11
-4.21026e-10
5.99265e-16
-1.05543e-10
8.05441e-16
3.44661e-10
-9.5231e-10
-1.05534e-14
4.02426e-10
-1.06907e-09
3.66784e-15
4.64054e-10
-1.18894e-09
4.52687e-15
5.28935e-10
-1.31067e-09
5.70094e-15
5.96281e-10
-1.43281e-09
7.93321e-16
6.65298e-10
-1.5539e-09
2.33525e-15
7.35012e-10
-1.67254e-09
2.78983e-16
8.04414e-10
-1.78695e-09
6.0491e-16
8.72439e-10
-1.89589e-09
1.11157e-15
9.37984e-10
-1.99773e-09
1.69652e-15
9.99972e-10
-2.09131e-09
1.66482e-15
1.05736e-09
-2.17549e-09
2.06212e-15
1.10918e-09
-2.24914e-09
1.18793e-15
1.15458e-09
-2.31197e-09
1.11698e-15
1.19284e-09
-2.36312e-09
2.43925e-16
1.22336e-09
-2.40264e-09
8.5731e-16
1.24574e-09
-2.43059e-09
5.28563e-17
1.25972e-09
-2.44718e-09
9.98967e-17
1.2652e-09
-2.45299e-09
-7.81142e-16
1.26224e-09
-2.44869e-09
-5.68767e-16
1.25104e-09
-2.43521e-09
-1.20316e-15
1.23191e-09
-2.41341e-09
-1.11827e-15
1.2053e-09
-2.38437e-09
-1.6024e-15
1.17169e-09
-2.3491e-09
-1.25933e-15
1.13168e-09
-2.3081e-09
-1.45821e-15
1.08584e-09
-2.26359e-09
-1.01926e-15
1.03483e-09
-2.21495e-09
-9.97152e-16
9.79255e-10
-2.1641e-09
-4.69465e-16
9.19771e-10
-2.11066e-09
-3.25396e-16
8.57011e-10
-2.05497e-09
2.02671e-16
7.91535e-10
-1.99841e-09
3.05533e-16
7.23978e-10
-1.93897e-09
7.43419e-16
6.54893e-10
-1.87737e-09
8.34968e-16
5.84868e-10
-1.81193e-09
7.49748e-16
5.1451e-10
-1.74147e-09
1.33254e-15
4.4442e-10
-1.6644e-09
2.0046e-15
3.75293e-10
-1.57737e-09
1.46993e-15
3.07902e-10
-1.47766e-09
1.0282e-15
2.43151e-10
-1.36174e-09
7.25348e-16
1.82141e-10
-1.22544e-09
5.68068e-16
1.26238e-10
-1.06467e-09
4.07419e-16
7.71918e-11
-8.75477e-10
4.14735e-16
3.73636e-11
-6.53235e-10
4.1409e-16
1.00567e-11
-3.93708e-10
5.6517e-16
-9.54731e-11
7.22558e-16
3.77086e-10
-1.01013e-09
-1.35473e-14
4.39296e-10
-1.13129e-09
-1.65208e-15
5.05388e-10
-1.255e-09
3.34825e-15
5.74645e-10
-1.37987e-09
6.2046e-15
6.46148e-10
-1.50431e-09
1.98247e-16
7.19004e-10
-1.62674e-09
1.14851e-15
7.92133e-10
-1.74567e-09
-7.445e-16
8.64426e-10
-1.85925e-09
-1.29255e-15
9.34733e-10
-1.96619e-09
-1.51186e-16
1.00188e-09
-2.06487e-09
1.81872e-16
1.06475e-09
-2.15416e-09
1.15838e-15
1.12226e-09
-2.23299e-09
1.20172e-15
1.17346e-09
-2.30032e-09
1.35271e-15
1.2175e-09
-2.35601e-09
8.02605e-16
1.25372e-09
-2.39932e-09
8.81024e-16
1.28159e-09
-2.4305e-09
7.82009e-16
1.30077e-09
-2.44977e-09
8.21915e-16
1.31112e-09
-2.45752e-09
7.59043e-17
1.31262e-09
-2.4545e-09
-5.19e-17
1.30545e-09
-2.44152e-09
-7.23221e-16
1.28991e-09
-2.41967e-09
-6.80596e-16
1.26641e-09
-2.38992e-09
-1.41455e-15
1.23547e-09
-2.35344e-09
-1.21876e-15
1.19767e-09
-2.31131e-09
-1.58277e-15
1.15367e-09
-2.26409e-09
-1.11994e-15
1.10408e-09
-2.21402e-09
-1.27364e-15
1.04961e-09
-2.16048e-09
-6.82193e-16
9.90902e-10
-2.1054e-09
-6.74819e-16
9.28618e-10
-2.04838e-09
-5.75379e-17
8.63402e-10
-1.98974e-09
3.51936e-17
7.95812e-10
-1.93082e-09
5.13507e-16
7.26478e-10
-1.86962e-09
6.19032e-16
6.55939e-10
-1.80681e-09
1.06849e-15
5.84769e-10
-1.74075e-09
8.53827e-16
5.13552e-10
-1.67023e-09
1.36078e-15
4.42868e-10
-1.5937e-09
1.58297e-15
3.73394e-10
-1.50788e-09
1.39978e-15
3.05877e-10
-1.41012e-09
9.40893e-16
2.41193e-10
-1.29704e-09
7.84856e-16
1.80412e-10
-1.16465e-09
5.26295e-16
1.2486e-10
-1.00911e-09
4.33787e-16
7.62377e-11
-8.26848e-10
3.58873e-16
3.68394e-11
-6.13829e-10
4.0847e-16
9.88515e-12
-3.66744e-10
4.99861e-16
-8.55761e-11
6.77889e-16
4.13193e-10
-1.07263e-09
-4.55657e-15
4.80181e-10
-1.1983e-09
-3.05611e-15
5.51011e-10
-1.32584e-09
-2.34921e-15
6.24889e-10
-1.4537e-09
5.18906e-15
7.00722e-10
-1.58017e-09
-2.91407e-15
7.7751e-10
-1.70354e-09
-1.24075e-15
8.54063e-10
-1.82224e-09
-2.40111e-15
9.29165e-10
-1.93436e-09
-1.56849e-15
1.00158e-09
-2.0386e-09
-3.57632e-16
1.07007e-09
-2.13335e-09
9.40825e-16
1.13347e-09
-2.21754e-09
1.33917e-15
1.1907e-09
-2.29019e-09
2.0968e-15
1.2408e-09
-2.3504e-09
1.40031e-15
1.28298e-09
-2.39817e-09
1.66479e-15
1.31663e-09
-2.43295e-09
8.28377e-16
1.34131e-09
-2.45517e-09
1.54469e-15
1.35678e-09
-2.46523e-09
6.50504e-16
1.363e-09
-2.46373e-09
7.76387e-16
1.36008e-09
-2.45157e-09
-2.79867e-16
1.34829e-09
-2.42974e-09
-1.73005e-16
1.32806e-09
-2.39944e-09
-1.03868e-15
1.29988e-09
-2.36176e-09
-1.02334e-15
1.26439e-09
-2.31795e-09
-1.61479e-15
1.22222e-09
-2.26915e-09
-1.26914e-15
1.17409e-09
-2.21597e-09
-1.46124e-15
1.12069e-09
-2.16062e-09
-9.66268e-16
1.06274e-09
-2.10253e-09
-9.36537e-16
1.0009e-09
-2.04357e-09
-3.86964e-16
9.35855e-10
-1.98333e-09
-2.4246e-16
8.68248e-10
-1.92213e-09
2.85224e-16
7.98632e-10
-1.8612e-09
3.68968e-16
7.27622e-10
-1.7986e-09
8.15753e-16
6.55742e-10
-1.73492e-09
1.00919e-15
5.83546e-10
-1.66854e-09
1.10762e-15
5.11593e-10
-1.59826e-09
1.13872e-15
4.40441e-10
-1.52253e-09
1.37862e-15
3.70745e-10
-1.43816e-09
1.15801e-15
3.03224e-10
-1.34259e-09
9.68991e-16
2.38727e-10
-1.23253e-09
7.29754e-16
1.7829e-10
-1.1042e-09
5.73675e-16
1.23199e-10
-9.54014e-10
3.89637e-16
7.51013e-11
-7.78743e-10
3.69501e-16
3.62209e-11
-5.74941e-10
3.57286e-16
9.68455e-12
-3.40199e-10
4.83241e-16
-7.58803e-11
6.19252e-16
4.53268e-10
-1.14028e-09
-6.4995e-15
5.25444e-10
-1.27047e-09
-6.67897e-16
6.01357e-10
-1.40172e-09
1.5549e-15
6.80118e-10
-1.53233e-09
1.4415e-14
7.60458e-10
-1.66046e-09
5.27637e-15
8.41255e-10
-1.78429e-09
4.15665e-15
9.21198e-10
-1.90217e-09
1.53126e-15
9.98969e-10
-2.01212e-09
1.04061e-16
1.07325e-09
-2.11287e-09
1.02849e-15
1.14275e-09
-2.20283e-09
9.81e-16
1.20626e-09
-2.28103e-09
1.88183e-15
1.26271e-09
-2.34662e-09
1.65183e-15
1.31117e-09
-2.39885e-09
1.82118e-15
1.35092e-09
-2.43791e-09
1.28638e-15
1.38142e-09
-2.46343e-09
1.39092e-15
1.40232e-09
-2.47607e-09
1.19415e-15
1.41353e-09
-2.47643e-09
1.20371e-15
1.4151e-09
-2.46529e-09
4.26296e-16
1.40727e-09
-2.44375e-09
2.32769e-16
1.39046e-09
-2.41293e-09
-6.05079e-16
1.36518e-09
-2.37417e-09
-6.70888e-16
1.33205e-09
-2.32864e-09
-1.51136e-15
1.29178e-09
-2.27769e-09
-1.32098e-15
1.24508e-09
-2.22247e-09
-1.72099e-15
1.19274e-09
-2.16363e-09
-1.18216e-15
1.13546e-09
-2.10336e-09
-1.31256e-15
1.07402e-09
-2.04109e-09
-6.49968e-16
1.00909e-09
-1.97864e-09
-6.30118e-16
9.41346e-10
-1.91559e-09
3.28034e-17
8.71438e-10
-1.85221e-09
1.14731e-16
7.99899e-10
-1.78966e-09
5.97382e-16
7.27333e-10
-1.72602e-09
6.86882e-16
6.54239e-10
-1.66181e-09
1.20105e-15
5.8115e-10
-1.59543e-09
1.05767e-15
5.08596e-10
-1.52569e-09
1.12522e-15
4.3711e-10
-1.45103e-09
1.0266e-15
3.67323e-10
-1.36836e-09
1.09268e-15
2.99928e-10
-1.27518e-09
8.66675e-16
2.35742e-10
-1.16834e-09
7.81524e-16
1.75768e-10
-1.04421e-09
5.33258e-16
1.2125e-10
-8.99488e-10
4.25298e-16
7.37796e-11
-7.31265e-10
3.28856e-16
3.55058e-11
-5.36661e-10
3.65601e-16
9.4545e-12
-3.14139e-10
4.35352e-16
-6.64152e-11
5.97293e-16
4.98017e-10
-1.2135e-09
-4.88266e-15
5.7575e-10
-1.34819e-09
5.60535e-16
6.57065e-10
-1.48302e-09
1.3409e-15
7.40908e-10
-1.6161e-09
9.45373e-15
8.25875e-10
-1.74544e-09
-1.01059e-15
9.10701e-10
-1.86913e-09
-8.91258e-16
9.93944e-10
-1.98545e-09
-3.29974e-15
1.07418e-09
-2.09238e-09
-3.2557e-15
1.15001e-09
-2.18871e-09
-1.99762e-15
1.22009e-09
-2.27292e-09
-5.03047e-16
1.28321e-09
-2.34415e-09
2.93408e-16
1.3383e-09
-2.40171e-09
1.34686e-15
1.38451e-09
-2.44504e-09
9.42124e-16
1.42118e-09
-2.47456e-09
1.57721e-15
1.44787e-09
-2.49011e-09
8.13391e-16
1.46437e-09
-2.49256e-09
1.62294e-15
1.47071e-09
-2.48275e-09
6.4198e-16
1.46708e-09
-2.46166e-09
8.60953e-16
1.45388e-09
-2.43054e-09
-3.22789e-16
1.43163e-09
-2.39067e-09
-2.67316e-16
1.40096e-09
-2.34351e-09
-1.27722e-15
1.3626e-09
-2.2903e-09
-1.262e-15
1.31735e-09
-2.23245e-09
-1.88498e-15
1.26599e-09
-2.17113e-09
-1.49756e-15
1.20935e-09
-2.107e-09
-1.64284e-15
1.14819e-09
-2.04221e-09
-1.06775e-15
1.08328e-09
-1.97619e-09
-9.78856e-16
1.01531e-09
-1.91067e-09
-3.6545e-16
9.44958e-10
-1.84524e-09
-1.8486e-16
8.72856e-10
-1.7801e-09
3.63297e-16
7.99523e-10
-1.71632e-09
4.40342e-16
7.25536e-10
-1.65201e-09
8.77866e-16
6.51372e-10
-1.58764e-09
1.08754e-15
5.77535e-10
-1.52158e-09
1.21366e-15
5.04525e-10
-1.45266e-09
9.08901e-16
4.32849e-10
-1.37934e-09
9.31118e-16
3.63111e-10
-1.29861e-09
8.9087e-16
2.95975e-10
-1.20803e-09
8.97148e-16
2.32229e-10
-1.10458e-09
7.20611e-16
1.72839e-10
-9.84815e-10
5.82501e-16
1.19008e-10
-8.45649e-10
3.8873e-16
7.22694e-11
-6.8452e-10
3.53088e-16
3.46928e-11
-4.99077e-10
3.27194e-16
9.19416e-12
-2.88632e-10
4.34348e-16
-5.72108e-11
5.57374e-16
5.47825e-10
-1.29283e-09
-9.87232e-15
6.31547e-10
-1.43193e-09
-2.42384e-15
7.18608e-10
-1.57005e-09
1.96395e-15
8.07787e-10
-1.70517e-09
1.25789e-14
8.97501e-10
-1.83512e-09
3.61634e-15
9.8634e-10
-1.95792e-09
4.06099e-15
1.07273e-09
-2.07182e-09
1.31973e-15
1.15513e-09
-2.17479e-09
-7.87192e-16
1.2321e-09
-2.26567e-09
6.337e-17
1.30224e-09
-2.34306e-09
-2.99097e-16
1.36436e-09
-2.40626e-09
9.07379e-16
1.41743e-09
-2.45478e-09
7.08852e-16
1.46067e-09
-2.48827e-09
1.22928e-15
1.49353e-09
-2.5074e-09
8.94068e-16
1.51571e-09
-2.51227e-09
1.15946e-15
1.52713e-09
-2.50398e-09
9.33007e-16
1.52796e-09
-2.48359e-09
9.5532e-16
1.51858e-09
-2.45227e-09
1.70343e-16
1.4995e-09
-2.41146e-09
-4.2864e-17
1.4714e-09
-2.36257e-09
-9.89972e-16
1.43502e-09
-2.30714e-09
-1.08722e-15
1.39119e-09
-2.24649e-09
-1.9626e-15
1.34079e-09
-2.18206e-09
-1.71163e-15
1.28466e-09
-2.11502e-09
-2.09912e-15
1.22369e-09
-2.04604e-09
-1.44992e-15
1.15864e-09
-1.97717e-09
-1.52157e-15
1.09032e-09
-1.90787e-09
-7.45804e-16
1.0194e-09
-1.83976e-09
-6.68435e-16
9.46555e-10
-1.77239e-09
6.70565e-17
8.72395e-10
-1.70593e-09
1.6361e-16
7.97414e-10
-1.64134e-09
6.61726e-16
7.22162e-10
-1.57675e-09
7.29261e-16
6.47086e-10
-1.51255e-09
1.24206e-15
5.7266e-10
-1.44714e-09
1.10119e-15
4.99351e-10
-1.37934e-09
9.43702e-16
4.27636e-10
-1.30762e-09
7.02454e-16
3.58093e-10
-1.22905e-09
8.90111e-16
2.91356e-10
-1.14128e-09
8.04543e-16
2.2818e-10
-1.04139e-09
7.68569e-16
1.69499e-10
-9.26124e-10
5.39904e-16
1.16471e-10
-7.92612e-10
4.28207e-16
7.05694e-11
-6.38611e-10
3.20895e-16
3.37807e-11
-4.62282e-10
3.44788e-16
8.90335e-12
-2.63746e-10
3.98299e-16
-4.82975e-11
5.49548e-16
6.03676e-10
-1.37865e-09
-4.82071e-15
6.93755e-10
-1.52203e-09
-3.33258e-15
7.86824e-10
-1.66313e-09
-3.06503e-15
8.815e-10
-1.79975e-09
1.11782e-14
9.75983e-10
-1.92962e-09
-4.01573e-16
1.06872e-09
-2.05067e-09
-1.57588e-16
1.15799e-09
-2.16113e-09
-3.57763e-15
1.24217e-09
-2.25901e-09
-4.27556e-15
1.31974e-09
-2.34327e-09
-3.30689e-15
1.38932e-09
-2.41265e-09
-2.12307e-15
1.44972e-09
-2.46666e-09
-1.1388e-15
1.49999e-09
-2.50506e-09
8.39666e-17
1.53946e-09
-2.52773e-09
-4.81497e-17
1.56771e-09
-2.53564e-09
9.25367e-16
1.58459e-09
-2.52914e-09
2.33449e-16
1.5902e-09
-2.50958e-09
1.14041e-15
1.58488e-09
-2.47827e-09
8.08395e-17
1.56916e-09
-2.43655e-09
3.86195e-16
1.54372e-09
-2.38602e-09
-8.9081e-16
1.50937e-09
-2.32822e-09
-8.42306e-16
1.46697e-09
-2.26475e-09
-1.92458e-15
1.41745e-09
-2.197e-09
-1.85285e-15
1.36176e-09
-2.12638e-09
-2.44508e-15
1.3008e-09
-2.05408e-09
-1.97512e-15
1.23549e-09
-1.98073e-09
-2.03454e-15
1.1666e-09
-1.9083e-09
-1.34849e-15
1.09495e-09
-1.83622e-09
-1.15716e-15
1.0212e-09
-1.76601e-09
-4.43886e-16
9.46005e-10
-1.69719e-09
-1.97552e-16
8.69946e-10
-1.62986e-09
3.93827e-16
7.93487e-10
-1.56487e-09
4.83533e-16
7.17145e-10
-1.50039e-09
9.11011e-16
6.41333e-10
-1.43672e-09
1.09183e-15
5.66488e-10
-1.37228e-09
1.22313e-15
4.93047e-10
-1.30588e-09
7.83227e-16
4.21454e-10
-1.23602e-09
7.28889e-16
3.52258e-10
-1.15984e-09
7.56446e-16
2.86062e-10
-1.07507e-09
8.48959e-16
2.23593e-10
-9.7891e-10
7.02367e-16
1.65747e-10
-8.68268e-10
5.83551e-16
1.13637e-10
-7.40495e-10
3.90533e-16
6.86785e-11
-5.93646e-10
3.48048e-16
3.27692e-11
-4.26366e-10
3.11062e-16
8.58153e-12
-2.39551e-10
4.04447e-16
-3.97064e-11
5.19598e-16
6.65904e-10
-1.47166e-09
-1.18548e-14
7.62833e-10
-1.61901e-09
-7.07271e-15
8.62285e-10
-1.76258e-09
-9.19615e-16
9.62633e-10
-1.89998e-09
1.2224e-14
1.06189e-09
-2.02887e-09
8.45574e-16
1.15834e-09
-2.1471e-09
1.90089e-15
1.25015e-09
-2.25294e-09
-1.21552e-15
1.33559e-09
-2.34448e-09
-3.37761e-15
1.41313e-09
-2.42083e-09
-2.18834e-15
1.48137e-09
-2.48091e-09
-2.64905e-15
1.53921e-09
-2.52451e-09
-8.71039e-16
1.58579e-09
-2.55165e-09
-8.0322e-16
1.62058e-09
-2.56252e-09
2.0102e-16
1.64334e-09
-2.55839e-09
1.31325e-16
1.65409e-09
-2.53988e-09
5.59311e-16
1.65312e-09
-2.50862e-09
3.03519e-16
1.64096e-09
-2.46611e-09
3.10455e-16
1.61833e-09
-2.41392e-09
-5.18181e-16
1.58604e-09
-2.35375e-09
-7.50502e-16
1.54506e-09
-2.28725e-09
-1.77883e-15
1.49637e-09
-2.21608e-09
-1.8602e-15
1.44098e-09
-2.14163e-09
-2.72444e-15
1.3799e-09
-2.06533e-09
-2.36997e-15
1.31408e-09
-1.98829e-09
-2.70417e-15
1.24447e-09
-1.91113e-09
-1.91584e-15
1.17183e-09
-1.83569e-09
-1.89418e-15
1.09698e-09
-1.76137e-09
-9.74702e-16
1.02055e-09
-1.6896e-09
-8.05088e-16
9.4318e-10
-1.61982e-09
2.38505e-17
8.65409e-10
-1.55208e-09
1.6238e-16
7.87664e-10
-1.48712e-09
6.93832e-16
7.10425e-10
-1.42314e-09
7.46975e-16
6.34066e-10
-1.36035e-09
1.21978e-15
5.58989e-10
-1.29719e-09
1.08217e-15
4.85593e-10
-1.23248e-09
8.69094e-16
4.1429e-10
-1.16471e-09
6.00872e-16
3.45598e-10
-1.09114e-09
8.16717e-16
2.80092e-10
-1.00955e-09
7.68693e-16
2.18466e-10
-9.17272e-10
7.4334e-16
1.61582e-10
-8.11375e-10
5.31413e-16
1.10508e-10
-6.89414e-10
4.23632e-16
6.65975e-11
-5.49729e-10
3.13433e-16
3.16581e-11
-3.9142e-10
3.28036e-16
8.22886e-12
-2.16114e-10
3.70915e-16
-3.14682e-11
5.16728e-16
7.3596e-10
-1.57224e-09
-8.4619e-15
8.40066e-10
-1.72318e-09
-8.21157e-15
9.46085e-10
-1.86858e-09
-1.12542e-16
1.05212e-09
-2.00593e-09
1.1461e-14
1.15599e-09
-2.13276e-09
-1.98945e-15
1.25583e-09
-2.24694e-09
3.0539e-17
1.34965e-09
-2.34681e-09
-4.19275e-15
1.43569e-09
-2.43056e-09
-5.28331e-15
1.51237e-09
-2.49754e-09
-4.3682e-15
1.57836e-09
-2.54693e-09
-3.4694e-15
1.63266e-09
-2.57882e-09
-2.22368e-15
1.67454e-09
-2.59354e-09
-7.84338e-16
1.70365e-09
-2.59164e-09
-7.18126e-16
1.71995e-09
-2.57468e-09
4.99946e-16
1.72367e-09
-2.5436e-09
-2.65524e-16
1.71533e-09
-2.50027e-09
6.32603e-16
1.69564e-09
-2.44643e-09
-6.18955e-16
1.6655e-09
-2.38379e-09
-3.27395e-16
1.62592e-09
-2.31418e-09
-1.74087e-15
1.57798e-09
-2.23931e-09
-1.70868e-15
1.52276e-09
-2.16088e-09
-2.83793e-15
1.46136e-09
-2.08027e-09
-2.69044e-15
1.39485e-09
-1.99884e-09
-3.21882e-15
1.32419e-09
-1.91767e-09
-2.642e-15
1.25036e-09
-1.8373e-09
-2.58703e-15
1.1741e-09
-1.75945e-09
-1.7682e-15
1.09621e-09
-1.68349e-09
-1.44624e-15
1.0173e-09
-1.61069e-09
-6.13468e-16
9.37958e-10
-1.54047e-09
-2.80074e-16
8.58687e-10
-1.4728e-09
3.74142e-16
7.79872e-10
-1.40831e-09
4.98911e-16
7.01949e-10
-1.3452e-09
9.21834e-16
6.2525e-10
-1.28363e-09
1.04438e-15
5.50137e-10
-1.22206e-09
1.18364e-15
4.76973e-10
-1.1593e-09
7.43347e-16
4.06136e-10
-1.09386e-09
7.01261e-16
3.38112e-10
-1.0231e-09
7.3219e-16
2.73446e-10
-9.44876e-10
8.2237e-16
2.12802e-10
-8.56617e-10
6.68965e-16
1.57007e-10
-7.55571e-10
5.62364e-16
1.07086e-10
-6.39486e-10
3.7642e-16
6.43282e-11
-5.06964e-10
3.33349e-16
3.04485e-11
-3.57534e-10
2.90007e-16
7.84519e-12
-1.93504e-10
3.74854e-16
-2.36141e-11
4.87733e-16
8.14087e-10
-1.68117e-09
-1.5234e-14
9.25893e-10
-1.83509e-09
-1.25081e-14
1.03878e-09
-1.98145e-09
3.04406e-17
1.15056e-09
-2.11763e-09
8.2689e-15
1.25885e-09
-2.2411e-09
-5.48005e-15
1.36165e-09
-2.34975e-09
-9.70201e-16
1.45686e-09
-2.44205e-09
-3.60227e-15
1.54265e-09
-2.5164e-09
-5.56677e-15
1.61751e-09
-2.57244e-09
-3.81239e-15
1.68017e-09
-2.60964e-09
-4.36679e-15
1.72979e-09
-2.62845e-09
-1.94194e-15
1.76583e-09
-2.6296e-09
-1.52263e-15
1.78815e-09
-2.61397e-09
-1.24608e-16
1.79695e-09
-2.58348e-09
-3.23338e-17
1.79271e-09
-2.53935e-09
3.67098e-16
1.77616e-09
-2.48373e-09
-6.85142e-17
1.74825e-09
-2.41853e-09
-2.39347e-16
1.71006e-09
-2.34561e-09
-1.24953e-15
1.66276e-09
-2.26689e-09
-1.58253e-15
1.60755e-09
-2.18413e-09
-2.72661e-15
1.54563e-09
-2.09899e-09
-2.79773e-15
1.47814e-09
-2.01282e-09
-3.64567e-15
1.40621e-09
-1.92693e-09
-3.17814e-15
1.3308e-09
-1.8423e-09
-3.43844e-15
1.25288e-09
-1.75939e-09
-2.49914e-15
1.17319e-09
-1.67978e-09
-2.36305e-15
1.09247e-09
-1.60278e-09
-1.28897e-15
1.0113e-09
-1.52953e-09
-1.01026e-15
9.30223e-10
-1.4594e-09
-7.91947e-17
8.49695e-10
-1.39226e-09
1.21772e-16
7.70048e-10
-1.32865e-09
7.0156e-16
6.91673e-10
-1.26681e-09
7.50463e-16
6.14855e-10
-1.2068e-09
1.15694e-15
5.39916e-10
-1.14711e-09
1.02584e-15
4.6718e-10
-1.08655e-09
8.50581e-16
3.9699e-10
-1.02366e-09
6.23708e-16
3.29802e-10
-9.55898e-10
8.26441e-16
2.6613e-10
-8.81191e-10
7.49086e-16
2.06608e-10
-7.97084e-10
7.00549e-16
1.5203e-10
-7.00984e-10
4.9746e-16
1.03377e-10
-5.90826e-10
3.97303e-16
6.18739e-11
-4.65455e-10
2.89974e-16
2.91416e-11
-3.24796e-10
2.99591e-16
7.43112e-12
-1.71786e-10
3.37002e-16
-1.61744e-11
4.82448e-16
9.0245e-10
-1.79874e-09
-1.32041e-14
1.02215e-09
-1.9549e-09
-1.51642e-14
1.14184e-09
-2.10119e-09
-8.18121e-15
1.25915e-09
-2.23488e-09
8.00594e-15
1.3714e-09
-2.35343e-09
-8.07764e-15
1.47647e-09
-2.45484e-09
-3.49298e-15
1.57215e-09
-2.5378e-09
-6.75249e-15
1.65664e-09
-2.60096e-09
-7.0072e-15
1.72848e-09
-2.64431e-09
-4.97491e-15
1.78654e-09
-2.66774e-09
-3.91927e-15
1.83018e-09
-2.67211e-09
-2.15482e-15
1.8591e-09
-2.65853e-09
-3.82441e-16
1.87343e-09
-2.62829e-09
-2.61859e-16
1.87363e-09
-2.58367e-09
1.04522e-15
1.86044e-09
-2.52616e-09
-5.78155e-17
1.83486e-09
-2.45815e-09
6.34779e-16
1.79805e-09
-2.38173e-09
-1.01977e-15
1.75129e-09
-2.29886e-09
-9.06975e-16
1.6959e-09
-2.21152e-09
-2.56626e-15
1.63319e-09
-2.12144e-09
-2.60927e-15
1.56445e-09
-2.03028e-09
-3.80832e-15
1.49087e-09
-1.93929e-09
-3.60207e-15
1.41359e-09
-1.84968e-09
-4.06455e-15
1.33358e-09
-1.76233e-09
-3.3785e-15
1.25177e-09
-1.6776e-09
-3.19888e-15
1.16886e-09
-1.59691e-09
-2.24308e-15
1.08557e-09
-1.51951e-09
-1.78204e-15
1.00241e-09
-1.44638e-09
-8.29439e-16
9.19873e-10
-1.37686e-09
-4.00824e-16
8.38355e-10
-1.31073e-09
3.24762e-16
7.5814e-10
-1.24843e-09
5.00439e-16
6.79563e-10
-1.18822e-09
9.24097e-16
6.02863e-10
-1.13009e-09
9.74006e-16
5.28317e-10
-1.07255e-09
1.11795e-15
4.56213e-10
-1.01443e-09
7.37971e-16
3.86858e-10
-9.54297e-10
7.52331e-16
3.20677e-10
-8.89702e-10
7.66271e-16
2.58153e-10
-8.18656e-10
8.05675e-16
1.99894e-10
-7.38814e-10
6.18618e-16
1.46659e-10
-6.47741e-10
5.14749e-16
9.93867e-11
-5.43546e-10
3.38781e-16
5.92394e-11
-4.25303e-10
2.99242e-16
2.77403e-11
-2.93291e-10
2.53987e-16
6.98699e-12
-1.51027e-10
3.34218e-16
-9.17928e-12
4.49329e-16
1.00088e-09
-1.9258e-09
-1.36228e-14
1.129e-09
-2.08313e-09
-1.35878e-14
1.2557e-09
-2.22792e-09
-4.61562e-15
1.37837e-09
-2.35741e-09
1.54632e-14
1.49409e-09
-2.46915e-09
-2.13179e-16
1.60061e-09
-2.56134e-09
2.8075e-15
1.69571e-09
-2.63292e-09
-2.52134e-15
1.77762e-09
-2.68293e-09
-6.57064e-15
1.84504e-09
-2.71178e-09
-4.48118e-15
1.89705e-09
-2.7198e-09
-5.08583e-15
1.93325e-09
-2.70833e-09
-1.78343e-15
1.95365e-09
-2.67895e-09
-8.65768e-16
1.95868e-09
-2.63332e-09
8.20646e-16
1.94911e-09
-2.57408e-09
9.02711e-16
1.92598e-09
-2.50302e-09
1.02422e-15
1.89054e-09
-2.42272e-09
1.88633e-16
1.8442e-09
-2.3354e-09
-3.61554e-16
1.78841e-09
-2.24308e-09
-1.72883e-15
1.72462e-09
-2.14776e-09
-2.27375e-15
1.65427e-09
-2.05112e-09
-3.60264e-15
1.57867e-09
-1.95472e-09
-3.70071e-15
1.49907e-09
-1.85973e-09
-4.55483e-15
1.41659e-09
-1.76723e-09
-3.98948e-15
1.33218e-09
-1.67797e-09
-4.17439e-15
1.24674e-09
-1.59217e-09
-3.09098e-15
1.16091e-09
-1.51111e-09
-2.83633e-15
1.07535e-09
-1.43396e-09
-1.61664e-15
9.90511e-10
-1.36156e-09
-1.22917e-15
9.06816e-10
-1.29316e-09
-2.01913e-16
8.24608e-10
-1.22852e-09
6.96331e-17
7.44106e-10
-1.16793e-09
7.02553e-16
6.65595e-10
-1.1097e-09
7.56131e-16
5.89262e-10
-1.05374e-09
1.08725e-15
5.15341e-10
-9.98619e-10
9.60028e-16
4.4408e-10
-9.43157e-10
8.51165e-16
3.75753e-10
-8.8596e-10
6.91968e-16
3.10751e-10
-8.24687e-10
8.71874e-16
2.49532e-10
-7.57425e-10
7.35244e-16
1.92675e-10
-6.81947e-10
6.42093e-16
1.40908e-10
-5.95967e-10
4.39775e-16
9.51263e-11
-4.97759e-10
3.48162e-16
5.64316e-11
-3.86603e-10
2.47458e-16
2.62473e-11
-2.63102e-10
2.55357e-16
6.51392e-12
-1.31287e-10
2.90525e-16
-2.65773e-12
4.38613e-16
1.11276e-09
-2.06243e-09
-8.98576e-15
1.24916e-09
-2.2196e-09
-8.19381e-15
1.38248e-09
-2.36124e-09
-2.02037e-15
1.50977e-09
-2.48464e-09
8.83804e-15
1.62794e-09
-2.58744e-09
-1.08232e-14
1.73468e-09
-2.66813e-09
-5.15461e-15
1.82774e-09
-2.72608e-09
-8.49625e-15
1.90549e-09
-2.76076e-09
-9.30163e-15
1.96681e-09
-2.77315e-09
-5.74867e-15
2.01107e-09
-2.7641e-09
-4.06127e-15
2.03819e-09
-2.73546e-09
-1.33079e-15
2.04852e-09
-2.68929e-09
1.12116e-15
2.04287e-09
-2.62765e-09
1.26552e-15
2.02234e-09
-2.55353e-09
2.60894e-15
1.98828e-09
-2.46895e-09
9.49358e-16
1.94221e-09
-2.37666e-09
1.28962e-15
1.88576e-09
-2.27896e-09
-9.5933e-16
1.82055e-09
-2.17789e-09
-1.16083e-15
1.74817e-09
-2.0754e-09
-3.17673e-15
1.6701e-09
-1.97308e-09
-3.35694e-15
1.58772e-09
-1.87238e-09
-4.6666e-15
1.50226e-09
-1.77432e-09
-4.43223e-15
1.41481e-09
-1.67983e-09
-4.84445e-15
1.3263e-09
-1.5895e-09
-4.06182e-15
1.23755e-09
-1.50345e-09
-3.76307e-15
1.14914e-09
-1.42274e-09
-2.68229e-15
1.06166e-09
-1.34649e-09
-2.09031e-15
9.7549e-10
-1.27539e-09
-1.03328e-15
8.90979e-10
-1.20865e-09
-5.14593e-16
8.08403e-10
-1.14593e-09
2.77309e-16
7.27921e-10
-1.08744e-09
5.08321e-16
6.49759e-10
-1.03152e-09
9.34789e-16
5.74055e-10
-9.78029e-10
9.15423e-16
5.00998e-10
-9.2555e-10
1.05733e-15
4.30797e-10
-8.72943e-10
7.46795e-16
3.63693e-10
-8.18845e-10
8.23626e-16
3.00046e-10
-7.61026e-10
8.19009e-16
2.40288e-10
-6.97655e-10
7.90195e-16
1.8497e-10
-6.26621e-10
5.56121e-16
1.34793e-10
-5.45782e-10
4.47111e-16
9.06085e-11
-4.53569e-10
2.81983e-16
5.34583e-11
-3.49448e-10
2.48199e-16
2.46674e-11
-2.34307e-10
2.03987e-16
6.01282e-12
-1.12628e-10
2.81195e-16
3.36218e-12
4.00457e-16
1.23695e-09
-2.20953e-09
-6.28539e-16
1.38213e-09
-2.36477e-09
2.58725e-15
1.522e-09
-2.50105e-09
7.43258e-15
1.65342e-09
-2.61586e-09
2.26822e-14
1.77308e-09
-2.70709e-09
3.54362e-15
1.87868e-09
-2.77367e-09
6.70342e-15
1.96806e-09
-2.81548e-09
-8.70861e-16
2.03979e-09
-2.83257e-09
-7.92601e-15
2.0931e-09
-2.82651e-09
-5.07569e-15
2.12771e-09
-2.79876e-09
-5.4474e-15
2.14394e-09
-2.75172e-09
-9.1868e-16
2.14258e-09
-2.68792e-09
6.60052e-16
2.12481e-09
-2.60987e-09
2.66663e-15
2.09211e-09
-2.52081e-09
2.63432e-15
2.04616e-09
-2.42299e-09
2.38271e-15
1.98876e-09
-2.31926e-09
1.00038e-15
1.92171e-09
-2.21193e-09
-2.8063e-17
1.84681e-09
-2.10301e-09
-1.87766e-15
1.76573e-09
-1.99434e-09
-2.70214e-15
1.68e-09
-1.88739e-09
-4.27509e-15
1.591e-09
-1.78343e-09
-4.43399e-15
1.49994e-09
-1.68331e-09
-5.32223e-15
1.40786e-09
-1.58779e-09
-4.68307e-15
1.31562e-09
-1.4973e-09
-4.80159e-15
1.22395e-09
-1.41181e-09
-3.59394e-15
1.13338e-09
-1.33219e-09
-3.22927e-15
1.04438e-09
-1.25751e-09
-1.88713e-15
9.57262e-10
-1.18829e-09
-1.40339e-15
8.72305e-10
-1.1237e-09
-2.98489e-16
7.89711e-10
-1.06333e-09
3.92752e-17
7.09572e-10
-1.0073e-09
7.17586e-16
6.32059e-10
-9.53993e-10
7.8023e-16
5.57256e-10
-9.03215e-10
1.04171e-15
4.8531e-10
-8.53593e-10
9.15627e-16
4.16391e-10
-8.0401e-10
8.63246e-16
3.50707e-10
-7.5315e-10
7.64782e-16
2.8859e-10
-6.98895e-10
9.20686e-16
2.30448e-10
-6.39501e-10
7.19687e-16
1.76805e-10
-5.72969e-10
5.74193e-16
1.28333e-10
-4.97303e-10
3.67753e-16
8.58483e-11
-4.11079e-10
2.84276e-16
5.03302e-11
-3.13926e-10
1.92189e-16
2.30053e-11
-2.06978e-10
1.99835e-16
5.4854e-12
-9.5103e-11
2.33506e-16
8.85409e-12
3.84461e-16
1.37892e-09
-2.36685e-09
-3.11798e-14
1.53213e-09
-2.51794e-09
4.38258e-15
1.67734e-09
-2.64633e-09
-7.89131e-15
1.81135e-09
-2.74973e-09
1.91565e-14
1.93067e-09
-2.82649e-09
-5.75298e-15
2.03304e-09
-2.87609e-09
-2.95267e-15
2.11651e-09
-2.89906e-09
-8.57128e-15
2.17996e-09
-2.89614e-09
-1.13812e-14
2.223e-09
-2.86962e-09
-6.53325e-15
2.2458e-09
-2.8216e-09
-3.97882e-15
2.24918e-09
-2.7551e-09
-2.17298e-16
2.23437e-09
-2.67311e-09
3.1747e-15
2.20303e-09
-2.57849e-09
3.28205e-15
2.15699e-09
-2.47475e-09
4.72795e-15
2.09828e-09
-2.36425e-09
2.40386e-15
2.02892e-09
-2.2499e-09
2.39217e-15
1.95093e-09
-2.13395e-09
-5.42453e-16
1.8662e-09
-2.0183e-09
-1.091e-15
1.77646e-09
-1.90463e-09
-3.52404e-15
1.68326e-09
-1.79423e-09
-3.86531e-15
1.58795e-09
-1.68816e-09
-5.31625e-15
1.49166e-09
-1.58708e-09
-5.07747e-15
1.39538e-09
-1.49155e-09
-5.45875e-15
1.29985e-09
-1.40182e-09
-4.59816e-15
1.20575e-09
-1.31773e-09
-4.195e-15
1.11346e-09
-1.23994e-09
-3.0114e-15
1.02339e-09
-1.16746e-09
-2.30677e-15
9.35761e-10
-1.10067e-09
-1.1707e-15
8.50761e-10
-1.0387e-09
-5.77193e-16
7.6852e-10
-9.81081e-10
2.64177e-16
6.89068e-10
-9.27842e-10
5.43048e-16
6.12513e-10
-8.77424e-10
9.68054e-16
5.38893e-10
-8.29584e-10
8.93753e-16
4.68309e-10
-7.82998e-10
1.02885e-15
4.00896e-10
-7.36583e-10
7.69747e-16
3.36831e-10
-6.89073e-10
8.86744e-16
2.76419e-10
-6.38469e-10
8.63771e-16
2.20043e-10
-5.83113e-10
7.68916e-16
1.68207e-10
-5.21125e-10
4.88106e-16
1.21554e-10
-4.50645e-10
3.70395e-16
8.08642e-11
-3.70385e-10
2.16294e-16
4.70591e-11
-2.80117e-10
1.88761e-16
2.12677e-11
-1.81184e-10
1.46529e-16
4.93322e-12
-7.87645e-11
2.19807e-16
1.37932e-11
3.42442e-16
1.53543e-09
-2.53531e-09
-7.2882e-15
1.69705e-09
-2.67926e-09
3.75401e-14
1.84723e-09
-2.79643e-09
9.53718e-15
1.98271e-09
-2.88492e-09
3.48235e-14
2.09998e-09
-2.94373e-09
7.32717e-15
2.197e-09
-2.97308e-09
6.97322e-15
2.27217e-09
-2.97428e-09
-2.27761e-15
2.32481e-09
-2.94889e-09
-1.08203e-14
2.35509e-09
-2.89997e-09
-5.80755e-15
2.36376e-09
-2.83033e-09
-5.30031e-15
2.3522e-09
-2.74355e-09
7.32031e-16
2.32218e-09
-2.64308e-09
2.75612e-15
2.27581e-09
-2.5321e-09
5.04372e-15
2.21535e-09
-2.41425e-09
4.66811e-15
2.14311e-09
-2.29199e-09
4.08213e-15
2.06135e-09
-2.16813e-09
2.0588e-15
1.97222e-09
-2.04483e-09
5.99582e-16
1.8777e-09
-1.92379e-09
-1.77545e-15
1.7795e-09
-1.80647e-09
-2.86372e-15
1.67917e-09
-1.69393e-09
-4.70322e-15
1.57798e-09
-1.58701e-09
-4.93031e-15
1.47697e-09
-1.48613e-09
-5.87125e-15
1.37701e-09
-1.39165e-09
-5.17963e-15
1.27876e-09
-1.30362e-09
-5.24371e-15
1.18274e-09
-1.22174e-09
-3.93801e-15
1.08927e-09
-1.1465e-09
-3.47852e-15
9.98633e-10
-1.07684e-09
-2.04498e-15
9.10952e-10
-1.01301e-09
-1.48415e-15
8.26337e-10
-9.54086e-10
-3.28749e-16
7.44843e-10
-8.99578e-10
6.11468e-17
6.66432e-10
-8.49425e-10
7.65596e-16
5.91157e-10
-8.02134e-10
8.34509e-16
5.19005e-10
-7.57421e-10
1.03898e-15
4.5004e-10
-7.1402e-10
9.14762e-16
3.84358e-10
-6.70888e-10
8.90134e-16
3.22109e-10
-6.26813e-10
8.21772e-16
2.63574e-10
-5.7992e-10
9.50168e-16
2.09113e-10
-5.28641e-10
6.95604e-16
1.59209e-10
-4.71214e-10
5.03227e-16
1.14483e-10
-4.05913e-10
2.92806e-16
7.5677e-11
-3.31575e-10
2.16829e-16
4.36592e-11
-2.48096e-10
1.33632e-16
1.94616e-11
-1.56984e-10
1.4031e-16
4.35864e-12
-6.36581e-11
1.7082e-16
1.81571e-11
3.22416e-16
1.71596e-09
-2.71317e-09
6.69264e-15
1.88375e-09
-2.84658e-09
5.86637e-14
2.03629e-09
-2.94883e-09
1.93014e-14
2.17026e-09
-3.01867e-09
3.19749e-14
2.2823e-09
-3.05583e-09