/*--------------------------------*- C++ -*----------------------------------*\
| =========                 |                                                 |
| \\      /  F ield         | OpenFOAM: The Open Source CFD Toolbox           |
|  \\    /   O peration     | Version:  v2012                                 |
|   \\  /    A nd           | Website:  www.openfoam.com                      |
|    \\/     M anipulation  |                                                 |
\*---------------------------------------------------------------------------*/
FoamFile
{
    version     2.0;
    format      ascii;
    class       volVectorField;
    location    "0.65";
    object      U;
}
// * * * * * * * * * * * * * * * * * * * * * * * * * * * * * * * * * * * * * //

dimensions      [0 1 -1 0 0 0 0];


internalField   nonuniform List<vector> 
20000
(
(9.32108e-07 -0.00109628 -8.14392e-09)
(4.60041e-06 -0.00279693 -4.01533e-08)
(1.02216e-05 -0.0043989 -8.92047e-08)
(1.67891e-05 -0.00582851 -1.46516e-07)
(2.44316e-05 -0.00711939 -2.13213e-07)
(3.27855e-05 -0.0082997 -2.86134e-07)
(4.20074e-05 -0.00939017 -3.66604e-07)
(5.22816e-05 -0.0104059 -4.56273e-07)
(6.35294e-05 -0.0113581 -5.54437e-07)
(7.58379e-05 -0.0122557 -6.61858e-07)
(8.92035e-05 -0.0131054 -7.78498e-07)
(0.000103717 -0.0139125 -9.05162e-07)
(0.00011938 -0.0146814 -1.04186e-06)
(0.000136253 -0.0154155 -1.18911e-06)
(0.000154321 -0.0161175 -1.34679e-06)
(0.000173525 -0.0167896 -1.51439e-06)
(0.000193858 -0.0174335 -1.69185e-06)
(0.000215266 -0.0180505 -1.87869e-06)
(0.000237697 -0.0186416 -2.07446e-06)
(0.000261127 -0.0192077 -2.27894e-06)
(0.000285499 -0.0197489 -2.49165e-06)
(0.000310738 -0.0202655 -2.71192e-06)
(0.000336767 -0.0207575 -2.9391e-06)
(0.000363497 -0.0212245 -3.17239e-06)
(0.000390818 -0.0216662 -3.41085e-06)
(0.000418607 -0.0220818 -3.65338e-06)
(0.000446718 -0.0224705 -3.89874e-06)
(0.000474984 -0.0228314 -4.14545e-06)
(0.000503214 -0.0231631 -4.39185e-06)
(0.000531192 -0.0234645 -4.63606e-06)
(0.000558672 -0.0237338 -4.87593e-06)
(0.000585383 -0.0239696 -5.10908e-06)
(0.000611024 -0.0241699 -5.33291e-06)
(0.000635268 -0.0243327 -5.54454e-06)
(0.000657758 -0.0244558 -5.74089e-06)
(0.000678117 -0.024537 -5.91863e-06)
(0.000695944 -0.0245738 -6.07429e-06)
(0.000710823 -0.0245635 -6.20423e-06)
(0.000722331 -0.0245033 -6.30478e-06)
(0.000730037 -0.0243901 -6.373e-06)
(0.000733525 -0.0242209 -6.40358e-06)
(0.000732396 -0.0239921 -6.39382e-06)
(0.000726284 -0.0236999 -6.34057e-06)
(0.000714871 -0.0233404 -6.24106e-06)
(0.000697913 -0.0229089 -6.09314e-06)
(0.000675246 -0.0224002 -5.89537e-06)
(0.000646816 -0.0218083 -5.64731e-06)
(0.000612707 -0.0211263 -5.34965e-06)
(0.000573145 -0.0203459 -5.00437e-06)
(0.000528523 -0.0194574 -4.61491e-06)
(0.000479398 -0.0184493 -4.18612e-06)
(0.000426501 -0.0173087 -3.72438e-06)
(0.000370723 -0.0160215 -3.23747e-06)
(0.000313092 -0.0145723 -2.73434e-06)
(0.000254784 -0.0129452 -2.22529e-06)
(0.000197162 -0.0111228 -1.72217e-06)
(0.000141795 -0.00908412 -1.23872e-06)
(9.03915e-05 -0.00680235 -7.89817e-07)
(4.58907e-05 -0.00423959 -4.0095e-07)
(1.0504e-05 -0.00136039 -8.78372e-08)
(6.4398e-07 -0.0011134 -5.62019e-09)
(4.00052e-06 -0.00282577 -3.49181e-08)
(9.7661e-06 -0.00443478 -8.52214e-08)
(1.7095e-05 -0.0058688 -1.49166e-07)
(2.5471e-05 -0.00716291 -2.22278e-07)
(3.50061e-05 -0.00834594 -3.05498e-07)
(4.53999e-05 -0.00943867 -3.9621e-07)
(5.682e-05 -0.0104565 -4.95878e-07)
(6.91259e-05 -0.0114108 -6.03285e-07)
(8.22656e-05 -0.0123103 -7.17964e-07)
(9.63196e-05 -0.0131617 -8.4062e-07)
(0.00011122 -0.0139705 -9.70659e-07)
(0.00012711 -0.0147408 -1.10934e-06)
(0.000144013 -0.0154761 -1.25686e-06)
(0.000161947 -0.0161792 -1.41338e-06)
(0.00018093 -0.0168521 -1.57906e-06)
(0.000200977 -0.0174967 -1.75401e-06)
(0.000222054 -0.0181142 -1.93796e-06)
(0.000244131 -0.0187057 -2.13064e-06)
(0.000267243 -0.0192717 -2.33236e-06)
(0.000291345 -0.0198128 -2.54271e-06)
(0.000316329 -0.0203291 -2.76076e-06)
(0.000342136 -0.0208206 -2.98599e-06)
(0.000368676 -0.021287 -3.21762e-06)
(0.000395842 -0.0217277 -3.45472e-06)
(0.000423506 -0.0221423 -3.69616e-06)
(0.000451518 -0.0225298 -3.94064e-06)
(0.000479707 -0.0228892 -4.18666e-06)
(0.000507876 -0.0232193 -4.43252e-06)
(0.000535806 -0.0235189 -4.6763e-06)
(0.000563246 -0.0237862 -4.91581e-06)
(0.000589922 -0.0240198 -5.14863e-06)
(0.000615529 -0.0242177 -5.37214e-06)
(0.000639735 -0.0243779 -5.58343e-06)
(0.000662182 -0.0244983 -5.77937e-06)
(0.000682487 -0.0245766 -5.95662e-06)
(0.000700247 -0.0246103 -6.11166e-06)
(0.000715043 -0.0245968 -6.24085e-06)
(0.00072645 -0.0245333 -6.34049e-06)
(0.000734037 -0.0244167 -6.40765e-06)
(0.000737383 -0.024244 -6.43696e-06)
(0.000736089 -0.0240116 -6.42575e-06)
(0.000729787 -0.023716 -6.37082e-06)
(0.000718161 -0.0233529 -6.26942e-06)
(0.000700963 -0.022918 -6.1194e-06)
(0.000678032 -0.0224061 -5.91933e-06)
(0.000649314 -0.0218111 -5.66875e-06)
(0.000614897 -0.0211263 -5.36843e-06)
(0.00057501 -0.0203433 -5.02033e-06)
(0.000530051 -0.0194526 -4.62794e-06)
(0.000480579 -0.0184428 -4.19617e-06)
(0.000427334 -0.0173008 -3.73143e-06)
(0.000371213 -0.0160126 -3.24157e-06)
(0.000313252 -0.0145629 -2.73562e-06)
(0.000254632 -0.0129357 -2.22391e-06)
(0.000196725 -0.0111138 -1.71838e-06)
(0.000141111 -0.00907611 -1.23282e-06)
(8.94887e-05 -0.006796 -7.82134e-07)
(4.48436e-05 -0.00423573 -3.92246e-07)
(8.55814e-06 -0.00135695 -7.79277e-08)
(2.78292e-07 -0.00111026 -2.42665e-09)
(2.5671e-06 -0.00282444 -2.24019e-08)
(7.12914e-06 -0.00443651 -6.22015e-08)
(1.33241e-05 -0.00587345 -1.16258e-07)
(2.08686e-05 -0.00717003 -1.82101e-07)
(2.97315e-05 -0.00835509 -2.59454e-07)
(3.96583e-05 -0.00944967 -3.46091e-07)
(5.07888e-05 -0.0104691 -4.43233e-07)
(6.30032e-05 -0.011425 -5.4983e-07)
(7.62901e-05 -0.012326 -6.65791e-07)
(9.06558e-05 -0.0131791 -7.91169e-07)
(0.00010605 -0.0139894 -9.25517e-07)
(0.000122521 -0.0147614 -1.06927e-06)
(0.000140065 -0.0154984 -1.22238e-06)
(0.0001587 -0.0162031 -1.38502e-06)
(0.000178406 -0.0168777 -1.557e-06)
(0.000199174 -0.0175239 -1.73827e-06)
(0.000220965 -0.018143 -1.92845e-06)
(0.000243739 -0.018736 -2.12721e-06)
(0.000267509 -0.0193035 -2.33466e-06)
(0.000292215 -0.0198459 -2.5503e-06)
(0.000317785 -0.0203634 -2.77346e-06)
(0.00034416 -0.0208559 -3.00366e-06)
(0.000371253 -0.0213232 -3.24011e-06)
(0.000398951 -0.0217647 -3.48186e-06)
(0.000427131 -0.0221797 -3.72781e-06)
(0.000455639 -0.0225676 -3.97662e-06)
(0.000484305 -0.0229271 -4.22682e-06)
(0.00051293 -0.0232571 -4.47666e-06)
(0.000541292 -0.0235562 -4.72421e-06)
(0.000569139 -0.0238229 -4.96726e-06)
(0.00059619 -0.0240556 -5.20337e-06)
(0.000622139 -0.0242523 -5.42986e-06)
(0.000646648 -0.0244111 -5.64379e-06)
(0.000669353 -0.0245298 -5.84199e-06)
(0.000689868 -0.0246061 -6.02107e-06)
(0.000707785 -0.0246376 -6.17748e-06)
(0.000722679 -0.0246216 -6.30751e-06)
(0.000734123 -0.0245553 -6.40748e-06)
(0.000741683 -0.0244358 -6.47439e-06)
(0.000744934 -0.02426 -6.50287e-06)
(0.000743474 -0.0240244 -6.49018e-06)
(0.000736933 -0.0237254 -6.43316e-06)
(0.000724994 -0.0233589 -6.32903e-06)
(0.000707413 -0.0229206 -6.17565e-06)
(0.000684028 -0.0224053 -5.97159e-06)
(0.000654789 -0.0218071 -5.71646e-06)
(0.000619791 -0.0211191 -5.41104e-06)
(0.00057927 -0.0203334 -5.0574e-06)
(0.00053363 -0.0194401 -4.65907e-06)
(0.000483446 -0.0184281 -4.22107e-06)
(0.000429468 -0.0172844 -3.74994e-06)
(0.000372615 -0.0159949 -3.25369e-06)
(0.000313939 -0.0145445 -2.74151e-06)
(0.000254645 -0.0129171 -2.22391e-06)
(0.000196125 -0.0110954 -1.71305e-06)
(0.000139989 -0.00905864 -1.22297e-06)
(8.79578e-05 -0.00678009 -7.68688e-07)
(4.28767e-05 -0.00422236 -3.75384e-07)
(6.1286e-06 -0.00134878 -6.36006e-08)
(3.46776e-07 -0.00112179 -3.0206e-09)
(2.90153e-06 -0.00284521 -2.53149e-08)
(7.6207e-06 -0.00446375 -6.65026e-08)
(1.41548e-05 -0.00590527 -1.23513e-07)
(2.20252e-05 -0.00720534 -1.92187e-07)
(3.12642e-05 -0.00839313 -2.72825e-07)
(4.16858e-05 -0.00948988 -3.63786e-07)
(5.32565e-05 -0.0105111 -4.64765e-07)
(6.59106e-05 -0.0114684 -5.75203e-07)
(7.95583e-05 -0.0123705 -6.94316e-07)
(9.41945e-05 -0.0132245 -8.22054e-07)
(0.000109773 -0.0140355 -9.58015e-07)
(0.000126346 -0.014808 -1.10266e-06)
(0.000143945 -0.0155455 -1.25625e-06)
(0.000162583 -0.0162505 -1.41892e-06)
(0.000182279 -0.0169254 -1.59081e-06)
(0.000203058 -0.0175717 -1.77216e-06)
(0.000224879 -0.0181909 -1.9626e-06)
(0.000247713 -0.0187838 -2.16189e-06)
(0.000271608 -0.0193512 -2.37044e-06)
(0.000296516 -0.0198934 -2.58782e-06)
(0.000322335 -0.0204107 -2.81316e-06)
(0.000349012 -0.0209028 -3.04598e-06)
(0.000376455 -0.0213696 -3.28549e-06)
(0.000404549 -0.0218106 -3.53069e-06)
(0.000433162 -0.022225 -3.78042e-06)
(0.000462134 -0.022612 -4.03328e-06)
(0.000491285 -0.0229706 -4.28771e-06)
(0.000520409 -0.0232996 -4.5419e-06)
(0.000549273 -0.0235975 -4.79385e-06)
(0.000577617 -0.0238629 -5.04124e-06)
(0.000605151 -0.0240941 -5.28156e-06)
(0.000631557 -0.0242891 -5.51205e-06)
(0.000656488 -0.0244461 -5.72967e-06)
(0.000679572 -0.0245627 -5.93117e-06)
(0.000700411 -0.0246368 -6.11309e-06)
(0.000718586 -0.0246659 -6.27176e-06)
(0.000733665 -0.0246473 -6.40342e-06)
(0.000745213 -0.0245782 -6.50429e-06)
(0.000752788 -0.0244558 -6.57136e-06)
(0.000755958 -0.024277 -6.59913e-06)
(0.000754313 -0.0240382 -6.58485e-06)
(0.000747482 -0.0237359 -6.5253e-06)
(0.000735145 -0.0233662 -6.41769e-06)
(0.000717055 -0.0229246 -6.25987e-06)
(0.000693054 -0.022406 -6.05045e-06)
(0.000663094 -0.0218047 -5.78902e-06)
(0.00062728 -0.0211138 -5.47648e-06)
(0.000585857 -0.0203253 -5.11496e-06)
(0.000539242 -0.0194296 -4.70812e-06)
(0.000488023 -0.0184155 -4.26108e-06)
(0.000432976 -0.0172701 -3.78061e-06)
(0.000375043 -0.0159793 -3.27493e-06)
(0.000315312 -0.0145281 -2.75353e-06)
(0.000255019 -0.0129003 -2.22721e-06)
(0.0001956 -0.0110787 -1.70849e-06)
(0.000138707 -0.00904269 -1.21179e-06)
(8.61571e-05 -0.00676547 -7.52975e-07)
(4.07098e-05 -0.0042099 -3.56488e-07)
(5.17717e-06 -0.00134099 -5.35493e-08)
(2.07546e-07 -0.00111969 -1.8289e-09)
(1.93782e-06 -0.00284548 -1.69e-08)
(5.4857e-06 -0.00446754 -4.78468e-08)
(1.11134e-05 -0.00591287 -9.69781e-08)
(1.80659e-05 -0.00721629 -1.57628e-07)
(2.65652e-05 -0.00840715 -2.31814e-07)
(3.6401e-05 -0.00950682 -3.17656e-07)
(4.76125e-05 -0.0105305 -4.15498e-07)
(6.01495e-05 -0.0114903 -5.24914e-07)
(7.38843e-05 -0.0123946 -6.44786e-07)
(8.88407e-05 -0.0132507 -7.75318e-07)
(0.000104913 -0.0140638 -9.15587e-07)
(0.000122102 -0.0148383 -1.06561e-06)
(0.000140452 -0.0155776 -1.22576e-06)
(0.000159921 -0.0162844 -1.39567e-06)
(0.000180517 -0.016961 -1.57543e-06)
(0.000202225 -0.0176089 -1.76489e-06)
(0.000224969 -0.0182295 -1.96338e-06)
(0.000248725 -0.0188237 -2.17072e-06)
(0.000273514 -0.0193922 -2.38707e-06)
(0.000299284 -0.0199354 -2.61198e-06)
(0.000325956 -0.0204534 -2.84476e-06)
(0.000353472 -0.0209461 -3.08491e-06)
(0.000381741 -0.0214133 -3.33164e-06)
(0.000410651 -0.0218544 -3.58395e-06)
(0.000440072 -0.0222688 -3.84073e-06)
(0.000469842 -0.0226556 -4.10056e-06)
(0.000499782 -0.0230137 -4.36187e-06)
(0.000529678 -0.023342 -4.62281e-06)
(0.000559296 -0.023639 -4.88133e-06)
(0.000588366 -0.0239033 -5.13505e-06)
(0.000616591 -0.0241331 -5.3814e-06)
(0.000643644 -0.0243266 -5.61754e-06)
(0.000669168 -0.0244817 -5.84033e-06)
(0.00069278 -0.0245963 -6.04645e-06)
(0.000714072 -0.0246682 -6.23231e-06)
(0.000732612 -0.0246948 -6.39418e-06)
(0.000747959 -0.0246735 -6.52817e-06)
(0.000759667 -0.0246017 -6.63044e-06)
(0.000767285 -0.0244763 -6.69791e-06)
(0.000770373 -0.0242943 -6.72497e-06)
(0.000768514 -0.0240524 -6.70882e-06)
(0.000761329 -0.0237469 -6.64619e-06)
(0.000748496 -0.0233738 -6.53425e-06)
(0.000729769 -0.0229289 -6.37087e-06)
(0.000704988 -0.0224072 -6.15464e-06)
(0.000674112 -0.0218028 -5.88522e-06)
(0.000637254 -0.021109 -5.56357e-06)
(0.000594673 -0.0203178 -5.19195e-06)
(0.000546799 -0.0194198 -4.77412e-06)
(0.000494245 -0.0184037 -4.31543e-06)
(0.000437813 -0.0172567 -3.82288e-06)
(0.000378483 -0.0159648 -3.305e-06)
(0.000317383 -0.0145128 -2.77165e-06)
(0.0002558 -0.0128848 -2.23406e-06)
(0.000195226 -0.0110636 -1.70525e-06)
(0.000137379 -0.00902836 -1.20022e-06)
(8.42288e-05 -0.00675263 -7.36151e-07)
(3.85744e-05 -0.00419948 -3.37762e-07)
(4.5209e-06 -0.00133516 -4.68636e-08)
(1.76729e-07 -0.00112742 -1.54456e-09)
(2.43124e-06 -0.00286023 -2.12575e-08)
(6.15638e-06 -0.0044876 -5.36835e-08)
(1.19232e-05 -0.00593717 -1.0402e-07)
(1.92718e-05 -0.0072441 -1.68187e-07)
(2.75555e-05 -0.00843794 -2.40435e-07)
(3.75957e-05 -0.00954002 -3.28087e-07)
(4.904e-05 -0.0105659 -4.27956e-07)
(6.1629e-05 -0.0115273 -5.37831e-07)
(7.55118e-05 -0.0124332 -6.58988e-07)
(9.04988e-05 -0.0132905 -7.89787e-07)
(0.000106622 -0.0141046 -9.30503e-07)
(0.000123847 -0.01488 -1.08083e-06)
(0.000142304 -0.0156201 -1.24192e-06)
(0.00016191 -0.0163276 -1.41303e-06)
(0.000182741 -0.0170047 -1.59483e-06)
(0.000204752 -0.0176532 -1.78693e-06)
(0.000227883 -0.0182743 -1.98881e-06)
(0.000252108 -0.0188689 -2.20023e-06)
(0.000277453 -0.0194378 -2.42143e-06)
(0.000303873 -0.0199812 -2.65201e-06)
(0.000331256 -0.0204994 -2.89101e-06)
(0.000359539 -0.0209922 -3.13785e-06)
(0.000388624 -0.0214593 -3.3917e-06)
(0.00041839 -0.0219003 -3.65149e-06)
(0.000448698 -0.0223143 -3.91601e-06)
(0.000479378 -0.0227007 -4.18377e-06)
(0.000510237 -0.0230582 -4.45311e-06)
(0.000541054 -0.0233856 -4.72208e-06)
(0.00057158 -0.0236816 -4.98853e-06)
(0.000601535 -0.0239447 -5.24998e-06)
(0.000630609 -0.0241731 -5.50375e-06)
(0.000658463 -0.0243649 -5.74687e-06)
(0.000684725 -0.0245181 -5.97611e-06)
(0.000708999 -0.0246307 -6.188e-06)
(0.00073086 -0.0247002 -6.37884e-06)
(0.000749864 -0.0247243 -6.54475e-06)
(0.000765555 -0.0247003 -6.68175e-06)
(0.000777476 -0.0246256 -6.78588e-06)
(0.000785165 -0.0244971 -6.85399e-06)
(0.000788169 -0.0243119 -6.88032e-06)
(0.000786062 -0.0240667 -6.86201e-06)
(0.000778459 -0.0237578 -6.79572e-06)
(0.000765033 -0.0233813 -6.67862e-06)
(0.000745537 -0.0229331 -6.50853e-06)
(0.000719814 -0.022408 -6.28408e-06)
(0.000687827 -0.0218004 -6.00496e-06)
(0.000649702 -0.0211037 -5.67226e-06)
(0.00060571 -0.0203098 -5.28832e-06)
(0.000556305 -0.0194094 -4.85713e-06)
(0.000502124 -0.0183913 -4.38423e-06)
(0.000444004 -0.0172427 -3.87695e-06)
(0.000382969 -0.0159496 -3.34419e-06)
(0.000320203 -0.0144969 -2.7963e-06)
(0.000257054 -0.0128688 -2.24504e-06)
(0.000195091 -0.0110479 -1.7041e-06)
(0.000136114 -0.00901372 -1.1892e-06)
(8.22875e-05 -0.00673967 -7.1921e-07)
(3.65234e-05 -0.00418924 -3.19825e-07)
(3.83565e-06 -0.00132981 -4.00759e-08)
(3.55317e-08 -0.00112681 -3.11796e-10)
(1.76403e-06 -0.00286219 -1.54278e-08)
(4.80809e-06 -0.0044935 -4.18795e-08)
(9.64736e-06 -0.00594718 -8.41304e-08)
(1.62681e-05 -0.00725717 -1.4201e-07)
(2.40566e-05 -0.00845519 -2.09922e-07)
(3.36988e-05 -0.00955994 -2.94053e-07)
(4.47941e-05 -0.0105889 -3.90913e-07)
(5.75016e-05 -0.0115529 -5.01794e-07)
(7.15074e-05 -0.0124613 -6.24041e-07)
(8.684e-05 -0.013321 -7.57848e-07)
(0.000103398 -0.0141373 -9.02363e-07)
(0.000121214 -0.0149148 -1.05785e-06)
(0.000140378 -0.0156568 -1.2251e-06)
(0.000160784 -0.0163661 -1.4032e-06)
(0.000182512 -0.0170448 -1.59283e-06)
(0.000205457 -0.0176947 -1.79309e-06)
(0.000229561 -0.018317 -2.00345e-06)
(0.000254801 -0.0189128 -2.22374e-06)
(0.000281163 -0.0194826 -2.45381e-06)
(0.000308611 -0.0200268 -2.69337e-06)
(0.00033705 -0.0205455 -2.94157e-06)
(0.000366406 -0.0210387 -3.19778e-06)
(0.000396579 -0.0215061 -3.46112e-06)
(0.000427444 -0.0219471 -3.7305e-06)
(0.000458862 -0.0223609 -4.00471e-06)
(0.000490656 -0.0227469 -4.2822e-06)
(0.000522629 -0.0231038 -4.56126e-06)
(0.00055455 -0.0234304 -4.83987e-06)
(0.000586162 -0.0237255 -5.11579e-06)
(0.00061717 -0.0239872 -5.38644e-06)
(0.000647255 -0.0242141 -5.64902e-06)
(0.000676059 -0.0244042 -5.90044e-06)
(0.000703198 -0.0245555 -6.13733e-06)
(0.000728257 -0.0246659 -6.35608e-06)
(0.000750797 -0.024733 -6.55284e-06)
(0.000770357 -0.0247545 -6.72361e-06)
(0.000786463 -0.0247277 -6.86423e-06)
(0.000798644 -0.02465 -6.97064e-06)
(0.000806425 -0.0245184 -7.03957e-06)
(0.000809339 -0.0243299 -7.06512e-06)
(0.000806949 -0.0240812 -7.04434e-06)
(0.000798862 -0.0237688 -6.97384e-06)
(0.000784746 -0.0233889 -6.85071e-06)
(0.000764354 -0.0229371 -6.6728e-06)
(0.000737528 -0.0224086 -6.43873e-06)
(0.000704242 -0.0217978 -6.14828e-06)
(0.00066463 -0.021098 -5.8026e-06)
(0.000618985 -0.0203013 -5.40424e-06)
(0.000567782 -0.0193984 -4.95735e-06)
(0.000511692 -0.0183782 -4.46779e-06)
(0.000451592 -0.017228 -3.94322e-06)
(0.000388559 -0.0159337 -3.39302e-06)
(0.000323842 -0.0144804 -2.8281e-06)
(0.000258866 -0.0128521 -2.26088e-06)
(0.000195293 -0.0110317 -1.70589e-06)
(0.000135027 -0.0089986 -1.17973e-06)
(8.04451e-05 -0.00672639 -7.03138e-07)
(3.46165e-05 -0.00417893 -3.03142e-07)
(3.19906e-06 -0.00132467 -3.40615e-08)
(1.8382e-07 -0.00113208 -1.59437e-09)
(2.2174e-06 -0.00287294 -1.93394e-08)
(4.65933e-06 -0.00450889 -4.06982e-08)
(1.10596e-05 -0.00596647 -9.65695e-08)
(1.74516e-05 -0.00727971 -1.52216e-07)
(2.45569e-05 -0.00848063 -2.14306e-07)
(3.55475e-05 -0.00958856 -3.10212e-07)
(4.60154e-05 -0.0106201 -4.01522e-07)
(5.88176e-05 -0.0115864 -5.13313e-07)
(7.25694e-05 -0.0124968 -6.33288e-07)
(8.78786e-05 -0.0133582 -7.66921e-07)
(0.000104543 -0.0141761 -9.12346e-07)
(0.000122496 -0.014955 -1.06904e-06)
(0.000141893 -0.0156982 -1.23833e-06)
(0.000162628 -0.0164087 -1.41928e-06)
(0.000184825 -0.0170885 -1.61301e-06)
(0.000208313 -0.0177393 -1.818e-06)
(0.000233081 -0.0183626 -2.03417e-06)
(0.000259091 -0.0189591 -2.26116e-06)
(0.000286333 -0.0195296 -2.49892e-06)
(0.000314766 -0.0200743 -2.74707e-06)
(0.000344261 -0.0205935 -3.0045e-06)
(0.000374735 -0.021087 -3.27046e-06)
(0.000406076 -0.0215545 -3.544e-06)
(0.00043815 -0.0219955 -3.82393e-06)
(0.000470806 -0.0224091 -4.10895e-06)
(0.000503858 -0.0227946 -4.39742e-06)
(0.000537096 -0.0231509 -4.68752e-06)
(0.000570278 -0.0234767 -4.97713e-06)
(0.000603131 -0.0237707 -5.26388e-06)
(0.000635348 -0.0240312 -5.54508e-06)
(0.00066659 -0.0242565 -5.81776e-06)
(0.000696486 -0.0244449 -6.07871e-06)
(0.000724631 -0.0245942 -6.32439e-06)
(0.000750594 -0.0247023 -6.55103e-06)
(0.000773915 -0.0247669 -6.75461e-06)
(0.000794114 -0.0247856 -6.93095e-06)
(0.000810699 -0.0247559 -7.07576e-06)
(0.000823182 -0.0246751 -7.18481e-06)
(0.000831071 -0.0245402 -7.25472e-06)
(0.000833885 -0.0243482 -7.2794e-06)
(0.000831175 -0.024096 -7.25583e-06)
(0.000822536 -0.02378 -7.18051e-06)
(0.000807633 -0.0233964 -7.05052e-06)
(0.000786215 -0.0229411 -6.86366e-06)
(0.00075813 -0.0224091 -6.6186e-06)
(0.000723357 -0.0217949 -6.31517e-06)
(0.000682046 -0.0210919 -5.95466e-06)
(0.000634509 -0.0202923 -5.53978e-06)
(0.00058125 -0.0193869 -5.07496e-06)
(0.000522977 -0.0183646 -4.56634e-06)
(0.000460616 -0.0172126 -4.02203e-06)
(0.000395302 -0.0159172 -3.45192e-06)
(0.000328362 -0.0144632 -2.86759e-06)
(0.000261308 -0.0128349 -2.28224e-06)
(0.000195917 -0.011015 -1.71137e-06)
(0.000134211 -0.00898312 -1.17263e-06)
(7.87921e-05 -0.00671294 -6.88708e-07)
(3.2897e-05 -0.00416871 -2.88126e-07)
(2.66276e-06 -0.00131983 -2.89784e-08)
(5.55597e-08 -0.0011324 -4.8192e-10)
(1.76869e-06 -0.00287626 -1.543e-08)
(3.99413e-06 -0.00451615 -3.48556e-08)
(9.92593e-06 -0.0059767 -8.66197e-08)
(1.5646e-05 -0.00729541 -1.36424e-07)
(2.14724e-05 -0.00849984 -1.87394e-07)
(3.18823e-05 -0.00960948 -2.78306e-07)
(4.29051e-05 -0.0106452 -3.74349e-07)
(5.61461e-05 -0.0116138 -4.89969e-07)
(7.02164e-05 -0.012527 -6.1279e-07)
(8.60646e-05 -0.013391 -7.51058e-07)
(0.000103196 -0.0142113 -9.00608e-07)
(0.000121745 -0.0149924 -1.06247e-06)
(0.000141811 -0.0157377 -1.23761e-06)
(0.000163326 -0.01645 -1.42537e-06)
(0.000186423 -0.0171315 -1.62695e-06)
(0.000210863 -0.0177839 -1.84026e-06)
(0.000236668 -0.0184084 -2.06546e-06)
(0.00026379 -0.0190061 -2.30217e-06)
(0.000292191 -0.0195775 -2.55004e-06)
(0.000321829 -0.0201231 -2.80872e-06)
(0.000352589 -0.0206429 -3.07717e-06)
(0.000384374 -0.0211368 -3.35458e-06)
(0.000417067 -0.0216045 -3.63991e-06)
(0.000450522 -0.0220455 -3.9319e-06)
(0.000484585 -0.022459 -4.22919e-06)
(0.000519057 -0.0228441 -4.53006e-06)
(0.000553722 -0.0231997 -4.83261e-06)
(0.00058832 -0.0235247 -5.13458e-06)
(0.000622568 -0.0238175 -5.43351e-06)
(0.000656141 -0.0240767 -5.72655e-06)
(0.000688683 -0.0243005 -6.01058e-06)
(0.000719805 -0.0244869 -6.28223e-06)
(0.00074908 -0.0246341 -6.53777e-06)
(0.000776058 -0.0247399 -6.77327e-06)
(0.000800255 -0.0248019 -6.9845e-06)
(0.000821172 -0.0248178 -7.16711e-06)
(0.000838294 -0.024785 -7.31661e-06)
(0.000851115 -0.0247009 -7.42861e-06)
(0.000859125 -0.0245626 -7.49961e-06)
(0.000861825 -0.024367 -7.5233e-06)
(0.000858752 -0.0241111 -7.49657e-06)
(0.000849492 -0.0237914 -7.41583e-06)
(0.000833702 -0.023404 -7.27809e-06)
(0.00081113 -0.0229449 -7.08117e-06)
(0.000781626 -0.0224093 -6.82373e-06)
(0.000745182 -0.0217916 -6.50572e-06)
(0.000701959 -0.0210854 -6.12852e-06)
(0.000652297 -0.0202828 -5.6951e-06)
(0.00059673 -0.0193748 -5.21012e-06)
(0.000536008 -0.0183503 -4.68014e-06)
(0.000471111 -0.0171966 -4.11369e-06)
(0.000403244 -0.0159 -3.52129e-06)
(0.000333817 -0.0144454 -2.91525e-06)
(0.000264446 -0.012817 -2.30967e-06)
(0.000197034 -0.0109978 -1.72115e-06)
(0.00013374 -0.00896729 -1.16854e-06)
(7.73916e-05 -0.00669935 -6.76498e-07)
(3.13898e-05 -0.00415862 -2.74928e-07)
(2.21083e-06 -0.00131528 -2.46954e-08)
(1.55411e-07 -0.0011362 -1.34709e-09)
(1.86522e-06 -0.00288464 -1.62701e-08)
(4.63928e-06 -0.00452889 -4.04381e-08)
(1.0018e-05 -0.00599331 -8.73812e-08)
(1.42164e-05 -0.00731556 -1.24199e-07)
(2.51534e-05 -0.0085229 -2.19603e-07)
(3.50646e-05 -0.00963505 -3.05848e-07)
(4.33511e-05 -0.0106735 -3.78399e-07)
(5.84787e-05 -0.0116449 -5.10323e-07)
(7.13428e-05 -0.0125609 -6.22589e-07)
(8.73515e-05 -0.0134272 -7.62332e-07)
(0.000104691 -0.0142497 -9.13623e-07)
(0.000123464 -0.0150327 -1.07749e-06)
(0.000143968 -0.0157798 -1.25642e-06)
(0.000166004 -0.0164938 -1.44875e-06)
(0.000189805 -0.0171767 -1.65646e-06)
(0.000215028 -0.0178305 -1.8766e-06)
(0.000241754 -0.0184562 -2.10985e-06)
(0.000269895 -0.019055 -2.35544e-06)
(0.000299434 -0.0196274 -2.61325e-06)
(0.000330327 -0.0201737 -2.88287e-06)
(0.000362421 -0.0206941 -3.16297e-06)
(0.00039561 -0.0211885 -3.45263e-06)
(0.000429764 -0.0216564 -3.75072e-06)
(0.000464728 -0.0220974 -4.05587e-06)
(0.000500334 -0.0225107 -4.36663e-06)
(0.000536371 -0.0228954 -4.68116e-06)
(0.000572607 -0.0232505 -4.99743e-06)
(0.000608771 -0.0235745 -5.31306e-06)
(0.00064456 -0.0238662 -5.62544e-06)
(0.000679631 -0.024124 -5.93156e-06)
(0.00071361 -0.0243461 -6.22813e-06)
(0.000746085 -0.0245306 -6.51159e-06)
(0.000776609 -0.0246756 -6.77803e-06)
(0.000804705 -0.0247789 -7.02329e-06)
(0.00082987 -0.0248382 -7.24297e-06)
(0.000851576 -0.0248511 -7.43247e-06)
(0.000869289 -0.0248151 -7.58713e-06)
(0.000882479 -0.0247276 -7.70236e-06)
(0.000890617 -0.0245857 -7.77452e-06)
(0.000893185 -0.0243864 -7.79706e-06)
(0.000889705 -0.0241266 -7.76678e-06)
(0.000879749 -0.023803 -7.67997e-06)
(0.00086297 -0.0234117 -7.53361e-06)
(0.000839113 -0.0229487 -7.32547e-06)
(0.000808035 -0.0224093 -7.05429e-06)
(0.000769733 -0.0217879 -6.72007e-06)
(0.000724392 -0.0210783 -6.32438e-06)
(0.000672372 -0.0202727 -5.87038e-06)
(0.000614249 -0.019362 -5.36309e-06)
(0.000550816 -0.0183352 -4.80945e-06)
(0.000483116 -0.0171798 -4.21854e-06)
(0.000412428 -0.0158821 -3.60151e-06)
(0.000340259 -0.0144269 -2.97153e-06)
(0.000268336 -0.0127986 -2.34366e-06)
(0.000198702 -0.0109801 -1.73575e-06)
(0.000133669 -0.00895108 -1.16794e-06)
(7.62879e-05 -0.00668561 -6.66868e-07)
(3.0106e-05 -0.00414863 -2.6372e-07)
(1.82588e-06 -0.00131098 -2.10093e-08)
(7.58449e-08 -0.00113707 -6.53322e-10)
(1.62759e-06 -0.00288867 -1.4198e-08)
(4.37108e-06 -0.00453643 -3.8096e-08)
(9.81639e-06 -0.00600522 -8.56224e-08)
(1.37949e-05 -0.00733052 -1.20495e-07)
(2.41652e-05 -0.00854021 -2.10958e-07)
(3.28378e-05 -0.00966 -2.86376e-07)
(4.05367e-05 -0.0107015 -3.53787e-07)
(5.5897e-05 -0.0116736 -4.87893e-07)
(6.9619e-05 -0.0125945 -6.07485e-07)
(8.6753e-05 -0.0134624 -7.57089e-07)
(0.000104716 -0.0142875 -9.13878e-07)
(0.00012436 -0.0150727 -1.08528e-06)
(0.000145623 -0.015822 -1.27088e-06)
(0.000168587 -0.0165379 -1.47127e-06)
(0.000193374 -0.0172227 -1.68761e-06)
(0.000219679 -0.0178781 -1.91718e-06)
(0.000247562 -0.0185053 -2.16053e-06)
(0.000276963 -0.0191054 -2.41713e-06)
(0.000307837 -0.0196789 -2.68658e-06)
(0.000340132 -0.0202261 -2.96844e-06)
(0.000373708 -0.0207473 -3.26147e-06)
(0.00040845 -0.0212421 -3.56469e-06)
(0.000444218 -0.0217104 -3.87685e-06)
(0.00048084 -0.0221515 -4.19648e-06)
(0.000518139 -0.0225646 -4.52202e-06)
(0.00055589 -0.0229489 -4.85151e-06)
(0.000593849 -0.0233033 -5.1828e-06)
(0.000631724 -0.0236264 -5.51338e-06)
(0.000669197 -0.0239169 -5.84046e-06)
(0.000705905 -0.0241732 -6.16087e-06)
(0.000741453 -0.0243935 -6.47113e-06)
(0.000775405 -0.0245761 -6.76748e-06)
(0.000807289 -0.0247187 -7.04579e-06)
(0.000836605 -0.0248194 -7.3017e-06)
(0.00086282 -0.0248758 -7.53055e-06)
(0.000885384 -0.0248857 -7.72755e-06)
(0.000903735 -0.0248463 -7.88777e-06)
(0.000917322 -0.0247552 -8.00647e-06)
(0.00092559 -0.0246095 -8.07981e-06)
(0.000928003 -0.0244063 -8.10101e-06)
(0.000924066 -0.0241426 -8.06674e-06)
(0.00091334 -0.0238148 -7.97321e-06)
(0.000895467 -0.0234194 -7.81731e-06)
(0.000870194 -0.0229523 -7.59681e-06)
(0.00083738 -0.022409 -7.31048e-06)
(0.000797037 -0.0217839 -6.95845e-06)
(0.000749366 -0.0210708 -6.54243e-06)
(0.000694761 -0.020262 -6.06586e-06)
(0.000633834 -0.0193485 -5.53411e-06)
(0.000567435 -0.0183194 -4.95457e-06)
(0.000496668 -0.0171622 -4.33689e-06)
(0.000422898 -0.0158633 -3.69296e-06)
(0.000347734 -0.0144075 -3.03683e-06)
(0.000273028 -0.0127793 -2.38467e-06)
(0.000200974 -0.0109617 -1.75562e-06)
(0.000134043 -0.00893444 -1.17124e-06)
(7.5511e-05 -0.00667166 -6.60104e-07)
(2.90496e-05 -0.0041387 -2.54472e-07)
(1.49941e-06 -0.00130689 -1.79168e-08)
(1.18717e-07 -0.00114003 -1.02669e-09)
(1.75443e-06 -0.00289576 -1.52971e-08)
(4.59208e-06 -0.00454767 -4.00416e-08)
(9.61889e-06 -0.00602048 -8.39196e-08)
(1.48202e-05 -0.00734975 -1.29292e-07)
(2.33801e-05 -0.00856309 -2.04035e-07)
(3.05059e-05 -0.00968577 -2.66464e-07)
(4.65584e-05 -0.0107303 -4.06378e-07)
(6.03967e-05 -0.0117052 -5.26911e-07)
(7.05037e-05 -0.012629 -6.15365e-07)
(9.08367e-05 -0.0134994 -7.92706e-07)
(0.000107477 -0.0143271 -9.37945e-07)
(0.000127691 -0.0151146 -1.11438e-06)
(0.000149361 -0.0158661 -1.30348e-06)
(0.000172999 -0.016584 -1.50978e-06)
(0.000198563 -0.0172706 -1.73289e-06)
(0.000225841 -0.0179277 -1.97095e-06)
(0.000254823 -0.0185564 -2.22389e-06)
(0.000285458 -0.0191578 -2.49126e-06)
(0.000317708 -0.0197325 -2.77272e-06)
(0.000351499 -0.0202807 -3.06763e-06)
(0.000386661 -0.0208026 -3.37451e-06)
(0.000423071 -0.021298 -3.69229e-06)
(0.000460573 -0.0217666 -4.01959e-06)
(0.000498987 -0.0222078 -4.35485e-06)
(0.000538117 -0.0226208 -4.69637e-06)
(0.000577725 -0.0230047 -5.04206e-06)
(0.000617547 -0.0233584 -5.38962e-06)
(0.000657277 -0.0236806 -5.73638e-06)
(0.000696574 -0.0239699 -6.07939e-06)
(0.000735055 -0.0242246 -6.41526e-06)
(0.000772299 -0.0244431 -6.74034e-06)
(0.000807847 -0.0246235 -7.05062e-06)
(0.000841201 -0.0247637 -7.34176e-06)
(0.000871831 -0.0248617 -7.60914e-06)
(0.000899178 -0.0249151 -7.84788e-06)
(0.000922662 -0.0249216 -8.0529e-06)
(0.000941695 -0.0248788 -8.21909e-06)
(0.000955699 -0.0247839 -8.34142e-06)
(0.000964096 -0.0246342 -8.41595e-06)
(0.000966328 -0.0244269 -8.43556e-06)
(0.00096188 -0.0241589 -8.39685e-06)
(0.000950302 -0.0238269 -8.29589e-06)
(0.000931229 -0.0234272 -8.12951e-06)
(0.000904403 -0.0229559 -7.89547e-06)
(0.000869693 -0.0224084 -7.5926e-06)
(0.000827122 -0.0217794 -7.22111e-06)
(0.000776915 -0.0210626 -6.78296e-06)
(0.000719494 -0.0202505 -6.28182e-06)
(0.000655521 -0.0193341 -5.72348e-06)
(0.000585898 -0.0183027 -5.1158e-06)
(0.000511805 -0.0171437 -4.46908e-06)
(0.000434694 -0.0158435 -3.79599e-06)
(0.000356287 -0.0143873 -3.11155e-06)
(0.000278567 -0.0127593 -2.43307e-06)
(0.000203892 -0.0109427 -1.78113e-06)
(0.000134899 -0.00891733 -1.17874e-06)
(7.5081e-05 -0.0066575 -6.56362e-07)
(2.82178e-05 -0.0041288 -2.47212e-07)
(1.22443e-06 -0.00130296 -1.52996e-08)
(6.36223e-08 -0.00114124 -5.52494e-10)
(1.59534e-06 -0.00290023 -1.39066e-08)
(4.46058e-06 -0.00455603 -3.88873e-08)
(9.48144e-06 -0.00603269 -8.27513e-08)
(1.49332e-05 -0.00736551 -1.30329e-07)
(2.40916e-05 -0.00858316 -2.10252e-07)
(3.04326e-05 -0.0097078 -2.65699e-07)
(4.5215e-05 -0.0107551 -3.94639e-07)
(5.91162e-05 -0.0117364 -5.15851e-07)
(7.0197e-05 -0.0126613 -6.12603e-07)
(9.17538e-05 -0.0135359 -8.00712e-07)
(0.000109098 -0.0143664 -9.5212e-07)
(0.000130337 -0.0151568 -1.13745e-06)
(0.000152894 -0.0159108 -1.33432e-06)
(0.000177607 -0.0166311 -1.55e-06)
(0.000204304 -0.0173199 -1.78299e-06)
(0.000232832 -0.0179789 -2.03197e-06)
(0.000263144 -0.0186094 -2.29651e-06)
(0.000295221 -0.0192123 -2.57647e-06)
(0.00032901 -0.0197882 -2.87135e-06)
(0.000364426 -0.0203376 -3.18045e-06)
(0.00040131 -0.0208603 -3.50236e-06)
(0.000439526 -0.0213564 -3.83589e-06)
(0.000478906 -0.0218254 -4.17958e-06)
(0.000519252 -0.0222667 -4.53171e-06)
(0.00056036 -0.0226796 -4.89049e-06)
(0.000601969 -0.0230631 -5.25364e-06)
(0.000643801 -0.0234161 -5.61875e-06)
(0.000685527 -0.0237373 -5.98294e-06)
(0.000726788 -0.0240252 -6.34308e-06)
(0.000767175 -0.0242783 -6.69559e-06)
(0.000806243 -0.0244949 -7.03658e-06)
(0.000843505 -0.024673 -7.36182e-06)
(0.000878433 -0.0248107 -7.66671e-06)
(0.00091047 -0.0249058 -7.94637e-06)
(0.000939025 -0.024956 -8.19565e-06)
(0.000963488 -0.0249591 -8.40922e-06)
(0.00098324 -0.0249125 -8.58169e-06)
(0.000997678 -0.0248137 -8.70783e-06)
(0.0010062 -0.0246599 -8.78347e-06)
(0.00100822 -0.0244483 -8.80123e-06)
(0.0010032 -0.0241758 -8.75755e-06)
(0.000990686 -0.0238393 -8.64843e-06)
(0.000970299 -0.0234351 -8.47059e-06)
(0.000941784 -0.0229593 -8.22181e-06)
(0.000905013 -0.0224075 -7.90095e-06)
(0.000860027 -0.0217744 -7.50839e-06)
(0.000807071 -0.0210538 -7.04625e-06)
(0.000746606 -0.0202383 -6.51855e-06)