/*--------------------------------*- C++ -*----------------------------------*\
| =========                 |                                                 |
| \\      /  F ield         | OpenFOAM: The Open Source CFD Toolbox           |
|  \\    /   O peration     | Version:  v2012                                 |
|   \\  /    A nd           | Website:  www.openfoam.com                      |
|    \\/     M anipulation  |                                                 |
\*---------------------------------------------------------------------------*/
FoamFile
{
    version     2.0;
    format      ascii;
    class       surfaceScalarField;
    location    "0.95";
    object      phi;
}
// * * * * * * * * * * * * * * * * * * * * * * * * * * * * * * * * * * * * * //

dimensions      [0 3 -1 0 0 0 0];
oriented        oriented;


internalField   nonuniform List<scalar> 
6347
(
1.63503e-13
-3.9891e-12
6.73816e-19
3.74255e-13
-6.88743e-12
6.20723e-18
6.77535e-13
-1.00014e-11
-4.75272e-18
1.07875e-12
-1.33458e-11
-2.65682e-18
1.58314e-12
-1.69301e-11
-2.22774e-18
2.19575e-12
-2.07646e-11
1.67335e-18
2.92144e-12
-2.48569e-11
-5.11464e-18
3.76439e-12
-2.92096e-11
-1.10881e-17
4.72851e-12
-3.38306e-11
-1.87241e-18
5.81638e-12
-3.87145e-11
-1.12484e-17
7.02967e-12
-4.38602e-11
-1.19773e-17
8.36871e-12
-4.92679e-11
-4.64553e-17
9.83362e-12
-5.49188e-11
7.83062e-18
1.14212e-11
-6.08087e-11
-1.3048e-17
1.31263e-11
-6.69113e-11
-1.12363e-17
-7.3207e-11
-5.25283e-18
4.29109e-14
-1.33293e-12
-5.31739e-19
1.74139e-13
-4.12031e-12
3.0016e-18
3.98514e-13
-7.11176e-12
3.18297e-18
7.21265e-13
-1.03242e-11
-2.45222e-18
1.14802e-12
-1.37726e-11
-7.96472e-18
1.68435e-12
-1.74664e-11
1.22976e-17
2.33548e-12
-2.14157e-11
2.51495e-18
3.10633e-12
-2.56278e-11
4.46466e-18
4.00135e-12
-3.01047e-11
6.40769e-18
5.0241e-12
-3.48536e-11
-6.18974e-18
6.1775e-12
-3.9868e-11
4.45238e-18
7.46285e-12
-4.51459e-11
-3.63356e-18
8.88032e-12
-5.0686e-11
1.81029e-18
1.04284e-11
-5.64679e-11
-4.72008e-17
1.21052e-11
-6.24853e-11
1.42858e-17
1.39041e-11
-6.871e-11
-9.24278e-18
1.5817e-11
-7.51202e-11
5.36429e-18
-8.16866e-11
-2.2885e-17
4.5749e-14
-1.37867e-12
5.64194e-21
1.85573e-13
-4.26013e-12
-5.48388e-19
4.24557e-13
-7.35073e-12
2.34269e-18
7.68249e-13
-1.06679e-11
4.31428e-19
1.22252e-12
-1.42268e-11
4.03787e-18
1.79311e-12
-1.80369e-11
9.50523e-18
2.48552e-12
-2.2108e-11
8.04241e-18
3.30479e-12
-2.6447e-11
4.90578e-18
4.25546e-12
-3.10553e-11
8.14133e-18
5.34104e-12
-3.59393e-11
-7.67634e-18
6.56438e-12
-4.10913e-11
4.20646e-18
7.92655e-12
-4.65081e-11
-4.28124e-18
9.42728e-12
-5.21871e-11
8.86034e-18
1.10643e-11
-5.81058e-11
-3.52788e-17
1.28355e-11
-6.42559e-11
2.92825e-17
1.47332e-11
-7.06072e-11
-3.02119e-18
1.67479e-11
-7.71353e-11
2.45696e-18
1.88683e-11
-8.38084e-11
-2.59347e-17
-9.05888e-11
-4.47339e-17
4.88033e-14
-1.42748e-12
-1.99254e-19
1.979e-13
-4.40924e-12
-1.45256e-18
4.52636e-13
-7.60544e-12
2.85874e-18
8.1886e-13
-1.1034e-11
7.7669e-18
1.30268e-12
-1.47106e-11
7.10024e-18
1.91004e-12
-1.86443e-11
5.4351e-18
2.64674e-12
-2.28447e-11
3.33455e-18
3.5179e-12
-2.73183e-11
1.22094e-18
4.5282e-12
-3.20656e-11
7.20122e-18
5.68105e-12
-3.70923e-11
-7.91206e-18
6.97912e-12
-4.23894e-11
2.19397e-18
8.42317e-12
-4.79522e-11
-7.71948e-18
1.00126e-11
-5.37768e-11
6.33531e-18
1.17444e-11
-5.98383e-11
-3.63558e-17
1.36156e-11
-6.61267e-11
1.74863e-17
1.56176e-11
-7.26088e-11
-9.78248e-18
1.77394e-11
-7.9258e-11
-1.11019e-17
1.99685e-11
-8.60394e-11
-3.76641e-17
-9.29123e-11
-3.28832e-17
5.21047e-14
-1.47959e-12
-6.24602e-19
2.11201e-13
-4.56835e-12
-1.83254e-18
4.82924e-13
-7.87715e-12
8.16977e-19
8.7342e-13
-1.14244e-11
1.25773e-17
1.38909e-12
-1.52262e-11
8.74956e-18
2.03608e-12
-1.92912e-11
1.05664e-17
2.82043e-12
-2.3629e-11
5.23475e-18
3.74737e-12
-2.82452e-11
7.33895e-19
4.82164e-12
-3.31398e-11
7.36939e-18
6.04654e-12
-3.83173e-11
-7.89641e-18
7.42453e-12
-4.37674e-11
1.96232e-18
8.95603e-12
-4.94838e-11
-6.86857e-18
1.06399e-11
-5.54609e-11
4.74239e-18
1.24725e-11
-6.16715e-11
-3.54639e-17
1.44497e-11
-6.81035e-11
1.8768e-17
1.65619e-11
-7.47207e-11
-2.60433e-18
1.87967e-11
-8.14938e-11
-7.3951e-18
2.114e-11
-8.83848e-11
-4.04254e-17
-9.53497e-11
-3.63957e-17
5.56764e-14
-1.53527e-12
-2.39628e-19
2.25615e-13
-4.73828e-12
3.8837e-19
5.15659e-13
-8.1672e-12
-2.50673e-19
9.32254e-13
-1.1841e-11
1.41945e-18
1.48217e-12
-1.57761e-11
4.10681e-18
2.17182e-12
-1.99808e-11
-4.29989e-18
3.00745e-12
-2.44646e-11
7.61278e-18
3.99437e-12
-2.92322e-11
5.06376e-18
5.13739e-12
-3.42827e-11
6.12862e-18
6.4396e-12
-3.96196e-11
-4.13058e-18
7.90321e-12
-4.52311e-11
2.13452e-18
9.52821e-12
-5.11088e-11
-7.65315e-18
1.13128e-11
-5.72458e-11
5.54789e-18
1.32526e-11
-6.36119e-11
-3.67806e-17
1.53423e-11
-7.01928e-11
1.9083e-17
1.75711e-11
-7.69491e-11
-2.91032e-18
1.99251e-11
-8.38487e-11
-8.00412e-18
2.23883e-11
-9.085e-11
-4.1349e-17
-9.79059e-11
-3.63064e-17
5.95369e-14
-1.59482e-12
-1.29857e-18
2.41147e-13
-4.91991e-12
-3.24522e-18
5.51072e-13
-8.47708e-12
3.24587e-18
9.95952e-13
-1.22859e-11
-4.27036e-19
1.58292e-12
-1.63631e-11
1.57301e-18
2.31871e-12
-2.07165e-11
4.34004e-18
3.2097e-12
-2.53555e-11
1.26428e-17
4.26122e-12
-3.02838e-11
1.13967e-17
5.47813e-12
-3.54995e-11
7.57453e-18
6.86337e-12
-4.1005e-11
-3.01279e-18
8.41877e-12
-4.67865e-11
4.46996e-18
1.01438e-11
-5.28339e-11
-6.71245e-18
1.20359e-11
-5.91382e-11
5.26942e-18
1.40898e-11
-6.56663e-11
-3.59973e-17
1.62989e-11
-7.24015e-11
1.75668e-17
1.8651e-11
-7.93008e-11
-5.42828e-18
2.11306e-11
-8.63291e-11
-1.08815e-17
2.37198e-11
-9.34411e-11
-4.20089e-17
-1.00586e-10
-3.52112e-17
6.37469e-14
-1.65855e-12
1.6228e-18
2.58096e-13
-5.11423e-12
3.64014e-18
5.89428e-13
-8.80843e-12
1.92163e-19
1.06493e-12
-1.27614e-11
-8.91467e-19
1.69199e-12
-1.69901e-11
8.69589e-18
2.47748e-12
-2.1502e-11
-5.31674e-19
3.42814e-12
-2.6306e-11
1.52989e-17
4.54931e-12
-3.1405e-11
-1.94054e-17
5.84574e-12
-3.67959e-11
9.21775e-18
7.32024e-12
-4.24796e-11
1.02646e-18
8.97419e-12
-4.84404e-11
-1.30067e-18
1.08064e-11
-5.46662e-11
-7.85102e-18
1.28135e-11
-6.11456e-11
6.19392e-18
1.4989e-11
-6.78425e-11
-3.69241e-17
1.7325e-11
-7.47371e-11
1.9474e-17
1.98077e-11
-8.17831e-11
-7.52047e-18
2.24197e-11
-8.89417e-11
-7.50415e-18
2.5141e-11
-9.61641e-11
-3.50659e-17
-1.03396e-10
-3.21542e-17
6.83121e-14
-1.72685e-12
1.53876e-18
2.76363e-13
-5.32234e-12
-6.06548e-18
6.30948e-13
-9.16314e-12
-1.72291e-17
1.13975e-12
-1.32701e-11
1.53073e-17
1.81028e-12
-1.76605e-11
1.50943e-17
2.64975e-12
-2.23415e-11
-9.15446e-18
3.66505e-12
-2.73212e-11
2.05917e-17
4.86148e-12
-3.26016e-11
-1.45491e-17
6.24376e-12
-3.81782e-11
6.99814e-18
7.81442e-12
-4.40504e-11
1.2076e-18
9.57425e-12
-5.02003e-11
1.30436e-18
1.15213e-11
-5.66134e-11
-7.81966e-18
1.36514e-11
-6.3276e-11
2.9746e-18
1.59565e-11
-7.01483e-11
-3.97071e-17
1.84274e-11
-7.72075e-11
1.50459e-17
2.10481e-11
-8.44035e-11
-1.00424e-17
2.37995e-11
-9.16937e-11
-9.49152e-18
2.66593e-11
-9.90252e-11
-3.48316e-17
-1.0634e-10
-2.34095e-17
7.32881e-14
-1.80009e-12
4.91057e-18
2.96387e-13
-5.54542e-12
4.4177e-18
6.76238e-13
-9.54318e-12
-2.05235e-17
1.22103e-12
-1.38148e-11
6.45114e-18
1.93869e-12
-1.83781e-11
1.74854e-17
2.83659e-12
-2.32394e-11
-9.06611e-18
3.92177e-12
-2.84062e-11
2.24439e-17
5.19957e-12
-3.38795e-11
-1.44408e-17
6.67458e-12
-3.96531e-11
8.64656e-18
8.34895e-12
-4.57248e-11
3.27508e-18
1.02226e-11
-5.20741e-11
9.64448e-19
1.2293e-11
-5.8684e-11
-1.06019e-17
1.45548e-11
-6.55379e-11
1.30679e-17
1.69985e-11
-7.25923e-11
-2.92564e-17
1.96127e-11
-7.98212e-11
1.20803e-17
2.23796e-11
-8.717e-11
-8.89533e-18
2.52779e-11
-9.45923e-11
-4.28981e-18
2.82827e-11
-1.02031e-10
-3.01036e-17
-1.09423e-10
-2.34637e-17
7.86924e-14
-1.87875e-12
3.96514e-18
3.18112e-13
-5.78485e-12
1.73076e-18
7.25669e-13
-9.95083e-12
-1.09375e-17
1.30974e-12
-1.43989e-11
4.59969e-18
2.07866e-12
-1.9147e-11
1.09797e-17
3.04006e-12
-2.42008e-11
-1.49175e-17
4.20112e-12
-2.95672e-11
1.35978e-17
5.56721e-12
-3.52457e-11
-8.87648e-18
7.14255e-12
-4.12284e-11
8.51177e-18
8.92886e-12
-4.75111e-11
3.70382e-18
1.09253e-11
-5.40707e-11
1.6647e-18
1.31282e-11
-6.08871e-11
-1.25997e-17
1.55311e-11
-6.79408e-11
1.04685e-17
1.81227e-11
-7.5184e-11
-2.43331e-17
2.08891e-11
-8.25873e-11
1.59446e-17
2.38107e-11
-9.00914e-11
-1.93547e-18
2.68637e-11
-9.76456e-11
2.62694e-18
3.00199e-11
-1.05188e-10
-3.0673e-17
-1.12652e-10
-1.46063e-17
8.45861e-14
-1.96331e-12
2.89132e-18
3.41794e-13
-6.04209e-12
-1.40233e-18
7.79423e-13
-1.03886e-11
-1.56932e-17
1.40624e-12
-1.50257e-11
-4.20868e-18
2.23096e-12
-1.99717e-11
3.78592e-18
3.26149e-12
-2.52313e-11
-8.07797e-18
4.50497e-12
-3.08106e-11
1.72002e-17
5.96681e-12
-3.67076e-11
-7.1117e-18
7.6508e-12
-4.29122e-11
9.99924e-18
9.55809e-12
-4.94183e-11
1.08161e-18
1.1687e-11
-5.61996e-11
3.27173e-18
1.40327e-11
-6.32328e-11
-6.20351e-18
1.65868e-11
-7.04949e-11
2.41045e-18
1.93364e-11
-7.79339e-11
-1.84319e-17
2.22649e-11
-8.5516e-11
-5.30761e-18
2.53501e-11
-9.31771e-11
-2.7514e-17
2.85659e-11
-1.00862e-10
2.58762e-18
3.18807e-11
-1.08503e-10
-2.67923e-17
3.52596e-11
-1.1603e-10
6.26549e-18
3.86623e-11
-1.23361e-10
6.92853e-19
4.20444e-11
-1.30416e-10
-7.20702e-18
4.53584e-11
-1.37122e-10
-1.53154e-17
-1.43376e-10
-1.2029e-17
9.10659e-14
-2.05434e-12
3.53731e-18
3.67874e-13
-6.31887e-12
5.89107e-18
8.38504e-13
-1.08593e-11
-1.12045e-17
1.51204e-12
-1.56994e-11
-1.36295e-17
2.39776e-12
-2.08573e-11
1.03474e-17
3.5037e-12
-2.63372e-11
-1.55993e-17
4.83702e-12
-3.21439e-11
9.38151e-18
6.40301e-12
-3.82736e-11
-1.42985e-19
8.20489e-12
-4.47138e-11
1.99033e-17
1.02431e-11
-5.14564e-11
2.4048e-17
1.25152e-11
-5.84715e-11
1.04754e-17
1.50145e-11
-6.57321e-11
-1.04752e-17
1.7731e-11
-7.32114e-11
8.43922e-18
2.06494e-11
-8.08524e-11
-8.88825e-18
2.37504e-11
-8.86173e-11
6.02702e-18
2.70089e-11
-9.64361e-11
-2.05766e-17
3.03959e-11
-1.04249e-10
7.27531e-18
3.38758e-11
-1.11984e-10
-2.60335e-17
3.74096e-11
-1.19565e-10
-2.19117e-17
4.09532e-11
-1.26906e-10
-3.44535e-17
4.44588e-11
-1.33923e-10
-3.3114e-17
4.78759e-11
-1.4054e-10
-2.89928e-17
-1.46653e-10
-1.81603e-17
9.81236e-14
-2.15247e-12
-1.29702e-19
3.96198e-13
-6.61701e-12
-6.32811e-18
9.02977e-13
-1.13661e-11
4.24276e-18
1.62791e-12
-1.64242e-11
1.63998e-17
2.58023e-12
-2.18096e-11
-2.29313e-18
3.76818e-12
-2.75253e-11
-2.55309e-18
5.19957e-12
-3.3575e-11
9.35278e-18
6.87922e-12
-3.99529e-11
1.14995e-18
8.80879e-12
-4.6644e-11
5.38007e-18
1.09884e-11
-5.36371e-11
-4.78748e-17
1.34157e-11
-6.08982e-11
4.00136e-17
1.60809e-11
-6.83969e-11
-2.11428e-17
1.89718e-11
-7.61022e-11
-3.19661e-18
2.20707e-11
-8.39516e-11
-9.57421e-18
2.53556e-11
-9.19022e-11
5.52904e-18
2.87977e-11
-9.98786e-11
-1.93769e-17
3.23643e-11
-1.07815e-10
1.06884e-17
3.60161e-11
-1.15635e-10
-1.28359e-17
3.97095e-11
-1.23258e-10
2.75259e-18
4.33963e-11
-1.30593e-10
1.41872e-18
4.7025e-11
-1.37552e-10
1.28601e-18
5.05414e-11
-1.44057e-10
-4.47278e-18
-1.50001e-10
2.74109e-18
1.05959e-13
-2.25842e-12
1.26974e-18
4.2769e-13
-6.93872e-12
4.15759e-18
9.74156e-13
-1.19126e-11
1.4289e-18
1.75528e-12
-1.72052e-11
1.33924e-17
2.78081e-12
-2.2835e-11
9.48984e-18
4.05894e-12
-2.88036e-11
3.62039e-18
5.59743e-12
-3.51133e-11
1.37696e-17
7.40085e-12
-4.17558e-11
-1.41288e-17
9.47002e-12
-4.87137e-11
1.65899e-17
1.1804e-11
-5.59719e-11
-1.2944e-17
1.43987e-11
-6.34921e-11
6.27321e-17
1.72425e-11
-7.12401e-11
1.02508e-17
2.03209e-11
-7.91804e-11
1.72338e-17
2.36131e-11
-8.72438e-11
-7.06454e-18
2.70934e-11
-9.53826e-11
1.23485e-17
3.07295e-11
-1.03515e-10
-1.7752e-17
3.44845e-11
-1.1157e-10
1.3128e-17
3.83145e-11
-1.19466e-10
-1.32574e-17
4.21716e-11
-1.27115e-10
-6.18193e-18
4.60031e-11
-1.34425e-10
-7.54783e-18
4.9753e-11
-1.41302e-10
-1.04501e-17
5.33632e-11
-1.47668e-10
-1.76645e-17
-1.53414e-10
-5.40736e-18
1.14519e-13
-2.37296e-12
-2.88691e-18
4.61984e-13
-7.2863e-12
-1.26116e-17
1.0521e-12
-1.25026e-11
5.92119e-18
1.89496e-12
-1.80479e-11
2.0101e-17
3.00057e-12
-2.39405e-11
7.01959e-18
4.37765e-12
-3.01807e-11
8.66157e-19
6.0332e-12
-3.67688e-11
-2.2809e-17
7.97142e-12
-4.3694e-11
3.84492e-17
1.01931e-11
-5.09354e-11
2.47894e-18
1.26955e-11
-5.84745e-11
-1.50576e-17
1.54713e-11
-6.62684e-11
2.65768e-17
1.85074e-11
-7.42773e-11
-8.191e-17
2.17881e-11
-8.24606e-11
5.05867e-17
2.52875e-11
-9.0743e-11
-2.17697e-17
2.89761e-11
-9.90711e-11
2.05987e-18
3.28172e-11
-1.07357e-10
-2.11594e-17
3.67695e-11
-1.15522e-10
1.0159e-17
4.07842e-11
-1.2348e-10
-1.40473e-17
4.48085e-11
-1.3114e-10
-5.60923e-19
4.87849e-11
-1.38401e-10
1.22804e-18
5.26529e-11
-1.4517e-10
-7.83539e-19
5.63501e-11
-1.51366e-10
-1.21961e-17
-1.56879e-10
-8.40774e-18
1.24062e-13
-2.49705e-12
-3.52495e-18
5.00387e-13
-7.66257e-12
7.01188e-18
1.13891e-12
-1.31409e-11
2.92037e-17
2.04979e-12
-1.89588e-11
-1.80076e-17
3.24395e-12
-2.51347e-11
-7.16659e-18
4.72988e-12
-3.16665e-11
2.29072e-17
6.51425e-12
-3.85532e-11
-2.02132e-17
8.60072e-12
-4.57804e-11
2.39778e-17
1.09889e-11
-5.33236e-11
6.20342e-18
1.36743e-11
-6.116e-11
-8.98477e-19
1.66473e-11
-6.92418e-11
4.2016e-17
1.9892e-11
-7.75231e-11
-5.0478e-17
2.33898e-11
-8.59577e-11
6.81532e-17
2.71106e-11
-9.44634e-11
-2.05328e-17
3.10203e-11
-1.02981e-10
6.94655e-18
3.50776e-11
-1.11414e-10
-1.91494e-17
3.92358e-11
-1.1968e-10
1.3034e-17
4.3441e-11
-1.27686e-10
-1.39582e-17
4.76348e-11
-1.35334e-10
-7.55613e-18
5.17548e-11
-1.42521e-10
-7.09176e-18
5.57355e-11
-1.49151e-10
-9.69316e-18
5.95108e-11
-1.55142e-10
-1.87777e-17
-1.60384e-10
-9.73605e-18
1.34561e-13
-2.63166e-12
-5.70308e-18
5.42376e-13
-8.07044e-12
-7.70883e-18
1.23402e-12
-1.38324e-11
2.71426e-17
2.22004e-12
-1.99448e-11
9.5501e-19
3.51145e-12
-2.64261e-11
-5.71224e-18
5.11687e-12
-3.32719e-11
2.3138e-17
7.04261e-12
-4.04789e-11
-1.83746e-17
9.29137e-12
-4.8029e-11
2.37922e-17
1.18614e-11
-5.58936e-11
1.15868e-17
1.47464e-11
-6.40451e-11
-9.70711e-18
1.79339e-11
-7.24296e-11
3.99438e-17
2.14049e-11
-8.0995e-11
-5.41651e-17
2.51368e-11
-8.96889e-11
6.15775e-17
2.90949e-11
-9.84212e-11
-2.17308e-17
3.32401e-11
-1.07126e-10
5.63781e-18
3.75256e-11
-1.157e-10
-1.73207e-17
4.18987e-11
-1.24053e-10
1.43268e-17
4.62998e-11
-1.32087e-10
-9.34419e-18
5.06647e-11
-1.39699e-10
8.2617e-19
5.49255e-11
-1.46782e-10
3.13765e-18
5.90119e-11
-1.53238e-10
-2.71863e-19
6.28536e-11
-1.58985e-10
-1.26039e-17
-1.63914e-10
-4.48808e-18
1.46341e-13
-2.77805e-12
-5.12246e-18
5.89545e-13
-8.51365e-12
-2.82237e-18
1.34051e-12
-1.45832e-11
2.25802e-17
2.4102e-12
-2.10145e-11
-3.15148e-18
3.80991e-12
-2.78258e-11
-5.51254e-18
5.54804e-12
-3.50098e-11
2.85878e-17
7.63026e-12
-4.2561e-11
-8.36722e-18
1.0058e-11
-5.04566e-11
2.43124e-17
1.28279e-11
-5.86635e-11
1.51604e-17
1.59311e-11
-6.71484e-11
-8.62738e-18
1.93521e-11
-7.58509e-11
4.16012e-17
2.30681e-11
-8.47117e-11
-5.62891e-17
2.70517e-11
-9.36719e-11
6.37575e-17
3.12633e-11
-1.02632e-10
-2.20482e-17
3.56581e-11
-1.11521e-10
7.76698e-18
4.01828e-11
-1.20225e-10
-1.50031e-17
4.47787e-11
-1.28649e-10
1.57016e-17
4.93796e-11
-1.36687e-10
-8.58308e-18
5.3915e-11
-1.44234e-10
-3.63637e-18
5.83114e-11
-1.51178e-10
-3.04293e-18
6.24933e-11
-1.5742e-10
-9.20206e-18
6.63867e-11
-1.62879e-10
-2.17613e-17
-1.67449e-10
-1.08422e-17
1.59355e-13
-2.93744e-12
-3.69367e-18
6.41569e-13
-8.99585e-12
9.31993e-19
1.45793e-12
-1.53994e-11
2.25181e-17
2.61985e-12
-2.21764e-11
4.83975e-18
4.13877e-12
-2.93447e-11
9.94169e-19
6.02276e-12
-3.68937e-11
2.08772e-17
8.27695e-12
-4.4815e-11
-1.18867e-17
1.09012e-11
-5.30808e-11
2.49407e-17
1.38903e-11
-6.16525e-11
8.71532e-18
1.72322e-11
-7.04905e-11
-8.19546e-18
2.09078e-11
-7.9527e-11
3.54969e-17
2.48898e-11
-8.86946e-11
-5.85282e-17
2.91456e-11
-9.79271e-11
6.13298e-17
3.36294e-11
-1.07116e-10
-2.2906e-17
3.82895e-11
-1.16181e-10
2.49335e-18
4.30661e-11
-1.25002e-10
-1.84592e-17
4.7893e-11
-1.33476e-10
1.20568e-17
5.2697e-11
-1.41491e-10
-1.02118e-17
5.74012e-11
-1.48938e-10
3.52515e-18
6.19258e-11
-1.55703e-10
5.38072e-18
6.61906e-11
-1.61686e-10
-1.62135e-18
7.01176e-11
-1.66807e-10
-1.68482e-17
-1.70966e-10
-6.23061e-18
1.74055e-13
-3.11153e-12
-4.53387e-18
7.00267e-13
-9.5221e-12
-6.26419e-18
1.59043e-12
-1.62894e-11
2.06992e-17
2.85628e-12
-2.34421e-11
1.08171e-17
4.5091e-12
-3.09974e-11
-2.11045e-18
6.55646e-12
-3.8941e-11
3.67323e-17
9.00242e-12
-4.72608e-11
-4.80882e-18
1.18448e-11
-5.59232e-11
1.27017e-17
1.50758e-11
-6.48835e-11
1.54832e-17
1.86798e-11
-7.40946e-11
-1.60288e-17
2.26332e-11
-8.34808e-11
3.7406e-17
2.69034e-11
-9.29656e-11
-6.03928e-17
3.14516e-11
-1.02475e-10
6.28674e-17
3.62252e-11
-1.11889e-10
-2.24735e-17
4.11653e-11
-1.21121e-10
3.37962e-18
4.62041e-11
-1.30041e-10
-1.75047e-17
5.12676e-11
-1.38539e-10
1.12015e-17
5.62752e-11
-1.46499e-10
-1.09437e-17
6.11427e-11
-1.53806e-10
-3.08706e-18
6.57843e-11
-1.60345e-10
-9.90844e-19
7.01148e-11
-1.66017e-10
-6.20096e-18
7.40528e-11
-1.70746e-10
-1.94737e-17
-1.74437e-10
-7.02228e-18
1.90357e-13
-3.3019e-12
-8.58892e-19
7.65326e-13
-1.0097e-11
6.01756e-18
1.73687e-12
-1.72609e-11
4.28825e-18
3.11703e-12
-2.48223e-11
-1.08849e-17
4.91739e-12
-3.27979e-11
1.23987e-17
7.14484e-12
-4.11683e-11
9.29275e-18
9.80201e-12
-4.99179e-11
-8.55825e-18
1.28846e-11
-5.90057e-11
1.73167e-17
1.63815e-11
-6.83803e-11
-1.22141e-17
2.0273e-11
-7.79864e-11
3.89343e-19
2.45303e-11
-8.77385e-11
2.47083e-17
2.91143e-11
-9.75505e-11
-5.67743e-17
3.3979e-11
-1.07339e-10
5.38891e-17
3.90637e-11
-1.16974e-10
-2.80999e-17
4.43011e-11
-1.26358e-10
2.75874e-18
4.96144e-11
-1.35355e-10
-1.93273e-17
5.49211e-11
-1.43846e-10
1.07493e-17
6.01319e-11
-1.5171e-10
-9.55478e-18
6.51555e-11
-1.5883e-10
4.87217e-19
6.98999e-11
-1.65089e-10
3.07321e-18
7.42752e-11
-1.70392e-10
-1.77977e-18
7.81972e-11
-1.74669e-10
-1.65573e-17
-1.77831e-10
-5.21427e-18
2.08968e-13
-3.51088e-12
-2.09731e-18
8.3953e-13
-1.07276e-11
-2.1629e-18
1.90412e-12
-1.83254e-11
5.71154e-18
3.41486e-12
-2.63331e-11
-7.06318e-18
5.38284e-12
-3.4766e-11
9.1377e-18
7.8138e-12
-4.35993e-11
5.33108e-20
1.07085e-11
-5.28125e-11
-1.71726e-17
1.40595e-11
-6.23567e-11
3.84652e-17
1.78516e-11
-7.21725e-11
-1.33689e-17
2.20599e-11
-8.2195e-11
-1.63226e-17
2.66492e-11
-9.23283e-11
3.24289e-17
3.15731e-11
-1.02475e-10
-6.54436e-17
3.67772e-11
-1.12542e-10
5.63936e-17
4.21918e-11
-1.22388e-10
-2.86396e-17
4.77401e-11
-1.31907e-10
3.96352e-18
5.33357e-11
-1.4095e-10
-1.89941e-17
5.88867e-11
-1.49397e-10
1.09299e-17
6.42951e-11
-1.57118e-10
-9.91054e-18
6.94618e-11
-1.63996e-10
-2.39328e-18
7.42887e-11
-1.69916e-10
3.45442e-19
7.86817e-11
-1.74786e-10
-4.70035e-18
8.25544e-11
-1.78543e-10
-1.94077e-17
-1.81109e-10
-8.37895e-18
2.29599e-13
-3.74047e-12
9.19803e-19
9.21757e-13
-1.14197e-11
1.2367e-17
2.08898e-12
-1.94926e-11
5.93262e-18
3.74352e-12
-2.79877e-11
-1.34421e-17
5.89638e-12
-3.69188e-11
-3.53329e-18
8.55177e-12
-4.62547e-11
9.64782e-18
1.17084e-11
-5.59691e-11
8.81406e-18
1.53553e-11
-6.60037e-11
-2.81625e-17
1.94728e-11
-7.629e-11
1.11527e-17
2.40296e-11
-8.6752e-11
-2.36559e-18
2.89831e-11
-9.72821e-11
6.21856e-18
3.42778e-11
-1.07771e-10
-4.93086e-17
3.98497e-11
-1.18114e-10
4.67664e-17
4.56182e-11
-1.28156e-10
-2.62999e-17
5.14956e-11
-1.37784e-10
-3.26508e-18
5.73843e-11
-1.4684e-10
-2.45427e-17
6.31821e-11
-1.55194e-10
9.47458e-18
6.87817e-11
-1.62718e-10
-1.22444e-17
7.4076e-11
-1.69291e-10
-8.21312e-19
7.89612e-11
-1.74802e-10
1.59141e-18
8.33397e-11
-1.79165e-10
-2.96142e-18
8.7124e-11
-1.82329e-10
-1.75272e-17
-1.84227e-10
-6.43657e-18
2.5354e-13
-3.994e-12
1.39658e-18
1.01699e-12
-1.21832e-11
-4.28043e-18
2.30319e-12
-2.07788e-11
-9.41557e-18
4.1243e-12
-2.98087e-11
1.7379e-17
6.49e-12
-3.92845e-11
1.20653e-17
9.40229e-12
-4.9167e-11
-2.00199e-17
1.28567e-11
-5.94234e-11
2.39232e-18
1.68372e-11
-6.99845e-11
-5.37337e-18
2.13182e-11
-8.0771e-11
3.58516e-18
2.62605e-11
-9.16944e-11
-1.73156e-17
3.16122e-11
-1.02634e-10
1.08297e-17
3.73078e-11
-1.13467e-10
-5.78257e-17
4.32721e-11
-1.24077e-10
4.75838e-17
4.94126e-11
-1.34297e-10
-2.75589e-17
5.56294e-11
-1.44001e-10
-2.35858e-18
6.18134e-11
-1.53024e-10
-2.31525e-17
6.78512e-11
-1.61232e-10
1.12326e-17
7.3626e-11
-1.68492e-10
-1.17597e-17
7.90229e-11
-1.74688e-10
-2.02861e-18
8.39328e-11
-1.79712e-10
8.04095e-19
8.82555e-11
-1.83488e-10
-2.32175e-18
9.19039e-11
-1.85978e-10
-1.62917e-17
-1.87132e-10
-6.25936e-18
2.80015e-13
-4.274e-12
2.05222e-18
1.12231e-12
-1.30254e-11
6.90728e-18
2.53971e-12
-2.21963e-11
-2.73217e-18
4.54391e-12
-3.18129e-11
2.20118e-18
7.14395e-12
-4.18846e-11
7.87782e-18
1.03394e-11
-5.23625e-11
-1.69289e-17
1.41222e-11
-6.32063e-11
-3.10858e-18
1.84711e-11
-7.43335e-11
-1.18705e-17
2.33531e-11
-8.5653e-11
-2.42686e-18
2.87202e-11
-9.70616e-11
-9.99855e-18
3.45097e-11
-1.08424e-10
4.34313e-18
4.06437e-11
-1.19602e-10
-5.51605e-17
4.70334e-11
-1.30467e-10
4.38915e-17
5.35723e-11
-1.40835e-10
-2.73728e-17
6.01464e-11
-1.50575e-10
-2.96612e-18
6.66329e-11
-1.59511e-10
-2.25582e-17
7.29065e-11
-1.67505e-10
1.22269e-17
7.88402e-11
-1.74426e-10
-1.03916e-17
8.43119e-11
-1.8016e-10
-5.73287e-19
8.92079e-11
-1.84608e-10
5.46025e-19
9.34271e-11
-1.87707e-10
-3.09175e-18
9.68848e-11
-1.89437e-10
-1.64069e-17
-1.89764e-10
-5.38792e-18
3.11388e-13
-4.58537e-12
1.80748e-18
1.24697e-12
-1.3961e-11
3.77536e-18
2.8194e-12
-2.37687e-11
-4.34852e-18
5.03932e-12
-3.40328e-11
3.71209e-18
7.91375e-12
-4.4759e-11
1.12451e-17
1.14382e-11
-5.5887e-11
-1.80757e-17
1.55992e-11
-6.73673e-11
-7.52477e-18
2.03675e-11
-7.91021e-11
-1.543e-17
2.5701e-11
-9.09864e-11
-5.73218e-18
3.15396e-11
-1.02901e-10
-1.35032e-17
3.7808e-11
-1.14693e-10
1.59922e-18
4.44139e-11
-1.26209e-10
-5.6234e-17
5.12533e-11
-1.37306e-10
4.39474e-17
5.82046e-11
-1.47786e-10
-2.63966e-17
6.51385e-11
-1.57509e-10
-1.41118e-18
7.19184e-11
-1.66291e-10
-2.14587e-17
7.84067e-11
-1.73994e-10
1.39781e-17
8.44668e-11
-1.80486e-10
-9.57927e-18
8.99698e-11
-1.85663e-10
2.28665e-19
9.47991e-11
-1.89437e-10
2.01803e-18
9.88543e-11
-1.91763e-10
1.05561e-18
1.02055e-10
-1.92638e-10
-1.24879e-17
-1.92055e-10
-3.8874e-18
3.45923e-13
-4.93128e-12
1.11584e-18
1.38396e-12
-1.4999e-11
1.6176e-18
3.12646e-12
-2.55112e-11
-4.36367e-19
5.58284e-12
-3.64893e-11
-7.62677e-19
8.75831e-12
-4.79344e-11
6.11427e-18
1.26443e-11
-5.97731e-11
-1.57505e-17
1.72216e-11
-7.19447e-11
-4.17974e-18
2.24525e-11
-8.43332e-11
-1.54967e-17
2.82841e-11
-9.68179e-11
-1.80867e-18
3.46431e-11
-1.0926e-10
-1.41303e-17
4.14387e-11
-1.21489e-10
4.51036e-18
4.85612e-11
-1.33332e-10
-5.50352e-17
5.58884e-11
-1.44632e-10
4.49328e-17
6.32799e-11
-1.55177e-10
-2.51813e-17
7.05888e-11
-1.64818e-10
-2.33776e-18
7.76625e-11
-1.73365e-10
-2.2013e-17
8.43501e-11
-1.80681e-10
1.40179e-17
9.05053e-11
-1.86641e-10
-8.82316e-18
9.59939e-11
-1.91151e-10
1.75612e-18
1.00698e-10
-1.94142e-10
2.84851e-18
1.04521e-10
-1.95586e-10
1.04301e-18
1.0739e-10
-1.95509e-10
-1.17012e-17
-1.93926e-10
-2.51084e-18
3.87886e-13
-5.31915e-12
1.21589e-18
1.55035e-12
-1.61615e-11
5.48429e-18
3.49879e-12
-2.74597e-11
-2.23737e-18
6.24016e-12
-3.92307e-11
-1.66714e-18
9.77579e-12
-5.14701e-11
6.32256e-18
1.40901e-11
-6.40875e-11
-2.39684e-17
1.91546e-11
-7.70092e-11
-6.26156e-18
2.49192e-11
-9.0098e-11
-6.63409e-18
3.13161e-11
-1.03215e-10
-7.19464e-18
3.82549e-11
-1.16199e-10
-6.0763e-18
4.56261e-11
-1.28861e-10
1.99717e-18
5.32999e-11
-1.41007e-10
-4.98072e-17
6.11342e-11
-1.52466e-10
4.67049e-17
6.89688e-11
-1.63012e-10
-2.1758e-17
7.66391e-11
-1.72489e-10
1.17655e-18
8.39765e-11
-1.80703e-10
-1.93843e-17
9.08182e-11
-1.87523e-10
1.74297e-17
9.70094e-11
-1.92832e-10
-7.8819e-18
1.02413e-10
-1.96555e-10
2.31903e-18
1.06912e-10
-1.9864e-10
2.69421e-18
1.10416e-10
-1.9909e-10
2.66802e-18
1.12864e-10
-1.97957e-10
-1.02806e-17
-1.95289e-10
-1.65083e-18
4.33737e-13
-5.75289e-12
1.19251e-19
1.73173e-12
-1.74595e-11
-6.59122e-19
3.90424e-12
-2.96322e-11
4.9266e-18
6.95571e-12
-4.22821e-11
3.19924e-18
1.08837e-11
-5.53981e-11
-1.85808e-18
1.56655e-11
-6.88695e-11
-1.60897e-18
2.12637e-11
-8.26074e-11
-1.73494e-18
2.76146e-11
-9.64489e-11
-9.83247e-18
3.46343e-11
-1.10234e-10
1.42091e-17
4.22125e-11
-1.23777e-10
-1.43273e-17
5.02174e-11
-1.36866e-10
1.29686e-17
5.84951e-11
-1.49285e-10
-5.17572e-17
6.68787e-11
-1.60849e-10
4.87999e-17
7.5184e-11
-1.71317e-10
-2.31978e-17
8.32247e-11
-1.80529e-10
2.93081e-18
9.08143e-11
-1.88293e-10
-1.75222e-17
9.77771e-11
-1.94485e-10
1.95152e-17
1.03951e-10
-1.99007e-10
-5.17943e-18
1.09198e-10
-2.01802e-10
5.04788e-18
1.13407e-10
-2.02849e-10
5.7332e-18
1.16499e-10
-2.02182e-10
4.42971e-18
1.18428e-10
-1.99887e-10
-8.38171e-18
-1.96046e-10
-1.8707e-19
4.91206e-13
-6.24409e-12
3.55975e-19
1.95902e-12
-1.89273e-11
2.46911e-18
4.41139e-12
-3.20845e-11
5.13978e-18
7.84768e-12
-4.57184e-11
-1.13928e-19
1.22581e-11
-5.98086e-11
-2.20922e-18
1.76078e-11
-7.42192e-11
-3.85096e-18
2.38436e-11
-8.88432e-11
7.6901e-18
3.08816e-11
-1.03487e-10
-1.5685e-17
3.86153e-11
-1.17968e-10
1.63188e-17
4.6908e-11
-1.3207e-10
-7.76584e-18
5.56011e-11
-1.4556e-10
3.55205e-18
6.45128e-11
-1.58197e-10
-4.25228e-17
7.34504e-11
-1.69786e-10
4.60371e-17
8.22053e-11
-1.80071e-10
-1.75583e-17
9.05713e-11
-1.88895e-10
6.05088e-18
9.83461e-11
-1.96068e-10
-1.45968e-17
1.05344e-10
-2.01483e-10
2.31183e-17
1.11401e-10
-2.05063e-10
-4.36009e-18
1.1638e-10
-2.06781e-10
5.59263e-18
1.20181e-10
-2.06651e-10
4.9952e-18
1.22741e-10
-2.04742e-10
4.26336e-18
1.24034e-10
-2.01181e-10
-9.24405e-18
-1.96087e-10
-7.15926e-19
5.53383e-13
-6.79748e-12
-1.18015e-18
2.20404e-12
-2.0578e-11
-2.2334e-18
4.95713e-12
-3.48376e-11
6.12709e-19
8.80688e-12
-4.95682e-11
-9.82784e-19
1.37367e-11
-6.47384e-11
2.9543e-18
1.96996e-11
-8.01821e-11
3.99813e-18
2.66272e-11
-9.57709e-11
-1.11486e-17
3.44142e-11
-1.11274e-10
1.22836e-17
4.29302e-11
-1.26484e-10
1.23301e-17
5.20079e-11
-1.41148e-10
-1.49783e-17
6.14575e-11
-1.5501e-10
1.98044e-17
7.10631e-11
-1.67803e-10
-4.75023e-17
8.05991e-11
-1.79322e-10
5.33877e-17
8.9827e-11
-1.89299e-10
-1.82332e-17
9.85156e-11
-1.97584e-10
6.44468e-18
1.06445e-10
-2.03998e-10
-1.57621e-17
1.1342e-10
-2.08458e-10
2.34814e-17
1.19275e-10
-2.10918e-10
-3.54822e-18
1.23883e-10
-2.11389e-10
7.58235e-18
1.27159e-10
-2.09927e-10
8.13825e-18
1.29063e-10
-2.06646e-10
6.25535e-18
1.29597e-10
-2.01715e-10
-7.51481e-18
-1.95296e-10
3.3957e-19
6.34293e-13
-7.43178e-12
-3.26062e-19
2.52307e-12
-2.24667e-11
2.43526e-18
5.66652e-12
-3.7981e-11
1.14616e-17
1.00489e-11
-5.39505e-11
-6.29978e-18
1.56399e-11
-7.03295e-11
-5.06365e-18
2.23708e-11
-8.6913e-11
4.14757e-19
3.01471e-11
-1.03547e-10
-8.63334e-18
3.88299e-11
-1.19958e-10
-6.69565e-18
4.8253e-11
-1.35907e-10
1.35241e-17
5.82094e-11
-1.51104e-10
-1.49538e-17
6.84706e-11
-1.65271e-10
1.1509e-17
7.87828e-11
-1.78116e-10
-4.02144e-17
8.88879e-11
-1.89427e-10
5.01034e-17
9.85195e-11
-1.9893e-10
-1.25998e-17
1.07427e-10
-2.06492e-10
8.7367e-18
1.1538e-10
-2.11951e-10
-1.34498e-17
1.2218e-10
-2.15259e-10
2.57571e-17
1.2767e-10
-2.16407e-10
-3.42641e-18
1.31737e-10
-2.15457e-10
7.19318e-18
1.3432e-10
-2.1251e-10
6.99474e-18
1.35408e-10
-2.07734e-10
5.12715e-18
1.35036e-10
-2.01344e-10
-8.54537e-18
-1.93544e-10
7.47476e-19
7.20629e-13
-8.15241e-12
-5.69454e-19
2.86173e-12
-2.46078e-11
-7.32819e-19
6.41742e-12
-4.15366e-11
3.97021e-18
1.13619e-11
-5.8895e-11
8.26896e-19
1.76523e-11
-7.662e-11
-3.61241e-18
2.51986e-11
-9.44594e-11
5.40085e-18
3.38817e-11
-1.1223e-10
-1.10694e-17
4.35282e-11
-1.29604e-10
-2.97025e-18
5.39343e-11
-1.46312e-10
1.35642e-17
6.48481e-11
-1.62018e-10
-1.44809e-17
7.59963e-11
-1.7642e-10
1.61747e-17
8.70781e-11
-1.89198e-10
-4.13502e-17
9.77942e-11
-2.00142e-10
5.18342e-17
1.07842e-10
-2.08978e-10
-1.48277e-17
1.16947e-10
-2.15597e-10
1.08513e-17
1.24864e-10
-2.19868e-10
-1.35092e-17
1.31396e-10
-2.2179e-10
2.71872e-17
1.36397e-10
-2.21408e-10
-2.74715e-18
1.3978e-10
-2.1884e-10
8.64982e-18
1.41518e-10
-2.14247e-10
1.02622e-17
1.41637e-10
-2.07853e-10
8.54811e-18
1.40216e-10
-1.99924e-10
-5.4522e-18
-1.90706e-10
3.10309e-18
8.38156e-13
-8.99057e-12
-7.97523e-19
3.32344e-12
-2.70931e-11
1.08029e-18
7.43991e-12
-4.56531e-11
5.50517e-18
1.31424e-11
-6.45975e-11
-4.38819e-18
2.03625e-11
-8.38402e-11
-7.86497e-18
2.8971e-11
-1.03068e-10
2.88186e-18
3.88038e-11
-1.22063e-10
-1.29856e-17
4.96312e-11
-1.40432e-10
-6.76765e-18
6.11931e-11
-1.57874e-10
1.03716e-17
7.31761e-11
-1.74001e-10
-1.22803e-17
8.52529e-11
-1.88497e-10
1.5366e-17
9.70724e-11
-2.01018e-10
-3.75972e-17
1.08298e-10
-2.11368e-10
5.2197e-17
1.18601e-10
-2.1928e-10
-1.15838e-17
1.27695e-10
-2.24692e-10
1.21312e-17
1.35336e-10
-2.27509e-10
-1.22263e-17
1.41344e-10
-2.27798e-10
2.80283e-17
1.45598e-10
-2.25662e-10
-2.66051e-18
1.48049e-10
-2.21291e-10
7.73066e-18
1.48711e-10
-2.14909e-10
8.4732e-18
1.47658e-10
-2.06801e-10
4.32293e-18
1.45016e-10
-1.97283e-10
-9.55597e-18
-1.86643e-10
1.03466e-18
9.61436e-13
-9.95201e-12
7.90708e-20
3.80433e-12
-2.9936e-11
2.02127e-19
8.5002e-12
-5.03489e-11
6.04333e-18
1.4984e-11
-7.10813e-11
-5.68741e-18
2.31639e-11
-9.20202e-11
-8.04686e-18
3.28728e-11
-1.12777e-10
-3.34629e-18
4.39053e-11
-1.33096e-10
-1.19399e-17
5.5975e-11
-1.52502e-10
-3.92693e-18
6.87644e-11
-1.70663e-10
1.09515e-17
8.18924e-11
-1.8713e-10
-1.16298e-17
9.49702e-11
-2.01575e-10
1.66066e-17
1.07584e-10
-2.13632e-10
-3.83856e-17
1.19349e-10
-2.23133e-10
5.32024e-17
1.29899e-10
-2.2983e-10
-1.26504e-17
1.38931e-10
-2.33724e-10
1.26468e-17
1.46201e-10
-2.34779e-10
-1.46844e-17
1.51549e-10
-2.33146e-10
2.94654e-17
1.54892e-10
-2.29005e-10
-3.07112e-18
1.56229e-10
-2.22628e-10
7.16928e-18
1.55632e-10
-2.14312e-10
9.33012e-18
1.53237e-10
-2.04405e-10
6.46931e-18
1.49225e-10
-1.93272e-10
-7.47049e-18
-1.81238e-10
3.07541e-18
1.13852e-12
-1.10905e-11
-3.95407e-19
4.49691e-12
-3.32944e-11
1.36745e-18
1.00263e-11
-5.58782e-11
3.49715e-18
1.76234e-11
-7.86784e-11
-3.69906e-18
2.71483e-11
-1.01545e-10
-8.63036e-18
3.83611e-11
-1.2399e-10
-2.27909e-18
5.09787e-11
-1.45713e-10
-1.60332e-17
6.46176e-11
-1.66142e-10
-4.31137e-18
7.88716e-11
-1.84917e-10
8.85138e-18
9.32651e-11
-2.01523e-10
-1.27068e-17
1.07337e-10
-2.15648e-10
1.48726e-17
1.20612e-10
-2.26906e-10
-3.61609e-17
1.32672e-10
-2.35193e-10
5.47693e-17
1.43135e-10