/*--------------------------------*- C++ -*----------------------------------*\
| =========                 |                                                 |
| \\      /  F ield         | OpenFOAM: The Open Source CFD Toolbox           |
|  \\    /   O peration     | Version:  v2012                                 |
|   \\  /    A nd           | Website:  www.openfoam.com                      |
|    \\/     M anipulation  |                                                 |
\*---------------------------------------------------------------------------*/
FoamFile
{
    version     2.0;
    format      ascii;
    class       volScalarField;
    location    "0.2";
    object      p_rgh;
}
// * * * * * * * * * * * * * * * * * * * * * * * * * * * * * * * * * * * * * //

dimensions      [1 -1 -2 0 0 0 0];


internalField   nonuniform List<scalar> 
3326
(
3.48628e+06
3.48632e+06
3.48633e+06
3.48631e+06
3.48625e+06
3.48616e+06
3.48603e+06
3.48587e+06
3.48561e+06
3.48595e+06
3.48607e+06
3.48616e+06
3.48623e+06
3.48627e+06
3.48628e+06
3.48626e+06
3.4862e+06
3.48611e+06
3.48598e+06
3.48582e+06
3.48556e+06
3.44421e+06
3.45033e+06
3.45517e+06
3.45925e+06
3.46261e+06
3.46546e+06
3.46787e+06
3.46995e+06
3.47173e+06
3.47328e+06
3.47464e+06
3.47582e+06
3.47687e+06
3.4778e+06
3.47864e+06
3.47938e+06
3.48006e+06
3.48068e+06
3.48124e+06
3.48175e+06
3.48223e+06
3.48266e+06
3.48307e+06
3.48345e+06
3.48379e+06
3.48412e+06
3.48442e+06
3.4847e+06
3.48495e+06
3.48519e+06
3.4854e+06
3.48559e+06
3.48576e+06
3.4859e+06
3.48602e+06
3.48611e+06
3.48618e+06
3.48622e+06
3.48623e+06
3.48621e+06
3.48615e+06
3.48607e+06
3.48593e+06
3.48577e+06
3.48552e+06
3.44635e+06
3.45215e+06
3.45673e+06
3.46057e+06
3.46374e+06
3.46643e+06
3.4687e+06
3.47065e+06
3.47233e+06
3.47379e+06
3.47506e+06
3.47618e+06
3.47717e+06
3.47805e+06
3.47884e+06
3.47954e+06
3.48019e+06
3.48077e+06
3.48131e+06
3.4818e+06
3.48226e+06
3.48268e+06
3.48308e+06
3.48344e+06
3.48378e+06
3.4841e+06
3.48439e+06
3.48467e+06
3.48492e+06
3.48515e+06
3.48536e+06
3.48555e+06
3.48571e+06
3.48585e+06
3.48597e+06
3.48607e+06
3.48613e+06
3.48617e+06
3.48618e+06
3.48616e+06
3.48611e+06
3.48602e+06
3.48589e+06
3.48573e+06
3.48549e+06
3.44869e+06
3.45413e+06
3.45842e+06
3.46201e+06
3.46497e+06
3.46747e+06
3.46959e+06
3.4714e+06
3.47297e+06
3.47432e+06
3.47551e+06
3.47656e+06
3.47748e+06
3.47831e+06
3.47905e+06
3.47972e+06
3.48033e+06
3.48088e+06
3.48139e+06
3.48186e+06
3.4823e+06
3.48271e+06
3.48309e+06
3.48344e+06
3.48377e+06
3.48408e+06
3.48437e+06
3.48464e+06
3.48489e+06
3.48511e+06
3.48532e+06
3.48551e+06
3.48567e+06
3.48581e+06
3.48593e+06
3.48602e+06
3.48609e+06
3.48613e+06
3.48614e+06
3.48612e+06
3.48607e+06
3.48598e+06
3.48585e+06
3.4857e+06
3.48545e+06
3.45125e+06
3.45629e+06
3.46025e+06
3.46356e+06
3.46628e+06
3.46859e+06
3.47054e+06
3.47221e+06
3.47364e+06
3.4749e+06
3.47599e+06
3.47696e+06
3.47782e+06
3.47858e+06
3.47927e+06
3.4799e+06
3.48047e+06
3.481e+06
3.48148e+06
3.48193e+06
3.48235e+06
3.48274e+06
3.4831e+06
3.48345e+06
3.48377e+06
3.48407e+06
3.48435e+06
3.48461e+06
3.48486e+06
3.48508e+06
3.48529e+06
3.48547e+06
3.48563e+06
3.48577e+06
3.48589e+06
3.48598e+06
3.48605e+06
3.48609e+06
3.4861e+06
3.48608e+06
3.48603e+06
3.48595e+06
3.48582e+06
3.48567e+06
3.48542e+06
3.45401e+06
3.45862e+06
3.46221e+06
3.46522e+06
3.46769e+06
3.46978e+06
3.47154e+06
3.47306e+06
3.47436e+06
3.4755e+06
3.4765e+06
3.47738e+06
3.47817e+06
3.47887e+06
3.47951e+06
3.48009e+06
3.48063e+06
3.48112e+06
3.48157e+06
3.482e+06
3.4824e+06
3.48277e+06
3.48312e+06
3.48345e+06
3.48377e+06
3.48406e+06
3.48434e+06
3.48459e+06
3.48483e+06
3.48505e+06
3.48525e+06
3.48544e+06
3.4856e+06
3.48574e+06
3.48585e+06
3.48595e+06
3.48601e+06
3.48606e+06
3.48607e+06
3.48605e+06
3.486e+06
3.48591e+06
3.48579e+06
3.48564e+06
3.4854e+06
3.45696e+06
3.46111e+06
3.4643e+06
3.46699e+06
3.46918e+06
3.47104e+06
3.4726e+06
3.47395e+06
3.47512e+06
3.47613e+06
3.47703e+06
3.47782e+06
3.47854e+06
3.47918e+06
3.47976e+06
3.4803e+06
3.48079e+06
3.48125e+06
3.48167e+06
3.48208e+06
3.48245e+06
3.48281e+06
3.48315e+06
3.48347e+06
3.48377e+06
3.48405e+06
3.48432e+06
3.48457e+06
3.48481e+06
3.48503e+06
3.48523e+06
3.48541e+06
3.48557e+06
3.48571e+06
3.48582e+06
3.48591e+06
3.48598e+06
3.48602e+06
3.48603e+06
3.48602e+06
3.48597e+06
3.48588e+06
3.48576e+06
3.48561e+06
3.48537e+06
3.46009e+06
3.46376e+06
3.46651e+06
3.46885e+06
3.47074e+06
3.47236e+06
3.47372e+06
3.47489e+06
3.47591e+06
3.4768e+06
3.47758e+06
3.47828e+06
3.47892e+06
3.47949e+06
3.48002e+06
3.4805e+06
3.48096e+06
3.48138e+06
3.48178e+06
3.48215e+06
3.48251e+06
3.48285e+06
3.48317e+06
3.48348e+06
3.48377e+06
3.48405e+06
3.48431e+06
3.48456e+06
3.48479e+06
3.485e+06
3.4852e+06
3.48538e+06
3.48554e+06
3.48568e+06
3.48579e+06
3.48588e+06
3.48595e+06
3.48599e+06
3.486e+06
3.48599e+06
3.48594e+06
3.48586e+06
3.48573e+06
3.48559e+06
3.48536e+06
3.46338e+06
3.46654e+06
3.46883e+06
3.4708e+06
3.47239e+06
3.47374e+06
3.47488e+06
3.47587e+06
3.47672e+06
3.47748e+06
3.47815e+06
3.47876e+06
3.47931e+06
3.47982e+06
3.48028e+06
3.48072e+06
3.48113e+06
3.48152e+06
3.48189e+06
3.48224e+06
3.48257e+06
3.48289e+06
3.4832e+06
3.4835e+06
3.48378e+06
3.48405e+06
3.4843e+06
3.48455e+06
3.48477e+06
3.48498e+06
3.48518e+06
3.48535e+06
3.48551e+06
3.48565e+06
3.48576e+06
3.48586e+06
3.48592e+06
3.48596e+06
3.48598e+06
3.48596e+06
3.48591e+06
3.48583e+06
3.48571e+06
3.48557e+06
3.48534e+06
3.46685e+06
3.46945e+06
3.47125e+06
3.47284e+06
3.4741e+06
3.47517e+06
3.47608e+06
3.47687e+06
3.47757e+06
3.47818e+06
3.47874e+06
3.47924e+06
3.47971e+06
3.48015e+06
3.48055e+06
3.48094e+06
3.48131e+06
3.48166e+06
3.48199e+06
3.48232e+06
3.48263e+06
3.48294e+06
3.48323e+06
3.48351e+06
3.48379e+06
3.48405e+06
3.4843e+06
3.48453e+06
3.48476e+06
3.48497e+06
3.48516e+06
3.48533e+06
3.48549e+06
3.48563e+06
3.48574e+06
3.48583e+06
3.4859e+06
3.48594e+06
3.48595e+06
3.48594e+06
3.48589e+06
3.48581e+06
3.48569e+06
3.48555e+06
3.48533e+06
3.4705e+06
3.47248e+06
3.47379e+06
3.47496e+06
3.47587e+06
3.47666e+06
3.47732e+06
3.47791e+06
3.47843e+06
3.4789e+06
3.47934e+06
3.47974e+06
3.48012e+06
3.48048e+06
3.48083e+06
3.48116e+06
3.48148e+06
3.4818e+06
3.48211e+06
3.48241e+06
3.4827e+06
3.48299e+06
3.48326e+06
3.48353e+06
3.4838e+06
3.48405e+06
3.48429e+06
3.48453e+06
3.48475e+06
3.48495e+06
3.48514e+06
3.48531e+06
3.48547e+06
3.4856e+06
3.48572e+06
3.48581e+06
3.48588e+06
3.48592e+06
3.48593e+06
3.48592e+06
3.48587e+06
3.4858e+06
3.48568e+06
3.48554e+06
3.48532e+06
3.47432e+06
3.47562e+06
3.47643e+06
3.47715e+06
3.4777e+06
3.47818e+06
3.4786e+06
3.47897e+06
3.47931e+06
3.47963e+06
3.47994e+06
3.48024e+06
3.48053e+06
3.48082e+06
3.4811e+06
3.48138e+06
3.48166e+06
3.48194e+06
3.48222e+06
3.48249e+06
3.48276e+06
3.48303e+06
3.4833e+06
3.48356e+06
3.48381e+06
3.48406e+06
3.48429e+06
3.48452e+06
3.48474e+06
3.48494e+06
3.48513e+06
3.4853e+06
3.48545e+06
3.48559e+06
3.4857e+06
3.48579e+06
3.48586e+06
3.4859e+06
3.48591e+06
3.4859e+06
3.48585e+06
3.48578e+06
3.48567e+06
3.48553e+06
3.48532e+06
3.47833e+06
3.47888e+06
3.47916e+06
3.47941e+06
3.47958e+06
3.47975e+06
3.47989e+06
3.48005e+06
3.4802e+06
3.48037e+06
3.48055e+06
3.48074e+06
3.48094e+06
3.48115e+06
3.48138e+06
3.4816e+06
3.48184e+06
3.48208e+06
3.48233e+06
3.48258e+06
3.48283e+06
3.48308e+06
3.48333e+06
3.48358e+06
3.48382e+06
3.48406e+06
3.48429e+06
3.48452e+06
3.48473e+06
3.48493e+06
3.48511e+06
3.48528e+06
3.48544e+06
3.48557e+06
3.48569e+06
3.48578e+06
3.48584e+06
3.48588e+06
3.4859e+06
3.48589e+06
3.48584e+06
3.48577e+06
3.48566e+06
3.48553e+06
3.48532e+06
3.4825e+06
3.48225e+06
3.48199e+06
3.48173e+06
3.48151e+06
3.48133e+06
3.48121e+06
3.48113e+06
3.4811e+06
3.48111e+06
3.48116e+06
3.48124e+06
3.48135e+06
3.48149e+06
3.48165e+06
3.48182e+06
3.48202e+06
3.48222e+06
3.48244e+06
3.48266e+06
3.48289e+06
3.48313e+06
3.48337e+06
3.4836e+06
3.48384e+06
3.48407e+06
3.48429e+06
3.48451e+06
3.48472e+06
3.48492e+06
3.4851e+06
3.48527e+06
3.48543e+06
3.48556e+06
3.48567e+06
3.48576e+06
3.48583e+06
3.48587e+06
3.48589e+06
3.48587e+06
3.48583e+06
3.48576e+06
3.48565e+06
3.48552e+06
3.48532e+06
3.48686e+06
3.48575e+06
3.48489e+06
3.4841e+06
3.48346e+06
3.48294e+06
3.48253e+06
3.48221e+06
3.48199e+06
3.48184e+06
3.48176e+06
3.48173e+06
3.48175e+06
3.48182e+06
3.48191e+06
3.48204e+06
3.48219e+06
3.48236e+06
3.48255e+06
3.48275e+06
3.48296e+06
3.48318e+06
3.4834e+06
3.48363e+06
3.48385e+06
3.48408e+06
3.4843e+06
3.48451e+06
3.48472e+06
3.48491e+06
3.4851e+06
3.48527e+06
3.48542e+06
3.48555e+06
3.48566e+06
3.48575e+06
3.48582e+06
3.48586e+06
3.48588e+06
3.48587e+06
3.48582e+06
3.48576e+06
3.48565e+06
3.48552e+06
3.48533e+06
3.49143e+06
3.4894e+06
3.48788e+06
3.48652e+06
3.48543e+06
3.48454e+06
3.48384e+06
3.48329e+06
3.48287e+06
3.48256e+06
3.48235e+06
3.48221e+06
3.48215e+06
3.48214e+06
3.48217e+06
3.48225e+06
3.48235e+06
3.48249e+06
3.48265e+06
3.48283e+06
3.48302e+06
3.48322e+06
3.48343e+06
3.48365e+06
3.48387e+06
3.48409e+06
3.4843e+06
3.48451e+06
3.48472e+06
3.48491e+06
3.48509e+06
3.48526e+06
3.48541e+06
3.48554e+06
3.48566e+06
3.48575e+06
3.48581e+06
3.48586e+06
3.48587e+06
3.48586e+06
3.48582e+06
3.48575e+06
3.48565e+06
3.48553e+06
3.48534e+06
3.4962e+06
3.49318e+06
3.4909e+06
3.48894e+06
3.48739e+06
3.48613e+06
3.48513e+06
3.48434e+06
3.48373e+06
3.48326e+06
3.48292e+06
3.48268e+06
3.48253e+06
3.48244e+06
3.48242e+06
3.48245e+06
3.48251e+06
3.48262e+06
3.48275e+06
3.4829e+06
3.48308e+06
3.48326e+06
3.48346e+06
3.48367e+06
3.48388e+06
3.4841e+06
3.48431e+06
3.48452e+06
3.48472e+06
3.48491e+06
3.48509e+06
3.48526e+06
3.48541e+06
3.48554e+06
3.48565e+06
3.48574e+06
3.48581e+06
3.48585e+06
3.48587e+06
3.48586e+06
3.48582e+06
3.48575e+06
3.48565e+06
3.48553e+06
3.48535e+06
3.50111e+06
3.49702e+06
3.49392e+06
3.49135e+06
3.48931e+06
3.48768e+06
3.48638e+06
3.48535e+06
3.48455e+06
3.48393e+06
3.48347e+06
3.48312e+06
3.48289e+06
3.48273e+06
3.48265e+06
3.48263e+06
3.48266e+06
3.48274e+06
3.48284e+06
3.48297e+06
3.48313e+06
3.48331e+06
3.48349e+06
3.48369e+06
3.4839e+06
3.48411e+06
3.48431e+06
3.48452e+06
3.48472e+06
3.48491e+06
3.48509e+06
3.48526e+06
3.48541e+06
3.48554e+06
3.48565e+06
3.48574e+06
3.48581e+06
3.48585e+06
3.48587e+06
3.48586e+06
3.48582e+06
3.48575e+06
3.48566e+06
3.48554e+06
3.48537e+06
3.50595e+06
3.50081e+06
3.49685e+06
3.49367e+06
3.49115e+06
3.48915e+06
3.48757e+06
3.48631e+06
3.48533e+06
3.48457e+06
3.48398e+06
3.48354e+06
3.48323e+06
3.48301e+06
3.48288e+06
3.48281e+06
3.48281e+06
3.48285e+06
3.48293e+06
3.48304e+06
3.48318e+06
3.48334e+06
3.48352e+06
3.48371e+06
3.48391e+06
3.48412e+06
3.48432e+06
3.48452e+06
3.48472e+06
3.48491e+06
3.48509e+06
3.48526e+06
3.48541e+06
3.48554e+06
3.48565e+06
3.48575e+06
3.48581e+06
3.48585e+06
3.48587e+06
3.48586e+06
3.48582e+06
3.48576e+06
3.48566e+06
3.48555e+06
3.48538e+06
3.51047e+06
3.50438e+06
3.49958e+06
3.49583e+06
3.49287e+06
3.49053e+06
3.48868e+06
3.48721e+06
3.48606e+06
3.48516e+06
3.48446e+06
3.48393e+06
3.48354e+06
3.48326e+06
3.48308e+06
3.48297e+06
3.48293e+06
3.48295e+06
3.48301e+06
3.4831e+06
3.48323e+06
3.48338e+06
3.48355e+06
3.48373e+06
3.48393e+06
3.48413e+06
3.48433e+06
3.48453e+06
3.48473e+06
3.48492e+06
3.4851e+06
3.48526e+06
3.48541e+06
3.48555e+06
3.48566e+06
3.48575e+06
3.48582e+06
3.48586e+06
3.48588e+06
3.48587e+06
3.48583e+06
3.48577e+06
3.48567e+06
3.48557e+06
3.4854e+06
3.51437e+06
3.50755e+06
3.50201e+06
3.49779e+06
3.49442e+06
3.49178e+06
3.48968e+06
3.48803e+06
3.48672e+06
3.4857e+06
3.4849e+06
3.48429e+06
3.48383e+06
3.48349e+06
3.48327e+06
3.48312e+06
3.48305e+06
3.48304e+06
3.48308e+06
3.48316e+06
3.48327e+06
3.48341e+06
3.48357e+06
3.48375e+06
3.48394e+06
3.48414e+06
3.48434e+06
3.48454e+06
3.48473e+06
3.48492e+06
3.4851e+06
3.48527e+06
3.48542e+06
3.48555e+06
3.48567e+06
3.48576e+06
3.48583e+06
3.48587e+06
3.48588e+06
3.48587e+06
3.48584e+06
3.48577e+06
3.48568e+06
3.48558e+06
3.48543e+06
3.51752e+06
3.5102e+06
3.50407e+06
3.49947e+06
3.49577e+06
3.49288e+06
3.49057e+06
3.48875e+06
3.48731e+06
3.48618e+06
3.48529e+06
3.4846e+06
3.48408e+06
3.4837e+06
3.48343e+06
3.48325e+06
3.48316e+06
3.48312e+06
3.48314e+06
3.48321e+06
3.48331e+06
3.48344e+06
3.4836e+06
3.48377e+06
3.48395e+06
3.48415e+06
3.48435e+06
3.48455e+06
3.48474e+06
3.48493e+06
3.48511e+06
3.48528e+06
3.48543e+06
3.48557e+06
3.48568e+06
3.48577e+06
3.48584e+06
3.48588e+06
3.48589e+06
3.48588e+06
3.48585e+06
3.48579e+06
3.4857e+06
3.4856e+06
3.48545e+06
3.51996e+06
3.51228e+06
3.50574e+06
3.50086e+06
3.4969e+06
3.4938e+06
3.49133e+06
3.48937e+06
3.48782e+06
3.48659e+06
3.48563e+06
3.48488e+06
3.48431e+06
3.48388e+06
3.48357e+06
3.48337e+06
3.48325e+06
3.48319e+06
3.4832e+06
3.48325e+06
3.48334e+06
3.48346e+06
3.48361e+06
3.48378e+06
3.48397e+06
3.48416e+06
3.48436e+06
3.48455e+06
3.48475e+06
3.48494e+06
3.48512e+06
3.48529e+06
3.48544e+06
3.48558e+06
3.48569e+06
3.48578e+06
3.48585e+06
3.48589e+06
3.48591e+06
3.4859e+06
3.48586e+06
3.4858e+06
3.48571e+06
3.48562e+06
3.48548e+06
3.52177e+06
3.51383e+06
3.50704e+06
3.50194e+06
3.4978e+06
3.49456e+06
3.49196e+06
3.48989e+06
3.48825e+06
3.48695e+06
3.48592e+06
3.48512e+06
3.4845e+06
3.48403e+06
3.4837e+06
3.48346e+06
3.48332e+06
3.48325e+06
3.48324e+06
3.48328e+06
3.48337e+06
3.48348e+06
3.48363e+06
3.48379e+06
3.48398e+06
3.48417e+06
3.48437e+06
3.48457e+06
3.48476e+06
3.48495e+06
3.48514e+06
3.48531e+06
3.48546e+06
3.4856e+06
3.48571e+06
3.4858e+06
3.48587e+06
3.48591e+06
3.48592e+06
3.48591e+06
3.48587e+06
3.48581e+06
3.48573e+06
3.48564e+06
3.48551e+06
3.52307e+06
3.51488e+06
3.50797e+06
3.50273e+06
3.49848e+06
3.49513e+06
3.49244e+06
3.4903e+06
3.48859e+06
3.48723e+06
3.48615e+06
3.48531e+06
3.48465e+06
3.48416e+06
3.4838e+06
3.48354e+06
3.48338e+06
3.4833e+06
3.48328e+06
3.48331e+06
3.48339e+06
3.4835e+06
3.48364e+06
3.4838e+06
3.48398e+06
3.48418e+06
3.48438e+06
3.48458e+06
3.48478e+06
3.48497e+06
3.48515e+06
3.48532e+06
3.48548e+06
3.48562e+06
3.48573e+06
3.48582e+06
3.48589e+06
3.48593e+06
3.48594e+06
3.48593e+06
3.48589e+06
3.48583e+06
3.48575e+06
3.48566e+06
3.48554e+06
3.5239e+06
3.51547e+06
3.50857e+06
3.50324e+06
3.49894e+06
3.49554e+06
3.4928e+06
3.49061e+06
3.48885e+06
3.48745e+06
3.48633e+06
3.48546e+06
3.48477e+06
3.48426e+06
3.48387e+06
3.4836e+06
3.48342e+06
3.48333e+06
3.4833e+06
3.48333e+06
3.4834e+06
3.48351e+06
3.48365e+06
3.48381e+06
3.48399e+06
3.48419e+06
3.48439e+06
3.48459e+06
3.48479e+06
3.48499e+06
3.48517e+06
3.48534e+06
3.4855e+06
3.48564e+06
3.48575e+06
3.48585e+06
3.48591e+06
3.48595e+06
3.48597e+06
3.48595e+06
3.48591e+06
3.48585e+06
3.48577e+06
3.48568e+06
3.48557e+06
3.55029e+06
3.53528e+06
3.52422e+06
3.51561e+06
3.50882e+06
3.50348e+06
3.4992e+06
3.49578e+06
3.49303e+06
3.49081e+06
3.48903e+06
3.4876e+06
3.48647e+06
3.48556e+06
3.48486e+06
3.48432e+06
3.48392e+06
3.48364e+06
3.48345e+06
3.48335e+06
3.48331e+06
3.48333e+06
3.4834e+06
3.48351e+06
3.48365e+06
3.48382e+06
3.484e+06
3.48419e+06
3.4844e+06
3.4846e+06
3.48481e+06
3.485e+06
3.48519e+06
3.48537e+06
3.48553e+06
3.48566e+06
3.48578e+06
3.48587e+06
3.48594e+06
3.48598e+06
3.48599e+06
3.48597e+06
3.48593e+06
3.48587e+06
3.48579e+06
3.4857e+06
3.4856e+06
3.55012e+06
3.53435e+06
3.52394e+06
3.51533e+06
3.50875e+06
3.50347e+06
3.49926e+06
3.49587e+06
3.49314e+06
3.49093e+06
3.48914e+06
3.4877e+06
3.48655e+06
3.48563e+06
3.48491e+06
3.48436e+06
3.48395e+06
3.48366e+06
3.48347e+06
3.48336e+06
3.48332e+06
3.48334e+06
3.4834e+06
3.48351e+06
3.48365e+06
3.48382e+06
3.484e+06
3.4842e+06
3.48441e+06
3.48462e+06
3.48482e+06
3.48502e+06
3.48522e+06
3.48539e+06
3.48555e+06
3.48569e+06
3.48581e+06
3.4859e+06
3.48597e+06
3.48601e+06
3.48602e+06
3.486e+06
3.48596e+06
3.48589e+06
3.48581e+06
3.48572e+06
3.48563e+06
3.54788e+06
3.53271e+06
3.52294e+06
3.51464e+06
3.50836e+06
3.50324e+06
3.49916e+06
3.49584e+06
3.49315e+06
3.49096e+06
3.48918e+06
3.48774e+06
3.48658e+06
3.48566e+06
3.48494e+06
3.48438e+06
3.48396e+06
3.48366e+06
3.48346e+06
3.48335e+06
3.48331e+06
3.48333e+06
3.4834e+06
3.48351e+06
3.48365e+06
3.48382e+06
3.48401e+06
3.48421e+06
3.48442e+06
3.48463e+06
3.48484e+06
3.48505e+06
3.48524e+06
3.48542e+06
3.48558e+06
3.48573e+06
3.48585e+06
3.48594e+06
3.486e+06
3.48604e+06
3.48605e+06
3.48603e+06
3.48598e+06
3.48591e+06
3.48583e+06
3.48575e+06
3.48566e+06
3.54416e+06
3.53069e+06
3.52143e+06
3.5137e+06
3.50775e+06
3.50285e+06
3.49892e+06
3.4957e+06
3.49307e+06
3.49092e+06
3.48916e+06
3.48773e+06
3.48658e+06
3.48565e+06
3.48493e+06
3.48436e+06
3.48394e+06
3.48364e+06
3.48344e+06
3.48333e+06
3.48329e+06
3.48331e+06
3.48338e+06
3.4835e+06
3.48364e+06
3.48382e+06
3.48401e+06
3.48422e+06
3.48443e+06
3.48465e+06
3.48486e+06
3.48507e+06
3.48527e+06
3.48545e+06
3.48562e+06
3.48576e+06
3.48588e+06
3.48598e+06
3.48604e+06
3.48608e+06
3.48608e+06
3.48606e+06
3.48601e+06
3.48594e+06
3.48585e+06
3.48577e+06
3.48568e+06
3.53981e+06
3.52819e+06
3.51953e+06
3.51252e+06
3.50694e+06
3.50233e+06
3.49858e+06
3.49548e+06
3.49292e+06
3.49082e+06
3.48909e+06
3.48768e+06
3.48653e+06
3.48561e+06
3.48488e+06
3.48432e+06
3.4839e+06
3.4836e+06
3.4834e+06
3.48329e+06
3.48326e+06
3.48328e+06
3.48336e+06
3.48348e+06
3.48363e+06
3.48381e+06
3.48401e+06
3.48422e+06
3.48444e+06
3.48467e+06
3.48489e+06
3.4851e+06
3.4853e+06
3.48549e+06
3.48566e+06
3.4858e+06
3.48592e+06
3.48602e+06
3.48608e+06
3.48612e+06
3.48612e+06
3.48609e+06
3.48604e+06
3.48596e+06
3.48587e+06
3.48579e+06
3.48571e+06
3.53602e+06
3.52571e+06
3.51778e+06
3.51139e+06
3.50615e+06
3.5018e+06
3.49821e+06
3.49522e+06
3.49273e+06
3.49068e+06
3.48898e+06
3.48758e+06
3.48645e+06
3.48553e+06
3.48481e+06
3.48425e+06
3.48384e+06
3.48354e+06
3.48335e+06
3.48324e+06
3.48321e+06
3.48325e+06
3.48333e+06
3.48346e+06
3.48362e+06
3.4838e+06
3.48401e+06
3.48423e+06
3.48446e+06
3.48469e+06
3.48491e+06
3.48513e+06
3.48534e+06
3.48553e+06
3.4857e+06
3.48585e+06
3.48597e+06
3.48606e+06
3.48613e+06
3.48616e+06
3.48616e+06
3.48613e+06
3.48607e+06
3.48599e+06
3.48589e+06
3.48581e+06
3.48573e+06
3.53259e+06
3.52309e+06
3.51597e+06
3.51015e+06
3.50529e+06
3.5012e+06
3.49778e+06
3.4949e+06
3.49249e+06
3.49048e+06
3.48881e+06
3.48744e+06
3.48632e+06
3.48542e+06
3.48471e+06
3.48416e+06
3.48375e+06
3.48346e+06
3.48327e+06
3.48318e+06
3.48316e+06
3.4832e+06
3.48329e+06
3.48343e+06
3.4836e+06
3.48379e+06
3.48401e+06
3.48424e+06
3.48447e+06
3.48471e+06
3.48494e+06
3.48516e+06
3.48537e+06
3.48557e+06
3.48574e+06
3.48589e+06
3.48602e+06
3.48611e+06
3.48617e+06
3.4862e+06
3.4862e+06
3.48617e+06
3.4861e+06
3.48602e+06
3.48592e+06
3.48583e+06
3.48575e+06
3.53112e+06
3.52175e+06
3.51498e+06
3.50939e+06
3.50469e+06
3.50073e+06
3.4974e+06
3.49458e+06
3.49222e+06
3.49025e+06
3.4886e+06
3.48725e+06
3.48615e+06
3.48526e+06
3.48456e+06
3.48402e+06
3.48363e+06
3.48335e+06
3.48318e+06
3.4831e+06
3.48309e+06
3.48314e+06
3.48324e+06
3.48339e+06
3.48357e+06
3.48378e+06
3.484e+06
3.48424e+06
3.48448e+06
3.48473e+06
3.48497e+06
3.4852e+06
3.48541e+06
3.48561e+06
3.48579e+06
3.48594e+06
3.48607e+06
3.48616e+06
3.48623e+06
3.48625e+06
3.48625e+06
3.48621e+06
3.48614e+06
3.48604e+06
3.48594e+06
3.48584e+06
3.48577e+06
3.52893e+06
3.51988e+06
3.51353e+06
3.50829e+06
3.50386e+06
3.50009e+06
3.49688e+06
3.49416e+06
3.49186e+06
3.48993e+06
3.48832e+06
3.487e+06
3.48592e+06
3.48505e+06
3.48437e+06
3.48385e+06
3.48348e+06
3.48322e+06
3.48306e+06
3.48299e+06
3.483e+06
3.48307e+06
3.48319e+06
3.48335e+06
3.48354e+06
3.48376e+06
3.484e+06
3.48424e+06
3.4845e+06
3.48475e+06
3.485e+06
3.48523e+06
3.48546e+06
3.48566e+06
3.48584e+06
3.486e+06
3.48613e+06
3.48622e+06
3.48628e+06
3.48631e+06
3.4863e+06
3.48625e+06
3.48618e+06
3.48607e+06
3.48596e+06
3.48585e+06
3.48577e+06
3.52927e+06
3.52016e+06
3.51327e+06
3.50785e+06
3.50335e+06
3.49958e+06
3.49639e+06
3.4937e+06
3.49143e+06
3.48954e+06
3.48796e+06
3.48667e+06
3.48561e+06
3.48478e+06
3.48412e+06
3.48363e+06
3.48328e+06
3.48304e+06
3.48291e+06
3.48286e+06
3.48289e+06
3.48298e+06
3.48311e+06
3.48329e+06
3.4835e+06
3.48374e+06
3.48399e+06
3.48425e+06
3.48451e+06
3.48477e+06
3.48503e+06
3.48528e+06
3.48551e+06
3.48572e+06
3.4859e+06
3.48606e+06
3.48619e+06
3.48629e+06
3.48635e+06
3.48637e+06
3.48636e+06
3.4863e+06
3.48622e+06
3.48611e+06
3.48598e+06
3.48586e+06
3.48578e+06
3.5224e+06
3.51596e+06
3.5106e+06
3.50599e+06
3.50193e+06
3.49844e+06
3.49544e+06
3.49289e+06
3.49073e+06
3.48892e+06
3.48742e+06
3.48619e+06
3.48519e+06
3.4844e+06
3.4838e+06
3.48335e+06
3.48303e+06
3.48283e+06
3.48273e+06
3.48271e+06
3.48276e+06
3.48287e+06
3.48303e+06
3.48323e+06
3.48346e+06
3.48371e+06
3.48397e+06
3.48425e+06
3.48452e+06
3.4848e+06
3.48506e+06
3.48532e+06
3.48555e+06
3.48577e+06
3.48596e+06
3.48612e+06
3.48625e+06
3.48635e+06
3.48641e+06
3.48643e+06
3.48641e+06
3.48635e+06
3.48626e+06
3.48614e+06
3.486e+06
3.48587e+06
3.48577e+06
3.48628e+06
3.48632e+06
3.48633e+06
3.48631e+06
3.48625e+06
3.48616e+06
3.48603e+06
3.48587e+06
3.48561e+06
3.48595e+06
3.48607e+06
3.48616e+06
3.48623e+06
3.48627e+06
3.48628e+06
3.48626e+06
3.4862e+06
3.48611e+06
3.48598e+06
3.48582e+06
3.48556e+06
3.44421e+06
3.45033e+06
3.45517e+06
3.45925e+06
3.46261e+06
3.46546e+06
3.46787e+06
3.46995e+06
3.47173e+06
3.47328e+06
3.47464e+06
3.47582e+06
3.47687e+06
3.4778e+06
3.47864e+06
3.47938e+06
3.48006e+06
3.48068e+06
3.48124e+06
3.48175e+06
3.48223e+06
3.48266e+06
3.48307e+06
3.48345e+06
3.48379e+06
3.48412e+06
3.48442e+06
3.4847e+06
3.48495e+06
3.48519e+06
3.4854e+06
3.48559e+06
3.48576e+06
3.4859e+06
3.48602e+06
3.48611e+06
3.48618e+06
3.48622e+06
3.48623e+06
3.48621e+06
3.48615e+06
3.48607e+06
3.48593e+06
3.48577e+06
3.48552e+06
3.44635e+06
3.45215e+06
3.45673e+06
3.46057e+06
3.46374e+06
3.46643e+06
3.4687e+06
3.47065e+06
3.47233e+06
3.47379e+06
3.47506e+06
3.47618e+06
3.47717e+06
3.47805e+06
3.47884e+06
3.47954e+06
3.48019e+06
3.48077e+06
3.48131e+06
3.4818e+06
3.48226e+06
3.48268e+06
3.48308e+06
3.48344e+06
3.48378e+06
3.4841e+06
3.48439e+06
3.48467e+06
3.48492e+06
3.48515e+06
3.48536e+06
3.48555e+06
3.48571e+06
3.48585e+06
3.48597e+06
3.48607e+06
3.48613e+06
3.48617e+06
3.48618e+06
3.48616e+06
3.48611e+06
3.48602e+06
3.48589e+06
3.48573e+06
3.48549e+06
3.44869e+06
3.45413e+06
3.45842e+06
3.46201e+06
3.46497e+06
3.46747e+06
3.46959e+06
3.4714e+06
3.47297e+06
3.47432e+06
3.47551e+06
3.47656e+06
3.47748e+06
3.47831e+06
3.47905e+06
3.47972e+06
3.48033e+06
3.48088e+06
3.48139e+06
3.48186e+06
3.4823e+06
3.48271e+06
3.48309e+06
3.48344e+06
3.48377e+06
3.48408e+06
3.48437e+06
3.48464e+06
3.48489e+06
3.48511e+06
3.48532e+06
3.48551e+06
3.48567e+06
3.48581e+06
3.48593e+06
3.48602e+06
3.48609e+06
3.48613e+06
3.48614e+06
3.48612e+06
3.48607e+06
3.48598e+06
3.48585e+06
3.4857e+06
3.48545e+06
3.45125e+06
3.45629e+06
3.46025e+06
3.46356e+06
3.46628e+06
3.46859e+06
3.47054e+06
3.47221e+06
3.47364e+06
3.4749e+06
3.47599e+06
3.47696e+06
3.47782e+06
3.47858e+06
3.47927e+06
3.4799e+06
3.48047e+06
3.481e+06
3.48148e+06
3.48193e+06
3.48235e+06
3.48274e+06
3.4831e+06
3.48345e+06
3.48377e+06
3.48407e+06
3.48435e+06
3.48461e+06
3.48486e+06
3.48508e+06
3.48529e+06
3.48547e+06
3.48563e+06
3.48577e+06
3.48589e+06
3.48598e+06
3.48605e+06
3.48609e+06
3.4861e+06
3.48608e+06
3.48603e+06
3.48595e+06
3.48582e+06
3.48567e+06
3.48542e+06
3.45401e+06
3.45862e+06
3.46221e+06
3.46522e+06
3.46769e+06
3.46978e+06
3.47154e+06
3.47306e+06
3.47436e+06
3.4755e+06
3.4765e+06
3.47738e+06
3.47817e+06
3.47887e+06
3.47951e+06
3.48009e+06
3.48063e+06
3.48112e+06
3.48157e+06
3.482e+06
3.4824e+06
3.48277e+06
3.48312e+06
3.48345e+06
3.48377e+06
3.48406e+06
3.48434e+06
3.48459e+06
3.48483e+06
3.48505e+06
3.48525e+06
3.48544e+06
3.4856e+06
3.48574e+06
3.48585e+06
3.48595e+06
3.48601e+06
3.48606e+06
3.48607e+06
3.48605e+06
3.486e+06
3.48591e+06
3.48579e+06
3.48564e+06
3.4854e+06
3.45696e+06
3.46111e+06
3.4643e+06
3.46699e+06
3.46918e+06
3.47104e+06
3.4726e+06
3.47395e+06
3.47512e+06
3.47613e+06
3.47703e+06
3.47782e+06
3.47854e+06
3.47918e+06
3.47976e+06
3.4803e+06
3.48079e+06
3.48125e+06
3.48167e+06
3.48208e+06
3.48245e+06
3.48281e+06
3.48315e+06
3.48347e+06
3.48377e+06
3.48405e+06
3.48432e+06
3.48457e+06
3.48481e+06
3.48503e+06
3.48523e+06
3.48541e+06
3.48557e+06
3.48571e+06
3.48582e+06
3.48591e+06
3.48598e+06
3.48602e+06
3.48603e+06
3.48602e+06
3.48597e+06
3.48588e+06
3.48576e+06
3.48561e+06
3.48537e+06
3.46009e+06
3.46376e+06
3.46651e+06
3.46885e+06
3.47074e+06
3.47236e+06
3.47372e+06
3.47489e+06
3.47591e+06
3.4768e+06
3.47758e+06
3.47828e+06
3.47892e+06
3.47949e+06
3.48002e+06
3.4805e+06
3.48096e+06
3.48138e+06
3.48178e+06
3.48215e+06
3.48251e+06
3.48285e+06
3.48317e+06
3.48348e+06
3.48377e+06
3.48405e+06
3.48431e+06
3.48456e+06
3.48479e+06
3.485e+06
3.4852e+06
3.48538e+06
3.48554e+06
3.48568e+06
3.48579e+06
3.48588e+06
3.48595e+06
3.48599e+06
3.486e+06
3.48599e+06
3.48594e+06
3.48586e+06
3.48573e+06
3.48559e+06
3.48536e+06
3.46338e+06
3.46654e+06
3.46883e+06
3.4708e+06
3.47239e+06
3.47374e+06
3.47488e+06
3.47587e+06
3.47672e+06
3.47748e+06
3.47815e+06
3.47876e+06
3.47931e+06
3.47982e+06
3.48028e+06
3.48072e+06
3.48113e+06
3.48152e+06
3.48189e+06
3.48224e+06
3.48257e+06
3.48289e+06
3.4832e+06
3.4835e+06
3.48378e+06
3.48405e+06
3.4843e+06
3.48455e+06
3.48477e+06
3.48498e+06
3.48518e+06
3.48535e+06
3.48551e+06
3.48565e+06
3.48576e+06
3.48586e+06
3.48592e+06
3.48596e+06
3.48598e+06
3.48596e+06
3.48591e+06
3.48583e+06
3.48571e+06
3.48557e+06
3.48534e+06
3.46685e+06
3.46945e+06
3.47125e+06
3.47284e+06
3.4741e+06
3.47517e+06
3.47608e+06
3.47687e+06
3.47757e+06
3.47818e+06
3.47874e+06
3.47924e+06
3.47971e+06
3.48015e+06
3.48055e+06
3.48094e+06
3.48131e+06
3.48166e+06
3.48199e+06
3.48232e+06
3.48263e+06
3.48294e+06
3.48323e+06
3.48351e+06
3.48379e+06
3.48405e+06
3.4843e+06
3.48453e+06
3.48476e+06
3.48497e+06
3.48516e+06
3.48533e+06
3.48549e+06
3.48563e+06
3.48574e+06
3.48583e+06
3.4859e+06
3.48594e+06
3.48595e+06
3.48594e+06
3.48589e+06
3.48581e+06
3.48569e+06
3.48555e+06
3.48533e+06
3.4705e+06
3.47248e+06
3.47379e+06
3.47496e+06
3.47587e+06
3.47666e+06
3.47732e+06
3.47791e+06
3.47843e+06
3.4789e+06
3.47934e+06
3.47974e+06
3.48012e+06
3.48048e+06
3.48083e+06
3.48116e+06
3.48148e+06
3.4818e+06
3.48211e+06
3.48241e+06
3.4827e+06
3.48299e+06
3.48326e+06
3.48353e+06
3.4838e+06
3.48405e+06
3.48429e+06
3.48453e+06
3.48475e+06
3.48495e+06
3.48514e+06
3.48531e+06
3.48547e+06
3.4856e+06
3.48572e+06
3.48581e+06
3.48588e+06
3.48592e+06
3.48593e+06
3.48592e+06
3.48587e+06
3.4858e+06
3.48568e+06
3.48554e+06
3.48532e+06
3.47432e+06
3.47562e+06
3.47643e+06
3.47715e+06
3.4777e+06
3.47818e+06
3.4786e+06
3.47897e+06
3.47931e+06
3.47963e+06
3.47994e+06
3.48024e+06
3.48053e+06
3.48082e+06
3.4811e+06
3.48138e+06
3.48166e+06
3.48194e+06
3.48222e+06
3.48249e+06
3.48276e+06
3.48303e+06
3.4833e+06
3.48356e+06
3.48381e+06
3.48406e+06
3.48429e+06
3.48452e+06
3.48474e+06
3.48494e+06
3.48513e+06
3.4853e+06
3.48545e+06
3.48559e+06
3.4857e+06
3.48579e+06
3.48586e+06
3.4859e+06
3.48591e+06
3.4859e+06
3.48585e+06
3.48578e+06
3.48567e+06
3.48553e+06
3.48532e+06
3.47833e+06
3.47888e+06
3.47916e+06
3.47941e+06
3.47958e+06
3.47975e+06
3.47989e+06
3.48005e+06
3.4802e+06
3.48037e+06
3.48055e+06
3.48074e+06
3.48094e+06
3.48115e+06
3.48138e+06
3.4816e+06
3.48184e+06
3.48208e+06
3.48233e+06
3.48258e+06
3.48283e+06
3.48308e+06
3.48333e+06
3.48358e+06
3.48382e+06
3.48406e+06
3.48429e+06
3.48452e+06
3.48473e+06
3.48493e+06
3.48511e+06
3.48528e+06
3.48544e+06
3.48557e+06
3.48569e+06
3.48578e+06
3.48584e+06
3.48588e+06
3.4859e+06
3.48589e+06
3.48584e+06
3.48577e+06
3.48566e+06
3.48553e+06
3.48532e+06
3.4825e+06
3.48225e+06
3.48199e+06
3.48173e+06
3.48151e+06
3.48133e+06
3.48121e+06
3.48113e+06
3.4811e+06
3.48111e+06
3.48116e+06
3.48124e+06
3.48135e+06
3.48149e+06
3.48165e+06
3.48182e+06
3.48202e+06
3.48222e+06
3.48244e+06
3.48266e+06
3.48289e+06
3.48313e+06
3.48337e+06
3.4836e+06
3.48384e+06
3.48407e+06
3.48429e+06
3.48451e+06
3.48472e+06
3.48492e+06
3.4851e+06
3.48527e+06
3.48543e+06
3.48556e+06
3.48567e+06
3.48576e+06
3.48583e+06
3.48587e+06
3.48589e+06
3.48587e+06
3.48583e+06
3.48576e+06
3.48565e+06
3.48552e+06
3.48532e+06
3.48686e+06
3.48575e+06
3.48489e+06
3.4841e+06
3.48346e+06
3.48294e+06
3.48253e+06
3.48221e+06
3.48199e+06
3.48184e+06
3.48176e+06
3.48173e+06
3.48175e+06
3.48182e+06
3.48191e+06
3.48204e+06
3.48219e+06
3.48236e+06
3.48255e+06
3.48275e+06
3.48296e+06
3.48318e+06
3.4834e+06
3.48363e+06
3.48385e+06
3.48408e+06
3.4843e+06
3.48451e+06
3.48472e+06
3.48491e+06
3.4851e+06
3.48527e+06
3.48542e+06
3.48555e+06
3.48566e+06
3.48575e+06
3.48582e+06
3.48586e+06
3.48588e+06
3.48587e+06
3.48582e+06
3.48576e+06
3.48565e+06
3.48552e+06
3.48533e+06
3.49143e+06
3.4894e+06
3.48788e+06
3.48652e+06
3.48543e+06
3.48454e+06
3.48384e+06
3.48329e+06
3.48287e+06
3.48256e+06
3.48235e+06
3.48221e+06
3.48215e+06
3.48214e+06
3.48217e+06
3.48225e+06
3.48235e+06
3.48249e+06
3.48265e+06
3.48283e+06
3.48302e+06
3.48322e+06
3.48343e+06
3.48365e+06
3.48387e+06
3.48409e+06
3.4843e+06
3.48451e+06
3.48472e+06
3.48491e+06
3.48509e+06
3.48526e+06
3.48541e+06
3.48554e+06
3.48566e+06
3.48575e+06
3.48581e+06
3.48586e+06
3.48587e+06
3.48586e+06
3.48582e+06
3.48575e+06
3.48565e+06
3.48553e+06
3.48534e+06
3.4962e+06
3.49318e+06
3.4909e+06
3.48894e+06
3.48739e+06
3.48613e+06
3.48513e+06
3.48434e+06
3.48373e+06
3.48326e+06
3.48292e+06
3.48268e+06
3.48253e+06
3.48244e+06
3.48242e+06
3.48245e+06
3.48251e+06
3.48262e+06
3.48275e+06
3.4829e+06
3.48308e+06
3.48326e+06
3.48346e+06
3.48367e+06
3.48388e+06
3.4841e+06
3.48431e+06
3.48452e+06
3.48472e+06
3.48491e+06
3.48509e+06
3.48526e+06
3.48541e+06
3.48554e+06
3.48565e+06
3.48574e+06
3.48581e+06
3.48585e+06
3.48587e+06
3.48586e+06
3.48582e+06
3.48575e+06
3.48565e+06
3.48553e+06
3.48535e+06
3.50111e+06
3.49702e+06
3.49392e+06
3.49135e+06
3.48931e+06
3.48768e+06
3.48638e+06
3.48535e+06
3.48455e+06
3.48393e+06
3.48347e+06
3.48312e+06
3.48289e+06
3.48273e+06
3.48265e+06
3.48263e+06
3.48266e+06
3.48274e+06
3.48284e+06
3.48297e+06
3.48313e+06
3.48331e+06
3.48349e+06
3.48369e+06
3.4839e+06
3.48411e+06
3.48431e+06
3.48452e+06
3.48472e+06
3.48491e+06
3.48509e+06
3.48526e+06
3.48541e+06
3.48554e+06
3.48565e+06
3.48574e+06
3.48581e+06
3.48585e+06
3.48587e+06
3.48586e+06
3.48582e+06
3.48575e+06
3.48566e+06
3.48554e+06
3.48537e+06