/*--------------------------------*- C++ -*----------------------------------*\
| =========                 |                                                 |
| \\      /  F ield         | OpenFOAM: The Open Source CFD Toolbox           |
|  \\    /   O peration     | Version:  v2012                                 |
|   \\  /    A nd           | Website:  www.openfoam.com                      |
|    \\/     M anipulation  |                                                 |
\*---------------------------------------------------------------------------*/
FoamFile
{
    version     2.0;
    format      ascii;
    class       surfaceScalarField;
    location    "0.2";
    object      phi;
}
// * * * * * * * * * * * * * * * * * * * * * * * * * * * * * * * * * * * * * //

dimensions      [0 3 -1 0 0 0 0];
oriented        oriented;


internalField   nonuniform List<scalar> 
8145
(
-2.4037e-08
8.47839e-08
2.98255e-17
-2.04165e-08
8.92409e-08
-3.081e-16
-1.66624e-08
9.1586e-08
-1.47522e-16
-1.28766e-08
9.11737e-08
-7.01825e-17
-9.19387e-09
8.72552e-08
2.00987e-17
-5.79115e-09
7.8976e-08
1.73469e-16
-2.90235e-09
6.53071e-08
-1.04437e-16
-8.3562e-10
4.51535e-08
-6.19477e-17
1.72792e-08
-7.6724e-17
-3.32013e-08
6.1028e-08
-3.51493e-16
-3.03775e-08
6.86909e-08
-2.41102e-16
-2.72521e-08
7.56094e-08
-1.98791e-16
-2.38648e-08
8.13965e-08
2.58245e-17
-2.027e-08
8.56461e-08
-3.0958e-16
-1.65426e-08
8.78587e-08
-1.49652e-16
-1.2784e-08
8.7415e-08
-6.87524e-17
-9.12795e-09
8.35992e-08
2.3188e-17
-5.75005e-09
7.55981e-08
1.80526e-16
-2.88222e-09
6.24393e-08
-9.4231e-17
-8.3013e-10
4.31014e-08
-5.40234e-17
1.64491e-08
-6.74595e-17
-9.27481e-09
-2.68462e-08
-3.82921e-15
-1.06843e-08
-2.92941e-08
-4.29693e-15
-1.21741e-08
-3.15341e-08
-4.47966e-15
-1.37247e-08
-3.35352e-08
-4.05426e-15
-1.53212e-08
-3.52931e-08
-3.85704e-15
-1.69536e-08
-3.68177e-08
-3.66327e-15
-1.8615e-08
-3.81243e-08
-3.54181e-15
-2.03004e-08
-3.92164e-08
-3.34793e-15
-2.20057e-08
-4.01011e-08
-3.20029e-15
-2.37261e-08
-4.07676e-08
-3.04874e-15
-2.54557e-08
-4.12041e-08
-2.896e-15
-2.71868e-08
-4.13891e-08
-2.7583e-15
-2.89101e-08
-4.12926e-08
-2.66529e-15
-3.06142e-08
-4.08925e-08
-2.59235e-15
-3.22858e-08
-4.01496e-08
-2.44648e-15
-3.39097e-08
-3.90365e-08
-2.52237e-15
-3.54699e-08
-3.75212e-08
-2.3187e-15
-3.69485e-08
-3.55725e-08
-2.14213e-15
-3.83264e-08
-3.31633e-08
-1.9671e-15
-3.95836e-08
-3.02688e-08
-1.78372e-15
-4.06991e-08
-2.6869e-08
-1.61819e-15
-4.16512e-08
-2.29465e-08
-1.45947e-15
-4.24184e-08
-1.84918e-08
-1.30926e-15
-4.29781e-08
-1.35004e-08
-1.16302e-15
-4.33087e-08
-7.97511e-09
-1.01952e-15
-4.33877e-08
-1.93417e-09
-8.92689e-16
-4.31952e-08
4.60131e-09
-7.60815e-16
-4.27109e-08
1.15931e-08
-6.17416e-16
-4.19178e-08
1.89852e-08
-4.65457e-16
-4.08011e-08
2.66995e-08
-3.12598e-16
-3.93483e-08
3.46609e-08
-1.57838e-16
-3.75535e-08
4.2722e-08
7.2336e-17
-3.54143e-08
5.07531e-08
-1.15307e-16
-3.29369e-08
5.85507e-08
-3.80746e-16
-3.01359e-08
6.58898e-08
-2.5401e-16
-2.70352e-08
7.25088e-08
-1.94629e-16
-2.36742e-08
7.80354e-08
2.3873e-17
-2.01074e-08
8.20793e-08
-3.10042e-16
-1.64093e-08
8.41607e-08
-1.51103e-16
-1.26805e-08
8.36863e-08
-6.74865e-17
-9.05405e-09
7.99727e-08
2.60669e-17
-5.70379e-09
7.22479e-08
1.86663e-16
-2.85945e-09
5.95949e-08
-8.48271e-17
-8.2387e-10
4.10659e-08
-4.56038e-17
1.56252e-08
-5.833e-17
-9.3422e-09
-2.55843e-08
-3.33996e-15
-1.07085e-08
-2.79279e-08
-3.92093e-15
-1.21567e-08
-3.00859e-08
-4.2107e-15
-1.36679e-08
-3.2024e-08
-4.05877e-15
-1.52277e-08
-3.37333e-08
-3.90482e-15
-1.68256e-08
-3.52198e-08
-3.6854e-15
-1.84545e-08
-3.64954e-08
-3.53379e-15
-2.01093e-08
-3.75617e-08
-3.33137e-15
-2.17853e-08
-3.8425e-08
-3.18545e-15
-2.34778e-08
-3.90751e-08
-3.03906e-15
-2.51808e-08
-3.9501e-08
-2.90144e-15
-2.68869e-08
-3.96829e-08
-2.78122e-15
-2.85869e-08
-3.95927e-08
-2.7083e-15
-3.02695e-08
-3.92099e-08
-2.65806e-15
-3.19218e-08
-3.84974e-08
-2.5709e-15
-3.35287e-08
-3.74294e-08
-2.60101e-15
-3.50744e-08
-3.59755e-08
-2.37589e-15
-3.6541e-08
-3.41059e-08
-2.17862e-15
-3.79095e-08
-3.17948e-08
-1.98615e-15
-3.91599e-08
-2.90184e-08
-1.79259e-15
-4.02712e-08
-2.57577e-08
-1.61942e-15
-4.12216e-08
-2.19959e-08
-1.45675e-15
-4.19896e-08
-1.77239e-08
-1.30513e-15
-4.25522e-08
-1.29375e-08
-1.15938e-15
-4.2888e-08
-7.6396e-09
-1.01771e-15
-4.29743e-08
-1.84764e-09
-8.87976e-16
-4.27909e-08
4.41783e-09
-7.54773e-16
-4.23177e-08
1.11201e-08
-6.14716e-16
-4.15375e-08
1.82049e-08
-4.66865e-16
-4.04356e-08
2.55973e-08
-3.18286e-16
-3.89992e-08
3.32248e-08
-1.66698e-16
-3.72228e-08
4.09454e-08
5.91232e-17
-3.51038e-08
4.86343e-08
-1.43757e-16
-3.26486e-08
5.60956e-08
-4.06907e-16
-2.98718e-08
6.31129e-08
-2.66101e-16
-2.67974e-08
6.94345e-08
-1.90557e-16
-2.34648e-08
7.47028e-08
2.26217e-17
-1.99282e-08
7.85427e-08
-3.09811e-16
-1.62619e-08
8.04944e-08
-1.51971e-16
-1.25659e-08
7.99903e-08
-6.63674e-17
-8.97191e-09
7.63787e-08
2.85788e-17
-5.65216e-09
6.89281e-08
1.9124e-16
-2.83392e-09
5.67767e-08
-7.63006e-17
-8.16802e-10
3.90487e-08
-3.79248e-17
1.48084e-08
-4.98326e-17
-9.39947e-09
-2.43668e-08
-3.65557e-15
-1.07217e-08
-2.66056e-08
-3.92929e-15
-1.21275e-08
-2.86801e-08
-3.96132e-15
-1.35986e-08
-3.05529e-08
-3.94701e-15
-1.51206e-08
-3.22113e-08
-3.911e-15
-1.66833e-08
-3.36571e-08
-3.73124e-15
-1.82791e-08
-3.48995e-08
-3.59334e-15
-1.99026e-08
-3.59382e-08
-3.39828e-15
-2.15491e-08
-3.67786e-08
-3.24605e-15
-2.32134e-08
-3.74107e-08
-3.08504e-15
-2.48898e-08
-3.78246e-08
-2.94624e-15
-2.65708e-08
-3.80018e-08
-2.82651e-15
-2.82473e-08
-3.79162e-08
-2.75911e-15
-2.99084e-08
-3.75489e-08
-2.7194e-15
-3.15411e-08
-3.68648e-08
-2.65626e-15
-3.31307e-08
-3.58396e-08
-2.67388e-15
-3.46614e-08
-3.44448e-08
-2.4322e-15
-3.61154e-08
-3.26519e-08
-2.21441e-15
-3.74738e-08
-3.04364e-08
-2.00543e-15
-3.87167e-08
-2.77756e-08
-1.80099e-15
-3.98229e-08
-2.46514e-08
-1.62047e-15
-4.07707e-08
-2.10479e-08
-1.45343e-15
-4.15383e-08
-1.69563e-08
-1.29992e-15
-4.2103e-08
-1.23727e-08
-1.15391e-15
-4.2443e-08
-7.29984e-09
-1.013e-15
-4.25357e-08
-1.75471e-09
-8.81858e-16
-4.23609e-08
4.24286e-09
-7.48351e-16
-4.18982e-08
1.06576e-08
-6.11068e-16
-4.11306e-08
1.74373e-08
-4.66653e-16
-4.00432e-08
2.45098e-08
-3.21974e-16
-3.86236e-08
3.18054e-08
-1.73612e-16
-3.68659e-08
3.91876e-08
4.65307e-17
-3.47679e-08
4.65364e-08
-1.64611e-16
-3.23359e-08
5.36637e-08
-4.29044e-16
-2.95847e-08
6.03615e-08
-2.7676e-16
-2.65383e-08
6.63882e-08
-1.87346e-16
-2.3236e-08
7.14005e-08
2.21654e-17
-1.97321e-08
7.50387e-08
-3.08875e-16
-1.61002e-08
7.68626e-08
-1.52398e-16
-1.24398e-08
7.63298e-08
-6.55771e-17
-8.88123e-09
7.28201e-08
3.02501e-17
-5.59497e-09
6.56418e-08
1.93949e-16
-2.80551e-09
5.39872e-08
-6.96101e-17
-8.08886e-10
3.70521e-08
-3.20142e-17
1.39995e-08
-4.36423e-17
-9.44601e-09
-2.31942e-08
-3.67188e-15
-1.07235e-08
-2.53281e-08
-3.54489e-15
-1.2086e-08
-2.73176e-08
-3.55498e-15
-1.3516e-08
-2.9123e-08
-3.89615e-15
-1.49994e-08
-3.07278e-08
-3.85127e-15
-1.65259e-08
-3.21307e-08
-3.61456e-15
-1.80879e-08
-3.33374e-08
-3.47277e-15
-1.96796e-08
-3.43465e-08
-3.29694e-15
-2.12961e-08
-3.51621e-08
-3.16926e-15
-2.29321e-08
-3.57746e-08
-3.02755e-15
-2.45818e-08
-3.61749e-08
-2.91179e-15
-2.62376e-08
-3.63459e-08
-2.81307e-15
-2.78907e-08
-3.62633e-08
-2.76777e-15
-2.95301e-08
-3.59095e-08
-2.74713e-15
-3.11431e-08
-3.52518e-08
-2.70483e-15
-3.27151e-08
-3.42675e-08
-2.73023e-15
-3.42303e-08
-3.29295e-08
-2.47746e-15
-3.56712e-08
-3.1211e-08
-2.24158e-15
-3.70189e-08
-2.90888e-08
-2.01859e-15
-3.82534e-08
-2.65413e-08
-1.80494e-15
-3.93536e-08
-2.35512e-08
-1.61845e-15
-4.02978e-08
-2.01036e-08
-1.44775e-15
-4.10642e-08
-1.619e-08
-1.29264e-15
-4.16299e-08
-1.18067e-08
-1.14652e-15
-4.19732e-08
-6.95675e-09
-1.00619e-15
-4.20715e-08
-1.65622e-09
-8.74719e-16
-4.19045e-08
4.07569e-09
-7.41589e-16
-4.14518e-08
1.02051e-08
-6.07156e-16
-4.06964e-08
1.66819e-08
-4.66015e-16
-3.96236e-08
2.34368e-08
-3.25147e-16
-3.82207e-08
3.04027e-08
-1.80085e-16
-3.64822e-08
3.74489e-08
3.537e-17
-3.44059e-08
4.44602e-08
-1.82941e-16
-3.19982e-08
5.12561e-08
-4.45993e-16
-2.92739e-08
5.76372e-08
-2.85592e-16
-2.62573e-08
6.33716e-08
-1.84798e-16
-2.29874e-08
6.81306e-08
2.12978e-17
-1.95184e-08
7.15698e-08
-3.07597e-16
-1.59237e-08
7.32679e-08
-1.52388e-16
-1.23017e-08
7.27078e-08
-6.46301e-17
-8.78171e-09
6.93001e-08
3.18514e-17
-5.53199e-09
6.23921e-08
1.95892e-16
-2.7741e-09
5.12293e-08
-6.36413e-17
-8.00076e-10
3.50781e-08
-2.66891e-17
1.31994e-08
-3.80127e-17
-9.48076e-09
-2.20673e-08
-3.46413e-15
-1.07129e-08
-2.40959e-08
-3.27984e-15
-1.20313e-08
-2.59992e-08
-3.38478e-15
-1.34191e-08
-2.77351e-08
-3.86711e-15
-1.48629e-08
-2.9284e-08
-3.86337e-15
-1.63524e-08
-3.06412e-08
-3.60427e-15
-1.78799e-08
-3.181e-08
-3.45141e-15
-1.94393e-08
-3.27871e-08
-3.27573e-15
-2.10255e-08
-3.35759e-08
-3.14861e-15
-2.2633e-08
-3.41671e-08
-3.01157e-15
-2.42559e-08
-3.4552e-08
-2.8994e-15
-2.58866e-08
-3.47151e-08
-2.80782e-15
-2.75162e-08
-3.46337e-08
-2.77227e-15
-2.91339e-08
-3.42918e-08
-2.76265e-15
-3.07271e-08
-3.36587e-08
-2.73525e-15
-3.22812e-08
-3.27132e-08
-2.77121e-15
-3.37806e-08
-3.143e-08
-2.50803e-15
-3.52079e-08
-2.97837e-08
-2.25671e-15
-3.65441e-08
-2.77526e-08
-2.02277e-15
-3.77695e-08
-2.5316e-08
-1.80238e-15
-3.88628e-08
-2.24578e-08
-1.61179e-15
-3.98025e-08
-1.91637e-08
-1.43864e-15
-4.05666e-08
-1.54258e-08
-1.28266e-15
-4.11324e-08
-1.12407e-08
-1.1368e-15
-4.14782e-08
-6.61128e-09
-9.97336e-16
-4.15811e-08
-1.55303e-09
-8.66092e-16
-4.14211e-08
3.91557e-09
-7.33846e-16
-4.09779e-08
9.76203e-09
-6.0225e-16
-4.02343e-08
1.59383e-08
-4.64359e-16
-3.91758e-08
2.23781e-08
-3.27249e-16
-3.77899e-08
2.9017e-08
-1.85458e-16
-3.6071e-08
3.57299e-08
2.45016e-17
-3.40171e-08
4.24064e-08
-1.97655e-16
-3.16348e-08
4.88739e-08
-4.63779e-16
-2.89389e-08
5.49412e-08
-2.9377e-16
-2.59537e-08
6.03864e-08
-1.83536e-16
-2.27184e-08
6.48952e-08
1.99713e-17
-1.92868e-08
6.81382e-08
-3.06523e-16
-1.57319e-08
6.97131e-08
-1.52718e-16
-1.21514e-08
6.91273e-08
-6.43858e-17
-8.67302e-09
6.58218e-08
3.24313e-17
-5.46297e-09
5.9182e-08
1.9628e-16
-2.73953e-09
4.85059e-08
-5.92321e-17
-7.90324e-10
3.31289e-08
-2.2623e-17
1.24091e-08
-3.36905e-17
-9.5021e-09
-2.09866e-08
-3.42299e-15
-1.06882e-08
-2.29098e-08
-3.08408e-15
-1.19617e-08
-2.47257e-08
-3.2221e-15
-1.33066e-08
-2.63902e-08
-3.59396e-15
-1.47099e-08
-2.78806e-08
-3.60098e-15
-1.61616e-08
-2.91895e-08
-3.38236e-15
-1.76539e-08
-3.03176e-08
-3.28104e-15
-1.91805e-08
-3.12604e-08
-3.14578e-15
-2.07361e-08
-3.20203e-08
-3.04983e-15
-2.23151e-08
-3.25881e-08
-2.93457e-15
-2.39112e-08
-3.2956e-08
-2.84169e-15
-2.55168e-08
-3.31094e-08
-2.76682e-15
-2.7123e-08
-3.30275e-08
-2.74738e-15
-2.87191e-08
-3.26958e-08
-2.75141e-15
-3.02923e-08
-3.20855e-08
-2.74011e-15
-3.18284e-08
-3.1177e-08
-2.79038e-15
-3.33117e-08
-2.99466e-08
-2.51927e-15
-3.47249e-08
-2.83706e-08
-2.2573e-15
-3.6049e-08
-2.64284e-08
-2.01687e-15
-3.72644e-08
-2.41007e-08
-1.79278e-15
-3.835e-08
-2.13722e-08
-1.60031e-15
-3.92841e-08
-1.82294e-08
-1.42608e-15
-4.0045e-08
-1.4665e-08
-1.27014e-15
-4.06099e-08
-1.06757e-08
-1.12508e-15
-4.0957e-08
-6.26441e-09
-9.86881e-16
-4.10638e-08
-1.44602e-09
-8.56502e-16
-4.09101e-08
3.76173e-09
-7.25667e-16
-4.04757e-08
9.3278e-09
-5.96933e-16
-3.97436e-08
1.52062e-08
-4.62301e-16
-3.86993e-08
2.13336e-08
-3.28935e-16
-3.73304e-08
2.76483e-08
-1.9048e-16
-3.56316e-08
3.4031e-08
1.50352e-17
-3.36009e-08
4.03759e-08
-2.12011e-16
-3.1245e-08
4.65181e-08
-4.8136e-16
-2.8579e-08
5.2275e-08
-3.01019e-16
-2.5627e-08
5.74346e-08
-1.83077e-16
-2.24284e-08
6.16965e-08
1.77208e-17
-1.90366e-08
6.47464e-08
-3.05324e-16
-1.55243e-08
6.62008e-08
-1.52726e-16
-1.19883e-08
6.55913e-08
-6.38962e-17
-8.55482e-09
6.23883e-08
3.31228e-17
-5.38768e-09
5.60149e-08
1.9641e-16
-2.70167e-09
4.58198e-08
-5.49269e-17
-7.79578e-10
3.12068e-08
-1.86457e-17
1.16295e-08
-2.92928e-17
-9.50773e-09
-1.99527e-08
-2.95953e-15
-1.06472e-08
-2.17704e-08
-2.78077e-15
-1.1875e-08
-2.34978e-08
-3.12598e-15
-1.31762e-08
-2.5089e-08
-3.58653e-15
-1.45384e-08
-2.65184e-08
-3.58982e-15
-1.59517e-08
-2.77763e-08
-3.3285e-15
-1.74083e-08
-2.8861e-08
-3.21454e-15
-1.8902e-08
-2.97668e-08
-3.08239e-15
-2.04269e-08
-3.04954e-08
-2.99209e-15
-2.19773e-08
-3.10377e-08
-2.88279e-15
-2.35467e-08
-3.13865e-08
-2.79792e-15
-2.51275e-08
-3.15286e-08
-2.73024e-15
-2.67105e-08
-3.14446e-08
-2.71685e-15
-2.82849e-08
-3.11213e-08
-2.72659e-15
-2.98383e-08
-3.05322e-08
-2.72401e-15
-3.13561e-08
-2.9659e-08
-2.78882e-15
-3.28229e-08
-2.84797e-08
-2.50937e-15
-3.42214e-08
-2.69721e-08
-2.24239e-15
-3.55328e-08
-2.5117e-08
-2.00021e-15
-3.67375e-08
-2.28961e-08
-1.77582e-15
-3.78144e-08
-2.02953e-08
-1.58365e-15
-3.8742e-08
-1.73017e-08
-1.40989e-15
-3.94986e-08
-1.39084e-08
-1.25497e-15
-4.00615e-08
-1.01127e-08
-1.11137e-15
-4.0409e-08
-5.91713e-09
-9.74914e-16
-4.05187e-08
-1.33611e-09
-8.46038e-16
-4.03705e-08
3.61339e-09
-7.17092e-16
-3.99443e-08
8.90179e-09
-5.91286e-16
-3.92233e-08
1.44852e-08
-4.5995e-16
-3.8193e-08
2.03031e-08
-3.30319e-16
-3.68413e-08
2.62969e-08
-1.9511e-16
-3.5163e-08
3.23525e-08
5.32575e-18
-3.31563e-08
3.83693e-08
-2.23319e-16
-3.0828e-08
4.41899e-08
-4.95768e-16
-2.81933e-08
4.96402e-08
-3.06923e-16
-2.52764e-08
5.45178e-08
-1.83635e-16
-2.21166e-08
5.85367e-08
1.49637e-17
-1.87673e-08
6.13971e-08
-3.04253e-16
-1.53005e-08
6.2734e-08
-1.52954e-16
-1.1812e-08
6.21028e-08
-6.3899e-17
-8.42674e-09
5.9003e-08
3.30729e-17
-5.30584e-09
5.2894e-08
1.95473e-16
-2.66035e-09
4.31743e-08
-5.1355e-17
-7.6778e-10
2.93143e-08
-1.54557e-17
1.08617e-08
-2.58478e-17
-9.49451e-09
-1.89668e-08
-3.12591e-15
-1.05867e-08
-2.06782e-08
-2.80553e-15
-1.17683e-08
-2.23162e-08
-3.13846e-15
-1.30253e-08
-2.38319e-08
-3.34954e-15
-1.43459e-08
-2.51978e-08
-3.36839e-15
-1.57205e-08
-2.64017e-08
-3.16298e-15
-1.71414e-08
-2.74401e-08
-3.09195e-15
-1.8602e-08
-2.83062e-08
-2.98474e-15
-2.00965e-08
-2.90009e-08
-2.90821e-15
-2.16186e-08
-2.95156e-08
-2.80873e-15
-2.31616e-08
-2.98434e-08
-2.7328e-15
-2.47178e-08
-2.99724e-08
-2.67306e-15
-2.62777e-08
-2.98847e-08
-2.66626e-15
-2.78308e-08
-2.95684e-08
-2.68048e-15
-2.93641e-08
-2.89989e-08
-2.68322e-15
-3.08636e-08
-2.81595e-08
-2.76205e-15
-3.23136e-08
-2.70296e-08
-2.47731e-15
-3.36969e-08
-2.55888e-08
-2.21203e-15
-3.49949e-08
-2.3819e-08
-1.97291e-15
-3.61879e-08
-2.17032e-08
-1.75132e-15
-3.72552e-08
-1.9228e-08
-1.5617e-15
-3.81752e-08
-1.63815e-08
-1.38992e-15
-3.89264e-08
-1.31573e-08
-1.23709e-15
-3.94862e-08
-9.5527e-09
-1.09559e-15
-3.98331e-08
-5.57049e-09
-9.61414e-16
-3.99447e-08
-1.22425e-09
-8.34619e-16
-3.98012e-08
3.46976e-09
-7.0799e-16
-3.93827e-08
8.48339e-09
-5.85214e-16
-3.86723e-08
1.37748e-08
-4.57236e-16
-3.7656e-08
1.92866e-08
-3.31351e-16
-3.63217e-08
2.49628e-08
-1.99449e-16
-3.46644e-08
3.06951e-08
-2.83363e-18
-3.26825e-08
3.63875e-08
-2.33258e-16
-3.0383e-08
4.18904e-08
-5.00638e-16
-2.77811e-08
4.70382e-08
-3.10475e-16
-2.49012e-08
5.16381e-08
-1.84496e-16
-2.17826e-08
5.5418e-08
1.15569e-17
-1.84782e-08
5.80927e-08
-3.02858e-16
-1.50598e-08
5.93156e-08
-1.52676e-16
-1.16222e-08
5.86652e-08
-6.34276e-17
-8.28841e-09
5.56693e-08
3.34131e-17
-5.21718e-09
4.98228e-08
1.94726e-16
-2.61541e-09
4.05726e-08
-4.68996e-17
-7.5487e-10
2.74537e-08
-1.1916e-17
1.01069e-08
-2.19257e-17
-9.45819e-09
-1.80296e-08
-2.93044e-15
-1.05026e-08
-1.96338e-08
-2.66371e-15
-1.16377e-08
-2.11811e-08
-3.01976e-15
-1.28505e-08
-2.26191e-08
-3.2263e-15
-1.41295e-08
-2.39188e-08
-3.23091e-15
-1.54656e-08
-2.50656e-08
-3.02076e-15
-1.68511e-08
-2.60546e-08
-2.96492e-15
-1.82791e-08
-2.68782e-08
-2.88072e-15
-1.97434e-08
-2.75365e-08
-2.81929e-15
-2.12377e-08
-2.80213e-08
-2.73237e-15
-2.27549e-08
-2.83262e-08
-2.66565e-15
-2.42869e-08
-2.84403e-08
-2.61196e-15
-2.58242e-08
-2.83474e-08
-2.60722e-15
-2.73559e-08
-2.80367e-08
-2.6211e-15
-2.88693e-08
-2.74855e-08
-2.62288e-15
-3.03501e-08
-2.66785e-08
-2.70852e-15
-3.17829e-08
-2.55968e-08
-2.4252e-15
-3.31504e-08
-2.42213e-08
-2.16749e-15
-3.44342e-08
-2.25352e-08
-1.93547e-15
-3.56148e-08
-2.05227e-08
-1.71959e-15
-3.66714e-08
-1.81714e-08
-1.53453e-15
-3.75827e-08
-1.547e-08
-1.36619e-15
-3.83273e-08
-1.24127e-08
-1.21643e-15
-3.88829e-08
-8.99695e-09
-1.07772e-15
-3.92281e-08
-5.22556e-09
-9.46341e-16
-3.93407e-08
-1.1114e-09
-8.22132e-16
-3.92011e-08
3.33002e-09
-6.98198e-16
-3.87895e-08
8.07198e-09
-5.78572e-16
-3.80895e-08
1.30748e-08
-4.54029e-16
-3.7087e-08
1.82839e-08
-3.31899e-16
-3.57703e-08
2.36464e-08
-2.03169e-16
-3.41345e-08
2.90592e-08
-1.09994e-17
-3.21784e-08
3.44314e-08
-2.39685e-16
-2.99089e-08
3.9621e-08
-4.99139e-16
-2.73414e-08
4.44707e-08
-3.12317e-16
-2.45006e-08
4.87974e-08
-1.8568e-16
-2.14254e-08
5.23427e-08
7.94427e-18
-1.81688e-08
5.48361e-08
-3.01422e-16
-1.48017e-08
5.59486e-08
-1.52514e-16
-1.14181e-08
5.52816e-08
-6.33235e-17
-8.13943e-09
5.23905e-08
3.31677e-17
-5.1214e-09
4.68047e-08
1.93189e-16
-2.56666e-09
3.80178e-08
-4.25556e-17
-7.4078e-10
2.56279e-08
-8.89306e-18
9.36608e-09
-1.87607e-17
-9.39354e-09
-1.7142e-08
-2.88396e-15
-1.03899e-08
-1.86374e-08
-2.55992e-15
-1.14787e-08
-2.00923e-08
-2.89731e-15
-1.26477e-08
-2.14501e-08
-3.10908e-15
-1.38859e-08
-2.26806e-08
-3.1444e-15
-1.51843e-08
-2.37672e-08
-2.95412e-15
-1.65351e-08
-2.47038e-08
-2.90347e-15
-1.79313e-08
-2.5482e-08
-2.81854e-15
-1.93665e-08
-2.61014e-08
-2.75149e-15
-2.08337e-08
-2.6554e-08
-2.66195e-15
-2.23257e-08
-2.68342e-08
-2.59447e-15
-2.3834e-08
-2.6932e-08
-2.54127e-15
-2.5349e-08
-2.68324e-08
-2.53558e-15
-2.68596e-08
-2.65261e-08
-2.54668e-15
-2.83531e-08
-2.59921e-08
-2.54426e-15
-2.9815e-08
-2.52164e-08
-2.63104e-15
-3.12301e-08
-2.41817e-08
-2.35605e-15
-3.25812e-08
-2.28702e-08
-2.11054e-15
-3.385e-08
-2.12664e-08
-1.88904e-15
-3.5017e-08
-1.93558e-08
-1.6812e-15
-3.60618e-08
-1.71265e-08
-1.50245e-15
-3.69633e-08
-1.45684e-08
-1.33879e-15
-3.77002e-08
-1.16758e-08
-1.19303e-15
-3.82503e-08
-8.44661e-09
-1.05772e-15
-3.85927e-08
-4.88345e-09
-9.29645e-16
-3.87053e-08
-9.98548e-10
-8.08452e-16
-3.85688e-08
3.19334e-09
-6.87536e-16
-3.81636e-08
7.66695e-09
-5.71192e-16
-3.74735e-08
1.23847e-08
-4.50165e-16
-3.64848e-08
1.7295e-08
-3.31814e-16
-3.5186e-08
2.23477e-08
-2.06319e-16
-3.35723e-08
2.74454e-08
-1.75787e-17
-3.16428e-08
3.2502e-08
-2.45406e-16
-2.94047e-08
3.7383e-08
-4.94308e-16
-2.68734e-08
4.19394e-08
-3.12719e-16
-2.40737e-08
4.59977e-08
-1.86726e-16
-2.10444e-08
4.93134e-08
4.16928e-18
-1.78382e-08
5.16299e-08
-2.99448e-16
-1.45257e-08
5.26361e-08
-1.51697e-16
-1.11995e-08
5.19555e-08
-6.2601e-17
-7.97942e-09
4.91704e-08
3.3449e-17
-5.0182e-09
4.38435e-08
1.92012e-16
-2.51394e-09
3.55135e-08
-3.72135e-17
-7.25442e-10
2.38394e-08
-5.3756e-18
8.64064e-09
-1.49838e-17
-9.29439e-09
-1.6304e-08
-3.0027e-15
-1.02431e-08
-1.76886e-08
-2.4989e-15
-1.12866e-08
-1.90488e-08
-2.76027e-15
-1.2413e-08
-2.03236e-08
-2.92416e-15
-1.36117e-08
-2.14819e-08
-2.93295e-15
-1.48737e-08
-2.25051e-08
-2.75839e-15
-1.61913e-08
-2.33862e-08
-2.73819e-15
-1.75571e-08
-2.41162e-08
-2.68798e-15
-1.89643e-08
-2.46942e-08
-2.64165e-15
-2.04056e-08
-2.51127e-08
-2.5667e-15
-2.18733e-08
-2.53665e-08
-2.50857e-15
-2.33586e-08
-2.54465e-08
-2.46042e-15
-2.48517e-08
-2.53394e-08
-2.45403e-15
-2.63414e-08
-2.50365e-08
-2.46102e-15
-2.78148e-08
-2.45188e-08
-2.45117e-15
-2.92575e-08
-2.37735e-08
-2.53364e-15
-3.06544e-08
-2.27848e-08
-2.27261e-15
-3.19883e-08
-2.15363e-08
-2.04307e-15
-3.3241e-08
-2.00137e-08
-1.83458e-15
-3.43935e-08
-1.82034e-08
-1.63675e-15
-3.54253e-08
-1.60947e-08
-1.46577e-15
-3.63156e-08
-1.36779e-08
-1.30795e-15
-3.70435e-08
-1.0948e-08
-1.16697e-15
-3.7587e-08
-7.90291e-09
-1.03564e-15
-3.79254e-08
-4.54531e-09
-9.11294e-16
-3.8037e-08
-8.86716e-10
-7.93467e-16
-3.79027e-08
3.0589e-09
-6.75847e-16
-3.75033e-08
7.26772e-09
-5.6291e-16
-3.68229e-08
1.17043e-08
-4.45464e-16
-3.58479e-08
1.63199e-08
-3.3091e-16
-3.45672e-08
2.10673e-08
-2.08566e-16
-3.29764e-08
2.58545e-08
-2.3998e-17
-3.10746e-08
3.06003e-08
-2.48618e-16
-2.88693e-08
3.51777e-08
-4.90368e-16
-2.63761e-08
3.94461e-08
-3.12285e-16
-2.36196e-08
4.32414e-08
-1.87525e-16
-2.06388e-08
4.63325e-08
4.78596e-19
-1.74859e-08
4.84771e-08
-2.97452e-16
-1.4231e-08
4.93812e-08
-1.50929e-16
-1.09658e-08
4.86903e-08
-6.21778e-17
-7.80795e-09
4.60126e-08
3.32054e-17
-4.90729e-09
4.09428e-08
1.90082e-16
-2.45703e-09
3.30633e-08
-3.2346e-17
-7.0878e-10
2.20911e-08
-2.36569e-18
7.93186e-09
-1.19417e-17
-9.15406e-09
-1.5515e-08
-3.03246e-15
-1.00563e-08
-1.67864e-08
-2.38176e-15
-1.10561e-08
-1.80489e-08
-2.5988e-15
-1.2142e-08
-1.92377e-08
-2.85317e-15
-1.33034e-08
-2.03205e-08
-2.87961e-15
-1.45314e-08
-2.12772e-08
-2.70863e-15
-1.58178e-08
-2.20998e-08
-2.68599e-15
-1.71551e-08
-2.27789e-08
-2.63031e-15
-1.85359e-08
-2.33134e-08
-2.57549e-15
-1.99525e-08
-2.3696e-08
-2.49312e-15
-2.13969e-08
-2.39221e-08
-2.43048e-15
-2.286e-08
-2.39834e-08
-2.37878e-15
-2.43316e-08
-2.38677e-08
-2.36656e-15
-2.58005e-08
-2.35677e-08
-2.36635e-15
-2.72536e-08
-2.30656e-08
-2.34648e-15
-2.86768e-08
-2.23503e-08
-2.41907e-15
-3.00547e-08
-2.14069e-08
-2.17804e-15
-3.13705e-08
-2.02205e-08
-1.96715e-15
-3.26061e-08
-1.8778e-08
-1.7735e-15
-3.37427e-08
-1.70669e-08
-1.58708e-15
-3.47602e-08
-1.50771e-08
-1.42501e-15
-3.56381e-08
-1.27999e-08
-1.2739e-15
-3.63555e-08
-1.02305e-08
-1.13838e-15
-3.68911e-08
-7.36715e-09
-1.01153e-15
-3.72243e-08
-4.21234e-09
-8.91277e-16
-3.73339e-08
-7.7693e-10
-7.77092e-16
-3.7201e-08
2.92587e-09
-6.62999e-16
-3.68069e-08
6.8737e-09
-5.53578e-16
-3.61358e-08
1.10332e-08
-4.39774e-16
-3.51746e-08
1.53586e-08
-3.29032e-16
-3.39125e-08
1.98054e-08
-2.09943e-16
-3.23453e-08
2.42872e-08
-2.88378e-17
-3.04724e-08
2.87275e-08
-2.51193e-16
-2.83015e-08
3.30068e-08
-4.85932e-16
-2.58482e-08
3.69927e-08
-3.10844e-16
-2.31374e-08
4.05306e-08
-1.87896e-16
-2.02076e-08
4.34027e-08
-2.95053e-18
-1.71112e-08
4.53806e-08
-2.95277e-16
-1.39172e-08
4.61873e-08
-1.49408e-16
-1.07164e-08
4.54895e-08
-6.10393e-17
-7.62462e-09
4.29208e-08
3.35534e-17
-4.78835e-09
3.81066e-08
1.8852e-16
-2.39575e-09
3.06707e-08
-2.70034e-17
-6.90716e-10
2.03861e-08
1.10573e-18
7.24114e-09
-8.27828e-18
-8.96608e-09
-1.47742e-08
-3.0674e-15
-9.8236e-09
-1.59289e-08
-2.33854e-15
-1.07827e-08
-1.70898e-08
-2.53162e-15
-1.18311e-08
-1.81893e-08
-2.76383e-15
-1.29584e-08
-1.91932e-08
-2.76909e-15
-1.41553e-08
-2.00804e-08
-2.5935e-15
-1.54132e-08
-2.08418e-08
-2.57314e-15
-1.67242e-08
-2.14679e-08
-2.52201e-15
-1.80805e-08
-2.19571e-08
-2.47037e-15
-1.9474e-08
-2.23025e-08
-2.39096e-15
-2.08962e-08
-2.24999e-08
-2.33208e-15
-2.23378e-08
-2.25418e-08
-2.28302e-15
-2.37883e-08
-2.24172e-08
-2.26822e-15
-2.52363e-08
-2.21197e-08
-2.26251e-15
-2.66689e-08
-2.16331e-08
-2.23246e-15
-2.80718e-08
-2.09472e-08
-2.29183e-15
-2.94299e-08
-2.00487e-08
-2.0751e-15
-3.07265e-08
-1.89239e-08
-1.88445e-15
-3.19438e-08
-1.75607e-08
-1.70679e-15
-3.30632e-08
-1.59476e-08
-1.53289e-15
-3.4065e-08
-1.40754e-08
-1.3806e-15
-3.49288e-08
-1.19359e-08
-1.23693e-15
-3.56345e-08
-9.52487e-09
-1.10741e-15
-3.61608e-08
-6.84069e-09
-9.85458e-16
-3.64876e-08
-3.88575e-09
-8.69596e-16
-3.65941e-08
-6.70223e-10
-7.59291e-16
-3.64618e-08
2.79346e-09
-6.4889e-16
-3.60723e-08
6.48439e-09
-5.43088e-16
-3.54104e-08
1.03713e-08
-4.3296e-16
-3.44632e-08
1.44112e-08
-3.25988e-16
-3.32202e-08
1.85626e-08
-2.10152e-16
-3.16775e-08
2.27444e-08
-3.32636e-17
-2.98348e-08
2.68849e-08
-2.51488e-16
-2.76999e-08
3.0872e-08
-4.81493e-16
-2.52887e-08
3.45814e-08
-3.08527e-16
-2.26259e-08
3.78679e-08
-1.87533e-16
-1.97501e-08
4.05269e-08
-6.16323e-18
-1.67132e-08
4.23437e-08
-2.93094e-16
-1.35836e-08
4.30578e-08
-1.47925e-16
-1.0451e-08
4.23568e-08
-6.015e-17
-7.42902e-09
3.98988e-08
3.34098e-17
-4.66108e-09
3.53386e-08
1.8619e-16
-2.3299e-09
2.83395e-08
-2.24026e-17
-6.71169e-10
1.87274e-08
4.02965e-18
6.56997e-09
-5.37884e-18
-8.72289e-09
-1.4079e-08
-3.09781e-15
-9.53938e-09
-1.51124e-08
-2.35101e-15
-1.04619e-08
-1.61673e-08
-2.51988e-15
-1.14772e-08
-1.71739e-08
-2.71936e-15
-1.25745e-08
-1.80959e-08
-2.70166e-15
-1.37439e-08
-1.89109e-08
-2.52001e-15
-1.49766e-08
-1.96091e-08
-2.50116e-15
-1.62641e-08
-2.01805e-08
-2.44787e-15
-1.7598e-08
-2.06232e-08
-2.39398e-15
-1.89699e-08
-2.09305e-08
-2.30881e-15
-2.0371e-08
-2.10988e-08
-2.24543e-15
-2.17916e-08
-2.11211e-08
-2.19174e-15
-2.32212e-08
-2.09877e-08
-2.16925e-15
-2.46483e-08
-2.06927e-08
-2.15528e-15
-2.60598e-08
-2.02216e-08
-2.11393e-15
-2.74416e-08
-1.95653e-08
-2.15815e-15
-2.87788e-08
-1.87115e-08
-1.9668e-15
-3.00549e-08
-1.76478e-08
-1.7969e-15
-3.12525e-08
-1.63632e-08
-1.63582e-15
-3.23531e-08
-1.4847e-08
-1.47507e-15
-3.33375e-08
-1.30909e-08
-1.33309e-15
-3.41858e-08
-1.10875e-08
-1.19732e-15
-3.48781e-08
-8.83259e-09
-1.07423e-15
-3.53937e-08
-6.32494e-09
-9.57495e-16
-3.57129e-08
-3.56679e-09
-8.4626e-16
-3.58153e-08
-5.67626e-10
-7.4002e-16
-3.56828e-08
2.6609e-09
-6.33449e-16
-3.52976e-08
6.0993e-09
-5.31341e-16
-3.46447e-08
9.71835e-09
-4.24922e-16
-3.37117e-08
1.3478e-08
-3.21692e-16
-3.24884e-08
1.73395e-08
-2.09261e-16
-3.09713e-08
2.12271e-08
-3.62353e-17
-2.91602e-08
2.50739e-08
-2.5143e-16
-2.70632e-08
2.87751e-08
-4.75405e-16
-2.46964e-08
3.22144e-08
-3.05107e-16
-2.20843e-08
3.52559e-08
-1.86608e-16
-1.92654e-08
3.7708e-08
-8.70589e-18
-1.62912e-08
3.93695e-08
-2.89428e-16
-1.32296e-08
3.99962e-08
-1.45518e-16
-1.01689e-08
3.92961e-08
-5.84724e-17
-7.22077e-09
3.69507e-08
3.38893e-17
-4.52517e-09
3.2643e-08
1.8421e-16
-2.25927e-09
2.60736e-08
-1.74773e-17
-6.50055e-10
1.71182e-08
7.35758e-18
5.91992e-09
-1.9008e-18
-8.41626e-09
-1.34229e-08
-3.22058e-15
-9.1982e-09
-1.43304e-08
-2.43528e-15
-1.00903e-08
-1.52752e-08
-2.48684e-15
-1.10783e-08
-1.6186e-08
-2.63583e-15
-1.21507e-08
-1.70234e-08
-2.61627e-15
-1.32971e-08
-1.77645e-08
-2.43471e-15
-1.45081e-08
-1.83981e-08
-2.40511e-15
-1.57749e-08
-1.89138e-08
-2.33442e-15
-1.70886e-08
-1.93094e-08
-2.27379e-15
-1.84405e-08
-1.95786e-08
-2.18645e-15
-1.98214e-08
-1.97178e-08
-2.12791e-15
-2.12214e-08
-1.9721e-08
-2.07961e-15
-2.26301e-08
-1.95791e-08
-2.0569e-15
-2.40356e-08
-1.92872e-08
-2.04029e-15
-2.54252e-08
-1.88321e-08
-1.99234e-15
-2.67849e-08
-1.82055e-08
-2.01974e-15
-2.80998e-08
-1.73965e-08
-1.85545e-15
-2.93539e-08
-1.63937e-08
-1.70591e-15
-3.053e-08
-1.5187e-08
-1.56157e-15
-3.16102e-08
-1.37669e-08
-1.41431e-15
-3.25755e-08
-1.21256e-08
-1.28296e-15
-3.34066e-08
-1.02563e-08
-1.15546e-15
-3.40839e-08
-8.15526e-09
-1.03903e-15
-3.45873e-08
-5.82135e-09
-9.27729e-16
-3.48976e-08
-3.25671e-09
-8.21196e-16
-3.49949e-08
-4.70146e-10
-7.19197e-16
-3.48616e-08
2.52747e-09
-6.16614e-16
-3.44802e-08
5.71805e-09
-5.18221e-16
-3.38363e-08
9.07442e-09
-4.15558e-16
-3.29179e-08
1.25594e-08
-3.16074e-16
-3.17151e-08
1.61369e-08
-2.07049e-16
-3.02247e-08
1.97367e-08
-3.85369e-17
-2.8447e-08
2.32962e-08
-2.49671e-16
-2.639e-08
2.67182e-08
-4.68359e-16
-2.40699e-08
2.98942e-08
-3.00667e-16
-2.15114e-08
3.26975e-08
-1.84572e-16
-1.87526e-08
3.49492e-08
-1.07814e-17
-1.58446e-08
3.64615e-08
-2.84481e-16
-1.28547e-08
3.70063e-08
-1.42899e-16
-9.86976e-09
3.63112e-08
-5.69949e-17
-6.9995e-09
3.40804e-08
3.38994e-17
-4.38034e-09
3.00238e-08
1.81443e-16
-2.18368e-09
2.38769e-08
-1.33607e-17
-6.27288e-10
1.55618e-08
1.01023e-17
5.29263e-09
7.82173e-19
-8.03984e-09
-1.27948e-08
-2.73586e-15
-8.79686e-09
-1.35734e-08
-2.35476e-15
-9.66685e-09
-1.44052e-08
-2.33581e-15
-1.06344e-08
-1.52184e-08
-2.55372e-15
-1.16877e-08
-1.59701e-08
-2.5243e-15
-1.28158e-08
-1.66365e-08
-2.33025e-15
-1.40089e-08
-1.72049e-08
-2.30666e-15
-1.52576e-08
-1.7665e-08
-2.24085e-15
-1.65531e-08
-1.8014e-08
-2.18637e-15
-1.78862e-08
-1.82456e-08
-2.09829e-15
-1.92475e-08
-1.83565e-08
-2.03712e-15
-2.0627e-08
-1.83414e-08
-1.98424e-15
-2.20142e-08
-1.81919e-08
-1.95319e-15
-2.33974e-08
-1.7904e-08
-1.92935e-15
-2.4764e-08
-1.74656e-08
-1.87365e-15
-2.61e-08
-1.68693e-08
-1.88304e-15
-2.73911e-08
-1.61054e-08
-1.74315e-15
-2.86214e-08
-1.51634e-08
-1.6132e-15
-2.97742e-08
-1.40342e-08
-1.48524e-15
-3.0832e-08
-1.27092e-08
-1.35141e-15
-3.17764e-08
-1.11813e-08
-1.23076e-15
-3.25884e-08
-9.44411e-09
-1.11165e-15
-3.32491e-08
-7.49454e-09
-1.002e-15
-3.37389e-08
-5.3314e-09
-8.9626e-16
-3.40391e-08
-2.95676e-09
-7.94543e-16
-3.41303e-08
-3.78752e-10
-6.96841e-16
-3.39954e-08
2.39252e-09
-5.98322e-16
-3.36176e-08
5.34035e-09
-5.03704e-16
-3.29828e-08
8.4396e-09
-4.04834e-16
-3.20794e-08
1.16559e-08
-3.09096e-16
-3.08981e-08
1.49558e-08
-2.03592e-16
-2.94359e-08
1.82744e-08
-3.93904e-17
-2.76933e-08
2.15537e-08
-2.46819e-16
-2.56786e-08
2.47036e-08
-4.59538e-16
-2.3408e-08
2.76235e-08
-2.95091e-16
-2.0906e-08
3.01956e-08
-1.81969e-16
-1.82107e-08
3.22539e-08
-1.18647e-17
-1.53727e-08
3.36234e-08
-2.77696e-16
-1.24582e-08
3.40919e-08
-1.39216e-16
-9.55312e-09
3.34061e-08
-5.46737e-17
-6.76487e-09
3.12922e-08
3.45313e-17
-4.22633e-09
2.74853e-08
1.78983e-16
-2.10295e-09
2.17535e-08
-8.99065e-18
-6.02785e-10
1.40616e-08
1.3171e-17
4.68984e-09
3.98394e-18
-7.59097e-09
-1.21786e-08
-3.11362e-15
-8.33564e-09
-1.28287e-08
-2.71588e-15
-9.19318e-09
-1.35476e-08
-2.39395e-15
-1.0148e-08
-1.42636e-08
-2.51365e-15
-1.11882e-08
-1.49299e-08
-2.47635e-15
-1.23026e-08
-1.55222e-08
-2.2641e-15
-1.3481e-08
-1.60264e-08
-2.21187e-15
-1.47142e-08
-1.64319e-08
-2.11811e-15
-1.59929e-08
-1.67353e-08
-2.05399e-15
-1.73078e-08
-1.69306e-08
-1.96645e-15
-1.86496e-08
-1.70147e-08
-1.91153e-15
-2.00082e-08
-1.69827e-08
-1.86548e-15
-2.13731e-08
-1.68271e-08
-1.83563e-15
-2.27327e-08
-1.65444e-08
-1.81183e-15
-2.40746e-08
-1.61237e-08
-1.75445e-15
-2.53852e-08
-1.55586e-08
-1.75402e-15
-2.66505e-08
-1.48401e-08
-1.63142e-15
-2.7855e-08
-1.39589e-08
-1.51999e-15
-2.89824e-08
-1.29068e-08
-1.40771e-15
-3.00157e-08
-1.16759e-08
-1.28702e-15
-3.09371e-08
-1.02599e-08
-1.17688e-15
-3.17281e-08
-8.65291e-09
-1.0661e-15
-3.23705e-08
-6.85214e-09
-9.63294e-16
-3.28452e-08
-4.85658e-09
-8.63144e-16
-3.3134e-08
-2.66816e-09
-7.6634e-16
-3.32183e-08
-2.94351e-10
-6.73006e-16
-3.30813e-08
2.2555e-09
-5.78599e-16
-3.27069e-08
4.96604e-09
-4.87806e-16