/*--------------------------------*- C++ -*----------------------------------*\
| =========                 |                                                 |
| \\      /  F ield         | OpenFOAM: The Open Source CFD Toolbox           |
|  \\    /   O peration     | Version:  v2012                                 |
|   \\  /    A nd           | Website:  www.openfoam.com                      |
|    \\/     M anipulation  |                                                 |
\*---------------------------------------------------------------------------*/
FoamFile
{
    version     2.0;
    format      ascii;
    class       volVectorField;
    location    "0.7";
    object      U;
}
// * * * * * * * * * * * * * * * * * * * * * * * * * * * * * * * * * * * * * //

dimensions      [0 1 -1 0 0 0 0];


internalField   nonuniform List<vector> 
2650
(
(0.350466 -44.3998 -0.00302668)
(0.209176 -43.8044 -0.00181727)
(0.164947 -48.2569 -0.00143659)
(1.17528 -41.1299 -0.0102564)
(1.86535 -21.8149 -0.0162642)
(0.232279 -45.1868 -0.00200789)
(0.129451 -43.6832 -0.00112914)
(0.117949 -48.9904 -0.00102691)
(0.398895 -41.4215 -0.00347712)
(0.573709 -20.3149 -0.00501303)
(0.113906 -45.7752 -0.00097623)
(0.00069235 -43.6763 -7.90901e-06)
(0.261937 -49.2071 -0.00228678)
(0.240837 -41.2424 -0.00210237)
(0.403855 -18.6415 -0.00353305)
(0.0637296 -45.9003 -0.000529156)
(-0.0252437 -44.0337 0.000214026)
(0.311286 -49.6042 -0.00271829)
(-0.150458 -41.7098 0.00131452)
(0.48361 -19.1365 -0.0042183)
(-0.271161 -45.6649 0.00238208)
(-0.118804 -44.1743 0.00102891)
(0.44256 -49.698 -0.0038643)
(-0.230752 -41.8393 0.00201788)
(0.625814 -18.8236 -0.00546785)
(-0.298198 -45.1441 0.0026099)
(0.217206 -44.5851 -0.00190332)
(0.219967 -49.6849 -0.00192138)
(0.231136 -42.2605 -0.00201262)
(0.60036 -18.2685 -0.00524872)
(-0.463034 -44.5391 0.00403794)
(0.473936 -45.5812 -0.00414096)
(0.168639 -49.9181 -0.00147496)
(0.870014 -42.871 -0.00759116)
(0.306926 -17.5837 -0.00268181)
(-0.377656 -44.2998 0.00329552)
(0.742483 -46.6678 -0.00648353)
(0.0700887 -50.6228 -0.000617294)
(1.54175 -43.3738 -0.0134581)
(-0.0674457 -16.5417 0.000587535)
(-0.296624 -44.6291 0.00257443)
(0.751236 -47.6915 -0.00656405)
(0.286358 -51.8579 -0.00250423)
(1.64012 -43.682 -0.0143182)
(-0.189719 -15.3474 0.00165295)
(0.0864485 -45.2754 -0.000764675)
(0.184159 -48.7157 -0.00161215)
(1.09031 -53.4404 -0.00952008)
(0.67351 -43.4043 -0.00588319)
(0.0573265 -14.4941 -0.000503931)
(0.0764252 -45.7489 -0.000677527)
(-0.0233361 -49.9628 0.00020027)
(1.40937 -54.3424 -0.0123073)
(-0.576694 -42.3471 0.00502893)
(0.520272 -14.2889 -0.00454235)
(-0.163741 -45.6956 0.00142951)
(0.116561 -51.4391 -0.00101795)
(0.699056 -53.8154 -0.00610756)
(-0.969792 -41.7509 0.0084636)
(1.09338 -14.6231 -0.00955001)
(-0.501604 -45.1422 0.00438056)
(0.244949 -52.2393 -0.00213921)
(-0.525492 -52.6617 0.00458133)
(-0.23764 -42.9027 0.00207787)
(1.32155 -14.2417 -0.0115518)
(-0.554774 -43.9082 0.00485169)
(0.195072 -51.6962 -0.00170323)
(-1.16498 -52.0442 0.0101645)
(0.425611 -44.9736 -0.00371106)
(0.674104 -12.967 -0.005895)
(-0.475107 -43.0829 0.00415566)
(-0.535719 -50.9608 0.00467293)
(-1.65618 -52.4916 0.014453)
(-0.397981 -46.4523 0.00347531)
(-0.577132 -13.8539 0.00503537)
(-0.255158 -40.2342 0.00223381)
(-1.23299 -47.2366 0.0107579)
(-2.68482 -50.1772 0.0234298)
(-3.13628 -44.2812 0.0273701)
(-3.27637 -11.2183 0.0286829)
(-0.793882 -38.9926 0.00693019)
(-3.11942 -43.7224 0.0272217)
(-5.1641 -46.9283 0.0450683)
(-6.9637 -45.5162 0.0607817)
(-9.24968 -30.2649 0.08079)
(-2.01738 -28.1781 0.0176046)
(-5.75168 -30.695 0.0501957)
(-10.4311 -32.096 0.091033)
(-16.6678 -30.4559 0.145462)
(-22.4499 -21.1525 0.195887)
(-18.4593 -2.15583 0.161175)
(-10.9959 -3.30829 0.095989)
(-8.27589 -1.61222 0.0722216)
(-5.56649 -1.0841 0.0485836)
(-4.2397 -0.674293 0.0370004)
(-3.07126 -0.440096 0.0268045)
(-2.37093 -0.289319 0.0206918)
(-1.80118 -0.194438 0.0157198)
(-1.41127 -0.131718 0.0123167)
(-1.10469 -0.0903126 0.0096413)
(-0.879361 -0.0621732 0.00767469)
(-0.703618 -0.0432248 0.00614097)
(-0.569136 -0.0303386 0.00496731)
(-0.463669 -0.0213806 0.00404688)
(-0.380727 -0.0152013 0.00332301)
(-0.315145 -0.0109274 0.00275066)
(-0.26252 -0.00790907 0.00229136)
(-0.220247 -0.00579906 0.00192242)
(-0.185892 -0.00428983 0.00162258)
(-0.157816 -0.00321099 0.00137751)
(-0.134666 -0.00243856 0.00117546)
(-0.115458 -0.00187845 0.00100781)
(-0.09938 -0.00146462 0.00086749)
(-0.0858468 -0.00115631 0.000749378)
(-0.0743818 -0.000919906 0.000649333)
(-0.0646196 -0.000735432 0.000564005)
(-1.35607 -13.857 0.011834)
(-3.36072 -14.6814 0.0293286)
(-6.01679 -14.2845 0.0525095)
(-8.95462 -14.5179 0.078151)
(-11.5916 -13.2944 0.101169)
(-10.0941 -7.55166 0.0881077)
(-7.25438 -4.97373 0.0633256)
(-6.50753 -3.01038 0.0568022)
(-4.97236 -2.1089 0.043406)
(-4.237 -1.40503 0.0369848)
(-3.395 -1.01528 0.0296363)
(-2.84412 -0.723304 0.024827)
(-2.34229 -0.536081 0.0204468)
(-1.96342 -0.396912 0.0171393)
(-1.64189 -0.29937 0.0143328)
(-1.38434 -0.226465 0.0120845)
(-1.16938 -0.17315 0.0102081)
(-0.992825 -0.132902 0.00866687)
(-0.845428 -0.102662 0.0073802)
(-0.72237 -0.0797347 0.00630598)
(-0.619492 -0.0622659 0.00540793)
(-0.532737 -0.0488872 0.00465059)
(-0.459685 -0.0386055 0.00401289)
(-0.397779 -0.0306609 0.00347248)
(-0.345194 -0.0245091 0.00301341)
(-0.300333 -0.0197292 0.00262181)
(-0.261957 -0.0159938 0.00228681)
(-0.228967 -0.0130567 0.00199883)
(-0.200523 -0.0107307 0.00175055)
(-0.175899 -0.00887246 0.0015356)
(-0.154503 -0.00737873 0.00134865)
(-0.663689 -12.6017 0.00579118)
(-1.83276 -13.4694 0.0159934)
(-3.00052 -12.9106 0.0261856)
(-4.03837 -10.9309 0.0352438)
(-5.66189 -7.99407 0.0494146)
(-5.93471 -4.98328 0.0517992)
(-5.34763 -4.14359 0.0466767)
(-4.84188 -2.82184 0.0422627)
(-4.11882 -2.20703 0.0359526)
(-3.60215 -1.60014 0.0314426)
(-3.0581 -1.23111 0.0266942)
(-2.64718 -0.927144 0.0231072)
(-2.26994 -0.717641 0.0198145)
(-1.96536 -0.554312 0.0171558)
(-1.69905 -0.434416 0.0148313)
(-1.47599 -0.341617 0.0128842)
(-1.28357 -0.271004 0.0112046)
(-1.11959 -0.21596 0.00977321)
(-0.978016 -0.17309 0.00853743)
(-0.855883 -0.139327 0.00747132)
(-0.750475 -0.112642 0.00655121)
(-0.658861 -0.0914285 0.00575149)
(-0.579437 -0.0745115 0.00505819)
(-0.510252 -0.0609706 0.00445425)
(-0.44994 -0.0501093 0.00392775)
(-0.39723 -0.0413749 0.00346764)
(-0.351106 -0.0343258 0.00306501)
(-0.310624 -0.0286178 0.00271164)
(-0.275039 -0.0239758 0.00240102)
(-0.243678 -0.0201828 0.00212726)
(-0.215976 -0.0170718 0.00188525)
(-0.613607 -5.74329 0.00535448)
(-1.67121 -5.99743 0.0145838)
(-2.83236 -6.32929 0.0247177)
(-3.71624 -6.22969 0.032433)
(-4.20274 -5.65568 0.0366808)
(-4.01091 -4.46411 0.0350082)
(-3.74162 -3.62807 0.0326581)
(-3.51075 -2.76178 0.0306431)
(-3.13836 -2.18323 0.0273936)
(-2.86673 -1.67477 0.0250227)
(-2.53898 -1.31892 0.0221622)
(-2.27666 -1.02897 0.0198725)
(-2.0181 -0.816494 0.0176158)
(-1.79703 -0.648052 0.0156862)
(-1.59489 -0.520152 0.0139219)
(-1.41819 -0.418977 0.0123795)
(-1.26059 -0.339993 0.0110038)
(-1.12188 -0.277161 0.00979308)
(-0.998777 -0.227135 0.00871851)
(-0.889713 -0.186886 0.00776651)
(-0.793288 -0.154393 0.00692483)
(-0.707488 -0.128003 0.00617588)
(-0.631447 -0.106496 0.00551212)
(-0.563784 -0.0889078 0.00492148)
(-0.503592 -0.0744886 0.00439604)
(-0.449963 -0.0626403 0.00392792)
(-0.402164 -0.0528759 0.00351068)
(-0.359479 -0.0448086 0.00313808)
(-0.321336 -0.0381213 0.00280513)
(-0.287201 -0.0325593 0.00250714)
(-0.256609 -0.0279193 0.00223993)
(-0.283601 -5.14799 0.00247484)
(-0.66619 -5.25479 0.00581329)
(-1.22556 -5.21248 0.0106945)
(-1.71425 -4.75997 0.0149597)
(-2.23007 -4.08339 0.0194626)
(-2.47204 -3.31627 0.0215754)
(-2.55914 -2.8151 0.0223363)
(-2.53949 -2.25872 0.022165)
(-2.41935 -1.87408 0.0211169)
(-2.28882 -1.51113 0.019978)
(-2.10711 -1.23974 0.0183921)
(-1.94 -1.00578 0.0169336)
(-1.76601 -0.824118 0.0154151)
(-1.60616 -0.673807 0.0140198)
(-1.45458 -0.554794 0.0126968)
(-1.3165 -0.457538 0.0114916)
(-1.18988 -0.379233 0.0103864)
(-1.07531 -0.315428 0.00938638)
(-0.971331 -0.263412 0.00847881)
(-0.877163 -0.220698 0.00765685)
(-0.79232 -0.18553 0.00691629)
(-0.715375 -0.156443 0.00624465)
(-0.645991 -0.13231 0.00563901)
(-0.583196 -0.112234 0.00509087)
(-0.526424 -0.0954905 0.00459529)
(-0.475045 -0.0815004 0.00414682)
(-0.428556 -0.069781 0.00374102)
(-0.386438 -0.0599435 0.00337337)
(-0.348278 -0.051663 0.00304028)
(-0.313674 -0.0446741 0.0027382)
(-0.282272 -0.0387595 0.00246394)
(-0.26827 -2.58947 0.00234165)
(-0.659953 -2.5924 0.00576013)
(-1.12818 -2.78201 0.00984499)
(-1.49932 -2.84111 0.0130843)
(-1.78014 -2.73342 0.0155362)
(-1.90172 -2.45644 0.0165978)
(-1.95842 -2.1842 0.0170931)
(-1.95748 -1.86918 0.0170849)
(-1.90154 -1.60167 0.016597)
(-1.83856 -1.34691 0.0160476)
(-1.73377 -1.13621 0.0151332)
(-1.63246 -0.95018 0.0142489)
(-1.51971 -0.797604 0.013265)
(-1.40961 -0.667798 0.012304)
(-1.30064 -0.56137 0.011353)
(-1.19681 -0.472167 0.0104467)
(-1.09842 -0.398412 0.00958797)
(-1.00653 -0.33707 0.00878596)
(-0.921007 -0.285988 0.00803944)
(-0.841658 -0.2433 0.00734685)
(-0.768774 -0.20753 0.00671068)
(-0.701408 -0.177485 0.00612266)
(-0.639664 -0.152176 0.00558372)
(-0.582904 -0.130819 0.00508827)
(-0.53084 -0.112755 0.0046338)
(-0.483069 -0.0974535 0.00421682)
(-0.439274 -0.0844621 0.00383454)
(-0.399096 -0.0734123 0.00348383)
(-0.362254 -0.0639907 0.00316225)
(-0.32846 -0.0559379 0.00286725)
(-0.297455 -0.0490377 0.00259646)
(-0.145526 -2.08908 0.00127012)
(-0.325292 -2.04995 0.00283909)
(-0.579081 -2.11093 0.00505359)
(-0.83569 -2.10846 0.00729277)
(-1.07423 -2.02052 0.0093748)
(-1.24259 -1.84166 0.0108446)
(-1.36814 -1.66957 0.0119409)
(-1.4365 -1.47101 0.0125376)
(-1.45835 -1.29753 0.0127284)
(-1.45832 -1.12849 0.0127286)
(-1.41692 -0.98161 0.0123675)
(-1.36653 -0.846723 0.0119277)
(-1.30069 -0.73051 0.0113531)
(-1.22894 -0.627652 0.010727)
(-1.15357 -0.539821 0.0100691)
(-1.07751 -0.463732 0.00940531)
(-1.00272 -0.398745 0.0087525)
(-0.930385 -0.343319 0.00812118)
(-0.861254 -0.295985 0.00751779)
(-0.795471 -0.255635 0.00694362)
(-0.733838 -0.221137 0.00640566)
(-0.67576 -0.191673 0.00589873)
(-0.621651 -0.166447 0.00542644)
(-0.571147 -0.144849 0.0049856)
(-0.524173 -0.126326 0.00457556)
(-0.48051 -0.11043 0.00419444)
(-0.439993 -0.0967633 0.00384078)
(-0.402392 -0.0849981 0.00351258)
(-0.367537 -0.0748483 0.00320834)
(-0.335234 -0.0660733 0.00292636)
(-0.305304 -0.0584686 0.00266496)
(-0.131559 -1.01742 0.0011482)
(-0.298095 -0.982716 0.00260165)
(-0.501408 -1.07219 0.00437562)
(-0.702079 -1.18608 0.00612672)
(-0.87575 -1.25072 0.00764264)
(-1.00436 -1.23869 0.00876533)
(-1.10037 -1.19086 0.00960388)
(-1.15645 -1.11004 0.0100934)
(-1.18235 -1.01958 0.0103193)
(-1.19615 -0.922958 0.0104403)
(-1.17777 -0.828447 0.01028)
(-1.15281 -0.736362 0.0100622)
(-1.11475 -0.651723 0.00973007)
(-1.06913 -0.573542 0.00933194)
(-1.01855 -0.503888 0.00889049)
(-0.964399 -0.441625 0.0084179)
(-0.909004 -0.386668 0.0079344)
(-0.853301 -0.338644 0.00744826)
(-0.798467 -0.296527 0.00696967)
(-0.744796 -0.259884 0.00650123)
(-0.6934 -0.227885 0.00605263)
(-0.643962 -0.200073 0.00562112)
(-0.597097 -0.175859 0.00521207)
(-0.552663 -0.154817 0.00482421)
(-0.510747 -0.136517 0.00445833)
(-0.471283 -0.120609 0.00411387)
(-0.434228 -0.106765 0.00379043)
(-0.39946 -0.0947066 0.00348696)
(-0.3669 -0.0841865 0.00320275)
(-0.33643 -0.0749918 0.00293678)
(-0.307941 -0.066937 0.00268798)
(-0.0830898 -0.657173 0.000725177)
(-0.184216 -0.630246 0.00160784)
(-0.306773 -0.680031 0.00267728)
(-0.449719 -0.765817 0.00392454)
(-0.583755 -0.83211 0.00509438)
(-0.697346 -0.856258 0.00608587)
(-0.795622 -0.856437 0.00694427)
(-0.868377 -0.824501 0.00757921)
(-0.917496 -0.781355 0.00800753)
(-0.955698 -0.729676 0.0083415)
(-0.963678 -0.674465 0.00841125)
(-0.963622 -0.617188 0.00841079)
(-0.949894 -0.560844 0.00829102)
(-0.926162 -0.506292 0.00808393)
(-0.895875 -0.455152 0.00781964)
(-0.859676 -0.407646 0.00750371)
(-0.820269 -0.363978 0.00715977)
(-0.778558 -0.324588 0.00679578)
(-0.735947 -0.28895 0.00642388)
(-0.692898 -0.257125 0.00604817)
(-0.650634 -0.228649 0.00567928)
(-0.609068 -0.203377 0.00531649)
(-0.568917 -0.180955 0.00496605)
(-0.53021 -0.16114 0.00462819)
(-0.493151 -0.143642 0.0043047)
(-0.457793 -0.128217 0.00399609)
(-0.424192 -0.114618 0.0037028)
(-0.392317 -0.102629 0.00342458)
(-0.362162 -0.0920485 0.00316138)
(-0.333679 -0.082698 0.00291275)
(-0.306816 -0.074418 0.00267814)
(-0.0685984 -0.124086 0.000598803)
(-0.152829 -0.115219 0.00133415)
(-0.253161 -0.166929 0.00220959)
(-0.360184 -0.272347 0.00314361)
(-0.466267 -0.384628 0.00406929)
(-0.566853 -0.47116 0.00494701)
(-0.648466 -0.523316 0.00566023)
(-0.701996 -0.547746 0.00612723)
(-0.75193 -0.554986 0.00656262)
(-0.790777 -0.544274 0.0069021)
(-0.806912 -0.525439 0.007043)
(-0.81683 -0.498951 0.00712957)
(-0.815648 -0.46755 0.00711928)
(-0.805304 -0.43423 0.00702902)
(-0.78865 -0.40015 0.0068837)
(-0.765678 -0.366734 0.00668322)
(-0.738662 -0.334327 0.00644743)
(-0.708297 -0.303847 0.00618245)
(-0.67591 -0.275229 0.0058998)
(-0.641955 -0.248817 0.00560346)
(-0.607681 -0.224518 0.00530432)
(-0.573124 -0.202403 0.0050027)
(-0.539053 -0.182352 0.00470533)
(-0.505612 -0.164285 0.00441344)
(-0.473089 -0.148051 0.00412956)
(-0.441625 -0.133515 0.00385494)
(-0.411353 -0.120515 0.00359071)
(-0.382315 -0.108901 0.00333725)
(-0.354564 -0.0985241 0.00309504)
(-0.328109 -0.0892457 0.00286412)
(-0.302946 -0.0809365 0.00264436)
(-0.0419127 0.0820152 0.000365857)
(-0.0950984 0.0854673 0.000830178)
(-0.156105 0.049684 0.0013627)
(-0.232464 -0.0326316 0.00202921)
(-0.313592 -0.138104 0.00273708)
(-0.397823 -0.22858 0.00347205)
(-0.472941 -0.29331 0.0041276)
(-0.540881 -0.341221 0.00472063)
(-0.595144 -0.370575 0.0051944)
(-0.637081 -0.3846 0.00556061)
(-0.666323 -0.389354 0.00581587)
(-0.686255 -0.38548 0.00598984)
(-0.696787 -0.374493 0.00608179)
(-0.698167 -0.359433 0.00609386)
(-0.692739 -0.34103 0.00604652)
(-0.68068 -0.320955 0.00594128)
(-0.663769 -0.29961 0.0057937)
(-0.642841 -0.278144 0.00561108)
(-0.61905 -0.256812 0.00540345)
(-0.592888 -0.236172 0.00517513)
(-0.565579 -0.21645 0.0049368)
(-0.537221 -0.197906 0.00468929)
(-0.508613 -0.180634 0.0044396)
(-0.479971 -0.1647 0.00418961)
(-0.451638 -0.150088 0.00394229)
(-0.423818 -0.136765 0.00369949)
(-0.396701 -0.124653 0.0034628)
(-0.370385 -0.113671 0.00323311)
(-0.344974 -0.103722 0.00301132)
(-0.320524 -0.0947116 0.00279789)
(-0.297069 -0.0865429 0.00259305)
(-0.0368233 0.332969 0.00032141)
(-0.082898 0.327687 0.000723641)
(-0.135061 0.29842 0.00117896)
(-0.195192 0.227354 0.00170381)
(-0.262982 0.127633 0.00229546)
(-0.33358 0.0252137 0.00291157)
(-0.395723 -0.0656237 0.00345393)
(-0.451381 -0.139546 0.0039397)
(-0.498481 -0.193975 0.00435079)
(-0.538325 -0.233801 0.00469861)
(-0.56841 -0.259991 0.00496121)
(-0.590805 -0.276358 0.00515668)
(-0.6055 -0.283649 0.00528496)
(-0.612349 -0.284777 0.00534477)
(-0.613131 -0.280556 0.00535164)
(-0.607896 -0.272655 0.00530597)
(-0.597929 -0.261702 0.00521898)
(-0.583921 -0.248911 0.00509676)
(-0.566781 -0.234798 0.00494719)
(-0.546886 -0.220061 0.00477357)
(-0.525379 -0.205144 0.00458588)
(-0.502321 -0.190459 0.00438463)
(-0.478495 -0.176268 0.00417669)
(-0.454131 -0.162768 0.00396403)
(-0.429594 -0.150061 0.00374986)
(-0.405125 -0.138213 0.0035363)
(-0.380947 -0.127228 0.00332527)
(-0.3572 -0.11709 0.003118)
(-0.334024 -0.107759 0.00291573)
(-0.311513 -0.0991831 0.00271923)
(-0.289735 -0.0913008 0.00252902)
(-0.0273649 0.481572 0.000238815)
(-0.0629221 0.469583 0.000549188)
(-0.100885 0.4427 0.000880593)
(-0.145756 0.383468 0.00127225)
(-0.196203 0.292453 0.00171251)
(-0.250896 0.191196 0.00218983)
(-0.305102 0.0958542 0.00266299)
(-0.356199 0.0136217 0.00310895)
(-0.40337 -0.052386 0.00352064)
(-0.444317 -0.105592 0.00387808)
(-0.477744 -0.145986 0.00416984)
(-0.504255 -0.17703 0.00440123)
(-0.523553 -0.198658 0.00456968)
(-0.535783 -0.21319 0.00467646)
(-0.541994 -0.221148 0.00473072)
(-0.542552 -0.224051 0.00473561)
(-0.538327 -0.222525 0.00469873)
(-0.530049 -0.217835 0.00462652)
(-0.518454 -0.210587 0.00452534)
(-0.503837 -0.201618 0.00439779)
(-0.487275 -0.19149 0.00425325)
(-0.46879 -0.180752 0.00409193)
(-0.44915 -0.169783 0.00392052)
(-0.428584 -0.158893 0.00374102)
(-0.407467 -0.148283 0.0035567)
(-0.386053 -0.138103 0.0033698)
(-0.364589 -0.128429 0.00318247)
(-0.34324 -0.119308 0.00299614)
(-0.322175 -0.110752 0.00281228)
(-0.301514 -0.10275 0.00263194)
(-0.281353 -0.0952787 0.00245586)
(-0.022788 0.634115 0.000198945)
(-0.054771 0.617176 0.000478267)
(-0.0861606 0.58993 0.000751922)
(-0.123131 0.536043 0.00107464)
(-0.164217 0.451634 0.00143338)
(-0.212094 0.352474 0.0018512)
(-0.25947 0.253923 0.00226462)
(-0.305932 0.163172 0.0026701)
(-0.348618 0.0849375 0.00304266)
(-0.386076 0.0179142 0.00336966)
(-0.416851 -0.0372703 0.0036383)
(-0.442072 -0.0824252 0.00385844)
(-0.461261 -0.117546 0.00402596)
(-0.474737 -0.144289 0.00414362)
(-0.483151 -0.163273 0.0042171)
(-0.486811 -0.175954 0.00424906)
(-0.486236 -0.182989 0.00424404)
(-0.481975 -0.185795 0.00420689)
(-0.474543 -0.184975 0.00414204)
(-0.464093 -0.181539 0.00405086)
(-0.451579 -0.17608 0.00394166)
(-0.436958 -0.169281 0.00381406)
(-0.42093 -0.161591 0.00367418)
(-0.403702 -0.153415 0.00352382)
(-0.385633 -0.14503 0.0033661)
(-0.366979 -0.136657 0.0032033)
(-0.347996 -0.128435 0.00303762)
(-0.328864 -0.120468 0.00287064)
(-0.309771 -0.112813 0.002704)
(-0.290857 -0.105502 0.0025389)
(-0.272239 -0.0985469 0.00237629)
(-0.0173053 0.73746 0.000151082)
(-0.0426846 0.716607 0.000372709)
(-0.0664284 0.689967 0.000579945)
(-0.097904 0.642495 0.000854774)
(-0.129981 0.566195 0.00113452)
(-0.170049 0.473579 0.00148419)
(-0.211437 0.376118 0.00184542)
(-0.2527 0.281778 0.00220552)
(-0.291613 0.196232 0.00254513)
(-0.326571 0.120306 0.00285031)
(-0.356555 0.0554944 0.00311204)
(-0.382106 0.000493585 0.00333506)
(-0.402526 -0.0444148 0.00351332)
(-0.418117 -0.080593 0.00364945)
(-0.429112 -0.108419 0.00374545)
(-0.43584 -0.129278 0.00380419)
(-0.438601 -0.143723 0.00382827)
(-0.437878 -0.153267 0.00382199)
(-0.43404 -0.158382 0.00378851)
(-0.427188 -0.160218 0.00372872)
(-0.418147 -0.159295 0.00364983)
(-0.406868 -0.1564 0.0035514)
(-0.393981 -0.152012 0.00343894)
(-0.379689 -0.146614 0.00331421)
(-0.36433 -0.140541 0.00318014)
(-0.348158 -0.134075 0.00303901)
(-0.331429 -0.127412 0.002893)
(-0.314334 -0.120703 0.0027438)
(-0.297069 -0.114051 0.00259311)
(-0.27979 -0.107527 0.0024423)
(-0.262631 -0.101175 0.00229242)
(-0.0147161 0.832395 0.000128479)
(-0.0366811 0.809721 0.000320305)
(-0.0574025 0.783365 0.000501196)
(-0.0844381 0.739956 0.000737269)
(-0.111643 0.672195 0.000974412)
(-0.146813 0.585612 0.00128129)
(-0.182265 0.489705 0.00159072)
(-0.218061 0.39258 0.00190316)
(-0.252344 0.301168 0.0022024)
(-0.283749 0.217101 0.00247659)
(-0.311113 0.143443 0.00271548)
(-0.335255 0.0792408 0.00292621)
(-0.35515 0.0252091 0.00309987)
(-0.371232 -0.0196752 0.00324025)
(-0.383462 -0.055581 0.00334702)
(-0.392013 -0.0839717 0.00342165)
(-0.397023 -0.105183 0.00346536)
(-0.398784 -0.12096 0.00348076)
(-0.397612 -0.131574 0.00347055)
(-0.39355 -0.138349 0.00343511)
(-0.387271 -0.141727 0.00338032)
(-0.378754 -0.142591 0.003306)
(-0.368516 -0.141434 0.00321665)
(-0.356752 -0.138798 0.00311398)
(-0.343763 -0.135062 0.00300061)
(-0.329794 -0.130556 0.0028787)
(-0.315091 -0.125518 0.00275038)
(-0.299849 -0.120144 0.00261735)
(-0.284265 -0.114572 0.00248134)
(-0.268506 -0.108909 0.00234379)
(-0.252716 -0.103229 0.00220587)
(-0.0122755 0.906961 0.000107166)
(-0.0314432 0.883057 0.000274563)
(-0.0482983 0.858288 0.000421703)
(-0.0725117 0.818861 0.000633109)
(-0.0947606 0.757188 0.000826952)
(-0.124365 0.67571 0.00108525)
(-0.154239 0.580628 0.00134605)
(-0.185342 0.482665 0.00161759)
(-0.215563 0.387642 0.0018813)
(-0.244292 0.298598 0.00213217)
(-0.269526 0.219003 0.00235244)
(-0.292741 0.148408 0.00255506)
(-0.312574 0.0878213 0.0027282)
(-0.3292 0.036337 0.00287332)
(-0.342637 -0.00603841 0.00299062)
(-0.352699 -0.040716 0.00307845)
(-0.359536 -0.067857 0.00313814)
(-0.363338 -0.0891491 0.00317135)
(-0.364302 -0.104807 0.00317978)
(-0.362573 -0.116148 0.00316471)
(-0.358595 -0.123607 0.00313001)
(-0.352432 -0.128077 0.00307623)
(-0.344469 -0.130076 0.00300674)
(-0.334906 -0.130172 0.00292328)
(-0.324003 -0.128778 0.00282812)
(-0.311993 -0.12626 0.00272331)
(-0.299111 -0.122893 0.00261088)
(-0.285548 -0.118905 0.00249251)
(-0.271504 -0.11447 0.00236995)
(-0.257149 -0.109726 0.00224465)
(-0.242635 -0.104775 0.00211787)
(-0.0107708 0.976314 9.40303e-05)
(-0.0270003 0.95109 0.000235771)
(-0.041811 0.926742 0.000365049)
(-0.060352 0.890287 0.000526936)
(-0.0787268 0.833884 0.00068717)
(-0.104115 0.756352 0.000908593)
(-0.129349 0.663543 0.00112888)
(-0.155701 0.564745 0.00135892)
(-0.183108 0.46634 0.00159804)
(-0.209287 0.373717 0.00182668)
(-0.232816 0.2891 0.00203209)
(-0.255165 0.213148 0.00222715)
(-0.274801 0.146951 0.00239856)
(-0.291847 0.0896828 0.00254734)
(-0.306204 0.0415121 0.00267265)
(-0.31752 0.00118328 0.00277142)
(-0.325904 -0.0315012 0.0028446)
(-0.331384 -0.0578694 0.00289245)
(-0.334128 -0.0782758 0.00291641)
(-0.334296 -0.0938767 0.00291789)
(-0.332207 -0.105208 0.00289968)
(-0.327996 -0.113123 0.00286293)
(-0.321946 -0.118178 0.00281014)
(-0.314258 -0.120948 0.00274305)
(-0.305157 -0.121873 0.00266362)
(-0.294864 -0.121345 0.00257379)
(-0.283597 -0.119667 0.00247546)
(-0.271544 -0.117098 0.00237027)
(-0.258898 -0.113838 0.0022599)
(-0.245832 -0.110053 0.00214586)
(-0.2325 -0.105873 0.0020294)
(-0.00878289 1.03137 7.66672e-05)
(-0.0225576 1.00449 0.000196952)
(-0.0342402 0.978403 0.00029895)
(-0.0496046 0.942705 0.000433125)
(-0.0628128 0.890232 0.000548332)
(-0.0818529 0.817971 0.000714491)
(-0.101929 0.729797 0.000889651)
(-0.126188 0.632336 0.00110134)
(-0.150699 0.533442 0.00131529)
(-0.175221 0.438836 0.00152941)
(-0.198264 0.351165 0.00173057)
(-0.22021 0.271535 0.0019221)
(-0.240046 0.201079 0.00209524)
(-0.257652 0.139192 0.0022489)
(-0.272803 0.0861593 0.00238114)
(-0.285257 0.0409372 0.00248983)
(-0.294946 0.00339769 0.00257439)
(-0.301979 -0.0275504 0.00263579)
(-0.306317 -0.0523106 0.00267367)
(-0.308169 -0.0718583 0.00268984)
(-0.307734 -0.0868147 0.00268606)
(-0.305204 -0.097984 0.00266398)
(-0.300805 -0.105961 0.0026256)
(-0.294742 -0.111317 0.0025727)
(-0.287216 -0.114511 0.00250701)
(-0.278435 -0.115951 0.00243038)
(-0.268605 -0.115961 0.00234459)
(-0.257905 -0.114822 0.00225122)
(-0.246527 -0.112759 0.00215191)
(-0.234639 -0.109962 0.00204815)
(-0.222398 -0.106583 0.00194123)
(-0.0074866 1.07947 6.53477e-05)
(-0.0191839 1.05153 0.000167488)
(-0.0293899 1.02425 0.000256577)
(-0.0425372 0.9876 0.000371363)
(-0.0533805 0.936468 0.00046597)
(-0.0686256 0.868482 0.000599117)
(-0.0844295 0.784725 0.000737023)
(-0.104396 0.690907 0.000911196)
(-0.126125 0.59378 0.00110086)
(-0.148945 0.49845 0.00130007)
(-0.170976 0.408906 0.00149238)
(-0.192304 0.326449 0.00167852)
(-0.21183 0.252412 0.00184896)
(-0.229447 0.186565 0.00200272)
(-0.24482 0.12918 0.00213689)
(-0.257782 0.0795888 0.00225002)
(-0.268172 0.0375606 0.00234071)
(-0.276129 0.0023234 0.00241016)
(-0.281526 -0.0265897 0.00245728)
(-0.284581 -0.0499519 0.00248395)
(-0.285396 -0.068409 0.00249108)
(-0.284182 -0.0827246 0.00248049)
(-0.281126 -0.0935308 0.00245383)
(-0.276418 -0.101402 0.00241275)
(-0.270232 -0.106815 0.00235876)
(-0.262759 -0.110193 0.00229354)
(-0.254188 -0.111877 0.00221875)
(-0.244692 -0.112169 0.00213587)
(-0.234452 -0.111312 0.00204651)
(-0.223635 -0.109517 0.0019521)
(-0.212397 -0.106957 0.00185393)
(-0.00625026 1.11909 5.45505e-05)
(-0.0166935 1.09059 0.000145718)
(-0.0251544 1.06257 0.000219583)
(-0.0373793 1.02571 0.000326329)
(-0.0472218 0.975086 0.000412181)
(-0.0601762 0.909367 0.000525315)
(-0.0734135 0.82993 0.00064089)
(-0.0904391 0.740235 0.000789405)
(-0.109314 0.645604 0.000954142)
(-0.129799 0.551117 0.00113296)
(-0.150199 0.460698 0.00131103)
(-0.170239 0.376298 0.00148593)
(-0.188826 0.299401 0.00164816)
(-0.205859 0.230224 0.00179682)
(-0.220847 0.169128 0.00192765)
(-0.233783 0.115732 0.00204055)
(-0.244394 0.0698199 0.00213317)
(-0.252876 0.0308077 0.0022072)
(-0.259016 -0.00178482 0.0022608)
(-0.263003 -0.0286263 0.00229561)
(-0.264841 -0.0503304 0.00231166)
(-0.264704 -0.0676 0.00231047)
(-0.262765 -0.0810828 0.00229356)
(-0.259199 -0.0913607 0.00226245)
(-0.254161 -0.0989165 0.00221848)
(-0.247823 -0.104183 0.00216317)
(-0.24036 -0.107513 0.00209804)
(-0.231932 -0.109221 0.0020245)
(-0.222714 -0.109566 0.00194405)
(-0.212868 -0.108778 0.00185812)
(-0.202548 -0.107046 0.00176795)
(-0.00507425 1.15477 4.43086e-05)
(-0.0152281 1.12617 0.00013305)
(-0.0216786 1.09791 0.000189176)
(-0.0331151 1.06178 0.000289063)
(-0.0417844 1.01108 0.000364758)
(-0.0546197 0.946893 0.000476792)
(-0.0662239 0.870134 0.00057807)
(-0.0815286 0.783824 0.000711582)
(-0.0980987 0.691787 0.00085621)
(-0.116316 0.598725 0.00101523)
(-0.134703 0.508003 0.00117574)
(-0.153041 0.422247 0.0013358)
(-0.170228 0.342972 0.00148582)
(-0.186222 0.270952 0.00162542)
(-0.20046 0.206602 0.00174969)
(-0.212994 0.149829 0.0018591)
(-0.223494 0.100468 0.00195075)
(-0.232155 0.0580425 0.00202634)
(-0.23871 0.022117 0.00208356)
(-0.243329 -0.00792675 0.00212388)
(-0.245949 -0.032651 0.00214676)
(-0.246686 -0.0527102 0.0021532)
(-0.245668 -0.0687275 0.00214433)
(-0.24306 -0.0813 0.00212157)
(-0.238998 -0.0909162 0.00208612)
(-0.233638 -0.0980131 0.00203935)
(-0.227138 -0.10295 0.00198263)
(-0.219652 -0.106051 0.00191731)
(-0.211345 -0.107587 0.00184481)
(-0.202375 -0.1078 0.00176652)
(-0.192892 -0.106896 0.00168367)
(-0.0041516 1.18441 3.62498e-05)
(-0.0129872 1.15564 0.00011342)
(-0.0178998 1.12753 0.000156319)
(-0.0288683 1.09295 0.000252188)
(-0.0361317 1.04346 0.000315388)
(-0.048694 0.981347 0.00042505)
(-0.0595841 0.906714 0.000520105)
(-0.0740753 0.823005 0.00064652)
(-0.0889292 0.732927 0.000776162)
(-0.105257 0.641064 0.000918682)
(-0.121836 0.550264 0.00106341)
(-0.13838 0.463563 0.00120782)
(-0.15408 0.382479 0.00134487)
(-0.168869 0.308206 0.00147396)
(-0.182227 0.241225 0.00159056)
(-0.194211 0.181659 0.00169517)
(-0.204477 0.129394 0.00178477)
(-0.213196 0.0840116 0.00186087)
(-0.220043 0.0451498 0.00192064)
(-0.225163 0.0121922 0.00196532)
(-0.228427 -0.0153366 0.00199382)
(-0.229915 -0.0380492 0.00200682)
(-0.229688 -0.0564976 0.00200484)
(-0.227901 -0.0712769 0.00198925)
(-0.22468 -0.0828828 0.00196115)
(-0.220168 -0.091756 0.00192178)
(-0.214512 -0.0982596 0.00187242)
(-0.207858 -0.102724 0.00181435)
(-0.200362 -0.10543 0.00174894)
(-0.192181 -0.106632 0.00167754)
(-0.18346 -0.106549 0.00160135)
(-0.00349145 1.21017 3.04868e-05)
(-0.0117079 1.18111 0.000102243)
(-0.0158378 1.15302 0.000138341)
(-0.025962 1.11949 0.000226861)
(-0.0320267 1.07302 0.000279536)
(-0.044312 1.01352 0.000386809)
(-0.0540139 0.940825 0.00047149)
(-0.067337 0.859302 0.000587705)
(-0.0805636 0.770706 0.000703146)
(-0.0950534 0.679632 0.000829635)
(-0.109871 0.588787 0.000959004)
(-0.124792 0.501325 0.00108924)
(-0.139179 0.418727 0.00121483)
(-0.152933 0.342562 0.00133489)
(-0.165606 0.273357 0.00144551)
(-0.177154 0.211363 0.0015463)
(-0.187265 0.156583 0.00163455)
(-0.196003 0.108567 0.00171082)
(-0.203065 0.0670826 0.00177245)
(-0.208565 0.031493 0.00182046)
(-0.212324 0.00140503 0.00185327)
(-0.214419 -0.0237717 0.00187156)
(-0.214846 -0.0445181 0.00187529)
(-0.213738 -0.061397 0.00186563)
(-0.211218 -0.0749055 0.00184364)
(-0.207423 -0.0854884 0.00181053)
(-0.202491 -0.0935083 0.00176749)
(-0.19656 -0.0992991 0.00171574)
(-0.189782 -0.103148 0.00165658)
(-0.182308 -0.105319 0.00159135)
(-0.174278 -0.106043 0.0015212)
(-0.00308392 1.23314 2.69269e-05)
(-0.0105648 1.20492 9.22525e-05)
(-0.01451 1.17717 0.000126763)
(-0.0240922 1.1448 0.000210513)
(-0.0293446 1.10002 0.000256041)
(-0.0403876 1.04289 0.00035249)
(-0.0490311 0.971005 0.000427982)
(-0.0609979 0.891277 0.000532389)
(-0.0728539 0.803975 0.000635839)
(-0.0858319 0.713828 0.000749141)
(-0.0990868 0.623143 0.000864866)
(-0.112611 0.535301 0.000982913)
(-0.125946 0.451693 0.00109933)
(-0.138719 0.374141 0.00121082)
(-0.150797 0.303187 0.00131624)
(-0.161866 0.239204 0.00141285)
(-0.17175 0.182254 0.00149912)
(-0.180423 0.131942 0.00157481)
(-0.187569 0.0880933 0.00163718)
(-0.193322 0.0501107 0.0016874)
(-0.197433 0.0176491 0.00172329)
(-0.200009 -0.00984125 0.00174577)
(-0.20098 -0.0327827 0.00175426)
(-0.200451 -0.0516829 0.00174965)
(-0.198529 -0.0670249 0.00173288)
(-0.195352 -0.0792585 0.00170517)
(-0.191047 -0.0887467 0.0016676)
(-0.185751 -0.0958244 0.00162138)
(-0.179608 -0.100785 0.00156778)
(-0.172767 -0.103899 0.00150807)
(-0.165365 -0.105412 0.0014434)
(-0.00269204 1.25392 2.35107e-05)
(-0.00942135 1.22624 8.22923e-05)
(-0.0125462 1.19916 0.000109558)
(-0.0205738 1.16739 0.000179737)
(-0.0246363 1.12469 0.000215094)
(-0.035304 1.06928 0.000308247)
(-0.0423768 0.999182 0.000369864)
(-0.0529945 0.920912 0.0004625)
(-0.0636351 0.833857 0.000555347)
(-0.0754684 0.744798 0.000658683)
(-0.0876487 0.654346 0.000765042)
(-0.100138 0.566433 0.000874062)
(-0.112798 0.482132 0.000984582)
(-0.124944 0.403543 0.0010906)
(-0.136725 0.331137 0.00119343)
(-0.147553 0.265475 0.00128794)
(-0.157396 0.206585 0.00137385)
(-0.166081 0.154238 0.00144964)
(-0.173359 0.108218 0.00151316)
(-0.179343 0.0680411 0.00156539)
(-0.183749 0.0333647 0.00160385)
(-0.18671 0.003704 0.0016297)
(-0.188119 -0.0213303 0.001642)
(-0.188064 -0.0421797 0.00164153)
(-0.18663 -0.0592913 0.00162902)
(-0.183964 -0.073117 0.00160576)
(-0.180188 -0.084023 0.00157281)
(-0.175436 -0.0923447 0.00153134)
(-0.169848 -0.0983799 0.00148258)
(-0.163571 -0.102409 0.0014278)
(-0.156737 -0.104684 0.00136809)
(-0.00245741 1.27171 2.14577e-05)
(-0.00803134 1.24422 7.01461e-05)
(-0.0108891 1.2166 9.50961e-05)
(-0.0171355 1.185 0.000149682)
(-0.0202674 1.14396 0.000177015)
(-0.0280835 1.09027 0.000245261)
(-0.0339445 1.02296 0.000296387)
(-0.0444595 0.946229 0.000388138)
(-0.0537778 0.860512 0.000469327)