/*--------------------------------*- C++ -*----------------------------------*\
| =========                 |                                                 |
| \\      /  F ield         | OpenFOAM: The Open Source CFD Toolbox           |
|  \\    /   O peration     | Version:  v2012                                 |
|   \\  /    A nd           | Website:  www.openfoam.com                      |
|    \\/     M anipulation  |                                                 |
\*---------------------------------------------------------------------------*/
FoamFile
{
    version     2.0;
    format      ascii;
    class       volScalarField;
    location    "0.75";
    object      alpha.water;
}
// * * * * * * * * * * * * * * * * * * * * * * * * * * * * * * * * * * * * * //

dimensions      [0 0 0 0 0 0 0];


internalField   nonuniform List<scalar> 
3352
(
-9.59568e-150
-1.03184e-138
-1.58524e-130
-7.66983e-123
-2.18128e-116
-4.93619e-108
-5.51216e-101
-2.28315e-93
-1.18997e-86
-7.85044e-84
-2.73635e-81
-1.07431e-78
-8.52951e-76
-7.68909e-74
-2.50748e-71
-1.11815e-69
-4.98492e-67
-3.3269e-64
-5.53254e-62
-5.24205e-61
-1.88665e-60
-3.81178e-60
-5.05175e-60
-4.75726e-60
-3.3373e-60
-1.81145e-60
-1.74166e-60
-1.11008e-59
-4.08373e-59
-8.2995e-59
-1.59957e-57
-7.27196e-56
-2.46859e-55
-3.63842e-55
-3.09618e-55
-1.71477e-55
-6.58334e-56
-1.81987e-56
-3.71296e-57
-1.10202e-147
-6.74232e-137
-7.20805e-129
-3.52069e-121
-8.01005e-115
-1.38691e-106
-1.34099e-99
-4.79684e-92
-1.97104e-85
-1.15864e-82
-3.64065e-80
-1.29364e-77
-9.47519e-75
-7.85005e-73
-2.36082e-70
-9.84819e-69
-3.955e-66
-2.50936e-63
-3.99528e-61
-3.6553e-60
-1.27994e-59
-2.52578e-59
-3.27926e-59
-3.03342e-59
-2.09547e-59
-1.1216e-59
-9.59311e-60
-5.54558e-59
-2.01411e-58
-4.06908e-58
-8.08988e-57
-3.7955e-55
-1.29851e-54
-1.92826e-54
-1.65477e-54
-9.25441e-55
-3.5929e-55
-1.00585e-55
-2.08135e-56
-3.54385e-145
-4.13032e-135
-3.16956e-127
-1.59321e-119
-2.90161e-113
-3.84256e-105
-3.21791e-98
-9.94128e-91
-3.21606e-84
-1.68421e-81
-4.76828e-79
-1.53304e-76
-1.03596e-73
-7.88857e-72
-2.18709e-69
-8.53433e-68
-3.08815e-65
-1.8625e-62
-2.83894e-60
-2.50835e-59
-8.54658e-59
-1.64756e-58
-2.09586e-58
-1.90475e-58
-1.29592e-58
-6.84232e-59
-5.25303e-59
-2.72709e-58
-9.76957e-58
-1.96234e-57
-4.0254e-56
-1.95065e-54
-6.72832e-54
-1.00703e-53
-8.71795e-54
-4.92491e-54
-1.93414e-54
-5.48537e-55
-1.15156e-55
-1.68391e-142
-2.25636e-133
-1.35304e-125
-7.11022e-118
-1.03706e-111
-1.05002e-103
-7.6172e-97
-2.03214e-89
-5.16814e-83
-2.41061e-80
-6.14597e-78
-1.78735e-75
-1.11439e-72
-7.80013e-71
-1.99292e-68
-7.27418e-67
-2.37222e-64
-1.35984e-61
-1.98427e-59
-1.69337e-58
-5.61524e-58
-1.05764e-57
-1.3185e-57
-1.17749e-57
-7.89179e-58
-4.11153e-58
-2.85965e-58
-1.32006e-57
-4.65915e-57
-9.30577e-57
-1.97004e-55
-9.86879e-54
-3.43337e-53
-5.18117e-53
-4.52638e-53
-2.58374e-53
-1.02676e-53
-2.95086e-54
-6.28679e-55
-2.36878e-140
-1.13411e-131
-5.62483e-124
-3.12852e-116
-3.65606e-110
-2.82966e-102
-1.77839e-95
-4.09627e-88
-8.17749e-82
-3.39656e-79
-7.79412e-77
-2.04966e-74
-1.17918e-71
-7.58746e-70
-1.78583e-67
-6.09685e-66
-1.79233e-63
-9.76412e-61
-1.36387e-58
-1.12437e-57
-3.62915e-57
-6.6799e-57
-8.16233e-57
-7.16433e-57
-4.73099e-57
-2.43281e-57
-1.5473e-57
-6.28997e-57
-2.18399e-56
-4.33806e-56
-9.47986e-55
-4.91358e-53
-1.72491e-52
-2.62548e-52
-2.31543e-52
-1.33593e-52
-5.37369e-53
-1.56548e-53
-3.38576e-54
-2.94392e-138
-5.29598e-130
-2.28484e-122
-1.35756e-114
-1.27159e-108
-7.52268e-101
-4.0957e-94
-8.1416e-87
-1.27378e-80
-4.71006e-78
-9.72214e-76
-2.31112e-73
-1.22691e-70
-7.25823e-69
-1.57311e-66
-5.02313e-65
-1.33146e-62
-6.89245e-60
-9.21553e-58
-7.34028e-57
-2.30653e-56
-4.14956e-56
-4.97086e-56
-4.28903e-56
-2.79113e-56
-1.41704e-56
-8.31756e-57
-2.95053e-56
-1.00594e-55
-1.98727e-55
-4.48382e-54
-2.40685e-52
-8.52944e-52
-1.30997e-51
-1.16664e-51
-6.80598e-52
-2.77193e-52
-8.18811e-53
-1.79824e-53
-2.94591e-136
-2.32225e-128
-9.07868e-121
-5.80786e-113
-4.36223e-107
-1.97308e-99
-9.30419e-93
-1.59527e-85
-1.95283e-79
-6.42683e-77
-1.19256e-74
-2.5617e-72
-1.25498e-69
-6.8266e-68
-1.36185e-65
-4.067e-64
-9.72214e-62
-4.78169e-59
-6.11941e-57
-4.71008e-56
-1.44112e-55
-2.53454e-55
-2.97713e-55
-2.52565e-55
-1.62003e-55
-8.12233e-56
-4.43911e-56
-1.36277e-55
-4.55134e-55
-8.94295e-55
-2.08383e-53
-1.15953e-51
-4.14999e-51
-6.43364e-51
-5.7882e-51
-3.41539e-51
-1.40888e-51
-4.22118e-52
-9.41632e-53
-2.10374e-134
-9.62989e-127
-3.52587e-119
-2.45061e-111
-1.47603e-105
-5.10782e-98
-2.08518e-91
-3.08119e-84
-2.94603e-78
-8.6266e-76
-1.4381e-73
-2.79031e-71
-1.26152e-68
-6.31054e-67
-1.15823e-64
-3.23479e-63
-6.97523e-61
-3.25909e-58
-3.99192e-56
-2.96963e-55
-8.84865e-55
-1.52165e-54
-1.75293e-54
-1.46242e-54
-9.24775e-55
-4.57991e-55
-2.35023e-55
-6.19916e-55
-2.02213e-54
-3.95192e-54
-9.51224e-53
-5.49221e-51
-1.98613e-50
-3.1093e-50
-2.82695e-50
-1.68775e-50
-7.05379e-51
-2.14423e-51
-4.85989e-52
-1.31214e-132
-3.79949e-125
-1.33263e-117
-1.01944e-109
-4.92514e-104
-1.30539e-96
-4.60989e-90
-5.86465e-83
-4.3722e-77
-1.13881e-74
-1.70444e-72
-2.9859e-70
-1.24585e-67
-5.73188e-66
-9.6744e-64
-2.52667e-62
-4.91555e-60
-2.18156e-57
-2.55732e-55
-1.83901e-54
-5.33746e-54
-8.97619e-54
-1.01433e-53
-8.3235e-54
-5.18999e-54
-2.53952e-54
-1.23313e-54
-2.7784e-54
-8.8194e-54
-1.71422e-53
-4.26329e-52
-2.55678e-50
-9.34672e-50
-1.47821e-49
-1.3587e-49
-8.21024e-50
-3.47771e-50
-1.07291e-50
-2.47144e-51
-7.29817e-131
-1.43963e-123
-4.86849e-116
-4.18065e-108
-1.62083e-102
-3.29638e-95
-1.00573e-88
-1.09997e-81
-6.38197e-76
-1.47813e-73
-1.98478e-71
-3.13789e-69
-1.20833e-66
-5.11374e-65
-7.93315e-63
-1.93739e-61
-3.40121e-59
-1.43359e-56
-1.60822e-54
-1.11816e-53
-3.16162e-53
-5.20081e-53
-5.7661e-53
-4.65489e-53
-2.86254e-53
-1.38421e-53
-6.40511e-54
-1.22752e-53
-3.77478e-53
-7.29594e-53
-1.87531e-51
-1.1694e-49
-4.32361e-49
-6.91085e-49
-6.42414e-49
-3.93048e-49
-1.6879e-49
-5.28655e-50
-1.23799e-50
-3.64562e-129
-5.29935e-122
-1.70345e-114
-1.69011e-106
-5.25882e-101
-8.22802e-94
-2.165e-87
-2.03234e-80
-9.15861e-75
-1.88573e-72
-2.27011e-70
-3.23739e-68
-1.15056e-65
-4.47972e-64
-6.3842e-62
-1.45777e-60
-2.30981e-58
-9.24475e-56
-9.9242e-54
-6.67258e-53
-1.83836e-52
-2.95855e-52
-3.21884e-52
-2.55689e-52
-1.55103e-52
-7.41356e-53
-3.28974e-53
-5.34957e-53
-1.58499e-52
-3.04554e-52
-8.09249e-51
-5.25272e-49
-1.96522e-48
-3.17611e-48
-2.98708e-48
-1.85111e-48
-8.06201e-49
-2.56424e-49
-6.1064e-50
-1.64705e-127
-1.91701e-120
-5.64921e-113
-6.73386e-105
-1.68223e-99
-2.03264e-92
-4.59957e-86
-3.69773e-79
-1.29209e-73
-2.36416e-71
-2.54952e-69
-3.2779e-67
-1.07516e-64
-3.85184e-63
-5.03998e-61
-1.07594e-59
-1.53892e-57
-5.84783e-55
-6.00683e-53
-3.90632e-52
-1.04885e-51
-1.65172e-51
-1.76381e-51
-1.37891e-51
-8.25261e-52
-3.89984e-52
-1.6688e-52
-2.30144e-52
-6.52704e-52
-1.2463e-51
-3.42438e-50
-2.31625e-48
-8.77377e-48
-1.43438e-47
-1.3654e-47
-8.57356e-48
-3.78818e-48
-1.22397e-48
-2.96489e-49
-6.7973e-126
-6.84767e-119
-1.75603e-111
-2.64387e-103
-5.3039e-98
-4.97448e-91
-9.64667e-85
-6.62517e-78
-1.79111e-72
-2.91137e-70
-2.81037e-68
-3.25579e-66
-9.85594e-64
-3.24955e-62
-3.90151e-60
-7.78617e-59
-1.00546e-56
-3.62687e-54
-3.56453e-52
-2.24252e-51
-5.86913e-51
-9.04587e-51
-9.48308e-51
-7.29772e-51
-4.30998e-51
-2.01404e-51
-8.35123e-52
-9.7828e-52
-2.63534e-51
-4.99752e-51
-1.42026e-49
-1.00226e-47
-3.8459e-47
-6.36321e-47
-6.13334e-47
-3.9037e-47
-1.75047e-47
-5.74727e-48
-1.41656e-48
-2.5986e-124
-2.39745e-117
-5.05766e-110
-1.02268e-101
-1.6481e-96
-1.208e-89
-1.99765e-83
-1.16844e-76
-2.4389e-71
-3.52063e-69
-3.03954e-67
-3.17099e-65
-8.85922e-63
-2.68866e-61
-2.96022e-59
-5.5221e-58
-6.439e-56
-2.20445e-53
-2.07283e-51
-1.26182e-50
-3.21962e-50
-4.85761e-50
-5.00026e-50
-3.78851e-50
-2.20836e-50
-1.02067e-50
-4.11811e-51
-4.1128e-51
-1.043e-50
-1.9627e-50
-5.77078e-49
-4.25385e-47
-1.65449e-46
-2.77173e-46
-2.70635e-46
-1.74667e-46
-7.95159e-47
-2.65379e-47
-6.65741e-48
-9.51112e-123
-8.05601e-116
-1.33333e-108
-3.89632e-100
-5.04591e-95
-2.91571e-88
-4.0853e-82
-2.02776e-75
-3.2609e-70
-4.17899e-68
-3.22415e-66
-3.02709e-64
-7.80504e-62
-2.18081e-60
-2.2004e-58
-3.83638e-57
-4.03989e-55
-1.31246e-52
-1.18062e-50
-6.95562e-50
-1.7306e-49
-2.55648e-49
-2.58445e-49
-1.92827e-49
-1.10959e-49
-5.07325e-50
-1.99878e-50
-1.71181e-50
-4.04552e-50
-7.54574e-50
-2.29593e-48
-1.77006e-46
-6.98228e-46
-1.18498e-45
-1.17259e-45
-7.67706e-46
-3.54943e-46
-1.20455e-46
-3.07651e-47
-3.6066e-121
-2.522e-114
-3.17513e-107
-1.46175e-98
-1.52186e-93
-7.00833e-87
-8.25298e-81
-3.46177e-74
-4.2794e-69
-4.86718e-67
-3.35269e-65
-2.83099e-63
-6.73634e-61
-1.73327e-59
-1.60159e-57
-2.60948e-56
-2.48195e-54
-7.65002e-52
-6.58293e-50
-3.7543e-49
-9.11016e-49
-1.31791e-48
-1.30875e-48
-9.6175e-49
-5.46426e-49
-2.47197e-49
-9.53866e-50
-7.06033e-50
-1.53764e-49
-2.83844e-49
-8.93942e-48
-7.21748e-46
-2.88932e-45
-4.97003e-45
-4.98651e-45
-3.31319e-45
-1.55631e-45
-5.37227e-46
-1.39741e-46
-1.53306e-119
-7.116e-113
-6.72765e-106
-5.39835e-97
-4.52052e-92
-1.6809e-85
-1.64728e-79
-5.81138e-73
-5.5098e-68
-5.55965e-66
-3.4162e-64
-2.59248e-62
-5.69273e-60
-1.34918e-58
-1.14089e-56
-1.73689e-55
-1.49228e-53
-4.36304e-51
-3.59128e-49
-1.98309e-48
-4.69417e-48
-6.6515e-48
-6.48968e-48
-4.69806e-48
-2.63597e-48
-1.1801e-48
-4.47109e-49
-2.8878e-49
-5.72682e-49
-1.04414e-48
-3.40444e-47
-2.88243e-45
-1.1718e-44
-2.0441e-44
-2.08039e-44
-1.4034e-44
-6.70007e-45
-2.35337e-45
-6.23625e-46
-6.9805e-118
-1.74868e-111
-1.24567e-104
-1.96196e-95
-1.32218e-90
-4.0304e-84
-3.24934e-78
-9.5894e-72
-6.95659e-67
-6.22561e-65
-3.4092e-63
-2.32341e-61
-4.70792e-59
-1.02802e-57
-7.94957e-56
-1.13066e-54
-8.77599e-53
-2.43341e-50
-1.9158e-48
-1.02453e-47
-2.36618e-47
-3.28471e-47
-3.14935e-47
-2.24641e-47
-1.24492e-47
-5.51649e-48
-2.05642e-48
-1.17188e-48
-2.0902e-48
-3.75416e-48
-1.26741e-46
-1.12688e-44
-4.65534e-44
-8.24001e-44
-8.51118e-44
-5.83176e-44
-2.83088e-44
-1.01213e-44
-2.73323e-45
-2.96324e-116
-3.60466e-110
-1.97002e-103
-7.01467e-94
-3.80689e-89
-9.67574e-83
-6.33519e-77
-1.55471e-70
-8.60888e-66
-6.83074e-64
-3.33038e-62
-2.03668e-60
-3.80803e-58
-7.66351e-57
-5.41498e-55
-7.19401e-54
-5.04504e-52
-1.32639e-49
-9.98748e-48
-5.17389e-47
-1.1661e-46
-1.58621e-46
-1.49483e-46
-1.05079e-46
-5.75275e-47
-2.52356e-47
-9.27182e-48
-4.71835e-48
-7.47794e-48
-1.31857e-47
-4.60949e-46
-4.31022e-44
-1.81077e-43
-3.25402e-43
-3.41288e-43
-2.37631e-43
-1.17334e-43
-4.27172e-44
-1.17596e-44
-1.02841e-114
-5.94912e-109
-2.58161e-102
-2.46635e-92
-1.07877e-87
-2.32779e-81
-1.22097e-75
-2.47548e-69
-1.04366e-64
-7.33975e-63
-3.18296e-61
-1.74521e-59
-3.01071e-57
-5.58589e-56
-3.60362e-54
-4.47117e-53
-2.83322e-51
-7.06128e-49
-5.08496e-47
-2.55236e-46
-5.61492e-46
-7.48574e-46
-6.93528e-46
-4.80534e-46
-2.59937e-46
-1.129e-46
-4.09414e-47
-1.88413e-47
-2.62344e-47
-4.52173e-47
-1.63674e-45
-1.61203e-43
-6.89213e-43
-1.25821e-42
-1.34066e-42
-9.49019e-43
-4.76845e-43
-1.76842e-43
-4.96445e-44
-2.62205e-113
-7.34452e-108
-2.68639e-101
-8.52443e-91
-3.00795e-86
-5.6125e-80
-2.32603e-74
-3.86909e-68
-1.23878e-63
-7.71941e-62
-2.9745e-60
-1.46093e-58
-2.32519e-56
-3.97861e-55
-2.34149e-53
-2.71265e-52
-1.55328e-50
-3.66904e-48
-2.52669e-46
-1.22917e-45
-2.63991e-45
-3.45013e-45
-3.14304e-45
-2.14699e-45
-1.1477e-45
-4.93643e-46
-1.7689e-46
-7.45497e-47
-9.03069e-47
-1.51316e-46
-5.67027e-45
-5.8916e-43
-2.56549e-42
-4.76088e-42
-5.1565e-42
-3.71276e-42
-1.8992e-42
-7.17755e-43
-2.05547e-43
-4.31718e-112
-6.0166e-107
-2.08932e-100
-2.89505e-89
-8.25081e-85
-1.35507e-78
-4.37953e-73
-5.93301e-67
-1.43877e-62
-7.94191e-61
-2.71629e-59
-1.19393e-57
-1.75296e-55
-2.76736e-54
-1.48445e-52
-1.60541e-51
-8.30746e-50
-1.85939e-47
-1.22445e-45
-5.77461e-45
-1.21107e-44
-1.55189e-44
-1.39043e-44
-9.36546e-45
-4.94833e-45
-2.10797e-45
-7.47119e-46
-2.91879e-46
-3.05271e-46
-4.93887e-46
-1.91521e-44
-2.10281e-42
-9.33369e-42
-1.76187e-41
-1.94085e-41
-1.42213e-41
-7.40935e-42
-2.85469e-42
-8.34256e-43
-3.44152e-111
-2.44777e-106
-1.16321e-99
-9.65678e-88
-2.22595e-83
-3.27048e-77
-8.147e-72
-8.92108e-66
-1.63411e-61
-7.98803e-60
-2.42236e-58
-9.51896e-57
-1.28913e-54
-1.87844e-53
-9.1759e-52
-9.26144e-51
-4.33121e-49
-9.18353e-47
-5.78271e-45
-2.64456e-44
-5.41708e-44
-6.80763e-44
-5.99992e-44
-3.98571e-44
-2.08178e-44
-8.78468e-45
-3.08191e-45
-1.12881e-45
-1.01439e-45
-1.57156e-45
-6.30221e-44
-7.32462e-42
-3.31688e-41
-6.37316e-41
-7.14463e-41
-5.33039e-41
-2.82991e-41
-1.11201e-41
-3.31755e-42
-4.03325e-136
-3.66473e-123
-8.30803e-99
-3.1626e-86
-5.9053e-82
-7.87169e-76
-1.49661e-70
-1.31458e-64
-1.81374e-60
-7.84965e-59
-2.10819e-57
-7.39844e-56
-9.24061e-54
-1.24341e-52
-5.52611e-51
-5.20398e-50
-2.19954e-48
-4.41701e-46
-2.65937e-44
-1.1797e-43
-2.36073e-43
-2.91009e-43
-2.52352e-43
-1.65359e-43
-8.53934e-44
-3.56992e-44
-1.24049e-44
-4.30345e-45
-3.31732e-45
-4.87323e-45
-2.01879e-43
-2.48816e-41
-1.15058e-40
-2.25195e-40
-2.57075e-40
-1.95394e-40
-1.05757e-40
-4.24024e-41
-1.29192e-41
-4.15556e-135
-2.48275e-121
-2.6496e-97
-1.01634e-84
-1.54023e-80
-1.884e-74
-2.71293e-69
-1.89715e-63
-1.96596e-59
-7.53116e-58
-1.7893e-56
-5.60137e-55
-6.45116e-53
-8.02018e-52
-3.23995e-50
-2.84579e-49
-1.08712e-47
-2.06711e-45
-1.18995e-43
-5.12174e-43
-1.00152e-42
-1.21128e-42
-1.03367e-42
-6.68255e-43
-3.41251e-43
-1.41353e-43
-4.86735e-44
-1.61375e-44
-1.06896e-44
-1.47211e-44
-6.29002e-43
-8.23682e-41
-3.89323e-40
-7.76791e-40
-9.03574e-40
-7.00059e-40
-3.8649e-40
-1.58184e-40
-4.92404e-41
-4.24232e-145
-1.65069e-119
-1.19892e-95
-3.20339e-83
-3.94928e-79
-4.47087e-73
-4.84871e-68
-2.67971e-62
-2.07953e-58
-7.04966e-57
-1.47992e-55
-4.12756e-54
-4.38265e-52
-5.03684e-51
-1.84777e-49
-1.51323e-48
-5.22479e-47
-9.40458e-45
-5.17607e-43
-2.16234e-42
-4.13273e-42
-4.905e-42
-4.12007e-42
-2.62834e-42
-1.32743e-42
-5.44868e-43
-1.85994e-43
-5.93874e-44
-3.39796e-44
-4.33115e-44
-1.90454e-42
-2.65515e-40
-1.2841e-39
-2.61393e-39
-3.10033e-39
-2.44996e-39
-1.38039e-39
-5.77e-40
-1.83582e-40
-5.00174e-143
-1.07648e-117
-5.32362e-94
-9.89793e-82
-9.95256e-78
-1.04859e-71
-8.53431e-67
-3.70191e-61
-2.14489e-57
-6.43339e-56
-1.19187e-54
-2.95774e-53
-2.89472e-51
-3.07727e-50
-1.02418e-48
-7.81712e-48
-2.43951e-46
-4.15579e-44
-2.18675e-42
-8.86955e-42
-1.65726e-41
-1.93067e-41
-1.59657e-41
-1.00521e-41
-5.02165e-42
-2.04276e-42
-6.91478e-43
-2.13998e-43
-1.06643e-43
-1.24099e-43
-5.59887e-42
-8.32737e-40
-4.1253e-39
-8.5747e-39
-1.03777e-38
-8.36964e-39
-4.81536e-39
-2.05669e-39
-6.69128e-40
-5.71521e-141
-6.88164e-116
-2.31843e-92
-2.9963e-80
-2.46494e-76
-2.42395e-70
-1.47765e-65
-4.9982e-60
-2.15556e-56
-5.71941e-55
-9.33926e-54
-2.05922e-52
-1.85709e-50
-1.82732e-49
-5.51222e-48
-3.91933e-47
-1.1055e-45
-1.78191e-43
-8.96416e-42
-3.53131e-41
-6.45229e-41
-7.37971e-41
-6.00929e-41
-3.73474e-41
-1.84572e-41
-7.44161e-42
-2.49846e-42
-7.53389e-43
-3.30568e-43
-3.46311e-43
-1.59644e-41
-2.53888e-39
-1.28983e-38
-2.74004e-38
-3.38637e-38
-2.78922e-38
-1.63961e-38
-7.1593e-39
-2.38285e-39
-6.32154e-139
-4.30978e-114
-9.89731e-91
-8.88155e-79
-5.99873e-75
-5.50755e-69
-2.51313e-64
-6.59009e-59
-2.10884e-55
-4.94916e-54
-7.11395e-53
-1.39155e-51
-1.15606e-49
-1.05363e-48
-2.87798e-47
-1.90528e-46
-4.85725e-45
-7.40618e-43
-3.56198e-41
-1.36332e-40
-2.43655e-40
-2.73657e-40
-2.19473e-40
-1.34666e-40
-6.58466e-41
-2.63146e-41
-8.76417e-42
-2.58581e-42
-1.01175e-42
-9.41506e-43
-4.41049e-41
-7.5178e-39
-3.92165e-38
-8.52252e-38
-1.07644e-37
-9.06117e-38
-5.44558e-38
-2.43221e-38
-8.28555e-39
-6.75992e-137
-2.64241e-112
-4.13925e-89
-2.57619e-77
-1.43428e-73
-1.22714e-67
-4.19248e-63
-8.47817e-58
-2.00666e-54
-4.16498e-53
-5.26309e-52
-9.11833e-51
-6.97555e-49
-5.89312e-48
-1.45621e-46
-8.97059e-46
-2.06693e-44
-2.98066e-42
-1.37052e-40
-5.0983e-40
-8.91501e-40
-9.83464e-40
-7.76976e-40
-4.70755e-40
-2.27766e-40
-9.0227e-41
-2.98122e-41
-8.63477e-42
-3.0542e-42
-2.49485e-42
-1.17926e-40
-2.1599e-38
-1.15845e-37
-2.57808e-37
-3.33068e-37
-2.86743e-37
-1.76293e-37
-8.05877e-38
-2.81126e-38
-6.97911e-135
-1.58496e-110
-1.69492e-87
-7.30738e-76
-3.36851e-72
-2.6753e-66
-6.84953e-62
-1.06332e-56
-1.85545e-53
-3.40568e-52
-3.77833e-51
-5.78746e-50
-4.07512e-48
-3.19388e-47
-7.13307e-46
-4.08606e-45
-8.50874e-44
-1.16024e-41
-5.10036e-40
-1.84477e-39
-3.15702e-39
-3.42149e-39
-2.66333e-39
-1.59363e-39
-7.63038e-40
-2.99635e-40
-9.822e-41
-2.79972e-41
-9.07635e-42
-6.44794e-42
-3.04786e-40
-6.01476e-38
-3.32169e-37
-7.57825e-37
-1.00233e-36
-8.83231e-37
-5.55904e-37
-2.60237e-37
-9.3013e-38
-6.94656e-133
-9.29357e-109
-6.79102e-86
-2.02552e-74
-7.76878e-71
-5.69573e-65
-1.09417e-60
-1.2989e-55
-1.66549e-52
-2.70328e-51
-2.62945e-50
-3.5541e-49
-2.30218e-47
-1.67536e-46
-3.37884e-45
-1.79839e-44
-3.38435e-43
-4.36292e-41
-1.8337e-39
-6.45122e-39
-1.08077e-38
-1.151e-38
-8.82929e-39
-5.2183e-39
-2.4728e-39
-9.62583e-40
-3.13021e-40
-8.7973e-41
-2.64836e-41
-1.62662e-41
-7.60442e-40
-1.62169e-37
-9.2359e-37
-2.16266e-36
-2.93126e-36
-2.64596e-36
-1.7061e-36
-8.18441e-37
-2.99878e-37
-6.65542e-131
-5.32294e-107
-2.6608e-84
-5.48252e-73
-1.75882e-69
-1.18208e-63
-1.70618e-59
-1.54386e-54
-1.4498e-51
-2.08086e-50
-1.77215e-49
-2.10926e-48
-1.25609e-46
-8.49539e-46
-1.54593e-44
-7.63844e-44
-1.29893e-42
-1.58291e-40
-6.36103e-39
-2.17764e-38
-3.57243e-38
-3.73939e-38
-2.82732e-38
-1.65073e-38
-7.74225e-39
-2.98754e-39
-9.6367e-40
-2.67374e-40
-7.56339e-41
-4.00836e-41
-1.82892e-39
-4.2283e-37
-2.48761e-36
-5.98604e-36
-8.32294e-36
-7.70293e-36
-5.09222e-36
-2.50492e-36
-9.41434e-37
-6.12762e-129
-2.97558e-105
-1.01885e-82
-1.44796e-71
-3.90695e-68
-2.38753e-62
-2.59266e-58
-1.78364e-53
-1.22258e-50
-1.55171e-49
-1.15545e-48
-1.20823e-47
-6.60988e-46
-4.15886e-45
-6.82354e-44
-3.12661e-43
-4.8039e-42
-5.53348e-40
-2.1263e-38
-7.08615e-38
-1.13867e-37
-1.17174e-37
-8.73378e-38
-5.03792e-38
-2.33883e-38
-8.9458e-39
-2.86179e-39
-7.84489e-40
-2.10658e-40
-9.65337e-41
-4.23341e-39
-1.06477e-36
-6.48308e-36
-1.60538e-35
-2.29229e-35
-2.17725e-35
-1.47688e-35
-7.45495e-36
-2.87573e-36
-5.41176e-127
-1.62208e-103
-3.81032e-81
-3.72837e-70
-8.50995e-67
-4.6858e-61
-3.83272e-57
-2.00074e-52
-9.97632e-50
-1.11974e-48
-7.28021e-48
-6.67154e-47
-3.3498e-45
-1.96279e-44
-2.90178e-43
-1.23157e-42
-1.70939e-41
-1.86118e-39
-6.8394e-38
-2.2198e-37
-3.49496e-37
-3.5364e-37
-2.59897e-37
-1.4813e-37
-6.80698e-38
-2.58057e-38
-8.18515e-39
-2.21767e-39
-5.7005e-40
-2.272e-40
-9.41405e-39
-2.58602e-36
-1.63286e-35
-4.16706e-35
-6.11781e-35
-5.96946e-35
-4.1585e-35
-2.15565e-35
-8.5403e-36
-4.57587e-125
-8.61531e-102
-1.39087e-79
-9.35207e-69
-1.81611e-65
-8.92293e-60
-5.5027e-56
-2.17643e-51
-7.86833e-49
-7.81029e-48
-4.42781e-47
-3.54616e-46
-1.63238e-44
-8.91715e-44
-1.18729e-42
-4.66111e-42
-5.84285e-41
-6.014e-39
-2.11381e-37
-6.68434e-37
-1.03147e-36
-1.02648e-36
-7.43916e-37
-4.18975e-37
-1.90573e-37
-7.15988e-38
-2.25096e-38
-6.02779e-39
-1.49287e-39
-5.22121e-40
-2.0071e-38
-6.0482e-36
-3.96928e-35
-1.04565e-34
-1.58049e-34
-1.58602e-34
-1.13574e-34
-6.05077e-35
-2.46376e-35
-3.69646e-123
-4.45406e-100
-4.95219e-78
-2.28323e-67
-3.79356e-64
-1.64623e-58
-7.65969e-55
-2.29311e-50
-5.99091e-48
-5.25951e-47
-2.59645e-46
-1.81183e-45
-7.63606e-44
-3.89335e-43
-4.66716e-42
-1.69214e-41
-1.91502e-40
-1.86389e-38
-6.26739e-37
-1.93182e-36
-2.92251e-36
-2.86098e-36
-2.04489e-36
-1.13808e-36
-5.1237e-37
-1.90736e-37
-5.94104e-38
-1.57188e-38
-3.76853e-39
-1.16919e-39
-4.09296e-38
-1.35987e-35
-9.2992e-35
-2.53332e-34
-3.94781e-34
-4.07908e-34
-3.00566e-34
-1.64715e-34
-6.89813e-35
-2.84639e-121
-2.2392e-98
-1.71863e-76
-5.42064e-66
-7.74646e-63
-2.9383e-57
-1.03199e-53
-2.33698e-49
-4.39807e-47
-3.41513e-46
-1.4662e-45
-8.88461e-45
-3.42275e-43
-1.6308e-42
-1.75985e-41
-5.88196e-41
-6.00683e-40
-5.53095e-38
-1.77974e-36
-5.34944e-36
-7.93624e-36
-7.6438e-36
-5.38867e-36
-2.96358e-36
-1.32043e-36
-4.86923e-37
-1.50184e-37
-3.92327e-38
-9.13249e-39
-2.54257e-39
-7.96065e-38
-2.93359e-35
-2.09629e-34
-5.91749e-34
-9.52235e-34
-1.01438e-33
-7.69935e-34
-4.34419e-34
-1.87264e-34
-2.08417e-119
-1.09346e-96
-5.80892e-75
-1.25021e-64
-1.54402e-61
-5.06605e-56
-1.34346e-52
-2.30054e-48
-3.10914e-46
-2.13543e-45
-7.96325e-45
-4.17466e-44
-1.46718e-42
-6.54062e-42
-6.35475e-41
-1.95387e-40
-1.79931e-39
-1.56846e-37
-4.83167e-36
-1.41678e-35
-2.06177e-35
-1.95402e-35
-1.35873e-35
-7.38351e-36
-3.2551e-36
-1.18864e-36
-3.6279e-37
-9.3474e-38
-2.1155e-38
-5.34303e-39
-1.47154e-37
-6.05846e-35
-4.53885e-34
-1.33062e-33
-2.21492e-33
-2.43603e-33
-1.90688e-33
-1.10884e-33
-4.92408e-34
-1.44726e-117
-5.18036e-95
-1.91058e-73
-2.79824e-63
-2.99865e-60
-8.42401e-55
-1.68691e-51
-2.18429e-47
-2.11381e-45
-1.28405e-44
-4.15447e-44
-1.87638e-43
-6.00145e-42
-2.50645e-41
-2.19347e-40
-6.18914e-40
-5.13463e-39
-4.24165e-37
-1.25161e-35
-3.58184e-35
-5.11416e-35
-4.76973e-35
-3.2712e-35
-1.75611e-35
-7.65805e-36
-2.76778e-36
-8.35226e-37
-2.11944e-37
-4.66256e-38
-1.07786e-38
-2.57357e-37
-1.19463e-34
-9.41955e-34
-2.8753e-33
-4.96069e-33
-5.64185e-33
-4.56051e-33
-2.73598e-33
-1.25276e-33
-9.50308e-116
-2.37799e-93
-6.1092e-72
-6.07075e-62
-5.66275e-59
-1.34867e-53
-2.03922e-50
-1.99714e-46
-1.38033e-44
-7.41458e-44
-2.07922e-43
-8.05282e-43
-2.33705e-41
-9.156e-41
-7.223e-40
-1.86511e-39
-1.39206e-38
-1.09138e-36
-3.08721e-35
-8.62559e-35
-1.20857e-34
-1.10923e-34
-7.50203e-35
-3.97735e-35
-1.71478e-35
-6.12987e-36
-1.82682e-36
-4.55667e-37
-9.72532e-38
-2.06956e-38
-4.2323e-37
-2.2419e-34
-1.8692e-33
-5.95888e-33
-1.06797e-32
-1.25824e-32
-1.05179e-32
-6.51767e-33
-3.08008e-33
-5.88138e-114
-1.05624e-91
-1.89722e-70
-1.275e-60
-1.0375e-57
-2.07522e-52
-2.36858e-49
-1.75539e-45
-8.64615e-44
-4.1053e-43
-9.96932e-43
-3.29355e-42
-8.64131e-41
-3.17995e-40
-2.26412e-39
-5.33301e-39
-3.57416e-38
-2.66466e-36
-7.23405e-35
-1.97378e-34
-2.71424e-34
-2.45124e-34
-1.63435e-34
-8.55244e-35
-3.64272e-35
-1.28666e-35
-3.78104e-36
-9.24573e-37
-1.90719e-37
-3.73963e-38
-6.48753e-37
-3.98775e-34
-3.53628e-33
-1.18159e-32
-2.20565e-32
-2.69743e-32
-2.3355e-32
-1.4968e-32
-7.308e-33
-3.41832e-112
-4.5327e-90
-5.71545e-69
-2.58862e-59
-1.83957e-56
-3.06327e-51
-2.63792e-48
-1.48034e-44
-5.18835e-43
-2.17607e-42
-4.57324e-42
-1.28106e-41
-3.02478e-40
-1.04689e-39
-6.73902e-39
-1.44257e-38
-8.65797e-38
-6.15427e-36
-1.60609e-34
-1.85809e-110
-1.87657e-88
-1.6685e-67
-5.07436e-58
-3.1488e-55
-4.32953e-50
-2.81119e-47
-1.1954e-43
-2.97852e-42
-1.10223e-41
-2.00426e-41
-4.72798e-41
-9.9884e-40
-3.25551e-39
-1.89902e-38
-3.67847e-38
-1.96958e-37
-8.37873e-41
-1.65143e-40
-1.29697e-149
-8.24694e-139
-1.35271e-130
-6.36068e-123
-2.59519e-116
-3.32061e-108
-3.14065e-101
-1.96078e-93
-1.17905e-86
-6.37046e-84
-1.65353e-81
-5.39196e-79
-4.60053e-76
-3.92988e-74
-1.36268e-71
-5.20808e-70
-4.79882e-67
-3.32517e-64
-5.49903e-62
-5.20717e-61
-1.87359e-60
-3.78462e-60
-5.01471e-60
-4.72136e-60
-3.31136e-60
-1.79699e-60
-1.71058e-60
-1.08383e-59
-3.99131e-59
-8.1214e-59
-1.59676e-57
-7.27108e-56
-2.46868e-55
-3.63886e-55
-3.09672e-55
-1.71517e-55
-6.58543e-56
-1.82067e-56
-3.71514e-57
-5.40514e-148
-5.37002e-137
-6.15149e-129
-2.9139e-121
-9.4493e-115
-9.44121e-107
-7.66393e-100
-4.11111e-92
-1.95031e-85
-9.36192e-83
-2.19618e-80
-6.47578e-78
-5.09319e-75
-4.00215e-73
-1.28061e-70
-4.58052e-69
-3.80103e-66
-2.50792e-63
-3.97101e-61
-3.63092e-60
-1.27106e-59
-2.50773e-59
-3.25514e-59
-3.01046e-59
-2.07913e-59
-1.11261e-59
-9.4294e-60
-5.4143e-59
-1.96831e-58
-3.9813e-58
-8.07584e-57
-3.79505e-55
-1.29856e-54
-1.92851e-54
-1.65507e-54
-9.25664e-55
-3.59406e-55
-1.00629e-55
-2.08257e-56
-4.26058e-146
-3.354e-135
-2.70637e-127
-1.31598e-119
-3.39511e-113
-2.65167e-105
-1.84562e-98
-8.49495e-91
-3.17773e-84
-1.35495e-81
-2.87146e-79
-7.65395e-77
-5.54927e-74
-4.0116e-72
-1.18415e-69
-3.96383e-68
-2.9628e-65
-1.86134e-62
-2.82165e-60
-2.49157e-59
-8.48711e-59
-1.63575e-58
-2.08039e-58
-1.89028e-58
-1.28578e-58
-6.78725e-59
-5.16757e-59
-2.6625e-58
-9.54638e-58
-1.91978e-57
-4.01851e-56
-1.95042e-54
-6.72865e-54
-1.00717e-53
-8.71964e-54
-4.92614e-54
-1.93478e-54
-5.48778e-55
-1.15223e-55
-9.87904e-143
-1.86539e-133
-1.15657e-125
-5.86121e-118
-1.20405e-111
-7.36077e-104
-4.38669e-97
-1.72973e-89
-5.099e-83
-1.9308e-80
-3.69476e-78
-8.89984e-76
-5.9483e-73
-3.95643e-71
-1.07697e-68
-3.3738e-67
-2.27184e-64
-1.35891e-61
-1.97215e-59
-1.68202e-58
-5.57606e-58
-1.05004e-57
-1.30874e-57
-1.16852e-57
-7.82983e-58
-4.07831e-58
-2.81543e-58
-1.28881e-57
-4.55221e-57
-9.10291e-57
-1.96671e-55
-9.86764e-54
-3.43356e-53
-5.18192e-53
-4.5273e-53
-2.5844e-53
-1.0271e-53
-2.95217e-54
-6.29042e-55
-1.58444e-140
-9.50076e-132
-4.817e-124
-2.57376e-116
-4.21379e-110
-2.02004e-102
-1.02895e-95
-3.46978e-88
-8.05563e-82
-2.70836e-79
-4.67756e-77
-1.01785e-74
-6.27142e-72
-3.8385e-70
-9.6319e-68
-2.8238e-66
-1.71328e-63
-9.75683e-61
-1.35552e-58
-1.11681e-57
-3.60375e-57
-6.63173e-57
-8.10172e-57
-7.10956e-57
-4.69372e-57
-2.41307e-57
-1.52459e-57
-6.14128e-57
-2.13363e-56
-4.24299e-56
-9.46401e-55
-4.91301e-53
-1.72502e-52
-2.62588e-52
-2.31592e-52
-1.33629e-52
-5.37552e-53
-1.56617e-53
-3.38771e-54
-2.12455e-138
-4.46095e-130
-1.96219e-122
-1.11457e-114
-1.45565e-108
-5.48465e-101
-2.38228e-94
-6.85615e-87
-1.25278e-80
-3.73872e-78
-5.82469e-76
-1.14456e-73
-6.50131e-71
-3.66219e-69
-8.46789e-67
-2.32327e-65
-1.27026e-62
-6.88686e-60
-9.15891e-58
-7.29081e-57
-2.29035e-56
-4.11955e-56
-4.93384e-56
-4.25614e-56
-2.76907e-56
-1.4055e-56
-8.2018e-57
-2.88099e-56
-9.82643e-56
-1.94348e-55
-4.47639e-54
-2.40657e-52
-8.52998e-52
-1.31018e-51
-1.1669e-51
-6.80784e-52
-2.77289e-52
-8.19176e-53
-1.79928e-53
-2.21588e-136
-1.95633e-128
-7.82696e-121
-4.75861e-113
-4.96283e-107
-1.47403e-99
-5.44426e-93
-1.33419e-85
-1.9174e-79
-5.07806e-77
-7.13269e-75
-1.26518e-72
-6.62511e-70
-3.43509e-68
-7.31607e-66
-1.87845e-64
-9.25652e-62
-4.77749e-59
-6.0817e-57
-4.67826e-56
-1.43098e-55
-2.51616e-55
-2.95488e-55
-2.50622e-55
-1.60718e-55
-8.05596e-56
-4.3805e-56
-1.3308e-55
-4.44545e-55
-8.74484e-55
-2.0804e-53
-1.15939e-51
-4.15027e-51
-6.43472e-51
-5.78954e-51
-3.41636e-51
-1.40938e-51
-4.22307e-52
-9.42171e-53
-1.68702e-134
-8.08681e-127
-3.05495e-119
-2.00377e-111
-1.67e-105
-3.92477e-98
-1.22835e-91
-2.55663e-84
-2.8875e-78
-6.78451e-76
-8.58672e-74
-1.37426e-71
-6.63416e-69
-3.16667e-67
-6.20953e-65
-1.49202e-63
-6.62717e-61
-3.256e-58
-3.96725e-56
-2.94952e-55
-8.7862e-55
-1.51058e-54
-1.73979e-54
-1.45113e-54
-9.17417e-55
-4.54235e-55
-2.32075e-55
-6.05472e-55
-1.97488e-54
-3.86389e-54
-9.49669e-53
-5.49152e-51
-1.98628e-50
-3.10984e-50
-2.82762e-50
-1.68824e-50
-7.05632e-51
-2.1452e-51
-4.86266e-52
-1.09545e-132
-3.17452e-125
-1.16164e-117
-8.31834e-110
-5.54584e-104
-1.03596e-96
-2.73614e-90
-4.82272e-83
-4.27749e-77
-8.91418e-75
-1.01598e-72
-1.46648e-70
-6.52616e-68
-2.86822e-66
-5.17589e-64
-1.16382e-62
-4.66003e-60
-2.17933e-57
-2.54146e-55
-1.82652e-54
-5.29969e-54
-8.91068e-54
-1.0067e-53
-8.25902e-54
-5.14855e-54
-2.51863e-54
-1.2184e-54
-2.71427e-54
-8.61248e-54
-1.67583e-53
-4.25635e-52
-2.55644e-50
-9.3474e-50
-1.47848e-49
-1.35903e-49
-8.21271e-50
-3.47898e-50
-1.0734e-50
-2.47285e-51
-6.17212e-131
-1.19414e-123
-4.27351e-116
-3.4042e-108
-1.8179e-102
-2.714e-95
-6.01964e-89
-8.95485e-82
-6.23179e-76
-1.15152e-73
-1.18111e-71
-1.53677e-69
-6.30439e-67
-2.55158e-65
-4.23534e-63
-8.91183e-62
-3.21704e-59
-1.43201e-56
-1.59822e-54
-1.11055e-53
-3.13918e-53
-5.16274e-53
-5.7226e-53
-4.61871e-53
-2.83961e-53
-1.37277e-53
-6.33196e-54
-1.19954e-53
-3.68587e-53
-7.13162e-53
-1.87226e-51
-1.16923e-49
-4.32393e-49
-6.91216e-49
-6.4258e-49
-3.9317e-49
-1.68853e-49
-5.28899e-50
-1.2387e-50
-3.0783e-129
-4.35379e-122
-1.50701e-114
-1.37334e-106
-5.88025e-101
-7.061e-94
-1.30793e-87
-1.63615e-80
-8.92528e-75
-1.46199e-72
-1.34865e-70
-1.58099e-68
-5.97855e-66
-2.22869e-64
-3.40103e-62
-6.69663e-61
-2.17954e-58
-9.23384e-56
-9.86231e-54
-6.62704e-53
-1.82527e-52
-2.93683e-52
-3.19448e-52
-2.53695e-52
-1.53856e-52
-7.35212e-53
-3.25368e-53
-5.22956e-53
-1.54753e-52
-2.97656e-52
-8.07932e-51
-5.25192e-49
-1.96537e-48
-3.17672e-48
-2.98788e-48
-1.8517e-48
-8.06508e-49
-2.56543e-49
-6.10989e-50
-1.38817e-127
-1.55711e-120
-5.04103e-113
-5.46032e-105
-1.87712e-99
-1.82658e-92
-2.80737e-86
-2.94048e-79
-1.25656e-73
-1.82399e-71
-1.51214e-69
-1.59616e-67
-5.56349e-65
-1.91059e-63
-2.67902e-61
-4.936e-60
-1.44853e-57
-5.84044e-55
-5.96925e-53
-3.87959e-52
-1.04137e-51
-1.63955e-51
-1.75042e-51
-1.36812e-51
-8.18606e-52
-3.86741e-52
-1.65117e-52
-2.25085e-52
-6.37228e-52
-1.21792e-51
-3.41878e-50
-2.31587e-48
-8.77442e-48
-1.43467e-47
-1.36578e-47
-8.57637e-48
-3.78966e-48
-1.22455e-48
-2.96659e-49
-5.71426e-126
-5.49695e-119
-1.5819e-111
-2.13936e-103
-5.91237e-98
-4.70083e-91
-5.95452e-85
-5.198e-78
-1.73807e-72
-2.23513e-70
-1.66412e-68
-1.5808e-66
-5.07831e-64
-1.60693e-62
-2.0692e-60
-3.56731e-59
-9.43956e-57
-3.62197e-54
-3.54217e-52
-2.22714e-51
-5.82712e-51
-8.97903e-51
-9.41084e-51
-7.24042e-51
-4.2751e-51
-1.99723e-51
-8.26573e-52
-9.57313e-52
-2.5727e-51
-4.88307e-51
-1.41793e-49
-1.00208e-47
-3.84618e-47
-6.36451e-47
-6.13508e-47
-3.90501e-47
-1.75117e-47
-5.75e-48
-1.41737e-48
-2.17472e-124
-1.90473e-117
-4.604e-110
-8.25801e-102
-1.83739e-96
-1.20461e-89
-1.24827e-83
-9.03434e-77
-2.36133e-71
-2.68945e-69
-1.79688e-67
-1.53512e-65
-4.54488e-63
-1.3254e-61
-1.56637e-59
-2.5267e-58
-6.02887e-56
-2.20127e-53
-2.05978e-51
-1.25314e-50
-3.19651e-50
-4.82161e-50
-4.96203e-50
-3.75866e-50
-2.19042e-50
-1.01212e-50
-4.07708e-51
-4.02731e-51
-1.01816e-50
-1.91749e-50
-5.76122e-49
-4.25301e-47
-1.65461e-46
-2.77231e-46
-2.70714e-46
-1.74728e-46
-7.95481e-47
-2.65507e-47
-6.66125e-48
-7.88798e-123
-6.35097e-116
-1.22796e-108
-3.13971e-100
-5.63286e-95
-3.0749e-88
-2.58676e-82
-1.54329e-75
-3.14974e-70
-3.17638e-68
-1.90293e-66
-1.46114e-64
-3.98623e-62
-1.07161e-60
-1.16158e-58
-1.75312e-57
-3.77195e-55
-1.31044e-52
-1.17317e-50
-6.90765e-50
-1.71814e-49
-2.53747e-49
-2.56463e-49