/*--------------------------------*- C++ -*----------------------------------*\
| =========                 |                                                 |
| \\      /  F ield         | OpenFOAM: The Open Source CFD Toolbox           |
|  \\    /   O peration     | Version:  v2012                                 |
|   \\  /    A nd           | Website:  www.openfoam.com                      |
|    \\/     M anipulation  |                                                 |
\*---------------------------------------------------------------------------*/
FoamFile
{
    version     2.0;
    format      ascii;
    class       volVectorField;
    location    "0.05";
    object      U;
}
// * * * * * * * * * * * * * * * * * * * * * * * * * * * * * * * * * * * * * //

dimensions      [0 1 -1 0 0 0 0];


internalField   nonuniform List<vector> 
20000
(
(-5.28032e-10 -2.26913e-07 4.72622e-12)
(2.68535e-09 -1.60374e-06 -2.32123e-11)
(-1.37789e-09 -4.47575e-06 1.23364e-11)
(-6.99382e-09 -8.98046e-06 6.15705e-11)
(9.56234e-09 -1.52701e-05 -8.26671e-11)
(3.45759e-08 -2.3453e-05 -3.00898e-10)
(5.3573e-08 -3.36819e-05 -4.66499e-10)
(8.7439e-08 -4.61004e-05 -7.61856e-10)
(1.40279e-07 -6.08478e-05 -1.22291e-09)
(2.0578e-07 -7.80692e-05 -1.79462e-09)
(2.85494e-07 -9.79098e-05 -2.49016e-09)
(3.86808e-07 -0.00012052 -3.37414e-09)
(5.11167e-07 -0.000146044 -4.45917e-09)
(6.60882e-07 -0.000174633 -5.76548e-09)
(8.40141e-07 -0.000206429 -7.32967e-09)
(1.0512e-06 -0.000241577 -9.17128e-09)
(1.2988e-06 -0.000280215 -1.13315e-08)
(1.58765e-06 -0.000322475 -1.38518e-08)
(1.92213e-06 -0.000368483 -1.6771e-08)
(2.30937e-06 -0.000418355 -2.01503e-08)
(2.7543e-06 -0.000472184 -2.4032e-08)
(3.25962e-06 -0.000530061 -2.84407e-08)
(3.82989e-06 -0.000592064 -3.34166e-08)
(4.46987e-06 -0.00065825 -3.90013e-08)
(5.18457e-06 -0.00072866 -4.52381e-08)
(5.97864e-06 -0.000803312 -5.21675e-08)
(6.85542e-06 -0.0008822 -5.98185e-08)
(7.81756e-06 -0.000965292 -6.82143e-08)
(8.86675e-06 -0.00105253 -7.73698e-08)
(1.00032e-05 -0.00114384 -8.72868e-08)
(1.12257e-05 -0.00123911 -9.79552e-08)
(1.25314e-05 -0.00133819 -1.0935e-07)
(1.39152e-05 -0.00144093 -1.21427e-07)
(1.53697e-05 -0.00154714 -1.3412e-07)
(1.68843e-05 -0.00165658 -1.47338e-07)
(1.8445e-05 -0.00176902 -1.6096e-07)
(2.00342e-05 -0.00188419 -1.7483e-07)
(2.16298e-05 -0.00200178 -1.88757e-07)
(2.32053e-05 -0.00212151 -2.02511e-07)
(2.47287e-05 -0.00224302 -2.15838e-07)
(2.61625e-05 -0.00236598 -2.28359e-07)
(2.74633e-05 -0.00249006 -2.39718e-07)
(2.85813e-05 -0.00261487 -2.49482e-07)
(2.94604e-05 -0.00274005 -2.57163e-07)
(3.00384e-05 -0.00286515 -2.62216e-07)
(3.02482e-05 -0.00298968 -2.64056e-07)
(3.00186e-05 -0.00311297 -2.62063e-07)
(2.92785e-05 -0.00323404 -2.55615e-07)
(2.79618e-05 -0.00335137 -2.44135e-07)
(2.60168e-05 -0.00346246 -2.2717e-07)
(2.3418e-05 -0.00356328 -2.04498e-07)
(2.0184e-05 -0.00364723 -1.76278e-07)
(1.63981e-05 -0.00370391 -1.43237e-07)
(1.22301e-05 -0.00371737 -1.06852e-07)
(7.95116e-06 -0.00366397 -6.94914e-08)
(3.94167e-06 -0.0035101 -3.44731e-08)
(6.53998e-07 -0.00321004 -5.74828e-09)
(-1.41661e-06 -0.00270461 1.23587e-08)
(-1.95736e-06 -0.00192122 1.71077e-08)
(-6.78059e-07 -0.000777049 6.2061e-09)
(3.63519e-10 -2.28801e-07 -3.10409e-12)
(5.29842e-09 -1.61631e-06 -4.60074e-11)
(1.20471e-08 -4.51205e-06 -1.04896e-10)
(-1.10417e-08 -9.03466e-06 9.67873e-11)
(-1.96514e-08 -1.53356e-05 1.72202e-10)
(1.29196e-08 -2.35448e-05 -1.11864e-10)
(3.50263e-08 -3.38098e-05 -3.04704e-10)
(6.93031e-08 -4.62614e-05 -6.03474e-10)
(1.18694e-07 -6.10481e-05 -1.03414e-09)
(1.87487e-07 -7.83156e-05 -1.63488e-09)
(2.7427e-07 -9.82008e-05 -2.39245e-09)
(3.80335e-07 -0.000120861 -3.31758e-09)
(5.11585e-07 -0.000146436 -4.4628e-09)
(6.66803e-07 -0.00017508 -5.8174e-09)
(8.53011e-07 -0.000206935 -7.44243e-09)
(1.07063e-06 -0.000242146 -9.34089e-09)
(1.32701e-06 -0.000280849 -1.15777e-08)
(1.62412e-06 -0.000323176 -1.41712e-08)
(1.9667e-06 -0.000369251 -1.7162e-08)
(2.36798e-06 -0.000419186 -2.06639e-08)
(2.83123e-06 -0.00047308 -2.47051e-08)
(3.35273e-06 -0.000531024 -2.92547e-08)
(3.93776e-06 -0.000593094 -3.43598e-08)
(4.59186e-06 -0.000659345 -4.00683e-08)
(5.32116e-06 -0.000729816 -4.64332e-08)
(6.13148e-06 -0.000804524 -5.3505e-08)
(7.02622e-06 -0.000883463 -6.13132e-08)
(8.00789e-06 -0.000966599 -6.98796e-08)
(9.07754e-06 -0.00105388 -7.92138e-08)
(1.02346e-05 -0.00114521 -8.93109e-08)
(1.14774e-05 -0.00124049 -1.00157e-07)
(1.28028e-05 -0.00133958 -1.11723e-07)
(1.42059e-05 -0.00144232 -1.23968e-07)
(1.56792e-05 -0.0015485 -1.36826e-07)
(1.72122e-05 -0.0016579 -1.50205e-07)
(1.87909e-05 -0.00177028 -1.63982e-07)
(2.03971e-05 -0.00188537 -1.78e-07)
(2.20084e-05 -0.00200287 -1.92063e-07)
(2.35983e-05 -0.00212247 -2.05941e-07)
(2.51345e-05 -0.00224383 -2.19379e-07)
(2.65792e-05 -0.00236663 -2.31993e-07)
(2.78886e-05 -0.0024905 -2.43425e-07)
(2.90126e-05 -0.0026151 -2.53238e-07)
(2.98946e-05 -0.00274003 -2.60942e-07)
(3.04721e-05 -0.00286485 -2.65988e-07)
(3.06774e-05 -0.00298908 -2.67785e-07)
(3.04386e-05 -0.00311205 -2.65708e-07)
(2.96842e-05 -0.00323279 -2.59132e-07)
(2.83476e-05 -0.00334977 -2.47475e-07)
(2.63767e-05 -0.00346052 -2.30284e-07)
(2.37461e-05 -0.00356103 -2.07333e-07)
(2.04738e-05 -0.00364472 -1.78782e-07)
(1.66433e-05 -0.00370122 -1.45355e-07)
(1.24246e-05 -0.00371464 -1.08537e-07)
(8.09041e-06 -0.00366135 -7.07059e-08)
(4.02478e-06 -0.00350779 -3.52111e-08)
(6.84318e-07 -0.00320824 -6.03822e-09)
(-1.42327e-06 -0.00270348 1.23833e-08)
(-1.9811e-06 -0.00192086 1.72944e-08)
(-6.60937e-07 -0.000777269 6.21236e-09)
(-5.35857e-10 -2.28524e-07 4.76451e-12)
(6.18542e-09 -1.61503e-06 -5.39013e-11)
(1.50119e-08 -4.50444e-06 -1.30895e-10)
(3.001e-09 -9.02866e-06 -2.59954e-11)
(-6.6693e-09 -1.53394e-05 5.84978e-11)
(3.40446e-09 -2.35515e-05 -2.91078e-11)
(1.26757e-08 -3.38283e-05 -1.09805e-10)
(4.8758e-08 -4.62935e-05 -4.24351e-10)
(9.87463e-08 -6.10978e-05 -8.60223e-10)
(1.74465e-07 -7.83822e-05 -1.5212e-09)
(2.66314e-07 -9.82871e-05 -2.32286e-09)
(3.75469e-07 -0.000120973 -3.27489e-09)
(5.11338e-07 -0.000146581 -4.46016e-09)
(6.69422e-07 -0.000175262 -5.84001e-09)
(8.60153e-07 -0.000207159 -7.50458e-09)
(1.08214e-06 -0.000242416 -9.44085e-09)
(1.34495e-06 -0.000281172 -1.17339e-08)
(1.651e-06 -0.000323556 -1.44055e-08)
(2.00658e-06 -0.00036969 -1.75094e-08)
(2.42245e-06 -0.000419689 -2.11382e-08)
(2.89993e-06 -0.000473654 -2.53037e-08)
(3.43848e-06 -0.000531676 -3.00023e-08)
(4.0438e-06 -0.000593829 -3.52845e-08)
(4.72046e-06 -0.000660166 -4.11901e-08)
(5.47471e-06 -0.000730728 -4.77732e-08)
(6.3131e-06 -0.000805528 -5.50903e-08)
(7.23905e-06 -0.000884561 -6.31711e-08)
(8.25496e-06 -0.000967793 -7.20366e-08)
(9.36147e-06 -0.00105517 -8.16927e-08)
(1.05572e-05 -0.00114659 -9.21279e-08)
(1.184e-05 -0.00124197 -1.03323e-07)
(1.32063e-05 -0.00134114 -1.15247e-07)
(1.4651e-05 -0.00144396 -1.27856e-07)
(1.61665e-05 -0.00155021 -1.41083e-07)
(1.77422e-05 -0.00165967 -1.54834e-07)
(1.93634e-05 -0.0017721 -1.68984e-07)
(2.10112e-05 -0.00188723 -1.83366e-07)
(2.26625e-05 -0.00200474 -1.97778e-07)
(2.42902e-05 -0.00212434 -2.11986e-07)
(2.58616e-05 -0.00224569 -2.25733e-07)
(2.73379e-05 -0.00236844 -2.38623e-07)
(2.86743e-05 -0.00249224 -2.50292e-07)
(2.98201e-05 -0.00261674 -2.60296e-07)
(3.07179e-05 -0.00274154 -2.68137e-07)
(3.13042e-05 -0.00286621 -2.7326e-07)
(3.15104e-05 -0.00299025 -2.75066e-07)
(3.1264e-05 -0.00311301 -2.72922e-07)
(3.04926e-05 -0.0032335 -2.66197e-07)
(2.91294e-05 -0.00335021 -2.54306e-07)
(2.71223e-05 -0.00346069 -2.36795e-07)
(2.44459e-05 -0.00356091 -2.13443e-07)
(2.11186e-05 -0.00364434 -1.84408e-07)
(1.72241e-05 -0.00370063 -1.50419e-07)
(1.2933e-05 -0.00371389 -1.12965e-07)
(8.51902e-06 -0.00366057 -7.44326e-08)
(4.36959e-06 -0.00350709 -3.82022e-08)
(9.45059e-07 -0.00320775 -8.29219e-09)
(-1.23438e-06 -0.00270333 1.0759e-08)
(-1.84953e-06 -0.00192112 1.61764e-08)
(-5.97867e-07 -0.000777703 5.74087e-09)
(9.02495e-11 -2.27248e-07 -7.53234e-13)
(1.30425e-08 -1.6209e-06 -1.13676e-10)
(2.9403e-08 -4.52188e-06 -2.5644e-10)
(-1.9656e-08 -9.06722e-06 1.71791e-10)
(-4.07341e-08 -1.54052e-05 3.55876e-10)
(-6.28299e-09 -2.36476e-05 5.54345e-11)
(3.16584e-09 -3.39497e-05 -2.68894e-11)
(4.80005e-08 -4.64418e-05 -4.17966e-10)
(1.0289e-07 -6.12723e-05 -8.97043e-10)
(1.91646e-07 -7.85839e-05 -1.67105e-09)
(2.89385e-07 -9.85212e-05 -2.52332e-09)
(3.98276e-07 -0.000121241 -3.47387e-09)
(5.40876e-07 -0.000146887 -4.71805e-09)
(7.06534e-07 -0.000175608 -6.16371e-09)
(9.05822e-07 -0.000207549 -7.90302e-09)
(1.13628e-06 -0.000242854 -9.91347e-09)
(1.40974e-06 -0.000281661 -1.22995e-08)
(1.73027e-06 -0.000324098 -1.50971e-08)
(2.1021e-06 -0.000370288 -1.83421e-08)
(2.53646e-06 -0.000420345 -2.21323e-08)
(3.03501e-06 -0.00047437 -2.64821e-08)
(3.59721e-06 -0.000532454 -3.13871e-08)
(4.22943e-06 -0.000594669 -3.69038e-08)
(4.93541e-06 -0.00066107 -4.30651e-08)
(5.72192e-06 -0.000731695 -4.99297e-08)
(6.59652e-06 -0.000806559 -5.75628e-08)
(7.56277e-06 -0.000885655 -6.59952e-08)
(8.62303e-06 -0.000968948 -7.52474e-08)
(9.77757e-06 -0.00105638 -8.53224e-08)
(1.10243e-05 -0.00114787 -9.62025e-08)
(1.23606e-05 -0.00124329 -1.07864e-07)
(1.37824e-05 -0.00134251 -1.20273e-07)
(1.52843e-05 -0.00144537 -1.3338e-07)
(1.68586e-05 -0.00155165 -1.4712e-07)
(1.8494e-05 -0.00166114 -1.61393e-07)
(2.01753e-05 -0.00177358 -1.76067e-07)
(2.18825e-05 -0.00188871 -1.90967e-07)
(2.35916e-05 -0.00200621 -2.05884e-07)
(2.52744e-05 -0.00212578 -2.20574e-07)
(2.68974e-05 -0.00224707 -2.34773e-07)
(2.84205e-05 -0.00236975 -2.48071e-07)
(2.97975e-05 -0.00249347 -2.60095e-07)
(3.09763e-05 -0.00261785 -2.70388e-07)
(3.18986e-05 -0.00274251 -2.78443e-07)
(3.24996e-05 -0.00286701 -2.83694e-07)
(3.27094e-05 -0.00299087 -2.85532e-07)
(3.24546e-05 -0.00311341 -2.83315e-07)
(3.1662e-05 -0.00323366 -2.76406e-07)
(3.02645e-05 -0.00335012 -2.64216e-07)
(2.82102e-05 -0.00346034 -2.46295e-07)
(2.54741e-05 -0.0035603 -2.22422e-07)
(2.20751e-05 -0.0036435 -1.92762e-07)
(1.80974e-05 -0.0036996 -1.58048e-07)
(1.37123e-05 -0.00371276 -1.19773e-07)
(9.19416e-06 -0.00365943 -8.03309e-08)
(4.93329e-06 -0.00350609 -4.31274e-08)
(1.39281e-06 -0.00320702 -1.22047e-08)
(-8.97648e-07 -0.00270298 7.81575e-09)
(-1.62038e-06 -0.00192121 1.41711e-08)
(-5.3125e-07 -0.000778035 5.09675e-09)
(-9.44979e-09 -2.26952e-07 8.2566e-11)
(-8.59315e-09 -1.60786e-06 7.5037e-11)
(2.44133e-08 -4.53745e-06 -2.13125e-10)
(-1.94564e-08 -9.11224e-06 1.69989e-10)
(-3.49731e-08 -1.54349e-05 3.0543e-10)
(-7.03598e-09 -2.36925e-05 6.1859e-11)
(3.7681e-09 -3.40048e-05 -3.22299e-11)
(5.31929e-08 -4.6508e-05 -4.63448e-10)
(1.12678e-07 -6.13563e-05 -9.82726e-10)
(2.05217e-07 -7.86894e-05 -1.78973e-09)
(3.06042e-07 -9.8665e-05 -2.6689e-09)
(4.19184e-07 -0.000121418 -3.65659e-09)
(5.66672e-07 -0.000147104 -4.94348e-09)
(7.38121e-07 -0.00017587 -6.43946e-09)
(9.44718e-07 -0.00020786 -8.24237e-09)
(1.18408e-06 -0.000243219 -1.03307e-08)
(1.47052e-06 -0.000282085 -1.283e-08)
(1.80883e-06 -0.000324585 -1.57828e-08)
(2.20269e-06 -0.000370843 -1.922e-08)
(2.66154e-06 -0.000420971 -2.32239e-08)
(3.18748e-06 -0.000475071 -2.78127e-08)
(3.78148e-06 -0.000533231 -3.2995e-08)
(4.4496e-06 -0.000595523 -3.88249e-08)
(5.19545e-06 -0.000662002 -4.53344e-08)
(6.02593e-06 -0.000732706 -5.25829e-08)
(6.94923e-06 -0.000807648 -6.06411e-08)
(7.96902e-06 -0.00088682 -6.95407e-08)
(9.08761e-06 -0.000970187 -7.93019e-08)
(1.0305e-05 -0.00105769 -8.99248e-08)
(1.16183e-05 -0.00114924 -1.01386e-07)
(1.30244e-05 -0.00124472 -1.13657e-07)
(1.45189e-05 -0.001344 -1.26699e-07)
(1.60957e-05 -0.0014469 -1.40461e-07)
(1.77467e-05 -0.00155321 -1.5487e-07)
(1.94602e-05 -0.00166272 -1.69825e-07)
(2.12199e-05 -0.00177517 -1.85183e-07)
(2.30049e-05 -0.00189028 -2.00762e-07)
(2.47894e-05 -0.00200776 -2.16338e-07)
(2.65445e-05 -0.00212729 -2.31658e-07)
(2.82351e-05 -0.00224851 -2.46448e-07)
(2.98195e-05 -0.00237111 -2.60282e-07)
(3.12498e-05 -0.00249471 -2.7277e-07)
(3.24723e-05 -0.00261896 -2.83445e-07)
(3.3427e-05 -0.00274347 -2.91783e-07)
(3.40475e-05 -0.00286778 -2.97205e-07)
(3.42627e-05 -0.00299143 -2.9909e-07)
(3.39977e-05 -0.00311373 -2.96785e-07)
(3.31787e-05 -0.00323373 -2.89645e-07)
(3.17382e-05 -0.00334992 -2.77081e-07)
(2.96246e-05 -0.00345985 -2.58643e-07)
(2.68135e-05 -0.00355955 -2.34115e-07)
(2.33244e-05 -0.0036425 -2.03669e-07)
(1.92421e-05 -0.00369842 -1.68043e-07)
(1.47388e-05 -0.00371147 -1.28737e-07)
(1.00892e-05 -0.00365814 -8.81485e-08)
(5.68608e-06 -0.00350494 -4.97034e-08)
(1.99421e-06 -0.00320615 -1.74598e-08)
(-4.50543e-07 -0.00270252 3.90675e-09)
(-1.33357e-06 -0.00192122 1.1658e-08)
(-4.62669e-07 -0.000778298 4.41952e-09)
(-2.79132e-09 -2.29882e-07 2.44038e-11)
(-3.07581e-08 -1.61299e-06 2.68544e-10)
(-4.97649e-08 -4.54505e-06 4.34247e-10)
(-2.89602e-09 -9.12307e-06 2.52583e-11)
(8.22494e-09 -1.54748e-05 -7.12677e-11)
(8.79509e-09 -2.37544e-05 -7.62021e-11)
(3.41728e-08 -3.40955e-05 -2.97624e-10)
(8.6908e-08 -4.66267e-05 -7.57838e-10)
(1.42221e-07 -6.15038e-05 -1.24053e-09)
(2.30864e-07 -7.88648e-05 -2.01386e-09)
(3.31694e-07 -9.88775e-05 -2.89352e-09)
(4.55926e-07 -0.000121665 -3.97754e-09)
(6.08926e-07 -0.000147395 -5.31252e-09)
(7.89897e-07 -0.000176205 -6.8916e-09)
(1.00584e-06 -0.000208247 -8.77582e-09)
(1.25658e-06 -0.00024366 -1.09636e-08)
(1.55778e-06 -0.000282583 -1.35918e-08)
(1.91561e-06 -0.000325144 -1.67147e-08)
(2.33196e-06 -0.000371468 -2.03481e-08)
(2.81891e-06 -0.000421665 -2.45972e-08)
(3.37827e-06 -0.000475836 -2.94776e-08)
(4.00927e-06 -0.000534069 -3.49828e-08)
(4.71892e-06 -0.000596437 -4.1175e-08)
(5.51077e-06 -0.000662994 -4.80859e-08)
(6.39231e-06 -0.000733777 -5.578e-08)
(7.3726e-06 -0.000808797 -6.43357e-08)
(8.45545e-06 -0.000888047 -7.37857e-08)
(9.64311e-06 -0.00097149 -8.41495e-08)
(1.09352e-05 -0.00105907 -9.54243e-08)
(1.23282e-05 -0.00115069 -1.07581e-07)
(1.38184e-05 -0.00124623 -1.20586e-07)
(1.54007e-05 -0.00134556 -1.34395e-07)
(1.70686e-05 -0.00144851 -1.48951e-07)
(1.88133e-05 -0.00155486 -1.64178e-07)
(2.06222e-05 -0.00166439 -1.79966e-07)
(2.24781e-05 -0.00177685 -1.96164e-07)
(2.43583e-05 -0.00189196 -2.12574e-07)
(2.62359e-05 -0.00200941 -2.28961e-07)
(2.808e-05 -0.00212889 -2.45058e-07)
(2.98541e-05 -0.00225005 -2.60579e-07)
(3.15144e-05 -0.00237255 -2.75076e-07)
(3.30108e-05 -0.00249604 -2.88142e-07)
(3.42878e-05 -0.00262015 -2.99293e-07)
(3.52833e-05 -0.00274449 -3.07987e-07)
(3.5929e-05 -0.00286861 -3.13629e-07)
(3.6152e-05 -0.00299204 -3.15581e-07)
(3.58759e-05 -0.0031141 -3.1318e-07)
(3.50261e-05 -0.00323383 -3.05771e-07)
(3.35346e-05 -0.00334974 -2.92762e-07)
(3.13501e-05 -0.00345938 -2.73705e-07)
(2.84487e-05 -0.0035588 -2.48391e-07)
(2.48511e-05 -0.0036415 -2.16998e-07)
(2.06426e-05 -0.00369721 -1.8027e-07)
(1.5996e-05 -0.00371015 -1.39714e-07)
(1.11866e-05 -0.00365682 -9.77309e-08)
(6.60869e-06 -0.00350375 -5.77605e-08)
(2.72809e-06 -0.00320524 -2.38697e-08)
(8.44635e-08 -0.00270202 -7.67729e-10)
(-1.0095e-06 -0.00192117 8.82143e-09)
(-3.94322e-07 -0.000778512 3.74798e-09)
(-3.37825e-09 -2.30617e-07 2.95523e-11)
(-2.52758e-08 -1.62925e-06 2.20562e-10)
(-4.19053e-08 -4.4947e-06 3.65539e-10)
(-2.29148e-08 -9.01853e-06 1.99974e-10)
(-2.36121e-08 -1.54456e-05 2.06496e-10)
(-3.50807e-09 -2.37782e-05 3.10835e-11)
(2.76924e-08 -3.41168e-05 -2.41287e-10)
(9.78712e-08 -4.67029e-05 -8.53782e-10)
(1.6731e-07 -6.16012e-05 -1.45989e-09)
(2.58509e-07 -7.89918e-05 -2.25562e-09)
(3.62786e-07 -9.90437e-05 -3.16531e-09)
(4.94175e-07 -0.00012187 -4.31187e-09)
(6.49479e-07 -0.000147654 -5.66703e-09)
(8.40848e-07 -0.000176518 -7.33662e-09)
(1.06637e-06 -0.00020862 -9.30441e-09)
(1.33092e-06 -0.000244096 -1.16125e-08)
(1.64984e-06 -0.000283086 -1.43951e-08)
(2.03089e-06 -0.000325718 -1.77209e-08)
(2.47569e-06 -0.000372116 -2.16032e-08)
(2.99593e-06 -0.00042239 -2.61425e-08)
(3.59261e-06 -0.00047664 -3.1348e-08)
(4.26623e-06 -0.000534955 -3.72249e-08)
(5.02391e-06 -0.000597406 -4.38363e-08)
(5.86952e-06 -0.000664048 -5.12165e-08)
(6.81083e-06 -0.000734915 -5.94324e-08)
(7.85758e-06 -0.000810021 -6.85681e-08)
(9.0137e-06 -0.000889354 -7.86574e-08)
(1.02814e-05 -0.000972877 -8.97198e-08)
(1.166e-05 -0.00106053 -1.0175e-07)
(1.31454e-05 -0.00115222 -1.14713e-07)
(1.47333e-05 -0.00124784 -1.2857e-07)
(1.6418e-05 -0.00134722 -1.43272e-07)
(1.81921e-05 -0.00145022 -1.58756e-07)
(2.00464e-05 -0.00155661 -1.74939e-07)
(2.19671e-05 -0.00166616 -1.91702e-07)
(2.39356e-05 -0.00177863 -2.08884e-07)
(2.59278e-05 -0.00189372 -2.26271e-07)
(2.79146e-05 -0.00201115 -2.43612e-07)
(2.98638e-05 -0.00213058 -2.60626e-07)
(3.17365e-05 -0.00225167 -2.7701e-07)
(3.34867e-05 -0.00237408 -2.92292e-07)
(3.50617e-05 -0.00249745 -3.06045e-07)
(3.64037e-05 -0.00262141 -3.17763e-07)
(3.74483e-05 -0.00274558 -3.26886e-07)
(3.81249e-05 -0.0028695 -3.32797e-07)
(3.83584e-05 -0.00299269 -3.34842e-07)
(3.80708e-05 -0.0031145 -3.3234e-07)
(3.71863e-05 -0.00323395 -3.24629e-07)
(3.56364e-05 -0.00334957 -3.11111e-07)
(3.337e-05 -0.00345892 -2.91339e-07)
(3.03639e-05 -0.00355805 -2.65111e-07)
(2.66395e-05 -0.00364049 -2.32612e-07)
(2.22831e-05 -0.003696 -1.94593e-07)
(1.74682e-05 -0.00370881 -1.52568e-07)
(1.247e-05 -0.00365547 -1.08938e-07)
(7.68418e-06 -0.00350252 -6.71524e-08)
(3.57692e-06 -0.00320429 -3.12832e-08)
(6.90542e-07 -0.00270146 -6.06257e-09)
(-6.60882e-07 -0.00192105 5.77063e-09)
(-3.28786e-07 -0.000778674 3.10125e-09)
(-2.78505e-09 -2.31471e-07 2.43127e-11)
(1.9825e-08 -1.63433e-06 -1.7285e-10)
(2.55727e-08 -4.50393e-06 -2.22932e-10)
(-1.67485e-07 -9.03061e-06 1.46094e-09)
(-2.78535e-07 -1.54468e-05 2.42925e-09)
(-6.61435e-08 -2.37856e-05 5.77749e-10)
(2.39506e-08 -3.41349e-05 -2.06891e-10)
(7.83632e-08 -4.67401e-05 -6.83442e-10)
(2.07765e-07 -6.16809e-05 -1.8136e-09)
(2.81743e-07 -7.91281e-05 -2.45887e-09)
(3.87279e-07 -9.92263e-05 -3.37925e-09)
(5.26526e-07 -0.000122108 -4.59424e-09)
(6.8364e-07 -0.000147951 -5.96496e-09)
(8.91884e-07 -0.000176871 -7.78202e-09)
(1.13029e-06 -0.000209037 -9.86239e-09)
(1.41383e-06 -0.000244579 -1.2336e-08)
(1.75383e-06 -0.000283639 -1.53026e-08)
(2.16138e-06 -0.000326343 -1.88598e-08)
(2.63623e-06 -0.000372817 -2.30044e-08)
(3.1937e-06 -0.000423172 -2.78685e-08)
(3.83388e-06 -0.000477505 -3.34535e-08)
(4.55544e-06 -0.000535905 -3.97486e-08)
(5.36651e-06 -0.000598445 -4.68259e-08)
(6.27168e-06 -0.000665176 -5.47259e-08)
(7.27947e-06 -0.000736133 -6.35221e-08)
(8.40045e-06 -0.000811328 -7.33056e-08)
(9.6387e-06 -0.00089075 -8.41116e-08)
(1.09964e-05 -0.00097436 -9.59589e-08)
(1.24724e-05 -0.00106209 -1.08839e-07)
(1.40621e-05 -0.00115386 -1.22712e-07)
(1.57606e-05 -0.00124955 -1.37535e-07)
(1.75613e-05 -0.001349 -1.5325e-07)
(1.94563e-05 -0.00145204 -1.69788e-07)
(2.14352e-05 -0.00155847 -1.87059e-07)
(2.34833e-05 -0.00166805 -2.04934e-07)
(2.55804e-05 -0.00178052 -2.23237e-07)
(2.77004e-05 -0.0018956 -2.4174e-07)
(2.98123e-05 -0.00201299 -2.60173e-07)
(3.18818e-05 -0.00213237 -2.78237e-07)
(3.38677e-05 -0.00225338 -2.95612e-07)
(3.57212e-05 -0.00237569 -3.11797e-07)
(3.7387e-05 -0.00249894 -3.26342e-07)
(3.88043e-05 -0.00262274 -3.38718e-07)
(3.99061e-05 -0.00274672 -3.4834e-07)
(4.06192e-05 -0.00287043 -3.5457e-07)
(4.08661e-05 -0.00299339 -3.56732e-07)
(4.05668e-05 -0.00311493 -3.54128e-07)
(3.96439e-05 -0.0032341 -3.46083e-07)
(3.80286e-05 -0.00334941 -3.31994e-07)
(3.56696e-05 -0.00345846 -3.11415e-07)
(3.25444e-05 -0.00355728 -2.84148e-07)
(2.86752e-05 -0.00363945 -2.50385e-07)
(2.41492e-05 -0.00369474 -2.10887e-07)
(1.91404e-05 -0.00370742 -1.67169e-07)
(1.39242e-05 -0.00365406 -1.21635e-07)
(8.89684e-06 -0.00350123 -7.77423e-08)
(4.52497e-06 -0.00320327 -3.95636e-08)
(1.35363e-06 -0.00270083 -1.18557e-08)
(-2.96982e-07 -0.00192087 2.58583e-09)
(-2.67537e-07 -0.000778781 2.49081e-09)
(-2.89646e-09 -2.31837e-07 2.53495e-11)
(3.14127e-08 -1.63887e-06 -2.74107e-10)
(4.60911e-08 -4.57516e-06 -4.02187e-10)
(-1.55866e-07 -9.15136e-06 1.35939e-09)
(-2.89413e-07 -1.54208e-05 2.52443e-09)
(-9.67458e-08 -2.37287e-05 8.4509e-10)
(-8.61766e-09 -3.41935e-05 7.68257e-11)
(2.9846e-08 -4.6873e-05 -2.60053e-10)
(1.46888e-07 -6.17709e-05 -1.28222e-09)
(2.45285e-07 -7.93213e-05 -2.14068e-09)
(3.83393e-07 -9.9427e-05 -3.34574e-09)
(5.34585e-07 -0.000122366 -4.66503e-09)
(7.11797e-07 -0.00014826 -6.21082e-09)
(9.41828e-07 -0.000177239 -8.21805e-09)
(1.19578e-06 -0.000209472 -1.04339e-08)
(1.5025e-06 -0.000245085 -1.31099e-08)
(1.86668e-06 -0.00028422 -1.62875e-08)
(2.30383e-06 -0.000327005 -2.01031e-08)
(2.81357e-06 -0.000373563 -2.45521e-08)
(3.41165e-06 -0.000424004 -2.97705e-08)
(4.09769e-06 -0.000478428 -3.57555e-08)
(4.87133e-06 -0.000536921 -4.2505e-08)
(5.74098e-06 -0.000599556 -5.00936e-08)
(6.71199e-06 -0.000666384 -5.85684e-08)
(7.79342e-06 -0.000737439 -6.80072e-08)
(8.99652e-06 -0.00081273 -7.85074e-08)
(1.03255e-05 -0.000892247 -9.01056e-08)
(1.17827e-05 -0.000975948 -1.02821e-07)
(1.33665e-05 -0.00106377 -1.16642e-07)
(1.50719e-05 -0.00115562 -1.31524e-07)
(1.68931e-05 -0.00125138 -1.47418e-07)
(1.8823e-05 -0.00135089 -1.6426e-07)
(2.08526e-05 -0.00145399 -1.81974e-07)
(2.29707e-05 -0.00156045 -2.00459e-07)
(2.51611e-05 -0.00167006 -2.19576e-07)
(2.7402e-05 -0.00178254 -2.39135e-07)
(2.96652e-05 -0.00189761 -2.58887e-07)
(3.19174e-05 -0.00201496 -2.78544e-07)
(3.41219e-05 -0.00213428 -2.97787e-07)
(3.62352e-05 -0.00225521 -3.16277e-07)
(3.82052e-05 -0.00237741 -3.33479e-07)
(3.99735e-05 -0.00250052 -3.48919e-07)
(4.14762e-05 -0.00262416 -3.6204e-07)
(4.26432e-05 -0.00274794 -3.72232e-07)
(4.33984e-05 -0.00287143 -3.7883e-07)
(4.36616e-05 -0.00299413 -3.81135e-07)
(4.33504e-05 -0.0031154 -3.78428e-07)
(4.23859e-05 -0.00323427 -3.7002e-07)
(4.06983e-05 -0.00334926 -3.553e-07)
(3.82362e-05 -0.00345799 -3.33822e-07)
(3.49777e-05 -0.0035565 -3.05391e-07)
(3.09456e-05 -0.00363839 -2.70208e-07)
(2.6228e-05 -0.00369345 -2.29037e-07)
(2.09996e-05 -0.00370599 -1.83402e-07)
(1.55355e-05 -0.0036526 -1.35705e-07)
(1.02328e-05 -0.00349988 -8.94088e-08)
(5.55872e-06 -0.00320217 -4.85927e-08)
(2.06239e-06 -0.00270013 -1.80482e-08)
(7.57005e-08 -0.0019206 -6.76214e-10)
(-2.11063e-07 -0.000778832 1.92243e-09)
(-3.24117e-09 -2.32069e-07 2.82908e-11)
(2.28179e-08 -1.64305e-06 -1.9905e-10)
(5.62202e-08 -4.59545e-06 -4.90841e-10)
(-1.10054e-08 -9.19097e-06 9.63727e-11)
(-1.83359e-07 -1.54363e-05 1.60247e-09)
(-3.02244e-07 -2.37329e-05 2.63553e-09)
(-2.8133e-07 -3.42208e-05 2.44969e-09)
(4.52987e-08 -4.69488e-05 -3.94983e-10)
(2.07006e-07 -6.18792e-05 -1.80319e-09)
(2.18192e-07 -7.94667e-05 -1.90375e-09)
(4.52713e-07 -9.96188e-05 -3.95082e-09)
(5.58929e-07 -0.000122631 -4.87801e-09)
(7.54658e-07 -0.000148584 -6.58478e-09)
(9.98035e-07 -0.000177635 -8.70877e-09)
(1.2647e-06 -0.000209941 -1.10356e-08)
(1.59692e-06 -0.00024563 -1.3934e-08)
(1.98756e-06 -0.000284846 -1.73427e-08)
(2.45718e-06 -0.000327717 -2.14412e-08)
(3.00427e-06 -0.000374363 -2.62159e-08)
(3.64653e-06 -0.000424898 -3.182e-08)
(4.38355e-06 -0.000479419 -3.825e-08)
(5.21412e-06 -0.000538013 -4.54963e-08)
(6.14757e-06 -0.00060075 -5.36416e-08)
(7.19002e-06 -0.000667682 -6.27398e-08)
(8.35133e-06 -0.00073884 -7.28759e-08)
(9.64362e-06 -0.000814235 -8.41544e-08)
(1.10714e-05 -0.000893854 -9.66141e-08)
(1.26367e-05 -0.000977653 -1.10274e-07)
(1.43382e-05 -0.00106557 -1.25121e-07)
(1.61699e-05 -0.00115751 -1.41106e-07)
(1.81256e-05 -0.00125334 -1.58173e-07)
(2.01971e-05 -0.00135293 -1.76252e-07)
(2.23746e-05 -0.00145608 -1.95256e-07)
(2.46457e-05 -0.00156258 -2.15077e-07)
(2.69928e-05 -0.00167221 -2.35561e-07)
(2.93922e-05 -0.0017847 -2.56503e-07)
(3.18133e-05 -0.00189975 -2.77634e-07)
(3.42205e-05 -0.00201707 -2.98643e-07)
(3.65744e-05 -0.00213633 -3.19191e-07)
(3.88287e-05 -0.00225717 -3.38914e-07)
(4.0928e-05 -0.00237925 -3.57245e-07)
(4.28102e-05 -0.00250221 -3.7368e-07)
(4.44081e-05 -0.00262567 -3.87633e-07)
(4.56483e-05 -0.00274925 -3.98464e-07)
(4.64511e-05 -0.00287249 -4.05478e-07)
(4.67335e-05 -0.00299493 -4.07951e-07)
(4.64105e-05 -0.0031159 -4.05141e-07)
(4.54011e-05 -0.00323446 -3.96342e-07)
(4.36345e-05 -0.00334912 -3.80933e-07)
(4.10589e-05 -0.00345751 -3.58464e-07)
(3.76527e-05 -0.0035557 -3.28745e-07)
(3.34396e-05 -0.0036373 -2.91982e-07)
(2.85083e-05 -0.00369212 -2.48946e-07)
(2.30339e-05 -0.0037045 -2.01165e-07)
(1.72919e-05 -0.00365107 -1.51042e-07)
(1.168e-05 -0.00349845 -1.02047e-07)
(6.66692e-06 -0.003201 -5.82724e-08)
(2.80796e-06 -0.00269933 -2.45627e-08)
(4.52849e-07 -0.00192024 -3.97756e-09)
(-1.59308e-07 -0.000778826 1.39637e-09)
(-4.79487e-09 -2.32713e-07 4.18768e-11)
(2.31603e-08 -1.64369e-06 -2.02159e-10)
(6.48766e-08 -4.59004e-06 -5.66519e-10)
(5.96864e-08 -9.20727e-06 -5.21064e-10)
(-9.77508e-08 -1.56452e-05 8.5456e-10)
(-3.27118e-07 -2.38811e-05 2.85276e-09)
(-3.86824e-07 -3.41206e-05 3.3727e-09)
(-6.18959e-08 -4.681e-05 5.42131e-10)
(1.33781e-07 -6.20332e-05 -1.16406e-09)
(1.60453e-07 -7.9688e-05 -1.39929e-09)
(4.03317e-07 -9.98293e-05 -3.51966e-09)
(5.26746e-07 -0.000122942 -4.59682e-09)
(7.69164e-07 -0.000148938 -6.71112e-09)
(1.03555e-06 -0.000178064 -9.03638e-09)
(1.33174e-06 -0.000210445 -1.16207e-08)
(1.69586e-06 -0.000246214 -1.47974e-08)
(2.11694e-06 -0.000285515 -1.84718e-08)
(2.62279e-06 -0.000328477 -2.28864e-08)
(3.21132e-06 -0.00037522 -2.80229e-08)
(3.90038e-06 -0.000425856 -3.40351e-08)
(4.69065e-06 -0.000480482 -4.09296e-08)
(5.58193e-06 -0.000539185 -4.87057e-08)
(6.58391e-06 -0.000602033 -5.74492e-08)
(7.7035e-06 -0.000669076 -6.72207e-08)
(8.95113e-06 -0.000740347 -7.811e-08)
(1.03396e-05 -0.000815853 -9.02285e-08)
(1.18738e-05 -0.000895581 -1.03617e-07)
(1.35561e-05 -0.000979486 -1.18297e-07)
(1.53845e-05 -0.0010675 -1.34252e-07)
(1.73529e-05 -0.00115953 -1.5143e-07)
(1.94541e-05 -0.00125545 -1.69767e-07)
(2.16794e-05 -0.00135511 -1.89187e-07)
(2.40176e-05 -0.00145832 -2.09594e-07)
(2.64551e-05 -0.00156487 -2.30867e-07)
(2.89727e-05 -0.00167452 -2.5284e-07)
(3.15447e-05 -0.00178701 -2.75288e-07)
(3.41381e-05 -0.00190205 -2.97922e-07)
(3.67144e-05 -0.00201932 -3.20408e-07)
(3.92317e-05 -0.00213851 -3.42381e-07)
(4.16402e-05 -0.00225925 -3.63455e-07)
(4.38812e-05 -0.00238121 -3.83022e-07)
(4.58886e-05 -0.00250401 -4.0055e-07)
(4.75914e-05 -0.00262728 -4.15419e-07)
(4.89124e-05 -0.00275064 -4.26956e-07)
(4.97684e-05 -0.00287363 -4.34435e-07)
(5.00728e-05 -0.00299579 -4.37101e-07)
(4.97378e-05 -0.00311645 -4.34187e-07)
(4.86803e-05 -0.00323467 -4.24968e-07)
(4.6828e-05 -0.00334899 -4.08811e-07)
(4.41285e-05 -0.00345703 -3.85261e-07)
(4.05603e-05 -0.00355488 -3.54129e-07)
(3.61477e-05 -0.00363617 -3.15626e-07)
(3.09802e-05 -0.00369074 -2.70529e-07)
(2.52335e-05 -0.00370294 -2.20371e-07)
(1.91832e-05 -0.00364946 -1.67558e-07)
(1.32284e-05 -0.00349693 -1.1557e-07)
(7.84039e-06 -0.00319972 -6.85225e-08)
(3.58361e-06 -0.00269843 -3.13402e-08)
(8.31744e-07 -0.00191979 -7.29444e-09)
(-1.11978e-07 -0.000778765 9.1055e-10)
(-2.9209e-09 -2.33369e-07 2.54582e-11)
(2.62394e-08 -1.6486e-06 -2.28987e-10)
(5.77182e-08 -4.60598e-06 -5.03875e-10)
(-3.75601e-08 -9.24847e-06 3.27375e-10)
(-4.93483e-08 -1.57247e-05 4.29758e-10)
(8.36504e-08 -2.39846e-05 -7.29264e-10)
(-2.08309e-07 -3.42452e-05 1.82248e-09)
(-4.49226e-07 -4.69691e-05 3.91735e-09)
(-3.02992e-07 -6.22267e-05 2.64018e-09)
(1.90898e-07 -7.99159e-05 -1.66526e-09)
(4.92035e-07 -0.000100105 -4.29433e-09)
(5.14469e-07 -0.000123273 -4.48913e-09)
(8.33453e-07 -0.000149331 -7.27011e-09)
(1.08952e-06 -0.000178529 -9.5076e-09)
(1.41325e-06 -0.000210988 -1.23321e-08)
(1.80573e-06 -0.000246841 -1.57563e-08)
(2.25599e-06 -0.000286234 -1.96853e-08)
(2.79915e-06 -0.000329293 -2.44253e-08)
(3.43091e-06 -0.000376139 -2.99391e-08)
(4.16991e-06 -0.000426884 -3.63871e-08)
(5.0179e-06 -0.000481623 -4.37853e-08)
(5.97483e-06 -0.000540443 -5.21342e-08)
(7.05083e-06 -0.00060341 -6.15236e-08)
(8.25316e-06 -0.000670574 -7.20171e-08)
(9.59306e-06 -0.000741966 -8.37118e-08)
(1.10844e-05 -0.000817592 -9.67276e-08)
(1.27324e-05 -0.000897437 -1.11109e-07)
(1.45396e-05 -0.000981456 -1.2688e-07)
(1.65041e-05 -0.00106958 -1.44023e-07)
(1.86191e-05 -0.00116171 -1.62479e-07)
(2.08768e-05 -0.00125772 -1.82182e-07)
(2.32673e-05 -0.00135745 -2.03045e-07)
(2.57786e-05 -0.00146072 -2.24961e-07)
(2.83954e-05 -0.00156732 -2.478e-07)
(3.1097e-05 -0.001677 -2.71378e-07)
(3.38554e-05 -0.00178949 -2.95453e-07)
(3.66349e-05 -0.00190451 -3.19712e-07)
(3.93942e-05 -0.00202174 -3.43795e-07)
(4.20884e-05 -0.00214085 -3.67312e-07)
(4.46641e-05 -0.00226149 -3.89849e-07)
(4.70588e-05 -0.00238331 -4.10759e-07)
(4.92023e-05 -0.00250594 -4.29475e-07)
(5.10193e-05 -0.00262901 -4.45342e-07)
(5.24287e-05 -0.00275213 -4.57651e-07)
(5.33432e-05 -0.00287485 -4.6564e-07)
(5.36725e-05 -0.00299671 -4.68523e-07)
(5.33254e-05 -0.00311704 -4.65504e-07)
(5.22164e-05 -0.00323492 -4.55836e-07)
(5.02714e-05 -0.00334888 -4.38872e-07)
(4.74374e-05 -0.00345655 -4.14149e-07)
(4.36927e-05 -0.00355404 -3.81477e-07)
(3.90621e-05 -0.003635 -3.41071e-07)
(3.36357e-05 -0.0036893 -2.93714e-07)
(2.75899e-05 -0.00370132 -2.40946e-07)
(2.12008e-05 -0.00364778 -1.85177e-07)
(1.48697e-05 -0.00349532 -1.29904e-07)
(9.07183e-06 -0.00319834 -7.92792e-08)
(4.38434e-06 -0.00269742 -3.83372e-08)
(1.21081e-06 -0.00191924 -1.0613e-08)
(-6.86956e-08 -0.000778648 4.61668e-10)
(-4.73789e-09 -2.33896e-07 4.14017e-11)
(2.45177e-08 -1.65289e-06 -2.14076e-10)
(5.23282e-08 -4.62469e-06 -4.56898e-10)
(6.63587e-09 -9.27531e-06 -5.85875e-11)
(4.03673e-08 -1.56993e-05 -3.5423e-10)
(1.09722e-07 -2.40775e-05 -9.574e-10)
(-2.72833e-07 -3.4566e-05 2.38728e-09)
(-5.22874e-07 -4.73235e-05 4.56171e-09)
(-3.33008e-07 -6.24357e-05 2.90301e-09)
(1.69639e-07 -8.01171e-05 -1.47929e-09)
(4.63226e-07 -0.000100429 -4.04334e-09)
(5.00807e-07 -0.000123617 -4.36971e-09)
(8.62717e-07 -0.000149758 -7.52541e-09)
(1.13987e-06 -0.000179028 -9.94726e-09)
(1.49577e-06 -0.000211569 -1.30521e-08)
(1.92216e-06 -0.000247515 -1.67722e-08)
(2.40659e-06 -0.000287005 -2.09992e-08)
(2.99001e-06 -0.000330168 -2.60908e-08)
(3.66751e-06 -0.000377125 -3.20043e-08)
(4.45872e-06 -0.000427987 -3.89079e-08)
(5.36729e-06 -0.000482848 -4.68342e-08)
(6.39357e-06 -0.000541793 -5.5788e-08)
(7.54794e-06 -0.000604889 -6.58611e-08)