/*--------------------------------*- C++ -*----------------------------------*\
| =========                 |                                                 |
| \\      /  F ield         | OpenFOAM: The Open Source CFD Toolbox           |
|  \\    /   O peration     | Version:  v2012                                 |
|   \\  /    A nd           | Website:  www.openfoam.com                      |
|    \\/     M anipulation  |                                                 |
\*---------------------------------------------------------------------------*/
FoamFile
{
    version     2.0;
    format      ascii;
    class       surfaceScalarField;
    location    "0.95";
    object      phi;
}
// * * * * * * * * * * * * * * * * * * * * * * * * * * * * * * * * * * * * * //

dimensions      [0 3 -1 0 0 0 0];
oriented        oriented;


internalField   nonuniform List<scalar> 
8135
(
-1.96493e-09
-2.7923e-08
-6.1327e-16
-1.25833e-09
-7.01087e-09
-4.29068e-16
-6.13229e-10
1.56258e-08
-1.00171e-16
-4.61778e-10
3.98674e-08
-4.58836e-17
-3.97561e-10
6.52628e-08
-3.1334e-17
-3.6958e-10
9.16969e-08
-2.38416e-17
-3.50559e-10
1.19051e-07
-1.9378e-17
-3.33179e-10
1.46861e-07
-1.3906e-17
-3.14463e-10
1.74738e-07
-1.65893e-17
-2.93272e-10
2.02033e-07
-2.16258e-17
-2.69142e-10
2.28026e-07
-2.21938e-17
-2.42003e-10
2.51866e-07
-2.26505e-17
-2.12097e-10
2.72305e-07
-2.26307e-17
-1.7993e-10
2.88013e-07
-2.75377e-17
-1.46292e-10
2.97315e-07
-2.88376e-17
-1.12306e-10
2.98074e-07
-3.01044e-17
-7.94476e-11
2.87733e-07
-3.05444e-17
-4.95807e-11
2.63231e-07
-2.8589e-17
-2.48801e-11
2.20667e-07
-2.8149e-17
-7.65222e-12
1.55375e-07
-2.25e-17
6.13334e-08
-1.6179e-17
-2.19597e-09
-2.81181e-08
-6.21023e-16
-1.85287e-09
-7.35394e-09
-4.39459e-16
-1.50167e-09
1.52746e-08
-2.12986e-16
-1.29474e-09
3.96604e-08
-1.28631e-16
-1.17342e-09
6.51414e-08
-9.18782e-17
-1.10406e-09
9.16275e-08
-7.10835e-17
-1.05088e-09
1.18997e-07
-5.84488e-17
-9.99858e-10
1.4681e-07
-4.41052e-17
-9.44153e-10
1.74682e-07
-6.16855e-17
-8.80772e-10
2.0197e-07
-8.24677e-17
-8.08465e-10
2.27954e-07
-8.85826e-17
-7.27069e-10
2.51784e-07
-9.39947e-17
-6.37338e-10
2.72215e-07
-9.75499e-17
-5.40798e-10
2.87917e-07
-1.17127e-16
-4.39824e-10
2.97214e-07
-1.24926e-16
-3.3776e-10
2.97972e-07
-1.32578e-16
-2.39011e-10
2.87634e-07
-1.36635e-16
-1.4908e-10
2.63141e-07
-1.30769e-16
-7.45186e-11
2.20592e-07
-1.27989e-16
-2.22727e-11
1.55323e-07
-1.04909e-16
6.13112e-08
-7.89137e-17
-2.55136e-09
-2.82064e-08
-6.44803e-16
-2.40721e-09
-7.49806e-09
-4.80722e-16
-2.23286e-09
1.51002e-08
-3.01843e-16
-2.05776e-09
3.94854e-08
-2.03152e-16
-1.92365e-09
6.50073e-08
-1.4893e-16
-1.8292e-09
9.15331e-08
-1.15863e-16
-1.74795e-09
1.18916e-07
-9.46699e-17
-1.66573e-09
1.46728e-07
-7.31657e-17
-1.57413e-09
1.7459e-07
-9.8077e-17
-1.46908e-09
2.01865e-07
-1.25585e-16
-1.34886e-09
2.27834e-07
-1.30358e-16
-1.21333e-09
2.51649e-07
-1.35182e-16
-1.06383e-09
2.72066e-07
-1.37003e-16
-9.02926e-10
2.87756e-07
-1.65118e-16
-7.34573e-10
2.97045e-07
-1.73032e-16
-5.64318e-10
2.97801e-07
-1.81393e-16
-3.99437e-10
2.87469e-07
-1.8493e-16
-2.49015e-10
2.62991e-07
-1.7478e-16
-1.23932e-10
2.20467e-07
-1.73079e-16
-3.61307e-11
1.55235e-07
-1.41659e-16
6.1275e-08
-1.07849e-16
-2.96708e-09
-2.81995e-08
-6.71693e-16
-2.95164e-09
-7.51346e-09
-5.23855e-16
-2.89238e-09
1.5041e-08
-3.71292e-16
-2.76938e-09
3.93624e-08
-2.67882e-16
-2.64746e-09
6.48854e-08
-2.01754e-16
-2.54209e-09
9.14277e-08
-1.58418e-16
-2.43975e-09
1.18814e-07
-1.29386e-16
-2.32962e-09
1.46618e-07
-9.95707e-17
-2.20373e-09
1.74465e-07
-1.24433e-16
-2.05782e-09
2.01719e-07
-1.52653e-16
-1.89008e-09
2.27666e-07
-1.52548e-16
-1.70062e-09
2.51459e-07
-1.53971e-16
-1.49142e-09
2.71857e-07
-1.51063e-16
-1.26616e-09
2.87531e-07
-1.84438e-16
-1.03038e-09
2.9681e-07
-1.89161e-16
-7.91823e-10
2.97563e-07
-1.95342e-16
-5.60611e-10
2.87238e-07
-1.968e-16
-3.49381e-10
2.6278e-07
-1.82897e-16
-1.7338e-10
2.20291e-07
-1.86032e-16
-4.98666e-11
1.55111e-07
-1.52495e-16
6.12252e-08
-1.16074e-16
-3.42238e-09
-2.8112e-08
-6.98999e-16
-3.4952e-09
-7.4406e-09
-5.63647e-16
-3.51532e-09
1.50611e-08
-4.27909e-16
-3.44705e-09
3.92942e-08
-3.24243e-16
-3.34894e-09
6.47873e-08
-2.5032e-16
-3.24278e-09
9.13216e-08
-1.98648e-16
-3.12559e-09
1.18697e-07
-1.62278e-16
-2.99096e-09
1.46483e-07
-1.23312e-16
-2.83258e-09
1.74306e-07
-1.39047e-16
-2.64675e-09
2.01533e-07
-1.61869e-16
-2.43197e-09
2.27451e-07
-1.52705e-16
-2.18881e-09
2.51216e-07
-1.47372e-16
-1.92001e-09
2.71588e-07
-1.36535e-16
-1.6304e-09
2.87241e-07
-1.71819e-16
-1.32715e-09
2.96506e-07
-1.70009e-16
-1.02019e-09
2.97256e-07
-1.71266e-16
-7.22469e-10
2.8694e-07
-1.69266e-16
-4.50175e-10
2.62508e-07
-1.52627e-16
-2.22965e-10
2.20064e-07
-1.64315e-16
-6.35971e-11
1.54952e-07
-1.34311e-16
6.11616e-08
-1.00664e-16
-3.90721e-09
-2.79575e-08
-7.2594e-16
-4.04372e-09
-7.30405e-09
-6.00463e-16
-4.12194e-09
1.51394e-08
-4.75955e-16
-4.10394e-09
3.92762e-08
-3.73657e-16
-4.03369e-09
6.47171e-08
-2.94901e-16
-3.933e-09
9.12209e-08
-2.36828e-16
-3.80576e-09
1.1857e-07
-1.93915e-16
-3.64967e-09
1.46327e-07
-1.45028e-16
-3.46055e-09
1.74117e-07
-1.49409e-16
-3.23576e-09
2.01308e-07
-1.6476e-16
-2.97446e-09
2.2719e-07
-1.44872e-16
-2.67784e-09
2.5092e-07
-1.30907e-16
-2.34954e-09
2.7126e-07
-1.0981e-16
-1.9956e-09
2.86887e-07
-1.44059e-16
-1.62483e-09
2.96136e-07
-1.32351e-16
-1.24936e-09
2.9688e-07
-1.25428e-16
-8.84967e-10
2.86576e-07
-1.17614e-16
-5.51395e-10
2.62174e-07
-9.76591e-17
-2.72747e-10
2.19785e-07
-1.19566e-16
-7.73725e-11
1.54757e-07
-9.63902e-17
6.10842e-08
-6.90395e-17
-4.41639e-09
-2.7747e-08
-7.52108e-16
-4.60161e-09
-7.11877e-09
-6.34219e-16
-4.72455e-09
1.52623e-08
-5.17647e-16
-4.74997e-09
3.93017e-08
-4.17253e-16
-4.70734e-09
6.46745e-08
-3.35752e-16
-4.61529e-09
9.11289e-08
-2.72946e-16
-4.48126e-09
1.18436e-07
-2.24323e-16
-4.30607e-09
1.46152e-07
-1.66701e-16
-4.08773e-09
1.73899e-07
-1.61267e-16
-3.82487e-09
2.01045e-07
-1.70136e-16
-3.51753e-09
2.26883e-07
-1.39453e-16
-3.16768e-09
2.5057e-07
-1.16134e-16
-2.77998e-09
2.70872e-07
-8.36344e-17
-2.36171e-09
2.86469e-07
-1.15306e-16
-1.92336e-09
2.95697e-07
-9.18216e-17
-1.47928e-09
2.96436e-07
-7.47091e-17
-1.04807e-09
2.86145e-07
-5.92204e-17
-6.53035e-10
2.61779e-07
-3.46863e-17
-3.2276e-10
2.19455e-07
-6.62671e-17
-9.12321e-11
1.54525e-07
-4.99343e-17
6.0993e-08
-2.98434e-17
-4.94761e-09
-2.74895e-08
-7.77433e-16
-5.17195e-09
-6.89437e-09
-6.65289e-16
-5.33063e-09
1.5421e-08
-5.54415e-16
-5.39243e-09
3.93635e-08
-4.56021e-16
-5.37496e-09
6.46571e-08
-3.73079e-16
-5.29245e-09
9.10464e-08
-3.06841e-16
-5.15344e-09
1.18297e-07
-2.53422e-16
-4.96081e-09
1.45959e-07
-1.88459e-16
-4.71442e-09
1.73653e-07
-1.78001e-16
-4.41421e-09
2.00745e-07
-1.83666e-16
-4.06122e-09
2.2653e-07
-1.44336e-16
-3.65835e-09
2.50167e-07
-1.13091e-16
-3.2113e-09
2.70425e-07
-7.01354e-17
-2.72869e-09
2.85986e-07
-9.95919e-17
-2.2227e-09
2.95191e-07
-6.41264e-17
-1.70991e-09
2.95923e-07
-3.60596e-17
-1.21174e-09
2.85647e-07
-1.16315e-17
-7.55082e-10
2.61322e-07
1.91651e-17
-3.73013e-10
2.19073e-07
-2.00203e-17
-1.05191e-10
1.54257e-07
-8.27181e-18
6.08878e-08
6.35301e-18
-5.50001e-09
-2.71918e-08
-8.0197e-16
-5.75691e-09
-6.63741e-09
-6.94131e-16
-5.94487e-09
1.5609e-08
-5.87406e-16
-6.03664e-09
3.94553e-08
-4.90778e-16
-6.04085e-09
6.46613e-08
-4.07106e-16
-5.96725e-09
9.09728e-08
-3.38311e-16
-5.8239e-09
1.18153e-07
-2.80844e-16
-5.61473e-09
1.4575e-07
-2.10814e-16
-5.34105e-09
1.73379e-07
-2.00564e-16
-5.004e-09
2.00408e-07
-2.06975e-16
-4.60566e-09
2.26131e-07
-1.61381e-16
-4.14989e-09
2.49711e-07
-1.24054e-16
-3.64352e-09
2.69919e-07
-7.23319e-17
-3.09652e-09
2.85439e-07
-1.01157e-16
-2.52282e-09
2.94618e-07
-5.50477e-17
-1.9412e-09
2.95342e-07
-1.69096e-17
-1.37595e-09
2.85081e-07
1.64108e-17
-8.57517e-10
2.60804e-07
5.45668e-17
-4.23509e-10
2.18639e-07
1.03492e-17
-1.19256e-10
1.53953e-07
2.10529e-17
6.07685e-08
3.30922e-17
-6.07342e-09
-2.68595e-08
-8.25702e-16
-6.35805e-09
-6.3527e-09
-7.21138e-16
-6.57039e-09
1.58213e-08
-6.17435e-16
-6.68649e-09
3.95715e-08
-5.22217e-16
-6.70854e-09
6.46834e-08
-4.38104e-16
-6.64223e-09
9.09065e-08
-3.67294e-16
-6.49423e-09
1.18005e-07
-3.06447e-16
-6.26879e-09
1.45525e-07
-2.32648e-16
-5.96817e-09
1.73078e-07
-2.26336e-16
-5.59454e-09
2.00035e-07
-2.3642e-16
-5.15099e-09
2.25688e-07
-1.87069e-16
-4.64236e-09
2.49203e-07
-1.46186e-16
-4.07664e-09
2.69353e-07
-8.83934e-17
-3.46519e-09
2.84828e-07
-1.19385e-16
-2.82368e-09
2.93976e-07
-6.529e-17
-2.17313e-09
2.94691e-07
-1.93293e-17
-1.54067e-09
2.84449e-07
2.15635e-17
-9.60321e-10
2.60223e-07
6.72271e-17
-4.74239e-10
2.18153e-07
2.00507e-17
-1.33423e-10
1.53612e-07
3.30028e-17
6.06351e-08
4.56801e-17
-6.66794e-09
-2.64967e-08
-8.48543e-16
-6.97656e-09
-6.044e-09
-7.46531e-16
-7.20929e-09
1.60541e-08
-6.45058e-16
-7.34484e-09
3.97071e-08
-5.50891e-16
-7.38088e-09
6.47195e-08
-4.6639e-16
-7.31964e-09
9.08452e-08
-3.93843e-16
-7.166e-09
1.17852e-07
-3.30022e-16
-6.92398e-09
1.45283e-07
-2.5349e-16
-6.59638e-09
1.72751e-07
-2.53067e-16
-6.18618e-09
1.99624e-07
-2.6849e-16
-5.69741e-09
2.25199e-07
-2.16853e-16
-5.13587e-09
2.48641e-07
-1.74154e-16
-4.51071e-09
2.68728e-07
-1.12457e-16
-3.8347e-09
2.84152e-07
-1.48182e-16
-3.12526e-09
2.93267e-07
-8.89101e-17
-2.40566e-09
2.93972e-07
-3.78965e-17
-1.70586e-09
2.83749e-07
8.45838e-18
-1.06347e-09
2.59581e-07
6.07091e-17
-5.2519e-10
2.17615e-07
1.19337e-17
-1.47688e-10
1.53235e-07
2.92724e-17
6.04874e-08
4.51456e-17
-7.28383e-09
-2.61071e-08
-8.7039e-16
-7.61331e-09
-5.71444e-09
-7.70416e-16
-7.86305e-09
1.63038e-08
-6.70623e-16
-8.01382e-09
3.9858e-08
-5.77211e-16
-8.06013e-09
6.47658e-08
-4.92275e-16
-8.0014e-09
9.07865e-08
-4.18128e-16
-7.84063e-09
1.17691e-07
-3.517e-16
-7.58126e-09
1.45023e-07
-2.72745e-16
-7.22628e-09
1.72396e-07
-2.78168e-16
-6.77929e-09
1.99178e-07
-2.99062e-16
-6.24512e-09
2.24665e-07
-2.45659e-16
-5.63051e-09
2.48027e-07
-2.02192e-16
-4.94577e-09
2.68043e-07
-1.38271e-16
-4.20505e-09
2.83411e-07
-1.80993e-16
-3.42755e-09
2.92489e-07
-1.19227e-16
-2.63876e-09
2.93183e-07
-6.60548e-17
-1.87149e-09
2.82982e-07
-1.68089e-17
-1.16694e-09
2.58877e-07
4.04741e-17
-5.76345e-10
2.17024e-07
-1.01006e-17
-1.62042e-10
1.5282e-07
1.273e-17
6.03254e-08
3.29966e-17
-7.92136e-09
-2.56937e-08
-8.91163e-16
-8.26898e-09
-5.36673e-09
-7.92846e-16
-8.53276e-09
1.65676e-08
-6.94341e-16
-8.69499e-09
4.00203e-08
-6.01463e-16
-8.74805e-09
6.4819e-08
-5.16025e-16
-8.68913e-09
9.07276e-08
-4.40327e-16
-8.51941e-09
1.17522e-07
-3.71487e-16
-8.24155e-09
1.44745e-07
-2.90067e-16
-7.85849e-09
1.72013e-07
-3.0004e-16
-7.37424e-09
1.98693e-07
-3.2573e-16
-6.79434e-09
2.24085e-07
-2.70283e-16
-6.1264e-09
2.47359e-07
-2.26259e-16
-5.38185e-09
2.67298e-07
-1.60832e-16
-4.57625e-09
2.82606e-07
-2.11838e-16
-3.73052e-09
2.91644e-07
-1.49321e-16
-2.8724e-09
2.92325e-07
-9.61029e-17
-2.03754e-09
2.82147e-07
-4.60818e-17
-1.27071e-09
2.5811e-07
1.44668e-17
-6.27689e-10
2.16381e-07
-3.86119e-17
-1.76477e-10
1.52369e-07
-1.06274e-17
6.01489e-08
1.45004e-17
-8.58077e-09
-2.52591e-08
-9.10829e-16
-8.94406e-09
-5.00333e-09
-8.13857e-16
-9.21917e-09
1.68428e-08
-7.16346e-16
-9.38951e-09
4.01907e-08
-6.23834e-16
-9.44602e-09
6.48755e-08
-5.37833e-16
-9.38414e-09
9.06657e-08
-4.60605e-16
-9.20343e-09
1.17341e-07
-3.89495e-16
-8.90567e-09
1.44448e-07
-3.0549e-16
-8.49356e-09
1.71601e-07
-3.18497e-16
-7.9714e-09
1.98171e-07
-3.48001e-16
-7.34529e-09
2.23459e-07
-2.89565e-16
-6.62365e-09
2.46637e-07
-2.44346e-16
-5.81902e-09
2.66494e-07
-1.77212e-16
-4.9483e-09
2.81735e-07
-2.36871e-16
-4.03416e-09
2.9073e-07
-1.74504e-16
-3.10656e-09
2.91397e-07
-1.22696e-16
-2.20398e-09
2.81244e-07
-7.36207e-17
-1.37476e-09
2.57281e-07
-1.1317e-17
-6.79204e-10
2.15686e-07
-6.87245e-17
-1.90983e-10
1.51881e-07
-3.60881e-17
5.99579e-08
-6.99894e-18
-9.26229e-09
-2.48057e-08
-9.29392e-16
-9.63894e-09
-4.62657e-09
-8.3349e-16
-9.92283e-09
1.71267e-08
-7.36733e-16
-1.00982e-08
4.03662e-08
-6.44453e-16
-1.01551e-08
6.49324e-08
-5.57836e-16
-1.00875e-08
9.05982e-08
-4.79072e-16
-9.89359e-09
1.17147e-07
-4.05765e-16
-9.57431e-09
1.44128e-07
-3.18721e-16
-9.132e-09
1.71159e-07
-3.33468e-16
-8.57109e-09
1.9761e-07
-3.65971e-16
-7.89816e-09
2.22786e-07
-3.03755e-16
-7.12237e-09
2.45861e-07
-2.56648e-16
-6.2573e-09
2.65629e-07
-1.87224e-16
-5.3212e-09
2.80799e-07
-2.55196e-16
-4.33844e-09
2.89747e-07
-1.92878e-16
-3.3412e-09
2.904e-07
-1.42791e-16
-2.37077e-09
2.80274e-07
-9.53356e-17
-1.47905e-09
2.56389e-07
-3.22451e-17
-7.30873e-10
2.14937e-07
-9.49518e-17
-2.05552e-10
1.51356e-07
-5.90986e-17
5.97524e-08
-2.69052e-17
-9.96605e-09
-2.43358e-08
-9.46871e-16
-1.03538e-08
-4.23866e-09
-8.51792e-16
-1.06441e-08
1.7417e-08
-7.55579e-16
-1.08217e-08
4.05439e-08
-6.63404e-16
-1.0876e-08
6.49868e-08
-5.76118e-16
-1.08e-08
9.05222e-08
-4.9581e-16
-1.05906e-08
1.16938e-07
-4.20311e-16
-1.02481e-08
1.43786e-07
-3.30178e-16
-9.77424e-09
1.70685e-07
-3.46126e-16
-9.1736e-09
1.9701e-07
-3.81214e-16
-8.45312e-09
2.22066e-07
-3.14245e-16
-7.62264e-09
2.45031e-07
-2.64176e-16
-6.69673e-09
2.64703e-07
-1.91393e-16
-5.69494e-09
2.79797e-07
-2.66811e-16
-4.64334e-09
2.88695e-07
-2.03881e-16
-3.5763e-09
2.89333e-07
-1.55261e-16
-2.53789e-09
2.79236e-07
-1.09578e-16
-1.58357e-09
2.55435e-07
-4.61176e-17
-7.82678e-10
2.14136e-07
-1.15044e-16
-2.20178e-10
1.50793e-07
-7.70476e-17
5.95322e-08
-4.3306e-17
-1.06922e-08
-2.38515e-08
-9.63278e-16
-1.10889e-08
-3.84177e-09
-8.6881e-16
-1.13832e-08
1.77113e-08
-7.72953e-16
-1.15603e-08
4.07211e-08
-6.80763e-16
-1.16092e-08
6.50357e-08
-5.92748e-16
-1.15222e-08
9.04352e-08
-5.10879e-16
-1.12951e-08
1.16711e-07
-4.3321e-16
-1.09274e-08
1.43418e-07
-3.39563e-16
-1.04206e-08
1.70178e-07
-3.56931e-16
-9.77916e-09
1.96368e-07
-3.94752e-16
-9.01031e-09
2.21297e-07
-3.22709e-16
-8.12451e-09
2.44145e-07
-2.69218e-16
-7.13731e-09
2.63716e-07
-1.92366e-16
-6.06951e-09
2.78729e-07
-2.74378e-16
-4.94883e-09
2.87575e-07
-2.09791e-16
-3.81181e-09
2.88196e-07
-1.61681e-16
-2.7053e-09
2.78129e-07
-1.17072e-16
-1.68829e-09
2.54418e-07
-5.29974e-17
-8.34603e-10
2.13283e-07
-1.27894e-16
-2.34852e-10
1.50193e-07
-8.88349e-17
5.92973e-08
-5.44641e-17
-1.14406e-08
-2.3355e-08
-9.78616e-16
-1.18442e-08
-3.43805e-09
-8.84582e-16
-1.21402e-08
1.80073e-08
-7.88917e-16
-1.23143e-08
4.08953e-08
-6.96594e-16
-1.23551e-08
6.50767e-08
-6.07787e-16
-1.22545e-08
9.03346e-08
-5.24344e-16
-1.20075e-08
1.16464e-07
-4.44459e-16
-1.16127e-08
1.43024e-07
-3.47424e-16
-1.10714e-08
1.69637e-07
-3.66799e-16
-1.03879e-08
1.95685e-07
-4.07923e-16
-9.56981e-09
2.20479e-07
-3.30306e-16
-8.62804e-09
2.43204e-07
-2.72798e-16
-7.57905e-09
2.62667e-07
-1.911e-16
-6.44486e-09
2.77595e-07
-2.78867e-16
-5.25486e-09
2.86385e-07
-2.1166e-16
-4.04768e-09
2.86989e-07
-1.6315e-16
-2.87296e-09
2.76954e-07
-1.18864e-16
-1.79317e-09
2.53338e-07
-5.36979e-17
-8.8663e-10
2.12376e-07
-1.34147e-16
-2.49568e-10
1.49556e-07
-9.44972e-17
5.90478e-08
-6.04578e-17
-1.22114e-08
-2.28482e-08
-9.92874e-16
-1.26197e-08
-3.02966e-09
-8.99137e-16
-1.29151e-08
1.83027e-08
-8.03532e-16
-1.30837e-08
4.1064e-08
-7.10966e-16
-1.31139e-08
6.5107e-08
-6.21307e-16
-1.29972e-08
9.02178e-08
-5.36275e-16
-1.27279e-08
1.16195e-07
-4.54201e-16
-1.23042e-08
1.426e-07
-3.53436e-16
-1.17268e-08
1.6906e-07
-3.75919e-16
-1.1e-08
1.94958e-07
-4.21204e-16
-1.01317e-08
2.1961e-07
-3.38255e-16
-9.13321e-09
2.42205e-07
-2.76906e-16
-8.0219e-09
2.61556e-07
-1.90231e-16
-6.82097e-09
2.76394e-07
-2.83349e-16
-5.56137e-09
2.85125e-07
-2.12701e-16
-4.28388e-09
2.85711e-07
-1.62743e-16
-3.04083e-09
2.75711e-07
-1.1769e-16
-1.8982e-09
2.52195e-07
-5.04871e-17
-9.38743e-10
2.11417e-07
-1.35505e-16
-2.64319e-10
1.48882e-07
-9.53443e-17
5.87834e-08
-6.19813e-17
-1.30044e-08
-2.23335e-08
-1.00605e-15
-1.34151e-08
-2.61878e-09
-9.12506e-16
-1.37077e-08
1.85953e-08
-8.16848e-16
-1.38683e-08
4.12248e-08
-7.2395e-16
-1.38855e-08
6.51243e-08
-6.33381e-16
-1.37503e-08
9.00826e-08
-5.46761e-16
-1.34565e-08
1.15901e-07
-4.62463e-16
-1.30019e-08
1.42145e-07
-3.58144e-16
-1.23868e-08
1.68445e-07
-3.84532e-16
-1.16155e-08
1.94187e-07
-4.34505e-16
-1.06959e-08
2.18691e-07
-3.4643e-16
-9.63999e-09
2.41149e-07
-2.81225e-16
-8.46582e-09
2.60381e-07
-1.89408e-16
-7.19775e-09
2.75126e-07
-2.87666e-16
-5.86831e-09
2.83796e-07
-2.13145e-16
-4.52034e-09
2.84363e-07
-1.61159e-16
-3.20887e-09
2.744e-07
-1.14646e-16
-2.00333e-09
2.5099e-07
-4.46627e-17
-9.90922e-10
2.10404e-07
-1.33284e-16
-2.791e-10
1.4817e-07
-9.24464e-17
5.85043e-08
-5.99694e-17
-1.38192e-08
-2.1813e-08
-1.01813e-15
-1.42302e-08
-2.20763e-09
-9.24716e-16
-1.45177e-08
1.88828e-08
-8.28918e-16
-1.4668e-08
4.13753e-08
-7.35614e-16
-1.46698e-08
6.51261e-08
-6.4409e-16
-1.45137e-08
8.99265e-08
-5.55886e-16
-1.41932e-08
1.15581e-07
-4.6941e-16
-1.37058e-08
1.41658e-07
-3.61176e-16
-1.30514e-08
1.6779e-07
-3.92543e-16
-1.22343e-08
1.9337e-07
-4.47644e-16
-1.12624e-08
2.17719e-07
-3.55309e-16
-1.01483e-08
2.40035e-07
-2.86833e-16
-8.91071e-09
2.59144e-07
-1.90239e-16
-7.57513e-09
2.73791e-07
-2.93841e-16
-6.1756e-09
2.82396e-07
-2.15268e-16
-4.75699e-09
2.82945e-07
-1.60772e-16
-3.37702e-09
2.7302e-07
-1.12093e-16
-2.10853e-09
2.49721e-07
-3.84762e-17
-1.04315e-09
2.09339e-07
-1.29525e-16
-2.93904e-10
1.47421e-07
-8.7745e-17
5.82104e-08
-5.60555e-17
-1.46557e-08
-2.12888e-08
-1.02916e-15
-1.50647e-08
-1.79845e-09
-9.35808e-16
-1.53447e-08
1.9163e-08
-8.39802e-16
-1.54825e-08
4.15132e-08
-7.46029e-16
-1.54664e-08
6.51101e-08
-6.53508e-16
-1.52871e-08
8.97473e-08
-5.6374e-16
-1.49379e-08
1.15232e-07
-4.75051e-16
-1.44158e-08
1.41136e-07
-3.62988e-16
-1.37205e-08
1.67095e-07
-3.99887e-16
-1.28562e-08
1.92506e-07
-4.60362e-16
-1.18312e-08
2.16694e-07
-3.64077e-16
-1.0658e-08
2.38862e-07
-2.92469e-16
-9.35647e-09
2.57842e-07
-1.91234e-16
-7.95299e-09
2.72387e-07
-3.00425e-16
-6.48312e-09
2.80926e-07
-2.17939e-16
-4.99376e-09
2.81456e-07
-1.60947e-16
-3.54522e-09
2.71571e-07
-1.09942e-16
-2.21377e-09
2.4839e-07
-3.2334e-17
-1.0954e-09
2.08221e-07
-1.24906e-16
-3.08725e-10
1.46634e-07
-8.19654e-17
5.79017e-08
-5.08258e-17
-1.55132e-08
-2.07634e-08
-1.03918e-15
-1.59179e-08
-1.39356e-09
-9.45842e-16
-1.61883e-08
1.94334e-08
-8.49564e-16
-1.63111e-08
4.16362e-08
-7.55266e-16
-1.62749e-08
6.5074e-08
-6.61721e-16
-1.60703e-08
8.95427e-08
-5.70395e-16
-1.56903e-08
1.14852e-07
-4.79517e-16
-1.51316e-08
1.40577e-07
-3.63168e-16
-1.4394e-08
1.66358e-07
-4.06447e-16
-1.34812e-08
1.91593e-07
-4.72701e-16
-1.24019e-08
2.15615e-07
-3.7301e-16
-1.1169e-08
2.3763e-07
-2.98786e-16
-9.80293e-09
2.56476e-07
-1.93367e-16
-8.3312e-09
2.70916e-07
-3.08603e-16
-6.79079e-09
2.79386e-07
-2.22451e-16
-5.23055e-09
2.79895e-07
-1.63015e-16
-3.71341e-09
2.70054e-07
-1.09552e-16
-2.319e-09
2.46995e-07
-2.77087e-17
-1.14767e-09
2.07049e-07
-1.20766e-16
-3.23556e-10
1.4581e-07
-7.6602e-17
5.75782e-08
-4.57958e-17
-1.63913e-08
-2.02391e-08
-1.04828e-15
-1.67894e-08
-9.95305e-10
-9.54893e-16
-1.70477e-08
1.96918e-08
-8.58281e-16
-1.71533e-08
4.17419e-08
-7.63406e-16
-1.70948e-08
6.50156e-08
-6.68799e-16
-1.68628e-08
8.93107e-08
-5.75928e-16
-1.64499e-08
1.1444e-07
-4.82838e-16
-1.5853e-08
1.3998e-07
-3.62277e-16
-1.50714e-08
1.65576e-07
-4.12102e-16
-1.4109e-08
1.90631e-07
-4.84427e-16
-1.29744e-08
2.1448e-07
-3.81188e-16
-1.16811e-08
2.36336e-07
-3.04346e-16
-1.02499e-08
2.55045e-07
-1.94832e-16
-8.70961e-09
2.69375e-07
-3.16427e-16
-7.09846e-09
2.77775e-07
-2.26957e-16
-5.46726e-09
2.78264e-07
-1.65423e-16
-3.88152e-09
2.68469e-07
-1.09806e-16
-2.42418e-09
2.45538e-07
-2.40854e-17
-1.19991e-09
2.05825e-07
-1.17174e-16
-3.3839e-10
1.44949e-07
-7.15513e-17
5.72398e-08
-4.07099e-17
-1.72892e-08
-1.97183e-08
-1.05656e-15
-1.76782e-08
-6.06063e-10
-9.63037e-16
-1.79223e-08
1.99359e-08
-8.66029e-16
-1.80084e-08
4.18283e-08
-7.70516e-16
-1.79254e-08
6.49327e-08
-6.74824e-16
-1.76639e-08
8.90492e-08
-5.80413e-16
-1.72163e-08
1.13992e-07
-4.85169e-16
-1.65794e-08
1.39344e-07
-3.60105e-16
-1.57524e-08
1.64749e-07
-4.16875e-16
-1.47392e-08
1.89618e-07
-4.95629e-16
-1.35484e-08
2.13289e-07
-3.89e-16
-1.21939e-08
2.34982e-07
-3.09867e-16
-1.06973e-08
2.53549e-07
-1.96564e-16
-9.08804e-09
2.67766e-07
-3.24907e-16
-7.40598e-09
2.76093e-07
-2.32422e-16
-5.70379e-09
2.76562e-07
-1.69037e-16
-4.04946e-09
2.66814e-07
-1.11495e-16
-2.52925e-09
2.44018e-07
-2.24601e-17
-1.25211e-09
2.04548e-07
-1.10812e-16
-3.53221e-10
1.4405e-07
-6.7787e-17
5.68865e-08
-3.66952e-17
-1.8206e-08
-1.92037e-08
-1.06414e-15
-1.85836e-08
-2.28253e-10
-9.70373e-16
-1.8811e-08
2.01634e-08
-8.72892e-16
-1.88755e-08
4.18929e-08
-7.76677e-16
-1.87659e-08
6.48232e-08
-6.79866e-16
-1.84729e-08
8.87561e-08
-5.83926e-16
-1.79889e-08
1.13509e-07
-4.86572e-16
-1.73104e-08
1.38665e-07
-3.57371e-16
-1.64366e-08
1.63876e-07
-4.20717e-16
-1.53714e-08
1.88553e-07
-5.06167e-16
-1.41236e-08
2.12042e-07
-3.95701e-16
-1.27072e-08
2.33566e-07
-3.14128e-16
-1.11446e-08
2.51986e-07
-1.96975e-16
-9.46627e-09
2.66088e-07
-3.32242e-16
-7.7132e-09
2.7434e-07
-2.3699e-16
-5.94e-09
2.74789e-07
-1.721e-16
-4.21715e-09
2.65091e-07
-1.1308e-16
-2.63416e-09
2.42435e-07
-2.18703e-17
-1.30425e-09
2.03218e-07
-1.07442e-16
-3.6804e-10
1.43113e-07
-6.45071e-17
5.65185e-08
-3.27833e-17
-1.91406e-08
-1.86977e-08
-1.07113e-15
-1.95044e-08
1.35689e-10
-9.76997e-16
-1.97129e-08
2.0372e-08
-8.78955e-16
-1.97536e-08
4.19338e-08
-7.81972e-16
-1.96154e-08
6.46851e-08
-6.84009e-16
-1.9289e-08
8.84297e-08
-5.86531e-16
-1.87668e-08
1.12987e-07
-4.87176e-16
-1.80452e-08
1.37944e-07
-3.53682e-16
-1.71234e-08
1.62954e-07
-4.23714e-16
-1.60051e-08
1.87435e-07
-5.16047e-16
-1.46995e-08
2.10736e-07
-4.01866e-16
-1.32207e-08
2.32087e-07
-3.18053e-16
-1.15918e-08
2.50357e-07
-1.97206e-16
-9.84407e-09
2.6434e-07
-3.39598e-16
-8.01993e-09
2.72516e-07
-2.41767e-16
-6.17576e-09
2.72945e-07
-1.75538e-16
-4.38449e-09
2.633e-07
-1.15263e-16
-2.73885e-09
2.40789e-07
-2.28637e-17
-1.35628e-09
2.01835e-07
-1.13295e-16
-3.82839e-10
1.4214e-07
-6.22831e-17
5.61357e-08
-2.98652e-17
-2.0092e-08
-1.8203e-08
-1.07762e-15
-2.04394e-08
4.8333e-10
-9.8299e-16
-2.06268e-08
2.05595e-08
-8.84304e-16
-2.06415e-08
4.19488e-08
-7.86472e-16
-2.04728e-08
6.45165e-08
-6.87302e-16
-2.01112e-08
8.80682e-08
-5.88284e-16
-1.95492e-08
1.12425e-07
-4.86935e-16
-1.87833e-08
1.37178e-07
-3.49505e-16
-1.78122e-08
1.61983e-07
-4.25719e-16
-1.66399e-08
1.86263e-07
-5.25613e-16
-1.52757e-08
2.09372e-07
-4.06877e-16
-1.3734e-08
2.30546e-07
-3.20648e-16
-1.20384e-08
2.48662e-07
-1.95964e-16
-1.02212e-08
2.62523e-07
-3.45453e-16
-8.32597e-09
2.70621e-07
-2.45182e-16
-6.41091e-09
2.7103e-07
-1.77783e-16
-4.55137e-09
2.61441e-07
-1.16508e-16
-2.84326e-09
2.39081e-07
-2.29596e-17
-1.40818e-09
2.004e-07
-1.18176e-16
-3.97609e-10
1.41129e-07
-5.99503e-17
5.57381e-08
-2.66025e-17
-2.10587e-08
-1.77222e-08
-1.08368e-15
-2.13873e-08
8.12255e-10
-9.8841e-16
-2.15513e-08
2.07235e-08
-8.88982e-16
-2.15382e-08
4.19358e-08
-7.90239e-16
-2.1337e-08
6.43154e-08
-6.89816e-16
-2.09386e-08
8.76699e-08
-5.89228e-16
-2.03354e-08
1.11822e-07
-4.8591e-16
-1.95236e-08
1.36366e-07
-3.44132e-16
-1.85022e-08
1.60962e-07
-4.26776e-16
-1.72752e-08
1.85036e-07
-5.3542e-16
-1.58517e-08
2.07948e-07
-4.11364e-16
-1.42467e-08
2.28941e-07
-3.2295e-16
-1.24842e-08
2.46899e-07
-1.94514e-16
-1.05974e-08
2.60636e-07
-3.51172e-16
-8.6311e-09
2.68655e-07
-2.48543e-16
-6.64529e-09
2.69044e-07
-1.80003e-16
-4.71768e-09
2.59513e-07
-1.17651e-16
-2.94732e-09
2.37311e-07
-2.26354e-17
-1.45992e-09
1.98913e-07
-1.20487e-16
-4.1234e-10
1.40082e-07
-5.79895e-17
5.53257e-08
-2.39477e-17
-2.2039e-08
-1.72579e-08
-1.0893e-15
-2.23466e-08
1.12009e-09
-9.93285e-16
-2.24851e-08
2.0862e-08
-8.9304e-16
-2.2442e-08
4.1893e-08
-7.93326e-16
-2.22068e-08
6.40803e-08
-6.91601e-16
-2.177e-08
8.72332e-08
-5.89408e-16
-2.11242e-08
1.11176e-07
-4.84033e-16
-2.02655e-08
1.35507e-07
-3.38137e-16
-1.91928e-08
1.59889e-07
-4.26977e-16
-1.79102e-08
1.83753e-07
-5.39455e-16
-1.64269e-08
2.06465e-07
-4.14783e-16
-1.47582e-08
2.27272e-07
-3.24083e-16
-1.29287e-08
2.4507e-07
-1.91793e-16
-1.09723e-08
2.5868e-07
-3.55638e-16
-8.93508e-09
2.66618e-07
-2.5059e-16
-6.87874e-09
2.66988e-07
-1.80908e-16
-4.88331e-09
2.57518e-07
-1.17401e-16
-3.05094e-09
2.35478e-07
-2.02045e-17
-1.51146e-09
1.97374e-07
-1.21319e-16
-4.27022e-10
1.38997e-07
-5.52203e-17
5.48987e-08
-2.04957e-17
-2.30314e-08
-1.68126e-08
-1.09447e-15
-2.33156e-08
1.40455e-09
-9.97621e-16
-2.34264e-08
2.0973e-08
-8.96508e-16
-2.33517e-08
4.18185e-08
-7.95768e-16
-2.30807e-08
6.38094e-08
-6.92697e-16
-2.26042e-08
8.67567e-08
-5.88854e-16
-2.19145e-08
1.10487e-07
-4.81407e-16
-2.10079e-08
1.34601e-07
-3.30849e-16
-1.98831e-08
1.58765e-07
-4.26377e-16
-1.85443e-08
1.82415e-07
-5.45191e-16
-1.70008e-08
2.04921e-07
-4.17826e-16
-1.52682e-08
2.2554e-07
-3.25095e-16
-1.33716e-08
2.43173e-07
-1.89086e-16
-1.13456e-08
2.56654e-07
-3.6043e-16
-9.23766e-09
2.6451e-07
-2.52727e-16
-7.11105e-09
2.64861e-07
-1.81821e-16
-5.04812e-09
2.55455e-07
-1.16919e-16
-3.15406e-09
2.33584e-07
-1.69791e-17
-1.56275e-09
1.95782e-07
-1.2081e-16
-4.41644e-10
1.37876e-07
-5.23353e-17
5.4457e-08
-1.74137e-17
-2.40337e-08
-1.6389e-08
-1.09913e-15
-2.42923e-08
1.66343e-09
-1.00139e-15
-2.43737e-08
2.10544e-08
-8.99387e-16
-2.42656e-08
4.17106e-08
-7.9758e-16
-2.39574e-08
6.35014e-08
-6.9313e-16
-2.34399e-08
8.62392e-08
-5.87603e-16
-2.27052e-08
1.09752e-07
-4.77976e-16
-2.17498e-08
1.33645e-07
-3.23103e-16
-2.05723e-08
1.57587e-07
-4.24909e-16
-1.91768e-08
1.81019e-07
-5.50239e-16
-1.75728e-08
2.03318e-07
-4.20012e-16
-1.57761e-08
2.23743e-07
-3.25154e-16
-1.38123e-08
2.41209e-07
-1.85391e-16
-1.1717e-08
2.54559e-07
-3.64215e-16
-9.53858e-09
2.62331e-07
-2.53842e-16
-7.34203e-09
2.62665e-07
-1.81634e-16
-5.21197e-09
2.53325e-07
-1.15158e-16
-3.25659e-09
2.31629e-07
-1.2149e-17
-1.61377e-09
1.94139e-07
-1.17891e-16
-4.56194e-10
1.36719e-07
-4.84289e-17
5.40009e-08
-1.33525e-17
-2.50439e-08
-1.59893e-08
-1.10317e-15
-2.52748e-08
1.89467e-09
-1.00455e-15
-2.53249e-08
2.11046e-08
-9.01645e-16
-2.51819e-08
4.15678e-08
-7.98763e-16
-2.48352e-08
6.31548e-08
-6.92912e-16
-2.42756e-08
8.56796e-08
-5.85653e-16
-2.34951e-08
1.08972e-07
-4.73871e-16
-2.24902e-08
1.32641e-07
-3.14162e-16
-2.12594e-08
1.56357e-07
-4.22767e-16
-1.98068e-08
1.79567e-07
-5.55004e-16
-1.81421e-08
2.01653e-07
-4.22023e-16
-1.62813e-08
2.21882e-07
-3.25256e-16
-1.42506e-08
2.39179e-07
-1.81883e-16
-1.20861e-08
2.52394e-07
-3.68221e-16
-9.83756e-09
2.60083e-07
-2.55237e-16
-7.57149e-09
2.60399e-07
-1.81679e-16
-5.37472e-09
2.51128e-07
-1.13413e-16
-3.35844e-09
2.29613e-07
-7.06706e-18
-1.66446e-09
1.92445e-07
-1.14384e-16
-4.7066e-10
1.35525e-07
-4.44627e-17
5.35302e-08
-9.68801e-18
-2.60595e-08
-1.56157e-08
-1.10647e-15
-2.62609e-08
2.09637e-09
-1.00703e-15
-2.62782e-08
2.11219e-08
-9.03269e-16
-2.60989e-08
4.13888e-08
-7.99301e-16
-2.57126e-08
6.27686e-08
-6.92043e-16
-2.51099e-08
8.5077e-08
-5.8303e-16
-2.42829e-08
1.08146e-07
-4.69022e-16
-2.32279e-08
1.31586e-07
-3.0497e-16
-2.19434e-08
1.55073e-07
-4.19823e-16
-2.04335e-08
1.78057e-07
-5.59387e-16
-1.87081e-08
1.99927e-07
-4.23307e-16
-1.67833e-08
2.19958e-07
-3.24606e-16
-1.46858e-08
2.37081e-07
-1.77645e-16
-1.24526e-08
2.50161e-07
-3.71426e-16
-1.01343e-08
2.57765e-07
-2.55915e-16
-7.79919e-09
2.58063e-07
-1.80957e-16
-5.53624e-09
2.48865e-07
-1.10765e-16
-3.45952e-09
2.27536e-07
-1.0201e-18
-1.71478e-09
1.90701e-07
-1.10035e-16
-4.8503e-10
1.34295e-07
-3.97479e-17
5.30452e-08
-5.14552e-18
-2.70782e-08
-1.52703e-08
-1.10892e-15
-2.72484e-08
2.26685e-09
-1.00875e-15
-2.72313e-08
2.11049e-08
-9.04193e-16
-2.70146e-08
4.11724e-08
-7.99163e-16
-2.65877e-08
6.23419e-08
-6.90517e-16
-2.59413e-08
8.44306e-08
-5.79732e-16
-2.50672e-08
1.07272e-07
-4.63572e-16
-2.39617e-08
1.3048e-07
-2.9465e-16
-2.26233e-08
1.53734e-07
-4.16308e-16
-2.10561e-08
1.7649e-07
-5.63372e-16
-1.927e-08
1.98141e-07
-4.24516e-16
-1.72814e-08
2.17969e-07
-3.24145e-16
-1.51175e-08
2.34917e-07
-1.73778e-16
-1.28159e-08
2.4786e-07
-3.75036e-16
-1.04285e-08
2.55377e-07
-2.57075e-16
-8.02493e-09
2.5566e-07
-1.80692e-16
-5.69635e-09
2.46537e-07
-1.08433e-16
-3.55974e-09
2.25399e-07
4.84002e-18
-1.76469e-09
1.88906e-07
-1.06753e-16
-4.9929e-10
1.3303e-07
-3.53504e-17
5.25459e-08
-1.1964e-18
-2.80972e-08
-1.49548e-08
-1.1104e-15
-2.82347e-08
2.40465e-09
-1.00962e-15
-2.81821e-08
2.10524e-08
-9.04353e-16
-2.79271e-08
4.09177e-08
-7.98308e-16
-2.74589e-08
6.18738e-08
-6.88313e-16
-2.67682e-08
8.37399e-08
-5.75799e-16
-2.58467e-08
1.06351e-07
-4.57425e-16
-2.46905e-08
1.29324e-07
-2.84222e-16
-2.32981e-08
1.52342e-07
-4.12111e-16
-2.16737e-08
1.74866e-07
-5.66885e-16
-1.98271e-08
1.96295e-07
-4.25141e-16
-1.77751e-08
2.15918e-07
-3.23124e-16
-1.55452e-08
2.32688e-07
-1.69433e-16
-1.31758e-08
2.4549e-07
-3.78165e-16
-1.07198e-08
2.52921e-07
-2.57797e-16
-8.24846e-09
2.53189e-07
-1.7996e-16
-5.85491e-09
2.44143e-07
-1.05515e-16
-3.65901e-09
2.23204e-07
1.13817e-17
-1.81414e-09
1.87061e-07
-1.03716e-16
-5.13426e-10
1.31729e-07
-3.05507e-17
5.20325e-08
3.41613e-18
-2.91137e-08
-1.46708e-08
-1.11081e-15
-2.92172e-08
2.50858e-09
-1.00956e-15
-2.91283e-08
2.09636e-08
-9.03682e-16
-2.88343e-08
4.06239e-08
-7.96691e-16
-2.83243e-08
6.13641e-08
-6.85418e-16
-2.7589e-08
8.30046e-08
-5.71225e-16
-2.66198e-08
1.05382e-07
-4.50745e-16
-2.5413e-08
1.28117e-07
-2.72744e-16
-2.39668e-08
1.50896e-07
-4.07525e-16
-2.22853e-08
1.73185e-07
-5.70076e-16
-2.03786e-08
1.94388e-07
-4.25847e-16
-1.82637e-08
2.13803e-07
-3.22426e-16
-1.59684e-08
2.30392e-07
-1.65596e-16
-1.35319e-08
2.43054e-07
-3.81822e-16
-1.1008e-08
2.50398e-07
-2.59107e-16
-8.46955e-09
2.5065e-07
-1.79818e-16
-6.01175e-09
2.41685e-07
-1.03087e-16
-3.75721e-09
2.20949e-07
1.76737e-17
-1.86307e-09
1.85167e-07
-1.01608e-16
-5.27425e-10
1.30394e-07
-2.63039e-17
5.1505e-08
7.24947e-18
-3.01247e-08
-1.44193e-08
-1.11013e-15
-3.01935e-08
2.57774e-09
-1.00852e-15
-3.00675e-08
2.08376e-08
-9.02119e-16
-2.9734e-08
4.02907e-08
-7.94275e-16
-2.9182e-08
6.08123e-08
-6.81816e-16
-2.84019e-08
8.22246e-08
-5.66027e-16
-2.73852e-08
1.04365e-07
-4.43436e-16
-2.61279e-08