/*--------------------------------*- C++ -*----------------------------------*\
| =========                 |                                                 |
| \\      /  F ield         | OpenFOAM: The Open Source CFD Toolbox           |
|  \\    /   O peration     | Version:  v2012                                 |
|   \\  /    A nd           | Website:  www.openfoam.com                      |
|    \\/     M anipulation  |                                                 |
\*---------------------------------------------------------------------------*/
FoamFile
{
    version     2.0;
    format      ascii;
    class       volVectorField;
    location    "0.95";
    object      U;
}
// * * * * * * * * * * * * * * * * * * * * * * * * * * * * * * * * * * * * * //

dimensions      [0 1 -1 0 0 0 0];


internalField   nonuniform List<vector> 
3338
(
(-0.0456297 -0.303904 0.00039874)
(-0.036743 -0.0666699 0.000321134)
(-0.0128693 0.150708 0.000112181)
(-0.00973815 0.347408 8.48107e-05)
(-0.00739838 0.525579 6.46009e-05)
(-0.00649813 0.684097 5.67254e-05)
(-0.00587991 0.82313 5.13359e-05)
(-0.00536828 0.941923 4.68693e-05)
(-0.00488132 1.0398 4.26186e-05)
(-0.0043963 1.116 3.83847e-05)
(-0.00390452 1.16967 3.4092e-05)
(-0.00340576 1.19984 2.97383e-05)
(-0.00290382 1.20537 2.53569e-05)
(-0.00240551 1.18497 2.1007e-05)
(-0.00191985 1.13715 1.67674e-05)
(-0.00145782 1.06015 1.27338e-05)
(-0.00103285 0.951977 9.02333e-06)
(-0.000659312 0.81025 5.76153e-06)
(-0.000354727 0.632163 3.10107e-06)
(-0.00013282 0.414251 1.1625e-06)
(-9.55035e-06 0.152267 1.00339e-07)
(-0.0493067 -0.307256 0.000430463)
(-0.0426937 -0.072887 0.000372817)
(-0.0307722 0.144549 0.000268758)
(-0.0258683 0.3453 0.000225935)
(-0.0216278 0.524645 0.000188873)
(-0.0193586 0.683684 0.000169013)
(-0.0176135 0.822864 0.00015378)
(-0.0161055 0.941698 0.000140613)
(-0.0146537 1.03958 0.00012794)
(-0.0132019 1.11577 0.000115268)
(-0.0117277 1.16943 0.000102399)
(-0.0102314 1.19958 8.9338e-05)
(-0.00872504 1.20511 7.61887e-05)
(-0.00722921 1.18472 6.3131e-05)
(-0.00577115 1.1369 5.04024e-05)
(-0.00438374 1.05993 3.82899e-05)
(-0.00310698 0.951782 2.71426e-05)
(-0.00198358 0.810093 1.73332e-05)
(-0.00106551 0.63205 9.31491e-06)
(-0.000393918 0.414184 3.4498e-06)
(-2.36022e-05 0.152242 2.65763e-07)
(-0.0555612 -0.308983 0.000485048)
(-0.0510479 -0.0757675 0.000445709)
(-0.0447602 0.142073 0.000390818)
(-0.0400114 0.343597 0.000349354)
(-0.0352094 0.523576 0.000307427)
(-0.0319848 0.683052 0.000279246)
(-0.0292673 0.822391 0.000255525)
(-0.0268187 0.941267 0.000234147)
(-0.0244253 1.03914 0.000213255)
(-0.0220169 1.1153 0.000192232)
(-0.0195647 1.16893 0.000170826)
(-0.0170725 1.19907 0.000149073)
(-0.0145621 1.20458 0.000127159)
(-0.0120685 1.18418 0.00010539)
(-0.00963719 1.13638 8.41656e-05)
(-0.00732298 1.05944 6.39619e-05)
(-0.00519207 0.951337 4.53571e-05)
(-0.00331491 0.809712 2.89661e-05)
(-0.00177746 0.631752 1.55391e-05)
(-0.000648917 0.413987 5.68473e-06)
(-3.25077e-05 0.152165 3.88872e-07)
(-0.0633358 -0.309354 0.000552915)
(-0.0605368 -0.0763723 0.000528503)
(-0.0570876 0.141153 0.000498378)
(-0.0529762 0.342294 0.000462507)
(-0.0481744 0.522513 0.000420603)
(-0.0443217 0.682285 0.000386952)
(-0.0408005 0.821745 0.000356215)
(-0.0374848 0.940645 0.000327269)
(-0.0341838 1.03849 0.000298455)
(-0.0308344 1.11461 0.000269218)
(-0.0274113 1.16819 0.000239338)
(-0.0239265 1.19829 0.000208919)
(-0.020413 1.20379 0.000178249)
(-0.0169214 1.18339 0.00014777)
(-0.0135161 1.13561 0.000118042)
(-0.0102738 1.05871 8.97355e-05)
(-0.00728666 0.95068 6.36552e-05)
(-0.00465268 0.809154 4.06558e-05)
(-0.00249182 0.631319 2.17841e-05)
(-0.000902109 0.413703 7.90272e-06)
(-4.07151e-05 0.152057 4.98897e-07)
(-0.0721752 -0.308789 0.000630056)
(-0.0706574 -0.0759728 0.000616823)
(-0.068693 0.141047 0.000599672)
(-0.0652292 0.341467 0.000569463)
(-0.0606418 0.521612 0.000529433)
(-0.0563836 0.681481 0.000492253)
(-0.0522019 0.820977 0.000455753)
(-0.0480929 0.939855 0.000419884)
(-0.0439222 1.03764 0.000383479)
(-0.0396502 1.11369 0.000346189)
(-0.0352652 1.16721 0.000307914)
(-0.0307916 1.19726 0.000268863)
(-0.0262764 1.20273 0.00022945)
(-0.0217869 1.18233 0.000190259)
(-0.0174069 1.13458 0.000152022)
(-0.0132351 1.05774 0.000115601)
(-0.00938986 0.949805 8.20285e-05)
(-0.00599642 0.80841 5.23977e-05)
(-0.003209 0.630742 2.80539e-05)
(-0.00115521 0.413326 1.012e-05)
(-4.85331e-05 0.151916 6.05125e-07)
(-0.0818226 -0.307431 0.000714255)
(-0.0812142 -0.074866 0.00070896)
(-0.0800401 0.141545 0.000698719)
(-0.0770917 0.341105 0.000673011)
(-0.0727543 0.520932 0.000635166)
(-0.0682187 0.680701 0.000595574)
(-0.0634814 0.820125 0.000554225)
(-0.0586427 0.938918 0.000511989)
(-0.0536382 1.0366 0.000468307)
(-0.0484626 1.11256 0.00042313)
(-0.0431251 1.16599 0.000376541)
(-0.0376669 1.19598 0.000328897)
(-0.0321516 1.20141 0.000280753)
(-0.0266643 1.18101 0.000232851)
(-0.0213088 1.13329 0.000186099)
(-0.0162062 1.05652 0.000141552)
(-0.0115011 0.94871 0.000100472)
(-0.00734584 0.807478 6.41892e-05)
(-0.00392926 0.630018 3.43506e-05)
(-0.00140909 0.412854 1.23441e-05)
(-5.62241e-05 0.151741 7.10883e-07)
(-0.0921247 -0.305404 0.000804174)
(-0.0921394 -0.0732062 0.00080432)
(-0.0913815 0.142513 0.000797718)
(-0.0887866 0.341152 0.000775095)
(-0.0846453 0.520481 0.000738966)
(-0.0798888 0.679979 0.000697451)
(-0.0746621 0.819218 0.000651833)
(-0.0691421 0.937853 0.000603654)
(-0.0633343 1.03539 0.000552961)
(-0.057272 1.11121 0.000500045)
(-0.0509909 1.16453 0.000445219)
(-0.0445522 1.19444 0.000389017)
(-0.0380382 1.19982 0.000332155)
(-0.031553 1.17942 0.000275543)
(-0.0252212 1.13174 0.000220267)
(-0.0191866 1.05507 0.000167584)
(-0.0136198 0.947395 0.00011898)
(-0.00870066 0.806357 7.60278e-05)
(-0.00465272 0.629146 4.06753e-05)
(-0.0016643 0.412285 1.458e-05)
(-6.40756e-05 0.151532 8.1839e-07)
(-0.102997 -0.302818 0.000899069)
(-0.103419 -0.0711097 0.000902777)
(-0.102858 0.143852 0.0008979)
(-0.100464 0.341546 0.000877027)
(-0.0964275 0.520246 0.000841816)
(-0.0914569 0.679328 0.000798438)
(-0.085774 0.818273 0.000748841)
(-0.0796049 0.936671 0.000694998)
(-0.0730165 1.03401 0.000637493)
(-0.0660811 1.10965 0.000576957)
(-0.0588636 1.16284 0.000513959)
(-0.0514478 1.19264 0.000449226)
(-0.043936 1.19798 0.000383655)
(-0.0364527 1.17757 0.00031833)
(-0.0291436 1.12994 0.000254524)
(-0.0221756 1.05337 0.000193691)
(-0.0157455 0.945857 0.00013755)
(-0.0100606 0.805046 8.79113e-05)
(-0.00537938 0.628125 4.7028e-05)
(-0.00192105 0.411619 1.68292e-05)
(-7.21889e-05 0.151288 9.28515e-07)
(-0.114394 -0.299759 0.000998552)
(-0.115059 -0.0686558 0.00100438)
(-0.114553 0.145492 0.000999985)
(-0.112225 0.342226 0.000979691)
(-0.108191 0.5202 0.000944506)
(-0.102982 0.678748 0.000899052)
(-0.0968501 0.817297 0.000845537)
(-0.0900482 0.935382 0.000786172)
(-0.0826932 1.03246 0.000721978)
(-0.0748941 1.10789 0.000653903)
(-0.0667454 1.16091 0.000582776)
(-0.0583545 1.1906 0.000509533)
(-0.0498453 1.19587 0.000435256)
(-0.0413632 1.17545 0.000361212)
(-0.0330758 1.12787 0.000288864)
(-0.0251728 1.05142 0.00021987)
(-0.0178778 0.944099 0.000156178)
(-0.0114254 0.803546 9.98372e-05)
(-0.00610918 0.626957 5.34081e-05)
(-0.00217942 0.410857 1.90928e-05)
(-8.06069e-05 0.15101 1.04162e-06)
(-0.126294 -0.296293 0.00110243)
(-0.127073 -0.0658997 0.00110925)
(-0.126516 0.14738 0.00110442)
(-0.124139 0.343141 0.0010837)
(-0.120007 0.520314 0.00104766)
(-0.114517 0.67823 0.000999746)
(-0.107923 0.816292 0.000942206)
(-0.100491 0.933989 0.00087734)
(-0.092375 1.03075 0.000806507)
(-0.0837166 1.10593 0.000730932)
(-0.074639 1.15875 0.000651698)
(-0.0652737 1.1883 0.000569949)
(-0.0557665 1.19349 0.000486961)
(-0.0462845 1.17307 0.000404189)
(-0.0370173 1.12555 0.000323287)
(-0.0281779 1.04923 0.000246118)
(-0.0200163 0.942118 0.00017486)
(-0.0127948 0.801855 0.000111803)
(-0.00684197 0.625639 5.98143e-05)
(-0.0024394 0.409997 2.13704e-05)
(-8.93259e-05 0.150696 1.15769e-06)
(-0.138688 -0.292473 0.00121062)
(-0.139474 -0.0628836 0.00121751)
(-0.138783 0.149477 0.0012115)
(-0.136256 0.344244 0.00118947)
(-0.131931 0.520555 0.00115174)
(-0.126105 0.677759 0.00110091)
(-0.119024 0.815252 0.00103911)
(-0.110952 0.932491 0.00096867)
(-0.102073 1.02888 0.000891177)
(-0.0925549 1.10377 0.000808099)
(-0.0825479 1.15636 0.000720753)
(-0.072207 1.18575 0.000630489)
(-0.0617005 1.19086 0.000538777)
(-0.0512168 1.17042 0.000447261)
(-0.040968 1.12297 0.00035779)
(-0.0311905 1.04679 0.000272431)
(-0.0221607 0.939914 0.000193593)
(-0.0141684 0.799974 0.000123806)
(-0.00757757 0.624172 6.62451e-05)
(-0.00270091 0.40904 2.36614e-05)
(-9.83229e-05 0.150347 1.27653e-06)
(-0.151572 -0.288341 0.00132309)
(-0.152275 -0.0596415 0.00132925)
(-0.151375 0.151747 0.00132142)
(-0.148611 0.345497 0.00129733)
(-0.144004 0.520894 0.00125714)
(-0.137783 0.677317 0.00120286)
(-0.130179 0.814169 0.0011365)
(-0.12145 0.930885 0.00106032)
(-0.111799 1.02685 0.000976089)
(-0.101416 1.1014 0.000885463)
(-0.0904758 1.15374 0.000789973)
(-0.0791565 1.18295 0.00069117)
(-0.067648 1.18796 0.000590711)
(-0.0561603 1.1675 0.000490431)
(-0.0449278 1.12012 0.000392373)
(-0.0342103 1.04411 0.000298806)
(-0.0243106 0.937487 0.000212374)
(-0.0155461 0.797901 0.000135844)
(-0.0083158 0.622555 7.26988e-05)
(-0.00296383 0.407984 2.59647e-05)
(-0.000107569 0.149963 1.39781e-06)
(-0.164948 -0.283933 0.00143985)
(-0.165486 -0.0562024 0.00144458)
(-0.164309 0.154163 0.00143434)
(-0.161228 0.346864 0.00140747)
(-0.156258 0.521301 0.00136412)
(-0.149582 0.676883 0.00130587)
(-0.141414 0.813031 0.00123458)
(-0.132001 0.929165 0.00115244)
(-0.121563 1.02466 0.00106134)
(-0.110306 1.09883 0.000963082)
(-0.0984266 1.15088 0.000859394)
(-0.0861242 1.1799 0.000752009)
(-0.0736098 1.1848 0.000642771)
(-0.0611152 1.16432 0.0005337)
(-0.0488965 1.11702 0.000427033)
(-0.0372369 1.04118 0.000325242)
(-0.0264657 0.934838 0.0002312)
(-0.0169274 0.795637 0.000147914)
(-0.00905644 0.620788 7.91737e-05)
(-0.00322803 0.406831 2.82792e-05)
(-0.000117032 0.149543 1.52128e-06)
(-0.178816 -0.279279 0.00156091)
(-0.179117 -0.0525925 0.00156357)
(-0.177598 0.156697 0.00155034)
(-0.174126 0.348316 0.00152007)
(-0.168718 0.521749 0.00147289)
(-0.161525 0.676438 0.00141013)
(-0.152747 0.811824 0.00133352)
(-0.142622 0.927321 0.00124516)
(-0.131376 1.02229 0.00114701)
(-0.119232 1.09605 0.00104101)
(-0.106404 1.14779 0.000929048)
(-0.093112 1.17659 0.000813024)
(-0.0795871 1.18137 0.000694965)
(-0.0660817 1.16088 0.000577071)
(-0.052874 1.11365 0.00046177)
(-0.0402702 1.03801 0.000351736)
(-0.0286256 0.931964 0.000250068)
(-0.0183122 0.793181 0.000160014)
(-0.00979929 0.618871 8.56678e-05)
(-0.00349338 0.405579 3.06039e-05)
(-0.000126683 0.149087 1.6466e-06)
(-0.19318 -0.274407 0.0016863)
(-0.193173 -0.0488356 0.00168628)
(-0.191249 0.159326 0.00166951)
(-0.187317 0.349825 0.00163523)
(-0.181401 0.522211 0.00158361)
(-0.173632 0.67596 0.00151582)
(-0.164195 0.810534 0.00143347)
(-0.153323 0.925346 0.00133859)
(-0.141247 1.01976 0.00123319)
(-0.128199 1.09306 0.0011193)
(-0.114412 1.14446 0.000998964)
(-0.100122 1.17302 0.000874232)
(-0.0855804 1.17767 0.000747299)
(-0.07106 1.15716 0.000620545)
(-0.0568601 1.11003 0.000496582)
(-0.0433097 1.03459 0.000378284)
(-0.03079 0.928866 0.000268976)
(-0.0197 0.790533 0.000172142)
(-0.0105441 0.616804 9.21794e-05)
(-0.00375977 0.404228 3.29376e-05)
(-0.000136497 0.148595 1.77357e-06)
(-0.20804 -0.269341 0.00181603)
(-0.207658 -0.0449547 0.00181273)
(-0.205267 0.162025 0.00179189)
(-0.200811 0.351364 0.00175303)
(-0.19432 0.522665 0.00169639)
(-0.185914 0.67543 0.00162305)
(-0.175772 0.809145 0.00153454)
(-0.164117 0.923227 0.00143282)
(-0.151182 1.01703 0.00131994)
(-0.137212 1.08986 0.001198)
(-0.122452 1.14089 0.00106917)
(-0.107155 1.1692 0.000935645)
(-0.0915905 1.17371 0.00079978)
(-0.0760502 1.15317 0.000664122)
(-0.0608546 1.10614 0.000531468)
(-0.0463551 1.03092 0.000404883)
(-0.0329585 0.925543 0.000287919)
(-0.0210907 0.787692 0.000184293)
(-0.0112907 0.614585 9.87064e-05)
(-0.00402706 0.402778 3.52792e-05)
(-0.00014645 0.148066 1.90194e-06)
(-0.223399 -0.264106 0.00195011)
(-0.222576 -0.0409718 0.00194296)
(-0.219657 0.164772 0.00191751)
(-0.214613 0.352911 0.00187351)
(-0.207483 0.523086 0.00181131)
(-0.198384 0.674827 0.00173191)
(-0.187487 0.807641 0.00163682)
(-0.17501 0.920952 0.00152793)
(-0.16119 1.01412 0.00140731)
(-0.146276 1.08643 0.00127714)
(-0.130528 1.13707 0.00113968)
(-0.114213 1.16511 0.000997275)
(-0.0976177 1.16948 0.000852411)
(-0.0810521 1.14892 0.000707803)
(-0.0648571 1.10198 0.000566423)
(-0.0494059 1.027 0.000431531)
(-0.0351307 0.921995 0.000306895)
(-0.0224838 0.784658 0.000196467)
(-0.0120389 0.612215 0.000105247)
(-0.00429514 0.401228 3.76277e-05)
(-0.000156526 0.147501 2.03153e-06)
(-0.239256 -0.258725 0.00208853)
(-0.237927 -0.0369088 0.00207697)
(-0.234418 0.167546 0.00204638)
(-0.228724 0.354443 0.00199671)
(-0.220895 0.523453 0.0019284)
(-0.211047 0.674132 0.00184246)
(-0.199347 0.806007 0.00174036)
(-0.186009 0.918511 0.00162396)
(-0.171273 1.011 0.00149535)
(-0.155394 1.08277 0.00135675)
(-0.138642 1.133 0.00121053)
(-0.121297 1.16076 0.00105913)
(-0.103662 1.16497 0.000905192)
(-0.0860655 1.14439 0.000751583)
(-0.0688672 1.09757 0.000601445)
(-0.0524617 1.02283 0.000458221)
(-0.0373062 0.918222 0.0003259)
(-0.0238791 0.781432 0.000208659)
(-0.0127884 0.609694 0.000111799)
(-0.00456391 0.39958 3.99822e-05)
(-0.000166707 0.1469 2.16218e-06)
(-0.255611 -0.253221 0.00223131)
(-0.25371 -0.0327876 0.00221476)
(-0.24955 0.170326 0.00217848)
(-0.243146 0.355937 0.00212261)
(-0.234558 0.523744 0.00204768)
(-0.223906 0.673326 0.00195473)
(-0.211356 0.804227 0.0018452)
(-0.197119 0.91589 0.00172095)
(-0.181436 1.00768 0.00158407)
(-0.164568 1.07888 0.00143684)
(-0.146794 1.12868 0.0012817)
(-0.128407 1.15614 0.00112121)
(-0.109724 1.16019 0.000958122)
(-0.0910899 1.13959 0.00079546)
(-0.0728842 1.09288 0.000636527)
(-0.0555219 1.01841 0.00048495)
(-0.0394844 0.914223 0.000344928)
(-0.0252762 0.778012 0.000220866)
(-0.013539 0.607022 0.000118361)
(-0.00483325 0.397832 4.23418e-05)
(-0.000176983 0.146262 2.29378e-06)
(-0.27246 -0.247618 0.00237839)
(-0.269921 -0.0286299 0.00235628)
(-0.265049 0.17309 0.00231379)
(-0.257875 0.357373 0.0022512)
(-0.248472 0.523941 0.00216915)
(-0.236963 0.672391 0.00206872)
(-0.223515 0.802286 0.00195136)
(-0.208339 0.913077 0.00181891)
(-0.191678 1.00413 0.0016735)
(-0.173797 1.07474 0.00151743)
(-0.154984 1.12409 0.00135321)
(-0.135542 1.15125 0.00118351)
(-0.115801 1.15514 0.00101119)
(-0.0961244 1.13451 0.000839425)
(-0.0769073 1.08793 0.000671663)
(-0.0585856 1.01374 0.00051171)
(-0.0416647 0.909998 0.000363975)
(-0.0266745 0.774398 0.000233085)
(-0.0142905 0.604197 0.000124931)
(-0.00510305 0.395984 4.47054e-05)
(-0.000187342 0.145588 2.4262e-06)
(-0.289798 -0.241938 0.00252975)
(-0.286556 -0.0244582 0.0025015)
(-0.280909 0.175817 0.00245224)
(-0.272906 0.35873 0.00238242)
(-0.262632 0.524022 0.00229277)
(-0.250214 0.671309 0.00218441)
(-0.235824 0.800167 0.00205882)
(-0.219671 0.91006 0.00191785)
(-0.202001 1.00036 0.00176363)
(-0.183083 1.07036 0.0015985)
(-0.163212 1.11924 0.00142505)
(-0.142701 1.14608 0.00124602)
(-0.121895 1.1498 0.0010644)
(-0.101168 1.12915 0.000883469)
(-0.0809355 1.08272 0.000706843)
(-0.0616521 1.00882 0.000538494)
(-0.0438466 0.905546 0.000383036)
(-0.0280738 0.770591 0.000245313)
(-0.0150425 0.601221 0.000131505)
(-0.00537321 0.394036 4.70721e-05)
(-0.000197776 0.144877 2.55936e-06)
(-0.307619 -0.236207 0.00268533)
(-0.303606 -0.020295 0.00265035)
(-0.297122 0.178485 0.00259379)
(-0.288233 0.359987 0.00251623)
(-0.277032 0.52397 0.00241849)
(-0.263656 0.670063 0.00230177)
(-0.248279 0.797858 0.00216756)
(-0.231111 0.906826 0.00201773)
(-0.212402 0.996347 0.00185443)
(-0.192423 1.06572 0.00168005)
(-0.171476 1.11412 0.00149721)
(-0.149884 1.14064 0.00130874)
(-0.128001 1.14418 0.00111773)
(-0.106219 1.12352 0.000927581)
(-0.0849677 1.07723 0.000742057)
(-0.0647204 1.00365 0.000565294)
(-0.0460292 0.900867 0.000402103)
(-0.0294735 0.76659 0.000257543)
(-0.0157949 0.598094 0.000138082)
(-0.00564362 0.391989 4.9441e-05)
(-0.000208279 0.144129 2.69317e-06)
(-0.325913 -0.230449 0.00284504)
(-0.321061 -0.0161634 0.00280273)
(-0.313679 0.181072 0.00273833)
(-0.303844 0.361125 0.00265252)
(-0.291664 0.523765 0.00254624)
(-0.277282 0.668636 0.00242073)
(-0.260875 0.795342 0.00227753)
(-0.242657 0.903363 0.00211853)
(-0.222877 0.992087 0.0019459)
(-0.201814 1.06081 0.00176205)
(-0.179773 1.10873 0.00156966)
(-0.157087 1.13491 0.00137164)
(-0.13412 1.13828 0.00117116)
(-0.111277 1.11761 0.000971744)
(-0.0890023 1.07147 0.000777293)
(-0.0677894 0.99823 0.000592099)
(-0.0482117 0.895962 0.000421169)
(-0.030873 0.762395 0.000269772)
(-0.0165473 0.594814 0.00014466)
(-0.00591416 0.389842 5.18111e-05)
(-0.000218843 0.143344 2.82756e-06)
(-0.344669 -0.22469 0.00300878)
(-0.33891 -0.0120871 0.00295855)
(-0.330566 0.183559 0.00288576)
(-0.31973 0.362123 0.00279121)
(-0.306519 0.523389 0.00267592)
(-0.291083 0.667011 0.00254122)
(-0.273605 0.792606 0.00238868)
(-0.254301 0.899661 0.00222019)
(-0.233423 0.98757 0.00203797)
(-0.211252 1.05564 0.00184446)
(-0.188101 1.10305 0.00164238)
(-0.164308 1.12889 0.00143469)
(-0.140248 1.13209 0.00122467)
(-0.116338 1.11141 0.00101594)
(-0.0930376 1.06545 0.000812536)
(-0.0708576 0.992555 0.000618898)
(-0.0503932 0.890829 0.000440226)
(-0.0322717 0.758006 0.000281994)
(-0.0172993 0.591383 0.000151234)
(-0.00618471 0.387595 5.41812e-05)
(-0.000229463 0.142522 2.96248e-06)
(-0.363872 -0.218956 0.00317642)
(-0.357136 -0.00808993 0.00311767)
(-0.347769 0.185921 0.00303595)
(-0.335875 0.362963 0.00293216)
(-0.321582 0.522825 0.00280743)
(-0.305048 0.665175 0.00266314)
(-0.28646 0.789637 0.0025009)
(-0.266036 0.895708 0.00232265)
(-0.244033 0.982787 0.00213061)
(-0.220733 1.05018 0.00192724)
(-0.196455 1.09709 0.00171532)
(-0.171543 1.12259 0.00149787)
(-0.146383 1.12561 0.00127824)
(-0.1214 1.10493 0.00106015)
(-0.0970718 1.05915 0.000847768)
(-0.0739237 0.986628 0.000645679)
(-0.0525727 0.88547 0.000459265)
(-0.033669 0.753424 0.000294204)
(-0.0180506 0.5878 0.000157802)
(-0.00645513 0.385249 5.65502e-05)
(-0.000240132 0.141664 3.09782e-06)
(-0.383503 -0.213275 0.0033478)
(-0.375721 -0.00419636 0.00327993)
(-0.365269 0.188139 0.00318873)
(-0.352263 0.363623 0.00307523)
(-0.336839 0.522055 0.00294063)
(-0.319164 0.66311 0.00278638)
(-0.299428 0.786421 0.00261413)
(-0.277854 0.891493 0.00242583)
(-0.254699 0.97773 0.00222373)
(-0.23025 1.04445 0.00201033)
(-0.20483 1.09084 0.00178845)
(-0.178789 1.11599 0.00156113)
(-0.15252 1.11884 0.00133183)
(-0.126461 1.09817 0.00110435)
(-0.101103 1.05258 0.000882971)
(-0.076986 0.980449 0.000672427)
(-0.0547489 0.879884 0.000478276)
(-0.0350641 0.748649 0.000306394)
(-0.0188008 0.584066 0.000164361)
(-0.00672528 0.382802 5.89169e-05)
(-0.000250846 0.140769 3.23353e-06)
(-0.403541 -0.207674 0.00352273)
(-0.394645 -0.000430977 0.00344513)
(-0.383047 0.19019 0.00334393)
(-0.368875 0.364086 0.00322026)
(-0.352273 0.521063 0.00307538)
(-0.333416 0.660804 0.00291081)
(-0.312497 0.782948 0.00272823)
(-0.289743 0.887007 0.00252963)
(-0.265413 0.972391 0.00231728)
(-0.239797 1.03842 0.00209368)
(-0.21322 1.08429 0.0018617)
(-0.18604 1.1091 0.00162445)
(-0.158656 1.11178 0.00138541)
(-0.131518 1.09112 0.00114851)
(-0.105128 1.04574 0.000918124)
(-0.0800428 0.974016 0.000699125)
(-0.0569206 0.874071 0.000497248)
(-0.0364563 0.74368 0.000318559)
(-0.0195496 0.580181 0.000170906)
(-0.00699501 0.380257 6.12798e-05)
(-0.000261597 0.139837 3.36952e-06)
(-0.42396 -0.202183 0.00370099)
(-0.413881 0.00318149 0.00361307)
(-0.401078 0.192053 0.00350135)
(-0.385689 0.364333 0.00336705)
(-0.367865 0.519833 0.00321151)
(-0.347787 0.658242 0.00303628)
(-0.325653 0.779205 0.00284309)
(-0.301691 0.882239 0.00263396)
(-0.276164 0.966762 0.00241115)
(-0.249363 1.03209 0.00217721)
(-0.221618 1.07744 0.00193503)
(-0.19329 1.1019 0.00168776)
(-0.164787 1.10442 0.00143895)
(-0.136567 1.08379 0.0011926)
(-0.109144 1.03863 0.000953203)
(-0.0830919 0.967332 0.000725758)
(-0.0590864 0.868032 0.000516168)
(-0.0378445 0.738519 0.00033069)
(-0.0202963 0.576146 0.000177434)
(-0.00726416 0.377612 6.36376e-05)
(-0.000272379 0.138868 3.50571e-06)
(-0.44473 -0.19683 0.00388232)
(-0.433402 0.0066164 0.00378349)
(-0.419337 0.193707 0.00366076)
(-0.402681 0.364346 0.0035154)
(-0.383593 0.518349 0.00334882)
(-0.362259 0.655411 0.00316262)
(-0.338879 0.775181 0.00295857)
(-0.313686 0.877183 0.00273868)
(-0.286942 0.960837 0.00250525)
(-0.258941 1.02547 0.00226084)
(-0.230017 1.0703 0.00200837)
(-0.200534 1.09441 0.00175101)
(-0.170908 1.09677 0.0014924)
(-0.141604 1.07617 0.00123659)
(-0.11315 1.03125 0.000988183)
(-0.0861314 0.960396 0.000752306)
(-0.0612449 0.861768 0.000535025)
(-0.039228 0.733166 0.000342779)
(-0.0210406 0.57196 0.000183941)
(-0.00753254 0.374869 6.59888e-05)
(-0.000283185 0.137863 3.64198e-06)
(-0.465818 -0.191644 0.00406642)
(-0.453176 0.00984945 0.00395613)
(-0.437795 0.195131 0.0038219)
(-0.419825 0.364108 0.00366508)
(-0.399434 0.516598 0.00348712)
(-0.376811 0.6523 0.00328967)
(-0.352159 0.770868 0.00307451)
(-0.325711 0.871829 0.00284368)
(-0.297734 0.954609 0.00259948)
(-0.268521 1.01854 0.00234449)
(-0.238408 1.06284 0.00208164)
(-0.207766 1.08661 0.00181416)
(-0.177013 1.08882 0.00154571)
(-0.146625 1.06827 0.00128044)
(-0.11714 1.02359 0.00102304)
(-0.0891589 0.953208 0.00077875)
(-0.0633945 0.855279 0.000553803)
(-0.0406058 0.727621 0.000354818)
(-0.0217819 0.567624 0.000190421)
(-0.00779998 0.372027 6.83316e-05)
(-0.000294007 0.136821 3.77827e-06)
(-0.487186 -0.186653 0.00425296)
(-0.473168 0.0128569 0.00413066)
(-0.456418 0.196306 0.00398449)
(-0.437093 0.363602 0.00381584)
(-0.415363 0.514566 0.00362619)
(-0.391421 0.648897 0.00341723)
(-0.365473 0.766255 0.00319076)
(-0.337753 0.86617 0.00294881)
(-0.308526 0.948074 0.00269371)
(-0.278091 1.0113 0.00242805)
(-0.246783 1.05508 0.00215477)
(-0.214977 1.07852 0.00187712)
(-0.183097 1.08057 0.00159883)
(-0.151626 1.06008 0.00132411)
(-0.121113 1.01567 0.00105773)
(-0.0921719 0.94577 0.000805067)
(-0.0655335 0.848566 0.000572489)
(-0.0419767 0.721887 0.000366797)
(-0.0225196 0.56314 0.000196871)
(-0.00806627 0.369087 7.06644e-05)
(-0.000304836 0.135742 3.91446e-06)
(-0.50879 -0.181885 0.00444157)
(-0.493339 0.0156159 0.00430676)
(-0.475172 0.197213 0.00414823)
(-0.454452 0.362814 0.00396739)
(-0.431352 0.512239 0.00376578)
(-0.406066 0.645193 0.00354509)
(-0.378801 0.761335 0.00330712)
(-0.349792 0.860201 0.00305392)
(-0.319306 0.941227 0.00278783)
(-0.28764 1.00375 0.00251142)
(-0.255133 1.04701 0.00222767)
(-0.22216 1.07011 0.00193985)
(-0.189153 1.07203 0.00165172)
(-0.156602 1.0516 0.00136757)
(-0.125065 1.00747 0.00109225)
(-0.0951679 0.938083 0.000831236)
(-0.0676601 0.84163 0.000591067)
(-0.0433397 0.715962 0.000378707)
(-0.0232532 0.558508 0.000203284)
(-0.0083312 0.366049 7.29852e-05)
(-0.000315663 0.134628 4.05044e-06)
(-0.530583 -0.177366 0.00463184)
(-0.513646 0.0181049 0.00448405)
(-0.49402 0.197834 0.00431278)
(-0.47187 0.361728 0.00411946)
(-0.447372 0.509608 0.00390565)
(-0.42072 0.641178 0.00367303)
(-0.392122 0.756102 0.00342342)
(-0.361812 0.853917 0.00315887)
(-0.330057 0.934064 0.0028817)
(-0.297155 0.995889 0.0025945)
(-0.263446 1.03863 0.00230026)
(-0.229308 1.0614 0.00200226)
(-0.195176 1.06319 0.00170432)
(-0.161548 1.04284 0.00141076)
(-0.128991 0.999005 0.00112654)
(-0.0981442 0.930147 0.000857232)
(-0.0697725 0.834472 0.00060952)
(-0.0446936 0.70985 0.000390538)
(-0.0239821 0.553728 0.000209656)
(-0.00859455 0.362915 7.52923e-05)
(-0.000326479 0.133478 4.18609e-06)
(-0.552515 -0.173123 0.00482331)
(-0.534044 0.0203036 0.00466213)
(-0.512921 0.198154 0.00447779)
(-0.489312 0.360334 0.00427174)
(-0.463392 0.506662 0.00404551)
(-0.435357 0.636846 0.00380082)
(-0.405413 0.750549 0.00353947)
(-0.373793 0.847313 0.00326348)
(-0.340764 0.926582 0.00297519)
(-0.306624 0.987709 0.00267718)
(-0.271713 1.02993 0.00237244)
(-0.236411 1.05238 0.00206429)
(-0.201159 1.05405 0.00175656)
(-0.166459 1.03379 0.00145365)
(-0.132889 0.990272 0.00116057)
(-0.101098 0.921965 0.000883031)
(-0.0718687 0.827095 0.000627832)
(-0.0460373 0.703551 0.000402279)
(-0.0247055 0.548803 0.00021598)
(-0.00885609 0.359684 7.75834e-05)
(-0.000337272 0.132291 4.32129e-06)
(-0.574529 -0.169177 0.0050155)
(-0.554483 0.0221938 0.00484057)
(-0.531831 0.198159 0.00464288)
(-0.506739 0.358619 0.00442389)
(-0.47938 0.503394 0.0041851)
(-0.449949 0.632189 0.00392823)
(-0.418651 0.744672 0.00365504)
(-0.385716 0.840386 0.00336758)
(-0.351411 0.918781 0.00306815)
(-0.316033 0.979212 0.00275933)
(-0.279922 1.02093 0.00244412)
(-0.243461 1.04307 0.00212585)
(-0.207094 1.04462 0.00180839)
(-0.17133 1.02446 0.00149618)
(-0.136753 0.981274 0.00119432)
(-0.104026 0.913539 0.000908606)
(-0.0739466 0.8195 0.000645985)
(-0.0473693 0.697067 0.000413918)
(-0.0254229 0.543732 0.000222252)
(-0.00911558 0.356358 7.98566e-05)
(-0.000348033 0.131069 4.45591e-06)
(-0.596566 -0.165551 0.00520789)
(-0.574911 0.0237596 0.00501892)
(-0.550706 0.197835 0.00480767)
(-0.524112 0.356575 0.00457557)
(-0.495302 0.499795 0.00432411)
(-0.464468 0.627204 0.00405499)
(-0.431811 0.738468 0.00376994)
(-0.39756 0.833135 0.00347099)
(-0.361981 0.910658 0.00316043)
(-0.325368 0.970399 0.00284084)
(-0.288063 1.01161 0.0025152)
(-0.25045 1.03344 0.00218687)
(-0.212975 1.0349 0.00185974)
(-0.176154 1.01486 0.00153831)
(-0.14058 0.972012 0.00122775)
(-0.106926 0.90487 0.000933932)
(-0.0760043 0.811689 0.00066396)
(-0.0486885 0.690399 0.000425445)
(-0.0261336 0.538519 0.000228465)
(-0.00937277 0.352937 8.21097e-05)
(-0.00035875 0.129812 4.58979e-06)
(-0.618563 -0.162262 0.00539993)
(-0.595274 0.0249873 0.0051967)
(-0.569497 0.197174 0.00497173)
(-0.541392 0.354194 0.00472643)
(-0.511124 0.495863 0.00446225)
(-0.478884 0.621887 0.00418085)
(-0.444868 0.731935 0.00388395)
(-0.409305 0.825558 0.00357354)
(-0.372456 0.902214 0.00325189)
(-0.334615 0.96127 0.00292158)
(-0.296123 1.00199 0.00258559)
(-0.257367 1.02352 0.00224727)
(-0.218794 1.02488 0.00191056)
(-0.180927 1.00497 0.00157999)
(-0.144365 0.96249 0.00126081)
(-0.109793 0.895961 0.000958982)
(-0.0780396 0.803664 0.00068174)
(-0.0499935 0.68355 0.000436849)
(-0.0268368 0.533163 0.000234612)
(-0.00962741 0.349423 8.43404e-05)
(-0.00036941 0.12852 4.7228e-06)
(-0.640454 -0.159325 0.00559105)
(-0.615515 0.0258664 0.00537341)
(-0.588157 0.196168 0.00513465)
(-0.558535 0.351472 0.0048761)
(-0.52681 0.491592 0.0045992)
(-0.493166 0.616236 0.00430555)
(-0.457798 0.725073 0.00399684)
(-0.420929 0.817657 0.00367503)
(-0.382819 0.89345 0.00334237)
(-0.343759 0.951826 0.00300142)
(-0.304092 0.992053 0.00265516)
(-0.264203 1.0133 0.00230696)
(-0.224544 1.01458 0.00196077)
(-0.185642 0.994809 0.00162117)
(-0.148104 0.952709 0.00129346)
(-0.112626 0.886815 0.000983727)
(-0.0800502 0.795427 0.000699305)
(-0.0512829 0.676521 0.000448116)
(-0.0275319 0.527667 0.000240689)
(-0.00987924 0.345816 8.65464e-05)
(-0.000380001 0.127194 4.85479e-06)
(-0.66217 -0.15675 0.00578064)
(-0.635574 0.0263894 0.00554855)
(-0.606636 0.194812 0.00529597)
(-0.5755 0.348405 0.00502421)
(-0.542323 0.486983 0.00473464)
(-0.507284 0.610252 0.00442881)
(-0.470574 0.717883 0.00410838)
(-0.43241 0.809433 0.00377527)
(-0.393051 0.884369 0.00343171)
(-0.352786 0.942072 0.00308024)
(-0.311956 0.981817 0.00272383)
(-0.270948 1.00278 0.00236586)
(-0.230217 1.00399 0.00201031)
(-0.190294 0.984377 0.00166179)
(-0.151793 0.942674 0.00132568)
(-0.115421 0.877435 0.00100814)
(-0.0820341 0.786982 0.000716635)
(-0.0525555 0.669316 0.000459236)
(-0.028218 0.522033 0.000246687)
(-0.010128 0.342117 8.87256e-05)
(-0.000390512 0.125833 4.98562e-06)
(-0.683641 -0.154546 0.00596809)
(-0.655393 0.0265521 0.00572158)
(-0.624881 0.193104 0.00545527)
(-0.592242 0.344995 0.00517039)
(-0.557627 0.482037 0.00486825)
(-0.521208 0.603936 0.00455038)
(-0.48317 0.710366 0.00421836)
(-0.443728 0.800888 0.00387408)
(-0.403135 0.874974 0.00351976)
(-0.361681 0.93201 0.00315791)
(-0.319705 0.97128 0.00279149)
(-0.277593 0.991968 0.00242389)
(-0.235805 0.993126 0.00205911)
(-0.194876 0.973678 0.00170181)
(-0.155428 0.932387 0.00135742)
(-0.118175 0.867824 0.00103219)
(-0.083989 0.778332 0.000733713)
(-0.0538097 0.661935 0.000470195)
(-0.0288946 0.516262 0.000252601)
(-0.0103734 0.338329 9.08754e-05)
(-0.000400929 0.124439 5.11511e-06)
(-0.704796 -0.152714 0.00615278)
(-0.674911 0.0263539 0.00589197)
(-0.642842 0.191045 0.00561208)
(-0.60872 0.341242 0.00531425)
(-0.572685 0.476755 0.00499972)
(-0.534906 0.597292 0.00466997)
(-0.49556 0.702529 0.00432654)
(-0.454859 0.792028 0.00397128)
(-0.413054 0.865269 0.00360636)
(-0.370429 0.921644 0.00323429)
(-0.327325 0.960447 0.00285803)
(-0.284129 0.980871 0.00248096)
(-0.241302 0.981981 0.0021071)
(-0.199383 0.962715 0.00174117)
(-0.159002 0.921854 0.00138864)
(-0.120884 0.857986 0.00105585)
(-0.0859126 0.769479 0.000750517)
(-0.0550443 0.654383 0.000480983)
(-0.0295607 0.510356 0.000258425)
(-0.0106152 0.334451 9.29937e-05)
(-0.000411241 0.123011 5.24314e-06)
(-0.725562 -0.151253 0.00633408)
(-0.694066 0.025798 0.00605921)
(-0.660468 0.18864 0.00576596)
(-0.624888 0.337152 0.00545541)
(-0.587461 0.471145 0.00512873)
(-0.548347 0.590326 0.00478732)
(-0.507719 0.694375 0.0044327)
(-0.465784 0.782858 0.00406666)
(-0.422788 0.85526 0.00369136)
(-0.379016 0.910981 0.00330926)
(-0.334805 0.949324 0.00292335)
(-0.290545 0.969493 0.00253699)
(-0.246698 0.970565 0.00215423)
(-0.203809 0.951494 0.00177982)
(-0.162513 0.911077 0.0014193)
(-0.123545 0.847925 0.0010791)
(-0.0878027 0.760427 0.000767029)
(-0.0562577 0.646662 0.000491586)
(-0.0302158 0.504318 0.000264152)
(-0.0108531 0.330486 9.5078e-05)
(-0.000421433 0.12155 5.36954e-06)
(-0.74587 -0.150157 0.00651137)
(-0.712799 0.0248913 0.00622276)
(-0.677707 0.185895 0.00591647)
(-0.640705 0.332732 0.0055935)
(-0.601918 0.465212 0.00525495)
(-0.561501 0.583045 0.00490217)
(-0.519621 0.685911 0.00453661)
(-0.47648 0.773384 0.00416005)